/*--------------------------------*- C++ -*----------------------------------*\
| =========                 |                                                 |
| \\      /  F ield         | OpenFOAM: The Open Source CFD Toolbox           |
|  \\    /   O peration     | Version:  v2012                                 |
|   \\  /    A nd           | Website:  www.openfoam.com                      |
|    \\/     M anipulation  |                                                 |
\*---------------------------------------------------------------------------*/
FoamFile
{
    version     2.0;
    format      ascii;
    class       volScalarField;
    location    "650";
    object      k_0;
}
// * * * * * * * * * * * * * * * * * * * * * * * * * * * * * * * * * * * * * //

dimensions      [0 2 -2 0 0 0 0];


internalField   nonuniform List<scalar> 
13851
(
0.000204674
0.000153373
0.000153194
0.0206879
0.000148442
0.000156201
0.00015307
0.000147331
0.0377904
0.000148387
0.000176407
0.000148465
0.000148931
0.0272316
0.000168122
0.000204602
0.0219462
0.000147616
0.000239316
0.00020461
0.000171699
0.000155493
0.0386449
0.000149734
0.00972707
0.000184786
0.000234099
0.000253594
0.0256458
0.000146341
0.0523051
0.000153085
0.000204292
0.0403275
0.000169304
0.0234017
0.000149811
0.0264983
0.0881577
0.000148544
0.0682734
0.0235418
0.0075233
0.000225858
0.0222841
0.000147389
0.000144798
0.000204079
0.000151824
0.000148901
0.036367
0.000149218
0.000204613
0.00016219
0.0229884
0.000148547
0.00020482
0.0699997
0.000233224
0.0355597
0.000148517
0.000231223
0.000148605
0.00015212
0.000181879
0.000182586
0.0297141
0.000166627
0.00014863
0.0306431
0.0497051
0.000176811
0.000148356
0.0313531
0.000163963
0.000152245
0.0287266
0.000145508
0.00697602
0.000147659
0.000148676
0.0002504
0.000168804
0.0298961
0.0357547
0.0519974
0.000155739
0.0154864
0.000148315
0.0515167
0.000149346
0.000153299
0.0141006
0.0472481
0.0816583
0.000201515
0.000147592
0.00020574
0.0371075
0.000196912
0.000206988
0.000162156
0.000163088
0.000148622
0.000147305
0.000175265
0.000147313
0.0520185
0.000153285
0.000147503
0.000159278
0.000147383
0.000207442
0.000179201
0.000203805
0.000161331
0.000146336
0.00014686
0.0179125
0.034087
0.00019066
0.00014689
0.000148604
0.0519106
0.000226973
0.000172555
0.000147579
0.000170813
0.0585593
0.000175358
0.000155406
0.000161944
0.00779588
0.0420178
0.000177164
0.081635
0.000166101
0.0508712
0.000160163
0.000175131
0.000241932
0.000150324
0.000148338
0.000171539
0.00664454
0.000151851
0.000145441
0.0474736
0.0305066
0.000171414
0.000206735
0.000205876
0.000180539
0.000227016
0.000149486
0.000148648
0.000148612
0.0837838
0.000172708
0.000152066
0.000149584
0.0248131
0.00017472
0.000204122
0.0277068
0.0307825
0.030427
0.0425144
0.000159026
0.0305439
0.000148624
0.000146355
0.000179541
0.000148828
0.0856131
0.000237489
0.000209656
0.000146252
0.000163899
0.000208816
0.00022597
0.000221332
0.000158513
0.000175075
0.00941269
0.0304842
0.000204332
0.000157387
0.000149258
0.000146825
0.000761778
0.000172653
0.0219553
0.00015641
0.000151581
0.000205191
0.000203378
0.000148315
0.000148697
0.000167606
0.000242109
0.0831582
0.0728922
0.000168129
0.000348349
0.0794767
0.000152353
0.00017475
0.0390844
0.000155334
0.000204081
0.000148549
0.000247017
0.000149544
0.000170027
0.000153351
0.000148811
0.000223431
0.000148613
0.000467548
0.000146234
0.000204508
0.0260311
0.0834637
0.000157081
0.000175107
0.000149747
0.000169745
0.000148028
0.000169734
0.0328822
0.000157077
0.000155272
0.00014873
0.0721726
0.000146297
0.02174
0.0747477
0.000192686
0.000149645
0.000433126
0.0353513
0.0192012
0.000204095
0.000164556
0.000175217
0.000218427
0.00016406
0.000200244
0.000160623
0.0169557
0.000204209
0.000147074
0.000156278
0.000206141
0.0247985
0.0158407
0.000146784
0.000173154
0.000148275
0.000215899
0.000226419
0.000156798
0.000175345
0.000204587
0.000148042
0.000162558
0.000199341
0.000285213
0.0001485
0.000148801
0.000157258
0.0328729
0.0123893
0.00017488
0.000147017
0.000225958
0.00022647
0.000200358
0.0001749
0.0366204
0.0351893
0.000157399
0.000165145
0.0323049
0.000147233
0.000148604
0.000201276
0.000172927
0.000146284
0.000149524
0.000147967
0.000147889
0.000164478
0.000148561
0.0379114
0.000173056
0.000148023
0.0248224
0.0492924
0.000149254
0.000205009
0.0364728
0.000150551
0.000149358
0.000174354
0.0296529
0.0896376
0.000182566
0.000148356
0.0253398
0.000148571
0.00018447
0.0433748
0.000293792
0.000151784
0.0189469
0.000937398
0.0588389
0.000205059
0.000162892
0.0873885
0.0568337
0.000257494
0.000148923
0.0297608
0.00754672
0.00021727
0.00020983
0.000152386
0.000181778
0.000157616
0.0160554
0.000163817
0.000146982
0.000144347
0.000157473
0.0550029
0.000380526
0.000147168
0.0801288
0.000157694
0.000162229
0.000152288
0.026365
0.000225948
0.000205358
0.000152978
0.000154568
0.0203028
0.000149275
0.000228617
0.000157255
0.00017427
0.000158247
0.000148295
0.000147994
0.000200049
0.000201337
0.000204565
0.00245229
0.0197221
0.000151975
0.0736399
0.000222964
0.000145883
0.000296524
0.000192837
0.0431287
0.000156939
0.00018603
0.000229889
0.0100059
0.00019772
0.0179661
0.000150074
0.000239388
0.00780031
0.00016167
0.0209013
0.000164121
0.0769575
0.000164751
0.000170079
0.00020358
0.000217567
0.00014865
0.000156718
0.000174006
0.000164186
0.000147558
0.000175222
0.00841091
0.000148328
0.000174882
0.0122594
0.000153105
0.00273435
0.000173484
0.0923157
0.000156037
0.000183241
0.000324917
0.000227679
0.000174602
0.013849
0.0306412
0.000394985
0.000148068
0.000199939
0.000164212
0.000185677
0.000146998
0.00922321
0.0166525
0.0122252
0.000154479
0.000204389
0.000232596
0.013393
0.000144883
0.0217496
0.000226664
0.0351923
0.000161199
0.000124242
0.000148486
0.000148755
0.0203627
0.000233322
0.000148398
0.000153455
0.00017543
0.00014661
0.00917152
0.000182161
0.000192219
0.000155902
0.000150105
0.000149328
0.0061091
0.000148007
0.00014926
0.000121313
0.00679271
0.000154891
0.000227315
0.000148645
0.000148548
0.000153668
0.00020475
0.00017308
0.000147629
0.00015067
0.000190054
0.000151706
0.0892381
0.000148426
0.000158261
0.0210334
0.000160527
0.000144803
0.000148751
0.000155811
0.000148768
0.000372275
0.000195029
0.000164826
0.000627901
0.000153756
0.000148313
0.0503111
0.000229818
0.000160113
0.000148413
0.054713
0.000159652
0.000429355
0.000148628
0.000162294
0.000199233
0.000165998
0.058319
0.000232696
0.00582243
0.000152346
0.000206306
0.000148029
0.0258851
0.000173473
0.00020336
0.000164005
0.000152645
0.000160523
0.000180006
0.000148514
0.0144738
0.0522656
0.0896234
0.00689133
0.000247538
0.0460603
0.000228084
0.000156545
0.000149358
0.00448497
0.000148395
0.00014754
0.000157693
0.0879567
0.000153008
0.000150348
0.00017326
0.000173551
0.000148488
0.0746297
0.000147611
0.053347
0.000340431
0.000147648
0.000151858
0.000230663
0.000294037
0.000146339
0.0575196
0.0198268
0.000145614
0.0729448
0.000238933
0.000204237
0.000152303
0.000131823
0.0400674
0.000145743
0.000244012
0.000148606
0.000147619
0.000187458
0.0778841
0.000168708
0.000172451
0.00014842
0.00018053
0.0557672
0.0845934
0.000146631
0.0318402
0.000147607
0.000148653
0.00017485
0.000158178
0.00014483
0.000152253
0.0757045
0.000213294
0.0713187
0.000152428
0.000148257
0.02987
0.000149165
0.000201103
0.000158274
0.000164074
0.000164375
0.0106076
0.0411836
0.000156197
0.0198035
0.00015132
0.000181135
0.0227032
0.0282506
0.000148614
0.000148061
0.000163564
0.073305
0.000222254
0.000180002
0.009911
0.000158338
0.000163827
0.0394427
0.0819754
0.000182136
0.0540165
0.000213993
0.019077
0.000149573
0.000233089
0.00025025
0.000148456
0.0154865
0.0825531
0.000159026
0.000175126
0.000148497
0.000517902
0.000174766
0.0572652
0.000148026
0.000149022
0.000155373
0.000172994
0.000148493
0.0848107
0.000148982
0.000213083
0.000152376
0.000186347
0.000148583
0.000148508
0.000166654
0.0320182
0.000174282
0.0791512
0.000162337
0.000146693
0.000146409
0.000179729
0.000150648
0.000190772
0.000153841
0.000159802
0.00023154
0.000149174
0.0128394
0.000149675
0.000193715
0.022727
0.0248651
0.000157079
0.0510018
0.000172662
0.000209372
0.0843009
0.000147086
0.0843914
0.000157737
0.000162633
0.00877304
0.000180803
0.000145983
0.000189958
0.000148197
0.0216351
0.0374484
0.000148929
0.000167521
0.0150105
0.000149747
0.000149671
0.000184959
0.010971
0.000258089
0.000149376
0.000203327
0.000151292
0.000148538
0.000230717
0.000204038
0.000196149
0.000144746
0.000199371
0.000163619
0.00018124
0.000150555
0.000151304
0.000173536
0.000155169
0.000201869
0.000176599
0.000176515
0.000178476
0.000391043
0.000240081
0.00167181
0.0438837
0.000205429
0.036029
0.000162868
0.000170774
0.000205223
0.000147466
0.000163185
0.000231543
0.00015658
0.000147669
0.000147629
0.000193911
0.0163947
0.000158539
0.0748791
0.000146722
0.000251823
0.000178249
0.0348498
0.000189533
0.000156223
0.000153186
0.0403395
0.000196052
0.00016249
0.000233413
0.00014974
0.00485248
0.000194073
0.000213431
0.000163331
0.000284561
0.00014846
0.000149618
0.000151933
0.00014855
0.0242031
0.000147878
0.000229326
0.033923
0.00019008
0.0866603
0.040662
0.000214728
0.000214954
0.000156853
0.000149143
0.000148717
0.00014558
0.000146415
0.000148844
0.000181717
0.000206504
0.000164439
0.000261777
0.000151119
0.0388214
0.000149957
0.0239513
0.000167353
0.000149885
0.000148825
0.0263481
0.000156487
0.000265098
0.0796102
0.00017393
0.000184464
0.00014545
0.045782
0.000153112
0.000153099
0.000231968
0.000149167
0.000150308
0.000147073
0.000173585
0.0178664
0.000159929
0.000163768
0.000232485
0.0801693
0.000157122
0.000155904
0.0202088
0.000145541
0.0212408
0.00014929
0.000151751
0.00502316
0.000189902
0.000203355
0.000184324
0.000174559
0.000149485
0.000149956
0.000182673
0.000149705
0.000149538
0.000159154
0.000225711
0.00014776
0.000202526
0.00157901
0.000282515
0.000184069
0.0490703
0.000160468
0.000149111
0.000196292
0.00014683
0.000156828
0.000977774
0.0192632
0.0843422
0.0164316
0.000149088
0.000148815
0.000168888
0.000151019
0.000147021
0.0325651
0.000216442
0.0231938
0.000193957
0.000190578
0.000148584
0.00014639
0.00586141
0.000192262
0.000152352
0.000149664
0.000203285
0.000210699
0.0761592
0.000149448
0.00014894
0.0153661
0.000150511
0.000164269
0.000146639
0.0889061
0.000147993
0.0260372
0.000148476
0.000189266
0.000169624
0.000168566
0.000163642
0.000148354
0.000153478
0.00014802
0.000227632
0.000150462
0.0187508
0.000149925
0.000268448
0.04508
0.000161899
0.000147885
0.013799
0.000404213
0.0001568
0.00018983
0.000148719
0.0139196
0.000147559
0.000231691
0.000148372
0.000147997
0.000278428
0.000164592
0.000148681
0.000162695
0.0666084
0.000431285
0.0205212
0.000146797
0.0378199
0.000148461
0.000147808
0.000149474
0.000144062
0.000149543
0.0374681
0.0022477
0.000148671
0.000148956
0.000169155
0.000147389
0.0175547
0.000197617
0.0321864
0.0888795
0.00015341
0.000201714
0.000148408
0.000171624
0.000175185
0.000146948
0.00014935
0.000721546
0.0396087
0.000183893
0.0108044
0.000182515
0.00014863
0.000169865
0.000190247
0.0284834
0.000163357
0.000270502
0.000192842
0.000149463
0.058919
0.0551592
0.0216235
0.000918741
0.000205985
0.000152254
0.00017496
0.00014929
0.000265923
0.000156075
0.000147005
0.0283818
0.000150911
0.000147888
0.000148614
0.000150635
0.0859393
0.000229146
0.000147067
0.000170402
0.029156
0.000151195
0.00970952
0.0001515
0.000188752
0.0813189
0.000148584
0.000224658
0.000159073
0.00016307
0.000483943
0.000150884
0.00024968
0.000182717
0.06568
0.000148379
0.0184064
0.000161245
0.0439405
0.0313494
0.0150262
0.000173939
0.000148466
0.000149151
0.000149746
0.000168735
0.00014877
0.0593509
0.000157912
0.0001564
0.000156978
0.000152143
0.000146764
0.000156822
0.000157233
0.000151858
0.000156532
0.0858127
0.000226307
0.000160637
0.000168459
0.0276341
0.000150429
0.0591071
0.000145639
0.000160295
0.000150494
0.000147733
0.000165813
0.000148279
0.000147024
0.000162967
0.000148698
0.000221638
0.000150259
0.0137483
0.000288032
0.00021953
0.000233476
0.000148131
0.0826053
0.000208859
0.000149483
0.000157052
0.000150144
0.0630612
0.000151511
0.000162682
0.000302507
0.0100315
0.000176677
0.000148498
0.0137539
0.000298234
0.00019075
0.000158996
0.000146618
0.000146483
0.000182671
0.000148468
0.0347161
0.000201172
0.000149292
0.000223006
0.00022543
0.000146994
0.0813018
0.0236381
0.000215536
0.000150194
0.0124289
0.000181574
0.000148043
0.0187624
0.000155671
0.000146931
0.000147674
0.000162824
0.000169107
0.0377755
0.0545123
0.000170583
0.0318358
0.000164624
0.000148306
0.000168992
0.000147665
0.00194884
0.000146811
0.000148189
0.000152598
0.000149605
0.0391826
0.0147244
0.000222498
0.0404588
0.0968941
0.000157051
0.000148357
0.000150273
0.000249129
0.000146643
0.000147703
0.000168055
0.00652037
0.000221438
0.000145308
0.000164361
0.000163918
0.000204186
0.00859403
0.000145559
0.000144731
0.000151647
0.00573328
0.000159037
0.05823
0.00015128
0.00014902
0.000146954
0.000147646
0.000153327
0.000214766
0.0169693
0.0297349
0.000157003
0.000148318
0.0028866
0.000148769
0.000118281
0.0479521
0.000158072
0.0363247
0.0250451
0.0448633
0.000178555
0.000163086
0.0413361
0.000161574
0.000159915
0.000169207
0.000209983
0.000149609
0.000496737
0.000148333
0.000299026
0.0106805
0.000145673
0.000152523
0.000166112
0.000242269
0.000164515
0.000148869
0.000158624
0.000151577
0.00015551
0.000241641
0.000149041
0.000477027
0.0175922
0.000148366
0.000162093
0.000168835
0.000148497
0.0197364
0.0084255
0.0849404
0.0216485
0.000148196
0.000153577
0.000156259
0.000149466
0.000222566
0.000164903
0.000149692
0.000182227
0.00015483
0.000142474
0.000169785
0.0245949
0.000151463
0.000151258
0.000163652
0.000191924
0.00018447
0.000148047
0.00739284
0.0505589
0.0293618
0.0515781
0.00043833
0.033323
0.0416238
0.000148058
0.000148239
0.000147719
0.000221216
0.000172712
0.000184065
0.0151867
0.000148194
0.000145384
0.000148421
0.000215162
0.000145358
0.000156811
0.000152118
0.000208183
0.000150923
0.00014688
0.000148532
0.000148013
0.000149005
0.000159779
0.000221709
0.000159982
0.00258945
0.000148237
0.000147657
0.0563341
0.0411561
0.0155871
0.000279987
0.000163756
0.000261181
0.000146583
0.000168603
0.000151267
0.000148502
0.000152926
0.0317773
0.000150753
0.000192443
0.00522233
0.000148516
0.000147672
0.000155128
0.000215321
0.000149802
0.000229274
0.000147639
0.000217818
0.000148779
0.000148672
0.000156976
0.000171152
0.000148952
0.000235132
0.0502235
0.000211805
0.0373156
0.000148487
0.0335486
0.000247747
0.000148304
0.0111093
0.000149446
0.00016187
0.000149277
0.000147795
0.000147614
0.000148531
0.000149577
0.000155818
0.000183801
0.000148689
0.000148604
0.000165689
0.000145774
0.093089
0.000148782
0.000162834
0.000164318
0.0413393
0.000283695
0.000148938
0.000215748
0.000146594
0.000160978
0.000172174
0.000278937
0.000175215
0.000149804
0.000198199
0.000167953
0.000190312
0.000279485
0.000160562
0.000202011
0.000180077
0.000184366
0.000150825
0.000147002
0.00028068
0.0116863
0.000153609
0.000148015
0.0099446
0.000146758
0.000171149
0.000147679
0.000176021
0.0134606
0.000144303
0.0168547
0.000156036
0.000149072
0.000208921
0.000146993
0.000161421
0.0221639
0.000169313
0.000279574
0.000147582
0.000149753
0.000162193
0.000149488
0.000149614
0.000158405
0.000160387
0.000183892
0.000177574
0.000148716
0.000164414
0.000146906
0.000148361
0.000149413
0.000148326
0.000757129
0.00014704
0.000151573
0.000226128
0.000146719
0.000147936
0.0342693
0.00014964
0.0169786
0.000151051
0.0214335
0.000224833
0.000164362
0.00380935
0.000177271
0.000293206
0.000149165
0.000211571
0.000156777
0.000146887
0.000147416
0.000151568
0.000161949
0.000147953
0.000170035
0.00014725
0.000151203
0.00831942
0.0361854
0.000160173
0.000152828
0.000163441
0.0493165
0.0298614
0.00014912
0.000156457
0.000346342
0.000148425
0.00016748
0.00184788
0.0278239
0.00015741
0.000171807
0.000150421
0.000229504
0.000149899
0.00016072
0.000253176
0.000148989
0.000147459
0.091255
0.00017005
0.000224567
0.0355707
0.000194244
0.000149808
0.000147271
0.00014879
0.042195
0.000271468
0.000340399
0.000173611
0.000148559
0.0580507
0.00014868
0.000204939
0.000155516
0.000151124
0.000171666
0.000148337
0.0814077
0.0956952
0.000145172
0.000183518
0.000173593
0.00414619
0.00017111
0.000179703
0.00022372
0.000164401
0.00022496
0.000181096
0.000148696
0.000165831
0.000168803
0.000105361
0.000148169
0.000260291
0.000172053
0.000181016
0.000149808
0.0970725
0.000156036
0.000151968
0.000147095
0.000165369
0.000164899
0.000165963
0.000148816
0.00015021
0.000170943
0.0125655
0.000174883
0.000149002
0.000150451
0.000165672
0.000219947
0.000149112
0.000179742
0.0262857
0.000166731
0.0193865
0.000168529
0.0364683
0.000249205
0.000148073
0.000913807
0.000149551
0.00015399
0.00016332
0.00016505
0.000191356
0.000173789
0.000164938
0.000166089
0.000161464
0.000152776
0.000145301
0.000169434
0.000155078
0.000157095
0.000289509
0.000155571
0.000158592
0.000147617
0.0188379
0.000178323
0.000148717
0.000153834
0.000151741
0.0303133
0.000201856
0.000163327
0.0207938
0.000264616
0.000425599
0.000191101
0.000225293
0.000147215
0.000185731
0.000147579
0.000155647
0.0274992
0.0199114
0.000253382
0.000992003
0.000148755
0.0261869
0.000147195
0.000189545
0.000154127
0.000273
0.039355
0.000155423
0.000148018
0.000246843
0.000162101
0.000148102
0.0495256
0.000148483
0.000152124
0.000155108
0.00014928
0.000160954
0.000151864
0.000148552
0.000162116
0.000279467
0.000169758
0.000174981
0.000148075
0.0420309
0.0182055
0.000147897
0.000228936
0.000154055
0.000157174
0.000246882
0.000147874
0.000150376
0.000156457
0.0630878
0.000148155
0.00014916
0.000168973
0.000206263
0.000147773
0.000159225
0.000160889
0.000289205
0.000170961
0.000168562
0.000221925
0.000148499
0.000172754
0.000145794
0.0344133
0.000160088
0.000148414
0.000156992
0.00018766
0.00014893
0.000148306
0.000205111
0.00711199
0.00014871
0.0330049
0.000149212
0.000145711
0.000181649
0.000148161
0.000147031
0.0702863
0.00014982
0.000169792
0.000208179
0.0663865
0.000284563
0.000146484
0.000152813
0.000156392
0.000148414
0.000148468
0.000148592
0.000274126
0.000149278
0.000223002
0.000200039
0.000147384
0.000145876
0.000160535
0.000200014
0.00022804
0.000166105
0.000176176
0.000152321
0.0369083
0.000175025
0.000160796
0.000170054
0.000170952
0.000188993
0.0247238
0.000167665
0.0196178
0.000256424
0.0235673
0.000153726
0.000147892
0.000166437
0.000159484
0.000146671
0.000148716
0.00017785
0.000149601
0.000149064
0.000148282
0.000144761
0.000151571
0.000147919
0.0273219
0.000147998
0.0347439
0.000148467
0.000173024
0.000149703
0.000200616
0.00017258
0.00014849
0.00250952
0.000152726
0.000149489
0.000169331
0.000146797
0.00015844
0.000147613
0.0131924
0.000152898
0.000170478
0.000170634
0.00137016
0.000157308
0.000223076
0.000284016
0.000168451
0.0001481
0.000150543
0.000175287
0.000180655
0.0352712
0.000146332
0.0341923
0.000148528
0.000169175
0.0914278
0.000164116
0.000275433
0.00015439
0.000163032
0.000153671
0.0967655
0.000160959
0.000148857
0.000167614
0.000202603
0.000151502
0.00014827
0.000148877
0.0872048
0.000149675
0.000156685
0.0430292
0.000155028
0.00014806
0.000170303
0.000153953
0.000124003
0.000145383
0.000148286
0.000146978
0.000154942
0.000149084
0.00014819
0.00018254
0.0478131
0.00014793
0.00014864
0.00026529
0.000148237
0.0171547
0.000151629
0.0960235
0.000147165
0.000153016
0.000146587
0.0220659
0.0336649
0.000158591
0.000168807
0.00015571
0.000147827
0.000148725
0.0115385
0.000148819
0.000189337
0.000146663
0.000170407
0.000149237
0.00280723
0.000146798
0.000172798
0.000147492
0.000224387
0.000377762
0.000146626
0.000165327
0.0898941
0.000184142
0.00025757
0.000274036
0.000207595
0.000151914
0.000164365
0.000191345
0.000285413
0.000147946
0.00016747
0.000156489
0.000147972
0.0188922
0.0388155
0.000184305
0.000208363
0.000247893
0.000161553
0.026807
0.00014659
0.000146569
0.000188617
0.093244
0.000219103
0.000203464
0.00029125
0.000146596
0.0973322
0.0281605
0.0890122
0.000149301
0.0440614
0.050359
0.000386531
0.000404876
0.0430056
0.000190431
0.000160616
0.000207412
0.000154504
0.000148008
0.000975746
0.000192423
0.000145164
0.0419686
0.000149229
0.000157932
0.000171237
0.000155441
0.000187194
0.00016008
0.0123318
0.000172185
0.00015505
0.000314777
0.0871887
0.000204262
0.000149918
0.000154628
0.000183501
0.000167843
0.000146718
0.000172591
0.000167076
0.000200074
0.000148016
0.000212902
0.00015305
0.000167605
8.66613e-05
0.000224848
0.000151411
0.000184852
0.043872
0.00014899
0.000150434
0.0874876
0.000234242
0.000153198
0.000153783
0.000148556
0.000173487
0.000154904
0.0223451
0.000190873
0.000150041
0.000149444
0.00016673
0.000158518
0.000254353
0.0416078
0.000147267
0.000148172
0.000157419
0.000149258
0.000152983
0.000150663
0.000150178
0.000154687
0.000147681
0.000153677
0.000149245
0.000174111
0.0002755
0.000149747
0.00844749
0.0214235
0.000145792
0.000182728
0.000186932
0.000178316
0.000150464
0.000192401
0.000157243
0.000168458
0.000160365
0.000151271
0.000149345
0.0344023
0.000157937
0.000274711
0.000150438
0.000148416
0.000148084
0.000172223
0.000147872
0.000175529
0.000181281
0.000336686
0.000147399
0.00024394
0.0073926
0.0529727
0.000146534
0.000196291
0.000224507
0.00930642
0.0013775
0.000150361
0.000149103
0.000195355
0.000283133
0.000283071
0.000169843
0.0002301
0.000149499
0.00014702
0.000163653
0.000149279
0.00014913
0.000202117
0.000149759
0.000169289
0.00014709
0.0789681
0.0086232
0.000137235
0.000111749
0.0503673
0.000148997
0.000148931
0.0622353
0.000146465
0.000146724
0.000145722
0.000183042
0.0452717
0.0370528
0.0001561
0.000147867
0.000151094
0.000162202
0.029084
0.000148126
0.000273
0.0791338
0.000149231
0.000149133
0.0299944
0.00018796
0.000150959
0.000148266
0.0197265
0.0591604
0.000147745
0.000216899
0.000149677
0.0527248
0.000616896
0.000151245
0.0263581
0.0178132
0.00086295
0.000146955
0.000147936
0.000149623
0.000149899
0.0397041
0.000147549
0.000200469
0.000226424
0.0329723
0.00014996
0.000172838
0.000258192
0.000173184
0.0555827
0.0668482
0.000145156
0.000155321
0.000155534
0.000202856
0.0157716
0.000144661
0.0180367
0.00015991
0.000171352
0.00015049
0.000147506
0.000229607
0.000167383
0.0193753
0.000149276
0.000172792
0.000149755
0.000201007
0.000153033
0.0478622
0.00031027
0.000205513
0.000192632
0.000147961
0.000152406
0.000190622
0.000182085
0.0312146
0.0801101
0.00014892
0.000265053
0.000170349
0.0951232
0.000156306
0.000169455
0.000168201
0.000148257
0.00487195
0.000148412
0.000163333
0.019869
0.0745326
0.000665084
0.0538896
0.000157304
0.000174971
0.00014615
0.0810371
0.000156403
0.00580278
0.000146037
0.000402259
0.000144363
0.000147957
0.000162818
0.000158395
0.000159445
0.000148033
0.0296748
0.000171756
0.000147576
0.000164869
0.0231585
0.000229836
0.000148452
0.0718281
0.00015321
0.000164603
0.000162677
0.000145626
0.000177692
0.000147914
0.0228259
0.000172326
0.000156622
0.00014824
0.000239204
0.000168769
0.000146026
0.000221682
0.000239318
0.000225238
0.000145052
0.000286609
0.000148894
0.000192219
0.000157817
0.000180641
0.000211157
0.0305603
0.00015957
0.05092
0.00016851
0.000157244
0.000146778
0.00134782
0.000178868
0.000191254
0.000165316
0.000149591
0.000218487
0.000183225
0.000244601
0.000224779
0.0874817
0.0291356
0.00508245
0.0459709
0.000157508
0.000158547
0.000148593
0.000148177
0.000144818
0.000212019
0.00015792
0.000159585
0.0824694
0.000147645
0.000146904
0.00017001
0.000202981
0.000158275
0.000146933
0.0847109
0.000153037
0.000173764
0.000149047
0.028114
0.000156958
0.0325547
0.000166155
0.000164438
0.000170163
0.000148547
0.0107093
0.000253487
0.000179928
0.000148379
0.000147232
0.0201355
0.0535677
0.0238468
0.000147049
0.000180221
0.000266062
0.000148026
0.000147952
0.00014845
0.0480313
0.000171644
0.000162145
0.000157083
0.000155835
0.000552661
0.000178519
0.000226103
0.000156025
0.000163201
0.000144696
0.000182762
0.000171932
0.000148253
0.0096702
0.0698856
0.0672079
0.00500567
0.0465599
0.0947579
0.0649792
0.00015148
0.000146784
0.0171824
0.0537287
0.00381765
0.000148521
0.0001694
0.000148581
0.000147903
0.000273386
0.0747326
0.00018206
0.000147961
0.000235752
0.000192187
0.000173955
0.0379718
0.000400315
0.000230132
0.00014727
0.0502035
0.000268282
0.000235252
0.000162732
0.000170845
0.000149266
0.000147112
0.000167495
0.000171609
0.000153249
0.000169555
0.000158223
0.00015396
0.000218686
0.0305034
0.000158863
0.000170883
0.0532203
0.000216
0.00014869
0.000193638
0.000232813
0.0193523
0.000168416
0.000148418
0.000160099
0.000156478
0.000158057
0.000145615
0.000159038
0.000161955
0.000173461
0.00020478
0.000149498
0.000150865
0.0301293
0.0147605
0.088432
0.000258664
0.000197625
0.00014424
0.000148506
0.000160845
0.000146083
0.094678
0.000148428
0.000149818
0.000145938
0.0111331
0.0249947
0.000149815
0.000181994
0.000157766
0.000161096
0.000160362
0.000159903
0.000169556
0.000165646
0.0222583
0.000156069
0.0548535
0.000166195
0.0897614
0.000159436
0.000147408
0.000146722
0.000192956
0.000205002
0.000146667
0.000162493
0.000159746
0.00017507
0.000119737
0.0238559
0.000154642
0.000149816
0.000269716
0.000158142
0.000163421
0.000148229
0.000179252
0.000152129
0.0189474
0.00030002
0.000164956
0.000148489
0.0136604
0.000155848
0.0321218
0.0514145
0.00021946
0.000152986
0.00019952
0.00014836
0.000293149
0.0450804
0.000176481
0.000147726
0.000166208
0.00014698
0.0911128
0.000153448
0.000161594
0.000235708
0.0894183
0.000147533
0.000147916
0.0539089
0.000168662
0.0909538
0.000158932
0.000148271
0.00017001
0.000220334
0.000162473
0.000283058
0.000163316
0.000293624
0.000154416
0.000149621
0.000147807
0.000220169
0.000150495
0.000181659
0.000148599
0.000148065
0.000215606
0.000155929
0.000148296
0.000148183
0.000163379
0.000287718
0.000171174
0.000167852
0.000155137
0.000177618
0.00014841
0.000191868
0.000161056
0.000171241
0.000167157
0.000157767
0.000173716
0.000162989
0.000146854
0.000183826
0.0506119
0.0213956
0.000148224
0.000943534
0.0305513
0.000147941
0.000150545
0.000230224
0.0422826
0.000156282
0.0287673
0.000251279
0.00014769
0.0001903
0.000144805
0.000155864
0.000178521
0.0366816
0.000205493
0.000220517
0.000248799
0.00526257
0.0562103
0.00015116
0.0400578
0.000148349
0.000267768
0.0581247
0.00014862
0.00014844
0.0218385
0.000149012
0.000148528
0.000238039
0.0152249
0.000219658
0.000155904
0.0533877
0.000148595
0.00998604
0.0343524
0.000149211
0.000241283
0.00843551
0.0611367
0.0256777
0.0338815
0.0221686
0.000147148
0.000151543
0.000179325
0.000182574
0.000148497
0.00021526
0.000148297
0.0332142
0.000232249
0.000164175
0.0002265
0.0324275
0.000230742
0.00022145
0.000165742
0.0237937
0.000270924
0.000154679
0.000145161
0.000276646
0.000160779
0.000146417
0.09725
0.000147996
0.000282362
0.000149124
0.0621343
0.00015491
0.000147971
0.00687644
0.00015603
0.000160325
0.0200586
0.0435317
0.000882416
0.00015784
0.000172157
0.000151573
0.000168786
0.000201279
0.000169545
0.000149359
0.000325072
0.000180371
0.000160824
0.0231728
0.000169623
0.000161758
0.000200887
0.000183801
0.000172514
0.000147941
0.000209933
0.000146724
0.000201268
0.000228791
0.0502424
0.000147033
0.00016738
0.0271852
0.000151165
0.000177974
0.000161565
0.000169396
0.0272104
0.000180563
0.000151917
0.0349497
0.000147095
0.0125989
0.000148785
0.000150668
0.00020103
0.0225294
0.000160892
0.00018948
0.000227416
0.000161944
0.000148639
0.000177124
0.000171097
0.0836728
0.000155317
0.00599185
0.0002051
0.000161763
0.00016002
0.000177363
0.000165354
0.000167619
0.000180626
0.000162098
0.000153207
0.00014786
0.00111238
0.000148278
0.000159034
0.000144978
0.000197284
0.000159562
0.000180701
0.0424383
0.000151323
0.000219794
0.000144209
0.00014912
0.000149229
0.000149337
0.000156256
0.000147558
0.000190649
0.0352208
0.00018064
0.000172971
0.000154255
0.000148187
0.000224012
0.000148338
0.000165571
0.000153311
0.0334846
0.000205942
0.000162798
0.000157228
0.000149157
0.000157789
0.000170389
0.000168069
0.0630844
0.000180506
0.070911
0.00020608
0.000149355
0.000146789
0.0214964
0.000147862
0.000160454
0.00016667
0.000248036
0.000151162
0.0515074
0.000149101
0.00015513
0.000148598
0.000150267
0.000177021
0.000196536
0.000148859
0.000162954
0.000159781
0.000173611
0.000180002
0.000222809
0.000200077
0.000215798
0.000202689
0.000155489
0.000150721
0.000179626
0.0208551
0.0523136
0.0176515
0.000162522
0.000590928
0.000195798
0.00015018
0.00014791
0.000181553
0.000148923
0.000162699
0.0258077
0.000147866
0.000146785
0.000291549
0.000275445
0.00017401
0.000525552
0.000148978
0.0236696
0.000167988
0.0901798
0.000157196
0.000148359
0.011051
0.000164896
0.000148425
0.000171188
0.000149676
0.000190481
0.000159039
0.000164298
0.0974934
0.000159465
0.000776177
0.000147538
0.0613247
0.000148947
0.000155895
0.000149671
0.000170381
0.000148883
0.000165853
0.0152837
0.000245338
0.000174333
0.000160306
0.000168203
0.000147531
0.000148789
0.000150655
0.000267932
0.000154838
0.0684424
0.0356389
0.000189197
0.000149418
0.0001931
0.000207714
0.000203929
0.000155209
0.0523026
0.000148024
0.000144295
0.000147901
0.00498591
0.000148214
0.000148309
0.0160194
0.000147912
0.000204416
0.000171644
0.000146457
0.0356724
0.000158095
0.0654902
0.000147653
0.00029534
0.000150468
0.000167427
0.0280625
0.000182476
0.000147706
0.000157216
0.000138787
0.000162607
0.000194764
0.000161839
0.000155906
0.00018735
0.000157697
0.000148235
0.00943981
0.000159564
0.000158358
0.000204012
0.00014796
0.000147176
0.000149199
0.000161156
0.000148925
0.000154854
0.00129043
0.0151184
0.000171334
0.00944341
0.000181276
0.000164296
0.0911091
0.0600862
0.000149935
0.0207686
0.0502779
0.0284567
0.00102697
0.000161257
0.000138132
0.0184259
0.047787
0.00101709
0.0511731
0.000162653
0.000169459
0.000157518
0.000155651
0.000149875
0.000421575
0.000149899
0.0191668
0.000174352
0.000200049
0.000144853
0.00018643
0.000163487
0.000152217
0.000149952
0.000148684
0.000173909
0.00015177
0.000148547
0.000169348
0.0751746
0.000153107
0.000192755
0.000146709
0.000173892
0.00016914
0.000149049
0.000155821
0.000147572
0.0587308
0.0269615
0.00020904
0.0101545
0.000160538
0.000189869
0.000148828
0.000170223
0.000148952
0.000149143
0.00014954
0.00225527
0.00014643
0.000172811