/*--------------------------------*- C++ -*----------------------------------*\
| =========                 |                                                 |
| \\      /  F ield         | OpenFOAM: The Open Source CFD Toolbox           |
|  \\    /   O peration     | Version:  v2012                                 |
|   \\  /    A nd           | Website:  www.openfoam.com                      |
|    \\/     M anipulation  |                                                 |
\*---------------------------------------------------------------------------*/
FoamFile
{
    version     2.0;
    format      ascii;
    class       volScalarField;
    location    "500";
    object      p;
}
// * * * * * * * * * * * * * * * * * * * * * * * * * * * * * * * * * * * * * //

dimensions      [0 2 -2 0 0 0 0];


internalField   nonuniform List<scalar> 
13917
(
-0.0625196
-0.00766835
-0.0695921
-0.0456131
-0.00633373
-0.00777134
-0.0587456
-0.00209276
-0.0782608
-0.0693167
-0.00292763
-0.0344735
-0.0320858
0.00616141
-0.0105583
-0.0620039
-0.00263145
-0.00408582
-0.0645879
-0.0645056
-0.0170975
-0.0132841
-0.0631837
-0.0130143
-0.0385854
-0.0144299
0.0116146
-0.069609
-0.00822254
-7.13221e-05
-0.069316
-0.0819468
-0.0390361
-0.0636066
-0.00513096
-0.00151071
-0.0225547
-0.013523
-0.060134
-0.0227253
-0.000682777
-0.00165911
-0.0725525
-0.0725379
-0.0714995
-0.0268067
-0.0181549
-0.0653533
-0.00187138
-0.00525701
-0.0341247
-0.0378767
-0.062204
-0.0240766
-0.0254145
-0.0396119
-0.0682795
-0.0617718
-0.00165087
-0.0249916
-0.0310546
-0.0030021
1.03749e-05
-0.0387284
-0.0599385
1.56161e-05
-0.00678431
-0.0016673
-0.00324674
-0.0607311
-0.0625822
-0.0622251
-0.046047
-0.00177808
-0.0170041
-0.0325083
-0.00859461
-0.00177927
-0.0328186
-0.0391709
-0.0177261
-0.00333999
-0.0457855
-0.0664986
-0.0244243
0.00107291
-0.0817802
-0.0239523
-0.0223939
-0.00259205
-0.0021555
-0.0740085
0.00195803
-0.00480912
-0.0224488
-0.00726127
0.00861078
-0.00604284
-0.0242935
-0.00123545
-0.000355644
-0.000354233
-0.0178854
-0.00697822
-0.00860214
-0.0769658
-0.0654542
-0.00303067
-0.00153964
0.0132007
-0.0344472
-0.0637455
-0.00873965
-0.0693623
-0.0627267
-0.0298014
-0.0649974
-0.00114257
-0.0689229
-0.0454619
-0.0034484
-0.00210622
-0.00588389
-0.0534985
-0.0640922
-0.0650518
-0.0398165
-0.0160709
-0.00850713
-0.0548507
-0.0802791
-0.00973526
-0.072871
-0.0291419
-0.0796772
0.0141074
-0.0200939
-0.0720137
-0.0127385
-0.0131978
0.00946122
-0.00188427
-0.0801636
-0.0161591
-0.043587
-0.000987981
-0.0634498
0.00096499
-0.0703053
-0.0242859
-0.023402
-0.000158314
-0.0433236
-0.0458913
0.0109118
-0.00945661
-0.00686023
-0.0767536
-0.000966318
-0.00112179
-0.0213139
-0.0607064
-0.0169359
0.00835733
-0.0551227
0.00226384
-0.0619957
-0.0578429
-8.76718e-06
-0.0118389
-0.012373
-0.0701433
-0.0789318
-0.025551
-0.0341162
-0.000467782
-0.0465281
-0.0356269
-0.0801556
-0.0162863
-0.0700295
-0.012611
-0.0334046
-0.0442712
-0.0679033
-0.00816723
-0.0330312
-0.0426256
-8.25306e-05
-0.000102644
-0.03258
-0.0720534
-0.0474385
-0.0639104
-0.00496299
-0.0632932
-0.0394658
-0.0735514
-0.00520432
-0.00984217
-0.0201556
-0.0608777
-0.0709612
-0.0206094
0.0105865
-0.0111272
-0.0236279
-0.00199927
-0.0372944
-0.0170939
-0.00893606
-0.00512308
-0.00480935
-0.0674717
-0.0804583
-0.0135501
-0.0640795
-0.0172274
-0.00171286
-0.00165028
-0.0608505
-0.0456663
-0.0410864
-0.0333097
-0.000107505
0.0159695
-0.0630686
-0.00185966
-0.00187768
-0.000722888
-0.00157802
-0.00151666
-0.0624161
-0.063906
-0.0156229
-3.52198e-05
-0.0440698
-0.0623707
-0.00139114
-0.0330566
0.0104417
-0.0829444
-0.0457657
-0.0650202
-0.0293514
-0.0164657
-0.0549588
-0.0448291
-0.009592
-0.0657931
-0.0211858
-0.0665939
-0.0456458
-0.0325371
-0.036006
-0.0148193
-0.000524863
-0.0397024
-0.00643285
-0.00392469
-0.0650078
0.00290613
-0.00256283
-0.00198973
-0.00937948
-0.00207124
-0.0460295
-0.0321418
-0.0498494
-0.00243554
-0.0765148
-0.0643981
-0.0301474
-0.00734675
-0.0211404
-0.000886864
-0.00455263
-0.0657938
-0.000935854
-0.0614401
-0.00394342
-0.0564053
-0.000508547
-0.0114478
-0.0145467
-0.0148183
-0.0574018
-0.0112193
0.0040298
-0.0341022
0.00314753
-0.000999741
0.00558839
-0.0751571
-0.00138362
-0.0538963
-0.00647238
-0.0277732
-0.00652167
-0.0338972
-0.00446597
-0.0110264
-0.0323878
-0.00269336
-0.0327493
-0.0342166
-0.0324865
-0.0739336
-0.0602344
-0.00792801
-0.000226826
-0.0285763
-0.00269559
-0.085407
-0.0653581
-0.0275109
-0.000114517
-0.0117764
-0.00744864
-0.0673753
-0.00245007
-0.0704975
-0.0319319
-0.0106678
0.00828769
-0.0111156
-0.0070398
-0.0709133
-0.00204101
-0.0707397
-0.0241441
-0.0976629
-0.000285174
-0.0635175
-0.0110996
-0.0346334
-0.0110448
8.58887e-05
-0.00212332
-0.0685125
-0.0770577
-0.0235232
-0.0107962
-0.0636316
-0.0807926
-0.0407618
0.0057252
-0.00100003
-0.0171101
-0.0854295
-0.0133897
-0.00105075
-0.00627865
-0.028904
-0.0100113
-0.0342664
-0.0484565
-0.0211885
-0.00434454
-0.0908933
-0.0635099
-0.00854039
-0.024129
-0.0059425
-0.0612224
-0.00162642
-0.0631727
-0.0917734
-0.0056633
-0.0251273
-0.01705
-1.80398e-05
0.000510027
-0.00134964
-0.0424504
-0.0232751
-0.0100433
-0.0300733
-0.0602815
-0.00017055
-0.0518866
-0.0473075
-0.00126371
-0.00218206
-0.0130638
0.000105284
-0.00492099
-0.0656273
-0.000584795
-0.0255156
0.0152311
-0.00615509
-0.0214937
-0.0500076
-0.0977593
-0.0272607
-0.0565801
-0.0186067
-0.00473341
-0.0693567
-0.0244077
-0.0669364
-0.0351644
-0.0155752
-0.0153764
-0.00876228
-0.0212018
0.00109527
-0.0246068
-0.00824845
-0.0135918
-0.0472006
-0.00134892
-0.00054633
-4.64135e-05
-0.0848583
-0.0160677
-0.0148485
-0.025879
-0.029784
0.0097601
0.000100902
-0.0652531
-0.0670282
-0.00102734
-0.000663952
-0.0174127
-0.0154093
-0.000596399
-0.0153213
-0.000705953
-0.00103564
-0.0600271
-0.0187815
-0.0234484
-0.0760458
-0.05253
-0.00900607
-0.0424958
-0.0518751
-0.0191553
-0.0636065
-0.000368291
-0.0322668
-0.000129313
-0.00143097
-0.0225216
-0.0122602
-0.0254134
-0.000291772
-0.0809672
-0.0318557
-0.0715694
-0.000371527
-0.017073
-0.0311821
-0.0394945
-0.029202
0.0138116
-0.00930052
-0.0145855
-0.013563
-0.0134215
-0.00877448
-0.0211309
-0.0729868
-0.0300826
-0.00871035
0.00479417
-0.0821355
-0.0328447
-0.0511519
-0.103962
-0.0540986
-0.0701168
-0.0835886
0.000186111
0.000794573
-0.0125689
-0.000194439
-0.000354259
-0.0209668
-0.0446024
-0.00227674
-0.0244617
-0.0230909
-0.0716674
-0.0199298
-0.0671499
-0.0686392
-0.00134525
-0.00700066
-0.00452519
-0.0204959
-0.0242007
0.00766749
-0.0560229
-0.0352324
-0.0469889
-0.0246077
-0.0195685
-0.034846
-0.0128601
-0.0767693
-0.0149703
-0.0013733
-0.0478425
-0.000406356
-0.0166168
-0.0310558
-0.0813945
0.0126729
-0.0215298
-0.0530827
-0.00157004
-0.040336
-0.0120651
-0.0240164
-0.0250173
-0.0213932
-0.038493
-0.00347116
-0.00770342
-0.00156127
-0.00989579
-0.0159105
-0.00419696
-0.0449341
-0.00213735
-0.0672573
-0.0128594
-0.0141651
-0.0355758
-0.0647259
-0.00358107
-0.0595245
-0.00408753
-0.0713172
-0.0523144
-0.00741717
-0.0358821
-0.000664421
-0.0334505
-0.00544717
-0.0725927
-0.0604143
-0.0772267
-0.0073598
-0.0131062
-0.00127288
-0.0321302
-0.0630265
-0.000823088
-0.000288679
-0.0405709
-0.0700089
-0.00303024
-0.0713463
-0.0702542
-0.00843223
-0.097822
-0.00592169
-0.00259411
-0.0685854
-0.00046029
-0.0773985
-0.000163977
-0.0327832
-0.0131349
-0.0677869
-0.00399189
-0.00231464
-0.0751555
-0.0504547
-0.00598549
-0.0639073
-0.0791573
-0.0518941
-0.00367276
-0.0620441
-0.000100081
-0.0263213
0.00535401
-0.00241543
-0.000159292
-0.000125454
-0.0557414
-0.069649
-0.000500186
-0.00619341
-0.0292123
-0.0655392
-0.0227339
-0.0834911
-0.0241284
-0.00227668
-0.000958096
-0.0290391
-0.0496699
-0.068334
-0.0658671
-0.0460671
-0.0540422
-0.0624435
-0.00479976
-0.0452634
-0.0304023
-0.101995
-0.031627
-0.0614075
-0.0157382
-0.00432993
-0.0442964
-0.00636853
-0.0521413
-0.0628434
-0.00268553
-0.0503877
-0.0061384
-0.000150725
-0.0638333
0.00263106
-0.00561245
-0.048077
-0.0327572
-0.00253389
-0.000155159
-0.0640388
-0.0231199
-0.00627085
-0.000779567
-0.00576475
-0.0602998
-0.00039813
-0.0523506
-0.00404011
-0.0117151
-0.0294346
-0.0835798
-0.0238777
-0.0727025
-0.07836
-0.0024249
-0.0331227
-0.00836195
-0.00993569
-0.0647669
-0.0878076
-0.0183107
-0.0232023
-0.00417503
-0.00415923
-0.00992887
0.000398855
-0.0503765
-0.0360076
-0.0475585
-0.0529829
-0.000692261
-0.0130109
-0.00284653
-0.0389081
-0.0490314
-0.0617149
-0.00461325
-0.00404579
0.000288764
-0.0120038
-0.00346322
-0.000936578
-0.00147302
-0.0184964
-0.0625391
-0.0904223
-0.00819519
-0.0713473
-0.00275466
-0.0648157
-0.0037881
-0.00821783
-0.0814702
-0.0542827
-0.00255571
-0.0453235
-6.73443e-05
-0.00718345
-0.0503617
-0.0596837
-0.0136699
-0.0665031
-0.0331204
0.00150863
-0.00171697
-0.00392159
-0.0769125
-0.0524339
-0.00711518
-0.00597821
-0.0656422
0.0155507
-0.0390571
-0.0641392
-0.00334979
-0.0112147
-0.00794442
-0.0215932
-0.0761374
0.000231715
-0.0507427
-0.0495514
-0.058753
-0.103406
-0.00781246
-0.0501836
-0.0889317
-0.022316
-0.0386003
-0.00735554
-0.0587657
-0.00677197
-0.0968239
-0.0262075
-0.00159588
-0.0654405
-0.000158017
-0.0026148
-0.0238704
-0.00973197
-0.044864
-0.0876633
-0.0032622
-0.0998337
-0.0491314
-0.000174018
-0.0332106
-0.027032
-0.0184349
-0.0307999
-0.0444979
-0.00649897
-0.000208979
-0.0290549
-0.0512351
-0.00801087
-0.0935517
-0.0768654
-0.0709409
-0.0493178
-0.0167535
-0.0958435
0.00754593
-0.00277529
-0.0556885
-0.0289856
-0.0869256
-0.0101162
-0.00915017
-0.00971195
-0.0605767
-0.0381505
-0.00343788
-0.0953578
-0.0137426
-0.00881151
-0.0408498
0.00524073
-0.00495546
0.0126624
-0.011183
-0.087745
-0.0451907
-0.00826324
-0.057954
-0.00225451
-0.00290976
-0.00227111
-0.00369438
-0.0433404
-0.0246391
-0.00682474
-0.00995131
-2.18455e-05
-0.00928427
0.00514555
-0.0245161
-0.0712432
-0.000316621
-0.0645043
-0.0113107
-0.0516515
-0.00463115
-0.0023458
-0.064437
-0.0375711
-0.0641274
-0.0699878
-0.00315353
-0.00844937
-0.00681675
-0.033183
-0.0699204
-0.0563275
-0.00186203
0.0118738
-0.030687
-0.086025
-6.60428e-05
-0.00301748
-0.00628705
-2.38394e-05
-0.0571934
-0.0618285
-0.00296704
-0.0641507
-0.00387414
-0.00276068
-0.00439249
-0.0197796
-0.00808804
-0.0231259
-0.028587
-0.0126668
-0.0938993
-0.00274516
-0.000404486
-0.0216096
-0.0609969
-0.0651079
-0.00284099
-0.0830182
0.0148293
-0.0608657
-0.00314564
-0.00980193
-0.00244109
-0.0368855
-0.033144
-0.0211724
-0.0574148
-0.0213169
-0.00110939
-0.0233712
-0.067641
-0.0383441
-0.0892202
-0.0181175
-0.00668203
-0.0216669
-0.0368685
-0.00286186
-0.0507326
-0.000144988
-0.0828148
-0.0498661
0.000887788
-0.0076631
-0.0385793
-0.0115083
-0.00925583
-0.0484928
-0.0102036
0.00149335
-0.0159969
-0.000957416
-0.0107309
-0.0178365
-0.100094
-0.00305746
-0.0103078
-0.00195233
-0.044975
-0.0184656
-0.0670954
-0.00735229
-0.000376476
-7.92349e-05
-0.00957469
-0.0632927
-0.00435666
-0.0457953
-0.0702022
-0.0625492
-6.09395e-05
-0.0031096
-0.0581296
-0.00144146
-0.0104143
-0.0126979
-0.0675747
-0.0376679
-0.0746855
-0.0361349
-0.0762906
-0.0109562
-0.00303903
-0.00847542
-0.000257049
-0.00247793
-0.0210598
-0.000109971
-0.0731559
-0.0245508
-0.0140597
-0.00105134
-0.00135157
-0.00229713
-0.0518102
-0.026817
-0.0629843
-0.024413
-0.100447
-0.0319844
-0.0574524
-0.0727088
-0.0212719
-0.0537538
-0.0340613
-0.0706777
-0.000372343
-0.0474478
-8.19094e-05
-0.00306912
-0.0244549
-9.60902e-05
-0.00168668
-0.00279915
-0.0336565
-0.0425631
-0.00273716
-0.0250307
-0.0759631
-0.0556289
-0.0542972
-0.0705046
-0.0118203
-0.00253647
-0.0212459
-0.0587182
-0.00400645
-0.0717948
-0.00115304
-0.00989522
-0.0282586
-0.019731
-0.00115609
-0.000168068
-0.0254105
-0.0384611
-0.0143718
-0.0677072
-0.00266145
-0.0126984
-0.0696522
-0.0344499
-0.00900392
-0.00292102
-0.0642623
-0.0179232
-0.000794541
-0.00222721
-0.00561955
-0.00825516
-0.0903928
-0.00239117
0.00739197
-0.0465163
-0.0022345
-0.00929188
-0.00230949
-0.0206092
-0.00414843
-0.0339478
-0.0630447
-0.00324294
-0.013568
-0.0100146
-0.0388462
-0.00906069
-0.0857867
-0.0933491
-0.0354342
-0.0662596
-0.0674428
-0.00422363
-0.0856007
-0.00268465
-0.0697839
-0.00220389
-0.0230932
-0.0379381
-0.0681909
-0.0331262
-0.00269512
0.0144122
-0.0847633
-0.000123162
0.000412896
-0.000120798
-0.0217619
-0.0940697
-0.0214433
-0.035547
-0.00368406
-0.0591288
-0.00220992
-0.0850904
-0.0623312
-0.000171022
-0.00113864
-0.000478499
-0.0628292
-0.0335324
-0.00015034
-0.0586545
-0.0412234
-0.00795781
-0.00622079
-0.0161406
-0.0367481
0.000655515
-4.67223e-05
0.000829601
-0.00618889
-0.00327557
-0.0681429
-0.0461282
-0.0376384
0.000268604
-0.0641169
-0.000646219
-0.00037363
-0.0173287
-0.0537084
-0.046543
-7.33592e-05
-0.0504769
-0.00148532
-0.0100828
-0.0716976
-0.0157799
0.000857842
-0.0623064
-0.0828129
-0.101766
-0.0385078
0.00103954
-0.0262634
-0.0652299
-0.0130495
-0.0402924
-0.00113552
-0.037279
-0.0423693
-0.00678581
-0.050303
-0.00274748
-0.0421924
-0.000505665
-0.0222436
-0.0510252
-0.0467148
-0.0296399
-0.0340927
-0.00361972
-0.0985845
-0.0268569
-0.0199215
-0.00364951
0.000396815
-0.00022374
-0.00737044
-0.0337102
-0.084231
-0.0135136
-0.0237504
-0.0707327
-0.0219141
-0.0283025
-0.020465
-0.102047
-0.0103852
-0.00739186
-0.00160472
-7.61362e-05
-0.00852137
-0.0736577
-0.0429522
-0.0367914
0.0173458
-0.00360117
-0.0232479
-0.0660827
-0.0690001
-0.00722513
-0.0347758
-0.0183079
-0.0640866
0.00162687
-0.0208625
-0.0655334
-0.00769309
-0.0464123
-0.0543531
-0.0695688
-0.00133002
0.000432757
-0.000972078
-0.014039
-0.0288375
-0.0283685
-0.0138663
-0.0947215
-0.00423956
-0.0488541
-0.00466293
-0.101561
-0.0549653
-0.0259719
-0.0365725
0.0135451
-0.0367361
-0.101891
-0.0148921
-0.0270122
-0.0299218
-0.0722793
-0.0643735
-0.0599991
-0.0286985
-0.0495904
-0.0271327
-4.78752e-05
-0.00239621
-0.0492453
-0.000197779
-0.0176011
-0.0210728
-0.0303996
-0.0254773
-0.0152688
-0.0164207
-0.0546984
-0.0716492
-0.00188908
-0.0215656
-0.0213246
-0.00221257
-0.0224818
-0.0205581
-0.000926213
-0.0896926
-0.0537226
-0.0062915
-0.0886749
-0.000224825
-0.00386915
-0.0739174
-0.0353969
-0.0138497
-0.000907206
-0.0389541
-0.0202129
-0.021471
-0.0870883
-0.00955243
-0.0574513
0.000616669
7.0051e-05
-0.0694301
-0.0618172
-0.0461261
-0.0467086
-0.0109696
-0.0138575
-0.0247282
-0.103787
-0.0834223
0.000490023
-0.0184984
-0.0192074
-0.0733327
-0.0678663
-1.05371e-06
-0.0245495
-0.0740701
-0.00538444
-0.000704107
0.000174973
-0.00555627
-0.0468797
-0.0639853
-0.047726
0.000240202
-0.0573731
-0.028083
-0.00742695
-0.0204692
-0.0173115
-0.0272911
-0.0436733
0.00114491
-0.00520265
-0.00697456
-0.0616232
-0.0240701
-0.0399473
-0.00263385
-0.0207851
-0.00862617
-0.0308582
-0.0433667
-0.0230448
-0.0673008
-0.0243928
-0.0506801
-0.075371
-0.0264139
-0.00711383
-0.0189411
-0.0397737
-0.0911938
-0.0638914
-0.0204575
-0.00247988
-0.071507
-0.0141
0.00103999
-0.0426422
-0.0221423
-0.0285293
-0.0144119
-0.0737395
-0.0445044
-0.0190696
-0.038211
0.00507094
-0.066661
-0.0629722
-0.00962917
-0.0150104
-0.00204604
-0.00115874
-0.0010196
-0.0113709
0.00133395
-0.0305635
-0.0581739
-0.0399764
-0.0782399
-0.0284089
-0.0110122
-0.0553343
-0.00244936
-0.0933188
-0.0278894
-0.00855497
-0.00373855
-0.0854344
0.00520978
-0.0762099
-0.0262417
-0.061285
-0.00906181
-0.00716818
-0.00965507
-0.0283287
-0.028868
-0.0941492
-0.0349316
-0.0446357
-0.00378911
-0.000667877
-0.0419819
5.86404e-05
-0.00881423
-0.076798
-0.000294275
-0.00116895
-0.0763667
-0.0286832
-0.0732905
-0.0595644
-0.0607298
-0.0253706
-0.00310751
-0.0116741
-0.0053783
0.00116996
-0.00903329
-0.00133974
-0.00655273
-0.00564845
-0.000225083
-0.00432816
-0.0162126
-0.0613828
-0.0499021
-0.00231966
-0.031426
-0.00447068
-0.0473488
0.000545553
0.0188237
-0.00302405
0.000377848
-0.000762182
-0.0285056
-0.0149336
-0.0560427
-0.00452283
-0.000302474
-0.0340179
0.00184126
-0.00465433
-0.0639113
-0.0191834
-0.00710403
-0.01163
-0.0221503
-0.0644956
0.000475849
-0.0440746
-0.00988746
0.00028083
-0.00160114
-0.0550143
-0.0349864
-0.000491074
-0.00518081
-0.004204
-0.0639903
-8.96053e-05
-0.0158324
-0.0336918
-0.00161177
-0.0751015
-0.00077486
-0.00254327
-0.0769301
-0.0263846
-0.00876831
-3.14066e-05
-0.00124473
-0.0798137
-0.0411415
-0.00809192
-0.00900653
0.00769489
-0.00427555
-0.00940266
-0.0094961
-0.0330553
-0.0307443
-0.0608448
-0.0102692
-0.0036413
-0.0425319
-0.023553
-0.0251791
-0.0308257
-0.00533213
-0.00432426
-0.0631185
-0.0132354
-0.00675564
-0.00604024
-0.0292184
-0.0144502
-0.000355032
-0.0220768
-0.011146
-0.0717267
0.00475839
0.000874522
-0.0728336
-0.0635839
-0.0697286
-0.0865272
-0.0146553
-0.0308805
0.00706683
-0.0211108
-0.000207785
-0.0630709
-0.0050987
-0.0888229
-0.00471805
-0.0568396
-0.0577315
0.00967197
0.0149057
-0.00465388
-0.0797488
-0.0127996
-0.00176844
-0.05658
-0.0644777
-0.0638351
-0.030921
-0.00440884
0.00145096
-0.00246288
-0.0361041
0.000872453
-0.0281316
-0.0164637
0.00172253
-0.0672721
-0.00152013
-0.0768877
-0.0183906
0.00486505
-0.028858
-0.0244577
-0.00608259
-0.0785843
-0.00690619
-0.0370358
-0.0452957
-0.00744916
-0.0358023
-0.00898869
-0.0549838
-0.0696437
-0.0313291
-0.00898764
-0.0465229
0.00257993
-0.0381327
-0.00113508
-0.00579457
-0.0609096
-0.000485829
-0.00650901
-0.0722457
-0.0250492
-0.041119
-0.0274498
-0.00759001
-0.022095
0.00200521
-0.0156555
-0.0079903
-0.0244741
-0.00279514
-0.0109396
-0.00659518
-0.0278447
-0.00331972
-0.0231845
-0.0838877
-0.00473147
0.00723934
-0.0256556
-0.00270884
-0.0719882
-0.0222635
-0.00269891
-0.0660336
-0.0626747
-0.0637432
-0.00324964
-0.0701462
0.0112032
-0.0190086
-0.0635972
-0.0189889
-0.0122085
-0.0501976
-0.0159924
-0.00922875
-0.0629069
-0.0146759
-0.0648664
-0.0421871
-0.0779676
-0.0361117
-0.00746195
-0.0283549
-0.0619145
-0.0369647
-0.0340582
-0.00853267
-0.000613204
-0.006857
0.000540644
-0.0172606
0.00975457
-0.0258004
-0.0200547
-0.0666041
-0.00195255
-0.0128222
-0.0413084
-0.00584249
-0.052302
0.00672487
-0.0183057
-0.0536495
-0.000255618
-0.0460712
-0.0610618
-0.00666273
-0.0722452
-0.0317572
-0.0701939
-0.0344677
-0.0305213
-0.00932626
-0.00839168
-0.00144496
-0.0373918
-0.0418828
-0.00728726
-0.0214325
-0.0654193
-0.0344673
-0.0781637
-0.00935141
-0.0375986
-0.0639211
-0.0011959
-0.00374877
-0.0873005
-0.0246848
-0.0343642
-0.0780793
-0.0211024
-0.00430684
-0.00254367
-0.0995561
-0.0197783
-0.00377783
-0.0691279
-0.0554728
-0.00193489
-0.0162098
-0.0486002
-0.0462503
-0.0303762
-0.0285507
-0.0743284
-0.0330787
-8.49047e-05
-0.00201863
-0.00144885
0.0027238
-0.0679186
-0.0110461
-0.0360741
-0.0362702
-0.00229266
-0.00620002
-0.0768414
-0.0359317
2.5215e-05
-0.0224161
-0.000249342
-0.00910488
-0.0477529
-0.0606078
-0.0295246
-0.0746096
-0.0014246
-0.0798228
-0.00445281
-0.0633683
-0.0662593
-0.0767191
-0.000313231
-0.029019
-0.0145726
0.00150711
-0.0262823
-0.0750552
-0.0689939
0.00472247
1.66745e-05
-0.0343469
-0.00304801
-0.0530622
-0.0630388
-0.00036995
-0.00861648
-0.0324454
-0.0144717
0.00203653
-0.00483295
-0.0224371
-0.0190325
-0.0145991
-0.000228599
-0.0206993
-0.0784628
-0.0101644
-0.00144149
-0.0862845
-0.0538588
-0.0179754
-0.0563507
-0.0200264
-0.0101839
-0.064173
-0.028374
-0.00541253
-0.0912521
-0.0821499
-0.0198625
-0.068622
-0.0409679
0.000230389
0.00408951
-0.00434447
-0.0830218
-0.0515451
-0.0176693
-0.042571
0.00211129
-0.00507584
-0.0406242
-0.0634498
-0.0314445
-0.101462
2.37394e-05
-0.045157
-0.0293655
-0.0118948
-0.0730476
0.000340998
-0.000245355
-0.00720701
-0.0787566
-0.0197957
0.0010186
-0.0625706
-8.55801e-06
-0.0229382
-4.85185e-05
-0.0208043
-0.081397
-0.035831
-0.0519213
-0.0593024
-0.0437402
-0.015031
-0.0295282
-0.00405186
-0.00969717
0.00299992
-0.028878
-0.0209657
-0.000224929
-0.00498471
-0.0657731
-0.0990493
-0.0199907
-0.0418467
-0.00933799
-0.0175289
-0.0137629
-0.00533124
-0.00267739
-0.0129268
-0.04446
-0.0633363
0.00782113
-0.0273273
-0.044805
-0.010015
-0.0263304
-0.0771521
-0.00871903
-0.0664257
-0.00261639
-0.0161979
-0.013604
-0.0626811
-0.0182968
-0.0217017
-0.00113163
-0.0255587
-0.0394129
-0.0071387
-0.0428343
-0.011481
-0.0143499
-0.0832708
-0.0301019
-0.0410909
-0.0229143
-0.00832432
-0.0552566
-0.0471384
-0.011462
-0.0542631
-0.00275383
-0.0650177
0.000449971
-0.0200899
-0.0175532
-0.06489
-0.0276826
-0.0636751
-0.0452917
-0.0666812
-0.00574852
-0.0102591
-0.00571637
-0.0549335
-0.0345571
-0.00560562
-0.00443333
-0.102182
-0.0669815
-0.0322529
-0.0371998
-0.0154397
-0.0138379
-0.0719138
3.44558e-05
-0.064274
-0.0838527
-0.00965223
-0.0326788
-0.00994436
0.00107623
-0.0562589
-0.00108534
-0.0338074
-0.0101532
-0.00947464
-0.0418958
-0.0217374
-0.00579437
-0.0642791
-0.0159429
-0.031953
-0.0682311
-0.0248519
-0.00134361
-0.0483402
-0.0082032
-0.00428136
0.00364455
-0.0673338
0.00942468
0.00189369
-0.000413232
0.00821667
-0.029193
-0.0394018
-0.0291725
-0.0297641
-0.000330149
-0.000380887
-0.0353596
-0.00132526
-0.0828184
-0.078385
-0.0629107
-0.0117792
-0.00011307
-0.0209642
-0.0689002
-0.0340984
0.000142747
-0.0679495
-0.068563
-0.00845854
-0.0407634
-0.0377649
-0.00336704
-0.0711373
-5.45427e-06
-0.0339653
-0.0582962
-0.0561888
-0.0410164
-0.0424757
-0.0186128
-0.0907036
-0.0609616
-0.00497166
-0.0555474
-0.00932587
-0.0356093
-0.0406265
-0.0806373
0.010367
0.000869869
-0.0201025
-0.0120841
-0.0322444
-0.0176502
-0.0208038
-0.00459673
-0.014512
-0.00380286
-0.0505156
-0.0728023
0.00154116
-0.00705949
-0.0254591
-0.00725439
0.00711772
-0.00347698
-0.0346968
0.00137931
-0.068258
-0.00299484
-0.0126201
-0.00383751
-0.0993375
-0.000389522
-0.0668411
-0.0285412
-0.0173359
-0.0243079
-0.012298
-0.00312399
-0.00634306
-0.000373742
-0.0109498
-0.00430493
-0.0655886
-0.000326236
-0.0200888
-0.0581698
-0.0702791
-0.0170531
-0.0670351
-0.0235445
-0.0375276
-0.0282014
-0.0274651
0.000998026
1.25724e-07
-0.0691662
4.71804e-05
-0.00729974
-0.0041889
-0.00463231
-0.0609803
0.00249927
-0.0605167
-0.00979907
-0.0140264
-0.0350994
-0.0184873
-0.00463278
-0.00248387
-0.0931159
-0.0921456
-0.015157
-0.0191098
-0.0346949
-0.0995389
-0.0399929
-0.020296
-0.0217755
-0.0775896
-0.0318483
-0.0604769
-0.044295
0.00192653
-0.0219114
-0.00992858
-0.0136739
-0.0813313
-0.0154147
-0.0470067
-0.0634852
-0.017614
-0.0693571
0.00426629
-0.00856162
-0.0386479
-0.000683945
-0.0310696
-0.000290678
-0.00444531
-0.000379624
-0.0626191
-0.000298306
-0.00347282
-0.0046192
-0.0476958
0.00558708
0.00288894
-0.0753369
-0.0813296
-0.00131381
-0.00449095
0.000322449
-0.0804085
-0.0287362
-0.0426282
0.000694741
-0.0163995
-0.033416
-0.026247
-3.79411e-05
-0.0236808
-0.0371776
-0.0463009
-0.0643262
-0.0632357
-0.0492191
-0.00812551
-0.0127784
-0.034847
-0.0275148
-0.0117855
-0.076116
-0.0874144
-0.020898
-0.017226
-0.00045228
-0.0136308
-0.00397651
-0.084961
-0.0398712
-0.0323312
-0.0683161
-0.0784041
-0.0910664
-0.0679523
-0.0267244
-0.0621775
-0.0343975
-0.0792741
-0.072421
-0.062304
-0.0642457
-0.00315943
-0.0372561
0.000100444
-0.0112469
-0.0632483
-0.0232519
-0.0342445
-0.0648891
-0.0408392
-0.0693541
-0.091654
-0.0807579
-0.0452403
-0.0429108
-0.0177517
-0.0270585
-0.00901953
-0.0448411
-0.0260042
-0.073169
-0.0182703
-0.0296891
-0.000263816
-0.00776312
-0.0137191
-0.0941589
-0.0192292
-0.0120258
-0.0329958
-0.0061555
-0.0694401
-0.010673
-0.00639826
-0.0620539
-0.0320081
-0.0681782
-0.0345527
-0.066465
-0.0169154
0.000327206
-0.013503
-0.00515114
-0.0373631
-0.0489055
-0.0125416
-0.0493569
-0.0639187
-0.00105875
-0.0189815
-0.0161489
-0.0489558
-0.0210826
-0.014967
-0.000249478
-0.00212407
-0.0570082
-0.00837416
-0.0333273
-0.0605931
-0.0262284
-0.0066988
-0.0355157
-0.0783358
-0.0315151
-0.0682955
-0.0198738
-8.27834e-05
-0.00104225
-0.0731638
-0.0563552
-0.00458634
-0.0642014
-0.0290429
-0.0271135
0.0134487
-0.0817677
-0.00378957
-0.0180851
-0.0659735
-0.0420136
-0.0636629
-0.0132783
-0.0255609
-0.0422604
-0.0447627
-0.0335602
-0.0108832
-0.0275801
0.000715286
-0.0724922
-0.0440546
-0.0617119
-0.0280094
-0.0637926
-0.0671718
-0.0402676
-0.0399214
-0.0629166
0.00425537
-0.0911347
-0.0470364
-0.0637844
-0.0541157
0.00476375
-0.00418935
-0.0822859
-0.064509
-0.0043411
-0.0641816
-0.0216477
-0.0118679
-0.0434809
-0.0193998
-0.0270125
-0.0695635
-0.0622728
-0.00893232
0.00202636
-0.062562
-0.0893383
-0.023739
-0.0654861
-0.0092136
-0.0716499
-0.0505157
-0.0798247
-0.00824124
-0.0116176
-0.0705325
-0.0663595
-0.00968516
-0.0500118
-0.0644917
-0.00952592
-0.039354
-0.00327731
-0.012348
-0.0206336
-0.0477073
-0.062788
-0.00675488
-0.0344131
-0.00993475
-0.0347077
-0.0815319
-0.063232
-0.0145315
-0.0753283
-0.0282441
-0.0222915
0.00166914
-0.0138645
-0.00203142
-0.0701772
-0.0702049
-0.0160116
-0.0100102
-0.0635083
-0.0119193
-0.0698934
-0.0630246
-0.025787
-0.0686933
-0.00499582
-0.022477
-0.0296232
-0.0599403
-0.0678509
-0.044365
-0.0385827
-0.0372424
0.0016073
-0.0637402
-0.00419531
-5.22124e-05
-0.0756605
-0.0653429
-0.0443767
-0.0245985
-0.037704
-0.03174
-0.0354368
-0.00301864
-0.0193181
-0.0933313
0.00180128
-0.0700807
-0.0152544
-0.0117021
-0.0600028
-0.0121145
-0.00027484
0.00622466
-0.00940705
-0.00898336
-0.0092473
-0.042226
-0.0902088
-0.0685014
-0.0318902
-0.032665
0.000736996
-0.000346584
-0.0376286
-0.0232143
-0.0030299
-0.00397139
-0.000270356
-0.0642174
-0.0198775
-0.0374851
-0.0516507
-0.00572543
-0.00641156
-0.00305685
-0.0432595
-0.0430648
-0.036441
-0.0517896
-0.0320526
-0.0711135
-0.0292002
-0.0602191
-0.0360553
-0.0710899
-0.0345341
-7.3586e-05
-0.0521747
-0.0384499
-0.0323833
-0.0323393
-0.00201811
-0.0447455
-0.038192
-0.0661845
-0.0280129
-0.0755332
-0.0597577
-0.076069
-0.0766826
-0.0434897
-0.0771168
-0.0775359
-0.0778078
-0.0779672
-0.081765
-0.0563153
-0.00685335
-0.0199627
-0.055319
-0.0728405
-0.0166757
-0.035136
-0.0759872
-0.0251953
-0.0639284
-0.000324929
-0.0046312
-0.000376995
-0.0613511
-0.0431487
-0.0198296
-0.101589
-0.0372936
-0.00113643
-0.0244498
-0.012263
-0.043704
-0.0725918
0.00116646
-0.0656165
-0.056931
-0.0635155
-0.0669913
-0.0643511
-0.0402827
0.00021216
-0.0722182
-1.32538e-05
-0.0762954
-0.0677716
-0.0259415
-0.0321035
-0.0266327
-0.0117495
-0.00656002
0.00556089
0.000341945
-0.00231596
-0.00232399
-0.0170052
-0.0717497
-0.0300455
-0.027493
-0.0738403
-0.0464749
-0.06451
-0.0733481
-0.0392018
-0.034103
-0.0423943
-0.0163638
-0.0670201
-0.00170606
-0.0616489
-0.0747382
-0.0710731
-0.00186608
-0.0143114
-0.0162979
-0.0640085
-0.0047993
-0.0693284
-0.00016595
-0.0630868
-0.0428636
-0.0192713
-0.00527559
-0.0165827
-0.0701175
-0.00939006
-0.0337283
-0.0165135
-0.0428279
-0.0903299
-0.0623013
-0.0226399
-0.064146
-0.0164296
-0.00923379
-0.0577545
-0.02938
-0.0827182
-0.0395871
-0.0239551
-0.0745441
-0.0703846
-0.0624883
-2.10223e-05
-0.00426615
-0.00683379
-0.00834647
-0.0591499
-0.00425182
-0.0018101
-0.0186568
-0.0703615
-0.0139534
-0.00361594
0.00374203
-0.0703022
-0.0367655
-0.0409132
-0.000379113
-0.0637548
0.000183997
-0.00179122
-0.0572405
-0.0697179
-0.0704507
-0.000417035
-0.0638
-0.0247664
-0.0607443
-0.070476
-0.0291131
-0.0701036
-0.0174235
-0.00639558
-0.00790781
0.000478853
-0.00955904
-0.016956
-0.0244575
-0.00589577
-0.0188232
-0.0634047
-0.0658322
-0.0715592
-0.00764431
-0.0438419
-0.00905674
-0.0708023
-0.00510205
-0.0235204
-0.013637
-0.0511157
-0.000987347
-0.00979961
-0.0127072
-0.00265978
-0.0667097
-0.09386
-0.0145413
0.012445
-0.0928815
-0.00574417
-0.00671917
-0.0690114
-0.042976
-0.0230503
-0.0655245
-0.000635036
-0.062374
-0.00926803
-0.062397
-0.0640715
-0.0016206
0.0045487
-0.0505418
-0.0691426
-0.0659923
-0.0671114
-0.00394417
-0.0424307
-0.065499
-0.00496143
-0.0369386
-0.0234506
-0.0526983
-0.0113206
-0.0698803
-0.0733251
0.00501655
-0.0290772
-0.0636685
-0.0278101
-0.0637355
-0.065746
-0.0159643
-0.000302543
-0.0633993
-0.0748936
-0.00322507
-0.0400826
-0.0186905
-0.00942162
-0.0612197
-0.00371734
-0.068608
-0.029714
-0.070742
-0.0251152
-0.000615017
-0.0416314
-0.0377581
-0.0421859
-0.0146433
-0.0876156
-0.000422979
-0.0485498
-0.0406194
0.000171607
-0.0185517
-0.0436767
-0.0709231
-0.0693105
-0.00787518
-0.0787041
-0.0361194
-0.0119642
-0.0287362
-0.00617318
-0.0439483
-0.0715594
-0.0696259
-0.00450421
0.00795802
-0.0733863
-0.0843001
-0.0598209
-0.075919
-0.0313973
-0.081721
-0.0310656
-0.000259281
-0.0124584
-0.0805668
-0.0228023
-0.0687149
-0.0644041
-0.0420356
-0.0850021
-0.0736208
-0.0108054
-0.0634113
-0.0434646
-0.0621643
-0.00480325
-0.0141498
-0.004689
-0.0962454
-0.0397232
-0.00327816
-0.034279
-0.0691633
-0.0756312
-0.0209753
-0.0874277
-0.0823806
-0.0691432
-0.0273225
-0.00497384
-0.07694
-0.0312055
-0.0405718
-0.0413524
-0.0262929
-0.0134574
-0.0258592
-0.031153
-0.0156739
-0.0311849
-0.0224419
-0.0235529
-0.00667373
-0.0965517
-0.0310504
-0.0715409
-0.0334988
-0.0264686
-0.0765992
-0.0859751
-0.0179875
-0.0123733
0.00623827
-0.0682839
-0.0639889
-0.0668883
-0.0370857
-0.0304138
-0.0108812
-0.00230706
-0.0755528
-0.0730714
-0.0162244
-0.00124498
-0.0642926
-0.0413897
-0.024114
-0.0739176
-0.0547442
-0.0443745
-0.0661149
-0.0645531
0.00273224
-0.0199939
-0.0615279
-0.015834
-0.0340707
-0.0305167
0.00126174
-0.0771942
-0.0367538
-0.0444045
-0.0244101
-0.0335039
-0.0564528
-0.0722155
-0.094088
-0.0404388
-0.0771228
-0.0918221
-0.048701
-0.0457549
-0.0445394
-0.0418999
-0.0432481
-0.0805516
-0.00484562
-0.0144864
-0.0627727
-0.0437617
-0.0845534
-0.0285479
-0.0264917
-0.0438794
0.000272567
-0.0371435
-0.00010094
-0.0388537
-0.0142191
-0.0289325
-0.0708695
-0.0740265
-0.0244659
-0.00317957
-0.0776394
-0.0429643
-0.0134639
-0.00389829
-0.075964
-0.0401513
-0.0667899
-0.0122962
-0.079728
-0.0679055
-0.078043
-0.0735694
0.000431723
-0.0843383
0.00077312
-0.0330696
-0.0950993
-0.0783856
-0.0298276
0.00689678
-0.0257027
-0.00323477
-0.0272465
-0.0786143
-0.0138352
-0.073481
-0.0685105
-0.0116215
-0.00379604
-0.00818168
-0.0282537
-0.0310608
-0.00700181
-0.0666187
-0.0264558
-0.0286385
-0.000887915
-0.0750772
-0.0447636
-0.0459847
-0.0345472
-4.39307e-05
-0.00288396
-0.0749742
-0.00500179
-0.0684522
-0.0395406
-0.0425855
-0.027745
-0.0154341
-0.0334823
-0.0329866
-0.0291785
-0.0654441
-0.0258943
-0.0465391
-0.00964988
-0.0678572
-0.0648948
-0.0322181
-0.0115482
-0.0813968
-0.00898673
-0.0428582
-0.00220573
-0.0682245
-0.0054946
-0.0233375
-0.0214014
-0.0432991
-0.0046708
-0.0493234
-0.0698191
-0.043031