/*--------------------------------*- C++ -*----------------------------------*\
| =========                 |                                                 |
| \\      /  F ield         | OpenFOAM: The Open Source CFD Toolbox           |
|  \\    /   O peration     | Version:  v2012                                 |
|   \\  /    A nd           | Website:  www.openfoam.com                      |
|    \\/     M anipulation  |                                                 |
\*---------------------------------------------------------------------------*/
FoamFile
{
    version     2.0;
    format      ascii;
    class       surfaceVectorField;
    location    "800";
    object      Uf;
}
// * * * * * * * * * * * * * * * * * * * * * * * * * * * * * * * * * * * * * //

dimensions      [0 1 -1 0 0 0 0];


internalField   nonuniform List<vector> 
20642
(
(0.639496 0.0191701 -2.73286e-21)
(0.646948 0.0195189 4.40446e-20)
(0.669334 0.0216969 -3.40635e-21)
(0.999243 -0.0279037 -1.18937e-21)
(0.998018 -0.0280822 4.57091e-22)
(0.99856 -0.0265696 -3.65798e-21)
(1.04103 0.0308962 1.07136e-20)
(1.04099 0.0313957 1.19756e-20)
(1.04154 0.031197 8.98947e-21)
(1.02007 0.00117606 1.33288e-22)
(1.01986 0.00133412 -4.43195e-22)
(1.0198 0.00100727 4.44488e-22)
(1.04388 -0.0366806 0)
(1.04395 -0.0382356 -9.75438e-22)
(1.04235 -0.0372855 7.88917e-22)
(1.00079 -0.0276638 0)
(1.00024 -0.0292505 0)
(1.02294 0.0114454 0)
(1.02255 0.0109153 2.76158e-21)
(1.02234 0.0115029 0)
(0.982583 -0.0272595 6.56064e-22)
(0.981782 -0.0287272 6.05769e-22)
(0.980623 -0.0269066 2.73693e-21)
(1.03042 0.00727655 1.25289e-21)
(1.03002 0.00744909 1.21366e-21)
(1.03045 0.00780415 1.06715e-20)
(0.00156006 -0.0444873 -1.11286e-20)
(0.00832006 -0.0468429 -4.97198e-20)
(0.98319 -0.0253755 2.05601e-21)
(0.98447 -0.0272813 -2.70734e-21)
(1.01799 -0.00250671 -4.78894e-22)
(1.01787 -0.00244968 -1.0028e-21)
(1.01804 -0.00226568 -3.01591e-21)
(1.01121 -6.38543e-05 -1.86504e-22)
(1.01114 -8.3202e-05 -5.8898e-24)
(0.65376 5.02932e-05 1.03876e-21)
(0.601191 0.00167694 -1.76958e-21)
(0.6624 0.00212932 1.36811e-21)
(1.0131 -0.0276855 -4.45925e-22)
(1.01209 -0.0283006 0)
(1.01204 -0.0268319 4.72583e-22)
(0.624598 0.0184316 -1.86873e-20)
(0.578329 0.0145904 -2.16972e-20)
(1.02663 0.000835856 8.70401e-23)
(1.0269 0.000814527 -6.36302e-23)
(1.02151 0.00049351 9.96673e-23)
(0.983634 -0.0236668 6.19936e-21)
(0.984223 -0.0219492 -2.558e-22)
(0.985556 -0.0237574 1.22587e-21)
(1.03444 0.0335614 0)
(1.03509 0.0337008 0)
(1.03456 0.0343159 8.78143e-22)
(0.562981 0.0239002 1.91867e-22)
(0.640432 0.0281482 -2.53292e-21)
(0.646263 0.0315456 1.39187e-20)
(0.997507 -0.00225094 -3.9572e-25)
(0.996418 -0.00172574 -1.60791e-21)
(0.996641 -0.00299451 4.41703e-22)
(1.03052 -0.0173457 -1.62685e-22)
(1.02985 -0.0168575 0)
(1.03016 -0.0178739 -1.02234e-22)
(1.02531 0.0239974 4.89065e-21)
(1.02581 0.0235976 4.21831e-21)
(1.02581 0.0244982 -2.26331e-21)
(1.03132 -0.017875 -1.68635e-22)
(1.03085 -0.0168813 -4.49368e-22)
(1.01602 0.00212171 -7.34645e-22)
(1.01597 0.00255399 1.16723e-21)
(1.01568 0.0021117 -3.99888e-23)
(0.993861 -0.00548892 -6.94696e-22)
(0.9948 -0.0046965 7.02554e-22)
(0.99509 -0.00599205 -1.49403e-21)
(0.864245 0.0416983 -1.3508e-20)
(0.912699 0.0400005 -4.60071e-21)
(0.910975 0.0352912 -3.43897e-21)
(0.0157069 -0.0421031 4.67005e-20)
(0.987776 -0.0145788 2.71532e-24)
(0.988497 -0.0131694 -1.8347e-22)
(0.989519 -0.0147646 3.22153e-21)
(1.00017 0.0157371 0)
(0.999757 0.015853 0)
(0.999692 0.0152524 2.1268e-23)
(-0.011865 -0.0259772 -6.77462e-22)
(0.0102277 -0.0330251 -1.24599e-21)
(1.03394 0.0251288 8.68393e-22)
(1.03431 0.0251431 4.3543e-21)
(1.034 0.0254429 6.00031e-21)
(1.01771 0.000188332 -2.53228e-22)
(1.01771 -6.649e-05 3.78373e-22)
(1.01791 0.000170197 3.4981e-22)
(0.723135 0.0239398 -6.70315e-21)
(0.742323 0.0254804 1.19826e-20)
(0.742263 0.0251758 -1.63411e-20)
(1.05443 -0.00894773 -1.31468e-22)
(1.05438 -0.00842442 -6.4911e-23)
(1.0556 -0.00882395 -5.80794e-23)
(0.982168 -0.0305506 -3.15128e-21)
(0.980608 -0.0302214 -2.03286e-21)
(1.01072 -0.00782394 2.55741e-22)
(1.01048 -0.00711887 -1.2291e-22)
(1.00998 -0.00782282 -3.00869e-22)
(1.01753 -0.000239114 7.99161e-22)
(1.02383 -0.000241783 8.4652e-23)
(1.01629 -0.000207219 -4.94888e-23)
(1.02333 0.0119202 0)
(1.02345 0.0113442 -4.76806e-21)
(0.997737 0.0107994 0)
(0.997002 0.0117765 -2.2303e-22)
(0.998503 0.0118387 -5.34124e-22)
(1.00751 0.00011144 5.27827e-23)
(1.0061 0.000104073 -6.49422e-24)
(1.01037 0.000810878 9.13661e-22)
(1.06249 0.00943918 -1.25152e-22)
(1.06382 0.00965022 3.15957e-22)
(1.0632 0.00897663 0)
(1.02888 0.00478175 -3.54647e-21)
(1.02834 0.00493974 2.43706e-21)
(1.02855 0.00437522 1.75915e-21)
(1.03592 0.0303423 4.91174e-21)
(1.03607 0.0299413 -4.19862e-22)
(1.03637 0.0304186 2.19017e-21)
(1.03534 0.0303622 1.17671e-20)
(1.03569 0.0309517 -9.48303e-22)
(1.01602 0.0627828 1.27196e-21)
(1.01704 0.0608521 -5.29639e-22)
(1.01782 0.0633398 2.75168e-21)
(0.998732 -0.00260151 -1.78268e-22)
(0.998637 -0.00142827 1.23097e-22)
(0.169957 0.0323447 -2.41704e-20)
(0.292361 0.0381372 -5.79821e-21)
(0.280171 0.0401437 -1.88e-20)
(0.691364 -0.0126976 2.13089e-21)
(0.682364 -0.0112253 2.54923e-21)
(0.741202 -0.0163105 -2.58929e-21)
(1.0538 -0.00910997 3.06494e-22)
(1.05487 -0.00949342 -3.24398e-23)
(1.01796 -0.00272146 2.47161e-21)
(1.01806 -0.00253469 1.54175e-21)
(1.02012 0.0465396 0)
(1.01947 0.0480139 6.37792e-21)
(1.01848 0.0465993 4.96594e-21)
(0.451458 0.0142004 -1.3658e-20)
(0.579348 0.0155546 -9.09459e-21)
(0.447741 0.0136123 1.26147e-20)
(1.01875 -0.00800623 1.87582e-23)
(1.01895 -0.00784246 -3.01561e-22)
(1.01902 -0.00833483 -2.97272e-22)
(1.01802 -0.00738483 2.30028e-23)
(1.01825 -0.0073062 -5.18538e-22)
(1.01805 -0.00691943 1.41496e-23)
(1.02075 0.0455032 0)
(1.02143 0.0467872 0)
(0.177532 0.000211275 -1.64082e-20)
(1.02472 0.0243171 4.55876e-21)
(1.02483 0.0234238 3.46044e-21)
(1.06105 0.00926156 -1.29184e-22)
(1.06173 0.00988556 -1.03416e-22)
(1.01358 0.0655073 -8.27225e-21)
(1.01394 0.062548 -3.61195e-21)
(0.586602 0.0723319 -4.66241e-21)
(0.494033 0.0721396 -5.98873e-21)
(0.462336 0.0666005 1.9437e-22)
(1.06918 -0.00843819 -1.47516e-21)
(1.06996 -0.00874338 -1.18028e-22)
(1.06944 -0.00947974 -1.32115e-22)
(0.998451 0.000531516 -1.88868e-22)
(0.998666 0.000609005 -3.65561e-24)
(0.998098 0.000875641 5.73394e-23)
(1.0164 0.00209787 1.09283e-21)
(1.01609 0.00173195 -6.28525e-22)
(1.03382 0.0361637 -1.12408e-21)
(1.03241 0.037251 6.19281e-21)
(1.01314 0.0378787 0)
(1.00399 0.0266127 5.25375e-23)
(1.00333 0.0259895 0)
(1.00404 0.0261887 3.79271e-23)
(0.987076 -0.0159937 0)
(0.986403 -0.0174194 0)
(0.988171 -0.0175723 0)
(0.983394 -0.0310161 -2.52521e-21)
(0.982994 -0.0329023 -6.62182e-22)
(0.981816 -0.0234719 -1.64598e-21)
(0.64254 0.0182841 -1.07342e-20)
(0.619661 0.0184312 -1.14395e-20)
(0.617626 0.0180282 1.95502e-21)
(1.04569 0.033914 -5.8293e-21)
(1.04404 0.0350153 6.15232e-21)
(1.05038 0.0343259 -8.30544e-21)
(0.706921 0.0227063 0)
(0.706998 0.0232512 -3.44709e-21)
(1.02027 -0.00131056 3.31252e-22)
(1.0205 -0.00121515 1.09764e-21)
(1.02025 -0.00120122 6.97059e-22)
(1.05967 0.00908643 1.08982e-22)
(1.06039 0.00860082 -2.61379e-22)
(0.995284 -0.00114357 -1.63051e-21)
(0.996257 -0.000466488 -6.16955e-22)
(1.01316 0.000254339 -8.85271e-22)
(1.01295 0.00079339 -8.6996e-22)
(1.01271 4.38035e-05 -1.44019e-22)
(1.03702 -0.0301869 4.10615e-22)
(1.03678 -0.0311316 3.2989e-22)
(1.03573 -0.0300376 8.12474e-23)
(1.05831 0.00891863 4.9209e-23)
(1.05893 0.00955914 -2.14276e-23)
(1.01364 0.000436565 1.39149e-21)
(1.0134 -0.000169644 2.55485e-22)
(1.01754 0.000196348 -4.34345e-22)
(1.01769 0.000458857 9.42923e-22)
(1.01966 -0.0149619 -3.24886e-24)
(1.02023 -0.0153917 -1.8017e-22)
(1.0201 -0.0145593 1.20969e-22)
(1.02907 0.000735075 -1.15609e-22)
(1.02899 0.000747689 -1.73358e-22)
(1.02403 0.000442513 -1.77244e-22)
(1.02029 -0.0014236 -5.82591e-21)
(1.02005 -0.00141473 -4.32617e-21)
(1.04705 0.0289472 -5.56287e-21)
(1.03963 0.0296293 1.25376e-21)
(1.04017 0.0288953 -7.16599e-21)
(1.02004 -0.00156916 2.1975e-22)
(1.02 -0.00176249 -4.25719e-22)
(1.02024 -0.00174501 -4.88941e-22)
(0.971198 -0.0174411 -1.31667e-20)
(0.969238 -0.0166565 -2.9902e-21)
(0.970006 -0.018922 -7.65737e-22)
(1.03381 0.0246162 -9.99759e-21)
(1.03344 0.0251356 3.02079e-22)
(1.02027 -0.000774294 4.47333e-22)
(1.02049 -0.000789979 -1.21385e-22)
(1.01984 -0.000561165 2.93992e-22)
(0.998618 0.00977291 0)
(0.997177 0.0095792 -1.32895e-22)
(1.02594 0.000842006 -1.09151e-22)
(1.02849 0.0011061 0)
(1.02914 0.00176913 0)
(1.0286 0.00172907 -3.48012e-23)
(1.02923 0.00209674 -4.14784e-23)
(1.02911 0.00528545 -5.62911e-21)
(0.701261 -0.0147376 -7.21554e-22)
(0.657743 -0.0133524 6.98679e-21)
(1.05248 -0.00539203 -2.16623e-22)
(1.05344 -0.00523983 -2.35652e-23)
(1.05237 -0.00489474 -6.10497e-23)
(1.01657 -0.00950033 1.97227e-23)
(1.01693 -0.00993484 -6.05272e-23)
(1.01648 -0.0101045 -6.72486e-23)
(0.986027 -0.0142809 -1.51331e-21)
(0.922035 0.0130356 -5.0978e-21)
(0.948233 0.0155908 -5.47905e-22)
(0.944697 0.0108091 2.40862e-22)
(1.03138 8.99977e-05 -6.75023e-23)
(1.0314 5.0986e-05 8.8993e-22)
(1.02679 5.61018e-05 4.69414e-23)
(1.02022 -0.000955672 6.8062e-22)
(1.02007 -0.00071209 0)
(0.964576 0.0203458 1.44079e-21)
(0.967514 0.0183856 1.43494e-21)
(0.964866 0.0168993 -1.98458e-21)
(1.00537 0.000645543 -1.26097e-25)
(1.00573 0.000635478 -1.32992e-25)
(1.00423 0.00033357 -1.06845e-23)
(1.00509 0.000676314 0)
(1.00597 0.000981225 0)
(1.0192 -0.0153019 4.99947e-25)
(1.01919 -0.0145012 1.42765e-22)
(1.03401 -6.53255e-05 -1.93897e-23)
(1.03387 -0.000132126 -1.69575e-22)
(1.03278 -8.28034e-05 2.75634e-22)
(1.03722 -0.0289353 7.23347e-22)
(1.03831 -0.0299909 4.64663e-22)
(1.03373 0.0233373 1.25556e-21)
(1.03429 0.0233988 -4.97609e-22)
(1.03957 0.0228994 7.29004e-21)
(0.736457 0.0417526 2.99894e-21)
(0.732047 0.0398748 -2.85684e-22)
(0.714169 0.0403066 2.61008e-21)
(1.06796 -0.00857878 -1.89146e-21)
(1.07117 -0.0080943 3.70835e-22)
(1.06445 0.0103102 6.25899e-22)
(1.0652 0.00990813 2.18459e-22)
(0.81051 0.043987 1.58678e-21)
(0.812869 0.0480012 -9.11179e-21)
(1.0153 -0.000416336 8.91248e-22)
(1.01528 -0.000565254 -4.84522e-22)
(0.764482 0.0271478 3.49572e-20)
(0.744975 0.0262088 1.50669e-20)
(0.989189 -0.0118741 -2.65733e-21)
(0.987558 -0.0115679 -1.14853e-22)
(1.03309 0.0358216 -1.12049e-21)
(1.04511 0.0359455 -3.36079e-22)
(1.01131 -0.000578429 8.19914e-22)
(1.01112 6.7511e-05 6.57191e-22)
(1.01178 -0.000262948 -2.02174e-21)
(1.03378 0.0334221 0)
(1.03428 0.0329227 0)
(1.02074 0.00162857 0)
(1.02169 0.00222541 0)
(1.0216 0.00184966 0)
(1.03998 0.0324398 2.24885e-21)
(1.04012 0.0318764 2.17383e-21)
(1.03958 0.0321247 -1.02132e-20)
(1.01989 -0.00228522 2.1659e-21)
(1.01995 -0.00213293 9.80491e-22)
(1.0197 -0.00222884 -8.42606e-22)
(1.03129 0.000909463 2.65383e-22)
(1.0289 0.000687432 -5.18272e-22)
(1.05705 0.00773797 4.39023e-22)
(1.05634 0.00718513 -4.47907e-22)
(1.05567 0.00766802 8.57162e-23)
(0.985743 -0.0189068 -1.23222e-21)
(0.984635 -0.0172379 -3.31338e-21)
(1.02808 0.0371169 -5.43646e-23)
(1.02727 0.0376678 0)
(1.02731 0.0364926 0)
(0.607071 0.0132204 3.43285e-21)
(0.632776 0.0155333 -1.75944e-20)
(0.610914 0.0138827 -8.43688e-21)
(1.05191 0.0289561 1.61306e-20)
(1.05274 0.028581 -1.66814e-20)
(1.01671 0.00208098 1.08253e-22)
(1.01703 0.00203585 -3.26902e-21)
(1.01677 0.00171409 -1.17108e-21)
(0.994295 -0.00192937 -2.88168e-21)
(0.994143 -0.000545619 5.90107e-22)
(1.04277 -0.0112347 -1.02932e-23)
(1.04308 -0.0108609 -4.55835e-24)
(1.04215 -0.0106809 -3.30934e-23)
(1.02859 0.0364304 -5.58432e-21)
(1.02884 0.0374745 4.9263e-21)
(1.03054 0.0152258 3.21833e-21)
(1.03026 0.0156776 0)
(1.03085 0.015567 0)
(0.984961 0.0568653 7.36988e-23)
(0.986912 0.0553611 -7.14308e-22)
(0.986937 0.0585255 -1.95812e-21)
(0.959276 0.0243357 -5.26487e-21)
(0.929442 0.0243295 0)
(0.933427 0.024308 0)
(1.01075 -0.000818634 7.82597e-23)
(1.01136 -0.00121496 4.13028e-22)
(1.03468 0.0266904 -2.77801e-21)
(1.03459 0.0271284 1.42867e-21)
(1.03509 0.0268649 -6.03092e-21)
(0.744666 0.0462518 5.00343e-21)
(0.807452 0.0396304 -1.22233e-21)
(0.429581 0.0739224 1.54521e-21)
(0.528845 0.0746659 4.2499e-21)
(0.543856 0.0775922 -6.15333e-22)
(0.590599 0.0149488 -7.03399e-21)
(0.588983 0.0144389 1.83238e-21)
(0.615252 0.0157754 -9.26295e-21)
(0.99212 -0.00735197 1.9018e-21)
(0.993001 -0.00633016 0)
(0.993354 -0.00783742 0)
(1.01773 -0.000169428 -9.5389e-23)
(0.702586 -0.0478961 4.35828e-23)
(0.68555 -0.0417501 3.99287e-23)
(0.693602 -0.0427782 3.24018e-21)
(1.0577 0.00831229 1.24394e-22)
(1.05697 0.00878505 7.03456e-24)
(1.03328 0.0232357 1.63887e-21)
(1.03441 0.0235822 -7.86762e-21)
(1.02709 -0.00972133 -2.61985e-23)
(1.02729 -0.00951067 2.16659e-22)
(1.02758 -0.0100394 -2.11762e-23)
(1.01958 -0.00150158 4.98313e-22)
(1.01974 -0.00140401 -1.70166e-22)
(1.01958 -0.00140717 -3.18214e-21)
(1.06996 0.0134213 -1.59741e-21)
(1.06924 0.0133402 6.0632e-22)
(1.06904 0.0129878 2.37306e-22)
(1.04158 0.033416 3.48439e-21)
(1.0492 0.0332048 -9.94492e-21)
(0.74953 -0.0293692 -4.07377e-21)
(0.328361 0.0432987 -7.99718e-21)
(0.377735 0.0474341 1.97194e-20)
(0.238685 0.033543 -1.56608e-20)
(1.01847 -0.00765205 4.44811e-22)
(1.01849 -0.00816426 2.56533e-22)
(0.999411 0.00896108 -4.93356e-23)
(1.0001 0.00812426 -1.2031e-22)
(0.998905 0.0077928 1.25164e-22)
(1.00334 0.00062634 0)
(1.00387 0.000718946 -3.64533e-24)
(1.00399 0.00112782 -1.36435e-24)
(1.01943 -0.00158675 5.0859e-22)
(1.01957 -0.00159686 7.32372e-23)
(0.899327 0.0190343 2.15313e-21)
(0.888442 0.0136767 -5.40532e-21)
(1.03909 -0.0218569 -6.31009e-22)
(1.03947 -0.0227291 -4.00376e-23)
(1.04011 -0.0223292 -8.75105e-22)
(1.03421 -3.6218e-05 -1.0445e-22)
(1.0344 -0.000242756 0)
(0.920747 0.0245962 -3.42653e-21)
(0.915492 0.0236655 -9.17161e-21)
(0.892098 0.0240321 -1.47078e-20)
(1.0159 0.000953604 5.63877e-24)
(1.01545 0.000926262 -3.85883e-23)
(1.01187 0.000436235 -5.32675e-23)
(1.01973 0.00141639 0)
(1.01896 0.00108259 1.71527e-22)
(1.02217 -0.00458403 2.81511e-22)
(1.0222 -0.00483284 2.5156e-22)
(1.0225 -0.00486646 -3.40694e-22)
(0.928857 0.0528114 -9.08858e-21)
(0.942236 0.0520426 5.23662e-21)
(0.902452 0.0513054 -1.7568e-20)
(1.0068 -0.0135984 7.55207e-22)
(1.00725 -0.0126583 0)
(1.00777 -0.0137086 -2.6277e-22)
(0.717064 -0.0521298 0)
(0.72476 0.0578629 -3.1253e-22)
(0.720547 0.057992 2.52784e-20)
(0.755415 0.0575944 1.25097e-20)
(0.956544 0.0195631 -1.01029e-20)
(0.960569 0.0208361 -3.56875e-21)
(0.960259 0.0174495 -4.42132e-23)
(0.451725 0.0125816 -1.91096e-20)
(0.34704 0.053694 -3.00885e-20)
(0.475742 0.0604647 -3.44965e-21)
(0.362278 0.0554919 -3.67465e-21)
(0.996612 0.00421987 -9.54808e-26)
(0.996673 0.00467875 1.38631e-22)
(0.996191 0.00434941 3.43925e-24)
(0.991244 -0.00857546 5.57245e-22)
(0.990819 -0.00686728 -3.27369e-22)
(1.03198 -0.0185524 5.64608e-22)
(1.03257 -0.0191519 -3.15339e-22)
(1.03155 -0.0190361 -6.57868e-22)
(0.943586 0.0257064 9.08954e-21)
(0.949028 0.0259305 -2.32883e-21)
(0.91578 0.0251104 -2.97363e-21)
(1.03045 0.00675172 -2.45208e-21)
(0.735617 0.0716488 -5.48081e-21)
(0.672527 0.0703778 3.77498e-21)
(0.698669 0.0754134 -5.62512e-21)
(1.00907 0.0363116 -1.04233e-21)
(1.01003 0.0356234 -1.4977e-21)
(1.01 0.0371653 -2.65611e-21)
(1.00907 0.000816963 7.65704e-24)
(1.01061 0.00122701 -1.42144e-23)
(1.00928 0.000774424 -1.31358e-22)
(1.02028 0.00140925 5.23946e-22)
(1.02025 0.00110669 -1.31614e-22)
(1.01907 0.0494708 1.73385e-21)
(1.01873 0.0512086 1.65679e-21)
(1.01743 0.049785 -1.00733e-20)
(1.03077 0.0147258 8.39627e-23)
(1.03022 0.0148097 1.23623e-21)
(1.00584 -0.013371 -1.80347e-22)
(1.00641 -0.0145282 6.28308e-22)
(1.02794 0.0049968 -3.4314e-21)
(1.02763 0.00459689 -2.53989e-21)
(1.02738 0.0050965 -6.10034e-21)
(1.03228 -0.0181256 0)
(1.01796 -0.00293026 4.55763e-22)
(1.01784 -0.00291399 1.69632e-21)
(1.02993 0.0508756 -1.13356e-20)
(1.03016 0.0497129 2.87675e-22)
(1.03097 0.0507334 2.42454e-21)
(1.03984 0.0329717 -6.32176e-21)
(1.04039 0.0327805 0)
(0.982555 0.0552206 3.69559e-22)
(0.980456 0.058835 7.84249e-22)
(1.01804 -0.00298595 -1.44863e-21)
(1.01794 -0.00317117 -1.05714e-21)
(1.03025 0.0525466 9.83752e-22)
(1.02842 0.0514452 -3.06382e-21)
(1.00075 0.0161755 -9.26396e-24)
(1.00055 0.0155081 0)
(0.973279 -0.0177777 -3.17593e-23)
(0.972273 -0.015535 -6.34674e-21)
(1.00769 0.0356963 -1.27355e-21)
(1.00783 0.0373814 -2.61998e-21)
(1.0349 0.0302315 2.69654e-21)
(1.03517 0.0298073 1.36335e-20)
(1.02957 0.0461153 -1.32422e-21)
(1.02938 0.0449546 -4.97194e-22)
(1.0284 0.0457027 9.67666e-21)
(0.649565 0.0203549 -1.47045e-21)
(0.672617 0.0234511 -3.0271e-20)
(0.650263 0.0223577 -1.45136e-20)
(1.0528 -0.00587698 -2.29326e-22)
(1.05193 -0.00553808 3.83633e-22)
(0.617479 0.0163283 -1.12244e-20)
(0.638808 0.0166942 -1.77307e-23)
(0.613835 0.0147715 -2.07134e-21)
(1.01401 0.00766459 -3.76753e-21)
(1.01346 0.00776333 -2.45474e-21)
(1.01368 0.00713794 -2.62246e-21)
(0.988212 0.0238859 5.89502e-21)
(0.985107 0.023634 -2.11227e-20)
(1.05465 -0.0079467 -1.76347e-22)
(1.05322 -0.00803828 2.26531e-22)
(1.03871 -0.0209807 -1.64949e-22)
(1.03807 -0.0213168 -4.74119e-22)
(1.00076 -0.00227297 -2.41254e-22)
(1.00085 -0.00114658 0)
(1.00166 -0.00183513 -1.5638e-22)
(0.617559 0.0178603 0)
(0.619912 0.0183872 0)
(0.643871 0.0187835 0)
(0.588914 0.0148759 1.05714e-21)
(0.545513 0.0140574 -4.4441e-22)
(1.01241 -0.0104688 -2.02082e-22)
(1.0118 -0.0104992 1.4958e-23)
(1.01219 -0.0112091 -4.59944e-22)
(0.919912 0.0499659 -1.63882e-21)
(0.939962 0.0456392 1.32357e-20)
(0.922995 0.0523826 6.10744e-22)
(0.995988 -0.0156296 1.55098e-21)
(0.996509 -0.0168949 -1.66358e-21)
(0.997291 -0.015563 -4.21347e-21)
(0.99994 0.0100068 -2.83135e-22)
(1.05839 0.00783176 1.63358e-22)
(1.02062 0.0491426 5.92581e-21)
(1.02088 -0.0157293 -1.65642e-22)
(1.02047 -0.0161611 -3.23925e-24)
(1.03867 -0.00688746 -1.79913e-24)
(1.03814 -0.00649313 3.75297e-23)
(1.0389 -0.00660497 1.59876e-24)
(1.04864 -0.0427251 9.1677e-23)
(1.04963 -0.041128 1.93478e-21)
(1.04788 -0.0419216 -1.81856e-21)
(1.04931 -0.0435235 -3.35731e-22)
(1.04748 -0.044627 0)
(0.457723 0.0460586 1.90339e-20)
(1.03434 0.026504 4.32727e-21)
(1.03479 0.0263263 -5.35792e-21)
(0.992653 -0.00490212 0)
(0.894764 0.042735 2.23996e-21)
(0.890336 0.0436003 -6.9852e-21)
(0.922771 0.0433292 -4.34103e-22)
(1.02414 -0.00044677 0)
(1.0225 -0.000101749 9.44094e-23)
(1.02431 -0.000754049 1.31254e-22)
(1.03799 0.00958192 3.6736e-24)
(1.03872 0.00962948 -3.76079e-23)
(1.03778 0.00908677 -3.59472e-22)
(1.03816 0.010049 -1.66906e-23)
(1.0373 0.00956186 4.83123e-23)
(0.334493 0.0511473 -2.7974e-21)
(1.02987 0.0488218 4.13688e-21)
(1.02967 0.0472507 -1.05519e-20)
(1.02853 0.0483862 2.64324e-21)
(1.03073 0.0539959 5.61313e-21)
(1.03062 0.0557284 2.08562e-22)
(1.0292 0.0547535 4.96017e-21)
(1.01658 -0.000955647 4.83587e-22)
(1.01664 -0.00106506 5.31187e-22)
(1.01649 -0.000991648 7.3709e-22)
(0.998239 0.000450697 7.86411e-24)
(0.998968 0.00025578 1.06337e-23)
(0.677984 0.0548126 -5.02351e-21)
(0.672647 0.0508644 0)
(0.619318 0.016995 -2.18144e-21)
(1.03595 0.00791331 -6.9774e-23)
(1.03643 0.00828532 -7.99906e-23)
(1.0367 0.00802267 1.63039e-23)
(1.03549 0.00749315 1.11546e-22)
(1.03519 0.00776268 1.22106e-22)
(1.01039 0.000191093 6.55589e-23)
(1.00566 4.7723e-05 -8.94222e-22)
(1.03835 0.0105363 -1.1713e-22)
(1.03914 0.0106192 -1.83102e-22)
(1.0385 0.0110764 -3.15673e-22)
(1.03767 0.0105302 1.728e-23)
(0.688325 0.0212005 5.35115e-21)
(0.701314 0.0225752 -4.01406e-21)
(0.564588 0.0543682 -1.30695e-20)
(0.555205 0.0543899 -9.0879e-21)
(0.640269 0.0525438 -2.2045e-20)
(1.02495 -0.016732 -2.28866e-22)
(1.02525 -0.0163042 3.5174e-22)
(1.0246 -0.0161163 -3.36674e-22)
(0.997223 0.00731607 -2.2944e-24)
(0.997473 0.00779123 4.18858e-24)
(0.997748 0.00747252 2.03012e-23)
(1.01942 0.0369602 -1.5223e-21)
(1.01818 0.0371982 -5.41124e-23)
(1.0187 0.0361278 8.55976e-21)
(0.694573 0.0217201 1.26024e-21)
(0.679087 0.0206537 -8.37837e-21)
(0.696957 0.0220638 -9.0452e-21)
(1.02101 0.00118274 7.73966e-23)
(1.01894 0.000878351 -8.29625e-22)
(1.01847 0.000840798 5.58532e-23)
(1.01668 -0.000928843 -1.77846e-21)
(1.01654 -0.000858827 -9.00387e-22)
(0.915449 0.0449722 1.10966e-22)
(0.870013 0.051858 7.0234e-21)
(1.03326 0.0231372 0)
(1.03306 0.0229974 9.75994e-21)
(1.03375 0.0232018 0)
(1.03095 0.0487463 4.24927e-21)
(0.901286 0.0421393 1.44534e-20)
(0.869412 0.0415171 -9.37455e-21)
(1.00872 0.0445341 -7.60233e-21)
(1.00703 0.0443234 -4.84886e-22)
(1.00765 0.0459037 -3.26304e-21)
(1.02672 -0.00947066 5.52672e-23)
(1.02692 -0.00997424 0)
(0.592539 0.0600632 -3.41577e-21)
(0.599171 0.0600543 -6.00321e-21)
(1.02051 0.0370584 -1.18842e-20)
(1.01984 0.038111 -1.53078e-20)
(0.989755 -0.0107553 -2.55852e-21)
(0.990541 -0.0122496 -3.86177e-21)
(1.03045 0.0300902 -2.31265e-21)
(1.03063 0.0306201 5.42895e-21)
(1.0311 0.030168 -1.16333e-20)
(1.01297 -0.0104701 -2.24353e-23)
(1.01263 -0.00981967 -6.04598e-23)
(0.597004 0.0527373 1.56687e-20)
(1.01999 -0.00202122 0)
(1.01984 -0.00199201 -6.21267e-22)
(1.02004 -0.00189531 1.08338e-21)
(1.00569 0.0204826 0)
(1.005 0.0209479 1.20177e-22)
(1.00607 0.0212131 0)
(1.01042 0.0346326 3.70548e-22)
(1.01105 0.0333186 2.23156e-21)
(1.00956 0.0335059 -4.53219e-23)
(1.02577 -0.0180844 5.34082e-23)
(1.02531 -0.0173302 7.01088e-23)
(1.02611 -0.0176636 6.14788e-22)
(1.00598 0.00019969 6.37243e-22)
(1.01664 0.00246129 7.92635e-22)
(1.04811 -0.0324692 -3.90248e-22)
(1.04746 -0.0313116 -5.3338e-22)
(1.04899 -0.0314655 4.02722e-23)
(1.05836 -0.00514277 0)
(1.05846 -0.00567746 0)
(1.05947 -0.00556431 8.40767e-23)
(0.671979 0.0185908 0)
(0.655746 0.0178099 2.12853e-21)
(0.652562 0.017425 -8.80212e-21)
(0.595097 -0.0168993 4.06777e-21)
(0.594266 -0.0115568 2.23217e-21)
(0.603185 -0.0111712 0)
(1.05767 0.00474831 -2.03439e-23)
(1.05683 0.00421806 8.70121e-23)
(1.05625 0.00479498 -3.40952e-22)
(1.03558 0.00709843 1.08907e-22)
(1.03497 0.00698133 4.58271e-22)
(1.03879 -0.0231129 3.19877e-22)
(1.03988 -0.0236265 1.37094e-22)
(1.0362 0.00720504 7.06694e-23)
(1.0356 0.00674269 8.04962e-23)
(1.02019 -0.00203571 2.65658e-21)
(1.01484 -0.000155019 8.09075e-22)
(1.01091 -4.31542e-05 -1.76286e-22)
(1.01797 0.0201542 -2.68426e-21)
(1.01817 0.0209365 1.32005e-21)
(1.01735 0.0208069 -5.43569e-21)
(1.05853 0.00526404 1.35622e-22)
(1.05912 0.00464533 -1.10394e-22)
(0.605641 0.0142497 -4.32225e-21)
(0.626875 0.0158296 -4.38059e-21)
(0.738643 0.0437563 -1.25248e-20)
(0.760467 0.0439734 1.10175e-20)
(1.01847 -0.00408774 6.69732e-22)
(1.01846 -0.00386655 -3.2677e-22)
(1.01856 -0.00410952 6.92383e-22)
(1.04423 -0.0294781 -1.50631e-22)
(1.04466 -0.0306192 -1.45067e-23)
(1.04327 -0.0301667 -1.26157e-22)
(1.01156 0.06796 -6.93484e-21)
(1.00875 0.0681376 4.5554e-21)
(1.01249 0.0705677 8.86382e-22)
(1.03169 0.013519 0)
(1.03166 0.0140973 8.53357e-23)
(1.03094 0.0133529 0)
(0.971152 0.0157282 2.10031e-22)
(0.970127 0.0173914 1.80049e-21)
(0.972667 0.0174611 3.86169e-23)
(0.691877 0.0200191 0)
(0.688451 0.0195334 0)
(1.03172 0.0130006 6.78022e-23)
(1.0325 0.0137454 0)
(0.662106 0.0195861 1.30358e-21)
(0.658996 0.0191406 1.47246e-20)
(1.05822 -0.00457847 1.7616e-22)
(1.05722 -0.00472136 0)
(0.96214 0.0530148 -1.3822e-22)
(0.923786 0.0536941 6.05302e-21)
(1.00864 0.000781704 9.47935e-24)
(1.00672 0.000377044 -3.31484e-23)
(1.01478 -0.0262502 1.25587e-22)
(1.01579 -0.0268572 -3.28466e-22)
(1.01565 -0.025549 -7.04461e-22)
(1.02604 -0.0186562 -2.2432e-22)
(1.02528 -0.0183409 2.62594e-22)
(1.02921 -0.0103123 1.59099e-23)
(1.0296 -0.0101645 -6.21842e-24)
(1.02902 -0.00983286 1.06451e-23)
(1.0352 0.0398553 0)
(1.03474 0.0391683 0)
(1.03573 0.0390638 6.28228e-21)
(1.02853 -0.000379223 1.08576e-23)
(1.02804 -0.000418784 9.31187e-24)
(1.02442 -0.000194311 -5.59649e-23)
(0.95339 0.0178911 -3.52106e-21)
(0.953549 0.0218522 -6.98713e-21)
(1.00971 0.00909545 -1.22716e-21)
(1.00895 0.00922447 -1.79948e-21)
(1.00936 0.00841745 9.62775e-22)
(1.07049 0.0136843 -3.28083e-22)
(1.06991 0.0140452 -3.70882e-22)
(0.958465 0.0504462 -5.73334e-21)
(0.955473 0.0461233 9.31967e-21)
(0.959437 0.0454676 -1.17402e-21)
(0.582679 0.013934 -6.42737e-22)
(1.02274 0.00153498 4.49045e-24)
(1.02219 0.00153848 4.02724e-24)
(1.02143 0.0277732 4.14036e-21)
(1.02208 0.0283363 3.46883e-21)
(1.02225 0.0274161 -1.6541e-21)
(1.04629 -0.0344367 -1.68368e-22)
(1.04735 -0.0334408 -4.32544e-22)
(1.0456 -0.0331134 2.3651e-22)
(1.01028 -0.00107629 -4.68704e-22)
(1.00974 -0.00142446 -5.93632e-22)
(1.0104 -0.00179009 -7.7477e-22)
(1.04509 -0.0356628 0)
(1.04343 -0.0349253 5.9258e-22)
(1.01403 0.000593672 2.71147e-21)
(1.01381 0.00104783 -8.58954e-22)
(1.05435 -0.00511395 1.34243e-22)
(1.05528 -0.00499555 3.16065e-22)
(1.05421 -0.00459338 -1.1631e-22)
(1.03015 -0.000643106 0)
(1.02872 -0.000382471 0)
(1.01399 0.0508767 8.55075e-21)
(1.01548 0.0523119 2.95546e-21)
(1.01571 0.0501979 2.48733e-21)
(1.06603 -0.0333732 0)
(1.06891 -0.0349908 0)
(1.06661 -0.0333289 -8.83932e-23)
(1.00655 0.0198718 -1.88545e-21)
(1.0054 0.0196025 0)
(1.01445 0.000761422 5.81768e-22)
(1.01424 0.000266155 -1.02698e-23)
(1.01676 -0.00090746 2.44055e-22)
(1.01673 -0.000808119 1.14213e-21)
(1.01684 -0.000889004 1.58057e-21)
(0.926176 0.0246189 1.26776e-20)
(0.951188 0.0241815 2.35079e-20)
(0.606042 0.0167591 0)
(0.55937 0.0179452 0)
(1.04378 -0.00976812 -5.30496e-24)
(1.04401 -0.00938605 -1.03082e-23)
(1.0431 -0.00927331 -5.15659e-24)
(1.02497 0.0330598 3.1081e-23)
(1.02438 0.033802 -9.83499e-25)
(1.02374 0.0324638 -9.72572e-25)
(1.0102 -0.00044193 0)
(0.910244 -0.0474834 -1.56736e-22)
(0.926163 -0.0459087 0)
(0.970106 -0.0474144 0)
(1.03827 0.026729 2.11234e-21)
(1.0385 0.0268112 5.75273e-21)
(1.03838 0.0265 2.99755e-22)
(0.771823 0.040426 3.17384e-21)
(0.756673 0.0384468 1.69618e-20)
(0.745716 0.0385614 7.52738e-21)
(0.758494 0.0694342 -9.69262e-21)
(0.776902 0.0702698 7.32691e-21)
(1.00171 0.025684 1.22859e-23)
(1.0026 0.0258188 0)
(1.00246 0.0263873 -4.60917e-23)
(0.98938 0.0538456 1.51362e-21)
(0.987237 0.0519993 0)
(1.0438 -0.0284204 3.62464e-22)
(1.04508 -0.0287844 2.2576e-22)
(1.03929 0.0297423 7.4088e-21)
(1.0395 0.0301511 2.79148e-21)
(0.849329 -0.0478971 -1.4228e-21)
(0.891505 -0.0481943 -1.50358e-22)
(1.04115 0.0304448 -1.04443e-20)
(1.04077 0.0306262 -4.7798e-21)
(1.01403 6.36962e-05 -1.06162e-21)
(1.00982 -5.55935e-05 5.00657e-22)
(1.01395 -0.0269471 -7.44286e-23)
(1.0141 -0.0284165 1.03705e-21)
(0.9384 0.038507 2.35297e-21)
(1.03506 -0.0209211 -3.1235e-22)
(1.03421 -0.0203079 3.37328e-22)
(1.03445 -0.0212337 -1.23375e-22)
(0.996629 -0.0274895 9.15994e-22)
(0.997188 -0.028847 1.86379e-21)
(1.03439 0.0301941 -1.76099e-20)
(1.03469 0.0307952 -1.80721e-20)
(1.02497 0.000837235 1.26858e-23)
(1.02383 0.00072024 0)
(1.0197 0.000473591 1.21003e-22)
(0.964969 0.0270013 -9.72648e-21)
(0.93542 0.0260682 6.77709e-22)
(1.02023 -0.00114523 4.19984e-22)
(1.02012 -0.00138175 1.67595e-22)
(1.02039 -0.00130559 -2.37113e-23)
(1.03544 0.0176737 -1.82047e-21)
(1.03577 0.017989 2.71712e-22)
(1.02973 0.0206744 -2.06267e-23)
(1.02875 0.0204806 -5.93896e-25)
(1.02966 0.0213503 -4.72281e-23)
(0.420453 0.0224289 8.52046e-21)
(0.440284 0.0189382 -1.7649e-20)
(1.03197 -0.00372491 4.16182e-23)
(1.03214 -0.00357111 0)
(1.03172 -0.00342409 0)
(1.00733 0.0194653 -5.34824e-22)
(1.00719 0.018614 2.63222e-22)
(1.00809 0.0190339 1.35499e-21)
(0.994769 -0.0155724 2.91286e-21)
(0.995731 -0.0143608 1.43618e-21)
(1.00091 0.0253616 1.19667e-23)
(1.00129 0.0248511 -2.18362e-22)
(1.02743 0.00156207 4.53598e-22)
(1.02623 0.00121215 -4.27325e-22)
(1.03149 0.0297564 -7.33984e-21)
(1.03194 0.0294045 1.35053e-20)
(1.03141 0.029204 9.61215e-21)
(1.03428 0.0241895 0)
(1.03656 0.0243684 8.30098e-21)
(1.0346 0.0243807 0)
(1.01677 -0.00852593 -1.97733e-22)
(1.01663 -0.00902691 -9.01573e-23)
(1.01708 -0.0088918 -1.77612e-22)
(1.03592 -0.0214886 -1.47787e-22)
(1.0356 -0.0205835 -1.52844e-22)
(0.78423 0.0277489 5.58267e-21)
(0.786611 0.0284282 6.45296e-21)
(1.03366 0.0237955 0)
(1.03409 0.0239386 0)
(1.03554 0.0238951 8.75034e-21)
(0.947568 0.0652903 8.93174e-21)
(0.971435 0.0632368 -7.30044e-22)
(0.930223 0.0654162 4.94925e-21)
(0.720327 -0.00342031 1.79232e-23)
(0.650264 -0.00107574 -2.73726e-21)
(1.03181 0.0124976 7.22379e-23)
(1.03096 0.0122901 3.06244e-22)
(1.02301 -0.0150565 -2.2396e-22)
(1.02329 -0.0146781 -1.06184e-23)
(1.02271 -0.01445 -4.69133e-23)
(1.0332 0.022878 1.30715e-21)
(1.03304 0.0227652 -8.05174e-21)
(1.03316 0.0229688 -8.45797e-21)
(0.991806 0.0526788 -7.10076e-22)
(0.990823 0.0560581 1.7536e-21)
(1.0327 0.0127481 6.57304e-24)
(1.03202 0.0120062 0)
(1.04722 -0.0360485 0)
(1.01796 -0.00483145 2.86397e-22)
(1.0178 -0.00482534 -2.2408e-22)
(1.01793 -0.00509264 -4.59601e-22)
(0.984932 0.000957524 2.15524e-21)
(0.983385 0.000340052 0)
(0.983538 0.00219676 1.60348e-21)
(1.00749 0.0202618 3.58424e-22)
(1.02735 0.0428013 4.84535e-21)
(1.02736 0.0417054 4.66974e-21)
(1.02634 0.0422139 -4.3934e-21)
(0.996347 0.0432668 -3.99751e-22)
(0.996109 0.041331 -9.37784e-22)
(0.998163 0.0420197 2.58379e-21)
(0.972897 0.0140161 1.98974e-21)
(0.970118 0.0134687 2.10324e-21)
(1.03417 0.0181633 2.08456e-21)
(1.03379 0.0184215 6.75763e-21)
(1.03416 0.0186341 -4.74218e-21)
(0.719278 0.027287 2.07689e-24)
(0.701132 0.0253095 1.17224e-20)
(0.71722 0.0264273 -9.2669e-21)
(1.04339 -0.011749 -2.68119e-23)
(1.04245 -0.0115444 1.38127e-23)
(1.01645 -0.00818336 5.33028e-23)
(1.01685 -0.00802884 -3.37074e-22)
(1.04533 -0.0389656 8.36779e-22)
(1.04379 -0.0396745 -7.72569e-22)
(1.03821 0.0379208 -5.80104e-21)
(1.03837 0.0371746 -6.2889e-21)
(1.03897 0.0378764 2.72033e-21)
(1.02005 0.000774807 2.89395e-23)
(1.01555 0.000422131 -1.29975e-22)
(1.02088 0.000785563 6.85583e-22)
(0.599567 0.0195567 2.25357e-20)
(1.03455 0.0179694 -6.85131e-21)
(1.03412 0.0177825 -9.05996e-22)
(1.02471 0.0628033 1.66789e-22)
(1.04039 0.0693847 -6.55374e-22)
(1.01792 -0.00773129 5.78913e-22)
(1.01774 -0.00731218 1.57712e-22)
(0.992779 0.0488534 0)
(0.993425 0.0510718 -2.81354e-21)
(0.995226 0.0491476 0)
(1.02623 0.033702 9.85855e-25)
(1.02546 0.0323363 9.91948e-25)
(0.708944 -0.0154935 -4.96687e-21)
(0.718058 -0.0163994 -2.16212e-21)