/*--------------------------------*- C++ -*----------------------------------*\
| =========                 |                                                 |
| \\      /  F ield         | OpenFOAM: The Open Source CFD Toolbox           |
|  \\    /   O peration     | Version:  v2012                                 |
|   \\  /    A nd           | Website:  www.openfoam.com                      |
|    \\/     M anipulation  |                                                 |
\*---------------------------------------------------------------------------*/
FoamFile
{
    version     2.0;
    format      ascii;
    class       surfaceScalarField;
    location    "50";
    object      meshPhiCN_0;
}
// * * * * * * * * * * * * * * * * * * * * * * * * * * * * * * * * * * * * * //

dimensions      [0 3 -1 0 0 0 0];
oriented        oriented;


internalField   nonuniform List<scalar> 
20580
(
6.69168e-05
-3.14861e-05
-3.73213e-05
-0.000239488
0.000175822
6.53918e-05
-9.50625e-05
-0.000143175
0.000143668
-0.000158937
1.53659e-05
2.53622e-05
3.59051e-05
-3.95957e-05
-8.0813e-05
0.000295457
-0.000212296
0.000197858
-0.000207925
1.87189e-05
4.13394e-05
-3.88595e-05
4.25987e-05
1.22715e-05
-5.49307e-05
-0.00020421
0.000863306
-0.000657042
8.86176e-05
-0.000254911
0.000167361
-2.93305e-05
-0.000446952
0.000483761
0.000720199
-0.000180582
-0.000538004
-7.15138e-06
-2.56314e-05
3.27837e-05
-4.74143e-05
-1.33287e-05
6.11386e-05
0.000161685
-4.4155e-06
-0.000158322
-9.587e-05
9.13369e-05
4.41116e-06
-0.000306996
5.28581e-08
0.000310121
-6.04902e-05
1.96697e-05
4.07518e-05
3.31035e-05
3.25638e-05
7.51677e-06
5.24205e-05
-6.0232e-05
7.86437e-05
0.000391565
-0.00046572
-0.000184869
0.000117205
6.78094e-05
2.97426e-05
-3.46322e-06
-2.24176e-05
-0.000126001
3.95787e-05
8.64835e-05
0.000205197
-0.000159492
-4.68418e-05
0.000102076
-4.40739e-05
-5.82731e-05
2.79201e-05
-3.32612e-05
5.22443e-06
0.000108928
-7.76102e-05
-3.14536e-05
-3.43801e-05
0.000368687
-0.000324203
1.55029e-05
0.000107524
-0.00012465
-2.16363e-05
0.000215263
4.39355e-06
-4.83063e-05
4.6719e-05
-4.00908e-05
5.97059e-06
3.49627e-05
-0.000111638
-0.000115139
0.000227294
-9.24256e-05
0.000130692
-3.82179e-05
2.40997e-06
2.82204e-05
-0.000165136
0.000125493
3.96039e-05
7.90986e-05
-1.14258e-05
-6.80607e-05
0.000747101
-0.000513993
-0.000226604
2.11169e-05
1.45285e-06
-2.25926e-05
6.64854e-05
4.23675e-05
-4.02739e-05
-6.49099e-05
-0.000304947
0.000210974
9.47609e-05
5.02162e-05
4.20651e-05
-9.24125e-05
-6.30966e-06
0.000510888
-0.000494754
1.53491e-05
2.10806e-05
7.85764e-05
-0.000120857
4.18514e-05
0.00058798
-0.000171106
-0.000409475
8.65185e-05
0.000634657
-5.28394e-06
-3.41308e-05
3.93361e-05
0.000802818
-0.000197699
-0.000603915
-1.04017e-05
0.000171046
0.000202994
-0.00010973
-9.54908e-05
-5.78196e-05
6.50608e-05
-7.32593e-06
0.000472695
0.000278993
-4.08345e-05
4.25761e-05
2.52241e-05
-4.06694e-06
0.000135873
-9.75799e-05
-3.86582e-05
1.53069e-06
-2.04718e-05
1.90526e-05
0.000452782
-0.00047416
4.61249e-05
5.56537e-05
0.000750977
-0.00073989
-1.05219e-05
0.000317404
0.00027649
0.000287842
-0.00016886
-0.000118617
0.000212578
7.56177e-05
1.64034e-05
-1.49134e-05
7.62301e-05
-0.000281575
9.97807e-05
0.000449339
-0.000541897
-0.000134499
0.000138435
-4.00126e-06
-3.91122e-05
0.000100089
-6.06337e-05
-7.01233e-05
5.3135e-05
1.65817e-05
-0.000757956
0.000565609
0.000196265
-5.92173e-06
-1.44493e-05
-0.000118006
0.000141221
-2.47569e-05
0.000162571
0.000363892
-0.000521853
4.22575e-06
-0.000100072
-0.000296295
0.000141181
0.000162115
-2.15746e-05
-0.00010429
2.57783e-05
-0.000642059
0.000626132
-0.000394079
0.000500769
-9.58936e-05
-4.73163e-05
0.000143222
-0.000300182
0.000190127
-1.48817e-05
-2.78933e-05
4.27537e-05
-2.1862e-05
1.59992e-05
0.000100283
2.52654e-05
-0.000123028
0.000432484
-0.000349887
4.61358e-06
-7.59055e-05
7.12281e-05
0.000681697
-0.000720025
4.16735e-05
-8.66504e-05
0.00010154
8.31947e-05
0.000720264
0.00016555
-0.000190814
-4.65716e-06
-4.54898e-05
-1.45045e-06
0.000103073
-7.64893e-05
3.81988e-05
3.82086e-05
0.000157269
-0.000270648
0.000114098
-0.000906326
0.000450496
0.000465104
-6.04692e-05
-0.00010706
0.000166924
8.51613e-06
-2.98076e-05
2.12482e-05
-0.000244398
8.42456e-05
0.000160636
7.87037e-05
-0.000139677
-0.000182609
0.000405733
-0.000223457
-0.000400079
9.73035e-05
0.00030241
0.000739365
-0.000771404
3.51225e-05
-6.65527e-05
0.000462062
-0.000387272
-0.000127218
7.3664e-05
5.36284e-05
-0.00051517
0.000458524
5.36324e-05
-9.20435e-05
0.000177394
-1.55297e-05
1.62116e-05
-0.00032003
-0.000493131
0.000121613
0.000374384
-0.000567916
0.000572656
-5.23649e-05
-4.43385e-05
9.68371e-05
0.000149761
-0.000147568
-1.56188e-06
7.99844e-05
-1.07962e-05
-6.9444e-05
8.45581e-05
0.000116368
-0.000458868
0.000256561
0.000213569
-4.18612e-05
8.16261e-05
0.000105371
3.82852e-05
-1.46527e-08
-0.000134502
-0.000292707
9.85334e-05
0.00019506
0.00035325
8.23826e-05
-0.000428032
-0.000283439
-0.000214498
0.000503733
-3.15746e-05
2.02527e-05
1.11374e-05
-5.26595e-05
4.19736e-05
1.06054e-05
0.000260479
7.20795e-06
-0.000268268
-0.000338542
-0.00055664
0.000271917
-0.000245914
-2.43114e-05
-8.71565e-06
-2.08747e-05
2.96129e-05
-2.00277e-05
-3.12086e-05
5.35868e-05
-9.52962e-05
0.000490829
0.000358772
-4.7813e-05
-0.000307266
-5.35387e-05
-0.00011174
-1.91382e-06
-3.8319e-05
0.000212209
-0.00012288
-5.53036e-05
9.89469e-07
5.42159e-05
-0.00026507
-6.285e-05
9.15566e-05
-0.000463209
0.000151323
0.00031175
2.53961e-05
3.73812e-05
-6.46168e-05
6.92693e-05
-0.000165583
6.51249e-05
0.000540071
-0.000602942
0.000802153
-0.00011769
1.29139e-05
0.000223867
-0.000237175
-8.70213e-05
7.55177e-05
1.21734e-05
-0.000599586
0.000249707
0.000354055
-0.00011163
-0.000176068
0.000106678
3.81578e-06
5.99382e-05
-6.37429e-05
0.000270067
2.97147e-06
0.00013589
-5.75685e-05
7.03712e-05
-0.000122877
0.000145855
4.23555e-06
-1.55635e-05
5.85919e-05
-4.31214e-05
0.000591252
-0.000777846
0.000187939
-0.000843665
0.000683334
0.000161164
-0.000550064
0.000521853
3.76279e-05
2.83351e-05
5.13618e-05
6.30364e-05
-5.66065e-05
-1.1129e-05
9.35048e-05
-0.000102501
1.19071e-05
6.58222e-05
-5.27915e-05
-7.74995e-06
-0.000101694
-1.1911e-05
0.000113369
-5.6942e-05
-6.88424e-05
0.000141318
-6.33065e-05
2.84932e-05
-3.56469e-05
7.47321e-05
-6.50376e-05
-9.88798e-06
-3.94723e-06
7.84472e-05
3.8785e-05
-4.41805e-05
-0.000386959
-0.000103134
-4.25194e-05
1.35811e-05
2.90191e-05
-1.20935e-05
0.000461547
-0.000441982
-0.000155029
-0.000288832
-1.96316e-05
0.000104775
-8.49048e-05
-3.48379e-05
7.02291e-05
-1.86767e-05
-2.96086e-05
-4.66469e-05
-2.05574e-05
6.69216e-05
-4.64804e-05
6.58382e-05
4.50432e-05
-0.000111231
-0.000413732
0.000272294
-0.000148122
-1.3557e-05
0.000159461
-6.45369e-05
0.000130169
-3.39513e-05
-1.81772e-05
-0.00014691
0.000453987
-9.3323e-05
-0.000357677
-7.04065e-05
4.76206e-05
-5.69756e-05
-3.44596e-05
5.42804e-05
-5.04317e-05
2.42428e-06
-4.86038e-05
-0.000531622
0.000487484
4.4317e-05
-0.000540569
0.000797458
-0.000255269
-0.000534817
0.000520741
2.42512e-05
-2.4666e-05
-6.27377e-05
1.74736e-05
3.87822e-05
1.0926e-05
-3.65475e-05
-0.000251317
0.000172791
-0.000164279
-0.000431046
-3.37932e-05
-0.000140882
0.000173825
-3.88043e-05
4.21885e-05
-0.000226179
0.00021073
4.20762e-05
0.000160986
6.2351e-05
-0.000254954
0.000375499
-0.000152923
-0.00022318
6.27108e-05
9.66763e-05
-0.000159542
2.87126e-05
1.07397e-05
-3.95515e-05
-2.37227e-05
2.62316e-05
-2.65359e-06
2.60974e-05
-7.27816e-05
-0.000150271
0.000162681
-1.21188e-05
4.15312e-05
-1.28714e-05
-0.000392454
-0.000217657
0.000610181
-0.000118351
3.43469e-05
8.32295e-05
-4.53265e-05
6.03958e-05
-1.51633e-05
-0.000311535
0.000306246
8.04834e-06
0.00018664
-3.01918e-05
-0.000157149
0.00022496
-0.000503408
0.000131672
3.30707e-05
-0.000241558
0.000208327
-0.00017849
-5.45469e-05
0.000234028
-4.83927e-05
-0.000403015
0.000455182
0.00075578
-0.000668101
1.94807e-05
-3.78133e-05
1.81183e-05
0.000457987
-0.000350868
-9.96361e-05
-2.93956e-05
-0.000114603
-0.000280945
-0.000118913
-5.28933e-05
3.02083e-05
2.24374e-05
2.37333e-05
-3.85508e-05
1.11309e-05
4.59094e-05
-5.7247e-05
0.000504511
-0.000120835
-0.000383475
-4.28906e-05
-7.636e-05
-1.08517e-05
-9.54191e-05
0.000106051
-0.000237873
0.000250498
0.000680907
5.24857e-06
-0.000677355
-0.000293129
-0.000186096
0.000118258
6.7886e-05
-0.000417516
-0.000113745
-0.000294004
-1.44559e-05
-3.17935e-06
-0.000663695
1.37052e-06
-2.51868e-05
0.000353011
-0.000376219
-0.000131443
-5.31557e-05
-2.12193e-05
2.71506e-05
-6.00782e-06
-7.19487e-05
-0.00017178
5.92524e-05
8.61628e-06
-0.000172398
-4.1214e-05
0.000213954
4.01863e-06
-2.36082e-05
1.95561e-05
0.000107799
-5.77045e-05
0.000181029
1.21362e-05
9.34532e-05
-0.000106409
-0.000226806
1.1206e-05
0.000215244
-1.84511e-05
3.76818e-05
-0.000172016
2.18683e-05
-0.000116675
-0.000153332
0.000162346
0.000282503
-0.000441967
7.84754e-05
-1.19708e-05
-6.65182e-05
6.79411e-05
-3.63417e-05
-3.10662e-05
-7.01589e-05
1.26862e-05
8.63848e-05
9.34689e-05
-0.000142944
4.98586e-05
-0.000141408
-6.63239e-06
-9.51087e-05
-8.71199e-05
0.000122605
-3.54866e-05
-0.000119542
-0.000406761
-2.75691e-05
0.000665973
-0.000713891
5.04685e-05
-5.73244e-05
1.01837e-05
4.58786e-05
-1.51627e-05
4.57121e-05
-3.0956e-05
0.000103214
-9.98164e-06
-0.000107824
5.2135e-05
4.63173e-05
2.1509e-05
0.00089054
-0.000303757
-0.00058114
-0.000359835
0.000176646
5.70396e-05
-0.000125332
6.79203e-05
-3.49945e-05
2.78647e-05
6.76549e-06
0.000125326
-0.000715882
0.000595656
7.16461e-05
0.00068494
8.72609e-05
-3.00104e-05
-2.95403e-05
5.96416e-05
-9.65248e-05
0.000141955
-4.55101e-05
-4.61195e-05
-6.35499e-06
5.20896e-05
7.55768e-06
0.000351586
-4.56359e-05
1.2131e-05
5.21861e-05
-1.68266e-05
-3.54664e-05
-1.26639e-05
-6.46293e-05
7.73082e-05
-4.71001e-05
-6.00779e-05
2.193e-05
-5.20032e-05
1.38461e-05
-2.37989e-05
9.88282e-06
-0.000196777
7.9347e-05
0.000118632
5.64538e-05
9.46085e-08
-5.76417e-05
-5.61313e-05
-8.84568e-05
0.000144638
-0.000714754
0.000402006
0.000322595
0.000465179
-0.000503471
4.753e-05
4.31782e-05
-5.5675e-05
0.000285774
-0.000198298
-8.62715e-05
8.49578e-05
0.000289254
-0.000364947
-0.000195629
0.00022267
-2.40256e-05
0.000133008
0.000555857
5.3187e-05
2.27745e-05
-5.00112e-05
-5.13475e-05
9.50348e-05
-4.33747e-05
-7.48535e-05
-1.21705e-05
5.47015e-05
5.21272e-05
-4.54082e-05
-0.000723467
0.000250543
0.000479775
-9.91061e-05
-2.06721e-05
-1.10103e-05
0.000766307
-0.000584117
-0.000180702
-2.07419e-05
-3.08175e-06
2.9477e-05
-2.65272e-05
0.000574607
-0.000507533
0.000674166
9.29769e-05
7.83331e-05
-2.6229e-05
-4.34849e-05
1.075e-05
3.25552e-05
-0.000112327
0.000100218
1.21451e-05
-7.22137e-05
6.53401e-05
6.13021e-06
-4.13922e-05
8.86586e-05
-1.63384e-05
-2.61905e-05
0.00044758
-8.17948e-05
2.52986e-05
5.53513e-05
2.86556e-05
-3.19545e-05
-3.67652e-05
2.79876e-05
8.2573e-06
9.11014e-05
-3.97376e-06
7.77956e-05
-0.00013374
0.000187763
-0.000133577
-5.4235e-05
0.000139716
-3.35368e-05
-0.000105912
2.70145e-05
-0.000116698
8.98543e-05
-0.000423234
0.000196549
0.000226178
3.52055e-06
-5.88826e-05
-2.93998e-05
2.37764e-05
5.59416e-06
-3.14101e-06
3.09324e-05
-8.53878e-05
0.000186995
0.000104754
-9.5383e-06
-9.50756e-05
5.78899e-05
2.174e-05
-0.000179687
0.00019928
-2.0024e-05
2.3403e-05
-0.000203655
3.44415e-05
-0.000426923
-2.24285e-05
-7.11962e-05
9.30856e-05
0.00053444
-0.000146307
-0.000386836
6.41874e-05
-5.96353e-05
-0.000435797
0.000221814
0.00021348
-0.000140997
0.000170669
-4.98841e-06
-1.29094e-05
2.51791e-05
-0.000410882
3.16185e-05
0.000382823
9.1727e-05
4.82435e-05
-0.000160276
-0.000216079
-0.000487812
4.92654e-05
0.000513854
-0.000420944
-9.17234e-05
0.000132083
0.000229059
-4.14441e-05
-6.12866e-05
-1.69666e-05
-2.6598e-05
-2.99211e-05
-1.5551e-05
-0.000152167
-0.000576619
0.00053317
-0.000312074
2.1175e-05
8.9049e-05
2.33426e-05
-0.000112558
0.000184244
-0.000723298
3.65252e-05
-0.000129352
-6.56572e-05
1.97331e-05
5.86272e-05
7.88049e-05
0.000436024
-5.1278e-05
-0.000116644
-0.000599404
-0.000204569
6.0815e-05
0.000143978
0.000214752
-0.00013021
5.68763e-05
-3.68804e-05
-1.9501e-05
0.000134131
-4.3869e-05
0.000132794
-0.000175022
0.000427573
4.91872e-06
4.34663e-05
-2.61836e-07
-4.30843e-05
0.000302653
-0.00010804
-0.000189272
-3.04817e-05
-6.43189e-06
6.37289e-05
-4.33537e-05
-2.03362e-05
3.22412e-05
-2.37701e-05
-0.000327205
-8.0392e-05
8.91512e-05
-0.000199281
8.34175e-05
5.21888e-05
-3.19634e-05
-9.1049e-05
0.000123026
0.000104531
8.44293e-05
-0.000189211
-5.9062e-05
-2.79546e-05
8.69704e-05
-0.000295274
-3.78862e-05
0.000342146
-5.14473e-05
3.09475e-05
-0.000122019
8.17192e-05
0.000155956
-6.59669e-07
-0.000154192
2.43213e-05
5.40739e-05
-0.000152034
0.000172906
-1.97571e-05
2.43935e-05
5.90921e-06
-3.03755e-05
-8.10861e-06
6.37945e-05
0.000226937
-7.82652e-05
-6.23818e-06
4.89424e-05
-4.34437e-05
-0.000232221
9.78612e-05
0.000134607
-0.000284781
-0.000557855
-7.41856e-05
0.00022571
-0.000150221
0.000128818
0.000158005
-0.000133144
-0.000420892
0.000559411
-0.000131432
7.73264e-06
-5.46999e-05
4.94169e-05
-2.86243e-05
-2.23885e-05
-0.00034116
-0.00041383
-5.43534e-05
8.81633e-05
9.91616e-05
5.23707e-05
-0.000151679
0.000286277
4.43875e-05
-0.000327095
0.000234088
-0.000179039
-5.45949e-05
0.000172963
-3.00382e-05
-0.000144188
-0.000111506
-8.27078e-07
0.000163009
0.000146189
7.41074e-05
0.000129817
8.94663e-05
-0.000239256
2.67469e-05
9.75536e-06
8.65023e-05
-9.6921e-05
1.7589e-05
-0.000104718
-1.77961e-05
4.47532e-05
-0.000216891
0.000436694
0.000458782
-3.6921e-05
-0.000166606
-0.000234892
9.01855e-05
0.000145827
-0.00011894
0.000207267
-7.10577e-05
-0.000318536
0.000395068
-7.68992e-05
-2.23035e-05
1.96024e-05
-2.99011e-05
1.03428e-05
-7.20228e-05
-3.77568e-05
0.000109723
-0.000266925
-4.23216e-05
3.99632e-05
-8.8427e-05
-2.63702e-07
8.82465e-05
4.62967e-05
-0.000142901
-6.30669e-05
-4.32962e-05
0.000108808
9.16818e-06
9.56545e-05
0.000170307
2.46571e-05
-0.000194769
-9.04632e-05
0.000184728
-9.41987e-05
-0.000193944
0.000358531
-4.23736e-05
6.18277e-05
-1.93299e-05
-0.000758397
0.000572622
0.000188165
1.12922e-05
-2.99499e-05
-5.30575e-05
-4.84641e-06
-6.49044e-05
7.30529e-05
-8.38557e-06
-0.000735909
0.000533415
1.85487e-05
0.000158495
3.08046e-05
-8.5613e-05
-0.000420405
4.35873e-05
0.000391254
2.92109e-05
-9.69058e-06
5.33297e-05
-7.65599e-05
4.05555e-05
1.1611e-05
7.54871e-05
-6.46558e-05
-1.19695e-05
-0.000342328
5.98031e-05
0.000511102
0.00023112
-0.000742542
0.000102067
-0.000133985
0.000812566
-0.000553974
0.000747128
-0.000236502
-0.00013896
7.2226e-05
6.65433e-05
2.04672e-05
2.76914e-05
0.000374964
-0.000466409
-0.000125592
7.61668e-05
4.91164e-05
0.000663383
8.63336e-05
-4.94564e-05
-0.000443406
-1.55564e-05
0.000305068
2.09733e-05
0.000105716
7.47843e-05
-0.000181225
-0.000334538
0.00057172
-0.000230719
0.000129037
-0.000362809
0.000233917
-0.000154718
-0.0001373
-0.000178458
-3.50161e-05
0.000215649
-3.11208e-05
-6.56454e-05
9.65997e-05
-0.000600772
0.000445592
0.000166239
-4.97276e-05
0.000125621
-7.74056e-05
-5.68162e-05
9.87671e-05
-0.000464827
0.000300749
0.000164886
-3.86751e-05
2.82174e-05
1.70012e-05
-2.27142e-05
-0.000447375
0.000476853
6.4918e-05
8.03954e-06
-4.01776e-05
-0.000132093
0.000172211
-0.000247345
9.41015e-05
0.00015361
9.04371e-05
2.33096e-05
-0.000113908
-7.27199e-05
8.48233e-05
-1.84236e-05
0.00012804
-0.00011009
-0.000279458
0.000585929
2.80685e-05
-0.000606762
-6.78075e-06
-2.80786e-05
3.46565e-05
-4.24975e-05
0.000191771
0.000228557
-0.00042035
-0.000201173
-0.000419291
0.000624485
-9.25914e-06
-0.000102924
-0.000360403
-1.3571e-05
-0.00014247
0.000156323
0.000184288
0.000557442
0.00029009
-0.000308018
2.05412e-05
0.00016557
9.26294e-05
1.68044e-05
-0.000110718
3.05344e-05
-6.75278e-06
-2.28928e-05
-6.57701e-05
5.8138e-05
-0.000130549
0.000284602
-0.00048873
0.000205841
9.73472e-05
0.00081384
-0.000673122
-0.000134524
-8.9709e-05
-1.66032e-05
0.000187636
1.89006e-05
-5.6903e-05
-3.92913e-05
-0.000193662
-0.000409267
-0.000189229
-0.000274513
-9.05817e-05
-2.05326e-05
7.37024e-05
-8.07558e-05
-4.28773e-05
0.000123596
-3.07768e-05
2.39689e-05
-0.00012326
9.20278e-05
-0.000125227
0.000138536
-1.32923e-05
-4.86845e-05
-6.19209e-05
-1.74338e-05
7.92548e-05
2.8649e-05
0.000146617
-0.000519509
0.000373333
-4.08643e-05
0.000371065
-0.000329421
0.000135834
9.84036e-05
0.0007303
0.000133861
0.000188215
-0.000601275
0.000477212
-0.000115862
-0.000361017
7.00682e-05
-2.34482e-05
-4.64833e-05
-0.000141434
0.000204859
-6.39105e-05
-0.000447872
-0.000176341
0.000625956
7.29547e-05
-0.00025393
0.000182045
-3.45e-05
0.000134546
-9.99013e-05
-6.07704e-05
-0.000605372
0.000666043
9.37679e-05
-7.54599e-05
-1.84103e-05
0.000115201
0.000460402
-0.000567892
-3.23381e-05
7.48892e-06
2.52105e-05
-1.6822e-05
-0.000230075
0.00055901
-0.000525022
9.64092e-05
-0.000124837
2.81823e-05
3.65676e-05
0.000130376
-0.000166791
-7.48401e-06
0.000448751
-0.000138983
2.12938e-05
0.000117619
0.000193812
-5.78887e-05
5.63673e-05
-7.7071e-05
2.19888e-05
2.03658e-05
6.93547e-05
-8.98686e-05
-4.20586e-05
-1.85168e-05
-4.24202e-05
3.00559e-05
1.28794e-05
0.000518545
-0.000231932
0.000125159
-5.31052e-05
-1.96889e-05
1.12587e-06
1.8511e-05
9.33027e-05
-2.98964e-05
-9.48676e-05
9.7304e-05
-2.60271e-06
-6.0033e-06
0.000567282
-0.000553477
0.000573727
-9.0706e-05
-5.88244e-05
0.000149414
1.30692e-06
2.30316e-05
-1.97076e-05
0.000174276
-0.000153778
-8.94255e-05
0.000194824
-0.000743927
9.38885e-05
0.000650633
8.77014e-05
4.97768e-05
-0.000138081
-3.10209e-05
2.23633e-05
6.90259e-05
-6.70163e-06
-6.26364e-05
0.000172232
-8.91752e-05
-7.95191e-05
-5.37917e-05
-3.07788e-05
8.45553e-05
0.000232911
0.000449329
8.35325e-05
-0.000167592
1.68342e-06
0.000163967
-9.20086e-05
3.09632e-05
0.000550925
-0.000183458
5.74693e-05
3.5895e-05
-9.35309e-05
-0.000136184
-9.58232e-05
7.76794e-05
-0.000215684
7.23296e-05
-0.000666453
-4.45297e-05
-2.7075e-05
-3.68729e-05
6.39205e-05
0.00046195
-0.000403011
-5.56054e-05
0.000180382
-0.000169933
-9.69903e-06
1.09184e-05
-7.88873e-05
6.62952e-05
-0.000105102
-2.18454e-05
0.000125531
-2.84022e-06
-0.000118556
0.000121709
-4.14547e-05
-5.93835e-05
0.000100736
2.4964e-05
-1.12192e-05
0.000169903
6.37784e-05
-0.000231874
-1.79957e-05
-0.000104149
-7.22779e-05
-1.63797e-05
8.29453e-05
0.000120798
-0.000114414
-5.77004e-06
-4.12698e-05
0.000107669
2.06014e-05
4.43847e-05
-0.000482537
-7.90226e-05
0.000568021
0.00051483
-0.000333303
-6.70218e-05
-3.62433e-05
7.20667e-05
-0.000155571
8.63269e-05
6.8896e-05
0.000160813
-7.41551e-05
-0.000165697
0.000152426
-3.83113e-05
-0.000131314
5.19968e-05
-6.11567e-05
-9.2069e-05
-9.3911e-05
2.16948e-05
-9.30487e-05
7.12747e-05
-0.00021626
-9.38867e-05
0.000311301
-8.00792e-06
-2.38614e-05
9.73676e-05
-3.01787e-05
-6.7535e-05
-0.00011449
5.0734e-05
6.36583e-05
-7.22994e-06
0.000347056
-0.000329566
8.31036e-06
-0.000106364
-5.27811e-05
1.04116e-05
-4.17453e-05
-0.00053045
0.000578824
4.6543e-05
-5.12202e-05
1.11573e-06
-5.29638e-05
5.18276e-05
7.0187e-05
-4.47929e-05
-9.50538e-05
-0.000535863
0.000636174
0.000143818
-0.000162338
-0.000143022
-0.000115386
0.000259035
-0.000110372
-6.58475e-05
0.000176183
0.000427802
0.000391088
3.34991e-05
-5.12827e-05
3.10733e-05
-0.00043088
-0.000123008
0.000554093
0.0001205
-0.000154611
-4.75929e-05
-0.000541878
4.06623e-05
-3.46363e-05
8.10756e-05
2.82894e-05
6.85968e-05
-0.000430195
-0.00012251
0.000554368
-0.00019089
7.12965e-05
-0.000288126
-0.000479887
0.000476748
-0.000537587
0.000360163
-0.000379005
2.11267e-05
-9.10481e-05
3.72327e-05
6.53288e-08
0.000104598
-0.000104951
4.6741e-05
0.000245228
0.000451021
-8.52624e-05
-0.000353857
-9.50218e-05
0.000249837
-0.000148723
9.19271e-05
1.32106e-05
-0.000186004
0.000314944
-8.67277e-05
-4.11631e-05
0.000127947
8.17226e-05
-0.000191947
0.000110833
-0.000190984
0.000382731
-0.000122994
0.000130716
-0.000484417
5.84347e-05
0.000426701
-5.80724e-05
-5.81649e-05
0.000116169
0.00014299
-0.000154107
-9.32346e-06
-0.000194651
0.000202564
9.28471e-05
-0.000110944
-4.499e-05
8.78876e-05
-4.28959e-05
-0.000460975
-0.000198555
8.8395e-05
-0.000199693
0.000273852
0.00010106
0.000142461
-0.000243146
-4.10696e-05
4.20769e-05
-0.000189867
0.000122021
7.27081e-05
4.62812e-05
4.74438e-05
0.000114842
0.000151945
4.61065e-06
-0.000177609
5.23598e-05
9.0515e-05
-8.23845e-05
-6.91112e-06
0.000162578
0.000143501
5.3354e-05
-0.000139903
-0.00015019
-6.93554e-05
-5.15813e-05
-6.29781e-05
-4.11164e-05
5.07771e-05
-9.69603e-06
-0.000642047
0.000237343
0.000410914
9.34261e-05
1.61045e-05
8.53385e-06
-2.4671e-05
-4.42461e-05
-0.000121645
0.000165344
0.000158917
-0.000203488
-1.87442e-05
-0.00014156
4.68829e-05
-0.000104993
-5.20856e-05
-7.00766e-05
0.000121979
0.000206104
0.000468504
-7.42203e-06
5.67551e-05
-4.9778e-05
-0.000218406
4.10206e-05
-0.000517921
-0.000197686
0.000716094
0.000102488
1.39989e-05
-0.000116765
4.08175e-05
-0.000123357
-9.98005e-05
0.000223702
4.94425e-05
-0.000104383
5.71265e-05
0.000106356
-4.95941e-05
0.000183372
-0.000385962
0.000203193
-0.000208011
0.000121455
8.55745e-05
0.000358504
-0.000598591
0.00024039
0.00039821
-0.000558363
0.00015596
-0.00029791
-6.21081e-05
-0.000368529
9.05097e-05
5.01601e-05
-2.56531e-05
-4.50329e-05
6.62686e-05
-1.3489e-05
0.000105078
-0.000320229
7.77155e-05
-0.000219755
-3.4596e-05
5.42006e-05
4.31289e-05
1.34829e-05
-5.66834e-05
-0.000146083
7.06794e-06
1.77639e-05
0.000117787
1.10312e-05
-4.40073e-05
3.29017e-05
-0.000439074
0.000380862
6.01442e-05
-0.000130139
3.92556e-05
-1.20994e-05
0.000317072
-0.000336281
2.25268e-05
-1.47961e-05
6.60108e-05
3.08226e-05
-6.54945e-05
-0.000438488
0.000121652
0.000320534
-0.000697306
6.53961e-05
0.000102421
0.000554335
-0.000646915
-0.000159611
-4.36549e-05
0.000202193
-8.18635e-05
2.27406e-05
7.08713e-05
-0.000121858
2.03586e-05
6.72116e-06
0.000394391
6.97559e-05
-0.000113492
6.12145e-05
-0.000219541
-3.75201e-05
0.000257886
-9.48262e-07
2.9389e-05
0.000170699
-0.000117161
0.000283855
-0.000118485
0.000123081
-0.000216974
-3.62198e-05
3.51269e-05
-0.000212041
8.90622e-05
-0.000101988
-0.000334852
-6.54428e-05
-3.72493e-05
-0.000279369
-2.10649e-05
-0.000181282
0.000202801
-0.000170095
-5.10978e-05
7.8885e-05
5.07105e-05
-0.00022812
0.00017881
-0.000136907
-1.82406e-05
0.000155298
-0.000392634
-0.000363823
0.00017551
-0.000666638
0.000449197
0.000337312
-0.000854923
-5.89252e-05
0.000100029
-4.11892e-05
-1.96661e-05
9.31465e-05
-4.72853e-05
0.000149686
-5.65372e-05
6.17452e-05
0.000109176
6.3092e-05
-5.36202e-06
-5.78335e-05
-2.62074e-05
-3.63601e-06
2.26489e-05
-7.42485e-05
0.000195615
-9.42901e-05
-0.000231396
-0.000229704
-0.000517215
0.000705582
-0.000633152
-0.000299455
7.91034e-05
0.000228896
-0.000249465
0.000161751
4.88924e-05
-0.000103615
1.54632e-06
0.000102423
-0.0001069
0.000113498
-6.46298e-06
-0.00018304
0.00036688
-6.91117e-06
-2.64675e-05
-0.000281567
0.00050387
-0.000218311
-5.75985e-05
6.14793e-05
-6.55184e-05
-4.68921e-05
-0.000111702
0.000279088
-6.97693e-05
-0.000207698
9.0566e-05
-3.05365e-05
-0.00065309
0.000623313
2.88184e-05
-5.13549e-05
-2.8789e-05
8.02738e-05
0.000250978
4.72865e-05
8.31022e-05
-8.44298e-05
1.22428e-06
1.38547e-05
-5.5086e-05
-1.90461e-05
-2.90003e-05
4.2288e-05
-1.38589e-05
3.66846e-05
3.9209e-05
-7.91791e-05
-2.73974e-05
3.70202e-05
-0.000568653
0.000193927
0.000376995
0.000132507
7.21312e-05
-0.000109262
0.000495651
-0.000520819
2.40706e-05
0.000704353
-0.000161918
-0.000227082
0.000252049
-1.91323e-05
0.000150543
-0.00012189
-3.0026e-05
-3.88537e-05
-4.4371e-05
8.31577e-05
0.000313203
-6.43521e-05
-0.000246875
0.000131974
8.1047e-05
-0.000212456
1.59849e-05
0.000154483
1.5396e-05
5.27063e-05
0.000289952
0.000197405
-0.000531989
0.000216454
0.000317631
-7.16228e-05
0.000116841
-4.54062e-05
-7.3218e-05
-0.000217239
5.88949e-05
0.000144836
-0.000123042
-1.35734e-05
0.000146431
-0.000180576
0.000103568
-9.43515e-05
-9.10052e-06
-8.10316e-05
-3.07137e-05
0.000111148
7.97041e-05
1.70347e-07
-0.000172386
0.000199173
-2.6054e-05
8.59901e-05
0.000156263
0.000233442
-0.000390541
5.45013e-05
-5.8552e-05
2.26838e-05
9.80485e-05
-0.000324323
0.000328029
0.000262892
-0.000108074
1.54215e-05
0.000124762
-0.000142688
-0.000216399
0.0001773
3.96352e-05
-0.000288484
-9.17257e-05
0.000393233
6.21423e-05
0.000166753
-0.000228387
-0.000199651
-1.04064e-05
-0.000101129
0.000111289
-0.000187284
1.57054e-05
0.000148924
-0.000129805
-1.91674e-05
0.000415038
-0.000263879
-2.25375e-05
7.94017e-05
0.00011684
-0.000196231
0.000218603
-0.000472999
0.000266117
9.98539e-05
-0.000172889
7.51189e-05
-3.19993e-05
-0.000112621
0.000135752
6.79276e-05
6.43932e-05
5.23597e-05
0.00067076
-0.000182057
-0.000479784
-0.000176472
-0.000459705
-1.82866e-05
0.000269084
-0.000249954
0.000153235
0.000401436
-0.000550804
0.000513321
-0.000412087
-9.34979e-05
0.000176167
-5.88029e-05
-1.03568e-05
-4.82658e-05
-6.63727e-05
1.37955e-05
5.24787e-05
-0.000166409
2.47554e-05
-0.000106407
-0.000366823
-0.000351277
0.000718802
0.000393192
-1.68545e-05
-0.000136932
-6.33144e-05
0.000200386
3.37429e-06
2.66704e-05
-6.93043e-05
0.000207147
-0.00025329
4.45521e-05
5.1406e-05
-6.24475e-05
1.97982e-05
-0.000123961
0.000104429
2.62027e-05
-0.000139897
0.000732237
4.03215e-05
-0.000303317
0.00027119
3.35788e-05
-7.24246e-05
-0.00025529
0.000614154
-0.000138146
0.000146167
-7.25327e-06
-0.000421272
1.78689e-05
6.24909e-05
-1.66423e-05
-4.5818e-05
4.04572e-06
-4.94492e-05
5.56235e-06
-0.000109819
-0.000627258
0.000752772
-0.000123822
-0.000241139
0.000169819
-4.30125e-05
8.05555e-05
-3.7941e-05
-0.000119112
-0.000189578
0.000309413
0.000183237
-6.03849e-05
0.000629706
0.000145109
-0.000245974
0.000101943
3.46232e-05
0.000292066
-0.000309543
0.000145002
-7.47724e-05
-7.04843e-05
0.000685917
-0.000217162
-0.000467696
6.3442e-05
5.90928e-05
0.000345306
-0.000236722
-5.97494e-05
3.44526e-05
-4.33876e-05
9.28867e-06
4.18918e-05
-8.06332e-06
-3.39909e-05
0.000232171
-3.47387e-05
-0.000195824
-0.000255163
5.87083e-05
0.000213507
-0.000188456
9.00813e-05
9.83597e-05
-4.92625e-05
0.000114411
-6.52489e-05
-4.59678e-05
0.000217091
-0.000135159
0.00010386
0.000710155
-3.41495e-06
8.49754e-05
-9.08311e-05
5.7645e-06
-3.6489e-05
0.000355791
-2.16329e-05
5.24195e-05
5.42456e-05
-0.000638644
0.000590625
-0.000213666
0.000261248
-8.82928e-06
9.17361e-05
9.01868e-05
-0.00049047
0.000474338
3.43719e-05
-0.000145558
8.43597e-06
1.50715e-05
-2.35782e-05
0.000210737
-0.000133903
-7.67156e-05
2.51406e-05
-9.01147e-06
-0.000545432
0.000434898
4.36717e-05
-3.27328e-05
0.000654418
-0.000524649
7.59212e-05
-0.00034795
-0.000267304
-0.000508769
1.70461e-05
-3.2496e-05
-0.000267287
2.99394e-06
0.000264639
-2.0702e-05
-5.96671e-06
2.66104e-05
-5.30386e-05
6.13768e-05
-8.53617e-06
0.000172247
0.000304794
9.6847e-05
-2.71791e-06
-0.000152962
0.000133995
-0.000504421
-5.78788e-05
-9.38586e-05
-9.46083e-05
0.000163607
-1.12432e-05
5.96934e-05
-5.62278e-05
-6.06407e-05
0.000206714
-3.54776e-05
-0.00057491
0.000539443
-2.66115e-05
7.86953e-05
-0.000319017
0.000100436
-0.000103735
-8.58153e-05
0.000123724
2.57761e-05
0.0001992
2.00058e-05
-0.000218884
-5.35388e-05
1.23667e-05
-4.39207e-05
1.44424e-05
3.43429e-05
-3.07544e-05
-4.59827e-05
7.64268e-05
-0.000112693
-0.000625274
1.97579e-05
-0.000181034
0.000162518
-4.12096e-05
-9.46473e-05
-2.31456e-05
-5.38279e-05
7.69387e-05
-8.59888e-05
3.42483e-05
3.65556e-05
-9.97672e-05
6.3024e-05
3.87605e-05
-3.79571e-05
-0.000231586
3.91676e-05
9.46049e-05
-0.000166935
7.22853e-05
0.000140771
-4.60732e-05
-7.90368e-05
3.6571e-05
4.24349e-05
6.7716e-05
-7.10766e-05
-7.5514e-05
0.000146358
-0.000536628
4.9768e-05
-2.19104e-05
-0.000205105
4.10914e-05
-4.82188e-05
7.00106e-06
-0.00010938
-0.000325316
-2.30076e-05
-9.24192e-05
2.22483e-05
-2.43677e-05
2.09046e-06
-0.000269105
-0.000231472
0.000504571
-4.38905e-05
-0.000193464
-0.000631887
0.000156002
0.000320898
-0.000584896
3.91625e-05
1.64163e-05
-0.000586867
0.000127368
0.000469354
0.000168015
-0.000147142
-1.35624e-05
3.73571e-05
0.000526654
-0.000371271
-0.000149885
-0.000110096
7.56181e-05
0.000578846
-0.000109562
-0.000468161
-7.54638e-05
2.63712e-06
7.22913e-05
-3.10174e-05
3.00705e-09
3.09497e-05
0.000485049
-9.11354e-05
-6.48801e-05
0.000135812
0.000191253
-0.000324488
3.2099e-05
0.00020178
0.000162745
4.81497e-05
-0.000508882
0.000165255
-0.000158888
-6.10634e-06
-0.000135338
-1.55233e-05
2.39575e-05
1.80605e-06
-8.26711e-05
8.01901e-05
-9.4838e-05
5.92932e-05
3.54853e-05
-0.000168922
0.000169489
-2.8478e-05
2.39181e-05
4.54047e-06
-5.02392e-05
-1.35863e-05
6.3747e-05
-6.16293e-05
-3.32426e-05
-5.68363e-05
-1.70458e-06
6.22843e-05
0.000738375
-0.00053227
-0.000202947
0.000440572
0.000238198
0.000141761
1.06758e-05
-0.000153521
0.000152993
0.000147861
-0.000717693
0.000571039
9.55691e-06
0.000365026
-0.000455254
0.000524178
-0.000148849
-0.000374633
0.00042827
-0.000138369
-0.00045769
-7.63773e-05
-5.29754e-05
-0.000482304
0.000209099
-7.52347e-05
-0.00013705
0.000262342
0.000203952
-0.00046246
-1.30997e-05
0.000109364
0.000442161
-6.13172e-06
-5.13679e-05
3.65591e-05
1.47956e-05
0.000151062
-6.48796e-05
-8.65068e-05
0.000117557
-0.00013503
1.82092e-05
0.000255493
-0.000303311
4.95433e-05
2.28712e-05
-6.67577e-07
0.000258606
-0.000125168
9.18774e-05
0.000193207
-0.000255922
0.00010918
-0.000426817
0.000320088
0.000540128
0.000146664
-0.000461179
1.67007e-05
0.000451234
0.000240035
0.000141371
-0.000379824
0.000630945
-3.79943e-05
-0.000521197
-5.4959e-05
-0.000246949
-0.000176563
0.000660377
2.35449e-05
-1.61594e-05
-0.00019943
0.000153731
-0.000341152
5.56777e-06
-5.09267e-05
4.5334e-05
3.39822e-05
-2.87676e-05
-5.33141e-06
-1.23238e-06
3.02909e-05
-2.90245e-05
-8.61932e-05
-8.79749e-06
0.000315304
4.72367e-05
-0.000350349
5.61557e-05
3.93181e-05
-3.34089e-05
-5.66344e-06
-1.64836e-05
0.000387105
-0.000643357
0.00046885
-0.00011303
-1.20353e-05
-0.000349416
-0.000216152
0.000566437
-0.00026284
-1.19657e-05
-1.86555e-05
-5.94292e-05
0.000158523
0.000118152
0.000180131
-0.000297434
0.000298257
-0.000358388
6.20891e-05
6.62547e-05
1.93769e-05
-3.12977e-05
-0.00013002
0.000346106
-0.000207667
-0.000427046
0.000353497