/*--------------------------------*- C++ -*----------------------------------*\
| =========                 |                                                 |
| \\      /  F ield         | OpenFOAM: The Open Source CFD Toolbox           |
|  \\    /   O peration     | Version:  v2012                                 |
|   \\  /    A nd           | Website:  www.openfoam.com                      |
|    \\/     M anipulation  |                                                 |
\*---------------------------------------------------------------------------*/
FoamFile
{
    version     2.0;
    format      ascii;
    class       surfaceScalarField;
    location    "900";
    object      meshPhiCN_0;
}
// * * * * * * * * * * * * * * * * * * * * * * * * * * * * * * * * * * * * * //

dimensions      [0 3 -1 0 0 0 0];
oriented        oriented;


internalField   nonuniform List<scalar> 
20537
(
0.00463235
-0.000309225
-0.00436405
-0.00588106
0.00450263
0.00137475
0.000942169
0.00204788
-0.00300124
0.00703634
-0.0035267
-0.00354744
-0.00139742
-0.00144382
0.00282636
-0.00408038
-0.00100621
0.00506976
0.00220839
-0.00233072
6.38571e-05
-0.00211298
0.00352941
-0.00143597
0.00227152
-0.00269394
0.000347673
-0.00408927
0.00153875
0.00253993
0.000491958
-0.00153016
0.00103603
0.00277232
0.000307226
-0.00308068
-0.00165915
0.00180665
-0.000152613
-0.000835349
-0.00114568
0.00198007
-1.92926e-05
0.000729671
-0.000864066
0.00180367
0.00202399
-0.003852
-0.0043248
0.000793739
0.00349101
0.000106455
0.00370155
-0.00383196
-0.000900474
-0.00130153
0.00219604
0.00260749
-0.00041418
0.00282429
0.00415373
0.00357213
-0.00264312
0.000113566
-3.24589e-05
-0.000114324
-0.000158084
0.000226724
-0.000190347
2.3149e-05
5.66783e-05
0.00133695
-0.00347049
-0.00264605
0.00257425
4.13764e-05
0.000728747
0.000455105
0.00565801
-0.00106808
0.00507965
-0.000321667
-0.00479784
0.000911293
-0.0050067
-0.00278975
-0.00157429
0.00369951
-0.00166438
0.0015717
0.00136434
-0.00293796
0.000210348
-0.000497136
0.000641121
0.000519823
-0.00115531
-0.00128126
0.000422895
0.000856717
-0.00172449
-0.000991406
0.00271143
-0.00321717
-0.000880895
0.00393198
-0.00236226
0.00499969
-0.00316321
-0.00191167
-0.00022903
-4.82215e-05
0.000263561
-0.000956258
0.000230882
0.000726389
-0.00113548
-0.000318366
0.00145386
0.00027017
-0.00140513
-0.0016116
0.0010135
0.000600783
-0.000324188
0.00141726
-0.00109075
0.00471261
-0.00105392
-0.00366658
-0.00252462
-0.000149778
-0.00377215
0.00302755
0.000728934
0.000922065
-0.00226351
0.0013267
-0.00144303
0.00235425
-0.000922156
-0.000347882
0.000951789
-0.000598252
7.51815e-05
0.000364433
-0.000594479
5.42778e-05
0.00053769
-0.000809495
4.23408e-05
-0.000283163
3.59792e-05
-0.000360459
0.000254734
0.000559398
0.000688021
-0.00124342
0.00463142
0.000402731
-0.00289834
0.00285164
-6.59877e-06
-0.00273545
0.00100633
0.00138102
0.000530008
-0.0019096
-0.00153922
-0.0035631
0.00508447
0.00134995
0.00106697
-0.00242776
-0.00460006
0.000647754
0.00394226
-0.000969452
0.00478485
-0.0038448
-0.000890065
-0.0003939
-0.000159646
0.00143425
-0.000912508
-0.00182421
0.00271213
0.00395578
-0.00387588
0.000540336
0.000129082
-0.000672237
-0.00064429
-0.000314842
0.000964006
-0.0037579
-0.00212483
-0.000592893
0.000496607
0.00116159
-7.27498e-05
-0.00128564
-0.000662929
-0.00190373
0.00251763
0.00114835
0.00241322
-0.000651787
0.00113905
-0.000486935
0.00295217
-0.00135623
-0.00161477
-2.11907e-05
-0.000634535
-0.00317693
0.000357402
0.00276605
-9.12778e-05
0.000126609
-3.34312e-05
0.00287124
-0.00337268
0.00039409
-0.000996371
0.00160632
-0.000606491
0.00322898
-0.00478546
-0.000366839
0.003138
0.0010346
-0.00490088
0.00384623
-0.00379618
0.00273903
0.00105335
0.00334069
-0.000346391
-0.00303403
-0.00212979
0.00175515
0.000341477
0.00134478
-0.000704842
0.00621676
-0.00331651
-0.00292422
0.00103641
0.00344239
-0.00222248
-0.00124761
0.00431026
-0.0010124
0.000158936
5.85789e-05
-0.000288856
-0.00257247
0.00116083
0.00173459
-0.00156265
-0.000171807
-0.00280309
-0.000982873
0.000156954
-8.21335e-05
0.00148781
-0.00160313
0.0001141
-0.00199891
-0.000625955
0.00260594
0.0052014
-0.00183381
-0.00341548
0.000835165
-0.00185618
1.89858e-05
-2.72707e-05
1.98828e-06
-0.00103569
-0.00369659
0.00471359
0.00164987
0.000628063
-0.00229348
-0.000128459
-1.86614e-05
0.000138589
0.000336834
-0.000891803
-0.00495725
0.00393486
-0.000123098
0.000145355
-0.000107753
-0.00169921
-0.00046466
0.00316931
0.00302303
-3.9814e-05
-7.73235e-05
-0.000348197
0.000135013
-0.00238309
0.00465451
0.00123815
0.000496525
0.000202867
-0.000134168
-7.96851e-05
-0.000233069
-0.000236801
0.000304425
-0.000683283
7.53618e-05
0.00041796
-0.00102679
7.0992e-05
-0.00155753
0.00237494
0.00032286
-0.00198594
0.00472982
0.00114014
0.00356274
-0.000123931
0.000964729
-0.000854873
0.00479142
-0.00366086
0.00185732
0.000382233
-0.00225543
0.00616825
-0.00339141
-0.0013073
0.00233015
-0.00103004
0.0016792
0.003233
0.000464475
-0.00220246
0.00162167
-0.00015329
0.0006924
-8.36314e-05
0.00284223
0.00233149
-0.000416766
-0.00048146
0.000763782
7.47511e-05
0.000114003
-0.000314862
-0.00074493
0.00105562
0.00251442
-0.00152433
-0.000989652
0.00137547
-0.00265458
0.00127714
0.000183077
0.00130414
-0.000726746
0.000542257
0.00390548
-0.00139924
-0.00254399
5.52908e-06
0.000504145
-0.000523374
0.0012655
-0.00357739
0.00227339
-0.00144199
0.00112364
-0.000103467
1.73497e-06
9.94303e-05
-0.00261549
0.00129885
0.00226353
-0.000118526
0.00134047
-0.00106974
0.00167406
-0.00108155
0.000580949
-3.2304e-05
-0.000751441
0.000942289
-0.00177844
0.000240598
-0.000265851
-0.000688401
-0.001994
0.00264817
-0.00277776
0.00400035
-0.000259402
0.00342826
-0.00324532
-0.00403794
0.00434179
-0.000343884
-0.00179128
0.000337784
0.00229583
-0.00139053
-6.63912e-05
6.96498e-05
-3.50783e-06
0.00278799
-0.0019117
-0.000898319
-0.000513397
0.00107692
0.00180391
-0.00144478
-0.0044186
-0.000807749
0.00518919
2.69305e-05
-0.000493304
0.000450674
-1.49428e-05
-9.07058e-05
-0.00258553
0.00165071
0.00374506
0.00237571
0.000810651
-0.00152641
0.000718342
-0.000891136
0.000239674
0.0011191
-0.000146063
-0.00103797
-0.00349363
0.00315978
0.00270178
-0.00132752
0.000346268
0.00134856
-0.00462687
0.0035647
-0.00119941
0.00303743
0.00173608
0.00136285
-0.0031296
-0.00229556
0.00138962
0.00013162
2.38939e-05
-0.000161525
-0.000921413
0.00377827
-0.00288967
-0.000966056
-0.00279362
0.00234518
0.000348188
-0.00267113
1.8874e-05
-2.11678e-05
1.98049e-05
-1.98868e-07
0.000149007
-1.22648e-05
-0.00018609
-0.00476159
0.0037631
-0.000846962
-3.34002e-05
0.00158771
0.000981862
-0.0025809
0.0026664
-0.00402149
0.00134344
0.00111235
-0.000996233
0.000638609
0.00196046
-0.000216032
-0.00177046
-0.00193612
-0.000693888
0.00260786
-0.00106868
0.00245184
-0.000758066
-0.0023826
0.00310344
0.000943566
0.00292404
-0.0034881
0.000917031
0.00256833
-0.002073
0.00377191
0.00194186
-0.00265405
-0.00101135
0.00087294
-0.00190996
0.000827987
0.0010844
0.000125773
-0.000370414
6.42715e-05
-0.000970211
0.00318106
-0.00231625
-0.00381794
0.00150484
0.00230271
-0.000158017
-0.00273591
0.00292661
-0.00189755
-0.00102894
-0.00414197
0.00330534
0.000797664
0.000422782
-0.00103691
0.000613923
0.000106366
-8.49941e-05
-2.40622e-05
0.00126485
-0.000772431
-0.000495341
0.00413265
0.00101458
-0.00102717
0.00361697
-0.00258808
-8.89326e-05
-1.82968e-05
0.00010164
-8.19109e-05
-0.000436625
0.000503956
0.000334197
-0.00130184
0.000963263
-0.00546873
0.00156075
0.00388601
-0.000654752
-0.000954191
-0.00158022
0.00119727
0.000263155
-0.00056871
0.00099132
-0.00156059
-0.00261315
-0.00325771
3.26483e-05
0.00148605
-0.00101341
-0.000476131
0.00238381
-0.00114552
-0.00124822
0.00109784
-0.000794491
-0.000306174
-6.63608e-05
-6.22025e-05
8.14227e-05
0.0034474
-0.00189498
-0.00158017
-3.52366e-06
1.44107e-05
-0.000720131
0.00100223
-0.000283737
-1.53229e-06
-9.011e-05
-0.00239218
0.00370769
0.00117709
0.0029804
-0.00416536
0.000975094
8.06091e-05
0.000234624
-0.000452807
-0.00164764
0.00208632
-0.0048467
0.00399324
0.000836785
0.00217403
0.000752016
-0.00393183
-0.000674775
0.000518935
-0.000528537
0.00184532
-0.00290865
0.00495693
-0.00406036
-0.00349851
0.000402108
0.00309107
-6.40725e-05
8.95376e-05
-2.46932e-05
-0.00143626
-0.00239054
-3.04319e-05
-4.27029e-06
0.000494951
-0.000914597
0.000417731
0.00025188
-0.00226705
0.000836234
0.00250619
-0.00334103
-0.000815449
-0.00306579
0.00384077
-0.00368501
0.00363925
9.29668e-06
-0.00133722
-0.00255734
0.00386932
-0.000690316
-0.00280846
0.00359387
-0.0033331
-0.000305129
-0.00362986
0.0028176
-0.00133325
-0.00150245
0.000682494
-0.00469826
0.00400426
-0.00182692
0.00448236
-0.000964408
0.000218439
0.00122724
-0.000353613
-0.000876317
-0.00181528
0.00172248
5.69192e-06
0.000423205
-0.000157647
-0.0043736
0.00450395
-0.00331822
0.0050484
-0.0017362
-0.000353158
0.00110288
-0.0007689
0.00109006
0.00101013
-0.00210281
-0.00275754
0.00196652
0.000568285
0.00297864
0.000555336
0.00286075
0.000475466
0.00100706
-0.00169786
0.00181304
-0.000126684
-0.00387057
0.00250779
-0.00310907
-0.00269098
0.00495543
-0.00227373
0.00114041
0.00179208
-0.00252498
0.00430305
-0.000733156
-0.00158029
5.33987e-06
-9.50804e-05
0.000262479
-0.00109801
0.000829558
0.000934279
-0.000736023
-0.000203077
0.00122331
-0.000733266
-6.45146e-05
3.10233e-06
7.28483e-05
-3.06762e-05
-4.6221e-05
1.61704e-05
-1.17236e-08
-2.06901e-05
0.00151975
0.00128013
-0.0047986
0.00147467
0.000917029
0.00394311
-0.00486621
0.00318991
-0.00201764
-0.00124005
0.00109262
-0.000149946
-0.00103303
-0.00491208
0.00221155
2.03047e-05
-4.10375e-05
2.46387e-05
-0.00159871
-0.00102437
0.0043876
0.000205618
-0.00227616
-0.000671101
0.00191138
0.000693425
-0.00262667
-5.24844e-05
7.51404e-05
0.00226854
-0.0011818
-0.00467809
0.00385056
0.000804719
-0.00351937
0.00315121
-0.00159314
-0.000561006
0.0020576
-0.000469819
0.000962978
0.00218058
0.000584325
0.00396958
-0.00321357
0.00100003
-0.000569265
-0.000430662
0.00536003
-0.00209999
-0.00331616
0.00378584
-0.0048407
-0.00018838
-0.00120864
0.00139374
0.00104026
0.00207287
0.00262313
-0.00128417
-0.00135998
0.00123303
-0.00348749
0.00420405
0.000145745
0.00156207
0.000951669
-0.00267276
-0.00202464
0.00167469
0.00156627
-0.00328505
0.000948193
0.000472867
-0.00142358
7.88303e-05
-0.000360412
0.000266876
-0.00403786
0.000324836
2.19133e-05
-0.00108626
0.00105179
0.000568522
0.000358526
0.00035306
-0.00135642
0.00100366
-0.000324179
-0.00136813
0.00130058
-0.00239238
0.00107537
0.00186497
-0.000799414
-0.00117623
0.000134052
0.00109267
0.00493101
-0.00331543
-0.00164156
0.000106941
4.95703e-06
-0.000151667
-0.000386797
-0.00276282
0.00309613
-0.00116658
0.00151783
0.00122433
0.00219419
0.00213799
-0.00304502
0.000874807
0.000882428
0.00158589
0.00371263
-0.00224121
0.00386665
-0.00119755
-0.000333979
0.00100202
0.00092209
-0.00079619
0.00176189
-0.000962786
0.00505383
-0.00151223
-0.00356543
0.000413115
0.00058038
0.00243369
-0.000942997
-0.00149097
-0.000748859
-0.00262715
0.000670539
0.000766923
-0.00237204
-0.000901759
-0.00291499
0.00379696
-0.00521252
0.00197143
0.00322604
-0.00192427
0.000427454
0.00148686
0.000962767
-0.00425187
0.00036103
0.00386119
-0.00362798
0.00483105
-0.00120623
0.00117989
-0.000560666
-0.000620871
0.000630797
-4.94112e-05
-0.000853388
0.00133349
-0.000487109
-0.00145239
0.000591276
-0.00170548
0.00279679
-0.00109335
0.0031596
-0.00105465
-0.00288058
-0.00234188
-0.00097221
0.000248576
-0.000286516
-0.00327864
-0.00475037
0.001119
0.00260776
-0.00304894
0.000618125
0.00113257
-4.09243e-05
4.47749e-06
-0.000161448
2.58021e-05
-0.00332059
0.000656238
0.00257702
0.00058442
0.000593465
9.08048e-05
-0.00233311
0.00224142
-0.00328337
-0.000115281
0.003324
0.000861895
0.00174248
-9.89139e-06
-0.000358371
0.000354524
-0.00044427
-0.00307612
-0.000133046
-0.00368983
0.00380299
0.00508038
-0.000264241
-0.000929906
0.00174319
-0.0034358
8.09687e-05
-0.00134673
-0.00413112
-0.00360578
0.00272571
0.000851305
0.00398546
0.00108856
0.0047793
-0.00158766
-0.00328304
-0.00016245
1.70617e-05
-0.00529307
0.00378225
0.0014867
0.000309048
-0.00119048
0.000881395
9.50488e-05
0.00279882
-0.00123581
-0.00424136
-0.000401974
-0.00153221
-0.000467436
-0.00105596
0.000792666
-0.00139989
0.000602327
0.0014495
-0.000661694
0.0047029
-0.00256186
-0.00216451
0.000528455
-0.00183822
0.00121327
-0.000374197
-7.4822e-05
0.00030652
0.00126212
0.00376652
0.00220683
-0.000919276
0.000893605
-0.0020357
0.0012241
0.0011029
-0.0023491
0.000698932
0.000396234
-0.000928428
0.00135574
-0.000429639
-0.000299533
0.00027938
-0.00195736
7.19523e-05
-0.0017232
0.000632743
5.76222e-05
-0.000695663
0.0040209
-0.00285184
-0.000591975
0.00182886
-0.00161634
-0.00369966
-0.00121167
-0.00242315
-0.00017896
-1.87406e-05
0.000132182
0.00143585
0.000997205
0.00134386
0.000297737
-0.00170331
0.00362563
-0.0016206
0.00146289
0.003213
-0.000133686
-0.00229743
0.002376
1.17966e-05
0.00291944
-0.00194955
0.000337829
-0.000322544
-0.000870214
0.0022098
-0.00398895
0.00481765
-0.00084395
-0.00110286
0.00129695
-0.00019408
-0.00392831
0.00527816
-0.00137805
-0.000758136
0.00383001
-0.00490336
0.00105303
-0.00315685
0.00246681
-0.000754836
0.00403952
-0.00331884
0.00110944
-0.002818
0.000791213
0.00314314
0.00119694
-0.000867069
0.00017863
-0.000117502
0.000835637
0.00201053
0.00010748
-8.86294e-06
0.0010903
0.0015362
-0.00263029
0.00313033
-0.000845314
-0.00228235
-0.00159099
-0.00107333
0.00265292
0.00484963
-0.00103914
-0.000969053
-0.00216964
0.0035325
0.0048008
0.000439236
-0.00177242
0.00130876
0.00148998
0.00319615
-0.000175922
-0.00298693
4.0194e-06
3.17592e-05
-4.84343e-05
-0.00115235
0.00312291
-0.00197297
-0.00328851
0.000310346
0.00297494
-0.00350685
0.00162009
0.00187462
-0.000475854
0.00100552
-0.000529794
0.00147051
-0.00358054
-0.000222899
0.000968138
-0.000750657
-0.000442668
-0.00284566
0.00136826
0.000355886
-2.31558e-05
-1.01119e-06
0.00215967
0.00101788
-0.00320218
-0.00257111
-2.48998e-05
-0.00168141
0.00120328
0.000134713
-0.00140181
-0.000773063
0.00364904
-0.00292522
0.000564807
0.00233542
7.18372e-06
0.00531441
-0.00185235
-0.00348565
0.00121763
0.00189695
-0.00311475
7.39383e-05
-0.00018896
0.000826671
-0.0036402
0.000618201
0.000548398
-0.0011651
-0.00479196
0.000344402
4.83285e-05
2.30348e-05
-0.00185313
-0.00194502
-0.00115813
0.00159398
-0.00387128
-0.00189041
0.00143914
0.000377222
0.00482091
-0.00441311
-0.000428439
-0.00426781
0.0037408
0.000487167
7.18127e-05
-0.0020404
0.00347454
0.00184762
-0.000902737
-0.00233357
-0.00113068
0.000885825
0.00157099
-0.00247729
-0.00108591
0.000537536
-0.00492956
0.000626985
0.00428242
-0.000239348
0.00109772
-0.000862583
-8.65891e-05
-3.13147e-05
0.000520841
-0.00385752
0.0032697
7.22622e-05
-0.000222258
3.60219e-05
-0.00493396
0.00123129
0.00369308
-0.00362405
0.00352126
4.9059e-05
-0.00389905
-0.00102023
0.00262338
-0.000377127
-0.000223608
-1.74072e-05
0.00188074
-0.00107708
-0.000804443
-0.000903404
0.000427429
0.00271887
-0.00252713
-0.000275515
-0.000105099
-0.00484745
0.00298904
-0.00377593
0.00334082
-0.00294348
0.00052273
-0.00151636
-0.0021788
0.00296245
0.00203801
-0.00194813
-0.00473666
0.0030622
-0.00100342
0.00263243
-0.00164115
0.00236816
-0.00270003
0.00027984
-0.000453373
0.00104342
-0.000589616
-0.000144074
4.40626e-05
8.73624e-05
0.000951542
8.48324e-07
-0.00194751
-0.0021033
0.0040412
-0.000295588
0.000233972
-0.00488965
0.00476146
-0.000678379
0.00166259
-0.000982525
0.00082964
-0.00323816
0.00139588
0.000347179
-0.00174131
0.000239634
-0.00063086
-0.00324828
-0.00130557
0.00454905
-0.000152582
0.000462038
-0.00156954
0.000322491
0.00114702
-0.000526171
0.00220439
-0.00177853
4.63196e-05
-0.00213717
0.00204139
0.000162826
0.000469845
-0.000838396
-0.00146574
0.00228868
0.000526481
-0.0017323
0.0011968
0.000551535
0.00107878
-0.00163614
0.00477038
-6.34903e-05
-3.50243e-06
-0.00134183
0.00208984
-0.000748663
0.00082159
0.00230898
-0.00349755
0.00254687
-0.0026615
0.000724312
0.00119536
0.00213813
0.00349762
0.00122898
0.000693688
0.000568332
-0.000296963
0.000361033
-0.000241828
0.000686808
-0.00113844
0.00153928
-0.00121542
-0.000692595
-0.00350382
-0.003649
-0.00125834
0.000892122
0.00364861
0.000793077
-0.00102146
-0.00448337
0.00515286
-0.00273648
-0.000750698
-0.00117038
0.00284701
-0.00167881
0.000357132
-0.00443324
0.00181172
-0.00298377
-0.00118082
0.00147206
-0.000296428
-5.53297e-05
-0.000101904
0.0010497
0.0014431
-0.000956443
0.000510679
0.000445466
0.000653224
-0.00375548
-0.00275793
0.00264973
-1.44581e-05
0.002713
0.000634389
-0.00322623
0.00333978
-0.000187022
0.00251962
-0.000944074
-0.00398157
0.00481894
-0.000855238
0.0046059
-0.00187042
-0.00188735
0.00310481
0.000670295
3.67396e-05
-0.000813104
0.00122094
-0.00060125
-0.00115192
0.000694156
0.000457046
0.000964569
0.00376934
-0.00474853
0.00333338
-0.00251074
-0.00172226
-2.59302e-05
-1.37513e-05
3.88454e-05
-0.00192988
-8.92018e-05
0.000123198
-3.12537e-05
0.000628714
-0.00197152
0.000988477
-0.00300614
0.000796833
0.00082159
-0.00162067
0.0014238
-0.000281475
-0.00114612
0.000239287
-0.000208412
0.00401631
0.000772922
-0.00480664
-0.00472702
0.00112779
0.00359475
0.00120142
0.00159148
-0.000609717
-0.00156606
0.0021623
0.000599673
-0.000439414
0.00124657
-0.000862492
-0.000387992
-0.00314109
-0.00234874
0.0021623
0.00216108
0.00185263
-0.00401459
-0.00111927
-0.000587233
0.00160234
-0.00102104
0.00226621
-0.00105998
0.00135408
-0.00493282
-3.83129e-05
-0.00302294
0.00293928
-3.58769e-05
0.0016919
2.93666e-05
0.000198966
-0.00318038
0.00379562
0.000124176
-0.000106131
-0.00163501
0.00128981
0.000215606
-0.000135982
-0.00104857
-0.00151823
0.00316844
0.00165711
0.000186114
-0.000166688
0.00142846
0.00137072
-0.00236236
0.00327641
0.000553555
-0.0020445
0.00139797
0.000262733
1.9324e-05
-0.000334319
-0.00105132
0.000679824
9.61534e-05
-0.000926191
0.00123423
-0.00238281
0.00322052
-0.00340897
-0.00174153
0.000528186
0.00133577
-0.00458885
-0.00251991
0.00160198
0.00089759
-0.000474715
-0.000481483
-0.000281389
-0.000755808
-0.00363261
-0.000643345
-0.00273217
0.000885452
-3.1353e-05
5.28735e-06
-0.00100188
-0.00189141
0.00403254
-0.00216341
-0.00182681
0.00109763
0.000726475
0.00352706
0.00129879
0.0017382
-0.000944344
0.0017727
-0.0030841
0.00128616
0.00245939
-0.000796628
-0.00174022
-0.00116734
-0.00289794
0.00404171
0.00343307
-0.000901056
-0.00256239
0.00169847
-0.000300695
0.000894089
0.00135246
-0.00225943
0.00227779
0.000240531
0.00361391
-0.00515006
0.00133065
-0.000194265
-0.00331256
0.00101044
0.002277
0.000627266
-0.0022263
0.000312215
0.00248207
0.00428861
-0.00288542
-0.00348459
0.00333419
0.00344122
-0.00061947
-0.00287157
0.00106377
-0.00167245
0.00275841
0.00183269
0.000542985
-0.000973229
0.00412945
-0.00317898
-0.00148047
0.000888825
0.000747946
0.0016343
0.00492118
-0.00173027
-0.00320354
0.00235133
-0.00152061
-0.000219164
0.00484989
-0.00077839
-1.80409e-05
0.000202056
-0.000271955
0.000896167
-0.000561772
0.00420556
-0.000387334
-0.00385434
-0.00107144
0.00060699
0.000640745
0.000446931
-0.00108898
0.00157571
-0.000944621
-0.00062899
-0.00399902
0.00214331
0.00151612
-0.000231828
0.000573534
-5.44306e-05
-9.75311e-06
-0.00198584
0.000270715
0.00159198
0.000104892
-7.24086e-05
-0.00165082
-0.000111896
-1.32737e-06
2.38751e-05
-2.18594e-05
-0.00517149
0.00121827
0.0038321
0.00096711
2.17774e-05
0.000155454
-0.00159901
0.00281602
-0.00121747
-0.00378353
-0.00234865
0.000748396
0.00298432
-0.000568734
-0.00249508
6.18256e-05
-2.21623e-05
-4.732e-05
-8.21994e-05
0.000118055
-6.22973e-05
0.00299665
-0.00223852
0.00225658
-0.00111324
-0.00114163
0.00175924
0.000181206
-0.00194952
-0.00278228
-6.09556e-05
6.2477e-06
0.000142213
-0.000216673
-0.000596249
0.000471488
1.71901e-05
0.00381043
-0.00114235
-0.0027181
0.00120538
0.000583519
-0.00179518
-0.00160087
-0.0012204
0.00282118
0.00265732
0.000733387
0.000160765
-0.000148247
-0.00193153
0.00193068
-0.00016821
0.00390258
-0.00209751
-0.00122559
0.00331929
0.00045245
-0.00102865
0.000572088
-0.00371355
0.00104247
0.000721483
-0.00176241
0.00334123
-0.00465194
0.00111017
0.00308853
-0.00133907
0.00185426
0.000177227
-0.000844431
-0.00250378
0.00280969
0.00311875
-0.00281623
0.00377411
-0.000400292
0.00214529
0.00087664
0.000881435
0.00246772
0.0049148
-3.58044e-05
2.69398e-05
0.0016339
-0.00188287
0.000465438
0.000539812
0.00270613
-0.000558799
-0.00219393
0.000259797
-0.00401809
0.00372444
-0.00363731
0.00497559
-0.000339041
-0.00132834
0.000956204
-0.00504526
0.000122205
-0.00119443
0.00235693
-0.0011615
0.00238699
-0.00150722
-0.00124792
0.00225481
-0.00130312
-0.000101002
0.000100834
0.000548916
0.0023529
0.000994601
0.000885546
0.000292837
0.001127
-0.000883745
-0.00397917
0.00107053
-0.000430598
0.00204335
-0.000496931
-0.00160343
-0.000237149
8.26367e-05
3.60202e-05
0.000109799
-0.0033062
0.00463785
0.000585452
-0.00131795
0.000729101
0.000381341
-0.00411021
0.00369975
-0.00101626
0.00442825
-0.00345885
-0.0010892
0.000845413
0.00325395
-0.00297323
-0.000319397
4.86117e-05
-0.000152858
-0.000692081
0.0013583
-0.000663697
-0.00483404
0.000128694
-0.000775243
-0.000323765
0.00109672
-0.000230322
0.00332834
-0.00072381
0.000939199
-0.000613797
-0.000325357
0.000970623
-5.5519e-05
-0.000908657
0.00149038
-0.000145298
0.00243508
0.000965372
0.000377683
0.000697699
-0.00107855
-0.00293009
0.000253426
0.000939751
-0.00326917
0.00135756
0.00190448
-0.00186285
-0.00165549
-0.00400929
0.000797579
0.00317915
0.000922966
-0.00122799
0.00315842
-0.00194914
-0.000515631
-0.00245533
0.00294424
0.00126107
-0.000843356
-0.000321029
0.0002165
-6.37752e-05
-0.000357144
-0.00395061
0.00216488
-0.00148847
-0.00123206
0.000542005
-0.00148128
0.00384333
-0.00238262
0.00171216
-0.00147245
0.00462154
-0.000837908
-0.000265382
0.00173359
-6.80107e-06
0.00018349
-0.000573128
0.00024362
-0.00381541
6.39455e-05
3.00775e-05
-0.00374105
0.0028273
0.000827509
-4.72154e-05
0.000683806
-0.000808059
-0.00100505
-0.000205944
-0.000691311
-0.000183288
0.000241332
-6.99271e-05
-0.00470581
0.000920772
0.00377423
-0.00011593
-0.00228691
0.000358703
0.000580327
-2.75504e-05
3.19002e-05
-2.14635e-05
0.000928397
0.00266106
-0.00362241
0.00145932
-0.00157551
0.000109008
-0.0033077
0.00120641
-0.00235931
0.000202976
0.00215437
0.000647639
-0.000629029
-0.000128039
0.0053196
-0.000376048
0.00210467
-0.00106122
-0.00310394
0.000863464
-0.00146564
0.000599018
-0.000399229
0.00201406
-0.000502887
-0.00145676
-0.00128354
-0.00150229
0.0027715
0.000789759
-0.000558439
0.00417728
0.00112549
0.00381821
-0.000437008
-0.00341297
-3.07566e-05
0.000134217
0.00289037
-0.00132669
0.00334443
-0.00202723
-0.00372367
-9.22675e-05
0.00380428
0.00398556
-0.00016425
0.00142933
-0.00272724
0.000205661
-0.000653297
-0.00255808
0.00345456
-0.00163996
0.00141204
-0.000887715
-0.00223808
0.00312488
0.0025898
-0.0016199
-0.00127636
0.00276075
0.000507434
0.00157464
-0.00181603
0.000387097
0.00141966
0.00087944
0.00443705
-0.00408881
0.000585371
-0.00229751
0.00171239
0.0017381
-0.00119284
0.00248494
-0.00266288
-0.000906238
0.00156018
-0.000650523
0.00115318
0.00375534
-0.000797509
-0.0012426
0.00204166
-0.00245245
0.00125591
0.00161153
-0.000842109
-0.000772599
0.000269178
-0.00195726
0.00168349
-0.00188842
0.00392313
-0.0020543
0.00158697
-0.00364258
0.00488011
0.00136858
-0.000675401
0.000702544
-0.000831148
0.00355877
-0.00278391
-0.00010002
-7.03911e-05
0.000109399
-0.00241389
0.000750924
-9.64772e-05
-3.33847e-06
0.000100834
0.000252097
4.6166e-05
-0.000310005
0.000562158
0.000442924
-0.00102426
0.00160758
0.000379068
-0.00346025
-8.2245e-05
0.00345893
-0.000681764
-0.000818453
0.00107939
-0.000261067
-0.00134685
3.88239e-05
-0.00056099
-0.001525
-0.00073297
0.00124285
0.000224805
0.000719688
-0.000232626
0.00143238
0.000593601
0.00100442
-0.00446633
0.00373634
0.000697005
0.00098159
0.000782766
0.00266741
-0.00146949
0.0011958
0.00106209
0.00237239
-0.00176129
-0.00161474
0.00245595
-0.00305323
0.00258384
-0.00026899
-0.00427052
0.000513408
-0.00177505
0.000437538
0.00132185
0.00038972
-0.000332387
0.00242908
-0.00406688
0.00272737
-0.000740207
0.001285
-0.00194429
0.00114847
-0.000703676
-0.000448873
-0.00257434
0.00259056
-8.84211e-05
0.000765557
-0.00244004
0.00165275
-0.00141056
0.00187117
-0.00389185
-0.0036106
0.00383701
0.00017433
0.00186918
-0.0020439
-0.000150211
-6.72057e-05
-0.00049625
0.000867399
-0.000375924
-2.56425e-05
0.00026607
-0.000424982
0.00187574
0.00273199
1.12123e-05
-0.00282769
0.00235676
-0.00313632
0.000773088
-0.000272519
-0.00176479
0.00250658
-0.000840183
0.00246623
-0.000510896
-0.00196866
-0.00353016
-0.00089972
-0.000153959
-0.00016757
-0.00220655
-0.00371597
0.00126495
-0.00463113
0.00335373
-0.000683473
0.00410075
-0.00345645
-0.000822593
3.89251e-06
0.000907064
0.000175832
0.000148245
0.00188878
-0.00103509
0.00391228
-0.00293454
8.54683e-05
-0.000860268
-0.000722571
0.00102604
-0.000667621
-0.00172755
0.00199199
0.00507945
-0.00267701
-0.00441794
0.00131351
0.00304307
-0.00109531
0.000318085
-0.000417739
6.56354e-05
0.00433472
0.000317654
-0.00094696
0.000591597
0.000355039
-0.00248323
-0.00066158
0.00306096
0.00265181
-0.00220902
-0.000469316
-0.00120321
0.00104752
-0.0034131
0.00118536
-0.00250273
0.00131701
0.0028492
0.000596255
-0.00350501
-0.00036011
-5.92691e-05
0.00418194
-0.00235779
-0.0018233
-0.00103609
0.000467154
0.000766067
-0.00234405
0.000483861
0.00330409
0.000647599
-0.00423393
0.00355199
0.00201668
-0.00186939
-0.000543078
-0.000766123
0.00131104
-0.00192375
9.63418e-05
5.64451e-05
-0.000252483
-0.00346763
0.00156082
-0.000364145
-0.0013243
0.00158501
-0.000201388
-0.000293254
-0.0014694
9.31798e-06
0.000119042
-3.37364e-05
0.00118845
0.00176109
-0.00295224
-0.00312542
0.0029437
-0.000154704
-0.00338329
-0.00347367
-0.00186437
0.00394497
-0.00011607
-0.000765363
0.000881119
0.000837111
-0.00151348
0.00353287
-0.00140191
0.0019524
-0.00136751
0.00280311
-0.000157198
-0.00229728
0.0032891
0.00385672
-0.00260127
0.00130911
-0.00177707
-0.00448012
0.000776456
0.00363527
-0.00368353
0.00344621
-0.000487499
0.000897693
-0.000410023
-0.002435
-0.000168097
-0.00238865
0.0019744
5.29718e-05
-0.00269811
0.00357041
-2.8182e-05
-0.000968024
0.00032387
0.000650697
-0.00052929
0.000167284
0.00395859
-0.00179782
-0.00307537
-0.000658592
-0.0015006
0.000336969
0.00115716
0.00143941
-0.00293882
0.00117061
-0.00332581
0.00213453
-0.000569239
-0.001944
0.00292613
-0.000738453
0.00471494
-0.00233051
-0.00490068
0.000832629
0.00406179
0.000498586
0.000558467
-0.00105752
-0.00246875
-0.00085431
0.00330637
0.000142194
0.000678829
0.00411759
0.00067703
0.00177125
0.00172987
-0.00111122
0.000426115
0.000129849
-0.00213947
0.00247469
-0.000334848
-0.00233691
0.00280326
-0.00313066
0.00204389
-0.00114909
-0.0012911
0.000345309
0.000929537
-0.000267789
-0.00203312
-0.00040323
-0.00221231
-0.000904689
-0.00206075
0.000498932
-0.00132424
-0.000107613
4.72924e-05
6.00312e-05
0.000329999
0.00273927
0.000517495
0.000741799
0.00238275
-0.0031255
-0.00172804
0.00148931
0.0007149
-0.00125669
0.00179729
-0.00410416
0.0022942
0.00120048
0.00115723
0.00023237
0.000257191
-0.000213487
-0.00126575
0.000167944
0.000237089
-0.00353495
0.00122952
-0.00165683
-0.000506042
0.00215153
-0.0020773
0.00187512
0.000181024
-0.00233572
-0.000214294
0.00249528
-0.00433522
0.00327463
8.88295e-05
-2.43532e-05
0.000434627
0.00130517
-0.00290591
-0.00353337
0.00102455
-0.00161727
0.00166257
-0.000442145
-0.0012266
-0.000713911
-0.00239885
0.00415535
-0.0032868
-0.000873628
0.00304057
-0.00128915
0.00295696
-0.00224433
0.000487142
0.00175923
-0.00389319
-0.000829808
0.00470742
0.00165281
0.00167402
-0.00332959
0.00100776
-0.00125366
0.00109186
0.000326672
-0.00221398
0.0032584
0.000526079
-0.00128858
0.000764857
-0.000978505
0.000961366
-5.32484e-05
0.00184207
-0.00152286
0.00301747
0.000800478
0.00288043
0.000339039
-3.37538e-05
-7.3337e-05
-0.00148588
-0.000517163
0.0019461
0.000422622
-0.00233953
0.00191508
-0.00360753
0.00474827
-0.000997495
0.000547539
0.0021098
-0.0024876
0.0027207
-0.00032896
0.00371546
0.00106549
0.00259862
-0.00368454
0.00189354
0.000134051
0.00188057
0.00338044
-0.0047485
0.00136383
-0.0020427
0.000740454
0.00129669
-0.00248905
-0.000465957
0.002957
6.70677e-05
-0.000221778
-0.00378357
0.000366956
0.00333902
-0.00223981
0.00448696
-0.00225781
0.00509726
-0.00449119
-0.000376319
0.00211487
-0.00175907
-0.000919319
0.000159276
-0.00264408
-0.000120311
-0.00197771
-0.00356737
0.00418023
-0.00315833
0.00145304
0.00170536
-0.00250774
0.000122117
0.000749453
0.000546941
0.000875136
0.000636734
-0.00151752
0.00465998
-0.000326265
0.000775945
0.000974524
-0.0017577
-0.000260536
-7.99393e-05
0.000100407
-0.000787639
0.000669271
0.00481074
-0.00362897
-0.00123761
-0.00129754
0.00163719
-0.000340153
-0.00361864
0.00229076
0.00132436
3.66783e-05
-0.00108008
-4.72186e-05
-7.24183e-05
0.00267168
-0.00217414
-0.00168755
-0.000587908
3.39255e-05
-0.000414565
0.000366138
0.0005033
0.00211691
-0.00100419
-0.00229759
0.000582038
0.00197914
-0.00258187
0.00134807
-0.000766042
-0.0047364
0.0015812
0.00370883
-0.00097497
0.000747022
-0.00136564
-0.000419325
-0.0012502
0.00222805
-0.0009796
-0.00210775
-2.8465e-05
0.000491124
0.00110562
0.00155105
-0.00265848
-0.00128726
0.0018186
-0.000539419
6.65463e-05
-0.000586376
0.000503339
0.000440941
-0.00173731
-0.000806752
-0.00204275
8.04756e-05
-0.000107466
0.00380128
0.000951875
-0.000598468
-0.000409419
0.00100759
-0.00174872
0.000578739
-0.00316206
0.0023191
-0.00194871
-0.000839408
0.00231461
-0.00260361
0.000184499
1.84402e-05
-2.94228e-05
-0.00133252
0.00456056
-0.00328782
0.00324395
0.000904342
-0.00102129
0.00504415
-0.0040312
3.40136e-05
3.49165e-05
-0.00176798
0.00233074
0.00137153
-0.00537711
0.000538045
0.000325108
-0.000863615
-0.000262522
4.35116e-05
0.00121738
0.00296743
-0.00418826
6.09595e-05
-6.17249e-05
0.000105484
-0.00172808
0.00162196
0.00127427
-0.00343584
0.00215211
-0.0013928
0.000595776
0.000794319
-0.000341039
-0.001301
-0.00161827
-4.76966e-05
-0.00273843
0.00106208
0.00112042
-0.000426989
0.000265704
-0.00275116
0.00179236
-0.000961538