/*--------------------------------*- C++ -*----------------------------------*\
| =========                 |                                                 |
| \\      /  F ield         | OpenFOAM: The Open Source CFD Toolbox           |
|  \\    /   O peration     | Version:  v2012                                 |
|   \\  /    A nd           | Website:  www.openfoam.com                      |
|    \\/     M anipulation  |                                                 |
\*---------------------------------------------------------------------------*/
FoamFile
{
    version     2.0;
    format      ascii;
    class       pointVectorField;
    location    "900";
    object      pointDisplacement;
}
// * * * * * * * * * * * * * * * * * * * * * * * * * * * * * * * * * * * * * //

dimensions      [0 1 0 0 0 0 0];


internalField   nonuniform List<vector> 
14332
(
(0 0 0)
(-0.0108354 0.0801429 0)
(0 0 0)
(-0.0108354 0.0801429 0)
(0 0 0)
(0 0 0)
(0 0 0)
(0 0 0)
(0 0 0)
(0 0 0)
(0 0 0)
(0 0 0)
(0 0 0)
(0 0 0)
(0 0 0)
(0 0 0)
(0 0 0)
(0 0 0)
(0 0 0)
(0 0 0)
(0 0 0)
(0 0 0)
(0 0 0)
(0 0 0)
(0 0 0)
(0 0 0)
(0 0 0)
(0 0 0)
(0 0 0)
(0 0 0)
(0 0 0)
(0 0 0)
(0 0 0)
(0 0 0)
(0 0 0)
(0 0 0)
(0 0 0)
(0 0 0)
(0 0 0)
(0 0 0)
(0 0 0)
(0 0 0)
(0 0 0)
(0 0 0)
(0 0 0)
(0 0 0)
(0 0 0)
(0 0 0)
(0 0 0)
(0 0 0)
(0 0 0)
(0 0 0)
(0 0 0)
(0 0 0)
(0 0 0)
(0 0 0)
(0 0 0)
(0 0 0)
(0 0 0)
(0 0 0)
(0 0 0)
(0 0 0)
(0 0 0)
(0 0 0)
(0 0 0)
(0 0 0)
(0 0 0)
(0 0 0)
(0 0 0)
(0 0 0)
(0 0 0)
(0 0 0)
(0 0 0)
(0 0 0)
(0 0 0)
(0 0 0)
(0 0 0)
(0 0 0)
(0 0 0)
(0 0 0)
(0 0 0)
(0 0 0)
(0 0 0)
(0 0 0)
(0 0 0)
(0 0 0)
(0 0 0)
(0 0 0)
(0 0 0)
(0 0 0)
(0 0 0)
(0 0 0)
(0 0 0)
(0 0 0)
(0 0 0)
(0 0 0)
(0 0 0)
(0 0 0)
(0 0 0)
(0 0 0)
(0 0 0)
(0 0 0)
(0 0 0)
(0 0 0)
(0 0 0)
(0 0 0)
(0 0 0)
(0 0 0)
(0 0 0)
(0 0 0)
(0 0 0)
(0 0 0)
(0 0 0)
(0 0 0)
(0 0 0)
(0 0 0)
(0 0 0)
(0 0 0)
(0 0 0)
(0 0 0)
(0 0 0)
(0 0 0)
(0 0 0)
(0 0 0)
(0 0 0)
(0 0 0)
(0 0 0)
(0 0 0)
(0 0 0)
(0 0 0)
(0 0 0)
(0 0 0)
(0 0 0)
(0 0 0)
(0.00721939 0.080324 0)
(0.00621635 0.080314 0)
(0.00521331 0.0803039 0)
(0.00421026 0.0802939 0)
(0.00320722 0.0802838 0)
(0.00220417 0.0802737 0)
(0.00120113 0.0802637 0)
(0.000198085 0.0802536 0)
(-0.000804959 0.0802435 0)
(-0.001808 0.0802335 0)
(-0.00281105 0.0802234 0)
(-0.00381409 0.0802134 0)
(-0.00481714 0.0802033 0)
(-0.00582018 0.0801932 0)
(-0.00682322 0.0801832 0)
(-0.00782627 0.0801731 0)
(-0.00882931 0.080163 0)
(-0.00983236 0.080153 0)
(-0.0108253 0.0791399 0)
(-0.0108153 0.0781368 0)
(-0.0108052 0.0771338 0)
(-0.0107952 0.0761307 0)
(-0.0107851 0.0751277 0)
(-0.010775 0.0741247 0)
(-0.010765 0.0731216 0)
(-0.0107549 0.0721186 0)
(-0.0107448 0.0711155 0)
(-0.0107348 0.0701125 0)
(-0.0107247 0.0691094 0)
(-0.0107147 0.0681064 0)
(-0.0107046 0.0671033 0)
(-0.0106945 0.0661003 0)
(-0.0106845 0.0650973 0)
(-0.0106744 0.0640942 0)
(-0.0106643 0.0630912 0)
(-0.0106543 0.0620881 0)
(-0.0106442 0.0610851 0)
(-0.0106342 0.060082 0)
(-0.0106241 0.059079 0)
(-0.010614 0.0580759 0)
(-0.010604 0.0570729 0)
(-0.0105939 0.0560699 0)
(-0.0105839 0.0550668 0)
(-0.0105738 0.0540638 0)
(-0.0105637 0.0530607 0)
(0 0 0)
(0 0 0)
(0 0 0)
(0 0 0)
(0 0 0)
(0 0 0)
(0 0 0)
(0 0 0)
(0 0 0)
(0 0 0)
(0 0 0)
(0 0 0)
(0 0 0)
(0 0 0)
(0 0 0)
(0 0 0)
(0 0 0)
(0 0 0)
(0 0 0)
(0 0 0)
(0 0 0)
(0 0 0)
(0 0 0)
(0 0 0)
(0 0 0)
(0 0 0)
(0 0 0)
(0 0 0)
(0 0 0)
(0 0 0)
(0 0 0)
(0 0 0)
(0 0 0)
(0 0 0)
(0 0 0)
(0 0 0)
(0 0 0)
(0 0 0)
(0 0 0)
(0 0 0)
(0 0 0)
(0 0 0)
(0 0 0)
(0 0 0)
(0 0 0)
(0 0 0)
(0 0 0)
(0 0 0)
(0 0 0)
(0 0 0)
(0 0 0)
(0 0 0)
(0 0 0)
(0 0 0)
(0 0 0)
(0 0 0)
(0 0 0)
(0 0 0)
(0 0 0)
(0 0 0)
(0 0 0)
(0 0 0)
(0 0 0)
(0 0 0)
(0 0 0)
(0 0 0)
(0 0 0)
(0 0 0)
(0 0 0)
(0 0 0)
(0 0 0)
(0 0 0)
(0 0 0)
(0 0 0)
(0 0 0)
(0 0 0)
(0 0 0)
(0 0 0)
(0 0 0)
(0 0 0)
(0 0 0)
(0 0 0)
(0 0 0)
(0 0 0)
(0 0 0)
(0 0 0)
(0 0 0)
(0 0 0)
(0 0 0)
(0 0 0)
(0 0 0)
(0 0 0)
(0 0 0)
(0 0 0)
(0 0 0)
(0 0 0)
(0 0 0)
(0 0 0)
(0 0 0)
(0 0 0)
(0 0 0)
(0 0 0)
(0 0 0)
(0 0 0)
(0 0 0)
(0 0 0)
(0 0 0)
(0 0 0)
(0 0 0)
(0 0 0)
(0 0 0)
(0 0 0)
(0 0 0)
(0 0 0)
(0 0 0)
(0 0 0)
(0 0 0)
(0 0 0)
(0 0 0)
(0 0 0)
(0 0 0)
(0 0 0)
(0 0 0)
(0 0 0)
(0 0 0)
(0 0 0)
(0 0 0)
(0 0 0)
(0 0 0)
(0 0 0)
(0.00721939 0.080324 0)
(0.00621635 0.080314 0)
(0.00521331 0.0803039 0)
(0.00421026 0.0802939 0)
(0.00320722 0.0802838 0)
(0.00220417 0.0802737 0)
(0.00120113 0.0802637 0)
(0.000198085 0.0802536 0)
(-0.000804959 0.0802435 0)
(-0.001808 0.0802335 0)
(-0.00281105 0.0802234 0)
(-0.00381409 0.0802134 0)
(-0.00481714 0.0802033 0)
(-0.00582018 0.0801932 0)
(-0.00682322 0.0801832 0)
(-0.00782627 0.0801731 0)
(-0.00882931 0.080163 0)
(-0.00983236 0.080153 0)
(-0.0108253 0.0791399 0)
(-0.0108153 0.0781368 0)
(-0.0108052 0.0771338 0)
(-0.0107952 0.0761307 0)
(-0.0107851 0.0751277 0)
(-0.010775 0.0741247 0)
(-0.010765 0.0731216 0)
(-0.0107549 0.0721186 0)
(-0.0107448 0.0711155 0)
(-0.0107348 0.0701125 0)
(-0.0107247 0.0691094 0)
(-0.0107147 0.0681064 0)
(-0.0107046 0.0671033 0)
(-0.0106945 0.0661003 0)
(-0.0106845 0.0650973 0)
(-0.0106744 0.0640942 0)
(-0.0106643 0.0630912 0)
(-0.0106543 0.0620881 0)
(-0.0106442 0.0610851 0)
(-0.0106342 0.060082 0)
(-0.0106241 0.059079 0)
(-0.010614 0.0580759 0)
(-0.010604 0.0570729 0)
(-0.0105939 0.0560699 0)
(-0.0105839 0.0550668 0)
(-0.0105738 0.0540638 0)
(-0.0105637 0.0530607 0)
(-0.00134018 0.0802411 0)
(-9.86504e-05 0.00203368 0)
(-0.0107503 0.0716641 0)
(-0.0105692 0.053633 0)
(-0.0106624 0.0627451 0)
(-0.000146458 0.00226224 0)
(0.00657033 0.0802955 0)
(-5.92765e-05 0.00167546 0)
(-2.23605e-05 0.0010457 0)
(-1.93706e-06 0.000440423 0)
(-0.000274305 0.00315124 0)
(-1.22558e-05 0.000739685 0)
(-3.32262e-05 0.00122008 0)
(-0.00825217 0.080162 0)
(-0.000311082 0.00266664 0)
(-2.94033e-06 0.000485817 0)
(-0.00040358 0.00241238 0)
(-6.74851e-06 0.00049437 0)
(-0.0005054 0.00177977 0)
(-0.0108047 0.0776294 0)
(-3.15073e-06 0.000426628 0)
(-5.46444e-06 0.000458297 0)
(-2.38044e-06 0.000286849 0)
(-3.03583e-06 0.000281715 0)
(-2.05235e-06 0.000228268 0)
(-7.84141e-05 0.00189392 0)
(-1.49473e-05 0.000795561 0)
(0.00263374 0.0802833 0)
(-0.0107106 0.0676036 0)
(-0.0106197 0.0585987 0)
(-1.96644e-06 0.00019279 0)
(-1.2015e-06 0.000129308 0)
(-0.000278657 0.00278854 0)
(-0.000247104 0.00322673 0)
(-0.000347447 0.00253525 0)
(-0.000490759 0.00236272 0)
(-0.00013012 0.00228528 0)
(-5.32005e-05 0.00168128 0)
(-2.65735e-05 0.00108151 0)
(-6.96031e-06 0.000549543 0)
(-1.07326e-05 0.000724491 0)
(-2.24116e-06 0.000433273 0)
(-2.45354e-06 0.000364639 0)
(-1.46214e-06 0.000147796 0)
(-0.00428439 0.0802068 0)
(-0.0107789 0.0745851 0)
(-7.54054e-07 7.78139e-05 0)
(-7.07067e-07 7.45806e-05 0)
(-0.000579933 0.00129674 0)
(-0.000182576 0.00260224 0)
(-0.000119275 0.00227279 0)
(-8.95595e-05 0.00199906 0)
(-6.37568e-05 0.00166271 0)
(-4.33382e-05 0.0014734 0)
(-1.02844e-05 0.000654912 0)
(-1.55479e-05 0.000884677 0)
(-2.61307e-05 0.00114594 0)
(-2.4508e-06 0.000235082 0)
(-1.7171e-05 0.000859196 0)
(-2.20826e-06 0.000393108 0)
(-2.0214e-06 0.000260515 0)
(-2.02942e-06 0.000232062 0)
(-1.72985e-06 0.000189324 0)
(-3.96319e-06 0.000347566 0)
(-3.58274e-07 3.74736e-05 0)
(2.15651e-05 0.0653049 0)
(-0.000161723 0.0649379 0)
(-0.000221065 0.0655613 0)
(-0.000402973 0.0651576 0)
(-0.000478917 0.0657682 0)
(-0.000651398 0.0653258 0)
(-0.000744218 0.0659184 0)
(-0.000906338 0.0654415 0)
(-0.00101369 0.0660195 0)
(-0.00116515 0.0655024 0)
(-0.00128526 0.0660599 0)
(-0.00142529 0.0655058 0)
(-0.00155608 0.066042 0)
(-0.00168781 0.0654517 0)
(-0.00182791 0.0659689 0)
(-0.00195162 0.0653446 0)
(-0.00210296 0.0658307 0)
(-0.00220851 0.0651995 0)
(-0.00237318 0.0656191 0)
(-0.00245388 0.0649695 0)
(-0.0026354 0.0653421 0)
(-0.00269224 0.0646198 0)
(-0.00288727 0.0649955 0)
(-0.00292906 0.0642174 0)
(-0.00313065 0.0645717 0)
(-0.00315779 0.0637807 0)
(-0.00335735 0.0640604 0)
(-0.003374 0.0632762 0)
(-0.00357416 0.0635345 0)
(-0.00358206 0.0627261 0)
(-0.00379214 0.0629641 0)
(-0.00378095 0.0621251 0)
(-0.00399324 0.0622826 0)
(-0.00396307 0.0614337 0)
(-0.00417321 0.0615186 0)
(-0.00376178 0.0612862 0)
(-0.00392869 0.0605741 0)
(-0.00373522 0.0604312 0)
(-7.68494e-05 0.0183495 0)
(-7.15455e-05 0.0177592 0)
(-0.00389391 0.0596994 0)
(-0.0037036 0.0595632 0)
(-8.20632e-05 0.0179117 0)
(-7.68197e-05 0.0173479 0)
(-0.00385557 0.0588106 0)
(-0.00366747 0.0586784 0)
(-8.69931e-05 0.0174968 0)
(-8.16033e-05 0.0169307 0)
(-9.18423e-05 0.0170845 0)
(-8.57975e-05 0.016513 0)
(-0.00381219 0.0579074 0)
(-0.0036278 0.0577778 0)
(-9.55354e-05 0.016643 0)
(-8.93277e-05 0.0160886 0)
(-0.00376625 0.0569879 0)
(-0.00358545 0.056863 0)
(-9.83834e-05 0.0161889 0)
(-9.21132e-05 0.0156521 0)
(-8.35317e-05 0.0155454 0)
(-0.00371603 0.0560508 0)
(-0.00353944 0.0559232 0)
(-0.00389127 0.0562067 0)
(-0.000100594 0.0157281 0)
(-9.42203e-05 0.0152067 0)
(-0.00366405 0.0550823 0)
(-0.00348951 0.054961 0)
(-0.000102219 0.0152664 0)
(-0.000109129 0.0157571 0)
(-9.57313e-05 0.0147555 0)
(-0.00141311 0.0666109 0)
(-0.0042143 0.0623825 0)
(-0.00439241 0.0615663 0)
(-0.00443989 0.0624344 0)
(-0.00461043 0.0616304 0)
(-0.00467002 0.0624306 0)
(-0.00482778 0.0615916 0)
(-0.00490435 0.0623475 0)
(-0.00505286 0.0614171 0)
(-0.00513863 0.0621948 0)
(-0.00527947 0.0612044 0)
(-0.00537203 0.0619717 0)
(-0.0055022 0.0609194 0)
(-0.0056027 0.0616942 0)
(-0.00572124 0.0605623 0)
(-0.00583017 0.0613264 0)
(-0.00593653 0.0601398 0)
(-0.00605303 0.0608576 0)
(-0.00614661 0.0596493 0)
(-0.00627131 0.0603223 0)
(-0.00635148 0.0590637 0)
(-0.00648262 0.0596906 0)
(-0.00655023 0.0583697 0)
(-0.00668797 0.0589494 0)
(-0.00674452 0.0575584 0)
(-0.00660477 0.0570009 0)
(-0.00679239 0.0560935 0)
(-0.00693315 0.0566504 0)
(-0.00696941 0.0551345 0)
(-0.00710993 0.055629 0)
(-0.00712756 0.0541006 0)
(-0.00727577 0.0544724 0)
(-0.00727923 0.0529432 0)
(-0.00743744 0.0531792 0)
(-0.00741907 0.0516272 0)
(-0.00758523 0.0517242 0)
(-0.00755904 0.0501366 0)
(-0.00771501 0.0501701 0)
(-0.00769989 0.0486091 0)
(-0.00784036 0.0485729 0)
(-0.00781854 0.0469614 0)
(-0.00795988 0.0467975 0)
(-0.00792317 0.0451185 0)
(-0.00806387 0.044816 0)
(-0.00801837 0.0430987 0)
(-0.00815504 0.0426876 0)
(-0.00810377 0.0409661 0)
(-0.00823932 0.0404357 0)
(-0.00818046 0.0387228 0)
(-0.00831487 0.0380716 0)
(-0.00824812 0.0363792 0)
(-0.00837855 0.0356019 0)
(-0.00830548 0.0339564 0)
(-0.00843094 0.0330756 0)
(-0.00835302 0.0314856 0)
(-0.0066536 0.0555497 0)
(-0.00756924 0.048406 0)
(-0.00811566 0.0369822 0)
(-0.00545245 0.0627924 0)
(-0.000103213 0.0147981 0)
(-9.66618e-05 0.0142976 0)
(-0.00360435 0.0540961 0)
(-0.00343553 0.0539819 0)
(-0.00844447 0.0372593 0)
(-0.000103653 0.014322 0)
(-9.70821e-05 0.0138326 0)
(-0.00353776 0.0530979 0)
(-0.00337775 0.0529847 0)
(-0.000103524 0.0138377 0)
(-9.7028e-05 0.0133622 0)
(-9.08333e-05 0.0133461 0)
(-0.0034715 0.0520796 0)
(-0.00331635 0.0519686 0)
(-0.000102818 0.0133455 0)
(-9.64655e-05 0.0128875 0)
(-0.00799305 0.0487505 0)
(-0.00340437 0.051052 0)
(-0.00325257 0.0509311 0)
(-0.00354958 0.0510936 0)
(-0.00661702 0.0602997 0)
(-0.000101577 0.0128495 0)
(-0.000107665 0.0132608 0)
(-9.54542e-05 0.0124107 0)
(-0.00333436 0.0500016 0)
(-0.00318511 0.0498792 0)
(-0.000100071 0.0123597 0)
(-9.40753e-05 0.0119333 0)
(-9.8291e-05 0.0118719 0)
(-9.2358e-05 0.0114557 0)
(-0.003261 0.0489352 0)
(-0.00311382 0.0488173 0)
(-9.62786e-05 0.0113881 0)
(-9.03353e-05 0.0109788 0)
(-8.65344e-05 0.0110349 0)
(-0.00318285 0.047853 0)
(-0.00304033 0.0477296 0)
(-8.46708e-05 0.0105721 0)
(-8.11206e-05 0.0106244 0)
(-8.79733e-05 0.0105024 0)
(-0.00310171 0.0467543 0)
(-0.00296596 0.0466352 0)
(-0.00290127 0.0475214 0)
(-0.00283297 0.0464647 0)
(-0.00276591 0.0473105 0)
(-0.00270198 0.0462676 0)
(-0.00263317 0.0471137 0)
(-0.00257338 0.0460315 0)
(-0.00263633 0.0451512 0)
(-0.00251065 0.0449139 0)
(-0.00244832 0.0457327 0)
(-0.00238972 0.0446522 0)
(-8.24691e-05 0.0101073 0)
(-8.53488e-05 0.0100299 0)
(-0.00244436 0.043768 0)
(-0.00232823 0.0435128 0)
(-0.00227309 0.0443752 0)
(-0.00221592 0.0432294 0)
(-0.00208919 0.064748 0)
(-8.01564e-05 0.00966063 0)
(-8.25536e-05 0.00956219 0)
(-0.0021594 0.044059 0)
(-0.00210663 0.0429117 0)
(-0.00215586 0.0420575 0)
(-0.0020506 0.0417468 0)
(-0.00200033 0.0425757 0)
(-0.00194884 0.0414082 0)
(-0.00189709 0.0422059 0)
(-0.00185033 0.0410389 0)
(-0.00179842 0.0418002 0)
(-0.00175503 0.0406421 0)
(-0.00170376 0.0413706 0)
(-0.00166305 0.0402223 0)
(-0.00170879 0.0394665 0)
(-0.00161952 0.0390586 0)
(-0.00332518 0.0547962 0)
(-7.69876e-05 0.00917517 0)
(-7.96445e-05 0.00909465 0)
(-0.00157443 0.0397859 0)
(-0.00153368 0.0386342 0)
(-0.00157321 0.0378761 0)
(-0.00149064 0.037464 0)
(-0.00145119 0.0381927 0)
(-0.00141139 0.0370329 0)
(-0.00137211 0.0377326 0)
(-0.00133525 0.0365852 0)
(-7.45779e-05 0.00872214 0)
(-7.65817e-05 0.0086328 0)
(-8.19148e-05 0.00902365 0)
(-0.00136911 0.0358569 0)
(-0.00129604 0.0354241 0)
(-0.00126201 0.0361255 0)
(-0.00122591 0.0349784 0)
(-0.00119167 0.0356521 0)
(-0.00115852 0.0345156 0)
(-0.00112439 0.0351622 0)
(-0.00109384 0.0340371 0)
(-0.00106024 0.0346567 0)
(-0.00103198 0.0335464 0)
(-0.00106149 0.0328993 0)
(-0.00100159 0.0324238 0)
(-0.000972948 0.0330481 0)
(-0.000944657 0.0319427 0)
(-7.1573e-05 0.00827214 0)
(-6.99386e-05 0.00838908 0)
(-7.32818e-05 0.00817126 0)
(-0.000969175 0.0312876 0)
(-0.00091466 0.0308243 0)
(-0.000890465 0.0314545 0)
(-0.000862775 0.0303526 0)
(-0.000838785 0.0309552 0)
(-0.000813361 0.029871 0)
(-0.000789233 0.0304644 0)
(-0.000766185 0.0293837 0)
(-0.000786393 0.0287795 0)
(-0.000741308 0.0283104 0)
(-0.000721322 0.0288876 0)
(-0.000698474 0.0278357 0)
(-0.000678656 0.0283806 0)
(-0.000657763 0.0273552 0)
(-0.000673829 0.0267778 0)
(-0.000635178 0.0263223 0)
(-0.000619081 0.0268718 0)
(-0.000598442 0.0258622 0)
(-0.000582269 0.0263781 0)
(-0.000563474 0.0253946 0)
(-6.84629e-05 0.00782117 0)
(-6.98985e-05 0.00771534 0)
(-0.000576723 0.0248471 0)
(-0.000543563 0.0244057 0)
(-0.000530244 0.0249249 0)
(-0.000511897 0.0239589 0)
(-0.000498749 0.0244551 0)
(-0.000481872 0.0235088 0)
(-0.000468895 0.0239831 0)
(-0.000453391 0.0230573 0)
(-0.000464105 0.0225584 0)
(-0.000437026 0.022128 0)
(-0.000426407 0.0226044 0)
(-0.000411338 0.0216942 0)
(-0.000400914 0.0221461 0)
(-0.000386995 0.0212566 0)
(-0.000395508 0.0207857 0)
(-0.000372313 0.0203693 0)
(-0.00255536 0.0660171 0)
(0.00135146 0.0764228 0)
(0.00124489 0.0760794 0)
(0.000797633 0.0763494 0)
(0.000741301 0.0759994 0)
(0.000252418 0.0762294 0)
(0.000250042 0.0758335 0)
(-0.000284406 0.0760694 0)
(-0.00027332 0.0757085 0)
(-0.000785167 0.0758891 0)
(-0.000719616 0.0755238 0)
(-0.00124328 0.0756773 0)
(-0.0013435 0.0760348 0)
(-0.00177688 0.0757994 0)
(-0.00191774 0.0761445 0)
(-0.00232811 0.0758567 0)
(-0.00251986 0.0762076 0)
(-0.00288825 0.0758673 0)
(-0.00313386 0.0761966 0)
(-0.00343747 0.075828 0)
(-0.00372063 0.0761205 0)
(-0.00397448 0.0757144 0)
(-0.00428028 0.0759967 0)
(-0.00449108 0.0755496 0)
(-0.00481067 0.0758156 0)
(-0.00419892 0.07527 0)
(-0.000226619 0.0753425 0)
(-0.00496983 0.0753292 0)
(-0.00530096 0.0755696 0)
(-6.54858e-05 0.00738588 0)
(-6.64445e-05 0.00726536 0)
(-0.00116733 0.0753171 0)
(-0.0017408 0.0425047 0)
(-0.000379031 0.0198782 0)
(-0.000357001 0.0194833 0)
(-0.00324319 0.0468224 0)
(-0.000376821 0.0216842 0)
(-0.00540905 0.0750589 0)
(-0.00574516 0.0752577 0)
(-0.00132465 0.0346645 0)
(-0.00209296 0.0408646 0)
(-6.22833e-05 0.00695726 0)
(-6.29262e-05 0.00681954 0)
(-6.73336e-05 0.00714834 0)
(-0.00315231 0.0457078 0)
(-0.00329222 0.0457226 0)
(-0.00319203 0.0445943 0)
(-0.00332919 0.0445662 0)
(-0.00322077 0.0434159 0)
(-0.00335586 0.0433482 0)
(-0.0032383 0.0421732 0)
(-0.00336975 0.0420531 0)
(-0.0032428 0.0408622 0)
(-0.00336865 0.0406869 0)
(0.00151875 0.0767556 0)
(-0.00580474 0.0747154 0)
(-0.00614655 0.0748689 0)
(-0.000362012 0.018972 0)
(-0.000341186 0.0185991 0)
(-0.00561157 0.0597983 0)
(-0.00108618 0.0357567 0)
(-0.00323252 0.039474 0)
(-0.00335388 0.0392624 0)
(-0.00349746 0.0404599 0)
(-0.00347591 0.038996 0)
(-0.00362567 0.0401575 0)
(-0.00359688 0.0386584 0)
(-0.00375261 0.0397862 0)
(-0.00371703 0.0382537 0)
(-0.0038785 0.0393467 0)
(-0.00383535 0.0377821 0)
(-0.00400254 0.0388289 0)
(-0.00394944 0.0372407 0)
(-0.0041228 0.0382362 0)
(-0.00405942 0.0366228 0)
(-0.00423909 0.037571 0)
(-0.00416741 0.0359199 0)
(-0.00435115 0.0368219 0)
(-0.00427083 0.0351363 0)
(-0.00445846 0.0359936 0)
(-0.00436881 0.0342865 0)
(-0.00456052 0.0350873 0)
(-0.00446122 0.0333582 0)
(-0.00465645 0.0340963 0)
(-0.00454747 0.0323504 0)
(-0.00474547 0.0330142 0)
(-5.87498e-05 0.00651784 0)
(-5.82822e-05 0.00667624 0)
(-5.92215e-05 0.00637529 0)
(-0.00462759 0.0312618 0)
(-0.00482805 0.03184 0)
(-0.00616024 0.0742868 0)
(-0.0065061 0.0743931 0)
(-0.00579853 0.0741899 0)
(-0.00470062 0.030094 0)
(-0.00490342 0.030578 0)
(-0.000344582 0.0180691 0)
(-0.000325009 0.017719 0)
(-0.000321413 0.018224 0)
(-0.000306419 0.0173653 0)
(-0.00476635 0.0288548 0)
(-0.0049709 0.0292284 0)
(-5.52435e-05 0.00608593 0)
(-5.54298e-05 0.00593835 0)
(-0.00320932 0.0380301 0)
(-0.00648617 0.0737885 0)
(-0.00681985 0.0738354 0)
(-0.00482321 0.0275282 0)
(-0.00502985 0.0277889 0)
(-0.00502388 0.0323128 0)
(-0.000302698 0.0178458 0)
(-0.000288784 0.0170066 0)
(-0.000291158 0.0165114 0)
(-0.000274531 0.0161732 0)
(-0.00487179 0.0261109 0)
(-0.00507991 0.0262805 0)
(-0.00344271 0.0764888 0)
(-0.00453201 0.0376611 0)
(-0.000275709 0.0156638 0)
(-0.000260191 0.0153505 0)
(-0.00491328 0.0246237 0)
(-0.00512139 0.0247165 0)
(-0.00528441 0.0263763 0)
(-0.00532672 0.0247323 0)
(-0.00515494 0.0230955 0)
(-0.00536405 0.0230325 0)
(-0.00518055 0.0214161 0)
(-0.00538961 0.021242 0)
(-0.00519628 0.0196813 0)
(-0.00540456 0.0193771 0)
(-0.00677621 0.0732153 0)
(-0.00709105 0.0732089 0)
(-0.00714226 0.0738224 0)
(-0.00740463 0.0731531 0)
(-0.00732479 0.0725194 0)
(-0.00762051 0.0723966 0)
(-0.00772887 0.0730392 0)
(-0.00791586 0.0722049 0)
(-0.00779862 0.0715633 0)
(-0.00806611 0.0712714 0)
(-0.00819764 0.0719102 0)
(-0.00831762 0.0709158 0)
(-0.00845444 0.0715163 0)
(-0.00855248 0.070496 0)
(-0.00869415 0.0710536 0)
(-0.00876861 0.0700078 0)
(-0.00890865 0.0704714 0)
(-0.00896483 0.0694089 0)
(-0.00910135 0.0698228 0)
(-0.00914389 0.0686887 0)
(-0.00928297 0.0691002 0)
(-0.00930563 0.0678436 0)
(-0.0094442 0.0681471 0)
(-0.00945007 0.0668595 0)
(-0.00958365 0.0670211 0)
(-0.00957727 0.0657478 0)
(-0.00970446 0.0658116 0)
(-0.00968815 0.0644921 0)
(-0.00980869 0.0645007 0)
(-0.00978802 0.0631164 0)
(-0.00989837 0.0630606 0)
(-0.00987565 0.0616452 0)
(-0.00997472 0.0614995 0)
(-0.00994843 0.0600713 0)
(-0.0100386 0.0598559 0)
(-0.0100096 0.0584237 0)
(-0.0100914 0.0581456 0)
(-0.0100611 0.0567083 0)
(-0.0101353 0.0563339 0)
(-0.0101022 0.0548898 0)
(-0.0101678 0.0544375 0)
(-0.0101343 0.0530539 0)
(-0.0101916 0.0525443 0)
(-0.010158 0.0512037 0)
(-0.0102102 0.0506186 0)
(-0.0101759 0.0492609 0)
(-0.0101188 0.0498317 0)
(-0.00992476 0.0586727 0)
(-0.00945191 0.0656119 0)
(-0.00883932 0.0689392 0)
(-0.00795256 0.0706097 0)
(-0.0102573 0.0500079 0)
(-0.0101681 0.0578328 0)
(-0.00520215 0.0178876 0)
(-0.00540617 0.0174394 0)
(-0.00560196 0.0209634 0)
(-0.00366443 0.0366755 0)
(-5.17635e-05 0.00566691 0)
(-5.17603e-05 0.00551817 0)
(-0.00519768 0.0160343 0)
(-0.00539683 0.0154644 0)
(-0.000271988 0.016634 0)
(-9.85838e-05 0.0177176 0)
(-0.00518357 0.0141427 0)
(-0.00538167 0.013467 0)
(-0.00992333 0.0644598 0)
(-0.000260173 0.0148243 0)
(-0.000245784 0.0145354 0)
(-4.83129e-05 0.00525857 0)
(-4.81309e-05 0.00510842 0)
(-5.1403e-05 0.00534241 0)
(-0.00407488 0.0342401 0)
(-0.00887707 0.0715089 0)
(-0.00565852 0.0757871 0)
(-4.48914e-05 0.00486114 0)
(-4.50206e-05 0.00499162 0)
(-0.000244618 0.0139932 0)
(-0.000231315 0.013727 0)
(-4.45112e-05 0.00470729 0)
(-0.00442199 0.0305931 0)
(-0.00105195 0.064942 0)
(-0.000229125 0.0131716 0)
(-0.000216919 0.012929 0)
(-0.000241916 0.0134101 0)
(-0.00021865 0.013457 0)
(-0.000205266 0.0126813 0)
(-0.000206598 0.0131831 0)
(-0.000194137 0.0124285 0)
(-4.15017e-05 0.0044747 0)
(-4.09584e-05 0.00431992 0)
(-0.000195125 0.012905 0)
(-0.00018352 0.0121711 0)
(-0.000181736 0.0116841 0)
(-0.000171975 0.0114482 0)
(-0.00309544 0.0382341 0)
(-0.00306266 0.0367631 0)
(-0.00295386 0.0369731 0)
(-0.00291302 0.0354622 0)
(-0.00280936 0.0356589 0)
(-0.00276186 0.0341033 0)
(-0.00266603 0.0342767 0)
(-0.00465758 0.0259002 0)
(-0.00348451 0.0585447 0)
(-0.00743133 0.0547443 0)
(-0.00261341 0.0326945 0)
(-0.0025232 0.0328613 0)
(-0.000169463 0.0109512 0)
(-0.000160551 0.010737 0)
(-0.000162665 0.0112084 0)
(-0.000152028 0.0105182 0)
(-0.0049956 0.0182182 0)
(-3.81719e-05 0.00410088 0)
(-3.75099e-05 0.00394636 0)
(-0.000149288 0.0100379 0)
(-0.000141528 0.00983997 0)
(-0.000365225 0.0184162 0)
(-0.00246568 0.0312599 0)
(-0.00237977 0.0314273 0)
(-0.00254652 0.0310927 0)
(-0.000225417 0.0125751 0)
(-0.000237603 0.0127835 0)
(-0.000153784 0.0109658 0)
(-3.49307e-05 0.00373905 0)
(-3.41707e-05 0.00358718 0)
(-3.64259e-05 0.00376199 0)
(-0.000138223 0.00935161 0)
(-0.000131197 0.00917398 0)
(-0.0023159 0.0297855 0)
(-0.0022356 0.0299612 0)
(-0.000269072 0.0662194 0)
(-0.000220114 0.0119357 0)
(-0.000231585 0.0121117 0)
(-3.17693e-05 0.00339084 0)
(-3.24417e-05 0.00353274 0)
(-3.08628e-05 0.00323353 0)
(-0.000127379 0.00867859 0)
(-0.000121071 0.00852088 0)
(-0.00014698 0.0531614 0)
(-0.000244743 0.0526634 0)
(-0.000276886 0.0534254 0)
(-0.000373714 0.0529002 0)
(-0.000406846 0.0536504 0)
(-0.000504523 0.0531017 0)
(-0.000545443 0.0539357 0)
(-0.000640205 0.0532616 0)
(-0.00070115 0.0540079 0)
(-0.000777207 0.053346 0)
(-0.000844578 0.0540665 0)
(-0.000916038 0.0533874 0)
(-0.000849324 0.0526006 0)
(-0.000989836 0.0540828 0)
(-0.00105491 0.0533815 0)
(-0.00113648 0.0540511 0)
(-0.00119358 0.0533023 0)
(-0.00128254 0.0539655 0)
(-0.00122423 0.0547378 0)
(-0.00133251 0.0531752 0)
(-0.00137518 0.0546333 0)
(-0.00131816 0.0554112 0)
(-0.00147385 0.0552833 0)
(-0.00141716 0.0560662 0)
(-0.00216556 0.0282733 0)
(-0.00209175 0.0284594 0)
(-0.00473098 0.0632351 0)
(-0.00959576 0.0682052 0)
(-0.00403907 0.0403608 0)
(-2.83429e-05 0.00302157 0)
(-2.76554e-05 0.00289392 0)
(-0.000213177 0.0112534 0)
(-0.000223789 0.0113961 0)
(-0.000116808 0.00802005 0)
(-0.000111203 0.0078822 0)
(-0.00011501 0.00835742 0)
(-0.000105785 0.00773732 0)
(-0.000122609 0.00815099 0)
(-0.000109181 0.00818779 0)
(-0.000100552 0.00758586 0)
(-9.67976e-05 0.00713173 0)
(-9.21455e-05 0.00699855 0)
(-0.00316907 0.0517801 0)
(-0.000103586 0.0080124 0)
(-0.00936706 0.041618 0)
(-0.00926622 0.0420437 0)
(-0.00930463 0.0439 0)
(-0.00157756 0.0559153 0)
(-0.00152192 0.056703 0)
(-0.000483297 0.0248938 0)
(-0.000812106 0.0315413 0)
(-0.000102151 0.0117866 0)
(-7.15052e-05 0.0167647 0)
(-0.000554396 0.0238312 0)
(-0.00162396 0.0551115 0)
(-0.000127056 0.031261 0)
(-0.000106541 0.0256864 0)
(-9.62759e-05 0.023099 0)
(-0.000935025 0.0301411 0)
(-0.00548674 0.0264029 0)
(-0.00201503 0.0267325 0)
(-0.00194887 0.0269257 0)
(-0.00201729 0.0286041 0)
(-0.00188227 0.027079 0)
(-0.00194366 0.0287117 0)
(-0.00181511 0.0271955 0)
(-0.00187049 0.0287791 0)
(-0.00174747 0.0272653 0)
(-0.0017976 0.0288051 0)
(-0.00167991 0.0272928 0)
(-0.0016247 0.0257152 0)
(-0.00156243 0.0257523 0)
(-0.00161327 0.0273012 0)
(-0.00150153 0.0257731 0)
(-0.00208034 0.0264969 0)
(-0.00494818 0.0606352 0)
(-0.00180868 0.0253621 0)
(-0.00123892 0.0525298 0)
(-0.00137571 0.0523561 0)
(-0.00127884 0.0517098 0)
(-0.00141344 0.0515008 0)
(-0.00131558 0.0508521 0)
(-2.72087e-05 0.00630219 0)
(-2.96162e-05 0.00674988 0)
(-2.95243e-05 0.00643074 0)
(-2.70482e-05 0.00598617 0)
(-2.92466e-05 0.0061064 0)
(-3.18908e-05 0.00654816 0)
(-3.14779e-05 0.00621545 0)
(-2.87806e-05 0.0057773 0)
(-3.08733e-05 0.00587868 0)
(-3.4282e-05 0.0066532 0)
(-2.81221e-05 0.00544361 0)
(-3.00806e-05 0.0055383 0)
(-2.72803e-05 0.00510602 0)
(-2.91109e-05 0.005195 0)
(-3.20337e-05 0.00562149 0)
(-3.09289e-05 0.00527248 0)
(-2.54469e-05 0.00500631 0)
(-3.39671e-05 0.00569234 0)
(-3.27191e-05 0.00533784 0)
(-2.55256e-05 0.00270699 0)
(-2.96715e-05 0.00492233 0)
(-3.13248e-05 0.00498302 0)
(-2.46467e-05 0.00257608 0)
(-2.63803e-05 0.00272136 0)
(-0.00144513 0.0241823 0)
(-0.00139063 0.0242225 0)
(-0.00144167 0.0257664 0)
(-0.00133687 0.0242354 0)
(-0.00712157 0.0525167 0)
(-0.00495802 0.0128883 0)
(-0.0078794 0.0435517 0)
(-0.0082873 0.0301198 0)
(-0.00271071 0.063777 0)
(-0.00919874 0.0442213 0)
(-0.00923383 0.0460635 0)
(-8.80775e-05 0.00654123 0)
(-8.39953e-05 0.00642632 0)
(-0.000321203 0.0645232 0)
(-0.000204514 0.010527 0)
(-0.000214244 0.0106408 0)
(-0.00934123 0.0457747 0)
(-0.0092666 0.0478882 0)
(-0.00915411 0.0481213 0)
(-0.00918257 0.0498854 0)
(-0.00906505 0.0500614 0)
(-0.00908757 0.0518401 0)
(-0.00896512 0.0518631 0)
(-0.0089776 0.0537017 0)
(-0.00885305 0.053505 0)
(-0.00885668 0.0553634 0)
(-0.00268368 0.075498 0)
(-0.00138276 0.0257312 0)
(-0.00128363 0.024221 0)
(-0.00168739 0.0565273 0)
(-0.00163369 0.0573191 0)
(-0.00123278 0.022692 0)
(-0.00118537 0.0227003 0)
(-0.00123107 0.0241852 0)
(-0.00113828 0.0226807 0)
(-0.00117938 0.0241245 0)
(-0.00109171 0.0226359 0)
(-0.0011288 0.0240464 0)
(-0.00104608 0.0225756 0)
(-0.00100485 0.0211375 0)
(-0.000964201 0.0211033 0)
(-0.00100147 0.0224997 0)
(-0.000924346 0.0210507 0)
(-0.0087299 0.055048 0)
(-0.00872717 0.0568431 0)
(-3.58562e-05 0.00575 0)
(-2.27741e-05 0.00241181 0)
(-2.35829e-05 0.00253444 0)
(-0.000234762 0.011529 0)
(-0.000224256 0.0107447 0)
(-0.000246045 0.011651 0)
(-0.000234411 0.0108315 0)
(-0.00025777 0.0117675 0)
(-0.000244763 0.0109042 0)
(-0.000270008 0.0118761 0)
(-2.82708e-05 0.00457169 0)
(-2.97919e-05 0.00462853 0)
(-0.000255367 0.0109647 0)
(-0.00028258 0.0119695 0)
(-0.000957792 0.0224027 0)
(-0.000885076 0.0209754 0)
(-0.000849165 0.0196156 0)
(-0.000813699 0.0195491 0)
(-0.000846508 0.0208815 0)
(-0.00077916 0.0194807 0)
(-0.000808821 0.0207691 0)
(-0.000745512 0.0193972 0)
(-0.000772153 0.0206383 0)
(-0.000712704 0.0192951 0)
(-0.000683202 0.0180264 0)
(-0.000654209 0.0179551 0)
(-0.000680703 0.0191783 0)
(-0.000625867 0.0178678 0)
(-0.000649497 0.0190461 0)
(-0.000598141 0.0177641 0)
(-2.17407e-05 0.00227067 0)
(-0.000572243 0.0165668 0)
(-0.00054781 0.0164908 0)
(-0.000571143 0.0176456 0)
(-0.000523883 0.0163994 0)
(-0.00144401 0.0506234 0)
(-0.00134819 0.04998 0)
(-0.000472513 0.0523512 0)
(-0.00026622 0.0110146 0)
(-7.96706e-05 0.00596716 0)
(-7.61337e-05 0.00587009 0)
(-8.00424e-05 0.00630427 0)
(-7.26752e-05 0.00576478 0)
(-7.61954e-05 0.00617442 0)
(-6.92909e-05 0.0056514 0)
(-0.00180555 0.0571129 0)
(-6.55758e-05 0.00524166 0)
(-6.26326e-05 0.00514439 0)
(-0.0033497 0.0648463 0)
(-0.00175288 0.057914 0)
(-0.00157175 0.0580935 0)
(0.00025057 0.0716575 0)
(0.000236234 0.0711437 0)
(-8.55897e-05 0.07147 0)
(-8.91909e-05 0.0709573 0)
(-0.000409482 0.071252 0)
(-0.00937597 0.0476161 0)
(-0.00112981 0.0211427 0)
(0.00402327 0.0794135 0)
(0.0037469 0.0792087 0)
(0.0031401 0.0793941 0)
(0.00291195 0.0792193 0)
(0.00230154 0.079375 0)
(0.00208851 0.0792073 0)
(0.00141703 0.0793498 0)
(0.00125394 0.0791674 0)
(0.000475803 0.0793014 0)
(0.000407032 0.0790992 0)
(-0.000419181 0.0792126 0)
(-0.000434354 0.0794087 0)
(-0.00131795 0.0792981 0)
(-0.00143339 0.0794807 0)
(-0.0022711 0.0793523 0)
(-0.000398812 0.0790037 0)
(-0.00246168 0.0795237 0)
(-0.00326325 0.0793802 0)
(-0.00300748 0.0791996 0)
(-0.00394258 0.0792065 0)
(-0.00432358 0.079402 0)
(-0.00487543 0.0791824 0)
(-0.0044927 0.0790012 0)
(-0.00532858 0.0789579 0)
(-0.00576343 0.0791246 0)
(-0.00609816 0.0788849 0)
(-0.00656866 0.0790405 0)
(-0.00678704 0.0787738 0)
(-0.0072721 0.078916 0)
(-0.00738785 0.0786137 0)
(-0.00786658 0.0787351 0)
(-0.00789112 0.078397 0)
(-0.00834964 0.0784902 0)
(-0.00830435 0.0781147 0)
(-0.00872231 0.078161 0)
(0.00196608 0.0790171 0)
(0.00238807 0.0795228 0)
(-0.00863545 0.0777685 0)
(-0.0089989 0.0777428 0)
(-0.00828378 0.0777159 0)
(-0.00691508 0.0784819 0)
(-0.00494842 0.0787706 0)
(-0.00859476 0.0564485 0)
(-0.00858642 0.0581716 0)
(-0.000544697 0.0175065 0)
(-0.000498583 0.0152245 0)
(-0.000194311 0.00976921 0)
(-2.67375e-05 0.00422143 0)
(-2.81343e-05 0.00427523 0)
(-3.12559e-05 0.00467328 0)
(-2.9474e-05 0.00431726 0)
(-0.00255877 0.034359 0)
(0.000214822 0.0706298 0)
(-2.01242e-05 0.00212793 0)
(-1.90273e-05 0.00198506 0)
(-0.000775303 0.0181374 0)
(-0.00911417 0.0538189 0)
(-0.00895435 0.0501228 0)
(-0.00845209 0.0577302 0)
(-0.00843449 0.0593882 0)
(-0.00193161 0.0576777 0)
(-0.00197368 0.056847 0)
(-7.24613e-05 0.00603733 0)
(-9.76114e-05 0.0704387 0)
(-3.26504e-05 0.00470529 0)
(-3.07394e-05 0.00434683 0)
(-2.7595e-05 0.00396411 0)
(-2.87411e-05 0.00399216 0)
(-0.00887618 0.0773454 0)
(-0.00920169 0.0772279 0)
(-0.00830274 0.0589209 0)
(-0.00827051 0.0604837 0)
(-0.00814225 0.0599619 0)
(-0.0080942 0.0614459 0)
(-0.00168946 0.0586929 0)
(-0.0015023 0.0588422 0)
(-0.000772254 0.0547476 0)
(-5.87618e-05 0.00473533 0)
(-5.62497e-05 0.00465422 0)
(-0.000477575 0.0151621 0)
(-0.00045039 0.0139637 0)
(-0.00146832 0.0497306 0)
(-0.0013767 0.0490976 0)
(-0.00125884 0.049334 0)
(-0.00129097 0.0484529 0)
(-0.00117963 0.0486688 0)
(-0.00121019 0.0477945 0)
(-0.001106 0.0479927 0)
(-0.00113279 0.0471168 0)
(-0.0010328 0.0473042 0)
(-0.0010578 0.046451 0)
(-0.000965157 0.046587 0)
(-0.00099087 0.0457717 0)
(-0.000901855 0.0458565 0)
(-0.000930904 0.045032 0)
(-0.000841391 0.0451209 0)
(-0.000869706 0.0442894 0)
(-0.000782997 0.0443791 0)
(-0.000810269 0.0435594 0)
(-0.00156527 0.0503533 0)
(-0.000727691 0.0436283 0)
(-0.000755134 0.0428188 0)
(-0.000968294 0.0441362 0)
(-0.000675501 0.0428694 0)
(-0.000702822 0.0420712 0)
(-0.000778378 0.0419881 0)
(-0.00072578 0.0412506 0)
(-0.000653692 0.0413176 0)
(-0.000676531 0.0405072 0)
(-0.00086897 0.046689 0)
(-0.0011468 0.0461665 0)
(-0.000607843 0.0405574 0)
(-0.000630252 0.0397573 0)
(-0.000695587 0.039682 0)
(-0.000649383 0.038942 0)
(-0.000586478 0.0390037 0)
(-0.000605515 0.0382024 0)
(-0.000545507 0.0382476 0)
(-0.000564601 0.0374603 0)
(-0.00050737 0.0374898 0)
(-0.000525874 0.0367097 0)
(-0.000471741 0.0367268 0)
(-0.000489105 0.0359564 0)