/*--------------------------------*- C++ -*----------------------------------*\
| =========                 |                                                 |
| \\      /  F ield         | OpenFOAM: The Open Source CFD Toolbox           |
|  \\    /   O peration     | Version:  v2012                                 |
|   \\  /    A nd           | Website:  www.openfoam.com                      |
|    \\/     M anipulation  |                                                 |
\*---------------------------------------------------------------------------*/
FoamFile
{
    version     2.0;
    format      ascii;
    class       surfaceVectorField;
    location    "500";
    object      Uf;
}
// * * * * * * * * * * * * * * * * * * * * * * * * * * * * * * * * * * * * * //

dimensions      [0 1 -1 0 0 0 0];


internalField   nonuniform List<vector> 
20642
(
(0.47399 0.0368359 -1.96883e-21)
(0.483651 0.0384707 -1.87787e-20)
(0.495549 0.0432472 -6.90295e-21)
(0.997441 0.0341812 -1.64492e-21)
(0.997189 0.0344709 -2.69785e-22)
(0.997663 0.0346476 -5.97562e-22)
(1.03555 0.135179 1.68852e-21)
(1.03503 0.134227 -4.75384e-21)
(1.03317 0.135304 -4.79098e-21)
(1.037 0.0288283 -8.34918e-21)
(1.0365 0.0296895 0)
(1.03596 0.0285898 -3.42373e-21)
(0.994538 0.0191796 -6.26486e-23)
(0.994358 0.0193129 1.27497e-21)
(0.994606 0.0193699 6.6351e-22)
(0.997887 0.0337449 -9.82922e-22)
(0.997297 0.0335929 -1.50464e-21)
(1.04891 0.0572569 -7.88497e-21)
(1.04801 0.0558569 -6.91232e-21)
(1.04743 0.057252 2.48534e-21)
(0.992108 0.0374927 -6.45237e-22)
(0.991483 0.0369212 3.81199e-22)
(0.991213 0.0378728 4.02432e-22)
(1.07193 0.0472194 -9.54531e-21)
(1.0706 0.0477219 -4.48603e-21)
(1.07188 0.0489907 2.26921e-20)
(0.00765451 -0.0478942 7.6507e-21)
(0.0158685 -0.0510236 2.90038e-20)
(0.99256 0.0381902 -6.32348e-22)
(0.992856 0.0372864 4.35552e-22)
(1.02341 0.0225289 -5.91605e-21)
(1.02349 0.0233045 -7.3026e-21)
(1.0242 0.0228572 -1.36831e-20)
(1.01284 0.000438189 0)
(1.01323 0.000334524 0)
(0.932597 0.0371434 -4.29564e-22)
(0.863424 0.0372266 0)
(0.941035 0.0393909 1.10618e-21)
(0.999676 0.0286315 2.02737e-21)
(0.99934 0.0290511 -3.72049e-21)
(0.999975 0.029173 -3.06619e-21)
(0.461049 0.0345356 -1.72182e-21)
(0.438115 0.0282558 -4.00939e-21)
(0.999962 -0.000584457 3.54542e-23)
(0.999686 -0.000603104 -3.55869e-22)
(0.998523 -0.000313506 -1.49512e-22)
(0.993025 0.0389032 0)
(0.993567 0.0395388 -5.8626e-22)
(0.993835 0.0385638 0)
(1.03503 0.119143 0)
(1.03471 0.120305 -1.9832e-21)
(1.03369 0.119332 7.67699e-21)
(0.465955 0.0431582 -2.94094e-21)
(0.508001 0.0497529 3.84251e-21)
(0.505668 0.0510716 -3.12231e-21)
(1.00624 0.0466576 4.12397e-21)
(1.00566 0.0474237 1.88184e-21)
(1.0054 0.0464552 2.46945e-21)
(1.0006 0.0155607 -2.78248e-21)
(1.00097 0.0155753 9.97825e-22)
(1.00075 0.0160389 -7.10606e-22)
(1.04458 0.0883904 8.4967e-21)
(1.04605 0.088393 1.95653e-20)
(1.0449 0.0899252 -1.3152e-20)
(1.00018 0.0154372 -3.48544e-21)
(1.00046 0.0150103 -4.43048e-23)
(1.02835 0.0379448 6.41168e-21)
(1.0287 0.0388254 -5.33352e-21)
(1.02775 0.0383479 0)
(1.00276 0.0457018 1.55776e-21)
(1.00361 0.0459099 -1.48391e-21)
(1.00334 0.0449609 1.63988e-21)
(0.968304 0.0693956 -2.85135e-22)
(0.985014 0.0698419 -2.75134e-22)
(0.98594 0.068428 1.85635e-21)
(0.0151717 -0.041925 -2.168e-20)
(0.996761 0.0423462 -1.46751e-21)
(0.99748 0.0428898 7.24582e-22)
(0.997562 0.0418099 -9.17504e-22)
(1.04628 -0.00869807 -7.97395e-24)
(1.04674 -0.00835 -1.69209e-22)
(1.04597 -0.00817472 -2.30571e-22)
(0.000492459 -0.027811 -4.45096e-21)
(0.0176557 -0.0359223 -5.48836e-21)
(1.05924 0.110727 1.40327e-20)
(1.05998 0.112252 -7.41478e-22)
(1.05798 0.111479 -1.67084e-20)
(1.02901 0.0307538 0)
(1.0285 0.029974 0)
(1.0294 0.0300861 -3.18004e-21)
(0.525802 0.0582463 -1.29255e-20)
(0.546038 0.063604 1.50018e-22)
(0.542135 0.0635802 -3.6407e-21)
(0.990393 0.00243933 0)
(0.990428 0.00202925 3.99566e-23)
(0.989937 0.00215501 0)
(0.991384 0.0361696 -6.2211e-22)
(0.990562 0.0364295 -6.57703e-22)
(1.01175 0.0341621 0)
(1.01217 0.0348406 -4.25135e-21)
(1.01135 0.0348753 0)
(0.996085 0.000183146 -6.47769e-22)
(0.996609 0.000338001 -4.38146e-21)
(0.996197 0.000127836 1.64893e-22)
(1.04975 0.0585581 1.75273e-20)
(1.05023 0.0571154 -1.15377e-20)
(1.00987 0.0578205 3.16775e-21)
(1.0093 0.0588163 0)
(1.01067 0.0587627 -4.09145e-21)
(1.00611 -0.000521072 9.129e-23)
(1.00511 -0.000320586 -5.15644e-24)
(1.01011 -0.000453266 -4.51187e-24)
(0.992858 -0.0123434 -1.88471e-23)
(0.992281 -0.0124276 0)
(0.992476 -0.0119086 0)
(1.06726 0.0386535 9.22112e-21)
(1.06545 0.0389863 0)
(1.06623 0.0372419 0)
(1.04247 0.12312 -6.28958e-21)
(1.04361 0.12364 -9.34867e-21)
(1.04234 0.124481 -1.10808e-20)
(1.04265 0.121514 1.53261e-20)
(1.04108 0.122284 3.54921e-21)
(0.995844 0.105939 -8.44575e-22)
(0.997928 0.106042 -1.84533e-21)
(0.995647 0.107845 -1.73933e-21)
(1.00696 0.0459004 0)
(1.00736 0.0468683 0)
(0.267634 0.0569036 -8.44344e-21)
(0.381392 0.0685104 0)
(0.377732 0.071693 0)
(0.981569 0.0289179 -2.54244e-22)
(0.975136 0.028508 4.26876e-23)
(0.998304 0.030434 5.83497e-23)
(0.990608 0.00269302 -3.35609e-22)
(0.990218 0.00279233 0)
(1.02269 0.0223323 9.14461e-21)
(1.02326 0.0218918 -2.24358e-22)
(1.0116 0.103974 -3.4569e-22)
(1.00992 0.104081 -2.52089e-21)
(1.01063 0.102334 -3.28433e-21)
(0.278434 0.0212161 2.76139e-21)
(0.352871 0.0278269 -7.65893e-22)
(0.273083 0.0201299 -1.45662e-20)
(1.01242 0.0209656 1.07025e-21)
(1.0124 0.0203605 5.39754e-21)
(1.01185 0.0205864 2.00144e-21)
(1.01368 0.0224366 -5.23875e-21)
(1.01358 0.0218217 -4.23625e-21)
(1.01422 0.0220906 7.7463e-22)
(1.01279 0.103873 3.42336e-21)
(1.01218 0.105589 4.3039e-22)
(0.16226 0.00572053 6.11238e-21)
(1.04304 0.0880445 0)
(1.04445 0.0865782 6.25886e-21)
(0.993452 -0.0122479 4.2142e-23)
(0.993317 -0.0128362 -1.93564e-23)
(0.9924 0.105851 1.44679e-21)
(0.995687 0.103767 -1.38618e-21)
(0.577514 0.0974848 1.41312e-21)
(0.528884 0.094518 2.75683e-21)
(0.510057 0.0951994 -2.26373e-21)
(0.981665 0.00515036 4.0149e-23)
(0.982197 0.00566239 5.50805e-22)
(0.982598 0.00479468 8.11445e-23)
(1.02396 -0.000463565 -1.45954e-24)
(1.02489 -0.000277038 -2.57728e-23)
(1.02775 -0.000398799 9.93616e-24)
(1.02902 0.0373803 -2.63071e-21)
(1.02801 0.0370435 -2.76466e-21)
(0.925 0.123381 6.23308e-21)
(0.925362 0.123647 1.34298e-20)
(0.893365 0.122523 3.60466e-21)
(1.0515 -0.00389447 1.09094e-22)
(1.06378 -0.00348492 3.50721e-21)
(1.06128 -0.00496413 -1.91549e-21)
(0.99608 0.0418033 -6.95798e-22)
(0.995444 0.0412705 1.39532e-21)
(0.996245 0.0407994 2.1846e-21)
(0.991952 0.0358327 -1.89648e-23)
(0.991387 0.0353072 5.59183e-22)
(0.992208 0.0392535 0)
(0.43367 0.038566 -7.0108e-21)
(0.419418 0.0349738 1.57219e-21)
(0.413434 0.0341555 2.47069e-21)
(1.01919 0.134736 -4.3513e-21)
(1.02652 0.133394 -9.0662e-22)
(1.00316 0.132917 -8.93995e-21)
(0.511827 0.0541462 -2.75794e-22)
(0.508166 0.0545816 -7.21958e-21)
(1.03709 0.0156072 3.79472e-22)
(1.03795 0.016177 1.04326e-20)
(1.03679 0.0162955 3.90379e-21)
(0.994027 -0.0120931 2.01154e-23)
(0.993573 -0.0116655 9.5245e-24)
(1.00506 0.0482321 8.32518e-23)
(1.00597 0.0484146 -7.46717e-21)
(1.02198 0.0385627 0)
(1.02218 0.0394902 0)
(1.02123 0.0387232 -6.90404e-24)
(0.99643 0.0188999 -5.16872e-22)
(0.996336 0.0191492 -3.6624e-22)
(0.996687 0.0191559 -3.12826e-21)
(0.994548 -0.0119157 0)
(0.994531 -0.0125477 2.87265e-23)
(1.02281 0.0382026 0)
(1.02175 0.037677 0)
(1.02874 0.0311335 -3.24079e-22)
(1.02949 0.0313562 5.31754e-21)
(1.00633 0.0229286 -1.77074e-21)
(1.00587 0.0224357 2.08795e-21)
(1.00644 0.0222641 6.27988e-21)
(0.997468 -0.000492007 2.9618e-23)
(0.997746 -0.000505757 2.97458e-23)
(0.996681 -0.000271645 -4.04995e-23)
(1.03744 0.0148666 -1.41493e-20)
(1.03627 0.014943 -9.12416e-21)
(0.998414 0.137834 -1.673e-22)
(1.022 0.138508 6.61447e-21)
(1.01841 0.139807 0)
(1.01025 0.00373085 1.41765e-21)
(1.01032 0.00421495 -2.57472e-21)
(1.00977 0.00396813 -4.08712e-21)
(0.987428 0.0439048 -2.78359e-22)
(0.986317 0.0446416 3.11334e-22)
(0.986449 0.0431955 -2.4821e-22)
(1.06079 0.109573 5.57511e-21)
(1.05849 0.109176 1.38958e-20)
(1.00998 0.00210613 -2.55335e-21)
(1.0095 0.00209964 6.0939e-21)
(1.00916 0.00153665 0)
(1.01053 0.0567502 4.74117e-22)
(1.00921 0.0567678 -4.13645e-21)
(1.00007 -0.000539881 1.86516e-22)
(1.00113 -0.000889031 1.85067e-22)
(1.00406 -0.00159906 -2.19833e-22)
(1.00423 -0.00151126 -1.32644e-23)
(1.0047 -0.00185236 -5.06362e-23)
(1.06799 0.0403066 -1.42094e-20)
(0.991859 0.0301136 -2.57139e-22)
(0.937537 0.0325245 -1.00113e-20)
(0.991405 -0.0001493 -8.27508e-22)
(0.991134 -0.00048078 0)
(0.991523 -0.000537765 0)
(1.01157 0.0257188 3.26812e-21)
(1.0111 0.0251629 3.49592e-24)
(1.01096 0.025848 -1.05642e-21)
(0.995936 0.0428973 -2.05506e-21)
(0.98562 0.0626214 -8.26664e-23)
(0.98096 0.0631178 2.94274e-22)
(0.981161 0.0613024 9.46054e-23)
(0.994352 -0.000151681 -7.03086e-22)
(0.994292 -0.00014057 6.78347e-22)
(0.993809 -8.74938e-05 9.8967e-22)
(1.01025 0.00248645 -5.02057e-21)
(1.01031 0.00203734 1.35163e-21)
(0.988515 0.0646504 -1.01662e-21)
(0.989976 0.0636958 -6.52283e-22)
(0.988643 0.0630564 -1.00372e-21)
(1.01772 -0.000423428 -1.60316e-21)
(1.01738 -0.000508729 -4.08899e-23)
(1.01291 -0.000211271 1.17481e-22)
(1.01836 -0.000468174 5.68923e-22)
(1.02069 -0.00104525 8.04022e-23)
(1.00626 0.0234428 -4.13068e-21)
(1.00675 0.0232814 -5.21794e-21)
(0.995431 -5.27617e-05 4.69995e-22)
(0.995316 -1.59232e-05 8.75162e-22)
(0.994717 -1.74636e-05 8.64744e-22)
(0.996559 0.0184884 9.22485e-22)
(0.996126 0.0185562 1.05748e-21)
(0.989629 0.159521 1.01866e-20)
(0.98867 0.158046 3.46971e-20)
(0.956245 0.158089 1.26314e-20)
(0.606063 0.0801677 4.23039e-22)
(0.598067 0.0767345 7.97022e-21)
(0.582476 0.0741761 7.25019e-21)
(0.981035 0.00439531 -9.0579e-25)
(0.980625 0.00538373 2.67679e-23)
(0.992071 -0.0129896 6.01019e-23)
(0.99171 -0.0124727 3.67793e-23)
(0.94539 0.0676011 0)
(0.941776 0.0682437 -4.08267e-22)
(1.02234 0.000885285 0)
(1.02252 0.00102569 0)
(0.569748 0.0695673 -3.35949e-22)
(0.552709 0.0645425 3.5434e-21)
(0.998186 0.04338 -2.44189e-21)
(0.997387 0.0439669 0)
(0.918959 0.124024 -6.21429e-21)
(0.955425 0.127451 -2.57397e-20)
(1.01891 0.0395543 -4.06659e-21)
(1.01923 0.0404672 5.63105e-22)
(1.01968 0.039394 3.01886e-23)
(1.03539 0.117599 0)
(1.03645 0.118761 0)
(1.01061 -0.00143343 3.28077e-23)
(1.01157 -0.00181524 -1.58804e-22)
(1.01049 -0.00154423 4.39185e-23)
(1.03399 0.130926 -1.36773e-20)
(1.03473 0.131888 -7.52732e-21)
(1.03481 0.130608 -1.83588e-20)
(1.0374 0.0098896 7.82892e-21)
(1.0373 0.0106956 1.06728e-20)
(1.03653 0.00994098 -1.0929e-21)
(0.998287 -0.000692267 -2.22011e-22)
(0.997054 -0.000458725 -3.41402e-22)
(0.99459 -0.0108176 5.62747e-23)
(0.994637 -0.0103047 -3.8407e-23)
(0.995093 -0.0106628 6.77767e-23)
(0.994823 0.0406873 -6.17549e-22)
(0.994629 0.0417068 7.03231e-23)
(1.02709 0.108769 6.48021e-21)
(1.02581 0.108 1.40262e-22)
(1.0274 0.107138 1.76072e-20)
(0.35103 0.0308277 -5.50325e-21)
(0.371973 0.0367534 2.1689e-22)
(0.358398 0.031385 1.8244e-21)
(0.979532 0.136248 -1.36846e-20)
(0.974024 0.137291 2.15129e-20)
(1.0296 0.0368819 -1.61544e-20)
(1.03018 0.0363521 -7.83864e-21)
(1.02929 0.0360041 -4.06996e-21)
(1.00415 0.0479744 5.54655e-21)
(1.00446 0.0490222 -2.2262e-21)
(0.994529 0.00649663 2.60767e-23)
(0.994372 0.00613885 -7.01579e-22)
(0.994716 0.00621343 -1.0072e-21)
(1.02837 0.109189 5.25552e-21)
(1.02704 0.109881 -1.20229e-20)
(1.06835 0.0732119 3.47022e-21)
(1.06712 0.0742421 -8.28986e-21)
(1.06898 0.0746177 -8.46552e-21)
(0.989986 0.0851026 7.52638e-22)
(0.991066 0.085533 -1.82387e-21)
(0.990028 0.0865247 -2.13453e-21)
(0.686616 0.117208 -1.34948e-20)
(0.645752 0.11134 2.04795e-21)
(0.65626 0.111464 1.20744e-20)
(1.01804 0.0398487 -2.01519e-21)
(1.01841 0.0387025 -1.89106e-22)
(1.05499 0.11666 -4.15084e-21)
(1.05311 0.11682 -8.61604e-21)
(1.05435 0.11847 -6.30095e-21)
(0.905406 0.0659846 8.14974e-22)
(0.948987 0.0663476 6.2287e-22)
(0.486076 0.084232 -1.02568e-21)
(0.553558 0.0880473 -4.7191e-21)
(0.565666 0.0855238 6.33057e-22)
(0.279887 0.0301669 0)
(0.273853 0.029447 0)
(0.296027 0.03557 0)
(1.00113 0.0451204 1.0554e-21)
(1.00197 0.0454319 -2.94333e-21)
(1.00167 0.0444335 -1.47699e-22)
(0.995902 0.000199852 1.79003e-21)
(0.81971 0.0130456 0)
(0.875034 0.00514755 7.58634e-22)
(0.836226 0.0159506 0)
(0.994559 -0.011352 1.27407e-23)
(0.995062 -0.0117398 -5.50802e-24)
(0.983443 0.161308 -1.55216e-20)
(1.01634 0.163165 -2.60033e-21)
(1.00306 0.0109609 -2.5759e-21)
(1.0028 0.0105482 0)
(1.00267 0.0109705 0)
(1.03398 0.0145497 -1.09275e-21)
(1.03463 0.015197 -9.98508e-22)
(1.03371 0.0153246 4.43674e-21)
(0.988398 -0.0144339 -5.02551e-22)
(0.988688 -0.0154269 3.39006e-23)
(0.989251 -0.0146112 1.84413e-22)
(1.02883 0.136344 -7.2799e-21)
(1.00865 0.133919 -5.64295e-21)
(0.849506 0.0363113 -7.92663e-22)
(0.39805 0.0698474 0)
(0.431343 0.0731431 0)
(0.319102 0.0516683 -5.20426e-23)
(1.01298 0.0214321 -2.01719e-21)
(1.01239 0.0216678 0)
(1.0111 0.0558503 -5.34166e-21)
(1.0116 0.0549004 -2.86243e-21)
(1.01042 0.0548132 3.67674e-21)
(1.01983 -0.000595487 -2.7731e-23)
(1.02031 -0.000622149 3.13259e-23)
(1.02352 -0.000822529 -4.73969e-23)
(1.03333 0.0139644 0)
(1.03416 0.013785 0)
(0.986934 0.0641714 0)
(0.98565 0.0628613 -1.60056e-22)
(0.996583 0.0149739 4.56704e-21)
(0.996412 0.01535 7.71932e-24)
(0.996175 0.0149875 -1.20473e-21)
(0.995527 -0.000118853 -1.09796e-21)
(0.995804 -0.000143919 -7.30663e-22)
(0.624992 0.110932 -5.05661e-21)
(0.613502 0.108791 0)
(0.5898 0.103889 0)
(1.00963 -0.000774753 -5.38197e-22)
(1.01003 -0.000768476 -9.31898e-23)
(1.00651 -0.000407835 9.27291e-23)
(1.01051 -0.00127268 1.14891e-22)
(1.00892 -0.00108317 -4.04016e-22)
(1.00749 0.00783714 -1.77263e-21)
(1.00758 0.00832749 -3.76571e-22)
(1.00705 0.00802558 -6.31967e-21)
(0.842547 0.120981 6.12467e-21)
(0.854338 0.121724 -4.46021e-21)
(0.809915 0.116104 6.41861e-22)
(1.00592 0.0348538 0)
(1.00665 0.0349115 1.65721e-21)
(1.00616 0.0341599 -4.05364e-21)
(0.79942 0.00980311 -3.40767e-22)
(0.639954 0.106323 3.56073e-21)
(0.633824 0.106316 1.38853e-20)
(0.668374 0.107725 1.06906e-20)
(0.985744 0.0644389 -4.95995e-22)
(0.98678 0.0649457 -5.05846e-22)
(0.986565 0.0634834 -1.10101e-22)
(0.282384 0.0207285 5.44731e-22)
(0.439565 0.0967596 3.28732e-22)
(0.508943 0.102372 6.10195e-21)
(0.449792 0.0987897 1.0141e-21)
(1.03485 -0.00231344 -1.65051e-22)
(1.03511 -0.00255981 1.06918e-23)
(1.03518 -0.00231374 5.29104e-24)
(1.00023 0.0446172 3.80455e-21)
(1.00045 0.0458057 1.01296e-22)
(0.999812 0.0155647 -2.90101e-21)
(0.999437 0.0156607 -1.61502e-21)
(0.9999 0.0160059 1.32324e-21)
(0.703725 0.1104 5.09995e-21)
(0.706075 0.11225 0)
(0.666921 0.104644 0)
(1.07213 0.0455605 -8.38479e-21)
(0.676645 0.100025 -2.06573e-21)
(0.62786 0.0984105 0)
(0.650791 0.0980906 3.27617e-22)
(1.01327 0.0867661 -6.24222e-21)
(1.01444 0.0868094 6.54357e-21)
(1.01353 0.0882238 3.56095e-21)
(1.01486 -0.000666611 -3.83026e-23)
(1.01728 -0.000972762 1.18856e-22)
(1.01392 -0.000600181 7.3851e-22)
(1.03797 0.0292525 -3.29411e-21)
(1.03753 0.0282182 -5.10246e-21)
(1.0085 0.104383 3.03063e-21)
(1.00658 0.104715 0)
(1.00752 0.102952 -6.0305e-22)
(1.06955 0.0718372 1.21747e-20)
(1.06772 0.0715023 5.50335e-21)
(1.00562 0.0355615 0)
(1.00523 0.0347201 -1.58229e-21)
(1.06411 0.039107 0)
(1.06315 0.0377588 8.60181e-21)
(1.06231 0.0393347 1.00641e-20)
(0.999734 0.0151632 -2.13911e-23)
(1.02212 0.0221061 2.74075e-21)
(1.02219 0.0227299 9.09661e-21)
(1.01121 0.116435 -1.16635e-20)
(1.01207 0.116155 -7.67693e-21)
(1.01199 0.117878 -3.37562e-21)
(1.03323 0.130212 1.0761e-20)
(1.03358 0.131492 4.67527e-21)
(0.989793 0.0835275 2.36345e-21)
(0.987672 0.0845523 3.28931e-21)
(1.02195 0.0214316 4.69005e-22)
(1.02141 0.0218577 -7.8344e-21)
(1.00934 0.11704 4.07607e-21)
(1.00997 0.114959 -3.02959e-21)
(1.04646 -0.0092286 -5.27528e-24)
(1.04556 -0.00896741 2.85636e-22)
(0.988649 0.0434258 0)
(0.988453 0.0447696 1.26139e-22)
(1.01247 0.0853275 -1.74895e-21)
(1.01161 0.0868351 -6.78798e-21)
(1.04287 0.120027 1.1447e-20)
(1.0443 0.120673 1.49215e-21)
(1.01572 0.114454 -5.86275e-23)
(1.0172 0.113982 6.66455e-21)
(1.01603 0.113026 3.08965e-22)
(0.488378 0.0399388 -5.53368e-21)
(0.506669 0.0459159 1.33251e-20)
(0.492968 0.0415873 1.24323e-20)
(0.99124 0.000177488 -6.71727e-22)
(0.99155 0.000115111 2.22715e-22)
(0.37274 0.0336515 2.49618e-22)
(0.386095 0.0383427 -1.19726e-20)
(0.365216 0.0322833 1.79006e-21)
(1.02888 0.0500031 -4.90331e-21)
(1.02798 0.0504314 -1.03256e-20)
(1.02808 0.049235 -1.96098e-21)
(0.729277 0.122964 -5.28905e-21)
(0.719086 0.122766 -9.04848e-21)
(0.990366 0.00159795 3.58841e-23)
(0.990865 0.00186953 -9.25815e-23)
(0.996761 0.0145789 1.33578e-21)
(0.997011 0.0149583 2.20942e-21)
(1.00859 0.0452964 -3.15937e-21)
(1.00913 0.0461399 0)
(1.00947 0.0451695 -5.1393e-21)
(0.426281 0.0341101 4.6731e-21)
(0.423328 0.0348153 2.5517e-21)
(0.443183 0.0387103 -6.84557e-21)
(0.282905 0.029298 -5.96445e-21)
(0.256147 0.0240416 0)
(1.01005 0.0311593 1.38464e-21)
(1.00984 0.0317941 -4.1547e-23)
(1.00936 0.0311567 -1.37407e-21)
(0.985451 0.0722756 0)
(0.985053 0.0720356 -1.92674e-22)
(0.985991 0.0731079 0)
(1.00041 0.0393636 -1.70226e-21)
(1.0002 0.0385868 9.23568e-22)
(1.00099 0.0388948 2.44461e-21)
(1.01176 0.0568142 -6.34719e-23)
(0.994105 -0.0109512 -7.51328e-23)
(1.00936 0.105762 2.76183e-21)
(1.00549 0.021906 0)
(1.00534 0.0225102 0)
(0.995467 0.00389613 0)
(0.995586 0.0036788 -7.83175e-22)
(0.995328 0.00360924 0)
(0.994107 0.0192231 -6.51955e-22)
(0.994163 0.0192695 0)
(0.994088 0.0192775 0)
(0.994178 0.0190886 4.46141e-23)
(0.99392 0.0189873 -5.82346e-22)
(0.476774 0.0775702 -1.09936e-20)
(1.05564 0.115308 -6.95248e-21)
(1.0566 0.116584 -2.31284e-21)
(1.00218 0.046452 0)
(0.765117 0.106082 2.6052e-21)
(0.764313 0.106331 -5.2907e-21)
(0.799874 0.111084 -6.90506e-21)
(1.00099 0.000825709 0)
(1.00041 0.000630663 0)
(1.0019 0.00100764 -8.93513e-22)
(1.0045 -0.0104203 0)
(1.00409 -0.0105541 0)
(1.0042 -0.00995249 0)
(1.00479 -0.0108673 1.70115e-23)
(1.00486 -0.0102865 0)
(0.42996 0.0932374 -5.74458e-22)
(1.01286 0.115714 -1.64188e-21)
(1.01429 0.114957 -5.56773e-21)
(1.01272 0.114184 6.03785e-22)
(1.00777 0.117484 6.66762e-22)
(1.00504 0.117921 -3.49137e-21)
(1.007 0.115945 -8.77711e-21)
(1.02032 0.00344467 6.70164e-22)
(1.02052 0.00386135 1.36042e-20)
(1.02079 0.00345866 -6.25495e-21)
(1.02315 -0.000420731 3.33661e-22)
(1.01768 -0.000322137 -6.99778e-24)
(0.850929 0.0653833 -1.96113e-21)
(0.85497 0.0647291 8.15157e-22)
(0.379177 0.0345514 1.17102e-20)
(1.00426 -0.00862988 -4.41732e-23)
(1.00432 -0.00899227 -3.38171e-24)
(1.00387 -0.00880405 0)
(1.0041 -0.00818767 -4.4315e-22)
(1.0046 -0.00842455 -3.41365e-23)
(1.00865 -0.000762652 6.49326e-23)
(1.00399 -0.000330526 3.64797e-23)
(1.0051 -0.0113339 1.74076e-23)
(1.0047 -0.0114996 3.05263e-22)
(1.00544 -0.0118372 -4.35924e-23)
(1.00548 -0.0112215 1.99366e-23)
(0.495086 0.0487777 7.17968e-21)
(0.509166 0.0524157 1.87803e-20)
(0.53168 0.0857682 -2.4398e-21)
(0.530301 0.087544 8.2233e-21)
(0.567827 0.0885252 1.55397e-20)
(1.0034 0.01876 4.55966e-21)
(1.00342 0.0182866 3.00421e-21)
(1.00378 0.0186835 6.83539e-21)
(1.037 -0.00398685 -4.07368e-24)
(1.03733 -0.00427352 -2.59435e-24)
(1.03679 -0.00420637 -2.66836e-24)
(1.02106 0.0968383 1.77366e-21)
(1.01998 0.0956761 0)
(1.02147 0.0954624 -5.02736e-21)
(0.479696 0.0518127 0)
(0.467936 0.0472894 0)
(0.485668 0.0523459 0)
(1.00713 -0.000977812 1.04408e-23)
(1.00514 -0.000596419 -9.53074e-23)
(1.00555 -0.000619231 9.71661e-24)
(1.01986 0.00349927 -9.70329e-21)
(1.02009 0.00309542 -5.84201e-21)
(0.985007 0.0713332 3.24078e-24)
(0.965121 0.0723725 4.11589e-22)
(0.978843 0.16249 -6.03087e-21)
(0.972584 0.163347 -1.06359e-21)
(1.00754 0.166257 1.0411e-22)
(1.01339 0.116879 2.46683e-21)
(0.768336 0.106509 6.40246e-21)
(0.734557 0.100713 5.96517e-21)
(1.00715 0.0925843 -4.19771e-21)
(1.00632 0.0912548 3.8319e-21)
(1.00554 0.0926561 1.08111e-23)
(1.00336 0.0109418 -2.371e-21)
(1.00325 0.0113389 1.57617e-21)
(0.563631 0.103142 7.32456e-21)
(0.568533 0.103695 6.47875e-22)
(1.02198 0.0981215 -7.86298e-22)
(1.02038 0.0983328 5.62983e-21)
(0.998807 0.0438219 -4.80134e-21)
(0.998813 0.0428056 -2.09626e-21)
(1.04125 0.107752 0)
(1.04002 0.108484 3.73629e-21)
(1.04145 0.109363 0)
(1.01021 0.0305195 1.38151e-21)
(1.01071 0.0311045 -1.71014e-21)
(0.54404 0.0836057 -2.01354e-20)
(1.03727 0.0114136 5.03432e-21)
(1.03656 0.0114333 2.60845e-21)
(1.03722 0.0121664 6.60986e-21)
(1.01773 0.0686435 -8.61344e-22)
(1.01674 0.0689919 -3.50843e-21)
(1.0179 0.0696347 -3.28271e-21)
(1.0157 0.0862916 3.85548e-21)
(1.01719 0.0855683 1.2609e-21)
(1.01568 0.084781 -3.35057e-21)
(1.00262 0.018903 0)
(1.00305 0.0188039 -1.73414e-21)
(1.0026 0.0184673 9.03007e-22)
(1.0054 -0.000119195 0)
(1.02993 0.0377814 6.05565e-21)
(0.993762 0.0185513 -3.52822e-22)
(0.993834 0.0181763 -7.98166e-22)
(0.99341 0.0183611 7.41087e-22)
(0.989604 -0.00172654 -8.56133e-23)
(0.989409 -0.00127761 3.79942e-22)
(0.989084 -0.00163898 6.93806e-22)
(0.409209 0.0478983 -6.10665e-21)
(0.397609 0.043179 -1.26733e-20)
(0.390334 0.0425493 -7.08357e-22)
(0.746809 0.0262428 2.62473e-22)
(0.792747 0.0278608 -1.8536e-21)
(0.821832 0.0265855 -2.85733e-23)
(0.993284 -0.00856849 -5.95669e-23)
(0.993353 -0.00810245 1.05183e-22)
(0.993747 -0.00845056 -4.55199e-23)
(1.00373 -0.00781067 4.94175e-23)
(1.00405 -0.00763745 2.86899e-23)
(0.996654 0.0157229 -1.66804e-21)
(0.996232 0.0157303 -6.09029e-22)
(1.00341 -0.00798886 -1.82661e-23)
(1.00344 -0.00748467 -1.73547e-23)
(1.03816 0.0113849 -1.36941e-22)
(1.01652 0.000700261 0)
(1.01209 0.00041272 0)
(1.03499 0.0734921 1.5937e-20)
(1.0349 0.0749553 2.92651e-21)
(1.03357 0.074183 1.36257e-21)
(0.993199 -0.00901653 7.79518e-24)
(0.992807 -0.00864943 -2.5139e-23)
(0.268074 0.0334586 1.95848e-22)
(0.287769 0.0396772 -5.78827e-22)
(0.612172 0.0831868 1.08902e-21)
(0.631378 0.0862374 -7.77156e-21)
(1.01832 0.0179846 6.50031e-21)
(1.01875 0.0175278 -3.82883e-21)
(1.01796 0.0173706 7.03042e-22)
(0.994639 0.0176139 -5.3486e-22)
(0.994559 0.0179626 1.64232e-21)
(0.994914 0.0179155 1.33452e-21)
(0.989646 0.105792 0)
(0.989045 0.103607 0)
(0.988744 0.105282 0)
(1.01218 -0.01345 1.65682e-25)
(1.01267 -0.0139829 9.41741e-23)
(1.01262 -0.0132121 3.08303e-22)
(0.991768 0.062295 2.338e-21)
(0.991274 0.063183 1.27821e-21)
(0.992524 0.0632278 -9.40122e-22)
(0.42894 0.0537252 6.41918e-21)
(0.421355 0.0528097 -5.09807e-21)
(1.01173 -0.0129652 -9.79238e-23)
(1.01173 -0.0137312 -3.22012e-22)
(0.451536 0.0430927 0)
(0.445136 0.0424322 0)
(0.989822 -0.00217065 -3.4938e-22)
(0.990096 -0.0017943 -7.58491e-22)
(0.88464 0.124708 7.33575e-21)
(0.840123 0.120828 6.96211e-21)
(1.01517 -0.000652197 3.016e-23)
(1.01073 -0.000337353 -1.60786e-22)
(1.00038 0.0277635 0)
(1.00011 0.0271965 0)
(1.00073 0.0272544 0)
(1.00224 0.0189859 0)
(1.00264 0.0193493 3.66994e-21)
(1.00143 0.0102416 1.99439e-21)
(1.00114 0.00989714 1.80663e-21)
(1.00148 0.00987061 0)
(1.02462 0.120716 2.89156e-21)
(1.02562 0.119904 -7.37657e-21)
(1.02563 0.12132 7.20405e-23)
(0.99565 0.000363495 4.75157e-22)
(0.995788 0.000357089 1.35558e-21)
(0.994786 0.000166769 1.48368e-21)
(0.984509 0.0639508 -1.85393e-22)
(0.984735 0.0654081 -3.61792e-22)
(1.02278 0.0537978 -4.27058e-21)
(1.02178 0.0541718 -4.04582e-21)
(1.02212 0.0529257 1.3709e-21)
(0.988278 -0.0136967 -1.157e-22)
(0.987493 -0.014264 5.45408e-23)
(0.982473 0.0748102 1.01024e-22)
(0.982372 0.0730905 -1.14334e-22)
(0.983593 0.0739872 7.97485e-22)
(0.254377 0.0282415 1.67364e-20)
(1.00823 -0.00131544 2.63511e-23)
(1.00864 -0.00127483 -4.27403e-22)
(1.03384 0.0892266 -2.85043e-21)
(1.03404 0.0906262 2.23374e-21)
(1.03533 0.0898032 -3.08897e-23)
(0.994252 0.0188489 0)
(0.994034 0.0187235 -3.52733e-22)
(0.994373 0.0185863 4.51546e-22)
(1.01736 0.0400677 -8.60071e-21)
(1.01655 0.0401845 -5.9624e-21)
(1.01693 0.0391894 -3.62351e-21)
(0.994454 0.0190387 -8.0652e-22)
(0.994727 0.0189967 -1.17907e-21)
(1.0235 0.0379311 -6.25026e-21)
(1.02365 0.038839 0)
(0.990893 -0.000787686 -2.18293e-22)
(0.990631 -0.00110272 1.93551e-22)
(0.991051 -0.00119449 2.76399e-22)
(0.996317 0.00048329 -1.55661e-21)
(0.995396 0.000318248 -1.44201e-21)
(1.00519 0.100398 3.91335e-22)
(1.00439 0.102022 6.40272e-21)
(1.00645 0.101597 2.85465e-21)
(0.978519 0.012507 1.13893e-22)
(0.977393 0.0114742 -9.98018e-23)
(0.979153 0.0111213 -3.98125e-23)
(1.01893 0.0681556 2.68754e-21)
(1.01765 0.0675719 7.51717e-21)
(1.02425 0.0376357 -5.68157e-21)
(1.02332 0.0371537 -3.46135e-21)
(1.01952 0.00346708 -4.23734e-21)
(1.01935 0.00307458 -6.78574e-21)
(1.0191 0.00341469 0)
(0.636864 0.111563 -6.61495e-22)
(0.665359 0.116599 -5.48655e-21)
(0.422714 0.0316858 7.9365e-21)
(0.393616 0.0297414 8.24234e-21)
(0.994019 0.00512292 0)
(0.9939 0.00477605 0)
(0.994208 0.00487476 0)
(1.0301 -0.0204138 -6.27275e-23)
(1.03062 -0.0200666 1.61783e-22)
(1.0285 -0.0214645 0)
(1.01784 0.0408531 5.71093e-21)
(1.00128 0.0154064 0)
(1.00171 0.0185847 6.47145e-22)
(0.998637 0.0172986 -1.9177e-22)
(1.05369 0.136202 0)
(1.05276 0.137794 0)
(1.05505 0.137493 -1.06506e-20)
(0.63304 0.0838106 -6.87222e-21)
(0.613994 0.0786633 3.61077e-21)
(0.607602 0.0774454 -6.38002e-21)
(0.694839 0.103228 5.34103e-22)
(0.719052 0.101419 2.08446e-21)
(1.06596 -0.00207012 -2.97868e-23)
(1.0654 -0.00239147 -2.70344e-22)
(1.05704 -0.00153714 0)
(0.992526 0.0861926 4.73804e-21)
(0.992301 0.0845457 3.30755e-22)
(0.994763 0.0172547 -1.37072e-21)
(0.994363 0.0173214 -8.89064e-22)
(1.03333 0.140373 -1.01863e-21)
(1.0249 0.138283 5.19857e-21)
(1.00956 0.0114237 0)
(1.00084 0.012488 2.8455e-22)
(1.0358 0.136184 -1.35807e-21)
(1.03654 0.135205 1.00786e-20)
(1.01684 0.000754458 0)
(1.01202 0.000236647 0)
(1.00002 0.0282099 3.01772e-21)
(0.999387 0.0281024 -2.84724e-22)
(0.984908 0.0703945 2.10187e-22)
(0.998239 0.015688 1.37352e-21)
(0.998633 0.0156547 1.71045e-22)
(0.998459 0.01607 -7.46151e-22)
(0.996947 0.0349853 -7.65064e-22)
(0.996698 0.0344995 -4.72302e-22)
(1.0431 0.118568 0)
(1.04155 0.11929 0)
(1.00191 -0.000709129 3.81461e-23)
(1.00201 -0.000642346 1.59993e-23)
(1.00022 -0.000396112 -1.14269e-23)
(0.734942 0.116611 3.95835e-21)
(0.696391 0.108849 -1.72765e-21)
(1.01016 0.00284268 -6.24559e-22)
(1.01016 0.00334707 7.14587e-21)
(1.00975 0.00307013 8.68174e-21)
(1.08298 0.0887523 -1.27933e-20)
(1.08394 0.0907516 -1.43563e-20)
(1.02064 -0.0196815 -1.50023e-22)
(1.02128 -0.0193151 7.60731e-24)
(1.02145 -0.0202166 -7.07926e-23)
(0.372194 0.036562 -1.2452e-22)
(0.378044 0.0328688 4.99803e-21)
(0.997483 0.00269261 3.10154e-22)
(0.997335 0.00252798 -3.14197e-21)
(0.997508 0.00248809 -1.17918e-21)
(1.01992 0.0678713 -7.00323e-21)
(1.0199 0.0667623 -7.33504e-21)
(1.02093 0.0674947 -3.60311e-22)
(0.999887 0.0397866 -1.22312e-21)
(1.00075 0.0400708 2.38948e-21)
(1.06666 -0.00166104 1.17811e-21)
(1.06839 -0.00183986 -2.66649e-23)
(1.00327 -0.00105339 6.08379e-23)
(1.00201 -0.000795566 3.20425e-22)
(1.04266 0.11005 0)
(1.04399 0.110864 1.0432e-21)
(1.044 0.109223 -6.43888e-21)
(1.01137 0.15658 -7.62726e-21)
(1.03248 0.158839 6.59249e-21)
(1.01492 0.15563 1.0686e-20)
(1.01261 0.0253315 -2.20674e-21)
(1.01205 0.025558 6.35929e-21)
(1.0122 0.0247285 -2.53309e-21)
(0.997846 0.0156967 1.25716e-21)
(0.998051 0.0152923 1.36013e-21)
(0.587234 0.0741977 4.52831e-22)
(0.593673 0.0749607 -4.64356e-21)
(1.00089 0.159268 7.78712e-22)
(1.0072 0.158474 -3.28644e-20)
(1.02851 0.161692 -1.70629e-20)
(0.90067 0.124494 -3.73449e-22)
(0.925703 0.12571 -5.46507e-22)
(0.878686 0.124914 1.58674e-21)
(0.967657 0.0373082 -3.77207e-22)
(0.933148 0.035906 -4.33261e-21)
(1.01123 -0.012497 6.1799e-23)
(1.01171 -0.0122269 4.8197e-23)
(1.00497 0.0194973 0)
(1.00499 0.0189753 2.77542e-21)
(1.00539 0.0193879 2.78933e-21)
(0.96628 0.164505 9.08135e-21)
(0.960137 0.165497 -2.20194e-21)
(0.997296 0.168734 9.42878e-21)
(0.993804 0.0867782 3.1868e-22)
(0.992254 0.0877692 2.93785e-22)
(1.01073 -0.0128095 5.53641e-23)
(1.01067 -0.0120702 3.68634e-22)
(0.994179 0.019094 6.26435e-22)
(1.01755 0.0214759 1.25905e-21)
(1.01768 0.0221382 8.12826e-21)
(1.01709 0.0217074 1.36201e-20)
(0.998625 0.0521121 0)
(0.997509 0.0519553 4.51943e-22)
(0.997917 0.0531385 2.24341e-22)
(1.01993 0.068909 -4.26204e-21)
(1.01907 0.11051 -3.21031e-22)
(1.0204 0.110028 4.19295e-21)
(1.01929 0.108965 -1.47511e-21)
(1.00068 0.0841798 4.65284e-21)
(1.00154 0.0829171 4.38231e-21)
(1.00239 0.0843305 -9.30386e-22)
(0.992696 0.06132 9.441e-22)
(0.991144 0.0611344 -9.40299e-22)
(1.07722 0.0882875 -9.64104e-21)
(1.07548 0.0886145 4.59939e-22)
(1.07646 0.0903041 -1.61474e-21)
(0.544705 0.0589563 -5.11658e-21)
(0.526711 0.0533843 -1.031e-20)
(0.538846 0.0579575 -4.96593e-21)
(0.994335 0.00674897 1.17663e-21)
(0.994681 0.00681282 1.18095e-21)
(1.01304 0.0259521 -4.07097e-21)
(1.01318 0.0251169 3.52434e-21)
(0.994187 0.0192756 5.86573e-22)
(0.994195 0.0194131 -1.3585e-22)
(1.02705 0.12519 2.77398e-21)
(1.02789 0.125462 8.02593e-21)
(1.02778 0.126389 1.51005e-20)
(1.00448 -0.000691148 -4.68333e-22)
(1.00219 -0.000313005 1.22288e-22)
(1.00431 -0.000681655 1.446e-23)
(0.459939 0.034424 -1.53205e-20)
(1.07896 0.088335 -2.30581e-21)
(1.07771 0.0867897 -7.10153e-21)
(0.916353 -0.0624393 1.11269e-21)
(0.899773 -0.0594847 -1.0807e-22)
(1.01322 0.0227042 -7.95742e-21)
(1.01384 0.022966 3.17465e-21)
(0.996441 0.0854946 -1.01107e-21)
(0.995503 0.0867511 -2.0789e-21)
(0.997444 0.0868471 2.09584e-21)
(1.03199 -0.0191727 -6.04874e-23)
(1.02952 -0.0208571 1.11301e-21)
(0.996732 0.0323126 0)
(1.00374 0.0337102 0)
(0.965817 0.0357494 0)
(0.994002 -0.0150519 -2.10147e-22)
(0.99348 -0.0145527 0)
(0.994164 -0.0143902 -3.99387e-23)
(1.00859 0.118847 3.52628e-21)
(0.989528 0.107632 2.21918e-21)
(0.998971 0.0397159 4.15135e-22)
(0.999313 0.0405746 2.1729e-21)
(1.0179 0.0183546 3.16137e-21)
(1.01868 0.0185734 -1.40176e-21)
(1.02577 0.131234 1.07297e-20)
(1.02438 0.130835 -3.79567e-21)
(1.02828 0.132209 5.19144e-21)
(1.02335 -0.0221002 0)
(1.02401 -0.0215874 0)
(1.02312 -0.0211653 -1.51154e-22)
(0.645081 0.107298 -4.60487e-21)
(0.608321 0.105299 -1.80958e-20)
(1.01547 0.115862 -4.91177e-21)
(0.993794 -0.0157188 2.17481e-23)
(0.994568 -0.0154993 -1.54858e-23)
(1.00474 0.0334973 0)