/*--------------------------------*- C++ -*----------------------------------*\
| =========                 |                                                 |
| \\      /  F ield         | OpenFOAM: The Open Source CFD Toolbox           |
|  \\    /   O peration     | Version:  v2012                                 |
|   \\  /    A nd           | Website:  www.openfoam.com                      |
|    \\/     M anipulation  |                                                 |
\*---------------------------------------------------------------------------*/
FoamFile
{
    version     2.0;
    format      ascii;
    class       volVectorField;
    location    "150";
    object      ddt0(U);
}
// * * * * * * * * * * * * * * * * * * * * * * * * * * * * * * * * * * * * * //

dimensions      [0 1 -2 0 0 0 0];


internalField   nonuniform List<vector> 
13851
(
(-0.00770968 -0.00244961 -1.72138e-18)
(-0.00292748 3.22482e-05 1.22391e-18)
(-0.00329059 7.37907e-06 -1.03436e-18)
(0.00146603 7.14943e-05 6.79255e-17)
(0.00039863 1.6874e-05 -1.93472e-19)
(-0.00330448 0.000646885 -9.38709e-18)
(-0.00285195 -0.00223135 2.66521e-19)
(2.68898e-05 1.51652e-05 -3.77456e-19)
(0.0165237 0.00085181 -9.58031e-18)
(6.33769e-05 0.00107946 -2.9079e-19)
(-0.00531357 0.0031756 -1.67184e-17)
(0.000172063 0.000422716 -7.79141e-19)
(-9.43671e-05 0.00163686 -4.79744e-19)
(0.0157266 0.000336769 1.77989e-17)
(-0.00536773 -0.00145299 -1.25601e-17)
(-0.0136193 -0.00488523 1.22904e-17)
(0.00497157 0.000811113 -7.57288e-17)
(-0.00120297 0.000213598 -3.01689e-18)
(-0.00149062 -0.00160088 -2.51812e-17)
(-0.00794303 -0.00239587 -3.64432e-19)
(-0.00582732 -0.000929245 -4.70571e-18)
(-0.00163105 0.00242108 -5.40115e-19)
(0.0240025 -0.00886052 1.01158e-17)
(8.02596e-05 8.30534e-06 -1.97189e-18)
(0.0414552 -0.00378555 1.30282e-17)
(-0.00720293 -0.00471825 -1.95873e-17)
(0.0256941 -0.00190093 2.42026e-17)
(0.033637 -0.00418257 3.86752e-17)
(0.0203504 0.000660348 1.07636e-17)
(-0.000417188 0.000218318 -5.06387e-19)
(0.00729003 0.00115405 -3.3434e-17)
(-0.0031008 -0.00216638 1.05008e-17)
(-0.00701693 -0.00218808 -1.11283e-17)
(0.0166312 -0.000308336 -6.10968e-18)
(-0.00499507 0.00249522 -1.53422e-18)
(0.0209445 0.000351801 4.9313e-18)
(2.36759e-05 7.51126e-06 2.06031e-18)
(0.0416993 -0.0070413 -2.584e-17)
(0.0119406 0.00118965 -3.99742e-17)
(-0.000388598 0.00139522 -1.82024e-18)
(0.0160732 -0.000176954 5.91536e-18)
(0.020299 0.000752013 -1.2235e-17)
(0.000450719 0.000378021 1.23685e-17)
(-0.00136387 0.00695688 -1.32877e-17)
(0.0195066 0.00112156 -1.05323e-17)
(-0.000258933 0.000727765 -8.997e-19)
(-0.000619918 -7.66204e-05 1.57785e-19)
(-0.00955123 -0.00357907 -8.61769e-18)
(-0.00162489 0.00146412 -4.09606e-19)
(-0.000152646 0.00163538 5.24535e-18)
(0.0108595 0.000667791 -3.37058e-18)
(-2.30632e-06 0.00178275 -4.25789e-18)
(-0.0122012 -0.00517526 -2.58444e-17)
(-0.00449898 -0.00301245 -2.18728e-19)
(0.0173514 0.000170432 -4.72648e-18)
(-0.000385875 0.00141726 -2.57345e-19)
(-0.00700989 -0.00227132 1.40149e-17)
(0.0156777 -0.000117844 -2.04692e-18)
(0.0244683 -0.00221737 -4.42425e-17)
(0.0142044 0.000191816 -1.36865e-18)
(0.000188628 0.000400279 -6.54023e-19)
(0.0256869 -0.00217574 2.74811e-17)
(7.68697e-05 0.000721796 -2.94249e-18)
(-0.00154238 0.00151817 6.86434e-19)
(-0.00059605 0.00623629 -3.21631e-18)
(-0.000415367 0.00624424 -1.73136e-18)
(0.014288 0.00019515 -2.01587e-17)
(-0.000362863 0.00488885 -2.76597e-17)
(-0.000774222 0.00121461 2.48345e-20)
(0.0030091 0.000609318 -2.42279e-17)
(0.00632026 0.00122739 -7.3905e-18)
(-0.0063767 -0.000910164 8.48026e-18)
(-0.000105551 0.00136432 -1.86409e-18)
(0.0143105 0.000150686 -7.56252e-17)
(-0.00499564 -0.00261197 6.03802e-18)
(-0.00109599 0.00213417 7.97809e-19)
(0.00517011 0.000876148 8.56119e-17)
(-0.000490486 -4.57233e-05 -2.77898e-18)
(0.0431257 -0.00425227 -2.95949e-17)
(3.17162e-05 0.000748943 3.32727e-19)
(-0.000772378 0.00121905 -7.0256e-21)
(-0.00933265 0.00460143 -1.53044e-17)
(-0.00446329 0.00246447 -2.08543e-18)
(0.0153982 0.000289053 1.76164e-18)
(0.0142862 0.000154747 7.26518e-17)
(0.00698821 0.0012586 7.04614e-17)
(-0.00175597 0.00244016 -1.93446e-19)
(0.0212235 0.000267101 1.6636e-18)
(7.65797e-05 0.00111583 4.18095e-18)
(0.00736229 0.00111481 2.92917e-17)
(-3.85097e-05 0.001818 3.09793e-18)
(-0.0031624 -0.00215183 -2.26782e-18)
(0.00567808 0.000433968 -4.73851e-17)
(0.0059163 0.00123397 -9.07208e-17)
(0.012249 0.00129236 -1.32974e-17)
(-0.0016363 0.00671232 -4.65726e-18)
(-0.000193372 0.000871907 -3.24268e-18)
(-0.012301 -0.00382313 -9.8279e-19)
(0.013012 0.000480872 4.99165e-18)
(-0.00538974 0.0054999 7.23698e-18)
(-0.0115134 -0.00367183 3.44778e-18)
(-0.00046732 0.00437052 -3.40585e-17)
(-0.000568324 0.00452547 4.15625e-17)
(-0.000176398 0.00152207 2.6056e-20)
(-0.000439109 0.000661596 -3.60612e-20)
(-0.00614383 -0.000185521 -2.83664e-17)
(-0.000372136 0.000663933 5.13733e-20)
(0.00679119 0.00126232 -1.01763e-18)
(-0.00317658 -0.00208016 1.56185e-19)
(-0.00106889 0.000203896 6.1378e-18)
(-0.00162379 0.00319537 7.39245e-20)
(-0.000306469 0.000728272 2.47591e-20)
(-0.00882474 0.00220106 1.01726e-17)
(-0.00625693 0.00172299 -3.70967e-17)
(-0.00671332 -0.00171472 -3.37566e-17)
(-0.00434637 -0.0029034 3.15741e-18)
(-0.000105181 0.000186347 1.05279e-19)
(-1.18938e-05 1.52175e-05 3.64339e-19)
(0.000998985 0.000169408 -7.87056e-17)
(0.0039748 0.00049107 -2.86047e-17)
(-0.00215474 0.00641329 -4.65809e-19)
(-0.000785766 0.000191467 -2.09084e-18)
(-0.000614988 0.00129896 9.79936e-19)
(0.0144458 8.4886e-05 4.24671e-18)
(-0.0108298 -0.00164215 6.02253e-18)
(-0.000442262 0.005413 -3.50953e-17)
(-0.000100209 0.000850643 5.65374e-18)
(-0.00378757 0.00393629 1.17017e-17)
(0.0154189 -0.000199496 9.97953e-18)
(-0.00591303 -0.00146421 -2.51993e-17)
(-0.0015843 0.00247928 4.31682e-19)
(-0.00386499 0.0016901 1.41959e-17)
(0.037194 -0.00491026 8.60016e-17)
(0.0163315 -0.000200501 1.34762e-19)
(-0.00597496 0.00322297 9.52394e-18)
(0.0116648 0.00132934 -2.57701e-17)
(-0.000315906 0.00480997 -3.51282e-17)
(0.00665941 0.00125689 5.04387e-17)
(-0.000371164 0.00398669 -2.22203e-17)
(-0.0062432 -0.00171357 4.91035e-18)
(-0.00893538 0.00453097 1.52809e-17)
(-0.000358405 0.00216029 1.39746e-18)
(6.2678e-05 0.00115004 -7.52874e-18)
(-0.000741556 0.00562825 -2.64221e-17)
(0.0391016 -0.00239417 3.53549e-17)
(-0.000918649 0.00222429 1.7293e-18)
(-0.000464604 -5.45036e-05 2.06448e-18)
(0.00599999 0.00122447 2.36146e-17)
(0.0186867 0.000659423 -1.61287e-17)
(-0.00402503 0.00403803 -1.39938e-17)
(-0.0120836 -0.00425059 1.75591e-17)
(-0.00900162 0.00227074 -5.88793e-18)
(-0.00644139 0.00175919 7.11506e-18)
(-0.0128736 -0.00022527 -1.57238e-17)
(-0.000130624 0.00190253 -9.64273e-18)
(5.4144e-06 0.00144409 2.99945e-19)
(0.000210484 0.00031298 1.29206e-19)
(0.0111434 0.00113061 6.48159e-17)
(-0.00624279 -0.00158314 -2.01059e-17)
(-0.00304439 -0.00138591 -3.24434e-18)
(0.000108709 1.91508e-05 -2.14779e-18)
(0.0205478 0.0005362 -6.82528e-18)
(-0.00547269 -0.000285216 1.82813e-17)
(-0.00950446 -0.00348097 -2.4527e-17)
(0.01578 0.000343645 -3.27892e-17)
(0.0172593 0.00119119 -7.43055e-18)
(0.0171913 0.00119894 -1.66629e-18)
(0.0108738 0.000750872 1.3433e-18)
(-0.00154659 0.00310159 7.80481e-19)
(0.0287825 -0.00131539 7.79426e-18)
(0.000182208 0.000374357 -1.2722e-18)
(-7.62267e-05 0.000174616 -2.50133e-19)
(-0.00673132 0.000225978 5.79549e-18)
(0.00035238 1.54906e-05 9.71653e-19)
(0.0126897 0.00140267 7.46667e-20)
(0.026826 -0.00335078 4.23305e-18)
(-0.0116582 -0.00201733 9.13816e-18)
(-8.04178e-05 0.000162945 5.23235e-19)
(-0.00508409 -0.00277797 1.7714e-18)
(-0.0117054 -0.002348 -3.37819e-18)
(-0.0121588 -0.00163885 -8.53101e-18)
(-0.00181331 0.00695501 4.96531e-18)
(-0.00168408 0.00302215 2.80348e-20)
(-0.00599437 -0.00152127 1.97919e-17)
(0.00219206 0.000405665 -2.60207e-17)
(0.0188049 0.000777564 1.38803e-17)
(-0.00706099 -0.00210634 -5.72456e-18)
(-0.000320684 0.00352348 -1.06635e-17)
(-0.000151295 0.00179575 1.24341e-17)
(-0.000327508 0.000424145 -4.29194e-19)
(0.0401658 -0.00307556 7.51353e-18)
(-0.00621069 -0.0015129 -7.81142e-18)
(0.0157897 0.000209476 2.26317e-18)
(-0.00336136 0.000560158 -3.48323e-18)
(-0.000910758 0.00215922 1.28843e-18)
(-0.0123302 -0.00506943 7.72796e-18)
(-0.00759943 -0.00205027 1.08224e-17)
(-0.00175205 -0.000401109 3.12244e-18)
(-0.00135996 0.000473274 3.06254e-18)
(-0.000424133 0.0050153 -3.01574e-18)
(-0.00834668 0.00470901 2.43813e-17)
(0.0144419 0.000813062 -5.57146e-18)
(0.0159294 -0.000127894 -1.87873e-17)
(-0.00535155 -0.0015316 -1.06661e-17)
(-0.00224297 0.00950983 -2.22204e-17)
(0.0140641 0.000774859 -3.00017e-17)
(-0.000136342 0.00264643 -1.51811e-17)
(-0.00616077 -0.00229459 4.1536e-18)
(0.016186 0.000771153 5.4505e-18)
(-0.00289288 0.00093495 1.31347e-18)
(-0.0128412 -0.00615296 -1.02964e-17)
(-0.000629604 0.00128301 4.8568e-19)
(-0.00942626 0.0048973 -1.96408e-17)
(3.68196e-05 0.000107053 1.0713e-18)
(-0.00487512 0.00227912 -2.08517e-17)
(-0.00126694 0.00228167 -5.06834e-19)
(-0.000133342 0.00158216 8.87421e-18)
(-0.0120406 -0.00339105 -2.49946e-17)
(-0.00162761 4.20143e-05 5.16776e-18)
(-0.00111127 0.00691509 -3.15355e-17)
(-0.000129583 0.000150025 -5.28031e-19)
(-0.00787582 -0.00240912 -2.48767e-17)
(0.0155596 0.000214306 -8.64448e-18)
(0.0121458 0.00136711 -1.09795e-17)
(-0.000407698 0.00347811 1.86381e-17)
(-0.00624216 -0.00235307 -1.11929e-18)
(4.20803e-05 5.35789e-05 -9.13681e-19)
(-0.000664819 0.00547868 -1.09617e-18)
(0.000122812 0.000669032 1.19589e-18)
(-0.00508018 0.00233099 2.21599e-17)
(0.00746774 -0.000962134 3.37408e-17)
(-0.000312096 0.00346805 -4.3442e-17)
(-0.00284055 0.000849182 2.99914e-18)
(5.51099e-05 0.000636363 2.77401e-18)
(0.016273 -0.000123477 2.36375e-17)
(-0.000444035 0.000194791 -1.8213e-20)
(0.0207578 -0.00493878 3.45376e-17)
(0.0157348 0.000240437 -1.22156e-17)
(-0.00507119 0.00529491 -1.16009e-17)
(5.22964e-05 1.84679e-05 2.44564e-18)
(-0.0100192 0.00903111 3.72795e-18)
(0.0144815 0.00021222 1.63158e-17)
(0.019658 0.00115268 3.05783e-18)
(-0.0132117 -0.00569408 7.41438e-18)
(-0.00525655 -0.000244964 -1.14862e-18)
(-0.000585104 0.00581682 -6.22511e-17)
(-0.00826612 -0.00350318 2.19488e-17)
(-0.00500885 -0.00289617 -2.38784e-18)
(-0.00181702 0.00666306 1.09723e-17)
(-0.00186551 0.00315871 -1.12858e-18)
(0.0196573 5.48852e-05 1.48725e-17)
(-0.00839391 -0.00123913 2.42167e-18)
(0.000202149 2.23122e-05 -8.04356e-21)
(-0.00397002 -0.000387276 -7.33413e-18)
(-0.0137081 -0.00446014 -8.69498e-18)
(0.0207612 0.000442095 1.35965e-17)
(0.0217939 -0.000486596 -1.18025e-18)
(-0.000349311 0.000406146 -3.05542e-19)
(-0.000288308 0.00541356 2.20627e-17)
(3.33219e-05 0.00109372 8.24058e-18)
(-0.00831258 -0.00217107 1.0547e-18)
(-0.0129761 -0.00122372 -4.65622e-18)
(-0.0043484 -0.000397337 -1.06281e-17)
(-0.00554382 -0.000418305 -8.44427e-17)
(-0.00903846 -0.00114125 -4.46942e-18)
(-0.000110188 0.00114685 1.33477e-18)
(-0.000608723 0.00445706 -1.35438e-17)
(-0.00899823 -0.00327922 -2.15114e-18)
(0.0318101 -0.00527349 2.93085e-18)
(0.000161664 0.00066426 -5.89264e-19)
(-0.000141663 0.00157695 -1.06591e-17)
(-0.000364035 0.00350834 3.34171e-19)
(0.016431 0.00076348 -1.68147e-17)
(-0.000242122 0.00039931 9.06761e-17)
(-0.00618278 -0.00108075 -1.42586e-17)
(-0.000879091 0.000195796 6.55022e-19)
(-0.0103023 -0.00206135 -8.58642e-18)
(-0.0129879 -0.000765582 -1.36142e-17)
(-0.00778616 -0.00195107 -1.42178e-17)
(-0.00583041 -0.000474465 8.0021e-17)
(0.0161416 0.000703938 1.24303e-17)
(0.0136137 0.000348277 2.95591e-17)
(-0.00365384 -2.11398e-05 -3.66216e-18)
(-0.00524245 -0.00143731 1.69992e-17)
(0.0417393 -0.00675664 1.60622e-17)
(-0.000382995 0.000591475 -5.5194e-19)
(0.000213684 0.000288899 -2.72982e-19)
(-0.00777042 -0.00193534 -6.54821e-18)
(-0.00471613 0.0033872 1.31405e-17)
(-0.000520477 0.000170044 -3.29878e-19)
(9.89938e-05 0.000100773 -2.55839e-19)
(0.000152957 0.000689424 -4.13908e-18)
(0.00043028 2.27046e-05 8.01556e-19)
(-0.00497469 -0.000704387 7.16518e-20)
(0.000218795 0.000313094 1.05678e-18)
(0.0164301 0.000855026 1.30188e-17)
(-0.00617608 -0.000952793 7.56644e-19)
(-0.000321042 0.00112893 -2.87566e-19)
(0.0208403 0.000354328 -1.02591e-17)
(0.0145046 9.98243e-05 -2.36007e-18)
(-6.38276e-05 0.00179011 -6.18652e-18)
(-0.00802474 -0.00249909 4.76879e-18)
(0.0122266 0.000535459 4.36424e-18)
(-0.000397574 0.00221869 -7.92908e-18)
(-0.00010917 0.00182929 9.88562e-18)
(-0.00601842 -0.000885202 -4.30179e-18)
(0.0149966 0.000213772 -6.1945e-17)
(0.0191311 -0.000455382 2.38204e-17)
(-0.00723005 -0.000250702 4.55277e-18)
(0.000408133 2.21869e-05 1.08199e-18)
(0.0295835 -0.00155827 1.29251e-17)
(0.000165165 0.000398497 7.78598e-19)
(-0.0073153 -0.000145124 4.07046e-17)
(0.0122191 0.000582794 -1.25039e-17)
(0.0311372 -0.00545525 3.53239e-18)
(-0.00291263 -0.00135525 -2.25994e-18)
(0.038586 -0.00633345 -2.23201e-17)
(0.00458078 0.0029252 -6.35783e-18)
(0.00787979 0.00114567 -1.61851e-17)
(-0.00867849 0.00250432 -1.11895e-18)
(-0.000383481 0.00443112 -5.19442e-17)
(0.0123252 0.00138346 1.30453e-17)
(0.0146057 1.9667e-05 -3.18418e-18)
(0.0333966 -0.00423697 -6.78323e-18)
(-0.00145054 0.000488786 1.24996e-19)
(0.00386377 0.00101866 1.52993e-17)
(0.0167855 0.000689393 -6.35125e-18)
(-0.000795648 0.00646837 4.4101e-17)
(-0.00068596 0.00648116 -7.72786e-17)
(-0.000182786 0.00267418 1.37751e-17)
(-0.00709352 0.000120195 2.53901e-18)
(-0.000805477 0.0034768 -2.43124e-18)
(0.021314 0.000222999 4.04546e-17)
(-0.000534379 0.00462457 -8.72656e-18)
(0.000299422 5.75584e-05 -4.79204e-20)
(-0.000610662 -8.47808e-05 -4.4071e-18)
(-0.00246685 0.00207288 -9.23495e-18)
(0.00714205 0.00107059 -6.30512e-18)
(-0.00109166 0.00708464 5.43069e-18)
(-0.000393431 0.000560352 7.16482e-19)
(0.0120095 0.00131745 -1.5681e-17)
(-0.000726525 0.00353393 1.36146e-17)
(-0.00363827 0.00176984 2.97672e-18)
(-0.00306643 -0.00145304 7.40712e-19)
(0.0151674 0.000158787 6.42328e-17)
(-0.012265 -0.00214007 2.16191e-18)
(-0.0125192 -0.00517078 8.16056e-18)
(-0.00117906 0.0022466 2.05078e-18)
(-0.002689 0.000817648 3.33191e-18)
(0.0215577 -0.000377575 5.1009e-18)
(-0.000183543 0.00181978 -1.54679e-17)
(-0.0120476 -0.000577729 2.24466e-17)
(-0.00341706 -9.33048e-05 3.43359e-18)
(-0.00602949 -0.000810625 -2.09721e-17)
(-0.000699147 0.00361366 1.61028e-17)
(5.06326e-05 0.00112276 -1.17123e-17)
(-0.000348499 0.00109938 2.68165e-19)
(-0.00722799 0.00379028 1.54279e-17)
(-0.00566421 0.00553451 -9.20108e-18)
(-0.0083582 -0.00155853 -3.05156e-17)
(0.0287215 -0.00206505 -5.02484e-17)
(0.0215054 -0.000299308 1.48275e-18)
(-0.000964666 0.00224676 -4.79558e-18)
(0.01548 0.00020198 -5.33559e-18)
(0.00346019 -0.00448944 -7.33335e-18)
(-0.000816042 -0.00013556 8.18685e-19)
(0.0319864 -0.00541067 -2.52645e-18)
(-0.0075999 -0.00180785 -3.60391e-17)
(0.0129748 0.000484713 2.25533e-17)
(-0.00243376 0.00200968 4.13143e-18)
(-0.00667398 -0.00570966 -3.97693e-18)
(0.0232082 -0.00259949 3.73374e-19)
(0.0458885 -0.00649572 6.01279e-18)
(-0.00747335 0.00396449 -5.39092e-17)
(0.0209415 5.5526e-05 3.50085e-18)
(-0.00157163 0.000862375 -9.70245e-19)
(0.027076 -0.00315376 -1.15071e-17)
(0.00109588 0.000791787 1.97264e-19)
(-0.00403324 0.000191773 -7.35844e-18)
(0.0199878 0.00078708 1.78065e-17)
(-0.00441061 0.000338758 2.42443e-17)
(0.0158467 0.00034406 -3.76747e-17)
(-0.00493566 -0.00139541 -6.14292e-18)
(-0.00551579 -0.00415764 -1.65032e-17)
(-0.00959716 -0.000712607 3.25511e-18)
(-0.00617565 0.00536472 1.28368e-17)
(1.02695e-05 0.00141749 -2.92691e-18)
(-0.00353337 0.000207721 1.22299e-17)
(-0.00466996 0.00346386 1.09603e-17)
(-0.00507172 -0.00272224 -9.03951e-18)
(-0.000252423 0.000831312 -2.28422e-18)
(-0.00639554 -0.0011621 6.0299e-18)
(0.0208948 -0.00115919 -1.22714e-17)
(-0.000124218 0.00134436 -1.95997e-18)
(-0.00618736 -0.00216666 -4.68074e-18)
(0.000398387 0.000298834 -7.16977e-17)
(-0.00248899 0.000750913 3.03949e-18)
(0.00216184 0.00494933 -2.1204e-17)
(-0.00609985 -0.00348301 1.55174e-17)
(0.0213893 -0.000787076 1.13923e-17)
(-0.0028858 0.000978007 4.95802e-18)
(-0.00693835 -0.00466072 3.82911e-18)
(-0.000117698 0.00723882 1.5889e-17)
(-0.0109162 -0.00167439 3.46241e-18)
(-0.00644469 6.42488e-05 -1.08097e-17)
(0.0217575 -0.000292512 5.19074e-18)
(0.0144986 0.000151781 -1.51715e-17)
(-0.00819567 0.00893931 -8.80618e-18)
(-9.98545e-05 0.00116374 -8.33755e-18)
(-0.00646208 0.00358416 -1.17127e-17)
(-0.00440186 0.000625376 -1.80911e-17)
(-0.00670853 -0.0054463 1.64152e-17)
(-0.000746688 0.000300442 5.99857e-20)
(0.00136758 0.000437677 4.76395e-17)
(0.0209777 -0.00151615 -7.84754e-18)
(0.0444167 -0.00581783 4.20826e-17)
(-0.00274478 0.000743325 -7.44649e-18)
(-0.00913086 -0.000880281 -7.91086e-20)
(0.0257819 -0.00236554 8.7355e-18)
(0.000109062 0.000290035 -6.99163e-17)
(-0.000808864 -0.000267133 3.7058e-18)
(0.00335847 0.000922838 -6.75912e-17)
(-0.00665196 0.00526093 3.49256e-17)
(0.0139107 -0.00737519 -1.74179e-17)
(-0.00205263 0.00330871 5.33335e-19)
(0.0351846 -0.00313321 -5.16357e-17)
(-2.22517e-05 0.00137423 4.77012e-18)
(0.000357747 1.32934e-05 -8.46365e-19)
(0.0176669 0.000246602 8.84863e-18)
(0.0261284 -0.00240958 2.04131e-18)
(4.55343e-05 0.00111558 -7.60648e-18)
(-0.00303411 0.00010875 3.59505e-18)
(-0.00623646 -0.00213292 8.11379e-18)
(-9.07203e-06 0.000229327 6.34071e-20)
(0.0224385 -0.00179585 4.01281e-18)
(-0.00725545 1.16903e-05 4.78108e-18)
(-0.00752723 -0.00174446 3.10735e-17)
(-0.0038752 -0.00124596 -7.57556e-18)
(-0.00155411 0.000809003 -4.09783e-19)
(-4.67937e-05 0.00179414 1.96073e-18)
(0.0439816 -0.00672839 4.06014e-17)
(-0.000303143 0.00111737 2.01814e-18)
(-5.27104e-05 0.00177139 -2.01311e-18)
(0.0210383 0.000540908 1.0305e-18)
(0.021474 -0.00181966 1.57327e-17)
(-0.00144133 0.00243447 2.528e-19)
(0.0238084 -0.00325957 -3.65046e-18)
(1.27618e-05 0.000698787 -5.38914e-18)
(0.000242755 0.000288857 4.52362e-20)
(-0.00262818 0.000772231 2.18019e-18)
(-0.00845646 -0.00149855 2.81951e-17)
(-0.00572343 -0.00381829 1.86796e-17)
(-0.000331407 0.000890119 -2.51643e-18)
(-0.00206204 0.000425547 6.06019e-18)
(-0.00234772 0.0064035 -3.91537e-18)
(-0.00316998 -0.000205157 -1.88982e-18)
(0.0243325 -0.000960623 -1.88094e-17)
(0.000223486 0.000380107 1.23108e-18)
(-0.0040215 -0.0020498 1.8917e-18)
(0.0193697 0.00116908 5.55466e-18)
(-0.000904761 0.00400416 4.89647e-18)
(-0.000421045 -5.33809e-05 7.47414e-19)
(0.000196487 0.000365697 -2.51656e-19)
(-0.00416131 -0.00117522 1.16573e-17)
(-0.0020613 -0.000499441 -7.25767e-18)
(-0.0065354 0.00879542 3.66431e-18)
(0.0207741 0.000557919 -6.49803e-18)
(-0.00509132 -0.000324233 4.82744e-18)
(-0.00197045 0.00911126 1.11726e-17)
(-0.00270176 0.000711132 -3.22338e-18)
(0.000168465 0.000602612 5.94037e-19)
(0.0154989 7.2082e-05 3.26777e-17)
(0.0233321 -0.00266387 -8.65487e-18)
(-0.000670375 0.00401825 -1.4897e-17)
(-0.000190648 0.00140029 3.92811e-18)
(0.0145205 5.54058e-05 -1.86513e-17)
(-0.000437532 0.00395103 3.33875e-18)
(0.00774852 0.00245811 8.54079e-18)
(-0.000137416 0.00151638 -1.89377e-18)
(-0.00420895 0.00154335 1.2502e-17)
(-0.00713222 0.00388736 5.91184e-17)
(-0.00526461 -0.00237326 8.4504e-18)
(0.0148373 -3.98806e-05 2.07853e-17)
(0.0260508 -0.00219923 -1.67314e-18)
(0.0440779 -0.00606072 -2.35928e-17)
(-0.000681536 0.00257035 1.05195e-18)
(-0.00898927 0.00248216 7.3298e-18)
(-0.000103468 0.00115043 2.08196e-18)
(0.0204677 0.000567978 5.00389e-19)
(-0.00617518 -0.0033871 -1.27847e-17)
(-0.00760338 -0.00199422 -1.5594e-17)
(-0.00426322 0.000530281 1.43026e-17)
(-0.00121738 0.00217764 -8.10001e-19)
(-0.000877706 0.0039673 -3.36329e-18)
(-0.00685354 0.000104743 7.81341e-18)
(0.000377962 2.02674e-05 -1.6281e-18)
(0.000418226 0.000737223 1.08266e-16)
(0.0151183 -0.000101097 -2.90035e-17)
(0.0261343 -0.0013698 -4.37319e-18)
(0.000483896 -0.000327512 1.40671e-17)
(0.0208014 0.000651959 2.44288e-17)
(0.00727769 0.000747219 1.27555e-17)
(-0.0118173 -0.00108707 1.02403e-17)
(-0.000464147 0.00341531 -9.50652e-19)
(9.06857e-05 0.000232835 7.40073e-19)
(0.0143769 0.000715486 5.16041e-17)
(1.90915e-05 0.00106373 2.11382e-20)
(-0.000283936 0.000816614 2.22594e-18)
(-0.000559451 0.00360094 1.14848e-17)
(0.0133191 0.00144913 -2.7788e-17)
(-0.00288219 -0.000297065 -4.40593e-18)
(-0.000291637 0.0021688 -6.61674e-19)
(-0.00217938 0.00550018 -2.46359e-18)
(-0.00603515 0.00101516 3.0494e-18)
(2.9117e-05 0.00113366 -9.49042e-19)
(0.0338607 -0.00111721 -3.76325e-17)
(-0.000200329 0.000865503 -9.233e-19)
(0.0156735 -0.00021965 8.09927e-19)
(-0.00629262 0.00851287 -6.26248e-18)
(-1.21228e-06 0.000759996 8.82768e-19)
(-0.0028033 -0.000752345 1.88902e-17)
(-0.00707725 0.00493406 -1.32687e-17)
(0.0320035 -0.00519101 -5.75182e-18)
(-0.000501801 0.000198315 7.1356e-19)
(0.0391448 -0.00478166 -1.47044e-17)
(0.0211994 -0.00533718 -4.66496e-17)
(-0.00101448 -0.000536378 -1.40733e-18)
(0.00991759 0.000601519 3.1915e-17)
(-0.00938216 -0.000701352 1.78146e-17)
(-0.00785039 -0.00234528 1.99099e-17)
(-0.000622134 0.00255664 4.83008e-18)
(0.0211569 0.000610373 -1.28051e-17)
(0.0139815 0.000286442 4.04711e-17)
(-0.00113662 -0.000541849 2.01883e-18)
(-0.0116651 0.00295412 1.55647e-17)
(-0.000739569 0.00125515 -1.28863e-19)
(-0.000217982 0.000878351 -1.88691e-18)
(0.0204485 -0.0012457 8.88471e-18)
(0.0165187 0.000193356 2.32178e-17)
(-0.00519839 0.000736224 -4.8999e-17)
(-0.00569133 -0.00386083 -1.02963e-17)
(3.53157e-05 0.00108995 -3.25694e-18)
(-0.0065208 -0.00366719 -2.20851e-18)
(0.0156674 -0.000265973 -4.04816e-17)
(0.0114757 0.00124964 8.67026e-17)
(-0.00127907 -0.000451451 -3.74126e-18)
(0.00588301 0.000727837 2.42455e-17)
(-0.000236136 0.000871751 2.22553e-18)
(-0.000803143 0.00126533 -5.34559e-19)
(-0.0061513 -3.00892e-05 1.53314e-17)
(-0.00402887 -0.0024623 -1.39844e-18)
(-0.000647752 -0.000291969 -4.69551e-18)
(-0.00102753 0.00215815 7.60896e-19)
(0.0102954 0.000586963 -3.12256e-17)
(-0.0063039 0.0053322 -3.6498e-17)
(0.00961669 0.000624428 -2.71722e-17)
(-0.0027633 -0.000268061 7.84088e-18)
(5.11572e-05 0.00109861 -4.29931e-19)
(0.0166752 0.000860601 7.80048e-18)
(0.000154626 0.000310318 4.33834e-18)
(-0.00697918 0.00345645 2.8216e-17)
(-0.0042113 -0.00159596 3.80192e-18)
(-0.00501773 -0.00242814 -6.41294e-18)
(-0.00483661 -5.70651e-05 2.98254e-17)
(0.0198614 0.00121138 1.0435e-18)
(0.013605 0.000331062 1.68395e-17)
(-0.00329891 0.00037845 3.42162e-18)
(0.00251916 0.000913726 -2.91877e-17)
(-0.0027677 -0.00120729 7.55775e-18)
(-0.0067022 0.000740809 -2.61766e-17)
(0.0201407 0.000856673 1.47229e-17)
(0.01692 0.000305637 -1.13567e-17)
(-0.000549058 0.00137522 -1.18453e-18)
(-0.000136915 0.00117184 1.06113e-19)
(-0.000627458 0.00456714 -3.22109e-17)
(0.00988192 0.000630105 2.43056e-17)
(0.0204357 -0.00482603 -8.94124e-19)
(-0.00647226 -0.00372972 9.53316e-18)
(0.0125831 -0.00165551 3.58266e-17)
(-0.00413853 -0.00253467 1.18127e-18)
(-0.0050115 -0.0014666 -2.02056e-18)
(0.0132596 -0.00173949 6.39228e-18)
(0.0323004 -0.00145893 -5.19955e-17)
(-0.00206439 0.0061417 5.725e-18)
(0.015446 -0.00014036 -3.20353e-18)
(-0.00820982 -0.000769496 1.97524e-17)
(0.0211675 8.41566e-05 -1.877e-17)
(-0.00146187 0.000868768 -1.48907e-18)
(0.0243713 -0.00210601 5.18057e-17)
(0.0359989 -0.0035858 -2.01896e-17)
(0.000177062 0.000550025 -5.91586e-18)
(0.00873521 0.000749195 5.41501e-17)
(0.0225303 0.0011201 -4.36239e-17)
(-0.00150574 0.00310008 1.02288e-19)
(-0.00614454 -0.00163353 -1.41282e-17)
(-0.000311555 0.00140992 -1.95985e-18)
(-0.000842194 0.00631225 1.61567e-17)
(-0.0039868 0.00470738 -1.72995e-17)
(0.0292841 -0.00775535 -1.23944e-17)
(-0.000347891 0.00113741 -1.59859e-18)
(0.000263963 1.83151e-05 2.6376e-19)
(-0.000284451 0.00319039 1.84603e-18)
(-0.00576355 0.00107779 -1.73106e-18)
(0.000255343 0.000360551 4.46572e-18)
(0.0127691 0.00137372 4.13435e-17)
(0.000265774 2.18859e-05 1.49132e-19)
(-0.0103089 -0.000530661 -3.80925e-18)
(-0.000645816 0.0026097 -2.37284e-18)
(-0.00689311 -0.00538012 -1.96874e-17)
(-0.000108699 0.00147621 2.37358e-18)
(3.00424e-05 0.00116234 -1.03114e-18)
(-0.00279363 0.00387418 1.11806e-17)
(0.00593885 0.000691533 -3.77175e-17)
(-0.00628697 0.0002889 1.46394e-17)
(0.0115953 0.00132078 6.38937e-17)
(-0.00405065 0.00164183 -1.48945e-17)
(-6.75075e-05 0.000264463 2.16943e-20)
(-0.000970221 -9.77197e-05 1.87152e-18)
(-0.00671408 0.000342125 4.83245e-18)
(-0.00203853 0.000479566 4.19944e-18)
(-0.00834635 0.00189694 2.57372e-17)
(-0.00305732 -0.000204612 -5.98085e-18)
(-0.000620925 0.00396112 -5.08986e-18)
(0.0234695 -0.00250338 -2.34584e-18)
(7.78031e-05 0.000319167 1.9444e-18)
(0.0224529 -0.000748623 7.21299e-18)
(3.81986e-05 7.19837e-05 -1.75592e-18)
(-0.00919118 -0.00616125 -9.13584e-18)
(0.00266079 0.000914016 -4.21507e-17)
(0.0181668 0.0014161 4.40225e-18)
(-0.000169436 0.00344033 2.65496e-17)
(0.0306466 -0.00845317 -4.26004e-18)
(-0.00202191 0.00543243 -1.16345e-17)
(-0.00514655 0.00631478 3.93541e-18)
(0.0215489 0.00122857 3.2232e-17)
(-0.00134779 -0.000449749 1.15083e-17)
(0.0303749 -0.000862099 1.34286e-17)
(-0.000700597 0.00353791 5.36248e-19)
(-0.00436442 0.000224566 5.4616e-18)
(0.000730371 -0.000395185 3.67531e-18)
(0.0424277 -0.00455761 -1.00857e-17)
(-0.000834088 -0.000123575 4.74974e-18)
(-0.0073461 0.00185055 -2.8557e-17)
(-0.00171898 -0.000432776 -8.65342e-21)
(0.0212673 4.4004e-05 8.8493e-18)
(0.00945506 0.00084327 -2.21236e-17)
(-0.000809463 0.00122731 -8.5621e-20)
(-0.000381311 0.00495448 4.17001e-17)
(0.0233552 -0.00191712 2.47423e-17)
(5.01055e-05 7.83956e-05 3.04532e-18)
(4.93518e-05 0.000102122 -1.80246e-18)
(-0.0072355 -0.00486344 2.07594e-17)
(0.022215 -0.000756664 -1.81331e-18)
(0.0219195 0.000364129 -3.66283e-17)
(-0.000100837 0.00181209 -3.64995e-18)
(-0.00950933 -0.00036773 7.58745e-17)
(-0.00263675 -0.000215982 1.1146e-17)
(5.3459e-05 0.00122505 -1.43906e-17)
(0.0235068 -0.00235973 2.14787e-17)
(-0.00978191 -0.000504624 -8.20072e-17)
(-0.00547045 0.0051838 -4.39242e-18)
(-0.000711375 -0.000235147 -1.96082e-18)
(-0.00889124 -0.00310959 1.53244e-17)
(-0.000883922 0.00458848 2.76185e-17)
(-0.00650468 -0.00465763 -8.4477e-18)
(-0.000134554 0.00222454 -1.2289e-17)
(-0.000841292 0.00211786 -1.02238e-18)
(-0.00384137 0.00464789 1.87125e-17)
(-0.000303825 0.00312157 2.53506e-17)
(-0.00956981 -0.00339644 4.10435e-18)
(-0.00631703 -0.000992209 -2.6651e-17)
(-0.00634025 -0.000810532 -6.43921e-18)
(-0.00206451 0.00598743 -9.88793e-18)
(-0.001068 0.00929716 5.84747e-18)
(-0.00983031 -2.00599e-06 1.0881e-17)
(0.0199273 0.000499034 -2.45281e-18)
(0.0417029 -0.00547905 2.57993e-17)
(-0.010804 -0.00370456 -1.76216e-17)
(0.0153367 0.000365228 -1.18315e-17)
(-0.00164872 0.00399678 4.9395e-19)
(0.0204948 -0.000926593 -9.94543e-18)
(-0.00787654 -0.00246925 6.40459e-18)
(-0.000982588 0.000327156 -6.77396e-19)
(-0.00483831 -0.00142573 4.19703e-18)
(-0.012088 0.000787314 -1.10817e-17)
(-0.00204893 0.00224126 7.50419e-18)
(3.9799e-05 0.000719284 -3.26446e-18)
(4.53044e-05 0.000668442 -7.21527e-19)
(-0.00898267 -0.00570931 -1.22684e-17)
(0.02121 7.69157e-05 2.6982e-18)
(-0.00407853 -0.00202118 -1.38902e-18)
(0.0151369 4.86961e-05 2.45154e-17)
(-3.41785e-05 0.000277797 -9.31912e-20)
(0.0216723 0.000611871 2.10753e-17)
(-0.00115415 0.00597267 -3.9145e-19)
(0.0120427 0.00057129 5.49617e-18)
(-0.007235 0.00204906 -2.6388e-17)
(-0.00304657 0.000962364 -2.69705e-18)
(-0.00331354 -7.68538e-05 4.54002e-18)
(0.0119337 0.000644245 -4.59628e-17)
(-0.00569715 0.00513713 3.95667e-17)
(-0.00160715 0.0039118 -6.56348e-19)
(0.0261147 -0.00221482 -1.20499e-17)
(-0.00155115 0.000753071 3.51563e-18)
(0.00935183 0.00205368 1.81475e-17)
(-0.00932766 -0.00591187 -1.90571e-17)
(-0.00923464 -0.000566781 1.32543e-18)
(-0.0044311 0.000997977 1.0713e-17)
(-0.00941689 0.00580926 3.83249e-17)
(-4.88576e-05 0.00135199 4.38585e-18)
(3.52306e-05 8.6238e-05 5.96176e-19)
(-0.000121051 0.00257801 3.9086e-18)
(2.82849e-05 0.00125594 1.07229e-17)
(0.0198685 0.000945361 6.96804e-18)
(0.00043253 2.79313e-05 4.91496e-19)
(0.0227798 -0.0027924 -2.24287e-17)
(0.0164243 0.000823539 9.81716e-19)
(-0.00645784 0.00205002 9.03576e-18)
(0.0118815 0.00132512 -5.68738e-18)
(0.0130634 0.000466024 3.25251e-18)
(-0.008416 -0.000560195 -6.14106e-18)
(-0.00525369 0.0063362 1.41743e-17)
(-0.000172031 0.00342458 1.67565e-17)
(3.11733e-05 0.000366348 -1.16706e-18)
(-0.00013647 0.00152582 4.78688e-18)
(-0.000434571 -8.02319e-06 -4.71121e-19)
(-0.000876669 -7.14161e-05 -1.09127e-18)
(0.000290866 2.03129e-05 -1.11794e-18)
(-0.00686782 0.000477919 -1.57797e-17)
(-0.00905696 0.00190013 -3.80488e-18)
(-0.000891456 0.00469005 -3.00599e-17)
(0.0330472 -0.00457745 -1.15409e-17)
(-0.00125852 0.00185791 -5.20008e-19)
(0.0162765 0.000782283 -1.20227e-17)
(-1.63113e-05 2.04142e-05 -9.56335e-20)
(0.00243341 -0.000104647 -8.52175e-17)
(-0.00411688 0.00254073 9.45461e-19)
(4.36047e-05 4.51557e-05 1.94406e-18)
(4.35304e-05 0.000563319 2.64071e-18)
(0.0179052 0.00140864 -1.38797e-17)
(-0.00322274 0.000714475 -2.21673e-18)
(0.0242392 0.000363707 2.52548e-18)
(0.0227662 0.000889748 4.14037e-17)
(-0.00587095 -0.00171592 8.6094e-18)
(-0.00708561 -0.00137051 -2.05136e-17)
(-0.00105405 -0.000572039 7.51279e-19)
(0.0162535 -0.000296129 1.68588e-17)
(-0.000756911 0.00263747 -2.70852e-18)
(-0.00263863 -0.000249078 -9.33601e-19)
(0.024042 -0.00233299 -3.6846e-18)
(3.88238e-05 0.00036263 -3.5226e-18)
(-0.000343718 0.00215158 5.52683e-18)
(-0.00140686 -0.000154952 -2.44623e-18)
(-0.00611268 -0.00316636 1.28107e-17)
(0.0202309 7.31496e-05 -1.68723e-17)
(-0.00334049 0.00144173 2.52321e-18)
(-0.00452755 0.000797697 2.82301e-17)
(-0.00681962 0.00543246 8.45012e-19)
(0.0108427 0.00120851 -6.50874e-17)
(-0.0003726 0.00352445 2.08504e-17)
(-0.000959331 0.00301354 -1.31061e-18)
(0.0206051 0.000546461 7.76966e-18)
(-0.000429803 -8.15376e-06 6.25812e-19)
(0.0207772 0.000423855 4.25453e-18)
(0.000193164 4.74571e-05 -1.79624e-19)
(-0.00301574 -0.000298753 3.02143e-19)
(0.0426901 -0.00404853 -5.97327e-17)
(-0.00763859 -0.0026053 1.29858e-17)
(-0.00749996 -0.00179841 5.07172e-18)
(-0.00615126 0.00349571 5.81023e-19)
(-0.00652685 0.000213832 -5.02692e-19)
(5.81043e-05 0.000212625 4.50373e-18)
(-2.31741e-05 1.875e-05 -2.97351e-18)
(-0.00702255 0.00078136 -3.69001e-17)
(-0.00151396 0.000846126 1.19551e-18)