/*--------------------------------*- C++ -*----------------------------------*\
| =========                 |                                                 |
| \\      /  F ield         | OpenFOAM: The Open Source CFD Toolbox           |
|  \\    /   O peration     | Version:  v2012                                 |
|   \\  /    A nd           | Website:  www.openfoam.com                      |
|    \\/     M anipulation  |                                                 |
\*---------------------------------------------------------------------------*/
FoamFile
{
    version     2.0;
    format      ascii;
    class       volScalarField;
    location    "150";
    object      k_0;
}
// * * * * * * * * * * * * * * * * * * * * * * * * * * * * * * * * * * * * * //

dimensions      [0 2 -2 0 0 0 0];


internalField   nonuniform List<scalar> 
13851
(
0.00020866
0.000157962
0.000157742
0.0153918
0.000148445
0.000160263
0.000160907
0.000148642
0.0453885
0.000148554
0.000178991
0.000148509
0.000149389
0.0230295
0.00017415
0.000185138
0.0129396
0.000150564
0.00134317
0.000208303
0.000176529
0.000157844
0.0326249
0.000149734
0.0641439
0.000191275
0.0504479
0.0703218
0.0477409
0.00014798
0.0341485
0.000160789
0.000208734
0.0588338
0.000172442
0.0488531
0.000149811
0.0455741
0.0483983
0.000149863
0.0532029
0.0508946
0.00467572
0.000219272
0.053675
0.000148557
0.000147123
0.000213464
0.000154595
0.000149322
0.0174996
0.000149533
0.000189531
0.000171036
0.0228372
0.000149825
0.000209179
0.0509178
0.0555013
0.0216885
0.000148553
0.0435223
0.000148629
0.000154856
0.000182623
0.000183171
0.0171689
0.000167006
0.000150435
0.0221056
0.0303209
0.000180104
0.000149042
0.0192553
0.000172021
0.000154296
0.016955
0.000147282
0.0573883
0.000148129
0.000150549
0.000276606
0.000171898
0.0241734
0.0229921
0.0331605
0.000158188
0.0204508
0.000148582
0.0342117
0.00014964
0.000160916
0.00666345
0.0299046
0.0429925
0.000201413
0.000148564
0.000195814
0.0184498
0.000196557
0.000180078
0.000162823
0.000163785
0.000149326
0.000148748
0.000178233
0.000148686
0.0321244
0.000160832
0.000150363
0.000161478
0.00014863
0.000206712
0.000181301
0.000209346
0.000170062
0.000147119
0.000148029
0.0134061
0.0250709
0.000192035
0.000149433
0.000150231
0.0374281
0.000300664
0.000173139
0.00014856
0.00017403
0.0507664
0.000179705
0.000157756
0.000165173
0.0242027
0.0575178
0.000179672
0.0428797
0.000166682
0.032052
0.00016095
0.000179913
0.000250094
0.000151255
0.00014861
0.000172045
0.0695182
0.000153671
0.000147191
0.0303466
0.0380401
0.000174793
0.000190387
0.000204983
0.000182443
0.000236245
0.000149979
0.000148869
0.000148633
0.0454637
0.000178096
0.000158435
0.000149583
0.0482623
0.00017798
0.000211068
0.0235027
0.0512485
0.0527403
0.0208902
0.000161342
0.0783071
0.000148649
0.000147079
0.000181918
0.000148827
0.0456041
0.0441905
0.00019096
0.000147051
0.00017223
0.000192516
0.00029544
0.000219055
0.000160939
0.000179561
0.00531877
0.0389932
0.000208964
0.000158161
0.000149797
0.000148319
0.061786
0.000178011
0.0179116
0.000160549
0.0001534
0.00018777
0.000207793
0.000152583
0.000151713
0.000167836
0.000246363
0.0459815
0.0506421
0.000174107
0.000340204
0.0430341
0.000152732
0.000180538
0.0460266
0.000159055
0.000176756
0.000150155
0.000268586
0.000149535
0.000173116
0.000155523
0.000149223
0.000219288
0.000152245
0.000502009
0.000147018
0.000207816
0.0198026
0.044093
0.000157814
0.00018083
0.000149741
0.000170561
0.000148221
0.000172729
0.0269872
0.000157719
0.000159049
0.000148732
0.0490532
0.000148056
0.0165336
0.0495655
0.000193164
0.000149645
0.000374397
0.0235552
0.0556132
0.000175558
0.000169413
0.000175641
0.000234966
0.00017264
0.000200191
0.000163081
0.0202886
0.000205324
0.000147643
0.000161368
0.000185224
0.0465328
0.0254523
0.000148228
0.00017357
0.000148562
0.00019657
0.000254354
0.00016216
0.000178428
0.000206644
0.000148747
0.000163062
0.00020491
0.0647778
0.000148571
0.000149181
0.000157897
0.0547734
0.009248
0.000178928
0.000149637
0.000293522
0.000241864
0.000204015
0.000178297
0.0526939
0.0182099
0.000162093
0.000171313
0.0383112
0.000148833
0.000148623
0.000205166
0.000175967
0.000148326
0.000149515
0.000148205
0.00014792
0.000169779
0.000148583
0.0468747
0.000177464
0.000149325
0.0467591
0.0353737
0.00014968
0.000208736
0.0176652
0.000151505
0.000149745
0.000178254
0.0218442
0.0599554
0.000184767
0.00014836
0.0790381
0.000148603
0.000186005
0.0213086
0.0639493
0.00015802
0.0283818
0.00304078
0.0358267
0.000203711
0.000163032
0.0467445
0.0424287
0.0680137
0.000151987
0.018588
0.00620983
0.000211597
0.000207772
0.000152752
0.000183907
0.000158908
0.0219131
0.000164539
0.000147174
0.000146116
0.000160343
0.0331843
0.000373595
0.000148776
0.0421439
0.000158928
0.000165403
0.000158741
0.0179789
0.000295045
0.000182156
0.000155077
0.000158341
0.049598
0.000149845
0.000271259
0.000162035
0.000178162
0.000159604
0.000148582
0.00014931
0.000199638
0.000199709
0.00020599
0.00901716
0.0507855
0.000153799
0.0480189
0.000795322
0.000149009
0.0664009
0.000194568
0.0218235
0.000159801
0.000193163
0.0495427
0.0450127
0.000197305
0.0233141
0.00015312
0.0494193
0.00519095
0.000166102
0.0248632
0.000168306
0.052076
0.000170887
0.000180153
0.000205032
0.000212954
0.000148887
0.000161218
0.000176953
0.000172446
0.000148687
0.000179315
0.0706041
0.000149046
0.000180392
0.00964965
0.000156801
0.00164615
0.00018154
0.0633883
0.000159755
0.000190199
0.000303112
0.000428081
0.000177664
0.0217499
0.0195198
0.000366268
0.000148774
0.000198039
0.000168159
0.000192749
0.000149327
0.00539247
0.0704908
0.0543421
0.000158316
0.000205883
0.0414791
0.0102247
0.000147497
0.0138852
0.000222701
0.0304763
0.000163756
0.0698362
0.000148899
0.000148754
0.0192747
0.0414653
0.000148581
0.000157953
0.000180671
0.00014721
0.0729625
0.000184282
0.000194123
0.000162178
0.000153185
0.000149518
0.0349085
0.000149229
0.00014943
0.0695372
0.0720975
0.000157166
0.03959
0.000148663
0.000148568
0.000157378
0.000206824
0.000181824
0.000148804
0.000154339
0.000191431
0.00015632
0.064292
0.000148472
0.000165598
0.0545371
0.000161923
0.000146251
0.000148762
0.000161928
0.000153332
0.000343108
0.066921
0.000169668
0.000582852
0.000157573
0.000148414
0.0503665
0.0471577
0.00016095
0.000149255
0.0407224
0.000160261
0.000411219
0.000149296
0.000165624
0.000198108
0.000173411
0.0458032
0.0445836
0.048325
0.000153654
0.000205329
0.000148803
0.0463272
0.000181409
0.000207682
0.000168003
0.000154767
0.000161997
0.000182533
0.000148515
0.0105315
0.0482636
0.0663431
0.00611605
0.0679213
0.0247137
0.000316601
0.000157376
0.000149338
0.00319641
0.000148545
0.000148638
0.000158578
0.047422
0.000157838
0.000151162
0.000175299
0.000176368
0.000148559
0.0790448
0.000148488
0.053169
0.000305347
0.000148157
0.000157183
0.000229778
0.0674565
0.000148224
0.0653814
0.0147619
0.000150222
0.0418777
0.000751265
0.000207022
0.00015359
0.0701514
0.0220192
0.000150428
0.000334408
0.000150312
0.000148527
0.0691819
0.0526808
0.000172314
0.00018139
0.000148551
0.000186775
0.0527541
0.0451523
0.000150826
0.0176248
0.000148752
0.000150431
0.000177905
0.000166219
0.000147492
0.000154287
0.0433405
0.00021017
0.0405954
0.000157173
0.000148559
0.0556578
0.000149148
0.000198995
0.000164935
0.000171827
0.000168935
0.0601689
0.0217164
0.000160488
0.0130148
0.000157333
0.000183166
0.0520244
0.0283145
0.000150109
0.000148818
0.000164076
0.0415209
0.0352894
0.000186384
0.00554373
0.000166448
0.000170132
0.0337368
0.0782788
0.000184014
0.0516366
0.000284069
0.0525212
0.00015241
0.0578943
0.0620483
0.00014852
0.00771278
0.0712564
0.000161418
0.000179826
0.0001496
0.000502207
0.000177746
0.0488658
0.000149262
0.000149021
0.000155918
0.000175822
0.000148527
0.0450487
0.000148981
0.000175318
0.000153562
0.000193049
0.000149321
0.000148591
0.000169492
0.0178319
0.000177229
0.0414443
0.000165652
0.000147296
0.000149607
0.000182204
0.000154253
0.000190795
0.000158654
0.000160653
0.0548999
0.000149157
0.0220567
0.000149668
0.000201024
0.0148697
0.0544628
0.00015714
0.0420451
0.000174711
0.000205796
0.0696787
0.000151225
0.0771227
0.000158999
0.000166958
0.00775269
0.0424863
0.000149201
0.000190246
0.000152508
0.0497326
0.0183372
0.000150978
0.000167701
0.0737476
0.000149736
0.000149658
0.000191663
0.0190336
0.0713382
0.00014975
0.000204422
0.000155825
0.000148635
0.0576366
0.000205228
0.000195663
0.000146956
0.000204929
0.000164863
0.000188593
0.000150945
0.000153065
0.000176521
0.000155723
0.000208466
0.000180126
0.000179874
0.00018027
0.000319012
0.000764746
0.0698318
0.0601371
0.000205094
0.0302311
0.000164913
0.0687786
0.00020863
0.000150062
0.000169439
0.00024816
0.000159255
0.000148099
0.000148029
0.000200811
0.0206213
0.000165737
0.047074
0.000147334
0.0712418
0.000179745
0.0167522
0.000189755
0.000159954
0.00015786
0.0197427
0.000195941
0.000164592
0.0452059
0.000152793
0.00299009
0.000201032
0.000186039
0.000167
0.000328065
0.000148906
0.000149609
0.000152285
0.000148669
0.0512542
0.00014791
0.0540697
0.0535736
0.000190256
0.0463992
0.0205947
0.000173291
0.000210188
0.000157205
0.000149135
0.000149091
0.000147168
0.000149543
0.000148845
0.000183712
0.000205098
0.000165587
0.066865
0.000153223
0.0448233
0.000149953
0.0179493
0.000170498
0.000149878
0.000148826
0.0539352
0.000160462
0.0735274
0.0718601
0.000179202
0.000187112
0.000150211
0.0568288
0.000154647
0.000157917
0.0568516
0.000149158
0.000151191
0.000150564
0.000181152
0.0217325
0.000163332
0.000167639
0.000228895
0.0424035
0.000157658
0.000157545
0.0529931
0.000147041
0.0517875
0.000149288
0.000156476
0.0569011
0.000193579
0.000208454
0.000185589
0.000177563
0.00014947
0.000149954
0.000184288
0.000152617
0.000149525
0.000166867
0.000219427
0.000147837
0.000202094
0.00101434
0.0725691
0.000185404
0.0349935
0.000161122
0.000149103
0.000195862
0.000147402
0.000161401
0.0711933
0.0510329
0.0768708
0.0558167
0.000151255
0.00015084
0.000170376
0.000152685
0.000148833
0.0266939
0.000202407
0.0258224
0.000201454
0.000194185
0.000148738
0.000148034
0.00511198
0.000193907
0.00015712
0.000149657
0.000208655
0.00020916
0.0483027
0.00014992
0.000148942
0.018386
0.000150875
0.000168615
0.000147175
0.0485041
0.000148769
0.0166933
0.000148548
0.000190597
0.000174503
0.000169939
0.000167448
0.000149012
0.000157835
0.000148057
0.0525814
0.000150979
0.0295848
0.000153114
0.075694
0.0521406
0.00016556
0.000147918
0.0108371
0.0676841
0.000161106
0.000193696
0.000149058
0.0196648
0.000150225
0.000279297
0.000148462
0.000148037
0.073079
0.000169294
0.000148703
0.000171631
0.0492182
0.000453996
0.0721949
0.000148109
0.0326188
0.00014854
0.000147872
0.000149983
0.00014558
0.000149524
0.0717089
0.0711469
0.000152273
0.000148954
0.000172791
0.00014865
0.0136939
0.000197054
0.0262693
0.0478757
0.000157691
0.000208278
0.000148484
0.000176109
0.000176874
0.000151148
0.00014935
0.000629823
0.019658
0.000186624
0.00641191
0.000186575
0.000148653
0.000173146
0.00019414
0.0153053
0.000168667
0.0673053
0.00019445
0.000149455
0.0512639
0.0483717
0.0268939
0.0561169
0.0690245
0.000153637
0.000175398
0.000149419
0.0574175
0.000158734
0.000147196
0.0708834
0.000152925
0.000147922
0.000150145
0.000152571
0.0460586
0.000249194
0.000147749
0.000173654
0.0226034
0.000153754
0.00588634
0.000152249
0.000191759
0.0512049
0.000148606
0.0427319
0.000161757
0.000166605
0.000479326
0.000152936
0.000262078
0.000189942
0.0526444
0.000153407
0.0266538
0.000165581
0.0312531
0.0157994
0.0218955
0.00017947
0.000149061
0.000151312
0.000149735
0.000178854
0.000148777
0.0473616
0.00016019
0.000157399
0.000157481
0.000153534
0.000148015
0.000165381
0.000159956
0.000157109
0.000158902
0.0658089
0.0515394
0.00016546
0.000171591
0.0725094
0.000151271
0.0352907
0.000147018
0.000162666
0.000150991
0.000149573
0.000168513
0.000148394
0.000147709
0.000162902
0.000148922
0.000214609
0.000153785
0.0068124
0.0545333
0.000234556
0.000249279
0.000151596
0.0437602
0.000213482
0.000149473
0.000159729
0.000150927
0.0380261
0.000152183
0.000163231
0.0672021
0.00789777
0.000179663
0.00015124
0.0586268
0.0631029
0.0687856
0.00016165
0.000147283
0.000150857
0.000184827
0.000148975
0.018744
0.000200427
0.000149273
0.000710999
0.000218932
0.000150412
0.0680034
0.0152134
0.000210265
0.000153383
0.0590014
0.000183598
0.000148123
0.0209994
0.000157392
0.000149957
0.000148406
0.000170911
0.000178873
0.0493314
0.0369259
0.00017859
0.0522552
0.000171939
0.00014871
0.000169182
0.000148028
0.00307723
0.000150911
0.000148211
0.000154461
0.000152544
0.053103
0.0225483
0.0220685
0.0210554
0.0697014
0.000157904
0.000149141
0.000153749
0.000285293
0.00015093
0.000150305
0.000171261
0.0630975
0.0470652
0.00014728
0.000167601
0.000167788
0.000206001
0.00556816
0.000150346
0.000147422
0.000157748
0.0430643
0.000166858
0.0522175
0.000152993
0.000149018
0.000150057
0.000148445
0.000155521
0.000188632
0.0540322
0.0519854
0.000157444
0.00014842
0.00182023
0.000153411
0.0732832
0.0273978
0.000159013
0.0201178
0.0500932
0.0311763
0.000185348
0.000168521
0.0365298
0.000166307
0.000161527
0.000170725
0.000207054
0.000152338
0.000477787
0.000148731
0.0715674
0.0494995
0.000147015
0.000153744
0.000168797
0.000250501
0.000169585
0.000148869
0.000165089
0.000151996
0.000161919
0.000238189
0.00014903
0.0666092
0.0219215
0.000148799
0.000167564
0.000178366
0.000148551
0.0494479
0.0117671
0.0451723
0.034893
0.000148318
0.000156005
0.000159215
0.000150085
0.0261099
0.000170055
0.000149683
0.000187278
0.000155501
0.0762531
0.000174771
0.0188243
0.000151826
0.000153677
0.000164623
0.000193265
0.00018607
0.00014868
0.0113189
0.0335794
0.0243176
0.0279485
0.0705783
0.0506982
0.0296747
0.00014862
0.00014854
0.00015141
0.0311951
0.000181232
0.000185626
0.0105932
0.000153088
0.000146411
0.000148565
0.0265488
0.00014718
0.000162423
0.000154024
0.0711341
0.00015195
0.000147403
0.000148591
0.00014905
0.000149005
0.000160962
0.0214611
0.000161659
0.0762094
0.00014847
0.000148498
0.051232
0.0553007
0.0196196
0.0719661
0.000164631
0.0711038
0.000147216
0.000170797
0.000153619
0.000148565
0.000159493
0.0196905
0.00015527
0.000193679
0.0077464
0.000152876
0.000149475
0.000155784
0.000249151
0.000149798
0.0710769
0.000151348
0.0219435
0.000148783
0.000152177
0.000161385
0.000172143
0.000149438
0.0540605
0.0310508
0.0172693
0.0588516
0.000148873
0.0181647
0.0504814
0.00014845
0.0478011
0.000150039
0.000162659
0.000149778
0.000153426
0.00014775
0.000148597
0.000151553
0.000156318
0.00018695
0.000151484
0.000148625
0.000166242
0.000149293
0.0752196
0.000148781
0.000167122
0.000172271
0.0256225
0.0609139
0.000148934
0.000189311
0.000147104
0.000169696
0.00017503
0.0715437
0.000180255
0.000149801
0.000203648
0.000168777
0.000193405
0.0441645
0.0001621
0.000201901
0.000186149
0.000187976
0.000151844
0.000149407
0.0725959
0.0091513
0.000156534
0.000148107
0.00644707
0.000147427
0.000175302
0.000148008
0.000178966
0.0388165
0.000147124
0.0120877
0.000160235
0.000149072
0.000188842
0.000147177
0.0001622
0.0369333
0.000173102
0.0728264
0.000147726
0.000149747
0.000162807
0.000149468
0.000149607
0.000165132
0.000164822
0.000186818
0.000180276
0.000149485
0.000167534
0.00014918
0.000148448
0.000149393
0.000148454
0.000856478
0.000150784
0.000152377
0.0361646
0.000147383
0.000148033
0.0555984
0.00014963
0.00842517
0.000155766
0.0592051
0.000262327
0.00016536
0.00324481
0.000179689
0.000272145
0.000152596
0.000212799
0.000159728
0.000149345
0.00014857
0.000152278
0.000166771
0.000148959
0.000173219
0.000147575
0.000153704
0.00522077
0.0174055
0.000339269
0.000159277
0.00016364
0.0264082
0.0235165
0.000149104
0.000162172
0.000324176
0.000151948
0.000170616
0.00509805
0.052639
0.000163874
0.000178349
0.000152248
0.000222393
0.000149891
0.000162426
0.0693646
0.000149846
0.000148982
0.0755435
0.000172961
0.0279995
0.0600196
0.00020069
0.000150607
0.000147593
0.000152318
0.0235788
0.0571416
0.0782858
0.00017661
0.000148718
0.0298442
0.000148694
0.000203874
0.000155818
0.000157158
0.000176015
0.000148446
0.0697809
0.0711352
0.000150696
0.000185988
0.000181856
0.00655913
0.000173997
0.000186421
0.0275926
0.000172055
0.0503385
0.000186999
0.00014871
0.000173157
0.0001689
0.0694831
0.000148307
0.0653419
0.000174925
0.000188162
0.000149803
0.0664542
0.000161279
0.000153447
0.000148805
0.000168579
0.000168142
0.000167483
0.000148806
0.000151939
0.000174057
0.00590426
0.000177608
0.000148991
0.000150914
0.000173281
0.000229025
0.000149098
0.000181999
0.0305557
0.000169542
0.0574279
0.00017843
0.0179528
0.000264592
0.000148661
0.0111459
0.000149551
0.000156357
0.000170155
0.000169998
0.000191386
0.000180967
0.000167551
0.000169201
0.000165002
0.000154635
0.000147097
0.000170583
0.000160305
0.000158392
0.0591526
0.000158192
0.000160678
0.000148067
0.0241606
0.000180828
0.000149452
0.000158557
0.000151972
0.0216297
0.000199723
0.000170207
0.0543289
0.0428224
0.000465896
0.000191917
0.045625
0.000147773
0.000186039
0.000150328
0.000156031
0.0380605
0.0495262
0.00042496
0.000880991
0.000148763
0.0184273
0.000147745
0.00019371
0.000155878
0.0706243
0.0703435
0.000163748
0.000148041
0.000293229
0.000162681
0.000148328
0.0280974
0.000148522
0.000153547
0.000160403
0.000149727
0.000164262
0.000152153
0.000148766
0.000165128
0.000284668
0.000174999
0.000177704
0.000148331
0.0210423
0.0512806
0.000147944
0.038477
0.000155785
0.000158041
0.0765147
0.000147929
0.000151495
0.000157692
0.0328231
0.000148329
0.000149156
0.000172479
0.0687053
0.000147833
0.00016093
0.000163286
0.0585631
0.000173922
0.000171995
0.000602893
0.000148528
0.000173141
0.000146827
0.0202261
0.000163191
0.000148527
0.000164767
0.000188269
0.000148931
0.000151871
0.000207391
0.0603202
0.000153417
0.0215571
0.000149204
0.000146885
0.000183989
0.000148287
0.000150821
0.0754683
0.000149811
0.000174316
0.000188829
0.0398499
0.053625
0.000150953
0.000153118
0.0001573
0.000148444
0.000148986
0.000148638
0.0691637
0.000149263
0.0491096
0.000204343
0.000148972
0.00014944
0.000164197
0.000204472
0.0377486
0.000167731
0.000178685
0.000154338
0.0471869
0.000178038
0.000169785
0.00017674
0.000173695
0.000189832
0.0232789
0.000177162
0.0311298
0.075511
0.0188463
0.000158586
0.00014934
0.000169634
0.000159849
0.00014981
0.00015351
0.000179583
0.000149594
0.000151328
0.000148392
0.000147112
0.000157125
0.000151139
0.0163009
0.00014802
0.0630604
0.000148496
0.000175132
0.000152511
0.000204639
0.000175124
0.000149068
0.0700723
0.000153028
0.000149469
0.000175514
0.000149107
0.000160076
0.000150618
0.0566844
0.000155158
0.000174056
0.000171304
0.0711463
0.000159454
0.051297
0.054962
0.000171524
0.000151489
0.000154398
0.000177104
0.000182761
0.0178502
0.000148453
0.0255795
0.000149965
0.000170055
0.0680069
0.000167315
0.0700122
0.000156719
0.000167498
0.000155513
0.0694839
0.000163977
0.000148857
0.000170599
0.000202941
0.000154238
0.000148483
0.000148876
0.0474747
0.000149659
0.000158702
0.0556594
0.000156677
0.000148704
0.000173487
0.000156348
0.0751181
0.000146472
0.000148706
0.000147411
0.000155323
0.000152419
0.00015145
0.000186588
0.0513076
0.000148608
0.000148656
0.0782717
0.00015342
0.0124222
0.000159088
0.0627842
0.000148865
0.000154582
0.000147131
0.0301376
0.05965
0.000160629
0.00017022
0.000156082
0.000149003
0.000148735
0.0578439
0.000148818
0.000193786
0.00014903
0.000180086
0.000149218
0.0770697
0.000147343
0.000179939
0.000148531
0.00021696
0.000332286
0.000148898
0.000167933
0.0719634
0.000187834
0.0718578
0.0700523
0.000204377
0.00015232
0.000168482
0.000192144
0.0688997
0.000153549
0.000176736
0.000157433
0.000149457
0.0285552
0.0301468
0.000187322
0.000212022
0.000276859
0.000164562
0.0563373
0.00014979
0.000148793
0.00018906
0.0742806
0.000226501
0.00020166
0.0615528
0.000147269
0.0682306
0.0322896
0.0694607
0.000149298
0.0228852
0.0348365
0.000358148
0.000394636
0.0380295
0.0001945
0.000163914
0.000207457
0.000154956
0.000149139
0.00544657
0.000194346
0.000147001
0.0265177
0.000149213
0.000159858
0.000176112
0.000156383
0.044201
0.000161362
0.0095995
0.000180139
0.000155399
0.0739415
0.0529411
0.000205775
0.000150114
0.00015514
0.000185042
0.000169943
0.000147171
0.00017543
0.000168486
0.000199864
0.000148918
0.000217906
0.000154983
0.000170554
0.0694513
0.0528382
0.000151672
0.000186624
0.0246393
0.000149822
0.000152257
0.0641468
0.000235122
0.000156128
0.00015765
0.000148599
0.000176407
0.000161118
0.0514135
0.000190839
0.000150864
0.000149443
0.00016698
0.000160929
0.0487133
0.020389
0.000148489
0.00014834
0.000160158
0.000149251
0.000156621
0.000152583
0.000153321
0.000155358
0.000148465
0.000155514
0.000149594
0.000180856
0.0662644
0.000149741
0.0740657
0.0121625
0.000146873
0.000183294
0.000188479
0.000180838
0.000151563
0.000194534
0.00016187
0.000169494
0.000165223
0.000153946
0.000149344
0.0177378
0.000166707
0.0727465
0.000151482
0.000148634
0.000148246
0.000175046
0.000148533
0.000178745
0.000186424
0.00030751
0.000147887
0.0387774
0.029365
0.0351129
0.000147213
0.000196542
0.000221124
0.0339975
0.0393186
0.000150564
0.000150885
0.000194891
0.0605302
0.0711897
0.000174581
0.0424169
0.000149499
0.000149705
0.000166308
0.000149267
0.000149247
0.000201173
0.000149752
0.000170261
0.00014888
0.0539779
0.0717229
0.0763604
0.0699423
0.0326293
0.000149365
0.000148929
0.0772019
0.00014869
0.000148981
0.00014696
0.00018502
0.0582447
0.0188925
0.000157099
0.000152694
0.000153491
0.000164586
0.0226738
0.000148153
0.0704001
0.0553933
0.000149213
0.000149124
0.0309422
0.000192338
0.000157154
0.000148452
0.0732614
0.0321806
0.000150891
0.000198881
0.000149668
0.0369578
0.000262638
0.000158572
0.0221024
0.0122737
0.0783911
0.000148703
0.000153426
0.000149605
0.000149897
0.0565248
0.000148586
0.000197891
0.0462536
0.0162304
0.000153187
0.000175926
0.04206
0.000175992
0.0779581
0.0385878
0.000146246
0.000160423
0.000160448
0.000184075
0.0590053
0.000146813
0.0225748
0.000162224
0.000177671
0.000151562
0.000147603
0.000234995
0.000170568
0.0150967
0.000149265
0.000175942
0.000152819
0.000204617
0.000157706
0.0500906
0.0706097
0.000202938
0.00019899
0.000148831
0.000154334
0.000192882
0.000182807
0.0544965
0.0737243
0.000148921
0.0710898
0.000171238
0.0532211
0.00016488
0.000172417
0.000171557
0.00015097
0.0770299
0.000148491
0.000168187
0.0329532
0.0534434
0.00118751
0.0556438
0.000159445
0.000178478
0.000149015
0.0542224
0.000158468
0.0725505
0.000149069
0.0738043
0.000147181
0.000148176
0.000167559
0.000159476
0.000161162
0.000149189
0.0340576
0.000179459
0.000148615
0.000168127
0.0301947
0.000222202
0.00014882
0.0422569
0.000155569
0.00017179
0.000170595
0.000146494
0.000179903
0.000148172
0.0397986
0.000174646
0.000164427
0.000148513
0.000240595
0.000172521
0.000149117
0.076893
0.0574887
0.000269267
0.000150533
0.0571224
0.000148892
0.000192571
0.00016425
0.000183143
0.0578994
0.0322246
0.000160246
0.0562211
0.000171944
0.000159082
0.000147853
0.0740487
0.000181458
0.000191295
0.00016614
0.000149589
0.0697201
0.00018489
0.000263626
0.0344484
0.0698791
0.0345464
0.015918
0.0245186
0.000159376
0.000159633
0.000148636
0.000150925
0.000146936
0.000219349
0.000160204
0.000161063
0.0464836
0.000148355
0.00014726
0.000178097
0.00020368
0.000163267
0.00014795
0.0469289
0.000156529
0.000181391
0.000150303
0.0171331
0.000158185
0.0721553
0.000167826
0.000168724
0.000173628
0.000148602
0.00829912
0.0357667
0.000181928
0.000149545
0.00014736
0.0193076
0.0337636
0.0475436
0.000150029
0.000182057
0.0504587
0.000151195
0.000148056
0.000150238
0.0566931
0.00017252
0.000165141
0.000165552
0.000161757
0.0714378
0.000181252
0.000269168
0.000163668
0.000167853
0.00014716
0.000184867
0.000175214
0.000148675
0.0583797
0.0402118
0.0469553
0.0616155
0.0317236
0.070196
0.0759728
0.0001518
0.000150778
0.0782739
0.0270293
0.0701673
0.000149635
0.000173844
0.000148695
0.000148595
0.0691016
0.0547936
0.000185201
0.000148206
0.0429195
0.000193715
0.000176865
0.0297138
0.0327989
0.0399825
0.000147388
0.0492633
0.0680175
0.000233047
0.00017035
0.000174683
0.000149491
0.000147719
0.000170851
0.000174511
0.00015557
0.000176208
0.000163231
0.000155745
0.0294288
0.0303179
0.000160466
0.000177875
0.0343563
0.0163105
0.000148699
0.000193305
0.0002293
0.026266
0.000171626
0.000151188
0.000164589
0.000159325
0.000159746
0.00014654
0.000159659
0.000168395
0.00017984
0.00020286
0.000149497
0.000153443
0.0336232
0.0570509
0.0505555
0.0364043
0.000203212
0.000146753
0.000148602
0.000164844
0.000148819
0.0691517
0.000148637
0.000149809
0.000147471
0.0573059
0.0172699
0.00015058
0.000185981
0.000160415
0.000163133
0.000164058
0.000160427
0.000174709
0.000168841
0.0162935
0.000161172
0.028943
0.000169404
0.0496451
0.000162774
0.000147498
0.000147725
0.000194917
0.000207125
0.00014712
0.000164437
0.000163183
0.000177808
0.0702314
0.0199502
0.0751033
0.000149808
0.0443888
0.000160147
0.000166593
0.000148492
0.000181266
0.000154048
0.0306833
0.000284301
0.000168024
0.000148561
0.05732
0.00015641
0.0284973
0.0264602
0.0330951
0.000155065
0.000200002
0.0737001
0.0454728
0.0415404
0.000179046
0.000149866
0.000169415
0.000150287
0.0737146
0.000155352
0.00016471
0.0468244
0.0481821
0.000149599
0.000148954
0.030678
0.000171756
0.0653454
0.000159361
0.00014844
0.000173196
0.000200766
0.000163263
0.0715967
0.000166482
0.0446009
0.000157677
0.000149604
0.000148919
0.000218842
0.00015108
0.000184115
0.000148807
0.000150006
0.00021058
0.000161974
0.0001509
0.000148301
0.00016653
0.0438347
0.000178441
0.000171292
0.000156095
0.000180048
0.000149335
0.00019257
0.000164997
0.000175061
0.000167762
0.00016639
0.000176178
0.000164015
0.00015012
0.000187181
0.0384278
0.0363216
0.00015156
0.000756696
0.0287963
0.000148765
0.000150992
0.000226062
0.0309654
0.000156756
0.0294832
0.000331377
0.000152311
0.000193627
0.000146788
0.000160447
0.000180911
0.0459598
0.000204628
0.0411495
0.0404267
0.0607874
0.0405341
0.000157337
0.037512
0.000148583
0.0679219
0.0373674
0.00014866
0.000148446
0.0343071
0.000149269
0.000148587
0.036037
0.060453
0.000232854
0.000162259
0.0336209
0.000148595
0.0597091
0.0329171
0.00014921
0.0543732
0.02641
0.0311423
0.0341509
0.0344046
0.0322176
0.000147763
0.000152039
0.00018179
0.000185771
0.000148568
0.0199929
0.000148497
0.0358767
0.034197
0.000165232
0.0301068
0.0372558
0.0328598
0.0248661
0.000166047
0.0142606
0.000271531
0.000160346
0.000146859
0.0696973
0.000162907
0.000148577
0.0647889
0.000148667
0.0707371
0.000149381
0.0548428
0.000161074
0.000148536
0.00459167
0.000156651
0.000161606
0.0308596
0.0802002
0.000657417
0.000164736
0.0001815
0.00015268
0.000176986
0.000203086
0.000176823
0.000149348
0.000325067
0.000183015
0.000163569
0.0294079
0.000173753
0.000163763
0.000199348
0.000185264
0.0001794
0.000148522
0.000210563
0.000147805
0.000203504
0.0561448
0.0302883
0.000147428
0.000170629
0.0195288
0.00015586
0.000180202
0.00016971
0.000172638
0.0758093
0.000183473
0.000152423
0.0270835
0.000147422
0.0575823
0.000148796
0.000154465
0.000203765
0.0493072
0.000163812
0.000189574
0.000218327
0.00016896
0.000151558
0.000178373
0.000173987
0.0462832
0.000155823
0.00285986
0.000207703
0.000169336
0.000164116
0.00017997
0.000168533
0.000168575
0.000183679
0.000164063
0.000156393
0.000152599
0.00126435
0.000148894
0.000162558
0.0001465
0.000200547
0.00016336
0.000184072
0.0339965
0.000151522
0.000230533
0.000145682
0.000149491
0.000149216
0.000149324
0.000163565
0.000147939
0.000194097
0.0180544
0.000184358
0.000177007
0.000160299
0.000150172
0.049793
0.000149264
0.0746276
0.0771355
0.0211675
0.000212908
0.00016594
0.000164144
0.000149142
0.000159186
0.000171117
0.000171146
0.0347988
0.000184643
0.0435957
0.000198086
0.000149353
0.000147192
0.0355833
0.000148869
0.000165511
0.000166937
0.000290926
0.000156636
0.0533545
0.000149091
0.000157782
0.000148698
0.000151274
0.000178246
0.000200824
0.000151066
0.000170737
0.000160129
0.000178048
0.000184865
0.000213828
0.000200755
0.000214018
0.000213198
0.000163936
0.000153349
0.00018507
0.0500646
0.0774053
0.056164
0.000169033
0.073274
0.000200872
0.000153945
0.000148137
0.000188516
0.000148921
0.000171098
0.0169215
0.000148485
0.000149387
0.000393865
0.0687587
0.000181246
0.000759306
0.000149306
0.0224846
0.000171063
0.0507466
0.000157904
0.000149436
0.0593981
0.00016576
0.000148896
0.000173608
0.00014966
0.000191259
0.000162257
0.000165112
0.0679273
0.000160507
0.0770235
0.000148088
0.0400208
0.000149467
0.000159504
0.000151674
0.000173387
0.000148882
0.00016736
0.0561157
0.000241864
0.000177244
0.000163127
0.000169334
0.000149323
0.000150175
0.000155132
0.0658877
0.000160222
0.0558448
0.0272217
0.000190093
0.000149398
0.00019317
0.000205726
0.000204835
0.000163498
0.0280311
0.000148864
0.000146543
0.000148698
0.0375491
0.00015084
0.000148935
0.0567121
0.000148476
0.00020275
0.00017276
0.00015057
0.0535525
0.000166613
0.0539202
0.000149706
0.0639725
0.000152934
0.000167948
0.0247792
0.00018512
0.000148378
0.000164556
0.0749972
0.000170837
0.00019453
0.00016646
0.000158754
0.000188429
0.00015979
0.00015349
0.00511145
0.00016287
0.000166195
0.000174999
0.000148655
0.000148541
0.000149198
0.000170162
0.000149539
0.000156546
0.0762889
0.0136723
0.000172189
0.00747322
0.000188053
0.00017404
0.0494462
0.0374987
0.000150528
0.0120285
0.0692452
0.0318704
0.00680753
0.000164694
0.0753281
0.0569058
0.0422759
0.00902291
0.0753363
0.000164061
0.00017062
0.000158955
0.000162796
0.000150041
0.000346156
0.000149892
0.0145857
0.000175691
0.0001999
0.000146043
0.000189321
0.00016478
0.000152471
0.000149951
0.000148683
0.000175039
0.000157279
0.000153016
0.000178168
0.0415065
0.00015753
0.000193141
0.000147192
0.00017494
0.000170291
0.000149684
0.00015777
0.000147918
0.055629
0.0580802
0.000213208
0.00816474
0.000162977
0.000191446
0.000148829
0.000177943
0.000148991
0.000151403
0.000149521
0.0697936
0.000148182
0.000181956
0.000249051
0.000159139
0.000167122
0.000148417
0.049912
0.000208241
0.0368689
0.0274298
0.000203065
0.00035577
0.0281477
0.000342626
0.0547379
0.0125626
0.000175637
0.000159828
0.029819
0.0551479
0.000148487
0.015582
0.000189519
0.0707258
0.000146137
0.000185516
0.0524175
0.000149808
0.0168441
0.000154632
0.0201024
0.000148523
0.000149091
0.000180361
0.000182896