/*--------------------------------*- C++ -*----------------------------------*\
| =========                 |                                                 |
| \\      /  F ield         | OpenFOAM: The Open Source CFD Toolbox           |
|  \\    /   O peration     | Version:  v2012                                 |
|   \\  /    A nd           | Website:  www.openfoam.com                      |
|    \\/     M anipulation  |                                                 |
\*---------------------------------------------------------------------------*/
FoamFile
{
    version     2.0;
    format      ascii;
    class       volScalarField;
    location    "150";
    object      omega_0;
}
// * * * * * * * * * * * * * * * * * * * * * * * * * * * * * * * * * * * * * //

dimensions      [0 0 -1 0 0 0 0];


internalField   nonuniform List<scalar> 
13851
(
0.181918
0.0256265
0.0254741
3.98551
0.0220833
0.0278492
0.0263344
0.0219243
2.56803
0.0220532
0.0707374
0.0220844
0.0221634
4.83884
0.0421391
0.190251
6.32102
0.0222107
2.73061
0.180576
0.0471321
0.0272158
22.0171
0.0222638
7.41285
0.0818571
3.96352
5.08186
2.44682
0.0218527
3.59154
0.0263118
0.181396
2.81491
0.0479485
2.42676
0.0222741
10.2475
3.13844
0.0222297
2.78928
2.45143
16.7121
0.672518
2.49675
0.021964
0.0217248
0.20411
0.0241821
0.0221536
6.39171
0.0222126
0.198902
0.0358963
4.88954
0.0222244
0.18368
2.75174
3.7577
5.32181
0.0220915
3.96764
0.022099
0.0243303
0.23166
0.247633
7.5816
0.0691166
0.0223387
3.71625
3.27662
0.0559833
0.0220801
6.4961
0.0376974
0.0243567
5.01369
0.0217617
7.40411
0.0219788
0.0223687
0.555647
0.0471433
4.61433
5.01443
3.42852
0.0274929
5.44251
0.0220473
3.62754
0.0222481
0.0264135
20.3081
3.36334
2.90437
0.396959
0.0219824
0.209853
6.20769
0.200735
0.20948
0.0440238
0.0478694
0.0221388
0.0219687
0.0533522
0.021967
3.303
0.0263973
0.0221641
0.0324668
0.0219672
0.205405
0.0693439
0.183659
0.0347467
0.021823
0.0218702
4.10872
3.96687
0.247541
0.0219837
0.0223026
2.89439
0.728259
0.12723
0.0219827
0.0614461
2.68017
0.0531571
0.0271586
0.0340726
9.0155
2.76884
0.0724028
2.92843
0.0664432
3.36377
0.0369402
0.0529966
0.483183
0.0228189
0.0220475
0.110842
6.52483
0.0240034
0.0217529
3.39009
2.71175
0.06414
0.230579
0.195017
0.0738944
0.436291
0.0223473
0.0220731
0.0221051
3.06126
0.0489832
0.0250956
0.0222429
2.43592
0.0526113
0.203444
4.76935
2.53386
2.55035
5.16109
0.0320381
4.55787
0.0221061
0.0218211
0.0651825
0.0221393
2.92062
4.28382
0.278836
0.0218128
0.0377847
0.273519
0.526597
0.626807
0.031195
0.0528141
18.1694
2.66439
0.181061
0.0299464
0.0222755
0.0219035
6.65111
0.0489063
7.44955
0.0279601
0.0238325
0.208553
0.174213
0.0226482
0.0225766
0.0739391
0.472732
2.8312
2.76987
0.0422252
2.87011
2.83262
0.0238456
0.0529038
2.57269
0.0269874
0.234888
0.0222803
0.530248
0.0222349
0.0489203
0.025235
0.0221297
0.568159
0.0226629
3.80527
0.0218083
0.17915
6.32044
2.91952
0.0296025
0.053636
0.022264
0.095636
0.0220254
0.0482707
6.38331
0.0294983
0.0269938
0.0221186
2.74558
0.0218525
17.8471
2.76722
0.174771
0.0222513
1.56357
4.65838
2.52527
0.184894
0.0369682
0.151109
0.340707
0.0380815
0.369141
0.034622
5.53553
0.174563
0.0218836
0.0280408
0.208485
2.43844
3.86495
0.0218965
0.133321
0.0220451
0.329586
0.517366
0.0286539
0.0532362
0.182567
0.0220318
0.0449777
0.156829
4.94045
0.0220879
0.0221233
0.0297244
2.62352
5.59067
0.0523727
0.0220173
0.685912
0.464037
0.153272
0.0527902
2.59683
6.54588
0.0289585
0.0381827
10.9092
0.0219668
0.0221043
0.159417
0.061895
0.0218615
0.0222322
0.0220184
0.0220036
0.0369336
0.022098
2.55808
0.0492763
0.0220922
2.43328
3.01012
0.0222504
0.183135
6.60218
0.0229633
0.022273
0.0512316
5.26229
5.08619
0.0725982
0.0220735
4.63575
0.0220988
0.0783674
5.13577
4.86591
0.0249008
10.9118
4.6355
3.27726
0.189607
0.046024
2.98168
2.7188
5.14245
0.0226802
4.37692
19.5613
0.83695
0.746541
0.0238615
0.0713884
0.0305897
4.85403
0.0514849
0.021886
0.0216184
0.0290873
3.23774
3.19739
0.0219609
2.90519
0.0307521
0.0343865
0.0253039
6.80749
0.574342
0.199143
0.024907
0.0263609
2.39857
0.0222923
0.612277
0.0288755
0.0511818
0.0317198
0.0220455
0.0220885
0.182391
0.223163
0.176588
8.20196
2.40893
0.0240947
2.74785
2.13808
0.0218708
4.82244
0.108019
5.06645
0.0285233
0.0883062
3.75241
8.89588
0.169104
4.53399
0.0232112
4.305
12.9433
0.0332762
4.21898
0.0363684
2.82082
0.0375746
0.0485755
0.175013
0.312793
0.0220743
0.0283486
0.0663548
0.0380248
0.0219861
0.0529376
3.40457
0.0220788
0.0529768
4.81092
0.0252139
5.53432
0.0527484
5.49479
0.027622
0.0768619
2.22988
0.779347
0.0524988
4.67231
6.39358
1.30013
0.0220351
0.170806
0.0364461
0.0870677
0.0219873
17.525
3.46217
8.30486
0.0263216
0.179628
4.05981
5.25797
0.021726
5.81114
0.370832
22.4211
0.0357888
5.60829
0.0220707
0.0221272
6.17765
4.11255
0.0220523
0.0256534
0.0537978
0.0218492
3.65681
0.0719876
0.105769
0.0280834
0.0232346
0.0222202
8.95236
0.0220797
0.0221948
3.11174
3.52267
0.0266441
3.76535
0.0221054
0.0220966
0.0256504
0.18176
0.0526248
0.0220017
0.0236342
0.233653
0.0244463
6.30173
0.0220795
0.0306872
2.51504
0.0367196
0.0216543
0.0221229
0.0279406
0.0228931
1.24737
2.91745
0.0372965
7.45828
0.0257297
0.0220634
2.63753
3.77273
0.0360959
0.0221137
2.75713
0.0353009
7.5374
0.0221368
0.0344247
0.174672
0.0399025
2.66727
4.0468
8.39046
0.0242277
0.199661
0.022034
2.44952
0.0524754
0.172691
0.0362355
0.0246618
0.0367725
0.0659258
0.0220949
5.54569
2.63363
6.74412
5.19189
2.98319
3.75305
0.698187
0.0286558
0.0222075
9.48836
0.0220543
0.0219811
0.0308256
2.92578
0.0254105
0.0227978
0.0948451
0.0521309
0.0220546
6.0694
0.0219792
2.69748
1.13027
0.0219778
0.0246967
0.397141
4.88477
0.0218625
9.52017
14.4142
0.021947
3.18276
1.69379
0.176113
0.0241898
3.17403
5.21218
0.0219795
0.619249
0.022315
0.0219824
3.17038
2.84293
0.0429256
0.0515939
0.0220546
0.0670727
2.70133
3.00239
0.022119
4.98705
0.0219947
0.0223453
0.0530688
0.030916
0.021724
0.0243609
3.20315
0.291932
3.13479
0.0249464
0.0220425
2.6306
0.0221798
0.173925
0.030422
0.0376552
0.0366882
2.63556
5.23628
0.027795
5.87835
0.0245526
0.0711605
2.46408
3.7099
0.0222836
0.0220384
0.0486367
3.12985
3.56368
0.0660542
13.0328
0.0311441
0.0364875
8.32763
6.06001
0.171728
2.67057
0.554804
2.43728
0.022908
3.73789
5.72008
0.0220827
15.2441
4.28092
0.0321007
0.0529375
0.022178
6.63997
0.0827565
15.475
0.0220807
0.0221659
0.0268717
0.0512046
0.0220885
2.90077
0.0221602
0.291913
0.0242655
0.0885704
0.0221356
0.022055
0.0494121
5.27525
0.0522876
2.92002
0.0344539
0.021859
0.021961
0.0657408
0.0236173
0.110216
0.0259837
0.035426
3.71328
0.0221815
4.75226
0.0222537
0.128867
5.01831
2.54652
0.0284258
16.0441
0.0919479
0.299783
4.10078
0.0222183
5.72558
0.0307971
0.0344617
4.98708
6.81846
0.021888
0.107231
0.0226261
2.41608
5.66811
0.02248
0.0738923
3.79159
0.0222633
0.0222522
0.0830604
5.83694
3.38811
0.0222782
0.173304
0.0241485
0.0220558
3.67585
0.177638
0.187349
0.0216902
0.157468
0.0481809
0.0709949
0.0227602
0.0236396
0.0776746
0.0267424
0.179921
0.0559909
0.0558698
0.140148
3.18323
1.72041
3.20789
9.50079
0.230838
3.50553
0.0417953
3.10131
0.184007
0.02212
0.0356131
0.532149
0.0282507
0.02198
0.0219746
0.128495
5.40605
0.0308613
2.75262
0.0218632
3.32002
0.158149
7.06043
0.106834
0.0277935
0.0254796
5.77151
0.186421
0.0401441
4.09676
0.0230399
7.54502
0.130164
0.347411
0.0354859
0.809482
0.0220698
0.0222454
0.0235394
0.0220559
2.46566
0.0220033
3.65986
2.59866
0.109418
3.00619
5.47597
0.364962
0.329435
0.0287792
0.02218
0.0221047
0.0217619
0.021952
0.0221415
0.0719518
0.191321
0.0516551
5.08078
0.0236023
2.58257
0.0222935
3.97879
0.0441597
0.0222834
0.0221337
2.5481
0.0280088
3.66836
4.26918
0.0509528
0.0765718
0.0219305
2.76356
0.0249326
0.0254474
3.69876
0.0221835
0.0228221
0.0221304
0.0523643
5.02613
0.0314641
0.0359742
0.412651
2.97408
0.0294996
0.0276973
2.45821
0.0217555
2.44184
0.0222022
0.0244874
7.25114
0.0965353
0.177019
0.0991338
0.052647
0.0222272
0.0222936
0.0761285
0.0229957
0.0222346
0.0317505
0.378327
0.0219892
0.273389
4.04315
3.69701
0.0972806
4.30978
0.0376643
0.0221756
0.164923
0.0218748
0.0284153
3.30877
2.40391
5.76149
2.5043
0.022591
0.0224464
0.0727138
0.0234336
0.0219505
22.4615
0.417733
4.08357
0.13185
0.0991228
0.0220611
0.0218586
7.55164
0.105667
0.0249086
0.0222529
0.178515
0.230326
2.76547
0.0223281
0.0221525
6.33795
0.022731
0.0365277
0.0218508
2.93161
0.0219709
4.48199
0.0220795
0.15575
0.0440509
0.0729411
0.0358394
0.0220774
0.0256464
0.0220252
3.61908
0.0227662
3.23174
0.0231542
4.24186
2.63494
0.0336728
0.0220065
4.26006
2.96785
0.0283915
0.0964597
0.0221005
5.45389
0.0221576
0.57875
0.0220712
0.0220221
3.75295
0.0369355
0.0221135
0.0364744
2.71104
5.26529
3.66926
0.0218942
3.22033
0.0220811
0.0219959
0.0223488
0.0215672
0.0222334
3.74223
3.33676
0.0226703
0.0221563
0.0433301
0.0219688
4.12258
0.169747
4.18855
3.02026
0.0255738
0.17906
0.0220761
0.0469463
0.125793
0.0222003
0.0222106
2.11841
5.5264
0.0744929
14.351
0.0706372
0.0221033
0.0452332
0.0985216
6.278
0.0354344
3.86066
0.108452
0.022224
13.1536
11.7417
3.7974
6.80112
3.16966
0.0241936
0.146446
0.0221936
4.53837
0.0276983
0.0218881
3.61116
0.0234628
0.0220074
0.0222864
0.023278
2.89912
0.540971
0.0219076
0.0459149
5.09694
0.0237589
13.7652
0.0234494
0.0906358
2.84101
0.0221009
3.58304
0.0312725
0.0352194
5.90147
0.0234587
0.499428
0.0759556
2.75692
0.0228315
3.72111
0.0328706
3.35996
6.46547
4.79248
0.0511138
0.0220887
0.022599
0.0222633
0.0462656
0.022125
2.66528
0.0302585
0.0285065
0.0292454
0.024129
0.0218876
0.0298897
0.0288514
0.0246898
0.0282972
3.66329
3.57622
0.0322533
0.0536442
3.74817
0.0228575
3.23368
0.0217592
0.0346103
0.0227735
0.02209
0.0475207
0.0220586
0.0219021
0.0452958
0.0220806
0.345487
0.0233879
15.977
5.12345
0.342363
0.435101
0.0224395
2.9716
0.217389
0.0222263
0.0287273
0.0226974
3.29914
0.0234054
0.0453854
4.77393
5.45186
0.087854
0.022456
2.59399
4.77714
3.10503
0.0311422
0.0218521
0.0221066
0.0727646
0.0220789
6.39076
0.184915
0.0221982
1.39876
0.365776
0.0221021
3.8099
5.01103
0.35763
0.0232834
2.59743
0.0713669
0.0220272
5.3823
0.0275215
0.0220435
0.0219833
0.0361372
0.0465497
2.55972
3.9426
0.04744
2.55443
0.0379789
0.0220472
0.086277
0.0219791
5.13245
0.0221345
0.0220485
0.0245969
0.0229366
2.61649
4.57311
3.7509
5.40103
5.20564
0.029624
0.0220926
0.0233896
0.593125
0.022122
0.0220732
0.0464613
7.25954
3.40698
0.021757
0.041633
0.036162
0.173799
13.7695
0.0219503
0.0217102
0.0248012
8.56088
0.0317348
2.70347
0.02361
0.0221635
0.0220551
0.0219811
0.025202
0.327299
2.45486
2.52827
0.0291928
0.0220637
5.5379
0.022907
5.60122
3.94197
0.0313578
4.33835
2.45547
3.84178
0.0623971
0.0352095
2.91734
0.0332962
0.0348455
0.0746265
0.310543
0.0229126
5.16691
0.0220497
3.32308
8.4672
0.0217624
0.0242877
0.0484706
0.489847
0.0369145
0.0221432
0.0305969
0.0233582
0.02779
1.21509
0.0221635
2.90275
4.93747
0.0220565
0.0340023
0.0460345
0.0220881
2.39181
10.7787
2.97296
2.77186
0.0220477
0.0254456
0.027837
0.0223686
3.71903
0.03741
0.0222566
0.0707814
0.0261403
4.03722
0.0442106
6.51663
0.0232396
0.0237496
0.0517848
0.105304
0.0781023
0.0220264
11.391
3.16349
25.0115
3.43044
3.24392
2.53917
3.56678
0.022025
0.0220428
0.0223515
3.56368
0.051653
0.077583
5.92872
0.0227208
0.0217134
0.0220542
3.32221
0.0217464
0.0287039
0.024217
3.28997
0.0231826
0.02188
0.022092
0.0220563
0.0221631
0.0351123
3.68383
0.0350177
3.99821
0.0220468
0.0219846
2.67525
2.68593
5.83429
3.5274
0.0494107
3.31603
0.0218467
0.0640076
0.0237498
0.0220845
0.025807
4.00936
0.0238416
0.106952
9.19612
0.0227553
0.0220726
0.0267755
0.49764
0.0222719
3.27957
0.0223333
3.48783
0.0221269
0.0226576
0.0285117
0.100591
0.0221773
3.98651
3.30997
3.20699
2.79644
0.0220692
5.17897
4.5664
0.0220589
8.68615
0.0223526
0.0434755
0.0222766
0.0227189
0.0219699
0.0220522
0.0227296
0.027705
0.0740495
0.0225446
0.0220991
0.0628322
0.0218818
6.70308
0.022127
0.0346658
0.0379885
4.22954
5.21267
0.0221488
0.415902
0.0218446
0.0343737
0.0734901
3.56636
0.0532559
0.0222724
0.149606
0.0779807
0.0971418
5.24366
0.0368233
0.171998
0.0657635
0.0760316
0.0231442
0.021992
3.75219
4.57647
0.0255079
0.0220239
13.243
0.0218691
0.0462015
0.0219803
0.0867188
9.45424
0.021666
5.0985
0.0276963
0.0221711
0.255103
0.0218878
0.0415641
2.6513
0.0434903
3.68593
0.0219652
0.0222648
0.0446926
0.022226
0.0222465
0.0305079
0.0319131
0.0743799
0.090404
0.0221726
0.0415603
0.0219632
0.0220699
0.0222153
0.0220609
2.55256
0.0221571
0.0234848
3.77198
0.0218637
0.0220128
2.65878
0.0222497
15.4147
0.0240938
2.70613
0.554378
0.0534174
6.59043
0.0698561
2.01697
0.0228387
0.250027
0.0283007
0.0219784
0.0219663
0.0234539
0.0336509
0.0220419
0.057292
0.0219234
0.0237529
14.3267
6.35335
4.39391
0.0256763
0.0476888
4.06534
5.02311
0.0221738
0.0283797
2.01708
0.0225618
0.0432422
7.40489
2.52636
0.0295247
0.0483383
0.0231375
0.392788
0.022285
0.0372046
5.454
0.0222708
0.0219539
6.92843
0.0467441
3.83479
2.84239
0.128872
0.0225544
0.0219265
0.0227023
3.73724
5.71067
4.34156
0.0602216
0.0220598
3.51927
0.0221116
0.19499
0.0269092
0.0244812
0.0470717
0.0220663
4.05495
5.24
0.0219493
0.0741748
0.0530781
6.61024
0.0477614
0.0656695
3.78433
0.0379084
3.53446
0.0682543
0.0221143
0.0397457
0.0838817
3.10525
0.0220442
3.85505
0.0504034
0.0702371
0.0222727
5.09317
0.0278747
0.0240218
0.0219551
0.0416705
0.0405292
0.0581474
0.0221289
0.0230021
0.0604944
21.1561
0.0645765
0.0221583
0.0227415
0.0397416
0.333037
0.0221728
0.0927769
10.6893
0.0505352
2.60476
0.0458823
6.61086
0.507563
0.0220275
6.74741
0.0222385
0.0257785
0.0360728
0.0375758
0.109023
0.0523994
0.0452465
0.0475957
0.0332241
0.0247156
0.0217378
0.0864306
0.0270639
0.0294604
5.14099
0.0271698
0.0314787
0.021973
4.3173
0.0871202
0.0221671
0.0259694
0.0233643
5.33548
0.175596
0.0360631
2.49916
5.06869
1.47761
0.103902
3.56856
0.0219241
0.317287
0.0220713
0.0271408
10.9465
2.38872
0.863705
2.79325
0.0221232
6.56302
0.0219205
0.0961421
0.0258785
3.32148
3.62003
0.0284828
0.0220256
0.596602
0.0439916
0.0220343
3.3027
0.0220731
0.0241101
0.0270677
0.0222648
0.0327841
0.0234816
0.0220611
0.0366192
0.647057
0.0442685
0.0646867
0.0220313
5.38572
2.39894
0.0220084
3.92861
0.0258069
0.0297194
3.99646
0.0220054
0.0229199
0.0285384
3.2126
0.0220419
0.0221831
0.0431775
3.10664
0.0219921
0.0331218
0.0358064
5.06489
0.0493779
0.0427738
1.32172
0.0220777
0.122278
0.0217636
5.79739
0.0319027
0.0220565
0.0296443
0.103083
0.0221514
0.0225341
0.182205
2.60944
0.0228908
5.24353
0.0221884
0.0217597
0.0705267
0.0220432
0.0221569
4.64829
0.0222737
0.0440961
0.254198
3.32191
5.04561
0.0221102
0.0241972
0.0285618
0.0220781
0.0220798
0.0221004
3.4348
0.0221961
3.45769
0.154357
0.0219529
0.0218959
0.032071
0.155179
3.87474
0.0579867
0.0657827
0.0243929
2.5484
0.0823687
0.0343235
0.045545
0.0694592
0.101417
16.8737
0.0439275
3.07843
4.28835
4.71218
0.0259486
0.0220782
0.0407595
0.0346354
0.0219996
0.0229171
0.140295
0.0222435
0.0225944
0.0220592
0.0216975
0.0246126
0.0223414
5.2768
0.0220225
8.59569
0.0220855
0.0921563
0.0229774
0.156513
0.0831983
0.0220927
3.25105
0.0241027
0.0222258
0.0444201
0.0219513
0.0317017
0.0222172
2.50557
0.0248758
0.0454913
0.105995
3.32379
0.0295305
3.44345
5.21404
0.0542653
0.0224307
0.0236166
0.115698
0.0694554
5.84178
0.0218725
4.13954
0.0222416
0.0906139
6.72045
0.0384748
3.31695
0.026095
0.0348977
0.025477
4.95346
0.03306
0.0221424
0.0517887
0.169106
0.0239998
0.0220509
0.022144
3.08985
0.0222524
0.0286935
2.71232
0.0267641
0.0220291
0.0601909
0.0257673
3.77085
0.0217157
0.0220454
0.0218904
0.026258
0.0228045
0.0224419
0.0706834
2.63523
0.0220138
0.0221047
4.42923
0.022801
4.76051
0.0252172
4.68657
0.0219617
0.0248572
0.021844
3.26103
2.8089
0.0315389
0.0736891
0.0271674
0.022036
0.0221185
2.53684
0.0221372
0.0959658
0.0219292
0.04877
0.0221905
4.12194
0.02187
0.0504135
0.0219257
0.542805
1.20615
0.0219213
0.0468239
4.73237
0.07523
3.4004
3.35394
0.266752
0.0235461
0.036618
0.105628
4.94872
0.0227565
0.043621
0.0286468
0.0221066
3.38821
5.15244
0.0757721
0.20729
0.542549
0.0353895
2.63398
0.0219947
0.021908
0.106173
5.84413
0.313435
0.181453
4.71999
0.0218494
5.1676
3.13146
7.63349
0.0222029
4.28325
4.01796
1.28464
4.05757
2.83789
0.0995262
0.0323145
0.208546
0.0259964
0.0220641
5.39097
0.105824
0.0217231
4.11115
0.0221893
0.0304447
0.0464652
0.0271663
6.51933
0.0356572
5.06655
0.0501108
0.0263603
4.38857
2.93413
0.17383
0.0224158
0.0260738
0.0774286
0.0614705
0.0218585
0.0509909
0.0646741
0.167265
0.0220425
0.261976
0.024958
0.0522768
3.10457
3.5182
0.023178
0.140572
3.58548
0.0222678
0.0231469
6.69301
0.417859
0.0252052
0.0257841
0.0220961
0.0785122
0.0271844
2.44706
0.107904
0.0226712
0.0222234
0.0674814
0.0310482
4.6725
5.24237
0.0219481
0.0220443
0.0290656
0.0221952
0.0251534
0.0232962
0.0232792
0.0261248
0.0219854
0.0254835
0.0222313
0.0526438
5.00726
0.0222642
3.77021
8.98339
0.0217655
0.252403
0.141589
0.0900441
0.0229534
0.105862
0.0288533
0.0819058
0.031979
0.0238244
0.0222096
5.74958
0.0310234
3.61966
0.022924
0.0220517
0.0220332
0.0746029
0.0220056
0.0534385
0.0679003
1.71595
0.0219458
4.67593
9.33383
3.03881
0.0218421
0.158448
1.03152
9.17052
7.26113
0.0226048
0.0225127
0.173456
4.65902
3.76
0.0442099
3.91431
0.0222315
0.0220248
0.0422862
0.0221967
0.0221516
0.186802
0.0222654
0.0920032
0.0219554
2.89051
3.51559
4.10604
3.15444
3.24139
0.0221675
0.0221472
4.8207
0.021896
0.0219327
0.021763
0.128726
2.82489
5.3059
0.0280641
0.0225842
0.0236669
0.0392041
5.05331
0.0220399
3.36287
2.93909
0.0221896
0.0221781
3.33112
0.0899261
0.024427
0.0220523
3.77768
3.28465
0.0222764
0.390779
0.0222537
2.92121
3.36162
0.02489
6.29889
5.44634
4.36046
0.0219328
0.0227459
0.0222449
0.0222861
2.72005
0.0219798
0.254041
3.61129
7.10451
0.0231775
0.0615773
4.98515
0.051923
4.84198
3.15617
0.0216881
0.0271848
0.0273475
0.191997
2.64067
0.0216758
4.75474
0.0336406
0.0474314
0.0229586
0.021955
0.390287
0.0426943
4.12354
0.0221965
0.0581556
0.0230347
0.157009
0.0253897
2.62105
4.42502
0.294031
0.118334
0.0220307
0.0244519
0.0979737
0.229631
2.60324
4.6139
0.0221503
3.37987
0.0950238
3.17985
0.0293228
0.0460804
0.0424261
0.0223658
4.13441
0.0220763
0.0352714
2.88268
2.83768
2.9101
2.77106
0.0294929
0.052662
0.0218913
2.91486
0.0283224
6.23674
0.0218846
3.58881
0.0216721
0.0220159
0.0347064
0.031987
0.0336377
0.0220745
2.98558
0.0492189
0.0219838
0.0400786
3.30755
0.639658
0.022062
3.28832
0.025129
0.0379978
0.0358843
0.021737
0.0667077
0.0220105
10.455
0.0853676
0.0293445
0.022044
0.456432
0.0428571
0.0218873
4.08992
5.82392
0.539021
0.0219292
4.98957
0.0221429
0.155912
0.029896
0.126267
6.45976
3.19652
0.0352241
2.77308
0.0525185
0.0294713
0.0218838
3.67994
0.120761
0.111826
0.0622752
0.0222435
3.22553
0.0927911
0.518535
3.71636
4.21186
2.93517
8.40162
3.84979
0.0299284
0.03226
0.0221005
0.0223548
0.0216936
0.274271
0.03034
0.0344132
3.22482
0.0219796
0.0218795
0.0466487
0.17109
0.029835
0.0218725
2.84537
0.0251728
0.0527766
0.0223728
4.55915
0.029461
3.74639
0.0586841
0.0366911
0.0553871
0.0220941
6.63856
4.9196
0.0732953
0.0221575
0.0219189
6.20293
3.39519
2.4233
0.0220635
0.0743537
4.80987
0.0223615
0.0220151
0.0222798
2.77327
0.105019
0.0365105
0.0300388
0.0279003
3.31935
0.0940376
0.703459
0.028682
0.0351069
0.0216971
0.133336
0.0582229
0.022042
2.54202
3.16563
2.70566
2.65372
3.74921
6.31484
4.62962
0.0232374
0.0221285
4.42949
3.8837
6.35516
0.0221843
0.043632
0.0220576
0.0220101
3.32863
2.88263
0.0693001
0.0220174
4.22469
0.105928
0.052011
3.57188
7.62
3.98798
0.0219236
2.62659
3.45696
0.428552
0.0357867
0.0458397
0.02221
0.021911
0.0415733
0.048178
0.0251646
0.0448163
0.0298148
0.025709
3.46523
3.4275
0.0325565
0.0471737
3.0901
3.36655
0.0221129
0.466296
0.97534
3.86667
0.0437705
0.0224399
0.0316397
0.0280459
0.0311919
0.0217376
0.0336234
0.0342532
0.0509013
0.261007
0.0222307
0.023552
3.04337
2.53498
2.90909
5.0049
0.146887
0.021642
0.022054
0.0324248
0.021871
4.45435
0.0220518
0.0222734
0.0218018
2.51091
18.786
0.0225518
0.0691385
0.0295584
0.0368264
0.03192
0.0357272
0.0440875
0.0397205
3.86349
0.0279058
3.62946
0.0414584
2.93908
0.031039
0.0219419
0.0218749
0.10911
0.181952
0.0218517
0.0409822
0.0313008
0.0617244
3.17876
6.10466
3.83314
0.0222732
6.12811
0.0308665
0.0385274
0.0220443
0.0723451
0.024252
3.08693
2.06929
0.0419113
0.0220843
2.53485
0.0275875
3.70818
4.02473
3.46901
0.0249276
0.151287
3.56389
5.87132
2.6985
0.0629769
0.0221255
0.0419522
0.0220845
7.41307
0.0252983
0.0336657
4.1979
2.99118
0.0220761
0.0220382
3.19677
0.0442631
6.20978
0.0331381
0.0220528
0.0455045
0.581145
0.0445461
3.51618
0.0379269
5.64863
0.0261815
0.0222448
0.0220272
0.331331
0.0227967
0.134948
0.0220668
0.022189
0.286335
0.028015
0.0223622
0.0220462
0.0373172
5.44636
0.0478212
0.0419352
0.0268863
0.0640104
0.0221244
0.164888
0.0326008
0.0465516
0.0713189
0.0308477
0.0907832
0.0460424
0.0220505
0.074124
5.5143
2.6624
0.022455
3.15557
3.65194
0.0220232
0.0227697
0.856377
3.41502
0.0281591
3.51498
0.710782
0.0224852
0.0974765
0.0216858
0.0275507
0.0646828
10.8813
0.536451
3.39511
4.82235
2.61782
2.77002
0.0245016
2.84687
0.0220499
3.39645
2.90677
0.0221045
0.0220843
2.81994
0.0221494
0.0220904
4.47099
2.71175
0.343398
0.0280878
3.14526
0.0221043
2.60575
3.16024
0.0221905
4.18757
9.42518
3.36759
2.92473
3.01704
3.02248
0.0219157
0.0233589
0.0653362
0.0707394
0.0220852
3.37369
0.0220523
2.89355
4.27227
0.0505226
3.95908
2.79358
4.20499
3.65754
0.0613149
6.2662
0.604654
0.0268483
0.0217157
3.45557
0.0362455
0.0218835
4.79331
0.022022
3.49668
0.022179
2.79879
0.0271963
0.0220153
19.9816
0.0278055
0.0363355
3.12081
5.19161
2.69342
0.0300963
0.0514594
0.0236216
0.0445961
0.15589
0.0451224
0.0222095
1.65038
0.0658301
0.034688
3.41103
0.0438475
0.0385773
0.218578
0.0782492
0.0498394
0.0220121
0.243061
0.0218776
0.155315
3.63649
3.48599
0.0218965
0.0416483
3.72457
0.0241125
0.0681009
0.0346775
0.0447474
4.1388
0.0657111
0.0236165
15.3005
0.0219037
2.53567
0.022128
0.0236602
0.15524
2.42071
0.0342504
0.39263
0.609015
0.0345027
0.0225465
0.166708
0.0476531
3.14038
0.0268026
13.1693
0.1825
0.0345878
0.0314947
0.10908
0.0396922
0.075558
0.0656192
0.0396882
0.0252084
0.0225768
3.43537
0.0220603
0.0304845
0.0216808
0.134547
0.031011
0.0654675
3.11624
0.0230957
0.338066
0.0215848
0.0222008
0.0221896
0.0222067
0.0287961
0.021965
0.0993306
6.56474
0.0651049
0.0490037
0.0266391
0.0222391
3.49601
0.0221108
3.72595
4.26392
3.77597
0.216553
0.0369456
0.0295146
0.0221789
0.0305698
0.098528
0.0448915
3.07692
0.0647678
3.55055
0.226335
0.0222105
0.0218659
2.71732
0.0220262
0.032117
0.0665119
0.579674
0.0243173
2.69073
0.0221738
0.0267981
0.0220582
0.0228285
0.169534
0.133718
0.0224925
0.0360999
0.0356223
0.0501044
0.0639463
0.526748
0.367722
0.312143
0.200117
0.0285983
0.0234868
0.0635051
2.4107
4.66254
2.52918
0.0349077
5.40732
0.132706
0.0233858
0.0220103
0.0713118
0.0221463
0.0361957
4.41382
0.0220037
0.0219729
0.968444
3.26299
0.0528297
2.27009
0.0221543
5.01349
0.0444322
2.94557
0.0301763
0.0221386
2.60236
0.0602033
0.0220674
0.0757218
0.0222529
0.166486
0.0306179
0.0560403
4.90147
0.0345266
4.10277
0.0219647
3.7934
0.0221859
0.0274857
0.0228069
0.0488206
0.0221445
0.0577929
2.50418
1.05888
0.0525208
0.0336972
0.0790873
0.0220405
0.0220506
0.0238228
4.1508
0.0269305
2.87591
3.95796
0.148579
0.0222158
0.154179
0.251079
0.177319
0.0282959
3.77051
0.0220385
0.0216354
0.022016
8.76915
0.0223477
0.022064
2.53417
0.0220086
0.186215
0.103474
0.0220617
2.61398
0.0310485
2.79107
0.0220952
4.66617
0.0232945
0.0730052
8.60775
0.0710972
0.0219864
0.0296806
3.75888
0.0359676
0.159449
0.033491
0.0275167
0.148441
0.0301817
0.0228094
19.6627
0.0311321
0.0310043
0.188494
0.022018
0.0219422
0.0221893
0.0347153
0.022198
0.0265974
3.98966
12.4848
0.105357
6.11763
0.070449
0.0392877
3.03987
3.44333
0.0225499
7.47376
8.27204
3.19798
5.95162
0.0330501
3.85145
2.56682
16.2435
6.43599
4.31037
0.0441296
0.0856468
0.0302551
0.0281344
0.0222108
1.59115
0.022285
4.0078
0.128883
0.345174
0.0216558
0.0821092
0.0473272
0.0236849
0.0222931
0.0221189
0.127203
0.0246959
0.0227793
0.0462117
3.05773
0.0254055
0.164762
0.0218578
0.129708
0.0851906
0.0222381
0.0276221
0.0219666
2.80428
2.69731
0.218782
10.8998
0.0346863
0.0974821
0.0221333
0.046674
0.0220802
0.022616
0.0222334
3.22369
0.0218669
0.0525481
0.797086
0.0289758
0.0336306
0.022022
3.29171
0.228003
12.5724
3.92148
0.192432
0.75259
3.64523
0.645783
3.5977
6.9184
0.129579
0.0346153
7.64053
2.99573
0.0220553
4.56975
0.157905
3.45932
0.021671
0.0688816
3.31819
0.0222732
3.84919
0.0255441
5.37141
0.0220936
0.0221177
0.0706341
0.22671
0.0290579
0.0671859
0.0219664
0.0224638
2.98885
4.02987
5.94892
0.0614518
0.022795
0.022526
0.022138
0.0376316
1.13605
2.70237
4.29693
7.4069
0.0340854
0.0219604
0.0219881
5.20072
5.88843
0.383707
0.0267987
0.0254939
0.0847083
4.0788
5.73571
0.0216468
0.0219891
3.84716
0.0236018
0.259913
0.0285172
0.0221738
0.0338793
0.0476617
3.79291
3.45754
0.0222023
0.0219788
0.025746
3.42614
3.25815
0.022265
0.14064
3.25369
0.0216446
3.31136
2.64095
10.8634
0.0221128
4.82836
3.74275
0.0406953
0.321206
0.0264126
0.311816
0.761043
0.0271632
0.0219873
5.93671
6.419
0.0220432
0.183125
0.156055
0.0324039
0.433259
3.41338
3.35545
3.06161
0.030784
0.0237133
0.024052
2.70585
3.8814
3.64513
5.04101
3.65721
0.0218589
0.0495785
0.0220697
0.0221172
0.0254139
0.0219856
0.0220673
0.02262
2.72521
12.8118
5.54244
0.0588377
0.245893
0.0359124
0.0219313
0.0219911
3.60262
0.0221412
4.63594
2.5035
0.0221799
0.0220729
2.51683
0.022839
0.56425
0.0271193
0.0217958
0.0218616
3.42195
0.0217666
3.06128
3.29029
0.0216682
0.0497152
0.022077
0.0237977
0.0222184
0.117457
3.74271
0.0219876
2.88639
0.475231
0.0245262
0.0220769
0.0228776
0.0242761
0.0222266
0.732533
4.22474
4.74525
0.0468634
5.82758
0.0222726
0.0277061
0.0228176
0.178555
0.0236642
3.50433
0.0218817
3.3307
4.61534
4.50546
0.240029
0.0218768
0.0456584
0.0220376
3.20617
0.0222214
0.0296627
0.0276906
0.0270483
0.0223357
0.0222512
0.0333359
2.90665
0.0222355
0.0233256
0.0250636
0.0348085
0.390829
0.0221888
4.49625
2.50483
0.0247836
2.86872
3.76605
3.31585
4.64957
0.0216183
0.0234161
3.38688
2.60437
0.151323
2.60804
2.72143
0.0341165
0.0522318
0.0338258
3.56608
0.0220475
0.0219717
4.00547
0.155188
4.09508
0.026406
0.0218256
0.0220555
4.11242
0.0802213
0.0250496
0.236711
0.0220431
0.0708513
0.0326732
0.033077
0.0225177
0.0221896
0.0219472
0.0260576
1.35406
5.01823
0.0216734
0.0220825
2.89911
0.0222125
0.0654002
0.026086
0.0257168
0.0442595
0.0222857
3.46267
0.032622
0.0253907
16.8462
0.0983077
0.0236091
0.0378713
0.0220588
0.0227654
6.01702
0.290993
2.74101
0.0227044
0.022156
0.0633588
0.0275883
0.0220433
0.0447878
3.12618
0.0267292
0.0431951
0.0259534
0.154599
0.0221179
0.0219761
3.92472
4.32567
4.30679
0.022023
0.208619
0.0218839
0.0220365
0.0830666
2.74556
0.076174
0.0298749
0.207736
0.0235907
0.0327924
0.0523817
0.759978
0.0226633
0.0217159
0.0226691
0.0253606
0.0302605
0.0219877
1.24841
9.64447
0.022447
0.0329311
0.0224717
0.0218994
2.75297
4.00419
5.01508
0.090387
0.0224222
0.0642272
2.94227
0.10541
0.131041
0.0348357
0.0305756
3.98171
0.752336
0.849964
0.0218019
0.03131
0.0221418
0.0322899
4.84915
0.021683
0.0422952
0.0255683
0.0311015
0.0233819
0.0220447
0.0218988
2.60094
0.0501644
0.033723
0.0747228
0.0361755
6.23602
0.032233
0.484073
0.0219749
3.40945
3.888
5.26189
0.0222646
0.0346847
0.0220861
0.0220552
4.7118
0.0498761
3.51221
0.0220177
0.0458607
0.182502
2.72512
0.0285826
0.0218675
4.84834
0.0222851
0.0222841
0.0228772
0.0220469
5.27613
0.021928
0.0219385
0.0376946
0.0277595
0.146254
0.133914
0.0338525
2.68194
0.0225839
0.180315
0.0220736
3.47217
0.0356093
0.477894
0.164082
2.7191
0.134772
3.23886
0.0239146
4.12953
0.0333064
3.86365
0.202689
0.0281312
0.230417
0.0222815
6.11865
0.0239507
0.0397709
0.027637
7.04849
0.216786
3.15281
0.0317692
0.0220481
3.80384
0.247767
0.0664159
0.16455
6.65086
3.32229
0.0407256
0.293079
0.0457158
0.0219489
0.0506478
0.271863
0.0709778
22.3199
0.123226
0.0218833
0.0222697
0.1411
0.0220878
4.47979
0.0729905
0.0220889
2.50728
6.38051
3.29463
0.111363
0.0223493
0.0295045
0.026036
2.99418
2.45629
0.0260587
4.11517
0.0220422
0.0321468
1.32886
0.0220253
0.0426442
0.0219552
0.0272991
0.0222514
0.164851
4.82891
0.0306685
0.0301513
0.0218448
0.14397
0.0220438
0.0218884
0.0336828
0.021952
0.222044
3.18015
6.66497
2.68459
0.0218719
3.86185
0.0221896
0.0374994
0.134048
0.022526
6.14202
0.0715781
0.0221599
0.0218808
0.0447084
0.0391811
0.182261
3.51679
0.0259952
0.0244389
2.80983
0.0704236
0.459739
0.989323
13.5181
2.95645
3.59026
1.76507
0.0221938
0.0221163
0.0491201
0.0223755
0.0533018
0.0441112
5.09416
3.68442
5.52111
0.0219332
0.0219405
0.121959
4.25257
3.23872
2.14666
2.45507
0.0559398
0.0333801
1.74735
4.60662
0.0291306
3.05159
0.0337626
0.0328405
3.35481
0.0480395
0.0224575
3.47297
0.968545
0.0264926
0.142726
0.0243414
3.82778
3.60774
5.79638
0.0220377
0.0217467
0.173261
0.0220363
0.0222082
0.0220377
0.0218087
0.0220408
0.0220452
3.36998
0.0289865
0.0473561
3.15058
0.0219302
0.0220521
0.0341723
0.028658
0.0285275
0.0220584
0.0685852
0.0319995
0.0267877
0.0870374
3.26603
0.0220684
0.0467147
0.0220794
0.0220487
0.0217084
0.0220908
2.85239
0.0220743
0.022058
0.0221031
0.0457413
2.89139
3.24696
3.4596
3.80898
0.0489066
3.15245
4.28422
0.0219755
0.0433518
4.55917
3.53767
0.0221164
0.0316597
0.0502752
0.0377439
0.0220681
0.0492546
0.05848
0.0450999
0.0217061
0.055632
5.86007
0.0216664
4.71524
2.96335
0.0434771
0.656539
0.0374132
0.0220954
0.0273433
0.0220526
0.235931
3.2999
0.0218687
0.0446217
0.0220133
0.0219851
0.0223189
0.0222858
0.0387038
0.0221734
0.128761
0.149067
0.0268073
0.0252376
0.0482489
0.0220579
0.0451578
0.0375202
0.0226714
0.022107
0.0221438
3.00537
0.0220585
0.40351
0.0491905
0.0222534
0.022115
0.0220466
3.55636
0.0262191
0.0432989
0.0545283
3.36949
0.0285388
2.69481
5.88539
0.044102
0.022
0.308316
0.0407939
3.98757
0.0731331
3.55964
0.0219739
0.0521083
0.0510997
2.70694
0.0220488
0.0501214
3.41353
0.0219415
6.16575
10.0503
3.85253
0.0220208
0.0220275
2.88026
0.022059
3.41121
0.194978
3.14499
3.44498
0.0218999
0.245348
0.323879
4.14085
0.0251485
6.68597
0.0228112
0.026657
0.0220844
3.46779
4.71885