/*--------------------------------*- C++ -*----------------------------------*\
| =========                 |                                                 |
| \\      /  F ield         | OpenFOAM: The Open Source CFD Toolbox           |
|  \\    /   O peration     | Version:  v2012                                 |
|   \\  /    A nd           | Website:  www.openfoam.com                      |
|    \\/     M anipulation  |                                                 |
\*---------------------------------------------------------------------------*/
FoamFile
{
    version     2.0;
    format      ascii;
    class       volVectorField;
    location    "300";
    object      ddtCorrDdt0(U);
}
// * * * * * * * * * * * * * * * * * * * * * * * * * * * * * * * * * * * * * //

dimensions      [0 1 -2 0 0 0 0];


internalField   nonuniform List<vector> 
13851
(
(-0.00305915 0.00957896 -6.61542e-21)
(0.0219396 0.389969 -4.14638e-19)
(0.0178401 -0.0085301 -1.21949e-18)
(-0.000793342 0.00878139 -5.44497e-20)
(0.0278302 -0.0285154 -1.34086e-17)
(0.0629684 -0.0155464 -1.33793e-19)
(-0.000580605 -0.000879523 8.60846e-19)
(0.0156852 -0.0160876 -1.16582e-18)
(-0.000707164 -0.000552915 -4.40727e-20)
(0.0557995 -0.0360764 -1.22197e-18)
(0.0367219 -0.0367931 -1.9555e-19)
(0.174708 -0.0413922 2.51884e-19)
(0.0525159 -0.230305 -3.35975e-18)
(0.05805 -0.32792 -1.90391e-17)
(-0.00071521 -0.000103722 3.53502e-18)
(-0.00426832 -0.0224162 6.78807e-19)
(0.000929839 -0.00666433 -4.93456e-19)
(-0.00838281 -0.00301266 3.69502e-20)
(-0.0087536 -0.150852 7.01455e-18)
(-0.000646406 -0.000556018 1.59302e-19)
(-0.000827103 0.00809453 -1.42337e-19)
(0.0154157 -0.0104038 -1.94331e-18)
(-0.000300324 -2.77292e-05 7.50664e-20)
(-0.000466765 -1.10214e-05 6.26944e-20)
(-0.000253899 -1.59075e-05 4.31519e-21)
(0.0159492 -0.0168586 1.88694e-19)
(0.00248525 -0.00154327 -1.64939e-17)
(-0.00507492 0.141951 2.53896e-18)
(-0.00365149 0.00847489 3.38784e-20)
(-0.00844377 -0.00219641 7.94601e-19)
(0.0566939 -0.0228966 2.46016e-19)
(0.00131479 -0.00708092 7.18693e-19)
(0.0200242 -0.00978216 2.26966e-18)
(0.0826429 0.19194 -1.1924e-17)
(-0.000454351 -1.82432e-05 -1.81521e-19)
(-0.0197666 0.162118 -4.75787e-18)
(-0.0334745 0.151058 2.2442e-17)
(-0.0567145 -0.020314 -2.9346e-19)
(0.0633335 -0.0330377 -4.17275e-19)
(0.0728367 0.191077 3.93091e-18)
(-0.00156456 0.000855435 3.63535e-19)
(0.000431226 0.000926969 1.42307e-20)
(0.100087 0.00902518 -5.77678e-17)
(0.0087522 -0.0103523 4.6998e-19)
(-0.00765408 -0.0266619 1.58858e-19)
(0.0703028 -0.201435 -2.28957e-18)
(-0.0452765 -0.00536396 1.66022e-19)
(0.11922 -0.117018 4.39076e-20)
(0.00277801 -0.00140037 2.37745e-18)
(0.060393 0.00626096 1.10683e-18)
(0.0548959 0.00496396 3.25722e-17)
(0.092726 -0.0505626 1.27883e-18)
(-0.111243 0.615948 9.1061e-18)
(-0.000812595 -7.43382e-05 1.17645e-18)
(-0.0010402 2.44509e-05 -1.47303e-18)
(0.000532631 0.000961479 -1.88477e-20)
(-0.0001564 0.000124582 -1.74717e-20)
(-0.31256 0.290839 -1.27134e-17)
(-0.00807396 -0.00202604 -6.46696e-19)
(-0.000711604 -0.000883152 5.21759e-18)
(-0.0594951 -0.00717133 -8.0505e-19)
(-0.211274 -0.316188 1.18445e-17)
(-0.032911 -0.0856344 -5.18805e-19)
(0.0343385 -0.0390419 -9.40655e-18)
(-0.335773 0.501281 1.48075e-17)
(-0.000969562 0.0162014 1.96632e-19)
(-0.0327303 0.147266 1.49844e-17)
(-0.0572274 0.00533304 -2.30195e-19)
(0.013365 0.00137167 -9.34079e-18)
(-0.00917261 -0.00373523 3.34038e-20)
(-0.0290759 0.0352734 1.10182e-17)
(-0.0191496 0.134442 6.49578e-18)
(0.0351074 0.327153 1.18265e-20)
(-0.000801272 -7.60872e-05 2.05078e-18)
(-0.00108361 2.4825e-05 -1.77868e-18)
(-0.00102399 -0.00106506 -9.18175e-20)
(0.015927 -0.0120105 2.86033e-18)
(-0.227747 0.0560348 5.62586e-18)
(0.0221702 -0.00922627 1.26551e-17)
(0.00912303 0.0308363 -3.48244e-17)
(-0.000721735 -0.00136971 -3.95589e-18)
(-0.00347725 0.0342321 -3.10218e-20)
(-0.00117406 -0.000239254 -3.97379e-18)
(0.102031 -0.0143126 4.03944e-17)
(-0.0111696 -0.094519 5.40513e-19)
(0.177437 -0.039604 -5.89306e-19)
(0.0422749 -0.00421783 -5.59901e-19)
(0.0148195 -0.529879 -1.45367e-17)
(0.00369468 -0.00425438 1.31919e-18)
(0.00364705 0.000224034 -9.37059e-21)
(-0.0060804 0.157967 -3.40735e-18)
(0.000991928 -0.0359638 -1.19075e-18)
(-0.0490204 0.0170763 3.57607e-18)
(0.00672183 -0.00428337 -3.15356e-18)
(0.00353766 -0.00375163 -3.32584e-18)
(-0.000341227 6.98144e-05 2.36039e-20)
(0.0308199 -0.0308293 9.3894e-18)
(-0.132071 -0.164899 -4.99669e-18)
(0.0619122 -0.00651903 -7.81345e-19)
(-0.000316505 4.71195e-05 -2.58832e-21)
(-0.397163 -0.811669 -1.07013e-16)
(0.0286981 -0.00231267 -3.87293e-18)
(-0.00501349 0.00184017 -8.46628e-19)
(0.000842206 -0.000184355 -1.99406e-17)
(0.000289156 2.73321e-05 2.59291e-20)
(0.0343776 -0.0115403 8.37736e-19)
(0.0349745 0.000378896 1.05783e-18)
(0.000598823 0.00038395 -4.81206e-20)
(-0.00915725 0.121605 -3.96796e-18)
(0.0776129 -0.0190219 -9.31893e-20)
(-0.000518377 3.82174e-06 2.07268e-20)
(0.00404605 0.000553585 1.51394e-20)
(-0.00267257 -0.0334881 -2.36364e-19)
(-0.00032062 -4.76657e-07 -8.02022e-20)
(-0.000537656 2.81397e-06 1.23802e-19)
(0.00993553 0.0697085 1.00001e-18)
(-0.112945 -0.180738 -1.87951e-18)
(0.000243946 0.00045818 1.01263e-19)
(-0.000615917 4.44805e-05 1.0695e-18)
(-0.00104865 3.14921e-05 3.34096e-18)
(0.148539 0.0476788 5.38974e-17)
(0.000941151 -0.00025903 8.6831e-18)
(0.0399095 -0.242065 1.22556e-17)
(0.109377 -0.294521 4.12229e-18)
(0.124312 -0.153107 2.8174e-19)
(-0.00302457 -9.08501e-05 -3.80014e-19)
(0.131797 -0.205183 2.89668e-18)
(0.0248279 -0.00717614 -8.89411e-18)
(0.000313325 0.00752915 -1.59359e-20)
(0.00115986 -0.0613473 -1.40114e-18)
(-0.00151779 0.000756017 -1.13689e-18)
(-0.000303742 0.000261597 1.03525e-18)
(-0.0287245 0.0401029 -1.39452e-17)
(-0.00112678 -0.000243196 2.91561e-18)
(-0.00902917 -0.0296026 9.23063e-18)
(-0.000378877 0.000112193 -4.64366e-19)
(0.000217359 0.000412966 -5.02465e-20)
(-0.0267942 0.1388 5.38932e-18)
(-0.0574089 -0.321711 5.88248e-18)
(0.518079 0.606091 -2.02688e-17)
(-0.496261 -0.857485 1.19825e-16)
(-0.00103142 2.0777e-05 1.7968e-18)
(0.000685619 -0.0085177 -5.64144e-19)
(-0.000813222 0.00237224 5.80109e-20)
(-0.00259634 -0.00479708 -5.07493e-19)
(0.0130343 0.0172572 -7.32867e-19)
(0.00965088 0.00233607 8.02785e-20)
(-0.00603481 -0.0574111 3.92551e-18)
(-0.000603605 -0.000829454 -2.67782e-18)
(-0.00220735 -0.0384584 -2.17278e-19)
(0.0223067 0.0585784 1.12751e-17)
(-0.00104263 2.98415e-05 3.92771e-19)
(0.0900153 -0.661081 -7.57204e-17)
(-0.00011954 0.000116408 8.51618e-21)
(0.000263909 -0.0028277 -1.32182e-18)
(-0.00285843 -0.00456654 -8.20033e-19)
(-0.000248279 0.000783739 2.86139e-19)
(-0.00637559 -0.0024375 -9.26912e-19)
(0.0853322 -0.0574421 -1.21545e-17)
(0.0524361 0.00175882 -1.06628e-18)
(0.00147466 -0.00106176 4.19117e-20)
(0.00647734 0.000166987 2.47271e-18)
(-0.271803 0.35368 3.63198e-17)
(-0.000290514 0.000219744 7.7527e-19)
(-0.0144984 -0.00462612 -1.91041e-19)
(-0.000186165 0.00174776 5.84296e-20)
(0.00790714 0.00359617 -2.29454e-21)
(0.0137467 0.00239063 -6.13392e-18)
(0.000118581 0.00665279 1.00938e-19)
(-0.104776 -0.181864 -1.30653e-17)
(-0.230756 0.0519309 1.33588e-18)
(-0.000605766 0.000198099 -4.10993e-20)
(-0.000248121 0.000829438 3.2618e-19)
(0.531687 0.307348 -3.87484e-18)
(-0.000289512 0.000197658 5.40534e-20)
(0.0990587 -0.0411676 -9.29509e-19)
(0.023444 -0.00700762 8.27451e-18)
(0.00493731 -0.00327957 -4.01905e-19)
(0.00970126 -0.173289 -3.32603e-18)
(0.000769664 0.00034339 4.27006e-20)
(0.00157386 -0.00828031 2.29549e-18)
(-0.0222491 0.133996 -3.62443e-17)
(-0.00103512 -0.000244111 -1.25289e-17)
(0.0129181 -0.00981342 1.40092e-18)
(0.000420205 -9.42351e-05 -5.72776e-21)
(0.000105279 -2.21108e-05 -3.13232e-20)
(-0.00317352 0.0165303 -3.61398e-20)
(-0.00100796 2.22166e-05 -3.63419e-18)
(0.0187618 -0.0348607 -1.101e-18)
(0.0186219 -0.138223 -8.53307e-18)
(-0.0434687 0.00892281 -2.42064e-20)
(-0.166044 0.581111 -7.2394e-18)
(0.00526365 0.000260272 3.20709e-20)
(0.013723 -0.00239581 -2.31244e-17)
(-0.253888 -0.282471 -9.83903e-18)
(-0.000128297 -0.00292165 2.84437e-19)
(-0.000211272 -0.00707164 -2.6593e-19)
(-0.0037122 0.0456972 -2.72744e-18)
(0.00385698 -0.00394508 -4.33622e-20)
(-0.000973781 -0.00115968 -6.46909e-20)
(-0.00295308 0.00033145 -4.53104e-19)
(-0.0237872 -0.348211 1.15381e-18)
(-0.000776812 2.51092e-05 5.75667e-19)
(-0.00143492 -0.000292405 2.69272e-18)
(0.0221892 -0.0776213 -4.20525e-18)
(-0.00105522 -0.000277921 6.05448e-18)
(-0.477468 0.903191 -4.31703e-17)
(0.00208461 -0.00592545 5.20484e-18)
(-0.11541 0.0744828 -3.00023e-17)
(0.00106176 -0.000259071 -3.00946e-20)
(-0.0864654 0.12184 -1.30209e-17)
(-0.00462714 0.00171162 5.91044e-19)
(-0.0664421 -0.0188369 3.77265e-18)
(0.000693325 5.1212e-05 -7.48371e-21)
(-0.000253643 0.00229676 2.79395e-20)
(0.036357 -0.0598312 -1.42569e-18)
(0.0158266 -0.0748584 -2.57434e-20)
(0.135689 -0.248806 1.55217e-17)
(-0.000775164 -0.000146714 5.58109e-19)
(-0.119723 0.0790652 3.97274e-17)
(0.00219426 -0.00636843 -1.83658e-18)
(-0.00064047 -0.00141961 2.55461e-18)
(-0.143686 0.0356961 -8.09232e-18)
(0.0484254 -0.0690972 -6.83923e-18)
(-0.0549674 0.102625 -1.42818e-17)
(-2.78409e-05 -2.81717e-05 -5.62781e-20)
(0.00900077 -0.00496912 -6.39265e-18)
(0.000232314 2.32767e-05 -2.81548e-20)
(-0.0912993 0.550761 1.28577e-17)
(0.000734845 -3.29322e-05 3.33033e-20)
(0.015266 -0.0177482 -8.00299e-19)
(0.162989 0.0638882 3.09643e-18)
(-0.000593995 0.000201929 6.0201e-22)
(0.00472722 -0.000148963 -2.31441e-20)
(0.045563 0.0149444 1.57488e-17)
(0.0153772 0.0294448 1.52688e-19)
(-0.515201 0.791358 -3.14371e-17)
(-0.315139 0.412647 2.37852e-18)
(-0.000598799 0.00248565 1.82838e-20)
(-0.00144988 -0.000285583 -6.00386e-19)
(0.0475202 -0.0198841 -4.61967e-19)
(0.0433396 -0.038994 1.20144e-18)
(0.00342501 -0.00192267 5.06537e-20)
(0.0303496 -0.0821908 3.48443e-18)
(0.000335136 4.62827e-05 4.89021e-20)
(-0.071294 0.0966688 3.92947e-17)
(0.0292583 -0.00446672 5.94417e-18)
(8.13521e-05 0.0833887 -7.60276e-18)
(-0.00357697 -0.00464713 -2.65297e-18)
(-0.00334885 -0.00957347 1.04876e-18)
(-0.00986078 0.0328886 -2.53894e-18)
(0.0423669 -0.0321352 -7.60387e-19)
(-0.00211141 -0.00178949 -3.8799e-18)
(-0.0032496 -0.00488978 1.75004e-18)
(0.0299054 0.0143646 2.79199e-17)
(-0.178824 0.0736555 2.43452e-18)
(-0.00168376 -0.13092 5.37885e-18)
(-0.0298704 0.13876 3.20736e-19)
(-0.265404 0.0294712 1.30894e-17)
(-0.000718545 -0.000321451 -8.44799e-19)
(-0.000453958 0.00226744 -2.40868e-19)
(-0.0109476 -0.00290546 4.40625e-20)
(0.0226894 -0.151963 -1.02226e-19)
(-0.00274692 -0.000383483 2.4714e-19)
(-0.0514278 -0.161083 -2.07816e-18)
(-0.000272818 -0.00304191 -1.05313e-17)
(-0.00198571 -0.00170305 2.27098e-18)
(0.00618001 -0.00406579 8.70834e-19)
(-0.132168 0.0310498 -2.70811e-17)
(0.0125627 -0.00513676 -2.07164e-20)
(-0.00183561 0.0359581 1.6058e-18)
(0.000126009 -0.00301948 -1.98198e-19)
(0.0850424 -0.103816 -1.94774e-19)
(0.0208386 -0.00799956 3.50253e-18)
(-0.00614445 -0.0213188 -4.74884e-19)
(-0.000301646 0.000283114 -2.60262e-20)
(0.00422647 0.0411214 4.58368e-20)
(-0.00546233 -0.0270028 -4.39583e-19)
(-0.00789765 0.0962562 -1.20537e-18)
(0.0345111 -0.0532917 7.29656e-19)
(0.00346068 -0.00244045 -5.53253e-20)
(0.000872827 -0.000448328 -7.39666e-21)
(0.000314644 1.78284e-05 -8.3275e-22)
(0.0268501 0.0137826 -2.39206e-18)
(0.00502613 -0.136803 2.74866e-19)
(0.0613323 0.0715456 3.92813e-19)
(-0.000705948 -0.00082775 5.92164e-20)
(-0.000608319 -0.000237204 -3.40426e-18)
(0.0682993 -0.101405 5.72187e-19)
(-0.00713862 0.0368034 -2.9524e-20)
(-0.0131556 -0.0644233 1.84009e-18)
(-0.00762884 -0.00220271 -1.07073e-19)
(-0.000732428 -0.000915505 -8.65414e-18)
(0.0162228 -0.000502439 2.12983e-18)
(-0.0127903 0.0312307 2.18447e-19)
(-0.0318655 -0.167136 3.87664e-18)
(-0.012521 -0.00669946 1.26643e-19)
(0.187915 -0.0150851 3.49399e-18)
(-0.000305294 0.000338277 -5.92981e-19)
(-0.0750684 0.101207 -6.07636e-17)
(0.00594345 5.95146e-05 2.57822e-18)
(0.000339162 -0.00684857 5.80045e-18)
(-0.0214647 0.10068 1.8056e-17)
(-0.00334002 -0.000200636 -1.07564e-18)
(0.0375466 -0.0111278 7.39562e-20)
(-0.147383 0.10066 -1.49376e-17)
(-0.000673043 -0.000768482 -2.22066e-19)
(0.0214975 0.00845119 1.64773e-17)
(0.00678889 -0.00500214 3.95509e-18)
(-0.00727934 -0.00199812 1.76388e-18)
(-0.114057 -0.340789 -1.43831e-18)
(-0.0133122 -0.00677675 2.06444e-19)
(-0.00239081 -0.00155352 5.71189e-18)
(-0.141183 -0.0407197 -1.87609e-17)
(0.00028192 0.00118848 -1.81553e-19)
(-0.00286726 -0.0101656 -3.0994e-18)
(-0.0029866 0.00303755 -3.11465e-19)
(-0.0100613 0.100849 6.695e-17)
(0.0751957 0.102875 2.53051e-17)
(-0.000786702 -0.000164804 2.77577e-18)
(0.0315241 0.00349387 7.49886e-18)
(-0.000718766 -0.000181153 4.5067e-18)
(-0.268472 0.0340028 3.54812e-17)
(-0.0340693 0.046499 3.67568e-18)
(-0.00020025 -4.84463e-05 -1.15823e-19)
(-4.34228e-05 0.00058845 3.69279e-19)
(0.0776658 0.0946092 -1.42626e-18)
(0.00823628 -0.0046039 -4.50421e-18)
(0.000388856 -0.00244325 2.67872e-19)
(-0.00058568 -0.000242239 2.77241e-18)
(-0.00319378 -0.000238192 -1.66517e-18)
(-0.00245641 -0.00144485 -3.40811e-18)
(0.0231331 -0.0369144 6.98394e-19)
(-0.158108 -0.76058 1.67394e-17)
(-0.106636 -0.290364 3.48497e-19)
(-0.0196954 -0.0113485 -2.71919e-19)
(-0.0197432 0.104698 -3.51443e-19)
(-0.252212 0.00277521 -3.25482e-18)
(-0.000726857 -0.000100161 -1.35279e-18)
(0.0143241 -0.00340037 3.86818e-18)
(-0.0209771 -0.0603369 -1.06659e-18)
(0.0159769 -0.0331536 -2.25518e-18)
(0.0793684 0.0460229 -8.03727e-19)
(0.0942723 -0.0249545 -1.73554e-18)
(-0.0261969 -0.14788 -2.89893e-18)
(-0.0125799 -0.00721657 6.18159e-19)
(-0.0394716 -0.15216 7.93819e-19)
(-0.119974 0.109932 4.94718e-18)
(-0.000722675 -9.93857e-05 -4.86794e-18)
(-0.00707764 0.0146963 -4.44376e-19)
(0.00441166 0.0325304 4.02607e-19)
(0.0284632 0.106598 1.07658e-18)
(0.000428242 -0.00226141 -6.96524e-18)
(0.11518 0.0580487 2.0845e-18)
(-0.148136 0.474313 -6.32594e-18)
(-0.000207735 0.000849988 2.12117e-19)
(-0.060179 -0.148216 -1.58068e-19)
(-0.000106921 0.000563877 3.13454e-19)
(-0.000706623 -0.000177463 1.05686e-18)
(0.00037375 4.56619e-05 -5.99158e-20)
(0.000654864 0.00034026 1.32481e-20)
(-0.000347844 0.000757519 2.37659e-20)
(-0.114514 0.11509 7.14978e-19)
(-0.061431 0.0153866 1.1218e-18)
(-0.001844 -0.000356941 4.94451e-19)
(0.0197778 0.00803277 -4.67619e-17)
(0.000386393 0.00152467 4.63377e-20)
(0.180691 -0.013141 4.95789e-18)
(-0.0153639 -0.033674 -2.83486e-18)
(0.0467347 0.110995 3.72533e-19)
(-0.103167 -0.222514 2.65226e-18)
(-0.00193108 -0.000375022 -1.39607e-18)
(0.0317135 -0.0856921 -3.04742e-19)
(0.00634748 -0.00644442 1.73875e-17)
(0.0584205 0.0813295 9.0231e-19)
(-0.00124176 0.000658127 1.4855e-18)
(0.000203261 0.000509063 -1.23351e-19)
(-0.035508 -0.00788909 6.4609e-19)
(-0.313171 -0.636939 -1.22349e-17)
(-0.00103849 2.60752e-05 2.26786e-18)
(-0.185448 -0.279393 -2.01446e-18)
(0.0131899 -0.0380569 -9.33362e-19)
(0.10168 -0.0291505 -2.21661e-17)
(-0.0697879 -0.162283 1.94928e-17)
(0.0584909 0.0706474 -2.05217e-20)
(0.0500845 0.0639123 5.82043e-20)
(0.0169646 0.0118184 1.52079e-18)
(-0.000435496 0.000370662 2.65168e-20)
(-0.000799497 -7.06677e-05 6.61131e-18)
(-0.0191694 -0.00741604 5.37096e-19)
(0.0311169 0.00574974 -1.36326e-17)
(0.187953 0.0543176 -2.73384e-17)
(0.0132238 0.00441564 -1.00427e-17)
(-0.0538579 0.108511 5.28321e-17)
(-0.138892 0.10756 5.73373e-18)
(0.000258998 0.00156798 1.04614e-19)
(-0.000715231 -0.000349534 4.39593e-18)
(-0.0944773 -0.257362 -3.89338e-18)
(-0.0140234 0.0377141 6.01885e-18)
(0.194092 -0.0961915 1.16583e-17)
(-0.11117 -0.160407 1.67258e-17)
(-0.0462401 -0.010492 -8.59103e-19)
(0.00705375 -0.0066825 2.50313e-18)
(-4.6269e-05 3.78461e-05 2.76312e-20)
(-0.217977 0.00920598 2.15758e-18)
(-0.00072905 -0.00011489 -1.06838e-19)
(-0.00262607 -0.0211316 -1.60104e-18)
(0.0139434 0.00956739 -4.18082e-19)
(-0.00076671 -0.00068233 -1.25739e-18)
(0.0002723 1.69334e-05 -1.02934e-21)
(-0.000719128 -0.000717784 -5.01259e-20)
(-4.86025e-05 0.00175221 4.74876e-20)
(0.0386605 -0.0364401 4.07214e-18)
(0.00540986 0.0832749 -5.6148e-20)
(-0.2562 0.0322539 1.52811e-17)
(-0.0114588 -0.0057488 -1.09827e-19)
(0.0342887 0.00296929 -5.9246e-18)
(0.0293312 0.0297512 -7.78177e-20)
(0.042892 -0.0316828 -7.81428e-19)
(-0.00482197 -0.0111303 3.82197e-19)
(0.0528597 0.112942 -1.03307e-18)
(1.00236e-05 -0.00649522 1.14185e-18)
(0.0332734 -0.0603844 1.30947e-18)
(0.000267083 0.000373993 3.06766e-20)
(-0.000692429 -0.000664648 2.11028e-19)
(8.70021e-05 -8.01666e-06 3.3408e-20)
(-0.0837591 0.0139136 -5.14475e-19)
(-0.0529868 0.0127335 1.47217e-19)
(0.0337405 -0.0663988 -5.49563e-18)
(0.0241103 0.032632 6.0844e-20)
(-0.27677 0.0402346 -3.57827e-17)
(0.0903741 0.196691 -6.878e-18)
(0.0385859 -0.00648459 -3.33972e-19)
(-0.00105263 2.62518e-05 1.45335e-18)
(0.04578 0.0182562 -3.49563e-18)
(-0.00122431 0.000577141 -4.11229e-19)
(0.041652 -0.0336006 1.04987e-18)
(0.000179135 6.02399e-05 5.27661e-20)
(0.144416 0.0844991 -4.37544e-18)
(0.034231 -0.0238145 -1.5722e-18)
(0.0238058 -0.0134686 2.00333e-18)
(-0.144751 0.0734738 1.01332e-17)
(0.00410055 -0.00596074 -3.88153e-19)
(-0.0163373 -0.0109801 -8.15834e-20)
(0.0172508 -0.00680031 1.75291e-18)
(-0.0981769 -0.445256 -3.99363e-17)
(0.000447801 -9.02055e-05 5.54446e-21)
(0.00864843 -0.00735478 -2.16477e-18)
(0.023326 -0.00904553 -1.68814e-17)
(0.0112846 -0.0027701 -5.61899e-20)
(-0.000678625 -6.78831e-05 5.05712e-20)
(-0.00270431 -0.0013868 -8.59469e-18)
(0.0201066 0.0533426 3.26958e-18)
(0.0903092 -0.0420201 1.1594e-17)
(-0.00632053 -0.0137925 9.08618e-20)
(-0.0341877 -0.292553 -8.00537e-19)
(-1.90157e-06 -3.92301e-05 3.19764e-20)
(3.51938e-05 0.000492591 9.5513e-21)
(0.407217 -0.0143972 9.2426e-18)
(-0.0156512 -0.00319398 3.12643e-19)
(0.000797426 -0.00042261 2.26473e-22)
(0.0333844 -0.510331 3.68607e-18)
(-0.000419101 0.000351819 -3.68587e-19)
(-0.00193767 0.00974794 -8.54102e-21)
(-0.000649623 -0.000281598 -5.13052e-20)
(-0.0490477 0.00312761 1.48198e-18)
(-0.00584826 -0.00179458 8.62034e-19)
(0.000956511 -0.000278615 1.37328e-20)
(0.00288854 -0.00640565 2.8322e-20)
(-0.119079 -0.0742838 1.15204e-17)
(-0.00120589 -0.000275304 3.67623e-19)
(0.0156587 0.00401184 1.86588e-17)
(-0.000394761 0.000135038 1.90406e-19)
(0.0191704 -0.00601772 1.75619e-18)
(0.00869926 -0.0405225 -3.6782e-19)
(-0.000313114 -4.35589e-07 3.06495e-19)
(-0.000605018 0.00104429 3.09547e-20)
(-0.000470647 -7.80797e-07 3.85031e-20)
(-0.00047388 1.19109e-06 8.57602e-20)
(0.06314 0.0544083 5.67165e-19)
(-0.0017402 -0.0016743 -5.14395e-20)
(0.047099 -0.00735506 -6.23865e-19)
(-0.000993379 -0.000247884 4.96556e-18)
(4.15482e-06 5.78024e-05 -2.32741e-20)
(-0.186698 -0.966916 9.67068e-17)
(-0.140484 0.0688494 6.27224e-18)
(-0.00104838 -0.000355119 -2.22941e-18)
(0.0199125 -0.00776152 -1.6838e-18)
(-0.00391716 -0.0116187 6.35609e-19)
(0.0416526 -0.0515384 8.87522e-19)
(0.131462 -0.0803892 -2.8882e-17)
(0.000115345 0.000524611 -1.72924e-20)
(-0.0729046 0.0203564 -1.70107e-19)
(-0.00135371 0.000664279 -1.58902e-18)
(0.0171675 -0.0255946 -2.17704e-19)
(-0.000807994 -0.000786545 8.4377e-18)
(0.356243 -0.0418055 -3.91601e-17)
(0.000295995 0.000244566 3.34901e-20)
(-0.0400603 0.643242 -6.58737e-18)
(-0.0338148 -0.146539 -1.28124e-17)
(0.000361604 0.00100125 -1.23416e-19)
(0.018315 -0.0101409 -2.2848e-19)
(-0.147735 -0.122704 1.84833e-17)
(0.0158512 -0.0187826 1.18741e-18)
(0.0458872 0.0739269 8.78655e-18)
(-0.000631796 6.22364e-05 -2.20013e-21)
(0.055331 -0.15921 -1.18508e-17)
(-0.00105355 1.98757e-05 -3.21093e-19)
(-0.000278455 -3.28748e-05 2.96112e-19)
(-0.000274391 0.000279984 9.83698e-20)
(-0.000645444 -0.000727953 -3.50284e-18)
(-0.0127232 0.045273 1.08325e-17)
(0.0448048 0.00064619 -1.32052e-17)
(0.140337 0.0055735 3.55225e-18)
(0.117416 -0.196741 7.47469e-18)
(-0.006252 -0.0764316 -4.18742e-19)
(0.00168865 -0.000990647 -2.93579e-20)
(-0.0590351 -0.230123 7.41577e-20)
(-0.0360865 0.00978879 -4.5693e-19)
(0.00225358 -0.00803873 2.73072e-18)
(0.00689098 -0.000280872 -5.00865e-18)
(0.0491907 -0.0510772 -2.02787e-18)
(0.118594 -0.290097 -1.36345e-17)
(-0.0833109 0.126731 2.78058e-17)
(-0.000921268 -5.7537e-05 -1.84192e-18)
(0.35667 -0.196357 4.74507e-17)
(0.0645492 -0.141913 -9.19355e-19)
(-0.00157567 -0.360379 1.53849e-18)
(-0.0146528 -0.00596998 1.86392e-19)
(0.0189473 -0.0116656 -9.73811e-19)
(0.0957323 -0.178441 -4.30178e-19)
(-0.0121999 -0.0200493 3.50373e-19)
(-0.166987 0.103637 9.81898e-18)
(-0.0203551 0.0336613 1.5509e-18)
(0.177518 0.135319 -7.30371e-18)
(-0.00679467 -0.0023637 -2.77462e-19)
(0.172927 0.169834 3.59194e-18)
(-0.0670815 0.147938 -1.02624e-17)
(0.000304695 0.000287765 4.25878e-20)
(-0.012019 -0.0213982 -2.62655e-19)
(0.0475154 0.00311554 7.24458e-18)
(-0.154598 0.057791 -4.43513e-17)
(-0.00403751 -0.00489435 6.67777e-19)
(-0.00110098 -0.000149615 1.74835e-18)
(-0.000279629 0.000760381 -6.33307e-19)
(-0.00175966 7.60539e-06 7.78486e-19)
(0.0231973 -0.0344298 -5.14979e-18)
(-0.0147068 0.0284575 -9.9149e-20)
(-0.00987204 -0.455956 2.0149e-17)
(-0.0415553 -0.354945 1.14912e-18)
(-0.000297494 -5.18873e-05 -2.55637e-19)
(0.269111 0.0360611 -2.55211e-17)
(-0.200032 0.0692848 1.55273e-19)
(0.0310582 -0.0173912 1.45861e-18)
(-0.0215854 0.0152907 7.05152e-19)
(0.0152236 0.00279635 -2.33752e-17)
(0.000686481 -0.000348389 -9.9953e-21)
(-0.000730084 -0.000608086 -4.72834e-20)
(-0.00971163 0.00284519 -5.62462e-20)
(-0.0505675 -0.250772 -4.49794e-19)
(0.000462414 -0.00283939 1.7781e-18)
(0.0515881 0.0681478 2.0041e-17)
(0.00986091 0.14949 -2.10498e-17)
(0.000599517 0.000877545 -1.26248e-20)
(0.0446632 0.0304928 2.21736e-21)
(0.131693 -0.274001 -8.44834e-19)
(0.0262138 0.0789239 -3.57305e-19)
(0.0778142 -0.0416292 1.36847e-17)
(-0.0165866 0.048431 7.68032e-18)
(-0.0594984 0.146579 4.51348e-17)
(-0.00138303 0.000758536 1.03388e-18)
(-0.00072708 -0.000702427 -2.73382e-18)
(0.0587049 -0.433721 1.40421e-17)
(-0.144071 0.102428 -7.47371e-18)
(0.115443 0.0794813 -5.8127e-18)
(0.0124286 0.00517696 3.11919e-17)
(-0.0405921 -0.0976721 5.23925e-19)
(0.000701735 0.000399155 -4.28392e-20)
(-0.00127078 -2.98255e-05 -1.01765e-18)
(0.141721 0.110546 2.8208e-18)
(0.000561485 0.000767275 2.66721e-20)
(-0.00434116 -0.00460023 1.09836e-18)
(0.000762697 0.000222124 2.49807e-20)
(-0.000579991 0.000289772 6.3057e-19)
(-0.0708804 0.14625 8.88292e-18)
(0.030393 -0.0362232 -3.7032e-18)
(0.0188454 0.0265796 -1.22899e-19)
(0.000608193 0.000692592 5.22305e-21)
(-0.257723 -0.264401 -3.84344e-18)
(-0.0146394 -8.51184e-06 2.60398e-18)
(-0.000354007 0.000392258 1.52953e-18)
(7.17283e-05 0.000112559 -1.99137e-20)
(-0.00282978 -0.000687566 3.64381e-20)
(-0.00079252 -7.85457e-05 -1.87841e-18)
(-0.417776 -0.641593 -3.34093e-17)
(-0.0216246 0.0543294 9.26438e-18)
(-0.0529829 0.00750512 -6.80861e-18)
(0.0922077 -0.348015 1.09114e-18)
(0.0338208 -0.134184 1.20551e-18)
(0.01032 0.00452021 -8.12921e-18)
(-0.165176 0.0526254 3.58511e-17)
(-0.116136 0.0667828 -3.79075e-17)
(-0.0131468 -0.00985575 -4.13712e-19)
(0.0141308 0.00040732 1.34016e-17)
(0.000661693 -0.000444463 6.49445e-21)
(-0.00200843 0.00163542 3.04644e-19)
(0.00274353 -0.0219392 1.85803e-18)
(-0.06832 -0.159476 -5.64729e-18)
(-0.0280276 -0.137212 1.29687e-20)
(0.0521447 0.0629832 -1.02352e-18)
(0.00568027 -0.00975005 3.86548e-19)
(-0.000655512 -0.000459434 -2.3737e-19)
(-0.0101544 -0.0219629 -7.54189e-20)
(-0.00726694 -0.00566576 -2.8597e-20)
(0.0454455 0.0692183 -6.31498e-18)
(0.0494463 -0.00993566 -4.45433e-18)
(-0.000976265 -0.000215308 -7.43572e-19)
(-0.0159761 -0.0138993 1.92586e-19)
(-0.000667443 -9.19174e-05 -3.7649e-20)
(0.0060097 -0.00294071 -3.40021e-18)
(0.0258216 -0.069036 4.43706e-19)
(-0.000738142 -0.000839874 -5.02026e-18)
(-0.00113423 0.000571321 6.15416e-20)
(-0.0115014 -0.0350265 1.43663e-18)
(-0.00123759 -0.00100191 -1.13829e-17)
(0.024421 -0.0297411 7.98075e-18)
(-0.066768 0.0241099 -3.62282e-19)
(0.0520063 -0.0625972 1.87871e-18)
(-0.0150074 -0.0218812 -2.03608e-19)
(0.110062 0.093398 1.77695e-17)
(-0.000637187 -0.000425269 1.15455e-19)
(0.213942 -0.159233 -1.01645e-17)
(-0.0216212 0.0374934 1.43651e-18)
(0.187243 -0.339063 -2.37664e-18)
(-0.00451462 0.00130966 -2.57219e-20)
(-0.0004436 4.63569e-05 9.51288e-20)
(-0.0134533 0.125672 1.92514e-17)
(-0.00808728 -0.000567049 7.28761e-19)
(-0.0809465 -0.118521 -1.13703e-17)
(-0.110427 0.105485 -1.17699e-17)
(0.310553 -0.288829 -5.6973e-18)
(0.0380201 -0.444932 -1.50615e-17)
(-0.000713376 -0.000143601 6.28091e-20)
(-0.0150216 0.130038 9.86483e-18)
(0.00397005 -0.00268897 -2.46272e-20)
(-0.000516151 0.000326618 7.13387e-19)
(0.000335333 0.000212269 -1.56374e-20)
(-0.00057892 0.000329624 3.1407e-19)
(0.00824433 -0.00336585 2.01832e-20)
(-0.0135528 -0.00770968 -3.65772e-20)
(-0.0399462 0.00477776 4.26461e-20)
(0.000574503 0.000609657 1.00931e-20)
(-0.222538 0.225196 1.04104e-19)
(-0.00916122 -0.161529 1.17039e-17)
(-0.290052 0.223159 1.65866e-18)
(-0.000266167 0.000602556 2.04506e-19)
(0.000409503 0.000117149 -9.62322e-21)
(-0.00036993 -4.2687e-05 -6.30983e-20)
(-0.0214363 -0.0485861 4.73138e-20)
(-0.298975 -0.222196 -1.32001e-18)
(0.0241493 0.024637 1.80194e-17)
(0.00639402 -0.00325322 -3.03845e-18)
(0.00428509 -0.00237886 1.00663e-20)
(-5.50161e-05 5.66562e-05 -1.8361e-20)
(-0.000307709 -1.81899e-05 -1.57377e-19)
(-0.000177531 0.000737706 -7.62906e-19)
(-0.0254944 0.116268 2.31947e-17)
(0.0657396 -0.352642 1.52852e-17)
(-0.00124082 -0.000940699 8.76301e-19)
(0.00061082 0.000537793 -5.40371e-20)
(-0.000607868 -0.000781093 1.76689e-18)
(-0.000189492 0.000765497 6.01601e-20)
(0.12342 0.0480229 1.82099e-18)
(-0.178094 0.447023 1.53305e-17)
(-0.00812508 -0.0231953 8.42028e-20)
(-0.126265 -0.20132 -2.68558e-18)
(0.0932301 -0.229656 1.89652e-17)
(-0.00113274 0.000502411 1.69225e-18)
(0.128187 0.000139735 1.61137e-17)
(-0.130409 -0.499386 2.05655e-17)
(0.0155178 0.000570292 -4.71296e-18)
(0.175158 -0.0540395 1.09799e-18)
(-0.000817986 -0.00140709 -1.40786e-17)
(-0.0100974 -0.00304622 1.3221e-19)
(0.0243802 0.0230047 -1.72791e-17)
(-0.0120722 -0.00400926 -1.37385e-21)
(-0.0524679 -0.0105692 -2.60699e-18)
(-0.00103259 -0.000316954 1.67375e-18)
(0.106114 -0.237492 -4.48441e-18)
(0.000199672 4.88798e-05 1.39539e-20)
(0.00325425 0.00678285 -1.45227e-17)
(-0.13909 0.0796787 2.98053e-17)
(-0.00162788 -0.000647374 3.89124e-21)
(-0.00721212 0.00051799 5.51471e-19)
(-0.0626411 -0.0759487 1.20122e-18)
(-0.000280802 -2.9206e-05 -2.5897e-21)
(0.00112374 -0.00779865 3.80818e-18)
(0.0446758 -0.118354 -3.05239e-18)
(0.417757 -0.0567057 5.88864e-19)
(0.0457766 -0.0116254 1.31805e-17)
(-0.0614638 -0.139078 -6.86003e-19)
(0.0696292 0.0752782 2.98915e-20)
(0.000706183 0.000173473 -1.01201e-20)
(-0.000282578 0.000582901 -1.09266e-18)
(-0.212838 -0.974918 -2.83699e-17)
(0.0212882 0.146732 2.53976e-17)
(0.0191304 0.045389 -6.47457e-19)
(-0.110704 0.108427 9.05264e-18)
(-0.000796613 0.000246744 1.06679e-20)
(-0.00059417 -5.47401e-05 5.26445e-18)
(0.000255008 0.000322753 -3.40244e-20)
(-0.00734403 -0.0509297 -2.23119e-18)
(-0.0531552 0.155481 1.87517e-17)
(-0.00998189 -0.00551843 -4.37512e-19)
(-0.00157361 0.00328647 2.04063e-19)
(0.0143756 -0.0473318 -5.28802e-19)
(0.00261852 -0.00255442 3.18021e-18)
(-0.000388157 -3.64486e-05 3.67092e-21)
(0.0796201 -0.0315553 2.16644e-17)
(-0.167626 0.0742262 -9.48385e-19)
(-0.202449 0.0582906 1.06987e-17)
(0.000375682 0.00112532 -7.44956e-21)
(-0.00117444 -0.000906946 8.08133e-18)
(-0.189185 0.0542674 2.78505e-17)
(-0.0719784 0.325631 1.13074e-18)
(0.0246826 0.146845 -2.88302e-17)
(-0.00618343 -0.0043314 1.09563e-20)
(-0.0524366 0.133641 -2.75864e-17)
(-0.00110611 -0.00028254 4.21618e-18)
(0.027216 -0.0565633 -1.36477e-18)
(0.00755631 0.025327 2.15592e-19)
(0.0252056 -0.010901 -2.89031e-19)
(-0.00295538 -0.00820625 2.25325e-18)
(0.258357 -0.215569 5.48647e-18)
(0.0150697 0.0227785 3.18105e-19)
(-0.00988283 0.00599189 1.87157e-19)
(-0.0365418 0.155154 -1.12922e-16)
(-0.000468979 4.63227e-05 -6.25455e-20)
(-0.000549525 1.33195e-05 4.73399e-19)
(-0.00615669 -0.00197388 1.39171e-18)
(-0.000660856 -0.000379492 1.90131e-19)
(0.193292 0.0165553 -1.80765e-17)
(0.00385548 -0.0168927 3.47752e-21)
(0.0845794 -0.0395651 -1.65943e-18)
(0.0146088 0.028127 -1.53829e-19)
(-0.000529171 -0.0339108 1.67059e-18)
(-0.000626052 -0.000509638 -1.29182e-19)
(0.0507821 -0.140558 3.21261e-18)
(-0.000382687 1.85094e-05 -6.22261e-19)
(0.0189182 0.0192398 -9.20472e-19)
(0.000322677 0.000174534 7.64658e-20)
(-0.00106986 0.000443003 6.61358e-19)
(-0.00095644 7.69497e-05 -1.19889e-18)
(-0.154843 0.0962568 1.52514e-17)
(-0.000318444 0.000783965 6.81845e-19)
(8.24178e-05 0.000679007 -1.92043e-19)
(0.0877508 -0.20055 -5.00989e-19)
(-0.00071137 -0.00074599 5.20761e-18)
(-0.180877 0.0610903 -1.88766e-18)
(-4.27356e-05 4.45173e-05 -1.05643e-19)
(-0.00308596 -0.00796873 -2.58719e-19)
(0.0483015 0.0273837 -8.99555e-18)
(0.139709 0.0354448 -7.86891e-19)
(-0.0306884 0.0152763 2.58092e-18)
(-0.000380753 -6.01812e-05 3.7899e-19)
(0.102073 -0.0742491 2.00584e-19)
(-0.107503 -0.240325 1.68249e-17)
(-0.00185755 -0.00176676 -2.1028e-18)
(-0.127248 0.113141 2.40542e-17)
(0.00363884 0.00636249 3.00005e-18)
(-0.000664008 -0.000308432 1.19671e-20)
(-0.0210315 0.0648365 -5.68781e-19)
(0.120562 -0.00570108 -5.13453e-17)
(0.0855774 -0.0555307 -1.17231e-20)
(-0.00570932 -0.00959107 3.23816e-19)
(-0.000284371 -2.78339e-05 3.17949e-19)
(0.000575391 0.000462257 -3.65062e-20)
(0.000459396 0.00398199 -8.08386e-19)
(0.0307977 -0.0071101 4.28095e-19)
(-0.107176 -0.0454628 -5.43954e-19)
(-0.0119054 -0.00595945 8.60865e-19)
(-0.00680545 0.0682175 -1.07836e-19)
(-0.000877407 -6.61782e-05 -9.6136e-19)
(-0.004323 -0.00697818 1.30489e-20)
(0.0263117 0.0753842 -2.49865e-17)
(-0.0353172 -0.0452114 -5.57552e-19)
(0.0167226 -0.0314682 6.82916e-18)
(-0.016329 -0.15373 -1.17759e-19)
(-0.00117559 -0.000846943 6.155e-19)
(0.0186519 -0.027879 7.42504e-18)
(0.0695361 0.00829084 -1.91357e-17)
(-0.00504108 0.102427 -1.76501e-17)
(-0.0101158 -0.00473972 5.85479e-19)
(-0.147501 1.40634 -2.79249e-17)
(0.105347 -0.192341 5.0312e-18)
(-0.000674472 -0.000777503 -1.02139e-17)
(-0.0360333 -0.0779906 -4.21191e-17)
(0.17374 -0.115509 9.27857e-18)
(-0.182557 -0.280551 1.21107e-17)