/*--------------------------------*- C++ -*----------------------------------*\
| =========                 |                                                 |
| \\      /  F ield         | OpenFOAM: The Open Source CFD Toolbox           |
|  \\    /   O peration     | Version:  v2012                                 |
|   \\  /    A nd           | Website:  www.openfoam.com                      |
|    \\/     M anipulation  |                                                 |
\*---------------------------------------------------------------------------*/
FoamFile
{
    version     2.0;
    format      ascii;
    class       volScalarField;
    location    "800";
    object      k_0;
}
// * * * * * * * * * * * * * * * * * * * * * * * * * * * * * * * * * * * * * //

dimensions      [0 2 -2 0 0 0 0];


internalField   nonuniform List<scalar> 
13917
(
0.000162152
0.000148459
0.0148429
0.000150341
0.00014877
0.000194447
0.0232328
0.0124813
0.0171488
0.000169883
0.00018274
0.000168878
0.000150441
0.00814955
0.000154533
0.00015334
0.000148951
0.000166022
0.000168465
0.000148619
0.000149754
0.0240587
0.000148459
0.00811713
0.000148184
0.0241311
0.00016207
0.000164704
0.000195219
0.000176202
0.000163071
0.000155173
0.0001604
0.000155228
0.000148477
0.000201602
0.000148524
0.0300737
0.0001523
0.0115333
0.000147
0.000149895
0.000144986
0.000168418
0.00014772
0.000156464
0.000165526
0.00017103
0.000358267
0.000147938
0.00015362
0.000150261
0.00047142
0.000155496
0.000149038
0.000153786
0.000182674
0.000148418
0.000152248
0.000147579
0.00721974
0.000148455
0.00714125
0.000148534
0.000192386
0.000408238
0.000148874
0.000148947
0.000184445
0.000160641
0.000148803
0.0132181
0.0373859
0.000148172
0.000361132
0.000171583
0.0240858
0.000149257
0.0243842
0.000149532
0.000149294
0.000148894
0.0001895
0.032438
0.0560721
0.000149067
0.000149108
0.000295393
0.000153347
0.000144944
0.0371063
0.000173909
0.000146854
0.000151054
0.000329901
0.000191331
0.000178748
0.000169369
0.000179849
0.000171313
0.000146445
0.000159374
0.000168507
0.000149856
0.000146259
0.00922076
0.000187544
0.000171809
0.000148959
0.000164608
0.0529816
0.0120538
0.000172878
0.0116843
0.000151685
0.000401861
0.000147904
0.000277366
0.0158721
0.000155391
0.000149806
0.000184395
0.018381
0.000164132
0.000147626
0.00015081
0.000147673
0.000147682
0.000145113
0.000193356
0.0263346
0.000151515
0.000147815
0.00014981
0.000216865
0.00702566
0.000162315
0.000171656
0.000148835
0.000155263
0.000193939
0.000146052
0.000150673
0.000170248
0.000148968
0.000688376
0.000198155
0.000150101
0.000145884
0.000155646
0.000166291
0.000397299
0.000173502
0.000162692
0.000154195
0.0367284
0.000159927
0.00021902
0.0208542
0.000215717
0.000153187
0.000162539
0.000149529
0.00017801
0.000172591
0.00017954
0.000149817
0.000167679
0.00014697
0.000159831
0.000163108
0.0320501
0.000174261
0.00014979
7.97409e-05
0.000163824
0.0275913
0.000300682
0.000531089
0.000147287
0.00017452
0.00016363
0.000146013
0.000149039
0.000157698
0.0207847
0.000192492
0.0432664
0.000159417
0.000178522
0.00019355
0.0603644
0.000190891
0.000148558
0.000172372
0.000161746
0.000150138
0.000146918
0.000178178
0.000371023
0.000152968
0.00014805
0.000166057
0.000165889
0.0329389
0.000205859
0.000148473
0.000148519
0.000168877
0.0169853
0.000150426
0.0236901
0.0244126
0.000178572
0.000146312
0.000194372
0.000166309
0.0321194
0.000147599
0.000841732
0.000147231
0.000175049
0.00014697
0.0330974
0.0103369
0.000153614
0.000223084
0.000154418
0.000146338
0.000200376
0.000173767
0.000159178
0.00650218
0.0200692
0.00014615
0.0001555
0.0401909
0.0425314
0.000149471
0.000147394
0.0122402
0.000180604
0.000149757
0.000190938
0.000176067
0.000162391
0.000160337
0.00014947
0.000163455
0.0219432
0.000146998
0.000177576
0.000174036
0.000147558
0.000148389
0.000169838
0.0165808
0.000172684
0.000157874
0.000154663
0.000149789
0.0142683
0.000244414
0.000193019
0.000146393
0.0387759
0.0159302
0.000203631
0.0247048
0.00017251
0.00014937
0.000147318
0.000165567
0.0301272
0.000179122
0.000151925
0.000208987
0.000161215
0.000145068
0.000149526
0.000148448
9.77493e-05
0.00015259
0.000149722
0.000155246
0.000162643
0.000162481
0.000191578
0.000158997
0.000147484
0.000198403
0.00665939
0.000500731
0.00014761
0.000196278
0.000149188
0.000147468
0.000147937
0.000209722
0.000148563
0.000176189
0.000159925
0.000146849
0.000166174
0.000150355
0.000359189
0.000163502
0.000172776
0.000146257
0.000148307
0.0507725
0.0171121
0.000147854
0.000147141
0.000157256
0.000147087
0.03972
0.000146215
0.0346408
0.000148396
0.000195013
0.000157456
0.0004084
0.000152763
0.000205698
0.000183421
0.000155253
0.000180494
0.0001911
0.000149229
0.0271637
0.000173011
0.018764
0.000154189
0.0127432
0.00015591
0.0667127
0.000180917
0.00017112
0.000170969
0.0192252
0.00014939
0.000163614
0.0575023
0.000149292
0.000151444
0.0166405
0.000180763
0.000149523
0.00019199
0.00019474
0.000146752
0.0143158
0.00019592
0.000148399
0.000146968
0.000149239
0.000145852
0.000197776
0.000254902
0.000211305
0.0559104
0.000148028
0.000179005
0.0104895
0.000161318
0.0248625
0.0332635
0.0132219
0.000146095
0.00019206
0.000146815
0.000477643
0.000147567
0.000433541
0.000176189
0.000151574
0.00014926
0.000167888
0.000175714
0.000171787
0.000677803
0.0633338
0.0258342
0.000163867
0.00016905
0.000147453
0.0465073
0.0255486
0.000148394
0.000202839
0.000148305
0.000194261
0.000148388
0.000149463
0.000150492
0.0233633
0.000150451
0.0183933
0.0263356
0.000180848
0.000193843
0.000149146
0.000191566
0.000190297
0.000148056
0.000182009
0.000149185
0.00014827
0.000176175
0.000149719
0.000148274
0.000146786
0.000194703
0.000149614
0.0136803
0.0188612
0.0093458
0.000190686
0.0220426
0.0309154
0.000161079
0.000148047
0.000184749
0.000152076
0.000156338
0.000148499
0.000355221
0.0213543
0.0152038
0.000153361
0.000177858
0.000153851
0.000152707
0.000171526
0.000150308
0.000193342
0.000148872
0.000148517
0.0433295
0.0266946
0.0276261
0.00017733
0.00601166
0.0294725
0.0546745
0.0219206
0.000145277
0.000167164
0.000150343
0.000148693
0.000201445
0.00016599
0.000147778
0.000169414
0.000160355
0.0207028
0.000148024
0.000178546
0.0301321
0.000206956
0.0170235
0.000149669
0.000148449
0.000149839
0.000160057
0.000146108
0.0170213
0.000202464
0.000158878
0.0478839
0.000153682
0.000178338
0.0568681
0.000198686
0.000180178
0.00019491
0.000178553
0.000169191
0.000183907
0.000161207
0.000182599
0.000194893
0.000163184
0.000173276
0.000146775
0.00020928
0.000154181
0.000145486
0.000159218
0.000149429
0.0217731
0.0104244
0.000147033
0.000145206
0.0126522
0.0258056
0.000149721
0.0137102
0.000149293
0.000186406
0.00014718
0.0323054
0.000211715
0.000155626
0.000148591
0.0236862
0.000189113
0.0147628
0.000149776
0.0250283
0.000364845
0.000155629
0.000145539
0.0497184
0.0206079
0.000161288
0.000146914
0.000149051
0.000171659
0.000195981
0.000147339
0.000147015
0.000147493
0.00014745
0.0341392
0.000201744
0.000161053
0.000192045
0.000147471
0.000146498
0.000177424
0.0397979
0.000157986
0.000147052
0.00014824
0.0001488
0.000142505
0.0613574
0.000149067
0.000148706
0.00019074
0.000160967
0.00015746
0.000148445
0.000150664
0.000154577
0.000172856
0.000186607
0.000192508
0.000184887
0.000176516
0.000205827
0.000172629
0.000147688
0.0255374
0.000148809
0.00015176
0.000151164
0.000208643
0.000168414
0.000146543
0.000204956
0.000177972
0.00873016
0.000176492
0.000160233
0.000161048
0.000149204
0.00515814
0.000196648
0.0305273
0.000148651
0.000155672
0.000192267
0.0348508
0.00947815
0.000170338
0.000179232
0.000153243
0.000151557
0.000148529
0.000165013
0.000169057
0.000149807
0.000165915
0.000173673
0.0296994
0.0173688
0.000151803
0.000177787
0.000205816
0.00015609
0.000150162
0.00044329
0.000932658
0.00209089
0.000190872
0.000145192
0.0153905
0.000171264
0.000146733
0.000157165
0.000171756
0.000159816
0.000175999
0.0245926
0.000183217
0.000159406
0.00420502
0.000149972
0.0188106
0.000149535
0.000149016
0.000191775
0.000817303
0.000200205
0.000149958
0.000149612
0.000148679
0.000161565
0.000401878
0.000178658
0.000151748
0.000179215
0.000167372
0.000147224
0.000233695
0.000178217
0.000197329
0.00014745
0.000182777
0.000149411
0.0307459
0.000170254
0.000168473
0.0001559
0.000146915
0.000145543
0.000147785
0.000172096
0.000156748
0.000193005
0.000465349
0.000167346
0.000146819
0.000182875
0.000200816
0.000206544
0.000146892
0.000156129
0.000147075
0.000154906
0.000152412
0.0222039
0.000149474
0.000375484
0.000154715
0.000182725
0.000173857
0.0379987
0.000169104
0.000148932
0.0289955
0.0168677
0.000148159
0.000151083
0.000212116
0.000188091
0.000178902
0.000149543
0.000148655
0.000189812
0.000151706
0.000171492
0.000168951
0.000145565
0.000165823
0.0138083
0.000146822
0.000149483
0.000147639
0.0164858
0.000149747
0.000153048
0.0340848
0.000151377
0.000453352
0.000154262
0.000160639
0.000147583
0.000165122
0.000148002
0.000168799
0.00014696
0.000170825
0.000149286
0.014468
0.000299524
0.039483
0.00014911
0.000149322
0.000171855
0.000165587
0.0202018
0.0285672
0.000165787
0.000148414
0.000194025
0.000201264
0.000196213
0.000191364
0.000164746
0.0232816
0.000161941
0.000160592
0.000181981
0.000176013
0.000165539
0.000223306
0.000165383
0.000150286
0.000172546
0.000155318
0.000145918
0.000154774
0.000164598
0.000155264
0.00014808
0.000147231
0.000167383
0.000150066
0.000171891
0.000148386
0.000148415
0.000149804
0.000150565
0.000144774
0.000153504
0.000147787
0.0320232
0.000168494
0.000190906
0.000146273
0.000149609
0.000163363
0.000169429
0.000151237
6.1397e-05
0.000171584
0.000139509
0.000154806
0.000179696
0.000148547
0.000149768
0.000147324
0.000150388
0.0251491
0.000149667
0.000217184
0.000153782
0.0126554
0.000164309
0.000171962
0.000182349
0.000145509
0.000149934
0.00016886
0.000148842
0.000149746
0.000148255
0.00014994
0.000149216
0.000154727
0.000147353
0.000145541
0.000155232
0.000157274
0.0153897
0.000159469
0.000146818
0.000146848
0.0372027
0.00017195
0.000148851
0.000148619
0.000111049
0.000210792
0.0275855
0.000160159
0.000150319
0.000146224
0.000145446
0.000163604
0.000159937
0.000190788
0.000154512
0.0253687
0.000148698
0.000152071
0.0244783
0.000148341
0.000154266
0.000147961
0.000148396
0.000164123
0.000162664
0.000148788
0.000778791
0.0151791
0.000174109
0.000147662
0.000145069
0.000178188
0.000215414
0.000149716
0.000202427
0.000145065
0.000163176
0.000145994
0.000146133
0.000196977
0.000147301
3.6146e-05
0.000161504
0.000149804
0.000145158
0.000149235
0.000147107
0.000149348
0.000402351
0.000146609
0.000146032
0.0256923
0.00220312
0.000160015
0.000165096
0.000170709
0.000152187
0.000146137
0.00015676
0.0307364
0.000171335
0.000148799
0.000148459
0.0250618
0.00015906
0.0617182
0.000149752
0.000151427
0.0146999
0.000157707
0.000148925
0.0225428
0.000295589
0.000147075
0.00018075
0.000147303
0.000147176
0.000146186
0.0419104
0.000144735
0.000146991
0.000146102
0.000831445
0.000151648
0.000186421
0.000167056
0.000146101
0.000159388
0.000149069
0.0578257
0.000147506
0.000146707
0.00014921
0.000178739
0.000149166
0.000183474
0.0119778
0.00502715
0.000155742
0.000195946
0.0392561
0.000148243
0.0130836
0.0144856
0.0437673
0.0221883
0.0283466
0.00389171
0.000182076
0.000149116
0.0250764
0.000157651
0.027178
0.000145498
0.000146813
0.000148886
0.000149018
0.00015291
0.000158349
0.0205026
0.000146736
0.000148642
0.0137587
0.000181539
0.000149256
0.000161495
0.000155877
0.000148062
0.000293151
0.000161952
0.000152432
0.000151599
0.0121846
0.0294878
0.000252214
0.000145884
0.000189124
0.000177846
0.042565
0.0147059
0.000173775
0.000147143
0.000148689
0.000148702
0.000144665
0.000150704
0.000145229
0.000154647
0.000161536
0.0519641
0.000180545
0.000147023
0.000179167
0.0547303
0.000162764
0.000149885
0.0206908
0.000146736
0.000149586
0.000161159
0.052798
0.000149211
0.000147488
0.024453
0.000190587
0.000202684
0.000177693
0.00020148
0.000147225
0.000184839
0.00014995
0.000147772
0.000150025
0.0197047
0.0328182
0.000145992
0.000145138
0.000148054
0.000213786
0.00015043
0.000155749
0.000148811
0.000149296
0.000184713
0.000146196
0.000169101
0.000186315
0.0276433
0.000147453
0.000170224
0.000152041
0.0363235
0.0531034
0.000148241
0.0486812
0.000171639
0.000262826
0.000149181
0.0238832
0.000149643
0.000153632
0.000163676
0.000177597
0.015492
0.00020091
0.000183748
0.0014657
0.000146781
0.000192858
0.000146084
0.000155253
0.0254671
0.000148723
0.000149695
0.000149762
0.000148014
0.049975
0.000145481
0.000148395
0.000166259
0.000164751
0.000164544
0.000199205
0.000179652
0.0244872
0.000168957
0.000158681
0.00016028
0.0267951
0.000160273
0.000483154
0.0246158
0.000152316
0.000146227
0.0212215
0.000196843
0.000150072
0.000178218
0.000158158
0.000148233
0.000153197
0.00014811
0.000163704
0.000149942
0.000164347
0.000170957
0.00014687
0.000169275
0.000146259
0.000166134
0.000146921
0.000155591
0.000167669
0.000150275
0.000147679
0.000146047
0.00027265
0.000172533
0.000279004
0.000148265
0.000148215
0.000167864
0.000147963
0.000175561
0.000172541
0.000148234
0.000176272
0.000146177
0.000231537
0.000149932
0.000159183
0.0188836
0.00019211
0.00014729
0.000151479
0.0106
0.000147778
0.000147162
0.0476616
0.0459835
0.000153493
0.00018302
0.00014855
0.000147673
0.0183154
0.000150144
0.000145564
0.000193398
0.000146296
0.000207019
0.000149244
0.000145588
0.000148951
0.000180076
0.0210197
0.000149101
0.000149302
0.000147233
0.00015416
0.000148364
0.000218499
0.000168419
0.000149772
0.000139503
0.000164379
0.000193904
0.030325
0.000424828
0.000145923
0.000149679
0.000148244
0.000195502
0.00015474
0.0210246
0.0375021
0.000152676
0.0270407
0.000317698
0.000164449
0.000181783
0.000168146
0.000189334
0.0133414
0.000166511
0.00020824
0.03344
0.000168475
0.000153544
0.0272558
0.000164632
0.000145561
0.000150093
0.00358526
0.000161732
0.000146977
0.00016538
0.000176726
0.000161597
0.0256321
0.000151542
0.000216079
0.00016023
0.000195911
0.000179803
0.000189826
0.000155401
0.000146108
0.000149617
0.0103591
0.000147766
0.000152855
0.000146294
0.000150683
0.000146742
0.000160109
0.000182047
0.000285714
0.000162957
0.000166493
0.0128809
0.000184601
0.000146674
0.000210734
0.0178423
0.000145795
0.000147094
0.000156485
0.029146
0.00014969
0.000171326
0.00019631
0.00016536
0.000148914
0.000149725
0.000146383
0.000178117
0.000162179
0.000147721
0.00590209
0.0236803
0.000162922
0.000204235
0.000168758
0.000307674
0.000151167
0.000152469
0.00545224
0.000207517
0.000174096
0.000251894
0.000155431
0.000149824
0.000147067
0.000148396
0.000148576
0.000150786
0.000165624
0.000147374
0.000179005
0.000147351
0.000155118
0.000145973
0.000172076
0.000178701
0.000206489
0.000148159
0.000189799
0.00014706
0.00172922
0.000148288
0.000155214
0.000148754
0.000189399
0.034939
0.000180963
0.000147327
0.000180529
0.000148021
0.000156376
0.0422666
0.000147054
0.000150085
0.000163971
0.000157123
0.0260158
0.000147404
0.000157392
0.000149725
0.000148126
0.000158956
0.00014945
0.00014597
0.000152314
0.0233899
0.000151926
0.000192495
0.00213817
0.000165616
0.0221633
0.000151688
0.000146012
0.000158176
0.0251986
0.000150019
0.000161036
0.000161056
0.000366897
0.000146988
0.00390684
0.000169753
0.000171478
0.000145741
0.00014524
0.000183241
0.000150202
0.000149898
0.000159631
0.000145529
0.00015335
0.000155398
0.000170417
0.000187651
0.0227595
0.000152077
0.000171409
6.19139e-05
0.00960831
0.000159341
0.000179595
0.028138
0.000160379
0.000481019
0.000153008
0.000668328
0.00529181
0.000145492
0.000149722
0.000147439
0.000148818
0.000163933
0.000145994
0.000153255
0.00017382
0.000150209
0.000160043
0.0345799
0.000157918
0.000151123
0.0171592
0.000148933
0.0139204
0.000151243
0.000165088
0.000146902
0.0261634
0.0342014
0.000148026
0.000149045
0.0221158
0.000157567
0.0182149
0.000147956
0.000146287
0.0289246
0.00014904
0.000162769
0.0164981
0.000148634
0.000166886
0.000155946
0.000145217
0.000147063
0.0242644
0.0371386
0.000148314
0.00015034
0.000148579
0.000154158
0.000161097
0.0214514
0.000150502
0.000319039
0.000201273
0.000196086
0.000211459
0.000148975
0.000178563
0.000176298
0.000157263
0.000148419
0.000167465
0.0338667
0.000151909
0.00016271
0.00886743
0.000459732
0.000183134
0.000154757
0.000149216
0.000149639
0.000148785
0.0300444
0.000166339
0.000150694
0.000149262
0.000151623
0.000149777
0.000147879
0.000148762
0.000171168
0.000159606
7.7842e-05
0.000163458
0.0174863
0.019576
0.000157801
0.00016486
0.000146395
0.000156066
0.0222698
0.000148329
0.000151266
0.000164928
0.000179035
0.000165359
0.018657
0.00019119
0.000146773
0.0281766
0.000145041
0.000148183
0.00016355
0.000149808
0.000146986
0.000184702
3.09644e-05
0.000146321
0.011495
0.000148162
0.00014587
0.000151092
0.000350326
0.000156012
0.000151228
0.00134625
0.00014994
0.000190557
0.0242795
0.000149606
0.000163647
0.00014787
0.0114751
0.000171521
0.000148877
0.0208021
0.000166151
0.000168017
0.00014984
0.0330294
0.000157195
0.000197242
0.000149379
0.000166971
0.0291765
0.000145984
0.000240794
0.000149007
0.000169737
0.000164284
0.0001496
0.0376712
0.000151652
0.000178655
0.000168012
0.000170058
0.000162218
0.000162861
0.000150379
0.00903992
0.000158705
0.012084
0.000157666
0.00016862
0.000147365
0.000163535
0.000148783
0.000169871
0.0104363
0.00015003
0.000146448
0.000411863
0.00014938
9.96634e-05
0.000148818
0.0124966
0.000197482
0.000159547
0.000147733
0.000147324
0.000148786
0.000145235
0.00017721
0.000165368
0.000161745
0.000153416
0.000148401
0.000209201
0.000150451
0.000158985
0.000163353
0.000148676
0.0322703
0.00016492
0.00015545
0.000254103
0.0313811
0.000198923
0.00747957
0.000212463
0.000146934
0.000186359
0.0394843
0.000186691
0.000149065
0.000149826
0.000178057
0.0222869
0.0139976
0.000203097
0.000148157
0.000164324
0.000160682
0.023749
0.00333865
0.000161067
0.000179863
0.000151733
0.000172327
0.00017403
0.000149005
0.000177245
9.0556e-05
0.000148874
0.000218775
0.000149654
0.000147194
0.0237662
0.0369786
0.000146677
0.000148355
0.000148935
0.000146323
0.000165002
0.000185152
0.000149687
0.000147684
0.000148515
0.000160374
0.000154948
0.000154815
0.000198197
0.000148511
0.0412602
0.0207315
0.0369493
0.000174007
0.000166266
0.000200347
0.000157669
0.0249476
0.000211568
0.000223159
0.000149282
0.0285871
0.0209592
0.000146112
0.000148089
0.00017655
0.0630126
6.79652e-05
0.000146129
0.000148088
0.0268119
0.000311934
0.000226976
0.000151487
0.000153063
0.000309669
0.000149101
0.0302566
0.0432206
0.000204072
0.000232264
0.000148936
0.000147247
0.000146962
0.000155352
0.0229262
0.000160422
0.000152367
0.000151047
0.000170695
0.029742
0.000160447
0.000118861
0.0177956
0.0158298
0.000310424
0.000148409
0.000149059
0.0103521
0.000145416
0.000145548
0.000150867
0.000438265
0.000159569
0.0469457
0.000180637
0.000148083
0.0339458
0.000161153
0.000146779
0.0197034
0.000175419
0.000154809
0.000147686
0.00777376
0.0605368
0.000149189
5.02654e-05
0.000186405
0.0612278
0.000233535
0.000172391
0.000147348
0.000148985
0.000225051
0.000152828
0.00547956
0.000162344
0.000229119
0.000193157
0.000151278
0.000157026
0.000147298
0.000150679
0.0656542
0.0118285
0.000148737
0.0262415
0.000161431
0.000148162
0.000153606
0.000147288
0.000183894
0.000148905
0.000316663
0.000164203
0.000147245
0.000146865
0.000169464
0.0174911
0.000160271
0.000151844
0.00016273
0.000148747
0.000149994
0.000153959
0.0250225
0.0184862
0.062508
0.000145775
0.000146817
0.000149209
0.000178698
0.000146828
0.000149311
0.000184775
0.000167416
0.000197622
0.000145414
0.0576733
0.0184829
0.000149885
0.0232377
0.000178452
0.000159143
0.000313042
0.000149015
0.046378
0.000157389
0.000151206
0.000152873
0.000145396
0.000190271
0.000149957
0.000149167
0.000158566
0.0186689
0.022108
0.000149602
0.000147957
0.000150739
0.000147464
0.000180889
0.000150329
0.000174245
0.000150407
0.0323826
0.000148984
0.0299677
0.000145779
0.0355779
0.000148688
0.000145303
0.0590836
0.000182964
0.000171112
0.000202627
0.000162877
0.000160759
0.000148749
0.0387586
0.000148775
0.000146874
0.000169533
0.000168457
0.0480557
0.0496998
0.000179546
0.000223686
0.000180269
0.000205458
0.000147696
0.000152077
0.000154327
0.0448567
0.000154418
0.0511204
0.0189539
0.000147935
0.000149198
0.000148129
0.000217656
0.000416168
0.000150162
0.000148594
0.000154032
0.000155154
0.000159865
0.000195588
0.000183888
0.000148263
0.000210731
0.000174253
0.0209793
0.00017174
0.000150782
0.000151142
0.0370519
0.000146942
0.000175115
0.0154705
0.000150362
0.000153091
0.000185322
0.000174522
0.000150763
0.0151059
0.000151647
0.00019291
0.00016052
0.000157785
0.000149164
0.0600918
0.00014674
0.000169937
0.000256432
0.0667799
0.000164964
0.000170572
0.000152522
0.000163477
0.000149763
0.0670024
0.00015342
0.000147241
0.000155889
0.000148465
0.000149774
0.000425725
0.000148453
0.000149116
0.000148324
0.000180137
0.000149993
0.000158552
0.000171204
0.000186902
0.000178846
0.000149692
0.000179422
0.000188161
0.000187446
0.00017415
0.000156841
0.000183385
0.00449538
0.000202424
0.000149887
0.000175172
0.0159556
0.000149882
0.000151388
0.000145339
0.000207787
0.000176872
0.000147497
0.000256547
0.0480293
0.000146411
0.000149843
0.0209405
0.020456
0.000168864
0.000145414
0.000195181
0.0218961
0.000472192
0.000148027
0.044871
0.000172709
0.000166916
0.0579109
0.000153245
0.000145409
0.000156118
0.000185068
0.000156959
0.0209658
0.0572887
0.000146408
0.000292922
0.000190231
0.0454968
0.000145762
0.000164863
0.000150235
0.000147321
0.0369471
0.000215322
0.000191359
0.000221799
0.000157014
0.000165228
0.000148308
0.0640522
0.013411
0.000148817
0.000148452
0.000158907
0.000146354
0.000164879
0.0289251
2.61268e-05
0.000165487
0.000148838
0.000147819
0.0388544
0.000153795
0.000165655
0.000146264
0.000150684
0.000206774
0.000217702
0.000195081
0.000336302
0.000149049
0.000192753
0.000149005
0.000163559
0.000487821
0.0257445
0.000148462
0.000149954
0.000158486
0.0001549
0.000149696
0.0353814
0.0471761
0.000146137
0.000144866
0.000149257
0.000147545
0.000305246
0.000145877
0.0196767
0.000177257
0.000168442
0.000146662
0.000165364
0.0582497
0.000157798
0.000187749
0.057197
0.000149298
0.024431
0.000159475
0.000160607
0.000184186
0.0298462
0.0446019
0.000167444
0.000147018
0.000181866
0.000145934
0.000154716
0.000149616
0.01806
0.00015868
0.000220707
0.000193271
0.000164366
0.000148854
0.0001903
0.00015369
0.000149783
0.000182648
0.000145079
0.000159703
0.000158346
0.000149443
1.13256e-05
0.000151223
0.000199755
0.000150768
0.000147303
0.0621351
0.0295394
0.00015313
0.000159366
0.000160084
0.000168487
0.000166976
0.000153052
0.000154213
0.000152335
0.000189591
0.000154124
0.0153896
0.00016593
0.00019324
0.000178013
0.000149007
0.0335616
0.000145138
0.0183115
0.00015345
0.0588684
0.00023305
0.000203198
0.000219802
0.000193844
0.000167928
0.000147375
0.0316006
0.000168666
0.000148817
0.0273443
0.00159327
0.00015181
0.000150659
0.000156913
0.000156923
0.000157063
0.0300737
0.000149883
0.000155595
0.000158272
0.000158895
0.000149003
0.00017318
0.000145163
0.0146235
0.000152196
0.000180623
0.000157341
0.000160626
0.000177224
0.000216276
0.000174526
0.00014652
0.000180687
0.0279144
0.00910815
0.000148457
0.00884179
0.000155282
0.000292864
0.000148751
0.000152918
0.0333079
0.000164737
0.0342283
0.0298023
0.000159512
0.0440897
0.000147653
0.000145113
0.0256708
0.000165803
0.000152782
0.0213267
0.000154305
0.00016319
0.000157302
0.000171557
0.00014819
3.43702e-05
0.00242419
0.0115352
0.000192296
0.000152824
0.000168437
0.0369536
0.000152392
0.000149554
0.000172612
0.000145667
0.000181256
0.0534927
0.0129056
0.0174955
0.00016619
0.000148606
0.0433919
0.000145069
0.000171636
0.000149521
0.0152034
0.000151552
0.000163923
0.0244406
0.000179187
0.00014799
0.000158867
0.025539
0.000149272
0.000182069
0.000146203
9.62652e-05
0.0531104
0.000178276
0.000167857
0.000147423
0.000189678
0.000180681
0.000160569
0.000146235
0.000148668
0.000148884
0.000165775
0.000148823
0.000173509
0.000149616
0.000146253
0.0325192
0.000146712
0.000154205
0.000152042
0.000149812
0.0277878
0.000146698
0.000159473
0.0379186
0.000163586
0.0145148
0.000149012
0.062352
0.000164397
0.0280709
0.000151301
0.000179545
0.000147904
0.000161037
0.000178849
0.000177647
0.000189705
0.0446849
0.000187961
0.000220228
0.000156137
0.000177542
0.00016253
0.000205091
0.000153964
0.000147733
0.000148654
0.000164902
0.000163975
0.00020734
0.000165818
0.00828631
0.000145722
0.00017108
0.000148051
0.000220384
0.000177001
0.000150377
0.000152907
0.000148863
0.00019009
0.000148706
0.0102804
0.000146625
0.000153767
0.0405544
0.000169025
0.00014836
0.00014858
0.021745
0.0001468
0.000152396
0.000152382
0.000158664
0.000154743
0.000148666
0.000182606
0.00016853
0.000162625
0.000192679
0.0553151
0.0267523
0.0293733
0.000145876
0.000148087
0.000170339
0.00014863
0.00016347
0.0101553
0.0273859
0.000145392
0.000148695
0.0241776
0.000195815
0.000145488
0.000146533
0.00015565
0.036683
0.0225208
0.000153932
0.000159083
0.000149261
0.000194863
0.000179347
0.00017381
0.000158909
0.000163076
0.000150463
0.000160397
0.000194255
0.000151083
0.00014797
0.000153803
0.0188694
0.000153954
0.0286934
0.000148571
0.0326059
0.000161035
0.000157146
0.000146172
0.00014722
0.000208673
0.000152022
0.000165442
0.0148441
0.0485946
0.000150207
0.0381927
0.000181258
0.000146893
0.000182798
0.000192718
0.000178381
0.000149681
0.0241457
0.0468459
0.000147136
0.00016204
0.0182261
0.000164586
0.000148388
0.000146202
0.000148704
0.000150886
0.000173888
0.000193706
0.000168496
0.000173065
0.000145857
0.000149049
0.00324666
0.000146565
0.000165864
0.000155925
0.000147801
0.000165375
0.000148065
0.000152008
0.000193409
0.000147776
0.0466408
0.000148119
0.000689492
0.0288684
0.000176058
0.000148997
0.000149946
0.0471364
0.00014533
0.00015173
0.000150154
0.000188836
0.000208768
0.000158184
0.0294836
0.000162325
0.000202532
0.00015088
0.000170689
0.00014625
0.000148844
0.0255012
0.0297131
0.000215645
0.000151296
0.000171024
0.000170842
0.0470965
0.0403757
0.000192339
0.000161279
0.000145041
0.0438836
0.000146956
0.00014733
0.000191903
0.000177862
0.000156692
0.00017686
0.000163691
0.000158358
0.000154785
0.0397073
0.000151604
0.000147727
0.0264361
0.000163707
0.000145734
0.0212647
0.000148037
0.000148622
0.000184114
0.000179345
0.0424177
0.000145835
0.000153641
0.000147174
0.000290816
0.000146758
0.000198466
0.000222295
0.0276016
0.0195966
0.00355596
0.000158101
0.0404407
0.000229147
0.00014934
0.00015802
0.000162671
0.00015812
0.000255259
0.0334928
0.0611747
0.0265902
0.000326388
0.000149007
0.000177347
0.000148098
0.0259105
0.000155162
0.00014983
0.000151404
0.000149334
0.000146884
0.000177552
0.0615364
0.000145804
0.000150903
0.000146807
0.0327741
0.000150679
0.0420814
0.0168183
0.00021525
0.000148673
0.000146939
0.0250083
0.000188437
0.000148874
0.000183046
0.000149469
0.000179789
0.000176203
0.000176199
0.000164947
0.000148901
0.000146256
0.000146284
0.000187909
0.021393
0.00015608
0.000164997
0.000147436
0.00968608
0.000148122
0.000147436
0.00015025
0.00014816
0.0127497
0.0306128
0.000204603
0.000167521
0.0481861
0.000200129
0.000145426
0.000156453
0.000145641
0.000254651
0.000147359
0.0001534
0.000148146
0.000147178
0.000146138
0.000282244
0.000149292
0.00026039
0.000145222
0.000159516
0.000153634
0.000264488
0.000148148
0.000156781
0.000158294
0.000169621
0.0453929
0.000147152
0.0202383
0.000171091
0.000163759
0.000148358
0.000147456
0.022303
0.0118678
0.000147414
0.000146825
0.000191578
0.000189939
0.000161243
0.0346621
0.000150518
0.000194703
0.000156536
0.000145693
7.27445e-05
0.000149608
0.0251935
0.000148629
0.000149425
0.000148686
0.0283627
0.0269064
0.00014551
0.00018016
0.000188599
0.000148241
0.000146697
0.00014694
0.000181049
0.0381316
0.000170154
0.000151245
0.000161253
0.000148038
0.000148653
0.000150909
0.000147819
0.000185764
0.000148868
0.000168357
0.000203676
0.000159595
0.00014519
0.00860451
0.000172048
0.000148106
0.000172928
0.000156241
0.00020254
0.000154008
0.0133019
0.000168048
0.000147896
0.000174782
0.000174657
0.00015193
0.0333726
0.000167385
0.000155562
0.000204745
0.000147466
0.000178709
0.000169095
0.000176587
0.000147337
0.000147883
0.00014531
0.000160064
0.000166069
0.000165702
0.000107317
0.0394663
0.0173989
0.000149753
0.000310706
0.0283135
0.0391417
0.000148202
0.000148094
0.000165828
0.0242815
0.000152599
0.000158476
0.00681695
0.0254322
0.000636651
0.000172516
0.00018466
0.0236638
0.000200404
0.000145164
0.000536089
0.000190444
0.000148551
0.00014839
0.000150158
0.0658553
0.000176114
0.00358367
0.00015155
0.000241512
0.000148052
0.000202024
0.0208917
0.000149212
0.000157961
0.0451603
0.00343196
0.000167759
0.00014965
0.000152016
0.000150271
0.000179195
0.000178645
0.000232596
0.0393741
0.000145938
0.0221997
0.000181911
0.000207339
0.000148013
0.000149006
0.000162072
0.000183764
0.000147733
0.000165624
0.000167654
0.000161557
0.0139507
0.0211413
0.0613306
0.0413674
0.000153965
0.00014546
0.00016688
0.0170124
6.76647e-05
0.000147112
0.000180498
0.00016953
0.00019962
0.000148618
0.000149675
0.000230306
0.000218238
0.000223953
0.000253536
0.0151082
0.000147486
0.000181661
0.0414957
0.000149632
0.000166716
0.000177682
0.000145561
0.000184314
0.0260463
0.000181652
0.000149669
0.0121352
0.000179028
0.00909966
0.000144618
0.000150517
0.000148456
0.000149821
0.000148374
0.000167584
0.000162133
0.000162392
0.000190769
0.000157792
0.0319071
0.000154145
0.000155095
0.000155471
0.025202
0.000165759
0.0409166
0.000155645
0.000156538
0.0132117
0.0001708
0.000149053
0.000162579
0.000219439
0.00650271
0.000194859
0.000147802
0.000147164
0.000147353
0.000199825
0.000150947
0.000344072
0.000252674
0.000181012
0.000157827
0.000189694
0.0345911
0.00014839
0.000140092
0.000159612
0.000164297
0.000147365
0.000146941
0.000166499
0.0538829
0.000148385
0.0374099
0.000195297
0.000170317
0.000185003
0.000146829
0.000147958
0.000155921
0.000149451
0.00954813
0.0161784
0.000168981
0.000203471
0.000147642
0.000147929
0.000148171
0.000149641
0.0332766
0.000150005
0.0487906
0.000169307
0.000148683
0.000187648
0.000233216
0.0241153
0.0262852
0.00015048
0.000146171
0.000148817
0.000150308
0.000226019
0.000180083
0.0279797
0.000148971
0.000148547
0.000174393