/*--------------------------------*- C++ -*----------------------------------*\
| =========                 |                                                 |
| \\      /  F ield         | OpenFOAM: The Open Source CFD Toolbox           |
|  \\    /   O peration     | Version:  v2012                                 |
|   \\  /    A nd           | Website:  www.openfoam.com                      |
|    \\/     M anipulation  |                                                 |
\*---------------------------------------------------------------------------*/
FoamFile
{
    version     2.0;
    format      ascii;
    class       volVectorField;
    location    "800";
    object      U_0;
}
// * * * * * * * * * * * * * * * * * * * * * * * * * * * * * * * * * * * * * //

dimensions      [0 1 -1 0 0 0 0];


internalField   nonuniform List<vector> 
13917
(
(1.02574 0.0827505 4.55853e-22)
(0.997341 0.025614 0)
(0.939321 0.0195681 3.40178e-21)
(1.03285 0.0185959 0)
(0.99535 -0.00771787 4.80627e-22)
(0.361005 -0.0412278 0)
(0.842277 0.0172739 0)
(0.961776 0.0209107 4.5674e-21)
(0.939038 0.00519359 1.58809e-21)
(1.0509 0.0997711 0)
(1.04383 0.0267146 0)
(1.04505 0.0245614 1.43958e-22)
(1.03328 0.018608 -8.02468e-22)
(0.316797 0.0120425 -2.11735e-21)
(0.946097 0.0499139 -3.01236e-20)
(0.965417 0.0502945 0)
(0.991941 0.0269194 -6.53107e-21)
(1.04795 0.0378949 -1.75947e-21)
(1.04503 0.0243046 0)
(1.00018 0.00173605 9.56418e-21)
(0.999913 -0.00026661 -1.34583e-20)
(0.8201 0.0150343 3.89786e-23)
(0.998821 0.00173388 0)
(0.998501 0.0230049 -5.02081e-21)
(0.989902 -0.000554526 -3.90845e-21)
(0.813441 0.0168721 4.80028e-21)
(0.778469 -0.0329898 -4.60876e-20)
(0.747852 0.0482355 0)
(0.72044 0.457825 2.15168e-20)
(1.07449 0.0626197 0)
(1.03409 0.0772667 0)
(1.00849 0.0612967 3.794e-21)
(0.828243 0.0065226 0)
(0.908132 -0.0471229 0)
(0.987245 -0.00550373 0)
(1.04335 0.0285242 3.62027e-21)
(0.998934 0.00155277 1.50249e-20)
(0.476939 0.0023333 2.45664e-21)
(1.0357 0.0196401 3.36139e-23)
(0.487346 0.014079 0)
(1.00451 0.000515468 -7.90937e-21)
(0.999987 -3.426e-05 -1.04258e-20)
(1.01516 0.00522813 1.06012e-20)
(0.692693 0.121762 1.14574e-20)
(1.01379 0.022815 0)
(0.887361 -0.0373156 -6.06552e-21)
(1.04722 0.0373325 0)
(1.04752 0.0299644 0)
(0.105711 0.0258086 0)
(1.00157 0.000401419 -2.32169e-21)
(1.0331 0.0314846 0)
(0.961556 -0.0219647 -5.43266e-21)
(0.072142 -0.00817926 0)
(0.903292 -0.046843 -7.14691e-20)
(0.990694 0.0272299 -1.4199e-20)
(1.029 0.0396231 -1.21249e-22)
(1.04384 0.0266001 0)
(0.984076 0.00896926 -4.80223e-21)
(1.02217 0.0398719 -1.16969e-21)
(1.01325 0.0221254 6.14146e-21)
(1.18079 0.0725247 -6.7333e-21)
(0.998294 0.0260772 -9.11455e-21)
(0.215885 0.00614088 2.20445e-22)
(1.00014 0.00186798 -6.29616e-21)
(0.385393 -0.0277391 -5.54297e-20)
(1.22166 0.322494 0)
(0.995337 -0.0125104 8.8394e-22)
(0.987834 -0.0206541 -7.32261e-21)
(1.04653 0.0238596 1.96959e-21)
(1.00494 0.0903719 0)
(0.995717 -0.00704409 7.39041e-21)
(0.980043 0.00535748 3.7911e-21)
(0.290044 -0.0112115 -2.71906e-21)
(0.990585 -0.000457101 0)
(0.104806 0.0968711 0)
(1.04711 0.0233757 1.09178e-20)
(0.278282 0.00154981 0)
(1.01947 0.0283399 0)
(0.789365 0.0171984 -2.68059e-21)
(0.999721 -0.000429093 -7.65217e-22)
(0.99969 0.000262174 5.91629e-21)
(0.995905 -0.0116833 2.09161e-20)
(0.403364 0.0352126 -1.64615e-20)
(0.510774 0.00174756 -2.08831e-21)
(0.155295 0.00760994 -5.85981e-20)
(1.01948 0.0276146 7.08274e-21)
(0.999699 0.0008319 7.91191e-22)
(1.20437 0.335671 1.50842e-20)
(1.03264 0.0311745 1.35847e-23)
(1.01555 0.00552827 -1.75023e-20)
(0.381229 -0.00814633 1.7501e-21)
(1.06994 0.0854313 0)
(1.00602 0.0169337 0)
(0.95707 0.0185038 1.5002e-20)
(1.20192 0.348329 0)
(0.387661 -0.100211 -5.85485e-20)
(1.04484 0.0259718 -3.78973e-21)
(1.04792 0.0318775 -3.91723e-21)
(1.0476 0.0267003 2.85855e-21)
(0.60512 0.0470498 0)
(1.00559 0.00415648 0)
(0.842403 -0.0587763 4.62538e-20)
(0.683804 0.107881 0)
(1.02441 0.0277251 -2.02319e-21)
(1.00677 0.00924506 -1.13652e-20)
(1.00968 0.0040089 1.72936e-21)
(0.792526 0.39811 0)
(1.04799 0.0296616 1.41693e-20)
(0.992933 0.0278115 -6.00023e-21)
(1.03404 0.0857946 0)
(0.135688 -0.0333638 0)
(0.500704 0.0148296 -1.38392e-23)
(1.04591 0.0252971 -6.99459e-21)
(0.981173 0.0028971 0)
(0.944539 -0.0293594 1.96891e-20)
(0.0941738 -0.231682 0)
(0.995895 0.00324758 0)
(0.20004 -0.0123451 1.18823e-19)
(0.455327 0.0139513 7.71744e-21)
(0.902458 -0.0339764 1.23784e-20)
(0.999962 -8.33443e-05 -1.09581e-20)
(1.04686 0.0239204 4.60452e-21)
(0.440974 0.0111997 0)
(0.756984 0.0424449 -5.54834e-20)
(1.00247 0.000387728 5.12591e-21)
(0.958931 0.0168291 2.35889e-20)
(1.01022 0.0229089 0)
(1.00227 0.000306114 5.98228e-23)
(1.01303 0.00275982 4.51452e-21)
(0.360969 -0.086684 -4.09712e-20)
(0.541208 0.0091058 1.69745e-21)
(0.947246 -0.0295771 0)
(1.01353 0.0233659 -5.80016e-21)
(0.999934 -0.000254951 1.26937e-20)
(1.08051 0.0112189 1.07335e-20)
(1.00691 0.0237005 5.06943e-21)
(1.02406 0.0853845 0)
(0.581793 0.0470656 0)
(0.994894 -0.0125292 1.29697e-22)
(0.904235 -0.0380449 0)
(1.04359 0.0278939 0)
(1.01129 0.0127186 0)
(0.955324 -0.0118835 -4.74132e-20)
(0.646892 0.116173 3.3975e-21)
(0.986969 -0.0206728 4.53347e-21)
(1.06752 0.01426 6.26908e-22)
(0.786266 0.459673 -1.03252e-20)
(0.963321 -0.0207338 0)
(1.01149 0.011204 0)
(1.00415 0.0660909 -1.00422e-21)
(1.04392 0.0281374 3.00553e-22)
(0.10083 -0.264123 0)
(1.04446 0.0263869 0)
(0.976238 0.119057 -1.64894e-20)
(1.0213 0.0494683 3.12528e-21)
(0.156901 0.0694568 0)
(1.00216 0.0882282 -1.27097e-21)
(1.03896 0.023164 3.65925e-21)
(0.252327 0.00447771 0)
(1.08203 0.0115403 1.49509e-20)
(0.928629 0.00128619 -1.29503e-20)
(0.783454 -0.0928254 -8.1815e-20)
(0.999823 6.08581e-05 0)
(1.04481 0.0260955 0)
(1.04569 0.0252605 6.06363e-21)
(1.0473 0.0265876 2.9314e-21)
(1.02378 0.0278458 0)
(1.0453 0.0295862 1.07657e-20)
(1.01184 0.019009 -4.52491e-21)
(0.83594 -0.0640009 -5.67412e-20)
(0.99062 0.114488 1.54942e-21)
(-0.101926 -0.0153543 -3.79862e-20)
(1.04649 0.0252878 4.09031e-21)
(0.987081 0.0319696 -8.43879e-21)
(1.05676 0.0176684 0)
(0.966775 0.134239 0)
(0.56602 0.00770189 2.78536e-21)
(0.164216 -0.0125815 0)
(1.06505 0.0154768 -2.45818e-21)
(0.998193 0.0147858 0)
(1.07229 0.0820435 0)
(1.03697 0.0764881 4.06026e-22)
(1.01177 0.0126904 0)
(0.999621 0.000862528 0)
(0.912854 0.0597633 -2.36091e-20)
(0.865274 0.0197154 5.25086e-21)
(1.11708 0.0761688 -9.8383e-22)
(0.327989 0.0893726 0)
(1.03971 0.0443001 0)
(1.04584 0.0267863 -5.91247e-21)
(1.04313 0.0259522 0)
(0.285438 0.0182067 4.55696e-20)
(1.12155 0.102808 -3.30251e-20)
(0.997822 0.000318162 0)
(0.562084 -0.0197516 0)
(0.788722 -0.030182 -4.08458e-20)
(1.00428 0.000226837 0)
(1.00577 0.0175059 0)
(0.846154 0.336857 2.03207e-20)
(1.13665 0.338312 5.71655e-20)
(1.03458 0.0252536 3.64458e-22)
(1.00143 0.000351935 3.01865e-21)
(1.0443 0.0292791 0)
(1.04371 0.0280011 0)
(0.253627 -0.00777532 5.75228e-21)
(1.06036 0.0131244 0)
(0.987894 -0.00598581 9.26051e-21)
(0.982975 0.00936453 0)
(1.04736 0.0315102 1.12017e-20)
(0.913836 0.0201943 1.94678e-21)
(0.957371 -0.0106057 4.76985e-20)
(0.835644 0.0147944 -2.9112e-21)
(0.194849 -0.00235216 3.07696e-21)
(1.04565 0.0267327 2.37914e-21)
(1.00643 0.00924991 7.45516e-21)
(0.485883 0.309489 -2.04344e-19)
(1.04576 0.0317655 0)
(0.019689 -0.0174945 -1.89878e-20)
(0.995373 0.00634779 0)
(1.23765 0.0872575 2.27203e-20)
(0.998437 0.0141717 0)
(1.06803 0.0528507 0)
(1.00436 0.000641694 5.02629e-21)
(0.473904 -0.00102159 -3.75344e-21)
(1.00032 0.00116653 -1.67936e-21)
(0.965318 0.0530317 -1.68393e-20)
(1.11206 0.343612 2.39708e-20)
(1.02283 0.0493523 -1.45883e-21)
(1.00616 0.00874595 0)
(1.04424 0.0286434 -4.17444e-21)
(1.04659 0.0250058 -3.87413e-21)
(1.03941 0.0432903 0)
(1.00255 0.0235874 -2.09698e-21)
(0.168268 0.000127382 1.98536e-21)
(1.00699 0.00245461 -6.88901e-21)
(1.01018 0.0622745 -3.50453e-21)
(0.422655 -0.00966315 3.03843e-21)
(0.0155971 0.0185168 -5.82561e-20)
(0.999759 -9.19096e-07 0)
(1.00155 0.0045816 -7.03095e-21)
(0.526855 0.0181537 -1.34658e-20)
(1.04497 0.0255077 4.4357e-21)
(1.00002 5.50848e-05 0)
(1.04438 0.028725 1.59244e-21)
(1.05686 0.0333079 0)
(0.793555 -0.0972879 5.7033e-20)
(1.02522 0.0741204 3.62015e-23)
(0.999801 0.000130605 0)
(0.938352 0.136306 0)
(0.211426 -0.000381266 2.68773e-21)
(1.02375 0.0161575 1.309e-21)
(1.08312 0.0896527 0)
(0.565375 0.0882752 -6.47706e-20)
(1.01055 0.0222196 -6.40888e-21)
(0.984174 0.00757852 -1.5885e-20)
(1.04427 0.0262036 5.60518e-21)
(0.550662 0.0150335 0)
(1.04446 0.0263641 3.5357e-21)
(0.912673 0.0636709 0)
(0.948204 0.0524842 1.55129e-21)
(1.00001 9.50299e-05 9.47324e-21)
(0.415872 0.0130496 0)
(1.10925 -0.00128475 7.46397e-21)
(1.04685 0.0298394 -1.91642e-21)
(1.00577 0.00876343 4.25275e-21)
(0.208382 -0.0143961 -8.42179e-21)
(0.339917 0.00895326 1.76862e-21)
(1.03466 0.0228736 0)
(0.769686 0.0157978 0)
(1.04738 0.0235958 0)
(0.999706 0.000177609 0)
(1.0031 0.000496106 3.02777e-21)
(1.04695 0.0359442 6.7548e-21)
(0.396414 0.000356961 -2.66773e-21)
(1.0505 0.0261528 -3.15151e-21)
(1.02198 0.0386929 -2.19499e-21)
(1.06124 0.0118817 0)
(1.04317 0.0211609 6.40468e-22)
(1.01325 0.00192906 1.09796e-22)
(1.11941 0.0161422 3.02926e-20)
(1.0004 0.00185988 0)
(1.05885 0.0179501 0)
(1.0341 0.0249764 6.60456e-23)
(1.00003 5.59121e-05 0)
(0.964908 0.0658405 2.25031e-20)
(0.971657 0.120221 8.91508e-21)
(0.78289 -0.0800842 7.08278e-20)
(1.04454 0.0287925 0)
(0.95793 0.0915218 -2.58164e-20)
(1.02164 0.0188997 -6.025e-21)
(1.08233 0.0198581 -6.76137e-21)
(1.00878 0.0239642 -1.6848e-21)
(1.10929 -0.00562298 1.89779e-20)
(0.995464 0.00598822 0)
(1.03337 0.0211324 0)
(0.998179 -0.00672809 3.12245e-21)
(1.02204 0.0186468 -3.84593e-21)
(0.996358 0.00313926 0)
(0.798435 0.495724 3.47082e-20)
(1.00068 0.000380928 3.12934e-23)
(1.07015 0.0522583 -2.74956e-20)
(1.02273 0.0738269 -1.1239e-21)
(1.01207 0.0184456 8.46597e-21)
(1.04436 0.0289581 0)
(1.00275 0.0388712 1.13565e-20)
(0.116251 -0.0563843 -3.04532e-19)
(0.966703 0.130304 9.62426e-21)
(1.06653 0.0844857 -1.64656e-20)
(1.01385 0.0152771 0)
(0.985219 0.00728805 1.55786e-20)
(0.0913199 -0.0310368 -2.35212e-20)
(0.419731 0.0109951 4.90693e-21)
(0.995791 0.00365416 1.13143e-20)
(1.00362 0.000545123 -7.129e-21)
(1.11425 0.0178388 -2.68756e-20)
(1.00095 0.0153152 0)
(0.32216 -0.0126259 4.92041e-21)
(1.01341 0.0149074 4.30053e-21)
(0.495912 0.000574517 2.65128e-21)
(1.0292 0.0170199 0)
(1.11375 0.216499 -2.17178e-20)
(1.03897 0.0311524 0)
(0.105894 0.169054 2.88889e-19)
(0.932321 0.00198296 6.67998e-22)
(1.08625 0.0139061 3.74074e-21)
(0.503714 0.207525 0)
(0.967578 0.0647772 -1.02546e-20)
(1.04521 0.0254601 -6.90168e-21)
(0.918615 0.401144 -8.46573e-21)
(0.978769 0.0185948 0)
(0.506805 0.00602537 -2.55951e-21)
(0.57073 -0.0396715 0)
(0.354421 0.00888841 -2.3392e-22)
(0.916028 -0.0260274 3.50659e-20)
(0.459587 0.0132226 -3.15192e-22)
(1.01391 0.0619448 0)
(0.289604 -0.0235467 -3.21922e-20)
(0.523035 0.187886 0)
(0.886584 0.257036 3.70917e-20)
(0.900478 0.252337 1.24677e-20)
(0.8885 0.0154092 -4.17502e-21)
(0.999437 -0.000970668 1.44565e-20)
(0.994694 0.116933 1.23844e-20)
(0.196594 -0.0354669 0)
(0.972483 0.00333836 9.36442e-21)
(0.974724 0.0397554 3.88271e-20)
(0.359518 0.00957468 -2.10441e-21)
(0.835535 0.367858 0)
(0.991365 0.0313537 3.11918e-21)
(1.04237 0.025913 3.40019e-21)
(0.690454 0.434143 -6.35567e-20)
(1.00447 0.00332511 9.96199e-21)
(0.433332 0.0155709 -7.64936e-21)
(1.04351 0.0275169 7.88775e-21)
(1.00039 0.00199183 1.99137e-22)
(1.00219 0.00727084 0)
(0.998481 -0.0064778 3.39527e-22)
(1.01191 0.011214 -6.9829e-21)
(1.07985 0.0201776 -1.93573e-20)
(1.06242 0.0158525 8.14922e-21)
(0.394364 -0.370923 0)
(0.152359 -0.0335111 6.19388e-20)
(0.992982 0.00132553 -6.01487e-21)
(1.08715 0.0884227 -9.50465e-21)
(-0.166628 0.00959595 5.19446e-21)
(1.04222 0.0301352 9.79633e-21)
(0.812972 0.0134466 4.43664e-21)
(0.433379 -0.00151512 2.52353e-21)
(0.972566 -9.25644e-05 3.67301e-21)
(1.00726 0.00451546 0)
(1.04679 0.0297367 -3.53813e-21)
(1.00307 0.00748839 1.28108e-20)
(1.22213 0.0831595 0)
(1.01258 0.0221597 0)
(0.0756942 0.210769 -2.45819e-19)
(1.05803 0.0336271 -7.54511e-21)
(1.03383 0.0214722 -7.40709e-22)
(0.999122 -0.00129788 4.0731e-21)
(1.04683 0.0318344 0)
(1.07559 0.0821324 2.41461e-20)
(1.05187 0.0337184 0)
(0.29954 0.974871 0)
(0.182806 -0.0268522 3.60469e-20)
(-0.0128216 -0.0116932 2.47325e-20)
(0.941763 0.142827 2.19233e-20)
(1.04708 0.0982125 5.49297e-21)
(1.0015 0.00430788 -5.09946e-22)
(0.0733048 0.02392 0)
(0.794079 0.0144283 0)
(0.985786 0.0132468 0)
(1.08342 0.0158024 -2.63564e-20)
(0.992218 -0.00286447 -2.5723e-21)
(1.06224 0.0177828 7.39535e-21)
(1.02887 0.0170862 0)
(0.999588 -0.000870784 0)
(0.999201 0.0395359 -2.52716e-22)
(0.774515 0.0161214 2.38313e-21)
(0.997994 0.0393499 7.53394e-21)
(0.572696 0.0145487 -5.24732e-21)
(0.126025 0.056404 0)
(1.04435 0.0269695 0)
(0.437244 0.186967 -2.27419e-19)
(0.980347 0.0189754 0)
(0.489739 0.268998 2.06418e-19)
(0.464362 0.211019 -3.29826e-20)
(0.998728 0.00307124 -7.28019e-21)
(0.8036 0.369909 0)
(0.97393 0.00361084 0)
(0.990314 -0.00271215 6.36994e-21)
(1.07451 0.0651083 1.57278e-20)
(1.00003 0.000140596 1.37011e-23)
(0.988845 -0.00192314 5.91037e-21)
(1.00332 0.0074618 -1.89164e-20)
(1.07974 0.0226081 1.19068e-20)
(0.999818 -0.000355204 1.34205e-20)
(0.474989 0.0134174 3.40831e-21)
(0.878528 0.0220064 0)
(-0.115357 0.0185089 7.03782e-20)
(1.11995 0.107747 1.1312e-20)
(0.587438 0.0123491 -2.18936e-21)
(0.0662303 -0.0144328 1.00213e-21)
(1.04188 0.0299159 -6.00296e-21)
(0.993557 0.00131289 0)
(1.06671 0.0284076 0)
(1.03529 0.0197647 -1.10371e-22)
(1.01219 0.0659987 0)
(0.997566 0.000432427 0)
(1.06715 0.0151267 -2.47022e-21)
(0.860264 0.0163181 -2.18595e-21)
(0.924828 0.0244849 0)
(0.95693 0.047135 4.29893e-20)
(1.05677 0.0303444 7.97708e-21)
(0.919881 -0.0280551 -2.85618e-20)
(1.03609 0.0199132 0)
(1.05119 0.033443 5.13246e-21)
(0.989839 0.0374376 0)
(1.04747 0.0298597 -7.05831e-23)
(0.994086 0.027454 -6.07608e-21)
(1.00066 0.000447356 -1.07311e-20)
(0.367606 -0.0155246 2.2724e-22)
(0.555702 0.00820478 0)
(0.577806 0.00824513 7.5797e-22)
(1.08028 0.135733 -1.84674e-20)
(-0.144721 0.0172544 -9.09959e-20)
(0.540376 0.00543517 2.25271e-21)
(0.303157 -0.0333678 0)
(0.310631 0.00453516 2.88649e-21)
(1.01196 0.00260102 0)
(1.04732 0.0336176 3.776e-21)
(0.991368 0.0376 0)
(0.98069 0.0086049 6.26449e-21)
(1.06204 0.0135159 0)
(1.04752 0.0364138 -8.6346e-21)
(1.01711 0.000573845 1.30318e-21)
(1.05459 0.0470932 -5.47547e-21)
(1.04161 0.0310063 5.7623e-21)
(0.315209 0.00417812 1.39564e-21)
(0.998642 0.00327414 0)
(1.0468 0.0259277 -1.05277e-20)
(0.25204 0.120051 0)
(1.13132 0.225888 -6.3159e-20)
(0.491039 0.0131077 -9.80329e-21)
(0.999857 -0.000379675 4.16679e-22)
(0.984766 0.0130326 0)
(1.0067 0.000342317 -1.95826e-21)
(0.998491 0.0905636 1.15897e-22)
(1.00734 0.00423251 0)
(0.907834 0.0218942 1.33532e-21)
(0.404584 -0.330989 0)
(0.960821 0.0879733 -2.11518e-20)
(0.157609 0.0327094 -5.88839e-20)
(1.02915 0.0386293 4.78273e-22)
(1.04463 0.0261058 0)
(0.378107 -0.0344274 1.22327e-20)
(0.806799 0.459313 0)
(1.04448 0.0269361 0)
(1.04371 0.0278632 -4.27296e-22)
(1.04655 0.0258131 1.19526e-20)
(1.05486 0.0540753 -1.12588e-20)
(1.06053 0.0258383 4.30469e-21)
(1.04216 0.0253556 0)
(1.04502 0.0275854 -7.01803e-21)
(0.375075 0.0142383 0)
(1.04328 0.0240393 -3.71956e-21)
(1.04735 0.0282605 0)
(1.00968 0.000732004 -3.25584e-21)
(1.07368 0.0120851 1.91485e-20)
(1.03357 0.0328815 9.27953e-22)
(1.01968 0.0114184 -4.82125e-21)
(0.995812 0.087922 0)
(1.02099 0.0283329 0)
(0.321187 0.00367449 1.35665e-21)
(0.997698 0.00482146 4.31792e-21)
(1.00089 0.014528 -3.0277e-21)
(1.0132 0.0015619 -6.66305e-21)
(0.954504 0.024014 1.17819e-21)
(0.0390318 -0.00856494 -2.54011e-21)
(1.00002 0.000108131 0)
(0.465366 0.0134214 4.94273e-21)
(1.02793 0.0219284 1.47267e-21)
(1.10828 0.096509 0)
(0.99976 0.0152543 0)
(0.20903 -0.00868726 0)
(1.04641 0.0183039 -1.90042e-20)
(1.00631 0.0650426 -1.87663e-21)
(1.00818 0.0283555 -7.70422e-21)
(0.615698 0.012422 1.87788e-21)
(1.11198 0.0771477 -3.43857e-20)
(-0.214713 0.00216946 0)
(1.00002 0.000126708 -9.50544e-21)
(0.210174 -0.0019922 -5.42274e-21)
(0.135203 -0.0515994 2.29416e-19)
(1.12654 0.0222276 1.29018e-20)
(1.0194 0.0116251 5.5935e-23)
(0.0628717 0.0107249 -6.70648e-20)
(0.949884 -0.0168006 2.40629e-20)
(1.04221 0.0291561 8.09865e-21)
(1.0025 0.00746358 7.97717e-21)
(0.987532 0.025303 0)
(1.04759 0.0227835 0)
(1.06171 0.0163782 1.93731e-20)
(1.01778 0.000776238 7.56037e-22)
(1.00216 0.00680513 -7.23639e-21)
(1.0023 0.00132345 1.11493e-20)
(1.00246 0.00141648 5.58133e-21)
(0.176574 -0.0119401 0)
(1.06319 0.0138034 0)
(1.04196 0.029343 -6.03444e-21)
(1.11326 0.0689063 1.71778e-20)
(1.00315 0.000384808 0)
(1.00536 0.00389345 3.56379e-21)
(1.05571 0.0303092 -8.09295e-21)
(0.738763 -0.0176245 -8.89188e-21)
(1.03526 0.0476413 1.7465e-21)
(1.0123 0.0195003 4.75868e-21)
(0.990307 -0.00218047 0)
(0.991952 -0.0155106 8.15728e-22)
(1.12949 0.0191504 1.47762e-20)
(0.419884 0.0270853 0)
(0.999847 0.00101407 0)
(0.991425 -0.0122618 -2.10904e-22)
(1.0472 0.0296921 -1.9073e-21)
(1.042 0.0255414 0)
(1.03898 0.0307844 1.35327e-22)
(0.984441 0.0115949 -2.77751e-20)
(0.995648 0.0404109 2.75631e-20)
(0.997934 0.062351 5.17634e-21)
(1.04699 0.0282196 -4.27681e-21)
(0.914607 0.378237 -8.47105e-21)
(1.11749 0.072693 0)
(1.0662 0.02711 6.9959e-21)
(1.05123 0.0284769 0)
(1.0592 0.0128384 -1.20189e-20)
(1.06568 0.0807174 0)
(0.995091 0.00523623 -1.28436e-20)
(0.225657 -0.00201949 -4.83742e-21)
(0.992457 -0.015648 6.89883e-22)
(0.974441 0.0418615 -2.83989e-20)
(1.03215 0.0234376 0)
(1.07195 0.0123099 0)
(0.94661 0.203612 4.59571e-21)
(1.00552 0.000871941 5.9699e-21)
(1.12902 0.216614 7.39763e-20)
(1.07748 0.0580902 1.9464e-21)
(0.0773338 0.110519 -1.50334e-19)
(1.05177 0.0287741 0)
(0.867395 0.0723165 -1.21881e-20)
(1.04213 0.0310164 0)
(0.998968 -0.00152643 0)
(1.07365 -0.00843046 -1.69449e-20)
(1.12123 0.210548 -1.38302e-20)
(0.735053 0.00715747 2.67015e-21)
(0.994335 0.0259309 0)
(1.03247 0.0424074 -1.7387e-22)
(1.11392 0.0659784 -3.70939e-20)
(0.447899 -0.00270322 -1.30978e-21)
(0.0475082 -0.00332505 -1.11612e-20)
(1.04839 0.0314939 8.95658e-21)
(1.08609 0.135979 3.52147e-20)
(0.962735 0.0488677 -1.65164e-20)
(1.0128 0.0424722 -6.86829e-22)
(0.983348 0.011567 1.95595e-20)
(0.862054 0.154354 4.09417e-20)
(0.662514 0.0999754 -1.15673e-19)
(0.973308 -0.0316152 0)
(1.04528 0.0314174 0)
(0.565717 0.0643471 8.49092e-20)
(0.754582 0.00792869 -3.38655e-21)
(-0.200138 0.00363011 4.55846e-20)
(0.99476 0.0471992 0)
(1.0446 0.0261984 0)
(1.04691 0.0189099 1.69743e-20)
(0.967037 0.0725509 -1.13778e-20)
(0.960217 -0.00764379 -2.05228e-20)
(0.163596 0.432847 2.70186e-20)
(1.07836 0.00547829 0)
(1.04863 0.0151644 -2.55858e-21)
(1.10705 0.0603771 2.31872e-20)
(1.01272 0.00300287 -7.40837e-21)
(0.443508 0.0132968 3.90982e-21)
(1.04719 0.0229877 -5.35526e-21)
(1.00549 0.000643964 1.00537e-20)
(1.02789 0.0564497 3.19527e-22)
(1.04505 0.0272595 4.42122e-22)
(0.837115 0.00915617 0)
(1.07242 0.0607117 0)
(0.785546 0.0156104 2.83371e-21)
(1.05952 0.0262342 -5.2464e-21)
(1.04121 0.0250019 1.81657e-21)
(1.07714 -0.00652925 -1.38316e-20)
(1.02014 0.0313177 2.99476e-21)
(0.286106 0.00565773 -3.18811e-21)
(0.999787 -7.61252e-05 0)
(0.999792 0.00107858 3.09257e-21)
(1.03291 0.021457 0)
(1.07703 0.00574231 -4.47489e-21)
(0.374473 0.143107 -1.46238e-19)
(1.02078 0.0308999 -4.58222e-21)
(0.988553 0.0310805 1.40487e-20)
(0.991772 -0.0113737 0)
(1.04329 0.0214988 0)
(0.0743747 0.0617465 -1.26545e-21)
(1.0473 0.0263374 2.59493e-21)
(1.01385 0.0431243 0)
(1.04454 0.0268282 4.45005e-21)
(1.04632 0.0314879 0)
(0.999259 0.015593 0)
(1.099 0.354908 0)
(1.04754 0.0260839 0)
(1.04995 0.0300137 -1.14532e-21)
(0.996097 0.00792676 0)
(1.05771 0.0258737 -5.94621e-21)
(1.02019 0.0286065 0)
(0.257739 0.106869 3.23768e-20)
(1.05406 0.097454 -6.36714e-21)
(0.955271 0.197931 1.24204e-20)
(1.03264 0.0433015 0)
(1.0039 0.00181234 0)
(1.01687 0.0112208 -5.70914e-21)
(1.01065 0.0235801 -3.45026e-21)
(0.926365 0.256121 0)
(0.884893 -0.0327776 -1.48327e-20)
(1.09077 0.0324792 1.9845e-20)
(0.470666 0.700068 -6.32863e-20)
(1.04531 0.0299742 -1.47882e-20)
(1.00419 0.00321453 -5.38037e-21)
(1.06215 0.0275243 -1.46644e-20)
(0.369483 0.171097 3.38571e-19)
(1.04216 0.027814 -1.70122e-21)
(1.02324 0.0159909 -2.8276e-21)
(0.892665 -0.01796 -2.66818e-20)
(1.00188 0.0065858 3.65523e-21)
(1.03821 0.0227028 -2.09088e-21)
(1.02325 0.0400547 6.22458e-22)
(0.925828 -0.017425 0)
(0.999632 -0.000593743 -1.2306e-20)
(1.10986 0.33913 4.72154e-20)
(1.03765 0.023446 2.14873e-21)
(1.0439 0.0268631 0)
(1.06955 0.0928525 0)
(0.271869 -0.0118376 3.26857e-21)
(0.973289 0.195802 0)
(0.987891 0.0241615 -1.1282e-20)
(0.365378 -0.000234153 -6.00939e-21)
(0.0732355 -0.00209935 1.01537e-20)
(0.990338 0.0168683 0)
(1.03211 0.02299 1.53644e-22)
(1.04813 0.0168124 4.97089e-21)
(1.10394 0.06303 -1.18375e-21)
(1.04998 0.0263685 0)
(1.00006 0.000157709 0)
(1.00893 0.0286911 2.52486e-21)
(1.10313 0.210515 8.86711e-21)
(1.03428 0.0214376 5.0316e-22)
(1.05201 0.0346492 -2.56667e-21)
(1.04414 0.0262166 0)
(1.01731 0.0114627 1.01217e-20)
(1.04362 0.0275324 0)
(0.948118 0.0201609 3.76016e-21)
(1.02388 0.0154375 0)
(1.03115 0.0184979 0)
(1.002 0.00136105 0)
(0.414067 0.0103523 -3.10124e-21)
(0.999897 -0.000391141 1.4454e-21)
(0.9581 0.0443402 -2.21376e-20)
(-0.0979532 -0.0183944 0)
(0.969089 0.0352241 0)
(1.07783 0.00719429 2.09531e-21)
(1.02028 0.0506989 0)
(0.821894 0.011349 6.84427e-20)
(1.00216 0.00146296 -1.11862e-20)
(0.971839 0.145197 0)
(0.996439 0.0026598 9.72505e-21)
(1.05446 0.0576807 -1.02296e-20)
(1.0038 0.00107921 6.72569e-21)
(1.0172 0.178621 -8.2043e-22)
(1.02751 0.0220233 -1.50302e-21)
(0.674215 0.312613 0)
(0.428578 0.577079 6.77838e-20)
(0.739957 -0.0182698 -1.25237e-20)
(1.00627 0.00032346 -6.96146e-21)
(0.999287 -0.0012498 -1.65677e-20)
(1.06244 0.079418 -8.36749e-21)
(1.04209 0.0784048 3.67209e-22)
(0.396498 0.008755 0)
(0.850805 -0.00750314 0)
(1.04832 0.0389624 1.86219e-21)
(0.988928 -0.00472859 0)
(1.07785 0.0230025 0)
(0.339694 0.117791 -1.57455e-19)
(1.04983 0.0299271 0)
(1.08997 0.0348888 -2.46334e-20)
(1.04583 0.0349166 1.25605e-20)
(0.804966 0.0171413 1.03811e-20)
(1.01966 0.087809 -1.79391e-21)
(1.04281 0.0211239 -2.78544e-21)
(1.06817 0.0331863 2.52536e-20)
(0.830074 0.319364 -3.08462e-20)
(1.04781 0.0395675 0)
(0.296025 0.190822 0)
(1.04801 0.0415643 -3.17253e-21)
(1.03182 0.020356 -1.56105e-21)
(1.04515 0.0271154 -5.00054e-22)
(0.97025 0.0664853 3.75316e-20)
(1.02022 0.0134336 1.15814e-23)
(1.03788 0.0228179 1.39852e-21)
(1.03511 0.0828616 0)
(1.00183 0.0647618 -9.7122e-21)
(0.995464 0.00165607 -1.97132e-20)
(1.00341 0.000321746 4.82905e-21)
(1.04581 0.0306148 -1.45065e-21)
(1.02757 0.0252676 0)
(1.05292 0.0349456 0)
(0.989781 -0.00446537 -4.08394e-21)
(0.992607 -0.00454108 -1.14656e-20)
(0.999921 -0.000365671 0)
(0.992664 0.0396101 0)
(1.01851 0.00666339 -4.08386e-21)
(1.0034 0.0558229 -4.07589e-21)
(1.00171 0.00139656 1.1068e-20)
(0.199209 -0.00878632 -8.80227e-21)
(1.04533 0.0238879 -6.79603e-23)
(0.476773 -0.37451 -5.81414e-21)
(1.00642 0.00403518 -9.66038e-21)
(0.999948 0.000324835 -1.2864e-20)
(0.789163 0.0727231 4.99638e-20)
(1.05612 0.0530371 1.32066e-20)
(0.951071 -0.0327058 -7.94386e-21)
(1.13321 0.00909256 0)
(1.0503 0.13039 7.62092e-21)
(1.18506 0.0816226 0)
(1.03794 0.0233085 -1.92098e-21)
(1.05809 0.0289667 0)
(1.02236 0.0233026 -4.93613e-21)
(0.999947 -1.33144e-05 5.6918e-21)
(1.00263 0.0012816 -1.04473e-20)
(1.00139 0.0390813 -1.07899e-20)
(-0.197504 -0.0134344 -5.82466e-20)
(0.999965 0.00029971 1.22429e-20)
(1.0547 0.0112673 4.4124e-21)
(1.0037 0.0574947 1.67765e-20)
(-0.153838 0.0131106 9.6647e-20)
(0.92785 0.151334 0)
(1.05486 0.128572 -1.03523e-20)
(1.04402 0.026875 0)
(1.01246 0.00779256 5.6423e-21)
(1 1.85876e-05 0)
(1.04533 0.0241646 0)
(0.986584 -0.0154123 -8.22229e-21)
(0.970467 0.0145297 0)
(1.10134 0.00812922 -2.30497e-20)
(0.987177 0.0334011 0)
(0.998438 -0.00571509 1.5101e-21)
(1.02671 0.0464276 1.81879e-22)
(1.00201 0.00408172 -1.86974e-20)
(1.01172 0.00120587 4.1169e-21)
(1.00659 0.062504 -1.83178e-21)
(0.885862 -0.0769982 3.08069e-20)
(0.370643 0.0108407 3.22281e-21)
(1.01815 0.0756066 0)
(1.0242 0.0153503 -3.27836e-21)
(1.00492 0.00064542 7.953e-21)
(0.489567 -0.00391793 1.23658e-21)
(0.914253 0.263086 -1.4927e-20)
(0.984493 0.0197616 0)
(0.995397 0.025835 0)
(1.11487 0.00987462 -1.27924e-20)
(1.04775 0.017813 0)
(-0.0587616 -0.0153531 0)
(0.874266 0.0735471 1.03209e-20)
(1.03179 0.0207131 0)
(1.00667 0.00249773 4.82374e-24)
(1.01196 0.00143991 -8.67349e-21)
(1.04336 0.0243153 0)
(1.02075 0.0763973 1.27364e-21)
(1.04221 0.02509 0)
(0.912267 -0.0267691 -4.69452e-20)
(0.481022 0.00748274 6.63221e-22)
(1.00187 0.0286817 1.14512e-20)
(0.948109 0.0210108 2.04067e-20)
(-0.0889559 -0.0123449 -2.72192e-21)
(0.992332 -0.00340623 0)
(1.03415 0.0325703 -7.45914e-22)
(0.991005 0.0143434 0)
(1.00085 0.000591175 2.53528e-21)
(1.03093 0.0860193 -3.61193e-22)
(0.772254 -0.0753002 -9.24424e-20)
(1.01738 0.0272041 -3.2413e-21)
(1.07511 0.00718228 -2.18708e-21)
(0.520967 0.0146542 0)
(1.07141 0.089583 0)
(0.995025 0.00564747 0)
(1.01799 0.00844436 5.23632e-21)
(1.04612 0.0266056 2.32367e-21)
(1.0569 0.0113669 1.05383e-22)
(1.00002 0.000172098 0)
(1.05625 0.0144341 -7.69933e-21)
(1.01759 0.00817858 -5.03742e-21)
(1.03315 0.0798089 0)
(1.02452 0.0125962 -1.39029e-21)
(1.01974 0.0144725 -2.73409e-21)
(1.06267 0.0152695 -1.86818e-20)
(1.01763 0.0196201 -8.49241e-21)
(1.05747 0.032595 5.89343e-21)
(1.03678 0.0651457 -1.58597e-21)
(0.999917 -0.000465133 -1.15997e-20)
(1.01397 0.00564262 0)
(0.980101 -0.0223553 4.77983e-20)
(0.999257 0.010458 -6.29753e-21)
(1.03067 0.0185334 8.34149e-22)
(0.261658 0.580674 0)
(1.02249 0.0153744 2.95901e-21)
(1.01597 0.0141569 0)
(0.852882 0.00303905 1.42829e-21)
(1.05158 0.011808 5.35806e-21)
(1.04159 0.0250326 -2.51792e-21)
(1.03925 0.0791785 -4.08233e-21)
(1.04971 0.0328176 1.02734e-20)
(1.02865 0.0327692 0)
(1.01069 0.0132144 0)
(0.884256 -0.040108 -2.01945e-20)
(0.24476 -0.00577504 -8.27727e-21)
(1.02438 0.17921 -2.32187e-21)
(0.997102 -0.00295883 -9.56858e-21)
(1.00783 0.0276687 3.9508e-21)
(0.883297 -0.00592009 3.96277e-21)
(1.04039 0.0366687 -3.23988e-21)
(0.246116 -0.0365524 -4.94026e-22)
(0.999874 -0.000530146 1.25044e-20)
(0.948394 -0.0327021 0)
(0.395657 0.0120832 -3.38793e-21)
(1.03894 0.0342589 -4.00815e-21)
(1.01872 0.0272246 -3.94756e-21)
(-0.233062 -0.0102645 0)
(0.206674 0.130439 -2.47735e-19)
(0.999674 0.0103197 0)
(1.06703 0.0342411 0)
(1.00279 0.00136723 1.26836e-20)
(1.01711 0.0192093 7.94289e-21)
(1.00658 0.00427947 1.88208e-20)
(0.246461 -0.0171908 0)
(1.0185 0.00635776 8.24598e-21)
(1.02683 0.0142939 -2.63635e-21)
(1.01119 0.0132193 0)
(1.05979 0.032888 -6.73791e-21)
(1.03472 0.0200292 1.12638e-22)
(1.10965 0.091689 0)
(0.70403 -0.168076 3.37975e-20)
(1.02094 0.0141491 1.46043e-21)
(0.839555 -0.0320878 -5.43451e-20)
(0.999913 0.00105507 -3.82682e-22)
(0.170977 -0.0340521 -2.48786e-20)
(1.00073 0.00481712 -8.55532e-21)
(1.023 0.0155119 1.41683e-21)
(0.998414 -0.00509045 0)
(1.04597 0.0267886 -6.44622e-21)
(0.998283 -0.0056816 0)
(1.05863 0.0254931 0)
(0.510373 0.0173591 6.83216e-21)
(1.01747 0.0265378 -6.10159e-21)
(0.897268 -0.0166859 0)
(1.04337 0.0272693 -1.84414e-21)
(-0.0716132 -0.019687 -2.0473e-20)
(0.986134 0.00794731 1.52706e-20)
(0.420485 0.0139525 -6.60144e-21)
(1.10574 0.0677633 3.8377e-20)
(-0.0347027 -0.0220549 0)
(0.580492 0.0129489 -2.76196e-22)
(0.827709 0.00192769 -2.84976e-21)
(0.320893 0.283907 9.26882e-20)
(1.06138 0.0282494 0)
(0.988415 0.0264837 8.31298e-21)
(0.767358 0.0143493 4.17652e-21)
(1.03855 0.0347339 2.85786e-21)
(0.763972 0.0131437 1.38093e-21)
(1.01888 0.011408 -2.4945e-21)
(1.00668 0.017021 8.33646e-21)
(0.985153 0.0208764 0)
(0.999873 0.00110848 0)
(1.03117 0.0322392 0)
(0.876519 0.0347742 0)
(0.430092 0.00820465 -1.75735e-21)
(1.007 0.0165101 2.71048e-21)
(0.992472 -0.00979645 -1.18111e-22)
(-0.183827 0.0105693 7.57151e-23)
(0.931918 0.340205 0)
(0.980581 -0.023585 -1.23503e-20)
(0.813762 -0.117724 -4.32093e-20)
(1.02961 0.048221 -1.6268e-23)
(1.01769 0.0234987 0)
(0.497068 0.613104 0)
(0.806555 -0.112499 4.18143e-20)
(0.938295 0.0109693 -1.27454e-20)
(1.03453 0.0201958 -2.82112e-22)
(0.495797 0.0148112 -6.65345e-21)
(-0.0704545 -0.0143778 0)
(0.22306 -0.0446043 0)
(1.0241 0.0124496 0)
(1.11145 0.0821731 -1.39058e-21)
(1.07543 0.0567633 0)
(-0.0856399 -0.0127907 5.79602e-20)
(0.965306 -0.00210677 -4.49251e-21)
(1.04701 0.0246517 -3.61241e-21)
(1.00044 0.0156789 0)
(1.02248 0.0238566 -4.6667e-21)
(1.00091 0.0284505 1.93387e-20)
(1.01829 0.00167298 2.53681e-21)
(0.994249 0.0409682 -1.97228e-20)
(1.01206 0.00230086 -4.07111e-21)
(0.999768 0.0616676 0)
(1.01711 0.0875801 1.69611e-21)
(0.210756 0.0379605 0)
(1.0468 0.0251829 0)
(1.02663 0.0145149 2.90751e-21)
(1.05713 0.0291829 4.53855e-21)
(0.332272 -0.0317443 0)
(1.02907 0.0828115 9.46434e-22)
(0.964588 -0.00574795 8.69142e-21)
(0.280455 0.00429854 -7.02705e-21)
(1.01158 0.0178313 -7.06166e-21)
(0.97176 0.0132556 5.7421e-22)
(0.810154 -0.00063991 3.59965e-20)
(0.31176 0.054252 0)
(0.99833 -0.00723148 0)
(0.995577 0.00785512 0)
(0.824589 0.0136697 0)
(1.04266 0.0270159 3.52201e-21)
(1.04629 0.01984 1.61233e-20)
(1.051 0.0273774 0)
(1.04367 0.0283341 0)
(0.998521 0.00906869 2.70283e-20)
(1.06401 0.0262797 1.66885e-20)
(0.963087 -0.0045104 0)
(0.999401 0.00414674 0)
(0.962086 -0.00910129 2.02597e-20)
(0.876377 0.0194556 -2.39695e-21)
(-0.0299899 -0.0182898 7.89237e-21)
(1.01735 0.0140637 -6.87479e-21)
(1.01435 0.00595304 -2.26765e-21)
(0.990405 0.0151242 0)
(1.04673 0.0168804 -2.59913e-21)
(0.992468 0.0386625 0)
(1.03348 0.0408516 -4.90468e-22)
(0.987598 -0.0150826 4.47425e-22)
(0.991413 0.0298025 -1.69693e-22)
(1.06466 0.0269845 -2.00423e-20)
(1.02146 0.01432 3.02744e-21)
(1.05564 0.0564686 1.26206e-20)
(1.03842 0.286751 1.84323e-20)
(0.589017 0.00887618 5.53746e-21)
(1.0101 0.021595 5.96322e-21)
(1.00418 0.185537 -2.5125e-21)
(0.994095 0.0490811 0)
(0.242315 -0.0123432 3.30684e-21)
(0.30988 -0.0304139 0)