/*--------------------------------*- C++ -*----------------------------------*\
| =========                 |                                                 |
| \\      /  F ield         | OpenFOAM: The Open Source CFD Toolbox           |
|  \\    /   O peration     | Version:  v2012                                 |
|   \\  /    A nd           | Website:  www.openfoam.com                      |
|    \\/     M anipulation  |                                                 |
\*---------------------------------------------------------------------------*/
FoamFile
{
    version     2.0;
    format      ascii;
    class       surfaceVectorField;
    location    "800";
    object      Uf_0;
}
// * * * * * * * * * * * * * * * * * * * * * * * * * * * * * * * * * * * * * //

dimensions      [0 1 -1 0 0 0 0];


internalField   nonuniform List<vector> 
20673
(
(1.02502 0.0842053 2.20806e-22)
(1.02745 0.0827971 6.08699e-22)
(1.0249 0.081216 5.26766e-22)
(0.997706 0.0258056 -4.28007e-21)
(0.997179 0.0250659 0)
(0.996717 0.0262398 7.94868e-21)
(0.911102 0.0172681 -8.17357e-22)
(0.943006 0.0201789 2.28142e-21)
(0.959275 0.021995 1.3567e-21)
(1.03309 0.0186114 -4.67373e-22)
(1.03277 0.0188078 -3.13723e-22)
(1.0327 0.0184831 -2.95246e-22)
(0.995526 -0.00738948 3.81989e-21)
(0.995453 -0.00789898 -5.93202e-21)
(0.994986 -0.0079101 -1.33625e-22)
(0.372678 -0.0372613 -2.28928e-20)
(0.360985 -0.0640675 -2.04862e-20)
(0.344269 -0.0387903 -6.16557e-20)
(0.82844 0.0175727 2.11483e-23)
(0.827108 0.0154335 2.40099e-21)
(0.871557 0.0184818 2.24842e-21)
(0.977533 0.0226218 1.19907e-21)
(0.941499 0.0194276 2.41529e-21)
(0.959772 0.0192125 -6.69235e-22)
(0.95972 0.00582098 2.68205e-21)
(0.93784 0.00336097 -8.62152e-22)
(0.902743 0.00369746 2.4411e-21)
(1.04872 0.0990434 3.02696e-21)
(1.05227 0.0986633 -3.13408e-21)
(1.05116 0.102548 0)
(1.04383 0.0266687 0)
(1.04388 0.0267923 0)
(1.04374 0.0267229 5.21343e-21)
(1.04505 0.0244493 7.67467e-23)
(1.0452 0.0245979 -1.52518e-21)
(1.04493 0.024645 2.38441e-21)
(1.0334 0.0188253 9.48541e-23)
(0.264624 0.00875974 -9.01585e-22)
(0.337823 0.010925 -2.1342e-21)
(0.255988 0.0100207 3.89164e-22)
(0.947093 0.0511828 -1.36322e-20)
(0.943841 0.0500631 1.91009e-20)
(0.947027 0.0477081 -4.83957e-22)
(0.965189 0.0518104 -8.92153e-21)
(0.964001 0.0495424 -8.38535e-21)
(0.967113 0.0494079 -2.04554e-22)
(0.991309 0.0271147 -1.04811e-20)
(0.992395 0.0273417 -6.19896e-21)
(0.992066 0.0262161 1.93715e-24)
(1.0477 0.0377314 -9.34628e-22)
(1.04803 0.0384337 8.34015e-23)
(1.04854 0.0374907 -2.34808e-21)
(1.0452 0.024227 0)
(1.04489 0.0242709 -2.40119e-21)
(1.00016 0.00180284 1.0068e-21)
(1.00022 0.00176244 4.58646e-21)
(1.00016 0.00165554 1.0711e-20)
(0.999923 -0.000261505 -5.57116e-22)
(0.99989 -0.000323621 -6.44943e-21)
(0.999928 -0.000217736 -7.09085e-21)
(0.823362 0.0156026 1.8719e-23)
(0.789382 0.0116237 2.05985e-21)
(0.998874 0.00164273 7.57501e-21)
(0.998727 0.00173029 0)
(0.998884 0.00185083 3.03394e-22)
(1.00176 0.0229435 1.30875e-21)
(1.01075 0.0226732 -4.72686e-21)
(0.990233 -0.000562149 -2.22904e-21)
(0.989777 -0.00110469 -5.07868e-22)
(0.989611 -0.00041637 -4.93805e-21)
(0.838197 0.018352 5.01553e-21)
(0.800835 0.0170697 -3.9909e-21)
(0.801162 0.0154617 2.3679e-21)
(0.783832 -0.031773 -4.4149e-20)
(0.774687 -0.0272257 -2.1388e-20)
(0.776807 -0.0385626 -3.84252e-20)
(0.751786 0.0457861 -2.35604e-20)
(0.749846 0.0574864 -3.25669e-20)
(0.74156 0.0479351 0)
(0.704328 0.445226 -2.33802e-20)
(0.734309 0.452987 5.14814e-21)
(0.715405 0.486101 2.61768e-20)
(1.07448 0.0639877 8.65427e-21)
(1.07356 0.0617838 0)
(1.076 0.0614983 -9.87062e-22)
(1.0354 0.0769238 1.93467e-22)
(1.03367 0.0785959 0)
(1.03323 0.0760076 0)
(1.0093 0.0618551 -5.21449e-23)
(1.00757 0.0619158 1.03513e-21)
(1.0086 0.0600926 5.8275e-21)
(0.832796 0.00767338 0)
(0.825022 0.00932098 3.88687e-20)
(0.827148 0.000538188 -3.38597e-20)
(0.905704 -0.0469578 -3.70491e-20)
(0.908972 -0.0493213 0)
(0.909569 -0.0451695 0)
(0.987602 -0.00576038 4.98984e-21)
(0.986815 -0.00568154 8.53179e-21)
(0.987459 -0.00492991 0)
(1.04386 0.0286083 -5.00395e-22)
(1.04351 0.0284222 1.59669e-21)
(1.04164 0.0285193 6.44788e-21)
(0.998904 0.0014545 -5.41882e-21)
(0.999027 0.00157724 7.07473e-21)
(0.492401 0.00220447 4.99443e-22)
(0.46108 0.0024198 5.23736e-22)
(0.473534 0.00258674 1.18283e-21)
(1.03546 0.0197363 -4.32107e-23)
(1.03589 0.0198051 1.72158e-23)
(0.492788 0.014786 -6.11375e-24)
(0.458412 0.0143854 0)
(0.495293 0.0148107 -6.74412e-23)
(1.00443 0.000586772 -8.09347e-22)
(1.00469 0.000590518 -3.41252e-22)
(1.00423 0.000327399 -8.77565e-21)
(0.999978 -5.9592e-05 -1.06985e-20)
(0.999989 -3.39676e-05 -1.35439e-21)
(0.999993 -1.85431e-05 -4.92271e-21)
(1.01537 0.0053971 -4.89256e-21)
(1.01495 0.00529941 6.10104e-21)
(1.01517 0.00501983 7.11391e-21)
(0.687286 0.11275 5.31796e-21)
(0.702603 0.12038 5.61985e-20)
(0.686264 0.132597 -4.66659e-21)
(1.01353 0.0224543 3.1161e-21)
(1.01366 0.0230902 -2.88754e-21)
(1.01415 0.0227633 0)
(0.88615 -0.0346876 -1.07589e-20)
(0.885617 -0.039395 -1.47537e-20)
(0.890566 -0.037206 6.03336e-22)
(1.04744 0.0367957 -4.94994e-21)
(1.04682 0.0377025 0)
(1.04778 0.0298255 7.58686e-21)
(1.0476 0.0302877 -2.29073e-21)
(1.04726 0.0298562 0)
(0.0886569 0.00649844 0)
(0.0885451 0.0458773 -6.98273e-22)
(0.121342 0.0255881 6.32704e-20)
(1.00147 0.000374413 7.47032e-22)
(1.00162 0.000344307 3.8869e-21)
(1.00158 0.000526469 -1.06016e-21)
(1.03291 0.031448 5.84773e-24)
(1.03305 0.0319156 -1.12052e-22)
(1.03347 0.0314642 -2.74855e-22)
(0.962392 -0.0214287 -2.9654e-21)
(0.961538 -0.0232043 2.71286e-21)
(0.960532 -0.0214509 -2.45111e-21)
(0.0853782 -0.0261735 2.05584e-19)
(0.0485533 -0.0102479 -1.09167e-19)
(0.90214 -0.0444841 -2.14096e-20)
(0.901704 -0.0491785 2.09058e-21)
(0.990561 0.0279562 -3.7833e-21)
(0.990171 0.0267123 -2.86126e-21)
(1.02901 0.0390963 1.71122e-22)
(1.02841 0.0397968 -4.39312e-22)
(1.02939 0.0400643 -1.83954e-24)
(1.04379 0.0265329 4.64394e-21)
(1.04392 0.0266024 0)
(0.983506 0.00916314 -2.25181e-21)
(0.984109 0.00822908 -1.06215e-20)
(0.98464 0.00931797 -7.14147e-21)
(1.02207 0.0392421 -1.6829e-21)
(1.02272 0.040056 -1.47664e-22)
(1.02161 0.0402829 -1.45228e-21)
(1.01292 0.0221431 3.0287e-21)
(1.01333 0.0218148 -2.63175e-21)
(1.20915 0.0759729 7.01948e-21)
(1.13691 0.0703945 1.98325e-20)
(1.17076 0.0690528 1.60989e-21)
(0.998694 0.0257604 3.52588e-21)
(0.998158 0.0269389 -3.96221e-21)
(0.266824 0.0085192 2.98817e-21)
(1.0001 0.00184092 -7.60691e-21)
(1.00017 0.00196312 8.96343e-22)
(0.379624 -0.0027748 -2.33304e-20)
(0.403536 -0.0312476 -4.14874e-21)
(1.21325 0.329527 8.42653e-21)
(1.21326 0.310562 0)
(1.1958 0.31214 3.81931e-20)
(0.995627 -0.0120885 1.11026e-20)
(0.995123 -0.0124927 4.85088e-22)
(0.987421 -0.0205909 -8.73211e-22)
(0.988278 -0.0200447 -3.42212e-21)
(1.04671 0.0238694 3.20458e-21)
(1.04637 0.0239361 4.30989e-21)
(1.04647 0.0235028 -6.02513e-22)
(1.00344 0.0895347 -5.86915e-22)
(1.0068 0.0898145 0)
(1.00417 0.0934374 0)
(0.996042 -0.00687353 -7.91061e-22)
(0.995591 -0.0068579 -4.87532e-21)
(1.00639 0.00505674 -3.60077e-21)
(0.979439 0.00548417 3.71287e-21)
(0.271313 -0.00912464 1.7716e-21)
(0.305475 -0.0120236 9.81527e-22)
(0.294687 -0.0121111 1.69434e-21)
(0.990756 -5.94479e-05 3.70478e-21)
(0.990873 -0.000731491 1.38021e-20)
(0.0890258 0.0782041 -6.62349e-22)
(0.122762 0.09794 -6.64403e-20)
(0.0903542 0.11591 -8.12877e-20)
(1.04726 0.0235017 5.04773e-21)
(1.04716 0.0231982 3.20469e-21)
(1.04691 0.0234528 5.19583e-21)
(0.265881 0.00359009 0)
(0.295372 -0.000487555 -1.10835e-21)
(0.277006 0.00212029 -2.95545e-21)
(1.01948 0.028003 3.48435e-21)
(1.01982 0.0285294 0)
(1.01909 0.0286117 -3.47949e-21)
(0.777105 0.0178056 -1.21256e-21)
(0.777544 0.0157279 1.39886e-21)
(0.812731 0.0182243 -1.37813e-21)
(0.999775 -0.000391418 6.4426e-21)
(0.999677 -0.000513226 -6.55461e-21)
(0.999698 -0.000398765 -1.16807e-21)
(0.999697 0.000218866 3.02111e-21)
(0.999646 0.000293341 -6.31274e-21)
(0.999733 0.00028962 2.80681e-21)
(0.995996 -0.0112218 -3.04462e-21)
(0.388631 0.0236535 -7.73187e-21)
(0.398196 0.0534369 -2.87648e-21)
(0.419829 0.031083 -6.36648e-22)
(0.527596 0.00185277 -3.42761e-22)
(0.515857 0.00152916 -1.07438e-21)
(0.219731 0.0143284 -7.76699e-21)
(0.104484 0.00636941 -6.31006e-20)
(0.142048 0.00558281 -7.78733e-20)
(1.01908 0.0274087 1.2805e-21)
(1.01985 0.0273933 2.70029e-21)
(0.999663 0.000841046 3.73391e-22)
(0.999711 0.00089213 3.34988e-22)
(0.999721 0.000770225 -6.10702e-21)
(1.20305 0.342708 6.72205e-21)
(1.16308 0.313079 -4.47488e-20)
(1.03272 0.0308711 7.22544e-24)
(1.03226 0.0313242 7.38097e-23)
(1.01575 0.00551591 -7.38469e-21)
(1.01551 0.00579706 -1.082e-20)
(0.400067 -0.00865737 2.3379e-21)
(0.361665 -0.00764295 7.39508e-22)
(0.37814 -0.00763803 2.05922e-21)
(1.07133 0.0835601 0)
(1.06823 0.0853485 -7.96616e-21)
(1.07067 0.0875072 0)
(1.00588 0.0172131 0)
(1.00638 0.0169838 4.39455e-21)
(1.00585 0.0166362 0)
(0.957973 0.0177005 1.90838e-20)
(0.955778 0.0180761 6.54889e-21)
(0.957653 0.0198423 -2.27232e-21)
(1.15823 0.332632 -2.5928e-20)
(1.22969 0.362074 0)
(0.374657 -0.0906015 -4.8551e-20)
(0.404136 -0.0961229 -6.38761e-21)
(0.381824 -0.125418 5.97212e-20)
(1.04483 0.0260403 -1.9896e-21)
(1.04493 0.0259456 3.57731e-21)
(1.04475 0.0258957 3.30444e-22)
(1.04762 0.03168 3.55327e-21)
(1.04816 0.0316952 2.76036e-21)
(1.04794 0.0322183 1.89495e-21)
(1.04743 0.0266755 2.8958e-21)
(1.04757 0.0269342 -5.37416e-22)
(1.04776 0.0266989 4.90338e-21)
(0.59177 0.0468065 0)
(0.611339 0.0340826 0)
(0.612286 0.0589485 0)
(1.00546 0.00400949 2.00509e-21)
(1.00574 0.00416999 -3.11732e-21)
(1.00551 0.00436754 3.31332e-21)
(0.838995 -0.0617925 -1.15427e-20)
(0.841637 -0.0538525 2.20957e-20)
(0.846576 -0.0600862 4.31916e-20)
(0.672026 0.105581 -5.81156e-20)
(0.689502 0.0987897 0)
(1.02406 0.0278014 -9.96737e-22)
(1.02462 0.0280917 1.08219e-23)
(1.02452 0.0273302 -9.37371e-22)
(1.00658 0.00923688 -1.90604e-21)
(1.00678 0.00894394 -3.61749e-21)
(1.00692 0.00940128 -4.5218e-21)
(0.99378 0.00369684 8.03213e-22)
(0.990164 0.00209903 2.77762e-21)
(1.03341 0.0060444 -5.50873e-23)
(0.798573 0.383448 0)
(0.772863 0.400542 0)
(0.808609 0.406489 0)
(1.04793 0.0294851 -1.26802e-21)
(1.04824 0.0298458 3.70339e-21)
(0.993518 0.02759 -6.0394e-21)
(0.992879 0.028572 -9.38479e-21)
(1.03455 0.0843364 0)
(1.0325 0.0859102 -1.78209e-22)
(1.0351 0.0872472 2.07671e-21)
(0.164036 -0.0334368 0)
(0.106766 -0.0324144 -7.94476e-21)
(0.134207 -0.0321768 0)
(0.514551 0.0148075 1.54203e-21)
(0.48809 0.0145721 2.095e-21)
(1.0458 0.0252934 -1.28523e-21)
(1.04597 0.0252365 -6.55838e-22)
(1.04592 0.0254668 -4.4074e-21)
(0.991396 0.00436361 2.34987e-21)
(0.937176 -0.000615065 0)
(0.94578 -0.0294501 1.09412e-20)
(0.944002 -0.0278871 8.32588e-21)
(0.943801 -0.0309326 3.34981e-21)
(0.0979954 -0.247098 0)
(0.10971 -0.217767 0)
(0.0715542 -0.22192 0)
(0.996123 0.00319116 0)
(0.99584 0.0034672 6.10654e-21)
(0.995707 0.00305503 -5.54777e-21)
(0.181227 -0.0124563 5.76062e-20)
(0.211345 -0.0287137 5.95205e-20)
(0.212248 0.00608852 5.49667e-21)
(0.445438 0.0156098 -1.94104e-21)
(0.453162 0.0132636 3.27611e-21)
(0.469824 0.0116373 3.68094e-21)
(0.903252 -0.0360446 6.46543e-21)
(0.899903 -0.033523 6.59421e-22)
(0.904349 -0.0319382 1.43359e-21)
(0.999948 -7.84126e-05 1.62461e-21)
(0.999942 -0.000121391 -5.27923e-21)
(1.047 0.0237301 4.35213e-21)
(1.04689 0.0240903 1.91057e-21)
(0.427776 0.0121507 0)
(0.450491 0.0108239 9.52587e-22)
(0.444236 0.0107205 2.38373e-21)
(0.754312 0.0350328 4.04041e-20)
(0.764825 0.043965 -2.42233e-20)
(1.00236 0.000359431 2.5542e-21)
(1.00247 0.000522517 2.46578e-21)
(1.00254 0.000314391 5.22118e-21)
(0.958724 0.0156546 7.63083e-23)
(0.960236 0.0174619 2.10446e-20)
(1.01038 0.0225821 -3.07088e-21)
(1.01043 0.0232541 -1.74564e-21)
(1.00984 0.0229256 0)
(1.00219 0.000360493 -7.26963e-21)
(1.00215 0.000180903 -6.36495e-21)
(1.01285 0.00287917 -2.2918e-21)
(1.01327 0.0028113 4.54369e-21)
(1.01295 0.00248653 3.05809e-21)
(0.346636 -0.0916424 1.02994e-20)
(0.551448 0.00735239 2.18071e-21)
(0.541063 0.0088485 -9.81562e-22)
(0.525774 0.0101832 -1.54492e-21)
(0.947828 -0.0313529 0)
(0.948283 -0.0283117 3.56831e-21)
(1.01379 0.0236609 3.90943e-21)
(1.01315 0.0233793 -2.72486e-21)
(0.999916 -0.000318904 7.32134e-21)
(0.999968 -0.000189256 6.38205e-21)
(1.08125 0.0113801 1.28599e-20)
(1.08009 0.0124495 -4.36439e-21)
(1.07884 0.0094606 -6.86626e-21)
(1.02202 0.0243629 2.2649e-21)
(0.994234 0.0228014 2.48857e-21)
(1.02504 0.0871063 0)
(1.0225 0.0851915 0)
(0.575025 0.0565483 4.41753e-20)
(0.575907 0.0295025 0)
(0.99496 -0.012008 1.59643e-22)
(0.994569 -0.0129895 5.57764e-21)
(0.902573 -0.040298 1.37194e-20)
(0.906605 -0.0381949 -1.79802e-20)
(1.04366 0.0278754 -2.37331e-22)
(1.04374 0.0280429 0)
(1.0432 0.0277403 0)
(1.01153 0.0127057 0)
(1.01124 0.012957 0)
(1.01109 0.0124565 0)
(0.956416 -0.0114012 -3.38499e-21)
(0.95401 -0.0114598 -1.7626e-20)
(0.955463 -0.0136395 -2.89365e-20)
(0.655434 0.107885 -5.7572e-20)
(0.63584 0.113017 1.47603e-21)
(0.653189 0.129328 6.50129e-20)
(0.987014 -0.0198373 -5.52957e-22)
(0.986596 -0.0209747 2.16399e-21)
(1.06656 0.0150352 -8.62869e-22)
(1.05851 0.0131318 3.25356e-21)
(1.06784 0.0137891 -3.01059e-21)
(0.791992 0.479607 1.23637e-20)
(0.799065 0.452192 -4.02477e-21)
(0.766239 0.454964 -9.33081e-21)
(0.96327 -0.0193494 5.21686e-21)
(0.964402 -0.0211547 1.31385e-20)
(1.01171 0.0112088 -3.67846e-21)
(1.01146 0.0114762 1.87543e-21)
(1.01131 0.0109721 0)
(1.00516 0.0655182 -1.44491e-21)
(1.00294 0.065415 -5.4768e-21)
(1.00397 0.0679933 2.17744e-22)
(1.04386 0.0281041 1.57268e-22)
(1.04408 0.0279947 1.68155e-21)
(1.04397 0.0283219 1.04288e-22)
(0.12294 -0.266543 4.50969e-22)
(0.083486 -0.279942 0)
(1.04447 0.026395 1.85072e-21)
(1.04446 0.0264303 1.33657e-22)
(1.04448 0.0263947 0)
(0.973705 0.119364 -2.15353e-21)
(0.976454 0.115949 -8.42284e-21)
(0.97933 0.119216 -1.50962e-20)
(1.02209 0.0494161 7.87141e-22)
(1.02082 0.0501075 1.55363e-21)
(1.02095 0.0485355 -8.54738e-22)
(0.236128 0.0741768 0)
(0.187894 0.0768013 2.3019e-20)
(0.087067 0.0611476 4.04433e-20)
(1.00025 0.089592 -4.92667e-22)
(1.00246 0.0866473 4.83851e-22)
(1.03672 0.0230052 1.75204e-21)
(1.0394 0.0230403 1.23388e-22)
(1.0402 0.0235223 3.78528e-21)
(0.230943 0.00558637 0)
(0.256626 0.00315808 0)
(1.08412 0.0128029 9.24673e-21)
(1.08091 0.0101366 -4.36084e-21)
(0.930421 0.00158987 -6.57816e-21)
(0.927347 0.00232426 -5.24108e-21)
(0.928012 -0.000993672 -3.00729e-20)
(0.789395 -0.0946336 -1.1007e-20)
(0.78319 -0.0865961 -1.27766e-20)
(0.777993 -0.0982177 -3.75229e-20)
(0.999787 3.01563e-05 0)
(0.999811 9.34819e-05 0)
(0.99986 5.25789e-05 0)
(1.04469 0.0261035 0)
(1.04486 0.0261753 -1.99806e-21)
(1.04559 0.025393 2.63585e-21)
(1.04564 0.0251443 4.49186e-21)
(1.0473 0.0264653 2.76751e-21)
(1.04713 0.0266858 1.33791e-21)
(1.02362 0.0282567 -1.40521e-21)
(1.0235 0.0275002 0)
(1.04532 0.029772 -2.31852e-21)
(1.0451 0.0294835 3.93643e-21)
(1.04552 0.0294196 -6.19068e-23)
(1.01195 0.0187452 1.7334e-21)
(1.01208 0.0192952 5.6958e-22)
(1.01147 0.0190273 -7.58695e-21)
(0.836551 -0.0684495 -2.3908e-20)
(0.831179 -0.0619387 1.03103e-20)
(0.992102 0.115957 5.46112e-21)
(0.987233 0.115391 -1.21659e-20)
(0.991095 0.111371 -4.23544e-21)
(-0.100096 -0.0168286 -1.9236e-20)
(-0.121093 -0.013696 -1.57655e-20)
(-0.0778876 -0.0178036 1.17799e-21)
(1.04654 0.0251507 2.12824e-22)
(1.04658 0.0253917 2.01859e-21)
(1.04634 0.025321 3.18025e-21)
(0.987768 0.0316284 2.14838e-21)
(0.987136 0.0327197 -3.99879e-21)
(0.986293 0.0314909 -9.86377e-21)
(1.05804 0.0177311 0)
(1.05963 0.0174774 6.84566e-22)
(1.04891 0.0174692 -1.10515e-21)
(0.96672 0.132396 4.60265e-21)
(0.964104 0.135985 0)
(0.970026 0.136182 -8.41904e-21)
(0.560947 0.00793931 1.32961e-21)
(0.582377 0.00780987 -9.07215e-22)
(0.1504 -0.0304381 1.07371e-19)
(0.151686 0.00611348 6.25896e-20)
(1.06547 0.0154781 -2.01146e-21)
(1.05893 0.0147306 -2.66924e-21)
(0.998304 0.0145052 0)
(0.99842 0.0150541 0)
(0.997801 0.0148137 0)
(1.07409 0.0822466 1.34109e-20)
(1.07172 0.0802742 -1.49001e-21)
(1.03814 0.0778501 -1.88994e-21)
(1.03738 0.0752796 1.95291e-22)
(1.01198 0.0129448 0)
(1.01179 0.012437 -3.75217e-21)
(0.999607 0.000796086 0)
(0.999584 0.000940182 0)
(0.912748 0.0619433 -1.04367e-20)
(0.910007 0.0580305 1.01975e-20)
(0.915429 0.0585667 -1.2319e-20)
(0.879288 0.0203186 1.16033e-22)
(0.879224 0.0198915 2.4614e-21)
(1.11444 0.0767474 -1.79377e-20)
(1.1174 0.0742297 -4.45255e-22)
(1.11951 0.0780793 1.11178e-20)
(0.288042 0.0791525 0)
(0.463019 0.118378 -1.2694e-20)
(1.03955 0.0437969 0)
(1.03925 0.0447331 4.58112e-22)
(1.04026 0.0444432 0)
(1.04575 0.0267727 -2.66957e-21)
(1.04589 0.0267869 -6.16854e-21)
(1.04579 0.0269319 -5.0571e-21)
(1.04278 0.0259389 1.5982e-21)
(1.04317 0.0260611 0)
(1.0432 0.0257939 -1.03211e-21)
(0.354169 0.0225535 2.22224e-20)
(0.31149 0.0216358 -5.40392e-20)
(1.12071 0.10536 -1.01349e-20)
(1.11957 0.100871 -2.17581e-20)
(1.12449 0.102007 -4.23982e-21)
(0.997696 0.000376999 0)
(0.997973 0.000421147 4.08794e-21)
(0.99782 0.000126383 0)
(0.566281 -0.0311048 0)
(0.570797 -0.0112809 -1.69984e-20)
(0.546753 -0.0185824 0)
(0.792473 -0.0341159 5.09833e-20)
(0.790625 -0.0233041 -1.78114e-20)
(1.00557 0.000295549 -1.05507e-21)
(1.00529 0.000286923 -3.47416e-21)
(1.00535 0.0174206 -2.70656e-21)
(1.00594 0.0178527 3.5712e-21)
(0.841235 0.352142 9.59947e-21)
(0.836137 0.328309 -5.27137e-21)
(0.86002 0.335181 -5.85441e-21)
(1.12159 0.33916 5.25051e-20)
(1.12477 0.326929 -1.70471e-21)
(1.18426 0.360367 2.6374e-20)
(1.03436 0.0251364 2.26046e-22)
(1.03482 0.0251828 -1.16813e-22)
(1.03456 0.0255722 1.7141e-22)
(1.00138 0.000442455 -1.29568e-21)
(1.00138 0.000279089 -1.86202e-21)
(1.04435 0.0290924 0)
(1.04408 0.0292953 0)
(1.04448 0.0294452 -2.61297e-21)
(1.0438 0.0278307 0)
(1.04359 0.0281125 0)
(0.249509 -0.00689518 -1.05275e-21)
(0.239931 -0.00719507 1.44158e-21)
(1.06087 0.012558 0)
(1.05971 0.0130011 -5.99014e-21)
(1.05993 0.0136811 -3.77465e-21)
(0.988274 -0.00567138 4.89678e-23)
(0.987864 -0.00632893 4.04109e-21)
(0.982435 0.0087763 0)
(0.982903 0.009857 -8.19946e-21)
(1.04711 0.0316889 5.85011e-21)
(1.04728 0.0312198 2.1523e-21)
(0.885573 0.0177786 1.4537e-24)
(0.932706 0.0220793 -3.83432e-22)
(0.922723 0.0212714 9.23093e-22)
(0.958417 -0.0114497 1.87388e-20)
(0.957456 -0.00967937 2.25143e-20)
(0.822756 0.0144514 2.0771e-21)
(0.81687 0.0133554 -1.33789e-21)
(0.866851 0.01681 2.85486e-22)
(0.178998 -0.00187261 2.45632e-21)
(0.210662 -0.00409209 1.16159e-22)
(0.188712 -0.0010627 1.41869e-21)
(1.04565 0.0266249 1.23547e-21)
(1.04555 0.026823 2.48339e-21)
(1.00631 0.00901181 3.95841e-21)
(1.00635 0.0094516 3.63324e-21)
(0.486505 0.288052 7.89367e-21)
(0.505652 0.321788 -8.73535e-20)
(0.453316 0.321596 -5.89701e-21)
(1.04551 0.0315888 0)
(1.04605 0.0316292 0)
(1.04573 0.0320777 3.10866e-21)
(0.00119794 -0.0148821 4.74845e-21)
(0.0394954 -0.0196342 -9.12169e-21)
(0.0210218 -0.0152404 -2.4047e-20)
(0.995419 0.00617995 0)
(0.99554 0.00662035 3.70793e-21)
(0.995113 0.00651436 5.06821e-21)
(1.23072 0.0866659 1.08902e-20)
(1.23089 0.0916551 2.35852e-20)
(0.998177 0.0138032 0)
(0.998812 0.0141092 0)
(1.06912 0.0526221 -1.42894e-20)
(1.06723 0.0520434 5.10354e-21)
(1.06774 0.0538961 0)
(1.00432 0.000768767 -3.02868e-22)
(1.0042 0.00052136 7.82869e-21)
(0.485342 -0.000142336 -5.07591e-22)
(0.453542 -0.00174754 -2.06396e-22)
(0.474512 -0.00050355 -1.75664e-21)
(0.985773 0.000638475 1.34159e-21)
(0.981773 -0.000392325 -3.1942e-21)
(1.02686 0.00358207 1.12167e-22)
(0.964045 0.0539639 -5.29783e-21)
(0.967061 0.0538579 4.04699e-21)
(1.10334 0.350128 9.77934e-21)
(1.11094 0.340579 3.75408e-20)
(1.11105 0.333726 -5.51681e-21)
(1.02331 0.0501113 -4.62825e-22)
(1.02309 0.0486274 -1.91094e-21)
(1.0059 0.00872469 2.36022e-21)
(1.00617 0.00845859 0)
(1.04416 0.0284945 -3.1153e-21)
(1.044 0.0287695 -2.02583e-21)
(1.04673 0.0249832 1.59291e-21)
(1.0465 0.0249034 1.37572e-21)
(1.03889 0.0431583 0)
(1.03979 0.0429098 1.4367e-21)
(1.00581 0.023812 -1.80651e-21)
(0.975047 0.0207545 9.10115e-22)
(1.0159 0.0259755 7.70149e-22)
(0.167012 -0.000780582 9.51215e-22)
(0.144395 0.00330127 -9.07006e-22)
(1.00682 0.0024748 -3.30372e-21)
(1.00712 0.00257712 4.32686e-21)
(1.00702 0.00221665 -1.8433e-21)
(1.0111 0.0616236 -5.81515e-22)
(1.01018 0.0637023 -1.75101e-21)
(0.428441 -0.0102345 -2.95854e-21)
(0.444065 -0.00960715 1.45186e-21)
(0.0437443 0.0208355 -2.96273e-20)
(-0.0160459 0.0150703 2.09191e-20)
(0.0334002 0.0176929 -1.39823e-20)
(0.999771 -3.99244e-05 0)
(0.999714 2.34759e-06 3.23185e-21)
(1.00153 0.00443091 -3.5185e-21)
(1.00168 0.00465774 -7.14512e-21)
(1.00148 0.00465298 -7.89363e-21)
(0.520221 0.0181914 -1.04886e-20)
(0.539019 0.016955 -1.07769e-20)
(1.04511 0.0254804 -1.68886e-21)
(1.04495 0.0255971 -3.03809e-21)
(1.04489 0.0253656 2.96161e-21)
(1.00002 5.51222e-05 0)
(1.00001 4.21718e-05 0)
(1.00002 6.90087e-05 0)
(1.04445 0.0287442 7.2012e-22)
(1.04463 0.0288699 -4.26796e-21)
(1.04409 0.0285803 1.59295e-21)
(1.05755 0.033514 -3.93848e-21)
(1.05682 0.0327501 -1.77929e-21)
(1.05638 0.033903 -4.24598e-21)
(0.798699 -0.0936713 3.92892e-20)
(0.794687 -0.104028 7.84808e-20)
(1.02395 0.0740656 -5.02326e-22)
(1.02549 0.0762373 2.37868e-22)
(1.02609 0.0733645 9.84459e-23)
(0.999753 0.000154411 0)
(0.999832 0.000159204 0)
(0.939607 0.140043 1.16691e-20)
(0.941307 0.132578 1.26472e-20)
(0.93337 0.13544 -4.66964e-22)
(0.218032 -0.00113518 -8.12013e-22)
(0.220631 -0.000279856 -1.81735e-21)
(0.185249 0.00179291 -2.07806e-21)
(1.02349 0.0160734 -7.75454e-22)
(1.0239 0.0160525 -1.06634e-21)
(1.02386 0.0164402 -1.7229e-22)
(1.08516 0.0892726 -5.15109e-21)
(1.08248 0.0919202 5.52167e-22)
(1.08173 0.0873218 0)
(0.564474 0.073003 1.85792e-20)
(0.578475 0.0933392 -2.95675e-20)
(0.549608 0.0968176 -8.86971e-20)
(1.01034 0.0219156 -4.90436e-22)
(1.01091 0.0221985 -3.09551e-21)
(0.9847 0.00742482 -5.31041e-22)
(0.983697 0.00718005 -7.97298e-21)
(1.04421 0.0262269 2.99229e-21)
(1.04432 0.0263058 -3.79626e-21)
(1.04432 0.0261536 8.46884e-22)
(0.560436 0.0150286 -2.32616e-21)
(0.543287 0.0152287 -2.37167e-22)
(0.543829 0.0151024 0)
(1.04447 0.026324 -3.25174e-22)
(1.04444 0.0264103 1.99596e-22)
(0.914663 0.0660182 0)
(0.909855 0.0659897 1.09731e-20)
(0.950229 0.0518654 -3.809e-23)
(0.94744 0.054274 1.08808e-20)
(1.00002 0.000117014 4.73709e-21)
(1.00002 0.000102374 4.78354e-21)
(1.00001 6.90852e-05 4.51341e-21)
(0.403121 0.0133041 0)
(0.410148 0.0129976 5.20513e-22)
(1.10923 -0.00303798 1.40595e-20)
(1.10346 -0.000142511 3.83334e-21)
(1.10736 -0.00101824 1.39993e-20)
(1.04683 0.0298102 -2.68621e-21)
(1.04657 0.0297955 2.09723e-22)
(1.04661 0.0300117 -3.55029e-21)
(1.00559 0.008524 4.84269e-21)
(1.0057 0.00899327 4.41582e-21)
(0.190616 -0.0122814 -3.78196e-21)
(0.228281 -0.0160456 -3.98587e-21)
(0.21126 -0.0151694 1.03858e-22)
(0.349009 0.00789256 6.69129e-22)
(0.352097 0.00896125 -9.16955e-23)
(0.318945 0.00926987 2.24149e-21)
(1.03322 0.0226113 0)
(1.03419 0.0230257 -2.35388e-21)
(0.771365 0.0161225 1.94185e-21)
(0.744193 0.0131157 0)
(1.0473 0.0238238 0)
(1.04758 0.0235855 7.4068e-22)
(0.999659 0.000143539 0)
(1.00312 0.000430952 1.43291e-21)
(1.00292 0.000456501 2.09002e-21)
(1.00313 0.000676799 4.3998e-21)
(1.04726 0.0361989 -1.51375e-21)
(1.04658 0.0361373 6.30183e-21)
(1.04703 0.0355278 3.25969e-21)
(0.413303 -0.000224677 -2.93132e-22)
(0.38871 0.00121706 -1.10162e-21)
(0.384473 0.000495612 -4.70757e-22)
(1.05025 0.0262753 -1.53982e-21)
(1.05077 0.0263769 5.13881e-22)
(1.05046 0.0257336 -1.37665e-21)
(1.02138 0.0384783 -1.83167e-21)
(1.02243 0.0383052 7.87977e-22)
(1.06172 0.0119927 -4.45314e-21)
(1.05939 0.0108283 -4.66005e-21)
(1.04324 0.0213409 3.00809e-22)
(1.043 0.0211405 -9.85773e-22)
(1.01322 0.00173591 -3.36821e-21)
(1.01306 0.00209012 9.2189e-22)
(1.01348 0.00202717 4.79172e-21)
(1.11731 0.0167657 3.48314e-21)
(1.11386 0.0151613 2.28627e-20)
(1.13769 0.014951 1.316e-20)
(1.0004 0.0019253 1.01544e-22)
(1.00044 0.00186787 6.23615e-21)
(1.00037 0.00177724 -5.84439e-21)
(1.05809 0.0180331 1.7205e-21)
(1.05984 0.0179788 -3.16322e-21)
(1.03385 0.0251164 3.12718e-23)
(1.0341 0.0247387 5.18006e-23)
(1.00003 4.2818e-05 7.46354e-21)
(1.00004 6.75789e-05 0)
(0.966119 0.0648778 6.26126e-21)
(0.964595 0.0680863 2.19598e-21)
(0.963165 0.0645941 -5.61852e-21)
(0.971951 0.123638 3.90692e-21)
(0.968901 0.119451 7.06558e-21)
(0.777049 -0.0772422 -2.2781e-20)
(0.787468 -0.075561 6.98831e-20)
(1.04475 0.0289695 0)
(1.04434 0.028673 0)
(0.95933 0.0894951 -2.41097e-20)
(0.958851 0.0940871 -2.14649e-20)
(0.9547 0.0905768 5.38262e-21)
(1.02182 0.0187755 -4.95111e-21)
(1.02174 0.0192587 -2.70826e-21)
(1.02138 0.0187889 -8.23184e-22)
(1.08106 0.0200043 -1.3128e-20)
(1.08319 0.0208397 -3.3235e-21)
(1.08353 0.0188328 5.68496e-22)
(1.02519 0.0253658 -2.33278e-21)
(0.994697 0.0225542 -8.00454e-22)
(1.09227 -0.00782359 2.94652e-21)
(1.09822 -0.00665781 3.78673e-21)
(0.995217 0.00579571 0)
(0.995719 0.00591039 0)
(1.03319 0.0212688 0)
(1.03542 0.0213838 2.06033e-21)
(1.03295 0.0207702 2.40271e-21)
(0.998347 -0.00658569 1.80909e-21)
(0.99822 -0.00643632 3.19949e-21)
(0.998102 -0.00716271 -1.4535e-21)
(1.02202 0.0183745 1.10615e-21)
(1.02233 0.0188084 4.84442e-22)
(0.996395 0.00288705 5.08259e-21)
(0.996547 0.00326275 0)
(0.820661 0.504614 1.72468e-20)
(0.777414 0.513939 1.58823e-20)
(1.00067 0.000420957 -5.84354e-21)
(1.00074 0.000370725 5.59065e-21)
(1.00063 0.000328784 -7.47253e-21)
(1.07094 0.0530903 -7.32303e-21)
(1.07039 0.0512955 -1.46305e-20)
(1.02181 0.0752505 -2.25248e-22)
(1.02231 0.0724429 -5.58264e-22)
(1.01182 0.0181138 3.1527e-22)
(1.01241 0.0183893 6.31726e-21)
(1.04458 0.028882 1.85581e-21)
(1.04416 0.0288851 0)
(1.00191 0.0389186 -1.52045e-21)
(1.00297 0.0381044 6.0026e-21)
(1.00323 0.0395146 4.95252e-21)
(0.119749 -0.0547442 -1.13612e-19)
(0.104862 -0.076744 -8.30528e-21)
(0.106782 -0.0442072 3.24534e-20)
(0.969807 0.128561 3.78165e-21)
(0.964258 0.128566 1.28207e-20)
(1.06595 0.0823555 -7.56905e-21)
(1.06491 0.0860208 2.13602e-22)
(1.01364 0.015121 1.98131e-21)
(1.01375 0.0156374 0)
(1.01415 0.0152876 0)
(0.985681 0.0076334 1.54571e-20)
(0.985269 0.00671155 7.75465e-21)
(0.118945 -0.0311581 1.53795e-20)
(0.0805015 -0.0294094 7.04751e-21)
(0.0675877 -0.0304178 -2.73201e-20)
(0.416189 0.0108627 9.45754e-22)
(0.408047 0.0118859 2.24919e-22)
(0.4351 0.00953284 1.37492e-21)
(0.99554 0.00372324 -1.1682e-21)
(0.995943 0.00382947 4.77512e-21)
(1.00353 0.000415711 -1.31243e-21)
(1.00378 0.000565329 -1.05651e-20)
(1.00352 0.000724495 -3.32424e-21)
(1.12131 0.0181373 -5.61657e-21)
(1.11139 0.0195043 -1.37784e-20)
(1.00093 0.0149101 -1.534e-21)
(1.00067 0.0154779 0)
(1.00135 0.0155282 -6.7566e-21)
(0.344377 -0.0138855 2.62229e-21)
(0.317759 -0.011888 1.49513e-22)
(1.01347 0.0146742 2.09073e-21)
(1.01309 0.0149785 -5.71851e-21)
(0.49476 -0.000179138 2.1434e-21)
(0.516868 0.00102487 2.44648e-21)
(1.02901 0.0170619 0)
(1.02917 0.0167991 0)
(1.0294 0.0171735 -2.4394e-23)
(1.11788 0.213247 -1.74345e-20)
(1.10854 0.213601 -6.73197e-21)
(1.11363 0.22317 9.15716e-21)
(1.03898 0.0309412 7.7791e-23)
(1.03869 0.031343 -6.42771e-22)
(1.03928 0.0314093 0)
(0.0900664 0.190229 1.35919e-20)
(0.0911997 0.150743 6.08628e-20)
(0.124516 0.170278 1.48549e-19)
(0.933127 0.00338133 -5.07119e-21)
(0.933461 0.000327308 -1.27444e-20)
(1.08499 0.0147743 -9.67222e-21)
(1.08696 0.0136738 1.55824e-21)
(0.511064 0.199193 0)
(0.484122 0.208484 -1.72208e-20)
(0.511071 0.231332 0)
(0.969082 0.0657347 1.64525e-20)
(0.968027 0.0628388 -4.58236e-21)
(1.04529 0.0255522 8.63423e-22)
(1.04525 0.0252906 -3.16246e-21)
(0.91698 0.389442 -8.46834e-21)
(0.932266 0.403891 -4.13361e-21)
(0.906706 0.410333 7.1484e-22)
(0.97957 0.0187961 0)
(0.978524 0.0179143 0)
(0.978214 0.0193569 0)
(0.522622 0.00567587 -2.3334e-22)
(0.493465 0.0063362 -9.35615e-22)
(0.502608 0.00614212 -1.97659e-21)
(0.581428 -0.0414042 -7.32504e-20)
(0.561035 -0.051527 0)
(0.370974 0.00800397 -1.08659e-22)
(0.348957 0.00854807 -7.04473e-22)
(0.917804 -0.0269715 5.57769e-21)
(0.914106 -0.026606 -1.34392e-20)
(0.916343 -0.0232898 6.44575e-21)
(0.466462 0.0135791 1.43128e-21)
(0.430981 0.0131979 -3.36287e-21)
(0.46762 0.0136785 -2.43167e-21)
(1.01295 0.0614657 1.17893e-21)
(1.01389 0.0635887 0)
(1.01488 0.0616545 0)
(0.232544 -0.0237178 5.28635e-21)
(0.308619 -0.0231643 -3.61858e-20)
(0.341305 -0.0239502 -8.14713e-22)
(0.51805 0.169717 4.50653e-20)
(0.542151 0.192739 0)
(0.89291 0.254157 2.55683e-20)
(0.878541 0.252572 -2.50592e-21)
(0.886714 0.267372 1.54597e-20)
(0.90849 0.258399 -3.14082e-21)
(0.901239 0.242982 6.1878e-21)
(0.880911 0.0149605 -1.94268e-21)
(0.857793 0.0126329 -1.6532e-21)
(0.999515 -0.000922618 7.55118e-21)
(0.999364 -0.00110227 -3.29839e-22)
(0.999412 -0.000925264 1.40013e-20)
(0.996908 0.115362 5.54709e-21)
(0.994556 0.120143 -1.30304e-21)
(0.234098 -0.036168 0)
(0.204189 -0.036059 -1.88115e-20)
(0.973198 0.00339397 5.01966e-21)
(0.971922 0.00370825 4.46931e-21)
(0.972158 0.00222024 -1.7552e-21)
(0.974554 0.0408805 3.4948e-21)
(0.975833 0.0394497 2.56024e-20)
(0.973629 0.0390748 1.10471e-20)
(0.366111 0.00889698 5.94027e-22)
(0.372726 0.00893972 -1.00961e-21)
(0.820783 0.369573 0)
(0.849953 0.375156 -1.84093e-20)
(0.991424 0.0305545 1.51126e-21)
(0.990714 0.0314971 -7.66122e-21)
(0.992188 0.0318112 3.46161e-21)
(1.04229 0.0257403 2.60579e-21)
(1.04231 0.0260118 3.43069e-21)
(0.670745 0.442347 -1.16666e-20)
(0.694938 0.415189 -3.10484e-20)
(1.0043 0.00327058 2.0274e-21)
(1.00453 0.00349298 -1.14519e-21)
(1.00457 0.00319879 1.07439e-20)
(0.438314 0.014444 -1.40347e-21)
(0.408791 0.0153388 -3.64333e-21)
(1.0434 0.0273883 2.62952e-21)
(1.04312 0.027528 1.78308e-21)
(1.04352 0.0275619 1.67073e-22)
(1.00035 0.00197719 -5.9182e-21)
(1.00042 0.00208485 -3.55322e-21)
(1.00234 0.00736693 4.08913e-21)
(1.00217 0.00704614 -3.51947e-21)
(1.00205 0.00737126 0)
(0.998403 -0.0069173 1.5198e-22)
(0.998628 -0.00609012 -5.57135e-21)
(1.01211 0.0114923 -3.1789e-21)
(1.01193 0.0110042 3.21519e-22)
(1.07979 0.0213797 -4.47312e-21)
(1.07908 0.0193978 -3.61113e-21)
(1.06509 0.0158398 2.2581e-21)
(1.06299 0.0162064 1.27559e-21)
(1.05551 0.0155702 6.823e-21)
(0.399525 -0.352398 0)