/*--------------------------------*- C++ -*----------------------------------*\
| =========                 |                                                 |
| \\      /  F ield         | OpenFOAM: The Open Source CFD Toolbox           |
|  \\    /   O peration     | Version:  v2012                                 |
|   \\  /    A nd           | Website:  www.openfoam.com                      |
|    \\/     M anipulation  |                                                 |
\*---------------------------------------------------------------------------*/
FoamFile
{
    version     2.0;
    format      ascii;
    class       surfaceVectorField;
    location    "550";
    object      ddtCorrDdt0(Uf);
}
// * * * * * * * * * * * * * * * * * * * * * * * * * * * * * * * * * * * * * //

dimensions      [0 1 -2 0 0 0 0];


internalField   nonuniform List<vector> 
20673
(
(-0.0020091 0.0016533 4.279e-19)
(-0.00203991 0.00174861 -1.07369e-17)
(-0.00192984 0.00171326 1.27429e-17)
(-0.000194303 0.000653248 2.93204e-19)
(-0.000191399 0.000625409 -3.42026e-18)
(-0.000213075 0.000640291 -8.98738e-19)
(-0.010483 0.00594323 2.26563e-17)
(-0.0116344 0.00617747 -1.90944e-17)
(-0.0129283 0.00663497 -1.21925e-17)
(0.00251766 0.00126325 -2.27431e-18)
(0.00243556 0.00130203 -9.2411e-18)
(0.00243384 0.00122308 5.95447e-18)
(-1.66376e-05 -0.000106255 1.25028e-18)
(-1.41263e-05 -0.000107328 -1.96035e-18)
(-1.74184e-05 -0.000105357 1.5688e-18)
(-0.000494301 -0.00327014 -3.94045e-17)
(-0.000435661 -0.00332516 -6.60245e-17)
(-0.000546092 -0.00340726 5.52026e-18)
(-0.0101404 0.00629182 6.40682e-18)
(-0.00966394 0.00621559 -4.76362e-19)
(-0.0120925 0.00683536 -1.12096e-17)
(-0.011305 0.00531735 -1.25201e-17)
(-0.00947879 0.00480419 -2.89182e-18)
(-0.00986066 0.00496449 2.35823e-17)
(-0.00192926 0.00030175 -6.02935e-18)
(-0.00133202 0.000136964 -1.8542e-17)
(-0.000733416 -9.71483e-06 -1.92913e-17)
(-0.00299086 0.00182478 -1.93151e-18)
(-0.00310364 0.00188689 5.29392e-18)
(-0.00311087 0.00176201 1.92955e-17)
(0.00959076 0.0120698 -4.71279e-19)
(0.0100266 0.0121568 -5.46778e-18)
(0.00667342 0.0127984 4.28772e-18)
(0.00725125 0.00653356 1.16733e-18)
(0.00743819 0.0068044 1.76778e-17)
(0.00700951 0.00671788 -1.7617e-17)
(0.00258352 0.00132506 7.7029e-18)
(0.00890908 -0.00105846 2.12182e-17)
(0.0100353 -0.00109376 4.27797e-17)
(0.00895561 -0.001051 4.01354e-17)
(-0.000808157 0.000151434 1.12345e-18)
(-0.000794446 0.000114436 -6.10425e-18)
(-0.000764471 0.000140641 1.4425e-18)
(-0.000803037 0.000394142 8.97679e-19)
(-0.000772187 0.000364819 -3.30123e-19)
(-0.000766285 0.000411208 -6.59976e-19)
(-0.000295495 0.000562549 2.36495e-18)
(-0.000286079 0.000584333 2.24745e-19)
(-0.000276294 0.000555358 -3.49936e-19)
(-0.000959332 0.00530504 6.57033e-18)
(-0.00107226 0.00522938 4.61053e-17)
(-0.00108264 0.00543152 -4.43505e-17)
(0.00751565 0.00632156 -6.50681e-18)
(0.00709989 0.00625888 -5.01467e-18)
(-1.8839e-05 -9.28369e-06 1.24999e-20)
(-1.81298e-05 -8.42407e-06 1.52788e-19)
(-1.74904e-05 -1.2497e-05 7.89086e-20)
(-1.38707e-06 -2.60694e-05 5.79325e-19)
(-1.4276e-06 -3.32033e-05 -1.12908e-20)
(-1.52961e-06 -2.59499e-05 -1.42937e-18)
(-0.0103135 0.00644149 -3.40822e-17)
(-0.00868085 0.00594364 1.01696e-17)
(-3.31866e-05 -2.69427e-05 3.00967e-20)
(-3.54303e-05 -2.30353e-05 -1.04356e-19)
(-3.45003e-05 -2.03141e-05 -6.48809e-20)
(-0.0130231 0.00609437 -3.06966e-18)
(-0.0130837 0.00591502 1.72125e-17)
(-9.00465e-05 -1.33862e-06 2.09849e-19)
(-8.60397e-05 -3.33348e-06 -5.86185e-20)
(-9.16324e-05 4.12393e-06 -2.37727e-18)
(-0.0155705 0.00819689 2.4217e-18)
(-0.013814 0.0076716 -7.97031e-18)
(-0.013337 0.0076335 -3.57009e-18)
(-0.000313338 -0.00101825 -1.30756e-17)
(-0.000339079 -0.00107111 -1.14047e-19)
(-0.000286796 -0.00105556 8.89769e-18)
(-0.000706927 -0.00125813 1.74471e-17)
(-0.000757351 -0.0012765 9.21899e-18)
(-0.000716228 -0.00132699 -8.07865e-18)
(-0.00253053 -0.00288934 -9.7943e-19)
(-0.0026018 -0.00282127 -3.98251e-19)
(-0.0027079 -0.00298082 3.70101e-19)
(-0.00384774 0.00366799 -1.2737e-17)
(-0.00380665 0.00379024 -1.96397e-17)
(-0.00396087 0.003821 1.2107e-17)
(-0.00212133 0.00212797 2.62696e-18)
(-0.00210702 0.00202407 4.78162e-18)
(-0.00202024 0.0020783 -5.25574e-19)
(-0.00108768 0.00143968 -5.78644e-18)
(-0.00107681 0.00137841 9.44438e-18)
(-0.00102872 0.00142002 1.24951e-17)
(-0.000485867 -0.000735685 1.78404e-18)
(-0.000501448 -0.000779076 4.15732e-18)
(-0.000449234 -0.000768208 -3.0369e-17)
(-7.94077e-05 -0.000334912 1.26916e-17)
(-5.15788e-05 -0.000336691 -5.63507e-18)
(-6.57505e-05 -0.000315594 -6.06698e-18)
(-7.31207e-05 -3.39619e-05 -1.30798e-18)
(-7.84435e-05 -2.88512e-05 -2.54379e-19)
(-7.83639e-05 -2.58959e-05 -2.60556e-19)
(-0.031274 0.0157024 4.55655e-18)
(-0.0310591 0.0154992 -9.65873e-18)
(-0.0314664 0.0151274 -4.47561e-18)
(-3.08797e-05 -3.27696e-05 4.43194e-20)
(-3.07894e-05 -2.93166e-05 -5.63588e-20)
(0.00578996 0.000233566 3.06875e-17)
(0.00656799 2.82836e-05 -1.08354e-17)
(0.00619768 0.000148741 3.60647e-17)
(0.00309517 0.00169126 6.13952e-18)
(0.00321769 0.00174059 -2.7461e-17)
(-0.0165561 0.00229879 1.96772e-18)
(-0.0170598 0.00170308 -1.75426e-17)
(-0.0170336 0.00220608 -1.49532e-18)
(5.4246e-05 1.52936e-05 2.87066e-19)
(6.0442e-05 1.60275e-05 -7.76979e-19)
(4.95714e-05 9.15297e-06 -1.20603e-18)
(-3.32114e-07 -1.63928e-05 -6.3546e-19)
(-1.7435e-08 -8.42717e-06 8.45537e-19)
(1.44771e-07 -8.39626e-06 -4.83372e-19)
(0.0004259 0.000177068 -2.73493e-18)
(0.000408379 0.000175643 1.92073e-18)
(0.000413462 0.000163318 -5.15569e-19)
(-0.00101131 -0.00171948 3.10676e-18)
(-0.00105811 -0.0016569 1.34542e-17)
(-0.00110862 -0.00178157 -4.6409e-17)
(0.000287199 0.000967285 2.51252e-18)
(0.000280257 0.00100264 -2.32761e-18)
(0.00030921 0.00100204 1.68876e-18)
(-0.000171102 -0.000442768 -7.96371e-19)
(-0.000139001 -0.00045127 -8.14309e-18)
(-0.000148328 -0.000424295 -2.8314e-18)
(-0.000857519 0.00542221 2.32309e-17)
(-0.000842184 0.00523169 1.44918e-17)
(-0.000150673 0.00742173 -1.62165e-17)
(-0.000141424 0.00721166 2.31156e-17)
(3.01285e-05 0.00734609 5.20754e-18)
(-0.00085138 -0.00501291 1.98156e-17)
(-0.000915813 -0.0049849 -1.66425e-17)
(-0.000824478 -0.00478052 2.60419e-17)
(-4.36594e-06 4.19406e-06 -1.1731e-18)
(-2.80934e-06 4.28463e-06 2.4666e-18)
(-3.02038e-06 6.51773e-06 -1.36866e-18)
(0.000885278 0.00301293 -5.40884e-18)
(0.000814125 0.00304421 2.11717e-18)
(0.000899695 0.00309233 -3.75324e-18)
(-9.00102e-05 -7.56003e-05 -2.98381e-18)
(-8.08606e-05 -8.09443e-05 -4.14581e-19)
(-9.64845e-05 -7.99299e-05 1.09466e-17)
(-0.000725282 -0.00503509 -3.6969e-17)
(-0.000848992 -0.00563284 -8.38741e-17)
(-0.000100544 -0.000364822 1.55305e-17)
(-6.23306e-05 -0.000365392 1.25708e-17)
(-0.000316375 0.00056488 1.58856e-18)
(-0.000303542 0.000539229 1.65055e-18)
(-5.23772e-05 0.00260923 3.34825e-18)
(-0.0001084 0.00254981 4.73987e-18)
(-0.000130053 0.00264982 -1.44252e-17)
(0.0093478 0.0121186 1.92777e-17)
(0.00692354 0.01218 1.91526e-17)
(-0.000191503 0.00016369 3.99885e-20)
(-0.000182353 0.000151174 -4.7947e-19)
(-0.000186875 0.000167874 6.48175e-19)
(-0.000133076 0.00201723 1.81736e-17)
(-0.000174057 0.0020744 -2.26577e-18)
(-0.000200744 0.0019931 3.49161e-17)
(0.000264918 0.00093291 7.21018e-18)
(0.000289928 0.000933151 3.16556e-18)
(-0.000125999 -0.00130392 3.27462e-17)
(-1.88254e-05 -0.00155309 -2.81221e-17)
(-0.000110126 -0.00150763 6.32909e-18)
(-0.000179918 0.000672791 3.38601e-18)
(-0.000204161 0.000686902 4.41746e-19)
(0.00883941 -0.00109965 -1.51377e-17)
(-1.94947e-05 -9.63288e-06 3.50719e-19)
(-1.99434e-05 -5.55137e-06 1.66421e-18)
(-0.000602037 -0.00324376 2.96494e-17)
(-0.000504934 -0.00310435 -1.01325e-17)
(0.00097033 -1.06205e-05 6.43607e-17)
(0.00124996 0.000384199 -9.88211e-19)
(0.00158881 -8.1499e-05 -2.14518e-17)
(2.7731e-06 -0.000112522 4.25519e-19)
(1.59418e-06 -0.000110338 -2.02819e-19)
(3.85863e-07 -7.83681e-05 8.0247e-19)
(3.42015e-06 -8.12919e-05 -1.00809e-19)
(0.00209582 0.00950557 2.30075e-17)
(0.00315198 0.0122323 -4.81784e-17)
(-0.000493623 0.0113229 -3.4886e-17)
(-0.00171995 0.00105847 1.21798e-17)
(-0.00178848 0.0011303 -1.31645e-17)
(-0.00182406 0.00100205 -3.25827e-19)
(-1.55149e-05 -0.000107675 1.54629e-18)
(-1.81234e-05 -0.000104739 -2.40496e-18)
(-0.0031027 0.000650055 3.42916e-17)
(-0.00252837 0.000400473 -3.09894e-17)
(0.00899336 -0.00158888 -2.86015e-18)
(0.00835562 -0.0015279 -4.31397e-18)
(0.00843132 -0.00155634 -1.24517e-17)
(-9.46157e-05 1.70963e-05 -6.72875e-19)
(-7.35919e-05 2.64516e-06 4.65611e-19)
(-0.00102422 -0.00496985 -2.1422e-17)
(-0.00103172 -0.00468635 -7.38785e-19)
(-0.00115317 -0.00492429 8.42198e-18)
(0.00996615 0.00559852 -9.45892e-18)
(0.00978831 0.00532174 -7.40188e-18)
(0.00956061 0.00559291 5.86094e-18)
(0.0110816 -0.00156365 1.14228e-17)
(0.0102471 -0.0014207 2.27439e-17)
(0.0108591 -0.00156017 1.43288e-17)
(0.000399368 0.00149188 1.41481e-18)
(0.00038963 0.00153674 3.44937e-18)
(0.00034811 0.0014945 4.00681e-18)
(-0.0179213 0.0085486 5.56156e-18)
(-0.0173711 0.00862164 -1.0463e-17)
(-0.0197554 0.00925209 -1.61779e-17)
(-3.54968e-06 -4.31125e-05 -5.98255e-19)
(-4.06403e-06 -4.92353e-05 -1.00513e-18)
(-4.36363e-06 -4.82459e-05 -2.85455e-19)
(-7.87401e-06 -4.62252e-05 -4.36725e-19)
(-9.76007e-06 -4.71941e-05 2.40182e-20)
(-7.7531e-06 -4.35347e-05 -5.31888e-21)
(1.39333e-06 -0.000114173 1.75289e-18)
(-0.000674666 -0.00320375 3.95128e-17)
(-0.000776518 -0.00317579 2.71095e-17)
(-0.000689913 -0.00303775 6.38115e-17)
(0.00486561 0.000503058 -3.15386e-18)
(0.00524673 0.000360555 -7.29259e-18)
(0.00130659 -0.00190263 -4.2248e-17)
(0.00167796 -0.00191273 4.46058e-17)
(0.00162416 -0.00192747 -2.36523e-17)
(0.00040608 0.00143792 -7.69625e-18)
(0.000446943 0.00147965 -3.23898e-18)
(-1.3777e-05 -4.16057e-05 -6.25221e-21)
(-1.39677e-05 -3.94927e-05 3.58201e-20)
(-1.19048e-05 -4.03175e-05 -2.46233e-20)
(0.0001452 0.000291368 -1.23618e-18)
(-0.000697297 -0.000502205 3.64317e-17)
(0.000970135 0.00295193 1.85766e-18)
(0.000866536 0.00290187 1.00434e-17)
(0.000440924 0.00017964 -4.79815e-18)
(0.000435658 0.000191894 5.05194e-18)
(0.00770396 -0.00118668 -2.64851e-17)
(0.00846292 -0.00125756 9.4801e-18)
(0.00822593 -0.00121488 -1.84702e-17)
(-0.00370611 0.00268008 -2.9834e-17)
(-0.00357841 0.00257399 9.84549e-18)
(-0.003695 0.00251725 1.64783e-17)
(7.2051e-05 0.000564848 -3.38047e-19)
(8.99478e-05 0.000568016 -1.84037e-18)
(7.69605e-05 0.000543926 1.41316e-18)
(-0.000405653 0.000110157 -1.60091e-18)
(-0.000417105 9.96878e-05 -9.45564e-19)
(-0.000425879 0.000123974 -1.53307e-19)
(-0.000917993 0.00122466 -6.72617e-17)
(0.00102091 0.000553125 -4.45644e-17)
(-0.000329073 -0.00327556 -3.74542e-17)
(-0.000272515 -0.0031043 -9.63917e-18)
(-0.000231632 -0.00328324 -6.66801e-19)
(0.00221935 0.0108214 4.86851e-18)
(0.00185189 0.0108228 -7.16933e-17)
(0.00124237 0.0109898 -1.89183e-17)
(-0.000311737 0.00668769 -9.76796e-18)
(-0.000466728 0.00676791 -2.01702e-17)
(-0.00045373 0.00657442 1.41781e-17)
(0.00907688 0.0096118 -5.46764e-18)
(0.010255 0.00966117 -5.77971e-18)
(0.00966696 0.00948299 2.2542e-18)
(-0.000669507 -0.00210875 -1.23083e-17)
(-0.000628018 -0.0020019 1.82737e-17)
(-0.000719545 -0.00203418 1.60639e-17)
(8.28337e-05 0.000115852 3.11046e-18)
(9.04025e-05 0.000122604 -3.54449e-18)
(8.35934e-05 0.000126568 -6.25017e-19)
(-9.62437e-05 -0.000723935 -7.7205e-18)
(-0.00013413 -0.000703204 -1.63729e-17)
(-9.72361e-05 -0.000679118 1.03744e-18)
(-0.000954446 -0.00179796 3.71326e-17)
(-0.000922907 -0.00166917 1.40691e-17)
(0.000662747 0.00177691 -1.38099e-17)
(0.000687331 0.00183685 -1.59839e-18)
(0.000722427 0.00178561 -2.46009e-18)
(0.000119703 0.000291972 3.94247e-18)
(0.000125901 0.000285752 1.46663e-18)
(0.00012841 0.000301239 4.1639e-18)
(-0.00194052 -2.17318e-05 -1.52052e-17)
(-0.00165973 2.5947e-05 -7.6162e-18)
(-0.00306483 0.000302188 -4.05588e-17)
(-0.00262565 -0.00236126 -3.83675e-18)
(-0.0025975 -0.00253401 -5.47879e-18)
(-0.00281141 -0.00245786 7.78986e-19)
(-0.000173518 0.00758626 1.42879e-18)
(-0.000326472 0.00745205 -4.02002e-17)
(-0.000276654 0.000611721 -4.91058e-18)
(-0.000300001 0.000617388 -1.03769e-18)
(-0.00226825 0.00190669 1.52393e-17)
(-0.00224226 0.00181362 2.98396e-18)
(-0.00235194 0.00184822 -8.53678e-18)
(0.00541156 -0.00186907 -2.01106e-17)
(0.00600349 -0.00187544 1.64584e-17)
(0.00584785 -0.00188157 2.06304e-17)
(-0.0161473 0.00280886 -4.57864e-18)
(-0.0159274 0.00217414 9.88655e-18)
(0.00845093 0.0078574 -2.27679e-18)
(0.00871627 0.00775952 -2.53355e-17)
(0.0087646 0.00809316 -1.25396e-17)
(-0.00196679 1.49541e-05 3.30601e-17)
(-0.000849622 -0.000205219 1.43639e-17)
(-8.98969e-05 -0.000138144 6.03135e-18)
(-0.000105491 -0.000140327 -7.581e-18)
(-8.77077e-05 -0.000149516 3.0061e-18)
(-0.000406176 -0.00510668 -5.2386e-17)
(-0.000389368 -0.00487923 -4.60802e-17)
(-0.000596444 -0.0050675 -2.72308e-17)
(-6.65105e-05 3.87101e-05 1.05855e-19)
(-6.99975e-05 4.79577e-05 5.509e-20)
(-6.93564e-05 3.80058e-05 3.12294e-19)
(-0.000649096 -0.00438149 -2.63058e-17)
(-0.000595684 -0.0041528 -1.5948e-18)
(-0.000725338 -0.00418549 -4.97081e-17)
(0.000794866 0.000624712 -1.13577e-17)
(0.000346138 0.000757748 4.89764e-17)
(0.000336619 0.00111546 4.89437e-17)
(-0.000126456 -0.000317101 -2.61042e-18)
(-0.000148959 -0.000382854 1.84064e-17)
(-0.000204054 -0.000324887 -3.2914e-18)
(-1.45573e-06 -2.34706e-05 4.98657e-19)
(-1.21397e-06 -2.44519e-05 -1.81611e-19)
(0.00233206 0.00723884 -4.39138e-18)
(0.00173031 0.00898414 8.68485e-18)
(0.00396283 0.000222615 -1.76343e-18)
(0.00344318 0.000595408 3.75993e-18)
(0.00381476 0.000475082 -1.10601e-17)
(-0.000639339 -0.00122122 1.21451e-17)
(-0.000707171 -0.00117871 -6.11305e-18)
(7.82822e-06 5.9238e-06 -4.51661e-19)
(1.01333e-05 9.68751e-06 -7.81494e-19)
(1.11542e-05 6.25892e-06 1.82826e-18)
(-0.000382064 0.000101099 -2.25428e-18)
(-0.000393588 0.000126955 1.4221e-18)
(0.000157724 0.000870613 1.7252e-18)
(0.00014866 0.000897228 -4.19293e-18)
(0.000133257 0.000867195 7.50512e-20)
(5.27462e-06 5.38899e-06 1.33487e-18)
(3.134e-06 2.59673e-06 1.89734e-18)
(0.000314407 9.63533e-05 -6.82428e-19)
(0.000327812 9.26069e-05 9.38044e-18)
(0.0003147 8.30097e-05 3.58786e-18)
(-0.00031389 -0.00345593 8.92619e-19)
(-0.000116925 0.00248039 -3.80758e-18)
(0.000398644 0.00222845 -9.61763e-18)
(0.000558555 0.00202862 5.65429e-18)
(-7.57647e-05 -0.00013526 5.38727e-18)
(-9.0085e-05 -0.000129653 -2.04477e-18)
(0.00026949 0.00103129 -3.99137e-18)
(0.000249642 0.000994581 6.73312e-18)
(-1.36475e-06 -2.68935e-05 6.55631e-19)
(-6.7017e-07 -1.8349e-05 -8.37751e-19)
(-0.00846598 0.00229457 6.46846e-17)
(-0.00901008 0.00267208 5.27049e-18)
(-0.00831026 0.00200557 -3.33879e-17)
(-0.0148856 0.00685841 2.70705e-17)
(-0.0129893 0.00625348 2.22892e-17)
(-0.00207906 0.00160195 -2.03875e-17)
(-0.00197765 0.00157222 5.8856e-19)
(-0.000727029 -0.0022123 7.45658e-18)
(-0.000643279 -0.00218313 3.25811e-17)
(-1.74861e-06 -0.00011001 1.42676e-18)
(1.94493e-07 -0.000109071 2.15502e-18)
(-0.000128469 -0.00035952 7.69348e-20)
(-8.8724e-05 -0.00034504 3.79475e-18)
(-0.0304492 0.0158444 -1.11279e-17)
(-0.0308581 0.0161786 3.17168e-17)
(-0.0306197 0.0165881 3.24488e-17)
(0.000299003 0.000485446 3.94244e-18)
(0.000285981 0.000492523 2.03351e-18)
(0.000281021 0.000469296 -4.13306e-18)
(-0.000171955 -5.90784e-05 2.85414e-18)
(-0.000181053 -6.44244e-05 2.87806e-19)
(-0.000161447 -6.97157e-05 -7.82437e-18)
(-0.00096973 -0.00192045 3.66166e-17)
(-0.000988655 -0.00201394 -8.57093e-18)
(-0.00105508 -0.00195856 1.85785e-17)
(-5.15991e-06 -7.66443e-05 1.2085e-19)
(-2.62777e-06 -7.69711e-05 -3.7222e-19)
(-0.00718675 0.00160548 1.5591e-17)
(-0.00556993 0.00112814 -2.57108e-17)
(-0.00687314 0.00147864 -4.78774e-17)
(-0.002933 -0.00276066 -1.81418e-18)
(-0.00286825 -0.00264443 3.46395e-18)
(-0.00274808 -0.00274945 1.24123e-18)
(-9.91525e-05 -6.96597e-05 -9.86651e-18)
(-8.50284e-05 -7.24496e-05 3.55707e-18)
(0.000307753 0.000422404 -7.21027e-18)
(0.000297073 0.000431719 -3.79282e-19)
(0.000290258 0.000408117 -6.91987e-19)
(-0.00116059 0.00128618 1.99987e-18)
(-0.00113966 0.00122443 1.96174e-17)
(-0.00121358 0.00124101 1.8702e-17)
(0.00218459 0.00699451 -1.0017e-17)
(0.0022163 0.00713583 -2.37303e-18)
(0.00206299 0.00704196 -4.18868e-17)
(6.56234e-06 -0.00513472 1.64765e-17)
(-0.000178548 -0.00541697 9.00359e-18)
(0.00461511 0.00928542 1.51143e-17)
(0.00444801 0.00954991 1.31913e-17)
(0.00482417 0.00950014 -1.21476e-17)
(-0.00191537 0.000313587 1.58094e-18)
(-0.00188219 0.000365086 -7.13388e-19)
(-0.0019646 0.000393327 4.52426e-18)
(-0.000699436 0.00205898 3.76374e-18)
(-0.000720043 0.00198434 -4.48486e-18)
(-0.000649293 0.00199257 2.02739e-18)
(0.000408617 -0.00182611 8.53693e-18)
(0.0003635 -0.00181507 2.59543e-17)
(0.0005441 -0.00180646 -4.86299e-17)
(-0.00168028 0.000985216 1.31575e-19)
(-0.00164895 0.0010674 5.34631e-18)
(-0.0237485 0.00857343 2.07123e-17)
(-0.0240025 0.0087969 1.4392e-17)
(-0.0245645 0.00922791 2.43729e-17)
(0.0118465 -0.00163958 3.38193e-17)
(0.0111709 -0.00155804 -4.24893e-17)
(-0.00864484 0.00249789 -1.61472e-17)
(-0.00784034 0.00191717 5.17486e-17)
(-0.000343762 -0.000133374 -2.00729e-18)
(-0.000358001 -0.000146773 -9.43123e-18)
(-0.000332437 -0.000153121 1.35592e-17)
(2.29834e-05 -0.00103332 -5.63911e-18)
(-2.94907e-05 -0.00106221 2.76919e-17)
(2.9065e-05 -0.001105 5.85993e-19)
(-4.48679e-06 -4.24747e-05 1.9464e-19)
(-4.55244e-06 -4.03828e-05 8.80522e-20)
(-3.22631e-06 -3.58743e-05 -2.28824e-19)
(0.00261165 0.0108771 1.54151e-17)
(0.00233326 0.0104998 2.76467e-17)
(0.0081074 0.00802085 1.38114e-17)
(0.00812853 0.00763757 -1.70898e-17)
(0.0100746 0.00914551 -2.72128e-18)
(0.00891084 0.00963396 -9.98955e-18)
(0.000614613 0.00177387 5.82442e-18)
(0.000641934 0.00172783 -1.52148e-18)
(0.000814151 0.00694779 1.55933e-18)
(0.000977973 0.00699239 2.42525e-17)
(0.000826247 0.00716075 4.86737e-17)
(0.000277481 0.000759214 -6.47025e-18)
(0.000275894 0.000787142 7.11356e-18)
(0.000251905 0.000758703 -7.21187e-18)
(-6.81825e-05 -0.000755906 -3.00419e-18)
(-0.000126221 -0.000761344 1.28512e-17)
(-0.00206031 0.000587741 -6.33902e-18)
(-0.00199257 0.000526467 3.25303e-18)
(-0.00197976 0.000621362 -2.01568e-17)
(0.00695401 -0.00201716 -2.95296e-17)
(0.00729026 -0.00201697 -6.92165e-17)
(0.00680362 -0.00199268 5.18062e-17)
(0.00967277 0.00756758 -3.68662e-18)
(0.00970092 0.00788782 3.282e-18)
(0.0094169 0.00783105 -5.14735e-18)
(-0.000396509 0.000580956 1.61391e-19)
(-0.000420103 0.000585881 -7.71988e-19)
(-0.000408571 0.000554546 -1.68464e-18)
(-0.0113235 0.00286387 1.55808e-17)
(-0.0107965 0.00265991 1.57088e-17)
(-0.0129276 0.00320014 6.21688e-18)
(-0.00201416 0.000128049 -4.475e-19)
(-0.00205093 6.66956e-05 -2.13329e-18)
(-0.00209982 0.000137341 1.02678e-17)
(-0.000726162 0.002672 -2.4797e-17)
(-0.000975811 0.00294357 -8.5342e-18)
(-0.000604475 -0.00455533 -9.84172e-18)
(-0.0006916 -0.00458781 2.38204e-19)
(-0.00770778 0.00174913 4.16788e-17)
(-0.0091225 0.00207155 1.5307e-17)
(-7.27029e-05 0.000361699 8.28865e-19)
(-6.84785e-05 0.000390143 2.32432e-18)
(-8.28766e-05 0.000369779 1.41163e-18)
(-0.00383091 0.00276652 -2.97615e-17)
(-0.00371342 0.00282345 -8.68464e-18)
(-0.00223557 0.0021822 -7.60833e-18)
(-0.00214007 0.00223733 -1.42425e-18)
(0.000318189 0.000501724 5.12988e-18)
(0.00031084 0.000477288 -1.12382e-18)
(-1.4166e-05 -4.32375e-05 -1.31247e-19)
(-1.58914e-05 -4.20881e-05 9.52396e-21)
(-0.00092278 -0.000176015 -1.99347e-18)
(-0.000881349 -0.000203373 1.1343e-17)
(-0.000884292 -0.000152302 1.04891e-18)
(-0.0180777 0.00900149 -8.76785e-18)
(-0.0173857 0.00892904 -2.50167e-17)
(-0.00736605 0.00252908 3.31528e-17)
(-0.00873263 0.00235478 7.15522e-18)
(-0.00687039 -0.000586473 9.13623e-18)
(0.000429147 -0.00181982 4.48973e-17)
(0.000492538 -0.00170315 7.09584e-17)
(-0.000758461 0.0036674 5.28002e-18)
(-0.000818072 0.00358407 1.44437e-17)
(-0.000847569 0.00370322 9.97156e-18)
(0.00880661 0.0105222 -3.14007e-18)
(0.00905592 0.0105106 -2.40576e-18)
(0.00793399 0.0107862 -2.89395e-17)
(-0.027667 0.0133384 -9.78287e-18)
(-0.0277347 0.01308 1.7867e-18)
(-0.0272686 0.0126394 1.71891e-17)
(0.000957662 -0.00188317 -2.33276e-18)
(0.00101205 -0.00186908 -4.02611e-17)
(-0.00540364 0.00208173 -1.57109e-17)
(-0.00542327 0.00216602 -1.94206e-17)
(-0.00567489 0.00208867 -1.31194e-17)
(-3.62164e-05 -4.79069e-05 -5.36006e-19)
(-3.35697e-05 -5.02004e-05 -3.37029e-19)
(-3.35506e-05 -5.49057e-05 4.47986e-19)
(-0.000419421 -0.00219032 1.52654e-17)
(-0.000503511 -0.00217653 -3.0219e-17)
(-0.000479681 -0.00231221 2.8118e-17)
(-0.000296884 -0.000967796 1.30284e-18)
(-0.000344194 -0.000977693 1.91764e-17)
(0.000103936 9.5892e-06 -3.35283e-18)
(9.51476e-05 9.3851e-06 3.13589e-18)
(5.57765e-05 0.000561031 2.58458e-18)
(6.72189e-05 0.000587693 -1.74826e-19)
(-0.00268558 -0.0020792 2.34096e-18)
(-0.00256851 -0.00197161 2.73579e-18)
(-0.00270225 -0.00193961 2.20534e-18)
(-0.00138212 -0.00175227 -6.41421e-19)
(-0.00153927 0.000493098 -1.4554e-17)
(-0.000402211 -0.00051423 -2.45105e-17)
(0.00204709 0.00273808 1.61657e-17)
(0.00211369 0.00281291 -3.69732e-18)
(0.0020083 0.00282958 2.20772e-18)
(-5.18366e-06 4.33703e-06 -1.58087e-18)
(-5.01152e-06 2.83075e-06 8.76226e-19)
(0.00156765 0.0068854 -1.13943e-17)
(0.0014218 0.00643434 1.84883e-17)
(0.00112166 0.00678644 2.74999e-17)
(0.00231782 0.00706458 3.56209e-17)
(0.00228839 0.00686356 5.28864e-18)
(0.00954515 -0.00160318 -1.47131e-17)
(0.00959303 -0.00162391 2.364e-17)
(-0.0127528 0.00379252 6.52047e-19)
(-0.013179 0.00402714 -3.62015e-17)
(-0.0135223 0.00440192 3.39115e-18)
(-6.89038e-05 -3.78536e-05 5.02288e-19)
(-6.8084e-05 -4.06983e-05 -8.70642e-19)
(-0.00019672 0.000155953 -1.31638e-18)
(-0.000200608 0.000174367 -4.66255e-19)
(-0.000157827 0.00661851 -1.36477e-17)
(-0.000153742 0.00681357 1.31498e-17)
(-0.0140029 0.00768976 8.72254e-19)
(-0.0166613 0.00854158 1.3974e-17)
(-0.0154732 0.0079983 -7.3449e-19)
(-0.000164545 -5.22203e-05 2.80598e-18)
(-0.000183586 -4.96348e-05 1.37748e-18)
(-0.00914961 0.00610694 -4.05487e-18)
(-0.00853419 0.00587101 -2.81768e-18)
(-0.0107914 0.00650758 -4.2596e-18)
(0.010868 -0.0017064 -6.43721e-18)
(0.0102217 -0.00168508 -1.81376e-18)
(0.0108622 -0.00169678 5.56922e-18)
(0.00907605 0.0102062 2.69638e-17)
(0.00838837 0.0106652 1.95348e-17)
(0.000109862 0.000280634 -1.67158e-18)
(0.000111639 0.0002989 -8.27178e-19)
(-0.00164029 -0.00314455 1.39796e-18)
(-0.00176198 -0.00316303 -1.6477e-18)
(-0.00172266 -0.00336386 1.33751e-17)
(0.000280757 0.00633544 6.06261e-18)
(0.000140572 0.00643984 1.78748e-17)
(0.000129381 0.00623691 -1.53227e-17)
(0.008732 -0.00187402 -4.06212e-17)
(0.00806238 -0.00185476 5.54612e-17)
(0.00857644 -0.00191623 7.55186e-17)
(-8.45033e-05 0.000119708 2.55937e-19)
(-8.51427e-05 0.00013126 -1.90583e-19)
(-8.96616e-05 0.000127316 2.45069e-19)
(-0.000289734 -0.000974366 2.48174e-17)
(-0.000160797 -0.00104079 3.35043e-17)
(-7.59353e-05 0.000341429 -3.01336e-18)
(-6.87124e-05 0.000353126 2.57064e-19)
(-0.00354499 0.00439049 4.95207e-17)
(-0.00340654 0.00441513 7.76069e-18)
(-0.00343964 0.00427557 1.153e-17)
(5.15915e-05 2.04412e-05 -2.63054e-19)
(4.8004e-05 1.37373e-05 -1.80322e-18)
(0.00636291 -0.000147675 1.10798e-17)
(0.00711943 -0.000290702 8.16232e-20)
(0.00656404 -0.000179042 2.36353e-18)
(-0.00153886 -0.000178086 1.81548e-17)
(-0.00135982 -0.000219721 2.5367e-17)
(-0.00250682 -1.27173e-05 -1.23265e-17)
(-0.000841681 0.000380415 9.03724e-19)
(-0.000831911 0.000430857 9.09378e-19)
(-0.00441092 -0.00175224 -6.06144e-17)
(-0.00328795 -0.00208377 -1.90303e-17)
(-0.00503647 -0.00197908 -2.18193e-18)
(-0.000739342 0.0021281 3.60642e-18)
(-0.00066241 0.00212909 3.24631e-18)
(9.9214e-05 0.000268983 -4.31312e-18)
(0.000106122 0.000262876 9.19661e-19)
(-0.0314152 0.0162524 2.04229e-17)
(-0.0315833 0.0159141 3.25045e-17)
(0.0098833 0.00729528 1.35913e-17)
(0.00950262 0.0072619 3.02196e-19)
(-0.000668622 0.00362913 -1.62031e-17)
(-0.000694738 0.00374749 -1.58697e-17)
(-0.014759 0.00663682 1.35195e-17)
(-0.0131647 0.00646023 3.2652e-18)
(-0.0159034 0.00722887 2.73981e-18)
(0.0109223 -0.00179957 7.5752e-18)
(0.0111459 -0.00176485 -7.3654e-18)
(0.000119403 7.54537e-05 -2.88723e-18)
(0.000128063 7.95235e-05 1.14026e-18)
(0.000124802 6.84901e-05 -8.93e-18)
(-0.0010977 0.00150555 -2.09522e-17)
(-0.00114999 0.00145586 -1.23854e-17)
(0.00707771 -0.00115299 -2.83807e-18)
(0.00685006 -0.00109753 -3.21917e-17)
(0.00148514 -0.00183929 7.67594e-18)
(0.00176275 -0.00184706 1.25937e-18)
(0.00148059 -0.00183899 5.8484e-17)
(-4.65107e-06 -4.24978e-05 -9.45297e-19)
(-4.67884e-06 -4.65684e-05 5.65211e-19)
(-1.04334e-05 8.87413e-05 4.16678e-20)
(-7.36232e-06 9.75409e-05 1.08206e-18)
(-1.10833e-05 9.50486e-05 -2.29846e-18)
(-0.0208224 0.00261472 -7.943e-18)
(-0.0209815 0.00310741 -2.03587e-17)
(-4.39431e-06 0.0107119 -4.27842e-17)
(9.2606e-06 0.0108183 1.08364e-17)
(0.000808408 0.0109248 -2.0373e-17)
(-6.54747e-07 -1.3634e-06 -9.06843e-19)
(-3.08854e-07 -1.11318e-06 8.69769e-19)
(-6.36758e-07 -1.73589e-06 1.62195e-18)
(-0.0319614 0.0176251 7.81619e-19)
(-0.0319221 0.0177938 -1.20327e-17)
(-0.031135 0.0178203 -4.69672e-17)
(-0.00252291 0.00653082 4.82156e-18)
(-0.00243331 0.00668828 1.25878e-17)
(-0.00234108 0.00648847 -1.95167e-17)
(2.35282e-05 -0.000984438 5.76963e-18)
(5.97928e-05 -0.00101994 8.1973e-18)
(-0.00171496 0.00181613 -8.21807e-18)
(-0.00180007 0.00182293 9.30308e-19)
(-0.00173279 0.00189497 -2.10246e-17)
(-7.22056e-06 -4.35166e-05 -3.78527e-19)
(-4.8243e-06 -3.7522e-05 4.24752e-19)
(-0.00188375 -0.000199355 3.86013e-19)
(-0.00181737 -0.000131635 -3.34543e-18)
(-0.00179058 -0.00023043 -8.84858e-19)
(0.0108346 -0.00170152 -3.30607e-18)
(0.0109087 -0.00171802 -3.02683e-17)
(0.0114825 -0.00175026 -5.50371e-17)
(0.00105473 0.000805336 -4.75395e-18)
(0.00109582 0.000804775 -7.70166e-18)
(0.00108461 0.000845393 6.58811e-18)
(-0.00428485 0.00256615 -1.05157e-17)
(-0.00417578 0.0024638 -4.19895e-18)
(-0.00415481 0.00261887 8.93687e-18)
(-0.000812488 -0.00228978 1.68576e-17)
(-0.000878106 -0.00226897 -4.34731e-17)
(-0.000879237 -0.00240318 -2.27902e-17)
(0.000167091 0.000844064 4.5908e-19)
(0.000183385 0.000872458 1.01693e-17)
(-0.000173268 0.000140457 -5.89438e-19)
(-0.00017801 0.000135188 3.65819e-19)
(0.00460665 0.00796344 -3.66989e-18)
(0.00454126 0.0082315 -1.74832e-17)
(0.00482563 0.00812641 -1.07971e-18)
(-0.0194473 0.00385469 1.0086e-18)
(-0.0193407 0.00329455 2.98644e-18)
(-0.0187936 0.00364932 5.33583e-18)
(0.00483564 0.00915284 1.1221e-17)
(0.00451283 0.00904556 3.33614e-18)
(-0.000959789 -0.000163404 -7.93103e-18)
(-0.000953125 -0.000218443 3.82926e-18)
(-0.000811552 0.000198805 -2.29489e-19)
(-0.000850536 0.000173045 1.20632e-18)
(-6.24136e-07 -3.10255e-06 2.0385e-19)
(-5.96134e-07 -2.67394e-06 1.46116e-18)
(-2.29592e-07 -1.92303e-06 -2.31978e-19)
(0.00452464 -0.000119877 -2.31765e-18)
(0.00412491 -2.49557e-05 5.83143e-18)
(-0.00260262 -0.000576184 -1.00136e-17)
(-0.00364542 -0.000237881 -4.44408e-18)
(-0.00340244 -0.000299431 -9.31221e-18)
(-0.033196 0.0185182 -3.41936e-18)
(-0.0335148 0.0181251 -3.4029e-17)
(-0.0341391 0.0185208 -3.68087e-19)
(8.85708e-05 0.00025999 9.09834e-19)
(9.28591e-05 0.000277951 -4.99927e-19)
(0.00887678 -0.00172827 1.37424e-18)
(0.0081795 -0.00171074 -1.05255e-17)
(0.00832331 -0.00172733 -3.9303e-18)
(0.00970737 -0.000985541 -6.92871e-18)
(0.00955356 -0.000961029 4.25902e-17)
(0.010504 -0.00120127 -5.49544e-17)
(-0.0225435 0.00785394 -1.03958e-17)
(-0.0234349 0.00833988 1.68678e-17)
(-0.0181714 0.00854332 1.87719e-17)
(-0.0166669 0.00803447 8.56445e-18)
(0.0101217 0.0058853 3.25321e-18)
(0.0103299 0.00558824 -9.41226e-18)
(-8.05449e-06 -4.71066e-05 -9.70911e-19)
(2.26124e-05 1.00356e-05 -1.9958e-19)
(1.88534e-05 1.02582e-05 -3.66459e-18)
(2.34494e-05 1.51446e-05 4.42999e-19)
(-0.000766796 0.00550838 1.36326e-17)
(-0.000640087 0.00543546 -1.66868e-17)
(-0.000654125 0.00561771 -6.29707e-18)
(0.00805329 -0.000758257 -3.67235e-17)
(0.00865372 -0.000860815 -3.21672e-17)
(0.00874817 -0.000923674 2.51866e-17)
(-0.00125777 0.00884204 1.97882e-17)
(-0.00139179 0.00866158 -1.9323e-17)
(-0.00144288 0.00896463 -8.71472e-18)
(-9.39618e-05 0.00195315 -8.82759e-18)
(-6.64843e-05 0.002025 -6.75276e-18)
(-0.0123291 0.00355301 -1.0387e-18)
(-0.0120333 0.00317651 -4.59854e-18)
(0.00630474 0.00353412 1.43944e-18)
(0.00618219 0.00336869 1.21922e-17)
(0.000320696 5.83204e-05 -2.99277e-18)
(0.000315732 7.02331e-05 -5.47727e-19)
(0.000329423 6.74358e-05 9.67606e-19)
(-0.00321429 -4.71232e-05 1.86262e-18)
(-0.00327778 -0.000100311 -3.19164e-17)
(-0.00269639 -0.00029694 8.39225e-17)
(-1.80427e-05 5.44827e-07 -5.26435e-19)
(-1.70764e-05 9.16235e-07 7.30908e-19)
(-1.69141e-05 -2.99515e-06 1.85646e-18)
(-0.011534 0.00311679 -5.51992e-17)
(-0.0095109 0.00252142 6.97183e-18)
(0.00196946 0.00264823 4.76734e-18)
(0.00207634 0.00263652 -1.80085e-18)
(-7.18841e-07 -1.04933e-06 -5.90121e-19)
(-1.06636e-06 -1.54622e-06 -4.76378e-19)
(-0.00101679 0.000435995 -5.60543e-19)
(-0.00105929 0.000411436 1.39614e-18)
(-0.00100153 0.00039379 2.50378e-19)
(-0.00195613 0.000270254 4.31974e-18)
(-0.00187859 0.000263718 4.87698e-20)
(-9.83621e-05 -0.00109106 -5.78464e-17)
(-9.22664e-05 -0.00102519 2.19062e-17)
(-0.0320903 0.0173942 -4.95446e-18)
(-0.0319172 0.0173584 8.50031e-18)
(-0.0013664 0.000293552 2.08156e-18)
(-0.00142417 0.000272411 -8.83242e-19)
(-0.00135947 0.000237616 4.19758e-19)
(0.000894512 0.00101857 3.23303e-18)
(0.000872058 0.00105678 -1.05509e-17)
(0.000852591 0.00100673 -8.35734e-20)
(-0.0112056 0.0040415 -1.99607e-17)
(-0.0109634 0.00397852 2.81403e-17)
(-0.0104225 0.00360047 -9.89946e-18)
(-0.0160306 0.00685672 5.32728e-19)
(-0.013629 0.00632117 7.92726e-19)
(-0.00183611 -0.000680831 8.66247e-18)
(-0.00188389 -0.000646835 -7.07482e-18)
(-8.56738e-05 0.000108873 3.27154e-19)
(-8.10579e-05 0.000110575 -2.25805e-19)
(-0.0207864 0.00678702 2.48769e-17)
(-0.0214576 0.00713932 -2.77734e-18)
(-0.0200725 0.00644171 1.41766e-17)
(-5.03784e-07 -0.000101945 1.28074e-18)
(-6.92105e-07 -0.000102707 -5.53124e-18)
(-2.86973e-07 -0.000106588 -9.60861e-19)
(0.000920411 0.000991438 -2.02506e-18)
(0.000937418 0.00103175 1.56464e-17)
(-6.30785e-05 2.88479e-05 -2.15575e-19)