/*--------------------------------*- C++ -*----------------------------------*\
| =========                 |                                                 |
| \\      /  F ield         | OpenFOAM: The Open Source CFD Toolbox           |
|  \\    /   O peration     | Version:  v2012                                 |
|   \\  /    A nd           | Website:  www.openfoam.com                      |
|    \\/     M anipulation  |                                                 |
\*---------------------------------------------------------------------------*/
FoamFile
{
    version     2.0;
    format      ascii;
    class       surfaceScalarField;
    location    "100";
    object      phi;
}
// * * * * * * * * * * * * * * * * * * * * * * * * * * * * * * * * * * * * * //

dimensions      [0 3 -1 0 0 0 0];
oriented        oriented;


internalField   nonuniform List<scalar> 
20580
(
-0.152664
0.0166336
0.136039
0.131276
-0.256442
0.125141
0.265802
-0.134549
0.0064447
0.00224699
-0.00869284
0.584085
-0.620502
0.0362596
0.27133
-0.196716
-0.0746404
-0.308731
0.0550735
0.577518
-0.580865
0.00317265
-0.0012466
-0.00202227
0.00326904
0.425171
-0.257074
-0.168132
0.144004
0.0195875
-0.163604
-0.518514
0.317928
0.200501
-0.217659
0.287263
-0.0696302
-0.0175654
0.00889824
0.00866588
0.196177
-0.0306223
-0.165551
-0.125719
0.0976382
0.0280931
0.00932373
0.0056845
-0.0150065
-0.169807
0.360311
-0.190549
0.105405
-0.113532
0.00812952
-0.129219
-0.0234324
0.0698634
-0.204974
0.135111
0.234654
-0.211483
-0.023218
0.0193962
-0.0253577
0.00595932
-0.585098
0.591896
-0.00682612
0.0475942
-0.0524692
0.00487503
-0.0147611
0.126204
-0.111427
-0.0353869
-0.0575359
0.0929241
-0.0596905
0.0489355
0.010757
-0.0117243
0.0219666
-0.0102413
0.487854
-0.330057
-0.157896
0.00880121
-0.00478982
-0.00401047
-0.224515
-0.0841677
-0.118579
0.142376
-0.0237954
0.00356935
0.000189166
-0.00375729
-0.156627
0.157552
-0.000929558
-0.009553
-0.0134571
0.0230093
-0.615229
0.0301248
0.0100032
-0.0421071
0.0321023
0.00541234
-0.00827063
0.00285818
-0.142237
-0.154191
0.296359
0.00604194
-0.000141099
-0.00589986
-0.0255479
0.0138237
0.0143261
-0.014326
0.101497
-0.00901628
-0.0924885
0.0139807
-0.0247895
0.0108096
0.452775
-0.286412
-0.166462
-0.535903
-0.0704012
-0.137521
0.0607177
0.0768084
-0.0620989
-0.212208
0.274246
-0.299559
0.0818805
0.0212065
-0.0211122
-9.29319e-05
0.132598
-0.280852
0.148229
-0.0976078
-0.0280982
-0.0592688
-0.12136
0.180656
-0.0100562
-0.00134034
0.0113971
0.0961081
-0.238394
0.0181906
-0.136767
0.00775985
-0.00171762
-0.042433
0.104008
-0.0615714
0.0147838
-0.0200453
0.00526011
-0.359862
-0.158743
0.0659256
-0.101311
-0.226561
-0.18814
0.414661
-0.202994
0.140843
-0.0482554
0.0920704
-0.0438197
-0.0840829
0.0358228
0.0191506
-0.00436671
-0.0941472
0.0688021
0.355126
-0.257384
-0.0978131
0.00478955
0.00354926
-0.0083387
0.0106421
-0.000699189
-0.00994255
0.174962
-0.198657
0.0236984
-0.021699
-0.229984
0.251635
-0.0193506
-0.000695643
0.18854
-0.0272356
-0.161284
0.219682
-0.223227
0.0034965
0.0181331
-0.00881071
0.346537
-0.530257
0.183631
0.0529038
-0.00531064
0.449765
-0.208511
-0.241361
0.253692
0.101364
-0.10169
0.126191
-0.024501
-0.0151292
-0.141513
0.0145903
-0.0164427
0.00185074
-0.0193817
3.06309e-05
0.00634822
-0.0099302
0.00358189
0.057673
0.176939
0.0021947
0.000641541
-0.00283454
0.220873
0.155849
-0.376764
0.00577262
0.00302925
0.265672
-0.133091
-0.312772
0.0883008
0.0193474
-0.019347
0.0109882
-0.00463987
-0.0073486
0.0116871
-0.00433965
0.0208067
0.0766013
-0.0974162
0.160563
-0.359467
0.198804
-0.0822622
0.116339
-0.0340698
0.0202217
-0.0214348
0.00121495
0.0276447
0.0930721
-0.120723
-0.11763
0.0353736
0.124996
-0.0543175
-0.0706775
0.0901284
-0.120665
0.0305379
-0.179882
-0.0684299
0.248271
-0.470811
0.12574
0.344977
0.14024
-0.183533
0.0432916
-0.158397
-0.312523
0.00960605
0.00103636
-0.0836166
-0.229112
-0.341389
0.171539
0.000878441
0.150538
-0.151451
0.346681
0.105985
-0.106071
0.127241
-0.0211666
0.0125277
0.122521
-0.135056
-0.135061
0.11595
0.0191174
0.160023
-0.219266
0.174544
-0.402593
0.22794
0.467588
0.109758
-0.00309076
0.00953499
0.00858284
-0.00379394
0.0796761
-0.102682
0.0229957
0.156594
-0.42285
0.266164
-0.272879
0.293722
-0.0208982
-0.00919073
-0.00198002
0.0111734
0.0972706
-0.129289
0.0320198
0.0222049
-0.0653462
0.0431461
0.348406
-0.187954
0.0479031
0.102976
-0.150897
-0.00531237
0.00078779
0.0045251
0.150754
0.0229727
-0.173728
-0.199318
-0.0122085
-0.145534
0.192967
-0.0474711
-0.048352
0.058354
0.000717193
0.00285362
-0.0100403
0.154035
0.00309454
-0.0124065
0.00931163
-0.043464
-0.00757993
-0.00235046
-0.00331531
0.120946
-0.117631
-0.169721
0.0187518
0.150977
-0.116404
0.014717
0.250282
-0.239404
-0.0109096
-0.0771923
0.298029
-0.0768245
-0.002846
0.079673
0.00141546
-0.0353366
0.0339216
-0.0275207
0.226967
-0.199495
0.518535
-0.172082
0.00619882
0.00104914
-0.00395136
0.00290142
-0.0749497
0.122841
-0.0702981
-0.0473274
-0.123912
0.0178479
-0.116523
0.129046
0.116568
-0.113111
-0.00345425
-0.224116
-0.00946926
0.233562
0.1401
0.178949
-0.319068
0.316112
0.208178
-0.524388
0.00875316
-0.00334097
-0.196998
0.0993434
0.0976608
-0.0562846
0.216493
-0.160191
-0.416919
-0.163728
0.580607
0.0256359
-0.0151944
-0.010439
0.170168
-0.0299428
-0.0576432
-0.0798702
-0.00892188
-0.00864485
-0.0125725
0.00568458
0.00688974
-0.00371056
-0.00885968
0.0192871
0.00192189
0.165225
-0.164382
0.0203657
-0.0176992
-0.00266579
0.535246
-0.332257
-0.203075
0.441617
-0.267205
0.167904
-0.154117
-0.0137952
0.55046
-0.110952
-0.439631
-0.00979127
0.00243775
-0.0642466
-0.0346716
0.0989213
0.0834689
-0.111846
0.0283813
0.261737
0.179763
0.194145
-0.166834
-0.0272828
0.118076
-0.0346044
0.117805
-0.0205396
0.122295
-0.00146999
-0.173572
0.175007
0.195629
-0.0448748
-0.0157692
0.0157707
-0.00191822
0.00296649
0.0969832
0.0453956
-0.0625653
-0.067457
0.130018
0.237081
-0.00584093
-0.231268
-0.128689
-0.249058
0.377632
-0.0419772
0.0433963
-0.133254
-0.0637343
0.0124721
-0.00357506
0.138391
0.132913
-0.224462
0.196894
-0.0922119
0.12524
-0.0330173
0.130582
-0.0335947
0.204332
0.105995
-0.310341
0.124911
-0.318102
0.193126
-0.0178158
-0.0675828
0.0854034
0.112801
-0.122563
0.00976283
-0.00420208
0.0101178
-0.00591499
-0.00956442
0.00847545
0.00109185
0.011777
0.184407
0.00079654
-0.0527975
0.051997
0.00583689
-0.0100385
0.199886
-0.207703
0.00781132
0.133363
-0.141252
0.00789964
-0.000118109
-0.00406465
0.00418305
0.212814
-0.0152081
-0.197635
-0.114026
0.104955
0.00907927
-0.249322
-0.0236026
-0.00360056
-0.646664
0.399058
0.247599
-0.13425
0.167041
-0.0328015
-0.214063
0.191339
0.0226829
-0.257493
-0.0420874
-0.013423
0.101131
-0.0877071
-0.180654
-0.139458
0.320065
-0.00112138
0.0245918
-0.19976
0.461372
0.139308
-0.120375
-0.0189254
0.0166735
-0.00208528
-0.0124127
0.0103243
0.00208862
0.0248726
-0.136187
0.111309
0.147275
-0.0139007
0.668551
-0.365442
-0.303121
-0.0238787
-0.0529444
0.163312
-0.455728
0.292313
0.0232961
0.000961658
-0.00556451
0.00460318
0.0919444
-0.154517
-0.0318652
0.244643
-0.480085
0.229393
-0.00147696
-0.00808547
0.225473
0.262274
0.0544712
-0.0350782
-0.00959216
0.00843108
0.00116271
-0.100742
0.12838
0.142582
-0.559519
-0.0319004
0.0860013
-0.0541058
0.0189048
-0.0211175
0.00221258
-0.0138081
0.0277892
-0.0163741
0.188396
-0.18663
-0.00175392
0.0659414
-0.058961
-0.00697783
0.0908676
-0.104289
0.0383097
0.15586
0.100503
-0.0239078
0.15044
-0.165068
0.0145946
-0.00208167
0.0053741
-0.00329299
-0.118878
0.130146
-0.0112706
-0.309559
0.647395
-0.33806
0.0615931
0.158684
-0.220281
0.0241346
0.0199493
0.00568681
-0.00615479
-0.00507946
0.0112338
-0.348108
0.219323
0.0499412
0.177124
0.163997
-0.341157
0.116248
-0.101746
-0.014498
0.125944
-0.117723
-0.00821516
-0.101784
0.163376
0.153743
0.0164113
-0.144269
0.0253933
-0.1063
0.306831
-0.200598
0.0604765
0.0645233
-0.136261
0.0543688
0.0818978
0.0714946
-0.0529582
-0.0185311
0.457014
-0.181961
-0.275117
-0.29423
0.0367189
0.116812
0.00117158
0.00559558
-0.00676993
0.0120886
-4.05355e-05
-0.0120469
0.16561
-0.0216788
-0.143928
0.39145
-0.234928
0.106865
0.0109359
-0.113072
0.117966
-0.00489155
-0.0950643
0.132748
-0.0376771
0.168892
-0.0151562
-0.00297123
0.00414226
0.0209314
-0.0209303
-9.87231e-07
0.152753
-0.202388
0.0496227
-0.111113
-0.0585232
0.169644
-0.0456268
0.0530415
-0.00741477
0.19371
0.163175
-0.356998
0.221681
0.301477
-0.523248
-0.123682
0.0286238
-0.0311714
0.152405
-0.121246
-0.463702
0.228689
0.234926
0.494154
0.129153
-0.623363
0.403487
-0.240278
-0.565137
0.571204
-0.00626653
-0.0208602
-0.159774
0.180637
0.5377
0.00292244
-0.00416859
-0.0925964
0.162466
0.162913
-0.293105
0.130118
0.0103965
-0.0125151
0.00332572
0.0465724
0.222474
-0.269075
0.0100985
0.0204452
-7.95459e-05
-0.0203635
0.0611686
0.189086
-0.192493
0.239047
-0.226872
0.134277
-0.0150275
0.0164291
-0.00139985
0.00339214
-0.00139766
-0.00199226
0.17153
-0.0291907
-0.142338
0.462254
0.12167
0.0192308
0.00113655
0.175305
0.155824
-0.161843
0.00601711
0.0195806
0.000867869
0.068313
-0.0587116
-0.00959499
-0.260794
0.204529
-0.05929
0.0136621
-0.0123195
0.0829565
-0.0706393
0.00634213
-0.00965888
0.00331389
0.114376
0.00557976
-0.119952
0.0511511
-0.112425
0.0612783
0.00896945
-0.00587579
-0.0086616
-0.00135184
0.0100135
-0.0215694
-0.0381191
0.319364
-0.194516
-0.00542072
0.0150042
-0.00958304
0.0010868
-0.00108683
0.00647723
-0.0329089
0.0264357
-0.036317
0.0427995
0.143498
0.0563855
0.173027
-0.0297585
-0.143275
0.0111604
-0.152853
0.141673
0.000120476
0.00207562
0.0601074
-0.114308
0.0542053
-0.215064
-0.303075
0.517937
-0.104661
-0.431165
-0.041606
0.182371
-0.140802
-0.00362277
0.00996348
0.0281226
0.375674
-0.182094
-0.000726773
0.0406604
0.120573
-0.161251
-0.18814
0.0425816
-0.0433531
0.259862
-0.0161815
0.00115425
0.112915
-0.00605108
0.027643
0.000570429
-0.214687
0.192697
-0.224599
-0.0352454
0.0252566
0.00999042
0.243315
-0.00625907
0.00349912
-0.0644819
0.217217
-0.134961
-0.0919109
0.137418
-0.0967729
0.332936
0.292808
-0.129975
0.133003
-0.140206
0.00720457
-0.030883
0.123951
-0.125907
0.134341
-0.0084371
-0.0606731
-0.0190261
-0.0162184
0.194942
0.0319932
-0.00111473
-0.123466
0.0986661
0.0248021
-0.195877
0.434871
-0.23904
0.0653223
0.00299233
-0.121414
0.137157
-0.0157371
0.0185463
0.00167727
0.177606
-0.219253
-0.139607
0.0188598
-0.101266
0.0588348
-0.0487954
0.0486846
0.000110446
0.1098
-0.130143
0.0203495
0.00154166
0.000673453
-0.00221442
0.296878
-0.239388
-0.0575362
0.0283659
-0.0926109
0.00187666
0.0124495
0.0178746
-0.190527
0.172643
-0.00356419
0.00148309
-0.0286525
-0.160561
0.189203
0.00741696
-0.00227854
-0.00513681
0.0816108
-0.192722
-0.0421607
-0.126441
0.130732
-0.128543
-0.0021803
0.0702032
-0.0966887
0.0264815
0.310475
-0.170397
0.244532
-0.161007
-0.0835408
0.0903663
-0.121549
0.021727
-0.289715
-0.0322383
0.321878
-0.00333095
0.168948
-0.0198922
0.00300942
0.0168834
-0.20466
0.182925
-0.0697087
-0.0715324
-0.0101123
0.0117724
-0.00165879
0.101241
-0.260292
0.15901
-0.0475284
0.108649
-0.0611266
-0.167934
0.153626
0.0143243
0.000834173
0.00255844
0.190672
-0.205913
0.124706
-0.139448
-0.064926
0.0657163
-0.00334257
0.17334
-0.166409
-0.00692528
-0.0111477
0.00499293
-0.000477725
-0.0894032
0.057498
-0.286007
0.179649
0.122424
0.0105711
0.164087
-0.188421
0.0243219
-0.115141
-0.0244533
0.421358
-0.204925
-0.216512
-0.0154387
0.0154385
-0.00490848
0.0131889
-0.00827931
-0.0418365
0.0486608
-0.0068242
-0.0526537
0.245315
-0.0135353
0.103687
-0.0805546
-0.0231276
0.0112211
0.000867082
0.486312
-0.215642
-0.270677
-0.0156721
0.010251
-0.117953
0.102426
0.0155228
-0.00459148
-0.00388613
0.00847632
0.172562
-0.0221486
-0.00876353
-0.0406394
0.0494037
-0.0293973
-0.245507
0.274871
0.567932
-0.0175895
0.000581998
-0.0106374
0.10264
-0.0246855
-0.0779516
0.154985
0.270155
-0.212916
-0.043545
-0.140837
0.0711366
-0.152672
0.46087
-0.308347
-0.0182147
0.0133078
0.0372541
0.135771
-0.134741
0.013332
-0.231937
0.223988
0.00795917
0.0186133
0.278207
-0.336565
0.24679
0.0897703
-0.0484143
-0.000381934
-0.0913501
-0.201841
-0.0406341
-0.295935
0.0321951
-0.0704212
0.0382272
-0.0173549
-0.0025364
-0.177557
-0.0218043
0.0383282
-0.101151
0.0628249
0.208594
-0.435165
0.515991
-0.214613
0.278914
-0.177714
0.00423772
0.120534
-0.149578
0.0290593
-0.323347
0.0213488
0.301929
-0.32251
0.221838
0.10063
-0.0287961
0.108464
-0.123452
0.304166
-0.180732
-0.00524605
0.00602238
-0.000774051
-0.164293
-0.384068
0.548239
-0.150264
-0.0669295
0.217209
-0.00539793
-0.0193909
0.0141566
-0.100468
0.0862982
0.430622
-0.608927
0.17828
0.498542
-0.195059
-0.303563
-0.20089
-0.0310236
0.325467
-0.127627
-0.19784
0.0953105
-0.101653
0.0063389
-0.06748
0.0486374
0.0188435
0.20073
-0.0123323
-0.0073699
-0.0358941
0.0432684
0.22622
0.259465
-0.486269
0.226725
0.00531632
-0.00360493
-0.00171051
-0.0629351
-0.15989
0.0781824
0.081705
-0.297191
0.279553
0.017588
-0.0106402
-0.122588
0.119271
0.0605509
-0.0118354
-0.0487188
-0.240026
0.0601131
-0.181291
0.00941173
0.171853
-0.0304059
-0.205144
0.170326
0.0348346
0.00727257
-0.00862395
0.0944595
0.00922937
-0.0523792
0.0105465
-0.23899
0.091472
0.147495
-0.00953145
-0.171471
-0.140355
0.311753
0.00677422
-0.136639
-0.0312717
0.0371241
0.0934612
0.186892
-0.0228263
0.220202
-0.105285
0.119425
0.138136
-0.446202
-0.174425
-0.0129084
0.0122902
0.000618244
0.000522251
0.00479486
0.000108607
-0.00535304
-0.00879837
-0.000641245
0.00943831
-0.0352841
0.00932203
-0.0185175
0.00919568
0.000246553
0.145768
-0.017874
-0.127903
0.577528
-0.309267
-0.268283
0.0323095
-0.0798399
0.138437
-0.395534
-0.378465
0.088672
0.00914857
-0.135047
0.125891
0.00727319
-0.0096573
0.00238006
-0.0610904
-0.190944
0.252018
0.212748
-0.225329
0.012555
-0.140029
0.103666
0.03635
-0.153945
0.00726791
0.146674
0.396345
-0.173495
-0.222861
-0.010454
-0.00545393
0.0159075
0.460033
-0.29397
-0.166147
-0.00297633
0.0049406
-0.00196396
0.0872835
0.00802169
0.158956
0.290719
-0.306173
0.208611
0.0975548
0.100368
-0.115176
0.0148053
0.012789
-0.238332
0.0357116
-0.0385392
0.00282685
-0.029108
0.0614161
-0.141705
0.359268
-0.217555
-0.0102507
0.00757246
0.0026803
-0.00685429
0.112262
0.122865
-0.113501
-0.00935984
-0.0582216
-0.180796
-0.0271921
-0.0432281
-0.0203349
0.00218899
0.018146
-0.339544
0.197846
-0.000436458
-0.0951961
0.0956337
0.371346
-0.188115
-0.183307
0.100482
-0.0529584
0.078207
-0.0252474
0.00305272
0.00436546
0.201969
-0.181669
-0.0203097
0.149119
-0.0285682
0.24039
-0.406222
0.165813
0.113454
-0.1252
0.0117546
-0.00364424
-0.00166764
0.00810674
-0.0100006
0.00189372
-0.258704
0.40046
-0.141767
-0.0184627
0.0108949
0.00756728
-0.355673
0.113904
-0.0101961
0.174123
-0.161156
-0.0129448
0.336111
0.150196
-0.087086
-0.13618
0.00741207
-0.00876113
0.001351
0.124036
-0.0538362
-0.00283661
0.209228
-0.270343
-0.165547
0.329504
-0.000454279
0.00791861
-0.00746574
0.139811
0.410686
-0.550537
-0.129908
0.0065683
0.123335
-0.179246
0.251769
-0.0725072
0.190174
-0.165621
-0.0245335
0.198698
-0.0373813
-0.161316
-0.0192695
0.0344151
-0.0151454
0.0196152
0.00131676
0.0896003
-0.234704
0.145083
0.0154244
-0.0135477
0.0948841
0.17941
-0.274279
-0.0034198
0.139833
-0.136422
-0.0119008
-0.0136469
-0.00878392
0.00744403
0.29162
-0.316094
0.0244109
0.135304
-0.00122247
0.0913517
-0.00831445
-0.000446121
0.0279285
-0.0937647
0.0658392
-0.0284197
0.141886
0.0801753
-0.0196279
0.188575
-0.0144307
-0.0842529
0.16587
0.00168207
-0.000721154
0.0118468
0.000155624
-0.0120022
-0.0498454
0.123217
-0.0733855
-0.00422381
0.00124813
-0.100935
0.101365
-0.000425693
0.0113671
0.0205959
-0.0319625
0.314324
-0.217332
-0.0970451
0.0773986
0.0266138
0.0501981
-0.0589604
0.516533
-0.239114
-0.277494
0.0171424
0.00220535
0.00599228
-0.00126877
-0.00472155
0.163718
0.0259105
0.312297
-0.125495
-0.186861
-0.0468172
0.0394478
-0.107053
0.130237
-0.0231914
-0.0130892
0.0223141
-0.00922608
-0.269802
0.178384
0.603118
-0.0565117
-0.54671
-0.0884739
0.131738
-0.0432687
-0.139622
-0.0143309
-0.502652
0.338246
-0.0025225
0.503644
0.0993761
-0.105572
0.0046404
0.230802
-0.212663
-0.0181635
0.0210632
-0.136194
-0.249924
0.18145
0.203683
0.192654
-0.14361
0.00574412
0.137839
-0.00801292
-0.0104497
0.182962
-0.158856
-0.024105
-0.0020821
0.0116468
-0.292885
0.485639
-0.192876
-0.422577
0.0151414
0.407395
0.00281852
-0.156945
-0.148108
-0.174435
-0.100272
0.134847
-0.034575
-0.272147
0.180682
0.0914487
-0.109569
-0.0503236
0.102707
-0.0253026
0.330291
-0.558468
0.228149
-0.00940835
0.0126334
-0.00322493
0.309486
0.359055
-0.105652
0.109449
-0.00378014
0.0115021
0.00392238
-0.00536984
-0.00991436
0.0152834
0.0256427
0.0195712
-0.0326622
-0.0460284
-0.0940159
0.0894291
-0.118437
0.0290034
0.00597052
2.41424e-05
0.229957
-0.383139
0.153165
-0.0131068
0.00265269
0.131714
-0.159871
0.177742
-0.000510699
-0.00828929
2.24714e-05
0.0598835
-0.0599059
-0.354451
0.158533
-0.13446
0.0341861
-0.108604
0.312922
-0.0160704
0.0274377
-0.021371
0.00399313
0.0173788
0.0276331
0.18959
-0.217282
0.0509904
-0.0105272
-0.00439068
0.014919
0.619037
-0.331837
-0.287204
0.382858
0.236176
0.129141
-0.0029244
-0.011249
0.00184089
-0.0458984
0.0733736
-0.0274739
-0.22178
0.0292764
0.134437
-0.123337
-0.0110948
0.16402
-0.287489
0.32486
-0.379181
0.0543053
0.0502322
-0.0835578
0.0333275
0.00590195
0.143638
-0.0902131
-0.0534298
0.166277
0.31225
-0.478537
-0.076038
-0.0602184
0.0872545
0.0464978
-0.133762
0.036239
-0.14349
0.107268
-0.271064
0.094689
0.176365
-0.204686
-0.0198227
-0.133139
0.0260756
-0.175723
0.0872433
-0.136424
0.0787888
0.00964798
0.165319
-0.132361
-0.0662933
-0.120771
0.0709115
-0.0913117
0.079471
-0.0316384
-0.081891
0.0125544
-0.0262603
0.0137064
-0.00160028
0.0373108
-0.0767841
0.0064903
-0.0117412
0.000470561
0.0112709
-0.0154164
-0.110946
0.126338
0.0220594
-0.0750163
0.00249466
0.150664
0.193829
-0.344534
0.10535
-0.189598
-0.134058
0.102422
-0.00544455
0.184221
-0.178815
0.22962
-0.438242
-0.453847
0.239147
0.214596
0.123374
-0.0964221
-0.0269385
0.000924442
0.000617524
-0.212139
0.0618869
0.0100785
-0.00164607
0.185251
-0.478274
0.0253214
-0.0712181
-0.0317571
0.0966514
-0.0649051
0.0217867
-0.00220315
-0.100378
-0.0340825
-0.024811
0.215457
0.104038
0.161742
0.00305149
0.0187371
0.0870277
0.0566063
-0.141543
0.126099
0.0220885
-0.319087
0.337639
-0.077693
0.0942029
-0.0165159
0.0177359
-0.0544106
-0.0511575
0.190008
-0.0246391
-0.165386
0.12142
-0.109704
-0.011719
-0.245899
0.216475
-0.337183
-0.0193154
-0.188396
0.335043
-0.010196
0.0218644
-0.0122564
-0.00960758
-0.412576
-0.152715
0.0880823
-0.0378498
0.00513895
-0.131306
0.0309274
0.00746807
-0.0096953
0.002227
-0.00830641
-0.013127
-0.104059
0.0496513
-0.02268
0.112106
0.170129
-0.144487
0.142279
-0.246759
-0.0474881
0.0265099
0.3385
-0.365092
0.000537131
-0.423163
0.392593
0.159579
-0.13886
-0.0207275
-0.0189915
-0.100974
0.11997
0.106916
-0.0196694
-0.0082941
0.0572317
-0.241329
0.00348025
0.23781
0.00280497
0.486277
0.110763
0.00739052
-0.00514448
0.00231166
-0.145036
0.142708
0.0426199
0.443647
0.24013
0.239191
-0.479328
-0.00251936
0.0124486
-0.00993117
0.0280309
-0.224778
0.00892984
0.0372854
-0.0462149
0.00499103
0.000982223
0.118097
0.0972098
-0.134053
0.0368471
-0.232467
-0.151566
0.384053
0.00252781
-0.00233772
0.0126479
0.155138
-0.167816
0.0599261
-0.250893
0.0191507
0.337095
0.186965
-0.524051
0.0112872
-0.250724
-0.155089
-0.187199
0.342265
-0.0285693
0.156541
-0.127956
0.00361625
-0.00194159
-0.00167382
0.022689
-0.197089
0.174373
-0.183017
0.180111
0.00289874
-0.117165
-0.000791169
0.011381
-0.00327497
-0.178109
0.110651
0.0243889
0.133364
-0.15778
0.0291615
-0.0131804
-0.0159797
-0.357491
0.383929
0.0157055
-0.330079
-0.191305
0.521315
0.0485889
0.255563
-0.0467517
-0.00375474
0.0505074
-0.0674071
0.122764
-0.0553488
-0.0305603
-0.104493
0.128933
-0.0226155
-0.106323
0.0165583
-0.540992
0.312346
0.228623
0.376732
0.220308
0.126209
-0.129632
0.242815
0.0714561
-0.122013
-0.41899
0.199792
-0.231791
0.0320235
0.125406
-0.0136099
-0.111802
-0.396289
0.435914
-0.0397415
0.0906711
-0.113572
0.0228947
0.03095
-0.05018
0.0579301
-0.00774809
0.00874132
0.120185
-0.0030792
-0.00206386
0.00514273
-0.0105942
0.131539
0.479378
0.119469
-0.126701
0.00723483
-0.521189
0.243619
0.277449
0.142742
0.101777
-0.0192471
0.0318014
0.0343166
-0.00905815
-0.00126001
-0.0334828
0.0203026
-0.191619
0.308528
-0.116998
-0.191328
0.2189
0.117998
-0.083237
-0.0347733
0.222409
-0.216491
-0.00596285
-0.195851
-0.188594
0.38435
-0.00916964
-0.0161902
0.101647
0.0146044
0.00113117
-0.00462901
0.00349869
-0.0048061
-0.122444
0.0550441
-0.341786
0.309514
0.0322553
0.00314143
-0.333274
0.0865906
-0.0458304
-0.0407615
-0.0842782
-0.0504589
0.257798
0.488049
0.138958
-0.627002
0.0217357
0.0942192
0.110235
0.00784152
-0.118075
0.00780106
-0.251293
0.027156
-0.629054
0.365642
0.263335
0.0033798
0.000236633
-0.248762
-0.0223129
-0.0169562
-0.167428
0.184379
0.364787
-0.517612
0.00745491
-0.00919276
0.0017354
-0.478653
0.168902
-0.0179835
0.00443569
-0.274982
-0.130488
0.405441
0.0206031
-0.121353
0.190744
-0.162361
-0.0283808
0.133123
-0.0654361
-0.0676978
0.0069847
-0.31286
0.0828299
-0.270805
0.158268
0.11252
0.597376
-0.350132
-0.247381
-0.0344696
-0.05425
0.0887216
0.0624957
-0.236858
0.174344
-0.0147588
0.0096797
-0.0549421
0.262777
-0.207886
-0.0601371
0.0247719
0.0353653
-0.00340771
0.00424913
-0.000840929
0.0127874
-0.180252
0.167447
-0.156873
0.411429
-0.254719
-0.00100424
-0.00780294
0.00880726
-0.0347356
-0.0223896
0.0571256
0.233492
-0.143906
0.113067
0.00970462
0.0339144
-0.280694
-0.00800031
0.000952845
0.00704735
0.328887
-0.178268
-0.0681666
-0.0658897
0.473019
-0.217002
-0.256093
0.429585
0.167689
0.0540063
-0.0450749
0.0120757
0.294518
0.203945
-0.185177
0.0638371
0.00062544
0.00726786
-0.00789245
-0.056183
0.0649098
-0.00872807
-0.0144821
0.00395524
-0.12458
-0.223622
-0.000508336
-0.0112325
0.107605
0.349353
-0.607868
0.211436
-0.224762
0.215263
-0.404387
0.299776
0.28947
-0.550484
0.261015
0.0102549
-0.00326378
-0.00698947
0.031722
-0.0149431
-0.0167776
-0.281875
0.101166
-0.435885
0.53515
0.154012
0.0479479
0.0771417
0.269484
-0.00836109
0.00735547
-0.0106687
0.00913534
0.00679766
0.00217138
-0.183075
-0.0877462
-0.0820472
0.256066
0.260397
-0.0331556
-0.171817
0.0759995
-0.107769
-0.14487
0.374822
0.185022
-0.515138
-0.10699
0.0860404
0.0209458
-0.00801045
-0.0133597
0.134024
-0.0368078
-0.0100847
0.15968
-0.0157827
-0.143888
-0.408253
0.220071
0.164809
-0.00508897
-0.159736
0.124791
-0.0117152
0.0161258
-0.0168578
0.000731818
0.160035
-0.180889
0.052626
0.0231627
-0.075787
-0.129591
0.0453156
0.0640838
0.430025
0.00325302
0.00556884
-0.00882291
-0.00196948
0.00522134
0.00155884
-0.00109986
-0.000458714
-0.0419513
-0.0511883
0.0761166
-0.0249261
-0.0873737
0.178821
0.0572443
0.00869832
-0.0268237
0.0788354
-0.0520071
-0.192193
0.186709
-0.583845
0.368575
-0.0119945
0.0111542
0.000841243
-0.231798
0.228717
0.00304162
-0.476075
0.319031
0.0456263
0.245931
-0.22538
-0.00647062
-0.00220584
-0.119962
0.232951
-0.384776
0.151725
0.00366877
0.161126
0.0148524
0.00181952
-0.135096
-0.112415
0.247455
0.00252391
0.013249
0.0687938
-0.21882
0.150008
0.0135353
0.107582
-0.121108
-0.00185699
-0.00588638
0.00774396
-0.294582
0.0850619
-0.0571292
-0.226496
0.111488
0.11498
0.182506
-0.169738
-0.0643757
0.00819243
-0.0126536
-0.116511
0.00810414
0.108405
0.160966
-0.00449906
0.00512506
-0.164917
0.325407
-0.160479
0.00232423
-0.00750388
0.00518014
-0.0201864
-0.170352
-0.0155838
0.0015559
0.0140282
-0.0182595
0.0172762
0.000984046
0.00566253
-0.00333832
0.00870552
0.131416
-0.140114
-0.154856
-0.148335
0.30315
0.113608
-0.305303
-0.325831
0.657509
-0.331672
-0.18121
0.417367
-0.101119
-0.316281
0.00806154
-0.170421
-0.00318645
0.0123764
-0.150479
0.138091
-0.0618565
-0.116255
0.126779
-0.214186
-0.368221
0.243533
-0.00680148
-0.186169
0.193003
-0.182815
0.166824
0.0159505
-0.15391
-0.152268
-0.134804
0.192443
0.00302546
-0.000322869
-0.00270338
-0.0298353
-0.0582889
0.0881269
0.0247279
0.174071
-0.198804
-0.147403
0.00471619
0.142668
-0.00889962
-0.0030934
0.224005
-0.0061028
-0.00355869
-0.563076
0.205502
0.140004
0.0097402
-0.149773
-0.143305
0.205785
-0.185046
0.356861
-0.171868
0.105524
-0.14459
0.039048
-0.165667
0.425052
-0.142119
0.374957
-0.0556881
0.106841
-0.101728
0.280663
0.102663
0.022734
-0.307445
0.159297
-0.0171423
0.00187398
0.0152682
-0.0613987
0.0727752
-0.0113741
0.0148732
-0.108945
0.0940728
0.0933702
-0.0938043
0.134169
-0.33215
0.197944
-0.00253256
-0.130488
0.118468
0.0120225
0.528162
0.00137447
-0.0120335
-0.213322
0.00291279
-0.00901654
0.215
-0.204086
-0.0109302
-0.0601878
0.0451756
0.0201483
-0.0106942
0.000582006
-0.130521
0.0840945
0.0464178
0.120543
0.197614
-0.318219
-0.0330774
-0.0206755
0.0658506
0.0270199
-0.117391
-0.109133
0.328256
0.157264
-0.259529
0.390977
-0.131448
0.0673338
0.104197
0.261702
-0.3033
0.0415641
0.000720059
-0.0210543
-0.00749121
0.274701
0.302807
-0.0603337
-0.0631309
-0.113688
0.0358388
0.0778453
-0.307295
0.152177
-0.00043571
0.00346113
-0.0107724
-0.0072109
0.125387
-0.0237329
-0.221619
0.166637
0.0145536
0.0198617
0.162392
-0.168323
0.480293
-0.312103
-0.00533232
0.00646339
-0.12701
0.151373
0.379997
-0.26438
-0.115648
0.425105
-0.17253
-0.252668
-0.198576
0.171362
-0.171302
0.135995
0.0353303
-0.00139233
-0.00267228
0.00160184
0.0041709
0.0312724
0.131521
-0.162778
0.00831476
-0.00613841
-0.00217527
0.076226
-0.222442
0.14623
0.15623
0.167626
-0.323892
-0.0877945
0.0447176
0.0430816
-0.230183
-0.223767
-0.0152195
-0.0675987
0.0828164
-0.403589
0.592469
-0.24326
-0.349328
0.122658
0.0873319
-0.210023
-0.0763381
-0.00365183
0.000956125
0.00269588
-0.00493724
-0.00306256
-0.0731369
0.101444
-0.0283042
0.00240958
-0.0196437
0.0172345
-0.000199177
0.00507961
-0.00487996
0.127317
0.0184442
-0.0813942
-0.21585
-0.150098
-0.157386
0.00967973
0.140922
0.499709
0.0363911
-0.536194
0.147885
-0.145589
0.00615154
-0.0455118
-0.0376106
-0.114227
0.544846
-0.117384
0.147577
-0.030212
-0.00832212
-0.110439
0.124599
-0.0141569
-0.00572337
-0.00860251
0.126805
-0.101901
0.438014
-0.165892
0.0509962
-0.0536477
0.00265256
0.0112431
0.188578
-0.00129571
0.00582133
0.0176805
-0.298286
-0.330845
0.140847
0.239108
0.441762
-0.28019
-0.161657
0.220342
-0.0290479
0.11415
-0.0983332
-0.0158105
-0.0142718
0.0348684
0.00625908
-0.00877884
0.0637486
0.106379
0.307613
-0.473357
0.02198
0.0722182
0.230932
0.0945419
0.00599049
-0.046629
0.0169095
-0.0147205
0.128664
-0.119523
0.00198677
0.00890704
0.00996385
-0.00760319
0.00452406
0.0292483
0.108806
-0.138039
-0.0275604
0.187599
0.00880652
-0.00931463
0.195537
-0.170811
0.0858923
0.0851998
-0.171112
0.0921935
0.0257945
-0.027771
0.339971
-0.139633
-0.200396
0.0535274
0.0113787
0.325854
-0.169659
-0.019783
-0.0175652
0.0373485
-0.00137966
-0.375871
-0.187286
0.172558
0.150859
-0.0453551
0.114942
-0.0145759
0.189303
-0.146178
-0.0431321
-0.346937
0.551908
-0.205057
0.0343633
-0.213605
-0.180991
0.209976
-0.0289977
-0.126033
-0.114934
0.24098
0.0116878
0.0532092
-0.0649012
0.273943
-0.458857
0.184893
0.0178699
-0.0526049
-0.00112474
0.00268399
0.170504
0.155315
-0.188977
0.161419
-0.0386095
-0.132668
-0.488447
0.249265
0.030117
0.00419999
0.00201076
-0.00289792
0.0105604
0.00536078
-0.0159213
0.202458
0.25086
-0.453402
0.0173706
-0.20884
0.191426
0.0111756
0.182315
-0.193526
-0.229304
-0.0135604
0.242839
-0.108129
0.0358221
0.0723106
0.0295234
0.378454
-0.598532
0.220077
-0.0253894
0.124484
-0.0990844
-0.139471
-0.0362592
-0.0477085
0.0167935
0.0309157
0.157592
-0.00132886
0.0290266
-0.21003
-0.230936
0.0627299
0.168162
0.0906456
0.131185
-0.0181883
-0.112994
0.126631
-0.24027
0.365895
-0.125682
-0.000445352
0.0154903
-0.00277784
-0.0127118
-0.0246587
0.0200656
-0.00379196
0.0131142
-0.0348114
0.0150294
0.00460552
-0.0128806
-0.00270202
0.366245
-0.184311
-0.181991
-0.337198
0.171609
0.185296
0.118278
-0.303608
-0.0303568
-0.0634047
-0.100126
-0.0494348
-0.124589
-0.0133212
0.0128319
0.000489107
-0.323332
0.158424
0.185035
0.339136
-0.524257
0.378804
-0.0274775
-0.067025
0.303943
0.214529
0.135226
-0.217243
0.0820156
0.0919895
0.102918
0.0648767
-0.0594837
-0.0053927
-0.101502
0.213866
-0.11239
-0.333997
-0.187292
-0.447578
0.265551
-0.13419
0.330608
-0.196484
0.184926
-0.620911
0.128576
-0.109487
-0.0191026
-0.0735347
-0.034591
-0.0374582
0.123333
-0.0251279
0.00616997
0.0189588
-0.208817
0.346114
-0.137339
0.147715
0.00129688
-0.00290025
-0.000506096
-9.7732e-05
0.000771672
0.0590262
0.0115711
-0.0705974
0.058365
0.0483103
-0.106678
0.0461829
0.030663
0.430105
-0.124345
0.117991
0.00633858
0.0133371
-0.244323
-0.42572
0.150707
-0.193165
0.200758
-0.00757651
0.00423232
0.114384
-0.288741
0.174341
0.123677
0.00751276
-0.0567515
0.0415305
0.302144
-0.196155
-0.3054
0.120311
-0.155715
0.13208
0.0236287
0.0100934
0.365487
0.207077
-0.572553
0.0337396
0.0311372
-0.125796
0.311067
0.0667549
-0.097108
0.463725
-0.223597
-0.103212
-0.17872
0.0724694
-0.0586664
-0.0343343
0.0929972
0.0645048
0.222738
0.0317143
-0.0892495
0.00533016
0.00427629
-0.0952419
-0.00566777
0.00382119
0.00184806
-0.343087
0.0975479
0.00153543
0.0145897
-0.0819473
0.0551268
-0.400272
0.297345
0.102888
-0.00602781
-0.0476203
0.013986
-0.106503
0.0733909
0.0331138
-0.230634
-0.190251
-0.120235
0.310518
0.428229
-0.444146
0.0157949
0.312411
0.252532
-0.0378663
-0.214722
-0.142806
0.138233
0.00456978
-0.115852
-0.0223171
0.138177
-0.192076
0.312556
-0.224504
0.433094
-0.10463
0.0370535
-0.244091
0.423461
-0.179395
-0.0125835
0.0111274
0.00145565
-0.188531
0.0289087
0.000981618
-0.0162671
0.0152855
0.0499436
-0.0715113
0.244444
-0.473988
0.229495
0.0270601
0.242007
-0.534307
0.292157
0.194764
-0.0347157
0.108165
-0.133328
0.0251518
0.0874175
-0.0283906
0.142651
-0.133935
0.335204
-0.593578
0.258382
0.121846
-0.0399406
-0.0877122
0.043074
0.0446395
0.120893
-0.107352
0.0197446
-0.0875094
0.0677663
0.138104
-0.0960455
-0.0420749
0.118546
-0.137536
-0.0717284
-0.0534614
0.133099
0.00399278
-0.137085
0.0892021
-0.190725
0.231042
0.190236
0.0696485
-0.0156408
0.00397066
-0.0341225
0.21444
-0.180363
-0.429844
0.261423
-0.0116741