/*--------------------------------*- C++ -*----------------------------------*\
| =========                 |                                                 |
| \\      /  F ield         | OpenFOAM: The Open Source CFD Toolbox           |
|  \\    /   O peration     | Version:  v2012                                 |
|   \\  /    A nd           | Website:  www.openfoam.com                      |
|    \\/     M anipulation  |                                                 |
\*---------------------------------------------------------------------------*/
FoamFile
{
    version     2.0;
    format      ascii;
    class       volScalarField;
    location    "1000";
    object      p;
}
// * * * * * * * * * * * * * * * * * * * * * * * * * * * * * * * * * * * * * //

dimensions      [0 2 -2 0 0 0 0];


internalField   nonuniform List<scalar> 
13917
(
-0.0978829
-0.00370457
-0.124727
-0.0603174
-0.0041131
-0.00387594
-0.0827629
0.00595738
-0.108093
-0.0856763
0.00444791
-0.0443259
-0.0408961
0.021422
-0.00894148
-0.0988448
-0.00403155
0.00215225
-0.107139
-0.0861543
-0.020066
-0.0147
-0.0967702
-0.0143573
-0.051212
-0.0157909
0.0126884
-0.0861251
-0.00536582
1.81652e-05
-0.0860922
-0.133576
-0.0511763
-0.110658
-0.00642215
0.00721694
-0.0273702
-0.0166103
-0.0849013
-0.0304615
-0.00203398
-0.00350377
-0.0983738
-0.123793
-0.121308
-0.041771
-0.0216105
-0.0836858
0.0105331
-0.00654068
-0.0438225
-0.0586801
-0.133524
-0.0295881
-0.0314699
-0.0614937
-0.0857769
-0.0943334
-0.00349514
-0.03661
-0.0499627
-0.00392136
-0.000147482
-0.051341
-0.0968951
0.00100349
-0.00281383
0.00712945
0.00361966
-0.116634
-0.105602
-0.109159
-0.0599572
-0.00359038
-0.0201171
-0.0424574
-0.00749326
-0.00357598
-0.0428414
-0.051452
-0.0203288
-0.00485992
-0.0595496
-0.123051
-0.0305341
0.0094568
-0.132555
-0.0299133
-0.0297006
-0.00398269
-0.00353187
-0.100486
0.0138675
-0.00635411
-0.0271262
-0.00378365
0.0118092
-0.00786128
-0.0303759
-0.00137055
-0.000769598
-0.000711285
-0.0205283
-0.00889943
-0.00754629
-0.168113
-0.0875301
-0.00382197
-0.00341718
0.0141776
-0.0442467
-0.109031
-0.00640306
-0.0849285
-0.101449
-0.0385042
-0.107723
-0.00221144
-0.121192
-0.0588643
-0.00501471
-0.00387823
-0.00132792
-0.0848695
-0.142129
-0.119825
-0.0527956
-0.0187492
-0.00986692
-0.0873875
-0.117542
-0.016727
-0.163131
-0.0374585
-0.132973
0.0155634
-0.0397847
-0.171014
-0.0130577
-0.0161412
0.0138043
-0.00366743
-0.173407
-0.0191656
-0.05659
-0.00298442
-0.106939
0.00100327
-0.0861065
-0.0298587
-0.0309203
-0.000585082
-0.0561923
-0.0594081
0.0144186
-0.00952038
-0.00875889
-0.171533
-0.0018438
-0.00216661
-0.0262541
-0.0853431
-0.0187826
0.0124407
-0.0739311
0.00293697
-0.132039
-0.0738529
-4.70694e-05
-0.0116998
-0.0134573
-0.146734
-0.108757
-0.0440405
-0.0518598
-0.00117227
-0.0616314
-0.0553588
-0.116917
-0.0177718
-0.095133
-0.013812
-0.0428208
-0.0682455
-0.118425
-0.0143408
-0.042279
-0.0643232
1.54907e-05
0.00753121
-0.0494058
-0.12144
-0.0742881
-0.0950651
-0.00649423
-0.137529
-0.0538758
-0.1644
-0.00649062
-0.010089
-0.0245148
-0.113015
-0.168769
-0.0243566
0.0117637
-0.00966213
-0.0314664
-0.00378626
-0.057935
-0.0194211
-0.0107561
-0.00221184
-0.00173453
-0.0848706
-0.133867
-0.0144645
-0.0931092
-0.0211208
-0.0031277
-0.00304867
-0.0764254
-0.0706266
-0.061357
-0.0425535
-2.03604e-05
0.0175632
-0.134768
-0.00327876
-0.00329454
-0.00148291
-0.00296713
-0.00289404
-0.107885
-0.0829387
-0.0176325
-7.16783e-05
-0.0681046
-0.117264
-0.00254728
-0.0422115
0.0110601
-0.18108
-0.0703913
-0.0943924
-0.0453437
-0.0195504
-0.0732719
-0.0694117
-0.00776413
-0.106327
-0.0252247
-0.0844567
-0.0591946
-0.0467911
-0.0544148
-0.0164712
-0.00178433
-0.0527167
-0.00470205
-0.00548472
-0.14189
0.0185247
-0.00433655
-0.00339318
-0.00930645
-0.00348674
-0.0596747
-0.0409301
-0.0732614
-0.00422772
-0.1813
-0.0867964
-0.0381755
-0.00602782
-0.0334845
-0.00198433
-0.00522594
-0.14319
-0.00204553
-0.117585
-0.00553083
-0.0809737
-0.00108995
-0.0104906
-0.0160455
-0.0174686
-0.0924982
-0.0137668
0.00537636
-0.0465173
0.0187921
-0.0029534
0.00344663
-0.179744
-0.00254333
-0.082525
-0.00457638
-0.0355023
-0.00444878
-0.044435
-0.00602147
-0.0135013
-0.0504371
-0.00217914
-0.0467856
-0.044824
-0.0414417
-0.167905
-0.111156
-0.00935521
0.000107698
-0.0367132
0.00186822
-0.153982
-0.0893769
-0.0455216
0.000565545
-0.0201978
-0.00630452
-0.122885
0.00219546
-0.124761
-0.0407827
-0.00919561
0.0078448
-0.0116603
-0.00256579
-0.119037
-0.00327744
-0.145604
-0.0301618
-0.147096
-0.00109983
-0.0856126
-0.0135098
-0.0495194
-0.00959242
-6.14507e-05
-0.00349234
-0.111373
-0.162837
-0.0286961
-0.0112518
-0.109756
-0.170302
-0.0613292
0.0204682
-0.0021201
-0.0196843
-0.187329
-0.0224216
-0.00219888
-0.00414115
-0.0364391
-0.0103747
-0.0491331
-0.0761568
-0.032679
-0.00458114
-0.137605
-0.0996496
-0.00984029
-0.0295711
-0.00348603
-0.101588
-0.00273337
-0.0958362
-0.138345
0.000366428
-0.0310607
-0.0271377
1.67966e-05
0.0115145
-0.00321528
-0.0660387
-0.0372329
-0.00790733
-0.0380748
-0.0958676
-0.000904385
-0.0709178
-0.0736464
-0.00312938
0.00936394
-0.0138386
0.0015885
-0.00661961
-0.0866951
0.00102985
-0.0318237
0.0167973
-0.00683636
-0.0256798
-0.0706602
-0.192926
-0.0343552
-0.090961
-0.0218285
-0.00462241
-0.124564
-0.0305307
-0.0939162
-0.0462216
-0.0184947
-0.0187021
-0.0100389
-0.0401439
0.000997909
-0.0302592
-0.00938939
-0.0152442
-0.071294
0.0081027
-0.00148669
-7.01021e-05
-0.152338
-0.0255403
-0.0174604
-0.0323219
-0.0477268
0.0181423
0.000907125
-0.108616
-0.123538
-0.00245274
-0.00161226
-0.0201272
-0.0187591
-0.00153999
-0.0171746
-0.00167735
-0.00246026
-0.0777481
-0.0220356
-0.0320642
-0.179666
-0.0800962
-0.0107968
-0.0550594
-0.0730649
-0.0229778
-0.143268
-0.00122909
-0.0410758
-0.000913262
-0.00280055
-0.0273021
-0.0126887
-0.0416839
-0.00256051
-0.178204
-0.0405206
-0.106275
-0.00267444
-0.0194386
-0.0481282
-0.0605312
-0.0368638
0.0209438
-0.0110944
-0.0178181
-0.015288
-0.0143119
-0.0106357
-0.0261929
-0.16506
-0.0492132
-0.0105962
0.0011872
-0.14633
-0.0419795
-0.0784612
-0.171059
-0.0742115
-0.0990969
-0.176952
0.000745804
0.000851419
-0.0130883
0.000497997
-0.00271959
-0.0248874
-0.0662139
-0.00364121
-0.0301498
-0.0280637
-0.0999548
-0.024781
-0.115983
-0.107588
-0.00319723
-0.00547954
0.00121026
-0.0289352
-0.0296766
0.0234595
-0.0828014
-0.048229
-0.0661319
-0.0307847
-0.0277781
-0.0540092
-0.0156535
-0.175937
-0.0182901
-0.00273038
-0.0725311
-0.0012869
-0.0203688
-0.0483666
-0.187345
0.0164793
-0.0265591
-0.0707036
-0.00345375
-0.0597473
-0.0212241
-0.0294605
-0.0308987
-0.0264108
-0.0580679
-0.000586633
-0.00894306
-0.00267788
-0.0102578
-0.018971
-0.00420841
-0.0632274
-0.00348533
-0.105336
-0.0156844
-0.0159589
-0.04676
-0.0916549
-0.00518299
-0.0811902
-0.00560755
-0.105385
-0.0814991
-0.00535763
-0.0544849
-0.00126452
-0.0434931
-0.000401909
-0.161763
-0.0781338
-0.18122
-0.00885418
-0.0147626
-0.00312858
-0.0409075
-0.104237
-0.00191498
0.00576629
-0.0554694
-0.14419
-0.00380563
-0.097032
-0.0861648
-0.0102845
-0.157785
-0.00770602
-0.00444464
-0.141502
-0.00135896
-0.144114
-0.000283181
-0.0418872
-0.0147314
-0.116746
-0.00404756
-0.00376299
-0.129443
-0.077184
-0.000724643
-0.108519
-0.176534
-0.0714398
-0.00528026
-0.129067
-0.000347894
-0.0450204
0.00399568
-0.00430186
3.68644e-05
-0.000813124
-0.082161
-0.0943464
-0.00141698
-0.00808894
-0.0371635
-0.112972
-0.0281164
-0.134282
-0.0296842
-0.00371638
-0.00194008
-0.0441648
-0.0720275
-0.0861244
-0.105907
-0.0648792
-0.0832347
-0.119343
-0.00649175
-0.0675843
-0.0386307
-0.177364
-0.0402156
-0.0969352
-0.0187841
-0.00418662
-0.0575536
-0.00157998
-0.0769021
-0.0978946
-0.00412431
-0.0738115
-0.00728775
-0.000714622
-0.0982711
0.00456717
-0.00670238
-0.0755024
-0.0418121
-0.0043867
-0.000480965
-0.0996879
-0.0286477
-0.00434247
-0.00185704
-0.00688818
-0.0985123
-0.000563412
-0.083112
-0.00566876
-0.0142439
-0.0490524
-0.135236
-0.0292743
-0.175935
-0.145447
0.00596208
-0.0514609
-0.0102327
-0.00792476
-0.0905116
-0.175714
-0.0214864
-0.0283641
-0.00397436
-0.00585742
-0.0113345
0.000819689
-0.0785731
-0.0482394
-0.0660348
-0.0783535
0.00959486
-0.0230732
-0.00212645
-0.055954
-0.0770001
-0.116279
-0.00615012
-0.0030357
0.000390451
-0.0145913
-0.0050458
-0.00180986
-0.00336783
-0.0227925
-0.127742
-0.132837
-0.0102606
-0.11891
-0.00421278
-0.0895352
-0.00540437
-0.00954712
-0.186895
-0.0845045
-0.000113135
-0.059175
-0.000373234
-0.00852589
-0.0665279
-0.0850951
-0.0160117
-0.154886
-0.0455012
0.000694655
0.0010191
-0.00307348
-0.176627
-0.0698898
-0.00908801
-0.00709499
-0.141569
0.0181393
-0.0533947
-0.145833
0.00411318
-0.0136254
-0.00931932
-0.025878
-0.16427
0.000821583
-0.074872
-0.0653754
-0.0802386
-0.180592
-0.00685543
-0.0792031
-0.131086
-0.0269523
-0.0506524
-0.00931656
-0.0836526
-0.0052202
-0.193468
-0.0331813
-0.0036801
-0.150445
0.00026766
0.00415441
-0.0292962
-0.00718999
-0.0618649
-0.174667
-0.00476412
-0.159357
-0.0733525
-0.000386861
-0.0423958
-0.0344563
-0.022658
-0.039096
-0.0577291
-0.00356496
-0.00264246
-0.0448963
-0.0810754
-0.00987084
-0.191449
-0.106133
-0.0991917
-0.0775761
-0.0191413
-0.154787
0.00948689
-0.00427584
-0.086825
-0.0443442
-0.127905
-0.0118401
-0.0110247
-0.0110987
-0.114784
-0.049857
-0.00512444
-0.143389
-0.0160449
-0.0105016
-0.0635272
0.00748234
-0.0014687
0.019696
-0.012021
-0.193089
-0.0586837
-0.00692598
-0.0908018
-0.00420687
-0.00351526
-0.00360815
-0.0052914
-0.0565107
-0.0308579
-0.00467504
-0.011674
0.000104528
-0.00974705
0.00414627
-0.0302872
-0.100519
-0.00116335
-0.104218
-0.0102015
-0.0746088
-0.000947008
-0.00383613
-0.0894721
-0.0492309
-0.138917
-0.094321
0.0011929
-0.00771844
-0.00837357
-0.0423527
-0.134569
-0.0802172
0.00710741
0.0211145
-0.0389431
-0.127015
-6.78906e-05
-0.00421364
-0.000616696
-6.12478e-05
-0.0749365
-0.0844221
0.00157459
-0.105685
0.000663726
-0.00435351
-0.00607712
-0.0308058
-0.00992882
-0.0282475
-0.036287
-0.014268
-0.14178
-0.00431899
0.0059065
-0.0259239
-0.101377
-0.143644
0.00173933
-0.183945
0.0212032
-0.099748
0.00167406
-0.012008
-0.00429042
-0.047514
-0.0428188
-0.0261016
-0.08196
-0.0261069
0.00849221
-0.028579
-0.122309
-0.0500836
-0.128117
-0.027763
-0.00811828
-0.0291135
-0.0482199
-0.00459523
-0.0706845
-0.000836039
-0.189723
-0.0779596
4.95828e-06
-0.00907317
-0.049633
-0.0122363
-0.00960311
-0.0679209
-0.012458
0.00282001
-0.0191539
-2.29935e-05
-0.00956713
-0.0213966
-0.16072
-0.00377047
-0.0125589
0.000537284
-0.0667187
-0.0211028
-0.109022
-0.00913179
0.000444427
-0.000559034
-0.00997923
-0.0985377
-0.00600705
-0.0606671
-0.116523
-0.0995727
-0.000489804
0.00220957
-0.0902417
-0.00331689
-0.0101923
-0.0142312
-0.121578
-0.0484261
-0.129246
-0.046587
-0.176588
-0.00977116
-0.0106987
-0.0096467
-0.000828075
0.00180002
-0.0260533
0.000165179
-0.162743
-0.0302379
-0.0170064
0.00396148
-0.00322767
-0.0041851
-0.0809935
-0.0336538
-0.103991
-0.033346
-0.165945
-0.0498601
-0.0783081
-0.164809
-0.0253957
-0.0838531
-0.0435368
-0.163993
-0.000849558
-0.0620603
-0.000628919
-0.00478142
-0.0300767
-0.00069938
-0.00334812
-0.00457054
-0.0429975
-0.0597753
-0.00422569
-0.0309372
-0.124472
-0.0741968
-0.0768382
-0.116439
-0.0126345
0.00129462
-0.0260817
-0.0936958
-0.00039095
-0.173712
-0.00243809
-0.0120986
-0.0357162
-0.0235147
-0.00244216
-0.000978804
-0.031714
-0.0554748
-0.0173936
-0.085578
0.00287932
-0.0151767
-0.133836
-0.0440662
-0.0102819
-0.00394007
-0.0986837
-0.0252138
-0.00162783
-0.000280691
-0.00697287
-0.00947552
-0.183901
-0.00427455
0.011384
-0.0617526
0.00249175
-0.0111203
-0.00409257
-0.0253761
0.000204629
-0.0441917
-0.120454
-0.00352943
-0.0166567
-0.00955685
-0.0499928
-0.0109609
-0.146931
-0.136094
-0.0472963
-0.142786
-0.0854828
-0.000243083
-0.147771
-0.00445298
-0.159306
-0.00397562
-0.0407914
-0.0574203
-0.0958213
-0.0428619
-0.0125422
0.0194731
-0.179608
-0.000142824
0.00209304
-0.000764875
-0.0267111
-0.137828
-0.0256982
-0.0457517
-0.00889119
-0.105065
-0.00399371
-0.118957
-0.120748
-0.00026988
-0.00234123
0.005676
-0.0878329
-0.0433383
-0.000326883
-0.0824356
-0.0533498
-0.00921388
-0.0032398
-0.0175545
-0.0473004
-1.34915e-05
-0.000221986
-0.00205757
-0.00106243
-0.00367445
-0.155355
-0.0602965
-0.0490364
0.000249072
-0.0966541
0.000907926
0.000146953
-0.0201583
-0.0704092
-0.0619058
-0.000413309
-0.0723686
-0.0035716
-0.0102748
-0.112182
-0.0187282
0.00091752
-0.0997445
-0.146453
-0.161707
-0.0588133
1.49349e-05
-0.0425858
-0.127341
-0.015869
-0.0609674
-0.00233686
-0.0560125
-0.0654056
-0.000862884
-0.0690991
-0.00454048
-0.0576904
0.00973163
-0.0267964
-0.070606
-0.0678377
-0.0454852
-0.0529365
-0.00519221
-0.171667
-0.0337884
-0.0237482
-0.00381658
-0.00182351
-0.000795283
-0.00921108
-0.0437388
-0.179689
-0.0163005
-0.0290469
-0.0956119
-0.0263299
-0.0355895
-0.0314286
-0.166222
-0.0106414
-0.00884008
0.00385679
0.000335277
-0.00517581
-0.166344
-0.0561099
-0.0472415
0.0202621
-0.00523273
-0.0283043
-0.126755
-0.158116
-0.00490377
-0.0520075
-0.0209451
-0.146903
0.00396317
-0.0261397
-0.106431
-0.00899936
-0.0721295
-0.07324
-0.122946
-0.000533615
0.0102649
-0.00239205
-0.0158441
-0.0364721
-0.035677
-0.0155022
-0.191196
-0.005926
-0.0731053
-0.00638019
-0.160254
-0.0761895
-0.0324016
-0.0549007
0.0210869
-0.0471648
-0.168953
-0.0155432
-0.0338901
-0.0378609
-0.167842
-0.102942
-0.106537
-0.0377011
-0.0666591
-0.0415266
-0.000450846
0.00192847
-0.0718388
-9.57885e-06
-0.02105
-0.0336445
-0.0385186
-0.0321486
-0.0172367
-0.0179785
-0.0717499
-0.112699
-0.00853856
-0.0265763
-0.0338305
0.00275354
-0.027334
-0.0251807
-0.00293644
-0.189288
-0.0850788
-0.00790845
-0.126721
0.000181565
0.0010007
-0.177082
-0.0455078
-0.0169097
-0.00231066
-0.0501343
-0.0250475
-0.0256654
-0.185959
-0.0098444
-0.0790468
-0.00166673
9.91773e-05
-0.114015
-0.0870243
-0.063856
-0.0610302
-0.0134478
-0.0169137
-0.0304753
-0.169666
-0.190825
-3.13855e-05
-0.028518
-0.0229615
-0.11406
-0.0918232
0.000188502
-0.0306471
-0.126719
-0.0068631
0.0015044
0.000146653
-0.00723451
-0.0610818
-0.112887
-0.0718854
-0.00160463
-0.0758676
-0.0437928
-0.00877862
-0.036077
-0.0213509
-0.0343736
-0.0645024
-0.000312728
-0.00670613
-0.00459757
-0.100497
-0.0316036
-0.0524597
-0.00421193
-0.0254652
-0.0104078
-0.0391469
-0.0611583
-0.0325699
-0.155827
-0.0323003
-0.0703904
-0.109665
-0.0402849
-0.00860059
-0.0231758
-0.0627913
-0.17904
-0.0855167
-0.0241513
-0.00399825
-0.166576
-0.0172161
0.000807186
-0.0567977
-0.0300528
-0.035938
-0.0176032
-0.140099
-0.0615073
-0.0221244
-0.0491529
-0.00188396
-0.116642
-0.123315
-0.0102387
-0.0171446
0.0084579
-0.00217488
-0.00252667
-0.0183425
0.00123276
-0.0404277
-0.085184
-0.0524217
-0.164174
-0.0358606
-0.0104766
-0.0725034
-0.00396228
-0.183871
-0.0351473
-0.0103633
-0.00815975
-0.136332
-0.00026044
-0.144256
-0.0329576
-0.0884914
-0.010779
-0.00856101
-0.00911058
-0.0357973
-0.0363858
-0.182668
-0.0448475
-0.0688716
-0.00400613
-0.0028212
-0.0543919
-7.70936e-05
-0.0101447
-0.17958
-0.000987965
0.00844286
-0.124355
-0.036264
-0.114573
-0.087277
-0.0878683
-0.0314653
-0.00410009
-0.0139353
-0.00705411
-0.00197192
-0.00602555
-0.0032922
-0.00844793
-0.00693951
-0.00132695
0.00115848
-0.0192869
-0.0888507
-0.0749645
-0.00410759
-0.0399904
-0.00617423
-0.0708161
-0.00219942
0.0231585
-0.00353893
0.000511069
-0.00285577
-0.0439379
-0.0159116
-0.0815341
-0.00623081
-0.00097649
-0.0451199
-0.000302777
-0.00636691
-0.11215
-0.0227504
-0.00905791
-0.0190131
-0.0364751
-0.148271
0.000202575
-0.0605617
-0.0167837
-0.00232358
-0.00321427
-0.0807468
-0.0447995
-0.00104657
-0.011109
-0.00590449
-0.109315
0.000383986
-0.0189787
-0.0430489
-0.00325717
-0.171132
-0.00177617
-0.00410954
-0.126654
-0.0331458
-0.0104913
-0.000324638
-0.00282696
-0.122693
-0.0534699
-0.0071826
-0.0111223
0.010292
-0.000631162
-0.0115625
-0.0116544
-0.0426109
-0.0390654
-0.0831571
-0.0109059
-0.00531322
-0.0553743
-0.029391
-0.0311324
-0.0391183
-0.000568965
-0.0060292
-0.101466
-0.0147257
-0.00217132
-0.00767711
-0.0368877
-0.0169924
-0.00113647
-0.0288757
-0.0101522
-0.0991386
-0.00180602
-0.000535033
-0.164222
-0.0898963
-0.113902
-0.19115
-0.0166107
-0.0391924
0.00819694
-0.0369831
-0.00134469
-0.126671
-0.00679951
-0.158577
0.00327245
-0.0775604
-0.091896
0.0242227
0.0143056
-0.00632579
-0.123247
-0.015263
-0.00246584
-0.0776907
-0.121676
-0.0844527
-0.0393073
-0.00104985
-0.00105269
-0.0038518
-0.0535942
0.000803937
-0.0356481
-0.0201162
0.000779108
-0.150152
-0.00313114
-0.112129
-0.0214444
0.00606669
-0.0448763
-0.0301656
-0.00769668
-0.161893
-0.00834538
-0.0475687
-0.0596318
-0.00927703
-0.0541222
-0.0068336
-0.0782986
-0.157854
-0.039792
-0.00865797
-0.0605268
0.000845401
-0.0571139
-0.00233994
-0.00745449
-0.0863831
-0.00121011
-0.00836863
-0.0977397
-0.0310273
-0.0617897
-0.0345132
-0.0093898
-0.0272941
-0.00175667
-0.0190631
-0.00206997
-0.0397951
0.00341983
-0.0120571
-0.00814911
-0.0350797
0.00228198
-0.028283
-0.181805
-0.00642594
0.0125418
-0.0319026
-0.00450039
-0.13427
-0.0270489
-0.00414733
-0.147182
-0.102789
-0.108291
-0.00493226
-0.147182
0.0206322
-0.0225444
-0.127795
-0.0224056
-0.0117669
-0.0687374
-0.0175051
-0.00658116
-0.102146
-0.0153024
-0.103373
-0.0546122
-0.160714
-0.046323
-0.0015593
-0.0357806
-0.114158
-0.0474735
-0.0436792
-0.00794764
4.65505e-05
-0.00837872
-0.000437505
-0.0245004
0.0243788
-0.0322359
-0.0241999
-0.140284
0.00685568
-0.0219042
-0.0635632
-0.00747953
-0.0829577
0.0123795
-0.020849
-0.0796072
-0.000840396
-0.0719709
-0.109464
-0.00814198
-0.172655
-0.0404398
-0.146446
-0.0526308
-0.0393656
-0.0085791
-0.00188223
0.00526735
-0.0480662
-0.05564
-0.00908475
-0.0259017
-0.121875
-0.0519396
-0.152055
-0.0101117
-0.0514771
-0.111303
-0.00351522
0.00167855
-0.183035
-0.0308752
-0.0439583
-0.146128
-0.0365048
-0.0110122
0.00425384
-0.193877
-0.025401
0.000348209
-0.135612
-0.0751038
-0.000381829
-0.0198074
-0.0758716
-0.0688635
-0.0458965
-0.0359488
-0.103582
-0.0494418
0.00167022
0.00471126
-0.00332379
0.0146725
-0.151237
-0.0102482
-0.0462783
-0.0465376
0.00625584
-0.00771939
-0.173263
-0.0491267
-0.00118739
-0.0352862
-0.00272274
-0.0112208
-0.0696376
-0.0871439
-0.0372921
-0.171673
-0.00339728
-0.18347
-0.00607871
-0.119343
-0.115079
-0.143021
-0.00106735
-0.0378809
-0.0151952
0.00837387
-0.0408407
-0.1216
-0.125723
0.00956628
-2.04657e-05
-0.0458756
-0.0047434
-0.0843331
-0.139027
-0.000834388
-0.0106905
-0.0419256
-0.0237795
0.00966078
-0.00639413
-0.0314253
-0.030736
-0.0176955
-0.00269243
-0.0244971
-0.17839
-0.00868343
-0.00234305
-0.187845
-0.0764513
-0.0203723
-0.0856745
-0.0244665
-0.00890376
-0.0869412
-0.03586
-0.00497274
-0.131136
-0.130855
-0.0345874
-0.140382
-0.0529766
0.0123401
0.00950076
-0.00604859
-0.148928
-0.0799551
-0.0277346
-0.062343
-0.000718893
0.00255412
-0.0631265
-0.0853244
-0.0417728
-0.16434
-2.29194e-05
-0.0588883
-0.0370702
-0.0142324
-0.138119
0.00340048
-0.000858265
-0.00294166
-0.144925
-0.0241836
0.00115144
-0.0977544
4.64656e-05
-0.0279407
-6.4628e-06
-0.0246951
-0.124824
-0.0459402
-0.0685867
-0.0852207
-0.0672715
-0.0157814
-0.0444094
-0.000117904
-0.00723182
0.0152547
-0.0363972
-0.0249197
-0.000785957
-0.00658851
-0.140519
-0.170919
-0.0239596
-0.0611363
-0.00999895
-0.0201374
-0.0139085
-0.00702159
-0.00445996
-0.0182418
-0.060968
-0.103423
0.00316132
-0.0464064
-0.0579885
-0.0260634
-0.0329622
-0.152836
-0.0107947
-0.11203
-0.0128949
-0.0198441
-0.0237198
-0.124458
-0.0217105
-0.0269272
-0.00210835
-0.0327567
-0.0584538
-0.00895892
-0.0558988
-0.0141167
-0.0175567
-0.15733
-0.0381718
-0.0560922
-0.0285147
-0.0103922
-0.0820212
-0.0682297
-0.0111692
-0.0866032
0.00520027
-0.122894
0.0104219
-0.0248783
-0.0200077
-0.088623
-0.0347229
-0.100985
-0.058787
-0.127926
-0.00642112
-0.010791
-0.00316368
-0.0780148
-0.044223
-0.00726389
-0.00613258
-0.188283
-0.0845161
-0.050033
-0.0478278
-0.0166513
-0.0167027
-0.166203
-8.83951e-05
-0.106928
-0.133296
-0.0103647
-0.0507129
-0.00756966
-0.000371068
-0.0737493
-0.00260481
-0.0464324
-0.0082316
-0.0155151
-0.0545319
-0.0261714
-0.00655667
-0.0998746
-0.0195183
-0.0406815
-0.135127
-0.0307167
-0.00365067
-0.066194
-0.0096042
-0.00583569
0.00149652
-0.0908406
0.02383
-0.0013068
-0.0010853
0.0168678
-0.0368888
-0.061149
-0.0421566
-0.0377258
-0.00115381
-0.00100681
-0.0453009
0.0101452
-0.12815
-0.184072
-0.0858644
-0.0140233
-0.00252194
-0.0273136
-0.125186
-0.0435965
-0.0028903
-0.136973
-0.130998
-0.0105581
-0.054143
-0.0491652
0.00122603
-0.143262
-0.00115894
-0.0435353
-0.0839628
-0.0722762
-0.0532594
-0.0566515
-0.0214284
-0.16169
-0.0977727
-0.00670858
-0.0771002
-0.00728035
-0.0456513
-0.0610507
-0.127955
0.0193201
0.0107398
-0.0247619
-0.0115012
-0.0411783
-0.0198952
-0.0247749
0.00144921
-0.0173449
-0.00543754
-0.0692408
-0.134355
-0.00548682
-0.00888993
-0.039502
-0.0222396
0.00929746
-0.00515769
-0.0445299
-0.00207896
-0.127964
0.0048257
-0.0146403
-0.0182851
-0.161106
-0.00108155
-0.151652
-0.0373515
-0.0200978
-0.0401558
-0.0137992
-0.00332474
-0.00792366
-0.000962485
-0.011986
-0.00599729
-0.102804
-0.00105511
-0.0248297
-0.0923994
-0.0969944
-0.0189614
-0.113329
-0.028897
-0.0482558
-0.0356749
-0.0344897
0.000817412
0.00078376
-0.126067
0.0112884
-0.00396327
-0.000478588
-0.00137839
-0.0871393
-0.00607071
-0.0926444
-0.0117333
-0.0142398
-0.0449641
-0.0218213
-0.0062416
-0.00436575
-0.180391
-0.147209
-0.017206
-0.0232976
-0.0444052
-0.156695
-0.0520138
-0.0241234
-0.0264093
-0.180815
-0.0435659
-0.110247
-0.0572923
-0.00246815
-0.0263983
-0.0104936
-0.0148197
-0.124042
-0.0184391
-0.0733553
-0.104915
-0.0220743
-0.159799
0.00217316
-0.0106835
-0.0530576
0.000616014
-0.0481509
-0.00109123
-0.00608552
-0.00102526
-0.0863751
-0.000806452
0.00383615
-0.00151073
-0.0742171
0.0195652
0.0161253
-0.121404
-0.181426
-0.0029084
-0.00618204
-0.00100384
-0.169713
-0.036215
-0.0551885
0.00943493
-0.0200627
-0.051505
-0.0329906
-8.32454e-05
-0.0292992
-0.0478595
-0.0715113
-0.0957876
-0.105402
-0.0676016
-0.0101643
-0.018297
-0.0453373
-0.0417529
-0.014135
-0.134748
-0.149371
-0.0249845
-0.0199931
-0.00119054
-0.0219505
-0.000259961
-0.163926
-0.0605858
-0.0439857
-0.127908
-0.128904
-0.161002
-0.135617
-0.033495
-0.0852985
-0.0445761
-0.185322
-0.136032
-0.0847941
-0.113688
-0.0046349
-0.0555617
-0.00115515
-0.0125024
-0.105411
-0.0285027
-0.0438357
-0.090775
-0.0535659
-0.10052
-0.184357
-0.165255
-0.0638584
-0.058877
-0.0220158
-0.0339094
-0.0095468
-0.0582424
-0.0406789
-0.121539
-0.0340428
-0.042429
-0.000930109
-0.00959823
-0.0149567
-0.185603
-0.0222648
-0.0125473
-0.0436075
-0.00711309
-0.101054
-0.00934043
-0.00263568
-0.0862798
-0.043319
-0.0998868
-0.0442137
-0.0930137
-0.0277762
-0.0030252
-0.0153583
-0.00684028
-0.0559255
-0.0705962
-0.0145977
-0.0743657
-0.104853
-0.00285087
-0.0230106
-0.0197569
-0.0688275
-0.0252252
-0.0181543
-0.000940826
-0.00767649
-0.0882622
-0.0104463
-0.050996
-0.0966046
-0.0329984
-0.0030053
-0.0533269
-0.180298
-0.0428921
-0.136774
-0.0234888
-0.00318792
-0.0030218
-0.16043
-0.0822645
-0.00624533
-0.118517
-0.0367474
-0.033955
0.0240586
-0.17533
0.00271802
-0.0297805
-0.0905654
-0.0557362
-0.104598
-0.0155139
-0.0320025
-0.054668
-0.0665909
-0.0428571
-0.00915108
-0.0347799
-0.0028956
-0.140059
-0.0581047
-0.112637
-0.0353674
-0.119013
-0.151352
-0.0520177
-0.0518722
-0.0874567
0.00825707
-0.175122
-0.0725029
-0.106144
-0.0749187
0.0111066
-0.0051973
-0.173349
-0.0872331
-0.000799095
-0.108516
-0.0261788
-0.0134114
-0.0561998
-0.0226619
-0.0340109
-0.102242
-0.112391
-0.00636942
-0.00151669
-0.0819432
-0.191834
-0.0419494
-0.125851
-0.00728291
-0.156592
-0.0797555
-0.131633
-0.0102769
-0.0128868
-0.113645
-0.150078
-0.0096804
-0.0737989
-0.118038
-0.0113375
-0.0509021
-0.00497207
-0.0184876
-0.0245512
-0.0739251
-0.086549
-0.00857565
-0.044115
-0.0118562
-0.0449799
-0.140013
-0.106238
-0.0157541
-0.156943
-0.0437836
-0.0275415
-0.00135958
-0.0222689
-0.00334439
-0.129227
-0.130873
-0.030889
-0.0178768
-0.130185
-0.0134027
-0.131871
-0.115613
-0.0406157
-0.132723
-0.00657706
-0.0271548
-0.0380847
-0.081241
-0.13315
-0.068058
-0.0500095
-0.0508068
-0.00282825
-0.126436
-0.00528816
-2.08545e-05
-0.173443
-0.121445
-0.0578043
-0.0312573
-0.058459
-0.0403855
-0.0454252
-0.010756
-0.0235472
-0.185505
-0.00225179
-0.143613
-0.0182714
-0.0160368
-0.0982089
-0.0141281
-0.000870957
0.00166558
-0.0183376
-0.00940117
-0.00652568
-0.0658588
-0.177052
-0.146606
-0.0484934
-0.0433086
-0.00136439
0.000839991
-0.053427
-0.0289053
0.00453563
-0.0056277
-0.000911588
-0.107436
-0.0252754
-0.0579447
-0.0708522
-0.00479033
-0.00792966
-0.00469478
-0.056944
-0.0569521
-0.0544774
-0.0708358
-0.0492537
-0.167697
-0.0414999
-0.0956047
-0.0549478
-0.151473
-0.0528965
-0.000578851
-0.0718606
-0.0548532
-0.0427814
-0.0497944
0.00173314
-0.0589579
-0.0577287
-0.145669
-0.0363389
-0.127072
-0.0951258
-0.129478
-0.132262
-0.0578404
-0.134807
-0.137504
-0.139853
-0.142651
-0.143463
-0.0894594
-0.00514429
-0.0246579
-0.0804395
-0.121629
-0.0200698
-0.0530265
-0.1687
-0.0402659
-0.107792
-0.000976401
-0.0063259
-0.00335603
-0.0977999
-0.056942
-0.0231731
-0.163665
-0.0551633
0.00812084
-0.0301873
-0.0113482
-0.0597267
-0.0872036
-0.00340039
-0.089795
-0.0885821
-0.122845
-0.111083
-0.122778
-0.0624554
-0.0029674
-0.159175
-6.19217e-05
-0.1711
-0.149719
-0.0322512
-0.0485332
-0.0411152
-0.0111107
-0.00814496
0.00931636
0.0150776
-0.00405567
-0.00407253
-0.0313674
-0.136845
-0.045776
-0.0344406
-0.136718
-0.0726989
-0.119583
-0.171229
-0.0506681
-0.043607
-0.0558419
-0.0199959
-0.127714
0.00779127
-0.0914213
-0.124283
-0.129833
-0.000365812
-0.0174943
-0.0199539
-0.13008
-0.00641656
-0.146733
-0.000164749
-0.123699
-0.056818
-0.0225034
0.00214613
-0.0203442
-0.118698
-0.00219282
-0.043226
-0.0182653
-0.0568521
-0.173679
-0.113775
-0.0359469
-0.120049
-0.0200675
-0.0114492
-0.0817932
-0.0445994
-0.188346
-0.0583841
-0.0369694
-0.137841
-0.120092
-0.101402
0.000166965
-0.0059321
-0.00864628
-0.0103849
-0.094254
0.00219736
-0.00251624
-0.0238037
-0.121903
-0.0164142
-0.000394705
0.0131315
-0.0865988
-0.047246
-0.0542751
-0.000983574
-0.1204
-0.000156313
-0.000152042
-0.0892902
-0.118368
-0.127629
-0.00110471
-0.095063
-0.0390458
-0.097259
-0.130999
-0.0368587
-0.120231
-0.0200346
-0.00708778
-0.0120603
0.0114197
-0.0171806
-0.0195174
-0.0373554
-0.0110302
-0.0367836
-0.133561
-0.129989
-0.149521
-0.00910822
-0.0668009
-0.00986996
-0.122602
-0.00657562
-0.0366132
-0.0143125
-0.0773814
0.000148154
-0.00220398
-0.0155282
-0.00233054
-0.145251
-0.167853
-0.0154628
0.0222238
-0.163674
-0.00753052
-0.00708182
-0.138364
-0.0601866
-0.0361354
-0.112986
-0.00273544
-0.103045
-0.0114955
-0.0961571
-0.101856
0.00873636
0.00741146
-0.0727353
-0.116176
-0.108802
-0.130048
0.00256329
-0.0558196
-0.114494
-0.000261295
-0.058361
-0.0293542
-0.0708836
-0.0188446
-0.132457
-0.102394
0.0184185
-0.0373368
-0.102042
-0.043355
-0.104141
-0.152512
-0.0194477
-0.000824855
-0.124198
-0.165978
-0.00351756
-0.0524452
-0.0240545
-0.00717464
-0.101561
0.00329047
-0.153734
-0.0388452
-0.162036
-0.0392538
0.0119012
-0.0546466
-0.0583152
-0.0610803
-0.0179181
-0.148571
-0.0011466
-0.0663349
-0.0526333
-0.00145355
-0.0223805
-0.0565624
-0.154137
-0.133613
-0.0098748
-0.176844
-0.0470469
-0.0133177
-0.0362531
-0.00772584
-0.0573071
-0.134786
-0.150068
-0.00621368
0.0159322
-0.118868
-0.130885
-0.0936358
-0.127026
-0.041286
-0.118799
-0.0394979
-0.000779646
-0.0116639
-0.182639
-0.0284499
-0.134978
-0.107144
-0.0645412
-0.17689
-0.170903
-0.0131604
-0.131706
-0.0657794
-0.0984943
-0.00147681
-0.0165553
-0.00188181
-0.187046
-0.0513637
0.000828764
-0.0439412
-0.140975
-0.13438
-0.03555
-0.167289
-0.154508
-0.148299
-0.034195
-0.00643537
-0.123852
-0.0401522
-0.0527493
-0.0538562
-0.0337939
-0.0158318
-0.0323956
-0.0399813
-0.0187532
-0.0402266
-0.027673
-0.0294323
-0.00320184
-0.16884
-0.040121
-0.151591
-0.0436863
-0.0331631
-0.129711
-0.130793
-0.0221648
-0.014491
0.0132313
-0.0919408
-0.131369
-0.090679
-0.0575238
-0.0385688
-0.0121386
-0.000738625
-0.170215
-0.118941
-0.0186422
-0.00243454
-0.123021
-0.0537068
-0.030045
-0.121518
-0.074844
-0.0691047
-0.141291
-0.106123
0.00715662
-0.0260836
-0.110805
-0.0182955
-0.0437059
-0.0457037
-0.00196835
-0.123545
-0.0569033
-0.063677
-0.0308509
-0.0428725
-0.0800798
-0.13191
-0.149789
-0.052356
-0.132228
-0.159512
-0.0751815
-0.0596535
-0.0577151
-0.0653974
-0.0660767
-0.167864
-0.0005487
-0.0153198
-0.100287
-0.0570008
-0.129778
-0.0445206
-0.0330147
-0.0679394
0.000103667
-0.0571768
0.013345
-0.0501379
-0.0163266
-0.036579
-0.15223
-0.136207
-0.0301723
-0.00251985
-0.134905
-0.0558911
-0.0152902
-0.00825366
-0.16884
-0.0619921
-0.146821
-0.0200375
-0.11515
-0.121648
-0.137454
-0.106416
-0.000200596
-0.143627
4.74183e-05
-0.0422432
-0.16545
-0.140258
-0.0379423
0.0156297
-0.0353451
0.0016
-0.0352534
-0.142837
-0.016311
-0.172618
-0.094055
-0.014181
-0.00549446
-0.0100789
-0.0356922
-0.0397678
-0.00859716
-0.0910223
-0.0329766
-0.0361842
-0.000297926
-0.124162
-0.0590686
-0.0706106
-0.0458113
-8.97221e-05
-0.00448092
-0.115863
-0.00421409
-0.126176
-0.0510896
-0.0550753
-0.0417145
-0.0250629
-0.0428542
-0.0421402
-0.0452663
-0.0885974
-0.0398653
-0.0712675
-0.0105335
-0.0861513
-0.0882602
-0.0414099
-0.0161306
-0.185593
-0.0111823
-0.0650516
-0.00394608
-0.0950916
-0.00674735
-0.0290767
-0.0262672
-0.0560351
-0.00145828
-0.0759597
-0.0859188
-0.0646523
-0.0415377
-0.0301283
-0.183757
-0.0118871
-0.169121
-0.11645
-0.0567616
-0.0530989
0.00359669
-0.116986
0.019627
-0.040432
-0.172461
0.00117124
-0.0134705
-0.052598
-0.0376851
-0.0462281
-0.144212
-0.115907
-0.0284398
-0.000829049
-0.0330568
-0.0987953
-0.00142132
-0.049364
-0.0805158
-0.116857
-0.00465642
-0.0734536
-0.0902864
-0.0822731
-0.0094896
0.00471738
-0.00661422
-0.0186698
-0.0236322
-0.0170338
-0.0662118
-0.121616
-0.000869973
-0.0128002
-0.086194
-0.03289
-0.0330718
-0.0589221
-0.0166428
-0.0384348
-0.0706055
-0.0180384
-0.033042
-0.0197189
-0.118531
-0.157555
-0.139733
-0.0233006
-0.120732
-0.113773
-0.162907
-0.000509875
-0.0287878
-0.100412
-0.109177
-0.032954
-0.015753
-0.0239215