/*--------------------------------*- C++ -*----------------------------------*\
| =========                 |                                                 |
| \\      /  F ield         | OpenFOAM: The Open Source CFD Toolbox           |
|  \\    /   O peration     | Version:  v2012                                 |
|   \\  /    A nd           | Website:  www.openfoam.com                      |
|    \\/     M anipulation  |                                                 |
\*---------------------------------------------------------------------------*/
FoamFile
{
    version     2.0;
    format      ascii;
    class       volScalarField;
    location    "750";
    object      ddt0(k);
}
// * * * * * * * * * * * * * * * * * * * * * * * * * * * * * * * * * * * * * //

dimensions      [0 2 -3 0 0 0 0];


internalField   nonuniform List<scalar> 
13851
(
-7.33911e-07
-0.00115069
-4.81561e-07
-6.9773e-07
-2.42812e-07
0.000173401
-1.41109e-07
-5.48925e-07
-1.68573e-07
-5.83838e-07
1.25832e-05
-0.000114054
-0.00201309
-0.000765201
-6.99658e-09
-4.80635e-07
-3.66888e-07
-6.55446e-07
-0.000475071
-1.6558e-07
-6.60809e-07
-4.46186e-07
-1.29601e-06
1.2823e-06
-1.6013e-06
-5.57478e-07
-2.56074e-07
-6.22847e-05
-7.25466e-07
-4.7721e-07
7.96251e-05
-3.72226e-07
-5.16304e-07
-8.65021e-05
6.89171e-07
1.1824e-07
1.05318e-05
-6.29515e-06
-1.79649e-07
-7.11907e-05
-3.25685e-07
3.60466e-07
7.41881e-05
7.89175e-05
0.000410337
0.000294735
0.000904868
-0.000482226
-2.59313e-07
-1.05089e-06
-1.40496e-07
-1.16265e-08
-6.53876e-05
-5.61284e-08
-2.09681e-07
3.6501e-07
8.84925e-07
-4.39324e-05
-4.82686e-07
-1.7583e-07
1.5872e-05
-0.00026596
1.59396e-06
-1.81377e-07
-1.19356e-05
-8.35416e-07
5.28114e-05
0.000760464
-3.17869e-07
-6.68106e-07
-0.000188922
-0.000115611
-0.00153704
-7.85076e-08
6.38011e-08
-2.15358e-07
-4.47436e-07
-0.000302957
-4.31992e-07
-0.00023302
-2.31796e-07
-8.88948e-06
-7.22686e-08
0.000151379
-7.6463e-06
-0.000294445
2.50036e-05
0.000143372
-3.21217e-07
6.97399e-07
1.50298e-07
1.62128e-06
0.000375206
-3.33804e-07
-3.10378e-07
2.41432e-06
-2.26718e-07
-0.000743623
-7.23509e-07
2.63294e-06
-0.000562257
-3.45811e-07
-5.21037e-07
-1.68635e-07
-1.03218e-06
1.80247e-05
-3.05912e-07
2.92446e-07
-0.00136118
0.000201679
2.2159e-06
7.02665e-07
8.98355e-07
3.08391e-06
1.93954e-06
0.00165046
-0.000841691
2.89932e-07
3.78728e-08
-2.78735e-07
7.49717e-05
-1.90114e-07
-0.00190068
0.00346462
-0.000348891
8.8182e-07
-0.000409136
-3.90267e-07
-6.27906e-07
-2.11377e-07
-3.10502e-07
-2.65661e-08
-0.00025373
-6.41255e-08
0.00165801
-1.82995e-08
2.91517e-07
-5.15285e-05
0.000145185
0.000432745
-0.000392932
-1.92075e-07
-5.29191e-07
5.41401e-07
-3.73065e-07
1.61233e-05
3.47012e-07
-2.60624e-07
-1.1727e-07
0.000400668
-6.41796e-08
-1.91727e-07
-0.000714987
9.1852e-07
-2.69976e-07
-3.76552e-07
-2.54981e-07
-4.34737e-07
-2.12643e-08
-1.55024e-07
3.77304e-07
-2.80167e-07
-5.65452e-05
-2.68221e-08
-4.81546e-07
4.87757e-07
5.16629e-07
-3.15217e-07
-6.1623e-07
-0.000352813
-0.000229295
-9.92169e-08
-2.58821e-07
5.28747e-05
-1.51388e-08
-0.000169173
-4.11184e-07
-9.55266e-07
-0.000464098
3.18707e-07
-3.89931e-07
-0.000104828
-4.5268e-08
-4.24741e-07
2.77372e-07
1.18802e-06
-8.38549e-07
-7.40396e-08
-2.44923e-07
4.66913e-07
0.000598754
-6.56837e-05
7.92345e-07
-3.50442e-07
-0.00035505
-2.87201e-07
-4.20325e-07
5.06e-05
-9.50011e-07
-2.20658e-07
8.90481e-07
0.000581821
-2.04671e-07
-9.63486e-08
-2.33688e-07
-5.48586e-08
0.000351549
-3.4907e-07
-0.000566079
3.54289e-07
-0.0015801
-5.0194e-07
-0.000299214
2.91089e-07
5.27408e-07
3.28102e-06
2.62071e-06
0.000212765
1.1378e-08
-0.000611283
-3.57115e-07
-2.27146e-07
-0.00132869
1.34025e-08
-0.00127692
4.91099e-07
-3.57294e-07
-1.69804e-06
2.6375e-07
2.93263e-07
-5.65737e-07
-0.000717075
-1.04888e-07
7.76675e-07
-1.56901e-07
-4.88952e-07
0.000332698
-1.85681e-06
5.50909e-07
-1.03384e-07
7.56984e-05
0.000137772
2.78096e-07
-2.78026e-07
-2.80119e-07
-0.00100226
-3.61357e-07
-0.000150571
-3.89429e-07
-4.37567e-07
-1.12517e-06
0.000273002
-2.83001e-07
-3.89914e-07
-2.50443e-07
-0.00113076
5.91253e-07
-9.94153e-05
1.20306e-05
-3.03844e-08
5.20984e-07
-7.01284e-07
-0.000239477
7.19996e-07
-0.00197297
-2.8657e-07
-2.7575e-07
-3.34063e-07
-0.00149665
1.16536e-06
-1.43169e-06
-2.762e-07
-0.000601206
-4.29738e-07
-4.8923e-07
-3.56561e-08
0.000235542
9.03299e-07
-0.00147949
2.68891e-05
2.66131e-07
3.3165e-07
-9.43469e-07
-2.71425e-07
-0.000244954
0.000275718
-2.15549e-07
-1.22247e-09
-0.000570561
9.33309e-05
-2.28329e-07
-4.65377e-07
-1.82902e-07
-3.60412e-07
-7.91087e-05
-0.00164543
-4.84011e-07
-0.000191948
-5.60718e-08
-0.0010414
-2.60544e-07
-3.69208e-07
-0.00152061
-3.65651e-07
3.18993e-05
-0.00109108
-2.03331e-07
-3.02943e-07
-3.43683e-07
-4.71952e-07
0.000166774
-4.76689e-07
-2.92861e-07
-0.00112756
3.91355e-07
-4.46101e-07
9.53266e-07
-0.00169984
5.2864e-08
1.43918e-09
-3.076e-07
-1.31107e-09
-0.00015474
-9.30954e-08
-2.43454e-07
-3.28571e-07
4.72207e-08
-3.46059e-07
-2.55731e-07
-5.32336e-09
-3.5494e-07
-2.94047e-07
5.61822e-05
0.000151086
-0.000409712
-9.75287e-07
-0.00169693
-0.00113988
7.90116e-10
-3.7097e-07
-2.43067e-08
6.17052e-06
-2.86383e-07
-6.95828e-09
-0.000511397
4.38229e-07
-7.03207e-05
-0.00108419
-1.44032e-08
1.87934e-06
1.65658e-06
-0.00214003
-2.50755e-07
2.38683e-06
1.42753e-07
-2.73315e-07
-0.000525671
-3.31664e-07
7.32678e-10
-1.26032e-07
2.93334e-07
-2.06261e-07
-0.00125424
3.42578e-05
-2.07687e-07
-3.15071e-07
4.41815e-07
3.60348e-05
-4.48826e-07
0.000832792
-0.000377648
-2.28583e-07
5.9627e-06
-3.67274e-07
0.00131329
-2.79969e-07
2.91517e-07
8.45729e-07
-0.000701079
-4.71121e-09
0.000237702
3.92167e-06
6.03864e-08
-0.000224931
2.01065e-06
2.4424e-06
-2.5424e-06
-1.08539e-08
-1.64935e-07
-9.4824e-07
-3.03995e-07
-0.000445408
-2.80629e-07
-0.00144521
-0.00111721
4.49535e-07
-3.3403e-08
-0.000357359
-0.000302203
-0.000992797
-0.000993707
1.29296e-06
-3.66419e-07
3.28362e-06
-0.00139819
-1.18105e-07
-4.87347e-07
-2.18677e-06
-1.20074e-07
-1.45682e-06
-1.93972e-07
4.80583e-07
-1.77265e-07
-2.99133e-07
-0.000247629
-7.764e-07
-2.88462e-07
5.55613e-08
0.000198168
-4.58457e-07
-0.00204736
-3.69726e-07
3.74869e-06
2.90351e-07
-1.86295e-07
1.54359e-06
-0.000625261
0.000198674
-8.79717e-09
-1.63509e-07
-0.000142569
-9.75217e-05
1.54247e-05
-3.22575e-07
-1.76062e-07
-2.60822e-07
0.000334862
-1.15803e-06
-0.00168977
0.00194539
-5.24091e-07
-0.000509652
-8.52572e-07
4.8491e-07
0.00247709
-0.000395533
2.78838e-07
-3.87427e-07
-4.2678e-07
1.18591e-06
-1.11811e-07
-3.01177e-07
-9.00428e-08
4.64316e-08
-8.52083e-07
0.00149645
6.0956e-07
-3.41558e-07
6.49884e-05
-4.83004e-07
3.18299e-07
5.93738e-05
-1.09464e-08
-7.25145e-07
-1.18312e-07
-2.60311e-07
-4.34419e-07
3.4161e-07
-8.39091e-07
-0.00122272
-8.06161e-08
-3.16846e-07
3.99313e-09
-8.06557e-07
-6.43832e-07
2.97787e-06
-3.37294e-07
3.19491e-06
3.50411e-06
-0.000531401
-2.67162e-07
6.03485e-05
-3.65449e-08
2.51989e-06
-0.000482952
-0.000466175
-6.7524e-08
-8.58243e-07
-4.55936e-07
0.000217228
0.000149727
-3.3718e-07
2.65568e-05
-2.88039e-07
-2.86e-07
-1.50587e-07
6.38011e-05
2.9246e-07
-4.88984e-05
9.62371e-07
3.6283e-07
-9.63821e-07
-0.000500727
-5.77244e-07
-0.000626096
-7.10865e-08
0.00104965
-2.9133e-07
-3.41293e-08
-6.85035e-08
-1.00974e-07
-0.000377468
-2.11021e-07
1.08545e-07
1.73556e-05
3.46226e-06
4.01455e-07
-0.00159892
0.000799042
-3.87567e-07
-2.91416e-07
4.27099e-05
0.0026511
-0.0017193
-2.19132e-07
6.63794e-05
0.000280317
0.000709494
-4.82641e-07
-1.04353e-06
0.00328075
3.55537e-07
-0.0009156
4.66052e-05
-0.00152948
-4.53197e-07
-0.00151385
-0.000591293
2.91186e-07
3.16936e-07
-1.95658e-07
-0.000362407
-4.01455e-07
-1.91261e-08
-2.40726e-07
-2.34454e-07
-2.38065e-07
-4.19224e-07
8.80545e-05
0.00127728
-8.18023e-08
6.59511e-05
-0.000504738
0.000241719
0.00164881
-3.19501e-07
2.9012e-07
-1.78986e-07
2.7239e-06
-0.00143655
-2.75881e-07
-3.27897e-08
1.67311e-07
3.62325e-07
2.20214e-06
0.00152297
-0.000818214
-1.60947e-08
-0.000421873
-0.000581841
-3.02627e-07
-1.21991e-07
-0.000363999
-0.00108775
8.03824e-08
-2.6271e-07
-4.35296e-05
3.0938e-07
-3.93607e-08
-0.00173316
3.38218e-07
-4.02063e-07
3.14864e-07
5.66303e-08
-0.000946976
-2.0914e-07
-2.9979e-07
3.37391e-07
0.000534303
0.000223012
-5.09249e-08
8.59956e-07
7.27609e-07
-1.41655e-07
-0.000576954
-0.000161943
-0.000281093
0.000681928
0.000513453
-2.92533e-07
-0.000270149
-0.000502796
6.57025e-07
-3.30253e-07
2.87631e-07
9.33021e-07
-4.92514e-07
-0.00141708
-0.000450355
-5.07184e-08
-4.05369e-07
-1.42499e-07
-4.88736e-07
2.87917e-07
-1.58789e-06
-1.85252e-07
-3.0647e-08
-9.55099e-07
-1.09772e-07
-3.1391e-07
-5.47336e-08
-1.6075e-07
-2.52449e-07
-4.44028e-07
-2.18192e-07
-2.61543e-07
-0.000329677
-6.22593e-08
-4.7543e-07
9.36516e-08
-1.35553e-07
-0.000393084
-5.38886e-07
0.000592326
-4.79842e-07
1.9543e-06
-0.00069934
-5.53069e-07
-0.000132634
-0.00103414
0.000126655
-0.000133874
-1.18518e-07
-0.00010515
2.00196e-07
3.32599e-08
2.93485e-07
4.499e-08
2.57145e-07
-8.51114e-07
-3.33908e-07
3.16873e-07
-0.00111135
6.50426e-07
-0.00106337
-2.20932e-07
2.84953e-07
-1.81119e-07
-3.43923e-07
-0.000294983
-2.4653e-07
-3.19555e-07
2.1004e-07
2.82504e-06
6.01934e-08
-2.87508e-07
8.27712e-07
0.000591123
-2.02283e-07
3.09585e-07
-1.02419e-07
-2.79942e-07
-0.00214942
-7.05728e-05
-4.84642e-07
-0.000638202
0.00145022
-2.33808e-07
9.68803e-08
-0.000687431
-3.35928e-07
-0.000299915
-2.32788e-07
-6.64536e-07
-2.27659e-07
-7.39273e-07
-4.22351e-05
-5.73709e-08
0.00368772
-1.33505e-06
-2.16627e-07
-0.000583257
-1.45456e-07
-5.59326e-07
-1.84043e-05
-4.57107e-08
-3.91064e-07
-0.000473265
-0.000144964
-1.9664e-07
-0.00150247
-2.51753e-06
2.94319e-07
-1.9893e-07
-0.000260122
2.02418e-07
-4.28514e-07
-0.00107323
-1.14099e-07
-4.4741e-07
2.91843e-07
-0.000364917
4.95781e-06
-4.78639e-07
-4.92351e-07
2.11321e-06
-2.81367e-07
-9.00822e-08
6.40419e-05
-0.000918578
-0.000631366
3.84827e-07
-1.91389e-07
-0.000293578
-0.000102421
9.25778e-08
2.30985e-07
-0.00178748
-6.46804e-08
2.33978e-06
7.97894e-07
-5.52756e-07
-4.23407e-07
0.000149792
-2.27766e-06
7.42231e-07
1.03072e-05
1.70113e-06
-2.75998e-07
-4.33931e-07
-1.28698e-07
6.30109e-05
-4.64373e-07
5.18681e-09
-3.8448e-07
1.26242e-06
-1.50726e-07
-0.000542551
2.22701e-07
-2.41314e-06
2.77809e-07
-2.04859e-07
-2.30091e-08
-0.00105106
-2.24117e-07
3.01966e-07
0.00102821
-1.29185e-07
-0.000382698
-1.56984e-06
-2.42168e-08
-3.21424e-08
-0.00201256
3.67014e-05
-8.88642e-08
-6.65783e-05
-0.000698097
-2.73744e-07
-0.00152433
-1.92223e-07
-1.21654e-07
2.25777e-06
7.16468e-05
0.000119012
-4.55568e-07
-8.05104e-08
2.95446e-07
0.0023832
-5.52552e-07
5.65379e-07
-4.86182e-07
2.0183e-06
-1.56691e-07
4.89293e-08
-3.88304e-08
0.00068099
-2.56892e-07
-0.000230258
-1.79853e-07
-2.804e-07
-9.86569e-08
-0.00181822
-4.77863e-07
0.000194736
9.59404e-06
-1.29e-07
0.000251975
-0.000262103
-0.000624753
0.000114072
-0.000955582
2.29227e-06
-5.4173e-07
-1.25365e-07
-9.49519e-07
-2.46539e-05
0.000258051
-3.36428e-07
2.28996e-06
-1.71189e-07
-0.000142265
3.603e-07
-8.94522e-05
-1.06789e-07
-1.74515e-07
6.34242e-05
-0.000293125
-4.26736e-07
3.13803e-08
2.75453e-09
-0.000100521
1.0784e-06
2.94852e-08
3.28165e-08
-0.000470974
-0.000605441
-0.000505661
-3.15491e-07
-3.14502e-07
-3.05323e-07
-1.36723e-07
-0.00238123
-2.15966e-07
-0.000262585
1.43513e-06
-2.9446e-07
7.25148e-05
-0.000570314
-0.000436193
-8.79242e-08
-2.75205e-07
-5.03245e-08
-4.74607e-07
-5.60382e-07
-8.08358e-06
-4.46539e-07
-0.000661225
3.50648e-07
-2.525e-08
-1.26107e-07
3.57753e-06
-2.44141e-07
-2.7295e-07
-0.000669938
-2.82584e-07
-1.91697e-07
1.55796e-06
-3.87586e-08
0.000244351
-7.05826e-05
-4.14133e-07
-0.00023652
6.94609e-07
0.000928993
1.31953e-05
-3.02067e-07
-0.00146726
-0.000722003
-0.000426909
1.80363e-06
7.91206e-07
-3.20885e-07
-0.000592191
-4.95886e-07
0.00154555
-0.000569169
-2.11871e-07
-2.26177e-07
-0.000334331
0.000211145
0.000312127
-2.30369e-07
4.2352e-08
-0.00202772
-0.000571868
-1.19148e-08
-4.49741e-07
-1.11851e-07
1.01648e-05
7.02948e-05
-1.04934e-07
3.05895e-07
-5.45986e-07
-3.08276e-08
-9.46682e-08
1.89038e-06
3.73512e-06
-0.00177834
0.000236385
-1.93659e-07
-6.04472e-07
-3.21472e-07
-4.34215e-07
-0.000230274
-0.000451396
-3.71702e-07
0.000196018
-1.04588e-07
-3.84631e-07
-3.13069e-07
-2.88202e-08
-3.3074e-07
-1.91021e-07
-0.00039703
-7.29818e-08
-2.49042e-07
-9.85475e-08
-4.54966e-07
2.52928e-06
-0.000107084
-2.03425e-09
-0.000300864
7.90061e-07
3.82203e-05
-4.68593e-07
-4.52819e-07
-0.000216506
-3.00455e-07
-4.86489e-07
1.25423e-05
-1.68103e-05
2.54991e-06
-5.11537e-07
0.000161893
-4.62059e-07
-2.92896e-07
-3.30549e-07
0.00026885
6.08562e-08
-6.35654e-05
-1.96562e-07
-2.23153e-07
-0.000562374
9.08073e-07
-0.00167709
-4.09777e-07
-7.26113e-08
3.87232e-07
-6.09873e-08
-3.10736e-09
1.73459e-07
-2.33405e-07
-1.41558e-06
-2.1475e-07
1.43074e-06
6.91363e-05
-1.91055e-07
-0.000501981
-1.27798e-07
5.29522e-07
1.00748e-06
-2.53991e-07
-3.72791e-08
-5.9041e-08
-1.93202e-07
-2.44866e-07
-4.99618e-07
-4.70468e-07
-0.000397471
0.000904131
-2.70923e-05
-0.000919773
2.66419e-07
-3.82145e-08
0.000410787
-4.0236e-07
-2.02575e-07
0.000157822
9.16269e-05
0.000639034
5.22539e-08
0.00059936
0.000443999
4.47226e-05
-1.10491e-07
-0.00210186
-4.69044e-07
-2.80518e-07
1.3556e-07
-1.26332e-07
-0.00141188
-0.000141558
-0.00039412
-1.58812e-07
-5.18343e-08
-0.000267361
-3.0196e-07
-0.00206393
5.11295e-06
-0.000691308
-0.000281088
0.00122847
2.14437e-06
-2.35544e-07
2.07744e-06
-8.34022e-07
-2.04395e-07
4.04485e-06
-5.08255e-07
-1.89468e-07
-1.42373e-07
0.00175732
-2.49025e-07
-0.000377746
-0.000345975
0.00168946
-1.55037e-06
-2.16422e-07
6.32786e-07
-4.64589e-07
1.38224e-05
0.00185862
-1.07398e-07
1.90683e-06
-1.50327e-07
-1.19408e-07
4.16349e-07
-1.56004e-07
-2.28907e-07
-3.68145e-07
-1.10932e-05
-3.68294e-07
-8.21735e-07
-2.79325e-08
-2.13704e-07
-0.00196268
-1.66878e-07
0.000115623
-0.00173788
-7.47154e-08
5.20944e-07
-2.81383e-07
-2.51489e-08
-4.00877e-07
-4.38121e-07
-0.000299586
4.47228e-08
-1.66886e-05
-1.96544e-07
2.37617e-06
-3.27176e-08
-1.37026e-06
-3.85991e-07
0.000858653
-0.000848385
3.89041e-07
-3.68233e-07
-3.53926e-07
-0.000454164
3.13485e-06
-0.00104716
2.19279e-07
0.000464715
-6.00824e-07
-0.00176374
1.18907e-08
-6.41834e-08
-0.000767158
-0.000536515
0.00110835
0.000507094
1.09762e-06
-0.000203118
4.0815e-07
-4.14307e-07
-2.63802e-07
-2.62665e-07
-0.000530214
-4.54809e-07
-3.43616e-07
3.90161e-06
-3.38471e-07
-0.000521293
6.34388e-10
-2.66917e-07
-4.79283e-07
6.62503e-07
-1.13317e-06
-0.0014189
-0.000171526
-0.000126086
7.42223e-08
-3.04082e-07
1.09897e-07
0.00242708
-0.00112441
3.64234e-06
6.32617e-07
-1.95124e-07
7.57981e-05
-5.77662e-07
-0.00168262
-0.00108373
-8.95588e-06
5.17304e-07
-0.000378274
-1.13587e-06
-4.37236e-07
-3.47942e-07
-0.0015265
1.79339e-05
9.44772e-09
-0.000174619
-5.22021e-07
-6.91289e-07
-1.58741e-07
3.5569e-05
-4.42481e-07
-0.00049728
2.33397e-07
-2.59631e-07
7.84153e-08
-2.9995e-07
-0.00160718
3.69679e-06
-6.29277e-07
-0.00286742
-0.000626573
-0.00271929
-0.00130645
-7.57104e-08
-2.56341e-07
-0.000264904
-0.00189887
7.15085e-05
-3.02897e-07
-1.13061e-07
-2.10554e-07
-0.000403858
1.24374e-07
-2.35078e-07
0.000411988
-5.4651e-07
-0.00045912
-0.00039649
0.000850191
-3.56955e-08
-0.00169008
-2.83681e-07
-3.31274e-07
1.23764e-07
-0.000132396
-1.28633e-07
-2.07559e-07
-0.000100649
-0.00161333
8.10796e-07
6.72112e-08
-9.3645e-06
-1.75431e-07
2.68874e-06
7.88489e-08
0.00141384
-2.70878e-07
-2.36031e-07
-0.000271831
-0.00121911
-2.60917e-07
8.81502e-05
0.000368325
-0.00121074
-0.00100382
0.000331852
-4.37072e-06
-4.37982e-08
-0.00185432
2.86013e-06
-1.81099e-09
6.61113e-07
0.000743355
-2.25234e-07
2.36702e-06
-2.07569e-07
7.96193e-07
-0.000258245
-5.87133e-07
-0.00176383
-3.37125e-07
1.05197e-06
-5.33086e-08
-2.97481e-07
-5.53831e-05
-0.000575377
-1.46564e-08
-2.15881e-07
0.000177915
-3.88698e-07
-1.18244e-07
-0.000605636
-3.49399e-07
-4.78995e-07
1.02853e-07
0.00133617
-0.00081146
-5.47142e-05
-0.00069027
-4.45033e-06
7.18151e-06
0.00245215
-0.00028861
-2.37801e-07
2.12505e-07
5.70163e-08
-5.03415e-08
3.96714e-08
0.000959938
-0.000597647
-5.32229e-07
0.000504819
-0.000580219
-0.000355078
0.000197146
4.87775e-05
-2.30612e-07
-0.00081484
-2.2322e-06
8.70307e-07
-2.70153e-07
-0.00123117
-0.000712586
-0.00114823
-0.00174573
-3.75734e-07
-0.000738809
-0.00136311
-2.95812e-07
-9.43878e-08
-2.34849e-07
-0.000118584
-5.89967e-08
1.88637e-07
-2.24302e-07
-2.35384e-07
-5.26561e-07
-0.00193012
-0.0017853
1.94876e-05
-4.9566e-07
-0.000335197
-4.75982e-07
-4.7716e-07
7.01541e-08
-5.03359e-07
-4.96631e-05
-4.68631e-07
-0.000499292
-0.00363725
0.000275364
2.77966e-08
-2.04217e-08
-4.24724e-07
-3.34367e-07
1.47296e-07
-9.5082e-07
-3.2645e-07
-4.69706e-07
-1.80131e-07
1.33653e-07
-2.25562e-07
-4.90526e-07
8.95914e-07
-4.90617e-07
3.30739e-06
-0.000252866
-2.65702e-07
-3.81768e-07
-1.96196e-06
-0.000124117
8.1319e-07
-0.00121714
-0.0005461
-2.94663e-07
-2.49404e-07
-2.20171e-07
0.000129357
-2.8212e-07
-6.64541e-07
-3.22006e-09
-1.71587e-07
-1.89368e-07
-0.0010408
-3.49374e-07
-7.641e-07
9.75864e-07
-1.74237e-06
-1.33787e-07
-0.00101893
-0.00216592
-3.58338e-07
-1.44498e-07
-2.16818e-06
2.2729e-07
-3.15027e-07
-1.36199e-06
-0.000684255
-1.54263e-06
-4.67227e-07
-1.30583e-05
-0.000449558
-2.25394e-07
-2.37955e-07
-0.000598013
-2.92881e-07
-1.37348e-06
2.86735e-07
-0.00195855
-2.87642e-07
8.18109e-07
-7.61638e-08
-0.00121089
2.08541e-07
-5.44018e-07
3.7634e-08
8.69866e-06
-2.12148e-07
-0.00191678
-0.00174018
-4.32158e-07
-0.00188303
-6.60258e-08
-2.43698e-07
-3.82842e-05
-1.65653e-07
-3.40464e-07
-1.10515e-07
-9.4613e-07
6.51755e-05
1.33657e-07
-3.39182e-07
-1.95992e-07
-2.08144e-07
6.11848e-05
5.20071e-06
-0.00177238
5.7921e-05
-2.05998e-07
1.23968e-07
-3.76352e-07
4.95324e-05
-6.87665e-07
-0.000332087
-6.73576e-08
9.67471e-07
-1.29308e-07
-0.000539226
-3.67277e-07
-7.21545e-08
0.00102719
-0.000322866
-4.53718e-07
1.8823e-06
3.52421e-07
-1.78036e-06
-4.68275e-07
-4.83305e-07
4.73757e-05
-2.53834e-07
-5.51981e-07
-2.57588e-07
-1.75602e-07
-0.00155426
-0.00016021
-0.0016954
-2.75695e-07
-2.51017e-07
-5.67133e-07
6.34732e-05
4.8711e-05
7.516e-05
4.95966e-07
-0.0002457
8.53352e-05
-1.51398e-07
-2.70488e-07
7.20938e-08
-3.30974e-07
-1.27293e-07
7.79074e-07
-7.86563e-05
5.97203e-06
-2.66101e-07
-0.000590818
-0.000220693
-3.14278e-08
-7.69054e-07
0.000140739
6.53101e-05
-2.66607e-07
-7.46827e-08
2.92796e-07
-3.84333e-07
8.31366e-07
-4.50274e-07
-0.00154688
-0.000523664
-0.00011218
-0.000283968
-2.12073e-07
-4.56338e-07
-2.61988e-07
-7.28589e-07
-8.8548e-08
-1.34726e-07
-0.00152625
-6.207e-08
-0.00175229
-4.04714e-07
4.77148e-07
2.8217e-07
-3.17314e-06
-0.000336189
-0.000715258
-3.32034e-07
4.62923e-07
1.15616e-06
-0.000665714
-0.000292186
-3.08505e-07
6.24739e-08
-1.29773e-07
-5.04503e-07
-4.58789e-07
1.36369e-07
-0.00132273
-1.71107e-07
-1.13445e-07
6.66839e-08
-2.29329e-06
-0.000234935
-0.000996252
5.72986e-08
-2.02086e-07
-4.12228e-07
-0.00139729
5.32602e-07
-0.000826468
7.57416e-07
-1.80139e-07
-1.26447e-06
-1.43049e-07
-7.01287e-05
-3.39237e-07
-3.73742e-07
3.63467e-06
-0.000767894
-3.23756e-07
-4.2286e-07
-2.15194e-07
-0.000671047
5.59069e-05
1.19382e-07
5.77237e-07
0.000237411
2.87149e-07
-0.000379869
-1.85016e-06
-8.13194e-07
-5.36945e-07
-0.000606378
-3.38389e-07
-5.34098e-07
-9.78441e-08
-1.32595e-07
-0.00137951
-5.5976e-08
-0.000427728
0.00049284
-0.0008492
-0.00172417
-4.56136e-07
-0.000392567
-1.98619e-07
-0.000940881
-2.23663e-08
1.78918e-05
2.6423e-05
6.32356e-05
7.74926e-05
-0.000828714
9.51347e-07
-7.32705e-06
-2.15519e-07
-0.000127344
0.000252476
-0.0010909
-1.53067e-05
-4.69672e-07
-0.0016941
0.00148569
-4.35966e-07
-5.03616e-07
-1.63144e-07
-0.000481344
-4.42212e-07
-1.32525e-07
1.79077e-06
-4.00167e-07
-1.72124e-08
-3.01856e-07
-0.000816751
-2.43283e-07
-4.74406e-07
8.36769e-05
-0.00144079
8.91665e-07
-6.37197e-08
-8.47648e-08
-6.84743e-07
-0.000753461
-2.87381e-06
-4.63695e-07
-5.88812e-07
-0.000503145
-5.51259e-07
-3.82775e-07
-8.98852e-05
-4.79069e-07
-0.00155017
-2.42434e-07
-7.22405e-07
-4.14414e-08
2.01075e-06
-2.14066e-07
0.00036899
4.51523e-06
-0.000547122
-4.95086e-07
0.00104876
-1.97471e-06
-3.28223e-07
-1.03824e-06
-9.3165e-05
8.4865e-05
0.00223087
0.000151697
-2.69932e-07
-1.62648e-07
3.44029e-09
6.4931e-10
-1.37195e-07
6.4821e-05
-4.59183e-07
-3.59841e-05
-4.83347e-07
-0.000763427
-0.00171868
-0.00104864
-9.40532e-07
-2.78954e-07
6.43572e-05
-3.91104e-07
-0.000499096
-0.000486828
-3.66201e-08
0.000114282
-3.70755e-07
-0.000562983
8.05256e-05
-4.59072e-07
0.00081495
-7.40134e-05
1.16987e-08
-1.02076e-06
-4.91661e-07
0.00020307
6.00952e-05
-3.18833e-07
-1.01286e-07
6.86596e-06
-0.0022454
-5.37298e-08
-0.00506643
7.4878e-08
-7.70974e-07
-3.45276e-08
-0.00162687
-0.000629088
-5.89867e-07
-2.89535e-07
-0.000931352
-0.000715033
-2.15809e-07
-6.23076e-08
-3.20651e-07
-0.00125469
-0.00117755
-2.41887e-08
-0.000361548
-2.0322e-07
-2.56329e-07
-3.47716e-07
-0.000153507
-0.00142878
-1.27619e-07
5.37321e-05
-5.02795e-07
-3.3135e-07
-8.31368e-08
9.56753e-05
-2.04709e-07
0.000911005
-7.36605e-07
-0.000924504
-2.02946e-07
-6.50967e-08
-8.07699e-09
6.42156e-05
0.000108717
-4.80816e-07
-0.00129844
3.05182e-07
-1.98773e-07
-7.02836e-08
-5.47475e-07
-2.66852e-07
-2.49716e-07
-4.64935e-07
-0.00183668
-2.91522e-07
-4.47966e-07
-0.000306544
-0.00175504
-3.97603e-07
-0.000462294
-0.000602461
-2.07227e-07
2.66131e-05
-1.30214e-07
-0.000140207
-2.47173e-07
-2.28595e-07
-3.05683e-07
-0.000705527
-0.000177756
1.39377e-06
-0.00151322
-5.55342e-07
-2.22898e-07
-4.73799e-07
-0.000393249
5.07454e-07
6.68167e-08
-0.00267504
-2.85336e-07
-2.26738e-05
-4.58257e-05
-1.38235e-07
-4.2436e-07
-1.01601e-07
-0.00161088
-1.24721e-06
8.49888e-07
1.54416e-07
1.2947e-07
-3.58562e-07
-1.77507e-07
-0.000595495
-2.40829e-07
0.000147499
4.23795e-07
-1.15956e-06
-0.00169852
-4.55285e-07
-0.00145387
-3.46446e-07
-0.000143674
0.00287825
-8.94524e-08
-9.65131e-08
-3.8583e-07
-2.03787e-07
-5.28327e-07
-2.13334e-08
0.00107979
-8.81705e-08
1.14689e-07
-0.000253075
-4.00538e-07
-2.42853e-07
-3.97499e-08
-0.00101207
-2.12246e-07
-3.02774e-07
7.0718e-07
-2.16964e-07
-0.00109655
-0.00159183
-5.97475e-09
-7.92288e-07
-4.88992e-07
-3.40374e-07
-2.08735e-07
-3.46215e-07
6.08154e-07
-2.37836e-07
-8.38195e-05
-0.000955518
-2.10802e-05
-3.43974e-07
6.48959e-05
-0.000452981
-1.98915e-07
1.75809e-06
-0.0015866
-2.33819e-08
-2.41325e-07
1.30247e-08
-0.00111046
0.000124387
-0.000248463
6.04188e-07
-3.39268e-07
-1.03517e-07
-1.19371e-07
-3.85994e-08
-3.7587e-07
4.55973e-05
-0.00011753
-0.00169939
-7.92672e-08
-2.49352e-07
-1.24209e-07
0.000252701
3.42836e-07
0.000103049
-6.64243e-05
0.000210002
0.000492697
-0.000421003
-0.00158077
-2.79259e-07
-0.000484891
0.00178021
-1.97154e-07
-1.00839e-07
-2.80647e-08
-0.00152258
6.7828e-05
6.81782e-05
-1.34273e-06
-0.00151989
-2.56512e-07
1.58899e-07
4.84563e-07
-4.01983e-07
-2.05498e-07
-6.99965e-08
0.000147054
-1.64567e-07
0.000296676
-0.000786236
9.31541e-05
-5.82298e-07
-2.37758e-07
0.000118241
-0.00134744
-3.08353e-08
8.62568e-05
-6.36583e-08
2.94264e-07
-4.51354e-08
1.3531e-06
5.10959e-07
1.57633e-05
-1.06907e-06
2.67084e-06
-4.24249e-07
-7.1692e-05
6.13606e-05
-2.78575e-06
-6.44895e-08
-2.78445e-07
-6.36698e-07
0.000143179
-4.3329e-07
2.75869e-07
-3.47566e-07
0.00245936
-3.82508e-07
2.92081e-07
-1.01198e-05
-3.67708e-07
-5.29129e-07
-3.85208e-07
1.94908e-05
-2.23069e-07
-0.000799096
-1.00057e-07
6.53015e-05
-2.81906e-07
-1.51756e-07
6.96415e-06
8.16633e-05
1.31191e-07
-1.21423e-07
-4.20032e-07
6.35163e-05
-9.70433e-07
3.02463e-05
2.56595e-06
-2.41577e-07
-1.23839e-07
-0.000625513
7.23912e-07
1.24907e-06
-1.42659e-07
-6.82212e-08
-3.13621e-07
-4.82385e-05
-0.000476504
-1.79479e-07
-0.000460215
-2.51686e-07
-4.68175e-07
-0.00118659
-1.4963e-05
-3.89195e-07
-0.000540436
-0.000663199
-9.94021e-08
-1.32172e-06
1.29443e-07
-3.03882e-07
-1.92304e-07
-0.000904847
1.33677e-07
-0.000502878
1.96699e-06
-3.4554e-07
1.15949e-08
-8.54838e-07
-0.000491128
-4.57864e-07
-0.000629408
-2.16074e-07
-3.37814e-07
-8.88188e-05
-0.00109534
-2.17895e-07
-0.00128739
0.00135641
3.15311e-05
-3.725e-07
-0.00119179
-0.00186501
0.00016565
-2.10058e-08
1.10998e-06
-3.44335e-07
-0.00136309
2.439e-06
3.69601e-05
9.30227e-06
-2.60127e-07
6.66207e-07
-1.86201e-08
0.000180688
-2.95896e-05
-0.00058584
7.17396e-05
-4.23502e-08
-0.000517176
-0.00160688
9.09641e-08
6.73627e-05
-0.000535379
-4.69565e-07
-0.000532116
-2.41385e-07
-2.25205e-07
-0.000675012
-0.00188205
7.84021e-07
0.000327648
-4.65363e-07
-8.53537e-08
-0.000300431
-0.000476608
-0.00197309
-0.0001658
-4.85665e-07
-2.48175e-07
-3.50364e-07
-0.00181512
7.53708e-05
-3.64812e-08
-2.48796e-07
0.000246441
-7.12591e-08
-2.69187e-07
-0.00172701
0.000150974
-3.88778e-07
-2.49839e-08
-1.93895e-07
-4.7581e-07
-0.000796487
-2.08377e-07
-3.07638e-07
-4.62853e-07
-0.00164364
0.000373681
0.00142355
-0.000517312
-1.98848e-07
-4.67142e-07
-0.000639969
-0.00153194
-4.79901e-07
-0.000521467
1.46822e-08
-4.33783e-07
-5.51156e-07
7.67614e-07
-5.824e-07
-3.33194e-07
-0.000358541
-4.55811e-07
-2.26167e-07
-4.64699e-07
-0.00175838
0.00272487
-0.000431101
-7.78693e-08
-6.40193e-07
-0.00161082
-0.00174047
-2.56639e-07
-4.15664e-07
-3.44147e-08
1.54859e-05
-2.78253e-07
2.2709e-07
-4.18015e-07
-8.94211e-08
-0.000643925
6.12942e-05
-2.63908e-07
-3.87006e-07
5.77513e-07
-3.64019e-07
-0.00162429
0.00270021
-1.77755e-07
6.84289e-05
-5.62945e-05
-2.44212e-07
2.10422e-08
-1.66402e-07
-3.35638e-07
-2.41777e-07
-4.42437e-07
4.80935e-07
-0.00109444
-1.95656e-07
-1.05617e-07
-0.000437921
1.98674e-06
-2.78e-07
6.78745e-08
-2.25404e-07
-0.000948752
-3.23301e-07
-0.00225336
8.1138e-06
1.22333e-06
-2.0582e-07
-0.0002277
5.36912e-07
3.43545e-05
1.01963e-08
5.25319e-07
-3.95753e-07
-1.30218e-07
-9.76574e-07
-0.00184692
-0.00144205
-5.22331e-07
-0.00259883
-0.000981774
-0.000472324
-3.13882e-07
-0.000481927
6.45495e-05
-1.225e-07
-0.00116133
-0.00173667
2.95142e-08
1.60099e-05
-2.08553e-07
5.70774e-07
0.000280111
-1.90227e-07
-3.74142e-07
0.000262075
-2.69771e-06
0.000120898
-0.000759042
-2.04525e-07
1.27864e-06
-2.50743e-07
2.68017e-05
4.9846e-07
1.4322e-06
-0.000116132
-0.00140969
-0.00293865
-2.8141e-07
1.88425e-07
-1.19194e-07
0.000736406
-0.000638846
-3.52312e-07
1.88158e-05
-4.5132e-08
8.87182e-06
-0.000421741
0.000402255
-4.84392e-07
-2.97601e-07
3.40597e-07
-5.63709e-07
-3.87045e-07
-3.58178e-07
-3.71593e-07
-0.000607579
-1.48438e-07
-0.000496514
0.000369187
-0.00200571
1.28121e-07
-1.48137e-08
8.21271e-07
2.6212e-07
4.58487e-08
-2.0755e-07
0.00291298
-0.00134444
-0.00457894
-0.00146683
-1.50184e-07
7.52765e-05
-2.20513e-09
-0.00135375
-0.000521567
-3.55895e-07
-1.53696e-07
1.31526e-06
-3.04034e-07
1.37488e-07
-0.00100726
-0.000642008
-4.64221e-05
-1.48515e-07
-2.33874e-07
-1.70911e-06
-5.30414e-07
-0.00172802
-7.23537e-08
-7.95552e-07
5.76438e-05
4.50592e-08
-5.10394e-05
-5.19645e-07
2.68501e-05
-2.40796e-07
4.02583e-06
0.000510094
-4.3666e-07
-0.00182887
-1.31367e-08
-0.000488817
5.52783e-07
-4.59564e-07
-1.92324e-07
-4.81358e-07
-0.000188462
-1.145e-06
-7.55944e-05
1.35157e-07
-2.51468e-08
-1.83766e-08
-0.00132884
-3.58336e-07
-3.93331e-08
-0.000732044
-1.03886e-07
-2.5618e-07
-2.47983e-05
-3.59224e-07
6.11495e-07
-2.59352e-07
-3.25845e-07
-1.0586e-06
-3.94132e-07
-2.00301e-07
-0.00128187
-0.00176413
-0.00124631
-0.00200272
-0.000119445
5.90687e-05
-1.03958e-07
-0.00153844
-7.63528e-07
5.31566e-07
-8.7456e-07
2.89036e-07
-3.73423e-07
-0.00180387
-0.00175132
7.22529e-07
-9.13625e-05
-0.000972897
-2.53523e-07
-2.42156e-07
-5.79495e-07
-0.000767347
-0.00172273
-0.000602437
-0.00128712
-0.000632579
2.88049e-07
3.5189e-07
-1.72362e-07
9.66962e-07
-0.000771684
-4.08693e-08
8.34153e-08
9.97827e-06
-4.72794e-07
-0.000287657
-4.23385e-07
1.39196e-06
3.49048e-05
-0.000697107
-7.18341e-08
-4.77344e-07
-0.000291844
1.25928e-07
-0.000650492
-0.00101957
-0.000643469
-1.38241e-08
-0.00148645
-2.47562e-07
-3.40679e-07
-3.54914e-07
-0.000383405
1.38963e-06
-0.000472506
4.75243e-07
-4.05924e-07
7.82871e-07
1.38977e-06
-0.00174321
-2.64553e-08
7.51052e-08
-0.000383584
-1.10803e-08
-0.000560419
-0.00106501
-0.000844013
-0.00114926
-0.00213464
0.00152848
-3.0521e-07
-0.00179136
1.17487e-07
3.45728e-07
-4.11682e-07
-3.24798e-07
-0.000580218
-2.96485e-07
-6.26679e-07
-3.55704e-07
-1.3945e-07
-0.00143279
-3.75562e-07
-1.4439e-08
-1.43333e-06
-4.99863e-08
-0.00040346
-1.58334e-07
-2.71154e-07
-6.21641e-05
4.48773e-06
1.64696e-08
-0.0022554
-2.61742e-07
-0.000995504
0.000534983
7.34966e-07
1.21758e-07
-3.73894e-07
-0.00177944
-0.000620738
-1.63638e-07
0.00161598
-9.08502e-07
-4.40195e-08
8.37506e-05
-2.34165e-07
-3.45835e-07
-3.9801e-05
-2.34676e-07
-6.77125e-09
-2.33433e-07
-4.2188e-07
-3.89435e-07
-0.000396597
-7.0089e-06
-2.89191e-06
-7.77129e-05
-2.31892e-07
-5.18927e-07
-3.19081e-07
-0.00176949
-0.000237481
2.8366e-05
-2.73027e-08
6.65529e-07
-2.461e-07
-4.84746e-07
0.00181331
-3.50028e-07
0.00049221
-3.8025e-07
-0.00156371
1.21027e-07
-2.99939e-06
-4.12094e-05
2.97258e-08
-0.000432595
-0.00384839
-0.0015188
-0.00059024
2.97142e-07
-5.42576e-06
-6.7331e-06
-0.000337533
2.28858e-07
1.24753e-05
-0.000251344
8.70383e-05
2.26736e-08
-0.000467167
-0.000338507
-0.00177091
-2.35674e-07
4.30078e-06
-7.15633e-08
-3.37877e-07
-2.3906e-07
-1.93482e-08
-8.2009e-08
-3.21246e-05
0.000184232
9.05273e-05
3.99126e-05
-2.36882e-08
-1.91098e-07
-2.89789e-07
-2.77653e-08
-0.0030005
-9.66759e-08
-2.25495e-07
-0.00177008
-3.50548e-06
-6.67041e-07
-1.36578e-07
1.37037e-06
-7.36265e-07
3.79492e-05
-0.000595135
3.66274e-05
-2.17576e-07
-0.000609321
-5.05751e-07
-1.0384e-07
-1.55394e-07
-0.000500932
2.59812e-07
-1.74276e-05
-2.64085e-07
-2.4445e-07
-2.54665e-07
-3.46177e-08
-2.05375e-07
-2.86216e-07
-0.000506951
3.8616e-05
-4.39491e-07
-0.0017532
-0.000387634
0.0012752
0.000410292
-9.72508e-08
-4.00513e-07
-0.000486136
-5.48658e-08
9.07898e-07
-3.75158e-07
-3.02285e-07
-0.000338348
-0.000589882
-7.80707e-08
-2.44006e-07
-4.37027e-07
-5.66349e-07
0.00021023
-0.00094084
-0.0016933
-3.70189e-07
-9.81448e-09
-0.00150087
-5.93627e-08
4.4305e-08
0.000359112
-0.000918839
-0.00201244