/*--------------------------------*- C++ -*----------------------------------*\
| =========                 |                                                 |
| \\      /  F ield         | OpenFOAM: The Open Source CFD Toolbox           |
|  \\    /   O peration     | Version:  v2012                                 |
|   \\  /    A nd           | Website:  www.openfoam.com                      |
|    \\/     M anipulation  |                                                 |
\*---------------------------------------------------------------------------*/
FoamFile
{
    version     2.0;
    format      ascii;
    class       pointVectorField;
    location    "750";
    object      pointDisplacement;
}
// * * * * * * * * * * * * * * * * * * * * * * * * * * * * * * * * * * * * * //

dimensions      [0 1 0 0 0 0 0];


internalField   nonuniform List<vector> 
14332
(
(0 0 0)
(-0.0212636 0.147809 0)
(0 0 0)
(-0.0212636 0.147809 0)
(0 0 0)
(0 0 0)
(0 0 0)
(0 0 0)
(0 0 0)
(0 0 0)
(0 0 0)
(0 0 0)
(0 0 0)
(0 0 0)
(0 0 0)
(0 0 0)
(0 0 0)
(0 0 0)
(0 0 0)
(0 0 0)
(0 0 0)
(0 0 0)
(0 0 0)
(0 0 0)
(0 0 0)
(0 0 0)
(0 0 0)
(0 0 0)
(0 0 0)
(0 0 0)
(0 0 0)
(0 0 0)
(0 0 0)
(0 0 0)
(0 0 0)
(0 0 0)
(0 0 0)
(0 0 0)
(0 0 0)
(0 0 0)
(0 0 0)
(0 0 0)
(0 0 0)
(0 0 0)
(0 0 0)
(0 0 0)
(0 0 0)
(0 0 0)
(0 0 0)
(0 0 0)
(0 0 0)
(0 0 0)
(0 0 0)
(0 0 0)
(0 0 0)
(0 0 0)
(0 0 0)
(0 0 0)
(0 0 0)
(0 0 0)
(0 0 0)
(0 0 0)
(0 0 0)
(0 0 0)
(0 0 0)
(0 0 0)
(0 0 0)
(0 0 0)
(0 0 0)
(0 0 0)
(0 0 0)
(0 0 0)
(0 0 0)
(0 0 0)
(0 0 0)
(0 0 0)
(0 0 0)
(0 0 0)
(0 0 0)
(0 0 0)
(0 0 0)
(0 0 0)
(0 0 0)
(0 0 0)
(0 0 0)
(0 0 0)
(0 0 0)
(0 0 0)
(0 0 0)
(0 0 0)
(0 0 0)
(0 0 0)
(0 0 0)
(0 0 0)
(0 0 0)
(0 0 0)
(0 0 0)
(0 0 0)
(0 0 0)
(0 0 0)
(0 0 0)
(0 0 0)
(0 0 0)
(0 0 0)
(0 0 0)
(0 0 0)
(0 0 0)
(0 0 0)
(0 0 0)
(0 0 0)
(0 0 0)
(0 0 0)
(0 0 0)
(0 0 0)
(0 0 0)
(0 0 0)
(0 0 0)
(0 0 0)
(0 0 0)
(0 0 0)
(0 0 0)
(0 0 0)
(0 0 0)
(0 0 0)
(0 0 0)
(0 0 0)
(0 0 0)
(0 0 0)
(0 0 0)
(0 0 0)
(0 0 0)
(0 0 0)
(0 0 0)
(0 0 0)
(0.0120707 0.148427 0)
(0.0102188 0.148393 0)
(0.00836685 0.148358 0)
(0.00651494 0.148324 0)
(0.00466304 0.14829 0)
(0.00281113 0.148255 0)
(0.000959226 0.148221 0)
(-0.000892679 0.148187 0)
(-0.00274458 0.148152 0)
(-0.00459649 0.148118 0)
(-0.0064484 0.148084 0)
(-0.0083003 0.14805 0)
(-0.0101522 0.148015 0)
(-0.0120041 0.147981 0)
(-0.013856 0.147947 0)
(-0.0157079 0.147912 0)
(-0.0175598 0.147878 0)
(-0.0194117 0.147844 0)
(-0.0212293 0.145957 0)
(-0.021195 0.144106 0)
(-0.0211607 0.142254 0)
(-0.0211264 0.140402 0)
(-0.0210921 0.13855 0)
(-0.0210578 0.136698 0)
(-0.0210235 0.134846 0)
(-0.0209892 0.132994 0)
(-0.0209549 0.131142 0)
(-0.0209206 0.12929 0)
(-0.0208863 0.127438 0)
(-0.020852 0.125587 0)
(-0.0208176 0.123735 0)
(-0.0207833 0.121883 0)
(-0.020749 0.120031 0)
(-0.0207147 0.118179 0)
(-0.0206804 0.116327 0)
(-0.0206461 0.114475 0)
(-0.0206118 0.112623 0)
(-0.0205775 0.110771 0)
(-0.0205432 0.108919 0)
(-0.0205089 0.107067 0)
(-0.0204746 0.105216 0)
(-0.0204403 0.103364 0)
(-0.020406 0.101512 0)
(-0.0203717 0.0996598 0)
(-0.0203373 0.0978079 0)
(0 0 0)
(0 0 0)
(0 0 0)
(0 0 0)
(0 0 0)
(0 0 0)
(0 0 0)
(0 0 0)
(0 0 0)
(0 0 0)
(0 0 0)
(0 0 0)
(0 0 0)
(0 0 0)
(0 0 0)
(0 0 0)
(0 0 0)
(0 0 0)
(0 0 0)
(0 0 0)
(0 0 0)
(0 0 0)
(0 0 0)
(0 0 0)
(0 0 0)
(0 0 0)
(0 0 0)
(0 0 0)
(0 0 0)
(0 0 0)
(0 0 0)
(0 0 0)
(0 0 0)
(0 0 0)
(0 0 0)
(0 0 0)
(0 0 0)
(0 0 0)
(0 0 0)
(0 0 0)
(0 0 0)
(0 0 0)
(0 0 0)
(0 0 0)
(0 0 0)
(0 0 0)
(0 0 0)
(0 0 0)
(0 0 0)
(0 0 0)
(0 0 0)
(0 0 0)
(0 0 0)
(0 0 0)
(0 0 0)
(0 0 0)
(0 0 0)
(0 0 0)
(0 0 0)
(0 0 0)
(0 0 0)
(0 0 0)
(0 0 0)
(0 0 0)
(0 0 0)
(0 0 0)
(0 0 0)
(0 0 0)
(0 0 0)
(0 0 0)
(0 0 0)
(0 0 0)
(0 0 0)
(0 0 0)
(0 0 0)
(0 0 0)
(0 0 0)
(0 0 0)
(0 0 0)
(0 0 0)
(0 0 0)
(0 0 0)
(0 0 0)
(0 0 0)
(0 0 0)
(0 0 0)
(0 0 0)
(0 0 0)
(0 0 0)
(0 0 0)
(0 0 0)
(0 0 0)
(0 0 0)
(0 0 0)
(0 0 0)
(0 0 0)
(0 0 0)
(0 0 0)
(0 0 0)
(0 0 0)
(0 0 0)
(0 0 0)
(0 0 0)
(0 0 0)
(0 0 0)
(0 0 0)
(0 0 0)
(0 0 0)
(0 0 0)
(0 0 0)
(0 0 0)
(0 0 0)
(0 0 0)
(0 0 0)
(0 0 0)
(0 0 0)
(0 0 0)
(0 0 0)
(0 0 0)
(0 0 0)
(0 0 0)
(0 0 0)
(0 0 0)
(0 0 0)
(0 0 0)
(0 0 0)
(0 0 0)
(0 0 0)
(0 0 0)
(0 0 0)
(0.0120707 0.148427 0)
(0.0102188 0.148393 0)
(0.00836685 0.148358 0)
(0.00651494 0.148324 0)
(0.00466304 0.14829 0)
(0.00281113 0.148255 0)
(0.000959226 0.148221 0)
(-0.000892679 0.148187 0)
(-0.00274458 0.148152 0)
(-0.00459649 0.148118 0)
(-0.0064484 0.148084 0)
(-0.0083003 0.14805 0)
(-0.0101522 0.148015 0)
(-0.0120041 0.147981 0)
(-0.013856 0.147947 0)
(-0.0157079 0.147912 0)
(-0.0175598 0.147878 0)
(-0.0194117 0.147844 0)
(-0.0212293 0.145957 0)
(-0.021195 0.144106 0)
(-0.0211607 0.142254 0)
(-0.0211264 0.140402 0)
(-0.0210921 0.13855 0)
(-0.0210578 0.136698 0)
(-0.0210235 0.134846 0)
(-0.0209892 0.132994 0)
(-0.0209549 0.131142 0)
(-0.0209206 0.12929 0)
(-0.0208863 0.127438 0)
(-0.020852 0.125587 0)
(-0.0208176 0.123735 0)
(-0.0207833 0.121883 0)
(-0.020749 0.120031 0)
(-0.0207147 0.118179 0)
(-0.0206804 0.116327 0)
(-0.0206461 0.114475 0)
(-0.0206118 0.112623 0)
(-0.0205775 0.110771 0)
(-0.0205432 0.108919 0)
(-0.0205089 0.107067 0)
(-0.0204746 0.105216 0)
(-0.0204403 0.103364 0)
(-0.020406 0.101512 0)
(-0.0203717 0.0996598 0)
(-0.0203373 0.0978079 0)
(-0.00371065 0.148131 0)
(-0.000221508 0.00370822 0)
(-0.0209728 0.132154 0)
(-0.0203574 0.0988818 0)
(-0.0206674 0.11568 0)
(-0.00031145 0.00410331 0)
(0.0108879 0.148408 0)
(-0.000142706 0.00306239 0)
(-6.3305e-05 0.00193883 0)
(-1.38663e-05 0.000857176 0)
(-0.000561568 0.00572262 0)
(-3.86564e-05 0.00138542 0)
(-8.63109e-05 0.00224407 0)
(-0.0164788 0.14789 0)
(-0.000618812 0.00485307 0)
(-1.69413e-05 0.000948011 0)
(-0.000779556 0.00439822 0)
(-2.34118e-05 0.000934337 0)
(-0.000956202 0.00329508 0)
(-0.0211689 0.143189 0)
(-1.59387e-05 0.000831188 0)
(-2.04323e-05 0.000872837 0)
(-1.11798e-05 0.000557427 0)
(-1.21304e-05 0.000541586 0)
(-9.18997e-06 0.000443099 0)
(-0.000181669 0.00345386 0)
(-4.46406e-05 0.00148297 0)
(0.00362664 0.148265 0)
(-0.0208337 0.124649 0)
(-0.0205267 0.108046 0)
(-8.12925e-06 0.000372022 0)
(-5.3185e-06 0.000251958 0)
(-0.000562038 0.00506518 0)
(-0.000514347 0.00586365 0)
(-0.000681267 0.00461585 0)
(-0.000938976 0.00433409 0)
(-0.000283424 0.00415772 0)
(-0.000131999 0.00307956 0)
(-7.14301e-05 0.00199492 0)
(-2.51724e-05 0.00104337 0)
(-3.56561e-05 0.0013626 0)
(-1.4297e-05 0.000843578 0)
(-1.31839e-05 0.000711241 0)
(-6.16746e-06 0.000285873 0)
(-0.00915547 0.148033 0)
(-0.0210724 0.13756 0)
(-3.23141e-06 0.000150898 0)
(-3.08828e-06 0.000145159 0)
(-0.00108406 0.00244126 0)
(-0.000383888 0.00472131 0)
(-0.000263845 0.00414091 0)
(-0.000204284 0.00364705 0)
(-0.000150241 0.00303295 0)
(-0.000109725 0.00270119 0)
(-3.31506e-05 0.00122748 0)
(-4.78789e-05 0.00165502 0)
(-7.2231e-05 0.00212031 0)
(-1.00121e-05 0.000453301 0)
(-4.99677e-05 0.00159752 0)
(-1.33199e-05 0.000765615 0)
(-9.89885e-06 0.000506891 0)
(-9.22503e-06 0.00045032 0)
(-7.70982e-06 0.000368399 0)
(-1.52384e-05 0.000664331 0)
(-1.55444e-06 7.2863e-05 0)
(-0.000991206 0.120158 0)
(-0.00133231 0.119488 0)
(-0.00144421 0.120639 0)
(-0.00178211 0.119899 0)
(-0.00192524 0.121028 0)
(-0.00224682 0.120213 0)
(-0.00242176 0.121311 0)
(-0.00272393 0.12043 0)
(-0.00292587 0.121502 0)
(-0.00320751 0.120544 0)
(-0.00343318 0.121579 0)
(-0.00369263 0.120551 0)
(-0.003938 0.121547 0)
(-0.00418082 0.120452 0)
(-0.00444297 0.121414 0)
(-0.00466957 0.120255 0)
(-0.00495191 0.121159 0)
(-0.00514371 0.119988 0)
(-0.00544997 0.120769 0)
(-0.00559525 0.119564 0)
(-0.00593223 0.120257 0)
(-0.00603292 0.118917 0)
(-0.00639476 0.119616 0)
(-0.00646712 0.118171 0)
(-0.00684083 0.118831 0)
(-0.00688567 0.117361 0)
(-0.00725515 0.117883 0)
(-0.00728037 0.116426 0)
(-0.00765069 0.11691 0)
(-0.00765925 0.115408 0)
(-0.00804754 0.115855 0)
(-0.00802023 0.114296 0)
(-0.00841179 0.114595 0)
(-0.00834916 0.113017 0)
(-0.00873584 0.113183 0)
(-0.00797789 0.112738 0)
(-0.00827832 0.111421 0)
(-0.00792152 0.111153 0)
(-0.000542463 0.0348849 0)
(-0.000520841 0.0337948 0)
(-0.00820638 0.1098 0)
(-0.00785564 0.109545 0)
(-0.00054404 0.0340799 0)
(-0.000523036 0.0330383 0)
(-0.00812747 0.108153 0)
(-0.00778113 0.107907 0)
(-0.000545428 0.0333144 0)
(-0.000524072 0.0322679 0)
(-0.000546636 0.0325514 0)
(-0.000523852 0.0314936 0)
(-0.00803892 0.10648 0)
(-0.00769957 0.10624 0)
(-0.000544971 0.0317317 0)
(-0.000522129 0.0307043 0)
(-0.00794521 0.104779 0)
(-0.00761239 0.104548 0)
(-0.000541352 0.0308867 0)
(-0.000518653 0.0298906 0)
(-0.000500204 0.0296958 0)
(-0.00784295 0.103045 0)
(-0.0075176 0.102811 0)
(-0.00816577 0.103336 0)
(-0.000536275 0.0300271 0)
(-0.000513616 0.0290587 0)
(-0.00773649 0.101254 0)
(-0.00741476 0.101033 0)
(-0.000529968 0.0291637 0)
(-0.000553041 0.030075 0)
(-0.000507247 0.0282142 0)
(-0.00367333 0.122603 0)
(-0.00881854 0.11479 0)
(-0.00913828 0.113283 0)
(-0.00923282 0.114899 0)
(-0.00953818 0.113416 0)
(-0.00965429 0.114907 0)
(-0.00993547 0.11336 0)
(-0.010082 0.114772 0)
(-0.010345 0.113056 0)
(-0.0105086 0.11451 0)
(-0.0107565 0.112684 0)
(-0.0109329 0.114119 0)
(-0.0111602 0.112179 0)
(-0.0113517 0.113629 0)
(-0.0115565 0.111542 0)
(-0.0117637 0.112973 0)
(-0.011945 0.110786 0)
(-0.0121659 0.112132 0)
(-0.0123227 0.109905 0)
(-0.0125583 0.11117 0)
(-0.0126891 0.108851 0)
(-0.0129362 0.110032 0)
(-0.0130425 0.1076 0)
(-0.0133012 0.108693 0)
(-0.0133858 0.106134 0)
(-0.0131234 0.105081 0)
(-0.0134526 0.103442 0)
(-0.0137171 0.104494 0)
(-0.0137614 0.101711 0)
(-0.0140248 0.102646 0)
(-0.0140342 0.0998412 0)
(-0.01431 0.100554 0)
(-0.014293 0.097749 0)
(-0.0145851 0.0982181 0)
(-0.0145275 0.0953682 0)
(-0.0148321 0.0955858 0)
(-0.0147591 0.0926727 0)
(-0.0150444 0.0927739 0)
(-0.0149914 0.0899207 0)
(-0.0152477 0.0898888 0)
(-0.0151814 0.0869458 0)
(-0.0154377 0.0866837 0)
(-0.0153427 0.0836181 0)
(-0.015596 0.0831077 0)
(-0.0154841 0.0799753 0)
(-0.0157286 0.0792668 0)
(-0.0156059 0.0761296 0)
(-0.0158468 0.0752031 0)
(-0.0157101 0.0720823 0)
(-0.0159469 0.0709366 0)
(-0.015796 0.0678492 0)
(-0.0160238 0.0664602 0)
(-0.0158624 0.0634477 0)
(-0.0160797 0.0618565 0)
(-0.0159102 0.0589461 0)
(-0.0131918 0.102413 0)
(-0.0147495 0.0895108 0)
(-0.0155617 0.0689112 0)
(-0.0110877 0.115652 0)
(-0.000522244 0.0282867 0)
(-0.000499581 0.0273562 0)
(-0.00761493 0.099432 0)
(-0.00730381 0.0992266 0)
(-0.0161721 0.0694919 0)
(-0.000513259 0.0273941 0)
(-0.00049076 0.0264836 0)
(-0.00748003 0.0975922 0)
(-0.00718531 0.0973909 0)
(-0.000503007 0.0264854 0)
(-0.000480923 0.0256005 0)
(-0.000468943 0.0255785 0)
(-0.0073454 0.0957176 0)
(-0.00705985 0.095522 0)
(-0.000491496 0.0255618 0)
(-0.000470016 0.0247086 0)
(-0.0155303 0.0902524 0)
(-0.0072088 0.0938266 0)
(-0.00692946 0.093614 0)
(-0.00747501 0.0938956 0)
(-0.0131889 0.111178 0)
(-0.000478868 0.0246304 0)
(-0.000498903 0.0253968 0)
(-0.000458169 0.0238117 0)
(-0.00706613 0.0918931 0)
(-0.00679168 0.0916784 0)
(-0.000465799 0.0237088 0)
(-0.000445542 0.0229117 0)
(-0.000452178 0.022789 0)
(-0.000432202 0.0220098 0)
(-0.00691658 0.089928 0)
(-0.00664613 0.0897217 0)
(-0.000438136 0.021875 0)
(-0.00041823 0.0211072 0)
(-0.000412311 0.0212208 0)
(-0.00675745 0.087931 0)
(-0.0064954 0.0877131 0)
(-0.000398876 0.0203431 0)
(-0.000393363 0.0204493 0)
(-0.00040357 0.0202043 0)
(-0.00659184 0.0858997 0)
(-0.00634216 0.0856888 0)
(-0.0062382 0.0873396 0)
(-0.00609658 0.0853869 0)
(-0.00598757 0.0869636 0)
(-0.00585429 0.085039 0)
(-0.00574185 0.0866162 0)
(-0.00561571 0.08462 0)
(-0.00571632 0.0829786 0)
(-0.00548305 0.082558 0)
(-0.00538248 0.0840865 0)
(-0.00525796 0.0820936 0)
(-0.000384707 0.0194605 0)
(-0.000388429 0.0193072 0)
(-0.00534292 0.0804435 0)
(-0.00512664 0.0799913 0)
(-0.0050403 0.0816029 0)
(-0.00491676 0.0794901 0)
(-0.00492106 0.119149 0)
(-0.000370655 0.0186107 0)
(-0.000372996 0.0184173 0)
(-0.00482721 0.0810423 0)
(-0.00471169 0.0789278 0)
(-0.00478703 0.077329 0)
(-0.00458937 0.0767805 0)
(-0.00451149 0.0783318 0)
(-0.00439735 0.0761804 0)
(-0.00431604 0.0776742 0)
(-0.00421065 0.0755242 0)
(-0.00412827 0.0769514 0)
(-0.00402929 0.0748172 0)
(-0.00394744 0.0761842 0)
(-0.00385366 0.0740676 0)
(-0.0039245 0.0726494 0)
(-0.00375407 0.0719224 0)
(-0.007111 0.100734 0)
(-0.000354078 0.017686 0)
(-0.00035728 0.0175259 0)
(-0.00368395 0.0732882 0)
(-0.00358973 0.0711671 0)
(-0.00364868 0.0697438 0)
(-0.00349048 0.0690121 0)
(-0.00343117 0.0703825 0)
(-0.00333794 0.0682464 0)
(-0.00327843 0.0695645 0)
(-0.00319079 0.0674505 0)
(-0.000339554 0.0168196 0)
(-0.000341308 0.016643 0)
(-0.000359911 0.0173834 0)
(-0.00323953 0.0660795 0)
(-0.00309817 0.0653107 0)
(-0.00304877 0.0666325 0)
(-0.00296201 0.0645194 0)
(-0.00291184 0.0657918 0)
(-0.00283068 0.0637002 0)
(-0.00278028 0.0649242 0)
(-0.00270415 0.0628559 0)
(-0.00265423 0.064031 0)
(-0.00258262 0.0619913 0)
(-0.0026242 0.0607635 0)
(-0.00250651 0.0599284 0)
(-0.00246611 0.0611141 0)
(-0.00239417 0.0590848 0)
(-0.000323915 0.0159584 0)
(-0.00032345 0.0161869 0)
(-0.000324845 0.0157597 0)
(-0.00242613 0.0578415 0)
(-0.00231847 0.0570314 0)
(-0.00228662 0.0582285 0)
(-0.00221536 0.0562056 0)
(-0.00218331 0.0573512 0)
(-0.00211646 0.0553602 0)
(-0.00208393 0.0564885 0)
(-0.00202144 0.0545017 0)
(-0.00204643 0.0533543 0)
(-0.00195547 0.0525257 0)
(-0.00193034 0.0536221 0)
(-0.00186836 0.0516823 0)
(-0.00184294 0.0527188 0)
(-0.00178499 0.050827 0)
(-0.00180276 0.0497301 0)
(-0.00172356 0.0489201 0)
(-0.00170528 0.0499676 0)
(-0.00164776 0.0481037 0)
(-0.00162878 0.0490927 0)
(-0.00157501 0.0472747 0)
(-0.000308006 0.0150941 0)
(-0.000308313 0.0148863 0)
(-0.00158791 0.0462278 0)
(-0.00151887 0.0454452 0)
(-0.00150535 0.0464415 0)
(-0.00145245 0.0446531 0)
(-0.00143883 0.0456092 0)
(-0.00138893 0.043854 0)
(-0.00137513 0.0447692 0)
(-0.00132814 0.043051 0)
(-0.00133717 0.0420907 0)
(-0.00127933 0.0413253 0)
(-0.00127001 0.0422441 0)
(-0.00122396 0.0405537 0)
(-0.00121449 0.0414266 0)
(-0.00117101 0.0397759 0)
(-0.00117642 0.0388662 0)
(-0.00112605 0.0381289 0)
(-0.00578823 0.12151 0)
(0.00145618 0.140996 0)
(0.00125872 0.140343 0)
(0.000436327 0.140854 0)
(0.000330686 0.140189 0)
(-0.000569874 0.140625 0)
(-0.000577536 0.139875 0)
(-0.00156457 0.140323 0)
(-0.00154752 0.13964 0)
(-0.00249404 0.139983 0)
(-0.00237625 0.139293 0)
(-0.00334402 0.139584 0)
(-0.00352711 0.140259 0)
(-0.00433314 0.139815 0)
(-0.00459319 0.140464 0)
(-0.00535879 0.139923 0)
(-0.00571469 0.140582 0)
(-0.00640209 0.139942 0)
(-0.00685918 0.14056 0)
(-0.00742525 0.139868 0)
(-0.00795253 0.140416 0)
(-0.00842466 0.139656 0)
(-0.00899432 0.140185 0)
(-0.00938536 0.13935 0)
(-0.00998113 0.139848 0)
(-0.00884095 0.138825 0)
(-0.0014647 0.138948 0)
(-0.0102755 0.138942 0)
(-0.0108931 0.139393 0)
(-0.000292677 0.0142591 0)
(-0.00029178 0.0140244 0)
(-0.00320625 0.138905 0)
(-0.00403399 0.0782735 0)
(-0.00112758 0.0371802 0)
(-0.00107983 0.0364838 0)
(-0.00685106 0.086018 0)
(-0.00116145 0.0406032 0)
(-0.0110917 0.138443 0)
(-0.0117185 0.138818 0)
(-0.00313637 0.0638831 0)
(-0.00465121 0.0751297 0)
(-0.000277081 0.0134376 0)
(-0.000275219 0.0131706 0)
(-0.000290817 0.0137961 0)
(-0.00666675 0.0839567 0)
(-0.00692209 0.083978 0)
(-0.00671999 0.0818911 0)
(-0.00696942 0.0818338 0)
(-0.00675141 0.0797066 0)
(-0.00699616 0.0795765 0)
(-0.00676053 0.0774042 0)
(-0.00699738 0.0771774 0)
(-0.00674389 0.074977 0)
(-0.00696915 0.0746472 0)
(0.00176481 0.141627 0)
(-0.0118252 0.137812 0)
(-0.0124625 0.138103 0)
(-0.00107764 0.0354963 0)
(-0.00103257 0.0348414 0)
(-0.0113478 0.110111 0)
(-0.00272109 0.0660513 0)
(-0.00669839 0.0724086 0)
(-0.00691444 0.0720111 0)
(-0.00719858 0.0742248 0)
(-0.00713061 0.0715177 0)
(-0.00742536 0.0736687 0)
(-0.0073436 0.0708998 0)
(-0.00764861 0.0729909 0)
(-0.00755394 0.0701641 0)
(-0.00786888 0.072194 0)
(-0.00775994 0.0693113 0)
(-0.00808457 0.0712604 0)
(-0.00795726 0.0683366 0)
(-0.00829216 0.0701931 0)
(-0.0081457 0.0672242 0)
(-0.00849101 0.0689936 0)
(-0.00832873 0.0659566 0)
(-0.00868054 0.0676418 0)
(-0.00850176 0.0645414 0)
(-0.00886002 0.0661479 0)
(-0.0086637 0.063007 0)
(-0.00902868 0.0645142 0)
(-0.0088142 0.0613317 0)
(-0.0091847 0.0627276 0)
(-0.00895222 0.0595135 0)
(-0.00932667 0.0607759 0)
(-0.000260592 0.012595 0)
(-0.000263225 0.0129011 0)
(-0.000258279 0.0123185 0)
(-0.00907776 0.0575496 0)
(-0.00945542 0.0586585 0)
(-0.0124827 0.137025 0)
(-0.0131272 0.137229 0)
(-0.0118097 0.136838 0)
(-0.00918911 0.0554445 0)
(-0.00956942 0.0563837 0)
(-0.00102687 0.0338176 0)
(-0.00098454 0.0332048 0)
(-0.000989362 0.0341826 0)
(-0.000943938 0.032586 0)
(-0.00928589 0.0532123 0)
(-0.00966722 0.0539505 0)
(-0.000244271 0.0117653 0)
(-0.000241261 0.0114782 0)
(-0.00662804 0.0697399 0)
(-0.0130845 0.136109 0)
(-0.0137056 0.136205 0)
(-0.00936465 0.0508209 0)
(-0.00974763 0.0513537 0)
(-0.00982263 0.0595741 0)
(-0.000947978 0.0335177 0)
(-0.00090495 0.0319577 0)
(-0.000897995 0.0309969 0)
(-0.000861279 0.0304066 0)
(-0.00942654 0.048264 0)
(-0.00981084 0.0486326 0)
(-0.00743378 0.141107 0)
(-0.00902593 0.0692129 0)
(-0.000851713 0.0294179 0)
(-0.00081745 0.0288707 0)
(-0.0094745 0.0455807 0)
(-0.00985761 0.04581 0)
(-0.010187 0.0488635 0)
(-0.0102338 0.0458936 0)
(-0.00988879 0.04288 0)
(-0.0102704 0.0428186 0)
(-0.00990434 0.0398381 0)
(-0.0102841 0.0395738 0)
(-0.00990103 0.0366926 0)
(-0.0102776 0.0361923 0)
(-0.0136179 0.135056 0)
(-0.0142029 0.135055 0)
(-0.0143055 0.13619 0)
(-0.0147852 0.134962 0)
(-0.014629 0.133789 0)
(-0.0151768 0.133574 0)
(-0.0153865 0.134763 0)
(-0.0157232 0.133233 0)
(-0.0154966 0.132045 0)
(-0.0159896 0.131521 0)
(-0.0162433 0.132705 0)
(-0.0164523 0.130882 0)
(-0.0167157 0.131996 0)
(-0.0168834 0.130127 0)
(-0.0171554 0.131162 0)
(-0.0172787 0.129247 0)
(-0.0175463 0.13011 0)
(-0.017635 0.128165 0)
(-0.0178952 0.128935 0)
(-0.0179571 0.126859 0)
(-0.0182218 0.127624 0)
(-0.0182445 0.125324 0)
(-0.0185062 0.12589 0)
(-0.0184969 0.123535 0)
(-0.0187467 0.123842 0)
(-0.0187147 0.121512 0)
(-0.0189512 0.121637 0)
(-0.0189001 0.119221 0)
(-0.0191232 0.119245 0)
(-0.019063 0.116714 0)
(-0.0192662 0.116619 0)
(-0.0192015 0.114036 0)
(-0.0193821 0.113783 0)
(-0.0193106 0.111178 0)
(-0.0194738 0.110787 0)
(-0.0193978 0.108162 0)
(-0.0195448 0.107647 0)
(-0.0194662 0.105017 0)
(-0.0195976 0.104323 0)
(-0.0195138 0.101687 0)
(-0.0196282 0.100838 0)
(-0.0195444 0.0983114 0)
(-0.0196426 0.0973569 0)
(-0.0195591 0.0949101 0)
(-0.0196469 0.0938141 0)
(-0.0195616 0.0913332 0)
(-0.0194644 0.092404 0)
(-0.0192446 0.108621 0)
(-0.0184805 0.121251 0)
(-0.0173944 0.127291 0)
(-0.0157692 0.130295 0)
(-0.0197248 0.092675 0)
(-0.0196822 0.10707 0)
(-0.00987892 0.0334404 0)
(-0.0102456 0.0326799 0)
(-0.0106682 0.0391189 0)
(-0.00742749 0.0672565 0)
(-0.000228247 0.0109594 0)
(-0.000224833 0.0106698 0)
(-0.00983705 0.0300824 0)
(-0.0101931 0.0291028 0)
(-0.000867074 0.0313005 0)
(-0.000571873 0.033721 0)
(-0.00977711 0.0266578 0)
(-0.0101301 0.0254837 0)
(-0.0193345 0.119178 0)
(-0.000805265 0.027851 0)
(-0.000773533 0.0273471 0)
(-0.000212498 0.0101736 0)
(-0.000208707 0.00988147 0)
(-0.000220145 0.0103287 0)
(-0.00812786 0.0628649 0)
(-0.0175025 0.132012 0)
(-0.0115599 0.1398 0)
(-0.000197031 0.00940843 0)
(-0.000200256 0.00966193 0)
(-0.000758868 0.0262987 0)
(-0.000729562 0.0258353 0)
(-0.000192783 0.00910947 0)
(-0.00868965 0.0562791 0)
(-0.00299482 0.119506 0)
(-0.000712669 0.0247627 0)
(-0.000685812 0.0243413 0)
(-0.00074049 0.025176 0)
(-0.000701291 0.0253641 0)
(-0.000659843 0.0239103 0)
(-0.000674033 0.0248848 0)
(-0.000634719 0.0234696 0)
(-0.000181851 0.00866392 0)
(-0.000177273 0.00836342 0)
(-0.000647707 0.0243968 0)
(-0.000610421 0.02302 0)
(-0.000595701 0.0220735 0)
(-0.0005734 0.0216625 0)
(-0.00642551 0.070126 0)
(-0.00633718 0.0674097 0)
(-0.00614387 0.0678074 0)
(-0.00603981 0.0650178 0)
(-0.00585536 0.0653887 0)
(-0.00573794 0.0625176 0)
(-0.00556715 0.062843 0)
(-0.0090308 0.0478203 0)
(-0.00744445 0.10766 0)
(-0.0145976 0.101087 0)
(-0.00543957 0.0599243 0)
(-0.00527878 0.0602358 0)
(-0.000557081 0.0206974 0)
(-0.000536757 0.0203252 0)
(-0.000551789 0.0212429 0)
(-0.000517023 0.0199437 0)
(-0.00950584 0.0339853 0)
(-0.000167025 0.00794271 0)
(-0.000162231 0.00764313 0)
(-0.000500603 0.0190093 0)
(-0.000482695 0.0186654 0)
(-0.00107108 0.0344252 0)
(-0.00514157 0.057283 0)
(-0.0049884 0.057592 0)
(-0.0052854 0.0569738 0)
(-0.000692082 0.0236149 0)
(-0.000718193 0.0239742 0)
(-0.000530856 0.0208168 0)
(-0.000152579 0.00724317 0)
(-0.000147673 0.00694908 0)
(-0.000155951 0.00728551 0)
(-0.00046502 0.0177161 0)
(-0.000448893 0.0174092 0)
(-0.00483849 0.0545655 0)
(-0.00469542 0.0548859 0)
(-0.00153483 0.121857 0)
(-0.000667621 0.0223891 0)
(-0.000691746 0.0226896 0)
(-0.00013858 0.00656952 0)
(-0.000143075 0.00684391 0)
(-0.000133294 0.00626554 0)
(-0.000430113 0.0164474 0)
(-0.00041572 0.0161766 0)
(-0.00120587 0.097961 0)
(-0.00138328 0.0970551 0)
(-0.00145138 0.0984475 0)
(-0.00162739 0.0974889 0)
(-0.0016974 0.09886 0)
(-0.00187465 0.0978564 0)
(-0.00196005 0.0993803 0)
(-0.00213035 0.0981452 0)
(-0.00225221 0.0995077 0)
(-0.00238748 0.0982937 0)
(-0.00252088 0.099608 0)
(-0.00264727 0.0983612 0)
(-0.00251425 0.0969259 0)
(-0.00279224 0.0996278 0)
(-0.00290632 0.0983398 0)
(-0.00306534 0.0995575 0)
(-0.00316389 0.0981826 0)
(-0.0033364 0.0993872 0)
(-0.00323543 0.100805 0)
(-0.0034211 0.0979362 0)
(-0.00351522 0.1006 0)
(-0.00341633 0.102028 0)
(-0.00370454 0.10178 0)
(-0.00360616 0.103218 0)
(-0.0045329 0.0517742 0)
(-0.00440162 0.0521103 0)
(-0.00977222 0.11641 0)
(-0.0187878 0.126008 0)
(-0.00818045 0.0740809 0)
(-0.000123591 0.00585516 0)
(-0.00011943 0.00560933 0)
(-0.000639187 0.0210845 0)
(-0.000661066 0.0213249 0)
(-0.00039598 0.015205 0)
(-0.000383273 0.0149696 0)
(-0.00040159 0.015893 0)
(-0.000370713 0.0147197 0)
(-0.000408854 0.0154261 0)
(-0.000387696 0.0155961 0)
(-0.000358308 0.0144559 0)
(-0.000340588 0.0135735 0)
(-0.000329627 0.0133428 0)
(-0.00678765 0.0951848 0)
(-0.000374035 0.015286 0)
(-0.0179432 0.077551 0)
(-0.0177636 0.07832 0)
(-0.0178637 0.0817056 0)
(-0.0039026 0.102928 0)
(-0.00380612 0.104375 0)
(-0.00141966 0.0464596 0)
(-0.00214567 0.0584629 0)
(-0.000457643 0.0226214 0)
(-0.000501442 0.0319588 0)
(-0.00152664 0.0443483 0)
(-0.00398158 0.101451 0)
(-0.000867468 0.0583507 0)
(-0.000734082 0.0482765 0)
(-0.000668242 0.0435721 0)
(-0.00234204 0.0557354 0)
(-0.0105573 0.0489619 0)
(-0.0042256 0.0489258 0)
(-0.00410825 0.0492723 0)
(-0.00426861 0.0523727 0)
(-0.00398974 0.04955 0)
(-0.00413661 0.0525705 0)
(-0.00386994 0.0497659 0)
(-0.00400485 0.0526982 0)
(-0.00374869 0.0499011 0)
(-0.00387317 0.0527557 0)
(-0.00362714 0.0499641 0)
(-0.00349237 0.0470407 0)
(-0.00338098 0.0471255 0)
(-0.00350732 0.0499998 0)
(-0.00327197 0.0471861 0)
(-0.00434075 0.0485031 0)
(-0.0101465 0.111594 0)
(-0.003819 0.0463804 0)
(-0.00323993 0.0967643 0)
(-0.00349237 0.0964324 0)
(-0.00330504 0.095259 0)
(-0.00355268 0.0948625 0)
(-0.00336352 0.0936845 0)
(-0.00019548 0.0122038 0)
(-0.000210135 0.0130661 0)
(-0.000202861 0.0124527 0)
(-0.000188096 0.0115951 0)
(-0.000195049 0.0118274 0)
(-0.000210046 0.0126787 0)
(-0.00020179 0.0120373 0)
(-0.000186747 0.0111922 0)
(-0.000193067 0.0113877 0)
(-0.00021699 0.0128803 0)
(-0.000177987 0.0105485 0)
(-0.000183911 0.0107314 0)
(-0.000168804 0.00989773 0)
(-0.000174354 0.0100696 0)
(-0.000189558 0.0108917 0)
(-0.000179604 0.0102187 0)
(-0.000163005 0.00970496 0)
(-0.000194872 0.0110277 0)
(-0.00018451 0.0103438 0)
(-0.000111039 0.00524706 0)
(-0.000169315 0.00954293 0)
(-0.000173847 0.00965897 0)
(-0.000106433 0.00499496 0)
(-0.000113094 0.00527608 0)
(-0.00313456 0.044236 0)
(-0.00303753 0.0443313 0)
(-0.00316434 0.0472001 0)
(-0.00294125 0.0443798 0)
(-0.013999 0.096931 0)
(-0.0093393 0.0243275 0)
(-0.0152364 0.0807574 0)
(-0.0157667 0.0564485 0)
(-0.00606203 0.117353 0)
(-0.0176733 0.0822867 0)
(-0.0177668 0.0856468 0)
(-0.000311276 0.0124554 0)
(-0.000301703 0.0122569 0)
(-0.00162839 0.118727 0)
(-0.000606652 0.0197002 0)
(-0.000626327 0.0198887 0)
(-0.0179604 0.0851215 0)
(-0.0178556 0.0889638 0)
(-0.0176521 0.089376 0)
(-0.0177323 0.0925747 0)
(-0.0175193 0.0928688 0)
(-0.0175888 0.0960977 0)
(-0.0173643 0.0961148 0)
(-0.017416 0.0994574 0)
(-0.017184 0.0990788 0)
(-0.0172193 0.102462 0)
(-0.00602231 0.139248 0)
(-0.00305773 0.0471637 0)
(-0.00284525 0.044379 0)
(-0.00411142 0.10404 0)
(-0.00401871 0.105496 0)
(-0.002719 0.041537 0)
(-0.00263403 0.0415768 0)
(-0.00275007 0.0443415 0)
(-0.00254922 0.0415699 0)
(-0.00265599 0.0442603 0)
(-0.00246492 0.041519 0)
(-0.00256347 0.0441466 0)
(-0.00238183 0.0414373 0)
(-0.00227536 0.0387646 0)
(-0.00220176 0.0387287 0)
(-0.00229994 0.0413229 0)
(-0.00212899 0.0386564 0)
(-0.0169813 0.101869 0)
(-0.0170036 0.105141 0)
(-0.000199797 0.0111379 0)
(-9.9032e-05 0.00467605 0)
(-0.0001033 0.00491161 0)
(-0.00068342 0.0215478 0)
(-0.00064633 0.0200595 0)
(-0.000706085 0.0217502 0)
(-0.00066619 0.0201981 0)
(-0.000729322 0.0219407 0)
(-0.00068602 0.0203095 0)
(-0.000753249 0.0221157 0)
(-0.000158733 0.0088661 0)
(-0.000162926 0.00897479 0)
(-0.000706012 0.0203982 0)
(-0.000777416 0.0222621 0)
(-0.00221918 0.0411692 0)
(-0.00205686 0.038544 0)
(-0.00196198 0.0360192 0)
(-0.00189697 0.0359221 0)
(-0.00198578 0.0384007 0)
(-0.00183369 0.035824 0)
(-0.00191603 0.0382263 0)
(-0.00177179 0.0357001 0)
(-0.00184776 0.0380197 0)
(-0.00171104 0.0355434 0)
(-0.00162924 0.0331746 0)
(-0.00157589 0.0330713 0)
(-0.00165139 0.0353606 0)
(-0.0015234 0.0329404 0)
(-0.00159286 0.0351515 0)
(-0.00147176 0.0327815 0)
(-9.38865e-05 0.00440381 0)
(-0.00139761 0.0305354 0)
(-0.00135257 0.0304268 0)
(-0.00142112 0.0325965 0)
(-0.00130813 0.0302909 0)
(-0.00359916 0.0932522 0)
(-0.00341372 0.0920839 0)
(-0.00180643 0.0964845 0)
(-0.000726177 0.0204665 0)
(-0.000282829 0.0113665 0)
(-0.000274601 0.0111998 0)
(-0.000292113 0.0120425 0)
(-0.00026628 0.011016 0)
(-0.000282505 0.0118119 0)
(-0.000257882 0.0108157 0)
(-0.00433543 0.105105 0)
(-0.000241294 0.01002 0)
(-0.000234051 0.00984931 0)
(-0.00724614 0.119346 0)
(-0.00424488 0.106579 0)
(-0.00391063 0.10692 0)
(-0.000586714 0.131992 0)
(-0.000612517 0.131025 0)
(-0.00120793 0.131645 0)
(-0.00121448 0.13068 0)
(-0.00180832 0.131241 0)
(-0.018053 0.0884691 0)
(-0.00249873 0.0386865 0)
(0.006366 0.146679 0)
(0.00586136 0.146287 0)
(0.00475982 0.146628 0)
(0.00434307 0.146294 0)
(0.00322833 0.146579 0)
(0.00283948 0.14626 0)
(0.00160831 0.14652 0)
(0.00131041 0.146175 0)
(-0.000121122 0.146417 0)
(-0.000246305 0.146037 0)
(-0.00177008 0.14624 0)
(-0.00180169 0.146607 0)
(-0.00342952 0.146389 0)
(-0.00364533 0.146728 0)
(-0.00519589 0.146478 0)
(-0.00173292 0.145849 0)
(-0.00555196 0.146795 0)
(-0.00703946 0.146517 0)
(-0.00656379 0.146185 0)
(-0.00830604 0.146185 0)
(-0.00901719 0.146543 0)
(-0.010054 0.146128 0)
(-0.00934164 0.145796 0)
(-0.0109113 0.145704 0)
(-0.0117246 0.146007 0)
(-0.0123603 0.145556 0)
(-0.0132435 0.145838 0)
(-0.0136577 0.145341 0)
(-0.0145694 0.145597 0)
(-0.0147882 0.145036 0)
(-0.0156881 0.145254 0)
(-0.0157341 0.14463 0)
(-0.0165957 0.144798 0)
(-0.0165098 0.144107 0)
(-0.0172941 0.144189 0)
(0.0026149 0.145901 0)
(0.00338399 0.14686 0)
(-0.0171292 0.143469 0)
(-0.0178097 0.143421 0)
(-0.01647 0.143373 0)
(-0.013901 0.144798 0)
(-0.0102041 0.145361 0)
(-0.0167541 0.104403 0)
(-0.0167646 0.107547 0)
(-0.00137091 0.0323723 0)
(-0.00123551 0.028085 0)
(-0.000570688 0.0182611 0)
(-0.000147902 0.00818993 0)
(-0.000151787 0.00829278 0)
(-0.000166735 0.00906006 0)
(-0.000155286 0.00837253 0)
(-0.00537378 0.0630016 0)
(-0.000650853 0.130058 0)
(-8.745e-05 0.00412596 0)
(-8.21463e-05 0.00385059 0)
(-0.00179642 0.0333026 0)
(-0.0176688 0.0996962 0)
(-0.0173171 0.092958 0)
(-0.0165107 0.106723 0)
(-0.0165028 0.109753 0)
(-0.00457385 0.106131 0)
(-0.00464436 0.104603 0)
(-0.000272891 0.011566 0)
(-0.00122962 0.129706 0)
(-0.000170112 0.00912044 0)
(-0.000158353 0.00842801 0)
(-0.000143693 0.00768997 0)
(-0.000146494 0.00774247 0)
(-0.0175767 0.142692 0)
(-0.0181846 0.142476 0)
(-0.0162533 0.108881 0)
(-0.0162167 0.111739 0)
(-0.015973 0.110766 0)
(-0.0159058 0.113479 0)
(-0.00413429 0.108011 0)
(-0.00378852 0.108294 0)
(-0.00239258 0.100856 0)
(-0.000217185 0.0090552 0)
(-0.000211052 0.00891353 0)
(-0.00119707 0.0280027 0)
(-0.00112048 0.0257548 0)
(-0.00363345 0.0916126 0)
(-0.00345562 0.0904634 0)
(-0.00323991 0.0909102 0)
(-0.00328834 0.0892937 0)
(-0.00308435 0.0897017 0)
(-0.00312984 0.0881012 0)
(-0.00293877 0.0884763 0)
(-0.0029772 0.0868761 0)
(-0.00279366 0.0872314 0)
(-0.00282904 0.0856743 0)
(-0.00265837 0.0859351 0)
(-0.00269569 0.0844469 0)
(-0.00253106 0.0846144 0)
(-0.00257464 0.0831086 0)
(-0.00240908 0.0832848 0)
(-0.0024512 0.0817663 0)
(-0.00229083 0.0819451 0)
(-0.00233107 0.0804487 0)
(-0.0038207 0.0927424 0)
(-0.0021781 0.08059 0)
(-0.00221868 0.0791133 0)
(-0.00263247 0.0814695 0)
(-0.0020709 0.0792211 0)
(-0.00211122 0.0777663 0)
(-0.00225076 0.0775981 0)
(-0.00214271 0.0762704 0)
(-0.00200935 0.0764083 0)
(-0.00204065 0.0749321 0)
(-0.00248039 0.086133 0)
(-0.00299072 0.0851411 0)
(-0.00191327 0.0750395 0)
(-0.00194389 0.0735831 0)
(-0.00206439 0.0734278 0)
(-0.00196778 0.0720971 0)
(-0.00185153 0.0722291 0)
(-0.0018752 0.0707687 0)
(-0.00176406 0.0708727 0)
(-0.00178782 0.069438 0)
(-0.00168146 0.0695146 0)
(-0.00170408 0.0680937 0)
(-0.00160313 0.0681467 0)
(-0.0016237 0.0667447 0)
(-0.00172143 0.0666433 0)
(-0.00163939 0.0653163 0)
(-0.00154763 0.0654053 0)
(-0.00156149 0.0639979 0)
(-0.00164863 0.0638531 0)
(-0.00157063 0.0625553 0)
(-0.00198737 0.0705828 0)
(-0.00148804 0.0626866 0)
(-0.00149721 0.0612664 0)
(-0.00157353 0.0610816 0)
(-0.00150075 0.0598202 0)
(-0.00142821 0.0599778 0)
(-0.00143203 0.0585601 0)
(-0.00136307 0.0586871 0)
(-0.00136693 0.0573003 0)
(-0.00130131 0.0573997 0)
(-0.00130517 0.056043 0)
(-0.00124269 0.056117 0)
(-0.00124648 0.0547891 0)
(-0.00118707 0.0548389 0)
(-0.00119062 0.0535398 0)
(-0.000553553 0.0181053 0)
(-0.00411815 0.0555024 0)
(-0.000516381 0.0166589 0)
(-0.00184515 0.132187 0)
(-0.00244138 0.131714 0)
(-0.000132002 0.00701396 0)
(-0.000134579 0.00706515 0)
(-0.0156694 0.112379 0)
(-0.0155735 0.114999 0)
(-0.000701086 0.129078 0)