/*--------------------------------*- C++ -*----------------------------------*\
| =========                 |                                                 |
| \\      /  F ield         | OpenFOAM: The Open Source CFD Toolbox           |
|  \\    /   O peration     | Version:  v2012                                 |
|   \\  /    A nd           | Website:  www.openfoam.com                      |
|    \\/     M anipulation  |                                                 |
\*---------------------------------------------------------------------------*/
FoamFile
{
    version     2.0;
    format      ascii;
    class       volVectorField;
    location    "650";
    object      ddtCorrDdt0(U);
}
// * * * * * * * * * * * * * * * * * * * * * * * * * * * * * * * * * * * * * //

dimensions      [0 1 -2 0 0 0 0];


internalField   nonuniform List<vector> 
13917
(
(0.0142027 -4.5824e-05 5.18699e-18)
(-0.00136663 -0.00361513 -8.42011e-19)
(-0.00369336 0.000572816 -4.32825e-18)
(-0.00150353 -0.00012466 -1.23352e-19)
(-1.8582e-06 -0.00591144 1.91482e-19)
(-0.00100764 -0.00333611 2.0597e-18)
(-0.00247464 4.8756e-05 -4.16591e-20)
(-0.0102363 -0.00728961 6.67367e-19)
(-0.00216902 0.000521354 -1.33074e-19)
(0.000330704 -0.00173559 1.81559e-17)
(-0.00713865 -0.00619291 -5.62784e-19)
(-0.00116409 -0.000356457 3.3138e-19)
(-0.000261623 -4.09542e-06 3.96619e-19)
(0.00684217 0.0129446 -2.02741e-18)
(-0.00120978 -0.00121736 9.83003e-20)
(0.0135923 0.000106156 -4.56461e-18)
(0.00148896 2.20577e-05 -4.15196e-19)
(-0.00650125 -0.00439861 -9.47113e-19)
(-0.00415268 0.00166323 4.14641e-18)
(0.0118401 -0.00137219 -1.83891e-18)
(-0.00279802 -0.000480837 -6.18127e-19)
(-0.000355343 -0.00130837 2.60829e-20)
(-0.00369917 0.00039395 9.21387e-19)
(-0.000303835 -0.00131879 -1.72805e-19)
(-0.00183029 -0.000389538 -1.70893e-18)
(-0.00320648 -0.000566956 8.51821e-20)
(0.00818217 -0.00591563 1.66195e-18)
(-3.50266e-05 -0.000815768 -1.88186e-17)
(-0.00484312 -0.00158469 -8.26384e-20)
(0.000974577 0.000723422 1.04695e-20)
(0.000764364 -0.00100691 -2.15415e-18)
(-0.00367574 0.0012668 -1.48454e-18)
(-0.00150239 -0.00031392 -5.72953e-19)
(0.0176702 -0.00103101 2.23695e-18)
(0.0017143 -0.00122765 -1.75641e-19)
(-0.00457589 -0.00798628 -1.62618e-18)
(-0.0018389 -0.000920283 1.67596e-19)
(0.000530484 -2.76924e-05 3.48979e-19)
(-0.00249477 8.37211e-05 3.52942e-21)
(-0.00202216 -0.000601139 2.3866e-19)
(0.000749217 1.61421e-06 -5.86715e-19)
(0.00303369 -0.000404975 -5.15768e-20)
(-0.00193506 0.00042769 7.57489e-20)
(-0.00408416 0.00145553 1.5867e-18)
(-0.0040889 0.00145174 -7.31624e-20)
(0.00359915 -0.00498144 4.07794e-19)
(-0.00268568 -0.000558852 1.47844e-19)
(0.00809957 0.00573964 7.24718e-18)
(0.00242472 -0.024147 -1.40048e-19)
(0.00167148 -0.00129534 8.47485e-20)
(-0.00112697 -0.000360372 -7.13653e-19)
(-0.00882716 1.77788e-05 -8.83966e-19)
(0.0149498 0.000106549 2.09426e-18)
(-0.00094748 -0.000711826 -3.86379e-19)
(-0.00104573 -0.000680923 -1.57654e-18)
(-0.00848682 0.000510458 2.75691e-19)
(-0.000879013 0.000166773 4.20775e-18)
(-0.0037177 0.000328262 5.42866e-19)
(0.00293975 -0.000349227 1.66885e-19)
(0.00668412 -0.00571453 -7.89913e-20)
(0.00937978 0.00203169 -2.30278e-18)
(0.00627711 0.00182821 6.03551e-19)
(0.000715088 3.28876e-05 7.26723e-21)
(-0.00179146 -0.00037982 -5.22818e-19)
(0.024648 -0.00225385 9.83321e-19)
(0.0024115 0.00273811 -4.52434e-21)
(-0.00537136 -0.00228677 1.01068e-18)
(-0.00561698 -0.00844369 6.41305e-19)
(-0.00803348 -0.00456113 8.85933e-19)
(0.0158927 -9.50047e-05 3.59783e-18)
(0.0229628 -0.00259548 1.17659e-18)
(0.0169301 -0.000790708 4.52462e-18)
(-0.00109817 2.70149e-05 2.61102e-19)
(0.0028437 -0.00038944 6.98352e-20)
(-0.00278377 -0.000370576 1.97209e-19)
(-0.00188352 -0.000557419 -1.77463e-18)
(-0.000717933 -0.00297642 1.76915e-19)
(0.00277425 -0.00034091 -2.45383e-19)
(-0.00184759 -0.000546459 1.33631e-18)
(-0.00154068 -0.000319347 1.83929e-18)
(-0.00106873 -0.00107742 -3.62963e-19)
(0.001525 2.32914e-05 5.87333e-19)
(-0.00106884 3.16958e-05 1.60929e-18)
(0.0226709 -0.00300431 -2.88869e-18)
(-0.000200752 -0.000154351 -3.03494e-19)
(0.0126268 -0.0014674 7.06533e-18)
(-0.00365164 0.0012352 -6.21849e-19)
(-0.000167051 -7.60337e-05 1.56266e-19)
(-0.00207415 -0.000535402 -4.97048e-19)
(0.00162497 2.48354e-05 2.6217e-19)
(0.00179573 3.43782e-05 1.50085e-20)
(-0.00196249 0.000450376 1.69843e-19)
(0.00467969 -0.0259105 2.79338e-19)
(0.00168501 -0.000903302 2.16933e-20)
(-0.00125246 -0.000869286 -3.72347e-21)
(-0.00533865 -0.00166108 -1.96026e-18)
(0.0161594 0.00227446 1.38263e-19)
(0.00136942 -3.26894e-05 6.87815e-19)
(-0.000186094 -8.41162e-05 -3.39286e-21)
(0.00558529 0.00480179 2.48835e-18)
(0.000869933 2.33441e-05 3.04784e-20)
(0.000937728 2.5937e-05 -1.11104e-19)
(-0.00111377 -0.00107674 2.30142e-19)
(0.00129109 -8.09284e-05 -6.72337e-19)
(-0.000463164 -0.00290995 3.46724e-20)
(0.0222768 0.0011243 -6.41633e-18)
(0.0170669 0.000831377 -7.31235e-18)
(0.00553031 0.00317742 -4.14499e-19)
(0.00315383 -0.000343027 -5.27296e-21)
(0.00603924 -0.00650615 3.73714e-18)
(-0.000459579 5.27085e-06 3.70391e-18)
(0.0178753 -0.00115661 6.63842e-18)
(-0.00479727 -0.00108366 -9.839e-20)
(0.000984822 0.00520603 8.8693e-18)
(0.024652 -0.00248499 -3.284e-18)
(-0.00194313 -0.000617074 -1.37157e-18)
(-0.00419696 0.00160876 9.51234e-20)
(0.00162388 5.75391e-05 -9.57156e-20)
(-0.00416222 0.00105141 2.48289e-18)
(-0.00094209 9.41456e-05 -4.07282e-19)
(0.00163517 2.49602e-05 -4.24225e-19)
(0.00259789 -0.000433701 1.52716e-21)
(-0.00591142 -0.00243675 9.39506e-19)
(-0.00535661 0.00145129 5.81155e-19)
(0.0175589 -0.000191276 -2.21948e-20)
(0.0239085 -0.00302444 -1.94075e-18)
(-0.00174965 -0.000341653 -2.26602e-19)
(-0.00287634 -0.000253461 -5.3347e-19)
(0.000724655 -0.00110313 -1.65786e-19)
(-0.00521806 0.00157795 -1.67067e-18)
(-0.00280847 0.000635854 -1.4288e-19)
(0.000234804 -0.0146528 8.35895e-20)
(0.0245447 0.000954833 4.69186e-18)
(-0.00193393 -0.000639412 5.23931e-19)
(-0.00384607 0.00138151 -3.48348e-18)
(0.00590327 -0.00575501 1.50433e-19)
(0.0061846 0.00167399 6.8858e-20)
(0.0169203 0.000231679 -1.26549e-18)
(-0.00355721 -0.000622994 -4.23656e-19)
(0.000372566 -1.86394e-05 -2.31277e-19)
(-0.0101063 0.00685564 3.80267e-19)
(0.00269811 -0.000367214 5.90813e-20)
(0.0203503 0.0015849 5.03543e-18)
(-8.62274e-05 -0.000778171 1.06757e-18)
(-0.00101971 -1.59371e-05 1.3181e-19)
(0.00336311 0.000430602 -8.83809e-20)
(0.0225633 -0.00281967 1.15e-18)
(0.00360311 0.00403361 5.70242e-19)
(0.0113124 0.00243817 1.70392e-17)
(-0.000992288 -0.000712512 1.37254e-19)
(-0.00219232 -0.000536923 -8.97911e-19)
(0.000914523 3.26048e-05 -1.86551e-19)
(-0.000990411 -9.12905e-06 7.56956e-19)
(-0.000940479 0.000109558 3.06094e-19)
(0.0142867 0.000944749 -8.71877e-18)
(0.00023568 -0.00165286 7.35404e-20)
(0.00130697 -9.13356e-05 4.42165e-19)
(0.0236991 0.0013828 -5.90874e-19)
(0.00123408 2.54963e-05 -1.61303e-19)
(0.00154225 3.82341e-05 5.03383e-20)
(-0.000184043 -0.000403818 4.98337e-19)
(0.0187065 0.00578504 -1.60145e-18)
(-0.00199705 -0.00131861 -9.78737e-19)
(-0.00211282 -0.00258296 -3.38873e-19)
(0.014209 0.00913742 -2.72302e-18)
(0.0120638 0.00459435 -4.84093e-19)
(0.0098162 0.000313039 -8.77753e-18)
(0.013396 0.0115649 -3.35943e-18)
(0.000733108 0.000193457 -1.25104e-20)
(-0.00379096 -0.000536158 6.68294e-19)
(-0.000302428 -0.00142667 -8.08983e-19)
(0.0249367 -0.000637181 3.93704e-20)
(-0.00213935 0.000538017 -3.68533e-20)
(0.0168502 0.000780823 4.99694e-19)
(-0.00523061 -0.00232708 -7.46592e-20)
(0.00112228 3.77606e-05 -1.62404e-20)
(-0.00150693 -0.000102393 -5.9499e-19)
(-0.00995921 -0.000332083 -1.50547e-18)
(-0.00276015 0.000625305 -7.70179e-19)
(-0.00205603 -0.0013681 8.47158e-19)
(-0.00194236 0.000369619 1.56498e-19)
(-0.000265181 -0.00139108 2.19929e-19)
(-0.00112147 -0.00038672 -1.83623e-19)
(-0.0103074 0.0056678 -1.35249e-18)
(-0.0039001 0.000988069 -3.14145e-18)
(0.0014188 -0.0147153 -9.94881e-19)
(-0.00109406 -0.000387681 -1.22759e-18)
(-0.0111274 0.00565742 -3.33483e-18)
(0.00101302 0.000727887 -1.77958e-21)
(-0.00529119 -0.000763408 -6.579e-19)
(-0.00508837 -0.00263825 3.94856e-21)
(-0.00407614 0.0014407 -2.99282e-18)
(-0.0070806 0.00338138 -1.07856e-18)
(0.0138579 -0.000144848 -3.77431e-18)
(0.00166376 -0.000925903 -5.44772e-20)
(0.0175153 -0.000177938 -3.69287e-18)
(-0.00223439 -0.000447978 -4.35802e-19)
(0.0252084 0.000993531 -5.27788e-19)
(0.00169212 -0.00115751 2.63877e-19)
(0.000160735 -0.0015846 -3.64442e-19)
(-0.00250225 -0.000650108 1.56937e-19)
(0.0154717 -7.18192e-05 2.84803e-18)
(0.0164205 0.000157859 5.35743e-18)
(-0.00165651 -0.00102687 -3.56348e-19)
(0.00839369 -0.00959305 1.51783e-18)
(-0.00320189 -0.00202481 -2.23829e-18)
(-0.0021537 -0.000575797 1.54659e-19)
(0.00268153 -0.000433323 -2.84568e-19)
(-0.00959366 0.000298941 2.2167e-18)
(-0.00105736 -0.00110998 -1.2633e-18)
(0.000900606 -0.000751655 4.40874e-19)
(0.00180135 -0.0099981 5.311e-20)
(0.00130685 -0.011053 2.11852e-20)
(0.0137823 0.00454894 -2.36443e-18)
(-0.00380398 0.00136204 1.86543e-18)
(-0.00337419 -0.000461041 -2.1448e-19)
(0.0201851 0.000788843 3.67151e-18)
(0.000256579 -5.88845e-05 3.21576e-19)
(0.0021176 7.72321e-05 -4.03532e-20)
(0.00211467 9.50818e-05 2.92751e-19)
(0.0107322 0.0126897 5.15826e-18)
(-0.00735756 0.00396547 1.72405e-18)
(-0.00272777 0.0051933 -4.2912e-19)
(-0.000480137 -4.17049e-05 -1.34061e-18)
(0.000611133 1.26379e-05 -2.19047e-20)
(0.00408444 -0.006712 1.53482e-18)
(0.0167995 -6.86368e-05 3.45899e-19)
(0.00203399 5.95039e-05 -4.33172e-19)
(0.00200875 6.00082e-05 2.84176e-20)
(0.0006945 -1.80919e-05 3.95721e-19)
(0.00215222 0.000109338 -1.3454e-19)
(0.00214857 0.000127818 2.7051e-19)
(0.0163985 -0.000638399 -3.63399e-18)
(0.0229625 0.00825859 -2.33004e-18)
(-0.000744068 -0.00118314 -7.42364e-19)
(0.000792913 0.000327752 2.1609e-20)
(-0.00579454 -0.000353142 -7.07891e-20)
(0.017384 -0.000613304 3.67988e-18)
(0.00141932 3.17022e-05 -1.07017e-19)
(-0.000468162 -4.20631e-05 6.01996e-19)
(0.00754982 -0.0085936 -1.08277e-18)
(0.0207506 0.00186329 -4.1892e-18)
(-0.00629754 0.00449782 1.91786e-19)
(0.0199192 0.000348204 4.58517e-18)
(-0.0071927 -0.00381535 -2.1644e-19)
(-0.000115406 -0.000773032 -4.04961e-19)
(0.0185149 0.0104372 3.09492e-18)
(-0.00592134 -0.000106864 -6.05779e-19)
(-0.0045088 -0.00118026 3.06313e-18)
(-0.00425081 0.00115664 2.00353e-18)
(-0.00161951 -0.000989292 -8.14593e-19)
(0.0215279 0.0064597 -9.40702e-19)
(-0.000976537 7.64279e-05 -1.04757e-18)
(-0.00271577 -0.00132941 -9.66289e-20)
(-0.00475236 -0.00199325 7.75871e-20)
(-0.000758374 -0.00126796 -4.499e-19)
(0.000416188 -1.18015e-06 6.08616e-19)
(-0.00178716 -0.000351289 -9.20837e-19)
(0.00265081 -0.00309361 -4.13757e-19)
(0.00177996 -0.000889546 -3.49488e-19)
(0.0186548 -0.000259489 -8.32405e-19)
(7.40006e-06 -0.0124037 8.46984e-19)
(0.00244069 -0.000690087 2.53025e-19)
(0.00198866 4.25994e-05 -7.05736e-20)
(0.00021293 -0.00176 1.6312e-19)
(0.00199215 2.8927e-05 -1.90248e-19)
(-0.000973544 9.04542e-05 8.5501e-19)
(-0.000385045 -8.07566e-06 -6.47292e-19)
(-0.00330241 -0.000378969 3.51662e-19)
(0.00252629 -0.000731341 -6.00242e-21)
(0.0166945 0.000471581 1.60188e-20)
(0.0172734 0.00166189 1.17443e-17)
(-0.000867939 -0.000410056 4.70165e-19)
(0.00108928 -0.0029107 -1.68623e-19)
(0.0127275 -0.00538198 -5.22983e-20)
(0.00200222 0.000361673 1.40039e-19)
(0.00294941 0.00345651 5.99145e-19)
(0.0193695 -0.000322816 -1.90885e-18)
(0.00201694 0.000346073 -2.69047e-19)
(0.0165229 -0.000321469 1.21894e-17)
(0.00177287 -0.000894875 2.83092e-19)
(0.0186917 0.00622142 -3.82346e-18)
(0.00099164 2.57056e-05 6.17645e-21)
(-0.0013713 -0.00119153 -2.1289e-18)
(-0.00079917 -0.00129856 1.3192e-19)
(4.69172e-05 -0.000811572 -3.19488e-19)
(-0.00407673 0.00273171 1.74444e-18)
(0.000779187 -5.21406e-05 1.0298e-19)
(0.0138368 0.00329196 6.52091e-18)
(-0.00232264 -0.000604913 -2.81677e-19)
(0.00268204 -0.0143732 -1.97041e-18)
(0.00363382 0.000605939 6.40948e-20)
(0.00815588 -0.0102299 -1.61828e-18)
(0.0162594 0.000286812 1.11894e-17)
(0.00159009 3.94268e-05 -4.04771e-19)
(-0.00422646 3.9707e-05 -1.98925e-18)
(0.00191895 -0.00436203 7.14524e-19)
(-0.00198038 -0.000679522 1.00176e-18)
(0.0006738 -0.00534794 -3.45541e-19)
(-0.00184642 -0.000512763 -1.15586e-18)
(0.00173766 -0.000897133 -8.80524e-20)
(0.000822071 -6.82645e-05 -8.77862e-21)
(-0.00999689 -0.00195169 -1.05784e-18)
(-0.0189192 -0.00169974 -5.37564e-19)
(-0.00266945 -0.00125142 4.54411e-20)
(-0.00181289 -0.000503334 2.16974e-19)
(-0.000453777 -4.67075e-05 -4.56405e-18)
(0.0242614 0.00132552 -2.56229e-18)
(0.0146956 7.71635e-05 1.88427e-18)
(0.000916325 -0.00106925 -5.4444e-20)
(0.00152907 0.000864618 4.67422e-20)
(-0.0019811 -0.000654541 4.80156e-20)
(-0.0210825 -0.0386573 1.6129e-19)
(-0.00414178 0.00190766 1.18707e-17)
(0.0165175 0.000336056 -1.8538e-18)
(0.0177336 0.00111566 1.79981e-19)
(0.00150504 0.00302638 2.90951e-21)
(-0.00530827 -0.0124284 -1.29522e-19)
(0.00113638 -0.00253003 3.03675e-20)
(0.0212741 -0.00310907 1.10579e-18)
(-0.0266843 -0.0411933 -1.73824e-19)
(-0.00405503 0.000760159 3.67099e-19)
(-0.000379176 -7.8392e-06 -1.75452e-18)
(-0.00126364 -0.00116702 -2.25261e-19)
(0.00866193 -0.00685832 9.32382e-19)
(-0.000179877 -0.0016159 5.19872e-19)
(-0.00140604 -0.00400433 -2.95069e-19)
(-0.00409415 0.00142982 -6.59266e-19)
(0.00143765 1.34529e-05 8.4548e-20)
(0.0251541 -0.000778322 8.3531e-18)
(-0.000183597 -0.000119987 -5.75873e-19)
(-0.00288079 0.00106249 2.68884e-19)
(0.00195516 0.000701375 2.89574e-19)
(0.00716247 -0.00128331 -1.12646e-18)
(0.0007365 -0.000385876 -4.18011e-19)
(-0.00273419 -0.00109193 -2.38738e-19)
(-0.00339016 -0.00194343 1.73833e-18)
(0.00100725 0.00277515 -7.23747e-22)
(0.0016564 3.83849e-05 6.74376e-20)
(-0.00413559 0.00120035 -2.15951e-18)
(0.0185651 0.000847049 -1.50647e-19)
(-0.00122929 -0.000809749 9.70773e-19)
(-0.000101137 -0.00162038 -3.57964e-19)
(0.0189328 -0.00148104 3.0866e-18)
(0.0190208 0.00105454 1.5014e-18)
(0.0163517 0.00655405 -8.44763e-19)
(0.00511092 0.0110257 2.59228e-18)
(0.001992 0.000316857 3.47027e-19)
(-0.000813087 -0.00107388 -6.45837e-19)
(0.0212804 0.00219097 -5.51036e-18)
(-0.00660328 -0.0113853 -6.9305e-19)
(0.00201154 0.000301707 2.05499e-20)
(0.00168378 -0.00518759 -4.65863e-19)
(-0.00105462 -0.00052849 7.82923e-19)
(-0.00315375 0.0013933 8.06678e-20)
(-0.00276933 -0.00116654 -3.14949e-19)
(-0.00650087 0.00207536 1.93489e-18)
(-0.00414144 -0.00612531 9.99017e-20)
(0.00216958 0.00405765 3.54383e-19)
(-0.00298314 0.000969046 7.1779e-19)
(0.0153855 -0.000531882 -1.8404e-18)
(0.000679903 -0.00113291 4.31651e-20)
(-0.00124338 -0.000785087 7.59867e-19)
(-0.000239155 -0.00661726 2.86616e-19)
(-0.00308404 0.00204107 3.81986e-19)
(0.00131845 1.69482e-05 -2.26243e-19)
(0.0135033 4.4358e-06 7.36789e-18)
(-0.0029428 0.000968702 -5.91909e-19)
(0.0131731 0.0159016 -8.77769e-20)
(-0.00108 -0.000700807 -3.18777e-19)
(-0.00522172 -0.00909297 -4.37723e-19)
(0.00154298 0.000946016 -1.25539e-19)
(0.00901421 -0.0233057 -1.52088e-19)
(0.00288821 -0.000138628 -5.11074e-20)
(-0.00556719 0.0056431 1.84161e-18)
(0.0131201 -0.00491802 8.77685e-20)
(-0.00369927 -0.00203097 6.89473e-19)
(-0.000896433 -0.000425249 4.90084e-19)
(0.0187103 0.000273091 -3.63027e-18)
(0.00195731 0.000804574 7.77315e-20)
(0.0148611 0.00803007 3.25035e-18)
(-0.00732 0.0038946 -5.05122e-19)
(0.00286265 -0.000103331 1.83498e-19)
(0.00656181 -0.0237243 4.22208e-21)
(-0.00089463 -0.00147404 2.03053e-18)
(0.00141791 0.00323026 9.09016e-21)
(0.00165805 -0.00059093 -7.18886e-20)
(0.0132215 -0.00145828 -3.30953e-19)
(0.00101147 0.00356459 -3.45325e-20)
(-0.00178601 -0.000787103 -1.06989e-18)
(0.00213295 -0.00807616 -4.8037e-18)
(0.000546555 0.00330322 1.90538e-18)
(-0.0015237 -0.000962548 -1.40817e-18)
(0.0136754 0.0081835 9.99461e-20)
(-0.00385189 0.0034678 -1.45558e-18)
(-0.00169837 -0.000716098 8.13153e-19)
(-0.00411316 0.00308258 -4.79011e-18)
(-0.000817521 -0.000971697 5.43786e-19)
(7.95709e-06 0.00435449 -9.73309e-19)
(-0.00376692 0.000693602 2.11408e-18)
(-0.000191294 -0.000103416 6.94122e-19)
(-0.00236738 0.000266832 -1.54271e-20)
(-0.0018149 -0.00047465 -5.0996e-19)
(1.33308e-05 -0.000754726 1.39099e-18)
(0.000309635 -0.000368697 -4.58065e-20)
(0.000589171 -0.00113761 -6.04472e-19)
(0.000966488 0.00233802 1.70429e-18)
(0.00905667 0.00360683 3.92003e-19)
(-0.00115973 -0.000741509 4.87915e-19)
(0.000618472 -0.00122328 2.50692e-19)
(-0.000255423 -0.00120893 1.9609e-19)
(-0.00419968 -0.000524249 4.97357e-19)
(-0.00517647 -0.0121966 -8.3816e-21)
(0.00196723 0.000533277 9.24572e-20)
(0.000742197 0.000175804 -5.00704e-21)
(-0.00412238 0.00183519 -9.96122e-18)
(-0.00396642 -0.00895218 1.31762e-18)
(1.30557e-05 -0.000838887 -5.02568e-19)
(-0.00174351 -0.00077606 1.35825e-18)
(0.017095 0.00213651 -8.21245e-19)
(0.0157285 0.00073092 7.82689e-18)
(0.00289872 0.00315523 -4.97576e-21)
(-0.00408115 0.00164177 -1.87586e-18)
(0.0180069 -0.00279127 -4.08255e-18)
(0.00252681 0.00020754 1.77242e-19)
(0.00196457 0.000479481 -6.17688e-20)
(-0.00272512 -0.000811461 5.11422e-20)
(0.000320314 -0.000350167 -3.89474e-19)
(0.00198915 0.000519636 -9.3561e-20)
(-0.000781209 -0.00121498 7.47467e-19)
(0.00198862 0.000467639 1.94451e-19)
(0.00248513 0.000213054 -1.39137e-19)
(0.0213253 0.0122837 -1.15417e-18)
(-0.000865271 -0.00097332 4.63168e-19)
(-0.00193577 -0.000844508 2.66526e-19)
(0.0171605 0.00055194 3.68184e-18)
(-0.00420231 -6.67693e-05 1.69016e-18)
(0.000873162 -0.000783373 -4.54386e-19)
(-0.000967864 -2.30594e-05 -8.02559e-19)
(0.0143139 0.00844733 4.36919e-18)
(-0.00257435 -0.000688337 -1.30352e-18)
(0.0168436 -0.000121949 4.33006e-18)
(0.00196275 0.000645767 -1.31533e-19)
(-0.000567906 -0.000145469 -1.11442e-18)
(0.00200775 0.000835902 -1.70809e-19)
(0.00218643 0.000148802 1.47909e-20)
(-0.00178487 -0.000928427 3.38782e-19)
(-0.000917502 -0.00160391 4.07188e-20)
(0.0174339 0.0015281 8.99157e-19)
(0.00243424 -0.000137515 -2.58868e-19)
(0.0232921 0.00139035 5.37837e-18)
(-0.000557807 -0.000152507 2.44542e-19)
(-0.00307797 0.000468725 4.53361e-19)
(0.00238501 0.000308088 3.532e-19)
(-0.00100588 -0.00110807 4.0697e-19)
(-0.00723054 -0.00313382 6.98849e-19)
(0.0159969 0.00613371 -6.49387e-18)
(-0.00102933 -0.000509897 -1.58207e-18)
(0.00967109 -0.00425838 5.38703e-18)
(0.000800097 -0.000811564 2.36254e-19)
(0.000436469 -0.000125623 -2.43069e-19)
(-0.000196902 -0.0011801 -4.44431e-19)
(-0.000931138 -0.00142492 7.32208e-19)
(0.000951295 -0.000687072 -8.4598e-19)
(-2.35643e-05 -6.40715e-05 1.8498e-18)
(0.0240697 0.00111084 -3.85686e-18)
(0.0143675 0.00144491 1.04905e-18)
(0.000974016 -0.000654063 -7.44625e-20)
(0.00809056 -0.0114592 2.24799e-18)
(-0.00415177 0.00170696 -8.19398e-19)
(-0.000444697 -1.01121e-05 4.41519e-19)
(-0.00450624 -4.41365e-05 -1.99997e-19)
(-0.00321846 0.00163404 -8.2149e-20)
(0.0138015 0.00905672 4.1311e-18)
(-0.0024554 0.000344421 1.85515e-20)
(0.0226606 0.000974573 2.31468e-19)
(0.00720566 0.00715916 -1.69029e-19)
(0.00565298 0.00585774 -9.99125e-21)
(-0.000958055 -0.00154328 -7.44359e-19)
(0.00189836 0.0026337 5.05802e-21)
(0.00231423 0.00059082 -1.42729e-19)
(-0.00156354 -0.000995087 2.21882e-18)
(0.0214526 0.00587287 -1.39439e-18)
(0.00178595 3.09885e-05 8.68402e-20)
(-0.000916853 -0.000680658 -1.37489e-18)
(-0.00126759 -0.000841425 -5.73659e-19)
(-0.00227831 0.000377182 -1.10613e-19)
(-0.00249156 -0.000432958 7.7616e-19)
(-0.00383049 0.00126265 -9.99432e-19)
(-0.00383224 0.000769274 3.51088e-19)
(0.00407222 -0.000298107 -1.93287e-20)
(0.00146882 -0.00324715 1.59078e-19)
(-0.0065296 -0.00343315 4.10875e-19)
(-0.00127086 -0.0016139 -2.33051e-19)
(-0.00113734 -0.000751794 -8.57811e-19)
(0.00614305 0.0146811 7.54598e-19)
(-0.00330308 -9.05701e-05 -7.11807e-20)
(-0.00233838 -0.000592945 -4.07716e-19)
(0.0147997 0.00579734 1.82012e-18)
(-0.00020411 -0.000136026 3.43678e-20)
(-0.001064 -0.00178589 2.96593e-19)
(-0.0101636 -0.000103495 -1.28885e-18)
(0.000578148 -0.000293239 -4.96323e-19)
(0.0213854 0.00144659 -3.28483e-18)
(0.000410162 -0.000122665 1.58176e-19)
(0.00217928 0.000167938 1.05028e-19)
(-0.00430848 -0.000416487 2.94766e-19)
(0.00198978 0.000631162 5.64624e-20)
(0.000289898 -6.86145e-05 -5.48676e-19)
(-0.0095936 -0.00269193 1.04357e-18)
(0.0227997 0.00209432 4.03616e-18)
(0.00155178 -0.00944963 2.64953e-18)
(-0.000180391 -0.000377012 -5.71676e-19)
(-0.00158883 4.95894e-05 2.21329e-20)
(0.00388416 -0.00129206 1.07166e-19)
(0.0206448 0.00495453 5.91166e-19)
(0.0139969 -0.00681 -1.36017e-19)
(-0.0010691 -0.000749147 2.09985e-18)
(-0.00100328 -0.000682988 1.37905e-18)
(-0.000142 -0.000341003 -9.54744e-19)
(-0.00453477 -0.00155214 3.93797e-21)
(-0.0126285 -0.0691682 -1.92452e-18)
(0.000834304 -0.0012186 5.17594e-19)
(0.00145393 2.43064e-05 8.97777e-20)
(0.000186793 -0.00150416 2.08593e-19)
(1.74721e-05 -0.000710732 7.46732e-19)
(-0.00209662 -0.00469485 -8.32117e-20)
(-0.00257121 -0.000413935 2.15516e-19)
(0.00175039 3.87693e-05 -2.55792e-19)
(-0.00389215 0.000757131 -2.36657e-19)
(0.000581401 -0.000274562 3.80982e-19)
(-0.0003555 -0.00119725 8.41607e-20)
(-0.00178359 -0.000460761 -5.26151e-19)
(0.0160113 -0.000533114 -4.24706e-18)
(0.00172474 -5.48594e-05 -1.44187e-19)
(-0.00198063 0.000127235 -2.91432e-19)
(0.00179551 -0.000890471 -5.65187e-20)
(-0.00302311 0.000447391 5.32374e-19)
(-0.0049184 0.000358499 6.22811e-19)
(-0.00496066 0.00110993 -9.25629e-19)
(-0.00505478 -0.00207422 6.22306e-20)
(0.0078842 0.00384815 -2.39014e-18)
(-0.00169903 -0.000509069 1.2698e-18)
(-0.00587732 -0.00320349 -8.46484e-19)
(0.0256152 0.000821471 1.46923e-18)
(0.0220871 0.0117817 -1.5617e-18)
(0.0175351 0.000771021 4.48572e-18)
(0.00110193 -0.000999076 -4.95592e-20)
(-9.84378e-05 -0.00116663 -1.36632e-18)
(0.00444421 -0.000150029 -3.11375e-19)
(-0.000747699 -0.000269123 -7.9733e-19)
(0.0248654 -0.00290806 8.93159e-18)
(0.00202607 0.00039532 -5.42002e-20)
(0.00923706 -0.0608569 -1.11329e-19)
(-0.00224204 -0.000424702 7.54151e-19)
(0.0257404 -0.00105693 5.43965e-18)
(0.00457224 0.00395966 1.56725e-20)
(-0.00196184 0.000399259 -2.10858e-20)
(0.00179219 -0.0044927 1.39047e-18)
(0.00101661 -0.000659148 2.95458e-19)
(-0.00326464 0.00143903 9.30604e-19)
(0.00141751 -3.88596e-05 -1.12657e-20)
(0.00145737 -0.00136701 2.26527e-19)
(0.0256864 -0.00102344 -4.44993e-18)
(0.00196608 0.000588981 -6.82407e-20)
(-0.0053094 0.00171287 -1.864e-18)
(0.000669 1.41074e-05 -5.45259e-20)
(-0.00042821 -6.76323e-06 -1.24582e-18)
(-0.000147673 -0.0012019 1.61267e-18)
(-0.00384881 0.00129788 -1.22606e-18)
(-0.00182623 -0.00546221 4.5488e-19)
(0.00191774 3.70121e-06 -5.75177e-19)
(-0.00408613 0.00147309 -4.73445e-19)
(-0.00444892 -0.000178074 -1.44796e-21)
(-0.0428776 0.0856146 -4.54479e-19)
(0.0210314 -0.0027289 3.23626e-18)
(0.0245731 0.00164863 -5.34915e-18)
(0.01361 0.00937441 -5.81301e-18)
(0.00171248 -5.18377e-05 4.43123e-20)
(0.0166828 -0.000209248 3.10165e-18)
(0.00092282 5.73347e-05 1.05391e-19)
(0.00930007 0.00142393 3.45599e-19)
(-0.0130065 0.0217515 1.0197e-20)
(0.00123556 -0.00152105 7.60959e-20)
(0.00156853 0.00111709 -5.99572e-20)
(0.000911787 3.06152e-05 -3.94468e-21)
(-0.0032493 -9.92654e-05 5.94137e-19)
(-0.00189703 0.000368229 3.05825e-19)
(0.00199149 0.000575269 1.26481e-19)
(0.00137783 -4.25378e-05 -6.27906e-19)
(-0.000329051 -1.40394e-05 3.73786e-19)
(0.018656 -0.00255345 2.3849e-18)
(-0.000289568 -0.000404312 4.00067e-19)
(-0.00356284 0.00120503 -2.14502e-18)
(-0.000875077 -0.000682167 1.72679e-18)
(0.0019059 1.31314e-05 1.45847e-19)
(0.00138342 3.74887e-05 3.51962e-20)
(-0.00666407 -0.00198513 -4.41732e-20)
(0.0218579 0.00576544 -4.2179e-19)
(0.000931503 -0.00464612 -3.01111e-18)
(-0.00421269 0.00109452 3.70239e-18)
(-0.0025737 -0.000374193 4.28082e-20)
(0.0160523 0.00510645 3.48959e-19)
(0.0178944 -0.000726965 2.89428e-18)
(0.00168522 -0.000619457 -3.18269e-19)
(0.0189755 0.00648952 -3.51768e-19)
(-0.000318705 -9.27558e-06 -4.39683e-19)
(-0.00338948 0.00200664 2.80636e-18)
(-0.000746247 -0.000286862 -1.03897e-18)
(0.015882 -5.70153e-05 3.27114e-18)
(5.27911e-05 -0.000690819 -6.40081e-19)
(-0.0028687 -0.00410908 -4.02998e-20)
(-0.0010424 -3.90048e-06 3.84431e-19)
(-0.0442397 0.0823991 6.14386e-19)
(-0.00334162 -0.000245499 1.47282e-19)
(0.0236915 -0.00125288 5.12062e-18)
(0.00175233 2.75653e-05 6.43799e-20)
(-0.00321943 -0.000343802 1.32714e-19)
(0.00126985 -0.00144659 2.7743e-19)
(0.000731388 5.03967e-06 1.02877e-19)
(0.0155772 -0.000636663 3.65693e-18)
(0.0138753 0.00708162 -2.41826e-19)
(0.00149148 -0.00159104 -1.78674e-20)
(-0.00664821 0.00246661 2.22649e-18)
(-0.00046466 -4.88691e-05 4.17915e-18)
(0.00190271 -0.00150305 -1.55364e-20)
(0.00078181 1.73851e-05 2.39303e-19)
(0.0164259 -0.00087126 3.7982e-18)
(-0.000301466 -0.000388665 -4.23065e-19)
(0.00273425 -0.00383633 3.18511e-19)
(0.0020078 0.00040852 -1.94615e-19)
(0.00143478 -0.00150159 2.41507e-19)
(-0.00322334 0.00220849 2.14566e-18)
(0.000887101 2.81105e-05 9.70221e-20)
(-0.00561119 0.00224629 2.56776e-18)
(0.00150593 2.05047e-05 -1.92602e-19)
(0.000671677 -0.000369826 4.25978e-19)
(0.00641525 0.00209683 2.57004e-19)
(-0.00359067 0.00124128 -5.22066e-19)
(-0.00102495 -0.000743101 -1.06201e-18)
(0.0139959 0.000213589 1.5746e-18)
(-0.00509354 0.00177413 -5.52157e-19)
(-0.000385896 -0.0112451 1.03925e-19)
(-0.0113689 -0.000889892 3.49736e-19)
(0.00103848 -0.000627053 -2.47979e-19)
(-0.00108304 -0.00119796 4.77765e-20)
(0.0153675 -0.000638114 -8.84655e-18)
(-0.00499102 0.00301446 -1.28868e-19)
(-0.0026091 -0.000829061 1.81886e-18)
(-0.00184206 -0.000882903 -1.03903e-18)
(-0.00377736 -0.00407901 -2.04806e-19)
(0.00157951 1.92553e-05 2.23932e-19)
(0.000457258 -0.00106094 4.59103e-19)
(0.00178385 0.00346797 2.77855e-20)
(-0.00525687 0.000347555 1.50898e-19)
(-0.00209493 -0.000493986 8.95941e-19)
(0.0162099 0.00578568 7.86071e-19)
(-0.00340008 -0.000204002 -2.50206e-19)
(-0.00483742 -0.0138997 -4.64688e-20)
(0.0151135 -0.0054758 6.00283e-19)
(-0.0173156 0.00216814 8.15864e-19)
(-0.00291383 -0.000889011 -1.57062e-19)
(-0.00649653 0.00323651 5.24091e-18)
(0.0167181 -0.000407685 -6.31962e-18)
(0.00172187 -0.000911698 4.37838e-19)
(-0.00551525 0.00476102 -2.27292e-19)
(0.00141492 0.00401756 -1.75278e-20)
(0.00064143 -0.000361468 -1.32861e-18)
(0.00171867 2.23272e-05 7.89728e-19)
(0.0013641 3.32173e-05 1.57737e-20)
(0.00424206 -0.00130923 -5.30178e-20)
(0.000144608 -6.49551e-05 -1.53572e-18)
(0.0168192 -0.000246993 -5.28979e-18)
(-0.00276341 0.000846062 1.25781e-18)
(0.00112005 -0.000114497 -8.11969e-19)
(-0.00407984 0.00140239 6.92814e-19)
(0.0017705 2.53103e-05 -3.2351e-19)
(0.0169932 0.000656724 2.66713e-18)
(0.00177509 -0.000912916 -3.08775e-19)
(0.00077699 -0.00112859 -4.09816e-20)
(0.0217969 0.00200935 4.74396e-18)
(-0.00465712 0.000367588 4.27745e-19)
(0.00494634 2.17201e-06 7.87551e-20)
(-0.00117447 -2.80416e-05 -6.26948e-19)
(0.00174119 0.00089224 6.01103e-20)
(0.00106045 -0.0011573 -7.54548e-19)
(-0.00142703 2.39578e-05 -8.21242e-19)
(-0.00266972 5.6335e-05 -2.86744e-19)
(0.000152638 -0.000854533 7.12189e-20)
(0.0172817 2.70817e-05 6.75499e-19)
(-0.00237406 -0.000685245 -1.16779e-18)
(-0.00333634 -0.0663254 -2.87497e-19)
(0.0105393 0.00930784 7.66538e-20)
(-0.00643476 0.00358186 -1.17653e-19)
(0.0247058 0.00170804 2.29044e-18)
(-0.00160154 2.80452e-05 -5.81342e-19)
(0.0012635 -5.75683e-05 6.54904e-19)
(0.00131255 -0.00152119 -2.41779e-19)
(0.0197666 -0.000422996 2.21555e-18)
(0.000818904 -0.00902686 -4.35581e-18)
(-0.00226392 -0.000472039 1.80457e-19)
(0.0174445 -0.000119398 -9.70088e-19)
(0.00688581 -0.0545791 -1.63184e-19)
(0.000715258 -0.000412082 -6.34229e-19)
(0.000875177 -0.0011098 1.98253e-19)
(-0.0017741 -0.000975403 7.48006e-19)
(0.0217719 0.000631923 2.73829e-18)
(0.0196239 -0.000600781 3.43443e-20)
(-0.00336691 -0.000335832 -3.36053e-19)
(-0.00140428 8.87973e-06 3.83431e-19)
(-0.00199787 0.000105171 3.59972e-20)
(-0.00334872 0.0020689 -4.2047e-18)
(0.00082823 -0.00235905 7.58041e-19)
(-0.00611201 0.00206821 -1.55027e-18)
(-0.00280437 0.00083407 4.30859e-19)
(-0.00120306 -0.000866709 -1.02611e-19)
(-0.00155196 -0.000333069 -3.13869e-18)
(0.001237 -5.64638e-05 -1.38343e-19)
(-0.00264258 2.95324e-05 9.71699e-20)
(0.00197875 -0.00284257 -2.19005e-19)
(-0.00421257 0.00370995 -4.04957e-18)
(-0.00203087 -0.000721094 -5.4817e-19)
(0.00271451 -0.0029888 4.49569e-20)
(0.01728 -2.27142e-05 -4.25952e-18)
(0.00132646 0.00119272 -1.14207e-21)
(0.00641516 -0.0600829 6.3995e-19)
(-0.0017941 -0.000848001 -1.98712e-20)
(-0.00166856 -0.00255538 3.81135e-19)
(-0.00228169 -0.000323194 -2.24914e-19)
(-0.00489275 0.00291822 -6.83137e-19)
(0.00165667 2.4166e-05 -6.43215e-19)
(-0.00318731 0.00138678 2.60623e-18)
(0.0228183 0.00526424 -5.88508e-19)
(0.0202949 0.0155737 1.98595e-20)
(-0.000782724 -0.000242382 2.00133e-18)
(-0.00202799 -0.000692374 -9.25372e-19)
(0.000172776 -4.45054e-05 1.19478e-18)
(-0.000610697 -0.000241663 1.73884e-18)
(-0.00100958 2.56957e-05 1.09735e-18)
(-0.00442659 -0.000897772 5.00399e-19)
(0.00230359 1.77894e-05 5.65158e-20)
(-0.0143997 -0.00326363 -1.43734e-18)
(-0.0058921 0.00234341 -1.9437e-18)
(0.001101 -0.000597803 -6.84819e-20)
(-0.00379353 0.00374294 1.10029e-18)
(-0.00216834 0.000494389 2.76727e-19)
(-0.00230544 0.000362662 1.04654e-19)
(-0.00636997 0.00280549 -1.35155e-18)
(-0.000849141 -0.00110845 3.58904e-19)
(-0.00329896 0.00141934 5.52777e-20)
(0.0156648 0.00196653 3.99263e-18)
(0.0018301 -2.52061e-05 -5.89189e-21)
(-0.00456438 0.000444876 2.20333e-19)
(-0.00559368 -0.00372206 8.48421e-21)
(-0.00280636 0.000793492 -8.55653e-19)
(0.000589999 -0.000911943 3.85454e-19)
(0.000881758 -0.000710841 4.93389e-19)
(0.000485463 -0.00106537 6.97421e-19)
(0.0151695 2.77701e-05 -5.12708e-18)
(-0.00146947 -0.000326844 6.12825e-19)
(0.00175933 -0.000964987 2.03083e-19)
(-0.00288971 0.00101674 -1.75251e-19)
(0.000116964 -0.000880862 -7.51191e-20)
(0.000859147 -0.000864611 6.60754e-20)
(-0.00808508 0.000394803 2.27732e-19)
(0.0159311 0.00371578 -3.3882e-18)
(-0.00771706 -0.00193926 -1.44846e-18)
(0.0134641 -0.00105745 -5.85946e-18)
(-0.00312109 0.00103613 2.74198e-19)
(0.0214931 0.00261547 5.42388e-18)
(-0.00101106 4.35213e-05 2.59123e-18)
(-0.000853162 -0.00317175 -1.63681e-20)