/*--------------------------------*- C++ -*----------------------------------*\
| =========                 |                                                 |
| \\      /  F ield         | OpenFOAM: The Open Source CFD Toolbox           |
|  \\    /   O peration     | Version:  v2012                                 |
|   \\  /    A nd           | Website:  www.openfoam.com                      |
|    \\/     M anipulation  |                                                 |
\*---------------------------------------------------------------------------*/
FoamFile
{
    version     2.0;
    format      ascii;
    class       surfaceVectorField;
    location    "50";
    object      Uf;
}
// * * * * * * * * * * * * * * * * * * * * * * * * * * * * * * * * * * * * * //

dimensions      [0 1 -1 0 0 0 0];


internalField   nonuniform List<vector> 
20642
(
(0.345239 -0.0119036 4.42967e-21)
(0.354552 -0.00973608 2.35699e-21)
(0.362301 -0.00655276 -1.19103e-20)
(1.05717 0.058138 -2.46092e-22)
(1.06017 0.0596676 0)
(1.05984 0.055895 1.67598e-21)
(1.13499 0.0372027 1.06893e-20)
(1.13606 0.0362035 9.27836e-21)
(1.11 0.038139 1.61597e-20)
(1.05767 0.00985365 0)
(1.05797 0.010673 9.81455e-22)
(1.0568 0.0102056 1.31523e-21)
(1.02664 0.0315247 -5.05078e-22)
(1.02791 0.0318376 0)
(1.02729 0.0309501 6.6174e-22)
(1.05412 0.0557572 1.00073e-21)
(1.05377 0.0595531 -2.25119e-21)
(1.08851 0.0189353 8.88334e-21)
(1.08702 0.0188095 1.17372e-20)
(1.08789 0.0199957 -1.21388e-21)
(1.12208 0.0511212 -2.26933e-23)
(1.13638 0.0582073 -2.15994e-22)
(1.13685 0.0429326 -6.77184e-22)
(1.09152 0.000314175 -1.76654e-21)
(1.09119 0.00130217 -1.6279e-21)
(1.09261 0.00104353 -5.75153e-21)
(-0.011024 -0.031304 -5.04927e-21)
(-0.0100581 -0.0214766 2.32865e-21)
(1.11349 0.0435288 1.50296e-21)
(1.1121 0.0552108 4.73802e-23)
(1.04343 0.0130819 -6.75227e-22)
(1.04418 0.013659 2.27177e-21)
(1.04421 0.0128943 2.87312e-21)
(1.01713 0.000156475 -8.02529e-22)
(1.01725 7.83465e-05 -7.0348e-22)
(0.892263 -0.183501 -6.09318e-22)
(0.861133 -0.20953 -2.62853e-22)
(0.86816 -0.196394 -5.39175e-22)
(1.03683 0.041012 -4.02751e-22)
(1.03722 0.0424942 -3.1702e-21)
(1.03848 0.0414565 0)
(0.334248 -0.0137883 -2.6099e-20)
(0.318888 -0.0177861 -2.05169e-20)
(0.996595 8.56846e-05 -1.52113e-22)
(0.996647 8.06062e-05 -9.05246e-25)
(0.996874 3.20563e-05 -3.13807e-23)
(1.10712 0.0368736 9.95065e-23)
(1.09973 0.0327929 1.31933e-21)
(1.10002 0.0418518 -1.35392e-21)
(1.13527 0.0319775 -8.20787e-21)
(1.13554 0.0317628 1.2878e-21)
(1.13571 0.0318742 -6.29117e-21)
(0.347988 0.0361052 4.29299e-20)
(0.360712 0.0350589 1.71359e-20)
(0.368111 0.0296212 1.20911e-20)
(1.05716 0.0361097 6.76734e-22)
(1.0568 0.036175 4.43453e-22)
(1.05706 0.0355424 5.25425e-22)
(1.02095 0.0207829 3.05591e-22)
(1.02127 0.0205403 0)
(1.02164 0.0213754 0)
(1.11583 0.0315041 -2.08677e-23)
(1.11589 0.0303353 -1.69692e-20)
(1.11726 0.031591 7.36752e-23)
(1.02053 0.020964 1.25496e-22)
(1.02037 0.0201741 -4.96193e-22)
(1.06071 0.0211055 -3.99438e-22)
(1.06172 0.0214386 6.63612e-22)
(1.06086 0.0217458 -1.23541e-21)
(1.05774 0.0332205 9.52566e-22)
(1.05734 0.0340418 0)
(1.05817 0.03376 0)
(0.739701 0.240992 5.45316e-21)
(0.81368 0.233959 4.27616e-21)
(0.799419 0.216537 -1.41126e-21)
(-0.00645972 -0.0383427 0)
(1.07329 0.0266962 1.99242e-21)
(1.06931 0.0269961 3.04789e-21)
(1.07134 0.029914 -1.30461e-21)
(0.991031 -0.00320455 -3.81471e-25)
(0.991182 -0.00337272 -4.31701e-24)
(0.991213 -0.00314211 1.37518e-22)
(-0.00905258 -0.0243346 1.11889e-20)
(0.00842808 -0.0154723 0)
(1.13186 0.0246867 7.1537e-21)
(1.13275 0.0245139 6.19322e-21)
(1.13231 0.0253214 8.54194e-21)
(1.05444 0.0157552 7.53709e-22)
(1.05335 0.015443 2.21981e-21)
(1.05403 0.0149767 -1.94794e-21)
(0.381773 0.00153785 -1.18759e-20)
(0.39633 0.00508757 -1.89833e-20)
(0.392703 0.00485805 1.41017e-21)
(0.999506 0.0095755 0)
(0.9993 0.00894051 0)
(0.999035 0.00932326 -1.63656e-22)
(1.14271 0.0734366 3.98145e-22)
(1.16053 0.0652313 -1.75068e-21)
(1.05006 0.0301041 -7.29581e-23)
(1.05078 0.0301699 -4.39381e-22)
(1.05073 0.0307796 8.64117e-24)
(1.00152 0.000250285 -1.29542e-24)
(1.00342 0.000518052 3.16827e-23)
(1.00149 0.000209479 -1.18423e-24)
(1.09007 0.0190879 5.77632e-21)
(1.089 0.0179328 -2.41894e-21)
(1.06184 0.0499147 3.26435e-22)
(1.06178 0.0519244 0)
(1.06379 0.0509126 0)
(0.996034 0.000139351 1.76989e-22)
(0.996502 0.00011727 -1.3631e-21)
(0.994692 8.74057e-06 1.68773e-22)
(0.999137 0.00456966 -3.14197e-24)
(0.999602 0.00532376 4.80385e-22)
(1.00009 0.00445665 -5.06601e-22)
(1.08329 -0.00118993 4.67906e-21)
(1.08244 -6.57801e-05 -4.75273e-21)
(1.08169 -0.00145542 2.24465e-21)
(1.13555 0.0317251 -1.26988e-20)
(1.13583 0.0315853 -9.77517e-21)
(1.13569 0.031981 -1.42257e-20)
(1.13514 0.0314452 7.70747e-21)
(1.13527 0.031769 1.86546e-20)
(1.06269 0.0642935 4.62776e-21)
(1.09124 0.0629829 6.83148e-21)
(1.03996 0.0583192 0)
(1.05745 0.0359673 2.99155e-22)
(1.05746 0.0365548 8.08771e-22)
(0.0710341 0.00907032 1.13022e-20)
(0.135167 0.00732394 0)
(0.121868 0.00526199 8.54576e-21)
(0.992926 0.266727 -3.79625e-22)
(1.01684 0.288502 0)
(1.01718 0.248141 -2.84491e-23)
(0.999781 0.00983813 0)
(0.999576 0.0101719 0)
(1.04272 0.0133621 6.45708e-22)
(1.04267 0.0126113 4.38765e-23)
(1.15401 0.0537855 9.66872e-21)
(1.15612 0.0558756 -1.51973e-20)
(1.154 0.0576847 -4.90353e-21)
(0.189629 -0.0132044 1.30932e-21)
(0.242423 -0.0128776 1.99392e-22)
(0.185727 -0.0139144 2.21578e-21)
(1.03492 0.0184792 0)
(1.03424 0.0178832 -6.21257e-22)
(1.03415 0.0184422 0)
(1.03728 0.0191443 -8.89128e-22)
(1.03652 0.0185761 4.8204e-23)
(1.03724 0.0184518 6.28066e-22)
(1.15222 0.0525649 1.51709e-20)
(1.15449 0.0505106 -1.13575e-20)
(0.142436 0.000938673 1.14191e-20)
(1.11557 0.0327082 -1.77996e-22)
(1.11435 0.0314599 -9.75415e-21)
(0.998769 0.00380362 -2.47021e-22)
(0.998256 0.00443919 0)
(1.02494 0.0644536 1.08826e-20)
(1.083 0.0717304 -2.53764e-21)
(0.338357 -0.0624875 0)
(0.302923 -0.0765392 0)
(0.270525 -0.077625 6.89377e-21)
(0.985166 0.0135561 -6.71269e-23)
(0.985823 0.0162007 -2.54811e-22)
(0.987331 0.0142283 -5.09983e-22)
(0.993797 -0.000144804 4.09152e-22)
(0.993506 -0.000241697 -4.72387e-23)
(0.993083 -0.000293533 -1.66068e-24)
(1.06055 0.0202699 1.29598e-21)
(1.05964 0.0206875 1.36089e-21)
(0.647902 0.0337277 2.13723e-21)
(0.647727 0.0336524 1.28874e-22)
(0.622803 0.0342056 1.16947e-20)
(0.990724 -0.0088233 -2.30984e-24)
(0.990719 -0.00838353 -1.4605e-23)
(0.990331 -0.0085769 -2.4246e-24)
(1.07714 0.0267573 3.46478e-21)
(1.08205 0.0270509 5.8677e-21)
(1.07891 0.0310025 2.58715e-22)
(1.12848 0.0799084 -2.08261e-22)
(1.14312 0.0924666 2.05625e-23)
(1.1136 0.0303376 -6.16629e-22)
(0.307816 -0.0101202 -5.0579e-21)
(0.296131 -0.0122223 7.9024e-21)
(0.291139 -0.0124289 1.49975e-20)
(0.76533 0.0396838 -1.48205e-20)
(0.780651 0.0380685 3.00834e-21)
(0.734209 0.0375485 -7.10591e-21)
(0.371991 -0.000943156 -4.4967e-21)
(0.368592 -0.000850776 -7.39295e-21)
(1.04696 0.00114477 5.27895e-22)
(1.04813 0.00110291 -6.4899e-22)
(1.04732 0.00173111 2.77971e-22)
(0.998538 0.00324218 2.94789e-22)
(0.999245 0.00322034 6.60106e-23)
(1.05615 0.0363495 -2.34097e-21)
(1.05649 0.0370279 -1.03423e-21)
(1.05809 0.0258264 0)
(1.05896 0.0262188 0)
(1.05801 0.0263602 0)
(1.02418 0.0280307 -4.68363e-22)
(1.02466 0.0283991 -6.56635e-22)
(1.02453 0.0280099 -2.46352e-22)
(0.998382 0.00268039 3.2848e-22)
(0.997901 0.00304667 1.45149e-22)
(1.05818 0.0249864 0)
(1.05704 0.0253437 0)
(1.05481 0.0161769 -2.47882e-21)
(1.05539 0.0158075 3.10902e-21)
(1.03368 0.0251878 1.9335e-22)
(1.03284 0.0251038 1.56001e-22)
(1.03298 0.0243819 1.01495e-22)
(0.99684 -0.000109471 4.90563e-24)
(0.99686 -7.13524e-05 8.68555e-23)
(0.996958 -6.60623e-05 -9.85748e-24)
(1.04662 0.000512848 -4.03328e-21)
(1.04577 0.00110749 -6.93399e-22)
(0.732516 0.0437181 8.53481e-21)
(0.776648 0.0435518 8.13616e-22)
(0.769329 0.0444101 2.07898e-22)
(1.01946 0.00314621 4.31026e-22)
(1.01964 0.00352629 3.07194e-22)
(1.01913 0.00343088 0)
(1.08281 -0.0536493 3.65067e-21)
(1.05312 -0.0677101 3.27658e-21)
(1.07064 -0.0637638 -9.32703e-22)
(1.13141 0.0237603 -8.6203e-21)
(1.1308 0.0247427 -7.67865e-24)
(1.01894 0.00178629 -1.09806e-21)
(1.01854 0.00183868 5.17033e-22)
(1.01811 0.00133655 -3.89991e-22)
(1.06217 0.0477981 3.10596e-22)
(1.06027 0.0484034 8.54795e-23)
(0.996503 7.73282e-05 2.31424e-23)
(0.996761 0.000134456 -1.44329e-23)
(0.997085 0.000102821 -1.35907e-23)
(0.996981 6.02024e-05 -4.26801e-23)
(0.997186 0.00011357 -4.94697e-23)
(1.08476 -0.000569182 -3.3295e-21)
(0.968423 0.23753 3.85787e-21)
(0.957445 0.278431 -4.1587e-22)
(0.998921 0.00576319 8.79761e-23)
(0.998767 0.00540924 1.24843e-22)
(0.99888 0.00526217 1.0397e-22)
(1.03987 0.0235689 -1.59117e-22)
(1.03901 0.0234065 4.03481e-23)
(1.03977 0.0241452 -1.69629e-22)
(1.07436 0.0223253 -2.07581e-22)
(0.770642 0.0989346 -1.72097e-20)
(0.847606 0.0992368 4.54015e-21)
(0.818049 0.0729808 8.72119e-21)
(0.996095 0.000223016 2.0814e-22)
(0.99622 0.000242363 -1.51372e-22)
(0.996276 0.000108835 8.47217e-23)
(1.01924 0.00211542 -7.27773e-22)
(1.01923 0.00170058 -1.15925e-21)
(0.968089 0.100746 2.7342e-21)
(0.979656 0.0885771 -1.9777e-21)
(0.966084 0.0832624 2.11483e-21)
(0.993293 -3.02627e-05 4.56973e-22)
(0.99331 -5.89427e-06 -2.07907e-23)
(0.994587 -2.35652e-05 -2.25595e-23)
(0.993185 -3.17318e-05 3.02282e-23)
(0.992833 7.40918e-05 3.65479e-23)
(1.03437 0.0258476 -4.514e-22)
(1.03436 0.0251377 -2.37476e-22)
(0.997801 0.000642722 -4.07499e-23)
(0.997904 0.00060277 -1.87925e-23)
(0.997336 0.0004574 -3.01346e-23)
(1.02356 0.0275575 -4.25123e-22)
(1.02363 0.0280714 9.01629e-22)
(0.730786 0.046198 4.56693e-21)
(0.727815 0.0473921 1.92585e-23)
(0.687805 0.0496117 8.38288e-21)
(0.405061 0.0159777 -4.89028e-21)
(0.401439 0.0180747 -1.14351e-20)
(0.379476 0.0167434 -7.7864e-21)
(0.984987 0.010807 -1.71902e-23)
(0.982621 0.0124919 1.06203e-21)
(0.999058 0.00630093 -1.72375e-23)
(1.00025 0.00627783 -3.97985e-23)
(0.667591 0.245143 -2.1967e-21)
(0.679756 0.260615 1.84077e-21)
(1.0249 -0.000289169 1.02785e-21)
(1.02498 -0.000445547 1.01428e-21)
(0.41252 0.008968 -1.32655e-20)
(0.401718 0.00599348 1.5619e-21)
(1.06641 0.0275932 2.01024e-21)
(1.06675 0.0241994 9.01247e-22)
(0.643263 0.0350163 1.98481e-21)
(0.676886 0.0356818 -1.24009e-20)
(1.0574 0.0284113 2.58994e-21)
(1.05829 0.0287373 1.67776e-21)
(1.05762 0.0277557 1.02671e-21)
(1.13499 0.0321924 0)
(1.13489 0.0320216 -7.26571e-21)
(0.995548 0.000333949 5.24978e-23)
(0.99578 0.000475082 -9.14812e-23)
(0.995754 0.000348142 4.87161e-23)
(1.13732 0.0337843 -2.56504e-21)
(1.13814 0.0344712 3.55425e-21)
(1.13459 0.0337258 -5.63574e-21)
(1.04298 -0.00273874 -1.67298e-21)
(1.04346 -0.00217032 -2.77355e-21)
(1.04239 -0.0022558 2.43817e-21)
(0.997123 -0.000141842 -2.50113e-26)
(0.996757 -0.000124043 -9.93843e-23)
(0.999034 0.00194077 8.42337e-23)
(0.999227 0.00158907 0)
(0.998841 0.00166504 -5.36812e-23)
(1.08693 0.0284398 1.70212e-21)
(1.08449 0.0220991 6.53306e-22)
(1.13697 0.0376364 -3.37382e-23)
(1.13741 0.0387285 1.42173e-21)
(1.13594 0.038513 7.57276e-24)
(0.243248 -0.0102747 6.66369e-21)
(0.260016 -0.00724651 0)
(0.248695 -0.0104219 0)
(0.706187 0.0439324 9.56288e-21)
(0.699668 0.0453606 -1.36732e-20)
(1.06039 0.0195567 -4.41251e-21)
(1.06022 0.018814 -4.53801e-21)
(1.05937 0.0191465 -3.11504e-21)
(1.05584 0.0353772 -1.50787e-21)
(1.05529 0.036394 -1.11896e-21)
(1.00578 0.0128102 2.06633e-22)
(1.00528 0.0124097 -4.69162e-22)
(1.0056 0.0122564 -4.07025e-22)
(1.1361 0.036824 -1.70321e-20)
(1.13761 0.0368846 1.33814e-20)
(1.10845 0.0121639 1.43029e-20)
(1.10892 0.013249 3.87126e-21)
(1.10988 0.0122146 3.61985e-21)
(1.12797 0.175095 -1.04983e-20)
(1.1395 0.166177 0)
(1.12881 0.167935 -8.83348e-21)
(0.462764 0.0343708 -2.12244e-22)
(0.436679 0.0319198 4.26607e-21)
(0.444022 0.0320104 -9.78349e-21)
(1.0572 0.0291334 1.22564e-21)
(1.05654 0.0281884 -2.86127e-22)
(1.13447 0.027293 7.82148e-21)
(1.13432 0.0279073 -1.54616e-20)
(1.13524 0.0276601 0)
(0.5981 0.245927 -3.30267e-21)
(0.654166 0.224671 8.74099e-22)
(0.31484 -0.0903285 0)
(0.348908 -0.0768126 0)
(0.371821 -0.0738464 0)
(0.193454 -0.0061771 4.53262e-22)
(0.18939 -0.00638639 1.74346e-21)
(0.206499 -0.0035988 5.12237e-23)
(1.05938 0.0311524 3.5049e-21)
(1.05823 0.0322162 2.42428e-21)
(1.0597 0.0321756 1.25323e-22)
(1.00126 0.000270532 1.1613e-24)
(0.985305 -0.113967 -3.92091e-23)
(0.992306 -0.102358 1.73989e-21)
(0.973851 -0.116339 -9.26909e-23)
(0.998799 0.00230994 1.15456e-22)
(0.998314 0.00225315 -1.65383e-22)
(0.722174 0.0471722 4.17713e-21)
(0.774096 0.0467748 -4.09397e-22)
(1.01751 0.0134212 -6.35062e-23)
(1.01698 0.0130196 -8.122e-23)
(1.01717 0.0136245 4.69118e-22)
(1.04375 0.00192383 8.24597e-23)
(1.0447 0.00203671 1.29941e-21)
(1.04416 0.00252827 1.38627e-21)
(0.999116 0.0158963 7.16887e-23)
(0.996449 0.0149083 4.61612e-22)
(0.998038 0.0133715 5.00261e-22)
(0.790018 0.0398015 -1.33696e-20)
(0.744877 0.0415838 -3.04149e-21)
(0.980236 -0.119679 0)
(0.155804 0.0111381 -1.73036e-20)
(0.18105 0.0162827 6.60862e-21)
(0.121547 0.0154297 -5.02359e-21)
(1.03575 0.0185556 -6.32147e-22)
(1.03566 0.0191355 0)
(1.0625 0.0462079 0)
(1.06258 0.0446862 8.79301e-22)
(1.06117 0.0449693 2.04921e-22)
(0.993208 -3.39638e-05 1.34458e-23)
(0.993048 -5.26705e-05 -3.64052e-22)
(0.992601 -9.5147e-05 -3.51222e-23)
(1.04284 0.0018377 -1.38036e-21)
(1.04334 0.00134806 -1.42799e-21)
(0.734671 0.127687 -8.94587e-21)
(0.706405 0.095861 -8.68685e-21)
(1.01785 0.0233588 0)
(1.0183 0.0240222 3.41984e-22)
(1.0176 0.0237329 3.1095e-22)
(0.997677 0.000666013 5.13037e-23)
(0.99813 0.000783124 0)
(0.422307 0.0316887 4.48937e-21)
(0.414527 0.0304296 1.07165e-20)
(0.399904 0.0284314 5.65172e-21)
(0.994878 0.00019837 0)
(0.99475 0.000217173 1.8474e-23)
(0.995658 9.05746e-05 4.7148e-23)
(0.995366 0.000284404 4.45494e-23)
(0.995363 0.000198934 4.24406e-23)
(1.01904 0.00792165 -7.23362e-22)
(1.01942 0.00837856 3.04379e-22)
(1.01876 0.00827059 3.17645e-22)
(0.57462 0.0110576 8.54609e-21)
(0.583266 0.0138703 0)
(0.551445 0.00922836 0)
(1.05119 0.0356073 0)
(1.05103 0.0348361 2.1699e-22)
(1.05001 0.0350654 3.61465e-22)
(0.995779 -0.102249 0)
(0.391858 -0.0175133 -1.11478e-20)
(0.385812 -0.0133271 -8.30765e-22)
(0.428007 -0.0146382 -5.04705e-21)
(0.935228 0.107265 0)
(0.948748 0.110717 1.10388e-21)
(0.941559 0.0919749 9.05089e-21)
(0.193172 -0.0129423 0)
(0.129794 -0.0219205 -1.17282e-20)
(0.204431 -0.0209867 1.7831e-22)
(0.140285 -0.0300011 9.33404e-21)
(0.992369 -0.000875064 0)
(0.992423 -0.000997132 0)
(0.992509 -0.000932877 1.65668e-24)
(1.06063 0.0300285 3.03636e-21)
(1.0587 0.0297324 9.73334e-22)
(1.02051 0.0214023 6.19055e-22)
(1.02057 0.02177 -8.51802e-24)
(1.02128 0.0219291 6.07612e-22)
(0.480423 0.0317854 2.77701e-21)
(0.480947 0.0333018 8.05977e-22)
(0.456909 0.0294377 7.96251e-21)
(1.09047 -0.000658149 3.4146e-21)
(0.446956 -0.0449488 5.67423e-21)
(0.392567 -0.0546072 0)
(0.425874 -0.0513268 0)
(1.12057 0.0715059 1.43279e-21)
(1.1205 0.0687906 6.64975e-21)
(1.1234 0.0702844 1.45707e-21)
(0.993564 6.23728e-05 -4.72637e-23)
(0.993209 0.000113905 3.36968e-23)
(0.993712 5.09931e-05 1.15172e-22)
(1.05866 0.00957231 0)
(1.05753 0.00917254 0)
(1.15865 0.0571703 -2.08699e-20)
(1.16773 0.0584475 -2.07364e-20)
(1.15901 0.0614766 -2.13851e-21)
(1.10784 0.011031 -1.01875e-20)
(1.10698 0.0120893 6.04265e-21)
(1.05226 0.0359925 -2.41534e-22)
(1.05132 0.0363348 3.88266e-22)
(1.08186 0.000819323 -4.74366e-21)
(1.08043 0.000633217 0)
(1.08108 0.00185377 -4.96024e-21)
(1.01983 0.0209252 -1.65796e-22)
(1.04214 0.0135664 6.72262e-22)
(1.04283 0.0140319 2.3008e-21)
(1.12346 0.0320222 -5.05017e-21)
(1.14218 0.0320061 0)
(1.1075 0.0305087 0)
(1.137 0.0331144 1.55089e-22)
(1.13824 0.0338736 -3.36013e-23)
(1.12402 0.181471 -4.43054e-21)
(1.10077 0.185755 -2.88403e-21)
(1.04139 0.0131234 -2.09641e-21)
(1.04147 0.0137911 -3.92565e-24)
(1.09065 0.0332376 2.02038e-22)
(1.13496 0.0330216 -7.26639e-22)
(0.990795 -0.00324852 4.89243e-24)
(0.990894 -0.00298608 -1.28777e-22)
(1.09957 -0.0392244 0)
(1.08097 -0.0428859 0)
(1.11774 0.0734955 -1.93981e-21)
(1.1215 0.0752233 -8.80152e-21)
(1.13478 0.0312367 -7.72169e-21)
(1.13507 0.0310144 9.49429e-21)
(1.15365 0.0335183 -7.9613e-21)
(1.14808 0.0342515 1.74356e-21)
(1.14992 0.0358443 -1.14989e-20)
(0.359943 -0.00711126 -1.21428e-20)
(0.373358 -0.00103053 -1.0976e-20)
(0.36527 -0.00300501 5.59835e-21)
(0.99894 0.00618749 0)
(0.999008 0.00604391 -9.53128e-23)
(0.259579 -0.00969729 1.13983e-21)
(0.270655 -0.00699518 -9.35082e-21)
(0.253856 -0.0101996 2.31579e-21)
(1.07184 0.0290065 -2.3101e-21)
(1.07164 0.0299402 -5.54209e-22)
(1.07069 0.0290556 2.14217e-21)
(0.490314 0.0367943 -9.86946e-21)
(0.48307 0.0364317 9.00661e-21)
(0.998992 0.00830043 4.49268e-22)
(0.999397 0.00853963 0)
(1.0174 0.0226873 -2.64304e-22)
(1.01809 0.0229549 0)
(1.05772 0.0359797 -6.65426e-24)
(1.05806 0.0364004 -5.20364e-24)
(1.05792 0.0358927 -1.96825e-23)
(0.301844 -0.013216 -1.19138e-21)
(0.29948 -0.0126061 -1.22284e-21)
(0.315963 -0.0106533 -2.19928e-22)
(0.195482 -0.00698057 1.02606e-20)
(0.173946 -0.00900507 -1.64603e-22)
(1.04615 0.0294348 4.20792e-23)
(1.04689 0.0300855 7.60657e-23)
(1.04598 0.0300335 4.59869e-23)
(0.835138 0.255681 -5.91451e-24)
(0.885974 0.246468 0)
(0.838981 0.253432 -2.69061e-22)
(1.06409 0.0380834 6.06743e-22)
(1.06398 0.0398749 -9.58815e-22)
(1.06238 0.0386098 -6.48446e-22)
(1.06396 0.0472098 0)
(0.999279 0.0022989 3.01326e-22)
(1.15838 0.0531171 -1.25379e-20)
(1.03198 0.0249383 -2.09591e-22)
(1.03259 0.0256884 4.82249e-22)
(1.00374 0.00823644 8.49373e-23)
(1.00363 0.00782408 -8.96118e-24)
(1.00336 0.00789984 -2.8341e-22)
(1.03224 0.0355693 -1.60496e-21)
(1.03003 0.0356842 1.05187e-21)
(1.03084 0.0342 8.78304e-22)
(1.03412 0.0369802 -6.15018e-22)
(1.03492 0.0349168 -1.77243e-21)
(0.21113 0.00649059 -2.14755e-20)
(1.13375 0.0269609 -2.39651e-21)
(1.13462 0.0266686 1.50221e-20)
(1.05705 0.0324849 1.2009e-21)
(0.528433 0.0238241 -6.01835e-21)
(0.526425 0.0220382 8.49015e-21)
(0.551192 0.024398 -1.07876e-21)
(1.00944 0.00119244 -4.7033e-22)
(1.0087 0.00095123 -1.0876e-22)
(1.01046 0.00131901 -1.09554e-22)
(0.998258 0.000404181 7.70241e-23)
(0.998165 0.000231879 -4.6549e-23)
(0.998188 0.00037997 -3.02102e-23)
(0.998366 0.00041217 1.1444e-23)
(0.998343 0.000591369 3.0263e-23)
(0.123193 -0.0173178 -1.48802e-20)
(1.1589 0.0301181 1.02342e-20)
(1.15899 0.0320872 2.44791e-21)
(1.16191 0.0332633 2.53007e-21)
(1.05616 0.0325381 -1.89388e-21)
(1.01806 0.0314331 -1.22616e-20)
(1.07 0.033828 -7.05995e-21)
(1.02585 0.000901997 1.28767e-22)
(1.0262 0.00102088 2.97953e-21)
(1.02606 0.000761743 -1.66866e-22)
(0.994091 -0.000110404 -1.14655e-22)
(0.995187 -6.6003e-05 3.26281e-24)
(0.542282 0.266177 -3.23185e-21)
(0.533871 0.241516 -3.01411e-21)
(0.264548 -0.0095083 -1.13215e-20)
(0.998345 0.000559406 -1.08554e-23)
(0.998278 0.000562618 -7.95067e-24)
(0.998225 0.000419164 -1.47308e-23)
(0.998425 0.000535277 6.63397e-23)
(0.998454 0.000687407 1.00706e-22)
(0.99504 0.000285947 3.98065e-23)
(0.996932 3.73835e-05 7.76474e-22)
(0.99849 0.000435014 5.55783e-24)
(0.998414 0.000231899 -1.78734e-23)
(0.998651 0.000469454 1.88097e-22)
(0.998552 0.000657495 -1.7057e-22)
(0.359179 -0.00464687 0)
(0.370341 -0.00201116 -3.99175e-21)
(0.259732 0.00585314 -1.13027e-20)
(0.25183 0.00258857 1.18007e-20)
(0.308182 0.00149012 2.01756e-20)
(1.02679 0.0231712 0)
(1.0262 0.0225568 0)
(1.02695 0.0227628 0)
(0.992212 -0.00134467 -9.50493e-25)
(0.992168 -0.00135549 0)
(0.992173 -0.00127101 0)
(1.13246 0.0514641 -2.27127e-21)
(1.13172 0.0539494 6.75654e-21)
(1.13005 0.0520835 1.82095e-21)
(0.344801 -0.00215534 -1.17412e-20)
(0.335812 -0.00504785 7.95506e-22)
(0.34972 -0.00195957 -1.09082e-20)
(0.995827 0.000175493 0)
(0.995855 9.39728e-05 4.2078e-23)
(0.995751 9.1428e-05 -3.13264e-24)
(1.02566 0.00104969 -1.16621e-22)
(1.02557 0.000800741 -1.26389e-21)
(0.822697 0.245905 -3.3803e-21)
(0.763391 0.262222 2.0675e-23)
(0.716697 0.0471011 -7.83112e-21)
(0.708948 0.0467102 5.23348e-21)
(0.759637 0.0470451 -2.21668e-20)
(1.14892 0.0298572 -1.22633e-20)
(0.532166 0.0254343 -2.37179e-20)
(0.509328 0.0229939 -1.08786e-20)
(1.1401 0.0809342 -1.4338e-20)
(1.13766 0.0848644 -6.17263e-22)
(1.14344 0.0849869 -7.31252e-23)
(1.01778 0.0132423 0)
(1.01801 0.0138183 -5.04091e-23)
(0.274005 -0.0159997 -1.09743e-21)
(0.280733 -0.0207792 -1.59237e-22)
(1.13314 0.0496406 -1.76616e-20)
(1.13465 0.0512998 -2.30494e-20)
(1.06407 0.0282399 7.40686e-23)
(1.06607 0.0298087 1.08063e-21)
(1.13047 0.0325192 1.32374e-20)
(1.13121 0.0328212 -6.7509e-21)
(1.13124 0.0321295 2.58076e-21)
(1.04539 0.0288168 -2.21357e-23)
(1.04628 0.0288381 1.09868e-22)
(0.278264 0.00858399 -1.22818e-20)
(1.04392 -0.00169271 -4.56574e-21)
(1.04339 -0.00128328 -1.69481e-21)
(1.04434 -0.00114874 1.38754e-21)
(1.08475 0.0558873 0)
(1.08504 0.0574632 -2.40931e-21)
(1.08678 0.0563745 -3.03882e-21)
(1.11815 0.0667877 0)
(1.11634 0.0638739 1.31066e-21)
(1.11494 0.0666679 -5.09818e-22)
(1.02643 0.0239508 3.81918e-22)
(1.02663 0.0234973 3.6512e-22)
(1.02587 0.023357 7.75079e-22)
(0.996399 2.23194e-05 -1.39326e-22)
(1.06142 0.0199441 -1.86713e-21)
(1.02188 0.0323979 4.51165e-22)
(1.02104 0.0313167 -5.22821e-22)
(1.02052 0.0321594 -7.76541e-22)
(0.998235 0.00389548 3.40085e-22)
(0.998043 0.00443626 -2.89887e-22)
(0.997975 0.00391745 -1.79995e-22)
(0.288662 -0.00121977 9.40382e-21)
(0.279979 -0.00410484 -2.14173e-21)
(0.274445 -0.00412522 9.26436e-21)
(0.964837 0.18656 -1.89666e-20)
(0.982049 0.144129 -9.80344e-21)
(1.00128 0.206585 4.86502e-21)
(1.00037 0.000408747 -6.81806e-23)
(1.00024 0.000121682 6.03392e-23)
(1.00001 0.000391116 6.08797e-23)
(0.998415 0.00038658 4.25614e-23)
(0.998459 0.000547695 -5.04907e-23)
(1.01901 0.0242865 3.38389e-22)
(1.01875 0.024682 1.08824e-21)
(0.998332 0.000241303 -4.16076e-24)
(0.998417 0.000272399 6.71332e-23)
(1.04456 -0.0021171 -1.96336e-21)
(1.02209 0.000224109 -1.1842e-21)
(1.01648 0.000170902 1.10206e-21)
(1.09956 0.037417 -3.9012e-21)
(1.10112 0.0381219 0)
(1.09991 0.0391192 -8.04008e-21)
(1.00048 0.00077889 5.18368e-23)
(1.00077 0.000417203 -5.07703e-23)
(0.187731 -0.00345873 -1.2452e-20)
(0.202619 -0.000542925 -1.08267e-20)
(0.40625 0.0137069 1.21797e-20)
(0.426712 0.0160647 4.72385e-21)
(1.03566 0.0125097 1.0605e-21)
(1.03556 0.0118811 5.29823e-22)
(1.03482 0.0121517 1.03824e-21)
(1.0209 0.0290929 -4.8287e-22)
(1.02169 0.0298112 1.33489e-21)
(1.0219 0.029178 -3.32154e-22)
(0.989225 0.0638246 7.09064e-21)
(1.00449 0.0711448 -1.08299e-20)
(0.948257 0.0611183 -1.42572e-20)
(0.998756 0.00312882 1.68553e-22)
(0.998757 0.0034616 -1.14906e-23)
(0.9985 0.00323969 1.15617e-23)
(0.994616 0.0741783 0)
(0.991286 0.082509 -1.83453e-21)
(1.00258 0.080705 0)
(0.303115 0.00199431 8.63437e-21)
(0.297428 0.00169125 4.4575e-21)
(0.998734 0.00286804 8.02106e-23)
(0.998984 0.00303352 -4.99981e-23)
(0.32263 -0.00758037 -1.05188e-20)
(0.317385 -0.00772852 4.89361e-22)
(0.998421 0.00339743 4.05742e-22)
(0.998439 0.00388689 4.91248e-22)
(0.606567 0.0121995 -5.84491e-21)
(0.573057 0.00791053 -5.01203e-22)
(0.993529 5.72567e-05 -1.28142e-22)
(0.994748 1.95977e-05 -2.7305e-23)
(1.0362 0.0382369 1.45719e-22)
(1.03495 0.0375927 1.70805e-21)
(1.03577 0.0368628 -6.63349e-22)
(1.02639 0.0242931 0)
(1.02708 0.0244534 3.34628e-23)
(1.01545 0.0134594 1.60227e-22)
(1.01483 0.0132062 -1.34454e-22)
(1.0151 0.0129293 1.3371e-22)
(1.13844 0.0286329 -1.19493e-21)
(1.13793 0.0297255 -3.90788e-23)
(1.1373 0.0287922 -1.4909e-20)
(1.00158 0.000630841 0)
(1.00183 0.000603422 3.86174e-23)
(1.00052 0.000301129 0)
(0.920141 0.102759 8.27618e-21)
(0.930029 0.127277 0)
(1.07164 0.0363522 -2.33064e-21)
(1.07118 0.0374538 1.84359e-21)
(1.07041 0.0361662 2.96974e-21)
(1.00165 0.016411 2.44972e-22)
(0.999516 0.018674 1.37507e-22)
(0.957359 0.24258 3.12895e-21)
(0.940914 0.240536 0)
(0.991927 0.22895 -1.70221e-21)
(0.176434 -0.00598767 4.41198e-21)
(0.996046 0.000255867 4.3733e-23)
(0.995928 0.000254245 8.25551e-24)
(1.11726 0.0407319 5.7959e-21)
(1.11891 0.0406154 0)
(1.11765 0.0391995 -4.99763e-22)
(1.02434 0.0323114 3.90902e-22)
(1.02312 0.0324051 0)
(1.02341 0.0313307 5.5226e-22)
(1.0571 0.029733 -1.04032e-21)
(1.05693 0.0303023 -1.56144e-21)
(1.05629 0.0295129 2.1306e-23)
(1.02574 0.0319717 5.2776e-23)
(1.02553 0.0309053 -4.91225e-22)
(1.05823 0.0243471 -2.06205e-21)
(1.05912 0.0247925 1.44949e-21)
(0.998644 0.00508389 -3.0879e-22)
(0.998551 0.00472631 -3.93056e-22)
(0.99868 0.00459426 -4.65119e-23)
(1.00217 0.000883629 5.89711e-23)
(1.00115 0.000588652 -7.65976e-23)
(1.16067 0.0708448 -2.04787e-21)
(1.17086 0.0684285 2.0858e-21)
(1.15921 0.0660339 8.0424e-21)
(1.01225 0.0238095 -2.668e-21)
(1.01406 0.0234918 -7.77972e-22)
(1.01259 0.0247562 -8.03445e-22)
(1.085 0.0536364 3.22435e-21)
(1.0829 0.054762 0)
(1.05831 0.0236219 -1.87748e-21)
(1.05733 0.0238886 5.93942e-22)
(1.02548 0.00113916 -1.54209e-21)
(1.02525 0.00101012 -2.21573e-21)
(1.02528 0.00122472 -3.82182e-21)
(0.430348 0.0319511 -7.18408e-22)
(0.447834 0.0337589 -1.39511e-21)
(0.299062 -0.0149298 -1.49707e-20)
(0.277087 -0.0144492 1.01215e-20)
(1.00395 0.0111763 3.30584e-23)
(1.00352 0.0107247 2.95468e-23)
(1.00383 0.0106601 4.74153e-22)
(0.975544 0.009034 3.31611e-22)
(0.974322 0.00783191 2.51135e-23)
(0.976135 0.00740598 2.48341e-23)
(1.05801 0.0299493 0)
(1.06243 0.078037 -3.88896e-22)
(1.04995 0.0780612 1.75754e-21)
(1.05161 0.0678908 -5.47682e-22)
(1.14295 0.0325677 -5.80968e-21)
(1.14396 0.0336048 1.97733e-21)
(1.14402 0.0325285 -2.97688e-21)
(0.436434 0.0197439 3.80813e-21)
(0.424842 0.0210132 8.59754e-21)
(0.414465 0.019094 -1.42104e-20)
(0.46321 -0.0410038 3.38966e-21)
(0.490651 -0.0410519 3.70625e-21)
(0.991511 -0.00801827 -6.52284e-23)
(0.991084 -0.00818883 -6.36674e-26)
(0.991478 -0.00842705 -3.10295e-23)
(1.14712 0.153032 -7.62424e-21)
(1.13936 0.15589 4.36157e-21)
(1.02028 0.0283514 -4.7119e-22)
(1.01996 0.0289232 1.11437e-22)
(0.819522 0.0441454 -9.85375e-22)
(0.782759 0.0433948 -6.64654e-21)
(1.07258 0.08954 2.61963e-21)
(1.07586 0.0747321 -7.12896e-22)
(1.13149 0.0378857 -2.46993e-21)
(1.14269 0.037367 -1.19182e-20)
(1.02156 0.00040292 -6.36932e-22)
(1.01549 6.80465e-05 -7.16991e-22)
(1.03649 0.0395696 4.19273e-22)
(1.03542 0.040331 -3.79748e-22)
(0.874738 0.228481 4.79827e-22)
(1.01982 0.0228074 0)
(1.02 0.0224208 0)
(1.02046 0.0230929 0)
(1.06414 0.0593181 0)
(1.06145 0.0623482 1.38947e-22)
(1.13433 0.0311098 -1.55993e-20)
(1.13462 0.0314419 1.18333e-20)
(0.996399 2.65249e-05 2.35508e-25)
(0.996402 3.89362e-05 -1.14802e-22)
(0.996667 -1.38954e-06 -1.08719e-23)
(0.500701 0.0343564 1.29632e-20)
(0.47615 0.0307576 7.38941e-22)
(1.01922 0.00242926 -2.25959e-22)
(1.01932 0.00283889 6.90956e-23)
(1.01891 0.00268363 -6.39473e-22)
(1.12301 0.0080857 0)
(1.12449 0.00795662 -1.14573e-20)
(0.99596 0.0097337 -1.9121e-22)
(0.99521 0.00949579 -9.08513e-23)
(0.995357 0.0103786 2.01735e-22)
(0.295677 0.0419674 -8.30127e-21)
(0.304897 0.0233291 8.69568e-21)
(1.00461 0.00481737 1.42637e-22)
(1.00428 0.00462682 7.3793e-23)
(1.00449 0.00444964 -5.02678e-23)
(1.08537 0.0520398 5.19181e-21)
(1.08373 0.0510034 -3.36135e-21)
(1.0856 0.050379 -2.11362e-22)
(1.06558 0.037314 1.2912e-21)
(1.06343 0.0366525 1.60615e-21)
(0.991838 -0.00778123 2.49285e-24)
(0.991476 -0.00761012 2.29093e-24)
(0.996631 3.0152e-05 2.54092e-25)
(0.996469 6.15113e-06 1.04042e-23)
(1.13133 0.0315364 6.98519e-21)
(1.13155 0.0310201 0)
(1.13078 0.0311361 -6.08042e-21)
(0.761765 0.0478739 -2.17216e-21)
(0.809045 0.048635 3.21577e-22)
(0.767807 0.0477841 -2.0845e-21)
(1.04 0.0224871 6.00036e-22)
(1.03995 0.0230715 0)
(1.03917 0.0222349 6.06851e-22)
(1.01963 0.0231512 -3.53672e-22)
(1.0192 0.0224901 -5.42562e-22)
(0.423347 0.0115657 -6.90152e-21)
(0.428465 0.0122786 -3.41149e-21)
(0.745591 0.0500091 0)
(0.755667 0.0488658 0)
(0.796805 0.0489185 -1.1123e-20)
(0.632766 -0.00595593 -8.02977e-21)
(0.652288 -0.00245314 -3.46025e-21)
(0.612636 -0.0059144 -4.64443e-21)
(0.927466 -0.153233 0)
(0.916652 -0.158465 6.59279e-21)
(0.998719 0.00264412 7.6971e-23)
(0.998516 0.00271366 2.48738e-23)
(1.0287 0.0227405 0)
(1.0281 0.0221299 0)
(1.02887 0.0222576 -5.48566e-23)
(0.701867 0.0466365 1.54223e-20)
(0.694777 0.0464282 2.73103e-21)
(0.745049 0.0466765 -1.32086e-22)
(1.14811 0.142935 -6.77685e-21)
(1.15557 0.15037 1.76849e-21)
(0.998919 0.00256271 -9.39193e-23)
(0.998714 0.00242443 -8.6544e-23)
(1.02562 0.0331733 3.97457e-22)
(1.03866 0.0159026 1.13048e-21)
(1.03942 0.0163878 -1.18101e-21)
(1.03859 0.0163713 -7.8417e-22)
(1.0433 0.0315871 2.64834e-21)
(1.04116 0.0286927 -8.13127e-22)
(1.03944 0.0327829 3.62345e-21)
(1.08698 0.0528701 1.1449e-22)
(1.1465 0.038615 6.1597e-21)
(1.14451 0.0387435 1.42965e-21)
(1.14553 0.0404056 -6.16899e-21)
(1.11952 0.111916 1.19102e-20)
(1.11266 0.108765 -4.40847e-21)
(1.11837 0.104978 7.26954e-21)
(1.00075 0.0660396 3.57413e-21)
(0.989991 0.0641916 4.47629e-21)
(1.12138 0.0112433 -4.19881e-21)
(1.12098 0.01218 0)
(1.12228 0.011869 7.90217e-21)
(0.399413 0.00619955 -7.17966e-21)
(0.386825 0.00207522 -7.67324e-21)
(0.394846 0.00415348 -1.45793e-21)
(1.006 0.0133269 4.21172e-22)
(1.00626 0.0131327 2.05509e-22)
(1.0409 0.0227218 -3.17921e-23)
(1.04006 0.0218938 -3.45082e-23)
(1.02857 0.0324847 -2.45781e-22)
(1.02917 0.0316525 0)
(1.14035 0.0275806 5.66531e-21)
(1.13803 0.0284782 0)
(1.14343 0.0270357 0)
(0.996046 0.000117199 -5.21208e-23)
(0.996569 3.95051e-05 -1.68926e-23)
(0.996071 0.000102054 -6.17202e-23)
(0.340087 -0.0118742 -8.32616e-21)
(1.12179 0.0101523 7.74701e-22)
(1.12035 0.0105895 -4.75514e-21)
(0.919581 0.0717423 2.69217e-21)
(0.915341 0.0699579 8.92271e-22)
(1.03742 0.0196247 -6.23832e-22)
(1.03805 0.0194868 -1.41765e-23)
(1.12675 0.131718 -9.12233e-22)
(1.13987 0.135278 0)
(1.13179 0.124816 -1.45674e-21)
(0.975105 0.0107759 -6.75549e-23)
(0.976902 0.0101485 -1.39865e-22)
(0.948215 0.209851 2.07099e-21)
(0.93356 0.185447 -4.20752e-22)
(0.919251 0.212943 -3.42042e-23)
(0.995064 0.00451398 -2.23092e-22)
(0.995826 0.00519768 -6.92855e-23)
(0.995858 0.00417808 1.08723e-22)
(1.04057 0.030779 6.07141e-21)
(0.967526 0.0558702 2.12108e-20)
(1.06792 0.0374594 -2.93502e-22)
(1.06702 0.0353664 -2.41561e-22)