/*--------------------------------*- C++ -*----------------------------------*\
| =========                 |                                                 |
| \\      /  F ield         | OpenFOAM: The Open Source CFD Toolbox           |
|  \\    /   O peration     | Version:  v2012                                 |
|   \\  /    A nd           | Website:  www.openfoam.com                      |
|    \\/     M anipulation  |                                                 |
\*---------------------------------------------------------------------------*/
FoamFile
{
    version     2.0;
    format      ascii;
    class       volScalarField;
    location    "50";
    object      ddt0(k);
}
// * * * * * * * * * * * * * * * * * * * * * * * * * * * * * * * * * * * * * //

dimensions      [0 2 -3 0 0 0 0];


internalField   nonuniform List<scalar> 
13917
(
-3.86966e-08
-8.83811e-08
-0.00100951
2.68198e-07
-2.04623e-08
-2.11335e-07
-0.00378925
-0.000260452
0.00454628
-1.14574e-07
2.68885e-06
1.07489e-06
2.89509e-07
0.000607741
-6.61535e-08
-6.04939e-08
-1.22292e-07
4.49878e-07
1.04392e-06
-4.45043e-08
6.41325e-09
-0.00401821
-4.66202e-08
-4.60673e-05
-4.85072e-08
-0.00391774
4.99689e-07
-9.00352e-09
7.46401e-07
1.53331e-07
-6.88018e-09
4.99599e-08
1.2318e-08
1.83167e-07
-3.23289e-08
3.13267e-06
-4.64693e-08
0.00110869
3.59199e-07
-0.000614716
-6.50224e-08
1.29401e-08
-9.97666e-09
2.81497e-08
9.81875e-09
-1.88701e-07
4.37412e-07
8.20224e-07
7.33824e-08
-7.83075e-08
1.00901e-07
-4.83577e-08
-1.34726e-05
1.70922e-07
-1.31548e-07
7.12465e-08
2.58827e-06
-8.0122e-08
2.391e-08
5.94845e-09
0.00406314
-9.30828e-08
0.000380674
-5.13435e-08
-9.20545e-07
0.00104855
8.64352e-09
-2.61901e-08
1.48192e-06
1.97338e-08
-1.74894e-08
0.00328411
0.00250586
-3.49971e-08
4.23471e-06
8.55124e-07
0.00192752
-7.89986e-10
-0.0028948
5.40131e-09
-1.35401e-08
9.89236e-09
-8.35808e-07
0.000953301
-0.000764353
-5.64894e-09
-2.41078e-08
0.000409019
1.80593e-07
-1.41581e-09
0.00325097
8.70315e-08
-4.7007e-08
-1.04009e-07
0.000755284
-8.06364e-07
1.64581e-06
7.20386e-07
2.96103e-06
8.45762e-08
-6.79902e-08
2.46485e-07
5.73198e-08
7.76403e-09
-7.19776e-08
0.00358
6.6807e-07
8.19705e-07
-1.21516e-07
-5.96664e-08
-0.000602946
-0.000693112
1.61803e-06
0.00417762
-6.28399e-09
4.53435e-06
-5.04491e-08
-3.41704e-06
-0.000238592
1.2706e-07
1.24266e-08
1.95205e-06
0.000137983
-1.52265e-08
-7.82498e-08
-1.13132e-07
8.11984e-09
-8.07341e-08
-1.43445e-08
3.83144e-07
-0.000637115
-1.10191e-08
1.37347e-08
9.79595e-09
-2.81918e-06
-3.62917e-05
-1.00129e-08
-4.93006e-07
1.23433e-08
8.86041e-08
4.08003e-06
-1.81355e-08
-5.55865e-08
6.25455e-08
-3.26573e-08
0.000178513
1.62772e-07
-4.75082e-08
-1.55489e-08
5.26787e-08
9.33667e-07
8.79847e-06
1.61202e-06
-1.42582e-07
5.05855e-08
-0.00060645
3.38835e-08
-1.18737e-06
0.00160038
-1.41363e-05
-5.67976e-08
3.5294e-07
5.08978e-09
1.59212e-06
1.62557e-06
2.89233e-06
1.00503e-08
8.90623e-07
1.62067e-08
1.98042e-08
-1.93897e-07
-0.000668059
1.723e-06
-1.10089e-07
-2.47774e-05
-1.71611e-07
-0.00101905
1.10365e-07
9.52664e-05
-1.18655e-07
1.48234e-07
3.51033e-08
-1.50074e-08
-2.7617e-08
-7.49159e-09
-0.00422755
1.90116e-06
-0.00111885
2.99949e-07
2.84535e-06
3.30565e-06
-0.000763471
1.40339e-06
-4.6344e-08
-1.91381e-06
-4.03572e-07
1.64741e-07
-5.84006e-08
4.1726e-07
2.76767e-05
2.72741e-07
-7.97549e-08
9.24042e-07
9.14853e-07
0.00211181
-1.56184e-05
-3.50563e-08
-9.33583e-08
7.34136e-07
-0.00265599
-5.5091e-08
-0.00371006
0.00148964
2.83242e-06
-6.98289e-08
2.00902e-07
7.04958e-07
-0.000273005
-3.97235e-08
0.00512103
-1.1393e-07
1.92565e-07
-7.23874e-08
0.00176437
0.00428897
-4.64434e-08
1.98942e-07
6.81241e-08
-7.28259e-08
3.70563e-06
1.60928e-06
3.03733e-07
0.000128221
0.00107185
-7.13128e-08
6.25028e-08
0.00379095
-0.000556076
-1.16604e-08
-6.14187e-08
-0.000616418
1.48141e-06
-5.21506e-09
4.42708e-06
5.59636e-07
-2.41883e-08
1.257e-07
-6.04372e-09
1.02472e-07
0.00171906
1.01554e-07
1.62136e-07
-3.37786e-07
1.7793e-08
-7.27965e-08
1.35599e-06
-0.0008499
1.50541e-06
-4.17573e-08
-3.93666e-08
-8.76986e-10
0.000163605
0.00327202
6.34872e-06
-7.92751e-08
0.00130471
0.00118329
-1.51007e-05
-0.0027904
1.03164e-06
-4.39764e-09
-8.84426e-08
5.33904e-07
0.0021731
9.21703e-07
2.67247e-08
-8.03149e-07
6.53399e-07
-1.56807e-08
0.00297555
-4.80806e-08
-8.29983e-06
2.62961e-07
-1.60639e-08
-9.68999e-09
-1.15632e-07
-1.97494e-07
4.36036e-06
2.73464e-08
5.08327e-08
2.55038e-05
2.06077e-05
0.00689286
-3.98327e-08
2.01509e-05
-3.14635e-10
7.16923e-08
-5.14117e-08
-1.53324e-05
-6.22211e-08
3.09097e-07
1.22174e-07
1.94626e-08
9.56343e-07
-5.15815e-09
-4.22647e-06
-1.13505e-07
-3.69756e-08
1.08641e-08
-6.65942e-08
-0.000683322
0.000371231
-4.71796e-08
-7.83262e-08
-0.00107608
-1.09603e-07
0.00285561
7.37534e-09
0.0018163
2.01082e-07
2.08615e-06
4.24248e-07
9.88564e-06
-5.78662e-08
1.02749e-05
8.26961e-07
-2.46556e-08
1.47137e-06
7.31546e-07
-1.46457e-07
0.000101692
-2.64026e-06
0.00131211
-2.94209e-09
-0.00053046
6.75386e-08
-0.000882396
5.92721e-07
-2.2545e-07
4.63649e-08
-0.0019523
-9.12584e-11
-2.87828e-08
-0.000545379
-8.75353e-08
-8.83205e-08
0.00104169
5.38409e-07
-8.10015e-08
3.06601e-06
6.60575e-07
-6.80055e-08
-0.000116998
4.60507e-06
-5.47985e-08
-6.43257e-08
8.07716e-09
-2.07284e-08
1.51771e-05
1.06915e-05
-3.08684e-06
-0.000720004
-4.49695e-08
3.77427e-07
-0.000109008
6.46918e-07
-0.00407794
0.00235084
0.00510339
-6.90855e-08
5.98288e-06
-7.63554e-08
0.00369906
1.22189e-08
3.05717e-06
5.35486e-07
2.79615e-07
-8.04557e-09
7.03634e-07
1.98471e-07
4.06121e-07
-1.12174e-06
-0.000902648
-0.000339999
1.18267e-07
-8.3861e-08
-6.29426e-08
-0.000593572
-0.00394756
-1.23535e-07
-2.36898e-05
-3.70531e-08
-1.39313e-06
1.9994e-07
-4.45832e-10
-1.14152e-09
-0.00120006
-1.23601e-09
-0.000934566
-0.00106235
2.80634e-06
2.09126e-07
-1.47076e-07
1.37715e-06
5.36638e-07
-5.79838e-08
4.48163e-07
-8.67422e-08
-3.35188e-08
1.51786e-07
-8.23778e-09
-2.83224e-08
-6.4295e-08
-3.44708e-06
6.24945e-09
-0.000608599
-0.0018588
-0.00026245
1.19429e-06
-0.00128725
9.73348e-05
6.71815e-07
-4.59027e-08
3.37067e-07
3.33066e-07
6.52796e-08
-4.55258e-08
3.65539e-05
-0.00405109
-0.00181934
-7.3693e-08
5.63356e-07
1.89124e-08
3.73128e-07
5.79216e-07
-8.12863e-08
6.38111e-06
-1.06216e-07
-5.8108e-08
0.00330436
-0.000867305
-0.00114947
-1.61684e-07
-0.000165907
-0.000223882
0.000836416
0.00179064
-2.41975e-08
6.6242e-07
-8.09285e-08
-8.61449e-08
-1.62527e-06
4.57793e-07
6.77419e-08
2.48801e-07
5.88703e-07
0.00165585
-5.57848e-08
1.27232e-06
-0.000542582
2.84205e-06
-0.000655332
5.79606e-09
-1.26058e-07
1.56898e-07
-3.0897e-08
-6.21462e-08
-0.00363686
-4.9853e-06
-1.65758e-08
-0.000734243
7.75702e-08
1.72104e-06
0.00134926
4.84821e-08
2.82728e-06
4.16742e-06
1.35524e-06
2.52174e-07
7.23423e-07
7.63704e-07
3.32477e-06
1.31658e-06
8.68737e-07
9.52782e-07
-7.57628e-09
1.57606e-05
2.11866e-07
1.24214e-08
-1.18575e-07
-1.8492e-08
0.00185574
0.00358041
-1.05345e-07
-1.44908e-08
-0.00135231
1.25562e-05
-1.22584e-08
-0.000498228
8.80549e-08
5.55583e-08
-1.2279e-07
0.00160112
4.43298e-07
4.0772e-08
2.24143e-08
-0.00147651
9.83613e-07
-0.000210027
3.00437e-10
0.00181775
-5.88747e-06
0.000541862
5.51224e-09
-0.000663989
0.00765241
7.10088e-07
-6.33127e-08
-1.36355e-07
6.85799e-07
5.40762e-06
7.30097e-08
-6.2772e-08
-7.36661e-08
-7.27436e-08
0.00107651
1.52232e-06
6.79941e-07
1.49812e-07
-6.48451e-08
-6.8669e-08
6.45344e-07
0.00739464
1.93331e-07
1.34706e-08
-3.98629e-08
-1.80134e-09
0.00106216
-0.000639186
-2.26616e-08
-1.53573e-08
6.54358e-06
7.59105e-07
4.19013e-07
-1.10878e-07
-4.64126e-08
2.66922e-08
9.95824e-07
1.24418e-06
2.87404e-06
7.45054e-07
7.81579e-07
8.05488e-06
-1.21618e-07
-3.89409e-08
0.00190947
5.39236e-09
-6.7205e-08
1.78278e-07
1.43139e-05
-2.21811e-07
-7.40957e-08
2.08268e-06
2.83473e-07
-0.000803965
8.25595e-07
5.18097e-07
6.20473e-07
-9.59279e-09
0.00698191
6.58893e-07
-0.00291116
-1.18944e-07
1.09008e-07
9.55606e-07
0.00251822
0.000294192
6.74764e-07
4.19453e-08
-5.92149e-08
2.36396e-08
-1.03254e-07
-1.21635e-07
3.12103e-08
-5.96041e-08
7.41565e-07
-5.88711e-07
-0.00290383
-0.000245188
-7.57485e-09
1.73846e-06
5.02695e-06
-3.03106e-08
-5.12693e-08
2.66428e-06
0.0012537
0.000139358
8.79921e-07
-1.69532e-08
-0.000151468
7.86544e-07
-7.17675e-08
9.69422e-08
1.1818e-06
7.11936e-08
2.08666e-07
-0.00310697
7.50076e-07
6.41752e-07
0.00750202
-1.91544e-09
0.00156066
-7.3566e-10
-2.46984e-08
6.24697e-06
0.00110235
7.0004e-07
-1.19869e-08
-1.08054e-07
-1.34511e-08
6.50183e-07
5.07942e-06
2.65013e-06
2.4112e-08
2.63582e-06
7.26158e-07
-1.16471e-07
-7.29895e-05
2.51088e-06
5.57711e-06
-4.76612e-08
6.39886e-07
-1.64765e-08
-0.0013294
-9.86099e-08
-3.71377e-07
1.50907e-07
-7.45725e-08
2.74099e-09
1.21606e-08
3.52848e-07
-1.55038e-07
1.28417e-06
8.80081e-06
8.76463e-07
-6.78965e-08
6.0713e-07
8.08216e-07
2.70495e-06
8.58799e-08
-4.37235e-08
-5.74393e-08
4.42476e-07
2.74379e-08
0.0079245
-1.21099e-09
1.95821e-05
4.38327e-07
2.73655e-06
1.36072e-08
0.00226755
-1.19087e-07
-1.48427e-07
0.00223428
-0.00112525
-1.3805e-07
1.78424e-07
-5.79666e-06
4.26773e-07
9.97498e-07
-2.03804e-08
2.38846e-08
1.25377e-06
2.98259e-07
3.82526e-07
1.23522e-06
1.48527e-08
9.60713e-07
-0.000952785
9.63224e-08
2.21912e-07
-7.05027e-08
0.000356197
1.06754e-08
-8.03489e-08
-0.000700665
-1.16558e-07
0.000486537
5.18797e-08
-1.51167e-08
-6.91054e-08
-2.3432e-07
-5.22484e-08
1.18722e-07
-7.71111e-08
-2.28446e-07
8.79956e-08
8.61368e-05
4.28719e-06
0.00744883
1.52422e-07
-5.48944e-09
-2.38436e-08
-1.29904e-08
0.000958074
0.00699473
4.4428e-07
-4.66423e-08
-1.12643e-06
1.3427e-06
4.96878e-06
5.88196e-07
6.58529e-07
-0.00247577
-6.40077e-08
6.12605e-07
5.00565e-07
1.04436e-07
4.93328e-07
1.99291e-06
4.48166e-07
2.28885e-07
1.30789e-06
-2.91672e-08
4.45959e-08
4.88863e-07
-7.9977e-08
3.86019e-08
-5.25868e-08
-7.06516e-08
8.13819e-07
7.2293e-08
4.32061e-07
-3.93583e-08
-3.76389e-08
9.62243e-09
-3.39481e-08
1.15854e-08
2.21274e-08
-7.1046e-08
0.00139634
9.72332e-07
-2.53836e-06
-6.71852e-08
-1.14205e-09
5.63484e-08
1.98174e-07
-1.65633e-08
0.00551925
-1.60325e-09
0.00307511
4.82593e-07
7.14856e-07
1.71397e-09
7.02736e-09
-7.80877e-08
2.40679e-09
-0.000383845
1.71463e-09
1.61552e-05
2.3057e-09
-0.000141203
1.70556e-07
5.92197e-08
2.79904e-06
-1.97984e-08
4.25183e-09
9.77564e-07
-3.2153e-08
-1.19647e-07
0.00601143
-1.03152e-07
-1.2281e-08
7.54381e-08
-6.23513e-08
-1.936e-08
4.37605e-08
1.19657e-06
0.00081125
8.81085e-08
9.78979e-08
-7.1883e-08
0.00267892
2.0223e-07
-1.54765e-07
-1.04879e-07
-0.00726445
9.77866e-07
-0.000487532
2.19943e-07
2.18678e-07
-7.17963e-08
-1.81407e-08
9.00074e-07
1.16296e-07
2.13967e-06
-6.09637e-08
0.000310891
-4.12966e-08
-8.89604e-08
-0.000510265
-3.57824e-08
2.51442e-07
-1.22685e-07
-6.12981e-08
-6.45899e-08
1.28882e-06
-2.14816e-09
0.00107391
-0.000863076
1.54476e-07
-3.82005e-08
6.56715e-09
2.68723e-06
2.22565e-05
-1.03481e-08
-8.28568e-06
-2.18535e-09
-1.53722e-08
8.6395e-08
1.68546e-08
1.61454e-05
2.64123e-08
3.09358e-05
1.50026e-07
1.2202e-08
-1.21728e-08
-6.65593e-08
-7.89299e-08
2.22681e-07
2.13616e-06
6.84703e-08
1.07631e-08
0.00377551
0.000598054
6.35028e-07
-4.94568e-08
6.39804e-07
5.76381e-08
-1.60474e-08
-7.42896e-08
0.00205584
-4.04331e-07
-2.46023e-08
2.56061e-09
0.00640589
3.88075e-07
-0.000696813
6.2337e-09
-9.04638e-09
0.000430964
4.23516e-07
-7.52312e-09
-0.00037086
2.53234e-06
-7.67622e-08
4.96365e-07
-7.7455e-08
4.09397e-08
-6.6534e-08
0.00156372
2.08865e-08
1.45801e-07
-1.73528e-08
-1.31176e-05
3.14795e-07
2.28649e-07
-2.45504e-07
3.4667e-08
6.33431e-08
-2.69564e-08
-0.000785441
-5.56311e-08
7.96747e-08
-1.1663e-08
2.8847e-06
-9.19702e-09
7.07246e-07
-0.000631692
0.000135873
-1.4046e-08
4.60235e-06
-0.000740759
-6.68215e-08
-1.73134e-05
0.002675
-0.000809634
-0.00130999
0.00402534
0.000221431
6.39789e-07
-1.39424e-07
-0.00299543
4.06119e-07
-0.00369054
5.43639e-09
-4.27772e-08
-1.51627e-07
-3.40653e-08
1.1982e-07
-3.06403e-07
0.000515072
-3.63055e-08
-1.80075e-08
-0.000175258
-1.17895e-06
-6.08928e-08
1.67909e-06
1.15489e-07
-3.56924e-09
4.51765e-06
7.7653e-08
-7.11586e-08
3.11793e-07
-0.00070157
-0.000563909
-4.04291e-06
6.26327e-08
1.40143e-06
2.96924e-07
-0.000761045
0.00597237
1.45148e-06
-1.27676e-07
-1.08581e-08
-3.67427e-08
3.30402e-08
-1.91754e-08
-2.11743e-08
1.92613e-08
-4.69538e-08
-0.000792157
8.88881e-07
1.4241e-07
7.42019e-07
0.00124297
-1.52644e-08
-7.08933e-08
0.00171662
5.85134e-09
-1.1868e-07
-1.55072e-07
-0.000869813
-3.30863e-09
-5.00358e-08
-0.00370201
3.98447e-06
5.34562e-06
9.27682e-07
3.18256e-06
-5.47886e-08
6.95989e-07
-6.92306e-08
-6.2395e-08
-5.19393e-08
-0.00403616
-0.000471547
1.28956e-08
-7.72322e-09
-1.34209e-07
-1.19237e-06
-7.19502e-08
1.53743e-07
-2.86062e-08
-1.15007e-07
1.32874e-06
6.72514e-08
1.37994e-07
-2.39859e-06
-0.00133021
5.52247e-09
7.60017e-08
-2.50412e-08
0.00192506
0.00110153
-3.45604e-08
-0.000562382
7.12669e-07
3.74091e-06
-7.55972e-09
-0.001306
-7.33923e-09
6.47261e-08
-2.56461e-08
8.09357e-07
-0.0020337
4.9443e-06
4.19523e-06
0.00284059
-7.50484e-08
1.80957e-06
1.94507e-08
-1.68282e-08
-0.00373465
-9.47009e-08
-3.73426e-09
1.5165e-08
-3.22932e-09
-0.000650944
-2.11066e-08
-5.01689e-08
9.17191e-07
4.54104e-08
7.96035e-07
8.3207e-07
2.63108e-06
-0.000366369
6.43143e-07
3.64228e-07
6.08159e-07
0.0021071
6.78226e-07
0.0182773
-0.00385479
2.11934e-07
7.03141e-08
-0.001104
5.38979e-06
-5.11406e-08
5.44801e-07
2.43655e-07
1.27838e-07
1.57978e-07
-2.71558e-09
4.17746e-09
1.05222e-08
6.64515e-07
1.39887e-08
-6.96233e-08
1.98526e-07
1.1184e-08
2.3621e-07
-7.36611e-08
1.56395e-08
6.45345e-07
7.04917e-08
2.53294e-08
1.62653e-08
3.12993e-07
2.00554e-07
0.000695702
-2.47269e-08
-6.76346e-08
8.67461e-07
-1.18693e-07
4.01381e-07
1.11574e-07
1.26907e-07
4.63348e-07
2.2327e-08
0.0219541
-5.22097e-08
6.42911e-07
0.00117405
4.22318e-08
-6.13991e-08
-7.53719e-08
-0.000524933
-5.33817e-08
-5.95527e-08
-0.000844735
0.00186286
-2.92769e-08
3.71834e-06
-4.85343e-08
2.47926e-08
-0.00376382
-4.57586e-09
-1.9638e-08
1.06919e-06
2.24446e-08
-3.81764e-06
-1.61323e-08
-2.67189e-08
-1.52671e-07
2.88652e-06
-0.000944571
-8.5673e-08
-1.47887e-07
-5.50803e-08
-4.84937e-08
-6.5658e-08
1.61722e-06
2.69978e-07
9.85856e-10
-3.25486e-05
9.78062e-08
5.33548e-06
-0.000440108
1.49319e-06
1.38425e-08
-6.65915e-08
-1.38347e-07
9.74408e-07
-9.20033e-08
-0.000873186
-0.000709413
-7.05769e-08
-0.00395153
2.97439e-06
6.83704e-07
3.2042e-06
-1.53357e-07
-7.3694e-07
-0.0014741
2.56547e-07
2.02025e-05
0.000723013
1.23907e-06
-7.0199e-08
0.00207704
-8.63092e-08
1.36365e-08
2.45017e-08
0.00594455
-9.13795e-09
-1.04505e-07
-1.72436e-07
2.6326e-07
-3.79221e-08
0.00175801
-3.36015e-08
0.000300765
6.13797e-07
5.92476e-06
5.30529e-07
1.5048e-06
9.86223e-08
1.31873e-08
-1.09989e-07
-0.000781959
-4.77638e-08
-7.37713e-08
-3.0818e-08
-3.17036e-08
-1.80016e-08
-3.81542e-07
3.2992e-06
1.67971e-06
1.58613e-06
-2.61933e-06
-0.00174164
-6.80456e-07
-4.63083e-09
1.97216e-06
-0.00347468
-3.81542e-08
-6.18978e-08
1.60932e-07
-0.000469072
3.13944e-09
5.18585e-07
6.76583e-07
-2.53405e-07
-5.02992e-08
1.80099e-07
3.28442e-08
5.22111e-07
-2.42979e-08
-7.02757e-08
0.000846818
-0.00270801
-6.97108e-09
-1.82415e-05
1.25207e-06
1.21366e-05
-1.00093e-07
7.81045e-08
-5.21134e-05
3.65624e-05
1.53144e-06
1.37093e-06
5.30888e-08
8.86955e-09
5.25585e-08
-6.89465e-08
-3.97177e-08
-4.931e-08
4.9865e-08
-5.22932e-08
1.90209e-06
-6.35021e-08
9.05179e-08
2.93379e-08
6.99214e-08
2.58621e-06
2.35193e-05
-5.81646e-08
1.38134e-06
5.27982e-08
-0.000208829
-3.36889e-08
2.41149e-07
-3.02435e-08
2.7339e-06
0.00192607
3.29079e-06
-5.96101e-08
9.96544e-07
-1.41107e-07
4.99937e-08
0.00263897
3.10694e-08
-5.67291e-08
7.71799e-08
9.25142e-08
-0.0041116
-5.61202e-08
-6.29358e-08
2.3435e-07
-5.27377e-08
3.32333e-07
-1.19705e-07
-6.31952e-08
-6.85173e-08
0.00188167
3.19026e-08
2.7669e-06
0.000196015
4.92326e-07
-0.0010857
2.93519e-08
-6.31144e-08
-3.01737e-07
0.000145721
2.21197e-07
-2.11148e-08
7.2549e-07
-0.000105694
-8.40991e-08
-4.00679e-05
2.20662e-07
5.67893e-07
-2.83803e-08
-1.39506e-08
3.85298e-06
-6.63907e-08
1.19459e-08
3.40457e-08
1.31031e-08
-4.81374e-08
6.95543e-08
1.38422e-06
-4.04418e-06
-0.00419193
3.36321e-07
1.34422e-06
9.98635e-06
-0.000429171
6.36417e-07
2.71066e-08
-0.000456333
4.00294e-07
-0.000544325
1.49481e-08
0.000748084
-0.000126856
2.35652e-08
-6.41968e-09
-5.83488e-08
1.09933e-07
3.50563e-08
4.56289e-08
6.12656e-08
1.29943e-06
-6.41804e-10
-4.0108e-07
0.00284049
-1.88055e-08
7.06011e-08
0.00425027
-1.87755e-09
-0.000453023
1.867e-07
-8.80921e-07
-8.59462e-08
0.000865544
-0.000654173
-1.45892e-07
9.88329e-08
-0.00124424
-4.9705e-08
-0.000268163
-6.89644e-08
2.07633e-08
-0.00325373
3.13289e-08
-4.13301e-07
-0.000425654
-1.80901e-08
3.42207e-07
6.68445e-08
-9.66428e-09
-8.32968e-08
-0.00251222
-0.00070675
-3.63243e-09
4.75888e-08
-8.1821e-08
3.22041e-08
1.81817e-07
0.00174467
-1.03039e-07
-1.51473e-06
-1.51157e-05
5.13513e-06
-1.8714e-06
2.25545e-08
2.30849e-06
1.20167e-07
-4.60291e-08
-3.62946e-08
1.14345e-06
0.0027087
-7.56167e-08
2.04328e-08
-0.000116499
6.22873e-06
-1.73323e-06
-1.09574e-07
-1.34779e-07
6.84535e-09
-7.05858e-09
-0.000633575
7.83413e-07
1.11714e-07
1.0037e-07
1.95483e-08
1.0811e-08
-1.0552e-07
-3.38676e-08
1.30658e-06
6.30973e-07
-4.13058e-05
6.62848e-07
-0.000671091
-0.00101435
-2.335e-07
6.9095e-07
-6.86367e-08
1.85164e-08
0.000629728
-1.05117e-07
-3.39794e-08
8.23478e-07
1.13989e-06
5.27803e-07
-0.00108324
3.72609e-06
8.3129e-09
0.00124221
-5.14696e-09
-1.16256e-08
-3.72271e-07
1.08823e-08
1.0006e-07
1.6627e-06
0.00113208
2.01047e-08
-0.00154097
-7.59934e-08
1.12561e-08
-3.1194e-08
-5.87029e-07
5.30603e-08
2.03676e-07
0.00556468
2.65634e-08
2.66623e-06
-0.00158773
-1.18085e-08
-1.52923e-07
-6.81278e-08
-0.000540981
5.54461e-07
-3.57447e-08
-0.00347487
6.38139e-07
6.9736e-08
1.52203e-08
-0.00063978
-2.93973e-07
-7.72733e-06
2.20527e-07
1.38895e-08
0.000410147
7.11624e-09
-5.94873e-07
-7.82231e-08
2.3523e-07
1.01136e-07
-1.30632e-08
-0.000515557
-9.70202e-08
1.26314e-06
2.96338e-07
1.41406e-06
-3.25288e-07
-1.48466e-07
-1.05434e-07
-7.51548e-05
1.01233e-07
-0.000437729
8.38917e-08
1.19167e-06
-2.55099e-09
3.18306e-08
-4.49145e-08
6.15406e-07
-0.000675678
-9.28947e-08
-6.65205e-08
6.40341e-06
-8.32516e-09
2.92487e-05
1.56535e-09
-0.00168925
5.86628e-06
6.28891e-08
-4.96187e-08
-5.66023e-08
-9.89855e-09
-1.66333e-08
5.43799e-07
4.15323e-08
1.43663e-07
2.70497e-08
-5.20644e-08
-1.36054e-05
4.60594e-08
9.51514e-08
1.54098e-05
-4.13483e-08
-0.00130301
7.87303e-07
4.73102e-07
-1.84048e-06
0.00248655
1.40951e-05
-0.000465443
-0.0411159
-9.08134e-08
-8.39495e-08
-0.000693769
-1.65092e-07
-2.67084e-08
-5.73662e-08
1.93378e-06
-0.00324811
-0.000574929
-4.88755e-06
1.96876e-07
-1.01088e-06
4.0825e-07
-0.00145997
-4.63288e-05
7.06874e-07
1.73047e-06
-2.2891e-08
9.52113e-08
1.34344e-06
-3.1444e-08
2.65188e-07
0.00465947
-1.29802e-08
2.40079e-05
1.88522e-09
4.08182e-08
0.00163057
0.00308763
-6.80462e-08
2.16286e-07
2.16948e-08
2.09412e-08
7.99064e-09
9.4912e-07
1.77089e-07
-5.77613e-08
-4.46384e-08
7.07444e-07
6.00998e-08
4.64969e-08
1.84214e-05
-3.38732e-08
0.00397058
-0.00033952
0.00131954
-3.21345e-08
1.87198e-07
2.22887e-06
3.00056e-07
-0.00264017
1.05124e-06
0.00750915
-1.15948e-07
0.00493178
-0.00120152
-6.86759e-08
-5.24205e-08
3.5439e-07
-0.00094812
-0.00708631
5.64926e-08
-1.39636e-07
-0.00106142
1.09274e-05
0.000760242
2.32083e-08
-3.04467e-08
-4.12776e-06
-1.23821e-07
-0.000724192
-0.00088231
3.5053e-06
0.000606244
-4.9103e-08
-6.99825e-08
-7.34204e-08
-3.1356e-09
0.000523096
6.6255e-07
2.40583e-07
-1.64212e-08
-1.93008e-07
-0.000618679
7.01202e-07
-0.000195389
-0.000224644
-0.000244034
1.83836e-06
-3.61153e-08
-2.47978e-08
-0.00110717
-2.38211e-08
1.47128e-08
-1.2142e-07
-6.42028e-06
3.85914e-07
-0.00118791
5.25481e-07
-4.75604e-08
0.00732756
1.59461e-07
-1.69111e-08
-0.000281222
-3.0829e-07
-3.46123e-07
8.8322e-08
-0.000156374
-2.07872e-05
-5.23952e-09
0.00294082
-2.56218e-05
-0.000564508
-0.000332705
7.3273e-08
-1.00367e-07
6.79028e-09
2.81694e-05
5.02988e-08
-0.000481864
1.52936e-07
0.000423152
1.58077e-06
-4.62145e-08
-3.85923e-08
-1.20804e-07
-9.57756e-08
-0.00090839
-0.000299197
-9.38171e-09
-0.000357083
7.24712e-07
-1.49528e-07
-6.77454e-08
-5.52682e-08
2.74521e-07
1.80594e-08
7.37021e-06
-2.63402e-07
-1.04795e-07
-8.23486e-08
4.37049e-07
0.00138273
4.02535e-07
-2.30194e-08
1.26321e-07
-4.31416e-08
-6.01992e-09
2.13565e-07
-0.000588335
-0.000704606
-0.000714006
-4.59646e-08
-7.47396e-08
-1.25274e-07
2.51739e-06
-6.74585e-08
-1.16196e-07
1.90614e-06
8.61085e-07
2.30365e-06
2.34005e-08
0.000928614
-0.000787556
-6.55543e-09
-0.000408163
1.4274e-06
6.29056e-07
4.61571e-06
-1.33477e-07
-0.000620259
-2.47023e-08
-1.05839e-07
-5.12904e-08
-1.78765e-08
4.45128e-06
1.90985e-07
2.0787e-07
-3.53818e-07
-0.00103453
-0.00100677
-1.27847e-09
-8.34315e-08
1.47603e-08
4.79531e-09
4.91833e-07
-5.83193e-08
3.67517e-07
3.74976e-08
0.00253668
1.13984e-07
-0.00323139
-4.12163e-08
0.00786819
1.54058e-08
-1.29224e-08
-0.000119571
7.5859e-07
-3.17135e-07
2.6631e-06
-4.56173e-08
4.88536e-07
-3.41592e-08
-0.000246549
-1.17642e-08
-6.17167e-08
1.3965e-06
8.88101e-07
-0.00105164
-0.000889814
6.88393e-07
0.00208289
3.9571e-07
-2.94048e-05
6.759e-08
3.79572e-08
2.50263e-07
0.00380385
-6.58822e-08
0.00140445
-7.72128e-05
9.41213e-08
-5.4498e-08
-1.32453e-07
2.04334e-05
-1.92396e-06
2.90705e-08
-4.01062e-08
-5.53526e-08
7.0818e-08
4.20067e-07
7.25191e-07
4.50296e-06
-5.73483e-08
-2.04428e-06
1.12794e-07
0.000795339
4.57404e-07
-5.02774e-08
1.94683e-08
0.00725612
-7.76463e-08
3.97562e-07
-0.00169103
-1.27667e-07
2.48711e-08
1.59525e-06
-1.42284e-06
-9.36219e-08
0.000567163
3.09511e-08
7.15934e-07
6.58058e-07
-6.22156e-08
4.52841e-08
-0.000383522
-6.82725e-08
-1.93644e-07
-1.35966e-06
-0.000869376
2.88059e-07
-4.89401e-09
2.3421e-07
-1.21019e-07
8.3956e-09
-0.000840304
2.16491e-07
2.73972e-08
1.1949e-07
-4.88895e-08
6.25243e-10
-1.21286e-05
-3.66276e-08
-4.12869e-08
-1.32148e-07
1.49011e-06
-5.28316e-08
5.78191e-08
1.24531e-06
-6.50703e-08
2.80678e-07
7.80773e-09
9.81914e-07
9.77952e-07
3.71128e-07
1.96e-07
6.57218e-08
1.28065e-06
0.000128268
1.68668e-06
9.96778e-10
-0.0100447
-0.00328006
1.03986e-09
2.36719e-08
-1.85224e-08
7.90702e-07
2.00258e-07
7.96555e-08
-2.9519e-06
0.00231397
-7.64066e-08
-5.14977e-08
-0.00108181
-0.000179023
9.04998e-07
-2.2695e-08
0.00219333
-0.00109596
9.2663e-06
-5.18134e-08
0.00416884
1.10564e-06
3.89609e-08
-0.000949812
5.80352e-08
-1.90442e-08
1.51045e-07
6.46953e-07
2.84856e-07
-0.00271886
0.00158524
-6.56235e-08
-8.76374e-05
4.25473e-07
-0.000811076
-3.59186e-08
1.1117e-06
-3.24105e-08
-1.08578e-07
0.00124871
4.57924e-06
2.06323e-07
2.30032e-05
1.01531e-07
3.39238e-07
9.88422e-08
-0.00047265
-0.000372031
-2.74319e-08
1.20906e-09
-5.40129e-08
6.91743e-08
7.23316e-07
-0.00199766
-0.00180987
4.10676e-07
1.66917e-08
1.01684e-07
0.00281793
-6.76572e-08
6.1179e-07
-5.06278e-08
-1.15587e-07
3.25914e-06
1.21754e-05
2.3199e-06
1.30671e-06
-2.61427e-08
-2.56638e-07
1.56023e-07
1.20032e-08
0.00735533
-0.00044687
-3.61344e-08
1.88481e-08
5.92252e-07
-3.49757e-08
-5.68447e-08
0.000948431
0.00307388
-9.43756e-10
3.49066e-08
-4.76732e-09
-5.60651e-08
9.7251e-07
1.67407e-08
-0.00181173
5.90674e-07
7.97872e-07
-1.32667e-08
-2.30879e-07
0.00176084
4.02225e-07
-2.88279e-08
-0.000750955
-1.30815e-07
0.00109134
2.2236e-08
-5.52549e-07
1.99574e-07
-0.000147302
-0.000793123
1.05108e-06
-8.68382e-08
9.37422e-07
2.09045e-08
-5.29359e-08
-6.75006e-08
-0.00151258
-5.78569e-08
-0.000197513
5.59468e-06
4.77995e-07
-1.63975e-08
1.48596e-06
1.19605e-07
4.49297e-09
-4.32824e-06
-1.3016e-08
6.11203e-07
2.28042e-07
-6.60747e-08
-0.00106814
-8.77415e-08
-2.49992e-06
-1.06129e-07
-5.57606e-08
-0.00073974
-0.00049143
-5.22148e-08
2.61313e-07
6.72349e-07
-2.06166e-07
1.11446e-06
2.80082e-07
-4.66959e-08
6.21036e-08
4.20662e-06
-5.82113e-08
-0.00215873
2.38815e-07
4.17892e-06
2.11809e-06
4.02012e-09
0.001096
-2.00245e-08
-0.00273631
-5.2046e-08
-0.000610662
-2.70953e-06
0.0276934
0.00160615
-2.61632e-06
1.708e-07
6.94265e-08
-0.0020923
-9.12131e-08
-3.82685e-08
-0.000594847
9.43878e-05
-7.48657e-08
1.25299e-07
7.76154e-08
7.55358e-08
3.95844e-07
0.00181295
-5.74469e-09
4.65688e-07
5.68924e-07
-2.53063e-07
-3.10614e-08
1.72451e-06
-1.57585e-09
-0.00263332
-9.27101e-08
2.96354e-07
1.27775e-07
4.2439e-07
-3.83994e-08
-1.07419e-05
1.88566e-07
-7.82782e-08
7.22123e-07
-0.00381575
0.00290961
3.97444e-08
-0.00107214
1.77029e-07
2.3987e-05
-6.94844e-09
-7.91289e-08
0.000420145
8.95348e-07
-0.000611121
-0.000404923
-2.33177e-08
0.00683032
-1.37223e-07
1.94483e-10
-0.000190543
5.48286e-07
-7.20098e-08
0.00361936
3.53298e-08
-5.55294e-08
-2.61925e-07
-3.1226e-09
1.00174e-09
-4.58729e-05
6.95485e-05
-0.000146002
-3.64916e-07
5.44851e-08
-1.59483e-07
-0.000654427
-8.79266e-08
-1.10454e-07
1.01546e-07
-1.68137e-08
4.52662e-07
-0.000701103
-0.00028725
0.0006568
9.95518e-07
3.35752e-08
0.00449696
-9.93146e-09
1.25859e-06
-3.4509e-09
0.000809032
-1.43414e-08
1.48999e-07
-0.000232751
4.5695e-07
-6.17907e-08
-2.84319e-07
-0.000745395
-5.54882e-08
1.87523e-06
-2.42276e-08
0.000358819
0.000831176
1.41557e-06
1.07604e-07
-6.46393e-08
5.13389e-06
2.70605e-06
4.02092e-07
-2.38091e-08
9.61744e-08
-5.29934e-08
1.02549e-06
-1.71927e-08
1.71212e-06
-6.56468e-08
6.18555e-09
0.00480147
-9.5311e-10
3.82156e-08
2.04177e-07
1.06122e-08
-0.000606626
-3.66101e-08
-8.83313e-08
0.00256239
8.29145e-07
-0.00146371
-5.24062e-08
-0.000456512
8.80131e-07
0.00430688
-3.31296e-08
1.92342e-06
1.42141e-07
4.79655e-07
2.35334e-06
2.41676e-06
6.40029e-07
0.00344727
1.14468e-06
1.4793e-05
1.80347e-08
1.95313e-06
-2.76768e-07
-2.27556e-05
-7.70362e-08
1.47824e-07
-4.2568e-08
9.91248e-07
-1.76838e-07
4.64598e-06
6.89692e-07
-0.000651675
6.66515e-06
-9.78949e-07
-1.39968e-07
8.03898e-06
-1.38617e-07
-5.83176e-08
-6.01318e-08
-6.57066e-08
2.74204e-05
-4.33275e-08
-0.000123161
-1.46099e-08
2.22224e-07
-0.000285752
-1.94395e-07
-4.66572e-08
-3.99455e-08
0.00182473
-5.72844e-08
-8.80227e-08
6.189e-08
6.87209e-09
7.02403e-08
-1.50253e-07
3.62157e-06
2.3389e-06
2.15286e-07
1.76214e-06
-0.000951222
-0.000461646
0.000789699
-5.087e-08
-4.73882e-08
-1.43404e-07
2.90656e-08
7.93451e-07
-0.00107789
0.000440426
-1.828e-08
-3.03947e-08
-0.0015474
1.97398e-06
-2.58886e-08
-7.47291e-08
-3.51554e-08
0.000785087
-0.00345857
3.96816e-08
6.35673e-08
-8.81193e-09
1.76379e-06
2.54006e-06
8.81787e-08
-8.79676e-08
-4.2688e-08
-3.41109e-08
2.22411e-07
-3.24346e-06
-4.49708e-08
-2.40064e-10
4.41681e-08
-0.00312003
-7.88577e-08
-0.000508148
-4.18133e-08
0.00064297
-9.62206e-09
2.77542e-07
-6.40356e-08
-5.74692e-08
2.61768e-06
-0.00330834
2.00078e-06
-0.000765963
-0.000266085
-1.16635e-07
0.00331693
3.15888e-06
-1.49483e-08
2.04155e-05
3.63095e-06
1.39398e-06
7.36522e-09
-0.00128496
-0.000827593
6.19547e-08
-4.15614e-07
-0.000552807
-1.3865e-07
-1.28749e-07
-5.59841e-09
2.63987e-08
5.79668e-08
2.41539e-07
2.01688e-06
2.00221e-06
2.24522e-07
-1.83133e-08
-1.36205e-07
8.29872e-05
-4.4217e-08
1.06277e-08
-9.25993e-08
2.00925e-07
3.13061e-07
-5.0954e-08
-1.07272e-07
2.11046e-06
-5.82093e-08
-0.000289971
-4.39689e-08
0.000364553
-0.0016989
5.81534e-07
-1.51002e-07
1.32434e-08
0.00405547
-1.79499e-08
3.96278e-08
-4.90978e-08
6.41034e-07
-1.31035e-05
2.51289e-07
-0.000988957
-2.95075e-08
4.79223e-06
-2.42887e-08
1.12619e-06
2.65115e-08
-2.78145e-08
-0.000324238
0.000169172
3.28382e-05
1.56309e-08
8.98318e-07
9.70203e-07
-0.000635112
0.00372737
2.06227e-06
1.31763e-07
-8.60804e-09
0.00265173
3.81075e-08
2.76326e-08
1.70696e-06
2.22323e-06
7.6193e-08
-1.89232e-07
-2.67859e-07
-4.88393e-08
6.63361e-08
0.00727159
2.99843e-08
-5.88537e-08
-0.000446478
-8.5765e-07
-2.137e-08
-0.00121663
-5.93201e-08
-3.85756e-08
8.85494e-07
-3.65232e-08
-0.00165614
-3.52874e-08
-6.45571e-08
-7.40876e-08
8.33805e-07
-7.71831e-08
3.10826e-07
1.69034e-05
-0.00152971
-0.00110113
0.00087887
-1.58979e-07
0.00129142
9.91419e-08
-9.16258e-09
-1.95392e-07
4.12931e-07
-7.31339e-08
-3.50272e-06
0.00266166
-0.000875693
-0.00186081
3.83851e-06
-1.16522e-07
1.37202e-06
-6.21771e-08
-0.00035176
1.43323e-07
1.21914e-07
3.52623e-08
1.64274e-08
-9.93013e-08
1.13402e-06
-0.000954008
-5.31513e-08
8.10176e-09
-7.54726e-08
0.00243521
2.04996e-08
0.00596774
-0.000894799
-1.49907e-05
-2.14153e-08
-1.04538e-07
0.001657
1.43608e-06
-2.03132e-08
-4.16159e-06
1.24383e-10
6.44862e-07
-4.98939e-08
5.3794e-07
8.73606e-07
0.00144622
-4.80485e-08
2.59748e-08
4.3824e-06
-0.00120815
6.37289e-08
-1.64734e-07
-9.44959e-08
-0.000439306
-3.78424e-08
-8.29143e-08
2.26657e-08
-5.39205e-08
-0.000341487
0.00207414
1.77631e-06
7.90838e-07
0.00370114
-8.2381e-06
-2.39203e-08
3.15523e-07
-2.86695e-08
6.03457e-09
4.72905e-08
-8.06572e-08
-2.80236e-08
-6.0596e-08
1.74363e-08
0.000286027
1.71842e-07
2.49596e-06
4.93218e-08
3.57623e-07
1.95232e-07
-1.00895e-06
-5.49279e-08
2.87458e-07
5.73746e-07
9.82127e-08
0.00102956
-6.10357e-08
2.6397e-05
-7.0672e-08
-1.17001e-07
7.80938e-08
-4.93033e-08
-0.00119891
-0.000232573
4.14856e-08
1.68267e-08
1.44508e-06
2.24738e-06
-6.65856e-07
0.000393182
-1.3426e-07
3.55875e-06
3.46724e-07
-3.55512e-08
7.86396e-06
2.45107e-07
-0.00327564
-3.46776e-08
1.34367e-08
-3.89536e-08
0.00199363
-0.00131699
-2.51045e-08
1.26493e-07
3.29455e-06
-5.9792e-08
1.76771e-08
-6.15408e-08
8.02349e-07
0.00296081
3.34299e-08
2.71652e-07
2.09994e-07
-5.30997e-08
-6.66387e-08
1.90559e-08
-5.79371e-08
3.53964e-07
-5.59904e-08
1.2058e-06
1.07534e-05
1.50539e-07
-2.14337e-08
-0.000663267
9.83603e-07
-5.45485e-08
6.69964e-09
2.40438e-07
4.86849e-06
2.07158e-08
0.00446168
1.73487e-07
-1.41524e-07
1.01648e-07
2.83827e-07
2.20663e-08
0.00680332
1.13705e-06
4.83454e-07
5.91883e-06
-1.24751e-07
-2.73724e-07
1.48033e-07
4.63957e-07
-5.70157e-08
-8.98776e-08
-1.43348e-08
-1.51705e-06
1.0809e-06
1.06897e-06
-0.000475313
-0.000694931
-0.00121496
6.9652e-09
1.49748e-06
-0.00248004
0.00309885
-3.25582e-08
-1.45825e-07
8.06393e-07
-0.00402316
-8.61966e-08
5.12756e-07
-0.000487829
0.00203994
0.000324139
-1.14677e-06
2.11476e-07
-0.00149219
4.85534e-05
1.02176e-09