/*--------------------------------*- C++ -*----------------------------------*\
| =========                 |                                                 |
| \\      /  F ield         | OpenFOAM: The Open Source CFD Toolbox           |
|  \\    /   O peration     | Version:  v2012                                 |
|   \\  /    A nd           | Website:  www.openfoam.com                      |
|    \\/     M anipulation  |                                                 |
\*---------------------------------------------------------------------------*/
FoamFile
{
    version     2.0;
    format      ascii;
    class       volVectorField;
    location    "50";
    object      U;
}
// * * * * * * * * * * * * * * * * * * * * * * * * * * * * * * * * * * * * * //

dimensions      [0 1 -1 0 0 0 0];


internalField   nonuniform List<vector> 
13917
(
(1.07754 0.0820427 0)
(1.01105 0.0273342 -7.12872e-22)
(1.02965 -0.0382274 -2.62326e-20)
(1.02783 -0.0110651 1.08786e-20)
(0.996045 -0.0010427 1.2584e-20)
(0.360253 0.0424271 0)
(0.967399 -0.0294864 1.59991e-20)
(1.03346 -0.0481207 -1.11825e-20)
(0.990343 -0.122847 -7.24051e-21)
(1.12189 0.099638 0)
(1.04017 -0.0426741 -1.35073e-21)
(1.04203 -0.0345012 0)
(1.02791 -0.0116244 -2.99606e-20)
(0.389974 -0.00830472 0)
(0.967282 0.0704378 -2.94628e-20)
(0.988234 0.0653841 -5.92359e-21)
(1.0064 0.0312492 -1.32712e-21)
(1.08741 -0.012778 0)
(1.04168 -0.0343188 1.08387e-21)
(1.00103 0.00329688 -4.06062e-21)
(0.999966 0.000732904 -1.27406e-20)
(0.947898 -0.0302408 -1.82981e-20)
(1.00028 0.00500321 4.3172e-21)
(1.03771 -0.0470346 -8.65782e-21)
(0.993446 0.00776602 0)
(0.936659 -0.0245106 1.89304e-20)
(0.783378 0.0118099 0)
(0.759808 0.0990818 3.50593e-20)
(0.755639 0.550144 -7.09741e-21)
(1.15669 0.0285814 7.26557e-20)
(1.08829 0.0704057 0)
(1.0433 0.0606656 6.27197e-21)
(0.837671 0.0459853 0)
(0.910153 -0.0196562 6.32923e-20)
(0.990302 0.00426295 0)
(1.03364 -0.0377978 0)
(1.00027 0.0047442 -4.94219e-22)
(0.562507 -0.0392465 0)
(1.03047 -0.015763 1.22431e-20)
(0.579452 -0.0154513 -1.29936e-21)
(1.00596 0.000525031 -1.27119e-22)
(0.999988 0.00033955 6.46834e-21)
(1.01316 0.00131612 2.41757e-21)
(0.708039 0.18262 -8.32682e-20)
(1.0239 0.0141375 -4.65833e-21)
(0.891295 -0.00674657 1.87732e-20)
(1.08485 -0.0132338 0)
(1.07383 -0.035198 9.13303e-21)
(0.105421 0.132167 0)
(1.00252 0.000548409 0)
(1.05076 -0.000237371 0)
(0.964572 -0.00489073 1.47649e-20)
(0.0749848 0.112058 0)
(0.905503 -0.0186216 -1.18487e-19)
(1.00537 0.0319584 0)
(1.05533 0.0166552 2.26494e-21)
(1.04076 -0.0431492 0)
(0.9919 0.0179881 -8.77034e-21)
(1.04674 0.0240362 0)
(1.02304 0.0139977 0)
(0.950306 0.0322129 0)
(1.01223 0.0273725 6.36322e-22)
(0.266548 -0.0080139 1.96248e-22)
(1.00108 0.00354168 5.37231e-21)
(0.387036 0.053793 0)
(1.25971 0.366686 0)
(0.995458 -0.00521094 -2.71551e-20)
(0.988077 -0.00941104 7.1144e-21)
(1.05923 -0.0621721 1.02626e-21)
(1.05064 0.0999812 -8.88072e-23)
(0.996433 -0.000631705 -5.91705e-21)
(1.02479 -0.125525 0)
(0.188639 -0.0506987 2.4147e-20)
(0.994075 0.00763672 0)
(0.109314 0.206529 0)
(1.04007 -0.0375547 0)
(0.236072 -0.0274288 1.678e-20)
(1.03339 0.0138043 -5.21019e-21)
(0.908589 -0.02305 -1.95643e-20)
(0.999865 0.00142503 -5.00021e-22)
(0.999999 0.00226913 1.2787e-22)
(0.996009 -0.00474153 1.36604e-20)
(0.408075 0.116523 0)
(0.602014 -0.0441215 0)
(-0.0228422 0.0231603 -8.52785e-20)
(1.03259 0.0131247 4.26881e-21)
(1.00019 0.00288853 -2.86833e-21)
(1.33125 0.410916 -2.84773e-20)
(1.04951 4.76659e-05 0)
(1.01339 0.00129919 -2.0192e-21)
(0.355839 -0.059569 0)
(1.15118 0.0717745 0)
(1.01403 0.0146698 0)
(0.96988 0.0347043 -2.10772e-20)
(1.29528 0.417907 0)
(0.385677 -0.0197912 0)
(1.05099 -0.0477012 0)
(1.07847 -0.0293647 -1.16332e-21)
(1.04241 -0.0365819 -2.4547e-21)
(0.612098 0.111196 1.186e-19)
(1.00759 0.00363641 5.4825e-22)
(0.844474 -0.0216743 -9.23531e-20)
(0.697191 0.168142 0)
(1.03711 0.00796842 -2.21606e-22)
(1.01049 0.00762872 1.7783e-22)
(1.03939 -0.137561 7.3544e-21)
(0.833657 0.483252 1.70413e-20)
(1.0748 -0.0368644 5.32323e-20)
(1.00782 0.0316061 1.24591e-21)
(1.09125 0.0833727 2.84139e-20)
(-0.0651458 -0.0286517 -6.25409e-20)
(0.596083 -0.0152798 8.51275e-21)
(1.04203 -0.0361214 0)
(1.01481 -0.134679 0)
(0.947498 -0.00888893 -9.66174e-21)
(0.0825309 -0.120922 -1.6539e-19)
(0.999162 0.00854972 1.56869e-20)
(0.200872 0.0870699 1.22227e-19)
(0.562575 -0.0122411 0)
(0.906587 -0.00606251 1.20458e-20)
(0.999982 0.000647668 3.35255e-21)
(1.061 -0.06205 0)
(0.544595 -0.0161361 6.40929e-21)
(0.768401 0.092242 2.65438e-20)
(1.0037 0.000476328 1.29075e-21)
(0.971331 0.0325779 9.64508e-21)
(1.02111 0.0170864 -1.63994e-21)
(1.00345 0.000393704 3.06182e-21)
(1.01176 0.000994158 -1.88691e-21)
(0.36123 -0.00493918 0)
(0.653853 -0.0239407 1.23263e-20)
(0.949988 -0.00947856 -3.62754e-20)
(1.02416 0.0147777 4.07421e-21)
(0.999974 0.000574434 8.47092e-21)
(1.16284 -0.0962044 0)
(1.03755 -0.0455817 1.69759e-20)
(1.07604 0.0864512 -6.69836e-22)
(0.588182 0.112904 -1.50812e-19)
(0.995119 -0.00501641 3.81674e-20)
(0.907617 -0.0102097 -4.35973e-20)
(1.03322 -0.0401103 0)
(1.01537 0.0078438 3.08367e-21)
(0.960748 0.00583052 -5.14387e-20)
(0.660015 0.180746 -5.69229e-20)
(0.987399 -0.00927539 -3.75429e-21)
(1.07634 -0.120025 1.16643e-20)
(0.82808 0.551973 0)
(0.966461 -0.00407963 -5.30654e-22)
(1.01463 0.00659058 -7.19247e-22)
(1.03995 0.0689554 0)
(1.05707 -0.0309396 0)
(0.0910632 -0.154304 0)
(1.04684 -0.0383872 0)
(1.02097 0.144057 -9.75914e-21)
(1.05314 0.0372878 -3.22149e-20)
(0.00173695 0.0733542 -1.89337e-19)
(1.04608 0.098338 0)
(1.03081 -0.0640223 0)
(0.204467 -0.0195173 -1.76098e-20)
(1.16937 -0.0938981 -4.5518e-20)
(0.937997 0.0240171 3.46906e-20)
(0.783024 -0.0485558 4.97011e-20)
(0.999988 0.00161306 -1.65237e-21)
(1.05083 -0.046509 9.94405e-21)
(1.04216 -0.0360362 0)
(1.04215 -0.0366393 0)
(1.03666 0.00870029 -8.06989e-21)
(1.06567 -0.0311429 -1.361e-20)
(1.01979 0.0124495 -1.06531e-21)
(0.837553 -0.0260106 2.79215e-20)
(1.03841 0.135405 -1.53577e-20)
(-0.293265 0.00419496 4.57337e-22)
(1.04165 -0.0366146 3.06448e-20)
(1.00394 0.0382004 5.20949e-22)
(1.03818 -0.0970885 9.42261e-21)
(1.01294 0.164336 3.09004e-21)
(0.681551 -0.0268204 -5.17667e-21)
(0.163428 0.0898895 -1.31912e-19)
(1.06699 -0.114829 1.01053e-20)
(1.0064 0.0170293 0)
(1.15497 0.0653695 3.89902e-20)
(1.09273 0.0678449 -2.598e-20)
(1.01568 0.00750895 1.28426e-21)
(1.00016 0.00310127 -9.4163e-22)
(0.934085 0.0883664 3.58108e-20)
(0.983359 -0.0238445 -8.99668e-21)
(1.2335 0.0530052 -4.48401e-20)
(0.0870565 0.0746273 8.88205e-20)
(1.07733 0.0114482 -1.60172e-21)
(1.04151 -0.0366199 0)
(1.03242 -0.0500615 -1.46321e-20)
(0.0547532 0.0268543 -8.53164e-20)
(1.23723 0.0974997 0)
(0.999183 0.00451282 2.01143e-20)
(0.564989 0.0462846 -1.27847e-21)
(0.793958 0.0134862 -9.53816e-20)
(1.00504 0.000191691 -2.85295e-22)
(1.01411 0.0153502 0)
(0.891335 0.413081 0)
(1.2639 0.422226 1.11393e-19)
(1.04153 -0.00960852 0)
(1.00231 0.000488771 5.64416e-21)
(1.06199 -0.0288893 0)
(1.0562 -0.0303677 -5.40421e-21)
(0.145331 -0.0398058 -1.26046e-20)
(1.11096 -0.10545 -4.95528e-20)
(0.990711 0.00365803 0)
(0.991081 0.0186317 1.31305e-20)
(1.07619 -0.0294385 0)
(1.02055 -0.0282916 7.2769e-21)
(0.962958 0.00651919 3.70169e-20)
(0.962372 -0.0325784 1.56157e-20)
(0.0746742 -0.0230272 -1.31271e-20)
(1.04151 -0.0367716 5.45772e-22)
(1.01024 0.00779597 -1.15745e-22)
(0.505625 0.396665 1.83479e-19)
(1.07217 -0.0256469 5.57385e-20)
(-0.197166 -0.0145299 -1.17542e-19)
(1.0002 0.0115312 2.14252e-22)
(1.12897 0.053507 4.94518e-20)
(1.00626 0.0164139 -1.48211e-21)
(1.14201 0.00976801 0)
(1.00583 0.000654314 7.92391e-22)
(0.543434 -0.0487336 8.50065e-21)
(1.02602 -0.141151 0)
(0.989072 0.0683137 1.42865e-20)
(1.21435 0.420323 -1.5318e-19)
(1.05527 0.0359264 8.22835e-21)
(1.00984 0.0075212 0)
(1.03414 -0.0374158 -3.87569e-21)
(1.04151 -0.0366718 -1.43488e-20)
(1.07577 0.00993502 0)
(1.03723 -0.0415926 0)
(0.0443412 -0.0152563 0)
(1.00829 0.00189453 1.11195e-22)
(1.04605 0.0611569 0)
(0.406587 -0.0685619 -1.24476e-20)
(-0.0991091 0.0347615 1.14108e-19)
(0.999943 0.00177583 0)
(1.00402 0.00608921 0)
(0.621989 -0.0137289 0)
(1.05145 -0.051368 0)
(1.00003 0.000109389 0)
(1.03562 -0.0359406 8.7737e-21)
(1.10723 -0.0348268 -2.62975e-20)
(0.792771 -0.0537281 0)
(1.07331 0.069864 3.43239e-20)
(0.99999 0.00174812 0)
(0.978642 0.171592 0)
(0.116374 -0.0210316 2.44445e-20)
(1.02322 -0.000108603 0)
(1.17454 0.0767972 0)
(0.574631 0.157735 0)
(1.02095 0.0162379 0)
(0.991571 0.0167385 -1.95324e-20)
(1.04745 -0.0351441 1.23488e-20)
(0.649439 -0.0176588 -1.97884e-20)
(1.04712 -0.0377404 0)
(0.934943 0.0926589 -2.63696e-21)
(0.970356 0.0727515 1.56251e-20)
(1.00003 0.00019185 -3.64896e-21)
(0.519709 -0.0118268 0)
(1.17156 -0.141258 0)
(1.03962 -0.0324067 -6.75079e-21)
(1.00953 0.00766987 1.47315e-22)
(0.0473633 -0.0401404 3.66328e-20)
(0.402391 -0.0152819 1.03192e-20)
(1.02514 -0.063863 -7.69206e-21)
(0.888891 -0.0236145 1.95996e-20)
(1.04046 -0.0378234 0)
(0.999955 0.00211308 -6.5744e-21)
(1.00448 0.000568341 2.72174e-21)
(1.08228 -0.0162226 3.31241e-20)
(0.429568 -0.0415013 -1.93273e-20)
(1.07991 -0.0548351 -6.45617e-21)
(1.04539 0.0227121 0)
(1.11159 -0.108948 5.01035e-20)
(1.03604 -0.0307603 0)
(1.01172 0.000640048 0)
(1.2973 -0.0607193 -4.17295e-20)
(1.00133 0.00322235 -4.49095e-21)
(1.03972 -0.0961656 0)
(1.04056 -0.00907415 1.12463e-20)
(1.00006 0.000110811 1.77467e-21)
(0.992722 0.08293 4.7261e-21)
(1.01594 0.146136 5.02559e-21)
(0.783474 -0.0361037 -4.48304e-21)
(1.03524 -0.0360571 1.68159e-21)
(0.992 0.114677 2.33788e-21)
(1.02562 0.00352993 -7.80709e-21)
(1.1828 -0.0716043 8.68845e-20)
(1.03509 -0.0428561 8.00719e-21)
(1.11563 -0.144501 0)
(1.00006 0.011219 -1.88861e-22)
(1.02453 -0.0729828 0)
(0.998359 -0.00195087 -3.50826e-22)
(1.02553 0.00294203 -4.86021e-21)
(0.999399 0.00819147 -9.81468e-21)
(0.843311 0.5925 2.89011e-21)
(1.00121 0.00060243 7.77701e-22)
(1.14637 0.00788445 4.69619e-20)
(1.06949 0.0705403 -1.50023e-20)
(1.01954 0.0118461 -2.08086e-21)
(1.06106 -0.0300179 0)
(1.02368 0.0377904 4.51494e-21)
(0.111905 0.0510578 -2.62249e-20)
(1.01165 0.159583 -2.13728e-21)
(1.1451 0.0708136 0)
(1.01861 0.00790849 1.00694e-21)
(0.992334 0.0161739 1.87996e-20)
(-0.107792 -0.0214073 1.03181e-19)
(0.518888 -0.0157021 -1.16853e-20)
(0.99928 0.00896951 -8.96892e-21)
(1.00506 0.000583111 9.96073e-22)
(1.30744 -0.0543701 7.74918e-20)
(1.00895 0.0160556 0)
(0.232774 -0.0580947 -1.13648e-20)
(1.01809 0.00793882 3.97596e-22)
(0.5689 -0.0504042 -6.56517e-21)
(1.02466 -0.00586466 -1.17771e-22)
(1.21903 0.260178 0)
(1.0574 -0.011339 1.85088e-20)
(0.116153 0.279403 -3.41718e-20)
(0.941728 0.0240169 -2.11444e-20)
(1.17444 -0.086947 5.1981e-20)
(0.518816 0.287902 0)
(0.995368 0.080824 2.91332e-21)
(1.0529 -0.0518584 1.45797e-20)
(0.97782 0.486907 -1.76073e-20)
(0.990584 0.0283648 0)
(0.612243 -0.0294497 0)
(0.572585 0.025429 0)
(0.415206 -0.0180587 -1.19834e-20)
(0.920995 -0.000488094 -3.63995e-20)
(0.560438 -0.0137535 -2.64634e-20)
(1.05084 0.0586741 -2.08465e-20)
(0.0579419 -0.00858007 2.2372e-19)
(0.536466 0.266048 -7.84341e-20)
(0.93256 0.318964 -1.59524e-20)
(0.94806 0.312912 9.5239e-21)
(1.00309 -0.0383057 1.6209e-20)
(0.999672 0.00158555 0)
(1.04457 0.137548 5.00793e-21)
(-0.00529525 -0.0333682 1.73416e-19)
(0.979905 0.0161209 0)
(0.994398 0.0509592 5.57104e-21)
(0.432216 -0.0156532 0)
(0.880048 0.448527 1.17047e-20)
(1.008 0.0357338 0)
(1.03302 -0.0498206 -1.33922e-20)
(0.723 0.524067 2.401e-20)
(1.00638 0.0032554 0)
(0.538991 -0.00944591 6.53041e-21)
(1.03235 -0.0424773 -5.1224e-23)
(1.00141 0.00345353 7.88834e-23)
(1.00596 0.00838682 3.79539e-21)
(0.998555 -0.00192313 3.07666e-22)
(1.01486 0.00630949 1.13146e-21)
(1.17588 -0.0716317 -3.462e-20)
(1.05634 -0.108791 0)
(0.379833 -0.28938 6.85652e-20)
(-0.0482593 -0.0266749 -3.024e-20)
(0.996415 0.00825584 -1.186e-22)
(1.18122 0.0743962 0)
(-0.196635 0.0344535 1.35463e-19)
(1.0604 -0.0208909 9.79183e-21)
(0.942588 -0.0324253 -1.30577e-20)
(0.474449 -0.04957 -2.74942e-20)
(1.00187 -0.138792 -4.05654e-21)
(1.00897 0.00345224 0)
(1.03973 -0.0326318 -3.1028e-21)
(1.00681 0.00801337 8.76703e-22)
(1.24295 0.0573287 -1.04831e-19)
(1.0225 0.014571 1.70431e-22)
(0.0904252 0.327321 3.58384e-20)
(1.11076 -0.0345182 -4.43814e-20)
(1.0338 -0.011154 -1.51363e-20)
(0.999494 0.00177166 1.13538e-20)
(1.07528 -0.0275773 0)
(1.16086 0.0648865 -2.57353e-20)
(1.0928 -0.0291843 0)
(0.342712 1.10442 -7.0591e-20)
(-0.0172643 -0.00714534 -8.28245e-20)
(-0.237395 -0.00835198 2.00466e-19)
(0.984011 0.178829 4.11715e-21)
(1.1155 0.0980155 0)
(1.00384 0.00581501 -1.3091e-21)
(-0.0622988 0.034659 -6.29831e-20)
(0.921483 -0.0279125 2.86733e-20)
(0.994933 0.0211093 -7.14505e-22)
(1.17893 -0.0830969 -3.82471e-20)
(0.994729 0.00478156 0)
(1.12153 -0.0865002 0)
(1.02486 -0.00553574 1.20239e-20)
(0.999757 0.00137839 1.35492e-20)
(1.02024 0.0405398 0)
(0.891035 -0.0275906 1.48507e-20)
(1.01885 0.0408764 7.41666e-22)
(0.674263 -0.0189686 0)
(-0.0114362 0.0422282 2.46016e-19)
(1.04082 -0.0395639 -3.3248e-20)
(0.449397 0.270276 -2.60316e-19)
(0.992141 0.0282094 8.9505e-21)
(0.506197 0.353286 -1.37694e-19)
(0.476704 0.294231 1.36765e-19)
(1.00091 0.00651502 0)
(0.844622 0.451342 -1.0651e-20)
(0.981326 0.0161216 0)
(0.993287 0.00581097 0)
(1.15705 0.0335853 -3.67731e-20)
(1.00006 0.00028612 0)
(0.992376 0.00694135 -2.10086e-21)
(1.00699 0.00787468 -1.10536e-22)
(1.17109 -0.0656729 -9.92367e-21)
(0.999922 0.00116205 5.16296e-22)
(0.579333 -0.0141656 3.13818e-20)
(0.990234 -0.0252045 2.94631e-21)
(-0.134671 0.0271825 -5.01645e-20)
(1.23425 0.105279 5.44431e-20)
(0.695788 -0.0198744 -7.24207e-21)
(-0.141989 -0.0201951 0)
(1.05902 -0.0206547 0)
(0.996848 0.00794259 -6.26694e-23)
(1.13407 -0.0524452 0)
(1.03057 -0.0149156 -1.73109e-20)
(1.05046 0.0650275 -1.69108e-20)
(0.999099 0.00479724 -9.23541e-21)
(1.067 -0.114073 -1.06689e-20)
(0.981617 -0.0290105 8.21301e-21)
(1.02809 -0.0251848 -2.45818e-21)
(0.978189 0.0643908 1.20239e-20)
(1.10497 -0.0440536 4.75512e-20)
(0.924394 -0.0030834 -5.8953e-21)
(1.03108 -0.0162723 1.21494e-20)
(1.09044 -0.0292196 0)
(1.00909 0.0425638 -5.9911e-22)
(1.0412 -0.0322264 3.83484e-21)
(1.00874 0.0307007 0)
(1.00119 0.000709138 -8.71335e-22)
(0.288731 -0.0693899 -1.06818e-20)
(0.670127 -0.0252746 -2.86512e-21)
(0.694404 -0.0262119 -2.77703e-21)
(1.17153 0.149448 1.1047e-19)
(-0.151662 0.0256481 3.78348e-20)
(0.650222 -0.0328807 0)
(0.123632 -0.0614843 0)
(0.313164 -0.0240025 1.08407e-20)
(1.0113 0.00109906 -6.25385e-22)
(1.07984 -0.0231824 -5.46849e-20)
(1.01077 0.0424218 0)
(0.988902 0.0187228 0)
(1.12212 -0.102106 6.28206e-20)
(1.08423 -0.015888 -3.75278e-20)
(1.01213 -8.2166e-05 0)
(1.11039 0.00331096 2.78317e-21)
(1.06122 -0.0175805 -5.65934e-20)
(0.330828 -0.0234225 -5.45983e-21)
(1.00098 0.00675247 4.27316e-21)
(1.0629 -0.0514497 1.13989e-20)
(0.0599124 0.0591644 1.12752e-19)
(1.2449 0.273379 1.77828e-20)
(0.598517 -0.0148016 -1.7062e-20)
(0.99993 0.00100747 -2.76562e-22)
(0.993901 0.0213504 8.328e-22)
(1.0077 0.000260168 1.28562e-22)
(1.04191 0.10231 0)
(1.00894 0.00319405 4.83052e-23)
(1.01481 -0.0232841 -2.37157e-20)
(0.392079 -0.250697 -6.34122e-20)
(0.994495 0.109613 2.09515e-21)
(-0.00813625 0.0441106 1.02127e-19)
(1.05449 0.0149951 -1.70468e-20)
(1.04932 -0.0461462 0)
(0.203525 -0.0702004 0)
(0.849611 0.551096 -6.05493e-21)
(1.04107 -0.0391429 8.01695e-21)
(1.03285 -0.0406045 0)
(1.06129 -0.0518087 6.27124e-21)
(1.1148 0.0183784 -2.06453e-20)
(1.11514 -0.0601793 -2.11141e-20)
(1.04576 -0.0269002 1.98907e-21)
(1.03996 -0.0370233 -2.60192e-21)
(0.377745 0.0974879 0)
(1.04228 -0.030285 1.6012e-20)
(1.06979 -0.0414858 -2.46708e-22)
(1.00986 0.000428646 -2.79333e-22)
(1.15025 -0.0998437 2.30656e-20)
(1.05319 0.00107027 0)
(1.0178 0.00127954 1.87611e-21)
(1.03768 0.0997781 6.27934e-21)
(1.03471 0.0122145 1.14432e-20)
(0.333489 -0.0258364 -1.30694e-20)
(1.03195 -0.133678 0)
(1.00855 0.015396 0)
(1.01166 0.000519095 0)
(1.03909 -0.0260814 1.91736e-20)
(-0.174392 -0.0131344 1.81638e-20)
(1.00005 0.000217385 3.58622e-21)
(0.571344 -0.0135401 0)
(1.03208 -0.00155553 0)
(1.21699 0.0871996 -1.97383e-20)
(1.00791 0.0166863 -8.19333e-22)
(0.0686779 -0.036421 -2.01376e-20)
(1.05371 -0.0895693 5.79195e-20)
(1.04215 0.0666907 0)
(1.02298 0.0235651 7.76796e-21)
(0.726457 -0.0209053 6.21531e-21)
(1.22506 0.054478 4.45064e-20)
(-0.267288 0.0247168 -1.37144e-19)
(1.00004 0.000258835 0)
(0.100851 -0.0250783 -2.14259e-20)
(0.134617 0.0508026 1.50107e-20)
(1.30886 -0.0429499 7.1624e-20)
(1.01794 0.00153566 1.14676e-21)
(-0.0740374 0.0262005 9.42919e-20)
(0.86278 -0.132896 0)
(1.05754 -0.0222962 -7.22412e-21)
(1.00633 0.00838145 -2.85031e-21)
(1.0015 0.0314953 0)
(1.03946 -0.0384648 -1.21648e-21)
(1.12242 -0.0912395 0)
(1.01245 -7.46914e-05 -1.08681e-25)
(1.00571 0.00797741 -1.08118e-22)
(1.00359 0.00167394 0)
(1.00382 0.00174266 0)
(0.0112733 -0.0330894 0)
(1.12626 -0.100294 0)
(1.05787 -0.021454 0)
(1.22838 0.0397058 -1.74591e-19)
(1.00452 0.000443726 -4.0478e-21)
(1.00731 0.00346759 2.12608e-22)
(1.10164 -0.0434939 -6.31436e-20)
(0.690151 -0.123574 2.07924e-20)
(1.07282 0.0220702 1.94492e-20)
(1.02049 0.0125043 0)
(0.993534 0.00624318 0)
(0.992319 -0.006387 -2.48297e-20)
(1.30459 -0.0509258 -1.1634e-19)
(0.137024 0.0283367 2.24066e-19)
(1.00033 0.00277806 1.49812e-21)
(0.992326 -0.00335516 5.83241e-21)
(1.0404 -0.0326571 9.87195e-21)
(1.04637 -0.0262346 0)
(1.05638 -0.0119605 -5.68652e-20)
(0.993186 0.0201716 1.24322e-20)
(1.01673 0.0432908 0)
(1.0302 0.067132 7.38254e-21)
(1.06826 -0.040736 -2.16247e-20)
(0.971979 0.460388 6.25921e-22)
(1.23491 0.0469607 5.06274e-20)
(1.13262 -0.0564028 -6.46669e-21)
(1.08485 -0.046436 -2.79355e-20)
(1.10582 -0.107001 -3.90481e-20)
(1.14309 0.0645392 -3.9252e-20)
(0.999465 0.0107646 -3.29274e-21)
(0.127771 -0.0269692 -2.1034e-20)
(0.992699 -0.00672693 2.1188e-20)
(0.994857 0.0533354 -7.4192e-22)
(1.03652 -0.00683041 0)
(1.14611 -0.100366 -2.24833e-20)
(0.998435 0.251814 4.23318e-21)
(1.0069 0.000772306 0)
(1.24442 0.261526 0)
(1.16277 0.0188018 -2.39166e-20)
(-0.0520063 0.0367348 -1.01669e-21)
(1.08712 -0.0458061 0)
(0.887803 0.10987 -2.03007e-20)
(1.06233 -0.0187117 4.1794e-20)
(0.99935 0.00184857 -1.20142e-20)
(1.05113 -0.144914 -3.29591e-20)
(1.23034 0.252179 0)
(0.869901 -0.0445178 -2.35913e-21)
(1.00835 0.0290813 0)
(1.0632 0.0165418 0)
(1.23004 0.0343139 8.55652e-20)
(0.488945 -0.0542697 1.95219e-20)
(-0.0997052 0.00205749 4.60066e-20)
(1.07934 -0.0314387 1.25609e-21)
(1.18048 0.149376 -6.60222e-20)
(0.984789 0.0646677 -8.11543e-21)
(1.03737 0.0350859 7.61456e-21)
(0.992132 0.0204249 7.63643e-21)
(0.893402 0.202466 -2.83888e-20)
(0.675251 0.162181 0)
(0.973546 -0.0160264 2.37353e-20)
(1.07017 -0.0256284 -2.09765e-21)
(0.573042 0.132528 0)
(0.889976 -0.0455479 0)
(-0.257507 0.0266826 0)
(1.01926 0.0509171 2.39061e-21)
(1.04904 -0.0451199 -1.31834e-21)
(1.05416 -0.0869728 -3.46658e-20)
(0.997049 0.0897594 3.57321e-21)
(0.966249 0.00883404 0)
(0.185129 0.542896 0)
(1.12054 -0.145255 1.71193e-20)
(1.05965 -0.10885 -2.08276e-20)
(1.2193 0.0235248 0)
(1.01169 0.0011291 1.51947e-21)
(0.549962 -0.0127095 -3.71408e-21)
(1.03958 -0.0377668 0)
(1.00688 0.000581117 -6.48369e-22)
(1.06765 0.04224 2.97754e-20)
(1.05668 -0.0389346 2.01294e-20)
(0.846975 0.0475745 -2.33423e-20)
(1.15244 0.0253438 -8.08885e-20)
(0.905833 -0.0241231 1.51745e-20)
(1.11197 -0.0586988 2.54934e-20)
(1.04483 -0.0244775 -1.72675e-20)
(1.05466 -0.14452 5.42633e-20)
(1.03671 0.0162624 1.1017e-20)
(0.283083 -0.0188309 0)
(0.999943 0.00157009 7.91841e-21)
(1.0003 0.00295432 2.57185e-22)
(1.02159 -0.0714859 0)
(1.11439 -0.145431 1.86882e-20)
(0.3824 0.229935 -3.48349e-20)
(1.0369 0.0151584 8.10831e-21)
(1.0051 0.0367131 6.37765e-21)
(0.992731 -0.00272801 0)
(1.03673 -0.0308991 7.5635e-21)
(0.0802251 0.171078 0)
(1.0421 -0.0367727 -3.70801e-20)
(1.03906 0.0350566 0)
(1.04166 -0.0390633 2.18208e-21)
(1.07313 -0.0276105 0)
(1.00767 0.0171617 -3.96385e-22)
(1.19557 0.432367 7.13878e-20)
(1.04215 -0.0370131 3.12996e-20)
(1.04652 -0.0329304 1.45119e-20)
(1.0014 0.0125813 0)
(1.10589 -0.0595072 0)
(1.03436 0.01347 1.13443e-20)
(0.0560409 0.0619094 -1.29369e-19)
(1.12648 0.0952942 0)
(1.00834 0.24408 4.31217e-21)
(1.06449 0.0176982 -1.98601e-21)
(1.00547 0.00188668 2.01787e-21)
(1.01705 0.00298543 3.48868e-21)
(1.02191 0.0173608 -1.98307e-21)
(0.978934 0.316116 -1.26468e-21)
(0.8897 -0.00179532 2.76716e-20)
(1.19166 -0.0378088 0)
(0.503719 0.807241 3.64733e-20)
(1.06675 -0.0298959 0)
(1.00607 0.00325594 -1.97628e-21)
(1.1207 -0.0547782 2.75422e-20)
(0.380297 0.26071 2.31974e-20)
(1.03209 -0.0408037 0)
(1.02294 0.000296285 0)
(0.89915 0.0113002 2.53305e-20)
(1.00536 0.00795952 9.05686e-22)
(1.03819 -0.0186032 0)
(1.04835 0.0233397 0)
(0.837707 -0.13137 0)
(0.999819 0.00150062 -8.50473e-21)
(1.25206 0.434942 9.54518e-20)
(1.03959 -0.0170513 -8.39856e-21)
(1.04008 -0.0417782 1.4438e-21)
(1.15144 0.0845066 3.67517e-20)
(0.153588 -0.0488408 -1.52067e-20)
(1.03047 0.23994 1.06271e-20)
(1.00131 0.0302404 -2.79859e-21)
(0.378369 -0.0395568 5.59384e-21)
(-0.116978 -0.00962086 0)
(1.00048 0.0225172 0)
(1.03576 -0.0071246 0)
(1.06237 -0.0960698 -1.99913e-20)
(1.21324 0.0284361 3.63179e-20)
(1.07801 -0.0535093 0)
(1.00013 0.000309896 4.04665e-21)
(1.02386 0.0234053 -5.89759e-21)
(1.20539 0.252682 0)
(1.0339 -0.0118362 2.39036e-20)
(1.09424 -0.0265418 0)
(1.04775 -0.0343734 2.14986e-20)
(1.01738 0.00284633 -6.28939e-21)
(1.0543 -0.0308004 1.08959e-20)
(1.02932 -0.0397533 1.4473e-20)
(1.0224 -0.000529975 0)
(1.02737 -0.00821877 0)
(1.00321 0.00178749 0)
(0.513895 -0.0160635 1.15978e-20)
(0.999947 0.000679272 -9.90348e-22)
(0.978491 0.0610175 -1.89457e-22)
(-0.286408 0.000899257 -9.39164e-20)
(0.986961 0.0481163 8.39321e-21)
(1.11862 -0.141464 4.33852e-21)
(1.05266 0.03958 2.96269e-20)
(0.832004 0.0516418 0)
(1.00345 0.00186376 0)
(1.02104 0.177249 1.27691e-20)
(0.999272 0.00768636 8.07428e-21)
(1.11563 0.0259924 0)
(1.00527 0.00113282 2.19118e-21)
(1.08549 0.214255 2.04229e-22)
(1.03206 -0.0010538 0)
(0.414833 0.22339 -9.43813e-20)
(0.454701 0.680671 1.01967e-19)
(0.685885 -0.122778 0)
(1.00741 0.000247741 3.7273e-22)
(0.99959 0.00162013 -4.6223e-21)
(1.1372 0.0632218 4.0414e-21)
(1.10169 0.0688903 1.70796e-20)
(0.478193 -0.0198655 -1.69962e-20)
(0.865937 -0.132389 3.30844e-20)
(1.08932 -0.0101986 0)
(0.991731 0.00436315 0)
(1.16488 -0.0653387 0)
(0.348387 0.205509 1.14944e-19)
(1.04551 -0.0330005 -3.21384e-20)
(1.18957 -0.0325029 3.7177e-20)
(1.07804 -0.0171314 3.0575e-20)
(0.922392 -0.0245871 1.42408e-21)
(1.07041 0.0917364 2.65369e-20)
(1.0359 -0.0299563 2.32999e-20)
(1.1387 -0.0388514 2.9219e-20)
(0.872113 0.393248 1.28927e-20)
(1.089 -0.00823771 0)
(0.310792 0.284033 0)
(1.09147 -0.00374351 0)
(1.03094 -0.00837642 6.72127e-21)
(1.05664 -0.0401379 -4.51414e-21)
(0.99909 0.0818669 -3.61127e-21)
(1.01969 0.00170983 -2.63078e-21)
(1.03838 -0.0180016 0)
(1.09191 0.0784927 -2.98097e-20)
(1.03637 0.0681459 0)
(0.998248 0.00731476 0)
(1.0048 0.000346898 1.01697e-21)
(1.06983 -0.0290547 -2.50582e-20)
(1.03653 0.00142268 1.29277e-20)
(1.09706 -0.0266092 0)
(0.992456 0.0043173 -3.79763e-22)
(0.994573 0.00304744 6.43339e-21)
(0.999961 0.000533124 0)
(1.01341 0.0435787 3.61057e-22)
(1.01439 0.000590697 1.01455e-21)
(1.03384 0.0566865 3.29902e-21)
(1.00286 0.00189879 3.34814e-21)
(0.0531401 -0.0341986 1.97057e-20)
(1.04096 -0.0347102 2.05025e-20)
(0.463268 -0.298416 -1.16742e-19)
(1.00819 0.00325361 1.94742e-22)
(1.00004 0.00129732 -3.43292e-21)
(0.804927 0.12089 8.99567e-20)
(1.1168 0.0156172 0)
(0.953059 -0.013105 0)
(1.26945 -0.0802165 -5.18191e-21)
(1.12588 0.144996 0)
(1.35702 0.074166 9.72936e-20)
(1.03932 -0.0176505 2.09195e-20)
(1.10864 -0.0492091 0)
(1.03063 0.00610494 -7.94344e-21)
(0.999918 0.000801885 0)
(1.00399 0.00155162 0)
(1.02238 0.0386954 -7.06209e-21)
(-0.342291 0.00998784 7.52067e-21)
(1.00003 0.00111202 -1.99203e-22)
(1.09301 -0.112899 1.733e-20)
(1.03507 0.0584711 -2.34742e-21)
(-0.191812 0.0380899 -1.62632e-19)
(0.968821 0.191102 6.12033e-21)
(1.13253 0.141812 5.76825e-20)
(1.04038 -0.0413152 -8.28939e-21)
(1.01333 0.00367358 -1.46246e-21)
(1 3.71775e-05 -1.63395e-23)
(1.04136 -0.0347989 -2.08963e-20)
(0.987831 -0.00448066 -7.27587e-21)
(0.981425 0.027063 0)
(1.27298 -0.0869424 0)
(1.00471 0.0396781 -1.87302e-23)
(0.998602 -0.00122915 9.34013e-21)
(1.05843 0.028393 0)
(1.00422 0.00523034 5.33322e-21)
(1.01104 0.000502614 0)
(1.04135 0.0632309 -6.32998e-21)
(0.884779 -0.0452004 -8.05568e-21)
(0.452724 -0.0140985 -1.27155e-20)
(1.06355 0.0750693 -8.61834e-22)
(1.0223 -0.000791952 -5.27703e-21)
(1.00638 0.000615658 -1.21996e-21)
(0.540738 -0.0621441 9.57312e-21)
(0.965098 0.324839 5.05722e-22)
(0.996296 0.0275066 -5.99451e-21)
(1.00921 0.0286254 0)
(1.28073 -0.0798396 -4.7629e-21)
(1.05884 -0.0919685 4.85976e-21)
(-0.279005 -0.0048445 -2.15073e-20)
(0.895251 0.110045 -1.57583e-20)
(1.03163 -0.00804516 0)
(1.00804 0.00196973 -3.52596e-22)
(1.01117 0.000588826 0)
(1.04291 -0.030475 -1.86456e-20)
(1.06763 0.0751366 -1.71742e-20)
(1.03543 -0.0538802 -2.19787e-20)
(0.917077 -0.000733343 2.29119e-20)
(0.582986 -0.0258753 -9.60352e-21)
(1.01697 0.0278984 1.7773e-21)
(0.961683 0.0394082 7.80142e-21)
(-0.301636 0.00187308 1.14618e-19)
(0.994637 0.00428646 4.59158e-22)
(1.05342 -0.000256965 -6.19344e-22)
(1.00001 0.0200401 0)
(1.00151 0.000899865 0)
(1.08651 0.0848384 -5.14323e-20)
(0.773499 -0.0298825 2.52033e-20)
(1.03046 0.0148944 4.73389e-21)
(1.11086 -0.141531 1.48628e-22)
(0.620128 -0.0157428 0)
(1.15421 0.0786337 3.47936e-20)
(0.999626 0.0111607 -2.66864e-23)
(1.01536 0.00123881 0)
(1.04165 -0.0365329 0)
(1.09892 -0.111987 -8.37751e-21)
(1.00006 0.000354318 0)
(1.09783 -0.102551 0)
(1.01514 0.00134932 1.54756e-23)
(1.08789 0.0746925 0)
(1.01898 -0.00184388 6.86319e-21)
(1.02047 0.00254862 -5.29461e-21)
(1.12727 -0.0948224 0)
(1.02423 0.0080099 -9.87779e-21)
(1.04524 -0.0334835 1.74418e-20)
(1.08703 0.0501272 -1.30488e-20)
(0.999954 0.000465213 -8.2217e-21)
(1.01297 0.00189113 2.66915e-21)
(0.981098 -0.00893284 0)
(1.00519 0.0129079 0)
(1.02737 -0.00752559 -1.23024e-22)
(0.289641 0.687893 6.33801e-20)
(1.0221 0.000689604 8.13761e-21)
(1.01884 0.00541458 -4.10154e-21)
(0.941484 -0.101357 1.03477e-22)
(1.07265 -0.123153 2.75186e-20)
(1.0452 -0.0253823 7.35323e-21)
(1.0973 0.0711978 -2.53608e-20)
(1.08532 -0.0293137 -4.58497e-20)
(1.04719 0.00788264 -7.19017e-21)
(1.0153 0.00863897 0)
(0.887517 -0.0090641 -1.88333e-20)
(0.139818 -0.0359587 9.61291e-21)
(1.09523 0.214521 -9.02348e-21)
(0.998003 0.00215115 4.28349e-22)
(1.02207 0.0230798 -2.17196e-21)
(0.903857 -0.134994 -1.80871e-23)
(1.06954 -0.00392933 2.43948e-20)
(0.0358224 -0.0323449 0)
(0.999947 0.000617742 9.15617e-21)
(0.950608 -0.0126484 0)
(0.492918 -0.0126244 1.52595e-20)
(1.063 -0.00583286 -8.2761e-21)
(1.03163 0.0135914 -1.70262e-20)
(-0.337046 0.0129131 8.10069e-21)
(0.216919 0.232067 1.20972e-19)
(1.00545 0.012567 0)
(1.13586 -0.0358066 0)
(1.00421 0.00161644 -2.26583e-21)
(1.02359 0.00813501 8.1808e-21)
(1.0084 0.00341423 -4.2915e-22)
(0.0968211 -0.0497638 1.85492e-20)
(1.01419 0.000535218 0)
(1.02075 -0.00371678 -4.75585e-21)
(1.01563 0.00830514 0)
(1.04921 -0.0324778 2.02512e-20)
(1.03094 -0.0134403 -9.7326e-21)
(1.21973 0.07918 6.09254e-20)
(0.699163 -0.114688 -7.57358e-20)
(1.02052 0.00145908 -3.14181e-21)
(0.844681 0.00519693 -4.07309e-20)
(1.00036 0.00265944 2.88571e-21)
(-0.0318014 -0.026336 0)
(1.00342 0.00692014 -1.90363e-22)
(1.02236 0.000305117 -8.20073e-21)
(0.998625 -0.000690362 1.05849e-20)
(1.04153 -0.036516 0)
(0.998461 -0.00101915 -1.21936e-20)
(1.10876 -0.061086 -6.00846e-21)
(0.604269 -0.0130571 2.09934e-20)
(1.03682 -0.0382203 0)
(0.903938 0.0119745 -2.54677e-21)
(1.03231 -0.0436202 -7.0112e-21)
(-0.25012 -0.00117479 0)
(0.993356 0.0164677 -5.89156e-21)
(0.524997 -0.0106638 0)
(0.787894 0.031639 0)
(-0.214211 -0.00354348 -7.12912e-20)
(0.689279 -0.0186374 -3.65033e-21)
(0.923349 -0.0985782 5.89342e-21)
(0.195131 0.227819 1.19259e-19)
(1.11859 -0.0524343 5.0323e-20)
(1.0028 0.0322461 0)
(0.887315 -0.0247047 -2.22864e-20)
(1.0632 -0.00434989 0)
(0.892283 -0.0284994 -2.05216e-20)
(1.01764 0.00180082 -3.69047e-21)
(1.0146 0.0143358 -1.15285e-21)
(0.997417 0.0282641 5.63013e-21)
(1.00038 0.00283641 -2.66572e-21)
(1.04934 0.0038102 0)
(0.890865 0.068139 0)
(0.526231 -0.0208136 -8.36907e-21)
(1.01455 0.0137102 -3.22664e-22)
(0.993537 -0.00159567 0)
(-0.229185 0.032114 -7.88181e-20)
(0.991348 0.415621 0)
(0.981331 -0.0101513 -1.17894e-20)
(0.810928 -0.0755664 -8.77062e-20)
(1.0642 0.0284018 2.71147e-20)
(1.02749 0.0112077 3.32255e-21)
(0.520935 0.716892 -4.06342e-21)
(0.804744 -0.0702241 4.55553e-20)
(0.949515 0.0316624 0)
(1.03137 -0.0130651 1.01375e-20)
(0.591726 -0.0147596 0)
(-0.278605 0.000798822 -1.10461e-19)
(0.223002 0.0518566 -1.19702e-19)
(1.01887 -0.00153405 -6.49212e-21)
(1.22362 0.0631437 4.62263e-20)
(1.15827 0.0162879 5.292e-20)
(-0.206974 0.0122657 -2.73484e-20)
(0.988447 -0.140999 1.90706e-23)
(1.04126 -0.0371057 1.48612e-20)
(1.00867 0.0167113 1.32884e-21)
(1.03131 0.00645097 0)
(1.01594 0.0282279 -3.25159e-22)
(1.01275 5.64816e-05 0)
(1.01546 0.0442843 0)
(1.01128 0.000970943 -7.1608e-22)
(1.03205 0.0656447 -8.50875e-21)
(1.06673 0.0922947 1.48381e-20)
(0.0224557 0.0447131 0)
(1.06181 -0.0555773 0)
(1.02112 -0.0034938 1.01246e-20)
(1.10561 -0.0480139 -1.77505e-20)
(0.162204 -0.0660001 -1.33849e-20)
(1.08268 0.0808827 -2.69225e-20)
(0.970617 0.0095944 -6.99866e-21)
(0.259658 -0.021167 -2.21689e-20)
(1.01881 0.0117226 0)
(0.982374 0.025505 -3.69689e-22)
(0.818249 0.0412867 -1.07756e-19)
(0.079925 0.0526276 9.96606e-20)
(0.998422 -0.00244473 -2.42765e-20)
(1.00099 0.0127456 0)
(0.953833 -0.0347577 0)
(1.03258 -0.0442721 1.1826e-20)
(1.05083 -0.0827596 2.81006e-20)
(1.08286 -0.0503964 1.48434e-20)
(1.03341 -0.0386646 -1.5238e-22)
(1.00398 0.0121634 -7.02783e-21)
(1.12598 -0.0590213 7.40097e-21)
(0.969578 0.0110503 -5.34086e-22)
(1.00196 0.00717354 0)
(0.967711 0.00705555 0)
(0.991731 -0.0240379 8.53006e-21)
(-0.244172 -0.00855683 0)
(1.01935 0.00425294 2.55101e-21)