/*--------------------------------*- C++ -*----------------------------------*\
| =========                 |                                                 |
| \\      /  F ield         | OpenFOAM: The Open Source CFD Toolbox           |
|  \\    /   O peration     | Version:  v2012                                 |
|   \\  /    A nd           | Website:  www.openfoam.com                      |
|    \\/     M anipulation  |                                                 |
\*---------------------------------------------------------------------------*/
FoamFile
{
    version     2.0;
    format      ascii;
    class       volVectorField;
    location    "50";
    object      ddt0(U);
}
// * * * * * * * * * * * * * * * * * * * * * * * * * * * * * * * * * * * * * //

dimensions      [0 1 -2 0 0 0 0];


internalField   nonuniform List<vector> 
13917
(
(0.000691607 -0.000295787 -1.58096e-19)
(0.000127158 -0.000251495 -1.02036e-17)
(0.00939116 -0.0120888 4.28407e-18)
(-0.000399816 -0.000872229 -1.26906e-20)
(-3.15598e-05 0.000366781 2.85635e-18)
(-0.000228092 0.00266035 1.13685e-16)
(0.027932 -0.00697162 -1.50711e-19)
(0.00393039 -0.0143428 9.57145e-19)
(0.00102265 -0.0014396 6.19691e-19)
(0.000931946 -0.000685103 6.26532e-18)
(-0.00143691 -0.0051419 -4.69338e-18)
(-0.00115138 -0.00140934 -4.70819e-18)
(-0.000376124 -0.00088573 -3.67692e-19)
(-0.0052485 -0.00159973 3.21548e-20)
(0.000386775 0.000121589 3.6351e-18)
(0.000373749 -4.33617e-05 4.39774e-18)
(0.000148433 -0.000172284 9.90094e-18)
(0.000949914 -0.000829775 -4.82483e-18)
(-5.28705e-05 -0.00132675 3.75038e-18)
(-2.90255e-05 0.000140576 2.9572e-18)
(-1.75658e-05 -1.17553e-05 2.80047e-18)
(0.0295359 -0.00634288 2.37852e-18)
(-1.22639e-05 0.000197669 2.35436e-18)
(-0.00173789 -0.0142089 -7.58077e-19)
(-2.04274e-05 3.81862e-05 4.44826e-19)
(0.0308269 -0.00261255 3.9119e-18)
(-3.33929e-05 0.00108044 7.67543e-18)
(0.000339562 0.00136519 -2.97235e-17)
(0.00128984 0.00297165 -3.04991e-17)
(-6.60683e-06 -0.000662392 1.20233e-17)
(0.00066255 -0.000354285 3.29814e-19)
(0.000451187 -0.000191478 6.47032e-19)
(0.000159267 0.000832605 -9.52767e-18)
(-0.000131701 0.000520574 -4.58946e-18)
(-7.80415e-06 5.15511e-05 1.88771e-18)
(-0.00471748 -0.00720163 5.76765e-19)
(-2.04441e-05 0.000219329 2.41662e-18)
(0.00129814 -0.00613432 -6.60378e-19)
(-0.000340468 -0.00115486 -4.69549e-20)
(0.030907 0.00127922 1.12189e-17)
(-6.36257e-05 6.15286e-06 5.57523e-18)
(-5.42118e-06 -1.18342e-05 3.48056e-18)
(-1.06325e-05 -9.97191e-05 5.46739e-19)
(0.000519257 0.00179333 2.33684e-17)
(4.12959e-05 -0.000173615 9.18766e-19)
(-6.51838e-05 0.000550116 -2.65096e-17)
(0.000888845 -0.000895012 3.06451e-18)
(0.00144729 -0.00179545 -1.73826e-18)
(-0.00052128 0.00336828 -2.32539e-16)
(-6.33082e-05 2.35703e-06 -2.87117e-18)
(0.000189634 -0.00094236 1.85593e-19)
(-4.1027e-05 0.000613552 2.27333e-18)
(-0.00159449 0.0031248 1.69938e-16)
(-0.000123348 0.000523293 1.49494e-17)
(0.000154888 -0.000156597 -2.53201e-18)
(0.000390887 -0.000472648 -4.08619e-19)
(-0.0015956 -0.005089 4.30923e-18)
(6.72987e-05 0.000394118 -3.39128e-18)
(0.000291731 -0.000285788 9.98829e-19)
(-2.47989e-06 -0.000175222 -3.4932e-18)
(0.00896238 -0.0105184 1.57791e-17)
(0.000120745 -0.000274153 1.30473e-18)
(-0.00331885 -0.000881151 -1.03859e-19)
(-3.33457e-05 0.000139153 3.01183e-18)
(-0.000160117 0.00258421 -3.73295e-17)
(0.00292978 2.58354e-05 3.48421e-17)
(-2.40701e-05 0.000344831 -1.38917e-18)
(-4.30892e-05 4.02172e-05 -1.50733e-19)
(0.00369036 -0.00388319 -2.6972e-18)
(0.000804902 -0.000139628 1.02464e-18)
(-2.43502e-05 0.000377689 -8.95555e-19)
(0.00646084 -0.00228822 -2.97405e-18)
(-0.00697704 0.00419507 5.08013e-19)
(3.68672e-07 2.68799e-05 2.10557e-18)
(6.03702e-05 0.00334768 2.37547e-17)
(-0.000500501 7.69536e-06 -1.81425e-18)
(-0.016673 -0.000370051 3.88967e-19)
(5.86847e-05 -0.000267202 8.82774e-19)
(0.0295371 0.000336601 6.71419e-18)
(-1.68629e-05 3.85452e-05 2.17902e-18)
(-3.90395e-05 9.6081e-05 9.11798e-19)
(-2.05564e-05 0.000375628 -4.77962e-20)
(-3.24871e-05 0.00259246 1.61967e-18)
(0.00341323 -0.0069132 6.36915e-19)
(0.00213941 -2.37977e-05 -6.30733e-17)
(0.000107094 -0.00026977 4.02522e-19)
(-4.41956e-05 0.000160127 7.63496e-18)
(0.0037444 -0.000923697 2.22269e-17)
(0.000312707 -0.000936779 -9.72438e-21)
(1.03976e-06 -0.000115465 -3.65169e-19)
(-0.0130989 0.000949771 -7.37194e-19)
(0.000522885 -0.00100867 1.85969e-18)
(5.54208e-05 -0.000279334 -8.82675e-19)
(0.000194365 0.000310624 4.57718e-18)
(0.00305228 -0.00790868 -5.15953e-17)
(-0.000280262 0.00258105 4.34311e-17)
(0.000975763 -0.00427538 -3.85263e-18)
(0.00134771 -0.00145012 -6.51872e-19)
(-0.00340203 2.489e-05 3.03167e-18)
(0.000147366 0.0019814 -1.33427e-17)
(-1.19856e-05 -3.3716e-06 -4.00706e-18)
(-0.000161331 0.000732777 3.59139e-18)
(0.000443997 0.00177552 -7.27579e-17)
(0.000157986 -0.000500478 3.28024e-19)
(1.73315e-06 -0.000157688 -1.43715e-18)
(0.00711867 0.00271663 -7.52853e-20)
(0.00145125 0.00260761 1.22267e-17)
(0.00156157 -0.00182863 2.21705e-18)
(0.000148524 -0.000208443 -1.79213e-18)
(0.000727434 -0.000385372 3.1416e-19)
(0.015006 -0.000549614 5.76919e-18)
(0.0314699 0.00113264 -1.07601e-17)
(-0.0013227 -0.00123927 -3.77396e-18)
(0.00410722 0.002154 1.76126e-18)
(-5.73208e-05 0.000622681 -7.02237e-18)
(-0.000297241 0.00322858 8.58903e-18)
(-9.21097e-06 -8.60804e-06 -3.0241e-18)
(-0.000259712 0.00302145 -9.0062e-17)
(0.0207673 -0.0013283 -8.91886e-19)
(-5.13963e-05 0.000520878 3.13759e-17)
(-5.83769e-06 -1.17866e-05 4.74388e-18)
(0.00373137 -0.00364888 4.80525e-18)
(0.0136325 -0.00247215 -7.49427e-19)
(0.000288916 0.00130203 2.30619e-17)
(-7.29826e-05 -3.95703e-07 2.83428e-19)
(0.000176135 0.000333096 2.45141e-18)
(0.000333631 -0.000234674 -2.65171e-19)
(-7.61852e-05 -1.20828e-06 2.05968e-18)
(-6.86864e-06 -2.49873e-05 4.9003e-18)
(-0.000229292 0.00260147 -2.78009e-17)
(0.0199484 -0.00430475 4.9175e-18)
(-5.91749e-05 0.000631068 1.78748e-18)
(2.85612e-05 -0.000179218 -4.49622e-18)
(-1.19082e-05 -1.21506e-05 -2.34672e-18)
(-0.00125216 0.00523043 5.04326e-18)
(-0.00357652 -0.0140396 1.06307e-18)
(0.000715099 -0.000287176 2.55213e-19)
(9.80906e-05 0.00205686 4.49244e-17)
(-2.00912e-05 0.000325029 -3.51537e-18)
(-7.56775e-05 0.000525219 -2.82146e-17)
(-0.00362646 -0.00705445 -1.2074e-18)
(-1.37703e-05 -0.000140378 1.43599e-20)
(1.68757e-05 0.000616525 1.66787e-17)
(0.000442215 0.00196573 2.83321e-17)
(-4.43962e-05 4.42053e-05 2.00063e-19)
(0.0169355 -0.00214815 -1.31566e-18)
(0.00149096 0.00285788 -1.66215e-17)
(-3.1543e-05 0.000597448 -1.48772e-18)
(-2.35353e-05 -0.000111807 -6.32935e-19)
(0.000512085 -0.000189498 -2.72141e-18)
(0.000411963 -0.00227794 4.47644e-18)
(-0.000289815 0.00321121 -9.20209e-18)
(-0.000615928 -0.00314652 -1.96983e-18)
(0.00103039 0.000169608 -6.34949e-18)
(0.00043694 -0.000239261 1.46904e-18)
(-0.00104424 0.000914332 -3.40462e-17)
(0.000773163 -0.000126615 -1.52055e-18)
(0.00305356 -0.00953958 1.47649e-18)
(-0.0172719 -0.000534515 -2.67276e-19)
(-0.00172026 0.00503161 5.09485e-18)
(0.000113135 0.000452954 3.90196e-18)
(-0.000310247 0.00106432 -3.50208e-17)
(-1.3488e-05 3.06453e-05 1.88857e-19)
(0.000709039 -0.00415447 1.52069e-18)
(-0.00133032 -0.00135904 4.55366e-18)
(-0.00324079 -0.000158973 -2.68507e-18)
(0.000173133 -0.00046391 -1.61107e-18)
(0.000976042 -0.00204051 -8.63083e-19)
(7.12116e-06 -0.000182866 3.41622e-18)
(-0.000197854 0.000768818 -2.02991e-17)
(0.000985936 5.04483e-05 7.52843e-18)
(0.0128217 -0.00148548 -2.57191e-17)
(-0.00164379 -0.000714486 2.50721e-19)
(0.00020058 -0.000179043 1.23746e-17)
(0.0120018 -0.00655956 9.83768e-19)
(0.0011684 0.000323386 1.24093e-17)
(0.0217863 -0.00466951 -3.80263e-18)
(-0.000354686 0.00309677 7.96213e-17)
(0.0157424 -0.00257329 3.66467e-19)
(6.95998e-05 8.07788e-05 3.61241e-18)
(0.000379695 -0.00102821 -6.60197e-18)
(0.000657382 -0.000385907 -4.45058e-19)
(-1.38209e-05 -0.000122998 -3.82205e-18)
(-4.37692e-05 0.000182202 -4.89435e-18)
(0.000464065 0.000366426 1.49693e-18)
(0.0282057 -0.00284547 8.16663e-19)
(-0.000445833 -0.00305337 2.34967e-18)
(-0.00229965 0.00146988 7.10703e-19)
(0.000935287 -0.000575028 -4.14421e-19)
(-0.00286284 -0.00196312 4.52763e-18)
(-0.00043485 -0.00835923 4.0029e-19)
(0.00557454 0.000142293 3.55632e-17)
(0.00126393 -0.00328282 1.78257e-17)
(-2.20908e-05 0.000274614 5.7993e-18)
(-6.7493e-05 0.00206924 8.65297e-17)
(-1.62554e-05 0.00102475 3.15453e-17)
(-6.35114e-05 -2.32809e-06 -3.59858e-19)
(4.93043e-05 -0.000284097 -1.89168e-18)
(0.00156147 0.0022653 2.03871e-17)
(0.00923775 -0.00392356 2.48585e-17)
(5.96355e-05 -0.00126881 4.2687e-19)
(-6.18237e-05 3.57193e-06 -8.57375e-19)
(0.000793058 -0.00204041 -3.65281e-18)
(0.000307598 -0.00223026 -4.07104e-18)
(-0.00713776 0.00330349 4.61182e-19)
(0.00511354 0.0038134 7.54334e-19)
(-1.20187e-05 4.25188e-05 4.85978e-18)
(6.7351e-05 0.000405658 2.99292e-18)
(0.0012983 -0.00154817 1.41002e-18)
(0.0197602 -0.00692839 -1.44351e-18)
(1.76623e-05 0.000614697 -1.3796e-17)
(0.0273704 -0.00760668 1.13834e-19)
(-0.00721216 0.00192749 1.01301e-18)
(-0.00273062 -0.00208987 -3.70426e-18)
(1.24772e-05 -0.000142615 -6.32858e-19)
(0.000609926 0.00282169 -1.17624e-16)
(0.0010432 -0.00158491 -3.06611e-18)
(0.0195576 0.00291343 -6.70726e-18)
(1.05005e-06 0.000110876 6.10289e-22)
(0.00294733 -0.0107111 5.56803e-18)
(6.56544e-05 0.000100043 -4.30009e-18)
(0.000161464 -0.000239445 -1.76639e-18)
(-6.57502e-05 7.48499e-06 -6.26553e-18)
(-0.00384818 -0.00589875 7.66477e-20)
(0.00473025 0.00398459 5.41394e-18)
(0.000403239 -4.34304e-05 -7.19739e-18)
(0.00656884 0.000830699 -1.99512e-17)
(0.00049581 -0.000249229 -1.90861e-18)
(2.5518e-06 -0.000114368 5.74249e-19)
(-0.00479352 -0.00682432 2.8324e-19)
(-0.00154896 -0.000577783 1.31939e-18)
(0.000982538 -0.000607446 -1.96557e-19)
(-0.0043423 -0.0133965 1.94539e-18)
(-0.00673812 0.00132893 1.16869e-18)
(-3.10836e-05 -3.94222e-05 2.384e-18)
(0.00048239 -0.000186113 9.12428e-19)
(-0.0126211 0.00119154 8.3855e-19)
(-0.00370393 0.00107107 2.84703e-17)
(-4.2219e-05 4.77508e-05 -1.31414e-18)
(-3.87368e-05 1.68771e-05 -2.86427e-18)
(0.0304371 0.00193819 2.43849e-17)
(0.00153261 -0.00449888 -8.33201e-19)
(-1.18232e-05 -1.30361e-06 9.98573e-20)
(-0.00505631 -0.00513279 1.75833e-19)
(0.00150623 -0.000137154 -2.01204e-18)
(-0.00035188 0.00101783 4.98406e-17)
(0.000657655 -0.000261485 8.74572e-20)
(-3.17961e-05 4.29998e-05 -1.42215e-18)
(0.00107134 0.000533727 -3.7719e-18)
(-0.0121706 0.000931329 -2.53555e-18)
(-7.5633e-05 -0.000565304 2.97102e-18)
(0.000496248 -0.00146506 -2.77101e-17)
(0.000242292 0.00218708 4.25256e-17)
(-0.000170985 -0.000234104 1.99373e-18)
(5.44644e-05 0.000387668 -6.16451e-18)
(-0.000432381 -0.00253875 1.44505e-19)
(0.0295318 0.00169027 -4.26163e-18)
(-0.000551318 -0.00300975 3.90981e-19)
(0.000497004 0.000379688 -1.3264e-17)
(0.000396686 0.000101591 1.29644e-17)
(-7.23736e-06 -2.5893e-06 2.08963e-18)
(0.014094 -0.00152572 5.52719e-19)
(-0.000455986 0.00922578 1.18418e-18)
(-0.00683105 -0.00294309 1.34362e-19)
(2.3787e-06 -9.34133e-05 -7.70983e-19)
(0.00426317 0.00485842 -2.50031e-18)
(-0.00825845 -0.00238472 1.4143e-20)
(0.003065 -0.0100336 -6.13298e-20)
(0.0294624 0.000361202 -5.06539e-18)
(-0.000661842 0.000163833 -3.26449e-18)
(-2.62346e-05 8.27042e-05 -1.01641e-17)
(-8.43057e-05 1.87883e-06 5.71675e-19)
(0.00100335 -0.00102464 1.74078e-18)
(-0.0117977 -0.00347473 -2.43386e-20)
(0.00279668 -0.00165776 3.58031e-18)
(0.000256541 -0.000292423 5.65588e-19)
(0.00497544 0.00444538 1.73577e-18)
(0.000188075 -0.00146497 -9.50323e-19)
(-7.70326e-06 -2.03184e-05 -3.22819e-18)
(-0.00897221 -0.00171858 2.75647e-18)
(-2.50321e-05 0.000102161 4.34218e-19)
(0.0121331 -0.00760081 -2.32895e-18)
(4.92818e-05 -0.00124379 -6.65637e-20)
(-2.77918e-05 -9.81319e-07 -3.09307e-18)
(0.000481291 -1.09806e-05 2.03243e-18)
(0.00100593 0.000200593 2.16447e-19)
(-0.000253461 0.0010572 -2.40425e-17)
(-0.00521723 -0.00559262 2.89941e-18)
(0.000689603 0.000149944 8.07551e-18)
(8.6125e-05 -0.000452517 2.1484e-18)
(-0.00160107 0.00316424 -4.39469e-18)
(-0.00441832 -0.0133735 1.81999e-19)
(-0.00288187 0.0102723 -8.99773e-18)
(-7.60456e-07 8.4048e-05 6.31261e-18)
(0.00528827 -0.0092488 2.82899e-19)
(-1.44627e-05 0.000309728 -1.67255e-18)
(6.89302e-05 -0.000486072 3.69078e-18)
(-6.85615e-06 -4.87116e-06 2.26101e-18)
(0.00172115 0.00286546 1.18872e-17)
(-5.73164e-05 2.34468e-05 1.48434e-18)
(9.0361e-05 -0.000220611 7.48531e-20)
(0.000656943 -0.000246094 4.25741e-19)
(1.93371e-05 -0.000173171 -1.81112e-18)
(0.000748471 -0.00212505 4.61615e-18)
(0.000222866 -0.000277866 2.44479e-18)
(-0.00052141 0.0030946 6.43003e-17)
(0.00111628 0.000293667 -8.86174e-18)
(0.000433142 -0.000915235 -1.431e-19)
(2.31959e-05 -0.000108917 3.39921e-18)
(5.0721e-05 0.000365184 5.32083e-18)
(0.0153443 -0.00141385 1.20764e-17)
(0.00940024 -0.0025238 -1.78691e-20)
(-7.46328e-06 -7.32857e-06 1.00015e-17)
(-7.78871e-05 5.58547e-06 -2.31561e-18)
(-0.00755104 -0.00186272 -1.11721e-17)
(7.19822e-05 -6.04629e-05 2.35881e-18)
(-0.00807537 0.00448231 9.02205e-19)
(1.5739e-05 -0.00010917 1.87467e-18)
(-0.00300913 -0.00626546 -2.25635e-19)
(-0.000138656 -0.00064029 6.18476e-19)
(0.0041696 -0.000195174 4.89491e-18)
(0.000434172 -0.00134388 2.09353e-18)
(5.94999e-05 0.00323381 -7.83658e-17)
(0.000117893 0.000454869 4.73917e-18)
(-0.0022014 0.0043886 -8.66716e-19)
(0.000530597 0.00264352 -1.54921e-18)
(0.000475909 -3.31105e-05 2.86389e-18)
(0.00169978 -0.0043415 2.81233e-18)
(0.00177108 0.00264576 1.39265e-18)
(0.000145317 0.000250089 8.08594e-18)
(0.0123665 -0.00546784 -5.85654e-20)
(-0.000131687 0.00202618 -1.07633e-16)
(-0.00862718 -0.00293612 -3.6896e-20)
(-1.4083e-05 0.000522566 2.89623e-17)
(0.0288757 0.000278177 -2.58859e-18)
(0.000483828 -0.000197517 2.97596e-18)
(0.0157795 -0.00708274 9.92217e-18)
(0.000433553 0.00245475 2.95803e-17)
(0.00157585 0.00163827 -4.98178e-18)
(0.00159913 0.00154504 -6.0012e-19)
(0.0187618 -0.0106069 -1.08223e-18)
(-2.80039e-05 0.000102227 2.84892e-18)
(0.00108204 2.69378e-05 -4.74728e-18)
(0.0138527 -0.000791977 -9.11989e-18)
(6.79365e-05 0.000505506 -4.76115e-18)
(0.000278807 -9.89413e-05 8.50064e-18)
(-0.00475485 -0.00259227 1.46316e-19)
(0.00147886 0.00239557 -1.70988e-17)
(0.000184893 -0.000230238 -8.1154e-18)
(-1.77009e-05 -0.0079834 2.4167e-18)
(0.00117466 0.00292343 2.82777e-17)
(-2.87661e-05 4.22114e-05 -3.45235e-18)
(0.0202811 -0.000862921 1.28403e-18)
(-0.00288433 -0.0078331 -8.01275e-19)
(-2.9029e-05 9.78311e-05 8.43191e-19)
(-6.4383e-06 0.000129903 -5.96602e-18)
(2.05765e-06 0.000278329 3.34015e-18)
(-4.01586e-05 -9.79814e-05 -3.66797e-18)
(-0.00113445 0.00316624 8.91137e-18)
(0.0146268 -0.00392074 1.18356e-18)
(-0.000810196 0.00283252 -4.8776e-17)
(0.0143807 -0.00180147 -8.81319e-18)
(-6.21922e-06 8.86755e-06 -3.37477e-18)
(0.000522315 -0.00159687 3.15324e-17)
(-0.00364774 0.000565656 -2.52757e-17)
(0.0005053 -0.00169383 -5.40474e-18)
(0.0293541 -0.00692711 -1.47536e-18)
(-0.00993455 -0.00399809 -1.80765e-19)
(0.00180873 0.00344032 -1.9577e-18)
(-2.64011e-05 -8.25759e-05 3.24234e-18)
(-0.00646116 -0.0027336 1.9148e-18)
(-8.25754e-06 0.000107359 -2.64558e-18)
(0.000952519 -0.010435 -1.79367e-17)
(4.39746e-06 -0.000186283 3.74335e-18)
(0.00021952 0.00333995 -3.52592e-17)
(0.00140576 -1.35359e-05 -2.4172e-18)
(-0.000160045 -0.00116097 6.73874e-20)
(-3.59163e-05 0.000171918 -3.32452e-18)
(0.00118586 -0.00152682 -1.85868e-18)
(0.000409235 -0.00112256 2.65398e-19)
(0.00136012 -0.000809118 -2.24901e-18)
(0.000556231 0.00444645 1.26087e-17)
(0.0111798 -0.00696584 -4.07632e-18)
(0.0195971 0.0023206 -2.9954e-18)
(0.00116951 0.000571298 -1.92769e-17)
(0.00085988 -0.000632413 -3.53251e-18)
(-4.31739e-05 3.53983e-06 -1.41984e-18)
(-0.00180897 0.00115395 -7.96517e-17)
(0.0310472 -0.00471696 -9.11236e-19)
(8.82075e-05 0.000344295 2.30948e-18)
(-0.00175955 0.00404572 -1.54546e-17)
(1.9079e-06 6.24046e-05 -6.11772e-18)
(0.00302685 0.00288761 -1.22653e-17)
(-5.90653e-05 -0.000653716 -4.16184e-19)
(-2.83999e-05 6.27015e-05 6.89997e-18)
(0.000250061 -0.000282516 -8.08664e-18)
(0.0222444 0.00420151 -5.56898e-18)
(0.000260427 -0.000284624 5.43469e-19)
(0.0285328 0.00184016 1.59706e-18)
(-0.00992082 0.00237263 1.61949e-18)
(-0.0021118 -0.00407565 5.10645e-18)
(0.000329476 0.00271222 1.09206e-16)
(0.000139844 0.000231247 -3.47142e-18)
(0.000566717 0.00273146 8.91821e-17)
(0.000428499 0.00275639 1.22589e-18)
(-1.25424e-05 3.45175e-05 2.29944e-18)
(0.00142358 0.00249198 -1.02685e-17)
(6.02764e-05 0.000494408 8.86576e-18)
(-3.50278e-06 2.96953e-05 8.15594e-18)
(4.0058e-05 -0.000721772 -8.65995e-18)
(-1.91182e-05 -2.62765e-06 -1.82592e-19)
(1.30308e-05 4.629e-05 -4.24985e-18)
(1.46305e-05 9.709e-05 2.64148e-18)
(-0.00100043 0.00275419 2.54537e-18)
(-1.7593e-05 1.08426e-05 1.84595e-18)
(0.0288163 -3.54763e-05 -4.9643e-19)
(0.0222068 0.00422809 2.40579e-18)
(-0.00302245 0.00223558 6.62726e-18)
(0.00151597 -0.00310644 -1.94391e-17)
(0.0280536 4.4957e-05 4.64518e-18)
(0.0154957 0.00268994 6.18691e-18)
(0.000485506 -0.00170023 5.56405e-18)
(-6.39309e-06 8.04839e-06 1.48833e-18)
(0.00114854 0.00137626 2.15513e-18)
(-0.000338845 -0.00113582 1.31628e-19)
(0.000527412 -0.000196368 1.25328e-18)
(-1.49033e-05 0.00025196 6.77142e-19)
(0.0163218 -0.00353703 -1.33034e-18)
(0.0271697 -0.00578118 -1.48394e-19)
(0.0182402 0.00460247 8.86492e-18)
(0.000359263 3.53008e-05 -2.00489e-17)
(0.00190778 -0.000122558 1.25744e-18)
(-3.61206e-05 0.000532343 -2.43437e-17)
(-0.000311909 -0.00120525 6.54252e-20)
(0.00143786 -0.000906965 4.03396e-18)
(0.000227125 -0.000248239 6.66543e-18)
(-0.00710269 -0.00200882 -4.0191e-18)
(0.000139241 -0.000224333 -1.31069e-18)
(-5.18317e-05 2.77157e-05 -5.16335e-18)
(-0.00879924 0.00516567 5.50015e-18)
(0.0216336 -0.00434886 1.52866e-19)
(0.0232267 -0.00444736 -4.44542e-19)
(0.00393835 -0.00107312 2.45899e-18)
(-0.00177384 0.00212353 2.76956e-18)
(0.0145237 -0.00621421 3.11124e-19)
(0.00724099 0.00522212 7.09081e-18)
(-0.0172638 -0.00185925 1.10403e-19)
(-2.71207e-05 -1.62436e-05 1.29009e-18)
(0.00114368 -0.00124304 -6.22367e-18)
(0.000224749 -0.000261504 -7.51595e-18)
(7.97589e-05 0.000430441 -5.14133e-18)
(0.00404798 0.00401811 -6.77689e-18)
(0.000963607 -0.000963456 1.6019e-19)
(-3.7312e-06 -1.86202e-05 6.60457e-19)
(0.000666675 -0.000344046 -3.52993e-18)
(0.000554751 -0.00154568 1.40423e-18)
(-0.0165182 -0.00211592 9.49067e-22)
(-8.30099e-06 1.60472e-05 1.07072e-18)
(0.00174639 -0.00317239 -4.64097e-18)
(-0.00193545 0.00169886 3.83771e-17)
(0.00397289 8.76892e-05 -1.90665e-17)
(0.0263679 -0.000746326 8.2773e-19)
(-1.6889e-05 3.718e-06 6.62561e-19)
(7.61476e-05 0.000353887 -6.95653e-19)
(-3.82034e-05 -3.63589e-06 1.90038e-18)
(0.000783978 -0.000103535 1.89044e-18)
(-1.56531e-05 -7.97732e-05 -6.81976e-19)
(0.0229983 -0.00194948 1.73773e-19)
(-0.000753154 0.00275036 7.66991e-17)
(0.000681372 0.000124733 2.19215e-18)
(-0.00287459 -0.000466656 7.26024e-20)
(0.000381302 -0.000509556 9.62145e-20)
(0.000493954 -0.00428715 -2.71196e-18)
(0.00391939 0.00578348 1.62734e-19)
(0.00150942 0.00275269 -1.87411e-17)
(-0.00214476 -0.00385694 -4.74701e-18)
(-0.00354509 -0.0073703 3.52596e-19)
(0.00233974 -0.00333826 4.73325e-18)
(0.000628141 -0.000358373 -3.32245e-18)
(0.00227897 0.000943352 -1.75935e-18)
(-1.5075e-05 -0.00181703 -5.27205e-19)
(-0.00353116 -0.00332562 3.85726e-18)
(-0.000104162 0.00262654 -2.43412e-17)
(-0.000112221 -0.0016228 -3.28434e-18)
(0.00159634 -0.00226683 -2.09578e-19)
(-4.92339e-05 -1.09283e-05 4.92881e-19)
(0.000647467 0.00524468 5.55876e-18)
(0.000359173 -0.000920644 -2.75215e-19)
(-4.80796e-05 -0.000339948 -3.06446e-18)
(0.000713404 -9.72703e-05 6.21663e-18)
(-8.0176e-05 -0.000327109 -8.69896e-19)
(-0.0164896 -0.00213925 4.69862e-20)
(0.00632652 0.00151068 -8.3508e-19)
(7.09845e-05 -2.28006e-05 -5.60327e-19)
(-1.08303e-05 -1.73493e-05 -8.59235e-19)
(0.0102751 -0.00666824 -1.15484e-18)
(0.0158775 0.00210921 -4.18932e-18)
(-2.40106e-05 -2.19718e-06 -6.18612e-19)
(0.02741 -0.000216971 2.03912e-19)
(1.47658e-07 -0.000846937 -1.11461e-18)
(0.00080432 -0.00263513 2.27983e-18)
(6.01562e-05 -1.89588e-06 3.4855e-19)
(-0.00130302 0.00395864 8.98939e-19)
(0.00740655 -0.00424789 4.5977e-19)
(0.000495001 -0.000177852 6.92836e-18)
(0.000117751 -0.00027051 -2.68964e-19)
(0.0276453 -1.09843e-05 -1.74913e-18)
(-0.000519221 -0.00272243 1.82794e-17)
(-0.00654563 0.000882104 -4.62122e-17)
(-6.33951e-06 -2.9665e-06 -8.36645e-18)
(-0.0091701 0.00179686 -6.2824e-19)
(-0.00035278 0.00300569 4.48892e-17)
(-0.00756671 -0.00285642 -8.69645e-19)
(-5.71199e-05 -0.000333991 4.0664e-18)
(-0.00187561 0.000803748 5.64075e-17)
(-0.00292529 0.0120942 -8.77838e-18)
(0.000437472 -0.00178767 -1.13142e-18)
(2.90323e-06 0.000125792 4.13811e-19)
(0.000165067 -5.36469e-05 1.31484e-17)
(-0.000104241 0.000283863 -1.46692e-19)
(0.00332834 0.00322482 1.09177e-17)
(1.21772e-05 -2.2648e-05 -1.36622e-18)
(-1.32147e-05 0.000121258 3.93858e-18)
(-6.25962e-05 -5.31651e-06 -4.80773e-18)
(-6.31949e-05 -2.0599e-06 1.5107e-18)
(0.00449189 0.00415943 2.36614e-18)
(0.00354762 0.00413631 -1.16358e-18)
(0.000434615 -0.00174339 5.53779e-19)
(-0.000933548 -0.00276712 1.05014e-20)
(-7.06242e-05 1.33209e-06 9.0604e-19)
(-1.47323e-05 8.89374e-06 3.93023e-18)
(0.00195868 -0.000294647 2.05377e-18)
(-0.0135915 0.00932655 -2.81998e-18)
(0.000564465 -0.000448541 -7.25304e-19)
(-3.33358e-06 -0.000175137 -2.12191e-18)
(-6.87175e-06 2.58383e-05 -7.60046e-18)
(-2.75519e-05 0.00013991 1.7255e-17)
(-0.00904699 -0.00264048 -6.30597e-18)
(0.00921821 -0.00102935 -8.3893e-18)
(-3.73376e-05 0.000145666 -2.99118e-18)
(-2.8193e-05 0.000139676 7.08281e-19)
(-0.00663542 -0.00216853 2.76399e-18)
(6.16274e-06 -0.00182029 6.49244e-19)
(0.000404269 -0.00138645 -7.96465e-19)
(7.48855e-05 0.000380151 -1.08593e-18)
(0.000228319 -0.000280121 4.23671e-19)
(0.000445966 -0.000175348 2.23884e-18)
(0.00148496 -0.00234072 7.77381e-19)
(0.00187442 0.00255932 2.55871e-18)
(-0.000565971 -0.00302689 -1.30472e-18)
(0.00139355 0.00151532 -2.35662e-18)
(0.00224963 -0.00125785 -2.40125e-19)
(0.00564586 0.0036453 -3.50581e-18)
(0.000445406 -0.000846451 -4.64112e-18)
(-2.16189e-06 5.38897e-05 -2.52623e-18)
(-0.0108779 0.00161898 1.48892e-18)
(-2.63712e-05 0.000161732 -1.22203e-17)
(0.000300059 -0.000104109 -1.25531e-17)
(-5.70792e-05 -0.00111633 -4.74353e-19)
(0.00111742 0.005171 1.38353e-18)
(0.00164355 0.000937144 -1.41589e-19)
(-4.25879e-05 4.34048e-06 -4.26524e-18)
(0.00428388 -0.000150359 1.42091e-17)
(-0.000380965 -0.000545989 7.80246e-18)
(-0.012558 -0.00620634 1.47014e-17)
(0.0022006 -0.00110488 5.04563e-18)
(0.000501385 0.000713894 -3.38055e-18)
(0.000579592 -0.0015717 -1.25118e-19)
(-3.11727e-05 0.000206853 4.0805e-18)
(0.00128816 0.0118972 5.07018e-18)
(0.00435356 -0.000372445 5.21609e-18)
(0.0247442 -0.00952993 1.58146e-18)
(0.000138684 -0.000200873 6.59014e-18)
(0.00036941 -0.000518901 -4.5682e-19)
(-0.00124485 -0.00282303 -8.345e-18)
(-0.00970157 -0.00393579 1.99788e-19)
(0.00496057 0.000908221 7.83258e-18)
(0.00141285 -0.00144326 2.51338e-19)
(0.00284503 -0.00137264 -1.57136e-18)
(0.000372033 -1.72059e-05 4.17227e-18)
(0.000450985 -0.000202741 -2.51456e-19)
(9.19051e-05 0.000385256 -8.88191e-19)
(0.000965722 0.0011128 1.32862e-17)
(0.000379278 0.00186076 5.08366e-17)
(-8.77753e-05 0.000456293 6.7959e-19)
(0.000988649 -0.0016462 2.09294e-19)
(0.000154372 0.00215272 -9.11197e-17)
(0.0241408 -0.0100109 -1.27817e-18)
(-0.0068212 0.0011445 -3.74827e-18)
(0.000303181 -0.000242902 -4.79986e-18)
(0.000337964 -0.00417477 3.55069e-18)
(0.00782612 -0.00440863 -7.68963e-19)
(0.000536828 8.4226e-07 3.1282e-18)
(4.93807e-05 0.00059935 1.2802e-18)
(0.000215041 0.00327585 -2.54753e-17)
(0.0125365 0.00779935 4.39488e-19)
(0.0148687 -0.00646902 8.38334e-19)
(-0.00136376 -0.00211021 5.45992e-18)
(-1.67376e-05 -2.26822e-05 -4.54213e-18)
(0.0194393 -0.00131399 1.5894e-18)
(-0.000255753 2.4373e-06 -3.709e-18)
(-5.6332e-05 3.32466e-06 3.99097e-18)
(0.000493425 -0.000278393 4.3244e-19)
(0.000654753 -0.00293301 1.41066e-18)
(0.000183232 0.000784611 -7.26086e-19)
(1.49839e-05 -0.000590222 -9.78709e-18)
(0.0302601 -0.000188059 -1.54574e-18)
(0.00233292 0.000716586 -7.86952e-19)
(3.28834e-05 -0.00171567 5.04485e-19)
(-0.000527012 0.012424 -1.00194e-18)
(0.000362969 -0.00027261 -6.81057e-19)
(-0.018226 -0.00171056 -1.47501e-19)
(-2.6731e-05 3.4596e-05 2.84653e-18)
(-3.45404e-05 0.000165179 4.42477e-18)
(0.00505304 -0.00964376 -1.6597e-18)
(0.0132446 0.00711838 -7.79324e-19)
(0.000129271 0.00275597 -1.06008e-16)
(0.00034496 -0.000296329 2.26511e-18)
(0.000185832 -0.000183408 9.54307e-18)
(-2.07564e-05 0.000162174 -6.37799e-18)
(0.000169636 -0.00142918 5.39995e-20)
(0.000456928 0.00364853 6.84951e-17)
(-0.00285971 -0.000130567 4.441e-18)
(0.000455356 -0.000202085 -1.04925e-18)
(-0.00207145 -0.00370193 -2.05485e-18)
(0.00112902 -0.00160702 2.44872e-18)
(7.73183e-05 -2.31149e-06 4.72445e-18)
(0.00639814 0.00155481 1.77647e-18)
(-0.0026672 0.000111728 6.06922e-19)
(-0.00758696 0.00139579 9.46269e-19)
(4.81718e-06 0.000178183 -7.30829e-19)
(0.00258734 0.00037553 2.74587e-19)
(-0.000106085 -0.000288768 -2.71318e-18)
(-0.00890591 0.00405416 2.4807e-17)
(0.000866761 -0.000732502 -7.39925e-20)
(0.00167258 0.000834672 -2.02925e-18)
(0.000460116 -0.000494994 5.36828e-19)
(-5.53484e-05 2.73552e-05 -3.41647e-18)
(-3.72515e-05 -0.000196486 -1.02903e-18)
(0.000219508 -0.000227858 1.32834e-18)
(0.00183101 0.00148543 -6.55536e-18)
(-4.02391e-05 0.000555177 2.06395e-17)
(-0.00203313 0.000907505 3.37067e-17)
(-1.65711e-05 0.00404056 -1.52311e-17)
(0.000998855 -0.00193865 9.10745e-20)
(-3.38455e-05 4.67184e-05 -1.14971e-18)
(0.00174487 0.00092002 4.24555e-18)
(0.000196059 0.00282341 4.40841e-17)
(-0.00360987 -0.00822351 1.19617e-18)
(-7.65518e-05 -0.000543564 -3.0943e-18)
(2.67635e-05 0.000529523 2.17196e-17)
(-9.37393e-06 0.000114097 -2.25049e-18)
(-6.49339e-05 -0.00146935 -1.48297e-18)
(0.000330933 -0.000298302 -4.61749e-19)
(-0.003551 0.0120116 -1.12154e-18)
(-2.86564e-05 5.6706e-05 -1.68718e-18)
(0.00990819 -0.000291611 2.17439e-17)
(4.91197e-06 -0.00145707 -3.21331e-19)
(-0.00166418 -0.0050304 -2.66123e-20)
(0.000766195 -0.00104952 -2.41258e-18)
(-0.00437315 0.00469011 1.51221e-18)
(0.00179827 0.00069596 -5.9345e-18)
(0.000147049 -2.72053e-05 -1.53165e-17)
(-0.0144746 -0.0023685 -1.45068e-19)
(0.00645713 0.00159938 -5.89144e-18)
(0.00010954 0.000191083 -6.0129e-18)
(-8.40871e-05 -0.00111028 7.70424e-20)
(0.00811238 -0.00206311 2.58008e-18)
(-0.00122424 -0.00182769 1.17851e-18)
(0.00272798 -0.00180625 -2.47666e-18)
(-3.6186e-05 1.76247e-06 -1.62506e-18)
(0.000110297 -0.00025955 9.34611e-18)
(0.00376101 -0.00034349 -3.65401e-18)
(-0.00017903 -0.00118044 2.30261e-20)
(0.00125318 -0.000729693 3.19237e-18)
(-0.000394351 -0.00245147 -1.84687e-18)
(-1.01486e-05 -0.00022044 2.30153e-18)
(0.000221337 -0.00227642 -2.00055e-18)
(0.00704452 -0.0124611 -2.93343e-18)
(-9.09575e-05 -0.000544128 -1.24702e-18)
(-0.000414446 -0.000820063 3.20199e-19)
(-5.54031e-05 -9.73466e-06 6.47597e-19)
(0.010171 -0.00219325 1.91527e-18)
(-1.18789e-05 -1.03288e-05 -4.75826e-18)
(0.00033492 3.27476e-05 2.22672e-17)
(0.0118863 -0.00171441 -1.40185e-17)
(0.000259959 -2.74954e-06 2.18191e-18)
(0.0143299 0.00581382 2.88361e-18)
(0.00041625 -0.000231443 -1.18708e-18)
(0.000196055 0.000875833 2.09721e-17)
(-5.42768e-05 -8.43028e-06 5.39504e-18)
(0.00128202 0.000335981 8.85e-19)
(-4.83059e-06 9.37707e-06 -3.62617e-18)
(0.000521225 -0.000397838 1.60681e-18)
(-6.48828e-05 1.48653e-05 -3.36915e-18)
(0.00206941 0.000165228 -9.90689e-20)
(2.91697e-05 -0.000819212 -1.24083e-18)
(-0.0116882 -0.00138975 -3.43604e-17)
(0.000563853 0.00363208 2.37243e-18)
(-0.0129799 0.00970913 -2.31575e-18)
(-3.83201e-05 -3.27507e-06 6.4e-19)
(-3.47026e-05 0.000131394 -5.35131e-18)
(0.000427489 -0.000764698 1.84471e-18)
(0.000649107 -0.000440422 -6.45485e-19)
(-0.000651384 -0.00337172 1.39221e-19)
(-0.0102552 0.00564384 9.41325e-19)
(0.000923539 -0.000752442 -1.07307e-18)
(-1.96343e-05 3.7258e-05 -2.94308e-18)
(-0.000613787 0.00270069 -9.37599e-18)
(0.000207934 0.00273932 4.75827e-17)
(-0.00738223 0.00099174 -8.0188e-19)
(-0.00195902 0.000702515 -1.42685e-17)
(0.000988903 -0.00116557 1.14916e-18)
(0.0275181 0.00174278 -2.76582e-18)
(0.000739179 -0.000244196 -1.40792e-18)
(0.000130474 -0.00150539 7.80448e-19)
(0.000663984 0.000933138 4.48921e-18)
(0.00144514 0.00218123 -2.6805e-17)
(0.00096464 -0.000732555 5.7535e-19)
(9.19812e-05 0.00286991 3.47952e-17)
(0.000881529 -0.000636403 1.82957e-18)
(-0.000162214 -0.000995207 9.77129e-19)
(0.000842009 -0.00305005 -8.89982e-19)
(0.00049547 -4.39208e-05 -1.54686e-17)
(2.9308e-05 -0.000384081 -7.70989e-19)
(4.91142e-05 -0.00145522 1.34771e-18)
(0.000685056 -0.000386498 6.08783e-19)
(0.000483683 -0.000171527 -7.94428e-18)
(-7.38873e-06 2.73215e-05 6.65423e-18)
(-6.53745e-05 2.27322e-06 7.24402e-18)
(0.00107385 -0.00178337 -1.3197e-18)
(0.000106639 -0.000781476 -9.60965e-19)
(0.00133373 -0.000631825 -1.98683e-18)
(-5.17526e-06 3.82261e-05 1.13012e-18)
(-1.01884e-05 0.000125245 1.55916e-19)
(-1.2283e-05 -1.17003e-05 3.44527e-18)
(0.000272925 -0.000263751 6.31104e-18)
(-4.04536e-05 -0.00019412 -7.66771e-19)
(0.000335194 -0.000201083 -3.79633e-19)
(-5.34535e-05 -9.49849e-06 -1.69779e-18)
(-0.000311673 0.00375194 -8.8856e-19)
(-0.000818362 -0.00110596 -2.32755e-19)
(-0.000881418 0.00265241 -1.52626e-17)
(-1.12453e-05 -4.70092e-05 9.80855e-18)
(-2.22644e-05 5.37904e-06 2.76543e-18)
(0.000435291 0.00119794 -6.16329e-18)
(0.000544815 -0.000340661 2.37093e-18)
(-7.64689e-05 0.000637943 -4.36984e-18)
(-0.0126731 0.000773881 -4.40871e-18)
(0.00159333 -0.000689837 -2.85245e-18)
(0.000420814 -0.00900491 -3.21726e-18)
(7.00358e-05 -0.00146897 7.44585e-19)
(0.00205511 0.000195825 -6.70224e-20)
(9.36615e-05 -0.000448422 3.52104e-18)
(-1.09914e-05 -1.09048e-05 2.21692e-18)
(-7.20509e-05 1.5207e-06 6.20534e-19)
(0.000241571 -0.000280118 -1.10881e-18)
(-0.00144235 -0.00187944 7.2102e-18)
(-1.71491e-05 -6.58932e-07 2.23003e-18)
(0.0064817 0.00383676 -1.12242e-18)
(0.000286655 -0.000202346 9.04996e-18)
(-0.00343723 0.000329465 7.33911e-17)
(0.00116852 0.000686397 4.91978e-19)