/*--------------------------------*- C++ -*----------------------------------*\
| =========                 |                                                 |
| \\      /  F ield         | OpenFOAM: The Open Source CFD Toolbox           |
|  \\    /   O peration     | Version:  v2012                                 |
|   \\  /    A nd           | Website:  www.openfoam.com                      |
|    \\/     M anipulation  |                                                 |
\*---------------------------------------------------------------------------*/
FoamFile
{
    version     2.0;
    format      ascii;
    class       surfaceScalarField;
    location    "50";
    object      meshPhi;
}
// * * * * * * * * * * * * * * * * * * * * * * * * * * * * * * * * * * * * * //

dimensions      [0 3 -1 0 0 0 0];
oriented        oriented;


internalField   nonuniform List<scalar> 
20673
(
-0.000234577
-8.02865e-05
0.000312003
0.000266708
0.000198381
-0.000472898
8.57666e-05
-5.74253e-05
-2.84621e-05
0.000380188
-6.93378e-05
-0.000307444
0.000769579
-0.000780694
4.92111e-06
0.000206348
-0.000216335
9.95926e-06
8.93505e-05
-4.96514e-06
-8.41352e-05
-4.18725e-05
5.30247e-05
-1.12751e-05
2.28378e-05
-2.62386e-05
3.34624e-06
0.000233688
-1.24605e-05
-0.000222785
-0.000126209
3.7609e-05
8.87251e-05
-0.000126533
0.000198735
-7.18439e-05
0.000204166
3.98641e-05
-3.12152e-05
-8.58892e-06
0.000392865
-0.000626037
0.000229723
-0.000202046
-0.000340052
0.000537132
-0.000635554
0.000246517
0.000381308
0.000109515
-5.42405e-05
-5.59956e-05
0.000105252
-0.000231552
-0.000335354
0.000363918
-4.1236e-05
-0.000120356
4.71293e-06
0.000113228
2.21725e-05
6.71679e-05
1.95693e-07
-0.000462276
0.000451423
5.28652e-06
-4.72598e-05
0.000786833
-0.000752966
-4.22674e-05
-0.000103576
8.83089e-05
1.52396e-05
0.000167867
0.000213029
-0.000380786
-7.2429e-05
0.000268111
-0.000195354
-0.000133018
0.000237068
-0.000104287
-5.10924e-05
0.000176055
-0.00012578
-9.42054e-05
-0.000184176
0.000276096
-0.000160494
-0.000202423
0.000358817
0.000351548
7.56965e-05
-0.00042732
0.000118768
-0.000550237
0.000431228
-0.00032399
-0.000450026
0.000768896
-1.79909e-05
-6.5654e-05
8.35076e-05
-0.000427906
0.000417449
-3.89168e-05
1.00856e-05
2.87201e-05
-0.000341591
0.000328537
-0.000111454
9.19209e-05
1.96229e-05
-4.5319e-05
-2.24216e-05
4.41327e-05
-3.34173e-06
-3.89386e-05
4.12639e-05
0.000100936
-6.98118e-05
-2.87055e-05
-0.000328109
0.000290875
3.75277e-05
0.000152828
-0.000295462
0.00013775
0.000555721
-0.000531098
-2.48372e-05
3.48641e-05
7.3253e-05
-6.64443e-06
-3.55348e-05
4.21447e-05
-0.00017496
0.000159756
1.51898e-05
-2.1236e-06
5.78463e-05
-7.63479e-05
3.35786e-05
-6.64835e-05
3.0521e-05
0.000527683
-0.000760938
0.000231586
-0.000195233
2.02468e-05
0.000520905
-0.000402291
-0.000457632
-0.000185242
0.000155492
-6.46469e-06
-0.000151284
-2.16655e-05
-0.000104441
-0.000668082
-0.000190003
0.000849366
0.000284517
-0.000171944
-0.000116239
-0.000120303
0.000267817
0.000129744
-0.000137617
7.72007e-06
0.000577424
-0.000319781
1.33566e-05
-0.000405669
5.80028e-05
0.000237274
-3.09674e-05
3.46556e-05
0.000141121
-0.000176054
-1.42148e-05
0.000743157
0.000723051
0.000110474
-4.87906e-05
3.36882e-05
1.49855e-05
0.000246982
9.40557e-05
-0.00034377
2.26172e-05
0.000741239
-1.98765e-06
2.47943e-05
-2.11685e-05
3.15845e-05
-1.04632e-05
0.000818473
-4.0417e-05
-0.000160215
-2.8135e-06
0.000163
0.000264276
-8.22017e-05
-0.000180879
-2.08762e-05
7.7181e-07
2.00439e-05
0.000216194
-0.000120449
-9.9298e-05
0.000122728
1.66264e-06
-0.000124212
-1.04462e-05
-0.000248864
0.000256445
-0.000331939
7.69429e-05
0.000248104
0.000653683
-0.000207554
0.00022017
-1.24485e-05
-2.97427e-06
-3.60391e-05
0.000138663
-0.000145191
6.39236e-06
7.64915e-05
0.000136313
-0.000339979
0.000332938
-1.58585e-06
-0.000105873
0.000140294
7.28876e-05
-3.94995e-05
8.09875e-05
2.36239e-05
5.04488e-07
-1.92418e-05
1.86985e-05
-5.05729e-05
0.00026157
-0.000212293
-0.000495075
0.000223406
0.000262104
0.000259466
-0.000653629
0.000390497
5.94708e-05
-0.000165538
0.000175412
5.15647e-05
-0.000226946
-2.56588e-05
-3.93784e-05
6.50895e-05
5.08398e-05
-2.02257e-05
-3.07417e-05
-0.000214719
0.000157483
5.75159e-05
-0.000171004
-0.00016168
0.000333218
0.00013337
0.000112805
-0.000259477
-0.000280672
0.000478517
-0.000197799
-0.000230159
-9.76363e-05
-4.10928e-05
-5.42525e-05
9.37593e-05
-0.000279565
0.000336336
-6.71548e-05
1.86264e-05
-3.36289e-05
1.49481e-05
0.000260589
-0.000250011
-1.10256e-05
3.2626e-05
-3.94278e-05
0.000650726
-0.000412689
0.000189017
8.26096e-05
-0.000273814
7.0805e-05
-8.05013e-05
9.61434e-06
-0.000124856
1.34867e-05
-0.000213608
6.21072e-05
0.000152183
3.24559e-05
-1.38947e-05
-0.000104354
0.000548808
-0.000445098
-0.000189407
0.000124353
6.50293e-05
0.000511429
0.00018032
-0.000703552
-9.94469e-06
-0.000167825
0.000177776
2.974e-05
3.55875e-05
-6.54218e-05
-0.000551547
0.0001119
0.000439449
0.000108437
-0.000112742
-2.91904e-05
-1.91724e-05
5.60278e-05
-1.58529e-05
-4.01854e-05
-0.000353498
0.0002813
2.94718e-05
-7.58036e-05
2.70214e-05
-0.000411527
0.000666792
0.000331029
-0.000201026
-0.000135986
-3.34826e-05
4.01172e-05
-5.1097e-05
4.96624e-05
1.34368e-06
-4.09338e-05
-4.0724e-05
-1.32428e-05
5.39277e-05
-0.000656886
0.000551758
-0.00020513
-9.53187e-05
-0.000121293
-6.17147e-07
-3.94127e-05
7.82323e-05
-3.88584e-05
-4.53597e-05
5.05333e-05
-0.000311372
7.40284e-05
8.2493e-05
-0.000253361
0.000778383
-3.59524e-05
-0.000455155
-9.65354e-05
3.03262e-05
6.57284e-05
-9.62858e-05
0.000147756
-0.000264283
0.000110665
0.000736921
1.7194e-05
-0.000756714
-1.49956e-05
-0.000240963
0.000256492
0.000736605
-1.41178e-05
3.017e-05
-7.46529e-06
-2.27847e-05
-0.000142719
0.000245314
-0.000103058
0.000800001
-0.000274083
0.000139969
-0.000219859
7.4726e-05
0.000269269
0.000111642
-0.000385314
-9.69966e-06
6.8648e-05
-5.93982e-05
-8.78882e-05
-0.000101556
-0.00013835
1.05846e-05
0.000127843
-0.000398659
0.000372277
2.42695e-05
-6.04546e-05
-0.000229859
0.000286118
0.000202106
-5.71768e-05
-0.000145066
-0.000165292
0.000408984
5.56931e-05
-4.80308e-05
-7.75341e-06
-3.3023e-06
-1.76732e-05
3.79767e-05
-7.74307e-05
0.000510211
7.10866e-05
-0.000582905
-0.000286239
0.000436262
-0.00015001
-0.0002384
0.000269759
-3.37703e-05
5.14033e-05
-7.73807e-05
-1.73243e-05
-0.000195677
-0.000171525
-4.29661e-05
-0.000104655
6.20686e-05
-6.79301e-05
4.10212e-05
2.7047e-05
0.000330961
-0.000207218
-0.00013078
-0.000452155
0.000171341
-0.00015465
-0.000219535
0.000371307
-9.85375e-07
-6.56399e-05
6.65841e-05
-8.26161e-05
0.000199209
-0.00011597
0.000644469
-0.000333411
-0.000317876
3.24741e-05
-2.14219e-05
-1.11335e-05
0.000360735
-0.000338104
-2.45105e-05
2.97509e-05
-7.06399e-05
-0.000169172
0.000159142
2.94064e-05
6.55264e-07
0.000523698
1.40652e-05
-0.000548391
-0.000220484
0.000168797
-0.000303408
0.000206728
-8.23469e-05
0.000224287
-0.000403674
5.53328e-05
4.37991e-05
-0.000439679
0.000394069
-3.59522e-05
-6.77164e-05
0.000154259
-3.61009e-05
-0.000118132
4.35383e-05
0.000158203
0.000123551
-3.0605e-06
-0.000121527
-0.000153893
3.47477e-05
0.000119519
-8.05539e-05
7.40492e-05
6.54423e-06
0.000124557
1.40015e-05
-4.88656e-06
0.000150907
-0.000146436
-0.000131372
0.000607993
-0.000488914
-0.000279497
0.000276653
3.03735e-06
-0.000194142
0.00036215
-2.81296e-06
-1.78729e-05
-0.000302732
-0.000201193
-0.000234926
1.00972e-05
0.00022423
2.03411e-05
0.000127499
-0.000148168
-0.000142062
0.000167828
-2.4678e-05
-5.65279e-05
3.86143e-05
9.72223e-05
-5.10196e-05
-4.54316e-05
6.83577e-05
-7.89567e-05
1.0288e-05
-3.15222e-05
-5.04908e-05
1.91892e-05
3.09948e-05
0.000398965
-0.000727387
-0.000722933
4.6726e-05
1.54893e-05
3.52494e-05
0.000105023
-3.54707e-05
-6.95852e-05
-6.53898e-05
0.000799357
7.46354e-05
3.64863e-06
-7.81079e-05
-3.48037e-05
2.43359e-05
1.04158e-05
-0.000169447
1.60636e-05
7.02158e-05
-0.0003598
-0.000174641
0.00024952
-7.43256e-05
5.05419e-05
-6.15789e-06
-4.46266e-05
-7.22826e-05
5.68067e-05
1.54267e-05
-3.10451e-05
0.000492433
-0.000470194
0.000127818
1.73362e-06
-0.000176388
0.000687768
-0.000143824
0.00010825
3.49104e-05
-8.54848e-05
2.07109e-05
-3.39594e-05
1.10362e-05
2.28705e-05
1.95114e-05
-3.56853e-05
1.60958e-05
-0.000539663
0.000333199
-7.08998e-05
-0.000174426
0.000244632
-0.000259269
0.000195563
-0.000339357
0.000397337
-7.8685e-05
6.05835e-05
0.000123392
-0.000205479
0.000113235
9.10522e-06
-5.03779e-05
7.18619e-05
-2.15751e-05
-1.78762e-05
-1.69397e-05
-8.95257e-05
-4.9364e-05
0.000124805
0.000171684
-0.000335699
-2.15944e-05
2.20255e-05
0.000126592
-0.000127383
6.50487e-07
-0.000245983
1.54311e-06
0.000247597
0.000222849
-0.000484177
-1.01161e-05
-0.000101286
-5.59236e-05
4.47365e-06
5.14006e-05
1.46736e-05
-7.66031e-07
-1.57465e-05
6.03666e-05
6.87258e-05
-0.000129049
-8.23949e-05
1.28265e-05
6.92366e-05
7.18311e-05
-0.000358278
0.000191025
-0.00029756
0.000103993
2.4945e-05
0.00023951
-0.000185588
0.000426961
-0.00024388
-8.66961e-06
2.50393e-05
-1.64001e-05
-0.000208968
8.9236e-05
0.000123729
-0.000213295
1.04693e-05
0.000201725
-0.000290087
0.00027026
2.02257e-05
0.000208436
0.000117062
0.000564794
-0.000762489
-0.00015801
4.66174e-05
0.000112021
-0.000128949
0.000100192
2.87292e-05
-1.46584e-05
-0.000123327
0.000358516
-0.00031619
0.00052506
-0.000135645
-2.83331e-05
2.92191e-05
-2.09864e-06
1.97432e-05
3.62082e-05
-7.03889e-05
6.85535e-05
1.72251e-06
-0.00012237
-7.243e-06
0.000129609
2.5363e-05
-0.000374887
-3.53613e-05
4.10502e-05
-5.68177e-06
-3.66817e-05
1.21742e-05
2.45797e-05
1.62989e-05
3.92922e-05
2.75369e-05
9.51866e-05
5.1696e-05
0.000213715
-0.000312006
6.83743e-05
-1.40088e-05
-8.0102e-05
-8.13008e-05
5.36726e-05
2.70447e-05
-1.37462e-05
2.56698e-05
-1.19245e-05
4.75505e-05
-4.19521e-05
-6.09491e-06
0.000135502
0.000145146
-2.00954e-05
-3.06618e-05
0.000105579
-0.000291824
-6.16697e-06
-3.1879e-05
3.85593e-05
3.63948e-05
4.92573e-05
-8.57504e-05
-0.00031914
0.000342405
-3.49065e-05
2.4549e-05
7.85654e-06
-0.000149906
9.38881e-06
1.10555e-05
6.04101e-08
0.000590068
-0.000289096
-0.000305049
-0.000277234
-0.000123657
0.000217931
0.00021824
9.75872e-05
-3.73038e-05
0.000497678
-0.000160107
-0.000340602
0.00010473
-1.12114e-05
-9.43731e-05
8.38597e-05
5.38966e-06
-8.94287e-05
-6.60315e-05
1.55308e-05
-1.74156e-05
-5.32819e-05
-0.000558855
0.00051786
4.80509e-05
-3.97793e-05
-8.21988e-06
-0.000491295
0.000589685
-9.95747e-05
9.00039e-06
9.48009e-05
-0.000262411
0.000761603
5.83878e-05
-0.000201462
-0.000114289
5.24313e-05
4.39053e-05
-0.000114825
-2.95754e-05
-0.000153273
0.000341438
0.000155579
0.000168606
4.58486e-05
5.19288e-05
-0.000366878
0.000504644
-0.000144343
1.9955e-06
-9.53384e-05
9.33053e-05
0.000286914
7.19257e-05
0.000166921
9.32565e-05
0.000120158
-0.00018963
6.56707e-05
0.000774656
-0.000217598
8.62483e-05
-2.80041e-05
-5.82868e-05
3.69525e-05
1.07621e-05
-4.77509e-05
-0.000461699
0.00063199
5.28205e-05
4.07122e-06
-7.83664e-05
-6.73945e-05
0.000103895
0.00039232
-0.000649855
0.000246633
1.94139e-05
1.21458e-05
0.000218861
-0.000103556
-2.28799e-05
-1.11193e-05
-0.000251206
-6.74252e-05
0.000323845
-4.84341e-05
0.000225857
-0.000178087
7.02172e-05
-6.63267e-05
-3.86987e-06
0.000151018
-0.000161076
1.00631e-05
0.000686872
-0.000178377
0.000103049
-6.532e-05
-4.32465e-05
-0.000145793
0.000189623
0.000174172
0.000411789
-5.99564e-05
3.955e-06
0.000209101
2.3603e-06
-0.000212125
0.00072138
-0.000355125
-0.000372539
-5.83116e-05
2.10067e-05
3.72311e-05
-8.80455e-05
-0.000191345
-1.85112e-05
-1.81418e-05
-0.000254128
-0.000334503
0.000588132
-8.41109e-05
7.49314e-05
9.22596e-06
0.00021802
-0.000333197
0.000111472
-0.000104405
9.9018e-06
9.44155e-05
-0.00025383
0.000210997
0.000371097
-0.00016277
-0.000209272
0.000104694
0.000265087
4.69765e-05
3.87525e-05
-2.43683e-05
-0.000293405
0.000313969
0.000221905
-0.000379048
7.23609e-05
-1.62153e-06
0.000740463
-0.000141531
-0.000603311
-0.00032092
0.000594182
-0.000278723
-3.61751e-05
5.06491e-06
-0.000254328
1.86553e-05
0.000495573
-0.00071928
0.000215255
-6.34134e-05
-1.7151e-05
-0.000203685
7.06068e-05
-1.23705e-05
-0.000232868
0.00022885
-3.70008e-05
6.65861e-05
-5.78224e-05
8.82219e-05
-3.04576e-05
-0.000360919
2.94965e-05
0.000213668
0.000294928
-0.000521682
-0.000523478
3.27629e-05
-6.97417e-05
0.000204628
8.44496e-05
-8.25363e-07
-2.39804e-05
2.89959e-05
-5.07778e-06
0.000199965
-0.000251274
5.08792e-05
7.8857e-06
7.82664e-05
0.000555592
-0.000844173
0.000279185
-0.000200898
-1.29509e-05
8.50469e-05
4.90263e-05
-0.000134116
-3.8523e-06
-5.34451e-05
5.69191e-05
6.98812e-05
-2.62197e-05
1.24181e-05
-1.41617e-05
0.000247574
-0.000151336
-0.000106915
2.30701e-05
-0.000145383
0.000449207
-0.000131075
-0.000330371
0.000138802
-1.11255e-05
-0.000280965
0.000155581
0.000156578
-5.57761e-06
-8.36866e-05
8.41323e-07
0.000312664
-0.00022743
-8.20993e-05
-0.000257755
-7.5108e-05
0.00032822
5.14623e-05
-3.62281e-05
-0.000173389
-4.78443e-05
7.54335e-05
-3.21017e-05
-4.41264e-05
2.40214e-05
-0.000133762
0.000110177
-2.9831e-05
-7.46129e-05
-2.32286e-05
-4.9077e-05
-0.000396436
0.000208882
0.000256972
-2.47685e-05
0.000369092
-0.000133353
4.92236e-05
7.72565e-05
3.34714e-05
-8.8989e-05
5.54614e-05
-0.000905347
0.000370797
0.000525664
8.51546e-05
1.77524e-05
-0.000809125
9.91428e-05
0.00070231
-4.53704e-05
6.03592e-05
-1.53111e-05
-0.000302907
5.67093e-05
0.000254717
-0.000283311
-0.000200973
0.000373225
-0.000176562
5.3539e-05
-0.000129017
7.54694e-05
-0.000426139
0.000220188
-8.95492e-05
-3.93548e-05
0.00013545
-0.000172002
3.63772e-05
-4.65867e-05
-2.86081e-05
7.52633e-05
0.000264083
-0.000206067
-5.75422e-05
0.000424984
0.000290188
3.56214e-05
-0.000209851
0.000118691
-0.000113921
0.000552083
-0.000451516
5.63522e-06
-1.69619e-05
0.000752126
0.000790532
-7.19444e-05
-0.00072391
-0.000144435
9.26697e-05
-3.73943e-05
5.80784e-06
0.000662339
0.000205483
-0.000875264
3.30761e-05
0.000406777
9.06451e-05
-6.50981e-06
-0.00018635
0.000173204
5.3201e-06
-8.93474e-05
-0.000143175
0.000109402
3.37198e-05
-0.000170805
0.000146588
2.41742e-05
-0.000144627
0.000139353
-0.000115806
5.95746e-05
5.62058e-05
-6.10082e-05
4.50779e-05
1.58714e-05
5.74175e-05
-6.14042e-05
-0.000176169
0.000722114
-2.63563e-05
8.42488e-05
-5.8115e-05
-0.000118451
-0.000220033
0.000220329
0.000118448
-0.000342681
-0.000572605
0.00043057
5.34203e-06
5.55308e-05
4.95098e-05
-0.000100677
-4.24476e-05
0.000245803
0.00029105
-0.000540609
6.99229e-05
-4.26757e-05
-2.74932e-05
0.000428663
-0.000683573
1.21932e-05
0.00032084
5.37335e-05
2.13065e-05
0.000556354
-6.03564e-05
-0.000502008
-0.000153406
3.5415e-05
0.000118099
0.000437729
0.000204888
-6.51831e-05
-6.31749e-05
3.25104e-05
-1.31636e-05
-3.2841e-05
6.24378e-05
3.1912e-05
-6.4965e-05
-0.000202349
0.000217805
-1.67022e-05
-3.69054e-05
-0.000133945
-1.17956e-05
-4.66343e-05
5.11991e-05
-3.86564e-06
-4.73198e-05
-1.61736e-05
-6.29422e-06
2.23921e-05
3.80916e-05
5.9347e-06
-4.76003e-05
-6.13116e-05
3.18468e-05
2.92001e-05
1.80406e-05
0.00053237
0.000195313
0.000541136
-0.000743093
-2.43863e-05
-3.42065e-05
5.83067e-05
-4.73229e-05
5.63299e-05
-7.53264e-06
-3.35637e-05
0.000147832
-0.000131436
-1.74151e-05
2.96961e-05
-6.42922e-05
3.45659e-05
-2.54091e-05
9.016e-06
1.63283e-05
0.00035324
-0.000477552
6.13946e-05
-2.8074e-05
-3.33711e-05
0.000168113
-0.000152275
-1.6024e-05
0.000172773
-0.000208834
3.55683e-05
7.68682e-05
-5.54907e-05
-2.13756e-05
-0.00018407
-0.000461124
-0.000452529
1.20252e-05
-3.15499e-05
0.000176444
-0.000344364
8.88945e-05
0.000147421
4.64243e-05
-0.000113698
6.71662e-05
-1.00548e-05
0.00020961
0.000213468
0.000281002
0.00014499
-2.94333e-05
-0.000115595
0.000168932
-1.55926e-05
-1.67676e-05
6.79047e-05
3.34254e-07
5.08059e-05
0.000120023
0.00012508
-0.000138177
9.17709e-05
8.14782e-05
-5.13793e-05
3.08292e-05
3.11228e-05
-0.000106928
-7.78127e-05
0.000184346
8.09293e-05
-4.03391e-05
-4.08806e-05
-0.000163784
1.58217e-05
0.000149289
-6.44152e-05
-6.65356e-05
0.000131029
2.97573e-05
5.12778e-05
-0.000202585
0.000152374
2.63195e-05
1.40159e-05
-4.05979e-05
-3.42046e-05
5.23538e-06
1.93121e-05
5.53313e-05
-6.8698e-05
1.31796e-05
4.54512e-05
3.53695e-05
-8.10679e-05
-4.23949e-05
0.000162501
-0.000117934
-0.00021398
0.000387083
-6.70381e-05
0.000192424
-0.000129207
-1.1025e-05
-1.4453e-05
2.38722e-05
8.54104e-06
0.000577329
-0.000195335
-2.3684e-05
1.77248e-05
3.87377e-05
-9.96114e-05
6.07465e-05
-2.05738e-05
-4.04416e-05
9.9012e-07
2.4065e-05
1.99852e-05
5.68449e-05
-0.000126793
8.925e-06
0.00011918
1.86893e-06
-0.000154914
0.000152623
-0.000699834
0.000351022
0.00033659
-2.46622e-05
3.72952e-05
-1.26944e-05
2.02021e-05
-3.22844e-05
1.22393e-05
0.000403654
-0.000139018
3.57524e-06
0.000275255
-0.000283496
-4.21602e-05
-7.36894e-05
1.58376e-05
0.000138041
8.33116e-05
4.31556e-05
-0.000126494
-3.51983e-05
-3.25231e-06
2.05692e-05
9.64935e-06
-3.02679e-05
-0.000167224
-2.57845e-05
0.000106597
-8.08605e-05
-0.000130518
8.89858e-05
-0.000112267
-3.30043e-05
-1.1726e-06
5.03301e-05
-4.91599e-05
-0.000108961
6.50655e-05
4.40933e-05
0.000465569
-0.000264083
0.000408905
0.000183207
-0.000598237
-0.000205017
-6.7757e-05
2.18823e-05
5.79556e-05
1.4897e-05
-0.00023478
0.000515901
-2.85594e-05
-0.000121308
0.000133802
0.000113437
-0.000157991
-4.4892e-05
9.42144e-06
3.09899e-05
-5.56475e-05
-5.16714e-05
-8.84522e-05
-7.23752e-05
0.000161094
7.4516e-06
3.94246e-05
0.00021832
-9.56119e-05
4.95538e-05
2.03034e-05
-2.94716e-05
4.77524e-05
-1.83626e-05
-6.39454e-05
-0.000111184
0.000173637
-0.000281203
6.77768e-05
9.82535e-05
0.000684573
-0.000662117
0.000719398
-5.803e-05
-9.30845e-05
0.000128106
-3.65578e-06
-0.000278942
0.000319986
-4.87883e-05
0.000682239
-0.000669107
-1.57512e-05
-0.000130293
-0.000176103
1.35841e-05
8.90512e-06
6.12819e-05
-0.000899108
0.000429413
-0.000491526
0.000183207
0.000302783
0.00037605
-3.63527e-06
-0.000376996
-2.04226e-05
4.65269e-05
0.000220416
-1.20669e-05
-0.000124371
4.86697e-05
-7.49733e-05
-4.70654e-05
3.61922e-06
4.33169e-05
-3.0613e-05
4.94796e-05
0.000229927
-6.4232e-05
0.000182155
0.000452868
-0.000644429
-2.72757e-05
1.85668e-05
9.49514e-06
0.000176269
-0.000501966
-3.17646e-05
0.000149416
-0.000116917
-9.33407e-06
6.44853e-05
0.000336384
-0.000270178
-6.76595e-05
7.67902e-05
-3.01119e-05
-6.06728e-05
0.000184052
-1.17929e-05
0.000145469
-2.8476e-05
-0.000117682
9.88294e-05
-0.000156075
5.71411e-05
-7.52419e-06
-3.97033e-05
0.000519751
-0.000188312
-0.000332363
7.16026e-05
-4.21157e-05
0.000217503
-0.00047972
3.64095e-05
-5.39497e-05
0.000135085
-5.1448e-05
1.50392e-06
5.00266e-05
0.00061102
-0.000182128
-0.000181111
3.60537e-05
0.00014224
6.13318e-05
-0.000133842
-1.48669e-05
-1.14113e-05
2.46385e-06
3.20904e-05
3.13484e-05
-5.19089e-05
-0.000216743
1.35947e-05
-0.000584157
0.000239566
-0.00013229
-0.000181666
0.000311063
-0.000566493
-0.000339337
-0.000344587
0.000346345
-2.56296e-06
-0.000244917
0.000738316
5.34359e-05
-3.03775e-06
-0.000207249
3.78761e-06
-5.52157e-05
0.000130392
-4.70865e-05
-0.000529528
0.000229629
0.000294086
-7.62305e-05
5.93388e-05
3.14688e-05
-1.14919e-05
0.000551225
-0.000363066
-0.000192059
-0.000298309
0.000835115
-0.000539252
-0.000189981
6.74125e-05
0.000122641
1.04617e-05
-3.85343e-05
2.82489e-05
-2.94309e-05
2.18463e-05
7.53287e-06
0.000150435
-0.000159008
8.21651e-06
-4.43442e-05
-8.3511e-06
1.91639e-05
-5.62841e-05
-0.00028569
1.62099e-05
4.22526e-05
0.000233543
6.59408e-06
-0.000243152
6.89385e-05
-7.54298e-05
6.22519e-06
-0.000140996
0.000492565
0.000171535
3.60504e-06
9.65197e-05
-0.000120669
2.42146e-05
2.96192e-05
5.10241e-05
0.000190113
-3.27796e-05
-0.000155963
6.2117e-05
-2.58604e-05
9.86354e-05
9.13567e-05
-0.000193051
-2.16809e-05
5.42606e-06
-0.000235288
-1.45229e-05
-0.000343851
5.85757e-05
1.62172e-05
3.20628e-05
3.25463e-05
-2.18177e-05
0.000215195
-0.000232188
1.72778e-05
0.000172394
-7.66928e-05
0.000387115
0.000249555
3.94591e-05
0.000639971
0.000263381
-0.000156139
-4.89186e-07
-3.53679e-05
-0.000135671
0.000170516
-0.00030566
-2.89712e-05
-0.000108928
4.50807e-05
-0.000447741
-0.000261314
9.7892e-05
-0.00016926
0.000168363
-0.000203164
-0.000159762
-2.42746e-05
0.000184253
-0.000754699
0.000336194
0.000407984
-6.21606e-05
3.3457e-05
2.85905e-05
-0.000191243
-5.70706e-06
0.000140994
-0.000234094
0.000220012
4.6266e-05
0.000288486
-6.46084e-05
-0.000118119
-0.000186145
2.9775e-05
0.00013956
9.14224e-05
-9.00651e-06
-8.2735e-05
-0.000339623
0.000132745
-0.000328988
0.000274411
5.32641e-05
8.52185e-05
0.000470299
0.000108659
1.78275e-06
-0.000110523
-0.000114334
0.000138329
-4.01625e-05
-2.75534e-05
0.000206555
-0.000234369
7.92955e-05
-5.33339e-05
-2.64754e-05
3.43001e-05
0.00018113
-6.79058e-05
-1.69104e-05
8.48501e-05
-0.000138351
-6.71184e-05
0.000356036
0.000158313
-0.000514937
-0.000523691
0.000275772
-0.000285458
0.000194208
9.34623e-05
-0.000232094
5.75213e-05
-4.31857e-05
4.20519e-05
-0.000260765
7.2668e-06
-0.000154424
0.000214767
-0.000214333
1.94057e-06
-5.71051e-05
9.48247e-05
-1.03005e-06
0.000191066
-0.000191119
-3.36201e-05
2.27483e-05
1.08045e-05
0.000271276
-0.000299392
2.65604e-05
0.000647831
-0.000245995
-1.38044e-05
2.31844e-05
-9.44598e-06
-3.34651e-05
3.59904e-05
0.00020145
0.000458859
-0.00066891
0.000137863
-0.00016889
3.03362e-05
-3.06073e-05
6.91502e-07
0.000139137
1.08682e-05
3.81001e-05
8.86552e-06
-4.06275e-05
3.3146e-05
1.57543e-06
-0.000273055
0.000271863
1.80746e-05
0.000207041
0.000121139
0.000194288
-9.25443e-05
5.93923e-05
-0.000125352
-3.22153e-05
8.64593e-05
6.30477e-06
1.49991e-05
8.54295e-05
-0.000100793
1.44163e-05
0.000117885
9.82364e-05
-0.000212274
-0.000352198
0.000332704
2.31772e-05
-2.46349e-05
-0.000149407
0.000156689
-1.78433e-05
5.47457e-05
-0.000135063
1.20259e-05
-0.000321584
0.000563437
6.88862e-05
-6.99179e-05
0.000584989
-0.000257704
-0.000331858
4.19522e-06
2.86533e-05
-0.000335209
0.000100969
-0.000271847
0.00034761
-0.000161067
-0.000176172
0.000368215
-0.000194331
-0.000697238
0.000424105
-7.7394e-05
0.000194461
-0.000118243
-0.000124355
-5.16091e-06
0.000108826
-0.000105656
-0.00018793
0.000292278
-1.75799e-05
-0.000107741
1.03613e-05
0.000157497
0.000175009
-9.88107e-05
-7.59232e-05
-4.06106e-05
1.10749e-05
5.4374e-06
-4.46124e-05
-0.000373748
0.000156663
7.19867e-05
0.0001309
0.000111313
-0.00024402
3.69193e-05
-3.31324e-05
-3.78517e-06
3.39153e-05
-9.63909e-06
-2.43586e-05
2.52255e-05
-8.01541e-05
0.000613379
-0.000875657
0.000255685
9.15364e-06
8.1202e-05
-0.000210991
-2.09539e-05
-2.13234e-05
-0.000138239
0.000111105
-2.96343e-06
6.45521e-05
-3.85589e-05
-2.63281e-05
5.95922e-05
-0.00012517
6.54577e-05
1.42359e-05
0.000260526
-0.000277246
-0.000118079
-0.000171914
8.93828e-05
-1.40966e-05
-7.55331e-05
-0.000224261
0.000233778
-6.42913e-05
8.95339e-05
0.000145652
6.88608e-05
-0.000214362
-2.87146e-05
-8.07099e-05
0.000109183
8.84282e-06
-0.000225041
0.000218315
8.37084e-05
-1.43352e-05
0.000462378
-0.000291533
-7.66951e-05
0.000163
-8.48527e-05
-4.04359e-05
-0.000241014
0.000275463
-8.87451e-05
-0.000282917
0.0003902
0.000506233
-0.000794134
0.000277314
4.08879e-05
5.74399e-05
-1.50929e-05
-4.2418e-05
4.4368e-06
6.87433e-05
-7.29555e-05
-4.7004e-05
-4.59528e-05
0.00076419
-0.000155761
0.000727308
-9.28089e-05
-0.000640889
-0.000135887
-7.53252e-07
5.28927e-05
0.000469309
-0.000526958
-0.000136754
0.000199562
-5.6614e-05
-0.000410128
0.00029671
0.000108447
-7.21575e-06
0.000159135
-0.000168021
1.71182e-06
-2.64297e-05
9.97955e-05
0.000137767
-0.000236837
-3.82354e-05
0.000234067
-0.000232007
-9.02091e-06
0.000227465
0.000132327
-0.000145659
1.0151e-05
0.000391294
-3.67361e-05
-0.000354677
4.21541e-05
-0.000149964
0.000190909
0.000473143
-0.000664655
0.000104628
-8.4727e-05
-2.00896e-05
-4.64906e-05
0.000248925
-0.000203691
8.82652e-06
0.000129772
0.000177226
6.83806e-05
-2.708e-05
-4.13938e-05
-7.35084e-05
8.47009e-05
-1.18309e-05
6.45255e-05
-0.000121228
5.45861e-05
-5.13698e-05
0.000146661
4.9836e-06
-0.000376879
3.84662e-05
5.04548e-05
-8.89572e-05
-2.57824e-06
0.000132379
-1.74702e-05
-2.74303e-05
4.46391e-05
-0.00038109
-3.33756e-05
0.000136426
-5.14154e-05
0.000335619
-3.04358e-05
-0.000306917
0.00016409
-0.000211535
-0.00011012
5.27724e-05
-0.000116143
0.000110647
1.87697e-06
-6.64576e-06
7.14702e-06
0.000205311
1.06106e-05
-0.000714874
0.000702187
0.000331541
-0.000733995
0.000397276
-9.96069e-05
8.55721e-05
1.37917e-05
0.000223549
-0.000562753
0.00052473
-0.000503624
-2.54539e-05
-0.000224217
0.000160709
6.11826e-05
-0.000465218
0.000287387
0.000163014
-4.22408e-06
-2.06644e-05
2.10208e-05
0.000197106
0.000461821
5.63719e-06
3.12709e-05
-0.000157567
-0.000176348
0.000330962
-6.55119e-05
0.000186616
4.70159e-05
-9.32622e-05
1.14022e-05
-2.63109e-05
-0.000225486
0.00028838
-0.000720012
0.000423725
0.000454885
0.00014913
1.99357e-05
8.44042e-05
-2.99805e-05
3.1841e-05
-1.35194e-06
7.17689e-05
-6.69726e-05
-4.87815e-06
0.000269836
0.00024892
0.000205059
-0.000194384
-0.000164911
6.22978e-05
2.26325e-05
-2.92313e-05
0.000196386
-0.00014403
-0.000313347
6.51933e-05
-5.81197e-05
-7.04474e-06
-0.000557543
0.000222579
-3.07446e-05
5.17165e-05
-0.000225786
0.000462783
-0.000243507
-0.000649222
0.000276471
0.000369854
4.03249e-05
1.69159e-05
-5.72702e-05
-0.000841142
2.46915e-05
-2.6855e-05
7.30999e-05
-0.000470299
-0.00020585
0.00066737
0.000114935
-0.000105348
-2.51816e-05
0.000285146
-0.00020493
-0.000156054
0.000374239
-9.1519e-05
-0.000119435
0.000207242
2.80716e-05
-2.386e-05
0.000101603
-2.6384e-05
-7.51539e-05
-0.000214632
-0.000384341
-0.00015041
8.76633e-05
6.61288e-05
9.8161e-05
-0.000190653
9.28914e-05
-4.83415e-05
-4.04051e-05
1.65177e-06
-4.49337e-05
2.25177e-05
2.20407e-05
-6.76446e-05
-8.0082e-05
8.90758e-05
-0.000293649
6.79354e-05
0.000231084
9.18393e-05
1.98882e-05
-0.000111362
-3.7129e-05
5.6541e-05
-0.000137207
7.82457e-05
0.000160968
-7.30569e-05
0.000223141
-0.000191754
-3.3764e-05
0.000141476
-1.09756e-06
-0.000141486
5.93049e-05
-7.51426e-05
1.55044e-05
-0.00084949
0.000599424
0.000248761
0.000686408
-0.000307402
-0.000389948
-6.01046e-05
-0.000286489
-9.96378e-05
0.000190113
-9.0198e-05
0.00018772
-0.000129683
-5.54896e-05
-0.000105593
0.000117718
-1.40581e-05
2.60185e-05
-1.03901e-05
-1.56321e-05
-2.413e-05
1.66113e-05
2.85841e-05
0.000162056
-0.000174982
-3.53206e-05
-2.34549e-05
5.84637e-05
-0.000107116
9.03825e-06
9.62345e-05
0.000160267
-0.000283993
0.000117454
-0.000145423
-0.000385835
3.07866e-05
0.000119
-0.000225784
0.000528893
1.19057e-05
-0.000546515
-0.000152016
0.000419935
1.88698e-05
1.50083e-05
5.0387e-05
-7.18733e-05
2.04587e-05
-7.39795e-05
5.34947e-06
6.85767e-05
3.0896e-06
-0.000466369
4.78026e-05
-3.70632e-05
-3.64223e-05
5.80673e-05
-2.086e-05
-0.000120956
0.000193776
4.07431e-05
6.01788e-05
-0.000100954
-0.000166606
-7.69354e-06
0.000174327
0.000301091
0.000373995
7.91658e-05
9.87829e-06
7.52298e-05
-0.000141383
-8.69161e-05
0.000141405
-2.27211e-05
-0.000219751
3.46133e-05
6.38394e-06
2.9812e-05
-0.000159293
2.37565e-06
-0.000110563
6.03528e-05
-0.000158928
0.00025964
-9.81349e-05
-0.000152539
0.000153972
0.000124475
0.000216095
0.000162152
-9.74823e-05
-6.34478e-05
-0.000295851
-0.000162955
0.000458877
-0.000308068
0.000306691
-7.15609e-06
-6.6155e-05
0.000237764
0.000182807
-0.000431943
5.23308e-05
-0.000521999
0.000469892
4.75435e-05
0.000133299
-5.33515e-07
-3.27255e-05
7.01157e-05
3.5612e-05
-0.000105765
8.24328e-05
-5.90804e-05
-2.34074e-05
0.000535579
-0.000180142
-7.89902e-05
2.1151e-05
6.96874e-05
9.81626e-06
-7.95158e-05
0.000526754
0.000239991
5.79817e-05
-3.88659e-05
-5.82488e-05
-7.94603e-05
-2.54466e-06
7.21931e-05
-0.0001093
8.97247e-05
1.95349e-05
1.12256e-05
1.48066e-05
-8.08457e-05
0.000179475
1.3083e-05
6.59896e-05
-0.000428292
0.000605268
9.83191e-05
-6.59856e-05
3.01855e-05
8.15291e-05
-4.8081e-05
-3.56794e-05
-9.44307e-05
0.000439204
-0.000224592
-0.000384058
0.000664269
1.92079e-06
1.42927e-05
-7.21524e-05
5.72279e-05
-0.000328926
-0.000160339
0.000488549
-5.09824e-05
2.33215e-05
2.76181e-05
0.000202995
0.000227748
-9.07071e-06
-0.000617221
0.000623325
0.00014542
-8.66187e-05
-5.88242e-05
-0.000224155
3.2396e-06
0.000220115
-0.000353842
-0.00049614
0.000422317
0.000236347
-0.000158489
-8.02592e-05
-0.000210184
7.9322e-05
0.000127381
2.55231e-05
0.000149567
0.000154199
0.000267956
-0.000414752
-0.0002171
0.000629764
0.000107555
-0.000263907
7.78784e-05
2.3721e-05
-2.71874e-05
6.74721e-05
-0.000174595
6.73555e-06
-5.03077e-05
-0.00023828
-0.000140585
0.000156089
0.000134175
1.05929e-05
0.0001006
-0.000101767
1.09516e-06
-1.69265e-05
8.86492e-05
0.000131627
-0.000219781
-0.000309989
1.52866e-05
-9.00664e-05
-0.000443662
0.000212124
-8.60777e-05
8.57371e-05
-0.00044296
4.32567e-05
-7.30966e-06
-4.30845e-05
0.000414956
0.000169563
-0.00015663
-5.3669e-05
-9.06271e-05
0.000144297
-5.28524e-05
3.39729e-05
1.87272e-05
0.000266281
-0.000259066
2.56462e-05
-1.2516e-05
-3.95722e-05
5.21431e-05
0.000202398
0.00013999
0.000607743
-0.000751432
1.5406e-05
1.4627e-06
-1.68961e-05
-0.000148313
0.000297082
-0.000319925
0.000646095
-0.000315987
-0.000110713
0.000426819
0.000128944
1.59179e-05
-4.21697e-05
-0.000445532
-0.000319304
1.11986e-05
6.11834e-05
-7.2324e-05
-3.68627e-05
-4.21861e-05
-1.72678e-05
3.3631e-05
-1.64856e-05
-4.13322e-05
-1.31917e-06
4.25028e-05
-8.19154e-05
1.62541e-05
8.44992e-05
-0.000446486
0.0003533
2.00641e-05
3.65302e-05
-5.65813e-05
-0.000583864
0.000720581
0.000663261
-0.000304591
-0.000371232
-0.000835386
0.000534524
-7.22725e-05
0.000118589
5.7405e-05
1.42777e-05
-0.000100133
3.65747e-05
6.29948e-05
7.14423e-05
-1.1468e-05
-0.000678588
0.000199619
9.08969e-07
0.000481898
-0.000166959
0.000147262
1.71088e-05
-0.000723495
0.000731892
-0.000164103
0.000650627
6.8826e-05
5.69271e-05
0.000107388
-0.000155571
-0.000255719
0.000235253
1.95926e-05
3.37228e-05
-7.70277e-05
4.31594e-05
-0.000160785
0.000361985
-2.88267e-05
0.000258162
-0.00023075
-0.000131468
-0.00040376
1.3338e-05
2.39081e-05
2.68449e-05
-3.93802e-05
-3.25345e-05
-4.80029e-05
-6.17108e-05
2.6155e-05
-0.000178157
1.15787e-05
8.34256e-05
0.0001184
-6.4883e-05
0.000240676
1.44089e-05
0.00012682
-0.000135273
0.000238614
6.77033e-05