/*--------------------------------*- C++ -*----------------------------------*\
| =========                 |                                                 |
| \\      /  F ield         | OpenFOAM: The Open Source CFD Toolbox           |
|  \\    /   O peration     | Version:  v2012                                 |
|   \\  /    A nd           | Website:  www.openfoam.com                      |
|    \\/     M anipulation  |                                                 |
\*---------------------------------------------------------------------------*/
FoamFile
{
    version     2.0;
    format      ascii;
    class       volScalarField;
    location    "850";
    object      omega_0;
}
// * * * * * * * * * * * * * * * * * * * * * * * * * * * * * * * * * * * * * //

dimensions      [0 0 -1 0 0 0 0];


internalField   nonuniform List<scalar> 
13917
(
5.82225
0.0318522
0.190526
0.0220363
0.0243899
0.0314053
0.0258516
0.0601916
0.0251512
6.73269
0.0553728
0.0216162
0.0241971
1.70329
0.0248301
7.48544
0.0236155
0.0494469
0.109997
7.89626
0.0295822
0.0213731
0.0428138
0.0213711
0.0227375
0.0308469
0.520528
10.5458
0.0379084
0.02038
9.22991
0.0657566
0.022008
3.22826
0.0209765
0.0648814
0.0230265
0.022813
0.0258945
0.0339453
0.0271662
0.0212941
0.0237335
0.105453
0.104381
0.184726
0.0283846
9.04644
0.277717
0.0209872
0.0215893
0.107677
18.2307
0.0214824
0.0215471
0.106791
6.63935
0.0427551
0.0212351
0.182831
4.68923
0.0247455
0.0268078
0.0226122
2.24165
0.075958
0.0408932
0.0633457
0.0535433
6.03571
0.341072
3.30139
0.0216662
0.0210714
0.0302903
0.0229994
0.0227298
0.0210191
0.0228594
0.0220611
0.0217808
0.0232277
0.021655
0.332207
0.0211262
0.0868241
0.0632764
0.0214889
0.0334624
0.0232195
0.0209394
0.0239304
0.251509
0.0207958
0.0218334
0.0407813
0.171427
0.0223632
0.0214183
0.100339
0.0271298
0.026435
0.0218217
0.0212533
0.0226909
0.393691
3.05947
0.0247972
0.0215069
1.23993
0.0215214
3.19653
0.0379412
6.51383
2.20867
0.0232746
0.103045
0.0217044
0.1679
0.0216137
0.0226223
0.0207915
0.044101
0.0884404
5.69567
0.448056
0.022498
0.0316351
0.0208986
0.0899998
0.0316362
0.145712
3.54934
0.0232327
0.0772804
1.41918
4.44623
5.54359
0.0324078
0.0227818
1.02486
0.02088
0.341459
0.0210684
0.0215999
0.0235052
0.40443
0.619855
9.79466
0.0215131
0.031217
0.026318
0.0215823
0.0216229
0.428968
0.0216887
0.0212113
3.71971
0.0249929
0.0226547
0.0210828
2.71342
0.0241563
1.00261
2.84875
0.123217
22.0978
6.69342
0.0197504
0.034082
0.0214358
3.39795
0.025139
2.8979
0.0639651
0.0256285
0.0220416
0.117846
0.0308941
0.024497
0.0236026
0.021384
0.0215838
0.16396
0.170544
0.144904
0.0215613
0.161967
0.0203778
0.0795353
0.0640194
0.096622
0.13116
5.47035
0.0208015
5.45091
0.0246755
3.41415
0.0209528
0.0215725
0.027042
5.78689
6.95301
0.0227264
0.515349
0.0300761
0.0316601
0.0208796
0.115788
0.0217776
0.0207498
0.0265527
0.0273755
9.60505
0.0750492
0.0321918
2.96177
0.0221247
0.0203769
0.0203705
7.06652
0.145032
0.184012
0.0213468
0.0273546
1.86351
6.38069
0.0203391
0.0203327
0.0268646
0.0203873
0.0203812
3.48192
6.17047
0.0215175
0.0197622
0.0697484
3.53598
0.0244448
0.0213441
0.584791
0.395808
0.15278
2.99063
0.087925
0.0210757
5.21086
0.0727596
0.0357551
0.0730293
0.0225758
7.49841
0.0216213
0.0372632
0.0579258
0.021573
0.0270537
0.022601
0.0237775
0.0210124
3.96335
1.59391
0.0207656
0.0203325
0.0217643
0.0203348
0.0216265
0.0241815
0.0341939
0.0208413
4.50376
3.00138
0.0214064
0.02292
0.212168
0.02033
0.0806647
3.60301
0.0203354
4.52093
0.0209565
2.67157
0.0261548
0.0239237
0.0216131
0.0210281
0.141265
0.0222191
0.161392
0.0264033
1.60271
0.0239683
0.185352
5.95089
0.0224824
0.0483944
0.0239615
0.0234448
0.024192
0.0228404
0.0208336
0.0218977
0.115648
0.0311543
0.0362742
0.0227248
0.0213268
3.62063
8.95384
0.0208396
0.0210104
0.0234772
0.0467474
0.124964
2.99375
2.54843
0.0548376
0.125212
0.0227788
0.320782
0.0478508
0.190503
0.0240592
0.0246201
0.496124
0.021559
0.0336201
0.0953857
0.0239858
3.3694
0.0211603
0.0409492
0.0206119
20.8977
0.0207433
0.0343989
0.030548
0.0439724
0.0230197
0.0734136
0.303205
0.0217766
0.0215542
3.19466
0.315919
2.2576
1.42309
0.0203126
0.0215156
0.439672
0.126495
0.0203209
0.0241707
0.0215324
0.0455656
0.0353916
0.106475
0.0832929
0.0808886
0.0401275
3.35724
0.0209217
0.0217854
0.0249108
0.164748
0.0247695
6.65459
0.0400459
0.284267
0.0215746
0.107279
0.0213209
0.16786
0.0213927
0.185988
0.210035
0.0322006
0.0214216
0.28068
0.0208573
2.88163
0.140918
0.0214536
0.187797
0.0218095
0.312712
0.0205783
6.9799
0.311319
0.0227505
2.24149
0.0697905
0.0223453
2.67131
0.200886
0.0225068
0.144112
0.021474
0.070465
0.18803
0.0211795
0.0255387
0.0227197
0.0210294
0.0208869
0.0209594
4.53949
0.122012
0.0216687
0.0209821
0.0212796
0.0465688
0.0729828
0.0204165
0.0197753
0.122541
0.105144
0.0210457
0.0226628
2.38353
1.49083
0.126469
0.116458
0.279753
0.0206388
0.0203766
0.0274332
0.0208799
0.0204225
0.0215602
0.0203838
0.0206037
5.99318
0.0215097
0.0364919
4.1797
0.0477768
0.0207612
0.0215653
2.6762
0.0270382
6.93262
0.0205273
0.0213156
0.0209315
0.0204001
0.0229357
0.0219036
2.29562
0.0165714
0.394018
0.0213103
0.0337784
0.0163107
0.021722
0.0860203
2.32516
0.0215099
2.38167
0.0207867
0.0211601
0.0212458
0.0218248
0.0207224
0.0219097
3.64457
3.55994
0.0207106
0.184375
0.119966
0.0217977
0.0525167
0.073462
2.73837
0.0262664
0.325757
0.293046
0.302466
0.0219193
0.0566744
0.0135428
0.0224749
0.357912
0.0211949
0.0214539
0.0218396
0.0253173
0.0292418
0.154043
0.0512928
0.0227284
0.0232816
0.0486811
0.0477698
0.0216654
1.9592
0.0338608
0.0264348
2.79063
0.0211339
0.0498157
0.1298
0.0207926
3.81983
0.0212367
0.0203972
0.0479056
0.020537
0.0219841
0.112833
3.91967
2.63235
0.0210836
0.0222481
0.0219281
0.309722
0.387408
0.0215935
0.0215192
0.0210709
0.0537391
0.481215
0.0209146
0.0242636
0.0215172
0.0210199
0.0229423
0.026877
0.021778
0.0520325
0.0207935
0.0213155
0.0226194
3.0416
0.0204149
0.0233312
0.021015
0.0326778
0.0622384
0.047333
0.0604164
0.107153
0.0224261
0.0443952
3.25179
5.03328
3.85621
0.0207856
0.0212093
0.0231247
0.0213624
2.27779
0.0203604
0.698603
0.0246856
2.57948
0.0905914
0.0237244
6.19505
0.0207004
0.0629017
0.0221411
0.0215766
2.92658
0.0204659
0.187359
0.0273728
0.0227057
0.0212407
0.149495
0.0229872
0.0203183
0.106836
0.0512517
0.661373
0.273592
3.61467
2.73735
0.0204203
6.2609
0.0231042
4.342
0.635547
0.021903
0.0215369
0.0269861
0.0333019
0.0233872
0.0204739
0.0221031
0.0238401
0.285446
0.021127
0.0594317
0.0214282
0.0203103
0.0246635
0.156078
1.4522
14.6374
0.068222
0.0267986
0.261962
3.45928
0.0205914
1.22508
0.0236497
0.099509
0.021354
0.278329
0.0210057
0.0230923
0.0216196
0.65557
0.0345399
2.67696
0.021513
0.0328836
0.0209812
0.0274143
3.24375
0.117667
0.0210761
0.115636
0.0213265
0.0213939
0.0269362
3.12836
0.0211313
0.0239389
0.0203552
0.0210238
0.164356
0.0263112
0.108655
0.0229837
0.020762
4.76854
0.0612956
0.0215513
20.1647
0.183648
0.060196
0.131475
0.0206892
0.0253288
3.13004
0.203485
0.0266655
0.0230412
0.0233737
0.022516
0.0209782
0.0859204
0.0671359
0.0239594
3.78865
0.0350163
0.0874661
0.546979
0.030817
0.0330642
0.128377
4.03355
0.0208379
0.0258685
0.108037
0.0207752
0.0214697
0.0248499
0.0225248
0.0220701
6.02359
0.034145
0.0209837
0.088902
0.0213762
2.98282
0.0209527
0.0208908
3.94077
0.0586234
0.335542
0.0217018
0.0215704
0.0208506
0.0219832
0.0271934
0.0210026
6.37568
0.0279339
0.569783
0.329594
0.0256883
3.59801
0.0222479
0.021798
0.0210142
3.53084
2.63492
0.0249656
6.3464
0.593005
0.0207507
0.0208601
0.0229325
0.300704
0.333841
0.0346925
0.0219491
0.0233229
0.102737
0.0224886
0.10606
0.0341911
0.0217828
0.0220748
0.0218919
0.0270727
0.0232933
0.213574
0.0236742
0.0223645
6.06451
0.0219855
0.530155
0.0228566
0.0282801
0.0246461
0.196206
0.0226699
0.0593276
1.14893
0.249659
0.0213853
0.0236927
0.0224677
0.0212967
0.0216123
0.0262795
0.0147495
0.152854
0.108996
0.0206679
0.231841
0.0250894
0.0253356
0.119605
0.0215647
0.062761
0.146466
0.0203338
0.0587072
0.0746356
0.0338413
0.0208701
0.020745
0.0209683
7.52483
0.0219668
0.0210509
0.0403452
0.0210185
0.0207846
0.102031
0.160852
0.0287542
1.84848
0.042097
0.473196
0.0216193
0.0229414
0.254857
0.0219284
0.026318
0.0232547
0.021405
0.0216708
0.0239516
0.0496318
0.0208646
0.199551
0.0214025
0.651852
0.022892
0.026252
0.0206193
0.0735753
0.0241178
2.57294
0.0295666
0.0243642
3.03183
0.0221281
4.142
0.0232226
0.037584
0.0222714
0.0207346
0.0213734
3.28199
0.0269224
0.0638528
1.84191
0.0212929
0.0340197
0.0197449
0.0234153
0.457562
0.0197886
4.52388
0.0234274
0.0384287
0.100295
0.0429983
0.02041
0.0212961
0.0906495
0.0206789
0.0214505
0.0223806
0.0211738
0.0403421
0.0204033
0.0806505
0.0217797
6.06206
4.26897
0.0430194
0.425491
2.40245
8.28907
0.0465921
0.0206917
0.0213308
0.0214886
0.0220944
0.021071
0.0270688
0.0211431
0.0741099
0.0214782
0.290239
0.0219089
0.0303407
0.0791736
0.0207929
0.036143
0.022125
0.0217245
0.0250073
0.0208542
3.67861
0.0718826
0.186968
0.0208316
0.0214858
0.0214736
0.0214593
2.76703
0.0207113
0.117465
0.0209984
0.278702
0.0236846
0.0210937
0.0612301
0.0247161
0.0207192
0.325691
0.757305
0.0229241
0.0737822
0.0206533
0.100506
0.0212541
0.0214599
3.71752
0.02179
0.0220943
0.0872319
4.07271
0.0218818
0.0593362
0.270192
0.0214532
0.0220673
0.021203
0.282678
0.021457
0.114456
0.0215629
3.85519
0.0239315
1.74218
0.0209878
0.0203306
0.314252
0.0224435
0.0218669
2.99184
0.0222924
0.020866
0.0936795
0.0215009
0.0213319
0.06646
0.0224293
2.42328
0.0345922
0.0729141
0.126097
0.0232543
3.74014
0.021913
0.0623107
0.0213563
3.93745
0.282157
0.0217579
0.0213061
0.0213862
0.0215996
0.0209667
0.0206361
0.0207981
0.021372
0.027218
0.0203343
0.0221837
0.0695711
2.98833
2.67337
0.0810309
0.0214815
0.31511
0.0211128
0.243248
0.486498
23.7947
0.0203804
0.0206984
0.021623
0.0213769
0.020366
0.0209319
0.0211914
0.034121
0.0208745
14.3142
0.0708835
0.020863
3.19318
0.0213654
0.0209697
0.0246055
3.09885
0.0520773
0.0243517
0.339524
0.0208829
0.0209531
0.255976
0.0213904
0.501962
0.0221619
0.0469139
0.0207728
0.0208143
0.0272787
0.0393706
0.0223663
3.32254
0.0245278
0.0223212
0.0222046
0.0214807
0.0207323
0.0896791
0.033329
0.0238337
3.46411
10.656
0.0374873
0.094468
0.0207682
3.60746
0.0207899
2.44876
0.0562717
0.0256321
0.0222362
2.17171
2.63123
0.323655
0.0220978
0.634525
0.0209937
0.0211505
0.0345894
0.0217331
0.021542
0.182776
4.3255
0.0208153
0.0268977
3.5931
0.0273273
0.0203218
0.837226
2.94738
0.0220183
0.0239193
0.0254686
0.0215417
0.0209196
0.0262503
0.0237588
0.0214748
0.577628
0.0220281
0.179688
0.43512
0.0243649
3.82675
0.021728
0.0218653
0.100348
4.12405
0.284188
0.0210815
0.0278748
0.0219048
0.0221791
0.0219288
2.61306
0.0234818
0.0216453
0.0499294
0.0210404
0.257843
0.0712228
0.112597
0.0584354
0.224692
0.337222
2.01032
3.39619
0.0228178
0.219161
0.0203329
0.0520469
0.0707626
0.485674
0.0238641
0.0215881
0.0243496
0.0850817
0.0223451
2.6797
0.0320571
0.0780295
2.50899
0.0214105
0.0982392
0.022637
0.0214062
0.02333
0.11651
0.0204449
0.0206279
0.0222607
0.306503
0.0208565
0.0222922
0.0233893
0.0219146
0.021419
0.0799611
0.0681651
0.0216475
0.0208034
0.07139
0.075861
0.0295091
3.74285
0.0217216
0.0214224
2.56372
0.021056
0.0224238
3.37554
3.75284
0.0246562
0.0518533
0.0243321
8.14594
0.115008
0.0283441
0.332194
0.0208874
0.0724837
2.7776
0.174118
0.536597
0.119627
0.0205956
0.0212825
0.0238769
0.0214347
0.0213443
0.216407
0.0217642
0.0405861
0.0204664
0.0560831
2.7262
0.0224377
0.291909
2.3277
0.0214188
0.0745371
0.0239795
0.0222478
0.0212934
3.69223
0.0667153
3.9063
0.0253235
6.01427
0.0760106
0.0215881
0.0430762
0.0323663
0.0212864
0.0210985
0.169808
0.0213004
0.0239632
0.0307699
0.0236253
0.0219376
0.0520576
1.41609
0.0210936
0.140304
0.0475336
0.0214449
0.0210908
0.0241734
0.325236
0.236947
0.020688
0.0295036
0.0201493
0.0460976
7.07026
0.0215134
0.02088
0.0205973
0.0214871
0.0234485
0.0228323
0.325748
0.0215157
0.0237338
0.10719
0.0225856
0.0797668
2.92514
5.69723
0.0217312
0.021264
0.0208471
0.0221177
0.0684907
3.47459
0.167898
0.0820616
0.0266749
0.0469941
0.0232812
0.0360086
0.0237586
0.103174
0.020805
0.0941037
0.0406015
0.0206235
0.0216991
3.25132
0.0442441
0.0714474
2.99221
0.109246
0.0208563
0.206874
0.0227224
0.021211
2.05204
0.582764
0.020812
0.0246278
0.0988227
0.0295093
0.0219999
0.0203923
0.0211014
0.0207387
0.0212995
0.0275137
0.0439512
4.75318
0.0299988
0.0246738
0.0302055
0.0732406
0.0207771
0.0292351
0.175669
0.193028
3.00595
0.0221727
0.0203827
3.87589
0.0209573
0.269141
0.0224611
0.0365174
0.0216595
0.0209949
0.234156
0.0249101
0.022098
0.0214758
2.42949
0.253208
3.52454
0.0213281
0.0212823
0.13691
0.022601
0.0206521
0.101346
0.558953
0.024912
0.0311553
0.0219531
0.301672
0.0212213
0.022686
0.0219416
0.020374
0.191142
0.0212134
0.0207276
0.187425
0.0562279
1.92527
0.184576
0.0211617
0.0284911
0.020795
0.0208276
0.022229
0.0223149
0.0214855
0.176925
0.0215037
0.0651546
0.0231002
0.0260735
0.0215581
0.0221237
0.0209287
3.78417
0.0204274
0.0798956
0.0660394
0.0225648
0.0491002
0.0311706
0.028778
0.0213873
0.0236248
0.0208336
0.0206173
0.294879
0.0294095
0.0239423
0.0211555
0.020917
0.021146
0.0514843
0.0210496
2.96084
0.0413579
0.0208421
0.0212943
0.0205312
0.0409207
0.0779484
2.53732
0.0265247
0.257248
0.0265294
0.083934
0.022619
2.27924
0.0204617
0.020395
0.0237321
0.264
0.0205476
3.22224
0.0213723
0.0212642
0.10519
0.17473
9.06352
0.225185
0.0244805
0.118035
0.085949
0.0206117
2.27702
0.0213763
0.0258139
0.418261
0.0204917
3.21801
0.141837
0.0209847
0.0213821
0.0206319
3.4346
0.0260374
0.0203914
0.07145
0.0211679
0.0207713
0.0219513
0.0206271
0.0428319
0.0216203
0.0224909
0.0206542
0.16709
0.0330224
0.0206726
0.020678
0.0219744
0.0212783
0.0234248
0.0213817
0.0209028
0.0216475
0.0213549
0.0220263
0.0214111
0.0466015
0.0205261
0.0739037
0.0213179
0.035747
0.0206653
0.0214736
0.0210157
0.0204622
0.0312498
0.0236998
0.0245902
2.12458
0.0874055
3.69787
2.96518
0.0747392
0.479706
0.0213131
0.0213939
0.15719
2.38947
0.0211964
3.57945
0.0205842
0.114997
0.532456
0.0232572
0.0751961
2.05992
2.9976
0.021371
0.0446214
0.0208757
0.195544
0.0236464
3.33859
6.55398
0.0215573
0.0322337
0.174015
0.0240512
0.277921
0.273348
0.0224932
0.0209168
0.186169
3.6455
0.0206108
0.0305752
0.0215563
0.165079
0.11458
0.021403
0.0206812
0.310607
0.0207988
0.0214262
0.0219373
0.0206384
0.230817
0.0248632
0.0269371
3.5767
0.0213045
0.046015
0.0216626
0.173917
0.0492053
0.0909688
0.0206441
0.0263438
0.0233673
0.0215354
0.0235138
0.0213656
0.331316
0.0221474
0.0206629
0.021106
0.300508
0.0208992
0.488893
1.68399
0.381236
0.0211952
0.0207274
0.0212161
0.0601872
0.021549
0.302317
0.0214292
0.17103
0.0223683
0.0217196
0.222752
0.0214181
0.0230883
3.66421
0.101196
3.19038
0.0212438
2.2044
1.51032
0.0213443
3.40442
0.0214355
0.0233497
4.69885
0.0224742
0.0325791
3.96844
0.0260862
0.0629385
0.0215511
0.302438
0.0214001
0.491999
0.021223
4.51067
0.0214222
0.0215464
0.0221661
0.651825
0.0207514
0.0650756
0.0545914
1.97855
0.0212106
0.0260387
3.1897
0.0647948
0.20743
0.0688108
0.0206586
0.0998742
0.169913
0.0228247
0.259826
0.0203601
0.125794
7.00337
0.0207719
6.89388
0.0212966
1.44499
0.226787
0.0229237
0.0223703
0.489937
0.724304
0.0214557
0.0223915
0.0206426
0.0213861
0.785592
0.0570268
0.224434
0.0212315
0.0255576
3.24697
0.0246686
0.0572266
0.323811
0.0211241
0.0213617
0.167697
2.33252
0.496134
0.700282
0.178369
0.0326584
0.0336119
3.02881
2.711
0.525512
0.0209163
0.072042
0.0401524
0.0624487
0.0213599
0.0254268
0.0525579
0.0982139
0.32229
0.0215365
0.106086
3.53238
0.034079
0.0214077
0.021411
0.0595741
0.0207401
3.7053
0.025963
0.0225728
0.143968
0.0619513
0.0206581
0.0325711
0.028046
0.0213854
3.2151
0.0230779
3.59366
0.0207323
3.28786
0.242127
0.17246
0.0204613
0.0245805
0.0264216
0.100169
0.0978702
0.0643863
0.755235
0.158877
0.0198515
0.0242548
0.0215007
0.111737
6.69416
0.0234464
0.0206367
0.0222361
0.2054
0.100931
0.0207641
0.0426844
0.141026
0.020876
0.0512054
0.0228302
3.52922
0.0240816
0.40785
0.302843
0.0267533
0.0230765
0.264804
0.0210798
0.0359637
3.09949
0.0239558
0.0680003
0.0306296
0.055515
2.22262
2.11613
0.0215277
1.29431
0.144338
0.0204973
0.123248
0.0605831
0.0940047
0.297397
0.179453
0.428376
0.0950253
2.95331
0.0249384
0.0650119
0.0241737
0.0216765
0.0214197
0.0208289
0.227269
0.0955404
0.0204479
0.0343861
0.157429
0.0210683
0.5508
2.59483
0.0204122
0.0215148
0.025134
0.0219965
0.0424408
0.0213968
6.14534
0.0279011
0.0630022
0.0237558
0.0604035
0.0324287
0.0273004
0.0953109
0.0213798
0.0220688
0.0204128
0.020707
3.05981
0.0929592
0.02575
5.6053
0.0212776
0.0216529
0.0271932
0.0206038
0.0207963
0.0626073
0.0242114
3.39587
2.07618
3.01083
0.0215938
4.01083
0.0212139
0.252878
0.020639
0.128141
2.15262
0.0213113
0.198901
3.655
0.0279165
0.0220978
0.022433
0.0253311
2.04959
0.0206191
0.0216948
0.0219872
0.0228988
0.171781
0.0226007
0.0243497
0.021091
0.0221591
0.263655
0.0310659
0.0224992
0.112056
0.0565428
3.31048
1.1408
0.0225999
0.0218992
3.13107
0.0213672
0.0612001
0.0216104
0.666556
0.02136
0.0214331
0.0252384
2.63327
0.0213679
0.0206376
0.0204511
0.137492
12.2331
0.102194
0.0214646
0.0226213
0.0208647
3.6495
0.0276548
0.286983
0.0547425
0.02128
0.160919
0.0277556
0.244195
0.0219846
0.020644
0.0274025
0.0326127
0.103175
0.0216429
0.0216351
0.0212973
3.10231
0.0213889
0.0222596
2.07086
0.0223662
0.0248071
0.023743
0.020868
0.0208872
0.627592
0.02313
2.08455
0.29908
0.0201489
0.486794
0.0216646
0.0928106
0.042277
0.022452
0.0204923
0.0201232
0.0213837
0.561983
0.0453434
3.84522
2.91705
0.0208467
0.0166999
0.032699
0.290294
0.0213726
0.397975
2.48964
0.351446
0.0210734
0.0224927
0.0218163
0.0442859
3.04172
0.0222438
0.0215225
0.028615
6.5345
0.0215986
0.0225683
0.0222148
0.112509
0.270884
0.0204789
2.72377
0.0248806
0.0213974
0.989999
0.0541487
0.713188
0.694477
0.0278545
0.0235273
0.0223352
0.0243358
0.0217319
0.0467011
0.0384104
0.0209072
0.0236416
0.200332
1.96085
0.0206087
0.0933917
3.75608
0.686897
0.0209896
0.021476
0.298166
0.276289
0.0524506
0.020995
3.95096
0.0650717
0.0202178
4.71537
0.025135
0.0214325
0.172803
0.021165
0.0248099
0.020704
0.0200132
0.0212308
0.0204468
2.3407
0.0204284
0.0211106
0.071245
0.0244358
0.0230121
0.123741
0.0213741
0.0214649
0.0223114
0.0220021
0.271161
0.255301
0.26677
1.19356
0.0274261
0.499005
0.0283275
2.9125
2.48547
2.44783
0.020779
0.0260722
0.0213929
0.0213378
0.0207333
0.0214773
0.171898
0.057644
0.0316217
0.0210456
0.0213697
0.0546694
0.0216637
0.0215903
0.0213612
3.74725
0.0279128
8.08993
0.021584
0.298315
0.021678
0.0213807
0.0216479
0.0407223
0.020974
0.0771628
3.15642
0.0343593
3.88709
0.6421
0.0227349
0.0255627
0.35217
0.0978723
0.0205721
0.0207063
0.0201458
2.9505
0.0200004
0.0498431
0.029032
0.0699976
0.47069
0.229966
0.0616968
3.32207
0.020627
0.0204521
0.124309
0.302265
0.0213449
0.0215582
0.0903422
0.0209263
0.149327
0.0225288
0.0273628
0.0237505
0.0214666
0.0645696
3.0716
3.32197
0.0238637
0.0213016
0.0658774
0.0221744
0.0681237
0.0208175
0.128026
0.0877876
0.0215914
0.021397
0.0201961
0.102826
0.0311035
0.17367
0.233148
0.0269346
0.33613
0.0706058
0.106784
1.14271
0.0212311
2.90139
0.0220193
3.78566
0.228662
2.88273
1.39884
0.0235152
0.0478829
0.132164
0.0211609
4.06539
0.0213514
0.0214406
0.0250804
0.0218981
0.0291275
0.23107
0.311459
4.27732
0.0244984
0.0333999
0.022087
0.0213451
0.0216265
0.111857
0.0821632
2.39833
0.0387846
0.0204889
0.0206583
0.0215869
0.196995
0.0228849
0.0217539
0.0237516
0.0709045
0.0298875
0.0332571
0.0287355
2.91014
0.0266333
0.0308221
0.0213805
0.0251675
0.202949
0.0845735
0.0375666
0.0205975
1.20088
0.0299988
0.0209777
0.0438449
3.15903
0.403705
0.028451
0.0209317
2.65853
0.0216343
0.0208863
0.0205269
0.446003
0.269596
0.0227724
0.267182
0.859295
0.0239115
0.0287697
0.053154
3.60798
0.0275165
3.00523
0.0216391
0.028009
0.0238263
2.65144
0.0308221
0.0206586
3.31268
0.0216038
0.0219504
2.25202
0.302011
0.0448536
0.208684
0.0238977
0.0222989
0.286372
0.0209908
0.0211605
0.021543
0.0404075
0.0213593
0.0263576
0.0239473
0.389235
0.297285
0.0219826
4.08917
0.0238901
3.28261
3.74644
0.0215125
0.0216363
0.0246764
0.149482
0.173187
0.0603938
3.16246
2.76945
0.153979
0.0216273
0.305118
3.35317
0.0299086
0.286768
0.0214124
0.021102
0.021568
0.0219342
0.0212605
0.0312297
3.38105
0.0259944
0.302468
7.38369
0.326227
2.74248
3.29465
0.0245297
3.17582
0.0976741
0.0713711
0.0206203
0.0212003
0.0644142
4.37929
0.021765
2.35668
3.30048
0.0207978
0.0215386
0.0211518
0.0741382
0.021686
0.0659905
2.9359
0.0205899
0.0213933
0.0207923
0.0219655
0.0948453
3.18973
0.0300547
0.292012
0.0956665
0.0211146
0.291566
0.106696
0.0237421
0.258964
0.29342
2.33317
0.203484
3.72632
0.0211283
0.277758
3.25662
0.128421
0.33292
0.0207312
0.0224277
0.0229221
0.0230021
0.764458
0.0595639
0.0216091
0.0253198
0.289835
3.36123
0.021572
0.0221213
3.79889
3.25164
0.0216549
0.0253587
0.0939536
0.0213008
0.021396
1.99053
0.0210573
0.209476
0.295293
0.999333
0.0209606
0.0611568
0.132576
0.0209499
0.0202894
3.20272
0.538981
0.0213997
0.0273182
0.142292
0.186991
3.35821
0.259812
0.0241566
0.272026
0.33225
0.030976
0.0210906
0.0526194
0.0204191
0.020394
3.45938
0.0318892
0.0838015
0.0236448
0.0231266
0.0207463
0.0204403
0.0219411
0.022094
0.849796
0.0234671
0.228477
6.48008
0.0380218
0.066328
2.19007
2.38853
1.0153
0.0211114
0.0239757
0.0314468
0.0239938
0.144945
0.325527
0.0219348
0.231377
3.5785
0.0245764
0.0876247
0.0700199
0.0957425
0.104485
0.0223621
0.116148
0.126848
0.138697
0.151941
0.108775
0.0763983
0.0234451
0.0210506
0.0303913
0.0865155
0.0210022
0.218369
3.3402
0.147536
3.21298
0.0202511
0.0205862
0.0322924
0.677081
0.0220415
0.0227318
0.0633088
5.04249
0.394898
0.0213589
0.0263615
0.024075
4.3459
0.283392
0.0236751
0.235489
3.32482
0.0955901
3.0886
0.0852054
0.397434
3.33272
0.0197275
2.91119
3.5128
0.0220272
0.0616299
0.0858029
0.0233355
0.0207101
0.161025
1.47573
0.0206918
0.0207136
2.26448
0.281997
0.0695531
0.0215494
0.199043
0.116628
3.32656
4.07642
0.0215212
0.021357
0.0219953
0.0223026
2.74637
0.106116
2.77651
0.0807725
0.224477
0.521846
0.0222827
0.0209848
3.40048
0.0207042
3.05067
0.0267207
3.19239
0.0222094
0.0218689
0.190151
0.0213686
0.106127
0.494687
0.0242042
0.0224724
0.0222986
0.167093
3.48742
0.125819
3.31334
0.0230257
0.0223128
0.0263537
0.0668524
3.23317
5.2689
0.0844033
0.185387
0.117441
0.312165
0.021857
0.0206803
0.0206003
0.020621
0.207117
0.0469324
0.405499
0.0343642
0.138574
0.0209896
0.289466
0.133857
3.70866
0.0214535
0.022398
0.0200343
3.28387
0.0255594
0.687112
0.200994
0.1142
0.216992
0.0201708
0.0346286
0.122482
0.213447
0.274934
0.0215692
0.125626
0.0216102
0.0212681
0.0847674
1.23075
0.203414
0.0214746
0.0749373
0.139292
2.92367
5.63495
2.31268
1.14496
0.0208108
0.0549518
0.0211858
0.130464
0.0208427
0.0960588
0.0222039
0.0446668
0.244702
0.489766
0.0227938
0.0820915
3.48154
0.114363
0.022396
2.27211
0.104966
0.0225036
0.0214732
0.89554
0.0266713
0.10938
0.2478
0.40354
4.25552
0.0227459
1.5545
3.12754
0.462946
0.154709
0.0290568
0.102738
0.0924818
1.93063
0.0445965
0.0219399
0.286909
0.0339234
0.211682
0.0251043
4.11714
0.201199
0.295561
0.0254425
0.186844
0.0231013
3.28406
0.125606
0.286385
7.93868
0.0209044
0.0200235
3.3638
2.78935
0.024551
0.0218581
0.0353191
0.0255219
0.914847
0.0494553
3.54332
0.0242733
3.61224
0.106648
0.747721
0.0218993
0.177114
3.58024
0.0229062
0.0832253
0.0202193
0.0235327
0.0215631
0.258758
0.0210952
0.0215835
3.25511
0.274327
0.0206046
3.07966
0.0220135
0.0212039
0.0212604
0.0207222
0.0216741
0.265165
3.4561
0.0205416
0.16813
0.0652527
0.0464209
0.273964
0.0833829
0.0240095
0.0308548
0.0212791
0.253216
0.0259974
3.1178
0.0236731
0.36899
0.280964
0.0641018
0.320652
3.69225
0.0207311
3.87763
0.0505503
0.0621155
0.0278554
0.0210301
0.0284201
0.17528
0.0215272
0.0376783
0.0214045
1.28904
0.136476
1.92992
0.163789
0.157162
3.18108
0.0214412
0.0208389
0.0608483
0.0223479
0.02164
0.0216652
0.0249532
0.0209642
0.0211707
0.0221751
0.0352368
0.0225338
0.0248562
0.0224702
0.0280271
0.100074
0.0227573
1.61304
0.0226255
0.0212122
0.0908166
0.0410473
0.0224255
0.0209377
0.166416
0.023131
3.44872
0.0232744
0.101234
0.0212753
0.021121
0.0797366
3.48619
0.0683831
0.0295799
0.0202538
3.36151
0.0215829
0.0211319
0.0747617
0.0233915
0.12834
3.45181
0.0939915
0.112333
0.0351911
4.31054
0.0212589
0.0215209
0.0564423
0.277674
0.0580477
0.0899828
2.69882
0.0251104
0.0214824
0.0264608
0.195726
0.0569291
0.0215445
0.0991621
0.0963168
0.0595667
0.0216819
0.0215981
0.156264
0.0579076
0.315857
0.494626
0.0224968
0.0673578
0.0216506
0.0430755
0.248065
0.0215168
0.141258
0.100182
0.0753262
1.2043
0.0214961
0.0211595
0.0212292
3.11303
0.18289
0.0225939
0.0793837
0.108312
0.0216292
0.0211782
0.140002
3.09724
0.156328
3.49771
0.119909
0.0296016
0.259537
0.118664
0.0292032
0.354884
0.0870489
0.494225
0.0214431
0.0972997
0.130264
0.0219879
0.160874
0.0342531
0.0614693
0.0249515
0.142728
0.0209756
4.28105
0.0240356
0.0207571
0.0207083
0.0206649
0.022146
0.0220418
0.0207192
0.0236762
0.0214622
0.0219368
0.246457
0.0768962
0.0219857
0.0587035
0.0235216
0.0216499
0.0204188
0.0445864
0.0235116
0.279767
0.021512
0.0215511
0.0613377
0.165311
0.0214999
0.0214609
0.0999921
0.0231842
0.0822639
0.055771
0.0211835
8.70008
0.0233635
0.021973
0.0639309
3.38591
0.0219486
0.0531953
0.0206912
0.0250304
0.0209459
0.0248574
0.0211227
0.0215648
0.0281803
0.0564818
8.61322
0.0464423
0.0214254
0.0257867
3.77535
0.0405626
0.169442
0.097055
0.0215907
0.0486471
0.110315
0.167434
0.670859
0.0242731
3.74359
0.322474
0.0257286
0.0216158
0.0670606
0.0219643
0.0560626
3.2908
0.0213981
0.0479943
0.0215807
3.09733
0.0352314
0.0220708
0.0574786
3.25548
0.490603
0.0232914
0.0691762
0.0287298
0.0205898
2.35939
0.0204824
0.0289133
0.0210421
0.023268
2.62543
0.0705201
0.022758
0.0254084
0.195417
0.0214152
0.0216547
0.0264585
0.0234592
0.0213776
0.0231916
0.0229969
0.0217399
0.0210089
0.0600437
0.103641
0.164439
0.020996
0.0566477
3.25567
4.6886
0.0210809
0.021423
0.0245879
0.087283
0.0218379
0.0209501
0.0211279
0.0206791
0.0237471
0.0262343
0.0237333
0.06352
0.0226272
0.0204263
0.0225008
0.0625709
0.0430091
0.10781
0.0219146
0.0258175
3.49005
0.0257467
0.0241842
4.41778
3.56814
0.0992465
0.0643721
0.154008
0.0210892
0.326646
0.0243543
8.75034
0.0213902
0.0212092
0.31654
0.0207647
0.2942
2.8804
0.0218156
16.6287
0.0287546
0.031195
0.0246134
0.0658438
0.0254126
0.0248532
0.352687
0.0207954
0.0238015
3.73933
0.0220216
0.0212189
0.0275009
3.48093
0.0219212
0.0219212
3.26965
0.0227881
0.0246149
0.0585393
0.0203769
9.00671
0.0234657
0.0219497
0.0912117
0.0568874
0.986928
0.0230923
0.197404
0.0314608
0.0822893
2.34863
0.021409
0.0305298
0.0926678
0.0219508
0.207893
0.0218865
0.0229816
3.15729
0.0221892
0.0404244
0.0808343
0.0776577
0.0290309
0.0249627
0.0220989
0.0234758
0.0912866
0.0232829
0.0299453
0.0523728
0.0539181
0.0212287
3.78937
0.0361932
0.0204327
0.0222495
0.0212186
0.0206149
0.0203825
0.0213805
0.0213936
0.0271652
0.0232911
0.031376
0.0202868
0.0204415
0.0217762
0.074388
0.0206911
0.0255066
0.0440081
0.0254989
0.0276955
0.0211852
0.0229836
0.0233155
0.031398
0.0250784
0.0228089
2.61346
0.0214366
3.225
0.0242712
0.0895388
0.0753194
0.0213483
0.0580077
0.0300053
3.43857
3.28054
0.0247829
0.021579
0.0231781
0.0292028
0.0463694
0.0254916
0.0940019
0.0489803
0.0218985
0.0422287
0.0350509
0.0442749
0.0250864
0.164558
0.0569235
0.0243475
0.496047
0.0227514
0.124918
0.022161
0.0212126
0.0818966
0.0798071
0.0213772
0.0436099
0.0214254
0.0215775
0.0213455
0.0218539
0.0213732
0.0213879
0.0213506
0.0217184
0.152779
0.0223576
0.0213297
0.0217568
0.0221157
0.18064
3.18584
0.0419169
0.0230997
3.7326
0.0213632
0.0213409
0.0497351
0.0301396
0.0220034
0.0217981
0.0214884
0.142505
0.021473
0.0249759
0.0218506
0.0288969
4.05908
0.021436
0.0423198
0.0612978
0.0245367
0.0383058
0.0206482
0.0215833
0.0518041
0.747234
0.0229537
0.0301455
1.59652
0.0865888
0.0206669
3.86049
0.022117
0.0198408
0.0399444
2.66095
0.021165
0.0206524
0.0228993
0.0249403
0.0282301
0.0213981
0.0220035
0.0334114
0.0215832
0.0255125
0.0249179
1.77888
0.0206256
0.316334
0.252344
0.0272626
0.0211349
0.0940058
0.0207623
0.0225941
0.0214381
0.0554189
0.0202785
0.0202616
0.0361134
0.0421079
0.290655
0.0216244
0.0202498
0.022922
0.0206356
3.1324
0.022295
0.0222741
0.0218702
0.0557199
0.0458522
0.0230343
0.0222251
0.0434298
0.02144
0.0214734
0.0229891
0.0219084
0.112158
0.0210804
0.0254883
0.021876
0.0214551
0.0452
0.0835806
3.01395
0.0213378
0.0400835
0.367004
2.71888
3.15161
0.0252965
0.0213805
0.02351
0.0271501
0.739108
0.0215861
0.0240737
0.0253062
0.0301549
0.0203045
0.0534418
0.0435362
1.3873
0.0218649
0.0215931
0.0807166
1.27365
0.0202185
0.0237404
0.0319637
0.0201379
0.0220564
0.0440892
0.0213257
0.0213862
0.0216115
0.0237627
0.0801213
0.0325451
0.0221227
0.0206272
0.0217459
0.118462
0.0200887
0.0206552
0.0240479
0.0859677
0.024531
3.86131
0.023291
0.0213303
0.0214732
0.0224544
0.0211855
0.0306187
0.0347502
0.0206834
0.0209742
0.0218177
0.0212695
0.0215845
0.0375094
2.48507
0.0222867
0.0939566
0.022747
0.0212724
0.202911
0.0227594
2.51426
0.0216976
0.0214293
0.0206614
0.0214092
0.0221136
0.0298789
0.0275636
0.139744
0.0247969
0.0503981
0.0215083
0.0268166
0.0214176
0.0226656
0.0328863
1.89468
2.50466
0.0215165
3.54304
0.0849534
0.0398818
0.158669
0.0200749
0.0213856
0.0213924
0.0223131
2.48238
0.0206144
0.0722415
0.239221
0.021878
0.0766297
0.02012
0.0267874
0.323373
0.158903
0.0215469
0.300588
0.116405
0.247268
0.0246145
3.85693
0.022239
0.108687
0.0913561
0.0204914
0.0306361
0.0274129
0.0232534
0.409089
0.030088
0.020709
0.023177
0.320548
0.0215435
0.038302
0.0215293
0.0200399
0.0218188
0.0314178
0.0214789
0.0755778
0.0241101
0.0221986
0.0200527
0.0213167
0.477679
0.0721016
0.116415
0.0313523
0.0241037
0.0247967
0.0235598
0.0213184
0.0222067
0.0282329
0.0225359
0.0235718
0.0204016
0.0248105
1.54996
0.0218747
0.320281
0.130575
0.0215684
0.0215282
0.0203195
0.0257488
0.0301289
0.0201981
0.0247359
0.0221294
0.0215283
0.0209665
0.0216844
0.0209073
0.0213626
0.273954
0.0212654
0.0232928
0.0214375
0.160506
0.10425
0.0213589
0.303071
0.0214103
0.0233571
0.0249384
0.313474
0.0266298
0.0209748
0.0210929
0.0268491
0.0352394
0.143992
0.0218707