/*--------------------------------*- C++ -*----------------------------------*\
| =========                 |                                                 |
| \\      /  F ield         | OpenFOAM: The Open Source CFD Toolbox           |
|  \\    /   O peration     | Version:  v2012                                 |
|   \\  /    A nd           | Website:  www.openfoam.com                      |
|    \\/     M anipulation  |                                                 |
\*---------------------------------------------------------------------------*/
FoamFile
{
    version     2.0;
    format      ascii;
    class       volScalarField;
    location    "850";
    object      p;
}
// * * * * * * * * * * * * * * * * * * * * * * * * * * * * * * * * * * * * * //

dimensions      [0 2 -2 0 0 0 0];


internalField   nonuniform List<scalar> 
13917
(
-0.0723143
-0.00741515
-0.0626213
-0.0376964
-0.00081936
-0.00682859
-0.0496513
-0.00758043
-0.0624733
-0.0836048
-0.00775592
-0.0282752
-0.0248399
-0.00973213
-0.0076133
-0.0714063
-0.00074728
-0.00889833
-0.0593571
-0.0753353
-0.0198056
-0.00828242
-0.0552131
-0.00798495
-0.0334815
-0.0175912
-0.0118304
-0.0839782
-0.0124139
-0.000247846
-0.0839756
-0.065427
-0.0327449
-0.0674163
-0.000852794
-0.00665238
-0.0203824
-0.00859249
-0.0506235
-0.0268558
0.000885235
0.000755834
-0.05825
-0.0621602
-0.0617524
-0.0419223
-0.0203789
-0.0728564
0.00410057
-0.000913833
-0.0279213
-0.0458429
-0.0602878
-0.0191715
-0.020538
-0.0468419
-0.0808401
-0.0543809
0.000651906
-0.0407648
-0.0465935
0.0020896
4.39447e-05
-0.0334531
-0.0664815
-0.000911111
-0.0111615
-0.0062022
-0.00854307
-0.0629975
-0.064823
-0.0666664
-0.0370523
0.000582515
-0.0201336
-0.0290637
-0.00344658
0.000481981
-0.029148
-0.0329685
-0.0135288
-0.000992286
-0.0367777
-0.0632754
-0.0184
-0.00817449
-0.0653391
-0.0179601
-0.0262622
-0.000745084
-0.000413602
-0.0593267
0.00615191
-0.000887604
-0.0184226
-0.0118581
-0.00728143
-0.0025954
-0.0182618
-0.0154228
-0.000528851
-0.000627416
-0.0137933
-0.00317794
-0.00331233
-0.0591859
-0.0753271
0.00238781
0.000817621
-0.0111978
-0.0266049
-0.0679005
-0.0131497
-0.0782979
-0.0668814
-0.02716
-0.0592986
-0.00027442
-0.0621567
-0.0362204
-0.000936738
0.000331587
-0.0106827
-0.0532912
-0.0571721
-0.0629574
-0.0341326
-0.0196329
-0.00365358
-0.0540744
-0.0641687
-0.0298281
-0.0566497
-0.0265462
-0.0644546
-0.00868565
-0.0400629
-0.0516666
-0.0163019
-0.00832386
0.00404908
0.000425503
-0.0593414
-0.0109982
-0.0349969
0.00122791
-0.0645765
0.00209488
-0.0816698
-0.0194492
-0.0264189
-0.000189001
-0.0347249
-0.0365569
-0.00585043
-0.00409379
-0.00309283
-0.0570128
-0.00052956
-0.000328617
-0.0157254
-0.0677599
-0.0157245
0.00383915
-0.0632835
-0.0134094
-0.0609137
-0.0645138
-4.995e-05
-0.0157579
-0.00736885
-0.060774
-0.0629407
-0.0420538
-0.0404527
-0.000289815
-0.0383955
-0.0450449
-0.0640525
-0.0152955
-0.0564191
-0.00758363
-0.027345
-0.0515934
-0.0620337
-0.0287597
-0.0269764
-0.0507802
-0.000311202
-0.0087635
-0.0394763
-0.0617372
-0.0522135
-0.0740308
-0.000964733
-0.0585158
-0.0359201
-0.0568554
-0.000821483
-0.00452978
-0.021483
-0.06462
-0.0520062
-0.0179765
-0.0164151
-0.0127253
-0.0268995
0.000405692
-0.0458552
-0.0128794
-0.00433755
0.000576913
0.000807183
-0.0771094
-0.0647499
-0.0171352
-0.0709488
-0.011931
-0.000298993
-0.000293185
-0.0675735
-0.0517861
-0.0501954
-0.0259029
-0.000361021
-0.00675357
-0.0599268
-0.000184215
-0.000218164
-0.000529093
-0.000266315
-0.00026812
-0.067205
-0.0729489
-0.0109392
-7.01308e-05
-0.0469515
-0.0640512
-0.000317971
-0.0256892
-0.0159521
-0.0590207
-0.0522001
-0.0720296
-0.0395466
-0.0113002
-0.0610297
-0.047604
-0.0136313
-0.0583274
-0.0183817
-0.0780022
-0.0364381
-0.0354265
-0.0409416
-0.0101521
0.000785804
-0.034163
-0.000416892
-2.78017e-05
-0.0578773
-0.00773502
0.000222993
-0.000400672
-0.00401359
-0.000425468
-0.0367227
-0.0249078
-0.0461887
0.000320648
-0.0502981
-0.0740264
-0.0241422
-0.00165073
-0.0395838
-0.000384841
-0.0170307
-0.0580002
-0.000371413
-0.0633578
-0.000121544
-0.0639484
-0.000512489
-0.00814343
-0.00991777
-0.00969079
-0.057571
-0.00662685
-0.0123338
-0.0330131
-0.0079249
0.00136336
-0.0188097
-0.0498229
-0.000294201
-0.0505467
-0.000605327
-0.0256379
-0.000799074
-0.0299915
-0.000533383
-0.00644086
-0.0430513
0.00238432
-0.0352776
-0.0300903
-0.0252341
-0.055503
-0.0644594
-0.00321538
-0.00192347
-0.0263167
0.00371211
-0.0660779
-0.0749062
-0.0432011
-0.00054742
-0.0303728
-0.00172554
-0.0629393
0.00271198
-0.0626693
-0.0246883
-0.00752531
-0.0144454
-0.00599431
-0.00709695
-0.0613091
-0.000666048
-0.061759
-0.0181394
-0.0743849
-0.000681248
-0.0741369
-0.00641974
-0.0362325
-0.0130348
-0.000243859
-0.000409271
-0.0595772
-0.0603528
-0.0192872
-0.00560376
-0.0672775
-0.0598382
-0.0523687
-0.0114105
-0.000351657
-0.0124981
-0.058708
-0.0315387
-0.000378559
-0.000408019
-0.0235092
-0.0169936
-0.0362315
-0.0517241
-0.0336479
-0.0163086
-0.0704072
-0.0712299
-0.00364079
-0.0198606
-0.000432027
-0.059999
-0.000631216
-0.0733018
-0.070963
-0.00153546
-0.020348
-0.0326912
-0.00162617
0.0095498
0.000621869
-0.0509893
-0.0406278
-0.0124265
-0.0241519
-0.0627592
-0.00083538
-0.059853
-0.0525068
0.000635605
0.0057654
-0.00839082
-0.00230649
-0.0013352
-0.0781321
-0.0023402
-0.022831
-0.00987964
-0.0169961
-0.0183438
-0.0588561
-0.0664041
-0.0239926
-0.057353
-0.0139492
-0.0157136
-0.0624924
-0.018365
-0.0549214
-0.0308369
-0.0104346
-0.0102405
-0.00384067
-0.0425923
-0.0149537
-0.0201074
-0.0032927
-0.0085485
-0.0464501
-0.00329849
-0.000517454
-7.9801e-05
-0.0659942
-0.031655
-0.00973782
-0.0229672
-0.0469881
-0.0018637
-0.00106677
-0.0597931
-0.0629804
8.12379e-05
-0.00051443
-0.0189838
-0.0102705
-0.000510868
-0.0106741
-0.000517729
5.41678e-05
-0.0663971
-0.0141918
-0.028101
-0.0506545
-0.0496473
-0.00436223
-0.03404
-0.0604197
-0.0206678
-0.0560091
-0.000620113
-0.0252732
-0.000835111
-0.000207782
-0.0201646
-0.00753802
-0.0441636
0.000429747
-0.0588599
-0.0249293
-0.0590611
0.000739041
-0.012762
-0.0405507
-0.0509326
-0.0237047
0.00182016
-0.00462907
-0.00956348
-0.00850497
-0.00878247
-0.00424437
-0.0154468
-0.0555312
-0.043664
-0.00422256
-0.0199608
-0.0651717
-0.025433
-0.0494106
-0.0754059
-0.0622715
-0.0571987
-0.0591811
-0.00192481
-0.00277047
-0.00787323
-0.000910767
0.0011735
-0.0179867
-0.053885
-0.000547363
-0.0194529
-0.0190323
-0.0580021
-0.0225106
-0.0615179
-0.0586531
0.00141975
-0.00119822
-0.00956371
-0.0281146
-0.019694
-0.00868661
-0.0499275
-0.0338242
-0.0560752
-0.0185537
-0.0278358
-0.0450287
-0.00797529
-0.0539495
-0.00991161
-0.000231037
-0.0470281
-0.000603609
-0.011386
-0.0419947
-0.0528811
-0.012293
-0.0159084
-0.0434413
0.00119736
-0.0507576
-0.0352275
-0.0193679
-0.0200997
-0.0157608
-0.0419827
0.00196225
-0.00288489
-0.000578734
-0.00459391
-0.0107429
0.000862595
-0.0409656
-0.000468794
-0.0579402
-0.00799323
-0.00918714
-0.0310359
-0.0738432
-0.000987287
-0.0489842
-0.000131054
-0.0588162
-0.0510327
-0.0140482
-0.0412352
-0.0160128
-0.0290709
-0.00999173
-0.0570853
-0.0675783
-0.0510648
-0.00281876
-0.00801609
0.00158461
-0.0255284
-0.0660074
-0.000335616
0.00271947
-0.0366833
-0.0605183
-0.016684
-0.0573878
-0.0855844
-0.00398096
-0.0730992
-0.00247534
0.000765914
-0.0603529
-0.000571624
-0.0633381
-0.000364834
-0.025389
-0.00806165
-0.0615369
0.00100031
-0.000468023
-0.0630162
-0.0488491
0.00477203
-0.0643913
-0.0568431
-0.0603861
-0.00105813
-0.0598496
-0.000221988
-0.0465002
0.00577151
0.000891668
-0.00180311
0.000162345
-0.0496204
-0.0560877
-0.000544576
-0.00256629
-0.0224681
-0.0637959
-0.0170485
-0.0661558
-0.0190772
-0.000454373
-0.000296778
-0.0428389
-0.0611792
-0.0825044
-0.0581637
-0.0416715
-0.0591534
-0.063234
-0.00122978
-0.0540782
-0.0234659
-0.0728868
-0.0251184
-0.062788
-0.0105663
0.000959989
-0.035588
0.00366158
-0.0476805
-0.0673817
-0.000695409
-0.0463231
-0.0014889
-6.92466e-05
-0.0717464
-0.0115209
-0.000979808
-0.0518607
-0.0254595
0.000658611
-0.0003296
-0.0712461
-0.0173856
-0.000238458
-0.000380759
-0.00114471
-0.0595517
-0.000834251
-0.0537555
-0.00131632
-0.00696115
-0.0467919
-0.0661842
-0.01917
-0.0498154
-0.0635576
-0.00186686
-0.0441836
-0.00394806
-0.00696615
-0.0745133
-0.0644792
-0.0195177
-0.0210115
0.00110479
-0.00122361
-0.00491145
-0.000405061
-0.0503482
-0.0327675
-0.0566167
-0.0482867
-0.00218861
-0.0361783
0.00272072
-0.0388763
-0.0529474
-0.0639558
-0.000663631
0.0019189
-0.000390655
-0.0072222
-0.000885835
-0.000536126
0.00132059
-0.0130814
-0.0615852
-0.0704072
-0.0041157
-0.0612768
-0.000690576
-0.0740594
-3.89519e-05
-0.00337248
-0.053247
-0.0517616
0.000459234
-0.0366733
-0.00128716
-0.0025334
-0.0410509
-0.0506828
-0.00856738
-0.0532884
-0.032997
0.000723137
0.000845196
0.00183938
-0.0543133
-0.0429937
-0.00326309
-0.00131925
-0.0583558
-0.0100109
-0.0357926
-0.0550634
0.00895331
-0.00650293
-0.0031862
-0.0193002
-0.0601857
-0.00100938
-0.04688
-0.0403922
-0.0484758
-0.0732601
-0.00219057
-0.0524906
-0.069468
-0.018177
-0.0325663
-0.00349853
-0.0500498
-0.000861092
-0.0656885
-0.0245193
0.00108668
-0.0541735
-0.000625876
0.0054625
-0.0213706
-0.00915359
-0.0397459
-0.0646855
-0.000963582
-0.0743048
-0.0596767
-0.0013859
-0.0264342
-0.0252424
-0.0130179
-0.0242009
-0.0356571
-0.00181046
0.000585065
-0.042453
-0.0532594
-0.00368538
-0.0644917
-0.0614974
-0.0575434
-0.0527595
-0.0121927
-0.0721086
-0.0093045
-0.000632451
-0.0524296
-0.0381675
-0.0682605
-0.00526689
-0.00454326
-0.00469466
-0.0636629
-0.0319676
0.000200532
-0.073079
-0.00863356
-0.00412825
-0.0473058
-0.0106668
-0.000136801
0.000974604
-0.0175864
-0.0584885
-0.0361878
-0.00307713
-0.0606815
0.000910895
0.00273756
-0.000619797
-0.00105443
-0.0351463
-0.0233881
-0.0139519
-0.00511735
-0.0022697
-0.00395475
0.00730022
-0.0220048
-0.05791
-0.000661542
-0.0578335
-0.00818267
-0.0598261
0.000190892
-0.000265614
-0.073892
-0.0318448
-0.058341
-0.0562606
0.00164722
-0.00297756
-0.00245262
-0.0263662
-0.0640376
-0.0484893
-0.00242402
0.00123995
-0.0240719
-0.0676938
-4.92975e-05
0.00170951
0.0046196
-8.97241e-05
-0.0642455
-0.0506424
0.0021233
-0.058785
0.00507941
-0.000468149
-0.00136077
-0.033304
-0.00371288
-0.0182259
-0.0249588
-0.00755233
-0.0721666
-0.000480186
-0.00948072
-0.0175006
-0.0681961
-0.0572562
0.00197116
-0.0584807
0.00100742
-0.0685269
0.0038184
-0.00530901
0.000644827
-0.0296869
-0.0282792
-0.0155724
-0.0492692
-0.0158576
-0.00419649
-0.0185248
-0.0630038
-0.0320102
-0.0698283
-0.0308415
-0.00221158
-0.0264775
-0.0313157
0.000798913
-0.0439725
-0.00089542
-0.0542379
-0.0503335
-0.00118242
-0.00297607
-0.0302565
-0.0064227
-0.00389478
-0.0571266
-0.00564033
-0.0129409
-0.0108097
-0.0018285
-0.00695036
-0.0126088
-0.0743126
0.00206217
-0.00570944
0.000122427
-0.0544669
-0.0159973
-0.0590062
-0.00311932
-0.0141126
-0.00118281
-0.00424436
-0.0715756
-0.00138596
-0.0379348
-0.0607897
-0.0708983
-0.00126481
0.00525597
-0.0613439
0.000731315
-0.00542159
-0.00758522
-0.0631625
-0.0295149
-0.0629278
-0.0294061
-0.0530493
-0.00749685
-0.032133
-0.00350816
-0.00068784
-0.00522851
-0.0153739
-0.00048801
-0.0573432
-0.021185
-0.00903406
0.00265748
0.000750356
0.000705092
-0.0510173
-0.0234628
-0.0659463
-0.0284778
-0.0737184
-0.0432511
-0.0474975
-0.0552335
-0.017412
-0.0516879
-0.0267768
-0.0533364
-0.00243191
-0.0383688
-0.00109499
0.000550263
-0.0197458
-0.00104485
7.40452e-05
0.000156661
-0.026696
-0.0394768
-0.000632465
-0.0214764
-0.0627663
-0.0632537
-0.0622856
-0.0607572
-0.00674538
-0.00560293
-0.015729
-0.0609123
0.00295083
-0.0498826
-0.000134783
-0.00537144
-0.0216852
-0.0148743
-0.000149261
-0.000769288
-0.0194924
-0.0388284
-0.00932594
-0.0823112
0.00398648
-0.00773101
-0.0641624
-0.0271184
-0.00403779
0.00215515
-0.071565
-0.0266253
-0.0004241
0.00169812
-0.00126969
-0.00334546
-0.0633107
0.000692755
-0.004139
-0.0385726
0.00229822
-0.00461427
0.000286625
-0.0221126
0.00448945
-0.029368
-0.0632619
0.00198941
-0.0086406
-0.00500807
-0.0305354
-0.00449895
-0.0668075
-0.0722968
-0.032204
-0.0583679
-0.0817804
0.00437474
-0.0666725
0.000162399
-0.054557
0.000264902
-0.0433028
-0.0420039
-0.0557913
-0.0284798
-0.0323852
-0.0114113
-0.0610354
-0.00161009
0.00235312
-0.000954806
-0.01626
-0.0726835
-0.0172308
-0.0288792
-0.0261696
-0.0644094
0.000344456
-0.0672122
-0.0626901
-0.000403602
-0.00023282
0.00189251
-0.0712598
-0.0284732
-0.000299103
-0.0494693
-0.0330287
-0.00310556
-0.00145624
-0.0143891
-0.0295133
0.00333514
-0.00158572
-0.00141951
0.00382666
0.00195472
-0.0547161
-0.0373406
-0.0313679
-0.0028669
-0.0731075
-0.00149389
-0.00203271
-0.0192697
-0.0432558
-0.0386916
-0.00131527
-0.0589981
0.0011869
-0.00483082
-0.0601119
-0.0106407
0.000490654
-0.0566476
-0.0654426
-0.0754027
-0.0492239
-6.61385e-05
-0.0440539
-0.0624787
-0.00818802
-0.0502331
-0.000205233
-0.0410315
-0.0460842
0.00464618
-0.0430121
0.000714403
-0.0376282
-0.00296516
-0.0190558
-0.0599652
-0.0437728
-0.0389394
-0.0484674
-0.00106469
-0.0714849
-0.0237997
-0.0151206
0.00114455
-0.00139993
-0.000785883
-0.00321933
-0.0290186
-0.0603266
-0.00852894
-0.0204593
-0.05685
-0.01803
-0.0226552
-0.0327586
-0.0748816
-0.00516466
-0.00279617
-0.0102195
-0.00245807
-0.00764433
-0.0555284
-0.035018
-0.0289235
-0.00287387
0.000102115
-0.0201488
-0.0636277
-0.0542897
-0.00240487
-0.0393514
-0.0174233
-0.05381
-0.0114612
-0.0230305
-0.0639566
-0.00292719
-0.0485359
-0.0625846
-0.0623542
0.00256914
0.0114628
-0.000136265
-0.00901943
-0.0221634
-0.0227743
-0.00888908
-0.0651197
-0.00129367
-0.0466498
-0.00147025
-0.075477
-0.0631771
-0.0227477
-0.0497953
0.00254681
-0.02894
-0.0742732
-0.01299
-0.0233481
-0.0234776
-0.0529254
-0.0573609
-0.0646305
-0.0280549
-0.0580223
-0.037103
-0.00121441
0.00215128
-0.0454677
-0.00194465
-0.0123961
-0.0380504
-0.0238798
-0.0241237
-0.0184485
-0.014506
-0.0440443
-0.0602186
-0.031033
-0.0159687
-0.0373683
0.00295654
-0.0176285
-0.0150805
0.00135712
-0.0612578
-0.0584501
-0.00212438
-0.0695015
-0.00180417
0.00495226
-0.0504186
-0.0286695
-0.00887782
-0.000133045
-0.0305967
-0.0146182
-0.0189808
-0.0609301
-0.00420932
-0.0478506
-0.000856663
-0.00174873
-0.0602217
-0.0698823
-0.0560852
-0.0377559
-0.00638448
-0.00888528
-0.021058
-0.075607
-0.0544129
-0.00214533
-0.0315601
-0.0203625
-0.0608495
-0.0547751
-0.00159357
-0.023071
-0.0626248
-0.00120507
-0.0125268
-0.00193533
-0.00170771
-0.0377429
-0.0663039
-0.0465078
-0.000840326
-0.0647011
-0.0401014
-0.00274041
-0.0388677
-0.0120059
-0.0208752
-0.0530692
0.000374969
-0.00109426
-0.00208887
-0.0576544
-0.0263582
-0.03343
-0.000498418
-0.0153051
-0.00405569
-0.024179
-0.0401813
-0.0295181
-0.0537416
-0.0269058
-0.0437852
-0.0610557
-0.0362905
-0.00259902
-0.0216154
-0.0491374
-0.0653693
-0.0738231
-0.0170076
-0.00038002
-0.0528016
-0.00911915
-0.000129395
-0.0361953
-0.0271519
-0.0235235
-0.00940548
-0.0627303
-0.0396577
-0.0154737
-0.029947
-0.0298423
-0.0628815
-0.062405
-0.00433606
-0.0100335
0.00914811
-0.000435827
-2.88324e-05
-0.0275621
0.000973344
-0.0292757
-0.0507645
-0.0333456
-0.0608501
-0.021937
-0.00660439
-0.0445088
-0.00037529
-0.0659297
-0.0215181
-0.00403122
-0.0269211
-0.0671254
-0.0276562
-0.0633724
-0.0200333
-0.0520826
-0.00435816
-0.0025664
-0.00457203
-0.0217391
-0.0233426
-0.0665472
-0.0282494
-0.046974
0.00110549
0.00124963
-0.0336635
-0.00150252
-0.00388672
-0.0515853
-0.000690228
-0.00159304
-0.0628773
-0.0220351
-0.0609098
-0.0515896
-0.0518223
-0.0200715
0.00192545
-0.00678529
-0.00157104
-0.000974508
-0.00850022
0.00138013
-0.0028007
-0.00122467
-0.000411733
-0.0102411
-0.0110297
-0.0691823
-0.047427
0.000356742
-0.0243776
-0.00114834
-0.0458269
-0.000668663
0.0005177
0.00274358
0.000846316
0.00132861
-0.0386954
-0.0115175
-0.0630804
-0.00139408
-0.000673313
-0.0310177
-0.000764048
-0.00125402
-0.0666969
-0.0143427
-0.00324317
-0.0283975
-0.0391035
-0.0538619
-0.0015728
-0.039066
-0.027891
-0.000672149
6.44686e-05
-0.0631329
-0.027554
-0.000573788
-0.0312499
-0.0010681
-0.0674647
-0.00158126
-0.0106512
-0.0267726
6.84209e-05
-0.05602
-4.57557e-05
-0.000433539
-0.0632373
-0.0201699
-0.00411578
-0.00137613
1.32327e-05
-0.064163
-0.0333559
-0.00255957
-0.00466503
-0.0172121
0.00375508
-0.0049829
-0.00504452
-0.027984
-0.0238101
-0.0499779
-0.00500944
-1.94416e-05
-0.0344681
-0.0176073
-0.0213359
-0.0246943
-0.0107923
-0.00104738
-0.0571531
-0.00820357
-0.00781714
-0.00197273
-0.0235979
-0.00932402
-0.000633329
-0.0254001
-0.00748555
-0.0578927
-0.0278619
-0.00187176
-0.0556435
-0.0717587
-0.0601864
-0.0581092
-0.00968754
-0.0246956
-0.0117223
-0.0419522
-0.000327648
-0.0612327
-0.0014558
-0.067326
0.0104088
-0.0471125
-0.0546485
-0.00162203
-0.0209702
-0.00165546
-0.0641707
-0.00781026
0.00396947
-0.047177
-0.0634697
-0.074704
-0.0252499
0.00360193
-0.0191609
-0.000639141
-0.0483654
1.57365e-05
-0.0247225
-0.0112456
0.000792452
-0.0563162
5.9964e-05
-0.0620279
-0.0138685
-0.0129228
-0.0409309
-0.0193128
-0.0019579
-0.0616103
-0.00238996
-0.0291583
-0.0372604
-0.00325192
-0.0484511
-0.00510146
-0.0476607
-0.0551681
-0.024573
-0.0161029
-0.0373108
0.00125365
-0.0412306
0.00362037
-0.00182586
-0.051261
-0.000289711
-0.00279387
-0.0579699
-0.0197247
-0.051599
-0.0235944
-0.00331504
-0.0164556
-0.000965732
-0.0105184
0.00320055
-0.0433185
0.00272198
-0.00575496
-0.00226456
-0.0215003
0.00510277
-0.0185152
-0.0599865
-0.00167994
-0.00539435
-0.0223159
0.000835487
-0.0628226
-0.0173565
-0.000668148
-0.0562957
-0.0582579
-0.0677533
0.000449054
-0.0602808
0.00157105
-0.0141132
-0.0612031
-0.0142679
-0.00870437
-0.0569993
-0.0125813
-0.0117178
-0.0701823
-0.0148332
-0.0574063
-0.033735
-0.0612128
-0.0284782
0.00422706
-0.0219114
-0.0652517
-0.029164
-0.0263509
-0.00303592
0.00364732
-0.00243726
-0.00193475
-0.0265882
-0.000625304
-0.0198643
-0.0208318
-0.0595359
-0.00321989
-0.0349665
-0.0452478
-0.00182768
-0.0534483
-0.00570439
-0.0156197
-0.0590024
-0.000714084
-0.0512446
-0.0663079
-0.00224195
-0.0510694
-0.0246599
-0.0602368
-0.0472421
-0.0272719
-0.00422023
0.00362898
0.00613676
-0.0292583
-0.035529
-0.00310017
-0.0165096
-0.0631133
-0.0398222
-0.0629058
-0.0041076
-0.0350995
-0.0666343
0.00119819
0.00602996
-0.0613492
-0.0186366
-0.0269661
-0.0637579
-0.0413768
-0.0317542
0.00861186
-0.067925
-0.0238419
0.00113482
-0.0622738
-0.0637659
0.00106141
-0.0110166
-0.0497673
-0.0449912
-0.0378254
-0.0226753
-0.0598091
-0.0383905
-0.0127275
0.00666506
0.000852823
-0.00832477
-0.056431
-0.014886
-0.0282948
-0.0284887
-0.000660268
-0.00191835
-0.056139
-0.0341045
-0.000421408
-0.038322
0.0014875
-0.00472943
-0.0445841
-0.0515547
-0.0235531
-0.0552382
0.00128008
-0.0542088
-0.000708834
-0.0639457
-0.0627716
-0.0634692
-0.000676778
-0.0277155
-0.0150847
-0.00824478
-0.0382809
-0.0622543
-0.0631291
-0.00729064
-6.33417e-05
-0.0317296
0.000676928
-0.0543685
-0.0578084
-0.00041534
-0.00435705
-0.0279906
-0.0353002
-0.00762677
-0.00089663
-0.0287565
-0.0362118
-0.00954868
0.000952544
-0.0182456
-0.0549937
-0.00638362
0.00361943
-0.059746
-0.0468248
-0.0157172
-0.0603301
-0.0145891
-0.0143808
-0.0743095
-0.0217693
-0.0155891
-0.0711291
-0.0654959
-0.0409464
-0.0608536
-0.0327662
0.014609
-0.00756108
-0.0011578
-0.0653612
-0.0503451
-0.0320742
-0.0525842
-0.0199804
0.00812203
-0.0468154
-0.0728763
-0.0299712
-0.0747233
-3.98432e-05
-0.0364686
-0.0235568
-0.0070012
-0.0628098
-0.0112639
-0.000754451
-0.00787275
-0.0639392
-0.0143621
0.00406308
-0.0672591
-0.000252181
-0.018196
-0.000133018
-0.0170739
-0.0650296
-0.0282701
-0.059375
-0.0507232
-0.0462065
-0.0128896
-0.0369643
0.00070149
-0.00806476
-0.00861493
-0.0230092
-0.0173757
-0.00075752
-0.00109017
-0.0582779
-0.0719222
-0.0204564
-0.052386
-0.00405602
-0.0131494
-0.0145336
-0.00157995
0.000227137
-0.0238766
-0.0391787
-0.06968
-0.0258427
-0.0463405
-0.0356725
-0.0373968
-0.0203236
-0.0625996
-0.00442498
-0.0606008
-0.0319657
-0.0110039
-0.0344053
-0.0618545
-0.020168
-0.0159561
-0.000516826
-0.0253406
-0.052751
-0.00303256
-0.034853
-0.00682585
-0.00933179
-0.0644838
-0.0232286
-0.0368704
-0.0170663
-0.00425197
-0.0600971
-0.043829
-0.00705343
-0.0548989
-0.000326451
-0.063199
0.0170972
-0.0145127
-0.013559
-0.0750293
-0.0219806
-0.056718
-0.0362294
-0.0622956
-0.000799656
-0.00499485
-1.49337e-05
-0.0627408
-0.0270749
-0.00168802
-0.0013379
-0.0707953
-0.0801593
-0.0422297
-0.0290465
-0.0121024
-0.00882285
-0.0534042
7.12973e-05
-0.0636464
-0.0663533
-0.00438906
-0.0449343
-0.00893289
-0.0016608
-0.0452539
-8.29237e-05
-0.0333031
-0.0128333
-0.0262601
-0.0339968
-0.0173242
-0.000894894
-0.0709562
-0.0107715
-0.0247509
-0.0625237
-0.0216179
0.00112324
-0.0415587
-0.00342021
-0.000379708
0.00195821
-0.0543291
-0.000876549
-0.000832192
-0.000528949
-0.00197785
-0.0240931
-0.0458821
-0.0340151
-0.0229474
-0.000597425
-0.000535401
-0.0278851
0.0098331
-0.0658337
-0.0505563
-0.0718941
-0.00686164
0.000122696
-0.0248348
-0.0629153
-0.0270049
0.00175926
-0.0612352
-0.0624074
-0.00432802
-0.0348177
-0.0313675
0.00444694
-0.0629808
-0.000502896
-0.0262938
-0.0502012
-0.0630164
-0.0331843
-0.0361865
-0.0151386
-0.0680055
-0.0621784
-0.00165489
-0.0637099
-0.00562092
-0.0279058
-0.0520795
-0.0647456
-0.000410161
0.0161429
-0.0220358
-0.00875143
-0.0249513
-0.0167489
-0.0166182
-0.00846051
-0.0202153
-0.00011385
-0.0430104
-0.0628955
-0.0292858
-0.00299965
-0.0374138
-0.0353725
-0.00381213
0.000116641
-0.0279978
-0.00102812
-0.062719
-0.00273479
-0.00753169
-0.0350867
-0.0736842
-0.000565412
-0.0552473
-0.0277249
-0.0126028
-0.0401698
-0.00716414
0.00178907
-0.00210515
-0.00047228
-0.0057541
-0.00127165
-0.0673973
-0.000654431
-0.0145165
-0.0546178
-0.0568537
-0.0144973
-0.0606547
-0.0184221
-0.0293472
-0.0244911
-0.0233437
0.00131386
0.000420312
-0.0627845
0.0149025
-0.00337491
0.00523963
0.0013547
-0.0687266
-0.0302926
-0.0666251
-0.00510801
-0.0140953
-0.0278385
-0.0135989
-0.000824424
0.000727006
-0.0665987
-0.0704588
-0.0187562
-0.0137154
-0.0272202
-0.074496
-0.0326505
-0.0158424
-0.0167771
-0.0517441
-0.0320617
-0.0648981
-0.0352103
-0.000642085
-0.0175829
-0.00464031
-0.00896897
-0.0649711
-0.0102536
-0.0492092
-0.0688965
-0.0223091
-0.0539336
0.00400159
-0.00438737
-0.0358447
-0.000146238
-0.0412459
-0.000629535
-0.000756942
-0.000549343
-0.0717741
-0.000484145
-0.00231392
0.00299728
-0.0490677
-0.00843549
-0.00866523
-0.062311
-0.05715
-5.56461e-05
-0.00146456
0.000206331
-0.0604671
-0.0227839
-0.0340525
0.0124222
-0.0111861
-0.0450229
-0.0199575
-0.000126407
-0.022298
-0.0297809
-0.0477738
-0.0723381
-0.0690436
-0.0422691
-0.00405344
-0.024301
-0.0297666
-0.0365411
-0.00691918
-0.0634488
-0.0674847
-0.0164255
-0.0124328
-0.000525341
-0.0296824
0.000667106
-0.0648595
-0.050756
-0.0319518
-0.0627176
-0.0638718
-0.0682972
-0.0617549
-0.020697
-0.0708476
-0.029153
-0.0508356
-0.0627633
-0.0708213
-0.06499
-0.000946076
-0.0404458
-0.00101681
-0.00608214
-0.0700252
-0.0180931
-0.0274783
-0.0534422
-0.033892
-0.0572207
-0.0639483
-0.0617708
-0.0546342
-0.0382755
-0.0220107
-0.0231169
-0.0037045
-0.0359896
-0.0389812
-0.0618449
-0.0403293
-0.0336809
-0.000732084
-0.00348093
-0.00894083
-0.0658176
-0.0167699
-0.00714462
-0.0302492
-0.0174331
-0.057369
-0.0139271
-0.00207038
-0.0702458
-0.0314705
-0.0567574
-0.0273627
-0.0545229
-0.0365606
0.000639808
-0.018879
-0.00145164
-0.0511289
-0.0446951
-0.00746711
-0.0473596
-0.0690174
0.00289687
-0.0212432
-0.0109605
-0.0578128
-0.0166967
-0.00988034
-0.000748997
-0.0298963
-0.0611989
-0.00423224
-0.047149
-0.0657545
-0.0199349
-0.00263815
-0.0400625
-0.0537245
-0.0315842
-0.0614848
-0.0155084
0.000810797
0.00144694
-0.0584949
-0.0495581
-0.000933108
-0.0646432
-0.0223532
-0.0229161
0.00539786
-0.0602585
0.000553272
-0.0375449
-0.0537216
-0.0355063
-0.0636388
-0.00818312
-0.0194768
-0.0337029
-0.0441594
-0.0265326
-0.00945869
-0.0210933
0.000198788
-0.0622768
-0.0364623
-0.065061
-0.0214624
-0.0641904
-0.0556059
-0.032177
-0.0325171
-0.0519546
-0.00857933
-0.0659905
-0.0478609
-0.0686124
-0.0624408
-0.00638495
0.000441595
-0.0605094
-0.0750338
0.00047307
-0.0632866
-0.016777
-0.00674233
-0.0345388
-0.0155557
-0.0206324
-0.0576551
-0.0653446
-0.00575688
-0.000772778
-0.069949
-0.0608316
-0.0443248
-0.0627033
-0.00523234
-0.0582977
-0.0523155
-0.064496
-0.0040635
-0.00646475
-0.060168
-0.0553337
-0.00437572
-0.058412
-0.0647119
-0.0048145
-0.0317086
0.000348639
-0.0252317
-0.0163478
-0.0487211
-0.0718001
-0.00279108
-0.0267067
-0.00519918
-0.0292955
-0.0651693
-0.068388
-0.0172535
-0.0607003
-0.0393397
-0.0166562
-0.000806107
-0.0304412
-0.00047356
-0.062792
-0.0627494
-0.0393158
-0.0338858
-0.0603342
-0.00678504
-0.06255
-0.0647855
-0.0396369
-0.0622648
-0.00104257
-0.019446
-0.0266073
-0.0490654
-0.0620459
-0.0462432
-0.0314243
-0.0346619
-0.00209632
-0.0617975
0.000355374
-0.00161308
-0.0543226
-0.063981
-0.035819
-0.0245356
-0.0450544
-0.0247852
-0.0277334
-0.0330541
-0.0139187
-0.0652153
-0.000997789
-0.0609187
-0.0101044
-0.0223483
-0.058365
-0.00706917
-0.000665627
-0.0316049
-0.0342208
-0.00362886
-0.00733373
-0.0497581
-0.0654609
-0.0587112
-0.0458889
-0.0303639
-0.00150751
0.000839399
-0.0373944
-0.0173398
-0.00662952
-0.00112124
-0.000714649
-0.0698979
-0.0235134
-0.0442273
-0.0437919
0.000390578
-0.00208702
-0.000537061
-0.0357755
-0.0359436
-0.0499206
-0.043762
-0.046106
-0.0526088
-0.0330549
-0.0553371
-0.0497253
-0.0599005
-0.0479243
-0.00107472
-0.0443666
-0.0381336
-0.0299555
-0.044093
0.000636562
-0.0368643
-0.0494292
-0.0571659
-0.0269072
-0.0629097
-0.055343
-0.0632187
-0.0635089
-0.0366691
-0.0637013
-0.0638361
-0.0638832
-0.0638484
-0.0651709
-0.0540218
-0.00110127
-0.014407
-0.0487985
-0.0618429
-0.0114479
-0.0471906
-0.0579123
-0.0402538
-0.067758
-0.000612271
-0.00111572
0.00108839
-0.064969
-0.0359045
-0.0171942
-0.0749177
-0.0518415
0.0140605
-0.0191883
-0.0118699
-0.0385108
-0.0879821
-0.00123962
-0.0533898
-0.0599686
-0.0628645
-0.0597827
-0.0624381
-0.0459691
0.00146644
-0.0575756
-4.98925e-05
-0.0571012
-0.056938
-0.0220111
-0.0388507
-0.0376451
-0.0081053
-0.00227616
-0.00845026
-0.000160903
0.000133673
0.000197562
-0.0394188
-0.0625793
-0.0383901
-0.0223599
-0.0629719
-0.0511174
-0.0643501
-0.0525769
-0.0315224
-0.0266892
-0.035248
-0.0111537
-0.0632861
0.0106823
-0.0681665
-0.0624581
-0.0627851
0.00335686
-0.00931161
-0.0110955
-0.0607631
-0.000973557
-0.0597795
-0.000310189
-0.0608522
-0.0360041
-0.0153089
0.0096523
-0.0113514
-0.0612776
0.00418892
-0.026094
-0.0131682
-0.0360906
-0.0660922
-0.0651023
-0.0376017
-0.0640725
-0.0111991
-0.004938
-0.0491992
-0.0376239
-0.0551548
-0.0522987
-0.0357202
-0.0631073
-0.0616285
-0.0642235
-0.000391461
-0.000692067
-0.00281977
-0.00413268
-0.0604601
-0.00783739
0.00414367
-0.0232516
-0.0620161
-0.00884549
-0.00185399
-0.00623658
-0.0849021
-0.0286889
-0.0348214
-0.000486576
-0.0638056
-0.00184842
0.00473078
-0.0595369
-0.0612931
-0.0627902
-0.000539678
-0.054629
-0.0387419
-0.0612424
-0.0626963
-0.0224058
-0.0616973
-0.012961
-0.001377
-0.0222439
0.0174306
-0.0328241
-0.0122679
-0.0351604
-0.025968
-0.0401812
-0.060295
-0.0619152
-0.0604866
-0.00300773
-0.0454322
-0.00384572
-0.0620192
-0.00100371
-0.0363391
-0.00945727
-0.048493
-0.00211583
0.00446984
-0.00788462
-0.0149968
-0.0577274
-0.0690261
-0.0107526
0.00298996
-0.0690338
-0.00231377
-0.00145672
-0.0616237
-0.0395431
-0.0369515
-0.0628155
0.00257192
-0.0695595
-0.00492543
-0.0659707
-0.0705116
0.0126717
-0.010091
-0.0454825
-0.0608256
-0.05926
-0.062415
-0.000330748
-0.0351701
-0.0632581
-0.000145907
-0.0482268
-0.0233114
-0.060276
-0.0331543
-0.0625845
-0.059151
-0.00783797
-0.0263567
-0.0704336
-0.0407277
-0.0635188
-0.0536236
-0.0108061
-0.000502989
-0.0623312
-0.0577458
0.00182093
-0.0332272
-0.0236066
-0.00623177
-0.0655089
-0.00632626
-0.0559845
-0.0280752
-0.0542737
-0.038071
0.00343796
-0.0344802
-0.048161
-0.0533197
-0.00960487
-0.0676504
-0.000548267
-0.0415618
-0.032733
-0.00120215
-0.0132724
-0.0348789
-0.0584047
-0.0624545
-0.00378434
-0.0570682
-0.0305078
-0.0068225
-0.0224151
-0.00194605
-0.0355906
-0.0627174
-0.0583806
-0.00115959
-0.00440711
-0.061513
-0.066613
-0.0621546
-0.0629822
-0.0291919
-0.0650315
-0.0240864
-0.00195232
-0.0116801
-0.0559201
-0.0169415
-0.0620648
-0.0630097
-0.0453262
-0.0614205
-0.0529004
-0.00616
-0.0602968
-0.0446959
-0.0560263
3.84144e-05
-0.00903012
0.00281938
-0.0672168
-0.0319147
0.00228779
-0.0265828
-0.0609353
-0.0633473
-0.0411797
-0.0656099
-0.0647174
-0.0588975
-0.0219098
-0.000790624
-0.0630521
-0.0271218
-0.0330065
-0.0336716
-0.0257282
-0.00836917
-0.0197527
-0.0268143
-0.020482
-0.0273892
-0.0221583
-0.0176103
-0.00237564
-0.0705808
-0.0275653
-0.0597779
-0.029388
-0.0204159
-0.0633472
-0.0675866
-0.0126171
-0.00732879
-0.00494616
-0.0549965
-0.0603432
-0.0540947
-0.045022
-0.0237302
-0.00572562
-0.0136277
-0.0563531
-0.0614666
-0.018985
-0.000312313
-0.0628555
-0.0333824
-0.018206
-0.0619989
-0.0457406
-0.0504428
-0.0587551
-0.0587247
-0.00889396
-0.024652
-0.0655663
-0.0108478
-0.0276713
-0.037194
-0.000872662
-0.0631152
-0.0441915
-0.0546634
-0.0241322
-0.0270747
-0.0484126
-0.062856
-0.071465
-0.0325226
-0.0636165
-0.0689429
-0.0487026
-0.036902
-0.0355923
-0.0499063
-0.0453902
-0.0613834
0.00344061
-0.0108319
-0.0566625
-0.0353718
-0.0667659
-0.0447515
-0.0214057
-0.0505654
-0.0021559
-0.0434086
0.00653426
-0.0311219
-0.00913641
-0.0223583
-0.0592599
-0.0630751
-0.021597
-0.0147808
-0.063833
-0.0347049
-0.00837595
-0.0246024
-0.0576263
-0.0490503
-0.0571804
-0.0300037
-0.0637356
-0.062867
-0.063975
-0.0598446
0.000832795
-0.0662939
0.00229708
-0.0265972
-0.0701715
-0.0640464
-0.0253487
-0.00378338
-0.0294266
-0.0110597
-0.0264966
-0.0640396
-0.00873873
-0.0520732
-0.0555167
-0.00691264
-0.000379199
-0.00384598
-0.0242724
-0.0264872
-0.00263427
-0.0540708
-0.0212267
-0.0242303
-0.00131797
-0.0625305
-0.0369793
-0.0470698
-0.0312584
-0.00165581
-0.000518718
-0.0616107
0.00101922
-0.0627702
-0.031708
-0.0339293
-0.035915
-0.034709
-0.0271324
-0.0265898
-0.0402622
-0.0530203
-0.0368185
-0.047095
-0.00442985
-0.0805489
-0.0527289
-0.027314
-0.0227364
-0.0549286
-0.00472659
-0.0446403
0.000184565
-0.0556463
-0.00101518
-0.0229532
-0.0158954