/*--------------------------------*- C++ -*----------------------------------*\
| =========                 |                                                 |
| \\      /  F ield         | OpenFOAM: The Open Source CFD Toolbox           |
|  \\    /   O peration     | Version:  v2012                                 |
|   \\  /    A nd           | Website:  www.openfoam.com                      |
|    \\/     M anipulation  |                                                 |
\*---------------------------------------------------------------------------*/
FoamFile
{
    version     2.0;
    format      ascii;
    class       surfaceScalarField;
    location    "850";
    object      phi;
}
// * * * * * * * * * * * * * * * * * * * * * * * * * * * * * * * * * * * * * //

dimensions      [0 3 -1 0 0 0 0];
oriented        oriented;


internalField   nonuniform List<scalar> 
20642
(
-0.027766
0.0334342
-0.00566808
0.289552
-0.0614246
-0.228134
-0.106793
0.0946324
0.0121575
-0.35243
0.139813
0.2126
0.365626
0.0374959
-0.403135
-0.0416373
0.33118
-0.225099
0.0240563
0.201029
-0.0125542
0.231587
-0.219037
-0.245609
0.223948
0.0216381
0.00315847
0.000723147
-0.247599
0.235038
0.229913
0.133731
-0.363668
0.600958
-0.601055
0.269404
-0.0220946
-0.247312
0.292064
0.0406041
-0.332681
-0.0332197
0.00545361
0.592428
-0.597823
0.00536326
0.0600847
-0.272846
0.212755
-0.0297285
-0.0818169
0.11154
-0.00326564
0.0341189
-0.0308532
-0.0843132
-0.188743
0.273047
0.627417
-0.37166
-0.255783
0.201317
-0.144663
-0.0566605
0.34195
0.285437
-0.051943
-0.18633
0.238258
0.0687036
-0.262178
0.193465
0.0255068
-0.200513
0.175004
0.0031591
0.0986011
-0.284511
0.185902
-0.706685
0.411454
0.29523
0.00230809
0.000851539
0.0242402
-0.106322
0.0820765
0.0436738
0.254744
-0.298437
-0.00220837
0.0395202
-0.0373124
-0.655325
0.48182
0.173479
0.370858
-0.139275
0.264106
-0.36131
0.0971881
0.620443
-0.100747
-0.519796
-0.0244061
-0.200704
0.229286
-0.00354811
-0.225747
-0.781263
0.610424
0.170819
0.421251
0.121277
-0.542543
-0.138205
0.251907
-0.11371
0.126433
-0.108467
-0.0179698
0.0166298
0.109798
0.180268
-0.0806239
-0.0996448
0.2232
-0.307525
-0.000624268
-0.025555
0.0261807
0.375176
-0.276464
-0.0987136
-0.401429
-0.253918
0.348323
-0.118433
-0.153113
0.0473611
0.105748
0.0216023
-0.000602663
-0.0209998
-0.309818
-0.0915809
0.401369
0.0142047
0.360181
-0.374414
-0.0825692
-0.0705462
0.00230957
0.166014
0.0352959
-0.13741
0.558646
0.0592686
0.120998
-0.0278372
0.0751565
-0.0473181
0.53526
-0.497063
-0.0382094
0.483432
-0.630523
0.147089
-0.262964
0.211004
-0.0800519
0.0765658
0.00348425
0.13239
0.472884
-0.605275
-0.283364
0.0872954
0.196062
0.163149
0.207704
-0.18752
-0.00267209
0.0270247
-0.0243528
-0.115797
0.0770862
0.038708
0.0255987
-0.0278075
-0.256255
-0.145426
0.401657
0.401167
-0.538596
0.0785087
-0.267261
-0.0542568
-0.180826
0.235066
0.412958
-0.101851
-0.311122
-0.147298
0.548446
-0.25999
0.205714
0.235058
-0.191398
-0.373808
0.438594
-0.0648115
-0.612211
0.584107
0.0280613
-0.421424
0.165149
0.0149088
0.0706558
-0.0855671
-0.230915
-0.302097
0.53293
-0.00596045
-0.216629
0.222586
-0.0933248
0.117558
-0.640898
0.606741
0.0340559
-0.0281563
0.257432
0.489443
0.102957
-0.590512
0.414036
0.176449
0.114983
0.26278
0.112394
-0.611396
0.198243
0.413125
-0.410698
0.283621
0.127054
-0.18477
-0.016525
-0.181902
0.198424
0.591713
-0.592028
0.000252396
-0.138642
-0.502336
-0.157768
-0.0895195
0.247283
0.53992
-0.544951
0.00502014
0.556292
-0.0163795
0.00331166
-0.377141
0.520772
-0.595009
0.0741821
-0.00873661
0.421676
-0.0829277
0.0818578
0.00106887
0.0483424
-0.0604944
0.0121523
0.416331
0.118916
0.53699
-0.415727
0.181712
-0.156206
0.534648
0.0718444
-0.00367862
0.0431979
-0.110817
-0.173701
-0.0704817
-0.00957248
0.386208
-0.179805
-0.206415
0.0996905
-0.129424
0.42967
0.164656
-0.594348
0.106594
-0.0901681
-0.01643
-0.469153
0.276555
0.192593
-0.0965058
-0.515746
0.154725
-0.574829
0.420084
0.268028
-0.180739
-0.132399
0.138372
-0.00597773
-0.0259689
-0.00177418
0.0277429
0.0552069
-0.0402997
0.0759596
-0.269813
0.193838
0.25881
-0.18031
-0.422053
0.548352
-0.126332
-0.0983714
-0.034032
-0.0562018
0.157651
-0.101458
0.190441
-0.0591596
-0.131282
-0.0102605
-0.0442046
0.0544647
0.16957
0.216624
-0.0674458
0.122945
-0.0555049
0.0229739
0.158736
0.0153134
-0.0803921
0.0650793
0.0260186
-0.0250379
-0.000980863
0.0539633
-0.24821
0.194237
0.620338
0.237193
0.0465924
-0.283787
-0.557367
0.410051
-0.0691702
-0.0137591
-0.539227
0.255432
0.283759
-0.150923
-0.235111
0.386015
-0.404967
0.581039
-0.176084
-0.0565605
-0.0592385
-0.0486198
0.0338065
-0.0246568
-0.00914829
-0.457964
0.148114
-0.195798
-0.0301876
0.225976
0.5831
-0.714215
0.131105
0.249847
-0.400791
-0.166569
0.150042
-0.134397
-0.327878
0.462254
0.54454
-0.0238203
0.0395858
-0.050227
0.0106407
-0.627076
0.619475
0.00757966
0.581942
-0.152291
-0.175055
-0.330052
0.505046
0.0993299
-0.0696915
-0.0296386
0.0659136
-0.30771
0.241781
0.317016
0.075484
-0.059076
-0.0164071
0.0220826
-0.199632
0.177547
0.0216022
-0.0321623
-0.00947851
0.0416419
-0.387847
-0.231762
0.619608
0.243875
-0.18992
0.0597269
0.305794
-0.365549
0.0653827
-0.0558568
-0.00952661
-0.0689319
-0.0505637
-0.0455933
0.0961578
0.188587
-0.0993997
-0.0891914
0.614258
-0.109214
-0.505058
-0.145635
-0.206811
-0.152511
0.0204053
0.132103
-0.193686
0.137476
-0.227846
0.293746
-0.167363
-0.0831626
0.250502
0.401646
0.250386
0.0979178
0.147778
-0.0703846
-0.077395
0.102744
0.00384734
0.165443
0.0249953
-0.103585
0.353948
0.0468654
0.100909
-0.401564
-0.305123
0.225592
-0.231557
0.138296
0.0502849
0.126701
-0.110076
0.0114445
-0.114218
0.102771
-0.0320049
0.00250128
0.0295029
-0.267308
-0.344109
0.0297108
-0.00314236
-0.0265686
-0.271901
0.107785
0.164103
0.0492799
-0.0595411
0.500851
-0.0190568
0.351146
-0.485565
0.281962
-0.236044
-0.0459295
0.023594
-0.0268642
0.00326985
0.027204
-0.0011855
-0.0859119
-0.231132
0.317027
0.195844
-0.0332972
-0.162547
-0.263093
0.302712
-0.039628
-0.223964
-0.402661
-0.105153
0.304792
0.133777
-0.427646
-0.11493
0.542534
-0.0417393
0.328854
-0.287124
0.273861
-0.315609
0.00825255
0.0506234
-0.118074
-0.179514
-0.0728659
0.0664
0.00646469
0.635607
-0.251827
-0.383882
0.736444
-0.424148
-0.312314
0.345307
0.39112
-0.0374022
-0.0178354
-0.104945
0.122777
-0.142084
0.0408947
0.101187
0.371868
0.180402
-0.552325
0.57072
-0.0872895
-0.147955
0.170928
0.029108
0.133946
0.323978
-0.457943
-0.376575
0.5105
-0.319838
-0.461441
0.741426
-0.396136
0.312512
0.428897
-0.0130185
0.0386168
-0.0460887
0.0457572
0.000332575
0.0868083
0.295951
-0.382782
0.493079
0.0909774
-0.584058
-0.114115
0.148687
-0.0345777
-0.032802
0.00208934
0.0307125
0.0126194
-0.522423
0.509781
0.529032
-0.157223
0.181531
0.0143113
0.0793632
-0.0665725
-0.0127918
-0.0882234
-0.0599931
-0.0128738
-0.151938
0.130627
0.0213075
-0.340757
-0.198501
-0.0648745
0.055397
-0.161157
0.0470372
-0.251572
0.140747
0.0083313
0.113804
-0.122142
0.229902
-0.315831
-0.0378353
-0.471081
0.221842
0.249215
0.0572569
0.095509
-0.152772
-0.0446022
-0.132857
0.177452
-0.0139743
-0.336651
0.3506
0.610407
-0.187019
-0.321776
-0.112267
0.434027
0.379615
-0.552825
0.173189
-0.00386011
0.0306397
-0.0267796
0.106379
-0.245515
0.139134
0.160093
-0.567464
0.407347
-0.677784
0.301188
-0.45688
0.128981
-0.289291
-0.388514
-0.194555
0.0622953
0.538563
-0.0203481
-0.161842
0.182181
0.581556
-0.421482
0.00265902
0.02333
0.0532176
-0.00487495
0.0790223
-0.403339
0.324279
0.305252
0.118186
-0.423455
-0.167482
0.130826
0.0366551
-0.75708
0.308469
0.448596
0.272082
-0.102985
-0.1691
0.0289543
-0.0328145
-0.348057
-0.409036
0.0253746
-0.0280467
0.567888
-0.188295
0.00681255
0.0925171
0.617033
-0.00278887
-0.298207
0.38269
-0.0844963
0.279908
-0.293902
-0.329625
0.516631
-0.187049
0.108185
-0.00685672
-0.101332
0.547455
-0.587649
0.0401087
0.188249
-0.166169
-0.276067
0.0915757
0.184481
-0.543628
0.13865
-0.213211
0.204811
0.00839768
0.0247641
-0.448104
0.460705
0.158904
-0.0191256
-0.139785
-0.330857
0.451451
-0.120612
-0.354433
0.156068
0.198352
0.479798
-0.114186
-0.0749656
-0.185041
-0.590659
0.20243
0.388204
0.0488457
0.498523
0.158697
-0.00653416
-0.152166
-0.508531
0.173856
0.334666
-0.131704
0.188953
-0.247876
0.172894
-0.36463
-0.169339
0.533916
0.0523842
-0.0127987
0.0286803
-0.00508653
-0.423968
0.550048
-0.126114
-0.677279
0.197724
0.47955
-0.184876
-0.298368
0.423465
-0.125103
0.0959068
0.0132852
-0.109195
0.0253137
-0.0572164
0.0319022
-0.0856771
0.0351139
0.524023
-0.618609
0.0945859
-0.20695
0.147788
-0.116511
0.421747
-0.0116853
0.0823386
0.14944
-0.447814
-0.0700404
-0.0367555
-0.206619
-0.394513
-0.0534045
0.345455
-0.0189823
0.508338
-0.161169
-0.347192
-0.25048
0.189049
0.0158065
0.110889
-0.4969
0.578987
-0.0821191
0.0185676
0.0468146
-0.360338
-0.252249
0.612498
0.132143
0.0273711
-0.666196
0.467252
0.198934
0.0205548
-0.0238203
-0.396464
0.557466
-0.161052
-0.00348237
0.154394
-0.150919
-0.0197498
-0.243353
0.68168
-0.157658
0.19072
-0.687654
0.125674
-0.113787
-0.0118917
-0.0657323
-0.00920341
0.0749351
-0.486383
0.194979
0.291381
0.183311
0.325005
-0.0433729
0.0396934
-0.0590029
0.0760199
-0.0170169
0.137668
-0.0698224
-0.0678457
-0.0111776
0.280579
-0.719238
0.371163
0.100629
0.294589
-0.395241
0.0783432
-0.0666414
-0.0117026
-0.103819
-0.103132
-0.340421
-0.378835
0.148923
-0.188687
-0.190062
0.378727
-0.014687
0.217868
-0.203187
-0.135193
0.0218836
-0.130379
0.108491
0.00435336
0.155785
-0.160142
0.0639163
0.208161
-0.144944
0.155409
-0.0104677
0.0350362
0.00105658
-0.0360936
0.100229
-0.522316
-0.274486
-0.211921
0.303028
-0.265541
0.12035
-0.0923613
-0.0279918
0.625266
-0.0563727
-0.568918
0.00142937
-0.144197
-0.000752504
-0.346173
0.0383478
0.29309
-0.27891
0.180946
-0.0316202
-0.149329
-0.4814
-0.195884
-0.348071
0.245701
0.102368
0.53846
-0.41262
-0.125854
-0.0952206
-0.108214
0.268555
-0.288313
0.364736
-0.285747
-0.0933612
0.0821971
0.0111619
-0.449868
0.647269
-0.19741
0.0625189
0.0129659
-0.0935032
0.11597
0.422477
-0.0852937
-0.481997
0.215339
0.266638
0.310205
0.236012
-0.54622
0.128865
-0.552596
0.4237
0.0369244
-0.00280542
-0.146388
0.45659
-0.0039107
0.228222
-0.224326
0.00958324
-0.157539
0.239852
-0.243271
0.00341459
0.102487
-0.342128
0.239622
-0.100703
0.0242391
0.0764644
0.012779
0.0738489
0.235624
0.0545396
-0.29018
0.010588
0.0975935
-0.302357
-0.0885469
0.390878
0.20737
0.0324778
-0.00311475
0.0977437
-0.499051
-0.198661
0.023747
0.174903
-0.0922349
-0.155655
-0.11717
-0.444621
0.561743
0.123401
0.334732
-0.458192
0.21758
-0.582641
0.365026
-0.0335364
-0.166099
0.451421
-0.124723
-0.326717
-0.565534
0.431294
0.134209
0.359094
-0.476534
0.117408
-0.136825
-0.0282182
0.165035
-0.327469
0.138395
0.189069
-0.776139
0.329078
0.447049
-0.692195
0.304347
0.104346
-0.00844188
3.84344e-05
0.180904
-0.490312
0.160649
-0.273482
0.269552
0.112765
-0.0960787
-0.0166863
-0.200718
0.213094
-0.0123773
-0.431798
0.564187
0.0411764
-0.122998
0.0659119
-0.0775993
0.281762
-0.524979
0.243203
0.337239
-0.720622
0.383369
-0.0730766
-0.207487
0.280553
-0.344504
0.467842
-0.438912
-0.249863
-0.373135
-0.347499
0.52557
-0.243823
-0.0561014
0.0485398
0.00756246
0.088569
-0.39095
-0.0325896
0.207047
-0.174465
-0.00436997
0.0277
-0.0175188
0.176415
-0.546638
0.118949
0.39753
-0.147704
-0.0169676
-0.0837346
0.211825
0.0701254
-0.0280156
0.00204691
-0.726062
0.26975
0.456301
0.530594
-0.209064
-0.321565
-0.614773
0.164896
0.672544
-0.360049
0.325118
-0.0610278
-0.480806
0.195489
0.285298
-0.00775766
0.120523
-0.45788
0.563926
-0.106055
0.0101917
0.190566
0.33999
0.00511233
-0.136716
0.131595
-0.429434
0.587953
-0.158528
-0.0967609
0.401532
-0.124559
-0.0273818
0.0986737
0.0389944
0.169262
-0.357971
-0.160037
0.140203
0.0198334
0.348087
0.206099
-0.554228
-0.631596
0.200138
0.431378
0.475145
-0.11608
-0.291243
-0.190774
0.428117
-0.551895
0.123735
0.441038
-0.622258
0.181117
0.00817947
-0.0734301
0.56991
-0.141836
-0.167367
-0.0458454
-0.0166076
-0.084886
0.10149
0.364268
0.209919
-0.57425
0.151716
0.0252648
-0.176988
0.121081
0.00406159
0.0568397
0.00737341
-0.0642124
-0.214383
0.191319
0.0230559
0.022854
-0.209859
-0.228315
0.438171
-0.458162
0.2483
-0.265484
-0.145725
0.132282
-0.561724
0.332372
0.00585073
0.0961305
-0.101983
-0.422805
-0.167731
0.300651
-0.392261
-0.215738
0.208015
-0.176601
-0.0314221
-0.0843634
0.254283
-0.169928
-0.0760215
-0.0256432
0.101661
0.130549
-0.0178935
-0.112662
0.0706656
0.374484
-0.445162
0.42352
-0.305348
-0.064668
-0.208183
-0.00953014
-0.169345
0.178869
0.109328
0.342074
-0.174888
0.152792
0.0808762
-0.160377
0.0794925
-0.0940987
-0.181979
0.0133627
-0.0790527
0.0656908
-0.483242
0.140559
-0.150095
0.131933
-0.11153
0.139601
0.329074
-0.468735
-0.0458961
0.0422306
0.00366525
-0.273663
-0.357999
0.39777
0.274759
0.0280158
-0.164848
-0.310443
-0.415629
0.506427
0.129077
0.162167
-0.00347387
0.010446
0.0363901
-0.115944
-0.0233271
0.13927
0.306543
-0.481658
0.28076
-0.0807149
-0.200057
0.106528
0.380439
-0.486978
0.123402
-0.107585
-0.015818
-0.129104
0.135943
-0.00683899
0.256399
-0.4024
0.14598
-0.0978148
0.153139
0.325467
-0.478662
-0.00277053
0.1536
-0.150837
0.442273
-0.331349
-0.110927
-0.539746
0.40776
0.131956
0.0796408
0.545598
0.460221
-0.109099
0.371815
-0.489029
0.452114
-0.430749
-0.0213783
-0.200136
0.170595
0.0295325
0.604729
0.0152711
0.115273
-0.344914
0.484451
0.387644
0.0313238
-0.419
0.163016
-0.255265
-0.000112101
0.0425428
-0.0424315
-0.508068
-0.0216683
0.529706
0.266607
-0.195628
-0.0709915
-0.159949
-0.392897
0.155742
-0.150639
0.0467165
-0.179292
0.13257
-0.178301
-0.0809499
0.259246
-0.144007
-0.191308
-0.166469
-0.168749
0.3352
0.203353
-0.0101449
0.0594242
-0.0430947
-0.0130055
0.0261753
-0.0305454
-0.435551
0.56102
-0.125503
-0.358129
0.476542
-0.118443
-0.361883
0.43254
0.416249
-0.133809
-0.28247
0.0827232
-0.0168767
-0.065849
0.662479
-0.354024
-0.278901
0.39718
-0.118281
-0.0654621
-0.206452
0.0029531
-0.0646098
0.0616563
-0.192508
0.0845445
0.00238925
-0.00109356
-0.00129482
0.427743
0.142123
0.1464
-0.0831599
-0.0632442
0.525441
0.0662099
0.133213
-0.576396
0.443165
-0.0387092
0.0416618
-0.7602
0.449745
-0.0561634
-0.0264363
0.0825977
0.632652
-0.576797
-0.0558592
0.497363
-0.133161
0.116986
0.0311054
-0.10713
-0.00519863
0.4573
0.434629
-0.518249
0.0836006
0.00816104
0.0977457
-0.105911
0.145198
0.00650978
0.400494
-0.309543
0.0149241
-0.0714871
-0.0620274
0.0429741
0.0190527
-0.0200633
0.0769036
-0.525797
0.0177006
0.0345491
-0.0228421
-0.011707
0.60477
-0.495151
-0.109624
-0.0626414
-0.0177497
-0.351646
0.303023
0.537181
-0.403983
0.63457
-0.190459
-0.444116
0.321183
0.235102
-0.0886016
0.16947
-0.244967
0.161789
-0.431134
-0.211465
-0.380613
-0.762956
0.291281
0.471582
0.0817329
-0.0668119
-0.423318
0.432495
-0.00921678
-0.00174134
0.114047
-0.112311
-0.104772
0.405395
0.528694
-0.0940853
-0.501
-0.126096
0.0373803
-0.118006
-0.0698937
-0.0298995
0.0997923
-0.0129811
0.0153714
0.134359
-0.126034
-0.160344
-0.0398011
0.00355447
0.0863157
-0.0898725
-0.00495123
-0.027851
0.541121
-0.412286
-0.0920875
-0.0226446
0.114731
-0.449292
-0.31375
-0.0919779
-0.0168134
0.108789
0.12453
0.291691
-0.0191738
-0.0741899
-0.128881
0.500652
-0.188234
-0.242528
-0.365387
0.13026
0.0964698
-0.167007
0.180934
-0.0139353
-0.0835974
0.0694279
0.0141682
-0.634173
0.0901213
0.544021
0.155703
-0.17606
0.100875
0.338111
-0.43901
0.492894
-0.171717
-0.00211235
0.0371475
-0.226382
0.208735
0.0176439
-0.0531857
-0.357923
0.41109
-0.102626
0.124506
0.164358
0.559439
-0.430856
-0.128599
-0.0147427
0.597835
0.0384444
-0.0405578
-0.0762046
-0.347162
0.12966
0.383108
0.279359
-0.405261
0.352057
0.0882069
0.0321404
-0.398624
-0.3156
0.130325
-0.0241802
-0.106149
-0.585303
0.555092
0.0301664
-0.596554
0.453211
0.143287
0.012516
-0.0950723
0.404484
0.0174228
-0.000909278
-0.0165135
0.0180289
-0.0741941
-0.231198
0.315511
-0.0843182
0.108859
0.0230715
0.547606
-0.119908
0.295409
-0.254816
-0.0351448
0.0350319
0.0350269
0.0379846
-0.0730139
-0.280237
0.20715
-0.165039
-0.196284
-0.386373
0.198126
-0.212141
-0.373199
0.561693
-0.313599
-0.248125
0.536293
-0.441708
0.0328027
-0.154844
0.122036
0.18857
0.0313164
-0.219898
-0.0566821
0.0700457
0.0215533
-0.18857
-0.3297
0.228751
0.100944
-0.133733
0.00462815
-0.274081
-0.234458
0.00998441
0.156687
-0.166679
-0.0184968
-0.0957246
0.0274639
-0.39244
0.521279
-0.309818
-0.211471
-0.0768191
0.613113
-0.221783
-0.374826
-0.444174
0.347638
0.512495
0.106958
0.459049
-0.352531
0.408217
-0.595746
0.187434
0.0156721
0.018877
0.176285
-0.0398256
-0.136462
-0.634633
0.4577
0.176868
0.122131
-0.10633
-0.232985
-0.401211
0.0544431
-0.0291297
0.162979
0.404889
0.138988
0.409331
-0.0324139
0.0428594
-0.173661
0.0624741
0.111182
0.325227
-0.471986
-0.214066
-0.120686
0.334736
-0.630248
0.186018
0.444223
-0.54962
0.416557
0.133032
0.181473
0.0914802
-0.272963
0.175066
-0.0092562
-0.165815
-0.371511
0.500516
-0.129043
-0.00227865
0.0236073
-0.0213288
-0.0842754
0.218511
-0.134245
-0.327559
0.418663
-0.0911057
0.468061
-0.142835
0.226238
0.295031
-0.040145
-0.0218827
0.0846045
0.196143
-0.655318
0.269314
0.385953
-0.304407
-0.00537881
0.0343329
-0.106362
0.233202
-0.125428
-0.0208097
-0.00720575
-0.423256
0.134386
0.288872
-0.561588
0.16507
0.126662
-0.550663
0.242048
0.0830543
0.0102877
-0.478378
0.14514
0.333236
0.0190847
-0.105023
0.286482
0.195106
0.0714899
0.0193765
-0.428331
0.311803
-0.10833
-0.0220526
0.151958
0.0243272
0.394217
-0.110619
0.275682
-0.0406362
-0.367379
-0.287989
0.204054
-0.028997
0.311237
0.0682003
-0.335424
0.122272
0.213137
0.111885
0.361249
-0.473145
0.021592
0.00195637
-0.0235485
0.51465
0.0815159
-0.596167
-0.280849
-0.142403
-0.377058
0.212004
0.0631643
0.234862
-0.298036
0.0515427
0.16606
-0.217613
-0.0375483
0.0725742
0.500711
0.0833554
0.00764696
-0.119653
0.111998
-0.0956621
0.0257674
0.246234
0.27864
-0.524874
-0.135561
-0.293326
0.428856
-0.179368
0.516939
-0.108816
0.101507
0.268081
-0.369621
-0.407748
0.200254
0.207472
0.384532
-0.0989734
-0.285567
0.130063
-0.0805151
0.117893
0.0219912
-0.401743
0.557238
-0.155536
-0.0116054
0.0766417
-0.0650375
0.0669472
0.156986
0.205972
0.00203522
-0.121127
0.388551
-0.287946
0.072902
0.0734934
-0.00303995
-0.178864
0.406501
0.129994
-0.53652
-0.125089
-0.0485771
-0.13223
0.167278
-0.0350509
0.156237
-0.00428137
0.549591
-0.39113
-0.158489
0.412934
-0.527908
0.341414
0.220254
0.000160202
-0.0967834
0.351506
-0.595711
0.385888
0.209803
0.161838
-0.0297007
-0.525345
0.153796
-0.561628
0.419678
0.141912
0.0160968
-0.0986688
0.185206
-0.280664
0.385413
-0.104757
0.0283547
-0.229074
0.212639
-0.227334
0.0734935
-0.292941
-0.114824
-0.301863
0.2
0.0112282
-0.095521
0.0842903
0.412348
0.124817
-0.562767
0.152347
0.410409
-0.380652
-0.307029
0.531165
-0.537404
0.00620425
0.24347
-0.344435
0.100947
-0.305157
0.196633
0.108511
0.0613828
-0.239689
0.387291
0.162272
0.62903
-0.192214
-0.436819
-0.350395
-0.126648
0.477019
-0.346581
-0.0050658
-0.14885
-0.161684
-0.0527075
-0.396456
0.128012
-0.0142133
-0.351625
-0.0788017
0.093919
-0.0151173
0.0873808
-0.368053
-0.483685
0.103007
-0.012651
-0.0445658
0.282564
-0.0948636
-0.187714
0.0274973
0.0946328
0.170542
-0.344628
-0.0138456
0.358467
0.122386
0.309367
-0.431771
0.54557
-0.41696
-0.128642
-0.418981
0.28339
0.026165
-0.0498482
0.0236827
-0.17752
0.199969
-0.022459
0.0899678
-0.321172
0.193714
0.019379
-0.297997
0.39947
0.0194379
0.136794
0.688608
-0.195529
-0.406719
0.484272
-0.0775659
-0.470273
0.144732
0.325538
0.498688
-0.407712
-0.0163334
0.26373
-0.0966095
-0.167132
-0.0170216
-0.327613
0.113359
-0.0136738
-0.0908542
-0.304368
0.395217
0.301277
-0.520821
0.219518
0.327279
-0.52215
0.194836
0.158688
-0.154339
0.145822
-0.299246
0.409785
-0.110567
0.0749645
0.227799
-0.302781
-0.358088
0.494734
-0.136676
0.0176353
0.498332
-0.197076
-0.0539915
-0.193929
0.247917
0.279551
0.114645
0.0299252
-0.0019762
-0.0279494
-0.028554
-0.419437
0.241091
0.178341
0.0117698
-0.12838
-0.0316572
-0.0032946
0.111428
0.312031
-0.415448
0.565029
-0.149634
0.540512
-0.450345
-0.0901826
-0.100407
0.379487
-0.279109
-0.0719766
-0.243973
0.315933
0.459627
0.0265244
-0.505494
0.360273
0.145184
-0.205557
-0.121915
0.102096
0.0117144
-0.0799527
0.068236
0.22772
-0.324522
-0.0293591
-0.152343
0.181701
-0.162496
-0.0152569
0.177749
-0.548225
0.414071
0.134124
-0.189601
0.186045
0.261006
0.0215463
0.545239
-0.16489
-0.380366
-0.00585983
-0.178667
0.184515
0.179337
0.467922
-0.00958308
0.0562078
0.144388
-0.11159
-0.616046
0.167252
0.448791
0.146225
0.40379
0.232733
0.233654
-0.524863
0.363669
-0.462289
0.11187
-0.0165329
-0.400773
0.559666
-0.158945
-0.0488379
0.363492
-0.492417
-0.178808
0.47454
-0.295733
-0.408804
0.135018
0.273772
0.104008
0.332228
-0.436274
-0.0755174
-0.36544
-0.131632
0.155195
-0.556022
0.341222
-0.0862379
0.298259
0.0221854
-0.320461
0.00352682
-0.556783
0.415416
0.141328
0.198442
0.221421
-0.684306
0.462877
-0.346874
-0.115439
-0.0277195
0.028775
0.488621
-0.161377
-0.150165
0.289962
-0.00260638
0.124733
-0.0333884
0.677264
-0.45585
-0.421486
0.299371
0.12211
0.0982272
-0.0870015
0.556805
-0.419907
-0.136912
0.0895018
0.297923
-0.387445
0.118425
0.0776241
-0.161611
-0.308104
0.469694
-0.088787
0.0969441
0.290868
-0.349713
0.0588252
-0.0340387
-0.0118577
0.284026
0.098651
0.12992
0.0111802
-0.141101
-0.347982
-0.4763
-0.116513
0.592804
-0.572021
0.42563
-0.09838
0.539309
0.677332
-0.162684
0.0543167
-0.0644622
-0.0890522
0.328259
-0.239226
-0.610294
0.2357
0.374542
0.293207
-0.413301
0.120089
0.144171
0.114048
0.426447
-0.108133
0.305732
-0.0701248
0.0122395
-0.207228
0.17463
-0.11529
-0.00415728
0.119444
0.102323
0.232245
-0.0371511
-0.00748438
0.0375405
-0.0300563
-0.379499
0.117752
0.261727
-0.116823
-0.250298
0.414871
-0.164604
-0.0287597
0.00477043
0.0239891
-0.407125
0.204099
0.11435
-0.318459
-0.221656
-0.462657
-0.190411
-0.357835
0.548228
-0.64905
0.427386
0.605093
-0.170918
-0.434192
0.563042
-0.446063
-0.116999
0.126088
0.297974
-0.424093
-0.17278
-0.0306901
0.203461
0.54787
-0.141393
0.244153
-0.333224
-0.0123826
-0.11295
0.125328
-0.033306
0.0754083
-0.0421011
-0.0810775
0.00227615
0.124714
-0.127325
-0.219091
-0.391816
-0.180209
0.476842
-0.338211
-0.138679
-0.0130627
-0.082461
0.331517
0.110753
0.0174227
0.153359
-0.428651
0.275278
0.144164
-0.00776725
0.5139
-0.506221
-0.301809
0.414065
-0.112283
-0.283891
0.437236
-0.439434
-0.175348
-0.372941
-0.133933
0.506828
-0.149404
0.159381
-0.242027
-0.36832
0.0277826
-0.0287084
0.000926396
0.442643
-0.373405
0.524375
-0.151016
-0.0316387
0.0578029
-0.422668
0.172343
-0.278178
-0.304489
-0.0872898
0.503609
-0.00222854
0.0406715
-0.0543417
0.194895
-0.207964
0.594342
-0.386394
-0.133
-0.467122
-0.145647
0.612739
0.531494
-0.016628
0.0740077
-0.0573808
0.109078
-0.00351894
-0.220301
0.223818
0.185283
-0.335462
-0.365224
0.348196
-0.198597
0.586178
-0.452941
-0.133253
-0.0645924
-0.17146
0.317188
-0.408049
0.0648234
-0.231305
0.0322871
-0.0372386
0.295499
-0.423638
0.128127
-0.43383
0.333014
0.369908
-0.280423
-0.512649
0.357026
0.155609
-0.139003
0.00493987
-0.105141
0.100198
0.0257548
0.138474
0.225172
-0.0366119
-0.0367011
0.0313222
0.0342888
-0.00650548
-0.103736
0.420918
-0.098892
0.103828
-0.425641
-0.141843
0.00453188
0.0296596
-0.0341916
-0.460051
-0.114794
0.0926654
0.0172486
-0.109914
-0.135634
0.00881444
-0.207484
-0.286058
0.306762
-0.0207194
-0.151944
0.110435
0.0415083
0.0116755
-0.0760511
0.0643748
-0.666024
0.231989
0.43403
0.170605
-0.346581
-0.469722
-0.308916
-0.196611
0.166565
0.381654
-0.102125
-0.0755643
0.366414
-0.147595
-0.0182086
0.165802
-0.0242977
-0.0012427
0.0255403
0.12611
0.19349
-0.0322721
0.00442085
0.53402
0.0986278
-0.186316
0.475031
-0.288728
-0.346853
0.0548918
-0.061714
0.00682189
0.218837
-0.29083
0.0202522
0.584513
-0.136828
0.160876
-0.261691
-0.138427
0.400096
-0.400788
0.265164
0.119359
0.0524189
0.18367
-0.236101
0.303145
-0.403582
-0.0247981
-0.445645
-0.220385
0.441691
0.138086
-0.579783
-0.138758
-0.115461
0.41095
-0.0297884
0.00251056
0.0272777
-0.330216
0.116136
-0.103396
0.331096
-0.450249
0.586394
-0.136149
0.0312753
-0.401956
0.637965
0.153166
-0.293313
0.0858146
-0.195829
-0.116786
0.312609
0.218102
-0.0328304
0.46289
0.214368
0.0769516
0.463001
-0.351127
-0.479419
0.136398
0.342998
0.0140935
-0.127478
0.113378
-0.436616
-0.00803925
0.529686
-0.283453
-0.0994241
-0.0290474
0.128466
0.0817795
-0.0983901
-0.0166659
-0.102992
-0.12814
0.0220726
0.106066
-0.161642
-0.316738
0.110429
-0.118187
0.0456598
0.00662312
-0.0522831
0.529923
0.0903122
-0.0872469
0.24865
-0.434978
-0.00909918
0.162693
0.133996
0.014686
0.432017
-0.287287
-0.0629562
0.22784
-0.164895
-0.404895
-0.171517
0.240166
-0.177011
-0.0631664
-0.191308
-0.248297
-0.0938493
-0.0604969
0.0847368
-0.15601
-0.0208084
0.17681
0.030357
-0.162591
-0.0957467
0.0803718
0.015375
0.0869659
-0.00862041
0.104895
-0.0962771
-0.218958
-0.408703
0.106867
0.355659
0.0905443
-0.446215
0.584425
-0.14274
-0.61038
0.466309
0.144059
-0.403876
0.542599
-0.138763
-0.221246
-0.0653645
0.077039
-0.59352
0.431936
0.161532
0.0812185
0.247023
-0.150341
-0.252466
-0.118031
-0.228559
0.346567
0.16919
-0.0134089
-0.134252
0.0386806
0.0955656
-0.296129
0.106828
-0.542413
-0.223312
0.169316
0.0599311
-0.510184
-0.295172
0.253525
0.033403
-0.0408877
-0.102976
-0.222527
0.325484
0.147805
0.316209
-0.464039
0.153685
-0.0144146
-0.432752
0.326125
-0.244924
0.051461
-0.00580161
-0.0252567
0.382725
-0.101274
-0.281461
0.178793
-0.165073
-0.0137263
0.309426
-0.0889132
-0.220525
-0.0257592
0.00494933
-0.0110303
0.219761
-0.237321
0.15295
-0.00946173
0.0865449
0.534391
-0.0625954
-0.0985663
-0.053369
-0.093286
-0.393525
0.312544
-0.327698
0.238889
0.0888069
0.522591
0.00296536
-0.088923
-0.0120468
0.522125
-0.510176
0.239232
-0.357288
-0.340362
0.0565931
0.276445
-0.145864
0.161586
-0.0157297
0.589014
-0.176831
-0.412217
0.113987
-0.0763604
0.251499
0.0542157
0.103721
0.0196798
0.168557
-0.446113
0.125499
0.320588
0.00578925
0.232718
0.125742
-0.358473
-0.0804569
0.317655
-0.237216
-0.499141
0.324065
0.175039
0.00498071
0.0274671
-0.0324479
-0.0129951
0.147346
-0.0373164
0.195644
-0.264602
0.0689477
0.0427514
-0.0481036
0.149185
0.0180892
-0.167364
-0.25554
-0.163903
0.176987
-0.0212934
0.405327
-0.595791
0.401554
-0.297579
-0.137526
-0.00975639
0.147281
-0.231086
-0.182897
-0.182272
-0.0799144
-0.196434
0.248841
-0.312546
0.116714
-0.119106
0.133193
-0.0111009
0.14102
-0.471514
0.141414
-0.136204
0.152874
-0.0166724
-0.108686
-0.256543
0.298168
0.11159
-0.353084
0.488613
-0.135577
0.164474
0.416555
0.0770744
-0.0634354
-0.0136399
0.100155
-0.0966036
0.576025
-0.435287
-0.140769
0.155407
-0.642734
0.191395
0.451335
0.107806
-0.412181
0.0238547
0.357576
-0.433161
-0.161059
-0.338197
0.499187
0.0157184
0.506859
-0.279929
0.0345253
-0.500152
0.465519
0.319968
-0.0779357
0.0636087
0.0134647
0.113324
0.169256
-0.226763
0.0574986
0.441528
0.14289
-0.445014
-0.000447883
0.125157
-0.010118
0.0650093
0.0535139
-0.0107615
-0.126133
-0.49966
0.548424
0.339425
-0.500555
-0.0923622
0.336497
0.0499856
-0.453558
-0.162491
0.00669068
-0.0684238
0.00863331
0.127107
-0.135747
-0.0919551
0.253726
-0.623311
0.184583
0.438724
0.297502
-0.100881
-0.0107249
0.44699
-0.390634
-0.0563739
-0.203021
0.223057
-0.0200391
-0.431921
0.555238
-0.425424
-0.129843
-0.366285
0.220846
0.0040458
0.0418692
-0.045916
-0.17801
0.149783
-0.136466
0.577987
-0.12959
0.150108
-0.0205213
-0.403425
-0.00876826
0.139593
-0.464412
0.212507
0.402453
0.165805
-0.568336
-0.0924675
-0.352358
0.0720285
0.374942
0.26329
0.119426
-0.0992062
-0.0145655
0.113767
-0.184453
0.243761
-0.0593171
-0.0914389
-0.207016
0.487319
0.0109884
0.123713
0.431132
0.11136
-0.544569
0.246535
-0.207151
0.0343617
0.172369
0.00201989
-0.174395
0.0212766
-0.0235553
-0.21465
0.192423
-0.198295
-0.145984
0.160285
-0.0143094
-0.0149549
0.164135
0.156702
0.404286
0.164632
0.0896395
0.127034
-0.0258495
-0.0843248
0.0686113
0.0157113
0.0461263
0.00709167
-0.116713
0.359758
-0.243063
0.290752
-0.504175
0.213403
-0.023779
-0.627928
0.289669
-0.51526
0.1133
0.195271
0.079502
-0.274787
0.0174395
-0.350911
0.129616
0.221276
-0.427865
0.0744359
0.0180775
-0.0925156
0.206633
-0.1551
0.0957132
-0.352503
0.256773
-0.182321
0.415962
0.00109185
0.129234
-0.130326
0.073498
-0.082304
0.00880348
-0.0283942
-0.00387816
0.355573
-0.482246
0.102784
-0.42477
0.321956
-0.082
0.466191
0.115734
-0.494514
-0.0304783
-0.15379
0.174029
-0.0202418
0.0970657
0.321595
-0.268105
0.0853012
0.182793
-0.197661
0.156046
0.0416071
-0.315583
0.224125
0.0636886
-0.0728935
0.130246
0.364402
-0.494702
-0.121967
0.377283
-0.255331
-0.133286
-0.179262
-0.221721
0.512448
-0.0135295
-0.0707974
0.112387
-0.47533
0.36289
0.554824
-0.171305
0.023708
0.108285
-0.122323
0.0140329
-0.132509
0.150497
-0.017989
-0.0113912
0.0856821
-0.0742937
-0.15831
-0.274657
0.432914
0.104636
0.0828256
-0.18747
-0.355563
0.523355
0.061886
0.308005
-0.532235
0.524361
-0.190808
0.360049
0.0767238
-0.0902549
0.0357057
0.321852
0.135353
-0.169937
0.436226
-0.0805795
-0.571862
0.430024
0.141828
0.135819
-0.464142
-0.141344
0.60548
-0.157326
-0.00557318
0.0317483
0.461261
-0.609432
0.148161
0.318714
0.109851
-0.122238
-0.544382
-0.118852
-0.0874389
-0.110229
-0.0715437
0.176171
0.289054
0.114931
-0.404013
-0.494021
-0.152031
-0.369703
0.521693
0.417464
0.137742
-0.507685
0.383233
0.124451
-0.232017
-0.1215
0.480099
-0.358608
0.327346
0.217148
0.0363862
-0.503536
-0.429278
-0.105119
0.53439
-0.0917752
0.283345
-0.191575
-0.181218
0.00499819
0.0614009
0.0126126
-0.158484
0.128598
-0.359979
0.530205
-0.170278
0.551496
-0.451213
-0.100309
0.146634
0.0149449
-0.572046
0.145698
0.426341
0.12566
-0.304171
-0.258605
-0.263722
-0.269982
-0.407397
0.16098
-0.36459
0.25219
0.112383
-0.101865
0.0719645
0.446167
0.142818
0.604644
-0.143394
0.248388
-0.0599184
-0.188481
-0.619618
0.171763
0.447853
0.623277
-0.18497
-0.438337
-0.039328
0.311647
0.10239
-0.325743
0.0120345
-0.165827
-0.146296
-0.00416722
0.17547
-0.058518
0.224566
0.170844
-0.158812
-0.140957
-0.431096
-0.471432
0.529198
-0.0577833
-0.0950528
-0.158351
-0.264347