/*--------------------------------*- C++ -*----------------------------------*\
| =========                 |                                                 |
| \\      /  F ield         | OpenFOAM: The Open Source CFD Toolbox           |
|  \\    /   O peration     | Version:  v2012                                 |
|   \\  /    A nd           | Website:  www.openfoam.com                      |
|    \\/     M anipulation  |                                                 |
\*---------------------------------------------------------------------------*/
FoamFile
{
    version     2.0;
    format      ascii;
    class       surfaceVectorField;
    location    "300";
    object      ddtCorrDdt0(Uf);
}
// * * * * * * * * * * * * * * * * * * * * * * * * * * * * * * * * * * * * * //

dimensions      [0 1 -2 0 0 0 0];


internalField   nonuniform List<vector> 
20673
(
(0.0178582 -0.00410266 -2.78855e-18)
(0.01822 -0.00503295 -3.37631e-18)
(0.0172089 -0.00481277 -3.02274e-17)
(0.00357359 -0.000422786 5.53492e-19)
(0.00351603 -0.000226274 8.66262e-20)
(0.00364339 -0.000260883 -3.05128e-18)
(0.120405 0.00573033 1.55767e-17)
(0.114007 0.00373095 1.31206e-17)
(0.109982 0.00735648 -6.83381e-18)
(0.000561622 -0.000364441 -9.58962e-18)
(0.000376312 -0.000490725 -1.27152e-18)
(0.000489769 -0.000519995 -5.00537e-18)
(9.88322e-05 0.00162174 -2.26035e-19)
(8.81711e-05 0.00163983 -5.35065e-19)
(0.000109202 0.00187171 -3.04328e-18)
(-0.000116102 0.00511639 2.81235e-17)
(0.000391776 0.00499734 8.33146e-17)
(-0.000231266 0.00459573 6.81806e-18)
(0.132073 0.0259416 5.16005e-18)
(0.133695 0.023854 2.70709e-18)
(0.123202 0.0271254 1.26693e-17)
(0.10442 -0.0113025 7.38484e-18)
(0.112331 -0.0109585 -1.45561e-17)
(0.108308 -0.0125421 7.77412e-18)
(0.203715 0.0187668 5.78016e-18)
(0.205902 0.0151298 7.86076e-18)
(0.198599 0.0146654 1.01375e-17)
(0.0290954 -0.00391952 -2.25438e-17)
(0.0306364 -0.00448509 2.44459e-17)
(0.0304868 -0.00271015 9.39628e-18)
(-0.0927475 0.0106408 7.50211e-18)
(-0.0942751 0.0141682 6.65215e-18)
(-0.096829 0.00960084 -1.68377e-18)
(-0.0177455 0.0406627 8.81e-19)
(-0.019884 0.0432691 1.41544e-17)
(-0.0201038 0.0388976 2.64716e-17)
(0.00059313 -0.000215512 -6.92947e-19)
(0.167531 -0.0102557 -5.71215e-18)
(0.191666 -0.00995385 6.06888e-18)
(0.164777 -0.00448741 1.16348e-17)
(0.00548336 0.00434631 6.23348e-19)
(0.00524129 0.00456308 1.9313e-18)
(0.00521928 0.0043425 1.89314e-18)
(0.00624836 0.00283251 -3.24368e-19)
(0.00597078 0.00297251 -2.97793e-19)
(0.00604426 0.00259946 2.2874e-18)
(0.00388437 0.000610178 -1.93779e-18)
(0.00388854 0.000394462 -3.13612e-18)
(0.00377165 0.000602096 -4.32931e-19)
(-0.00654622 -0.0272185 -1.16153e-18)
(-0.00529035 -0.027629 -1.08611e-17)
(-0.00654978 -0.0286261 1.40012e-17)
(-0.0146371 0.0428103 6.93633e-18)
(-0.0154939 0.0380696 -1.27699e-17)
(0.000137555 0.000412455 5.71493e-20)
(0.000129174 0.000382928 4.34275e-19)
(0.000111232 0.000325695 2.18645e-19)
(6.5158e-06 0.000107437 5.64191e-19)
(9.75409e-06 0.000154386 -4.05649e-18)
(6.01352e-06 0.000102341 -2.23658e-18)
(0.131678 0.0281049 1.17534e-17)
(0.138054 0.0252434 -1.51543e-17)
(0.000245625 0.000950515 6.05325e-19)
(0.000288816 0.00109575 6.54864e-19)
(0.000278086 0.00104732 2.21461e-19)
(0.0989225 -0.00958641 9.14022e-18)
(0.0960686 -0.0130219 -1.84595e-18)
(0.00095898 0.00345366 4.05332e-19)
(0.000947989 0.00351135 -1.6334e-18)
(0.00101989 0.00347933 2.21237e-18)
(0.107241 0.0530347 -3.45203e-17)
(0.112609 0.050929 2.12212e-17)
(0.116003 0.0487939 -9.41525e-18)
(0.000563198 0.00764008 6.60029e-18)
(0.000575855 0.00774963 1.42681e-17)
(0.000468943 0.00767866 9.83313e-18)
(0.000803634 0.00845946 1.11948e-17)
(0.000766544 0.00854157 1.57978e-17)
(0.00075978 0.00848554 -6.92413e-19)
(-0.00982177 0.0141752 -2.35263e-18)
(-0.0100299 0.0158259 3.78797e-19)
(-0.0119159 0.0148262 -3.37191e-18)
(0.0368838 -0.034278 -1.0258e-17)
(0.0349307 -0.0358913 3.98838e-18)
(0.0373018 -0.0377284 4.69775e-18)
(0.0190347 -0.00880005 3.03094e-18)
(0.0189488 -0.0076884 1.01609e-18)
(0.0179892 -0.00829184 5.69242e-18)
(0.00991425 -0.00376411 1.37476e-17)
(0.00977049 -0.00335408 1.01205e-18)
(0.0094657 -0.00373449 3.28784e-18)
(0.00136675 0.0074229 -5.24315e-18)
(0.00133188 0.00749598 7.46741e-18)
(0.00124146 0.00742761 1.27587e-17)
(0.000162365 0.00648305 8.7207e-18)
(5.09594e-05 0.00642052 -3.58002e-18)
(0.000219838 0.00641605 -2.53014e-19)
(0.000723283 0.00392111 2.55148e-19)
(0.000775448 0.00396093 2.75371e-19)
(0.000788443 0.00388967 3.21965e-18)
(0.0295434 0.0448319 2.16793e-17)
(0.031523 0.0409306 -1.11154e-17)
(0.0330379 0.0414248 -2.05075e-17)
(0.000223193 0.000845336 -1.63586e-19)
(0.000223497 0.000819352 2.70059e-19)
(0.164677 -0.0135822 -5.96908e-18)
(0.169375 -0.0125439 -9.21584e-18)
(0.169236 -0.0126541 -1.19423e-17)
(0.000816263 0.00130428 8.29613e-18)
(0.000939775 0.00163668 -6.49637e-19)
(0.0522633 0.0274269 -2.78992e-17)
(0.0537017 0.0228693 -3.95498e-17)
(0.0480434 0.0276727 -3.02861e-17)
(0.000743614 6.64293e-05 -4.84966e-19)
(0.00076668 5.9053e-05 -2.23355e-19)
(0.000699673 3.95395e-05 2.39439e-19)
(2.20185e-06 5.28546e-05 -9.70695e-19)
(7.93023e-07 1.90565e-05 -6.40717e-21)
(5.39211e-07 1.91146e-05 -4.01839e-19)
(-5.86673e-05 -0.000802216 8.15799e-19)
(-5.92565e-06 -0.000783823 -5.83809e-18)
(-5.82464e-05 -0.000746725 -1.90049e-18)
(-0.000111701 0.0089509 2.21034e-18)
(-0.000184606 0.00946636 -9.07385e-18)
(-0.000719376 0.0093432 -8.90195e-18)
(0.00185465 -0.00282201 -6.09461e-19)
(0.00191317 -0.00291648 3.74321e-18)
(0.00180943 -0.00291344 -1.07129e-18)
(0.000762896 0.00666378 4.70854e-18)
(0.000557638 0.00666928 -1.12666e-17)
(0.000670133 0.00658249 -6.92998e-18)
(-0.00794641 -0.0267138 -1.98833e-17)
(-0.00661958 -0.0260103 7.87729e-19)
(-0.0266525 -0.0271392 5.66796e-18)
(-0.0250184 -0.0265494 -5.45885e-18)
(-0.0266909 -0.0253615 -4.83002e-18)
(-0.00226396 0.00301941 3.66253e-17)
(-0.00213661 0.00329493 1.11139e-17)
(-0.0020317 0.00283417 2.25514e-17)
(0.000238899 9.09664e-05 7.45766e-19)
(0.000273478 8.39379e-05 1.02584e-18)
(0.000274365 0.000130024 -6.91214e-19)
(-0.00249223 -0.00724218 1.35694e-17)
(-0.00238128 -0.00759065 4.56077e-18)
(-0.0028289 -0.00738897 -1.55086e-18)
(0.000623911 0.0051296 1.39994e-19)
(0.00054747 0.00517523 1.33732e-18)
(0.000656756 0.00521351 5.35687e-18)
(-0.00235138 0.00303414 1.88012e-18)
(-0.00231707 0.00413048 -6.35683e-17)
(0.000301079 0.00649878 3.16368e-18)
(0.000129327 0.00653255 1.84863e-17)
(0.00399935 0.000644481 -1.2686e-18)
(0.00387091 0.000826118 1.67656e-18)
(0.00219784 -0.0091561 -2.68457e-18)
(0.0026268 -0.00907168 -6.39612e-19)
(0.00249242 -0.00956589 2.04276e-17)
(-0.0902645 0.00625579 -2.50098e-18)
(-0.0872267 0.01116 9.51125e-18)
(0.00222146 0.00318338 1.0131e-19)
(0.00211878 0.00317159 3.68794e-19)
(0.0022057 0.00309259 8.51948e-20)
(0.00369403 -0.0067422 -7.13116e-18)
(0.00383145 -0.00703921 4.986e-18)
(0.00405351 -0.00672981 1.61025e-18)
(0.00189924 -0.00273909 3.65531e-20)
(0.00181168 -0.0027355 2.26283e-18)
(-0.323125 0.0975259 2.00039e-17)
(-0.30363 0.0920187 9.35283e-17)
(-0.317361 0.100721 -2.96718e-17)
(0.00354626 -0.000617645 -4.38104e-19)
(0.00366838 -0.000651112 1.79729e-18)
(0.17659 -0.0186004 -7.78159e-18)
(0.00014856 0.00044307 -5.4096e-20)
(0.000166439 0.000504243 -6.40624e-20)
(-0.000314958 0.00533449 -4.68559e-17)
(-2.67878e-05 0.00585341 -3.24549e-17)
(-0.228655 -0.0406852 -1.04013e-18)
(-0.244826 -0.0347904 -1.7191e-17)
(-0.246652 -0.0546848 4.23126e-17)
(-3.22568e-05 0.00180484 4.09864e-18)
(-3.02187e-05 0.0020454 1.84339e-18)
(-7.39312e-05 0.00436107 -4.42752e-18)
(-8.53211e-05 0.00426409 5.78045e-18)
(-0.0557201 -0.0395129 3.63228e-20)
(-0.0571414 -0.0386599 1.93857e-17)
(-0.056975 -0.0408907 -8.75987e-18)
(0.0143688 0.000655445 3.12059e-18)
(0.0148645 0.000338612 7.8915e-18)
(0.0148652 0.00114769 3.8546e-17)
(8.29624e-05 0.00138911 1.58759e-18)
(0.000116966 0.00160159 4.08801e-19)
(0.200908 0.0206129 -9.5583e-18)
(0.200955 0.0208477 9.89536e-18)
(0.124428 -0.0126819 5.79989e-18)
(0.124888 -0.0126052 3.71459e-18)
(0.124682 -0.01325 9.05853e-19)
(0.000967711 0.0033799 -1.03454e-18)
(0.000893228 0.00340007 -8.89818e-19)
(-0.00188754 0.00309645 -8.70286e-18)
(-0.00189167 0.0027677 6.32229e-17)
(-0.0016201 0.00294502 -1.1838e-16)
(0.00800457 0.0665879 -1.26556e-17)
(0.0103631 0.062469 -4.17867e-18)
(0.005276 0.0618092 6.50674e-18)
(0.134425 -0.0121792 -9.85271e-19)
(0.131714 -0.0143121 7.50288e-18)
(0.13579 -0.0135188 -5.60883e-18)
(0.0016904 -0.00417313 -5.10069e-18)
(0.00171398 -0.00431184 -2.48883e-18)
(0.00186695 -0.00423005 -3.37537e-18)
(0.0782029 0.0667054 1.77556e-17)
(0.0831352 0.0649943 -4.34106e-17)
(0.0741828 0.0707137 -4.15509e-17)
(1.95403e-05 0.000234341 4.82299e-18)
(2.51398e-05 0.000276476 2.22257e-18)
(2.49889e-05 0.000268136 4.53634e-20)
(3.99441e-05 0.00025163 -7.16737e-20)
(4.77278e-05 0.000258182 -7.91421e-19)
(3.875e-05 0.000239332 -2.07471e-18)
(-2.19137e-05 0.00158383 8.11717e-19)
(-0.000729994 0.00527358 5.85124e-18)
(-0.00111505 0.00542984 1.63424e-17)
(-0.000771121 0.00554972 2.02345e-18)
(0.159345 -0.0149756 1.0625e-18)
(0.159255 -0.0149333 5.00546e-18)
(-0.0943275 0.0205439 -3.64431e-18)
(-0.0856632 0.0161329 3.90004e-17)
(-0.0927564 0.022213 -7.78721e-17)
(0.00166769 -0.00401795 1.64413e-18)
(0.00152642 -0.00409901 -4.67776e-18)
(7.35908e-05 0.000244191 -1.36712e-19)
(7.12479e-05 0.000230721 -1.99379e-20)
(6.05762e-05 0.000223569 -5.06631e-19)
(-0.202228 -0.0427941 -4.29221e-18)
(-0.116564 0.00789164 -1.0098e-16)
(-0.00251756 -0.00681988 1.06645e-18)
(-0.00209838 -0.00704713 3.97972e-18)
(-0.000103039 -0.000818215 4.23139e-18)
(-4.65938e-05 -0.000859968 9.30577e-19)
(0.124134 -0.0150401 -4.25597e-18)
(0.124508 -0.0152103 -2.52293e-18)
(0.124073 -0.0156563 3.92746e-18)
(0.0399019 -0.0165458 -3.51503e-18)
(0.0378686 -0.0146512 8.12442e-18)
(0.0399231 -0.0135464 -1.37009e-19)
(0.00217317 -0.00107722 6.17317e-19)
(0.00210683 -0.00117755 8.32167e-20)
(0.00212064 -0.00100097 1.44527e-18)
(0.0032446 0.00436994 1.07212e-18)
(0.0032694 0.00445647 2.03199e-18)
(0.00338922 0.00430642 -2.11534e-19)
(-0.131976 -0.0105634 1.70666e-17)
(-0.239704 -0.0606135 5.29425e-17)
(0.00074844 0.00494709 1.55143e-17)
(0.000769179 0.00511036 -5.95975e-17)
(0.00106764 0.00505133 -3.76256e-17)
(-0.0607463 -0.0141275 -1.02841e-18)
(-0.0601682 -0.0164458 -6.89587e-18)
(-0.0630557 -0.0152261 3.52663e-17)
(-0.020212 -0.0264535 1.95147e-17)
(-0.0201969 -0.0281462 -4.98765e-19)
(-0.0186883 -0.0274396 3.90707e-19)
(-0.0348878 0.11601 -3.5915e-17)
(-0.0376297 0.125623 1.52215e-18)
(-0.0249569 0.127593 1.17486e-17)
(-0.00100902 0.00709441 3.41729e-18)
(-0.000520521 0.0075109 -2.24345e-17)
(-0.00108883 0.00769689 2.5715e-17)
(0.000943206 0.000178374 -8.58956e-19)
(0.000955915 0.000128894 7.30881e-20)
(0.000968961 0.000174446 2.74115e-18)
(0.000175226 0.00725662 1.04275e-17)
(0.000361692 0.00718059 -1.30045e-17)
(0.000174631 0.00710246 -1.33446e-17)
(-0.000395849 0.00873825 1.21538e-17)
(2.90218e-06 0.00866843 1.33113e-17)
(0.000703362 -0.00463605 2.93785e-18)
(0.000571604 -0.0047555 2.2199e-18)
(0.000538203 -0.00455043 1.16815e-18)
(0.00135395 -0.000307878 9.60031e-19)
(0.00132424 -0.000349297 5.21886e-18)
(0.00135453 -0.000429159 -3.2481e-18)
(0.204769 0.0109286 -2.67997e-19)
(0.198157 0.0103121 4.47071e-20)
(0.150744 0.00117601 -1.00902e-17)
(-0.00574307 0.0180197 -1.07638e-18)
(-0.00701575 0.017119 5.79338e-19)
(-0.00692769 0.0189398 -4.27611e-18)
(-0.0280867 -0.0277235 1.32621e-18)
(-0.0263747 -0.0288867 1.33358e-17)
(0.00389353 0.00015433 2.1626e-18)
(0.00401875 0.000164338 -4.64802e-19)
(0.0205524 -0.00632434 -4.2527e-18)
(0.0202417 -0.0053155 -4.68543e-18)
(0.0214476 -0.00555782 1.12592e-17)
(-0.0495585 -0.136875 4.15496e-18)
(-0.0640202 -0.113115 2.89776e-18)
(-0.032952 -0.124043 9.00719e-18)
(0.0563259 0.031119 4.09898e-17)
(0.0575455 0.025902 4.61207e-17)
(-0.0292402 0.0581247 -5.94108e-19)
(-0.0265754 0.0613173 -4.88759e-18)
(-0.0308628 0.0615564 8.94055e-18)
(0.204955 0.0126485 -5.41981e-18)
(0.210507 0.0115038 -1.50128e-18)
(0.000483692 0.00574657 6.2654e-18)
(0.000582811 0.00576989 -1.85982e-18)
(0.00045268 0.0058188 4.07007e-18)
(0.00300133 0.00341367 6.55446e-17)
(0.00499152 0.00173577 2.68636e-18)
(0.00675985 0.00151631 6.99328e-18)
(0.00085336 0.00246511 4.03423e-19)
(0.000933958 0.00251037 -1.43438e-19)
(0.000884268 0.00255654 5.94469e-19)
(-0.00147309 0.00273864 2.10849e-17)
(-0.000986268 0.00281476 -1.02459e-17)
(-0.00108603 0.00328517 -6.73557e-17)
(0.178053 0.00756535 -1.32186e-17)
(0.174916 0.00960499 -1.34169e-18)
(0.174379 0.0107365 -1.38456e-17)
(0.000626674 0.0064296 1.12187e-17)
(0.000720825 0.00647662 7.05566e-18)
(0.000767111 0.00639703 3.40661e-18)
(5.37468e-06 9.50612e-05 -5.033e-19)
(4.35768e-06 9.63501e-05 -1.19495e-19)
(-0.0543409 -0.0410235 4.88351e-18)
(-0.0536115 -0.0387554 -8.65941e-18)
(0.188835 0.00441393 1.45427e-17)
(0.185572 0.00531011 -2.71878e-19)
(0.186783 0.0048977 1.20539e-17)
(0.000946451 0.00823771 2.89655e-18)
(0.00100914 0.00843177 7.62529e-18)
(0.000438684 7.58434e-05 -4.25028e-19)
(0.000472435 0.000107546 -1.24812e-19)
(0.000472177 6.51539e-05 2.72229e-19)
(0.0030704 0.00441507 1.57751e-19)
(0.00321832 0.00423235 -4.706e-19)
(0.00226436 -0.00252747 4.22134e-19)
(0.00233714 -0.00260524 -1.1575e-18)
(0.00236819 -0.00249169 -4.57496e-18)
(0.000405223 8.01571e-05 1.51567e-19)
(0.000369786 3.98399e-05 8.28352e-19)
(0.000156704 -0.000411996 -7.64495e-19)
(9.25047e-05 -0.000408111 1.39641e-18)
(0.000117239 -0.000357255 -5.94409e-18)
(0.000699915 0.00491556 1.12215e-17)
(0.171248 0.0125559 7.54138e-18)
(0.174251 0.0112132 1.38611e-17)
(0.174172 0.00993542 1.95992e-17)
(0.000369769 0.00571853 9.18888e-18)
(0.000502308 0.00568325 -5.76988e-19)
(0.00197548 -0.00299394 -9.88467e-19)
(0.00201934 -0.00290209 3.3824e-18)
(6.09399e-06 0.000111394 1.34953e-18)
(3.04297e-06 6.26508e-05 9.94141e-20)
(-0.0157215 -0.114875 1.10799e-18)
(-0.0171071 -0.110304 -9.06098e-18)
(-0.0197212 -0.114395 8.22353e-18)
(0.0927958 -0.00748421 -1.29083e-17)
(0.101168 -0.00599927 -2.98291e-17)
(0.0184208 -0.00345259 1.6943e-18)
(0.0174425 -0.00337429 9.43957e-18)
(-0.000867164 0.00702582 -6.77018e-18)
(-0.000742705 0.00727004 -9.56245e-18)
(-1.63187e-05 0.00205194 -6.25848e-18)
(-3.03717e-05 0.00229114 -5.78439e-18)
(0.00046065 0.00645842 -1.35819e-17)
(0.000513584 0.00639369 -2.60481e-19)
(0.0366189 0.038729 -1.32238e-17)
(0.0325529 0.0421757 -1.55965e-17)
(0.0327168 0.0439301 1.33585e-17)
(0.00111106 -0.00159727 2.33255e-18)
(0.00117376 -0.00160632 1.62919e-18)
(0.00114387 -0.00153952 4.19304e-19)
(0.00127087 0.00523123 1.49169e-18)
(0.00131391 0.00529632 -8.15274e-18)
(0.00117923 0.00529397 -3.5968e-18)
(-0.000641208 0.00881679 -1.7148e-17)
(-0.000954769 0.00870002 -4.7006e-18)
(-0.00092992 0.00909627 -1.78961e-17)
(-2.53418e-05 0.00435763 -2.75153e-18)
(-6.09221e-05 0.00441721 -2.37399e-18)
(0.152969 0.0128473 -1.20415e-18)
(0.181251 0.0193837 1.71324e-17)
(0.140735 0.00573735 3.3169e-18)
(-0.0115784 0.0185819 -1.3016e-18)
(-0.0102947 0.019177 -6.95888e-18)
(-0.0100666 0.0172581 9.37386e-19)
(0.000713896 0.00506456 2.67311e-18)
(0.000594706 0.00504067 3.57904e-18)
(0.000944106 -0.00144024 -9.23271e-18)
(0.00100325 -0.00145673 4.80595e-20)
(0.000978698 -0.00139042 2.3623e-18)
(0.0103023 -0.00256002 -4.30207e-18)
(0.0100858 -0.0021645 -6.44093e-18)
(0.010639 -0.00214678 1.47705e-19)
(-0.027853 -0.00616217 2.27455e-18)
(-0.0294137 -0.00676874 6.0285e-19)
(-0.0272845 -0.00788237 -1.21665e-18)
(-0.000388229 0.00302799 -7.8214e-18)
(-0.00144233 0.00371872 -1.53574e-17)
(-0.0501768 0.0143987 6.82744e-18)
(-0.0530303 0.0123776 -2.5485e-17)
(-0.0529593 0.0167787 -1.53519e-18)
(0.0125975 0.00728442 -9.64755e-18)
(0.0126773 0.00675203 -4.38281e-19)
(0.0132982 0.00693848 -4.80576e-18)
(0.00696377 -0.00767091 1.39162e-17)
(0.00719563 -0.00727252 -5.63851e-18)
(0.00672014 -0.0072312 1.00509e-17)
(-0.0480969 -0.0140401 -1.80326e-17)
(-0.0447392 -0.0178387 -3.69068e-17)
(-0.044168 -0.0153049 -1.3267e-17)
(0.0137947 0.00112158 -5.83898e-18)
(0.0137371 0.000277771 4.18661e-18)
(0.133305 0.0225422 4.86473e-18)
(0.120601 0.0212823 4.92279e-18)
(0.117773 0.0219975 1.67365e-18)
(0.133873 -0.0108201 1.94057e-18)
(0.132885 -0.0121888 -3.48788e-19)
(-0.0101726 -0.11497 1.17532e-17)
(-0.0146538 -0.120676 -1.02323e-17)
(0.00213343 0.00569413 -1.53166e-18)
(0.00217983 0.00575103 6.99994e-18)
(0.00201813 0.00578758 9.36634e-18)
(-5.55808e-05 0.00764677 5.8728e-18)
(3.15972e-05 0.00763772 1.31932e-17)
(-1.94699e-05 0.0076996 2.01283e-17)
(2.24875e-05 0.00022629 1.68571e-18)
(2.25891e-05 0.00021462 5.36375e-19)
(1.60231e-05 0.000185671 1.15189e-18)
(-0.0617372 -0.0112457 -3.96156e-18)
(-0.0586071 -0.0126698 -1.66658e-17)
(-0.0321386 0.0543217 -7.45997e-18)
(-0.0276067 0.0542433 -2.02635e-17)
(-0.0335198 0.110419 4.19438e-17)
(-0.0412658 0.109264 -2.28391e-17)
(0.000873394 -0.00470581 2.86972e-19)
(0.000817611 -0.00450232 -4.36499e-18)
(-0.0251212 -0.0177238 1.06017e-17)
(-0.0259228 -0.0165957 2.65643e-17)
(-0.0269888 -0.0180432 8.14064e-18)
(0.00165876 -0.0022906 8.52823e-18)
(0.00170531 -0.00236173 4.05164e-19)
(0.0017527 -0.00227626 9.5357e-18)
(3.83667e-06 0.00734689 7.47816e-18)
(0.000313181 0.00729909 -5.65375e-18)
(0.0150172 0.00584702 -1.44105e-17)
(0.014214 0.00602966 3.05942e-18)
(0.0145558 0.00519659 -1.9182e-19)
(-0.293692 -0.00159422 -1.89493e-17)
(-0.306582 -0.00662745 1.54248e-17)
(-0.282615 -0.0119715 1.05964e-18)
(-0.02004 0.0727376 -1.43664e-17)
(-0.0233691 0.0760591 -6.59226e-18)
(-0.0245319 0.0705699 4.1764e-18)
(0.00445082 0.00069691 -1.44987e-18)
(0.00459905 0.000702672 2.44558e-19)
(0.00446804 0.000929898 -4.51719e-19)
(0.182616 0.0182227 -1.8714e-18)
(0.177084 0.0171175 5.09843e-18)
(0.152187 0.0116192 5.19147e-18)
(0.0120921 0.00908447 -1.07958e-17)
(0.0118692 0.00968581 -9.59043e-18)
(0.0127242 0.00951641 -1.67533e-17)
(0.169598 0.0136792 -1.53869e-17)
(0.1685 0.0136114 -3.12203e-18)
(-0.00163412 0.00224012 -2.34168e-17)
(-0.00204289 0.00264702 6.31955e-17)
(0.164746 0.017898 -1.52355e-17)
(0.0716635 -0.00720837 -7.2973e-18)
(0.00231997 0.00111254 -1.95133e-18)
(0.00238174 0.00102293 -1.35264e-18)
(0.00237917 0.00117122 -1.47749e-18)
(0.0418809 -0.0182107 2.12216e-17)
(0.0395861 -0.019099 1.53446e-17)
(0.0201826 -0.00934873 -7.14897e-18)
(0.0191621 -0.00995842 -5.05374e-18)
(0.00107312 -0.00165035 2.79765e-18)
(0.00105003 -0.00158377 -2.13959e-18)
(7.8033e-05 0.000259296 7.08316e-19)
(8.84128e-05 0.000281605 -7.09399e-19)
(0.00484388 0.00637883 1.24393e-18)
(0.00456529 0.00641846 6.22496e-18)
(0.00474813 0.00618955 2.29379e-18)
(0.0978658 0.0575154 1.84174e-18)
(0.101336 0.0545233 -4.89436e-17)
(0.0849351 -0.0255959 -1.63113e-17)
(0.0916235 -0.0285068 -2.23745e-17)
(0.0934526 -0.0221094 -8.11788e-18)
(-0.050291 -0.0139662 3.03742e-17)
(-0.0664759 -0.017864 8.24244e-17)
(0.00242688 -0.0171437 2.27457e-18)
(0.00321948 -0.0169751 4.88399e-18)
(0.00288401 -0.0178107 -9.7406e-18)
(-0.0644995 0.0754887 -8.86149e-18)
(-0.0588474 0.0782336 3.6791e-17)
(-0.066777 0.0820961 -2.13983e-18)
(0.0365841 0.0220375 3.58761e-17)
(0.0760639 0.0262019 4.92926e-18)
(0.070721 0.0216766 -1.39898e-18)
(-0.111599 0.0282244 2.9913e-17)
(-0.0999991 0.0212489 -6.15756e-18)
(0.0781168 0.00589925 1.24789e-17)
(0.0812738 0.000894457 9.81704e-18)
(0.086865 0.00693669 1.77694e-17)
(0.000272544 0.00122704 5.95333e-19)
(0.000234517 0.00106544 6.73111e-19)
(0.000232506 0.00107865 1.04418e-18)
(0.000226263 0.00695366 -2.61734e-18)
(1.88928e-05 0.0071307 -4.35068e-17)
(-6.065e-05 0.0068412 -6.81265e-17)
(0.000671666 0.00759819 3.60909e-18)
(0.000687544 0.00774375 -5.55361e-19)
(0.000689514 -6.20532e-07 5.67683e-19)
(0.000688257 2.85204e-06 -9.27896e-19)
(0.00223604 -0.000988245 1.66976e-18)
(0.00222932 -0.00118503 -2.028e-19)
(-0.00369067 0.0194723 6.5347e-18)
(-0.00283827 0.0183608 6.67269e-18)
(-0.00220758 0.0197854 3.67948e-18)
(-0.0572185 0.0341491 5.64994e-18)
(-0.0752425 0.0306416 3.86801e-18)
(-0.158739 -0.0216991 7.94923e-18)
(-0.00327831 -0.00204345 6.07084e-18)
(-0.00356755 -0.00184993 -2.90101e-18)
(-0.00357163 -0.00231546 1.48251e-17)
(0.000215619 0.000107164 -2.38507e-20)
(0.000211775 6.32991e-05 1.43164e-19)
(-0.0256119 -0.0123525 -4.97851e-18)
(-0.0239005 -0.0119902 6.70952e-19)
(-0.0246939 -0.0140283 3.12401e-17)
(-0.0283775 -0.00432059 -1.75812e-17)
(-0.0265584 -0.00552147 -7.64656e-18)
(0.125515 -0.0108294 5.08655e-18)
(0.123541 -0.0114027 1.94706e-18)
(-0.0436992 -0.0808124 -3.40515e-18)
(-0.0446313 -0.0788315 2.88655e-18)
(-0.0424884 -0.078913 -1.21625e-17)
(0.00067915 0.00386143 -1.66024e-18)
(0.00066358 0.00394033 -4.32193e-18)
(0.00222349 0.00328635 1.2913e-19)
(0.00231432 0.00320409 3.12067e-19)
(-0.0201774 -0.0248078 1.90434e-17)
(-0.0217786 -0.0253917 1.03516e-18)
(0.117099 0.0346445 -1.42977e-17)
(0.104934 0.0381392 -1.19958e-17)
(0.109658 0.0341115 -1.05539e-17)
(0.00124267 0.00513578 1.75601e-18)
(0.00138238 0.00517239 4.47151e-18)
(0.135668 0.0213136 1.63762e-18)
(0.13766 0.0182703 1.29516e-17)
(0.127174 0.021131 1.80759e-17)
(0.123768 -0.00985342 -2.25723e-19)
(0.124945 -0.010858 -3.98571e-18)
(0.125144 -0.0101744 4.65363e-19)
(-0.0605417 0.0704614 -4.60125e-17)
(-0.0681765 0.0705842 5.7532e-18)
(0.00134912 -0.000188832 -3.03759e-18)
(0.00139137 -0.00026355 -2.95247e-18)
(-0.00552325 0.00714842 2.01776e-17)
(-0.00627804 0.00758035 -1.30193e-17)
(-0.00628259 0.00635201 3.06294e-17)
(-0.0192494 -0.0206145 -4.24262e-18)
(-0.0196382 -0.0219032 -1.1558e-17)
(-0.0181339 -0.0214324 -2.44029e-18)
(-0.0570447 -0.0442223 1.70081e-18)
(-0.0347593 -0.0591773 6.17478e-19)
(-0.0352625 -0.0502276 -7.60522e-19)
(0.00138174 0.00223089 -1.14684e-19)
(0.00142655 0.00214775 1.21099e-19)
(0.00143726 0.00223255 4.41325e-20)
(-0.279069 0.0805341 4.34361e-17)
(-0.310009 0.0883944 3.1139e-17)
(0.00224279 0.00122565 1.96029e-18)
(0.00224757 0.001084 4.82852e-19)
(0.0250585 -0.0422513 2.10955e-18)
(0.0229189 -0.0413047 -5.69848e-18)
(0.0247864 -0.0399498 1.47617e-17)
(0.000736135 8.62592e-05 -1.26743e-18)
(0.000719981 6.50601e-05 -3.71308e-19)
(0.146715 -0.0174188 -9.83636e-18)
(0.152769 -0.0155315 -1.73433e-17)
(0.151067 -0.0162003 -2.49598e-18)
(0.196959 0.00843565 -4.58261e-18)
(0.189224 0.00486092 -3.12298e-19)
(0.124311 -0.00799114 -9.84984e-18)
(0.00641585 0.00295328 -4.08229e-19)
(0.00647985 0.00262399 1.14399e-18)
(0.00884791 0.0501327 4.14456e-17)
(-0.0185645 0.0426278 -1.37556e-17)
(0.0137806 0.0535426 -3.39872e-17)
(0.00713777 -0.00811907 1.25127e-17)
(0.00662599 -0.00802349 2.8248e-18)
(0.00134424 -5.43172e-05 2.3453e-18)
(0.00131497 -0.00010019 1.557e-19)
(0.0265017 0.048606 4.05088e-17)
(0.0275969 0.0486972 5.23888e-17)
(-0.0152931 0.0745634 -9.1377e-18)
(-0.0170331 0.0689651 -1.38521e-17)
(0.0020245 -0.0164693 -2.04911e-18)
(0.00164313 -0.0172738 -3.22588e-18)
(0.0982525 -0.000972142 2.62555e-17)
(0.106129 0.00176213 1.61529e-17)
(0.0955518 0.00256677 -1.04571e-18)
(0.121418 -0.00968022 -3.51298e-18)
(0.114165 -0.00848209 2.58517e-18)
(0.000850565 -4.53584e-05 1.21529e-18)
(0.000841051 -9.0329e-05 5.45971e-19)
(0.000834106 -6.08256e-05 3.95091e-18)
(0.010014 -0.00420238 1.40746e-17)
(0.0103855 -0.00380059 3.29544e-18)
(0.125266 -0.0137652 -4.7611e-18)
(0.124379 -0.0142203 -7.99696e-18)
(-0.0586532 -0.000274933 3.33983e-17)
(-0.0604424 -0.00158154 1.01372e-17)
(-0.0573531 -0.000973762 8.30542e-17)
(2.33033e-05 0.000233957 -1.12647e-18)
(3.04771e-05 0.000256232 1.81954e-18)
(0.000788799 0.000937415 1.45197e-19)
(0.000836365 0.000897802 -4.77188e-19)
(0.000833352 0.00096382 -7.98741e-19)
(0.0161195 0.0342004 -4.20332e-17)
(0.0152564 0.0376303 -3.81995e-17)
(-0.0611376 -0.0234729 2.83761e-17)
(-0.0621348 -0.0212992 1.41733e-17)
(-0.064175 -0.0234153 -4.78764e-18)
(1.71157e-06 5.24373e-06 1.39328e-19)
(5.82254e-07 3.15422e-06 -2.40636e-19)
(1.62102e-06 6.45238e-06 -6.69874e-19)
(0.0166104 0.0644734 -1.74799e-17)
(0.014494 0.0697497 -4.09175e-17)
(0.0119918 0.0673987 -1.31701e-18)
(-0.00907305 -0.0482414 7.34894e-18)
(-0.0112914 -0.0477432 -2.1055e-18)
(-0.00953485 -0.0457301 -1.14028e-17)
(-9.9413e-05 0.00763473 1.3896e-18)
(-7.47206e-05 0.0076902 1.85521e-17)
(0.0152048 -0.00595743 6.21802e-19)
(0.0159856 -0.0059504 5.36956e-18)
(0.0153568 -0.00665795 -2.10088e-18)
(3.25391e-05 0.000234915 1.24334e-18)
(2.26046e-05 0.000202888 -4.33586e-19)
(0.00939392 0.0103661 7.92875e-18)
(0.00939063 0.00963659 -3.32164e-18)
(0.00873649 0.0100198 3.32527e-19)
(0.125526 -0.0110476 -3.88339e-19)
(0.125379 -0.0115835 -7.03637e-18)
(0.119479 -0.0107976 -8.80208e-18)
(-9.95469e-06 -0.00216642 8.10173e-19)
(-4.57375e-05 -0.00211323 -2.86966e-18)
(-1.60435e-05 -0.00219616 2.70905e-18)
(0.0513737 -0.0140433 5.45576e-18)
(0.0492152 -0.0118685 1.6101e-17)
(0.0484141 -0.0152311 -2.46309e-18)
(-0.0012064 0.00731989 7.09535e-18)
(-0.00148798 0.00763249 -7.31251e-18)
(-0.00168532 0.00722644 1.15164e-17)
(0.00218791 -0.0024525 1.37472e-18)
(0.00215367 -0.00255051 4.03819e-18)
(0.00202693 0.0031576 8.32127e-19)
(0.00203731 0.00325077 -1.05858e-18)
(-0.0372952 0.0151018 -3.77156e-18)
(-0.0401516 0.0144912 1.72431e-17)
(-0.0391029 0.0175318 -7.96229e-18)
(0.03376 0.0412563 1.48786e-17)
(0.0306968 0.0396293 -1.98808e-18)
(0.0348599 0.0375479 3.23255e-17)
(-0.0481862 0.0161758 1.91506e-17)
(-0.0474506 0.0132015 2.97303e-17)
(0.00510376 0.00637928 -1.94193e-19)
(0.00486823 0.00665125 3.43508e-19)
(0.00565451 0.00410879 -8.01371e-19)
(0.00571881 0.00432419 -6.41997e-19)
(1.70885e-06 1.10801e-05 -1.31058e-19)
(1.55623e-06 9.54904e-06 1.38979e-19)
(3.47034e-07 4.73047e-06 1.39877e-19)
(0.196607 0.00131678 -7.72815e-18)
(0.192071 0.00220767 -1.47806e-19)
(-0.0751019 -0.115687 -3.09666e-18)
(-0.0596703 -0.113152 -5.98336e-18)
(-0.0574233 -0.117187 -4.28146e-18)
(0.00836193 0.097977 -1.49482e-17)
(0.0116793 0.0936425 -9.07826e-18)
(0.0130081 0.0968433 -1.49307e-17)
(0.00134634 5.81401e-05 2.15918e-18)
(0.00137647 -3.6797e-05 1.18024e-18)
(0.110011 -0.0249329 -1.4846e-18)
(0.120235 -0.0248107 -1.07906e-18)
(0.117226 -0.0261191 -1.84113e-19)
(0.183605 -0.00666143 -2.2557e-18)
(0.185326 -0.00636915 1.4237e-17)
(0.187964 -0.00540475 -1.08242e-17)
(0.137706 0.0178798 8.84189e-19)
(0.129743 0.0155161 7.71117e-19)
(0.0748971 0.0672523 3.52442e-17)
(0.0821582 0.0625259 5.19641e-17)
(0.00508209 0.0700745 -1.28777e-17)
(0.0105358 0.0709443 2.79633e-17)
(4.07084e-05 0.000261104 6.91564e-19)
(0.000577742 7.1428e-05 -1.7763e-19)
(0.000551921 8.02881e-05 3.52384e-19)
(0.000591891 0.000106213 -1.23153e-18)
(-0.00890618 -0.0264483 -6.55946e-18)
(-0.00910423 -0.0249026 -1.22362e-17)
(-0.0104463 -0.0257957 1.02977e-17)
(0.142647 -0.0190251 -3.28808e-18)
(0.148943 -0.0180831 5.14343e-18)
(0.147562 -0.0183339 -6.8464e-18)
(-0.0357348 -0.0416875 -7.51931e-18)
(-0.0343334 -0.0430533 -1.44351e-17)
(-0.036745 -0.0435505 6.51644e-18)
(0.00357136 -0.00641244 1.37976e-18)
(0.00334298 -0.00667054 6.23277e-18)
(-0.0426988 -0.0829389 -2.58136e-18)
(-0.0430859 -0.0824245 -1.10463e-18)
(0.00409844 0.0212625 1.65542e-17)
(0.00430287 0.0194131 9.22084e-18)
(5.39605e-05 -0.000258046 4.58555e-18)
(8.1999e-05 -0.000306614 -1.06255e-19)
(1.95024e-05 -0.000305017 3.56121e-19)
(0.112741 -0.173478 2.51851e-17)
(0.0977822 -0.17508 2.98922e-17)
(0.115775 -0.190957 2.88585e-17)
(0.000165407 0.000479796 -1.11134e-18)
(0.000158663 0.000451626 -6.38779e-19)
(0.000137175 0.000395069 -1.33522e-18)
(0.182724 0.0201892 -7.83739e-18)
(0.185178 0.0190972 -1.13111e-17)
(-0.00296091 -0.00229657 5.00405e-18)
(-0.00293644 -0.00189058 -3.2656e-18)
(1.85495e-06 4.09397e-06 -1.8317e-19)
(3.24682e-06 6.92469e-06 3.43496e-19)
(0.00751024 0.002977 3.19142e-18)
(0.00762457 0.0032499 3.58699e-18)
(0.00726071 0.00322403 -3.10331e-19)
(0.0125377 0.00780386 5.49862e-18)
(0.0120362 0.00745299 -3.47606e-18)
(0.000154567 0.00771246 1.60822e-17)
(0.00018108 0.00762313 -2.58142e-17)
(0.0193417 0.0623639 -4.09497e-17)
(0.0187536 0.0608152 8.39559e-18)
(0.00907677 0.00506817 9.01706e-19)
(0.00932906 0.0054089 4.4802e-18)
(0.00880119 0.00541085 1.15282e-18)
(0.000359672 -0.00272281 1.14974e-18)
(0.00039818 -0.00279636 4.66174e-18)
(0.000416723 -0.00272955 -3.29049e-18)
(0.00363765 -0.103472 -1.99458e-17)
(0.00862658 -0.10505 -7.5204e-18)
(0.00451829 -0.108159 -2.28444e-17)
(0.0921413 -0.00310862 2.21231e-17)
(0.101292 -0.00345862 -2.58495e-18)
(-0.0919734 -0.115964 3.18848e-18)
(-0.0872661 -0.119649 -6.98278e-19)
(0.00134508 0.00231167 4.94798e-20)
(0.00131839 0.00223449 -8.90546e-20)
(0.151404 0.0195839 8.94784e-18)
(0.116629 0.0131557 4.52774e-18)
(0.149609 0.0186833 6.98121e-18)
(-2.06608e-06 0.000600158 -1.35984e-19)
(8.56813e-07 0.000613796 1.18274e-18)
(-6.42477e-06 0.000675246 1.40504e-18)
(0.000305972 -0.00265139 -5.90714e-19)
(0.000300443 -0.00271893 -2.73004e-18)
(0.00077275 0.002394 -9.53522e-19)
(0.000817789 0.00237475 -6.70187e-19)
(-0.0129524 0.0200341 -1.92525e-17)
(-0.0132112 0.0177067 2.54037e-18)
(6.42633e-05 5.48446e-05 -1.06701e-18)
(7.08851e-05 5.19326e-05 -6.84286e-20)
(5.43299e-05 3.73411e-05 -3.87642e-20)
(0.0271105 -0.0431892 1.18907e-17)
(0.025097 -0.0446842 -1.55363e-17)
(0.0150165 -0.00513993 -1.03536e-17)
(0.0143847 -0.00586542 1.69868e-17)
(0.00160893 -0.00220572 -2.58667e-18)
(0.0015609 -0.00227989 5.17121e-18)
(-0.0270751 -0.0128575 -2.07362e-17)
(-0.0262166 -0.0112439 1.11297e-17)
(0.00515738 -0.00235324 -9.58413e-22)
(0.00497784 -0.00249123 -1.26662e-17)
(0.00520196 -0.00265464 -6.89439e-18)
(-0.00132956 0.0019712 -1.19527e-16)
(-0.00168673 0.00124312 -4.46226e-17)
(-0.00171763 0.00207065 -6.03039e-17)
(0.0123556 0.0084737 1.71955e-17)
(0.0116014 0.00859121 1.41329e-19)
(0.0357603 -0.0160385 1.66194e-17)
(0.0357701 -0.013485 6.17609e-18)
(0.00107663 -0.00197166 -2.27094e-19)
(0.00111045 -0.00203153 -3.3903e-18)
(0.00102628 -0.00200763 -1.08013e-18)
(0.00200864 0.00306911 7.2846e-21)
(0.00193433 0.00314455 -5.37472e-20)
(-0.114153 -0.114194 -2.8494e-18)
(-0.114327 -0.0930784 4.27226e-18)
(-0.14424 -0.0982742 -1.44573e-17)
(0.192657 -0.00424924 -1.19717e-17)
(0.192766 -0.00400434 -4.51526e-18)
(0.191051 -0.00423471 -3.17571e-17)
(0.000996568 0.00254466 -4.92404e-19)