/*--------------------------------*- C++ -*----------------------------------*\
| =========                 |                                                 |
| \\      /  F ield         | OpenFOAM: The Open Source CFD Toolbox           |
|  \\    /   O peration     | Version:  v2012                                 |
|   \\  /    A nd           | Website:  www.openfoam.com                      |
|    \\/     M anipulation  |                                                 |
\*---------------------------------------------------------------------------*/
FoamFile
{
    version     2.0;
    format      ascii;
    class       surfaceVectorField;
    location    "900";
    object      ddtCorrDdt0(Uf);
}
// * * * * * * * * * * * * * * * * * * * * * * * * * * * * * * * * * * * * * //

dimensions      [0 1 -2 0 0 0 0];


internalField   nonuniform List<vector> 
20537
(
(0.00052747 0.00259264 4.61961e-20)
(0.000574323 0.00263428 4.61871e-20)
(0.000514816 0.00266038 8.25692e-20)
(0.000989303 -0.0152185 6.19064e-18)
(-0.00149862 -0.0163164 1.20773e-18)
(-0.000255501 -0.0130626 -1.1784e-18)
(-0.00766971 0.000140692 -2.0236e-18)
(-0.00788975 0.000292163 -8.81329e-19)
(-0.00793454 4.38104e-05 -9.01023e-19)
(0.000690321 0.00259722 -9.72886e-21)
(0.00063425 0.00262598 1.30174e-19)
(0.000715965 0.00265188 1.27691e-20)
(-0.00605508 -0.000739583 1.11985e-19)
(-0.00612273 -0.000678375 1.71031e-18)
(-0.00602492 -0.000656581 -1.65221e-18)
(-0.00142514 0.013881 7.90439e-20)
(-0.00226691 0.0120624 -3.50786e-20)
(0.000259985 0.0118551 -3.88114e-20)
(-0.00113489 0.000185735 -1.76363e-19)
(-0.00117085 0.000194229 9.60682e-20)
(-0.00115581 0.000163606 -3.10455e-19)
(-0.00603916 0.00141316 8.94247e-19)
(-0.00587103 0.00138076 -8.06443e-19)
(-0.00603217 0.00122639 -2.99872e-19)
(0.00226687 1.31956e-06 7.74874e-20)
(0.00230301 -7.86037e-06 -6.14955e-20)
(0.00227019 -2.93311e-05 -2.6015e-19)
(-0.012328 0.00593254 2.20109e-19)
(-0.0114858 0.0064513 1.22574e-19)
(-0.0114743 0.00524454 1.26643e-19)
(-0.00063239 -0.0119392 2.72867e-20)
(0.00231329 -0.0152043 -8.56637e-19)
(0.00166759 -0.0134397 -1.58696e-19)
(0.0059587 0.00440287 -1.98354e-20)
(0.00613174 0.0023649 4.27635e-20)
(0.00594606 0.00410323 1.70672e-19)
(0.0287795 0.00197818 -1.21816e-18)
(0.0291153 0.00192975 -5.44937e-18)
(0.0288183 0.001848 2.20654e-19)
(0.00356171 0.0157505 -2.06116e-17)
(0.00399673 0.0147597 8.35398e-18)
(0.000255159 0.0155525 6.00652e-18)
(-0.000415599 6.54537e-05 -9.51375e-20)
(-0.000426794 5.77209e-05 1.41342e-19)
(-0.000427395 7.35865e-05 1.54791e-19)
(-0.00364093 0.003374 2.7248e-20)
(-0.00378713 0.00327426 -2.69295e-19)
(-0.00381532 0.00348876 -3.13678e-19)
(-0.00303624 0.00142252 1.78778e-19)
(-0.0029359 0.00147843 3.08241e-19)
(-0.00294491 0.00136977 1.3424e-20)
(-0.000601198 0.00360182 6.34021e-20)
(-0.000692874 0.00351726 -1.05125e-19)
(-0.000717309 0.00368056 -8.45968e-20)
(0.0288255 0.00233348 -4.87754e-19)
(0.028738 0.00228841 1.9842e-18)
(0.0282665 0.00241288 -9.2877e-19)
(0.0022314 9.26944e-06 3.67624e-19)
(0.00226194 3.32887e-05 -2.13633e-20)
(0.000756309 0.00255678 -1.19962e-19)
(0.000660377 0.00253105 -4.2111e-20)
(-0.00738526 0.000179115 -2.76446e-19)
(-0.00746403 -5.12529e-05 9.37234e-20)
(0.000758238 -3.46879e-05 1.32464e-19)
(0.000775449 -3.83746e-05 -3.17395e-19)
(0.000830618 -4.50798e-05 7.20056e-20)
(0.00177999 -3.97018e-05 3.23761e-19)
(0.00150195 -2.8946e-05 -3.38732e-19)
(0.00181464 -4.24166e-05 -1.67777e-19)
(0.000725375 -1.68368e-05 1.59096e-19)
(0.000612573 -2.14128e-05 -2.40972e-19)
(-0.0060885 0.00161608 1.12894e-18)
(-0.00624996 0.00145328 6.19548e-19)
(-0.00294854 0.00043112 -9.03903e-19)
(-0.00288078 0.00042402 -4.20581e-19)
(-0.0029067 0.000478084 -7.48288e-19)
(2.79516e-06 -0.0025223 1.14676e-18)
(0.000279168 -0.00240136 1.01567e-17)
(0.000519009 0.0025413 -1.94471e-19)
(0.000466087 0.00257746 -1.08627e-19)
(-0.00122598 0.00260408 -3.55672e-20)
(-0.00131338 0.00260862 2.58e-20)
(-0.00124849 0.0026812 8.80525e-22)
(-0.000564699 0.0153505 1.77181e-20)
(-0.00663837 0.0172376 5.18613e-19)
(-0.0031096 0.00150159 1.33904e-20)
(-0.00313401 0.00139668 -2.97588e-19)
(-0.00781752 0.000574125 9.20176e-19)
(-0.00815158 0.00050211 9.95163e-19)
(0.00085189 -0.00326025 1.1588e-18)
(0.00123911 -0.00415694 1.02451e-19)
(0.000261472 -0.00409167 1.53886e-19)
(0.00177057 -3.59251e-05 4.89749e-20)
(0.00188503 -4.36141e-05 -1.71367e-20)
(-0.00251391 -0.00147486 1.43293e-20)
(-0.00240596 -0.00124971 1.88678e-18)
(-0.00128775 -0.001405 2.0058e-19)
(0.0237545 0.00110696 -1.68403e-18)
(0.0192006 0.000401373 -2.54044e-18)
(0.0181801 0.000500049 2.35944e-18)
(0.023616 0.000464725 -6.57556e-19)
(0.0253954 0.000695517 2.38769e-19)
(0.0192505 0.000144262 1.24419e-18)
(-0.0122687 0.00650393 1.4132e-19)
(-0.0125511 0.00507138 -4.1671e-19)
(0.00131277 -0.00240331 6.52957e-20)
(0.000480465 -0.00213012 1.89969e-19)
(0.000567478 0.00134082 2.19106e-19)
(0.000594297 0.0013839 2.18658e-19)
(0.00052925 0.00137796 1.48075e-20)
(0.000182915 -0.000876479 5.1804e-21)
(0.000222544 -0.000841959 -7.28691e-21)
(0.000175559 -0.000818953 6.62631e-21)
(0.000236761 -0.0015519 -7.31124e-18)
(0.000166457 -0.00137394 -4.4556e-18)
(-5.04943e-05 -0.00176265 -6.07125e-18)
(0.0121917 -0.0224868 -2.40714e-20)
(0.0120279 -0.02277 -3.37245e-19)
(0.00943428 -0.0216555 -1.07141e-18)
(0.0128029 -0.0197019 1.76483e-19)
(0.0146497 -0.02212 -4.98457e-19)
(-0.00253736 0.0128711 -6.82585e-18)
(-0.00405213 0.0129265 -1.47153e-18)
(-0.00467648 0.0138186 -3.55214e-19)
(0.010086 -0.0161611 2.19317e-20)
(0.013534 -0.0208762 -1.85166e-19)
(0.013597 -0.0174583 4.78036e-19)
(-0.01577 -0.014817 2.3489e-19)
(-0.0178798 -0.0136779 4.88855e-19)
(-0.0180825 -0.0144009 1.05652e-18)
(-0.00301415 0.000439375 3.70636e-20)
(-0.00298703 0.000384777 -6.92866e-19)
(0.00419282 -0.00154017 -2.11657e-19)
(0.00410886 -0.00154361 1.09581e-19)
(0.00415949 -0.00149397 8.88374e-20)
(-0.00505368 -0.00117344 7.59029e-19)
(-0.00503487 -0.0012637 -3.76379e-18)
(-0.0049568 -0.00118845 -1.73086e-18)
(-0.00599261 -0.00206475 -3.41858e-18)
(-0.00608942 -0.00207244 -1.7352e-18)
(-0.00572086 -0.00226168 1.5617e-18)
(-0.000365143 -0.00257999 1.92182e-18)
(-0.000261796 -0.00255999 8.58793e-19)
(-0.00022657 -0.00280117 -2.8046e-18)
(-0.000394735 4.88112e-05 -3.67585e-19)
(-0.000380926 3.82085e-05 4.03081e-20)
(-0.000382569 6.06126e-05 1.90018e-19)
(0.000603922 9.76807e-05 -8.07344e-20)
(0.00056484 8.6408e-05 2.9263e-19)
(0.000572248 0.000132595 1.61509e-19)
(0.000142679 -0.000912774 2.00067e-20)
(0.000194882 -0.000936671 8.47141e-21)
(0.00156864 -6.61921e-05 -1.28969e-19)
(0.00161949 -7.35456e-05 -2.76058e-20)
(0.00154862 -5.82395e-05 1.90004e-20)
(-0.000464049 -0.00256177 -3.16257e-18)
(-0.000722218 -0.0023839 5.52329e-18)
(-0.000116693 -0.00267411 2.70759e-18)
(-0.00119797 0.00250495 2.07678e-20)
(-0.00112572 0.00258144 -8.08763e-20)
(-0.00126202 0.000364483 7.30089e-20)
(-0.00122115 0.000351163 -1.79723e-19)
(-0.00125947 0.000328132 -6.89432e-20)
(0.0258169 -5.46729e-05 2.23882e-19)
(0.0226857 0.000176533 -1.29658e-18)
(0.0240344 -0.00331949 -1.00047e-18)
(0.0245086 -0.00264197 4.90949e-18)
(0.0230671 -0.00378516 -1.01923e-18)
(0.00250652 0.00689903 1.95155e-19)
(0.00346905 0.00657191 -8.95077e-20)
(0.0023773 0.00598217 1.28045e-19)
(-0.00608559 -0.00096253 2.13199e-18)
(-0.00613249 -0.000901032 -9.78418e-19)
(-0.00617346 -0.000971341 -9.6247e-19)
(-0.00493642 -0.00533892 -6.50022e-18)
(-0.00606824 -0.00461484 -8.09436e-19)
(-0.00474243 -0.00393113 -2.39359e-18)
(0.000445019 0.0028601 -1.65612e-19)
(0.000515789 0.00287814 -2.24202e-19)
(0.000462847 0.00293815 -7.1164e-20)
(0.0265024 0.00136052 -7.58778e-19)
(0.0258606 0.00153039 -1.41529e-20)
(-0.00215486 0.00150728 -2.70797e-19)
(0.00484778 -0.00914598 -1.15094e-18)
(-0.00424299 -1.13049e-05 -4.53078e-19)
(-0.00427861 4.8805e-05 1.66171e-19)
(-0.0041937 5.17982e-05 2.91042e-18)
(-0.000501944 0.00351174 -3.35069e-21)
(-0.000472184 0.00368512 -4.39758e-20)
(0.0158308 -7.77706e-05 -1.14044e-18)
(0.0156049 -6.09426e-05 3.89484e-18)
(0.0151141 -2.25667e-05 3.17012e-18)
(0.028009 0.00262843 1.48428e-18)
(0.0279374 0.00282683 3.57273e-19)
(0.0268954 0.00257309 -3.43934e-18)
(0.00520508 -0.0126799 1.02141e-18)
(0.00234398 -0.0166828 1.81356e-18)
(-0.000405054 5.80355e-05 -9.43599e-19)
(-0.000407191 4.02734e-05 -6.03033e-19)
(0.000726403 0.000182008 4.99753e-19)
(0.000689809 0.000203167 2.77204e-19)
(0.000732409 0.00022008 6.58176e-20)
(0.00267522 4.91589e-05 1.44344e-19)
(0.00268308 9.85855e-06 -2.73019e-21)
(0.00262914 2.57596e-05 1.10549e-19)
(-0.0072008 0.000157231 1.90343e-18)
(-0.0072903 0.000299285 4.23116e-19)
(0.0165367 -0.000369499 8.06261e-19)
(0.016933 -0.000285616 -4.16491e-18)
(0.0164201 -0.000414537 -5.38301e-18)
(-0.00522934 7.20426e-05 -1.29257e-18)
(-0.00527407 -1.30404e-05 7.47163e-19)
(-0.00534129 6.26059e-05 -1.52632e-18)
(0.0159819 0.000140486 7.03889e-18)
(0.0155635 9.4379e-05 6.13167e-18)
(-0.00159176 0.000567747 -1.33783e-20)
(-0.00154198 0.000587238 2.39295e-21)
(-0.00153379 0.000537405 4.61344e-21)
(-0.00703131 -0.0234548 5.80242e-19)
(-0.00453195 -0.0201044 7.89274e-20)
(-0.00311419 -0.0241206 -1.57863e-18)
(-0.000494805 0.000498811 2.13214e-19)
(-0.000508586 0.000528458 1.22352e-19)
(-0.000469428 0.000520369 -2.12964e-19)
(-0.00177733 0.00772722 1.36189e-18)
(-0.00287507 0.00787387 2.69324e-18)
(0.000122758 0.00547324 -2.1224e-18)
(0.00154918 0.00705697 -2.07992e-19)
(0.00263964 0.00783096 -1.03517e-19)
(0.00590454 0.00615208 5.55795e-20)
(0.00651042 0.00466077 -4.86958e-19)
(0.00306776 0.0090088 2.96185e-19)
(0.00253464 0.00991886 3.81776e-19)
(0.00175125 0.00867456 -4.58717e-19)
(0.00690782 0.00250898 -5.22997e-20)
(0.00599795 0.00241404 1.52413e-19)
(0.0065387 0.00462854 1.01492e-19)
(-0.00322638 0.000838645 7.06464e-19)
(-0.00323317 0.000910724 -3.29838e-20)
(-0.00331546 0.000857961 -7.08432e-19)
(0.00170172 -0.00074497 -7.93358e-20)
(0.00168997 -0.000723688 1.92068e-20)
(0.00167237 -0.000725133 2.87611e-21)
(-0.00298385 -0.00151355 -2.48852e-18)
(-0.00246254 -0.00173216 1.55915e-19)
(0.00345584 0.000454011 -2.29623e-19)
(0.00374159 0.000127688 -1.22117e-19)
(0.00321973 0.0001883 -1.1703e-19)
(-0.00324274 0.00734806 -3.58468e-19)
(-0.00368967 0.000743799 -6.88209e-19)
(-0.0037434 0.000775571 5.52741e-19)
(-0.00375921 0.000693064 -7.1359e-19)
(-0.00315825 0.00081144 3.97247e-19)
(-0.00323194 0.000756504 -1.49988e-18)
(0.00141748 -2.86947e-05 -4.15199e-19)
(0.00144227 -3.65927e-05 -3.51128e-19)
(0.00157586 -5.717e-05 -3.98883e-19)
(-0.00609618 -0.000826143 2.04237e-19)
(-0.00600097 -0.000816371 1.95435e-18)
(0.0228895 0.00386296 4.43657e-18)
(0.0224721 0.00428354 9.75355e-19)
(0.0220776 0.00392993 2.63839e-18)
(0.00427169 -0.0015073 -1.09987e-19)
(0.00424021 -0.00159559 -2.488e-19)
(0.00108832 -9.44859e-06 3.76245e-19)
(0.0013833 -2.67676e-05 3.42301e-19)
(-0.00526672 0.00645576 1.43109e-18)
(-0.0013879 0.00712136 1.69672e-17)
(-0.00397452 0.00728878 1.84965e-18)
(-0.00506713 -0.000416549 -1.15266e-18)
(-0.0049968 -0.000471255 9.49452e-20)
(-0.00497565 -0.000375833 -1.92729e-18)
(4.51558e-05 0.00211879 2.20808e-20)
(-6.80226e-06 0.00216236 9.08617e-20)
(6.22024e-05 0.00217832 -6.55654e-20)
(-0.00273202 -8.16314e-05 3.38714e-19)
(-0.00277468 -0.000105994 9.50189e-19)
(-7.35086e-05 -5.68875e-05 1.40299e-20)
(-0.000161534 -9.06752e-05 -3.8449e-21)
(-0.000125525 -6.03457e-05 -3.47996e-21)
(0.00593578 0.00914087 -4.80996e-20)
(0.00714878 0.00861994 -2.85746e-20)
(0.00569814 0.00774995 -1.0317e-19)
(-0.00495271 -0.00068074 2.91218e-18)
(-0.00501601 -0.000638641 -1.43392e-18)
(-0.00504039 -0.000727994 -1.79124e-19)
(-0.000198099 -0.00078721 -3.31386e-21)
(-0.000147123 -0.000757305 2.92822e-20)
(-0.000196475 -0.000721336 -1.28994e-20)
(0.0293728 0.00326879 -6.43264e-19)
(0.0295299 0.00334319 -2.58801e-18)
(-0.00571658 0.0127195 6.06912e-19)
(-0.00299272 0.0104795 1.32628e-19)
(0.00157601 -2.97673e-05 -2.54382e-19)
(0.00123751 -1.87565e-05 -6.41765e-20)
(0.00155336 -2.86858e-05 3.93857e-19)
(0.00171178 -0.000766971 -3.34649e-20)
(0.00173029 -0.000765239 -8.66284e-20)
(0.00323521 0.00065157 -3.11517e-19)
(0.00361903 0.000692541 -5.70536e-19)
(0.00106152 -6.96567e-06 -6.29679e-21)
(0.00104996 -1.8399e-05 1.73705e-20)
(0.00173626 -4.30118e-05 -2.48606e-19)
(0.00157027 -2.91965e-05 -1.93263e-19)
(0.0333569 0.0120519 -2.93244e-18)
(0.0240014 0.00703581 1.87868e-18)
(0.0234171 0.00338236 6.8409e-19)
(0.0237384 0.00358062 -1.11801e-18)
(8.57799e-05 -0.000465785 1.50752e-21)
(0.000116618 -0.000492574 -3.1091e-21)
(7.019e-05 -0.000507974 2.0662e-20)
(0.00147925 6.32584e-05 -3.892e-19)
(0.00150733 5.77187e-05 5.64841e-19)
(0.00140217 3.4424e-05 1.05973e-19)
(0.000716117 0.000101648 -2.10549e-19)
(0.000749322 6.95897e-05 -8.87879e-21)
(0.000699456 5.8457e-05 -9.36168e-20)
(0.000325205 -0.00143417 -2.69554e-18)
(0.000170038 -0.00190287 1.10852e-17)
(-0.00275542 -3.19074e-05 -5.71294e-19)
(-0.00268887 -4.67028e-05 -8.64696e-19)
(0.0287458 0.00205988 4.12339e-19)
(0.0282223 0.00202867 2.71895e-18)
(0.000450528 -0.0081372 3.89631e-18)
(-0.0137262 -0.0141411 -3.62397e-19)
(-0.0122231 -0.0146238 -9.82597e-19)
(0.0016216 -0.00100144 -2.33684e-20)
(0.00158073 -0.000999013 1.72131e-20)
(0.00161697 -0.0010378 5.52355e-20)
(-0.0122911 -0.0128081 7.93743e-19)
(-0.0155209 -0.0132916 -4.40275e-19)
(-0.00515794 -0.000161662 2.72111e-19)
(-0.00511322 -0.000227763 6.57706e-19)
(-0.00521511 -0.000222689 3.88285e-19)
(0.000810593 0.00251507 -2.06226e-19)
(0.000850727 0.00258529 1.72084e-19)
(-0.00559524 -0.000891601 9.85429e-19)
(-0.00553476 -0.000904045 1.78948e-18)
(-0.00573281 -0.000805291 -5.96594e-19)
(0.000603373 0.00130222 2.41e-19)
(0.00054109 0.00129421 1.79907e-19)
(0.00179585 0.000248974 -9.71367e-20)
(0.001794 0.000275203 -2.70594e-20)
(0.00176581 0.000260175 -1.73875e-19)
(0.0158554 -6.16763e-05 3.26123e-18)
(0.0160939 -2.75338e-05 5.97045e-18)
(-0.000515472 0.000473562 2.51853e-21)
(-0.000475629 0.00046656 -3.78646e-19)
(0.0358582 0.0128606 -6.15281e-18)
(0.00162578 0.000113659 -7.23244e-20)
(0.00164673 0.000102671 1.14784e-19)
(0.0016412 8.78722e-05 2.84825e-19)
(5.40928e-05 -0.000433733 -2.47824e-20)
(0.000105652 -0.000415299 -1.10823e-20)
(0.0279924 0.00235534 -1.90747e-18)
(0.0279739 0.00209106 -1.87165e-18)
(0.0269351 0.00206315 -1.55658e-18)
(0.00488083 -0.00250345 1.04704e-18)
(0.00228565 -0.00095573 2.4964e-19)
(0.00383094 -0.00263636 -1.25761e-18)
(-0.00127824 -0.0110434 -6.73342e-19)
(-0.00264995 -0.011171 2.60409e-18)
(-0.000654267 -0.01236 2.01831e-19)
(-0.0059812 0.0051865 1.18215e-18)
(-0.0077487 0.00641176 1.85759e-18)
(0.000642143 0.00011612 5.24396e-19)
(0.000633008 7.755e-05 -2.21985e-19)
(0.00386586 0.000344368 -1.50939e-19)
(0.00395299 0.000418727 -2.32279e-19)
(0.00399858 0.00029974 2.58337e-19)
(0.00083138 -0.00106255 -1.23049e-20)
(0.000842961 -0.00101504 -3.09362e-20)
(0.000874877 -0.00105887 1.30937e-20)
(-0.00208782 0.00162905 5.04804e-20)
(-0.00217831 0.00165335 -2.09443e-19)
(-0.00211665 0.00156349 8.28639e-21)
(0.0134946 -0.0220878 -1.49562e-19)
(0.0135293 -0.0196019 1.06003e-19)
(0.00131935 -0.00239809 6.43696e-20)
(0.00146576 -0.00264934 2.33963e-21)
(0.00115576 -0.0025722 2.23079e-20)
(-0.00742187 -0.00115247 -2.53098e-18)
(-0.00541516 -0.000941615 -4.63191e-19)
(-0.0010945 0.000175251 2.63057e-19)
(-0.00110742 0.00020572 -6.08844e-20)
(0.00932531 -0.0164133 4.52114e-19)
(0.0138203 -0.0158258 6.48751e-19)
(-0.00408446 -0.000940062 -1.46735e-18)
(-0.00406635 -0.000981789 -3.15181e-19)
(0.000800118 7.90509e-05 6.72985e-20)
(0.000843986 9.65912e-05 -2.86892e-19)
(0.000803878 0.000126487 -2.79762e-19)
(0.00130389 0.0159625 -1.0712e-17)
(0.00668769 0.0161502 1.2848e-18)
(0.00151373 -4.99202e-05 -9.74808e-21)
(0.00158055 -7.71601e-05 7.55836e-20)
(-0.00232651 0.000867531 6.47108e-19)
(-0.00236406 0.000830157 -2.07053e-19)
(-0.00229927 0.000815308 1.82235e-19)
(-0.00205879 0.00170692 5.92333e-20)
(-0.00199794 0.00161849 6.15805e-20)
(0.00177975 0.00093159 2.57806e-19)
(0.00179112 0.000890568 3.85788e-19)
(0.00183141 0.000921987 4.69671e-20)
(-0.00126701 0.00224815 2.72845e-21)
(-0.00124245 0.002173 -1.5477e-20)
(-0.00132453 0.00219169 2.43628e-21)
(-0.0052324 -0.00208109 -9.13036e-19)
(-0.00608936 -0.00199034 -7.50708e-19)
(-0.00506205 -0.0010726 1.519e-18)
(-0.00514657 -0.00114029 -8.93406e-19)
(-0.000450343 -0.0017704 -5.74865e-21)
(-0.000487956 -0.00168794 -1.93536e-19)
(-0.000547649 -0.00176537 -7.94949e-21)
(-0.00358837 0.000232933 -2.45279e-19)
(-0.00363697 0.000242654 -6.57427e-19)
(-0.00363391 0.000184634 -1.726e-19)
(-0.00027602 -0.00269615 -7.65973e-18)
(-0.000560131 -0.00248725 -3.60853e-18)
(0.00179594 0.00022441 2.72242e-19)
(0.00182239 0.00023811 4.02685e-20)
(-0.00184396 0.00324649 8.30446e-20)
(-0.00194875 0.00318656 -3.19853e-20)
(-0.0018298 0.00312785 4.64377e-20)
(0.00058689 -0.000960713 -6.75079e-21)
(0.000636194 -0.000964727 5.27797e-20)
(0.000616734 -0.000917724 -4.14871e-20)
(0.00115667 -0.00215949 -5.37152e-20)
(0.00162318 -0.00211137 5.25517e-21)
(-0.00428292 -7.21461e-05 4.61119e-19)
(-0.00420522 -5.94548e-05 -1.59129e-18)
(0.000771208 0.00244636 -1.43083e-19)
(0.000868236 0.00247066 -9.22884e-20)
(0.0200569 0.0076207 5.85216e-19)
(0.0135638 0.00879167 7.9972e-20)
(0.0191687 0.00763165 2.36236e-18)
(0.0159387 -0.000390948 1.03545e-17)
(0.0165211 -0.000378379 1.13789e-17)
(0.00185004 -0.000171246 -3.00969e-21)
(0.00186959 -0.000172987 -2.63299e-19)
(0.00186204 -0.000185722 -7.74082e-20)
(0.00176588 0.000974586 -9.98733e-20)
(0.00172895 0.000940754 -2.54967e-19)
(-0.000174778 -0.010508 -1.27622e-18)
(-0.00199513 -0.00954082 1.72665e-18)
(0.0017956 0.000200533 2.74476e-19)
(0.0017696 0.000209922 4.54217e-19)
(-0.0189103 -0.0125256 1.13111e-18)
(-0.0177872 -0.0126683 -4.69575e-19)
(-0.00521713 -8.07008e-05 1.89618e-18)
(-0.00510513 -8.61727e-05 5.54458e-19)
(0.00372938 0.000789819 -2.38587e-19)
(0.00368599 0.000873655 4.29604e-19)
(0.00382187 0.000863953 1.72768e-19)
(0.0290421 0.00228294 -1.55627e-19)
(0.0288244 0.0023241 -2.47918e-18)
(-0.000202828 -0.000906303 1.17424e-20)
(-0.000257353 -0.000938903 7.9122e-21)
(-0.000200603 -0.00097694 -9.53637e-21)
(-0.00328393 0.00153681 -9.6926e-19)
(-0.0031853 0.00157073 -1.15701e-19)
(-0.00326799 0.00163793 1.47743e-19)
(0.0288728 0.00261926 -2.68707e-19)
(-0.000511959 0.000419151 2.65092e-19)
(-0.000495163 0.000392385 -2.01253e-19)
(-0.000477862 0.000414709 8.55066e-19)
(-0.0075083 -0.000210436 1.16666e-18)
(-0.00729809 -0.000174192 -1.83233e-18)
(-0.00070184 -0.000382784 1.61835e-22)
(-0.000696358 -0.000318071 -2.15005e-20)
(-0.000762226 -0.000359772 -3.08341e-21)
(0.00107508 -4.21225e-05 -2.66525e-19)
(0.00110169 -4.01406e-05 1.63342e-19)
(0.00117076 -4.11548e-05 -1.20382e-19)
(0.00039763 0.0028393 2.89368e-19)
(0.000441548 0.00279908 -7.06903e-20)
(0.000721201 0.000137727 2.5749e-19)
(0.00068084 0.000126699 -1.44205e-19)
(-0.00628889 -0.000745307 3.71786e-20)
(-0.0063531 -0.000703446 4.269e-20)
(-0.00638748 -0.000787834 1.69991e-18)
(-0.00113394 0.0113179 -6.24646e-21)
(-0.0020961 0.0128276 5.70868e-20)
(-0.00256053 0.0119335 -4.18613e-20)
(0.0082676 -0.011479 1.30488e-19)
(-0.000365964 -0.00267812 -4.55285e-18)
(-0.000626119 -0.00234177 8.02826e-19)
(0.00172132 -0.000786178 -9.40363e-22)
(0.00175125 -0.000807748 -7.10702e-20)
(0.00173008 -0.000808033 -2.28485e-20)
(-0.00443142 0.000282563 -5.41606e-19)
(-0.00439198 0.000228336 6.86851e-19)
(-0.00434894 0.000287747 -2.67529e-19)
(0.0234575 -0.00399824 -1.61326e-18)
(0.0239362 -0.00311409 -3.56459e-18)
(-0.00220966 0.000929332 1.96182e-19)
(-0.00226911 0.000903413 -1.52748e-20)
(-0.00219335 0.000877429 -1.73706e-19)
(0.00378184 0.00027191 -2.23561e-19)
(0.0037358 0.000370232 -2.05074e-19)
(0.0010384 0.0018979 5.30686e-20)
(0.00247489 0.00178845 2.89342e-19)
(0.00211345 0.000872567 2.55749e-19)
(0.00378521 0.000696872 -1.00403e-19)
(0.00365363 0.000709126 -2.41103e-19)
(0.00266525 8.71693e-05 2.94167e-20)
(0.00272335 7.26378e-05 1.19602e-19)
(0.00167941 -0.00100721 -1.27348e-20)
(0.00162472 -0.000961303 -5.90369e-20)
(-0.00427081 0.0133532 -1.58465e-18)
(-0.000206169 0.0102426 -2.59663e-18)
(-0.00262826 0.0122187 -3.14682e-18)
(0.000982409 2.58781e-05 -1.13997e-19)
(0.00126198 4.62163e-05 -1.06575e-19)
(0.000965438 1.93235e-05 1.47957e-19)
(-9.39306e-05 0.000743779 8.08144e-20)
(-5.91455e-05 0.000718855 4.59985e-19)
(-6.00489e-05 0.000764997 -2.13474e-19)
(-0.00574829 0.00954721 9.4824e-20)
(-0.00498715 0.00899865 2.47377e-19)
(-0.00582147 0.00861638 2.46902e-19)
(-0.000548494 0.000420506 5.99307e-21)
(-0.000530926 0.000445951 -4.95463e-20)
(0.0198915 -0.0110153 -4.74515e-19)
(0.0183589 -0.0114951 3.04213e-19)
(0.0182677 -0.011757 2.09285e-19)
(-0.00312902 0.00125854 5.32863e-21)
(-0.00303099 0.00124274 -2.26513e-19)
(-0.00310321 0.0011664 -2.65394e-19)
(0.0176645 -0.000545064 1.39089e-19)
(0.0173242 -0.000483771 -3.84073e-18)
(0.017614 -0.000534945 -3.89245e-18)
(-0.000446686 -0.00126484 1.48549e-20)
(-0.000452154 -0.00133701 -2.8769e-20)
(-0.000377518 -0.00129433 -1.20608e-20)
(0.0240188 -0.000602995 -1.22745e-18)
(0.0229148 -0.000643289 -7.26112e-19)
(0.0231657 -0.000696434 -1.49132e-19)
(2.94603e-05 0.00205527 -9.32989e-20)
(9.65762e-05 0.0020743 -9.38665e-20)
(-0.00432428 0.00258309 1.58739e-19)
(-0.00260311 0.00394283 -7.26847e-19)
(-0.00486387 0.00498146 1.43658e-19)
(-0.000430457 -0.000905757 -2.78235e-20)
(-0.000364508 -0.000868741 1.66134e-20)
(-0.000424814 -0.000835948 1.20513e-20)
(0.000732194 -0.00105925 5.35094e-20)
(0.000708813 -0.00111064 -9.86443e-21)
(0.000683313 -0.00105567 -2.30102e-20)
(-0.00337146 -0.00301159 3.33669e-20)
(-0.00347203 -0.00457225 5.96187e-20)
(-0.00235258 -0.00440043 4.51525e-20)
(0.000146841 0.00755614 -3.34216e-19)
(0.000700074 0.00696433 -9.90721e-20)
(-0.00021837 0.0066671 -1.81354e-19)
(-0.000749546 0.0107661 -2.77615e-18)
(-0.00233675 0.0124895 7.6184e-19)
(-0.00042065 0.000162091 -2.69138e-20)
(-0.000414444 0.000143205 1.05645e-20)
(-0.000400067 0.000155095 1.81406e-19)
(0.0177373 -0.000560205 4.69052e-18)
(0.0180674 -0.000597135 7.12925e-18)
(-0.00315278 0.00132405 -1.38655e-20)
(-0.00321873 0.00125307 6.76302e-19)
(-0.00164664 0.000587143 -1.65527e-20)
(-0.0016336 0.000536643 9.83861e-21)
(0.0242071 0.000699964 9.52324e-21)
(0.0235653 0.000849925 8.26805e-19)
(0.0234793 0.000628926 -1.62976e-18)
(-0.00636349 -0.0012217 1.20858e-18)
(-0.00581493 -0.0010711 6.77258e-20)
(-0.00562334 -0.0011245 -2.71888e-18)
(0.0220947 0.000170185 1.06622e-18)
(0.0211818 2.61262e-05 2.05383e-19)
(0.0213248 0.000149955 6.65252e-19)
(0.000935487 -2.1213e-05 -3.25919e-20)
(0.000930087 -2.15859e-05 5.56307e-20)
(0.000721286 -9.65239e-06 8.48908e-20)
(-0.0039912 0.000707065 9.39465e-19)
(-0.00408269 0.000659663 -1.88677e-19)
(-0.00408509 0.000755377 3.06666e-19)
(-2.40504e-05 -4.88613e-05 -3.82239e-20)
(1.51905e-05 -2.43026e-05 5.05854e-21)
(-0.00139142 -0.000963938 -6.65602e-19)
(-0.00121124 -0.00077066 -4.0821e-18)
(-0.00110336 -0.00119073 -7.60545e-18)
(-0.000487385 -0.000945613 -1.38765e-20)
(-0.000424515 -0.000979856 -7.54539e-21)
(-0.00612548 0.00184825 -5.11073e-19)
(-0.0059062 0.00176579 -3.8431e-19)
(-0.0163055 0.00371149 -6.81319e-19)
(-0.0149013 0.002278 6.61362e-20)
(-0.0161245 0.0013171 -2.09055e-19)
(0.00183814 -0.000157694 8.61849e-20)
(0.0018303 -0.000168912 2.18111e-19)
(0.00169336 -0.000764243 1.08995e-20)
(-0.0047308 -0.00105152 1.54288e-18)
(-0.00480913 -0.00105394 -1.20025e-19)
(-0.00475596 -0.000982713 -2.29572e-18)
(-0.00233715 0.00412314 3.05239e-20)
(-0.00209235 0.0040405 1.00518e-19)
(-0.00212279 0.00428461 1.7305e-20)
(0.0202738 -0.0106116 -1.95125e-18)
(0.0208641 -0.00989814 -8.02253e-19)
(-0.00526617 -0.00662792 3.21561e-18)
(-0.00387464 -0.00532558 -1.85474e-18)
(0.000780327 -0.0010628 6.34988e-21)
(0.000810098 -0.00111244 2.46555e-20)
(-0.000123243 0.000726029 -6.78046e-19)
(-0.000122485 0.000772046 3.08547e-19)
(0.00310961 0.0138873 -5.33037e-20)
(0.000800561 0.0162937 -3.20217e-19)
(0.00573779 -0.00237988 1.71774e-20)
(0.00556556 -0.00200554 2.28076e-20)
(0.0052422 -0.00244825 -2.26303e-19)
(-0.000114514 -0.00242732 4.98084e-20)
(-0.000154368 -0.002324 -5.88576e-21)
(-3.79616e-05 -0.00233278 5.67593e-21)
(-0.00655585 0.00997836 -6.84352e-20)
(-0.00560281 0.0105695 -3.52832e-20)
(-0.000248747 -0.000134848 -3.29339e-20)
(-0.000186914 -0.000123544 3.87841e-21)
(0.0199558 -0.00042012 1.40473e-18)
(0.0193494 -0.000428626 6.04376e-20)
(0.0199134 -0.000333295 -4.43688e-18)
(-0.00513155 -0.000381888 1.77966e-18)
(-0.00514405 -0.00047021 6.33325e-19)
(-0.0028222 -0.000727749 6.86539e-19)
(-0.00199524 -0.00208935 -6.73289e-20)
(-0.00329767 -0.00228879 1.08653e-19)
(-0.00202972 0.00177075 -1.72876e-20)
(-0.00199495 0.0018413 -1.37505e-19)
(-0.00193834 0.0017572 7.75297e-20)
(-0.00286085 0.00221822 -1.51903e-20)
(-0.00277274 0.00212508 -1.00459e-19)
(-0.00276344 0.00224518 3.17099e-19)
(0.00317332 0.00225891 -4.57384e-20)
(0.00300501 0.00228541 2.88209e-19)
(0.00308914 0.00207097 -2.67273e-19)
(0.0058741 -0.00286504 3.49128e-20)
(0.00631718 -0.00230983 -1.89057e-19)
(-0.00133824 0.00109575 1.24769e-20)
(-0.00138423 0.00112992 -1.56947e-20)
(-0.00132156 0.00114035 -2.33219e-20)
(-0.00212211 0.00178767 2.40048e-19)
(-0.00454575 -0.000704774 -8.08382e-20)
(-0.00454344 -0.000763244 -1.79762e-19)
(-0.00461215 -0.000730794 7.41134e-19)
(-0.00339487 -0.00545518 -1.078e-18)
(-0.00476321 -0.00321541 1.08801e-18)
(-0.00276436 -0.00293121 -8.54831e-18)
(0.000108938 0.0103953 9.92447e-20)
(-0.000787153 0.00991156 4.22412e-20)
(0.0288627 0.00215222 2.83489e-18)
(0.0280089 0.00195236 2.14433e-18)
(0.0133662 0.00089494 1.162e-18)
(0.0113256 0.000230686 -1.94235e-18)
(0.0103171 0.000789657 -6.63646e-18)
(-0.00064307 0.000171814 9.97316e-19)
(-0.000621293 0.000156805 6.27823e-19)
(-0.000618983 0.000176326 5.80421e-19)
(0.000748382 -0.00101198 -3.52363e-20)
(-0.000407126 0.00341611 -8.80378e-20)
(-0.000289869 0.00343706 2.29701e-20)
(-0.000325835 0.00329675 8.87465e-20)
(-0.0289422 0.021064 1.85611e-18)
(-0.0337646 0.0193955 -1.3101e-18)
(-0.0275133 0.0169005 1.03007e-18)
(0.00132818 -0.000822217 -3.0599e-20)
(0.00128919 -0.000825508 5.47483e-20)
(0.00132185 -0.000853431 -3.99117e-20)
(0.0289744 0.00212714 7.61562e-19)
(0.0289047 0.00197847 1.84374e-18)
(0.0287909 0.00194932 3.6517e-18)
(-0.0022343 0.000987511 3.04749e-20)
(-0.00216535 0.000967448 -2.60892e-20)
(-0.00135394 0.00105259 3.73711e-20)
(-0.00129398 0.00106147 3.08762e-20)
(-0.00363717 0.000683099 6.10266e-19)
(-0.00361597 0.000754272 -8.94687e-19)
(0.0249657 0.000758078 3.31141e-19)
(0.0248704 0.000543065 1.43859e-18)
(0.00129292 -0.00137124 4.58626e-20)
(0.00140975 -0.00124184 -2.64317e-20)
(0.00146002 -0.00145022 -4.47717e-20)
(0.0033262 0.00246758 -7.78995e-20)
(0.003333 0.00221327 -1.78877e-20)
(-0.00234693 0.000927656 -3.22735e-20)
(-0.0359457 0.0188834 -1.96623e-18)
(-0.0299972 0.0178413 -1.09293e-19)
(-0.0369539 0.0146476 -9.01331e-20)
(-0.00518014 0.000159076 -4.95022e-19)
(-0.00511975 7.95017e-05 2.14843e-19)
(-0.00349094 0.00349613 5.88512e-19)
(-0.00345521 0.00329036 1.34687e-20)
(0.00179207 0.000301546 2.16823e-19)
(0.00182387 0.00028855 -3.05235e-19)
(-0.0107847 -0.0219723 5.68747e-19)
(-0.00909552 -0.0275238 2.73342e-20)
(0.00135986 -0.000739883 1.93747e-21)
(0.00109374 -0.000759119 -9.28779e-21)
(0.00132896 -0.000920785 1.95456e-21)
(0.0243912 0.00198913 4.43265e-19)
(0.0233704 0.00177034 1.58023e-19)
(0.023599 0.00191036 5.80154e-19)
(-0.00215462 -0.00893777 3.3823e-20)
(-0.00190618 -0.00916514 1.53993e-18)
(-7.82369e-05 -0.00251842 -9.80423e-21)
(-0.000196843 -0.00250372 7.18625e-21)
(-0.00057791 -0.00118695 -7.94357e-21)
(-0.000510015 -0.00122677 7.13924e-20)
(-0.000595168 -0.00126254 -1.03883e-20)
(-0.000174097 -6.38225e-05 2.93785e-20)
(-0.000233917 -7.30947e-05 3.13054e-21)
(-0.000277915 -0.000111181 2.01295e-20)
(-0.00448601 -0.000681841 7.46354e-19)
(-0.00454486 -0.000653503 9.88256e-19)
(-0.0197088 0.0220566 1.52902e-19)
(-0.0289365 0.0247753 1.53005e-18)
(-0.0195182 -0.0102818 -6.48979e-19)
(-0.0201671 -0.00754003 3.8144e-19)
(-0.0191812 -0.00796876 1.22238e-18)
(0.00242922 7.95627e-05 -3.48887e-19)
(0.00247696 6.02907e-05 1.16002e-20)
(0.00247367 0.000103186 -2.1235e-19)
(-0.000518562 5.5462e-05 3.03777e-19)
(-0.000514354 6.56813e-05 9.82698e-19)
(-0.000529261 6.27634e-05 8.91013e-19)
(-0.0375659 0.0211157 1.28606e-18)
(-0.0350012 0.022354 -4.19123e-18)
(-0.00761576 -0.0128218 2.59247e-20)
(-0.0116637 -0.0119716 -2.77624e-18)
(-0.00956609 -0.00727426 1.27002e-18)
(-0.00702142 -0.000975233 -6.74469e-19)
(-0.00715855 -0.000973838 1.09947e-18)
(-0.00117315 0.0024325 3.7879e-20)
(-0.00126328 0.00244544 3.47397e-20)
(-0.00130469 0.000375623 2.14998e-19)
(-0.00126218 0.000395199 1.04682e-19)
(-0.00443738 3.30183e-05 -2.28672e-19)
(-0.00447678 9.83395e-05 1.20292e-18)
(-0.00452485 2.12256e-05 -7.49963e-19)
(-0.00543036 -0.01635 -2.572e-20)
(-0.00412008 -0.0111017 -4.46369e-19)
(0.0289547 0.0022347 1.11084e-18)
(0.0290174 0.00225111 -3.08982e-18)
(-0.00205639 0.00307723 5.59178e-20)
(-0.00201285 0.00301343 1.78259e-20)
(-0.00211462 0.00300563 -7.05071e-20)
(0.00610688 0.00801207 4.01247e-19)
(0.00639397 0.00783531 4.58276e-20)
(0.00183064 0.000341338 1.26571e-19)
(0.0018029 0.000354526 -9.44878e-20)
(0.00179599 0.000326283 1.13683e-19)
(0.0200488 -0.00049881 2.06994e-18)
(0.0206498 -0.000418001 4.15999e-18)
(-0.00353353 0.000248636 -3.18411e-19)
(-0.00354079 0.000195157 6.95161e-20)
(-0.00285462 0.0015078 3.4371e-19)
(-0.00291936 0.00156536 -2.42728e-19)
(0.0242244 0.00153055 6.52983e-19)
(0.0231639 0.00138318 7.97454e-19)
(0.0232446 0.00124231 1.63773e-18)
(-0.000243535 0.00154831 -1.61857e-19)
(-0.000206731 0.00158806 -5.7172e-20)
(-0.000275094 0.00158817 4.26659e-21)
(0.00435491 0.00922551 1.34176e-19)
(0.00580393 0.0105292 -2.26876e-20)
(0.0213341 -0.000457779 2.33705e-18)
(0.0213516 -0.000289812 2.16632e-19)
(0.0219827 -0.00038815 4.07759e-18)
(0.00239327 5.53614e-05 1.44403e-20)
(0.00238674 9.19771e-05 6.07328e-20)
(-0.00446081 -0.000437326 -3.31383e-18)
(-0.00447963 -0.000492653 1.12002e-18)
(-0.00453221 -0.000451955 -1.14656e-18)