/*--------------------------------*- C++ -*----------------------------------*\
| =========                 |                                                 |
| \\      /  F ield         | OpenFOAM: The Open Source CFD Toolbox           |
|  \\    /   O peration     | Version:  v2012                                 |
|   \\  /    A nd           | Website:  www.openfoam.com                      |
|    \\/     M anipulation  |                                                 |
\*---------------------------------------------------------------------------*/
FoamFile
{
    version     2.0;
    format      ascii;
    class       surfaceVectorField;
    location    "200";
    object      ddtCorrDdt0(Uf);
}
// * * * * * * * * * * * * * * * * * * * * * * * * * * * * * * * * * * * * * //

dimensions      [0 1 -2 0 0 0 0];


internalField   nonuniform List<vector> 
20580
(
(-0.00473115 0.0133622 1.6449e-20)
(-0.00488821 0.0135606 9.44491e-18)
(-0.00491298 0.0132855 5.64025e-18)
(0.000272795 0.00376684 2.10212e-18)
(0.000361022 0.00378728 -6.95818e-19)
(0.000300909 0.00389481 8.30202e-18)
(0.0001469 0.00375674 -2.80793e-18)
(0.000226503 0.00364668 -3.35582e-18)
(-0.0084148 -0.00287885 1.81973e-17)
(-0.00913893 -0.00275393 -4.2927e-17)
(-0.00870612 -0.00314834 -3.27357e-17)
(4.9387e-05 -9.84034e-06 -2.8709e-19)
(4.51088e-05 -9.70896e-06 -4.03814e-19)
(4.61975e-05 -5.6051e-06 1.41578e-18)
(0.00138994 0.00431912 1.689e-18)
(0.00153039 0.00426722 6.08875e-19)
(0.00140826 0.00413629 -5.44777e-18)
(-0.00302458 0.00288409 1.87149e-18)
(-0.00312015 0.00295184 4.45641e-18)
(-4.49702e-05 3.98778e-05 1.38463e-19)
(-3.05539e-05 3.69657e-05 -2.02725e-20)
(-2.56554e-05 2.29116e-05 1.8637e-19)
(0.0272237 0.00419042 3.86594e-18)
(0.027239 0.00430826 -7.56022e-18)
(0.0248838 0.00422708 -1.0411e-17)
(0.000194972 -0.000916963 -1.71562e-18)
(0.000181984 -0.000911571 -1.59864e-18)
(0.000183667 -0.000894671 -1.95822e-18)
(0.00841896 0.00691646 -9.78121e-18)
(0.0081246 0.00660435 -2.30795e-18)
(0.00855061 0.00650205 6.19818e-18)
(0.000147158 -0.000287497 -1.54252e-18)
(0.000154896 -0.000288437 1.04287e-19)
(0.000156145 -0.000298374 3.3611e-19)
(0.00049311 -0.00120119 1.26048e-18)
(0.000527777 -0.00120005 -2.3426e-18)
(0.000517466 -0.00116621 -1.46582e-18)
(0.0153036 0.00262707 -7.76573e-18)
(0.0146565 0.00245703 -4.72596e-18)
(0.0157363 0.00268197 -1.59828e-17)
(-0.00240098 0.00728022 -5.13832e-18)
(-0.00237246 0.00749192 1.12264e-17)
(-0.0021866 0.00732006 -3.46265e-19)
(-0.0134702 0.00855066 2.16281e-18)
(-0.0136958 0.00814569 1.43525e-18)
(-0.0139222 0.00875867 -1.02947e-18)
(-0.0291903 -0.00375048 1.01869e-17)
(-0.029453 -0.00362075 -3.48053e-17)
(-0.0298425 -0.00346091 1.94271e-17)
(0.000143068 0.00139614 -5.82743e-19)
(0.000123875 0.00144573 2.55312e-19)
(0.000183708 0.00143563 4.80661e-19)
(-0.000422858 0.0186471 2.26877e-18)
(-9.76607e-05 0.0188207 2.99092e-19)
(-0.000505936 0.0190558 -1.23476e-17)
(-0.0045412 0.0135002 -6.05665e-18)
(-0.00455093 0.0132093 -1.89455e-17)
(-0.00138581 0.00853149 -1.51574e-17)
(-0.0011598 0.00836578 4.28812e-18)
(-0.00143025 0.00823039 -3.5118e-18)
(0.00346493 0.000917487 -2.81205e-18)
(0.00347018 0.000792282 -6.91287e-19)
(0.00330019 0.000863503 -6.5268e-20)
(-0.0214476 0.00569921 4.06213e-17)
(-0.0278236 0.00842808 9.09713e-18)
(-0.0343008 0.00893639 -1.33152e-17)
(1.26122e-06 -4.43857e-06 -6.88914e-20)
(2.13226e-06 -6.00676e-06 5.1881e-19)
(1.22988e-06 -3.65233e-06 -2.64347e-20)
(0.0121103 0.0213921 -5.52621e-18)
(0.0130393 0.0211594 -1.08051e-17)
(0.0144722 0.0220918 4.16687e-18)
(-0.00830833 0.00633413 -5.29729e-18)
(-0.00856782 0.00631615 -6.85719e-19)
(-0.00845243 0.00657112 4.06684e-18)
(-0.00854885 0.0142804 7.46527e-18)
(-0.00693781 0.0143017 3.91893e-19)
(-0.00721446 0.0143674 -7.88176e-18)
(-0.00235205 0.017964 -5.39671e-18)
(-0.00225287 0.0177643 2.28759e-18)
(-0.00424609 0.0179868 1.60658e-17)
(0.0300603 0.00914844 3.14203e-18)
(0.0290378 0.00879963 4.56246e-18)
(0.0285088 0.00868982 2.04198e-18)
(8.7977e-05 0.000618877 3.24298e-19)
(0.000112136 0.000603159 1.98739e-19)
(9.24759e-05 0.000584324 4.57887e-20)
(-0.0240909 -0.00401469 -1.50195e-17)
(-0.0215797 -0.00444267 -1.79237e-17)
(-0.0259118 -0.00393591 -2.89317e-17)
(-0.00298228 0.00296252 6.71265e-18)
(-0.00293829 0.00285259 1.57762e-18)
(-0.00543189 0.0129676 2.662e-19)
(-0.0056106 0.0128596 -1.75864e-18)
(-0.00537905 0.01276 1.70278e-18)
(0.0436036 0.00638478 -9.10219e-18)
(0.0431713 0.00665362 -1.94812e-18)
(0.0464852 0.00712337 3.69466e-18)
(0.00592911 0.00558243 4.45416e-18)
(0.00590334 0.00575283 -1.17127e-17)
(0.00604037 0.00565713 -1.3263e-17)
(0.0305429 0.0089101 2.92006e-18)
(0.0316931 0.00940175 -9.24663e-18)
(0.0311014 0.0088938 -2.95527e-18)
(4.16413e-07 -2.79203e-06 -9.80747e-19)
(1.25265e-06 -5.30411e-06 -7.81987e-19)
(0.0298189 0.00710043 3.40268e-17)
(0.0329398 0.00729643 1.67501e-17)
(0.0325641 0.00772331 -8.45234e-18)
(-0.00912785 0.00787723 1.9047e-17)
(-0.00725174 0.00890679 -9.54406e-18)
(-0.00601823 0.00987181 3.5206e-18)
(0.00111769 -0.000158832 -1.18514e-19)
(0.00108989 -0.000134277 -2.00008e-19)
(0.00113535 -0.00010981 1.53673e-18)
(0.0322293 0.00904448 9.52948e-19)
(0.036684 0.00967233 3.38555e-18)
(0.0329145 0.00889707 -4.79707e-18)
(0.0311985 0.00940076 -1.76806e-18)
(0.0316702 0.00953736 2.25346e-18)
(-0.01676 -0.0032223 2.92641e-17)
(-0.017275 -0.00309641 -9.68833e-18)
(0.0120556 -0.00902394 1.58082e-17)
(0.0109619 -0.00864209 -2.09786e-17)
(0.0118454 -0.00951474 1.44566e-18)
(0.0338284 0.0088656 1.24654e-19)
(0.033495 0.00853793 -8.68549e-20)
(0.0312768 0.00864246 -6.06274e-18)
(0.000602813 0.000268043 -1.36061e-19)
(0.000597674 0.000226873 2.37474e-19)
(0.000582536 0.000249096 -3.50527e-19)
(-0.00060729 7.9794e-05 -2.3444e-19)
(-0.0006184 5.87881e-05 8.66756e-20)
(-0.0106367 0.0107386 -4.20598e-18)
(-0.0109326 0.0108476 -4.01983e-19)
(-0.010776 0.0104565 -1.1839e-18)
(0.00209501 0.00174097 4.89887e-18)
(0.00198812 0.00164597 1.92203e-18)
(0.0019858 0.00178244 -8.9277e-19)
(0.000466692 -0.00119985 -1.53944e-18)
(0.000473741 -0.00122362 1.20402e-20)
(-0.0189445 0.00258333 1.18242e-18)
(-0.0174059 -0.000159462 8.47385e-18)
(-0.0232839 -0.000106353 -1.42924e-18)
(0.000316599 -0.00139224 2.8594e-18)
(0.000318167 -0.00136427 4.39739e-18)
(0.000356064 -0.00138205 -9.06624e-18)
(-0.0132329 0.00898966 4.17982e-18)
(-0.0129876 0.00840092 -1.14486e-17)
(-0.00422521 0.00461768 6.35921e-18)
(-0.0043239 0.0047226 2.65642e-19)
(-0.00438098 0.00458806 1.50209e-17)
(0.015453 0.00323669 3.13306e-18)
(0.0162776 0.00353272 5.25776e-18)
(0.0152517 0.00319481 -8.53162e-18)
(0.00114067 -0.000171991 -3.15503e-19)
(0.00109812 -0.000198334 2.86288e-19)
(-0.00551167 0.0131629 4.38693e-18)
(-0.00526661 0.0130854 6.05833e-18)
(0.0311872 0.00899374 7.50306e-18)
(0.0283104 0.00827362 3.59272e-18)
(-0.00811035 0.0144317 -2.12683e-18)
(-0.00755489 0.0147627 1.52129e-18)
(-0.00701108 0.0146026 -1.43754e-18)
(0.0111867 0.00266882 -1.86424e-19)
(0.0119992 0.00277225 1.51052e-17)
(0.012766 0.00319019 -2.56984e-18)
(0.000135869 -0.000288844 -2.5434e-19)
(0.000134863 -0.000274664 1.17048e-18)
(-0.00969955 0.0142058 -8.55524e-19)
(-0.00947075 0.0142008 1.28182e-17)
(4.80638e-05 -0.000679056 -1.44729e-18)
(5.79896e-05 -0.000675939 4.09858e-19)
(5.71316e-05 -0.000705101 -1.22266e-18)
(0.00216795 0.0016604 4.48006e-18)
(0.00218955 0.00180203 -1.28555e-18)
(0.00629619 -0.00922455 -2.2893e-18)
(0.00670531 -0.00903124 -2.56209e-18)
(0.00626141 -0.00876338 -5.88007e-21)
(0.00592391 -0.00934731 2.13657e-18)
(0.0063387 -0.0096946 4.7298e-19)
(0.0103882 0.00241457 -1.27637e-18)
(0.00961841 0.00201608 2.75551e-18)
(0.00119907 -0.00627532 2.23671e-17)
(0.00130699 -0.00643292 -9.28718e-18)
(0.00120496 0.000586868 -1.40207e-19)
(0.00119463 0.000520988 1.08296e-19)
(0.00115627 0.000570659 -1.62217e-19)
(-0.012406 -0.0032314 -3.44962e-17)
(-0.0113532 -0.00351103 -2.91114e-18)
(-0.0120062 -0.00367075 -5.52781e-17)
(-0.0225119 -0.0045776 -2.7775e-17)
(-0.0221294 -0.00488039 5.47801e-17)
(-0.0227466 -0.00492727 6.94388e-17)
(-0.00141893 0.00942819 -1.04582e-17)
(-0.00119661 0.00946569 1.85519e-17)
(-0.0013702 0.00970971 -5.95457e-18)
(0.000716931 -0.000740636 -2.30554e-18)
(0.000702666 -0.000770395 8.61346e-19)
(0.000739878 -0.000759086 9.24347e-19)
(0.0124129 0.00283899 2.74521e-18)
(0.0108455 0.00223842 1.68314e-17)
(-0.00407846 0.00542389 3.23578e-18)
(-0.00392769 0.00537214 -1.1699e-18)
(-0.00396812 0.00552827 1.55883e-18)
(0.00247903 0.000396084 7.16139e-20)
(0.00241911 0.000307438 9.11321e-20)
(0.00239145 0.000407498 -6.15753e-19)
(-0.0279054 -0.00380692 -8.52923e-18)
(-0.0272963 -0.00370077 3.02112e-17)
(-0.000248946 0.000525874 -5.17385e-19)
(-0.00021611 0.000530453 -1.08424e-18)
(-0.000251263 0.000564787 1.25788e-18)
(0.0116597 0.0216619 -2.10125e-17)
(0.0122223 0.0210503 -2.07509e-17)
(0.00047523 -0.00027301 1.72728e-19)
(0.000453262 -0.000277961 1.87259e-18)
(0.000463776 -0.000300767 1.40667e-19)
(0.00120206 0.000657199 9.77623e-20)
(0.00124406 0.000616808 3.15924e-19)
(0.0153171 0.0132947 6.41164e-19)
(0.0149988 0.0138815 -6.55138e-19)
(0.015758 0.0137057 -3.54054e-17)
(0.00574892 0.00539463 1.07405e-17)
(0.00602871 0.00525614 -1.62077e-18)
(0.0149417 0.00247905 4.30104e-18)
(0.015308 0.00260435 3.08669e-18)
(0.0163666 0.00276774 -9.55419e-18)
(0.0127348 0.00279151 -9.85208e-18)
(0.0139348 0.00327121 -1.03435e-17)
(-0.0212198 -0.00440042 3.47649e-19)
(-0.0229005 -0.00363232 2.03942e-17)
(-0.0246908 -0.00403635 4.07543e-17)
(0.00355818 0.00100225 1.30403e-18)
(0.00345601 0.00109067 -5.11344e-19)
(0.0257437 0.00408357 -3.71901e-18)
(0.0241714 0.00329309 7.03741e-19)
(0.0254364 0.0042069 2.87731e-18)
(0.000292952 -0.000899365 1.05805e-18)
(0.000303448 -0.000880599 -1.82441e-18)
(0.000279785 -0.000874857 -1.01842e-18)
(-0.0254811 -0.00378875 6.67215e-18)
(-0.0215366 -0.00418351 4.23446e-19)
(0.000310831 -0.00143095 1.67365e-18)
(0.000270059 -0.00139998 -1.43086e-18)
(-0.00291615 0.00305837 -2.25992e-19)
(-0.00303336 0.00312237 -7.47944e-19)
(-0.0271136 -0.00034142 -5.78842e-18)
(-0.0264575 -0.000344585 2.07173e-17)
(-0.0204901 -0.00478082 -2.14031e-17)
(-0.0198496 -0.0047055 -3.14709e-18)
(-0.000668724 0.0103192 -1.83104e-18)
(-0.00374664 0.00920442 5.34876e-18)
(-0.00538253 0.00804025 -7.82556e-18)
(0.0117186 -0.00836323 -5.38738e-18)
(0.0113024 -0.00784135 2.61878e-18)
(0.0109499 -0.00821629 -2.73311e-18)
(0.000661954 -9.50079e-06 -6.55456e-19)
(0.000652739 -3.13505e-05 -5.71462e-19)
(0.000677373 -1.58672e-05 -1.86146e-19)
(-0.0120969 0.010378 4.26774e-18)
(-0.0124042 0.0100575 1.67993e-18)
(-0.0119966 0.00995003 -8.33797e-18)
(-0.00422818 0.00276067 -5.59717e-18)
(-0.00365695 0.00258813 -2.81269e-17)
(-0.00506484 0.00178933 -1.43632e-18)
(0.014835 0.00311587 -2.38617e-17)
(0.015371 0.00329666 -3.19783e-17)
(0.0152114 0.00273354 2.62067e-18)
(-0.0118259 0.0106981 -1.26013e-19)
(-0.0122669 0.0108144 -4.69954e-18)
(0.00175421 -0.00483447 5.62489e-18)
(0.00159961 -0.0047876 -1.39843e-18)
(0.00173034 -0.00466084 -2.30073e-18)
(0.00224004 -0.00503746 1.86392e-17)
(0.002055 -0.00492471 2.48996e-17)
(0.00207523 -0.00519688 7.58123e-18)
(0.000742198 -0.000900348 1.18756e-18)
(0.000761728 -0.000865544 -3.07404e-18)
(0.000794296 -0.000887653 -4.56972e-18)
(0.000544307 0.000442358 -2.15291e-19)
(0.000566111 0.000458502 2.80183e-20)
(0.000544827 0.000482987 1.25412e-19)
(0.000306993 0.00923711 -3.40453e-18)
(0.00056333 0.00924203 -8.35557e-18)
(0.000369064 0.0095152 -5.61669e-19)
(0.00052547 0.000403729 -4.61276e-20)
(0.000562246 0.000393706 6.31405e-20)
(-0.0221087 -0.00414169 -3.97772e-17)
(-0.0240908 -0.00431279 -6.86542e-17)
(-0.00282742 0.0030125 -3.66863e-18)
(-0.00286611 0.00312903 -7.45546e-19)
(0.000180961 0.00136104 8.13847e-19)
(0.000130764 0.00134895 1.8565e-18)
(0.00438844 -0.000212549 -1.19917e-19)
(0.00459109 -0.000285326 7.67115e-19)
(0.0043846 -0.000419945 2.58094e-20)
(0.000583395 0.000321809 -4.97209e-20)
(0.000625589 0.000322376 1.46334e-19)
(0.00617485 0.0158916 -2.66803e-18)
(0.00575807 0.0161505 -1.14066e-17)
(0.00622148 0.0163638 -1.70748e-18)
(0.0051313 0.0100473 -2.27724e-18)
(0.00485518 0.00988838 1.46934e-18)
(0.00514091 0.00969599 -5.92058e-18)
(-0.00668128 0.0122732 -7.13633e-19)
(-0.00685444 0.0122049 4.16251e-18)
(-0.00683755 0.012428 4.0455e-18)
(-0.0041398 0.0044938 -3.23679e-18)
(-0.00407398 0.00460358 1.27639e-19)
(9.77551e-05 0.000272742 -2.70623e-19)
(0.000113529 0.000267239 -1.55652e-19)
(0.000103545 0.000292609 -2.78875e-19)
(-6.47889e-05 3.96614e-05 4.5773e-19)
(-6.03941e-05 5.79431e-05 1.0191e-19)
(-0.00826709 -0.00286034 4.77394e-17)
(-0.00809757 -0.00270797 5.58861e-17)
(-0.0139426 -0.00297615 -8.28182e-18)
(-0.0154501 -0.00298045 -8.55525e-18)
(0.0119195 -0.0055916 8.43512e-18)
(0.0116653 -0.00595169 -2.64029e-18)
(0.0121934 -0.00589205 -9.37367e-19)
(9.5701e-05 0.00107987 3.9627e-19)
(0.000111537 0.00102722 -6.27361e-19)
(6.64368e-05 0.0010446 -4.26644e-19)
(0.00118546 0.000300114 -1.84825e-19)
(0.00120969 0.000352518 -6.59442e-20)
(0.0012309 0.00028746 -4.46752e-19)
(0.0199527 0.00412403 3.30358e-18)
(0.0217975 0.00452345 1.8241e-18)
(0.019894 0.0043169 -2.29993e-18)
(-0.00261978 0.0167542 -1.32319e-18)
(-0.00240259 0.0169931 -7.86505e-18)
(-0.00272665 0.0169988 -3.14086e-18)
(0.00163595 -0.00797157 -1.37174e-19)
(0.00164577 -0.00772234 -5.56607e-18)
(0.00184343 -0.00794566 -2.09866e-17)
(0.000664512 2.05112e-05 1.38639e-18)
(0.000636821 -5.32792e-06 7.99351e-19)
(0.00898549 0.0026513 3.06322e-18)
(0.00863999 0.00286347 3.72741e-18)
(0.00869283 0.00244847 9.9671e-18)
(0.0341397 0.00684474 -6.52848e-18)
(0.0308483 0.00648692 -8.85931e-18)
(0.0336992 0.00698015 -6.07107e-18)
(-0.00264259 0.00869685 8.88517e-18)
(-0.00270272 0.00893616 6.19275e-18)
(-0.0024235 0.00878399 8.57288e-18)
(0.0032145 0.000714184 2.70023e-19)
(0.00342949 0.000527006 -5.61409e-19)
(0.00373653 0.00451109 -6.70484e-18)
(0.00357613 0.00470437 1.42921e-17)
(0.00352033 0.00443824 3.81746e-18)
(0.0246779 0.00702635 3.97294e-18)
(0.0250382 0.00765601 -1.25634e-17)
(0.0444988 0.0062501 3.22206e-18)
(0.0406287 0.00612493 2.65428e-18)
(0.00867009 0.00713793 -1.74951e-17)
(0.00830142 0.00722183 6.53636e-18)
(-0.00390119 0.00994518 1.92894e-17)
(-0.00718754 0.00895626 1.16062e-17)
(-0.00917828 0.00841404 2.40011e-17)
(0.0012178 -0.00606759 4.92107e-17)
(-0.0227708 -0.00420336 -2.54893e-18)
(-0.0224197 -0.00455989 4.64563e-17)
(0.00150379 -0.00394332 3.36319e-18)
(0.00145781 -0.00398892 -1.31367e-17)
(0.00144358 -0.00391086 -1.12381e-17)
(-0.00302122 0.00852863 1.05571e-18)
(-0.00305573 0.008287 -1.69631e-18)
(-0.00328042 0.00842588 3.38429e-18)
(0.0156287 0.0127403 -7.53651e-19)
(0.0148761 0.0129229 -2.25592e-17)
(0.00121635 -0.00120875 -1.52399e-18)
(0.00116202 -0.0012165 -1.60811e-18)
(0.00119245 -0.00115913 -1.29511e-18)
(0.000285224 -0.000915686 2.54921e-19)
(0.000309468 -0.0009231 1.58667e-18)
(0.00332173 -0.00750807 5.2298e-18)
(0.00334062 -0.00782251 2.22926e-17)
(0.00356861 -0.00761833 -1.33613e-17)
(0.00675728 0.0234424 -7.79758e-18)
(0.00703737 0.0241037 1.84815e-17)
(0.00600831 0.0241849 -1.11897e-17)
(0.00220804 -8.71273e-05 7.72967e-19)
(0.00228598 -0.000116835 -2.10658e-19)
(0.0022149 -0.000196577 -4.05221e-19)
(-0.000277684 0.000528168 -9.79134e-19)
(-0.000252703 0.000496603 -5.40628e-19)
(-0.0193481 -0.0046744 -2.75466e-17)
(0.0221062 0.0061039 2.11814e-18)
(0.0221712 0.00603041 -6.109e-18)
(0.0209505 0.00561576 2.28823e-18)
(0.00930708 0.00252319 -1.80799e-18)
(0.00921977 0.00288718 -1.02253e-17)
(-0.0115372 0.0106186 -7.09556e-18)
(-0.0116414 0.0110162 -6.55191e-19)
(0.00660339 0.0157065 1.01131e-17)
(0.00614882 0.0154838 1.02166e-17)
(0.00539227 0.0102435 -1.27696e-18)
(0.00505867 0.0103988 -8.29656e-18)
(-0.000897048 0.0176946 7.85258e-18)
(-0.000543567 0.0178412 -7.43982e-19)
(-0.000566248 0.0174542 1.64556e-17)
(0.000521574 -0.00132824 1.21525e-18)
(0.000646459 -0.00131216 4.55015e-18)
(0.000599535 -0.00144522 -3.18542e-18)
(0.000247294 -0.00115704 2.35099e-18)
(0.000220613 -0.00117045 -1.33815e-19)
(0.000220672 -0.00114211 1.16602e-18)
(0.000108738 -0.000218122 5.44891e-19)
(0.000110927 -0.000228302 -8.56631e-19)
(9.9079e-05 -0.000216578 -3.48127e-18)
(-0.0110717 0.00668233 2.64235e-18)
(-0.0124628 0.00590624 1.95518e-17)
(-0.00277102 0.00811007 3.78603e-18)
(-0.00292531 0.00818132 1.17986e-19)
(-0.00285054 0.00797014 1.12423e-19)
(-0.00190949 0.00318649 -1.22083e-18)
(-0.00199368 0.00323239 -1.47805e-18)
(-0.00189926 0.00328813 8.78843e-19)
(2.98542e-06 -1.14863e-05 -2.79382e-19)
(3.08599e-06 -9.94553e-06 3.00593e-19)
(4.71156e-06 -1.3954e-05 1.82599e-18)
(0.0297845 0.00878132 -6.27846e-18)
(0.0293565 0.00881583 9.7668e-19)
(0.0308825 0.00928432 -2.77979e-19)
(4.09834e-05 0.00925595 8.40044e-18)
(0.000238345 0.00899789 7.99812e-18)
(-0.0103008 0.0106166 -1.93864e-18)
(-0.0104082 0.0109988 -6.8228e-18)
(0.0158953 0.00278836 7.44185e-18)
(0.014781 0.00260626 4.24645e-18)
(0.0330435 0.00494238 -2.35643e-18)
(0.0301067 0.00515319 -2.49413e-18)
(0.0330703 0.00529044 -7.69507e-18)
(0.0326897 0.00477649 2.08101e-18)
(0.0363391 0.00490106 8.24044e-18)
(-0.0198897 0.000881773 4.74212e-18)
(-0.0182514 0.00301144 4.45066e-18)
(0.00431879 -7.97315e-05 -7.17524e-19)
(0.00422517 -0.00021667 3.05457e-20)
(0.00383237 0.0211149 1.04835e-17)
(0.00125653 0.0212648 -6.32613e-18)
(0.0160328 0.0210899 1.36807e-19)
(0.000129021 -0.000286363 -8.36571e-19)
(0.000117538 -0.000286905 -8.01348e-19)
(0.000116093 -0.000271674 4.91721e-19)
(8.09966e-05 0.000283111 -7.93137e-21)
(9.27495e-05 0.000256337 -1.30296e-19)
(0.0012154 0.010595 5.06893e-18)
(0.0015335 0.0106272 -1.2724e-18)
(0.00139833 0.010299 7.98009e-18)
(2.85097e-05 -8.82592e-06 -5.98468e-20)
(2.60004e-05 -1.14419e-05 -3.4297e-19)
(2.40953e-05 -7.56061e-06 -1.2357e-18)
(0.00158998 0.0109707 1.42388e-17)
(0.00432879 0.0120324 1.77849e-17)
(-0.0078381 0.0141735 5.75773e-18)
(-0.00779088 0.0140506 -2.4615e-18)
(-0.00794512 0.0141139 -6.24218e-18)
(-0.00987834 0.0119835 -1.0007e-18)
(-0.00959823 0.0121099 -1.95522e-18)
(-0.00995048 0.0122995 8.53319e-19)
(6.53041e-05 0.00029209 7.11051e-21)
(7.19974e-05 0.00030878 1.21304e-19)
(-0.00425791 0.00521142 -2.71313e-18)
(-0.00416566 0.00532663 -3.14616e-18)
(-0.00413218 0.00516663 5.40678e-19)
(-0.0101872 0.0118376 1.4767e-18)
(-0.00991158 0.0116604 -1.00708e-17)
(-0.00296487 0.016651 1.32074e-17)
(-0.00250783 0.016437 -5.57835e-18)
(0.0125253 -0.00864429 -3.07507e-17)
(0.00427356 7.76255e-05 -4.94296e-19)
(0.00409965 0.000115476 -4.57297e-21)
(0.00422053 0.000238527 -2.42087e-19)
(-0.0028775 0.00858452 -8.25202e-18)
(-0.00260729 0.00845319 -1.24423e-17)
(-0.0252995 -0.00301844 -7.29193e-17)
(-0.0248222 -0.00307298 2.68912e-18)
(0.0229245 0.00652801 1.66452e-17)
(0.021949 0.0060966 2.56635e-18)
(-0.00570548 0.0127355 -2.56798e-18)
(-0.00579969 0.0128971 5.01969e-18)
(0.00125481 -0.00304448 -5.60716e-19)
(0.0011732 -0.00307463 -7.04569e-18)
(0.00127837 -0.00314897 1.1022e-17)
(0.000671693 -0.00125018 4.51424e-19)
(0.000627816 -0.00128106 1.2066e-18)
(0.000620847 -0.00123396 -2.09946e-19)
(0.000313674 0.000516471 -8.11906e-20)
(0.000339118 0.000519858 -3.2279e-19)
(0.000316434 0.000556712 -6.61775e-19)
(0.00710147 0.0229789 2.99275e-18)
(0.00640912 0.0230473 -1.27815e-17)
(-0.00259367 0.00823256 -3.73157e-18)
(-0.00255831 0.00799688 4.81572e-19)
(0.0142282 0.00244827 4.97652e-18)
(0.0130949 0.0022704 8.53137e-18)
(0.00123612 0.00435671 7.91209e-18)
(0.00134485 0.00448419 -9.72862e-18)
(0.00212958 -7.51384e-05 3.91089e-19)
(0.00219208 2.67941e-06 1.61083e-19)
(-0.0126811 0.00975851 -5.77446e-18)
(-0.012981 0.00936947 -2.25163e-18)
(-0.0125315 0.00921641 -5.04801e-18)
(-0.00583613 0.0126301 -1.27027e-17)
(-0.00565154 0.0125409 -1.23848e-17)
(-0.000624492 0.00201556 -9.47176e-20)
(-0.000608499 0.00208206 1.26099e-18)
(-0.000551005 0.00202548 -2.35676e-18)
(0.000584719 0.00179217 -1.26534e-18)
(0.000592764 0.0017151 -2.24817e-18)
(0.000526815 0.00175866 4.10852e-20)
(0.00148457 -0.00647784 -4.3521e-17)
(0.00167371 -0.00633144 -1.51676e-17)
(0.00171579 -0.0066026 5.61778e-18)
(0.0159294 0.0122633 -5.04927e-19)
(0.0161945 0.0117087 3.40902e-18)
(0.0154908 0.0118325 -1.61884e-17)
(0.0111469 0.0102198 -1.32459e-17)
(0.0136127 0.0111086 -2.22891e-18)
(0.0160908 0.0114204 2.11226e-18)
(0.0288337 0.00895758 4.77482e-18)
(0.0274096 0.00908592 -2.41718e-19)
(0.0328726 0.00992004 -1.73622e-18)
(-0.00244861 0.00708364 -5.87949e-18)
(-0.00258585 0.00725202 1.48183e-18)
(0.00882554 -0.0141175 -2.19884e-19)
(0.00865178 -0.0147645 -2.10172e-17)
(0.0096809 -0.0153896 8.58834e-19)
(0.00655683 0.00928555 -1.46453e-19)
(0.00916593 0.00956745 -3.18101e-18)
(0.000502461 -0.00205793 7.21869e-18)
(0.000469766 -0.00201584 -6.55154e-18)
(0.000421895 -0.00206578 -5.29645e-18)
(-0.00435089 0.00780782 1.13628e-18)
(-0.00415677 0.00790654 1.94078e-18)
(-0.00419187 0.00767885 -9.26651e-18)
(0.0268124 0.00401347 -9.61977e-18)
(0.0292258 0.00398417 -8.46503e-18)
(0.0262844 0.00385966 -1.27743e-18)
(0.00179588 0.00372152 2.45799e-18)
(0.001939 0.00376873 5.1916e-18)
(0.00187188 0.00360258 1.49396e-18)
(-0.013909 0.00769577 6.90959e-19)
(-0.0141589 0.00731092 -5.19993e-18)
(-0.0143937 0.00792211 -3.41164e-18)
(0.0011735 0.000250235 -1.7108e-19)
(0.00114815 0.000302162 -8.62147e-19)
(0.0163248 0.0126655 1.51399e-17)
(9.7338e-06 -7.82257e-05 -1.72969e-18)
(1.2729e-05 -9.18334e-05 -2.21096e-19)
(1.26378e-05 -9.61662e-05 -2.65933e-18)
(0.00562296 0.00614436 3.8664e-18)
(0.00557726 0.00640168 3.16135e-18)
(0.00582648 0.00621872 1.13889e-17)
(0.00273184 0.000401815 -1.86009e-19)
(0.00276909 0.000489435 -5.46522e-20)
(0.00282509 0.000415772 1.01748e-20)
(0.000435363 -0.00118716 1.98105e-18)
(0.000458189 -0.00115751 -7.13528e-18)
(-0.0050134 0.0147581 6.10866e-19)
(-0.00529053 0.014821 6.35146e-18)
(-0.00511882 0.01496 3.92294e-18)
(5.55951e-05 0.00203905 -1.01424e-18)
(2.71001e-05 0.00197159 1.06629e-18)
(-2.49947e-05 0.00204895 -8.32456e-19)
(0.00426407 -0.0138083 1.18099e-17)
(0.00471235 -0.0147342 2.36992e-17)
(5.95484e-05 0.000274424 -1.15573e-19)
(4.67956e-05 0.000300967 2.4244e-19)
(-0.00436057 0.0136021 6.09742e-18)
(-0.00414781 0.0137235 9.27699e-19)
(-0.00415632 0.0134458 1.27735e-17)
(0.0147628 0.00247595 5.1739e-18)
(0.0135316 0.00226063 4.21307e-18)
(-0.00424499 0.00948075 3.44683e-18)
(-0.00603445 0.0092847 -1.68682e-17)
(-0.000109382 0.0109881 -2.04493e-17)
(0.00144282 -0.00297411 1.43908e-17)
(0.00146724 -0.00284367 1.43423e-17)
(0.00158609 -0.00294201 -5.98713e-18)
(-0.00453065 0.00777706 5.76836e-18)
(-0.00445683 0.00795614 2.50666e-18)
(4.34229e-06 -4.85762e-05 1.37815e-18)
(2.31563e-06 -3.51882e-05 -7.08764e-19)
(2.58136e-06 -3.69532e-05 2.72401e-18)
(0.00328632 -0.00727314 -1.00143e-17)
(0.00307808 -0.00737992 -6.21534e-18)
(0.000309933 -0.000406711 -1.43696e-18)
(0.000290465 -0.000395074 2.11861e-18)
(0.000306297 -0.000388592 1.41036e-19)
(0.00539097 0.00583993 -1.41141e-17)
(-0.0294111 0.00292984 1.12843e-18)
(-0.0193918 7.25491e-05 9.26254e-18)
(-0.023965 -7.53528e-05 -2.95154e-18)
(0.00138635 -0.0030301 6.4158e-18)
(0.00127139 -0.00293199 -9.3369e-18)
(0.00165194 0.00365578 -3.93056e-18)
(0.00168434 0.00383302 3.68025e-18)
(1.77694e-05 -0.000616206 3.61596e-18)
(2.26573e-05 -0.000641309 1.68862e-18)
(0.0252731 0.00841887 -8.42845e-18)
(0.0295894 0.00894482 4.69698e-19)
(7.31596e-05 0.000655867 -1.39044e-19)
(5.5906e-05 0.000631352 -6.57914e-19)
(-0.0123005 0.000206119 -1.51861e-18)
(-0.00231332 -0.00346805 4.04525e-17)
(0.0266533 0.00918171 -7.46676e-19)
(0.0255494 0.00918726 -8.1828e-18)
(0.0307981 0.00989912 3.28838e-18)
(0.0142748 0.0029221 -7.05575e-18)
(0.0144437 0.00349029 3.64416e-18)
(2.9342e-06 -1.28455e-05 -1.73267e-18)
(1.71152e-06 -8.93021e-06 -1.15393e-18)
(0.0183027 -0.00325974 1.92479e-19)
(0.0202024 -0.00345473 2.29514e-17)
(0.0211718 -0.0041554 1.88528e-18)
(0.0130513 0.00275359 6.17415e-19)
(0.0135943 0.00285868 3.40643e-18)
(0.0146466 0.00331592 -6.63509e-19)
(0.0369012 0.00909265 2.41947e-19)
(0.0340344 0.00915332 2.85458e-18)
(-0.0134687 0.00758263 -7.41104e-18)
(2.92975e-05 0.0068615 1.61071e-18)
(0.000227171 0.00683956 -7.60486e-18)
(7.7356e-05 0.00668919 7.28108e-18)
(0.00354947 -0.00849289 -7.95828e-18)
(0.00340002 -0.00817776 -8.35198e-18)
(0.0032249 -0.00847092 -7.02793e-18)
(-0.00488467 0.0145498 -3.98519e-18)
(-0.00471278 0.0146837 -4.17287e-18)
(-0.00443183 0.00526272 -7.58589e-19)
(-0.00436381 0.00505943 1.47576e-19)
(0.0116212 -0.0074852 2.02264e-18)
(0.011052 -0.00745173 1.55647e-17)
(0.00504103 0.000289533 1.80428e-19)
(0.00493766 0.000133525 1.09374e-18)
(0.00486621 0.000300727 -7.95825e-19)
(0.0193127 0.00397168 1.7401e-18)
(0.0186184 0.00355202 -2.6379e-18)
(0.0189518 0.00350763 8.33236e-18)
(-0.00130457 0.0150183 -3.67441e-18)
(-0.00169896 0.0149681 1.12792e-17)
(-0.00134002 0.0146688 -9.10473e-18)
(6.72397e-05 1.32215e-05 -1.19472e-19)
(5.85415e-05 2.07e-05 -5.18593e-20)
(6.66986e-05 2.30226e-05 -3.20432e-19)
(-0.00031177 0.0048541 9.53916e-18)
(-0.000363842 0.00472486 4.22881e-18)
(-0.000209376 0.00471964 5.05918e-18)
(-0.0128176 0.0102267 -1.96329e-18)
(0.0299668 0.0086752 2.45711e-18)
(0.0290822 0.00839123 2.10781e-18)
(0.0314 0.00365413 -4.05346e-18)
(0.0319412 0.0039672 -5.66731e-19)
(0.0317415 0.00365818 -2.94404e-19)
(0.000315352 0.000485042 1.86457e-19)
(0.000291568 0.000516128 3.81808e-19)
(0.00179269 -0.00832188 1.27506e-17)
(0.000311546 -0.000863506 5.3268e-19)
(0.000319846 -0.000846859 3.99538e-18)
(0.000298687 -0.000841863 3.5621e-18)
(-0.00632045 0.0135903 -1.01952e-18)
(-0.00617651 0.0136721 -3.10779e-18)
(-0.00615731 0.0135014 -1.94214e-18)
(-0.00212284 0.0170965 1.28445e-18)
(-0.0018295 0.0172794 1.1654e-17)
(-0.00185091 0.0168919 -8.10102e-18)
(-0.000268361 0.00494156 9.47649e-18)
(-0.000399613 0.00492236 4.81017e-19)
(-0.000133843 0.00927561 1.97974e-18)
(-9.84573e-05 0.0094581 -1.50336e-18)
(-0.00107351 0.0151835 1.6106e-17)
(-0.00138502 0.0152914 -1.15704e-17)
(0.000673371 -0.000559535 1.35599e-18)
(0.000690001 -0.000533955 2.85274e-18)
(0.000657261 -0.000541665 -3.3296e-18)
(0.00190527 -0.0048787 1.4647e-17)
(0.00177017 -0.00503539 -1.08012e-17)
(-0.00940765 0.0103389 -9.82098e-18)
(-0.00973927 0.0104177 3.84583e-18)
(-0.00959522 0.0100854 -3.32828e-18)
(-0.00288891 0.0172338 3.78329e-18)
(-0.0026108 0.017371 2.52818e-18)
(-0.00385812 0.0172481 7.60441e-18)
(0.00016969 -0.000573388 -2.18642e-19)
(0.000159911 -0.000551983 -1.8655e-18)
(0.000154175 -0.000561781 -3.87186e-19)
(0.000413836 -0.00117962 3.4054e-18)
(0.000418868 -0.00120638 6.01326e-18)
(0.0014899 -0.00305608 1.69518e-17)
(0.0367539 0.00391995 7.17025e-19)
(0.0371449 0.00410817 1.09809e-17)
(0.0403805 0.00420114 7.40839e-18)
(-0.00892633 -0.00317188 1.50895e-19)
(-0.00816479 -0.00308466 2.48597e-17)
(-0.00931311 -0.0031578 2.43822e-17)
(-0.00181765 0.00893514 -3.45465e-18)
(-0.00168419 0.0087636 -8.60851e-18)
(-0.00160999 0.00898802 -1.95917e-18)
(8.20487e-05 0.00112334 -1.43517e-18)
(0.000126452 0.00110707 9.79572e-19)
(-0.00316672 0.0164983 2.35722e-19)
(-0.00321269 0.0167172 -2.8719e-19)
(-0.00121334 0.0175651 -1.07918e-17)
(-0.00152299 0.0174183 6.89289e-19)
(-0.00122756 0.0172017 -5.70055e-18)
(-0.00610813 0.0121829 -2.55955e-19)
(-0.00629427 0.0120588 1.51202e-18)
(-0.00609113 0.0119731 -2.74262e-18)
(-0.00047682 0.00922516 -4.92627e-18)
(-0.000178226 0.00896613 -3.85635e-18)
(0.0364645 0.00374629 -2.15863e-18)
(0.0333446 0.00371276 -8.10865e-18)
(0.00199513 0.00272351 -2.56485e-18)
(0.00252026 0.00261167 4.83173e-18)
(0.000900845 0.00190713 1.78666e-17)
(0.000344844 0.00500715 -1.69012e-19)
(0.000460674 0.00497816 -4.43195e-18)
(0.000419179 0.00510961 -5.32971e-18)
(-0.00219889 0.00667928 5.19923e-18)
(-0.00224372 0.0068327 1.34659e-17)
(-0.00237704 0.00670875 1.03385e-17)
(0.0329815 0.0019178 -1.21089e-17)
(0.0312758 0.0037014 2.57259e-17)
(0.0166023 0.00466921 -9.59367e-18)
(0.000479303 0.000580495 1.44453e-20)
(0.000507839 0.000612945 8.55644e-20)
(0.000506938 0.000547403 2.1723e-19)
(0.000106085 -0.000206878 1.34026e-18)
(0.000103086 -0.000196699 -4.95228e-20)
(9.44932e-05 -0.000196332 6.20404e-19)
(-0.0059594 0.0122939 1.09465e-17)
(-0.00615156 0.0123725 -6.59474e-18)
(0.00853564 0.00509678 6.51684e-18)
(0.00817053 0.00519352 -2.40363e-18)
(0.00824039 0.00480564 -2.3537e-18)
(5.58007e-05 0.000694026 3.64917e-20)
(4.09836e-05 0.000728736 6.75525e-19)
(2.55669e-05 0.000701576 -1.88391e-19)
(1.4189e-05 -8.68926e-05 1.7965e-18)
(1.30023e-05 -8.90328e-05 -5.4564e-19)
(9.1742e-06 -7.30435e-05 -1.87114e-18)
(0.000326971 -0.000414842 -5.48185e-19)
(0.000311429 -0.000424006 -3.31252e-19)
(8.01275e-05 -7.65463e-06 -6.58027e-20)
(8.33816e-05 -6.91376e-06 -6.85366e-19)
(7.83443e-05 -4.45227e-06 -3.52211e-19)
(-0.000810102 0.00669639 7.99428e-18)
(-0.000756263 0.00682436 -3.18654e-19)
(-0.000924967 0.00684336 8.74445e-19)
(0.000118265 -0.000217579 -6.87391e-19)
(0.0271427 0.00410098 2.92433e-18)
(0.0299085 0.00417773 8.95979e-19)
(-0.00135602 0.00871219 -1.71517e-18)
(-0.00156291 0.00861092 -1.29622e-17)
(0.000925253 0.00011411 1.35518e-18)
(0.000895539 7.69746e-05 1.02399e-18)
(0.000938816 8.76858e-05 -3.26868e-19)
(0.0298306 0.00828686 3.5633e-18)
(0.0196277 0.00403593 9.07754e-18)
(0.0183095 0.00396289 1.18086e-17)
(0.000457901 -0.00134029 -5.03048e-18)
(0.000475554 -0.0013288 -2.12245e-18)
(0.000457382 -0.00132477 -2.01387e-19)
(-0.00454105 0.0137706 -5.6519e-19)
(-0.0111978 0.0024467 -6.18837e-19)
(-0.0124682 0.00131848 1.03727e-17)
(-0.010354 0.00223919 1.54181e-17)
(0.00123752 -0.0012539 -2.04499e-18)
(0.00126998 -0.00120346 2.34413e-18)
(0.000418138 -0.00135826 3.73096e-19)
(0.000456155 -0.00138155 4.26281e-19)
(-0.00120184 0.00889134 2.26662e-19)
(-0.00139417 0.00900621 1.08641e-17)
(0.0144913 0.00238052 -2.59422e-18)
(0.0144926 0.00247802 -2.65009e-18)
(0.0157485 0.00263353 -2.70106e-18)
(-0.0244002 0.00845374 2.78122e-17)
(-0.0261004 0.00660886 1.40728e-16)
(-0.0257769 0.00763317 9.89314e-17)
(0.000135353 0.0111976 9.1075e-19)
(0.000305014 0.0114527 4.16814e-18)
(0.000410568 0.0111314 -1.0743e-18)
(5.40817e-05 -9.01776e-06 -8.40846e-19)