/*--------------------------------*- C++ -*----------------------------------*\
| =========                 |                                                 |
| \\      /  F ield         | OpenFOAM: The Open Source CFD Toolbox           |
|  \\    /   O peration     | Version:  v2012                                 |
|   \\  /    A nd           | Website:  www.openfoam.com                      |
|    \\/     M anipulation  |                                                 |
\*---------------------------------------------------------------------------*/
FoamFile
{
    version     2.0;
    format      ascii;
    class       volScalarField;
    location    "750";
    object      p;
}
// * * * * * * * * * * * * * * * * * * * * * * * * * * * * * * * * * * * * * //

dimensions      [0 2 -2 0 0 0 0];


internalField   nonuniform List<scalar> 
13917
(
-0.160661
-0.0360468
-0.277185
-0.0878458
0.0249091
0.450696
-0.250366
-0.300192
-0.413765
-0.23292
-0.251971
-0.167476
-0.0886618
-0.321815
0.0197664
-0.00834965
-0.0274825
-0.247884
-0.164734
-0.00943799
0.0107597
-0.243709
-0.00121632
-0.305787
0.0149982
-0.212187
0.214778
0.216989
0.0295516
-0.327333
-0.18314
-0.101702
0.163435
0.112271
0.02348
-0.252687
-0.0010131
-0.323442
-0.099654
-0.140174
-0.0265013
0.00767165
-0.0428572
0.234856
-0.065078
0.126148
-0.243948
-0.266643
0.488272
-0.0182646
-0.143214
0.0564751
0.493381
0.116143
-0.0257014
-0.14119
-0.253586
0.00730847
-0.116788
-0.0629904
-0.514405
-0.0383393
-0.319168
-0.00923991
0.439842
-0.489733
0.0309057
0.0387126
-0.330588
-0.112751
0.0240236
-0.412833
-0.433278
0.0140303
0.467684
-0.146861
-0.402985
-0.0885362
-0.18027
0.00993081
0.00314613
0.030305
0.419486
-0.325074
-0.521234
-0.0868603
-0.00110431
-0.47574
-0.140062
-0.0433435
-0.40414
-0.290931
-0.0412019
0.0296124
-0.515388
0.448656
-0.274506
-0.262448
-0.170021
0.318414
-0.0293246
0.169728
0.245889
-0.100852
-0.0344265
-0.4239
0.000504525
-0.272867
-0.0303015
-0.184379
-0.495804
-0.142491
-0.175509
-0.421122
0.0744091
0.522087
0.000656225
0.485827
-0.23433
0.111965
0.00780726
-0.329836
-0.261724
0.211333
-0.0209483
0.0284398
-0.0578566
-0.0205552
-0.0398338
0.454072
-0.252985
0.0723761
-0.0655624
0.0115395
-0.47157
-0.300326
-0.156699
0.332811
0.0307262
0.112192
-0.255908
-0.0460056
0.0550498
0.270706
0.038888
-0.410407
-0.0353119
0.0542603
-0.044746
-0.0950085
-0.218906
0.520754
-0.223908
-0.0716176
-0.125968
-0.517442
-0.105885
-0.33282
-0.403457
-0.476054
0.0717054
0.222018
0.00477013
-0.269357
-0.176696
-0.171694
-0.0992739
-0.240897
-0.055454
0.175882
-0.097394
-0.507336
-0.169214
-0.0252163
-0.385934
-0.0642183
-0.250131
0.491995
-0.404474
-0.0229334
-0.300265
-0.191549
-0.0468781
-0.00067171
0.0551551
-0.215474
-0.428358
-0.515997
-0.196458
-0.193732
-0.297882
-0.520971
-0.415754
0.00583217
0.355872
0.206453
-0.0324078
-0.0413091
-0.0146849
-0.475257
-0.127159
-0.0177746
-0.227024
-0.215172
-0.43206
-0.437211
0.0236167
0.00813108
-0.258063
-0.240964
0.0524693
-0.256999
-0.433008
-0.195727
-0.0338413
0.274235
-0.241743
-0.489056
-0.00484034
-0.512646
-0.0224194
-0.318913
-0.0258075
-0.343591
-0.429437
-0.0100716
-0.422225
-0.130915
-0.0328315
-0.255128
-0.165479
-0.194434
-0.283672
-0.434587
-0.031804
-0.106589
-0.404829
-0.521772
0.00563295
-0.017957
-0.123575
-0.289134
-0.0124741
-0.235347
-0.320086
0.215229
-0.15554
0.00403085
-0.0220846
-0.422099
-0.0682693
-0.327428
0.328406
-0.0575705
0.00876231
-0.205917
-0.132468
-0.220965
0.0527034
0.0147807
-0.0119731
-0.259926
-0.47714
-0.208209
-0.0320513
-0.456686
-0.331028
-0.33568
-0.174609
-0.14825
0.00398854
-0.0227503
-0.244863
-0.364322
-0.323691
-0.114139
-0.441439
-0.129524
-0.0396969
-0.492546
-0.0114262
-0.38327
-0.123744
-0.0125644
-0.0198346
-0.0653015
0.220558
-0.237998
-0.0257144
-0.0726957
-0.461913
-0.284738
-0.47108
-0.0041647
-0.350802
0.0264668
-0.0727305
0.00026017
-0.073893
-0.0150349
-0.327371
-0.148612
-0.0549349
-0.228294
-0.0634097
0.506572
-0.0616595
-0.281865
-0.0537407
0.00802067
-0.498065
-0.277322
-0.000121282
-0.0241097
-0.4995
-0.0287504
-0.431281
-0.0524909
-0.345491
-0.0757693
-0.378174
-0.176034
0.440573
0.0676917
-0.473234
0.318595
-0.0225197
-0.292235
-0.15003
0.00262225
-0.282147
0.354142
-0.333046
0.096909
-0.185853
-0.1158
-0.513427
0.317285
-0.0169247
-0.0301605
-0.27409
0.0125409
-0.105981
-0.496036
0.0266837
-0.0131472
-0.321633
-0.0232551
-0.0318031
-0.297383
0.0695337
-0.0264886
-0.23479
-0.268802
-0.0112964
-0.0221346
0.0267426
-0.045309
-0.454699
-0.39772
0.435575
-0.499458
0.00842442
-0.337531
-0.514904
-0.201499
-0.253184
-0.366441
-0.426514
-0.0327301
-0.205133
-0.0246524
-0.513566
-0.0615506
0.426224
-0.323838
-0.105567
0.0131091
-0.252013
-0.309711
-0.286981
-0.161014
-0.512099
-0.490004
-0.0298435
-0.222475
-0.0176422
-0.522362
-0.233897
-0.000170641
-0.472239
0.0165046
-0.425213
-0.0760377
0.0126601
-0.0566464
-0.137987
-0.054155
-0.13409
-0.508325
-0.230779
0.355048
0.000276127
0.2957
0.335205
-0.00501055
0.00991439
0.0248729
0.0175987
-0.323972
-0.0118312
0.0174708
-0.0251333
-0.446746
0.00994772
-0.188571
-0.151865
-0.50743
-0.408815
-0.164252
-0.479159
-0.197508
0.00782307
-0.384468
-0.0993864
-0.114523
0.00569304
-0.399699
-0.240445
-0.155255
0.00675248
-0.333579
0.0943681
-0.101636
-0.283351
-0.0360825
-0.184313
-0.0317155
-0.0149041
-0.432259
-0.247176
-0.245008
-0.303842
-0.507452
-0.283466
-0.477326
-0.377309
-0.0388841
-0.252156
-0.0386835
0.0116084
-0.442833
-0.248071
-0.0407744
-0.271188
-0.197861
-0.366831
-0.0053397
-0.297759
-0.501648
-0.416206
-0.201093
0.0107696
0.00144372
-0.0328739
-0.0987459
-0.0328066
-0.203004
0.438788
-0.0278201
-0.520051
-0.139992
-0.267335
-0.478066
-0.0441992
-0.226049
-0.264632
-0.298822
-0.263675
-0.374069
-0.168642
-0.213276
0.434341
-0.159654
-0.276827
-0.036175
-0.468511
-0.148906
-0.0538106
-0.0920775
-0.0922325
-0.3727
-0.423969
-0.0278213
-0.0394844
-0.230764
-0.479938
-0.0121596
-0.199523
-0.0933617
-0.389096
-0.0264575
-0.445678
-0.396658
-0.0990135
-0.0617476
-0.165421
-0.414339
-0.520331
-0.0116005
-0.428913
0.502232
-0.498934
-0.0540557
-0.522133
-0.470761
-0.199099
-0.023164
-0.018277
-0.139731
-0.435417
-0.0408628
-0.0216521
-0.0204354
-0.0208961
-0.456557
-0.440676
-0.197293
-0.427326
-0.0230941
-0.0287183
-0.327376
-0.450735
-0.176976
-0.0571039
0.0164492
0.0333554
-0.497296
-0.520553
-0.00394638
0.030371
-0.18779
-0.169702
-0.174582
0.00347979
-0.0505582
-0.0778924
-0.272152
-0.12676
-0.435061
-0.389816
-0.311111
-0.439117
-0.280763
-0.00213371
-0.424201
0.03353
-0.0147321
-0.10959
-0.464988
-0.0693777
-0.0284325
-0.415716
-0.344065
-0.508742
-0.312907
0.0994938
-0.202956
0.0136192
-0.473286
-0.393806
-0.292591
-0.0307276
-0.159244
-0.434125
-0.36928
-0.459279
-0.268416
-0.315417
-0.00273316
-0.0924153
0.00506623
0.066293
0.265486
0.0540859
-0.237241
0.33446
-0.295126
-0.520744
-0.055966
-0.262767
-0.387588
-0.0275134
0.0472887
0.294084
-0.441873
-0.39294
-0.422875
-0.0396997
-0.238387
-0.142822
-0.0284419
-0.154344
-0.246122
0.154963
-0.321741
-0.185397
-0.368493
-0.159325
-0.472196
-0.0958087
-0.379339
0.00646893
-0.00364982
-0.349778
-0.440804
0.397777
-0.0966533
-0.0270967
0.0293906
-0.132539
0.481127
-0.169663
-0.0960264
-0.224067
-0.247772
-0.0258919
-0.401052
-0.165226
-0.158316
-0.00871454
-0.36232
-0.0910254
-0.507644
-0.241628
-0.0788765
-0.160896
-0.024911
-0.0515002
-0.0596881
-0.0661976
0.126405
-0.439429
0.022458
-0.239943
-0.0257628
-0.370641
0.388169
-0.268166
-0.0673599
0.114567
-0.0206607
-0.126957
-0.120626
-0.473387
0.0108414
-0.454023
-0.129557
-0.247225
-0.286707
-0.439857
-0.10612
-0.017303
-0.375592
-0.46006
-0.0120832
-0.10768
-0.399966
-0.413489
-0.318165
-0.0124355
-0.0636116
-0.356465
-0.10672
-0.284083
-0.203419
-0.0523286
-0.211279
-0.284571
-0.0662828
-0.0848476
-0.019417
-0.271661
0.0124986
0.00738425
-0.509486
-0.000628857
-0.439196
-0.123998
0.166596
-0.019913
-0.0792977
0.00112617
-0.258459
-0.0245919
-0.175612
-0.0929084
-0.498462
0.131628
-0.452701
-0.0316012
0.0133022
-0.271795
-0.20747
-0.310149
-0.436337
-0.249778
0.0216962
-0.44084
0.41727
-0.163258
-0.433055
-0.237424
-0.167446
-0.147095
-0.128508
-0.371096
0.0102721
-0.245455
0.40478
-0.244268
-0.0948148
-0.25106
-0.0283605
-0.0584129
-0.126554
-0.18675
-0.0885927
0.00490756
-0.0236303
-0.244459
-0.103213
-0.288646
0.0208376
0.0195345
0.0132372
-0.0438518
-0.045423
-0.0837953
-0.018433
-0.445511
-0.159389
0.399414
-0.030981
-0.000745482
0.174575
-0.270389
0.0709128
-0.49819
-0.232411
-0.511419
-0.129612
-0.347853
-0.0847057
0.00622683
-0.0214583
-0.0608801
-0.517877
-0.00133583
-0.437346
-0.0853138
-0.515693
-0.0161836
-0.242667
-0.2425
-0.0427115
-0.0123217
-0.162912
0.0349652
0.0177736
-0.492581
-0.0270301
0.0252541
-0.141239
-0.0193657
-0.038186
-0.0977409
0.139535
-0.308755
-0.136948
-0.0661393
-0.0271598
-0.370337
-0.0553781
-0.00678996
-0.0320716
-0.494325
-0.392762
-0.498834
0.0922487
-0.0965615
-0.0311831
-0.0384229
-0.163521
-0.143888
-0.306747
0.100722
-0.284843
-0.048439
0.0382005
-0.496872
0.0175856
-0.151128
-0.00974651
-0.0156261
-0.175791
0.227152
-0.0809494
-0.43139
-0.148516
-0.293464
-0.00286065
-0.047854
-0.186377
-0.441281
-0.0114133
-0.426154
-0.0473315
-0.180616
-0.0578612
-0.0600016
-0.440844
-0.0674849
-0.138806
-0.18904
0.0148047
-0.0423735
0.0437772
-0.0190033
-0.0842489
0.183083
-0.0649987
-0.0550499
-0.383846
-0.406966
-0.162706
-0.19862
-0.275012
-0.127103
-0.0456512
0.130177
-0.429631
-0.189313
0.0161688
-0.0596628
-0.43245
-0.196366
-0.500664
0.0141009
0.0728246
-0.27876
-0.183195
-0.0842908
-0.521999
0.44377
-0.0197336
-0.362754
-0.0219322
-0.0658832
-0.0313245
-0.455379
-0.0449351
-0.0635866
-0.0465231
-0.135673
-0.0990157
-0.396321
0.283975
-0.0606072
0.165121
-0.00509234
-0.500274
-0.015307
-0.0658251
0.0239443
-0.18932
0.0246276
-0.368082
-0.133334
-0.276149
0.110179
-0.272303
-0.510353
0.00593204
-0.240281
-0.521664
-0.509466
-0.170507
-0.38162
-0.518206
-0.36385
-0.0209913
-0.183484
-0.181469
-0.238249
-0.0531464
-0.042631
-0.00925196
-0.00473092
-0.136356
0.107528
-0.28524
-0.0425835
0.027386
-0.518236
-0.125307
0.0442862
0.202373
-0.153912
-0.0747085
0.068349
0.205782
0.0560134
-0.0999656
-0.147225
-0.499145
0.488167
-0.057432
-0.408583
-0.338383
-0.520579
-0.432149
-0.159063
-0.0282205
-0.0863409
-0.0463449
-0.0408934
-0.0480089
-0.0387763
-0.0804472
-0.141241
-0.520167
-0.310104
-0.0644351
-0.3415
-0.473823
-0.169804
0.0421487
-0.386909
-0.053214
0.0170319
0.181011
-0.520179
0.0275848
-0.00763576
-0.263729
-0.275761
-0.375824
-0.317338
-0.249096
-0.0157239
-0.38687
0.0423774
-0.00951821
0.0466615
-0.205432
-0.498365
-0.0566693
-0.0429146
-0.00982812
-0.398234
-0.0421487
-0.16228
0.0341373
-0.0303205
-0.383756
-0.0614717
-0.26457
-0.25729
-0.237656
-0.0556858
-0.154369
-0.0563004
-0.444145
-0.471252
0.0164483
-0.497739
-0.281316
0.452295
0.0258865
-0.14021
0.0262235
-0.138083
-0.15999
-0.318116
-0.234295
-0.175718
-0.164096
-0.447839
-0.0260278
-0.407045
-0.0599543
-0.0316568
-0.272064
0.0102955
0.0257599
-0.0627753
-0.0719495
-0.519625
-0.0411387
-0.00065345
-0.214957
-0.212941
-0.227245
0.424024
-0.155621
-0.520392
-0.137911
-0.192253
-0.125439
-0.378523
-0.16632
-0.515513
-0.206958
-0.124546
-0.0617139
-0.13776
-0.174245
0.0526212
-0.337673
-0.181194
-0.0793414
-0.138913
-0.0736911
-0.163235
-0.0108456
-0.233679
0.285387
-0.0237222
-0.267119
-0.0580315
-0.0212598
-0.024914
0.116369
-0.256173
-0.105552
-0.0747714
-0.0565964
0.236365
-0.26151
-0.431634
0.0167531
-0.0427997
-0.245118
-0.00791192
-0.324984
-0.263773
-0.0792299
-0.324116
-0.0572225
-0.508405
0.0504156
-0.155157
-0.323786
-0.396563
-0.0132351
-0.0223561
-0.134104
-0.0100377
-0.0190701
-0.520085
-0.456215
0.0901959
-0.155056
-0.0101228
-0.0744398
-0.211374
-0.0628323
-0.042331
-0.367022
-0.059611
-0.3549
0.00302904
-0.0415232
-0.00429269
-0.158872
-0.200237
0.0253639
0.0072029
-0.0150841
0.0107015
-0.0158504
0.392939
-0.263608
-0.0111507
-0.39491
-0.0264937
-0.415078
-0.281495
0.343591
-0.0556886
0.0397141
-0.00810134
0.0125484
0.0252989
-0.206559
-0.505047
0.0638677
-0.267853
0.464158
-0.232146
-0.155586
-0.0971674
0.413751
-0.238013
-0.0319679
-0.464172
-0.323272
-0.180235
0.00184594
-0.372569
0.209405
-0.0534545
-0.102881
-0.51513
-0.0775204
-0.0286906
-0.0900524
-0.332951
-0.148628
-0.34931
-0.0399952
-0.449019
-0.136974
-0.153325
-0.353215
-0.411138
-0.149654
-0.0559762
-0.0303987
-0.274395
-0.00376567
0.0591641
-0.035741
-0.0538551
-0.0468009
0.0540181
-0.208757
0.416409
0.1032
0.275025
-0.156837
-0.142712
-0.0505256
-0.383228
-0.185591
-0.0440775
-0.0200931
-0.163616
-0.518104
0.023239
-0.286791
-0.244395
-0.147381
0.0313163
-0.0936652
-0.061805
-0.338965
-0.0695532
-0.0189208
-0.503594
-0.172578
-0.0261156
-0.431338
-0.178942
-0.492463
-0.00356163
-0.130198
-0.209915
-0.422228
-0.162563
0.188825
-0.110168
0.00572447
-0.0680533
-0.0391611
0.0253021
0.0560309
-0.105923
-0.0110029
-0.250223
-0.0189587
-0.145101
-0.0586485
-0.243879
-0.219212
-0.457195
0.00541147
-0.417235
-0.0677998
-0.237323
0.0167092
0.112262
0.0154114
-0.306621
-0.441216
-0.172115
-0.012288
-0.313369
-0.0193187
-0.117526
-0.440758
-0.0634503
0.0486496
-0.206923
-0.154292
-0.261198
-0.0100126
-0.000906858
-0.086529
0.00443154
0.113245
-0.0242388
-0.0334462
0.0565243
-0.42071
-0.0892944
-0.310314
-0.39461
-0.248459
-0.198294
-0.0856013
-0.0331126
0.00544515
-0.46171
-0.092831
-0.069534
-0.188035
-0.471617
-0.0217688
-0.503164
-0.273628
-0.286478
-0.0442012
-0.0415957
-0.160765
0.0450621
0.0163179
0.172618
-0.0524164
0.0725039
-0.125578
-0.210043
0.434125
-0.23702
-0.100479
-0.230368
-0.148786
-0.126368
-0.163479
0.13206
-0.520606
-0.206914
-0.520818
0.0903702
-0.484268
-0.504628
-0.0543051
-0.0103573
-0.0161652
-0.0864705
-0.200948
-0.0593011
0.0921357
-0.152648
-0.0965376
0.0484156
-0.406678
0.117182
-0.115719
-0.409496
-0.0833019
-0.205374
-0.108763
0.0778593
-0.0237468
-0.449704
-0.505699
-0.0210421
-0.0896133
-0.138704
0.115283
-0.521001
-0.0169542
-0.0606872
-0.289656
-0.0915924
0.136681
-0.500377
0.0277664
-0.254122
-0.120042
-0.0421556
-0.0248412
-0.169401
-0.511892
-0.0554245
-0.106732
0.0105107
-0.0834826
0.193729
-0.381676
0.0327059
0.369628
-0.345891
-0.158504
-0.424276
-0.0902005
-0.155394
0.0400895
0.108855
0.0183901
-0.201695
-0.385357
0.0533313
0.165366
-0.310042
0.481276
0.408479
0.107863
0.0050886
0.0238645
0.0324831
-0.504133
-0.238704
-0.109857
-0.0915729
-0.110044
0.0038467
-0.00788136
0.0331303
-0.229926
-0.134498
-0.390233
0.107277
-0.508042
-0.136831
-0.00171925
-0.235961
-0.0299589
-0.0315194
-0.447703
-0.0337436
-0.0450619
-0.228577
-0.318831
0.267538
-0.138463
-0.27991
-0.0520393
-0.326213
-0.0427162
-0.0759428
0.0348431
0.0164448
-0.0676824
-0.336364
-0.466456
-0.0598941
-0.190384
-0.0406138
-0.0557902
-0.0451451
0.396131
-0.108387
-0.107112
-0.523546
-0.0654923
-0.310895
-0.164116
-0.012228
0.100235
-0.0174424
-0.126837
-0.290284
0.0361216
-0.184566
-0.245988
0.222717
0.00445401
-0.502349
0.0753832
0.425654
-0.0856909
0.121426
-0.463441
-0.0554073
0.271518
0.0238723
-0.270503
0.196306
-0.0124827
-0.521199
-0.00151735
-0.313652
-0.261328
0.341946
-0.0187427
0.0381137
0.0319189
-0.307294
0.0335422
-0.191065
0.0631805
-0.204767
-0.0523135
-0.193602
0.0275132
-0.13872
-0.255657
-0.0307234
-0.03686
0.456392
-0.0915372
-0.138516
-0.0774261
-0.204706
-0.154646
-0.132751
-0.00468795
-0.0145211
0.025446
-0.0392994
-0.333654
0.00278332
0.206764
-0.0866388
-0.0120291
-0.445951
-0.108041
-0.125574
-0.150623
0.0263111
-0.505765
-0.23145
-0.122536
0.496592
-0.391951
-0.463944
-0.232548
-0.501131
-0.0231532
-0.259814
-0.518798
0.447144
-0.00623491
0.0495403
-0.247385
-0.182476
-0.194071
-0.438901
-0.0726701
0.0891094
-0.210654
-0.172614
-0.503594
-0.19116
-0.290464
-0.0429499
-0.253752
-0.15589
-0.00589929
-0.338499
-0.494713
0.0227784
-0.357116
-0.00395195
-0.0651427
-0.34585
-0.386558
-0.0267627
-0.0741826
-0.0674587
-0.0592976
-0.100602
-0.344892
-0.0936433
-0.012512
-0.00868171
-0.162337
-0.120065
-0.1124
-0.460994
0.0246083
-0.408506
-0.522527
-0.348358
0.0615318
-0.24316
-0.370004
-0.182282
-0.178639
-0.322508
-0.505968
-0.0270142
-0.497097
-0.167606
-0.0322868
0.00312756
-0.324361
-0.508613
-0.511104
-0.060938
-0.0158453
-0.240274
-0.479077
-0.502562
-0.0790819
0.0842935
0.511273
0.0095146
-0.275443
-0.517079
-0.269379
-0.48922
0.0314481
-0.0145997
-0.0245207
0.101676
-0.287012
-0.184305
-0.123013
0.0682952
-0.16888
-0.511138
-0.159962
-0.430312
-0.51794
-0.228881
0.417162
0.0197792
-0.00731604
-0.209151
-0.0406187
-0.0532757
-0.00240145
0.512993
-0.200311
-0.516771
-0.365
0.00832887
-0.435999
-0.186625
-0.0454828
-0.521929
0.186178
0.108602
-0.0747449
-0.503989
-0.492705
0.0224689
-0.484178
-0.337293
-0.520609
-0.473838
-0.254101
-0.0179287
-0.0799035
-0.412417
-0.122807
-0.236543
-0.195841
-0.499539
-0.369385
0.0581008
0.0505425
-0.0245027
0.0388548
-0.51544
-0.207521
0.031011
-0.520702
-0.195286
-0.0140689
0.0564473
-0.0148381
-0.363809
-0.0653431
0.485507
0.0614456
-0.0206974
-0.0256573
0.323057
-0.383458
-0.205927
-0.0473463
-0.200353
0.0277425
-0.0937112
-0.145047
-0.504284
-0.204844
-0.501909
-0.0366368
-0.0256374
-0.0214749
-0.162501
-0.024645
-0.0242864
-0.33672
-0.236215
-0.32137
-0.0533296
-0.483089
-0.198824
-0.0122259
-0.515318
-0.293205
-0.16525
0.449491
-0.022851
-0.520642
0.0657874
0.0327224
0.073982
-0.0403444
-0.221113
-0.0308518
-0.0849906
0.156165
-0.142897
-0.204159
-0.00342875
-0.0186096
-0.0857316
-0.0540872
-0.358988
0.0513672
-0.311802
-0.107348
-0.382283
-0.0885938
-0.286308
-0.0375026
-0.45707
-0.0735839
-0.0413252
-0.520782
0.292626
0.344047
-0.268348
0.14446
-0.208815
0.0324027
-0.487924
0.0324407
-0.0236591
0.333883
-0.152894
-0.517887
-0.517773
-0.345893
-0.470993
-0.361615
-0.479343
-0.0408457
-0.123141
-0.148857
-0.430302
0.104392
-0.467482
-0.250741
-0.0770015
0.0426936
-0.00792913
-0.410466
0.49178
-0.104015
0.00499028
-0.00769719
-0.117908
-0.2046
-0.451203
-0.223144
-0.0130664
0.420961
-0.308736
-0.433735
-0.291122
-0.0425653
-0.0987116
-0.434685
-0.0245041
-0.32037
-0.254776
0.00878788
-0.0848926
-0.34415
0.357935
0.038016
-0.289535
-0.108144
-0.399882
-0.136119
0.0264911
-0.0933614
-0.495445
-0.0261906
0.0201071
0.49728
-0.514067
-0.240116
-0.263555
-0.125348
0.0795498
0.0217967
-0.515309
-0.139235
-0.0691364
-0.16347
-0.0106154
-0.0106188
0.509415
0.0182596
-0.0135439
-0.00418069
-0.284584
0.0530196
-0.113705
-0.232602
-0.395169
-0.351883
0.024507
-0.0952553
0.177765
-0.406955
-0.304356
0.132228
-0.356972
-0.281801
-0.432822
-0.0105802
-0.489982
-0.189868
-0.0111215
-0.104367
-0.0398802
0.454159
-0.329441
-0.0732815
0.503413
-0.454254
-0.0297752
0.0507219
-0.136853
-0.249029
-0.156377
-0.0415892
-0.510148
-0.135737
0.403748
0.00240159
-0.425777
-0.152069
0.106439
-0.511264
-0.13629
-0.0394941
-0.159575
-0.394991
-0.177266
-0.168322
-0.479968
-0.0379778
-0.451114
-0.0604288
-0.518712
-0.038045
0.257306
0.0586001
-0.0195208
-0.345887
-0.407637
-0.388173
-0.351218
0.00550962
-0.242713
-0.0276524
-0.502311
-0.211028
0.0343535
-0.057552
0.160048
-0.0630356
-0.23406
-0.309703
-0.487677
-0.247424
-0.076014
-0.0756074
-0.369107
0.05505
-0.243589
-0.0393179
-0.0049453
-0.438523
-0.413797
-0.370529
0.289194
-0.00831334
-0.420245
-0.0301195
0.0655554
-0.516652
-0.521664
0.0171823
0.00850187
-0.152446
0.0936356
0.0474217
-0.347034
-0.444536
-0.0518806
-0.0409025
0.0223433
-0.0148471
0.238949
-0.0568138
-0.147925
-0.332935
-0.14672
-0.0465904
-0.150114
-0.483342
-0.184449
-0.082981
-0.521143
0.00949709
-0.436354
0.155824
0.190056
-0.0653921
-0.478596
-0.518551
-0.164064
-0.0211683
-0.238437
-0.0568553
0.10297
0.0395641
-0.14659
0.0403453
-0.49365
-0.208494
-0.236831
0.0237334
-0.409144
-0.144432
-0.00999653
0.433143
-0.0402485
-0.124051
-0.185624
0.0374989
-0.512613
-0.0200702
0.454749
0.0306229
-0.0153048
-0.521026
-0.277704
0.0747562
0.168467
-0.166942
-0.219018
-0.196956
-0.128159
0.00562312
-0.126954
-0.263954
0.0731107
-0.160321
-0.00697824
-0.245559
-0.151748
-0.0910009
-0.348999
-0.0395565
-0.2525
0.088216
-0.497838
-0.500189
-0.506576
-0.491917
-0.431026
0.0489671
-0.0720657
-0.308044
0.054797
0.0344142
-0.500865
-0.390952
0.053602
-0.108136
-0.134261
-0.138696
-0.173905
-0.434134
-0.012436
-0.125408
-0.165076
0.0123442
-0.00697489
-0.207366
-0.0461989
-0.176116
0.0414273
-0.364099
-0.160858
-0.209436
-0.299445
-0.404453
-0.312532
-0.034564
-0.205327
-0.275486
-0.513994
-0.0841552
-0.186665
-0.157446
0.506287
0.0318505
0.0120925
-0.31776
-0.15814
-0.521903
-0.488706
0.152099
-0.448302
-0.0265047
-0.0468355
-0.476857
0.283543
0.00332638
-0.390305
-0.109056
0.057088
0.0254855
-0.27179
-0.0552745
-0.405569
-0.336559
-0.51743
-0.390331
-0.122574
-0.224333
-0.520712
0.00430143
0.0186769
-0.256515
-0.0377219
0.175798
-0.51943
-0.216535
-0.292285
-0.210456
-0.0860832
-0.409513
-0.0422144
-0.236268
0.00822388
-0.510386
-0.0526867
-0.0039335
-0.259377
-0.34745
-0.0146352
0.00469216
-0.504245
0.0442106
-0.316353
-0.0460223
-0.506115
-0.476005
-0.282909
0.307869
-0.019095
-0.152241
-0.236398
-0.208246
-0.0451003
-0.0852563
-0.0140235
-0.205873
0.0221468
-0.21124
0.0512638
-0.0516026
-0.497037
-0.0493129
-0.111763
-0.121515
0.00292164
-0.263783
-0.0439879
-0.0852857
-0.368028
-0.152618
-0.146042
0.0356049
-0.498497
-0.154442
-0.389719
-0.0409923
-0.261504
-0.075549
-0.212075
-0.235477
-0.216958
-0.423454
-0.434846
-0.415412
-0.436362
0.115419
-0.242316
-0.000417593
-0.482189
0.0691888
-0.0738886
0.0265501
-0.207644
-0.059389
-0.420248
-0.240019
-0.259877
-0.467101
0.34537
-0.0118616
-0.417554
0.146743
0.0503192
0.0638798
0.0234032
-0.317966
0.0296886
-0.218191
-0.0478462
-0.142778
-0.488984
-0.0974751
0.019012
0.0252061
-0.426528
-0.0398371
0.00875653
-0.127886
-0.0789443
-0.127675
-0.0181612
-0.1715
0.328402
0.090765
-0.438527
-0.517988
-0.260137
-0.459245
-0.0362575
0.00608125
0.00595615
-0.0862611
0.124906
-0.176892
-0.295363
-0.0412816
0.0311206
-0.158862
-0.373696
-0.0414838
-0.035472
0.106151
-0.517066
-0.186874
-0.118705
-0.12077
0.0114632
-0.447442
-0.232745
0.314232
0.161629
-0.00687981
0.0573927
-0.187041
-0.434012
0.0576854
-0.0696205
-0.109157
-0.258327
0.0437659
-0.514184
-0.000145093
-0.31994
-0.0606601
0.136404
-0.0321801
-0.017123
-0.379902
-0.491721
0.274949
-0.13089
-0.519457
0.0261745
-0.389705
-0.159031
-0.0351725
-0.361406
-0.287955
-0.294392
0.021817
-0.199857
-0.520051
-0.0695564
-0.0227855
-0.216184
-0.145765
-0.002521
-0.0503187
-0.0720391
-0.113005
-0.307219
-0.410983
0.321652
-0.29456
-0.03732
0.00468094
-0.260495
-0.0424961
-0.175761
0.120663
-0.069441
-0.245056
0.00597019
0.00930298
-0.43612
-0.012064
-0.489937
0.010697
-0.459567
-0.24002
-0.325028
-0.00959242
-0.00958583
-0.435829
-0.0407219
-0.0828328
0.0519839
-0.339432
-0.483461
-0.18153
-0.265682
0.029024
-0.373671
0.0665546
-0.242802
-0.061237
0.0127882
-0.521155
-0.297112
-0.480105
-0.0724429
-0.262905
-0.25325
-0.521445
-0.390638
-0.42314
-0.184496
-0.0418727
-0.443644
-0.0610312
-0.0603346
-0.406474
-0.232477
0.0709097
0.254178
0.044256
-0.0383446
-0.125082
-0.445452
-0.112906
-0.0115673
-0.522159
0.0235699
-0.043711
-0.167323
-0.0146702
0.00687126
-0.363295
-0.308255
-0.515252
-0.0425172
0.0611038
-0.0166207
0.357963
-0.0368438
0.464854
-0.360132
-0.232171
-0.145881
-0.499363
0.149951
-0.459524
0.484603
0.0115796
0.0332979
0.0804163
0.114892
0.499835
-0.390392
-0.511264
-0.19679
0.515062
0.0111162
-0.279412
-0.0159412
-0.51966
-0.155292
-0.0978493
-0.102406
-0.0791963
-0.0308192
-0.303675
-0.510497
-0.0359601
-0.0926151
-0.0257256
-0.419498
-0.0911699
-0.478147
-0.135695
-0.484333
0.022918
-0.0303174
-0.343418
0.441107
0.017705
-0.187227
0.00732224
-0.337354
0.126736
-0.32004
-0.220679
-0.508857
-0.0402276
-0.0621321
-0.21986
-0.147034
-0.128969
-0.137804
-0.0151011
-0.127936
0.0122632
-0.022018
-0.0795717
0.00667297
-0.504473
-0.358267
-0.351236
-0.145556
-0.44253
-0.458734
-0.0397172
-0.169606
-0.0411335
0.497424
-0.0709725
0.0293788
0.0115971
-0.0184524
-0.0577028
-0.281415
-0.0888465
0.396687
-0.0516652
0.168549
-0.0377891
0.467487
0.00118592
-0.174969
-0.163575
-0.196019
-0.512696
-0.0182123
-0.259738
-0.262514
-0.0479402
-0.0408066
-0.00832481
-0.187304
-0.50515
-0.071573
-0.0561349
-0.364281
-0.288868
0.200935
-0.324735
0.0114599
-0.290833
-0.168929
-0.0387126
-0.385022
-0.0834959
-0.193141
0.0267133
-0.0742906
0.00690179
-0.361584
-0.233902
-0.0404215
0.367606
-0.260755
-0.014961
-0.0552711
-0.0277478
0.392582
-0.37382
-0.254448
-0.102601
-0.192865
0.000733479
0.017382
-0.0970021
-0.0122552
-0.352384
0.0260258
-0.186049
-0.463185
-0.163327
-0.0391038
-0.157691
-0.26315
0.00149187
-0.27559
-0.170182
-0.342061
0.100372
-0.517399
-0.25584
-0.0173098
-0.315223
-0.316003
-0.115805
-0.47884
-0.183169
-0.118852
-0.347355
-0.0236016
-0.294855
0.271305
-0.28042
-0.014971
-0.0061751
-0.0404281
0.176526
-0.193652
-0.200574
-0.451124
-0.521617
-0.141792
0.00708764
0.512676
-0.224186
-0.372433
0.0123347
-0.0176549
-0.233833
-0.219621
0.0125762
-0.179547
-0.492332
-0.388718
-0.496466
0.353017
-0.370222
-0.160842
-0.474543
-0.0467975
-0.433934
-0.38796
-0.0696229
-0.0832261
-0.0322117
-0.509063
-0.324903
-0.347113
-0.0760711
-0.50452
-0.0570338
-0.422775
-0.217901
0.0107803
-0.1822
-0.459911
-0.271958
-0.25105
-0.0849015
0.0132609
0.0528652
-0.178092
-0.20364
-0.490957
-0.374819
-0.0452581
-0.520118
-0.350369
-0.154628
-0.0164097
-0.00800048
-0.136233
0.410723
-0.00949696
-0.236949
0.310577
0.189376
-0.169297
-0.2752
-0.4934
-0.39874
0.0204551
-0.0500197
0.298775
-0.212861
-0.506204
-0.0666085
0.149151
0.316231
0.40714
-0.0761369
0.00568137
0.330855
-0.413572
-0.500057
0.37182
-0.138961
-0.0103934
0.423658
-0.403429
0.0372196
0.288147
-0.331325
-0.0410664
-0.348061
-0.357269
0.426535
0.00906354
-0.129609
-0.324392
-0.509845
-0.0435736
-0.105827
-0.0316206
-0.0853797
-0.0302646
-0.21606
-0.00718729
0.0703077
0.407181
-0.180188
-0.387428
0.0647132
-0.116978
-0.084741
-0.48696
0.277405
-0.51611
-0.0635486
0.10206
-0.516099
0.342553
0.0360216
0.0499956
-0.422277
-0.350961
-0.434784
-0.0168728
-0.0236754
-0.0315932
-0.397132
-0.0140921
0.437029
0.473302
0.386275
-0.111502
-0.424691
-0.51233
-0.0279169
-0.482925
-0.00595662
0.216461
-0.0379442
-0.0659241
-0.251958
-0.469132
-0.0140215
-0.52063
-0.334088
0.334328
-0.389689
-0.0381722
-0.00841968
-0.166358
-0.089882
-0.510325
-0.5078
-0.00525011
-0.360943
-0.0215397
-0.0549856
-0.0609342
0.0250657
-0.512856
-0.10259
-0.505182
0.287913
-0.0766576
0.452311
-0.48522
-0.188683
-0.511012
-0.107613
-0.0610109
0.0179103
-0.089665
0.473169
0.334955
-0.458435
0.0165613
-0.0846427
0.0883251
-0.0124144
-0.216948
0.0702479
0.141541
0.211665
0.0115446
-0.0337162
-0.0434966
-0.23337
-0.037023
-0.0428646
0.323098
0.0170809
-0.0254269
-0.213322
-0.0277289
-0.462245
-0.198008
0.490816
0.018479
0.302106
-0.000359063
-0.23899
-0.0895023
-0.0866403
0.107841
-0.506618
-0.1945
0.319455
-0.0767488
-0.16824
-0.206091
-0.158727
-0.455155
-0.00963167
-0.458388
-0.308213
-0.0438434
0.267957
-0.426981
0.331188
0.0118327
-0.249826
0.466206
-0.423441
-0.38379
-0.0727108
-0.357598
0.0300099
-0.0148326
-0.156669
-0.295396
-0.0089255
-0.189926
-0.516116
-0.225686
-0.518267
0.396275
-0.503367
-0.434608
-0.042117
-0.101778
-0.0516531
0.111215
-0.408405
-0.438869
0.029165
-0.0415547
-0.0526763
-0.49386
-0.196775
-0.229906
-0.21633
0.350513
-0.519121
-0.485049
-0.00960575
-0.522741
0.029418
0.0971631
0.119367
-0.225351
-0.258884
0.0969301
-0.0869568
0.245417
-0.144676
-0.222014
-0.502256
0.169962
-0.133158
-0.15745
0.0251169
0.487655
-0.254997
0.0507763
-0.514177
-0.514359
-0.166303
0.098111
-0.179147
-0.513891
-0.00641136
-0.0616805
-0.040157
-0.0384053
0.0599462
-0.519405
0.0200366
-0.359753
-0.0194544
-0.0671364
0.467696
-0.0766052
-0.0406979
0.00196551
0.0195079
-0.378918
-0.0517155
-0.519715
-0.0716027
-0.100007
-0.086728
0.0527692
0.374915
-0.0525342
-0.00614358
-0.0482114
-0.134252
0.288386
-0.117693
-0.21503
-0.0245681
0.0594755
-0.164638
-0.459185
0.0692138
0.00237813
-0.0576634
-0.0476369
-0.455914
-0.0228999
-0.0577604
-0.120144
-0.490448
-0.0207796
0.16429
0.0123605
-0.00236751
-0.292411
-0.5205
-0.265922
-0.302944
-0.12064
-0.20159
0.0373827
0.345415
-0.440262
-0.0826009
-0.359598
-0.145404
-0.273056
0.0197659
0.0177688
0.498833
-0.112308
-0.377957
-0.358838
-0.0507822
0.00428991
-0.522285
-0.131749
-0.195611
0.0158416
-0.0161451
-0.518366
-0.408133
-0.0440606
-0.0111784
-0.0712997
0.00274038
0.00824765
0.0304799
0.175428
-0.399849
-0.0235732
0.0353666
0.454138
-0.00726883
-0.371703
0.0167116
-0.0700109
-0.141866
-0.0173598
-0.285441
0.0419564
0.25529
-0.00484897
-0.0654988
-0.496717
-0.512459
-0.0136627
-0.197022
0.194507
-0.0156898
0.0769915
-0.00927739
-0.0863372
-0.429619
-0.336778
-0.133392
-0.321964
-0.086066
-0.510765
-0.308136
-0.0751844
-0.455009
0.0505809
-0.302162
-0.354304
-0.17644
-0.496762
-0.427675
-0.218681
-0.0545674
-0.117009
0.0999365
-0.0508186
-0.0577942
-0.161595
0.29802
-0.0555742
0.0957844
-0.256841
0.0302051
0.427122
-0.21493
-0.13392
-0.437128
-0.505405
0.167241
0.104726
-0.176248
-0.518939
-0.329896
0.0587548
-0.0518043
-0.0328002
-0.0477806
-0.160223
-0.287217
-0.310435
-0.059896
-0.487155
-0.013148
-0.145607
-0.178708
0.32168
-0.324707
0.329031
0.357273
0.0480002
0.162527
-0.0267596
0.0734678
-0.00623655
-0.0763586
-0.18222
-0.21713
0.00272042
0.0957636
-0.419104
-0.0291418
-0.0606483
0.103052
-0.519154
-0.348653
-0.340756
0.203483
-0.0100901
-0.131947
0.192147
-0.0877683
0.0226228
-0.0331032
-0.0721042
0.0284435
-0.119675
-0.381044
-0.0270289
-0.0493094
0.22195
-0.0237089
0.0905259
0.130175
0.0162004
-0.005291
-0.519331
-0.0427738
0.0119249
-0.0434301
0.051754
-0.0433398
-0.504735
-0.104175
-0.388704
-0.0193901
-0.0624683
-0.0730096
-0.488842
-0.150247
0.0339799
-0.0521742
-0.379254
0.103243
-0.265419
-0.0265946
-0.374889
-0.0158453
-0.0429272
-0.48988
-0.0611316
0.0367959
0.013502
-0.07107
0.080983
0.0289385
-0.00782036
0.31026
0.503116
-0.520059
-0.14708
-0.519517
-0.0371153
-0.497349
-0.017658
-0.17746
-0.520099
-0.0302114
-0.517097
-0.0169795
-0.143392
-0.515769
0.423009
-0.436539
-0.348092
-0.337148
-0.141939
-0.5207
-0.332346
-0.128087
-0.161416