/*--------------------------------*- C++ -*----------------------------------*\
| =========                 |                                                 |
| \\      /  F ield         | OpenFOAM: The Open Source CFD Toolbox           |
|  \\    /   O peration     | Version:  v2012                                 |
|   \\  /    A nd           | Website:  www.openfoam.com                      |
|    \\/     M anipulation  |                                                 |
\*---------------------------------------------------------------------------*/
FoamFile
{
    version     2.0;
    format      ascii;
    class       volVectorField;
    location    "600";
    object      U_0;
}
// * * * * * * * * * * * * * * * * * * * * * * * * * * * * * * * * * * * * * //

dimensions      [0 1 -1 0 0 0 0];


internalField   nonuniform List<vector> 
13917
(
(1.05246 0.132018 -7.01084e-21)
(1.01108 0.0448799 -5.59689e-21)
(0.436086 -0.0033687 1.98397e-20)
(1.07571 0.0159301 0)
(0.995772 -0.00168614 3.31008e-21)
(0.361069 -0.0167343 3.14229e-19)
(0.384372 -0.00192095 2.91846e-21)
(0.446172 -0.0028368 9.03979e-21)
(0.378973 -0.016639 0)
(1.07765 0.160849 0)
(1.14245 0.0558735 5.02426e-20)
(1.13112 0.0348429 -1.33429e-21)
(1.07702 0.015664 1.25785e-22)
(0.0535624 0.00104191 0)
(0.954799 0.0825264 4.03802e-20)
(0.976842 0.0820446 -3.66864e-22)
(1.0045 0.0479264 0)
(1.10886 0.081646 -5.62617e-21)
(1.13051 0.0336526 -4.36715e-21)
(1.00088 0.00366575 -8.00209e-21)
(0.999943 0.000345745 -1.54236e-20)
(0.369589 -0.00255867 0)
(0.99986 0.00552803 -1.06421e-20)
(0.485808 -0.00231581 -1.1274e-22)
(0.992293 0.00977195 0)
(0.38112 -0.00164708 -3.02323e-21)
(0.780781 0.000579079 4.58565e-20)
(0.748469 0.0828687 -3.51669e-20)
(0.70146 0.494912 -1.23019e-20)
(1.12123 0.132534 -5.71687e-21)
(1.06486 0.127893 9.72394e-21)
(1.03256 0.0986284 2.71091e-23)
(0.83063 0.0402339 -1.48697e-21)
(0.910212 -0.0176634 -1.92885e-20)
(0.989188 0.00569675 -6.89065e-21)
(1.01619 0.0392817 -1.15783e-21)
(0.99987 0.00511545 -1.60945e-20)
(0.150279 -0.00547565 0)
(1.08683 0.0177752 1.45772e-20)
(0.185165 0.00528908 0)
(1.00786 0.000858526 -3.81932e-21)
(0.999988 0.000192484 9.01794e-21)
(1.02425 0.00567205 6.12908e-22)
(0.690484 0.156203 -8.79954e-20)
(1.03471 0.0364914 0)
(0.889994 -0.00644721 -2.38199e-20)
(1.1083 0.0799442 4.95468e-21)
(1.12145 0.0692289 -3.67704e-21)
(0.100698 0.0431162 -2.36626e-19)
(1.00284 0.000708402 -1.32691e-21)
(1.07989 0.0534802 6.79618e-21)
(0.963566 -0.00124766 0)
(0.0667209 0.00624418 2.93159e-19)
(0.905447 -0.017011 -2.20381e-20)
(1.0031 0.048643 9.09889e-21)
(1.06857 0.0690027 0)
(1.14153 0.0559638 -4.16387e-20)
(0.989674 0.0249425 7.33069e-23)
(1.05529 0.0675673 0)
(1.03338 0.0354116 0)
(0.742917 0.0901741 2.99202e-21)
(1.01251 0.0454175 9.72212e-21)
(0.0347892 6.78246e-05 0)
(1.00093 0.00398497 1.23771e-20)
(0.385598 -0.00287156 -2.20922e-19)
(1.15575 0.385639 6.02392e-20)
(0.995473 -0.00588019 1.50869e-20)
(0.988154 -0.00885354 -8.59388e-21)
(1.1357 0.0660698 1.03936e-21)
(1.02473 0.136374 0)
(0.996143 -0.00133136 0)
(0.421834 -0.0175645 1.37414e-20)
(0.0215752 -0.0137565 0)
(0.992906 0.00952784 -4.6643e-21)
(0.101265 0.11541 0)
(1.13827 0.0257697 5.65557e-21)
(0.0177456 -0.00741307 -2.37133e-20)
(1.04809 0.0457717 0)
(0.379255 -0.00110149 -1.2415e-20)
(0.999798 0.0008044 -5.9835e-22)
(0.999861 0.00176541 8.7533e-21)
(0.996021 -0.00553733 -8.51283e-21)
(0.401879 0.0609164 0)
(0.169321 -0.00651661 0)
(-0.00508863 0.000211439 -3.34204e-20)
(1.04778 0.0443348 -1.71787e-21)
(0.999997 0.00262433 9.03675e-21)
(1.20178 0.42111 0)
(1.07886 0.0526174 -9.84456e-21)
(1.02491 0.00589924 -8.15121e-22)
(0.0763237 -0.0139346 0)
(1.10433 0.153314 0)
(1.0187 0.0285929 6.55973e-21)
(0.963844 0.0439733 0)
(1.17604 0.42615 0)
(0.389698 -0.0754219 2.37115e-21)
(1.13379 0.0600529 -1.08832e-20)
(1.118 0.0725027 -2.61462e-20)
(1.15117 0.0355043 2.88657e-21)
(0.604335 0.0781689 -9.96657e-20)
(1.01047 0.00681665 -3.6092e-21)
(0.844922 -0.0260203 -3.729e-20)
(0.682014 0.141642 1.00078e-19)
(1.05822 0.0439962 0)
(1.01484 0.0151366 2.96752e-21)
(0.445218 -0.0133674 -3.30386e-20)
(0.776721 0.439965 -5.76067e-21)
(1.1227 0.0697219 2.14397e-20)
(1.00608 0.0490181 -7.20314e-21)
(1.06203 0.138558 8.97998e-21)
(-0.0450416 -0.0171351 0)
(0.192977 0.00621939 0)
(1.13837 0.0364198 -4.07248e-21)
(0.413535 -0.0158028 0)
(0.946624 -0.00490791 9.42925e-21)
(0.0959523 -0.214518 3.58067e-22)
(0.998384 0.0106619 0)
(0.199146 0.00778049 2.308e-19)
(0.145968 0.00372657 2.22656e-20)
(0.905077 -0.00427966 -4.60521e-20)
(0.999969 0.000370863 3.17148e-21)
(1.13502 0.0662864 0)
(0.135158 0.00227821 0)
(0.757816 0.0770628 2.68902e-20)
(1.0044 0.000668143 0)
(0.965636 0.0416608 -2.30686e-20)
(1.02868 0.0376146 0)
(1.00405 0.000524605 -6.2284e-21)
(1.0205 0.00331641 5.9504e-22)
(0.36308 -0.0629134 -1.56629e-19)
(0.202463 0.000355509 -1.96958e-20)
(0.949225 -0.00555369 7.32145e-21)
(1.0346 0.0375718 0)
(0.999961 0.00024882 1.50459e-20)
(1.19673 0.103288 3.06055e-20)
(0.495517 -0.00267274 0)
(1.04964 0.134913 0)
(0.580806 0.0777478 0)
(0.995083 -0.00563001 -1.12839e-20)
(0.906675 -0.00843834 4.20116e-20)
(1.10698 0.0514686 0)
(1.02402 0.0193765 1.66784e-21)
(0.958486 0.010479 4.02799e-20)
(0.644715 0.149351 0)
(0.987376 -0.00859952 4.21991e-21)
(0.597824 -0.00236174 -1.39245e-20)
(0.766376 0.500641 -1.90029e-20)
(0.965342 -0.000484205 0)
(1.02329 0.0166837 -1.40263e-21)
(1.02635 0.104592 0)
(1.11857 0.0559009 0)
(0.103698 -0.247593 -1.593e-19)
(1.13248 0.05041 7.35967e-21)
(0.98778 0.165881 0)
(1.05311 0.0836033 6.28054e-21)
(0.0187115 0.0456749 5.24345e-20)
(1.02157 0.13314 -1.29698e-21)
(0.972284 0.0406063 2.6445e-22)
(0.00246782 -0.00620927 4.9514e-20)
(1.19163 0.103973 -3.19814e-20)
(0.932915 0.0290946 1.18047e-20)
(0.786416 -0.0592476 -7.92731e-20)
(0.999897 0.00112492 0)
(1.13341 0.0592763 2.56471e-20)
(1.13718 0.036792 0)
(1.14911 0.0356352 -1.20062e-20)
(1.05691 0.0442953 -3.74909e-21)
(1.11825 0.0633104 1.47482e-21)
(1.02914 0.0302482 -1.62649e-21)
(0.838446 -0.0310398 0)
(1.00465 0.162578 -1.67943e-21)
(-0.156979 -0.0126106 0)
(1.14131 0.0342756 0)
(1.00003 0.0559371 -1.34219e-21)
(0.704385 0.00840209 -2.4026e-20)
(0.97564 0.181953 3.58535e-21)
(0.217227 -0.000781621 -1.63788e-20)
(0.162807 0.0061916 -1.24792e-19)
(0.644846 0.00103648 0)
(1.00697 0.027674 7.2907e-21)
(1.1083 0.15093 -1.96643e-20)
(1.06876 0.128167 0)
(1.02477 0.0191315 0)
(0.999963 0.00284493 -1.014e-20)
(0.91889 0.0948469 0)
(0.415367 -0.00107663 2.85169e-21)
(1.15272 0.166053 0)
(0.110319 0.053684 0)
(1.08769 0.0837561 1.85319e-21)
(1.14501 0.0423374 -2.76137e-20)
(1.12183 0.0602764 4.86176e-21)
(0.052804 0.00672021 4.46973e-20)
(1.14705 0.190644 -4.18557e-20)
(0.998701 0.00465517 0)
(0.562757 0.0102286 4.87464e-21)
(0.791095 0.00340165 0)
(1.00728 0.00036848 2.64359e-21)
(1.01864 0.0296253 -6.35752e-22)
(0.834391 0.382219 1.10018e-20)
(1.13092 0.415316 -2.87437e-20)
(1.08494 0.0371412 0)
(1.00258 0.00062381 1.72563e-21)
(1.11651 0.0599622 4.48863e-20)
(1.11813 0.0548268 -1.17733e-21)
(0.00155344 -0.0119493 1.57644e-20)
(1.17783 0.0820376 4.05813e-20)
(0.989695 0.00486665 7.99098e-21)
(0.988727 0.0258624 0)
(1.11765 0.070946 2.68738e-20)
(0.435501 -0.00186841 2.00081e-20)
(0.960616 0.011175 -4.3203e-20)
(0.375975 -0.00307205 -2.30836e-20)
(-0.0329562 -0.00939911 -1.67587e-20)
(1.14424 0.0427746 1.28254e-20)
(1.01433 0.0152511 0)
(0.476708 0.336347 -1.49228e-19)
(1.11428 0.068346 -2.13204e-20)
(-0.114036 -0.0139405 -3.91008e-20)
(0.999416 0.0156991 0)
(0.904111 0.125932 5.1955e-20)
(1.00686 0.0265903 -7.05721e-21)
(1.12071 0.118331 -6.18331e-21)
(1.00766 0.0010661 0)
(0.143322 -0.00946769 0)
(0.432326 -0.0135165 0)
(0.976993 0.085493 -1.34952e-20)
(1.09484 0.411689 -1.4406e-20)
(1.05567 0.0838729 6.72014e-21)
(1.01367 0.0145242 -5.12624e-21)
(1.04548 0.0437867 2.34958e-20)
(1.14074 0.032958 0)
(1.08781 0.0818116 1.36388e-20)
(0.496195 -0.0009755 2.10384e-20)
(-0.0477244 -0.00801482 -1.41243e-20)
(1.0121 0.0038299 3.57934e-21)
(1.03491 0.100342 0)
(0.0975351 -0.0153772 -2.03341e-20)
(-0.0639187 0.00367127 3.50779e-20)
(0.999851 0.00122701 0)
(1.00451 0.00862828 -5.20526e-22)
(0.215025 0.00742391 5.74607e-21)
(1.1346 0.0618925 -2.60197e-20)
(1.00003 9.66867e-05 -3.18539e-21)
(1.12838 0.0514373 -3.84117e-20)
(1.12726 0.0881425 -1.83799e-20)
(0.796611 -0.0636759 8.66081e-20)
(1.0539 0.120616 1.09926e-20)
(0.999898 0.00127299 -4.0926e-21)
(0.944485 0.181384 8.70338e-21)
(-0.0238876 -0.0074516 0)
(1.04892 0.0180822 0)
(1.11634 0.163637 2.21282e-20)
(0.56337 0.118743 7.16862e-20)
(1.02884 0.0363297 -1.15072e-21)
(0.989387 0.0230971 -4.22358e-21)
(1.12813 0.0471597 0)
(0.233827 0.00539164 0)
(1.13147 0.0497388 -2.41131e-20)
(0.918816 0.0992588 0)
(0.957316 0.0855057 -2.16825e-20)
(1.00003 0.00016839 -2.05758e-23)
(0.117664 0.00298753 0)
(0.689867 0.0243416 1.88842e-20)
(1.04928 0.0387302 0)
(1.01309 0.014653 7.21667e-21)
(-0.0217114 -0.0133288 3.11188e-20)
(0.0665105 -0.000889182 0)
(0.910632 0.0324404 2.08499e-20)
(0.365984 -0.00141657 2.54776e-20)
(1.14009 0.0261373 2.01046e-20)
(0.999847 0.00160352 -1.6896e-20)
(1.00552 0.00083998 5.34201e-22)
(1.1097 0.0772148 1.14053e-20)
(0.0952209 -0.00823813 2.82586e-20)
(1.1324 0.072702 5.39251e-20)
(1.05493 0.065438 0)
(1.17517 0.0818508 -2.69941e-20)
(1.11811 0.0215351 0)
(1.02055 0.00228834 -1.39383e-21)
(1.04452 0.0972067 -1.20432e-20)
(1.00125 0.0037375 7.70066e-21)
(0.665984 0.00517591 -2.74408e-20)
(1.08342 0.036293 -8.32428e-21)
(1.00005 9.83777e-05 9.70277e-21)
(0.977096 0.101469 -8.195e-21)
(0.982452 0.166873 5.55948e-21)
(0.785769 -0.0466732 2.36772e-21)
(1.10444 0.0489858 3.49473e-20)
(0.968808 0.132111 -1.28446e-20)
(1.04718 0.0257258 -4.01076e-21)
(1.15133 0.103751 0)
(0.504483 -0.000251992 0)
(0.598206 0.0133964 0)
(0.999287 0.0150811 -8.70064e-21)
(0.896495 0.0310101 2.01196e-20)
(0.998299 -0.00314483 -1.12866e-20)
(1.04781 0.0248956 5.88733e-22)
(0.998676 0.0101273 0)
(0.776426 0.537 1.89967e-21)
(1.00123 0.000688475 0)
(1.12328 0.119185 -2.03943e-20)
(1.05058 0.119444 -9.65353e-21)
(1.02914 0.029162 5.36111e-22)
(1.1176 0.0593065 -3.84883e-20)
(1.02282 0.0647062 0)
(0.116075 -0.0384032 -1.97467e-19)
(0.975991 0.17761 -7.71739e-21)
(1.10113 0.15071 0)
(1.03004 0.022773 -5.50101e-22)
(0.99028 0.0222583 8.03377e-21)
(-0.063997 -0.0167215 0)
(0.119961 0.00163189 1.17026e-20)
(0.998482 0.0113344 0)
(1.00642 0.000916766 2.41184e-21)
(1.09142 0.10958 0)
(1.01067 0.0275413 0)
(0.0384117 -0.014781 -1.34319e-20)
(1.02903 0.022244 1.84628e-22)
(0.154853 -0.00924413 -1.57877e-20)
(1.06261 0.0146193 5.46658e-21)
(1.11246 0.292479 -2.28936e-20)
(1.09644 0.0563878 4.60091e-21)
(0.102315 0.187178 -1.54554e-19)
(0.936692 0.0293697 -2.23538e-20)
(1.19181 0.104063 0)
(0.497863 0.236059 1.02768e-19)
(0.980189 0.100217 -7.72391e-21)
(1.13443 0.0623448 0)
(0.902091 0.451807 0)
(0.986888 0.0393864 0)
(0.175806 -0.00211138 -1.78279e-20)
(0.572004 -0.00965076 -8.45302e-20)
(0.0739343 -0.00153115 4.86188e-22)
(0.91877 0.00241299 -2.78422e-20)
(0.154994 0.00474995 -5.01008e-20)
(1.0403 0.100684 3.58986e-21)
(0.0309198 -0.0110521 7.4858e-20)
(0.517574 0.217221 7.89276e-20)
(0.881098 0.304405 -3.3008e-20)
(0.895844 0.300559 -3.50167e-20)
(0.400282 -0.00496547 0)
(0.99956 0.000798441 1.15884e-20)
(1.00897 0.166147 -5.50849e-21)
(-0.0163654 -0.0171984 3.19013e-20)
(0.977093 0.0221536 -7.99092e-21)
(0.986543 0.0679887 -2.15686e-20)
(0.0790757 -0.000121126 -2.45034e-20)
(0.821732 0.412728 0)
(1.00523 0.0544529 3.96622e-21)
(1.15129 0.0634289 -2.17224e-20)
(0.673535 0.469418 -3.51418e-20)
(1.00838 0.00558634 -4.77237e-21)
(0.131886 0.00444641 -3.3449e-20)
(1.08348 0.0501892 3.16134e-20)
(1.00131 0.00404106 0)
(1.00713 0.0133445 0)
(0.998546 -0.0031332 9.75574e-21)
(1.02393 0.0165053 -1.2352e-21)
(1.15265 0.102536 -2.76543e-20)
(0.672414 0.00385782 1.35373e-20)
(0.403017 -0.349089 0)
(-0.0352743 -0.0170518 -6.55331e-20)
(0.995396 0.0102207 0)
(1.12062 0.164038 0)
(-0.14863 0.00484365 -2.09341e-22)
(1.10773 0.0578315 -3.81006e-20)
(0.362655 -0.00305988 2.5923e-20)
(0.115955 -0.0098856 -4.78431e-21)
(0.400736 -0.0159344 3.72604e-20)
(1.01315 0.00706567 -2.28675e-21)
(1.07976 0.0378324 0)
(1.00846 0.0133858 4.56818e-21)
(1.02155 0.148116 2.68823e-20)
(1.03221 0.0356397 6.89736e-23)
(0.0726037 0.228302 7.41741e-20)
(1.12796 0.0897336 9.68437e-21)
(1.08127 0.0252688 -1.22468e-20)
(0.999318 0.000933593 3.27489e-21)
(1.11613 0.070412 -2.26111e-23)
(1.11178 0.152646 1.31155e-20)
(1.12066 0.0813802 3.7517e-20)
(0.283896 0.980191 3.35593e-20)
(-0.0114527 -0.0134696 -4.14619e-20)
(-0.134075 -0.0126502 5.06658e-20)
(0.947683 0.188847 0)
(1.07362 0.15807 0)
(1.00427 0.00813006 0)
(-0.0344776 0.00561128 0)
(0.359067 -0.00187735 0)
(0.992714 0.0300612 -2.36386e-20)
(1.15994 0.101797 0)
(0.993831 0.00563599 0)
(1.15133 0.0849232 0)
(1.06199 0.0152108 0)
(0.999675 0.000629871 2.10819e-20)
(1.01782 0.0658855 -3.6919e-21)
(0.390818 -0.00265858 9.73831e-24)
(1.01612 0.0656366 -3.64975e-21)
(0.250262 0.0040799 0)
(0.0116279 0.0150405 0)
(1.14207 0.0515235 -4.18127e-20)
(0.43208 0.213064 -9.38389e-20)
(0.988679 0.0394785 -6.47491e-21)
(0.481496 0.296346 2.0058e-19)
(0.458176 0.238101 -9.25468e-20)
(1.0005 0.00787597 5.00838e-21)
(0.789623 0.412704 0)
(0.978535 0.0220591 0)
(0.992292 0.00715183 1.5489e-20)
(1.11961 0.134815 5.83371e-21)
(1.00005 0.000251745 5.19043e-21)
(0.991181 0.00884013 1.90864e-20)
(1.00877 0.0132476 0)
(1.15872 0.104668 0)
(0.999872 0.000620533 6.17911e-22)
(0.164104 0.00491963 4.92394e-20)
(0.45831 -0.00251718 1.19454e-20)
(-0.116553 -0.00100271 0)
(1.14407 0.194335 4.33484e-20)
(0.250705 0.00206176 0)
(-0.0955776 -0.013684 0)
(1.10714 0.0568103 2.83587e-20)
(0.995854 0.00974021 3.08962e-23)
(1.14217 0.0957031 0)
(1.0854 0.0184108 -2.03369e-20)
(1.03739 0.105957 0)
(0.998579 0.0050954 0)
(0.613846 -0.00258629 0)
(0.399501 -0.00275597 2.28613e-20)
(0.494156 -0.00216977 2.09969e-20)
(0.96687 0.0785793 -1.77517e-20)
(1.13124 0.0850416 -1.16719e-20)
(0.922521 -4.16284e-05 -5.79256e-21)
(1.08846 0.0185916 0)
(1.12023 0.0799355 -3.23126e-20)
(1.00474 0.0633506 -1.37143e-20)
(1.05454 0.0334975 3.46104e-20)
(1.00742 0.0482801 0)
(1.00122 0.000810865 1.29138e-20)
(0.0613009 -0.0165351 -1.24934e-20)
(0.211957 -0.000195605 3.5538e-20)
(0.225706 -0.000565314 -3.37969e-20)
(1.09783 0.207893 0)
(-0.130992 -0.001856 -2.11389e-20)
(0.195694 -0.0029849 1.55227e-20)
(0.0251683 -0.0193135 3.20389e-20)
(0.040702 -0.00550023 -2.02908e-22)
(1.01914 0.00331916 -7.45608e-22)
(1.11384 0.0741041 1.32477e-20)
(1.00672 0.0634847 1.36477e-20)
(0.986294 0.02581 -5.09859e-21)
(1.16666 0.0840908 -2.40232e-20)
(1.11006 0.078753 -6.43501e-21)
(1.02393 0.000335674 1.05827e-23)
(1.10925 0.100849 0)
(1.10454 0.0591828 1.46858e-20)
(0.0448015 -0.00432198 -2.67205e-20)
(1.00055 0.00829893 6.22627e-21)
(1.13149 0.0654923 -5.86481e-20)
(0.102658 0.0590758 0)
(1.12878 0.305282 1.78104e-20)
(0.173647 0.00425082 -3.06377e-21)
(0.999894 0.000498298 0)
(0.991575 0.0301514 0)
(1.01134 0.000556364 0)
(1.01681 0.135419 1.62133e-21)
(1.01316 0.00660049 0)
(0.451956 -0.000884217 5.78732e-21)
(0.412457 -0.308047 2.19802e-21)
(0.972145 0.1281 0)
(0.0102979 0.0165355 5.55704e-20)
(1.06913 0.0671733 -8.9612e-21)
(1.13416 0.0586813 -2.93089e-20)
(0.0578417 -0.0193903 -3.04875e-20)
(0.786798 0.501555 2.25636e-20)
(1.14176 0.0504442 3.75373e-20)
(1.0866 0.0493355 0)
(1.13205 0.0651601 4.23453e-20)
(1.10415 0.109574 -5.84377e-21)
(1.14074 0.086749 -1.59219e-20)
(1.11455 0.0399272 0)
(1.14789 0.0482469 -6.31262e-21)
(0.373931 0.0385501 3.87228e-20)
(1.12057 0.0339116 1.37541e-20)
(1.12539 0.0672609 1.05827e-20)
(1.01581 0.00105082 1.37808e-22)
(1.18324 0.0968883 0)
(1.08071 0.0569578 0)
(1.03606 0.0119606 -1.37836e-21)
(1.01383 0.13171 6.78041e-22)
(1.05113 0.0455698 4.65983e-21)
(0.0479884 -0.0055809 0)
(0.430341 -0.0163829 0)
(1.01016 0.0262926 0)
(1.02043 0.00185649 2.89378e-22)
(0.474908 -0.000449072 5.58011e-21)
(-0.112045 -0.0119216 6.4286e-21)
(1.00004 0.000191794 -6.53377e-21)
(0.155039 0.00503531 -2.22168e-20)
(1.06411 0.0294136 -4.02837e-21)
(1.13769 0.180506 -2.08991e-20)
(1.00909 0.0278792 -6.74666e-22)
(-0.0227884 -0.0115181 2.04177e-20)
(1.09903 0.0576576 3.31465e-20)
(1.02939 0.103436 -4.21134e-23)
(1.028 0.0473558 0)
(0.269761 0.00129981 0)
(1.14849 0.165064 2.30248e-20)
(-0.192307 -0.00467875 0)
(1.00003 0.000226983 -6.75033e-21)
(-0.0243347 -0.00915288 3.34701e-20)
(0.136789 -0.0334175 1.11795e-19)
(1.07873 0.109431 -1.91932e-20)
(1.03586 0.012586 0)
(-0.0427791 -0.000123936 -6.22901e-20)
(0.369511 -0.00967953 6.69451e-20)
(1.10944 0.0547537 3.87606e-20)
(1.00768 0.0135796 0)
(0.998632 0.0464693 1.39096e-20)
(1.13882 0.0228903 -2.4359e-20)
(1.14564 0.0823312 1.09914e-20)
(1.02459 0.000443262 -2.01899e-23)
(1.00679 0.0125236 0)
(1.00425 0.00233549 0)
(1.00455 0.002485 0)
(-0.0397413 -0.0123654 0)
(1.16368 0.0859529 0)
(1.10808 0.0549683 -3.59882e-20)
(1.15263 0.158351 7.03495e-20)
(1.00556 0.000648718 -1.16574e-21)
(1.01001 0.00640497 7.97322e-22)
(1.13019 0.0835889 5.68484e-21)
(0.226257 -0.0189318 4.3075e-20)
(1.07775 0.0863825 -9.73306e-21)
(1.03024 0.0309953 1.26075e-21)
(0.992447 0.00772626 -1.03415e-20)
(0.992257 -0.00648465 -1.18864e-20)
(1.02688 0.0964654 4.25641e-20)
(0.113636 0.0131643 0)
(1.00016 0.00261375 -4.30208e-21)
(0.992035 -0.00338393 -5.9552e-21)
(1.08145 0.0391006 -3.0282e-20)
(1.11351 0.040673 0)
(1.09692 0.0553797 6.15128e-21)
(0.990823 0.0283289 0)
(1.01303 0.0672955 0)
(1.01804 0.0986297 0)
(1.12498 0.0661579 -1.9045e-20)
(0.899633 0.428607 -6.73995e-22)
(1.15474 0.163511 0)
(1.1433 0.0941583 0)
(1.12911 0.0755074 -2.83512e-20)
(1.17482 0.0789825 0)
(1.10189 0.146315 0)
(0.998615 0.0142075 0)
(-0.0149872 -0.00880672 -1.51465e-20)
(0.992699 -0.00688211 1.56391e-20)
(0.98651 0.0707919 1.98195e-20)
(1.07677 0.031982 -3.24983e-21)
(1.18279 0.0960572 -1.61397e-20)
(0.947287 0.254494 0)
(1.0096 0.00144229 3.30615e-22)
(1.1293 0.296691 0)
(1.12696 0.130186 2.40101e-20)
(-0.0138331 0.0298484 -4.42147e-20)
(1.12906 0.0765188 3.05678e-20)
(0.871054 0.108594 0)
(1.10601 0.0599122 -9.24524e-22)
(0.999172 0.000987304 -6.99574e-21)
(0.529793 0.00526424 0)
(1.12098 0.28824 0)
(0.303332 -0.0061225 3.9582e-20)
(1.00728 0.0459808 0)
(1.07486 0.0758232 -3.65654e-21)
(1.15484 0.156241 -5.29189e-20)
(0.122693 -0.0110235 -1.03538e-20)
(-0.0864189 -0.0030008 0)
(1.11957 0.0729489 1.35892e-20)
(1.10346 0.209879 1.59509e-20)
(0.973604 0.0803913 1.28119e-20)
(1.03903 0.0707008 0)
(0.989706 0.0286262 0)
(0.862603 0.19587 -2.43083e-21)
(0.6609 0.133351 0)
(0.973872 -0.0133422 -7.4049e-21)
(1.11393 0.0668346 2.08592e-20)
(0.564159 0.0945758 2.2005e-21)
(0.313261 -0.00641005 -2.97592e-20)
(-0.18402 -0.00352408 0)
(1.01296 0.0771957 6.87027e-21)
(1.13401 0.0579384 2.77327e-20)
(1.12807 0.0608213 -6.14454e-20)
(0.979687 0.109834 -6.12534e-22)
(0.963687 0.0137349 1.90272e-20)
(0.154364 0.44713 -7.03142e-20)
(0.630662 0.00499485 3.1534e-20)
(0.532037 -0.00739163 0)
(1.15172 0.14892 1.17089e-20)
(1.0202 0.00367721 -1.32417e-21)
(0.138379 0.00378973 3.77333e-20)
(1.13771 0.0242674 2.16637e-20)
(1.00949 0.00106293 4.13821e-21)
(1.06235 0.0967275 1.24085e-20)
(1.1262 0.0583284 -1.88418e-21)
(0.83962 0.0428178 -4.83158e-20)
(1.11999 0.129203 2.16891e-20)
(0.373213 -0.00177081 0)
(1.13939 0.0857683 1.45616e-20)
(1.10989 0.0379199 1.03784e-20)
(0.527417 0.00583568 -3.85195e-20)
(1.05029 0.0514896 0)
(0.0264713 -0.00487238 3.50964e-20)
(0.999864 0.00104836 6.07363e-22)
(1.00014 0.00283104 0)
(0.868456 0.0269604 1.74944e-20)
(0.600262 0.000880179 1.76277e-20)
(0.370586 0.16734 -2.86814e-21)
(1.05143 0.0506476 0)
(1.00166 0.0544711 1.1943e-21)
(0.992403 -0.00279508 1.11952e-20)
(1.11886 0.0228146 0)
(0.071439 0.0789521 0)
(1.14787 0.0348796 3.25353e-20)
(1.04082 0.0718886 0)
(1.14101 0.0500436 0)
(1.11585 0.0689066 -2.36181e-20)
(1.00873 0.0285834 -3.23907e-21)
(1.08078 0.420137 1.92144e-20)
(1.14757 0.0334714 -1.82031e-20)
(1.00961 0.023067 1.2244e-20)
(1.00087 0.017746 0)
(1.13839 0.0830867 -3.48888e-20)
(1.04964 0.0462829 0)
(0.0893758 0.0515342 -7.90998e-21)
(1.08207 0.159515 1.14782e-20)
(0.95691 0.249416 0)
(1.07476 0.0775435 -4.32577e-21)
(1.00704 0.00306631 0)
(1.03162 0.0137869 2.05631e-22)
(1.02974 0.0386727 0)
(0.921777 0.306732 1.81448e-20)
(0.887651 -0.00173109 4.11034e-20)
(1.15722 0.118393 2.50695e-20)
(0.439092 0.717479 -1.08198e-19)
(1.11723 0.0640635 -1.19414e-20)
(1.00789 0.00543586 0)
(1.13923 0.0893312 1.90613e-20)
(0.364655 0.194844 -4.8082e-20)
(0.992711 0.0394676 -1.71718e-20)
(1.0477 0.0181405 0)
(0.895624 0.0126718 -2.38807e-20)
(1.00626 0.0122443 0)
(1.09733 0.028546 1.11075e-20)
(1.0573 0.0681474 0)
(0.347104 -0.0119034 -1.20683e-20)
(0.999731 0.000813484 0)
(1.11378 0.420214 2.6078e-20)
(1.09537 0.0312458 1.53487e-20)
(1.14293 0.0550332 1.72891e-21)
(1.10075 0.160607 -7.58684e-21)
(0.0113196 -0.0133173 4.75363e-20)
(0.975929 0.249262 0)
(0.998694 0.0447774 -5.06039e-21)
(0.0739932 -0.00853859 -2.46828e-20)
(-0.106869 -0.00901282 2.0264e-20)
(0.998932 0.0336152 -1.76022e-20)
(1.07647 0.0306637 6.24731e-21)
(1.11687 0.0593568 -2.11207e-20)
(1.1484 0.14984 0)
(1.13158 0.0718775 -3.40996e-20)
(1.00012 0.000282102 3.86295e-22)
(1.02928 0.0478176 -1.63259e-21)
(1.10388 0.285393 2.21384e-20)
(1.08268 0.0249996 1.54316e-20)
(1.11943 0.0827201 7.74803e-21)
(1.12673 0.0468679 0)
(1.03254 0.0139518 4.38627e-22)
(1.11908 0.052637 2.33515e-21)
(0.443432 -0.0036188 -2.25386e-20)
(1.04835 0.0163243 -1.91653e-23)
(1.07012 0.0172216 -6.54421e-21)
(1.00373 0.00242248 2.78689e-21)
(0.116149 0.00216804 1.15137e-20)
(0.999926 0.000260491 4.63232e-21)
(0.96793 0.0750982 1.70863e-20)
(-0.153723 -0.014312 2.56091e-20)
(0.979399 0.0627215 0)
(0.650615 0.00793869 -2.49915e-20)
(1.05133 0.085366 -5.08924e-21)
(0.824197 0.0452654 3.23358e-20)
(1.00404 0.00258803 -6.23575e-21)
(0.980081 0.194778 -6.59506e-21)
(0.998554 0.00936395 0)
(1.10081 0.113708 5.69715e-21)
(1.00677 0.00182812 0)
(1.02391 0.237663 -1.65458e-20)
(1.06317 0.0298754 0)
(0.453704 0.237449 7.62947e-20)
(0.409373 0.596395 5.86015e-20)
(0.22557 -0.0202769 1.84289e-20)
(1.01066 0.000531232 -2.63392e-21)
(0.999449 0.000763133 4.01323e-23)
(1.09873 0.143378 -1.50938e-20)
(1.07456 0.13245 -9.51411e-22)
(0.103225 -0.000293299 0)
(0.301451 -0.0198369 4.63252e-20)
(1.10828 0.083336 5.79213e-21)
(0.9907 0.00557213 7.88554e-22)
(1.15776 0.103368 -2.3636e-20)
(0.33743 0.14256 1.49042e-19)
(1.03465 0.0265952 6.95666e-21)
(1.15158 0.118687 2.18698e-20)
(1.109 0.0738905 3.3003e-23)
(0.396585 -0.00190096 -2.48803e-20)
(1.04351 0.1365 0)
(1.11651 0.0215508 1.20374e-20)
(1.13811 0.100473 0)
(0.819453 0.363264 -1.10083e-20)
(1.10661 0.0837495 0)
(0.291538 0.212487 0)
(1.1048 0.0869743 0)
(1.074 0.0226894 -5.15851e-21)
(1.12708 0.0587629 2.13621e-21)
(0.983455 0.102441 8.87124e-21)
(1.0392 0.0153405 0)
(1.0962 0.0290107 -1.05933e-20)
(1.06427 0.13529 1.35963e-21)
(1.0233 0.102424 -1.23861e-21)
(0.997452 0.00876757 -5.50835e-21)
(1.00602 0.000534079 0)
(1.11668 0.0663302 5.67445e-21)
(1.06497 0.0379132 7.54286e-21)
(1.12018 0.0841959 0)
(0.991471 0.00540239 0)
(0.993844 0.00347021 0)
(0.999951 0.000175885 -1.00726e-20)
(1.00899 0.0663324 0)
(1.02913 0.00548276 -1.01021e-22)
(1.02554 0.090063 0)
(1.00324 0.00250916 0)
(-0.0286128 -0.0115958 -5.0588e-21)
(1.13134 0.0311937 -9.81165e-21)
(0.486871 -0.34989 0)
(1.01171 0.00643596 9.79916e-22)
(1 0.001004 -1.37212e-20)
(0.789915 0.108534 -9.27277e-20)
(1.10657 0.109206 2.16489e-22)
(0.952715 -0.00924503 -3.06171e-20)
(0.911756 0.0713571 -4.44402e-20)
(1.06846 0.193957 -2.49874e-20)
(1.17072 0.184445 -5.15142e-20)
(1.09643 0.0307274 -1.93352e-20)
(1.13433 0.0858465 0)
(1.05179 0.0348817 0)
(0.999922 0.000498875 -8.59413e-21)
(1.00481 0.00223624 -2.76165e-21)
(1.0209 0.0650958 0)
(-0.195729 -0.0137518 -3.21641e-20)
(1 0.000862505 8.41025e-21)
(1.11642 0.0668239 1.49452e-20)
(1.02605 0.0925082 0)
(-0.143797 0.00788456 9.06451e-20)
(0.93208 0.196891 -2.63517e-20)
(1.07395 0.19309 0)
(1.14265 0.054275 -6.54607e-21)
(1.02241 0.0105727 0)
(1 3.23748e-05 0)
(1.13189 0.0324374 6.15045e-21)
(0.987442 -0.00380879 7.42777e-21)
(0.977156 0.0362799 8.29418e-21)
(1.02383 0.0850527 1.04685e-20)
(1.00047 0.0579937 -9.64023e-23)
(0.998532 -0.00242857 -1.09193e-20)
(1.06292 0.080344 4.98211e-21)
(1.00487 0.00749824 0)
(1.0186 0.00158157 0)
(1.02982 0.10001 4.48388e-23)
(0.887861 -0.0452956 5.84825e-20)
(0.0861622 0.00061707 -3.1226e-20)
(1.04409 0.120528 -7.22138e-21)
(1.0488 0.0157898 2.27169e-23)
(1.00858 0.0010708 3.71971e-21)
(0.1449 -0.012558 -9.62656e-21)
(0.908816 0.312739 1.9438e-21)
(0.993407 0.0394291 0)
(1.00855 0.0456249 0)
(0.992374 0.08395 4.29323e-20)
(1.12116 0.0610369 -1.07189e-20)
(-0.149872 -0.0137177 -5.0366e-20)
(0.877968 0.109927 -3.70033e-20)
(1.07413 0.0238951 5.30495e-21)
(1.01162 0.00393064 0)
(1.01894 0.00186849 -9.70821e-22)
(1.12109 0.0352084 0)
(1.04739 0.12231 7.46332e-21)
(1.15023 0.0640576 -3.7063e-20)
(0.914975 0.00201282 -2.25358e-20)
(0.15961 -0.0011694 1.37355e-20)
(1.01847 0.0488345 7.36596e-21)
(0.954649 0.048277 0)
(-0.161169 -0.0124402 0)
(0.993806 0.00499418 0)
(1.08228 0.0565343 0)
(0.998651 0.0297189 -1.3592e-20)
(1.00158 0.00106837 4.49785e-21)
(1.05807 0.137717 -1.7227e-20)
(0.775108 -0.0419694 -4.29177e-20)
(1.0435 0.0438943 0)
(0.615891 0.00332781 -9.09e-21)
(0.2062 0.00554199 0)
(1.10422 0.158136 8.97462e-21)
(0.998773 0.0148959 0)
(1.0304 0.00840059 6.92258e-22)
(1.14502 0.040169 1.50264e-20)
(1.13997 0.0718861 -1.47935e-20)
(1.00005 0.000311254 6.68014e-21)
(1.17134 0.0757998 -4.06786e-20)
(1.02962 0.00830795 -4.1574e-22)
(1.06275 0.130835 -1.13803e-20)
(1.04526 0.00906539 5.05966e-22)
(1.03942 0.0177356 0)
(1.14625 0.0842164 0)
(1.03987 0.0292165 -5.88456e-22)
(0.73744 0.00185031 9.3054e-23)
(1.07281 0.113055 1.72562e-20)
(0.999945 9.12935e-05 -2.93953e-22)
(1.02306 0.00674971 -1.34187e-21)
(0.980922 -0.0073093 5.5531e-20)
(1.00568 0.0202137 0)
(1.06878 0.0177484 6.13263e-21)
(0.245453 0.594061 -4.59434e-22)
(1.04553 0.01742 -4.10425e-21)
(1.03266 0.0196195 0)
(0.330711 -0.0173736 0)
(0.521951 -0.00822543 0)
(1.11155 0.0382605 -1.36683e-20)
(1.07065 0.132265 0)
(1.11931 0.0769762 0)
(1.06885 0.0551276 1.15388e-20)
(1.0234 0.0204766 -8.13834e-22)
(0.886739 -0.00904947 1.82203e-20)
(-0.00326419 -0.011085 -1.60244e-20)
(1.03129 0.239285 8.01094e-21)
(0.997628 0.00156735 -8.34974e-21)
(1.02708 0.0461912 9.14059e-22)
(0.32454 -0.0191621 -5.08721e-22)
(1.09481 0.0703752 0)
(0.00603151 -0.0172859 3.69238e-22)
(0.999919 0.000164617 3.2784e-22)
(0.950154 -0.00875742 3.22084e-20)
(0.105495 0.00192742 1.8504e-20)
(1.09367 0.0638038 0)
(1.04613 0.0437067 0)
(-0.208023 -0.0133062 7.84059e-20)
(0.20391 0.150907 -1.19525e-19)
(1.00608 0.0197843 -1.32951e-20)
(1.13599 0.100249 -1.69198e-20)
(1.00511 0.00238278 6.76688e-21)
(1.03862 0.0286676 -4.53262e-22)
(1.01208 0.00682037 6.97997e-23)
(-0.00179578 -0.0150798 1.63872e-20)
(1.02876 0.00511159 6.68445e-22)
(1.05252 0.00992118 0)
(1.0242 0.0202892 8.08435e-22)
(0.684711 -0.00127194 6.25376e-20)
(1.08333 0.0197278 4.23277e-21)
(1.14073 0.176724 2.19779e-20)
(0.70892 -0.135418 0)
(1.04125 0.0161604 0)
(0.842243 0.000756168 4.82358e-20)
(1.00022 0.00253569 8.37938e-21)
(-0.0268357 -0.0169783 0)
(1.00363 0.00950817 -6.61734e-22)
(1.04667 0.0172796 4.13897e-21)
(0.998537 -0.0018603 -5.54713e-21)
(1.14525 0.0413174 -1.74039e-21)
(0.998393 -0.00220313 0)
(1.13975 0.0840047 1.73295e-20)
(0.203181 0.00735367 1.20456e-20)
(0.518227 0.00017743 2.14784e-20)
(0.900329 0.0136693 4.0502e-20)
(1.09894 0.0521656 0)
(-0.13588 -0.0148056 0)
(0.991382 0.022772 0)
(0.124059 0.00421531 -3.96466e-20)
(0.611589 0.0737094 -1.28849e-19)
(-0.116953 -0.0149249 1.69353e-22)
(0.244395 0.0023211 0)
(0.316792 -0.0172776 9.04397e-21)
(0.202594 0.22113 0)
(1.13758 0.0893275 -3.55338e-20)
(1.00001 0.0479386 -1.65469e-20)
(0.362366 -0.00183576 -1.33085e-20)
(1.09228 0.0645314 1.03819e-20)
(0.339531 -0.00180066 0)
(1.0348 0.0126448 -2.43357e-22)
(1.01974 0.0285224 -6.13792e-21)
(0.994503 0.0408262 0)
(1.00021 0.00273422 -4.20781e-21)
(1.07491 0.0545713 4.96478e-21)
(0.880264 0.0686621 8.03993e-21)
(0.126579 -0.000482826 -1.03472e-20)
(1.01987 0.0275351 0)
(0.993154 -0.00172504 0)
(-0.168625 0.00278828 8.80335e-20)
(0.919971 0.392031 0)
(0.981277 -0.00857253 0)
(0.817129 -0.0838158 3.99036e-20)
(1.06752 0.0844625 0)
(1.04231 0.0367448 1.71922e-21)
(0.473343 0.633489 -3.88327e-20)
(0.80995 -0.0788064 3.34392e-22)
(0.943495 0.0383467 1.08053e-20)
(1.08283 0.0205187 4.3229e-21)
(0.187787 0.00634188 5.1398e-20)
(-0.148837 -0.0123739 0)
(0.223085 -0.0240092 -2.26031e-19)
(1.0443 0.00927198 9.12026e-22)
(1.14609 0.169197 2.35942e-20)
(1.12557 0.12745 -3.65544e-20)
(-0.125805 -0.0118309 0)
(0.391459 -0.0166197 0)
(1.14134 0.0305387 1.49223e-20)
(1.01019 0.0283551 7.81466e-21)
(1.05235 0.0360214 -2.59034e-21)
(1.01701 0.0486176 -6.01412e-21)
(1.02515 0.00104634 -7.17801e-23)
(1.01133 0.0681652 5.33134e-21)
(1.01917 0.00291485 -8.66191e-22)
(1.02049 0.0978379 0)
(1.04036 0.13552 -3.06849e-21)
(0.0365684 0.0185827 -7.52348e-23)
(1.13369 0.0660029 0)
(1.05254 0.0107916 5.08112e-21)
(1.13311 0.0846256 1.29059e-20)
(0.0385921 -0.0195323 -1.55228e-20)
(1.05663 0.133164 1.40033e-20)
(0.968113 0.0144457 0)
(0.0214184 -0.00490185 0)
(1.02794 0.0282554 5.02294e-23)
(0.978296 0.0343915 -1.59085e-20)
(0.812348 0.0331906 -1.06078e-19)
(0.0894371 0.0305594 -1.07445e-19)
(0.998399 -0.0036543 -1.28452e-20)
(1.00034 0.0179171 0)
(0.366124 -0.00354703 -6.22481e-21)
(1.14628 0.0592588 0)
(1.13523 0.0628867 -2.11682e-20)
(1.13071 0.0742318 2.43549e-20)
(1.03419 0.0414747 -8.35291e-22)
(1.00406 0.0183073 4.28758e-21)
(1.14287 0.0910494 3.99015e-20)
(0.966821 0.0162081 -1.76437e-20)
(1.00175 0.00917682 3.57697e-22)
(0.965385 0.0116738 0)
(0.426205 -0.00154912 0)
(-0.132437 -0.0140938 7.06861e-20)
(1.03491 0.0186136 0)
(1.02374 0.00700966 1.30297e-21)
(0.998307 0.0310655 6.95192e-21)
(1.09298 0.0550361 2.24049e-20)
(1.00844 0.0649221 0)
(1.07748 0.0734295 3.20036e-21)
(0.988402 -0.00396296 -1.31345e-20)
(1.0048 0.0522438 -1.09956e-20)