/*--------------------------------*- C++ -*----------------------------------*\
| =========                 |                                                 |
| \\      /  F ield         | OpenFOAM: The Open Source CFD Toolbox           |
|  \\    /   O peration     | Version:  v2012                                 |
|   \\  /    A nd           | Website:  www.openfoam.com                      |
|    \\/     M anipulation  |                                                 |
\*---------------------------------------------------------------------------*/
FoamFile
{
    version     2.0;
    format      ascii;
    class       volVectorField;
    location    "700";
    object      U_0;
}
// * * * * * * * * * * * * * * * * * * * * * * * * * * * * * * * * * * * * * //

dimensions      [0 1 -1 0 0 0 0];


internalField   nonuniform List<vector> 
13851
(
(0.990015 -0.0295318 3.03368e-22)
(0.844401 -0.0629853 0)
(1.02085 -0.132182 8.34324e-22)
(0.989476 -0.0277955 -2.40247e-21)
(1.05484 -0.147511 -1.51141e-20)
(0.965687 -0.0270138 -1.66762e-22)
(1.03939 -0.0124447 1.60669e-20)
(1.03429 -0.110034 -1.26119e-20)
(0.991495 0.00852824 0)
(0.990932 -0.115204 -6.04881e-22)
(0.865409 -0.0402903 0)
(0.804999 -0.138255 1.05337e-20)
(1.02617 -0.192236 -8.59433e-21)
(0.0184248 0.102518 -6.41034e-21)
(1.021 -0.00213681 0)
(1.01584 -0.0789588 4.97776e-21)
(1.04084 -0.0621121 0)
(0.994501 -0.0473505 0)
(1.03997 -0.183562 -1.9555e-20)
(0.991242 0.00775666 0)
(0.990097 -0.027444 0)
(1.02449 -0.132797 0)
(1.01888 0.000344515 -7.05159e-23)
(0.992221 0.000588708 0)
(1.01551 3.26904e-06 0)
(1.03122 -0.109942 1.10975e-20)
(1.06546 -0.0536784 -2.10353e-20)
(0.00536528 -0.0495113 2.35241e-22)
(0.990953 -0.0295528 0)
(1.00773 -0.047211 8.3563e-21)
(0.962749 -0.0242705 0)
(1.04106 -0.0643743 0)
(1.01961 -0.129424 0)
(0.894974 -0.0487332 -3.14789e-21)
(0.992193 0.000744068 -9.49914e-22)
(1.13265 -0.206716 0)
(1.03745 -0.215658 0)
(1.02293 -0.164121 1.00206e-20)
(0.988386 -0.11767 0)
(0.890397 -0.0464297 1.50233e-21)
(0.998708 -0.0180673 1.31467e-22)
(1.03245 -0.00339291 -5.45321e-23)
(-0.00473149 0.0683038 0)
(0.819912 -0.0195898 -9.80917e-22)
(0.830531 -0.00786207 1.29064e-21)
(0.113646 -0.00617483 0)
(0.849608 0.00399047 1.7254e-21)
(0.959432 -0.0894821 -2.46843e-21)
(1.06702 -0.0553097 2.95203e-20)
(0.935164 0.0898227 -5.61249e-22)
(1.09113 -0.151944 -2.68025e-20)
(1.07176 -0.179054 1.73539e-20)
(-0.0166388 -0.0149408 -2.96366e-20)
(1.01995 -0.0016104 5.87948e-21)
(1.00021 -0.00145735 5.92204e-21)
(1.03293 -0.00388542 5.49157e-23)
(1.00698 0.00200901 0)
(-0.0285109 -0.0228304 0)
(1.00772 -0.0459549 -5.43926e-21)
(1.03865 -0.0178427 -1.63211e-20)
(1.02062 -0.163799 0)
(0.631164 -0.102491 -1.91194e-20)
(0.980118 -0.0450031 -5.96397e-23)
(1.05655 -0.156174 -2.19169e-20)
(0.990005 -0.0658711 -6.74478e-22)
(0.986677 -0.0304879 -1.06494e-21)
(0.984419 -0.208406 -5.45855e-20)
(0.876185 0.00281003 -3.13765e-22)
(1.08139 -0.0952937 2.27846e-20)
(0.993867 -0.0464802 0)
(0.0442353 -0.000375063 -6.39318e-20)
(0.859456 -0.191062 0)
(0.748335 -0.037391 6.01017e-21)
(1.02026 -0.00163034 5.28141e-21)
(0.999558 -0.00268918 1.34298e-20)
(0.98774 0.0112029 0)
(1.02693 -0.131468 5.46606e-21)
(0.323269 -0.0125833 0)
(1.06232 -0.119693 0)
(0.00115257 -0.00234157 0)
(1.04089 -0.0270388 0)
(0.988234 -0.0204838 -1.85274e-22)
(1.01929 -0.0133351 -1.25441e-20)
(0.0896326 0.001968 0)
(0.979538 -0.0465157 0)
(0.84338 -0.139515 -8.57431e-21)
(0.971701 -0.0236465 1.58269e-22)
(0.956484 -0.0323369 1.18006e-22)
(1.055 -0.0648128 0)
(1.03316 0.0246285 1.7739e-22)
(1.12834 -0.204751 3.91365e-20)
(0.974095 -0.0202646 6.53171e-22)
(0.874605 0.000255031 -9.62149e-22)
(1.06042 -0.0761365 0)
(1.05674 -0.0632785 -2.39468e-21)
(1.00183 0.00109141 0)
(1.05642 -0.150298 1.67642e-20)
(0.646636 -0.114322 6.60111e-21)
(0.920702 0.0940205 0)
(1.00121 0.000760048 -2.08476e-22)
(-0.0558659 0.0179431 3.24318e-20)
(1.07808 -0.125951 0)
(0.999357 -0.03051 5.15095e-21)
(1.08291 -0.0400678 0)
(1.01669 -0.000441681 1.10616e-23)
(0.973317 -0.019368 -3.85607e-23)
(1.08378 -0.133743 2.13777e-20)
(1.02837 -0.00408414 -2.76453e-23)
(0.705313 -0.163662 0)
(0.965424 -0.0300378 1.72276e-22)
(0.995627 0.000587624 4.70806e-23)
(1.03358 0.0256181 1.1611e-23)
(0.974348 -0.0195989 0)
(0.994737 0.000143684 8.79064e-22)
(0.995635 0.000820518 -9.97306e-22)
(0.830622 -0.155504 -2.49668e-21)
(0.69019 -0.125692 0)
(1.0282 -0.00185641 6.20384e-23)
(0.989912 -0.000296714 0)
(0.997543 -0.00095807 6.6189e-23)
(-0.00596874 0.0703773 -2.13264e-20)
(1.08054 -0.0406158 0)
(1.00957 -0.189663 0)
(0.849309 -0.0717186 1.08831e-21)
(0.971587 -0.0812448 1.69371e-21)
(1.062 0.00314326 1.98273e-22)
(0.962697 -0.0768727 1.11399e-21)
(1.06971 -0.122944 -3.39929e-20)
(0.989693 -0.026302 3.26352e-21)
(1.04071 -0.164307 0)
(0.998899 -0.017479 -3.86779e-21)
(0.990096 -8.14181e-05 0)
(0.0632908 -0.00806025 5.72102e-20)
(1.01968 -0.0126726 1.71028e-20)
(0.821304 -0.148009 2.43213e-21)
(0.991061 -0.000218162 -3.05796e-22)
(1.028 -0.00168498 5.26914e-23)
(0.88769 -0.196048 -3.41322e-20)
(0.112869 0.0212098 -3.27293e-21)
(0.134417 0.0871415 0)
(-0.0712537 0.0131153 -2.70713e-20)
(0.999442 -0.00132415 -1.04015e-20)
(0.973526 0.0118476 -2.26782e-22)
(1.04377 -0.000399096 -1.10483e-22)
(1.02953 -0.0495184 4.58942e-21)
(0.812338 -0.0166263 -1.08017e-21)
(1.05003 -0.0367447 -3.17897e-22)
(1.03806 -0.16366 -7.18466e-21)
(1.03814 -0.0121037 -1.35968e-20)
(0.841577 -0.00336342 -3.98952e-22)
(1.14206 -0.150592 0)
(0.996925 -0.00116658 0)
(0.0288958 0.100006 1.48948e-20)
(1.00757 0.00188592 3.34169e-22)
(1.04733 -0.0450582 0)
(1.02819 -0.0487363 0)
(0.988317 -0.00649418 1.77672e-21)
(1.01262 -0.0439539 0)
(1.06886 -0.17883 1.62794e-20)
(1.0882 -0.149864 0)
(1.0327 -0.012136 -2.98323e-23)
(1.07765 -0.0731399 2.47144e-20)
(-0.0272736 -0.0226663 -7.94233e-21)
(0.990151 0.000217089 0)
(1.00604 -0.0587069 0)
(1.03848 -0.00156933 -3.18466e-24)
(1.05183 -0.039001 2.32416e-22)
(1.08436 -0.0965708 8.364e-22)
(0.990142 -0.0258106 2.03388e-21)
(0.511512 -0.0781776 -1.73272e-21)
(0.304024 -0.00616969 3.65475e-21)
(1.00134 0.00702266 -9.15564e-22)
(0.988585 -0.00709841 -3.83696e-21)
(0.112457 0.0918922 2.89085e-21)
(0.990296 0.000264399 0)
(0.957241 -0.0809068 -3.3146e-22)
(1.06768 -0.120747 2.73506e-20)
(0.973722 0.00598124 8.08169e-22)
(1.04497 -0.187182 2.14939e-20)
(1.02954 -0.0053821 7.30369e-24)
(1.03919 -0.0675583 0)
(0.836554 -0.186897 0)
(1.02029 -0.0111972 2.35552e-20)
(1.0252 -0.136158 -7.28885e-21)
(1.02341 -0.00240105 2.67462e-23)
(1.01391 0.000802248 6.25505e-23)
(0.987145 -0.031296 3.45282e-21)
(0.99907 -0.00162654 -3.02455e-21)
(1.04711 -0.151461 -1.51886e-20)
(0.979938 -0.085815 0)
(0.848475 0.000395545 0)
(-0.0218637 -0.0155733 3.50851e-20)
(1.03593 0.0270008 1.6529e-22)
(1.07117 -0.0965936 0)
(0.672932 -0.112363 1.40044e-20)
(1.04434 -0.0437179 0)
(0.974893 0.0118957 0)
(0.904545 0.0394426 0)
(0.974313 0.00693897 -9.74503e-22)
(0.987056 0.0106947 1.00817e-21)
(1.06334 0.00407283 -1.99097e-22)
(0.331532 -0.0571437 -3.1476e-20)
(0.991105 -0.000179098 -8.84438e-22)
(1.00994 -0.0141905 5.93795e-21)
(0.989228 -0.0937939 1.59333e-21)
(1.0209 -0.0118409 1.55631e-20)
(0.657667 -0.108339 0)
(1.04571 -0.0632382 -1.6154e-20)
(0.269557 -0.0416841 1.29307e-20)
(1.03035 -0.00845073 -4.24513e-24)
(0.583155 -0.13127 -1.11923e-20)
(0.999661 -0.029636 4.5717e-21)
(0.989476 0.065155 2.11983e-21)
(1.02739 -0.005298 -7.20424e-24)
(1.04193 -0.00180948 1.08491e-22)
(0.937354 -0.0425929 4.37517e-22)
(0.98122 -0.0492758 0)
(0.0402832 0.00967266 1.92198e-20)
(1.02022 -0.00459881 0)
(0.291786 -0.0480096 0)
(1.04485 -0.064604 -1.00472e-20)
(1.04227 -0.0279555 9.96928e-21)
(0.726937 -0.13978 0)
(1.05634 -0.170684 -2.64983e-20)
(0.414413 -0.10176 -2.21504e-20)
(1.01291 0.00043715 0)
(1.06064 -0.0842087 0)
(1.0139 -0.000292729 0)
(-0.0425264 0.00825923 -1.79087e-20)
(1.02758 -0.00586252 8.83544e-24)
(1.02959 -0.107254 0)
(0.976069 -0.0715935 0)
(1.00156 0.00651634 0)
(1.03545 0.0260835 -1.44942e-22)
(1.09849 -0.144141 0)
(0.989429 -0.0578469 0)
(0.710074 -0.11338 2.28483e-21)
(0.991249 -0.0651261 -5.98317e-22)
(1.04368 -0.00102294 0)
(1.01058 -0.0145427 1.21218e-22)
(0.964309 -0.0214252 0)
(0.858431 0.12448 7.85233e-22)
(1.04043 -0.018424 0)
(0.986455 -0.0949502 9.41495e-22)
(1.02056 -0.000748382 0)
(0.363848 -0.0836989 -1.45624e-20)
(1.07528 -0.127649 0)
(0.958891 -0.00439087 -1.88069e-21)
(1.02556 -0.0491623 -8.15002e-21)
(1.02611 -0.0634697 0)
(0.96693 -0.00717379 3.84342e-23)
(0.852786 0.121742 8.6449e-22)
(1.02751 -0.0329702 0)
(1.02697 -0.0499732 1.31111e-20)
(1.1014 -0.128092 0)
(0.988547 -0.0316406 -5.53143e-22)
(0.981675 -0.0833103 0)
(0.868659 -0.192357 1.83862e-21)
(0.362543 -0.00570635 0)
(1.0259 -0.0064589 0)
(1.04218 -0.00119492 0)
(0.994091 -0.0442232 -2.68278e-21)
(0.91633 -0.0232127 -1.42909e-21)
(1.04937 0.00667085 0)
(1.04149 -0.186032 1.07383e-20)
(1.04301 -0.0438766 0)
(1.02797 -0.0319662 0)
(1.06078 -0.0742504 -1.44187e-20)
(0.776275 -0.149969 1.64073e-20)
(1.02769 0.0203949 1.59092e-22)
(0.966511 -0.00595708 6.45316e-22)
(1.04571 -0.0454627 0)
(0.946093 -0.0313411 6.50368e-22)
(1.0631 -0.116448 2.54612e-20)
(1.01509 -0.0768956 -6.25163e-21)
(0.989929 -0.000177029 0)
(0.993581 -0.00705959 8.60423e-23)
(1.03571 -0.00913485 1.86819e-22)
(0.375069 -0.101727 5.02844e-20)
(0.877219 -0.0393578 0)
(1.04006 -0.019336 -6.67055e-25)
(1.02855 -0.00810371 0)
(1.0168 -0.000548919 0)
(1.10177 -0.124962 0)
(0.905482 -0.0146322 -2.6164e-21)
(0.899095 -0.0425248 0)
(0.988881 0.0086504 8.70738e-22)
(1.024 -0.00250958 -3.83354e-21)
(0.944512 -0.0260786 0)
(1.01486 -0.0231239 1.13729e-22)
(1.0374 -0.166377 8.91688e-21)
(1.00908 -0.0453116 6.34358e-22)
(1.03869 -0.0188548 1.91036e-20)
(1.07687 -0.102448 2.71539e-20)
(1.00835 -0.0308698 -1.02024e-22)
(1.04305 -0.186418 0)
(1.00979 -0.0593085 0)
(0.840939 -0.127156 6.83144e-21)
(0.989674 -0.000542006 2.54837e-21)
(0.393889 -0.0909711 0)
(1.0776 -0.0712774 0)
(1.03865 -0.0613434 1.4551e-20)
(0.406409 -0.108126 1.7527e-20)
(1.00682 -0.0266269 0)
(0.9719 -0.0202513 -1.80316e-22)
(0.564849 -0.108418 8.82859e-21)
(0.989302 0.00826116 1.23223e-22)
(1.09488 -0.114792 0)
(1.05799 -0.07702 0)
(1.00901 -0.0440656 9.38454e-21)
(0.190991 0.000226184 0)
(1.00879 -0.0597511 -1.31357e-20)
(1.02427 -0.0321193 -1.99678e-21)
(0.711622 -0.132329 7.06219e-21)
(1.03423 -0.00286367 3.29922e-23)
(1.02672 -0.0650562 0)
(1.06914 0.0046917 -1.24363e-22)
(0.431425 -0.112712 7.2687e-20)
(1.13557 -0.186548 -3.29484e-20)
(1.02058 -0.00512066 0)
(1.0867 -0.128452 3.15265e-20)
(1.02241 -0.00413348 -7.26506e-21)
(0.391337 -0.0174807 6.23572e-21)
(0.964945 -0.00934176 0)
(1.0185 0.000478146 0)
(0.985508 -0.0085376 1.70939e-21)
(1.13084 -0.184366 2.91726e-20)
(1.0608 -0.0813847 0)
(1.04971 -0.043242 -2.21723e-22)
(1.02398 -0.00214735 0)
(1.00736 -0.0262634 0)
(1.02318 -0.0315895 0)
(0.844324 -0.0306956 0)
(0.183536 0.0871074 0)
(0.553486 -0.0906887 -8.99275e-21)
(0.988659 -0.0437051 1.13687e-21)
(0.457695 -0.118287 -4.72174e-20)
(0.96991 -0.168552 2.63558e-21)
(1.02055 -0.00210151 0)
(1.06903 -0.0984835 -6.30586e-21)
(1.03509 -0.16615 0)
(0.976126 -0.0211917 -7.65836e-22)
(0.985083 -0.0597638 -3.6178e-23)
(1.07944 -0.176083 -2.52752e-21)
(1.03874 -0.183753 0)
(0.97414 -0.0132958 0)
(0.823853 -0.035533 -1.95422e-21)
(0.494711 -0.101785 0)
(1.02126 -0.00173138 1.4315e-21)
(1.07694 0.0420954 3.58467e-21)
(1.07409 0.0307621 -6.84804e-21)
(0.994519 -0.159453 6.33811e-21)
(1.05094 -0.0425425 9.38603e-21)
(0.984066 -0.0603971 -1.7116e-22)
(-0.0464521 0.00486391 1.75897e-20)
(0.988396 -0.00760252 -4.6493e-21)
(0.790425 -0.0395412 -1.61247e-21)
(0.985284 -0.00805304 1.45959e-21)
(1.02239 -0.00383655 0)
(1.02197 -0.00102547 0)
(1.02853 -0.00455368 4.4159e-23)
(0.989284 -0.00581414 5.27141e-21)
(0.53764 -0.112898 0)
(0.874798 0.0856838 0)
(1.01264 -0.0191748 0)
(1.09477 -0.111107 0)
(1.0368 -0.00340226 0)
(0.806938 -0.125921 0)
(1.00489 -0.0789364 1.56261e-21)
(0.747789 0.0162213 4.91793e-22)
(0.537904 -0.085353 -1.08669e-20)
(1.01212 -0.0197516 4.13286e-21)
(0.979878 -0.0496482 0)
(1.0532 -0.0774954 -3.33077e-20)
(0.799896 -0.0138957 -5.85522e-21)
(0.99779 -0.0155251 0)
(1.02857 -0.00182814 -6.20523e-23)
(0.969713 -0.0142349 6.02199e-22)
(0.000104969 0.0101207 1.12472e-20)
(0.999044 -0.00208892 -4.98702e-21)
(0.28025 -0.0186178 0)
(0.975195 -0.0214646 -1.79812e-23)
(1.07914 -0.179414 -1.98025e-20)
(0.468683 -0.0676679 1.69568e-21)
(0.996273 0.00984046 2.50376e-21)
(1.00706 0.0282709 0)
(0.96747 0.000315473 0)
(0.990539 -0.00180261 1.56187e-21)
(1.02077 -0.000953217 1.27051e-20)
(0.989619 -0.042923 2.70801e-21)
(1.08982 -0.127745 9.1964e-22)
(0.0693707 0.112135 1.0907e-20)
(1.08927 -0.0958077 0)
(0.466503 -0.11268 6.70066e-21)
(0.545818 -0.108494 1.38677e-20)
(1.03695 -0.00290771 8.0691e-23)
(1.02664 -0.00674595 1.04907e-20)
(0.52539 -0.0834949 1.07339e-20)
(0.0474292 -0.00542678 -3.67463e-20)
(0.973993 -0.0689932 6.97432e-22)
(0.711629 -0.131178 0)
(0.968543 -0.0145555 0)
(1.05359 -0.0800142 7.11036e-21)
(1.00581 0.000611094 0)
(1.0058 -0.174096 -8.8943e-21)
(0.997194 0.00938038 -1.94648e-22)
(1.01792 -0.079326 -6.37683e-21)
(0.968597 0.00044661 7.35452e-22)
(1.0341 -0.0139741 -2.75227e-20)
(1.01462 -0.000402481 -9.82306e-25)
(0.989989 0.00877001 0)
(1.03829 -0.00204964 1.19669e-22)
(1.05958 -0.155937 2.10496e-20)
(0.988532 -0.0614759 0)
(0.430452 -0.0336211 0)
(0.99204 -0.0450376 0)
(1.08658 -0.13224 -1.20168e-20)
(0.978353 -0.0311237 4.13606e-22)
(0.854515 0.103411 -2.65295e-21)
(1.02236 -0.0655544 -4.65867e-21)
(0.991084 -0.159998 -3.13927e-21)
(1.03821 -0.0594934 0)
(0.945587 -0.0324185 -4.12364e-22)
(1.02769 -0.00180275 0)
(0.990386 0.00843512 0)
(1.01138 0.00043665 -1.17624e-22)
(1.01334 -0.165797 0)
(0.972981 0.103533 -1.45082e-21)
(1.05154 -0.167483 0)
(0.979323 -0.0315272 2.45552e-22)
(0.408519 -0.0269733 -6.96979e-21)
(0.886361 -0.0492348 1.23477e-21)
(0.972661 -0.022283 3.47034e-22)
(0.996532 -0.000788938 5.18279e-21)
(1.10204 -0.145365 -1.87436e-20)
(0.997921 -0.0148804 -1.0513e-20)
(0.847189 0.0933131 1.99984e-21)
(1.01895 -0.000438557 1.72877e-23)
(0.976829 -0.15972 0)
(0.878384 0.0548834 5.42742e-23)
(1.01701 -0.123483 1.02388e-20)
(0.285597 -0.0351449 1.21951e-20)
(0.973375 0.00817349 3.74051e-23)
(1.03707 0.0165299 1.58686e-22)
(0.902273 0.0605174 6.27561e-22)
(0.111495 0.0207307 1.90039e-20)
(1.02398 -0.00274487 -4.70418e-24)
(1.0536 -0.0849152 -9.3469e-22)
(1.06451 -0.121772 5.81788e-23)
(1.0173 0.0227241 -3.84662e-22)
(0.99788 0.00756667 0)
(1.02147 -0.0319483 8.7204e-23)
(1.14125 -0.145861 -4.91238e-20)
(1.07342 -0.17713 -1.83766e-20)
(0.989317 -0.0475624 3.45029e-21)
(0.442337 -0.0971972 -1.17344e-20)
(1.01471 0.000700429 -3.3574e-23)
(0.985111 -0.0092135 -4.82363e-21)
(-0.0145631 0.0547903 -1.01751e-21)
(1.00445 -0.0587297 1.90463e-21)
(1.02783 -0.0076207 -8.94753e-24)
(0.934406 -0.0238026 -3.82544e-21)
(0.990485 -0.00153132 -3.28988e-21)
(0.989561 -0.0289821 -3.52729e-22)
(0.994326 0.00718102 1.5452e-21)
(0.995625 -0.0660979 0)
(1.01137 -0.0405499 7.69823e-21)
(1.02949 -0.00800789 4.51753e-24)
(0.973855 0.00925905 4.78957e-22)
(0.752593 -0.14343 8.59201e-21)
(1.01973 -0.0142023 -2.07292e-21)
(1.08777 -0.101742 -7.97148e-22)
(0.991285 -0.000330786 2.65855e-21)
(0.978688 -0.020643 0)
(1.00031 -0.00581318 6.67328e-24)
(0.994263 8.9749e-05 -1.2103e-21)
(0.994056 -0.0155881 0)
(0.992195 0.000270551 0)
(0.992651 0.000255006 -9.89509e-22)
(0.973592 -0.0518737 2.84889e-21)
(1.02979 -0.031115 -7.98419e-21)
(0.969401 -0.023887 1.55937e-22)
(1.02061 -0.0104958 -1.59023e-20)
(1.0079 0.00108758 0)
(-0.094471 0.0466208 0)
(0.264908 -0.0294024 -1.57405e-20)
(1.02247 -0.0125196 9.20351e-21)
(0.978417 -0.0203476 5.75747e-23)
(1.02369 -0.0669365 0)
(0.851854 0.133944 6.28523e-22)
(0.0672373 0.00960646 1.26649e-21)
(0.985422 -0.00973222 0)
(0.864909 0.0674502 0)
(0.998443 -0.0161541 -3.75361e-21)
(1.04492 -0.143746 -3.67409e-21)
(1.03505 -0.0167082 0)
(-0.059693 0.0287062 -1.44003e-20)
(1.02714 -0.001561 -2.10082e-23)
(-0.0154805 -0.00788738 1.26043e-20)
(0.982086 -0.0782432 1.05374e-21)
(1.03291 -0.00309655 6.21451e-23)
(0.978469 -0.0199353 8.40292e-22)
(0.552785 -0.0892513 0)
(1.02688 -0.107506 0)
(0.889607 0.0641615 3.17372e-22)
(0.990125 -0.000406597 0)
(0.889914 -0.0492771 -9.09895e-22)
(0.999996 -0.00107364 1.52146e-22)
(0.990778 0.00153143 -1.04266e-21)
(0.989537 8.76885e-05 -1.14931e-21)
(1.03575 -0.0110895 1.40472e-20)
(0.0751242 -0.0157511 4.13168e-20)
(1.08607 -0.143595 2.38682e-20)
(1.09448 -0.187153 0)
(1.06115 -0.196376 2.383e-20)
(0.981036 -0.0478004 0)
(1.034 -0.0125992 -1.47437e-24)
(0.956841 -0.177426 -5.43414e-21)
(0.947085 0.105157 0)
(1.04121 -0.0685445 1.93971e-20)
(1.07556 -0.0745757 -6.08339e-22)
(0.859865 0.128971 -2.09461e-22)
(0.877979 -0.073581 -1.19344e-21)
(0.6378 -0.142536 0)
(1.01744 -0.0011094 -1.18359e-20)
(-0.0642287 0.0271984 -1.79871e-20)
(0.150447 -0.0133738 -2.31723e-21)
(0.227836 -0.0368128 1.35073e-20)
(1.00718 -0.0599688 6.25027e-21)
(0.978244 -0.0197722 -4.82832e-23)
(0.827351 -0.0571855 -1.21325e-22)
(1.03175 0.00830509 0)
(0.990173 -0.0351072 -2.01705e-23)
(0.931032 0.036344 2.41684e-21)
(0.988103 -0.171058 0)
(1.01144 -0.0444616 5.25112e-21)
(0.988976 -0.17355 0)
(0.900743 -0.19346 -2.01411e-20)
(1.02729 -0.00173698 6.51365e-23)
(1.03767 -0.000443796 -1.63995e-22)
(1.08895 -0.145585 2.55681e-20)
(0.243303 -0.0150126 2.0406e-21)
(1.02419 -0.0501192 -4.16147e-21)
(1.01215 -0.0101227 0)
(0.988542 -0.00608253 -1.69159e-21)
(1.00396 -0.0168283 2.94062e-21)
(1.05027 -0.151103 3.27771e-20)
(0.992644 -0.0598086 0)
(0.968687 -0.0352598 6.92069e-21)
(0.466474 -0.0946044 3.99183e-21)
(0.992199 0.00106661 0)
(-0.0101938 0.059 0)
(0.365669 -0.0377611 0)
(0.972447 -0.0135681 -3.31016e-23)
(0.937786 0.0860039 -8.99099e-22)
(1.08488 -0.100354 -2.95303e-20)
(1.02654 -0.00654493 0)
(0.991082 0.00886655 0)
(1.04969 -0.0518165 -1.98593e-22)
(0.920899 -0.170424 -6.25714e-21)
(1.04882 -0.0462859 -1.50702e-21)
(1.13139 -0.16708 -2.85883e-20)
(1.11578 -0.203588 0)
(1.03244 -0.00419009 4.49192e-23)
(0.975882 -0.0319191 9.82452e-23)
(0.913386 -0.070996 3.70644e-22)
(0.999528 -0.156399 -8.95284e-21)
(1.07071 -0.171907 -2.62537e-20)
(0.0894456 -0.0195722 0)
(0.885724 -0.192282 -4.76385e-20)
(0.998269 -0.0168119 0)
(1.03507 -0.0136228 6.99397e-21)
(0.665169 0.00401295 7.53978e-21)
(0.535371 -0.104397 -3.00217e-20)
(1.12018 -0.18965 0)
(1.09192 -0.0941368 0)
(0.978994 -0.0433785 0)
(1.02935 -0.00487321 1.97703e-23)
(1.00263 -0.0101423 -8.1383e-21)
(0.981659 -0.16409 0)
(1.03144 -0.00395558 0)
(1.02288 -0.0492296 -7.76631e-21)
(1.02888 -0.00553486 4.83756e-24)
(0.99181 -0.00186452 0)
(0.882241 -0.190602 -5.78983e-21)
(1.05488 -0.153457 -1.83971e-20)
(0.9804 -0.0304692 -2.28558e-22)
(1.03103 -0.00424158 3.08572e-23)
(0.378942 -0.0403178 2.70074e-21)
(0.89874 0.0712904 0)
(0.989861 -0.00141252 -2.8582e-21)
(1.01172 0.00228906 -5.56223e-23)
(1.04985 0.00758046 2.93122e-22)
(1.02094 -0.0012751 -1.36885e-20)
(-0.0070364 0.00346331 0)
(0.96003 0.0127326 8.59515e-21)
(0.988876 0.0394433 -4.51472e-21)
(0.1718 -0.0270407 -2.3759e-20)
(0.866277 -0.0607448 4.90505e-22)
(1.09144 -0.0892624 3.04215e-20)
(0.223896 -0.00639447 -2.29629e-21)
(0.243676 -0.0321828 0)
(0.973903 -0.0140719 -4.75663e-22)
(1.07898 -0.0970998 -2.30304e-20)
(1.02636 -0.00686145 1.56766e-24)
(1.06722 0.00267856 0)
(1.02088 -0.0856451 -1.37571e-20)
(0.835318 -0.159067 2.07045e-20)
(0.856724 -0.0191158 -3.18573e-21)
(1.12779 -0.165297 2.56938e-20)
(1.04342 -0.0797586 -1.14443e-20)
(0.992302 0.00776673 -1.0136e-21)
(1.0119 -0.0751636 3.38971e-21)
(0.975563 0.0195175 -1.60256e-24)
(0.889392 0.0790516 -5.01045e-22)
(1.07865 -0.149635 2.75866e-20)
(1.02004 -0.00983567 7.57634e-21)
(0.988781 -0.0449135 1.27307e-21)
(0.99746 0.0070712 -4.93802e-22)
(1.0646 -0.072361 -8.95872e-21)
(1.04889 -0.16756 -1.22794e-20)
(1.0374 -0.0172082 -2.25732e-20)
(0.997293 -0.0143228 -1.71665e-21)
(1.00596 -0.080883 -5.24493e-21)
(1.02999 -0.0222764 -4.21349e-21)
(1.0518 -0.147919 1.59821e-20)
(1.01348 -0.163482 0)
(1.05835 -0.1691 1.67532e-20)
(1.00868 -0.073319 -9.84633e-21)
(1.12415 -0.19247 2.1861e-21)
(0.992585 0.00740204 -1.12603e-21)
(0.974106 -0.0633571 0)
(0.966337 -0.00869658 -4.07317e-22)
(0.0883176 -0.00380993 0)
(1.00065 -0.0295102 -4.24097e-21)
(0.999888 0.000941605 4.46014e-22)
(0.748012 -0.170335 -4.3799e-21)
(1.0018 -0.0404668 0)
(0.442474 -0.0618066 -1.07318e-20)
(0.439413 -0.0919472 3.72056e-20)
(-0.0284643 0.0314066 -2.05625e-20)
(0.923317 -0.0168232 -7.99729e-21)
(0.996779 0.00876421 2.29464e-22)
(0.817961 -0.183564 4.10641e-21)
(1.04142 -0.0206247 2.57578e-23)
(0.991266 -0.00188408 2.10687e-22)
(1.02678 -0.00159699 -5.54496e-23)
(0.991694 -0.00213364 -3.50659e-21)
(1.0462 -0.0297842 9.80532e-25)
(0.990886 -0.0445939 0)
(0.996711 -0.0649704 2.63828e-22)
(1.03016 -0.0039794 6.39107e-24)
(0.961838 -0.167818 -3.10722e-21)
(0.980253 -0.0803171 -9.76943e-22)
(0.931312 -0.161289 2.54404e-22)
(0.987948 -0.00387069 0)
(1.02545 -0.00165049 0)
(1.02318 0.000592404 5.88963e-23)
(1.03321 -0.163305 0)
(0.700492 -0.115508 0)
(1.11714 -0.127755 0)
(1.06364 -0.0737359 -2.27166e-21)
(1.04281 -0.0211032 -1.6288e-23)
(1.00647 0.000971774 0)
(0.991222 0.000663956 0)
(0.987201 -0.00666908 -3.3108e-21)
(1.096 -0.21413 8.56906e-21)
(0.358132 -0.0850363 -7.96798e-22)
(1.02924 -0.0215156 4.26553e-21)
(1.02975 -0.00420438 2.68185e-23)
(1.03658 -0.0105857 0)
(0.987623 -0.00681679 3.1907e-21)
(0.97644 -0.150739 0)
(-0.0234957 -0.0228652 1.89467e-20)
(1.01287 -0.0769344 1.31501e-20)
(0.621449 -0.107967 2.92217e-20)
(0.894533 -0.0568932 -4.27215e-22)
(0.997413 -0.0136873 1.75399e-21)
(1.09104 -0.18424 0)
(0.0728692 0.0222405 -1.40495e-20)
(1.0794 -0.100623 -2.86824e-20)
(0.806168 -0.146838 -1.82392e-20)
(1.03944 -0.0273263 0)
(0.994606 -0.0452817 -1.1709e-21)
(1.1143 -0.12636 1.90195e-21)
(0.992925 -0.0439266 0)
(0.961079 0.0662735 -2.16069e-21)
(1.02183 -0.0118431 0)
(0.847285 -0.0693743 -7.00536e-24)
(1.01815 -0.000458788 -4.56371e-24)
(1.11041 -0.0737385 3.73546e-20)
(0.310281 -0.0456853 1.61005e-21)
(0.988773 0.0163071 -2.51693e-22)
(1.00078 -0.0364206 0)
(0.979795 -0.0421909 4.76794e-23)
(0.990607 0.00162663 1.69326e-23)
(1.03907 -0.0654356 -1.55444e-20)
(0.935437 -0.021152 3.03312e-21)
(0.0988706 0.115095 1.52588e-22)
(1.07619 -0.14745 0)
(1.03853 -0.182939 -1.02738e-20)
(0.95655 -0.00122444 3.04909e-21)
(1.02804 -0.00515355 1.79407e-23)
(0.988253 -0.00355585 -1.47839e-21)
(-0.108884 0.0438182 -2.22604e-20)
(1.11797 -0.202224 0)
(0.988623 -0.0590322 4.8153e-22)
(0.470084 -0.0990507 -2.72036e-20)
(1.00024 0.0146962 -2.12857e-22)
(1.01917 -0.000300775 1.25835e-22)
(1.02759 -0.00163889 2.07067e-24)
(0.857218 -0.0598904 1.19839e-22)
(1.00657 -0.213029 -4.50627e-20)
(1.0115 -0.0558158 6.33198e-21)
(0.994359 -0.0238249 0)
(0.995158 -0.0192185 -6.09214e-23)
(1.05961 -0.0567381 1.02881e-20)
(1.02404 0.000609299 0)
(0.00440154 0.0519283 1.4304e-20)
(0.988451 -0.0284097 1.5053e-21)
(0.4747 -0.0674451 -1.10831e-20)
(1.03385 -0.00322407 3.55228e-23)
(1.02973 -0.0206507 0)
(0.261116 -0.00891883 0)
(-0.00598766 -0.0463838 0)
(1.13218 -0.200111 -2.1005e-20)
(0.977168 0.019275 9.17918e-24)
(0.744923 -0.168268 2.82669e-20)
(1.02063 -0.0127294 -1.4277e-20)
(0.968955 -0.0332967 -2.65036e-22)
(1.01009 -0.148534 6.04636e-21)
(1.01481 -0.126063 0)
(1.02775 -0.0605616 0)
(0.000202785 0.0238871 -1.97985e-20)
(0.966989 -0.00224448 4.27052e-22)
(0.977008 0.0310504 0)
(1.06747 -0.220502 0)
(0.999565 0.00108423 -2.47243e-22)
(0.994121 -0.000124651 0)
(1.01138 -0.0418063 -2.56301e-21)
(0.993221 0.00768562 -5.68431e-22)
(0.00244162 0.0496929 -8.87655e-22)
(1.02816 -0.0837417 9.61565e-21)
(1.07324 -0.174634 1.39321e-20)
(0.981249 -0.0309248 7.13664e-22)
(1.02612 -0.0136786 0)
(0.99165 0.00743561 0)
(0.930138 -0.0254733 -3.12462e-21)
(0.989324 0.000118398 0)
(0.96669 -0.00111728 0)
(1.02623 -0.00138716 2.23133e-23)
(0.996939 -0.0125755 0)
(0.995065 -0.00150239 0)
(0.549139 -0.102863 -1.32099e-21)
(0.989045 -0.00621945 -1.77739e-21)
(1.03 -0.0015842 -4.31084e-24)
(0.967674 -0.0493448 0)
(1.03622 -0.0141985 0)
(0.282836 -0.0187692 0)
(1.01709 -0.000184829 0)
(0.974643 0.0148233 1.53539e-22)
(1.10936 -0.150093 5.09687e-20)
(0.970388 -0.150414 4.37153e-23)
(0.877395 0.11313 -1.14395e-22)
(0.993047 0.00124862 -2.21696e-23)
(0.954293 -0.0308266 -7.38332e-22)
(0.659052 -0.118674 -1.82862e-20)
(1.0293 -0.0321281 0)
(0.673828 -0.137175 -1.69945e-20)
(1.10768 -0.0731635 -3.89305e-20)
(0.99408 0.00757837 -1.59811e-21)
(0.959745 0.0475313 1.55238e-21)
(-0.00403496 0.0629786 3.58546e-20)
(0.958247 -0.0288526 3.07119e-22)
(1.02114 -0.0623157 -4.3738e-21)
(0.991868 0.000825038 0)
(1.02887 -0.00392691 -2.76574e-23)
(0.90926 0.082943 -1.268e-21)
(1.00933 -0.128304 -1.76143e-20)
(0.989923 -0.0707917 -1.7638e-21)
(1.00966 -0.0580282 0)
(0.959888 0.0523691 8.4301e-22)
(1.01867 -0.00130509 1.30057e-20)
(0.975431 0.0163095 -7.56836e-24)
(1.14541 -0.162916 4.20464e-21)
(0.926637 0.138007 -2.64522e-22)
(1.04541 -0.148943 0)
(0.880755 -0.0212 3.67001e-21)
(1.029 -0.0198598 1.35711e-20)
(1.04678 -0.146 0)
(1.09347 -0.160924 -1.1062e-20)
(0.451565 -0.11772 -3.40649e-20)
(1.0103 -0.0546688 2.09186e-22)
(0.4768 -0.079759 -7.04396e-22)
(1.05612 -0.193071 0)
(1.03731 -0.0137498 6.60537e-21)
(0.294976 -0.0410585 1.86038e-20)
(0.975569 -0.0606203 0)
(0.738581 -0.131915 -1.12939e-20)
(0.122672 0.12018 2.83425e-21)
(0.63233 -0.11559 0)
(0.86498 0.0245673 -2.07335e-21)
(1.0159 -0.0918713 0)
(0.993461 0.00731763 1.60338e-21)
(0.989369 -0.0418457 2.42083e-21)
(-0.0362005 -0.0187271 -2.54669e-20)
(0.169282 -0.0149487 0)
(0.984276 -0.00527555 -2.50654e-21)
(1.00897 0.000660869 0)
(1.09528 -0.146141 0)
(1.02766 -0.0533877 0)
(1.0326 -0.00169352 8.99541e-23)
(-0.0138395 -0.0298829 -2.10613e-20)
(1.00046 0.0138946 2.18271e-22)
(1.01562 -0.0185541 -4.00315e-21)
(-0.0107623 0.0516051 9.80837e-22)
(0.279111 -0.010067 -4.48583e-22)
(0.935022 0.0106379 1.99487e-21)
(0.991109 -0.00186759 0)
(1.02276 -0.00343404 -1.40251e-20)
(-0.00886527 -0.0415753 -6.27431e-21)
(1.09094 -0.210606 0)
(1.11893 -0.185306 0)
(0.977258 -0.0133787 9.20099e-22)
(0.592511 -0.100553 -1.86548e-20)
(1.00269 -0.156643 0)
(0.756344 -0.128808 6.48194e-21)
(1.08106 -0.131686 -1.99409e-20)
(1.09169 -0.10973 0)
(1.02245 -0.0324003 -3.94024e-21)
(1.03514 -0.0156774 0)
(0.68567 -0.0374128 -8.70273e-21)
(1.12819 -0.118219 -3.78659e-20)
(0.0381756 -0.00662906 -3.58357e-20)
(0.967089 -0.0137525 1.05676e-21)
(1.08657 -0.094257 0)
(0.0185509 0.0410614 -2.86056e-20)
(0.70292 -0.124507 8.9623e-21)
(0.344995 -0.0273084 0)
(1.02577 -0.0135455 -5.67977e-21)
(1.09248 -0.0832783 3.01714e-20)
(0.989853 -0.00109619 1.41422e-21)
(1.00964 -0.0751183 -1.14471e-20)
(1.00014 -0.0356367 0)
(0.707806 -0.144124 -5.11292e-21)
(1.01165 -0.000354776 0)
(0.19632 -0.0504515 -2.97104e-20)
(1.03212 -0.00140241 -1.23891e-22)
(1.10726 -0.148167 -3.97013e-20)
(1.00071 -0.0122963 2.59352e-23)
(1.00573 -0.151844 -4.71191e-21)
(1.09291 -0.0913385 0)
(1.08939 -0.0829306 -3.21884e-20)
(0.620639 -0.10809 -1.24539e-20)
(1.10262 -0.113173 2.29368e-20)
(0.994057 -0.06584 -5.01951e-22)
(0.992703 0.000558606 0)
(1.10336 -0.14806 5.37842e-20)
(0.917056 -0.0683226 3.01858e-21)
(0.976484 -0.0488265 -4.61777e-22)
(1.02027 -0.049171 0)
(0.273708 -0.00597897 0)
(1.04786 0.00641075 0)
(0.19499 0.120856 -3.58819e-22)
(0.856205 0.0693114 0)
(1.01899 -0.0271628 0)
(0.539833 -0.120877 0)
(-0.022629 0.0161317 0)
(0.302822 -0.024459 -4.39194e-22)
(0.863303 0.00502221 2.04457e-21)
(0.966793 -0.0121527 -1.24732e-21)
(0.98578 -0.00711846 1.99673e-22)
(0.467816 -0.0626597 1.11572e-20)
(1.01664 -0.000593351 0)
(0.873979 -0.15897 -2.67965e-24)
(0.253132 -0.0416979 0)
(0.98851 -0.00461766 -1.59377e-21)
(1.06326 -0.0351157 -1.09394e-20)
(1.01604 -0.166192 0)
(0.92551 0.0990082 -4.23356e-21)
(0.350515 -0.0520159 6.27294e-22)
(1.02417 -0.0226325 6.34101e-21)
(1.00796 0.00253135 0)
(0.55192 0.0538122 4.65006e-21)
(0.287762 -0.043097 0)
(1.06736 -0.172349 3.38816e-20)
(1.0214 -0.0604042 -7.58493e-23)
(0.978534 -0.012703 0)
(0.847683 0.0499238 0)
(-0.0306426 0.0426043 1.34108e-20)
(1.09091 -0.162576 -1.01742e-20)
(1.03031 -0.00148005 2.32763e-24)
(1.01642 -0.0942949 6.89253e-21)
(0.99046 0.00105095 0)
(0.990897 -0.000382218 1.24705e-21)
(1.05369 0.0247182 2.31699e-21)
(1.00441 0.000615139 0)
(0.989975 -0.166087 -3.13802e-21)
(0.844766 0.0664329 -2.32174e-21)
(1.01511 -0.0191835 2.07066e-21)
(0.972972 0.0105104 0)
(0.985406 -0.00732188 -2.13267e-22)
(1.01256 -0.042587 -2.64514e-21)
(0.128827 -0.00378719 -1.1826e-20)
(0.550928 -0.0886699 -1.34942e-20)
(1.05603 -0.083824 0)
(0.478175 -0.0777139 -1.40257e-21)
(1.00116 -0.0119821 2.4894e-21)
(1.05138 -0.083519 0)
(0.985746 -0.00631758 3.16833e-21)
(0.990321 0.000795921 -2.26301e-21)
(1.01035 -0.0256344 0)
(1.01415 -0.0188725 1.34969e-20)
(0.186808 -0.0179813 2.01377e-20)
(1.02227 -0.0132389 -5.09343e-21)
(1.11042 -0.126931 2.80079e-20)
(1.02562 -0.0143543 0)
(1.02257 -0.0635176 1.38941e-20)
(1.03806 0.035338 0)
(0.0018956 -0.046803 2.34823e-20)
(0.989705 -0.000288834 -1.84978e-21)
(0.697425 -0.00825742 9.5609e-21)
(0.988666 -0.0715663 1.16193e-21)
(1.07437 -0.206498 1.58662e-21)
(1.02937 -0.0857122 0)
(1.04037 -0.090579 1.74606e-21)
(0.036264 1.21583e-05 1.75552e-20)
(1.06684 -0.0718505 -8.70442e-21)
(0.990803 -0.0581129 0)
(0.720693 -0.143118 1.8953e-20)
(0.914171 -0.0847375 4.38484e-22)
(-0.0196418 0.0150833 0)
(1.04244 -0.105976 -1.39957e-20)
(0.848862 -0.0157565 0)
(1.00082 -0.0283936 2.72567e-21)
(1.10127 -0.109902 -7.35764e-20)
(1.08109 -0.127933 0)
(0.366553 -0.0552858 0)
(0.992489 0.00106731 -7.76022e-22)
(0.105029 0.0536369 -4.90273e-22)
(0.988183 -0.00304443 1.47589e-21)
(0.988063 -0.0044154 -1.57716e-21)
(0.0403465 0.112583 -1.12566e-20)
(1.06341 0.00799336 -2.7166e-22)
(1.05093 -0.191258 0)
(1.02796 -0.0620335 0)
(0.989471 -0.000277543 -1.32324e-21)
(0.977218 -0.0322392 3.39444e-22)
(0.989626 -0.000887885 0)
(1.02322 -0.0034812 1.17172e-20)
(1.0452 -0.0234017 -1.39605e-23)
(1.03832 -0.0261209 1.88129e-20)
(1.11475 -0.225706 0)
(0.988649 -0.00514615 0)