/*--------------------------------*- C++ -*----------------------------------*\
| =========                 |                                                 |
| \\      /  F ield         | OpenFOAM: The Open Source CFD Toolbox           |
|  \\    /   O peration     | Version:  v2012                                 |
|   \\  /    A nd           | Website:  www.openfoam.com                      |
|    \\/     M anipulation  |                                                 |
\*---------------------------------------------------------------------------*/
FoamFile
{
    version     2.0;
    format      ascii;
    class       volVectorField;
    location    "900";
    object      cellDisplacement;
}
// * * * * * * * * * * * * * * * * * * * * * * * * * * * * * * * * * * * * * //

dimensions      [0 1 0 0 0 0 0];


internalField   nonuniform List<vector> 
13917
(
(0.0158561 0.143052 0)
(0.00256759 0.110895 0)
(0.0150636 0.12613 0)
(0.0104756 0.0677581 0)
(0.00109315 0.0908189 0)
(0.00255269 0.110132 0)
(0.0121728 0.0885287 0)
(0.00154677 0.117694 0)
(0.0141586 0.0584882 0)
(0.0125576 0.148443 0)
(0.0017534 0.117266 0)
(0.0082489 0.0699541 0)
(0.000310021 0.00145895 0)
(-0.000438471 0.122529 0)
(0.00298985 0.102738 0)
(0.0158806 0.142419 0)
(-2.74136e-06 0.00241717 0)
(0.00217176 0.11731 0)
(0.0137338 0.126047 0)
(0.0149522 0.147787 0)
(0.00554711 0.114507 0)
(0.00291807 0.077942 0)
(0.0128201 0.109573 0)
(0.00282185 0.0773415 0)
(0.00934637 0.088925 0)
(0.00493705 0.115266 0)
(0.00168176 0.132804 0)
(0.0129966 0.148444 0)
(0.00339383 0.116875 0)
(-2.02782e-05 0.00162972 0)
(0.0140774 0.148465 0)
(0.0147166 0.10406 0)
(0.00932828 0.0772591 0)
(0.0159253 0.137147 0)
(0.000383363 0.0543586 0)
(0.00130585 0.117542 0)
(0.00621066 0.0998231 0)
(0.000135015 0.00330702 0)
(0.0123246 0.0879071 0)
(0.00698793 0.118462 0)
(-6.14115e-06 0.000740673 0)
(-0.000198725 0.0379263 0)
(0.013785 0.052193 0)
(0.0145471 0.119111 0)
(0.0144166 0.119742 0)
(0.00775652 0.137744 0)
(0.00575375 0.113588 0)
(0.00827822 0.146999 0)
(-0.000491533 0.114375 0)
(0.000415798 0.0549369 0)
(0.00812914 0.0692251 0)
(0.0098422 0.13372 0)
(0.0162881 0.120775 0)
(0.00583641 0.0775728 0)
(0.00624704 0.0789159 0)
(0.0100955 0.133552 0)
(0.0148485 0.148478 0)
(0.0126827 0.109953 0)
(-0.000191317 0.0369756 0)
(0.00745204 0.137705 0)
(0.00385382 0.143807 0)
(-0.000178189 0.0621682 0)
(-2.72904e-06 0.000251169 0)
(0.00936049 0.0876355 0)
(0.0146521 0.140367 0)
(-3.50343e-05 0.00247446 0)
(0.00298887 0.117086 0)
(0.00124962 0.116978 0)
(0.00195841 0.117736 0)
(0.0160939 0.131161 0)
(0.0147584 0.13709 0)
(0.0159461 0.137172 0)
(0.0104854 0.0416543 0)
(-0.00017322 0.0365581 0)
(0.00558232 0.115346 0)
(0.00828917 0.095586 0)
(0.00179866 0.0889284 0)
(-0.000166964 0.0356099 0)
(0.00832893 0.0944172 0)
(0.00935181 0.0785406 0)
(0.00451628 0.0876183 0)
(4.55587e-06 0.00280865 0)
(0.010418 0.0398091 0)
(0.0156061 0.1289 0)
(0.00221067 0.0231925 0)
(0.00152977 0.122371 0)
(0.0146683 0.103457 0)
(0.00112286 0.0120051 0)
(0.00690282 0.117832 0)
(-4.14009e-06 0.00289062 0)
(-1.29712e-05 0.00471264 0)
(0.0139009 0.052061 0)
(-0.000598494 0.113816 0)
(0.000295292 0.0475479 0)
(0.0058005 0.0879542 0)
(0.00317947 0.117442 0)
(0.00159948 0.130012 0)
(4.45795e-05 0.00386128 0)
(0.00128562 0.0133823 0)
(0.00343964 0.128794 0)
(-7.08062e-06 0.000712586 0)
(-8.67942e-06 0.000867311 0)
(0.00459282 0.0886041 0)
(0.000103032 0.00701452 0)
(0.00177151 0.0880054 0)
(0.0164406 0.105759 0)
(0.0131944 0.146738 0)
(-0.000212374 0.0615751 0)
(-0.000217813 0.0383264 0)
(0.00129531 0.133112 0)
(0.00226003 0.00438752 0)
(0.0158758 0.138201 0)
(0.0035864 0.117227 0)
(0.00748732 0.14715 0)
(0.0147312 0.139641 0)
(0.00787182 0.0986667 0)
(0.0137364 0.124914 0)
(-1.93008e-05 0.00298039 0)
(0.0147449 0.126388 0)
(0.0103652 0.0274004 0)
(7.01053e-06 0.0034866 0)
(-0.000121391 0.03512 0)
(0.00277615 0.117604 0)
(0.0121656 0.128268 0)
(0.016349 0.117459 0)
(0.015636 0.129515 0)
(0.00953797 0.0851462 0)
(0.00540016 0.116174 0)
(0.0011322 0.0570347 0)
(0.0123213 0.128308 0)
(0.014162 0.0822793 0)
(0.00533759 0.134654 0)
(0.0164379 0.110327 0)
(0.0077161 0.0989465 0)
(0.0147403 0.108909 0)
(0.00100577 0.132748 0)
(0.00299094 0.143049 0)
(0.0166125 0.103262 0)
(0.00454854 0.115925 0)
(7.09552e-05 0.00179435 0)
(-0.00106656 0.0999543 0)
(-0.000149974 0.0351546 0)
(0.0164591 0.104557 0)
(0.00302332 0.0610656 0)
(0.00989947 0.0420378 0)
(-0.000307726 0.0391654 0)
(0.0148758 0.136262 0)
(-0.00111425 0.0795635 0)
(0.00937733 0.147161 0)
(0.00595423 0.0786522 0)
(0.0070128 0.116157 0)
(-7.93742e-06 0.000769634 0)
(0.00981168 0.0401516 0)
(0.0104814 0.0257159 0)
(0.00130503 0.130357 0)
(0.00182386 0.0794219 0)
(0.000114295 0.00806643 0)
(0.0165138 0.10698 0)
(-1.05436e-05 0.00143766 0)
(-1.60372e-05 0.00244159 0)
(0.00330109 0.044813 0)
(0.0116435 0.144093 0)
(0.00494581 0.104539 0)
(-0.00116624 0.0995811 0)
(0.00790075 0.145083 0)
(0.00280922 0.129727 0)
(0.0162719 0.121643 0)
(0.00598181 0.145745 0)
(-3.73145e-06 0.000335996 0)
(0.00436029 0.116595 0)
(0.00265305 0.0790803 0)
(0.0162477 0.119013 0)
(0.0142442 0.0560079 0)
(0.0045986 0.143229 0)
(0.0092643 0.127853 0)
(-1.11719e-05 0.00122726 0)
(0.0106118 0.0664609 0)
(0.00939073 0.134798 0)
(0.0141548 0.0808052 0)
(0.00481242 0.105452 0)
(0.0135127 0.0555844 0)
(0.00268563 0.077948 0)
(0.00797635 0.0703534 0)
(0.0106453 0.137403 0)
(0.0146582 0.127683 0)
(0.00502438 0.134606 0)
(0.00785808 0.0696758 0)
(0.0103745 0.137558 0)
(-2.5049e-05 0.00201459 0)
(0.00177348 0.121951 0)
(0.00903423 0.128065 0)
(0.0143791 0.118658 0)
(0.0112645 0.13491 0)
(0.0157864 0.14505 0)
(0.00032457 0.0481356 0)
(0.0163077 0.119682 0)
(0.00960589 0.100147 0)
(0.0164343 0.109977 0)
(0.000383144 0.0532366 0)
(0.00191992 0.078619 0)
(0.00613514 0.111499 0)
(0.0160539 0.133297 0)
(0.016596 0.104162 0)
(0.00565436 0.0977928 0)
(0.00223206 0.133865 0)
(0.00382527 0.112643 0)
(0.00709242 0.116773 0)
(-0.000138173 0.0356688 0)
(0.00968828 0.134515 0)
(0.00435098 0.0877831 0)
(0.000976002 0.0447167 0)
(0.000690383 0.0917614 0)
(0.000598488 0.0923209 0)
(0.00914195 0.147009 0)
(0.0147501 0.107699 0)
(0.00476723 0.116017 0)
(0.0138025 0.144199 0)
(0.000447576 0.00802259 0)
(-9.35902e-05 0.0199711 0)
(-9.68896e-05 0.0196828 0)
(0.00595772 0.14603 0)
(0.0109164 0.136181 0)
(0.00986358 0.138466 0)
(0.00397234 0.0169148 0)
(-1.84585e-06 0.000169772 0)
(0.000610691 0.132966 0)
(0.0162863 0.120851 0)
(-7.39266e-05 0.0181687 0)
(-6.93571e-05 0.0174568 0)
(-5.59654e-06 0.000685525 0)
(-0.000106049 0.0203088 0)
(-0.000109012 0.0200112 0)
(0.0159394 0.137922 0)
(0.00953111 0.146626 0)
(0.00370604 0.0822101 0)
(-8.16917e-06 0.000718259 0)
(0.0107349 0.127547 0)
(0.0160662 0.13211 0)
(-1.08645e-05 0.00191593 0)
(0.0036534 0.0160297 0)
(0.00192653 0.133678 0)
(0.0165278 0.101814 0)
(0.0108729 0.136817 0)
(0.0140249 0.144289 0)
(0.00850703 0.131961 0)
(0.00311667 0.0615193 0)
(0.00668183 0.145555 0)
(0.0108711 0.12801 0)
(0.00377757 0.116673 0)
(0.0134539 0.119008 0)
(0.00576763 0.0967177 0)
(0.00970849 0.146814 0)
(0.0103709 0.0311385 0)
(0.00876069 0.119336 0)
(0.00950023 0.126247 0)
(0.00350945 0.0833267 0)
(-2.71881e-06 0.000325351 0)
(0.00952457 0.0864991 0)
(0.00098198 0.0863215 0)
(0.000137227 0.0498374 0)
(0.0163326 0.11826 0)
(-0.00101183 0.117727 0)
(-6.90314e-05 0.0376991 0)
(-6.18731e-05 0.0170747 0)
(0.00183088 0.0806167 0)
(-5.90628e-05 0.0174582 0)
(0.010474 0.0294774 0)
(0.000570044 0.00283573 0)
(0.0111828 0.111006 0)
(-8.79053e-05 0.0383208 0)
(0.0166892 0.0990781 0)
(0.0130169 0.146476 0)
(0.00689319 0.0642114 0)
(0.00130437 0.0859833 0)
(0.00675598 0.13826 0)
(-0.000125241 0.0159165 0)
(0.00391347 0.127732 0)
(0.0163342 0.118079 0)
(-0.000124567 0.0161849 0)
(0.0160922 0.131136 0)
(0.000140648 0.0486607 0)
(0.0113785 0.143881 0)
(-8.95536e-06 0.000972483 0)
(0.00315654 0.100202 0)
(0.00346442 0.0843515 0)
(0.00264626 0.0599416 0)
(0.0129627 0.132879 0)
(0.000170707 0.0054427 0)
(0.00250797 0.130153 0)
(0.008807 0.10775 0)
(-0.00123383 0.117625 0)
(-0.000321366 0.039901 0)
(0.00294156 0.133584 0)
(0.0166848 0.0993363 0)
(-1.50401e-05 0.00263921 0)
(0.0118742 0.117765 0)
(0.00104738 0.0880149 0)
(0.00743718 0.100682 0)
(0.00111898 0.089783 0)
(0.00852864 0.0935686 0)
(0.000231632 0.0477993 0)
(0.000202777 0.00670818 0)
(0.00889696 0.1347 0)
(-0.0001179 0.0769081 0)
(0.00879409 0.118545 0)
(0.00857578 0.092351 0)
(0.00335932 0.0161733 0)
(0.0164901 0.107906 0)
(0.0160408 0.134053 0)
(0.00095126 0.053632 0)
(-0.000178336 0.0136702 0)
(0.00760032 0.100413 0)
(-0.000272822 0.0930027 0)
(0.0156536 0.107268 0)
(0.0139239 0.146314 0)
(0.00513957 0.143096 0)
(-2.17384e-05 0.00153872 0)
(0.00570924 0.134111 0)
(0.00131186 0.0848486 0)
(0.0155017 0.129657 0)
(-0.000357832 0.0937835 0)
(0.0151433 0.124811 0)
(0.000517846 0.00228908 0)
(0.00298522 0.101861 0)
(0.00198612 0.133043 0)
(0.00233332 0.0800882 0)
(0.00243306 0.11154 0)
(0.0142443 0.119249 0)
(-6.43075e-06 0.00213859 0)
(0.0162136 0.120181 0)
(0.00176576 0.0186428 0)
(0.0153271 0.075842 0)
(-0.000160591 0.015568 0)
(0.0148638 0.148115 0)
(0.000883925 0.028978 0)
(0.00907431 0.116948 0)
(0.00384451 0.113359 0)
(-1.60156e-05 0.00114058 0)
(-8.13133e-06 0.00290824 0)
(0.0137358 0.117168 0)
(0.0162871 0.110701 0)
(0.00603481 0.0862597 0)
(0.0022297 0.0797453 0)
(0.0158432 0.13791 0)
(0.0163643 0.108042 0)
(0.00842337 0.142682 0)
(-0.000325879 0.121907 0)
(-0.00011729 0.0157315 0)
(0.00412924 0.0821879 0)
(0.0165905 0.0992032 0)
(0.00597057 0.134234 0)
(-0.000116952 0.0160951 0)
(0.00101219 0.0891194 0)
(0.00699189 0.0743448 0)
(0.00440867 0.121417 0)
(0.0090247 0.117792 0)
(0.0114532 0.132397 0)
(0.00719718 0.131168 0)
(0.00383332 0.127275 0)
(0.0149414 0.0824528 0)
(0.0157429 0.143227 0)
(0.00116064 0.0583937 0)
(0.0061863 0.0860016 0)
(0.000985191 0.0913521 0)
(0.0136409 0.13299 0)
(-8.47686e-06 0.0017011 0)
(0.0158323 0.144352 0)
(0.0149927 0.0806355 0)
(-0.000312987 0.0199656 0)
(0.00622296 0.0803816 0)
(0.0065126 0.133279 0)
(-0.000182273 0.0140723 0)
(-0.000554062 0.112482 0)
(-0.000220151 0.0355386 0)
(0.0101828 0.1383 0)
(0.0071089 0.138282 0)
(0.00365993 0.114124 0)
(0.00694237 0.0658599 0)
(0.0136687 0.138605 0)
(-0.000170727 0.0157278 0)
(0.00730005 0.145007 0)
(0.0112091 0.135646 0)
(-0.000228289 0.0351183 0)
(-0.000452885 0.113073 0)
(0.00312816 0.0865796 0)
(-0.000250817 0.017907 0)
(0.000247937 0.0356812 0)
(0.0147072 0.147638 0)
(-0.000251898 0.0177953 0)
(0.00683755 0.0974263 0)
(0.000497871 0.133547 0)
(0.0040752 0.126058 0)
(0.00578079 0.0946825 0)
(0.00877336 0.144132 0)
(0.0164889 0.0945573 0)
(0.00716907 0.0944095 0)
(0.01281 0.133628 0)
(0.00448342 0.0806617 0)
(0.00378884 0.126049 0)
(0.0149389 0.126628 0)
(0.00158358 0.0164198 0)
(0.0130376 0.0778993 0)
(0.00875993 0.0915712 0)
(0.00275413 0.058251 0)
(0.00157434 0.033099 0)
(0.00125893 0.060211 0)
(0.00229849 0.143212 0)
(0.0031014 0.129968 0)
(0.00622155 0.0832541 0)
(0.00114064 0.060805 0)
(0.00287691 0.0748493 0)
(0.0110266 0.119645 0)
(0.000791661 0.115574 0)
(-0.000143714 0.0155301 0)
(-4.25627e-06 0.000384572 0)
(0.0155695 0.107977 0)
(0.00638754 0.132788 0)
(0.00272557 0.0614899 0)
(0.00689574 0.0962964 0)
(0.00600606 0.142088 0)
(0.000303009 0.129224 0)
(-3.40691e-05 0.00238506 0)
(0.0138719 0.126091 0)
(0.0154681 0.128887 0)
(-0.000182307 0.024846 0)
(-0.000137408 0.0154666 0)
(0.00546177 0.11194 0)
(0.00148715 0.031129 0)
(-0.000144155 0.0158245 0)
(0.00365375 0.0832414 0)
(-0.000138003 0.0157845 0)
(-0.000175263 0.024248 0)
(0.00735387 0.145947 0)
(0.00457664 0.0817259 0)
(0.00719848 0.119615 0)
(0.0166722 0.0999909 0)
(0.0117245 0.117702 0)
(0.00101772 0.0461764 0)
(0.00960487 0.0404037 0)
(0.00930823 0.144128 0)
(0.00591155 0.111731 0)
(0.0163648 0.116624 0)
(-0.000155531 0.0155981 0)
(0.0057379 0.0354942 0)
(-0.000177592 0.0162775 0)
(-0.000118473 0.0205514 0)
(0.00615917 0.0989331 0)
(0.00290343 0.0871623 0)
(0.00592185 0.141718 0)
(-0.000338529 0.0358589 0)
(0.0165054 0.103121 0)
(0.0056132 0.0358603 0)
(0.0134485 0.0945339 0)
(-0.000347073 0.0371087 0)
(0.00428586 0.0866178 0)
(0.00879974 0.13168 0)
(0.00803805 0.142604 0)
(0.00701092 0.072958 0)
(-0.00042735 0.130497 0)
(0.00111733 0.0480285 0)
(0.000570102 0.0126517 0)
(0.0028203 0.0735296 0)
(0.00324414 0.0868947 0)
(0.000889247 0.0417096 0)
(0.000726107 0.00943451 0)
(0.0164651 0.109288 0)
(0.00446859 0.143646 0)
(0.000847715 0.0402061 0)
(0.00293774 0.134096 0)
(0.015394 0.110697 0)
(0.00131319 0.005099 0)
(0.0116081 0.120511 0)
(0.0159231 0.0854339 0)
(0.00932492 0.14484 0)
(0.0133334 0.0779706 0)
(0.016398 0.107361 0)
(-0.000288851 0.0195294 0)
(-0.000286991 0.019628 0)
(0.0030129 0.0875118 0)
(-2.91856e-05 0.00207357 0)
(-0.000360755 0.0377965 0)
(0.0056829 0.095823 0)
(0.00974016 0.141349 0)
(-1.113e-05 0.00457777 0)
(0.00587679 0.0760199 0)
(0.0059591 0.0877355 0)
(0.0135167 0.0699962 0)
(0.00620276 0.114451 0)
(0.0144254 0.127798 0)
(0.0134422 0.109972 0)
(-0.00028612 0.0415535 0)
(0.00119434 0.0865065 0)
(0.00236824 0.117712 0)
(0.00682864 0.124145 0)
(0.0061106 0.0829065 0)
(-0.000721347 0.122668 0)
(0.0118956 0.107498 0)
(0.00898626 0.107175 0)
(0.00666994 0.144577 0)
(0.00203589 0.0210155 0)
(0.00668691 0.124876 0)
(0.00923091 0.135555 0)
(0.000932411 0.0249241 0)
(0.0165839 0.104111 0)
(0.000589627 0.012708 0)
(-0.000120135 0.0201541 0)
(0.0111681 0.119948 0)
(-0.000156465 0.0159115 0)
(0.000470458 0.0087295 0)
(0.00873495 0.13425 0)
(0.0166766 0.0987799 0)
(-0.000194326 0.133396 0)
(0.00321822 0.0428584 0)
(0.0116186 0.0602016 0)
(-0.000252506 0.0432714 0)
(0.00898129 0.140773 0)
(0.00515624 0.138653 0)
(0.00596984 0.0813348 0)
(0.00612287 0.0780277 0)
(0.00295593 0.0393319 0)
(0.00983795 0.124576 0)
(-0.000862165 0.0702595 0)
(0.000964287 0.0574431 0)
(-1.07302e-05 0.00205741 0)
(0.00190353 0.0773822 0)
(0.00274582 0.0564966 0)
(0.000243169 0.0714467 0)
(0.0104429 0.103454 0)
(-1.15362e-05 0.00391618 0)
(0.013322 0.111331 0)
(0.000861308 0.0229483 0)
(0.00307607 0.0761335 0)
(0.00881474 0.0903341 0)
(0.0147571 0.146006 0)
(2.66023e-05 0.0112055 0)
(0.0123436 0.0701766 0)
(0.000167156 0.0503701 0)
(0.0134208 0.0934523 0)
(0.0118179 0.123442 0)
(0.00364453 0.120655 0)
(0.0094649 0.127075 0)
(0.00339825 0.129534 0)
(0.00840848 0.0897647 0)
(0.00258419 0.117214 0)
(0.0164025 0.111088 0)
(0.00800941 0.146028 0)
(0.0166758 0.0997644 0)
(0.000788742 0.0502761 0)
(0.00264816 0.0720891 0)
(-0.000304549 0.0418582 0)
(0.00687825 0.0523674 0)
(0.0149878 0.13857 0)
(-0.000132427 0.0163417 0)
(-0.00113566 0.0943251 0)
(0.00977768 0.0992828 0)
(0.0161286 0.120646 0)
(0.0037437 0.128412 0)
(0.0136439 0.0550787 0)
(0.0118747 0.148113 0)
(0.00080305 0.040051 0)
(0.0155869 0.0878837 0)
(5.12981e-05 0.0047075 0)
(-9.40338e-05 0.0496189 0)
(0.0161449 0.120917 0)
(-0.000149911 0.0155877 0)
(0.0156957 0.115948 0)
(-3.50177e-06 0.00032678 0)
(0.000948495 0.00381339 0)
(0.00270214 0.0734153 0)
(0.0144508 0.126797 0)
(0.000187542 0.0711888 0)
(-3.67769e-05 0.0153729 0)
(0.0147651 0.116903 0)
(0.0114586 0.120324 0)
(-0.00117956 0.0843363 0)
(0.0149164 0.135112 0)
(0.0165432 0.10505 0)
(0.00889235 0.144978 0)
(2.86404e-05 0.0106511 0)
(0.016217 0.124542 0)
(-8.33941e-06 0.000782022 0)
(0.0035 0.14323 0)
(-0.00102246 0.0796636 0)
(-0.00012784 0.0500981 0)
(-0.000193574 0.0149547 0)
(-7.74503e-06 0.000768592 0)
(0.0118534 0.106786 0)
(0.0134968 0.0536504 0)
(-0.000150644 0.0158972 0)
(5.61421e-05 0.00460934 0)
(0.000567712 0.00349013 0)
(0.0148565 0.134573 0)
(0.00383601 0.0477722 0)
(0.0147363 0.100583 0)
(0.00575208 0.0750571 0)
(-3.68308e-05 0.0146309 0)
(-1.27727e-05 0.00178348 0)
(0.00809717 0.137303 0)
(0.0112461 0.142583 0)
(0.0123698 0.148011 0)
(0.0134158 0.118015 0)
(0.0105945 0.102444 0)
(0.012239 0.139485 0)
(0.0160858 0.130987 0)
(0.000236998 0.0367041 0)
(0.00905675 0.141974 0)
(0.000565255 0.00334195 0)
(0.0160948 0.0905894 0)
(0.00678103 0.0534304 0)
(0.0138331 0.137921 0)
(0.0026427 0.0549794 0)
(0.000258458 0.0725379 0)
(0.0100831 0.0419168 0)
(-0.00114067 0.0836257 0)
(0.0114989 0.109927 0)
(0.0143482 0.141981 0)
(-3.60887e-06 0.0042324 0)
(0.0112337 0.109652 0)
(0.000616416 0.0571133 0)
(-5.39375e-06 0.000533616 0)
(0.0156462 0.143896 0)
(0.00256526 0.128809 0)
(0.000504011 0.0580606 0)
(0.0113954 0.133273 0)
(0.00366852 0.0172158 0)
(-9.71452e-05 0.0470605 0)
(-5.78236e-06 0.000558451 0)
(0.0155963 0.143394 0)
(0.00387075 0.0468368 0)
(0.000950496 0.0873526 0)
(-0.000131973 0.0160014 0)
(0.000536017 0.0573504 0)
(0.0134895 0.133201 0)
(-7.56338e-06 0.000738732 0)
(0.0120646 0.131427 0)
(1.23836e-05 0.0029993 0)
(0.000936729 0.0284555 0)
(0.00334043 0.143617 0)
(0.014771 0.101389 0)
(0.00589167 0.0802277 0)
(0.0166669 0.100324 0)
(0.0157118 0.114805 0)
(0.000904627 0.113557 0)
(0.00894205 0.135781 0)
(0.000762978 0.0385542 0)
(0.00283011 0.103384 0)
(0.0148056 0.146424 0)
(0.0162137 0.104348 0)
(0.00563738 0.111035 0)
(0.00638182 0.0996053 0)
(0.00021707 0.0732263 0)
(1.62489e-05 0.0035427 0)
(0.00154513 0.0613869 0)
(-2.12552e-05 0.00149153 0)
(0.0115882 0.125364 0)
(0.00900137 0.0991633 0)
(0.00606317 0.144804 0)
(0.0116207 0.110124 0)
(0.000435448 0.115139 0)
(0.00520656 0.139095 0)
(-8.62022e-05 0.0776447 0)
(0.00970258 0.114705 0)
(0.0115282 0.134389 0)
(0.0160699 0.132205 0)
(0.000262908 0.0483162 0)
(0.000180436 0.0789978 0)
(-1.56929e-05 0.0010962 0)
(0.000969873 0.0284142 0)
(9.52115e-06 0.00470667 0)
(-1.28956e-05 0.00171675 0)
(-0.000273799 0.0435702 0)
(0.000534807 0.00845972 0)
(0.0162005 0.125433 0)
(0.0148738 0.0746213 0)
(0.00018805 0.00953092 0)
(0.0142171 0.118134 0)
(-2.66202e-06 0.00464484 0)
(0.01386 0.145948 0)
(0.000112664 0.0481339 0)
(0.00106586 0.0567292 0)
(0.0166737 0.0991418 0)
(0.0120271 0.121441 0)
(-0.000502558 0.0325243 0)
(0.0103452 0.0495149 0)
(-0.000168124 0.0140347 0)
(0.000806006 0.0540435 0)
(0.0112412 0.0557136 0)
(0.0122444 0.0932892 0)
(0.00236222 0.0596781 0)
(0.0164747 0.110661 0)
(0.0086726 0.110845 0)
(-0.000934894 0.0732946 0)
(-0.000487802 0.0320434 0)
(0.000164396 0.0782843 0)
(0.0165686 0.103763 0)
(0.011513 0.061977 0)
(8.99797e-05 0.00567221 0)
(0.00058513 0.0578201 0)
(0.0163137 0.119083 0)
(0.000118618 0.133738 0)
(0.00952981 0.101483 0)
(0.0163872 0.115391 0)
(-0.0011103 0.0920676 0)
(0.000949086 0.0306886 0)
(0.000978149 0.055028 0)
(0.00596058 0.099281 0)
(0.0163274 0.109809 0)
(-0.000475105 0.0328371 0)
(0.0113059 0.11123 0)
(0.0111056 0.0558466 0)
(0.0122382 0.0719293 0)
(0.0161626 0.0897323 0)
(0.00141939 0.0843142 0)
(0.0116852 0.131785 0)
(0.0147887 0.0767789 0)
(0.00571801 0.0868937 0)
(0.00926653 0.0796726 0)
(9.43442e-05 0.00571181 0)
(0.0121423 0.0933242 0)
(0.00109679 0.0858721 0)
(0.0165035 0.095012 0)
(0.00714527 0.102275 0)
(-0.000248918 0.0476006 0)
(0.0164344 0.112834 0)
(-3.6134e-05 0.00273175 0)
(-0.00107582 0.0928563 0)
(0.00652196 0.098358 0)
(0.00312107 0.109209 0)
(0.0103939 0.0964208 0)
(0.0161727 0.104696 0)
(4.03849e-06 0.00339369 0)
(0.0156084 0.0851591 0)
(0.0114672 0.142206 0)
(-2.28042e-05 0.00146408 0)
(0.00718628 0.0518043 0)
(0.00732052 0.101999 0)
(0.000388084 0.00625487 0)
(0.00597869 0.0455716 0)
(0.0101461 0.0378118 0)
(0.00149879 0.0985638 0)
(-0.000351068 0.0365574 0)
(0.00816899 0.136785 0)
(0.0118575 0.132087 0)
(0.000684022 0.0369393 0)
(0.0164757 0.0972792 0)
(0.0140304 0.0598344 0)
(0.0134388 0.0719505 0)
(0.0115859 0.133567 0)
(0.00406854 0.0833589 0)
(0.0155047 0.0894048 0)
(0.00191421 0.130309 0)
(-8.30713e-06 0.0128564 0)
(0.0121888 0.12063 0)
(0.00844784 0.130107 0)
(0.014656 0.0779739 0)
(0.00143046 0.05452 0)
(0.000983066 0.0433442 0)
(0.00148437 0.0608071 0)
(0.0160778 0.132061 0)
(0.0091751 0.0769883 0)
(5.37082e-05 0.0482424 0)
(0.0151963 0.0772006 0)
(0.00243581 0.0611874 0)
(0.00104181 0.0489498 0)
(0.010252 0.132967 0)
(0.00221409 0.129893 0)
(0.000995626 0.0985113 0)
(0.000150148 0.129813 0)
(0.00460351 0.120701 0)
(0.0166491 0.0966316 0)
(0.0102733 0.036137 0)
(0.00172552 0.0896819 0)
(0.0131149 0.138142 0)
(-0.000148998 0.0495307 0)
(-0.000295919 0.0628006 0)
(-7.0926e-06 0.00285679 0)
(1.34192e-05 0.00485301 0)
(0.00995008 0.0533555 0)
(0.006838 0.103762 0)
(0.00359496 0.121367 0)
(0.00137977 0.0537263 0)
(-0.000186549 0.0133384 0)
(0.00165694 0.074107 0)
(-0.000988905 0.0803706 0)
(0.00667171 0.0983303 0)
(0.0134348 0.0760057 0)
(-0.000161626 0.0158845 0)
(0.013348 0.120303 0)
(0.00315954 0.101153 0)
(0.0100842 0.143637 0)
(0.000936136 0.0993272 0)
(-4.82777e-06 0.00210935 0)
(0.0142635 0.146326 0)
(0.00909614 0.0816864 0)
(0.0163096 0.11952 0)
(0.0135856 0.0493346 0)
(0.000532657 0.100756 0)
(0.00163042 0.0842843 0)
(0.000644703 0.046938 0)
(0.0070811 0.0500757 0)
(0.0160374 0.126665 0)
(0.0118675 0.0950329 0)
(0.000802281 0.114282 0)
(5.36866e-05 0.128803 0)
(0.00583244 0.0441076 0)
(0.0145828 0.0799188 0)
(-5.90208e-06 0.000520551 0)
(-0.00012385 0.059362 0)
(-0.000839958 0.0679312 0)
(-8.25121e-06 0.000721933 0)
(0.00734078 0.145652 0)
(0.0126051 0.0679383 0)
(0.000489528 0.101484 0)
(0.0135727 0.125059 0)
(-0.000259826 0.0898578 0)
(-1.74219e-05 0.0222634 0)
(3.21486e-05 0.00585832 0)
(0.00698109 0.131881 0)
(0.000721686 0.038447 0)
(0.00556735 0.0770973 0)
(0.00741912 0.092517 0)
(0.00248424 0.070585 0)
(0.0151249 0.0792514 0)
(-1.76478e-05 0.0213609 0)
(0.0021511 0.123315 0)
(0.005554 0.087222 0)
(0.0159152 0.140501 0)
(0.0163521 0.117251 0)
(-0.000170984 0.0944575 0)
(0.0165667 0.100574 0)
(-0.000211506 0.130911 0)
(0.0159042 0.14127 0)
(-0.000333862 0.0922452 0)
(0.000705007 0.0276939 0)
(-0.00011005 0.0456099 0)
(0.00837098 0.0541517 0)
(0.00826592 0.0853035 0)
(0.00304363 0.0412757 0)
(0.011998 0.0949583 0)
(0.00403812 0.0563568 0)
(0.000861055 0.116134 0)
(0.00567465 0.078126 0)
(0.0153261 0.128838 0)
(0.00917382 0.0753242 0)
(0.0148157 0.0676531 0)
(0.00667893 0.130324 0)
(0.000664378 0.0506873 0)
(0.00684498 0.119425 0)
(0.00898878 0.0826571 0)
(-5.94475e-05 0.0518052 0)
(0.0111814 0.0930074 0)
(-0.000169236 0.0153928 0)
(0.016677 0.0982018 0)
(0.0115583 0.126398 0)
(-0.000169077 0.0120487 0)
(0.000893375 0.0533239 0)
(0.00772184 0.0174695 0)
(0.00243607 0.0790725 0)
(0.00167504 0.0753475 0)
(0.00725763 0.144668 0)
(0.000790459 0.0292781 0)
(0.00284494 0.129031 0)
(0.00262652 0.0533031 0)
(-0.00030089 0.0199212 0)
(0.00287119 0.0986648 0)
(0.00337164 0.0601423 0)
(0.0156383 0.0858735 0)
(-0.000189446 0.0630047 0)
(0.000845355 0.0308565 0)
(-0.000481535 0.0314368 0)
(0.00952804 0.141813 0)
(0.00514471 0.0992264 0)
(0.0136223 0.118521 0)
(0.000607904 0.0380064 0)
(0.00317725 0.128534 0)
(-0.000175472 0.0150843 0)
(0.00177586 0.075754 0)
(0.0157816 0.143556 0)
(2.5528e-05 0.00483167 0)
(0.0104806 0.0694759 0)
(0.0140796 0.118624 0)
(0.015842 0.142603 0)
(-0.000180476 0.0152588 0)
(-0.000524387 0.0914933 0)
(0.0131059 0.138906 0)
(-0.000219631 0.0369205 0)
(0.00231397 0.0866217 0)
(0.0025358 0.0719465 0)
(0.0153606 0.129578 0)
(0.00718841 0.0194951 0)
(0.014799 0.117808 0)
(0.00845974 0.0634895 0)
(0.0166042 0.102967 0)
(0.00300107 0.0999996 0)
(0.0038152 0.138853 0)
(0.00120773 0.0611958 0)
(-0.000117641 0.0110991 0)
(-0.000258909 0.0180757 0)
(0.000534763 0.00711742 0)
(-3.10588e-05 0.00236122 0)
(0.0163966 0.110707 0)
(0.00649999 0.09327 0)
(0.0015342 0.036372 0)
(-0.000590645 0.0945214 0)
(-0.00022853 0.0364273 0)
(-0.000129794 0.0451498 0)
(0.0117788 0.124624 0)
(0.00705993 0.093743 0)
(0.0149027 0.139416 0)
(0.00733398 0.118687 0)
(0.0157781 0.0887348 0)
(0.00875318 0.135408 0)
(0.0120838 0.072416 0)
(0.016488 0.108949 0)
(0.00554963 0.0895526 0)
(0.0119948 0.122653 0)
(0.0063632 0.0348568 0)
(0.0165358 0.107333 0)
(-0.00029834 0.019988 0)
(0.0107772 0.0473134 0)
(-0.00017776 0.015438 0)
(-1.60045e-05 0.0502492 0)
(0.00610102 0.081356 0)
(-0.000172684 0.0152549 0)
(-0.00013866 0.0289882 0)
(-3.80035e-05 0.0395906 0)
(0.00706558 0.0470726 0)
(0.0101226 0.105437 0)
(-9.50837e-06 0.0120474 0)
(0.00658199 0.091989 0)
(0.0143415 0.110488 0)
(0.00850756 0.145515 0)
(0.0102791 0.143959 0)
(0.0140471 0.117479 0)
(0.00253619 0.0795297 0)
(-0.000265532 0.0185003 0)
(0.00373742 0.0516959 0)
(0.0133174 0.137488 0)
(-0.000877007 0.069465 0)
(0.0166493 0.101272 0)
(-0.000128822 0.0189852 0)
(0.000754874 0.0292193 0)
(0.00144747 0.0108571 0)
(0.00462861 0.0766451 0)
(-0.000123914 0.0184406 0)
(-0.00017889 0.0166169 0)
(0.00464308 0.0492231 0)
(0.00965114 0.115709 0)
(0.00158591 0.0364183 0)
(0.0134241 0.147877 0)
(-0.00050223 0.0937805 0)
(0.00166251 0.0456841 0)
(0.0160095 0.12678 0)
(0.00658551 0.0353887 0)
(0.00132287 0.0607645 0)
(-0.000190744 0.0605896 0)
(0.0154741 0.143856 0)
(0.00639254 0.125197 0)
(-1.41288e-05 0.0017398 0)
(-0.000509113 0.0331407 0)
(0.000477335 0.0526801 0)
(0.001117 0.0594476 0)
(0.0164467 0.0996412 0)
(-0.000118047 0.0465793 0)
(0.000965211 0.129352 0)
(0.0106215 0.0698874 0)
(0.000318512 0.101816 0)
(0.00107681 0.0464513 0)
(-9.90228e-05 0.0368451 0)
(0.00622598 0.11204 0)
(-0.000137961 0.0897652 0)
(0.00847954 0.0885376 0)
(0.0160806 0.13083 0)
(-0.000168469 0.065695 0)
(0.000245291 0.00600048 0)
(0.00221141 0.0873142 0)
(0.00790084 0.0207258 0)
(0.000937175 0.0418376 0)
(0.0152887 0.104967 0)
(0.0150596 0.0698871 0)
(0.0089018 0.098775 0)
(0.0163147 0.118844 0)
(0.0132938 0.147704 0)
(-7.97624e-05 0.0889102 0)
(0.0153345 0.10565 0)
(-5.2546e-05 0.038164 0)
(0.0164798 0.110217 0)
(-0.000108589 0.0355083 0)
(0.00484743 0.142362 0)
(0.00976824 0.1255 0)
(0.0131747 0.0770638 0)
(0.0083291 0.0873039 0)
(0.00320476 0.139521 0)
(-0.000545714 0.133628 0)
(0.0164536 0.102583 0)
(-0.000179112 0.0143267 0)
(-0.00110208 0.081501 0)
(-0.000174605 0.0156004 0)
(0.00412702 0.0560193 0)
(0.015102 0.0709327 0)
(0.00547255 0.0861959 0)
(0.00830866 0.0631394 0)
(0.00433234 0.134512 0)
(0.0159631 0.137798 0)
(-0.00011257 0.0365126 0)
(0.0145919 0.0595011 0)
(0.0161094 0.12997 0)
(-3.95388e-06 0.000367698 0)
(-0.000111735 0.0163459 0)
(-0.00122955 0.0950005 0)
(0.013104 0.145399 0)
(0.00831458 0.0837933 0)
(-6.94589e-06 0.000649439 0)
(0.0121265 0.0875157 0)
(0.0092974 0.042559 0)
(0.00102678 0.0577861 0)
(0.00139644 0.0981372 0)
(0.00464098 0.102928 0)
(0.00827978 0.0524601 0)
(-0.00105961 0.0738457 0)
(-0.000182823 0.014738 0)
(-0.000390924 0.0339837 0)
(-0.000828601 0.0687416 0)
(-0.000145174 0.0649201 0)
(0.0164555 0.111623 0)
(0.0105037 0.049443 0)
(0.00902649 0.0749346 0)
(-0.000229815 0.0173275 0)
(0.0157467 0.144688 0)
(-0.000241663 0.0174439 0)
(-0.00018974 0.0145493 0)
(0.00549111 0.112789 0)
(0.0118729 0.0386577 0)
(0.0105907 0.0714418 0)
(-0.000177909 0.0149034 0)
(0.00961776 0.143698 0)
(-0.000274502 0.0478899 0)
(0.00203274 0.0802261 0)
(0.013687 0.106993 0)
(0.00284528 0.0595799 0)
(-1.84344e-05 0.00119314 0)
(0.0130724 0.120955 0)
(0.01537 0.109754 0)
(0.0156858 0.0828557 0)
(0.00931013 0.139236 0)
(-0.000480322 0.0334377 0)
(0.00636701 0.141338 0)
(0.0160656 0.12838 0)
(0.000123629 0.00324361 0)
(0.00966672 0.139105 0)
(-0.000116261 0.0169007 0)
(0.00967151 0.124269 0)
(0.010476 0.128177 0)
(-0.000896967 0.0678291 0)
(0.0111346 0.0871362 0)
(-7.1409e-05 0.0501536 0)
(0.01 0.0968316 0)
(0.000544028 0.115683 0)
(0.00596357 0.0944143 0)
(0.00834251 0.144475 0)
(0.0107698 0.110481 0)
(0.00855887 0.13065 0)
(0.00614897 0.143086 0)
(1.27971e-05 0.00534954 0)
(0.0159587 0.0937199 0)
(0.0071017 0.0956204 0)
(0.0047289 0.0777722 0)
(6.32381e-05 0.0696822 0)
(-0.000378117 0.0333775 0)
(-0.000132537 0.0122896 0)
(0.000545508 0.0337835 0)
(0.00843787 0.087543 0)
(0.0164695 0.10287 0)
(0.00153786 0.0384994 0)
(0.0063189 0.0936917 0)
(0.0136228 0.050971 0)
(0.00571384 0.0893141 0)
(0.00659107 0.0685715 0)
(0.00708671 0.130657 0)
(0.015803 0.0857878 0)
(0.00213432 0.0806254 0)
(0.000814147 0.0516507 0)
(0.00239697 0.122908 0)
(-0.000229326 0.0174721 0)
(0.00274866 0.109511 0)
(0.0164886 0.108658 0)
(0.00991447 0.0584793 0)
(0.00704793 0.0263006 0)
(-9.21177e-05 0.132829 0)
(8.01561e-05 0.0487923 0)
(0.00623174 0.0949241 0)
(0.0160279 0.129181 0)
(0.0164779 0.110398 0)
(0.00161153 0.0956718 0)
(0.00927917 0.124542 0)
(0.00536005 0.105249 0)
(0.0163997 0.114714 0)
(0.00260411 0.128151 0)
(0.00636836 0.113601 0)
(0.0146104 0.137104 0)
(0.00094164 0.0560866 0)
(0.0110815 0.127647 0)
(0.00892342 0.145328 0)
(0.0148905 0.125793 0)
(-0.00102961 0.0715284 0)
(-0.000515919 0.11119 0)
(-0.000174139 0.0235758 0)
(0.00300293 0.0749141 0)
(0.000440097 0.00314966 0)
(0.00667227 0.069786 0)
(0.00303514 0.0773552 0)
(0.0164622 0.0968397 0)
(2.23722e-05 0.00477131 0)
(0.0111508 0.116064 0)
(0.000139043 0.0224306 0)
(0.0156569 0.0818931 0)
(0.00952033 0.14447 0)
(0.00687546 0.0943384 0)
(0.00854978 0.140866 0)
(-0.000258426 0.129949 0)
(0.0072136 0.0295286 0)
(0.0158642 0.0876693 0)
(0.00433663 0.103277 0)
(0.00704029 0.0917092 0)
(0.00592354 0.0480205 0)
(0.0165596 0.105986 0)
(0.013253 0.118313 0)
(0.0159661 0.137376 0)
(0.00778447 0.107037 0)
(0.00464909 0.145175 0)
(0.00815673 0.130398 0)
(-0.000170756 0.0143908 0)
(-0.000125863 0.0951562 0)
(0.011092 0.109535 0)
(-0.000190104 0.0148905 0)
(0.00338221 0.0615897 0)
(0.00692029 0.136735 0)
(0.00601868 0.0473678 0)
(0.00701956 0.103513 0)
(0.00514991 0.115315 0)
(0.00469462 0.102116 0)
(0.0120297 0.0381028 0)
(0.0137171 0.107991 0)
(0.00381782 0.138378 0)
(0.00346456 0.0463731 0)
(0.00709745 0.135649 0)
(0.000295518 0.102516 0)
(0.00541492 0.0775395 0)
(0.00349998 0.0506828 0)
(-0.000313705 0.038569 0)
(0.0165559 0.0982941 0)
(0.0122526 0.138816 0)
(0.000518391 0.0437123 0)
(0.0147844 0.0662397 0)
(-0.000177344 0.0133267 0)
(-0.00032365 0.0906765 0)
(0.0166671 0.100307 0)
(0.00823157 0.0613476 0)
(0.000725434 0.0174589 0)
(-0.000179497 0.0234966 0)
(0.00793292 0.0191177 0)
(0.000230346 0.00325047 0)
(0.0059045 0.0984242 0)
(0.016526 0.0998643 0)
(0.00179612 0.0769867 0)
(0.0120504 0.078095 0)
(-0.000378411 0.0328297 0)
(-0.000181672 0.0137369 0)
(0.0139074 0.117857 0)
(0.0128682 0.145146 0)
(0.00474886 0.144866 0)
(0.0106241 0.0474034 0)
(0.000278581 0.00926432 0)
(0.000814713 0.0196483 0)
(0.00648132 0.091153 0)
(0.0158901 0.0844253 0)
(0.0166739 0.0980042 0)
(-0.000174127 0.0124719 0)
(0.00676043 0.130858 0)
(0.00585085 0.110908 0)