/*--------------------------------*- C++ -*----------------------------------*\
| =========                 |                                                 |
| \\      /  F ield         | OpenFOAM: The Open Source CFD Toolbox           |
|  \\    /   O peration     | Version:  v2012                                 |
|   \\  /    A nd           | Website:  www.openfoam.com                      |
|    \\/     M anipulation  |                                                 |
\*---------------------------------------------------------------------------*/
FoamFile
{
    version     2.0;
    format      ascii;
    class       volVectorField;
    location    "200";
    object      U;
}
// * * * * * * * * * * * * * * * * * * * * * * * * * * * * * * * * * * * * * //

dimensions      [0 1 -1 0 0 0 0];


internalField   nonuniform List<vector> 
13917
(
(1.09597 0.158299 -1.98368e-20)
(1.02576 0.0537976 0)
(0.246588 -0.0228694 0)
(1.08425 -0.0162956 0)
(0.996239 0.00512268 2.60043e-21)
(0.357742 0.0323521 0)
(0.207135 -0.0200619 0)
(0.245587 -0.0226873 7.2853e-20)
(0.135561 -0.0219238 0)
(1.13092 0.196926 2.3424e-20)
(1.23006 -0.0211105 -5.36028e-21)
(1.18243 -0.0446448 -3.24095e-21)
(1.08536 -0.0175334 0)
(-0.184162 -0.000267014 -6.27285e-20)
(0.969178 0.109099 4.00605e-21)
(0.994159 0.105338 1.59619e-21)
(1.0189 0.0594576 -1.33027e-21)
(1.17853 0.0723228 -9.4983e-20)
(1.1797 -0.0457993 0)
(1.00171 0.00559333 0)
(0.999977 0.00112454 2.31093e-22)
(0.192056 -0.0193713 -6.60867e-21)
(1.00118 0.00945509 0)
(0.282454 -0.025296 -2.82735e-20)
(0.995298 0.0196197 -1.88774e-20)
(0.219077 -0.0219705 0)
(0.780974 0.038041 -1.38949e-19)
(0.751088 0.124105 1.07752e-19)
(0.697286 0.558623 -9.10506e-21)
(1.19688 0.159852 1.11555e-20)
(1.11293 0.151883 -2.51571e-20)
(1.06527 0.116086 -1.53344e-20)
(0.833604 0.0756586 2.36379e-20)
(0.909984 0.00962876 -2.11671e-20)
(0.991547 0.0166627 1.75154e-20)
(0.876157 -0.0418677 0)
(1.00106 0.00885829 -5.94479e-21)
(-0.0584201 -0.00770369 0)
(1.09898 -0.0229831 -2.24866e-20)
(0.000794311 0.00594127 -9.59436e-20)
(1.01032 0.001026 -3.86338e-23)
(0.999989 0.000474865 -5.44267e-21)
(1.02603 0.00291342 5.28995e-21)
(0.692405 0.202062 -8.74229e-20)
(1.05051 0.0345673 0)
(0.890895 0.023146 0)
(1.17712 0.0692596 9.7118e-20)
(1.20096 0.0418792 2.34897e-20)
(0.10028 0.0979218 0)
(1.00404 0.0009568 7.05281e-22)
(1.11782 0.0357939 0)
(0.965056 0.0172612 4.91723e-21)
(0.0730819 0.0736111 0)
(0.905293 0.010825 -5.73047e-22)
(1.01748 0.0605825 0)
(1.10777 0.0652724 -6.17685e-21)
(1.22635 -0.0199756 -1.74253e-20)
(0.996535 0.0374042 0)
(1.08844 0.0680889 0)
(1.04858 0.0337323 0)
(0.308235 0.0323245 9.55708e-20)
(1.02758 0.0540525 1.52181e-21)
(-0.142689 0.00423104 7.31304e-20)
(1.00184 0.00608544 -1.21309e-21)
(0.383647 0.0462461 0)
(0.844188 0.304963 4.62877e-20)
(0.995417 0.00142748 -4.98781e-21)
(0.987971 0.00284245 6.95639e-21)
(1.23538 0.0260689 0)
(1.05968 0.165933 5.72247e-21)
(0.996634 0.00513819 -5.62567e-21)
(0.164151 -0.0241605 0)
(-0.150527 -0.0143449 5.90284e-20)
(0.995876 0.019072 1.47034e-20)
(0.0994051 0.170988 2.76068e-19)
(1.18088 -0.070262 0)
(-0.177345 -0.00914401 -1.71146e-20)
(1.0707 0.0407984 2.31994e-20)
(0.232724 -0.0226744 -2.07416e-20)
(0.999903 0.00233473 1.39725e-20)
(1.0001 0.0035509 0)
(0.995974 0.00131742 1.16226e-20)
(0.400122 0.109608 -8.21154e-21)
(-0.0366871 -0.00879074 0)
(-0.104235 -0.0111434 1.20064e-19)
(1.06956 0.0389912 -1.46384e-20)
(1.00041 0.00464048 7.56404e-21)
(1.00959 0.39409 -5.26658e-20)
(1.11559 0.0349429 -2.41244e-20)
(1.02664 0.00287852 -8.65543e-21)
(-0.111456 -0.0130037 -2.58766e-20)
(1.16874 0.188362 -3.34962e-20)
(1.02938 0.0311708 4.11949e-21)
(0.973235 0.0646319 -1.02723e-20)
(0.966336 0.383521 1.20338e-19)
(0.387029 -0.027726 0)
(1.2264 0.00509183 2.48948e-20)
(1.19462 0.0508283 0)
(1.21317 -0.0724096 1.68343e-20)
(0.602374 0.122465 -1.17559e-19)
(1.01386 0.00749087 5.94252e-22)
(0.844305 0.00732101 4.43418e-20)
(0.683306 0.186482 9.9079e-20)
(1.08267 0.0336264 -1.20387e-20)
(1.0207 0.0160745 -5.09224e-21)
(0.172478 -0.0234192 0)
(0.779186 0.504788 -3.83789e-20)
(1.20406 0.0425965 -6.58601e-20)
(1.02105 0.0602911 4.63243e-22)
(1.10944 0.166686 0)
(-0.167112 -0.0172711 -7.32046e-20)
(0.00835373 0.00451558 3.52272e-20)
(1.19664 -0.0519508 4.7265e-20)
(0.152386 -0.023244 -3.56942e-20)
(0.94768 0.0168636 8.99591e-21)
(0.0880101 -0.156315 1.618e-19)
(1.00145 0.0174657 2.10513e-21)
(0.197698 0.062295 0)
(-0.0751096 0.00144647 0)
(0.90629 0.0235268 4.63191e-20)
(0.999984 0.000938581 0)
(1.23396 0.0275308 -3.40655e-20)
(-0.0864842 -0.0012963 0)
(0.760369 0.11782 8.03183e-20)
(1.0061 0.000867162 0)
(0.974791 0.0617805 2.09607e-20)
(1.04394 0.0384922 0)
(1.00564 0.000692023 -1.59165e-22)
(1.02236 0.00219647 4.56035e-21)
(0.362004 -0.0145062 -4.17149e-20)
(-0.00168165 -0.00559649 0)
(0.950159 0.0158274 3.52026e-20)
(1.05084 0.0359544 9.51938e-21)
(0.999979 0.000888243 3.69501e-21)
(0.889494 0.0562305 -5.28483e-20)
(0.292819 -0.0261991 0)
(1.09233 0.162398 4.07791e-20)
(0.578584 0.122374 1.50251e-19)
(0.995096 0.00194491 1.10161e-20)
(0.907387 0.0192172 -4.24075e-20)
(0.983777 -0.0388316 -7.40239e-20)
(1.03178 0.0177531 -1.83852e-22)
(0.961802 0.030172 0)
(0.644895 0.195835 1.08762e-19)
(0.987318 0.00329821 0)
(0.287732 -0.0235245 -3.65905e-21)
(0.764845 0.568372 -1.3728e-20)
(0.967006 0.0175633 0)
(1.02998 0.0148665 0)
(1.05811 0.124976 1.22416e-20)
(1.18571 0.0125029 -2.85699e-21)
(0.0979615 -0.189882 -1.77732e-19)
(1.2081 -0.0166165 -1.5765e-20)
(1.01558 0.204074 3.13813e-23)
(1.08991 0.0914029 0)
(-0.0793513 0.0121047 0)
(1.05534 0.162029 2.08456e-21)
(0.725398 -0.0235918 -4.26891e-20)
(-0.195214 -0.00925715 1.79793e-20)
(0.897144 0.0560555 -5.53555e-20)
(0.938387 0.0539473 3.43604e-20)
(0.784533 -0.0221866 0)
(1.00004 0.0024272 0)
(1.2236 0.0035232 0)
(1.19565 -0.0499127 -5.15654e-20)
(1.21543 -0.0703382 0)
(1.08117 0.0346368 2.53515e-20)
(1.19091 0.0296518 4.71968e-20)
(1.04168 0.0290006 1.17261e-20)
(0.837514 0.00284163 -2.88408e-20)
(1.03594 0.199643 6.71669e-21)
(-0.247632 -0.0159714 -4.21806e-20)
(1.19814 -0.0601984 -3.27452e-20)
(1.01575 0.070128 0)
(0.389692 -0.0237379 0)
(1.00209 0.223462 8.16122e-22)
(0.0159982 -0.00775339 0)
(0.160857 0.0618366 0)
(0.324145 -0.023812 2.70938e-20)
(1.016 0.0344249 0)
(1.17476 0.185347 3.82793e-20)
(1.11852 0.152068 2.46068e-20)
(1.03249 0.01717 -6.12548e-21)
(1.00042 0.00507856 -6.90353e-21)
(0.930926 0.126738 5.32303e-20)
(0.25746 -0.0242365 0)
(1.2352 0.215068 -9.91803e-22)
(-0.0362808 0.013833 -3.2505e-20)
(1.142 0.0819502 -1.6906e-20)
(1.21905 -0.0522125 0)
(0.95663 -0.0242965 5.13261e-20)
(-0.0697649 -0.00776322 1.20623e-19)
(1.22095 0.245202 -7.15406e-20)
(0.99986 0.00936079 0)
(0.560865 0.0547641 0)
(0.791521 0.0404077 8.71257e-20)
(1.00921 0.000393892 0)
(1.02962 0.032474 -2.75962e-21)
(0.842596 0.445516 2.53868e-20)
(1.11222 0.478022 -1.36502e-19)
(1.11417 0.00682688 1.73414e-20)
(1.00368 0.000850398 -6.55465e-22)
(1.18493 0.0235768 -7.77126e-20)
(1.18379 0.0106498 -1.01524e-20)
(-0.17112 -0.013407 0)
(0.943632 0.0322414 8.17465e-20)
(0.99186 0.0156295 3.02156e-23)
(0.995796 0.0387047 0)
(1.19343 0.0474721 -5.84698e-20)
(0.264824 -0.0245231 0)
(0.964078 0.0304578 0)
(0.195072 -0.0200242 -4.81738e-20)
(-0.206712 -0.0123263 0)
(1.21863 -0.0503625 0)
(1.02019 0.0164011 7.38468e-22)
(0.473406 0.387879 1.91237e-19)
(1.18524 0.0432513 -4.64789e-20)
(-0.2362 -0.016972 6.93729e-20)
(1.00415 0.0230963 2.5499e-21)
(0.430506 0.0560475 -8.2163e-20)
(1.0155 0.0331514 0)
(1.19838 0.137375 -1.21173e-20)
(1.01008 0.00127224 -6.48998e-22)
(-0.0615493 -0.0106599 9.79252e-20)
(0.161272 -0.0229019 7.3032e-20)
(0.994878 0.109313 7.82107e-21)
(1.13688 0.501009 2.31056e-20)
(1.0936 0.0911209 0)
(1.01926 0.0157722 2.48274e-21)
(0.914478 -0.0411771 2.12203e-20)
(1.19518 -0.0615919 3.09884e-20)
(1.14168 0.0786996 3.90349e-20)
(0.301074 -0.0254961 0)
(-0.220917 -0.0113206 -5.6928e-21)
(1.01507 0.0039379 0)
(1.06865 0.118033 2.83073e-20)
(-0.0899461 -0.0137929 -4.39088e-20)
(-0.136758 -0.0124401 -6.94662e-20)
(0.999998 0.00273018 6.40711e-21)
(1.00744 0.0113762 -8.022e-22)
(0.0454581 0.00571887 -4.73439e-21)
(1.23415 0.0101952 5.81415e-20)
(1.00004 0.000142675 -2.87795e-23)
(1.04825 -0.0467768 3.12107e-20)
(1.21471 0.0836521 -3.85924e-20)
(0.794673 -0.0269364 0)
(1.09706 0.142799 -3.85301e-20)
(1.00005 0.00264126 0)
(0.965631 0.223613 1.59296e-20)
(-0.206332 -0.0102518 0)
(1.05662 0.00430574 0)
(1.18422 0.204014 6.31148e-20)
(0.56158 0.165003 0)
(1.04368 0.0368079 4.44446e-21)
(0.995854 0.0354507 0)
(1.19453 -0.0171013 0)
(0.0658901 0.000660139 -3.49325e-20)
(1.20514 -0.0168917 1.72997e-20)
(0.93141 0.131668 2.09985e-20)
(0.972464 0.112157 0)
(1.00004 0.000249896 0)
(-0.109361 -0.000201655 -3.15015e-20)
(0.298165 -0.00914402 -7.97077e-20)
(0.974219 -0.0567217 3.33358e-20)
(1.01867 0.0160847 -5.35954e-22)
(-0.176885 -0.0143871 2.45608e-22)
(-0.156953 -0.00300183 0)
(0.65335 -0.0262189 4.78117e-20)
(0.217628 -0.0215001 -2.9544e-21)
(1.18426 -0.0718198 0)
(1.00004 0.00329921 5.32091e-21)
(1.00752 0.00105801 8.55441e-22)
(1.17913 0.0635579 -5.11351e-20)
(-0.107579 -0.0087732 5.81134e-20)
(1.22878 0.0486398 -1.18168e-19)
(1.08719 0.0651619 0)
(0.86947 0.0263492 -5.4125e-20)
(1.14477 -0.0499511 -2.51528e-20)
(1.02217 0.00145363 9.84141e-21)
(0.573498 0.0426423 -8.11735e-20)
(1.00219 0.00553849 -2.52181e-21)
(0.361057 -0.0246012 -5.605e-20)
(1.11128 0.00656184 2.38015e-20)
(1.00008 0.000145219 -8.28213e-22)
(0.99729 0.128063 3.92815e-21)
(1.00943 0.205446 3.78292e-22)
(0.784341 -0.00980586 -7.20115e-20)
(1.00565 -0.0452423 0)
(0.991067 0.164952 5.55063e-21)
(1.05955 0.0147977 -2.37581e-20)
(1.26544 0.123698 -5.41984e-20)
(0.306082 -0.0257139 -5.09702e-20)
(0.233164 -0.0137315 5.69526e-20)
(1.00379 0.0224113 -4.39565e-21)
(0.614311 -0.0233101 -4.65523e-20)
(0.998382 0.00108719 -6.73621e-22)
(1.05979 0.0133832 0)
(1.00154 0.0166057 3.80318e-21)
(0.773666 0.606754 1.53979e-20)
(1.0018 0.000979114 7.60253e-23)
(1.20248 0.139096 1.30825e-20)
(1.09243 0.14146 3.17956e-20)
(1.04122 0.0276694 8.20921e-21)
(1.18657 0.0211901 9.17688e-20)
(1.04524 0.0747381 7.79721e-21)
(0.111605 0.0210519 1.05143e-19)
(1.00214 0.218344 -7.45047e-22)
(1.16442 0.184326 2.97559e-20)
(1.03959 0.019384 0)
(0.996552 0.0342448 0)
(-0.179085 -0.0168873 0)
(-0.105155 0.000334411 0)
(1.00178 0.0182384 -1.98537e-22)
(1.00861 0.00112745 0)
(0.623542 0.0532044 7.29062e-20)
(1.02002 0.0328909 -3.45993e-22)
(-0.135235 -0.0148411 -2.89625e-22)
(1.03829 0.0191814 -3.63916e-21)
(-0.0487961 -0.0104019 -9.51294e-20)
(1.06838 -0.00835407 0)
(1.1636 0.363087 4.17448e-20)
(1.14537 0.0305707 0)
(0.101947 0.242212 -2.74423e-19)
(0.942309 0.0537041 -2.09284e-20)
(0.994178 0.0760236 0)
(0.495214 0.285738 1.06557e-19)
(1.00079 0.126054 -3.10123e-21)
(1.23417 0.0125557 0)
(0.913843 0.524753 0)
(0.9971 0.0544146 -8.57145e-21)
(-0.0339573 -0.00547502 0)
(0.570057 0.0344209 0)
(-0.147571 -0.003733 -1.13729e-21)
(0.920717 0.0285879 -3.2959e-20)
(-0.0558491 0.00402384 -3.11672e-21)
(1.07584 0.117532 0)
(-0.0949637 -0.0130857 5.55495e-20)
(0.514514 0.266366 7.88443e-20)
(0.894931 0.361849 8.78128e-21)
(0.911227 0.357999 -6.34469e-21)
(0.212259 -0.0217596 -2.55739e-20)
(0.999723 0.00297375 9.7369e-21)
(1.04153 0.203915 4.91148e-21)
(-0.143983 -0.01676 0)
(0.982872 0.0379321 0)
(1.00285 0.0872285 1.44774e-20)
(-0.147253 -0.00202391 5.69657e-20)
(0.828061 0.478005 -2.83802e-20)
(1.02149 0.0669408 -1.04224e-22)
(1.02329 -0.0220088 -4.72905e-20)
(0.669658 0.530343 0)
(1.01133 0.00645027 1.75861e-21)
(-0.0943658 0.00197987 -4.84969e-20)
(0.931645 -0.0339955 0)
(1.00235 0.00599592 2.58282e-21)
(1.01175 0.016574 0)
(0.998577 0.000839091 0)
(1.03054 0.0143762 -5.54225e-21)
(1.28677 0.123326 5.44729e-20)
(0.351273 -0.0233167 0)
(0.39909 -0.301169 1.31273e-19)
(-0.156132 -0.0165847 0)
(0.998437 0.0186484 -6.30089e-21)
(1.19011 0.205159 0)
(-0.187169 -0.0107588 -1.00843e-19)
(1.16641 0.0253857 3.38479e-20)
(0.18197 -0.019099 5.41035e-20)
(-0.0850757 -0.0101878 -5.4662e-21)
(0.142472 -0.0231156 0)
(1.01673 0.00722029 0)
(1.01638 -0.0628481 -2.31259e-20)
(1.01325 0.0161079 -2.32843e-22)
(0.531162 0.0736966 0)
(1.0473 0.034512 -7.79558e-21)
(0.0749705 0.286723 1.4373e-19)
(1.21571 0.0869237 4.15823e-20)
(1.09928 -0.00793368 1.29779e-20)
(0.999574 0.00364222 0)
(1.18999 0.0468912 -5.17448e-20)
(1.17962 0.188198 2.49124e-20)
(1.20152 0.0696374 5.13543e-21)
(0.288221 1.0392 1.63097e-20)
(-0.12319 -0.0148079 1.22362e-19)
(-0.254749 -0.0161778 -4.47413e-20)
(0.969649 0.23216 2.4785e-21)
(1.12547 0.19303 -8.35195e-22)
(1.00704 0.0107961 1.85374e-21)
(-0.118133 -0.0114862 8.84021e-20)
(0.18539 -0.0188497 -2.65139e-20)
(1.00107 0.0421996 0)
(1.10487 0.0928955 4.95381e-20)
(0.995886 0.0143476 1.30559e-20)
(1.28869 0.0884189 -4.11932e-20)
(1.06832 -0.00723006 0)
(0.999791 0.00249339 -1.27182e-20)
(1.03937 0.0776479 2.93064e-23)
(0.274574 -0.0276928 2.39273e-20)
(1.03725 0.0777254 -4.16351e-21)
(0.0872003 -0.0028075 0)
(-0.0843526 0.013481 2.23788e-20)
(1.22719 -0.0310291 0)
(0.429565 0.262341 3.07903e-19)
(0.999032 0.0540283 -1.16639e-20)
(0.477652 0.34662 -1.92695e-19)
(0.454414 0.288025 2.27576e-21)
(1.00263 0.0124108 -2.39494e-21)
(0.793762 0.476485 4.0877e-20)
(0.984324 0.0375405 0)
(0.994718 0.0169035 0)
(1.19392 0.16311 -1.31459e-20)
(1.00007 0.000375357 0)
(0.994105 0.0191475 -1.84904e-20)
(1.01355 0.0158476 -1.57105e-22)
(1.28539 0.125508 -2.43688e-20)
(0.99995 0.00184228 -4.36395e-22)
(-0.0446299 0.00274468 0)
(0.348555 -0.0350383 6.54657e-22)
(-0.133533 -0.00851905 9.93085e-20)
(1.21621 0.2493 2.32078e-20)
(0.074782 -0.00652659 0)
(-0.230168 -0.0162673 4.91981e-21)
(1.16446 0.0237807 0)
(0.998761 0.0178011 5.92269e-21)
(1.24155 0.101214 -9.1672e-20)
(1.0979 -0.0209068 3.35542e-20)
(1.07279 0.125088 -1.19518e-21)
(0.999896 0.0100822 -7.35023e-21)
(0.303885 -0.0245813 -5.70467e-20)
(0.227357 -0.022634 0)
(0.392185 -0.0386429 -5.67111e-22)
(0.982307 0.102901 -9.92358e-23)
(1.22313 0.0775311 -2.47084e-20)
(0.92426 0.0256444 0)
(1.10172 -0.0231944 0)
(1.20045 0.06664 -3.47124e-20)
(1.02294 0.0776713 -1.31453e-22)
(0.994612 -0.0652008 -6.79558e-20)
(1.02238 0.0589581 2.36646e-22)
(1.00179 0.00115482 2.82915e-21)
(-0.113159 -0.0159437 1.01903e-19)
(0.0100867 -0.00671675 9.46652e-21)
(0.026974 -0.00782717 0)
(1.15378 0.259611 5.47374e-21)
(-0.138802 -0.0125053 0)
(-0.010176 -0.00700928 3.51069e-20)
(-0.123417 -0.0180298 -5.71651e-20)
(-0.16533 -0.00751545 -7.06665e-21)
(1.02137 0.00243328 5.25695e-21)
(1.18646 0.0557734 5.76213e-20)
(1.0253 0.0775562 2.88663e-22)
(0.993284 0.0394572 3.67388e-21)
(1.02581 0.0461978 -1.26666e-19)
(1.18021 0.0664788 4.225e-20)
(1.02296 -0.000214432 2.8225e-21)
(1.18062 0.107511 5.75855e-20)
(1.1613 0.030327 -3.03045e-20)
(-0.164924 -0.00460685 0)
(1.00285 0.0129516 5.99652e-21)
(1.22592 0.0263195 -1.19049e-19)
(-0.0365501 -0.0126135 4.15747e-20)
(1.17943 0.37853 -1.09415e-19)
(-0.0347627 0.000461516 -6.22094e-21)
(0.999949 0.00160588 3.5869e-21)
(0.999828 0.0426984 5.84957e-21)
(1.01414 0.000571129 -3.71625e-21)
(1.04939 0.165268 0)
(1.01663 0.00669951 8.93815e-22)
(0.304509 -0.0280612 5.56124e-20)
(0.408842 -0.260054 -1.80477e-19)
(0.994506 0.159807 6.02569e-21)
(-0.0907114 -0.00614986 0)
(1.10791 0.0622149 2.35479e-20)
(1.22484 0.000555418 5.20596e-20)
(-0.0984037 -0.0181243 5.45469e-20)
(0.785817 0.570861 -6.91856e-21)
(1.22724 -0.0331741 2.65216e-20)
(0.94508 -0.0380019 7.22816e-20)
(1.22725 0.0247184 1.20978e-19)
(1.17192 0.12234 -5.00075e-20)
(1.2418 0.083211 9.89462e-20)
(1.16161 -0.0149961 0)
(1.22729 -0.0456988 5.2449e-20)
(0.371491 0.0880499 0)
(1.16423 -0.0325581 -3.61574e-20)
(1.21011 0.034898 -4.91278e-20)
(1.01842 0.000927427 3.95963e-21)
(0.964814 0.0560122 6.12094e-20)
(1.12064 0.0408698 -4.47701e-20)
(1.03982 0.00390018 0)
(1.04533 0.160809 0)
(1.07439 0.0391698 9.15784e-21)
(-0.16 -0.00672463 0)
(0.165244 -0.0230172 8.24824e-20)
(1.01909 0.0315604 0)
(1.02203 0.00118019 0)
(0.312658 -0.0276261 -3.37361e-20)
(-0.245922 -0.0152072 0)
(1.00007 0.000284535 2.13981e-22)
(-0.0588615 0.00266582 6.45707e-21)
(1.08131 0.0100823 -2.22793e-20)
(1.21003 0.230164 3.70451e-20)
(1.01836 0.0339117 2.74456e-22)
(-0.187596 -0.0128854 8.16634e-23)
(0.80422 -0.00410262 9.5139e-20)
(1.06182 0.123015 -1.24774e-20)
(1.04657 0.0510926 -2.44371e-21)
(0.0994085 -0.00916196 0)
(1.22893 0.212286 -8.36745e-20)
(-0.2257 -0.0190204 1.02619e-19)
(1.00005 0.000338628 2.33033e-22)
(-0.201105 -0.012014 0)
(0.135067 0.02143 -9.22158e-22)
(0.605141 0.051784 6.89401e-20)
(1.04001 0.00469496 0)
(-0.126827 -0.011822 -1.33655e-19)
(0.0991816 -0.0194771 4.02622e-20)
(1.16715 0.0184416 0)
(1.01244 0.0166751 1.36201e-22)
(1.01188 0.0593451 -1.84018e-21)
(1.17725 -0.0757233 -3.32561e-20)
(1.22986 0.0762774 2.38575e-20)
(1.02336 -0.000268563 0)
(1.01113 0.0156469 2.89882e-22)
(1.00598 0.00302693 0)
(1.00638 0.00318056 -7.43852e-23)
(-0.196065 -0.0144662 7.312e-20)
(1.05961 0.053029 -2.62866e-20)
(1.16509 0.0197388 1.53091e-20)
(1.23814 0.204771 -4.32026e-20)
(1.00756 0.000824548 -1.07232e-21)
(1.01329 0.00709655 6.82351e-22)
(1.22119 0.0743369 0)
(0.0204478 -0.0187158 0)
(1.12686 0.0889217 2.63391e-20)
(1.04321 0.0294446 -1.72986e-20)
(0.99509 0.0174436 7.8278e-21)
(0.992307 0.00299631 7.44343e-22)
(0.552506 0.0413975 0)
(-0.0391001 -0.00519585 -1.57917e-19)
(1.00057 0.00438303 5.3032e-21)
(0.992547 0.00603953 0)
(1.025 -0.0629638 5.2326e-20)
(1.16082 -0.0124037 0)
(1.14538 0.0284109 -5.3188e-20)
(0.998652 0.0408698 -1.07465e-20)
(1.0338 0.0805956 2.80243e-21)
(1.04645 0.118651 8.46374e-21)
(1.20853 0.0322544 4.20529e-20)
(0.911554 0.499524 -1.22056e-22)
(1.23791 0.212006 9.59062e-20)
(1.24479 0.0985579 5.39971e-20)
(1.22007 0.0556071 9.70319e-22)
(0.900457 0.0253991 0)
(1.16595 0.178059 -3.42786e-20)
(1.00282 0.0217005 0)
(-0.194435 -0.011187 1.56864e-20)
(0.992651 0.0023632 5.15045e-21)
(1.00334 0.0905457 -9.57794e-21)
(1.09884 0.00503902 0)
(0.977552 0.054978 -6.32477e-20)
(0.969681 0.307723 0)
(1.01224 0.00160866 -1.4755e-21)
(1.18138 0.368793 1.06126e-19)
(1.20612 0.157182 2.74111e-20)
(-0.106825 -0.0571022 0)
(1.21978 0.0581031 -5.2734e-20)
(0.880036 0.145757 -3.28929e-20)
(1.16463 0.0308492 0)
(0.999439 0.00401382 0)
(0.19033 -0.0162826 -8.62907e-20)
(1.17388 0.358603 7.10135e-22)
(0.108174 -0.0156949 -8.53844e-21)
(1.02166 0.0562747 5.45862e-23)
(1.1194 0.0732911 9.2492e-21)
(1.24016 0.201934 9.43183e-20)
(-0.0771481 -0.0111303 4.70294e-20)
(-0.190478 -0.00665183 4.9951e-21)
(1.19795 0.0513285 -6.74817e-20)
(1.16096 0.262738 -2.94443e-20)
(0.990186 0.103915 1.06938e-21)
(1.06751 0.0777352 0)
(0.99751 0.0414728 0)
(0.874525 0.241511 0)
(0.661461 0.178902 0)
(0.973258 0.00305636 -3.88442e-21)
(1.18379 0.0401764 0)
(0.561868 0.13998 0)
(0.117648 -0.0164806 0)
(-0.220429 -0.0178607 5.81675e-20)
(1.03606 0.0927654 1.4209e-21)
(1.22272 -0.00107691 -4.94026e-20)
(0.860561 -0.00388976 -1.70344e-19)
(1.0012 0.137459 2.94403e-21)
(0.967719 0.0324563 2.58532e-20)
(0.15473 0.498218 -6.64119e-20)
(0.281222 -0.0197647 9.38096e-20)
(0.254482 -0.0238489 1.53696e-20)
(1.2399 0.191609 0)
(1.02224 0.00251004 -5.61997e-21)
(-0.0851029 0.000405 -2.75969e-20)
(1.17764 -0.0718951 0)
(1.01214 0.00119692 2.37763e-21)
(1.10582 0.108007 3.55074e-20)
(1.20474 0.0105591 -3.26803e-20)
(0.842909 0.0777818 -7.15015e-20)
(1.19545 0.154611 0)
(0.22181 -0.0226405 -2.22136e-20)
(1.23912 0.0808257 -6.22379e-20)
(1.15206 -0.0138501 -2.68066e-20)
(0.190238 -0.0136478 -7.28383e-20)
(1.07579 0.047652 -2.2471e-20)
(-0.181579 -0.0078386 0)
(0.999993 0.00242043 -1.27747e-20)
(1.00058 0.00475053 -5.56693e-21)
(0.586724 -0.025426 -4.01162e-20)
(0.261206 -0.0205605 -7.12555e-20)
(0.366966 0.217606 1.39517e-19)
(1.0769 0.0459719 0)
(1.01732 0.0679793 0)
(0.992985 0.00637815 -1.02843e-20)
(1.14745 -0.0489319 0)
(0.0730697 0.134775 -1.55266e-19)
(1.21218 -0.0697258 4.17941e-20)
(1.07017 0.0787923 0)
(1.22566 -0.0321698 0)
(1.18876 0.0437192 5.14311e-20)
(1.01823 0.0348524 0)
(1.11734 0.507173 -5.59351e-20)
(1.20913 -0.0716435 0)
(0.981822 -0.0780125 -5.93297e-20)
(1.00624 0.024958 -3.68481e-21)
(1.23802 0.0748937 0)
(1.07284 0.0409402 -2.21731e-20)
(-0.0469365 0.0264394 -1.07009e-20)
(1.13708 0.195288 0)
(0.980736 0.302056 0)
(1.11984 0.0759509 0)
(1.00946 0.00364166 2.1277e-21)
(1.03677 0.00806068 7.80297e-21)
(1.04555 0.039383 3.71873e-21)
(0.939789 0.365874 -5.55018e-21)
(0.889074 0.0281717 0)
(1.2478 0.14375 -7.11786e-20)
(0.409468 0.774089 4.8407e-20)
(1.18918 0.0321185 -5.15982e-20)
(1.01074 0.00636513 2.81295e-22)
(1.23776 0.0880957 -7.97759e-20)
(0.362249 0.246898 -2.73134e-19)
(0.831078 -0.0364191 3.65529e-20)
(1.0554 0.00505799 0)
(0.898139 0.0416773 0)
(1.01046 0.015493 -2.12025e-22)
(1.12353 -0.0166471 7.75904e-21)
(1.09145 0.068301 0)
(0.0876455 -0.018339 4.35878e-20)
(0.999866 0.00255734 -6.89995e-21)
(1.16356 0.520647 4.16617e-20)
(1.12357 -0.0108166 0)
(1.22746 -0.0245843 3.79989e-21)
(1.1628 0.198086 0)
(-0.156763 -0.0138135 -6.29469e-20)
(1.0027 0.302438 -5.21036e-21)
(1.01148 0.0573332 2.05606e-21)
(-0.127504 -0.00927768 2.80048e-20)
(-0.262149 -0.0126193 -7.87657e-20)
(1.00881 0.0443115 -5.95522e-21)
(1.09752 0.00338562 -1.44803e-20)
(0.816547 -0.00024915 0)
(1.23338 0.19124 -3.63747e-20)
(1.22711 0.0463735 1.24372e-19)
(1.00017 0.000417523 1.10955e-22)
(1.04823 0.0512287 1.26749e-20)
(1.15363 0.353831 -9.02787e-20)
(1.10067 -0.00931145 0)
(1.199 0.0726065 -1.66837e-20)
(1.1915 -0.0159724 0)
(1.03773 0.00785566 -8.54521e-21)
(1.18364 0.00515928 2.02203e-20)
(0.251485 -0.0238414 0)
(1.05482 0.00250549 8.43972e-21)
(1.07884 -0.0103527 1.53254e-20)
(1.00532 0.00319705 -5.62849e-22)
(-0.110099 0.00151222 1.21023e-22)
(0.999952 0.00109197 -1.02814e-20)
(0.982965 0.0987265 -6.87027e-22)
(-0.243454 -0.0174531 4.09286e-20)
(0.993708 0.0825779 -4.55391e-22)
(0.301012 -0.0178493 -9.91642e-20)
(1.08787 0.094286 1.18038e-21)
(0.827405 0.081194 -6.48535e-20)
(1.00573 0.00336704 2.77788e-23)
(1.00756 0.238654 0)
(1.00119 0.015723 -4.14916e-21)
(1.16657 0.129076 1.26516e-20)
(1.00905 0.00219386 1.92358e-22)
(1.05979 0.29066 0)
(1.0806 0.011251 -1.13404e-20)
(0.143549 0.0853458 -7.36711e-20)
(0.398818 0.647785 -6.17527e-20)
(0.0191466 -0.0207988 -4.63834e-20)
(1.01348 0.00055121 -2.16026e-21)
(0.999659 0.00322816 -1.1989e-20)
(1.1618 0.173801 6.26494e-20)
(1.12693 0.157871 0)
(-0.118372 -0.00396974 6.05559e-20)
(0.0748134 -0.0225564 0)
(1.17767 0.0758434 0)
(0.992892 0.0158097 -5.18302e-21)
(1.27617 0.121487 4.68343e-20)
(0.335287 0.191323 0)
(1.00655 -0.0771067 6.64625e-20)
(1.24654 0.145928 4.20279e-20)
(1.1768 0.0570967 0)
(0.262152 -0.0260158 -2.20325e-20)
(1.08415 0.164887 0)
(1.14246 -0.0478807 0)
(1.23278 0.109232 0)
(0.826936 0.424226 1.68245e-20)
(1.17478 0.0769575 -1.4429e-20)
(0.292405 0.263422 2.09558e-19)
(1.17198 0.083286 -2.22313e-20)
(1.08798 -0.00595187 0)
(1.2077 0.0106507 -3.7994e-20)
(1.00497 0.128231 3.84237e-21)
(1.04499 0.0061944 2.14847e-20)
(1.12263 -0.0150021 -7.01649e-21)
(1.1124 0.162094 0)
(1.05389 0.122535 -5.24166e-21)
(0.999966 0.0157063 -4.72359e-21)
(1.00813 0.000670094 3.55079e-22)
(1.1893 0.0375809 -1.23504e-20)
(1.08796 0.0212077 0)
(1.20067 0.0754786 0)
(0.993583 0.0152939 0)
(0.995383 0.0119099 -7.85179e-21)
(0.999961 0.000865292 7.52826e-21)
(1.0289 0.080288 0)
(1.02958 0.000548319 5.31108e-21)
(1.05446 0.106413 0)
(1.00468 0.00336852 -1.43908e-22)
(-0.192062 -0.0129359 -1.08758e-19)
(1.17775 -0.0510276 0)
(0.48441 -0.302476 0)
(1.0151 0.00678322 0)
(1.00007 0.00181357 -7.40405e-21)
(0.794412 0.14946 1.17459e-20)
(1.17577 0.121658 4.23122e-20)
(0.953115 0.0115681 -7.54781e-21)
(0.45953 0.0254828 0)
(1.11706 0.239507 -2.83387e-20)
(0.679864 0.103931 0)
(1.12442 -0.0124893 0)
(1.22949 0.0798079 -5.81091e-20)
(1.06994 0.0243588 1.77745e-20)
(0.9999 0.00114447 0)
(1.0067 0.00284193 7.04061e-23)
(1.04301 0.075759 -7.33984e-21)
(-0.257334 -0.019824 0)
(1.00006 0.00153506 4.79213e-21)
(0.755585 0.010944 0)
(1.05559 0.10939 3.46932e-21)
(-0.185473 -0.00886024 6.06649e-20)
(0.951986 0.241601 -2.32618e-20)
(1.12421 0.238791 3.46883e-20)
(1.22482 -0.0259727 -2.14188e-20)
(1.02667 0.00831805 0)
(1 4.77117e-05 -1.65969e-21)
(1.18033 -0.0497539 0)
(0.988122 0.00781295 -6.5963e-21)
(0.985933 0.053288 -1.83736e-20)
(0.570449 0.0332521 -1.8026e-20)
(1.01679 0.0724581 -6.19617e-24)
(0.998606 0.00150751 2.52409e-21)
(1.10306 0.0839928 3.05551e-20)
(1.00759 0.00972625 0)
(1.02073 0.00117344 -8.34509e-23)
(1.06184 0.118415 0)
(0.885493 -0.0151317 6.26518e-20)
(-0.14022 -0.00291738 -7.23604e-20)
(1.08369 0.143562 -1.80581e-21)
(1.05487 0.00161436 -9.78452e-21)
(1.01113 0.0012423 -1.43448e-21)
(-0.0542046 -0.0124832 0)
(0.92522 0.371963 0)
(1.00422 0.0527251 0)
(1.02295 0.0555361 5.14001e-23)
(0.535494 0.0330681 -3.86405e-20)
(0.833931 3.80712e-05 1.11902e-19)
(-0.257752 -0.0179152 1.0763e-19)
(0.8878 0.146845 2.48191e-20)
(1.08918 -0.00433891 6.26833e-21)
(1.01459 0.00409184 0)
(1.021 0.00136784 -2.89716e-21)
(1.16669 -0.030955 3.69388e-20)
(1.08829 0.14571 -2.08585e-21)
(1.10832 -0.0126943 4.09875e-20)
(0.916766 0.0285778 6.72312e-20)
(-0.0536827 -0.0038517 -4.11813e-20)
(1.03554 0.0562304 0)
(0.964056 0.0709291 -7.74487e-21)
(-0.261447 -0.0167028 7.42924e-21)
(0.995663 0.0136826 -6.44447e-21)
(1.12283 0.0393086 2.975e-20)
(1.00743 0.0398747 0)
(1.0023 0.00150691 1.15305e-21)
(1.10391 0.165645 0)
(0.773904 -0.00456443 9.27226e-20)
(1.0641 0.0403795 0)
(0.275531 -0.0194031 6.75253e-20)
(0.0222877 0.00265167 -4.30112e-20)
(1.16804 0.194996 0)
(1.00322 0.0224784 0)
(1.03251 0.00280443 6.77809e-21)
(1.21528 -0.0565783 1.99415e-20)
(0.795957 0.0159885 0)
(1.00007 0.000466186 1.31728e-22)
(0.968072 0.0281762 0)
(1.0318 0.00308217 -6.50501e-21)
(1.11015 0.156125 0)
(1.04646 -0.00432078 -1.41588e-20)
(1.04662 0.00886712 1.5944e-20)
(1.16676 0.0682857 -4.85668e-20)
(1.05333 0.0230109 1.5965e-20)
(0.710628 -0.0708796 0)
(1.12318 0.130134 -2.4757e-20)
(0.999955 0.000802938 0)
(1.0256 0.00430368 -1.9794e-21)
(0.981171 0.00684576 1.25619e-20)
(1.01225 0.0258564 1.66521e-22)
(1.07781 -0.00873401 -1.43604e-20)
(0.239673 0.641844 6.88692e-21)
(1.05269 0.00535365 -3.8938e-21)
(1.04079 0.0143699 4.51268e-21)
(0.108862 -0.0210407 0)
(0.236166 -0.0235654 4.48657e-21)
(1.15533 -0.0148065 6.9014e-21)
(1.12132 0.15767 0)
(1.1982 0.0603487 -3.42085e-20)
(1.1025 0.0441841 -2.07317e-20)
(1.03161 0.0193615 2.50248e-21)
(0.887101 0.0208141 1.85503e-20)
(-0.177884 -0.0129973 0)
(1.06866 0.293045 0)
(0.99831 0.00675438 6.50184e-21)
(1.045 0.0498583 3.45047e-21)
(0.0906337 -0.0222898 0)
(1.14982 0.0564454 0)
(-0.124102 -0.0161579 -6.01885e-20)
(0.999959 0.00104953 2.51189e-22)
(0.950685 0.0125047 -1.65269e-20)
(-0.124004 0.000955169 0)
(1.14484 0.0454069 5.01343e-20)
(1.06726 0.0389656 0)
(-0.25261 -0.0209818 1.1254e-19)
(0.204177 0.204883 0)
(1.01256 0.0251896 -1.50535e-22)
(1.22893 0.108418 6.83958e-20)
(1.00709 0.00299853 7.61618e-23)
(1.0517 0.0228189 -1.49282e-20)
(1.01559 0.00715292 -1.79e-21)
(-0.15951 -0.0150084 -3.14359e-20)
(1.02898 0.00036833 0)
(1.05425 -0.00758099 0)
(1.03235 0.0187963 8.31866e-21)
(0.651007 -0.066745 0)
(1.09646 -0.0171936 8.96292e-21)
(1.21486 0.225826 -3.85406e-20)
(0.706161 -0.0945658 7.07359e-20)
(1.04753 0.00610351 -9.25061e-21)
(0.843234 0.0345188 -1.98183e-21)
(1.0006 0.00415657 -1.88636e-21)
(-0.148539 -0.0163182 6.37255e-20)
(1.00665 0.0129633 1.18705e-21)
(1.05378 0.00456669 0)
(0.998666 0.00200567 0)
(1.21801 -0.0552429 3.49164e-21)
(0.998495 0.00195198 0)
(1.24072 0.077236 0)
(0.0266907 0.00536476 -2.06697e-20)
(0.326985 -0.0267422 -4.39241e-22)
(0.903068 0.042251 -2.01629e-20)
(0.94969 -0.0330841 4.03992e-22)
(-0.224056 -0.0180263 0)
(0.997813 0.0344492 0)
(-0.103086 0.000765349 5.75339e-20)
(0.217242 0.0230893 0)
(-0.209028 -0.0171928 0)
(0.0645947 -0.0059428 0)
(0.0986958 -0.0206272 1.97211e-20)
(0.0571981 0.103139 -4.63929e-20)
(1.23482 0.08778 3.70816e-20)
(1.01377 0.0606547 3.69654e-21)
(0.210119 -0.0216212 2.46372e-20)
(1.14292 0.0473817 -4.73698e-20)
(0.162522 -0.0170022 -2.87002e-20)
(1.03902 0.00528934 0)
(1.03053 0.0306679 0)
(1.00584 0.0539763 4.55324e-21)
(1.00064 0.00450631 0)
(1.11084 0.0402575 0)
(0.886935 0.101761 0)
(-0.0949881 -0.00323064 7.84441e-21)
(1.03032 0.0293914 0)
(0.993849 0.00696304 -1.0567e-20)
(-0.206099 -0.0144832 5.91529e-20)
(0.935582 0.460645 0)
(0.981324 0.00553626 -1.29409e-20)
(0.814164 -0.0475967 -4.29732e-20)
(1.11085 0.0887374 -1.67902e-20)
(1.05955 0.0315177 5.62221e-21)
(0.459168 0.686224 -5.42174e-21)
(0.807621 -0.0426144 -4.43908e-20)
(0.950692 0.0621236 0)
(1.09671 -0.0156839 0)
(-0.000537049 0.00545444 0)
(-0.250851 -0.0156322 0)
(0.221313 0.0295949 1.45798e-20)
(1.04572 -0.00354986 1.33856e-20)
(1.22442 0.217215 -4.20305e-20)
(1.2045 0.152721 0)
(-0.191962 -0.0176916 4.11735e-20)
(0.134749 -0.0228308 -8.27045e-20)
(1.19241 -0.0665819 -2.70547e-20)
(1.0197 0.0340776 -4.891e-22)
(1.07122 0.025598 9.30196e-21)
(1.03379 0.0564539 0)
(1.02376 -0.000289584 -2.86626e-21)
(1.03196 0.0819406 0)
(1.02127 0.0021272 2.75021e-21)
(1.04936 0.117253 -1.03297e-20)
(1.07995 0.163787 0)
(-0.075774 -0.00568492 0)
(1.23288 0.026952 -4.92738e-20)
(1.05496 -0.00658311 -9.92511e-21)
(1.2272 0.0770025 8.2904e-20)
(-0.114112 -0.0176235 -2.76453e-20)
(1.10177 0.159652 0)
(0.972301 0.0320892 7.19975e-21)
(-0.179119 -0.00669492 3.0843e-20)
(1.03956 0.0270408 -9.24779e-21)
(0.986845 0.0509695 1.20151e-20)
(0.814492 0.0697501 -3.74726e-20)
(-0.0467469 8.44643e-05 0)
(0.998416 0.000563634 0)
(1.00575 0.0253603 0)
(0.1821 -0.0191205 1.0513e-19)
(1.02435 -0.0313012 3.79244e-20)
(0.888687 -0.00384246 7.00251e-20)
(1.22406 0.0524007 2.65848e-20)
(0.893719 -0.0414843 -4.14714e-20)
(1.00994 0.0242001 0)
(1.24504 0.0922747 0)
(0.971329 0.0342253 -1.56574e-20)
(1.0044 0.0134866 2.2989e-21)
(0.969114 0.0299918 -8.27275e-21)
(0.273526 -0.026063 3.28223e-22)
(-0.242399 -0.0173946 -9.78566e-20)
(1.04256 0.0121213 2.64726e-21)
(1.02626 0.00429575 0)
(1.00742 0.0415583 -1.70889e-22)
(0.781377 -0.00442983 0)
(1.02776 0.0786906 -5.62979e-22)
(1.12267 0.0686351 4.03169e-21)
(0.989039 0.00729084 -1.19784e-20)