/*--------------------------------*- C++ -*----------------------------------*\
| =========                 |                                                 |
| \\      /  F ield         | OpenFOAM: The Open Source CFD Toolbox           |
|  \\    /   O peration     | Version:  v2012                                 |
|   \\  /    A nd           | Website:  www.openfoam.com                      |
|    \\/     M anipulation  |                                                 |
\*---------------------------------------------------------------------------*/
FoamFile
{
    version     2.0;
    format      ascii;
    class       volVectorField;
    location    "200";
    object      U_0;
}
// * * * * * * * * * * * * * * * * * * * * * * * * * * * * * * * * * * * * * //

dimensions      [0 1 -1 0 0 0 0];


internalField   nonuniform List<vector> 
13917
(
(1.09606 0.158328 -1.98708e-20)
(1.02579 0.0538062 4.88129e-22)
(0.246303 -0.0228813 -1.31305e-22)
(1.08423 -0.016362 0)
(0.99624 0.00513493 2.97642e-21)
(0.357733 0.0324812 -3.35452e-19)
(0.206821 -0.0200918 -4.4033e-20)
(0.245297 -0.0226816 -3.61302e-20)
(0.135264 -0.0218924 7.61557e-20)
(1.13104 0.196971 0)
(1.23029 -0.0213802 -1.18377e-19)
(1.18245 -0.0448984 -7.91211e-20)
(1.08534 -0.0176016 0)
(-0.184749 -0.000254728 9.43706e-20)
(0.969209 0.109142 -1.87082e-20)
(0.994195 0.105374 -1.59281e-21)
(1.01892 0.0594714 0)
(1.17867 0.072259 0)
(1.17972 -0.0460492 7.29559e-20)
(1.00171 0.00559675 0)
(0.999977 0.00112617 0)
(0.191728 -0.019401 5.25196e-20)
(1.00118 0.00946197 -8.58472e-21)
(0.282182 -0.0252962 -5.69941e-20)
(0.995304 0.0196348 -1.1935e-21)
(0.218782 -0.022039 2.27711e-20)
(0.780975 0.0381154 4.69163e-20)
(0.751098 0.124189 3.51063e-20)
(0.69731 0.558765 -1.76708e-20)
(1.19705 0.15986 -2.2927e-20)
(1.11304 0.151904 0)
(1.06534 0.116102 7.09772e-21)
(0.833612 0.0757267 7.40585e-20)
(0.909982 0.00967739 -4.09035e-20)
(0.991551 0.01668 -1.42496e-21)
(0.876128 -0.0420765 5.39171e-20)
(1.00107 0.00886496 -2.85466e-21)
(-0.0588919 -0.0076835 2.24211e-20)
(1.09897 -0.0230714 -2.99299e-20)
(0.000417126 0.00592468 -9.03842e-20)
(1.01032 0.00102614 0)
(0.999989 0.000475489 -5.29135e-21)
(1.02603 0.00290782 1.0486e-20)
(0.692417 0.202161 7.657e-20)
(1.05053 0.0345544 0)
(0.890896 0.0231997 -2.43523e-20)
(1.17725 0.0691933 1.08455e-20)
(1.20111 0.0417709 9.47613e-20)
(0.100282 0.0980828 0)
(1.00404 0.000957151 -1.4929e-22)
(1.11788 0.0357322 -1.65894e-20)
(0.965058 0.017292 9.93848e-21)
(0.073074 0.0737846 0)
(0.905292 0.0108748 4.67604e-20)
(1.01751 0.0605971 -1.76025e-21)
(1.10784 0.0652405 0)
(1.22655 -0.0202394 9.24071e-20)
(0.996548 0.037423 -1.03078e-20)
(1.0885 0.0680698 4.28076e-20)
(1.0486 0.0337203 1.00925e-20)
(0.307603 0.0322697 0)
(1.0276 0.0540604 -1.19568e-21)
(-0.143084 0.00424407 -6.46201e-20)
(1.00184 0.00608914 1.58743e-21)
(0.383644 0.0463672 2.30268e-19)
(0.843475 0.30471 4.28818e-20)
(0.995416 0.00144049 1.90089e-20)
(0.98797 0.00286144 1.71506e-21)
(1.23558 0.0259387 9.38276e-20)
(1.05976 0.165974 6.06495e-21)
(0.996635 0.00515016 0)
(0.163846 -0.0241307 -7.53296e-20)
(-0.150847 -0.0143254 0)
(0.995881 0.0190868 2.99086e-21)
(0.0994114 0.171151 0)
(1.18084 -0.0705602 0)
(-0.177755 -0.00912644 0)
(1.07074 0.0407754 0)
(0.232472 -0.022777 3.26081e-22)
(0.999903 0.00233772 0)
(1.0001 0.00355424 -5.36268e-21)
(0.995974 0.00132975 -1.24761e-20)
(0.40012 0.109732 0)
(-0.0371373 -0.00876748 0)
(-0.10438 -0.0111106 -1.20149e-19)
(1.06959 0.038968 0)
(1.00041 0.00464423 -2.36106e-21)
(1.00903 0.393892 2.4073e-20)
(1.11565 0.0348817 0)
(1.02664 0.00287241 -1.14396e-20)
(-0.111811 -0.0129765 5.21163e-20)
(1.16889 0.188397 0)
(1.02939 0.0311696 -4.14123e-21)
(0.973254 0.0646656 2.1057e-20)
(0.96577 0.383334 -6.27135e-20)
(0.387021 -0.0275955 6.1116e-20)
(1.22659 0.00490608 -9.80796e-20)
(1.19477 0.0507343 -9.64493e-22)
(1.21321 -0.0728107 3.87023e-20)
(0.602374 0.122565 0)
(1.01387 0.00749097 -1.76123e-21)
(0.844302 0.00738422 -4.61045e-20)
(0.683316 0.186579 -1.00971e-19)
(1.0827 0.033591 -2.24977e-22)
(1.02071 0.0160734 0)
(0.172165 -0.0234012 -1.61386e-20)
(0.779217 0.504925 0)
(1.20421 0.0424885 7.5197e-20)
(1.02108 0.0603041 -4.46241e-22)
(1.10954 0.166717 0)
(-0.167373 -0.0172635 1.17195e-19)
(0.00797001 0.00448854 8.91118e-20)
(1.19668 -0.0522488 0)
(0.152081 -0.0232216 7.11131e-20)
(0.947681 0.0169007 3.67564e-20)
(0.087982 -0.156151 0)
(1.00146 0.0174759 0)
(0.197702 0.0624513 0)
(-0.0756953 0.00144702 0)
(0.906292 0.0235766 -2.28121e-20)
(0.999984 0.00093978 5.603e-21)
(1.23412 0.027398 -3.37494e-20)
(-0.0870604 -0.00129287 0)
(0.760377 0.117902 -2.69265e-20)
(1.0061 0.000867404 -2.07988e-23)
(0.97481 0.0618132 1.87105e-20)
(1.04396 0.0384848 0)
(1.00564 0.000692251 0)
(1.02236 0.00219405 2.34234e-21)
(0.361996 -0.0143727 4.68675e-20)
(-0.00218538 -0.00560203 0)
(0.95016 0.0158639 0)
(1.05087 0.0359419 7.51343e-21)
(0.999979 0.000889597 7.09851e-24)
(0.888889 0.0560748 -5.33115e-20)
(0.292554 -0.0262044 2.87692e-20)
(1.09242 0.16243 4.08499e-20)
(0.578584 0.122475 3.86563e-20)
(0.995095 0.00195832 -1.11374e-20)
(0.907388 0.0192666 4.28623e-20)
(0.983745 -0.0390654 5.947e-20)
(1.03179 0.0177461 5.68564e-21)
(0.961808 0.0302049 9.94459e-21)
(0.644902 0.195938 5.49803e-20)
(0.987318 0.00331725 -4.19258e-21)
(0.287378 -0.0235118 0)
(0.764875 0.568519 0)
(0.967009 0.0175934 0)
(1.02999 0.0148599 2.30599e-21)
(1.05817 0.124999 -1.3011e-20)
(1.18583 0.0123555 -9.2284e-20)
(0.0979429 -0.189712 -4.27974e-22)
(1.20823 -0.0168455 4.78556e-20)
(1.01565 0.204137 -8.30998e-22)
(1.08998 0.0913967 1.86644e-20)
(-0.0794637 0.0120659 2.45503e-19)
(1.05542 0.162069 -2.09026e-21)
(0.725077 -0.0236749 -8.58733e-20)
(-0.195636 -0.00924231 0)
(0.896533 0.0558981 -5.47644e-20)
(0.938399 0.0539902 -3.4354e-20)
(0.784526 -0.0221137 4.34633e-20)
(1.00004 0.00242973 0)
(1.22378 0.00333416 6.92048e-20)
(1.1957 -0.0502038 1.27275e-20)
(1.21547 -0.0707317 -4.65586e-20)
(1.0812 0.034603 1.24948e-20)
(1.19104 0.0295293 5.04631e-20)
(1.0417 0.0289913 -4.8878e-21)
(0.83751 0.0029066 8.66814e-20)
(1.03601 0.199702 0)
(-0.247886 -0.0159579 0)
(1.19817 -0.0605211 0)
(1.01578 0.0701461 2.67887e-21)
(0.389314 -0.0237388 2.69621e-20)
(1.00215 0.223533 0)
(0.0155206 -0.00774091 -4.40446e-20)
(0.16086 0.0619952 0)
(0.323771 -0.0238038 0)
(1.01601 0.0344327 9.88315e-23)
(1.17491 0.185379 0)
(1.11863 0.152088 2.88705e-20)
(1.0325 0.0171625 6.14613e-21)
(1.00042 0.0050827 1.40717e-21)
(0.930954 0.126794 -1.854e-20)
(0.257204 -0.024313 2.25333e-20)
(1.23539 0.215119 0)
(-0.0364725 0.0137918 -1.62917e-19)
(1.14211 0.0819123 2.08916e-20)
(1.21915 -0.0525575 5.87665e-20)
(0.956463 -0.0244704 0)
(-0.0699377 -0.0077342 -1.20705e-19)
(1.22114 0.245281 9.36212e-20)
(0.999862 0.00936923 0)
(0.560862 0.054867 7.79178e-20)
(0.791522 0.0404805 8.41321e-20)
(1.00921 0.000393874 4.87063e-21)
(1.02964 0.0324732 0)
(0.842638 0.445647 0)
(1.11206 0.478046 1.85728e-19)
(1.1142 0.00674365 5.61656e-21)
(1.00368 0.000850734 -1.14487e-21)
(1.18505 0.0234487 7.78036e-20)
(1.1839 0.0105008 8.27968e-20)
(-0.171453 -0.0133893 0)
(0.943072 0.0321082 -8.18317e-20)
(0.991863 0.0156465 0)
(0.99581 0.0387241 8.55164e-21)
(1.19357 0.047374 3.60184e-21)
(0.264561 -0.0245721 0)
(0.964084 0.0304901 -8.79354e-21)
(0.194748 -0.0200462 -4.82466e-20)
(-0.207065 -0.0123121 0)
(1.21873 -0.0507017 -1.7997e-20)
(1.0202 0.0164004 -2.26926e-21)
(0.473416 0.388012 -4.36909e-20)
(1.18537 0.043151 4.65389e-20)
(-0.236485 -0.0169632 6.94447e-20)
(1.00416 0.0231065 0)
(0.429792 0.0559622 4.10935e-20)
(1.01551 0.033159 2.79015e-22)
(1.19855 0.137363 5.97846e-20)
(1.01008 0.00127242 0)
(-0.0619836 -0.0106314 -5.80064e-21)
(0.160961 -0.0228873 0)
(0.994916 0.109349 -1.45823e-20)
(1.137 0.501183 7.04281e-20)
(1.09367 0.0911129 2.24463e-20)
(1.01927 0.0157719 1.53987e-21)
(0.914467 -0.0414032 -1.04052e-20)
(1.1952 -0.0619104 -2.3027e-20)
(1.14178 0.0786583 -7.69133e-21)
(0.30082 -0.0255109 -2.27178e-20)
(-0.221272 -0.011306 0)
(1.01508 0.00393745 -2.21256e-21)
(1.06871 0.118049 1.13264e-20)
(-0.0902845 -0.0137624 0)
(-0.136845 -0.0124179 -2.30875e-20)
(0.999998 0.00273302 0)
(1.00745 0.0113795 1.7495e-21)
(0.0451599 0.00568985 0)
(1.23436 0.0100193 8.76074e-20)
(1.00004 0.000142771 -9.16559e-22)
(1.04833 -0.0470792 0)
(1.21488 0.0835889 3.8639e-20)
(0.794666 -0.0268639 -1.1157e-20)
(1.09715 0.142819 2.43615e-20)
(1.00005 0.00264395 -2.50809e-21)
(0.965684 0.223689 -4.52998e-21)
(-0.206708 -0.0102377 -3.84925e-20)
(1.05662 0.0042758 0)
(1.18438 0.204059 -4.22006e-20)
(0.561584 0.16511 7.10377e-20)
(1.0437 0.0368002 0)
(0.995866 0.0354693 0)
(1.19463 -0.0173152 0)
(0.0655694 0.000610806 3.49402e-20)
(1.20527 -0.0171187 -1.73228e-20)
(0.93144 0.131725 2.23848e-20)
(0.972497 0.112201 1.58752e-20)
(1.00004 0.000250066 0)
(-0.10996 -0.000198 0)
(0.297702 -0.00920234 0)
(0.974386 -0.0570528 0)
(1.01868 0.0160847 1.566e-21)
(-0.177184 -0.0143761 0)
(-0.157495 -0.00298945 -1.0009e-19)
(0.653027 -0.0262833 -1.03965e-21)
(0.217361 -0.0215986 0)
(1.18423 -0.0721292 0)
(1.00004 0.00330248 5.14996e-21)
(1.00752 0.00105825 0)
(1.17926 0.0634849 -2.48085e-20)
(-0.108009 -0.00874731 -5.17215e-20)
(1.22897 0.0485404 0)
(1.08725 0.0651418 -2.78365e-20)
(0.868917 0.0262263 0)
(1.14474 -0.0501348 -3.92928e-22)
(1.02217 0.00145185 -9.76115e-23)
(0.572851 0.042543 8.12733e-20)
(1.00219 0.00554159 -5.07457e-21)
(0.360697 -0.0245944 0)
(1.11131 0.00648107 -2.38344e-20)
(1.00008 0.000145314 0)
(0.997334 0.128104 3.9167e-21)
(1.0095 0.20551 -2.77807e-21)
(0.784334 -0.00973305 1.41523e-19)
(1.0057 -0.0455213 0)
(0.991118 0.165005 -1.24102e-20)
(1.05956 0.0147701 0)
(1.26523 0.123572 -1.61963e-19)
(0.305828 -0.0257251 7.64101e-20)
(0.232758 -0.0137761 0)
(1.00379 0.0224216 4.63111e-21)
(0.613936 -0.0233587 0)
(0.998382 0.00109506 1.8799e-20)
(1.0598 0.0133548 -9.37691e-21)
(1.00154 0.0166156 0)
(0.773696 0.606907 3.29356e-22)
(1.00181 0.000979626 1.093e-21)
(1.20265 0.139084 -1.32962e-20)
(1.09252 0.14148 -3.18498e-20)
(1.04124 0.0276598 -1.24833e-20)
(1.18669 0.0210569 -9.18752e-20)
(1.04529 0.0747444 0)
(0.111614 0.0212251 -2.0978e-19)
(1.00221 0.218413 1.01908e-21)
(1.16456 0.184358 -2.97927e-20)
(1.03961 0.0193728 2.25594e-21)
(0.996564 0.0342628 0)
(-0.179343 -0.0168777 -3.2073e-20)
(-0.105739 0.000344063 0)
(1.00178 0.0182486 0)
(1.00862 0.00112765 2.27365e-22)
(0.622893 0.0531015 -7.29937e-20)
(1.02003 0.0328958 -5.04266e-22)
(-0.13555 -0.0148199 -5.42602e-20)
(1.0383 0.0191708 -3.65003e-21)
(-0.0492133 -0.0103691 -2.40358e-20)
(1.06837 -0.0084001 1.39145e-20)
(1.16373 0.363209 3.92519e-20)
(1.14545 0.0304814 1.98319e-20)
(0.10196 0.242375 -1.72699e-19)
(0.942321 0.053746 2.09244e-20)
(0.993551 0.0758483 6.14741e-20)
(0.495224 0.285858 -2.07449e-19)
(1.00083 0.126094 -3.08964e-21)
(1.23438 0.0123863 -3.34011e-20)
(0.913902 0.524902 1.00303e-20)
(0.997119 0.054437 -1.05601e-20)
(-0.0344666 -0.0054638 -5.9938e-20)
(0.570053 0.0345217 0)
(-0.148102 -0.00371778 7.25896e-20)
(0.920721 0.028634 0)
(-0.0563992 0.00401805 2.49981e-20)
(1.07591 0.117546 2.36046e-20)
(-0.0951925 -0.0130608 5.54297e-20)
(0.514521 0.266483 0)
(0.89498 0.361963 -8.39556e-21)
(0.911278 0.358112 2.13842e-20)
(0.21195 -0.0217672 -7.61884e-20)
(0.999723 0.00297792 0)
(1.0416 0.203974 0)
(-0.144242 -0.016753 1.54068e-22)
(0.982883 0.0379572 0)
(1.00288 0.0872563 -1.1094e-21)
(-0.147812 -0.00201333 5.7043e-20)
(0.828101 0.478144 1.67681e-20)
(1.02152 0.0669554 -7.15305e-22)
(1.02313 -0.0222021 3.77393e-20)
(0.66968 0.53048 2.91936e-20)
(1.01133 0.00645091 -7.09259e-22)
(-0.0949737 0.00198162 0)
(0.931562 -0.0341944 -3.37577e-20)
(1.00235 0.00599925 -1.10659e-22)
(1.01176 0.0165775 9.69551e-23)
(0.998577 0.000846472 -2.15808e-20)
(1.03054 0.0143691 2.5809e-21)
(1.28673 0.123222 5.56378e-20)
(0.350891 -0.0233117 -1.35222e-22)
(0.399067 -0.301042 -1.97663e-19)
(-0.156388 -0.0165758 -2.71349e-20)
(0.998442 0.0186613 -6.296e-21)
(1.19028 0.205205 2.61766e-20)
(-0.187197 -0.0107744 1.0444e-19)
(1.16651 0.0252731 -3.22048e-20)
(0.181634 -0.0191218 5.4186e-20)
(-0.0854882 -0.0101593 -4.3613e-20)
(0.142169 -0.0230955 -7.49929e-20)
(1.01673 0.00721934 -2.07e-21)
(1.01656 -0.0631999 0)
(1.01325 0.0161106 1.83927e-22)
(0.530424 0.0735971 -4.41108e-20)
(1.04732 0.0345009 5.77436e-21)
(0.0749905 0.286896 0)
(1.21588 0.086863 -7.72468e-23)
(1.09928 -0.00801218 1.13331e-20)
(0.999575 0.00364734 2.43472e-21)
(1.19012 0.0467936 -3.29896e-21)
(1.17978 0.188232 -2.4942e-20)
(1.20168 0.0695633 0)
(0.288259 1.03938 -1.62712e-20)
(-0.123413 -0.0147843 0)
(-0.255039 -0.0161681 -8.95175e-20)
(0.969705 0.232237 0)
(1.12559 0.193073 0)
(1.00704 0.0107993 -1.02656e-21)
(-0.118238 -0.0114609 0)
(0.185056 -0.0188906 1.31818e-20)
(1.00109 0.0422174 -6.06101e-22)
(1.10426 0.0927075 9.78597e-20)
(0.99589 0.0143618 -1.30491e-20)
(1.28876 0.0883211 4.27937e-20)
(1.06832 -0.00727555 -1.48114e-20)
(0.999791 0.00249702 0)
(1.03941 0.0776582 0)
(0.274454 -0.0278545 2.41191e-20)
(1.03729 0.0777366 0)
(0.086893 -0.0028696 0)
(-0.0844427 0.0134698 0)
(1.22735 -0.0313276 -5.62542e-21)
(0.429573 0.262466 -1.82775e-19)
(0.999051 0.0540499 6.05761e-21)
(0.47766 0.346747 0)
(0.454421 0.28815 1.19751e-19)
(1.00264 0.0124179 2.35408e-21)
(0.793795 0.47662 -1.00389e-20)
(0.984335 0.0375652 1.06492e-20)
(0.994722 0.0169188 1.07072e-20)
(1.19409 0.163121 0)
(1.00007 0.00037561 -1.82402e-21)
(0.99411 0.0191633 1.84793e-20)
(1.01355 0.01585 -4.61362e-23)
(1.28572 0.125476 -2.43974e-20)
(0.99995 0.00184474 1.39309e-20)
(-0.0451686 0.00273305 2.18141e-20)
(0.348486 -0.0352162 -2.08346e-20)
(-0.133575 -0.00852255 -2.48787e-22)
(1.21639 0.249381 -4.94619e-20)
(0.0743802 -0.00658164 3.08583e-20)
(-0.230464 -0.0162576 4.92495e-21)
(1.16456 0.0236673 4.85461e-20)
(0.998766 0.0178135 3.06982e-21)
(1.24176 0.101159 0)
(1.09789 -0.0209924 2.53986e-20)
(1.07286 0.125107 0)
(0.999898 0.010091 7.34085e-21)
(0.303528 -0.024568 2.82112e-20)
(0.227062 -0.0226775 -6.9076e-20)
(0.392171 -0.0388359 3.67945e-20)
(0.98234 0.102939 -4.72913e-22)
(1.22331 0.077461 9.76001e-20)
(0.924263 0.0256892 6.81206e-21)
(1.1017 -0.0232857 -1.48596e-20)
(1.2006 0.066563 -3.52899e-20)
(1.02298 0.0776884 0)
(0.994822 -0.0655587 5.515e-22)
(1.02241 0.0589699 0)
(1.00179 0.00115543 1.44084e-21)
(-0.113462 -0.0159207 -5.08802e-20)
(0.0095873 -0.00672131 2.8051e-23)
(0.0264887 -0.00783777 8.91235e-21)
(1.15392 0.259692 4.60437e-20)
(-0.138832 -0.0125096 1.70006e-19)
(-0.0106622 -0.00699743 5.24901e-20)
(-0.123682 -0.0180229 5.72234e-20)
(-0.165785 -0.00750234 -5.63592e-20)
(1.02137 0.00243124 0)
(1.1866 0.0556884 -8.65124e-20)
(1.02534 0.0775729 0)
(0.993297 0.0394782 0)
(1.02523 0.0460499 0)
(1.18034 0.0664084 4.23036e-20)
(1.02295 -0.000215394 0)
(1.18077 0.107479 5.67857e-20)
(1.16139 0.0302247 3.08277e-20)
(-0.165399 -0.00458474 0)
(1.00286 0.0129587 5.89003e-21)
(1.2261 0.0261819 2.39279e-20)
(-0.0367055 -0.0125869 -4.15985e-20)
(1.17959 0.378662 1.09508e-19)
(-0.0353021 0.000447248 0)
(0.999949 0.00160813 -7.47436e-21)
(0.999843 0.042717 6.66611e-21)
(1.01415 0.000571049 -2.91708e-21)
(1.04946 0.16531 0)
(1.01664 0.00669853 4.22114e-21)
(0.304308 -0.0281629 -4.4525e-20)
(0.408822 -0.259929 1.48534e-19)
(0.994557 0.159857 -1.3834e-20)
(-0.0908295 -0.00614202 -7.19167e-20)
(1.10798 0.0621805 0)
(1.22503 0.000358102 0)
(-0.0986669 -0.0181194 -2.59567e-22)
(0.785848 0.571013 -6.88851e-21)
(1.2274 -0.033476 -3.31485e-20)
(0.945028 -0.0382177 -7.23964e-20)
(1.22744 0.0245779 -1.33949e-20)
(1.17206 0.122324 -1.23314e-20)
(1.242 0.0831443 6.56605e-20)
(1.16166 -0.0151619 -2.80336e-20)
(1.22746 -0.0460483 -1.33672e-20)
(0.371488 0.088172 3.99945e-20)
(1.16425 -0.032755 3.61897e-20)
(1.21027 0.0347768 4.62546e-20)
(1.01842 0.000927021 2.50608e-22)
(0.964219 0.0558491 6.12724e-20)
(1.1207 0.0408103 1.92324e-20)
(1.03981 0.0038836 -4.30534e-21)
(1.0454 0.160851 -7.38179e-21)
(1.07442 0.0391433 0)
(-0.160466 -0.00670417 0)
(0.164936 -0.0229939 -4.12429e-20)
(1.01911 0.0315655 0)
(1.02203 0.00117874 0)
(0.312441 -0.0276967 0)
(-0.246223 -0.0151968 -4.67466e-20)
(1.00007 0.000284725 -1.69776e-21)
(-0.0594204 0.00265758 5.17332e-20)
(1.08133 0.0100338 1.09889e-20)
(1.21021 0.23023 0)
(1.01837 0.033918 -3.09847e-23)
(-0.187917 -0.0128705 3.99192e-20)
(0.803775 -0.00418746 -1.19006e-19)
(1.06188 0.123036 1.25101e-20)
(1.0466 0.051089 -9.27825e-21)
(0.0990274 -0.00922622 0)
(1.22914 0.212341 0)
(-0.225714 -0.019019 8.02673e-22)
(1.00005 0.000338859 1.82898e-21)
(-0.201464 -0.0119994 0)
(0.135069 0.0215962 1.84434e-21)
(0.604485 0.0516889 -6.90197e-20)
(1.04001 0.00467847 0)
(-0.126954 -0.011791 1.50496e-19)
(0.0988676 -0.0194938 0)
(1.16724 0.0183196 -1.69991e-20)
(1.01245 0.0166783 1.48064e-22)
(1.0119 0.0593622 0)
(1.17719 -0.0760204 3.81406e-20)
(1.22958 0.0761277 0)
(1.02336 -0.000269796 8.40499e-22)
(1.01114 0.0156504 -2.25788e-22)
(1.00598 0.00302772 2.2433e-23)
(1.00638 0.00318132 -2.26252e-23)
(-0.196375 -0.0144556 -1.82589e-20)
(1.05904 0.0528768 7.66712e-22)
(1.16518 0.0196201 1.3387e-20)
(1.23833 0.204806 4.21297e-20)
(1.00757 0.000824748 -1.23062e-22)
(1.0133 0.00709676 3.0309e-21)
(1.22137 0.0742641 -9.8527e-20)
(0.020178 -0.0187127 -9.26852e-21)
(1.12695 0.0888964 0)
(1.04323 0.0294347 1.07319e-20)
(0.995095 0.0174588 -8.04014e-21)
(0.992306 0.00301222 -6.60917e-21)
(0.551855 0.0413074 0)
(-0.0393055 -0.00517148 9.49097e-20)
(1.00057 0.0043863 3.18106e-21)
(0.992548 0.00605539 -1.11132e-20)
(1.02521 -0.0633295 -1.55468e-20)
(1.16087 -0.0125641 -7.21853e-21)
(1.14545 0.028319 -2.68913e-20)
(0.998666 0.0408885 -5.2806e-21)
(1.03384 0.0806094 2.82052e-21)
(1.04651 0.118675 0)
(1.20869 0.0321293 -3.6926e-20)
(0.911609 0.499669 7.71582e-21)
(1.2381 0.212052 1.08797e-21)
(1.24499 0.0984977 -3.61126e-20)
(1.22024 0.0555149 9.74248e-20)
(0.899908 0.0252756 5.38389e-20)
(1.1661 0.178086 7.76589e-20)
(1.00283 0.0217112 2.36247e-21)
(-0.194801 -0.011171 1.57042e-20)
(0.992651 0.00237879 0)
(1.00337 0.0905742 0)
(1.09886 0.00496977 -3.0252e-20)
(0.976958 0.054811 -3.25547e-20)
(0.969744 0.307822 0)
(1.01224 0.00160869 -1.32932e-21)
(1.18153 0.368921 -1.06218e-19)
(1.2063 0.157185 6.01206e-20)
(-0.106937 -0.0571767 -6.02965e-21)
(1.21995 0.0580138 -5.27995e-20)
(0.88006 0.145826 4.33358e-20)
(1.16473 0.0307454 -3.36556e-20)
(0.999439 0.0040195 0)
(0.189957 -0.0163162 -2.16062e-20)
(1.17402 0.358727 0)
(0.107794 -0.015681 0)
(1.02169 0.0562861 0)
(1.11948 0.073258 0)
(1.24036 0.201965 0)
(-0.0775476 -0.0111024 -9.4019e-20)
(-0.190699 -0.00664405 8.46881e-20)
(1.1981 0.051234 9.70156e-22)
(1.16111 0.262821 -2.03557e-20)
(0.990221 0.103952 6.93848e-21)
(1.06756 0.0777323 0)
(0.997524 0.0414921 0)
(0.874561 0.2416 -2.84402e-20)
(0.661468 0.179002 4.8829e-20)
(0.973256 0.00308276 -3.88513e-21)
(1.18392 0.0400727 0)
(0.561869 0.140085 0)
(0.117278 -0.016465 0)
(-0.220451 -0.0178575 0)
(1.0361 0.0927824 1.20847e-21)
(1.2229 -0.00127782 0)
(0.860126 -0.00398307 8.63318e-20)
(1.00125 0.137501 6.85312e-21)
(0.967727 0.0324874 7.75038e-21)
(0.154753 0.498374 8.87043e-20)
(0.280829 -0.019785 0)
(0.254159 -0.023825 4.61443e-20)
(1.2401 0.191638 -8.31418e-20)
(1.02225 0.00250746 -6.90965e-22)
(-0.0856948 0.000405022 -1.37389e-20)
(1.1776 -0.0721873 0)
(1.01214 0.00119697 0)
(1.10591 0.108004 -3.55634e-20)
(1.20489 0.010395 2.42765e-20)
(0.842917 0.0778485 -4.82581e-20)
(1.19562 0.154614 0)
(0.221538 -0.0227352 -2.22405e-20)
(1.23931 0.0807581 -5.45656e-20)
(1.1521 -0.0140015 -4.79209e-20)
(0.189869 -0.013678 1.8329e-20)
(1.07583 0.0476291 -5.79929e-21)
(-0.18204 -0.00782622 -3.18344e-20)
(0.999993 0.00242313 6.46675e-21)
(1.00058 0.00475407 -5.55289e-21)
(0.586361 -0.0254686 1.34705e-20)
(0.26083 -0.0205733 0)
(0.366968 0.217736 3.45858e-20)
(1.07694 0.0459474 0)
(1.01735 0.0679962 0)
(0.992986 0.0063937 1.03497e-20)
(1.14742 -0.0491199 2.86938e-20)
(0.0730783 0.134945 0)
(1.21222 -0.0701089 4.14237e-20)
(1.07022 0.0787886 0)
(1.22582 -0.0324647 -3.74092e-20)
(1.18889 0.0436179 -5.14284e-20)
(1.01824 0.034859 -1.24167e-23)
(1.11747 0.50735 1.17251e-19)
(1.20915 -0.0720239 1.83497e-21)
(0.982149 -0.0784178 6.31418e-20)
(1.00625 0.0249678 -3.81127e-21)
(1.23822 0.0748227 0)
(1.07288 0.0409159 0)
(-0.0470833 0.0264068 4.30138e-20)
(1.13721 0.195332 0)
(0.980802 0.302153 -2.38459e-22)
(1.11993 0.0759194 0)
(1.00946 0.00364215 -1.05919e-21)
(1.03677 0.00804784 -3.83059e-21)
(1.04558 0.0393752 0)
(0.939847 0.365989 5.51889e-21)
(0.889076 0.0282261 -1.30168e-20)
(1.2481 0.143751 2.36273e-20)
(0.409459 0.774247 0)
(1.18931 0.0320007 -7.76119e-20)
(1.01074 0.0063659 0)
(1.23795 0.0880308 -3.96769e-20)
(0.362255 0.247031 0)
(0.830992 -0.0365928 0)
(1.05541 0.00502941 -4.07455e-21)
(0.898144 0.0417299 -2.52036e-20)
(1.01047 0.0154967 5.12716e-22)
(1.12354 -0.0167624 7.76746e-21)
(1.09151 0.0682806 -3.75767e-20)
(0.0873403 -0.0183507 2.16892e-20)
(0.999867 0.00256073 7.06108e-21)
(1.16355 0.520747 -4.16982e-20)
(1.12358 -0.0109266 0)
(1.22766 -0.0248719 3.80475e-21)
(1.16295 0.198129 0)
(-0.157076 -0.0137959 9.43854e-20)
(1.00277 0.302535 -5.24081e-21)
(1.0115 0.0573499 1.17088e-21)
(-0.127929 -0.00925509 -1.12069e-19)
(-0.262478 -0.012606 0)
(1.00883 0.0443261 -1.41333e-21)
(1.09753 0.00331655 4.34749e-20)
(0.816083 -0.000322266 0)
(1.2336 0.191273 1.10708e-19)
(1.22729 0.0462705 0)
(1.00017 0.000417786 1.79934e-21)
(1.04826 0.0512241 0)
(1.15376 0.353952 -1.1059e-19)
(1.10067 -0.00939232 -4.19138e-21)
(1.19916 0.0725362 0)
(1.19159 -0.0161802 4.51299e-20)
(1.03773 0.00784209 0)
(1.18374 0.00500146 -4.08186e-20)
(0.251202 -0.0238503 -4.85584e-20)
(1.05482 0.00247628 0)
(1.07883 -0.0104104 -7.64175e-21)
(1.00532 0.00319801 7.533e-22)
(-0.11069 0.00152413 -5.16714e-20)
(0.999952 0.0010937 7.75408e-21)
(0.982996 0.0987637 1.15478e-20)
(-0.243705 -0.0174394 -8.23159e-20)
(0.993736 0.082608 7.60294e-21)
(0.300614 -0.0178677 0)
(1.08794 0.0942822 3.2356e-22)
(0.827413 0.081263 -9.90862e-20)
(1.00573 0.00336794 0)
(1.00763 0.23873 0)
(1.0012 0.0157329 2.15171e-21)
(1.1667 0.129067 -1.2235e-20)
(1.00905 0.00219418 -7.20391e-22)
(1.05989 0.290752 1.97013e-20)
(1.08061 0.0112038 1.13579e-20)
(0.143065 0.0851829 3.64937e-20)
(0.398831 0.647926 -6.67371e-20)
(0.0188768 -0.0207895 5.79958e-20)
(1.01348 0.000551145 -2.35248e-21)
(0.999659 0.00323285 -4.046e-21)
(1.16194 0.173827 -3.97414e-20)
(1.12704 0.157893 -1.11774e-21)
(-0.118916 -0.00395664 -3.03078e-20)
(0.0745304 -0.0225373 4.47463e-20)
(1.1778 0.075784 1.25522e-20)
(0.992896 0.0158259 0)
(1.27655 0.12145 0)
(0.335291 0.191454 1.52218e-19)
(1.00686 -0.0775071 -6.65284e-20)
(1.24671 0.145889 -4.20802e-20)
(1.17693 0.0570175 4.7048e-20)
(0.261954 -0.0261446 -3.89516e-20)
(1.08424 0.164922 0)
(1.14243 -0.0480575 2.87068e-22)
(1.23296 0.109183 7.20137e-20)
(0.826974 0.424352 -3.9528e-20)
(1.17491 0.0769002 0)
(0.29242 0.263558 5.29596e-20)
(1.17211 0.0832359 0)
(1.08798 -0.00601694 1.18873e-20)
(1.20785 0.0104853 4.74009e-20)
(1.00502 0.12827 6.89647e-21)
(1.045 0.00617467 -7.16226e-23)
(1.12264 -0.0151146 -7.22265e-21)
(1.11251 0.162121 0)
(1.05396 0.122557 5.25774e-21)
(0.999971 0.0157172 -4.73869e-21)
(1.00813 0.00067023 0)
(1.18944 0.037471 0)
(1.08799 0.02116 -7.07806e-21)
(1.20083 0.0754107 0)
(0.993587 0.0153097 0)
(0.995385 0.0119241 0)
(0.999961 0.000866751 -7.52388e-21)
(1.02894 0.0803036 1.99691e-21)
(1.02957 0.000539011 1.05578e-20)
(1.05452 0.106429 -1.38712e-20)
(1.00469 0.00336965 0)
(-0.192382 -0.0129213 8.91193e-20)
(1.17776 -0.0512825 1.87561e-20)
(0.484387 -0.302358 0)
(1.01511 0.00678275 -2.8159e-21)
(1.00007 0.00181519 -2.66785e-21)
(0.794427 0.149541 0)
(1.17592 0.12164 1.42942e-20)
(0.953115 0.0116034 -7.86158e-21)
(0.45891 0.0253965 4.07434e-20)
(1.11718 0.239576 3.00504e-20)
(0.679082 0.1038 0)
(1.12443 -0.0126019 9.31371e-21)
(1.22967 0.0797389 -2.89485e-20)
(1.06996 0.0243278 -9.14567e-21)
(0.9999 0.00114581 -2.78189e-21)
(1.0067 0.00284258 -7.71654e-23)
(1.04305 0.0757669 -2.09486e-21)
(-0.257527 -0.0198099 0)
(1.00006 0.00153643 0)
(0.755059 0.0108519 2.98202e-20)
(1.05565 0.109406 -1.55253e-20)
(-0.185503 -0.00887711 -1.81984e-19)
(0.952039 0.241683 0)
(1.12434 0.23886 -6.76909e-20)
(1.225 -0.0262534 0)
(1.02667 0.00831219 -6.56404e-21)
(1 4.7745e-05 -2.03741e-23)
(1.18034 -0.050012 -3.3365e-22)
(0.988123 0.00783147 1.32804e-20)
(0.98595 0.0533147 -1.20676e-20)
(0.569831 0.0331441 5.4501e-20)
(1.01682 0.0724765 -2.94133e-21)
(0.998606 0.00151473 1.14678e-20)
(1.10314 0.0839758 3.25363e-20)
(1.0076 0.00972881 -6.33833e-22)
(1.02074 0.00117246 0)
(1.06191 0.118433 -7.16202e-21)
(0.885486 -0.0150767 -7.05124e-20)
(-0.140785 -0.00290552 -3.61977e-20)
(1.08377 0.143586 -1.42425e-20)
(1.05487 0.00158479 9.80451e-21)
(1.01114 0.00124241 0)
(-0.0545869 -0.0124526 -4.39716e-20)
(0.925275 0.372079 0)
(1.00424 0.0527441 4.9047e-21)
(1.02298 0.0555468 0)
(0.534867 0.032968 4.82113e-21)
(0.833477 -3.91847e-05 0)
(-0.25803 -0.0179064 -4.30959e-20)
(0.887824 0.146913 3.37849e-20)
(1.08918 -0.00440414 -2.45452e-20)
(1.01459 0.00409147 3.08588e-21)
(1.021 0.00136668 1.42634e-21)
(1.16672 -0.0311535 -7.43259e-20)
(1.08838 0.145734 2.08959e-21)
(1.10813 -0.0128942 8.23165e-20)
(0.916769 0.0286248 2.26802e-20)
(-0.0542068 -0.00383803 4.12654e-20)
(1.03557 0.0562346 0)
(0.964075 0.0709667 0)
(-0.261717 -0.0166925 0)
(0.995666 0.0136968 2.00732e-20)
(1.1229 0.0392461 -2.04152e-20)
(1.00745 0.0398887 4.70526e-21)
(1.0023 0.00150766 -1.14028e-21)
(1.10401 0.165676 -2.65293e-20)
(0.773899 -0.00448764 -6.92066e-20)
(1.06414 0.0403606 0)
(0.275151 -0.0194139 4.51229e-21)
(0.0218789 0.00262307 5.37603e-21)
(1.16819 0.195036 -3.35887e-20)
(1.00323 0.022489 -5.81179e-21)
(1.03251 0.00279328 -6.79821e-21)
(1.21536 -0.0569298 0)
(0.795425 0.015883 0)
(1.00007 0.000466503 0)
(0.967535 0.0280506 0)
(1.0318 0.00307169 6.54179e-21)
(1.11025 0.15615 2.56656e-20)
(1.04645 -0.00434564 0)
(1.04662 0.00884701 5.39409e-21)
(1.16625 0.0681207 4.8684e-20)
(1.05335 0.0229917 0)
(0.711017 -0.0712382 0)
(1.12329 0.130139 0)
(0.999956 0.000804442 -7.23899e-21)
(1.0256 0.00429839 1.98645e-21)
(0.981171 0.00686824 0)
(1.01226 0.0258632 -8.20893e-22)
(1.0778 -0.00878978 -7.19146e-21)
(0.239695 0.641988 7.04108e-20)
(1.05269 0.0053274 0)
(1.0408 0.0143562 8.79507e-21)
(0.108557 -0.0210022 0)
(0.235839 -0.0235452 0)
(1.15537 -0.0149629 6.75709e-21)
(1.12144 0.157693 -3.41565e-21)
(1.19835 0.0602652 -2.32446e-21)
(1.10255 0.0441405 -1.07056e-20)
(1.03163 0.0193549 -5.52044e-23)
(0.887101 0.0208685 3.83805e-20)
(-0.178227 -0.0129804 0)
(1.06875 0.293138 0)
(0.998311 0.00676395 -3.82118e-22)
(1.04503 0.0498549 7.09967e-21)
(0.0903463 -0.0222701 0)
(1.14992 0.05638 -3.53041e-20)
(-0.124358 -0.016149 -6.02483e-20)
(0.99996 0.00105137 8.30922e-21)
(0.950686 0.0125409 1.62043e-20)
(-0.124605 0.00096306 0)
(1.14493 0.0453339 0)
(1.06729 0.0389439 0)
(-0.252738 -0.0209667 1.25213e-20)
(0.20419 0.205034 0)
(1.01257 0.025196 0)
(1.22912 0.10837 3.85998e-20)
(1.00709 0.00299917 -8.09674e-23)
(1.05172 0.0228008 0)
(1.01559 0.00715235 0)
(-0.159804 -0.0149958 -6.30298e-20)
(1.02898 0.000359426 -1.05812e-20)
(1.05424 -0.00761352 0)
(1.03236 0.0187892 2.75818e-21)
(0.651368 -0.0670819 0)
(1.09645 -0.017275 -8.97383e-21)
(1.21504 0.225888 3.85822e-20)
(0.706149 -0.0944786 -7.0744e-20)
(1.04754 0.00608169 -6.21442e-21)
(0.843236 0.0345826 0)
(1.0006 0.00415956 -2.01855e-21)
(-0.148794 -0.0163086 6.37897e-20)
(1.00666 0.0129676 0)
(1.05378 0.00453923 0)
(0.998666 0.00201287 -8.78088e-21)
(1.2181 -0.0555963 0)
(0.998495 0.00195956 1.19216e-20)
(1.24092 0.0771661 -4.73124e-20)
(0.0263394 0.00533414 -6.18495e-20)
(0.326748 -0.0267686 4.62e-20)
(0.903073 0.0423024 2.26883e-20)
(0.949597 -0.0332826 -3.87924e-20)
(-0.224295 -0.0180131 -4.033e-20)
(0.997825 0.0344666 5.08186e-21)
(-0.103695 0.000764263 -2.17457e-20)
(0.216708 0.0230572 6.62465e-20)
(-0.209267 -0.0171786 -4.05736e-20)
(0.0641715 -0.00599179 0)
(0.0983879 -0.0205882 0)
(0.0569758 0.102949 0)
(1.23501 0.0877151 5.52632e-22)
(1.0138 0.0606714 -1.83533e-21)
(0.209838 -0.0217143 0)
(1.143 0.0473119 -1.20756e-20)
(0.162166 -0.0170364 -2.87434e-20)
(1.03902 0.00527381 -6.03325e-21)
(1.03054 0.030666 0)
(1.00586 0.0539949 0)
(1.00065 0.00450957 3.95642e-21)
(1.1109 0.0402048 1.33295e-20)
(0.88695 0.101822 -7.62012e-21)
(-0.095548 -0.00321994 -3.15329e-20)
(1.03034 0.0293891 2.70134e-21)
(0.99385 0.00697797 1.66738e-22)
(-0.206118 -0.014492 5.92337e-20)
(0.935643 0.460782 0)
(0.981324 0.00555857 2.35994e-20)
(0.814154 -0.047526 -3.52707e-22)
(1.11093 0.0887197 4.93394e-20)
(1.05957 0.0314978 0)
(0.459179 0.686366 -5.74357e-20)
(0.807613 -0.0425436 -1.80279e-22)
(0.950707 0.062164 2.01336e-20)
(1.0967 -0.0157646 0)
(-0.000964385 0.0054386 -5.20782e-20)
(-0.251122 -0.0156201 -1.35758e-20)
(0.221311 0.0297462 1.18228e-19)
(1.04571 -0.00357386 -3.2872e-21)
(1.22463 0.217274 -4.30443e-20)
(1.20468 0.15272 -4.27875e-20)
(-0.192113 -0.0176664 -1.02895e-19)
(0.134447 -0.0228154 0)
(1.19241 -0.0669044 -8.68733e-22)
(1.01972 0.0340831 -3.96213e-22)
(1.07125 0.0255667 3.7665e-20)
(1.03382 0.0564592 0)
(1.02375 -0.00029196 0)
(1.032 0.0819553 0)
(1.02127 0.00212538 -5.66844e-21)
(1.04942 0.117276 0)
(1.08004 0.163823 0)
(-0.0759117 -0.00568092 -7.29867e-20)
(1.2331 0.0268186 -4.93378e-20)
(1.05495 -0.00661596 0)
(1.22738 0.0769315 2.83649e-20)
(-0.114377 -0.0176152 0)
(1.10187 0.159681 2.42566e-20)
(0.972309 0.0321182 0)
(-0.179558 -0.00667657 -7.01359e-20)
(1.03957 0.0270321 9.27615e-21)
(0.986861 0.0509956 1.16598e-20)
(0.814498 0.0698215 0)
(-0.0469237 8.49836e-05 7.22149e-20)
(0.998416 0.000571404 2.96029e-21)
(1.00576 0.0253703 0)
(0.181765 -0.0191349 5.27742e-20)
(1.02426 -0.031522 3.31932e-20)
(0.888269 -0.00394694 -7.02043e-20)
(1.22424 0.0523053 2.6618e-20)
(0.893684 -0.0416941 -8.41393e-20)
(1.00995 0.0242076 0)
(1.24524 0.0922097 8.75504e-20)
(0.971338 0.0342549 -1.56529e-20)
(1.00441 0.0134928 -1.35213e-22)
(0.969121 0.0300222 -5.4164e-22)
(0.273291 -0.0261531 4.06231e-20)
(-0.242675 -0.0173854 1.15249e-19)
(1.04257 0.0121055 5.34389e-21)
(1.02626 0.00428995 2.11433e-21)
(1.00743 0.0415728 -8.05161e-21)
(0.780914 -0.00449447 0)
(1.0278 0.0787061 -1.42041e-21)
(1.12275 0.0685968 0)