/*--------------------------------*- C++ -*----------------------------------*\
| =========                 |                                                 |
| \\      /  F ield         | OpenFOAM: The Open Source CFD Toolbox           |
|  \\    /   O peration     | Version:  v2012                                 |
|   \\  /    A nd           | Website:  www.openfoam.com                      |
|    \\/     M anipulation  |                                                 |
\*---------------------------------------------------------------------------*/
FoamFile
{
    version     2.0;
    format      ascii;
    class       volScalarField;
    location    "250";
    object      k;
}
// * * * * * * * * * * * * * * * * * * * * * * * * * * * * * * * * * * * * * //

dimensions      [0 2 -2 0 0 0 0];


internalField   nonuniform List<scalar> 
13917
(
0.000165153
0.000149041
0.0137313
0.000152647
0.000148686
0.000193181
0.0204721
0.0151363
0.0664742
0.000172997
0.000212665
0.000186248
0.000152811
0.0169011
0.000155195
0.000154157
0.000149435
0.000176971
0.000185705
0.000148682
0.000149776
0.0213248
0.000148579
0.00998063
0.00014821
0.0187385
0.000161799
0.000164511
0.000211856
0.000186211
0.000166782
0.000157954
0.000160198
0.000154677
0.000148372
0.000262938
0.000148637
0.0499775
0.000156051
0.0142426
0.000147616
0.000149902
0.000144874
0.000168444
0.000148599
0.000156022
0.000176697
0.000185744
0.000385174
0.000148004
0.000158156
0.000149863
0.000416009
0.000154998
0.000149493
0.000157706
0.000212352
0.000148494
0.000154947
0.000148431
0.0919009
0.000149049
0.00971997
0.000148603
0.0001918
0.0454026
0.000148657
0.00014855
0.000214513
0.000162749
0.000148731
0.0592942
0.0590738
0.000148226
0.000402958
0.000190393
0.0417295
0.000150727
0.0186402
0.000149568
0.00014934
0.000148697
0.000189882
0.0532812
0.0496595
0.000150456
0.000149168
0.0209175
0.000157764
0.000144811
0.0624407
0.000180234
0.000147622
0.000151147
0.0327391
0.000189734
0.000202705
0.000183013
0.000206674
0.000170643
0.000146661
0.000158825
0.000168267
0.000151709
0.000146671
0.0648685
0.000195914
0.000186945
0.000149458
0.000167698
0.0625129
0.0150123
0.00019305
0.0671644
0.000151251
0.000413147
0.000148071
0.00026195
0.0243717
0.000154903
0.000149823
0.000213518
0.0292152
0.000163878
0.000147857
0.000150819
0.000148485
0.000147928
0.000145027
0.000191922
0.0384253
0.000151083
0.000148714
0.000149827
0.0026256
0.0085522
0.000165254
0.00017119
0.000148609
0.000154772
0.00024809
0.000146652
0.000150365
0.000170745
0.000148562
0.0348852
0.000216677
0.000149704
0.000146344
0.000158428
0.000180959
0.000401262
0.000193612
0.000163493
0.000157491
0.0247
0.000161941
0.000241315
0.0347256
0.00331872
0.000153063
0.000162151
0.000149567
0.000201501
0.000192541
0.000206142
0.000151643
0.000182018
0.000147833
0.000159302
0.000164128
0.0321264
0.000195354
0.00015029
0.0105175
0.000164657
0.0392475
0.00030466
0.026706
0.000147821
0.00018172
0.000167741
0.0001466
0.000149108
0.000157954
0.0125945
0.000236418
0.0298314
0.000167282
0.000204187
0.000262948
0.0541552
0.000222979
0.000148651
0.000172141
0.00016148
0.000154168
0.000147688
0.000182638
0.00317294
0.000157386
0.000148106
0.000180168
0.000180715
0.0521522
0.000269781
0.000148371
0.000148579
0.000182549
0.0104753
0.00015014
0.0221335
0.0390152
0.000204296
0.000146707
0.000202508
0.00017935
0.0395049
0.000147856
0.0892303
0.000147767
0.000185328
0.00014737
0.0558183
0.0692758
0.00015451
0.000459184
0.000157901
0.00014674
0.000259472
0.000194709
0.000167033
0.00588966
0.0324512
0.00014631
0.000158499
0.0677202
0.0375467
0.000149514
0.000147591
0.0144178
0.000206749
0.000149758
0.000235517
0.000191391
0.000161585
0.000164379
0.000149512
0.000164062
0.0356918
0.00014786
0.000186551
0.000173799
0.000148367
0.00014845
0.000187435
0.0194433
0.000192007
0.000158131
0.000155454
0.00014979
0.0234787
0.0749372
0.000236955
0.00014678
0.0567473
0.0292113
0.000184564
0.0196974
0.000192034
0.000149418
0.000147459
0.000177121
0.0521155
0.00020027
0.000154509
0.000277765
0.000173518
0.000144957
0.0597211
0.000148512
0.0116838
0.000156689
0.000149722
0.000156498
0.000163441
0.000162119
0.000238187
0.000159807
0.000148387
0.000231861
0.00648037
0.083111
0.000147855
0.000172431
0.000149093
0.000148367
0.000148113
0.000234469
0.000148578
0.000187565
0.000163726
0.000147712
0.00018049
0.000151481
0.000333644
0.000164329
0.000178623
0.000147111
0.000148385
0.0581381
0.0284959
0.000148039
0.000147444
0.0563112
0.000147721
0.0633165
0.000147049
0.0584181
0.000149564
0.000234476
0.000165685
0.000428948
0.000152657
0.000672182
0.000185821
0.00015654
0.000206517
0.000203301
0.00014938
0.0424536
0.00017196
0.0336714
0.000153828
0.0174312
0.000159278
0.0690656
0.000182281
0.000173669
0.000172979
0.0186843
0.000149432
0.000164667
0.0683297
0.000149149
0.000152019
0.0295126
0.00018597
0.000150117
0.000246684
0.00020721
0.000146938
0.0218697
0.000258334
0.000148469
0.000147284
0.000149146
0.000146302
0.000241212
0.0196253
0.000203766
0.0645724
0.000148163
0.000189579
0.00846235
0.000173241
0.0235702
0.0571783
0.0718022
0.000146299
0.000234542
0.000147143
0.0831008
0.000148415
0.000454127
0.000191229
0.000154817
0.000149304
0.000181235
0.000183817
0.000184857
0.000600128
0.0639545
0.0307504
0.00016453
0.000172047
0.000147638
0.0409215
0.0231094
0.000148583
0.00018644
0.000148316
0.000271339
0.000149555
0.000149501
0.000151502
0.0170426
0.000151427
0.02121
0.0101571
0.00020898
0.000195342
0.000149313
0.000195574
0.000192515
0.000148212
0.000187851
0.000149083
0.000148301
0.000185991
0.00014972
0.000148261
0.00014711
0.000261106
0.000149645
0.0191807
0.00732253
0.00504618
0.000222762
0.0264795
0.0406953
0.000172874
0.000148179
0.000209395
0.000155711
0.000159697
0.000148607
0.0284005
0.0162381
0.0027628
0.00015406
0.000195258
0.000153462
0.00015681
0.000184863
0.000151011
0.000235648
0.000149425
0.000148548
0.0694799
0.0381619
0.0385486
0.000184484
0.00330513
0.0451742
0.0750713
0.0394068
0.000145252
0.000179775
0.000151108
0.000148727
0.000240102
0.000177407
0.00014767
0.000178385
0.000171257
0.0371914
0.000148187
0.000201049
0.0115411
0.000262718
0.023981
0.000149697
0.00014862
0.000154066
0.000161964
0.00014631
0.00745633
0.000200695
0.000159788
0.0388917
0.000157651
0.00020212
0.0808847
0.000218461
0.000207716
0.000252849
0.000201072
0.000176873
0.0002085
0.000173884
0.000212391
0.00020757
0.000177575
0.000190067
0.00014783
0.000773182
0.000159112
0.000145756
0.000161185
0.000151004
0.0399521
0.0645943
0.000147666
0.000145169
0.00584957
0.0337077
0.000149721
0.0196564
0.00015096
0.000206931
0.000147762
0.0499002
0.000204922
0.000158433
0.000149496
0.027475
0.000216878
0.0126331
0.000149777
0.0401339
0.000335372
0.0608221
0.00014585
0.0452599
0.0964977
0.000173434
0.000147237
0.000149425
0.000190347
0.000235873
0.000147059
0.000147307
0.000147591
0.000147556
0.0500318
0.000254651
0.000173024
0.000231938
0.00014807
0.000146705
0.000194964
0.0920825
0.000164327
0.000147904
0.000148255
0.000148485
0.0670137
0.0592735
0.00014912
0.000148484
0.000231955
0.000173584
0.000165704
0.00014858
0.000151625
0.000156757
0.000189591
0.000196637
0.000236727
0.000210279
0.000194046
0.00023301
0.000178385
0.000147913
0.0413694
0.000148495
0.000152458
0.000154108
0.000780306
0.000170091
0.000146802
0.000267879
0.000189841
0.00786956
0.000194198
0.000160283
0.000172662
0.000149237
0.0868372
0.000240134
0.0402534
0.000149154
0.000160879
0.000237113
0.0597511
0.0144463
0.000184168
0.000188107
0.000153977
0.000153392
0.000148602
0.000165168
0.000169224
0.000149322
0.000179124
0.000172947
0.0386987
0.0150043
0.000153055
0.000201264
0.000233532
0.000157453
0.000149909
0.000415582
0.0553705
0.0334669
0.000227369
0.000145148
0.0240116
0.00018978
0.000147273
0.000162087
0.000189082
0.000159638
0.000186137
0.0191957
0.000207857
0.00017008
0.0862299
0.000151675
0.0341127
0.000149575
0.000149075
0.000141982
0.0574335
0.000209202
0.00015167
0.000150125
0.000148492
0.000174108
0.000428133
0.000204129
0.000153748
0.000205183
0.000180874
0.000147802
0.000471886
0.000203275
0.000235154
0.00014777
0.000207082
0.000150902
0.0119877
0.000173714
0.000169866
0.000161189
0.000147071
0.000145882
0.000148611
0.000174483
0.00015627
0.000251434
0.000516159
0.000181549
0.000147
0.000206248
0.000210411
0.000269561
0.000147761
0.000155815
0.000147361
0.000161083
0.000155192
0.0966388
0.000149515
0.00125041
0.000160761
0.000212477
0.000179774
0.0589249
0.000170766
0.000149282
0.0502954
0.015369
0.000148472
0.000153973
0.000181492
0.000214075
0.000200392
0.000149544
0.00014958
0.000212262
0.000155058
0.000184382
0.000185942
0.000145903
0.000180818
0.0136315
0.000147652
0.000151265
0.00014773
0.0270353
0.000149767
0.000153621
0.0348352
0.000151754
0.0497023
0.000157516
0.000160427
0.000147681
0.000166023
0.000148161
0.000175697
0.000147104
0.000173406
0.000150959
0.0182923
0.000328914
0.0925653
0.000152779
0.000149352
0.000177366
0.000169544
0.0343221
0.0849279
0.00017647
0.000148342
0.000257878
0.000210292
0.000234234
0.000231388
0.000176589
0.0156753
0.000164452
0.000172068
0.000202323
0.00017918
0.000176095
0.000240884
0.000175335
0.000152636
0.000190466
0.000156668
0.000146573
0.000160817
0.000167895
0.000157803
0.000148221
0.000147581
0.000181289
0.000152189
0.00018446
0.000148332
0.0001484
0.000149819
0.00015144
0.000144544
0.000155583
0.000147869
0.0482404
0.000185654
0.000188042
0.000146473
0.000149633
0.000163555
0.000177255
0.000150766
0.0751468
0.000174779
0.0679832
0.000160912
0.000198977
0.000149814
0.000149789
0.000147435
0.000151478
0.0228986
0.000149687
0.000591637
0.00015605
0.0102476
0.000164939
0.0001754
0.000211794
0.000145683
0.000149935
0.000186187
0.000148532
0.000149805
0.0538293
0.000150479
0.000149152
0.000158722
0.000147532
0.000145699
0.000157958
0.000156585
0.0276253
0.000162955
0.000147642
0.00014731
0.0637046
0.000174631
0.000149103
0.000149143
0.062323
0.000194409
0.0298557
0.000160265
0.000152647
0.000146393
0.000145523
0.000178209
0.00016359
0.000238355
0.000154161
0.0403491
0.000149408
0.000152172
0.0246819
0.000148365
0.000159332
0.000148241
0.000148435
0.000167048
0.000162251
0.000149986
0.0509655
0.0188827
0.000180521
0.000147903
0.000145025
0.000203409
0.000857439
0.000149718
0.000242803
0.000145015
0.000166856
0.000146474
0.000146947
0.000209091
0.000148172
0.000264307
0.000166934
0.000149817
0.000145135
0.000148828
0.000147579
0.000151053
0.000420066
0.000147475
0.000146784
0.0600556
0.0435868
0.000171252
0.000168794
0.000183965
0.000155452
0.000146787
0.000156546
0.0491648
0.00017421
0.00014884
0.000149317
0.081844
0.000167811
0.0717269
0.000149771
0.000150956
0.0245717
0.000165698
0.000150209
0.0194625
0.000280418
0.000147529
0.000199135
0.00014742
0.000148069
0.000146394
0.0620818
0.000144481
0.000147689
0.000146737
0.000157845
0.000154908
0.000206692
0.000166071
0.000146891
0.000158981
0.000149114
0.066088
0.00014771
0.000147557
0.000149165
0.000204583
0.000149108
0.000208023
0.014459
0.0035255
0.000155433
0.000255162
0.0411272
0.000148356
0.0205317
0.0901353
0.0464472
0.0272059
0.0614242
0.00918588
0.000203488
0.000149501
0.02059
0.000165537
0.0272681
0.000145781
0.000147603
0.00014914
0.000149068
0.000156793
0.000158259
0.0336349
0.000147524
0.000148493
0.0117624
0.000189202
0.000148813
0.000160617
0.000160648
0.000149077
0.000318764
0.000160848
0.000152429
0.000154779
0.0153834
0.0304575
0.000254407
0.000146339
0.000217128
0.000189941
0.0393741
0.0755963
0.000194621
0.000147748
0.000150009
0.000149411
0.000144238
0.000151613
0.000145174
0.000156868
0.00016399
0.0432967
0.000205239
0.000147754
0.000198482
0.0772752
0.000166041
0.000149627
0.036533
0.000147611
0.000149591
0.000160766
0.0436124
0.000149096
0.000147798
0.0242761
0.000240024
0.000254331
0.000196901
0.000262398
0.000147618
0.000210699
0.000149719
0.000147947
0.000149763
0.0105779
0.0372234
0.000146733
0.000145113
0.000148348
0.000177035
0.000151182
0.000161186
0.000148507
0.000149796
0.000209311
0.000146999
0.00017644
0.000200933
0.0377376
0.000148242
0.000172453
0.000153285
0.0558813
0.0744563
0.000148243
0.0573237
0.000185524
0.000260495
0.000149095
0.0192164
0.000149605
0.000157438
0.000166074
0.000196839
0.00797452
0.000240875
0.000214719
0.0623067
0.000146948
0.000251034
0.000146887
0.000156627
0.0270155
0.000148763
0.000149662
0.000150776
0.000148999
0.0419899
0.000145616
0.000148517
0.00018117
0.000169821
0.000177483
0.000206566
0.000205864
0.0215667
0.000185895
0.000167063
0.000171358
0.0468747
0.000171992
0.0782348
0.0196698
0.000156162
0.000147015
0.023621
0.000235716
0.000149708
0.000195413
0.000164803
0.000149368
0.000157373
0.000149149
0.00016626
0.000149943
0.000176195
0.000171372
0.000147194
0.000177682
0.000147159
0.000166977
0.000147079
0.000155111
0.00018017
0.000152506
0.000148636
0.000146827
0.000295918
0.00017691
0.0395985
0.000148262
0.000148851
0.000181923
0.000148244
0.000187327
0.000176939
0.000149372
0.000191737
0.000147011
0.0844712
0.000149586
0.000169721
0.0332488
0.00024792
0.000147669
0.000152213
0.013014
0.000147966
0.000147445
0.0440624
0.0684861
0.000153148
0.000212562
0.000148614
0.000148615
0.00964437
0.000151227
0.000145772
0.000258431
0.000147184
0.00026722
0.000149298
0.000145781
0.000149134
0.000206759
0.0285684
0.000148957
0.000149401
0.000147616
0.000154991
0.0001484
0.00023142
0.000177455
0.000149774
0.0210911
0.000165074
0.000256677
0.0454758
0.000430709
0.000146588
0.000149468
0.000148517
0.000212731
0.000155426
0.0290049
0.0399243
0.00015259
0.0294739
0.000323166
0.000176705
0.000209882
0.000169472
0.000190342
0.00707072
0.000167572
0.000295342
0.0542563
0.000185659
0.000154268
0.0475862
0.000164497
0.000145898
0.000152064
0.0850041
0.000162764
0.000147607
0.000166344
0.000189548
0.000164343
0.0448326
0.000152491
0.0518818
0.000171546
0.00023163
0.000198875
0.000219697
0.000159968
0.000146937
0.000150207
0.00883975
0.000147974
0.000152827
0.000147068
0.000151653
0.000147574
0.00016038
0.000211551
0.000296375
0.000163021
0.000165616
0.0020185
0.000194018
0.000147537
0.000194748
0.00672321
0.000146188
0.000147384
0.000161906
0.0267569
0.000149677
0.000182738
0.000216384
0.000166713
0.000148708
0.000151686
0.000147283
0.000195297
0.000162958
0.000147809
0.0255368
0.0166287
0.000163593
0.00023348
0.000186076
0.00547969
0.000151636
0.000155926
0.000479713
0.000206233
0.000194952
0.000272493
0.000158487
0.00014984
0.000147984
0.000149008
0.000148446
0.000150473
0.000166767
0.000147727
0.000204642
0.000147523
0.000159336
0.000146676
0.000175568
0.00020449
0.000284366
0.000148277
0.000219136
0.000147977
0.000174226
0.000148298
0.000154603
0.000148798
0.000229557
0.0539123
0.000208722
0.000147709
0.000205246
0.00014841
0.000159776
0.0655586
0.000147944
0.00014981
0.000169036
0.000162088
0.0265656
0.000147744
0.0001581
0.000151627
0.000148272
0.000158765
0.000149944
0.000146132
0.000152218
0.0392369
0.000153814
0.000250758
0.0313396
0.000175954
0.0295266
0.000153419
0.000146173
0.000158757
0.033576
0.000152153
0.000162038
0.000173319
0.00175219
0.000147449
0.00344753
0.000178547
0.000183455
0.000146112
0.000145251
0.00021329
0.000149949
0.000149904
0.000159396
0.000145861
0.000153237
0.000158937
0.000188216
0.000182287
0.0177532
0.000155695
0.000189354
0.000269677
0.0115513
0.000169953
0.000183138
0.0250847
0.00016981
0.084293
0.000152432
0.0133998
0.00316913
0.000145743
0.000149724
0.000147641
0.000150258
0.000168429
0.000146699
0.0001528
0.000194533
0.000151954
0.000160322
0.0581119
0.000157744
0.000153827
0.0671431
0.000150222
0.0201904
0.00015426
0.000165219
0.000147372
0.0392369
0.0368348
0.000148419
0.000150605
0.0133333
0.000157364
0.0160604
0.000148031
0.000147178
0.036183
0.0001506
0.000162631
0.00756365
0.000148472
0.000176142
0.000159371
0.000145225
0.000147298
0.0182919
0.0382066
0.000149101
0.000152509
0.000148614
0.000156367
0.000160359
0.0380907
0.000150468
0.000329615
0.000147268
0.00023233
0.000175104
0.000150445
0.000203613
0.000179645
0.000157106
0.000148423
0.000183627
0.0578725
0.000151845
0.00016315
0.0131314
0.000465328
0.0001835
0.000154255
0.000149377
0.000149617
0.000148499
0.0306325
0.00017975
0.000153227
0.000150905
0.000153984
0.000149798
0.000148155
0.000148509
0.000188897
0.000170215
0.015756
0.00016365
0.00836607
0.0224018
0.000158522
0.000177093
0.000146609
0.000157495
0.0335475
0.000148861
0.000152221
0.000178165
0.000200552
0.000165095
0.0066525
0.000242519
0.000147632
0.047389
0.00014496
0.000149247
0.000163925
0.000149818
0.00014784
0.000214348
0.0576234
0.000147228
0.00177515
0.000148778
0.00014649
0.000152038
0.00035111
0.000159147
0.000154219
0.0868522
0.00015101
0.00023882
0.0271522
0.000149608
0.000163855
0.000147952
0.0136362
0.000183393
0.000148555
0.0108689
0.000178388
0.000168335
0.000149856
0.0344663
0.000157251
0.000188143
0.00015112
0.00016793
0.0396254
0.000146697
0.000256131
0.000148904
0.000177932
0.000164181
0.000149601
0.0339575
0.000152176
0.000200198
0.000177316
0.000170026
0.000162757
0.000163151
0.00015032
0.0129659
0.000159042
0.0169334
0.000157874
0.000185486
0.000148131
0.00016783
0.000148624
0.000187396
0.00549269
0.0001506
0.000147064
0.000438965
0.000150917
0.000255184
0.000149961
0.00296795
0.000234148
0.000162853
0.000147952
0.000147606
0.000148709
0.000145201
0.000192494
0.000166044
0.000161043
0.000155529
0.000148465
0.000425589
0.000152695
0.000162189
0.000269193
0.000148529
0.0125733
0.000177845
0.000162172
0.000251382
0.0534293
0.000217672
0.00178955
0.0386636
0.000147413
0.000202105
0.0369747
0.000188864
0.000149107
0.000149463
0.000202265
0.0134155
0.0198071
0.000265768
0.000149215
0.000164534
0.000170352
0.0281289
0.00257038
0.000173199
0.000204995
0.000152746
0.000176403
0.000194736
0.000149052
0.000190291
0.067443
0.000148831
0.000195062
0.000149671
0.000148065
0.041539
0.0630686
0.000146874
0.00014947
0.000149917
0.000147207
0.00016614
0.000215342
0.000151623
0.00014788
0.000148584
0.000172206
0.000158255
0.000157846
0.000228192
0.000148399
0.0697863
0.0180127
0.0619287
0.000176501
0.000173806
0.000262655
0.000165202
0.0201999
0.000267974
0.0278159
0.000149778
0.0992235
0.0258305
0.000146275
0.000148233
0.000186243
0.0682074
0.0779296
0.000146906
0.000148442
0.0376296
0.00424994
0.0174688
0.000153062
0.000152737
0.000291703
0.000149156
0.0444501
0.0308663
0.000268024
0.00121217
0.000148741
0.000147642
0.00014711
0.000155084
0.0373786
0.000171954
0.000156295
0.000150597
0.000173268
0.0295069
0.000172243
0.0288072
0.0153918
0.0239541
0.000311522
0.000148381
0.000149096
0.00283809
0.000145504
0.000145876
0.000151239
0.000377307
0.000168553
0.0374041
0.000197778
0.00014821
0.0884243
0.000166914
0.000147589
0.0173573
0.000176794
0.000154236
0.000148613
0.00484519
0.0771601
0.000149161
0.0691776
0.000141508
0.0642709
0.000906508
0.000176181
0.000147826
0.000150203
0.000386881
0.000155812
0.0017975
0.000167799
0.00321165
0.000254909
0.000151005
0.000157329
0.000147849
0.00015057
0.0656166
0.0174309
0.000148497
0.0232237
0.000173786
0.000148478
0.000153757
0.000147586
0.00021054
0.000149861
0.00032929
0.000164804
0.00014777
0.000147033
0.000170068
0.0307229
0.000169339
0.000152931
0.000168337
0.000148588
0.000151623
0.000158943
0.0236532
0.0259732
0.0727297
0.00014595
0.000146969
0.000149622
0.000204059
0.000147178
0.000149741
0.00021475
0.000181861
0.000272815
0.000145617
0.0795735
0.025583
0.000149885
0.0218308
0.000201226
0.00016959
0.000313033
0.000149445
0.0387171
0.000157557
0.000151251
0.000152667
0.000145467
0.000232623
0.00015413
0.00015077
0.000158145
0.0221154
0.0299411
0.000149623
0.00014806
0.000152299
0.000148245
0.000200792
0.000150001
0.000185512
0.000152644
0.0554772
0.000150514
0.0380683
0.000145983
0.0945072
0.000149755
0.000145344
0.064812
0.00018625
0.000172012
0.000266288
0.000162579
0.000171248
0.000148496
0.0479648
0.000148484
0.000147221
0.000169264
0.000185484
0.045117
0.0475033
0.000198789
0.0658602
0.000196846
0.000418173
0.000147673
0.000155072
0.000159676
0.0731484
0.000153921
0.0736134
0.0293922
0.000148962
0.000148823
0.000148384
0.000411234
0.000424076
0.000152241
0.000148704
0.00015495
0.000158394
0.000169082
0.00025547
0.000196412
0.000148334
0.000202642
0.000183119
0.0312576
0.000184157
0.000151672
0.000153081
0.0884921
0.000147085
0.000186865
0.0107525
0.000150579
0.00015508
0.000215511
0.000173392
0.000150698
0.0255589
0.000153987
0.000255067
0.000172179
0.000158213
0.000150729
0.073633
0.000146978
0.000171893
0.000272987
0.0697644
0.000173938
0.000176122
0.000156539
0.000163897
0.00014976
0.070581
0.00015805
0.000148159
0.000161357
0.000148534
0.000149777
0.000378655
0.000148463
0.00014912
0.000148549
0.000205947
0.000149591
0.000161456
0.00018873
0.000208049
0.000193781
0.000149669
0.000184931
0.000195517
0.000212608
0.00018247
0.000156225
0.00020974
0.00374937
0.00026364
0.000149887
0.0449235
0.00544756
0.000149883
0.000153533
0.000145371
0.000220349
0.000186571
0.000148407
0.000256834
0.0727528
0.000146635
0.000149463
0.010923
0.0313077
0.000186157
0.000145518
0.0568395
0.0236893
0.0004703
0.00014818
0.07443
0.0001924
0.000167847
0.0612805
0.000156906
0.000145467
0.000161229
0.000204763
0.00016389
0.0107804
0.0824084
0.000147026
0.0491162
0.000201279
0.0430608
0.000145971
0.000163991
0.000149768
0.000147825
0.0619105
0.000189464
0.000244286
0.000182538
0.000157757
0.000174703
0.000152017
0.0779235
0.0197652
0.000148509
0.00014928
0.000158608
0.000147187
0.000177459
0.0396189
0.078399
0.000175325
0.000149969
0.000148799
0.067129
0.000154019
0.000177635
0.000146832
0.000151097
0.000265683
0.000240849
0.000262036
0.000356177
0.000149083
0.00026162
0.000152858
0.000163911
0.0918454
0.0224395
0.000148486
0.000149958
0.000168304
0.000154694
0.000149361
0.0589114
0.0740792
0.000146904
0.000144458
0.000149234
0.000147724
0.000335286
0.000146507
0.00869218
0.000192992
0.000185329
0.000147488
0.000166792
0.0850118
0.00016565
0.000197193
0.0502052
0.000149354
0.0369324
0.000159147
0.000160118
0.000191797
0.0367835
0.0426356
0.000183935
0.000147489
0.000191658
0.000146616
0.000154298
0.000149355
0.00614818
0.000158983
4.59952e-05
0.000238752
0.000174417
0.000148788
0.000221792
0.000158231
0.000149786
0.000182841
0.000144985
0.000170145
0.000165241
0.000149227
0.0865121
0.000151859
0.000204089
0.000150814
0.000147585
0.0589532
0.0444293
0.000152941
0.000158896
0.000171482
0.000171527
0.000183028
0.000157542
0.000155091
0.000155609
0.000233296
0.000154093
0.00318705
0.000166783
0.000246414
0.000202534
0.000150515
0.0565276
0.000145046
0.0129659
0.000153097
0.0694318
0.00940315
0.0344037
0.0355693
0.000269686
0.000168818
0.00014828
0.0446286
0.000170214
0.000148545
0.0277953
0.0264918
0.000151678
0.000153192
0.000160984
0.00016104
0.000164766
0.0475049
0.000149882
0.000162378
0.000167822
0.000159372
0.000149043
0.000193557
0.000145182
0.00376062
0.000152306
0.00019724
0.000162642
0.000169958
0.000184494
0.000156872
0.000183438
0.000147107
0.000189228
0.0321989
0.0713849
0.000149707
0.00133596
0.0001604
0.000301687
0.000148487
0.000153479
0.0532865
0.000179928
0.0312057
0.0344071
0.000159277
0.0904679
0.000148166
0.0001451
0.0305411
0.000165269
0.000153366
0.0587058
0.000157159
0.000163494
0.000157742
0.000177344
0.000148983
0.0147041
0.0125541
0.0097906
0.000252382
0.000155751
0.000171566
0.0340463
0.000152888
0.000149585
0.000176549
0.000145884
0.000185346
0.0499233
0.0192653
0.0297734
0.000181355
0.000149931
0.0746211
0.000144996
0.00018929
0.000149559
0.044394
0.000152657
0.000164453
0.0370787
0.000197204
0.000148087
0.000159349
0.00881295
0.00014888
0.000209012
0.0001469
0.0714862
0.0730786
0.000201291
0.000167909
0.000147593
0.000224432
0.000208649
0.000169583
0.000146931
0.000150025
0.000148898
0.000180942
0.000148787
0.000193766
0.000149158
0.000147067
0.0990033
0.000147559
0.000157072
0.000155693
0.000149828
0.0411395
0.000147508
0.000161215
0.0650161
0.000178094
0.00217082
0.000148751
0.0754366
0.000179477
0.0647002
0.000152255
0.000205248
0.000148901
0.000171458
0.000204644
0.00020201
0.00022542
0.0715799
0.000215953
0.000446338
0.000155779
0.000201423
0.000163034
0.00013396
0.000153981
0.00014868
0.000148512
0.000179403
0.000164821
0.000169319
0.000178634
0.00519696
0.0452434
0.000170902
0.000148345
0.00027477
0.000179417
0.000150124
0.000152878
0.000148763
0.00121947
0.000148514
0.0155282
0.00014747
0.000158631
0.0498726
0.000170908
0.00014836
0.000148455
0.0348476
0.00014756
0.000152853
0.000155611
0.000160487
0.00015822
0.000149026
0.000212188
0.000168379
0.000162832
0.000246564
0.0525351
0.0397442
0.0430474
0.00014609
0.000148208
0.000172341
0.000149962
0.000163449
0.000923821
0.0439506
0.000145481
0.000148468
0.0264918
0.000262668
0.000145639
0.000147163
0.000155418
0.0556421
0.0142699
0.000156919
0.000162124
0.000149322
0.000260812
0.000205328
0.000174488
0.00015856
0.000163629
0.000150067
0.000166656
0.000271736
0.000150798
0.000148904
0.000156514
0.0149305
0.000154306
0.0270759
0.000148682
0.0528689
0.000161977
0.000156549
0.000146389
0.000147513
0.000277741
0.0594136
0.000165196
0.0175195
0.057295
0.00015016
0.0652611
0.000209036
0.000148116
0.00022217
0.000253651
0.000201062
0.000149675
0.0313395
0.0436031
0.000148043
0.00016261
0.0263631
0.000166142
0.000148586
0.000146997
0.000149757
0.000153467
0.000183742
0.000253228
0.000168024
0.000180778
0.000146228
0.000149161
0.00130146
0.000147348
0.000167887
0.000155476
0.00014868
0.000174712
0.000148184
0.000152385
0.000253316
0.000147941
0.0573974
0.000148193
0.00639168
0.0379687
0.000190407
0.000149288
0.000149948
0.0769596
0.000145372
0.000153436
0.000149825
0.000209892
0.000255829
0.000164967
0.042539
0.000162697
0.000260432
0.000150429
0.000187161
0.000147124
0.000148907
0.0227826
0.046898
0.000538477
0.000152719
0.000186176
0.000186699
0.0417497
0.0694678
0.000246529
0.000166585
0.000144946
0.0680111
0.000147843
0.000148156
0.00025053
0.000202206
0.000156832
0.000179044
0.000163975
0.000159477
0.000158197
0.0908776
0.000154078
0.000147913
0.0232847
0.000164144
0.000146065
0.0262407
0.000148127
0.000148719
0.000210556
0.000187901
0.0383594
0.000146216
0.000153777
0.000147608
0.000314123
0.000147492
0.00020032
0.000161041
0.0368193
0.0231005
0.0165499
0.000157858
0.058937
0.000223208
0.000149387
0.000158375
0.000162882
0.000157913
0.000247428
0.0570431
0.0625632
0.0311328
0.000333261
0.000149052
0.000198906
0.000148164
0.0226401
0.000160008
0.000151868
0.00015353
0.000150588
0.00014754
0.000197849
0.0651608
0.000145976
0.000152642
0.00014696
0.0530666
0.000152377
0.0967638
0.00439996
0.000370863
0.000148611
0.000147599
0.0436061
0.000190854
0.0001489
0.000192926
0.000149513
0.000189793
0.000178293
0.000192167
0.000178754
0.0484639
0.000146834
0.000147137
0.000226085
0.0245561
0.000159789
0.000166255
0.000147875
0.011666
0.000148206
0.00014765
0.00015163
0.000148274
0.0064154
0.0527078
0.000267245
0.000183759
0.077564
0.000123784
0.000145499
0.000163509
0.000145862
0.000255534
0.000148242
0.000153785
0.000148223
0.00014747
0.000146988
0.000428597
0.000150973
0.000281108
0.000145189
0.000158934
0.000157189
0.00026509
0.000148303
0.000163599
0.000167886
0.000172044
0.0885002
0.000147459
0.0316755
0.000176111
0.000164558
0.000148498
0.000147768
0.0287162
0.0116711
0.000148303
0.000147705
0.000246967
0.000232794
0.000160974
0.0554484
0.000150664
0.000262627
0.000163798
0.000145892
0.00994897
0.000151436
0.0207499
0.00014847
0.000150561
0.000148776
0.0488808
0.036948
0.00014564
0.000181718
0.000227437
0.000148298
0.000147586
0.000147728
0.000183356
0.0655329
0.000174965
0.000154238
0.000167452
0.0001482
0.00014862
0.000152783
0.000147974
0.000216663
0.000148725
0.000185434
0.000261342
0.000164505
0.000145128
0.000323949
0.000188355
0.000148255
0.000178295
0.000162668
0.000269885
0.000153497
0.0896811
0.0001759
0.000148275
0.000184349
0.00018493
0.000154566
0.0984321
0.000183809
0.0001623
0.000271491
0.000147964
0.000186504
0.000169411
0.000182729
0.000147603
0.000148157
0.000145337
0.000159395
0.000181754
0.000181003
0.0366837
0.0362838
0.00518889
0.000149774
0.00030076
0.0339062
0.0682613
0.000148256
0.000148448
0.000179324
0.0193548
0.000153035
0.000167832
0.0120388
0.0444024
0.00620307
0.000171856
0.000211622
0.0268368
0.000178064
0.000145185
0.00283884
0.000238855
0.000149537
0.000149597
0.000150784
0.0731146
0.000186939
0.0148722
0.000153078
0.0186648
0.000148858
0.000236922
0.0297107
0.000149251
0.000166498
0.0660113
0.00223817
0.00017482
0.000151022
0.000152364
0.00014994
0.000186195
0.000204458
0.00137438
0.0682173
0.000146444
0.0194254
0.000194464
0.000257944
0.000148086
0.000149043
0.000266437
0.000182731
0.000148049
0.000172843
0.000167547
0.000161212
0.00300489
0.0202468
0.0823167
0.0713377
0.000154664
0.000145726
0.000166581
0.0246017
0.07595
0.000148015
0.000184197
0.00016966
0.000192442
0.000149884
0.000149704
0.000242486
0.000169645
0.0138131
0.000278778
0.0182659
0.000147756
0.000183283
0.0709573
0.000149448
0.000166113
0.000194995
0.00014574
0.000212807
0.049397
0.000180773
0.000149696
0.0146338
0.000200108
0.060266
0.000144297
0.000152998
0.000148978
0.000151768
0.000148862
0.000170724
0.000162697
0.000162584
0.000185808
0.000166157
0.054563
0.00015425
0.000161283
0.000157956
0.0280803
0.000165301
0.0399327
0.000157591
0.000156396
0.0133399
0.000170336
0.0001488
0.000162815
0.000475824
0.0227545
0.000278072
0.00014818
0.000147722
0.000147958
0.000238017
0.000151473
0.000330587
0.000259341
0.000182934
0.000160865
0.000221575
0.0350012
0.000148854
0.0641721
0.000160104
0.000163961
0.000148015
0.000147861
0.000175941
0.0794078
0.000148434
0.0342068
0.00022668
0.000170761
0.000204565
0.000147565
0.000148112
0.000161827
0.000151233
0.068744
0.0307401
0.000170005
0.000272639
0.000148097
0.000148703
0.000149025
0.000149611
0.0927686
0.000151992
0.0532468
0.000169072
0.000149975
0.000190869
0.00152561
0.0301484
0.0255487
0.0001527
0.000146982
0.00014884
0.000152601
0.000211238
0.00018184
0.0940478
0.000149005
0.000149837
0.000176934
0.000149709
0.000232364
0.000152358
0.000175545
0.000177065
0.000162641
0.000162798
0.000146205
0.000173105
0.000162254
0.000181819
0.000168224
0.000163089