/*--------------------------------*- C++ -*----------------------------------*\
| =========                 |                                                 |
| \\      /  F ield         | OpenFOAM: The Open Source CFD Toolbox           |
|  \\    /   O peration     | Version:  v2012                                 |
|   \\  /    A nd           | Website:  www.openfoam.com                      |
|    \\/     M anipulation  |                                                 |
\*---------------------------------------------------------------------------*/
FoamFile
{
    version     2.0;
    format      ascii;
    class       volScalarField;
    location    "250";
    object      p;
}
// * * * * * * * * * * * * * * * * * * * * * * * * * * * * * * * * * * * * * //

dimensions      [0 2 -2 0 0 0 0];


internalField   nonuniform List<scalar> 
13917
(
-0.128903
-0.019276
-0.0629522
-0.0553361
0.0261511
0.452906
-0.0539134
-0.0722719
-0.220096
-0.197954
-0.0961475
-0.0821521
-0.0557857
-0.0733881
0.0291446
0.00396847
-0.0123917
-0.16614
-0.081599
0.000644033
0.0154867
-0.0497317
0.00703851
-0.07837
0.0205261
-0.0484227
0.215257
0.219747
0.0412007
-0.266444
-0.146255
-0.0750693
0.165188
0.111367
0.0272054
-0.0766699
0.00716877
-0.0793196
-0.0615952
-0.0481638
-0.0125444
0.0132754
-0.0254678
0.239741
-0.0412528
0.126121
-0.162282
-0.156619
0.495682
-0.00616303
-0.0928887
0.0571147
0.500112
0.115371
-0.0109354
-0.0971141
-0.0982755
0.015643
-0.0808591
-0.039725
-0.526042
-0.0211153
-0.0711458
0.000804261
0.442531
-0.501225
0.029775
0.0374788
-0.159889
-0.0892104
0.025479
-0.219749
-0.272337
0.019726
0.47719
-0.072927
-0.191007
-0.058258
-0.0497128
0.0149433
0.0100661
0.0291914
0.423958
-0.0813801
-0.538275
-0.0569308
0.00693642
-0.463191
-0.0907625
-0.0258416
-0.199347
-0.246496
-0.023395
0.0366792
-0.505258
0.449206
-0.125755
-0.161031
-0.0717135
0.321477
-0.0146603
0.169016
0.25018
-0.0659624
-0.0184272
-0.249713
0.0119205
-0.159879
-0.0146905
-0.150083
-0.46175
-0.0479885
-0.0802006
-0.242996
0.0744932
0.518801
0.00892173
0.49028
-0.0451328
0.112082
0.0133837
-0.162164
-0.0477036
0.214075
-0.00823353
0.0355053
-0.036019
-0.00792404
-0.0231318
0.455229
-0.0504581
0.0724356
-0.0416582
0.0160239
-0.37111
-0.0763561
-0.126155
0.33602
0.0298252
0.111971
-0.0820578
-0.0271943
0.0572863
0.275533
0.0378485
-0.213289
-0.0230709
0.0550795
-0.0263055
-0.070405
-0.119152
0.516317
-0.102792
-0.0551284
-0.0908004
-0.532233
-0.0829552
-0.117584
-0.191932
-0.381873
0.0749365
0.220787
0.0112177
-0.123859
-0.0813232
-0.0726821
-0.06502
-0.137569
-0.034127
0.175043
-0.0782627
-0.49472
-0.0770154
-0.0105076
-0.170541
-0.0493022
-0.0477925
0.496946
-0.206706
-0.00910129
-0.254043
-0.153277
-0.0278502
0.00727162
0.0621021
-0.0513746
-0.384508
-0.529917
-0.138128
-0.0792569
-0.099325
-0.538196
-0.37986
0.0124001
0.357889
0.207007
-0.0171513
-0.0234662
-0.0037713
-0.466797
-0.078699
-0.00578744
-0.128552
-0.117306
-0.269021
-0.287355
0.0271563
0.0164264
-0.156655
-0.0531947
0.0549122
-0.0547976
-0.270551
-0.0805351
-0.0179682
0.284705
-0.146536
-0.43713
0.00490092
-0.518627
-0.00872848
-0.250233
-0.0120045
-0.0974837
-0.262633
0.00245136
-0.400148
-0.0945349
-0.0171987
-0.0775147
-0.0764592
-0.135724
-0.0663414
-0.274158
-0.0166535
-0.0791829
-0.202531
-0.540637
0.0118597
-0.00579539
-0.0520206
-0.131399
-0.00173825
-0.0754412
-0.215975
0.213835
-0.122251
0.0106925
-0.0101195
-0.240381
-0.0432222
-0.284016
0.333251
-0.0357751
0.0167472
-0.100206
-0.0507645
-0.102465
0.059909
0.0246528
-0.00135549
-0.0461335
-0.394062
-0.0678188
-0.01659
-0.338844
-0.0836173
-0.114835
-0.0463978
-0.0726358
0.0106777
-0.00962568
-0.159713
-0.125332
-0.185997
-0.0785684
-0.296182
-0.0723419
-0.0230641
-0.46283
-0.000878609
-0.164101
-0.0768237
-0.00180726
-0.00627021
-0.0494934
0.21965
-0.0749183
-0.0123113
-0.0462342
-0.360528
-0.0680874
-0.387966
0.00538804
-0.13199
0.02604
-0.0462499
0.00855213
-0.0619251
-0.00369393
-0.257988
-0.116387
-0.0337336
-0.127777
-0.0414457
0.509938
-0.0466527
-0.237609
-0.0328813
0.0160392
-0.469365
-0.0526366
0.00836377
-0.0106859
-0.469904
-0.0137305
-0.26739
-0.0319734
-0.100663
-0.0481252
-0.357878
-0.109295
0.45249
0.0711085
-0.37695
0.326954
-0.0086406
-0.135009
-0.136516
0.0125479
-0.0559835
0.355503
-0.0859947
0.0975616
-0.0427374
-0.0865189
-0.514956
0.324779
-0.00584773
-0.0187734
-0.0616504
0.0168406
-0.0863083
-0.463881
0.0323722
-0.000226902
-0.0754624
-0.0114047
-0.0159336
-0.100776
0.0808781
-0.0124831
-0.0427855
-0.0852436
-0.000769951
-0.00890828
0.0261022
-0.0267516
-0.351003
-0.193151
0.42742
-0.472715
0.0151373
-0.293875
-0.526293
-0.119701
-0.0515699
-0.128603
-0.255489
-0.017328
-0.0683857
-0.0108769
-0.517843
-0.0386815
0.439327
-0.22125
-0.0654519
0.0173275
-0.153539
-0.263278
-0.186419
-0.181815
-0.512195
-0.438455
-0.0175395
-0.188064
-0.00556333
-0.542121
-0.0490814
0.00961642
-0.367282
0.0211742
-0.286035
-0.0482736
0.0168835
-0.036215
-0.053461
-0.034236
-0.0520268
-0.513924
-0.0906368
0.363378
0.0105047
0.305135
0.343957
0.00425602
0.0214159
0.0308673
0.0223361
-0.26631
-0.00124672
0.022509
-0.011268
-0.343678
0.0149482
-0.0431784
-0.0521038
-0.51395
-0.374097
-0.0473924
-0.404699
-0.117151
0.0146096
-0.274343
-0.0614894
-0.0863277
0.0123383
-0.196298
-0.0534246
-0.0541364
0.0173338
-0.219647
0.0948404
-0.0626247
-0.182697
-0.0195021
-0.0658499
-0.015842
-0.00359272
-0.270446
-0.0483751
-0.0479817
-0.274215
-0.514266
-0.0566622
-0.405659
-0.144368
-0.0223338
-0.15915
-0.0216351
0.0194148
-0.296849
-0.162694
-0.0243648
-0.199345
-0.119984
-0.128849
0.00402742
-0.151983
-0.509371
-0.399122
-0.0433047
0.0155368
0.010987
-0.0175361
-0.0769425
-0.0173936
-0.0514246
0.431931
-0.0140265
-0.538662
-0.0958219
-0.120131
-0.408091
-0.0315726
-0.0898099
-0.0827989
-0.1502
-0.20052
-0.2496
-0.0919168
-0.0802776
0.438277
-0.0843262
-0.154607
-0.0201651
-0.342749
-0.097167
-0.0333541
-0.0708501
-0.0606842
-0.134942
-0.244984
-0.0130211
-0.0229052
-0.0550197
-0.405776
-0.00149767
-0.0424112
-0.0594084
-0.349885
-0.0118915
-0.30475
-0.18366
-0.073483
-0.0392928
-0.0467802
-0.369494
-0.53799
-0.00107113
-0.258527
0.505891
-0.475377
-0.0334976
-0.540398
-0.388402
-0.115517
-0.00970087
-0.00483021
-0.0709996
-0.289324
-0.0244657
-0.00855529
-0.00783134
-0.00818572
-0.33545
-0.301121
-0.115461
-0.379579
-0.00989656
-0.0141998
-0.213289
-0.3212
-0.126989
-0.0353451
0.0215019
0.0325486
-0.46977
-0.537196
0.0047908
0.0308546
-0.066922
-0.0931045
-0.107619
0.0126064
-0.0313523
-0.0556796
-0.150935
-0.113675
-0.389679
-0.276124
-0.186449
-0.28225
-0.235025
0.00696631
-0.24624
0.0324811
-0.00155825
-0.0687694
-0.336403
-0.0562861
-0.0140529
-0.396537
-0.28105
-0.506729
-0.189971
0.104782
-0.122631
0.0177082
-0.390618
-0.374516
-0.0640359
-0.0150416
-0.110981
-0.386187
-0.132772
-0.338487
-0.164159
-0.285899
0.00892371
-0.064064
0.0139795
0.0742871
0.269629
0.0524934
-0.142572
0.33838
-0.0645543
-0.538878
-0.0362675
-0.118177
-0.179709
-0.0132678
0.0503576
0.309818
-0.299791
-0.177436
-0.369864
-0.0229972
-0.0436667
-0.0720932
-0.0140603
-0.114778
-0.125924
0.15687
-0.260637
-0.0476656
-0.243778
-0.0893143
-0.383611
-0.0638468
-0.147044
0.0124585
0.00502333
-0.126898
-0.292771
0.405788
-0.0642748
-0.0120097
0.0301163
-0.0733602
0.489536
-0.0732766
-0.0668837
-0.0904552
-0.149444
-0.0114454
-0.381693
-0.0726337
-0.0628554
0.00189463
-0.234388
-0.0599921
-0.512868
-0.205019
-0.0652819
-0.112718
-0.0112939
-0.0315292
-0.0373975
-0.0538463
0.126673
-0.359381
0.0272544
-0.138755
-0.0119204
-0.253852
0.397201
-0.0806199
-0.0426063
0.115625
-0.00778651
-0.075446
-0.083698
-0.388996
0.0156049
-0.441213
-0.0773676
-0.0947221
-0.245736
-0.290186
-0.0912208
-0.00406486
-0.143157
-0.341204
-7.6169e-05
-0.067583
-0.206127
-0.360422
-0.181302
-0.00170796
-0.040669
-0.335752
-0.066013
-0.187286
-0.100197
-0.0321357
-0.113712
-0.0672328
-0.0419208
-0.0536441
-0.00704543
-0.0503094
0.0167029
0.017844
-0.499817
0.0105511
-0.2878
-0.0897903
0.168512
-0.00742621
-0.0639274
0.00917902
-0.199623
-0.0110568
-0.156559
-0.0592062
-0.502038
0.143708
-0.327754
-0.0165291
0.017408
-0.225907
-0.167651
-0.068668
-0.277428
-0.16935
0.0255472
-0.334744
0.424806
-0.0635288
-0.35234
-0.152168
-0.0506347
-0.11835
-0.0722553
-0.27206
0.0207016
-0.167287
0.414598
-0.169571
-0.0595869
-0.127189
-0.0138757
-0.0364904
-0.0754244
-0.15122
-0.0650148
0.0121331
-0.0103194
-0.144219
-0.0664124
-0.191857
0.0247634
0.0232407
0.0172024
-0.0259889
-0.0276193
-0.0597186
-0.00628606
-0.307064
-0.079329
0.391851
-0.0159761
0.00713542
0.178391
-0.205475
0.070396
-0.464865
-0.20441
-0.510199
-0.0771024
-0.230286
-0.0546538
0.0122513
-0.00862359
-0.0394825
-0.524072
0.0066906
-0.281885
-0.0612033
-0.528033
-0.00478179
-0.213578
-0.0941418
-0.0250065
-0.00162205
-0.0802429
0.0353722
0.0255419
-0.447379
-0.0119956
0.0252962
-0.10077
-0.00691456
-0.0218065
-0.0720834
0.13744
-0.0667648
-0.107093
-0.0418361
-0.0130621
-0.134988
-0.04334
0.00456754
-0.0161361
-0.454583
-0.19424
-0.466184
0.0978339
-0.0606183
-0.016168
-0.0219984
-0.0857993
-0.113064
-0.111072
0.101247
-0.0585906
-0.0291308
0.0447523
-0.467627
0.021915
-0.0980863
0.00167421
-0.00414203
-0.142722
0.226497
-0.0528824
-0.275575
-0.0478832
-0.250498
0.00642856
-0.0291921
-0.0783146
-0.288334
-0.000927565
-0.262244
-0.0287929
-0.145067
-0.0364922
-0.0375379
-0.29779
-0.0427398
-0.0595893
-0.146108
0.0182763
-0.0249817
0.0432645
-0.00621141
-0.0532947
0.194211
-0.0410203
-0.033912
-0.15985
-0.207624
-0.0903565
-0.160323
-0.173669
-0.0843531
-0.0268939
0.129906
-0.261738
-0.169742
0.0198878
-0.0376668
-0.269424
-0.129751
-0.477582
0.0178113
0.0724048
-0.0517556
-0.11816
-0.0551422
-0.535985
0.453241
-0.00680123
-0.265315
-0.00898799
-0.0416166
-0.0162342
-0.334428
-0.0272898
-0.0403965
-0.0275558
-0.0584519
-0.0614073
-0.355975
0.281657
-0.0380105
0.16546
0.00391793
-0.47592
-0.00369058
-0.041588
0.0245559
-0.0786824
0.0250098
-0.24053
-0.0512883
-0.0667502
0.11138
-0.0874003
-0.503723
0.0143117
-0.0429759
-0.535905
-0.501834
-0.0464308
-0.154918
-0.517034
-0.249034
-0.00705763
-0.0478164
-0.117741
-0.049829
-0.032846
-0.0244936
0.00255872
0.00419956
-0.089452
0.111339
-0.0542144
-0.0244613
0.0286135
-0.533677
-0.112036
0.0434868
0.200138
-0.110636
-0.0480538
0.0771934
0.203818
0.0606531
-0.0619852
-0.0471956
-0.47211
0.491415
-0.0361697
-0.365166
-0.274448
-0.533008
-0.268084
-0.074675
-0.0132863
-0.0558105
-0.0274805
-0.0245053
-0.0293671
-0.0222673
-0.0576737
-0.113377
-0.539171
-0.155481
-0.0409174
-0.224122
-0.395027
-0.136768
0.0456132
-0.163834
-0.0324622
0.0248014
0.182431
-0.53898
0.0265788
0.00275834
-0.0542461
-0.0896865
-0.17011
-0.186809
-0.0778359
-0.00365464
-0.268095
0.0460742
0.000805632
0.0495434
-0.0500391
-0.465491
-0.0351225
-0.0254001
0.00164863
-0.201421
-0.0245477
-0.111975
0.0345186
-0.0147143
-0.268029
-0.0386194
-0.203583
-0.240292
-0.0466751
-0.0343611
-0.136759
-0.0366362
-0.301066
-0.389054
0.0215931
-0.465946
-0.17707
0.460424
0.02572
-0.0529852
0.0252073
-0.0953154
-0.130424
-0.189547
-0.0539792
-0.0636138
-0.0680443
-0.314959
-0.0121647
-0.236406
-0.0375149
-0.0166841
-0.0584275
0.0184132
0.0249431
-0.0406421
-0.046236
-0.538172
-0.0238571
0.00749035
-0.116094
-0.168494
-0.136198
0.430382
-0.0695037
-0.531019
-0.0718221
-0.126942
-0.0711154
-0.147461
-0.092169
-0.52633
-0.0455481
-0.0781428
-0.0388296
-0.0513936
-0.0641093
0.0538534
-0.227113
-0.129938
-0.0503743
-0.0909351
-0.0475038
-0.132557
-0.000496484
-0.148457
0.290249
-0.0101519
-0.199556
-0.0360383
-0.00997704
-0.011303
0.115947
-0.163244
-0.0679714
-0.0476721
-0.0350454
0.249539
-0.225727
-0.269299
0.0220869
-0.0246024
-0.142721
0.00312909
-0.246369
-0.228925
-0.050315
-0.216689
-0.0354666
-0.507241
0.0518177
-0.0871225
-0.0781349
-0.224434
-0.00168157
-0.00814344
-0.0487269
0.000379556
-0.00654072
-0.531982
-0.337535
0.0908435
-0.0674353
0.00011973
-0.0474328
-0.0522332
-0.0408948
-0.0246944
-0.167796
-0.0371869
-0.14039
0.0100005
-0.0240801
0.00666859
-0.0697378
-0.0439992
0.030858
0.0164004
-0.00317676
0.0209192
-0.0043158
0.40305
-0.193272
-0.000727582
-0.185615
-0.0144563
-0.24209
-0.0567129
0.358909
-0.0344348
0.0433429
0.0031692
0.0245869
0.0341927
-0.0441035
-0.489271
0.0677232
-0.055536
0.473271
-0.144555
-0.0681348
-0.0823577
0.419426
-0.0549759
-0.0203454
-0.444296
-0.0803665
-0.0881922
0.0129832
-0.137613
0.212485
-0.0330299
-0.0674241
-0.529079
-0.0598307
-0.0137107
-0.0741602
-0.253141
-0.119104
-0.10482
-0.0230166
-0.313933
-0.0762303
-0.0630368
-0.242786
-0.37091
-0.107207
-0.0345625
-0.014761
-0.0648191
0.00546736
0.0636863
-0.0198152
-0.0340572
-0.0276607
0.0616074
-0.0801502
0.428004
0.109157
0.272911
-0.0541009
-0.129117
-0.0304619
-0.1909
-0.0510238
-0.0258629
-0.00732936
-0.116659
-0.524819
0.02362
-0.198441
-0.228833
-0.123617
0.0347069
-0.0591397
-0.0387511
-0.231253
-0.0530156
-0.00666098
-0.502062
-0.0506191
-0.0136633
-0.270507
-0.0868986
-0.4866
0.00798149
-0.0866216
-0.0551771
-0.248818
-0.0752379
0.201343
-0.0818017
0.0118795
-0.0430487
-0.0217969
0.0290644
0.0584571
-0.0883101
7.85003e-05
-0.105011
-0.00658813
-0.103979
-0.0366295
-0.214093
-0.0891113
-0.428363
0.0137907
-0.37562
-0.042891
-0.0594707
0.0214665
0.111134
0.0193894
-0.116128
-0.293795
-0.0715537
-0.000913232
-0.159973
-0.00598697
-0.0884079
-0.293442
-0.0399071
0.0511337
-0.162856
-0.114306
-0.0540377
0.000892235
0.0105219
-0.0546828
0.0117176
0.116914
-0.00969102
-0.0179272
0.0609235
-0.236779
-0.0623117
-0.109757
-0.184842
-0.171394
-0.0444669
-0.0593403
-0.0176792
0.0162525
-0.353846
-0.0584241
-0.0524064
-0.106717
-0.444382
-0.00842143
-0.511374
-0.202832
-0.194141
-0.025975
-0.0243489
-0.068221
0.0484886
0.0192728
0.172794
-0.0322361
0.0759008
-0.0928551
-0.101773
0.434702
-0.0516183
-0.062182
-0.112272
-0.059696
-0.0489724
-0.0919983
0.141675
-0.531628
-0.139674
-0.534612
0.0895066
-0.488149
-0.511478
-0.0337659
-0.000122203
-0.00435602
-0.0550007
-0.159849
-0.037126
0.0910648
-0.0730092
-0.0647278
0.0563186
-0.204728
0.120014
-0.0755335
-0.216406
-0.0545579
-0.0422331
-0.0679469
0.0853843
-0.00998375
-0.31708
-0.487387
-0.00735679
-0.0570558
-0.0531448
0.11799
-0.539132
-0.00514163
-0.0379512
-0.0637732
-0.0588078
0.14145
-0.509492
0.0290547
-0.18358
-0.0896961
-0.0247824
-0.0112435
-0.0495012
-0.507989
-0.0343995
-0.0697455
0.0184002
-0.0598576
0.191982
-0.152914
0.038895
0.383881
-0.123369
-0.0631502
-0.255577
-0.0579764
-0.0701983
0.0503123
0.111808
0.0223172
-0.102036
-0.160758
0.0579172
0.169223
-0.0805379
0.467051
0.412333
0.107237
0.0146031
0.0240074
0.0319846
-0.487325
-0.141644
-0.070059
-0.0583156
-0.075637
0.0105159
0.00308951
0.0341336
-0.113507
-0.0755286
-0.175257
0.113147
-0.514319
-0.0512788
0.0097441
-0.148315
-0.015161
-0.0167424
-0.31185
-0.0174756
-0.0271676
-0.135395
-0.178155
0.265798
-0.0541418
-0.0914176
-0.0315898
-0.0830344
-0.0253172
-0.0489644
0.043749
0.0193741
-0.0428557
-0.170373
-0.368735
-0.0373708
-0.0527159
-0.0229054
-0.034525
-0.0271327
0.409756
-0.0811599
-0.0668914
-0.538852
-0.0428481
-0.114768
-0.0481088
-0.00154964
0.106505
-0.00551513
-0.0529584
-0.199089
0.0362981
-0.050304
-0.155566
0.227449
0.0109542
-0.480285
0.0807423
0.419467
-0.054204
0.128229
-0.358173
-0.0341826
0.284407
0.0295167
-0.203668
0.199638
-0.00174454
-0.539587
0.00983572
-0.174011
-0.189419
0.341936
-0.00667108
0.0468151
0.0380549
-0.0783436
0.0421779
-0.0430594
0.0695984
-0.102181
-0.0318316
-0.153858
0.031618
-0.0716393
-0.0589466
-0.0150711
-0.0201656
0.467346
-0.0600812
-0.0592614
-0.0506057
-0.0526765
-0.0626206
-0.104023
0.00474607
-0.00292405
0.0264294
-0.022655
-0.234299
0.0130927
0.205388
-0.0618158
-0.00134109
-0.301036
-0.0704327
-0.0977937
-0.0603206
0.0303431
-0.510347
-0.139826
-0.0724895
0.497481
-0.173963
-0.3719
-0.0565149
-0.483793
-0.00950011
-0.242554
-0.528279
0.44559
0.00304941
0.0507604
-0.105849
-0.0518196
-0.0427085
-0.414804
-0.0462565
0.0958706
-0.141194
-0.047901
-0.511739
-0.110027
-0.136438
-0.0255351
-0.220264
-0.0734685
0.0033112
-0.259347
-0.453875
0.0244243
-0.138336
0.00473034
-0.0411077
-0.100198
-0.163331
-0.0126918
-0.0472088
-0.0436891
-0.0369297
-0.0830012
-0.179759
-0.0591834
-0.00153298
0.0012347
-0.0893895
-0.0884891
-0.0827338
-0.361174
0.028203
-0.210587
-0.539112
-0.105696
0.0711923
-0.184037
-0.160574
-0.121566
-0.0525476
-0.109466
-0.496425
-0.0119857
-0.467945
-0.0488187
-0.0170409
0.0107006
-0.269868
-0.501068
-0.507815
-0.0382805
-0.00315392
-0.0464131
-0.462488
-0.4915
-0.0543052
0.085488
0.508086
0.0181621
-0.0545982
-0.532615
-0.0827838
-0.467234
0.0349791
-0.00273682
-0.010987
0.103405
-0.0560075
-0.105488
-0.0767055
0.0680266
-0.150598
-0.506387
-0.0880205
-0.266325
-0.533422
-0.0440575
0.429152
0.0235552
0.00222485
-0.0541431
-0.0235134
-0.032855
0.00893005
0.515135
-0.133218
-0.531855
-0.277539
0.0149288
-0.283911
-0.143291
-0.0266601
-0.540857
0.194313
0.107346
-0.0475257
-0.511179
-0.453858
0.0236737
-0.425224
-0.120117
-0.536128
-0.467492
-0.223209
-0.00516491
-0.0524222
-0.383606
-0.0858451
-0.0582862
-0.152382
-0.483181
-0.173131
0.0609125
0.0577313
-0.0103283
0.0442319
-0.520411
-0.041515
0.0311583
-0.539189
-0.112609
-0.0016763
0.0617943
-0.00314732
-0.223503
-0.0420692
0.492232
0.0694159
-0.00737402
-0.0118882
0.32466
-0.159084
-0.141126
-0.0291895
-0.155566
0.0316631
-0.0626869
-0.0922525
-0.489693
-0.0433651
-0.481228
-0.020379
-0.0118574
-0.00743822
-0.0715112
-0.0108343
-0.00973717
-0.167169
-0.13421
-0.11184
-0.0330974
-0.423287
-0.0434664
-0.0015488
-0.515834
-0.146475
-0.0935005
0.459454
-0.00860108
-0.539798
0.0719105
0.0394905
0.0766222
-0.0233301
-0.0733437
-0.0159534
-0.0538012
0.155816
-0.0492627
-0.0443385
0.00512713
-0.00642711
-0.0583935
-0.0331722
-0.247743
0.0536338
-0.232967
-0.0697301
-0.154963
-0.0563398
-0.0611084
-0.0210063
-0.343267
-0.0478539
-0.0241113
-0.538069
0.301661
0.346247
-0.0806471
0.148876
-0.134903
0.0333522
-0.436807
0.0321415
-0.0100663
0.332945
-0.076957
-0.534275
-0.525727
-0.231926
-0.383333
-0.277109
-0.414118
-0.024363
-0.0831112
-0.09442
-0.265502
0.103662
-0.373709
-0.0458564
-0.0489808
0.0427921
0.00323467
-0.391076
0.479504
-0.0679823
0.0117364
0.0045515
-0.0872804
-0.135796
-0.38191
-0.207199
-0.00213225
0.412292
-0.246931
-0.276733
-0.195976
-0.0249456
-0.0677767
-0.280001
-0.010982
-0.240214
-0.0572159
0.0183814
-0.0601303
-0.175599
0.353937
0.0436599
-0.0562793
-0.0745506
-0.229925
-0.0755107
0.0355994
-0.059928
-0.461669
-0.012186
0.0299043
0.499419
-0.516956
-0.172334
-0.215789
-0.0783141
0.0868404
0.0227637
-0.52081
-0.0884406
-0.0438416
-0.113443
-0.00024816
-0.00032208
0.512522
0.0220927
-0.00255494
0.00636148
-0.129347
0.0536881
-0.0879144
-0.116676
-0.357701
-0.268864
0.02431
-0.0825078
0.188034
-0.351082
-0.246318
0.130548
-0.213614
-0.0708582
-0.40925
-0.000293923
-0.438416
-0.0517892
-0.000706208
-0.071759
-0.0230207
0.448017
-0.27579
-0.0465724
0.500557
-0.332402
-0.0150913
0.0515889
-0.053813
-0.0459911
-0.0777762
-0.0242288
-0.50867
-0.051643
0.417769
0.0101784
-0.253936
-0.0733963
0.113623
-0.507895
-0.0930573
-0.0226993
-0.113948
-0.33957
-0.118157
-0.0512479
-0.413878
-0.0210281
-0.321503
-0.0476001
-0.528012
-0.0214073
0.255411
0.0581193
-0.00641787
-0.101511
-0.218864
-0.213408
-0.133694
0.0163662
-0.171426
-0.0134542
-0.482831
-0.0417174
0.0344442
-0.0360589
0.160202
-0.0397182
-0.144175
-0.0738957
-0.433004
-0.173684
-0.0496569
-0.048073
-0.133262
0.0606936
-0.155779
-0.0220859
0.00671107
-0.413795
-0.232072
-0.167154
0.303045
0.0014625
-0.277528
-0.0153824
0.0732066
-0.520045
-0.535804
0.0212328
0.0138625
-0.0863669
0.0958739
0.0488321
-0.103739
-0.303992
-0.0315419
-0.024473
0.0234966
-0.00335629
0.251583
-0.0352857
-0.0516641
-0.22893
-0.0748572
-0.027506
-0.125577
-0.424879
-0.120713
-0.0701525
-0.539811
0.0183347
-0.281802
0.157171
0.188462
-0.0529551
-0.40914
-0.527224
-0.08204
-0.00792976
-0.221576
-0.0352919
0.103263
0.0429783
-0.0554189
0.048534
-0.470429
-0.0689686
-0.163792
0.0251236
-0.371781
-0.0941977
0.000151819
0.431845
-0.0234707
-0.0707957
-0.131771
0.0410526
-0.512495
-0.00617926
0.449847
0.0373009
-0.00355434
-0.53748
-0.0552284
0.0775949
0.168116
-0.0931338
-0.183595
-0.0998442
-0.0789887
0.0163922
-0.0850248
-0.0870266
0.0769097
-0.0530979
0.00373913
-0.0794753
-0.06999
-0.0586111
-0.105912
-0.0229162
-0.0566591
0.0892341
-0.468881
-0.476936
-0.494751
-0.441708
-0.290572
0.0578995
-0.0457708
-0.0714711
0.0636452
0.0351505
-0.47737
-0.175072
0.0579046
-0.0688756
-0.101347
-0.10468
-0.108844
-0.274059
-0.00170924
-0.0738825
-0.0956489
0.0225831
0.00249026
-0.0940198
-0.0278348
-0.0530418
0.0476952
-0.283899
-0.118332
-0.142576
-0.268591
-0.213323
-0.252193
-0.0183939
-0.189641
-0.0577435
-0.528338
-0.0538051
-0.0540306
-0.108498
0.500564
0.0317909
0.0220125
-0.0766136
-0.0819959
-0.537248
-0.440685
0.153757
-0.312021
-0.0118
-0.0283483
-0.404062
0.283282
0.0142202
-0.17172
-0.0796112
0.0648933
0.0346234
-0.224187
-0.0342477
-0.206327
-0.10352
-0.531938
-0.218828
-0.0853355
-0.187546
-0.532851
0.0150254
0.0261185
-0.223935
-0.02142
0.185466
-0.537256
-0.0415341
-0.0577621
-0.111394
-0.0551002
-0.213329
-0.0249277
-0.118129
0.0137291
-0.515666
-0.0334984
0.0068073
-0.0490245
-0.2398
-0.00331868
0.0156104
-0.509727
0.0441474
-0.15606
-0.0271604
-0.494553
-0.400939
-0.136876
0.309468
-0.00671288
-0.0636264
-0.0934098
-0.143876
-0.0264584
-0.0542623
-0.00292191
-0.109072
0.024082
-0.0951197
0.0497931
-0.0313079
-0.466502
-0.029553
-0.0814235
-0.0764054
0.00983289
-0.0502332
-0.0255311
-0.0650787
-0.131422
-0.0806182
-0.0544159
0.0379441
-0.471065
-0.0807492
-0.170462
-0.0237783
-0.11137
-0.0479815
-0.137977
-0.0967194
-0.0900658
-0.341534
-0.277653
-0.333957
-0.410937
0.11594
-0.104041
0.0103997
-0.414231
0.073359
-0.0469192
0.0303706
-0.112941
-0.0449689
-0.242957
-0.147293
-0.0613119
-0.366365
0.343683
3.56897e-05
-0.238104
0.15585
0.0532148
0.067918
0.0288657
-0.0909308
0.032437
-0.0406936
-0.0284548
-0.0904873
-0.440967
-0.0831377
0.0230519
0.0291489
-0.251278
-0.0223448
0.0189341
-0.0859771
-0.0593176
-0.0931375
-0.00482878
-0.0699138
0.328561
0.0972024
-0.371051
-0.52663
-0.0493861
-0.340326
-0.0200296
0.0141654
0.0161598
-0.055335
0.130079
-0.053625
-0.0614381
-0.0240232
0.0323421
-0.0486836
-0.171806
-0.0240952
-0.0190793
0.107762
-0.532857
-0.0486633
-0.085697
-0.0940675
0.0161843
-0.373488
-0.0943542
0.318771
0.161448
0.00431047
0.0577762
-0.141622
-0.303626
0.0603205
-0.0445409
-0.0789831
-0.0563658
0.0505874
-0.514801
0.00781419
-0.0782805
-0.0444223
0.134865
-0.0168942
-0.00497931
-0.363792
-0.444343
0.274401
-0.0512315
-0.537652
0.0330452
-0.169278
-0.0689915
-0.0193596
-0.140687
-0.0944306
-0.144938
0.0228046
-0.0449216
-0.531442
-0.044095
-0.0103077
-0.0422652
-0.121034
0.00779289
-0.0303662
-0.0467805
-0.0735974
-0.237336
-0.2514
0.320971
-0.237237
-0.0211022
0.0141645
-0.0628398
-0.0244153
-0.146679
0.120323
-0.044201
-0.174869
0.0129628
0.0193482
-0.324408
-0.00122117
-0.443596
0.0167998
-0.452443
-0.0478404
-0.227719
0.00232728
0.000461657
-0.280813
-0.0236447
-0.0573318
0.0537652
-0.31898
-0.423827
-0.128927
-0.0518533
0.0381865
-0.164689
0.0661735
-0.127388
-0.0383867
0.0173839
-0.539884
-0.063284
-0.451527
-0.0490824
-0.150388
-0.138473
-0.540713
-0.171464
-0.297476
-0.143062
-0.0246997
-0.300974
-0.0381703
-0.0377364
-0.247626
-0.0974105
0.076419
0.261679
0.0527397
-0.0234219
-0.0915704
-0.305811
-0.0770855
-0.000804004
-0.536171
0.0330176
-0.0256157
-0.0453646
-0.00335485
0.0131623
-0.219544
-0.281112
-0.528418
-0.024669
0.0660615
-0.00434496
0.371497
-0.0200648
0.461878
-0.142264
-0.0469021
-0.0491961
-0.514761
0.149774
-0.346684
0.48232
0.0161815
0.0419371
0.087344
0.118109
0.498285
-0.170532
-0.510283
-0.0462971
0.512965
0.0194195
-0.13671
-0.00435962
-0.537328
-0.108028
-0.0620358
-0.0705588
-0.0523155
-0.0153908
-0.165519
-0.506006
-0.0198576
-0.0633725
-0.0119338
-0.237352
-0.0620716
-0.408849
-0.0551228
-0.462503
0.0250269
-0.0149786
-0.0977047
0.437829
0.0208829
-0.172402
0.0130997
-0.301648
0.135903
-0.209033
-0.125976
-0.504999
-0.0227853
-0.0390414
-0.0749387
-0.0495555
-0.096007
-0.115093
-0.00290545
-0.0516222
0.0183568
-0.00906087
-0.0534562
0.0147401
-0.51025
-0.116049
-0.13651
-0.0750057
-0.299129
-0.3399
-0.0228457
-0.10791
-0.0237602
0.493524
-0.0450939
0.0374391
0.0182906
-0.00604556
-0.0358137
-0.26595
-0.0562467
0.408191
-0.0321878
0.167173
-0.0214997
0.474667
0.00908781
-0.115799
-0.0942957
-0.172191
-0.514235
-0.00581879
-0.0477917
-0.218662
-0.034256
-0.0242947
0.00215075
-0.0450517
-0.500491
-0.0454969
-0.0346081
-0.17303
-0.100512
0.201256
-0.0817579
0.0207299
-0.0964164
-0.105982
-0.0219447
-0.163086
-0.0528186
-0.0473026
0.0301737
-0.0490026
0.0131153
-0.121328
-0.0463471
-0.0233109
0.373175
-0.0888346
-0.00361025
-0.0339809
-0.0135222
0.396936
-0.140517
-0.210386
-0.0638575
-0.146832
0.00882648
0.0239058
-0.0662589
-0.00138694
-0.189427
0.0308862
-0.0912247
-0.43476
-0.125988
-0.0225412
-0.0547985
-0.143613
0.00937351
-0.235506
-0.11257
-0.128827
0.0999647
-0.528207
-0.193205
-0.00440404
-0.251076
-0.245436
-0.0794072
-0.410447
-0.0910686
-0.0704398
-0.132038
-0.00956852
-0.269622
0.274919
-0.255129
-0.00332049
0.00443335
-0.0234481
0.174638
-0.0994229
-0.105076
-0.318823
-0.53719
-0.0546713
0.0128737
0.50799
-0.0467529
-0.13831
0.0189821
-0.00460059
-0.137746
-0.0485579
0.0223559
-0.108144
-0.505285
-0.166529
-0.494666
0.350254
-0.229817
-0.0483444
-0.412806
-0.02829
-0.42729
-0.223468
-0.0449716
-0.0534812
-0.0163137
-0.50266
-0.260027
-0.1128
-0.0520468
-0.491426
-0.0355191
-0.259237
-0.0431862
0.0193276
-0.114232
-0.348714
-0.067583
-0.192637
-0.0565578
0.0228028
0.0547938
-0.163039
-0.0831692
-0.474277
-0.142484
-0.0266658
-0.537971
-0.314896
-0.0613911
-0.00472196
0.00170624
-0.0602506
0.413671
0.00169582
-0.179982
0.309692
0.1907
-0.0531607
-0.0620737
-0.456314
-0.188086
0.0296271
-0.0304684
0.298004
-0.042712
-0.500999
-0.0421245
0.159033
0.318672
0.398848
-0.0484009
0.0118658
0.342934
-0.225502
-0.467399
0.384121
-0.0500481
0.000320714
0.42168
-0.198807
0.0412499
0.28717
-0.221113
-0.0237571
-0.188183
-0.11861
0.426209
0.0143061
-0.0509793
-0.189177
-0.514249
-0.0263267
-0.067116
-0.0157811
-0.053929
-0.0146842
-0.179313
0.00413045
0.0774857
0.400592
-0.113591
-0.1649
0.0695396
-0.0697119
-0.061955
-0.43612
0.276537
-0.521157
-0.0444879
0.104995
-0.515947
0.340238
0.038509
0.0581047
-0.245441
-0.11677
-0.299941
-0.0040994
-0.00973299
-0.0158821
-0.206351
-0.00107066
0.448363
0.479022
0.391609
-0.0855747
-0.358806
-0.511735
-0.0127988
-0.414115
0.00586774
0.218807
-0.0208369
-0.0416038
-0.180304
-0.378474
-0.00289167
-0.533785
-0.314813
0.33285
-0.336291
-0.0210691
0.00159752
-0.11211
-0.0568579
-0.518015
-0.509453
0.00526867
-0.342476
-0.00787871
-0.0339501
-0.0384601
0.0246513
-0.514852
-0.0666395
-0.489811
0.290843
-0.0487164
0.449704
-0.476067
-0.0456145
-0.505012
-0.0707333
-0.0382675
0.0211171
-0.0563847
0.471091
0.341598
-0.345812
0.0199629
-0.0539698
0.0976477
-0.00169241
-0.0717692
0.0730625
0.15001
0.219451
0.0216779
-0.0204826
-0.0253993
-0.166869
-0.0233504
-0.0312672
0.323743
0.0268628
-0.0115926
-0.197032
-0.0129823
-0.445019
-0.0468262
0.489511
0.0249458
0.305765
0.00940928
-0.159156
-0.0597906
-0.0549033
0.110577
-0.488762
-0.0480864
0.319221
-0.0609024
-0.153447
-0.18219
-0.0521962
-0.335435
0.00251426
-0.344234
-0.289265
-0.0254317
0.268341
-0.257417
0.332272
0.0162821
-0.189997
0.453135
-0.262482
-0.15571
-0.0466182
-0.146719
0.0293393
-0.00273565
-0.0849072
-0.0949738
0.000967022
-0.0439626
-0.522671
-0.0734783
-0.530108
0.402274
-0.486031
-0.369842
-0.0243963
-0.0716336
-0.0317629
0.116719
-0.272878
-0.302795
0.0371742
-0.0278766
-0.0326073
-0.456997
-0.120578
-0.173691
-0.0482819
0.350812
-0.536855
-0.430218
0.00166638
-0.53936
0.0285899
0.100654
0.124844
-0.0474885
-0.100944
0.100255
-0.0548919
0.256047
-0.11224
-0.0503509
-0.510071
0.167966
-0.052019
-0.0840655
0.024563
0.484085
-0.209144
0.0550233
-0.514006
-0.528145
-0.114088
0.100199
-0.0740783
-0.52434
0.00404686
-0.0390704
-0.0231379
-0.021523
0.0595191
-0.537222
0.0296642
-0.118889
-0.00702985
-0.0424567
0.461067
-0.0492252
-0.0243146
0.00965146
0.0237498
-0.1744
-0.0314533
-0.537266
-0.045489
-0.0648911
-0.068602
0.0521855
0.372254
-0.0320328
0.00307468
-0.0287963
-0.0974574
0.291687
-0.0744444
-0.0463233
-0.010358
0.0671114
-0.112243
-0.347101
0.0694759
0.00943808
-0.036256
-0.0286145
-0.392165
-0.00915823
-0.0358151
-0.0807266
-0.462588
-0.00805193
0.16755
0.0224123
0.00772012
-0.0758346
-0.538867
-0.0857013
-0.0790913
-0.0761569
-0.0839776
0.0407381
0.346361
-0.333527
-0.052814
-0.144833
-0.0677372
-0.0690889
0.0294243
0.0223488
0.493675
-0.0916864
-0.359769
-0.121075
-0.0315837
0.0126959
-0.54025
-0.0526675
-0.0981571
0.0256034
-0.00283113
-0.535236
-0.215042
-0.0266558
-0.000359181
-0.0455957
0.00984048
0.0137274
0.0323716
0.176113
-0.190646
-0.0101017
0.0395514
0.453419
0.00268174
-0.351295
0.0264613
-0.04451
-0.100613
-0.00494806
-0.267437
0.0487888
0.253047
0.00532885
-0.0419365
-0.465703
-0.512088
-0.00264612
-0.104408
0.196856
-0.00290396
0.0792503
0.000698653
-0.0546571
-0.404934
-0.317275
-0.0743828
-0.095793
-0.0548349
-0.519553
-0.172812
-0.0529268
-0.330849
0.0550381
-0.0687783
-0.120132
-0.0458779
-0.47068
-0.258439
-0.0473011
-0.0340891
-0.0856083
0.099803
-0.0311839
-0.0359907
-0.108791
0.300046
-0.0342516
0.0998408
-0.10954
0.0396165
0.424209
-0.0719381
-0.103827
-0.411643
-0.489917
0.168086
0.103651
-0.0739343
-0.536595
-0.086321
0.0642415
-0.0320105
-0.0169466
-0.028491
-0.118646
-0.0581044
-0.291659
-0.037637
-0.434021
-0.00201376
-0.0671994
-0.05156
0.319971
-0.300086
0.326454
0.363808
0.0523833
0.163192
-0.0123821
0.0838065
0.00431766
-0.0509659
-0.120018
-0.0817165
0.00981035
0.0958514
-0.235517
-0.0145961
-0.0380642
0.106436
-0.536981
-0.268151
-0.130794
0.20342
0.000110993
-0.0520014
0.192572
-0.0594867
0.026794
-0.0186641
-0.0508529
0.0313296
-0.0716934
-0.152526
-0.0120968
-0.0299794
0.223324
-0.00999306
0.0954767
0.132083
0.0205635
0.00421839
-0.53682
-0.0249055
0.0177029
-0.0256052
0.0579746
-0.0262892