/*--------------------------------*- C++ -*----------------------------------*\
| =========                 |                                                 |
| \\      /  F ield         | OpenFOAM: The Open Source CFD Toolbox           |
|  \\    /   O peration     | Version:  v2012                                 |
|   \\  /    A nd           | Website:  www.openfoam.com                      |
|    \\/     M anipulation  |                                                 |
\*---------------------------------------------------------------------------*/
FoamFile
{
    version     2.0;
    format      ascii;
    class       volScalarField;
    location    "550";
    object      k_0;
}
// * * * * * * * * * * * * * * * * * * * * * * * * * * * * * * * * * * * * * //

dimensions      [0 2 -2 0 0 0 0];


internalField   nonuniform List<scalar> 
13917
(
0.000163861
0.000148405
0.00448479
0.000150867
0.000148645
0.000192894
0.0141624
0.00306019
0.0223515
0.000171263
0.000200578
0.000179409
0.000151004
0.0110579
0.000154624
0.00015346
0.00014885
0.000173455
0.000178873
0.000148649
0.000149764
0.0152974
0.000148503
0.00139619
0.00014802
0.0161214
0.000161762
0.000164341
0.000206399
0.000182663
0.000165356
0.000156493
0.000160045
0.0001547
0.000148223
0.000224292
0.000148567
0.0375842
0.000153667
0.0115419
0.000147263
0.000149899
0.000144734
0.00016819
0.000147723
0.000155986
0.000173132
0.000180829
0.000383951
0.00014797
0.000155732
0.000149844
0.000431396
0.000155002
0.000148915
0.000155634
0.000200426
0.000148187
0.000153376
0.000147573
0.0768503
0.000148404
0.0091525
0.000148567
0.000191593
0.0179531
0.000148655
0.000148589
0.000202988
0.000161672
0.00014869
0.016683
0.0551369
0.000148035
0.000401573
0.000182649
0.0357852
0.000149585
0.0175154
0.000149548
0.000149315
0.000148695
0.000189483
0.0397819
0.0520391
0.000149323
0.000149138
0.00641037
0.000155397
0.000144663
0.0528175
0.000177575
0.000146938
0.000150796
0.0101547
0.000188653
0.000193855
0.000178469
0.000194878
0.00017039
0.000146493
0.00015882
0.000168112
0.000150343
0.000146317
0.0179871
0.000192559
0.000181897
0.000148854
0.000166348
0.0682818
0.0120124
0.000184997
0.0198076
0.000151248
0.000425613
0.000147897
0.000262038
0.017895
0.000154925
0.000149815
0.00020283
0.0216974
0.000163719
0.000147739
0.000150502
0.000147672
0.000147805
0.00014493
0.000190969
0.0292235
0.00015108
0.000147832
0.000149817
0.000208998
0.00131011
0.00016399
0.000170983
0.00014861
0.000154774
0.000215966
0.000146028
0.000150268
0.000170269
0.000148607
0.00154069
0.000210344
0.000149684
0.000145842
0.000157003
0.000175676
0.000426931
0.000186061
0.00016279
0.000155753
0.0236801
0.000160921
0.000256437
0.0311885
0.000214263
0.000152848
0.000162028
0.000149548
0.000192715
0.000184624
0.000194521
0.000150299
0.000177072
0.000147008
0.00015928
0.000163268
0.036585
0.000186796
0.000149699
0.000154452
0.000163926
0.0299286
0.000303999
0.00101698
0.000147308
0.000178864
0.000166211
0.000145978
0.000149074
0.000157533
0.0106643
0.000213796
0.0295055
0.000163992
0.000193597
0.000220746
0.0564755
0.000208104
0.000148576
0.000171976
0.000161387
0.000152419
0.000146997
0.000180889
0.00106145
0.000154848
0.000148078
0.000175243
0.00017534
0.0491048
0.000254399
0.000148229
0.000148272
0.00017794
0.00595799
0.000150039
0.0148492
0.037791
0.000193682
0.000146368
0.000198907
0.000174935
0.0434471
0.000147585
0.0646058
0.000147259
0.000181771
0.000147132
0.0424009
0.0210499
0.000153798
0.000400532
0.000156098
0.000146413
0.000223379
0.000186163
0.000163723
0.000654557
0.0319356
0.000146164
0.000156933
0.0564617
0.0386213
0.000149492
0.00014746
0.0118317
0.000196778
0.000149758
0.000211658
0.000186361
0.00016176
0.000163033
0.000149491
0.000163459
0.0337424
0.000146677
0.00018302
0.000173635
0.000147559
0.000148153
0.000180844
0.0160265
0.000184749
0.00015771
0.000154845
0.00014979
0.0169365
0.0200705
0.000211766
0.000146459
0.0565274
0.0216015
0.000255782
0.0182801
0.000183968
0.000149394
0.000147379
0.000173397
0.0410434
0.000192872
0.000152976
0.000256137
0.000167652
0.000144885
0.0112651
0.000148478
0.000144071
0.000154287
0.000149722
0.000155707
0.000162722
0.000161989
0.000212501
0.000159133
0.000147344
0.000252307
0.000974258
0.0306249
0.000147592
0.000245231
0.000149081
0.000147332
0.000147948
0.000226415
0.000148572
0.000183678
0.000162416
0.000146886
0.000175408
0.000150586
0.000335601
0.00016361
0.000176133
0.000146222
0.000148086
0.0638389
0.0207197
0.000147852
0.000147254
0.00880083
0.000147153
0.0582494
0.000146188
0.0439317
0.000148285
0.000216047
0.000161888
0.000435939
0.000152436
0.000231182
0.000185007
0.000155732
0.000196628
0.000198637
0.000148999
0.0317953
0.000171884
0.0252632
0.000153774
0.0136198
0.000157608
0.0750769
0.000181129
0.000172221
0.00017178
0.00905919
0.000149404
0.000163786
0.0743579
0.000148948
0.000151405
0.0219647
0.000183984
0.000149469
0.000217229
0.000202779
0.000146805
0.0163838
0.000218663
0.000148431
0.000147045
0.000149136
0.000145798
0.00024708
0.000463842
0.000208307
0.0706586
0.000147971
0.000185617
0.00829131
0.000168196
0.0162573
0.0446627
0.0238735
0.000146116
0.000210895
0.000146896
0.0452582
0.000147565
0.000455238
0.000186259
0.000152677
0.00014927
0.000176803
0.000180642
0.0001806
0.0006823
0.069752
0.0342044
0.000163883
0.0001704
0.000147518
0.0419911
0.0181161
0.000148199
0.000254948
0.00014818
0.000221028
0.000148278
0.000149476
0.00015066
0.016907
0.000150597
0.0176018
0.0118416
0.000197461
0.000193897
0.000148913
0.00019509
0.000191262
0.000148101
0.000185697
0.000148866
0.000148129
0.000182463
0.00014972
0.000148065
0.000146868
0.000223
0.000149628
0.0145702
0.0089873
0.00552782
0.000207608
0.0216302
0.0434827
0.000167878
0.000148
0.000200469
0.000153384
0.000158078
0.000148523
0.000794349
0.0114004
0.00422203
0.000153418
0.000189453
0.000153414
0.000154272
0.000180602
0.000150317
0.00021114
0.000148793
0.000148531
0.0630316
0.0291569
0.0295112
0.000181393
0.00371734
0.0338221
0.0776108
0.0315139
0.000145142
0.000175648
0.000150392
0.000148432
0.000252187
0.000173721
0.000147168
0.000175525
0.000166558
0.0293399
0.00014807
0.00019299
0.0173716
0.000244852
0.018341
0.000149681
0.000148255
0.000152215
0.000160946
0.000146126
0.00653447
0.000200631
0.000159082
0.0393244
0.000155562
0.000193248
0.0826297
0.000211668
0.000196502
0.000217331
0.000192963
0.000174354
0.000199545
0.000168164
0.000199852
0.000208407
0.00017139
0.000184283
0.000147077
0.000247799
0.000156566
0.000145079
0.000160197
0.000149802
0.0312424
0.0182596
0.000147113
0.000145034
0.00349735
0.0362115
0.000149721
0.0148777
0.000149551
0.000198627
0.000147226
0.0487309
0.000257674
0.000156969
0.000148663
0.0227825
0.000204733
0.0129504
0.000149776
0.0384244
0.000336731
0.014304
0.000145148
0.0474055
0.0622995
0.000168272
0.000146995
0.000148905
0.000182542
0.000232635
0.00014666
0.000147094
0.000147533
0.000147492
0.0500479
0.000250267
0.000167897
0.000213149
0.000147759
0.000146547
0.000189105
0.0661797
0.000161533
0.000147074
0.000148076
0.000148496
0.0148871
0.0620057
0.000149094
0.000148453
0.000209513
0.000167876
0.000161899
0.000148234
0.000150803
0.000155512
0.000183768
0.000192858
0.000214186
0.000201176
0.00018814
0.000255986
0.000175918
0.00014767
0.0388165
0.00014851
0.0001518
0.000152144
0.000248172
0.000169028
0.000146623
0.000246997
0.000185694
0.006953
0.000188195
0.000159964
0.000167759
0.000149203
0.0391126
0.000221078
0.0265648
0.000148556
0.000158374
0.000213859
0.0466121
0.0140005
0.000179602
0.000184469
0.000153332
0.000152184
0.000148283
0.000164901
0.000168909
0.000149399
0.000174665
0.000172693
0.0245079
0.0153843
0.00015212
0.000192445
0.0002488
0.000156641
0.00014979
0.000433463
0.00693232
0.0019348
0.000209732
0.000145031
0.017586
0.000182139
0.000146949
0.000159821
0.000182858
0.000159504
0.000182579
0.0177336
0.000199036
0.00016507
0.0387605
0.000150421
0.0274072
0.000149554
0.000149046
0.000247039
0.00669365
0.000206513
0.000150412
0.000149515
0.000148454
0.000168187
0.000436988
0.000193179
0.000152474
0.000194873
0.000176346
0.000147262
0.000364856
0.000192515
0.000210914
0.000147458
0.000198412
0.000149722
0.0154396
0.000171875
0.000168989
0.000158672
0.000146966
0.000145282
0.000147789
0.000173173
0.000156232
0.000216867
0.000517002
0.000176674
0.000146874
0.000197719
0.00020729
0.000233677
0.000146564
0.000155723
0.000147152
0.000157749
0.000153585
0.064238
0.00014949
0.000470692
0.000157505
0.000200426
0.000177178
0.0563373
0.000169748
0.000148771
0.0404675
0.0175519
0.000148014
0.000152017
0.000258291
0.000203383
0.000192916
0.000149544
0.000148731
0.00020312
0.000152871
0.000180293
0.000179585
0.000145286
0.000175307
0.00482206
0.000146394
0.000149723
0.000147677
0.0199354
0.000149756
0.000153042
0.0394941
0.000151245
0.00426491
0.000155811
0.00016028
0.000147624
0.000165282
0.00014801
0.000173361
0.000147009
0.000171881
0.000149552
0.018075
0.000321248
0.0668309
0.000151082
0.000149324
0.000175026
0.000167951
0.0257853
0.0448794
0.000173073
0.000148197
0.000221985
0.000207373
0.000210062
0.000211519
0.000172792
0.0156202
0.000163265
0.000166541
0.000195315
0.000177741
0.00017273
0.000237807
0.000172227
0.000150875
0.000184047
0.00015584
0.000145556
0.000157539
0.000166482
0.000156435
0.00014807
0.000147356
0.000176566
0.000150655
0.000180364
0.00014819
0.000148295
0.00014981
0.000150674
0.000144361
0.000154323
0.000147823
0.0476147
0.000178796
0.000188127
0.000146304
0.000149622
0.000163275
0.000174683
0.00015079
0.0227457
0.000173009
0.0184755
0.000157631
0.00019249
0.000148672
0.000149779
0.000147367
0.000150599
0.0256431
0.000149678
0.00025463
0.000154704
0.0100836
0.000164357
0.000173519
0.000199818
0.000145392
0.000149935
0.0001793
0.000148507
0.000149481
0.00772076
0.00014987
0.000149136
0.000156713
0.000147415
0.000145466
0.000156494
0.000156872
0.0198276
0.00016171
0.000146375
0.000147032
0.04876
0.000173063
0.000148657
0.000148531
0.0136485
0.000256687
0.0341994
0.000159904
0.000150902
0.000146246
0.000145326
0.00017205
0.000162309
0.000215173
0.000154078
0.0302428
0.000148681
0.000151841
0.0286563
0.000148234
0.000156712
0.000147823
0.000148415
0.000165706
0.000162248
0.000148952
0.00495746
0.0151733
0.000177783
0.000147644
0.000144697
0.000192955
0.000250276
0.000149717
0.000251843
0.00014471
0.00016541
0.000145271
0.000145849
0.000243196
0.000147224
0.000234152
0.000165274
0.000149808
0.000144961
0.00014886
0.000147169
0.000149549
0.000427885
0.000146245
0.000145887
0.0247527
0.00371945
0.000166061
0.000167329
0.000179677
0.000153556
0.000146139
0.000156507
0.0460957
0.000172604
0.000148778
0.0001485
0.0394895
0.000163957
0.078289
0.000149759
0.000150976
0.0179997
0.000162062
0.00014913
0.0212635
0.000286888
0.000147137
0.000192901
0.000147348
0.000147137
0.00014622
0.0613234
0.000144315
0.00014629
0.000146093
9.56016e-05
0.000152738
0.000198588
0.00016618
0.000145735
0.000158943
0.000149092
0.0724271
0.00014757
0.000146333
0.000149143
0.000193822
0.000149088
0.000199094
0.0117904
0.000329966
0.000155342
0.00021954
0.0459871
0.000148037
0.0151552
0.0828196
0.0516574
0.0220271
0.0272063
0.00729664
0.000195978
0.00014896
0.0187785
0.000161978
0.0212805
0.000145134
0.000146901
0.000148696
0.000149043
0.000154628
0.000158046
0.02499
0.000146821
0.000148443
0.0117867
0.000186336
0.00014886
0.000161121
0.000158365
0.000148096
0.000312753
0.000161351
0.000152149
0.000152637
0.012267
0.0348728
0.000255041
0.000145199
0.000204819
0.000185774
0.0424698
0.0277511
0.000186032
0.000147194
0.000148845
0.000148687
0.000144233
0.000150816
0.000145087
0.00015561
0.000162837
0.0439659
0.000196084
0.000146394
0.000191999
0.0786954
0.000164698
0.000149508
0.0305469
0.000146794
0.000149286
0.000160681
0.0440888
0.00014909
0.000147476
0.0157852
0.000214753
0.00024303
0.000190309
0.000224892
0.000147278
0.000201382
0.00014958
0.000147821
0.00014965
0.00939504
0.0418299
0.000145796
0.000144924
0.00014791
0.000258557
0.000150457
0.000158577
0.000148484
0.00014919
0.000200413
0.000145811
0.000174023
0.000195598
0.0290653
0.000147452
0.000171112
0.00015238
0.0542163
0.0756542
0.000148064
0.06278
0.000181024
0.000265379
0.000149083
0.0183812
0.0001496
0.000155423
0.000164877
0.000190223
0.00467135
0.000212873
0.00020068
0.0110827
0.000146832
0.000218402
0.000145773
0.000155778
0.0171987
0.000148465
0.000149656
0.000149904
0.000148054
0.0426789
0.000145371
0.000148435
0.00017574
0.000168071
0.000173051
0.000204944
0.000194055
0.0238377
0.000178924
0.00016338
0.00016597
0.0378856
0.000166619
0.0432172
0.0170118
0.00015388
0.000145787
0.0198942
0.000211068
0.000149668
0.000189683
0.000161885
0.000148149
0.000155113
0.000148178
0.000164994
0.000149942
0.000172328
0.00017099
0.000146956
0.000174978
0.000146159
0.000166251
0.000146979
0.000155088
0.000176113
0.000150922
0.00014759
0.000145873
0.000290519
0.000174718
0.00174606
0.000148057
0.000148179
0.000177123
0.000147825
0.000183366
0.000174726
0.000148152
0.000186629
0.000146041
0.0456535
0.000149535
0.000164739
0.0249185
0.000216939
0.000147333
0.000151511
0.0106642
0.000147842
0.000147238
0.0474596
0.0671776
0.000153069
0.000198956
0.00014858
0.000147561
0.00808721
0.000150323
0.000145464
0.000220317
0.00014614
0.000246721
0.00014927
0.000145499
0.000148727
0.000194775
0.0222256
0.000148752
0.000149038
0.000147284
0.000154315
0.000148383
0.000228062
0.000174608
0.000149773
0.000318562
0.000164394
0.000220391
0.0338492
0.000430958
0.00014571
0.000149326
0.000148082
0.00020695
0.000154848
0.0224422
0.0448813
0.000152369
0.0198092
0.00032086
0.000172644
0.000197003
0.000168546
0.000189838
0.0039456
0.000166736
0.000427947
0.0397998
0.000179018
0.000153623
0.0380382
0.000164304
0.000145216
0.000150646
0.067166
0.000161935
0.000147048
0.000165566
0.000185275
0.000163121
0.0345629
0.000151711
0.00297158
0.000166128
0.000209181
0.000192502
0.000206199
0.000157736
0.000145996
0.000149583
0.00286099
0.000147788
0.000152557
0.000146503
0.00015084
0.000146827
0.000159925
0.000199059
0.000299237
0.000162624
0.000165501
0.00293651
0.000190429
0.000146744
0.000256637
0.00721325
0.000145737
0.000147171
0.000159385
0.0297623
0.000149668
0.000179064
0.000208974
0.000165719
0.000148588
0.00015011
0.000146208
0.000189602
0.000162286
0.000147759
0.0197551
0.0162299
0.000162921
0.000256311
0.000179348
0.00132724
0.000151083
0.00015396
0.000230779
0.000258323
0.000186404
0.000265685
0.000156898
0.000149832
0.000146964
0.000148348
0.0001483
0.000150376
0.000165883
0.0001474
0.000194625
0.000147409
0.000157237
0.000145639
0.000173658
0.000194111
0.000315777
0.000147961
0.000206072
0.000146964
1.27856e-05
0.000148154
0.000154688
0.000148734
0.000212229
0.052137
0.000196358
0.000147352
0.000196118
0.000147911
0.000158116
0.0621113
0.000147038
0.000149713
0.000167342
0.00015981
0.0180561
0.000147408
0.000157516
0.00015003
0.000148129
0.000158562
0.000149364
0.000145974
0.000151985
0.0361403
0.000152599
0.000218623
0.0021551
0.000172671
0.0231416
0.00015227
0.000146015
0.000158219
0.0350158
0.000150483
0.000161223
0.000167946
0.00226671
0.000147057
0.00347632
0.000175742
0.00017957
0.000145661
0.000145074
0.000199574
0.000149828
0.0001499
0.000159346
0.00014523
0.000153016
0.000157151
0.000181564
0.000181868
0.0132477
0.000153378
0.000182793
0.000245004
0.00958065
0.000165008
0.000181653
0.0275669
0.000166001
0.0609213
0.00015247
0.0074354
0.00370869
0.000145028
0.000149723
0.000147501
0.000148933
0.000166825
0.000145613
0.000152791
0.000185915
0.000150699
0.000159858
0.0498205
0.00015755
0.000152091
0.0229429
0.000149149
0.0152196
0.000152249
0.000164918
0.00014698
0.0396433
0.0416917
0.00014791
0.000149236
0.0142346
0.000157181
0.0167428
0.00014799
0.000146104
0.0231062
0.000149296
0.000162428
0.00960173
0.000148419
0.000173223
0.00015766
0.000145035
0.000147141
0.0174956
0.042791
0.000148323
0.000151003
0.000148327
0.000155095
0.000160633
0.0311072
0.000150181
0.000331309
0.000252704
0.00020923
0.000260888
0.000149181
0.000192581
0.000178221
0.000156904
0.000148315
0.000177612
0.0471944
0.000151597
0.000162638
0.0022223
0.000459876
0.000183992
0.000154232
0.000148987
0.000149608
0.000148497
0.0352327
0.000175151
0.000151489
0.00014949
0.000152519
0.000149788
0.000147752
0.000148459
0.000182435
0.000165083
0.000166562
0.000163166
0.0094789
0.0186508
0.000157899
0.000173118
0.00014644
0.000156661
0.0342742
0.000148248
0.000151423
0.000173649
0.000193019
0.000164931
0.0088037
0.000215513
0.000146831
0.0358303
0.000144805
0.000148247
0.00016337
0.00014981
0.000146633
0.000203217
0.00687874
0.00014619
0.00161332
0.000148118
0.000145632
0.000151237
0.000353644
0.000157562
0.000152205
0.0717162
0.000150108
0.000214958
0.0227673
0.000149607
0.000163346
0.000147906
0.0112605
0.000179561
0.000148546
0.0110927
0.000174357
0.000167982
0.000149848
0.039246
0.000156934
0.000188754
0.00014961
0.000167228
0.0410738
0.000145821
0.000249946
0.0001487
0.000175269
0.000163985
0.000149601
0.0351196
0.000151607
0.000192661
0.000174334
0.000169871
0.000162169
0.000162721
0.000150058
0.00181665
0.00015856
0.0130978
0.000157479
0.000179186
0.000147371
0.000166288
0.000148471
0.000180176
0.00174586
0.000149965
0.000146519
0.00044296
0.000149706
0.000222701
0.000148975
0.00225525
0.000210404
0.000161633
0.000147761
0.000147388
0.000148664
0.000145085
0.000187378
0.000165415
0.000161252
0.000154262
0.000148431
0.00025423
0.000151142
0.000161003
0.00024031
0.000148375
0.018408
0.000173504
0.000158603
0.000249876
0.0447457
0.000253645
0.000656651
0.00321739
0.000147006
0.000196349
0.0402359
0.000187294
0.000149087
0.000149427
0.00019303
0.0135032
0.0150609
0.000229226
0.000147971
0.000164096
0.000166509
0.0231121
0.0030957
0.000167935
0.000195657
0.000151932
0.000174297
0.00018615
0.000149029
0.000185966
0.0128799
0.00014879
0.000254695
0.000149664
0.000147143
0.0320574
0.0507589
0.000146732
0.0001482
0.000149035
0.000146196
0.000165252
0.000203884
0.000150061
0.000147747
0.000148546
0.000166759
0.00015653
0.000156226
0.000249753
0.000148252
0.0580507
0.0194916
0.0411968
0.0001754
0.000171417
0.000238627
0.00016183
0.0187488
0.000244156
0.000510093
0.000149185
0.0871993
0.0208861
0.000146124
0.000148092
0.00018271
0.0748168
0.0337958
0.000145711
0.00014796
0.0288834
0.00109915
0.000860843
0.000151974
0.000152637
0.000289655
0.000148834
0.0331587
0.0306784
0.000231608
0.000300852
0.000148609
0.000147278
0.000147011
0.000154962
0.0278479
0.000166819
0.00015396
0.000150612
0.000171773
0.0336997
0.000166806
9.71591e-05
0.0154318
0.0179167
0.000314056
0.000148268
0.000149078
0.00199959
0.0001453
0.000145216
0.000150733
0.000376927
0.000164745
0.0387471
0.000191958
0.000148041
0.0535296
0.000165018
0.000146859
0.0180508
0.000175967
0.000154256
0.000147519
0.00575138
0.0828336
0.000149135
0.0167384
0.000249211
0.0672523
0.000385771
0.00017417
0.000147352
0.000149179
0.000355814
0.000154127
0.000666303
0.000166167
0.000330094
0.000220606
0.000150872
0.000156897
0.000147325
0.000150344
0.0710323
0.0130956
0.000148479
0.0237956
0.000168509
0.000148017
0.000153396
0.000147348
0.000200821
0.000148996
0.000322872
0.000164252
0.000147281
0.000146915
0.000169911
0.0256926
0.000165697
0.000152087
0.000166621
0.00014844
0.000150422
0.000156309
0.0275827
0.019916
0.0794659
0.000145744
0.000146863
0.000149079
0.000193007
0.000146906
0.000149168
0.000203302
0.00017684
0.000229035
0.000144948
0.0828232
0.0197157
0.000149885
0.0247203
0.000193019
0.000164712
0.00031727
0.000148889
0.0391175
0.0001572
0.000150925
0.000152496
0.000145274
0.000210636
0.000152355
0.000149323
0.000158083
0.0181453
0.023323
0.000149614
0.000148009
0.000151186
0.000147466
0.000194216
0.000149916
0.000181784
0.000151092
0.0451595
0.00014915
0.0254596
0.000145749
0.0662935
0.00014881
0.000145152
0.0676073
0.000185178
0.000171836
0.00022844
0.000162373
0.000166979
0.000148448
0.0520949
0.000148478
0.000146956
0.000169
0.000178622
0.0463205
0.0515632
0.000192357
0.0130099
0.000191442
0.000243219
0.000147125
0.000153327
0.000156905
0.0648629
0.000153903
0.0738447
0.0219038
0.000147806
0.000148817
0.000147966
0.00036502
0.000423148
0.000150776
0.000148629
0.000154241
0.00015672
0.000165232
0.000231608
0.000191507
0.000148295
0.000204777
0.000180029
0.0315643
0.000180163
0.000150891
0.000151803
0.056619
0.000146989
0.000183011
0.00536765
0.000150158
0.000153866
0.000204021
0.000173574
0.000150442
0.0187748
0.000152536
0.000217923
0.000166621
0.000157694
0.000149403
0.0797503
0.000146806
0.000170686
0.000261321
0.0756532
0.000171173
0.000173921
0.00015419
0.000163348
0.000149752
0.0760302
0.000155535
0.000147165
0.000158762
0.000148497
0.000149776
0.000378863
0.000148363
0.000149117
0.000148143
0.000196091
0.000149578
0.000160319
0.000182386
0.000199345
0.000188778
0.000149662
0.00018257
0.00019359
0.000202368
0.000179504
0.000156316
0.00020015
0.000472055
0.000238164
0.000149887
0.00383639
0.00534239
0.000149883
0.000152173
0.000145212
0.00021744
0.000183017
0.000147335
0.00025223
0.0703641
0.00014647
0.000149441
0.0123402
0.0234409
0.000179225
0.000145286
0.0181065
0.0201972
0.000480263
0.000148029
0.064378
0.000184305
0.00016713
0.067069
0.000154916
0.000145295
0.000158815
0.000197414
0.000160697
0.0116788
0.0842212
0.000146473
0.00349984
0.000196769
0.0467113
0.000145729
0.000164386
0.00014981
0.000147339
0.0425689
0.000259038
0.000215576
0.0002565
0.000157146
0.000171769
0.000150445
0.0845634
0.0147837
0.00014849
0.000148484
0.000158559
0.000145933
0.000173302
0.0224205
0.0254406
0.000172223
0.000148992
0.000147664
0.0482379
0.000153631
0.000173735
0.000146311
0.000150555
0.000244016
0.000257352
0.000228951
0.000360442
0.000149067
0.000218905
0.00015115
0.000163435
0.0668355
0.0244062
0.000148388
0.000149956
0.000163604
0.000154522
0.00014931
0.0361043
0.0690499
0.000146087
0.000144417
0.00014921
0.000147602
0.000333113
0.000145601
0.0101594
0.000187709
0.000178467
0.000146738
0.000165772
0.0870592
0.0001621
0.000193313
0.0516674
0.000149018
0.0370213
0.000159055
0.000160095
0.000188804
0.0399703
0.046353
0.000177424
0.000147082
0.000187679
0.000145685
0.000154252
0.00014924
0.00796857
0.000158535
0.000147314
0.000212691
0.000171361
0.000148749
0.000207133
0.00015582
0.000149785
0.000182182
0.00014489
0.000165026
0.000162238
0.000149091
0.0496869
0.000151218
0.000203628
0.000150496
0.000147369
0.0616692
0.0332638
0.000152762
0.000158905
0.000166274
0.000169933
0.000176954
0.000154973
0.000154422
0.000153734
0.000212605
0.000153837
0.00457239
0.00016609
0.000214932
0.000191759
0.000149245
0.0318818
0.000144967
0.00728944
0.000153003
0.0756951
4.35013e-05
0.00439168
0.00147133
0.0002218
0.000167913
0.000147219
0.0282226
0.000169158
0.000148504
0.0322528
0.00142638
0.000151465
0.000151447
0.000159088
0.000159112
0.00016117
0.0452787
0.000149882
0.000158787
0.000163338
0.000158854
0.000149024
0.000185702
0.00014489
0.00419664
0.000151964
0.00019171
0.000160239
0.000166278
0.000181325
0.000260219
0.000180162
0.000146599
0.000185772
0.0213793
0.062527
0.000148507
0.00132134
0.000157912
0.000297361
0.000148476
0.000152895
0.0388778
0.000173659
0.0335262
0.0385787
0.000159144
0.0684945
0.000147612
0.000144801
0.0335021
0.000165317
0.000152782
0.0208609
0.000155614
0.000163028
0.000157252
0.000175007
0.000148195
6.58265e-05
0.000305748
0.00979399
0.000216641
0.00015408
0.000169975
0.0369295
0.000152323
0.000149288
0.000174457
0.000145626
0.00018362
0.0510052
0.0143618
0.0218008
0.000175766
0.000148701
0.0599677
0.000144851
0.00018288
0.000149539
0.0340386
0.000151796
0.0001639
0.0279277
0.000191233
0.000148031
0.000158795
0.0118009
0.000148891
0.000198814
0.000146215
0.0239645
0.0752431
0.000192927
0.000167775
0.000147485
0.000205856
0.000197285
0.000166056
0.000146259
0.000148738
0.000148892
0.000175295
0.00014874
0.000186024
0.000149224
0.000146232
0.0887765
0.000146783
0.000155518
0.000153489
0.000149821
0.0310727
0.000146784
0.000160244
0.0485113
0.000171839
0.0036416
0.00014867
0.0817902
0.000173162
0.0289851
0.000151453
0.000195386
0.000147741
0.000167309
0.000194409
0.000192411
0.000209113
0.0650242
0.000205177
0.000394979
0.00015572
0.000192247
0.000162488
0.000250641
0.000153689
0.00014753
0.000148364
0.000174065
0.000164082
0.000258016
0.00017436
0.00168944
0.00103419
0.000170528
0.000147906
0.000258452
0.000178241
0.00015
0.000152607
0.000148559
0.000105352
0.000148407
0.0116102
0.000146697
0.000156024
0.0542222
0.000169728
0.000148229
0.0001483
0.0338543
0.000146887
0.000152324
0.000153759
0.000159542
0.000156434
0.000148513
0.000198808
0.000168272
0.000162498
0.000212597
0.0567757
0.0300642
0.0432506
0.000145864
0.000147903
0.000171158
0.000148742
0.000163209
0.00109427
0.032898
0.00014526
0.000148408
0.022376
0.000232835
0.000145381
0.000146612
0.000155285
0.0570539
0.013857
0.000155301
0.00016096
0.000149284
0.000224671
0.000195101
0.000174182
0.000158552
0.000163048
0.000150053
0.000164574
0.000223994
0.000150678
0.00014798
0.000155021
0.00814181
0.000153842
0.0304886
0.000148614
0.0390962
0.000161175
0.000156672
0.000146202
0.000147291
0.000242984
0.0066626
0.00016516
0.0144005
0.0583431
0.000149879
0.0523423
0.00019639
0.000147327
0.000228564
0.000218269
0.000192889
0.000149664
0.0248086
0.0470683
0.000147008
0.00016202
0.0199877
0.000165048
0.000148195
0.000146189
0.000148821
0.000151774
0.000180423
0.000220543
0.000167928
0.000177982
0.000145872
0.000148808
9.6983e-05
0.000146638
0.000166622
0.000155438
0.000147477
0.000171785
0.000148033
0.000151874
0.000220077
0.000147832
0.0621506
0.000148028
0.00354338
0.0293131
0.0001857
0.000148811
0.000149947
0.0682655
0.000145193
0.000152303
0.000149755
0.000201244
0.00022384
0.000161989
0.0320578
0.000162202
0.000245672
0.000150445
0.000181329
0.00014599
0.000148849
0.0235246
0.0350389
0.000336975
0.000151701
0.000181054
0.000181215
0.0429261
0.0541774
0.000216185
0.000164878
0.000144819
0.0645545
0.00014696
0.000147317
0.000215913
0.000192771
0.000156476
0.000177995
0.000163518
0.000158737
0.000156429
0.0633913
0.000152557
0.000147784
0.0253974
0.000163623
0.000145666
0.0212272
0.000148076
0.000148645
0.000200812
0.000184322
0.0393106
0.0001458
0.000153424
0.000147228
0.00031265
0.000146844
0.000198999
0.000257392
0.0285788
0.0189924
0.0134698
0.00015781
0.05893
0.000221664
0.000149356
0.000157911
0.000162499
0.000157711
0.000246927
0.0472102
0.0682033
0.025414
0.000356169
0.000148734
0.000191071
0.000148129
0.022933
0.000157637
0.000150297
0.00015217
0.000149564
0.000146963
0.000190744
0.0712961
0.000145782
0.000151443
0.000146853
0.0482711
0.000151178
0.0834667
0.00650226
0.000350246
0.000148555
0.000147021
0.0334689
0.00019012
0.000148846
0.000188766
0.00014949
0.00018595
0.00017738
0.000186899
0.00017388
0.0127402
0.000146303
0.000145963
0.000209346
0.0204233
0.000157964
0.000165318
0.000147422
0.0096077
0.000147999
0.000147542
0.000150573
0.000147963
0.00766776
0.0410385
0.000242493
0.000177147
0.0704618
0.000256907
0.000145317
0.000160165
0.000145567
0.000252577
0.000147248
0.000153303
0.000147967
0.000147256
0.000145992
0.00038243
0.000149513
0.000279029
0.000144589
0.000159026
0.000154784
0.0002665
0.000148178
0.000160448
0.00016338
0.000170597
0.0906555
0.000147227
0.0236297
0.000173933
0.000163826
0.000147818
0.000147471
0.0227962
0.0133131
0.000147288
0.000146863
0.000215617
0.000213407
0.000160856
0.039858
0.00015027
0.000221723
0.000160348
0.000145647
0.000132994
0.000149863
0.0186595
0.000148338
0.000149604
0.00014871
0.0385911
0.0285801
0.000145413
0.000180663
0.000210889
0.000148268
0.000146737
0.000147283
0.000182684
0.0497486
0.000172927
0.000152198
0.000165405
0.000148058
0.00014837
0.000151507
0.000147873
0.000204889
0.000148545
0.000178882
0.000280458
0.000162888
0.000145037
0.000618718
0.000182696
0.000148123
0.000175821
0.000159641
0.000238687
0.000153489
0.0809623
0.000173407
0.000147794
0.000180948
0.000181487
0.000153003
0.0783837
0.000177504
0.000158706
0.000242618
0.000147437
0.000183005
0.000169041
0.000179986
0.000147404
0.000147755
0.000145169
0.000159229
0.000175778
0.000175236
0.00038079
0.0387534
0.00716928
0.000149764
0.000296826
0.0270192
0.0481817
0.000148004
0.000147963
0.000174706
0.0161565
0.000152514
0.000163568
0.0108897
0.0368875
0.00352081
0.000171649
0.000201631
0.0224402
0.000259961
0.000144873
0.00160757
0.000213187
0.000148635
0.000148465
0.000150129
0.0797342
0.000183206
0.000627295
0.000152014
0.000353962
0.000148057
0.00025534
0.0227484
0.000148925
0.000162631
0.0657009
0.000259672
0.000172483
0.000149947
0.000151882
0.000149867
0.000183383
0.000193909
0.000370773
0.0499668
0.000145906
0.0198776
0.000189607
0.000225443
0.000148046
0.000149025
0.000237581
0.000182896
0.00014764
0.000170562
0.000167441
0.00016112
0.00362119
0.0107788
0.087455
0.0564256
0.000154074
0.000145213
0.000166451
0.0186517
0.0310818
0.000147054
0.000182622
0.000169123
0.000193416
0.000148553
0.000149691
0.000238781
0.000260512
0.000328933
0.000275977
0.0148634
0.000147537
0.000182129
0.0574366
0.000149296
0.00016592
0.000189258
0.00014547
0.000201967
0.0211192
0.000180319
0.000149682
0.01192
0.000192838
0.0417435
0.000144208
0.00015126
0.000148378
0.000150142
0.000148277
0.000169133
0.000162123
0.000162199
0.000185727
0.000162346
0.0450096
0.000153922
0.000157905
0.000156644
0.0318789
0.000165194
0.043862
0.000156588
0.000156184
0.0152089
0.000170091
0.000148714
0.000162363
0.000254177
0.00244251
0.000223944
0.000147709
0.000147206
0.000147361
0.000248792
0.000150884
0.000333038
0.000259355
0.000182092
0.000159647
0.00020885
0.0393326
0.000148281
0.0117643
0.00015951
0.000163852
0.000147376
0.000146875
0.000173025
0.0787223
0.000148409
0.0368829
0.000213596
0.0001702
0.000197177
0.000146908
0.000148008
0.000159006
0.000149719
0.0539599
0.0240005
0.00016916
0.000243628
0.000147592
0.000147928
0.000148192
0.000149604
0.0902598
0.000150549
0.0588686
0.0001691
0.000148632
0.000189498
0.000430927
0.0242134
0.0294164
0.000151182
0.000145836
0.000148782
0.000150833
0.000214131
0.000180897
0.0594148
0.000148957
0.000148591
0.000175812
0.000149709
0.000210479
0.000152197
0.000174771
0.000176136
0.000162122
0.000162121
0.000145755
0.000170399