/*--------------------------------*- C++ -*----------------------------------*\
| =========                 |                                                 |
| \\      /  F ield         | OpenFOAM: The Open Source CFD Toolbox           |
|  \\    /   O peration     | Version:  v2012                                 |
|   \\  /    A nd           | Website:  www.openfoam.com                      |
|    \\/     M anipulation  |                                                 |
\*---------------------------------------------------------------------------*/
FoamFile
{
    version     2.0;
    format      ascii;
    class       surfaceVectorField;
    location    "650";
    object      Uf;
}
// * * * * * * * * * * * * * * * * * * * * * * * * * * * * * * * * * * * * * //

dimensions      [0 1 -1 0 0 0 0];


internalField   nonuniform List<vector> 
20673
(
(1.10718 0.114935 1.23833e-20)
(1.11125 0.111687 1.12812e-20)
(1.10593 0.109667 4.40369e-20)
(1.02331 0.0407611 -1.15253e-21)
(1.02207 0.0402186 -1.55667e-21)
(1.0224 0.04214 -1.47714e-21)
(0.904682 -0.0907128 1.27757e-22)
(0.936591 -0.0928455 -2.91821e-21)
(0.958151 -0.0916022 9.34189e-21)
(1.04941 -0.0136432 0)
(1.04973 -0.0127308 0)
(1.04874 -0.0129707 0)
(0.996392 0.00469109 -1.59215e-21)
(0.996198 0.00426876 7.1666e-21)
(0.995896 0.00488439 -1.56808e-21)
(0.370434 0.0875832 3.19448e-21)
(0.358399 0.0608229 -2.18098e-20)
(0.34199 0.0889177 -6.26733e-20)
(0.839252 -0.0728601 0)
(0.83424 -0.0757896 0)
(0.88684 -0.077475 0)
(0.958589 -0.0995666 1.04416e-20)
(0.917294 -0.0980428 6.00084e-21)
(0.93462 -0.101575 4.25381e-21)
(0.741778 -0.125137 -1.8092e-21)
(0.701542 -0.120737 -6.62334e-20)
(0.660004 -0.114419 -2.93301e-20)
(1.15437 0.136516 -4.29897e-20)
(1.16101 0.135609 1.64719e-20)
(1.15913 0.142633 2.12556e-20)
(1.07394 -0.0724669 1.72968e-20)
(1.07257 -0.0718715 4.46909e-20)
(1.0725 -0.0737845 -7.97806e-22)
(1.06676 -0.0459908 4.19619e-21)
(1.06651 -0.0470682 9.54598e-21)
(1.06774 -0.0463489 -1.27885e-21)
(1.05003 -0.0139968 0)
(0.127663 -0.00776143 -7.41674e-21)
(0.173243 -0.0122348 -2.4938e-22)
(0.117655 -0.00616977 -1.14866e-21)
(0.978811 0.0986545 -1.21583e-21)
(0.974465 0.0983484 2.62192e-22)
(0.977375 0.0944037 -1.55841e-21)
(1.00091 0.0921059 1.83104e-22)
(0.998369 0.0898625 2.36878e-22)
(1.00204 0.0881993 -1.57301e-21)
(1.01698 0.0471333 -3.28066e-22)
(1.01838 0.0466731 1.3736e-22)
(1.01717 0.0455892 -9.59591e-23)
(1.13328 -0.00497845 -8.10336e-21)
(1.13513 -0.00287727 -5.97617e-21)
(1.13621 -0.00669971 2.85786e-21)
(1.06577 -0.0458831 -3.71967e-22)
(1.06664 -0.0450693 2.50341e-21)
(1.00181 0.00552856 -5.45718e-22)
(1.00182 0.00528152 0)
(1.00161 0.00512168 1.04966e-21)
(0.999989 0.00120445 0)
(0.99998 0.00160107 0)
(0.999992 0.00120833 3.16197e-21)
(0.836047 -0.0728713 -5.38546e-21)
(0.792875 -0.0745963 7.23547e-21)
(1.0012 0.00858885 2.67162e-21)
(1.00128 0.00905351 1.31014e-21)
(1.0014 0.00888009 -6.35826e-22)
(0.98939 -0.102841 -6.29751e-22)
(0.996889 -0.105328 1.2131e-20)
(0.99573 0.01662 0)
(0.99523 0.0164375 9.51144e-22)
(0.995509 0.0171969 2.05966e-21)
(0.877492 -0.0645039 5.93379e-22)
(0.835681 -0.0614347 -8.66451e-21)
(0.833315 -0.0640092 1.28885e-20)
(0.786877 0.0483676 2.2194e-20)
(0.778115 0.0545011 -1.48058e-20)
(0.778703 0.0424001 3.9467e-20)
(0.763743 0.134892 6.37452e-20)
(0.76276 0.147519 -1.27793e-20)
(0.7534 0.138861 3.33955e-20)
(0.733784 0.58617 7.97983e-21)
(0.766103 0.59618 2.63558e-21)
(0.744356 0.631269 -2.29301e-21)
(1.21037 0.0651751 -5.02777e-20)
(1.20863 0.059997 -1.90811e-20)
(1.21451 0.0596624 -5.30537e-20)
(1.12459 0.0982533 -1.93387e-20)
(1.12165 0.102043 1.76044e-21)
(1.11985 0.0973065 -1.66267e-20)
(1.06856 0.0840327 -3.15426e-22)
(1.06572 0.0851382 -2.97141e-21)
(1.06625 0.0815922 1.15729e-20)
(0.842871 0.080492 0)
(0.835187 0.0836088 -3.88457e-20)
(0.835941 0.0740507 -1.62398e-20)
(0.905249 0.0075126 2.41873e-20)
(0.907841 0.00427267 2.24052e-20)
(0.909411 0.00816731 2.07987e-20)
(0.99177 0.0135356 4.89229e-21)
(0.991244 0.0141968 -3.01817e-21)
(0.99199 0.0144241 1.68613e-22)
(1.05662 -0.0779143 0)
(1.05645 -0.0793055 2.22221e-20)
(1.05194 -0.0789754 0)
(1.00104 0.00825595 5.86857e-22)
(1.00119 0.00812775 -2.00437e-21)
(0.340151 -0.0516582 9.30079e-21)
(0.30367 -0.045921 -1.03562e-20)
(0.322157 -0.0474342 8.26455e-21)
(1.05391 -0.0179791 -5.66251e-21)
(1.05444 -0.0187465 2.30056e-20)
(0.524973 -0.0151175 4.25614e-21)
(0.492019 -0.0121044 1.13513e-20)
(0.528987 -0.0147107 -9.08315e-21)
(1.0091 0.000961633 -4.62716e-22)
(1.0095 0.000941093 -6.96496e-22)
(1.00869 0.000548254 -6.62955e-22)
(0.999997 0.000835713 0)
(1 0.000394531 0)
(0.999999 0.000427351 0)
(1.02112 0.00213617 2.72115e-21)
(1.02086 0.00232566 -1.36765e-21)
(1.02075 0.00202643 1.05198e-21)
(0.702141 0.214441 2.24268e-20)
(0.719251 0.221971 4.2507e-20)
(0.702153 0.23689 7.80481e-20)
(1.03829 0.0218367 -4.90339e-21)
(1.0392 0.0224313 -5.05144e-21)
(1.03937 0.0215402 2.49982e-21)
(0.889034 0.0248026 0)
(0.887154 0.0202667 0)
(0.892773 0.0210887 0)
(1.13152 -0.00819879 -2.01562e-21)
(1.12997 -0.00426646 0)
(1.12428 -0.0406594 1.24525e-20)
(1.12388 -0.03784 2.74228e-20)
(1.12143 -0.0397792 2.54823e-20)
(0.0928991 0.159363 0)
(0.0917829 0.194541 9.7709e-20)
(0.121363 0.173184 6.50636e-20)
(1.00363 0.000805562 1.00245e-22)
(1.00395 0.000729992 5.53913e-24)
(1.00389 0.00112952 -2.29344e-23)
(1.07928 0.00540802 5.8983e-21)
(1.08048 0.00614744 1.38627e-21)
(1.08053 0.00459809 -7.17345e-21)
(0.965405 0.0126319 -1.13292e-20)
(0.964075 0.0112937 8.5709e-22)
(0.963793 0.0134591 -9.4355e-21)
(0.0859987 0.129115 0)
(0.0524657 0.164114 0)
(0.902335 0.0108505 -8.51881e-21)
(0.900879 0.00639853 -2.69294e-20)
(1.01681 0.048671 -9.63843e-23)
(1.01543 0.047344 -1.36394e-22)
(1.08393 0.0272013 -6.05086e-21)
(1.08357 0.0293569 -4.19062e-21)
(1.08589 0.028556 -1.08316e-20)
(1.07573 -0.0733752 -3.2918e-20)
(1.07525 -0.071182 -3.1113e-20)
(0.996467 0.0317151 -2.53478e-21)
(0.996444 0.0303262 -8.13299e-21)
(0.997554 0.0312296 8.16117e-23)
(1.07113 0.0361242 2.47013e-20)
(1.07326 0.0368069 -5.03908e-21)
(1.07152 0.0385104 1.57385e-20)
(1.03725 0.0221055 -9.55388e-21)
(1.03735 0.0212124 -2.97867e-22)
(0.709714 0.0576143 -8.52087e-20)
(0.548266 0.0432393 4.82225e-20)
(0.61436 0.0459381 8.08094e-20)
(1.02453 0.0399793 5.03635e-23)
(1.02469 0.0418631 2.96465e-21)
(0.133122 -0.00715396 4.39496e-21)
(1.00181 0.00574813 -2.38235e-22)
(1.00202 0.00592522 -1.42114e-21)
(0.379782 0.122839 -9.30254e-20)
(0.402652 0.0910077 5.13901e-20)
(1.17641 0.398792 5.39838e-20)
(1.14 0.37099 -1.14627e-20)
(0.873515 0.288033 9.06562e-20)
(0.995458 0.000731868 1.53078e-20)
(0.994986 0.000943924 -1.88675e-21)
(0.986996 0.00048509 2.6401e-21)
(0.98778 0.000413668 1.37748e-20)
(1.11925 -0.0842032 1.79276e-21)
(1.11651 -0.0845608 -4.21453e-20)
(1.11766 -0.0872604 -1.67676e-20)
(1.07225 0.130608 1.14836e-20)
(1.07772 0.13007 -6.78353e-21)
(1.0747 0.136694 4.01955e-21)
(0.996836 0.00453914 -3.52976e-21)
(0.996562 0.00511665 -2.34154e-21)
(0.819769 -0.137257 4.24815e-21)
(0.781462 -0.132298 2.69133e-20)
(-0.0563312 -0.0312835 -1.21139e-20)
(-0.0219701 -0.0381602 3.62795e-21)
(-0.0349255 -0.0362848 -4.70209e-20)
(0.996419 0.0167638 0)
(0.9961 0.0158371 4.32518e-21)
(0.0927261 0.229418 2.02211e-20)
(0.127407 0.246988 -7.20278e-20)
(0.0949446 0.267874 -7.56748e-20)
(1.05931 -0.0473553 1.78108e-20)
(1.05932 -0.0467267 5.35179e-21)
(1.05999 -0.0469395 7.25145e-21)
(-0.0224233 -0.0200319 -6.07613e-21)
(0.0072397 -0.0277806 0)
(-0.00913497 -0.021428 -1.74143e-20)
(1.05269 0.0218558 -2.16863e-21)
(1.054 0.0221995 -2.66932e-21)
(1.05307 0.0233516 3.88547e-21)
(0.828813 -0.0508749 4.76089e-21)
(0.827146 -0.0539526 -1.80649e-21)
(0.869821 -0.0544051 3.71028e-21)
(0.999959 0.0023631 3.67189e-21)
(0.999914 0.00275133 0)
(0.999935 0.00278295 -4.43255e-22)
(1.00013 0.00363181 -4.05341e-21)
(1.00015 0.00397041 -3.53607e-21)
(1.00016 0.00354453 -6.72276e-21)
(0.995901 0.00100984 7.51244e-21)
(0.389708 0.148417 -8.49918e-20)
(0.400859 0.1783 8.06148e-20)
(0.421628 0.153524 1.45389e-21)
(0.382407 -0.0588134 -8.13606e-21)
(0.364153 -0.0576939 0)
(-0.0657289 0.0286866 -1.84701e-19)
(-0.114462 0.0255409 2.01832e-20)
(-0.100986 0.0252901 -1.9788e-19)
(1.05133 0.021643 2.25861e-21)
(1.05227 0.0206042 0)
(1.0005 0.00491301 3.44888e-22)
(1.00056 0.00481379 -8.18645e-22)
(1.00042 0.0044658 1.14305e-21)
(1.19073 0.426435 -1.45248e-20)
(1.26996 0.45173 -3.69243e-20)
(1.07757 0.00475916 1.67969e-20)
(1.07782 0.00653473 -1.37606e-21)
(1.02136 0.00201736 4.93856e-21)
(1.02146 0.00230641 3.09696e-21)
(0.112132 -0.0523834 -3.43619e-20)
(0.0727373 -0.0462107 -2.69777e-21)
(0.0929486 -0.0484483 -1.7696e-20)
(1.19921 0.106635 -2.04648e-20)
(1.19273 0.109953 2.31668e-20)
(1.19733 0.114343 -5.98163e-22)
(1.0242 0.0231842 9.77677e-22)
(1.02451 0.0223734 -4.35371e-21)
(1.02355 0.0224409 -2.40936e-21)
(0.976674 0.05484 -1.29752e-20)
(0.974639 0.0561573 1.56998e-20)
(0.977229 0.0573093 -2.24694e-22)
(1.24634 0.450193 5.20908e-20)
(1.12268 0.424261 -4.29425e-20)
(0.371983 0.0335521 -2.78917e-20)
(0.400176 0.0256259 -1.04106e-19)
(0.376923 -0.000776711 2.40242e-20)
(1.09506 -0.0692419 8.31973e-21)
(1.09682 -0.070247 3.93916e-20)
(1.09476 -0.0714075 -5.60588e-21)
(1.12577 -0.0302351 -8.84642e-22)
(1.12846 -0.0310529 -1.54999e-20)
(1.12798 -0.0282156 7.52709e-22)
(1.05717 -0.0544412 -9.39712e-21)
(1.05652 -0.0548449 7.90367e-21)
(1.0565 -0.0540304 -2.00235e-20)
(0.596039 0.153469 0)
(0.615807 0.138229 -3.32992e-20)
(0.61853 0.164828 0)
(1.01173 0.00574979 6.91467e-22)
(1.01218 0.00583979 -3.268e-21)
(1.012 0.00624453 -1.44409e-21)
(0.837318 0.00830023 1.76454e-20)
(0.841254 0.0156788 8.28744e-20)
(0.845103 0.00848192 0)
(0.685073 0.208535 -4.91804e-20)
(0.702808 0.198738 -9.73322e-20)
(1.05869 0.0152967 1.99745e-20)
(1.05975 0.014846 -2.50831e-21)
(1.05867 0.013831 -2.50457e-21)
(1.01698 0.0122475 -2.98581e-21)
(1.017 0.0116715 -3.78427e-21)
(1.01757 0.0121728 2.56393e-21)
(0.754043 -0.125203 2.61644e-20)
(0.739389 -0.12513 -9.19695e-21)
(0.827607 -0.130459 3.03118e-20)
(0.839444 0.518741 6.74024e-21)
(0.810955 0.538222 -2.01487e-20)
(0.851565 0.545356 2.90401e-21)
(1.12472 -0.0428098 0)
(1.12693 -0.0410241 1.99965e-20)
(1.01991 0.0461065 3.07216e-22)
(1.01995 0.0478487 3.0831e-22)
(1.12486 0.112292 -2.22201e-20)
(1.12135 0.115723 -3.92631e-20)
(1.12668 0.117468 -1.13389e-20)
(-0.161878 -0.0121449 1.20246e-19)
(-0.204173 -0.010786 -4.43946e-20)
(-0.185642 -0.0116083 8.18174e-20)
(0.546202 -0.0177393 9.72371e-21)
(0.518027 -0.0148974 -2.17676e-21)
(1.06478 -0.0510794 -2.02149e-21)
(1.064 -0.0509482 -9.74003e-23)
(1.06406 -0.0518309 -1.19915e-20)
(0.755678 -0.12565 -8.78801e-22)
(0.67396 -0.121521 4.05268e-20)
(0.947763 0.0115649 9.15726e-21)
(0.946489 0.013689 4.3471e-21)
(0.945572 0.0109757 -7.41603e-21)
(0.0865378 -0.0933968 2.95139e-19)
(0.0969513 -0.0644868 -3.74495e-20)
(0.0603509 -0.0697781 3.49674e-20)
(1.00152 0.0148513 1.02741e-21)
(1.00163 0.0154981 9.17031e-22)
(1.00124 0.0152015 -1.41357e-22)
(0.181499 0.131211 -1.28598e-19)
(0.211381 0.112118 -7.66283e-20)
(0.213055 0.147376 -5.62489e-21)
(0.392538 -0.0155335 1.48807e-21)
(0.403284 -0.0189981 -4.60579e-21)
(0.418594 -0.023576 0)
(0.905509 0.0187286 2.20518e-20)
(0.90287 0.0222052 -1.17333e-20)
(0.907614 0.0223675 1.2586e-20)
(1.00002 0.00125698 2.41048e-22)
(0.999996 0.00124891 -3.35594e-21)
(1.12176 -0.0843303 5.13491e-20)
(1.12002 -0.0820333 4.68127e-20)
(0.343623 -0.0193147 0)
(0.369173 -0.0248983 0)
(0.359088 -0.0242796 6.94446e-21)
(0.764918 0.122744 -4.01811e-20)
(0.777352 0.131017 5.89319e-21)
(1.00544 0.00070193 1.08058e-21)
(1.00568 0.00101518 3.9694e-22)
(1.00579 0.000594648 5.01652e-22)
(0.976454 0.0521784 2.26185e-21)
(0.978883 0.0533259 -1.222e-20)
(1.03485 0.0253972 3.91439e-21)
(1.03562 0.0261879 1.78623e-21)
(1.0346 0.0263742 6.7342e-21)
(1.00511 0.000718761 1.35676e-22)
(1.00498 0.000355987 -4.69331e-22)
(1.0184 0.00175151 -1.27011e-21)
(1.01862 0.00159052 1.59391e-21)
(1.01833 0.00149683 -1.34721e-21)
(0.343781 0.0354732 7.12067e-20)
(0.498563 -0.0456231 -4.6677e-21)
(0.483783 -0.0420943 -3.05601e-21)
(0.468758 -0.037873 6.21102e-21)
(0.949167 0.00911495 -2.5821e-20)
(0.950362 0.0118428 2.69066e-22)
(1.04009 0.0230227 9.6218e-21)
(1.03899 0.0234071 -4.76696e-21)
(0.999976 0.00118142 4.37448e-22)
(1 0.000804894 1.86057e-21)
(1.2983 -0.0704409 -1.86811e-21)
(1.28609 -0.0707836 3.50333e-20)
(1.29945 -0.0801162 -3.0775e-20)
(1.01774 -0.104053 1.3745e-20)
(0.982344 -0.100527 -1.90739e-20)
(1.1081 0.119906 -6.24299e-22)
(1.10304 0.117416 2.19604e-21)
(0.579728 0.165348 0)
(0.579797 0.137063 1.04588e-19)
(0.994972 0.00143271 -1.36832e-20)
(0.994471 0.0011072 -1.96668e-21)
(0.903718 0.014822 -4.18227e-22)
(0.908122 0.0157156 5.66256e-21)
(1.06218 -0.080563 1.43992e-21)
(1.06113 -0.0791225 -1.6188e-20)
(1.0632 -0.0788826 1.30727e-20)
(1.02528 0.0121173 3.70084e-21)
(1.02525 0.0126806 1.65672e-21)
(1.02458 0.0122316 0)
(0.963265 0.0249735 -5.9177e-21)
(0.961146 0.0258046 8.65455e-21)
(0.961712 0.0231732 5.94616e-22)
(0.668123 0.213361 5.29342e-20)
(0.647784 0.220326 -1.09607e-20)
(0.667117 0.236602 5.08881e-20)
(0.986815 0.0012443 -2.44415e-20)
(0.986196 0.000684061 -2.21148e-20)
(1.01409 -0.142786 0)
(0.947357 -0.138495 6.23529e-20)
(1.00895 -0.143139 -6.70976e-21)
(0.830846 0.628399 -2.18924e-21)
(0.838083 0.597549 2.28962e-21)
(0.801865 0.59962 2.72251e-21)
(0.966864 0.0142489 2.60524e-22)
(0.967307 0.0120209 1.31376e-20)
(1.02386 0.0102091 -1.43269e-21)
(1.02394 0.0107437 2.11185e-21)
(1.02331 0.0103232 -1.44832e-21)
(1.06398 0.0921869 2.49491e-21)
(1.06035 0.093075 4.43617e-21)
(1.06332 0.0966562 -1.281e-20)
(1.09536 -0.0385936 1.08744e-21)
(1.09616 -0.0406862 -6.59613e-23)
(1.09729 -0.0381084 -1.95122e-20)
(0.110314 -0.1145 1.47225e-19)
(0.0715311 -0.123351 2.76525e-20)
(1.08053 -0.0559483 1.11225e-20)
(1.08146 -0.0572307 0)
(1.07954 -0.0570562 -6.14033e-21)
(1.03677 0.18175 3.51585e-21)
(1.03956 0.176554 0)
(1.04462 0.180268 0)
(1.08166 0.0540184 0)
(1.07986 0.056335 0)
(1.07878 0.0535038 1.3296e-20)
(-0.0306082 0.0611698 -2.71237e-20)
(-0.0507555 0.0680067 1.14454e-19)
(-0.0856264 0.0600022 -7.68242e-20)
(1.06706 0.131747 -4.05095e-21)
(1.0696 0.126263 6.82556e-21)
(1.07714 -0.110046 0)
(1.07674 -0.109854 -1.23935e-20)
(1.07393 -0.107643 1.28475e-20)
(-0.0576808 -0.0134645 1.85835e-20)
(-0.0347142 -0.0196577 2.23639e-21)
(1.29389 -0.0644038 -7.44484e-20)
(1.31118 -0.0694901 2.3972e-20)
(0.942582 0.0483649 0)
(0.939848 0.0501282 -9.61979e-21)
(0.93947 0.0465026 -6.94516e-21)
(0.783479 -0.015229 -1.39212e-20)
(0.778395 -0.00663375 -1.90993e-20)
(0.772067 -0.0170383 4.1502e-20)
(1.00004 0.00284546 6.68758e-21)
(1.00006 0.00273679 -2.34849e-21)
(1.00001 0.00235193 -9.1399e-23)
(1.09278 -0.06865 1.77845e-20)
(1.09486 -0.0672335 2.43958e-22)
(1.06586 -0.0513959 7.45408e-21)
(1.06549 -0.050288 -1.52739e-20)
(1.05778 -0.0540854 1.8004e-21)
(1.05783 -0.0549134 1.0494e-20)
(1.0587 0.016541 1.27802e-20)
(1.05763 0.0156016 3.73641e-21)
(1.11008 -0.0355627 -2.12827e-20)
(1.10811 -0.0367495 4.22804e-21)
(1.11027 -0.0382292 -9.4937e-21)
(1.03229 0.0189004 0)
(1.03308 0.0194218 0)
(1.03215 0.019781 0)
(0.833706 0.00191948 -3.71196e-20)
(0.829298 0.0097629 -3.90796e-21)
(1.06258 0.173367 -2.74809e-21)
(1.05501 0.173401 -1.16566e-20)
(1.06 0.166603 -7.40862e-21)
(-0.344436 0.00620729 5.84972e-20)
(-0.366834 0.00742996 -7.01161e-22)
(-0.327141 0.00568651 -2.42467e-21)
(1.06157 -0.0509262 1.46195e-22)
(1.06133 -0.0517184 9.41536e-21)
(1.06227 -0.051435 1.25045e-22)
(1.01633 0.054948 5.49158e-22)
(1.01639 0.0567262 -4.03482e-25)
(1.01455 0.0556838 -4.44576e-23)
(1.08925 -0.141428 1.55651e-20)
(1.08518 -0.142386 -4.19583e-21)
(1.11985 -0.142235 8.40785e-21)
(1.02977 0.201034 -5.63554e-21)
(1.02719 0.206476 1.73522e-21)
(1.03526 0.205666 5.98712e-21)
(0.513039 -0.0458299 -1.44949e-20)
(0.535373 -0.0498994 -3.83937e-21)
(0.150129 0.114915 -7.13863e-20)
(0.151761 0.152309 -3.78029e-21)
(1.02675 -0.143478 1.05935e-20)
(1.07751 -0.146147 0)
(1.0137 0.0265317 -2.02593e-22)
(1.0144 0.0271342 -8.07785e-22)
(1.01357 0.0274065 7.44673e-23)
(1.20523 0.104219 2.14253e-20)
(1.20055 0.100038 -3.78803e-20)
(1.13022 0.099162 1.09242e-22)
(1.12798 0.0944259 -2.04361e-20)
(1.02592 0.0119527 1.56598e-21)
(1.02523 0.0115297 1.81897e-21)
(1.00047 0.00503367 7.39449e-22)
(1.00058 0.00539967 -6.34752e-22)
(0.942529 0.122099 9.76102e-21)
(0.938263 0.118366 6.16866e-21)
(0.944411 0.117402 -5.2744e-21)
(0.924214 -0.0663213 -1.2164e-21)
(0.921636 -0.0678031 1.7764e-21)
(1.28661 0.104989 -2.84368e-20)
(1.29485 0.101854 0)
(1.29677 0.11011 -3.761e-20)
(-0.0111123 0.0613388 1.24987e-19)
(0.0621459 0.076375 0)
(1.11445 0.0236631 0)
(1.11458 0.0263681 5.70299e-21)
(1.117 0.0245188 -1.87303e-20)
(1.06256 -0.0579376 -4.21572e-21)
(1.062 -0.0575849 0)
(1.06185 -0.0585865 5.51569e-23)
(1.07433 -0.0910328 -1.80486e-20)
(1.07165 -0.091204 0)
(1.0731 -0.0929907 0)
(-0.0106092 0.0306104 3.6509e-20)
(-0.0269222 0.0302536 -1.92003e-19)
(1.28423 0.157118 0)
(1.28406 0.149293 -1.70588e-20)
(1.29344 0.15331 7.44505e-20)
(1.00002 0.00916826 -2.05167e-21)
(1.00009 0.00874471 0)
(0.999917 0.00866046 2.64347e-21)
(0.565389 0.0756489 0)
(0.572015 0.0955444 -7.2127e-20)
(0.546764 0.0907396 0)
(0.795193 0.0445077 2.20085e-20)
(0.794945 0.0557842 1.90301e-20)
(1.01026 0.000392933 0)
(1.00988 0.000386579 3.86721e-22)
(1.02384 0.0238546 -1.73835e-22)
(1.02488 0.0238746 5.01369e-21)
(0.888672 0.482724 4.26464e-21)
(0.882312 0.454261 1.02679e-21)
(0.91087 0.462634 -3.83714e-21)
(1.27176 0.501962 -9.34626e-21)
(1.27593 0.48031 1.04337e-19)
(1.18233 0.455814 1.68956e-20)
(1.06737 -0.00869564 3.14616e-21)
(1.06811 -0.00958797 -8.21434e-21)
(1.06869 -0.00846056 9.85353e-21)
(1.00344 0.000968787 1.45863e-22)
(1.00341 0.000605839 1.09446e-23)
(1.10262 -0.0356368 2.39359e-21)
(1.10221 -0.0334925 0)
(1.10461 -0.0344614 -2.61714e-20)
(1.09367 -0.0394468 2.06732e-20)
(1.09417 -0.0371008 8.45378e-23)
(-0.076357 -0.0269332 -6.93901e-21)
(-0.0881986 -0.0256951 -2.18035e-20)
(1.20734 -0.109866 0)
(1.19978 -0.110258 -2.58514e-20)
(1.19665 -0.104605 2.37528e-20)
(0.992233 0.0130974 -3.11297e-21)
(0.991731 0.0129319 7.40773e-21)
(0.995391 0.0320173 1.93972e-22)
(0.996469 0.0328564 6.42651e-21)
(1.12324 -0.0295484 2.2024e-20)
(1.1235 -0.0322777 0)
(0.909382 -0.0776444 6.86294e-21)
(0.959798 -0.0777796 -2.13707e-21)
(0.946289 -0.0789003 6.91668e-21)
(0.965134 0.0238827 -3.3974e-21)
(0.965012 0.0263181 9.41694e-21)
(0.826124 -0.0772869 0)
(0.8157 -0.0785404 0)
(0.874752 -0.0807332 0)
(-0.149886 -0.0149204 0)
(-0.118193 -0.0194421 -2.9e-20)
(-0.139281 -0.0149685 0)
(1.06352 -0.0575883 -5.50417e-21)
(1.06336 -0.0587671 1.05455e-21)
(1.01653 0.0122256 -6.48966e-22)
(1.01697 0.0126777 -1.55124e-21)
(0.501502 0.41693 -2.23301e-20)
(0.522193 0.451899 0)
(0.468563 0.454118 -6.93721e-20)
(1.11572 -0.026885 -2.0445e-20)
(1.11822 -0.0278428 -6.70446e-20)
(1.1177 -0.0250578 2.38821e-21)
(-0.321783 -0.00410581 8.49109e-20)
(-0.280052 -0.00883025 -1.34981e-19)
(-0.302751 -0.00383762 -7.18353e-20)
(1.00371 0.0191447 1.9029e-21)
(1.00412 0.0195094 0)
(1.00375 0.0199376 -1.64024e-21)
(0.871772 0.0759333 1.17234e-20)
(0.819135 0.0753998 -1.16917e-19)
(1.01293 0.0258365 -1.42014e-22)
(1.01376 0.0256849 2.07377e-22)
(1.20036 0.036337 -3.99556e-20)
(1.19564 0.0345685 7.43995e-21)
(1.19647 0.0394905 3.00775e-20)
(1.00894 0.00124531 -1.19776e-22)
(1.00874 0.000866324 2.29854e-21)
(0.298278 -0.0561608 4.53395e-21)
(0.262814 -0.0522215 2.37356e-20)
(0.290376 -0.0535747 6.81168e-23)
(0.726385 -0.124291 -3.38214e-20)
(0.712307 -0.123122 0)
(0.798823 -0.127949 0)
(1.00062 0.0954609 -3.89197e-21)
(1.00415 0.0938665 4.30578e-22)
(1.21816 0.496724 3.06101e-20)
(1.26364 0.509026 -7.54591e-20)
(1.22962 0.476495 4.63808e-20)
(1.0845 0.0542379 -1.24129e-20)
(1.08279 0.0516072 0)
(1.01585 0.0121368 1.69995e-21)
(1.01596 0.0115873 1.46529e-21)
(1.05857 -0.076881 -4.35085e-21)
(1.05573 -0.0767971 1.02111e-20)
(1.06095 -0.0504723 1.55941e-20)
(1.06178 -0.0501717 7.67402e-21)
(1.11202 0.0228304 2.52242e-23)
(1.11412 0.0210418 1.50578e-20)
(1.00319 -0.0989346 4.03022e-21)
(0.97024 -0.0972838 7.37087e-22)
(1.01714 -0.0964656 4.44869e-21)
(-0.162851 -0.0101998 0)
(-0.187402 -0.00762783 -2.8562e-20)
(1.01276 0.00312758 4.9703e-22)
(1.01316 0.00316758 4.66021e-22)
(1.01295 0.00274545 2.15408e-21)
(1.07138 0.0826153 0)
(1.07106 0.0865615 0)
(0.138442 -0.0584935 1.64985e-20)
(0.159038 -0.0603139 2.80657e-20)
(-0.130116 0.030622 8.85483e-21)
(-0.163103 0.0281019 -7.71702e-20)
(-0.134233 0.0311924 -3.32326e-21)
(1.00003 0.00282372 3.25288e-21)
(1.00002 0.00326992 9.64994e-21)
(1.00662 0.00936235 -1.5038e-22)
(1.00705 0.00959607 8.97739e-23)
(1.00681 0.00982629 8.36325e-23)
(0.566143 -0.0129828 -1.77288e-21)
(0.586221 -0.0163758 1.24654e-22)
(1.10054 -0.0748351 2.40176e-20)
(1.0985 -0.0741302 0)
(1.09886 -0.0766547 -2.26979e-20)
(1.00007 0.000152196 6.16312e-22)
(1.00003 0.000116666 3.49102e-22)
(1.00006 0.000191193 -6.97921e-23)
(1.05779 -0.0717866 -1.86514e-21)
(1.05711 -0.0704227 1.89101e-20)
(1.05811 -0.0708661 -1.39097e-20)
(1.17015 -0.0256639 9.9228e-21)
(1.16761 -0.0289984 9.98048e-21)
(1.16567 -0.0245056 8.48706e-22)
(0.792814 -0.0155649 -3.22456e-20)
(0.787761 -0.0249941 -9.95868e-20)
(1.10142 0.0974394 -1.03395e-20)
(1.10494 0.100701 -1.64555e-20)
(1.10492 0.0953594 0)
(1.00006 0.00320319 -2.68196e-21)
(1.00008 0.00271865 -4.71013e-21)
(0.994906 0.215453 -5.29823e-22)
(0.995744 0.205289 2.17164e-22)
(0.985871 0.210392 3.43666e-22)
(-0.100397 -0.0164459 0)
(-0.0947898 -0.0150156 -1.86586e-20)
(-0.134871 -0.00839316 0)
(1.0385 0.00149868 1.97001e-21)
(1.03861 0.000844839 1.33148e-20)
(1.03934 0.00127466 8.03876e-21)
(1.22581 0.119565 3.23939e-20)
(1.21996 0.124183 3.06864e-20)
(1.21961 0.11526 1.12284e-20)
(0.570326 0.183436 -6.65749e-20)
(0.586728 0.203769 2.10689e-20)
(0.5568 0.210255 -1.15103e-19)
(1.03407 0.0245893 -4.69026e-21)
(1.03505 0.0243447 -1.73069e-21)
(0.996476 0.0290839 -1.91036e-21)
(0.995501 0.0294941 -5.41266e-21)
(1.07995 -0.0487373 1.07849e-21)
(1.08059 -0.0500551 3.47068e-21)
(1.07896 -0.0497962 -5.6705e-21)
(0.603655 -0.0219137 -4.98884e-21)
(0.585698 -0.0196662 0)
(0.584573 -0.0199621 0)
(1.07957 -0.0549104 -1.31721e-21)
(1.08154 -0.0548328 8.3096e-21)
(0.945806 0.126329 -3.72412e-21)
(0.940111 0.128006 -5.50296e-22)
(0.982854 0.0981947 -5.62968e-21)
(0.980458 0.102223 4.66846e-21)
(1.00006 0.000331095 -6.86018e-22)
(1.00006 0.000287699 5.78614e-22)
(1.00002 0.000194621 1.63563e-22)
(0.317929 -0.0143458 0)
(0.328347 -0.0152468 -1.05577e-21)
(0.84476 -0.0933263 -3.50298e-20)
(0.934062 -0.100728 -2.12362e-20)
(0.924141 -0.0960986 -9.34693e-21)
(1.05318 -0.0637659 -2.57407e-21)
(1.05305 -0.0647419 -1.35072e-20)
(1.05171 -0.0638467 7.80614e-21)
(1.01533 0.0120998 -7.02791e-22)
(1.0158 0.0126025 -1.02177e-21)
(-0.153969 -0.0220437 0)
(-0.116833 -0.0284735 3.43891e-20)
(-0.134059 -0.0250743 -3.28815e-20)
(0.166816 -0.0188124 -5.2026e-21)
(0.174602 -0.0173415 2.23562e-21)
(0.139701 -0.0121534 -5.35152e-21)
(1.08459 -0.113435 0)
(1.0785 -0.11068 0)
(0.824213 -0.0511754 3.55537e-21)
(0.790739 -0.0522824 -4.14856e-22)
(1.05937 -0.0479822 3.29348e-21)
(1.05869 -0.047681 -2.37123e-22)
(1.00008 0.00371431 -3.41171e-22)
(1.00689 0.000776708 -3.7491e-22)
(1.00653 0.000830083 -2.18237e-22)
(1.00695 0.00121792 1.25168e-21)
(1.13011 -0.0100981 -1.30377e-20)
(1.12729 -0.00954206 -3.37944e-20)
(1.12846 -0.0125449 1.46348e-21)
(0.188916 -0.0441858 6.18785e-21)
(0.164231 -0.0379468 -1.05847e-20)
(0.15462 -0.038175 -5.29538e-21)
(1.13901 -0.0629252 -1.44602e-20)
(1.14201 -0.0619019 3.63209e-20)
(1.1408 -0.0658917 3.47374e-20)
(1.06897 0.0356856 1.19782e-20)
(1.07056 0.0341671 -7.37334e-22)
(1.21632 -0.109108 1.41182e-20)
(1.22422 -0.114826 0)
(1.06127 -0.0366571 8.75753e-21)
(1.06089 -0.035977 2.52052e-20)
(1.0183 0.00097093 0)
(1.01828 0.00121022 0)
(1.0185 0.00107366 2.04514e-21)
(1.14884 -0.00884424 0)
(1.14434 -0.0150386 -6.56349e-20)
(1.04583 -0.0238134 0)
(1.00227 0.00535991 8.81981e-22)
(1.00227 0.00512276 -4.62429e-23)
(1.00205 0.00499618 -1.03087e-21)
(1.08924 -0.140261 3.18512e-21)
(1.04116 -0.139754 1.67188e-20)
(1.06657 -0.00749496 -8.25752e-21)
(1.06594 -0.00867093 -1.06664e-21)
(1.00007 0.000117902 9.89314e-22)
(1.00011 0.000185537 5.70543e-22)
(1.00824 0.108748 -5.59033e-22)
(1.00736 0.113594 -6.08368e-23)
(1.00412 0.109352 1.5724e-21)
(1.0353 0.187803 1.83862e-21)
(1.03023 0.182624 2.9541e-21)
(0.773571 0.00383541 -3.80248e-20)
(0.784214 0.00368748 -7.84316e-20)
(1.05656 -0.0727317 -1.4314e-21)
(1.05837 -0.0730715 -4.62634e-21)
(1.00849 0.144016 2.18965e-22)
(1.00916 0.150195 8.12936e-23)
(1.00276 0.146494 6.84018e-22)
(1.04186 0.00675739 1.24079e-22)
(1.04249 0.00746767 -1.08297e-20)
(1.04153 0.00742126 -3.87506e-21)
(1.25432 -0.0449718 -7.63154e-21)
(1.25785 -0.0402297 3.59063e-20)
(1.25845 -0.0459098 -3.05796e-20)
(1.02637 -0.100723 8.469e-21)
(0.986781 -0.0997293 -6.44872e-21)
(0.766342 -0.0967778 -3.8106e-20)
(0.767652 -0.0940207 0)
(1.00326 0.0189487 5.08843e-22)
(1.00359 0.0185568 2.1316e-21)
(1.1006 -0.120585 -1.25156e-20)
(1.09522 -0.118652 -1.37237e-20)
(1.10704 -0.123087 2.96165e-20)
(0.998419 0.00119173 -1.64926e-21)
(0.998318 0.00147501 -1.54598e-21)
(0.998118 0.00129425 -3.89771e-21)
(1.04141 0.00602258 1.25131e-20)
(1.04239 0.00599564 1.52187e-22)
(1.0014 0.0141589 2.05774e-21)
(1.00179 0.0144597 1.65724e-21)
(0.862368 0.659374 0)
(0.813648 0.666322 0)
(1.00178 0.00103076 -3.95163e-22)
(1.00193 0.000897661 0)
(1.00166 0.000810851 -6.8352e-23)
(1.20483 0.0378926 -3.44648e-20)
(1.20398 0.0330568 -1.64036e-20)
(1.09793 0.100517 2.91636e-21)
(1.09755 0.0952176 2.27179e-22)
(1.03143 0.0183206 1.47371e-21)
(1.03237 0.0180281 0)
(1.10302 -0.0379577 1.55367e-20)
(1.1006 -0.036441 1.62479e-20)
(1.03994 0.0546085 -1.29492e-23)
(1.04067 0.0528333 1.15768e-23)
(1.04217 0.0544158 5.54669e-21)
(0.119327 0.0947152 -1.38906e-19)
(0.106741 0.0799085 6.17785e-20)
(0.105685 0.110686 -1.04052e-19)
(1.03307 0.195057 -1.2596e-20)
(1.02539 0.196091 -1.01099e-20)
(1.18833 0.103959 0)
(1.18589 0.111286 0)
(1.02989 0.0127455 4.25332e-21)
(1.03055 0.0133026 1.84706e-21)
(1.03054 0.0124792 5.50866e-21)
(0.99739 0.0286647 2.79127e-21)
(0.996491 0.027943 5.12433e-21)
(-0.190592 -0.00772513 -6.87084e-21)
(-0.220756 -0.00678071 3.66591e-21)
(-0.228228 -0.00639949 -1.97714e-20)
(0.315212 -0.0200539 0)
(0.303697 -0.0179357 -1.92308e-21)
(0.332749 -0.0251956 0)
(1.00165 0.0161687 0)
(1.00198 0.0158127 0)
(1.0076 0.000712451 -7.9661e-22)
(1.00805 0.000954971 -1.57415e-21)
(1.00763 0.00125664 1.35333e-21)
(1.13762 -0.00700735 0)
(1.2442 -0.00420342 -4.58936e-20)
(1.01667 0.0247913 -5.53973e-23)
(1.01695 0.0257332 -1.07247e-21)
(1.01772 0.0251911 -7.86944e-22)
(0.0167559 -0.0445778 2.47151e-20)
(-0.00721003 -0.0399164 5.90165e-20)
(1.02919 0.0123742 -2.21755e-21)
(1.02923 0.013172 0)
(0.304828 -0.0585901 -1.45819e-20)
(0.334178 -0.0606152 -1.58815e-20)
(1.04316 -0.00680453 -8.95607e-22)
(1.04266 -0.00736943 3.45666e-21)
(1.0434 -0.0074716 1.63552e-20)
(1.25468 0.318991 -2.75212e-20)
(1.24103 0.318702 3.50367e-20)
(1.24729 0.332621 7.89679e-21)
(1.09077 -0.0100648 2.20173e-20)
(1.09131 -0.00812799 1.46245e-20)
(1.09296 -0.00966253 -1.30622e-20)
(0.100487 0.343294 0)
(0.0985156 0.302858 -4.87016e-21)
(0.133989 0.319982 6.36734e-20)
(0.945961 0.0493862 0)
(0.945253 0.0459416 -1.13765e-20)
(1.27645 -0.059403 9.65287e-21)
(1.29887 -0.0590445 5.28979e-20)
(0.52248 0.321775 -1.17419e-19)
(0.495601 0.333258 3.00187e-20)
(0.524551 0.354633 -2.26222e-20)
(1.01233 0.108598 4.54065e-22)
(1.00952 0.105486 0)
(1.10219 -0.0735666 -1.69286e-20)
(1.10261 -0.0762874 2.02605e-20)
(0.979549 0.530366 -1.5707e-20)
(0.998264 0.548959 1.27624e-20)
(0.967538 0.555163 3.84454e-21)
(0.998862 0.0448635 0)
(0.997328 0.0444882 3.28894e-21)
(0.997859 0.0462635 0)
(0.429048 -0.0474087 0)
(0.393799 -0.0417157 6.30224e-21)
(0.408404 -0.0429331 6.99329e-21)
(0.579931 0.0639719 -1.24094e-21)
(0.558973 0.0559801 0)
(0.188244 -0.0234484 0)
(0.163187 -0.0192211 0)
(0.92196 0.0234177 -6.59803e-21)
(0.918328 0.0248817 -1.61107e-20)
(0.921403 0.0275742 -2.54547e-20)
(0.459343 -0.0162245 0)
(0.427646 -0.0124465 9.3917e-21)
(0.462758 -0.0155906 5.89914e-21)
(1.07445 0.081226 0)
(1.07721 0.0843887 0)
(1.07782 0.0805637 0)
(-0.0939819 0.00632952 -8.87755e-20)
(-0.0558595 0.00660751 4.29949e-20)
(-0.0412744 0.00449557 -2.18075e-20)
(0.527834 0.289991 0)
(0.554325 0.31255 -5.16566e-20)
(0.948001 0.364404 4.8969e-21)
(0.930533 0.362598 -5.43712e-21)
(0.940963 0.380543 3.84294e-21)
(0.96715 0.369237 -2.80261e-21)
(0.957428 0.350489 0)
(0.874811 -0.0884526 -8.7607e-21)
(0.843932 -0.0891273 0)
(0.999796 0.00307498 -4.82526e-21)
(0.999738 0.00342364 -7.2253e-22)
(0.999767 0.00345309 -4.91333e-21)
(1.06973 0.171478 1.60098e-20)
(1.06723 0.179162 2.05451e-20)
(-0.113111 -0.0154359 -5.69522e-20)
(-0.132686 -0.0135027 7.37747e-20)
(0.984273 0.0316953 5.57844e-21)
(0.983423 0.032623 9.13695e-21)
(0.982974 0.0309981 4.51137e-21)
(1.00665 0.0739366 5.04402e-22)
(1.00725 0.0714814 -3.15215e-21)
(1.00453 0.0722111 -2.26652e-21)
(0.199427 -0.0194425 1.0276e-21)
(0.210502 -0.0198927 1.15692e-21)
(0.864857 0.502969 4.01391e-21)
(0.89917 0.510592 1.24431e-20)
(1.01978 0.0513728 7.29417e-22)
(1.01988 0.052966 1.18458e-22)
(1.02167 0.0522237 1.08502e-21)
(1.07685 -0.0905373 -2.38961e-20)
(1.07494 -0.089078 9.06911e-22)
(0.697427 0.582049 3.79346e-20)
(0.723709 0.552271 4.67558e-21)
(1.00972 0.00520309 0)
(1.01016 0.0054508 7.40645e-22)
(1.01008 0.00495563 1.5546e-21)
(0.382338 -0.015905 1.08645e-20)
(0.357346 -0.0105993 -1.54411e-20)
(1.06444 -0.0845773 -1.01106e-20)
(1.06059 -0.0844348 0)
(1.06437 -0.082772 0)
(1.00226 0.00559228 -1.05321e-21)
(1.00249 0.00573523 -9.98823e-22)
(1.01062 0.0133955 2.42017e-22)
(1.0101 0.0130609 -2.86341e-22)
(1.01029 0.0136794 -7.67452e-23)
(0.998401 0.000885412 0)
(0.998655 0.00106469 3.08352e-23)
(1.02451 0.0101063 2.32789e-21)
(1.02386 0.00973143 0)
(1.25412 -0.0434396 4.50274e-20)
(1.25091 -0.0494679 -6.54574e-21)
(1.04518 -0.143267 -1.15352e-21)