/*--------------------------------*- C++ -*----------------------------------*\
| =========                 |                                                 |
| \\      /  F ield         | OpenFOAM: The Open Source CFD Toolbox           |
|  \\    /   O peration     | Version:  v2012                                 |
|   \\  /    A nd           | Website:  www.openfoam.com                      |
|    \\/     M anipulation  |                                                 |
\*---------------------------------------------------------------------------*/
FoamFile
{
    version     2.0;
    format      ascii;
    class       volScalarField;
    location    "300";
    object      k_0;
}
// * * * * * * * * * * * * * * * * * * * * * * * * * * * * * * * * * * * * * //

dimensions      [0 2 -2 0 0 0 0];


internalField   nonuniform List<scalar> 
13851
(
0.000159364
0.0291592
0.000209213
0.000158315
0.000205849
0.000184893
0.000149634
0.000192448
0.000139302
0.000218239
0.00300911
0.0244948
0.045077
0.0166105
0.000144394
0.000181221
0.000164576
0.000171963
0.0210676
0.000139094
0.000157803
0.000207871
0.000171641
0.000148847
0.000176008
0.000193458
0.000161457
0.0015847
0.000159047
0.000163235
0.000191404
0.000165436
0.000207898
0.0039884
0.000148378
0.000546125
0.046453
0.000522013
0.000222276
0.00361457
0.000148647
0.000138619
0.00426475
0.00329125
0.0033481
0.0192897
0.0036563
0.00577425
0.000162091
0.00368682
0.000200252
0.000218147
0.00685964
0.00014665
0.000152455
0.000139178
0.000149508
0.00921569
0.000162515
0.000150457
0.000143112
0.0420252
0.000193753
0.000209998
0.000240629
0.000162744
0.0529358
0.00343454
0.000177936
0.000171632
0.0243775
0.0642594
0.0291041
0.000147655
0.00014218
0.000142792
0.000206838
0.02892
0.000190733
0.0264354
0.000152492
0.00197148
0.000145698
0.0145608
0.000194698
0.0212844
0.000179162
0.000165497
0.000165209
0.000164436
0.000526057
0.00016427
0.00304072
0.000169823
0.000164567
0.000153523
0.000206251
0.051456
0.00466914
0.000153931
0.0151658
0.000191365
0.000155525
0.000159559
0.000156124
0.000180431
0.000193781
0.000136211
0.0718493
0.000185311
0.000151311
0.000166499
0.000163726
0.000156155
0.000150886
0.00967769
0.0536606
0.000134419
0.000150136
0.000153821
0.00418159
0.000159336
0.0474229
0.00388008
0.00280292
0.0001752
0.00202461
0.000191188
0.000157072
0.000223099
0.000148308
0.000138945
0.0296248
0.000145517
0.00857954
0.000140382
0.000134365
0.0620604
0.0342772
0.0291481
0.0151598
0.000153392
0.000162468
0.00015125
0.00015983
0.00324989
0.000160591
0.000232563
0.000149351
0.00331143
0.000197504
0.00015139
0.0164446
0.000150822
0.000157829
0.000159575
0.000143628
0.000159643
0.000224371
0.000200201
0.000143538
0.000168675
0.00884161
0.000138769
0.000172193
0.000144312
0.00016234
0.000178351
0.000156625
0.0334907
0.0247142
0.000137649
0.000143943
0.028942
0.000138666
0.007578
0.00019039
0.000161486
0.0257959
0.000137662
0.000167505
0.0659526
0.000145109
0.000209651
0.000137403
0.000165734
0.00016319
0.000149156
0.000210055
0.000222192
0.00352229
0.00780661
0.000176308
0.000178761
0.0435845
0.000157303
0.000159976
0.00383983
0.00016039
0.000143174
0.000175061
0.0281256
0.000154449
0.000145241
0.000211167
0.000145383
0.0492481
0.000164763
0.0466108
0.000140084
0.0677116
0.000155018
0.00497486
0.000136572
0.000148695
0.00343051
0.000192889
0.0180086
0.000143731
0.048657
0.000165217
0.000152787
0.0615209
0.000220578
0.0661393
0.000171598
0.000173335
0.000158692
0.0101062
0.000136957
0.000192436
0.000216583
0.000137537
0.000173613
0.000196625
0.000188052
0.0489374
0.000249408
0.000150981
0.000145441
0.000189971
0.00499622
0.000150852
0.000215082
0.000153497
0.0613323
0.000192277
0.00490593
0.000160017
0.000167504
0.000175828
0.00508375
0.000153406
0.000160253
0.000190376
0.000249767
0.000220467
0.0638334
0.00803241
0.000145119
0.000148956
0.000169735
0.000395062
0.000154504
0.0336055
0.000157276
0.000153156
0.000168898
0.0617544
0.0027249
0.000176424
0.000157866
0.000227559
0.000189115
0.000179978
0.00013909
0.00210625
0.00207357
0.0691474
0.00300576
0.000150596
0.00013887
0.000154095
0.000189186
0.000435782
0.0127486
0.00014063
0.000144437
0.000226659
0.0011609
0.000148899
0.000161549
0.000150621
0.00018097
0.00111098
0.0315423
0.000170926
0.018924
0.000139371
0.0626853
0.000167972
0.000164356
0.0690773
0.000152038
0.000181934
0.0617066
0.000140303
0.000185684
0.000170115
0.000160782
0.0385585
0.000171332
0.000153146
0.058799
0.000139969
0.000168127
0.000182541
0.0709008
0.000216749
0.000143857
0.000191541
0.000144064
0.0207243
0.000178207
0.000169342
0.000147611
0.000215867
0.000172125
0.000157321
0.000144433
0.000151855
0.000152908
0.00314227
0.0160447
0.0370986
0.000175712
0.0707628
0.0425227
0.000143958
0.000179786
0.000147054
0.00016543
0.000193969
0.000218666
0.0229116
0.000161356
0.000859574
0.0623979
0.000144683
0.00131374
0.00153405
0.00309926
0.00015725
0.000195184
0.010437
0.000144449
0.00113236
0.00014749
0.000144074
0.000149973
0.000136542
0.000142566
0.0643322
0.00503064
0.000148148
0.00018454
0.000142631
0.0186043
0.000189168
0.0121259
0.0363583
0.00014851
0.000195216
0.000170624
0.0129347
0.000147024
0.000134515
0.000167871
0.0143287
0.000145521
0.0425071
0.000165213
0.000215925
0.0278428
0.00251134
0.00247406
0.000175368
0.000139718
0.000151767
0.000173592
0.000191024
0.0154465
0.000177963
0.0680453
0.0621989
0.000142824
0.000145293
0.0344762
0.0306394
0.000211817
0.0555126
0.000168761
0.000171838
0.000160035
0.038787
0.000138392
0.000180167
0.000173261
0.000148983
0.000156474
0.000140047
0.000144103
0.000208769
0.000194348
0.0282239
0.000172327
0.000193215
0.000170368
0.00508272
0.000170006
0.00304261
0.000163598
0.00363011
0.000134385
0.000139772
0.000168327
0.00337543
0.00254476
0.000223366
0.000169904
0.0218106
0.00413275
0.000178409
0.000155593
0.000196957
0.000146584
0.00527709
0.000160247
0.00910896
0.0069477
0.0002063
0.043015
0.000162383
0.00151422
0.00719914
0.0149088
0.000135713
0.000174228
0.00019135
0.00268098
0.000137832
0.000153076
0.000195803
0.000217249
0.000178208
0.0260951
0.000170626
0.000148448
0.00786443
0.000173469
0.00013823
0.000523621
0.000139582
0.000159272
0.000138082
0.000189697
0.000158087
0.000139209
0.000161733
0.0589951
0.000145992
0.000180402
0.000139995
0.000165795
0.00381036
0.0001576
0.000148218
0.000156212
0.000156164
0.00809732
0.000152919
0.00018187
0.000144899
0.000158614
0.0172942
0.0405116
0.000145853
0.000166359
0.000170069
0.00485268
0.0155163
0.000148552
0.00571598
0.000147443
0.000206803
0.00014977
0.0121761
0.000136462
0.00660695
0.0002207
0.000138822
0.000165935
0.0422592
0.000193734
0.00125643
0.000148964
0.000854497
0.000156332
0.000138135
0.00013921
0.000148617
0.0367221
0.000197773
0.000207244
0.027569
0.000192132
0.000144706
0.0498272
0.00387412
0.000167688
0.00016918
0.00511125
0.00260967
0.0685382
0.000154297
0.0127437
0.018618
0.0264044
0.00017276
0.000166176
0.00804832
0.00180001
0.000245306
0.00392905
0.0226011
0.00016031
0.0260466
0.0614651
0.000134802
0.00175021
0.000198287
0.0333945
0.000160671
0.000143845
0.000143206
0.000146979
0.000209171
0.000186615
0.000222952
0.025675
0.000139271
0.00679864
0.0422848
0.00019767
0.00560995
0.000180002
0.000137033
0.000139569
0.000166544
0.0521225
0.000158145
0.000203366
0.000781703
0.000139006
0.000173049
0.00200274
5.07894e-06
0.000218245
0.0386816
0.062775
0.000147881
0.000149042
0.0221467
0.0610539
0.000203482
0.000177575
0.000197273
0.000137307
0.000143426
0.0117892
0.000138052
0.000160424
0.000137506
0.000139847
0.0625632
0.000208798
0.000168062
0.000137942
0.0465629
0.00389391
0.000139695
0.000148688
0.00015453
0.000150781
0.0138919
0.00470022
0.00503172
0.0266829
0.000811868
0.000175443
0.0273524
0.0424703
0.00016143
0.000178716
0.000136998
0.000181954
0.000182989
0.0580865
0.000681364
0.000203087
0.00017291
0.000138708
0.000180802
0.000160196
0.00157813
0.000201258
0.00014468
0.000176678
0.00013773
0.000168182
0.000226636
0.00015014
0.000146169
0.00018911
0.000150592
0.00020646
0.00222169
0.000224986
0.000181603
0.000201279
0.000138539
0.000203982
0.000176664
0.0248664
0.000154682
0.000152324
0.0704429
0.000161214
0.0256178
0.0612182
0.0154617
0.000397092
0.000138216
0.0671471
0.000151946
0.000139741
0.000136424
0.000139898
0.000157041
0.000173288
0.000187087
0.000137208
0.0402547
0.000222299
0.0427899
0.000142085
0.000138956
0.000159046
0.000175131
0.0446186
0.000190014
0.000168719
0.000152782
0.0001585
0.000143549
0.0001446
0.0258381
0.0314867
0.000150323
0.000137129
0.000148707
0.000144448
0.00105231
0.00813589
0.0001816
0.0477956
0.00111617
0.000145766
0.000210303
0.0148219
0.000180291
0.0257453
0.000152462
0.000170068
0.000189547
0.000170492
0.00440995
0.000145569
0.0065046
0.000160531
0.000171501
0.0472788
0.000145441
0.000158957
0.000195886
0.000138225
0.000166245
0.000274167
0.0229891
0.00020087
0.0275308
0.00256148
0.000136729
0.000141732
0.018307
0.000172846
0.000190564
0.0623821
0.000140465
0.000169649
0.000134832
0.000605136
0.0509757
0.000167487
0.000153262
0.00391244
0.000162266
0.000158123
0.006745
0.000259018
0.0495315
0.000139703
0.000150163
0.0283126
0.00491192
0.000248134
0.000158556
0.0694453
0.00014566
0.00383362
0.000231519
0.000208407
0.000165489
0.0158676
0.000177838
0.000163048
0.0417547
0.000151341
0.000154595
0.000158737
0.000138428
0.00785913
0.000178643
0.000218719
0.000167768
0.0029564
0.000138868
0.000292264
0.000148105
0.000178161
0.000140499
0.000145036
0.000145329
0.0603578
0.000142917
0.000135747
0.000399084
0.000149468
0.0345112
0.000166669
0.000160856
0.000197915
0.000893197
0.00398997
0.000140356
0.00020161
0.0496395
0.000153164
0.0649934
0.000171095
0.00013821
0.000198951
0.00507068
0.000197255
0.000168146
0.000140084
0.000136318
0.00673112
0.000212437
0.000204735
0.000169928
0.000200315
0.000151743
0.000159999
0.000202037
0.00360674
0.000209505
0.000646491
0.000149837
0.000206999
0.000204181
0.0718062
0.000167063
0.0431136
0.0233724
0.000149493
0.0201329
0.000201259
0.047656
0.0198275
0.0572136
0.00489426
0.000189935
0.000138285
0.000172664
0.00998408
0.0161179
0.000146615
0.000163322
0.000197836
0.000260112
0.000138048
0.00649179
0.000140067
0.000147892
0.00835751
0.0285048
0.00248345
0.000139617
0.000144179
0.00574908
0.0218274
0.000218048
0.000157809
0.0417169
0.000359932
0.0459621
0.000193644
0.000184151
0.000153255
0.000149604
0.0249432
0.000187222
0.0293925
0.000172779
0.00017755
0.00870168
0.046745
0.0379314
0.000146838
0.00017321
0.000139546
0.000182476
0.000158653
0.0322117
0.000169557
0.0523676
0.000137433
0.000197497
0.000144407
0.000187397
0.000176301
0.000172865
0.0488282
0.000185375
0.000191774
0.000150342
0.000197857
0.0110017
0.000198375
0.000160808
0.0245248
0.000153907
0.0164423
0.00579731
0.000151583
0.0670518
0.0149055
0.0372137
0.00465456
0.000172903
0.000146476
0.0474684
0.000170692
0.0115008
0.0468747
0.000142168
0.0001562
0.00360209
0.00398885
0.0364814
0.00015032
0.000145355
0.027779
0.0467149
0.000218863
0.00016697
0.000156179
0.00593149
0.0113272
0.000205597
0.000135748
0.000190321
0.000138352
0.000152354
0.0021495
0.000159052
0.0138595
0.00474322
0.000148239
0.000163157
0.000146815
0.000158962
0.0268954
0.0405925
0.000173443
0.0439606
0.00014425
0.000173742
0.000145757
0.000138499
0.000151377
0.000148029
0.0358004
0.000146036
0.000190009
0.000147166
0.000168435
0.00225297
0.00445041
0.000149003
0.0170136
0.000206946
0.0335659
0.000179646
0.000179526
0.0252484
0.000168
0.000186816
0.0304012
0.00193162
0.00752783
0.000187501
0.00317745
0.000154087
0.000184017
0.000191814
0.0380577
0.00014256
0.031522
0.000141453
0.000142381
0.0170357
0.000164154
0.0343598
0.000166203
0.00013937
0.000172108
0.00013954
0.000144235
0.000154904
0.000152106
0.0334327
0.000142452
0.0203656
0.0106792
0.000207016
0.0265469
0.000149201
0.000149866
0.000189698
0.000147325
0.000139253
0.000201854
0.000152078
0.000141218
0.000153579
0.000174482
0.0352777
0.0305316
0.000197612
0.0550244
0.029555
0.000143446
0.00300205
0.000172473
0.00014227
0.0067603
0.000186452
0.00496276
0.000142653
0.00354364
0.00391638
0.0124113
0.00013729
0.04437
0.000177414
0.000161419
0.000155866
0.000140054
0.0338816
0.000200487
0.012438
0.000144487
0.000145006
0.000937122
0.000151674
0.00172201
0.0055333
0.00107816
0.0273577
0.00544855
0.000164157
0.000147917
0.000194193
0.000166301
0.000159874
0.00023368
0.000189025
0.000152315
0.00015603
0.0295904
0.000141615
0.0342163
0.0418895
0.00838916
0.00397867
0.000154171
0.000149596
0.000152443
0.00212417
0.00629332
0.000137347
0.000159119
0.000144265
0.000202287
0.000139792
0.000143506
0.000153066
0.000177752
0.0465388
0.00018794
0.000176548
0.000145443
0.000188608
0.0368953
0.000153806
0.0220063
0.0262701
0.000201833
0.000143822
0.00018626
0.00014391
0.000171067
0.000151986
0.0287861
0.000217464
0.00238485
0.000159948
0.00391859
0.000144302
0.000158587
0.000152126
0.00229808
0.000607208
0.000142975
0.000177333
0.000194582
0.0401824
0.000157215
0.0132042
0.000157535
0.0492458
0.000211543
0.0657232
0.000202556
0.000202241
0.00210652
0.0443253
0.00541696
0.0306281
0.000152063
0.000245098
0.000139517
0.000161067
0.000165696
0.000151099
0.0439313
0.000174998
0.000169952
0.00516699
0.000319863
0.00654312
0.00014395
0.000160172
0.000168606
0.00015082
0.000173975
0.0309748
0.00042434
0.0118371
0.00014135
0.000168063
0.000158337
0.00330911
0.0568783
0.000194035
0.000149608
0.000151584
0.0133446
0.000192747
0.0191268
0.0494996
0.000226472
0.000143527
0.0537467
0.000173046
0.000188764
0.000171579
0.0662061
0.00161784
0.000227694
0.0002056
0.000155917
0.000164934
0.000147763
0.00730574
0.000191366
0.0419311
0.00379346
0.000165537
0.000206291
0.000157339
0.0669003
0.0227109
0.000159807
0.000285269
0.0493778
0.000292478
0.0691242
0.000147251
0.000148452
0.027655
0.038635
0.0117835
0.000156696
0.000148889
0.000148372
0.0354352
0.000168397
0.000152038
0.000191237
0.000213578
0.0453396
0.0513895
0.0141206
0.000145254
0.0679292
0.000163228
0.000147963
0.000202367
0.0435696
0.000149746
0.000141354
0.00369124
0.0656383
0.000174988
0.000141235
0.0318724
0.000158169
0.000166609
0.00014135
0.00137278
0.000148521
0.000190488
0.0159835
0.0579491
0.000156216
0.0050138
0.0048613
0.0382774
0.0344309
0.0489761
0.000200251
0.000143816
0.0202107
0.00015737
0.00014406
0.000150943
0.00477974
0.000145417
0.0428089
0.000141627
0.000163012
0.0273448
0.000205573
0.00945874
0.000158291
0.000229286
0.000139076
0.000176012
0.0584457
0.0165475
0.000140101
0.000198824
0.00663291
0.000151815
0.000140531
0.0481686
0.000179155
0.000183943
0.000210244
0.0253466
0.000843644
0.0565164
0.0681026
0.000196915
0.00314404
0.00605441
0.000155413
0.000199285
0.000143846
0.000207237
0.000143824
0.000143265
0.0306425
0.0478781
0.00015972
0.0135995
0.000204416
0.0333509
0.000198376
0.000184444
0.000146527
0.000204728
0.00340218
0.000173998
0.000156672
0.0631492
0.0519794
0.0113377
0.0673087
0.000187782
0.0559313
0.0649832
0.000175421
0.000148213
0.000144092
0.00138477
0.000142659
0.0249125
0.000153133
0.000153782
0.000160456
0.040705
0.0714008
0.0156242
0.000153313
0.0561864
0.000166058
0.000175227
0.000141826
0.000159846
0.00877178
0.000170729
0.0427639
0.0224568
0.00018618
0.000217564
0.000144864
0.00018993
0.000151717
0.000170387
0.000160068
0.000157805
0.000152805
0.000151685
0.000201515
0.000153972
0.000182938
0.000176574
0.000183856
8.42787e-05
0.027763
0.000144433
0.000190573
0.00016071
0.000199502
0.000247429
0.0478914
0.000248548
0.000174285
0.00016025
0.000154716
0.000225316
0.000147435
0.00309157
0.000144307
0.000144773
0.000159245
0.0587958
0.000168998
0.000161713
0.000163605
0.000173488
0.000193573
0.0564522
0.0296498
0.000180682
0.000147616
0.00217225
0.000144121
0.000144813
0.00295714
0.0529933
0.000167077
0.000176548
0.000223946
0.0587051
0.000152141
0.0001537
0.0498362
0.000156846
0.00269077
0.0308449
0.0728645
0.000148814
0.000291213
0.000144832
0.0647262
0.000215752
0.000189421
0.000218379
0.0163571
0.000155203
0.0718238
0.0206949
0.000151663
0.0423283
0.000202216
0.00015417
0.00908442
0.000149626
0.000147111
0.000139333
0.000284523
0.000229457
0.000285025
0.000158112
0.00015414
0.000171431
0.00341597
0.0393076
0.0711857
0.00535766
0.000153084
0.000216736
0.000232723
0.00879859
0.000210637
0.000275472
0.000142856
0.000163841
0.000140121
0.000237651
0.000185212
0.000144712
0.0312868
0.000245209
0.000178944
0.000170937
0.000140348
0.000173757
0.000200552
0.000182235
0.000756717
0.000199812
0.000205003
0.000205689
0.000219945
0.0276969
0.000198555
0.0703208
0.000144706
0.00014104
0.0212561
0.0183786
0.0079853
0.000186171
0.000148779
0.0281657
0.00589041
0.000145709
0.000166474
0.000140266
0.000184985
0.000199271
0.000643847
0.00759884
0.0365271
0.000156791
0.0467194
0.0245233
0.000145078
0.0002128
0.0317316
0.00821669
0.000160779
0.000198929
0.000136904
0.000159617
0.000174968
0.000166573
0.06908
0.0434982
0.00669974
0.0300703
0.000155922
0.000182388
0.000201558
0.000165135
0.000148786
0.000139721
0.0583702
0.000142241
0.0689766
0.000185268
0.000190615
0.000196621
0.0279643
0.0309021
0.0597568
0.000184631
0.000143631
0.000181735
0.0552185
0.0401979
0.000163856
0.000139861
0.000140731
0.000202295
0.000176442
0.000211795
0.0344992
0.000155443
0.00013965
0.000215142
0.00246193
0.0265059
0.0030673
0.000141355
0.000201741
0.000151192
0.0679271
0.000148192
0.0580343
0.000167714
0.000155172
0.000174295
0.00015059
0.000197332
0.000173911
0.000189964
0.011115
0.053394
0.000165165
0.000174998
0.000146213
0.0575818
0.0130629
0.000144682
0.000146856
0.00675035
0.000134471
0.0374217
0.00016375
0.000179205
0.000206802
0.000244233
0.000186369
0.000156095
0.000148888
0.000197351
0.06413
0.000143962
0.000221736
0.0146297
0.00233699
0.000261267
0.000181447
0.0358675
0.000163368
0.000142429
0.000144136
0.00446761
0.00464015
0.0097948
0.0122914
0.0371068
0.000163913
0.000217463
0.000141244
0.0215232
0.00596195
0.0611881
0.0104051
0.000170659
0.0266234
0.00320328
0.000183305
0.00015827
0.000150137
0.0421327
0.000167361
0.000196771
0.000158397
0.000152229
0.000138504
0.000151017
0.0525579
0.0287629
0.000177924
0.0140865
0.0375191
0.000163416
0.000145216
0.000141518
0.000163584
0.0560408
0.0353515
0.000167283
0.000165009
0.000325344
0.000210103
0.000188223
0.005491
0.000176568
0.0685991
0.000171724
0.00017334
0.000144581
0.0001584
0.000201394
0.00376984
0.00425524
0.0461891
0.000205888
0.0429
0.000171416
0.000163165
0.000174769
0.00743443
0.0195924
0.00180067
0.000188645
0.00016007
0.000147986
0.000142445
0.000144311
0.000139807
0.00661876
0.000174514
0.00734239
0.000179795
0.0485314
0.00697286
0.0626264
0.000185009
0.000165723
0.0117561
0.000188408
0.000366469
0.0440241
0.000138019
0.000193858
0.000169663
0.01355
0.00629666
0.000183336
0.000188273
0.00466204
0.000150891
0.000191279
0.00016928
0.0211942
0.00407937
0.000161857
0.00014906
0.00424206
0.000261754
0.000224629
0.0160543
0.000210804
0.000164213
0.000141734
0.00191541
0.0508529
0.000212611
0.000173662
0.0540885
0.0227791
0.000141523
0.000145925
0.000162578
0.0626714
0.0594938
0.000144528
0.0334319
0.000153386
0.000144546
0.000151869
0.0272547
0.000159113
0.000836036
0.00761129
0.000158887
0.000157712
0.000142485
0.00883642
0.00015244
0.0403587
0.000160155
0.029195
0.000151559
0.000143969
0.00022649
0.00621499
0.00684799
0.000184612
0.0361066
0.000148661
0.000149718
0.000146228
0.000191394
0.000199187
0.000198691
0.000183179
0.0648972
0.000162597
0.00023046
0.000211926
0.0228672
0.000149706
0.040648
0.0487996
0.000162566
0.00568423
0.000195368
0.0151947
0.000150863
0.000210258
0.000146027
0.000291668
0.0240176
0.000209197
0.0669976
0.000160994
0.000187054
0.000156998
0.0356114
0.000145568
0.000140066
0.00115563
0.000217487
0.0173786
0.0568637
0.00019409
0.000172947
0.000139307
0.00166543
0.000173272
0.00017803
0.000159828
0.000153773
0.00018713
0.000148119
0.00200642
0.000153611
0.00334794
0.00433125
0.000173328
0.000209773
0.000201607
0.0680056
0.000148815
0.0136005
0.0246491
0.000139069
0.00014628
0.000158723
0.000151806
0.000187049
0.000143837
0.0034007
0.000200017
0.00379301
0.000201458
0.000150942
0.000152841
0.000141375
0.0624888
0.000150086
0.000148082
0.0204709
0.000160335
0.0190193
0.0673778
0.000202498
0.000160851
0.000181467
0.000157533
0.000153377
0.000168227
0.000148339
0.000160901
0.00684608
0.0610802
0.0333645
0.000157355
0.00936286
0.000266784
0.000151822
0.00384354
0.0609848
0.000144545
0.000159671
0.000143535
0.0666055
0.0173161
0.00181711
0.000148309
0.000162271
0.000157063
0.000149339
0.000227552
0.000151515
0.000218127
0.00502155
0.0696336
0.000137957
0.000160815
0.000158765
0.0219908
0.000140422
0.015618
0.00785475
0.000250469
0.00360904
0.0358451
0.0242883
0.0001552
0.00361006
0.00498682
0.000154916
0.000139023
0.000141005
0.0666695
0.00786381
0.0110606
0.000172401
0.0687113
0.000150848
0.000180216
0.000150485
0.000160075
0.000154828
0.000137842
0.0191369
0.00015496
0.0321036
0.0204142
0.0149029
0.000194126
0.000189217
0.0166353
0.0634024
0.00014544
0.0045189
0.000140883
0.000135116
0.000144719
0.000341257
0.000155433
0.0114671
0.000171361
0.00417853
0.000184485
0.00757273
0.0132784
0.000217102
0.000137654
0.000202444
0.000211717
0.0185666
0.000150126
0.000139197
0.000157881
0.0310537
0.000151112
0.00405106
0.0104974
0.000185826
0.000201187
0.000150057
0.00523513
0.000151855
0.0576065
0.00013723
0.00618028
0.000173654
0.000149206
0.011101
0.0133089
0.000138441
0.000194384
0.000164388
0.0100209
0.00122631
0.000232966
0.00499419
0.000152254
0.000202576
0.0476829
0.00017004
0.00034083
0.000157008
0.000199801
0.000176373
0.00860168
0.0407014
0.000149777
0.0405532
0.000155831
0.000189356
0.0566652
0.0101779
0.000183492
0.0444138
0.000195968
0.000149082
0.00397468
0.000220635
0.000174022
0.000154888
0.0494243
0.000138986
0.0108872
0.0046427
0.000219318
0.000143725
0.000175336
0.0416347
0.000189609
0.0465093
0.000153685
0.00016157
0.000202779
0.0509207
0.000165112
0.0638005
0.000928168
0.0121134
0.000152027
0.0497013
0.0228641
0.0209899
0.000144742
0.000168516
0.000148577
0.0652872
0.000172061
0.00460831
0.0061419
0.000152697
0.000147232
0.000144558
0.020649
0.0653811
0.015607
0.0139425
0.000142159
0.0437148
0.0640258
0.000204254
0.00836033
0.0441431
0.00018139
0.0103012
0.000159122
0.000164399
0.0656155
0.0457015
0.000197643
0.0144673
0.000152749
0.000146456
0.045694
0.040871
0.0721077
0.0221017
0.000178221
0.000152529
0.000158227
0.0668031
0.0124602
0.000143801
0.000185929
0.00547609
0.000146402
0.000150568
0.058649
0.0304876
0.000159379
0.000144986
0.000154509
0.000157592
0.000343762
0.000151776
0.000146968
0.000167667
0.000255372
0.0359832
0.000193279
0.0460373
0.000150008
0.000165106
0.0499133
0.0642733
0.000172793
0.000205985
0.000143623
0.000182266
0.00015612
0.000209258
0.000206047
0.000145681
0.000437701
0.000180506
0.000141949
0.000164066
0.0287793
0.0246273
0.0374442
0.000146729
0.000168763
0.06631
0.00031348
0.000161427
0.000149272
0.000145455
0.00312805
0.000150767
0.000145231
0.000171755
0.000146034
0.049988
0.000189732
0.000152349
0.000163194
0.000146582
0.000151454
0.0226714
0.00411233
0.000200459
0.00925495
0.000194087
0.000152928
0.000143447
0.000149386
0.000148175
0.000151937
0.000158113
0.000213572
0.0556612
0.000155277
0.000218383
0.0377833
0.00383434
0.000147178
0.000140226
0.000159178
0.042801
0.000147496
0.00159006
0.0415332
0.000189283
0.000166672
0.0246687
0.000151943
0.00021174
0.000140022
0.000152597
0.000151443
0.00014472
0.000167511
0.0465309
0.000209556
0.000186533
0.000324853
0.00022508
0.000320564
0.000175789
0.0411534
0.00908648
0.000217222
0.0393305
0.0600943
0.000217863
0.00602679
0.000152006
0.000157747
0.0161152
0.000143534
0.000163396
0.0486735
0.00366607
0.0142102
0.000250601
0.000140098
0.000250768
0.000150172
0.000196042
0.000150114
0.00576759
0.0182603
0.0566354
0.0170692
0.000150424
0.000140357
0.0001996
0.0128982
0.0497928
0.000220582
0.0485165
0.000141051
0.055664
0.0403983
0.000187997
0.000162355
0.000150803
0.000148057
0.000160143
0.000150449
0.000149066
0.000162667
0.0482449
0.000202638
0.0423786
0.00370644
0.0107935
0.000767641
0.00014395
0.000149483
0.000158799
0.000141881
0.000151734
0.00286666
0.0336607
0.0157764
0.0678725
0.000158686
0.014498
0.000221712
0.0645908
0.0456278
0.000151058
0.000143325
0.00533985
0.000150635
0.000138786
0.00543634
0.0498999
0.054846
0.000147854
0.000150247
0.000169298
0.000186646
0.0235025
0.000140937
0.000161963
0.0255311
0.000148145
0.00557943
0.000186394
0.0465978
0.00015232
0.0343026
0.0133975
0.00018427
0.0659026
0.000218311
0.0423991
0.000149834
0.000166219
0.00014092
0.000175989
0.0298804
0.000173993
0.00771383
0.00015766
0.000143943
0.00014489
0.0660371
0.00018761
0.00021765
0.00504825
0.000140832
0.000193214
0.00983881
0.000202095
0.000160075
0.000155963
0.000150831
0.00018906
0.000148482
0.000143463
0.0662178
0.0705469
0.0644982
0.000241473
0.0210578
0.013481
0.000196832
0.0691851
0.00023202
0.000147558
0.000164573
0.000134451
0.000152281
0.0676094
0.0665601
0.000148693
0.00654648
0.0623931
0.000170875
0.000155135
0.0001731
0.0476123
0.0570652
0.0480506
0.000303993
0.0496061
0.000134711
0.0129215
0.000213023
0.00447084
0.0671724
0.000144926
0.000201467
0.0114225
0.000180592
0.0158634
0.000153512
0.00575887
0.0124661
0.0534066
0.00019838
0.0001781
0.0283643
0.000216225
0.0523672
0.0614462
0.0500132
0.000217826
0.0451537
0.000150487
0.000159755
0.00018936
0.0352254
0.00422649
0.0415555
0.000147404
0.000219898
0.000212946
0.000150027
0.061421
0.00014468
0.000207361
0.0346954
0.000144376
0.0395246
0.041909
0.058261
0.0478993
0.0095128
0.00253428
0.000145254
0.0683295
0.000157316
0.000153658
0.000186717
0.000161753
0.0480257
0.000162001
0.000171106
0.000162874
0.000143974
0.0313617
0.000158986
0.000218394
0.00387421
0.00013791
0.0394063
0.00021264
0.000156025
0.00890989
0.0227985
0.000143687
0.000215406
0.000154264
0.0625561
0.00486822
0.000149424
0.000214588
0.000159227
0.0696226
0.0490983
0.000200826
0.00458508
0.000164262
0.000145639
0.0475943
0.000160932
0.00014857
0.0529304
0.00018199
0.000140961
0.00014161
0.000232682
0.000158495
0.0351044
0.0151744
0.00388211
0.0148519
0.000189658
0.000202711
0.000146012
0.0701258
0.0270663
0.0196583
0.000144912
0.000146965
0.000202893
0.000177384
0.00380299
0.000148878
0.00613861
0.000147659
0.000257303
0.000144772
0.0045513
0.000200655
0.000217682
0.0402111
0.0196425
0.0597929
0.0476058
0.000135317
0.0443269
0.0489207
0.0328053
0.000145328
6.38645e-06
0.0273728
0.0131757
0.000216695
0.0185465
0.000284998
0.070919
0.000185172
0.017902
0.000137749
0.000189394
0.000183703
0.000144296
0.00019745
0.0165209
0.000241603
0.0141796
0.0558473
0.000143557
0.000140666
0.000168044
0.000144517
0.0183173
0.000140933
0.000140411
0.0715012
0.0231914
0.000179014
0.000212393
0.000149822
0.000215244
0.00901312
0.0485692
0.00971707
0.000164081
0.0489164
0.000156511
0.000141108
0.00015819
0.0421584
0.0344272
0.0101344
0.0263947
0.000155443
0.000141344
0.000144686
0.000152034
0.00016745
0.0161858
0.0529853
0.000173636
0.0626029
0.034689
0.0055038
0.0241231
0.000146972
0.000174641
0.000204792
0.00014573
0.000373622
0.000169372
0.000161934
0.0419811
0.0483303
0.000141439
0.000181561
0.000175243
0.000207251
0.0227642
0.0348306
0.0700154
0.000151199
0.000200265
0.0677298
0.00020097
0.000214169
0.00439942
0.0482415
0.0729626
0.0683046
0.000140032
0.0440959
0.000148167
0.000158331
0.000146464
0.000200866
0.0722071
0.0243697
0.0055429
0.0120575
0.00019927
0.000137971
0.000140043
0.000150429
0.000152363
0.000188073
0.0705764
0.0649845
0.000198791
0.000381478
0.000152376
0.000199571
0.00013835
0.0565235
0.000204963
0.000150669
0.000232572
0.000212017
0.00160337
0.0390501
0.000232092
0.00521655
0.000165218
0.0211189
0.0188178
0.0640521
0.00591251
0.000156319
0.000199809
0.000149607
0.0568246
0.00844227
0.000187963
0.0368521
0.0147889
0.0332668
0.000204571
0.000247984
0.000186997
0.000140913
0.000215579
0.000204733
0.000162588
0.000200112
0.000177207
0.000180141
0.0101255
0.000218042
0.000160075
0.00017701
0.000182782
0.000179693
0.00015609
0.0316642
0.000220318
0.00593527
0.0114668
0.000147488
0.0458203
0.000145172
0.000162548
0.000161238
0.0464878
0.000187234
0.0521273
0.0274522
0.000201565
0.000187345
0.000218329
0.0301491
0.000198107
0.00304413
0.000156989
0.00018569
0.000151446
0.0470034
0.00292007
0.000155513
0.000167384
0.000186425
0.000166445
0.000164107
0.000187689
0.000182013
0.000151057
0.000182133
0.0324852
0.0155779
0.000231542
0.000186256
0.000140678
0.0311056
0.00017677
0.000195128
0.000276479
0.000183846
0.00999425
0.000139383
0.0001694
0.000162043
0.00018123
0.000145691
0.0442218
0.00313715
0.0308343
0.000186116
0.0637379
0.0256481
0.00016562
0.0312177
0.000195928
0.0208208
0.011149
0.000188351
0.000162406
0.00018248
0.000204413
0.000159499
0.0274702
0.0380124
0.00651775
0.000140957
0.0301056
9.4413e-05
0.000188308
0.00014417
0.000188658
0.000146497
0.000177486
0.0341142
0.000175226
0.00017409
0.000141152
0.000140784
0.000140953
0.0423679
0.00014962
0.000153829
0.0165062
0.000138327
0.000477551
0.0465725
0.000219292
0.00021164
0.000145998
0.000170167
0.00022693
0.000162462
0.000144491
0.0471398
0.000174314
0.044738
0.000201909
0.000167337
0.0725595
0.00022133
0.000150069
0.000141589
0.00397507
0.000172298
0.000168695
0.0237602
0.000185547
0.000151757
0.000214129
0.000163482
0.000160303
0.000143071
0.00082613
0.000147269
0.000204237
0.0253919
0.000213332
0.000144157
0.00943659
0.000174408
0.0256826
0.00023476
0.0403069
0.000218412
0.0517837
0.000138679
0.000202872
0.000164933
0.000143206
0.0038184
0.00681269
0.000163027
0.000213505
0.000413877
0.000202283
0.0397686
0.000166392
0.00378953
0.00213717
0.0373559
0.02893
0.00025883
0.000500968
0.000139874
0.000205919
0.000184329
0.0164833
0.00643062
0.0567816
0.0313267
0.0648891
0.000140581
0.000276096
0.000144643
0.000155239
0.000150847
0.00313452
0.000212483
0.000213938
0.000143907
0.0146609
0.000170412
0.036986
0.000155673
0.0002062
0.0001737
0.000195712
0.000190684
0.000211304
0.000157804
0.000147437
0.000234833
0.000141957
0.0146566
0.0312191
0.000191116
0.00015702
0.00017563
0.00014689
0.000144664
0.000194606
0.00109631
0.00976844