/*--------------------------------*- C++ -*----------------------------------*\
| =========                 |                                                 |
| \\      /  F ield         | OpenFOAM: The Open Source CFD Toolbox           |
|  \\    /   O peration     | Version:  v2012                                 |
|   \\  /    A nd           | Website:  www.openfoam.com                      |
|    \\/     M anipulation  |                                                 |
\*---------------------------------------------------------------------------*/
FoamFile
{
    version     2.0;
    format      ascii;
    class       volScalarField;
    location    "600";
    object      omega;
}
// * * * * * * * * * * * * * * * * * * * * * * * * * * * * * * * * * * * * * //

dimensions      [0 0 -1 0 0 0 0];


internalField   nonuniform List<scalar> 
13851
(
0.251112
0.0269441
0.0267393
4.0333
0.0220854
0.0305166
0.0270563
0.0219189
4.16634
0.0220671
0.0930378
0.0220929
0.0221946
6.54689
0.0537593
0.225345
7.67206
0.0222236
5.8123
0.252064
0.0614926
0.0288078
21.771
0.0222638
6.86585
0.106888
3.43915
5.39378
4.28582
0.0218397
3.5146
0.0270715
0.245146
4.29315
0.0588283
4.3319
0.0222741
9.77837
3.59506
0.0222864
3.96724
4.38691
17.2815
1.00398
4.47046
0.0219872
0.0216073
0.223241
0.0248413
0.0221839
8.62313
0.0222413
0.225677
0.0419612
6.837
0.0222782
0.249987
3.9423
2.72977
7.63656
0.0220996
2.89165
0.0221086
0.0250683
0.293165
0.320027
11.4659
0.0714485
0.0224309
3.72206
3.67742
0.0758371
0.022111
9.22014
0.0456925
0.0249308
6.29352
0.021718
7.03137
0.021998
0.0224654
2.80053
0.0571262
6.47457
7.2362
3.53833
0.0292433
6.8826
0.0220647
3.51329
0.0222865
0.027295
23.8547
3.62086
3.76278
0.565919
0.0220064
0.238042
8.62424
0.308862
0.247175
0.0447343
0.0498662
0.0221738
0.0219887
0.0710886
0.0219886
3.59901
0.02729
0.0221684
0.0343812
0.0219886
0.360124
0.0954714
0.233101
0.0400174
0.0218149
0.0218588
4.25358
3.64811
0.339009
0.0219691
0.0223839
4.29223
3.38861
0.13668
0.0220068
0.0746332
4.04932
0.0712201
0.02872
0.0398133
10.4923
4.26631
0.0961463
3.73111
0.0684452
3.57098
0.0380224
0.0708403
2.18477
0.0229209
0.0220661
0.122719
6.25463
0.0244269
0.0217088
3.58474
4.16749
0.0777977
0.248481
0.328938
0.10231
2.36009
0.0223874
0.0220962
0.0221113
3.61035
0.0644605
0.0257216
0.022243
4.304
0.0699932
0.224379
6.79113
4.30795
4.3484
7.1421
0.0339244
4.80652
0.0221138
0.0218154
0.0903056
0.0221398
3.70895
4.29122
0.294355
0.0218039
0.0455992
0.278489
2.15424
0.947811
0.0330986
0.0706278
19.5081
4.15457
0.244563
0.0304498
0.0223156
0.0219073
6.46437
0.064329
11.1032
0.0306768
0.0242317
0.231217
0.234952
0.0226766
0.0226926
0.0789939
1.8771
3.79564
3.90534
0.053945
3.27338
3.86633
0.0239574
0.0701047
4.16742
0.0291219
0.222659
0.0223567
2.55342
0.0222372
0.060591
0.0261306
0.0221561
1.12396
0.0227579
3.6511
0.0217994
0.254266
9.29076
3.72067
0.0300742
0.0713007
0.022265
0.103093
0.0220398
0.0595902
4.50382
0.0298741
0.0291458
0.0221255
3.91178
0.021836
21.8901
3.88701
0.266619
0.0222515
7.07913
6.90903
4.53095
0.221071
0.0457143
0.17357
0.417444
0.0458065
0.529257
0.0371596
7.43225
0.270278
0.0218897
0.03082
0.237965
4.24784
5.15206
0.0219008
0.141086
0.0220622
0.345771
2.74218
0.0316555
0.0710997
0.275757
0.0220608
0.0467386
0.190072
5.28884
0.0220998
0.0221523
0.030135
4.35952
5.79055
0.0698624
0.0220111
2.81231
2.51654
0.205857
0.0703672
4.29826
9.26208
0.0323773
0.0475783
10.7582
0.0219838
0.0221099
0.212923
0.0788139
0.0218417
0.0222343
0.0220328
0.0220087
0.0457603
0.0221042
4.18528
0.064986
0.022132
4.26082
4.43827
0.0222844
0.257512
9.16282
0.023105
0.0223106
0.0679548
7.70061
4.0108
0.10274
0.0220748
4.88733
0.0221069
0.111789
7.21092
5.22872
0.0255081
11.4966
10.6353
3.50493
0.315092
0.047097
3.66437
4.0876
5.43824
0.0228308
5.277
26.3056
0.977992
0.832782
0.0239729
0.100355
0.0315808
6.16963
0.0530284
0.0218885
0.0215348
0.031981
3.56977
3.10323
0.0219747
3.77728
0.0318131
0.0401972
0.0260453
9.89107
2.067
0.23086
0.0256976
0.0281601
4.30933
0.0223302
3.4446
0.0321985
0.0679155
0.0320587
0.0220632
0.0221301
0.301515
0.363197
0.271205
10.9107
4.35576
0.0245571
3.89885
1.16985
0.0218143
5.19386
0.156016
7.12079
0.0311553
0.113291
1.87024
8.47868
0.271869
5.94441
0.0235275
4.53197
14.338
0.039781
5.63116
0.0445513
3.8767
0.0466529
0.059889
0.267172
0.624689
0.0220945
0.0313508
0.0849607
0.0459786
0.0220118
0.0708155
4.76292
0.022112
0.0704553
4.85966
0.0263936
11.2333
0.0677
4.19818
0.0301033
0.100804
2.73157
3.09105
0.069521
6.0846
9.08547
3.54393
0.0220598
0.2745
0.0444656
0.113058
0.021984
18.6553
4.64407
7.69494
0.0280949
0.277126
3.36648
5.52926
0.0216478
6.84143
0.931346
19.2177
0.0386889
5.72255
0.0220932
0.0221284
8.5238
3.54713
0.0220673
0.0270128
0.0718097
0.0218498
4.77405
0.101606
0.151936
0.0305088
0.0235525
0.0222407
8.86769
0.0221203
0.0222226
4.24574
4.82006
0.0279737
0.815147
0.0221143
0.0221022
0.0270577
0.273614
0.0665361
0.0220297
0.0240969
0.323011
0.0251947
4.49806
0.0220873
0.0343696
4.50541
0.0384613
0.0215939
0.0221308
0.0303204
0.0229655
3.47745
4.35148
0.0462537
6.829
0.0271758
0.0220755
4.12629
1.83665
0.0371564
0.0221513
4.12926
0.0362264
17.2302
0.0221728
0.0405187
0.283812
0.0495982
4.03939
3.39283
7.96343
0.0245705
0.346456
0.0220644
4.23852
0.0675429
0.235665
0.0442506
0.0253543
0.0384345
0.091096
0.0220962
6.12985
4.09738
4.7583
5.0691
4.34969
4.88127
3.28232
0.0291346
0.022213
17.5182
0.0220694
0.0220067
0.0315106
3.70662
0.0266414
0.0228857
0.116667
0.0679137
0.022067
5.08267
0.0220036
4.11594
2.8549
0.0219979
0.0254433
1.1992
5.24565
0.0218465
8.1201
18.1614
0.0218306
3.53806
5.46661
0.253558
0.0245227
4.24428
7.41132
0.02186
4.37872
0.0224008
0.0220074
3.7484
3.87197
0.0539868
0.0656017
0.0220691
0.0895585
4.08771
3.64047
0.022034
6.12008
0.0220204
0.0224375
0.0705012
0.0343085
0.0216413
0.0249335
3.5424
0.557905
3.56143
0.0259229
0.0220603
4.40381
0.0221873
0.281128
0.0343087
0.045887
0.0452149
4.61454
7.53723
0.0304433
6.8938
0.02504
0.0997772
4.42415
5.19083
0.0223574
0.0220673
0.0514089
3.56515
0.306084
0.0884953
20.2402
0.0345991
0.0447482
5.65251
4.9743
0.226859
4.09859
0.317516
4.42371
0.0231492
2.87788
5.85956
0.0220937
19.8076
4.19518
0.034079
0.0707878
0.0222292
6.44604
0.105851
13.2742
0.0221201
0.0221663
0.0271021
0.0664173
0.0220958
3.74139
0.0221608
0.314346
0.0246019
0.114765
0.0221673
0.0220675
0.0563903
6.53371
0.0689966
3.78165
0.0405171
0.0218611
0.0219137
0.090617
0.024078
0.167249
0.0274944
0.0362901
2.48805
0.0221887
6.16584
0.022255
0.154998
5.92225
4.45737
0.0296496
15.7719
0.111489
0.488807
4.12179
0.022145
4.74676
0.0318356
0.0415864
4.70696
6.83847
0.0218346
0.159182
0.0226395
4.34505
7.48119
0.0226057
0.0796305
4.73183
0.022265
0.0222545
0.109067
7.50892
4.12102
0.0223173
0.268839
0.0247717
0.0220701
2.60067
0.275965
0.291618
0.021617
0.191345
0.0509984
0.0928222
0.0228143
0.0239849
0.0982294
0.0269704
0.206399
0.0760545
0.0755471
0.180351
5.15935
5.6042
4.8024
8.48285
0.232972
4.95884
0.045214
3.89423
0.262025
0.0221286
0.0434214
3.91176
0.0305753
0.0219986
0.021992
0.156157
7.15424
0.034717
3.89128
0.021866
4.2268
0.194706
9.70445
0.15937
0.0303814
0.0267363
8.16197
0.289784
0.0434963
3.72303
0.0233055
13.6664
0.15649
0.314303
0.0426883
4.29541
0.0220928
0.0222472
0.0236492
0.0220703
4.3953
0.0220076
1.77921
4.33061
0.162598
3.64206
7.77213
0.305692
0.601134
0.0292001
0.0221844
0.0221283
0.0217246
0.0219103
0.0221421
0.101364
0.337215
0.0552381
5.39757
0.02401
4.15788
0.0222941
3.80047
0.0525568
0.0222843
0.0221403
4.43922
0.0307663
4.52349
4.23491
0.0673395
0.108551
0.0218065
4.22329
0.0254734
0.0266752
2.46948
0.0221883
0.0229319
0.022094
0.0678017
6.66541
0.0363568
0.043635
1.16405
3.68637
0.0298512
0.0285885
4.45523
0.0217196
4.41465
0.0222026
0.0252384
6.93233
0.132654
0.233107
0.142279
0.0696209
0.0222307
0.0222939
0.107291
0.0232542
0.0222375
0.0358519
0.86611
0.0219947
0.429201
10.9403
4.32457
0.138338
3.6299
0.0385089
0.0221805
0.261635
0.0218799
0.0314479
4.81875
4.35842
4.72778
4.52653
0.0227406
0.0225546
0.0830575
0.0237194
0.0219569
22.2884
0.329297
5.54238
0.15632
0.135365
0.0220782
0.0218469
13.7445
0.153073
0.0259054
0.0222546
0.23117
0.421484
3.87646
0.0223673
0.0221548
8.65702
0.0227798
0.0449014
0.0218513
3.71059
0.0219949
5.39232
0.0220921
0.232564
0.0566286
0.0825286
0.0433461
0.0221063
0.026999
0.0220291
1.31152
0.0228363
4.45768
0.0234487
4.90367
4.19478
0.040035
0.0220104
4.192
4.42999
0.0314207
0.13149
0.0221284
6.67896
0.0221729
3.196
0.022083
0.0220262
4.45758
0.0456433
0.0221219
0.0426306
3.96359
5.48607
4.62987
0.0218992
4.65276
0.0220941
0.0220009
0.0223882
0.021494
0.0222373
4.4738
4.82168
0.0227723
0.022157
0.054625
0.0219909
3.83316
0.273722
5.751
3.64609
0.0269123
0.207347
0.0220878
0.0613784
0.152485
0.0221213
0.022211
9.27868
7.56155
0.106336
16.5561
0.0980268
0.0221133
0.0568562
0.134553
7.74436
0.0434278
4.13177
0.157275
0.022226
9.22123
7.62077
5.14926
6.62485
3.61698
0.0245498
0.168091
0.0222206
4.90812
0.0298035
0.021891
4.51127
0.0238268
0.0220108
0.0223627
0.0235642
3.73232
3.54233
0.0219196
0.0580788
7.50245
0.0242438
15.988
0.0236003
0.126907
3.83726
0.0221076
0.44489
0.0342198
0.0421021
6.11852
0.0238166
2.43865
0.0993571
3.98616
0.0228122
4.82488
0.0389874
4.88949
8.43915
5.89221
0.0674392
0.0221178
0.0227489
0.0222648
0.0563985
0.0221338
4.02909
0.0320155
0.0290322
0.0295888
0.024487
0.0218915
0.0322342
0.0315728
0.0254459
0.0302319
3.99445
0.924141
0.0378703
0.0629551
4.58567
0.0229501
3.53979
0.0217273
0.0368831
0.0228442
0.0221261
0.0538368
0.0220714
0.0219131
0.047493
0.0221026
0.722889
0.0237584
20.748
5.43109
0.561209
2.28935
0.0224825
3.67381
0.309952
0.0222286
0.0312555
0.0227743
3.49447
0.0235352
0.0473071
5.16263
5.54325
0.115461
0.0225484
4.60295
5.15778
3.79086
0.034104
0.0218526
0.02201
0.103087
0.0221042
8.95736
0.307457
0.0222042
1.17393
0.832288
0.0220631
4.08297
6.04309
0.334341
0.0236432
4.60231
0.100244
0.0220354
7.31883
0.0285041
0.0220181
0.0220067
0.0430437
0.0571649
4.22498
3.547
0.0602702
4.32075
0.0466166
0.0220676
0.0898858
0.0219957
12.1086
0.0220602
0.022052
0.0251908
0.0231923
4.28568
5.68272
0.532515
7.69235
4.24089
0.0301828
0.022126
0.023761
3.44121
0.0220341
0.0220132
0.055609
6.8021
0.318162
0.0216733
0.0467518
0.0439332
0.258796
16.1345
0.0218282
0.0216263
0.0253675
8.28525
0.0358793
4.05779
0.0239446
0.0221655
0.0220285
0.0220052
0.0261123
0.317923
4.45256
4.37673
0.0296031
0.0220767
13.726
0.022971
5.66545
5.64705
0.0321662
5.24147
4.35686
3.57685
0.0822859
0.0429248
4.33767
0.0397626
0.0365963
0.0854422
0.551354
0.0231527
5.78114
0.0220696
4.77168
7.96689
0.0217318
0.0246323
0.0550478
1.9871
0.0457416
0.022145
0.034655
0.023406
0.0299635
1.56576
0.0221716
4.5104
6.60195
0.0220785
0.0408939
0.0569823
0.0220988
4.3017
15.825
3.6665
4.12832
0.0220603
0.026477
0.0301831
0.022413
0.361891
0.0464943
0.0222586
0.0972326
0.0264307
4.89888
0.0569573
9.21414
0.0233335
0.0242158
0.0525647
0.152863
0.112217
0.0220506
16.3061
4.63746
25.6383
4.45669
4.78991
4.28042
5.17727
0.0220485
0.02206
0.0223421
0.316485
0.0661898
0.110753
6.77039
0.0226938
0.021681
0.0220688
0.30305
0.0216976
0.0317333
0.0247203
4.33555
0.0233368
0.0218858
0.0221043
0.0220913
0.0221636
0.036571
0.405201
0.0367413
4.9249
0.0220625
0.02201
4.07444
4.27285
7.64197
4.20832
0.0526368
4.13952
0.0218461
0.0743412
0.0242117
0.0220971
0.0267716
4.7633
0.0243115
0.156188
12.9955
0.0228047
0.022105
0.0270945
0.318217
0.0222727
4.32188
0.02232
0.303458
0.0221341
0.0227619
0.0316215
0.11383
0.0222076
3.89124
3.61986
0.297052
4.33923
0.0220909
6.47528
4.89472
0.0220735
8.19888
0.0223983
0.0427593
0.0223135
0.0225843
0.0219772
0.0220653
0.0229027
0.0279828
0.105199
0.0226611
0.0221075
0.0651419
0.0218103
5.05618
0.0221336
0.0420577
0.0461635
6.13136
5.49662
0.0221576
0.316122
0.0218437
0.0395933
0.0908524
4.10658
0.071075
0.022273
0.183968
0.0828943
0.135126
5.56261
0.0386691
0.27711
0.0886031
0.106748
0.0233139
0.0219853
4.3803
4.61965
0.0267526
0.0220322
14.7233
0.0218729
0.0599585
0.0219963
0.112283
9.35573
0.0215677
5.72216
0.0303068
0.0221728
0.2784
0.0218903
0.0414798
4.0908
0.0550875
4.38996
0.0219731
0.0222658
0.0445602
0.0222304
0.0222482
0.0343577
0.0372979
0.105906
0.119914
0.0222121
0.0467289
0.0219558
0.0220815
0.0222204
0.0220759
10.5782
0.0221034
0.0236308
0.895551
0.0218668
0.0220212
4.36705
0.0222518
19.4992
0.0246297
4.5277
1.705
0.0561216
13.9233
0.09341
2.50412
0.0230108
0.481845
0.0309018
0.021968
0.0219881
0.0235866
0.0404163
0.0220763
0.069444
0.0219334
0.0242341
15.9842
8.513
6.39055
0.0266478
0.0503392
5.83708
3.89521
0.0221814
0.0311651
2.61033
0.022634
0.0519342
12.2271
4.39719
0.0328832
0.0627174
0.0233807
0.970398
0.0222861
0.0390948
5.62844
0.0223209
0.0219459
5.26258
0.0580668
0.681057
4.36714
0.158404
0.0226249
0.0219363
0.0228278
4.61923
5.87052
5.04817
0.0774445
0.0220778
4.9428
0.0221209
0.337554
0.0270997
0.0249199
0.0612334
0.0220791
4.13422
4.30149
0.02179
0.105308
0.0676555
12.3954
0.0603473
0.0873854
0.488094
0.0462619
0.627764
0.0920722
0.0221239
0.0494738
0.0876993
4.33145
0.0220571
3.99348
0.0645003
0.0924845
0.0222734
4.12703
0.0305004
0.0243545
0.0219654
0.0475649
0.0463178
0.0637575
0.0221335
0.0232098
0.0740955
24.8944
0.0843031
0.0221665
0.0228103
0.0493116
0.859723
0.0221802
0.126349
11.4892
0.0579077
4.54432
0.0563362
9.2022
2.66038
0.022053
9.64745
0.0222386
0.026953
0.0438079
0.0466983
0.166192
0.0683306
0.0506154
0.0540782
0.0390571
0.0253255
0.021689
0.0963367
0.0291551
0.030299
5.44349
0.0290331
0.033135
0.0219915
5.58891
0.117318
0.0222089
0.0274908
0.0234443
7.73754
0.287545
0.0438032
4.49348
5.40021
5.78504
0.153405
0.405463
0.0219373
0.339137
0.0219982
0.0273458
10.7375
4.30043
5.2826
9.53634
0.0221315
9.3988
0.0219339
0.131944
0.0267256
3.92941
4.41754
0.0300742
0.0220285
4.69972
0.0444696
0.0220501
4.01537
0.0220825
0.0244676
0.0291429
0.022298
0.0381561
0.0235709
0.0220802
0.0401742
3.09642
0.0570997
0.0843139
0.0220471
7.58242
4.34346
0.0220125
2.02869
0.0266342
0.0302948
4.97504
0.0220096
0.0230537
0.0292494
4.51169
0.0220567
0.0221846
0.0541952
3.6851
0.0219959
0.0345753
0.0384497
5.38252
0.0621721
0.0533215
0.971474
0.0220867
0.137795
0.021741
8.57823
0.036515
0.0220702
0.0323168
0.151569
0.0221533
0.0225972
0.268909
4.49172
0.0229463
8.01657
0.0221917
0.021733
0.0989946
0.0220558
0.022103
4.44907
0.0222751
0.0566376
0.26691
3.49003
5.3684
0.0220101
0.0243633
0.0290555
0.0220841
0.0221056
0.0221119
3.47373
0.0222014
0.380468
0.200393
0.0219372
0.0218292
0.0375124
0.199611
1.64568
0.0643497
0.0874222
0.0249308
4.19551
0.105616
0.0392569
0.0583204
0.0841154
0.147849
12.5529
0.0537913
4.338
4.92296
3.85965
0.0274383
0.0221187
0.0488444
0.0348113
0.021961
0.0229637
0.179853
0.0222448
0.0227449
0.0220725
0.0216217
0.0252461
0.0223727
6.4306
0.0220258
7.73488
0.0220916
0.112722
0.0232262
0.205643
0.102215
0.0221227
4.79457
0.0242241
0.0222298
0.0563845
0.0219396
0.0329316
0.0222256
4.48847
0.0256584
0.0581373
0.110582
4.82049
0.0310607
0.387734
5.50622
0.0640697
0.0224754
0.0240608
0.144185
0.0968693
7.78439
0.0218523
3.65866
0.022309
0.0975907
4.78729
0.0442097
3.71236
0.0273408
0.0425233
0.026217
4.17718
0.0378018
0.0221433
0.0598572
0.266004
0.0245757
0.0220663
0.0221459
3.60358
0.0222552
0.030051
4.2485
0.0276768
0.0220542
0.0726812
0.0269317
4.85236
0.0216816
0.0220662
0.0218969
0.0264619
0.0229781
0.0225008
0.0985435
4.15844
0.0220389
0.0221128
5.08286
0.0227538
5.29742
0.0254932
3.95655
0.0219769
0.0254008
0.0218434
4.48558
4.39518
0.0331717
0.0837236
0.027453
0.0220685
0.0221262
4.50169
0.0221382
0.130652
0.0218561
0.060671
0.0221971
4.9613
0.0218744
0.0653337
0.0219322
0.859885
3.75065
0.0219065
0.0525664
4.23506
0.10605
4.31007
3.65788
0.434016
0.023663
0.044849
0.155261
5.29871
0.0226406
0.0537321
0.0291725
0.022151
4.55745
3.87454
0.107023
0.309536
3.56148
0.0388316
4.43587
0.0219517
0.0218946
0.157319
4.61074
0.769654
0.300005
5.1032
0.0218494
4.18833
4.48275
5.39109
0.022204
5.68129
3.56881
3.73836
4.23764
4.26026
0.134011
0.0373396
0.35623
0.0262223
0.0221004
9.84604
0.153106
0.0216695
6.0255
0.0221947
0.0318445
0.0607245
0.0276862
6.58472
0.0372349
5.20892
0.0641723
0.0265638
4.93754
3.7869
0.263833
0.0224565
0.0262733
0.109828
0.0708382
0.0218599
0.0657534
0.0717049
0.268303
0.0220749
0.472558
0.0256247
0.0608533
4.39726
0.586461
0.0232543
0.200473
4.38373
0.0223143
0.0233993
4.6778
1.40784
0.0263403
0.0272584
0.0221064
0.0988095
0.0290572
4.41144
0.165313
0.0227553
0.0222238
0.071488
0.0330522
4.9952
7.13164
0.0219658
0.0220586
0.0318445
0.0221981
0.0262983
0.0235968
0.0236241
0.0264039
0.0220106
0.0262349
0.0222648
0.0691526
5.34159
0.022265
4.81562
11.1169
0.021742
0.322227
0.204309
0.119992
0.0230832
0.152389
0.0321491
0.0885886
0.0375699
0.0243624
0.0222102
7.52624
0.0338725
4.33942
0.0230299
0.0220689
0.0220468
0.0918719
0.022031
0.0715294
0.0928766
2.34395
0.0219612
4.955
9.51368
4.45905
0.0218406
0.248709
1.20289
9.1169
7.26531
0.0226559
0.0226317
0.270564
5.04306
4.24188
0.0569062
2.2918
0.0222316
0.0220114
0.0465684
0.0222014
0.0221759
0.312248
0.0222666
0.0988748
0.0219653
3.87008
4.8006
4.91233
4.39067
4.75063
0.0221952
0.0221564
4.58161
0.0218775
0.0219215
0.0217362
0.179423
4.22647
6.99238
0.0286514
0.0225269
0.0241198
0.0423891
7.30563
0.0220436
3.78227
3.87718
0.0221958
0.0221835
4.72968
0.122696
0.0247903
0.0220678
4.67575
4.7142
0.0222895
0.344216
0.0222553
4.32811
5.24644
0.025115
4.39503
6.33368
5.03535
0.0219371
0.0226402
0.0222479
0.0222865
4.2977
0.0220067
0.391422
0.550971
9.33301
0.0234774
0.0783111
5.31682
0.0672698
4.65749
3.54714
0.0216491
0.0294054
0.0297117
0.21321
4.59363
0.0216023
6.2749
0.0358695
0.0618763
0.023076
0.0219601
1.408
0.0513744
3.83304
0.0222009
0.0738526
0.023306
0.212932
0.0266115
4.14644
4.92013
0.48653
0.146867
0.0220609
0.0250071
0.139116
0.291777
4.36997
4.32952
0.022152
4.02385
0.104489
3.66007
0.0312451
0.0568172
0.0525261
0.0224336
4.93368
0.0220884
0.0432299
4.19235
3.90808
10.0701
4.12017
0.0310032
0.0702597
0.0218484
3.86137
0.0297777
5.99775
0.0218372
4.85348
0.0215741
0.0220313
0.0421168
0.0329902
0.0351904
0.0221143
4.35532
0.0634874
0.0220082
0.0462552
4.58391
0.991398
0.0220824
3.50636
0.0260268
0.0467247
0.0426376
0.0217123
0.0899712
0.0220267
10.3031
0.103208
0.0318492
0.0220604
1.62711
0.0541186
0.0218353
4.98419
5.95089
1.84624
0.0217642
5.32323
0.022152
0.239635
0.0334045
0.171128
6.37806
4.57815
0.035766
4.15949
0.0620339
0.0306879
0.0218887
4.89481
0.158826
0.168222
0.0640394
0.0222438
3.84972
0.129864
2.42102
0.580473
4.12064
4.31281
11.0332
5.04656
0.0313145
0.033331
0.022112
0.0224215
0.0216246
0.34249
0.0320697
0.0351213
3.56039
0.022002
0.0218838
0.0594158
0.26833
0.0337965
0.0218675
3.77093
0.0263278
0.0682163
0.0224491
5.48817
0.0302746
4.5274
0.0644203
0.0450868
0.067334
0.022106
6.81347
5.2443
0.100897
0.0222034
0.0219225
8.38362
3.5407
4.28326
0.0220436
0.102049
5.1454
0.0224053
0.0220236
0.0223514
4.19641
0.117946
0.0401122
0.0324734
0.0303418
4.80098
0.126086
2.65572
0.030815
0.0429251
0.0216163
0.185479
0.0731608
0.0220627
4.44353
3.53968
3.96235
4.44063
3.5656
4.675
4.48702
0.0233231
0.0220573
4.88243
5.47414
6.14651
0.0222394
0.0558871
0.0220737
0.0220357
3.30501
3.91269
0.0974298
0.0220324
4.05901
0.153648
0.0683486
5.20154
7.86385
2.50548
0.0219273
4.12032
3.12406
1.32138
0.0427518
0.0590668
0.0222384
0.0219232
0.0511518
0.0614632
0.0260668
0.0577127
0.0338621
0.0265181
0.304528
4.84634
0.0338866
0.0610825
4.53725
0.303886
0.0221203
0.519988
1.33143
5.05501
0.0536727
0.0225302
0.0369748
0.0304353
0.0324288
0.0217119
0.034254
0.0409093
0.0666172
0.433929
0.0222312
0.0239858
4.41144
4.54997
3.74771
5.3455
0.180582
0.0215502
0.022068
0.0381079
0.0218323
4.08808
0.0220683
0.0222747
0.0217765
4.43876
21.3339
0.022619
0.095842
0.0322418
0.0391296
0.037118
0.0366755
0.0566266
0.0471215
4.09973
0.0305184
5.23466
0.0490163
3.71657
0.0353977
0.0219457
0.0218782
0.155629
0.271982
0.0218525
0.0441495
0.0359424
0.0808368
4.31758
4.29733
4.79039
0.0222745
6.27328
0.0322811
0.0430221
0.0220608
0.0985346
0.0247909
4.33152
2.66905
0.0476344
0.0220969
4.53931
0.0278757
5.28871
5.70208
0.303857
0.0257179
0.234556
4.77616
6.0728
4.15517
0.0837811
0.0221611
0.0491621
0.02205
5.42684
0.0260601
0.0390243
4.19575
3.66587
0.0221005
0.0220718
3.83831
0.0543582
4.46633
0.0335666
0.0220687
0.057191
0.64021
0.0468148
4.1042
0.0424716
5.89922
0.0278323
0.0222478
0.0220602
0.777276
0.0228774
0.185407
0.0220841
0.0222435
0.55347
0.0304876
0.0224342
0.0220581
0.0422865
5.73668
0.0614281
0.0519622
0.0273183
0.0863015
0.0221691
0.249405
0.0385217
0.0600046
0.0753695
0.0337848
0.112286
0.0484053
0.0220154
0.105001
3.96106
4.07876
0.0225129
11.5895
5.14318
0.022052
0.0228365
1.1962
4.97613
0.0283805
4.94472
4.71069
0.0224211
0.13423
0.0216194
0.0300692
0.08809
10.1483
0.728186
0.307335
5.14178
4.40214
4.14482
0.0249215
4.27244
0.0220662
3.02768
4.27906
0.0221158
0.0220861
4.14748
0.0221736
0.0221024
4.58071
4.60396
0.759082
0.0304647
4.59661
0.0221061
4.57311
4.57704
0.0221918
4.3741
9.894
4.72382
4.27198
4.4198
4.27628
0.0219289
0.0234541
0.0896864
0.099167
0.0220974
0.304286
0.0220679
4.31065
3.88863
0.0536117
1.46503
4.22575
3.49625
0.314147
0.0639942
7.58625
2.56385
0.0286712
0.0216647
3.63042
0.0385653
0.0218662
4.01728
0.022049
3.88751
0.0222052
4.02633
0.0290996
0.0220385
25.4844
0.0280688
0.0380465
4.34813
4.93541
7.86024
0.0336282
0.0649103
0.0238491
0.0559207
0.22467
0.057401
0.0222133
2.25278
0.0912787
0.0374241
4.71094
0.0559976
0.0414546
0.344201
0.111291
0.0650751
0.0220352
0.464098
0.0218809
0.221145
1.89827
5.04398
0.0219036
0.0508008
3.89164
0.0246904
0.0925465
0.0404783
0.0558043
4.70064
0.0912616
0.0237407
16.7617
0.0219107
4.52397
0.0221353
0.0241258
0.215483
4.33747
0.0374447
0.439052
0.930322
0.0410213
0.0226582
0.196797
0.0603254
3.58487
0.0270341
21.2031
0.26519
0.0407705
0.0365574
0.142028
0.046656
0.0798664
0.091148
0.0425841
0.0263668
0.0225246
10.6485
0.0220882
0.0346979
0.0216187
0.180872
0.0356698
0.0906428
4.5861
0.0231626
0.838652
0.0215189
0.0222341
0.0221944
0.0222111
0.0312083
0.0219808
0.137437
9.27384
0.089978
0.0642491
0.0282418
0.0223024
0.479537
0.0221492
4.74564
4.9996
4.47393
0.241212
0.0413381
0.0325488
0.022186
0.031553
0.107833
0.0541186
4.40849
0.0891778
3.49563
0.243186
0.0222115
0.0218686
4.10606
0.0220582
0.0377895
0.0706437
4.1829
0.0248108
4.14294
0.0221794
0.0284887
0.0220747
0.0229299
0.196268
0.172909
0.0226152
0.0432152
0.0355274
0.0660848
0.0869996
0.780262
0.52962
0.643225
0.210504
0.0301345
0.0238882
0.0856527
4.34208
4.6265
4.54482
0.0420584
5.57782
0.167194
0.0237369
0.0220254
0.0939002
0.0221547
0.0428825
5.21036
0.0220276
0.0219541
5.6089
3.24485
0.0686718
8.71651
0.0221839
6.88197
0.0533943
3.72548
0.0306833
0.0221823
4.5895
0.0618745
0.0220921
0.0921058
0.0222557
0.246889
0.0346368
0.0569761
4.11602
0.0356092
4.9872
0.0219837
3.51929
0.0222154
0.0298609
0.0230071
0.0609061
0.0221468
0.0631705
4.51976
1.61881
0.0692103
0.0364014
0.084662
0.0220648
0.0220789
0.0242707
4.54749
0.0288986
3.99301
5.67657
0.22125
0.0222208
0.23559
0.441166
0.278869
0.0297333
5.38356
0.0220703
0.0215511
0.0220444
8.60031
0.0224182
0.0220913
4.55327
0.0220315
0.308264
0.118249
0.0219794
4.30335
0.0341047
3.99326
0.0221291
5.06484
0.0236392
0.0771352
5.82348
0.100194
0.0220094
0.032674
4.82464
0.0424691
0.248533
0.0401528
0.0296416
0.214132
0.0316709
0.0227525
21.4595
0.0357094
0.0345992
0.220162
0.022044
0.0219571
0.0221902
0.0397175
0.0222338
0.0275318
4.94833
10.6105
0.1169
6.23471
0.0934611
0.0464714
3.65359
3.49647
0.0226066
9.1091
7.31711
4.5455
10.2468
0.0388034
4.82844
4.57644
11.6515
9.96345
4.51774
0.0468866
0.0954443
0.0311927
0.0301905
0.0222504
4.1124
0.0222859
3.94648
0.149181
0.498671
0.0216075
0.116016
0.0505853
0.0237769
0.0222934
0.0221197
0.145643
0.0253797
0.0228251
0.0580165
3.61467
0.0266166
0.251686
0.0218597
0.145519
0.0942027
0.0222821
0.028917
0.0219816
4.06154
4.45878
0.322197
14.8552
0.0372285
0.141511
0.0221419
0.0597603
0.0221273
0.0227661
0.0222374
4.79277
0.0218555
0.0660082
1.63231
0.0306077
0.0402955
0.0220419
3.58282
0.413928
8.15562
5.51795
0.329872
4.53001
5.01164
4.35694
1.30248
8.11318
0.14906
0.0340808
8.10175
3.81385
0.0220705
3.87653
0.232377
4.69962
0.0216273
0.0961705
3.60769
0.0222742
3.95283
0.0257187
7.39464
0.0220964
0.0221386
0.0952808
0.28778
0.0316348
0.0918328
0.0219412
0.0225445
4.28117
4.86212
4.10105
0.0810729
0.0227234
0.0225779
0.0221448
0.0403299
1.49483
4.49757
4.88304
7.42977
0.039622
0.0219652
0.0219928
7.32562
4.36856
1.30624
0.0270731
0.026521
0.0929761
3.69115
4.43836
0.0215507
0.0220101
5.18197
0.0240582
0.3524
0.0292182
0.022223
0.0362975
0.0503771
5.55035
4.61001
0.022203
0.0219559
0.0270725
0.331278
3.66519
0.0222671
0.21097
4.56149
0.0215566
3.09544
4.6024
7.3165
0.0221222
3.89313
5.08204
0.0443432
0.430237
0.0275004
0.33687
5.37893
0.0293855
0.0220116
4.29586
6.61861
0.0219628
0.263085
0.251876
0.0381171
2.38022
4.67936
4.64521
3.73849
0.0346852
0.0237694
0.0245449
4.03135
5.40566
5.14417
5.17689
5.22152
0.0218163
0.0650287
0.0220731
0.0221212
0.0260916
0.0220011
0.0220805
0.0223024
4.66027
19.8124
6.97715
0.0653209
0.450766
0.0367566
0.0219464
0.0219949
5.19404
0.0221505
6.13016
4.5176
0.0221871
0.0220885
4.18969
0.0230233
1.00533
0.0292103
0.0217837
0.0218167
4.93584
0.0217273
3.61427
4.80552
0.0215974
0.0649865
0.0221016
0.0242151
0.0221487
0.157948
4.53476
0.0220023
4.05239
0.659106
0.0250118
0.0220843
0.0230046
0.0249459
0.022231
3.88235
5.96965
4.96778
0.0584316
4.07796
0.0222742
0.0301791
0.0227253
0.268275
0.0238863
4.84626
0.0218856
4.54169
4.80949
5.59764
0.264977
0.0218798
0.0557638
0.0220669
4.62064
0.0220816
0.0315068
0.0299803
0.0292526
0.0224315
0.022252
0.0346882
4.13513
0.0222676
0.0236821
0.0261839
0.0367574
0.316802
0.022195
3.90143
4.50862
0.0257507
4.47463
3.83058
3.81812
4.7381
0.0215526
0.0237002
4.21961
4.51632
0.235787
4.52627
4.64747
0.0365837
0.0685453
0.0404861
4.80673
0.0220632
0.0219768
4.89286
0.229767
3.75973
0.0280548
0.0217582
0.02207
4.22914
0.114175
0.0243064
0.364972
0.0220257
0.096812
0.0385846
0.0394256
0.0223884
0.0221948
0.0219624
0.0276819
1.95023
7.23025
0.0216065
0.0221033
3.72981
0.0222706
0.072952
0.0262207
0.0259115
0.0548842
0.0222862
4.6177
0.0384001
0.0255141
20.2753
0.139976
0.0238778
0.0441401
0.0220812
0.0229342
4.12908
0.317208
4.14964
0.0228543
0.0221639
0.0817139
0.0280301
0.0220594
0.0564517
3.56998
0.0280658
0.05059
0.0267402
0.213426
0.0221274
0.0218674
3.73153
5.05276
5.04151
0.0220498
0.3067
0.0217305
0.022054
0.107945
4.53215
0.107785
0.0335979
0.315243
0.0239678
0.0385578
0.0546343
0.869872
0.0228245
0.0216706
0.0227382
0.0244454
0.0330011
0.022008
2.12098
6.32276
0.0225248
0.0343199
0.0224992
0.0217841
4.2035
4.6422
3.87067
0.124038
0.0224652
0.0878528
3.81186
0.155054
0.159014
0.0363761
0.0315966
5.09195
0.876626
2.1104
0.0217928
0.0324521
0.0221628
0.0371218
4.06508
0.021642
0.0465611
0.0257766
0.0327776
0.0236309
0.0220005
0.0219051
4.45721
0.066125
0.0403853
0.106034
0.0384637
6.12789
0.0336935
0.57245
0.0219985
3.51417
5.57533
4.78093
0.0222648
0.0420016
0.0220889
0.022093
3.7036
0.0654498
3.48334
0.0220379
0.0481719
0.21278
4.34193
0.0292035
0.0217623
4.49138
0.0222861
0.0222847
0.0230531
0.0220618
3.89152
0.0219284
0.0219568
0.0404275
0.02831
0.186001
0.181145
0.0346913
4.22904
0.0224319
0.285595
0.0220046
3.47727
0.0387193
0.747848
0.263758
4.47853
0.186716
3.5463
0.0244883
4.29126
0.0348696
4.51491
0.308903
0.0284544
0.394659
0.0223368
4.18028
0.0245448
0.0450163
0.0282259
11.8685
0.252206
3.56229
0.0329134
0.0220709
4.68502
0.414667
0.0869988
0.264663
4.8766
3.56566
0.0444172
0.591056
0.0578957
0.021968
0.0590528
0.480658
0.0844978
30.8282
0.170257
0.021859
0.0222719
0.198044
0.0220909
5.07745
0.0836924
0.0221002
4.4644
6.47237
3.57522
0.148082
0.0223757
0.0301346
0.0262853
3.6506
4.46012
0.0263754
4.82893
0.0220527
0.0329959
5.95031
0.0220445
0.0505889
0.0219709
0.0291459
0.0222518
0.196702
5.18102
0.0313754
0.0312113
0.0218036
0.213358
0.0220614
0.0218942
0.0348643
0.0219683
0.368647
3.60465
11.8109
4.02667
0.0218638
3.52142
0.022196
0.0384668
0.19415
0.0225235
4.88972
0.0858753
0.0222062
0.0217613
0.0553804
0.042338
0.240562
0.302952
0.0261968
0.0249784
4.15141
0.0982427
2.54866
3.19582
19.7612
4.29628
3.48648
8.46878
0.0222215
0.0221199
0.056523
0.0224487
0.0638987
0.054373
6.1589
3.50811
7.88381
0.0218363
0.0219141
0.166337
4.37979
3.51477
10.0093
4.44183
0.0564974
0.0343616
9.16379
4.8468
0.0320125
3.66144
0.0350946
0.0389735
4.16598
0.0620309
0.0223826
4.80773
2.09415
0.0280051
0.210693
0.0239936
6.01248
4.5456
5.87408
0.0220575
0.0217155
0.252917
0.0220551
0.0222201
0.0220558
0.0217849
0.0220583
0.0220613
3.50048
0.0306241
0.0499431
3.76862
0.0219437
0.0220675
0.0409583
0.0308236
0.0314986
0.0220728
0.0839919
0.0341292
0.0271586
0.0981372
4.65702
0.0220817
0.0604203
0.022092
0.0220653
0.0216211
0.0221027
3.7731
0.0220945
0.0220803
0.0221142
0.051554
3.95101
3.88955
3.53313
10.3902
0.0639888
4.38993
4.35016
0.0219915
0.0454428
4.99292
0.359996
0.0221264
0.0358423
0.0660436
0.0392263
0.0220788
0.0608623
0.0602627
0.0471968
0.0216591
0.0685568
5.95771
0.021602
10.1452
3.76013
0.0461109
0.762464
0.0414984
0.0221073
0.0296958
0.0220756
0.322123
3.55583
0.0217903
0.0478535
0.0220377
0.0219904
0.0223784
0.0222864
0.0415569
0.0221811
0.179924
0.223586
0.0284647
0.0260698
0.0614482
0.0220726
0.0471198
0.0458988
0.0228219
0.0221183
0.0221501
3.84341
0.0220832
1.80079
0.0630696
0.0222562
0.0221532
0.0219551
5.05651
0.0274447
0.0449841
0.0663498
3.58488
0.0289922
4.00411
9.53174
0.0454465
0.0220201
0.739248
0.0476909
5.70808
0.0910867
3.4956
0.0218078
0.0616539
0.059528
4.00642
0.0220746
0.0661993
3.60638
0.0219547
4.75494
6.67534
4.47343
0.0220469
0.021975
4.01885
0.0220736
4.15317
0.335667
3.64146
4.96564
0.0219061
0.456334
0.822732
4.80887
0.0262704
8.99348
0.0229796
0.0283804
0.0220971
4.69982
5.11526
0.0525343
4.69511
0.0220847
3.54162
4.25181
4.86886
0.0219728
0.0220875
3.61974
0.0953176
0.0219502
0.0220691
1.19907
8.38366