/*--------------------------------*- C++ -*----------------------------------*\
| =========                 |                                                 |
| \\      /  F ield         | OpenFOAM: The Open Source CFD Toolbox           |
|  \\    /   O peration     | Version:  v2012                                 |
|   \\  /    A nd           | Website:  www.openfoam.com                      |
|    \\/     M anipulation  |                                                 |
\*---------------------------------------------------------------------------*/
FoamFile
{
    version     2.0;
    format      ascii;
    class       surfaceScalarField;
    location    "350";
    object      meshPhi;
}
// * * * * * * * * * * * * * * * * * * * * * * * * * * * * * * * * * * * * * //

dimensions      [0 3 -1 0 0 0 0];
oriented        oriented;


internalField   nonuniform List<scalar> 
20537
(
-0.00205762
0.000205169
0.00187016
0.00255336
-0.00199674
-0.000555044
-0.000429423
-0.000871271
0.00130642
-0.00304749
0.00148478
0.00157913
0.000603593
0.000635999
-0.00123254
0.00180929
0.000393701
-0.00219702
-0.00071483
0.000834203
-0.000103868
0.000940646
-0.00153697
0.000606708
-0.000964105
0.00116044
-0.00016448
0.00177319
-0.000637263
-0.00113033
-0.000212282
0.000625658
-0.000412083
-0.00119142
-0.000163661
0.001356
0.00072424
-0.000784832
6.30961e-05
0.000358751
0.00050506
-0.000862124
4.69017e-05
-0.000283755
0.000291706
-0.000730344
-0.000917253
0.00166035
0.00181962
-0.000290474
-0.0015085
3.44246e-05
-0.00164552
0.00162242
0.000384983
0.000572813
-0.00095476
-0.00112294
0.00019241
-0.00117654
-0.00184617
-0.00156034
0.00113761
-4.13985e-05
1.04206e-05
4.39976e-05
6.96044e-05
-9.30719e-05
7.34771e-05
-7.21015e-06
-2.1197e-05
-0.000555303
0.00150701
0.00108513
-0.0010837
1.53714e-05
-0.000317587
-0.00019804
-0.00244433
0.000405076
-0.00212798
7.11302e-05
0.00207602
-0.00035571
0.00217026
0.00121604
0.000623692
-0.00160942
0.000744781
-0.00070259
-0.000558528
0.00126156
-8.3286e-05
0.000205657
-0.000306784
-0.000235041
0.000543009
0.000603876
-0.000203226
-0.000398987
0.00077121
0.000418049
-0.00118657
0.00142062
0.000357219
-0.00169199
0.000989808
-0.00212901
0.00139366
0.00076763
8.76664e-05
2.26015e-05
-0.000105802
0.000416557
-0.000100398
-0.000316578
0.000454177
0.000143509
-0.000597371
-0.000122882
0.000577193
0.000702026
-0.000443913
-0.0002589
0.000146565
-0.000583584
0.000436453
-0.00204749
0.000445511
0.00160226
0.00106844
3.23523e-05
0.00159368
-0.00130399
-0.000282917
-0.000402653
0.000993205
-0.000583365
0.000633117
-0.00103229
0.000403903
0.00016246
-0.000415067
0.000252707
-5.7411e-05
-0.000116302
0.000229601
-5.83399e-06
-0.000233405
0.000329086
-1.97317e-05
0.000111418
-2.03539e-05
0.000146995
-9.82319e-05
-0.000212722
-0.000326766
0.000539702
-0.00201121
-9.50619e-05
0.00112334
-0.00103344
-6.54555e-05
0.0011945
-0.000420451
-0.00058989
-0.000242045
0.000831924
0.000601491
0.00160149
-0.00219483
-0.000593446
-0.000460724
0.00105933
0.00198472
-0.000231161
-0.00174866
0.000358278
-0.0020564
0.00171042
0.000410944
0.000193337
8.06614e-05
-0.000592689
0.000377619
0.000798254
-0.00116287
-0.0016743
0.0017213
-0.000236512
-5.69018e-05
0.000293416
0.000306947
0.000164546
-0.000470869
0.00167066
0.000883559
0.000193595
-0.000190954
-0.000475959
8.52398e-06
0.000550457
0.000302525
0.000805849
-0.00108767
-0.000512293
-0.00104275
0.000283037
-0.000496187
0.00021302
-0.00127996
0.000578889
0.000710766
5.36708e-06
0.000280745
0.00121245
-6.52986e-05
-0.00111991
3.60327e-05
-5.11965e-05
1.45414e-05
-0.00120079
0.00133169
-8.5707e-05
0.00043589
-0.000700129
0.000263006
-0.0014601
0.00206937
0.000187184
-0.00137769
-0.000408341
0.00212555
-0.00171011
0.00166722
-0.00116714
-0.000498127
-0.00143924
0.000188407
0.00127146
0.000894314
-0.000721053
-0.000159357
-0.00062567
0.000320703
-0.00271458
0.00143498
0.00128837
-0.000418063
-0.00147058
0.000972115
0.000512628
-0.00181343
0.000396402
-6.52542e-05
-1.92806e-05
0.000112871
0.00112273
-0.000512364
-0.000754208
0.000681642
7.282e-05
0.00120684
0.000392926
-6.043e-05
2.87948e-05
-0.000649198
0.000697744
-4.75414e-05
0.000876188
0.000266818
-0.00113342
-0.00221403
0.000721116
0.00151422
-0.000313937
0.000758716
-7.26318e-06
1.08177e-05
-9.71779e-07
0.000409918
0.00164628
-0.00204951
-0.000724315
-0.000269523
0.00100164
5.01009e-05
9.16475e-06
-5.62576e-05
-0.000165076
0.000417341
0.00214851
-0.00174912
5.56653e-05
-6.17978e-05
4.15403e-05
0.000696216
0.00021222
-0.00137228
-0.00133335
1.78355e-05
2.974e-05
0.000147091
-5.40607e-05
0.00107599
-0.00203556
-0.000540926
-0.000212919
-8.19769e-05
5.55208e-05
3.10324e-05
9.80269e-05
0.00010316
-0.000130321
0.000277657
-2.05961e-05
-0.00017808
0.00044731
-3.09337e-05
0.0006555
-0.000956179
-0.000136639
0.000862935
-0.00205054
-0.000485299
-0.00156073
6.4531e-05
-0.00039566
0.000337075
-0.00208273
0.00159884
-0.000798723
-0.000174629
0.000981484
-0.00266468
0.00150843
0.000578585
-0.00101857
0.000443534
-0.000666293
-0.00142545
-0.00020425
0.000960472
-0.000707083
6.75187e-05
-0.000304168
-4.80408e-05
-0.00110536
-0.000985576
0.000182253
0.000209514
-0.000332638
-3.14758e-05
-4.45057e-05
0.000161889
0.000346063
-0.000507185
-0.00109801
0.000654526
0.000443853
-0.000618566
0.00116288
-0.000543169
-8.11227e-05
-0.000567669
0.000309967
-0.000216484
-0.00169394
0.00062518
0.00108372
-9.18919e-06
-0.000197537
0.000211936
-0.000456602
0.00148935
-0.00101313
0.000593234
-0.000449393
4.20928e-05
-1.10879e-06
-4.00353e-05
0.00114028
-0.000556937
-0.000819775
0.000129811
-0.000548482
0.00042571
-0.000721763
0.000471536
-0.000249107
2.55132e-05
0.000308382
-0.00041245
0.000772938
-9.82977e-05
0.000102873
0.000339877
0.000787742
-0.00110918
0.00122465
-0.00165958
9.95577e-05
-0.00148374
0.0014161
0.00175971
-0.00181785
7.73399e-05
0.000784436
-0.000146761
-0.00100586
0.00061121
2.67961e-05
-2.74085e-05
9.3862e-07
-0.00118433
0.000828974
0.000366757
0.000248835
-0.000461535
-0.000786143
0.000626513
0.00195212
0.000279244
-0.00221271
-1.58178e-05
0.00019807
-0.000176382
6.72489e-06
3.59047e-05
0.001112
-0.000722437
-0.00166073
-0.000983994
-0.000349759
0.000664482
-0.000315427
0.000388246
-0.000105348
-0.000471608
7.27433e-05
0.00042654
0.00151127
-0.00138082
-0.00118687
0.00056907
-0.000153147
-0.000586722
0.00200762
-0.00156165
0.000530117
-0.00131889
-0.000769259
-0.000578178
0.00135925
0.000996508
-0.000608728
-5.05903e-05
-1.10783e-05
6.39411e-05
0.000350471
-0.00159303
0.00125945
0.000469431
0.00107216
-0.000962848
-6.72714e-05
0.0011663
-2.40426e-05
8.73004e-06
-7.99878e-06
-2.30032e-08
-5.47198e-05
1.52534e-06
7.28153e-05
0.00204185
-0.00167139
0.000362208
-1.50429e-06
-0.000699627
-0.000419249
0.00112453
-0.00112322
0.00175328
-0.000623961
-0.000446656
0.000436418
-0.000274337
-0.000820663
0.000106492
0.000725265
0.000846601
0.000282834
-0.00111799
0.000477287
-0.00106735
0.000376728
0.000950421
-0.00130704
-0.000427645
-0.00125139
0.00150323
-0.000422964
-0.00107929
0.000885028
-0.00163977
-0.000824032
0.00114732
0.000415086
-0.000344409
0.000830634
-0.000355106
-0.000475973
-5.52519e-05
0.000158424
-2.6585e-05
0.000328611
-0.00129675
0.00101246
0.00165597
-0.000618836
-0.00103157
-9.75506e-06
0.00112418
-0.00128518
0.000817108
0.000468375
0.00176974
-0.00137162
-0.000377871
-0.000183437
0.00045189
-0.000268444
-4.26017e-05
3.32629e-05
1.065e-05
-0.000555917
0.000338928
0.000217657
-0.0018256
-0.000364597
0.000470982
-0.00155831
0.00108652
3.53592e-05
8.40835e-06
-4.16087e-05
3.90002e-05
0.00016838
-0.000201983
-0.000147209
0.000531209
-0.000381908
0.00235276
-0.0006095
-0.00173324
0.000283341
0.000417887
0.000567256
-0.00047331
-4.64967e-05
0.00024883
-0.000432267
0.000698565
0.00108753
0.00131256
-7.51554e-05
-0.000646854
0.000442345
0.000206088
-0.00104205
0.000503421
0.000543141
-0.000489341
0.000352076
0.000137299
2.78507e-05
2.18984e-05
-3.0949e-05
-0.00147496
0.000790209
0.000699257
1.6038e-06
-5.61265e-06
0.000309053
-0.000437001
0.000127892
-1.34181e-07
3.65986e-05
0.0010609
-0.00160475
-0.000457138
-0.00134783
0.0018086
-0.000400517
-4.39583e-05
-0.000113215
0.000197472
0.000724008
-0.000914279
0.00209515
-0.00177975
-0.000307192
-0.000939485
-0.000345152
0.0017359
0.000252088
-0.000208689
0.000205228
-0.000822874
0.00119044
-0.00215246
0.00180188
0.00146743
-0.00014418
-0.00132083
2.51274e-05
-3.60817e-05
1.08461e-05
0.000593381
0.00106734
1.18004e-05
2.04494e-06
-0.000217019
0.000400974
-0.000183785
-0.000102291
0.00098676
-0.000389101
-0.00105031
0.00143851
0.000270416
0.00134774
-0.00159807
0.00152974
-0.00156841
5.71411e-05
0.000576671
0.00111528
-0.0016826
0.000266373
0.0012012
-0.00151112
0.00134374
0.000189019
0.00151347
-0.00122891
0.000579917
0.000658429
-0.00023723
0.002025
-0.00178372
0.000837676
-0.00195491
0.000454681
-0.000107845
-0.000534535
0.000153251
0.000382451
0.000612609
-0.000650182
7.11954e-05
-0.000164528
-1.30691e-05
0.00195462
-0.0019286
0.00148799
-0.00221293
0.00072624
0.000153558
-0.000450243
0.000304546
-0.000481349
-0.00043186
0.000914862
0.00116713
-0.000772889
-0.000297364
-0.00119112
-0.000258043
-0.00119905
-0.000205646
-0.000439621
0.000688483
-0.000754654
7.08283e-05
0.00168125
-0.00109481
0.00131091
0.00122436
-0.00217744
0.000955797
-0.000482991
-0.000787036
0.00112949
-0.00184648
0.000320646
0.000686685
-2.79317e-06
3.83262e-05
-0.000115553
0.000444653
-0.000326345
-0.000448473
0.000346042
0.000102648
-0.000498192
0.000287041
2.58628e-05
-1.609e-06
-2.92413e-05
1.29652e-05
1.80533e-05
-6.29649e-06
-1.33067e-07
8.31832e-06
-0.00066515
-0.000555196
0.00209232
-0.000603176
-0.000385879
-0.00172562
0.00211085
-0.00137628
0.000856469
0.000548707
-0.00038416
9.97229e-05
0.000316056
0.00215636
-0.000929124
-7.52626e-06
1.6397e-05
-1.0083e-05
0.000704774
0.000439321
-0.00184251
-0.000150362
0.000827855
0.00031877
-0.000837448
-0.000284603
0.00113336
2.17925e-05
-3.0076e-05
-0.000987539
0.000508179
0.00202197
-0.00162088
-0.000389512
0.00155881
-0.00137058
0.000692291
0.000244634
-0.000896456
0.000206379
-0.000423234
-0.000909392
-0.000262828
-0.00166212
0.00139091
-0.00047112
0.000273884
0.000197326
-0.00228659
0.000949803
0.00136176
-0.00168492
0.00210175
8.1218e-05
0.000527705
-0.000607547
-0.000461561
-0.000881845
-0.00113805
0.000552165
0.000595268
-0.000498049
0.00148664
-0.00183241
7.89068e-06
-0.000668383
-0.000428753
0.00118947
0.000842168
-0.000616588
-0.000707956
0.00134572
-0.000411009
-0.000207551
0.000619821
-3.51635e-05
0.000144804
-0.000104644
0.00173012
-0.000186057
-2.33492e-05
0.000448274
-0.000419618
-0.000268264
-0.000180165
-0.000165095
0.000619839
-0.000452222
6.49589e-05
0.000546819
-0.000571775
0.00104467
-0.000464456
-0.000679167
0.000334449
0.000386936
-5.74667e-05
-0.000476817
-0.00214673
0.0014405
0.000715715
-3.96922e-05
-4.20962e-06
5.96113e-05
0.000183599
0.00119347
-0.00135552
0.000524311
-0.000686066
-0.000500181
-0.000959857
-0.000920492
0.00125711
-0.000318745
-0.000265088
-0.000731549
-0.0015279
0.000982659
-0.00157566
0.000476597
0.000150061
-0.000433601
-0.00040455
0.000342229
-0.00076685
0.000423899
-0.0021772
0.000588053
0.00160014
-0.000200279
-0.000270691
-0.00105664
0.000396632
0.000660711
0.0002887
0.00112989
-0.000272668
-0.000324432
0.00103267
0.000415217
0.00125708
-0.00166524
0.00227557
-0.000818786
-0.00144959
0.00084523
-0.000187296
-0.000653416
-0.000412382
0.00184955
-0.000148397
-0.00168961
0.00161008
-0.00210498
0.000494788
-0.000515416
0.000244154
0.000271778
-0.000214931
-1.62313e-05
0.000332881
-0.000542906
0.000213419
0.000589128
-0.000252658
0.00076919
-0.00122344
0.000455678
-0.0013002
0.000397896
0.00121751
0.00106297
0.000424782
-0.000115692
0.000108168
0.00143269
0.0020654
-0.000455396
-0.00112542
0.00133149
-0.000264307
-0.000372738
1.63768e-05
-2.06436e-06
6.43289e-05
-1.15608e-05
0.00143611
-0.000272298
-0.00112722
-0.000254752
-0.000260068
-6.80824e-05
0.000993672
-0.000925005
0.00140823
-2.32901e-05
-0.00135292
-0.000365021
-0.000762488
8.51168e-06
0.000137874
-0.000141491
0.0002194
0.00134027
7.32613e-06
0.00163538
-0.00163232
-0.00219984
0.00010414
0.00040849
-0.000758926
0.00140305
3.60127e-05
0.000543033
0.00181398
0.00153225
-0.00118261
-0.000334747
-0.00173859
-0.000461874
-0.00203341
0.000628116
0.00144404
6.50819e-05
-4.86059e-06
0.00230936
-0.00164626
-0.000654481
-0.000135845
0.000518846
-0.000382128
-2.11252e-05
-0.00122155
0.000553296
0.00185876
0.000176667
0.000672884
0.000200709
0.000462902
-0.000307732
0.000568055
-0.000257871
-0.00058846
0.000283225
-0.00204289
0.00111991
0.0009321
-0.000225185
0.000797507
-0.000531175
0.000145538
6.30252e-06
-0.000103191
-0.000478531
-0.00168712
-0.000963495
0.000398496
-0.000382449
0.000888813
-0.000540074
-0.000459833
0.00101181
-0.000311717
-0.000177238
0.000405806
-0.000591545
0.00018666
0.000121025
-0.000108847
0.00072591
-8.70209e-05
0.00074998
-0.00028221
-2.4884e-05
0.000307071
-0.00173878
0.00128536
0.000255422
-0.000795469
0.000708045
0.00160929
0.000492211
0.00105491
6.98185e-05
1.02386e-05
-5.35971e-05
-0.000637352
-0.000418385
-0.000557219
-0.000140057
0.00072329
-0.00157609
0.000668783
-0.000643726
-0.00138874
-3.00919e-05
0.000896583
-0.000842856
-4.67736e-06
-0.00125964
0.000828196
-0.000136561
0.000125093
0.000376273
-0.000964889
0.00177722
-0.00208314
0.000313407
0.000480074
-0.000565454
8.54151e-05
0.00176406
-0.00228212
0.000531278
0.000328182
-0.00172104
0.00213943
-0.000410094
0.0013229
-0.00105653
0.000264753
-0.00170675
0.00145941
-0.000456867
0.00122789
-0.000286625
-0.00135745
-0.000486409
0.000341253
-7.2019e-05
4.63363e-05
-0.000373231
-0.000855037
-4.10586e-05
6.06484e-06
-0.000457125
-0.000685971
0.0011454
-0.00133942
0.000388857
0.000949932
0.000697796
0.000464477
-0.00115703
-0.00211797
0.000404679
0.000422754
0.000946729
-0.00150495
-0.00208623
-0.000179211
0.000777971
-0.000574936
-0.000590475
-0.00140354
4.99056e-05
0.00127574
-2.07249e-06
-1.19397e-05
1.90893e-05
0.000473334
-0.00135854
0.0008868
0.00141045
-0.00015911
-0.00124947
0.00152392
-0.000682148
-0.00083545
0.000206651
-0.000438326
0.000231701
-0.000656387
0.00155577
9.93915e-05
-0.000391122
0.000294017
0.000219959
0.00119095
-0.000594884
-0.000155723
9.36242e-06
6.82016e-07
-0.00094744
-0.000410333
0.00137062
0.00111713
-7.53419e-06
0.000699424
-0.000497569
-6.99462e-05
0.000594723
0.000244327
-0.00148502
0.0012643
-0.000242549
-0.00102372
-3.4843e-06
-0.00229027
0.0007384
0.00156306
-0.000506697
-0.000853364
0.00136046
-2.6335e-05
7.36092e-05
-0.000377476
0.00159139
-0.000269579
-0.000238697
0.00050769
0.00205139
-8.44894e-05
-1.89405e-05
-9.62734e-06
0.000844592
0.000823948
0.000506698
-0.000692383
0.00170521
0.000810797
-0.000605446
-0.000174127
-0.00206911
0.001948
0.000131495
0.00178681
-0.00163079
-0.000137092
-2.79694e-05
0.000867103
-0.00150933
-0.000804088
0.000394742
0.000987731
0.000382695
-0.000369708
-0.000687299
0.00106787
0.000474748
-0.000235133
0.00217128
-0.000304048
-0.00185904
0.000107605
-0.000444519
0.000338803
3.5371e-05
1.41287e-05
-0.000173834
0.00164483
-0.00144258
-2.84803e-05
8.96918e-05
-1.59239e-05
0.00214347
-0.000519881
-0.00162261
0.00151756
-0.00140627
-8.56694e-05
0.00173365
0.000398401
-0.00100132
7.9593e-05
9.16149e-05
3.46876e-06
-0.000819483
0.000468239
0.000351895
0.000393721
-0.000187046
-0.00103481
0.00103196
3.79338e-05
7.50541e-05
0.0021051
-0.0013243
0.00160556
-0.00140777
0.00126569
-0.000225671
0.000660644
0.000933524
-0.00129374
-0.00086645
0.000798979
0.00201457
-0.00134965
0.000428343
-0.00114571
0.000723448
-0.000931827
0.000991276
-3.59461e-05
0.000195723
-0.000454162
0.00025821
5.78464e-05
-1.84995e-05
-3.40741e-05
-0.000414184
-9.04789e-07
0.000809468
0.000956531
-0.00176075
0.000118716
-9.175e-05
0.00214865
-0.00206473
0.000297787
-0.00072454
0.000426332
-0.000334457
0.00140425
-0.000561347
-0.000158215
0.00071921
-0.000104611
0.000270198
0.00140473
0.00057027
-0.00197553
4.79051e-05
-0.000187323
0.000675905
-0.00014502
-0.000488456
0.000231186
-0.000959355
0.00077005
-0.00010138
0.000803665
-0.000681828
-7.2452e-05
-0.000209795
0.000364718
0.00064387
-0.00100115
-0.000233426
0.000765806
-0.000528398
-0.000237703
-0.000471573
0.000711674
-0.00206084
2.49615e-05
2.40177e-06
0.000576691
-0.00090865
0.000332907
-0.000378785
-0.000960231
0.00147645
-0.00111077
0.00112825
-0.000286026
-0.000482329
-0.000922173
-0.00151608
-0.00053601
-0.000305427
-0.000249824
8.74238e-05
-0.000128715
0.000105472
-0.000300276
0.000495577
-0.000670558
0.000532467
0.000297873
0.00148055
0.00158259
0.000572636
-0.000384584
-0.00158563
-0.000310847
0.000412576
0.00200029
-0.00223313
0.00115164
0.000350891
0.000479827
-0.00123648
0.000758166
-8.51038e-05
0.00186304
-0.000812256
0.00129329
0.000523048
-0.000654519
0.000132915
2.33029e-05
4.01174e-05
-0.000423708
-0.000634125
0.000416828
-0.000223253
-0.000193459
-0.000205274
0.00157109
0.00116393
-0.00106025
-5.3003e-05
-0.00118598
-0.000264109
0.00140641
-0.00139252
1.73327e-05
-0.00109849
0.000404726
0.00177326
-0.00208021
0.000315957
-0.00201895
0.000853685
0.000848633
-0.00135495
-0.000278275
-2.07303e-05
0.000343744
-0.000531977
0.000261819
0.000501905
-0.000303321
-0.000198296
-0.000383217
-0.00167853
0.00206691
-0.0014262
0.00104751
0.000754184
1.01827e-05
5.94446e-06
-1.5798e-05
0.000817936
3.49704e-05
-4.84873e-05
1.30707e-05
-0.000279521
0.000857285
-0.000439835
0.00124061
-0.000356359
-0.000363445
0.000722732
-0.000644871
0.000123874
0.000522955
-9.42139e-05
7.83795e-05
-0.00179491
-0.000287313
0.00208935
0.00205143
-0.000489606
-0.00156247
-0.000551944
-0.000669237
0.000266058
0.000687133
-0.000947017
-0.000266371
0.000193896
-0.00055815
0.000383752
0.000175353
0.0013839
0.000823931
-0.000831458
-0.000976282
-0.00078226
0.00175962
0.000488048
0.000268339
-0.000721486
0.000456355
-0.000977524
0.000447099
-0.000524677
0.00213334
1.67638e-05
0.00130304
-0.00121913
-3.3507e-05
-0.000761511
-1.43013e-05
-7.63459e-05
0.00139803
-0.00158462
-5.00813e-05
4.12247e-05
0.00070201
-0.000559658
-8.65152e-05
5.95901e-05
0.00046461
0.000667956
-0.00143639
-0.000671939
-7.40504e-05
6.29804e-05
-0.000610608
-0.000610609
0.000987397
-0.00140924
-0.00023935
0.000888601
-0.000610263
-0.00010269
-1.28468e-05
0.000136853
0.000428118
-0.000267101
-1.34698e-05
0.00040307
-0.000537802
0.000997632
-0.00138763
0.00146809
0.000756252
-0.000224011
-0.00058656
0.00199085
0.00107413
-0.00069358
-0.000369505
0.000206213
0.000210498
0.00012198
0.000329991
0.00158758
0.000271505
0.00117683
-0.000366766
1.26042e-05
-2.33378e-06
0.000397014
0.000779217
-0.00173253
0.000965096
0.000794672
-0.00047967
-0.00031355
-0.00157038
-0.000533799
-0.000771654
0.000418602
-0.00079205
0.00132303
-0.000517663
-0.00105723
0.000354707
0.0007356
0.000449876
0.00128999
-0.00172757
-0.00148411
0.000410613
0.00108623
-0.000701316
0.000139568
-0.000388467
-0.000594139
0.000988723
-0.000928977
-2.83491e-05
-0.00162161
0.00222077
-0.000563305
9.42893e-05
0.0014182
-0.000451373
-0.000953898
-0.000268679
0.000970293
-4.37453e-05
-0.000963822
-0.00182376
0.00127005
0.00148794
-0.00147143
-0.00134245
0.000188553
0.00117689
-0.000456584
0.000745836
-0.00120048
-0.000798991
-0.000239283
0.000367749
-0.00176738
0.00141141
0.000670057
-0.000398995
-0.000332796
-0.000691764
-0.0021293
0.000695899
0.00143927
-0.00102316
0.000664133
9.18982e-05
-0.0020496
0.000251033
1.06117e-05
-7.75934e-05
0.000102016
-0.000430087
0.000265385
-0.00184074
0.000243563
0.00161431
0.000465898
-0.000266202
-0.000279286
-0.000195914
0.000475476
-0.000686404
0.000412817
0.000272918
0.00175385
-0.000907477
-0.000644257
0.000112062
-0.000265034
2.2391e-05
3.59153e-06
0.000863369
-0.000123434
-0.000686485
-4.18704e-05
2.82158e-05
0.000717036
4.00014e-05
9.75682e-07
-1.02619e-05
9.16077e-06
0.00223578
-0.000460112
-0.00170073
-0.000357442
-1.08908e-05
-6.02154e-05
0.000677966
-0.001226
0.000548851
0.00165206
0.00102293
-0.00034395
-0.00129474
0.00024088
0.00108717
-2.47485e-05
9.48455e-06
1.85523e-05
2.88769e-05
-4.42529e-05
2.59997e-05
-0.00130297
0.000983065
-0.000982446
0.00047205
0.000510281
-0.000764127
-8.0972e-05
0.000850833
0.00117296
2.4515e-05
-1.71629e-06
-5.46498e-05
8.74537e-05
0.00025062
-0.000193923
-1.09496e-05
-0.00166079
0.000504897
0.00117675
-0.000530108
-0.000256785
0.000789342
0.00072269
0.000513037
-0.00123538
-0.00108457
-0.000235056
-6.45692e-05
5.67032e-05
0.000624286
-0.000706413
6.09102e-05
-0.00168987
0.000940004
0.000507092
-0.00144493
-0.000188912
0.000449457
-0.000260346
0.00159058
-0.000450722
-0.000317236
0.00076778
-0.00144875
0.00201858
-0.000430074
-0.00135564
0.000589724
-0.00081828
-7.5051e-05
0.000351603
0.00108684
-0.00124962
-0.00120092
0.00116336
-0.00167598
0.000176647
-0.000933661
-0.000314389
-0.00040716
-0.0010052
-0.00213138
1.36483e-05
-1.05686e-05
-0.000678977
0.000794771
-0.000202111
-0.000236153
-0.00116526
0.00025986
0.000924777
-4.21355e-05
0.00170294
-0.00164496
0.00163361
-0.00215112
0.000152375
0.000564956
-0.000360289
0.00217434
-1.44865e-05
0.000511324
-0.00103019
0.000519773
-0.00104342
0.00066167
0.000550792
-0.000980741
0.000541881
2.83103e-05
-3.97188e-05
-0.0002339
-0.00102637
-0.000436832
-0.000381808
-0.000129357
-0.000513367
0.000329871
0.00177323
-0.000467955
0.000188789
-0.00086634
0.000229412
0.000661105
7.26506e-05
-3.10324e-05
-5.15561e-06
-4.30276e-05
0.0014261
-0.00201342
-0.000265765
0.000593891
-0.000327107
-9.9391e-05
0.00173857
-0.00162457
0.000380029
-0.00189358
0.00153336
0.000442269
-0.000332672
-0.00134368
0.00126831
9.62128e-05
-2.01288e-05
5.78572e-05
0.000302022
-0.000592034
0.000288995
0.00212597
-9.84403e-05
0.000338688
0.000140053
-0.000477716
8.82488e-05
-0.00128465
0.000224116
-0.000409247
0.000268185
0.000141035
-0.000417604
1.62795e-05
0.000401325
-0.000686134
6.18606e-05
-0.0010329
-0.00043739
-0.000170646
-0.000312026
0.000483372
0.00112299
-0.000113759
-0.000370935
0.00141854
-0.00056823
-0.000846452
0.000832263
0.000697679
0.00167865
-0.000281248
-0.001381
-0.000403679
0.000523654
-0.00136947
0.000852788
0.000248823
0.00103461
-0.00127241
-0.000585541
0.00038387
0.000126094
-8.07155e-05
2.5363e-05
8.30501e-05
0.00172283
-0.000929735
0.000627352
0.000536893
-0.000235646
0.000605895
-0.00164263
0.00104746
-0.000751493
0.000596806
-0.0020256
0.000329588
0.000117522
-0.000735337
-3.55372e-05
-7.84096e-05
0.000241883
-0.000101464
0.00165344
-2.47552e-05
-1.26364e-05
0.00158928
-0.00124257
-0.000310203
4.72171e-06
-0.000279951
0.000347542
0.000437961
9.07569e-05
0.000285158
7.64947e-05
-9.78932e-05
2.62976e-05
0.00204731
-0.00039101
-0.00165376
-3.84321e-05
0.000885369
-0.000155546
-0.000253633
1.13187e-05
-1.23191e-05
7.70354e-06
-0.000421535
-0.00113403
0.00156904
-0.000641793
0.000694071
-4.79775e-05
0.00144116
-0.000499104
0.00100208
-0.000109242
-0.000891811
-0.000273137
0.000259688
5.87028e-05
-0.00229884
0.000125519
-0.000915897
0.000465242
0.00124345
-0.000377679
0.000639389
-0.000260422
0.00017965
-0.000849495
0.000227754
0.000612334
0.000520902
0.000664844
-0.00117962
-0.00034399
0.000243445
-0.00184887
-0.00044402
-0.00160957
0.000127327
0.00149833
1.73087e-05
-5.25873e-05
-0.00120557
0.000554611
-0.0014538
0.00090422
0.00159668
8.5769e-05
-0.00167624
-0.00174445
0.000138367
-0.000633145
0.00116022
-9.05256e-05
0.000232841
0.00108676
-0.00149516
0.000717112
-0.000616934
0.000408667
0.000931168
-0.00133913
-0.00112728
0.000713917
0.000522582
-0.00112418
-0.000133287
-0.000693075
0.000798943
-0.000170466
-0.000623994
-0.000419684
-0.00187606
0.00179312
-0.000278981
0.00101104
-0.000731798
-0.000756413
0.000521347
-0.000941026
0.000928522
0.000393524
-0.000680568
0.000285873
-0.000445535
-0.00167771
0.000338453
0.000548915
-0.00088728
0.00107221
-0.000559681
-0.000702025
0.000365733
0.000337781
-0.000135632
0.000827487
-0.000689793
0.000782955
-0.00169496
0.000922425
-0.000670286
0.00163259
-0.00209991
-0.000597601
0.000271094
-0.000307444
0.000354176
-0.00154652
0.00121576
3.54428e-05
3.07284e-05
-4.21054e-05
0.00105909
-0.000327459
3.89063e-05
7.56828e-07
-3.96786e-05
-9.9868e-05
-2.16629e-05
0.000126211
-0.000247165
-0.000197729
0.000444956
-0.000664378
-0.000177764
0.00147196
-3.93413e-05
-0.00139718
0.000297465
0.000357365
-0.000470311
0.000112997
0.000548957
-4.69762e-06
0.000247794
0.000658746
0.000198985
-0.000423545
-0.00011198
-0.000305668
0.000102254
-0.00063022
-0.00026941
-0.000449038
0.00194112
-0.00163698
-0.000291174
-0.000431342
-0.000336026
-0.00117279
0.000622908
-0.000533341
-0.000449018
-0.00103365
0.000772655
0.000706504
-0.00106142
0.00124582
-0.000936132
2.78543e-05
0.00184764
-0.000177323
0.000763858
-0.000185767
-0.000572176
-0.000180455
0.000155542
-0.00105558
0.00177125
-0.00116822
0.000323261
-0.00055998
0.000844771
-0.000506331
0.000307322
0.000194851
0.00103745
-0.000973527
-3.40459e-05
-0.000311869
0.00103686
-0.000713768
0.00061457
-0.000814833
0.0016686
0.00159811
-0.00162469
-4.90298e-05
-0.000833092
0.000882475
6.23961e-05
1.47462e-05
0.00022325
-0.000389952
0.000166601
1.32812e-05
-0.00010847
0.000187249
-0.000824427
-0.001201
4.85941e-05
0.00118802
-0.00104088
0.00135624
-0.00031189
0.000106703
0.000764787
-0.00106434
0.00036429
-0.00106848
0.000217621
0.000859881
0.00150525
0.000451258
6.62561e-05
6.40898e-05
0.000970181
0.00162142
-0.000486719
0.00200651
-0.00151393
0.000219623
-0.00171417
0.00151368
0.000358368
-8.96189e-07
-0.000362093
-7.99503e-05
-8.96633e-05
-0.000776265
0.000346462
-0.00158032
0.00125977
-3.77943e-05
0.000377234
0.000316387
-0.000447117
0.00029169
0.000704259
-0.000837813
-0.00221235
0.00116633
0.00192115
-0.000563644
-0.0013319
0.000477103
-0.000137517
0.000151582
-1.67188e-05
-0.00186228
-0.000173899
0.000412848
-0.0002587
-0.0001541
0.00108388
0.000277969
-0.00132674
-0.00103308
0.000901263
0.000147022
0.00051085
-0.000479448
0.00146829
-0.000541026
0.00109836
-0.00055689
-0.00118697
-0.000171311
0.00138497
0.000142115
2.9331e-05
-0.00183262
0.00106549
0.000767498
0.000451732
-0.000202872
-0.000333484
0.00102613
-0.000147266
-0.00144708
-0.000269125
0.0018401
-0.0015575
-0.000855124
0.000765941
0.000236195
0.000334347
-0.000571216
0.000846179
-4.18517e-05
-2.06356e-05
0.000102354
0.00150459
-0.00071169
0.000161952
0.000567515
-0.000685666
8.83997e-05
0.0001229
0.000610139
-1.73477e-05
-4.76056e-05
1.57879e-05
-0.000492422
-0.000790649
0.00128472
0.00131341
-0.00126078
0.000135877
0.00136941
0.00150578
0.000818262
-0.00171577
4.99583e-05
0.000334006
-0.000383869
-0.000361969
0.000659278
-0.00150847
0.000575865
-0.000863251
0.000584818
-0.00118221
1.76212e-05
0.00100583
-0.00140269
-0.00167829
0.00113893
-0.000565437
0.000771287
0.00185126
-0.000251665
-0.00156901
0.00157017
-0.00139883
0.000213113
-0.000391323
0.000178096
0.00092782
0.000136458
0.00104355
-0.000859887
4.74514e-05
0.00101958
-0.00156291
2.56393e-05
0.000420673
-0.000134429
-0.00028624
0.000227753
-7.09794e-05
-0.00173474
0.000759342
0.00135905
0.000243039
0.000654693
-0.00014843
-0.000503705
-0.000652503
0.00126799
-0.000478446
0.00142924
-0.000939903
0.000250172
0.000801136
-0.00123799
0.000263736
-0.0020351
0.0010386
0.00211774
-0.00032112
-0.00179545
-0.000217691
-0.000243165
0.000460733
0.00105424
0.000386637
-0.00143192
-7.11902e-05
-0.000222338
-0.00180368
-0.000285865
-0.000771946
-0.000758336
0.000469933
-0.000176886
-5.84265e-05
0.000952691
-0.00108199
0.000129673
0.00101731
-0.00121664
0.00135763
-0.00089145
0.000510018
0.000527829
-0.000151767
-0.000369113
0.000111833
0.000887415
0.000126816
0.000962122
0.00035171
0.000896392
-0.000218876
0.000450951
4.41982e-05
-1.98523e-05
-2.3798e-05
-6.26291e-05
-0.00111386
-0.000244025
-0.000340321
-0.00104236
0.00135415
0.00075822
-0.000653647
-0.000311828
0.000547526
-0.0007413
0.00177906
-0.00103102
-0.000513505
-0.000515595
-1.57739e-05
-0.000106671
8.73132e-05
0.000509148
-5.6037e-05
-4.22033e-05
0.00147894
-0.000536021
0.00073035
0.000223936
-0.00094846
0.000722578
-0.000703235
-4.49677e-06
0.00100157
0.000105887
-0.00108415
0.00185344
-0.00145461
-3.41986e-05
1.12127e-05
-0.000188543
-0.000552611
0.00127559
0.00158865
-0.0004479
0.000703918
-0.000737045
0.000197101
0.000542101
0.00034136
0.000999531
-0.00180427
0.00141328
0.000392101
-0.00130986
0.000529001
-0.00128023
0.000945246
-0.000226177
-0.000719481
0.00172492
0.000327777
-0.00204743
-0.000685338
-0.000741547
0.00142754
-0.000435712
0.000517085
-0.000436745
-0.000147014
0.0009217
-0.00139972
-0.000235377
0.000561395
-0.000325893
0.000402104
-0.00040348
3.19148e-05
-0.000799885
0.000665185
-0.00132512
-0.000304187
-0.00122145
-0.000103655
1.48456e-05
2.99833e-05
0.000612194
0.000238419
-0.000826658
-0.000216155
0.0010323
-0.000815013
0.00161479
-0.00205442
0.000417686
-0.00025469
-0.000890198
0.00104694
-0.00107085
6.40888e-05
-0.00162558
-0.000455058
-0.00111635
0.00148586
-0.00084935
-8.2141e-05
-0.000772043
-0.00151453
0.00206885
-0.00055224
0.000887722
-0.000318065
-0.000567068
0.00103501
0.000221211
-0.00125671
-2.80457e-05
8.50025e-05
0.00156662
-8.59992e-05
-0.00144735
0.00103816
-0.00197911
0.000945996
-0.00223954
0.00194402
0.000121723
-0.000848813
0.000740176
0.000381289
-8.61112e-05
0.00114875
-2.01903e-05
0.000757431
0.00156229
-0.00181763
0.00138658
-0.000617153
-0.000769079
0.00108881
-6.61608e-05
-0.000327542
-0.000237615
-0.000383031
-0.000275725
0.000661114
-0.00203787
0.000174629
-0.000336082
-0.000427095
0.000766117
9.75453e-05
7.92996e-06
-4.98171e-05
0.000322355
-0.000265616
-0.00205534
0.00160441
0.000474419
0.000523325
-0.000677326
0.000154526
0.00154376
-0.000952381
-0.000589541
-2.4891e-05
0.000455214
2.00764e-05
2.94171e-05
-0.00114905
0.000915215
0.000741544
0.000257512
-1.76095e-05
0.000168114
-0.000144764
-0.000235162
-0.000892185
0.00046142
0.000873875
-0.000231975
-0.000865676
0.00110841
-0.000606287
0.000341541
0.00204521
-0.00062529
-0.00165341
0.000404369
-0.000323208
0.000592601
0.000176672
0.00055276
-0.0009694
0.000417992
0.000754251
6.54768e-05
-0.000215462
-0.000462555
-0.000691903
0.00115584
0.00056844
-0.000803714
0.000239777
-3.2287e-05
0.000238057
-0.000199291
-0.000196044
0.000754834
0.000384806
0.000817143