/*--------------------------------*- C++ -*----------------------------------*\
| =========                 |                                                 |
| \\      /  F ield         | OpenFOAM: The Open Source CFD Toolbox           |
|  \\    /   O peration     | Version:  v2012                                 |
|   \\  /    A nd           | Website:  www.openfoam.com                      |
|    \\/     M anipulation  |                                                 |
\*---------------------------------------------------------------------------*/
FoamFile
{
    version     2.0;
    format      ascii;
    class       surfaceVectorField;
    location    "900";
    object      ddtCorrDdt0(Uf);
}
// * * * * * * * * * * * * * * * * * * * * * * * * * * * * * * * * * * * * * //

dimensions      [0 1 -2 0 0 0 0];


internalField   nonuniform List<vector> 
20673
(
(-0.000296593 -0.000892845 -2.83096e-20)
(-0.000326421 -0.000905319 5.56511e-20)
(-0.000319803 -0.000867995 6.18789e-20)
(-0.000160217 -0.000312493 6.82618e-19)
(-0.000154651 -0.000305384 -2.70193e-18)
(-0.000156689 -0.000316061 -1.61684e-18)
(0.0131478 0.00115361 3.17852e-19)
(0.0122338 0.00119674 -8.08576e-20)
(0.0115218 0.0011681 6.03059e-20)
(-0.000592295 -0.000275548 -5.50237e-20)
(-0.000584044 -0.00027588 8.35386e-20)
(-0.000583711 -0.000271356 -2.87266e-20)
(-7.60643e-06 -4.79654e-05 -1.65664e-18)
(-8.11898e-06 -4.91221e-05 -9.88449e-19)
(-8.77481e-06 -5.47815e-05 -1.52105e-18)
(-3.54937e-05 5.37648e-05 -5.61636e-17)
(-5.58166e-05 5.39175e-05 -9.43692e-17)
(-3.67312e-05 6.01927e-05 -6.18923e-17)
(0.0139328 0.00132423 -6.14539e-19)
(0.0140045 0.00131945 -1.02267e-19)
(0.0132831 0.00134033 6.38858e-19)
(0.0113798 0.00114009 -8.6003e-21)
(0.012892 0.0011401 2.82998e-19)
(0.0123045 0.00119343 1.68184e-19)
(0.014612 -1.35893e-05 7.96512e-20)
(0.0155349 -0.000152071 -4.42302e-20)
(0.0164796 -0.000139961 6.44792e-19)
(-0.000299197 -0.00114904 -2.14352e-19)
(-0.000319059 -0.00117965 -1.84943e-18)
(-0.000283947 -0.00118164 -3.11751e-19)
(-0.0011832 -5.05389e-05 -1.22368e-18)
(-0.00116285 -4.09684e-05 -2.66931e-18)
(-0.00118539 -2.93053e-05 -1.64384e-18)
(-0.000876704 -0.000225206 2.59232e-19)
(-0.000881928 -0.000213812 -3.75002e-19)
(-0.000887359 -0.00022542 -9.9034e-19)
(-0.000600065 -0.000279543 -8.00287e-20)
(0.00932596 0.000435478 4.85285e-22)
(0.0115323 0.000579236 2.52402e-19)
(0.00915557 0.00045067 7.18252e-20)
(-4.74003e-05 -0.000451987 -7.89493e-19)
(-4.38575e-05 -0.000445722 4.93608e-18)
(-4.96518e-05 -0.000440297 5.56701e-18)
(-8.61541e-05 -0.000473598 -1.2061e-19)
(-8.38095e-05 -0.000460946 -4.59194e-18)
(-9.24073e-05 -0.000464528 3.38891e-19)
(-0.00013651 -0.000327376 -2.3481e-18)
(-0.000141607 -0.000328587 -1.47395e-18)
(-0.000135927 -0.000319022 -1.2707e-18)
(-0.000944091 -0.000699922 5.23073e-19)
(-0.000938331 -0.00071654 2.64159e-19)
(-0.000961366 -0.000709428 5.5013e-19)
(-0.000868364 -0.000222335 -1.37221e-18)
(-0.000869085 -0.00023224 -1.08129e-18)
(-2.16042e-06 -1.29743e-05 -3.06991e-19)
(-1.97444e-06 -1.21271e-05 4.46019e-19)
(-1.442e-06 -1.03265e-05 -8.64391e-19)
(7.93896e-08 1.64372e-06 9.87644e-19)
(3.8255e-10 1.77298e-06 1.46823e-18)
(9.43579e-08 1.74388e-06 2.73569e-19)
(0.0138378 0.00138103 -5.88502e-19)
(0.013955 0.00122621 -4.70474e-19)
(-4.15468e-06 -2.7443e-05 1.51511e-18)
(-5.18202e-06 -3.13572e-05 -2.93184e-20)
(-4.95718e-06 -3.01986e-05 3.4475e-18)
(0.00982156 0.00121158 -1.01599e-19)
(0.00938128 0.00124244 -8.20107e-19)
(-2.52521e-05 -0.000114119 -2.45031e-18)
(-2.50997e-05 -0.00011505 -1.79625e-18)
(-2.66228e-05 -0.000120424 -7.33941e-19)
(0.0128548 0.00130483 2.3704e-19)
(0.0132054 0.00127102 3.02194e-19)
(0.0132541 0.00130324 -2.72083e-19)
(-7.73379e-05 -0.00025622 1.64079e-17)
(-7.10422e-05 -0.000249858 1.79938e-17)
(-8.62076e-05 -0.000250902 8.94043e-18)
(3.50518e-05 -0.00023379 9.8386e-18)
(5.10022e-05 -0.000238456 2.69781e-17)
(3.93934e-05 -0.000222013 -2.86245e-17)
(0.000485686 2.00077e-05 8.84729e-18)
(0.000458344 -2.56836e-05 2.58521e-18)
(0.000508339 -6.92672e-05 3.03476e-18)
(-0.000819164 -0.00132373 -4.81088e-18)
(-0.000844824 -0.00130653 1.11867e-18)
(-0.000861936 -0.0013473 -2.66935e-18)
(-0.000415877 -0.000931456 -4.73943e-19)
(-0.000393385 -0.000926623 -1.92666e-19)
(-0.000406744 -0.000907007 -2.93552e-19)
(-0.000289023 -0.00065261 -2.89314e-19)
(-0.000276057 -0.000643722 -3.28044e-19)
(-0.000286889 -0.000635594 1.31369e-20)
(-2.84757e-05 -0.000313059 -8.3715e-18)
(-2.41815e-05 -0.000307449 -1.79966e-18)
(-3.58606e-05 -0.000305241 2.45227e-17)
(-9.98306e-05 -0.000333913 8.30959e-18)
(-0.000102082 -0.000334536 7.40675e-18)
(-9.69111e-05 -0.000332839 -1.97436e-18)
(-2.40378e-05 -0.000123023 1.71376e-18)
(-2.54101e-05 -0.000129298 -2.39247e-18)
(-2.49445e-05 -0.000125214 -4.30292e-18)
(-0.000961135 0.000221402 5.32277e-19)
(-0.000928385 0.00023282 -1.07196e-19)
(-0.000548437 0.000279359 3.13521e-19)
(-3.69669e-06 -2.45104e-05 -6.17813e-19)
(-3.54971e-06 -2.39289e-05 6.07524e-19)
(0.0134701 0.00086775 1.75891e-19)
(0.0130656 0.000802716 -5.07767e-20)
(0.0131554 0.000808435 -6.5667e-20)
(-0.000647748 -0.000296379 -4.37368e-20)
(-0.000657306 -0.00029824 -6.85842e-20)
(0.0102192 0.000308077 -5.99699e-19)
(0.00984586 0.000248915 -1.53884e-19)
(0.0102011 0.000279102 1.90286e-19)
(-3.38163e-05 -5.23682e-06 -4.98706e-19)
(-3.62923e-05 -5.33396e-06 8.80732e-19)
(-2.90774e-05 -2.74588e-06 -1.41159e-19)
(3.9874e-08 1.31719e-06 3.21375e-18)
(3.77153e-08 7.85083e-07 -3.14263e-19)
(2.52106e-08 8.0244e-07 2.23315e-19)
(-0.000175543 -6.39061e-05 -7.21741e-19)
(-0.000169503 -6.27383e-05 -6.38425e-19)
(-0.000170871 -5.91635e-05 -6.92459e-20)
(0.000109013 -0.000170426 5.88162e-18)
(0.000130082 -0.00018133 -1.25528e-17)
(0.000130473 -0.000158235 -1.22139e-17)
(-0.000269592 -0.000281331 3.33425e-19)
(-0.000275587 -0.000289241 4.31709e-19)
(-0.000279109 -0.000285454 3.80688e-19)
(-8.73427e-05 -0.000331425 3.91884e-18)
(-9.61786e-05 -0.000330279 -9.13559e-18)
(-9.18546e-05 -0.000330808 1.16303e-17)
(-0.000953881 -0.000680581 3.13817e-19)
(-0.00092633 -0.00068668 -3.43479e-19)
(-0.00113318 -0.000557126 8.9145e-19)
(-0.00110945 -0.00056273 5.02218e-19)
(-0.00111497 -0.000543357 1.00094e-19)
(2.32662e-05 7.72485e-05 7.90985e-18)
(-9.43758e-07 4.78316e-05 4.81368e-17)
(-1.17204e-05 7.17393e-05 2.282e-17)
(-6.41465e-06 -2.81959e-06 3.50957e-19)
(-7.28361e-06 -2.61196e-06 1.65214e-18)
(-7.46903e-06 -3.86452e-06 -2.37117e-18)
(-0.00062962 -0.00044761 -4.5867e-22)
(-0.000628943 -0.000453986 3.57216e-20)
(-0.000639566 -0.00045266 -2.75863e-20)
(-5.42263e-05 -0.000249633 -4.00053e-18)
(-5.62601e-05 -0.000253554 -5.82814e-18)
(-5.64166e-05 -0.000255063 -1.69578e-18)
(0.000171674 0.000111663 -6.03133e-17)
(8.48566e-05 0.000196091 1.23417e-16)
(-9.76892e-05 -0.000333303 1.48578e-17)
(-0.000102776 -0.000334995 -8.20261e-19)
(-0.000136784 -0.000334572 8.71674e-19)
(-0.000131022 -0.000324761 2.21092e-18)
(-0.000548743 -0.000537653 -2.35144e-19)
(-0.000537247 -0.000541012 -5.47596e-21)
(-0.000550348 -0.000551848 -3.51484e-20)
(-0.00120492 -6.09997e-05 2.30163e-18)
(-0.00117493 -7.25633e-05 2.53616e-18)
(-5.88381e-05 -0.00020913 4.38936e-19)
(-5.56849e-05 -0.00020082 -1.63967e-18)
(-5.8699e-05 -0.000204679 -4.71705e-19)
(-0.000442539 -0.000502868 -7.4602e-19)
(-0.000452262 -0.000515532 3.92034e-20)
(-0.000436367 -0.000512501 -4.74044e-19)
(-0.000260201 -0.000276842 1.02953e-18)
(-0.000263168 -0.000273286 -9.00125e-19)
(0.00492861 -0.00258642 2.23941e-18)
(0.00949324 -0.00129935 -4.58789e-19)
(0.00827731 -0.00142935 4.64166e-18)
(-0.000165849 -0.000312219 1.56811e-18)
(-0.000166249 -0.000322611 -1.76503e-18)
(0.00929805 0.000479484 -9.23757e-20)
(-2.48062e-06 -1.3923e-05 1.17764e-18)
(-3.06607e-06 -1.55746e-05 2.66767e-18)
(-1.68803e-05 3.85604e-05 5.23235e-17)
(-4.1035e-05 3.6833e-05 8.53796e-17)
(-0.00520581 0.00289924 1.2797e-17)
(-0.00580162 0.0047951 -8.16829e-18)
(0.00433317 0.00603567 9.80062e-18)
(-9.85041e-06 -6.02698e-05 -1.0719e-17)
(-1.06982e-05 -6.63707e-05 1.39286e-18)
(-2.54971e-05 -0.000145154 -2.92452e-18)
(-2.43845e-05 -0.000138497 -1.30281e-18)
(-0.00151435 -0.000456206 6.3636e-20)
(-0.00150729 -0.000433157 -6.5659e-19)
(-0.00153978 -0.000445455 3.97073e-19)
(-0.000164499 -0.000782144 -5.06938e-19)
(-0.000180652 -0.00079985 -1.72898e-18)
(-0.000155036 -0.000802976 -2.23667e-19)
(-6.44595e-06 -4.12639e-05 -1.34912e-18)
(-7.53874e-06 -4.68009e-05 2.69068e-19)
(0.0114791 -0.000170027 -2.71144e-19)
(0.0134537 3.55869e-05 -5.6877e-19)
(0.0102692 0.000194068 1.36968e-19)
(0.0108169 0.000150835 1.14745e-18)
(0.0106524 0.000179173 -1.72938e-19)
(-2.43128e-05 -0.00011156 -2.11996e-18)
(-2.27843e-05 -0.000107711 -2.08656e-18)
(-2.6949e-05 6.45165e-05 3.83571e-17)
(3.80884e-06 7.20272e-05 -6.1243e-17)
(-1.53926e-05 9.29827e-05 -1.18381e-17)
(-0.000830489 -0.000194262 1.49087e-18)
(-0.000824879 -0.000201004 2.08628e-19)
(-0.000832335 -0.000200776 4.53171e-19)
(0.0107556 0.000389244 1.64613e-19)
(0.0111493 0.00023081 -6.13659e-19)
(0.0109965 0.000306134 -7.14601e-19)
(-0.000378853 -0.000359274 -2.62357e-19)
(-0.000386995 -0.000367416 -5.3615e-19)
(-0.00037538 -0.000366702 7.42666e-19)
(0.0127347 0.000957525 1.09774e-18)
(0.0127554 0.000986874 -1.19215e-18)
(0.0126121 0.000980606 4.48888e-19)
(-1.7078e-07 1.53061e-06 -2.135e-18)
(-2.88e-07 1.31713e-06 1.63736e-18)
(1.80403e-09 1.29999e-06 -3.78169e-20)
(8.32589e-08 3.02802e-07 3.45748e-19)
(1.71669e-07 -5.5441e-07 7.50977e-19)
(1.39195e-07 4.22764e-07 3.31334e-18)
(-8.83902e-06 -5.33918e-05 2.13268e-18)
(-1.59404e-05 2.34304e-05 1.51172e-18)
(8.01514e-07 2.96217e-05 -9.81828e-18)
(-5.09052e-06 3.22852e-05 -1.11871e-17)
(0.0138724 0.000961953 3.17539e-19)
(0.0138239 0.000950958 8.2471e-19)
(0.00856251 0.000922597 5.35925e-18)
(0.00584125 0.000731661 -6.58655e-18)
(0.00676689 0.0008694 -1.04195e-17)
(-0.000370513 -0.000351408 1.10449e-18)
(-0.000380763 -0.00035256 -1.57709e-19)
(-1.82923e-07 -3.9028e-06 4.9714e-19)
(-9.31803e-08 -3.77079e-06 6.96079e-19)
(1.50606e-08 -2.3073e-06 1.81998e-18)
(-0.00656392 -0.00210352 -1.12393e-18)
(-0.00462698 -0.00168632 -1.05052e-17)
(-0.000622919 -0.000438851 -3.77752e-20)
(-0.00061531 -0.000445688 -1.1224e-20)
(-0.000180695 -6.54535e-05 -1.22172e-18)
(-0.000179149 -6.88551e-05 -6.35045e-19)
(0.0125945 -3.70015e-05 4.79667e-19)
(0.0119679 1.55342e-05 2.15911e-19)
(0.0122783 -9.303e-06 8.8551e-19)
(-0.000544579 -0.00134068 1.94946e-19)
(-0.000519123 -0.00130805 3.32576e-18)
(-0.00049773 -0.00133932 -1.96061e-18)
(-0.000156961 -0.000214654 -8.9053e-19)
(-0.00015917 -0.000211618 -1.4249e-18)
(-0.00015172 -0.000207076 -1.02e-18)
(-6.2641e-05 -0.000328591 -1.88497e-18)
(-6.26548e-05 -0.000334146 3.69833e-18)
(-6.3727e-05 -0.000336688 -5.48084e-19)
(-0.00555552 -0.00442915 1.26663e-18)
(-0.00314041 -0.0050682 -1.89508e-18)
(-5.67272e-05 3.69398e-05 -5.62746e-18)
(-7.32834e-05 5.32554e-05 -1.89191e-17)
(-8.74719e-05 5.43418e-05 9.99069e-18)
(-0.00126367 -0.000259476 2.43607e-19)
(-0.00128115 -0.000270561 1.61067e-19)
(-0.00128721 -0.000245335 -5.51702e-20)
(-0.00106462 -0.0005922 7.64364e-19)
(-0.00108006 -0.000606068 5.15637e-19)
(-0.00105929 -0.00060989 1.75994e-18)
(-0.000877036 -0.000113893 -3.75606e-19)
(-0.000873296 -0.000106971 3.16547e-19)
(-0.000868655 -0.000118991 -4.90632e-19)
(1.59579e-05 -7.54572e-05 7.83821e-18)
(6.23047e-06 -0.000103524 -8.957e-18)
(2.92653e-05 -9.80244e-05 -5.09755e-18)
(-5.48451e-05 -4.46294e-05 -1.20687e-18)
(-5.82628e-05 -4.69344e-05 1.95395e-18)
(-5.65667e-05 -4.8851e-05 1.14803e-18)
(-0.000123072 -0.000306502 8.89941e-18)
(-0.000112817 -0.000300508 -2.92856e-17)
(-0.000114104 -0.000311104 -2.32031e-18)
(9.26958e-05 -0.000154552 -7.68962e-18)
(9.15823e-05 -0.000185594 1.43066e-18)
(-0.000449105 -0.000369239 8.24988e-20)
(-0.0004566 -0.000375856 -9.9183e-19)
(-0.000455993 -0.000367212 -1.17067e-18)
(-9.78721e-05 -0.000110861 -1.07505e-18)
(-9.80974e-05 -0.000107794 -3.75117e-18)
(-0.000102091 -0.000113189 -9.21992e-19)
(0.0127925 -0.000365234 -3.00361e-19)
(0.0131717 -0.000162687 1.82087e-19)
(0.00912257 -0.000539336 -6.99153e-19)
(0.000520069 -7.56968e-05 -4.6641e-18)
(0.000477588 -5.24146e-05 5.59212e-18)
(0.000537655 -3.87206e-05 2.88605e-18)
(-0.00115056 -0.000554547 2.94802e-20)
(-0.00114449 -0.000571377 -3.43925e-19)
(-0.000147712 -0.000330334 3.31228e-18)
(-0.00014813 -0.000339427 2.76289e-18)
(-0.000358782 -0.000967895 -4.93738e-19)
(-0.000334288 -0.000958736 -2.45241e-20)
(-0.000337326 -0.00098808 1.16561e-18)
(0.00985149 -0.000648317 5.321e-18)
(0.00861409 -0.000614547 -7.56353e-18)
(0.00924611 -0.000514815 9.0676e-18)
(0.0104701 0.000278973 4.48721e-19)
(0.0101269 0.000284583 -5.71633e-19)
(-0.000899196 -0.000176261 -8.91254e-19)
(-0.000891971 -0.00017528 -2.4873e-18)
(-0.000899372 -0.000167939 4.94482e-20)
(0.0130229 -0.000417716 -1.95657e-19)
(0.0149306 -2.76276e-05 2.20861e-19)
(-6.96277e-05 -0.000294477 -2.28011e-18)
(-6.88285e-05 -0.000296946 -7.43044e-18)
(-7.1431e-05 -0.000298805 -2.91519e-18)
(-5.2171e-05 0.000139227 6.24704e-18)
(-4.98658e-05 0.000134653 -1.45878e-17)
(-4.73025e-05 0.000138568 4.195e-17)
(-1.9538e-05 -7.9079e-05 -7.56608e-19)
(-2.16854e-05 -8.44138e-05 1.25543e-18)
(-2.0247e-05 -8.2482e-05 9.9801e-19)
(-7.63442e-06 6.96729e-05 4.67646e-18)
(-1.41484e-05 7.67385e-05 -1.65657e-18)
(-1.09906e-05 7.68596e-05 1.12122e-17)
(0.0114438 0.000614763 -8.95942e-20)
(0.0114981 0.000600444 -1.7767e-18)
(0.0116967 0.000605768 -1.41781e-18)
(-8.88805e-05 -0.000331349 -2.1811e-18)
(-8.70034e-05 -0.000331888 -1.16729e-18)
(-8.49043e-05 -0.000331849 -7.921e-18)
(8.64536e-08 1.68286e-06 6.38864e-19)
(5.23373e-08 1.71363e-06 1.21586e-18)
(-0.00150554 -0.000488828 -2.72992e-18)
(-0.00147602 -0.000454631 -1.73156e-19)
(0.0117325 0.000573674 5.83034e-19)
(0.0119172 0.000588767 -2.75448e-20)
(0.0118848 0.000569617 2.62553e-19)
(1.46537e-05 -0.000237302 7.46316e-18)
(3.43227e-05 -0.000251401 1.76942e-19)
(-1.33877e-05 -2.83315e-06 -5.80926e-19)
(-1.47265e-05 -4.2591e-06 -2.3478e-18)
(-1.47715e-05 -2.66397e-06 4.73339e-19)
(-6.15799e-05 -0.000318863 1.21941e-18)
(-6.51371e-05 -0.000322152 3.96882e-18)
(-0.000235392 -0.000279931 -1.91137e-19)
(-0.000240376 -0.000287817 1.52514e-18)
(-0.000232306 -0.000283579 -1.45418e-18)
(-1.19597e-05 -2.78364e-06 9.7569e-19)
(-1.04106e-05 -1.17176e-06 1.58418e-20)
(-0.000134428 -3.40268e-05 2.05848e-19)
(-0.000139173 -3.28681e-05 3.48911e-19)
(-0.000134714 -2.93836e-05 -2.37533e-18)
(-7.42538e-05 4.23404e-05 7.90681e-18)
(0.0127675 0.000752759 -3.2478e-19)
(0.0127009 0.000740596 3.63441e-19)
(0.0124932 0.000731758 3.52084e-19)
(-6.95234e-05 -0.000291908 -2.37748e-18)
(-6.78866e-05 -0.000289543 -2.92662e-18)
(-0.000280907 -0.000296557 3.46354e-19)
(-0.000271041 -0.000292276 8.47496e-19)
(1.13967e-07 1.71874e-06 -4.22485e-19)
(3.05719e-08 1.30643e-06 1.86899e-18)
(-0.00142416 -0.000950029 -1.81133e-18)
(-0.00150528 -0.000859403 8.46151e-19)
(-0.00137148 -0.000869354 3.66769e-18)
(0.00732054 0.00121591 5.87271e-19)
(0.0105369 0.00126707 -6.14872e-20)
(-0.000281543 -0.000905881 -2.77266e-19)
(-0.000278606 -0.000881432 -3.78036e-19)
(1.49944e-05 -6.90367e-05 3.31531e-17)
(6.23644e-06 -7.56332e-05 8.31086e-18)
(-1.03989e-05 -6.55288e-05 5.7514e-18)
(-1.15694e-05 -7.25301e-05 1.06244e-17)
(-9.40019e-05 -0.000332124 1.44981e-17)
(-9.11366e-05 -0.000331441 -5.39849e-19)
(-0.00128285 0.000179611 1.2743e-19)
(-0.00124744 0.000172132 -3.85069e-19)
(-0.00129578 0.00013343 5.29746e-19)
(-0.000176236 -0.000157304 -2.76852e-18)
(-0.000174559 -0.000160385 -1.58103e-18)
(-0.000169196 -0.000153948 -7.26634e-19)
(-5.66662e-05 -0.000267712 3.34017e-18)
(-5.83658e-05 -0.000274223 8.04769e-18)
(-5.73983e-05 -0.000269498 1.24815e-17)
(9.14709e-05 -0.000127492 -6.33817e-18)
(8.40768e-05 -0.000123748 -1.16723e-17)
(0.000109678 -0.000128206 1.83565e-17)
(-2.55601e-05 -0.000144494 1.57513e-18)
(-2.60539e-05 -0.000150382 -2.55884e-18)
(-0.000518705 -0.00138177 2.44278e-19)
(0.00428434 -0.0011661 3.40192e-19)
(-0.000454887 -0.00133997 -6.29966e-20)
(0.000467076 -6.72475e-06 -2.87778e-20)
(0.00046849 -7.63046e-06 -9.518e-18)
(0.000466613 -2.68258e-05 -2.52962e-18)
(-5.32595e-05 -0.000245651 -1.69614e-18)
(-5.26891e-05 -0.000242838 -6.39397e-19)
(-0.000166905 -0.000137913 -1.16727e-18)
(-0.000166033 -0.000141416 -1.34963e-18)
(-0.000160578 -0.000134788 -1.10122e-18)
(-0.000254579 -0.000655083 5.78595e-19)
(-0.000239441 -0.00064585 7.69465e-20)
(-0.000241778 -0.000668115 -2.78154e-19)
(-0.000996304 -0.000391149 1.11516e-19)
(-0.00101213 -0.000387137 -7.67176e-20)
(-0.00100106 -0.00040288 1.63167e-18)
(-7.716e-05 0.000140846 -1.93264e-17)
(-6.20986e-05 0.000169008 -2.32899e-18)
(-0.00104935 -0.00022053 5.52892e-19)
(-0.00106628 -0.000217914 -2.76666e-19)
(-0.00105359 -0.000207162 1.68408e-19)
(3.20941e-05 -0.000741817 5.31254e-18)
(1.6312e-05 -0.000740693 3.60433e-19)
(2.16074e-05 -0.00076562 3.82478e-18)
(-0.000432822 -0.000612127 -9.1408e-19)
(-0.000418246 -0.000611685 6.96753e-20)
(-0.000420878 -0.000597179 -9.38419e-19)
(0.00821987 0.00539873 -1.90219e-17)
(0.00967274 0.00316591 -2.29883e-17)
(0.00556578 0.00331267 -1.28162e-18)
(-0.000152352 -0.000764104 1.39365e-18)
(-0.000171664 -0.000766583 2.03786e-18)
(-0.00102403 6.24381e-05 -4.58081e-19)
(-0.000826155 7.09643e-05 -1.98206e-19)
(-0.00085674 0.000180815 -5.6135e-19)
(0.010243 0.000478323 2.3827e-19)
(0.0105485 0.00037372 3.55086e-19)
(-0.00156544 -0.00103122 -2.82274e-18)
(-0.00117383 -0.00104484 1.75e-18)
(-5.59713e-05 -0.000330827 -1.70457e-19)
(-5.51362e-05 -0.00033539 -1.23672e-17)
(-5.67828e-05 -0.000330213 -3.86797e-18)
(-0.000164457 -0.00025362 1.67859e-18)
(-0.000151047 -0.000249348 -1.58684e-17)
(-0.000165155 -0.000241991 -8.72432e-18)
(7.42548e-08 1.44375e-06 2.09279e-18)
(9.31374e-08 1.46866e-06 6.71055e-19)
(7.25671e-08 1.73479e-06 2.4747e-18)
(-0.00124611 -0.000242623 -1.16078e-19)
(-0.00124065 -0.000267666 2.21847e-19)
(-0.000909034 -0.00017753 4.14311e-19)
(-0.000899391 -0.000185478 1.87071e-19)
(-0.00087727 -0.000118693 1.64057e-18)
(-0.000882987 -0.000111124 -1.19563e-18)
(-0.000443399 -0.00037398 1.67621e-18)
(-0.000440196 -0.000364152 7.3079e-19)
(-0.00104202 -0.000487143 -1.71511e-19)
(-0.00104047 -0.000471388 -2.99036e-19)
(-0.00106054 -0.00047956 -1.11487e-18)
(-0.000227045 -0.00023424 6.02613e-19)
(-0.000232531 -0.000241239 2.63756e-19)
(-0.000223524 -0.000237596 -1.54847e-18)
(-0.000132189 -0.000303339 1.34984e-17)
(-0.000120854 -0.000299258 -9.64017e-18)
(-2.1403e-05 -0.00081372 9.87371e-19)
(-1.45977e-05 -0.000788802 -1.07876e-18)
(-3.57723e-05 -0.000798894 3.43863e-18)
(0.00375446 -0.000248618 -2.09215e-17)
(0.00357672 -8.50638e-05 2.28933e-17)
(0.00421824 -0.000316013 -2.45376e-17)
(-0.000875575 -0.000166714 -1.5529e-19)
(-0.000880889 -0.000157978 -4.32134e-19)
(-0.00088466 -0.000164169 8.25804e-20)
(-0.000138206 -0.000366112 -1.17999e-18)
(-0.000139999 -0.000374821 -4.57102e-19)
(-0.000133011 -0.00036679 -6.88496e-19)
(-0.00499264 -0.0009773 1.1722e-19)
(-0.00474596 -0.00117077 4.04173e-19)
(-0.00558871 -0.000989607 -1.19852e-18)
(9.21142e-05 -0.00073916 2.35535e-18)
(0.000112619 -0.000734873 2.81214e-18)
(0.000100668 -0.000761769 3.03167e-18)
(0.012821 0.00077324 -4.47175e-19)
(0.0130989 0.000808504 -2.21489e-19)
(1.97686e-05 7.38339e-05 -1.14393e-17)
(-1.02853e-05 6.17359e-05 2.93428e-17)
(-0.00104802 -0.00125117 -1.23862e-18)
(-0.00376374 -0.00147953 -3.93308e-19)
(-9.41205e-05 -0.000189999 2.17247e-18)
(-9.91453e-05 -0.000197032 4.33052e-18)
(-9.50942e-05 -0.000195304 2.77903e-18)
(-0.000570238 -0.00137382 7.40073e-19)
(-0.000587474 -0.00133883 3.22876e-21)
(-0.000428231 -0.00095827 -7.18374e-19)
(-0.00044273 -0.00093736 -2.14264e-19)
(-0.000183072 -0.000160385 3.69144e-19)
(-0.000177209 -0.000153867 6.18136e-19)
(-3.47893e-07 -4.35431e-06 -3.00689e-18)
(-5.29434e-07 -5.84074e-06 -2.42812e-18)
(8.74836e-06 -0.000444665 6.35678e-18)
(4.51102e-06 -0.000430931 -5.54659e-18)
(-1.74632e-06 -0.000441562 1.44983e-18)
(0.0122634 0.00131752 -7.81842e-20)
(0.0123297 0.00136013 1.39143e-19)
(-0.000641643 -0.00193275 3.85991e-18)
(-0.000661732 -0.00199334 -4.89299e-18)
(-0.000579175 -0.00200726 4.92418e-18)
(0.0074867 0.00669326 8.77094e-18)
(0.00819678 0.00593261 9.12742e-18)
(-0.00070871 -0.000680489 1.6296e-19)
(-0.000696511 -0.000689528 4.23849e-19)
(-0.000715173 -0.000695567 -1.05315e-18)
(-0.000941397 -0.000101048 -8.25588e-20)
(-0.000932354 -0.000101668 -7.83037e-19)
(-0.00093846 -9.061e-05 3.77047e-20)
(-0.00159766 8.97386e-05 4.63446e-19)
(-0.00157217 0.000109152 1.48893e-19)
(-0.00159971 0.000105057 -3.25924e-19)
(0.0107248 0.0014477 -3.24642e-18)
(0.010348 0.00108762 1.96813e-17)
(-0.000336082 -0.00188756 -3.87423e-18)
(-0.00037315 -0.00188883 1.98771e-18)
(-0.000328333 -0.00191672 7.93921e-18)
(-5.48555e-06 -3.38453e-05 -4.8188e-18)
(-4.30108e-06 -2.95207e-05 -3.59854e-18)
(-4.52115e-06 -2.99166e-05 2.64628e-18)
(-4.19354e-05 -6.38736e-05 -3.35807e-17)
(-2.69807e-05 -6.86475e-05 -2.58049e-17)
(-3.15558e-05 -5.12361e-05 -2.59913e-17)
(-8.22414e-05 -0.000265932 -9.43596e-18)
(-7.07975e-05 -0.000266078 -2.13799e-17)
(-4.30517e-05 -3.14311e-06 -4.34035e-19)
(-4.01629e-05 -2.98563e-06 -4.5383e-19)
(-0.00015455 -0.000217193 -2.06357e-18)
(-0.000161799 -0.000221677 6.01072e-19)
(0.000588734 -0.000161587 5.1013e-19)
(0.000563099 -0.000205501 1.11086e-17)
(0.000631105 -0.000221442 -1.5481e-18)
(-0.0005739 -0.00626016 -7.82215e-18)
(-0.00291053 -0.00570775 2.74062e-18)
(-0.00554422 -0.0103317 -1.10835e-17)
(-0.00064375 -0.000359502 -5.9954e-20)
(-0.000653493 -0.000360731 4.09283e-20)
(-0.000649184 -0.000365256 -4.80749e-20)
(-5.66389e-06 -3.24373e-06 2.90727e-19)
(-5.63769e-06 -1.90547e-06 -2.03179e-19)
(-0.00101125 -0.000442039 1.52117e-19)
(-0.000991993 -0.000445939 -3.63237e-19)
(-0.00101204 -0.000457953 -3.38454e-19)
(-0.000992694 -0.000377267 3.51025e-20)
(-0.000978448 -0.000392248 5.04167e-21)
(0.00992544 0.000212899 -8.53785e-19)
(0.00977552 0.000223777 -1.18423e-18)
(-0.00132144 -0.000845253 1.26284e-18)
(-0.00141169 -0.000832578 -1.54988e-18)
(-0.00157439 -0.000823016 2.08917e-19)
(-2.28756e-05 -0.000117543 4.70297e-18)
(-2.33376e-05 -0.000121138 1.21015e-18)
(-5.85546e-05 -0.000212356 1.01463e-18)
(-6.14377e-05 -0.000216961 -2.95885e-18)
(-0.00105215 -0.000579217 -1.37229e-18)
(-0.00106941 -0.00057425 -8.96119e-19)
(0.0127944 0.00146612 3.07409e-19)
(0.0116162 0.00148418 -1.68335e-19)
(0.0119964 0.00148229 5.81202e-20)
(-5.42782e-05 -0.000261229 -1.21638e-17)
(-5.5086e-05 -0.000265134 -1.13091e-17)
(0.0140675 0.00129967 -2.34799e-19)
(0.0141803 0.00124091 9.68454e-20)
(0.0135121 0.00127151 -3.54162e-19)
(0.00877676 0.000341629 8.84364e-19)
(0.00932915 0.000282827 -1.37061e-18)
(0.00897612 0.000343114 -8.46033e-21)
(-0.000945893 -0.000109611 7.77191e-19)
(-0.000953797 -9.69191e-05 -3.71008e-21)
(-9.34687e-05 -0.000107854 2.32739e-18)
(-9.74525e-05 -0.000114113 -1.84309e-18)
(0.000166156 4.57193e-05 7.53995e-18)
(0.000179082 7.16689e-05 3.41266e-17)
(0.000136735 6.88898e-05 6.82499e-19)
(-0.00100587 -0.000544431 -1.07089e-18)
(-0.00102307 -0.000554913 -8.21002e-19)
(-0.00100247 -0.000560161 9.84505e-19)
(0.00689584 0.00094238 2.8175e-18)
(0.00709717 -0.00054188 2.55945e-18)
(0.00849062 0.000272941 -3.46179e-19)
(-3.63823e-05 -0.000113551 -1.68552e-18)
(-3.82164e-05 -0.00011677 -9.46112e-19)
(-3.79499e-05 -0.000119689 2.7091e-19)
(0.000953761 -0.00372928 3.45746e-18)
(0.00219854 -0.00138219 8.35696e-18)
(-8.84284e-05 -0.000182154 -2.90606e-18)
(-9.24457e-05 -0.00018379 -1.35194e-18)
(-0.00095413 -0.00118155 -8.17612e-18)
(-0.000950999 -0.00114994 -2.79138e-18)
(-0.000925594 -0.00116825 4.06785e-19)
(-3.36596e-05 -7.1671e-06 -3.24334e-18)
(-3.11835e-05 -4.72798e-06 5.49389e-19)
(0.0139639 0.000805425 -5.71353e-20)
(0.0135245 0.000713524 -1.96814e-20)
(0.0137487 0.000784059 -1.56243e-19)
(0.01332 -5.0744e-05 2.96169e-19)
(0.013627 3.36347e-05 1.71537e-19)
(0.0100154 -0.000322171 -1.4734e-18)
(-8.24882e-05 -0.000482298 -7.48184e-20)
(-9.05616e-05 -0.000485641 7.36055e-18)
(0.00132865 -0.00404668 -5.64726e-18)
(-0.000315526 -0.00625928 -2.79857e-18)
(1.24339e-05 -0.00413155 -2.03487e-19)
(-0.00044621 -0.000626333 -8.04192e-20)
(-0.000446771 -0.000610816 -6.49189e-19)
(-8.85171e-05 -0.000104636 3.22379e-19)
(-8.89607e-05 -0.000101474 4.0167e-18)
(-0.00112552 0.000194172 1.87501e-19)
(-0.000924435 0.000218667 6.31885e-19)
(-0.000867439 -0.000168665 1.41895e-18)
(-0.000870884 -0.000174693 -1.28784e-18)
(-0.000702612 -0.000665207 1.13383e-19)
(-0.000719925 -0.000670989 3.79512e-19)
(0.00897436 0.00114914 2.90408e-19)
(0.0108294 0.00116077 -8.81894e-19)
(0.00804349 0.00110816 -3.01461e-20)
(0.00855023 0.000362337 1.01001e-19)
(0.00806199 0.000420343 1.03943e-18)
(-6.35848e-05 -2.77152e-05 3.20951e-19)
(-6.70471e-05 -2.91493e-05 7.13546e-19)
(-6.52808e-05 -2.49811e-05 6.42233e-19)
(-0.000303088 -0.000658751 -3.30408e-18)
(-0.000291108 -0.000669564 1.24832e-18)
(0.0130115 -7.25674e-05 2.22638e-19)
(0.0132749 -7.03244e-05 -3.21966e-19)
(0.00364999 -0.0003942 -3.0956e-18)
(0.00248169 -0.000378786 4.337e-18)
(0.00321086 -0.000935668 4.6444e-18)
(5.90102e-08 1.41895e-06 -6.34804e-19)
(3.41986e-08 8.26901e-07 -1.26453e-18)
(-2.41159e-05 -4.88926e-05 -7.33551e-19)
(-2.67871e-05 -5.15497e-05 -2.3944e-18)
(-2.60141e-05 -5.23008e-05 5.9469e-19)
(0.0104914 0.000278897 -1.81505e-18)
(0.0106525 0.000286206 1.29401e-18)
(-0.00134852 -0.000290827 2.62315e-20)
(-0.0013323 -0.000272428 4.0573e-19)
(-0.00136167 -0.000266279 5.35308e-19)
(8.25656e-08 1.66241e-07 1.47935e-18)
(3.98223e-08 1.40794e-07 4.218e-18)
(7.9212e-08 2.11803e-07 1.6445e-19)
(-0.00114419 0.000102125 3.76947e-20)
(-0.00112399 8.5991e-05 -6.74785e-19)
(-0.00110391 8.59866e-05 -1.31479e-18)
(-0.00117991 -0.000847749 9.49795e-19)
(-0.00119045 -0.000827029 -1.06209e-18)
(-0.00116011 -0.000826298 -1.55654e-18)
(-0.000163486 -0.000260659 -1.02884e-17)
(-0.000177837 -0.000257125 8.92264e-18)
(-0.000348455 -0.000821388 3.42655e-19)
(-0.000350653 -0.00084684 1.99644e-19)
(-0.000371114 -0.000831597 1.04772e-19)
(9.52623e-08 9.60604e-07 8.51915e-20)
(1.29294e-07 1.51518e-06 -6.26185e-19)
(0.000147685 -0.000646827 2.07709e-18)
(0.000126412 -0.000645401 5.39665e-18)
(0.000139451 -0.00062181 2.12436e-18)
(0.00957428 0.000309538 -1.06625e-18)
(0.0096332 0.000284464 -9.76714e-19)
(0.00903709 0.000354613 5.88528e-19)
(-0.000377317 -0.000213806 -9.24544e-19)
(-0.000384416 -0.000214205 7.42564e-19)
(-0.000386258 -0.000219689 -4.95852e-19)
(-0.000509529 -0.00152279 1.17543e-18)
(-0.000473285 -0.00149105 2.21028e-18)
(-0.000525852 -0.00147978 1.71176e-18)
(3.88923e-05 -6.67868e-05 1.63229e-17)
(6.12088e-05 -7.08612e-05 -1.1395e-17)
(5.2559e-05 -4.68769e-05 -1.54574e-17)
(-0.000230503 -0.000271973 -3.25155e-19)
(-0.000238414 -0.00027589 -1.42789e-18)
(-5.31829e-05 -0.000193332 5.13931e-19)
(-5.31067e-05 -0.000197551 -4.93792e-18)
(-0.000985467 -0.000261935 -1.39961e-18)
(-0.00100228 -0.00025743 5.63927e-19)
(-0.00098947 -0.000250029 -6.35292e-19)
(0.0107219 0.000293273 1.87788e-18)
(0.0105986 0.000296977 -1.39583e-19)
(0.010605 0.000281258 -1.39286e-18)
(-0.00103154 -0.000221247 1.22039e-19)
(-0.00104437 -0.000233662 -1.11522e-19)
(1.29234e-05 -0.000456846 -1.727e-18)
(1.79652e-05 -0.000446213 3.20065e-18)
(-5.30312e-05 -0.00045753 -3.30985e-18)
(-4.55966e-05 -0.000463522 8.21306e-19)
(7.43698e-08 3.71556e-07 1.42578e-18)
(7.27603e-08 3.2344e-07 6.82989e-19)
(3.09627e-08 2.42399e-07 1.32547e-18)
(0.0114643 0.000577529 3.25645e-20)
(0.0115298 0.000562214 1.38616e-19)
(0.00214397 -0.00021998 -5.30653e-18)
(-0.00189527 -0.000476493 -1.07818e-18)
(-0.00193295 -0.000653731 8.806e-19)
(-0.00100319 2.44538e-05 1.24041e-19)
(-0.000949297 4.91059e-05 -5.21522e-19)
(-0.000768515 5.02141e-05 5.30909e-19)
(-8.44396e-05 -0.000102076 -1.06571e-18)
(-8.80006e-05 -0.000107832 -9.28349e-19)
(0.00934686 0.000476634 -1.43529e-18)
(0.00994249 0.00044998 9.32076e-19)
(0.00971036 0.000481677 -6.19369e-19)
(0.0119383 0.000615575 -3.70758e-19)
(0.0118829 0.00060727 5.73341e-20)
(0.0114593 0.00054459 2.6393e-19)
(-0.00168925 3.1537e-05 -2.84549e-20)
(-0.00142118 0.000190901 -1.26671e-19)
(0.0126951 0.000936972 -4.95639e-19)
(0.0126688 0.000914379 4.00723e-19)
(-0.000835678 -0.000187901 -3.55133e-19)
(-0.000828218 -0.000189196 2.21955e-19)
(-3.6155e-08 1.91308e-07 1.83594e-18)
(-2.04167e-05 -3.80856e-06 3.16743e-19)
(-1.88644e-05 -4.03772e-06 -2.40436e-18)
(-2.13897e-05 -5.99512e-06 -9.80592e-19)
(-0.000960841 -0.000667587 -1.55799e-19)
(-0.000945772 -0.000655034 -8.00171e-19)
(-0.000968104 -0.000652451 4.21878e-19)
(0.0131744 0.000491247 1.68026e-19)
(0.0128423 0.000519066 9.08818e-20)
(0.0127926 0.000471399 1.83368e-19)
(-0.00132472 -0.000617729 1.11971e-18)
(-0.00132611 -0.000640477 -3.68311e-19)
(-0.00135386 -0.000624981 -9.26925e-19)
(-0.000432583 -0.000491091 3.89504e-21)
(-0.000446998 -0.000493268 -3.78256e-20)
(-0.00118703 -0.000842206 -9.28189e-19)
(-0.000942266 -0.000862691 1.95444e-18)
(-0.000785097 -0.000284653 4.71907e-19)
(-0.000780839 -0.000287391 9.54591e-19)
(-0.000137005 -2.08177e-05 7.86155e-19)
(-0.000135359 -2.49964e-05 -1.82342e-19)
(-0.00014031 -2.43165e-05 5.43161e-19)
(-0.0042388 -0.00165697 -1.2761e-18)
(-0.00423218 -0.00189337 2.72454e-18)
(-0.00388393 -0.00167356 -9.2083e-19)
(-3.19216e-06 -1.48042e-05 -5.96336e-19)
(-3.09962e-06 -1.39844e-05 1.64778e-18)
(-2.42903e-06 -1.24234e-05 -1.72513e-18)
(-0.00509819 -0.000931449 -7.48493e-19)
(-0.00109298 -0.000937951 -1.06041e-18)
(-0.000632471 -0.000358475 -5.3959e-21)
(-0.000636851 -0.00035378 -1.003e-20)
(9.24014e-08 1.2857e-07 1.60068e-18)
(1.30959e-07 1.76906e-07 1.60149e-19)
(-8.06229e-05 -0.000533757 -3.09134e-18)
(-7.17144e-05 -0.000542221 -4.10242e-18)
(-7.35726e-05 -0.000525909 -6.09046e-20)
(5.08183e-05 -0.000747355 -7.03118e-19)
(4.2738e-05 -0.000724925 2.82632e-18)
(-0.00013158 -0.000243977 4.88783e-19)
(-0.000132089 -0.000256234 -1.00234e-17)
(-0.00106459 0.00014855 4.83455e-19)
(-0.00116449 0.000125797 -1.65681e-19)
(-2.02597e-05 -0.000605555 6.47561e-18)
(-1.0537e-05 -0.000617593 3.20807e-18)
(-8.87256e-06 -0.000597275 -5.15451e-18)