/*--------------------------------*- C++ -*----------------------------------*\
| =========                 |                                                 |
| \\      /  F ield         | OpenFOAM: The Open Source CFD Toolbox           |
|  \\    /   O peration     | Version:  v2012                                 |
|   \\  /    A nd           | Website:  www.openfoam.com                      |
|    \\/     M anipulation  |                                                 |
\*---------------------------------------------------------------------------*/
FoamFile
{
    version     2.0;
    format      ascii;
    class       pointVectorField;
    location    "850";
    object      pointDisplacement;
}
// * * * * * * * * * * * * * * * * * * * * * * * * * * * * * * * * * * * * * //

dimensions      [0 1 0 0 0 0 0];


internalField   nonuniform List<vector> 
14246
(
(0 0 0)
(0.0288809 -0.192974 0)
(0 0 0)
(0.0288809 -0.192974 0)
(0 0 0)
(0 0 0)
(0 0 0)
(0 0 0)
(0 0 0)
(0 0 0)
(0 0 0)
(0 0 0)
(0 0 0)
(0 0 0)
(0 0 0)
(0 0 0)
(0 0 0)
(0 0 0)
(0 0 0)
(0 0 0)
(0 0 0)
(0 0 0)
(0 0 0)
(0 0 0)
(0 0 0)
(0 0 0)
(0 0 0)
(0 0 0)
(0 0 0)
(0 0 0)
(0 0 0)
(0 0 0)
(0 0 0)
(0 0 0)
(0 0 0)
(0 0 0)
(0 0 0)
(0 0 0)
(0 0 0)
(0 0 0)
(0 0 0)
(0 0 0)
(0 0 0)
(0 0 0)
(0 0 0)
(0 0 0)
(0 0 0)
(0 0 0)
(0 0 0)
(0 0 0)
(0 0 0)
(0 0 0)
(0 0 0)
(0 0 0)
(0 0 0)
(0 0 0)
(0 0 0)
(0 0 0)
(0 0 0)
(0 0 0)
(0 0 0)
(0 0 0)
(0 0 0)
(0 0 0)
(0 0 0)
(0 0 0)
(0 0 0)
(0 0 0)
(0 0 0)
(0 0 0)
(0 0 0)
(0 0 0)
(0 0 0)
(0 0 0)
(0 0 0)
(0.0288223 -0.190554 0)
(0.0287637 -0.188135 0)
(0.0287051 -0.185715 0)
(0.0286466 -0.183296 0)
(0.028588 -0.180876 0)
(0.0285294 -0.178457 0)
(0.0284708 -0.176037 0)
(0.0284123 -0.173618 0)
(0.0283537 -0.171198 0)
(0.0282951 -0.168779 0)
(0.0282365 -0.166359 0)
(0.028178 -0.16394 0)
(0.0281194 -0.16152 0)
(0.0280608 -0.159101 0)
(0.0280022 -0.156681 0)
(0.0279437 -0.154262 0)
(0.0278851 -0.151842 0)
(0.0278265 -0.149423 0)
(0.027768 -0.147003 0)
(0.0277094 -0.144584 0)
(0.0276508 -0.142164 0)
(0.0275922 -0.139745 0)
(0.0275337 -0.137325 0)
(0.0274751 -0.134906 0)
(0.0274165 -0.132486 0)
(0.0273579 -0.130067 0)
(0.0272994 -0.127647 0)
(0.0272408 -0.125228 0)
(0.0271822 -0.122808 0)
(0.0271236 -0.120389 0)
(0.0270651 -0.11797 0)
(0.0270065 -0.11555 0)
(0.0269479 -0.113131 0)
(0.0268893 -0.110711 0)
(0.0268308 -0.108292 0)
(0.0267722 -0.105872 0)
(0.0267136 -0.103453 0)
(0.026655 -0.101033 0)
(0.0265965 -0.0986135 0)
(0.0265379 -0.096194 0)
(0.0264793 -0.0937746 0)
(0.0264208 -0.0913551 0)
(0.0263622 -0.0889356 0)
(0.0263036 -0.0865161 0)
(0.026245 -0.0840966 0)
(0.0261865 -0.0816771 0)
(0.0261279 -0.0792576 0)
(0.0260693 -0.0768381 0)
(0.0260107 -0.0744186 0)
(0.0259522 -0.0719991 0)
(0.0258936 -0.0695796 0)
(0.025835 -0.0671601 0)
(0.0257764 -0.0647406 0)
(0.0257179 -0.0623211 0)
(0.0256593 -0.0599016 0)
(0.0256007 -0.0574821 0)
(0.0255421 -0.0550626 0)
(0.0254836 -0.0526431 0)
(0.025425 -0.0502236 0)
(0.0253664 -0.0478042 0)
(0.0253078 -0.0453847 0)
(0.0252493 -0.0429652 0)
(0.0251907 -0.0405457 0)
(0.0251321 -0.0381262 0)
(0.0250736 -0.0357067 0)
(0.025015 -0.0332872 0)
(0.0249564 -0.0308677 0)
(0.0248978 -0.0284482 0)
(0.0248393 -0.0260287 0)
(0.0247807 -0.0236092 0)
(0.0247221 -0.0211897 0)
(0.0246635 -0.0187702 0)
(0.024605 -0.0163507 0)
(0.0245464 -0.0139312 0)
(0.0244878 -0.0115117 0)
(0.0244292 -0.00909224 0)
(0.0243707 -0.00667275 0)
(0.0243121 -0.00425325 0)
(0.0242535 -0.00183376 0)
(0.0241949 0.000585739 0)
(0.0241364 0.00300523 0)
(0.0240778 0.00542473 0)
(0.0240192 0.00784422 0)
(0.0239607 0.0102637 0)
(0.0239021 0.0126832 0)
(0.0238435 0.0151027 0)
(0.0237849 0.0175222 0)
(0.0237264 0.0199417 0)
(0.0236678 0.0223612 0)
(0.0236092 0.0247807 0)
(0.0235506 0.0272002 0)
(0.0234921 0.0296197 0)
(0.0234335 0.0320392 0)
(0.0233749 0.0344587 0)
(0.0233163 0.0368782 0)
(0.0232578 0.0392977 0)
(0.0231992 0.0417171 0)
(0.0231406 0.0441366 0)
(0.023082 0.0465561 0)
(0.0230235 0.0489756 0)
(0.0229649 0.0513951 0)
(0.0229063 0.0538146 0)
(0.0228477 0.0562341 0)
(0.0227892 0.0586536 0)
(0.0227306 0.0610731 0)
(0.022672 0.0634926 0)
(0.0226135 0.0659121 0)
(0.0225549 0.0683316 0)
(0.0224963 0.0707511 0)
(0.0224377 0.0731706 0)
(0.0223792 0.0755901 0)
(0.0223206 0.0780096 0)
(0.022262 0.0804291 0)
(0.0222034 0.0828486 0)
(0.0221449 0.0852681 0)
(0.0220863 0.0876875 0)
(0.0220277 0.090107 0)
(0.0219691 0.0925265 0)
(0.0219106 0.094946 0)
(0.021852 0.0973655 0)
(0.0217934 0.099785 0)
(0.0217348 0.102205 0)
(0.0216763 0.104624 0)
(0.0216177 0.107044 0)
(0.0215591 0.109463 0)
(0.0215005 0.111882 0)
(0.021442 0.114302 0)
(0.0213834 0.116721 0)
(0.0213248 0.119141 0)
(0.0212663 0.12156 0)
(0.0212077 0.12398 0)
(0.0211491 0.126399 0)
(0.0210905 0.128819 0)
(0.0240419 -0.193091 0)
(0.0264614 -0.193032 0)
(0 0 0)
(0 0 0)
(0 0 0)
(0 0 0)
(0 0 0)
(0 0 0)
(0 0 0)
(0 0 0)
(0 0 0)
(0 0 0)
(0 0 0)
(0 0 0)
(0 0 0)
(0 0 0)
(0 0 0)
(0 0 0)
(0 0 0)
(0 0 0)
(0 0 0)
(0 0 0)
(0 0 0)
(0 0 0)
(0 0 0)
(0 0 0)
(0 0 0)
(0 0 0)
(0 0 0)
(0 0 0)
(0 0 0)
(0 0 0)
(0 0 0)
(0 0 0)
(0 0 0)
(0 0 0)
(0 0 0)
(0 0 0)
(0 0 0)
(0 0 0)
(0 0 0)
(0 0 0)
(0 0 0)
(0 0 0)
(0 0 0)
(0 0 0)
(0 0 0)
(0 0 0)
(0 0 0)
(0 0 0)
(0 0 0)
(0 0 0)
(0 0 0)
(0 0 0)
(0 0 0)
(0 0 0)
(0 0 0)
(0 0 0)
(0 0 0)
(0 0 0)
(0 0 0)
(0 0 0)
(0 0 0)
(0 0 0)
(0 0 0)
(0 0 0)
(0 0 0)
(0 0 0)
(0 0 0)
(0 0 0)
(0 0 0)
(0 0 0)
(0 0 0)
(0.0288223 -0.190554 0)
(0.0287637 -0.188135 0)
(0.0287051 -0.185715 0)
(0.0286466 -0.183296 0)
(0.028588 -0.180876 0)
(0.0285294 -0.178457 0)
(0.0284708 -0.176037 0)
(0.0284123 -0.173618 0)
(0.0283537 -0.171198 0)
(0.0282951 -0.168779 0)
(0.0282365 -0.166359 0)
(0.028178 -0.16394 0)
(0.0281194 -0.16152 0)
(0.0280608 -0.159101 0)
(0.0280022 -0.156681 0)
(0.0279437 -0.154262 0)
(0.0278851 -0.151842 0)
(0.0278265 -0.149423 0)
(0.027768 -0.147003 0)
(0.0277094 -0.144584 0)
(0.0276508 -0.142164 0)
(0.0275922 -0.139745 0)
(0.0275337 -0.137325 0)
(0.0274751 -0.134906 0)
(0.0274165 -0.132486 0)
(0.0273579 -0.130067 0)
(0.0272994 -0.127647 0)
(0.0272408 -0.125228 0)
(0.0271822 -0.122808 0)
(0.0271236 -0.120389 0)
(0.0270651 -0.11797 0)
(0.0270065 -0.11555 0)
(0.0269479 -0.113131 0)
(0.0268893 -0.110711 0)
(0.0268308 -0.108292 0)
(0.0267722 -0.105872 0)
(0.0267136 -0.103453 0)
(0.026655 -0.101033 0)
(0.0265965 -0.0986135 0)
(0.0265379 -0.096194 0)
(0.0264793 -0.0937746 0)
(0.0264208 -0.0913551 0)
(0.0263622 -0.0889356 0)
(0.0263036 -0.0865161 0)
(0.026245 -0.0840966 0)
(0.0261865 -0.0816771 0)
(0.0261279 -0.0792576 0)
(0.0260693 -0.0768381 0)
(0.0260107 -0.0744186 0)
(0.0259522 -0.0719991 0)
(0.0258936 -0.0695796 0)
(0.025835 -0.0671601 0)
(0.0257764 -0.0647406 0)
(0.0257179 -0.0623211 0)
(0.0256593 -0.0599016 0)
(0.0256007 -0.0574821 0)
(0.0255421 -0.0550626 0)
(0.0254836 -0.0526431 0)
(0.025425 -0.0502236 0)
(0.0253664 -0.0478042 0)
(0.0253078 -0.0453847 0)
(0.0252493 -0.0429652 0)
(0.0251907 -0.0405457 0)
(0.0251321 -0.0381262 0)
(0.0250736 -0.0357067 0)
(0.025015 -0.0332872 0)
(0.0249564 -0.0308677 0)
(0.0248978 -0.0284482 0)
(0.0248393 -0.0260287 0)
(0.0247807 -0.0236092 0)
(0.0247221 -0.0211897 0)
(0.0246635 -0.0187702 0)
(0.024605 -0.0163507 0)
(0.0245464 -0.0139312 0)
(0.0244878 -0.0115117 0)
(0.0244292 -0.00909224 0)
(0.0243707 -0.00667275 0)
(0.0243121 -0.00425325 0)
(0.0242535 -0.00183376 0)
(0.0241949 0.000585739 0)
(0.0241364 0.00300523 0)
(0.0240778 0.00542473 0)
(0.0240192 0.00784422 0)
(0.0239607 0.0102637 0)
(0.0239021 0.0126832 0)
(0.0238435 0.0151027 0)
(0.0237849 0.0175222 0)
(0.0237264 0.0199417 0)
(0.0236678 0.0223612 0)
(0.0236092 0.0247807 0)
(0.0235506 0.0272002 0)
(0.0234921 0.0296197 0)
(0.0234335 0.0320392 0)
(0.0233749 0.0344587 0)
(0.0233163 0.0368782 0)
(0.0232578 0.0392977 0)
(0.0231992 0.0417171 0)
(0.0231406 0.0441366 0)
(0.023082 0.0465561 0)
(0.0230235 0.0489756 0)
(0.0229649 0.0513951 0)
(0.0229063 0.0538146 0)
(0.0228477 0.0562341 0)
(0.0227892 0.0586536 0)
(0.0227306 0.0610731 0)
(0.022672 0.0634926 0)
(0.0226135 0.0659121 0)
(0.0225549 0.0683316 0)
(0.0224963 0.0707511 0)
(0.0224377 0.0731706 0)
(0.0223792 0.0755901 0)
(0.0223206 0.0780096 0)
(0.022262 0.0804291 0)
(0.0222034 0.0828486 0)
(0.0221449 0.0852681 0)
(0.0220863 0.0876875 0)
(0.0220277 0.090107 0)
(0.0219691 0.0925265 0)
(0.0219106 0.094946 0)
(0.021852 0.0973655 0)
(0.0217934 0.099785 0)
(0.0217348 0.102205 0)
(0.0216763 0.104624 0)
(0.0216177 0.107044 0)
(0.0215591 0.109463 0)
(0.0215005 0.111882 0)
(0.021442 0.114302 0)
(0.0213834 0.116721 0)
(0.0213248 0.119141 0)
(0.0212663 0.12156 0)
(0.0212077 0.12398 0)
(0.0211491 0.126399 0)
(0.0210905 0.128819 0)
(0.0240419 -0.193091 0)
(0.0264614 -0.193032 0)
(0.0210621 0.129988 0)
(0.0221251 0.086073 0)
(0.0231702 0.0429206 0)
(0.0242237 -0.000600297 0)
(0.0252794 -0.0442153 0)
(0.026333 -0.0877369 0)
(0.0273916 -0.131455 0)
(0.028442 -0.174891 0)
(0.0258078 -0.0660349 0)
(0.0247515 -0.0224057 0)
(0.0215895 0.108201 0)
(0.0279136 -0.153027 0)
(0.022642 0.0647318 0)
(0.0236969 0.0211502 0)
(0.0268571 -0.109379 0)
(0.0230682 -0.193102 0)
(0.000951882 -0.0052033 0)
(0.00075145 -0.00887255 0)
(0.00119662 -0.00447445 0)
(0.00147546 -0.00174586 0)
(0.000683885 -0.0113248 0)
(0.000512442 -0.0138714 0)
(0.00119237 0.00134023 0)
(0.0287229 -0.186906 0)
(0.000796624 -0.00525897 0)
(0.000677294 -0.00666381 0)
(0.000530279 -0.00472251 0)
(0.0276818 -0.143451 0)
(0.0234604 0.0309223 0)
(0.0270952 -0.119207 0)
(0.0224103 0.0742994 0)
(0.0255148 -0.0539333 0)
(0.0261032 -0.0782418 0)
(0.0249878 -0.0321672 0)
(0.0244582 -0.0102918 0)
(0.0218838 0.096059 0)
(0.0282104 -0.165315 0)
(0.0229362 0.0525762 0)
(0.0239905 0.00902377 0)
(0.0213505 0.118067 0)
(0.0265686 -0.0974671 0)
(0.000586019 -0.00429408 0)
(0.000756306 -0.0103357 0)
(0.00119047 -0.00553805 0)
(0.00114794 -0.00268201 0)
(0.000336479 -0.00280844 0)
(0.00039927 -0.00308171 0)
(0.000219384 -0.00174889 0)
(0.000639813 -0.0123457 0)
(0.000351219 -0.0125913 0)
(0.000733049 -0.00796727 0)
(0.00119844 -0.00371683 0)
(0.00119674 0.000192815 0)
(0.000917351 -0.0054552 0)
(0.0006076 -0.00566417 0)
(0.000754271 -0.00527347 0)
(0.000439729 -0.00377355 0)
(0.000229522 -0.00187942 0)
(0.000105438 -0.000853139 0)
(0.000659577 -0.0117573 0)
(0.00129905 -0.0222129 0)
(0.00135052 -0.0215457 0)
(0.0019217 -0.0315625 0)
(0.00199531 -0.0306888 0)
(0.00252726 -0.0399035 0)
(0.00261524 -0.0388453 0)
(0.00312676 -0.0475186 0)
(0.00321658 -0.0462301 0)
(0.00371082 -0.0542728 0)
(0.00379558 -0.0527381 0)
(0.00426801 -0.0600842 0)
(0.00434915 -0.0583365 0)
(0.00480593 -0.0652348 0)
(0.0048842 -0.0632762 0)
(0.00532933 -0.0698004 0)
(0.00523859 -0.0718797 0)
(0.00574882 -0.0760488 0)
(0.00563947 -0.0781561 0)
(0.00614078 -0.0819769 0)
(0.00600956 -0.0840615 0)
(0.00650697 -0.087589 0)
(0.00635468 -0.0896598 0)
(0.00684697 -0.0928992 0)
(0.0066816 -0.0950459 0)
(0.0071666 -0.0979179 0)
(0.0070064 -0.100115 0)
(0.00747125 -0.102667 0)
(0.00729253 -0.104769 0)
(0.00775162 -0.107129 0)
(0.00755031 -0.109192 0)
(0.00801564 -0.111365 0)
(0.00779553 -0.113337 0)
(0.0082622 -0.115437 0)
(0.00801507 -0.117284 0)
(0.0084878 -0.119258 0)
(0.00822621 -0.121093 0)
(0.00870516 -0.122858 0)
(0.00842772 -0.124681 0)
(0.00891462 -0.126266 0)
(0.00862509 -0.128082 0)
(0.00912307 -0.129525 0)
(0.00882021 -0.131352 0)
(0.00939732 -0.12762 0)
(0.00962019 -0.130729 0)
(0.00987987 -0.128738 0)
(0.0101149 -0.131714 0)
(0.0103618 -0.129637 0)
(0.0106102 -0.132501 0)
(0.0108459 -0.130323 0)
(0.0111164 -0.13309 0)
(0.0113267 -0.130789 0)
(0.0116117 -0.133322 0)
(0.0117995 -0.131094 0)
(0.0120864 -0.133404 0)
(0.0122663 -0.131157 0)
(0.0125753 -0.133522 0)
(0.0127274 -0.130979 0)
(0.0130671 -0.133346 0)
(0.0131878 -0.130642 0)
(0.0135417 -0.132848 0)
(0.0114657 -0.135933 0)
(0.0136384 -0.130066 0)
(0.014002 -0.132149 0)
(0.0140738 -0.129252 0)
(0.0144482 -0.131222 0)
(0.0144976 -0.128219 0)
(0.0148849 -0.130076 0)
(0.0149065 -0.126967 0)
(0.0153023 -0.128656 0)
(0.014533 -0.125114 0)
(0.0152928 -0.125536 0)
(0.0156885 -0.126969 0)
(0.0156477 -0.123826 0)
(0.0160555 -0.125054 0)
(0.0159785 -0.121797 0)
(0.0163904 -0.122783 0)
(0.0162936 -0.119544 0)
(0.0166991 -0.120414 0)
(0.0165878 -0.117046 0)
(0.0169994 -0.117802 0)
(0.0168531 -0.114274 0)
(0.0172716 -0.114791 0)
(0.0164425 -0.113757 0)
(0.0138995 -0.134918 0)
(0.0170887 -0.111239 0)
(0.0175059 -0.11151 0)
(0.0172987 -0.107966 0)
(0.0177044 -0.107988 0)
(0.0179189 -0.111376 0)
(0.0181055 -0.107807 0)
(0.0178832 -0.104286 0)
(0.0182722 -0.103959 0)
(0.0185043 -0.10744 0)
(0.0186555 -0.103364 0)
(0.0184099 -0.0998656 0)
(0.018779 -0.0990509 0)
(0.0190324 -0.102522 0)
(0.0191418 -0.0979789 0)
(0.0188753 -0.094522 0)
(0.0192257 -0.093181 0)
(0.0189479 -0.0897542 0)
(0.0192864 -0.0881255 0)
(0.0195619 -0.091603 0)
(0.0196153 -0.0863419 0)
(0.0193268 -0.0827719 0)
(0.0196421 -0.0807287 0)
(0.0199893 -0.0846133 0)
(0.0199429 -0.0783145 0)
(0.0196439 -0.0748487 0)
(0.0199153 -0.0723221 0)
(0.0202376 -0.0752926 0)
(0.0201656 -0.068979 0)
(0.0198217 -0.0659141 0)
(0.0201059 -0.0629921 0)
(0.0204096 -0.0655327 0)
(0.0203407 -0.0595588 0)
(0.0200293 -0.0569459 0)
(0.0202415 -0.0533014 0)
(0.019923 -0.0508854 0)
(0.0201199 -0.0469618 0)
(0.0204363 -0.0492142 0)
(0.020298 -0.0427004 0)
(0.0199785 -0.040578 0)
(0.0201399 -0.0361553 0)
(0.0198186 -0.0342124 0)
(0.0199639 -0.0296469 0)
(0.0202817 -0.0314753 0)
(0.0200877 -0.0247897 0)
(0.0197722 -0.0232461 0)
(0.0198805 -0.0183188 0)
(0.0201902 -0.0196762 0)
(0.0199671 -0.013144 0)
(0.0196597 -0.011994 0)
(0.0197314 -0.00673677 0)
(0.0194254 -0.00576015 0)
(0.0194853 -0.000474114 0)
(0.0197801 -0.00121741 0)
(0.0195218 0.00502912 0)
(0.0192306 0.00559913 0)
(0.0192516 0.0111545 0)
(0.0195373 0.0107277 0)
(0.0192514 0.0169613 0)
(0.0189682 0.0171322 0)
(0.0189542 0.0229681 0)
(0.0186749 0.02284 0)
(0.0186505 0.0285714 0)
(0.0183736 0.0282864 0)
(0.018339 0.0339218 0)
(0.0186058 0.0344048 0)
(0.0182845 0.0396533 0)
(0.0180194 0.0391138 0)
(0.0179578 0.0447189 0)
(0.0182146 0.0453818 0)
(0.0178805 0.0503265 0)
(0.0176255 0.0495635 0)
(0.0175374 0.0550767 0)
(0.0172879 0.0541612 0)
(0.0171876 0.0596186 0)
(0.0062507 -0.079775 0)
(0.0160838 -0.12832 0)
(0.00830593 -0.129789 0)
(0.00847468 -0.133043 0)
(0.00795597 -0.131385 0)
(0.00810696 -0.134674 0)
(0.00758463 -0.132888 0)
(0.0123502 -0.128587 0)
(0.00497715 -0.175445 0)
(0.00536369 -0.176712 0)
(0.00607145 -0.175673 0)
(0.00656302 -0.176874 0)
(0.00719138 -0.175717 0)
(0.00775532 -0.176885 0)
(0.00831642 -0.175614 0)
(0.00893758 -0.176753 0)
(0.00706689 -0.10682 0)
(0.00939971 -0.175389 0)
(0.0100805 -0.176436 0)
(0.00479391 -0.174219 0)
(0.0104346 -0.17501 0)
(0.0111488 -0.175939 0)
(0.00835035 -0.178039 0)
(0.0114154 -0.174472 0)
(0.0121464 -0.175315 0)
(0.00980076 -0.173997 0)
(0.012333 -0.173792 0)
(0.0130675 -0.174551 0)
(0.0129271 -0.17607 0)
(0.0138449 -0.175214 0)
(0.013915 -0.17364 0)
(0.0146883 -0.174197 0)
(0.0146898 -0.17257 0)
(0.0154484 -0.173018 0)
(0.0154894 -0.174653 0)
(0.0162222 -0.17337 0)
(0.00764125 -0.100494 0)
(0.016305 -0.175011 0)
(0.0170061 -0.173611 0)
(0.016872 -0.171935 0)
(0.0176271 -0.172032 0)
(0.0178049 -0.173701 0)
(0.0183903 -0.171973 0)
(0.0181664 -0.170296 0)
(0.0188843 -0.170107 0)
(0.0191516 -0.171752 0)
(0.0195881 -0.169756 0)
(0.0198915 -0.171362 0)
(0.0202716 -0.169212 0)
(0.0199622 -0.167614 0)
(0.0205989 -0.166914 0)
(0.0209231 -0.16845 0)
(0.0212001 -0.166018 0)
(0.0215396 -0.167479 0)
(0.0217534 -0.164982 0)
(0.0221153 -0.166255 0)
(0.0222586 -0.163673 0)
(0.0226372 -0.164783 0)
(0.0227288 -0.161993 0)
(0.0231114 -0.163025 0)
(0.0231661 -0.159988 0)
(0.0235371 -0.16093 0)
(0.0235544 -0.157741 0)
(0.0239103 -0.158563 0)
(0.0238912 -0.155316 0)
(0.0242346 -0.155901 0)
(0.0241885 -0.152573 0)
(0.0245169 -0.152843 0)
(0.0244512 -0.149466 0)
(0.0247655 -0.149478 0)
(0.0246836 -0.146039 0)
(0.0249812 -0.145783 0)
(0.0248827 -0.142415 0)
(0.0251546 -0.141806 0)
(0.0250365 -0.13848 0)
(0.0252888 -0.137629 0)
(0.0251605 -0.134205 0)
(0.0253897 -0.133153 0)
(0.0252545 -0.129709 0)
(0.0254622 -0.128414 0)
(0.0253172 -0.124953 0)
(0.0255085 -0.123518 0)
(0.0253618 -0.120017 0)
(0.025533 -0.118453 0)
(0.025383 -0.114956 0)
(0.0255369 -0.113236 0)
(0.0253835 -0.109744 0)
(0.0255226 -0.107924 0)
(0.0253668 -0.104458 0)
(0.0254907 -0.102513 0)
(0.0253389 -0.0991565 0)
(0.0254427 -0.0970202 0)
(0.0252945 -0.0938044 0)
(0.0253822 -0.0914147 0)
(0.0252337 -0.0883034 0)
(0.0253107 -0.0856894 0)
(0.0251625 -0.0826094 0)
(0.0252297 -0.0799021 0)
(0.0250824 -0.0768419 0)
(0.0251399 -0.0740649 0)
(0.0249957 -0.0710885 0)
(0.0250424 -0.0682429 0)
(0.0248996 -0.0652973 0)
(0.0249392 -0.0624599 0)
(0.0247966 -0.0594984 0)
(0.0248299 -0.0566344 0)
(0.0246883 -0.0537247 0)
(0.0247148 -0.0507576 0)
(0.0245746 -0.0479596 0)
(0.024594 -0.044782 0)
(0.024456 -0.0421244 0)
(0.0244713 -0.0388645 0)
(0.0243328 -0.0362843 0)
(0.0243438 -0.0330462 0)
(0.024207 -0.0305147 0)
(0.024209 -0.0271547 0)
(0.0240743 -0.0247127 0)
(0.0240688 -0.0212188 0)
(0.023936 -0.0188768 0)
(0.0239262 -0.0153505 0)
(0.0237953 -0.0130916 0)
(0.0237818 -0.00948488 0)
(0.0236461 -0.00729729 0)
(0.0236321 -0.0035696 0)
(0.0234934 -0.00134927 0)
(0.0234804 0.00234642 0)
(0.0233455 0.00451873 0)
(0.0233255 0.00824821 0)
(0.023193 0.0102827 0)
(0.0231652 0.0141464 0)
(0.0230321 0.0160912 0)
(0.0230022 0.0199997 0)
(0.0228682 0.021858 0)
(0.0228355 0.0258199 0)
(0.0226992 0.0276625 0)
(0.0226644 0.0316784 0)
(0.0225288 0.0334174 0)
(0.0224884 0.0374552 0)
(0.0223527 0.0390284 0)
(0.022309 0.0430889 0)
(0.0221714 0.0446417 0)
(0.0221261 0.0487006 0)
(0.0219874 0.0501801 0)
(0.0219378 0.0542775 0)
(0.0217951 0.0555946 0)
(0.0217433 0.0598024 0)
(0.0215946 0.0610376 0)
(0.0215419 0.065309 0)
(0.0213883 0.0664199 0)
(0.0213324 0.0707171 0)
(0.0211781 0.0717203 0)
(0.0211179 0.0759901 0)
(0.0209643 0.0768945 0)
(0.0208981 0.081194 0)
(0.0207441 0.0818455 0)
(0.0206715 0.0862373 0)
(0.0205143 0.0866876 0)
(0.0204395 0.0910917 0)
(0.0202762 0.0914811 0)
(0.0201997 0.0958142 0)
(0.0203683 0.0953826 0)
(0.020125 0.100058 0)
(0.0199512 0.100405 0)
(0.0198705 0.104663 0)
(0.0214763 0.0701206 0)
(0.0224342 0.0416696 0)
(0.023129 0.0180889 0)
(0.0237597 -0.00592783 0)
(0.024349 -0.0298652 0)
(0.0248498 -0.0536429 0)
(0.0244295 -0.0452389 0)
(0.0249315 -0.0736708 0)
(0.0252101 -0.100415 0)
(0.0250974 -0.126477 0)
(0.0243925 -0.146106 0)
(0.0252801 -0.0769979 0)
(0.0233366 0.00138144 0)
(0.021648 0.0567248 0)
(0.0225522 0.0298265 0)
(0.0227841 -0.159049 0)
(0.0255959 -0.10041 0)
(0.0206071 0.0818774 0)
(0.020322 -0.16533 0)
(0.0256778 -0.122057 0)
(0.0254306 -0.140964 0)
(0.00769758 -0.136172 0)
(0.00719741 -0.134246 0)
(0.0239492 -0.0229468 0)
(0.0245605 -0.156256 0)
(0.0225161 -0.16737 0)
(0.00724083 -0.137447 0)
(0.0066978 -0.135052 0)
(0.00676017 -0.138618 0)
(0.00624263 -0.136553 0)
(0.0062806 -0.139756 0)
(0.00575705 -0.137532 0)
(0.00574278 -0.134281 0)
(0.00525565 -0.134911 0)
(0.00527924 -0.131592 0)
(0.00478012 -0.13216 0)
(0.00483805 -0.128453 0)
(0.0043103 -0.12914 0)
(0.00515161 -0.138322 0)
(0.00726785 -0.140443 0)
(0.00439022 -0.125199 0)
(0.00386956 -0.125833 0)
(0.00394771 -0.121813 0)
(0.00344661 -0.122321 0)
(0.00332539 -0.12628 0)
(0.00292611 -0.12264 0)
(0.00276883 -0.126525 0)
(0.00302316 -0.118484 0)
(0.00300683 -0.0487624 0)
(0.0092815 -0.188966 0)
(0.00904305 -0.188217 0)
(0.0109671 -0.188346 0)
(0.0113362 -0.189096 0)
(0.0128647 -0.188399 0)
(0.0134028 -0.189148 0)
(0.0147022 -0.188356 0)
(0.0154334 -0.189076 0)
(0.0164375 -0.188237 0)
(0.0173289 -0.188889 0)
(0.018051 -0.188034 0)
(0.0190132 -0.188588 0)
(0.0194992 -0.187661 0)
(0.0204737 -0.188137 0)
(0.0207582 -0.187132 0)
(0.0217141 -0.187527 0)
(0.014124 -0.187567 0)
(0.0218104 -0.186426 0)
(0.0227293 -0.186735 0)
(0.0198856 -0.186674 0)
(0.0105896 -0.127475 0)
(0.0226666 -0.185519 0)
(0.0235298 -0.185702 0)
(0.0171006 -0.121997 0)
(0.00616594 -0.0915362 0)
(0.0233568 -0.184411 0)
(0.024135 -0.184434 0)
(0.0163248 -0.189672 0)
(0.0122395 0.0291221 0)
(0.012747 0.0301744 0)
(0.0126254 0.0253496 0)
(0.0121019 0.0245596 0)
(0.0124819 0.0207676 0)
(0.0130067 0.0213124 0)
(0.0128521 0.016747 0)
(0.013372 0.0170839 0)
(0.0132082 0.0124852 0)
(0.0126675 0.0123785 0)
(0.0130153 0.00809983 0)
(0.0135519 0.00793686 0)
(0.0133542 0.00355634 0)
(0.0127903 0.00398551 0)
(0.013121 -0.000489577 0)
(0.0136817 -0.00117849 0)
(0.0134362 -0.00513836 0)
(0.0139921 -0.00604668 0)
(0.0137338 -0.00991053 0)
(0.0131633 -0.00880261 0)
(0.0134479 -0.013499 0)
(0.0140157 -0.0147459 0)
(0.0137179 -0.0182974 0)
(0.0131334 -0.0167744 0)
(0.0133925 -0.021491 0)
(0.0139814 -0.0231837 0)
(0.0136414 -0.0263264 0)
(0.0130444 -0.0242828 0)
(0.0132745 -0.0289368 0)
(0.0138619 -0.0313233 0)
(0.0134836 -0.0336684 0)
(0.0128943 -0.0311977 0)
(0.013095 -0.0357142 0)
(0.0136678 -0.0383916 0)
(0.0132707 -0.0401948 0)
(0.0138288 -0.043048 0)
(0.0134279 -0.0446469 0)
(0.0128574 -0.0416823 0)
(0.0130079 -0.0459115 0)
(0.0135886 -0.0492411 0)
(0.0131437 -0.0502012 0)
(0.0125707 -0.0468505 0)
(0.0126793 -0.0507635 0)
(0.0132006 -0.0541843 0)
(0.0127536 -0.0545813 0)
(0.0122167 -0.0511385 0)
(0.0122933 -0.0547756 0)
(0.0128089 -0.0583274 0)
(0.0123439 -0.0582991 0)
(0.0128413 -0.0619487 0)
(0.0123676 -0.0617005 0)
(0.0118629 -0.0579747 0)
(0.0118818 -0.0611839 0)
(0.0123627 -0.064985 0)
(0.0118723 -0.0642527 0)
(0.0123291 -0.0681219 0)
(0.0118355 -0.0671585 0)
(0.0122609 -0.0710001 0)
(0.0117623 -0.0698112 0)
(0.0121376 -0.0734838 0)
(0.0116448 -0.0722009 0)
(0.0112533 -0.0683367 0)
(0.0111462 -0.070582 0)
(0.0115136 -0.0744855 0)
(0.0110089 -0.0725945 0)
(0.0113497 -0.0764541 0)
(0.010845 -0.074392 0)
(0.0111683 -0.0782836 0)
(0.0106623 -0.076007 0)
(0.0109701 -0.0799976 0)
(0.0104488 -0.0773553 0)
(0.0101417 -0.0734015 0)
(0.00992249 -0.0744821 0)
(0.00961279 -0.0705606 0)
(0.00938805 -0.0714033 0)
(0.00907434 -0.0674951 0)
(0.00884784 -0.0681327 0)
(0.00852647 -0.0641926 0)
(0.00830298 -0.0646781 0)
(0.0113637 -0.0574007 0)
(0.0107334 -0.0813379 0)
(0.00797095 -0.0607309 0)
(0.00775063 -0.0610354 0)
(0.00817692 -0.05998 0)
(0.00741695 -0.0571655 0)
(0.00719753 -0.0572359 0)
(0.00750248 -0.0610031 0)
(0.00686442 -0.0534501 0)
(0.00694877 -0.0569687 0)
(0.00723014 -0.0606697 0)
(0.0127316 -0.0718607 0)
(0.0115189 -0.0824614 0)
(0.00666822 -0.056317 0)
(0.0069161 -0.059853 0)
(0.0181318 0.0510618 0)
(0.0195347 0.0165569 0)
(0.0183906 0.0227237 0)
(0.0170367 0.0531911 0)
(0.0207882 0.1201 0)
(0.0208878 0.119351 0)
(0.0209353 0.11627 0)
(0.0210305 0.115373 0)
(0.0210742 0.112426 0)
(0.0211666 0.111403 0)
(0.0212098 0.108456 0)
(0.0212986 0.107395 0)
(0.0213438 0.104418 0)
(0.0214281 0.103319 0)
(0.0214748 0.100324 0)
(0.0215562 0.0991584 0)
(0.0216024 0.0962262 0)
(0.0216802 0.0950199 0)
(0.0217268 0.0921331 0)
(0.0218 0.090928 0)
(0.0218482 0.0880263 0)
(0.0219182 0.0868092 0)
(0.021967 0.0839191 0)
(0.0220351 0.0826687 0)
(0.0220838 0.0798058 0)
(0.0221494 0.0785531 0)
(0.0221987 0.0756983 0)
(0.0222612 0.0744387 0)
(0.0223121 0.0715691 0)
(0.022373 0.0702739 0)
(0.0224251 0.0674018 0)
(0.0224853 0.0660625 0)
(0.0225368 0.0632386 0)
(0.0225967 0.0618324 0)
(0.0226455 0.0591663 0)
(0.0227036 0.0577275 0)
(0.0227521 0.0550976 0)
(0.0228089 0.0536651 0)
(0.0228589 0.0509901 0)
(0.0229142 0.0495729 0)
(0.022964 0.0469325 0)
(0.0230197 0.0454531 0)
(0.023069 0.0428259 0)
(0.0231248 0.0413069 0)
(0.0231753 0.0386432 0)
(0.0232294 0.0371621 0)
(0.023282 0.0344083 0)
(0.0233333 0.0330286 0)
(0.0233888 0.0301997 0)
(0.0234374 0.0288755 0)
(0.0234913 0.0261926 0)
(0.023541 0.0247448 0)
(0.0235913 0.0222195 0)
(0.0236433 0.0206375 0)
(0.0236927 0.0181345 0)
(0.0237452 0.0165272 0)
(0.0237959 0.0139711 0)
(0.0238468 0.0124206 0)
(0.0238979 0.00984493 0)
(0.0239478 0.00832546 0)
(0.0239994 0.00572895 0)
(0.0240491 0.00420845 0)
(0.0241007 0.00160987 0)
(0.0241487 0.000152075 0)
(0.0242004 -0.00244897 0)
(0.024247 -0.00386264 0)
(0.0242991 -0.00648464 0)
(0.0243469 -0.00794598 0)
(0.0243978 -0.0105169 0)
(0.0244476 -0.0120797 0)
(0.0244964 -0.0145587 0)
(0.0245465 -0.0161477 0)
(0.0245939 -0.018586 0)
(0.0246448 -0.020192 0)
(0.0246916 -0.0226282 0)
(0.0247428 -0.0242296 0)
(0.0247906 -0.026737 0)
(0.0248406 -0.0282728 0)
(0.0248887 -0.0307883 0)
(0.0249385 -0.0323219 0)
(0.024985 -0.0347459 0)
(0.0250358 -0.0363514 0)
(0.0250803 -0.0386852 0)
(0.0251326 -0.0403654 0)
(0.0251774 -0.0427151 0)
(0.02523 -0.044407 0)
(0.0252757 -0.0468194 0)
(0.025327 -0.0484547 0)
(0.0253722 -0.0508736 0)
(0.0254229 -0.0524591 0)
(0.0254685 -0.054918 0)
(0.0255185 -0.0564624 0)
(0.0255652 -0.0589866 0)
(0.0256153 -0.060527 0)
(0.0256595 -0.0629411 0)
(0.025711 -0.064549 0)
(0.0257504 -0.0667808 0)
(0.0213794 0.106331 0)
(0.0258037 -0.0684462 0)
(0.025842 -0.0706917 0)
(0.0258966 -0.0723697 0)
(0.0259357 -0.0747001 0)
(0.0259907 -0.0763544 0)
(0.0260292 -0.0787157 0)
(0.0219853 0.0855195 0)
(0.0260845 -0.0803477 0)
(0.0261227 -0.0827429 0)
(0.026178 -0.0843617 0)
(0.0262155 -0.0867581 0)
(0.0262717 -0.0883801 0)
(0.0263069 -0.0907332 0)
(0.0225496 0.0645308 0)
(0.0263647 -0.0924038 0)
(0.0263968 -0.0946543 0)
(0.026457 -0.0964299 0)
(0.0264852 -0.0985629 0)
(0.0265474 -0.100383 0)
(0.0265713 -0.102428 0)
(0.0229643 0.0482682 0)
(0.0266359 -0.104269 0)
(0.0266572 -0.106314 0)
(0.0267242 -0.108164 0)
(0.0267425 -0.110226 0)
(0.0233852 0.0314536 0)
(0.0268109 -0.112045 0)
(0.0268265 -0.114173 0)
(0.0268955 -0.115911 0)
(0.0269094 -0.118103 0)
(0.026979 -0.119772 0)
(0.0269906 -0.121961 0)
(0.0238934 0.0109885 0)
(0.0270633 -0.12373 0)
(0.0270695 -0.12583 0)
(0.0271454 -0.127687 0)
(0.0271438 -0.12963 0)
(0.0272215 -0.131453 0)
(0.0272141 -0.133366 0)
(0.0223626 0.0687351 0)
(0.0237383 0.0157505 0)
(0.0213798 0.101614 0)
(0.0256174 -0.06181 0)
(0.0250273 -0.0370248 0)
(0.0243574 -0.00943979 0)
(0.0243995 -0.00963054 0)
(0.0231116 0.040373 0)
(0.0272954 -0.135192 0)
(0.0272808 -0.137092 0)
(0.026249 -0.0891922 0)
(0.0273663 -0.138985 0)
(0.0273426 -0.140813 0)
(0.0274319 -0.142788 0)
(0.0273977 -0.14453 0)
(0.0267487 -0.112205 0)
(0.0272569 -0.138862 0)
(0.0247902 -0.0257671 0)
(0.0274923 -0.146541 0)
(0.0274448 -0.148236 0)
(0.0218947 0.0850907 0)
(0.0208487 0.116644 0)
(0.0251811 -0.0419812 0)
(0.0275462 -0.15032 0)
(0.0274822 -0.151947 0)
(0.0275861 -0.154085 0)
(0.0275069 -0.155639 0)
(0.0254726 -0.0540696 0)
(0.0276137 -0.157735 0)
(0.0275166 -0.159262 0)
(0.0257597 -0.0660794 0)
(0.0273904 -0.153439 0)
(0.0276351 -0.161404 0)
(0.0275065 -0.162803 0)
(0.0260413 -0.07783 0)
(0.0276341 -0.165056 0)
(0.0274673 -0.166256 0)
(0.0263296 -0.0901128 0)
(0.0275991 -0.168521 0)
(0.0266993 -0.106129 0)
(0.0269593 -0.117596 0)
(0.00635403 -0.0552392 0)
(0.00611601 -0.0519281 0)
(0.0155345 -0.12084 0)
(0.0227985 0.0523881 0)
(0.00655637 -0.0584519 0)
(0.0071255 -0.0633199 0)
(0.0234578 0.0269138 0)
(0.0272177 -0.129518 0)
(0.0240503 0.00309849 0)
(0.0247341 -0.0250361 0)
(0.0253195 -0.0492414 0)
(0.0258708 -0.0726722 0)
(0.0269937 -0.124218 0)
(0.0264978 -0.100302 0)
(0.0239123 -0.183076 0)
(0.0231727 -0.183098 0)
(0.0188668 0.0833998 0)
(0.01896 0.0783466 0)
(0.0191786 0.0783538 0)
(0.0192668 0.0732148 0)
(0.0194808 0.0731224 0)
(0.0195615 0.0680458 0)
(0.0197749 0.0677174 0)
(0.0198364 0.0627077 0)
(0.0200649 0.0618671 0)
(0.0201056 0.0568335 0)
(0.0203428 0.0557957 0)
(0.0203785 0.050776 0)
(0.0206075 0.0497506 0)
(0.0206441 0.0447947 0)
(0.0208609 0.0436573 0)
(0.0208921 0.0389017 0)
(0.0211047 0.0374159 0)
(0.0211206 0.0328171 0)
(0.0213388 0.0310215 0)
(0.0213399 0.0264004 0)
(0.0215596 0.0244323 0)
(0.0215562 0.0199194 0)
(0.0217764 0.0176436 0)
(0.0217629 0.0133825 0)
(0.0219864 0.0109845 0)
(0.0219598 0.00679254 0)
(0.0221809 0.00441401 0)
(0.0221481 0.000136648 0)
(0.0219209 0.00261444 0)
(0.0221026 -0.00398687 0)
(0.0223285 -0.00659834 0)
(0.0222785 -0.0106572 0)
(0.0224999 -0.0134177 0)
(0.0224402 -0.0173724 0)
(0.0226587 -0.0202313 0)
(0.0225808 -0.0240699 0)
(0.0228048 -0.0270328 0)
(0.0227167 -0.030829 0)
(0.0229396 -0.0338518 0)
(0.0228469 -0.0375041 0)
(0.0230614 -0.0406972 0)
(0.0229494 -0.0441042 0)
(0.0231693 -0.0475697 0)
(0.0230427 -0.0507948 0)
(0.0232626 -0.0543307 0)
(0.0231331 -0.0573596 0)
(0.0233396 -0.0609389 0)
(0.0231902 -0.0636868 0)
(0.0233976 -0.0674616 0)
(0.0232244 -0.0700524 0)
(0.023436 -0.0738552 0)
(0.0232551 -0.0762635 0)
(0.0234564 -0.080095 0)
(0.0232633 -0.0822548 0)
(0.023457 -0.0861982 0)
(0.0232528 -0.0881142 0)
(0.0234349 -0.0921252 0)
(0.0232126 -0.093748 0)
(0.0233862 -0.0978295 0)
(0.0231366 -0.0991838 0)
(0.0233115 -0.103283 0)
(0.0230451 -0.104463 0)
(0.0228738 -0.100502 0)
(0.0227688 -0.105458 0)
(0.0229305 -0.109511 0)
(0.0226406 -0.110305 0)
(0.0227881 -0.114403 0)
(0.0224832 -0.114903 0)
(0.0226143 -0.119062 0)
(0.0222985 -0.119213 0)
(0.0224118 -0.123366 0)
(0.022087 -0.123219 0)
(0.0221812 -0.127296 0)
(0.0218486 -0.126894 0)
(0.0219216 -0.130884 0)
(0.0215808 -0.130268 0)
(0.0229808 -0.0657557 0)
(0.0216299 -0.134217 0)
(0.0212802 -0.133427 0)
(0.0227637 -0.0408135 0)
(0.0219882 -0.119135 0)
(0.0213427 0.0215531 0)
(0.0207076 0.0394461 0)
(0.0198412 0.0587061 0)
(0.0212406 -0.129485 0)
(0.0209363 -0.132442 0)
(0.0209531 -0.136289 0)
(0.0206071 -0.135126 0)
(0.0206016 -0.138852 0)
(0.0202521 -0.137505 0)
(0.0202129 -0.141148 0)
(0.0198671 -0.139577 0)
(0.0197836 -0.142933 0)
(0.0194543 -0.141368 0)
(0.0193385 -0.144543 0)
(0.0230424 -0.0841984 0)
(0.0223632 -0.0207424 0)
(0.0218679 -0.00143034 0)
(0.0224998 -0.106297 0)
(0.0273401 -0.163808 0)
(0.0272631 -0.167055 0)
(0.0271378 -0.16459 0)
(0.0270291 -0.16771 0)
(0.0274493 -0.140977 0)
(0.0190159 -0.142952 0)
(0.0188647 -0.146195 0)
(0.0269057 -0.165168 0)
(0.0267691 -0.168174 0)
(0.0185544 -0.144353 0)
(0.0183636 -0.147505 0)
(0.0210624 0.127648 0)
(0.0211023 0.125474 0)
(0.0211475 0.124432 0)
(0.0211889 0.122257 0)
(0.0212314 0.121224 0)
(0.0212736 0.119067 0)
(0.0213142 0.118026 0)
(0.0213572 0.115869 0)
(0.0213962 0.114828 0)
(0.0214401 0.112667 0)
(0.0214776 0.111629 0)
(0.0215203 0.109555 0)
(0.0215579 0.108448 0)
(0.021598 0.106491 0)
(0.0216377 0.105265 0)
(0.0216797 0.103247 0)
(0.0217182 0.10205 0)
(0.0217636 0.0999297 0)
(0.0217979 0.0988549 0)