/*--------------------------------*- C++ -*----------------------------------*\
| =========                 |                                                 |
| \\      /  F ield         | OpenFOAM: The Open Source CFD Toolbox           |
|  \\    /   O peration     | Version:  v2012                                 |
|   \\  /    A nd           | Website:  www.openfoam.com                      |
|    \\/     M anipulation  |                                                 |
\*---------------------------------------------------------------------------*/
FoamFile
{
    version     2.0;
    format      ascii;
    class       surfaceVectorField;
    location    "850";
    object      Uf_0;
}
// * * * * * * * * * * * * * * * * * * * * * * * * * * * * * * * * * * * * * //

dimensions      [0 1 -1 0 0 0 0];


internalField   nonuniform List<vector> 
20580
(
(1.31227 0.0409059 -3.54039e-22)
(1.31638 0.0436135 -6.52388e-20)
(1.31017 0.0438766 4.56291e-20)
(1.12869 -0.0425935 -1.53255e-21)
(1.12929 -0.0445661 -1.24538e-20)
(1.13193 -0.042824 -2.87209e-20)
(1.12793 -0.0396991 3.14122e-20)
(1.12513 -0.041547 -1.89463e-21)
(-0.195411 -0.0145295 -2.13305e-20)
(-0.182091 -0.0157844 0)
(-0.195124 -0.0153874 0)
(1.00376 -0.000944125 -2.37423e-21)
(1.00338 -0.000874537 -1.30202e-21)
(1.00354 -0.000520621 -2.63699e-21)
(1.1444 -0.0675665 -2.77249e-20)
(1.1434 -0.070938 -2.71096e-21)
(1.14026 -0.0683958 -2.35525e-21)
(1.11443 0.0303285 -5.48636e-21)
(1.11567 0.032375 -1.95132e-20)
(1.02338 -0.00144356 0)
(1.02288 -0.00147861 0)
(1.02204 -0.000927643 0)
(-0.170772 0.00543539 -2.88186e-20)
(-0.168097 0.00585045 0)
(-0.185157 0.00349884 1.89251e-22)
(0.991783 -0.0248093 -8.97756e-21)
(0.992075 -0.0236918 -6.85023e-21)
(0.992638 -0.0241349 1.45142e-22)
(1.24014 -0.179569 1.1534e-21)
(1.23346 -0.177728 2.10811e-20)
(1.23558 -0.184718 1.03835e-21)
(1.00328 -0.0153311 0)
(1.00363 -0.0158558 2.79872e-23)
(1.00344 -0.0160883 0)
(0.983593 -0.0449561 0)
(0.98343 -0.0462568 0)
(0.984668 -0.0452712 0)
(-0.302265 -0.0120489 2.12292e-20)
(-0.31294 -0.0130513 0)
(-0.295053 -0.0106755 0)
(1.20303 0.00732136 -3.59215e-20)
(1.20657 0.0064834 -8.3144e-21)
(1.20294 0.00386623 -6.04296e-21)
(1.21209 0.142415 7.23663e-21)
(1.21291 0.144153 -3.82937e-20)
(1.17376 0.143863 -1.08256e-20)
(-0.306021 -0.020233 -2.20617e-20)
(-0.311624 -0.0184235 -4.24377e-20)
(-0.311402 -0.0169925 0)
(1.06265 -0.0312697 8.12998e-21)
(1.06429 -0.0312892 -1.11223e-20)
(1.06373 -0.0328533 -9.2531e-21)
(0.918733 -0.00515335 -6.12095e-21)
(0.919652 -0.00706789 -1.08923e-19)
(0.829903 -0.00211763 -1.06258e-19)
(1.31427 0.0369005 0)
(1.30819 0.0382209 -4.4555e-20)
(1.22423 -0.011724 -3.97155e-21)
(1.22108 -0.0145741 5.47689e-20)
(1.21961 -0.0101648 -7.02779e-20)
(1.07286 -0.140837 5.50587e-21)
(1.06833 -0.141011 4.44614e-21)
(1.07063 -0.136493 9.31656e-21)
(0.376234 -0.224781 -3.09766e-21)
(0.25344 -0.168717 -2.65952e-20)
(0.124565 -0.114436 -6.73674e-20)
(1.0001 -0.00035153 -4.7041e-23)
(1.00016 -0.000464664 -4.24097e-23)
(1.0001 -0.000295378 1.03832e-22)
(0.412337 -0.0310167 -1.76573e-20)
(0.402284 -0.0317591 -1.17453e-19)
(0.324471 -0.0287521 -2.03578e-20)
(1.20756 0.101602 1.65439e-20)
(1.2084 0.104323 -1.42478e-20)
(1.21073 0.1022 3.2524e-21)
(0.646875 0.0865831 -2.31714e-20)
(0.592108 0.0824118 2.08591e-20)
(0.600714 0.0850087 -4.22751e-20)
(0.353905 0.0214086 -7.34514e-20)
(0.361507 0.0224356 0)
(0.299745 0.0202813 4.90072e-20)
(-0.0876399 0.0188169 1.67489e-22)
(-0.10297 0.0167809 2.43723e-20)
(-0.108774 0.0157126 2.34435e-20)
(1.03721 -0.0197988 0)
(1.03662 -0.020503 0)
(1.03607 -0.0194092 0)
(-0.163514 -0.0253074 1.8883e-20)
(-0.179313 -0.0249015 7.77458e-20)
(-0.156858 -0.0257947 -1.44237e-20)
(1.11589 0.0291212 -5.2773e-21)
(1.11304 0.0288707 1.89611e-20)
(1.30549 0.0542056 -3.09989e-20)
(1.30358 0.0580399 1.30325e-19)
(1.30021 0.0529848 1.0707e-19)
(-0.119855 0.00743849 -4.3801e-20)
(-0.12384 0.00698894 6.08668e-21)
(-0.0977271 0.00968271 -1.11151e-20)
(1.19776 -0.150694 5.15178e-20)
(1.20075 -0.146648 8.93268e-20)
(1.20216 -0.152951 4.95572e-20)
(-0.085692 0.0196764 3.86235e-21)
(-0.0655384 0.0227673 3.51577e-20)
(-0.0798461 0.0200533 3.57878e-21)
(1.00003 -0.000228667 0)
(1.0001 -0.000420796 -5.78443e-22)
(0.544173 -0.10579 -5.60271e-20)
(0.463093 -0.0914587 0)
(0.438165 -0.0883356 -4.6503e-20)
(-0.192286 -0.015999 2.05208e-20)
(-0.186637 -0.0156815 0)
(-0.170638 -0.0158407 0)
(1.0197 -0.0643483 -5.74319e-22)
(1.02052 -0.0629151 7.02452e-22)
(1.02139 -0.0648041 7.87082e-22)
(-0.182342 -0.004214 -2.21551e-20)
(-0.16181 -0.00219922 -1.43532e-20)
(-0.1791 -0.00325189 1.55855e-20)
(-0.0729144 0.0212164 -1.8935e-20)
(-0.0666626 0.0221707 5.34251e-21)
(-0.245473 -0.0128945 1.76128e-20)
(-0.248364 -0.0132989 6.17466e-20)
(1.1092 -0.568681 0)
(1.09936 -0.573831 -5.62897e-20)
(1.0966 -0.583926 5.9068e-20)
(-0.058597 0.0232392 -1.04086e-20)
(-0.0646952 0.0225238 1.88792e-20)
(-0.0812983 0.0193185 3.1811e-20)
(1.02903 -0.0385561 4.2125e-21)
(1.02786 -0.0387017 -7.39993e-24)
(1.02811 -0.0372742 0)
(1.03132 0.000529688 6.52139e-21)
(1.03114 0.000465481 6.47476e-21)
(1.25789 0.124047 -1.31869e-20)
(1.24144 0.129144 2.27482e-22)
(1.26122 0.125482 2.19945e-20)
(1.08169 -0.0942047 -1.12247e-20)
(1.07895 -0.0912369 1.70004e-20)
(1.08288 -0.0913987 0)
(0.983792 -0.0433893 1.43376e-20)
(0.982271 -0.0443083 -6.89594e-21)
(-0.343083 -0.0169577 -2.89848e-20)
(-0.343769 -0.0175124 2.00245e-20)
(-0.363007 -0.0172995 6.11464e-20)
(0.973819 -0.0398537 -8.36759e-21)
(0.97511 -0.0394242 -8.18051e-21)
(0.97457 -0.0412315 1.33597e-20)
(1.21132 0.141126 2.77745e-20)
(1.2326 0.142157 4.73189e-20)
(1.15656 0.048441 -3.44678e-20)
(1.15956 0.0494049 1.8456e-20)
(1.15721 0.0514092 -3.04498e-20)
(-0.286915 -0.0113986 -1.48507e-20)
(-0.270097 -0.00909976 3.44181e-20)
(-0.28925 -0.0113908 -1.33723e-20)
(1.01914 -0.0657828 0)
(1.0182 -0.0638387 6.29433e-22)
(1.31045 0.0561065 2.43364e-20)
(1.30732 0.0513259 -6.01588e-20)
(-0.187411 -0.00440013 1.17569e-20)
(-0.201604 -0.00679791 5.26025e-20)
(0.611509 0.0961991 5.09912e-20)
(0.563381 0.0949001 2.00207e-21)
(0.552 0.0923222 3.10963e-20)
(-0.34075 -0.0130058 0)
(-0.335571 -0.0132174 0)
(-0.32192 -0.0125112 5.02084e-20)
(1.00298 -0.0147926 0)
(1.00314 -0.0145908 0)
(0.704812 0.0918869 2.92362e-20)
(0.69502 0.0898413 -4.93671e-20)
(0.995633 -0.0133466 2.65982e-22)
(0.995805 -0.0137871 2.61972e-21)
(0.995267 -0.0143045 -6.42576e-23)
(1.08018 -0.0962854 1.51437e-21)
(1.0839 -0.0960999 2.37256e-21)
(0.86487 -0.539407 3.18198e-21)
(0.890403 -0.535752 -1.90281e-21)
(0.873943 -0.516787 -6.89817e-21)
(0.837816 -0.542571 2.67963e-23)
(0.856744 -0.569262 2.74683e-23)
(-0.345846 -0.0159322 6.86927e-20)
(-0.352983 -0.0154784 4.28861e-20)
(0.697613 -0.184513 5.33328e-20)
(0.691423 -0.201417 -2.11162e-20)
(1.04203 -0.0654156 -9.74202e-21)
(1.04024 -0.0658233 -1.71176e-21)
(1.04072 -0.0637735 4.52232e-22)
(-0.169812 -0.0208403 -6.62784e-20)
(-0.186057 -0.0187022 9.07559e-20)
(-0.18077 -0.0201351 -1.12428e-19)
(-0.205543 -0.0217799 -2.24229e-20)
(-0.223969 -0.0204295 -4.42664e-20)
(-0.207834 -0.022705 9.52646e-20)
(1.24003 -0.0110613 -3.32558e-20)
(1.24079 -0.0147494 -5.04898e-20)
(1.24457 -0.0119337 1.82811e-20)
(1.00115 -0.049234 5.27382e-23)
(1.00005 -0.0489648 -6.196e-22)
(1.0006 -0.0506188 -5.66861e-22)
(-0.333666 -0.0130462 0)
(-0.352513 -0.0151101 0)
(1.17227 0.0418288 2.51145e-20)
(1.17049 0.0392675 -1.81719e-20)
(1.17375 0.0393461 -1.72788e-20)
(1.04642 -0.116703 -2.19193e-21)
(1.04315 -0.114927 1.60721e-21)
(1.04596 -0.112793 7.99112e-22)
(-0.295498 -0.0200947 -1.07105e-19)
(-0.287172 -0.0198755 -2.17027e-20)
(1.03704 -0.00907193 -6.9255e-21)
(1.03681 -0.00973759 1.5106e-21)
(1.03803 -0.00959347 -7.42657e-21)
(0.417214 -0.0304101 6.63301e-20)
(0.508942 -0.0370332 4.37254e-20)
(1.01258 -0.0323991 -1.74449e-21)
(1.01206 -0.0313115 -8.20545e-22)
(1.01168 -0.0320199 -6.84979e-22)
(1.04402 -0.0654356 4.50913e-21)
(1.04314 -0.0675659 -1.13561e-20)
(1.32153 -0.19959 2.13378e-20)
(1.2927 -0.186731 1.84893e-20)
(1.23169 -0.176956 4.95379e-20)
(1.19254 -0.149338 2.78491e-20)
(1.19374 -0.155318 -3.59572e-20)
(-0.313604 -0.0131113 3.02103e-20)
(-0.306563 -0.0140611 -8.01777e-20)
(-0.292805 -0.00950091 -1.39117e-20)
(-0.33327 -0.0137934 0)
(-0.315534 -0.0123728 0)
(-0.189849 -0.0234766 -3.9336e-20)
(-0.187226 -0.0236827 -9.61485e-20)
(-0.169923 -0.0251557 -7.76043e-20)
(1.07559 -0.144533 -5.6809e-21)
(1.07706 -0.139952 1.4311e-21)
(-0.234801 -0.0092975 -2.40627e-20)
(-0.255687 -0.013416 -4.63904e-20)
(-0.233763 -0.00846108 1.00584e-20)
(0.993591 -0.0296036 -2.38319e-21)
(0.994218 -0.0298987 5.421e-21)
(0.994063 -0.0286463 5.73238e-21)
(-0.154086 -0.0261139 -6.17822e-20)
(-0.173557 -0.0239663 3.47805e-20)
(0.971599 -0.0405321 0)
(0.972758 -0.0379817 1.47823e-20)
(1.11742 0.0278874 0)
(1.11844 0.0297313 0)
(-0.315428 -0.016411 -1.43562e-21)
(-0.317835 -0.0176449 -2.26411e-21)
(-0.193963 -0.0232639 -3.3255e-23)
(-0.208577 -0.0221856 5.53086e-20)
(-0.220374 -0.0131881 8.20714e-21)
(-0.227241 -0.014698 -5.90696e-20)
(-0.239252 -0.0154047 -1.47326e-20)
(1.10316 -0.546064 0)
(1.0963 -0.527327 -4.54724e-20)
(1.08196 -0.539075 -2.22331e-20)
(1.0216 -0.0411769 -2.68711e-21)
(1.02056 -0.0412546 -2.98671e-21)
(1.02179 -0.0425125 -1.85183e-21)
(1.20555 0.134056 -1.57541e-20)
(1.2079 0.135823 0)
(1.23453 0.135232 0)
(-0.345491 -0.0169526 -5.85734e-20)
(-0.346197 -0.0174971 -1.1933e-20)
(-0.3653 -0.018608 6.1756e-21)
(1.26933 -0.298709 0)
(1.27729 -0.30044 -7.22849e-21)
(1.2709 -0.307173 0)
(1.1999 0.132678 4.06544e-20)
(1.1561 0.133206 -1.96425e-20)
(0.807925 -0.182882 -6.17025e-20)
(0.805843 -0.171774 -4.28881e-20)
(0.817252 -0.17614 -2.79488e-20)
(0.816587 -0.217919 2.80655e-20)
(0.814162 -0.205435 -4.91301e-20)
(0.802857 -0.214828 -2.18094e-20)
(0.995555 -0.0528222 -1.5114e-21)
(0.996852 -0.0529542 3.75028e-21)
(0.996159 -0.054796 2.04077e-21)
(1.0335 -0.0372844 -6.57685e-21)
(1.03456 -0.0385141 1.86725e-21)
(1.03446 -0.0370245 1.56306e-20)
(1.23751 -0.0397818 0)
(1.23845 -0.0434016 0)
(1.24197 -0.0391557 0)
(1.03243 -0.0359575 7.78694e-21)
(1.0322 -0.0375552 0)
(-0.203373 -0.0221265 -9.31173e-21)
(-0.18704 -0.0238416 2.33606e-20)
(1.11589 0.0260096 1.46769e-20)
(1.11899 0.026386 0)
(1.06119 -0.0312927 7.72334e-22)
(1.06171 -0.0299928 -8.58997e-22)
(1.0543 -0.186044 -1.55553e-20)
(1.05689 -0.191734 -3.03983e-21)
(1.05032 -0.189921 -4.13505e-21)
(1.0302 -0.0385702 -9.61508e-21)
(1.03025 -0.0399711 4.05685e-21)
(1.34251 -0.107784 -1.67479e-20)
(1.34459 -0.103758 -8.04425e-20)
(1.35081 -0.108683 8.45354e-21)
(1.26365 -0.112535 -9.31964e-20)
(1.25986 -0.109616 -2.93185e-20)
(1.25875 -0.114601 -5.37891e-21)
(1.29228 0.0780815 3.48317e-20)
(1.28994 0.0811111 -1.13291e-21)
(1.295 0.0816626 3.75499e-22)
(1.15369 0.0474507 1.49102e-20)
(1.15573 0.0456357 2.70123e-20)
(1.02539 -0.0132364 1.04348e-20)
(1.02508 -0.0136581 -4.40189e-21)
(1.02605 -0.0137799 5.02309e-21)
(1.02399 -0.00126902 0)
(1.02394 -0.00191226 -6.0374e-21)
(-0.208425 -0.0134705 -1.98036e-20)
(-0.197503 -0.0148455 3.87118e-20)
(-0.155602 -0.0216043 5.37362e-20)
(-0.150252 -0.0231746 3.97595e-20)
(1.13324 -0.455425 -1.43335e-20)
(1.12235 -0.46475 -1.84241e-21)
(1.14037 -0.46939 3.27883e-20)
(1.05235 -0.0263607 5.9075e-21)
(1.05056 -0.0263101 -1.04294e-20)
(1.05116 -0.0251673 4.53504e-21)
(1.03326 -0.0655745 0)
(1.03492 -0.066532 0)
(1.03355 -0.0677258 0)
(-0.26255 -0.00837004 2.19043e-20)
(-0.248771 -0.0065951 -2.98332e-20)
(-0.262793 -0.00828656 -3.29403e-20)
(1.05282 0.0128187 5.59929e-21)
(1.03222 0.00713986 -1.38895e-19)
(0.96111 0.00939141 -7.22908e-20)
(0.601852 -0.269439 3.53134e-20)
(0.624975 -0.261918 5.79476e-20)
(0.621035 -0.292313 -2.15847e-20)
(1.02285 -0.0413654 2.32891e-21)
(1.02159 -0.0398884 -1.75845e-21)
(1.18458 -0.235383 -2.04781e-20)
(1.18346 -0.227814 -2.07231e-20)
(1.17811 -0.233433 -1.24162e-20)
(-0.173535 0.00109225 -2.84765e-20)
(-0.192043 -0.000721612 2.81481e-20)
(-0.176246 0.000577873 2.54858e-20)
(1.22862 0.00907989 -9.53636e-21)
(1.23198 0.0104408 4.67416e-20)
(1.22984 0.00603785 3.7319e-20)
(1.06393 -0.140227 -9.37112e-21)
(1.06578 -0.144721 4.06021e-21)
(1.16119 -0.117565 3.30333e-21)
(1.16402 -0.113432 -6.79851e-21)
(1.1584 -0.11417 2.03641e-20)
(0.663829 -0.129313 -1.13921e-19)
(0.638208 -0.117662 8.25914e-22)
(-0.111942 0.00823722 0)
(-0.136996 0.00604631 0)
(1.24597 -0.182109 0)
(1.24367 -0.175832 0)
(-0.214271 -0.0140899 -3.79251e-20)
(-0.230174 -0.01395 4.96937e-20)
(-0.233803 -0.0141737 -2.64351e-20)
(0.714701 -0.182193 3.60875e-20)
(-0.186719 -0.0235149 8.85574e-20)
(-0.202802 -0.0220506 -4.97293e-20)
(0.853945 -0.147478 -1.06342e-20)
(0.844072 -0.146645 0)
(0.848934 -0.138439 0)
(1.22582 0.0168237 2.62693e-21)
(1.22209 0.0172585 -2.37806e-20)
(1.22516 0.0206645 -6.72199e-20)
(1.32818 -0.206551 -5.80955e-20)
(1.35113 -0.206231 -6.43663e-20)
(0.982062 -0.080851 -4.63227e-21)
(0.98183 -0.0781672 -3.49514e-21)
(0.984079 -0.0788013 4.01045e-21)
(0.992928 -0.0293875 -3.60272e-22)
(0.993062 -0.03073 -6.08843e-21)
(0.744639 -0.37102 -1.18606e-21)
(0.727281 -0.386215 -3.43239e-20)
(0.751443 -0.390013 -8.11531e-21)
(0.379329 -0.0171718 1.38222e-22)
(0.318337 -0.0157398 8.37385e-20)
(0.313076 -0.0145403 -1.33719e-20)
(1.02836 -0.111108 4.14084e-22)
(1.02822 -0.113901 -2.74641e-21)
(1.02525 -0.112407 6.67295e-22)
(1.0372 -0.00840961 -1.72456e-20)
(1.03611 -0.00865505 1.44219e-20)
(-0.199219 -0.0227485 2.99901e-20)
(-0.18547 0.00229189 3.26501e-20)
(-0.183238 0.0035151 9.43405e-21)
(-0.201039 4.47542e-05 -1.07052e-20)
(1.18757 -0.241085 -1.5117e-20)
(1.19161 -0.235295 -4.46706e-21)
(1.21868 0.130887 1.37268e-20)
(1.18504 0.130132 3.26036e-20)
(1.34079 -0.113517 0)
(1.33541 -0.108416 0)
(1.26709 -0.115472 5.01082e-20)
(1.26824 -0.11052 -6.26248e-20)
(1.08737 -0.0103206 2.88163e-20)
(1.09739 -0.0141662 3.08875e-20)
(1.18333 -0.0193343 9.55771e-20)
(0.975352 -0.0512028 0)
(0.97634 -0.0527124 1.34194e-20)
(0.974406 -0.0533822 0)
(0.984637 -0.0311946 -5.90469e-21)
(0.983739 -0.0306634 3.77981e-21)
(0.98481 -0.0297926 -1.06216e-20)
(1.00311 -0.0123186 7.50368e-24)
(1.00301 -0.0126099 -6.1405e-22)
(1.00275 -0.0117763 -4.76425e-22)
(-0.197342 -0.0159112 -1.11571e-20)
(-0.210861 -0.0168948 -5.51462e-20)
(1.21851 0.0117175 0)
(1.21921 0.0151404 0)
(1.21629 0.0137259 1.88821e-20)
(1.11676 0.00712386 0)
(1.11826 0.00827931 0)
(1.11905 0.00632866 0)
(1.00021 -0.000850957 0)
(1.00022 -0.000745739 3.0357e-21)
(1.00033 -0.00101342 3.59669e-23)
(-0.095118 0.0169689 -2.16566e-20)
(-0.0996645 0.0171225 7.26354e-21)
(-0.0772776 0.0204393 3.54352e-21)
(1.23717 -0.0353448 0)
(1.23313 -0.0396044 0)
(1.25773 0.121575 -1.63008e-20)
(1.25931 0.122187 -1.65254e-20)
(-0.291837 -0.0113564 -2.65174e-21)
(-0.30974 -0.014782 -1.47043e-20)
(-0.121852 0.0126047 -1.20411e-20)
(-0.138627 0.0103999 5.19668e-20)
(-0.118603 0.0115483 7.82371e-20)
(-0.127384 0.012238 0)
(-0.103647 0.0150076 0)
(-0.343932 -0.0167926 -6.87901e-20)
(-0.325136 -0.0166749 0)
(1.05823 -0.182075 2.24662e-21)
(1.05218 -0.180448 -9.71395e-21)
(0.0618245 0.00618303 1.21801e-20)
(0.0680105 0.00658787 5.29514e-20)
(0.0333389 0.00455606 2.96108e-21)
(1.00268 -0.0142894 0)
(1.00241 -0.013765 -4.43467e-22)
(1.00252 -0.0135385 0)
(1.02582 -0.0127591 3.27011e-21)
(1.02478 -0.012573 1.28556e-20)
(1.26115 -0.0530468 3.03552e-20)
(1.261 -0.0576706 -5.25506e-21)
(1.25673 -0.0553075 6.94546e-22)
(1.00206 -0.000685671 1.39818e-22)
(1.00186 -0.000876569 0)
(1.00174 -0.000575928 -2.49453e-21)
(-0.216691 -0.0129058 1.46885e-21)
(-0.201529 -0.0126777 -8.7643e-21)
(0.616806 0.0686853 -2.00471e-20)
(0.686339 0.0730531 -3.03781e-20)
(0.628426 0.0709505 1.42937e-20)
(1.17643 0.118927 -2.19425e-20)
(1.17201 0.116815 0)
(1.11637 0.116511 -2.79301e-20)
(1.02624 -0.0123478 -5.30065e-21)
(1.02681 -0.0129339 -2.16061e-21)
(1.16901 0.0461132 2.71349e-21)
(1.17073 0.0438028 5.79167e-20)
(1.16735 0.0437088 4.7766e-20)
(1.18047 0.120962 4.73135e-20)
(1.22799 0.119887 2.08891e-20)
(1.0541 0.0146857 5.59919e-20)
(1.14637 0.00718866 9.15723e-20)
(1.12591 -0.555126 5.54784e-20)
(1.06179 -0.177735 6.60682e-21)
(1.05958 -0.172455 0)
(1.06496 -0.173476 0)
(1.2269 0.0134149 2.43742e-20)
(1.22398 0.0090086 1.58853e-20)
(-0.275248 -0.0155693 -1.57231e-20)
(-0.271997 -0.014607 -2.62162e-20)
(-0.173373 0.00476281 0)
(-0.189781 0.00125666 -3.55187e-20)
(1.30106 0.0605449 8.14223e-22)
(1.30625 0.0619426 4.90412e-20)
(0.894113 -0.116715 0)
(0.889368 -0.112528 -3.08426e-20)
(0.888462 -0.119972 -2.45522e-20)
(0.980584 -0.0528968 3.60134e-22)
(0.979698 -0.0515449 1.12174e-20)
(0.981322 -0.0509543 1.64398e-20)
(1.03403 -0.0270962 2.78572e-21)
(1.03421 -0.0282154 2.87448e-21)
(1.03541 -0.0276098 -6.02384e-21)
(0.447589 -0.0205099 -1.59462e-21)
(0.44245 -0.0170395 -3.66818e-21)
(1.22005 0.00911759 2.43799e-20)
(1.216 0.00865435 -2.08046e-20)
(-0.318881 -0.0154885 0)
(-0.329453 -0.0145111 0)
(1.14442 -0.0637164 2.82077e-20)
(1.1479 -0.0661476 -1.57668e-20)
(1.02839 -0.107883 -1.57249e-21)
(1.03146 -0.109719 4.43133e-21)
(1.20839 0.137774 0)
(1.20969 0.139586 -1.93596e-20)
(1.23363 0.138648 3.40232e-20)
(1.29894 0.0622077 -1.43731e-19)
(1.29681 0.0584617 -7.91786e-20)
(1.08246 -0.0157092 -1.19109e-20)
(1.08434 -0.0164989 -5.85778e-21)
(1.08256 -0.0174355 6.33481e-21)
(1.07523 -0.0466773 8.86201e-21)
(1.07286 -0.0466384 -9.95929e-21)
(1.07397 -0.0449159 -1.05927e-21)
(0.69791 -0.215693 -2.38805e-20)
(0.71919 -0.219511 0)
(0.707619 -0.233974 -2.20168e-20)
(1.33436 -0.211639 0)
(1.33922 -0.219887 8.44799e-20)
(1.35478 -0.219734 -3.67876e-20)
(-0.228436 -0.0108761 -6.47655e-20)
(-0.216435 -0.0108973 -2.77955e-20)
(-0.210981 -0.0103577 -8.60725e-20)
(-0.196453 -0.00534454 -1.2436e-20)
(-0.200964 -0.00559653 -4.94686e-20)
(-0.177961 -0.00426806 -2.81606e-20)
(1.19938 0.00809572 3.65599e-20)
(1.20258 0.0109125 0)
(0.923417 -0.80767 -1.91096e-20)
(0.915323 -0.852737 -6.04384e-21)
(0.964503 -0.853624 -1.90545e-21)
(-0.244033 -0.0113158 0)
(-0.238026 -0.0110312 0)
(0.93684 -0.0613182 -1.52464e-20)
(0.939127 -0.0594773 2.2622e-20)
(0.936096 -0.0580844 1.1198e-20)
(1.21613 0.0389123 -5.54488e-22)
(1.21684 0.0358308 -1.64352e-20)
(1.21361 0.0376291 -3.595e-20)
(-0.17834 0.00457833 5.60907e-20)
(-0.165316 0.00619345 3.18636e-22)
(-0.183946 0.00386892 -2.29234e-20)
(1.13166 -0.0784709 -1.51795e-20)
(1.13314 -0.0807642 -5.10863e-20)
(1.12943 -0.0807127 -2.2929e-20)
(1.21135 0.145381 5.76342e-22)
(1.20503 0.147799 4.00899e-20)
(1.17215 0.147132 4.71126e-22)
(1.03205 -0.0651166 0)
(1.03293 -0.0642632 4.78965e-21)
(1.2647 -0.198481 0)
(1.00023 -0.00367372 0)
(1.00033 -0.00427846 1.11683e-22)
(1.0003 -0.00441236 -6.71635e-22)
(1.20484 -0.142082 -3.21232e-20)
(1.20891 -0.13937 -6.03248e-20)
(1.20905 -0.145862 -5.61739e-20)
(1.04939 -0.124395 -4.88546e-21)
(1.05272 -0.12502 1.69607e-21)
(1.05082 -0.127972 -7.04967e-21)
(0.984232 -0.0418037 1.61225e-21)
(0.985205 -0.0424105 1.01058e-20)
(1.09592 0.0447179 -3.03252e-22)
(1.03049 0.0467264 -3.77221e-20)
(1.03389 0.0442032 3.4732e-20)
(1.08194 -0.0331052 -6.42592e-21)
(1.08002 -0.0318892 1.03239e-20)
(1.08237 -0.031063 9.38304e-21)
(0.197174 -0.619216 -4.97481e-20)
(0.157871 -0.66766 2.03858e-20)
(1.02574 -0.0116496 5.0992e-21)
(1.02678 -0.0119135 -9.55745e-21)
(1.31569 0.0336198 -1.2584e-21)
(1.31713 0.0297725 -1.19794e-21)
(1.31159 0.0308963 9.55191e-23)
(-0.316991 -0.0119015 9.09604e-20)
(-0.336853 -0.0142316 7.99906e-20)
(-0.226188 -0.0146984 -4.89812e-20)
(-0.228405 -0.0140522 6.34e-20)
(-0.207852 -0.0140139 -3.63446e-21)
(0.901088 -0.125906 1.32025e-20)
(0.906597 -0.123681 2.73243e-20)
(0.905304 -0.130434 -6.71015e-22)
(1.21511 0.0420534 -4.11236e-20)
(1.21838 0.0403402 -4.96156e-22)
(1.00011 -0.00242326 3.52969e-22)
(1.00006 -0.00181355 6.49681e-23)
(1.00006 -0.00185174 2.00048e-22)
(0.754923 -0.356653 8.31767e-21)
(0.734821 -0.350153 1.03403e-20)
(1.0056 -0.0252336 3.58746e-23)
(1.00539 -0.0241434 2.93322e-22)
(1.006 -0.0248503 -4.84982e-23)
(1.19992 -0.140089 1.16948e-20)
(-0.0976486 -0.0227931 0)
(-0.127756 -0.0212364 -2.88855e-20)
(-0.117304 -0.0222922 0)
(0.897785 -0.122078 0)
(0.899302 -0.114751 1.02394e-20)
(1.12954 -0.0753248 1.39181e-20)
(1.13371 -0.0752187 4.97837e-20)
(0.99633 -0.0101092 -4.04565e-21)
(0.995981 -0.0109009 -7.59525e-21)
(-0.213554 -0.0063094 -4.23918e-20)
(-0.193659 -0.00611344 2.98013e-20)
(1.03851 -0.0200351 0)
(1.03771 -0.0189205 0)
(0.546843 -0.312767 4.74554e-20)
(0.717026 -0.416404 3.62445e-21)
(-0.203352 -0.00614493 -1.28453e-20)
(-0.206721 -0.00669887 5.79211e-20)
(-0.185798 -0.00562855 3.09103e-20)
(1.26084 -0.29618 0)
(1.26783 -0.289942 9.86496e-21)
(1.00021 -0.000949637 0)
(1.00012 -0.000683229 1.01345e-21)
(1.29413 -0.435305 -2.98217e-20)
(1.21645 -0.390116 1.1134e-19)
(1.19419 -0.393667 8.66289e-21)
(-0.332534 -0.0152373 1.04942e-20)
(-0.328187 -0.0167408 6.17604e-20)
(-0.31253 -0.0127182 9.47072e-20)
(-0.0344923 0.0268168 -1.61621e-20)
(-0.0533238 0.0238306 -4.05378e-20)
(1.22966 0.145237 3.57688e-20)
(1.1954 -0.0360102 -1.77002e-20)
(1.1948 -0.040204 7.72022e-21)
(1.19131 -0.0367156 4.21888e-21)
(0.716609 -0.421974 4.11952e-21)
(0.709898 -0.401565 -4.6024e-20)
(0.691504 -0.416956 -2.17312e-20)
(1.16012 0.0442975 3.82616e-21)
(1.16517 0.0409115 2.02526e-21)
(1.17037 0.0485725 -3.85347e-20)
(1.16701 0.0483544 -3.14284e-20)
(1.10873 -0.516842 -2.40703e-20)
(1.09124 -0.511474 -2.36194e-20)
(1.08075 -0.195832 -7.20304e-21)
(1.07468 -0.195164 2.11573e-21)
(1.07814 -0.190572 -1.76318e-21)
(-0.258958 -0.0104018 -2.21052e-20)
(-0.274035 -0.0127463 7.4768e-20)
(-0.27417 -0.0130525 -4.2911e-23)
(1.32935 -0.0173606 -3.87907e-21)
(1.32853 -0.0123486 -8.0123e-20)
(1.32384 -0.017454 -1.32843e-19)
(1.0175 -0.0010196 -2.81625e-21)
(1.01838 -0.00141251 -8.52638e-21)
(1.01753 -0.00209659 3.21059e-21)
(1.15301 -0.0298276 -1.71072e-20)
(1.14973 -0.028836 -2.07206e-21)
(1.15011 -0.0320218 -2.03627e-20)
(1.16364 0.136575 -2.36268e-20)
(-0.0942421 0.0166641 -2.3687e-21)
(-0.111934 0.0148154 1.86394e-21)
(-0.193217 -0.00677693 -6.20662e-21)
(-0.176607 -0.00262024 3.53005e-20)
(-0.185853 -0.00381519 -3.18199e-21)
(1.03289 -0.0265628 6.1221e-21)
(1.03392 -0.0261776 0)
(0.583788 -0.283704 1.46345e-20)
(0.994769 -0.0301471 4.89876e-23)
(0.995355 -0.0303873 -2.83386e-21)
(0.995251 -0.0292235 -2.88279e-21)
(1.11222 0.0725978 2.69493e-20)
(1.11803 0.0696678 6.17301e-20)
(1.1841 0.0696876 -3.4643e-22)
(1.0517 0.000434117 -3.66539e-20)
(1.05779 0.000847421 1.34268e-19)
(1.1482 -0.00369609 -3.87243e-21)
(1.1554 -0.0312853 0)
(1.15512 -0.0286135 0)
(1.23714 -0.0317219 5.6348e-21)
(1.24102 -0.0318507 -4.8521e-20)
(1.33122 -0.0210189 7.80709e-20)
(1.33641 -0.0159929 8.31801e-20)
(1.00663 -0.0449338 1.24867e-21)
(1.00773 -0.0458884 1.21346e-21)
(1.00729 -0.0439812 7.01466e-22)
(0.810928 -0.193381 -2.27023e-20)
(0.798531 -0.189417 4.66021e-22)
(1.25501 0.111149 -5.32221e-20)
(1.25552 0.114976 8.09996e-21)
(1.25207 0.112539 3.24278e-20)
(0.38968 0.0304771 -3.28542e-20)
(0.379929 0.0287928 1.23399e-20)
(0.453543 0.0307891 -3.4701e-20)
(0.999226 -0.0195772 -2.39301e-21)
(0.999433 -0.0188491 9.15686e-22)
(0.999132 -0.0185661 6.3383e-21)
(0.984651 -0.0403762 -1.31342e-20)
(0.983154 -0.0412038 -3.26213e-21)
(0.895964 -0.128189 -1.96269e-20)
(-0.128532 0.0110263 -1.52495e-20)
(-0.124125 0.0112595 1.00303e-19)
(-0.106475 0.0133277 2.96791e-20)
(-0.222154 -0.0125882 1.76747e-20)
(-0.232195 -0.0113896 1.28278e-19)
(-0.224138 -0.0135541 7.25273e-20)
(1.23218 -0.00427811 0)
(1.22932 -0.00576836 -1.72443e-20)
(1.23269 -0.00782135 0)
(1.05394 -0.0264542 -2.85789e-21)
(1.05336 -0.0276803 5.22431e-21)
(1.05147 0.0156597 2.74564e-20)
(0.971483 0.0188893 -4.17629e-20)
(1.0788 -0.00641195 -9.69468e-20)
(1.06888 -0.00205815 -9.61586e-21)
(1.16579 -0.0113621 -9.80486e-20)
(1.28995 0.067044 -6.83779e-21)
(1.28697 0.0707062 0)
(1.28539 0.0662722 0)
(1.23691 -0.0273655 5.14705e-20)
(1.23316 -0.0311661 8.05324e-21)
(-0.133381 0.00987256 -1.70457e-20)
(-0.148148 0.00728654 -4.23654e-20)
(-0.3444 -0.0158694 2.95414e-20)
(-0.344534 -0.0162862 -1.78939e-20)
(-0.364636 -0.016845 2.49383e-20)
(1.15639 -0.0439832 -7.03552e-22)
(1.15635 -0.0468541 -7.28592e-21)
(1.15941 -0.044514 -4.43325e-22)
(1.1914 0.00409641 -1.00505e-20)
(1.19458 0.0041333 -2.88715e-20)
(1.19213 0.00703174 -2.23805e-20)
(0.518815 -0.116895 1.18579e-20)
(0.487633 -0.109433 -5.99775e-20)
(0.376407 -0.0856691 -2.33209e-20)
(1.03734 -0.0350881 -1.42827e-21)
(1.03826 -0.0364346 -1.49857e-22)
(1.03624 -0.0357347 7.85099e-21)
(1.00318 -0.0119343 4.90755e-22)
(1.00322 -0.0115914 0)
(1.00286 -0.0111352 -3.51579e-22)
(1.29215 0.0646394 1.09178e-19)
(1.29422 0.068752 -3.99945e-20)
(1.21491 -0.197545 -3.921e-20)
(1.21389 -0.191612 1.378e-21)
(1.20858 -0.195605 -5.70233e-20)
(1.03982 -0.0200456 7.55737e-21)
(1.04097 -0.0201273 5.98927e-21)
(1.04011 -0.0192169 -1.62938e-22)
(1.00041 -0.00422705 -7.17259e-23)
(1.00036 -0.00425472 -5.1636e-23)
(1.00024 -0.00360762 -2.15536e-22)
(1.00575 -0.026027 6.54418e-23)
(1.00524 -0.025372 -5.42529e-22)
(1.00723 -0.00124856 -1.99212e-21)
(1.00775 -0.00129098 3.21475e-21)
(1.0072 -0.000753799 -9.16936e-23)
(1.19125 -0.0215789 3.95519e-20)
(1.19465 -0.0227254 -1.98646e-20)
(1.19438 -0.0188805 3.15071e-20)
(1.00349 -0.012812 -2.96804e-22)
(-0.173796 0.00507545 2.28003e-20)
(-0.155946 0.00737374 -2.9601e-20)
(1.22844 -0.012395 1.58996e-20)
(1.22624 -0.00855191 -4.41037e-21)
(1.02659 -0.0539632 -5.04232e-21)
(1.02542 -0.0540379 -2.86365e-21)
(1.02667 -0.0552329 -3.91755e-22)
(-0.104434 0.0143992 1.7875e-22)
(-0.265507 -0.00786789 -2.43749e-20)
(-0.276616 -0.00901573 8.97461e-20)
(0.976162 -0.0458232 -1.31316e-21)
(0.976994 -0.0472162 3.75873e-21)
(0.977742 -0.0454492 -4.31042e-21)
(1.31988 0.0363649 3.29057e-20)
(-0.345785 -0.017008 -1.84592e-20)
(-0.365853 -0.0173143 7.02228e-20)
(-0.346445 -0.0172108 1.16506e-20)
(0.980178 -0.0828278 -3.40578e-21)
(0.982914 -0.0834445 2.5248e-21)
(0.974966 -0.0443865 -3.30513e-21)
(0.974027 -0.0467604 -6.92989e-21)
(1.23084 -0.01524 3.1696e-20)
(1.23241 -0.0113536 0)
(-0.321981 -0.0139529 -7.77947e-21)
(-0.322384 -0.0137815 0)
(-0.304416 -0.0120291 0)
(-0.0482326 -0.0248084 1.43398e-20)
(-0.0735152 -0.0240037 1.42115e-19)
(-0.0517926 -0.0254894 7.24169e-20)
(1.26978 -0.036201 2.40063e-20)
(1.27348 -0.038487 -2.74646e-20)
(1.26913 -0.0398664 -1.23877e-20)
(1.00422 -0.000913539 8.12377e-22)
(1.00403 -0.0013024 -2.3925e-21)
(0.0584806 0.00583413 -9.33015e-20)
(0.0960662 0.00764977 -7.44992e-20)
(1.00283 -0.0150696 0)
(1.27698 -0.0403865 -4.10533e-20)
(1.27728 -0.044875 4.95483e-21)
(1.28164 -0.0421127 -6.12683e-20)
(-0.346749 -0.0167532 7.57442e-21)
(-0.327522 -0.0157072 0)
(0.396668 0.0297087 0)
(0.395104 0.0309677 0)
(0.464299 0.0328214 -4.12146e-20)
(1.11506 0.00522038 1.25521e-20)
(1.11416 0.0072149 0)
(0.557591 -0.130872 6.30121e-20)
(0.673072 -0.159229 9.98306e-20)
(0.802962 -0.157174 -5.75866e-20)
(0.926053 -0.180361 5.46159e-20)
(0.963508 -0.198418 3.39895e-21)
(-0.19917 -0.0222395 0)
(-0.19593 -0.0220782 0)
(-0.179021 -0.0232405 0)
(1.33918 -0.118095 7.98954e-22)
(1.33278 -0.118898 2.7312e-24)
(1.33767 -0.123012 3.63589e-22)
(0.783185 -0.161793 4.87363e-22)
(0.783248 -0.149774 -2.29757e-20)
(0.770761 -0.155242 2.01289e-22)
(-0.199162 -0.0140763 -9.25008e-20)
(-0.195187 -0.0137388 1.7345e-20)
(-0.235052 -0.00466025 -4.51002e-20)
(-0.221626 -0.00347258 0)
(-0.236722 -0.00531341 3.78934e-20)
(0.405132 0.0200417 -4.73363e-20)
(0.337816 0.0205978 -4.43611e-21)
(1.07749 -0.0469079 9.52773e-21)
(1.07628 -0.0488096 1.00067e-20)
(-0.274711 -0.0182467 -2.05963e-20)
(-0.259396 -0.0195557 4.02479e-21)
(-0.255382 -0.0194353 -5.68389e-20)
(-0.23873 -0.011392 -3.59038e-20)
(-0.238117 -0.0136407 -3.56632e-20)
(0.47872 -0.527677 1.79841e-20)
(0.447648 -0.501907 0)
(0.448551 -0.549188 0)
(0.506949 -0.507246 6.26677e-20)
(0.515828 -0.54898 1.37588e-20)
(0.934731 -0.0633101 -1.60628e-20)
(0.936458 -0.0639295 -5.53206e-20)
(1.26991 -0.0490123 6.79054e-20)
(1.2656 -0.0508511 4.64713e-20)
(1.27009 -0.0532898 -3.69557e-20)
(0.955006 -0.172848 5.40908e-21)
(0.958844 -0.167364 3.17794e-22)
(0.961982 -0.174363 5.36664e-21)
(-0.222712 -0.00636831 9.30353e-21)
(-0.239618 -0.0109874 1.72094e-20)
(0.790969 -0.211389 0)
(0.788174 -0.197763 0)
(0.775327 -0.208596 0)
(1.01398 -0.00302344 6.2635e-22)
(1.01394 -0.00358006 4.40455e-21)
(1.01458 -0.00335811 -1.82185e-21)
(1.03141 0.000478651 -2.17241e-24)
(1.03138 0.00035733 -8.21819e-21)
(1.11375 -0.128495 0)
(1.11792 -0.129912 6.51708e-21)
(1.11387 -0.132286 0)
(-0.217493 -0.0226405 0)
(-0.203153 -0.0221771 -4.67424e-20)
(0.258544 -0.644916 0)
(1.03828 -0.0344175 7.73069e-22)
(1.03643 -0.0339349 -1.4743e-21)
(-0.243348 -0.01389 -1.48424e-19)
(0.942594 -0.170015 3.27593e-21)
(0.949301 -0.171941 -6.99263e-21)
(0.94642 -0.165107 -4.08242e-21)
(1.15906 -0.120917 -4.11432e-20)
(1.1641 -0.119942 -2.74678e-20)
(1.12033 0.00936532 0)
(1.11816 0.0100504 -1.15294e-20)
(-0.323462 -0.0129435 -7.02177e-21)
(-0.335642 -0.0137056 -6.69499e-20)
(1.04424 0.0192034 -9.2539e-20)
(1.13251 0.0140826 6.04484e-20)
(1.16752 0.140105 -1.65479e-20)
(1.04795 -0.120275 -2.45242e-21)
(1.04562 -0.122907 -1.1629e-21)
(1.12748 -0.072957 2.43894e-21)
(1.12577 -0.0755617 -1.66205e-20)
(-0.0394968 0.0259975 1.91003e-20)
(-0.0355954 0.0262569 6.45636e-21)
(-0.0544286 0.0230477 2.12054e-20)
(0.979997 -0.0549023 -7.65135e-21)
(0.981634 -0.0541573 -1.18754e-20)
(0.99397 -0.00242687 -3.81619e-22)
(1.15322 -0.0428265 -2.08471e-21)
(1.15652 -0.0404192 1.15151e-20)
(1.22945 -0.0184958 -8.95177e-21)
(1.23368 -0.0171273 3.92651e-20)
(0.939473 -0.17595 7.84746e-21)
(0.935696 -0.168483 -3.90542e-22)
(0.994295 -0.031114 -3.41747e-21)
(1.02844 -0.0542305 -2.15338e-21)
(1.02694 -0.0525223 4.39238e-21)
(1.31782 -0.18738 -7.82729e-22)
(1.31679 -0.193056 0)
(1.32383 -0.189128 0)
(1.28461 -0.302717 9.42789e-22)
(1.28267 -0.294645 -6.67218e-21)
(1.32801 -0.00869279 0)
(1.32711 -0.00467695 1.15024e-19)
(1.32293 -0.00881668 5.17115e-20)
(0.691686 -0.139535 2.44918e-20)
(-0.0459971 0.0249489 1.74007e-20)
(-0.0248089 0.0283446 3.55009e-20)
(1.03085 -0.115425 3.02513e-21)
(1.02805 -0.116919 -2.67174e-21)
(-0.22058 -0.00717162 -3.05133e-20)