/*--------------------------------*- C++ -*----------------------------------*\
| =========                 |                                                 |
| \\      /  F ield         | OpenFOAM: The Open Source CFD Toolbox           |
|  \\    /   O peration     | Version:  v2012                                 |
|   \\  /    A nd           | Website:  www.openfoam.com                      |
|    \\/     M anipulation  |                                                 |
\*---------------------------------------------------------------------------*/
FoamFile
{
    version     2.0;
    format      ascii;
    class       volScalarField;
    location    "600";
    object      ddt0(omega);
}
// * * * * * * * * * * * * * * * * * * * * * * * * * * * * * * * * * * * * * //

dimensions      [0 0 -2 0 0 0 0];


internalField   nonuniform List<scalar> 
13917
(
0.0494398
-0.000101787
-0.139897
-5.53306e-05
0.000403452
-0.00022592
-0.000264061
-0.0469943
-0.000175253
0.00579089
-0.185198
-2.96969e-05
-7.86232e-05
0.017901
-0.000605024
0.0586675
-3.76186e-05
0.00148526
-0.000433891
-0.000148797
-0.00100994
2.01826e-05
-0.000892325
2.27412e-05
-0.000158592
-0.00118898
0.0100813
-0.104856
-0.00204625
0.000206696
-0.0932135
-0.00102554
-7.35872e-05
0.0271523
8.66991e-05
-0.00479526
-0.000319236
0.000365701
-0.000271094
-0.00105475
-0.000211301
4.42905e-05
-0.00012675
-0.000486665
-0.000132563
-0.0746943
-0.000880529
-0.0506906
-0.0489072
8.81614e-05
-2.95982e-05
-0.00585818
0.0542324
-3.90581e-05
-4.73732e-05
-0.00252208
0.0177778
-0.000883913
8.84563e-05
-0.0508966
-0.0779578
0.000383685
0.000149416
-0.000145658
-0.0123107
0.00288994
-0.00363841
-0.00587878
-0.237469
0.0321195
-0.0333909
0.0294443
-7.89e-06
0.000112279
-0.00104588
-0.000225873
0.000162638
9.77912e-05
-0.00020338
-7.93219e-05
-0.00011221
-1.11504e-05
-1.01511e-05
-0.0232033
4.33506e-05
-0.055729
-0.00103741
3.94989e-05
-0.00103424
-4.41155e-05
-2.71049e-05
-0.000123747
-0.0282054
7.17942e-05
-0.000114227
-0.00178557
-0.0560846
0.0001038
3.81605e-05
-0.0193338
-0.000100366
-7.04547e-05
-0.000120921
8.42859e-05
0.000197773
0.00501081
0.0368038
0.000359159
4.15242e-05
0.00628396
1.16293e-05
0.0260827
-0.00219138
-0.145545
-0.0156099
-0.000277682
-0.000924136
-8.47063e-05
0.00889423
-8.20827e-06
-1.84761e-05
5.93733e-05
-0.000243211
-0.00143106
0.0748883
-0.023384
-0.000127579
-0.00115904
6.58766e-05
-0.00162072
-0.000395701
-0.0428081
0.0421912
-0.000276082
-0.000977806
-0.0144372
-0.084757
0.0618002
-0.00137216
0.000372707
-0.0209632
6.77044e-05
0.00488982
2.46485e-05
-5.70905e-06
-0.000958332
-0.0330627
0.0130075
-0.0720728
-4.34364e-05
-0.00090548
7.49697e-07
-2.93505e-06
-8.16096e-06
-0.0652165
0.000155021
7.86556e-05
0.057179
-0.000193485
-0.000127608
3.13026e-05
0.0237936
-0.000568944
-0.0420992
-0.00444097
-0.000511859
-0.46534
0.0481042
-1.43601e-05
-0.00150537
3.49867e-05
0.0148874
-0.000168322
-0.052118
-0.0016898
-0.000174533
-5.28383e-05
-0.0040479
-0.000389682
-0.00063019
-0.000114778
3.26614e-05
-3.0184e-05
-0.123719
0.0114645
-0.0287072
-2.58264e-05
-0.18941
0.000211721
-0.157921
-0.00168682
-0.000681701
0.00325403
0.0563363
7.16333e-05
0.0633637
-0.000312749
0.0469521
8.33566e-05
0.000122214
-0.000750961
0.0319962
0.0378961
-0.000297316
0.0500063
-0.00123612
-0.000916638
6.58499e-05
0.00366892
-0.000104336
4.18964e-05
0.000786686
0.000708731
0.00220184
-0.0011035
-0.00125336
0.0187839
0.000120179
-8.54745e-06
-9.15015e-06
0.0626957
-0.127349
-0.0931589
2.43091e-05
0.000155683
-0.0112225
0.0388661
-9.03081e-06
-7.06107e-06
-0.000200382
-1.40147e-05
-1.43292e-05
0.0340289
0.19112
-3.38485e-05
3.33052e-06
-0.0014845
0.0331317
-0.0001297
2.72444e-05
0.0429608
0.00800163
-0.124784
0.0179606
-0.00356604
2.39071e-05
0.0277561
-0.00161624
-0.00161473
-0.00133135
-0.000264899
0.153307
-8.09733e-06
-0.000947016
-0.00143369
-2.89241e-05
-0.000210318
-0.000138037
0.000541499
8.2635e-05
0.0510139
0.181894
6.01463e-05
-1.29402e-06
0.000144236
-1.95762e-06
-8.72578e-06
-7.22272e-05
-0.000653971
6.33641e-05
0.0534444
0.0307067
-3.05003e-06
0.000339134
0.00943944
-4.74066e-05
0.00992609
0.0470762
-4.01524e-05
0.0429799
7.77819e-05
0.024981
-0.000185474
-0.000477774
-3.87873e-05
3.1918e-05
0.00279216
0.000212955
-0.00259499
-0.000469688
0.115858
-7.76628e-05
0.0547123
0.0867573
-0.000106067
-0.0010743
0.000514036
-0.000310209
0.000455004
-0.000193173
7.43826e-05
0.000172335
-0.00436675
0.0018515
-0.000912144
-0.00018163
3.08409e-05
0.052398
0.0225191
6.12647e-05
-0.0034219
-0.000312704
0.00330232
-0.000628134
0.0241011
-0.0302177
0.00188638
-0.231903
0.000359245
-0.0231405
0.0072502
-0.0759911
-7.17835e-05
-0.000560799
0.0268737
8.05129e-05
0.00180336
-0.000635966
-7.17166e-05
0.0128295
4.68151e-05
-0.000487862
-0.000167931
-0.177107
3.29834e-05
-0.000815305
-0.00125626
0.00134466
-6.64285e-05
-0.00129605
-0.00428745
-9.82426e-05
8.24537e-05
0.0230004
-0.00293499
0.0286236
0.0423349
-2.96537e-05
-4.46646e-05
0.00847044
-0.260401
-3.10157e-05
0.000463956
-3.16853e-05
-0.00196338
-0.000853913
-0.00100525
-0.00333539
0.01112
-0.000553189
0.030839
6.93817e-05
-0.000104771
0.000622471
0.0449693
-8.31171e-05
0.0522726
-0.000506165
0.113879
-4.80861e-05
-0.146646
-0.00318843
-0.131917
0.000149083
-0.134599
0.00331673
-0.00132588
-7.24649e-06
-0.0353546
-0.000296271
-0.00953184
-0.00938353
0.000196125
-0.113875
-3.82137e-05
0.019679
5.57131e-05
0.0536903
0.0110298
-0.000255203
0.0110351
0.00994186
-0.00022082
0.0167081
-0.0178798
-0.000204564
0.007304
-4.4201e-05
-0.00616543
-0.0844406
4.27792e-05
-0.000218717
-0.000173046
2.90512e-05
3.3645e-05
7.18675e-05
-0.0547578
0.00487645
-7.87558e-05
7.94714e-05
2.95601e-05
-0.00104568
-0.00873683
-8.04313e-05
-1.46787e-05
-0.000807925
-0.086025
3.08997e-05
-0.000237206
0.00883312
-0.110898
0.00407097
0.000142488
-0.0226445
-2.00389e-05
-8.64967e-05
-0.000871046
3.34896e-05
-8.89682e-05
-3.71421e-05
-7.97974e-05
-1.46472e-05
0.0796104
-4.87402e-05
-0.00110593
0.0523984
-0.00105229
4.35444e-05
-1.27252e-06
0.0189797
-0.00075976
0.0727323
-0.000316673
2.56384e-05
-0.000271261
-1.42797e-05
-0.000314841
-3.25165e-05
0.0119328
-0.000823092
0.0177789
2.52132e-05
-0.00051694
-0.00152958
-9.50336e-05
-0.00279429
0.0288972
-2.56534e-05
-0.0583487
4.43601e-05
5.04608e-05
3.14497e-05
-4.61114e-05
4.11028e-05
5.20135e-05
0.04631
-0.0628758
4.00114e-05
0.0603689
-0.000402971
1.37616e-05
-0.001146
-0.000538238
0.0115616
-0.000249988
0.0100239
0.059222
0.0538128
-3.88954e-05
0.00219466
-0.00541572
-0.000257318
0.0118012
-3.11291e-05
-2.88232e-05
-0.000116567
-0.000195108
-0.000896182
0.00800202
-0.00100703
0.000472219
0.000427329
-0.0331758
-0.0013518
-7.82312e-05
-0.035261
-0.000602328
-0.000461488
-0.0193749
4.74219e-05
-0.00139584
-0.065809
3.4154e-05
0.0584768
5.46711e-05
-1.7212e-05
-0.00107487
-0.000302492
9.56668e-05
-0.00514904
0.0923857
0.0799763
3.33094e-05
-5.85812e-05
-0.000568669
0.0156672
0.0329557
-6.18656e-05
-4.57395e-05
3.52417e-05
-0.0012394
0.0628718
7.37716e-05
-0.000123827
0.000128704
2.92143e-05
0.000461391
-0.000389423
-5.39078e-05
-0.00105806
3.54528e-05
1.78688e-05
-0.000164429
0.0242298
2.56918e-05
-0.00012349
8.01308e-05
-0.000483181
-0.00137077
-0.00257126
-0.00153908
-0.00921933
-0.000154778
0.00349192
0.0402008
0.0835379
0.0512092
5.68699e-05
3.99528e-05
-0.00146796
1.0746e-05
-0.0167992
-4.97963e-05
0.283123
-0.000304725
0.000965294
-0.0109015
-0.000130051
-0.199913
4.18004e-05
-0.000694703
0.000100329
0.00010337
0.00162974
-0.000144137
0.0390034
0.000108656
-1.66969e-05
3.64949e-05
0.00839842
0.000454354
2.31931e-06
-0.000628711
-0.00111332
-0.0656138
-0.0328271
0.0705777
0.00948145
2.65374e-05
0.0436676
2.26721e-05
-0.0885948
0.00709863
-0.000224529
-0.0120613
-5.7387e-05
-0.000592011
-9.8036e-05
-0.000117354
0.000113633
-5.20527e-05
-0.028786
3.02725e-05
-0.000972978
-2.73971e-05
1.97251e-06
-0.000197445
-0.176226
0.0132769
-0.642594
-0.00131086
-0.000373485
-0.034552
0.0325298
5.73666e-05
0.0261245
-4.77821e-05
-0.000462644
1.00247e-05
-0.0344579
3.01746e-05
0.000494187
-1.02115e-05
-0.0345546
-0.000653093
0.000128412
-3.07826e-05
-0.00060558
8.8546e-05
-6.04769e-05
0.0283987
-0.0205876
9.85423e-05
-0.000570727
2.74722e-05
-7.09179e-05
8.5746e-06
0.0252399
3.14502e-05
0.000519767
-4.68966e-05
8.94809e-05
0.0538498
-4.02791e-06
-0.000191409
9.46531e-06
3.16686e-05
-0.0745299
-0.000914125
-5.39164e-05
0.215715
0.00815074
0.0583486
-0.172519
4.08167e-05
-0.000572541
0.0264685
0.0053921
-0.000752504
-0.000324282
0.000563354
1.63858e-05
6.5684e-05
0.00277564
-0.00150521
-0.000286234
-0.0160476
-0.000665259
-0.0520389
0.031128
0.0015078
-0.00070823
0.000894276
0.034145
7.38483e-05
0.000993492
0.00233648
3.18005e-05
7.58411e-07
-0.000185896
-0.000830124
7.09021e-05
0.0518899
-0.000416371
6.63314e-05
-0.000955325
-2.21671e-05
0.0227186
7.70523e-05
6.59237e-05
0.0837452
-0.00127201
0.0170595
-1.67839e-05
0.00169754
6.72662e-05
-4.34509e-05
-0.000328772
3.70045e-05
0.0641469
-0.000571923
0.183949
0.0101302
0.000938694
0.0780441
-6.20051e-05
0.000125878
8.90418e-05
0.0446935
0.0522877
-0.000334964
0.0950415
0.35179
3.34897e-05
6.35962e-05
-0.000317197
-0.000773193
0.00800566
-0.000674137
-3.88105e-05
-0.000124883
-0.000419037
0.000283544
-0.000515903
-0.000434788
-0.000108735
-8.39699e-05
0.000122998
-0.00032281
0.000433299
-0.0033594
-0.000355713
-4.34233e-05
0.0566682
0.000894957
0.380447
-0.000278921
-0.000949064
-0.00027694
-0.000527675
-3.33478e-05
-0.00065914
0.00684062
-0.0407398
8.48052e-06
-0.000352781
0.000141577
2.23801e-05
-5.99046e-06
0.000367593
-0.00196153
-0.30111
-0.000594036
4.12832e-05
0.0780987
-0.000168029
-0.000205
-0.00301281
-5.48219e-05
-0.000709007
-0.0310694
9.95581e-06
-0.00125069
-0.00266878
-0.000428915
4.72973e-05
4.10086e-05
6.59406e-05
0.0139653
-7.1005e-05
7.43903e-05
-0.00050682
3.44717e-05
4.50801e-05
-0.0024509
-0.0227967
0.00264322
-0.105775
-0.00175491
0.0100907
-5.74844e-06
0.000186512
-0.0318132
-0.000116798
0.000422326
-6.12099e-05
1.05232e-05
-1.80771e-05
-0.000406357
-0.00293654
4.80959e-05
-0.0204199
0.00013507
-0.00164763
-0.000282605
-0.000238188
-0.000138079
-0.00133523
-0.000525726
0.026853
0.00355375
-6.4403e-05
0.0242808
-9.70743e-05
0.0504504
-9.46956e-05
0.00907374
0.00021437
5.30284e-05
1.10962e-05
0.000235461
-0.000320347
-0.00975162
-0.102623
2.20717e-05
-0.000456617
7.75232e-07
0.000212708
0.015592
7.83721e-06
0.0381925
-0.000123037
0.016978
-0.000812845
-0.00166495
2.01222e-05
3.54905e-05
-0.00785038
4.2684e-05
-3.5227e-05
-0.000179072
4.92529e-05
-0.00049557
1.80317e-05
-0.243299
-0.000106139
0.0526435
0.054999
0.00289227
0.0171792
-0.0638226
0.0437849
0.00194321
3.37628e-05
-9.58078e-06
-2.24221e-06
-0.000112083
3.49458e-05
-0.000328061
2.10142e-05
-0.00652213
-3.75097e-05
-0.0235118
-6.30766e-05
-0.000324265
-0.00342123
6.26247e-05
-0.00113843
-0.000100844
2.47867e-05
-0.000262803
-0.000248828
0.111283
-0.00149266
-0.0156784
6.14341e-05
4.19161e-06
5.47526e-05
0.000136207
-0.013488
3.31585e-05
-0.0101546
2.98359e-05
0.0802598
-0.000364185
2.23117e-05
-0.000649724
0.0004699
3.43616e-05
0.00126787
0.021487
-0.000344617
-0.00129997
4.51974e-05
0.00265182
-0.000580789
0.000133789
0.0393235
2.67874e-05
-5.91734e-05
-0.00103365
0.042915
0.00434234
0.0098211
-0.0354431
0.000126737
5.35665e-05
4.41186e-05
-0.0231199
1.02054e-05
-0.000266949
-1.75845e-05
0.0634301
-0.000461368
0.0247983
7.95407e-05
-0.000150207
0.0126645
7.14535e-05
0.000759836
0.0403432
-0.0001969
3.11715e-05
0.11741
0.0001803
7.04296e-05
-0.00140098
-0.000198025
-0.0120735
-0.00103549
-0.000591084
-0.0749392
-0.000122433
0.0461402
-0.000134794
-0.00133027
1.79161e-05
0.0501926
0.0720109
-2.44093e-05
-0.00132035
3.52094e-05
-6.13506e-05
-0.00261314
2.13873e-05
6.28864e-05
1.26578e-05
-0.000425222
9.05795e-06
-0.000171143
-0.00114081
0.00863962
0.0254879
-0.00119655
5.3529e-05
0.0196404
2.78858e-05
-0.028334
0.053493
-0.3121
-2.59095e-05
3.46269e-05
2.81703e-05
-2.47359e-05
-2.76635e-05
-0.000585784
2.42329e-05
-0.000745568
3.06644e-05
-0.10075
0.0589336
3.52313e-05
-0.00414421
1.58574e-05
7.1874e-05
0.000284806
0.025157
-0.00153338
-0.000159515
0.0152601
7.74818e-05
7.65708e-05
-0.351075
-4.91236e-05
-0.100155
-6.70609e-05
0.104084
4.1999e-05
6.22752e-05
-0.000750986
0.00301961
-0.000141469
0.0311536
0.000619921
0.000179395
7.3404e-05
5.93871e-06
3.95983e-05
-0.000664961
-0.000378813
-0.000278158
0.0405864
0.117581
0.0029653
-0.000628918
6.17073e-05
0.0496295
5.87008e-05
-0.0279446
-0.0013281
-0.000224804
-0.000128819
0.0129318
0.158355
-0.180868
-0.0305041
-0.00955026
-0.0016674
2.12552e-05
-0.000406269
-9.89493e-05
-1.62242e-05
0.0222069
0.0374915
6.40153e-05
-0.000221373
0.035143
0.000122491
-2.69559e-05
0.111123
0.0209582
-9.70963e-05
5.64437e-05
-0.000257542
-3.25681e-07
7.36406e-05
0.000246325
-0.000524099
1.08388e-06
0.20952
-0.0471267
0.0902721
0.0305636
0.000465762
0.0511668
-1.92221e-05
-5.87436e-05
-0.0112767
0.0452559
0.0103448
-0.00976766
-0.000877966
-2.91267e-05
-7.19881e-05
0.0101439
0.0258657
0.000380677
0.000112393
-0.000971165
2.66752e-05
-0.029746
-0.00137379
-0.000248848
-0.000616583
-0.026604
0.0113405
0.0252243
0.0153416
0.000382774
-0.0420313
-2.70768e-05
-0.00118923
-0.00165402
-0.0269088
-0.000188522
9.31274e-05
-0.000269274
-0.034317
-0.000224799
0.00788347
-0.000593803
-0.00263999
-0.0063561
1.06978e-05
-0.000433149
-0.000225181
-2.89829e-05
0.000470604
0.0652379
-0.000264928
4.19257e-05
-0.000132518
-0.0645605
3.12856e-05
-0.000200455
-9.07436e-05
-0.000137607
-1.18876e-05
-0.00252515
-0.000559161
0.00010841
5.94688e-05
-0.262859
-0.0187951
-0.000881068
0.0482442
-2.45207e-05
1.33055e-05
0.0268769
6.97451e-05
-0.000229547
0.0106374
0.0504791
0.00033815
-0.00120364
-0.00057076
0.060739
-0.0305186
-0.000810152
-0.0322117
7.08894e-05
-0.00150785
0.00744995
0.008778
0.0801853
-0.143577
-1.74218e-05
2.17862e-05
-4.277e-05
-1.4772e-05
1.21361e-05
-0.000884101
2.16023e-05
-0.00087426
4.05417e-05
-0.000656065
0.0168079
-0.000204775
0.0222494
-0.0803465
1.33182e-05
-0.000587515
-0.000580052
-0.000169933
2.00067e-05
0.053262
-0.0013011
0.0420023
-0.000464582
0.0101341
-0.00253501
0.00629593
0.0090176
-0.000588692
-0.0208762
2.08903e-05
-0.0703451
1.96366e-05
-0.000399556
-0.00114868
-0.000512663
-3.06649e-05
-0.000987689
0.0355332
3.10688e-05
-0.45295
0.14704
-3.31277e-05
2.87112e-05
7.72434e-05
-0.422245
-0.0334613
5.20524e-05
-0.00030083
-0.00509836
0.000437936
0.0806383
-1.33754e-05
3.65601e-05
-1.45456e-05
6.60864e-06
0.000147053
-0.000311065
-0.278197
0.000131015
-0.000158626
0.00740527
-0.00422032
-0.00120443
0.0210989
-0.0220226
-1.80016e-05
8.11304e-05
3.71253e-05
-0.000162541
-0.000530676
0.114287
-0.0183169
-0.00424555
-0.00075759
-0.000896478
-9.87732e-05
-0.00800345
-0.000391704
-0.000440147
6.91957e-05
-0.0251788
-0.00719898
5.40223e-05
-1.38912e-05
0.0191112
-0.00101214
0.00507537
0.00307355
0.0025376
6.75101e-05
0.00123932
0.000168886
4.32482e-05
0.0296673
0.259674
7.10277e-05
0.000352456
-0.000728228
-0.000809209
-6.85832e-05
1.38657e-05
2.79549e-05
4.38921e-05
2.35761e-05
-0.000438326
-0.00122775
0.06097
-0.000813997
-0.000243732
-0.000377684
-0.00258591
5.69034e-05
-0.000908286
-0.1917
-0.0130014
0.043239
-0.000200715
9.10458e-06
0.0534665
4.0748e-05
0.0122927
-0.00011299
-0.00112184
-5.9411e-05
4.24436e-05
-0.579831
-0.000288483
-0.00018629
7.23174e-06
0.0623216
-0.0381697
0.0360563
0.000109188
1.27132e-05
-0.130809
-0.000129584
-1.73714e-05
-0.153512
0.164807
-0.000415663
-0.00049701
-6.30295e-05
-0.028782
3.34991e-05
-0.000102356
-2.97283e-05
8.25242e-06
-0.0164293
3.28825e-05
4.27656e-05
0.0384348
-0.000938065
0.0642465
0.0221709
3.8414e-05
-0.00037978
4.44159e-05
6.56951e-05
0.000101433
1.39533e-05
-2.29876e-05
-0.00351316
-1.2166e-05
-0.00151931
0.000434488
0.00520587
-1.80153e-06
0.0483577
6.91265e-05
0.0537211
-0.000176275
-0.0359551
-0.00110758
1.08682e-05
-0.000918959
-0.000489263
-0.000384128
-1.32042e-05
0.000287298
3.58716e-05
5.58562e-05
-0.0639699
-0.00102535
-0.00136943
7.48576e-05
8.07697e-05
4.54191e-05
-0.031076
2.57982e-05
0.0199104
-0.000899311
6.45798e-05
3.29204e-05
5.08474e-05
-0.000896627
0.0410309
0.0400954
0.000467119
-0.00634527
0.00924394
-0.00308687
-0.000285169
0.0218016
3.97981e-05
-0.00018058
-0.000280744
-0.019282
5.11941e-05
0.0224604
-2.16755e-05
8.48095e-05
-0.25923
-0.058311
0.0687979
-0.0246796
-0.000266611
-0.303323
0.0400294
1.12185e-05
0.0200196
1.58727e-05
-0.00015989
0.0417606
4.58404e-05
0.01865
-0.0143794
3.09227e-05
1.15339e-05
1.95948e-05
0.0648324
-0.000209373
1.37615e-05
-0.00113336
4.20858e-05
4.51206e-05
-0.011289
-3.17795e-06
-0.00073447
-1.52545e-05
0.00027792
3.33563e-05
0.0490633
0.00110312
3.39018e-05
3.47617e-05
-9.24189e-05
3.55115e-05
-0.00012692
0.000103333
7.20547e-05
-1.70411e-05
4.36821e-05
-0.00013784
-1.80031e-06
0.000634621
5.13421e-05
-0.00137745
3.1235e-05
-0.0015563
5.23379e-05
-2.04269e-05
3.20589e-05
-0.000144281
-0.000934795
-0.000384013
-0.000164794
0.0571433
-0.102483
0.0450604
0.0212138
-0.00126107
0.0185933
9.8676e-06
6.97839e-07
-0.0019811
-0.0195586
6.43074e-05
0.0388629
5.44907e-05
-0.000660183
0.206844
-0.000129159
-0.0014336
-0.0738918
0.119594
3.61415e-05
-0.000758447
3.59617e-05
-0.140403
-0.000151773
0.0105439
0.0910617
-2.87358e-05
0.00157789
0.0499699
-5.42666e-05
0.0204638
0.0119977
-0.000196247
3.57162e-05
0.00207543
0.0490971
9.39986e-06
-0.0003985
-6.09238e-05
0.00383679
-0.00269603
-1.92993e-05
5.38721e-05
-0.151047
6.26864e-05
1.37719e-05
-4.69653e-05
4.32251e-05
0.00464982
-0.000387216
-0.000329551
0.0481772
2.31344e-05
-0.0020806
-8.93464e-06
0.00247194
-0.00112083
-0.208221
5.26736e-05
-0.000280912
-0.000104917
8.93724e-05
-0.000101272
-1.06552e-05
0.0176689
-0.000149284
4.33177e-05
3.07392e-05
-0.0316747
3.40437e-05
0.0685636
0.0280249
0.414888
7.35298e-05
5.40463e-05
3.21124e-05
0.0200466
-5.36503e-05
-0.044747
4.31484e-05
-0.0856026
-0.000200281
0.000131289
-0.482803
-2.96191e-05
-3.0351e-05
0.049194
-0.000834277
0.0218746
7.60211e-05
0.00497072
-0.10071
-1.79524e-05
0.0377116
-3.59903e-05
-0.000376804
-0.00685048
-0.000261468
-0.00147528
0.0435015
-0.000836801
-0.00126661
-1.12793e-06
-0.0460029
1.54969e-05
-0.0231711
3.36367e-05
0.0379436
1.32024e-05
1.61499e-05
0.000221062
-0.0286453
5.56355e-05
-0.0990337
-0.00161156
-0.309228
2.25999e-05
-0.000665544
0.00895304
0.0064189
0.0300755
-0.00153024
5.41272e-05
-0.00104458
-0.090982
-0.000341795
-0.0345069
-0.000169022
0.00148692
0.0847973
6.06427e-05
0.0643774
3.13135e-05
0.00167013
-0.00436883
-0.000227383
0.000124935
-0.0126488
0.388407
1.10774e-05
-0.00010699
4.34009e-05
-2.39247e-05
-0.0257281
-0.00137837
-1.17031
0.000108065
-0.000380487
0.0177425
0.000524901
0.00434391
-0.336211
4.52679e-05
1.93371e-05
0.00011244
-0.000208077
0.0381096
0.405625
-0.00280639
-0.00108383
0.000246898
-0.00685741
0.00473581
0.0976617
3.72893e-05
-0.00153189
-0.000876694
-0.00160832
2.13121e-06
-0.000190371
-0.00123445
-0.0135548
0.356625
9.07645e-05
0.0373873
0.0455362
-0.00153366
1.42879e-05
1.53971e-05
0.031554
5.90355e-05
0.0642482
-0.000417159
-0.000273229
-0.371897
0.00755317
3.46933e-05
-0.000611796
-0.000365089
-2.31729e-07
0.0688583
-0.00155162
0.0967301
6.74711e-05
0.0286239
-0.0133688
0.00706809
-0.000128554
-0.000405571
-0.000845095
-0.0920845
-0.0072847
-0.00109865
-0.0273828
-0.0748434
1.94423e-05
-0.000324632
2.19359e-05
-0.00029263
0.0661818
-3.90378e-05
3.38516e-05
-0.000133758
0.0100165
-0.0841406
6.89604e-05
-0.00121591
-0.295462
3.31926e-05
0.02425
-0.000307311
0.0833019
-0.00036397
-0.00347823
-0.0566882
-0.000325113
-0.000386233
-0.0354507
2.85615e-05
-0.00184812
0.0286766
-4.07295e-05
0.019721
-0.000329003
-0.000956466
0.00985657
-0.00423206
4.94103e-07
0.13448
-0.0779628
4.63025e-05
-0.000473768
-0.00131822
-0.0120498
0.00994535
0.0521285
0.231322
-0.0023059
0.0338604
-0.000407151
-0.000593482
0.00011176
-1.68007e-05
-9.00245e-06
3.61492e-05
-0.762817
-0.037646
-0.000289465
-0.000390272
0.000155423
2.89504e-05
0.169904
-0.00360593
0.00021104
-4.92664e-05
0.000139702
-0.000159031
-0.000697909
1.45424e-05
0.0154254
-0.000356186
-0.00142661
-0.000539538
-0.00155352
0.000899707
-0.000922165
0.0321977
-7.4298e-07
-0.000169558
-0.000210237
6.25684e-05
0.00785828
-0.000399696
-0.000661101
-0.0225316
0.00010999
-7.48666e-05
-0.000958287
5.4632e-05
6.29704e-05
-0.00202925
-0.000248656
0.0318653
0.0751256
-0.0724231
-6.87402e-07
-0.0553963
2.33392e-05
-1.02768
3.44009e-05
0.00217477
0.00285426
5.31629e-05
-0.00227806
0.0360735
-0.000878928
5.36148e-05
-0.000106764
-0.000509498
0.0306256
4.35765e-05
-1.90036e-05
0.000187192
0.00037163
-0.0183358
-2.92517e-06
-0.000280098
4.28938e-05
0.000180581
-0.0356828
-0.000563793
-9.56733e-05
-0.000145831
0.131228
0.00529514
-0.0398003
8.52777e-05
-0.000136298
0.0271254
-2.92327e-06
-0.00116244
-6.73465e-06
-0.0191484
0.000154823
0.000100296
0.000690666
0.0267997
1.98678e-05
5.47542e-05
3.82282e-05
-0.00115598
0.0486365
-0.0071719
9.54146e-06
-0.000302178
3.14892e-05
0.0527881
0.000171983
-0.0273037
-0.00092581
0.000109174
-0.217592
-0.000987486
-0.0220602
-3.1087e-05
-1.11795e-05
-0.000527971
-0.0014768
-0.250399
-1.86509e-05
-7.71622e-05
0.000139813
0.0220357
6.25065e-05
5.39934e-06
-0.0108938
-0.000204026
-3.73254e-05
-0.000189666
6.34054e-05
7.56477e-05
0.0534567
-9.49361e-05
-0.125012
-0.0237072
-3.52859e-05
-0.0997679
-5.75158e-05
-0.00236608
-0.00110066
-5.73636e-06
-0.000132435
-2.49188e-05
1.5815e-05
-0.0405222
-0.000745489
0.0519173
0.0230357
3.73316e-05
-0.00136807
-0.00104653
-0.025642
1.41946e-05
0.00401789
-0.00716168
-0.0197172
7.26509e-05
-0.000121801
-5.20833e-05
0.00292856
0.00139595
-0.000158712
1.6635e-05
-0.000389033
0.042372
-1.15927e-05
-0.000122717
-0.0002222
-0.000706372
-0.0340543
4.1788e-05
0.020321
-0.000376115
1.71269e-05
0.026226
-0.000934573
-0.104396
-0.111487
-0.000805131
-0.000442952
-1.58206e-06
-0.000575374
-9.62167e-05
-0.0479007
-0.00146903
7.25666e-05
-0.000174635
-0.288669
0.0438106
4.22809e-05
-0.0013441
-0.047767
-0.0939956
7.13482e-05
-6.19193e-06
-0.0687115
-0.0220073
0.142029
4.13796e-05
-0.0182834
-0.000634659
-6.36751e-05
0.0560995
-0.000451781
-3.01849e-05
-0.0939998
5.08054e-05
0.000682987
5.43472e-05
2.34583e-06
6.96277e-05
3.80249e-05
-0.0109263
-0.000161688
4.37378e-05
-0.00147363
-0.00016139
-0.000390799
0.00185162
-1.60513e-05
1.12711e-05
-0.000171378
-0.000124353
-0.00354775
-0.024427
-0.0594088
0.0525466
-0.000482068
-0.0599136
0.000989926
0.0204071
0.0290288
0.00222591
3.90135e-05
-0.000839638
1.20605e-05
-1.42093e-05
6.72158e-05
-8.03797e-05
-0.00483599
-0.0008132
-0.00119391
3.0234e-05
1.93524e-05
-0.000666409
-2.40932e-05
-6.59125e-05
-1.61596e-05
0.0541231
-0.000589087
0.0196358
-3.73591e-06
-0.0535802
-8.18278e-05
0.000106985
-2.23433e-05
-0.000667476
3.09791e-05
-0.00161515
0.0244958
-0.00121498
0.0511983
0.0543721
0.000317363
-0.0003727
0.0195339
-0.00439693
-0.000202298
6.58531e-05
-3.35956e-05
0.0230129
5.39958e-06
0.283386
0.000665282
-0.00148902
0.0603673
0.0431328
-0.0011283
0.0836096
8.38564e-06
3.7035e-05
-0.0795604
-0.032869
5.38846e-06
-6.95547e-07
-0.137526
3.73782e-05
-0.857015
2.47017e-05
0.000170107
-0.000401295
2.94692e-06
-0.00140251
0.0247235
0.0296141
-0.000196766
9.306e-05
-0.0017708
-0.00011558
-0.00193935
3.46577e-05
0.000120375
-0.00063508
-6.94819e-05
-2.43628e-05
-5.1834e-05
-0.135384
0.00202018
-0.0111926
0.00336566
-0.000524931
-0.0209376
-0.00108726
-0.000603921
-0.0121664
2.20954e-05
0.021857
-9.39084e-05
0.0536296
-0.487755
0.0220152
-0.0268198
-2.10777e-05
-0.00109287
-0.122768
6.51088e-05
0.0378637
-1.36584e-05
1.09536e-06
-0.000210368
-5.38643e-05
-0.000375352
0.0469458
-0.239559
-0.0292855
-0.000278657
-0.00116805
-0.000143125
0.000132692
-9.00946e-06
-0.00919765
-0.00110511
-0.0318473
-0.00101621
-0.000373909
4.28409e-05
-9.53641e-06
-0.0209342
-0.000340011
1.46123e-05
-0.000292584
0.00126802
-0.000397082
-0.00155835
0.00432884
0.020568
-0.000507867
-0.0004509
1.46759e-05
-0.000211985
0.00152052
-0.00109877
-0.00152498
5.62247e-05
0.0298446
-0.000511662
4.20192e-05
-0.000985485
0.022295
0.0130448
-0.000883458
3.67866e-05
0.00124074
-7.43017e-05
3.30497e-05
-0.000388795
0.0481682
-0.0359481
0.000302556
0.0257697
-0.0248928
-1.44571e-05
0.00371254
-0.00123258
0.0915053
-0.000569621
-0.0054011
-7.96799e-05
-0.00134524
-0.00218577
0.0325688
-0.000501348
6.16638e-05
0.0189421
3.1782e-05
-0.000117064
-0.0768358
-0.0345787
0.518381
0.00783692
-0.000137955
-9.80032e-05
-0.0313692
3.73933e-05
3.57196e-05
3.93543e-07
-0.000892302
1.60946e-05
-0.000852715
-3.05879e-05
0.0325713
-0.0420572
-5.65508e-05
0.0417089
-3.51972e-05
0.0237438
0.0489415
2.60074e-06
-2.17026e-05
-0.000188162
-0.0574078
-0.00432105
-0.00135448
0.0225783
0.0155408
-0.0880114
0.000145374
-0.0615452
0.037973
0.00178852
-0.0200681
-2.74968e-05
5.77891e-05
-6.40705e-07
-0.00014559
4.30074e-05
-0.000453942
0.0322451
-0.000546736
-0.0435706
0.139547
-0.245913
-0.0563923
0.00278743
-0.000309808
0.0292641
-0.0011158
-0.00106307
3.51785e-05
5.95062e-05
-0.00121338
0.0666598
0.000137064
0.0260526
0.00987307
4.3245e-05
-4.98007e-06
6.32928e-05
-0.0031473
-9.0296e-05
-0.00153153
0.0226662
4.26252e-05
1.97267e-05
4.05894e-05
-8.38919e-05
-0.000706264
0.0263797
-0.0011358
-0.0070365
-0.00388897
2.96686e-05
-0.02085
-0.210312
-8.1049e-05
-0.0721895
-0.0329446
-0.0219675
0.0349185
0.0494878
5.66272e-05
-0.0219255
0.0262595
-0.417939
-0.0179355
6.56153e-05
-0.000231973
-0.000235656
-0.000103115
-0.0143248
-0.00135136
-2.01847e-05
-0.000372111
0.00892192
0.0350376
0.000119898
0.00350218
0.0634183
0.000930733
-1.28564e-05
-0.000525519
-0.00250154
2.56752e-05
1.67442e-05
0.0214914
2.90853e-05
-0.00233264
-0.0314259
-0.00105645
3.17798e-05
-0.00200581
-0.000336679
4.24759e-05
-0.000106119
0.0659406
0.0318576
0.000136058
-0.000697017
-0.0606598
-0.0103389
0.0180426
0.024011
-0.00033094
-0.0134458
0.010913
-0.000643244
4.20449e-05
-0.0276595
3.28951e-05
-0.000186351
0.032037
-0.00104421
-0.00237709
-0.000168607
0.000545773
5.71267e-05
2.94439e-05
-5.16655e-05
-7.04937e-05
0.0291509
-0.000157101
0.010705
0.0591429
-0.00101799
-0.00134471
0.0292318
0.0137542
0.0316792
-0.000245535
-0.000189966
-0.000660901
-0.000319807
-0.339674
-0.0105617
-4.90582e-05
-0.00765742
0.0469561
-0.000419189
-0.000951446
-0.00140386
-0.000906196
-0.000674256
-9.706e-05
-0.000310461
-0.000183853
-0.0011963
-0.000761011
-0.000218374
-0.0015869
0.000404875
4.32427e-05
-0.000482297
-0.000980764
2.96949e-05
-0.0257643
0.0535619
-0.378553
0.0176912
-8.45339e-05
5.8644e-05
-0.00172552
-0.0249584
-6.44696e-05
-0.000297137
-0.00058079
-0.0275916
-0.151542
-1.04281e-05
-0.000923456
-0.000239848
-0.144332
0.00350112
-0.000128655
-0.0325888
0.0314833
-0.00102613
-0.00829753
-0.00224306
0.0154002
0.0348222
-1.34248e-05
0.0582772
0.0436471
-0.000137059
-0.00159949
-0.00336021
-0.000369956
5.39932e-05
-0.0501398
0.121789
5.24165e-05
5.74504e-05
-0.0020374
-0.0937572
-0.00205443
-4.1119e-05
-0.238872
-0.00297743
0.0139515
0.0646822
-2.19777e-06
2.22857e-05
-6.03584e-05
0.000145643
-0.0147513
-0.130087
0.0143381
-0.00103798
-0.243589
0.075212
0.00016804
3.94855e-05
0.0375898
6.38015e-05
0.00939606
0.000136574
-0.00423843
-8.52277e-05
-0.000134071
0.00326429
5.96884e-05
-0.000189067
0.00386159
-7.14403e-05
-0.000271452
-9.28561e-05
-0.00500653
0.0331368
-0.441349
0.0207706
0.000297054
0.00021954
-0.000290827
-0.0019002
0.104088
-0.0419019
-0.00367355
0.00926893
0.000564064
-0.033404
0.000662359
6.42006e-05
4.38155e-05
3.53791e-05
-0.0190148
-0.0489899
-0.012948
-0.00117338
0.00148372
3.41465e-05
0.0761484
-0.0472798
-0.127133
1.14569e-05
-0.00011208
-9.90544e-07
0.025928
-0.048212
-0.0805068
-0.0252092
-5.01178e-05
-0.42477
-4.26754e-05
-0.000591661
-0.238893
-0.0390365
-0.069009
3.12064e-05
0.000654817
-6.86667e-05
0.000139707
-0.0195623
0.012729
0.0347729
-3.91346e-05
-0.00242119
-0.00812549
-0.0727787
0.0733076
-0.0132104
0.00613329
5.94612e-05
-0.00129727
0.000105773
0.000924433
7.34275e-05
-0.00315581
-0.000150735
-0.0010053
0.0292214
0.00176234
0.000386209
0.0290334
0.0406688
-0.000430504
-0.000226985
-0.083841
-0.000551053
8.4216e-05
0.000187644
-0.00747184
-0.000395709
-0.0220221
-0.0136917
0.0026103
0.0388862
0.00036625
-0.0139514
0.0248956
-0.0827301
-0.0291608
-0.000465508
-0.000266253
-0.00105346
-0.0160544
0.444121
-5.44615e-05
-0.0237981
-0.00456345
-0.0437888
-0.000526708
0.00670876
0.0232114
-0.0333527
-0.000198197
0.0358341
-0.000261738
0.0299334
-0.197078
-0.0303434
0.0778967
3.43869e-05
2.38482e-06
0.034145
0.0443262
0.000603749
-5.0353e-05
-0.00120602
-0.000571671
-0.028437
-0.113505
0.0461291
-0.000375174
0.0507
-0.00697419
0.0377986
-5.08687e-05
-0.119151
-0.035476
0.000363445
-0.000628291
-6.51363e-05
-0.000175016
-6.26813e-06
-0.0164891
2.29154e-05
-2.58289e-06
0.0249349
-0.0205429
3.6621e-05
0.0728958
-8.34981e-05
5.59635e-05
2.29432e-05
5.7449e-05
-1.59575e-05
-0.108965
0.023119
5.17876e-05
-0.100057
-0.00117355
-0.000761546
-0.034527
-0.00102535
-0.000331865
-0.000371519
3.3164e-05
-0.00584697
-0.000883567
0.0884974
6.1776e-05
-0.0150042
-0.0182262
-0.00149513
-0.276967
0.0542012
3.35143e-05
0.0441585
-0.00115479
-0.00129013
0.00142271
3.41787e-05
0.000837477
-0.00363538
-1.59633e-06
0.0012685
1.93395e-05
-0.00559541
-0.000570631
0.022533
-0.00656562
-0.00156512
0.015603
-1.83285e-05
7.48904e-05
-0.00108757
-0.000158851
-1.97214e-05
-2.06541e-05
-0.000470068
3.50592e-05
3.3703e-05
-0.000132385
-0.00131391
-0.000180586
-0.000523755
4.28902e-05
0.00212206
-0.000442864
-0.000204827
0.00890302
-0.000174764
2.54617e-05
-0.000958413
-0.000640702
0.000113763
3.87816e-05
-0.100585
-9.05052e-05
0.0408223
-0.000103527
-0.00412437
2.80865e-05
6.84741e-05
0.000824393
0.0583633
-0.0012077
-0.00102389
-2.00418e-05
0.0142571
-7.97785e-06
3.52643e-05
-0.00117428
-0.000140628
0.00677494
0.0391162
-0.00107636
-0.0627881
-0.00115347
0.030895
9.02496e-06
-1.8477e-05
-0.00138231
-0.0261073
-0.00103896
-0.00247179
-0.019896
-0.000515099
-1.19464e-05
-0.000305612
-0.15182
-0.000745291
-3.46684e-06
-0.000820786
-0.000682626
-0.00131186
-1.55026e-05
-4.80253e-06
-0.205931
-0.00132075
-0.170559