/*--------------------------------*- C++ -*----------------------------------*\
| =========                 |                                                 |
| \\      /  F ield         | OpenFOAM: The Open Source CFD Toolbox           |
|  \\    /   O peration     | Version:  v2012                                 |
|   \\  /    A nd           | Website:  www.openfoam.com                      |
|    \\/     M anipulation  |                                                 |
\*---------------------------------------------------------------------------*/
FoamFile
{
    version     2.0;
    format      ascii;
    class       volScalarField;
    location    "600";
    object      k_0;
}
// * * * * * * * * * * * * * * * * * * * * * * * * * * * * * * * * * * * * * //

dimensions      [0 2 -2 0 0 0 0];


internalField   nonuniform List<scalar> 
13917
(
0.0118123
0.00018604
0.000124331
0.000151138
0.000183009
0.000186518
0.00015773
0.0092781
0.00015539
0.0012776
0.001796
0.000150269
0.000169912
0.0233677
0.000173303
0.00960028
0.00014657
0.00011322
0.000183749
0.00909868
0.000168534
0.000155969
0.000169262
0.000156035
0.00015449
0.000171288
0.0352481
0.000955588
0.000181485
0.000157969
0.000692636
0.000174087
0.000151869
0.0206408
0.000153546
0.020409
0.000158676
0.000175501
0.000157808
0.000169997
0.000155767
0.000162076
0.000153552
0.000181894
0.00018182
0.0125028
0.000167185
0.0116884
0.0208928
0.000153605
0.00015011
0.000186038
0.00505427
0.000151754
0.000151901
0.000185889
1.3008e-05
0.000169257
0.00016008
0.0139848
0.024716
0.000169695
0.000157458
0.000154116
0.0304455
0.000217654
0.000186851
0.0217622
0.000392959
0.0112378
0.027401
0.0189328
0.000148542
0.000156856
0.000169333
0.000156112
0.000170928
0.000155103
0.000155635
0.000152143
0.000156781
0.000146394
0.000148397
0.0273834
0.000142579
0.025264
0.00017367
0.000147265
0.000169523
0.000146025
0.00013985
0.000153781
0.0198414
0.000150527
0.000154747
0.000184942
0.0331974
0.00014861
0.000146241
0.00476428
0.000163559
0.000162307
0.000156847
0.000145442
0.00017065
0.0241788
0.017415
0.000170509
0.00016674
0.0352308
0.00014551
0.021533
0.00018037
0.0116081
0.0304761
0.000157096
0.000182735
0.000145213
0.000187596
0.000147381
0.000145511
0.000150465
0.000189876
0.000182574
0.0123396
0.029229
0.000153616
0.000170515
0.000150746
0.000182622
0.000161231
0.0124411
0.0325678
0.000157092
0.00017644
0.0345513
0.0290864
0.0128129
0.000173567
0.000175249
0.0175228
0.000152661
0.0231721
0.000148491
0.000148054
0.000206428
0.0270532
0.0103471
0.0104768
0.000151955
0.000167679
0.000162071
0.000147823
0.000147385
0.0344711
0.00016154
0.000144762
0.0320944
0.000151859
0.000146613
0.000143778
0.0273435
0.000163758
0.0167813
0.0191807
0.0212364
0.00476782
0.0166028
0.000134331
0.000174895
0.000157321
0.0317453
0.000155263
0.0247599
0.000179111
0.00015788
0.00015107
0.000185901
0.000160765
0.000164573
0.000153494
0.00015653
0.00015023
0.00156158
0.000183453
0.0157106
0.000150101
0.00137442
0.000158344
0.0138354
0.000179204
0.000180678
0.000185662
0.0118365
0.000150513
0.0126068
0.000158174
0.0331745
0.000153131
0.000160203
0.000165006
0.0111072
0.0111949
0.00015884
0.0360122
0.000174503
0.000168091
0.000152578
0.000186483
0.000156989
0.000145162
0.000193678
0.00019569
0.0109782
0.000176038
0.00017243
0.0275401
0.000159485
0.000138282
0.000138221
0.0160921
0.000127766
0.00822939
0.000144117
0.000157982
0.0334912
0.0107943
0.000137267
0.000137085
0.000154762
0.0001389
0.000138864
0.0176717
0.012298
0.000156047
0.000136928
0.000179929
0.0174899
0.000148886
0.000144092
0.0360558
0.0229933
0.000291527
0.0271693
0.000183097
0.000148504
0.016556
0.000180495
0.000178365
0.00017783
0.000158201
0.0116315
0.000147639
0.000170119
0.000177636
0.000157076
0.000155597
0.000153919
0.000177618
0.000154589
0.0166595
0.0155665
0.000150401
0.000136752
0.000162332
0.000136794
0.000147624
0.000171224
0.000165854
0.000152345
0.015672
0.0188068
0.000148861
0.000172625
0.0220661
0.000140507
0.000213109
0.0189861
0.000140399
0.014002
0.000153746
0.0276606
0.000158983
0.000170243
0.000157631
0.000148543
0.000184935
0.000159388
0.0260711
0.000161126
0.0112646
0.000215314
0.0328198
0.0124969
0.000146511
0.000172715
0.000179545
0.000157928
0.000181488
0.00015535
0.000151449
0.000156351
0.000173496
0.000175979
0.000169509
0.000155079
0.000143987
0.0325797
0.00946201
0.000149707
0.00411946
0.000157831
0.000212658
0.000183124
0.0201665
0.0246769
0.000196818
0.00371528
0.000171216
0.0258464
0.000209621
0.000148879
0.000169354
0.000173074
0.0353145
0.000159556
0.00018832
0.000180617
0.000147008
0.0318381
0.000142985
0.000164807
0.000152009
0.00379348
0.000141217
0.000168002
0.000175094
0.000189122
0.00014596
0.000177435
0.0228975
0.000153999
0.000159566
0.0234072
0.0228249
0.027718
0.0240919
0.000139652
0.000155133
0.0229582
0.00353038
0.000139566
0.000181514
0.000150758
0.000178626
0.00016863
0.00018537
0.000181908
0.000189366
0.000164921
0.0177133
0.000151281
0.000153886
0.000186145
0.000145791
0.000148267
0.0104012
0.000164686
0.00200722
0.000152278
0.000181077
0.00373454
0.0216145
0.000161557
0.0067768
0.02032
0.000177092
0.000149171
0.0210729
0.000161336
0.019003
0.000144025
0.000161526
0.0224495
0.000160212
0.0023757
0.000142893
0.01021
0.002069
0.00015706
0.0331603
0.000181257
0.0001574
0.0244553
0.000195526
0.000155896
0.000184082
0.000153912
0.000178172
0.000118605
0.000143223
0.000156664
0.000154854
0.000147751
0.000141787
0.000151889
0.0306803
0.016813
0.000153015
0.000152599
0.000154593
0.000172755
0.0316462
0.00014456
0.000134324
0.000182879
0.000180798
0.000149138
0.00015671
0.0274449
0.0356909
0.000220607
0.000184323
0.0226786
0.000146161
0.000142991
0.000166651
0.000141567
0.000144237
0.000156563
0.000142855
0.000145295
0.0149923
0.000154176
0.000171105
0.0172479
0.000172726
0.000145607
0.000147635
0.0250273
0.000165585
0.0104785
0.000148812
0.000144647
0.000160816
0.000139596
0.000158496
0.000161541
0.0280406
0.000129283
0.0248581
0.000144612
0.0001633
0.000116769
0.000156785
0.000183008
0.0276527
0.000150535
0.0317586
0.000146269
0.000145094
0.000154199
0.000160121
0.00014409
0.000153288
0.0321525
0.0237914
0.000143652
0.033742
0.000182773
0.00014936
0.000174496
0.000173516
0.0224417
0.000157417
0.0252445
0.00178722
0.00194524
0.000161414
0.000205366
9.19496e-05
0.000157978
0.0267398
0.000140703
0.000151369
0.000154555
0.000156059
0.000167126
0.000188827
0.000171872
0.000196176
0.000174971
0.000159167
0.000175675
0.000153035
0.0192181
0.000165016
0.000160986
0.0202288
0.000142627
0.000176276
0.000139051
0.000140997
0.0291244
0.000146075
0.000139635
0.00017325
0.000147929
0.000156283
0.000173596
0.0324541
0.0318863
0.000143516
0.000151269
0.000179885
0.0259425
0.0304349
0.000152654
0.000151772
0.000143065
0.000176171
0.000354972
0.0001516
0.000148332
0.00015955
0.000146964
0.000165706
0.000160307
0.000142302
0.000172386
0.000140983
0.00015473
0.000154611
0.0205181
0.000136685
0.000153765
0.000154401
0.000162754
0.000177332
0.000181771
0.000178392
0.00977137
0.000154306
0.000195197
0.0331864
0.0147562
0.0197399
0.000148655
0.000153934
0.000201657
0.000146725
0.0307762
0.000141331
0.0058838
0.000158031
0.0324459
0.000271387
0.000153649
0.0054883
0.000143632
0.000171862
0.000148001
0.000163363
0.032653
0.000146273
0.00019519
0.000161697
0.000157174
0.000154355
0.000190179
0.000165636
0.000136097
0.000181735
0.00017415
0.0108873
0.0251554
0.0331965
0.0213726
0.000136749
0.0113564
0.000150298
0.0270951
0.00859538
0.000165378
0.00397896
0.000163971
0.00016474
0.000153158
0.000145924
0.000148448
0.00016993
0.0225531
0.000144307
0.000172495
0.00015117
0.000136003
0.000151425
0.00634534
0.0284849
0.00529477
0.000177015
0.000160024
0.0179529
0.0184372
0.000143566
0.0281039
0.000167589
0.000178022
0.000146833
0.019302
0.000146545
0.000166147
0.000148238
0.0115617
0.000165784
0.0301082
0.000141822
0.000165025
0.000153345
0.000164592
0.018771
0.0197694
0.000154702
0.000186872
0.000143985
0.000161805
0.000163012
0.0207286
0.000144321
0.000179454
0.000141466
0.000154043
0.000151182
0.000161862
0.000185317
0.000146952
0.000141148
0.0266697
0.000172916
0.00015241
0.00503056
0.000197697
0.0209056
9.02849e-05
0.000143227
0.000175744
0.0186802
0.000203948
0.000165638
0.000158422
0.00016708
0.000145926
0.000151575
0.000198992
0.000178773
0.000157464
0.0192243
0.000166079
0.0331288
0.0305499
0.000176521
0.000166439
0.000186651
0.0153273
0.000151449
0.000174755
0.000193664
0.000141184
0.000142203
0.00015261
0.000187948
0.000155928
0.0114388
0.000161885
0.00014412
0.000179651
0.000141362
0.0217847
0.00015386
0.000150806
0.0313429
0.000176027
0.0040536
0.000149089
0.000211533
0.000150534
0.00015037
0.000159203
0.00014893
0.0115511
0.000163051
0.00114394
0.00366479
0.000174299
0.0333171
0.000151376
0.000149585
0.000153814
0.0201874
0.0322381
0.000158662
0.0118433
0.00197111
0.000141451
0.000150283
0.000158877
0.0245989
0.00425363
0.000166149
0.000150278
0.000153828
0.000178504
0.000169224
0.00018526
0.000162154
0.000154558
0.000152245
0.000149551
0.000159064
0.00017511
0.000208604
0.000158816
0.000180849
0.0114337
0.000184977
0.00264224
0.000157703
0.000177835
0.000157527
0.000200888
0.000145339
0.000170851
0.0282443
0.000691265
0.000146867
0.00015859
0.000165718
0.000145306
0.000147955
0.00019023
0.000115775
0.00441765
0.000185427
0.000142799
0.000206464
0.000155353
0.000156185
0.000187013
0.000155731
0.000171878
0.0316881
0.00013587
0.000175876
0.000181258
0.000161965
0.000148449
0.000144534
0.000151535
0.00979027
0.000151753
0.000155574
0.000164574
0.000149471
0.000146916
0.00018522
0.0284895
0.000201651
0.0345601
0.000177247
0.0226443
0.000147906
0.000172651
0.013683
0.000166838
0.000173101
0.00014573
0.000141887
0.00014917
0.000159756
0.00018227
0.000148419
0.00447208
0.000158334
0.00811619
0.000157606
0.00015722
0.000150684
0.000178066
0.00017046
0.0272445
0.000205344
0.000148096
0.0200456
0.000152611
0.0155565
0.000152774
0.000219914
0.000167328
0.000147484
0.000146575
0.0312898
0.000159118
0.027196
0.035365
0.00014512
0.000162277
0.000136424
0.000167352
0.000119151
0.000137748
0.0162744
0.000153777
0.000222066
0.000182555
0.000220504
0.000137563
0.000142433
0.000181607
0.000143212
0.000151774
0.000155221
0.00015364
0.000164788
0.000137359
0.00445349
0.000154797
0.011163
0.0152974
0.000212251
0.0249731
0.0320968
0.00999522
0.000215102
0.000140978
0.000161933
0.00014814
0.000153137
0.000143275
0.000159275
0.000146259
0.030605
0.000151987
0.0166124
0.000151465
0.000159593
0.000181447
0.000149451
0.000171325
0.000152683
0.00016246
0.000157421
0.000165589
0.0336561
0.000179849
0.00510347
0.000149777
0.000145382
0.000158185
0.000159013
0.020307
0.000141214
0.0161077
0.000145871
0.00197045
0.000170643
0.000147817
0.000171377
0.000169944
0.000141472
0.00321292
0.027901
0.000160535
0.000177761
0.0001432
0.00686371
0.000209972
0.00015895
0.0156424
0.000143764
0.000151383
0.000179491
0.0144603
0.000221161
0.000224102
0.0182156
0.000164284
0.000164433
0.000154074
0.0207297
0.000145184
0.000182872
0.000149428
0.0298678
0.000170719
0.034432
0.000152531
0.000153704
0.00171856
0.000162197
0.000179569
0.0331021
0.000155977
0.000142232
0.00032049
0.000164237
0.000162822
0.00017841
0.000155704
0.0307081
0.000169999
0.000173623
8.75851e-05
0.000153765
0.0294251
0.0001557
0.000177133
0.000144983
0.0175538
0.00198614
0.000149236
0.000194222
0.000159693
0.000152537
0.000169649
0.000145176
0.000151305
0.000146206
0.000160924
0.000135857
0.000155523
0.000175619
0.017998
0.02669
0.000178434
0.000158162
0.00181855
0.000145115
0.011198
0.000239443
0.00424351
0.00013998
0.0001412
0.000147928
0.000152403
0.000139812
0.000155237
0.000144991
0.000167194
0.000142264
0.00604271
0.000262876
0.000144347
0.031695
0.000145108
0.000151904
0.000170034
0.0216047
0.000177024
0.000152409
0.00454027
0.000151918
0.000152022
8.77962e-05
0.000162557
0.0356511
0.000151583
0.000338701
0.00014562
0.000151429
0.000165357
0.000220308
0.000154069
0.0204086
0.000169892
0.000161808
0.000165764
0.00014548
0.000144081
0.00017771
0.000161328
0.000157238
0.0222021
0.00766481
0.000218141
0.000178457
0.000150392
0.0211833
0.00015045
0.0267107
0.000176967
0.000156768
0.000153656
0.0355512
0.0323559
0.0102513
0.000558495
0.0117994
0.000165035
0.000146193
0.000161881
0.000154586
0.000149299
0.0238769
0.0141131
0.000151533
0.000156922
0.0172329
0.00016123
0.000139056
0.00909941
0.0240816
0.000152794
0.00015146
0.000157406
0.000147555
0.000151508
0.000190274
0.000164015
0.000147796
0.00243089
0.000614175
0.000800546
0.000193933
0.000168985
0.0179769
0.00014921
0.000151325
0.00434783
0.0143329
0.00311744
0.00445745
0.00016725
0.000149513
0.000151704
0.000218757
0.0267321
0.000185662
0.000160861
0.000171113
0.000148014
0.000476213
0.000178006
0.000181623
0.00017043
0.0165933
0.00470917
0.0287022
0.0279562
0.000175367
0.0142203
0.000139325
0.000175668
0.00018027
0.000233614
0.000155558
0.000162547
0.000157273
0.0336761
0.000157017
0.0225115
0.000164746
0.00018187
0.0249046
0.000141707
0.000177977
0.000156268
0.000152684
0.000166729
0.000540277
0.000158409
0.000141984
0.000153735
0.0159152
0.000142552
0.000156328
0.000153031
0.000155397
0.000149719
0.000181626
0.000172593
0.000160797
0.000149229
0.000177001
0.00420972
0.000182465
0.0305957
0.000149663
0.000145158
0.0317718
0.000155312
0.00015684
0.0286708
0.0190116
0.000183166
0.000175776
0.000162976
0.00924201
0.016203
0.000166153
0.025876
0.000150994
0.000180302
0.0194963
0.000184208
0.000711338
0.0232092
0.000145205
0.000154402
0.000172263
0.000149888
0.000155201
0.000208367
0.000143635
0.000169814
0.000138352
0.000169877
0.024123
0.000156046
0.0268706
0.0326779
0.000145292
0.00017387
0.000165247
0.000155089
0.000145528
0.0206719
0.000176723
0.0154023
0.000160674
0.0200538
0.000181458
0.000217056
0.000210745
0.000164688
0.00289881
0.000148277
0.01174
0.000145537
0.000159456
0.000170357
0.000163787
0.000149617
0.000171746
0.0345629
0.000144028
0.00288301
0.000396279
0.000151995
0.000144869
0.000209836
0.00707473
0.0132415
0.000146274
0.000159061
0.00496236
0.000219852
0.0106713
0.00014898
0.000141616
0.000145226
0.000145487
0.000182379
0.000158678
0.00999616
0.000159639
0.000154738
0.000320579
0.0047885
0.000178321
0.0249643
0.0203634
0.000149125
0.00014747
0.000141203
0.000155274
0.000172671
0.0336336
0.00498667
0.000181905
0.000165054
0.000169756
0.000153008
0.00517168
0.000159382
0.000181311
0.000150466
0.00428173
0.00511389
0.000144283
0.000148735
0.0258332
0.000171811
0.000208408
0.0177772
0.000172587
0.000150473
0.0202234
0.000169423
0.000143269
0.0281916
0.00177499
0.000150659
0.000183522
0.000182784
0.000166232
0.000151674
0.000137231
0.000145135
0.000145161
0.000144969
0.00016124
0.000174255
0.0144123
0.000166589
0.000156986
0.000160568
0.000180971
0.000148705
0.000167591
0.00531933
0.00019508
0.0176659
0.000157259
0.000137158
0.0184465
0.000142529
0.00372442
0.000153142
0.000171322
0.000151869
0.000142967
0.00201262
0.000157905
0.000157625
0.000145282
0.0392851
0.00968648
0.018122
0.000157267
0.000153832
0.0237951
0.000147703
0.000146382
0.000255264
0.000914435
0.000159823
0.000162923
0.000151464
0.018385
0.000143645
0.000167304
0.000149552
0.000136959
0.00019432
0.000143778
0.000144699
0.0261675
0.000171426
0.038877
0.000193719
0.000142983
0.000160406
0.000146918
0.00014996
0.000166352
0.000155426
0.000150307
0.000190538
0.000148902
0.000178863
0.000165936
0.000213973
0.000147738
0.00100886
0.000151199
0.0210558
0.000152355
0.0318628
0.000174879
0.00015905
0.000170516
0.000162752
0.000160668
0.000150274
0.000168228
0.000144543
0.000144264
0.00304029
0.000180297
0.000198805
0.000144595
0.000152458
0.000147862
0.000180691
0.000147783
0.0266564
0.000170218
0.000152579
0.000143782
0.000141044
0.000170301
0.000468738
0.0317097
0.000172237
0.000270834
0.000229793
0.000182671
0.00016228
0.0285732
0.00013824
0.000152184
0.000157276
0.00501655
0.000141633
0.0242476
0.000152662
0.000145537
0.000341453
0.014082
0.00969328
0.00470713
0.000157278
0.00253354
0.000493442
0.000144627
0.0286012
0.000145139
0.000159367
0.0326693
0.000139557
0.0257948
0.00501347
0.000145497
0.000146483
0.000145084
0.0333376
0.000154992
0.00013724
0.000175921
0.000143114
0.000146404
0.000119026
0.000145308
0.000167305
0.000149006
0.000169135
0.000140533
0.0341637
0.000207162
0.000140749
0.000140928
0.000152651
0.000143676
0.000153857
0.000157789
0.000153162
0.000149038
0.000145582
0.000154793
0.000148633
0.000191549
0.000140949
0.000178364
0.000155298
0.000190466
0.000145618
0.000150118
0.000148621
0.000150082
0.000168182
0.000170296
0.000155091
0.0387976
0.00118919
0.0311358
0.0250151
0.000177524
0.0249073
0.000154403
0.000148339
0.0316421
0.0276198
0.000148291
0.0179034
0.000142951
0.000181399
0.00103336
0.000153851
0.000179434
0.0257824
0.0331843
0.000142574
0.000168008
0.000144721
0.00211473
0.000154595
0.0286612
0.00969884
0.000150509
0.000202714
0.0263063
0.000147507
0.0258752
0.000265579
0.00015556
0.000141413
0.000194311
0.0195632
0.000144566
0.000160793
0.000154759
0.0282446
0.000172005
0.000150798
0.0001463
0.0108268
0.000149413
0.000145292
0.000150671
0.000142347
0.0230655
0.000177331
0.000159347
0.022327
0.000144993
0.000179047
0.000148317
0.000200861
0.000174697
0.000570662
0.000144956
0.000158191
0.000153121
0.000146234
0.000153203
0.000149994
0.0268033
0.000154669
0.000143227
0.00014404
0.00465163
0.000141486
0.00143007
0.0290387
0.00219095
0.00015487
0.000147547
0.00014393
0.000226828
0.000152635
0.0182195
0.000143114
0.0340471
0.000155871
0.000163563
0.00127299
0.000151762
0.000145875
0.0187003
0.000182899
0.0242354
0.00015816
0.0322407
0.0366497
0.000152372
0.0200084
0.000153386
0.000167745
0.0181949
0.000160903
0.000178142
0.0152976
0.000167621
0.000175803
0.000147396
0.0160531
0.000145347
0.00157945
0.000143781
0.0138012
0.000145462
0.00014612
0.000166255
0.00931947
0.000148122
0.00126967
0.000177559
0.0232797
0.000145197
0.000164115
0.0323573
0.0246323
0.0274398
0.000179903
0.000145616
0.000184318
0.0335125
0.000160418
0.0192718
0.000154011
0.000185975
0.0107321
0.000148854
0.0109128
0.000143806
0.0311844
0.0211506
0.000156158
0.000167622
0.000154596
0.00455044
0.000145106
0.000152987
0.000142768
0.000151738
0.0297482
0.000177332
0.000177626
0.000156095
0.000159542
0.0265498
0.000190238
0.000227225
0.00731504
0.000142573
0.00014478
0.000194323
0.0282258
0.0330505
0.00280542
0.000190326
0.000169957
0.000206487
0.0321574
0.0210773
0.000478027
0.000141412
0.000179955
0.000169889
0.00017887
0.000148467
0.000155995
0.000176117
0.00731422
0.00156691
0.000167037
0.0384471
0.021715
0.000175952
0.000144937
0.000145047
0.0230825
0.000148309
0.0324816
0.000160284
0.000158679
0.00489782
0.000488245
0.00014066
0.000165085
0.000160031
0.000148605
0.0333516
0.000186242
0.033613
0.00014903
0.0214278
0.00698819
0.000194135
0.000151378
0.000159588
0.000168098
0.0185061
0.000183509
0.000174648
0.0299481
0.0295942
0.000139882
0.000158252
0.000160776
0.000185468
0.0105935
0.000152823
0.000140343
0.000153877
0.0236537
0.0242183
0.000149684
0.000173783
0.00561608
0.000141967
0.000352669
0.00015905
0.0335752
0.000173197
0.00608915
0.018111
0.000159165
0.000161303
0.0180382
0.000144888
0.000177554
0.0181505
0.000173902
0.000177042
0.000159819
0.000171613
0.0289394
0.0320363
0.000147307
0.0162361
0.0272691
0.000139693
0.000183126
0.000176953
0.000182831
0.0257825
0.0283011
0.00122229
0.000184294
0.0189479
0.000159669
0.000172013
0.000149663
0.000148903
0.000149332
0.00014397
0.00116612
0.00753452
0.000157018
0.000189831
0.000189233
0.00014462
0.00114094
0.0302731
0.000158186
0.000152438
0.000150789
0.00015632
0.000166898
0.000145342
0.018479
0.000159904
0.00017846
0.000164879
0.00017838
0.00020683
0.000177942
0.0367795
0.00014876
0.000156621
0.000158326
0.000148002
0.0326812
0.000177107
0.000163653
0.0220654
0.000156675
0.000155963
0.000169348
0.000143624
0.000151387
0.000178886
0.000156845
0.0176673
0.0393132
0.026019
0.000147154
0.0340942
0.000145151
0.00185387
0.000140429
0.00018585
0.0343925
0.000146686
0.0217852
0.0169692
0.000166661
0.000155912
0.000146234
0.000161338
0.0280584
0.000141924
0.000149465
0.000157942
0.00017801
0.000191791
0.000158581
0.000157467
0.000142342
0.000153376
0.0191404
0.000164042
0.000165706
0.000185474
0.017042
0.029841
0.0173335
0.000164769
0.000157618
0.0180217
0.00014898
0.000175474
0.000147756
0.0297252
0.00015764
0.000158417
0.000187351
0.0274392
0.000144683
0.000144953
0.000137954
0.000183982
0.00690728
0.000184325
0.000145047
0.000161936
0.000142576
0.0218765
0.000157346
0.0209984
0.00017113
0.000156678
0.00553403
0.000177148
0.00485715
0.000149705
0.000146082
0.000162413
0.000176934
0.000460861
0.000149155
0.00015383
0.000156969
0.0233402
0.00014803
0.000154442
0.0318416
0.000156189
0.000183892
0.000155525
0.000150221
0.000152491
0.00540838
0.000152739
0.025512
0.00475944
0.000142377
0.038702
0.000151714
0.000184107
0.000172875
0.000156154
0.000150095
0.000142211
0.000145301
0.0185076
0.000167968
0.0207363
0.0212275
0.000144953
0.000130992
0.000169416
0.0146344
0.000145884
0.00568517
0.0322493
0.027721
0.000145021
0.000153441
0.000151063
0.000216939
0.0324743
0.000157572
0.000145844
0.000160741
0.018075
0.000148817
0.000153466
0.000158356
0.000180805
0.0150617
0.000138545
0.0252024
0.000176941
0.000144829
0.0280092
0.000171321
0.0377856
0.0193938
0.000166013
0.000168067
0.000155022
0.000163397
0.000154863
0.000157512
0.000174368
0.000153066
0.000155176
0.000156683
0.0377251
0.00014159
0.0001833
0.034848
0.0353448
0.000154604
0.000148564
0.00246461
0.02304
0.010117
0.000149865
0.0357057
0.000172232
0.000144784
0.0142129
0.00016043
0.000154207
0.0105188
0.000153718
0.000169961
0.000146933
0.000138308
0.000155349
0.000137866
0.0303685
0.000151227
0.000142998
0.000178651
0.000154923
0.000161807
0.000184922
0.000150782
0.000145116
0.000155003
0.000153994
0.000189896
0.000416841
0.00960613
0.0167965
0.000187773
0.00256763
0.000198443
0.0265812
0.0384598
0.0298399
0.000145022
0.000168435
0.000146008
0.000152593
0.000148944
0.000162774
0.000189987
0.000171048
0.000171285
0.000144342
0.000144791
0.000169568
0.000149661
0.000154127
0.00015133
0.023217
0.000163325
0.00896111
0.000146961
0.00382273
0.000154074
0.000157858
0.000158438
0.000166141
0.000145534
0.000181283
0.0216863
0.000171698
0.0177801
0.0056424
0.000159042
0.000159417
0.00551714
0.000184084
0.000152075
0.000148228
0.000142652
0.0212529
0.00013905
0.00667086
0.000197092
0.000179691
0.0307909
0.0313777
0.000174131
0.0335016
0.000145205
0.00013748
0.00274694
0.0182264
0.000148112
0.000147302
0.0241657
0.000141471
0.00100944
0.000159792
0.000157421
0.000159741
0.000147395
0.000178571
0.0215536
0.0186472
0.000155715
0.000146756
0.000179353
0.000153175
0.000180033
0.000143626
0.000184647
0.000177154
0.000153851
0.000153895
0.000142772
0.000184159
0.000207201
0.000192225
0.0232997
0.000162125
0.0263036
0.000175418
0.000179915
0.030695
0.00014538
0.0222172
0.000152621
0.0229401
0.00214129
0.0212125
0.030523
0.000147011
0.00017423
0.00127633
0.000154225
0.0150861
0.000150511
0.000147934
0.000156303
0.00015108
0.00016029
0.00020445
0.00792234
0.0198836
0.000157505
0.000170862
0.000154445
0.000157652
0.000148139
0.000169189
0.00017819
0.0285623
0.000171185
0.000155373
0.000142767
0.000157954
0.000195406
0.000159973
0.000160633
0.000157537
0.000181681
0.000160826
0.000176197
0.000195198
0.0240836
0.000161731
0.000161733
0.000145838
0.000156323
0.0209228
0.000225076
0.000174612
0.000143576
0.0282007
0.000163039
0.000149306
0.000171338
0.0242438
0.00577776
0.000166804
0.000141592
0.0220812
0.000154112
0.000141994
0.000155102
0.0342837
0.0201592
0.000158196
0.0269083
0.0290379
0.000176472
0.000195545
0.000176166
0.0335139
0.000162857
0.032222
0.000154663
0.000210149
0.000210526
0.0328269
0.000162908
0.000146491
0.0265876
0.000147577
0.000153803
0.0314332
0.0185286
0.0012653
0.0228366
0.00015431
0.000152683
0.0227183
0.000149067
0.000143362
0.000147065
0.000170311
0.000145709
0.000174094
0.000175228
0.00504372
0.0154349
0.000151103
0.0152172
0.000173574
0.0241558
0.018296
0.000147122
0.000149441
0.000155831
0.0265973
0.00019023
0.000177438
0.0234182
0.022963
0.030706
0.000159856
0.016062
0.016366
0.000203706
0.0171294
0.000151994
0.000152862
0.000146799
0.000156705
0.000143937
0.000161918
0.0187547
0.000179102
0.00420264
0.0124117
0.0097433
0.0267704
0.0304406
0.000176589
0.0330663
0.00018427
0.000175522
0.000140174
0.000154612
0.000175346
0.0156124
0.00016225
0.0281954
0.0286183
0.00014631
0.00014824
0.000156998
0.000180502
0.00015464
0.000178807
0.0222141
0.00014119
0.000144367
0.000145429
0.00015233
0.000179034
0.0206558
0.000170397
0.0227244
0.000183653
0.000144301
0.00459714
0.000222996
0.00014704
0.00716315
0.0149318
0.0293346
0.0293607
0.0173962
0.000153336
0.0214439
0.02157
0.000157614
0.0263343
0.000148745
0.000157215
0.00015638
0.000153023
0.0298032
0.00017747
0.000149425
0.000159297
0.00313757
0.0210808
0.0001592
0.00149299
0.0317883
0.0303119
0.000148764
0.000161673
0.000184122
0.000144352
0.000144741
0.0358507
0.000144615
0.000207005
0.00455564
0.0302915
0.000145162
0.000178831
0.000187563
0.000148862
0.000150693
0.0378553
0.0317143
0.000158327
0.00017927
0.000113689
0.000194287
0.0323477
0.0259484
0.000158318
0.00438175
0.00401739
0.000164987
0.000142348
0.0012735
0.000137172
0.000153289
0.0173322
0.000169204
0.000182924
0.000155033
0.000170035
0.000148273
0.00013829
0.000150974
0.000151712
0.0280407
0.0001547
0.0230427
0.0116364
0.000170824
0.00017738
0.0279793
0.0324606
0.0282867
0.000208418
0.000155579
0.00016536
0.000158032
0.000982062
0.00380016
0.000150776
0.0212612
0.0199348
0.000159865
0.000178729
0.000178134
0.000179893
0.000181118
0.000152706
0.000182788
0.000184317
0.000186242
0.000188378
0.000181125
0.000179915
0.000176619
0.000142256
0.000162614
0.000178957
0.000145206
0.0164621
0.033292
0.00430731
0.0265117
0.000147421
0.000143496
0.000201406
0.0281432
0.000151466
0.000159281
0.000171627
0.0260527
0.0212744
0.000150225
0.000171173
0.000156625
0.00629111
0.0030684
0.000153976
0.0107421
0.0212385
0.00018136
0.0315424
0.000183126
0.00550758
0.0330746
0.000134314
0.0331261
0.0228096
0.000154503
0.000178631
0.000182685
0.000168163
0.000146854
0.028946
0.0154873
0.000147281
0.000148236
0.029437
0.00968688
0.000180329
0.000151332
0.000164883
0.000186841
0.0279968
0.0176024
0.000147941
0.000144553
0.00015133
0.000162502
0.0320302
0.0246975
0.0290202
0.000177651
0.00221768
0.000572504
0.000161612
0.000142233
0.0208959
0.000148025
0.032759
0.000157488
0.0313397
0.000152219
0.000156395
0.000325889
0.000147556
0.000182387
0.00012036
0.000168032
0.000160556
0.000152555
0.00018952
0.0176117
0.000229131
0.0258064
0.000179942
0.000156853
0.000158412
0.000179751
0.0334471
0.0224169
0.000182349
0.000191198
0.0001837
0.0254311
0.000177406
0.000147444
0.000141508
0.00014023
0.00578988
7.81481e-05
0.00603221
0.000171069
0.000186686
0.000148183
0.00263335
0.0366599
0.00568604
0.00014495
0.000153139
0.000138793
0.0232268
0.0027705
0.00528842
0.00525966
0.000183638
0.00120208
0.000142756
0.000164597
0.000152476
0.00643889
0.00972119
0.000147175
0.000184976
0.000155713
0.00015673
0.000186097
0.0163933
0.028296
0.000154786
0.000181193
0.0140573
0.0283397
0.0124235
0.0319838
0.0305259
0.000149151
0.000176111
0.000155521
0.000185558
0.00015135
0.000183067
0.000161896
0.000171663
0.0033092
0.000157701
0.000174797
0.000294409
0.0230323
0.000180861
0.00016193
0.0329206
0.000179447
0.000148466
0.000158853
0.030058
0.000160275
0.000167673
0.00994245
0.00591699
0.0140994
0.000162426
0.0296315
0.0216683
0.0198165
0.0261405
0.000162083
0.000182016
0.000181051
0.031552
0.00188298
0.00015109
0.01663
0.000180055
0.0137567
0.000161659
0.0177208
0.024447
0.0171782
0.000156153
0.0283484
0.000156894
0.0187518
0.000152629
0.0208291
0.00992256
0.000141524
0.000139603
0.0201884
0.0329861
0.000169387
0.000150948
0.000171841
0.000177245
0.0290719
0.000896954
0.0225792
0.000159094
0.0221018
0.00016902
0.0175576
0.000150959
0.00757237
0.0207601
0.000178425
0.000176397
0.000144226
0.000155147
0.000148293
0.00419797
0.000147109
0.000147413
0.0329551
0.0233095
0.000140011
0.0332833
0.000152337
0.00015447
0.000145164
0.000147682
0.000149057
0.00720016
0.0320174
0.000141508
0.0354918
0.000175127
0.000168314
0.0186659
0.000177962
0.000158301
0.000160525
0.00014368
0.0039515
0.000170608
0.0333438
0.000180463
0.0277944
0.0146755
0.000178827
0.00769085
0.0215802
0.0001412
0.016104
0.000174701
0.000175981
0.000198144
0.000149349
0.000193476
0.000190167
0.000147846
0.000213344
0.000144443
0.0309589
0.00018609
0.0293211
0.000189443
0.000188625
0.0327994
0.000150268
0.000151405
0.000173666
0.000154556
0.000149329
0.000149454
0.000160711
0.000147768
0.000143537
0.000153896
0.000172651
0.000155105
0.00016167
0.000160458
0.000194229
0.000178399
0.000155663
0.0314053
0.00015487
0.00014481
0.000179095
0.000165738
0.000163191
0.000148164
0.0352027
0.000152625
0.0197923
0.000153121
0.000185375
0.000144443
0.000153777
0.000303473
0.0332294
0.000175807
0.000169197
0.000137406
0.0279986
0.000148465
0.000143313
0.000176847
0.000154271
0.000185367
0.023253
0.000181563
0.0205602
0.000171143
0.0139402
0.000153015
0.000149429
0.000177403
0.00441905
0.000172938
0.00018365
0.0214411
0.000161357
0.000149015
0.000158688
0.000171461
0.000170663
0.000148019
0.000180268
0.00017814
0.000176962
0.000148804
0.000147554
0.00100224
0.000177057
0.0106206
0.000270432
0.000162257
0.000177237
0.000148882
0.000166862
0.0270528
0.000151335
0.000163769
0.00512045
0.000181452
0.0164794
0.000147383
0.000152379
0.00014353
0.0329264
0.000191312
0.0001569
0.000231402
0.000181597
0.000148726
0.000153196
0.0180392
0.0332312
0.00110225
0.021963
0.00191677
0.000159735
0.00958687
0.000182972
0.000159886
0.000170316
0.000177373
0.000154756
0.000148515
0.000178032
0.000184745
0.000153358
0.037336
0.00016926
0.000184303
0.00016045
0.000186638
0.000147715
0.0161497
0.000154364
0.000140884
0.000148527
0.000142391
0.000154377
0.000153333
0.000146763
0.000153866
0.000150807
0.000153389
0.00374627
0.000177037
0.000151006
0.000177024
0.000156807
0.00209613
0.000137714