/*--------------------------------*- C++ -*----------------------------------*\
| =========                 |                                                 |
| \\      /  F ield         | OpenFOAM: The Open Source CFD Toolbox           |
|  \\    /   O peration     | Version:  v2012                                 |
|   \\  /    A nd           | Website:  www.openfoam.com                      |
|    \\/     M anipulation  |                                                 |
\*---------------------------------------------------------------------------*/
FoamFile
{
    version     2.0;
    format      ascii;
    class       volVectorField;
    location    "250";
    object      ddt0(U);
}
// * * * * * * * * * * * * * * * * * * * * * * * * * * * * * * * * * * * * * //

dimensions      [0 1 -2 0 0 0 0];


internalField   nonuniform List<vector> 
13917
(
(0.017169 -0.00112593 6.46688e-18)
(-0.000326046 -0.00110533 3.95153e-19)
(0.0157613 0.00327029 -3.74543e-19)
(-0.00141053 -0.000425768 1.40703e-18)
(0.00135574 -0.00198931 -2.50069e-20)
(-0.000373085 -0.00100885 -9.47163e-21)
(-0.00211315 -0.000593309 6.09093e-18)
(0.00169066 -0.00352042 -3.98495e-20)
(-0.0021493 -0.000295455 8.12998e-18)
(-0.000507955 0.000300309 2.01834e-17)
(-0.00124668 -0.00308628 -9.67121e-20)
(-0.00105329 -0.000499071 2.23383e-18)
(-0.00059932 -6.20623e-06 3.96789e-19)
(0.00494367 -0.00498688 2.27103e-20)
(-0.00092332 -0.00105803 -7.05092e-19)
(0.0166496 -0.000989416 -6.33583e-18)
(0.000700772 6.22595e-06 -1.05266e-20)
(-0.000183519 -0.00286878 -2.35218e-19)
(-0.00456306 -0.00329284 3.44067e-18)
(0.0143077 -0.00183751 1.18395e-17)
(-0.00158875 -0.00154574 1.13957e-18)
(-8.22606e-05 -0.000824838 -7.78742e-19)
(-0.00224665 -0.00100204 4.9455e-18)
(-5.79959e-05 -0.000814477 2.26356e-19)
(-0.00154101 -0.000685605 -3.90443e-18)
(-0.00145808 -0.00168381 -3.39422e-19)
(0.016374 -0.000282591 1.08609e-18)
(-0.000711838 0.000282742 -2.43541e-17)
(-0.00108332 -0.0021181 -1.59087e-19)
(0.00069701 0.000469576 2.55678e-20)
(0.00128555 9.42325e-05 1.22164e-17)
(-0.00306563 -0.00131262 -1.21573e-18)
(-0.00131642 -0.000555788 2.78947e-18)
(0.0184034 -0.0011295 6.25524e-18)
(0.000819791 -0.00042941 3.60858e-20)
(0.00207373 -0.00393024 4.22523e-20)
(-0.00113197 -0.00102675 -3.45349e-18)
(-1.12826e-05 -1.27698e-05 7.18756e-19)
(-0.00210615 -0.000589207 -1.9999e-18)
(-0.00227932 -0.0012063 -2.62656e-18)
(0.00039258 2.86954e-09 -1.10523e-20)
(0.00137985 -7.67106e-05 6.96524e-20)
(-0.00179198 -0.000234842 -3.73028e-18)
(-0.00374438 -0.00107954 -1.20876e-17)
(-0.00393453 -0.00132406 5.12821e-19)
(0.0194165 0.00244288 6.39647e-18)
(-0.00159186 -0.00147484 -6.82908e-21)
(0.00867156 -0.0041161 4.14573e-18)
(0.00962569 -0.000360305 -5.32791e-20)
(0.000816777 -0.000462421 -5.77334e-20)
(-0.00100753 -0.000493127 -2.09506e-18)
(-0.000713417 0.00309724 -1.34766e-18)
(0.0163471 -0.000613223 2.10683e-18)
(-0.000727823 -0.000668121 1.21574e-19)
(-0.000804243 -0.000673969 -9.17229e-20)
(0.000248086 0.00287401 4.97297e-18)
(-0.00522927 0.000291856 -6.01777e-18)
(-0.00225458 -0.000979016 1.77498e-18)
(0.00132387 -7.50276e-05 -5.29998e-21)
(0.0199925 0.00116993 -3.20219e-19)
(0.0127108 0.00151926 2.98537e-18)
(0.00267375 0.00168593 1.43129e-19)
(0.000475106 2.27257e-05 -1.44289e-21)
(-0.00150383 -0.000670561 -5.65467e-18)
(0.0231126 -0.00422617 -7.84439e-18)
(0.000902965 0.000352522 5.06427e-21)
(-0.000912863 -0.00226901 1.37539e-19)
(0.00283494 -0.00333806 -4.66139e-20)
(-0.00128969 -0.00307715 -1.20627e-20)
(0.0173085 -0.000661024 3.36975e-18)
(0.0250864 -0.00348283 3.06131e-18)
(0.0181248 -0.00106394 7.46011e-18)
(-0.00114337 -0.000205586 2.3623e-19)
(0.00127739 -0.000118426 -9.79441e-20)
(-0.00166361 -0.00157219 9.21193e-19)
(-0.00148588 -0.000829718 -3.76534e-18)
(0.0003191 -0.0014909 -3.42792e-19)
(0.00124323 -0.000115462 4.54768e-20)
(-0.00146614 -0.00081066 1.06706e-18)
(-0.00136112 -0.000565916 -7.45298e-19)
(-0.000620905 -0.000912284 -2.94181e-19)
(0.000663953 5.29758e-06 5.20913e-22)
(-0.00106622 -0.000189248 -9.61118e-19)
(0.0213705 0.00111617 2.89135e-18)
(-0.000501192 -0.000131683 7.43654e-20)
(0.0059197 -0.00273517 -1.81749e-20)
(-0.00313965 -0.00128233 -4.25584e-18)
(-0.000514049 -6.48401e-05 -1.26187e-18)
(-0.00221849 -0.00124856 3.9588e-18)
(0.000779271 6.94472e-06 1.84899e-20)
(0.000905705 8.07601e-06 -4.77934e-21)
(-0.00192632 -0.000231333 -2.43399e-18)
(0.00902092 0.00124079 6.64312e-19)
(0.000764867 -0.000347495 1.49503e-20)
(-0.000835891 -0.000832403 1.59885e-19)
(-0.00111016 -0.00215777 1.01435e-19)
(0.0136752 -0.00274612 2.53887e-19)
(0.000526197 -1.43001e-06 1.94665e-19)
(-0.000506482 -7.25037e-05 -4.30728e-19)
(0.00324261 -0.00620508 1.77857e-19)
(0.000524575 1.42922e-05 2.5454e-20)
(0.000577935 1.55957e-05 -1.22446e-20)
(-0.000648447 -0.000923947 7.76155e-19)
(0.000533705 -1.89332e-05 -1.64309e-19)
(0.000385634 -0.00139818 3.04547e-19)
(0.0260315 -0.00481523 3.28154e-19)
(0.0174888 -0.00436592 4.77322e-18)
(0.00218905 0.00228809 -9.57688e-20)
(0.00142499 -8.16714e-06 -1.25161e-20)
(0.0151721 0.000138602 -1.40306e-18)
(-0.000573444 -1.44233e-05 5.32031e-19)
(0.0185252 -0.00126453 -1.27253e-17)
(-0.00122295 -0.00203998 -2.83975e-19)
(0.00206417 -0.00641263 9.42341e-18)
(0.0234327 -0.00413164 7.63312e-18)
(-0.00141058 -0.000899772 2.16005e-18)
(-0.00392074 -0.00298306 -1.35849e-18)
(0.000886115 2.37942e-05 -3.08181e-20)
(-0.00662567 0.00318021 -3.35559e-20)
(-0.000913907 -0.000105023 1.72699e-18)
(0.000734133 5.25079e-06 1.6898e-20)
(0.00119665 -0.000177128 -1.90864e-20)
(-0.00100539 -0.00238189 -2.80409e-20)
(-0.000463854 -0.00234199 -7.48662e-19)
(0.016861 -0.000624695 -6.48118e-18)
(0.0221331 0.000710541 -2.22058e-17)
(-0.0014935 -0.000634179 -1.16661e-18)
(-0.00168042 -0.00164718 5.2826e-20)
(0.000396522 -0.000528853 3.45827e-19)
(-0.000656871 -0.00264825 -2.85439e-18)
(-0.00265025 -0.000619774 -2.24134e-18)
(0.0157491 -0.00141997 -1.17634e-18)
(0.0190682 -0.000932341 6.8167e-18)
(-0.00138732 -0.000914439 7.90353e-19)
(-0.00329503 -0.00138569 -5.99035e-18)
(0.0140438 0.000207732 1.17235e-18)
(0.0121613 0.00138808 -4.25387e-18)
(0.0158186 -0.000607332 -6.23197e-19)
(-0.00139486 -0.0017852 8.79265e-19)
(-0.000134682 -8.39441e-06 2.38045e-21)
(-0.0056974 -0.0127429 5.60139e-19)
(0.00122389 -0.000140574 2.85576e-20)
(0.025716 -0.0056937 8.96408e-19)
(-0.000145862 -0.000512702 1.28704e-18)
(-0.00103277 -0.000211603 -2.53723e-19)
(0.00131588 0.000676434 8.99679e-20)
(0.0249445 -0.00276654 -5.35605e-18)
(-0.00691954 0.00827947 -5.54741e-19)
(0.00924572 -0.00628366 -1.01024e-18)
(-0.000749808 -0.000679685 -6.78606e-19)
(-0.00210081 -0.00123018 -8.9547e-19)
(0.000578675 2.09074e-05 4.89243e-20)
(-0.00101042 -0.000197306 -1.27497e-18)
(-0.000928875 -9.25448e-05 4.44938e-19)
(0.0128563 -0.00181338 -1.53935e-19)
(0.000250772 -0.000785697 3.79033e-19)
(0.000544761 -2.28059e-05 1.4843e-19)
(0.0190577 -0.00107969 -9.974e-18)
(0.000671494 1.18901e-05 -5.71671e-20)
(0.000848018 1.43584e-05 1.98374e-20)
(-0.000360976 -0.000310078 7.1845e-19)
(0.017956 -0.00297846 6.70152e-18)
(-0.00102266 -0.00118113 5.59292e-19)
(-0.00343161 -0.0149297 -9.61703e-19)
(0.0166311 0.000642841 -9.81012e-18)
(0.0159231 -0.00480768 2.13826e-19)
(0.0107908 -0.000438956 3.61178e-18)
(0.013594 0.00191341 1.07872e-17)
(0.000536555 0.000135225 -1.9987e-21)
(-0.00139098 -0.00184651 -1.73474e-18)
(-4.78606e-05 -0.000852497 -3.37299e-19)
(0.0193797 -0.000210362 1.93624e-19)
(-0.00214264 -0.000271214 -4.43531e-18)
(0.0139806 0.00130116 3.38423e-18)
(-0.00218726 -0.000286056 -7.77756e-19)
(0.000661326 2.05661e-05 -5.11881e-20)
(-0.00142993 -0.000410307 -2.25893e-19)
(-0.00182128 0.00491667 5.30429e-18)
(-0.00246642 -0.000593409 -5.31015e-19)
(-0.00101001 -0.00121147 -3.90574e-19)
(-0.0018515 -0.000267638 -2.50924e-19)
(-4.49907e-05 -0.000831567 1.72612e-19)
(-0.000995063 -0.000510683 -2.83735e-18)
(0.0123813 0.000683889 -5.62221e-18)
(-0.00208949 0.0023003 -4.7956e-20)
(0.0161921 -9.01228e-05 6.08706e-19)
(-0.000983397 -0.000503796 5.53842e-19)
(0.0136255 0.00216059 4.42686e-18)
(0.000714644 0.000467392 -9.73757e-21)
(0.00329725 -0.00268805 -3.26198e-19)
(-0.00222226 -0.000339931 4.43304e-19)
(-0.00366291 -0.00148886 1.42638e-18)
(0.00554387 -0.0013605 2.30779e-18)
(0.0166608 -0.00131205 -5.56061e-18)
(0.000765318 -0.000350202 -5.18433e-21)
(0.0170021 -0.000593685 1.86661e-18)
(-0.00182348 -0.000776706 -3.16913e-18)
(0.0195424 -0.00114325 -1.71477e-17)
(0.000804692 -0.000410772 -2.2185e-20)
(0.000203741 -0.000786382 1.18023e-19)
(-0.00156406 -0.00134936 7.99164e-19)
(0.0172264 -0.000733089 1.17198e-18)
(0.0155071 -0.000555014 3.47671e-18)
(-0.00100003 -0.00100755 -1.11358e-18)
(0.0167964 0.0010431 9.05567e-20)
(-0.0009047 -0.00161561 2.73731e-19)
(-0.00215178 -0.00120153 2.16055e-18)
(0.00123324 -0.000164937 -2.34402e-20)
(-0.000852354 0.00456586 -5.60313e-18)
(-0.000600357 -0.000928654 5.69819e-19)
(0.000408672 -0.000352849 -1.33117e-19)
(0.00276366 -0.00251101 3.09804e-20)
(0.00296302 -0.00285133 -9.06273e-20)
(0.0115225 -0.00426556 4.94152e-18)
(-0.00309892 -0.00138016 2.65738e-18)
(-0.00145973 -0.00174859 7.08471e-19)
(0.0192877 -0.00409473 -1.2795e-17)
(-0.000218318 -3.70996e-05 9.4818e-20)
(0.00107408 -2.15956e-05 2.53644e-20)
(0.0010764 -1.47805e-05 -3.08834e-20)
(0.0124828 0.00173149 3.2224e-18)
(0.00638429 0.000540385 3.70243e-18)
(0.0156549 0.00325022 -5.7205e-18)
(-0.000648889 -7.52635e-05 1.06793e-18)
(0.000401318 8.78479e-06 1.65454e-21)
(0.0127471 0.000777373 -7.26339e-19)
(0.016866 -0.000587066 2.54496e-18)
(0.00100556 -1.67375e-05 -9.57669e-21)
(0.000997472 -1.48052e-05 1.27541e-20)
(0.000355653 -1.22924e-05 -2.23062e-20)
(0.00109811 -1.49247e-05 1.69981e-21)
(0.00110109 -8.02085e-06 7.16205e-20)
(0.0179841 -0.00106252 -6.91401e-18)
(0.0175537 -0.00202992 -8.4403e-18)
(-0.000373252 -0.000877557 9.39597e-21)
(0.000567745 0.000228402 -2.01819e-21)
(-0.0013849 -0.000210276 -6.58787e-18)
(0.017988 -0.000757231 -7.76559e-18)
(0.000755118 1.40335e-05 1.75837e-20)
(-0.000662796 -7.11041e-05 -1.06785e-18)
(0.0165958 0.000631586 1.47793e-19)
(0.0278597 -0.00578608 3.10823e-18)
(0.00927635 0.000484788 -3.98345e-18)
(0.0192688 -0.0039776 2.38975e-18)
(-0.00319528 -0.000335785 -7.10553e-18)
(-0.000159846 -0.000514888 -5.21661e-19)
(0.015188 0.00159802 -3.20488e-18)
(-0.00117631 -0.000213625 3.68929e-18)
(-0.00120743 -0.00199733 1.96859e-19)
(-0.00272935 -0.00189272 -3.98131e-18)
(-0.00100557 -0.000981356 1.33649e-18)
(0.0165845 -0.00294284 4.01438e-18)
(-0.000959382 -0.00012967 3.28699e-18)
(-0.00223831 -0.000688909 1.15234e-18)
(-0.00214185 -0.000369213 -1.27876e-19)
(-0.000358887 -0.000924182 -8.26722e-19)
(0.0001836 -1.29688e-06 4.02132e-21)
(-0.00152426 -0.000648833 8.58565e-19)
(0.00134673 -0.000564431 -4.70923e-20)
(0.000749461 -0.000334093 1.21406e-21)
(0.0172828 -0.000569418 1.07423e-17)
(0.00673701 -0.00639209 -1.49744e-20)
(0.00114503 -0.000298767 2.04598e-20)
(0.000975684 -1.81835e-05 -3.99919e-20)
(0.000260755 -0.000825731 -2.23946e-19)
(0.000974292 -2.30895e-05 1.33367e-22)
(-0.000959721 -0.000118945 1.85866e-18)
(-0.000689062 -1.1157e-05 -9.77235e-19)
(-0.00211876 -0.000750447 3.45859e-18)
(0.00120224 -0.000313864 2.1388e-20)
(0.0165477 -0.00062845 -2.15452e-18)
(0.0178844 -0.0041773 -4.86404e-18)
(-0.000817932 -0.000460039 2.6045e-19)
(0.00086942 -0.000923223 2.86826e-19)
(0.0212068 -0.000790457 -4.12524e-18)
(0.00111398 9.5855e-05 3.19324e-20)
(-0.00677808 -0.00405199 7.32659e-19)
(0.0174734 -0.000548691 -1.07829e-18)
(0.00111665 8.82902e-05 -6.20433e-20)
(0.0175993 -0.000697944 3.32186e-18)
(0.000760556 -0.000350588 2.72836e-22)
(0.0177301 -0.00266914 -4.40817e-18)
(0.000576876 1.39875e-05 2.40053e-20)
(-0.00086171 -0.0011306 8.7458e-19)
(-0.000338612 -0.000947184 -3.14204e-19)
(-4.838e-05 -0.000502193 4.25857e-19)
(-0.00338034 -0.00904879 -1.00601e-18)
(0.000171888 -2.61583e-05 8.28747e-19)
(0.0164899 -0.00424332 -4.7526e-19)
(-0.00186847 -0.000890416 -1.41835e-19)
(0.0060036 -0.00628669 -1.22855e-19)
(0.00152112 0.000896646 -5.76072e-20)
(0.0164827 0.00247112 -5.29023e-19)
(0.0162101 -0.000577319 -4.93864e-18)
(0.000852894 1.53346e-05 -2.07793e-20)
(-0.00202883 -0.000937815 2.84085e-19)
(0.0014401 -0.00109161 2.37834e-20)
(-0.00139556 -0.000965953 -2.33743e-18)
(0.00138746 -0.0016993 6.59094e-20)
(-0.00148358 -0.000783116 -5.38457e-20)
(0.000776256 -0.000343346 4.28439e-21)
(0.00019618 -3.26583e-05 -1.5966e-19)
(-0.00387966 0.00427474 2.51576e-18)
(-0.00538067 -0.00364991 9.35991e-20)
(-0.00225258 -0.000711117 -5.83276e-19)
(-0.00145953 -0.000768383 -3.24544e-18)
(-0.000675059 -7.31961e-05 1.01115e-18)
(0.0195987 -0.00109893 1.41112e-17)
(0.0169902 -0.000720414 -1.90903e-18)
(0.000477476 -0.000487455 1.26711e-19)
(0.00124226 0.000613624 2.05094e-20)
(-0.00141387 -0.000948646 2.24164e-19)
(0.000958571 -0.0057686 -4.8107e-19)
(-0.00176048 -0.00217471 -1.35886e-17)
(0.0175365 -0.00383132 6.30529e-18)
(0.0145796 0.00112672 -8.24043e-18)
(0.00115183 0.000389108 1.03589e-20)
(0.0112551 -0.00211299 -1.00046e-18)
(0.000778264 -0.000795644 -3.09226e-19)
(0.0214889 0.00120638 -5.35443e-18)
(-0.00340006 -0.00898662 7.58575e-19)
(0.0122293 0.00410268 2.46521e-18)
(-0.000678892 -1.01377e-05 9.22762e-19)
(-0.000927918 -0.00108565 7.34494e-19)
(0.0169962 5.37743e-05 -6.05546e-19)
(8.10404e-05 -0.000890535 1.76167e-19)
(-0.000163986 -0.00113153 -2.17788e-19)
(-0.00365117 -0.00166776 -4.38565e-18)
(0.000706713 2.55172e-06 -5.40726e-21)
(0.019604 -0.000135858 -1.49231e-17)
(-0.000541776 -0.000101156 9.84282e-19)
(-0.00279758 -0.000637588 4.76884e-18)
(0.00122077 0.000223387 -1.76987e-21)
(0.0107811 -0.00152304 -2.04464e-17)
(0.00022417 -0.000195427 -5.08174e-19)
(-0.00220039 -0.000730407 2.0476e-18)
(-0.000958875 -0.00167694 7.4194e-20)
(0.00113768 0.000485946 -1.35579e-20)
(0.000822968 1.5494e-05 1.53323e-20)
(-0.00291051 -0.00178317 6.65355e-18)
(0.0230663 -0.00409265 1.18736e-17)
(-0.000842778 -0.000792678 1.18596e-18)
(0.00010947 -0.000869117 1.67066e-19)
(0.018909 -0.00133967 -1.00868e-17)
(0.0251729 -0.00496881 -8.65213e-18)
(0.0169144 0.00081265 5.30711e-18)
(0.00526432 -0.00545404 -2.80161e-20)
(0.00108496 8.04352e-05 1.63331e-20)
(-0.000460382 -0.000840365 -2.19323e-19)
(0.0292865 -0.00559415 1.0394e-17)
(0.00997932 -0.00327607 5.17369e-18)
(0.00108874 7.24626e-05 -1.88935e-21)
(0.00160797 -0.00136924 -8.40826e-21)
(-0.000888125 -0.0005838 1.79714e-18)
(-0.00181297 -0.00230319 -6.00243e-19)
(-0.00225355 -0.000712567 -8.23874e-19)
(0.00236472 -0.00121447 -8.32008e-19)
(-0.00132291 -0.000747292 -1.93705e-18)
(-0.00667479 -0.00491084 -1.3363e-18)
(-0.00281598 -0.000721358 2.11113e-18)
(0.0175657 -0.00150983 -1.36595e-17)
(0.000366952 -0.000548024 -3.69995e-19)
(-0.000856638 -0.000782523 3.50285e-19)
(0.00159904 -0.00217556 -3.03829e-19)
(0.00202581 -0.00924376 -2.85998e-18)
(0.000693496 5.7694e-06 -9.5043e-21)
(0.0166091 -0.00113414 7.07956e-18)
(-0.00289231 -0.000695116 1.65461e-18)
(0.00143969 -0.00866288 2.00999e-20)
(-0.000861073 -0.000693975 -6.79544e-20)
(-0.00136223 -0.00280461 -1.10513e-18)
(0.00129113 0.000653129 3.89356e-21)
(0.00864632 0.00430813 -4.31097e-19)
(0.00120291 -2.18726e-05 -1.33765e-19)
(0.0152592 0.00201993 -1.90337e-18)
(0.0207995 0.00024151 4.66892e-18)
(-0.000911073 -0.00175704 4.54939e-22)
(-0.000837947 -0.00047702 -1.75791e-18)
(0.0248404 -0.00789176 -2.07731e-18)
(0.00127637 0.000257885 3.82484e-21)
(0.0160503 0.000999606 -1.42707e-18)
(0.0049061 -0.00179752 -7.57776e-18)
(0.00116178 -3.98815e-05 1.25385e-19)
(0.00942615 0.00248507 -4.93883e-20)
(-0.000298867 -0.00106434 -1.10812e-18)
(0.00438812 0.00286 -9.29605e-20)
(0.000764771 -0.000249464 2.66029e-20)
(0.0147676 -0.00253302 -1.18875e-17)
(0.00512677 0.00359177 1.06397e-19)
(-0.00120552 -0.000941316 6.92639e-19)
(0.0125768 0.00101902 9.74598e-19)
(-0.00421185 -0.00409588 8.10579e-19)
(-0.000959345 -0.000944515 1.60624e-18)
(0.0167735 -7.35456e-05 4.50847e-18)
(-0.0113274 -0.00652 -6.04278e-18)
(-0.00121398 -0.000874669 -1.67737e-18)
(-0.00178833 -0.0100372 -2.09221e-18)
(-0.000515449 -0.000785786 -2.57902e-18)
(-0.00375978 -0.00485673 -4.79173e-19)
(0.0118 0.00343307 5.70808e-18)
(-0.000513462 -8.79436e-05 2.50015e-19)
(-0.00216334 -0.000490462 8.27463e-18)
(-0.00148424 -0.000745735 1.21618e-18)
(-8.57112e-05 -0.000480214 4.6024e-20)
(-5.36555e-05 -0.00022222 -2.75703e-19)
(0.000334996 -0.000563503 -5.50479e-20)
(0.0101839 0.00159069 1.43368e-18)
(0.0148504 -0.00374269 -1.60645e-19)
(-0.000809746 -0.000737611 -6.00152e-19)
(0.000375069 -0.000595271 -2.38347e-19)
(-0.000102688 -0.000752442 8.86899e-19)
(-0.00201765 -0.000720743 -4.47613e-18)
(0.00657403 -0.00253704 -2.34222e-19)
(0.00115821 0.000162747 6.57364e-20)
(0.00053802 0.000121944 -3.62238e-22)
(-0.00185769 -0.00188266 6.01364e-18)
(-0.00152171 -0.00172487 1.37602e-18)
(-7.65247e-05 -0.000523019 -1.98457e-20)
(-0.00121282 -0.000923815 4.06396e-19)
(0.0162451 0.000664476 -1.16726e-17)
(0.00808886 0.000889942 -3.51225e-19)
(0.00102296 9.44419e-05 -6.06433e-21)
(-0.00521802 -0.00311009 -4.56572e-18)
(0.020491 0.00189965 1.48996e-18)
(0.00130015 -3.92589e-05 -1.33204e-20)
(0.00113407 0.000143654 1.59817e-20)
(-0.00140463 -0.00145288 -1.22816e-18)
(-6.13722e-05 -0.0002116 4.68531e-19)
(0.00116224 0.000154458 4.21025e-20)
(-0.000400941 -0.000904061 6.09649e-19)
(0.00113966 0.000136141 -9.63042e-21)
(0.00128391 -2.84608e-05 -3.29896e-21)
(0.0158146 0.00119904 1.34288e-17)
(-0.000543675 -0.000798818 1.53053e-18)
(-0.00241154 -0.00106096 -5.63279e-19)
(0.0165737 -0.000638328 -9.17923e-19)
(-0.00202835 -0.000890657 4.59088e-18)
(0.000392566 -0.000370141 3.74774e-21)
(-0.000997279 -0.000203052 3.00793e-18)
(0.016968 -0.00049836 4.64686e-18)
(-0.00152084 -0.00138659 -7.14932e-19)
(0.0165734 -0.000662795 5.58149e-18)
(0.00119737 0.00020218 2.41071e-20)
(-0.000705201 -0.000194252 -1.0545e-18)
(0.00129931 0.000251821 5.22607e-20)
(0.00112025 -6.02895e-06 -3.81853e-20)
(-0.00111246 -0.00101033 3.02309e-18)
(-0.000247482 -0.00111881 4.95311e-19)
(0.016594 0.000530635 9.82651e-18)
(0.000178393 -0.000424338 1.28033e-19)
(0.0262752 -0.00516892 2.38865e-18)
(-0.000695336 -0.000197099 1.18383e-18)
(-0.00251536 -0.000762157 -2.12526e-18)
(1.66898e-06 0.000212107 1.17884e-20)
(-0.000566623 -0.000914514 -8.47656e-19)
(-0.0031137 0.000109088 7.89115e-19)
(0.0169359 0.000924077 8.69042e-18)
(-0.000877681 -0.000566078 -3.28876e-18)
(0.0078078 0.00235247 -8.08815e-21)
(0.000359486 -0.000391096 -1.50747e-19)
(-6.80183e-05 -7.36033e-05 -6.89023e-19)
(-6.07313e-05 -0.00072559 -8.50015e-19)
(-0.000341039 -0.00105309 -1.96047e-20)
(0.000414511 -0.000318732 -7.40082e-20)
(-0.000441383 -4.87531e-05 -1.32093e-18)
(0.0190183 -0.000939451 -1.61357e-17)
(0.0135633 0.00151749 -2.82668e-18)
(0.000428043 -0.000301927 4.04931e-20)
(0.0159303 0.00263085 6.09827e-19)
(-0.00203609 -0.0012953 -7.42833e-18)
(-0.00067462 -1.91268e-05 -2.84995e-19)
(-0.00191323 -0.000883034 1.40076e-18)
(-0.00334388 -0.00106686 1.08768e-18)
(0.0173094 -0.000614852 2.07098e-17)
(-0.00218803 -0.000499972 5.32458e-18)
(0.0247567 -0.00441339 9.49125e-18)
(0.0100591 0.000915649 4.86235e-20)
(0.0111429 0.000256797 4.45072e-20)
(-0.000290726 -0.00111414 3.06255e-19)
(0.000938745 0.000422008 9.31505e-21)
(-0.000264758 0.000559141 1.99699e-20)
(-0.000965502 -0.000969551 -4.17503e-19)
(0.0155689 0.000560387 2.43019e-18)
(0.000897878 6.83392e-06 1.80948e-21)
(-0.000725242 -0.000641851 2.85221e-18)
(-0.000860464 -0.000820639 6.63862e-20)
(-0.00216821 -0.000412961 1.64487e-19)
(-0.00177304 -0.0014185 1.66512e-18)
(-0.0090767 0.000295446 3.13999e-18)
(-0.00257572 -0.00121071 6.49123e-18)
(0.00205245 0.000250635 -6.88178e-20)
(0.00107942 -0.000919359 -6.26996e-20)
(-0.000506343 -0.00276359 1.26303e-19)
(-0.00283761 -0.000660526 7.28795e-20)
(-0.000804471 -0.000738534 -4.85617e-20)
(0.00453513 -0.0051983 1.86102e-19)
(-0.00223817 -0.000784045 -9.21838e-19)
(-0.00187908 -0.00086713 -4.6782e-18)
(0.0154386 0.00120304 -8.55471e-18)
(-0.000561708 -0.000115997 2.16172e-19)
(-0.00296348 -0.000550883 -3.13116e-18)
(-0.000371023 0.00635622 1.05395e-18)
(8.8513e-05 -0.000160098 5.46661e-19)
(0.0181047 -0.000890348 -1.77276e-17)
(-8.45557e-05 -7.26334e-05 -1.1823e-19)
(0.00112124 2.32712e-06 -1.2588e-21)
(-0.00197724 -0.000748437 5.8194e-18)
(0.00120049 0.000192205 -5.56366e-21)
(-0.000196843 -4.28635e-05 -4.48882e-19)
(-0.0057823 0.00268394 -8.92424e-19)
(0.019908 -0.00120524 -7.8847e-18)
(0.010436 0.00166934 4.51192e-19)
(-0.000387949 -0.000290553 -9.13688e-19)
(-0.00154079 -0.000334919 -7.48048e-19)
(0.0020614 -0.000490294 4.94343e-20)
(0.0161972 0.00227528 3.7493e-18)
(0.0184033 -0.00136047 3.20746e-18)
(-0.000778003 -0.000718941 1.13197e-18)
(-0.000769324 -0.000664839 -1.69976e-19)
(-0.000377964 -0.000261409 -1.62135e-19)
(-0.00206992 -0.000444469 3.4552e-18)
(-0.0077677 -0.0274745 7.88411e-19)
(0.000462318 -0.000560333 -4.78455e-20)
(0.000778713 8.8315e-06 7.08549e-21)
(0.000196733 -0.000751819 -2.74597e-19)
(-0.000114038 -0.000455119 3.56945e-19)
(-4.8699e-06 -0.002321 3.55931e-22)
(-0.00203302 -0.00073582 5.1782e-19)
(0.000874793 1.2911e-05 6.10796e-22)
(-0.00249489 -0.00123205 1.87219e-18)
(8.72892e-05 -0.000150249 -2.52932e-19)
(-0.000151397 -0.000774668 -2.45482e-19)
(-0.0014474 -0.000728958 2.61877e-18)
(0.0174526 -0.00305964 1.38769e-17)
(0.0008106 -3.08406e-05 -3.58983e-20)
(-0.00184811 -0.000410628 3.55176e-18)
(0.000769571 -0.000318416 8.36917e-21)
(-0.00247107 -0.000738755 -8.4357e-18)
(-0.00146787 -0.00106752 4.57748e-18)
(-0.00142345 -0.00211685 1.17782e-18)
(-0.00210335 -0.000313159 4.21976e-18)
(0.0112375 -0.00406514 -5.98059e-20)
(-0.00134375 -0.000740409 1.05912e-19)
(-0.000695436 -0.00247579 -2.45422e-19)
(0.0192239 -0.00111668 1.17045e-17)
(0.0168311 0.000554682 5.4518e-18)
(0.0169764 -0.000653614 -1.58398e-17)
(0.000553182 -0.000435243 1.23589e-19)
(-1.84604e-05 -0.000696783 4.07418e-19)
(0.0023293 0.000393376 -4.47019e-20)
(-0.000790911 -0.000331886 -1.30965e-18)
(0.0233622 -0.00327673 1.0685e-17)
(0.0011254 0.000105307 1.60502e-20)
(0.000920036 -0.019823 -2.42954e-21)
(-0.00183504 -0.0007597 3.0782e-18)
(0.0199492 0.000216648 1.58511e-18)
(-0.00824424 -0.00418929 -3.58223e-19)
(-0.00180401 -0.000262625 -5.20055e-18)
(-0.00226194 -0.00361093 1.50501e-17)
(0.000445418 -0.000300567 -1.49708e-20)
(-0.00323775 -0.00102716 -1.06466e-17)
(0.000592325 -3.82717e-06 -3.62435e-19)
(0.000536622 -0.000718426 -7.19782e-20)
(0.0199888 0.000157308 -1.32567e-18)
(0.00117547 0.00018229 -9.65016e-21)
(0.00248797 -0.000662562 2.39966e-18)
(0.000427528 8.93384e-06 6.86947e-21)
(-0.00069055 -1.32648e-05 -3.19733e-19)
(-3.34136e-05 -0.000723139 -4.31924e-19)
(-0.00895766 0.000520664 -4.46399e-18)
(0.000204638 -0.00260204 -3.75694e-21)
(0.000925083 -2.35737e-05 -1.4435e-20)
(-0.00341676 -0.000849868 8.59368e-18)
(-0.00195505 -0.000828797 -5.33592e-18)
(-0.00902358 0.0306711 1.13918e-19)
(0.0245552 -0.00204664 1.71365e-17)
(0.0205182 -0.00144531 -3.73133e-18)
(0.0172497 -0.000269109 -2.55339e-17)
(0.000800115 -2.93622e-05 5.06835e-20)
(0.0171822 -0.000766096 1.01486e-17)
(0.00061763 3.81435e-05 -1.98889e-21)
(0.0128089 0.00135931 4.60312e-18)
(-0.0101421 0.0102115 -9.05808e-19)
(0.000402921 -0.000835677 -2.15995e-20)
(0.0014383 0.000742991 -1.68196e-20)
(0.00056026 1.92121e-05 -3.11433e-21)
(-0.00220284 -0.000775519 -9.94232e-18)
(-0.00189526 -0.000245028 7.37889e-19)
(0.00117944 0.000173267 5.93344e-20)
(0.000552773 -4.07643e-06 -7.69779e-20)
(-0.000678436 -1.49405e-05 -1.20478e-18)
(0.0239664 -0.00167104 4.47196e-18)
(-0.00043055 -0.000327533 8.86798e-19)
(-0.0029439 -0.00120555 -2.02831e-18)
(-0.000689221 -0.000633104 -2.16171e-18)
(0.000918279 -1.8842e-05 1.39474e-20)
(0.000761528 1.74294e-05 -2.4094e-20)
(0.0186766 0.00351627 -8.89736e-18)
(0.0174168 -0.00282866 2.79439e-18)
(-0.00404217 -0.00422506 3.44911e-18)
(-0.00260336 -0.00177959 1.34129e-18)
(-0.00204603 -0.00072547 1.6345e-18)
(0.0203965 -0.00843364 -1.06125e-17)
(0.0180736 -0.000718144 -8.48713e-18)
(0.000777852 -0.000261372 8.64986e-20)
(0.0167384 0.000992741 1.9286e-18)
(-0.000652049 -1.14841e-05 -6.75806e-19)
(-0.00392654 -0.00166291 -1.77655e-20)
(-0.000774395 -0.00034354 1.97157e-18)
(0.024612 -0.00748113 -2.95763e-18)
(-9.3694e-05 -0.000438329 -2.39803e-19)
(-0.000388663 -0.0022736 4.39175e-20)
(-0.00102587 -0.00020934 2.22047e-18)
(-0.00902674 0.0296839 -1.08002e-19)
(-0.00212147 -0.000769447 -6.72481e-18)
(0.0217736 -0.00449941 -5.89282e-18)
(0.000849974 5.92079e-06 8.83599e-21)
(-0.00215934 -0.000746254 -7.97159e-18)
(0.000682812 -0.000583062 -4.41177e-20)
(0.000440013 2.40055e-06 1.21364e-20)
(0.0176022 -0.00171966 7.78247e-18)
(0.01302 -0.00681722 1.17136e-18)
(0.000799044 -0.000603556 9.70773e-20)
(0.00377468 -0.00138068 3.33428e-18)
(-0.000654961 -7.84784e-05 -2.06944e-19)
(0.000845209 -0.000785662 -1.57559e-20)
(0.000486956 1.11764e-05 -6.86858e-20)
(0.017969 -0.00185391 -7.54976e-18)
(-0.000454692 -0.000319022 -5.32154e-19)
(0.00154062 -0.000747014 1.24526e-19)
(0.00112101 0.000112447 1.13304e-19)
(0.000769825 -0.000580879 -1.27309e-20)
(0.00084407 -0.010111 -5.06633e-18)
(0.000556068 1.78866e-05 1.20869e-20)
(0.00116816 -0.00353744 4.38333e-18)
(0.000621674 3.07356e-06 4.21628e-20)
(0.000191973 -0.000191972 2.63906e-19)
(0.0119832 0.0015032 1.63187e-18)
(-0.00325814 -0.00123033 1.12508e-18)
(-0.000759031 -0.000704369 -8.56957e-19)
(0.0153039 -0.000490277 6.73918e-19)
(-0.00052354 -0.000865683 2.74831e-18)
(0.00431811 -0.000479176 -9.766e-20)
(0.00222704 0.00560674 1.10774e-18)
(0.000452545 -0.000284344 1.95303e-19)
(-0.000940916 -0.00101859 7.79376e-19)
(0.0169869 -0.00293462 -1.08893e-18)
(0.00620518 -0.0099899 1.27205e-17)
(-0.00140943 -0.00139385 -1.74707e-18)
(-0.00114948 -0.0010132 -5.06635e-19)
(-0.00076603 -0.00237972 1.37682e-20)
(0.000670455 2.38748e-06 -2.70903e-20)
(0.000251237 -0.000549399 -3.46175e-19)
(0.00141559 0.000227177 7.25894e-21)
(-0.00124898 -0.000931018 4.86631e-18)
(-0.00169504 -0.000818383 -8.06874e-19)
(0.0147868 0.00156569 3.66629e-18)
(-0.00218238 -0.000779764 5.75269e-18)
(0.00949771 -0.00246507 -1.01084e-19)
(0.0182586 -0.00107248 -3.52492e-18)
(-0.00572438 -0.00237683 -1.79642e-20)
(-0.00213917 -0.000725116 7.20173e-18)
(0.00496962 -0.00315385 -5.85862e-18)
(0.0177757 -0.000737521 2.43464e-18)
(0.000778268 -0.000342071 -7.14936e-20)
(-0.00271087 0.000259413 -7.8917e-21)
(0.00162496 0.000199688 -2.3695e-21)
(0.000171707 -0.000190043 -1.04938e-19)
(0.000793846 3.53202e-06 -1.17276e-22)
(0.000757656 1.57783e-05 9.81865e-21)
(0.00230769 -0.000473857 -4.77887e-20)
(-0.000310712 -4.56168e-05 3.66221e-19)
(0.0173459 -0.000715438 -4.69492e-18)
(-0.00267106 -0.00055845 3.66204e-18)
(0.000435229 -3.85973e-05 1.69265e-19)
(-0.00349508 -0.0016981 2.8266e-19)
(0.000861982 4.25855e-06 -8.45401e-21)
(0.0179207 -0.00381294 -4.78762e-19)
(0.000757021 -0.000373836 8.40984e-22)
(0.000421516 -0.000531782 -2.26313e-19)
(0.0192674 -0.00105999 1.51575e-18)
(-0.00170495 -0.00112597 8.90761e-18)
(-0.00316551 -0.0221562 -2.1005e-19)
(-0.00117274 -0.000267428 3.93079e-18)
(0.00129915 0.000422518 2.37725e-20)
(0.000553718 -0.000503655 -1.69044e-19)
(-0.00134348 -0.0003034 -2.34073e-18)
(-0.00211414 -0.00064454 6.11804e-18)
(2.79618e-05 -0.000503673 -7.54226e-20)
(0.0164012 -0.000580104 6.24084e-18)
(-0.00200241 -0.000906553 2.30589e-18)
(-0.0105532 -0.0311619 3.17256e-19)
(-0.000973075 -0.0132483 -5.82519e-20)
(-0.00284753 -0.000280085 -2.30415e-19)
(0.020748 -0.00156049 1.27774e-17)
(-0.00153245 -0.000352346 -1.64441e-18)
(0.000505248 -7.57821e-06 -1.71899e-19)
(0.000718699 -0.0006061 -1.23953e-21)
(0.0176552 -0.000529877 -4.59321e-18)
(0.0114683 0.00135608 -3.54587e-19)
(-0.0018588 -0.00079055 1.19938e-18)
(0.0167 -0.000674583 3.31551e-18)
(0.00242658 -0.0101529 3.22683e-20)
(0.000217424 -0.000209976 3.00349e-19)
(0.000461787 -0.000510439 -3.1065e-20)
(-0.00108919 -0.00102483 -3.93935e-19)
(0.0235892 -0.00388121 -1.52568e-17)
(-0.00250248 -0.0185917 3.37144e-19)
(-0.00209765 -0.000759317 -3.18102e-18)
(-0.0013671 -0.000306263 4.04732e-19)
(-0.001848 -0.000426244 2.82465e-18)
(-0.00417764 -0.0016714 6.31807e-18)
(0.000627717 -0.000831258 9.4774e-20)
(0.00173782 -0.00209962 3.92688e-18)
(-0.00270979 -0.000587374 9.7311e-19)
(-0.000806662 -0.000818525 1.23956e-18)
(-0.00135211 -0.00057711 -4.43563e-19)
(0.000487485 -7.19057e-06 -2.17625e-20)
(-0.00211441 -0.000641467 -2.98529e-18)
(0.00111693 -0.000668977 -4.19353e-20)
(0.00828003 -0.00818284 -1.39046e-18)
(-0.00138799 -0.00101868 -3.48219e-19)
(0.00140864 -0.00168669 6.21893e-20)
(0.0163443 -0.000619826 1.82313e-18)
(0.000804686 0.000600946 9.5748e-21)
(0.00213878 -0.0141169 -9.1818e-21)
(-0.00114869 -0.000978847 -5.46867e-19)
(-0.00063655 -0.00116327 6.87199e-20)
(-0.00187367 -0.000700017 -1.8772e-18)
(0.000106613 -0.00988793 -3.98572e-18)
(0.000751581 4.96156e-06 1.43629e-20)
(-0.00328938 -0.000937941 1.39045e-18)
(0.0177486 -0.0033909 -6.97546e-18)
(0.000896503 -0.0076756 -3.16168e-19)
(-0.00080989 -0.000322653 -1.25613e-18)
(-0.00141447 -0.000999442 4.52145e-19)
(-0.000292993 -3.14102e-05 -2.95961e-19)
(-0.000715628 -0.000275795 -9.86545e-19)
(-0.00101733 -0.000179598 -1.05011e-18)
(-0.00130882 -0.00242362 9.80628e-20)
(-0.000112886 -0.000206033 -1.71507e-20)
(0.0184654 0.00316065 1.60928e-18)
(0.00201176 -0.00297878 -6.76589e-18)
(0.000481217 -0.000266746 1.61008e-19)
(0.0179712 -0.00958682 -1.96731e-18)
(-0.00216929 -0.000306942 -3.70604e-18)
(-0.00214066 -0.000427689 1.009e-18)
(0.00421465 -0.00255996 -4.0888e-18)
(-0.000466458 -0.000869597 4.01219e-19)
(-0.00320377 -0.00105177 -5.73706e-18)
(0.015463 -0.00348798 -3.33115e-19)
(0.000881225 -2.61121e-05 -1.20786e-20)
(-0.00178158 -0.00119469 -7.91979e-19)
(-0.00239559 -0.000505402 -4.78275e-18)
(-0.0026563 -0.000594371 -1.43491e-18)
(0.000278565 -0.000464127 -1.28721e-19)
(0.000377354 -0.000336289 2.66782e-19)
(0.000263802 -0.000547981 2.12936e-20)
(0.0170178 -0.000633142 8.29787e-19)
(-0.00128778 -0.000556674 -3.50677e-18)
(0.000736946 -0.000421792 1.09444e-20)
(-0.0028357 -0.00065057 -2.92546e-18)
(1.59284e-05 -0.000523069 1.79687e-19)