/*--------------------------------*- C++ -*----------------------------------*\
| =========                 |                                                 |
| \\      /  F ield         | OpenFOAM: The Open Source CFD Toolbox           |
|  \\    /   O peration     | Version:  v2012                                 |
|   \\  /    A nd           | Website:  www.openfoam.com                      |
|    \\/     M anipulation  |                                                 |
\*---------------------------------------------------------------------------*/
FoamFile
{
    version     2.0;
    format      ascii;
    class       volScalarField;
    location    "1000";
    object      ddt0(k);
}
// * * * * * * * * * * * * * * * * * * * * * * * * * * * * * * * * * * * * * //

dimensions      [0 2 -3 0 0 0 0];


internalField   nonuniform List<scalar> 
13851
(
-6.52721e-07
3.72298e-07
3.44751e-07
-0.000258792
9.15549e-08
3.41065e-07
3.2318e-07
1.93196e-07
0.00220926
5.08579e-08
3.43036e-07
7.83107e-08
9.94979e-08
-0.000168634
2.52376e-07
1.24329e-06
-0.00120221
2.74118e-07
0.00699522
-1.65681e-06
2.26772e-07
4.19303e-07
-0.000757064
1.75146e-08
-0.00106684
4.56593e-07
0.000422698
0.00553502
0.00654883
2.1786e-07
-0.00105283
2.76221e-07
1.82522e-06
8.88603e-06
3.09269e-07
0.00759532
4.64218e-09
-0.00102099
-0.00324119
2.62363e-07
-0.00305106
0.00814643
-0.000166156
8.13421e-05
0.00826498
2.26289e-07
1.41754e-08
1.46967e-06
4.0518e-07
6.79382e-08
-0.00140701
7.47378e-08
1.18157e-06
3.91422e-07
0.000461902
2.5701e-07
1.82435e-06
-0.00304534
-0.000185896
-0.00152057
7.81363e-08
-0.000268036
1.36544e-08
4.35194e-07
1.93836e-06
1.45715e-06
-0.0013543
1.19928e-06
2.89739e-07
-0.000454889
-0.00116299
1.21292e-07
1.57495e-07
-0.00142736
3.75829e-07
3.79069e-07
-0.00134283
1.72215e-07
-0.00053383
1.57586e-07
3.03778e-07
7.70608e-05
4.19226e-07
-0.000518437
-0.00152621
-0.00110557
4.12591e-07
0.00209559
8.38885e-08
-0.00102015
5.84153e-08
2.81124e-07
-0.000908709
-0.00101203
-0.00300434
-6.51587e-06
2.03187e-07
1.76473e-06
-0.00167334
-1.01973e-05
1.83121e-06
-2.72433e-08
-5.33455e-08
1.41701e-07
2.29186e-07
1.52807e-07
2.32865e-07
-0.00120129
2.81383e-07
2.84255e-07
3.09945e-07
2.29289e-07
3.39016e-06
-1.51554e-07
2.15532e-06
4.17972e-07
1.65589e-07
1.81448e-07
-0.000216638
-0.000485161
5.85633e-07
2.69771e-07
2.96483e-07
-0.00137463
0.000502599
7.71031e-07
2.24455e-07
4.76541e-07
-0.001896
2.50343e-07
4.0999e-07
5.0622e-07
-0.00103632
-5.13716e-07
3.30005e-07
-0.00256575
-1.62565e-07
-0.00113005
-2.45323e-07
2.45763e-07
0.000158922
1.77202e-07
8.23127e-08
1.03987e-06
-0.000787599
3.2887e-07
1.66594e-07
-0.000991181
0.00272007
4.33549e-07
1.40725e-06
-3.45069e-06
2.25076e-07
0.000486352
9.5416e-08
3.86276e-08
7.02222e-08
-0.00213555
3.10893e-07
2.77962e-07
2.72756e-08
0.00706789
3.92838e-07
1.50656e-06
-0.000201696
0.0046605
0.00501055
-0.00162526
3.41868e-07
-0.00198075
6.96327e-08
1.70986e-07
2.55683e-08
7.52621e-08
-0.00305169
0.00496157
7.05989e-07
1.79137e-07
3.50956e-07
1.43932e-06
-0.00511561
3.55389e-05
4.20785e-07
2.60619e-07
-0.000320953
0.00301336
-8.41289e-08
1.90369e-07
1.01024e-07
2.30824e-07
-0.000255381
3.09678e-07
-0.000427933
3.60188e-07
3.33826e-07
1.6203e-06
-1.31023e-07
2.65822e-07
3.37298e-07
1.59417e-07
3.45613e-05
-0.0033655
-0.00328424
2.1506e-07
0.00455842
-0.00320144
4.79999e-08
2.80464e-07
0.00183257
4.65571e-07
8.33731e-07
2.8151e-07
0.000328739
3.8642e-09
4.31918e-07
3.86739e-07
6.94242e-08
-0.000241833
2.21393e-07
-5.46445e-06
1.67296e-07
1.27041e-06
-0.000689868
-0.00295783
-2.67216e-08
2.6243e-07
4.95398e-09
1.0423e-06
1.14044e-07
3.56185e-07
-0.000311432
1.17565e-07
4.2989e-07
7.61337e-09
-0.00314738
2.24519e-07
-0.00397061
-0.00332146
1.82172e-05
1.15852e-08
0.00120622
-0.00145036
0.00934777
8.75962e-07
2.65356e-07
-6.23135e-07
4.78709e-05
3.95475e-07
2.47019e-06
3.49247e-07
0.000489036
2.99794e-06
1.76576e-07
3.15923e-07
1.90258e-06
0.00646238
0.00280135
2.19531e-07
1.26243e-06
7.87944e-08
3.49798e-06
0.000355685
3.60546e-07
3.74309e-07
1.82506e-06
1.58062e-07
-6.6557e-07
1.08077e-06
0.00826517
6.62048e-08
5.85916e-08
2.35118e-08
0.00306963
-0.000144103
1.79536e-07
2.65316e-07
-0.0215228
0.000323986
6.71993e-07
2.7433e-07
0.00228358
-0.00167535
4.70676e-07
2.71705e-07
-0.00127861
2.66753e-07
7.55406e-08
-4.28625e-07
2.98213e-07
2.34693e-07
2.60704e-08
1.29899e-07
1.35623e-07
3.03455e-07
7.82199e-08
0.00225955
1.31481e-07
2.60925e-07
0.00642472
-0.00131269
8.81638e-08
-4.97545e-07
-0.00153709
1.72084e-07
7.13399e-08
1.80633e-07
-0.0010447
-0.00184706
-3.83904e-08
9.86026e-08
-0.00151769
6.86796e-08
-7.22114e-08
-0.00185729
0.00898289
2.81262e-07
-0.0012686
-0.00120134
-0.00115831
-8.15395e-06
-9.91561e-07
-0.00246231
-0.00166866
0.00561766
3.24111e-07
-0.000608345
-0.000168121
-1.61428e-05
-5.35067e-06
3.86892e-08
1.17676e-09
2.17538e-07
0.00225743
-1.36049e-06
1.61744e-07
7.15573e-10
4.15979e-07
-0.00131762
-1.85066e-06
2.59089e-07
-0.00289202
2.10362e-07
4.48443e-07
2.81598e-07
-0.000980694
0.0168685
1.53133e-06
3.86326e-07
4.72298e-07
0.0076758
1.03835e-07
0.00072464
7.07886e-07
2.10089e-07
2.08664e-07
8.45484e-08
2.57835e-07
-1.52488e-06
-1.285e-05
1.08673e-06
-0.000924419
0.00806586
3.291e-07
-0.00322632
-9.66228e-05
2.10996e-07
0.00931203
-5.43343e-08
-0.00190421
4.37157e-07
7.20036e-07
-0.000146891
-0.001191
-2.31812e-06
0.00201782
3.82112e-07
0.0080241
-0.000157949
2.00342e-07
0.00112236
3.0886e-07
-0.00345882
3.33972e-07
4.40485e-07
-2.68519e-06
1.84608e-05
4.93863e-08
9.42979e-08
3.26985e-07
3.75552e-07
2.2583e-07
1.36807e-07
0.00402946
1.53444e-07
2.4993e-07
-0.000123056
3.14134e-07
-0.00671079
3.60683e-07
-0.00191898
4.49364e-07
4.72258e-07
3.76827e-05
0.00103447
1.51042e-07
0.00228781
-0.0014372
0.0010249
1.58004e-07
1.67852e-07
7.09408e-07
7.11011e-07
2.60383e-07
-0.000219527
0.00130771
-0.000861721
4.2089e-07
-4.63686e-07
-0.000267378
-0.000149284
1.20291e-07
-0.000393353
1.05009e-05
-0.000133816
3.59155e-07
0.00232835
9.60694e-08
7.39611e-08
0.000213408
0.000239706
5.17808e-08
3.49642e-07
2.30659e-07
1.70254e-07
0.00227738
-5.18505e-08
-4.07055e-07
2.9809e-07
3.92795e-07
2.16374e-08
-0.00105922
2.52171e-07
1.37425e-08
0.0109823
0.00441543
4.20382e-07
-8.5929e-06
-1.01996e-08
9.30067e-08
4.00914e-07
2.32335e-06
4.90511e-07
2.16959e-07
3.94696e-07
6.76339e-08
3.14037e-07
-0.00160631
8.62662e-08
3.64313e-07
0.00856614
1.99935e-07
7.05776e-08
6.55966e-08
2.20113e-07
2.44829e-07
-0.00209011
0.0116897
2.75213e-07
1.35362e-05
3.86499e-07
8.58951e-08
-0.000549235
-8.67705e-05
-1.76899e-08
1.75106e-07
-0.000863633
3.22402e-09
-0.0177252
1.38947e-07
4.43437e-07
-1.47182e-05
3.55637e-07
-0.00142127
-9.83088e-05
-0.00079271
2.30013e-07
-1.08887e-05
1.7913e-07
0.00591592
3.36687e-07
-1.552e-07
5.31249e-07
3.72446e-07
2.55965e-07
1.11158e-07
8.4377e-08
-0.000179733
-0.000756239
-0.00151292
-2.69997e-05
0.0114379
-0.00146145
0.000791151
1.76286e-07
6.94625e-09
-0.0050908
3.43609e-08
2.08535e-07
1.15268e-07
-0.00322246
3.18204e-07
1.57041e-07
2.64002e-06
1.87759e-07
1.79569e-08
-0.00277328
1.80359e-07
-0.00152598
-0.00150413
1.58152e-07
3.12474e-07
0.000134354
0.00808294
2.24697e-07
-0.00123522
0.000469906
2.3276e-07
-0.00207717
0.00387531
4.07788e-06
2.28106e-07
0.0107892
-0.00177181
2.26487e-07
0.000946299
2.81136e-07
1.84513e-07
0.00381625
-0.00350236
4.1195e-07
4.80873e-07
3.00794e-08
4.59573e-07
-0.00184115
-0.00337522
2.45532e-07
-0.000681906
2.30913e-07
2.77753e-07
1.59647e-07
3.60273e-07
1.20944e-07
3.78083e-07
-0.00220835
1.07382e-06
-0.00209417
3.52471e-07
8.91438e-08
0.00379886
2.81304e-08
-2.38579e-07
3.15069e-07
3.25324e-07
4.6302e-08
0.0113904
-0.00190148
3.01894e-07
-0.000351167
2.8611e-07
2.14965e-07
0.0083111
0.000914506
2.77156e-07
1.63668e-07
-6.63463e-07
-0.00219647
-1.46761e-06
4.67456e-07
-0.00780577
3.42151e-07
3.05387e-07
-0.000279575
-0.00282529
-4.19761e-06
-0.00133144
-1.8781e-06
0.00900342
3.53491e-07
-0.000244349
0.00316969
7.25159e-08
-0.000570881
-0.00343446
4.25619e-07
2.75918e-07
2.27071e-07
-3.50131e-05
4.52576e-07
-0.000444226
2.39518e-07
6.15797e-08
5.39553e-08
2.52457e-07
8.95521e-08
-0.0030638
6.14872e-08
-4.21348e-07
1.9358e-07
6.86068e-07
1.62304e-07
1.81988e-08
5.06028e-07
-0.00068941
9.8715e-08
-0.00263556
4.94205e-07
1.62358e-07
2.37763e-07
1.1713e-07
4.05287e-07
1.12199e-06
3.27252e-07
1.13665e-07
-0.000217261
7.85435e-09
0.00260984
4.03905e-09
6.23698e-07
-0.000394465
0.00674767
1.0289e-06
-0.000801975
2.25634e-06
-5.52223e-06
-0.0034916
2.53713e-07
-0.00307285
2.49527e-07
7.07585e-07
-4.07447e-05
0.00085039
2.11411e-07
-1.04092e-06
2.73168e-07
0.00759897
-0.0024436
3.38016e-07
9.56225e-07
0.000632861
1.43409e-09
1.84684e-09
5.05663e-07
0.00232496
0.00846852
6.56702e-08
-4.37179e-07
3.11562e-07
3.03788e-08
-0.000183255
-2.38803e-06
-2.76447e-06
1.04627e-07
9.78904e-07
-1.83874e-07
5.03621e-07
6.55775e-08
3.29471e-07
9.11978e-08
9.14033e-08
6.96726e-07
1.19819e-07
1.03397e-07
6.54197e-07
0.0167527
0.00363709
0.0100533
-0.00124652
1.48904e-06
-0.000243303
3.22776e-07
0.00542006
3.10206e-06
2.75527e-07
3.63281e-07
0.000587011
4.45013e-07
1.52085e-07
1.49387e-07
5.04474e-07
0.00182846
3.65931e-07
-0.00326966
1.74755e-07
0.0111576
2.7616e-06
-0.00150069
-2.09575e-07
4.14122e-07
3.45916e-07
-0.0016348
-2.63415e-06
3.88132e-07
-1.76379e-05
3.72338e-07
0.00181449
3.40965e-07
2.90536e-05
3.45171e-07
0.00067041
9.3421e-08
1.75716e-09
5.47538e-08
3.04427e-08
0.00776756
1.3153e-07
-9.81315e-05
0.00299296
-8.78429e-07
-0.00246119
-0.0018142
4.1787e-05
-0.000192984
3.16955e-07
-3.14619e-08
5.97046e-08
1.6379e-07
2.35584e-07
6.44444e-08
-1.15538e-07
4.0417e-06
9.7903e-09
0.00643628
3.20232e-07
0.00184522
-5.78341e-09
-0.0003046
5.28326e-07
1.44511e-08
5.15733e-09
0.00616024
4.23708e-07
0.0147553
-0.00348826
3.585e-07
2.47657e-07
2.16357e-07
-0.000636716
2.81918e-07
3.38561e-07
-0.000205434
-6.81343e-08
1.63292e-07
2.43394e-07
3.38955e-07
0.0013486
3.57218e-07
3.65445e-07
2.2955e-06
-0.00327643
9.02965e-08
2.4284e-07
0.00914246
1.54885e-07
0.00869723
5.19191e-08
3.15185e-07
-0.000564862
2.16888e-07
1.7336e-06
-1.62387e-07
2.05132e-07
-2.79067e-08
-7.42251e-09
2.08131e-07
3.58431e-07
-2.55441e-08
3.29198e-07
0.000131328
1.25961e-07
2.91395e-06
-0.00522727
0.0125836
-3.19728e-06
-0.000792724
5.85973e-10
-1.57496e-08
-1.33572e-06
1.64099e-07
1.12156e-07
0.0111677
0.0080466
-0.00292906
0.0103427
3.51289e-07
3.32044e-07
1.04512e-06
3.13009e-07
2.47717e-07
-0.000375864
1.72951e-05
0.000879041
7.41313e-07
1.46113e-07
3.58656e-08
2.21716e-07
-0.00430134
-4.90791e-07
3.36718e-07
-1.65867e-09
2.08265e-06
1.46486e-05
-0.00334256
8.22271e-08
7.0541e-08
0.000712153
6.36565e-08
4.90231e-07
1.58812e-07
-0.0033517
1.8183e-07
-0.000486561
3.62421e-08
8.96721e-06
1.98571e-07
1.38486e-06
2.66238e-07
1.48707e-07
2.21575e-07
1.12013e-07
-0.000168091
1.00847e-07
0.00323037
4.28709e-07
0.011794
0.000340612
4.13135e-07
1.40052e-07
-0.000138364
0.0120625
1.99585e-07
1.80173e-07
6.55652e-08
0.00193691
2.95091e-07
0.000715881
7.83272e-08
1.10648e-07
0.0143427
3.21848e-07
6.52056e-08
4.25455e-07
-0.00271552
9.12558e-05
-0.000161567
2.18831e-07
-0.000133225
6.62264e-08
1.22506e-07
1.17095e-07
5.06408e-09
2.38828e-09
-0.00218445
0.00941451
3.65052e-07
6.67303e-08
5.61472e-07
2.28243e-07
-0.000195337
-2.63687e-06
-0.000252722
-0.0023145
2.15887e-07
6.89e-07
7.21412e-08
1.99431e-07
1.59851e-06
2.36538e-07
3.23784e-08
-0.00297529
-0.00242584
-2.16293e-08
-0.00050705
1.72101e-07
2.97089e-08
2.47037e-07
2.9752e-07
-0.000780301
2.66919e-07
0.00775696
-3.28251e-07
3.36483e-08
-0.000169791
-0.000206781
0.00191951
7.2292e-06
0.0024396
2.4435e-07
-8.75962e-07
1.71238e-08
0.0139777
4.30782e-07
1.609e-07
-0.00140037
3.31267e-07
1.22207e-07
2.95594e-07
3.41028e-07
-0.0032166
0.00049471
1.78672e-07
1.49693e-07
-0.000814198
3.88261e-07
-0.00030225
1.35301e-07
1.13591e-07
-0.00351854
9.00799e-08
-2.00438e-05
5.66713e-07
3.02171e-07
-4.52844e-05
3.28831e-07
-0.000175508
5.15577e-07
-0.0027441
2.23288e-07
0.00270082
1.76723e-08
-0.00136944
-0.0010022
0.00233807
2.91635e-07
1.31921e-07
3.50453e-07
-3.83055e-09
4.62872e-07
1.37618e-08
-0.00170005
4.19278e-07
1.43568e-07
5.73079e-08
2.65917e-07
2.1773e-07
3.54031e-07
4.35037e-07
3.06404e-07
4.28229e-07
-0.00362072
-5.77999e-06
2.72212e-07
3.81903e-07
-0.00110853
1.65875e-07
-0.00124254
1.53222e-07
6.66462e-07
9.36832e-08
2.73457e-07
4.45843e-07
9.55906e-08
1.83958e-07
-1.27194e-06
3.65128e-08
8.19922e-05
5.20948e-07
0.000396795
0.00904899
-3.69009e-05
0.000147744
2.75661e-07
-0.00281505
-2.78674e-07
2.17573e-08
4.34984e-07
1.54504e-07
-0.00090754
1.17651e-07
-1.11465e-06
0.00938114
-8.85297e-05
8.85337e-07
3.32887e-07
0.0105649
0.0103926
0.00373124
5.47941e-07
1.65453e-07
2.40064e-07
-6.1002e-08
1.12753e-07
-0.00159707
-1.3456e-06
6.32372e-09
0.000107531
-0.000368292
2.54398e-07
-0.00363565
-0.000449369
1.76801e-05
3.83268e-07
0.0110666
1.08969e-07
1.16782e-07
0.000341688
3.11336e-07
2.45298e-07
1.74875e-07
3.62287e-07
4.25711e-07
0.0023065
-0.00101453
3.84512e-07
0.00379034
3.75091e-07
1.02176e-07
-7.39678e-07
1.4716e-07
-0.00232847
2.45091e-07
1.06053e-07
3.34514e-07
3.71887e-07
0.0015676
0.00246093
-3.7293e-05
-0.00188146
-0.00269704
1.03143e-07
1.70515e-07
4.74908e-07
-0.000396056
2.47002e-07
2.1448e-07
3.65558e-07
-0.000884885
7.84594e-08
8.11352e-08
7.86551e-07
7.00786e-07
-2.00553e-06
-0.000172211
2.43165e-07
9.60603e-08
2.8116e-07
-0.00080006
3.28114e-07
-0.00155981
3.15869e-07
7.1721e-08
2.61982e-07
1.78418e-07
3.93386e-07
4.47132e-05
0.00965896
0.00506062
5.06946e-07
8.30581e-08
0.0106847
2.31104e-07
0.00154516
-0.00199516
3.41416e-07
-0.000121757
0.00723538
-0.000774
4.22741e-07
2.99873e-07
-8.39109e-05
4.86482e-08
3.61075e-07
9.54891e-07
0.000189734
3.44637e-07
0.000196287
9.86962e-08
0.0127321
-0.000913979
1.54075e-07
2.07548e-07
5.20571e-07
2.59207e-05
3.54576e-07
7.31602e-08
3.59702e-07
7.19611e-08
3.06364e-07
-2.62648e-06
1.47413e-08
0.0127005
0.00162471
1.00654e-07
3.14707e-07
3.85924e-07
6.81983e-08
0.00775091
0.00275985
-0.00261408
0.00393225
9.97596e-08
4.02493e-07
4.27405e-07
1.15444e-07
-1.90948e-05
3.62924e-07
-2.9539e-09
3.37488e-07
9.34649e-08
0.0109985
1.84992e-07
-0.000711668
6.92891e-08
3.90506e-07
6.17074e-07
-2.70517e-07
-4.3459e-08
1.44854e-07
0.00294801
-0.00172102
-0.000478205
-0.00162614
0.0118198
0.00325948
-0.00135685
1.38925e-07
9.78033e-08
2.86573e-07
4.78213e-06
4.50032e-07
-8.97262e-08
-0.000223994
2.3178e-07
1.27332e-07
3.53488e-08
9.83773e-06
1.72415e-07
3.32082e-07
3.48144e-07
0.0122667
1.99597e-07
1.65759e-07
6.23351e-08
2.16404e-07
6.16841e-08
1.74944e-07
-3.98056e-05
4.14313e-07
0.00357165
8.5598e-08
1.76981e-07
-0.00127375
0.000691491
0.00205374
0.0111337
-2.28269e-07
0.0102726
1.6403e-07
4.22874e-08
3.87636e-07
3.95791e-08
2.73238e-07
-0.000672901
3.0704e-07
-6.45232e-08
-0.00109683
2.50835e-07
2.87687e-07
8.37974e-08
2.66528e-06
-7.22534e-09
0.0122086
2.6023e-07
2.54397e-05
-9.05668e-09
3.34525e-07
2.02566e-07
-3.66267e-07
9.50075e-08
0.00102683
-0.00116038
2.03733e-06
0.000748851
8.86808e-08
-0.000940437
0.0147168
6.74532e-08
-0.0010974
1.05543e-07
1.5735e-06
1.12281e-07
2.26419e-07
1.44987e-07
1.01036e-08
3.42271e-07
1.27815e-07
-1.17775e-08
3.42258e-07
-9.1524e-09
2.56882e-07
2.24681e-07
-0.00221314
7.92138e-09
4.89701e-07
3.67961e-07
-0.00165682
0.00667806
2.70578e-08
1.45682e-05
1.53912e-07
4.05968e-07
4.86997e-07
0.00894596
2.16366e-07
-1.79781e-09
8.32381e-07
-1.08064e-07
1.24528e-07
0.00986045
2.77579e-07
6.28015e-06
4.37583e-07
1.98275e-07
1.8065e-07
2.62178e-07
0.0134035
-0.000117274
4.07357e-07
1.15736e-07
-0.000190651
1.73631e-07
2.33902e-07
1.41135e-07
2.47045e-07
-0.000872052
7.26326e-08
-0.000222654
2.91529e-07
6.4293e-08
1.0892e-06
1.56148e-07
1.02695e-06
0.00430412
9.05331e-08
0.0138378
1.53656e-07
8.39063e-09
3.17199e-07
5.15463e-09
9.54895e-09
3.17143e-07
4.8824e-07
-7.04876e-08
1.12548e-06
1.58804e-07
7.18301e-07
2.67687e-07
8.47751e-08
4.46301e-09
6.44991e-08
-0.00230153
2.50383e-07
1.62824e-07
-4.43938e-05
1.72543e-07
1.2612e-07
0.00227102
3.26404e-08
-0.00121804
3.13243e-07
0.00555265
-0.000374773
5.50057e-07
-0.00293103
2.04139e-08
1.74379e-05
3.19667e-07
-1.9164e-06
4.17513e-07
2.66872e-07
2.34348e-07
1.03295e-07
3.31317e-07
2.08826e-07
5.03746e-07
1.54188e-07
4.03143e-07
-0.000178432
-0.00138591
-0.0067071
2.79057e-07
-1.35435e-06
-0.0021678
-0.000342343
1.88765e-08
3.2528e-07
-0.00020046
2.64708e-07
4.77104e-07
-0.000466717
0.00567673
3.02131e-07
2.78505e-07
3.28308e-07
-0.000279108
-1.37381e-08
3.38895e-07
0.00329859
1.77168e-07
1.95399e-07
-0.00213784
3.94982e-07
-9.55042e-05
0.000755962
4.80191e-07
1.53661e-07
1.54146e-07
3.60924e-07
-0.00121124
0.00405884
0.00481291
4.13026e-07
3.02319e-08
-0.00243009
2.99088e-08
4.82001e-07
3.4868e-07
2.90084e-07
2.13312e-07
7.90436e-08
-0.00349744
-0.0027592
2.11314e-07
-2.98257e-08
4.01637e-07
-0.000577861
2.83814e-07
4.15119e-07
-2.41702e-05
3.96059e-07
-8.98448e-06
2.97875e-07
1.09554e-08
3.08892e-07
-9.04367e-07
0.011496
1.04239e-07
0.00503114
3.91584e-07
4.40813e-07
-7.61225e-09
-0.00246554
3.29193e-07
2.63093e-07
2.61331e-07
4.59037e-07
4.93732e-07
-1.16364e-07
8.47025e-08
3.15774e-07
5.41606e-07
-0.000213929
3.19431e-07
1.34882e-08
8.35484e-08
3.8853e-07
2.12244e-06
2.89326e-08
2.73581e-06
-0.00110137
4.91628e-07
0.00792192
4.35463e-07
-0.00161676
-8.67359e-05
1.36668e-07
-0.000461677
3.1606e-08
4.1825e-07
3.48975e-07
2.83073e-07
-1.15637e-06
3.37162e-07
3.77295e-07
4.93406e-07
3.98365e-07
3.33608e-07
1.53082e-07
1.58275e-06
3.20836e-07
2.26001e-07
0.00780036
4.4245e-07
3.64242e-07
1.53562e-07
0.00202452
1.33337e-07
1.37538e-07
3.20228e-07
6.22433e-08
-0.00116234
3.56838e-06
3.56167e-07
0.00894442
0.0117438
-0.00064858
3.32437e-08
-1.04467e-05
1.78591e-07
1.92026e-06
2.11232e-07
7.82997e-08
-0.00131983
0.00746839
0.00136123
-0.00190219
1.5013e-09
-0.0011207
1.73799e-07
4.74942e-07
3.27718e-07
0.00585786
-0.00230979
3.58435e-07
1.14322e-07
0.00128327
4.30581e-07
1.03751e-07
-0.00123944
2.66836e-09
2.96025e-07
3.23435e-07
8.4251e-08
4.22445e-07
6.18686e-08
4.49845e-08
3.9734e-07
0.0007218
1.35209e-07
4.10361e-07
1.20471e-07
-0.001834
0.00814402
1.34551e-07
-0.000220615
3.09497e-07
2.59258e-08
0.00677332
1.21434e-07
2.05679e-07
2.00792e-07
-0.00259306
9.94449e-08
6.33615e-08
3.99629e-07
0.00239588
1.31409e-07
3.21711e-07
6.51908e-07
0.00869047
3.03475e-07
4.3401e-07
-0.000120374
2.43212e-09
1.39677e-07
1.53637e-07
-0.00149379
4.07998e-07
2.85696e-08
3.40807e-07
-5.32524e-07
6.0752e-08
2.60565e-07
-1.4529e-06
0.0117204
2.38615e-07
-0.00138396
3.99019e-08
1.52085e-07
-6.82564e-08
1.0987e-07
2.5374e-07
-0.00327666
-1.60592e-08
2.30206e-07
1.28264e-06
-0.00151569
0.0100488
2.42571e-07
2.64286e-08
1.20561e-07
1.01606e-07
1.20879e-07
6.27397e-08
0.000298216
2.72206e-08
-6.55494e-06
-1.27196e-07
1.96196e-07
2.30488e-07
3.89906e-07
5.84572e-08
-1.96141e-05
-2.56941e-07
1.21945e-07
3.48107e-07
0.00264313
3.1819e-07
4.03928e-07
3.01281e-07
6.22567e-07
-4.40613e-07
-4.78271e-05
4.18015e-07
0.00341952
0.0116797
-0.000258663
3.11917e-07
2.67149e-07
4.54969e-07
1.26463e-08
2.46903e-07
2.66754e-07
1.62374e-06
2.87746e-08
3.4841e-07
9.17757e-08
9.39274e-08
2.91268e-07
2.97203e-07
-0.000693102
1.24633e-07
-0.00141535
9.27349e-08
2.34044e-06
3.46284e-07
8.8961e-07
2.65525e-07
1.22182e-07
0.00917118
7.96145e-08
1.0356e-08
7.06772e-08
2.55718e-07
2.78855e-07
2.58678e-07
0.0106984
4.00278e-07
8.42368e-07
-4.84462e-07
0.0101578
3.80444e-07
-6.40374e-06
0.008283
4.28966e-07
2.73356e-07
3.33989e-07
2.76816e-06
-2.9288e-08
-0.00121102
2.45403e-07
-0.000461477
2.75454e-07
1.44883e-06
-0.00167049
5.07634e-07
0.00204864
4.15755e-07
-2.755e-08
3.57794e-07
-0.00287531
4.55441e-07
7.63372e-08
4.36904e-07
-3.3216e-06
4.14456e-07
8.31186e-08
7.29575e-08
-0.00312201
-5.96782e-09
3.91483e-07
0.000222302
3.11749e-07
1.47117e-07
4.20842e-07
4.41431e-07
0.0117307
1.24076e-07
1.0815e-07
1.69164e-07
2.13975e-08
3.23419e-07
2.76607e-07
1.62582e-07
-7.50522e-05
1.60049e-07
-7.01895e-10
0.00595994
2.08585e-07
-0.000214908
2.76085e-07
-0.00244851
2.6712e-07
2.90485e-07
1.51914e-07
0.00272826
0.00141655
3.71134e-07
1.42562e-06
2.79458e-07
2.36222e-07
-8.8317e-09
0.0111742
8.26091e-08
4.06653e-07
1.69339e-07
4.20719e-07
5.86056e-09
0.00367889
1.71071e-07
3.24976e-07
1.94434e-07
-4.17861e-05
0.00131461
2.55158e-07
3.3709e-07
-0.00301872
2.44417e-07
0.0120181
0.00221977
5.68358e-05
7.13659e-08
7.52629e-07
-5.66233e-07
0.00711406
2.34744e-07
4.09128e-07
1.3791e-07
2.67386e-07
0.00298219
-0.000471285
2.91824e-08
3.38645e-07
0.0010463
4.65154e-07
0.00447858
2.40974e-07
2.50259e-07
-5.77047e-07
-0.00258563
8.19781e-06
-7.22786e-06
0.0117635
1.76554e-07
-0.00255462
0.00162443
-0.00135247
5.36174e-08
-0.00144438
-0.000886074
0.00134348
-0.00139756
-0.000175107
2.54871e-07
3.9487e-07
5.52104e-06
9.30968e-08
2.30898e-07
1.68221e-05
3.53665e-07
1.37318e-07
-0.00161366
3.64036e-08
5.14574e-07
2.42206e-07
1.36871e-07
0.00147746
1.63355e-07
-0.000119096
3.1427e-07
-1.19767e-07
0.0122534
-0.00366055
-1.03543e-06
3.58353e-08
6.76608e-08
1.78297e-07
-2.24299e-08
1.55065e-07
3.47902e-07
-3.47231e-07
3.78047e-06
1.95678e-07
-6.67984e-06
3.39803e-07
4.60097e-07
0.012426
-1.81627e-05
6.04301e-08
-6.00897e-06
-0.0017017
1.63539e-07
3.15645e-07
-0.00138782
4.47297e-05
4.23849e-07
3.94334e-07
6.79429e-08
3.1509e-07
3.09011e-07
0.00832883
1.41473e-07
1.53534e-07
3.48333e-08
-5.58687e-07
4.42404e-07
0.013225
-0.00161766
2.35255e-07
9.45678e-08
4.38207e-07
4.36848e-08
3.16773e-07
3.31153e-07
3.90403e-07
6.60586e-08
1.7292e-07
3.40834e-07
5.82061e-08
3.01712e-07
0.00735067
7.99898e-09
0.00247218
-0.000311334
1.54388e-07
1.19384e-06
1.16027e-05
-1.60951e-08
2.19245e-07
1.15093e-07
4.27476e-07
7.86422e-07
6.53228e-08
3.95191e-07
3.52952e-08
-0.00105205
4.32418e-07
0.0128957
1.97596e-07
6.18052e-08
1.13169e-07
4.94562e-07
1.61575e-07
2.50916e-07
3.20626e-07
0.000530806
1.66869e-07
0.0121128
-0.000911989
-0.00186042
1.58048e-07
-2.61172e-06
5.40714e-06
-0.00110886
0.000405605
4.63553e-08
3.12296e-07
-1.6195e-06
0.0129306
0.0119327
2.39515e-07
-0.000168068
3.1706e-08
2.6993e-07
4.47071e-07
3.00422e-08
1.85269e-08
2.39472e-07
1.77511e-09
1.15134e-06
2.69099e-07
-0.00360214
0.00373017
0.0110749
0.012285
-0.00182444
7.45122e-08
2.67859e-08
-0.00316379
2.43959e-07
2.58468e-07
1.59041e-07
6.14136e-06
-0.00135447
-0.0012104
1.51158e-07
2.40192e-07
3.89579e-07
4.20084e-07
-0.000525165
1.05616e-07
0.00368818
-0.00360964
3.16936e-08
-4.70823e-08
0.00114321
4.12014e-07
2.84397e-07
7.65714e-08
-0.000235273
-0.00250202
3.10002e-07
1.32192e-05
2.28026e-09
-0.00149832
-0.00696734
2.81887e-07
-0.000215562
-0.000271606
0.00381876
2.47941e-07
2.351e-07
3.03229e-09
1.14733e-08
0.000711451
2.02742e-07
-7.81967e-06
-1.31998e-05
0.00203809
4.03187e-07
2.95507e-07
0.0126679
2.69554e-07
-0.00309897
-0.00181304
1.07684e-07
3.38513e-07
2.76273e-07
5.8785e-07
0.00891185
1.007e-07
0.00182765
4.4248e-07
2.30092e-07
1.98144e-07
1.31756e-07
-2.58658e-05
4.75152e-07
-0.000218289
3.06439e-08
4.52519e-07
3.92524e-07
-4.23708e-07
3.28746e-07
9.10621e-06
0.0128104
-0.000163582
5.08081e-07
1.90068e-07
3.64815e-07
7.65942e-08
2.23754e-06
0.00386633
-0.00339245
6.62296e-08
0.00781499
1.07921e-06
-0.00316963
3.28383e-07
4.5779e-07
3.51461e-07
3.32949e-07
0.00271587
7.85926e-08
3.17283e-07
0.00381414
-0.00344603
0.00020605
-0.00165544
3.94598e-07
1.78164e-07
2.50435e-07
-0.0036142
3.76808e-07
-0.00071966
2.34826e-07
0.0106605
8.61658e-08
1.21241e-07
2.31126e-07
1.34103e-07
3.35632e-07
2.30727e-07
0.00174747
3.24311e-07
2.29983e-07
5.50306e-07
0.00242396
-0.000779247
8.92771e-08
-0.00199795
4.00552e-07
3.64599e-07
3.2928e-07
1.3943e-07
1.34214e-06
1.30242e-07
-0.00106646
9.32521e-07
3.66679e-07
9.72725e-08
0.000305395
1.44027e-07
2.06867e-07
0.00791523
0.00339753
-0.00243807
2.13218e-07
0.00967621
2.63012e-08
1.9967e-06
3.48047e-07
1.31739e-06
0.000637872
0.00129743
-8.73316e-08
-0.00116628
4.95303e-07
1.94164e-07
2.06098e-07
0.00654408
-1.07644e-06
1.5156e-06
4.32713e-07
2.3844e-08
0.00330681
-1.47403e-07
7.34646e-05
8.35154e-06
-0.00342946
0.00195874
-0.00100742
-0.00147427
7.31962e-08
1.49737e-07
4.80557e-08
3.23424e-07
9.83919e-08
1.80955e-06
3.9616e-07
2.78929e-07
-0.00250372
1.79046e-07
1.51916e-07
4.10409e-07
1.74474e-06
3.83938e-07
1.81478e-07
-0.00341233
3.7132e-07
3.22345e-07
2.50418e-07
-0.000592975
1.94955e-07
-0.0017408
7.68232e-08
-1.68805e-08
4.55731e-07
4.82831e-08
-0.000104163
0.0113328
1.11923e-07
2.2572e-07
1.39509e-07
0.000249497
-0.00120149
0.00685856
2.44698e-07
1.75752e-07
0.012702
3.08279e-07
1.21812e-07
3.209e-07
-0.00094915
-1.03494e-06
4.67278e-07
3.53774e-07
2.75055e-07
0.0119152
-4.80906e-07
0.0721834
3.33993e-07
6.57185e-07
9.8457e-08
8.62267e-06
4.26684e-07
1.05524e-07
0.0107517
-0.0019341
-0.00274067
0.0116098
-0.000845173
-0.00200924
-0.00330154
5.63449e-08
2.4218e-07
-0.000698328
-0.0021715
-0.000479257
2.27699e-07
2.21259e-07
2.76042e-08
1.69549e-07
0.000359102
-0.00349158
9.57729e-08
1.28042e-07
0.00276479
1.59293e-07
2.84548e-07
-0.000780385
0.000173065
-0.000248265
1.39202e-07
-0.000437451
0.00018972
4.31238e-05
2.92344e-07
2.06798e-07
5.05097e-08
1.74065e-07
3.68819e-07
1.47685e-07
3.93621e-07
3.11023e-07
3.19178e-07
3.26793e-07
6.04175e-06
0.000970631
2.60442e-07
3.21327e-07
-0.00193964
1.34055e-05
-2.00801e-09
2.81842e-06
4.46197e-06
0.00245086
3.83479e-07
3.17697e-07
3.47848e-07
4.40388e-07
3.16311e-07
1.3678e-07
1.50296e-07
3.43324e-07
2.61447e-07
4.53155e-05
2.41278e-08
3.92379e-07
0.00153943
0.0108095
-0.00354553
0.0118211
5.94443e-07
6.85147e-08
3.08186e-08
2.15401e-07
2.61382e-07
-0.00309121
5.42096e-08
-8.00541e-09
1.82085e-07
0.0103963
-0.00974455
1.45801e-07
2.01391e-07
4.83996e-07
4.02777e-07
4.74793e-07
-1.7451e-08
1.33647e-07
4.72061e-07
-0.000289947
3.37301e-07
-0.00231731
4.96653e-07
-0.0034392
3.42393e-07
1.376e-07
2.00275e-07
2.56392e-07
-3.44429e-07
1.5203e-07
4.04858e-07
3.87645e-07
3.02815e-07
0.0114649
-0.000190025
0.0133292
-6.38344e-09
0.00316318
5.63645e-07
5.09124e-07
8.57217e-08
-6.47733e-07
3.37844e-07
0.00343013
-0.00013141
5.43326e-07
4.41423e-08
0.0110581
4.29151e-08
0.00024903
-0.00219155
2.35126e-05
3.74538e-07
9.88024e-07
0.0129974
0.0044943
-6.78076e-05
3.40666e-07
2.98161e-07
4.94388e-07
2.47597e-07
-0.00173152
3.3739e-07
4.60397e-07
0.00251895
-0.00297102
2.86314e-07
2.16975e-07
-0.00154838
3.88573e-07
-0.00168898
2.65875e-07
7.01691e-08
3.48159e-07
7.01433e-05
-5.46911e-07
0.00954815
5.02653e-07
0.0061143
3.9637e-07
-9.22662e-09
2.29701e-07
-3.19296e-05
1.07671e-07
2.77142e-06
4.16886e-08
3.04924e-07
2.14705e-05
2.20258e-07
3.30835e-07
9.90294e-08
5.10204e-07
0.00788297
3.3189e-07
3.40991e-07
1.40092e-07
4.02257e-07
2.01168e-07
-8.84577e-06
3.9865e-07
2.65031e-07
-1.34478e-06
4.17025e-07
6.14559e-07
6.30081e-07
2.46996e-07
9.30853e-08
-0.000669302
0.0043635
2.7863e-07
0.00144765
0.000648256
1.88369e-07
8.04985e-08
5.71583e-06
-0.00122
4.68695e-08
0.00103467
0.000778709
2.49095e-07
1.13264e-07
1.02433e-07
3.44303e-07
3.53218e-07
-0.0011381
-1.16171e-06
-2.60384e-07
0.0136816
0.0111011
-0.00180345
2.94012e-07
0.000477347
5.9284e-08
-0.000116518
-0.00215035
5.26169e-08
1.017e-07
0.00378863
4.98802e-08
4.37461e-08
0.00529671
0.00785141
-1.94109e-05
3.05899e-07
-0.00205204
7.97685e-08
0.0116986
0.000822665
5.44563e-08
0.00814831
-0.000773874
-0.00243885
0.00288912
0.00122148
0.00325005
1.80104e-07
8.36829e-08
-2.40354e-07
8.60193e-08
4.45269e-08
1.43638e-05
6.64903e-08
0.00162236
0.00058044
8.75724e-08
-0.000302576
0.00194418
8.15891e-05
1.46543e-05
4.27645e-07
-0.000651518
-5.06778e-05
3.18443e-07
1.3171e-07
0.000634733
3.89264e-07
2.47977e-07
-0.00257864
1.72057e-07
0.00373415
5.51698e-08
-0.00263845
3.03755e-07
1.44644e-07
0.000610045
1.26048e-07
1.62122e-07
0.00330925
-0.00261403
0.005694
3.15078e-07
4.5259e-07
2.0509e-07
3.60133e-07
7.6251e-07
3.19322e-07
-4.31058e-08
-0.0011782
7.32579e-08
5.43031e-07
0.00220025
2.77149e-07
3.94974e-07
1.95249e-06
-2.0323e-07
3.06928e-07
1.53183e-07
3.03171e-06
2.03542e-07
5.11845e-07
-0.000180515
-0.00201639
1.71467e-07
3.99392e-07
-0.000394713
3.15494e-07
-7.12237e-07
3.84517e-07
3.37732e-07
-0.00144543
8.98221e-08
8.31499e-08
-0.00078315
1.54976e-07
0.0111774
5.62187e-08
2.86148e-07
1.44038e-07
0.00773411
4.75905e-07
6.15242e-06
-0.000126204
3.59693e-07
3.31176e-07
7.8222e-07
3.02033e-07
-0.00253386
6.51431e-08
0.0113324
-1.06377e-06
3.73593e-07
3.39867e-07
-5.10456e-07
4.85395e-07
2.94653e-07
7.03665e-08
4.7274e-07
4.09679e-07
2.3558e-07
-0.00298109
1.43557e-07
3.87855e-07
7.99201e-08
-1.22268e-07
4.22517e-07
9.45959e-08
-0.000741401
6.01112e-08
4.04966e-06
-1.47869e-08
8.10339e-08
3.88206e-08
-3.70665e-08
3.08033e-07
1.58825e-07
9.56383e-08
-0.00168836
1.77325e-07
2.18481e-07
3.26198e-07
3.13724e-07
-1.42277e-05
1.94789e-07
0.013698
0.00888457
-0.000668483
3.37199e-06
4.91434e-07
3.3076e-07
2.64311e-08
2.13135e-07
1.76485e-06
4.63092e-07
-0.00264867
1.94871e-07
-0.00156762
1.59004e-06
4.46883e-08
1.52885e-07
0.0041241
2.08948e-07
2.90378e-07
-1.76744e-06
0.000210913
3.02068e-07
-0.000460075
-1.95288e-08
4.22021e-07
3.67749e-08
1.94193e-07
6.63197e-07
4.33279e-07
3.47268e-07
3.34751e-07
-6.01857e-08
1.41201e-07
2.50498e-07
-3.64938e-07
4.94374e-06
-1.3301e-05
1.36595e-06
3.6756e-07
3.83678e-07
3.15006e-07
0.00790417
-0.00308914
0.00993208
3.64596e-07
0.00274669
4.90387e-07
2.96539e-07
1.29294e-07
4.16466e-07
4.248e-08
3.86863e-07
-0.000467948
1.60255e-07
2.65626e-07
0.000395572
-5.35736e-05
3.26035e-07
-0.000787772
6.63605e-08
0.000427573
5.14564e-07
-0.0035074
4.03454e-07
2.18159e-07
0.0114666
-5.61631e-08
1.11294e-07
9.05848e-07
-2.70614e-09
-1.53829e-05
3.85632e-07
-2.53929e-07
-0.00274383
2.219e-07
0.00578782
1.69895e-07
-0.0013147
1.09283e-07
4.46513e-07
3.4219e-07
4.21436e-07
7.35532e-08
2.6199e-07
0.010592
-0.00250712
8.56857e-08
4.57487e-07
1.18676e-06
2.74281e-07
2.12995e-07
3.05774e-07
0.0150973
3.11968e-07
-0.00327253
-0.000874547
-9.46988e-06
7.914e-09
-1.55547e-05
2.4844e-05
2.02587e-06
3.00154e-07
-0.00226639
1.84213e-07
5.15782e-08
1.79297e-07
-0.000936304
3.26217e-07
1.50108e-07
0.0104644
1.45395e-07
5.88541e-06
-9.6853e-07
2.41976e-07