/*--------------------------------*- C++ -*----------------------------------*\
| =========                 |                                                 |
| \\      /  F ield         | OpenFOAM: The Open Source CFD Toolbox           |
|  \\    /   O peration     | Version:  v2012                                 |
|   \\  /    A nd           | Website:  www.openfoam.com                      |
|    \\/     M anipulation  |                                                 |
\*---------------------------------------------------------------------------*/
FoamFile
{
    version     2.0;
    format      ascii;
    class       volScalarField;
    location    "1000";
    object      omega;
}
// * * * * * * * * * * * * * * * * * * * * * * * * * * * * * * * * * * * * * //

dimensions      [0 0 -1 0 0 0 0];


internalField   nonuniform List<scalar> 
13851
(
0.232707
0.0263097
0.026123
4.18928
0.0220845
0.029679
0.0261079
0.0218968
4.7506
0.0220598
0.0901988
0.02209
0.0221713
6.70702
0.0515017
0.210988
7.95204
0.0221276
5.21463
0.233247
0.0592994
0.0282646
21.8587
0.0222638
6.99132
0.101179
0.891572
5.51147
4.76004
0.0218153
3.73762
0.0261267
0.227244
4.91868
0.0571381
4.72786
0.0222741
9.897
3.94522
0.0222318
4.50977
4.80898
17.6799
0.958194
4.89602
0.0219604
0.0215789
0.209427
0.024512
0.0221609
9.34451
0.0222177
0.211163
0.039427
6.82176
0.0222255
0.231908
4.46853
0.474278
7.98633
0.0220969
0.450037
0.0221054
0.0247246
0.285127
0.311234
12.0766
0.072507
0.022344
3.89825
3.94951
0.0735199
0.0220864
9.62583
0.0431139
0.0246503
6.61234
0.0216966
7.14244
0.0219857
0.0223741
2.30027
0.0554889
6.63844
7.55858
3.77626
0.0286669
7.26685
0.0220555
3.73072
0.0222616
0.0263386
25.187
3.86833
4.16944
0.54234
0.0219832
0.219579
9.29795
0.291653
0.227035
0.0445578
0.0493155
0.0221447
0.0219554
0.0690152
0.0219561
3.86017
0.0263358
0.0220815
0.0337581
0.0219602
0.332607
0.0926283
0.217032
0.0376654
0.0218028
0.0218412
4.41068
3.81952
0.325874
0.0219157
0.0223083
4.69784
1.47265
0.135482
0.021983
0.0724105
4.62036
0.0686418
0.0281833
0.0386749
10.5528
4.89354
0.0932144
4.12719
0.0689572
3.81933
0.0374884
0.0680141
1.77415
0.0228441
0.022056
0.121384
6.39782
0.0242032
0.0216873
3.82416
4.61443
0.0754606
0.226756
0.307737
0.0994586
1.25246
0.0223535
0.0220824
0.0221092
3.96719
0.0619006
0.0250708
0.022243
4.74655
0.0679145
0.209949
6.88582
4.90079
4.94446
7.77242
0.0333186
5.23871
0.0221113
0.0218048
0.0877938
0.0221396
4.11094
2.4046
0.250147
0.0217919
0.04296
0.243897
1.13407
0.904257
0.0324772
0.0679678
20.1434
4.61877
0.226926
0.030203
0.0222847
0.0218812
6.57952
0.0617669
11.1035
0.0298296
0.0240121
0.215077
0.217985
0.0224872
0.0225403
0.0773828
1.55885
4.22992
4.41652
0.0516741
3.16147
4.29784
0.0238835
0.0669003
4.76179
0.0284132
0.208554
0.0222859
2.10142
0.0222364
0.0588781
0.0257607
0.0221359
0.449271
0.022579
3.59391
0.0217884
0.235048
9.35181
4.11883
0.0298332
0.0681123
0.0222646
0.103113
0.0220331
0.0578637
4.65744
0.0296714
0.0284275
0.022123
4.41735
0.0218101
21.65
4.38324
0.253553
0.0222514
6.04419
7.19117
4.86789
0.208575
0.0440193
0.16852
0.362086
0.0430863
0.507069
0.0364129
7.11432
0.252365
0.0218783
0.0298373
0.220494
4.6956
5.40146
0.0218752
0.139365
0.022053
0.343723
1.24662
0.0305753
0.0690225
0.258344
0.0220391
0.0463072
0.179753
5.36778
0.0220959
0.0221319
0.0299069
4.99843
5.9686
0.0674268
0.0219488
1.15911
1.19981
0.194808
0.0682273
4.94278
9.92331
0.0313453
0.0454663
10.8839
0.0219495
0.022108
0.200784
0.0763719
0.0218118
0.0222336
0.0220256
0.0220063
0.0439577
0.022102
4.79033
0.0627296
0.0220892
4.70222
4.80772
0.0222574
0.237363
9.92038
0.0230139
0.0222828
0.0657133
7.81295
4.21876
0.099712
0.0220742
5.29587
0.0221043
0.109007
7.8339
5.29356
0.0248815
11.589
10.3688
3.77136
0.297002
0.0468651
4.05001
4.5693
5.54938
0.0226615
5.56796
25.6555
0.972254
0.82156
0.023898
0.0975344
0.0312033
6.58911
0.0518225
0.0218845
0.0215175
0.0311885
3.84731
3.11735
0.0219392
4.1831
0.0314549
0.0390639
0.0253399
9.96059
1.05156
0.215442
0.0253604
0.0275069
4.54978
0.0222975
1.89004
0.0311661
0.0656326
0.0317096
0.0220529
0.0220878
0.285252
0.342495
0.252078
10.9237
4.55986
0.0243198
4.39037
0.355848
0.0217703
5.26451
0.150032
7.69593
0.0304066
0.106979
0.358607
8.57761
0.257937
5.91424
0.023291
3.40641
12.9862
0.0383521
5.65081
0.0430708
4.37501
0.04455
0.0560617
0.251323
0.573784
0.0220813
0.0304078
0.0824207
0.0433246
0.0219839
0.0683023
5.22447
0.0220863
0.0673967
4.99066
0.0258802
10.6685
0.0639316
4.40242
0.0293356
0.0952967
2.6814
1.65685
0.0674843
6.28554
9.44696
3.1515
0.022039
0.259939
0.0430298
0.106619
0.0219315
19.1388
5.18112
7.80087
0.0274428
0.259488
0.761456
5.70256
0.0216179
7.13596
0.825635
19.4761
0.0378716
5.86324
0.0220769
0.0221279
8.42951
1.06513
0.0220595
0.0263858
0.068707
0.0218397
5.2513
0.0986524
0.146127
0.0293944
0.0233133
0.0222227
8.95729
0.0220817
0.0222051
3.67075
5.24513
0.0274883
0.348047
0.0221114
0.0221002
0.026489
0.254836
0.0626595
0.0219994
0.0237795
0.310748
0.0247174
4.67718
0.0220845
0.0327504
4.92027
0.0379226
0.0215804
0.0221283
0.0292422
0.0227293
3.09223
3.89353
0.0445557
7.32572
0.0265924
0.022071
4.7225
0.369568
0.0367565
0.0221199
4.58576
0.0358028
16.2286
0.0221448
0.039337
0.268596
0.0470097
4.56198
0.85103
8.05827
0.0243871
0.321403
0.0220407
4.70852
0.0638552
0.219171
0.0428223
0.0250423
0.0379017
0.0885914
0.0220956
6.33176
4.66642
4.92942
5.16053
3.8721
5.31731
1.79184
0.0289171
0.0222111
17.0347
0.0220627
0.0219794
0.0312458
4.11342
0.0260114
0.0228175
0.113395
0.0659684
0.0220611
5.33707
0.021983
4.71685
2.59699
0.0219849
0.0248895
1.02741
5.33398
0.0218183
8.27037
17.9753
0.0217594
3.84277
4.34898
0.235816
0.0243434
3.63212
7.88519
0.0217829
3.11319
0.0223207
0.0219854
2.02679
4.36972
0.0523272
0.0616743
0.0220624
0.0852332
4.67919
4.013
0.0219352
6.5593
0.0219919
0.0223522
0.068445
0.0325728
0.0216104
0.0246567
3.85052
0.515243
3.87694
0.0253683
0.0220503
5.0278
0.0221848
0.267079
0.0328029
0.0433735
0.0436214
4.72029
8.09156
0.0295867
6.953
0.0244814
0.0968843
4.82665
5.37777
0.0222904
0.0220445
0.0495422
3.88527
0.334877
0.0839838
19.6048
0.0328212
0.0427237
5.83748
5.22119
0.217666
4.68761
0.315832
4.64034
0.0229571
0.444542
5.96752
0.02209
20.9853
4.5612
0.033435
0.0680945
0.0221845
6.41048
0.102526
13.518
0.0220811
0.0221661
0.0269636
0.0645582
0.0220933
4.15121
0.0221605
0.314652
0.0244262
0.10846
0.0221386
0.0220614
0.0548897
6.99226
0.0670009
4.18477
0.039341
0.0218509
0.021854
0.0880787
0.0237662
0.161311
0.026797
0.0359773
0.414465
0.0221863
6.23196
0.0222546
0.146757
6.03392
4.99176
0.0285952
15.9448
0.108856
0.459544
4.4963
0.0220306
5.0084
0.0314612
0.0401722
4.81859
6.92953
0.0217863
0.153756
0.0224516
4.66277
8.10638
0.0224958
0.077779
5.23073
0.0222644
0.0222537
0.103082
7.53571
3.19983
0.0222896
0.252526
0.0243413
0.0220629
0.375466
0.258518
0.277543
0.0215925
0.180713
0.0501342
0.0878462
0.0227709
0.0237921
0.0946875
0.0268337
0.193766
0.0736902
0.073256
0.173939
4.92743
4.61645
5.0163
8.61617
0.216819
5.24245
0.0443587
2.59987
0.242049
0.0220529
0.041421
2.17372
0.0298794
0.021987
0.0219811
0.147824
6.70723
0.0330844
4.37064
0.0218553
3.59539
0.190437
10.5051
0.153831
0.0295929
0.0261159
8.87325
0.276001
0.042656
1.05018
0.0230896
13.02
0.148101
0.314533
0.0413591
3.64442
0.0220759
0.0222466
0.0235793
0.0220626
4.84983
0.0220056
0.367098
4.97092
0.157057
4.01787
8.38741
0.33851
0.564509
0.0289303
0.0221826
0.0221102
0.0217052
0.021854
0.0221418
0.0984275
0.314409
0.0543202
5.49704
0.023782
4.73548
0.0222939
3.95553
0.0510689
0.022284
0.022138
5.00568
0.0299317
4.25132
4.61602
0.0646059
0.104793
0.0217361
4.84922
0.0252167
0.0260469
0.407061
0.0221864
0.0228543
0.0220009
0.0641922
6.22404
0.0352723
0.0422366
1.01475
4.06631
0.029663
0.0282173
4.75332
0.0217006
4.73993
0.0222025
0.0247511
7.04185
0.127387
0.216968
0.136405
0.0676151
0.0222294
0.0222938
0.104559
0.0230482
0.0222364
0.0340274
0.776999
0.0219917
0.410711
10.1168
3.84516
0.13332
3.81686
0.0379187
0.0221786
0.248713
0.021869
0.0304964
4.96619
4.51505
4.98895
4.70317
0.0226138
0.0224487
0.0804415
0.0235509
0.0219184
22.3263
0.345446
5.58078
0.147969
0.129972
0.0220684
0.0218221
13.4184
0.147267
0.0253509
0.0222539
0.215382
0.387482
4.35831
0.0223337
0.0221539
7.54667
0.0227395
0.0433683
0.0218423
4.12193
0.021975
5.66427
0.0220877
0.220561
0.0545611
0.0808633
0.0419715
0.0220831
0.0263907
0.0220273
0.358878
0.0227851
4.63294
0.0232139
4.94537
4.82005
0.0387521
0.0220086
4.31749
4.05047
0.0304959
0.126261
0.0221103
7.22406
0.0220896
2.10129
0.022079
0.0220243
4.13009
0.0439953
0.0221192
0.0400715
4.4906
5.48013
5.16765
0.0218751
4.98204
0.0220898
0.0219983
0.0223553
0.0214811
0.022236
4.99889
5.04906
0.0225932
0.0221567
0.0529305
0.0219615
3.96395
0.258715
5.97843
4.02475
0.026312
0.194708
0.0220838
0.0592363
0.149073
0.0220071
0.0222108
8.3721
8.21138
0.103067
18.1145
0.0942386
0.02211
0.0551739
0.129025
8.28523
0.0416606
2.83142
0.151243
0.0222252
9.51823
7.89354
5.12189
6.73005
1.65976
0.0243584
0.162942
0.0222039
4.78001
0.0291558
0.0218868
5.05818
0.0236198
0.0220091
0.0222936
0.0233834
4.14427
1.91069
0.0219055
0.056399
7.60375
0.0239709
16.4753
0.023503
0.122452
4.31675
0.0221054
0.343447
0.0334728
0.0408211
6.02506
0.0236121
1.97496
0.0938349
4.53598
0.0225772
5.141
0.0376696
5.19962
9.09508
6.35334
0.0646095
0.0220953
0.0226206
0.0222642
0.0527719
0.0221309
4.56671
0.0314465
0.0287796
0.0294015
0.0242946
0.0218705
0.0306154
0.030824
0.0248951
0.0296232
4.40522
0.35615
0.0364828
0.0612125
5.11882
0.0228784
3.81781
0.0217107
0.0361889
0.0227932
0.0220689
0.052515
0.0220666
0.0218994
0.0465765
0.0220896
0.651365
0.0234797
22.0239
5.4849
0.386154
1.53801
0.0223423
4.05561
0.284306
0.0222278
0.0305391
0.0227135
3.76169
0.0234476
0.0462662
5.2295
5.66972
0.111431
0.0224202
4.81609
5.19925
2.21901
0.0333464
0.0218414
0.0219115
0.100076
0.0220848
9.51278
0.291023
0.0222021
0.392039
0.749286
0.0219778
4.49539
6.29379
0.337635
0.0233863
4.74687
0.0974408
0.0220318
7.06336
0.0281224
0.0219475
0.0219891
0.0406365
0.0536076
4.85131
3.75495
0.0570376
4.93783
0.044173
0.0220538
0.0885802
0.0219856
11.6845
0.0219617
0.0220505
0.0249104
0.0229917
4.95235
6.2342
0.338032
8.26851
4.49281
0.0299435
0.0220978
0.023484
2.77601
0.0219356
0.0219676
0.0540219
6.92534
0.334087
0.0216487
0.0455569
0.0425302
0.241785
17.5977
0.0217548
0.0215967
0.024766
8.37493
0.0340403
4.63719
0.0237518
0.0221648
0.0219546
0.0219862
0.0257428
0.335083
4.56145
4.97895
0.0293764
0.0220719
13.0432
0.0227315
5.83327
6.03835
0.0317643
5.63925
4.82979
3.77358
0.0779989
0.0411922
4.74615
0.0383326
0.0360425
0.0830585
0.509284
0.0229655
5.67211
0.0220558
4.81293
8.06393
0.0217154
0.0244544
0.0536557
1.66365
0.044002
0.0221443
0.0331702
0.0233486
0.0288704
1.52515
0.0221689
4.22183
6.09874
0.0220628
0.0392148
0.053453
0.0220953
4.50027
14.3846
4.05016
4.42754
0.0220553
0.0260621
0.0294833
0.0223742
0.339875
0.0446942
0.0222577
0.0929188
0.0262703
4.98461
0.0549006
9.31869
0.0232715
0.0239588
0.0533015
0.147855
0.109351
0.0220325
16.2876
4.99663
25.6372
4.8698
4.8987
4.88862
5.45706
0.0220323
0.0220506
0.0222122
0.327441
0.0623657
0.107913
6.97633
0.0224811
0.0216699
0.0220619
0.28349
0.0216758
0.0306174
0.0244689
3.84392
0.0232338
0.0218759
0.0221003
0.0220593
0.0221634
0.03611
0.335243
0.0361697
5.29477
0.0220551
0.0219894
4.65516
4.91163
7.16794
3.53585
0.0515015
3.35092
0.0218357
0.0722392
0.0239565
0.0220929
0.0259608
5.04409
0.0239264
0.150854
12.9678
0.0225957
0.0220506
0.026936
0.334818
0.0222724
3.84371
0.0221919
0.31283
0.0221317
0.022587
0.0306773
0.110572
0.0221826
1.30062
3.88046
0.258362
4.97302
0.0220755
6.96347
4.61364
0.0220677
8.2941
0.0223616
0.0437072
0.0222832
0.022362
0.021973
0.0220588
0.0227719
0.0278359
0.101661
0.0225191
0.0221047
0.0650792
0.0217605
5.27289
0.0221313
0.0405722
0.0435757
6.46646
5.58576
0.0221548
0.339344
0.0218355
0.0372657
0.0878458
3.04037
0.0680993
0.0222727
0.17375
0.0820292
0.130081
5.57864
0.0381127
0.259838
0.0842338
0.102563
0.0232081
0.021932
3.95906
4.74316
0.0262718
0.0220285
15.5932
0.0218611
0.0579724
0.021987
0.10901
9.4721
0.0215373
5.92315
0.0294685
0.0221722
0.24291
0.0218864
0.0419015
4.40834
0.0533474
3.98736
0.0219685
0.0222654
0.0448522
0.0222289
0.0222474
0.0328558
0.0359994
0.102472
0.115383
0.0221791
0.0455425
0.0219089
0.0220774
0.0222186
0.0220702
9.79996
0.0220041
0.0235348
0.348871
0.0218553
0.0220173
5.03659
0.0222509
20.9192
0.024199
5.07007
0.742303
0.0558024
13.6421
0.0905699
2.4546
0.0228102
0.423519
0.0301553
0.0219152
0.0219621
0.0234959
0.0388891
0.0220465
0.0673868
0.0219257
0.0239675
16.2628
9.22876
6.21726
0.0258681
0.048458
6.29552
4.04724
0.0221789
0.0300658
2.55255
0.0224737
0.0504782
12.0842
4.98669
0.0315331
0.0598171
0.023221
0.859603
0.0222857
0.0384376
5.75837
0.022279
0.0219193
5.47177
0.0563815
0.340292
4.99804
0.149928
0.0225689
0.0219286
0.022642
4.99425
5.96944
5.31511
0.0750779
0.0220678
5.39962
0.0221178
0.312917
0.0269643
0.0243653
0.059145
0.0220744
4.524
4.55691
0.0217084
0.101831
0.0638778
12.1881
0.0586228
0.0827986
0.340934
0.0437442
0.35209
0.0877133
0.0221208
0.0469258
0.0860441
3.85564
0.0220519
2.1224
0.0627059
0.0874603
0.0222732
4.37148
0.0295229
0.0241682
0.0219282
0.046319
0.0450979
0.0625266
0.0221318
0.0230681
0.0718633
26.3675
0.081751
0.0221637
0.0227615
0.0466795
0.609556
0.0221778
0.121468
11.5608
0.0563734
4.98626
0.0527408
9.92909
2.13494
0.0220353
9.65396
0.0222386
0.0265123
0.0416393
0.0449512
0.160816
0.0648166
0.0494384
0.0526706
0.037887
0.0250402
0.0216675
0.0947614
0.0282795
0.0299595
5.52277
0.028435
0.0325625
0.0219797
5.66965
0.112781
0.0221763
0.0267995
0.0233905
7.88262
0.272296
0.0416175
4.86161
5.36468
5.14903
0.149056
0.34878
0.0219249
0.335389
0.0219512
0.0272069
10.8624
4.49145
4.33521
8.85902
0.0221288
9.52598
0.0219218
0.126217
0.0263833
2.58827
4.95099
0.028725
0.0220271
3.59259
0.0443975
0.0220427
4.35354
0.0220789
0.0242734
0.0282618
0.02227
0.0370363
0.0235145
0.022069
0.0392498
2.60346
0.0549675
0.0817327
0.0220393
8.2007
4.43931
0.0220104
0.399308
0.0262941
0.0300471
5.22971
0.0220074
0.0229596
0.0289505
4.94724
0.0220505
0.0221841
0.0525322
1.82092
0.0219937
0.0340638
0.0376864
5.45063
0.0604332
0.0516933
0.357763
0.0220834
0.134705
0.0217285
8.9999
0.0354913
0.0220642
0.030824
0.145955
0.0221525
0.0224392
0.249266
4.26561
0.022708
8.29561
0.0221905
0.0217187
0.0961406
0.0220508
0.0220023
4.82371
0.0222746
0.0547089
0.237568
3.75891
5.39812
0.0219114
0.0242776
0.0288224
0.0220819
0.0220857
0.0221083
0.872668
0.0221995
0.346582
0.189507
0.0219096
0.0217767
0.0363076
0.188744
0.366454
0.0629629
0.0848376
0.0246603
4.7981
0.102458
0.0369009
0.05565
0.0813808
0.143303
12.7926
0.0504575
4.57666
4.96729
4.00098
0.0267367
0.0220739
0.0474108
0.0349109
0.0218963
0.0227188
0.173193
0.0222444
0.0226134
0.0220676
0.0215959
0.0246946
0.0222512
6.75878
0.0220244
7.84646
0.0220894
0.108866
0.0230273
0.194989
0.0986379
0.0220999
5.0439
0.0241489
0.0222284
0.0539092
0.0218936
0.0324873
0.0221281
4.45443
0.025306
0.056383
0.110578
5.01813
0.0305395
0.347544
5.57151
0.0622498
0.0223365
0.0237377
0.139739
0.0940544
8.41665
0.0218204
3.8271
0.0222478
0.0972023
4.96524
0.0430294
1.71081
0.0268775
0.0409802
0.02589
4.44092
0.0367883
0.0221429
0.0582459
0.250705
0.0242668
0.0220591
0.0221452
3.96048
0.0222542
0.0295688
4.88267
0.0273222
0.0220353
0.070511
0.0264917
4.92804
0.0216701
0.022052
0.021888
0.0263459
0.0227846
0.0223627
0.094755
4.76908
0.0220201
0.02211
5.2994
0.022522
5.48845
0.024772
4.20457
0.02194
0.0251432
0.0218348
4.75553
5.02947
0.0326029
0.0819649
0.0272948
0.0220351
0.0221236
4.41066
0.0221378
0.124717
0.0218212
0.0568843
0.0221948
5.3058
0.0218648
0.0620795
0.021913
0.81999
3.33531
0.0218659
0.0513275
4.54089
0.102097
3.7953
1.63692
0.410082
0.0235869
0.0433666
0.150607
5.40053
0.0224125
0.0504312
0.028923
0.0221016
4.80359
4.04342
0.103167
0.283785
2.63408
0.0379327
5.0384
0.0218867
0.0218569
0.15132
4.84969
0.593675
0.282509
5.11858
0.0218385
4.43687
4.75842
5.5566
0.0222036
6.1819
3.76871
3.32145
4.19465
4.70111
0.12846
0.0362784
0.32873
0.0261029
0.0220654
9.82307
0.147222
0.0216482
6.34676
0.0221929
0.0313832
0.0585023
0.0274701
6.67749
0.0367323
5.37431
0.0607186
0.0264528
4.96762
4.23952
0.245862
0.0224296
0.026157
0.107082
0.0685946
0.021852
0.0639224
0.0700999
0.251764
0.0220475
0.406282
0.0253177
0.0591775
4.00815
0.3538
0.023205
0.190037
4.74077
0.0222743
0.0232375
4.84881
1.19686
0.0258791
0.0266692
0.0221031
0.0953065
0.0280638
4.78524
0.15943
0.0226906
0.0222236
0.0697859
0.0324222
4.75831
7.75855
0.0219399
0.0220526
0.0310843
0.022197
0.0257966
0.0234142
0.0233733
0.0262533
0.0219912
0.0259048
0.0222403
0.0657464
5.43578
0.0222647
5.26321
11.6508
0.0217287
0.313881
0.196412
0.115956
0.0229898
0.146141
0.0311398
0.087859
0.0362085
0.0240732
0.0222099
8.12262
0.032067
3.86102
0.022946
0.0220596
0.022041
0.0887643
0.0220126
0.0693595
0.0887544
2.27362
0.0219499
4.40854
9.61128
4.84192
0.0218296
0.236696
1.18189
9.21222
7.35626
0.0226232
0.0225304
0.258437
5.02952
3.54658
0.0549174
0.380315
0.0222315
0.0219488
0.0455154
0.0221997
0.0221612
0.295773
0.0222662
0.098535
0.0219278
4.36629
5.25689
4.99472
3.98828
5.10675
0.0221737
0.0221535
4.95559
0.0218414
0.0218806
0.0217213
0.171003
4.84968
7.57073
0.0284058
0.0223388
0.0238687
0.0415307
7.39676
0.022042
2.00527
4.37382
0.0221937
0.0221814
5.00114
0.117241
0.0242391
0.0220611
5.19363
5.13676
0.0221804
0.350841
0.0222547
4.7273
5.0674
0.0244582
4.55291
6.52531
5.33329
0.0219029
0.0224131
0.0222469
0.0222863
4.93728
0.0219803
0.362473
0.350993
10.0507
0.0232397
0.0759495
5.2343
0.0653492
5.04077
3.84848
0.0216377
0.02853
0.0288312
0.200902
4.95757
0.0215795
6.0012
0.0351905
0.0591079
0.0229867
0.021957
1.14541
0.0499074
3.97283
0.0221993
0.0716792
0.0230909
0.200233
0.0259968
4.74888
4.92162
0.456861
0.139474
0.022036
0.0247346
0.134137
0.283457
5.00275
4.67227
0.0221513
2.85328
0.102617
4.03241
0.0297307
0.0552072
0.0509365
0.0223195
5.30868
0.0220843
0.0415769
4.41663
4.4222
9.49265
4.71905
0.0304855
0.068072
0.0218057
4.35281
0.02929
6.16271
0.0217918
4.9925
0.0215445
0.0220239
0.0405858
0.0326428
0.0346597
0.0220768
4.69513
0.0601304
0.0219828
0.0450289
4.8074
0.945338
0.0220682
3.78991
0.0256399
0.0443079
0.040294
0.0217026
0.0874553
0.0220186
10.4227
0.10046
0.0303867
0.0220519
1.37377
0.052408
0.0217903
5.18196
6.0523
0.879917
0.0216879
5.37319
0.0221491
0.227988
0.0320424
0.164939
6.48783
4.88528
0.0355302
4.77042
0.0602782
0.0302046
0.0218701
5.20161
0.153792
0.161925
0.0643026
0.0222437
2.19528
0.125718
2.00405
0.342284
4.47329
4.66406
11.0656
5.49773
0.0308271
0.0329598
0.0221084
0.0223077
0.0216015
0.301084
0.0314994
0.0346517
3.88323
0.0219853
0.0218769
0.0561817
0.252054
0.0326208
0.0218514
4.20287
0.0258331
0.0645246
0.0223841
5.79896
0.0299471
5.05521
0.0630747
0.043552
0.0652936
0.0221022
7.01604
4.99854
0.0980921
0.0221601
0.0219192
8.35636
3.78672
4.70332
0.0219699
0.0992361
5.06808
0.0222812
0.0220196
0.0222741
4.81731
0.114819
0.0391813
0.0308611
0.0292854
4.89489
0.12221
1.02693
0.0294827
0.0413265
0.0215887
0.177695
0.0709887
0.022049
4.20005
3.84295
4.46799
4.1005
3.77164
4.87791
4.87386
0.023266
0.0219588
5.30811
5.98141
6.29253
0.0221938
0.0539595
0.0220655
0.0220168
0.936118
4.42654
0.0943134
0.0220249
1.88128
0.148022
0.0663895
5.45298
7.95332
0.502676
0.0219242
4.70862
0.662111
1.14006
0.0404765
0.0572161
0.022219
0.0219105
0.0496361
0.0597248
0.0256885
0.0550461
0.0326883
0.0261737
0.310484
5.10153
0.0334083
0.0581199
4.91521
0.296279
0.0221178
0.506182
1.28382
5.40065
0.0521095
0.0224032
0.0357125
0.029729
0.0319789
0.0217016
0.0340003
0.0390145
0.0635627
0.409174
0.022231
0.0237327
4.7524
4.68028
4.18153
5.18944
0.17042
0.0215244
0.0220614
0.0368923
0.0217929
4.39596
0.0220591
0.0222743
0.0217557
4.24389
21.091
0.0225641
0.0922224
0.0315018
0.0384393
0.0359923
0.0362539
0.0544407
0.0457901
4.26598
0.0295566
5.68787
0.0476582
4.13318
0.0343695
0.021943
0.021861
0.149694
0.252231
0.0218449
0.0432719
0.0349019
0.0784249
3.80836
4.45712
4.78912
0.0222741
6.36009
0.0317736
0.0419573
0.0220525
0.0957982
0.0245315
4.51755
2.60789
0.0464031
0.0220926
4.59755
0.0277164
5.4793
6.19215
0.316081
0.0253798
0.220031
4.79273
6.15431
4.6601
0.0813373
0.0220917
0.0478146
0.021969
5.62561
0.0257314
0.0379432
1.95529
4.05464
0.0220399
0.0220414
4.16847
0.0528472
4.65034
0.0334275
0.0220622
0.0555582
0.355071
0.0458561
3.19978
0.0414225
5.97027
0.0272477
0.0222468
0.022029
0.688099
0.0228191
0.178743
0.0220726
0.0221719
0.508111
0.0294063
0.0223229
0.0220534
0.0411735
5.78162
0.0583659
0.0504012
0.0271034
0.0838018
0.0221342
0.23946
0.0372313
0.0580886
0.0740454
0.0320072
0.108437
0.047754
0.0219404
0.101357
4.13129
4.36507
0.022372
10.8971
5.36501
0.0220285
0.0227866
1.15048
5.26205
0.0282553
5.16291
3.88704
0.0222543
0.129082
0.021598
0.0291984
0.0856205
10.2993
0.7028
0.321952
4.90092
4.0184
4.59407
0.0243639
4.70244
0.0220579
0.477465
4.68854
0.0221123
0.0220853
4.46432
0.0221551
0.0220985
2.88881
5.02305
0.496105
0.0293499
4.96879
0.0221054
4.57213
4.90084
0.0221913
2.98188
9.9889
5.18408
4.6095
4.77793
4.61552
0.0219157
0.0233871
0.0871676
0.0957696
0.0220933
0.288666
0.0220608
4.70793
1.17022
0.0528469
0.34144
4.66185
0.770299
0.335705
0.0636843
7.92659
2.17301
0.0277757
0.0216457
1.25676
0.0378643
0.0218325
4.26945
0.0220294
2.25614
0.0221858
4.59201
0.0281095
0.0220227
25.0362
0.0279079
0.0375218
4.61538
5.28647
7.2121
0.0321525
0.0609066
0.0237119
0.0529118
0.211733
0.0546039
0.0222118
2.18927
0.0887196
0.0366354
4.86168
0.0541779
0.0405611
0.32699
0.108426
0.0619009
0.0220193
0.41397
0.0218626
0.207565
0.36095
5.4086
0.0218954
0.0492753
4.06776
0.0242572
0.0898383
0.0382345
0.0541627
5.18227
0.0886004
0.0236627
16.7642
0.0219035
4.50939
0.0221329
0.0237999
0.203753
4.7002
0.0365865
0.433436
0.889789
0.0389867
0.0225127
0.193249
0.0586058
3.92683
0.0268973
20.5155
0.246642
0.0386284
0.0353454
0.137234
0.0453099
0.0793526
0.0884232
0.0416829
0.0258871
0.0223386
9.96669
0.0220672
0.0336556
0.0216035
0.171808
0.0345426
0.0876684
4.9245
0.0231188
0.559677
0.021506
0.0222096
0.0221928
0.0222094
0.0298775
0.0219708
0.131964
9.9547
0.0868801
0.0620831
0.027348
0.0222229
0.349847
0.0221167
4.71539
5.13877
4.73935
0.225108
0.040309
0.0311657
0.0221836
0.0311728
0.106377
0.0525686
4.8256
0.085862
3.74764
0.223213
0.0222111
0.0218613
4.39491
0.0220297
0.0363778
0.0685497
3.1363
0.0243152
4.75269
0.0221773
0.0279256
0.0220661
0.0228516
0.192887
0.16386
0.0224972
0.0408633
0.0360134
0.0637167
0.0834261
0.743561
0.507273
0.585877
0.19812
0.0287634
0.0236423
0.0818268
4.61742
5.03202
4.82108
0.0400809
5.73337
0.158135
0.0234485
0.0220179
0.0890038
0.022152
0.0404213
5.40119
0.022011
0.0219005
4.92012
0.674238
0.0650619
8.10282
0.0221631
6.9195
0.051878
4.14772
0.0305679
0.0221431
4.65972
0.0617762
0.0220741
0.0887215
0.0222547
0.234307
0.0336591
0.0566686
4.37574
0.0351949
5.26168
0.0219702
3.73971
0.0221895
0.0291216
0.0228639
0.0592028
0.022146
0.0619505
4.62474
1.53081
0.0672297
0.0356112
0.0844726
0.0220153
0.0220472
0.0238907
4.22341
0.0280142
4.54203
5.88472
0.210945
0.0222191
0.225367
0.408988
0.260402
0.0284307
5.82491
0.0220446
0.0215284
0.0220223
8.68698
0.0223078
0.02207
4.75653
0.022016
0.290458
0.114483
0.0218929
4.97271
0.032309
4.5467
0.0220656
5.09572
0.0234204
0.0756617
6.05656
0.0970696
0.021993
0.0312093
4.86465
0.0400579
0.23704
0.038675
0.0289865
0.207092
0.0311311
0.0225198
22.2493
0.034672
0.0328615
0.20898
0.0220245
0.0219293
0.0221898
0.0373361
0.0222039
0.0271729
5.28109
10.9319
0.1144
6.39178
0.0885126
0.0434191
4.03602
3.74665
0.022561
9.53837
7.44027
4.82641
10.1619
0.0376067
4.86069
4.92565
12.0262
9.93631
4.95838
0.0461296
0.0941381
0.0308218
0.02899
0.0222363
3.78231
0.0222856
4.08953
0.145482
0.477579
0.0215957
0.111999
0.0497281
0.0237149
0.0222933
0.0221194
0.141727
0.0248218
0.0226104
0.0546324
3.96015
0.026017
0.239698
0.0218513
0.141748
0.0929639
0.0222488
0.0284725
0.0219723
4.63925
5.06484
0.29398
14.7233
0.0364823
0.136488
0.0221391
0.0566309
0.0221098
0.0226319
0.022236
5.01027
0.0218289
0.0620338
1.50102
0.0300787
0.0386968
0.0220304
3.91104
0.384122
8.49271
5.73315
0.308184
3.0567
5.15075
3.19578
0.357265
8.43
0.145535
0.0347418
8.19429
4.27376
0.0220639
4.00837
0.223393
5.21639
0.0216157
0.0928282
3.94408
0.0222738
4.11499
0.0256109
8.03857
0.0220953
0.022126
0.0924446
0.279278
0.0302802
0.0891874
0.0218863
0.0224103
4.62349
5.29008
4.2731
0.0766269
0.0224894
0.0225376
0.0221426
0.0395621
1.4495
5.07631
4.88859
7.52212
0.038506
0.021962
0.0219904
7.57405
4.5119
1.07848
0.0269273
0.0261164
0.0918209
3.8543
4.57685
0.0215235
0.0219965
5.66492
0.0237869
0.339021
0.0289259
0.0221815
0.0355741
0.0495543
5.88116
5.05922
0.0222027
0.0219018
0.0265648
0.349656
4.03001
0.0222664
0.20162
5.00869
0.021532
0.705287
4.63348
7.53666
0.0221192
4.03733
5.5672
0.0433856
0.414563
0.0265594
0.332852
4.41423
0.0285168
0.0219936
4.44034
6.69823
0.0219177
0.244448
0.239054
0.0366815
1.35072
5.14408
5.18246
4.15802
0.0330817
0.0237031
0.0241085
4.59808
5.91766
5.63998
5.26975
5.61139
0.0217785
0.062121
0.0220717
0.0221197
0.0257914
0.0219924
0.0220755
0.0221917
4.92804
19.0282
7.49875
0.0638692
0.394218
0.0361608
0.0219208
0.0219929
5.51752
0.0221476
6.53945
4.82253
0.0221846
0.0220245
4.75231
0.0228922
0.936446
0.0285287
0.0217727
0.0217764
5.33931
0.0217061
3.96222
5.16271
0.0215765
0.0631051
0.0220423
0.0238332
0.022034
0.151678
4.30396
0.0219942
4.61872
0.634441
0.0247629
0.0220175
0.022911
0.0246053
0.0222294
3.25785
6.51099
5.12732
0.054997
4.24862
0.0222736
0.0292056
0.0224888
0.256825
0.0237526
4.99713
0.021879
4.74148
3.67499
5.91089
0.236579
0.0218737
0.0541542
0.0220221
5.01464
0.0220169
0.0309307
0.0292826
0.0284857
0.0223503
0.0222517
0.0342596
4.72257
0.0222435
0.0234533
0.0256494
0.0361391
0.284593
0.022193
4.02695
4.5442
0.0253022
5.0893
3.99912
2.14736
5.15763
0.0215373
0.0235299
3.50026
5.0462
0.22282
4.37255
4.96483
0.0358449
0.0665805
0.0387605
5.00396
0.0220564
0.0219739
5.29654
0.214474
3.90276
0.0272538
0.0217318
0.0220643
4.37907
0.110244
0.0239817
0.34499
0.0219568
0.0923424
0.0373192
0.038041
0.022208
0.022193
0.0219512
0.0270183
1.87828
7.06297
0.0215861
0.0220414
4.14561
0.0222131
0.0715152
0.0261378
0.0257903
0.0517091
0.0222861
4.96477
0.0368625
0.0254424
21.6882
0.135078
0.0237128
0.0412539
0.0220659
0.0228113
4.29922
0.314874
4.54564
0.0226798
0.0221613
0.0792267
0.0278092
0.0220521
0.0535116
3.88454
0.0275855
0.0492046
0.0264133
0.201429
0.0221244
0.0217918
3.89172
5.28977
5.24452
0.0220292
0.281404
0.0216619
0.0220456
0.10207
5.08861
0.10399
0.0326378
0.288023
0.0236264
0.0369255
0.0529783
0.851763
0.0226699
0.021654
0.0226869
0.0240931
0.0313683
0.0219953
2.01176
6.62478
0.0223915
0.0338356
0.02247
0.0217192
4.67223
5.14225
4.03528
0.118792
0.022437
0.0843463
4.27621
0.149825
0.150461
0.0358283
0.0311843
5.52255
0.354371
1.90455
0.021783
0.0320153
0.0221465
0.0360835
4.32131
0.0216306
0.0455136
0.0256488
0.0322177
0.0234792
0.0219242
0.0218981
5.01935
0.0640296
0.0387237
0.102415
0.0377636
6.26562
0.0331961
0.561727
0.0219782
3.79023
6.01125
5.11365
0.0222648
0.0405293
0.0220878
0.0220577
3.88547
0.0635125
3.7332
0.0220261
0.0474761
0.201955
4.98584
0.0289297
0.0217051
4.83788
0.0222858
0.0222845
0.022928
0.0220554
4.06197
0.0218946
0.0219346
0.0396505
0.028057
0.180015
0.174456
0.0344234
4.85816
0.0222358
0.271012
0.021918
3.72628
0.0378662
0.710465
0.250669
4.24549
0.178218
3.8572
0.0241236
4.70783
0.0343516
4.72836
0.296472
0.0282502
0.36771
0.0222862
4.34814
0.0241763
0.0438572
0.0279655
11.4279
0.234113
3.86148
0.0324808
0.0220551
5.04854
0.389775
0.0823448
0.248431
5.07447
3.88252
0.0434593
0.535447
0.0561652
0.0219423
0.0574381
0.452581
0.0818935
32.1699
0.164769
0.0218368
0.0221603
0.189601
0.0220897
5.35184
0.0818124
0.0220963
4.3573
6.56124
1.26309
0.142405
0.0222517
0.0298498
0.0261465
4.02192
4.63229
0.0262023
5.02282
0.0219953
0.0326933
5.05474
0.0220332
0.0491797
0.0219602
0.028552
0.0222516
0.193325
5.18859
0.0310712
0.0308053
0.0217684
0.204499
0.0220075
0.021874
0.0344573
0.0219568
0.34768
3.95633
11.7553
4.58601
0.0218382
3.73584
0.0221938
0.037891
0.185505
0.0223548
5.12283
0.0835211
0.0221613
0.0217003
0.0538285
0.0414786
0.230108
0.32725
0.0260752
0.024716
4.58989
0.0946739
1.451
2.8476
19.1836
3.76897
3.72955
7.58561
0.022201
0.0221186
0.0550038
0.022385
0.0620441
0.0511147
6.48306
3.75202
8.44393
0.0217693
0.0218656
0.159657
2.64786
3.79269
9.36495
4.48349
0.0574306
0.0340102
8.31398
4.03795
0.0306779
4.04771
0.0346433
0.0376389
4.52909
0.0590475
0.0222184
4.87783
1.94109
0.0271171
0.201043
0.0237343
5.82825
5.09309
6.00404
0.0220451
0.0217008
0.23669
0.0220446
0.022122
0.0220462
0.0217642
0.0220496
0.0220538
3.77415
0.030094
0.0491067
4.09865
0.0219325
0.022061
0.0396446
0.0294938
0.030417
0.0220672
0.0811947
0.0334687
0.0269629
0.0963087
5.08135
0.0220769
0.0584529
0.0220878
0.0220571
0.0215906
0.0220989
4.19886
0.0220323
0.0220645
0.0221107
0.0502705
4.37518
4.21525
3.81165
10.2516
0.0620164
4.82804
4.75794
0.0219822
0.0448734
5.37119
0.338489
0.0221233
0.034042
0.0629526
0.0379785
0.0220751
0.0570381
0.0606704
0.0468414
0.0216426
0.0665729
6.06978
0.0215835
10.078
4.19879
0.0453917
0.746921
0.0405112
0.0221035
0.0288425
0.0220584
0.309349
3.86878
0.0217408
0.0470038
0.0220205
0.0219877
0.0223301
0.0222862
0.0407661
0.0221785
0.172625
0.213826
0.0279088
0.0257144
0.0596994
0.0220664
0.0467688
0.0434614
0.022694
0.0221148
0.0221481
4.31541
0.0220644
1.12138
0.0596056
0.0222552
0.0221214
0.0218688
5.50855
0.0269861
0.044364
0.0643882
3.9043
0.0287919
4.50459
9.53048
0.0448791
0.0220079
0.590863
0.0463832
6.17067
0.0879853
3.73523
0.0217227
0.0599059
0.0578984
4.55981
0.0220555
0.06374
3.92945
0.0219259
4.98415
6.96615
4.16975
0.0220282
0.0219006
4.57483
0.0220675
4.49158
0.310286
3.95137
5.37905
0.0218993
0.399328
0.58478
5.26745
0.0257995
8.97363
0.0228586
0.0275025
0.0220928
4.63798
5.1653
0.0510034
5.0662
0.0220521
3.75407
4.51013
5.24897