/*--------------------------------*- C++ -*----------------------------------*\
| =========                 |                                                 |
| \\      /  F ield         | OpenFOAM: The Open Source CFD Toolbox           |
|  \\    /   O peration     | Version:  v2012                                 |
|   \\  /    A nd           | Website:  www.openfoam.com                      |
|    \\/     M anipulation  |                                                 |
\*---------------------------------------------------------------------------*/
FoamFile
{
    version     2.0;
    format      ascii;
    class       volScalarField;
    location    "1000";
    object      p;
}
// * * * * * * * * * * * * * * * * * * * * * * * * * * * * * * * * * * * * * //

dimensions      [0 2 -2 0 0 0 0];


internalField   nonuniform List<scalar> 
13851
(
-0.242236
-0.0914083
-0.0894905
-0.463328
-0.00741588
-0.107861
-0.0653401
-0.0220281
-0.154009
0.0284043
-0.23562
0.00358487
0.0361192
-0.216174
-0.138833
-0.075509
-0.467243
-0.0436762
-0.399137
-0.243479
-0.164042
-0.052084
-0.455846
-0.00452508
-0.456912
-0.0931864
-0.144144
-0.393834
-0.0257392
-0.0275574
-0.466447
-0.0658763
-0.217636
-0.3009
-0.184645
-0.0144547
-0.00443027
-0.45677
-0.460235
-0.00330193
-0.382346
-0.0287765
-0.469762
-0.256093
-0.0531601
-0.0165048
-0.0277022
-0.104967
-0.0576915
0.0370035
-0.44982
0.0466145
-0.0784339
-0.086337
-0.13335
-0.00193618
-0.223075
-0.388259
-0.0932956
-0.332664
0.00370394
-0.145693
0.0262228
-0.0583329
0.00488102
0.010408
-0.33552
0.267996
-0.022719
-0.46283
-0.466502
-0.184555
0.0168971
-0.327874
-0.099495
-0.0262955
-0.468973
-0.0296969
-0.452454
-0.00157443
-0.0243637
-0.411831
-0.179046
-0.232316
-0.324869
-0.466043
-0.0563663
-0.0165859
0.0252758
-0.464781
0.0479076
-0.0676773
-0.461344
-0.466266
-0.45607
-0.213495
-0.0084791
-0.0904518
-0.424294
-0.317386
-0.0919093
0.179793
0.17259
0.022141
-0.0216474
-0.192568
-0.0207457
-0.46621
-0.0679577
-0.0425622
-0.0426965
-0.0175471
-0.358726
-0.244673
-0.182596
-0.0858099
-0.0212497
-0.0224243
-0.463586
-0.462111
-0.214622
-0.0360896
-0.0158967
-0.312262
-0.35361
0.303516
-0.00933253
-0.186872
-0.327718
-0.160989
-0.0478152
-0.133972
-0.454959
-0.291782
-0.243035
-0.454128
0.260472
-0.466069
0.15322
-0.152231
-0.403406
0.0363906
0.026127
0.177133
-0.448941
-0.00854448
-0.0295377
-0.466167
-0.077079
-0.193219
-0.0960139
-0.352841
-0.251968
-0.370687
0.0448269
0.0368564
0.00165699
-0.462552
-0.148593
-0.0734405
-0.00425053
-0.0197794
-0.188197
-0.109145
-0.209712
-0.126933
-0.133245
-0.450099
-0.0426972
-0.426897
0.00453635
-0.0213706
-0.223762
-0.00605485
-0.452944
-0.225312
-0.122214
-0.0221239
-0.0955944
-0.119556
-0.34734
-0.248899
-0.0483328
-0.157187
-0.47208
-0.0751032
-0.21565
0.119329
0.0394691
-0.0240807
-0.448552
-0.150168
-0.214074
-0.11028
-0.0103609
-0.0843549
-0.209388
-0.0556727
-0.050616
0.249396
-0.399805
-0.435239
-0.394492
-0.135643
-0.235861
-0.435832
0.0814443
-0.134771
-0.170434
-0.0997475
-0.0709213
-0.0150156
-0.40826
0.00482253
-0.190738
-0.0315151
0.0357349
-0.290275
-0.0554317
0.324269
-0.0222823
-0.253988
-0.234074
-0.451506
0.106722
-0.13391
0.00434269
0.183703
0.00453725
-0.185209
-0.462127
0.114115
-0.099422
0.0269907
-0.390293
-0.0284129
-0.443708
-0.400677
-0.305988
-0.00408689
-0.407632
-0.317625
-0.0495671
-0.0736039
-0.145596
0.193581
-0.285226
-0.0944552
-0.207175
-0.0676497
-0.0657473
-0.299967
-0.0180642
-0.106175
-0.0869161
-0.0139382
0.0142764
-0.0236928
0.317867
0.0234913
-0.231136
-0.359458
-0.10885
-0.188554
-0.306932
0.00839372
0.181922
-0.115076
-0.369926
0.0166651
0.0363201
0.112185
-0.194445
-0.463316
-0.171097
-0.0372029
-0.345736
-0.365794
-0.188079
-0.185396
-0.201209
-0.403141
-0.114695
-0.129601
-0.442804
-0.0244251
0.000636478
-0.194154
-0.21059
-0.0298344
0.0037026
0.00515912
-0.0103663
-0.139639
0.000968859
-0.160608
-0.167816
-0.0103372
-0.0192739
-0.306662
0.0435385
-0.25289
-0.439389
0.0374377
0.0450305
-0.171903
-0.25331
-0.465872
-0.229925
-0.00763639
-0.422485
0.00441763
-0.242522
-0.440539
-0.36024
-0.0717791
-0.434568
-0.439678
-0.467414
-0.352
0.208248
-0.454745
-0.318854
-0.394826
-0.052324
-0.468085
-0.0153858
0.288654
0.269362
0.0820935
-0.233352
0.0520348
-0.0146845
0.193799
-0.0151523
-0.0278266
-0.0925128
-0.469618
0.318871
-0.0246276
-0.448568
0.0637347
-0.135085
-0.0732928
-0.247038
-0.339558
-0.0805479
-0.0283436
-0.0955278
0.00403703
0.0391904
-0.373905
-0.112238
-0.174478
0.0688545
0.024487
-0.0113783
-0.343839
-0.329034
-0.294969
-0.448744
0.00389068
-0.0101564
-0.398354
-0.250647
-0.0356693
-0.350357
-0.227281
-0.426062
-0.0898356
-0.0803937
-0.0958199
-0.45547
-0.336987
-0.0264544
-0.0569897
-0.228559
-0.470869
-0.137905
-0.0677821
-0.149928
-0.409115
-0.127994
-0.082693
-0.31042
-0.363838
0.0362766
-0.111173
-0.216991
-0.0983417
-0.0132622
-0.170786
-0.298551
0.0158927
-0.138238
-0.462539
-0.0855114
-0.418403
-0.102489
-0.46548
-0.104164
-0.0933317
-0.193658
-0.362513
-0.193664
0.0138615
-0.320091
-0.391874
0.00954513
-0.339377
-0.151412
-0.0832596
-0.0341621
-0.471642
-0.34293
-0.447281
-0.0948915
-0.313858
-0.16969
-0.462846
-0.0324676
-0.467979
-0.38125
-0.449306
-0.0735844
-0.427724
0.0288081
-0.00632874
-0.127658
-0.18235
0.0291107
-0.0916909
-0.141383
-0.01891
-0.345412
-0.234643
-0.226792
-0.0949139
-0.0578654
0.0497639
-0.451954
-0.00853698
0.0490957
-0.041797
-0.30423
-0.0434071
-0.1038
0.0264103
-2.6999e-06
-0.08892
-0.300206
-0.0950245
-0.0128207
-0.0700389
-0.211111
-0.079609
-0.463973
0.0023497
-0.0908653
-0.0539591
0.0513673
-0.0275911
0.0066736
-0.0943706
-0.0589245
-0.372941
-0.0354799
-0.147807
-0.132804
-0.0912779
0.00816816
-0.278342
-0.100996
0.118892
0.0131784
-0.314361
0.143942
-0.394764
0.0231453
-0.138305
-0.344926
-0.110785
-0.320576
-0.164937
-0.456918
0.0288955
-0.357343
0.00644374
-0.0239482
-0.104128
-0.205277
-0.149027
-0.0285486
0.0447131
-0.225799
-0.00706797
-0.464981
-0.28285
-0.463487
-0.458293
-0.0387698
-0.466139
-0.368462
0.0951694
0.015326
-0.42142
0.0288407
-0.012921
0.0976656
-0.448304
-0.0874821
0.0425765
-0.140207
-0.20363
0.0337173
-0.456607
-0.00663369
-0.312386
-0.365503
-0.00224574
-0.0785771
-0.391338
-0.367095
-0.0290305
-0.460088
-0.43786
-0.0392585
-0.466019
-0.392951
-0.262538
0.0311532
-0.0487302
-0.378047
-0.0398546
-0.405337
-0.0193031
-0.00727915
-0.0265441
-0.40918
-0.173581
-0.0930958
0.030318
-0.109
-0.323257
-0.459253
-0.04382
-0.471147
-0.0124513
-0.0209517
-0.196424
-0.083522
-0.0326071
-0.0224024
-0.465594
-0.356771
-0.465685
-0.084573
0.0227711
-0.181566
0.0148772
-0.345294
-0.0987141
-0.103547
-0.147651
-0.0489756
-0.405246
-0.10821
-0.469802
-0.0709045
-0.24184
-0.0335455
-0.136359
-0.0107271
0.00754375
0.163634
-0.463524
-0.0725279
-0.106928
-0.436276
-0.0828388
-0.124326
-0.461647
-0.457243
-0.174521
-0.306308
-0.179957
-0.00632686
-0.0515171
-0.0876536
-0.421374
0.00942194
-0.461741
-0.44589
-0.0489158
-0.156274
0.00304695
0.0322935
-0.211091
-0.450486
-0.0075637
-0.005587
0.102449
-0.200822
0.00180592
-0.450443
-0.00571134
-0.182816
0.0374713
-0.0844111
0.0210916
0.0343865
-0.135488
-0.470609
-0.196087
-0.454378
-0.139071
-0.0187867
-0.0389463
-0.228759
-0.0686138
-0.304409
-0.0939112
0.120622
-0.0841315
0.0161589
0.0204599
0.00426944
-0.076771
-0.467635
-0.0975574
0.131901
-0.450245
-0.126441
-0.331825
-0.446483
-0.0463448
-0.463992
0.0572563
-0.142363
-0.457449
-0.442683
-0.036021
-0.298941
-0.054749
-0.00412007
-0.458012
-0.0276255
0.261878
-0.371471
0.0104841
0.010423
-0.0907943
0.0213816
-0.0604895
0.0451897
-0.316117
-0.0772028
0.0350774
-0.0762529
-0.318441
-0.319701
-0.0312426
-0.119019
0.0706211
-0.091324
0.0618009
-0.00828727
-0.200793
0.0986424
-0.110622
-0.179588
-0.185513
-0.157435
-0.347067
-0.395971
-0.197756
-0.457231
-0.0995201
-0.222116
-0.0475494
-0.0248914
-0.261878
-0.0394121
-0.122313
-0.382225
-0.0760083
-0.00191224
-0.00320059
-0.0814134
-0.0220866
-0.0931428
-0.40405
-0.0183213
-0.0620868
-0.0863413
-0.442181
-0.29596
-0.107404
-0.0901144
-0.441233
-0.322692
-0.0467279
-0.176437
-0.0562335
-0.432897
-0.0786472
-0.190448
-0.147518
-0.414276
0.02775
0.00486459
0.0780991
0.0353814
-0.0400069
-0.00991567
-0.075066
-0.184511
-0.301277
-0.457415
-0.423627
-0.195143
-0.344502
0.128628
0.0248649
0.0350741
-0.0284912
-0.0381827
-0.005942
-0.24029
-0.349257
0.0709992
-0.389038
-0.0282636
-0.16518
0.0194433
-0.462494
-0.167192
0.0197819
0.0259388
-0.108683
-0.10916
-0.132202
-0.447
-0.149935
-0.2049
-0.0385933
-0.306932
0.0166681
-0.0892062
-0.0801577
0.0241328
0.038161
-0.0440437
-0.109327
-0.0479873
-0.125382
-0.14909
-0.387468
-0.458861
0.123153
0.00980379
-0.0219838
-0.0281552
-0.016565
-0.00393161
-0.080173
-0.450195
-0.145778
-0.186535
-0.282842
-0.198485
0.0217872
0.0183033
-0.249387
-0.0534777
0.0218073
-0.0894499
-0.36887
-0.00881141
-0.316429
-0.391788
-0.108611
-0.281327
-0.463677
0.160701
0.0246241
-0.331972
-0.0174715
-0.112223
-0.190234
0.00454022
-0.454877
-0.0233214
-0.0330705
-0.0276742
-0.0278934
-0.00340697
-0.027756
-0.44522
-0.22766
-0.0871362
-0.0744852
-0.148965
0.0362273
-0.0270962
-0.453675
-0.230189
-0.0829619
0.0234004
-0.177073
-0.365698
-0.40556
0.0451892
-0.00194517
-0.0505024
0.0612909
-0.148643
-0.0186372
-0.447543
-0.0175494
-0.468481
0.0245462
-0.293975
-0.158877
-0.00425087
-0.150765
0.0179878
-0.0914982
-0.00758629
-0.0682207
0.0558347
0.0118725
-0.0589587
-0.277243
-0.256497
-0.140623
-0.00921999
-0.461381
-0.0462716
-0.111753
-0.140508
0.0354377
0.0071487
-0.0403946
-0.383867
0.0114284
-0.00797058
-0.131329
-0.14892
0.00657996
-0.0880408
-0.366922
-0.0923221
-0.374216
-0.0226588
-0.217617
0.016871
-0.00877387
0.0429278
-0.0279327
0.0126989
-0.400243
-0.218498
-0.056119
-0.00565464
-0.176559
-0.0180393
-0.461099
-0.339719
-0.218414
-0.45635
-0.0912564
-0.114089
0.00927309
-0.163796
-0.0728912
-0.0456052
-0.00368641
-0.411845
-0.457924
-0.200065
-0.468313
-0.161202
0.0255767
-0.181646
-0.138209
-0.468699
-0.136222
-0.119682
-0.236067
0.00327048
-0.455638
-0.453596
-0.0430883
-0.44801
-0.0229827
0.0258071
0.172507
0.0502085
-0.293439
-0.0740399
-0.0150043
-0.380705
-0.023248
-0.009241
-0.0122941
-0.0213848
-0.448143
-0.380684
-0.0152538
-0.185423
-0.240663
-0.046345
-0.47339
0.0559984
-0.162703
-0.420916
0.00207997
-0.0697287
-0.090037
-0.145421
-0.0722127
-0.0266301
-0.404683
-0.0906717
-0.368999
-0.0556217
-0.00223787
-0.135929
-0.301427
-0.464111
0.000460905
-0.143763
0.0227178
-0.0322374
0.0118911
-0.0822635
0.0240128
-0.326696
-0.0430355
0.080275
0.121951
0.0235402
-0.0223085
-0.0732056
-0.0839116
-0.0787253
-0.0573505
-0.442428
-0.0624418
-0.130829
-0.162296
-0.385108
0.0412893
-0.467617
-0.0275753
-0.0489273
0.0579816
-0.0273657
-0.115894
0.00875052
-0.0158195
0.200114
0.0381326
-0.36317
-0.0659003
-0.461937
-0.380599
-0.315272
-0.396216
-0.0515377
-0.458129
-0.284329
0.0042879
-0.0808259
0.0411507
-0.467906
0.0604881
0.171516
-0.359242
-0.462665
-0.22938
-0.0456296
-0.0509961
-0.347922
-0.0202527
-0.0856198
-0.0195442
-0.0432072
-0.22623
0.0257643
-0.375654
-0.349074
0.0153865
-0.256768
-0.371894
-0.0431331
-0.441318
-0.468178
-0.218609
-0.0602826
-0.0439146
-0.236065
-0.00338687
-0.0853046
0.00657974
-0.0404253
-0.00247768
-0.097864
-0.0863719
-0.173214
-0.464784
-0.109272
-0.145765
-0.110083
0.0235707
0.283234
-0.00248602
-0.433711
-0.04461
-0.00674226
-0.0106387
-0.0540292
-0.219854
0.00439945
-0.126594
-0.410519
-0.462026
0.0979889
0.0132646
-0.0647462
-0.410636
-0.044049
-0.0257808
-0.17263
-0.449083
-0.0454027
-0.0275577
-0.127308
-0.15259
-0.279525
-0.467086
-0.0391362
-0.0323008
-0.0722988
-0.449172
-0.0871217
-0.333551
-0.00479402
-0.00173767
-0.0410416
-0.00455979
-0.035077
-0.205919
-0.00568071
-0.116352
0.130888
0.00965319
-0.411056
-0.0592176
-0.432625
-0.379193
0.104701
-0.469081
-0.0361391
-0.463103
-0.10208
-0.132698
-0.22046
-0.134925
0.0182553
-0.0401398
-0.330566
-0.0491366
-0.161753
0.0247171
-0.162298
-0.450109
-0.0271877
0.0347678
-0.122682
-0.400471
-0.141806
-0.00362406
-0.101298
0.0721544
-0.0903361
-0.0797524
0.0205183
-0.0476037
-0.0397967
0.024952
-0.12935
-0.0881559
0.0087555
0.00916076
-0.0187496
-0.456729
0.00725599
0.0055311
-0.0484898
-0.0882466
0.0400169
-0.111302
-0.142525
0.0225684
-0.132068
0.0952467
-0.26952
-0.15931
-0.244797
0.0716953
-0.0416674
0.184171
-0.24791
-0.236804
0.0106868
-0.013724
-0.333628
-0.448438
-0.465738
-0.16726
-0.14039
-0.29427
0.0122732
0.021883
-0.049789
-0.077269
-0.0975962
-0.241712
-0.466057
-0.0546058
-0.0259444
0.0300088
-0.0532378
-0.0300357
-0.1057
-0.0137293
-0.0673082
0.0379113
-0.0168409
0.0158212
-0.00265743
-0.00545152
0.0677684
-0.116807
0.0135541
-0.352391
0.020476
-0.00520547
-0.317221
-0.260399
-0.0282774
-0.0786428
0.130743
-0.0520845
-0.01957
-0.103142
-0.0396632
0.0237545
-0.0763402
-0.468105
-0.0735712
-0.24736
-0.442713
-0.0570904
-0.026753
0.0932771
-0.202962
0.00276864
-0.0676704
-0.0491304
-0.0796494
0.0257566
-0.055277
-0.113603
0.0744759
0.0369486
-0.147733
-0.469011
-0.0558133
-0.282459
0.029374
-0.468764
-0.290753
0.0179481
-0.455435
0.0406563
0.193622
0.0412689
-0.0496942
-0.00882072
0.0351642
-0.0247541
0.11362
-0.185467
-0.0471367
0.0271781
0.237377
-0.0370103
-0.464164
0.0265452
-0.14535
-0.102308
-0.344499
-0.394393
0.0190155
-0.214731
-0.0187615
-0.0837531
-0.185028
-0.0769561
-0.146595
0.00185054
-0.113457
0.174765
-0.164959
-0.380803
0.0308923
-0.341272
-0.1127
-0.169099
0.0359129
-0.0351439
-0.119145
-0.462419
-0.0722052
-0.00286662
-0.469681
-0.0183982
-0.171004
-0.00271531
-0.224712
-0.448176
-0.0315996
-0.465278
-0.107138
-0.0020002
-0.1147
-0.0148739
0.191689
0.00784626
-0.174667
-0.111325
-0.00905455
0.00321787
0.204121
0.0158768
0.023739
-0.0979805
-0.131835
-0.192889
-0.239116
0.0213839
-0.126402
-0.033198
0.00838153
0.0159406
0.0180944
-0.416665
-0.0449284
0.0583668
-0.109122
-0.0187222
-0.0045173
-0.216081
0.0229781
-0.458116
-0.0756612
-0.170577
-0.321521
0.13711
-0.421051
-0.240152
-0.12512
-0.0582863
-0.370954
-0.0912349
-0.0350766
-0.0152642
0.0599128
-0.136324
-0.00309063
-0.18069
-0.0122087
-0.0449463
-0.471319
-0.452552
-0.311584
-0.0757824
0.19395
-0.411011
-0.461593
0.015609
-0.102906
-0.240677
-0.0537489
-0.167852
-0.437141
-0.101302
-0.0983925
-0.131917
-0.0165228
-0.374519
0.0187578
0.0238346
-0.412363
0.022597
-0.02278
-0.461642
-0.188055
-0.131404
-0.289421
-0.0866064
0.0373585
-0.0116095
-0.0559756
-0.46968
-0.420187
-0.357734
-0.217085
0.0352298
-0.438007
0.0250943
-0.355829
0.114858
-0.0691254
-0.171753
0.0113351
-0.440928
-0.461676
-0.037489
-0.214383
-0.0995589
-0.438028
-0.192667
-0.10189
-0.121042
-0.106345
-0.0570725
-0.114761
0.0244854
-0.112219
0.279195
-0.0491039
0.00608074
-0.115564
-0.198967
-0.0938174
0.00382058
-0.463067
-0.103375
0.0177853
-0.0262537
-0.144573
-0.140401
0.0203253
-0.00676713
-0.0120451
-0.186238
-0.463171
-0.226421
0.021098
0.0586448
-0.107855
-0.373467
0.0144285
-0.255637
-0.45708
-0.131638
-0.101269
-0.0840498
-0.428355
-0.408272
0.0119298
-0.445741
-0.00482582
-0.0455777
-0.114705
-0.145088
-0.296383
-0.114641
-0.101161
-0.130246
-0.137155
-0.0107888
-0.0298063
0.076994
-0.0983303
0.0519936
-0.387867
-0.0694956
-0.0304923
-0.00303019
-0.02062
-0.246341
0.022349
-0.0930817
0.0781823
-0.264131
-0.346853
-0.113089
-0.0429187
-0.363778
-0.405814
-0.270172
-0.0653062
-0.0121759
0.333062
-0.0260973
0.112458
-0.456183
0.00398243
-0.415017
-0.426001
0.0234829
-0.259722
-0.0126897
-0.129984
-0.000766496
-0.0412139
-0.399215
-0.0710152
-0.008685
-0.408812
0.188337
0.010395
-0.469003
0.0302082
0.0200165
-0.0985028
0.0434189
-0.130005
0.0793914
0.0348653
-0.100374
-0.406836
-0.155082
-0.225252
0.0110507
-0.429855
0.00614816
-0.0085811
-0.140337
0.00289874
0.0947498
-0.317955
-0.00835446
0.0272583
0.0567011
-0.437065
0.00989046
-0.00180049
-0.176501
-0.0194816
-0.00919206
0.0146679
-0.0550702
-0.373786
-0.1946
-0.175718
-0.242199
0.02967
0.196657
-0.025173
-0.342089
-0.118702
0.029693
-0.0828996
-0.294508
-0.00264306
-0.0531109
-0.287082
-0.0144309
-0.0581649
-0.307845
0.0032288
-0.0261532
-0.228062
0.0046732
-0.0449384
-0.449295
0.0125686
-0.166252
-0.111137
-0.467702
-0.370227
-0.0434523
0.0887392
0.0892875
-0.000967878
0.025182
0.0157536
-0.0400466
0.00930451
-0.0485471
-0.158559
-0.0231407
-0.0374857
-0.132537
-0.163498
-0.129191
-0.0109902
-0.233587
-0.0200893
-0.15014
-0.215498
-0.0802744
-0.131281
-0.168687
-0.288237
-0.457331
-0.0876071
0.0089392
-0.283133
-0.461875
-0.091935
-0.0166715
-0.161697
0.160735
-0.0397271
-0.058738
-0.138613
0.00367741
-0.0357983
0.0101183
-0.0316895
-0.075345
-0.0481623
-0.469338
-0.00874974
-0.461569
-0.000314114
-0.142783
-0.0512201
-0.184131
-0.161392
0.0238717
-0.213085
0.0869858
0.0121281
-0.14264
-0.0331877
0.0251677
-0.0445747
-0.0081126
-0.0383944
-0.179876
0.296172
-0.206046
-0.0266597
-0.0455384
-0.387314
-0.159677
-0.0506559
-0.0698941
-0.120315
-0.237614
-0.464427
-0.030566
-0.46219
-0.00936066
0.150293
-0.466014
-0.137009
-0.031783
-0.0463967
-0.144227
-0.00848107
-0.461231
-0.122453
-0.00565679
-0.149618
-0.324103
-0.053965
0.0211067
-0.0030526
-0.459843
0.0119127
-0.0225522
-0.278308
0.00836118
0.0105978
-0.178289
-0.0491613
-0.232094
-0.0262761
0.0226366
-0.0152319
0.106566
-0.0568931
-0.0501385
-0.157074
-0.267183
0.00602209
0.0273489
-0.353476
-0.0540612
-0.464715
-0.0608124
-0.464505
-0.0259649
0.0139856
-0.0191139
-0.0164307
-0.270347
-0.0252597
-0.0183029
0.116553
-0.00984503
0.0261849
-0.0115263
-0.00565148
-0.122797
-0.026573
-0.086608
0.016092
-0.356639
-0.0176488
-0.119601
-0.0200716
-0.296741
-0.381855
-0.0322615
-0.108841
-0.455336
-0.164711
-0.0720715
-0.0370422
-0.340812
0.075292
-0.152369
-0.275562
-0.375119
-0.0506981
-0.0893899
0.0862589
-0.0171252
0.0061031
-0.461693
-0.190954
-0.285382
-0.40952
-0.100997
-0.167014
-0.0394333
-0.0314951
-0.29971
-0.461478
-0.370268
-0.350346
-0.333623
-0.0197385
-0.462641
-0.0845309
-0.464115
-0.00188714
-0.464933
-0.465757
-0.387711
-0.17369
-0.227312
-0.133405
-0.129357
-0.355358
0.102327
-0.00522237
-0.442401
-0.214209
-0.0300603
-0.335063
0.00983003
-0.0168556
-0.158767
0.0783938
-0.435345
0.0607271
-0.462321
-0.108143
0.110019
-0.288828
-0.432268
-0.287757
0.0582932
0.0955222
-0.248731
-0.093072
-0.0176597
-0.200436
0.0164025
-0.341636
0.00208586
-0.360612
-0.0145441
-0.145973
-0.0562371
-0.05347
0.0752576
-0.267558
-0.469525
0.0238279
-0.0135608
-0.464281
-0.39598
-0.0699757
-0.0902766
0.00890147
-0.195583
-0.088962
-0.0232413
-0.296304
0.0384726
-0.00315856
0.22086
-0.0534885
-0.311244
-0.452917
-0.0180242
0.0103336
-0.0880574
0.00285249
-0.0833303
-0.0181182
-0.0600422
0.0900645
-0.00320335
-0.00453192
0.044032
-0.120684
-0.378324
0.00224336
-0.350898
-0.471493
-0.0255429
0.0408021
-0.283188
-0.244539
0.0293177
-0.206778
-0.115078
0.145783
-0.128245
-0.0525715
-0.00326116
-0.464832
-0.0746736
-0.101911
0.0328584
0.0296403
0.00489683
-0.17968
0.00410774
-0.185776
-0.130801
-0.220336
-0.00849457
-0.305856
-0.452377
-0.339869
-0.0199696
-0.335163
0.120824
-0.455562
-0.444814
0.0628537
-0.0176651
-0.323967
-0.32259
-0.111147
-0.163009
-0.133878
-0.00489475
-0.0381241
-0.0843241
0.00811036
0.0478098
-0.351769
0.00556209
0.171451
-0.0274867
-0.410134
-0.321095
-0.27478
-0.0589201
-0.343444
0.0409231
0.0153997
-0.445166
-0.0314669
-0.0323162
-0.0264871
-0.256624
-0.321313
-0.46469
0.0780471
-0.0522913
-0.0418498
-0.0541423
-0.221941
-0.00710419
-0.0413304
-0.409813
0.0147821
0.0233429
-0.13234
-0.122715
-0.0670298
0.0193281
-0.378371
-0.414252
-0.0466376
-0.238857
0.00551965
-0.320574
-0.312859
-0.0601216
-0.461768
-0.466473
-0.369196
-0.0269626
-0.0511503
0.0126504
0.0228886
-0.267649
-0.011443
-0.30115
-0.0715476
-0.461442
-0.0598426
-0.212076
-0.354541
-0.204168
-0.441885
-0.467109
-0.0264772
-0.100798
-0.102892
-0.068417
-0.0961938
-0.0309515
-0.0329308
-0.0491676
-0.133666
0.0313214
-0.0110361
-0.397171
-0.167568
-0.46161
0.00693365
-0.210722
-0.0567862
-0.199739
-0.0882777
-0.26005
-0.288348
-0.315859
-0.0874018
0.00159322
-0.0139707
-0.203249
-0.023036
-0.172077
-0.450928
-0.00323062
-0.0525226
0.117984
-0.453969
-0.0725287
-0.183312
-0.174321
-0.0442087
-0.367638
0.0107599
-0.140718
0.0136294
-0.40375
-0.432995
-0.33569
-0.0323012
-0.181448
-0.0348586
-0.420498
-0.0239687
-0.440217
-0.0353596
-0.23077
-0.0317608
0.00306315
-0.140076
0.0801688
0.0117991
-0.00626518
-0.0909409
-0.110279
-0.0107057
-0.142246
-0.0341893
-0.315302
0.0288816
-0.467224
-0.0449527
-0.112187
-0.0990064
-0.0245527
-0.238838
0.00348605
-0.456523
-0.137915
-0.0804925
0.0216532
-0.395127
-0.172483
-0.0360058
-0.31003
-0.424055
-0.331515
-0.0367515
-0.364962
0.0196581
-0.313275
-0.100498
-0.234498
-0.442035
-0.120746
0.153771
-0.326246
-0.16673
-0.007407
-0.0209145
-0.295975
-0.212443
-0.30142
0.233605
-0.00275166
-0.0289391
-0.277105
-0.404867
-0.100122
-0.450339
-0.0828521
-0.438781
-0.466276
-0.0101357
0.0795498
0.0171327
-0.0442048
-0.0310255
-0.226206
-0.0369006
0.055532
-0.46524
-0.00290175
-0.0158839
-0.106093
-0.320484
-0.118167
-0.0214963
-0.43924
-0.0817557
-0.107486
0.00489284
-0.469258
0.0574887
-0.395822
-0.00267976
-0.151633
-0.187045
0.0172702
-0.4647
-0.34767
-0.250675
-0.000144667
-0.0135391
-0.138054
-0.468227
-0.00968886
-0.0407896
-0.253617
-0.334962
-0.0485804
-0.00394884
-0.0223072
-0.316137
0.0877444
-0.104653
-0.0750539
-0.0962863
-0.176944
-0.245053
-0.338715
-0.0798322
-0.143146
-0.0318256
-0.251767
-0.2042
0.0215952
-0.00501142
-0.466773
-0.369446
-0.0144428
-0.466398
-0.46487
-0.443023
0.0741949
-0.0439819
-0.40624
-0.44398
-0.442205
0.00215589
-0.165283
0.0364607
0.00466635
-0.0302065
-0.406233
-0.191503
0.00494218
-0.209688
-0.240762
-0.198175
-0.250825
-0.450147
-0.153288
-0.0132303
-0.272142
-0.0403332
-0.389519
-0.103303
-0.176678
0.0467291
-0.0142582
-0.170457
-0.191501
-0.0417004
-0.127514
-0.115857
-0.00348216
-0.0653957
-0.143533
0.0225702
-0.122287
-0.347304
-0.0777827
0.0268586
0.280777
-0.181157
-0.0129501
-0.175282
-0.0457883
-0.129685
-0.0848556
0.0206349
-0.0248718
0.137926
-0.11654
-0.131615
-0.329423
-0.0028472
-0.0481922
-0.100866
-0.0278654
-0.439228
-0.357929
-0.106321
-0.0310195
0.0342225
-0.134968
-0.0340785
-0.456755
0.0301208
0.00986708
-0.0278362
-0.0014315
-0.437808
0.0385729
-0.162899
-0.08286
-0.0244479
-0.131374
0.141111
-0.154937
-0.156579
-0.462761
-0.105882
-0.421247
-0.156349
-0.445329
-0.121156
-0.012139
-0.0209637
-0.220365
-0.294763
-0.0180731
-0.0323374
-0.125194
-0.225189
-0.0566731
-0.460534
-0.212062
0.00857311
-0.427112
-0.0190266
-0.121468
0.0207057
-0.247629
-0.0164214
0.0137138
-0.189759
-0.135428
0.0210824
-0.0214312
0.10469
-0.188153
-0.430534
-0.0615405
-0.0254834
-0.315571
-0.186712
-0.421235
-0.229904
-0.231476
-0.0331704
-0.155699
-0.0424672
-0.463266
-0.009648
-0.128657
-0.20105
-0.453516
-0.031807
-0.00456554
-0.468328
-0.176937
-0.461811
0.153428
0.0185684
-0.183953
-0.263279
0.147826
-0.0682335
-0.124356
-0.409713
-0.0859469
0.0108768
-0.00865414
-0.379352
0.0529617
-0.234452
0.0360017
-0.0285613
-0.365528
-0.0964382
-0.0424688
0.00416878
-0.130949
-0.39905
-0.120428
-0.172156
0.073301
-0.233746
0.00829808
-0.306226
-0.136553
-0.180512
0.183505
-0.075856
-0.168552
0.113018
-0.0415375
-0.178
-0.462408
0.0118625
-0.0512303
-0.418229
-0.164815
0.00243516
0.0607013
-0.176857
-0.284279
0.119348
-0.124221
-0.416329
-0.0511785
-0.156685
-0.0305757
-0.106506
-0.233216
-0.44539
-0.141606
-0.0475006
-0.331061
-0.00759453
-0.322134
-0.0687224
-0.198872
0.0266709
-0.0334885
-0.356985
0.0150393
-0.00682081
0.0044194
0.0437444
0.0208485
-0.264415
-0.134733
-0.348692
-0.0927147
-0.355177
-0.00674664
-0.0307333
-0.168406
-0.00204662
-0.204613
-0.449357
-0.443935
-0.0368007
-0.146147
-0.00754542
-0.0137049
0.0697832
-0.230664
-0.18944
0.0224618
-0.068045
0.0226513
-0.123792
-0.220654
0.0978921
-0.154449
-0.103401
-0.206512
-0.10232
0.22229
-0.472071
-0.402019
-0.0931192
-0.0295616
-0.0445072
-0.0257439
-0.030636
-0.463568
0.00796594
-0.05547
0.0452558
-0.366678
-0.0893531
0.0094677
-0.426797
0.109032
0.0594514
0.00652368
-0.442673
-0.402289
-0.0952464
-0.0887701
0.0356096
-0.105413
-0.264655
-0.120703
0.0223358
-0.256331
-0.216857
-0.0820151
-0.0408074
-0.171494
-0.0307016
-0.329022
-0.252417
-0.121859
0.0083122
-0.369391
-0.0214663
-0.246769
-0.0696867
-0.366102
-0.0147204
-0.169368
-0.463869
-0.0762652
-0.240287
-0.093633
-0.180156
-0.405939
-0.205866
0.0725286
-0.456519
-0.0139459
-0.0163459
0.00609369
-0.0709255
-0.226474
-0.0084663
-0.0947335
0.259963
-0.271957
-0.109495
-0.0488611
0.0126132
-0.190341
-0.462631
0.105226
-0.420149
-0.278517
-0.101507
-0.130562
-0.203929
-0.151009
0.157073
-0.199917
-0.0275116
-0.0770889
-0.0522641
-0.428065
0.0170991
-0.121064
-0.027408
-0.166752
-0.126941
-0.187677
-0.25393
0.0740322
-0.367135
-0.0286122
0.0423311
0.0074377
0.0223955
-0.0843501
-0.00523984
-0.15393
-0.408473
-0.173931
-0.176461
-0.0876823
-0.0293977
-0.0526788
0.00758927
-0.189642
-0.312431
-0.467241
-0.121089
-0.120326
-0.0940292
0.0133777
0.044842
0.138156
-0.173449
-0.412559
-0.159825
-0.467218
-0.103719
-0.00146226
-0.0169926
0.0100089
-0.00490088
-0.126822
0.204991
-0.409295
-0.0736723
-0.302271
0.023832
-0.0678622
0.0372361
0.0318555
0.0212225
-0.130419
-0.0344969
-0.102025
0.167044
-0.165782
-0.138827
-0.253914
-0.227661
-0.369808
-0.0858408
-0.0694738
-0.049313
-0.125613
-0.000956774
-0.437515
-0.0415911
-0.118551
-0.411609
-0.107226
-0.0675317
0.00209322
-0.0963433
0.0119424
-0.0938313
-0.466935
0.00471181
-0.0359887
-0.421244
-0.0242629
-0.112489
-0.429036
0.0409738
-0.144537
-0.172915
-0.442736
0.129492
0.00257593
-0.0370107
0.244
0.0252797
-0.147793
0.0158108
-0.293271
-0.116548
0.238888
-0.461948
0.103077
-0.335173
-0.00540647
-0.465052
0.0352317
-0.101404
-0.0263906
-0.190115
-0.00241301
0.010692
-0.0171444
-0.320444
-0.2004
-0.0799495
0.12762
-0.0269605
-0.0194582
-0.0727742
-0.203181
-0.0958914
-0.388044
-0.255395
-0.295161
0.0146538
-0.319585
-0.353511
-0.32318
-0.0711553
-0.413554
0.00424986
-0.0306407
0.00192288
-0.453652
-0.0426268
0.0181981
-0.0343535
0.00761952
-0.351443
0.039465
-0.0427803
-0.204313
-0.0776352
-0.373979
-0.0317833
-0.328304
-0.0437976
0.200705
-0.461232
-0.209925
-0.000534787
-0.0876263
-0.218667
-0.0949887
-0.326035
-0.137465
-0.08179
-0.281515
-0.0260954
-0.054088
-0.471266
-0.120955
-0.0857859
-0.0688924
0.00669364
-0.0207842
-0.00322396
-0.0822743
0.0319264
0.00551093
-0.340744
-0.462463
0.104328
-0.462103
-0.0988135
-0.0805087
-0.45379
-0.466907
0.0473716
-0.466756
-0.467729
-0.0951896
-0.440727
-0.133649
-0.226871
-0.0673276
-0.45831
-0.443829
-0.430392
0.0594646
0.0633675
0.0399933
-0.0832821
-0.0115668
-0.365338
0.0125695
-0.462482
0.00909013
-0.223784
-0.027281
-0.177054
0.0598184
0.0824632
0.0232486
-0.00652112
0.0464115
-0.0771086
-0.057507
-0.0967507
-0.465396
-0.0899992
-0.316872
-0.0179123
0.060436
0.0936581
0.0326784
-0.0202829
-0.00535912
-0.358534
-0.197344
-0.301963
-0.457487
-0.0612427
-0.248503
0.0242277
-0.111516
-0.0110641
-0.0351429
0.0164521
-0.195662
-0.0275364
-0.090616
-0.34502
-0.0385543
-0.128984
0.0119167
-0.462507
-0.36527
-0.453241
-0.20683
-0.355016
-0.395787
-0.0825661
-0.411141
-0.0637661
-0.470837
0.023994
0.165241
-0.446002
-0.430882
0.0223487
-0.460442
-0.280358
-0.330348
-0.0268705
-0.176978
-0.45924
0.0061918
-0.463172
0.101086
-0.450579
-0.00473609
0.0455794
-0.243513
-0.0318924
-0.0866106
-0.240841
-0.0366363
-0.0488048
-0.0156922
-0.372661
-0.461308
-0.0994784
-0.0529118
0.0526049
0.00622741
-0.0470875
-0.139896
-0.185292
-0.271813
-0.444824
-0.133603
-0.0106509
-0.00953413
-0.300636
-0.45658
-0.394617
0.107588
-0.0386103
0.113786
-0.462379
-0.455506
-0.0313428
0.00150299
-0.462099
-0.0555474
-0.20007
0.0610465
0.00471172
-0.0667566
0.0802265
-0.341592
-0.460912
-0.00308245
-0.0369848
-0.075465
-0.0449965
-0.455451
0.0158002
-0.309364
-0.44142
-0.0309754
-0.0277425
-0.0421259
-0.46224
0.0237025
-0.462173
-0.459141
-0.0763812
-0.0843667
-0.0731292
0.312556
-0.412055
-0.10042
-0.00121645
-0.45927
-0.434124
-0.0262387
-0.269745
-0.336604
-0.129542
-0.377742
-0.454712
-0.324357
-0.44331
-0.0945098
0.0758496
-0.0734463
-0.342603
-0.450739
-0.44737
-0.458049
-0.383409
-0.0339013
-0.134191
-0.0054041
-0.00110742
0.0116071
-0.00208156
0.0176005
-0.0274666
-0.0999603
-0.419699
-0.469327
-0.0245804
-0.354357
0.174779
-0.0203304
-0.00968995
-0.331942
0.0148602
0.0119538
-0.0360797
0.0198317
-0.0348951
-0.0713288
-0.0115553
-0.32613
-0.0977297
-0.023123
-0.0345065
-0.3955
-0.0292339
-0.464189
-0.351021
-0.0305399
-0.18953
-0.0310879
-0.0719793
-0.0464102
-0.243868
-0.142226
-0.00231863
-0.375795
-0.139565
-0.00251455
-0.037241
0.02249
-0.0600579
0.0146173
-0.411699
-0.441677
-0.464424
-0.0948209
-0.461329
0.0163958
-0.100961
-0.0521217
-0.291627
0.0388042
-0.221274
-0.0156708
0.00803569
-0.299623
-0.4712
-0.105737
-0.0158817
-0.178949
-0.0225012
-0.384401
-0.02717
-0.0430308
-0.0900086
-0.10356
-0.0176375
0.0004039
0.0487309
-0.360773
0.0453186
-0.0475353
-0.0871464
-0.0198805
-0.156648
0.0133907
-0.45999
-0.012404
-0.078651
-0.264771
-0.462633
-0.0357432
-0.431929
-0.0291562
-0.000293941
-0.0676274
-0.123449
-0.325849
-0.0191196
-0.110957
-0.0718702
-0.202139
-0.123457
0.0159113
0.0150131
-0.0101192
-0.361368
-0.281134
-0.462458
-0.0935587
-0.0268815
0.014295
-0.462045
-0.179131
-0.0278458
-0.317287
-0.0399131
-0.125329
-0.135787
-0.138253
-0.048566
0.00860782
-0.0086044
-0.0947116
-0.244284
-0.3292
-0.0303436
-0.033276
-0.445495
-0.00951781
-0.0227144
0.108361
0.0988652
-0.0961377
0.00864547
-0.00512884
-0.125707
0.102118
-0.467709
-0.211098
0.00996331
-0.0800721
0.0268846
-0.0124806
-0.461523
0.28997
-0.0178765
-0.0538879
0.0119753
-0.219765
0.0809463
0.0149896
-0.110444
-0.467185
-0.0394479
-0.161142
0.0102688
-0.215627
0.0233601
-0.0400311
-0.462823
-0.347776
-0.336116
0.00595024
-0.276302
-0.036284
0.0139861
-0.0886716
-0.193392
-0.198008
-0.112635
-0.294104
-0.070617
-0.120456
0.225594
0.164752
-0.046167
-0.0286838
0.0512914
-0.0274917
-0.0784469
0.00109757
-0.306696
-0.455207
-0.0484734
0.0358121
0.0575113
-0.0379668
-0.194999
-0.402191
-0.462169
-0.129822
0.0569197
-0.145428
-0.430806
-0.296762