/*--------------------------------*- C++ -*----------------------------------*\
| =========                 |                                                 |
| \\      /  F ield         | OpenFOAM: The Open Source CFD Toolbox           |
|  \\    /   O peration     | Version:  v2012                                 |
|   \\  /    A nd           | Website:  www.openfoam.com                      |
|    \\/     M anipulation  |                                                 |
\*---------------------------------------------------------------------------*/
FoamFile
{
    version     2.0;
    format      ascii;
    class       surfaceVectorField;
    location    "500";
    object      ddtCorrDdt0(Uf);
}
// * * * * * * * * * * * * * * * * * * * * * * * * * * * * * * * * * * * * * //

dimensions      [0 1 -2 0 0 0 0];


internalField   nonuniform List<vector> 
20580
(
(0.00618864 0.000589501 6.26826e-18)
(0.00636822 0.00061406 2.10039e-17)
(0.00618015 0.000708021 -1.66852e-17)
(0.00161816 -0.000267225 -9.852e-18)
(0.00162561 -0.000294434 -3.2728e-18)
(0.0016646 -0.000271129 4.39237e-18)
(0.00160968 -0.000225196 -4.32882e-18)
(0.00156689 -0.000251495 -5.64893e-19)
(0.000314621 -1.90664e-06 -1.55112e-17)
(-3.29375e-05 3.89657e-05 -3.01664e-17)
(0.000280121 -2.4267e-06 -1.14853e-17)
(4.01237e-05 -9.8321e-06 -3.2015e-19)
(3.60837e-05 -9.12147e-06 1.02573e-18)
(3.75639e-05 -5.40329e-06 -1.61775e-18)
(0.00180158 -0.000628979 -7.05924e-18)
(0.00177794 -0.000672909 1.77493e-18)
(0.00174247 -0.000631504 -2.49807e-17)
(0.00127992 0.000934282 2.4652e-18)
(0.00129513 0.000979129 -6.20464e-19)
(0.000210916 -8.79253e-06 -1.15137e-18)
(0.000207964 -9.53327e-06 -5.17914e-19)
(0.000204702 -6.09858e-06 -3.63523e-18)
(-0.0190896 -0.00149309 -1.17081e-17)
(-0.0192142 -0.00143988 9.86113e-18)
(-0.0187373 -0.00139742 -4.0197e-18)
(4.50133e-05 -0.000447783 2.53231e-18)
(4.10148e-05 -0.000437518 -1.93033e-18)
(4.48074e-05 -0.000432382 1.71629e-18)
(0.00226687 -0.0022844 -9.18909e-18)
(0.00222219 -0.00221827 4.89286e-18)
(0.00218487 -0.00228412 -1.68721e-17)
(5.71581e-05 -0.000184653 -4.31125e-20)
(6.18616e-05 -0.000189724 1.97945e-20)
(6.11168e-05 -0.00019416 1.12363e-20)
(0.000112322 -0.000660571 -6.96562e-19)
(0.000118641 -0.000669263 -4.33647e-18)
(0.000118861 -0.000653173 -1.84032e-18)
(-0.0161931 -0.00143193 7.20054e-19)
(-0.016179 -0.0013459 2.34195e-17)
(-0.0160094 -0.00146123 -3.94696e-18)
(0.00302818 0.000544119 7.96722e-18)
(0.00309579 0.000526378 4.78843e-18)
(0.0030248 0.000472124 2.90182e-18)
(0.00351868 0.00448612 6.0995e-18)
(0.00343647 0.00452205 -1.69395e-17)
(0.00366046 0.00456595 4.08924e-18)
(0.000196401 -0.00043541 -9.2669e-18)
(0.000729299 -0.000408919 1.02683e-17)
(0.00038515 -0.000453186 -1.68482e-17)
(0.000716511 -0.00018953 -2.06575e-18)
(0.000735606 -0.000186411 -2.74154e-18)
(0.00073291 -0.000206144 1.93095e-18)
(0.00933357 -0.000961375 -1.2027e-17)
(0.00937695 -0.000692546 9.4022e-18)
(-0.00139205 -0.000356334 -4.91631e-17)
(0.00618642 0.000412473 8.88316e-18)
(0.00601341 0.000553007 -1.60169e-17)
(0.0033856 4.81799e-05 5.8189e-18)
(0.00330636 2.63253e-06 8.30479e-18)
(0.003298 9.75822e-05 1.11481e-17)
(0.000927702 -0.00123792 1.65686e-18)
(0.000894017 -0.00123053 -6.81217e-19)
(0.000910131 -0.00120158 2.4974e-19)
(-0.0104332 0.000700696 -7.10623e-17)
(-0.00726985 0.000989202 -6.05863e-17)
(-0.00789822 0.00148855 -1.14704e-17)
(1.10942e-06 -3.91313e-06 -5.41467e-20)
(1.81021e-06 -5.10806e-06 -4.16384e-19)
(1.10968e-06 -3.27593e-06 3.95135e-19)
(-0.0247374 -0.000381397 -5.48552e-19)
(-0.0245674 -0.000259321 -1.70558e-17)
(-0.0235612 -0.000547951 -6.83373e-18)
(0.00306152 0.00298894 -1.00047e-17)
(0.00307741 0.00307276 2.0883e-18)
(0.00315622 0.00302061 -1.37879e-17)
(0.00750484 0.00525575 -3.39592e-17)
(0.000946234 0.00411652 -3.70244e-18)
(0.00275217 0.00470305 -1.69921e-17)
(-0.0267517 -0.00459969 3.00975e-19)
(-0.0268592 -0.00474458 3.89311e-17)
(-0.0267717 -0.00469346 2.07238e-17)
(-0.0214908 -0.00076483 1.05694e-18)
(-0.0211351 -0.000778202 -4.18962e-18)
(-0.0210528 -0.000815362 -2.27057e-19)
(0.000394518 -0.000128389 1.86151e-19)
(0.000390915 -0.000138067 9.01033e-19)
(0.00038157 -0.000128024 -4.55849e-19)
(-0.00217457 -0.000415265 -5.62888e-17)
(-0.00180159 -0.00040761 -2.41103e-17)
(-0.0024655 -0.000447269 -6.00617e-17)
(0.00131252 0.000917746 6.13706e-18)
(0.00126208 0.000901634 8.25197e-18)
(0.00615154 0.00116531 3.36303e-18)
(0.00611497 0.00133379 -2.7878e-17)
(0.00596903 0.00115772 -3.21514e-17)
(-0.0190988 -0.00319952 -6.80579e-18)
(-0.0187778 -0.00319229 3.59936e-18)
(-0.0201645 -0.00336906 5.7631e-18)
(0.00207201 -0.00177791 2.83078e-18)
(0.0021288 -0.00175328 6.1072e-18)
(0.00209728 -0.00182458 -8.28615e-18)
(-0.0212335 -0.000534709 -1.43388e-18)
(-0.0216466 -0.000457391 8.55482e-18)
(-0.0212521 -0.000458465 2.52436e-17)
(3.55899e-07 -2.56437e-06 1.9422e-18)
(1.10233e-06 -4.68745e-06 -9.21156e-19)
(-0.0223593 0.00139585 7.45067e-18)
(-0.0212062 0.00118786 -9.39912e-18)
(-0.0210297 0.000990312 5.61744e-18)
(-0.00491664 -0.000919245 1.652e-17)
(-0.00515153 -0.000980971 -3.46348e-17)
(-0.00576932 -0.000961803 -1.99651e-17)
(0.000391921 -0.00063473 -1.94107e-19)
(0.000393555 -0.000619612 -1.14015e-18)
(0.000406677 -0.000636207 -2.20347e-19)
(-0.0129609 -0.00306312 4.40875e-19)
(-0.0139762 -0.00327134 -4.35824e-18)
(-0.0133209 -0.0031224 -8.63229e-18)
(-0.0218342 -0.00076598 -4.20683e-19)
(-0.021905 -0.000694036 -7.01844e-18)
(0.00139419 -0.000240021 8.0414e-18)
(0.00138368 -0.000218399 3.68194e-17)
(-5.32227e-05 -0.00341759 -1.41155e-17)
(-0.000456713 -0.00342999 -1.9767e-17)
(-0.000235406 -0.00352053 -8.2266e-18)
(-0.022417 -0.00090976 3.00445e-18)
(-0.0223295 -0.000933176 4.37726e-18)
(-0.0218593 -0.000955081 -2.06354e-18)
(0.000374419 -0.000352706 -3.00528e-18)
(0.000364244 -0.000357119 -1.85467e-19)
(0.000362414 -0.000342301 1.05869e-18)
(0.000178783 2.88237e-05 1.57903e-18)
(0.000175274 2.23746e-05 2.93702e-19)
(0.00441648 0.00405219 5.09448e-18)
(0.00437647 0.00416795 -4.2349e-18)
(0.00431796 0.00405115 8.51764e-18)
(0.00101209 -0.000855682 -3.49041e-18)
(0.000982889 -0.000825267 4.97931e-18)
(0.00102351 -0.000828674 -2.24515e-18)
(0.000106771 -0.000649544 5.25026e-19)
(0.000105141 -0.000664502 -2.22246e-20)
(-0.0024286 -0.000866273 1.09647e-17)
(-0.002542 -0.000858987 -2.3096e-17)
(-0.00181581 -0.00076451 4.21947e-17)
(6.17178e-05 -0.000714977 2.58654e-18)
(6.36759e-05 -0.00070235 1.4968e-18)
(7.16824e-05 -0.000716956 -1.3878e-17)
(0.00357457 0.00445343 5.58198e-18)
(0.00352986 0.00442626 1.11404e-17)
(0.00204807 0.0014442 5.93832e-18)
(0.00210838 0.00147327 1.62152e-18)
(0.00205228 0.00151087 -2.53566e-18)
(-0.0177828 -0.00101619 2.4103e-18)
(-0.0176222 -0.00106395 1.86833e-17)
(-0.0176892 -0.00102347 -7.09682e-18)
(0.000392985 -0.000647789 6.34293e-19)
(0.000379432 -0.000633568 1.96668e-19)
(0.00634885 0.00118148 9.5781e-18)
(0.0061726 0.00102058 5.57527e-18)
(-0.0125434 -0.00299644 1.03262e-17)
(-0.0121245 -0.00276321 4.61888e-17)
(0.00595939 0.00592875 5.994e-18)
(0.00101725 0.00548263 4.23235e-18)
(-0.000744266 0.00510465 -6.80594e-18)
(-0.0113331 -0.00128931 -1.55457e-17)
(-0.0116243 -0.00133599 7.93115e-18)
(-0.0114329 -0.00148925 9.17383e-18)
(5.27788e-05 -0.00017925 4.62218e-20)
(5.3534e-05 -0.00017535 -2.43924e-20)
(0.0112178 0.00511619 2.87728e-19)
(0.0111273 0.00492955 -2.00716e-17)
(9.18268e-06 -0.000296361 -2.74218e-19)
(1.18922e-05 -0.00029614 1.14255e-18)
(1.13538e-05 -0.000311903 -8.76514e-19)
(0.000997533 -0.000873328 -3.92783e-18)
(0.00103418 -0.000874705 2.51792e-18)
(-3.01412e-05 -0.0021451 1.36595e-18)
(7.18352e-06 -0.00218604 2.29768e-18)
(1.04709e-05 -0.00212878 5.32681e-19)
(-5.75788e-05 -0.00210479 5.71527e-19)
(-7.01668e-05 -0.00217489 1.30556e-18)
(-0.0110184 -0.00122714 -2.76045e-17)
(-0.0107223 -0.00114315 -7.59527e-18)
(4.64432e-05 -0.00157216 -1.75799e-17)
(5.14444e-05 -0.0015847 -3.16499e-17)
(0.000583416 -0.000598327 -1.23894e-18)
(0.000567902 -0.000604843 -1.74758e-19)
(0.00056578 -0.000584139 -5.37686e-19)
(-0.000764207 -0.00014071 2.96763e-17)
(-0.000310997 -0.000169085 1.70291e-18)
(-0.000536173 -0.000169263 1.0521e-17)
(-0.00164984 -0.000539502 -1.07114e-17)
(-0.00124283 -0.000523074 4.28358e-17)
(-0.00168002 -0.000517059 1.6592e-17)
(0.00371149 -6.12326e-06 1.53735e-17)
(0.00369507 -0.000105561 -4.40098e-17)
(0.00380922 -6.89801e-05 -1.7521e-17)
(0.000206558 -0.000570787 -9.44516e-19)
(0.00019978 -0.000574955 -1.95433e-18)
(0.000211285 -0.000585462 -5.01174e-19)
(-0.0118731 -0.00137174 -5.9448e-18)
(-0.0115328 -0.00116906 -1.83134e-17)
(0.00240335 0.0013311 1.04253e-19)
(0.00237027 0.00126996 -8.6523e-19)
(0.00244037 0.00127837 -4.58611e-18)
(0.000722858 -0.00104203 1.02798e-18)
(0.000660661 -0.00102573 -1.04602e-18)
(0.000710868 -0.00097764 2.82443e-18)
(-5.02668e-05 -0.000427811 7.40817e-18)
(-0.000297489 -0.000434773 7.11131e-18)
(0.000342034 -1.38856e-05 -1.88017e-18)
(0.000344394 -2.17062e-05 8.67757e-19)
(0.00035484 -1.44846e-05 -2.92694e-18)
(-0.0247581 -0.000563856 3.92571e-17)
(-0.0261145 -8.25741e-05 -2.59276e-17)
(0.000204266 -0.00034029 4.84198e-21)
(0.00019529 -0.000330834 -2.82358e-19)
(0.000194961 -0.000340759 -8.11766e-20)
(0.000603299 -0.000595526 -1.92057e-19)
(0.000596299 -0.000618206 -3.25644e-18)
(0.00439797 -0.00359733 6.46189e-18)
(0.00455392 -0.00355748 4.28907e-17)
(0.004076 -0.00377917 5.58551e-17)
(0.00204143 -0.001737 -4.14992e-18)
(0.00200629 -0.00178114 -1.05198e-17)
(-0.0154532 -0.00143206 6.18131e-18)
(-0.0158184 -0.00140424 -6.399e-18)
(-0.0155927 -0.00171131 -6.63067e-18)
(-0.0121257 -0.00137999 1.51945e-17)
(-0.0119735 -0.00156415 6.98864e-18)
(-0.00166544 -0.000469169 2.00665e-17)
(-0.00184617 -0.000488814 4.64576e-17)
(-0.00226436 -0.000472171 3.9721e-17)
(0.000948323 -0.00127214 4.40554e-18)
(0.000963298 -0.00123965 3.47871e-18)
(-0.0188424 -0.000896516 -1.13274e-18)
(-0.0181137 -0.000866455 1.34179e-18)
(-0.0190123 -0.000842081 -9.59866e-19)
(7.40456e-05 -0.000464177 -9.07854e-19)
(7.80361e-05 -0.000459362 1.49051e-18)
(7.08872e-05 -0.000449837 -2.84561e-18)
(-0.00239612 -0.000395939 -5.83725e-18)
(-0.00181859 -0.000412545 -5.07975e-18)
(5.9554e-05 -0.00072963 8.14624e-18)
(5.43e-05 -0.000713237 -2.43068e-18)
(0.00134622 0.000899754 1.61001e-18)
(0.00135806 0.000940331 -7.53394e-18)
(-0.00017717 -0.000535005 -5.68394e-18)
(-0.000233258 -0.000511382 3.05798e-17)
(-0.00147051 -0.000440237 2.05193e-17)
(-0.0011539 -0.000442488 4.523e-17)
(-0.00543398 -0.00154437 1.17039e-17)
(-0.00506689 -0.00144383 2.35983e-17)
(-0.00477579 -0.00138048 2.22439e-17)
(0.000407726 -0.00288767 2.50917e-17)
(0.000316194 -0.00265664 7.6798e-18)
(0.000230719 -0.00248282 2.23122e-17)
(0.000318038 -0.00040117 2.66944e-18)
(0.000308952 -0.000403983 -1.20532e-19)
(0.000324435 -0.000414424 2.11574e-19)
(0.00402105 0.00435871 -1.33763e-18)
(0.00391782 0.00439242 -3.83539e-18)
(0.00393891 0.00429012 2.94952e-18)
(-0.00502276 -0.00105354 -1.5348e-17)
(-0.00515092 -0.00104703 -1.44456e-17)
(-0.00456881 -0.000916224 -3.36655e-17)
(0.00154444 -0.00307506 2.01556e-17)
(0.00155173 -0.00313766 1.03544e-17)
(0.00148973 -0.00309082 1.60822e-17)
(0.00416274 0.00435307 9.05589e-18)
(0.00432453 0.0044723 -2.15896e-17)
(8.48935e-05 -0.00151201 -7.85051e-18)
(6.73238e-05 -0.0015032 1.2688e-17)
(7.84276e-05 -0.00148386 -7.73006e-18)
(0.00011579 -0.00156549 -1.3734e-17)
(0.000101764 -0.0015376 2.89331e-17)
(8.76976e-05 -0.00156863 2.31823e-17)
(0.000194241 -0.000633259 -2.24633e-18)
(0.00020211 -0.000627562 1.82314e-18)
(0.000207098 -0.000646257 -7.87503e-19)
(0.000415896 -0.000328993 -8.5477e-19)
(0.000429272 -0.000338634 1.5789e-18)
(0.000423509 -0.000323891 -1.22215e-19)
(0.00343992 -0.000582883 -8.83673e-19)
(0.00342257 -0.000648899 2.41979e-17)
(0.00351179 -0.000604335 1.5459e-17)
(0.000400872 -0.000317502 4.15208e-18)
(0.000403978 -0.000335447 3.31109e-18)
(-0.00162605 -0.000534687 3.04294e-17)
(-0.00211272 -0.000534961 -1.27423e-17)
(0.00132533 0.000859253 -4.87091e-18)
(0.0013797 0.000876545 -8.61269e-18)
(0.000698348 -0.000194006 3.5747e-18)
(0.000700018 -0.000175633 -1.69875e-18)
(0.000779821 -0.00150976 9.2133e-19)
(0.000794913 -0.00154864 -1.41859e-18)
(0.00075666 -0.00152582 -1.58368e-19)
(0.000386872 -0.000349873 9.96461e-18)
(0.000391275 -0.000366304 -3.81094e-18)
(0.00396998 -0.00298113 1.12496e-19)
(0.00411545 -0.00298909 -8.11063e-18)
(0.00395129 -0.00313801 9.23918e-18)
(0.00311587 -0.00186845 -1.367e-17)
(0.00310392 -0.0018047 -4.97621e-18)
(0.00304213 -0.00185163 -6.47049e-19)
(0.00585615 0.00221795 -6.9268e-18)
(0.00579788 0.00233941 1.30404e-17)
(0.00599264 0.00232512 -5.02145e-18)
(0.00199031 0.00141409 1.75991e-19)
(0.00203944 0.00137975 6.00356e-18)
(0.000258403 -9.69047e-05 -2.92351e-18)
(0.000257451 -0.000101629 -1.24878e-18)
(0.000266629 -0.00010028 -2.13822e-19)
(0.00021452 -7.11693e-06 -3.5047e-18)
(0.000213435 -1.10356e-05 -4.54364e-18)
(0.000661572 -4.62956e-05 -4.25847e-17)
(0.000385457 2.47051e-05 1.54567e-18)
(-0.00109652 -0.000131067 6.56593e-17)
(-0.00134886 -0.000131494 1.54998e-17)
(0.000489715 -0.00268733 5.18475e-17)
(0.000462106 -0.00267546 2.07534e-17)
(0.000512376 -0.00272194 -9.15713e-18)
(0.00058012 -0.00015666 -5.40335e-18)
(0.000559939 -0.000160373 -8.21411e-18)
(0.000562916 -0.000145862 -8.19914e-20)
(0.000506708 -0.0006157 -3.9494e-19)
(0.000524039 -0.000620902 1.92707e-18)
(0.000515957 -0.000636369 -4.26115e-18)
(-0.0134752 -0.00198603 1.12134e-17)
(-0.0137235 -0.00215595 -1.13487e-17)
(-0.0132351 -0.00202224 8.70507e-18)
(0.00477568 -0.00150279 -2.37805e-18)
(0.00552312 -0.0012865 4.37979e-17)
(0.00795484 -0.00136409 1.84142e-17)
(5.4168e-05 -0.0016902 3.54628e-18)
(5.16611e-05 -0.00168287 2.36593e-17)
(4.05762e-05 -0.00169827 1.91173e-17)
(0.000327885 -0.000397409 5.25802e-19)
(0.000310363 -0.000389029 -1.04782e-18)
(0.00148593 -0.00226797 -2.60928e-18)
(0.00151747 -0.00222637 2.40437e-17)
(0.00145467 -0.00222145 -7.19594e-18)
(-0.0156551 -0.00282062 -9.1615e-18)
(-0.0149857 -0.00284327 -2.49604e-17)
(-0.015495 -0.00300353 -3.46738e-18)
(0.00361562 0.000488698 -5.46467e-18)
(0.00369428 0.000498656 -3.12288e-17)
(0.00362124 0.000412045 -9.98655e-18)
(0.00086418 -0.00122171 -6.1923e-19)
(0.00086698 -0.00125224 3.78473e-18)
(0.00183828 -0.00127175 6.65788e-18)
(0.00189307 -0.00124289 -1.39002e-18)
(0.00182733 -0.00122476 -7.40342e-18)
(-0.0232472 0.00162245 -7.84627e-18)
(-0.0233095 0.0014618 3.42096e-17)
(-0.0195675 -0.00313615 9.90609e-18)
(-0.0184461 -0.00302486 -1.81403e-17)
(0.00230353 -0.00233899 8.48508e-18)
(0.00232836 -0.00227935 -1.33588e-17)
(-0.00503663 -0.00134587 1.87526e-17)
(-0.00453542 -0.00132698 -9.72432e-18)
(-0.0042877 -0.00126087 3.81791e-17)
(4.50214e-05 -0.001564 2.46083e-17)
(-0.00193259 -0.00050485 6.01709e-18)
(-0.00147135 -0.000490642 5.28317e-17)
(0.000112826 -0.00140821 -1.35245e-17)
(0.000103539 -0.00141963 -9.18521e-18)
(0.000100624 -0.00139926 2.27217e-18)
(0.00358188 0.000676742 -4.9673e-18)
(0.00349577 0.000707169 -7.22823e-18)
(0.00358949 0.000780589 6.04017e-18)
(0.00418487 -0.00372476 -6.02945e-17)
(0.00377014 -0.00345477 -5.96018e-17)
(0.000250944 -0.000891169 2.5091e-18)
(0.00024131 -0.000876132 2.97196e-18)
(0.000253864 -0.000870865 5.39105e-18)
(7.11739e-05 -0.000468874 1.68415e-18)
(7.79168e-05 -0.00047855 -4.70677e-18)
(2.7139e-05 -0.00177425 9.40181e-18)
(9.22124e-06 -0.00178825 6.44422e-18)
(2.76715e-05 -0.00180684 -4.1467e-18)
(-0.0249399 -0.00371849 -4.38741e-17)
(-0.0243284 -0.0034601 -3.12353e-17)
(-0.0246864 -0.00372328 1.7688e-17)
(0.000582361 -0.00100134 1.30908e-18)
(0.000586396 -0.00102124 -2.33854e-18)
(0.000564377 -0.00101276 5.50507e-19)
(0.000339373 -5.7677e-06 -1.18162e-18)
(0.000329964 -1.34484e-05 2.1195e-18)
(-0.0012542 -0.000422203 -4.9306e-17)
(-0.019264 -0.000820364 2.7543e-18)
(-0.0192654 -0.000840487 -2.01243e-19)
(-0.0188303 -0.000727907 1.51495e-17)
(0.00147178 -0.00230386 3.33156e-18)
(0.00153084 -0.00230072 7.45648e-18)
(0.00423113 0.00426826 6.19106e-18)
(0.00427482 0.00439047 -1.21741e-17)
(0.00382236 -0.00298438 3.24229e-17)
(0.00392296 -0.00287121 -3.46949e-17)
(0.00311788 -0.00193237 -1.75287e-19)
(0.00318524 -0.00189033 -4.03404e-18)
(0.00575532 -0.00106207 -2.19546e-17)
(0.00609044 -0.000894543 -1.96184e-17)
(0.00516949 -0.00128779 2.96175e-17)
(0.000115511 -0.000755168 -3.79832e-18)
(0.000124599 -0.000755438 1.54721e-18)
(0.000123031 -0.000772667 -7.29311e-19)
(5.32534e-05 -0.000576461 3.21219e-18)
(4.23065e-05 -0.000579465 2.04015e-18)
(4.54926e-05 -0.000564347 6.68224e-18)
(4.67033e-05 -0.00014376 -1.27802e-19)
(4.65346e-05 -0.000148138 -5.93563e-21)
(4.18703e-05 -0.000137867 -4.45809e-20)
(-0.00464414 -0.000850728 2.411e-17)
(-0.00421445 -0.000812191 2.95269e-17)
(0.00339367 0.00059664 2.22894e-18)
(0.00342155 0.000665946 2.94574e-18)
(0.00335323 0.000651541 -4.3451e-18)
(0.00139848 0.000520105 5.72593e-18)
(0.00142217 0.000543754 -4.50749e-18)
(0.00144029 0.000510483 -1.52696e-18)
(2.38879e-06 -9.3699e-06 -6.30827e-20)
(2.49635e-06 -8.18786e-06 5.05255e-19)
(3.70895e-06 -1.10355e-05 -5.76106e-19)
(-0.0211967 -0.000652604 4.44211e-18)
(-0.0211695 -0.000725332 -1.41102e-18)
(-0.0215812 -0.000628644 9.09728e-18)
(0.00348905 -0.000495435 5.48406e-18)
(0.0033651 -0.000534508 -1.89788e-18)
(0.00440914 0.00395236 -1.55419e-17)
(0.0045322 0.00404884 7.77413e-18)
(-0.0161923 -0.00145928 -6.18259e-18)
(-0.0163705 -0.00136374 -2.73756e-18)
(-0.0207965 -0.00141856 -4.71558e-18)
(-0.0203153 -0.00140854 -8.8122e-18)
(-0.0208867 -0.00139505 3.05322e-18)
(-0.0205955 -0.00144302 1.08317e-17)
(-0.021395 -0.00146466 -1.81876e-17)
(-0.00226632 -0.000854766 -7.41246e-18)
(-0.0027511 -0.000953076 -2.62197e-17)
(0.000805205 -0.001489 2.77976e-18)
(0.000766936 -0.00147164 -1.16248e-18)
(-0.0247388 -0.00364963 3.37886e-17)
(-0.024937 -0.00353596 3.40615e-17)
(-0.0231698 -0.00350541 -2.7514e-18)
(4.84312e-05 -0.000173909 1.72476e-19)
(4.44924e-05 -0.000168345 1.4536e-19)
(4.46541e-05 -0.000164121 3.87161e-20)
(0.000260371 -9.0906e-05 -4.09933e-18)
(0.000250643 -9.19804e-05 1.03657e-18)
(0.00371942 -0.00100529 -1.9948e-17)
(0.00367347 -0.0010833 -2.01445e-17)
(0.00362679 -0.00100608 -1.36133e-17)
(2.19815e-05 -7.13028e-06 -1.0807e-19)
(1.99168e-05 -9.10208e-06 5.48835e-19)
(1.86266e-05 -5.9721e-06 -3.68001e-19)
(-0.00572599 -0.00161932 4.33214e-17)
(-0.00616079 -0.00164164 1.86124e-17)
(-0.00131474 0.00221659 4.56311e-18)
(0.0082739 0.00374826 8.68928e-18)
(0.00146856 0.00248818 1.1481e-17)
(0.00505956 0.00409058 -7.05511e-18)
(0.0051581 0.00402418 -4.67353e-18)
(0.00527996 0.0041758 -2.37416e-18)
(0.000262617 -8.57568e-05 -7.71848e-19)
(0.000270062 -8.99048e-05 4.2518e-19)
(0.00232435 0.00142381 1.52711e-18)
(0.00236684 0.00137469 5.94764e-18)
(0.00229258 0.00136567 1.06097e-17)
(0.00492502 0.00419781 -5.26582e-18)
(0.00490608 0.00400193 3.0734e-19)
(0.00454744 -0.0018457 -1.60144e-17)
(0.00450332 -0.00169418 -7.45636e-18)
(0.000773187 -0.00274345 3.54469e-18)
(0.000835974 -0.00147354 -9.86917e-19)
(0.00083417 -0.00143766 -3.19673e-18)
(0.000866766 -0.0014556 -2.57054e-18)
(0.00360186 0.000601696 1.82045e-17)
(0.00350489 0.000510351 7.09685e-18)
(0.000993975 -0.000292278 -2.46997e-17)
(0.000998798 -0.000314365 -2.24113e-17)
(-0.0195629 -0.000885673 1.05779e-17)
(-0.0192109 -0.000780937 1.95214e-18)
(0.00605081 0.00146675 -9.94176e-19)
(0.00625568 0.00147372 -3.33724e-18)
(0.000131634 -0.00128313 5.65353e-18)
(0.000121378 -0.00128067 -6.58346e-18)
(0.000128978 -0.00129821 2.56253e-18)
(0.000137859 -0.000728464 1.93496e-18)
(0.000128708 -0.000726619 2.12009e-18)
(0.000131679 -0.000712791 -4.22841e-18)
(0.000387084 -0.000217106 -2.06178e-18)
(0.000392521 -0.00022868 -2.37158e-19)
(0.000402991 -0.000219098 -2.2588e-18)
(-0.0256978 -0.00358941 3.69452e-18)
(-0.0258669 -0.00390979 -1.18192e-17)
(0.00341428 0.000528855 -2.80966e-18)
(0.00332636 0.000531987 -6.90585e-18)
(-0.0159664 -0.00134233 1.75715e-17)
(-0.0161671 -0.00120095 5.12465e-17)
(0.00181077 -0.00057643 -8.28246e-18)
(0.0018549 -0.000617296 -6.90037e-19)
(0.00057722 -0.000977071 8.68882e-19)
(0.00060119 -0.000989205 -8.94035e-20)
(0.00380715 0.00441374 -1.87558e-17)
(0.00372206 0.00443495 -3.6957e-19)
(0.00375297 0.00435231 6.19743e-18)
(0.00600028 0.0015507 2.69824e-17)
(0.00590601 0.00142398 1.86805e-17)
(0.000927961 6.644e-05 2.74804e-19)
(0.000956281 5.97927e-05 1.33228e-18)
(0.000934106 4.1979e-05 7.70143e-20)
(0.000898751 -0.000350356 2.93146e-18)
(0.000870848 -0.000352471 -8.70131e-18)
(0.000881209 -0.000331667 -1.20879e-18)
(4.39618e-05 -0.00159647 -1.20428e-17)
(5.50726e-05 -0.0016025 -1.27951e-17)
(3.84564e-05 -0.00162574 2.28543e-17)
(0.00398817 -0.00380051 -2.96077e-18)
(0.00379155 -0.00383602 -8.92166e-18)
(0.00334971 -0.00361486 -9.30345e-19)
(-0.00711045 -0.00169558 4.85215e-17)
(-0.00745351 -0.00177028 1.19791e-17)
(-0.00784224 -0.00181796 -9.80264e-18)
(-0.0116188 -0.00288803 1.73313e-17)
(-0.0111923 -0.00278675 -2.2694e-18)
(-0.0123499 -0.0030472 -1.38969e-17)
(0.00297278 0.000552978 -2.46604e-18)
(0.00301789 0.000605008 8.99465e-18)
(0.00198437 -0.00282227 -1.20326e-17)
(-0.000320582 -0.00626025 1.04048e-17)
(0.00427218 -0.00206815 -2.40141e-18)
(-0.00650637 -0.00162886 -3.12261e-17)
(-0.0068552 -0.0016791 3.26968e-17)
(7.90371e-05 -0.00101397 3.6194e-18)
(7.3334e-05 -0.000996607 -1.3663e-18)
(6.47417e-05 -0.00101085 3.64964e-18)
(0.00342284 0.00126762 -4.01692e-18)
(0.00343232 0.00118261 -1.22727e-17)
(0.00335226 0.00123907 6.68369e-18)
(-0.0187639 -0.00160671 1.9718e-17)
(-0.0191091 -0.00169993 -4.99281e-18)
(-0.0185252 -0.00163216 -1.99959e-17)
(0.00160336 -0.000743406 1.78301e-18)
(0.00161588 -0.000773079 6.61437e-18)
(0.001571 -0.000765194 1.17303e-17)
(0.00328878 0.00453763 1.90766e-19)
(0.0032012 0.00458338 3.0984e-17)
(0.00343429 0.00464772 2.28214e-17)
(0.000494383 -0.00061445 -1.21518e-18)
(0.000498209 -0.000602851 1.64564e-19)
(0.00397027 -0.00397174 2.03897e-17)
(4.00829e-06 -4.55439e-05 1.46608e-19)
(5.43701e-06 -5.23899e-05 2.8675e-21)
(5.23068e-06 -5.43912e-05 -2.30992e-19)
(0.00217829 -0.00171596 -4.37219e-18)
(0.00225007 -0.0017153 -1.16126e-17)
(0.00221252 -0.00178114 -1.88967e-17)
(0.000753116 -0.00108862 -1.8408e-18)
(0.000783147 -0.00110123 7.49826e-19)
(0.000760799 -0.00112363 3.65996e-19)
(0.000100708 -0.000636689 -1.36563e-19)
(0.000107469 -0.000631129 -5.18201e-19)
(0.00579413 2.46075e-05 -2.62105e-17)
(0.00479402 0.000119023 1.72887e-17)
(0.00500124 0.000217889 -1.25002e-17)
(0.000960034 -0.000172154 -2.11808e-18)
(0.000933149 -0.000159977 -1.627e-18)
(0.000961802 -0.000144675 -8.01101e-18)
(0.000659645 -0.00193433 -3.84451e-19)
(0.000806536 -0.00204323 -1.49112e-17)
(0.000255932 -8.0668e-05 2.83678e-18)
(0.00026568 -8.02048e-05 2.04024e-18)
(0.00615774 0.000269943 -7.83522e-18)
(0.00611704 9.8648e-05 -1.08406e-17)
(0.00598166 0.000242729 -1.15472e-17)
(-0.0152885 -0.00133188 1.70742e-17)
(-0.0156678 -0.00129158 6.66198e-17)
(-0.00491184 -0.00141588 4.39105e-18)
(-0.00469343 -0.00137513 -4.44253e-17)
(-0.00554031 -0.00147951 -2.60514e-17)
(0.000151552 -0.00129131 2.89014e-18)
(0.000155923 -0.00127412 1.78389e-17)
(0.000163062 -0.00129612 2.86387e-18)
(0.00340324 0.00135321 3.49002e-18)
(0.00348572 0.00130033 -9.62954e-19)
(1.89078e-06 -3.01573e-05 2.41409e-19)
(9.78316e-07 -2.2653e-05 1.79185e-19)
(1.10825e-06 -2.33504e-05 -6.10672e-20)
(3.35142e-05 -0.00176526 1.14157e-17)
(3.2038e-05 -0.00175109 -1.31272e-19)
(0.000115568 -0.000296796 -1.38433e-19)
(0.000109196 -0.00028506 2.98395e-20)
(0.000117083 -0.000289943 -1.54398e-20)
(0.00213227 -0.00169251 2.32373e-17)
(-0.00233538 0.000263462 -8.67173e-17)
(-0.00138921 0.000223657 9.90703e-18)
(-0.00162621 0.000274402 -2.77634e-17)
(0.000143297 -0.00128937 -1.62387e-17)
(0.000136381 -0.0012673 -5.599e-18)
(0.00158223 -0.00070114 -1.05296e-17)
(0.00163478 -0.00070776 -9.1555e-19)
(1.6076e-06 -0.00025657 3.28712e-18)
(2.37077e-06 -0.000271071 8.80087e-20)
(-0.0110127 -0.00271919 9.8692e-18)
(-0.0119088 -0.00293231 1.10706e-17)
(0.000408098 -0.000127005 -2.41664e-18)
(0.000396218 -0.000117225 1.96418e-18)
(-0.0110934 0.00565662 1.95356e-17)
(-0.0135633 0.00058031 2.04217e-17)
(-0.0109198 -0.00268162 -3.58323e-18)
(-0.0105908 -0.00258103 -9.7638e-18)
(-0.0115758 -0.00278007 -5.36046e-19)
(0.00153482 -0.00297513 2.60234e-17)
(0.00164153 -0.00301113 2.71763e-19)
(2.34406e-06 -1.04588e-05 5.3716e-19)
(1.35876e-06 -7.584e-06 -7.71978e-19)
(0.00115977 -0.00311212 6.76981e-18)
(-0.00225757 -0.000820964 -2.53736e-18)
(-0.00323535 -0.00124516 8.53216e-18)
(-0.0124751 -0.00141706 3.94207e-19)
(-0.0126841 -0.00144387 -7.8087e-18)
(-0.0124874 -0.00160566 -2.14407e-17)
(-0.0230236 -0.000851747 -1.0607e-17)
(-0.0224825 -0.000865356 4.51061e-18)
(0.00333007 0.00440734 -3.8354e-17)
(0.00270803 -0.000279458 -1.1745e-17)
(0.00268048 -0.000354185 4.00984e-17)
(0.00262968 -0.000281501 -3.19383e-17)
(-2.03375e-05 -0.00181538 4.29308e-18)
(-1.00276e-05 -0.00179085 5.41918e-18)
(-1.92213e-05 -0.00179487 1.36787e-17)
(0.0071435 8.19551e-05 -2.78239e-17)
(0.00718289 -4.46657e-05 5.48554e-19)
(0.0023475 0.00148328 4.25666e-18)
(0.00227477 0.00146961 7.17637e-18)
(0.000325771 -0.0027368 -1.16142e-17)
(0.000327169 -0.00263037 -1.31219e-17)
(0.00094056 -0.00162041 -1.00137e-18)
(0.000896513 -0.00160485 1.27378e-18)
(0.000918355 -0.0015792 9.46548e-19)
(-0.017694 -0.00056208 1.61207e-17)
(-0.0176268 -0.000756981 -3.62198e-18)
(-0.0173946 -0.00068296 -1.72601e-18)
(0.00532257 -0.00118511 3.5233e-18)
(0.00542324 -0.00109827 6.75204e-18)
(0.00524481 -0.00109297 -3.54919e-17)
(0.000169221 -8.06305e-06 -1.89743e-18)
(0.000175365 -1.06461e-05 -1.09023e-18)
(0.00016771 -1.66705e-05 4.26913e-18)
(0.00201159 -8.43126e-05 -5.95361e-18)
(0.00196231 -6.74474e-05 -7.85621e-18)
(0.00196423 -0.000118927 -5.47541e-18)
(0.00409937 0.00451234 -1.15268e-17)
(-0.0211447 -0.000604057 -1.07045e-17)
(-0.0208578 -0.000721558 -5.29685e-18)
(-0.0191743 -0.000666424 8.98831e-19)
(-0.0193057 -0.000565239 3.58954e-18)
(-0.0191221 -0.000560778 3.76127e-18)
(0.000374425 -0.000214227 -1.24206e-18)
(0.000382873 -0.00020748 8.21338e-19)
(7.73618e-05 -0.00169108 -5.07589e-18)
(8.11177e-05 -0.000455099 2.12412e-18)
(8.42698e-05 -0.000451066 -7.48823e-19)
(7.8376e-05 -0.00044201 1.22005e-18)
(0.00721967 0.00177963 2.87291e-17)
(0.0072359 0.00161224 2.0699e-17)
(0.00705524 0.00167583 -4.07099e-18)
(0.00497009 -0.00132219 -3.81618e-18)
(0.00516026 -0.00107434 2.12399e-17)
(0.00466614 -0.00142193 -5.39462e-17)
(0.00205088 -0.000113184 3.28799e-18)
(0.00205245 -6.39318e-05 -8.80892e-19)
(0.0034905 -0.000451473 8.84932e-18)
(0.00354351 -0.000451863 1.21524e-17)
(0.00531206 -0.00125459 -4.54754e-18)
(0.0053864 -0.00119657 3.6093e-18)
(0.000217952 -0.000501368 -1.01358e-18)
(0.0002289 -0.000505535 2.12675e-19)
(0.000218043 -0.000489421 2.17412e-19)
(9.42397e-05 -0.00152179 -2.33937e-18)
(8.2974e-05 -0.00152946 -1.6748e-17)
(0.00449756 0.00354744 -7.80265e-18)
(0.00446153 0.00370689 3.22044e-18)
(0.00437685 0.00358602 2.00496e-18)
(-0.027494 -0.00473487 1.34972e-18)
(-0.0274066 -0.00484555 5.88992e-18)
(-0.0274767 -0.00474541 3.03395e-17)
(4.8742e-05 -0.000290431 -3.81738e-19)
(4.55194e-05 -0.000277871 -5.45997e-19)
(4.34005e-05 -0.00027945 -7.84254e-19)
(9.64376e-05 -0.000624976 -7.27247e-19)
(9.40112e-05 -0.000640024 2.67871e-18)
(0.000150309 -0.00130713 -1.08742e-17)
(-0.0201271 -0.00208388 -3.47164e-18)
(-0.0203649 -0.00205921 1.77023e-18)
(-0.0210615 -0.00215544 9.0231e-18)
(0.000997997 -0.000104092 1.47197e-18)
(0.00156264 -0.000116832 -1.18312e-16)
(0.00100987 -0.000104703 -2.10064e-18)
(0.0036201 0.000166892 4.42758e-18)
(0.00353527 0.000152963 2.30311e-17)
(0.00360185 7.31013e-05 2.87282e-18)
(0.000598815 -0.000153866 -2.68628e-18)
(0.000595799 -0.000170368 -1.48186e-18)
(0.00455652 -0.00197755 -7.43044e-20)
(0.00810759 -0.00203416 4.85662e-17)
(0.00540949 -0.00107255 -2.53077e-17)
(0.00523285 -0.000979224 1.96692e-17)
(0.00481056 -0.00119405 -3.61418e-17)
(0.00574427 0.00181766 2.29058e-18)
(0.00566231 0.00196637 -7.51166e-18)
(0.00558632 0.00181561 -1.93138e-17)
(0.00355355 -0.000348182 -7.95745e-18)
(0.00341531 -0.000382547 -9.85385e-18)
(-0.0198943 -0.00202832 -1.78185e-17)
(-0.0193768 -0.00194832 8.1651e-18)
(-0.00662968 -0.00117094 -2.82947e-18)
(-0.00682039 -0.0011719 8.39618e-18)
(-0.00627136 -0.00100696 6.9429e-17)
(0.00203838 -0.0003201 -8.50485e-18)
(0.00203831 -0.000360238 -2.38622e-17)
(0.00208073 -0.000325087 -1.76408e-17)
(0.00279895 0.000498121 -2.9888e-18)
(0.00285962 0.000492337 6.05047e-20)
(0.00282158 0.000555842 1.01007e-17)
(-0.0203317 0.00205751 5.45069e-18)
(-0.0201866 0.00193101 5.37853e-18)
(-0.0186654 0.00166967 -3.05811e-17)
(0.000447048 -0.000296419 2.25292e-18)
(0.000460619 -0.000308093 -1.21452e-18)
(0.000438288 -0.000305417 7.62163e-19)
(4.65206e-05 -0.000138337 -4.41995e-19)
(4.61508e-05 -0.000133513 1.35646e-19)
(4.15286e-05 -0.000128661 -2.0265e-19)
(0.00579749 0.00170986 -7.81058e-18)
(0.00588131 0.00184968 -6.98475e-18)
(0.0019074 -0.00224924 -2.3124e-18)
(0.00196537 -0.00218939 2.82222e-17)
(0.0018739 -0.00217277 -3.93203e-18)
(0.000421484 -0.000122962 -5.39275e-19)
(0.000433602 -0.000119646 -1.36042e-19)
(0.000421257 -0.00011201 -8.81905e-19)
(6.41539e-06 -5.1021e-05 8.46421e-21)
(5.83389e-06 -5.20053e-05 -4.59862e-21)
(3.94211e-06 -4.38873e-05 -3.86516e-20)
(0.000121058 -0.000305408 -5.25413e-20)
(0.000113957 -0.000301445 -1.73669e-19)
(7.63052e-05 -1.26905e-05 1.10293e-18)
(8.15034e-05 -1.31428e-05 -7.14737e-19)
(7.56087e-05 -7.82551e-06 1.09956e-18)
(0.00271207 -7.40339e-06 1.0775e-17)
(0.00277041 -3.0803e-05 -4.31791e-18)
(0.00277347 3.52696e-05 4.67586e-17)
(5.16731e-05 -0.000148781 -4.61962e-19)
(-0.0189493 -0.00155193 -2.91571e-18)
(-0.019506 -0.00158895 -2.18389e-17)
(0.00347495 1.34175e-05 3.05957e-18)
(0.00345218 0.000111909 1.52923e-17)
(0.000411567 -0.000517184 7.56569e-19)
(0.000398666 -0.000518073 7.42583e-19)
(0.000414049 -0.000531658 -2.22361e-18)
(-0.0208825 -0.000548693 -5.76861e-18)
(-0.0135758 -0.0019292 7.07596e-18)
(-0.0133585 -0.00187202 1.02517e-18)
(9.92825e-05 -0.000721129 -5.10981e-18)