/*--------------------------------*- C++ -*----------------------------------*\
| =========                 |                                                 |
| \\      /  F ield         | OpenFOAM: The Open Source CFD Toolbox           |
|  \\    /   O peration     | Version:  v2012                                 |
|   \\  /    A nd           | Website:  www.openfoam.com                      |
|    \\/     M anipulation  |                                                 |
\*---------------------------------------------------------------------------*/
FoamFile
{
    version     2.0;
    format      ascii;
    class       volScalarField::Internal;
    location    "650";
    object      V0;
}
// * * * * * * * * * * * * * * * * * * * * * * * * * * * * * * * * * * * * * //

dimensions      [0 3 0 0 0 0 0];


value           nonuniform List<scalar> 
13917
(
0.0120108
0.0429245
0.00275375
0.0346432
0.120538
0.00224685
0.00228328
0.00146328
0.0017742
0.00793808
0.00439515
0.00914675
0.0248541
0.00135374
0.0217317
0.0264327
0.0407197
0.00909208
0.0104407
0.157961
0.136639
0.00191996
0.123909
0.00200087
0.0721536
0.00214516
0.00739217
0.00498179
0.00208531
0.00598207
0.0111959
0.0179328
0.0111482
0.0171205
0.0710266
0.00311687
0.121858
0.0014502
0.0268171
0.00123218
0.17364
0.172402
0.132254
0.0048241
0.0437082
0.0172196
0.0102871
0.00766534
0.00167529
0.170034
0.015795
0.0391165
0.00147134
0.0159073
0.0383257
0.0196679
0.00562703
0.0665482
0.0271684
0.0424218
0.00237938
0.0484784
0.00124918
0.13662
0.00319339
0.00243461
0.113771
0.0676561
0.00368829
0.0125881
0.128908
0.00179902
0.00141603
0.0958244
0.00149369
0.00891615
0.00124633
0.0372255
0.0023297
0.146832
0.153361
0.109265
0.00262555
0.00171419
0.00193656
0.0384488
0.141735
0.00192316
0.0209682
0.106403
0.0014513
0.00760433
0.0695354
0.0311047
0.00154579
0.00296553
0.00507286
0.00778254
0.0048124
0.00521906
0.126512
0.0119305
0.00417995
0.027332
0.0900086
0.00226186
0.00351494
0.00664779
0.0435496
0.00984665
0.00166394
0.00155588
0.00628171
0.00196125
0.0264373
0.00132644
0.103421
0.00174302
0.00140192
0.0157254
0.164076
0.00419403
0.00125202
0.0067447
0.150024
0.0343269
0.042877
0.17012
0.172444
0.00224711
0.00129568
0.033066
0.0440864
0.140562
0.00326211
0.00206036
0.0112814
0.00359475
0.101376
0.0171965
0.00417721
0.0761388
0.0409921
0.00435422
0.0567181
0.00259613
0.00233116
0.0470202
0.0879369
0.0192705
0.00929524
0.00117979
0.00732524
0.00906237
0.0211083
0.00189907
0.014669
0.00313206
0.00125418
0.00319739
0.0234181
0.00817927
0.162254
0.00559725
0.00795559
0.00459698
0.0265421
0.00878418
0.0624715
0.00953175
0.0106606
0.0013208
0.00608284
0.0352558
0.00272276
0.00740412
0.00161827
0.00163818
0.00277917
0.0659632
0.00654612
0.0123015
0.0771914
0.126653
0.0150982
0.00234385
0.00423055
0.00207729
0.0101305
0.00352347
0.00311679
0.00194452
0.00350959
0.142999
0.0036956
0.00782452
0.18784
0.0556732
0.00377319
0.00203005
0.0215448
0.129469
0.011234
0.0101927
0.00134464
0.002986
0.0607884
0.0587465
0.00808453
0.00270115
0.044369
0.00225351
0.00138449
0.00542425
0.0918116
0.00268867
0.00949572
0.00154465
0.0702692
0.00271611
0.0783505
0.00562002
0.142717
0.00137468
0.00201741
0.0234586
0.00354098
0.0186612
0.103912
0.00271358
0.00640681
0.0108526
0.00256758
0.00105133
0.140919
0.0161009
0.00172902
0.0012043
0.138935
0.116111
0.0013164
0.00435424
0.162454
0.00393296
0.00713664
0.00733379
0.0127696
0.163941
0.0114172
0.00128516
0.0563276
0.00650388
0.00386662
0.0466306
0.0591864
0.00806134
0.00133725
0.00667599
0.0119616
0.0200016
0.177287
0.00112714
0.00261901
0.0034173
0.0833124
0.00153483
0.00126596
0.00287666
0.00192051
0.00767025
0.160086
0.185275
0.00887487
0.00140251
0.00583092
0.0271223
0.00297073
0.0115475
0.161328
0.00230405
0.138628
0.00243217
0.0249116
0.133592
0.0181206
0.00807758
0.00990237
0.00324363
0.0125406
0.0493968
0.00338028
0.00219484
0.00194771
0.0803051
0.00295987
0.124131
0.0520088
0.110111
0.00202836
0.183649
0.00519495
0.0147404
0.0678267
0.00928962
0.0319521
0.00103599
0.00808178
0.00811307
0.0659048
0.0610356
0.0015357
0.00135392
0.0881998
0.155336
0.00268749
0.0715262
0.00150781
0.0771345
0.0012633
0.0394032
0.00387482
0.0160377
0.00142469
0.0255621
0.00308116
0.00261645
0.0184272
0.00370513
0.00270312
0.0406377
0.00158827
0.00325009
0.00103864
0.0201519
0.00128119
0.0167264
0.00184831
0.00360243
0.00444475
0.00504747
0.00220779
0.123941
0.0108078
0.0018656
0.0407901
0.0281011
0.00139635
0.00337352
0.0435715
0.00351249
0.0019894
0.144483
0.00146027
0.00358335
0.133206
0.105021
0.138941
0.0789842
0.00330614
0.0024462
0.0024162
0.00183697
0.0891543
0.00550606
0.00127697
0.0114228
0.00193581
0.00166252
0.00193222
0.108721
0.00378371
0.0902337
0.00250132
0.0412786
0.00133809
0.00653247
0.0312216
0.109698
0.00883387
0.00524333
0.00609419
0.00122422
0.00163872
0.00122858
0.0100384
0.00646154
0.0994519
0.00124726
0.00195732
0.0588433
0.0038338
0.104525
0.00397112
0.0368392
0.135532
0.0231731
0.00167885
0.0278726
0.00168104
0.00148495
0.00246045
0.00246968
0.0395149
0.0026033
0.00239144
0.125463
0.00378674
0.0471201
0.065965
0.00488929
0.177473
0.0980726
0.082135
0.00362449
0.142027
0.0014509
0.00213131
0.00134637
0.00328635
0.0015799
0.00128548
0.0123134
0.0943269
0.00522409
0.0234304
0.0166175
0.125176
0.00259317
0.00240166
0.00258403
0.0210515
0.00572884
0.0233255
0.0281569
0.00726636
0.0293008
0.00298999
0.0407837
0.15281
0.00157038
0.00147798
0.00153843
0.00547502
0.0011953
0.00178601
0.00151085
0.00150221
0.142854
0.00791003
0.0290191
0.0538562
0.00325681
0.00766109
0.159895
0.00832895
0.0123311
0.00134943
0.100082
0.00561727
0.00165129
0.00307106
0.00121018
0.133928
0.0504728
0.160824
0.0114685
0.131047
0.00229782
0.00270194
0.0146523
0.00170564
0.0206685
0.00474211
0.00158405
0.00149118
0.00454136
0.00334274
0.00485496
0.00928324
0.00463337
0.0113629
0.00444324
0.00232261
0.0095245
0.00533911
0.154567
0.00277866
0.0214279
0.0795581
0.012467
0.033658
0.00150265
0.00164287
0.0696537
0.152824
0.00240533
0.00112499
0.180762
0.00124329
0.0295108
0.00414315
0.0728181
0.00107981
0.003116
0.0188699
0.0306954
0.00184788
0.00404976
0.00127959
0.176976
0.00135724
0.00186319
0.00295261
0.0679399
0.00170592
0.00210943
0.0113084
0.0998631
0.035289
0.00924552
0.00375524
0.135627
0.110914
0.137946
0.136732
0.00124814
0.00306262
0.012173
0.00422539
0.166501
0.0983396
0.00574814
0.00217013
0.0121495
0.0513598
0.0879204
0.0700554
0.00257793
0.00185072
0.141298
0.0728866
0.00353769
0.0118463
0.0118608
0.0569868
0.0248089
0.0188696
0.00595371
0.0028171
0.00350136
0.0044221
0.00527749
0.00300516
0.00690136
0.077966
0.00147785
0.0793786
0.0251342
0.026996
0.00267454
0.00534977
0.11623
0.00319153
0.0051762
0.00144992
0.00484106
0.00963823
0.0117423
0.104303
0.00191965
0.00326101
0.00158455
0.0475077
0.0151134
0.00368119
0.00150871
0.00136184
0.00721575
0.00438917
0.0256378
0.0216746
0.0498228
0.00604014
0.00413793
0.042448
0.00969821
0.00332015
0.00171323
0.00108563
0.0262355
0.00509016
0.00358929
0.0163868
0.0432502
0.00155519
0.0025837
0.0022591
0.00415336
0.13937
0.00124249
0.00979763
0.136542
0.0140661
0.00724304
0.0113769
0.0063646
0.00216119
0.00500556
0.0153292
0.00233525
0.026594
0.00138261
0.1411
0.10785
0.00245032
0.00215873
0.00243671
0.0248417
0.0396252
0.0781957
0.010225
0.00136012
0.00494935
0.020889
0.0055385
0.00889551
0.0592813
0.00244035
0.00605568
0.00340272
0.0767098
0.00402869
0.0326796
0.00156071
0.00818826
0.00592029
0.0127936
0.136525
0.0774852
0.0418695
0.0049893
0.0149462
0.00375853
0.00126166
0.0085498
0.134887
0.00382042
0.00178755
0.00335145
0.0554358
0.0154642
0.110788
0.0167045
0.0204807
0.00187951
0.145827
0.00230496
0.0174369
0.00405155
0.00647607
0.00133575
0.00556582
0.0387311
0.00135648
0.00136407
0.0545102
0.0283687
0.00332983
0.00463539
0.00557212
0.167965
0.0307075
0.00403245
0.0245393
0.00745698
0.00922518
0.0703937
0.0103402
0.00243522
0.052863
0.0416193
0.154636
0.00138297
0.153738
0.0219823
0.00135493
0.0250881
0.00240455
0.0208635
0.00848542
0.137318
0.00825829
0.100587
0.00902616
0.162731
0.00572655
0.0288831
0.00175505
0.00134525
0.00166212
0.188538
0.13559
0.00721896
0.00953324
0.00119776
0.00156486
0.00877603
0.0756842
0.00371821
0.00237833
0.00297343
0.00414209
0.00903963
0.00207759
0.0101068
0.0127994
0.0040031
0.00377114
0.00943128
0.00169087
0.0104208
0.0303853
0.00640628
0.0145792
0.0686208
0.0180819
0.0100855
0.0182441
0.102137
0.152579
0.00901207
0.0258315
0.00664482
0.0672108
0.0901008
0.141081
0.0262651
0.099801
0.0206382
0.142075
0.00110626
0.00983658
0.00282185
0.139458
0.138293
0.00676132
0.00787824
0.0300377
0.00241437
0.0063284
0.00262814
0.0135982
0.00490046
0.0310927
0.158363
0.145203
0.0260213
0.00123928
0.145216
0.00268014
0.0152326
0.00106798
0.00799342
0.00553308
0.00434994
0.0958983
0.182485
0.00874754
0.0711163
0.0401287
0.00268774
0.0317605
0.130237
0.0153581
0.128615
0.131476
0.0177574
0.0135324
0.00105142
0.0135735
0.0440748
0.178436
0.00157655
0.00409549
0.0481212
0.0382349
0.00253864
0.00325093
0.00130665
0.0113635
0.0294715
0.130039
0.124266
0.00933823
0.0128511
0.00320345
0.01475
0.00156464
0.0341498
0.0254123
0.000928206
0.103251
0.0182865
0.0573262
0.160171
0.0101069
0.00750194
0.0321962
0.00205333
0.0012139
0.00749767
0.0634324
0.0805674
0.00553255
0.00273972
0.158723
0.00280577
0.0838165
0.0107302
0.0532283
0.0694862
0.0034455
0.0506282
0.0029296
0.0107744
0.151678
0.109331
0.0509249
0.0720262
0.0442317
0.0015172
0.0558201
0.0705868
0.00165194
0.00200266
0.0120555
0.0116845
0.00661364
0.0211314
0.0794327
0.010783
0.00136471
0.00459208
0.0981867
0.0409221
0.0018157
0.00996149
0.00157052
0.136224
0.0284664
0.00134034
0.013233
0.03457
0.00124202
0.0016213
0.0796996
0.00435062
0.1187
0.0544111
0.106702
0.00137758
0.0981504
0.0472127
0.0799782
0.00251301
0.0214781
0.00424056
0.00589868
0.062215
0.0103427
0.143917
0.00151009
0.0985649
0.0552989
0.131127
0.00382065
0.110426
0.00396269
0.00127163
0.00255567
0.0184348
0.00302491
0.00134739
0.0603648
0.00123415
0.0016613
0.00127813
0.00156336
0.00157727
0.00152882
0.0040494
0.0350537
0.00188995
0.0140984
0.00178088
0.0800993
0.0623677
0.0482429
0.14178
0.0183964
0.0130093
0.00104553
0.0639965
0.0733101
0.00109406
0.00319541
0.0479327
0.00712809
0.0153048
0.0415407
0.00108251
0.00697561
0.023678
0.0213682
0.00121401
0.0010031
0.00174824
0.056495
0.00400542
0.00493812
0.00135402
0.00172795
0.00695222
0.0623387
0.0306337
0.0316691
0.15895
0.024053
0.132269
0.0164885
0.00597184
0.00164879
0.00551745
0.0442733
0.00517705
0.00152594
0.0109036
0.0473875
0.00122118
0.0601399
0.0415075
0.00858537
0.00175552
0.112544
0.074203
0.0020831
0.00317055
0.00305637
0.00500045
0.00246184
0.0666433
0.00350477
0.0431643
0.102811
0.0438349
0.00257127
0.00114366
0.0625997
0.106896
0.0553791
0.00297416
0.0262572
0.0174715
0.0754238
0.0455459
0.00418285
0.057364
0.00765723
0.00357735
0.00174201
0.0503853
0.00533233
0.0223811
0.00139334
0.0012039
0.0863064
0.00122835
0.00660076
0.0016382
0.12183
0.00153467
0.119952
0.0159244
0.0108909
0.00444569
0.00234902
0.00285787
0.00447107
0.00225761
0.140786
0.00373339
0.0724467
0.0119021
0.00185811
0.0481943
0.154955
0.0336041
0.0392775
0.00130459
0.114346
0.12333
0.00896913
0.0076252
0.0095773
0.00226767
0.00540268
0.00120171
0.00904897
0.0123028
0.0141186
0.00135054
0.0122723
0.00265381
0.00150709
0.0212718
0.0644112
0.00160207
0.00333936
0.0414634
0.00595443
0.00943141
0.0355109
0.0188303
0.0361482
0.0112371
0.173325
0.00916644
0.00334374
0.101596
0.00851403
0.0613202
0.00639342
0.165822
0.0148558
0.00768655
0.0240642
0.041003
0.0649695
0.0016395
0.00613945
0.00257995
0.0727728
0.0384327
0.00825146
0.0582061
0.00680078
0.00567755
0.0344385
0.00650456
0.0697187
0.00239798
0.0437488
0.0162194
0.00103323
0.00360312
0.0806559
0.0270611
0.00127251
0.0990815
0.102479
0.00142969
0.00148962
0.0219129
0.00433565
0.145524
0.0403213
0.00253486
0.0318084
0.0903243
0.00329879
0.0559357
0.00298355
0.115543
0.0979759
0.043947
0.00518408
0.00143213
0.0435074
0.0407883
0.0732897
0.019423
0.134536
0.00164047
0.00839074
0.158942
0.00232016
0.00848465
0.00284168
0.00158069
0.00150293
0.067697
0.0482488
0.0534383
0.00198521
0.0195994
0.00149679
0.00140926
0.0273955
0.00180374
0.00155053
0.00927006
0.00439158
0.0057486
0.00238713
0.00223975
0.00478216
0.00279217
0.00156014
0.00910775
0.0222816
0.00133863
0.00542594
0.0709344
0.0237863
0.00247588
0.0102153
0.0674856
0.00723654
0.00601399
0.0116213
0.00122784
0.0268187
0.0022385
0.0126519
0.00377694
0.00447433
0.00399454
0.0158743
0.0657819
0.0401964
0.00238343
0.0819391
0.022697
0.152947
0.0248855
0.0592865
0.0104317
0.00503317
0.00142856
0.00807871
0.0064573
0.00236988
0.00290167
0.0589466
0.00302145
0.00220406
0.0569208
0.10082
0.012566
0.00132547
0.141208
0.00744933
0.00257047
0.00838788
0.0574234
0.0278075
0.0573741
0.00527382
0.00945761
0.134011
0.00172915
0.00207428
0.00960797
0.00277113
0.00766162
0.0021402
0.0263869
0.0193896
0.00228923
0.00277107
0.00681613
0.00185365
0.0178613
0.147812
0.0617004
0.0493969
0.0587281
0.0272754
0.00890282
0.0758744
0.00458876
0.133326
0.01444
0.0670231
0.00647641
0.00525247
0.00295334
0.061835
0.00400091
0.0594472
0.00225863
0.0923696
0.0176168
0.0939121
0.00360521
0.00124362
0.0039908
0.0726948
0.00527272
0.0462767
0.0143199
0.00149304
0.0531198
0.0424769
0.00810272
0.0156966
0.00191522
0.0737285
0.0146205
0.0381977
0.105694
0.0122457
0.0328609
0.101151
0.0244629
0.00100062
0.0222703
0.00305293
0.00227271
0.0090747
0.00142843
0.0222109
0.109407
0.0143987
0.00116915
0.0338718
0.0102971
0.0107421
0.0016062
0.0750636
0.00113526
0.00718184
0.00736212
0.066963
0.113993
0.00503083
0.0391358
0.144487
0.0099958
0.0809276
0.0159233
0.0157322
0.00538738
0.00333663
0.00207907
0.0219762
0.00552614
0.00246081
0.00110377
0.0138883
0.00279874
0.0013286
0.0117643
0.0020105
0.0202104
0.00179895
0.00119605
0.0730597
0.164454
0.107195
0.0384047
0.00986326
0.065572
0.0189385
0.00654592
0.0256643
0.0109589
0.00106175
0.00972841
0.0225631
0.00157009
0.0328839
0.00122348
0.0254786
0.00424549
0.0771161
0.00106417
0.00130521
0.0462502
0.0367664
0.00180943
0.0106439
0.00126688
0.133473
0.0478907
0.00168527
0.0309351
0.00627784
0.00156873
0.0764164
0.00840444
0.0124025
0.111107
0.132978
0.00184715
0.00131423
0.0402083
0.022728
0.0546701
0.0140108
0.0087371
0.00145481
0.0271115
0.0016957
0.00279594
0.00337925
0.00270499
0.0314415
0.00569843
0.00349392
0.0142239
0.090921
0.00881386
0.0014646
0.0251194
0.00727507
0.00185026
0.00132336
0.00272408
0.0195495
0.0481603
0.130921
0.0794358
0.00130052
0.00896001
0.0248754
0.0283342
0.0240236
0.135838
0.059235
0.0760237
0.0061946
0.0153949
0.00236877
0.00572005
0.00119961
0.0014878
0.0135095
0.0092553
0.114482
0.017168
0.00105529
0.0367197
0.0247092
0.00911335
0.00453859
0.0060521
0.00221223
0.00201835
0.0585618
0.00106629
0.120833
0.0384252
0.0079841
0.145011
0.0469272
0.00433765
0.0023818
0.0541013
0.00233074
0.0373764
0.0672835
0.0206845
0.00168467
0.0160673
0.0272742
0.00200407
0.0317747
0.0033869
0.00164734
0.169397
0.00503075
0.130148
0.0011995
0.00640153
0.0670353
0.00196015
0.00871578
0.00462652
0.128998
0.00105058
0.0138012
0.00284482
0.0405269
0.00424236
0.0012944
0.0691388
0.00173653
0.0461715
0.00762581
0.00632302
0.159612
0.00103026
0.0241214
0.00432692
0.00815938
0.00473937
0.00962482
0.00927278
0.0282888
0.00187955
0.01074
0.00116987
0.0133863
0.00986684
0.0493101
0.0113965
0.0555211
0.0091283
0.00223572
0.0359004
0.0705504
0.00134187
0.0287731
0.00226605
0.0327027
0.00228806
0.0025687
0.0128618
0.0727473
0.100861
0.0856493
0.120149
0.00576816
0.0065584
0.00729857
0.0191017
0.136219
0.00303112
0.0249298
0.0138394
0.00273986
0.0562835
0.001815
0.0095916
0.0174731
0.00173177
0.0013289
0.00313789
0.00230535
0.00270152
0.0718395
0.00256625
0.0014863
0.00260412
0.148623
0.0441641
0.00473405
0.00210517
0.0012846
0.00299769
0.0497164
0.00717944
0.0110533
0.00186002
0.00127014
0.0121191
0.00335978
0.0218433
0.00648574
0.00637747
0.144743
0.00548959
0.00246243
0.106783
0.00282163
0.142644
0.0462819
0.0010307
0.00152917
0.127477
0.0388998
0.0230608
0.0459233
0.00979463
0.00431926
0.0259114
0.100459
0.102584
0.0087755
0.016431
0.0206666
0.00326795
0.07038
0.00176381
0.00122535
0.00148215
0.00347785
0.00964349
0.00304863
0.0133381
0.00184256
0.00268781
0.002705
0.0405845
0.00187926
0.00113008
0.11526
0.0968102
0.00535269
0.00149723
0.00230574
0.0629586
0.0497879
0.00150895
0.00184747
0.0027074
0.0244645
0.0209655
0.00184884
0.0492237
0.00148697
0.00173244
0.00313398
0.0024805
0.0512802
0.0777401
0.131119
0.0154772
0.00115665
0.0110629
0.0223979
0.0297761
0.00454737
0.00107909
0.0100252
0.00278039
0.00110441
0.00103425
0.00171659
0.0802496
0.152456
0.00226149
0.114207
0.069168
0.0283552
0.00112565
0.0115992
0.00197357
0.00443738
0.0878199
0.00146468
0.0119022
0.0596048
0.00134512
0.00303111
0.0182162
0.0412281
0.00119207
0.00156548
0.11888
0.00228741
0.00230195
0.00182967
0.00208905
0.00539983
0.0638296
0.0317955
0.0034969
0.0202304
0.00217345
0.00839193
0.00281198
0.00325603
0.026702
0.0164726
0.0548162
0.0343137
0.00168309
0.00113779
0.0810109
0.00126831
0.0100294
0.0474064
0.0203504
0.093156
0.00414825
0.0262686
0.00168631
0.00648634
0.0656889
0.134073
0.0049118
0.00098806
0.0108369
0.0228548
0.00959612
0.0641331
0.0247776
0.0175028
0.000937263
0.00136679
0.00155852
0.109341
0.131051
0.0246922
0.00653806
0.0986727
0.034239
0.00385069
0.00716329
0.00272879
0.0713592
0.00161856
0.00132821
0.16393
0.00100856
0.00521126
0.0104627
0.00153309
0.0360201
0.0014427
0.0146826
0.024096
0.0226164
0.12197
0.00355793
0.166597
0.0361925
0.0114231
0.00150079
0.00150153
0.140361
0.161121
0.0240723
0.0490408
0.00412892
0.0381272
0.00616965
0.0290802
0.00145066
0.0352374
0.00156989
0.102899
0.00162507
0.0350654
0.11306
0.00181371
0.00259991
0.00391361
0.00299226
0.00566026
0.0101357
0.0725684
0.0014277
0.0656442
0.0995393
0.00450536
0.00904169
0.00179901
0.00143808
0.00487836
0.00276328
0.00477219
0.00281536
0.14004
0.022213
0.0165554
0.00155008
0.0202754
0.00138043
0.00102766
0.0365777
0.0463431
0.0519699
0.00263162
0.0010598
0.0236109
0.124075
0.020897
0.0184239
0.0108946
0.00346748
0.00306567
0.126491
0.00202632
0.00627245
0.000967028
0.00648338
0.0244614
0.0244476
0.00138772
0.141764
0.00603209
0.00219661
0.0285193
0.0196549
0.00379192
0.00420927
0.0331265
0.00125802
0.0244757
0.00332475
0.00959941
0.0137638
0.0304451
0.00166485
0.10131
0.00501646
0.00178453
0.00154749
0.00909032
0.00716753
0.0211377
0.00957185
0.138292
0.00172449
0.0190707
0.0495092
0.0147696
0.139119
0.164443
0.000881273
0.0930186
0.146939
0.0535848
0.00394478
0.0462617
0.0130242
0.00613516
0.00353466
0.00534935
0.13752
0.00312274
0.00199584
0.00413721
0.00747392
0.0121075
0.00419009
0.0026536
0.00267682
0.16678
0.00247236
0.00216708
0.168743
0.024976
0.119189
0.00223072
0.00517234
0.0343533
0.00169298
0.0014924
0.136238
0.0425713
0.00208489
0.00111441
0.00835554
0.107516
0.00264819
0.0015961
0.00130817
0.100397
0.0015176
0.00673803
0.00402872
0.00128872
0.0210125
0.118642
0.0135132
0.00425294
0.0129242
0.00204713
0.00150185
0.0687228
0.00231744
0.00154261
0.00133905
0.0864016
0.00622991
0.0288196
0.0634107
0.00122051
0.0030671
0.00335615
0.00293333
0.0145993
0.0100073
0.157889
0.00162355
0.0011847
0.0718048
0.0376964
0.0111138
0.0606551
0.00917164
0.00167692
0.00191981
0.00905088
0.0342072
0.036705
0.0016249
0.0196091
0.00897786
0.0754727
0.0290257
0.00332619
0.00280622
0.00311156
0.00155386
0.14244
0.00365649
0.153172
0.00781123
0.00177459
0.0013656
0.0956597
0.144786
0.0144918
0.0164932
0.044475
0.00138608
0.00152274
0.0760103
0.140338
0.11808
0.0955579
0.00144455
0.0658352
0.00150496
0.00513144
0.00849673
0.0615528
0.00917073
0.00162804
0.0140886
0.00264658
0.00162372
0.032192
0.00102525
0.00988172
0.00636121
0.00318576
0.00122672
0.00136116
0.00925667
0.0721181
0.00385618
0.0652712
0.0155784
0.0439275
0.00232382
0.0103854
0.00278528
0.00345416
0.00998745
0.114535
0.003428
0.0180493
0.161645
0.0026921
0.108883
0.0145676
0.0105321
0.0439171
0.00214708
0.027959
0.00229414
0.027059
0.0940223
0.00179648
0.00151461
0.0211499
0.0109079
0.0123589
0.00661723
0.00883664
0.0148341
0.0148758
0.0222728
0.0036752
0.0182064
0.00218735
0.00559579
0.00262828
0.00568773
0.0297823
0.00160008
0.155441
0.00234494
0.0206883
0.00195237
0.00268698
0.00269359
0.00269882
0.00398558
0.00464645
0.0330028
0.00166429
0.00442848
0.072973
0.00106303
0.00230199
0.0252986
0.0276722
0.0121238
0.0117679
0.014831
0.00137334
0.18467
0.0153281
0.0110665
0.0111125
0.140676
0.00584467
0.0933453
0.00212441
0.019308
0.00448012
0.0130825
0.0109902
0.00504187
0.00283672
0.00693941
0.0695849
0.00373126
0.00178022
0.00174146
0.0380886
0.00231114
0.0168033
0.00143007
0.0638336
0.022225
0.00145816
0.0099726
0.00123014
0.00123051
0.0101738
0.00123123
0.0487694
0.0930509
0.00103069
0.0056761
0.0240468
0.00171593
0.0182626
0.00722502
0.0148514
0.00708034
0.0416963
0.00253554
0.0018043
0.00123266
0.00323217
0.0169512
0.0084592
0.00124378
0.0238613
0.0425761
0.00527454
0.113171
0.0020959
0.00179772
0.00121435
0.00132029
0.00883882
0.0346055
0.00158267
0.123805
0.00506678
0.147329
0.00166193
0.0274753
0.00652176
0.00125549
0.00470011
0.124503
0.0125231
0.00183541
0.0473509
0.00536702
0.0680228
0.002146
0.00131982
0.00547073
0.00431351
0.123976
0.00402936
0.00496509
0.0102918
0.0681646
0.03802
0.165832
0.00958637
0.0999789
0.0056383
0.0433375
0.063294
0.00182907
0.058596
0.0183661
0.0219638
0.134912
0.00146788
0.0622541
0.0118086
0.00159435
0.0100424
0.00261134
0.0491288
0.00173327
0.0101039
0.00176387
0.0260574
0.00394763
0.0434451
0.00946829
0.00511551
0.00539673
0.00388315
0.00153406
0.00427926
0.0028675
0.0157121
0.00523639
0.00909825
0.00266099
0.018546
0.0414801
0.0596354
0.00967617
0.00685856
0.00287673
0.00897287
0.00220754
0.00237305
0.00385817
0.0538736
0.00277094
0.00259272
0.0396633
0.0251889
0.0507905
0.00218324
0.0585399
0.000883805
0.0620622
0.0179959
0.00142948
0.00521887
0.0872051
0.0594185
0.00122206
0.0739561
0.0234054
0.0168375
0.0122585
0.0201764
0.0400658
0.00315038
0.00436737
0.00917223
0.0036596
0.00146156
0.0013727
0.00111059
0.116347
0.0635707
0.00419625
0.035287
0.0055476
0.00223721
0.0012777
0.111965
0.0713346
0.00153078
0.00304927
0.107866
0.0713094
0.0148675
0.0018552
0.00200037
0.0184885
0.0126253
0.130534
0.00355474
0.00547065
0.00324866
0.0114564
0.0101532
0.0269203
0.0109772
0.00331603
0.0233691
0.0400686
0.0186043
0.00209245
0.017799
0.00122277
0.0907898
0.00151503
0.0111979
0.0124256
0.0866776
0.093385
0.00279675
0.00235372
0.00598744
0.0011845
0.00190075
0.0348859
0.00148535
0.00474209
0.144567
0.00260793
0.00285859
0.00339607
0.139229
0.0014627
0.00144035
0.0641109
0.00970955
0.00128349
0.0101185
0.0489277
0.0691743
0.0349986
0.0242441
0.00662847
0.00371038
0.00447902
0.00674438
0.120592
0.0516139
0.00228507
0.0637506
0.00842704
0.0137981
0.0475725
0.00875876
0.0802471
0.0239661
0.0035804
0.102905
0.00135064
0.0984541
0.00182794
0.00166604
0.00587347
0.0425876
0.162484
0.00156907
0.119999
0.022912
0.0355458
0.00369908
0.00298077
0.0113812
0.00156848
0.00978489
0.00282063
0.0300212
0.00695676
0.0587889
0.0966825
0.00122396
0.00134885
0.00302027
0.0237438
0.00761377
0.00664333
0.00106875
0.00150836
0.00352412
0.00768033
0.118919
0.00157565
0.0515056
0.0467908
0.00414031
0.00529371
0.013918
0.00298015
0.00696664
0.0123931
0.0175485
0.00142016
0.023472
0.0908785
0.000990604
0.00555773
0.0902235
0.0011025
0.127657
0.107421
0.00399357
0.00502449
0.00189881
0.0993052
0.0194814
0.0617114
0.001811
0.0667214
0.00227495
0.00258359
0.00152407
0.00143476
0.00158398
0.0116168
0.00148552
0.00198341
0.133476
0.0127174
0.00941576
0.0114737
0.0017775
0.00128129
0.00127225
0.00156372
0.00169947
0.0437985
0.0058418
0.144461
0.00142744
0.016541
0.0254388
0.0234108
0.0277888
0.0662549
0.00477724
0.00133657
0.10777
0.0251114
0.144308
0.00149353
0.0266118
0.00168938
0.00216071
0.00292603
0.0863721
0.0661348
0.0011546
0.00260744
0.103051
0.00320484
0.137152
0.00466775
0.00294924
0.00584064
0.00977507
0.00262874
0.0577606
0.0605209
0.00361881
0.00147922
0.0149209
0.00690463
0.0631175
0.00110093
0.0813433
0.142022
0.0310194
0.0623493
0.00174696
0.00142713
0.00287688
0.00867567
0.00149866
0.00337256
0.119375
0.0139619
0.0854827
0.00174568
0.0365435
0.0196075
0.0614786
0.0969407
0.064607
0.00203957
0.0392828
0.00154223
0.0774151
0.0116037
0.155152
0.0018215
0.100049
0.0138132
0.010565
0.00587408
0.00178285
0.0926552
0.00117252
0.00727137
0.00843064
0.14191
0.079818
0.00142259
0.00101393
0.0407275
0.0649417
0.00342756
0.00362374
0.00889692
0.00155845
0.0277381
0.00214377
0.0168698
0.0925653
0.00178742
0.035773
0.00188154
0.0592857
0.0279721
0.109804
0.000986682
0.00145792
0.11088
0.00278519
0.00367392
0.139031
0.057013
0.144341
0.00281895
0.00153847
0.00751805
0.0281017
0.0102313
0.0996402
0.0508112
0.0245655
0.106826
0.00394714
0.0462644
0.00782735
0.00287445
0.0105753
0.130688
0.00237254
0.00569204
0.0961923
0.00542202
0.0146507
0.00288564
0.0200682
0.00230664
0.00840875
0.0526586
0.0061126
0.00613209
0.025589
0.00170325
0.00812999
0.0182468
0.00292682
0.0567468
0.00450394
0.00388688
0.00478139
0.0962149
0.0604152
0.120654
0.0105527
0.00890813
0.0087894
0.00237113
0.0012984
0.00223713
0.133167
0.00159395
0.00163085
0.0015829
0.0601597
0.0464993
0.00887085
0.00188863
0.0231383
0.0107442
0.00151413
0.00129982
0.00168849
0.0037853
0.00403389
0.00154102
0.00289712
0.0881659
0.0018104
0.00362706
0.0365119
0.0380141
0.0277932
0.00143187
0.00596166
0.00181672
0.0228933
0.00272705
0.0422596
0.00254318
0.00133807
0.0358309
0.00875865
0.00146499
0.00234567
0.00839693
0.0286344
0.0237666
0.0332457
0.00361881
0.00544636
0.00249446
0.00155115
0.0781857
0.00104915
0.00431751
0.00270911
0.144263
0.137316
0.00354937
0.0029479
0.0614213
0.00905257
0.00489298
0.00614344
0.00209204
0.00192192
0.00158995
0.00149193
0.0193435
0.0768646
0.00519715
0.00127014
0.00224883
0.0494677
0.00187947
0.00428466
0.00210318
0.0319289
0.146248
0.00175583
0.0026632
0.00248729
0.00182122
0.00132997
0.0856813
0.00283207
0.00158253
0.0460414
0.0054187
0.00649882
0.0997137
0.00388582
0.00185519
0.00283041
0.142142
0.00112109
0.00492405
0.00161593
0.10729
0.0254566
0.0321004
0.0361104
0.035914
0.00734113
0.00945271
0.00800355
0.00290022
0.0104011
0.00135972
0.0186695
0.018469
0.0145154
0.00105602
0.00581549
0.00145311
0.0144564
0.0139247
0.00103092
0.00362201
0.0480815
0.00837311
0.00284637
0.00228168
0.00368627
0.0544145
0.0803259
0.0494937
0.0031145
0.0282617
0.0014905
0.00181902
0.00261958
0.0133383
0.00383761
0.00132519
0.0472787
0.00249464
0.0111016
0.00511153
0.0478205
0.0512392
0.00783892
0.00147989
0.140057
0.00152901
0.00318294
0.00446748
0.00426366
0.0743026
0.113343
0.0148256
0.0376591
0.00168061
0.00169653
0.00512299
0.00285958
0.0560255
0.0434337
0.0406684
0.132062
0.00182099
0.0299955
0.00136072
0.00440371
0.0284304
0.00247134
0.00214052
0.00146822
0.00108106
0.0239093
0.0668239
0.10417
0.0241402
0.00212791
0.00345103
0.00162413
0.113151
0.0362266
0.00333047
0.149433
0.0033987
0.0230083
0.00332082
0.00292269
0.00849552
0.00946031
0.0753811
0.00916906
0.00984238
0.00345799
0.00442776
0.00919859
0.0974266
0.00378911
0.0687046
0.00250524
0.00161004
0.00187689
0.0504241
0.00563764
0.0561426
0.0107245
0.0272251
0.0356124
0.0126675
0.00139601
0.001887
0.00465365
0.00776395
0.00345017
0.00570201
0.00209625
0.00151908
0.0152679
0.00146359
0.00347848
0.0638324
0.00581641
0.00152902
0.00475385
0.142455
0.00809498
0.00161915
0.00324456
0.00103326
0.0415364
0.00300702
0.0745595
0.0637193
0.010845
0.00186898
0.15939
0.00147447
0.00163017
0.00334516
0.00260582
0.0026355
0.00157335
0.0037052
0.108307
0.0200297
0.081234
0.00727256
0.00373623
0.00222194
0.0190618
0.0105975
0.0745352
0.00158552
0.0111294
0.00918048
0.00174539
0.0033642
0.00167615
0.00157656
0.0592528
0.00104349
0.104091
0.0147635
0.00533473
0.00166067
0.00436008
0.0143255
0.0316029
0.00200479
0.0145363
0.00201464
0.00100694
0.00998705
0.00153803
0.010494
0.144039
0.00188662
0.00733274
0.0276234
0.000988316
0.0018891
0.0148362
0.0149965
0.00498598
0.0013095
0.0634465
0.0482132
0.111097
0.089382
0.0285088
0.00151131
0.010759
0.00165256
0.120367
0.0470651
0.00200699
0.0364296
0.165851
0.111044
0.0504103
0.00270339
0.0676755
0.00158295
0.0362138
0.0272606
0.00767849
0.0387143
0.00267403
0.0697806
0.149397
0.064847
0.0127187
0.00504591
0.0219265
0.00144607
0.0471253
0.00776818
0.0159501
0.00151573
0.0333843
0.104948
0.0600621
0.0749695
0.00339175
0.0684122
0.0570316
0.0255296
0.00280105
0.142151
0.00803433
0.00879898
0.053791
0.00166466
0.00161142
0.00305213
0.00259801
0.0221974
0.00537756
0.0442106
0.00350641
0.00360701
0.0369766
0.00292384
0.0050689
0.0024196
0.0133062
0.0627964
0.00163674
0.00876357
0.00296271
0.00187363
0.0785582
0.0625772
0.00122127
0.0015347
0.00862674
0.00602368
0.0277237
0.00182804
0.00248529
0.111059
0.0916947
0.0401895
0.0990284
0.134136
0.0599777
0.0096026
0.00152313
0.0146042
0.0431745
0.00230693
0.0842711
0.00301968
0.00505997
0.044722
0.0164116
0.0622799
0.00304593
0.0176638
0.0065062
0.0629068
0.0383159
0.00117987
0.0014742
0.131992
0.00894951
0.00760435
0.0152913
0.0212212
0.160282
0.0353891
0.00292229
0.00297243
0.011034
0.00211954
0.0371462
0.00163714
0.00457989
0.0249543
0.00125714
0.0264625
0.0018
0.0024029
0.00142368
0.00269418
0.00151214
0.00151751
0.0707657
0.0174921
0.0225328
0.0772606
0.0653897
0.015064
0.0046327
0.0597343
0.0133669
0.00419571
0.00491328
0.00265867
0.00360181
0.0130193
0.00256075
0.00213087
0.0103375
0.0184292
0.00385975
0.00175499
0.00181589
0.0188596
0.0772119
0.0663467
0.0672371
0.0128408
0.00127827
0.00333151
0.061845
0.00128049
0.106822
0.00456867
0.00209896
0.00461634
0.0038761
0.00397941
0.00323886
0.0284947
0.0108082
0.0773423
0.00358456
0.0621947
0.0271011
0.0132606
0.00313084
0.0959771
0.0242889
0.0011804
0.115851
0.0412477
0.0162002
0.0015845
0.00486516
0.00302655
0.00920727
0.138352
0.00164914
0.00830989
0.0267075
0.0672934
0.0103683
0.0150736
0.056515
0.0220404
0.00125382
0.0236031
0.080412
0.00654076
0.0802925
0.0113807
0.00981384