/*--------------------------------*- C++ -*----------------------------------*\
| =========                 |                                                 |
| \\      /  F ield         | OpenFOAM: The Open Source CFD Toolbox           |
|  \\    /   O peration     | Version:  v2012                                 |
|   \\  /    A nd           | Website:  www.openfoam.com                      |
|    \\/     M anipulation  |                                                 |
\*---------------------------------------------------------------------------*/
FoamFile
{
    version     2.0;
    format      ascii;
    class       volVectorField;
    location    "500";
    object      U_0;
}
// * * * * * * * * * * * * * * * * * * * * * * * * * * * * * * * * * * * * * //

dimensions      [0 1 -1 0 0 0 0];


internalField   nonuniform List<vector> 
13851
(
(1.20341 0.184766 1.41767e-19)
(1.10391 -0.00744724 -4.96447e-20)
(1.10111 -0.00640263 3.10888e-21)
(-0.21325 -0.0260804 0)
(1.00311 -0.000670025 3.91461e-21)
(1.12358 -0.026223 -8.30439e-20)
(1.06289 0.0451248 3.37101e-20)
(1.0176 -0.000832369 -1.53563e-20)
(0.141693 0.0866344 -2.72433e-20)
(0.992782 -0.0207776 4.61169e-21)
(1.2534 -0.112675 -8.99451e-20)
(1.00323 -0.0135849 0)
(0.985328 -0.038798 0)
(-0.148494 0.0164733 0)
(1.14019 0.0681663 5.46785e-20)
(1.04977 0.171363 5.36472e-21)
(-0.399865 -0.0287527 -8.2025e-20)
(1.05033 -0.0163958 -1.42399e-20)
(1.37715 0.136103 0)
(1.20738 0.179737 -1.1375e-19)
(1.16623 0.0617826 4.00507e-20)
(1.07429 -0.111731 0)
(0.270164 -0.168729 0)
(1.00012 -0.000335871 -8.72481e-23)
(0.725154 -0.00138331 0)
(1.07576 0.13478 4.19149e-20)
(1.08574 0.24284 0)
(0.913164 0.172697 -8.62612e-20)
(0.424123 0.110374 -1.70972e-20)
(1.029 -0.0124238 5.39658e-21)
(-0.166926 -0.0386331 -4.87039e-20)
(1.06387 0.044121 -1.60421e-20)
(1.18087 0.187805 -9.40545e-20)
(0.152839 0.10509 -9.47454e-21)
(1.20512 -0.0895486 -7.00735e-20)
(0.486124 0.115258 0)
(1.00007 -0.000302481 3.37271e-22)
(0.718162 -0.101496 7.51537e-20)
(-0.178657 -0.0215123 8.35521e-20)
(1.01983 -0.0521287 4.86666e-21)
(-0.0639172 0.0479308 -1.18354e-19)
(0.473948 0.12199 8.97815e-21)
(-0.255089 -0.0173321 1.34292e-19)
(1.15494 -0.568239 0)
(0.474255 0.133263 5.38461e-21)
(1.0248 -0.0289039 1.503e-22)
(1.02039 0.0010157 -8.37567e-21)
(1.07548 0.184115 3.86203e-20)
(1.07612 -0.0647065 2.83975e-20)
(0.984618 -0.0378243 -5.72851e-21)
(-0.467533 -0.025723 -1.8442e-19)
(0.97607 -0.0339366 1.5068e-20)
(1.05279 0.171752 0)
(1.0815 0.0754148 0)
(-0.0335624 0.02256 -2.76692e-20)
(1.01867 -0.052695 -6.07067e-21)
(1.18534 0.190793 1.21728e-19)
(-0.0969058 0.0381788 1.61087e-19)
(1.04686 0.221645 0)
(-0.321655 -0.000551286 9.13976e-21)
(1.00296 -0.0129094 3.67364e-23)
(1.08431 0.237619 5.76246e-20)
(0.995876 -0.0120991 7.4286e-21)
(1.07733 -0.0675953 -1.87539e-20)
(0.908107 -0.53099 8.17834e-21)
(0.887819 -0.552839 -1.02812e-21)
(-0.351182 -0.00629272 0)
(0.700985 -0.188238 7.57752e-20)
(1.0376 -0.0492725 0)
(-0.194938 -0.0297495 -1.34948e-19)
(-0.23754 -0.0334741 -1.43348e-20)
(1.1846 0.07336 -7.00586e-21)
(1.00124 -0.0418797 9.22062e-22)
(-0.328223 -0.00207884 -1.02381e-20)
(1.09618 0.076261 0)
(1.04732 -0.0931436 -2.59739e-21)
(-0.375983 -0.032879 5.98929e-20)
(1.02756 -0.00421449 -4.04188e-21)
(0.807863 0.00305136 2.46827e-20)
(1.01106 -0.0260615 0)
(1.03944 -0.0496285 1.04756e-20)
(1.42591 -0.11181 4.88281e-21)
(1.19956 -0.0922654 5.75572e-20)
(-0.168105 0.017169 0)
(-0.303895 0.00187782 1.76873e-20)
(-0.190712 -0.0367637 -4.88358e-20)
(1.07887 -0.112751 2.35935e-20)
(0.185794 0.0296015 5.82847e-21)
(0.994574 -0.025193 0)
(-0.162769 -0.0369629 5.78002e-20)
(0.974485 -0.0335602 -3.37633e-20)
(1.06591 0.0447386 -1.83462e-20)
(-0.358877 -0.0234494 1.60396e-19)
(-0.215344 -0.0353526 -1.09661e-19)
(-0.248023 -0.0170665 -1.62232e-19)
(1.14055 -0.52542 0)
(1.0192 -0.0327518 0)
(1.06211 0.180382 -2.95069e-20)
(-0.451665 -0.0210025 2.28577e-19)
(1.31905 -0.247143 0)
(1.06284 0.184122 0)
(0.820297 -0.171887 -2.82887e-20)
(0.823917 -0.20713 4.64694e-20)
(0.997268 -0.0455204 4.20258e-21)
(1.02927 -0.0271842 -5.67621e-21)
(1.19956 0.0438501 -1.49892e-20)
(1.02825 -0.0271372 5.0612e-21)
(-0.219284 -0.0351956 6.85043e-20)
(1.06682 0.0434568 -1.81921e-20)
(1.04888 -0.0160404 2.10958e-20)
(1.06488 -0.162561 6.82015e-21)
(1.02592 -0.0291142 4.45644e-21)
(1.35732 0.0178036 2.84637e-20)
(1.25767 -0.0251926 0)
(1.14469 0.194538 0)
(1.0815 0.0726866 0)
(1.02027 -0.00914183 0)
(1.01826 -0.000924142 1.00731e-20)
(-0.226073 -0.0245103 0)
(-0.165947 -0.0323864 0)
(1.17701 -0.440932 0)
(1.04034 -0.0142863 -1.54666e-20)
(1.03169 -0.0516015 0)
(-0.171797 0.0304895 -4.67061e-20)
(1.30961 0.173737 5.96069e-20)
(0.624794 -0.278324 -5.86573e-20)
(1.01967 -0.032134 0)
(1.20449 -0.183709 -7.61673e-22)
(-0.0267825 0.065827 1.12544e-19)
(1.15915 0.0857623 6.56282e-21)
(1.07029 -0.114789 0)
(1.15463 -0.0644932 6.6284e-20)
(0.883748 -0.126768 1.34713e-19)
(0.13736 0.101919 0)
(1.2603 -0.108478 1.10209e-19)
(-0.249384 -0.0175332 -8.46786e-20)
(0.713274 -0.179366 1.15303e-19)
(-0.204808 -0.0357417 0)
(0.857011 -0.13787 4.24985e-20)
(1.14854 0.0901199 4.42601e-20)
(1.41763 -0.116667 0)
(0.985535 -0.0685384 -1.22284e-20)
(0.993861 -0.0257038 1.47996e-21)
(0.76245 -0.383139 5.39176e-20)
(0.733287 0.036711 0)
(1.03005 -0.0938099 1.02272e-20)
(1.02707 -0.00377571 -7.76487e-21)
(-0.206037 -0.0357052 1.10324e-19)
(0.186862 0.069169 0)
(1.21156 -0.186779 2.64253e-20)
(1.06652 0.185061 0)
(1.3536 0.0121683 0)
(1.26462 -0.0236048 0)
(1.33682 0.136584 1.33826e-19)
(0.977384 -0.0448764 7.63097e-21)
(0.985422 -0.0258502 1.3506e-20)
(1.00274 -0.0106423 0)
(-0.207235 -0.0241449 0)
(1.14639 0.0818423 -2.17659e-20)
(1.07577 0.0295866 -2.40494e-20)
(1.00023 -0.000778175 1.39085e-21)
(0.448308 0.111367 2.19305e-20)
(1.1941 0.0448349 -1.42145e-20)
(1.07908 0.184668 3.23435e-20)
(-0.142825 0.0142267 0)
(0.274977 0.116276 9.89868e-21)
(0.287464 0.120981 0)
(-0.445743 -0.0246491 2.24594e-19)
(1.06506 -0.156431 -4.42873e-20)
(0.389278 0.0844381 0)
(1.0024 -0.0120856 -3.23475e-22)
(1.02007 -0.00864698 3.51784e-21)
(1.22893 0.0394044 0)
(1.00166 -0.000635292 1.85031e-21)
(-0.223179 -0.0130019 1.4553e-19)
(1.15962 0.261459 8.19588e-20)
(1.0857 0.20068 0)
(1.02073 -0.00841527 1.21714e-20)
(1.09155 0.0776431 -2.32832e-20)
(1.08437 0.196747 -1.81464e-20)
(1.29863 0.172427 0)
(1.16349 -0.5478 0)
(1.07104 -0.146893 -3.54963e-20)
(1.15493 0.0851147 -1.80114e-20)
(-0.293165 -0.0204107 -2.50841e-19)
(0.200563 0.0720222 1.68978e-20)
(1.1764 0.191856 -3.0427e-20)
(0.897425 -0.108631 0)
(0.982263 -0.0444092 1.1063e-20)
(1.02843 -0.0190247 -5.41676e-21)
(0.836329 0.0410747 -1.19115e-19)
(1.14873 0.0797266 1.5745e-20)
(-0.172499 0.00741232 -9.21824e-21)
(1.12525 -0.0224794 3.43507e-20)
(1.0317 -0.0908685 0)
(1.05734 0.17612 -3.42999e-21)
(1.17188 0.188812 0)
(1.06025 0.000811528 -9.97269e-21)
(1.06116 -0.0258348 4.28076e-21)
(0.718797 -0.224773 0)
(1.41367 -0.134273 -9.09143e-21)
(-0.218941 -0.00131753 7.91977e-20)
(-0.118158 0.0357944 -5.74759e-20)
(1.13653 0.0689997 0)
(0.986286 -0.829525 0)
(-0.251993 -0.0032539 0)
(0.940543 -0.0520368 0)
(1.12812 0.0998952 -1.17384e-20)
(0.123932 0.0871217 -4.32267e-20)
(1.11703 -0.0397208 0)
(1.04598 0.167337 4.92686e-20)
(1.03056 -0.0506993 0)
(1.42293 -0.129298 1.1245e-20)
(1.00027 -0.00371352 -5.75736e-22)
(1.21049 -0.0781421 0)
(1.05354 -0.102183 0)
(0.985751 -0.0361294 4.96522e-21)
(1.23201 0.214788 -6.0157e-20)
(1.06332 -0.0122282 -1.80378e-20)
(0.182829 -0.642329 4.43615e-20)
(1.02065 -0.00788632 -7.317e-21)
(1.21846 0.175644 7.00075e-20)
(-0.196041 0.0109357 0)
(-0.238223 -0.0167839 0)
(0.911423 -0.117121 -5.09426e-20)
(1.12644 0.101842 2.38394e-20)
(1.00007 -0.00187671 2.24783e-22)
(0.764717 -0.360124 -3.06054e-20)
(1.00533 -0.0209754 0)
(1.20533 -0.0804131 0)
(-0.105181 -0.0374428 -1.59044e-19)
(0.903644 -0.108769 0)
(1.1162 -0.0365534 0)
(0.996294 -0.00920143 0)
(-0.133363 0.0339287 0)
(1.02978 -0.0118949 -1.03009e-20)
(0.671305 -0.368717 -8.99358e-20)
(-0.139119 0.0292755 7.78178e-22)
(1.30952 -0.239938 -9.74633e-20)
(1.00016 -0.000745915 0)
(1.40089 -0.403741 -1.17816e-19)
(-0.291812 0.0015707 -1.64433e-20)
(0.519906 0.142599 -9.38926e-21)
(1.04877 0.167764 -5.82174e-20)
(1.15562 0.0235769 3.1319e-20)
(0.724956 -0.418283 -3.76557e-20)
(1.23538 0.208901 1.09961e-19)
(1.0897 0.0794183 2.34288e-20)
(1.14426 -0.505213 0)
(1.08961 -0.163081 1.64986e-20)
(0.0667329 0.020875 -4.23485e-20)
(1.27693 0.132222 -1.99825e-20)
(1.0142 -0.000988334 -1.50466e-20)
(1.11602 0.0118752 1.8485e-20)
(1.05852 0.180044 3.38422e-20)
(0.434917 0.105899 -1.13312e-20)
(0.32839 0.0426996 -1.51301e-21)
(1.02764 -0.018212 -1.83225e-20)
(0.599853 -0.274827 3.09726e-20)
(0.995681 -0.0257387 1.00616e-20)
(1.17979 0.220064 0)
(1.31722 0.159471 -1.10957e-19)
(1.11871 0.0135534 0)
(1.19364 0.051505 4.08384e-21)
(1.28471 0.132044 0)
(1.00709 -0.0374385 -9.14916e-22)
(0.816394 -0.182823 -2.36148e-21)
(1.08771 0.176815 8.41411e-21)
(1.03007 0.207335 6.85128e-20)
(0.999446 -0.0167396 4.13257e-21)
(0.985305 -0.0350868 -2.70855e-21)
(0.905401 -0.116368 2.97867e-20)
(0.232282 0.119373 -1.24068e-20)
(-0.268028 -0.0206345 2.46309e-19)
(1.17082 0.0731725 2.93452e-20)
(1.04185 -0.0146065 -9.54408e-21)
(1.29633 0.181578 0)
(1.32705 0.148369 0)
(1.15509 0.182822 -4.85602e-20)
(1.18953 0.0524228 -3.43189e-21)
(0.192633 0.108677 0)
(-0.429494 -0.0163443 1.08247e-19)
(1.12721 0.00132947 -1.24821e-20)
(1.1315 0.0603356 -3.61736e-20)
(0.669193 -0.11629 0)
(1.03155 -0.0252753 0)
(1.00284 -0.00998294 4.58934e-23)
(1.15992 0.185649 5.49725e-20)
(1.23009 -0.135199 0)
(1.03148 -0.0116125 1.48412e-22)
(1.0003 -0.00360312 -6.37235e-23)
(1.00522 -0.0216474 3.56902e-22)
(1.00629 -0.000897903 5.32541e-21)
(1.14655 0.038314 2.86503e-20)
(1.00301 -0.0106805 4.40059e-23)
(0.153517 0.0915779 2.88643e-20)
(1.16925 0.0651352 -2.56547e-20)
(1.0241 -0.042895 8.20582e-21)
(0.448115 0.105215 -3.94179e-21)
(-0.185834 0.0265937 0)
(0.978704 -0.0392616 -6.87721e-21)
(1.21489 0.181292 0)
(-0.466147 -0.0236074 2.63322e-19)
(0.984742 -0.0714613 -7.11196e-21)
(0.977059 -0.0390557 1.57051e-20)
(1.17415 0.065555 0)
(-0.212535 0.00768423 0)
(0.0055437 -0.0363482 7.31365e-20)
(1.22978 0.0651459 6.81153e-20)
(1.00344 -0.000873414 2.09619e-21)
(0.427864 0.0926997 0)
(1.00267 -0.0127733 4.0008e-24)
(1.24151 0.0650196 9.81415e-20)
(-0.442471 -0.0220437 -2.32016e-19)
(1.05202 0.216278 -3.89713e-20)
(1.07425 0.0284208 1.80071e-20)
(0.794891 -0.147057 0)
(1.19837 -0.183923 1.39626e-20)
(-0.204725 -0.035492 1.53176e-19)
(1.3546 -0.00274036 3.67416e-21)
(0.787664 -0.152132 -2.1437e-21)
(-0.208103 -0.0164692 8.67809e-20)
(-0.125248 0.0437988 0)
(0.941861 0.171629 9.2738e-20)
(1.06325 -0.0264035 0)
(-0.320367 -0.029838 -1.3219e-19)
(0.0911808 0.0121464 0)
(0.479409 -0.541888 -6.00347e-21)
(0.513585 -0.546366 3.9693e-20)
(0.939438 -0.0534923 0)
(1.23582 0.0492468 1.74302e-19)
(0.968293 -0.157106 9.13693e-21)
(0.199013 0.0324195 -6.79615e-21)
(0.797142 -0.201913 0)
(1.01151 -0.0024803 0)
(1.02071 0.00108331 1.19652e-20)
(1.11454 -0.0925684 -2.07886e-20)
(-0.226084 -0.0369707 -2.0654e-19)
(0.234626 -0.645931 -3.84749e-20)
(1.03132 -0.0241525 0)
(-0.255428 -0.0173544 0)
(0.955649 -0.155697 1.12245e-20)
(1.15625 -0.0688326 -7.35636e-20)
(1.07553 0.0312683 2.61014e-20)
(-0.225267 0.002411 0)
(1.28855 0.181587 7.12752e-21)
(1.05371 0.175661 1.85287e-21)
(1.05013 -0.0998828 -2.64246e-21)
(1.11209 -0.0361073 -4.7875e-20)
(0.573635 0.116612 -1.37458e-20)
(0.982551 -0.0462048 -1.33767e-20)
(1.33944 0.145739 0)
(1.12433 0.00282748 5.18021e-21)
(1.17714 0.0631557 0)
(0.949581 -0.158631 0)
(0.99503 -0.0260706 -1.02955e-20)
(1.02495 -0.0419654 0)
(1.35498 -0.100458 0)
(1.3299 -0.242757 -6.11137e-20)
(1.26877 0.141346 -1.68181e-19)
(1.00259 -0.151027 -1.43157e-19)
(0.584967 0.120464 2.8716e-21)
(1.03205 -0.0953273 -1.8768e-20)
(-0.156314 0.0285832 1.50766e-19)
(1.18679 0.232918 0)
(1.03571 -0.00418092 0)
(1.01674 0.215949 0)
(1.20507 0.141307 -2.8153e-20)
(-0.430904 -0.0187092 -1.02714e-19)
(1.11126 -0.0895134 5.10491e-20)
(1.06178 0.134848 -9.69708e-21)
(1.04808 0.218134 0)
(0.789971 -0.0605027 -2.76204e-19)
(1.34692 -0.114943 2.01464e-19)
(0.17355 0.0324202 0)
(1.07153 -0.0404044 -7.95371e-21)
(1.17026 0.268807 -9.93048e-20)
(-0.364079 -0.0248656 -1.55506e-19)
(1.15095 0.00101365 0)
(0.0899728 0.0299383 -1.22626e-20)
(1.16328 -0.00035508 -1.78674e-20)
(-0.11031 0.0288697 3.25828e-20)
(1.13061 0.0577484 4.95729e-20)
(1.07225 0.0984132 -2.73498e-20)
(1.29049 0.118518 1.67677e-19)
(1.3637 -0.216538 9.3719e-20)
(0.985857 -0.0268031 -9.72136e-21)
(1.12461 -0.00832664 -4.84827e-21)
(1.2361 -0.139321 1.25996e-21)
(1.09438 0.0783359 2.85802e-20)
(1.02335 -0.0323052 -6.73238e-22)
(1.1695 0.0773441 -5.47942e-20)
(0.438677 0.158317 2.11814e-20)
(1.00206 -0.0415642 -5.54292e-21)
(1.13213 0.098772 0)
(-0.232129 -0.0247421 0)
(1.10114 -0.0344944 0)
(1.2321 -0.532367 1.10515e-19)
(1.09255 0.105885 -2.35667e-21)
(0.037778 -0.0352221 4.49596e-20)
(1.12119 -0.0413607 4.0299e-20)
(1.0767 0.131944 0)
(0.951721 -0.79663 0)
(1.32069 0.165992 9.1766e-20)
(1.20152 0.0333659 2.90289e-20)
(0.304662 0.0352188 0)
(-0.319051 -0.00311775 -1.87885e-20)
(1.39633 -0.41801 9.93339e-20)
(1.0062 -0.0377543 -2.10516e-22)
(1.35055 -0.0947816 0)
(1.16725 -0.0114349 0)
(1.06487 0.134674 4.59705e-20)
(1.03917 -0.0172809 0)
(-0.271307 -0.0173486 0)
(0.355103 0.133537 -4.45372e-20)
(0.75596 -0.0323093 -8.05393e-21)
(1.11092 -0.0332268 3.83208e-20)
(1.29086 0.124098 -1.72409e-19)
(1.10395 0.244829 6.14431e-20)
(-0.256865 -0.022137 -2.84923e-19)
(1.02869 0.00120543 1.09999e-20)
(-0.354159 -0.0262945 0)
(1.38424 -0.201026 -1.48982e-19)
(0.118684 -0.101285 1.37061e-19)
(1.09555 -0.166233 -2.64205e-20)
(0.841129 0.112695 0)
(0.991607 -0.0331579 -3.76949e-21)
(1.00193 -0.000543921 2.03023e-21)
(-0.0412721 0.0163779 3.82784e-20)
(1.11541 0.248886 3.79628e-20)
(0.9922 -0.0217346 0)
(1.10422 -0.00986972 5.03451e-20)
(1.13569 0.0998012 1.30216e-20)
(1.01833 -0.0103933 6.42381e-21)
(0.43009 0.145449 4.52984e-20)
(1.23578 0.0548943 -1.4571e-19)
(1.20644 0.137605 0)
(1.09941 0.0342718 -1.06171e-21)
(1.07207 -0.0385315 0)
(0.973126 -0.027991 1.54868e-20)
(0.864554 -0.0714659 1.33121e-19)
(1.02241 -0.0422203 5.81656e-21)
(0.973924 -0.0265635 -1.37363e-20)
(0.939961 0.20725 7.57731e-21)
(0.471728 0.160896 0)
(1.0658 -0.112185 -1.93774e-20)
(1.0593 0.217233 -6.85302e-22)
(0.995961 -0.0113094 9.5516e-22)
(1.00308 -0.0100175 9.71373e-22)
(1.10477 -0.0351555 -1.24641e-20)
(1.2749 0.141432 2.08214e-19)
(1.0845 0.105614 0)
(1.0237 -0.0343252 0)
(1.08267 -0.0244562 3.22629e-20)
(1.17891 -0.428607 -5.11215e-20)
(1.08899 -0.00147512 -3.30378e-20)
(0.060953 -0.0407002 -4.93663e-20)
(1.00329 -0.0125637 8.10212e-22)
(1.09109 0.0547229 -4.18458e-20)
(0.479063 0.135688 -1.67968e-20)
(0.963526 -0.20784 1.58587e-20)
(1.02162 0.000152187 -6.21742e-21)
(1.00172 -0.011603 -9.34235e-22)
(1.09953 0.0323389 0)
(1.06357 0.00380292 2.13765e-20)
(1.35709 -0.470718 -1.91291e-21)
(0.875709 0.194581 -2.45915e-20)
(1.15675 0.026844 -6.35053e-20)
(0.360665 -1.24153 1.64e-20)
(1.10688 -0.0324475 1.29405e-20)
(1.0028 -0.0179127 0)
(0.0359224 0.0804489 0)
(1.05318 0.220128 -2.33615e-20)
(0.892185 -0.171879 0)
(1.00465 -0.0458007 1.87329e-21)
(-0.137693 0.0403946 1.41478e-20)
(0.867613 -0.142694 0)
(1.12439 -0.677822 0)
(0.996247 -0.0446876 0)
(1.15814 -0.0558247 6.58202e-20)
(1.35392 -0.11089 -2.11027e-19)
(1.10812 0.0791891 -1.95871e-20)
(-0.0864043 0.053288 0)
(1.10144 0.245737 -8.64123e-20)
(0.83012 -0.0407829 -2.86742e-20)
(0.993323 -0.0983529 -3.27353e-21)
(1.35846 0.00325197 0)
(1.00885 -0.0385909 0)
(0.411665 0.105613 9.72536e-21)
(1.09478 0.104782 0)
(1.16758 0.189701 4.02809e-20)
(1.1642 -0.00856166 0)
(1.05023 -0.0957007 -8.16616e-21)
(0.970814 -0.20412 1.01156e-20)
(1.22949 0.046189 0)
(1.00278 -0.000809022 -4.54219e-21)
(-0.293852 -0.0226522 3.47408e-19)
(1.48344e-05 0.0712665 -1.31622e-20)
(0.0828892 -0.0411221 8.16612e-20)
(-0.188851 -0.0142683 0)
(0.889515 0.19967 2.2229e-20)
(-0.371575 -0.0273455 -1.13522e-19)
(1.32994 0.156281 0)
(0.92419 -0.119484 6.60735e-23)
(0.999947 -0.00629491 0)
(1.06782 -0.470689 -1.26452e-19)
(0.992591 -0.0199662 -2.47096e-21)
(1.02271 -0.031535 2.09155e-21)
(0.919993 -0.138784 -2.30275e-20)
(-0.206364 -0.0102414 -2.89215e-20)
(1.09722 0.00257444 0)
(0.979461 -0.0642222 0)
(1.13248 -0.346417 0)
(1.21691 -0.00662474 -8.06209e-20)
(0.989439 -0.0160758 9.41787e-22)
(0.285561 0.00103053 7.02109e-20)
(1.01726 -0.0319391 2.61329e-21)
(0.0303484 0.0787505 0)
(1.35972 -0.456368 0)
(1.0118 -0.0267095 0)
(1.08492 0.0142191 1.88945e-20)
(1.39926 -0.16745 -1.67045e-19)
(0.994982 0.207577 3.73357e-20)
(1.03083 -0.0122657 -1.0864e-22)
(0.519418 -0.0687426 1.41359e-19)
(0.791592 -0.332314 6.82683e-20)
(1.03714 0.00568431 2.68294e-20)
(-0.199587 -0.0303422 0)
(1.37515 0.139844 -1.09377e-21)
(1.22861 0.170159 -7.94001e-20)
(0.991223 -0.0965662 0)
(0.950029 0.212131 0)
(-0.376178 -0.00901507 -1.75456e-19)
(1.03819 0.00570192 -1.06481e-20)
(1.40869 0.0367366 0)
(1.03454 -0.0504224 3.77926e-21)
(1.01806 -0.0325239 2.62113e-21)
(1.00314 0.192578 0)
(-0.106845 0.0287729 0)
(1.18763 -0.00705222 1.00046e-19)
(1.08253 0.104169 -2.01786e-21)
(0.991639 -0.0188875 0)
(1.09516 0.126056 0)
(0.00964559 0.0735581 -5.88758e-20)
(-0.218068 -0.0208181 0)
(1.04431 0.00273952 2.48052e-20)
(-0.396677 -0.0269456 0)
(1.02298 -0.0336514 6.17065e-22)
(1.03639 -0.0509662 -4.62456e-21)
(1.2028 0.0374673 2.32896e-20)
(1.08148 0.0599476 2.40011e-21)
(1.02869 0.00174837 0)
(1.04365 -0.0938806 0)
(-0.191264 -0.0302831 0)
(1.35811 -0.212314 7.11706e-20)
(-0.214468 -0.0302746 0)
(1.09421 0.000918735 5.3812e-21)
(0.996128 -0.0264883 -1.52788e-22)
(0.271349 0.124558 2.59735e-20)
(0.999955 -0.00846937 -5.59882e-21)
(1.35434 -0.0793035 2.6006e-19)
(1.10159 0.0472449 -5.01508e-20)
(1.10106 0.0744731 -7.42027e-20)
(1.15858 0.0159658 8.21498e-20)
(0.628873 0.163399 2.76581e-21)
(-0.409936 -0.0138407 -9.77637e-20)
(1.12269 -0.0158544 -3.40494e-20)
(-0.342184 -0.0266057 2.73789e-19)
(1.0739 0.0243833 -5.04863e-20)
(1.24892 0.0233729 -9.23811e-20)
(0.48343 0.12677 9.6056e-21)
(-0.00412803 0.0347673 2.76286e-20)
(1.02686 -0.0531834 0)
(1.00793 -0.0387909 0)
(0.832244 -0.216071 0)
(-0.210217 -0.0294651 2.77166e-20)
(1.0428 0.195346 0)
(1.0931 0.12395 7.95534e-21)
(0.947464 -0.548989 -1.69709e-19)
(1.08042 0.0612072 0)
(1.12656 0.0578292 0)
(-0.0592148 -0.040587 0)
(0.243405 -0.00646971 -1.43393e-19)
(1.14766 -0.415839 -8.3914e-20)
(0.0140874 0.0758271 -4.93802e-20)
(1.13129 0.219097 6.68883e-20)
(0.582178 0.128683 -8.60691e-21)
(1.06551 -0.0400468 1.21116e-20)
(1.04344 0.220715 1.31578e-20)
(0.947225 0.1201 0)
(1.00192 -0.0160628 1.96393e-21)
(-0.50978 -0.0298455 -1.59595e-19)
(0.120904 0.0165336 -1.04886e-19)
(1.07133 -0.153619 1.99888e-20)
(1.15286 0.0897278 -3.99686e-20)
(1.0139 -0.0502501 8.52499e-22)
(0.48433 -0.94431 -2.03964e-20)
(1.22356 -0.231303 8.90064e-20)
(0.274356 -0.117152 -9.44818e-20)
(1.02176 -0.0431415 -4.19689e-21)
(1.00116 -0.00075508 1.65822e-21)
(0.917079 -0.0848416 0)
(1.21477 -0.0116139 7.43866e-20)
(1.00327 -0.0120473 -4.40604e-22)
(-0.2328 -0.0123539 4.4046e-20)
(1.00136 -0.000896252 -1.79667e-21)
(1.13495 0.217428 -5.82571e-20)
(0.985076 -0.0959064 -8.11901e-21)
(1.06602 0.137162 -3.03212e-20)
(0.998255 -0.0446641 -3.02544e-21)
(0.988731 -0.0164995 -1.18539e-21)
(1.15466 -0.19665 -1.24955e-20)
(-0.396741 -0.0289788 0)
(1.20529 0.0238823 -1.44867e-20)
(-0.264695 -0.0177719 9.5002e-20)
(1.15907 -0.0604824 -8.24246e-20)
(1.01882 -0.0117038 1.4733e-23)
(1.0406 -0.00634388 -1.75274e-20)
(1.23418 0.0361809 0)
(1.08139 -0.0263709 -1.84876e-20)
(1.30949 0.000176743 -1.04328e-20)
(1.10461 0.00112206 0)
(0.89125 -0.163432 0)
(1.04005 0.215284 -7.61701e-21)
(0.999804 -0.00832946 3.6785e-21)
(0.352593 0.0349662 -6.71485e-21)
(1.00015 -0.00253102 2.36542e-22)
(1.05504 0.149283 -3.37599e-20)
(-0.326658 -0.0258519 0)
(0.390192 0.132562 -1.30573e-20)
(0.884772 -0.0692704 -6.93717e-20)
(0.452678 -0.182376 2.6156e-19)
(1.11884 -0.345436 -4.03728e-20)
(1.31931 -0.307225 0)
(0.09965 0.0157202 1.82903e-19)
(1.04804 0.00235008 0)
(0.217157 -0.00555331 1.31765e-19)
(0.962435 -0.160544 -1.0475e-20)
(1.15533 0.00176239 3.46993e-20)
(-0.182084 -0.0169792 -2.11349e-19)
(1.00374 0.0403122 0)
(1.03653 -0.00465566 1.00857e-20)
(1.30513 -0.00409313 0)
(1.05887 0.00167689 0)
(0.534194 0.117449 9.31591e-22)
(-0.459052 -0.0292384 1.69084e-23)
(1.04335 -0.0510729 -9.43516e-22)
(0.699868 -0.214109 -7.72296e-20)
(0.3952 0.128373 -1.05298e-19)
(1.00004 -0.00237455 0)
(1.00006 -0.00316204 0)
(1.07307 0.135477 -5.94017e-20)
(0.33054 0.02903 7.54863e-21)
(1.00492 0.223941 0)
(0.976916 -0.0374854 -3.13707e-20)
(1.29873 0.107416 5.32386e-21)
(1.08641 -0.0021566 6.68224e-20)
(0.987827 -0.0182377 -7.67719e-21)
(1.03351 0.21117 0)
(1.29856 0.113884 0)
(1.32437 -0.223418 5.25106e-20)
(1.02683 0.00113261 -1.38922e-20)
(1.0915 0.177235 -1.14454e-20)
(0.932067 -0.264255 1.75018e-20)
(1.07584 0.126079 -1.47688e-20)
(0.96063 -0.044878 -3.05534e-20)
(1.0295 -0.0879486 1.85795e-21)
(1.2134 -0.230761 -1.07477e-19)
(0.921571 -0.0851914 -3.26474e-20)
(1.08189 0.180483 0)
(1.17935 0.0746762 4.09037e-20)
(1.18624 0.0686141 0)
(1.13383 -0.400345 5.41113e-20)
(1.23171 -0.78023 2.68589e-20)
(1.3838 0.12736 -4.33429e-20)
(0.62173 0.19667 2.74018e-22)
(0.607829 -0.0687042 -6.47031e-20)
(1.06968 0.18344 0)
(-0.114548 0.0289214 4.34192e-20)
(1.06521 -0.22015 -4.1934e-20)
(0.988704 0.192829 0)
(1.22546 0.176286 -8.96482e-21)
(1.0462 -0.0193307 6.36956e-21)
(1.12506 0.0548827 0)
(1.36033 0.121883 -3.58946e-20)
(1.09812 -0.102804 -1.63242e-21)
(1.0109 -0.025099 -2.58885e-21)
(1.01123 -0.0235932 2.82251e-21)
(1.05943 0.15219 2.39504e-20)
(0.169618 0.0276047 1.55843e-21)
(1.09364 0.0554192 3.98446e-20)
(-0.173826 0.0227445 -7.25335e-20)
(1.01869 -0.0122408 8.33943e-22)
(0.9817 0.222888 0)
(1.04645 -0.448981 4.02471e-20)
(-0.471034 -0.0243783 0)
(1.30516 -0.0139878 0)
(1.12445 -0.0399016 -4.20587e-20)
(1.10133 -0.00350042 -5.57354e-20)
(-0.453053 -0.0225192 0)
(1.32826 -0.216546 0)
(1.06518 -0.211736 1.92672e-20)
(1.11174 0.250301 -4.36435e-20)
(1.06976 -0.0361147 -2.3719e-20)
(1.1283 -0.441808 0)
(1.05647 0.152093 -1.13718e-20)
(1.14118 0.219127 9.21783e-20)
(1.16449 -0.0287839 5.31367e-20)
(1.4245 -0.190881 0)
(0.992483 -0.0333686 1.59769e-22)
(1.00018 -0.00299362 -9.70774e-22)
(0.943909 -0.0507813 1.91337e-20)
(0.987411 -0.0194 -1.79529e-21)
(0.450107 0.123084 1.07419e-20)
(1.00594 -0.00109731 -6.64591e-21)
(1.03342 0.207844 8.84766e-21)
(0.224243 0.11539 1.43559e-20)
(1.31072 -0.0169329 0)
(-0.207997 -0.0185202 -4.43029e-20)
(-0.436237 -0.0192264 -1.36707e-19)
(1.1459 0.222539 -5.11514e-20)
(1.33228 -0.303521 0)
(0.888623 -0.0763233 0)
(0.998575 -0.00559779 1.53159e-20)
(0.986432 -0.0337083 -2.15261e-20)
(1.02645 -0.00484758 -1.19025e-21)
(1.03975 -0.00674634 1.79012e-20)
(1.00159 -0.000829771 3.89792e-21)
(1.24568 0.0357189 0)
(1.3478 0.0309393 0)
(0.929354 -0.277417 -1.7259e-20)
(0.976499 0.182876 -8.55095e-20)
(1.04848 -0.0790605 0)
(0.117819 0.083074 0)
(0.999934 -0.000476063 0)
(-0.188316 -0.02804 0)
(1.18833 -0.100441 7.62898e-20)
(0.999833 -0.00099035 -1.78533e-21)
(0.997063 -0.0086661 -6.91443e-21)
(0.35683 0.129646 4.19429e-21)
(1.12554 -0.028665 7.59079e-20)
(0.972662 0.246885 3.73917e-20)
(0.13745 0.0186051 -1.44608e-19)
(1.14595 0.0873369 3.08494e-20)
(1.19577 0.108515 0)
(1.03591 0.00669015 5.67678e-22)
(0.109289 0.0945597 1.0283e-20)
(1.00581 -0.109321 3.00216e-21)
(1.0994 0.00100818 -1.31539e-20)
(1.03753 0.214417 -2.76541e-21)
(0.998676 -0.00604919 -5.42048e-21)
(0.983772 -0.066777 1.2098e-20)
(1.04722 -0.00544925 0)
(1.10043 0.104331 -8.16735e-22)
(0.11393 0.0263834 1.78958e-20)
(1.1449 -0.0566485 0)
(1.16517 -0.0198447 -3.51014e-20)
(1.39188 -0.211708 2.04739e-19)
(-0.244664 -0.0221414 0)
(0.894031 -0.0996031 0)
(1.01259 -0.137046 0)
(0.542706 0.130794 -1.69957e-20)
(1.02583 -0.00471188 1.12999e-21)
(0.531417 0.126649 0)
(1.00064 -0.00192553 -3.08681e-21)
(1.08912 0.0013843 9.56167e-21)
(0.831013 0.0108425 0)
(1.12395 0.154212 1.76876e-20)
(1.14949 0.191933 0)
(1.29772 -0.110959 0)
(1.20646 0.0287006 -2.43766e-20)
(0.999575 -0.00411685 0)
(0.999967 -0.000447212 0)
(1.2559 0.0251818 -6.83385e-21)
(1.06753 -0.0393424 0)
(0.999648 -0.00352428 2.93232e-21)
(1.08818 0.0614966 -6.18479e-22)
(1.365 -0.260162 1.55052e-19)
(1.0074 -0.00792757 8.272e-21)
(1.30295 -0.323551 8.01016e-21)
(1.28247 -0.531418 -1.11479e-19)
(1.0272 0.246941 4.21672e-20)
(1.29612 -0.103862 0)
(-0.124987 -0.0399729 -5.36104e-20)
(0.847678 -0.14209 -4.52143e-20)
(0.998449 -0.00618257 -3.12582e-21)
(1.34226 -0.131427 -4.95913e-20)
(1.01811 -0.0130464 0)
(1.12498 -0.00493346 5.32904e-21)
(0.679302 0.209306 1.10536e-20)
(0.605161 0.119178 1.53877e-21)
(0.207845 -0.00597257 1.2756e-19)
(0.597997 0.143704 1.65292e-20)
(1.04834 -0.0504495 1.27694e-20)
(1.04295 -0.0500412 -7.25527e-21)
(1.01905 -0.34257 -1.34982e-20)
(1.02451 -0.0855599 -3.98315e-21)
(1.03339 -0.0211279 0)
(0.341566 -0.211285 -3.07463e-20)
(1.17455 0.224028 0)
(0.060246 0.0322118 1.67877e-21)
(1.05241 0.149276 5.08071e-20)
(1.12691 0.156206 0)
(0.986357 -0.021974 1.78782e-20)
(1.02893 -0.0130966 0)
(1.09059 -0.307835 2.16831e-19)
(1.21162 0.134366 -1.14173e-19)
(1.0922 0.00266334 -1.08989e-20)
(0.999779 -0.00221435 -8.53621e-21)
(1.1402 0.192777 -6.57583e-20)
(1.36933 -0.0247314 0)
(-0.161016 0.0227416 -1.1088e-19)
(0.977089 -0.0426668 -1.14563e-20)
(1.00162 -0.00535306 -2.40233e-21)
(0.0911421 0.0203335 -2.03202e-20)
(0.961346 -0.0431503 2.51019e-20)
(1.16104 0.00774883 -3.61703e-20)
(1.01774 -0.00984859 -8.11076e-21)
(-0.192848 -0.0082612 1.92783e-20)
(1.01359 -0.000596415 1.35932e-20)
(-0.32366 -0.0305609 -5.85475e-20)
(0.995943 -0.01618 -5.64315e-21)
(1.29825 -0.244116 9.57617e-20)
(1.1641 0.0487307 3.31586e-20)
(0.992346 -0.347625 0)
(1.1673 -0.0254718 -4.06483e-20)
(1.00024 -0.0409292 0)
(1.10458 -0.0143202 -1.67021e-20)
(1.00524 -0.00584018 0)
(1.02993 0.202062 1.85189e-20)
(0.966607 -0.0521336 0)
(0.349756 0.0515787 -1.47386e-21)
(1.07246 -0.0339497 -1.67929e-20)
(0.897337 0.239567 2.73772e-20)
(0.093816 0.0927462 3.85838e-20)
(1.1584 -0.0371743 0)
(1.00599 -0.00409255 3.58888e-21)
(-0.209292 -0.0276589 0)
(0.862076 0.199873 0)
(1.12632 -0.0148494 0)
(1.11923 0.15352 -6.83622e-20)
(0.986162 -0.0327121 2.07312e-20)
(0.255679 0.0300154 4.3401e-21)
(1.04754 -0.0198037 -7.22034e-21)
(1.36238 0.114447 0)
(1.00151 -0.0178477 -1.08737e-21)
(1.00567 -0.00605574 0)
(1.01219 0.254852 -3.50733e-20)
(1.1593 0.019582 -3.933e-20)
(1.00194 -0.0123733 -1.94592e-22)
(1.08346 0.0766563 0)
(-0.100853 0.0449793 0)
(0.745185 -0.896639 3.63654e-20)
(0.341476 0.118547 1.09793e-19)
(1.02658 -0.0185268 -1.12564e-20)
(-0.0909679 0.0351499 -4.31424e-20)
(0.999402 -0.017593 0)
(1.00708 -0.00750552 -5.70793e-21)
(0.979152 -0.0455109 -7.70443e-21)
(1.02075 0.00118069 -8.16808e-21)
(1.00002 -0.00456083 -2.18747e-21)
(0.256017 0.0879416 -1.22594e-19)
(0.615226 0.198454 0)
(1.06448 -0.0134948 2.39777e-20)
(1.00142 -0.0012307 0)
(1.18945 -0.00164666 0)
(1.02655 -0.028844 -1.60516e-20)
(-0.183766 -0.0311765 2.40993e-19)
(1.34939 -0.126716 0)
(-0.136698 0.0206809 -6.42853e-20)
(-0.194645 -0.0168124 4.43115e-20)
(1.10449 -0.0162658 1.785e-20)
(1.08532 0.181048 1.90355e-20)
(1.00215 -0.0168481 -2.07205e-22)
(1.16738 0.056802 -4.18641e-20)
(1.03998 -0.428828 -3.33012e-20)
(1.0468 0.00290494 5.4902e-21)
(1.00055 -0.00190121 2.94935e-21)
(1.37285 -0.373871 1.72061e-19)
(-0.449625 -0.0282524 -1.46063e-19)
(1.19078 0.10833 2.06748e-20)
(-0.403273 -0.0288648 9.26448e-20)
(1.14881 0.123303 0)
(0.996271 -0.0121523 -1.2178e-20)
(1.19721 -0.021687 -5.74479e-20)
(1.11615 0.155007 7.22441e-20)
(-0.428916 -0.0282652 3.06564e-19)
(1.1433 0.0355511 -2.78769e-20)
(1.0833 0.252507 0)
(1.21736 0.135418 1.55903e-19)
(1.00046 -0.00399663 1.52243e-25)
(0.111342 -0.0703464 2.3787e-19)
(0.0500226 -0.0512077 -2.26771e-19)
(0.156531 0.0385553 -1.65819e-20)
(0.889235 0.0374622 0)
(1.00749 0.187653 0)
(0.996759 -0.0986253 9.00548e-21)
(0.747794 -0.432321 4.08039e-20)
(0.972845 -0.0250033 0)
(1.17464 0.266641 -5.91275e-20)
(1.09607 -0.0985427 1.38525e-21)
(1.01127 -0.00199151 -7.68494e-21)
(0.279971 0.102972 1.08744e-19)
(1.04346 -0.0789202 -1.26946e-20)
(1.00585 -0.00375873 0)
(1.02844 -0.0528709 4.54659e-21)
(1.0412 -0.077005 6.32808e-21)
(-0.219886 -0.0105152 -3.22979e-20)
(1.34866 0.133922 -1.35737e-19)
(1.01907 -0.0189056 -3.98124e-21)
(1.20029 -0.0167758 6.29229e-20)
(-0.191462 0.0146075 1.09911e-19)
(1.06506 -0.0676204 1.42776e-20)
(-0.417419 -0.0280827 -2.89771e-22)
(0.966518 -0.07154 -2.19193e-20)
(1.14286 0.147845 4.86293e-20)
(-0.140462 0.0183773 -6.77467e-20)
(1.00285 -0.0111815 -3.66216e-22)
(1.03764 0.197063 -1.85741e-20)
(1.11206 -0.117434 -3.97803e-20)
(1.16339 -0.0381472 0)
(0.695875 -0.925833 4.15154e-20)
(1.04639 -0.0774402 -4.46533e-21)
(1.42067 -0.0946511 -1.61711e-19)
(1.07449 0.129497 -3.79263e-20)
(-0.0541263 0.0531006 -6.38485e-20)
(1.05775 0.0109485 1.00546e-20)
(0.267467 0.0429102 1.00672e-20)
(1.1495 -0.00359432 0)
(-0.211544 0.01856 1.11177e-19)
(-0.454772 -0.0275433 1.0958e-19)
(0.242921 0.0328149 -9.93184e-21)
(1.13935 0.0917073 0)
(0.996502 -0.0402931 6.10083e-21)
(1.04787 -0.0522086 -2.02003e-20)
(1 -0.00238841 0)
(1.07233 0.095698 0)
(0.997401 -0.0107277 3.24676e-21)
(-0.073443 0.0557406 -6.37733e-20)
(1.06558 -0.143683 2.3571e-20)
(0.939645 -0.126726 -8.2223e-21)
(0.896264 -0.0956486 0)
(0.998872 -0.0966947 1.27993e-21)
(1.02586 -0.0178729 0)
(1.06972 0.0587908 0)
(1.1059 -0.0985985 2.26357e-21)
(1.08533 0.0121497 -2.46612e-20)
(1.08057 -0.117191 0)
(0.0476556 0.0172064 1.62939e-19)
(1.02735 0.196406 1.76335e-20)
(1.14217 0.0101837 5.76573e-20)
(1.18142 -0.182338 -1.66986e-20)
(0.307243 0.104567 -1.02852e-19)
(0.980744 -0.0668327 7.86558e-21)
(-0.217462 -0.0348999 -1.30228e-20)
(1.02518 -0.00504773 -8.72507e-21)
(1.07046 -0.173731 -4.63196e-21)
(0.964433 -0.0512437 -1.40869e-20)
(1.03757 -0.0329298 0)
(1.13465 -0.201529 -4.79355e-20)
(1.00269 -0.0186116 0)