/*--------------------------------*- C++ -*----------------------------------*\
| =========                 |                                                 |
| \\      /  F ield         | OpenFOAM: The Open Source CFD Toolbox           |
|  \\    /   O peration     | Version:  v2012                                 |
|   \\  /    A nd           | Website:  www.openfoam.com                      |
|    \\/     M anipulation  |                                                 |
\*---------------------------------------------------------------------------*/
FoamFile
{
    version     2.0;
    format      ascii;
    class       volScalarField;
    location    "950";
    object      ddt0(k);
}
// * * * * * * * * * * * * * * * * * * * * * * * * * * * * * * * * * * * * * //

dimensions      [0 2 -3 0 0 0 0];


internalField   nonuniform List<scalar> 
13851
(
4.17872e-07
-0.0207668
2.26493e-06
4.18609e-07
1.61884e-06
-3.12572e-05
2.41298e-07
1.38415e-06
-3.29021e-07
5.58816e-06
-3.9528e-05
0.00269486
-2.83315e-05
0.00113405
7.36568e-09
8.57199e-07
5.70987e-07
8.65284e-07
3.20462e-06
-3.17256e-07
3.96372e-07
2.01227e-06
1.38957e-06
-2.09647e-06
1.14583e-06
1.41878e-06
4.77576e-07
0.000105089
3.90013e-07
5.70668e-07
-2.46545e-05
5.91282e-07
2.22473e-06
-0.00296758
-2.13245e-06
9.71743e-06
-1.92598e-05
1.56054e-06
6.23244e-06
-0.00477458
3.54152e-07
-2.71762e-07
-0.000135947
0.000430947
0.000755267
-0.000340663
0.0016087
-0.0054803
4.96292e-07
0.00249274
1.67185e-06
3.24003e-06
1.12098e-05
5.50372e-08
2.9885e-08
-2.47099e-07
-6.61969e-07
8.05749e-06
5.50179e-07
2.422e-07
2.01338e-06
0.00150145
-2.45524e-08
1.8635e-06
-1.05272e-05
5.47335e-07
-4.7094e-05
0.00104081
9.16003e-07
8.17136e-07
0.00167257
0.000782571
-0.0116939
7.57367e-08
1.64384e-08
-4.62755e-07
2.01356e-06
0.00171367
1.17289e-06
0.00168064
2.81678e-07
0.000334232
1.33489e-07
-0.000247616
1.18568e-06
0.00304068
6.74236e-06
-8.62615e-05
5.80511e-07
1.174e-06
6.76417e-06
-1.84719e-05
0.00104168
6.96408e-07
5.62338e-07
-2.52746e-06
1.56874e-06
0.00302127
0.00263372
-2.53773e-06
0.000425925
1.16895e-06
3.39561e-07
4.21396e-07
3.64845e-06
4.2418e-06
1.26444e-06
-2.12545e-07
0.00415369
-2.97568e-05
-3.82933e-06
2.08112e-06
-7.98643e-06
-2.86765e-06
-3.15234e-06
0.00199593
0.00311559
-3.21189e-07
-2.76359e-07
-5.86534e-08
-0.000181446
4.26236e-07
-4.97334e-05
-0.00298491
-0.0028194
1.08956e-05
-0.00701212
1.1812e-06
3.89905e-07
1.61033e-06
3.35946e-07
-1.82059e-07
0.00209896
1.18521e-07
0.00192277
-2.18886e-07
-3.29644e-07
0.000351979
-0.0031707
0.00287392
0.00025926
-1.68765e-09
-1.7648e-06
-4.4902e-07
4.72159e-07
0.000478699
6.55338e-06
1.50076e-06
2.21785e-07
0.000794111
1.87436e-06
-7.85394e-08
0.00145482
-3.85257e-07
3.98853e-07
4.66655e-07
2.09835e-08
4.72702e-07
3.26633e-06
1.67744e-06
4.52581e-07
6.53569e-07
3.0097e-05
-1.88969e-07
7.59793e-07
-3.31342e-07
7.9974e-06
9.2174e-07
3.77769e-07
0.00168057
0.00145019
-7.77108e-08
3.86504e-08
0.00279131
-1.90803e-07
-0.000344779
1.16863e-06
1.92212e-06
4.90367e-06
-1.46002e-07
6.46553e-07
0.000694866
9.44509e-08
1.9326e-06
-4.62361e-08
-5.40898e-07
5.447e-07
-1.30454e-08
1.66368e-06
-3.03873e-06
0.00110289
1.19364e-05
2.81455e-06
9.46578e-07
0.00121905
3.9967e-07
-2.13836e-06
-0.000246875
1.49749e-06
-4.62944e-07
1.11263e-05
0.000994355
2.74377e-07
1.47606e-07
1.17533e-07
1.07262e-07
-0.0031664
5.73874e-07
0.00287824
7.65691e-08
0.0029545
3.37922e-07
-0.00201416
-1.18391e-07
-4.57734e-07
-0.000344187
3.30131e-06
-0.000330606
-4.93966e-09
0.00297742
5.85837e-07
2.86641e-07
0.00265228
2.66699e-06
0.00377478
-1.61777e-07
8.12616e-07
3.83406e-06
-0.000134682
-8.9166e-08
1.4102e-06
1.30766e-06
-6.4848e-08
1.69186e-06
1.44687e-06
2.80978e-06
-0.00185171
-1.35869e-05
-4.73418e-07
1.55753e-07
-3.95022e-06
-0.00296689
1.3685e-06
9.67936e-07
2.34768e-06
0.00335999
1.20845e-06
-0.00655989
4.76548e-07
6.30288e-07
3.34294e-06
-0.00263195
3.18481e-07
4.84657e-07
1.17354e-06
-6.08884e-06
-3.65556e-06
0.000277494
0.000240262
6.2587e-08
-4.33303e-07
6.58615e-07
0.0029861
1.35952e-06
-2.05009e-05
3.98583e-07
3.07161e-07
6.84583e-07
0.00213122
-0.000568503
5.47499e-06
4.02467e-07
-2.12504e-05
1.14435e-06
8.49441e-07
-1.78251e-07
0.000223814
2.03829e-05
0.00508449
-4.99265e-05
1.37603e-06
7.66104e-08
3.4966e-06
1.06976e-06
0.00330683
0.000958398
-3.89444e-07
1.47644e-08
0.00062937
0.000111289
1.18677e-06
5.18516e-07
2.4155e-07
9.75514e-07
0.000139304
-2.05725e-05
7.33413e-07
0.00750241
-1.63253e-07
0.00340587
6.24039e-07
5.59097e-07
0.00495798
3.43898e-07
7.22681e-06
0.00320246
-3.74301e-07
1.03485e-06
7.10681e-07
5.07241e-07
-0.00341375
7.31946e-07
3.1866e-07
0.00315041
-3.04042e-07
6.568e-07
1.91636e-05
0.00562781
2.66644e-06
1.13805e-08
1.19288e-06
1.27863e-08
0.00108965
1.60357e-05
5.51223e-07
5.84e-08
3.0687e-06
7.66088e-07
3.84791e-07
1.81086e-08
3.45471e-07
3.17664e-07
0.000278913
0.00205868
0.00180185
1.36303e-07
0.00527725
5.2111e-05
-8.41486e-10
9.73101e-07
1.20201e-06
-8.78953e-06
5.34467e-06
3.1101e-06
3.36716e-06
-2.22775e-06
0.000853897
0.00323281
1.48718e-08
0.000947965
0.000885814
3.46598e-06
3.7796e-07
5.73356e-06
-0.000118966
5.87592e-08
-0.000191956
4.45695e-08
1.13717e-08
2.00659e-06
-1.96938e-07
-2.72244e-09
0.00312641
0.000461242
2.90848e-07
9.85151e-07
-3.38967e-07
0.00879878
7.68168e-07
-0.000346302
0.00182642
3.13761e-07
5.00629e-06
7.31411e-07
-0.000420141
2.72191e-07
-3.10511e-07
-1.22715e-05
0.00072077
-4.33316e-09
-0.00602655
-1.13648e-05
3.19025e-06
0.00128939
0.00143612
0.00158743
9.86611e-06
-1.17395e-07
1.64009e-07
1.35556e-07
1.19714e-06
0.00186744
9.03143e-07
0.00396302
0.00317426
-3.46057e-07
7.06968e-08
0.00169051
0.00209566
-1.11177e-06
0.00320114
3.07909e-06
7.47802e-07
-2.19196e-06
-5.61537e-06
-2.19902e-07
8.80908e-07
1.0737e-05
2.54739e-07
3.73096e-06
-3.68397e-07
-3.58028e-07
1.79221e-06
2.68232e-06
0.00153412
6.52475e-07
1.26225e-06
3.15071e-06
-0.00168608
6.81561e-07
3.36713e-06
5.49678e-07
-0.000688451
-3.25816e-07
-3.5465e-07
-1.00732e-06
3.27802e-08
0.00144294
2.23753e-06
2.09038e-06
0.00111426
0.000116142
5.59548e-06
-1.92203e-07
1.43145e-06
2.51444e-07
-0.000629573
2.99582e-06
1.65312e-05
0.000247836
2.30995e-06
0.00270515
8.22052e-07
-0.000150428
0.000893468
0.00144381
-1.83034e-07
8.34619e-07
1.20668e-06
-0.000988985
-1.68373e-07
3.18899e-07
1.47621e-06
2.84915e-06
1.14189e-06
0.0054621
-3.81387e-07
5.64113e-08
-0.000128086
8.54991e-07
4.43698e-08
0.00032067
-1.23788e-07
4.3903e-07
-2.43075e-07
8.58923e-07
4.37781e-07
6.23861e-08
1.51774e-07
0.00284846
1.50591e-07
9.4457e-07
-1.6312e-07
-2.58594e-06
-0.000674225
-1.96588e-06
3.21774e-07
-2.96084e-06
-3.44541e-06
0.000662237
3.01708e-07
-4.4078e-06
7.992e-08
-1.48413e-06
8.92249e-05
0.00256983
1.29819e-07
-3.16275e-06
6.80169e-07
-0.00243011
-0.000270947
7.30166e-08
0.00075873
2.90872e-07
1.49836e-06
2.46442e-07
-0.000114602
-2.52796e-07
-2.73528e-05
-4.68837e-06
-2.74697e-07
-4.73852e-06
0.00225572
1.44904e-06
0.000244939
-9.78094e-07
0.00106528
2.72997e-08
-2.21664e-07
-1.81761e-07
2.38464e-07
0.00235873
1.42694e-06
3.03719e-06
8.45381e-06
2.20762e-06
4.45707e-07
0.00051013
0.00133663
6.50421e-07
6.74656e-07
0.000281561
-0.00182369
0.0027803
1.96593e-07
-8.87301e-05
-0.000306497
0.00035614
7.86656e-07
-5.28778e-06
-0.00369706
-0.000187626
-7.25098e-05
-0.00112769
-0.000216133
4.91116e-07
-0.000363275
0.000169514
-3.14631e-07
2.88748e-06
1.4683e-06
0.00215323
4.92994e-07
5.87338e-08
5.65447e-09
2.63662e-07
1.55546e-06
1.62499e-06
-6.53918e-05
0.00612571
-1.88842e-07
-0.00013469
0.00255864
3.1862e-05
0.00112941
9.45541e-07
-2.78738e-10
-3.47577e-07
1.85309e-05
0.000748079
4.12836e-07
2.17421e-06
7.58925e-06
-2.44521e-07
4.43889e-06
-0.0011627
6.2709e-06
2.56643e-06
0.00246285
0.000374042
3.11092e-07
2.41234e-07
0.00270924
0.00326333
2.87967e-06
8.92697e-07
-3.56577e-06
-1.74993e-07
9.2483e-08
3.19545e-06
-2.35377e-07
4.87123e-07
-1.2158e-07
-9.51478e-08
0.000307037
1.64385e-06
2.12805e-06
-2.34664e-07
-0.00264493
0.00226218
-1.36799e-07
-1.69552e-07
1.44753e-06
1.41786e-07
0.000521821
-0.00491829
-0.00403493
-0.000336631
0.000616419
8.36034e-07
0.00178819
0.00270049
-2.35916e-06
9.3318e-07
1.51441e-08
1.72421e-05
1.00594e-06
0.00208848
0.00227848
2.2005e-06
7.97485e-07
-2.9767e-07
8.18522e-07
-5.89223e-06
0.000323354
1.63286e-06
6.80424e-08
2.56259e-07
-1.69551e-07
6.6237e-07
2.04115e-06
2.41588e-07
2.31679e-07
8.17646e-07
2.75539e-07
1.57677e-06
1.56195e-06
2.68261e-06
7.79171e-07
3.06964e-06
-2.86818e-07
2.60574e-06
4.2281e-06
-0.00107835
3.33943e-07
-2.68001e-06
0.00292284
4.8155e-07
0.00123592
0.00325883
7.07315e-06
0.000149113
-2.10939e-07
0.00119203
1.74768e-06
-1.08574e-07
-2.62413e-07
-9.5556e-08
3.98602e-06
4.54794e-07
1.07071e-06
-2.27119e-07
-0.000247163
-5.22836e-06
-0.000532925
-6.28868e-08
-4.18721e-08
7.66382e-07
1.00729e-06
0.000909223
1.17793e-06
6.75564e-07
1.81119e-06
-1.73565e-06
-8.07379e-07
2.96113e-08
-3.16794e-06
0.00191645
2.77039e-07
-2.19725e-07
2.24543e-07
2.83958e-08
1.09368e-05
4.75474e-05
8.22702e-07
0.00266523
1.59099e-05
2.14581e-07
3.22057e-06
0.00123212
9.50735e-07
-0.000653869
2.83142e-07
6.72625e-07
1.18913e-06
5.51163e-07
-0.000478757
1.14859e-07
-0.00299658
3.35631e-06
5.83705e-07
0.00290452
-4.18117e-07
4.06014e-07
-5.80529e-06
-2.2315e-07
6.17444e-07
0.0037516
0.00281661
1.64369e-06
-1.32725e-05
0.00118911
-1.40786e-07
-7.46763e-08
-0.000228287
5.38668e-06
2.74689e-06
0.0032556
-2.77673e-07
4.92867e-07
-3.15476e-07
0.00166272
-0.000118891
6.6047e-07
3.05381e-07
-0.000524077
5.02201e-07
6.68699e-07
-8.58671e-05
-2.23223e-06
0.00295017
-2.9556e-07
2.74969e-07
0.00180607
0.000175075
3.82548e-06
-4.42045e-06
0.00225004
1.24345e-07
-0.000508557
4.15001e-06
2.3678e-06
5.93486e-07
-8.55369e-05
8.09103e-06
2.36857e-06
-2.11527e-05
-2.39879e-06
2.80715e-07
4.50741e-07
-2.76514e-07
-7.86155e-05
9.31906e-07
2.76852e-06
1.88852e-06
1.73205e-05
-3.06934e-07
0.0020987
-1.25443e-06
1.07526e-05
9.17396e-08
1.80247e-07
-6.45979e-08
0.00332223
1.13152e-08
-2.81357e-07
-0.000199039
2.41005e-07
0.00217698
2.95266e-06
-3.71777e-06
1.62967e-06
1.32282e-05
0.00014469
-1.80685e-07
-0.000650021
0.00279544
3.05376e-07
0.00239958
6.81457e-07
-2.53363e-07
-0.000592741
-0.00010877
-0.00029409
6.44807e-07
-2.027e-07
-2.23774e-07
0.00118437
3.7922e-06
-2.27176e-07
7.17688e-07
7.41143e-08
1.5401e-07
-3.51251e-06
1.88731e-06
0.00161922
1.44238e-06
0.00285546
2.78611e-07
1.55585e-06
1.99212e-06
0.00588291
6.56174e-07
-0.0128944
1.20216e-05
2.34773e-07
0.000395556
1.38479e-05
0.00187559
0.0030598
0.00336047
-0.000459914
1.15517e-06
-2.64861e-07
1.48519e-07
-3.52717e-05
-0.000193709
-2.11391e-08
-1.40577e-06
1.46196e-06
3.78709e-05
-2.86234e-07
9.72148e-05
-2.62384e-07
2.66235e-07
-9.18221e-05
0.001784
0.00155548
-1.25177e-07
9.10316e-09
0.000158762
1.23166e-06
3.33733e-06
-2.06458e-06
0.00216631
5.78831e-06
0.000919027
1.27532e-06
9.95277e-07
3.28139e-07
2.44164e-07
-0.0043403
9.72047e-07
0.00202841
9.70085e-06
8.9868e-07
-7.32993e-05
0.00203759
0.00229364
1.70031e-07
7.62055e-07
-1.42371e-07
8.14526e-07
3.93091e-07
-0.00181562
4.60648e-07
0.00305503
-2.78396e-07
1.62536e-06
1.53244e-07
5.15576e-06
8.33176e-07
7.65293e-07
0.00278205
1.05422e-06
8.37125e-07
-2.73364e-06
1.64056e-06
-0.000585072
4.67644e-06
4.97559e-07
0.00150327
9.54161e-07
0.00353316
-0.000132939
3.16779e-07
0.00323914
0.000632923
0.0023308
-0.000331496
1.0551e-05
3.43979e-08
0.00281644
4.93327e-07
0.00336806
0.00287801
-3.88812e-08
3.55684e-07
-2.44833e-07
0.00223754
-0.00446473
3.07433e-07
1.34461e-08
-0.0202846
0.00288489
2.52502e-06
6.20216e-07
-1.18609e-06
0.000224865
-4.22537e-05
2.049e-06
-2.8233e-07
1.22416e-06
-2.13939e-07
-3.54904e-07
0.00108487
-2.42006e-06
3.05409e-05
2.89589e-05
2.88316e-07
-1.45632e-06
3.21543e-08
4.58921e-07
0.00191888
0.00221932
8.1352e-07
-0.0135756
1.39147e-07
8.15861e-07
7.96542e-09
-2.06572e-07
3.49797e-07
2.78089e-07
0.00237456
1.43788e-07
1.20238e-06
1.93962e-07
6.51683e-07
0.00144313
0.000176005
-6.38478e-07
0.00455501
-5.6523e-07
4.13733e-06
9.61282e-07
9.76449e-07
0.00176184
6.5509e-07
1.98928e-06
-0.000147076
-0.00240477
-0.000172234
1.20335e-06
0.000349018
3.28626e-07
9.33894e-07
1.17695e-06
-0.00702876
-8.58883e-07
0.00234767
-8.81355e-08
-4.57777e-08
0.00150791
1.09048e-05
-4.57402e-06
5.87314e-07
-1.737e-07
2.59659e-06
-1.5613e-07
1.64603e-08
2.46419e-06
2.7597e-07
2.41191e-05
-2.31665e-08
5.36041e-06
-8.74373e-05
5.19736e-08
0.0021819
2.45629e-07
-1.41421e-06
2.67334e-05
2.81867e-07
-1.70988e-07
1.78767e-06
3.03544e-07
-3.56171e-07
3.10098e-07
4.31128e-07
0.0021094
0.00062983
2.74961e-06
0.0032309
7.18893e-06
8.65132e-08
-0.00135275
7.81603e-07
-1.72411e-08
0.00120596
-9.9632e-07
0.00106177
1.79856e-08
0.00099965
0.00171201
-0.000107545
-9.75129e-08
-6.59402e-05
8.85094e-07
4.88367e-07
2.8575e-06
-2.83615e-07
-0.0032884
1.31117e-05
0.000960042
-4.10147e-07
1.00851e-07
-0.00635135
3.17774e-07
1.24421e-05
-0.000208812
-3.45966e-05
1.01976e-05
-0.00403498
-1.10797e-06
2.96282e-07
6.06644e-06
-8.9902e-07
4.45392e-07
3.99677e-06
1.22184e-06
2.46284e-07
-1.20035e-06
-0.00239151
-3.87065e-07
0.00191399
-6.21904e-06
0.00286685
5.8746e-06
2.18512e-07
2.49556e-07
3.22188e-07
-7.89794e-05
0.00102081
-8.55915e-08
1.24145e-07
-3.59861e-07
1.8469e-06
-2.71306e-07
-3.78404e-07
2.87645e-07
9.22219e-07
-7.27275e-05
1.92449e-06
8.03975e-07
-7.31541e-08
1.06591e-06
-2.93261e-05
2.97808e-07
0.000946434
-2.86868e-06
1.92041e-06
-1.98929e-07
1.04593e-06
6.33704e-08
6.8829e-07
3.40496e-07
0.0016674
3.36349e-06
0.0017731
4.5054e-07
-0.00100581
7.27974e-08
3.76512e-06
3.45892e-07
-0.000438469
-0.00366872
3.17852e-07
9.14279e-07
3.24123e-06
0.00256822
-2.5925e-06
-0.00628691
4.10164e-06
-0.0055609
3.92085e-06
0.00204084
1.934e-06
1.81644e-06
1.78492e-06
0.00269398
-0.0037408
0.00170627
-3.46052e-07
9.64588e-06
-2.68216e-07
5.04048e-07
5.99144e-07
2.92427e-07
0.00273176
8.28175e-07
7.00315e-07
-0.000228119
3.63369e-06
0.000775723
1.21325e-08
4.55386e-07
6.79031e-07
4.96209e-07
-1.07969e-07
-0.0241502
0.00373127
0.00516359
-5.38554e-09
6.54104e-07
-2.51261e-06
-0.00166929
0.00294661
6.24757e-06
2.16439e-07
2.60256e-07
-5.01018e-05
1.43507e-06
-0.000270247
0.00100016
-6.66396e-05
-2.06778e-07
-5.39259e-05
-8.79082e-08
1.15697e-06
7.3974e-07
0.00264196
-9.738e-05
1.67454e-06
8.91986e-06
3.49724e-07
-8.98274e-07
2.55428e-07
-0.000233738
2.6249e-06
0.00260571
7.44181e-06
5.76775e-07
4.37546e-06
4.03275e-07
0.00251753
2.45498e-06
1.50603e-06
-1.13118e-05
0.00300277
-8.48367e-06
0.00176529
7.61362e-08
3.23327e-07
0.00187502
-2.38864e-05
-8.7635e-05
2.07488e-07
2.30751e-07
2.99946e-07
0.00216949
3.9877e-06
2.7604e-07
-7.73189e-06
3.54645e-06
-0.00193112
-8.48431e-05
0.00149977
7.61959e-08
0.00159567
5.27972e-07
3.02659e-07
3.35344e-06
0.00112199
2.24618e-07
-1.06798e-07
0.000175319
0.00220541
7.47886e-06
-3.70241e-09
0.00238789
1.27275e-06
1.64059e-05
-6.20712e-09
-0.000260253
3.32614e-07
1.1467e-06
0.0055409
0.00276602
3.6192e-07
-0.000137932
0.000998817
-0.000408671
3.43822e-07
-0.00629467
-0.000442487
9.35364e-08
2.07017e-06
-2.1167e-06
1.2795e-08
4.28708e-07
0.000419252
1.97618e-07
-9.76952e-06
-9.51175e-08
3.10986e-07
0.00149916
2.63896e-06
3.15522e-05
4.26265e-07
6.72556e-05
-1.87039e-07
8.55476e-07
-7.3741e-05
0.00030108
-1.99872e-07
1.44843e-06
-0.000225521
3.57714e-07
-2.92332e-07
0.00289097
9.49702e-07
8.78083e-07
3.22718e-06
0.00309041
-0.0035409
-7.71293e-05
0.00171929
-0.00075653
-0.000372852
0.00113096
-1.65864e-05
1.45364e-06
5.79609e-07
3.66925e-06
1.02346e-07
2.7573e-08
-0.000737459
0.00292728
4.47752e-07
0.00255093
1.38084e-05
0.00185283
1.809e-05
3.77374e-06
2.46877e-07
1.64527e-05
0.00196877
-2.12688e-06
3.81472e-07
0.00302647
0.00304603
-0.00653721
0.00228496
7.42879e-07
0.00323867
0.00293949
8.38373e-07
8.51926e-08
9.84407e-08
0.000194445
6.94833e-08
3.76457e-06
1.44606e-07
3.07825e-07
4.59345e-07
-3.14896e-05
0.00498745
-0.000102146
2.98603e-07
5.33566e-05
6.39139e-07
8.59051e-07
1.04433e-08
1.37216e-06
2.45762e-05
6.89296e-07
0.00270301
-0.0017142
-1.8507e-05
3.0348e-06
3.21824e-08
7.1729e-07
3.37129e-07
4.33452e-06
2.07102e-06
4.1908e-07
3.01487e-07
-1.76828e-07
4.25648e-06
3.07262e-07
1.03916e-06
-2.67141e-06
1.03517e-06
5.17831e-06
0.00196606
7.75444e-08
1.16237e-06
3.84178e-06
-7.84774e-06
6.48871e-06
0.000557076
8.93989e-06
7.97789e-07
4.52796e-07
2.09064e-07
0.00254621
2.93679e-07
-0.000345334
1.58143e-08
-5.26064e-07
-2.18432e-06
0.00325118
6.89153e-07
5.95333e-07
-6.53635e-06
2.16904e-06
1.29551e-06
0.00327031
-1.43896e-05
9.6494e-07
2.43272e-07
0.00123162
7.68638e-07
-3.47363e-07
5.39312e-06
0.00304906
2.85547e-06
9.19451e-07
-1.90109e-06
8.13573e-05
2.73226e-07
3.02198e-07
0.00292037
3.82064e-07
0.00233731
4.67429e-06
0.00592529
3.5416e-07
1.04306e-05
1.24678e-07
0.00371841
3.36048e-06
1.27449e-06
2.75422e-06
-9.25672e-05
3.16384e-07
0.00440856
-0.000674603
3.63656e-07
-4.46235e-05
1.81793e-06
1.94902e-07
-8.01461e-06
2.93183e-07
1.64218e-08
-2.32414e-07
3.15589e-06
0.00144853
6.33376e-06
4.18658e-07
3.20584e-07
6.94809e-07
0.0005864
-3.02274e-05
0.00457044
-0.00227041
3.38325e-07
3.54022e-06
1.47758e-06
-0.000237298
3.88522e-06
5.56075e-05
7.66551e-08
-7.58372e-06
-2.94516e-07
-7.55883e-05
8.6743e-07
1.19918e-07
-0.000561492
1.02577e-05
9.75679e-07
-0.000184014
1.42889e-07
2.2955e-06
8.82997e-07
1.0126e-06
-0.000693586
1.46642e-06
2.26131e-06
-2.19861e-07
1.69715e-06
-0.0040448
-9.05778e-06
0.00408923
7.37641e-08
-2.86052e-07
1.11235e-05
-0.00021506
-0.000249919
1.78538e-05
-2.03572e-06
0.00153604
-0.001623
-5.54492e-07
6.12377e-07
-6.01174e-08
1.00137e-06
1.68633e-06
-3.78305e-06
5.64013e-05
-2.03718e-05
3.82108e-07
0.00151774
0.00136719
6.57588e-08
-8.02684e-07
-0.00219089
-0.000227981
4.66691e-07
1.74036e-06
-5.84763e-08
2.78871e-07
-6.60821e-07
6.13306e-07
0.00409683
0.00240509
5.45687e-05
0.00145252
3.3506e-07
7.83599e-07
1.30367e-07
1.85372e-06
7.55157e-10
-2.83838e-07
0.00149234
4.80499e-08
0.00277185
8.35269e-07
-7.17235e-07
1.36501e-06
2.91805e-05
0.0019
6.42649e-05
1.0124e-06
-3.83008e-07
-1.06338e-05
-6.74577e-05
-5.92115e-06
5.47219e-07
-9.26893e-08
6.68914e-08
1.82289e-06
8.79496e-07
4.1755e-06
-0.00307155
3.45316e-07
-2.50201e-07
3.52919e-06
0.000968661
0.00184713
0.00734341
2.98273e-09
1.62818e-06
3.90834e-07
0.00474506
-3.01894e-07
0.00333601
3.74508e-06
3.50221e-07
-2.99962e-07
1.40303e-07
-8.27865e-06
8.06635e-07
1.13041e-06
-8.20825e-05
0.00325463
5.78729e-07
8.50803e-07
2.31477e-07
-3.43015e-05
-9.65638e-05
-1.01808e-06
-4.60843e-08
0.000462047
-3.10487e-07
0.00229255
3.48113e-06
1.26868e-06
2.41421e-06
-6.66771e-05
1.05373e-06
2.34314e-07
2.3446e-07
1.58184e-06
0.00280307
1.06807e-07
-9.93609e-06
0.00228895
0.00131158
9.26768e-06
7.78918e-07
0.00200917
4.81572e-07
9.25315e-06
5.59741e-08
-0.00179281
-0.00201859
-5.51711e-05
-1.30873e-05
-0.0063927
1.28468e-05
-0.000127946
-1.37334e-07
0.00150247
0.00128296
0.00323621
-5.44645e-05
6.88153e-07
-0.00241364
-0.00203207
7.11149e-07
4.23337e-07
2.46548e-07
0.0026511
6.31252e-07
1.52299e-06
-1.33805e-07
3.41588e-07
-2.02606e-07
3.37815e-07
0.00295406
-9.95703e-06
8.71458e-07
-3.91472e-05
-1.68832e-05
8.37982e-06
1.15339e-07
-2.90832e-07
-4.35459e-06
0.00323563
5.6346e-06
6.34918e-07
7.20018e-08
-0.00186793
2.91221e-06
1.10584e-06
0.000111708
8.30223e-07
0.00347338
6.95107e-07
7.23177e-07
8.38633e-08
-6.15716e-07
1.62244e-06
0.0020974
-0.000777019
0.00281147
2.05744e-06
0.00403123
8.9581e-06
5.33817e-07
9.97929e-07
2.10704e-05
-0.000308618
-0.00120207
2.49172e-06
4.50656e-07
2.67135e-07
-1.53214e-07
1.33423e-08
-2.9922e-07
-0.000260236
8.07656e-07
-7.07176e-05
7.67123e-07
0.00141995
1.27686e-05
0.00336081
-5.76585e-05
6.00103e-07
-0.000116246
6.46757e-07
6.74721e-05
0.00265408
-2.25892e-07
0.00162889
7.10283e-07
0.000997427
-0.000107666
7.82203e-07
-5.32946e-06
-0.00631228
-3.27113e-07
5.42461e-06
4.9419e-07
-0.000389034
0.00113153
5.06814e-07
2.28014e-07
-0.00114289
1.05603e-05
2.38656e-06
-0.000539683
3.24091e-06
-4.5116e-06
-4.63311e-07
0.00144722
0.00297441
4.04407e-06
7.88223e-07
0.00304641
0.000623826
-1.15546e-07
1.23895e-07
5.19539e-07
0.00298464
0.00299405
5.44457e-08
0.00223184
3.07211e-07
1.18374e-07
3.45204e-07
0.00138364
8.48251e-06
0.00188808
-0.000255175
4.3619e-07
4.16684e-07
5.98271e-08
-0.000110637
1.51531e-07
0.00404154
4.79021e-07
-0.0380535
2.68252e-07
1.1295e-07
1.91146e-06
-0.000255711
0.000742617
8.94194e-07
2.93141e-05
1.09767e-06
3.22258e-07
1.3693e-07
1.33703e-06
1.43544e-06
1.43574e-06
1.52073e-06
0.00142702
5.19688e-07
1.27249e-06
3.75726e-05
-0.00268619
7.41165e-08
0.00259358
0.00294469
4.96706e-07
-0.00466961
1.41543e-06
-5.93786e-05
2.84641e-07
-2.14181e-08
-3.3552e-07
0.000260127
0.00168292
5.28257e-07
0.00301671
4.68567e-07
9.77564e-07
3.98381e-07
0.00229697
-3.5684e-07
-7.53466e-08
0.00339624
4.50842e-06
-0.000148349
-3.964e-05
1.32606e-06
7.79619e-07
-2.14293e-07
-0.00667661
-1.6053e-07
-1.01934e-06
4.6536e-06
2.23824e-06
1.09073e-06
2.77768e-07
0.000468852
9.12324e-08
0.000566684
-0.00013651
-2.97485e-07
1.55911e-05
9.3596e-07
0.0051458
3.50389e-07
0.00417518
0.00650556
-1.6101e-07
1.70738e-07
4.46599e-07
2.71329e-07
1.22058e-06
-1.9301e-07
0.00184064
1.78538e-06
-7.18326e-05
-9.26057e-06
4.19325e-07
2.93715e-07
-2.6222e-07
0.000148832
3.20205e-07
3.25013e-07
9.6809e-06
4.50323e-07
-0.0278579
0.00274503
1.92642e-06
5.04964e-07
9.46723e-07
4.14512e-07
3.0638e-07
-1.0881e-05
7.92865e-08
4.69978e-07
0.000106213
0.00357676
-7.61348e-07
4.09093e-07
-8.10203e-05
0.000162527
2.69074e-07
-3.87474e-05
0.00156108
5.04643e-08
4.33255e-07
-2.06162e-09
0.000794408
-3.35202e-05
-0.0029197
6.64233e-08
5.14168e-07
-1.16019e-06
2.33974e-07
3.03776e-06
3.78685e-07
0.000786335
9.88664e-05
0.00338919
-2.412e-07
4.63912e-07
4.08234e-07
-0.000335201
2.25627e-07
-6.34226e-06
3.51347e-05
0.00224915
-0.0012911
0.00172134
-0.000519504
-9.96781e-07
-0.00426424
0.00202818
3.54353e-07
-1.96368e-07
-2.9399e-08
0.0028372
-0.000203773
-2.81146e-05
1.52117e-06
0.00373765
2.98985e-07
8.27819e-07
4.01253e-08
4.76708e-07
2.41232e-07
-2.38552e-07
-0.000141375
3.38591e-07
0.00170654
0.000785619
8.24603e-06
1.46036e-06
1.1199e-06
1.99672e-06
0.00277042
-7.2919e-07
-0.000101489
-2.54695e-07
-2.88402e-07
8.62655e-08
0.000233665
6.69868e-07
-9.52099e-05
-1.52505e-07
0.000355711
1.65103e-06
7.32643e-05
-8.66654e-05
-2.8315e-07
-2.28197e-07
3.05675e-07
3.52058e-06
-7.76997e-05
1.94981e-07
7.38857e-08
2.14418e-07
-0.00449611
1.08959e-07
0.00012297
-7.6628e-05
1.05672e-06
1.84184e-06
1.19152e-07
6.10107e-05
2.65123e-07
0.00335069
5.11107e-08
-0.000109916
7.81136e-07
2.88863e-07
-9.46446e-05
-1.60682e-05
1.11646e-08
1.31689e-06
5.6544e-07
-5.07697e-05
0.0019366
-3.00515e-06
0.000770056
2.84181e-07
1.29999e-07
0.00259234
3.51353e-06
0.000186691
-1.06497e-06
1.78806e-06
8.6608e-07
7.70309e-08
0.00230545
3.05872e-07
0.00258992
3.51818e-07
1.19867e-06
0.00266954
-8.56226e-05
1.17802e-06
0.00268003
7.83104e-06
2.15058e-07
0.000398577
3.32146e-06
8.01622e-07
3.76718e-07
0.00156644
-1.80222e-08
0.00027647
0.00172034
4.65476e-06
-3.31523e-09
6.73066e-07
0.00260906
1.17352e-06
0.0010243
2.94676e-07
4.99946e-07
2.00257e-05
0.00156317
5.36908e-07
0.00299254
-0.00110877
-0.000101834
3.48821e-07
0.00103271
-6.2569e-06
-0.000391249
5.06611e-08
-8.61635e-06
2.21181e-07
0.00304052
-0.000312062
0.000306685
0.000146841
2.97208e-07
-2.53075e-07
4.63868e-08
-0.000256784
0.00112962
0.000424057
-5.88888e-05
4.3776e-08
0.00236846
0.00194153
3.53555e-06
-0.000161443
0.00271475
1.51365e-06
0.000250309
4.25723e-07
5.40872e-07
0.000792629
-5.44338e-05
4.81316e-06
0.00220883
3.13054e-07
1.60211e-07
-0.00361109
0.00232782
0.00441193
0.00154803
7.97695e-07
2.92604e-07
8.70422e-08
0.00191382
-4.15947e-05
8.62301e-08
9.76399e-07
-0.00275224
1.42527e-07
3.43029e-07
0.000796546
-0.00180572
4.54167e-07
5.4741e-08
3.44171e-07
4.09789e-07
-0.00669063
2.74606e-07
-3.27741e-07
6.36347e-07
-1.42774e-05
0.000201563
1.70993e-05
0.00175646
2.91335e-07
6.05985e-07
0.00299279
0.00229872
8.39254e-07
2.33243e-06
-4.18929e-09
1.05116e-06
2.50953e-07
7.81234e-06
2.91538e-06
-3.39209e-07
0.00679911
8.01866e-07
-4.29831e-07
5.88439e-07
-2.05633e-05
0.00632159
0.00231321
1.5666e-07
2.77677e-07
0.00235651
0.00290844
4.75354e-07
1.47984e-07
7.09428e-08
-0.000228345
3.2965e-07
-1.53708e-06
7.53631e-07
1.57658e-07
0.00299776
1.49009e-05
2.93902e-07
5.38342e-07
-8.48437e-08
3.79017e-07
-0.0116173
0.00342723
1.62318e-06
-0.000149824
-5.91813e-06
2.97785e-07
-1.31515e-08
3.00935e-07
2.26675e-07
2.82362e-07
-6.93289e-08
-2.84263e-06
0.00294235
-9.16721e-07
2.22887e-06
0.00225372
0.00117013
2.82576e-07
-6.47472e-08
4.19843e-07
-0.00265328
2.05034e-07
1.00971e-05
-2.084e-05
-3.46728e-06
-7.38179e-06
0.00141789
-5.94136e-07
0.00137357
7.43494e-08
-5.98649e-07
1.02544e-07
-1.93282e-07
-8.46234e-06
-7.2089e-05
1.11767e-05
1.22132e-06
4.68967e-05
-3.35518e-05
8.74414e-05
8.56286e-07
0.00237168
-0.000213495
1.73413e-06
-0.00120157
0.00095609
2.70785e-06
0.000240273
2.30186e-07
9.22322e-07
0.0176439
9.53054e-08
5.40386e-07
-0.00730185
0.000775006
0.0149415
7.13787e-06
-2.64416e-07
-4.44301e-05
3.49831e-07
0.00053353
-3.5707e-09
0.000529979
-0.000233815
0.00174943
-0.0123751
3.60929e-07
-6.67688e-08
1.65102e-06
0.00295897
0.00299791
4.50809e-06
-0.000111988
-3.52348e-08
-5.33091e-05
0.00244689
-8.74482e-05
5.46539e-07
3.48442e-07
9.82305e-07
4.43568e-07
4.22389e-07
3.54418e-07
5.28013e-07
0.00289609
1.81352e-06
0.00267612
0.000752295
-4.32706e-06
1.18584e-05
4.32359e-08
-1.30505e-07
2.30711e-07
5.94855e-08
2.52235e-07
0.00407286
2.46878e-05
0.00479576
0.00372343
4.0301e-07
-6.73989e-05
1.04638e-06
0.00286817
0.00274129
3.96173e-07
-4.368e-07
-0.000933945
3.70746e-07
-5.95685e-09
-0.00145918
0.00298623
-5.55006e-05
2.55764e-07
3.24254e-07
6.48625e-06
1.14566e-06
3.99091e-06
-2.6431e-07
3.40745e-07
9.54072e-06
2.01629e-06
0.00176967
1.12305e-06
-0.0103611
2.85169e-07
-2.24033e-05
0.00291451
7.73477e-07
0.00166819
2.9468e-06
0.00266356
-3.25717e-07
6.12897e-07
-1.3783e-07
8.1371e-07
0.0015731
1.00092e-06
9.12407e-05
-6.28924e-07
-6.55194e-07
4.66679e-08
0.00344413
1.09254e-06
2.48891e-06
-0.00567964
4.66091e-08
4.96951e-07
-4.90661e-05
4.98933e-07
1.31155e-06
-1.26167e-06
3.82395e-07
4.47154e-06
4.37158e-08
-4.75309e-07
0.00411618
0.00376818
0.00320178
1.11362e-05
8.20259e-06
-9.9504e-05
1.48313e-06
0.00437268
1.34197e-06
-3.40902e-07
1.74123e-06
-3.16469e-07
3.40652e-07
0.00212306
0.00218818
7.96457e-08
0.000135233
0.00371524
6.88577e-07
-7.39259e-07
5.13484e-07
0.00087086
0.000597223
0.00290756
-2.92021e-05
0.00301134
-3.02653e-07
1.14839e-05
1.79178e-06
6.43386e-05
0.0012662
8.70578e-08
3.13872e-06
-9.76195e-05
7.86975e-07
0.00224845
3.318e-07
0.000648036
-0.00010566
0.00306962
1.65266e-06
8.8408e-07
0.00161163
3.53654e-06
0.00302449
0.00333907
0.00298055
2.89513e-06
7.09068e-05
3.13507e-07
-2.47372e-06
1.11908e-06
0.00236644
-0.000216439
0.00262223
-1.97717e-06
3.47939e-06
-3.08733e-06
-2.77712e-06
0.00115209
6.043e-08
3.56142e-06
0.00215043
3.87446e-08
-0.00744494
-0.00214351
0.00326497
0.000518443
-5.43914e-06
0.00262661
-1.08887e-08
0.00241121
1.35569e-06
-1.06994e-06
1.08774e-06
5.02756e-07
0.00287401
5.02189e-07
4.45475e-07
5.2648e-07
-2.91563e-07
3.54861e-05
4.45033e-07
2.97321e-06
0.000511937
-2.30605e-07
0.0023889
1.89199e-06
-5.88538e-07
-2.81885e-05
9.64575e-06
-8.34541e-09
-1.26682e-05
3.29837e-07
0.00365711
-0.000137641
3.53042e-07
3.28424e-06
4.53605e-07
0.00308863
0.00299039
1.66354e-06
0.00704626
4.52415e-07
8.17344e-08
-0.00595325
4.70596e-07
1.85963e-07
-4.47162e-05
8.39041e-07
-2.44498e-08
-4.12676e-07
1.43561e-06
4.38354e-07
0.00206543
1.33134e-05
0.000515597
-6.53366e-05
1.18808e-06
1.94076e-06
3.03653e-09
0.00339589
0.00190392
-0.000424115
5.88361e-08
-1.15445e-07
1.53264e-06
7.96078e-07
0.000236119
2.02004e-07
-0.00245669
1.14362e-08
-1.6516e-05
-1.35206e-06
0.000560847
6.45339e-06
2.76188e-06
0.00245426
0.00108928
0.00166092
0.00291794
-2.81983e-07
-3.55832e-05
-6.68836e-05
0.00222357
-9.31407e-08
2.35397e-06
0.00188169
2.2377e-05
3.40105e-06
-2.9191e-06
0.00825234
0.0041592
9.40083e-07
9.75559e-06
-2.36688e-07
1.1271e-06
8.9785e-07
5.24206e-08
1.59353e-06
-0.000119913
0.00199913
2.96104e-05
8.87212e-05
7.88298e-08
-1.57896e-07
2.85427e-06
6.27213e-08
-0.0159343
-2.80525e-07
-2.68823e-07
0.00535786
-8.58689e-06
1.52441e-06
2.07892e-06
-2.35036e-06
4.81986e-06
-0.00022346
0.00292898
-0.000205254
5.25837e-07
0.00296202
-1.01022e-07
4.1724e-08
3.91833e-07
0.00258188
-7.91269e-05
9.76658e-06
-1.26482e-05
3.44033e-07
-2.96571e-07
7.20018e-08
2.47525e-07
6.35364e-07
0.000221362
-0.000145148
7.91406e-07
0.00135369
0.00200513
0.00157353
0.0010255
1.84222e-07
8.45345e-07
-1.05433e-05
1.09028e-07
9.32987e-06
7.01584e-07
4.99311e-07
0.00156192
0.00290877
-2.82271e-07
8.60776e-07
8.46658e-07
2.7461e-06
-0.000599764
-0.00845206
0.00370723
3.27437e-08
2.03767e-06
0.00347469
1.89633e-06
2.47342e-06
-0.00354203
0.00114785
0.00543953
0.00442252
-2.47488e-07
0.000122692
-5.66713e-07
3.81493e-07
1.88163e-07
1.72272e-06
0.00488955
0.00149167
-0.00118824
-9.93994e-06
1.63911e-06
2.94529e-08
-8.08463e-08
3.31942e-07
-1.0657e-07
1.12003e-06
0.00450493
0.0040387
1.69872e-06
-0.00465488
3.40777e-07
1.72239e-06
-2.16172e-07
0.00319896
9.53062e-07
8.32205e-08
6.52418e-06
2.23284e-06
0.00208531
0.00249938
1.66038e-06
-0.000195789
5.87546e-07
-0.000612588
7.09091e-06
0.000412594
0.00108029
-8.8863e-09
1.79158e-06
3.37174e-07
0.00137825
-0.000196822
1.23686e-06
-0.000725035
7.49509e-06
-0.0029148
2.12398e-06
8.20112e-06
2.84963e-06
-2.34501e-08
2.51866e-06
4.44491e-07
5.23622e-07
1.83071e-06
9.14511e-07
9.40003e-07
-7.0043e-05
5.6354e-06
4.83026e-07
8.14695e-07
1.06671e-06
7.82661e-07
-8.575e-07
-0.00843247
1.62835e-06
0.000343797
-0.000162289
2.31296e-07
0.00278195
5.89126e-08
3.51772e-07
5.0639e-07
0.00283139
7.08792e-07
0.00298922
0.00125993
1.97263e-06
-3.68153e-06
2.81733e-06
0.00108212
3.05124e-06
0.00866977
-6.20523e-08
1.00949e-06
-1.15587e-06
0.00273865
-0.00439733
7.71222e-08
-4.81239e-07
7.42079e-07
6.12802e-07
5.56919e-07
1.0557e-06
8.7309e-07
2.8967e-07
8.83371e-07
0.00182026
0.000995788
-6.54807e-06
1.07421e-06
-3.1306e-07