/*--------------------------------*- C++ -*----------------------------------*\
| =========                 |                                                 |
| \\      /  F ield         | OpenFOAM: The Open Source CFD Toolbox           |
|  \\    /   O peration     | Version:  v2012                                 |
|   \\  /    A nd           | Website:  www.openfoam.com                      |
|    \\/     M anipulation  |                                                 |
\*---------------------------------------------------------------------------*/
FoamFile
{
    version     2.0;
    format      ascii;
    class       volScalarField;
    location    "950";
    object      k;
}
// * * * * * * * * * * * * * * * * * * * * * * * * * * * * * * * * * * * * * //

dimensions      [0 2 -2 0 0 0 0];


internalField   nonuniform List<scalar> 
13851
(
0.000155354
0.0252615
0.000205588
0.00015448
0.000208794
0.00019198
0.000148185
0.000188608
0.000140598
0.000203854
0.00303662
0.0334124
0.000121868
0.026059
0.000143938
0.000174712
0.000161226
0.000164825
0.000288277
0.000140313
0.000153909
0.000205167
0.000186856
0.000156862
0.000195199
0.000189073
0.000159598
0.0014257
0.000154919
0.000158261
0.000285748
0.000162076
0.000204165
0.0023891
0.000155982
0.000263127
0.000268954
0.000239185
0.000206302
0.00393514
0.000144749
0.000139609
0.00529627
0.00364317
0.00316088
0.0189208
0.0024579
0.000696289
0.000160285
0.00458855
0.000207864
0.000235477
0.00663833
0.000145705
0.000149215
0.000140226
0.000156258
0.00857134
0.000157649
0.000148823
0.000238109
0.0157832
0.000177073
0.000214931
0.000246781
0.000158847
0.000145831
0.00213716
0.000178019
0.000164454
0.0212445
0.000601628
0.0294224
0.000146535
0.000141147
0.000143836
0.000203866
0.0181609
0.000190517
0.0249976
0.00015054
0.000886183
0.000144428
0.0155651
0.000178328
0.0285044
0.000175601
0.000218628
0.000162666
0.000153636
0.000262968
0.000185341
0.00261218
0.000167629
0.000162203
0.000174563
0.000209925
0.0200194
0.00435019
0.000177269
0.016773
0.000193513
0.000151601
0.000158565
0.000166753
0.000173611
0.000197013
0.000137277
0.00529733
0.0002008
0.000166716
0.000154626
0.000180459
0.000159124
0.000165187
0.0164194
0.0175272
0.000135294
0.000150797
0.000150468
0.00500788
0.000158277
0.000123118
0.00849321
0.000389942
0.000169156
0.00172467
0.000191988
0.000153245
0.0002285
0.000144473
0.000138811
0.0251371
0.00014436
0.0155929
0.000140285
0.000135238
0.000310499
0.0364821
0.0309739
0.0163583
0.000150209
0.00015495
0.000148621
0.00015634
0.00374086
0.00017272
0.000229039
0.000147922
0.00310145
0.000210634
0.000148693
0.025301
0.000156457
0.00015538
0.00015608
0.000141177
0.000155418
0.000235035
0.000207128
0.000146057
0.000167683
0.00826938
0.000138753
0.000165991
0.000144239
0.000176675
0.000178598
0.000152826
0.0179355
0.0161283
0.000138594
0.000141341
0.0313685
0.000138686
7.8452e-05
0.000190806
0.000154909
0.000290968
0.000138955
0.000163839
0.000451111
0.000144159
0.000207304
0.000138654
0.00018267
0.000159158
0.00014683
0.000212874
0.000198808
0.00293656
0.00746857
0.000156096
0.000178007
0.0148322
0.000154774
0.000154783
0.00789795
0.000154032
0.000144
0.000171547
0.0222059
0.000155827
0.000143591
0.000195552
0.000144345
0.0146955
0.000161702
0.0326745
0.000141897
0.0182525
0.000151182
0.00749567
0.000137799
0.000147368
0.00205798
0.000178668
0.0167808
0.000143407
0.0331724
0.000162117
0.000150817
0.0126052
0.000229946
0.0328426
0.000192389
0.000171309
0.000170644
0.00968811
0.000138276
0.000187908
0.000236874
0.00013843
0.000154924
0.000203416
0.000180178
0.0135173
0.000257801
0.000148621
0.000143732
0.000249729
0.00580204
0.000154931
0.000196987
0.000160564
0.0364575
0.00019405
0.00435141
0.000156327
0.000163036
0.000193895
0.00662914
0.000150758
0.000156572
0.000194922
0.000241203
0.000197916
0.000224343
0.0065366
0.000144458
0.000147438
0.000162918
0.0168049
0.000154637
0.000283715
0.000154725
0.000150575
0.000166639
0.00838704
0.000706736
0.000193551
0.000155379
0.00336097
0.000188696
0.000173562
0.000138872
0.000950346
0.000301476
0.0361736
0.00306552
0.000154674
0.000140628
0.000163796
0.000193256
0.0168072
0.000296206
0.000141664
0.000144035
0.00334244
0.000432885
0.000233085
0.000156907
0.000148933
0.000181039
0.000473893
0.000274411
0.00016501
0.0281151
0.000139006
0.0345402
0.000166842
0.000160868
0.0327247
0.000148735
0.000177849
0.0242123
0.000141323
0.000188244
0.000167841
0.000156235
0.0333075
0.000165367
0.00015041
0.0150549
0.000140806
0.000163607
0.00018636
0.0305663
0.000235366
0.000143466
0.000194676
0.000143657
0.0127129
0.000191432
0.000183568
0.000144192
0.000234256
0.00017002
0.000155057
0.000144032
0.000148564
0.000150172
0.00336118
0.0202099
0.0180466
0.00016711
0.027548
0.00051544
0.000143579
0.00017876
0.000233005
0.000184837
0.0001889
0.000228455
0.00028779
0.000169575
0.0147439
0.0281301
0.000144158
0.0015141
0.00139531
0.000271911
0.000155015
0.000191224
0.00994594
0.000141628
0.0142592
0.000144105
0.000143693
0.000155947
0.000137685
0.000140554
0.0245535
0.00487311
0.000145401
0.000186509
0.00014322
0.0297114
0.000180696
0.00175471
0.0184748
0.000145635
0.000181228
0.000167967
0.00105829
0.000143518
0.000135388
0.000197033
0.0153304
0.000143828
0.0293171
0.00018592
0.000233343
0.0152792
0.00237904
0.0025915
0.000174482
0.000139039
0.000149992
0.000165796
0.000194402
0.0272096
0.000178659
0.0280034
0.02491
0.000143329
0.000144592
0.017744
0.0275333
0.000227854
0.0156393
0.000204547
0.000169106
0.00018626
8.69937e-05
0.000139822
0.000173997
0.000169344
0.00014738
0.000167436
0.000141248
0.000144187
0.000214129
0.000187889
0.0164951
0.000164801
0.000196715
0.000169275
0.00741995
0.000164995
0.00027446
0.00016018
0.00215281
0.00013527
0.000140952
0.000192501
0.000252231
0.0053089
0.00022773
0.00016882
0.0136336
0.00247161
0.000171088
0.00015191
0.000204192
0.000143252
0.00758587
0.000170934
0.000276699
0.00383448
0.00020089
0.0291826
0.000154535
0.000361791
0.00348491
0.0155144
0.000136771
0.000171599
0.000191472
0.00172973
0.000139116
0.000150239
0.000207527
0.000232246
0.000169085
0.0269913
0.000190888
0.000145007
0.00791237
0.000167015
0.000139876
0.000386535
0.000138985
0.000155218
0.000139404
0.000180883
0.000154059
0.000140945
0.000153994
0.0115224
0.000144628
0.000181394
0.000139659
0.000159722
0.00100982
0.000157179
0.000144152
0.000159581
0.000160964
0.000478065
0.000150444
0.000183146
0.000144064
0.000178086
0.0202892
0.0280634
0.000144692
0.000160361
0.000165194
0.0046091
0.0153513
0.000145074
0.00451445
0.000143838
0.000208011
0.000148084
0.0113166
0.000137453
0.00644483
0.000198941
0.000139786
0.000161779
0.0212078
0.000188613
0.00424254
0.000149782
0.00679676
0.000152318
0.000138593
0.000139005
0.000147186
0.0326055
0.000203135
0.000238512
0.000302009
0.000176932
0.000147251
0.00077508
0.00468031
0.000164153
0.000168057
0.00408539
0.00787269
0.012964
0.000151801
0.0117644
0.019176
0.0253656
0.000166529
0.000162903
0.00647794
0.000412684
0.00024245
0.00797829
0.000263304
0.000155937
0.000264087
0.000204328
0.000135725
0.000248058
0.0002041
0.023279
0.000156814
0.000143012
0.000140939
0.000144024
0.000212499
0.000178525
0.000244674
0.0260009
0.000140063
0.00713285
0.0260666
0.000222172
0.00412039
0.000180701
0.000138478
0.000140894
0.000190114
0.00109316
0.000155703
0.000219156
0.000260068
0.000140083
0.00017564
0.00712296
0.000238588
0.000226544
0.0338922
0.000331073
0.000144119
0.000147514
0.00372998
0.0257455
0.000239338
0.000178497
0.00017953
0.000138521
0.000142003
0.000276654
0.000139145
0.000156555
0.000138818
0.000139074
0.000300054
0.000213048
0.000165382
0.000139051
0.0220092
0.00743364
0.000139097
0.000152381
0.000155122
0.000149107
0.0144467
0.00613647
0.00659591
0.0261111
0.00720857
0.00017596
0.0191127
0.0303832
0.000170685
0.00017854
0.00013846
0.000181658
0.000176946
0.00519025
0.0161008
0.000218379
0.000169441
0.000140004
0.00017397
0.000160962
0.00430678
0.000207135
0.000143906
0.000167858
0.000138993
0.000166194
0.000228511
0.000148492
0.000142971
0.000180755
0.000148538
0.000209065
0.000249807
0.000227916
0.00017439
0.000242734
0.000139809
0.000216062
0.000195631
0.024218
0.000150893
0.000172011
0.00402157
0.000156338
0.0152863
0.0317632
0.0138076
0.00030119
0.000139611
0.000845048
0.000156634
0.000139031
0.000137395
0.000139118
0.00016528
0.00016553
0.000178714
0.000138313
0.000947345
0.000199512
0.00173769
0.000140421
0.000140245
0.000165819
0.000231814
0.0137193
0.000195699
0.000166768
0.000157639
0.00017937
0.000146632
0.000141829
0.000305963
0.0334624
0.000148262
0.000138246
0.000147345
0.000141712
0.000272313
0.00768397
0.000174743
0.0205267
0.00738262
0.000142746
0.000236892
0.0156885
0.000180544
0.0311412
0.000150461
0.000163267
0.000195
0.000163517
0.00807308
0.000144497
0.00677671
0.000172099
0.000172764
0.0314687
0.000146694
0.000154455
0.000179023
0.000138666
0.000162688
0.00985456
0.0317476
0.00020596
0.000282549
0.00247169
0.00013795
0.000140222
0.0203941
0.000255853
0.000183314
0.0296272
0.000142089
0.000165895
0.000135754
0.00656765
0.000237622
0.000162191
0.000149655
0.00108184
0.000160041
0.000164057
0.00756736
0.00025432
0.0267375
0.000140623
0.000148139
0.0190347
0.00450534
0.00025273
0.000159754
0.00348645
0.000144481
0.00148829
0.000225279
0.000203493
0.000161308
0.0143582
0.000185792
0.000180695
0.00028184
0.000168644
0.000156133
0.000154596
0.000139768
0.00819783
0.000173715
0.000227688
0.000165396
0.00036263
0.000140066
0.0131027
0.000151846
0.000183844
0.000142072
0.00014231
0.000143598
0.0248924
0.000140741
0.000136654
0.000248544
0.000147899
0.0230618
0.000179949
0.000157238
0.000207224
0.000274407
0.00517767
0.000141752
0.000581289
0.0188732
0.000150627
0.0138211
0.000172249
0.000139567
0.00273244
0.00619613
0.000444451
0.000163285
0.000140945
0.00013739
0.0039353
0.000206979
0.000192191
0.000164191
0.00283007
0.000149797
0.000157143
0.000218989
0.00568588
0.000211926
0.0172262
0.000147846
0.000208737
0.000214377
0.028135
0.00016175
0.0337453
0.000300085
0.00014798
0.0170888
0.000207315
0.0133028
0.0315054
0.020624
0.00615399
0.0001829
0.000139595
0.000165125
0.0093173
0.0180816
0.000143789
0.000185839
0.000204405
0.000226701
0.000138889
0.0061846
0.00014165
0.00014544
0.008347
0.0185871
0.00291957
0.000138991
0.000143798
0.0053152
0.000299675
0.000233871
0.000161042
0.0191309
0.000240549
0.0118953
0.000196546
0.000185848
0.000150427
0.000147953
0.0303678
0.000192983
0.0263469
0.000202612
0.000178059
0.0090083
0.0155202
0.0238185
0.000145456
0.000173591
0.000139032
0.000175235
0.000154196
0.0403749
0.000164988
0.0415454
0.000138278
0.000206043
0.000142335
0.000231713
0.000176891
0.000173034
0.0206188
0.000188463
0.000182692
0.000159144
0.000206006
0.000108023
0.000182845
0.000156766
0.0167262
0.000152955
0.0306613
0.00532971
0.000148893
0.0226404
0.0162512
0.0243956
0.00632966
0.000201084
0.000143259
0.0260491
0.000165659
0.0175289
0.0336636
0.000140391
0.000154585
0.000252869
0.007339
0.0390864
0.000148008
0.000144792
0.0191428
0.0320082
0.000226386
0.000162273
0.000157557
0.00551226
0.0105209
0.00021562
0.00013664
0.000183639
0.000138642
0.000152245
0.00168055
0.000185917
0.000279929
0.00772115
0.00014566
0.00015498
0.000143565
0.000154846
0.0208768
0.0206767
0.000171032
0.0312925
0.000142305
0.000170949
0.000142811
0.000138685
0.000148254
0.00014543
0.0269524
0.000144799
0.000195045
0.000145639
0.000163623
0.0022477
0.00399549
0.000149991
0.0039606
0.000193503
0.000311424
0.000174714
0.000175656
0.0228527
0.000166229
0.000178961
0.0406879
0.0194433
0.00746208
0.000184227
0.00322732
0.000150404
0.000186403
0.000194198
0.0383313
0.000146359
0.032536
0.000140088
0.000140569
0.0282294
0.000174222
0.000285169
0.000161939
0.000139068
0.000173288
0.000139074
0.000143836
0.000160845
0.000150127
0.000308425
0.000140536
0.000299531
0.0100133
0.000193082
0.0317749
0.000147587
0.000152835
0.00020114
0.000144186
0.000138931
0.000212417
0.000150612
0.000141687
0.000149939
0.000194373
0.0219284
0.0318617
0.00018077
0.0183044
0.000308822
0.000141965
0.00593154
0.000169121
0.000140396
0.00215555
0.000182576
0.00401775
0.000141589
0.00311606
0.00655518
0.0116248
0.000138282
0.000125337
0.000172491
0.000159231
0.000162576
0.000141701
0.00521175
0.000200999
0.000522691
0.000145831
0.00014392
0.00129222
0.000149005
0.000275079
0.00590621
0.000339461
0.000296081
0.00544574
0.000184524
0.000144959
0.000182994
0.000159271
0.000158682
0.000229481
0.000185937
0.000150847
0.000157468
0.0302978
0.000142101
0.0201851
0.000287802
0.0176355
0.000254537
0.000152161
0.000149035
0.000148862
0.00424843
0.00522142
0.000138347
0.000155807
0.000145706
0.000210804
0.000140343
0.000145021
0.000151034
0.000176343
0.000262498
0.000179997
0.000167942
0.000143739
0.000195024
0.000180359
0.000152421
0.0147073
0.000267958
0.000213339
0.000143727
0.000189166
0.000142994
0.00018599
0.000148371
0.0179231
0.000234992
0.00600671
0.000158834
0.00157661
0.000143432
0.000170255
0.00014867
0.00649281
0.000965891
0.000145304
0.000175805
0.000189435
0.0314309
0.000158585
0.00102498
0.000165988
0.0180476
0.000202243
0.00703713
0.000219821
0.000212339
0.000249532
0.0273027
0.00575957
0.019593
0.000157537
0.000215082
0.000140143
0.000157036
0.000164821
0.000148733
0.0284177
0.000170403
0.000167413
0.00609139
0.000242654
0.000232714
0.000143553
0.000158062
0.00016314
0.000150637
0.000166318
0.0117642
0.00789988
0.0287424
0.00014037
0.000166384
0.000162291
0.00703752
0.0115897
0.000182385
0.00014894
0.000150155
0.0122075
0.000187505
0.000290289
0.00259081
0.00107262
0.000143515
0.000146139
0.000165724
0.000188054
0.00016924
0.0166436
0.00420043
0.000225617
0.000223144
0.00015194
0.000158634
0.000145459
0.00731988
0.000184454
0.0270974
0.000723198
0.000164498
0.000245673
0.00015458
0.0148573
0.000301293
0.000167939
0.000218696
0.0318673
0.000221671
0.00194004
0.000145709
0.000145302
0.0203243
0.000182538
0.0108994
0.000153181
0.000147444
0.000145646
0.0226254
0.000248586
0.000150023
0.000194594
0.000208457
0.0107309
0.000174761
0.000625202
0.000144527
0.00252477
0.00016103
0.000143894
0.000243429
0.0148077
0.000148284
0.000140129
0.00329696
0.0120096
0.000163762
0.000140203
0.0313633
0.000164242
0.000186589
0.000140391
0.00713333
0.00014524
0.000195676
0.0269305
0.00982033
0.000153789
0.00742899
0.00704163
0.000834197
0.000288763
0.0177796
0.000522795
0.000142518
0.000273612
0.000157546
0.000143661
0.000150505
0.00415897
0.000142524
0.000272082
0.000140257
0.000181711
0.0167744
0.000198824
0.000278755
0.000155051
0.000268358
0.000138927
0.000176135
0.000127905
0.0193693
0.000139998
0.000203874
0.00156667
0.00014832
0.000142203
0.0288886
0.000178542
0.000176647
0.000237217
0.0308269
0.00115628
0.000133275
0.00199499
0.000668433
0.00259447
0.00435509
0.00034866
0.00020354
0.000146489
0.000237235
0.000142417
0.000142077
0.0299826
0.0302235
0.000155132
0.0249564
0.000201018
0.0198275
0.000207528
0.000178788
0.00014355
0.000208232
0.0026091
0.000155814
0.000154229
0.0204947
0.0244054
0.000584916
0.00976676
0.000179142
0.043891
0.0215711
0.000175396
0.000146491
0.000141379
0.000601536
0.000140933
0.000303107
0.000150285
0.00015167
0.000155725
0.000165037
0.0229025
0.0150588
0.00014972
0.000139395
0.000160883
0.00016857
0.000140841
0.000167714
0.0080743
0.000165556
0.0312857
0.029508
0.000193636
0.000231874
0.00014439
0.000181185
0.000148616
0.000248822
0.000154831
0.000154755
0.000149223
0.000148771
0.000249237
0.000151976
0.000177289
0.000156428
0.000177821
0.000233404
0.0221131
0.00014157
0.000191687
0.000173779
0.000183428
0.000160927
0.0017843
0.00021556
0.000174967
0.000158457
0.000152198
0.0045151
0.000143941
0.000700391
0.000143911
0.000145876
0.000154738
0.0188743
0.000166408
0.000157736
0.000180663
0.000189312
0.000203522
0.0171794
0.00029093
0.000180506
0.000145463
0.00155387
0.000146736
0.000144281
0.000252687
0.0408066
0.000180328
0.000169586
0.00021723
0.000159171
0.000150263
0.00015154
0.0408045
0.000154126
0.00322789
0.00030894
0.02253
0.000145453
0.000165136
0.000143453
0.0338926
0.000243199
0.000185104
0.000232183
0.0159028
0.000153385
0.0148715
0.000530195
0.000148022
0.000148557
0.000213319
0.000151468
0.00833593
0.000147659
0.000144123
0.000140835
0.000241803
0.00241342
0.00025394
0.00015481
0.000152746
0.000172367
0.00521248
0.000305693
0.0204458
0.00277897
0.000151348
0.000243557
0.000227335
0.00865525
0.000200988
0.000257115
0.000141068
0.000180631
0.000141801
0.000287869
0.000176946
0.000143375
0.0297345
0.000217217
0.000175007
0.000286753
0.00014226
0.00018957
0.000189765
0.000176663
9.15185e-05
0.000203291
0.000199417
0.000191809
0.000221414
0.00738376
0.000188901
0.0199244
0.000141758
0.000141021
0.000302955
0.0178591
0.00798512
0.000207272
0.000155142
0.0167634
0.00206417
0.000146789
0.000165306
0.000139356
0.000186482
0.000206916
0.000183522
0.0072036
0.000302301
0.000154445
0.012529
0.0152282
0.000144393
0.000208003
0.0361934
0.00816177
0.000158691
0.000210264
0.000138247
0.000155298
0.000154798
0.000161831
0.025531
0.0205542
0.00592678
0.0157152
0.00015427
0.000174856
0.000189532
0.000174604
0.000146451
0.000141373
0.00460702
0.000140539
0.0119046
0.000177133
0.000175412
0.000230677
0.0003068
0.0197255
0.000117915
0.000185856
0.000143956
0.000210517
0.000147331
0.000279969
0.000161368
0.000139094
0.000140575
0.000198342
0.000171771
0.000247948
0.0051728
0.000154053
0.000141207
0.000236528
0.00115359
0.0201117
0.00313931
0.000140296
0.00020673
0.000147476
0.0370328
0.00014673
0.0421828
0.000158658
0.000153741
0.000167084
0.000149046
0.000183151
0.000172064
0.000190946
0.0104492
0.0233936
0.000162585
0.000171327
0.000143425
0.000121651
0.0121995
0.000148918
0.000146286
0.00155418
0.000135373
0.0345732
0.00017712
0.000169997
0.000200174
0.00026822
0.000177945
0.000152419
0.000147553
0.000207454
0.0181169
0.000142551
0.000298151
0.0223817
0.000954286
0.000218453
0.00017396
0.0205976
0.000163028
0.000234288
0.000143372
0.00418994
0.00362501
0.00965057
0.0112573
0.0125437
0.000179803
0.00145907
0.000140184
0.0164439
0.00227881
0.0220792
0.00976672
0.000165373
0.00352848
0.0134191
0.000175456
0.000153968
0.000148449
0.0331232
0.000162804
0.000207228
0.000155741
0.000148721
0.000138637
0.000148194
0.0163395
0.000306297
0.000172422
0.0128196
0.000270095
0.000169134
0.000144002
0.000143085
0.000162172
0.0427128
0.000308329
0.00016228
0.000156721
0.000741658
0.000204049
0.000188984
0.00531569
0.000171196
0.0217212
0.00017274
0.000165683
0.000143614
0.00015584
0.000205641
0.00641009
0.00502666
0.0357394
0.000201568
0.0237792
0.000164802
0.000160309
0.000193214
0.00663816
0.0190879
0.00773214
0.000187116
0.000157821
0.00014569
0.000141373
0.000143912
0.000141481
0.00682529
0.000169796
0.00715574
0.000172912
0.00819002
0.000276555
0.0333978
0.00020321
0.000164335
0.0109605
0.000179772
0.000318288
0.0379914
0.000138573
0.00158792
0.000166747
0.0138664
0.00781188
0.000175748
0.000209997
0.00356607
0.000151105
0.000184182
0.000164486
0.01932
0.00463294
0.000159123
0.000147655
0.00477697
0.000221667
0.000230138
0.013608
0.00023659
0.000161882
0.000144273
0.00133384
0.0404108
0.00020115
0.000173728
0.0150003
0.0291249
0.00014031
0.000144847
0.000159808
0.0184692
0.0144049
0.000143834
0.024997
0.000151593
0.000141627
0.000148605
0.0156726
0.000238489
0.00358576
0.00768934
0.000154474
0.000154587
0.000140675
0.0100185
0.000150032
0.0287758
0.00015614
0.0148801
0.000150076
0.000142443
0.000226414
0.00651209
0.00190586
0.000177435
9.31071e-05
0.000152233
0.00014745
0.000145056
0.000187466
0.000202222
0.000202503
0.000175188
0.00504144
0.000160332
0.000225543
0.000243664
0.00441889
0.000147305
0.029683
0.0350052
0.00016202
0.00558089
0.000204411
0.0155621
0.00014863
0.000194355
0.00014551
0.000279609
0.0190622
0.00020598
0.0198972
0.000156122
0.00019268
0.000152935
0.0248583
0.000145186
0.00013922
0.0039144
0.000202135
0.0175412
0.000154206
0.000203578
0.000168934
0.000140743
0.0183406
0.000166484
0.000155292
0.000250539
0.000159298
0.000188208
0.000145681
0.00062434
0.000150035
0.00379669
0.0054498
0.000167388
0.00020972
0.000190699
0.036947
0.000144633
0.0252223
0.0278417
0.000139722
0.000144751
0.000155
0.000150294
0.000182907
0.000142568
0.00198924
0.000210385
0.000939865
0.000189126
0.000147155
0.000150611
0.000142729
0.000140315
0.000147786
0.000144371
0.000294588
0.000159007
0.00999859
0.0166077
0.000218506
0.000156839
0.000175547
0.000154309
0.000151536
0.000173595
0.000147678
0.000159438
0.00616922
0.0415045
0.00030896
0.000154066
0.00905014
0.000265567
0.000150378
0.0005761
0.00550064
0.000143891
0.000157891
0.000143213
0.000732815
0.0156715
0.00426126
0.000147541
0.000159209
0.000159712
0.000147852
0.000232263
0.000148028
0.000836579
0.0044519
0.0161779
0.000138814
0.000159051
0.000157652
0.0200993
0.000142483
0.0141051
0.00708641
0.00536042
0.0200361
0.0175221
0.000345009
0.000154487
0.00474339
0.00180592
0.000153317
0.000140401
0.000139714
0.0182833
0.00787403
0.0103512
0.000187367
0.0242947
0.000148477
0.00023261
0.000148724
0.000156117
0.000153049
0.000138729
0.0175814
0.000153573
0.0348715
0.0282321
0.0134639
0.000188291
0.00019517
0.0149466
0.0174215
0.000146082
0.00649894
0.000142295
0.000136022
0.000143736
0.000532263
0.000152734
0.0107878
0.000165919
0.0070264
0.000176357
0.00685673
0.0122956
0.000212428
0.000138605
0.000190212
0.000199812
0.0168249
0.000147817
0.000140609
0.000154088
0.0308747
0.000147863
0.00661637
0.00992305
0.000186354
0.000197067
0.000147704
0.00557291
0.000149997
0.0434544
0.000137402
0.0069049
0.000174629
0.000147287
0.0104735
0.0120877
0.000138618
0.000204436
0.000160223
0.00960497
0.00294923
0.000243763
0.00677421
0.000150128
0.000190089
0.0191168
0.000157168
0.000457447
0.00015968
0.000210983
0.000176118
0.00782022
0.0227532
0.000147702
0.030291
0.00015348
0.000188041
0.00874177
0.00967787
0.000175542
0.0267403
0.000234085
0.000147738
0.0062378
0.000241252
0.000173739
0.000153357
0.00708556
0.000139243
0.0104088
0.00555172
0.000216214
0.000143407
0.000166908
0.0275439
0.000188554
0.0107567
0.000151738
0.000158555
0.000215889
0.00376673
0.000164689
0.0212888
0.013714
0.0113885
0.000148645
0.00257852
0.000267023
0.0197935
0.000144125
0.000195261
0.000144542
0.0231957
0.000309154
0.00554416
0.00605299
0.000150339
0.000149542
0.000143944
0.0190965
0.00086577
0.0178698
0.0128365
0.000140541
0.0195939
0.00933389
0.000240435
0.00825069
0.027866
0.000173389
0.0096592
0.00015732
0.000163843
0.000824555
0.000122517
0.000159016
0.0233926
0.000149151
0.000145076
0.0132049
0.0231557
0.0134408
0.0174678
0.000172038
0.000150331
0.000153581
0.00707096
0.0114203
0.000142611
0.000190797
0.00673527
0.000145211
0.000147965
0.00146545
0.033152
0.000155576
0.000144381
0.000152917
0.000153428
0.00413087
0.000150207
0.000146223
0.000162702
0.000213671
0.0339115
0.000231162
0.0146878
0.000147906
0.000160105
0.0275193
0.0122065
0.000166386
0.000221849
0.000143306
0.00018022
0.000152426
0.000161528
0.000198009
0.000144926
0.0147114
0.000173107
0.000142846
0.000159202
0.000258125
0.0242655
0.0238693
0.000145447
0.000158634
0.0133798
0.00662881
0.000159502
0.00014684
0.000144809
0.00293265
0.000148145
0.000150455
0.000167837
0.000144568
0.0289973
0.000199496
0.000150021
0.0001595
0.000146027
0.000148037
0.0223548
0.00399122
0.000206432
0.00893052
0.000185702
0.000150756
0.000143166
0.000147352
0.000144114
0.000149828
0.000153901
0.000196339
0.0103208
0.000156092
0.000222531
0.0231763
0.00607414
0.000143728
0.000139324
0.000157672
0.00755372
0.000143557
0.000273485
0.000299104
0.000174821
0.000162813
0.0157014
0.000149486
0.00189714
0.000139355
0.000149668
0.000148209
0.000146231
0.000171363
0.000131497
0.000201745
0.000182189
0.00025964
0.000228712
0.000306633
0.000175371
0.0236782
0.00885034
0.000220329
0.00157132
0.00207927
0.000230262
0.00576092
0.00015035
0.000152943
0.0258122
0.000141124
0.00015985
0.0180669
0.00128364
0.0252907
0.000212862
0.000140215
0.00021411
0.000147561
0.000609138
0.00014849
0.00123402
0.0194401
0.00393555
0.0134516
0.000147601
0.000140697
0.000208098
0.0269741
0.0304562
0.000218101
0.000235004
0.000139724
0.000157829
0.0367299
0.000198301
0.000157468
0.00014801
0.000151464
0.000155436
0.000146586
0.000144939
0.000159205
0.0282123
0.00020997
0.029551
0.000645835
0.00028413
0.000264417
0.000143259
0.000152099
0.000166858
0.000141089
0.000150096
0.00517502
8.8049e-05
0.012309
0.0256464
0.000157457
0.0133696
0.00022975
0.020175
0.0387332
0.000147617
0.000144922
0.00417356
0.000147616
0.000139002
0.000796804
0.0297335
0.000151495
0.000145696
0.000147842
0.000162727
0.000180627
0.000275654
0.00014242
0.000157156
0.0003049
0.00015326
0.00254483
0.000180136
0.0204165
0.000150232
0.000306183
0.0283762
0.000176363
0.00599068
0.000226394
0.0325837
0.000147702
0.000161372
0.000139998
0.00017054
0.0161014
0.000191456
0.00711373
0.000163164
0.000145865
0.000144335
0.0285454
0.000188957
0.000224794
0.00331955
0.000141043
0.00018351
0.00908261
0.000190394
0.000153354
0.000155335
0.000147629
0.000179487
0.000145998
0.000144495
0.0360524
0.0161587
0.0262196
0.000222801
0.000292177
0.0126183
0.000207542
0.0277374
0.000224896
0.000146415
0.00017475
0.000135346
0.000148914
0.0083171
0.00835265
0.000152493
0.00593565
0.0413436
0.000171345
0.00015595
0.000166791
0.00658346
0.00100121
0.0295533
0.000250066
0.0311615
0.000135635
0.000269506
0.000217653
0.00659905
0.00140447
0.000144014
0.000240691
0.0107315
0.000173399
0.0292048
0.000149965
0.00156665
0.0117413
0.0399927
0.000210299
0.000172773
0.0173847
0.000242554
0.0428586
0.0350949
0.0282692
0.000229572
0.000127234
0.000148071
0.000158969
0.000191053
0.0269416
0.0054549
0.0334217
0.000157066
0.0002186
0.000195429
0.000159847
0.00282627
0.000143959
0.000239304
0.022641
0.000143819
0.0150321
0.00519643
0.0409526
0.00172257
0.000281891
0.00266049
0.000142502
0.00958645
0.000162154
0.000155787
0.000186182
0.000158904
0.0371767
0.000159599
0.000161173
0.000159571
0.000145589
0.000117294
0.000155349
0.000231364
0.00620431
0.000138607
0.0365213
0.000218264
0.000157654
0.00811247
0.000300839
0.000143383
0.000257182
0.000151845
0.0397777
0.000697714
0.000153512
0.000234347
0.000155616
0.0124293
0.0325768
0.00020763
0.0211387
0.000160239
0.000144953
0.0161887
0.000159552
0.000144613
0.00018516
0.000185799
0.000139725
0.000142453
0.000226667
0.000154747
0.0215102
0.000275595
0.00099742
0.0149786
0.00019575
0.000197774
0.00014308
0.0142164
0.0219745
0.0198751
0.000144256
0.000149233
0.000206114
0.000171208
0.00549177
0.000144973
0.00662889
0.000145201
0.000219533
0.000151466
0.000900667
0.000231428
0.000231075
0.0359565
0.0273447
0.00599961
0.0308508
0.000136231
0.000282432
0.000267951
0.0254323
0.000149294
0.000237239
0.020271
0.0119625
0.000232984
0.000283035
0.0120152
0.0181207
0.000190071
0.000287016
0.000138707
0.000191492
0.000187951
0.000143618
0.000207284
0.0165638
0.00214232
0.0127539
0.000168608
0.000142465
0.000139897
0.000164057
0.000143773
0.0103489
0.000142505
0.000140449
0.0262728
0.000304373
0.000170325
0.000219151
0.000156991
0.000203503
0.0088219
0.0357491
0.00939
0.000163541
0.0342234
0.000153051
0.000140587
0.000156918
0.0265869
0.000295116
0.000263257
0.000306292
0.000153229
0.000141381
0.000143849
0.000150431
0.000166036
0.0184594
0.000196667
0.000169326
0.00362499
0.0209513
0.00124131
0.0178949
0.000145476
0.00017165
0.000205479
0.00014474
0.00016581
0.000166231
0.000159398
0.0160382
0.0364842
0.000142958
0.000185136
0.000171059
0.00019933
0.0217173
0.0176575
0.017999
0.000148166
0.000214799
0.0233838
0.000213937
0.000233715
0.00106112
0.00591371
0.0182312
0.0317694
0.000141548
0.000231566
0.000150707
0.0001543
0.000144684
0.000197607
0.0172444
0.0165462
0.00714256
0.0112682
0.000195595
0.000138098
0.000139193
0.000147921
0.00015097
0.000188586
0.0221186
0.0388918
0.000211285
0.00607761
0.000148941
0.00019504
0.000138704
0.0416114
0.00020171
0.000147439
0.000224366
0.00021998
0.00126545
0.0319963
0.000226025
0.00573564
0.000160935
0.0213986
0.000291233
0.00029209
0.00173151
0.000152806
0.000194413
0.000147237
0.00365125
0.00829505
0.000184165
0.0340304
0.00028286
0.037132
0.000200106
0.00021213
0.000178952
0.000139889
0.000235885
0.000191919
0.000159964
0.000193818
0.000173152
0.000174634
0.00935341
0.000251468
0.000155687
0.000171149
0.000181054
0.000172567
0.000157811
0.0215218
0.000220849
0.00673277
0.0134626
0.000145479
0.0363316
0.000144563
0.000157622
0.000157021
0.0351076
0.000178924
0.0458315
0.0184766
0.00019646
0.000178496
0.000233028
0.0320741
0.000244717
0.0177127
0.000155162
0.000190248
0.000152261
0.041322
0.0053896
0.000155422
0.000184763
0.000178115
0.000164642
0.000159862
0.000192963
0.000185252
0.000148747
0.000174451
0.0164669
0.0178966
0.000229635
0.000186269
0.000141481
0.0322288
0.000176122
0.000203541
0.000424817
0.000188167
0.0134505
0.000139675
0.000163381
0.000157427
0.000173622
0.000143343
0.0405981
0.0063206
0.000243594
0.00017782
0.00458457
0.0003051
0.00016409
0.0334731
0.000204406
0.000302227
0.0112563
0.000177744
0.000159464
0.000185978
0.000200951
0.000156081
0.000308126
0.034432
0.00336156
0.000139933
0.000307582
0.000237487
0.000259873
0.00014331
0.000188853
0.000146146
0.000171659
0.000150727
0.000170136
0.000169944
0.000139821
0.000139764
0.00024941
0.0255536
0.000145479
0.000232898
0.000292326
0.000138486
0.000217233
0.0418779
0.000220652
0.000220864
0.000144711
0.000166754
0.000204187
0.000182655
0.000141586
0.0120243
0.000170821
0.0401393
0.000214771
0.000165079
0.0157844
0.000217393
0.000232297
0.000140193
0.00619179
0.000172731
0.000165856
0.0256077
0.000185765
0.000148322
0.000204953
0.000160841
0.000159015
0.000144176
0.000399266
0.000145145
0.000197611
0.000257554
0.000216942
0.000145733
0.000267649
0.000173765
0.0239204
0.000229226
0.0307412
0.000216652
0.0389706
0.000138655
0.000209278
0.000163565
0.000142105
0.00567444
0.000276581
0.00016221
0.000184896
0.000200633
0.000206398
0.0318626
0.000164775
0.000946372
0.00102439
0.0325695
0.030574
0.000214321
0.000173665
0.00014017
0.000199187
0.00017623
0.00977799
0.0099095
0.0405293
0.0136525
0.0301367
0.000139586
0.000283948
0.000144081
0.000153611
0.000148426