/*--------------------------------*- C++ -*----------------------------------*\
| =========                 |                                                 |
| \\      /  F ield         | OpenFOAM: The Open Source CFD Toolbox           |
|  \\    /   O peration     | Version:  v2012                                 |
|   \\  /    A nd           | Website:  www.openfoam.com                      |
|    \\/     M anipulation  |                                                 |
\*---------------------------------------------------------------------------*/
FoamFile
{
    version     2.0;
    format      ascii;
    class       pointVectorField;
    location    "900";
    object      pointDisplacement;
}
// * * * * * * * * * * * * * * * * * * * * * * * * * * * * * * * * * * * * * //

dimensions      [0 1 0 0 0 0 0];


internalField   nonuniform List<vector> 
14324
(
(0 0 0)
(-0.0163622 -0.155276 0)
(0 0 0)
(-0.0163622 -0.155276 0)
(0 0 0)
(0 0 0)
(0 0 0)
(0 0 0)
(0 0 0)
(0 0 0)
(0 0 0)
(0 0 0)
(0 0 0)
(0 0 0)
(0 0 0)
(0 0 0)
(0 0 0)
(0 0 0)
(0 0 0)
(0 0 0)
(0 0 0)
(0 0 0)
(0 0 0)
(0 0 0)
(0 0 0)
(0 0 0)
(0 0 0)
(0 0 0)
(0 0 0)
(0 0 0)
(0 0 0)
(0 0 0)
(0 0 0)
(0 0 0)
(0 0 0)
(0 0 0)
(0 0 0)
(0 0 0)
(0 0 0)
(0 0 0)
(0 0 0)
(0 0 0)
(0 0 0)
(0 0 0)
(0 0 0)
(0 0 0)
(0 0 0)
(0 0 0)
(0 0 0)
(0 0 0)
(0 0 0)
(0 0 0)
(0 0 0)
(0 0 0)
(0 0 0)
(0 0 0)
(0 0 0)
(0 0 0)
(0 0 0)
(0 0 0)
(0 0 0)
(0 0 0)
(0 0 0)
(0 0 0)
(0 0 0)
(0 0 0)
(0 0 0)
(0 0 0)
(0 0 0)
(0 0 0)
(0 0 0)
(0 0 0)
(0 0 0)
(0 0 0)
(0 0 0)
(0 0 0)
(-0.0213504 0.102247 0)
(-0.0213129 0.100311 0)
(-0.0212754 0.0983744 0)
(-0.0212379 0.0964382 0)
(-0.0212004 0.0945019 0)
(-0.0211629 0.0925657 0)
(-0.0211254 0.0906294 0)
(-0.0210879 0.0886931 0)
(-0.0210504 0.0867569 0)
(-0.0210129 0.0848206 0)
(-0.0209754 0.0828843 0)
(-0.0209379 0.0809481 0)
(-0.0209004 0.0790118 0)
(-0.0208629 0.0770755 0)
(-0.0208254 0.0751393 0)
(-0.0207878 0.073203 0)
(-0.0207503 0.0712667 0)
(-0.0207128 0.0693305 0)
(-0.0206753 0.0673942 0)
(-0.0206378 0.0654579 0)
(-0.0206003 0.0635217 0)
(-0.0205628 0.0615854 0)
(-0.0205253 0.0596492 0)
(-0.0204878 0.0577129 0)
(-0.0204503 0.0557766 0)
(-0.0204128 0.0538404 0)
(-0.0203753 0.0519041 0)
(-0.0203378 0.0499678 0)
(-0.0203003 0.0480316 0)
(-0.0202628 0.0460953 0)
(-0.0202253 0.044159 0)
(-0.0201878 0.0422228 0)
(-0.0201503 0.0402865 0)
(-0.0201128 0.0383502 0)
(-0.0200752 0.036414 0)
(-0.0200377 0.0344777 0)
(-0.0200002 0.0325414 0)
(-0.0199627 0.0306052 0)
(-0.0199252 0.0286689 0)
(-0.0198877 0.0267327 0)
(-0.0198502 0.0247964 0)
(-0.0198127 0.0228601 0)
(-0.0197752 0.0209239 0)
(-0.0197377 0.0189876 0)
(-0.0197002 0.0170513 0)
(-0.0196627 0.0151151 0)
(-0.0196252 0.0131788 0)
(-0.0195877 0.0112425 0)
(-0.0195502 0.00930627 0)
(-0.0195127 0.00737001 0)
(-0.0194752 0.00543374 0)
(-0.0194377 0.00349748 0)
(-0.0194002 0.00156121 0)
(-0.0193626 -0.000375053 0)
(-0.0193251 -0.00231132 0)
(-0.0192876 -0.00424758 0)
(-0.0192501 -0.00618385 0)
(-0.0192126 -0.00812011 0)
(-0.0191751 -0.0100564 0)
(-0.0191376 -0.0119926 0)
(-0.0191001 -0.0139289 0)
(-0.0190626 -0.0158652 0)
(-0.0190251 -0.0178014 0)
(-0.0189876 -0.0197377 0)
(-0.0189501 -0.021674 0)
(-0.0189126 -0.0236102 0)
(-0.0188751 -0.0255465 0)
(-0.0188376 -0.0274828 0)
(-0.0188001 -0.029419 0)
(-0.0187626 -0.0313553 0)
(-0.0187251 -0.0332916 0)
(-0.0186876 -0.0352278 0)
(-0.01865 -0.0371641 0)
(-0.0186125 -0.0391003 0)
(-0.018575 -0.0410366 0)
(-0.0185375 -0.0429729 0)
(-0.0185 -0.0449091 0)
(-0.0184625 -0.0468454 0)
(-0.018425 -0.0487817 0)
(-0.0183875 -0.0507179 0)
(-0.01835 -0.0526542 0)
(-0.0183125 -0.0545905 0)
(-0.018275 -0.0565267 0)
(-0.0182375 -0.058463 0)
(-0.0182 -0.0603993 0)
(-0.0181625 -0.0623355 0)
(-0.018125 -0.0642718 0)
(-0.0180875 -0.0662081 0)
(-0.01805 -0.0681443 0)
(-0.0180125 -0.0700806 0)
(-0.017975 -0.0720168 0)
(-0.0179374 -0.0739531 0)
(-0.0178999 -0.0758894 0)
(-0.0178624 -0.0778256 0)
(-0.0178249 -0.0797619 0)
(-0.0177874 -0.0816982 0)
(-0.0177499 -0.0836344 0)
(-0.0177124 -0.0855707 0)
(-0.0176749 -0.087507 0)
(-0.0176374 -0.0894432 0)
(-0.0175999 -0.0913795 0)
(-0.0175624 -0.0933158 0)
(-0.0175249 -0.095252 0)
(-0.0174874 -0.0971883 0)
(-0.0174499 -0.0991246 0)
(-0.0174124 -0.101061 0)
(-0.0173749 -0.102997 0)
(-0.0173374 -0.104933 0)
(-0.0172999 -0.10687 0)
(-0.0172624 -0.108806 0)
(-0.0172248 -0.110742 0)
(-0.0171873 -0.112678 0)
(-0.0171498 -0.114615 0)
(-0.0171123 -0.116551 0)
(-0.0170748 -0.118487 0)
(-0.0170373 -0.120423 0)
(-0.0169998 -0.12236 0)
(-0.0169623 -0.124296 0)
(-0.0169248 -0.126232 0)
(-0.0168873 -0.128169 0)
(-0.0168498 -0.130105 0)
(-0.0168123 -0.132041 0)
(-0.0167748 -0.133977 0)
(-0.0167373 -0.135914 0)
(-0.0166998 -0.13785 0)
(-0.0166623 -0.139786 0)
(-0.0166248 -0.141722 0)
(-0.0165873 -0.143659 0)
(-0.0165498 -0.145595 0)
(-0.0165122 -0.147531 0)
(-0.0164747 -0.149467 0)
(-0.0164372 -0.151404 0)
(-0.0163997 -0.15334 0)
(-0.014426 -0.155239 0)
(-0.0124897 -0.155201 0)
(-0.0105534 -0.155164 0)
(-0.00861717 -0.155126 0)
(-0.0066809 -0.155089 0)
(-0.00474464 -0.155051 0)
(-0.00280837 -0.155014 0)
(-0.000872107 -0.154976 0)
(0.00106416 -0.154939 0)
(0.00300042 -0.154901 0)
(0.00493669 -0.154864 0)
(0.00687295 -0.154826 0)
(0.00880922 -0.154789 0)
(0.0107455 -0.154751 0)
(0.0126817 -0.154714 0)
(0.014618 -0.154676 0)
(0.0165543 -0.154639 0)
(0.0184905 -0.154601 0)
(0 0 0)
(0 0 0)
(0 0 0)
(0 0 0)
(0 0 0)
(0 0 0)
(0 0 0)
(0 0 0)
(0 0 0)
(0 0 0)
(0 0 0)
(0 0 0)
(0 0 0)
(0 0 0)
(0 0 0)
(0 0 0)
(0 0 0)
(0 0 0)
(0 0 0)
(0 0 0)
(0 0 0)
(0 0 0)
(0 0 0)
(0 0 0)
(0 0 0)
(0 0 0)
(0 0 0)
(0 0 0)
(0 0 0)
(0 0 0)
(0 0 0)
(0 0 0)
(0 0 0)
(0 0 0)
(0 0 0)
(0 0 0)
(0 0 0)
(0 0 0)
(0 0 0)
(0 0 0)
(0 0 0)
(0 0 0)
(0 0 0)
(0 0 0)
(0 0 0)
(0 0 0)
(0 0 0)
(0 0 0)
(0 0 0)
(0 0 0)
(0 0 0)
(0 0 0)
(0 0 0)
(0 0 0)
(0 0 0)
(0 0 0)
(0 0 0)
(0 0 0)
(0 0 0)
(0 0 0)
(0 0 0)
(0 0 0)
(0 0 0)
(0 0 0)
(0 0 0)
(0 0 0)
(0 0 0)
(0 0 0)
(0 0 0)
(0 0 0)
(0 0 0)
(0 0 0)
(-0.0213504 0.102247 0)
(-0.0213129 0.100311 0)
(-0.0212754 0.0983744 0)
(-0.0212379 0.0964382 0)
(-0.0212004 0.0945019 0)
(-0.0211629 0.0925657 0)
(-0.0211254 0.0906294 0)
(-0.0210879 0.0886931 0)
(-0.0210504 0.0867569 0)
(-0.0210129 0.0848206 0)
(-0.0209754 0.0828843 0)
(-0.0209379 0.0809481 0)
(-0.0209004 0.0790118 0)
(-0.0208629 0.0770755 0)
(-0.0208254 0.0751393 0)
(-0.0207878 0.073203 0)
(-0.0207503 0.0712667 0)
(-0.0207128 0.0693305 0)
(-0.0206753 0.0673942 0)
(-0.0206378 0.0654579 0)
(-0.0206003 0.0635217 0)
(-0.0205628 0.0615854 0)
(-0.0205253 0.0596492 0)
(-0.0204878 0.0577129 0)
(-0.0204503 0.0557766 0)
(-0.0204128 0.0538404 0)
(-0.0203753 0.0519041 0)
(-0.0203378 0.0499678 0)
(-0.0203003 0.0480316 0)
(-0.0202628 0.0460953 0)
(-0.0202253 0.044159 0)
(-0.0201878 0.0422228 0)
(-0.0201503 0.0402865 0)
(-0.0201128 0.0383502 0)
(-0.0200752 0.036414 0)
(-0.0200377 0.0344777 0)
(-0.0200002 0.0325414 0)
(-0.0199627 0.0306052 0)
(-0.0199252 0.0286689 0)
(-0.0198877 0.0267327 0)
(-0.0198502 0.0247964 0)
(-0.0198127 0.0228601 0)
(-0.0197752 0.0209239 0)
(-0.0197377 0.0189876 0)
(-0.0197002 0.0170513 0)
(-0.0196627 0.0151151 0)
(-0.0196252 0.0131788 0)
(-0.0195877 0.0112425 0)
(-0.0195502 0.00930627 0)
(-0.0195127 0.00737001 0)
(-0.0194752 0.00543374 0)
(-0.0194377 0.00349748 0)
(-0.0194002 0.00156121 0)
(-0.0193626 -0.000375053 0)
(-0.0193251 -0.00231132 0)
(-0.0192876 -0.00424758 0)
(-0.0192501 -0.00618385 0)
(-0.0192126 -0.00812011 0)
(-0.0191751 -0.0100564 0)
(-0.0191376 -0.0119926 0)
(-0.0191001 -0.0139289 0)
(-0.0190626 -0.0158652 0)
(-0.0190251 -0.0178014 0)
(-0.0189876 -0.0197377 0)
(-0.0189501 -0.021674 0)
(-0.0189126 -0.0236102 0)
(-0.0188751 -0.0255465 0)
(-0.0188376 -0.0274828 0)
(-0.0188001 -0.029419 0)
(-0.0187626 -0.0313553 0)
(-0.0187251 -0.0332916 0)
(-0.0186876 -0.0352278 0)
(-0.01865 -0.0371641 0)
(-0.0186125 -0.0391003 0)
(-0.018575 -0.0410366 0)
(-0.0185375 -0.0429729 0)
(-0.0185 -0.0449091 0)
(-0.0184625 -0.0468454 0)
(-0.018425 -0.0487817 0)
(-0.0183875 -0.0507179 0)
(-0.01835 -0.0526542 0)
(-0.0183125 -0.0545905 0)
(-0.018275 -0.0565267 0)
(-0.0182375 -0.058463 0)
(-0.0182 -0.0603993 0)
(-0.0181625 -0.0623355 0)
(-0.018125 -0.0642718 0)
(-0.0180875 -0.0662081 0)
(-0.01805 -0.0681443 0)
(-0.0180125 -0.0700806 0)
(-0.017975 -0.0720168 0)
(-0.0179374 -0.0739531 0)
(-0.0178999 -0.0758894 0)
(-0.0178624 -0.0778256 0)
(-0.0178249 -0.0797619 0)
(-0.0177874 -0.0816982 0)
(-0.0177499 -0.0836344 0)
(-0.0177124 -0.0855707 0)
(-0.0176749 -0.087507 0)
(-0.0176374 -0.0894432 0)
(-0.0175999 -0.0913795 0)
(-0.0175624 -0.0933158 0)
(-0.0175249 -0.095252 0)
(-0.0174874 -0.0971883 0)
(-0.0174499 -0.0991246 0)
(-0.0174124 -0.101061 0)
(-0.0173749 -0.102997 0)
(-0.0173374 -0.104933 0)
(-0.0172999 -0.10687 0)
(-0.0172624 -0.108806 0)
(-0.0172248 -0.110742 0)
(-0.0171873 -0.112678 0)
(-0.0171498 -0.114615 0)
(-0.0171123 -0.116551 0)
(-0.0170748 -0.118487 0)
(-0.0170373 -0.120423 0)
(-0.0169998 -0.12236 0)
(-0.0169623 -0.124296 0)
(-0.0169248 -0.126232 0)
(-0.0168873 -0.128169 0)
(-0.0168498 -0.130105 0)
(-0.0168123 -0.132041 0)
(-0.0167748 -0.133977 0)
(-0.0167373 -0.135914 0)
(-0.0166998 -0.13785 0)
(-0.0166623 -0.139786 0)
(-0.0166248 -0.141722 0)
(-0.0165873 -0.143659 0)
(-0.0165498 -0.145595 0)
(-0.0165122 -0.147531 0)
(-0.0164747 -0.149467 0)
(-0.0164372 -0.151404 0)
(-0.0163997 -0.15334 0)
(-0.014426 -0.155239 0)
(-0.0124897 -0.155201 0)
(-0.0105534 -0.155164 0)
(-0.00861717 -0.155126 0)
(-0.0066809 -0.155089 0)
(-0.00474464 -0.155051 0)
(-0.00280837 -0.155014 0)
(-0.000872107 -0.154976 0)
(0.00106416 -0.154939 0)
(0.00300042 -0.154901 0)
(0.00493669 -0.154864 0)
(0.00687295 -0.154826 0)
(0.00880922 -0.154789 0)
(0.0107455 -0.154751 0)
(0.0126817 -0.154714 0)
(0.014618 -0.154676 0)
(0.0165543 -0.154639 0)
(0.0184905 -0.154601 0)
(-0.0206938 0.0683813 0)
(-0.020019 0.0335231 0)
(-0.0193481 -0.00108302 0)
(-0.0186699 -0.0361626 0)
(-0.0179899 -0.0711865 0)
(-0.0173193 -0.105834 0)
(-0.0166394 -0.140889 0)
(-0.0183296 -0.053668 0)
(-0.0210314 0.0858059 0)
(-0.0190045 -0.0188349 0)
(-0.0203558 0.0509033 0)
(-0.0169796 -0.123375 0)
(-0.0196815 0.0161084 0)
(-0.0176575 -0.0884069 0)
(0.00418431 -0.154866 0)
(-0.0114596 -0.155159 0)
(0.0177188 -0.154589 0)
(-0.00066655 -0.00398765 0)
(-0.000377478 -0.00729373 0)
(-0.00084675 -0.00289371 0)
(-0.000942193 -0.00033558 0)
(-0.000226293 -0.00856898 0)
(-4.27709e-05 -0.00974258 0)
(-0.0164511 -0.150252 0)
(-0.000445863 -0.00351161 0)
(-0.000345656 -0.00493002 0)
(0.000152167 -0.0102635 0)
(-0.000959552 0.00132361 0)
(-0.000290807 -0.0035522 0)
(-0.0171276 -0.115705 0)
(-0.0198338 0.023922 0)
(-0.017507 -0.0961718 0)
(-0.0205108 0.058982 0)
(-0.0185199 -0.0438535 0)
(-0.0181382 -0.0635441 0)
(-0.0188598 -0.0263445 0)
(-0.0208816 0.0780713 0)
(-0.0191918 -0.00917844 0)
(-0.0201726 0.041508 0)
(-0.0167928 -0.133048 0)
(-0.0211833 0.0936131 0)
(-0.0194978 0.00668207 0)
(-0.0178431 -0.0788341 0)
(-0.00386587 -0.155037 0)
(-0.000338139 -0.00308983 0)
(-0.000322855 -0.00804146 0)
(-0.000742679 -0.00350979 0)
(-0.000880522 -0.00146843 0)
(-0.000207914 -0.002303 0)
(-0.0002451 -0.00242235 0)
(0.0116823 -0.154726 0)
(-0.000121134 -0.00125412 0)
(-0.000164512 -0.00920481 0)
(5.07706e-05 -0.00992936 0)
(-0.000348117 -0.00582716 0)
(-0.000909776 -0.00230689 0)
(-0.000888812 0.000484645 0)
(-0.00113468 0.00254793 0)
(-0.000462439 -0.00312761 0)
(-0.000494215 -0.00422545 0)
(-0.00032183 -0.00421536 0)
(-0.000260005 -0.00300317 0)
(-0.000133668 -0.00143721 0)
(-4.98343e-05 -0.000524175 0)
(-0.0168762 0.0646751 0)
(-0.0166962 0.0616343 0)
(-0.0169061 0.0599309 0)
(-0.0167191 0.0569527 0)
(-0.0169462 0.0548626 0)
(-0.0166928 0.0515483 0)
(-0.0169077 0.0491587 0)
(-0.0167021 0.0460701 0)
(-0.0168829 0.0436631 0)
(-0.0166662 0.0407975 0)
(-0.0168354 0.0382249 0)
(-0.0166278 0.0355907 0)
(-0.0167743 0.0328243 0)
(-0.0165695 0.0304387 0)
(-0.0166984 0.027231 0)
(-0.0164847 0.0251452 0)
(-0.0166055 0.0216101 0)
(-0.0163916 0.0196413 0)
(-0.0164946 0.0159881 0)
(-0.0162693 0.0141107 0)
(-0.0163702 0.0103669 0)
(-0.0161344 0.00863647 0)
(-0.0162267 0.00481395 0)
(-0.0160007 0.00326525 0)
(-0.0160672 -0.000644249 0)
(-0.0158443 -0.00193736 0)
(-0.0158996 -0.00602012 0)
(-0.015675 -0.00711682 0)
(-0.0157207 -0.0112482 0)
(-0.015498 -0.0121408 0)
(-0.0155255 -0.0164201 0)
(-0.0153006 -0.0169943 0)
(-0.0153116 -0.0213835 0)
(-0.0150906 -0.0217997 0)
(-0.0150914 -0.026107 0)
(-0.0148702 -0.0265241 0)
(-0.0148658 -0.0308534 0)
(-0.0146345 -0.0311158 0)
(-0.0146218 -0.0357278 0)
(-0.0143877 -0.0356205 0)
(-0.0143625 -0.0403023 0)
(-0.0141393 -0.0399151 0)
(-0.0141017 -0.0444141 0)
(-0.0164882 0.0429851 0)
(-0.0160084 0.0123308 0)
(-0.0150801 -0.0174699 0)
(-0.01388 -0.043814 0)
(-0.0138314 -0.0482496 0)
(-0.0136091 -0.0475626 0)
(-0.0135501 -0.0519301 0)
(-0.0136484 -0.0430243 0)
(-0.0133322 -0.0511105 0)
(-0.0132595 -0.0554191 0)
(-0.0130453 -0.0542675 0)
(-0.0129605 -0.0586552 0)
(-0.0127513 -0.0571836 0)
(-0.0126501 -0.0616861 0)
(-0.012441 -0.0600261 0)
(-0.012326 -0.0645645 0)
(-0.014884 -0.0354309 0)
(-0.0159462 -0.0103322 0)
(-0.0134789 -0.0565462 0)
(-0.0121142 -0.0628165 0)
(-0.0119949 -0.0671653 0)
(-0.011784 -0.0653109 0)
(-0.0116614 -0.0694223 0)
(-0.011864 -0.07138 0)
(-0.0115225 -0.0734485 0)
(-0.0117148 -0.0755071 0)
(-0.0113624 -0.0774654 0)
(-0.0111796 -0.0752321 0)
(-0.0110076 -0.0790915 0)
(-0.0108363 -0.0768114 0)
(-0.0106574 -0.0804556 0)
(-0.0108005 -0.0828135 0)
(-0.0104583 -0.0839487 0)
(-0.010586 -0.0863954 0)
(-0.0103131 -0.0817775 0)
(-0.0167077 0.0180143 0)
(-0.0102413 -0.0873128 0)
(-0.0103495 -0.0898377 0)
(-0.0100062 -0.0905307 0)
(-0.0101027 -0.093058 0)
(-0.00975488 -0.0935787 0)
(-0.00984412 -0.0962413 0)
(-0.00948037 -0.0964753 0)
(-0.00954571 -0.0991619 0)
(-0.0171066 0.046529 0)
(-0.00917727 -0.0991697 0)
(-0.00922502 -0.101831 0)
(-0.00885124 -0.101638 0)
(-0.00883095 -0.0987717 0)
(-0.00888049 -0.104324 0)
(-0.00850407 -0.103945 0)
(-0.00851342 -0.106685 0)
(-0.00993148 -0.0989114 0)
(-0.00813627 -0.10607 0)
(-0.00811722 -0.108799 0)
(-0.00774799 -0.10796 0)
(-0.00769998 -0.110602 0)
(-0.00733763 -0.109622 0)
(-0.00725934 -0.11228 0)
(-0.0122297 -0.0582336 0)
(-0.00691343 -0.111112 0)
(-0.00678712 -0.113738 0)
(-0.00696084 -0.108623 0)
(-0.00647297 -0.112308 0)
(-0.00629952 -0.114902 0)
(-0.00599357 -0.1133 0)
(-0.00807 -0.111445 0)
(-0.00579392 -0.115875 0)
(-0.00548207 -0.114204 0)
(-0.00611177 -0.11743 0)
(-0.00557504 -0.118336 0)
(-0.00590819 -0.119864 0)
(-0.00534655 -0.120698 0)
(-0.00566538 -0.122211 0)
(-0.00511618 -0.122881 0)
(-0.00536861 -0.12436 0)
(-0.00482355 -0.124872 0)
(-0.00506658 -0.12636 0)
(-0.00447958 -0.126785 0)
(-0.00424686 -0.125011 0)
(-0.00474806 -0.128319 0)
(-0.00411284 -0.128614 0)
(-0.00436424 -0.130134 0)
(-0.00371737 -0.130264 0)
(-0.00395958 -0.131767 0)
(-0.00462228 -0.131588 0)
(-0.0042092 -0.133193 0)
(-0.0048948 -0.132957 0)
(-0.00352871 -0.133269 0)
(-0.00375275 -0.134663 0)
(-0.00305343 -0.134655 0)
(-0.00325257 -0.135999 0)
(-0.00252751 -0.135892 0)
(-0.00269433 -0.137207 0)
(-0.00194645 -0.136993 0)
(-0.00208461 -0.138294 0)
(-0.00131386 -0.137982 0)
(-0.00122648 -0.136646 0)
(-0.000566304 -0.137534 0)
(-0.00286301 -0.138484 0)
(-0.000624689 -0.13886 0)
(0.000144898 -0.138332 0)
(0.000136947 -0.13963 0)
(0.000904923 -0.138998 0)
(0.000997255 -0.140236 0)
(0.00183036 -0.13938 0)
(0.00191029 -0.140705 0)
(0.00265001 -0.139992 0)
(0.00284089 -0.141097 0)
(0.00349582 -0.140324 0)
(0.00380074 -0.141341 0)
(-0.000558082 -0.136156 0)
(0.00212071 -0.14187 0)
(0.00335297 -0.13934 0)
(-0.0206283 0.0980989 0)
(-0.0205371 0.0955088 0)
(-0.0206191 0.0943381 0)
(-0.0205293 0.091756 0)
(-0.0206013 0.0905189 0)
(-0.0205123 0.0879651 0)
(-0.020575 0.0865739 0)
(-0.0204868 0.0840792 0)
(-0.0205385 0.0826035 0)
(-0.0204541 0.0801522 0)
(-0.0204986 0.0787955 0)
(-0.0204163 0.0762778 0)
(-0.0203671 0.0774709 0)
(-0.0203324 0.0737516 0)
(-0.0204371 0.0966289 0)
(-0.0203731 0.0722961 0)
(-0.0202933 0.069858 0)
(-0.0203247 0.0681786 0)
(-0.0202477 0.0658636 0)
(-0.0202729 0.0641409 0)
(-0.020194 0.0617922 0)
(-0.0202172 0.0601082 0)
(-0.0201383 0.0576673 0)
(-0.0201585 0.0560405 0)
(-0.0200813 0.0535985 0)
(-0.0200972 0.0519501 0)
(-0.0200243 0.0496195 0)
(-0.0200338 0.0478528 0)
(-0.0199633 0.0456518 0)
(-0.0199682 0.0437806 0)
(-0.0198968 0.0415966 0)
(-0.0199011 0.03975 0)
(-0.019829 0.037514 0)
(-0.0198335 0.0358061 0)
(-0.0197609 0.0335017 0)
(-0.0197663 0.0319272 0)
(-0.0196914 0.0294609 0)
(-0.0196887 0.0313343 0)
(-0.0196198 0.0272521 0)
(-0.0200006 0.0507345 0)
(-0.0202415 0.0711852 0)
(-0.0196197 0.0252855 0)
(-0.0195472 0.0230476 0)
(-0.0195442 0.0210145 0)
(-0.0194716 0.0188283 0)
(-0.019466 0.0167224 0)
(-0.0193944 0.0145868 0)
(-0.0193866 0.0124425 0)
(-0.0193167 0.0103495 0)
(-0.0193072 0.00819435 0)
(-0.0192386 0.00612984 0)
(-0.0192296 0.0040493 0)
(-0.0191597 0.00196832 0)
(-0.0191509 -6.78886e-05 0)
(-0.0190799 -0.00214225 0)
(-0.019072 -0.00412265 0)
(-0.0190002 -0.00618437 0)
(-0.0189938 -0.00808455 0)
(-0.0189194 -0.0102777 0)
(-0.0189275 -0.00812111 0)
(-0.0188426 -0.0123801 0)
(-0.0193217 0.0124494 0)
(-0.0188355 -0.0147634 0)
(-0.018756 -0.0166685 0)
(-0.0187427 -0.0190202 0)
(-0.018667 -0.0209339 0)
(-0.018658 -0.0230973 0)
(-0.0185787 -0.0251263 0)
(-0.0185707 -0.0272797 0)
(-0.0184915 -0.0292517 0)
(-0.018482 -0.0315006 0)
(-0.0184017 -0.0333596 0)
(-0.0183889 -0.0357472 0)
(-0.0183079 -0.0374949 0)
(-0.0182931 -0.0399943 0)
(-0.0182118 -0.0417023 0)
(-0.0181974 -0.0442154 0)
(-0.0181133 -0.0459216 0)
(-0.0181004 -0.0484023 0)
(-0.0180122 -0.0501425 0)
(-0.0180238 -0.0475767 0)
(-0.0179166 -0.0518877 0)
(-0.0184887 -0.0274504 0)
(-0.0179065 -0.0544582 0)
(-0.0178057 -0.056231 0)
(-0.0177962 -0.0588256 0)
(-0.0176948 -0.060495 0)
(-0.0176823 -0.063183 0)
(-0.0175788 -0.06472 0)
(-0.0176922 -0.0582035 0)
(-0.0175642 -0.0675163 0)
(-0.0174569 -0.0689062 0)
(-0.017443 -0.0717834 0)
(-0.0173295 -0.073145 0)
(-0.0173162 -0.07603 0)
(-0.0171953 -0.0773886 0)
(-0.0171834 -0.080251 0)
(-0.0170551 -0.0815725 0)
(-0.0170675 -0.078623 0)
(-0.0169191 -0.0827866 0)
(-0.0169062 -0.0857724 0)
(-0.0167636 -0.0869088 0)
(-0.016748 -0.0899413 0)
(-0.0165977 -0.0909482 0)
(-0.0165801 -0.094012 0)
(-0.0164197 -0.0948996 0)
(-0.0164478 -0.0916636 0)
(-0.0162553 -0.0954483 0)
(-0.0162284 -0.098777 0)
(-0.0160474 -0.0993418 0)
(-0.0160213 -0.102562 0)
(-0.0158322 -0.103045 0)
(-0.015804 -0.106271 0)
(-0.0156034 -0.106648 0)
(-0.0155703 -0.10985 0)
(-0.0160744 -0.0958284 0)
(-0.0153593 -0.110055 0)
(-0.0153181 -0.11318 0)
(-0.0151074 -0.113205 0)
(-0.0150496 -0.116342 0)
(-0.0148346 -0.116099 0)
(-0.0147552 -0.119239 0)
(-0.0149085 -0.113122 0)
(-0.0145369 -0.118768 0)
(-0.0144411 -0.121802 0)
(-0.0142213 -0.121188 0)
(-0.0141113 -0.124174 0)
(-0.0138862 -0.123382 0)
(-0.0185644 -0.0293358 0)
(-0.0181821 -0.0466664 0)
(-0.0137549 -0.126333 0)
(-0.0135264 -0.125357 0)
(-0.0191428 -0.0018813 0)
(-0.0194547 0.0143715 0)
(-0.0175512 -0.0702512 0)
(-0.0196169 0.0292501 0)
(-0.0188528 -0.0100029 0)
(-0.0157782 -0.109548 0)
(-0.0199058 0.0382149 0)
(-0.0201711 0.0542649 0)
(-0.0133718 -0.128192 0)
(-0.0131448 -0.127078 0)
(-0.013308 -0.124256 0)
(-0.0129219 -0.125926 0)
(-0.0130942 -0.12311 0)
(-0.0146526 -0.122367 0)
(-0.0205677 0.0810357 0)
(-0.0129699 -0.129764 0)
(-0.0207083 0.096908 0)
(-0.0132045 -0.130903 0)
(-0.0126969 -0.124761 0)
(-0.0128845 -0.121914 0)
(-0.0127719 -0.132295 0)
(-0.0130062 -0.133484 0)
(-0.0125489 -0.134642 0)
(-0.0106836 0.0304071 0)
(-0.012778 -0.135859 0)
(-0.0122989 -0.136799 0)
(-0.0125256 -0.138037 0)
(-0.0124846 -0.123465 0)
(-0.012683 -0.120636 0)
(-0.0102459 0.0278515 0)
(-0.0106136 0.0266295 0)
(-0.0120166 -0.138779 0)
(-0.0122293 -0.140031 0)
(-0.0127589 -0.139251 0)
(-0.0101659 0.0242451 0)
(-0.0105305 0.0228475 0)
(-0.0109679 0.0251409 0)
(-0.0108769 0.0211886 0)
(-0.0104312 0.0190801 0)
(-0.0107698 0.0172336 0)
(-0.0103164 0.0153326 0)
(-0.0106438 0.0132853 0)
(-0.0101833 0.0116336 0)
(-0.0104989 0.00937634 0)
(-0.0100305 0.00797702 0)
(-0.0103365 0.00550765 0)
(-0.0118104 -0.137568 0)
(-0.0116901 -0.140574 0)
(-0.0118937 -0.141815 0)
(-0.011311 -0.142155 0)
(-0.0114971 -0.143389 0)
(-0.0113026 0.0233967 0)
(-0.0108765 -0.14355 0)
(-0.0110268 -0.14474 0)
(-0.00985975 0.00432179 0)
(-0.0101566 0.00170159 0)
(-0.0103738 -0.144774 0)
(-0.0104844 -0.145927 0)
(-0.00979111 -0.145822 0)
(-0.00983264 -0.14692 0)
(-0.0097411 -0.144731 0)
(-0.0107912 0.0069061 0)
(-0.00967258 0.000739898 0)
(-0.00996201 -0.00199356 0)
(-0.0122962 -0.122055 0)
(-0.0124859 -0.119296 0)
(-0.00911238 -0.146684 0)
(-0.00910472 -0.147686 0)
(0.00201298 -0.0979561 0)
(0.00187678 -0.101076 0)
(0.00159015 -0.0980604 0)
(0.00143306 -0.101001 0)
(0.00117605 -0.098102 0)
(0.000995969 -0.100935 0)
(0.000765679 -0.0979549 0)
(-0.00947135 -0.00270078 0)
(-0.00975265 -0.00553785 0)
(-0.00925617 -0.0060096 0)
(-0.00952925 -0.0089186 0)
(-0.0100047 -0.00859523 0)
(-0.00977355 -0.0120164 0)
(-0.0092956 -0.0121217 0)
(-0.00953253 -0.0152465 0)
(-0.00905094 -0.0151509 0)
(-0.0092813 -0.0182735 0)
(-0.00879641 -0.0179887 0)
(-0.0090254 -0.02115 0)
(0.000545658 -0.100856 0)
(0.000346514 -0.0975791 0)
(-0.00853598 -0.020623 0)
(-0.00874933 -0.0238527 0)
(-0.0116777 -0.144602 0)
(-0.0083409 -0.147406 0)
(-0.00828969 -0.148446 0)
(-0.00826426 -0.0229839 0)
(-0.00845815 -0.0262386 0)
(-0.0120964 -0.120771 0)
(-0.0122869 -0.117968 0)
(-0.0126705 -0.116243 0)
(-0.0124709 -0.114984 0)
(-0.0128253 -0.113072 0)
(-0.0126395 -0.111837 0)
(-0.0129826 -0.10981 0)
(-0.0127953 -0.108558 0)
(-0.0131554 -0.10627 0)
(8.7012e-05 -0.100439 0)
(-7.7442e-05 -0.0970651 0)
(0.000609536 -0.0947 0)
(-0.00798139 -0.0250543 0)
(-0.00816882 -0.0283146 0)
(-0.00998307 -0.015192 0)
(-0.00862318 -0.0296817 0)
(-0.00832803 -0.0317066 0)
(-0.00787821 -0.0301461 0)
(-0.00803008 -0.0334789 0)
(-0.00758502 -0.0317329 0)
(-0.00772923 -0.03499 0)
(-0.00815184 -0.0368375 0)
(-0.00784564 -0.0382803 0)
(-0.00742558 -0.0362587 0)
(-0.00753732 -0.0395188 0)
(-0.00711855 -0.0372804 0)
(-0.0072186 -0.040478 0)
(-0.00680996 -0.038075 0)
(-0.00690123 -0.0411573 0)
(-0.00726797 -0.0436675 0)
(-0.00695995 -0.0442359 0)
(-0.00658885 -0.0416129 0)
(-0.00664805 -0.0445642 0)
(-0.00698877 -0.0472146 0)
(-0.00668292 -0.0474359 0)
(-0.00697968 -0.0495833 0)
(-0.00675286 -0.0506639 0)
(-0.00636473 -0.0474067 0)
(-0.00636006 -0.0501398 0)
(-0.00668139 -0.0534793 0)
(-0.00631813 -0.052718 0)
(-0.00601442 -0.0495252 0)
(-0.00597756 -0.0519601 0)
(-0.00626106 -0.055264 0)
(-0.00591583 -0.0542752 0)
(-0.00617047 -0.0575707 0)
(-0.00582575 -0.0564009 0)
(-0.00558934 -0.0531257 0)
(-0.00605206 -0.0596794 0)
(-0.00571255 -0.0583655 0)
(-0.0059135 -0.0616674 0)
(-0.0055695 -0.0601221 0)
(-0.00575195 -0.0634985 0)
(-0.00540714 -0.0617546 0)
(-0.00556919 -0.0651363 0)
(-0.00523301 -0.0632325 0)
(-0.00536621 -0.0665544 0)
(-0.00505809 -0.0599377 0)
(-0.0050395 -0.0644786 0)
(-0.00514627 -0.0677731 0)
(-0.00483306 -0.0655444 0)
(-0.00491334 -0.0688463 0)
(-0.00460117 -0.0662243 0)
(-0.00465791 -0.0696317 0)
(-0.00434512 -0.0666304 0)
(-0.00438601 -0.0701059 0)
(-0.00429296 -0.0629085 0)
(-0.0129388 -0.105178 0)
(-0.0132977 -0.10258 0)
(-0.00745023 -0.147991 0)
(-0.00719768 -0.148891 0)
(-0.000357632 -0.0998347 0)
(-0.00049116 -0.0963459 0)
(0.000271506 -0.103715 0)
(-0.00609929 -0.0649764 0)
(-0.000783698 -0.0990276 0)
(-0.000889983 -0.0954487 0)
(-0.00119451 -0.0980693 0)
(-0.00127589 -0.0944233 0)
(-0.000979087 -0.0916903 0)
(-0.00134133 -0.0905758 0)
(-0.00165607 -0.0933291 0)
(-0.00170447 -0.0894095 0)
(-0.0118902 -0.119492 0)
(-0.0116631 -0.122472 0)
(-0.00408092 -0.066903 0)
(-0.00522843 -0.0710083 0)
(-0.00970936 0.0103007 0)
(-0.00643952 -0.148421 0)
(-0.00607768 -0.149263 0)
(-0.00202337 -0.092168 0)
(-0.0130726 -0.101657 0)
(-0.0134165 -0.0988831 0)
(-0.00138919 -0.0864988 0)
(-0.00173264 -0.0853146 0)
(-0.00691178 -0.149766 0)
(-0.00559528 -0.150012 0)
(-0.00486861 -0.14952 0)
(-0.0042576 -0.150214 0)
(-0.00501864 -0.150749 0)
(-0.00350112 -0.150837 0)
(-0.00286007 -0.150341 0)
(-0.00198672 -0.150888 0)
(-0.00262201 -0.15141 0)
(-0.000945333 -0.151351 0)
(-0.00040146 -0.150848 0)
(0.000705724 -0.151274 0)
(0.000193845 -0.15182 0)
(0.0021024 -0.15163 0)
(0.00223999 -0.151078 0)
(0.0037668 -0.15137 0)
(-0.009806 -0.147966 0)
(0.00368653 -0.151921 0)
(0.00536133 -0.151607 0)
(0.00529404 -0.151031 0)
(0.00688187 -0.151203 0)
(0.00669439 -0.150597 0)
(0.00822173 -0.150703 0)
(0.00851264 -0.15131 0)
(-0.00672545 -0.147529 0)
(-0.0114766 -0.120765 0)
(-0.0125878 -0.107512 0)
(-0.0112117 -0.123385 0)
(-0.0131971 -0.0980015 0)
(-0.0135277 -0.0951199 0)
(-0.0137532 -0.0958018 0)
(-0.0138506 -0.0919406 0)
(-0.0140785 -0.0924255 0)
(-0.0141641 -0.0884809 0)
(-0.0143894 -0.0888079 0)
(-0.0144636 -0.0847994 0)
(-0.0146873 -0.084937 0)
(-0.0147499 -0.080898 0)
(-0.0149725 -0.0808635 0)
(-0.0150234 -0.0768203 0)
(-0.0152473 -0.0765715 0)
(-0.0152823 -0.0725324 0)
(-0.0155049 -0.0719309 0)
(-0.0155268 -0.0680026 0)
(-0.0157413 -0.0671993 0)
(-0.0157584 -0.0633174 0)
(-0.0159698 -0.06236 0)
(-0.0159823 -0.0584134 0)
(-0.0161913 -0.0573351 0)
(-0.0161959 -0.0535136 0)
(-0.0164022 -0.0521878 0)
(-0.0163857 -0.0485549 0)
(-0.0165944 -0.0469596 0)
(-0.0165677 -0.0433284 0)
(-0.0167754 -0.0416207 0)
(-0.016751 -0.0380693 0)
(-0.0169495 -0.0362144 0)
(-0.0169189 -0.0328115 0)
(-0.0171108 -0.0308405 0)
(-0.0170752 -0.0274608 0)
(-0.017262 -0.0254416 0)
(-0.0172972 -0.0287522 0)
(-0.0174427 -0.0233086 0)
(-0.0174042 -0.0200348 0)
(-0.0175797 -0.0178255 0)
(-0.0175376 -0.0146142 0)
(-0.0177095 -0.0122707 0)
(-0.0176639 -0.00915406 0)
(-0.0178333 -0.00665253 0)
(-0.0177806 -0.00365866 0)
(-0.0179512 -0.000973835 0)
(-0.0178865 0.00186632 0)
(-0.0180561 0.00467118 0)
(-0.00895702 -0.00327808 0)
(-0.017984 0.00736632 0)
(-0.0181486 0.0101764 0)
(-0.0182172 0.00772205 0)
(-0.0183046 0.013075 0)
(-0.0182345 0.0156359 0)
(-0.0183849 0.0185238 0)
(-0.00141911 -0.0821546 0)
(-0.00172985 -0.0808958 0)
(-0.0136347 -0.091199 0)
(-0.0177407 -0.0155986 0)
(-0.0183117 0.0210881 0)
(-0.0184566 0.0240154 0)
(-0.00828096 -0.0177611 0)
(-0.01532 -0.0686962 0)
(-0.0167325 -0.0929533 0)
(-0.0184453 0.0160139 0)
(-0.0183791 0.0264905 0)
(-0.0185258 0.0294857 0)
(-0.00110137 -0.10151 0)
(-0.0163981 -0.0561148 0)
(-0.0110489 -0.12178 0)
(-0.0107556 -0.124418 0)
(-0.0184374 0.03185 0)
(-0.0185877 0.0349126 0)
(-0.0186787 0.0323452 0)
(-0.0187294 0.0379946 0)
(-0.0186347 0.040242 0)
(-0.0187804 0.0433833 0)
(-0.0186711 0.0454474 0)
(-0.0188154 0.048731 0)
(-0.018694 0.0505613 0)
(-0.0188352 0.0539236 0)
(-0.018881 0.0407747 0)
(-0.0187034 0.0556014 0)
(-0.0188415 0.0589626 0)
(-0.0189729 0.0573356 0)
(-0.0189754 0.0622959 0)
(-0.0188355 0.0638233 0)
(-0.0189655 0.0670946 0)
(-0.0188151 0.068531 0)
(-0.0189435 0.0718739 0)
(-0.0187783 0.0731406 0)
(-0.0189012 0.0765834 0)
(-0.0187239 0.0776086 0)
(-0.0188377 0.0810981 0)
(-0.0186511 0.081897 0)
(-0.00668735 -0.0349893 0)
(-0.0169319 -0.0797646 0)
(-0.0145367 -0.0807051 0)
(-0.00143554 -0.077556 0)
(-0.00172005 -0.0762705 0)
(-0.0174927 -0.0113358 0)
(-0.014397 -0.0313088 0)
(-0.00569039 -0.111617 0)
(-0.00518109 -0.112426 0)
(-0.00538531 -0.109858 0)
(-0.0190915 0.0755042 0)
(-0.00978547 0.025416 0)
(-0.0186586 0.0697698 0)
(-0.0156024 -0.0030085 0)
(-0.0165436 0.0590248 0)
(-0.0163436 0.0286584 0)
(-0.015991 -0.0541822 0)
(-0.0165462 -0.0395844 0)
(-0.00967224 -0.0908995 0)
(-0.00825074 -0.0400649 0)
(-0.00595878 -0.12392 0)
(-0.010608 -0.122611 0)
(-0.0102772 -0.125164 0)
(-0.0191055 0.0606766 0)
(-0.00202686 -0.0795044 0)
(-0.0019873 -0.0748455 0)
(-0.0157296 -0.0708711 0)
(-0.00489267 -0.110505 0)
(-0.0050941 -0.107929 0)
(-0.00113683 -0.0787384 0)
(-0.0011676 -0.0738921 0)
(-0.000881051 -0.0749875 0)
(-0.0101673 -0.123185 0)
(-0.010499 -0.120729 0)
(-0.0182832 0.0287883 0)
(-0.0178135 0.00459705 0)
(-0.00980552 -0.12556 0)
(-0.00988926 -0.127624 0)
(-0.0149135 -0.0849763 0)
(-0.000921748 -0.0698533 0)
(-0.000645593 -0.070875 0)
(-0.0107424 -0.089264 0)
(0.00286346 -0.127936 0)
(0.00264997 -0.126169 0)
(0.00221475 -0.12741 0)
(0.00203813 -0.125592 0)
(0.00156398 -0.126792 0)
(0.00142865 -0.124884 0)
(0.000929295 -0.126074 0)
(0.000839195 -0.124036 0)
(0.00132595 -0.122824 0)
(-0.00971947 -0.123599 0)
(-0.020349 0.0663791 0)
(-0.00230064 -0.0779411 0)
(-0.00223548 -0.0733024 0)
(-0.018562 0.0522465 0)
(-0.00462543 -0.108415 0)
(-0.00482131 -0.105832 0)
(-0.00440122 -0.110905 0)
(-0.0133609 -0.107839 0)
(-0.0213092 0.10323 0)
(-0.0212625 0.101548 0)
(-0.0212627 0.100427 0)
(-0.0212194 0.0987879 0)
(-0.0212157 0.0976425 0)
(-0.0211739 0.0960211 0)
(-0.0211671 0.0948268 0)
(-0.021126 0.0932069 0)
(-0.0211162 0.0919452 0)
(-0.0210767 0.090364 0)
(-0.0210838 0.0915756 0)
(-0.0210357 0.0887442 0)
(-0.0210273 0.0875588 0)
(-0.0209872 0.0859359 0)
(-0.0209777 0.0847778 0)
(-0.020938 0.0831327 0)
(-0.0209275 0.0819943 0)
(-0.0208885 0.0803479 0)
(-0.0208769 0.0792168 0)
(-0.0208385 0.0775721 0)
(-0.0208255 0.0764232 0)
(-0.0207878 0.0747913 0)
(-0.0207736 0.0736259 0)
(-0.0207366 0.0720007 0)
(-0.0207495 0.0731703 0)
(-0.0206987 0.0703667 0)
(-0.0206845 0.0691777 0)
(-0.0206472 0.0675524 0)
(-0.0206325 0.0663786 0)
(-0.0205958 0.0647549 0)
(-0.0205809 0.0636084 0)
(-0.0205436 0.0619365 0)
(-0.0205573 0.0630851 0)
(-0.0205047 0.0602199 0)
(-0.0204902 0.0590673 0)
(-0.020452 0.0573627 0)
(-0.0204371 0.0562189 0)
(-0.0203998 0.0545433 0)
(-0.0203844 0.053405 0)
(-0.0203474 0.051726 0)
(-0.0203316 0.0505968 0)
(-0.0202947 0.048909 0)
(-0.0202783 0.0477731 0)
(-0.0202412 0.0460558 0)
(-0.020257 0.047211 0)
(-0.0202034 0.0443411 0)
(-0.0201866 0.0431548 0)
(-0.0201502 0.0414998 0)
(-0.0201329 0.0403224 0)
(-0.0200976 0.0386958 0)
(-0.0200812 0.0375906 0)
(-0.0200449 0.0358929 0)
(-0.0200283 0.0347848 0)
(-0.0199919 0.033086 0)
(-0.0199737 0.0319179 0)
(-0.0199385 0.0302599 0)
(-0.0199552 0.0314012 0)
(-0.0199016 0.028554 0)
(-0.0198849 0.0274311 0)
(-0.0198481 0.0257124 0)
(-0.0198313 0.0246057 0)
(-0.0197958 0.0229375 0)
(-0.019778 0.0218115 0)
(-0.0197441 0.0202155 0)
(-0.0198072 0.0237844 0)
(-0.019726 0.0190832 0)
(-0.0196922 0.0174921 0)