/*--------------------------------*- C++ -*----------------------------------*\
| =========                 |                                                 |
| \\      /  F ield         | OpenFOAM: The Open Source CFD Toolbox           |
|  \\    /   O peration     | Version:  v2012                                 |
|   \\  /    A nd           | Website:  www.openfoam.com                      |
|    \\/     M anipulation  |                                                 |
\*---------------------------------------------------------------------------*/
FoamFile
{
    version     2.0;
    format      ascii;
    class       volScalarField;
    location    "750";
    object      k_0;
}
// * * * * * * * * * * * * * * * * * * * * * * * * * * * * * * * * * * * * * //

dimensions      [0 2 -2 0 0 0 0];


internalField   nonuniform List<scalar> 
13851
(
0.000226536
0.000155706
0.00015552
0.0170198
0.000148459
0.000158878
0.00015615
0.000147728
0.0507375
0.000148535
0.000179533
0.000148551
0.000149113
0.0386664
0.00017474
0.000228872
0.017614
0.00014858
0.000216599
0.000226224
0.000177832
0.000156827
0.0456553
0.000149734
0.0895194
0.000195981
0.000318646
0.0250839
0.033363
0.000146808
0.0433796
0.000156161
0.000226689
0.0720523
0.000171539
0.0300954
0.000149811
0.0849532
0.081324
0.000149032
0.0939023
0.030264
0.00612083
0.000237935
0.0275914
0.000147914
0.000145072
0.000228029
0.000153111
0.000149068
0.0337506
0.000149319
0.000228938
0.000168077
0.0332128
0.000149029
0.000227216
0.0917683
0.000317258
0.0430133
0.000148597
0.000294505
0.000148683
0.000153428
0.000184506
0.000185481
0.03537
0.000166765
0.00014931
0.0249615
0.0420255
0.00018296
0.000148667
0.0387811
0.00017028
0.000153161
0.0234698
0.000145822
0.0817081
0.000147969
0.000149383
0.000678961
0.000170949
0.0417631
0.0447807
0.04338
0.000157209
0.0204429
0.000148514
0.0426765
0.000149427
0.000156403
0.013177
0.039455
0.0801179
0.000209481
0.000148053
0.000231442
0.0377009
0.000206109
0.000233718
0.000162256
0.00016327
0.000148911
0.000147886
0.000180232
0.000147888
0.0438254
0.000156383
0.000148418
0.000160126
0.000147917
0.00023242
0.000183879
0.000226483
0.000166886
0.000146565
0.000147176
0.0146826
0.0278217
0.000195432
0.000147701
0.000149221
0.066043
0.000334846
0.000173224
0.000148045
0.000172677
0.0817409
0.000182303
0.000156757
0.000164824
0.068544
0.0715134
0.000180542
0.0780553
0.000166416
0.042689
0.000160271
0.000182331
0.000469939
0.000150615
0.000148531
0.000171942
0.0858802
0.00015259
0.000145745
0.0395543
0.041305
0.000173391
0.000233495
0.000227558
0.000185424
0.000349551
0.000149632
0.000148767
0.00014867
0.0772376
0.000179616
0.000154581
0.000149584
0.0321017
0.000180021
0.000228136
0.0393629
0.0409699
0.040343
0.0397223
0.000159985
0.0961582
0.000148697
0.000146552
0.000185357
0.000148831
0.0841214
0.00033158
0.000238951
0.00014647
0.000170251
0.000237598
0.000318674
0.000240365
0.000159589
0.000182
0.00785051
0.0412195
0.000226655
0.000157601
0.000149445
0.000147374
0.0751557
0.00017953
0.0325043
0.000159134
0.000152317
0.000230196
0.000225026
0.000149672
0.000149789
0.000167408
0.00046453
0.0880276
0.0934857
0.000174755
0.000343414
0.0832887
0.000152385
0.00018255
0.0526968
0.000157634
0.000227713
0.000149158
0.000609589
0.000149557
0.000172472
0.00015441
0.000148982
0.000272518
0.000149877
0.00046501
0.00014643
0.000225999
0.0364429
0.0807085
0.000157232
0.000182975
0.000149753
0.000170388
0.00014821
0.00017206
0.0273846
0.000157145
0.000157622
0.000148777
0.0909994
0.00014678
0.0293912
0.0928189
0.000200061
0.000149646
0.00136614
0.045201
0.0231606
0.000227906
0.000169656
0.000175799
0.000259129
0.000170428
0.000208683
0.000161563
0.0243007
0.000225707
0.000147317
0.000159466
0.000231907
0.0321865
0.01999
0.000147321
0.000173567
0.000148484
0.000252817
0.00033481
0.000160193
0.000180646
0.000226268
0.000148406
0.00016257
0.00021868
0.00706895
0.000148617
0.000148964
0.000157334
0.0491886
0.00978649
0.000181229
0.000147855
0.000321252
0.000343693
0.000219939
0.000180455
0.0528223
0.0376966
0.000160657
0.000171181
0.0802784
0.000147852
0.000148657
0.000221561
0.000175399
0.000146839
0.000149536
0.000148164
0.00014794
0.000169849
0.000148619
0.0509156
0.00017924
0.000148544
0.0321084
0.0625708
0.000149392
0.000226888
0.0351494
0.000150868
0.000149475
0.000180371
0.0401584
0.0761124
0.000189668
0.000148367
0.0919828
0.000148649
0.000191986
0.0426599
0.00416295
0.000154259
0.0747911
0.0278311
0.0498381
0.000224892
0.000162514
0.0836411
0.0732224
0.0231126
0.00015007
0.0242673
0.00926961
0.000225423
0.000214449
0.000152409
0.000188275
0.00015802
0.0213083
0.000163923
0.000147067
0.000144525
0.000159526
0.0466708
0.000382346
0.000147785
0.0779997
0.000158061
0.000165103
0.000154929
0.0344328
0.000307581
0.000230364
0.000153963
0.000156776
0.0244167
0.000149467
0.000352509
0.000160546
0.000180258
0.000158651
0.0001485
0.000148522
0.000215285
0.000212983
0.000226477
0.0550084
0.0238273
0.000152746
0.0903033
0.000268398
0.000146623
0.00462933
0.000205557
0.0441331
0.000158908
0.000197677
0.000290535
0.0838709
0.000210315
0.0243387
0.000151316
0.000336587
0.0063929
0.00016581
0.0294495
0.000168583
0.0963742
0.000170646
0.000178384
0.000224092
0.000253417
0.000148772
0.000159743
0.000176586
0.000170536
0.000148056
0.000181808
0.0500011
0.000148658
0.000182556
0.0101481
0.000155036
0.00719246
0.000182031
0.0795816
0.000158456
0.000193754
0.000346115
0.000333846
0.000179419
0.0175645
0.0386475
0.000841225
0.000148415
0.000212568
0.000168452
0.00019733
0.000147767
0.0075726
0.0686192
0.086705
0.000156718
0.000226113
0.000308618
0.0106477
0.000145279
0.0172881
0.000306284
0.0351818
0.000162221
0.0566211
0.000148693
0.000148763
0.0287045
0.000313737
0.000148549
0.000155768
0.00018309
0.000146818
0.0626975
0.000188922
0.000204275
0.000159396
0.000151354
0.000149361
0.0771355
0.000148503
0.000149297
0.000262929
0.0485125
0.000156125
0.000276118
0.000148712
0.000148601
0.000155695
0.000226521
0.000181707
0.000148136
0.000152218
0.0001953
0.000153752
0.0755794
0.000148507
0.000162693
0.0255897
0.000160901
0.000144937
0.000148819
0.000159207
0.00015027
0.000831226
0.000403533
0.000169963
0.000626623
0.000155848
0.000148448
0.0715288
0.000292151
0.000160262
0.000148768
0.0703079
0.000159675
0.00240566
0.000148913
0.000165386
0.000212385
0.00017268
0.0768837
0.000310488
0.0819635
0.000152832
0.000229133
0.000148409
0.0337911
0.000181913
0.000225291
0.000168257
0.000153615
0.000160951
0.000185976
0.000148524
0.0112963
0.0718328
0.0768418
0.00595057
0.000468509
0.0408857
0.000344351
0.000156701
0.000149393
0.0136055
0.000148536
0.000148029
0.000157909
0.087725
0.000155409
0.000150593
0.000174761
0.000177429
0.000148562
0.107256
0.000148047
0.079086
0.000632013
0.000147973
0.000154138
0.000344647
0.00678518
0.000146877
0.092025
0.0367873
0.000146708
0.0640359
0.000249153
0.000225519
0.000152778
0.000285372
0.0446787
0.000146929
0.000455517
0.000149254
0.000148062
0.000280688
0.097349
0.00017278
0.000180976
0.00014854
0.000190072
0.0814215
0.0790094
0.000147787
0.0264969
0.000148107
0.000149322
0.000179789
0.000162704
0.000145229
0.000153145
0.0669294
0.000244266
0.0629998
0.000154661
0.000148472
0.0446734
0.000149216
0.000214696
0.000162528
0.00017036
0.000169235
0.011938
0.0442217
0.000158977
0.0158313
0.000153635
0.000187063
0.0289118
0.0396162
0.000149181
0.000148433
0.000163317
0.0651929
0.00026397
0.000189557
0.0134475
0.000162953
0.000169531
0.0324395
0.105595
0.000185176
0.0776774
0.000248586
0.0238146
0.000150688
0.000318278
0.0404476
0.00014857
0.0136562
0.110629
0.000160011
0.000182264
0.000148934
0.00051169
0.000177219
0.0538928
0.000148524
0.000149025
0.00015545
0.00017668
0.000148565
0.0842563
0.000148986
0.000245778
0.000152795
0.000198103
0.000148884
0.000148584
0.000167854
0.0266896
0.000178807
0.0761978
0.00016544
0.00014691
0.00014734
0.00018542
0.000152176
0.000199512
0.000156366
0.000159971
0.000312996
0.000149225
0.0160511
0.000149682
0.000209402
0.0181127
0.0312784
0.000156982
0.0549508
0.000174061
0.000225582
0.110252
0.000148232
0.106076
0.000158122
0.000166934
0.00751469
0.0518778
0.000146795
0.000198055
0.000149554
0.0271437
0.0339363
0.000149727
0.000167353
0.0739828
0.000149755
0.000149683
0.000196268
0.0136535
0.000329715
0.000149488
0.000223972
0.000153237
0.000148618
0.000313239
0.000225425
0.000206293
0.000145044
0.000218959
0.000163973
0.000191227
0.000150624
0.000152013
0.000175631
0.00015526
0.000223362
0.000183053
0.000182618
0.000180746
0.000610368
0.000208899
0.0150186
0.0914606
0.000230637
0.048779
0.000163612
0.000277416
0.000227193
0.000148319
0.000168684
0.000375137
0.000158372
0.000147959
0.000147902
0.000209757
0.0220442
0.000163001
0.0894252
0.000146952
0.000324321
0.000180123
0.0335794
0.000197383
0.000158684
0.000155538
0.0385274
0.000206294
0.00016326
0.000316643
0.000150958
0.0152474
0.000209821
0.00024712
0.000167083
0.00113601
0.000148685
0.000149627
0.000151961
0.000148633
0.0309461
0.000147924
0.000301318
0.0489979
0.000197873
0.0817027
0.0418109
0.000249646
0.000243569
0.000156845
0.000149172
0.000148881
0.000145874
0.000147343
0.000148849
0.000188012
0.000230651
0.000164639
0.0164385
0.000152004
0.0522667
0.000149959
0.0198993
0.000169222
0.000149889
0.000148874
0.0337845
0.000159139
0.000265947
0.111364
0.000181003
0.000193104
0.000146509
0.0755976
0.000153749
0.000155486
0.000312354
0.000149202
0.000150599
0.000148094
0.000181929
0.024856
0.000162899
0.000167825
0.000339407
0.0746993
0.00015716
0.000156548
0.0256049
0.000145825
0.0270236
0.000149293
0.000153843
0.0789035
0.000202664
0.00022577
0.00018939
0.000179288
0.000149507
0.000149957
0.000188804
0.000150868
0.000149555
0.000163904
0.00028452
0.00014783
0.000216047
0.00369925
0.000297916
0.000188914
0.0398283
0.000160517
0.000149145
0.000207034
0.000147063
0.00015988
0.0104086
0.0227536
0.105111
0.0200515
0.000149912
0.000149567
0.000169614
0.000151668
0.000147681
0.0402853
0.000254543
0.0326262
0.000209664
0.000203529
0.000148682
0.000146868
0.0316004
0.000204425
0.000154604
0.000149674
0.000225744
0.000241014
0.0914058
0.000149591
0.000148958
0.0215613
0.000150568
0.000168927
0.000146823
0.0901079
0.000148436
0.0209693
0.000148595
0.000195754
0.000175526
0.000169217
0.000167589
0.00014866
0.000155734
0.000148064
0.000291094
0.000150587
0.0234139
0.000151213
0.00249056
0.0659287
0.000165483
0.000147927
0.0115714
0.000692277
0.000159736
0.000202629
0.00014888
0.0176586
0.000148447
0.000357659
0.000148498
0.000148044
0.000272525
0.000169585
0.000148758
0.000168674
0.0878046
0.000432018
0.0797112
0.000147293
0.0511736
0.00014859
0.00014787
0.000149624
0.000144196
0.000149566
0.0953863
0.0183814
0.000149927
0.00014896
0.000173264
0.000147928
0.014841
0.000209812
0.043794
0.0846924
0.00015564
0.000223435
0.000148531
0.000177605
0.000176719
0.000148106
0.000149354
0.00408328
0.0363165
0.000192642
0.00885553
0.000191607
0.000148712
0.000173407
0.000203341
0.023764
0.00016847
0.000342636
0.000205167
0.000149475
0.0481881
0.0433262
0.0295426
0.0687352
0.000284048
0.000152773
0.000175472
0.000149308
0.000244414
0.000157771
0.000147091
0.0877279
0.000151749
0.000147926
0.000149187
0.000151403
0.0864028
0.00035952
0.000147394
0.000174112
0.0403729
0.000152312
0.00796461
0.000151714
0.000200572
0.0961975
0.000148646
0.0002712
0.000160678
0.000166597
0.000482905
0.000151738
0.000601126
0.000193247
0.0912257
0.000149913
0.023865
0.000165223
0.0562957
0.0270054
0.0195821
0.000181222
0.000148737
0.000149989
0.000149754
0.00017672
0.000148841
0.0791843
0.000158922
0.000156661
0.000157001
0.000152672
0.000147224
0.000161051
0.000159144
0.000154124
0.000157918
0.109452
0.000283219
0.000164707
0.000169945
0.0871298
0.000150679
0.0501054
0.000145881
0.000161209
0.00015061
0.000148412
0.000166932
0.000148425
0.00014734
0.000162498
0.000148809
0.000264831
0.000151707
0.0121873
0.00276413
0.000262679
0.000331824
0.000149273
0.077577
0.000235278
0.000149496
0.000158853
0.000150379
0.0533472
0.000151682
0.000162627
0.00298062
0.00814392
0.000179747
0.000149489
0.0156753
0.00174865
0.00027611
0.000160599
0.00014685
0.000147677
0.000189816
0.00014871
0.038828
0.000217248
0.000149332
0.000269549
0.000289906
0.000147992
0.110559
0.0190959
0.000251879
0.000151509
0.0140864
0.000187794
0.000148138
0.0268265
0.000156403
0.000147847
0.000148074
0.000168713
0.000177154
0.0515866
0.0447672
0.000178577
0.0430077
0.000170883
0.000148538
0.000168716
0.000147919
0.0253732
0.00014795
0.000148223
0.00015342
0.000150767
0.0571286
0.0191579
0.000267706
0.0431329
0.0957074
0.000157239
0.000148703
0.000151709
0.000645644
0.000147826
0.000148219
0.00017004
0.0868696
0.000260348
0.000145539
0.000165696
0.000167983
0.00022554
0.00690076
0.000146691
0.000145116
0.00015407
0.0790909
0.000163813
0.0834774
0.000151951
0.000149035
0.000147888
0.000148061
0.000154399
0.000249797
0.0209586
0.0386185
0.000157041
0.000148463
0.0096782
0.000150284
0.0671712
0.0542462
0.000158329
0.0306266
0.0323364
0.0366848
0.000187683
0.000168192
0.0554283
0.000165886
0.000160432
0.000169967
0.000227784
0.000150685
0.00050309
0.000148559
0.0045896
0.0849871
0.000145916
0.000152973
0.000167248
0.000495436
0.000169753
0.000148883
0.000162921
0.000151625
0.000158969
0.000252548
0.0001491
0.000873178
0.0243031
0.000148599
0.000166918
0.000176817
0.000148605
0.0231429
0.0112112
0.0804957
0.0269461
0.000148342
0.000154817
0.000158191
0.000149665
0.000265493
0.000170321
0.000149704
0.00019196
0.000154972
0.00692258
0.000175782
0.0349491
0.000151497
0.0001523
0.000164144
0.000203456
0.000192034
0.00014838
0.00931948
0.0621806
0.035788
0.0459571
0.00711607
0.044491
0.0534954
0.000148374
0.000148457
0.000148859
0.000262808
0.00018119
0.000191275
0.011974
0.000149659
0.00014551
0.000148547
0.000249272
0.00014566
0.000160316
0.000152916
0.000324154
0.000151256
0.000147103
0.000148652
0.00014846
0.000149009
0.000160074
0.000265276
0.000160516
0.0547064
0.000148435
0.000148085
0.0797367
0.0645243
0.0210678
0.000326211
0.000163843
0.000331731
0.000146796
0.000169711
0.000152291
0.000148618
0.000155779
0.0260573
0.000152593
0.000204416
0.0519795
0.000149932
0.000148341
0.000155275
0.000251976
0.000149806
0.000323844
0.000148776
0.000256269
0.000148834
0.000149903
0.000159973
0.000171588
0.000149138
0.000333862
0.0422699
0.000243121
0.0668251
0.000148688
0.028404
0.000266563
0.000148473
0.0846901
0.000149642
0.000162088
0.000149441
0.000149332
0.000147719
0.000148585
0.000150345
0.000155856
0.000192893
0.000149719
0.00014867
0.000165798
0.00014659
0.0947586
0.000148828
0.000167166
0.000170639
0.0499886
0.00910509
0.000149007
0.000252854
0.000146763
0.000166483
0.00017393
0.000334637
0.000182651
0.000149807
0.000217137
0.000168283
0.00020281
0.000380457
0.000161055
0.000219988
0.000189551
0.000194006
0.000151167
0.000147784
0.000285835
0.00966398
0.000155198
0.000148115
0.00796141
0.000147016
0.000176601
0.000147919
0.000178819
0.081939
0.000144679
0.0132722
0.000158761
0.000149086
0.00023764
0.000147074
0.000161695
0.0273682
0.000173712
0.000286029
0.000147694
0.000149757
0.000162225
0.000149514
0.000149624
0.000162718
0.00016417
0.000192823
0.000180544
0.000149018
0.000165769
0.000147661
0.000148487
0.000149445
0.000148489
0.00674916
0.000148107
0.0001518
0.000276764
0.000146965
0.000148038
0.0535498
0.000149653
0.0149632
0.000153001
0.0352799
0.000285311
0.00016458
0.0242391
0.000180964
0.000316209
0.000150442
0.000245015
0.000158782
0.000147681
0.000147926
0.000151752
0.000166393
0.0001484
0.000171851
0.000147436
0.000152305
0.00676193
0.0333299
0.00033652
0.000155623
0.000163131
0.0531135
0.0250203
0.000149174
0.000159901
0.000395403
0.000149623
0.000169788
0.0436487
0.0356879
0.000161372
0.000179334
0.00015113
0.000309744
0.000149904
0.000161316
0.0491687
0.000149304
0.000147884
0.0947844
0.000172711
0.000270758
0.0672607
0.00021035
0.000150063
0.000147456
0.000150036
0.0360791
0.0287197
0.0454107
0.000176484
0.000148664
0.0594807
0.000148757
0.000225808
0.000155485
0.000153429
0.000177284
0.00014848
0.110836
0.0984152
0.000146318
0.00019153
0.000182215
0.0378063
0.000174255
0.000189256
0.000268201
0.000170673
0.000276044
0.000190763
0.000148778
0.000172516
0.000168477
0.00026975
0.000148324
0.000341591
0.000175295
0.000191008
0.000149812
0.0898069
0.000159222
0.000152515
0.000147733
0.000166913
0.000166608
0.000166615
0.000148844
0.000150867
0.000172926
0.0117861
0.000177885
0.000149063
0.000150554
0.000172395
0.000275874
0.000149166
0.000183313
0.0727906
0.000167958
0.0246974
0.000176486
0.0364611
0.000568235
0.000148395
0.0510181
0.000149551
0.000155227
0.000169052
0.000170354
0.000200909
0.000182034
0.00016597
0.000167479
0.000164805
0.000153594
0.000145591
0.00017006
0.000158044
0.000157498
0.00441663
0.000157162
0.000159382
0.000147912
0.0250691
0.000181652
0.000149017
0.00015633
0.000151727
0.0402149
0.000216579
0.000169073
0.0256056
7.16476e-05
0.00216381
0.000201672
0.000270817
0.00014751
0.000186039
0.000148099
0.000155642
0.0818407
0.0231406
0.000680666
0.00681221
0.000148823
0.0352787
0.000147486
0.00020251
0.000154948
0.000348365
0.0955736
0.000159205
0.000148048
0.000463819
0.000162144
0.000148307
0.0425131
0.00014855
0.000152656
0.000158086
0.000149418
0.000163916
0.000151863
0.000148677
0.000163427
0.000757951
0.000175995
0.000178027
0.000148287
0.042399
0.0208165
0.000147946
0.000288913
0.000154864
0.000157343
0.0332525
0.000147928
0.00015075
0.000156837
0.0648772
0.000148336
0.00014917
0.000172807
0.000280192
0.000147825
0.000159782
0.000161793
0.00209523
0.000173768
0.000172133
0.000267246
0.000148564
0.00017313
0.000145979
0.0404717
0.000162682
0.000148531
0.000161114
0.000194266
0.000148945
0.000149508
0.000226727
0.00861297
0.000150224
0.0414436
0.000149234
0.000145922
0.000188326
0.000148308
0.000148106
0.111467
0.000149827
0.00017529
0.000236307
0.0564825
0.00127472
0.000147706
0.00015281
0.000156609
0.000148474
0.000148712
0.000148702
0.00035269
0.000149314
0.000265569
0.000219888
0.000147817
0.000146756
0.000163865
0.000219716
0.000284765
0.000166858
0.000179575
0.000153185
0.0493585
0.000177537
0.000166278
0.000177424
0.000172514
0.0001974
0.020886
0.000175283
0.0245965
0.00369305
0.0198243
0.000156282
0.000148464
0.000168858
0.000159432
0.00014761
0.000150253
0.000179977
0.000149608
0.000149927
0.000148433
0.000145083
0.000153855
0.000148987
0.0221053
0.000148032
0.093964
0.000148527
0.000174503
0.000150821
0.000220385
0.000174366
0.000148757
0.0189411
0.000152728
0.000149512
0.000176334
0.000147556
0.000158981
0.000148583
0.0159772
0.000153987
0.000174857
0.000171065
0.0152286
0.000158266
0.000267228
0.00473509
0.000169957
0.000149229
0.000152149
0.000177006
0.000186395
0.0310451
0.000146936
0.0279876
0.00014907
0.000169819
0.0799882
0.000165853
0.000350545
0.000155643
0.00016755
0.0001545
0.0980145
0.000163464
0.000148863
0.000168952
0.000222355
0.000152745
0.000148454
0.000148892
0.0807882
0.000149689
0.000157595
0.0690173
0.000155763
0.000148395
0.000172137
0.000155211
0.00571099
0.000145517
0.000148529
0.000147175
0.000154939
0.000150331
0.000149298
0.000191736
0.0688262
0.000148292
0.000148703
0.0365133
0.000149776
0.0134409
0.000154288
0.0862075
0.000147806
0.000153674
0.000146762
0.0291186
0.0621849
0.000159343
0.000169492
0.000155735
0.000148323
0.000148786
0.0140665
0.000148826
0.000202293
0.000147055
0.000178723
0.000149282
0.0537287
0.00014701
0.000180777
0.000147884
0.000237256
0.000865041
0.000147364
0.000166389
0.1065
0.000193875
0.000308529
0.000349912
0.000222917
0.000151962
0.000168808
0.000201913
0.0121387
0.000149491
0.000175052
0.00015673
0.000148552
0.0240461
0.0316443
0.000193311
0.000234847
0.000491336
0.000162968
0.0399943
0.000147538
0.000147289
0.000195721
0.0992042
0.000273837
0.000220674
0.000744145
0.000146823
0.092924
0.0388231
0.0787733
0.000149308
0.039373
0.0412412
0.000855351
0.000416571
0.0574864
0.000203602
0.000163556
0.000232181
0.000154539
0.000148476
0.0352542
0.000205234
0.00014544
0.0508711
0.000149266
0.00015869
0.00017747
0.000155727
0.0434551
0.000160391
0.0100658
0.000180391
0.000155028
0.000736641
0.0985523
0.000225853
0.000149931
0.000154674
0.00019016
0.000168832
0.000146883
0.000176048
0.000167629
0.000215797
0.000148426
0.000249894
0.000153925
0.000168977
0.000294009
0.000275446
0.000151412
0.000190007
0.0374889
0.000149294
0.000151146
0.073277
0.000385874
0.000154753
0.000155905
0.000148656
0.000175611
0.000158127
0.0285949
0.000199941
0.000150308
0.000149447
0.000166363
0.000159586
0.000223898
0.0388548
0.000147793
0.000148347
0.000159341
0.000149278
0.00015486
0.000151434
0.000151476
0.000154825
0.000148095
0.000154502
0.000149358
0.000182244
0.0123308
0.00014975
0.0619126
0.0176559
0.000145989
0.000185524
0.000192131
0.000181367
0.000150819
0.0002054
0.000160437
0.000169002
0.000164452
0.000152476
0.000149349
0.0296409
0.000162495
0.000301039
0.000150765
0.000148576
0.000148252
0.000174014
0.000148241
0.000181099
0.000190715
0.000359553
0.00014768
0.000336123
0.0760783
0.0651057
0.000146753
0.000208693
0.000229062
0.078008
0.0612584
0.000150365
0.000149771
0.000204413
0.00041449
0.00032628
0.000175596
0.000288548
0.0001495
0.000147862
0.00016474
0.000149312
0.000149155
0.000218998
0.000149765
0.000169989
0.000147744
0.0993808
0.0535606
0.0078841
0.000336077
0.0613754
0.00014913
0.000149004
0.110471
0.000147149
0.00014747
0.000145948
0.000187338
0.0791277
0.0324667
0.000156396
0.000149263
0.000152145
0.000163133
0.0398044
0.000148165
0.000349488
0.100921
0.000149273
0.000149172
0.0418624
0.000200137
0.000153258
0.000148449
0.0799427
0.0637364
0.000148764
0.000255348
0.000149685
0.0663034
0.000953853
0.000153764
0.0219321
0.0141246
0.0525201
0.000147593
0.000149474
0.000149639
0.000149902
0.065111
0.000148032
0.000207776
0.0002747
0.0291791
0.000151258
0.000175398
0.00010957
0.000176814
0.109096
0.0579644
0.000145271
0.000158271
0.000158487
0.00022528
0.0201233
0.000144938
0.0246005
0.000160839
0.000178697
0.000150828
0.000147579
0.000340866
0.000169782
0.0163202
0.000149306
0.000175484
0.000150971
0.000220962
0.000155377
0.0675404
0.00038469
0.00022117
0.000207485
0.000148368
0.000153254
0.000202296
0.000184636
0.0449145
0.110628
0.000148934
0.000338245
0.000170683
0.0923423
0.000160335
0.000171931
0.000171516
0.000149216
0.0604967
0.00014854
0.000168197
0.0243584
0.097439
0.0126158
0.0841656
0.000158259
0.000180728
0.000146916
0.100195
0.000157396
0.0864809
0.000146818
0.0121122
0.000144726
0.000148155
0.000167463
0.000158655
0.000160003
0.000148516
0.0408166
0.000179864
0.00014805
0.000166581
0.0312533
0.000216702
0.00014865
0.0620415
0.00015439
0.000170884
0.000168513
0.000145745
0.000181718
0.000148133
0.0821683
0.000173926
0.000160672
0.00014845
0.000413368
0.000173108
0.000146802
0.0256832
0.0352507
0.000294288
0.000146123
0.00063427
0.000148967
0.000200199
0.000161864
0.000184308
0.0630773
0.0421941
0.000159614
0.081581
0.000170285
0.000157927
0.000147182
0.035074
0.000181871
0.00020019
0.000165718
0.000149592
0.000319937
0.000188415
0.000592045
0.00027247
0.109195
0.0401263
0.0599364
0.0408843
0.000158245
0.000158813
0.000148702
0.000149143
0.000145104
0.000243698
0.000158935
0.000160003
0.074
0.000148042
0.000147058
0.000177921
0.000223368
0.000161863
0.000147237
0.0893999
0.000154853
0.000182211
0.000149493
0.0227767
0.000157336
0.0915778
0.000166877
0.000169064
0.000172252
0.000148663
0.0086268
0.000176591
0.000184523
0.000148835
0.000147304
0.0291064
0.0449744
0.0304985
0.000147956
0.00018472
0.000250716
0.00014909
0.000148058
0.000149113
0.0787639
0.000171827
0.000163444
0.000161341
0.00015919
0.00717592
0.000182084
0.000306328
0.000159859
0.000167895
0.000145042
0.000186905
0.000174402
0.0001485
0.0116717
0.060963
0.0854793
0.006107
0.0382774
0.0869026
0.110964
0.0001515
0.000147896
0.0843116
0.0529731
0.0837483
0.000148961
0.000174796
0.00014866
0.000148272
0.000347995
0.0992266
0.000190136
0.000148164
0.000326376
0.00020398
0.000178256
0.0504393
0.0640894
0.000295394
0.000147338
0.0699804
0.00035016
0.00036038
0.000168521
0.000175767
0.000149327
0.000147411
0.000170771
0.000175033
0.000154392
0.000176798
0.00016186
0.000154812
0.000257553
0.0423802
0.000159377
0.000178533
0.0646042
0.000252595
0.000148747
0.000194615
0.000249191
0.0255175
0.000171301
0.000149414
0.0001639
0.000158358
0.000158678
0.000145746
0.000159043
0.000167134
0.000181132
0.000218774
0.000149501
0.000151978
0.0414789
0.0177088
0.0947392
0.000131883
0.000216096
0.000144552
0.000148591
0.000164485
0.000146776
0.104263
0.000148579
0.000149824
0.000146282
0.013124
0.0360014
0.000150062
0.000190705
0.000159554
0.000161771
0.000163656
0.000159873
0.000175718
0.000167996
0.018064
0.000159193
0.0574568
0.000168142
0.0922288
0.000162233
0.000147468
0.000147087
0.000205682
0.000226738
0.000146824
0.00016317
0.000162692
0.000178351
0.000308378
0.0201533
0.00196169
0.000149823
0.0253024
0.000158891
0.000164902
0.000148437
0.000183526
0.000152954
0.0234363
0.000328012
0.000166359
0.000148612
0.0165171
0.000155898
0.0445295
0.0528758
0.000258424
0.000153967
0.000215311
0.00320229
0.0144327
0.060323
0.000180309
0.000148485
0.000168151
0.000147953
0.0883177
0.000154326
0.000164316
0.000331906
0.0866253
0.000148271
0.000148371
0.0464717
0.000171318
0.0779694
0.000158917
0.000148455
0.000173467
0.00026241
0.000162589
0.000334373
0.000164795
0.00632343
0.000156313
0.000149637
0.000148292
0.0002816
0.000150648
0.000185561
0.000148711
0.000148782
0.000246567
0.000159364
0.000149228
0.000148323
0.000165115
0.00188174
0.000178986
0.000171379
0.000155416
0.00018195
0.000148799
0.000199289
0.000164713
0.000176061
0.000167194
0.000162289
0.000175649
0.000163334
0.000147825
0.000193118
0.0405253
0.0260204
0.000149352
0.00649176
0.0426322
0.000148338
0.000150646
0.000246162
0.0545967
0.000156273
0.0400286
0.00061224
0.000149011
0.000202935
0.00014506
0.000158739
0.000183373
0.0855746
0.000212188
0.000257517
0.000229776
0.00652672
0.0713328
0.000153473
0.054036
0.000148526
0.000345964
0.0702359
0.000148726
0.000148456
0.0274903
0.000149098
0.000148643
0.000339506
0.0237731
0.000265664
0.000159372
0.0640299
0.000148607
0.0114266
0.0470972
0.00014922
0.000337523
0.0742273
0.0608127
0.0345012
0.0463976
0.0287471
0.000147459
0.000151638
0.000184724
0.000190878
0.000148616
0.000251322
0.000148476
0.045335
0.00031612
0.000164394
0.000277192
0.0441691
0.000303232
0.000263161
0.000165551
0.0191972
0.000633864
0.000157691
0.0001454
0.000353914
0.000161584
0.000147061
0.0894697
0.000148359
0.000348264
0.000149208
0.0917913
0.000158147
0.000148306
0.0122382
0.000156123
0.000160644
0.0253087
0.105493
0.00291844
0.000162039
0.000180708
0.000151947
0.000176483
0.000219549
0.000177105
0.000149383
0.000361287
0.000186853
0.000161967
0.0314782
0.000174581
0.000162462
0.000212051
0.000190536
0.000180414
0.00014828
0.000240614
0.000147117
0.000220113
0.000300813
0.0588864
0.00014722
0.000170232
0.0220855
0.000153134
0.000182019
0.00016708
0.00017268
0.0905167
0.000187525
0.000152022
0.0488855
0.000147261
0.0153184
0.000148849
0.000152264
0.000220396
0.028628
0.000162227
0.000191274
0.000237206
0.000167295
0.000149702
0.000178647
0.000174255
0.0762506
0.000155361
0.0105161
0.000226734
0.000167211
0.000163503
0.000180102
0.000167351
0.000168111
0.000187817
0.000162783
0.000154886
0.000149244
0.0111287
0.000148585
0.000161904
0.00014513
0.000214589
0.000162736
0.000188284
0.0559176
0.0001513
0.000270739
0.000144338
0.000149248
0.000149262
0.000149366
0.00016011
0.000147809
0.000203707
0.0374756
0.000188602
0.000178628
0.000157277
0.000148923
0.000271217
0.000148728
0.000905936
0.0171855
0.0274927
0.000231704
0.000164385
0.000161234
0.00014921
0.000158219
0.000170783
0.000170103
0.0686345
0.000188795
0.0600161
0.000232104
0.000149363
0.000146945
0.0264484
0.000148316
0.000164672
0.00016622
0.000504718
0.000153319
0.0765482
0.000149141
0.000156676
0.000148666
0.00015058
0.000178473
0.000213618
0.000149691
0.000168807
0.000159751
0.000179817
0.000188688
0.000233865
0.000208741
0.000259336
0.000225281
0.000159303
0.000151831
0.000188498
0.025768
0.107736
0.0212203
0.0001679
0.055088
0.000212634
0.000151693
0.000148107
0.000191565
0.000148991
0.000168622
0.0208425
0.000148223
0.000147606
0.00174727
0.000345244
0.000182348
0.00691714
0.000149103
0.0338118
0.000170058
0.0942495
0.000157402
0.000148793
0.0125322
0.00016532
0.000148662
0.000172691
0.000149691
0.000197806
0.000161665
0.000164625
0.0951527
0.000159725
0.0394964
0.000147872
0.0511079
0.000149143
0.000158221
0.000150449
0.000172962
0.0001489
0.000166509
0.018646
0.000258014
0.000178802
0.000161569
0.000168759
0.000148195
0.000149434
0.000152471
0.000301499
0.000157806
0.0979741
0.0475314
0.000195758
0.000149449
0.000201124
0.000229931
0.000225351
0.000158914
0.056087
0.000148419
0.000144559
0.000148299
0.0773127
0.000149148
0.000148606
0.0191878
0.00014825
0.000223311
0.000172217
0.00014761
0.0531443
0.000162662
0.093004
0.000148398
0.000571035
0.000151493
0.000167324
0.0232065
0.000190105
0.000148091
0.00016134
0.00324216
0.000168473
0.00020421
0.000166139
0.000157706
0.000192731
0.000158536
0.000149776
0.00793675
0.000162369
0.000162929
0.000227735
0.000148324
0.000147728
0.000149205
0.000166705
0.000149157
0.000155642
0.0476011
0.0148097
0.000171591
0.00755099
0.000191286
0.000170951
0.0877984
0.0504371
0.0001501
0.0167663
0.0971947
0.0393932
0.0416628
0.000164475
0.00351651
0.0219671
0.0399713
0.0471797
0.106025
0.000163117
0.000170077
0.000157974
0.000159283
0.000150597
0.000591212
0.000149902
0.0160473
0.000175215
0.000208198
0.000144964
0.000196796
0.000163934
0.000152198
0.000149954
0.00014869
0.000174476
0.000154077
0.000149985
0.000177314
0.068404
0.000155345
0.000200986
0.000146885
0.000174315
0.000169743
0.000149286
0.000156767
0.000147811
0.0899496
0.0445325
0.000236023
0.0481186
0.000161466
0.00019997
0.000148893
0.000178055
0.000149327
0.000150011
0.000149563
0.0156173
0.000146946
0.000181471
0.000322104
0.000158017
0.000166466
0.000148307
0.080425
0.000239579
0.0308024
0.0442794
0.000223495
0.000418539
0.0347462
0.00049763
0.000290218
0.0161234