/*--------------------------------*- C++ -*----------------------------------*\
| =========                 |                                                 |
| \\      /  F ield         | OpenFOAM: The Open Source CFD Toolbox           |
|  \\    /   O peration     | Version:  v2012                                 |
|   \\  /    A nd           | Website:  www.openfoam.com                      |
|    \\/     M anipulation  |                                                 |
\*---------------------------------------------------------------------------*/
FoamFile
{
    version     2.0;
    format      ascii;
    class       surfaceVectorField;
    location    "100";
    object      Uf;
}
// * * * * * * * * * * * * * * * * * * * * * * * * * * * * * * * * * * * * * //

dimensions      [0 1 -1 0 0 0 0];


internalField   nonuniform List<vector> 
20642
(
(0.695106 0.0279732 0)
(0.704258 0.0288952 0)
(0.723989 0.0324462 0)
(1.00304 0.00507131 5.87096e-22)
(1.0044 0.00384896 -1.90564e-22)
(1.00196 0.0031536 -1.45044e-21)
(1.03937 0.0558027 1.7233e-20)
(1.03906 0.0562162 1.15611e-20)
(1.03948 0.0563744 1.02777e-20)
(1.01908 0.0125731 1.94976e-22)
(1.01872 0.012998 -6.82576e-22)
(1.01857 0.0124042 -2.255e-21)
(1.01009 -0.0449768 -1.93258e-21)
(1.00757 -0.0496179 1.20455e-21)
(1.00458 -0.0446365 1.4157e-21)
(1.00143 0.00623852 9.33133e-22)
(1.00288 0.00778583 7.45514e-22)
(1.02487 0.0276055 3.24162e-21)
(1.02432 0.026969 9.44766e-22)
(1.02409 0.0277969 4.63553e-21)
(1.00539 -0.0511271 5.45178e-21)
(1.01569 -0.0608761 -3.57584e-21)
(0.997266 -0.06281 -8.3922e-22)
(1.03542 0.0210095 9.1518e-21)
(1.03483 0.0212777 -2.46894e-21)
(1.0354 0.0218018 1.4119e-20)
(0.00513901 -0.0604429 -3.51632e-21)
(0.0146724 -0.062814 -1.97249e-21)
(0.995537 -0.0447665 4.89074e-21)
(1.0083 -0.0420139 -9.01597e-22)
(1.01304 0.00787745 1.33312e-21)
(1.01291 0.00823724 0)
(1.01337 0.00817531 2.48554e-21)
(1.00877 0.000146369 -1.97467e-21)
(1.00889 9.80692e-05 5.90978e-22)
(0.589406 -0.0774709 -4.08871e-22)
(0.559789 -0.0574057 7.80023e-21)
(0.606642 -0.0477838 6.94513e-21)
(0.992874 0.00408266 4.1927e-22)
(0.99278 0.00500907 -4.72087e-22)
(0.993799 0.00460366 1.17051e-21)
(0.678813 0.0267897 1.7235e-20)
(0.633146 0.0213112 -1.04437e-20)
(1.02647 0.000154514 0)
(1.02647 0.000115655 9.20418e-24)
(1.02093 9.35762e-05 0)
(0.988479 -0.0382512 6.09713e-22)
(0.983112 -0.0318305 -2.1409e-21)
(0.993231 -0.0316869 9.43774e-22)
(1.03221 0.0542647 -5.49361e-21)
(1.03265 0.0547031 7.44641e-21)
(1.03192 0.0549603 -6.59881e-21)
(0.632549 0.0348849 -6.40177e-21)
(0.709258 0.0413175 0)
(0.711931 0.0447274 1.47547e-20)
(0.986918 0.0193795 -6.06434e-27)
(0.985339 0.0203155 -2.13606e-22)
(0.985525 0.0183718 0)
(1.00904 -0.00999147 -1.84353e-23)
(1.00884 -0.00927434 -3.34916e-22)
(1.00843 -0.010047 -9.25491e-23)
(1.02752 0.0423319 1.79972e-23)
(1.02808 0.0419512 6.16591e-21)
(1.02796 0.0428671 -1.32349e-20)
(1.00939 -0.0108855 2.50325e-22)
(1.00956 -0.0100486 1.64521e-22)
(1.01271 0.0171736 3.27985e-21)
(1.01282 0.0177859 1.06372e-21)
(1.01223 0.0173793 -4.74946e-21)
(0.980998 0.0144794 6.56664e-22)
(0.982536 0.0157895 1.42381e-21)
(0.983141 0.013793 8.38805e-22)
(0.982757 0.205611 3.53689e-21)
(0.993166 0.188641 2.53136e-22)
(0.97191 0.187527 -1.52532e-21)
(0.0201809 -0.0550086 4.62161e-23)
(0.975015 -0.00666204 2.48298e-21)
(0.974752 -0.00296223 3.48891e-21)
(0.978917 -0.00495121 -3.13729e-21)
(1.02394 0.0121727 -8.39624e-24)
(1.02379 0.012328 4.21591e-22)
(1.02333 0.0118587 2.26585e-22)
(-0.00946353 -0.0332478 9.20541e-21)
(0.0187289 -0.0432534 -1.07402e-20)
(1.03607 0.0456416 0)
(1.03648 0.0458211 -2.82919e-23)
(1.03597 0.046019 0)
(1.01442 0.0129577 0)
(1.01428 0.0124885 0)
(1.01477 0.012663 -1.35427e-21)
(0.76978 0.0378753 -8.98896e-21)
(0.789636 0.0406416 6.80023e-21)
(0.788466 0.040251 1.40193e-20)
(1.03517 -0.016561 1.37201e-22)
(1.03544 -0.0159476 1.5279e-22)
(1.03632 -0.0166945 -2.24177e-22)
(1.03104 -0.0645181 -1.92374e-21)
(1.01809 -0.0826829 -1.5639e-21)
(1.00142 0.010264 4.9063e-22)
(1.00145 0.010959 -6.05175e-22)
(1.00074 0.01058 -5.84652e-22)
(1.00809 -0.000206269 -3.80781e-23)
(1.01229 -0.000234399 1.95733e-23)
(1.00723 -0.000188581 -3.48151e-23)
(1.0254 0.0281918 2.47533e-21)
(1.02554 0.0273724 0)
(0.992608 0.0379461 1.47937e-22)
(0.992385 0.0397217 -1.74985e-21)
(0.994331 0.0388031 -1.71019e-21)
(1.01258 -0.000108345 1.93385e-22)
(1.01047 -5.00638e-05 -2.72998e-21)
(1.01769 0.000742138 -1.48536e-21)
(1.05188 -0.00648435 -7.98473e-23)
(1.0527 -0.0066237 2.89581e-23)
(1.05205 -0.00682197 1.40743e-22)
(1.03341 0.0171994 9.46791e-21)
(1.03259 0.0174195 -1.4252e-20)
(1.03296 0.0165538 0)
(1.03523 0.0521987 -2.94143e-21)
(1.03557 0.0518797 0)
(1.03566 0.0525023 1.44735e-20)
(1.03476 0.0518892 6.57631e-21)
(1.03473 0.0525963 -2.05563e-21)
(1.01739 0.0458771 -1.89456e-21)
(1.01677 0.0478444 0)
(1.01582 0.0460564 -2.42261e-21)
(0.9887 0.0186728 1.48979e-22)
(0.988737 0.0203405 5.1909e-22)
(0.273447 0.0694103 0)
(0.431571 0.0813996 9.19723e-21)
(0.424124 0.0914946 2.82959e-20)
(0.911702 0.0607069 0)
(0.867883 0.000264624 -4.43366e-21)
(0.957046 0.0619341 -6.89765e-21)
(1.03446 -0.0165358 1.70732e-22)
(1.03523 -0.0172938 2.82037e-22)
(1.01274 0.00764175 3.65756e-21)
(1.01312 0.00758564 -8.41597e-23)
(1.01995 0.0542838 0)
(1.01945 0.0542131 -6.12476e-21)
(1.0199 0.0539243 0)
(0.481574 0.018963 7.02837e-21)
(0.614623 0.0225387 -9.84478e-21)
(0.477189 0.0181128 -3.96431e-22)
(1.00814 0.00334773 -3.9561e-22)
(1.0084 0.00312886 -4.60152e-22)
(1.00804 0.00290489 -4.48513e-22)
(1.00815 0.0045531 1.53892e-21)
(1.00837 0.00428784 8.31538e-22)
(1.00856 0.00468895 -2.96471e-23)
(1.02033 0.054344 -1.89251e-21)
(1.01995 0.0547724 -5.72324e-21)
(0.204046 0.000580714 8.97028e-21)
(1.02689 0.042605 5.47611e-21)
(1.02711 0.0417052 8.24279e-21)
(1.05109 -0.00629067 -2.31985e-23)
(1.05177 -0.0062055 -6.15261e-23)
(1.01778 0.0432038 -4.32019e-21)
(1.01989 0.0456673 2.74957e-21)
(0.585291 0.0799647 1.33072e-21)
(0.493996 0.0849462 0)
(0.483699 0.0984429 0)
(1.06662 -0.00114892 1.68455e-22)
(1.07274 -0.00457856 -7.87917e-23)
(1.0627 -0.00930035 1.23978e-22)
(1.01095 0.000384948 1.48927e-24)
(1.01173 0.000581307 1.00016e-22)
(1.01271 0.000813192 6.4996e-26)
(1.01325 0.0168747 -1.21996e-21)
(1.01263 0.0165707 -5.3922e-22)
(1.0511 0.066326 -1.23326e-21)
(1.05073 0.0677287 0)
(1.04249 0.0668609 0)
(1.03448 0.0194591 2.47263e-23)
(1.03373 0.0191714 -1.49769e-22)
(1.03411 0.0193933 1.08056e-22)
(0.975477 -0.0110284 2.52322e-21)
(0.976539 -0.0154421 0)
(0.980786 -0.0126583 0)
(1.03713 -0.0498561 -5.62402e-21)
(1.0425 -0.0638613 1.11162e-20)
(0.982532 -0.0465623 2.98219e-22)
(0.68508 0.0274587 1.17284e-20)
(0.663353 0.0266335 1.11621e-20)
(0.660341 0.0261005 -3.5592e-21)
(1.03912 0.0624507 -1.48213e-22)
(1.03772 0.063574 0)
(1.04254 0.063218 0)
(0.754002 0.0358287 -2.95e-21)
(0.753033 0.0362543 -1.78658e-20)
(1.02033 0.00611162 0)
(1.02069 0.00639947 -1.34573e-21)
(1.02015 0.00643155 -2.28774e-21)
(1.05034 -0.00607223 -1.84968e-23)
(1.05041 -0.00645713 -3.32433e-23)
(0.983585 0.0214333 4.06981e-22)
(0.985324 0.0222382 -1.64587e-22)
(1.00797 0.0167379 -6.17676e-22)
(1.00793 0.0174775 2.79872e-21)
(1.00732 0.0167297 -1.50899e-21)
(1.0044 -0.0253078 4.44823e-23)
(1.00297 -0.0264763 4.98498e-22)
(1.00264 -0.0239392 8.34354e-22)
(1.04955 -0.00580813 3.30771e-23)
(1.0503 -0.00570601 1.16547e-23)
(1.00868 0.0166346 1.61448e-21)
(1.00804 0.0160837 4.53764e-22)
(1.01415 0.0131326 0)
(1.01455 0.0133583 -2.22362e-21)
(1.00343 4.79567e-05 4.1221e-23)
(1.00343 -0.000659631 8.07532e-23)
(1.00397 -0.000254056 8.11293e-23)
(1.02622 2.22772e-05 2.53566e-23)
(1.02646 2.59134e-05 2.31044e-23)
(1.02114 1.66738e-05 5.76823e-24)
(1.02053 0.00577841 0)
(1.02002 0.00579084 -2.77639e-22)
(1.03969 0.0560407 5.97162e-21)
(1.03825 0.0564801 -9.70216e-22)
(1.03827 0.0557442 -4.33439e-22)
(1.01221 0.00018905 0)
(1.01216 0.000225431 0)
(1.01216 0.000119808 0)
(0.906255 -0.0413436 -5.28602e-21)
(0.891162 -0.0354534 -7.89825e-21)
(0.89709 -0.052626 4.95647e-21)
(1.03626 0.0450705 -5.29857e-21)
(1.03559 0.0453769 0)
(1.01229 0.000176828 8.41457e-22)
(1.0123 0.00014479 -1.40892e-22)
(1.01175 0.000135381 -4.19707e-22)
(0.993238 0.0359689 1.7081e-21)
(0.991151 0.0366241 2.1664e-21)
(1.02605 0.000202455 -4.30618e-24)
(1.02863 0.000146961 0)
(1.03065 0.00029901 0)
(1.0304 0.000365798 0)
(1.03101 0.000413326 1.28941e-23)
(1.03371 0.0179647 7.64797e-21)
(0.949088 0.112843 0)
(0.87546 0.0690725 -4.67846e-21)
(1.03578 -0.0127937 0)
(1.0366 -0.0129358 0)
(1.03601 -0.0123767 0)
(1.00539 0.00507063 7.60029e-22)
(1.00534 0.00451338 -3.43709e-22)
(1.0049 0.00481347 -6.6272e-22)
(0.97049 -0.00857739 6.5629e-22)
(0.897536 0.14745 -3.48343e-21)
(0.911361 0.140711 -8.30938e-22)
(0.894092 0.13278 0)
(1.02333 -0.000424415 4.53443e-23)
(1.02312 -0.000442915 8.35267e-22)
(1.01879 -0.000225836 4.19805e-23)
(1.01236 0.000183433 0)
(1.01226 0.000205044 -8.72151e-22)
(0.956321 0.100594 0)
(0.956122 0.0908171 0)
(0.948446 0.0947821 -4.99629e-22)
(1.0158 0.000602896 3.70656e-24)
(1.01606 0.000547701 0)
(1.01204 0.000336209 2.79905e-23)
(1.0158 0.000622999 -5.26164e-22)
(1.01792 0.000675418 3.94045e-23)
(1.00296 0.00027753 -9.6171e-23)
(1.0035 0.000617966 -8.9973e-24)
(1.02493 -0.00085191 -9.97206e-24)
(1.02458 -0.000854141 -7.17158e-23)
(1.02357 -0.000652376 -9.44849e-24)
(1.00588 -0.0237712 4.48134e-22)
(1.00644 -0.026154 4.96588e-22)
(1.03629 0.049614 5.38339e-21)
(1.03648 0.0497314 -4.89809e-21)
(1.0392 0.0495358 1.3887e-20)
(0.806109 0.0713081 -8.24026e-21)
(0.80104 0.0669816 -1.40899e-20)
(0.787195 0.0679785 -1.26759e-20)
(1.05729 3.28249e-05 -1.01239e-20)
(1.06568 0.00687563 1.7879e-22)
(1.05335 -0.00648147 0)
(1.05362 -0.00663472 0)
(0.970023 0.220401 -1.35631e-22)
(0.990336 0.222347 4.27402e-21)
(1.01433 0.00023217 -5.16925e-23)
(1.0144 0.000240516 3.34604e-22)
(0.812563 0.043759 -8.33399e-22)
(0.793534 0.0417003 5.17435e-21)
(0.975065 0.000584299 3.82066e-21)
(0.971139 -0.000326461 5.57654e-22)
(1.05153 0.0650561 1.83262e-21)
(1.04991 0.0657159 -3.90993e-22)
(1.00524 0.0168789 1.34919e-21)
(1.00527 0.0177006 -6.9324e-23)
(1.00593 0.0169445 0)
(1.0318 0.0537703 1.38331e-21)
(1.03247 0.0536335 6.76494e-21)
(1.0276 0.00074618 5.61406e-23)
(1.02873 0.0010558 1.81183e-22)
(1.02822 0.000858872 -2.19516e-23)
(1.03761 0.0565124 3.53729e-22)
(1.03804 0.0560772 2.27938e-21)
(1.03745 0.0559704 -4.35613e-21)
(1.02074 0.00346805 -2.94053e-21)
(1.02067 0.00384037 2.70978e-21)
(1.02034 0.00348598 1.76821e-21)
(1.0284 -6.65327e-05 3.1226e-23)
(1.02571 2.63422e-05 5.04531e-22)
(1.04804 -0.00603453 -3.88001e-23)
(1.04723 -0.00611867 9.88004e-23)
(1.0472 -0.00568704 6.15338e-23)
(0.978119 -0.020494 1.34728e-21)
(0.971619 -0.0188015 1.74135e-21)
(1.02608 0.0538389 7.76241e-21)
(1.02537 0.0538807 -1.8608e-20)
(1.02582 0.05312 -1.44809e-20)
(0.637434 0.0210156 -8.73996e-21)
(0.662605 0.0244958 -9.46195e-21)
(0.642319 0.0218182 2.69421e-21)
(1.04303 0.0561352 -4.59464e-21)
(1.04343 0.0556503 0)
(1.0137 0.0166246 1.56725e-21)
(1.01417 0.0163359 3.3961e-21)
(1.01363 0.0160467 4.95538e-21)
(0.981832 0.0203031 -8.11189e-23)
(0.981838 0.0226478 4.4745e-22)
(1.02265 -0.013516 0)
(1.0232 -0.0134659 0)
(1.0226 -0.0129084 0)
(1.0267 0.0535984 9.4982e-21)
(1.02642 0.0543128 2.70217e-21)
(1.03476 0.0323132 0)
(1.03434 0.0328767 0)
(1.0351 0.0327914 2.11643e-21)
(1.03972 0.0737523 -7.93248e-21)
(1.03606 0.0707846 -1.9107e-21)
(1.04119 0.068962 -1.99706e-21)
(0.984117 0.0484635 0)
(0.955278 0.0472083 -6.81266e-21)
(0.960115 0.0474188 0)
(1.00442 0.0169245 -1.23664e-21)
(1.00503 0.0161113 -6.86483e-23)
(1.03612 0.0477547 1.27961e-20)
(1.03579 0.0481808 2.38077e-20)
(1.0364 0.0481556 3.43742e-22)
(0.945175 0.233266 -3.32981e-21)
(0.949447 0.214897 -2.31778e-21)
(0.406845 0.0544564 -2.08695e-21)
(0.501076 0.0547318 -2.58404e-21)
(0.504507 0.0400622 2.42082e-21)
(0.609813 0.0228451 0)
(0.607374 0.0222692 -1.06605e-20)
(0.633255 0.024682 0)
(0.978251 0.0108708 -2.72591e-21)
(0.979635 0.0128868 -1.71483e-21)
(0.980723 0.0103783 1.02873e-21)
(1.00826 -0.000150564 -1.51656e-22)
(0.833385 -0.049697 1.62816e-21)
(0.805745 -0.0362908 4.65228e-22)
(0.816597 0.0104287 1.42257e-21)
(1.04881 -0.00593127 5.45937e-23)
(1.04874 -0.00551801 6.18253e-24)
(1.03585 0.0494761 -1.95189e-20)
(1.03775 0.0497813 -1.19342e-20)
(1.01183 -0.00498519 -1.34877e-22)
(1.01207 -0.00506686 1.01615e-22)
(1.01198 -0.00541438 -3.74485e-23)
(1.01901 0.00554445 0)
(1.01927 0.00585836 -1.97979e-21)
(1.01885 0.0058882 0)
(1.05379 -0.00609247 0)
(1.05406 -0.00708441 -2.93734e-23)
(1.05449 -0.00623073 0)
(1.03875 0.0614766 -7.85209e-23)
(1.04005 0.0618451 1.35905e-20)
(0.902531 0.053694 -3.74444e-21)
(0.461523 0.0796798 -2.94223e-21)
(0.511886 0.081772 -2.41339e-20)
(0.348249 0.0542011 -1.07263e-20)
(1.00822 0.00384228 5.20709e-22)
(1.00781 0.00362512 5.12332e-22)
(0.993851 0.0344527 6.12519e-22)
(0.994371 0.0329357 -3.6292e-22)
(0.99261 0.03313 -7.49826e-22)
(1.01447 0.000492808 -3.10898e-24)
(1.01535 0.000595242 3.34536e-23)
(1.01713 0.000964773 -3.73433e-22)
(1.01876 0.00525808 -7.98495e-22)
(1.01914 0.00520434 0)
(0.904331 0.163812 -5.95772e-22)
(0.885976 0.152411 4.02359e-21)
(1.01333 -0.0173145 5.27157e-22)
(1.01321 -0.0181529 3.08642e-22)
(1.014 -0.0179675 -5.16271e-22)
(1.02532 -0.000896386 -3.59939e-23)
(1.0254 -0.00123794 0)
(0.945121 0.0470453 6.34063e-21)
(0.939135 0.0458713 -6.5201e-21)
(0.916601 0.0453676 -8.3365e-21)
(1.02304 0.000553665 5.72552e-23)
(1.02281 0.000540912 1.04289e-22)
(1.01748 0.000247962 1.30422e-22)
(1.02674 0.000669026 2.62162e-23)
(1.0254 0.000460292 4.74712e-22)
(1.01183 -0.000909615 0)
(1.01175 -0.000902489 -1.01145e-23)
(1.01183 -0.00112535 -4.85995e-22)
(0.978405 0.0929826 -1.02144e-20)
(0.991384 0.0912655 0)
(0.957148 0.0930073 -6.79541e-21)
(0.996846 0.00745862 9.96984e-23)
(0.997213 0.00792575 -4.21435e-23)
(0.997383 0.00728142 1.04739e-22)
(0.856224 -0.117609 0)
(0.749553 0.123943 0)
(0.752765 0.127263 2.82755e-21)
(0.782578 0.118783 -8.86734e-21)
(0.942867 0.120387 -8.47455e-22)
(0.950842 0.114423 -1.62904e-21)
(0.940097 0.10992 -5.80005e-22)
(0.482658 0.0171474 -3.92e-21)
(0.49156 0.152387 -7.10694e-21)
(0.594887 0.151703 -2.51269e-20)
(0.497018 0.152924 -1.38297e-20)
(1.01499 0.00334421 0)
(1.01516 0.00370396 1.27187e-24)
(1.01471 0.00346447 -6.00864e-25)
(0.977037 0.00830733 -1.40477e-21)
(0.975709 0.0113465 -9.99688e-22)
(1.00933 -0.0116053 -1.85961e-22)
(1.0092 -0.0123091 -9.56112e-23)
(1.00851 -0.0116459 -1.40534e-22)
(0.975937 0.0492971 2.52948e-21)
(0.980245 0.0497833 4.293e-21)
(0.948597 0.0475701 -1.54473e-20)
(1.03552 0.0202368 4.62399e-22)
(0.715068 0.0554949 -1.93728e-21)
(0.660127 0.0667083 7.50774e-22)
(0.675788 0.0526094 2.97759e-21)
(1.01734 0.0532741 3.63136e-21)
(1.01759 0.0526493 4.75561e-21)
(1.01793 0.0532027 -2.499e-21)
(1.0186 0.000631608 2.7156e-23)
(1.02133 0.000924555 2.21435e-23)
(1.01838 0.000617025 2.01001e-22)
(1.01953 0.0128418 8.07029e-22)
(1.01942 0.0122793 6.56795e-22)
(1.01912 0.0539438 -9.68941e-22)
(1.0187 0.0535615 -1.51045e-21)
(1.01935 0.0535728 5.17967e-22)
(1.03514 0.0316498 6.84816e-21)
(1.0344 0.0317222 2.70347e-21)
(0.996219 0.0075874 -1.23681e-22)
(0.996541 0.00696079 2.16693e-22)
(1.03197 0.0175172 -1.08512e-20)
(1.03154 0.0168987 3.86233e-21)
(1.03113 0.0176851 -6.56595e-21)
(1.01001 -0.0115495 4.47754e-23)
(1.01251 0.00740103 1.09696e-23)
(1.01238 0.00768404 2.8326e-21)
(1.01718 0.0602196 -3.26435e-21)
(1.01836 0.0602258 -3.13327e-21)
(1.01729 0.0615204 3.49293e-21)
(1.03716 0.0569583 2.1198e-21)
(1.0378 0.0571602 -2.34217e-21)
(1.03858 0.0789056 4.61928e-21)
(1.04591 0.0776319 -6.93636e-21)
(1.01258 0.00707185 -2.64854e-21)
(1.01222 0.00712609 -2.56952e-21)
(1.01537 0.0603385 9.24408e-22)
(1.01659 0.0589159 -9.06469e-21)
(1.0246 0.0124571 -1.47956e-22)
(1.02398 0.0119273 1.06902e-23)
(0.921525 -0.0422663 -1.02802e-20)
(0.91395 -0.0288757 -2.10208e-21)
(1.01662 0.0535749 -1.75594e-21)
(1.0173 0.0541496 4.70764e-22)
(1.03439 0.0515253 1.29022e-20)
(1.03488 0.0512214 9.20411e-21)
(1.0214 0.0589136 0)
(1.02218 0.0584593 5.36577e-21)
(1.02137 0.0580647 7.98729e-21)
(0.707811 0.0302643 -1.10651e-20)
(0.730139 0.035064 -1.1822e-20)
(0.710337 0.0328736 3.85486e-21)
(1.03574 -0.013262 0)
(1.03525 -0.0127175 -7.6682e-23)
(0.650746 0.0245347 -1.01242e-20)
(0.670602 0.0259322 0)
(0.646141 0.022828 1.18224e-20)
(1.01211 0.0255933 -2.33585e-21)
(1.01141 0.0259779 1.86837e-21)
(1.01149 0.0250848 -2.19068e-21)
(1.01106 0.0490412 0)
(1.00744 0.048687 -1.45912e-21)
(1.03602 -0.0154699 -4.41494e-22)
(1.0348 -0.0153092 -3.33259e-22)
(1.01345 -0.0165167 5.0281e-22)
(1.0127 -0.0165269 2.29189e-22)
(0.991599 0.0187689 -4.28953e-22)
(0.991921 0.020217 1.41417e-22)
(0.992865 0.0191225 -5.61887e-24)
(0.663323 0.0261105 0)
(0.664501 0.0265975 0)
(0.688448 0.0280653 0)
(0.608866 0.0226403 0)
(0.566611 0.0206284 0)
(1.00162 0.00754575 0)
(1.00115 0.0078388 3.19678e-22)
(1.00112 0.0072172 4.40593e-22)
(1.03115 0.181876 2.19118e-23)
(1.02743 0.166038 4.80882e-21)
(1.04801 0.174065 0)
(0.989442 0.00149046 3.33509e-23)
(0.991003 0.00112004 1.63406e-23)
(0.990638 0.00285349 1.11177e-21)
(0.995165 0.0355178 0)
(1.04887 -0.00635377 0)
(1.01901 0.0544527 -5.68986e-21)
(1.00357 -0.00135614 2.54267e-23)
(1.00297 -0.00109744 -3.43816e-23)
(1.02285 -0.00914225 -3.30511e-23)
(1.0227 -0.00867335 -1.26854e-22)
(1.02328 -0.00904949 -8.89649e-23)
(1.01971 -0.0764341 2.10915e-21)
(1.02536 -0.0688669 -7.78763e-21)
(1.01354 -0.0686631 -7.44102e-21)
(1.02193 -0.0862588 -5.91658e-22)
(1.00747 -0.0853075 5.72993e-21)
(0.595084 0.0945353 -2.55462e-21)
(1.03593 0.0474135 -5.9317e-21)
(1.03644 0.0474089 -4.68758e-21)
(0.978856 0.0153585 -5.38256e-22)
(0.954198 0.0739567 2.22503e-21)
(0.950609 0.0761054 -1.01492e-20)
(0.979292 0.0756224 -1.04075e-20)
(1.01287 -0.000263507 -7.7604e-22)
(1.01152 -1.36482e-05 1.09085e-21)
(1.01319 -0.000411461 -3.66039e-22)
(1.03949 0.000669122 -5.04964e-23)
(1.03987 0.000459688 -2.601e-23)
(1.039 0.000476663 -2.86871e-23)
(1.03995 0.000847181 -6.37468e-23)
(1.03912 0.000906476 1.50877e-22)
(0.48611 0.148431 1.23547e-20)
(1.01956 0.059859 1.47001e-21)
(1.02061 0.0593272 5.51525e-21)
(1.01953 0.0588715 1.82032e-22)
(1.01409 0.060284 8.05894e-21)
(1.01272 0.0599908 3.46151e-21)
(1.01365 0.058601 1.6303e-21)
(1.01391 0.000970614 -1.19521e-22)
(1.01398 0.00109061 2.65636e-21)
(1.01405 0.000975927 1.81968e-21)
(1.01025 0.000315956 1.00184e-22)
(1.00803 0.000144784 7.85008e-23)
(0.933199 0.249042 6.46231e-21)
(0.91703 0.243711 3.47691e-22)
(0.653486 0.025345 1.23134e-20)
(1.03717 0.000465367 -4.97069e-23)
(1.03772 0.000561332 2.86965e-23)
(1.03759 0.000327168 1.36453e-22)
(1.03658 0.000384875 1.76355e-23)
(1.03672 0.000578203 1.71711e-23)
(1.01701 -0.000198397 0)
(1.00941 -5.4616e-05 0)
(1.04044 0.0010367 5.82858e-23)
(1.04087 0.000839047 -3.52515e-23)
(1.04091 0.00126842 1.39059e-22)
(1.04008 0.0012811 -1.96807e-22)
(0.735784 0.033053 -1.84366e-20)
(0.749267 0.0352546 1.78396e-20)
(0.692393 0.108077 -9.1451e-22)
(0.686427 0.115452 -3.54423e-21)
(0.741684 0.110809 1.42545e-20)
(1.00535 -0.00542651 8.65877e-23)
(1.0059 -0.00550887 7.9813e-23)
(1.0056 -0.00490001 3.19645e-22)
(1.01659 0.00576562 4.37319e-24)
(1.017 0.00612524 1.85434e-24)
(1.01703 0.00583996 -1.54888e-24)
(1.02168 0.051665 -1.57814e-21)
(1.02113 0.0517606 -3.49812e-22)
(1.02142 0.0512844 0)
(0.735926 0.0337735 -1.91754e-21)
(0.72139 0.0317496 -9.05826e-21)
(0.739336 0.0342663 -6.6279e-22)
(1.02622 0.000512055 -4.85401e-23)
(1.02346 0.000456903 0)
(1.02329 0.000425964 3.11448e-24)
(1.01378 0.000986954 -2.89381e-21)
(1.01383 0.000873839 1.96696e-21)
(1.01017 0.186939 2.7461e-22)
(1.02181 0.201052 -3.7653e-24)
(1.03582 0.049384 -6.56929e-21)
(1.03557 0.0492403 0)
(1.03711 0.0494074 0)
(1.01961 0.0607889 4.24893e-21)
(0.959711 0.0724846 1.02473e-20)
(0.930088 0.07166 2.04825e-20)
(1.01988 0.0548994 5.24597e-22)
(1.01984 0.0555178 4.4177e-21)
(1.02041 0.0552505 -3.93092e-21)
(1.01173 -0.00465261 0)
(1.0116 -0.00496489 0)
(0.682574 0.14421 -1.84753e-20)
(0.67715 0.141155 -1.26994e-21)
(1.02217 0.0517783 -7.36082e-21)
(1.02173 0.0522346 -1.34124e-21)
(0.975327 0.00327794 3.90631e-21)
(0.978207 0.000948492 1.62107e-21)
(1.03068 0.0492841 1.29119e-22)
(1.03059 0.0497942 0)
(1.03117 0.0496037 -1.2691e-20)
(1.00205 0.00722047 0)
(1.00212 0.00783007 6.85707e-22)
(0.717198 0.101679 -1.68743e-20)
(1.02063 0.00416313 4.31501e-21)
(1.02031 0.00416266 2.10579e-24)
(1.02058 0.00450937 2.6115e-21)
(1.00773 0.0441059 -3.76429e-21)
(1.00745 0.0448975 -6.52631e-21)
(1.00858 0.0445726 -2.62492e-21)
(1.01738 0.052084 3.00815e-21)
(1.01732 0.0511527 -1.67219e-21)
(1.0166 0.0517387 9.60065e-21)
(1.00484 -0.0066203 -1.8515e-22)
(1.00513 -0.00596152 -1.15188e-22)
(1.00541 -0.00670633 -1.29834e-22)
(1.01048 0.000177748 -2.0396e-22)
(1.01377 0.0172039 -3.76417e-21)
(1.02447 -0.0329346 2.58967e-22)
(1.02286 -0.030174 0)
(1.02624 -0.0292283 4.29648e-22)
(1.0401 -0.0140023 -9.47646e-23)
(1.03993 -0.0143135 -4.34635e-22)
(1.0406 -0.01444 8.32628e-24)
(0.701734 0.0296796 0)
(0.686295 0.0279716 0)
(0.682145 0.0274489 0)
(0.565697 -0.24197 -2.26521e-22)
(0.564951 -0.236399 -3.2601e-21)
(0.590749 -0.223181 3.86792e-21)
(1.0464 -0.00797533 -3.69025e-23)
(1.04551 -0.00806973 -9.54316e-23)
(1.04555 -0.00752745 -4.60859e-23)
(1.03633 0.000196112 0)
(1.03601 0.000347174 0)
(1.01235 -0.0182697 -3.80243e-22)
(1.01319 -0.019068 -2.35106e-23)
(1.03665 3.9534e-05 2.01404e-23)
(1.03608 3.41802e-05 9.28628e-24)
(1.02102 0.00417085 -1.13799e-21)
(1.01162 0.000210665 -9.91786e-23)
(1.00836 0.000145502 1.48641e-21)
(1.02002 0.0389741 3.05214e-21)
(1.02033 0.0397423 2.9636e-21)
(1.01947 0.0397785 -7.29523e-22)
(1.0473 -0.0079014 -7.9436e-23)
(1.04727 -0.00849441 7.6359e-23)
(0.620508 0.0227995 9.15186e-21)
(0.641519 0.0253683 -8.05567e-21)
(0.808989 0.0763707 1.20465e-20)
(0.828705 0.0750999 -6.29133e-21)
(1.01174 0.00472144 0)
(1.01201 0.00469193 -9.73665e-22)
(1.01174 0.00442423 7.20887e-22)
(1.01667 -0.0272276 1.6524e-22)
(1.0172 -0.0294596 -7.5108e-22)
(1.01468 -0.0284899 -1.30734e-21)
(1.01807 0.0401442 4.94404e-21)
(1.02194 0.039691 -1.30091e-21)
(1.01744 0.0362907 2.62084e-21)
(1.03948 0.00426429 -1.25324e-23)
(1.03986 0.00456547 4.41378e-23)
(1.039 0.00439113 -5.42537e-23)
(0.955554 0.0789774 -3.29567e-23)
(0.957964 0.0851119 6.33759e-22)
(0.961825 0.0784115 5.45799e-22)
(0.721954 0.0322017 0)
(0.717558 0.0315512 0)
(1.03913 0.00400646 1.23937e-22)
(1.04 0.00417681 5.36829e-23)
(0.704434 0.0297586 7.44373e-22)
(0.700379 0.0291545 0)
(1.04029 -0.0137002 3.83746e-22)
(1.03957 -0.0135186 1.19947e-22)
(1.00054 0.0907345 -2.27986e-20)
(0.972204 0.0945885 -4.46132e-22)
(1.01826 0.00060355 4.68072e-23)
(1.01396 0.000304126 2.7891e-24)
(0.993617 0.00227523 8.39163e-22)
(0.99306 0.00131855 -7.57235e-22)
(0.994153 0.00132474 -1.13271e-21)
(1.00442 -0.00707382 7.25249e-23)
(1.0042 -0.00631344 3.51568e-22)
(1.01291 -0.00644048 4.72355e-23)
(1.01328 -0.0066021 6.91787e-23)
(1.01309 -0.00616681 -3.3889e-23)
(1.02883 0.059886 -2.9569e-21)
(1.02895 0.0589689 -3.91223e-21)
(1.02972 0.0595969 -3.28918e-21)
(1.01678 -0.000509032 6.71779e-23)
(1.01628 -0.000506921 -4.81846e-23)
(1.01317 -0.000258836 0)
(0.934628 0.126911 1.26159e-21)
(0.946924 0.131581 -1.44405e-21)
(1.00719 0.0293377 -2.05502e-21)
(1.00628 0.0298531 -7.67398e-22)
(1.00649 0.0286823 -3.12279e-21)
(1.05374 -0.00506241 1.08056e-22)
(1.05268 -0.00576497 2.40485e-24)
(1.03349 0.142705 -4.15969e-21)
(1.02247 0.151742 9.32136e-21)
(1.02244 0.134856 9.92347e-21)
(0.598891 0.0215333 1.08131e-20)
(1.0281 0.000614492 -1.98051e-22)
(1.02787 0.000665725 -4.22191e-23)
(1.0237 0.0457059 0)
(1.0242 0.0461713 -4.08158e-21)
(1.02439 0.0454041 4.11825e-22)
(1.01907 -0.0394582 -7.71766e-22)
(1.02252 -0.0361265 -1.53085e-22)
(1.01822 -0.0355041 2.09398e-22)
(1.00375 0.0169041 -3.04734e-21)
(1.00297 0.0167886 3.10337e-21)
(1.00362 0.0160654 -6.40812e-22)
(1.01472 -0.0427174 -1.93373e-21)
(1.0112 -0.0394048 -2.3188e-21)
(1.00927 0.0165566 0)
(1.00919 0.0172333 0)
(1.03735 -0.0130781 -9.72075e-23)
(1.0381 -0.0132192 -1.1495e-22)
(1.03755 -0.0126857 -9.44252e-23)
(1.0184 -0.000824705 6.83329e-23)
(1.01704 -0.00051672 1.81021e-22)
(1.02008 0.0530535 4.24408e-21)
(1.01957 0.0526674 3.58554e-21)
(1.01962 0.0532443 -1.32319e-21)
(0.970206 -0.0226591 1.89818e-21)
(0.959509 -0.0265224 8.68508e-22)
(0.971727 -0.0324002 -1.00267e-21)
(1.00831 0.0429531 -2.28482e-21)
(1.00696 0.0432775 4.22634e-21)
(1.00988 0.0164798 -1.68173e-21)
(1.00934 0.0160147 1.04278e-21)
(1.01369 0.000968629 -1.46594e-21)
(1.01364 0.000855549 2.24382e-21)
(1.01357 0.000942426 1.14504e-21)
(0.951227 0.0473213 1.43932e-20)
(0.974718 0.0478683 2.15195e-20)
(0.652773 0.0242992 0)
(0.604853 0.0243814 1.2801e-23)
(1.02477 -0.0131828 0)
(1.0253 -0.0130374 1.67592e-22)
(1.02463 -0.012558 3.01333e-22)
(1.05026 0.0191082 1.98824e-22)
(1.05067 0.0193827 2.65243e-22)
(1.04965 0.0190084 3.02315e-22)
(1.00392 0.0176689 9.96449e-22)
(0.871098 -0.23002 -5.69389e-21)
(0.898239 -0.217373 3.13297e-21)
(0.903792 -0.207963 8.07655e-22)
(1.03943 0.0502302 -2.01036e-21)
(1.0396 0.0504987 -2.35697e-20)
(1.0397 0.0501058 -5.56258e-21)
(0.83704 0.0677478 -5.33661e-21)
(0.821488 0.0634285 2.51969e-20)
(0.8126 0.0647748 3.17463e-21)
(0.739382 0.0642349 -5.90772e-22)
(0.759128 0.0498108 0)
(1.0327 0.0189505 0)
(1.03325 0.0190474 -6.31745e-23)
(1.03362 0.0193351 4.62858e-23)
(1.03199 0.0678099 -2.24237e-21)
(1.03078 0.0714241 7.47132e-23)
(1.01631 -0.0253963 9.11834e-22)
(1.01815 -0.0256873 8.69539e-22)
(1.04021 0.056686 -8.09734e-21)
(1.0384 0.0570843 -3.2365e-21)
(0.848063 -0.250553 -1.73731e-22)
(0.846827 -0.232424 2.35501e-21)
(1.03968 0.05545 1.75042e-20)
(1.03934 0.0553425 -1.56775e-20)
(1.01143 0.000321984 1.97528e-21)
(1.00792 6.60914e-05 1.7882e-21)
(0.993202 0.00311875 -1.32096e-22)
(0.992069 0.00330807 -3.12109e-21)
(0.993977 0.172391 3.22872e-21)
(1.01021 -0.0149045 4.30912e-22)
(1.0099 -0.0140242 -1.89523e-22)
(1.00945 -0.014796 -1.37576e-22)
(1.00552 0.00108742 2.11131e-21)
(1.00705 0.00353821 3.815e-22)
(1.03401 0.0512131 6.50506e-21)
(1.03395 0.0518881 1.05956e-20)
(1.02655 0.000162336 0)
(1.02567 0.000107631 0)
(1.02088 9.02824e-05 -1.34182e-22)
(0.995801 0.0513787 0)
(0.9692 0.049346 0)
(1.01235 0.000174282 -2.51155e-22)
(1.01226 0.000180596 -2.52364e-22)
(1.01232 0.000117768 -1.0815e-21)
(1.04079 0.0364263 -7.15514e-21)
(1.04115 0.0369664 -9.67747e-21)
(1.0441 0.00928293 4.4698e-23)
(1.04343 0.00949789 8.98783e-23)
(1.0446 0.00981557 -1.79893e-23)
(0.483085 0.0303946 -6.2823e-21)
(0.500271 0.0267009 3.66127e-21)
(1.01913 -0.00429557 -3.48788e-24)
(1.0194 -0.00423124 -1.68311e-23)
(1.01907 -0.0039601 6.28377e-24)
(1.00892 0.0421605 -7.6411e-21)
(1.00835 0.041333 -2.11879e-21)
(1.0095 0.0413353 -3.8613e-22)
(0.987875 0.000475728 -2.72144e-21)
(0.987918 0.00254771 -1.21457e-21)
(1.03208 0.018755 -4.69519e-24)
(1.03192 0.0184283 -4.0924e-23)
(1.02918 0.000533474 0)
(1.02757 0.000426531 -1.28933e-23)
(1.03167 0.0494001 -1.6612e-21)
(1.03223 0.0492497 9.81977e-21)
(1.03185 0.0488368 1.07207e-20)
(1.03711 0.0504833 -1.43169e-21)
(1.0397 0.0507038 2.97771e-20)
(1.03746 0.0507055 1.30161e-20)
(1.00622 0.00540583 -1.29762e-21)
(1.00576 0.00524467 -5.11549e-23)
(1.00622 0.00486482 4.34748e-22)
(1.01062 -0.0157609 -3.03307e-22)
(1.01094 -0.014965 -4.431e-22)
(0.831849 0.045358 -6.32568e-21)
(0.8354 0.046362 2.95907e-21)
(1.0364 0.0501098 -7.73986e-21)
(1.0369 0.0502532 -6.15058e-21)
(1.0389 0.0501991 1.71428e-20)
(0.959421 0.0787243 4.56327e-21)
(0.979373 0.0789089 6.58814e-21)
(0.947646 0.084478 -2.6988e-21)
(0.633787 -0.0937594 -1.09153e-20)
(0.580725 -0.108245 -8.31382e-21)
(1.0388 0.00374228 6.89099e-23)
(1.03828 0.00384356 6.72559e-23)
(1.00537 -0.00309399 6.76465e-23)
(1.00585 -0.00324066 2.93118e-24)
(1.00566 -0.00266669 -5.69665e-23)
(1.03568 0.0491346 0)
(1.03551 0.0490262 -6.80176e-22)
(1.03651 0.0491582 0)
(1.03006 0.0652429 -1.93718e-21)
(1.03348 0.0645297 4.24709e-21)
(1.03936 0.00364894 0)
(1.03857 0.00343672 0)
(1.02072 -0.04458 1.19045e-21)
(1.01042 0.0058 5.05441e-22)
(1.01028 0.00611868 0)
(1.01013 0.00573204 -1.07031e-21)
(0.964251 0.0291405 1.59612e-21)
(0.960289 0.028647 8.67161e-22)
(0.961863 0.0328767 -1.50897e-21)
(1.00949 0.0428375 -1.89494e-21)
(1.02287 0.0563864 4.82318e-21)
(1.0235 0.0559296 2.47356e-21)
(1.02285 0.0556744 -1.05134e-21)
(1.019 0.063101 2.99172e-21)
(1.01704 0.0630738 0)
(1.0179 0.0613649 0)
(0.95574 0.0723037 -1.42698e-22)
(0.949858 0.077439 -6.86547e-22)
(1.03894 0.0367847 -4.29081e-21)
(1.03838 0.0370586 5.46242e-21)
(1.0388 0.037457 -9.44939e-22)
(0.773254 0.0421472 -9.35411e-21)
(0.754948 0.03873 -9.08442e-21)
(0.76983 0.0408503 1.1293e-20)
(1.02266 -0.0140948 1.04046e-22)
(1.0221 -0.0135105 4.90789e-22)
(1.00621 0.0059498 -6.26215e-22)
(1.00666 0.0055837 2.17862e-22)
(1.00975 -0.0533336 -1.13225e-21)
(1.00377 -0.0533562 1.19587e-21)
(1.03261 0.0605233 -9.51639e-21)
(1.03328 0.0599175 -4.09229e-21)
(1.03346 0.0610674 1.75521e-20)
(1.02401 0.000264184 0)
(1.01855 0.000184967 0)
(1.02465 0.000270916 -8.56961e-25)
(0.658016 0.0276297 0)
(1.0395 0.0366218 1.14191e-21)
(1.03899 0.0362578 -3.9386e-21)
(0.888356 0.0628993 3.19983e-22)
(0.908099 0.0573673 -1.755e-22)
(1.00775 0.00447824 1.26685e-21)
(1.00797 0.004881 2.12127e-23)
(1.02482 0.0658069 4.46808e-21)
(1.02717 0.0646974 0)
(1.02441 0.0631258 0)
(1.0509 0.0192468 -1.33484e-22)
(1.04996 0.0187921 1.37856e-22)
(0.973329 0.149343 6.04139e-22)
(0.982572 0.1642 3.55744e-21)
(0.947926 0.158208 -1.04636e-21)
(1.05318 -0.00582804 2.13913e-22)
(1.0531 -0.00601267 2.21417e-23)
(1.05245 -0.00569597 6.39422e-23)
(1.0146 0.0619066 3.97814e-21)
(1.01497 0.0407245 -8.7392e-21)
(0.987624 -0.0020634 -1.28048e-21)
(0.985563 -0.000431102 5.7446e-21)
(1.01147 0.00473396 0)
(1.01174 0.00505033 0)
(1.03758 0.0672639 -1.34284e-20)
(1.03669 0.0679342 -2.52434e-21)
(1.03547 0.0686482 -2.0829e-20)
(1.04678 0.0112859 4.94769e-23)
(1.046 0.0114905 4.78697e-23)
(1.04554 0.0109051 5.04948e-23)
(0.743497 0.120703 -1.47374e-21)
(0.712963 0.130028 0)
(1.02148 0.0598647 8.18876e-21)