/*--------------------------------*- C++ -*----------------------------------*\
| =========                 |                                                 |
| \\      /  F ield         | OpenFOAM: The Open Source CFD Toolbox           |
|  \\    /   O peration     | Version:  v2012                                 |
|   \\  /    A nd           | Website:  www.openfoam.com                      |
|    \\/     M anipulation  |                                                 |
\*---------------------------------------------------------------------------*/
FoamFile
{
    version     2.0;
    format      ascii;
    class       volScalarField;
    location    "800";
    object      p;
}
// * * * * * * * * * * * * * * * * * * * * * * * * * * * * * * * * * * * * * //

dimensions      [0 2 -2 0 0 0 0];


internalField   nonuniform List<scalar> 
13917
(
-0.0854708
0.00455071
-0.0726166
-0.0190152
-0.00150946
0.00287321
-0.0298229
0.0210894
-0.0379509
-0.0853244
0.0168494
-0.012622
-0.00975559
0.00651868
-0.000928686
-0.0857941
0.00103142
0.017607
-0.0568235
-0.0827178
-0.00176189
-0.00259207
-0.0397165
-0.00249286
-0.016095
0.000910304
0.0061176
-0.0857384
0.00904259
0.000124582
-0.0853468
-0.055268
-0.0155751
-0.0858517
0.000586865
0.0193473
-0.00602092
-0.00257752
-0.0306959
-0.00821949
0.00144968
0.00178872
-0.033812
-0.0606158
-0.059654
-0.0128373
-0.00267366
-0.0895917
0.00692804
0.000609161
-0.0123939
-0.0277719
-0.0881802
-0.00730301
-0.00796683
-0.0299718
-0.0840836
-0.0387166
0.00166293
-0.009408
-0.0405193
0.00102254
0.000299046
-0.0160769
-0.0774604
-0.000911009
0.0115179
0.0193818
0.0191593
-0.0866959
-0.0773816
-0.085666
-0.0176864
0.00161702
-0.00189558
-0.0124973
-0.00145678
0.00152199
-0.0126198
-0.0157327
-0.00433388
0.000884416
-0.0174316
-0.0812189
-0.00708466
0.022834
-0.0545179
-0.00688932
-0.00775659
0.00103246
0.00113891
-0.0346428
0.00382323
0.000796734
-0.00641873
0.0105682
-0.00267486
0.000152226
-0.00700284
-0.000144901
0.000767805
0.000709275
-0.00429191
-0.000254652
-0.00133451
-0.0775743
-0.0842628
0.000797152
0.00173564
0.00732581
-0.00966487
-0.0854094
0.00809564
-0.0913693
-0.0798198
-0.0110213
-0.0560705
0.00128901
-0.0687367
-0.0166021
0.000845122
0.00153174
0.0132117
-0.0431084
-0.08708
-0.0812297
-0.0166005
-0.00113181
-0.000721587
-0.0447189
-0.0433612
0.0051541
-0.0837414
-0.0104819
-0.0575362
0.00760595
-0.0300677
-0.0856055
0.00275975
-0.00258513
0.00171123
0.00156433
-0.0791239
-0.00376156
-0.016277
0.00155587
-0.0773979
-0.00733873
-0.0922463
-0.00745725
-0.00807709
0.000738263
-0.0160319
-0.0167616
-0.00107195
-0.00144363
-0.000233629
-0.0846823
0.0011954
0.00130569
-0.00591022
-0.074107
-0.00212422
0.0020441
-0.0677006
-0.00342783
-0.088358
-0.073747
7.50058e-05
0.00367368
-0.00251062
-0.0854528
-0.0380947
-0.0330275
-0.0204642
0.00112329
-0.0195137
-0.0254569
-0.0429898
-0.00157115
-0.0326981
-0.0026235
-0.012019
-0.040349
-0.0687349
0.0043933
-0.0117925
-0.0371106
0.000109468
0.0207283
-0.0190109
-0.0586091
-0.0424494
-0.085017
0.00076477
-0.0871798
-0.0179225
-0.083462
0.000368389
-0.0015464
-0.00431127
-0.0867402
-0.085859
-0.00503133
0.0118474
0.00418165
-0.00848281
0.00154891
-0.0274864
-0.00416826
-0.00085843
-0.00173509
-0.00178701
-0.0910311
-0.0572107
0.0017726
-0.08119
-0.00419691
0.00114415
0.00115486
-0.0781658
-0.0411668
-0.0359138
-0.010168
0.000145727
0.0101593
-0.0877571
0.00121904
0.00123351
0.00115383
0.00114091
0.00115768
-0.0853961
-0.0862674
-0.00363694
0.000152603
-0.0307541
-0.0863333
0.00126494
-0.0100402
0.00914292
-0.0793397
-0.0413045
-0.0820957
-0.0166047
-0.00386857
-0.0707773
-0.0319702
0.00689902
-0.0495086
-0.00540208
-0.0887061
-0.0168522
-0.0163755
-0.0216415
-0.0032978
0.00149923
-0.0166245
-0.000772502
0.00109771
-0.0867366
0.0104992
0.00152983
0.00112454
-0.00147963
0.00109478
-0.0169922
-0.0099831
-0.0284532
0.00164008
-0.084664
-0.0837756
-0.0101302
-0.00107682
-0.00813877
0.00126091
-0.00129349
-0.0865611
0.00123236
-0.0866593
0.00110942
-0.0700327
0.000990435
-0.00167085
-0.0032354
-0.00323624
-0.0556002
-0.00173262
-0.00262754
-0.0150673
0.013761
0.00156157
0.00669514
-0.0848138
0.00126429
-0.0351664
-0.00100782
-0.00955077
-0.00111682
-0.0132904
0.000885447
-0.00180058
-0.021281
0.000555866
-0.0163622
-0.0134224
-0.00988096
-0.0831093
-0.0864893
-0.00049643
-0.000515661
-0.0101001
-0.00162963
-0.0674226
-0.0839346
-0.0341939
-0.000505728
0.00292181
-0.000958019
-0.0810004
-0.00333017
-0.0726697
-0.00920461
-0.00121507
0.0043443
-0.00198094
0.00539546
-0.0575384
0.00118811
-0.0862478
-0.0069724
-0.0532085
0.00164382
-0.0808091
-0.00172353
-0.0175267
0.00460371
-0.000209374
0.00112716
-0.0512548
-0.0807815
-0.0070169
-0.00198112
-0.0850597
-0.0823035
-0.0448823
0.00785895
0.00122221
-0.00421801
-0.0788784
0.00240191
0.00120111
-0.00105573
-0.00974619
0.00242614
-0.0174214
-0.0408318
-0.00858883
-0.000619817
-0.0508977
-0.0846991
-0.000791856
-0.0073671
-0.00174271
-0.0627887
0.00114263
-0.0849725
-0.0508999
-0.00669126
-0.00782704
-0.00422833
-0.00063975
-0.000953602
0.00142959
-0.038824
-0.00924685
0.00587749
-0.0101317
-0.0723622
0.00176558
-0.0647099
-0.0433396
0.00139922
0.00287186
-0.00275636
0.00162172
0.0006543
-0.083794
0.000595591
-0.00791159
0.0133764
-0.000228657
-0.00570277
-0.0605495
-0.0738834
-0.00904167
-0.0553891
-0.00482201
-0.000322383
-0.0712675
-0.00706883
-0.0335455
-0.0140458
-0.00347395
-0.00345536
-0.000764573
-0.032964
-0.00212751
-0.00759093
-0.000659596
-0.00292813
-0.0295919
0.010476
0.00138203
0.000104298
-0.0666805
-0.00373691
-0.00317944
-0.00817098
-0.0308395
0.00178693
-0.00101488
-0.0581738
-0.0799767
0.00115841
0.00125534
-0.00174748
-0.00347385
0.00130672
-0.00353045
0.00121049
0.0012187
-0.0780054
-0.00488528
-0.00926124
-0.0845776
-0.0339078
-0.000908543
-0.0156187
-0.0624576
-0.00337199
-0.0867119
0.00153166
-0.0103895
0.00187445
0.00117507
-0.00599775
-0.00250621
-0.0244153
0.000468457
-0.0793577
-0.0102192
-0.0405811
0.000448488
-0.00413225
-0.0185547
-0.0433381
-0.00986988
0.0109683
-0.00095993
-0.00309647
-0.00282833
-0.00284537
-0.000802443
-0.00581118
-0.0833828
-0.0390559
-0.000776065
0.0054966
-0.0660685
-0.00973167
-0.0340612
-0.0627053
-0.0682908
-0.0356976
-0.0853011
-0.0050196
-0.0034197
-0.00258103
-0.000778728
0.00065165
-0.00539096
-0.0477171
0.00109803
-0.00749009
-0.00676113
-0.0354209
-0.00452371
-0.0664314
-0.0453436
0.00229738
-0.00100257
0.0163309
-0.00829188
-0.0073992
-0.000346646
-0.0322848
-0.0158328
-0.0575293
-0.00716029
-0.00779698
-0.0249342
-0.00247182
-0.0838275
-0.00324555
0.00119241
-0.0305732
0.00144427
-0.00393545
-0.0193279
-0.082186
0.0189811
-0.00599821
-0.0229554
0.00237812
-0.0390402
-0.000362229
-0.00719059
-0.0077917
-0.00592096
-0.0233695
-0.000992488
-0.000440639
0.00120183
-0.00153353
-0.00366159
0.000311146
-0.0225154
0.00112208
-0.0447753
-0.00246903
-0.00304732
-0.0142055
-0.0834252
0.000833477
-0.0278376
0.00103319
-0.0400387
-0.0372509
0.00751659
-0.0217552
-0.00152533
-0.012864
0.0140896
-0.0830487
-0.0796443
-0.0843904
-0.000255755
-0.00262786
0.00248557
-0.0108084
-0.0808888
0.00129741
-0.0142098
-0.0186133
-0.0847539
0.000827946
-0.0334486
-0.0869793
-0.000668188
-0.0593321
0.000114768
0.00170579
-0.0843898
0.00143069
-0.0734458
0.000366016
-0.00973698
-0.00263054
-0.0658249
0.000350616
0.0011025
-0.0619309
-0.0330156
0.00464849
-0.0793763
-0.0840551
-0.0664695
0.000819011
-0.0870862
0.000511852
-0.0340433
-0.0030492
0.00178297
0.000636243
0.00099248
-0.031801
-0.0322769
0.0013653
8.17211e-05
-0.00791193
-0.0801148
-0.00652665
-0.054179
-0.00733287
0.00111373
0.00129021
-0.0181374
-0.0608573
-0.0859986
-0.0485362
-0.0231809
-0.0622253
-0.0862191
0.000703182
-0.0486365
-0.00928375
-0.0664465
-0.0105901
-0.0719255
-0.00360286
0.000179911
-0.0166754
0.00403665
-0.030139
-0.0796879
0.00101197
-0.028427
0.000110156
0.000909871
-0.0843045
-0.00210721
0.000302452
-0.0412775
-0.00998798
0.00181314
0.00068414
-0.0843021
-0.00668736
-0.000784707
0.00131836
0.000278308
-0.0614832
0.000502028
-0.0452855
0.000711024
-0.00197308
-0.0385471
-0.0548812
-0.007176
-0.0854112
-0.0727954
0.00264849
-0.0227179
-0.000649452
-0.000897414
-0.0834865
-0.0742563
-0.00252146
-0.00648479
0.000196452
0.000653442
-0.00127109
-0.000613622
-0.0364692
-0.0152559
-0.0591432
-0.0309503
0.00892743
-0.00280859
0.000657968
-0.0204301
-0.0441212
-0.0865018
0.000855469
0.000721625
-0.000349797
-0.00207305
0.000823403
0.00119831
0.00241874
-0.00465992
-0.0874152
-0.0481809
-0.00062424
-0.0565803
0.00100534
-0.083474
0.0011717
-0.00063232
-0.0830232
-0.0380733
-0.00885606
-0.0177203
0.00199682
-0.000212356
-0.0210232
-0.0313053
-0.00278219
-0.0860224
-0.0147831
-0.00378898
-0.00813235
0.000645379
-0.0814435
-0.0226938
-0.000214504
0.000173285
-0.0863971
0.0165838
-0.0177197
-0.0865357
-0.00408464
-0.00177567
-0.000519591
-0.00546811
-0.0799061
-0.00583503
-0.0292432
-0.0205235
-0.0275483
-0.0670891
-0.00108115
-0.0423716
-0.047827
-0.0063614
-0.0155145
-0.00031692
-0.0306237
-0.000874926
-0.0744002
-0.00850494
0.00229661
-0.0862759
-0.000466165
-0.00839009
-0.00696786
0.002873
-0.0212515
-0.0738995
0.000899153
-0.0588307
-0.0610129
-0.00102602
-0.0113163
-0.00910652
-0.00478861
-0.00992996
-0.016647
-0.00269809
8.82771e-05
-0.0193989
-0.0442692
-0.00050785
-0.0751809
-0.0372232
-0.0352729
-0.0435003
-0.00403467
-0.0588263
-0.00419147
0.00101494
-0.0389731
-0.0159108
-0.0468184
-0.00119781
-0.00095192
-0.00119124
-0.0867649
-0.0150991
0.00135988
-0.0521544
-0.00282204
-0.000820562
-0.0310608
-0.00362508
-0.00338282
0.00455883
0.00176667
-0.07844
-0.0169762
-0.00181345
-0.0663383
0.00185501
0.000763134
0.00108673
0.000773311
-0.0167898
-0.0074075
0.00731833
-0.00115762
-0.00479282
-0.00121275
-0.00213561
-0.00743343
-0.0360817
0.00155127
-0.0492332
-0.00144566
-0.0623696
-0.00364754
0.00105153
-0.0831797
-0.0149993
-0.0868476
-0.0320726
-0.00445022
-0.00133222
-4.14659e-05
-0.0112458
-0.0879626
-0.029287
0.00610983
0.00309612
-0.00985969
-0.0466764
0.000164433
0.00102952
-0.000139368
0.000113354
-0.0735518
-0.0290345
-0.00476527
-0.0545599
0.000599067
0.00109527
0.000573208
-0.00703387
-0.00054712
-0.00685175
-0.00982814
-0.00244178
-0.051915
0.00108316
0.0173135
-0.00604322
-0.0851528
-0.086883
-0.00339278
-0.0788277
0.0103996
-0.0850055
-0.00197692
-0.00122768
0.00184556
-0.0132806
-0.0124466
-0.00582573
-0.0300852
-0.00595047
0.0174696
-0.00696496
-0.0783413
-0.0151019
-0.0458909
-0.00652382
-3.20952e-06
-0.00773839
-0.014653
0.00152943
-0.0248988
0.001898
-0.0816612
-0.0367705
-0.007157
-0.000406913
-0.0122919
-0.00196541
-0.00125373
-0.0600395
-0.00137795
-0.000999411
-0.00371027
-0.00616523
-0.00203153
-0.00449808
-0.0594259
0.00083888
-0.00142321
-0.00769379
-0.0491768
-0.00376564
-0.0508674
-0.000261875
-0.00159934
0.00206856
-0.00135882
-0.0848489
0.000572509
-0.0191906
-0.0554777
-0.0850524
0.00189742
-0.00115895
-0.0676571
0.0015889
-0.00204632
-0.00250212
-0.0792455
-0.0119139
-0.0629079
-0.0132687
-0.0830826
-0.00180102
0.00468141
-0.000719563
0.00144229
-0.00350676
-0.00593754
-0.000147677
-0.0826609
-0.00742961
-0.00289785
-0.00515306
0.00156213
0.00191865
-0.0376206
-0.00879876
-0.0808512
-0.00972031
-0.0619284
-0.0208242
-0.0267431
-0.0842132
-0.0058147
-0.0382066
-0.0110911
-0.0855094
-0.00513587
-0.0188285
0.00187171
0.00148934
-0.00750099
0.00204887
0.00127112
0.00152508
-0.0113665
-0.0211306
0.00101642
-0.00772497
-0.0541173
-0.072686
-0.0660104
-0.0544891
-0.00218792
-0.00335633
-0.00589121
-0.0674001
0.000219897
-0.0854835
0.00125442
-0.00126322
-0.00845068
-0.00532529
0.0013007
0.00173363
-0.00768872
-0.0203331
-0.00300453
-0.0857485
-0.00336214
-0.00235751
-0.0870917
-0.0112963
-0.000849156
0.000881809
-0.0840925
-0.00674385
0.00116941
-0.00729435
0.000488746
-0.000688341
-0.0759549
0.00187296
-0.00236978
-0.019737
-0.00472527
-0.00101591
0.00159422
-0.00469548
0.000268349
-0.0130886
-0.0860802
0.000441828
-0.00260036
-0.00198682
-0.0125691
-0.00090647
-0.0619792
-0.0488571
-0.0148259
-0.0861598
-0.0859079
0.000613954
-0.0628236
0.00150666
-0.0854188
0.00150674
-0.0256099
-0.0231914
-0.0343355
-0.0125642
0.00164026
0.0221807
-0.0782001
0.0019076
0.00220847
0.00184583
-0.00616747
-0.0495592
-0.00600017
-0.012962
0.00715313
-0.0843486
0.00161537
-0.0419718
-0.0864223
0.000278303
0.00128526
-0.0163763
-0.0810906
-0.0126065
0.000432612
-0.0294613
-0.0150486
-0.000534363
-0.00292029
-0.00187145
-0.0131274
-0.00638492
0.00166387
-0.000157212
-0.000751118
0.000510163
-0.0859076
-0.0181619
-0.0146549
0.00240784
-0.0849982
0.000567844
4.56428e-05
-0.00171489
-0.0218653
-0.019768
0.00214199
-0.0608063
0.00241032
-0.0016602
-0.0464323
-0.00358159
-0.000432739
-0.0468081
-0.0652644
-0.0591161
-0.034591
-0.00413314
-0.0242357
-0.085349
-0.0027645
-0.0355087
0.00125939
-0.0221372
-0.0292682
-0.00114565
-0.0237728
0.00164896
-0.0194123
0.0120613
-0.00612349
-0.0621408
-0.0256882
-0.0166602
-0.038785
0.000785547
-0.0658551
-0.00879432
-0.00540269
0.000376201
0.00049955
0.00157292
-0.000275027
-0.0129023
-0.0791539
-0.00267095
-0.0069527
-0.0326449
-0.00614741
-0.0092896
-0.00824492
-0.061301
-0.00180364
-0.00028801
0.0149161
0.00363516
0.00303956
-0.0842088
-0.016855
-0.0119319
0.0151452
0.00127768
-0.00664756
-0.0857509
-0.085622
-0.00226963
-0.0199031
-0.00292501
-0.0863649
-0.00256569
-0.00518665
-0.0796024
-0.000425455
-0.0336238
-0.0711664
-0.0699607
0.00047429
-0.00540414
0.0011548
-0.00301227
-0.00877309
-0.0093604
-0.00298009
-0.0746803
0.000609178
-0.0294858
0.000602587
-0.0584793
-0.0668008
-0.0082591
-0.0352957
0.00741167
-0.0120733
-0.0625889
-0.00154581
-0.00887781
-0.00969014
-0.0850525
-0.0471293
-0.084417
-0.0107369
-0.0618805
-0.0141473
0.00185981
-0.00289201
-0.0274639
0.00154927
-0.00440252
-0.00737197
-0.00988946
-0.00803157
-2.00187e-05
-0.00226814
-0.0223955
-0.0470614
0.00723129
-0.00601523
-0.0071827
-0.00491037
-0.00656003
-0.00560333
0.00162828
-0.0773679
-0.0615254
0.000172892
-0.0452687
-0.0022134
-0.000197046
-0.0852552
-0.0128193
-0.00287198
0.0011492
-0.0125732
-0.00529072
-0.00548325
-0.077906
-0.00140876
-0.0274228
0.00127493
-0.00166231
-0.0532898
-0.07979
-0.0577292
-0.0183721
-0.0017555
-0.00286127
-0.00756612
-0.0620244
-0.0812612
-0.00650431
-0.00654301
-0.00330945
-0.0463566
-0.0313558
-0.00400653
-0.00730582
-0.0608224
0.000610867
0.00102706
-0.00325424
0.000442651
-0.0181637
-0.0849854
-0.0296001
0.00128446
-0.0716938
-0.0152813
-0.000305627
-0.0102578
-0.00389054
-0.00819792
-0.0489819
-0.00555957
0.000742679
-0.00233235
-0.0523204
-0.00826469
-0.0160646
0.00114785
-0.00571567
-0.000750396
-0.00999374
-0.0218154
-0.00988456
-0.0859548
-0.00866793
-0.0246701
-0.0405769
-0.0134383
-0.000171657
-0.00360673
-0.0358737
-0.0736935
-0.0837627
-0.00528174
0.00106568
-0.0853742
-0.00290978
0.00150396
-0.018144
-0.00832607
-0.009609
-0.00302168
-0.0765396
-0.0211971
-0.00468354
-0.0120705
0.00547481
-0.0756412
-0.0865764
-0.00134299
-0.00339752
-0.00264406
0.00119099
0.00119207
-0.000999919
-0.000729047
-0.01194
-0.0327005
-0.0160153
-0.0801547
-0.00873347
-0.00225664
-0.0225845
0.00108399
-0.0734924
-0.00856887
-0.000708582
0.00867295
-0.0539741
0.00972008
-0.0725724
-0.00781297
-0.0329164
-0.00089314
-0.000200675
-0.00184384
-0.00851662
-0.0096858
-0.0728523
-0.0124958
-0.0308113
0.000355364
0.00120506
-0.015459
-0.000168071
-0.000887114
-0.0844298
0.0016097
0.0064348
-0.0534155
-0.00866449
-0.0469662
-0.0334205
-0.0328772
-0.00790913
0.000877184
-0.00194616
0.000501483
-0.00778245
0.00327269
0.00266654
-0.000109164
0.000389373
0.00125693
0.0163494
-0.00385557
-0.0797152
-0.030541
0.00167052
-0.00961801
0.000755689
-0.0285176
-0.000512113
0.0179196
0.000758224
0.000186074
0.00144069
-0.0156167
-0.00282056
-0.0670076
0.000651492
0.00153632
-0.0138232
-0.00854762
0.000736837
-0.0852685
-0.00508871
-0.000286159
-0.000520919
-0.0112638
-0.0862452
-0.00608355
-0.0206548
0.00201928
-0.000586391
0.0012558
-0.0674159
-0.0114623
0.00094861
0.00750992
0.000802391
-0.0846538
-0.00435088
-0.00363712
-0.0114487
0.00125597
-0.0823626
0.00125337
0.00114507
-0.0551901
-0.00786484
-0.000817077
0.00181567
0.00124554
-0.0477734
-0.015653
-0.00120844
-0.000930785
0.0108732
0.000356003
-0.00107895
-0.00111366
-0.0122957
-0.00937674
-0.0286332
-0.00160424
0.00124598
-0.0163511
-0.00675267
-0.00782831
-0.0104549
0.0142596
0.000800765
-0.047983
-0.00278435
0.00804036
0.000270524
-0.00983088
-0.00312295
0.00154484
-0.00704847
-0.00191253
-0.0347929
0.00788971
0.00251212
-0.084009
-0.0815613
-0.052433
-0.0794334
-0.00326974
-0.0104328
-0.000418702
-0.0225234
0.0011495
-0.0866827
0.000588553
-0.0667031
0.0023877
-0.0265503
-0.0443701
-0.00537548
0.01151
0.000490032
-0.0483134
-0.00240325
0.00306918
-0.0268223
-0.085023
-0.0822277
-0.0107524
0.000521779
0.00318425
0.0010688
-0.0322574
-0.000754751
-0.00958725
-0.00384843
-0.000268557
-0.0862021
0.00122683
-0.0414912
-0.00470183
-0.00105511
-0.0164799
-0.00748404
0.000251841
-0.0788517
-8.98947e-05
-0.012124
-0.0185814
-0.000303565
-0.0316463
-0.00193986
-0.0286387
-0.0854805
-0.0101664
0.00359849
-0.0176741
-0.000325834
-0.022542
0.00367789
0.000362843
-0.0313108
0.00111722
-0.000139756
-0.0334771
-0.00774075
-0.0419053
-0.00913503
-0.000346551
-0.0061934
-0.00925141
-0.00348693
-0.00137273
-0.0207829
-0.00905228
-0.00179989
3.51021e-05
-0.00857336
-0.00120717
-0.00685094
-0.0788892
0.000481094
-0.00104609
-0.00806778
0.00159279
-0.0754456
-0.0064518
0.00102058
-0.0860938
-0.0538988
-0.0847864
0.00136002
-0.0838637
0.0019544
-0.0050131
-0.0864372
-0.00498295
-0.00197086
-0.0632924
-0.00324641
0.00705409
-0.0854871
0.000222292
-0.0465706
-0.0153521
-0.0793732
-0.0119527
-0.00227413
-0.00874511
-0.0869079
-0.0122624
-0.00977406
-0.00125824
-0.00204403
-7.1247e-05
0.00263055
-0.00638144
-0.0138057
-0.0078658
-0.00398024
-0.083435
0.00958307
0.00114003
-0.027881
0.000352077
-0.0444421
1.40212e-05
-0.00390246
-0.0595619
0.00151024
-0.0399102
-0.0866882
5.11049e-06
-0.0854932
-0.00975315
-0.0828893
-0.0286708
-0.0111796
-0.0017823
-0.000418986
-0.0117492
-0.0116931
-0.0176346
-0.000237297
-0.00607825
-0.0810565
-0.0201814
-0.0762954
-0.00118306
-0.0171141
-0.0846416
0.00233243
0.000594363
-0.0776719
-0.00719539
-0.0110653
-0.0714633
-0.0211087
0.00660896
-0.00526433
-0.0728975
-0.00541682
-0.00448734
-0.0845637
-0.0668197
-0.000170557
-0.00374209
-0.0358077
-0.0274534
-0.0167632
-0.00932629
-0.0366675
-0.0185274
-0.00250236
-0.00599038
0.00172387
0.023052
-0.0859117
0.004858
-0.0115276
-0.0117047
0.0020949
0.000187399
-0.0838578
-0.0161079
0.00102227
-0.00939622
0.000295415
-0.000967941
-0.0265848
-0.0322577
-0.00984346
-0.0808755
0.00256241
-0.0814382
0.000903534
-0.0860541
-0.0745169
-0.0718184
0.00161954
-0.0107211
0.000578555
0.0148403
-0.013504
-0.0523614
-0.0847343
-8.88785e-05
2.68114e-05
-0.0143094
0.00143085
-0.0469173
-0.0871419
0.000833998
-0.000785991
-0.0121369
-6.44932e-05
0.0169909
0.000728729
-0.00934706
-0.00396568
-0.00306393
-0.000122125
-0.00501215
-0.0826044
-0.00186764
0.00020049
-0.0784619
-0.0278294
-0.00335004
-0.0637422
-0.00539351
0.00587026
-0.0834005
-0.00854368
0.00115512
-0.0468423
-0.0526327
-0.0179286
-0.0832246
-0.014814
0.00480467
0.0020677
0.000758676
-0.0668474
-0.0359398
-0.00483892
-0.0430791
0.00356104
-0.00154325
-0.0302031
-0.0830621
-0.0125831
-0.0605984
0.000125105
-0.0175081
-0.00980453
-0.00203903
-0.0764932
0.00234544
0.00154734
0.0068926
-0.0704295
-0.0052804
-0.00198291
-0.0793967
-9.90905e-05
-0.00676283
9.07769e-05
-0.0055396
-0.0482053
-0.0118997
-0.0651709
-0.0315616
-0.0295189
-0.00187766
-0.015944
-0.00384396
0.0011712
0.0221275
-0.00955571
-0.00556174
0.00148793
0.000680616
-0.0811968
-0.065197
-0.00391676
-0.0536798
-0.00120984
-0.00434781
0.00133045
0.000508232
0.00157433
-0.00420565
-0.0207316
-0.0852827
0.0109135
-0.0324902
-0.0161389
-0.0190326
-0.00808946
-0.0769893
-0.000821834
-0.0615251
0.00138251
-0.00374199
0.00120396
-0.0866031
-0.00262998
-0.006044
0.00119297
-0.00832652
-0.0416108
-0.000190925
-0.016695
-0.0017966
-0.00305051
-0.0722967
-0.00913953
-0.0187512
-0.00649337
-0.000689166
-0.0616353
-0.025672
-0.00237855
-0.047924
-0.00125546
-0.0847057
0.000540047
-0.00520412
-0.00416835
-0.0834778
-0.0089355
-0.0452732
-0.0168424
-0.081978
0.000116369
-0.00166745
-0.00136259
-0.0675923
-0.0110122
0.000431604
0.000660649
-0.0703011
-0.0844816
-0.0203876
-0.0113999
-0.00297034
-0.00280515
-0.0849808
0.000202731
-0.075493
-0.0530138
-0.00132169
-0.0224276
0.002011
-0.0077128
-0.0231128
0.00120061
-0.0151772
0.00580344
-0.000253315
-0.0160877
-0.00613483
0.000137028
-0.0839651
-0.00367253
-0.00985883
-0.0833055
-0.00757139
0.00222543
-0.0225921
-0.000610982
0.000969229
-0.00651677
-0.0308718
-0.00620729
-0.00994172
0.00131207
0.00271828
-0.00997042
-0.0283103
-0.0144921
-0.0090407
0.00164722
0.00125749
-0.0116447
0.00370921
-0.0497194
-0.0839976
-0.0819096
-0.00199978
-5.95088e-05
-0.00637884
-0.0780516
-0.0114669
-0.00248701
-0.0839994
-0.0827317
-0.000735119
-0.0171291
-0.0146452
-0.000509681
-0.0854656
0.00123289
-0.00984072
-0.0313411
-0.0705135
-0.0154875
-0.0181696
-0.00441301
-0.0666729
-0.07068
0.000505508
-0.0674711
-0.00179338
-0.0113237
-0.0420078
-0.051622
0.00199375
-0.00427205
-0.00436232
-0.00181287
-0.00940063
-0.00245539
-0.00567727
0.0148618
-0.00134457
0.00117449
-0.0237263
-0.0742706
0.00683713
-0.000164457
-0.0125448
-0.0153951
-0.00368933
0.0013174
-0.0124081
-0.00743564
-0.0803058
0.00405738
-0.00237893
-0.0175213
-0.0601089
0.00141946
-0.0866693
-0.0105063
-0.00430691
-0.0124604
-0.00232202
0.000296389
0.000127319
0.00112883
-0.00183242
0.000697843
-0.0817903
0.00155569
-0.00533135
-0.043906
-0.0339743
-0.00304779
-0.0610182
-0.0070466
-0.0116442
-0.00959786
-0.00912049
-0.00029599
-0.000170981
-0.0769839
0.00465342
-0.00227315
-0.000921384
-0.00120249
-0.0785194
0.00216105
-0.0773029
-0.00114951
0.00070921
-0.0119071
-0.0048091
0.000829289
0.00179652
-0.0724428
-0.0564375
-0.000152404
-0.00499215
-0.0111475
-0.0576022
-0.0153587
-0.00551178
-0.00623642
-0.0841331
-0.0139228
-0.0865201
-0.0158012
-0.00873943
-0.00622503
-0.0014846
-0.00284797
-0.0476174
-0.00347784
-0.0348984
-0.0847787
-0.00375011
-0.0857091
-0.00614584
-0.000826993
-0.017787
-0.00126474
-0.0188418
0.00165948
0.000898046
0.0013049
-0.082077
0.00104465
0.000952063
0.000268124
-0.0344063
0.0161053
0.019622
-0.0516937
-0.0836767
0.00125726
0.000586008
0.00254449
-0.0801173
-0.00938686
-0.015475
-0.00958054
-0.00382837
-0.0237034
-0.00775539
0.000143063
-0.0066932
-0.0132155
-0.0321025
-0.08359
-0.0855507
-0.0232071
-0.000687957
-0.00408588
-0.013504
-0.0143576
-0.00199171
-0.0659103
-0.0620348
-0.0057781
-0.0042635
0.00139725
-0.00193082
-0.0034698
-0.0722501
-0.0385659
-0.0139661
-0.0816203
-0.0552895
-0.0659447
-0.082546
-0.00827245
-0.0808231
-0.0131046
-0.0837546
-0.0769521
-0.0808625
-0.0814593
0.000921674
-0.0215887
0.0022176
-0.00191142
-0.0863861
-0.00690772
-0.0119899
-0.032299
-0.0163573
-0.0373415
-0.0753132
-0.0783098
-0.0560868
-0.0199745
-0.00348288
-0.00890403
-0.00109527
-0.0169016
-0.0127223
-0.0559802
-0.0201135
-0.0145291
0.00159352
-0.000413667
-0.00293938
-0.0738718
-0.00420006
-0.00243393
-0.0131461
-0.000347532
-0.0377544
0.00554728
-0.00300372
-0.0798275
-0.0135541
-0.0376861
-0.0116339
-0.0330643
-0.00164002
0.00237515
0.000201743
0.000573639
-0.0389651
-0.0264489
-0.0023277
-0.0306186
-0.0844332
-0.00217318
-0.00353503
-0.00372166
-0.0592613
-0.00584693
-0.00322549
0.00169445
0.00894541
-0.0669542
-0.000821525
-0.0297388
-0.0763781
-0.00768529
-0.00250773
-0.0207414
-0.0809884
-0.0135463
-0.083462
-0.00530738
0.00230983
0.00186593
-0.0828014
-0.0313551
0.000830444
-0.085299
-0.00877041
-0.00892529
0.0041417
-0.0793141
-0.00438646
-0.00487628
-0.0314563
-0.017602
-0.0760861
-0.00263912
-0.00761334
-0.0151732
-0.0264604
-0.0111986
0.000963905
-0.00831756
-0.00441317
-0.0789773
-0.0181372
-0.0862221
-0.0084372
-0.0856046
-0.0859955
-0.0144441
-0.0152272
-0.030952
-0.000508583
-0.0726222
-0.0321696
-0.0847196
-0.0704599
0.00353764
0.000707372
-0.0795138
-0.083184
-0.00306871
-0.0754239
-0.00617594
-0.00210107
-0.015359
-0.0049212
-0.00806383
-0.0386451
-0.0855962
-0.000966426
-0.00866899
-0.0852829
-0.0773187
-0.0281718
-0.0847185
-0.00196088
-0.0835021
-0.0417769
-0.0559955
-0.000650782
-0.00204935
-0.0501861
-0.0862088
-0.00155572
-0.0604553
-0.0848166
-0.00102879
-0.0144857
0.00138509
-0.00383836
-0.00563075
-0.0337086
-0.0818546
-5.53236e-05
-0.0101511
-0.00124766
-0.0132256
-0.0617775
-0.0850849
0.000909432
-0.0807796
-0.0156233
-0.0062598
-0.0105825
-0.00276804
0.00116712
-0.0768347
-0.0790827
-0.0160243
0.00354333
-0.0867634
-0.00215584
-0.0805819
-0.0856021
-0.0142115
-0.0815177
0.000707962
-0.00619881
-0.0106481
-0.0275584
-0.0821672
-0.0295864
-0.0145337
-0.0167266
-0.00427829
-0.0863317
0.000753753
0.000438519
-0.0827378
-0.0846072
-0.0170621
-0.00758684
-0.026533
-0.0100788
-0.0111648
0.00241263
-0.00509356
-0.074399
-0.00990571
-0.0825433
-0.0033988
-0.00338701
-0.0571014
-0.00214854
0.00144172
0.00253629
0.00133283
-0.00110587
0.000904135
-0.0370005
-0.0733436
-0.0838713
-0.0261507
-0.0131805
-0.0115072
-0.00660298
-0.0189782
-0.00662349
0.0177941
0.000760563
0.00157131
-0.0863713
-0.00515403
-0.0254794
-0.0243004
3.23317e-05
0.00011021
0.00106044
-0.0176308
-0.0178682
-0.035898
-0.0242135
-0.0259277
-0.0862191
-0.0139461
-0.0443718
-0.0379521
-0.0834313
-0.0337094
0.00191154
-0.0249261
-0.019715
-0.01284
-0.0226373
-0.00458358
-0.0183578
-0.0343527
-0.0862184
-0.00999083
-0.0582307
-0.0448141
-0.0601257
-0.0621018
-0.0185442
-0.0640207
-0.0659377
-0.0678215
-0.0696625
-0.0643391
-0.0435343
-0.00114204
-0.00527144
-0.030519
-0.0568221
-0.00399081
-0.0284042
-0.0840959
-0.0116405
-0.0842816
0.00144707
0.000766891
0.00224175
-0.0768739
-0.0178113
-0.0045933
-0.0602474
-0.0478839
-0.00547281
-0.00745767
0.00151946
-0.0201479
-0.0888283
-0.00559656
-0.0310542
-0.0634648
-0.0861985
-0.0556462
-0.0834618
-0.028761
-0.0035193
-0.083675
0.000115466
-0.0823184
-0.0858985
-0.00826274
-0.0183076
-0.0136673
-0.00201564
4.63741e-05
-0.00140951
0.0102391
0.00142158
0.00144609
-0.0152682
-0.0786885
-0.0167673
-0.00902016
-0.0739524
-0.0396395
-0.0850632
-0.0853988
-0.0143163
-0.0108132
-0.0173258
-0.00399474
-0.0842112
-0.00741246
-0.0784225
-0.0563272
-0.0756223
-0.00130628
-0.00302014
-0.00378734
-0.0863862
0.000760678
-0.0834839
0.000217319
-0.082944
-0.0179994
-0.00491017
0.00551163
-0.00386064
-0.0596808
-0.000924675
-0.00970327
-0.00341992
-0.0180605
-0.0720799
-0.0860384
-0.00968556
-0.0853983
-0.00414568
-0.00106336
-0.0296688
-0.0159996
-0.0812762
-0.0497562
-0.0110067
-0.0727761
-0.0617595
-0.0764589
-0.000129996
0.000959073
-8.30378e-05
-0.000686554
-0.066129
0.0147208
0.0011347
-0.00470769
-0.0652697
-0.0028997
-0.00508811
0.0168603
-0.0876496
-0.0112389
-0.0171291
0.00115956
-0.0858432
0.00237673
0.00083699
-0.0624126
-0.0605573
-0.0747169
0.00135355
-0.0371137
-0.0117401
-0.0677553
-0.0778544
-0.00873255
-0.0628699
-0.00430545
-7.71784e-05
-0.00187454
0.000952422
0.00506989
-0.00416432
-0.0116431
0.00438202
-0.0248451
-0.0876455
-0.0823448
-0.0827897
-0.000385009
-0.0283306
-0.00105251
-0.0642053
0.000725004
-0.0105158
-0.0028344
-0.0320325
-0.012798
-0.00111268
-0.00247431
-0.00274772
-0.085914
-0.0672863
-0.00292174
0.0046282
-0.0659275
0.000171379
-0.000241944
-0.0824323
-0.0211898
-0.00952631
-0.0750226
-0.00148974
-0.0856372
-0.00114571
-0.0781366
-0.0845491
-0.00125511
-0.00146143
-0.0271092
-0.0584195
-0.0542746
-0.0830087
-0.00522732
-0.0172344
-0.0774725
-0.00426485
-0.0324817
-0.00666157
-0.0666034
0.00398577
-0.0795433
-0.036343
0.0184106
-0.0103156
-0.0849561
-0.0160491
-0.0754566
-0.0862274
-0.00359338
0.00107239
-0.0863408
-0.082692
0.000424898
-0.0158976
-0.00500004
-0.00105258
-0.0769136
0.0126903
-0.0856773
-0.0111364
-0.0852295
-0.0119999
0.0100374
-0.0167528
-0.032508
-0.0517966
-0.00312962
-0.0612246
0.00140252
-0.0225481
-0.0150975
-0.0118653
-0.0047978
-0.0159666
-0.0838624
-0.0807786
-0.000518473
-0.082011
-0.0140306
-0.00218559
-0.0090999
0.000194407
-0.0170362
-0.0780714
-0.0842851
0.000788665
0.00141532
-0.0518626
-0.0506536
-0.0698236
-0.0574203
-0.0121853
-0.0434733
-0.009518
-0.0124343
0.000910868
-0.0817526
-0.0063282
-0.0820104
-0.0742987
-0.0281062
-0.0779302
-0.0849445
-0.00161067
-0.0870579
-0.0272547
-0.04456
-0.00282602
-0.00299942
0.000393115
-0.0726716
-0.0145182
-0.00223246
-0.010056
-0.0828184
-0.0669267
-0.0176339
-0.0717583
-0.0708743
-0.083653
-0.00886439
0.000602564
-0.0520921
-0.0114086
-0.0155154
-0.0159528
-0.008816
-0.00269563
-0.00775952
-0.0113254
-0.00173909
-0.0114732
-0.00582765
-0.00660888
-0.00271992
-0.0658293
-0.011497
-0.0828292
-0.0129882
-0.00812905
-0.0593119
-0.0493496
-0.00433354
-0.00225773
0.00269986
-0.0312001
-0.0864855
-0.031002
-0.026283
-0.00964852
-0.00174197
0.000744873
-0.0833449
-0.0525485
-0.000859609
0.00127259
-0.0848885
-0.0155168
-0.007042
-0.0544099
-0.025665
-0.0378166
-0.0860757
-0.0537069
0.00259746
-0.00597744
-0.0863114
-0.00372978
-0.012225
-0.0166193
-0.0107502
-0.0514184
-0.0250741
-0.0534717
-0.00739364
-0.0118785
-0.0290834
-0.0734681
-0.0567555
-0.0149042
-0.0611838
-0.0644632
-0.0334173
-0.0177145
-0.0163628
-0.0379316
-0.0282501
-0.0788112
0.000775845
-0.00283394
-0.046463
-0.0168284
-0.0495993
-0.0228724
-0.00850743
-0.0383157
-0.0049095
-0.0243888
0.00774893
-0.0139613
-0.00306927
-0.0088962
-0.0839795
-0.0721294
-0.00736764
-0.000508924
-0.0631304
-0.0163851
-0.00277706
0.00519004
-0.0832066
-0.035356
-0.085942
-0.00168224
-0.0419777
-0.0767118
-0.0649939
-0.039219
-0.000520391
-0.0611153
-0.000825315
-0.0115323
-0.065177
-0.0668594
-0.0104679
0.00396619
-0.0106823
0.0142252
-0.0095228
-0.0686719
-0.00282864
-0.0854241
-0.0327103
-0.00192974
0.00115579
-0.000582507
-0.00960761
-0.0111989
-0.000120113
-0.0314443
-0.00847705
-0.00977508
-0.0126258
-0.0555475
-0.0184808
-0.0308413
-0.0140996
0.000914444
0.00106153
-0.046303
0.000292162
-0.0796875
-0.014331
-0.0152485
-0.0144232
-0.000336614
-0.0118976
-0.0115601
-0.0166979
-0.0301909
-0.0129424
-0.0308095