/*--------------------------------*- C++ -*----------------------------------*\
| =========                 |                                                 |
| \\      /  F ield         | OpenFOAM: The Open Source CFD Toolbox           |
|  \\    /   O peration     | Version:  v2012                                 |
|   \\  /    A nd           | Website:  www.openfoam.com                      |
|    \\/     M anipulation  |                                                 |
\*---------------------------------------------------------------------------*/
FoamFile
{
    version     2.0;
    format      ascii;
    class       surfaceScalarField;
    location    "450";
    object      meshPhi;
}
// * * * * * * * * * * * * * * * * * * * * * * * * * * * * * * * * * * * * * //

dimensions      [0 3 -1 0 0 0 0];
oriented        oriented;


internalField   nonuniform List<scalar> 
20642
(
-0.000235914
-9.23802e-05
0.000328474
0.000678727
-0.00128679
0.000604599
0.000240703
0.000170892
-0.000413103
0.000266567
-0.000790553
0.000513129
0.000930506
-0.00145944
0.000522432
0.00133562
-0.000661169
-0.000208704
0.000726805
-0.000525629
0.00162046
-0.000976912
-0.00064573
0.000382093
9.57526e-05
-0.000483384
0.000307173
2.00145e-05
0.000772307
0.000845347
0.000926235
-0.000941437
7.6677e-07
-4.02105e-05
-1.22709e-05
0.000895975
-0.0014396
0.000542911
0.00097857
-0.00142895
0.0004437
2.32157e-05
-0.000259109
-3.04199e-05
-2.01809e-05
3.34766e-05
-0.00160116
0.000774851
0.000823327
0.000614321
-0.000361059
-0.00025569
-0.000342314
0.000146247
0.000196297
0.00113225
-0.000641185
-0.000495534
8.82476e-05
0.000885884
-0.000987926
0.000177279
0.000363968
-0.000544603
-0.000984252
0.00105714
0.00105953
-0.00044816
-0.000619753
-0.00120574
0.000566702
0.000634792
-0.00108219
0.000664582
0.00041715
0.00027961
-0.00143929
0.00061035
0.000825133
5.94431e-07
-2.7808e-05
2.67316e-05
0.000277898
2.04256e-06
0.000616798
-0.000148992
-0.000470531
-0.000991119
0.000528671
0.000451592
-0.000308303
0.000108823
0.000199244
6.95761e-06
0.000804983
-0.000826414
3.12393e-05
-0.0010098
0.000833706
0.000249765
-0.00109183
2.42674e-05
-0.000103068
2.69028e-05
-0.000669809
0.000454598
0.000599557
-0.0010743
0.000470147
9.97392e-07
7.9311e-06
-2.03866e-05
0.000483599
-0.000770781
0.000278944
-0.000537622
-6.998e-05
0.000602695
0.000148082
0.000271694
-0.000421517
0.000498136
-0.000352593
-0.00027275
0.000588639
-0.000316184
0.000887258
0.000238932
-0.000455241
0.000312306
0.00014384
-0.000713073
-0.00054156
0.00125458
0.000667661
-0.000672318
-4.76539e-05
0.000960252
0.000310177
-0.000702074
0.000390296
-0.000196338
0.000252465
-5.61711e-05
-0.000890815
0.00119171
-0.000316857
-0.00124648
0.000811992
0.000418812
0.000615955
-0.000307005
0.000247472
-0.000410003
0.000583215
0.00078915
-0.000314063
-0.000671447
0.00039833
0.000742726
-0.000429457
-0.000312485
-0.000459571
-0.000566301
0.0010197
3.49593e-06
4.92453e-07
-5.6323e-06
0.000501228
0.000549054
0.000358184
-2.59971e-05
-0.000333009
-5.2639e-05
3.17854e-05
2.09865e-05
0.000675635
-0.00140967
0.000730773
0.000934885
-0.000905272
-0.000831477
0.000285226
-0.000210066
-7.51827e-05
0.000178914
0.000208554
-0.000388668
-0.000260237
-4.82768e-05
0.000846343
-0.000568311
-0.000293845
0.000559848
0.000219027
-0.00116066
0.000514988
0.0013436
-0.000588279
-0.000764491
0.000810561
-0.00133317
0.000515615
0.000794472
-0.000244975
0.00063326
0.000699781
-0.000719616
-0.000279831
-0.000756018
-0.0005501
0.00129274
-3.07288e-05
-3.65925e-05
4.31809e-05
0.000278065
0.000553676
-0.000432502
0.000194397
0.000237036
0.000525619
-0.000416277
-0.000154521
0.00146144
-0.000559216
-0.000904017
0.000408869
0.000204406
-0.00010841
-0.000151152
0.000204732
0.00102537
-0.000430717
1.65707e-05
-6.18115e-05
2.36923e-05
6.22819e-05
-0.000101271
-0.000514205
0.000749406
-0.00146289
0.000142848
-0.000868167
0.000710042
0.000359759
0.000821487
-0.00119347
-0.000766951
-0.00138839
0.000802198
0.000585034
-5.5521e-05
-3.32431e-05
5.67623e-05
-0.000271217
0.000119654
-0.000651055
0.00118509
-0.000535854
-1.11795e-05
-7.05833e-06
1.21882e-05
2.47785e-06
-1.80298e-05
-0.00122
0.000452826
-0.000124945
-9.3488e-06
0.000105381
0.00142907
-0.00062779
0.000312724
-4.12283e-05
-0.000272073
0.000236782
0.000118778
-0.000355093
0.000729765
-0.00119651
-0.000263952
-0.000514848
-0.000558772
-0.000523781
2.04984e-05
-0.00017425
0.000341753
-0.000233284
0.00136845
-0.000761472
-3.43547e-05
0.000391489
-0.000246864
-0.000614696
0.000854479
0.000264414
0.00034738
5.29863e-05
-6.70865e-05
1.22694e-06
-0.000353745
-0.000128034
0.000479937
7.11842e-05
-0.000477688
0.000397202
-8.98101e-05
3.6043e-05
-0.000781568
0.000312969
0.000457357
-0.000626831
-0.000785878
-0.000262136
-0.000324552
0.000584458
-0.00012135
0.000261822
-0.000140404
-0.000231049
-0.000202207
-0.000945765
0.000441006
0.000496318
-0.000474313
-0.000690693
-0.000787958
-0.000265086
0.00103525
0.000284716
-0.000548765
0.000643441
-0.00028328
-0.000365254
-0.000361062
0.000721551
-0.000360912
0.000294176
-0.000137345
-0.000156908
-0.0009287
0.000673946
0.000581342
-0.00024188
-0.000342606
-0.00112735
0.000567976
-0.000719975
0.000412863
0.00030752
-0.000164415
-4.69439e-05
0.000211402
-0.00137175
0.000618308
0.000748837
-3.04872e-05
-0.00127277
0.0012643
8.51152e-06
0.000304716
0.0004794
-3.07156e-05
0.000342407
-0.000110806
0.000841258
-0.000749857
0.000732522
-0.000516463
-0.000229468
-0.000623715
-0.000172501
0.000789571
0.000387705
-0.000209926
0.00142366
4.57963e-05
0.000238269
-0.00028317
0.000356384
-0.00126482
-0.000653552
0.00104973
-0.000401014
1.02589e-05
4.05526e-06
-1.98633e-05
0.000466823
0.000252112
-0.000494602
-0.000894657
0.00124347
-0.000930265
-0.000323893
1.41716e-05
-0.000166432
0.000133562
0.000115181
-0.000248869
-1.34311e-05
-2.04012e-05
2.16523e-05
2.18677e-06
4.00058e-05
0.000992432
-0.000699971
-0.000326296
8.92256e-05
0.000303289
-0.000392269
-0.00148035
0.000634688
0.000837491
-2.1603e-05
-0.000293907
-0.000232618
0.000527238
-0.00116907
0.000664721
0.000503101
1.87543e-05
-0.000243409
0.000559015
-0.000314864
8.50492e-06
-8.04855e-06
-5.44911e-07
-0.0005838
-0.000792198
0.00168981
-0.00106569
-0.000638793
3.28109e-05
0.000242935
-0.000276067
0.000601825
0.0007878
-0.000477701
-0.000309531
-0.000292683
0.000668977
-0.000378351
1.11161e-05
-3.1389e-05
1.23716e-05
-0.00049187
0.000748379
0.000405143
-0.000690919
0.000284577
0.000316462
0.000322151
-0.000738113
-0.000749536
-0.000478259
0.000662731
-0.000191424
0.000689364
0.000765329
-0.000824243
-0.000226055
0.000487328
-0.000261877
7.44991e-05
-0.000429957
0.00040533
-0.000767175
0.000941055
-0.000188993
-0.000599565
0.000372637
-3.8782e-05
3.88721e-05
0.000710853
0.000748565
0.000467494
-0.000762834
0.000192991
0.000302849
-0.000636327
0.000371475
0.000263555
-0.000154873
0.000321882
-0.000167302
-0.000574188
0.000705481
-0.000166083
0.000266846
-0.00010072
0.000379019
-0.00089629
0.000510522
0.000127731
0.000166202
-0.000247551
0.00103843
0.000941462
0.000290021
-0.000588034
-0.000507112
0.00108949
-0.000264638
-3.18379e-05
0.000296346
7.7504e-06
-0.00017215
0.00126903
-0.000843788
-0.000433872
-0.000765504
0.000918762
-0.000153313
-0.00079247
-0.000405952
0.00119377
0.000367246
-0.000487047
-0.000298173
0.000819188
-0.00138243
-0.000665011
0.000862419
-0.000220231
-0.00153822
0.000615092
0.000918597
-0.00108799
-0.000453979
0.000358843
0.000377968
0.000201075
-0.00059114
-0.000108419
-0.00026545
0.000373513
-6.41284e-05
0.000142437
-0.000132971
-4.41396e-05
-0.000279199
0.00031248
-0.000305467
0.000250975
0.000296003
-0.00067151
0.000423731
0.000246473
0.00033915
-0.000641445
0.000301722
0.000369358
-0.000437356
3.44648e-05
-8.18014e-07
3.04964e-06
-0.000541001
-0.000586538
8.63623e-05
0.000407963
-0.000278204
-0.000141245
0.000250112
0.000145408
-1.34263e-05
5.70449e-06
-3.74055e-05
-0.000278261
-0.000317072
0.000269205
-0.000160198
-0.000100177
-0.000156436
-0.000254941
0.00041215
-0.001323
0.000707455
0.000603673
1.005e-05
-1.63815e-05
5.62128e-06
-0.000437198
-0.000366452
0.000800736
0.000173489
-0.000285719
0.000112182
-5.00874e-05
1.85664e-05
1.8859e-05
-6.14441e-05
0.000394367
0.0002999
-0.00106573
-0.000234356
-6.22066e-05
0.000295918
-0.000185137
0.000239122
-0.000347774
0.000399689
0.00035789
-0.000759259
0.000637459
-0.000765152
0.000292771
0.000266991
0.000207159
-0.000646877
0.000587282
0.000777709
0.000644689
-0.000527909
-0.000120232
0.000806855
0.000453238
0.000203029
0.000120785
0.000319763
-0.00044909
0.000903901
-0.000737891
-0.000169089
-0.000815629
0.000586796
0.000225603
-0.00146765
0.000672356
0.000781928
-1.80749e-06
-0.000452746
-0.00111111
0.00149702
-0.000393467
0.000629586
0.000273833
-0.000914935
0.000259873
-0.000144028
-0.000115767
-0.00122873
0.000329969
0.000898652
-0.000839794
0.000301281
0.000525853
-2.71842e-05
0.000264472
0.000345755
-0.00128671
-0.000277893
0.000238258
-0.000366621
-0.000110123
1.63906e-05
0.000771776
-0.00044587
-0.000330467
-0.000381526
-0.000469241
-0.000206221
9.6091e-05
-0.000177238
0.000414419
-0.00127513
0.000544787
0.00070881
0.000982577
-0.00149811
0.000507457
0.000369354
0.000337163
-0.000706722
5.59106e-05
-0.000273632
0.000209454
0.000280643
-0.000873663
0.000591499
0.000111606
0.000148302
0.000266051
-0.000218158
0.000104725
0.000180458
-0.000282853
0.000900615
0.000443528
-0.00035412
-1.23034e-05
1.49859e-05
-0.000874473
-0.000458114
0.0013257
-0.000963908
-0.000513736
-0.000852331
-0.000297782
0.00112696
-0.000451874
0.000504152
-5.39661e-05
-8.28287e-05
-4.27294e-05
8.09881e-05
-0.000665006
-0.000505155
0.00040849
-0.00088843
0.000474703
3.80097e-05
-0.000667633
-0.000415817
-0.000520628
0.000935795
-0.000124393
-3.10857e-05
-3.01665e-05
0.000338411
-0.00074308
0.000400841
-0.00124116
-0.000185565
0.00141837
0.000327234
-0.000984365
0.000649752
-0.000437802
0.00136135
0.00115379
-0.000529211
0.000270163
-0.00090356
0.00061974
-0.00018401
5.62406e-05
0.000327119
-0.000749468
0.000421043
0.000367029
-0.00118969
0.000818196
0.000567152
0.00033277
0.000417407
0.000727658
-0.000259414
0.000331523
-0.000104188
-0.000125008
0.000258559
-6.05704e-05
-0.000204134
-0.000725605
-0.000272436
0.000980191
9.88668e-05
-0.000288187
0.000186618
-0.000608368
-0.00101394
-0.000338272
0.00134992
0.000287685
-0.000389178
0.000100306
0.000373201
1.31286e-05
-0.000386291
0.000253638
0.000534588
2.30963e-05
1.42628e-05
-3.71356e-05
0.000192924
0.000527722
0.00141251
-0.000437757
0.000413388
-0.000220152
-0.00130091
0.000284655
-0.000165814
0.00040509
-7.50203e-05
2.18128e-05
0.00128805
-0.000315997
0.000964266
-0.000286224
0.00115187
-0.000877096
-8.08345e-05
-0.00120926
0.000487421
-0.000296728
-4.06937e-05
-1.38617e-05
3.70327e-05
0.000231905
-0.00019935
0.000368271
-0.000307973
-0.000109952
0.000130489
-0.000459677
8.59995e-05
0.000220857
-0.000312893
-0.000289685
-5.24741e-05
-0.000397179
-0.000112961
0.000482245
-0.00087068
0.000324406
0.000542596
-0.00124824
0.000451325
-3.66177e-06
2.69384e-05
-6.94995e-05
1.03013e-05
-0.000379021
-0.000182119
0.000558249
-0.000204823
0.00035103
-0.000146489
0.000366449
-0.0010752
0.000696053
-0.00114886
0.000851222
0.000208459
0.000132937
-0.000240272
-8.30205e-05
0.000323337
-0.000180572
0.000480843
-0.000299891
0.00127736
-0.000382137
-7.09485e-06
0.000263052
-0.00129984
0.000707984
0.000579536
-0.000196034
-8.0586e-05
0.000276221
0.000656535
-0.000464443
-0.000299611
0.000281751
-0.00168826
0.00101626
-0.00068209
-0.000346627
0.00121404
-0.000802977
-0.000414161
-0.000307059
-0.000652727
0.00038484
0.000266153
-0.000899506
0.000438535
0.000459023
0.000865072
-0.000586474
0.000457021
-7.04617e-05
-0.000389583
0.000132566
-0.000334491
0.000201546
-0.00103336
0.000227936
-0.000738849
0.00109252
-0.000923111
-0.000540239
8.28128e-05
0.000337224
-0.000421435
-2.7263e-05
2.51038e-05
-1.21026e-05
-0.000247166
-4.29749e-05
0.000495692
-9.47344e-05
0.000433877
-0.000658644
-0.000601616
0.000344211
-0.000841796
0.00049626
-0.000197351
0.000293564
0.000528228
0.000817734
-0.00134656
-0.000272631
-0.000406411
0.000671873
-0.000260961
-0.000302138
-0.000896529
-0.000356066
-0.000679324
-0.000614981
0.000245122
0.000184413
-0.000430451
-0.000232331
-9.2017e-05
0.000319151
0.000270182
-0.000563434
-0.000213852
-0.000658789
0.000379077
0.00127725
0.000178822
-0.0010892
0.000900492
-0.000378988
0.000258406
0.000119528
-0.000692659
0.000279624
0.000396585
-0.000154573
0.000300968
-0.000338545
-4.18678e-05
0.00134785
-0.000865879
-0.000489935
-0.00109324
0.000551858
-0.000610614
-0.000377472
0.000986224
-0.00133686
0.000537024
0.00078983
0.000399883
-0.000640832
0.000241589
-0.000364597
0.000142812
0.00064685
-0.00117265
0.000516814
-0.000556288
0.000102882
-0.000746545
0.00125895
-0.00052579
0.000468721
-0.00108128
0.000451079
-0.000281893
5.72872e-05
-0.000243001
0.000661919
-0.000425306
0.000993104
-0.000583165
0.00105912
-0.000712201
-0.000372727
0.0007266
-0.000474431
-0.000284568
-0.0010091
6.20694e-05
0.000929011
0.00118296
-0.000519492
0.00019236
-0.000868025
0.000665546
0.000293326
0.00075673
-0.00106594
0.000874544
0.000377904
-0.00126936
-0.000435297
0.00082753
-0.000396289
0.000117175
-0.00117394
0.00105496
5.89749e-05
-0.000274883
0.000208755
1.47531e-06
6.11818e-06
-0.000188868
0.000475015
0.000872126
-0.000529556
8.31877e-05
-0.000955559
0.000561851
0.00077562
0.000271966
0.000319064
-0.000590765
-0.000656718
-0.000524803
0.00118128
-3.7363e-05
-1.53189e-05
-0.000505199
0.000141964
0.000184432
0.000227934
0.000549058
-9.6157e-05
-0.000461143
-0.000270465
1.31525e-05
0.000249267
0.00117151
-0.00075946
-0.000417369
0.000424765
0.000267739
-0.000218523
-0.000661406
-0.000222062
0.000228467
0.000111593
0.000429191
0.000278832
0.000237235
-0.000515406
-0.00122457
0.000465368
0.000997167
-0.000578632
-0.000422304
0.000211069
-0.000114875
0.000652922
-0.000318323
0.000167986
-0.00085533
-0.000274611
0.000727072
0.00055782
-0.000157394
0.000700328
-0.00129461
9.08511e-05
-0.000212041
6.91627e-05
-0.000296306
0.000220571
0.000125253
-0.000530681
0.000384849
9.58601e-05
-0.00033339
4.50103e-06
-0.000331756
-0.000306018
0.00113137
0.000291603
-0.00116077
0.000859468
0.00066089
-0.000388637
-0.000538733
-0.000174076
0.000707323
-0.000265838
0.000547055
-0.000444366
0.000738106
-0.000231104
-0.000511986
-0.000519634
-0.000140717
0.000655268
0.00120684
-0.000398845
-0.00033942
0.00073739
0.000353132
-0.000533234
0.000721953
0.000282234
0.000487011
0.000570525
-0.0010577
0.000787647
-0.000841246
3.13387e-05
1.62649e-05
-0.000233587
0.00017489
-0.00034259
0.00120183
-0.000916758
0.0010856
0.000588225
0.00020107
-0.000813029
0.000119876
4.71979e-05
-0.000221247
-0.000262324
0.000265342
-0.000165871
0.000730747
0.000448144
-0.000864796
0.000447945
-0.000208223
-0.000241491
9.30681e-05
-0.000148209
1.73113e-05
0.000356958
-0.000676715
0.000315998
-0.000187744
0.000367367
-0.000540072
0.000492901
4.77626e-05
0.000352922
0.000225002
-0.000583107
-0.000282059
0.000412794
-0.000321459
-9.26665e-05
0.000121779
0.000290016
-0.000806406
4.62319e-05
-0.000692937
0.000168324
-0.000539524
-0.000636181
0.00033647
0.000299533
-6.49174e-05
7.45114e-05
0.000772287
0.000403826
-0.000726076
-0.000475368
-0.000171625
0.000640784
0.00100523
-0.000351094
-0.000658358
0.000530018
-0.000365079
-0.000166602
-0.000379452
0.000582534
-0.000206248
-0.000901828
0.000548973
0.000346018
-0.000520948
-0.000984278
0.00143486
-0.000662233
-0.00105608
0.000586526
0.000466365
0.000790976
-0.000608572
-0.000537245
-0.000902304
0.000747212
-0.000151971
-0.000599691
0.000863862
-0.000460713
-0.000564207
0.000292728
0.000272093
0.000174036
-0.00063445
-0.000424652
-0.00040572
-0.000286268
0.000543771
-0.000361675
-0.000215434
0.000161379
5.24761e-05
-0.000213859
-0.000181058
0.000161916
-0.000290817
0.000285972
-0.000704111
0.000265409
0.000282089
-0.000219063
9.60123e-05
-0.000214847
-0.000429083
0.000754545
-0.000240638
0.000123145
0.000675693
-0.00105152
0.000375695
0.000610715
0.000347969
-0.000303682
0.000643484
-0.000347573
-0.000807845
0.000496565
0.000305071
-0.000327179
-0.000290399
0.000617478
-0.000325121
-0.000410319
0.000735305
0.000980036
-0.000122539
-0.000869079
0.00115137
-0.000803074
0.000526022
0.000245725
-0.000885449
0.000389194
0.000492807
-0.000371588
-0.000786861
0.00115758
0.000283218
0.000723495
-0.00102282
-6.01681e-05
1.74705e-05
-0.000387231
0.00131648
0.000697741
0.000337332
-0.000989951
-0.000232095
0.00121525
0.00038585
0.000351901
-0.000742653
-2.25952e-05
-0.000562805
0.000180479
0.000302081
0.000207034
0.000856715
-0.00144444
0.000570793
0.000673205
0.000312247
-0.000346955
8.36039e-05
0.000263113
0.00017638
-0.000217605
2.36547e-05
-0.000429951
-0.000256391
0.000678911
0.00090712
-0.000644601
0.000320658
0.000412051
-0.000658582
0.000343588
0.000312223
-0.000717888
0.00105162
-0.000336239
-0.000149005
0.000530187
0.00100138
-0.000749569
-0.000261476
0.000804734
0.000289595
-0.000162055
-0.000216571
0.000496181
8.91663e-05
0.000121945
-0.00066821
-0.00027792
0.000928228
-0.000851291
-0.000357664
0.00119325
-0.00044693
-0.000459726
-0.000399893
0.000871203
-0.000489201
-0.000315351
0.000411526
-9.72968e-05
-1.7234e-05
-0.000264533
-0.000891937
-0.000436488
0.00132845
0.000848185
-0.000476324
-0.000347466
0.000197452
0.000149547
0.000309752
-0.00055253
0.000332792
-0.000304177
-2.80542e-05
0.000576182
-0.000765842
1.42447e-06
0.000301109
-0.000304334
3.90799e-05
-0.000126258
-0.000929468
0.000336268
0.000584237
-0.000128515
-0.000219197
5.32074e-05
0.000221772
0.000404075
-0.000317984
-8.71675e-05
-4.39859e-06
-3.48207e-06
5.13713e-06
-2.0619e-05
7.59579e-05
-0.00120914
0.000350308
0.000178069
-0.00116268
0.00016626
0.000175994
8.53246e-05
-0.000272815
-0.000504384
0.000209476
0.000292909
-0.00039602
0.000749127
0.000622261
0.000640109
0.000490112
-0.000103598
8.60585e-05
0.000170849
-0.000257007
-0.000347156
-0.000192403
-4.61307e-06
0.000164691
-1.8875e-05
0.000178163
-0.000159258
6.84453e-06
8.67448e-06
-1.86194e-05
-0.000207136
0.000620664
0.000617391
0.000805753
-0.000326265
-0.000611241
-9.85569e-05
0.000311804
-0.00021601
1.22857e-05
-1.41894e-05
0.000578551
0.000164271
0.000293442
0.000361335
-0.000228578
-0.000101669
4.27598e-05
1.98766e-05
-9.69941e-05
2.68075e-05
0.000193908
0.000294784
0.000688035
6.29839e-05
-0.000773504
-0.000563078
0.000240747
0.000319665
0.00113506
-0.000378177
-8.83115e-05
0.000252333
1.91428e-05
-4.37539e-05
0.000720384
-0.000132453
0.000532513
-0.000387545
-0.000145036
0.000238894
9.45987e-05
0.000249721
0.000391468
-0.000335586
0.000716555
0.000546445
-0.000438505
-0.000108739
0.000276971
-0.000103524
-0.000259099
-0.000449272
0.000411393
-0.000614612
0.00020325
3.56259e-05
-6.1886e-05
-0.00024136
0.000417938
-0.000177887
-0.000859401
0.000442909
0.000437071
-0.000193022
0.000986698
-0.000312941
-0.00129452
0.00105588
0.000127594
-0.000654606
0.00116537
-0.000512512
-0.000252884
0.000760803
0.000186324
0.000160716
-0.000347571
-3.25648e-05
6.35566e-05
-4.83259e-05
0.000374465
0.000392651
-0.00121485
0.000700286
0.000501252
-5.70126e-07
8.64096e-06
0.000317689
-0.000185603
0.000579696
0.000532798
-0.00111387
0.00106445
-0.00066909
-0.000405695
-0.000277756
-0.000376626
-0.000347486
-0.000312163
-0.000565021
0.0008685
9.17779e-06
-3.5667e-06
0.000121122
0.000196073
0.00100521
-0.000344775
-0.00130438
-0.000234688
0.000210568
0.000538703
0.000515912
-0.00028966
0.000371273
-1.4496e-05
1.32091e-05
-0.000330607
0.000578203
-0.000249401
-2.71202e-05
-4.27498e-05
4.48554e-05
0.000115794
0.000374397
-0.000520821
-0.000636033
-0.000157447
-0.000300398
-0.000129327
0.00018478
-5.53801e-05
0.000348351
5.47811e-05
-0.000947638
-0.000373878
0.00131955
0.000181373
-0.000587874
-0.000206879
0.000758719
-0.00062135
-0.000812938
-9.28246e-05
-0.000254404
0.000322842
-0.000309566
-1.39503e-05
0.000450726
0.000715218
0.00093524
-0.000692161
-0.00039841
-0.000902516
-8.16565e-05
3.3955e-05
-1.21651e-05
-0.000861369
0.000857611
-1.80954e-05
-1.87397e-05
-0.000677355
0.000400317
0.000274298
0.000620432
-0.000963742
0.000336809
-0.000278828
-0.000284686
-0.000745636
0.000227995
0.000328462
0.000907722
-0.00123762
0.00038785
-0.000713046
-0.000821188
0.00118408
-0.000827948
0.000323585
0.000500435
0.00064082
-0.000270816
-0.000180982
-0.000610866
0.000357827
0.000695281
-0.00105809
-2.00398e-05
2.35545e-06
0.000478105
-0.000391992
-2.84816e-05
-7.83886e-05
1.55726e-05
-4.79226e-05
-0.000293605
-0.000519982
0.000122195
1.56868e-05
-0.000188147
0.000140297
-0.000159136
-0.000409177
0.000574902
-0.000170315
4.35304e-05
0.000121038
-0.000198612
0.000178009
0.000307004
-8.36041e-05
3.74816e-05
7.16575e-05
0.000301628
-0.000892595
0.000597926
-0.00100464
0.000722583
-0.000115114
-0.000125613
0.000328613
-0.000606296
0.000275146
0.000451791
0.000188473
-0.00050284
0.000698372
-0.000206347
9.88934e-05
-0.000297514
0.0001948
0.000285829
0.000673671
-0.000975732
0.000467517
-0.000609554
0.000135517
0.000379926
-0.000503316
0.00012012
-0.000760383
-0.000309685
0.0010494
0.000232065
-0.00016668
-6.53785e-05
0.000951317
-0.000256398
-0.000700048
-0.000851813
-0.000361077
0.00121227
-0.000180898
0.000632222
0.00102711
-0.000674078
0.000219973
-0.000133997
-0.000654342
0.000343291
1.16339e-05
-9.83277e-05
6.05884e-05
-0.000687561
0.000255672
-0.000144045
-0.00041753
-0.000280718
-0.000621684
-0.000155384
0.00024641
0.000450881
-0.00134034
0.000889285
0.000143116
-0.000569072
-0.000999436
0.000256155
0.000848984
-0.00116339
-0.000287788
0.000197579
-0.000636515
0.000437769
-0.000702678
0.000693885
-0.000234912
0.000211288
-0.00064797
-0.000322384
0.000394696
0.00100886
-0.000245645
0.000628609
7.94769e-05
-0.000492908
-0.000367218
0.0011767
-0.000147146
-0.000579019
7.19248e-05
-8.60039e-05
-0.000307363
0.000682019
0.000968723
-0.000212259
0.000343723
-0.00104273
0.000691669
-0.000958666
0.000591955
0.000360147
-0.000202093
0.000244458
-4.23531e-05
3.80038e-05
-6.22972e-05
2.38671e-05
-0.000884612
0.00133546
9.57956e-05
0.000831548
-0.00136028
0.00086599
0.000489499
-0.00079976
0.000497385
0.000296578
0.000330287
-8.2344e-06
3.23857e-05
-9.19869e-05
-0.000462484
0.000275932
0.000183943
0.000156892
0.000375439
2.96061e-05
-2.35741e-05
-5.67812e-06
0.000892097
-0.000507486
-0.000402899
-0.000647432
-3.01466e-05
0.000102774
0.000839814
-0.000530491
-0.0003286
0.000132773
-0.000669842
0.000524119
-0.000479547
0.00121289
-0.000737467
-0.000684999
0.000626002
9.36429e-05
-0.000577889
-0.000513611
-0.000195835
0.000686832
0.000346506
-0.000190191
-0.000156892
0.000435715
-0.000344977
1.07856e-06
-0.000481175
0.000361501
-0.000519163
-0.000792809
0.000313688
-0.000314144
0.00115031
-0.000348533
0.000195764
-0.000247446
3.66203e-05
-0.00027455
0.000600408
-0.000367872
-0.000407652
0.000773613
-0.000394538
0.000469978
0.00013265
0.000572837
-0.000720792
0.000587774
0.000251013
-0.000716933
0.00069145
-0.000241999
0.000978749
-0.000462215
0.000275443
0.000629258
-0.000916039
-0.000394614
0.000521159
0.000256039
-0.00103652
0.000249479
0.000630149
-0.000899487
0.000593637
2.10222e-05
0.000484212
-0.000847477
-0.000335078
0.00117888
-0.00108595
0.000428891
0.000609044
0.000601466
-0.000167708
0.00049994
-0.000376548
-0.000131857
-0.00120772
-0.000494485
0.000277491
0.000216005
0.000592215
-0.000926626
0.000229401
-0.00108048
0.000845364
4.1742e-05
-4.64581e-05
-5.12901e-05
-5.05003e-05
8.21694e-05
0.00052741
0.0002527
-0.000791658
0.000377676
0.000682234
-0.00106674
-0.00103098
0.000310714
-0.000560124
0.000677768
-9.44261e-05
0.000286908
-0.000193871
-0.000914548
0.0012391
-0.000336954
-0.0004133
0.0010304
-0.000777494
-0.000218312
0.000566152
-0.000215848
-4.83422e-05
-0.000482078
0.000406957
-0.000194616
-0.000312224
0.000507091
-0.00118837
0.000337319
-8.35598e-06
3.60161e-05
-0.000291729
0.000304913
-0.000640984
0.00093916
-0.00030589
0.000122952
-0.00062052
0.000332485
-0.000790126
0.00124087
-0.000453441
-0.00140982
0.000930646
0.000470252
-0.000287507
-0.000587224
0.000857622
0.000395738
0.000478338
0.000284446
-4.23789e-05
-0.000242304
-0.000373909
-0.00038366
0.000751445
-0.00125239
0.000302623
0.000582655
-0.00110782
0.000479335
0.000340143
-0.000496534
9.83602e-05
-1.89639e-06
1.16543e-05
-0.000715912
-0.000321297
0.00103076
0.000390053
-0.00117403
0.00078289
-8.24592e-06
-8.46853e-06
0.000530883
-0.00035477
0.000687372
-0.000339963
-0.00121193
0.000418999
-0.000307043
0.000569059
0.00137486
-0.000978011
-0.000399299
0.000410904
7.77905e-05
-0.00050353
9.95983e-05
-1.55936e-05
-0.000103648
-0.000523191
-0.00037809
-0.000743284
-0.000814862
-0.000333087
0.00113311
-0.00111858
0.000701346
0.000408042
-0.000822065
-0.000349031
0.00115545
-0.000441373
4.60468e-05
0.000353101
0.0012699
-0.000561571
-0.000709755
0.000770878
-0.00114947
-0.000249261
0.000274054
-2.49229e-05
0.000146084
0.000335258
0.000895243
-0.00123253
-0.000258718
-0.000528614
0.00101562
-0.000226022
-0.00135885
0.00101812
-0.000459929
-7.44317e-05
0.000504962
-0.000297691
-0.00052852
0.000817889
0.00101969
-0.000551889
-0.000485207
0.000943498
-0.000614591
-0.000338207
-0.00022286
-0.00068655
0.000265927
0.000580681
-0.000866416
0.000917595
-0.000801705
-0.00114644
-0.000409836
0.000235593
0.000173163
0.000573861
0.000393898
0.000507449
-0.000226835
-0.000284719
-0.000418118
0.000847198
-0.000430849
0.000286311
0.000624246
-0.000926781
-0.000316774
-0.000761477
0.000108548
-0.000756407
-0.000366811
0.00100621
-0.000648163
0.000820045
-0.000292108
-0.000534141
-0.000315057
0.000217881
0.000235862
-0.000150925
-0.000444665
-0.000235246
8.05419e-05
-0.000245716
0.000163802
-0.000961735
0.00067212
-0.000386572
0.000339118
0.000185632
0.000953348
0.000359468
-0.00128642
0.000563626
-0.000474874
-7.89805e-05
0.000524905
0.00108178
0.000635294
0.00032731
0.000479055
-0.000182338
-0.000297179
0.000512295
-0.00137497
0.000855668
-0.00108936
0.000667949
0.000401066
-0.000163002
0.000393276
-0.000964087
-0.000620434
0.000115362
0.000434936
-0.000224947
0.000765492
-0.00129463
0.000520669
-0.000501798
0.000201152
0.000504862
-0.000727635
0.000544349
-0.000301292
9.00037e-05
0.00020687
-0.000914677
0.00126209
-0.000130705
-0.000204292
-1.95927e-06
8.22002e-05
-0.000509077
-0.000290487
0.000501287
-0.000325889
0.00019746
-0.000100269
-0.000204805
0.000349874
0.000968398
-0.00132016
-0.000323945
-0.000171533
-0.000323402
-0.000461413
0.000776928
-0.00147326
0.00104432
0.000418633
-0.00119524
-0.000226512
0.000484583
-0.000313721
-0.000187931
-0.000179108
-0.000327231
0.000356758
0.000427167
-0.000795436
-8.61261e-05
0.000247471
0.000766072
-0.00123028
0.000398548
-0.00085
0.000451229
-0.000730303
-0.000178527
0.000241877
-6.8865e-05
-0.000130698
-0.000209279
0.000131091
-6.83894e-05
-1.23058e-05
4.98869e-05
0.000131385
0.000158019
0.00120439
-0.000466915
-0.000747343
0.000140441
-0.000620061
0.000451157
0.000994347
0.000359653
-0.00135553
-0.000737265
-0.000840685
0.000534343
-0.000261039
-0.000457086
0.00109522
-0.000350644
0.000499307
0.000493875
-0.000192538
0.000420018
-0.000229112
-0.000569073
-0.00051163
0.000715557
0.00023152
-0.000126248
-0.000105282
0.000446298
-0.00120926
0.000752076
-0.000265361
-0.000556237
-0.000150443
0.000687131
0.000124322
-0.00021457
9.02959e-05
0.000156881
0.000534287
-0.000639063
9.6597e-05
0.000308009
-0.000222489
0.00096702
-0.000677156
-0.000299508
9.38813e-05
0.000209486
-0.000255468
0.000551382
-0.000304877
-0.000272744
-0.000472349
0.000734414
-0.000863097
0.000496448
0.000347911
-0.000365803
0.00076312
-0.000402244
-3.49262e-05
0.000215844
0.000718973
0.000475403
0.000523773
-0.000234291
-0.000292252
0.000585971
-0.000299126
-0.000285948
0.000284264
-0.000478587
0.000160361
0.000338335
-0.000891425
0.000170044
-0.000302243
-0.00021702
-0.000730682
0.000921865
0.000492999
-0.000216656
0.000771583
-0.00114412
4.9732e-05
0.000431819
-0.000125449
-0.000315075
-0.000568514
0.000228241
-0.000140923
-0.000134447
-0.00074747
-0.000436886
0.00116976
0.00033066
9.3105e-05
-0.000239776
0.000330553
-0.000557692
0.000871936
-0.000340468
-0.000335897
-0.000495808
0.000593121
-0.000481074
0.000152289
0.000133138
-0.000284928
-0.000308261
-0.00060227
-0.000235823
0.000813717
0.000236517
4.76157e-05
8.6169e-05
-0.000660328
-0.000742739
0.000790918
0.00103748
-0.000313903
0.000326463
-0.000205991
-0.000934319
0.00029717
3.09872e-05
-1.20663e-05
-2.81236e-05
0.000644405
-0.000710843
0.000947082
-0.000252789
-0.000292428
0.000344107
-0.000188635
-0.000155973
-0.000849213
0.00111888
-0.000513365
-0.000605994
-0.000776033
0.000257741
-0.000586159
-0.00062804
0.000931196
-0.000356545
-0.000357279
0.000704663
-0.00100217
0.000490871
0.000970856
0.000400927
0.000727548
0.000267123
0.000111479
0.000165443
0.000965147
6.77481e-05
-0.00103882
-3.29804e-05
-0.00010627
-0.000593883
-0.000887628
0.000191308
0.000245803
-0.000450143
0.000765974
-0.000440588
0.000318533
0.000120115
-0.000497338
0.000171581
-0.000221252
0.000835897
0.000138159
0.00011758
-0.000176198
0.000329027
0.00135314
-0.000385417
-0.000117007
-0.000325649
-0.000450355
0.000740853
-0.000232515
0.000101743
0.000130873
-0.000345243
0.000649313
0.00036699
-0.000662541
0.000295909
-0.000302018
-0.000566505
0.000318037
-0.000330397
-0.000491649
0.000813702
7.55873e-05
0.000586347
-0.000661892
-0.000303299
0.000183918
0.000119078
8.60666e-05
-0.000302929
0.000213388
0.00120076
8.51311e-05
-0.000225939
-0.000533739
0.000781683
-0.000332679
-0.000410921
0.00117022
0.000733333
-0.000387717
-0.000410164
0.000784261
-0.00037469
0.000264442
-0.000191974
-7.25482e-05
-0.000711037
-0.000292494
0.00018002
-0.000283646
2.97466e-06
-9.88188e-06
-0.000332348
3.58211e-05
0.000288681
0.000450601
0.000171295
0.000225321
-0.000396491
0.000670712
0.000263717
1.10204e-05
-7.28724e-06
0.000585105
0.000136742
-0.000462031
0.000726524
-0.000278789
-0.000737328
0.000742277
-0.00122616
0.0012835
-0.000957658
-0.000331956
0.000591673
0.000409014
0.00124256
-0.000223922
0.00030656
0.00049713
-0.000670778
0.00016966
0.00116071
0.00108497
-0.000125455
0.000140914
-0.000244723
0.000103893
0.000177496
-0.00069045
0.000946956
-0.00038436
0.00030275