/*--------------------------------*- C++ -*----------------------------------*\
| =========                 |                                                 |
| \\      /  F ield         | OpenFOAM: The Open Source CFD Toolbox           |
|  \\    /   O peration     | Version:  v2012                                 |
|   \\  /    A nd           | Website:  www.openfoam.com                      |
|    \\/     M anipulation  |                                                 |
\*---------------------------------------------------------------------------*/
FoamFile
{
    version     2.0;
    format      ascii;
    class       pointVectorField;
    location    "450";
    object      pointDisplacement;
}
// * * * * * * * * * * * * * * * * * * * * * * * * * * * * * * * * * * * * * //

dimensions      [0 1 0 0 0 0 0];


internalField   nonuniform List<vector> 
14386
(
(0 0 0)
(-0.0288829 -0.192986 0)
(0 0 0)
(-0.0288829 -0.192986 0)
(0 0 0)
(0 0 0)
(0 0 0)
(0 0 0)
(0 0 0)
(0 0 0)
(0 0 0)
(0 0 0)
(0 0 0)
(0 0 0)
(0 0 0)
(0 0 0)
(0 0 0)
(0 0 0)
(0 0 0)
(0 0 0)
(0 0 0)
(0 0 0)
(0 0 0)
(0 0 0)
(0 0 0)
(0 0 0)
(0 0 0)
(0 0 0)
(0 0 0)
(0 0 0)
(0 0 0)
(0 0 0)
(0 0 0)
(0 0 0)
(0 0 0)
(0 0 0)
(0 0 0)
(0 0 0)
(0 0 0)
(0 0 0)
(0 0 0)
(0 0 0)
(0 0 0)
(0 0 0)
(0 0 0)
(0 0 0)
(0 0 0)
(0 0 0)
(0 0 0)
(0 0 0)
(0 0 0)
(0 0 0)
(0 0 0)
(0 0 0)
(0 0 0)
(0 0 0)
(0 0 0)
(0 0 0)
(0 0 0)
(0 0 0)
(0 0 0)
(0 0 0)
(0 0 0)
(0 0 0)
(0 0 0)
(0 0 0)
(0 0 0)
(0 0 0)
(0 0 0)
(0 0 0)
(0 0 0)
(0 0 0)
(0 0 0)
(0 0 0)
(0 0 0)
(0 0 0)
(0 0 0)
(0 0 0)
(0 0 0)
(0 0 0)
(0 0 0)
(0 0 0)
(0 0 0)
(0 0 0)
(0 0 0)
(0 0 0)
(0 0 0)
(0 0 0)
(0 0 0)
(0 0 0)
(0 0 0)
(0 0 0)
(0 0 0)
(0 0 0)
(0 0 0)
(0 0 0)
(0 0 0)
(0 0 0)
(0 0 0)
(0 0 0)
(0 0 0)
(0 0 0)
(0 0 0)
(0 0 0)
(0 0 0)
(0 0 0)
(0 0 0)
(0 0 0)
(0 0 0)
(0 0 0)
(0 0 0)
(0 0 0)
(0 0 0)
(0 0 0)
(0 0 0)
(0 0 0)
(0 0 0)
(0 0 0)
(0 0 0)
(0 0 0)
(0 0 0)
(0 0 0)
(0 0 0)
(0 0 0)
(0 0 0)
(0 0 0)
(0 0 0)
(0 0 0)
(0 0 0)
(0 0 0)
(0 0 0)
(0 0 0)
(0 0 0)
(-0.0273012 -0.127655 0)
(-0.0273598 -0.130075 0)
(-0.0274184 -0.132494 0)
(-0.027477 -0.134914 0)
(-0.0275355 -0.137334 0)
(-0.0275941 -0.139753 0)
(-0.0276527 -0.142173 0)
(-0.0277113 -0.144593 0)
(-0.0277699 -0.147012 0)
(-0.0278284 -0.149432 0)
(-0.027887 -0.151852 0)
(-0.0279456 -0.154271 0)
(-0.0280042 -0.156691 0)
(-0.0280628 -0.159111 0)
(-0.0281213 -0.16153 0)
(-0.0281799 -0.16395 0)
(-0.0282385 -0.166369 0)
(-0.0282971 -0.168789 0)
(-0.0283557 -0.171209 0)
(-0.0284142 -0.173628 0)
(-0.0284728 -0.176048 0)
(-0.0285314 -0.178468 0)
(-0.02859 -0.180887 0)
(-0.0286486 -0.183307 0)
(-0.0287072 -0.185727 0)
(-0.0287657 -0.188146 0)
(-0.0288243 -0.190566 0)
(-0.0264633 -0.193044 0)
(-0.0240436 -0.193103 0)
(0 0 0)
(0 0 0)
(0 0 0)
(0 0 0)
(0 0 0)
(0 0 0)
(0 0 0)
(0 0 0)
(0 0 0)
(0 0 0)
(0 0 0)
(0 0 0)
(0 0 0)
(0 0 0)
(0 0 0)
(0 0 0)
(0 0 0)
(0 0 0)
(0 0 0)
(0 0 0)
(0 0 0)
(0 0 0)
(0 0 0)
(0 0 0)
(0 0 0)
(0 0 0)
(0 0 0)
(0 0 0)
(0 0 0)
(0 0 0)
(0 0 0)
(0 0 0)
(0 0 0)
(0 0 0)
(0 0 0)
(0 0 0)
(0 0 0)
(0 0 0)
(0 0 0)
(0 0 0)
(0 0 0)
(0 0 0)
(0 0 0)
(0 0 0)
(0 0 0)
(0 0 0)
(0 0 0)
(0 0 0)
(0 0 0)
(0 0 0)
(0 0 0)
(0 0 0)
(0 0 0)
(0 0 0)
(0 0 0)
(0 0 0)
(0 0 0)
(0 0 0)
(0 0 0)
(0 0 0)
(0 0 0)
(0 0 0)
(0 0 0)
(0 0 0)
(0 0 0)
(0 0 0)
(0 0 0)
(0 0 0)
(0 0 0)
(0 0 0)
(0 0 0)
(0 0 0)
(0 0 0)
(0 0 0)
(0 0 0)
(0 0 0)
(0 0 0)
(0 0 0)
(0 0 0)
(0 0 0)
(0 0 0)
(0 0 0)
(0 0 0)
(0 0 0)
(0 0 0)
(0 0 0)
(0 0 0)
(0 0 0)
(0 0 0)
(0 0 0)
(0 0 0)
(0 0 0)
(0 0 0)
(0 0 0)
(0 0 0)
(0 0 0)
(0 0 0)
(0 0 0)
(0 0 0)
(0 0 0)
(0 0 0)
(0 0 0)
(0 0 0)
(0 0 0)
(0 0 0)
(0 0 0)
(0 0 0)
(0 0 0)
(0 0 0)
(0 0 0)
(0 0 0)
(0 0 0)
(0 0 0)
(0 0 0)
(0 0 0)
(0 0 0)
(0 0 0)
(0 0 0)
(0 0 0)
(0 0 0)
(0 0 0)
(0 0 0)
(0 0 0)
(0 0 0)
(0 0 0)
(0 0 0)
(0 0 0)
(0 0 0)
(0 0 0)
(-0.0273012 -0.127655 0)
(-0.0273598 -0.130075 0)
(-0.0274184 -0.132494 0)
(-0.027477 -0.134914 0)
(-0.0275355 -0.137334 0)
(-0.0275941 -0.139753 0)
(-0.0276527 -0.142173 0)
(-0.0277113 -0.144593 0)
(-0.0277699 -0.147012 0)
(-0.0278284 -0.149432 0)
(-0.027887 -0.151852 0)
(-0.0279456 -0.154271 0)
(-0.0280042 -0.156691 0)
(-0.0280628 -0.159111 0)
(-0.0281213 -0.16153 0)
(-0.0281799 -0.16395 0)
(-0.0282385 -0.166369 0)
(-0.0282971 -0.168789 0)
(-0.0283557 -0.171209 0)
(-0.0284142 -0.173628 0)
(-0.0284728 -0.176048 0)
(-0.0285314 -0.178468 0)
(-0.02859 -0.180887 0)
(-0.0286486 -0.183307 0)
(-0.0287072 -0.185727 0)
(-0.0287657 -0.188146 0)
(-0.0288243 -0.190566 0)
(-0.0264633 -0.193044 0)
(-0.0240436 -0.193103 0)
(-0.000300551 -0.00496404 0)
(-0.0283939 -0.172801 0)
(-0.0273335 -0.128987 0)
(-0.0278514 -0.150376 0)
(-0.000455551 -0.00600831 0)
(-0.000109545 -0.00284435 0)
(-6.82161e-05 -0.00207389 0)
(-0.000171883 -0.00366847 0)
(-0.000704811 -0.00728989 0)
(-4.32448e-05 -0.00147708 0)
(-0.000887591 -0.00717766 0)
(-2.10488e-05 -0.00102889 0)
(-0.00106521 -0.00642459 0)
(-0.00127501 -0.00499301 0)
(-2.71462e-05 -0.00100894 0)
(-0.0287191 -0.186641 0)
(-1.952e-05 -0.000896879 0)
(-2.00732e-05 -0.000789705 0)
(-1.72375e-05 -0.000760087 0)
(-1.4565e-05 -0.000591003 0)
(-1.23925e-05 -0.000530668 0)
(-0.000239956 -0.00445876 0)
(-0.000154239 -0.00364941 0)
(-8.59763e-05 -0.00242972 0)
(-0.0281483 -0.162643 0)
(-0.0276252 -0.141032 0)
(-8.34562e-06 -0.00034421 0)
(-7.99965e-06 -0.000336778 0)
(-0.000895642 -0.00819766 0)
(-0.0012014 -0.00597211 0)
(-0.000986305 -0.00693814 0)
(-0.000613603 -0.00701392 0)
(-0.000351983 -0.00513515 0)
(-3.81744e-05 -0.00137429 0)
(-5.46827e-05 -0.00175712 0)
(-2.08985e-05 -0.000987835 0)
(-1.91146e-05 -0.000966162 0)
(-2.43053e-05 -0.000933087 0)
(-0.0285604 -0.179747 0)
(-5.28718e-06 -0.000219731 0)
(-4.30183e-06 -0.000179791 0)
(-0.0012072 -0.00378453 0)
(-0.000514548 -0.0063442 0)
(-0.000341774 -0.00530324 0)
(-0.000268563 -0.00470787 0)
(-0.000245369 -0.00482861 0)
(-0.000151591 -0.00340798 0)
(-0.00011519 -0.00285707 0)
(-9.87947e-05 -0.00267923 0)
(-7.93818e-05 -0.00233027 0)
(-1.07502e-05 -0.000440309 0)
(-2.13291e-05 -0.00096278 0)
(-4.92329e-05 -0.00163173 0)
(-2.15516e-05 -0.00111663 0)
(-1.06006e-05 -0.000449417 0)
(-1.24087e-05 -0.000536652 0)
(-1.77698e-05 -0.000708675 0)
(-3.97562e-05 -0.001396 0)
(-1.76409e-06 -7.34805e-05 0)
(-0.0201897 -0.0682143 0)
(-0.0198923 -0.0673136 0)
(-0.0200217 -0.0724492 0)
(-0.0197238 -0.0713687 0)
(-0.0198397 -0.0763776 0)
(-0.0201344 -0.0775926 0)
(-0.0199367 -0.0813488 0)
(-0.0196451 -0.0799946 0)
(-0.0197292 -0.084769 0)
(-0.0200156 -0.0862411 0)
(-0.019795 -0.0894545 0)
(-0.01951 -0.0879014 0)
(-0.0195623 -0.0924194 0)
(-0.0192796 -0.0907846 0)
(-0.0193197 -0.0951363 0)
(-0.0195952 -0.096772 0)
(-0.0193446 -0.0993636 0)
(-0.0190697 -0.0975951 0)
(-0.019083 -0.101698 0)
(-0.0193809 -0.103839 0)
(-0.0190727 -0.105721 0)
(-0.0188112 -0.103732 0)
(-0.0187908 -0.107537 0)
(-0.0190378 -0.109533 0)
(-0.0187512 -0.111191 0)
(-0.018989 -0.113191 0)
(-0.0186919 -0.114708 0)
(-0.01846 -0.112684 0)
(-0.018393 -0.116045 0)
(-0.0186127 -0.118096 0)
(-0.0183047 -0.119285 0)
(-0.0185133 -0.121368 0)
(-0.0181941 -0.122402 0)
(-0.0183929 -0.124507 0)
(-0.018063 -0.125401 0)
(-0.0178708 -0.123271 0)
(-0.0177297 -0.126157 0)
(-0.0179112 -0.128309 0)
(-0.0175699 -0.128934 0)
(-0.0177386 -0.131124 0)
(-0.0173898 -0.13159 0)
(-0.0175477 -0.133848 0)
(-0.0171859 -0.134129 0)
(-0.0173246 -0.136359 0)
(-0.0169573 -0.13654 0)
(-0.0170707 -0.138665 0)
(-0.0167164 -0.138793 0)
(-0.0167972 -0.140853 0)
(-0.0164493 -0.140838 0)
(-0.0165054 -0.142925 0)
(-0.0161458 -0.142736 0)
(-0.016189 -0.144898 0)
(-0.0158179 -0.144585 0)
(-0.0158451 -0.146714 0)
(-0.0154678 -0.146323 0)
(-0.0154771 -0.148384 0)
(-0.0150955 -0.14791 0)
(-0.0150831 -0.149928 0)
(-0.0146972 -0.149365 0)
(-0.014656 -0.151379 0)
(-0.0142705 -0.15069 0)
(-0.0141972 -0.152694 0)
(-0.0138177 -0.151858 0)
(-0.0137133 -0.153855 0)
(-0.0133344 -0.152904 0)
(-0.0132048 -0.154889 0)
(-0.0128234 -0.153861 0)
(-0.0126736 -0.155787 0)
(-0.0123038 -0.154713 0)
(-0.0121241 -0.156567 0)
(-0.0117829 -0.155436 0)
(-0.0115605 -0.157233 0)
(-0.0112433 -0.156007 0)
(-0.0109761 -0.157709 0)
(-0.0106849 -0.156424 0)
(-0.0103785 -0.158022 0)
(-0.0101207 -0.156712 0)
(-0.00978055 -0.158252 0)
(-0.00955129 -0.156883 0)
(-0.00918948 -0.15836 0)
(-0.0089805 -0.156927 0)
(-0.0085993 -0.158339 0)
(-0.00841008 -0.156882 0)
(-0.00800261 -0.158222 0)
(-0.0078456 -0.156734 0)
(-0.00741072 -0.157959 0)
(-0.00728928 -0.156474 0)
(-0.00683683 -0.157563 0)
(-0.00674989 -0.156071 0)
(-0.00627689 -0.157089 0)
(-0.00622003 -0.15556 0)
(-0.00572811 -0.156517 0)
(-0.00569951 -0.154982 0)
(-0.00520336 -0.155833 0)
(-0.00520483 -0.15429 0)
(-0.00567309 -0.153431 0)
(-0.00519629 -0.152741 0)
(-0.0093029 -0.155364 0)
(-0.012958 -0.15181 0)
(-0.0161365 -0.140469 0)
(-0.0175419 -0.124017 0)
(-0.00565564 -0.15186 0)
(-0.00517718 -0.151172 0)
(-0.00471574 -0.155046 0)
(-0.00562371 -0.150268 0)
(-0.00515222 -0.149578 0)
(-0.00556921 -0.148653 0)
(-0.00512169 -0.147957 0)
(-0.0055183 -0.147003 0)
(-0.00508764 -0.146308 0)
(-0.00546978 -0.145324 0)
(-0.00505124 -0.144626 0)
(-0.0054166 -0.14362 0)
(-0.00501225 -0.142914 0)
(-0.00464001 -0.143855 0)
(-0.00461882 -0.142125 0)
(-0.00424068 -0.142987 0)
(-0.00423728 -0.141248 0)
(-0.00459445 -0.140385 0)
(-0.00422856 -0.139499 0)
(-0.00385896 -0.142019 0)
(-0.00456666 -0.138629 0)
(-0.00421371 -0.137727 0)
(-0.00453575 -0.136842 0)
(-0.00419186 -0.13593 0)
(-0.0045068 -0.135013 0)
(-0.00416703 -0.134105 0)
(-0.00446659 -0.133136 0)
(-0.00413665 -0.132256 0)
(-0.00441646 -0.131247 0)
(-0.00409832 -0.130378 0)
(-0.00436755 -0.129344 0)
(-0.00405913 -0.128478 0)
(-0.00378982 -0.129433 0)
(-0.00376121 -0.127534 0)
(-0.00348542 -0.128437 0)
(-0.00347218 -0.126504 0)
(-0.00319246 -0.127319 0)
(-0.00319146 -0.125399 0)
(-0.00346034 -0.124599 0)
(-0.00318201 -0.123493 0)
(-0.00344208 -0.122653 0)
(-0.0031718 -0.121549 0)
(-0.0029135 -0.126117 0)
(-0.00342101 -0.12068 0)
(-0.0031595 -0.119586 0)
(-0.00339137 -0.118684 0)
(-0.00313868 -0.117608 0)
(-0.00335323 -0.116672 0)
(-0.00311267 -0.115607 0)
(-0.0033124 -0.114645 0)
(-0.00308312 -0.113589 0)
(-0.00288302 -0.114474 0)
(-0.00286374 -0.112459 0)
(-0.00266483 -0.113265 0)
(-0.00265547 -0.111265 0)
(-0.00284193 -0.110436 0)
(-0.00264565 -0.109254 0)
(-0.00281323 -0.108386 0)
(-0.00259693 -0.107121 0)
(-0.00278126 -0.106333 0)
(-0.00259516 -0.105147 0)
(-0.00244419 -0.109929 0)
(-0.00275102 -0.104305 0)
(-0.00256878 -0.103173 0)
(-0.00271549 -0.102249 0)
(-0.0025388 -0.10113 0)
(-0.00267669 -0.100176 0)
(-0.00250563 -0.0990727 0)
(-0.00467679 -0.156575 0)
(-0.00263356 -0.0980909 0)
(-0.00246972 -0.0970063 0)
(-0.00234126 -0.0979082 0)
(-0.0023121 -0.095857 0)
(-0.00218103 -0.0966727 0)
(-0.002157 -0.0946455 0)
(-0.0022807 -0.0938117 0)
(-0.00213198 -0.0926413 0)
(-0.00224707 -0.0917719 0)
(-0.00210379 -0.0906423 0)
(-0.00200661 -0.0934046 0)
(-0.0022116 -0.0897302 0)
(-0.00207599 -0.088614 0)
(-0.00217413 -0.087679 0)
(-0.00204562 -0.0865655 0)
(-0.00213405 -0.0856308 0)
(-0.00201143 -0.0845341 0)
(-0.00209241 -0.0835895 0)
(-0.00197468 -0.0825172 0)
(-0.00204887 -0.0815562 0)
(-0.00193638 -0.0805148 0)
(-0.00186169 -0.0813925 0)
(-0.00182869 -0.0794167 0)
(-0.00175375 -0.080213 0)
(-0.00172554 -0.078265 0)
(-0.00179454 -0.077458 0)
(-0.00169566 -0.0763305 0)
(-0.00162674 -0.0770661 0)
(-0.00160114 -0.0751593 0)
(-0.00166435 -0.0744099 0)
(-0.00157381 -0.0732693 0)
(-0.00163164 -0.0725035 0)
(-0.00154496 -0.0713932 0)
(-0.00159757 -0.0706115 0)
(-0.00151487 -0.0695322 0)
(-0.00146206 -0.0702399 0)
(-0.00143564 -0.0684099 0)
(-0.00148368 -0.0676893 0)
(-0.00140801 -0.0665976 0)
(-0.00145164 -0.0658658 0)
(-0.00137933 -0.0648034 0)
(-0.00141877 -0.0640603 0)
(-0.00134964 -0.0630285 0)
(-0.0013099 -0.0637013 0)
(-0.00128331 -0.0619571 0)
(-0.00131914 -0.0612727 0)
(-0.0012558 -0.060232 0)
(-0.00128803 -0.0595374 0)
(-0.0012275 -0.0585265 0)
(-0.00125639 -0.0578221 0)
(-0.00119856 -0.0568414 0)
(-0.00116921 -0.0574791 0)
(-0.00114286 -0.0558234 0)
(-0.00116912 -0.0551771 0)
(-0.00111589 -0.0541891 0)
(-0.00113924 -0.053534 0)
(-0.00108837 -0.052576 0)
(-0.00110896 -0.0519126 0)
(-0.0010604 -0.050983 0)
(-0.00103941 -0.0515851 0)
(-0.00101351 -0.050017 0)
(-0.00103215 -0.049411 0)
(-0.000987292 -0.0484724 0)
(-0.00100361 -0.0478587 0)
(-0.000960736 -0.0469503 0)
(-0.00419816 -0.155693 0)
(-0.00412543 -0.157192 0)
(-0.00364849 -0.156237 0)
(-0.0035451 -0.157718 0)
(-0.000974887 -0.0463297 0)
(-0.000934237 -0.0454555 0)
(-0.000919233 -0.0460118 0)
(-0.000895031 -0.0445515 0)
(-0.000908595 -0.0439915 0)
(-0.000878816 -0.0450252 0)
(-0.000857027 -0.0436035 0)
(-0.000840119 -0.0439739 0)
(-0.000819763 -0.0426158 0)
(-0.0174169 -0.138694 0)
(-0.00468727 -0.130135 0)
(-0.00216567 -0.0825505 0)
(-0.00280493 -0.0991178 0)
(-0.0094088 -0.1597 0)
(-0.0158698 -0.148794 0)
(-0.0125025 -0.157592 0)
(-0.0035527 -0.115634 0)
(-0.0247945 -0.108716 0)
(-0.0249092 -0.112594 0)
(-0.0247257 -0.112974 0)
(-0.0248335 -0.116854 0)
(-0.0246385 -0.117062 0)
(-0.0247383 -0.120865 0)
(-0.0249352 -0.120736 0)
(-0.0248291 -0.12466 0)
(-0.0246246 -0.124671 0)
(-0.0247059 -0.128377 0)
(-0.024492 -0.128266 0)
(-0.0245614 -0.131927 0)
(-0.025016 -0.124621 0)
(-0.0243369 -0.131657 0)
(-0.0243924 -0.13528 0)
(-0.0241575 -0.134834 0)
(-0.0241994 -0.138393 0)
(-0.0239562 -0.137794 0)
(-0.0239858 -0.141221 0)
(-0.0242338 -0.141886 0)
(-0.0240074 -0.144559 0)
(-0.0242597 -0.14527 0)
(-0.0240184 -0.147797 0)
(-0.0242741 -0.148565 0)
(-0.0240161 -0.150943 0)
(-0.0237541 -0.150093 0)
(-0.0237348 -0.153096 0)
(-0.0242791 -0.151764 0)
(-0.0234667 -0.152134 0)
(-0.0234251 -0.155039 0)
(-0.023922 -0.134239 0)
(-0.0231567 -0.153921 0)
(-0.0230884 -0.156751 0)
(-0.0228238 -0.155497 0)
(-0.0227309 -0.158219 0)
(-0.0229938 -0.15954 0)
(-0.0226118 -0.160855 0)
(-0.0228711 -0.162192 0)
(-0.0224643 -0.163348 0)
(-0.0227208 -0.164667 0)
(-0.0222871 -0.16566 0)
(-0.0225396 -0.166977 0)
(-0.0220795 -0.167813 0)
(-0.0223213 -0.16921 0)
(-0.0218315 -0.169845 0)
(-0.0220694 -0.1713 0)
(-0.0215485 -0.171753 0)
(-0.0217809 -0.173178 0)
(-0.0212279 -0.173474 0)
(-0.0214201 -0.174887 0)
(-0.0207566 -0.175016 0)
(-0.020993 -0.176441 0)
(-0.0203466 -0.176545 0)
(-0.0205167 -0.177873 0)
(-0.019838 -0.177795 0)
(-0.0199476 -0.179147 0)
(-0.019244 -0.178949 0)
(-0.0192906 -0.180247 0)
(-0.0185529 -0.179964 0)
(-0.0185516 -0.181209 0)
(-0.0178005 -0.180856 0)
(-0.0177249 -0.182036 0)
(-0.0169874 -0.181616 0)
(-0.0168068 -0.182727 0)
(-0.0160728 -0.182233 0)
(-0.0157925 -0.183289 0)
(-0.0150663 -0.182736 0)
(-0.0146751 -0.183738 0)
(-0.0139678 -0.183135 0)
(-0.0134555 -0.184079 0)
(-0.0127872 -0.183437 0)
(-0.0121634 -0.184301 0)
(-0.0115715 -0.183631 0)
(-0.0108244 -0.184408 0)
(-0.0103384 -0.183694 0)
(-0.00945094 -0.184406 0)
(-0.00907073 -0.183626 0)
(-0.00805182 -0.184299 0)
(-0.0077728 -0.183468 0)
(-0.0066561 -0.184102 0)
(-0.0197353 -0.176393 0)
(-0.0163563 -0.18107 0)
(-0.00650543 -0.183251 0)
(-0.0100855 -0.182964 0)
(-0.0216088 -0.168329 0)
(-0.0223216 -0.172774 0)
(-0.0224741 -0.156845 0)
(-0.00583149 -0.144241 0)
(-0.0084844 -0.185101 0)
(-0.0147286 -0.147401 0)
(-0.0207318 -0.179337 0)
(-0.0141987 -0.184701 0)
(-0.0225667 -0.154187 0)
(-0.0222125 -0.15553 0)
(-0.0223148 -0.152827 0)
(-0.0219506 -0.154256 0)
(-0.0220599 -0.151437 0)
(-0.0217 -0.152876 0)
(-0.0218112 -0.150047 0)
(-0.0214551 -0.151444 0)
(-0.0215732 -0.148631 0)
(-0.0212191 -0.149976 0)
(-0.0213493 -0.14718 0)
(-0.0210759 -0.152691 0)
(-0.0208445 -0.151176 0)
(-0.0206777 -0.153813 0)
(-0.0204534 -0.152246 0)
(-0.0202622 -0.154773 0)
(-0.0200513 -0.153141 0)
(-0.0198345 -0.155547 0)
(-0.00289641 -0.127982 0)
(-0.00262412 -0.126732 0)
(-0.0196366 -0.153886 0)
(-0.0193972 -0.156173 0)
(-0.0198519 -0.151464 0)
(-0.0184899 -0.182419 0)
(-0.0146014 -0.153388 0)
(-0.0187171 -0.123465 0)
(-0.00753092 -0.159633 0)
(-0.00765608 -0.15521 0)
(-0.00168396 -0.0716467 0)
(-0.00101701 -0.0471754 0)
(-0.000798469 -0.0412091 0)
(-0.00115955 -0.0528074 0)
(-0.00131623 -0.058765 0)
(-0.00153256 -0.0758207 0)
(-0.00124355 -0.0625691 0)
(-0.00111333 -0.0563961 0)
(-0.00230641 -0.0887375 0)
(-0.00462272 -0.128211 0)
(-0.00494288 -0.128912 0)
(-0.00485971 -0.126958 0)
(-0.00517991 -0.127566 0)
(-0.00508062 -0.12559 0)
(-0.00539817 -0.126103 0)
(-0.00528418 -0.124082 0)
(-0.00559794 -0.124533 0)
(-0.00547434 -0.122524 0)
(-0.0057736 -0.122825 0)
(-0.00562288 -0.120808 0)
(-0.00592279 -0.120978 0)
(-0.00574897 -0.118877 0)
(-0.0060645 -0.119075 0)
(-0.00588421 -0.116925 0)
(-0.00624275 -0.117128 0)
(-0.00599113 -0.114837 0)
(-0.00629017 -0.114664 0)
(-0.00605884 -0.112616 0)
(-0.00633251 -0.112413 0)
(-0.00611186 -0.110329 0)
(-0.00637629 -0.110098 0)
(-0.00615957 -0.107976 0)
(-0.00660026 -0.112117 0)
(-0.00663408 -0.109728 0)
(-0.00687125 -0.111719 0)
(-0.00688855 -0.109215 0)
(-0.00714054 -0.111219 0)
(-0.00713811 -0.108617 0)
(-0.00740111 -0.110567 0)
(-0.00737604 -0.107854 0)
(-0.0076554 -0.109764 0)
(-0.00761007 -0.106944 0)
(-0.00730821 -0.104751 0)
(-0.00790553 -0.108837 0)
(-0.00783233 -0.105902 0)
(-0.00814439 -0.107722 0)
(-0.00803938 -0.104658 0)
(-0.00836313 -0.10643 0)
(-0.00824178 -0.103319 0)
(-0.00856952 -0.105037 0)
(-0.00842974 -0.101837 0)
(-0.0087648 -0.103505 0)
(-0.00860038 -0.100211 0)
(-0.00894559 -0.101835 0)
(-0.00826208 -0.0985428 0)
(-0.00870053 -0.10814 0)
(-0.00875568 -0.0984433 0)
(-0.00910883 -0.100002 0)
(-0.00889362 -0.0965185 0)
(-0.009253 -0.0980117 0)
(-0.00946871 -0.101467 0)
(-0.00961762 -0.0994043 0)
(-0.00983409 -0.102797 0)
(-0.00998683 -0.100679 0)
(-0.00974578 -0.0972541 0)
(-0.010119 -0.098448 0)
(-0.010203 -0.104017 0)
(-0.00985219 -0.0949788 0)
(-0.0102285 -0.0960764 0)
(-0.00993448 -0.092543 0)
(-0.0103144 -0.0935506 0)
(-0.00999304 -0.0899408 0)
(-0.0103763 -0.0908837 0)
(-0.0106998 -0.0944469 0)
(-0.010762 -0.0917078 0)
(-0.0110877 -0.0952017 0)
(-0.0111479 -0.0923777 0)
(-0.0107987 -0.0888595 0)
(-0.0111826 -0.0894204 0)
(-0.0114749 -0.0957749 0)
(-0.0108094 -0.0858884 0)
(-0.0111938 -0.0863219 0)
(-0.00767595 -0.112505 0)
(-0.00589949 -0.108165 0)
(-0.00594213 -0.105803 0)
(-0.00569453 -0.106021 0)
(-0.00572158 -0.103613 0)
(-0.0107884 -0.0827575 0)
(-0.0111764 -0.0830852 0)
(-0.00549218 -0.103853 0)
(-0.00550655 -0.101407 0)
(-0.00529298 -0.101643 0)
(-0.00529944 -0.0991839 0)
(-0.00509708 -0.0994193 0)
(-0.00509781 -0.096942 0)
(-0.00490622 -0.0971779 0)
(-0.00490104 -0.0946906 0)
(-0.00508099 -0.0943497 0)
(-0.0048774 -0.09209 0)
(-0.00504548 -0.0916395 0)
(-0.00483448 -0.0893692 0)
(-0.00498907 -0.0888036 0)
(-0.00477265 -0.0865233 0)
(-0.00462971 -0.0871012 0)
(-0.00456368 -0.084235 0)
(-0.00443027 -0.0848195 0)
(-0.0043618 -0.0818896 0)
(-0.00423634 -0.0825275 0)
(-0.00416443 -0.0795696 0)
(-0.00404807 -0.0802459 0)
(-0.00397267 -0.0773008 0)
(-0.00386491 -0.0779645 0)
(-0.00378633 -0.075021 0)
(-0.00368687 -0.0756878 0)
(-0.00360582 -0.0727473 0)
(-0.00351367 -0.0734172 0)
(-0.00343127 -0.0704898 0)
(-0.00334573 -0.0711553 0)
(-0.00326277 -0.0682466 0)
(-0.0031846 -0.0689218 0)
(-0.00491102 -0.0857987 0)
(-0.00309998 -0.0660123 0)
(-0.00302902 -0.0666879 0)
(-0.00294332 -0.0638021 0)
(-0.0028783 -0.0643778 0)
(-0.00279286 -0.0616314 0)
(-0.00273563 -0.062212 0)
(-0.00408126 -0.0764663 0)
(-0.00264824 -0.0595008 0)
(-0.00259913 -0.0601579 0)
(-0.00250888 -0.0573673 0)
(-0.00246392 -0.0580929 0)
(-0.00237481 -0.055276 0)
(-0.00233372 -0.0559872 0)
(-0.00224581 -0.0532005 0)
(-0.00221014 -0.0539185 0)
(-0.00212213 -0.0511603 0)
(-0.00209131 -0.0518809 0)
(-0.00333551 -0.0674165 0)
(-0.00200241 -0.049141 0)
(-0.00197728 -0.0498771 0)
(-0.00205479 -0.0524721 0)
(-0.00194584 -0.0504741 0)
(-0.00186915 -0.0479215 0)
(-0.00184153 -0.0485205 0)
(-0.0017658 -0.0459991 0)
(-0.00174166 -0.0466059 0)
(-0.00180976 -0.049024 0)
(-0.00171373 -0.0471215 0)
(-0.00164614 -0.044734 0)
(-0.00162173 -0.0452585 0)
(-0.00155477 -0.0429007 0)
(-0.00153364 -0.0434295 0)
(-0.00146734 -0.0411042 0)
(-0.00144936 -0.0416375 0)
(-0.00138371 -0.0393452 0)
(-0.00136878 -0.0398868 0)
(-0.00142848 -0.042085 0)
(-0.00135092 -0.0403445 0)
(-0.0012918 -0.0381789 0)
(-0.00127671 -0.0386459 0)
(-0.00121836 -0.0365144 0)
(-0.00120587 -0.0369909 0)
(-0.0011484 -0.0348955 0)
(-0.00113829 -0.0353799 0)
(-0.00119069 -0.0373851 0)
(-0.00112546 -0.0357786 0)
(-0.00107392 -0.0338142 0)
(-0.00106321 -0.0342171 0)
(-0.00101256 -0.0322908 0)
(-0.00100383 -0.0327007 0)
(-0.000954059 -0.0308087 0)
(-0.000947181 -0.0312246 0)
(-0.000992513 -0.0330293 0)
(-0.000937686 -0.0315544 0)
(-0.000893176 -0.0297899 0)
(-0.000885713 -0.0301357 0)
(-0.000842134 -0.0284036 0)
(-0.000835609 -0.02873 0)
(-0.000875926 -0.0303984 0)
(-0.000827299 -0.0289989 0)
(-0.000780573 -0.0270991 0)
(-0.000780627 -0.0276482 0)
(-0.000817822 -0.0292132 0)
(-0.000773309 -0.0278988 0)
(-0.000738685 -0.0264483 0)
(-0.00073075 -0.0266105 0)
(-0.000761038 -0.0279692 0)
(-0.000721102 -0.0267251 0)
(-0.000689814 -0.0253438 0)
(-0.00068198 -0.0254854 0)
(-0.000710884 -0.0268139 0)
(-0.000672992 -0.0255788 0)
(-0.000698969 -0.0268273 0)
(-0.000662411 -0.0256027 0)
(-0.000635882 -0.0243518 0)
(-0.00062661 -0.0243884 0)
(-0.000650712 -0.0255688 0)
(-0.000616135 -0.0243664 0)
(-0.000637729 -0.0254659 0)
(-0.000604458 -0.0242843 0)
(-0.000582419 -0.0231776 0)
(-0.000571878 -0.0231077 0)
(-0.000591928 -0.0241587 0)
(-0.000560416 -0.0229888 0)
(-0.000578798 -0.0239935 0)
(-0.000548044 -0.0228193 0)
(-0.000529759 -0.0218262 0)
(-0.000518106 -0.0216579 0)
(-0.000534955 -0.0226052 0)
(-0.000505826 -0.0214538 0)
(-0.000488909 -0.0205128 0)
(-0.000521251 -0.0223495 0)
(-0.000492973 -0.0212069 0)
(-0.000507047 -0.0220531 0)
(-0.00047971 -0.0209232 0)
(-0.000492412 -0.0217171 0)
(-0.000465822 -0.0205917 0)
(-0.000477319 -0.0213405 0)
(-0.000451149 -0.0202077 0)
(-0.000462136 -0.0209439 0)
(-0.000435814 -0.0197732 0)
(-0.000425042 -0.0190591 0)
(-0.000446116 -0.0204889 0)
(-0.000420399 -0.019318 0)
(-0.000429544 -0.0199838 0)
(-0.000404938 -0.0188442 0)
(-0.000412908 -0.0194559 0)
(-0.000388817 -0.0183169 0)
(-0.000395893 -0.018887 0)
(-0.000454445 -0.0211429 0)
(-0.000519768 -0.0228667 0)
(-0.000372027 -0.0177356 0)
(-0.000378671 -0.0182856 0)
(-0.000364736 -0.0171706 0)
(-0.00177498 -0.0494409 0)
(-0.00269336 -0.0586794 0)
(-0.000355312 -0.0171391 0)
(-0.000361457 -0.0176635 0)
(-0.000384249 -0.0188013 0)
(-0.000366469 -0.0181481 0)
(-0.000388773 -0.0192849 0)
(-0.000370446 -0.0185999 0)
(-0.00255983 -0.061222 0)
(-0.000348685 -0.0174718 0)
(-0.000352163 -0.0178929 0)
(-0.0107372 -0.0794776 0)
(-0.0111249 -0.0797285 0)
(-0.0115673 -0.0832491 0)
(-0.0115106 -0.0798345 0)
(-0.0119587 -0.0832203 0)
(-0.0118934 -0.0797707 0)
(-0.0123418 -0.0830258 0)
(-0.0122716 -0.0794899 0)
(-0.0127156 -0.0826936 0)
(-0.0126417 -0.0789741 0)
(-0.0121698 -0.0758654 0)
(-0.012536 -0.0751416 0)
(-0.0129837 -0.0781946 0)
(-0.0128956 -0.0742697 0)
(-0.0124077 -0.071242 0)
(-0.0127638 -0.0702367 0)
(-0.0132609 -0.0731376 0)
(-0.0131154 -0.0690285 0)
(-0.0125989 -0.066186 0)
(-0.0129424 -0.0648795 0)
(-0.013458 -0.067603 0)
(-0.0132764 -0.0633438 0)
(-0.0137885 -0.0659441 0)
(-0.0135986 -0.06154 0)
(-0.0130662 -0.0590442 0)
(-0.0133799 -0.0571039 0)
(-0.0139102 -0.0594412 0)
(-0.0136834 -0.0548821 0)
(-0.013132 -0.0526821 0)
(-0.0134278 -0.0503591 0)
(-0.013975 -0.052368 0)
(-0.013709 -0.0477549 0)
(-0.0142504 -0.0495825 0)
(-0.0139735 -0.0448504 0)
(-0.0134158 -0.0431867 0)
(-0.013669 -0.040157 0)
(-0.0142318 -0.0416072 0)
(-0.0139109 -0.036795 0)
(-0.0133425 -0.0355828 0)
(-0.000330861 -0.0167708 0)
(-0.000333931 -0.0171646 0)
(-0.00341889 -0.073909 0)
(-0.0106578 -0.0760846 0)
(-0.0102715 -0.0757702 0)
(-0.00214328 -0.0502492 0)
(-0.000392281 -0.0197376 0)
(-0.00591779 -0.12484 0)
(-0.000313036 -0.0160476 0)
(-0.00031577 -0.0164162 0)
(-0.00139553 -0.0387194 0)
(-0.0101622 -0.0722923 0)
(-0.00977878 -0.0719404 0)
(-0.000295254 -0.0153044 0)
(-0.000297716 -0.0156501 0)
(-0.000317721 -0.016758 0)
(-0.000292066 -0.014934 0)
(-0.00961455 -0.0889095 0)
(-0.00963727 -0.0683688 0)
(-0.00925581 -0.0679543 0)
(-0.00411555 -0.0830484 0)
(-0.0048937 -0.0995482 0)
(-0.00908352 -0.0642963 0)
(-0.00870028 -0.0637955 0)
(-0.0029425 -0.0670827 0)
(-0.000958398 -0.0303148 0)
(-0.00117324 -0.0376981 0)
(-0.00293636 -0.105377 0)
(-0.0170476 -0.132025 0)
(-0.019442 -0.15223 0)
(-0.0196568 -0.149754 0)
(-0.0114356 -0.15425 0)
(-0.0195911 -0.0663376 0)
(-0.024528 -0.149296 0)
(-0.0245403 -0.152528 0)
(-0.0247797 -0.150019 0)
(-0.0247999 -0.153251 0)
(-0.0250283 -0.150688 0)
(-0.0250575 -0.15387 0)
(-0.025271 -0.151272 0)
(-0.0253084 -0.154391 0)
(-0.0255086 -0.151753 0)
(-0.0255536 -0.154868 0)
(-0.0257413 -0.152103 0)
(-0.0257951 -0.155166 0)
(-0.0259659 -0.152305 0)
(-0.0260286 -0.155314 0)
(-0.0261797 -0.152422 0)
(-0.0262516 -0.155383 0)
(-0.0263834 -0.152441 0)
(-0.0264631 -0.155351 0)
(-0.026574 -0.152303 0)
(-0.0264885 -0.149365 0)
(-0.0266589 -0.149045 0)
(-0.0265673 -0.146137 0)
(-0.0267141 -0.14562 0)
(-0.0266241 -0.142769 0)
(-0.0267531 -0.14219 0)
(-0.0266622 -0.139282 0)
(-0.0267798 -0.138663 0)
(-0.0266818 -0.135695 0)
(-0.0267859 -0.134971 0)
(-0.0266847 -0.13201 0)
(-0.0267764 -0.131172 0)
(-0.0266731 -0.128204 0)
(-0.0267529 -0.127287 0)
(-0.0266502 -0.124344 0)
(-0.0267185 -0.123342 0)
(-0.0266604 -0.155169 0)
(-0.0265428 -0.158186 0)
(-0.026855 -0.130172 0)
(-0.0267451 -0.158061 0)
(-0.0266279 -0.160894 0)
(-0.0268243 -0.160943 0)
(-0.0266909 -0.163532 0)
(-0.0268993 -0.163686 0)
(-0.0267435 -0.166175 0)
(-0.0269716 -0.166338 0)
(-0.0268092 -0.168819 0)
(-0.0270983 -0.163644 0)
(-0.0271778 -0.166289 0)
(-0.0272791 -0.163484 0)
(-0.0265577 -0.168483 0)
(-0.026612 -0.171091 0)
(-0.0273643 -0.166082 0)
(-0.0274399 -0.163194 0)
(-0.0263434 -0.170676 0)
(-0.0263738 -0.17312 0)
(-0.0275315 -0.165735 0)
(-0.0275788 -0.162746 0)
(-0.0253531 -0.157533 0)
(-0.0265725 -0.136311 0)
(-0.0245343 -0.113213 0)
(-0.0216754 -0.145667 0)
(-0.021446 -0.144281 0)
(-0.0217581 -0.142568 0)
(-0.0215213 -0.14118 0)
(-0.0218165 -0.139342 0)
(-0.0215856 -0.13799 0)
(-0.0218563 -0.136003 0)
(-0.0216255 -0.134788 0)
(-0.0218829 -0.132542 0)
(-0.0216303 -0.131458 0)
(-0.0218916 -0.128973 0)
(-0.0216298 -0.12792 0)
(-0.0218847 -0.125291 0)
(-0.0213928 -0.133993 0)
(-0.0216256 -0.12427 0)
(-0.0218664 -0.121473 0)
(-0.0216059 -0.120542 0)
(-0.0218332 -0.117579 0)
(-0.0220914 -0.118374 0)
(-0.0220443 -0.114354 0)
(-0.0260914 -0.17255 0)
(-0.0260942 -0.174816 0)
(-0.0263844 -0.17545 0)
(-0.0260818 -0.176959 0)
(-0.0263804 -0.177699 0)
(-0.0260454 -0.17899 0)
(-0.0263503 -0.179847 0)
(-0.0259748 -0.180901 0)
(-0.0262891 -0.181829 0)
(-0.025865 -0.182661 0)
(-0.013285 -0.182528 0)
(-0.0276737 -0.165148 0)
(-0.027695 -0.162126 0)
(-0.0276028 -0.159762 0)
(-0.0276975 -0.159044 0)
(-0.0222982 -0.114959 0)
(-0.0222382 -0.110853 0)
(-0.0256701 -0.179865 0)
(-0.00849764 -0.0601068 0)
(-0.00811847 -0.0595341 0)
(-0.00887935 -0.0605328 0)
(-0.00557087 -0.116683 0)
(-0.0224892 -0.111294 0)
(-0.0224143 -0.10709 0)
(-0.022664 -0.10743 0)
(-0.0225715 -0.103092 0)
(-0.022321 -0.102849 0)
(-0.0224661 -0.0987082 0)
(-0.0217821 -0.113613 0)
(-0.0227109 -0.0988302 0)
(-0.022594 -0.0942936 0)
(-0.0228331 -0.0943086 0)
(-0.0227035 -0.0896644 0)
(-0.0276069 -0.156694 0)
(-0.0276829 -0.155865 0)
(-0.0261688 -0.183592 0)
(-0.0256986 -0.184247 0)
(-0.0275946 -0.153548 0)
(-0.0276555 -0.15266 0)
(-0.0277391 -0.154883 0)
(-0.0276991 -0.151674 0)
(-0.027619 -0.149481 0)
(-0.027652 -0.148493 0)
(-0.0275749 -0.14631 0)
(-0.0275985 -0.145276 0)
(-0.0275256 -0.143149 0)
(-0.0275396 -0.142016 0)
(-0.0274704 -0.139971 0)
(-0.0274764 -0.138706 0)
(-0.0274089 -0.136702 0)
(-0.0274088 -0.135357 0)
(-0.0273445 -0.133409 0)
(-0.0273394 -0.132053 0)
(-0.0272779 -0.130135 0)
(-0.02727 -0.128805 0)
(-0.0272093 -0.12686 0)
(-0.0277884 -0.164449 0)
(-0.0256839 -0.149101 0)
(-0.0222161 -0.0985388 0)
(-0.0213622 -0.123207 0)
(-0.00514002 -0.0881206 0)
(-0.00504751 -0.0850019 0)
(-0.0127601 -0.0862395 0)
(-0.0266271 -0.182904 0)
(-0.0195855 -0.157838 0)
(-0.0191225 -0.158348 0)
(-0.0192982 -0.160011 0)
(-0.0188106 -0.160411 0)
(-0.0186534 -0.158738 0)
(-0.0183208 -0.160697 0)
(-0.0184587 -0.162374 0)
(-0.0179504 -0.162542 0)
(-0.0180616 -0.164235 0)
(-0.0175388 -0.164247 0)
(-0.0176185 -0.16593 0)
(-0.0170856 -0.165806 0)
(-0.017131 -0.16745 0)
(-0.0165866 -0.167233 0)
(-0.0165962 -0.168835 0)
(-0.0160411 -0.168521 0)
(-0.016008 -0.170084 0)
(-0.0154446 -0.169682 0)
(-0.0155042 -0.168122 0)
(-0.0149027 -0.169209 0)
(-0.0147856 -0.170737 0)
(-0.0142559 -0.170174 0)
(-0.014083 -0.171664 0)
(-0.0135649 -0.171015 0)
(-0.0133444 -0.172452 0)
(-0.0128339 -0.171727 0)
(-0.0125592 -0.173102 0)
(-0.0120683 -0.1723 0)
(-0.0117358 -0.173615 0)
(-0.0112635 -0.172754 0)
(-0.0116088 -0.171446 0)
(-0.0108194 -0.17185 0)
(-0.0104129 -0.173107 0)
(-0.0099987 -0.172132 0)
(-0.00953511 -0.173349 0)
(-0.00915882 -0.172295 0)
(-0.00864714 -0.1735 0)
(-0.00831164 -0.172372 0)
(-0.00774862 -0.173502 0)
(-0.00746858 -0.172322 0)
(-0.00685353 -0.173305 0)
(-0.00664352 -0.172138 0)
(-0.0059601 -0.173039 0)
(-0.00583573 -0.171833 0)
(-0.00508285 -0.172647 0)
(-0.00501883 -0.171393 0)
(-0.0170323 -0.164143 0)
(-0.0111732 -0.170539 0)
(-0.00420479 -0.170867 0)
(-0.0149864 -0.167656 0)
(-0.0257984 -0.174108 0)
(-0.0259866 -0.185157 0)
(-0.0254599 -0.185661 0)
(-0.0251546 -0.184733 0)
(-0.0248425 -0.185993 0)
(-0.0251398 -0.186918 0)
(-0.0244292 -0.187098 0)
(-0.0247018 -0.187992 0)
(-0.0238949 -0.188046 0)
(-0.0241087 -0.188872 0)
(-0.0232316 -0.188831 0)
(-0.0233156 -0.189571 0)
(-0.022365 -0.189427 0)
(-0.0222861 -0.190096 0)
(-0.0212345 -0.18986 0)
(-0.0210016 -0.19049 0)
(-0.0198836 -0.190219 0)
(-0.0194231 -0.190805 0)
(-0.018314 -0.19049 0)
(-0.0175246 -0.191058 0)
(-0.0164534 -0.190695 0)
(-0.0150956 -0.191305 0)
(-0.0143422 -0.190845 0)
(-0.0202422 -0.189489 0)
(-0.0154748 -0.190266 0)
(-0.023041 -0.188131 0)
(-0.00528455 -0.0873105 0)
(-0.00517669 -0.0841233 0)
(-0.00542146 -0.0863623 0)
(-0.00529255 -0.0830541 0)
(-0.00554959 -0.0852736 0)
(-0.00540054 -0.0818411 0)
(-0.00514209 -0.0796163 0)
(-0.00523136 -0.0782787 0)
(-0.00497118 -0.0760441 0)
(-0.00504063 -0.0745748 0)
(-0.00477962 -0.0723392 0)