/*--------------------------------*- C++ -*----------------------------------*\
| =========                 |                                                 |
| \\      /  F ield         | OpenFOAM: The Open Source CFD Toolbox           |
|  \\    /   O peration     | Version:  v2012                                 |
|   \\  /    A nd           | Website:  www.openfoam.com                      |
|    \\/     M anipulation  |                                                 |
\*---------------------------------------------------------------------------*/
FoamFile
{
    version     2.0;
    format      ascii;
    class       volScalarField;
    location    "700";
    object      omega;
}
// * * * * * * * * * * * * * * * * * * * * * * * * * * * * * * * * * * * * * //

dimensions      [0 0 -1 0 0 0 0];


internalField   nonuniform List<scalar> 
13917
(
5.94163
0.03743
0.248629
0.0226083
0.0282738
0.0368656
0.0299278
0.0665178
0.028357
7.0888
0.0638287
0.0218776
0.0242337
0.177467
0.0275647
7.40239
0.0233928
0.0579768
0.148325
7.7447
0.0353819
0.0215653
0.0580135
0.0215647
0.023985
0.0371197
0.2486
9.59197
0.0458852
0.0204811
9.66663
0.0926462
0.0225909
3.73651
0.0217758
0.0722506
0.0244727
0.0230996
0.0299557
0.0426838
0.0216601
0.0249835
0.0256956
0.145189
0.143522
0.213413
0.0336232
11.5423
0.129977
0.0217675
0.0218295
0.139647
19.4073
0.0216845
0.021793
0.139241
4.53871
0.058055
0.0245733
0.21069
3.53425
0.0328334
0.0206523
0.0237457
0.639441
0.210785
0.0491394
0.0708962
0.0618837
6.25234
0.363918
3.77388
0.0218673
0.0239389
0.0365378
0.0244775
0.0241919
0.0236162
0.0242119
0.0226976
0.0222123
0.0237573
0.0218433
0.373274
0.0211427
0.0966311
0.0882594
0.0215383
0.0418407
0.0232612
0.0211171
0.0260362
0.128717
0.0216012
0.0222995
0.0490863
0.185966
0.0237273
0.021458
0.114983
0.0209011
0.0208549
0.0222805
0.0218995
0.0240992
1.05407
3.31682
0.0347214
0.0259367
0.275517
0.0215341
3.69948
0.0459619
10.234
0.552208
0.0249793
0.140542
0.0210965
0.219931
0.021736
0.0235248
0.0227619
0.0526387
0.119507
5.9039
0.3853
0.0235259
0.0384394
0.0211459
0.121439
0.0404748
0.173874
3.66396
0.0248994
0.108211
0.263627
3.53926
5.89804
0.0392436
0.023068
0.82677
0.0231621
1.02445
0.0211098
0.0217549
0.0303572
0.366047
0.605173
12.0909
0.0217372
0.0384501
0.0207076
0.021722
0.0217485
0.220033
0.0221392
0.0218251
3.97839
0.0215836
0.0212888
0.0211027
1.45374
0.0264018
0.810584
2.76458
0.139006
26.814
6.52622
0.0196305
0.0414588
0.021678
3.34301
0.02832
2.39767
0.0845517
0.0209223
0.0226176
0.151443
0.0391337
0.0270051
0.0254762
0.0215943
0.0218251
0.206501
0.220633
0.173747
0.0217846
0.20533
0.0204459
0.0863955
0.0843315
0.133354
0.170135
5.46289
0.0215849
5.6921
0.0276454
3.46545
0.0217607
0.0219376
0.0315234
5.91747
7.34057
0.0239131
0.255157
0.035496
0.0392149
0.0231654
0.149616
0.0222065
0.0209142
0.035967
0.0399691
11.7105
0.104899
0.0390184
2.44754
0.0222721
0.0208062
0.0207903
8.27471
0.185595
0.224654
0.0213573
0.0208593
0.481861
6.67748
0.0206491
0.0206129
0.0217668
0.0208673
0.0208528
3.87524
5.49435
0.0217702
0.0196631
0.0937256
3.96786
0.0221525
0.0213541
0.258093
1.36206
0.194167
2.62135
0.113757
0.0211174
3.69694
0.0976073
0.04346
0.100713
0.0236379
6.65876
0.0217592
0.0484616
0.0770308
0.0218692
0.0218641
0.0237272
0.0261842
0.02247
4.40927
0.184352
0.0226228
0.020586
0.0222569
0.020589
0.0217657
0.0242258
0.0446189
0.0230684
4.92797
3.25075
0.0215272
0.0244726
0.236809
0.0206949
0.0953756
4.14942
0.0207119
4.73348
0.0224105
1.33354
0.0210033
0.0260791
0.021937
0.0210753
0.183778
0.0228148
0.154961
0.0307935
0.343088
0.0315765
0.219738
6.16505
0.0214841
0.0655389
0.0268813
0.0252824
0.0276491
0.0241804
0.021816
0.022553
0.147983
0.0248698
0.0469145
0.0239567
0.0213377
3.79565
9.41933
0.0211182
0.0247693
0.0253468
0.737979
0.173269
3.29327
2.29784
0.222685
0.152828
0.0241248
0.369061
0.77304
0.249092
0.0241304
0.0272828
0.24504
0.0218976
0.0396656
0.131738
0.0229267
3.25784
0.0211825
0.0554224
0.0211295
24.8138
0.0208069
0.0442434
0.0362361
0.216345
0.0227672
0.101456
0.501572
0.0222006
0.0218883
3.6788
0.634831
0.565437
0.175273
0.020658
0.0217602
1.72802
0.154682
0.020677
0.0276601
0.0217541
0.0562643
0.0457597
0.140344
0.105938
0.0955745
0.0543641
3.72494
0.0211677
0.0222161
0.0302297
0.209729
0.0224826
6.52223
0.054164
0.061709
0.0218385
0.133249
0.0248597
0.120244
0.0248007
0.225042
0.238336
0.0384643
0.021555
0.32937
0.0214458
2.73592
0.180833
0.0247777
0.121196
0.0222876
0.0310636
0.0210031
6.78624
0.0317096
0.0239742
0.580777
0.0837545
0.0232213
2.18357
0.289566
0.0235341
0.186943
0.0216871
0.0839964
0.244295
0.0212043
0.0292694
0.0239527
0.0210689
0.020914
0.0211905
5.20729
0.136594
0.022006
0.021262
0.0214239
0.0626605
0.0747065
0.020828
0.0196364
0.170582
0.131279
0.0210965
0.0238239
0.943922
0.260636
0.236205
0.156126
0.358382
0.0218513
0.020759
0.0320065
0.0209074
0.0208514
0.0218462
0.0207865
0.0217227
4.37383
0.0217435
0.0465186
4.6602
0.0645425
0.0209262
0.021694
1.98047
0.0315074
7.04669
0.0210141
0.0213455
0.021571
0.0209281
0.0243028
0.0224667
0.817914
0.0302537
1.40591
0.0213395
0.0442978
0.0316522
0.0221126
0.112436
0.492294
0.0217121
0.600487
0.0209431
0.0212801
0.0213792
0.0223138
0.0208792
0.0219707
3.84102
2.58206
0.0208656
0.221727
0.166651
0.0218553
0.0709328
0.104597
2.64965
0.0305793
0.886423
0.0375914
0.0364989
0.0224938
0.205665
0.0332861
0.0234577
0.345001
0.0213469
0.0216342
0.022312
0.0287914
0.0350471
0.20275
0.0705137
0.031029
0.0251522
0.0571909
0.061114
0.022003
0.256818
0.0443417
0.030853
2.62007
0.0211513
0.0639504
0.165353
0.0208386
4.38135
0.0213673
0.0209243
0.064622
0.0210334
0.0221081
0.144481
4.28459
1.09642
0.0211025
0.0229795
0.0304599
0.316688
0.304056
0.0218751
0.0217446
0.0210868
0.0714317
0.530328
0.0212308
0.0223085
0.0218632
0.021055
0.0264613
0.0317772
0.021705
0.0713231
0.0208423
0.0214673
0.0237603
3.41141
0.0204899
0.0250501
0.0224101
0.04225
0.084828
0.0572592
0.0803388
0.12365
0.0233984
0.0527862
3.22007
4.27778
4.41435
0.0210964
0.0213362
0.0326171
0.0214352
0.712259
0.0207638
0.785858
0.0276629
1.91105
0.105617
0.0256792
8.81749
0.020865
0.088444
0.0234429
0.0260863
2.36647
0.0209106
0.252165
0.0208598
0.0227807
0.0213769
0.199014
0.027035
0.020477
0.147667
0.0692936
0.65823
0.356978
3.79316
2.66831
0.0204963
6.57601
0.0202172
3.22472
0.599525
0.0292728
0.0252143
0.0208353
0.0431671
0.0250469
0.0209357
0.0233844
0.0238081
0.353136
0.0211512
0.083038
0.0215921
0.0204504
0.0214999
0.196613
0.389417
20.6427
0.0940547
0.0316716
0.293774
3.94347
0.021084
0.36075
0.0236377
0.142504
0.0214273
0.32249
0.0210397
0.026532
0.021789
0.651397
0.0452724
0.95656
0.0218366
0.0423451
0.0215433
0.0210994
3.64602
0.131165
0.0217933
0.151681
0.0213375
0.0259216
0.0208836
3.57518
0.0211563
0.0268521
0.0207435
0.021697
0.209763
0.0207987
0.143863
0.0240658
0.0208189
3.9194
0.0857145
0.021803
19.6136
0.247707
0.0660593
0.16697
0.0208517
0.0284479
3.47106
0.285338
0.0308454
0.0245028
0.0268367
0.0236591
0.0211506
0.240066
0.0910062
0.0262846
3.0207
0.0461021
0.0833982
0.321488
0.020297
0.0422827
0.167221
4.3467
0.0217952
0.0300003
0.242764
0.0208276
0.0220039
0.0213755
0.0312784
0.0221915
6.29124
0.0447533
0.0213333
0.122844
0.0217033
3.2445
0.0224595
0.0211541
4.39853
0.0800672
0.343405
0.0219546
0.0222142
0.0212047
0.0224709
0.0324454
0.0210621
6.64923
0.0334961
0.572034
0.320353
0.030416
3.78791
0.0229806
0.0228928
0.0216173
4.09782
0.943089
0.0281699
6.36648
0.767961
0.020815
0.021139
0.0242949
0.590071
0.133448
0.0454817
0.022415
0.0250365
0.147351
0.0235868
0.140368
0.0448466
0.0222112
0.0227244
0.0229455
0.0322268
0.0250983
0.302373
0.0256939
0.0260736
6.32599
0.022578
0.766016
0.0241679
0.03276
0.0276001
0.270754
0.0234377
0.0828523
0.355538
0.223907
0.0214644
0.0257305
0.0224876
0.0213382
0.0217642
0.0311969
0.031413
0.192688
0.143778
0.0208366
0.318197
0.0282659
0.0288371
0.156569
0.021844
0.0886315
0.180784
0.0204112
0.0802067
0.0976354
0.0442963
0.0210094
0.0208926
0.0211464
7.67407
0.0225194
0.0230063
0.0545534
0.0210815
0.0209693
0.133296
0.15745
0.0368708
0.267345
0.0520792
2.04126
0.0217712
0.0246532
0.278862
0.0298273
0.0411163
0.0227535
0.0219567
0.0219144
0.026176
0.060119
0.0210096
0.0298319
0.0217275
0.617447
0.0242382
0.03057
0.02114
0.101177
0.026355
1.11177
0.0379326
0.0235798
3.35481
0.0228271
4.53073
0.0247188
0.0546193
0.0231851
0.0210757
0.0214447
3.0119
0.031967
0.0689322
0.253713
0.0213321
0.0446146
0.019654
0.0293128
0.530239
0.0196802
3.70046
0.0252202
0.0552475
0.136217
0.62515
0.0207436
0.0219723
0.115272
0.0208519
0.0216332
0.023306
0.0212953
0.0546094
0.0207123
0.0892847
0.0222046
6.11744
4.65229
0.645782
1.82936
0.596421
8.60825
0.747525
0.0207725
0.0257846
0.0216163
0.0227739
0.021088
0.0322077
0.0211766
0.0761352
0.0216802
0.343461
0.0224051
0.0379685
0.100668
0.0211844
0.0459111
0.0228213
0.025946
0.028294
0.0214351
3.95668
0.0971074
0.04538
0.0211274
0.0215173
0.0217469
0.021791
2.63537
0.0207889
0.131003
0.0210301
0.0415706
0.0256894
0.0211305
0.0859908
0.0315921
0.0207989
0.330148
0.362222
0.0242559
0.101704
0.0208623
0.114133
0.0218806
0.0217921
3.99309
0.0226519
0.0227231
0.120748
4.2685
0.0222575
0.738108
0.307227
0.0253243
0.0228031
0.021335
0.351448
0.0214851
0.156809
0.0217663
4.39131
0.0260832
0.338612
0.0212532
0.0205185
0.0330557
0.0224707
0.0226615
2.97245
0.0231328
0.0209011
0.791328
0.0252818
0.0257598
0.0904816
0.0233952
0.718542
0.0437994
0.103677
0.160172
0.0249131
4.25494
0.0224421
0.085006
0.0213901
4.4625
0.0396632
0.0220417
0.021919
0.0246616
0.021885
0.0216999
0.0219523
0.0227367
0.0214352
0.0324131
0.0204104
0.0229375
0.0972829
2.90068
1.37339
0.112276
0.0217587
0.0334766
0.0211391
0.27694
0.528866
29.2763
0.0208525
0.0207807
0.0216622
0.0215255
0.0208118
0.0215853
0.0212243
0.044058
0.0209066
16.5893
0.782887
0.020923
2.82693
0.0214014
0.0211912
0.0344009
3.52524
0.0662663
0.0210672
0.333507
0.0215376
0.0212344
0.33249
0.0259427
0.212527
0.0228517
0.0590696
0.0209264
0.0229114
0.0319424
0.463351
0.023287
3.86845
0.0283265
0.022787
0.0230873
0.0215177
0.0208787
0.126005
0.0432015
0.0260621
4.09142
11.0753
0.312089
0.133264
0.0226235
4.22786
0.0227613
2.02508
0.0750955
0.0294034
0.023037
0.919973
1.63049
0.377584
0.0230565
0.632647
0.0217009
0.0211851
0.0454225
0.0221242
0.0217303
0.190675
4.54249
0.0229143
0.0315886
4.02972
0.0208633
0.0206801
0.795355
2.95768
0.0226311
0.0203229
0.0291315
0.0216631
0.0212175
0.031434
0.0256805
0.0215919
0.586729
0.02303
0.0346268
0.528827
0.0285632
4.34654
0.0219978
0.0223289
0.0266778
4.28892
0.0296419
0.0252264
0.0327499
0.0222779
0.0228888
0.0223272
1.12602
0.0384876
0.0220505
0.0685249
0.0210807
0.222544
0.0979504
0.157085
0.0816956
0.247294
0.0927713
0.388862
3.68395
0.0231713
0.246777
0.0207225
0.0692262
0.0945451
0.533217
0.0261292
0.0260505
0.027045
0.0840685
0.0232235
2.45959
0.0409288
0.101743
1.99633
0.0219603
0.140312
0.0237747
0.0215718
0.0292304
0.0330331
0.0207495
0.0208046
0.0230792
0.545764
0.0208981
0.0231285
0.0250523
0.0224454
0.0215582
0.10238
0.0964555
0.0220553
0.0211149
0.0810811
0.0262952
0.0344637
4.14697
0.0220171
0.0214545
0.95079
0.0229599
0.0233739
3.50855
4.3131
0.0285789
0.0686597
0.0267396
8.31357
0.126512
0.0336903
0.357992
0.0212029
0.0975149
2.81916
0.225909
0.586791
0.114084
0.0216532
0.021425
0.0237683
0.0215849
0.021512
0.306955
0.0226153
0.0543159
0.0206253
0.0778262
2.39461
0.0234045
0.330713
0.461384
0.0214562
0.105183
0.0260643
0.0230601
0.0213394
4.29766
0.0921238
4.17706
0.0287118
6.28669
0.0986317
0.0221626
0.544469
0.0415298
0.0244316
0.021138
0.198888
0.0213477
0.0261989
0.0370856
0.0254703
0.0223268
0.0717735
0.335127
0.0211149
0.173425
0.0604017
0.0216265
0.0211149
0.0301442
0.443023
0.264647
0.0210613
0.0363586
0.0271769
0.710031
7.3519
0.0216758
0.0209343
0.0216403
0.0215242
0.0231404
0.0241064
0.415501
0.0218602
0.0258497
0.0330041
0.0264686
0.110468
2.76021
4.74798
0.0219979
0.0216369
0.0208903
0.0228162
0.0964592
3.77234
0.0216635
0.103722
0.0308654
0.0644428
0.0248753
0.0299846
0.025818
0.142726
0.021472
0.105878
0.0294083
0.0210262
0.0219275
3.60473
0.059236
0.0315837
2.84197
0.139504
0.021191
0.229707
0.0227828
0.0212306
0.347992
0.585775
0.0215164
0.0285082
0.133837
0.0357184
0.0225754
0.0206964
0.0211269
0.0209151
0.0213366
0.032935
0.0565976
5.08836
0.0365591
0.0276724
0.0379789
0.0953584
0.0211061
0.0350026
0.214444
0.270654
3.23008
0.0229047
0.0206872
4.41991
0.0210327
0.028846
0.0234457
0.0464802
0.0219809
0.0210774
0.310039
0.0281178
0.0227669
0.0215049
1.44112
0.304676
4.00555
0.0215893
0.0214095
0.114173
0.0212292
0.0219231
0.12445
0.568766
0.0279799
0.0394904
0.0224819
0.383327
0.0212408
0.0239636
0.0223303
0.0206492
0.269332
0.0212352
0.0209028
0.199887
0.0780662
0.677049
0.245977
0.021178
0.0348296
0.0209692
0.021181
0.0231244
0.0223498
0.0216704
0.248347
0.0216648
0.0877487
0.028817
0.0316576
0.0216896
0.02378
0.0211575
4.36553
0.0207496
0.078726
0.0926137
0.022597
0.0675855
0.0395624
0.0354599
0.0215205
0.0290776
0.0209114
0.0210362
0.25668
0.0343644
0.0545064
0.021733
0.0215457
0.0220816
0.0603553
0.0210868
2.64135
0.0554693
0.0230776
0.0213072
0.020926
0.0547142
0.032695
0.938667
0.0509458
0.227198
0.0320359
0.109269
0.0237061
0.487106
0.0206227
0.0206737
0.0258614
0.166674
0.0209522
3.67617
0.0215212
0.0219166
0.128578
0.204324
9.24053
0.0286219
0.0273004
0.143101
0.0329143
0.0218411
0.53002
0.021413
0.0208827
0.292075
0.020811
3.5268
0.0308955
0.0210159
0.0214531
0.0219349
3.56491
0.0212785
0.0206984
0.0990348
0.0211848
0.0209561
0.0224948
0.0218698
0.0584487
0.0218329
0.0236013
0.0207411
0.219524
0.0835712
0.0207564
0.0207635
0.0225524
0.0212919
0.0252125
0.0216517
0.0224687
0.0218742
0.0213979
0.0226484
0.0215304
0.0555312
0.0209302
0.101478
0.0214859
0.0424664
0.0210509
0.0216464
0.0210672
0.0208378
0.0384745
0.0257225
0.0273769
0.772978
0.0260091
4.00946
2.87501
0.10325
2.23429
0.0214601
0.021502
0.190241
1.65648
0.0222116
4.05735
0.0209933
0.161218
0.720381
0.0249276
0.102633
0.451292
2.85
0.0220586
0.0612949
0.0209351
0.195654
0.0256931
3.40034
6.17252
0.0217889
0.0616154
0.178168
0.0235486
0.306881
0.226644
0.0235177
0.0209392
0.246211
4.19775
0.0218303
0.0386028
0.0218243
0.164556
0.145985
0.0215499
0.021071
0.35448
0.0211704
0.0214626
0.0224237
0.0208212
0.280493
0.0278983
0.0319638
4.21394
0.0213421
0.0564721
0.0218485
0.247152
0.0651904
0.240312
0.0210395
0.0307736
0.0206231
0.0223894
0.0252555
0.0214866
0.337411
0.0228734
0.0208608
0.0211278
0.250354
0.0209219
0.550516
0.380811
0.736356
0.0213708
0.0210885
0.0212405
0.756749
0.0217994
0.673783
0.0221755
0.178207
0.0232757
0.0261189
0.289395
0.0215824
0.0233229
4.20252
0.137554
3.60979
0.0237599
1.74897
0.246418
0.0214778
3.95926
0.0216203
0.0250522
3.2879
0.0234468
0.0388849
4.19583
0.0296697
0.0871461
0.0216678
0.372702
0.021441
0.547892
0.0212451
4.72608
0.0214654
0.0215685
0.0229819
0.62641
0.0210966
0.0256562
0.0694253
1.33948
0.0212469
0.0298429
2.8972
0.0694884
0.257666
0.0920986
0.0210598
0.133438
0.169417
0.024077
0.296505
0.0205851
0.16373
7.00365
0.0211604
7.20984
0.0213098
1.18966
0.266896
0.0243289
0.0234236
0.532595
0.781667
0.0214799
0.0233198
0.0208459
0.0215336
0.456602
0.0757714
0.305242
0.0214992
0.0292725
3.47264
0.233227
0.722658
0.390035
0.0211404
0.0213899
0.227403
0.871876
0.312885
0.774508
0.256049
0.0404873
0.0466157
2.42508
2.6921
0.540244
0.0209387
0.0973729
0.0535415
0.0819121
0.0214608
0.0289679
0.0692128
0.110062
0.722883
0.0258909
0.116181
4.16185
0.0413981
0.0214335
0.0214406
0.0657625
0.0211694
3.95095
0.0300095
0.0229676
0.180422
0.0391614
0.0207468
0.04174
0.0340294
0.0214957
3.36775
0.031161
3.82787
0.021589
3.84057
0.292257
0.229576
0.0208352
0.0273563
0.0302389
0.10648
0.124742
0.089931
0.423412
0.145897
0.0197522
0.0268292
0.0247945
0.147455
6.86137
0.0204471
0.0207271
0.0230339
0.225945
0.106323
0.0215622
0.055014
0.176062
0.0209066
0.0360195
0.0240979
3.71915
0.0264733
0.209426
0.976513
0.0316414
0.0245163
0.300588
0.0211034
0.0437929
3.36507
0.0237885
0.081112
0.0383954
0.0769278
0.70927
1.53898
0.0216379
0.282428
0.140049
0.0208099
0.17021
0.0825189
0.117337
0.321505
0.183972
0.731714
0.124807
3.16314
0.02804
0.0917809
0.020339
0.0219043
0.0215542
0.0209019
0.296821
0.105702
0.0207552
0.0407237
0.215469
0.0210907
0.58513
0.972627
0.0205811
0.0217424
0.02048
0.0225898
0.0579691
0.0214381
5.44988
0.0337917
0.0849865
0.025683
0.0793632
0.0458749
0.0312981
0.114786
0.0214908
0.0227185
0.0206716
0.0213766
2.70114
0.131865
0.0293106
5.50796
0.0215398
0.0219887
0.0314076
0.0210112
0.0227411
0.0785333
0.0268002
3.77768
0.676968
2.37635
0.021704
3.24502
0.0212501
0.321443
0.0207304
0.171232
0.902919
0.0214097
0.218041
4.09443
0.0328273
0.0221416
0.0211219
0.0286846
0.453629
0.020805
0.0219655
0.0225564
0.0230828
0.234706
0.022635
0.0270395
0.0211067
0.0232472
0.300177
0.0391322
0.0235782
0.148098
0.0630513
3.18215
0.193944
0.0226462
0.0224128
3.42707
0.021477
0.0844358
0.0217525
0.466676
0.022192
0.0217148
0.0311988
1.20242
0.0213917
0.0210495
0.0206004
0.195626
13.127
0.131337
0.0214845
0.0237121
0.0209031
4.27522
0.0209229
0.345709
0.0761336
0.0215427
0.201214
0.0319943
0.121929
0.0224095
0.0219094
0.032611
0.0390156
0.125065
0.021873
0.0219543
0.0221083
3.48778
0.0215261
0.0223227
1.33522
0.0232686
0.0791131
0.0259002
0.0211305
0.0220564
0.578645
0.0245727
0.513399
0.255664
0.0202319
0.194343
0.0219879
0.122489
0.0551936
0.0224901
0.0209176
0.0201756
0.0214237
0.132779
0.0623785
4.40503
3.10018
0.020924
0.0301644
0.040559
0.337289
0.0214289
0.0994115
1.63275
0.380867
0.0214805
0.0235179
0.0222318
0.698959
2.54438
0.0227932
0.0215418
0.0351512
7.26732
0.0217908
0.0236589
0.0229782
0.158852
0.298081
0.0206251
2.09913
0.0279099
0.0214214
0.360127
0.0751833
0.210892
0.11589
0.0328845
0.0253309
0.0224131
0.0267278
0.0221211
0.0547486
0.0479824
0.022425
0.0257021
0.266557
0.682879
0.020788
0.12007
2.71853
0.221592
0.0229256
0.0216131
0.246561
0.360793
0.0598921
0.0210739
4.5647
0.0918845
0.0203614
5.07127
0.0283723
0.0216242
0.202667
0.0212913
0.0290029
0.0210799
0.0199956
0.0214091
0.0205972
0.49602
0.0207536
0.0211429
0.0972984
0.0271105
0.0243978
0.166392
0.0215069
0.0214888
0.0231794
0.0226044
0.224125
0.222357
0.321292
0.238795
0.031965
0.560636
0.0447616
2.44933
1.57817
0.727882
0.0209073
0.0296414
0.0214529
0.0214707
0.0215556
0.0260848
0.241434
0.0803148
0.0383689
0.0210671
0.0213966
0.0760923
0.0219286
0.0218777
0.0214929
4.36376
0.0334651
8.30423
0.0216842
0.259298
0.0220286
0.0216498
0.0220021
0.0553083
0.0210081
0.103866
3.63508
0.0428293
4.40986
0.585947
0.0237924
0.0292847
0.047925
0.126765
0.021039
0.0215526
0.0202142
3.18413
0.0199519
0.0569575
0.034342
0.0943136
0.165749
0.137325
0.0857257
3.53099
0.0218767
0.020531
0.0321041
0.416568
0.0214364
0.0216718
0.110537
0.0209519
0.188244
0.022566
0.0207898
0.0257998
0.0215711
0.0873888
3.46916
3.7556
0.0261253
0.0218987
0.0823145
0.0229181
0.0886906
0.0208901
0.175318
0.124105
0.0218795
0.0215679
0.0203324
0.127371
0.0451246
0.236933
0.290726
0.0317261
0.374236
0.0989062
0.150935
0.705967
0.0212708
2.98566
0.0226334
4.39002
0.300833
3.01281
0.537483
0.0239139
0.0635586
0.0328087
0.0213153
4.30365
0.0214717
0.021553
0.0283988
0.0223727
0.0360148
0.324044
0.352867
3.01565
0.0273241
0.0413119
0.0227623
0.0216688
0.021794
0.141843
0.114194
1.86463
0.0504425
0.0208491
0.0208365
0.0219057
0.280165
0.0241891
0.0222128
0.0258831
0.0851522
0.0374581
0.0401399
0.0341337
2.84373
0.0311599
0.0390501
0.0214367
0.0285474
0.223589
0.48794
0.0466294
0.0210208
0.356733
0.0373838
0.0210541
0.058931
3.54025
0.223882
0.0337408
0.0209634
2.53206
0.0219533
0.0209133
0.0209405
0.303844
0.310748
0.023972
0.322481
0.368966
0.023632
0.0339463
0.070321
3.83596
0.0327262
2.389
0.0219627
0.488273
0.0322452
2.57825
0.038871
0.0213627
3.64552
0.02164
0.0225123
0.49512
0.495972
0.0518394
0.231719
0.0261062
0.0231372
0.35153
0.0210577
0.0211798
0.0216451
0.0538391
0.0214119
0.0299397
0.0237341
0.0675751
0.349183
0.0225165
4.34908
0.02374
3.7977
4.2755
0.0216144
0.0218772
0.0276343
0.14524
0.241367
0.0817862
3.61464
2.66219
0.140688
0.0232633
0.434788
3.5734
0.0429979
0.330025
0.0215757
0.0212229
0.0216605
0.0224778
0.0212868
0.0397223
3.84292
0.0294176
0.248064
6.29648
0.51159
2.24897
3.06343
0.027413
3.04023
0.130274
0.0991479
0.0207132
0.0213548
0.0897486
4.72539
0.022261
0.466094
3.30051
0.020946
0.021684
0.0235915
0.0925289
0.0220428
0.089159
3.07928
0.0207699
0.0213998
0.0209193
0.0225293
0.132861
3.68017
0.035906
0.426201
0.123463
0.0211382
0.259071
0.131472
0.0228481
0.313987
0.342909
1.50458
0.265184
4.15305
0.021254
0.359108
3.79501
0.160761
0.38286
0.0213935
0.0233764
0.0243261
0.0244049
0.585346
0.080347
0.0218354
0.028813
0.0428507
3.93069
0.0231759
0.0241046
4.14401
2.94908
0.0218681
0.0287214
0.122952
0.0213256
0.0214168
0.657242
0.0210794
0.295709
0.260254
0.927652
0.0209945
0.0763557
0.17496
0.0210324
0.0204512
2.28926
0.319139
0.0217229
0.0313549
0.181979
0.259159
3.23973
0.299367
0.0266419
0.252305
0.240247
0.0388053
0.0211061
0.0607499
0.0205348
0.0206684
3.84492
0.0392139
0.110568
0.0257096
0.0245605
0.0211526
0.0208194
0.0224461
0.0227412
0.351808
0.0253618
0.271482
6.77228
0.0492713
0.0911441
0.434021
2.05311
0.350623
0.021753
0.026343
0.0395234
0.0263334
0.182074
0.210324
0.0224207
0.275989
4.14324
0.0273401
0.122226
0.0960763
0.133322
0.145242
0.0232523
0.159947
0.174574
0.190399
0.207339
0.152237
0.104042
0.0256363
0.0210748
0.0382593
0.120298
0.0210302
0.240261
3.40246
0.185775
3.38308
0.0204013
0.0210934
0.485251
0.367709
0.0226341
0.0239146
0.0891624
6.24058
0.11445
0.0214791
0.0300112
0.0265375
5.34051
0.0454564
0.0256632
0.269643
3.8871
0.130951
2.42994
0.112906
0.0840064
3.31493
0.0196249
3.06115
4.15713
0.0226515
0.0813884
0.110515
0.0250211
0.0210654
0.15141
0.19806
0.0222453
0.0223634
0.769344
0.335021
0.0910492
0.0217899
0.265575
0.152406
3.47319
4.54582
0.0216519
0.0213789
0.022553
0.0225091
1.69697
0.107976
1.43997
0.112581
0.292765
0.564142
0.0226749
0.021029
3.97351
0.0213929
2.68198
0.0207109
2.80102
0.0229609
0.0223629
0.654629
0.0214803
0.145549
0.53247
0.0243545
0.0234429
0.0231375
0.233042
3.91314
0.156978
3.75429
0.0230133
0.0232579
0.030877
0.087698
3.59643
4.22956
0.108097
0.246334
0.15947
0.354642
0.0230715
0.0215397
0.0207883
0.0207149
0.252637
0.0550235
0.254621
0.0428521
0.186584
0.0210435
0.0811731
0.122972
4.53117
0.0214719
0.0233301
0.0200251
3.84241
0.0248937
0.642934
0.246646
0.154848
0.280926
0.0202725
0.0457349
0.153585
0.259413
0.329935
0.0216039
0.169714
0.0219183
0.0219294
0.10252
0.228278
0.250706
0.0216943
0.096675
0.163184
2.27365
5.76752
1.32722
1.17593
0.0211036
0.0737657
0.0214582
0.176737
0.0216107
0.121794
0.0229929
0.0599754
0.254111
0.533977
0.0231403
0.0958276
4.12347
0.161702
0.0233213
0.445825
0.149127
0.0239425
0.0221003
0.730797
0.0313795
0.137994
0.297261
0.129318
4.44774
0.0237238
0.407203
3.58133
0.122826
0.149809
0.0358541
0.140609
0.126919
1.10706
0.0513114
0.0224445
0.334806
0.0404945
0.237826
0.028232
3.31062
0.219931
0.351595
0.0290032
0.139347
0.0246527
3.70179
0.158271
0.339423
8.02877
0.0209269
0.0199819
3.91471
2.84496
0.0289778
0.0223037
0.0443723
0.0287572
0.385754
0.05714
4.18569
0.02682
4.24375
0.135691
0.147233
0.0223745
0.217381
2.82548
0.023025
0.117302
0.0203759
0.0254985
0.0217183
0.249648
0.0211281
0.021705
3.14791
0.363282
0.0206999
3.31716
0.0226162
0.0213541
0.0213001
0.0211472
0.0219138
0.320899
3.46933
0.0209501
0.170939
0.0912208
0.0637034
0.315019
0.116315
0.0263593
0.0390544
0.0212927
0.249437
0.0294241
3.42751
0.0233035
0.394103
0.313413
0.0860222
0.368402
4.30513
0.0207995
4.28011
0.0674696
0.0857256
0.0385547
0.0210871
0.0346357
0.24849
0.0216564
0.198052
0.0214111
0.916639
0.186569
0.369378
0.226672
0.216037
2.96419
0.0216007
0.0216402
0.0847701
0.0232513
0.0218782
0.0219214
0.0280034
0.0210219
0.0211911
0.0229212
0.0437361
0.0235954
0.0277639
0.0224802
0.0333064
0.142441
0.0240124
1.49818
0.0237719
0.0212454
0.126349
0.055828
0.0225032
0.0210143
0.163089
0.0245733
4.00357
0.0248614
0.132251
0.0213046
0.0212772
0.0924415
3.60499
0.0953761
0.0353525
0.0204701
3.57353
0.0217526
0.0211506
0.104025
0.0251916
0.166114
4.0884
0.128344
0.121858
0.0442266
4.54074
0.0213687
0.021701
0.0743143
0.25723
0.0806861
0.118458
2.52887
0.0282512
0.0216338
0.031017
0.258528
0.0794868
0.0216838
0.137967
0.136729
0.0808756
0.0219065
0.0217289
0.196901
0.0779371
0.357721
0.537671
0.0234924
0.092737
0.0218671
0.058939
0.314281
0.0217361
0.180931
0.030534
0.0997516
0.149656
0.0216051
0.0212466
0.0212464
2.86913
0.241525
0.0236896
0.09258
0.150295
0.0218299
0.0212839
0.165023
3.17029
0.198183
4.12766
0.146807
0.0368136
0.312661
0.163343
0.0361625
0.631316
0.122712
0.638983
0.0215681
0.138559
0.179161
0.0225804
0.164595
0.0434331
0.0716156
0.0280094
0.197055
0.0210277
4.76277
0.0263481
0.0208147
0.0217922
0.0208175
0.022873
0.0226782
0.0210227
0.0256646
0.021641
0.0224886
0.249074
0.106947
0.0225217
0.0793528
0.0254611
0.0240753
0.0207516
0.0609055
0.0253854
0.355056
0.0216291
0.0216507
0.0800761
0.195961
0.0216668
0.0216008
0.127985
0.0247138
0.106614
0.0752161
0.0214051
12.636
0.0250642
0.0225494
0.0795234
3.6472
0.022886
0.0713597
0.0222422
0.0282813
0.0216227
0.0277737
0.0211509
0.0216718
0.0438561
0.0765192
11.9907
0.0621089
0.0215411
0.0294809
4.39247
0.0500432
0.234837
0.133474
0.0217288
0.0641986
0.809185
0.218161
0.201786
0.0268242
4.33549
0.302172
0.0290518
0.0218317
0.0868302
0.0225252
0.0781685
3.37723
0.021546
0.113882
0.0218487
3.39704
0.0415978
0.0227207
0.078217
3.79035
0.432341
0.0250095
0.0946924
0.0352912
0.0206868
1.27714
0.0206556
0.034264
0.021062
0.0248461
2.30271
0.0977268
0.0203745
0.0285071
0.240741
0.0215619
0.0219773
0.0309987
0.0251816
0.0214774
0.0248257
0.0243637
0.0221302
0.0210384
0.0834268
0.146859
0.221902
0.0210104
0.0786265
3.7792
5.03596
0.0217512
0.0215858
0.0273704
0.119896
0.0223107
0.0210066
0.021164
0.0213869
0.0256589
0.0306476
0.0233692
0.0884674
0.0237706
0.0207876
0.0235203
0.0871304
0.0572165
0.152713
0.0224269
0.0295258
4.04695
0.0290864
0.0266075
4.78484
4.19342
0.140834
0.0884232
0.211308
0.0212424
0.0336036
0.0267185
10.6701
0.0214183
0.0212261
0.359325
0.0208236
0.254599
2.18743
0.0222173
22.2996
0.0353313
0.0396061
0.0273059
0.0859243
0.0285172
0.0279801
0.149124
0.0208744
0.0258838
4.16428
0.022695
0.0213254
0.0326978
4.05475
0.0224484
0.0224494
3.08395
0.0232895
0.027317
0.0816757
0.0204449
9.28224
0.025358
0.0225086
0.112288
0.0791241
0.377755
0.0245584
0.256513
0.0400601
0.10929
1.72953
0.0215567
0.0383506
0.132786
0.0224761
0.271704
0.0223978
0.024274
3.62616
0.022268
0.0548891
0.106941
0.659826
0.0358667
0.0281549
0.0227354
0.0252551
0.130443
0.0249769
0.0373794
0.0601721
0.0749884
0.0214983
4.36904
0.0482016
0.0207882
0.0230598
0.0212355
0.0216278
0.0204525
0.0215273
0.0215274
0.0320712
0.0250068
0.0367985
0.0205102
0.02052
0.023357
0.101204
0.0207684
0.0290428
0.0515965
0.0287449
0.0332314
0.0212856
0.0242781
0.025079
0.0377117
0.0279427
0.0240491
1.67983
0.0216277
2.53219
0.0268205
0.127265
0.0930864
0.0214797
0.080942
0.0376415
4.013
3.56123
0.0277742
0.0218275
0.0247021
0.0359325
0.0635172
0.0215474
0.489347
0.0654915
0.0232973
0.0502438
0.0413808
0.0519573
0.0279602
0.193282
0.0644719
0.0267013
0.430792
0.0238397
0.171158
0.0228753
0.0212519
0.11541
0.108278
0.0214002
0.0558809
0.0214464
0.0217534
0.0214544
0.0222811
0.0214937
0.0214127
0.0214092
0.0221065
0.204096
0.022379
0.0213543
0.0222137
0.0228142
0.256719
3.44324
0.049214
0.0246478
4.33177
0.0214544
0.0213678
0.189229
0.037792
0.0220567
0.022238
0.0216872
0.177247
0.0216869
0.0281131
0.0223304
0.0342137
4.56586
0.0214589
0.0502936
0.0833168
0.0273315
0.0495764
0.0217334
0.0217967
0.0655329
0.21934
0.0242775
0.0359823
0.31337
0.116722
0.0221156
3.15064
0.022814
0.0197301
0.0470676
2.2108
0.0213135
0.0207882
0.02414
0.0298728
0.0328741
0.0214341
0.0226087
0.0412981
0.0217914
0.0287706
0.0281171
0.522466
0.0210666
0.361609
0.306026
0.0369041
0.0212154
0.133522
0.0215972
0.0236936
0.0216011
0.0771779
0.0205535
0.0205044
0.0465104
0.0494603
0.341081
0.0219317
0.0204145
0.0242631
0.0216932
3.55195
0.0231466
0.023113
0.022348
0.0736548
0.0626791
0.0245188
0.0229941
0.059446
0.0216236
0.0222878
0.0244134
0.0224037
0.121924
0.0211107
0.029022
0.0222574
0.0215633
0.0603737
0.11146
3.33403
0.0214469
0.0471818
0.200711
1.23529
2.65874
0.0307133
0.0215143
0.0254489
0.0320425
0.344078
0.0218655
0.0265359
0.0287828
0.0376996
0.0205475
0.0740305
0.0587757
0.363487
0.0223283
0.0217922
0.104066
0.291836
0.0203958
0.0258921
0.0410624
0.0201746
0.022703
0.0601161
0.021917
0.0214847
0.0218353
0.0259304
0.111347
0.0412105
0.0228255
0.0216307
0.0221468
0.140841
0.019979
0.0213765
0.0263077
0.117716
0.0274107
3.98717
0.0249941
0.0214381
0.0215762
0.023448
0.0212034
0.0384574
0.138126
0.0217395
0.0209899
0.0222342
0.0213021
0.021902
0.0465603
1.20466
0.0229693
0.125766
0.023426
0.0213146
0.272486
0.02402
2.30532
0.0219641
0.0216281
0.0207888
0.021515
0.022808
0.0372709
0.0408777
0.134879
0.0274698
0.068039
0.0217352
0.0311568
0.0214427
0.0238398
0.0423826
0.41339
0.817149
0.021761
4.09539
0.0904093
0.05365
0.156737
0.0199512
0.0214182
0.0215637
0.023178
0.90217
0.0216444
0.10255
0.286843
0.0223792
0.101876
0.0201562
0.030707
0.259156
0.210554
0.0217992
0.204612
0.163724
0.299169
0.0274572
4.4373
0.0230283
0.116872
0.116924
0.0205832
0.0358845
0.0319669
0.024873
0.270314
0.0375863
0.0222496
0.0230802
0.0303961
0.0217839
0.0451323
0.0216242
0.0199527
0.0235593
0.0400289
0.0215933
0.101077
0.0262819
0.0230932
0.0199563
0.021434
0.528817
0.0933416
0.139757
0.0396751
0.0265926
0.02746
0.0253478
0.0214163
0.0229863
0.0328597
0.0236011
0.0255576
0.0205418
0.0279203
0.363439
0.0222574
0.36352
0.171853
0.0216072
0.0217351
0.0205861
0.0293015
0.0355907
0.0203565
0.0277802
0.0228276
0.0217998
0.021051
0.0220394
0.0215021
0.0215122
0.225626
0.0219419
0.0251127
0.0214641
0.220337
0.628932
0.0214677
0.23458
0.0215759
0.0251563
0.029917
0.280909
0.031145
0.0209903
0.0212209
0.0312063
0.0437175
0.19435
0.0224297
0.0610184
0.132227