/*--------------------------------*- C++ -*----------------------------------*\
| =========                 |                                                 |
| \\      /  F ield         | OpenFOAM: The Open Source CFD Toolbox           |
|  \\    /   O peration     | Version:  v2012                                 |
|   \\  /    A nd           | Website:  www.openfoam.com                      |
|    \\/     M anipulation  |                                                 |
\*---------------------------------------------------------------------------*/
FoamFile
{
    version     2.0;
    format      ascii;
    class       pointVectorField;
    location    "700";
    object      pointDisplacement;
}
// * * * * * * * * * * * * * * * * * * * * * * * * * * * * * * * * * * * * * //

dimensions      [0 1 0 0 0 0 0];


internalField   nonuniform List<vector> 
14386
(
(0 0 0)
(-6.73689e-06 -5.38922e-05 0)
(0 0 0)
(-6.73689e-06 -5.38922e-05 0)
(0 0 0)
(0 0 0)
(0 0 0)
(0 0 0)
(0 0 0)
(0 0 0)
(0 0 0)
(0 0 0)
(0 0 0)
(0 0 0)
(0 0 0)
(0 0 0)
(0 0 0)
(0 0 0)
(0 0 0)
(0 0 0)
(0 0 0)
(0 0 0)
(0 0 0)
(0 0 0)
(0 0 0)
(0 0 0)
(0 0 0)
(0 0 0)
(0 0 0)
(0 0 0)
(0 0 0)
(0 0 0)
(0 0 0)
(0 0 0)
(0 0 0)
(0 0 0)
(0 0 0)
(0 0 0)
(0 0 0)
(0 0 0)
(0 0 0)
(0 0 0)
(0 0 0)
(0 0 0)
(0 0 0)
(0 0 0)
(0 0 0)
(0 0 0)
(0 0 0)
(0 0 0)
(0 0 0)
(0 0 0)
(0 0 0)
(0 0 0)
(0 0 0)
(0 0 0)
(0 0 0)
(0 0 0)
(0 0 0)
(0 0 0)
(0 0 0)
(0 0 0)
(0 0 0)
(0 0 0)
(0 0 0)
(0 0 0)
(0 0 0)
(0 0 0)
(0 0 0)
(0 0 0)
(0 0 0)
(0 0 0)
(0 0 0)
(0 0 0)
(0 0 0)
(0 0 0)
(0 0 0)
(0 0 0)
(0 0 0)
(0 0 0)
(0 0 0)
(0 0 0)
(0 0 0)
(0 0 0)
(0 0 0)
(0 0 0)
(0 0 0)
(0 0 0)
(0 0 0)
(0 0 0)
(0 0 0)
(0 0 0)
(0 0 0)
(0 0 0)
(0 0 0)
(0 0 0)
(0 0 0)
(0 0 0)
(0 0 0)
(0 0 0)
(0 0 0)
(0 0 0)
(0 0 0)
(0 0 0)
(0 0 0)
(0 0 0)
(0 0 0)
(0 0 0)
(0 0 0)
(0 0 0)
(0 0 0)
(0 0 0)
(0 0 0)
(0 0 0)
(0 0 0)
(0 0 0)
(0 0 0)
(0 0 0)
(0 0 0)
(0 0 0)
(0 0 0)
(0 0 0)
(0 0 0)
(0 0 0)
(0 0 0)
(0 0 0)
(0 0 0)
(0 0 0)
(0 0 0)
(0 0 0)
(0 0 0)
(0 0 0)
(0 0 0)
(-6.73677e-06 -3.57036e-05 0)
(-6.73677e-06 -3.63772e-05 0)
(-6.73678e-06 -3.70509e-05 0)
(-6.73678e-06 -3.77245e-05 0)
(-6.73679e-06 -3.83982e-05 0)
(-6.73679e-06 -3.90718e-05 0)
(-6.7368e-06 -3.97455e-05 0)
(-6.7368e-06 -4.04191e-05 0)
(-6.73681e-06 -4.10928e-05 0)
(-6.73681e-06 -4.17664e-05 0)
(-6.73682e-06 -4.24401e-05 0)
(-6.73682e-06 -4.31137e-05 0)
(-6.73682e-06 -4.37874e-05 0)
(-6.73683e-06 -4.4461e-05 0)
(-6.73683e-06 -4.51347e-05 0)
(-6.73684e-06 -4.58084e-05 0)
(-6.73684e-06 -4.6482e-05 0)
(-6.73685e-06 -4.71557e-05 0)
(-6.73685e-06 -4.78293e-05 0)
(-6.73686e-06 -4.8503e-05 0)
(-6.73686e-06 -4.91766e-05 0)
(-6.73687e-06 -4.98503e-05 0)
(-6.73687e-06 -5.05239e-05 0)
(-6.73687e-06 -5.11976e-05 0)
(-6.73688e-06 -5.18712e-05 0)
(-6.73688e-06 -5.25449e-05 0)
(-6.73689e-06 -5.32185e-05 0)
(-6.06324e-06 -5.38922e-05 0)
(-5.38959e-06 -5.38922e-05 0)
(0 0 0)
(0 0 0)
(0 0 0)
(0 0 0)
(0 0 0)
(0 0 0)
(0 0 0)
(0 0 0)
(0 0 0)
(0 0 0)
(0 0 0)
(0 0 0)
(0 0 0)
(0 0 0)
(0 0 0)
(0 0 0)
(0 0 0)
(0 0 0)
(0 0 0)
(0 0 0)
(0 0 0)
(0 0 0)
(0 0 0)
(0 0 0)
(0 0 0)
(0 0 0)
(0 0 0)
(0 0 0)
(0 0 0)
(0 0 0)
(0 0 0)
(0 0 0)
(0 0 0)
(0 0 0)
(0 0 0)
(0 0 0)
(0 0 0)
(0 0 0)
(0 0 0)
(0 0 0)
(0 0 0)
(0 0 0)
(0 0 0)
(0 0 0)
(0 0 0)
(0 0 0)
(0 0 0)
(0 0 0)
(0 0 0)
(0 0 0)
(0 0 0)
(0 0 0)
(0 0 0)
(0 0 0)
(0 0 0)
(0 0 0)
(0 0 0)
(0 0 0)
(0 0 0)
(0 0 0)
(0 0 0)
(0 0 0)
(0 0 0)
(0 0 0)
(0 0 0)
(0 0 0)
(0 0 0)
(0 0 0)
(0 0 0)
(0 0 0)
(0 0 0)
(0 0 0)
(0 0 0)
(0 0 0)
(0 0 0)
(0 0 0)
(0 0 0)
(0 0 0)
(0 0 0)
(0 0 0)
(0 0 0)
(0 0 0)
(0 0 0)
(0 0 0)
(0 0 0)
(0 0 0)
(0 0 0)
(0 0 0)
(0 0 0)
(0 0 0)
(0 0 0)
(0 0 0)
(0 0 0)
(0 0 0)
(0 0 0)
(0 0 0)
(0 0 0)
(0 0 0)
(0 0 0)
(0 0 0)
(0 0 0)
(0 0 0)
(0 0 0)
(0 0 0)
(0 0 0)
(0 0 0)
(0 0 0)
(0 0 0)
(0 0 0)
(0 0 0)
(0 0 0)
(0 0 0)
(0 0 0)
(0 0 0)
(0 0 0)
(0 0 0)
(0 0 0)
(0 0 0)
(0 0 0)
(0 0 0)
(0 0 0)
(0 0 0)
(0 0 0)
(0 0 0)
(0 0 0)
(0 0 0)
(0 0 0)
(0 0 0)
(0 0 0)
(-6.73677e-06 -3.57036e-05 0)
(-6.73677e-06 -3.63772e-05 0)
(-6.73678e-06 -3.70509e-05 0)
(-6.73678e-06 -3.77245e-05 0)
(-6.73679e-06 -3.83982e-05 0)
(-6.73679e-06 -3.90718e-05 0)
(-6.7368e-06 -3.97455e-05 0)
(-6.7368e-06 -4.04191e-05 0)
(-6.73681e-06 -4.10928e-05 0)
(-6.73681e-06 -4.17664e-05 0)
(-6.73682e-06 -4.24401e-05 0)
(-6.73682e-06 -4.31137e-05 0)
(-6.73682e-06 -4.37874e-05 0)
(-6.73683e-06 -4.4461e-05 0)
(-6.73683e-06 -4.51347e-05 0)
(-6.73684e-06 -4.58084e-05 0)
(-6.73684e-06 -4.6482e-05 0)
(-6.73685e-06 -4.71557e-05 0)
(-6.73685e-06 -4.78293e-05 0)
(-6.73686e-06 -4.8503e-05 0)
(-6.73686e-06 -4.91766e-05 0)
(-6.73687e-06 -4.98503e-05 0)
(-6.73687e-06 -5.05239e-05 0)
(-6.73687e-06 -5.11976e-05 0)
(-6.73688e-06 -5.18712e-05 0)
(-6.73688e-06 -5.25449e-05 0)
(-6.73689e-06 -5.32185e-05 0)
(-6.06324e-06 -5.38922e-05 0)
(-5.38959e-06 -5.38922e-05 0)
(-1.04484e-05 -3.11997e-05 0)
(-7.46098e-06 -5.28202e-05 0)
(-6.91062e-06 -3.73988e-05 0)
(-6.97805e-06 -4.35467e-05 0)
(-1.19106e-05 -3.64596e-05 0)
(-6.40404e-06 1.63609e-05 0)
(-4.98825e-06 1.76794e-05 0)
(-7.92262e-06 -8.31101e-06 0)
(-1.49241e-05 -6.48183e-05 0)
(-3.71285e-06 1.77248e-05 0)
(-1.69789e-05 -8.21574e-05 0)
(-3.02727e-06 2.97917e-05 0)
(-1.78264e-05 -7.38927e-05 0)
(-1.80871e-05 -4.85378e-05 0)
(-2.61547e-06 1.52699e-05 0)
(-7.27129e-06 -5.61462e-05 0)
(-2.58827e-06 2.50893e-05 0)
(-2.09841e-06 1.3953e-05 0)
(-2.16804e-06 2.05633e-05 0)
(-1.58502e-06 1.09764e-05 0)
(-1.5101e-06 1.41906e-05 0)
(-9.53686e-06 -2.29828e-05 0)
(-7.97725e-06 8.35229e-06 0)
(-5.66099e-06 1.89013e-05 0)
(-7.34467e-06 -4.93447e-05 0)
(-7.55596e-06 -4.40911e-05 0)
(-9.2655e-07 6.54916e-06 0)
(-9.4055e-07 8.08244e-06 0)
(-1.79656e-05 -8.43788e-05 0)
(-1.86976e-05 -6.39753e-05 0)
(-1.75117e-05 -8.16633e-05 0)
(-1.38065e-05 -5.04029e-05 0)
(-1.0398e-05 -3.01169e-05 0)
(-3.5106e-06 1.83852e-05 0)
(-4.30687e-06 1.69152e-05 0)
(-2.86795e-06 2.77044e-05 0)
(-2.84893e-06 2.74604e-05 0)
(-2.46993e-06 1.63945e-05 0)
(-7.78939e-06 -5.81176e-05 0)
(-6.03403e-07 4.65422e-06 0)
(-4.98757e-07 4.11009e-06 0)
(-1.63699e-05 -3.32927e-05 0)
(-1.22735e-05 -3.88241e-05 0)
(-1.09893e-05 -3.26115e-05 0)
(-1.00722e-05 -2.9893e-05 0)
(-1.02925e-05 -1.70912e-05 0)
(-7.3951e-06 -1.2398e-07 0)
(-6.32756e-06 1.15542e-05 0)
(-6.12795e-06 1.95147e-05 0)
(-5.52657e-06 1.82023e-05 0)
(-1.18228e-06 8.26778e-06 0)
(-2.77785e-06 2.72604e-05 0)
(-4.04735e-06 1.76977e-05 0)
(-3.31079e-06 3.18956e-05 0)
(-1.26867e-06 1.15376e-05 0)
(-1.52468e-06 1.4302e-05 0)
(-1.88498e-06 1.25237e-05 0)
(-3.53634e-06 1.78828e-05 0)
(-2.01695e-07 1.57968e-06 0)
(-0.000111678 -0.000470662 0)
(-0.000115233 -0.000480042 0)
(-0.000114011 -0.00050645 0)
(-0.000117428 -0.000513522 0)
(-0.000116259 -0.000538327 0)
(-0.000112737 -0.000528818 0)
(-0.000115068 -0.000558966 0)
(-0.000118442 -0.00056643 0)
(-0.00011728 -0.000584854 0)
(-0.000113798 -0.000575316 0)
(-0.000115994 -0.000597656 0)
(-0.000119441 -0.000605279 0)
(-0.000118254 -0.000614672 0)
(-0.000121689 -0.000619855 0)
(-0.00012072 -0.000625755 0)
(-0.000117218 -0.000617504 0)
(-0.00011994 -0.0006253 0)
(-0.000123445 -0.00063244 0)
(-0.000122919 -0.00063052 0)
(-0.000118915 -0.000619417 0)
(-0.000122451 -0.000624879 0)
(-0.000125834 -0.000633691 0)
(-0.000125351 -0.00062707 0)
(-0.00012188 -0.000618661 0)
(-0.00012475 -0.000618416 0)
(-0.000121138 -0.000611092 0)
(-0.000124149 -0.00060912 0)
(-0.000127654 -0.000614558 0)
(-0.000127143 -0.000604305 0)
(-0.0001235 -0.000598771 0)
(-0.000126521 -0.000593428 0)
(-0.000122777 -0.000588006 0)
(-0.000125808 -0.000581969 0)
(-0.000121981 -0.000575445 0)
(-0.000125001 -0.000568946 0)
(-0.000128558 -0.000575216 0)
(-0.000127759 -0.000562229 0)
(-0.000124175 -0.000555327 0)
(-0.0001269 -0.000548963 0)
(-0.000123316 -0.000542437 0)
(-0.000126034 -0.000536325 0)
(-0.000122402 -0.000530437 0)
(-0.00012513 -0.000524584 0)
(-0.000121588 -0.000519584 0)
(-0.000124234 -0.000514267 0)
(-0.000120843 -0.000509311 0)
(-0.000123301 -0.00050458 0)
(-0.000119989 -0.000498113 0)
(-0.000122453 -0.000494246 0)
(-0.000118974 -0.000485944 0)
(-0.000121535 -0.000483608 0)
(-0.000117796 -0.000473645 0)
(-0.000120432 -0.000473027 0)
(-0.000116699 -0.00046189 0)
(-0.000119545 -0.000461981 0)
(-0.000115983 -0.000449502 0)
(-0.000119057 -0.000450349 0)
(-0.000115684 -0.000436758 0)
(-0.000118833 -0.000438795 0)
(-0.000115703 -0.000424283 0)
(-0.000118972 -0.000426974 0)
(-0.000116159 -0.000411771 0)
(-0.00011973 -0.000414329 0)
(-0.000117274 -0.000398634 0)
(-0.000121274 -0.000400663 0)
(-0.000119081 -0.000384829 0)
(-0.000123444 -0.000386277 0)
(-0.000121325 -0.000371303 0)
(-0.000125646 -0.000372859 0)
(-0.000123547 -0.000359393 0)
(-0.000127738 -0.000361492 0)
(-0.000125668 -0.00034957 0)
(-0.000129959 -0.000352049 0)
(-0.000127946 -0.000342074 0)
(-0.000132333 -0.000344452 0)
(-0.000130403 -0.00033634 0)
(-0.000134884 -0.00033816 0)
(-0.000133136 -0.000331284 0)
(-0.000137829 -0.000332518 0)
(-0.00013632 -0.000326514 0)
(-0.000141237 -0.000327116 0)
(-0.000139966 -0.000321471 0)
(-0.000144896 -0.000321441 0)
(-0.000143878 -0.000316005 0)
(-0.000148649 -0.000315646 0)
(-0.000147934 -0.000310848 0)
(-0.000152374 -0.000310179 0)
(-0.000151669 -0.000306123 0)
(-0.000155927 -0.000304569 0)
(-0.000155206 -0.000300874 0)
(-0.000159725 -0.000298026 0)
(-0.000159307 -0.000294819 0)
(-0.000164179 -0.000291026 0)
(-0.000164422 -0.000288715 0)
(-0.000169341 -0.000284777 0)
(-0.000168847 -0.000286123 0)
(-0.000173851 -0.000280044 0)
(-0.000142713 -0.000333033 0)
(-0.000125616 -0.000401859 0)
(-0.000124856 -0.000493339 0)
(-0.000131021 -0.000568682 0)
(-0.000172839 -0.000281246 0)
(-0.000177775 -0.000275131 0)
(-0.000170181 -0.00028376 0)
(-0.000176221 -0.000276606 0)
(-0.00018106 -0.000270031 0)
(-0.000179226 -0.000271352 0)
(-0.000183964 -0.000263934 0)
(-0.000181937 -0.000264685 0)
(-0.000186641 -0.000256222 0)
(-0.000184453 -0.000255941 0)
(-0.000189096 -0.000246419 0)
(-0.00018679 -0.000245171 0)
(-0.000191242 -0.000234726 0)
(-0.000193797 -0.000237478 0)
(-0.000195588 -0.000224176 0)
(-0.000198054 -0.000228472 0)
(-0.000199496 -0.000213378 0)
(-0.000196817 -0.000210142 0)
(-0.000200477 -0.000197707 0)
(-0.000201858 -0.000218757 0)
(-0.000197678 -0.000195582 0)
(-0.000201173 -0.000181393 0)
(-0.000198329 -0.000180617 0)
(-0.000201708 -0.000164691 0)
(-0.000198821 -0.000165189 0)
(-0.000202159 -0.000147882 0)
(-0.000199396 -0.000149385 0)
(-0.000202621 -0.000131491 0)
(-0.000200128 -0.000133876 0)
(-0.0002032 -0.000115928 0)
(-0.000200929 -0.000119233 0)
(-0.00020384 -0.000101782 0)
(-0.000206111 -9.95198e-05 0)
(-0.000206587 -8.48581e-05 0)
(-0.000208738 -8.40116e-05 0)
(-0.000208925 -6.81551e-05 0)
(-0.000210915 -6.92729e-05 0)
(-0.000210811 -5.28373e-05 0)
(-0.000208893 -5.21408e-05 0)
(-0.000210555 -3.59603e-05 0)
(-0.00020858 -3.5226e-05 0)
(-0.000210127 -1.84086e-05 0)
(-0.000212732 -5.65499e-05 0)
(-0.000207994 -1.75722e-05 0)
(-0.000209538 -3.25362e-08 0)
(-0.000207223 9.16859e-07 0)
(-0.000208782 1.9495e-05 0)
(-0.000206213 1.99894e-05 0)
(-0.000207784 3.99023e-05 0)
(-0.000205015 4.026e-05 0)
(-0.000206572 6.11552e-05 0)
(-0.000209341 5.85812e-05 0)
(-0.000208131 8.10855e-05 0)
(-0.000210796 7.60207e-05 0)
(-0.000209612 9.94716e-05 0)
(-0.000206816 0.000103939 0)
(-0.000208265 0.000121937 0)
(-0.000205483 0.000126461 0)
(-0.000207253 0.000145621 0)
(-0.00020413 0.000148042 0)
(-0.000205608 0.000166388 0)
(-0.000210946 0.000116398 0)
(-0.000202551 0.000168946 0)
(-0.000203993 0.000188038 0)
(-0.000200781 0.000190876 0)
(-0.000202152 0.000211353 0)
(-0.000198849 0.000214195 0)
(-0.000200139 0.000235386 0)
(-0.00016513 -0.00028622 0)
(-0.000196685 0.00023797 0)
(-0.000197802 0.00025918 0)
(-0.000201111 0.000255321 0)
(-0.000198605 0.00027892 0)
(-0.000201635 0.000273925 0)
(-0.000199103 0.000297719 0)
(-0.000195998 0.000302619 0)
(-0.000196501 0.000321054 0)
(-0.000193389 0.000326393 0)
(-0.00019397 0.00034467 0)
(-0.000199306 0.000314715 0)
(-0.000190799 0.00035 0)
(-0.000191393 0.000368925 0)
(-0.000188178 0.00037387 0)
(-0.000188714 0.000393562 0)
(-0.000185464 0.000397278 0)
(-0.000185981 0.000417154 0)
(-0.000182645 0.000418756 0)
(-0.000183217 0.000439064 0)
(-0.000179805 0.000438395 0)
(-0.000180349 0.000459085 0)
(-0.000183538 0.000459395 0)
(-0.000180635 0.000479748 0)
(-0.000183568 0.000479572 0)
(-0.000180668 0.000500506 0)
(-0.000177749 0.000499325 0)
(-0.000177698 0.000520454 0)
(-0.000180418 0.000521149 0)
(-0.000177361 0.000541284 0)
(-0.000174643 0.000540231 0)
(-0.000174275 0.000561212 0)
(-0.000171566 0.000559725 0)
(-0.000171162 0.000580494 0)
(-0.000168406 0.000578035 0)
(-0.000167924 0.000598331 0)
(-0.00017047 0.00060005 0)
(-0.000167166 0.000617375 0)
(-0.000164608 0.000615303 0)
(-0.00016386 0.000634316 0)
(-0.000161273 0.000631903 0)
(-0.00016053 0.000650344 0)
(-0.000157913 0.000647421 0)
(-0.000157132 0.000664916 0)
(-0.000159544 0.000666261 0)
(-0.000156098 0.000680002 0)
(-0.000153673 0.000678066 0)
(-0.000152653 0.000692771 0)
(-0.000150217 0.000690228 0)
(-0.000149214 0.000703994 0)
(-0.000146768 0.000700858 0)
(-0.000145753 0.000713404 0)
(-0.000148007 0.000714742 0)
(-0.000144523 0.000723492 0)
(-0.000142261 0.000721418 0)
(-0.000141041 0.000731293 0)
(-0.000138773 0.000728702 0)
(-0.00013756 0.000737805 0)
(-0.000135285 0.000734346 0)
(-0.000134071 0.000742631 0)
(-0.000136173 0.000745375 0)
(-0.000132681 0.000749859 0)
(-0.000130581 0.000746353 0)
(-0.000129213 0.000753512 0)
(-0.000127098 0.000749131 0)
(-0.00012575 0.000755714 0)
(-0.000171203 -0.00028299 0)
(-0.000166104 -0.000283997 0)
(-0.000172365 -0.000282938 0)
(-0.000167414 -0.000282774 0)
(-0.000123631 0.000750313 0)
(-0.000122301 0.000755977 0)
(-0.000124236 0.000760622 0)
(-0.000120787 0.000759701 0)
(-0.000118858 0.000754046 0)
(-0.000122495 0.000763787 0)
(-0.000119077 0.000761811 0)
(-0.000120486 0.000764466 0)
(-0.000117204 0.000762063 0)
(-0.000117926 -0.00051396 0)
(-0.000198025 -0.00013749 0)
(-0.000179083 0.000418023 0)
(-0.000195358 0.000215383 0)
(-0.000131443 -0.000324977 0)
(-0.000112844 -0.000449607 0)
(-0.000119059 -0.000357278 0)
(-0.000203524 1.86774e-05 0)
(-4.35046e-05 -0.000203948 0)
(-4.16484e-05 -0.000197344 0)
(-4.46688e-05 -0.000221591 0)
(-4.27366e-05 -0.000214543 0)
(-4.58118e-05 -0.000238678 0)
(-4.3848e-05 -0.00023145 0)
(-4.0868e-05 -0.000207518 0)
(-4.19417e-05 -0.000224175 0)
(-4.50118e-05 -0.000246662 0)
(-4.30217e-05 -0.000238321 0)
(-4.61514e-05 -0.000259426 0)
(-4.41002e-05 -0.000249816 0)
(-3.92378e-05 -0.00020287 0)
(-4.72576e-05 -0.000270122 0)
(-4.51959e-05 -0.000259449 0)
(-4.83998e-05 -0.000279146 0)
(-4.63031e-05 -0.000267447 0)
(-4.95397e-05 -0.000286974 0)
(-4.74727e-05 -0.000275102 0)
(-4.41879e-05 -0.000256365 0)
(-4.54733e-05 -0.000264332 0)
(-4.21705e-05 -0.000247161 0)
(-4.35626e-05 -0.000254708 0)
(-4.02271e-05 -0.00023885 0)
(-4.17102e-05 -0.00024448 0)
(-4.49542e-05 -0.000261168 0)
(-4.3167e-05 -0.000248654 0)
(-3.82939e-05 -0.000228826 0)
(-4.63951e-05 -0.000266822 0)
(-4.46837e-05 -0.000252055 0)
(-5.16287e-05 -0.000299385 0)
(-4.80017e-05 -0.00027122 0)
(-4.65126e-05 -0.000254909 0)
(-4.99991e-05 -0.000274132 0)
(-4.87398e-05 -0.000257372 0)
(-4.50317e-05 -0.000239564 0)
(-4.74623e-05 -0.000242252 0)
(-4.36124e-05 -0.000225733 0)
(-4.61648e-05 -0.000227796 0)
(-4.21882e-05 -0.000212497 0)
(-4.48063e-05 -0.000213523 0)
(-4.07502e-05 -0.0001996 0)
(-4.34031e-05 -0.000200161 0)
(-3.91586e-05 -0.000187504 0)
(-4.19849e-05 -0.000188334 0)
(-3.76119e-05 -0.000176518 0)
(-4.08127e-05 -0.000177256 0)
(-3.67005e-05 -0.000166397 0)
(-4.02758e-05 -0.000166816 0)
(-3.67857e-05 -0.000156494 0)
(-4.09993e-05 -0.000157681 0)
(-3.75353e-05 -0.000147074 0)
(-4.12045e-05 -0.000148239 0)
(-3.86597e-05 -0.000137836 0)
(-4.24573e-05 -0.000140328 0)
(-4.03461e-05 -0.000129152 0)
(-4.41064e-05 -0.000132632 0)
(-4.22121e-05 -0.000121523 0)
(-4.5845e-05 -0.000125935 0)
(-4.38047e-05 -0.00011532 0)
(-4.69387e-05 -0.000120693 0)
(-4.47842e-05 -0.000111031 0)
(-4.72531e-05 -0.000117221 0)
(-4.50984e-05 -0.000108351 0)
(-4.71963e-05 -0.000115419 0)
(-4.48953e-05 -0.000106988 0)
(-4.66089e-05 -0.000114965 0)
(-4.40864e-05 -0.000107034 0)
(-4.55507e-05 -0.000115507 0)
(-4.3128e-05 -0.000107948 0)
(-4.48405e-05 -0.000116237 0)
(-4.3216e-05 -0.000108926 0)
(-4.55993e-05 -0.000116884 0)
(-4.54516e-05 -0.000109914 0)
(-4.82884e-05 -0.000118133 0)
(-4.96216e-05 -0.000111515 0)
(-5.26254e-05 -0.000120571 0)
(-5.49231e-05 -0.000114269 0)
(-5.79069e-05 -0.000124082 0)
(-6.09056e-05 -0.000117839 0)
(-4.49904e-05 -0.000151316 0)
(-4.95559e-05 -0.000124318 0)
(-6.38386e-05 -0.00012781 0)
(-5.09628e-05 -0.000126621 0)
(-4.6268e-05 -0.000201631 0)
(-3.34727e-05 -0.000165781 0)
(-5.23195e-05 -0.000276921 0)
(-0.000182647 -0.000255918 0)
(-5.18499e-05 -0.000105209 0)
(-0.000121838 -0.000452312 0)
(-3.60395e-05 -0.000125239 0)
(-4.16744e-05 -9.97243e-05 0)
(-5.33629e-05 -0.000295481 0)
(-5.56672e-05 -0.000298004 0)
(-5.66565e-05 -0.000318255 0)
(-5.88445e-05 -0.000319466 0)
(-5.99883e-05 -0.000340883 0)
(-6.20313e-05 -0.000341845 0)
(-6.33503e-05 -0.000363368 0)
(-6.53369e-05 -0.000364884 0)
(-6.67357e-05 -0.000385339 0)
(-6.86728e-05 -0.000387342 0)
(-7.00494e-05 -0.000406404 0)
(-6.72898e-05 -0.000365691 0)
(-7.06594e-05 -0.000388409 0)
(-6.92394e-05 -0.000366683 0)
(-7.26972e-05 -0.000389449 0)
(-7.13887e-05 -0.00036798 0)
(-7.48924e-05 -0.000390556 0)
(-7.38503e-05 -0.00036846 0)
(-0.000212897 -7.27363e-05 0)
(-0.000214733 -6.27693e-05 0)
(-7.72582e-05 -0.000390913 0)
(-7.63696e-05 -0.000368266 0)
(-7.85001e-05 -0.000412915 0)
(-4.17401e-05 -0.00010537 0)
(-0.000112518 -0.000409332 0)
(-0.000118822 -0.000580723 0)
(-0.0001424 -0.000309925 0)
(-0.000153297 -0.000313829 0)
(-0.000168658 0.000557084 0)
(-0.000124816 0.000743167 0)
(-0.000113767 0.000758125 0)
(-0.000136341 0.000724393 0)
(-0.000147611 0.000686131 0)
(-0.000179811 0.000540997 0)
(-0.000158289 0.000679244 0)
(-0.000146562 0.000723149 0)
(-0.000187436 0.000354284 0)
(-0.00019913 -0.000123236 0)
(-0.0001965 -0.000141782 0)
(-0.00019761 -0.000127275 0)
(-0.000195182 -0.000146078 0)
(-0.00019598 -0.000131154 0)
(-0.000193695 -0.000149808 0)
(-0.000194032 -0.00013468 0)
(-0.000191826 -0.00015303 0)
(-0.000191774 -0.000138117 0)
(-0.000189643 -0.000154672 0)
(-0.000189472 -0.000138803 0)
(-0.000187152 -0.000154819 0)
(-0.000186825 -0.00013872 0)
(-0.000184265 -0.000156388 0)
(-0.000183713 -0.000142106 0)
(-0.000180778 -0.000163361 0)
(-0.000180475 -0.00014753 0)
(-0.000177632 -0.000167069 0)
(-0.000177209 -0.000154345 0)
(-0.000174524 -0.000173757 0)
(-0.000173787 -0.000163272 0)
(-0.000171193 -0.000182949 0)
(-0.000170259 -0.000174521 0)
(-0.000171765 -0.000192237 0)
(-0.000168539 -0.000201565 0)
(-0.000168958 -0.000211556 0)
(-0.000165931 -0.00022041 0)
(-0.000166375 -0.000231562 0)
(-0.000163581 -0.000239502 0)
(-0.000164057 -0.00025185 0)
(-0.000161326 -0.000259119 0)
(-0.00016178 -0.000273325 0)
(-0.000159056 -0.000280422 0)
(-0.000158235 -0.000266162 0)
(-0.000159561 -0.000295746 0)
(-0.000156926 -0.000302063 0)
(-0.000157412 -0.000318301 0)
(-0.000154876 -0.000323476 0)
(-0.0001554 -0.000340693 0)
(-0.000152935 -0.00034563 0)
(-0.000153603 -0.000363298 0)
(-0.000151111 -0.000367688 0)
(-0.000151941 -0.000385942 0)
(-0.000149349 -0.00038862 0)
(-0.000150328 -0.000407337 0)
(-0.000148236 -0.000370118 0)
(-0.000155703 -0.000358667 0)
(-0.000147638 -0.000407506 0)
(-0.000148787 -0.000426178 0)
(-0.000146053 -0.000423695 0)
(-0.000147462 -0.000441381 0)
(-0.000149958 -0.000443563 0)
(-0.000148893 -0.000457807 0)
(-0.00015102 -0.000458042 0)
(-0.000150118 -0.000471551 0)
(-0.000147831 -0.000470666 0)
(-0.000149109 -0.000483242 0)
(-0.000151806 -0.000468475 0)
(-0.000146527 -0.000481779 0)
(-0.000147847 -0.000493246 0)
(-0.000144927 -0.000489849 0)
(-0.000146355 -0.00049995 0)
(-0.000143156 -0.000494488 0)
(-0.00014467 -0.000503092 0)
(-0.000147522 -0.000507692 0)
(-0.000145797 -0.000509846 0)
(-0.000148268 -0.000514556 0)
(-0.000146493 -0.000515848 0)
(-0.000143808 -0.000509228 0)
(-0.000144483 -0.00051401 0)
(-0.000148554 -0.000521784 0)
(-0.000141504 -0.000505791 0)
(-0.000142231 -0.000510456 0)
(-0.000164299 -0.000266293 0)
(-0.000172673 -0.00015302 0)
(-0.000169103 -0.000166263 0)
(-0.00017141 -0.000143856 0)
(-0.000167777 -0.000157079 0)
(-0.000138963 -0.000501729 0)
(-0.000139915 -0.000508939 0)
(-0.000169966 -0.00013385 0)
(-0.000166181 -0.000146067 0)
(-0.000168283 -0.00012079 0)
(-0.00016436 -0.000131659 0)
(-0.000166458 -0.000104131 0)
(-0.000162421 -0.000113992 0)
(-0.000164544 -8.47862e-05 0)
(-0.000160446 -9.40583e-05 0)
(-0.000158345 -0.000123015 0)
(-0.000156317 -0.00010201 0)
(-0.000154288 -0.000130361 0)
(-0.00015217 -0.000107936 0)
(-0.000150216 -0.000135343 0)
(-0.000148009 -0.000110907 0)
(-0.000150008 -8.36816e-05 0)
(-0.000145745 -8.47471e-05 0)
(-0.000147795 -5.74507e-05 0)
(-0.000143365 -5.88943e-05 0)
(-0.000145595 -3.16037e-05 0)
(-0.000141084 -3.50052e-05 0)
(-0.000143403 -7.99234e-06 0)
(-0.000138808 -1.32515e-05 0)
(-0.000141076 1.35653e-05 0)
(-0.000136357 7.06977e-06 0)
(-0.000138589 3.39728e-05 0)
(-0.000133788 2.69235e-05 0)
(-0.000136017 5.41409e-05 0)
(-0.000131187 4.68429e-05 0)
(-0.000133449 7.45623e-05 0)
(-0.000128597 6.66077e-05 0)
(-0.000130965 9.45315e-05 0)
(-0.000146013 -0.000137534 0)
(-0.00012605 8.49436e-05 0)
(-0.000128508 0.00011285 0)
(-0.000123533 0.000101666 0)
(-0.000125809 0.00012931 0)
(-0.000120975 0.000118729 0)
(-0.000123205 0.000146395 0)
(-0.000136403 -3.99497e-05 0)
(-0.000118334 0.000136164 0)
(-0.000120669 0.00016396 0)
(-0.000115553 0.000151892 0)
(-0.000118083 0.000180454 0)
(-0.000112752 0.000165548 0)
(-0.000115285 0.000193781 0)
(-0.000109863 0.000177788 0)
(-0.000112388 0.000206346 0)
(-0.000106881 0.000190907 0)
(-0.00010939 0.000220412 0)
(-0.000126187 3.91101e-05 0)
(-0.000103795 0.000205837 0)
(-0.000106302 0.000235761 0)
(-0.000111691 0.000252892 0)
(-0.000108584 0.000267631 0)
(-0.000103182 0.000249989 0)
(-0.000105445 0.000281433 0)
(-0.000100005 0.000263036 0)
(-0.000102266 0.000295157 0)
(-0.000107553 0.000315087 0)
(-0.000104385 0.000329096 0)
(-9.90774e-05 0.00030865 0)
(-0.000101201 0.000342604 0)
(-9.58894e-05 0.000321501 0)
(-9.79927e-05 0.000355063 0)
(-9.26978e-05 0.00033313 0)
(-9.47737e-05 0.000365559 0)
(-8.95055e-05 0.000342442 0)
(-9.15688e-05 0.000373147 0)
(-9.6696e-05 0.000396966 0)
(-9.34828e-05 0.000403413 0)
(-8.83891e-05 0.000378402 0)
(-9.02998e-05 0.000408926 0)
(-8.5239e-05 0.000382661 0)
(-8.7155e-05 0.000413902 0)
(-8.21317e-05 0.00038633 0)
(-8.40457e-05 0.000417103 0)
(-8.89304e-05 0.000444726 0)
(-8.57949e-05 0.000446326 0)
(-8.09653e-05 0.000417702 0)
(-8.2687e-05 0.000445504 0)
(-7.79102e-05 0.00041633 0)
(-7.96131e-05 0.000443117 0)
(-7.48917e-05 0.000413771 0)
(-7.65717e-05 0.000439435 0)
(-8.11382e-05 0.00046814 0)
(-7.80567e-05 0.000463369 0)
(-7.35723e-05 0.000434026 0)
(-7.50529e-05 0.000456976 0)
(-7.06364e-05 0.000427417 0)
(-7.20291e-05 0.000449467 0)
(-7.6334e-05 0.000478264 0)
(-7.33e-05 0.000470966 0)
(-6.84166e-05 0.000438263 0)
(-7.03616e-05 0.000463941 0)
(-7.44309e-05 0.000490638 0)
(-7.15525e-05 0.00048361 0)
(-6.77503e-05 0.000458189 0)
(-6.86496e-05 0.000474427 0)
(-7.22902e-05 0.000499781 0)
(-6.93941e-05 0.000489098 0)
(-6.57305e-05 0.00046289 0)
(-6.64864e-05 0.000476381 0)
(-7.00082e-05 0.000501805 0)
(-6.71123e-05 0.000488691 0)
(-7.04511e-05 0.00051307 0)
(-6.75819e-05 0.000500268 0)
(-6.42228e-05 0.000475322 0)
(-6.47022e-05 0.000487104 0)
(-6.79058e-05 0.000510715 0)
(-6.50286e-05 0.000497566 0)
(-6.80461e-05 0.00051965 0)
(-6.51902e-05 0.000506328 0)
(-6.21602e-05 0.000484252 0)
(-6.23149e-05 0.000492158 0)
(-6.52266e-05 0.000513414 0)
(-6.23277e-05 0.000498358 0)
(-6.51536e-05 0.000519419 0)
(-6.22057e-05 0.00050359 0)
(-5.94181e-05 0.000482712 0)
(-5.92657e-05 0.000487182 0)
(-6.19648e-05 0.000507963 0)
(-5.90149e-05 0.00049063 0)
(-5.63341e-05 0.000469228 0)
(-6.16013e-05 0.000511144 0)
(-5.86351e-05 0.000492701 0)
(-6.11093e-05 0.000512883 0)
(-5.81373e-05 0.000493317 0)
(-6.04883e-05 0.00051324 0)
(-5.74871e-05 0.000492463 0)
(-5.97245e-05 0.000511968 0)
(-5.66671e-05 0.000489829 0)
(-5.88657e-05 0.000509122 0)
(-5.56836e-05 0.000485307 0)
(-5.35431e-05 0.000466026 0)
(-5.78311e-05 0.000504168 0)
(-5.46305e-05 0.000479787 0)
(-5.66576e-05 0.000497484 0)
(-5.35097e-05 0.000473029 0)
(-5.53976e-05 0.000489392 0)
(-5.22277e-05 0.000464495 0)
(-5.39935e-05 0.000479577 0)
(-5.98364e-05 0.000521388 0)
(-6.35284e-05 0.000532674 0)
(-5.07824e-05 0.00045421 0)
(-5.24591e-05 0.000468109 0)
(-4.90209e-05 0.000438755 0)
(-0.000109536 0.000349368 0)
(-0.000115705 0.000106438 0)
(-4.92336e-05 0.000442286 0)
(-5.08261e-05 0.0004552 0)
(-5.4049e-05 0.000480698 0)
(-5.23394e-05 0.000467106 0)
(-5.55722e-05 0.000492593 0)
(-5.37745e-05 0.000478266 0)
(-0.00012379 0.000194053 0)
(-5.05451e-05 0.000452447 0)
(-5.18941e-05 0.000462962 0)
(-0.000136385 -0.000500998 0)
(-0.000137527 -0.0005097 0)
(-0.000140941 -0.000517281 0)
(-0.000138653 -0.000516214 0)
(-0.000142035 -0.000524375 0)
(-0.000139781 -0.000520158 0)
(-0.000143033 -0.000530281 0)
(-0.000140802 -0.000523433 0)
(-0.000143895 -0.00053529 0)
(-0.000141708 -0.000526473 0)
(-0.000138483 -0.00051485 0)
(-0.000139486 -0.000516191 0)
(-0.000142438 -0.000529322 0)
(-0.00014056 -0.000518752 0)
(-0.000137449 -0.000504592 0)
(-0.000138829 -0.000505911 0)
(-0.000141687 -0.000522336 0)
(-0.000140273 -0.000508073 0)
(-0.000137128 -0.000489894 0)
(-0.000138773 -0.000489103 0)
(-0.000141555 -0.000508195 0)
(-0.000140102 -0.000485223 0)
(-0.000142421 -0.000504223 0)
(-0.000140931 -0.000478054 0)
(-0.000138303 -0.000458078 0)
(-0.000138987 -0.000448293 0)
(-0.000140902 -0.000466316 0)
(-0.000138737 -0.000434324 0)
(-0.000136569 -0.000416448 0)
(-0.000136272 -0.000400323 0)
(-0.00013792 -0.0004161 0)
(-0.000135666 -0.00038053 0)
(-0.000137001 -0.000395428 0)
(-0.000135075 -0.000358808 0)
(-0.000133527 -0.000344087 0)
(-0.000133113 -0.000321086 0)
(-0.000134512 -0.000335008 0)
(-0.00013253 -0.000294984 0)
(-0.00013091 -0.0002809 0)
(-4.86654e-05 0.000436892 0)
(-4.99393e-05 0.000447078 0)
(-0.000138117 8.17713e-05 0)
(-0.000133686 -0.000501206 0)
(-0.000132378 -0.000491806 0)
(-0.000104068 0.000163844 0)
(-5.70212e-05 0.000503763 0)
(-0.000189611 -0.000169325 0)
(-4.67111e-05 0.000420695 0)
(-4.79185e-05 0.000430776 0)
(-8.72923e-05 0.00031147 0)
(-0.000129442 -0.000490384 0)
(-0.000128053 -0.000481752 0)
(-4.46876e-05 0.000403949 0)
(-4.58275e-05 0.00041369 0)
(-4.905e-05 0.000440027 0)
(-4.3483e-05 0.000393677 0)
(-0.000141473 -0.000483725 0)
(-0.000125017 -0.000478775 0)
(-0.000123441 -0.000470621 0)
(-0.000147793 -4.87843e-06 0)
(-0.000168516 -7.45089e-05 0)
(-0.000120306 -0.000465697 0)
(-0.00011845 -0.000458311 0)
(-0.000130714 0.000142551 0)
(-7.30483e-05 0.000387074 0)
(-9.05367e-05 0.000472718 0)
(-0.000200916 0.000149371 0)
(-0.000128404 -0.000530346 0)
(-8.07806e-05 -0.00041274 0)
(-8.22997e-05 -0.000434473 0)
(-0.000131846 -0.000362564 0)
(-0.000118518 -0.000484371 0)
(-3.68423e-05 -0.000224336 0)
(-3.49154e-05 -0.000215199 0)
(-3.35718e-05 -0.000211928 0)
(-3.17144e-05 -0.000204227 0)
(-3.05645e-05 -0.000201712 0)
(-2.87595e-05 -0.000194261 0)
(-2.78343e-05 -0.000192528 0)
(-2.6109e-05 -0.00018461 0)
(-2.54382e-05 -0.000183001 0)
(-2.3762e-05 -0.000175203 0)
(-2.33895e-05 -0.000173363 0)
(-2.18037e-05 -0.000165574 0)
(-2.16021e-05 -0.000163386 0)
(-2.0164e-05 -0.000155858 0)
(-2.00357e-05 -0.000153094 0)
(-1.87859e-05 -0.000145359 0)
(-1.86247e-05 -0.000141587 0)
(-1.7592e-05 -0.000133454 0)
(-1.73158e-05 -0.000129571 0)
(-1.84076e-05 -0.000136365 0)
(-1.70171e-05 -0.000125282 0)
(-1.81395e-05 -0.000130752 0)
(-1.68086e-05 -0.000120473 0)
(-1.78558e-05 -0.000123107 0)
(-1.66061e-05 -0.000112212 0)
(-1.76212e-05 -0.000111543 0)
(-1.63619e-05 -9.99195e-05 0)
(-1.74128e-05 -9.76109e-05 0)
(-1.61481e-05 -8.63203e-05 0)
(-1.71786e-05 -8.32033e-05 0)
(-1.58916e-05 -7.22451e-05 0)
(-1.68885e-05 -6.93304e-05 0)
(-1.55983e-05 -5.91734e-05 0)
(-1.65432e-05 -5.76707e-05 0)
(-1.52567e-05 -4.88536e-05 0)
(-1.64426e-05 -0.000121567 0)
(-1.68622e-05 -0.000124925 0)
(-1.47056e-05 -6.17362e-05 0)
(-1.58088e-05 -0.000114169 0)
(-1.62979e-05 -0.000118818 0)
(-1.53609e-05 -0.000109577 0)
(-1.58936e-05 -0.000114947 0)
(-1.49494e-05 -0.000106101 0)
(-1.54631e-05 -0.000110794 0)
(-1.4438e-05 -0.00010192 0)
(-1.48708e-05 -0.000105008 0)
(-1.39908e-05 -9.6596e-05 0)
(-1.3491e-05 -9.28227e-05 0)
(-1.30894e-05 -8.72147e-05 0)
(-1.59838e-05 -0.000112763 0)
(-1.53663e-05 -0.000106051 0)
(-1.26609e-05 -8.42128e-05 0)
(-1.23101e-05 -7.93538e-05 0)
(-1.64753e-05 -0.00011262 0)
(-1.59448e-05 -0.000106197 0)
(-1.19498e-05 -7.67787e-05 0)
(-1.15908e-05 -7.31394e-05 0)
(-2.44347e-05 -0.000173205 0)
(-1.86604e-05 -0.00010794 0)
(-4.7809e-05 -0.000246116 0)
(-6.82392e-05 -0.000403165 0)
(-7.16854e-05 -0.000423833 0)
(-6.9969e-05 -0.000420011 0)
(-7.36584e-05 -0.000440033 0)
(-7.19763e-05 -0.000435551 0)
(-7.56277e-05 -0.000453136 0)
(-7.40188e-05 -0.000448967 0)
(-7.75267e-05 -0.000464393 0)
(-7.59733e-05 -0.000461138 0)
(-7.95828e-05 -0.000476302 0)
(-7.79276e-05 -0.00047367 0)
(-8.15527e-05 -0.000489319 0)
(-7.99018e-05 -0.000486143 0)
(-8.07415e-05 -0.000477163 0)
(-8.34687e-05 -0.000502135 0)
(-8.19076e-05 -0.000497696 0)
(-8.5498e-05 -0.0005134 0)
(-8.40101e-05 -0.0005074 0)
(-8.05209e-05 -0.000489562 0)
(-8.26495e-05 -0.000497388 0)
(-1.70779e-05 -0.000111936 0)
(-1.66969e-05 -0.000105542 0)
(-1.54787e-05 -9.96102e-05 0)
(-1.64512e-05 -9.87795e-05 0)
(-1.51663e-05 -9.31156e-05 0)
(-1.64314e-05 -9.20722e-05 0)
(-1.5127e-05 -8.68934e-05 0)
(-1.67133e-05 -8.57418e-05 0)
(-1.54947e-05 -8.076e-05 0)
(-1.73415e-05 -7.98075e-05 0)
(-4.72424e-05 -0.000123986 0)
(-1.12644e-05 -7.06438e-05 0)
(-1.08701e-05 -6.83746e-05 0)
(-1.12548e-05 -7.03895e-05 0)
(-1.05335e-05 -6.56906e-05 0)
(-7.92503e-05 -0.000476929 0)
(-8.13448e-05 -0.000482813 0)
(-1.80256e-05 -9.1565e-05 0)
(-0.00011511 -0.000450249 0)
(-0.000112966 -0.000443513 0)
(-0.000116886 -0.000454431 0)
(-0.000186146 -0.000122312 0)
(-7.78948e-05 -0.000460256 0)
(-7.99833e-05 -0.000464067 0)