/*--------------------------------*- C++ -*----------------------------------*\
| =========                 |                                                 |
| \\      /  F ield         | OpenFOAM: The Open Source CFD Toolbox           |
|  \\    /   O peration     | Version:  v2012                                 |
|   \\  /    A nd           | Website:  www.openfoam.com                      |
|    \\/     M anipulation  |                                                 |
\*---------------------------------------------------------------------------*/
FoamFile
{
    version     2.0;
    format      ascii;
    class       surfaceVectorField;
    location    "1000";
    object      Uf;
}
// * * * * * * * * * * * * * * * * * * * * * * * * * * * * * * * * * * * * * //

dimensions      [0 1 -1 0 0 0 0];


internalField   nonuniform List<vector> 
20537
(
(1.01772 -0.0214598 1.60695e-22)
(1.01581 -0.0217051 -6.24037e-23)
(1.01705 -0.0237707 4.81529e-23)
(0.879255 0.44175 -2.50781e-20)
(0.870682 0.447992 7.57811e-21)
(0.868543 0.439972 -6.54124e-22)
(0.951902 0.0229358 -8.91749e-23)
(0.95731 0.027881 -9.38476e-23)
(0.950039 0.0318727 -4.80838e-24)
(1.01431 -0.0186462 1.74769e-23)
(1.01464 -0.0201965 -9.58396e-22)
(1.01263 -0.019068 5.31987e-22)
(0.948313 -0.0603089 -3.86906e-21)
(0.946078 -0.0556627 5.43357e-22)
(0.951295 -0.0564599 -7.80295e-21)
(0.883869 -0.0604415 -8.8561e-21)
(0.902222 -0.0613382 1.28674e-23)
(0.900117 -0.0479529 4.80781e-21)
(1.02834 -0.000995364 2.55169e-21)
(1.02884 -0.001202 2.01211e-21)
(1.02872 -0.000721452 4.9184e-21)
(0.991138 -0.00264562 2.28873e-21)
(0.992325 -0.00530588 1.74306e-21)
(0.988726 -0.0052912 1.8414e-21)
(1.01571 0.00193951 -2.06262e-22)
(1.01603 0.00204744 -1.24692e-22)
(1.01589 0.00196526 3.76681e-22)
(1.05593 0.0416286 4.35565e-22)
(1.04966 0.0316771 2.4864e-21)
(1.04174 0.0422763 1.91458e-23)
(0.748517 0.0330282 -1.44979e-21)
(0.743127 0.0270885 0)
(0.763558 0.0365356 -4.29355e-22)
(0.548857 0.0361804 1.49639e-20)
(0.472477 0.206171 5.05272e-20)
(0.443414 0.105858 3.6071e-20)
(0.930027 -0.168012 5.94627e-21)
(0.930196 -0.160096 0)
(0.936761 -0.162816 -1.10685e-20)
(0.196928 -0.171406 0)
(0.260028 -0.148077 -1.01898e-20)
(0.174923 -0.215975 -9.34472e-21)
(1.01908 -0.000359178 0)
(1.01914 -0.000302945 3.99387e-22)
(1.01916 -0.000397891 4.1152e-21)
(1.02061 0.007778 3.2011e-24)
(1.0197 0.00661719 -1.44116e-21)
(1.01937 0.00828877 -1.9817e-24)
(1.02598 -0.0109166 -5.92711e-21)
(1.02645 -0.0102075 5.37009e-22)
(1.02666 -0.0111284 -3.84082e-21)
(1.06551 -0.0158684 4.86073e-22)
(1.06345 -0.0126875 -2.65529e-22)
(1.06806 -0.0131643 1.10509e-22)
(0.895193 -0.1475 -3.08503e-21)
(0.885175 -0.145259 -1.9834e-21)
(0.89271 -0.135569 6.20963e-21)
(1.01539 0.00182523 3.26636e-23)
(1.01554 0.00188617 3.00484e-22)
(1.01382 -0.0170218 0)
(1.01582 -0.0178765 0)
(0.953208 0.01425 0)
(0.944747 0.016605 3.57597e-22)
(1.00909 -3.55674e-05 -5.82079e-23)
(1.00999 5.38094e-05 5.68784e-22)
(1.01094 0.000167807 1.9455e-23)
(1.01002 3.17447e-05 1.17412e-22)
(1.00789 3.96905e-05 6.45593e-22)
(1.01036 2.84409e-05 6.10012e-22)
(1.00818 2.14024e-05 0)
(1.00661 -0.000120788 1.31292e-22)
(0.993252 -6.58219e-05 -4.1233e-23)
(0.989484 0.000632161 1.59058e-21)
(1.03492 -0.0186824 0)
(1.03536 -0.0178839 0)
(1.03438 -0.017853 0)
(0.0213407 -0.225122 1.49065e-21)
(0.0541841 -0.254427 2.22579e-20)
(1.0187 -0.0199355 2.95658e-24)
(1.01982 -0.0218052 1.41546e-22)
(1.04029 -0.00326572 -8.52941e-22)
(1.03992 -0.00237025 4.44318e-22)
(1.04149 -0.00266471 4.59928e-22)
(0.863358 -0.0537418 -8.73908e-21)
(0.869421 -0.0747051 -9.72272e-21)
(1.02516 -0.0104452 -5.96037e-21)
(1.02541 -0.0115861 -5.2804e-22)
(0.964331 0.0252044 0)
(0.963734 0.0338093 1.1828e-21)
(0.924043 -0.138595 -1.53021e-20)
(0.922264 -0.134511 -3.0898e-21)
(0.930255 -0.134683 1.20859e-21)
(1.00978 6.05731e-05 -5.34378e-22)
(1.01132 8.6161e-05 -1.02553e-21)
(0.974973 -0.153627 -1.99813e-21)
(0.97579 -0.157575 2.14082e-20)
(0.971654 -0.155711 3.39001e-20)
(0.944675 -0.152535 -1.36863e-20)
(0.949319 -0.151666 -2.07755e-20)
(0.948229 -0.155699 3.85255e-21)
(0.820588 -0.0205274 2.28712e-21)
(0.818498 -0.0386118 4.18687e-21)
(0.834676 -0.0244957 2.22029e-21)
(1.06919 0.0424312 2.94366e-21)
(1.05842 0.0579225 1.84838e-21)
(0.916651 -0.139995 -6.68812e-22)
(0.922184 -0.145242 -1.10011e-21)
(1.01832 -0.00475481 -4.01856e-23)
(1.01829 -0.0049803 7.14024e-22)
(1.01865 -0.00500388 -1.77103e-22)
(1.01411 -0.00230925 -2.88721e-23)
(1.01425 -0.00237931 0)
(1.01402 -0.0021322 0)
(0.0787713 0.216744 3.01712e-22)
(0.112464 0.189735 -3.19693e-20)
(0.0825556 0.175574 -2.78866e-20)
(0.759171 -0.00654236 1.43261e-22)
(0.76677 -0.0138251 2.33394e-21)
(0.752489 0.0018792 -5.71589e-21)
(0.755409 0.000479288 -2.29404e-21)
(0.779688 -0.0167261 -9.21675e-22)
(0.560813 -0.256641 5.61411e-20)
(0.640314 -0.244902 -2.41114e-21)
(0.677364 -0.336603 5.26629e-21)
(0.873187 -0.0660129 0)
(0.840554 -0.0516033 0)
(0.881841 -0.0564658 0)
(0.721458 0.00113523 2.68214e-21)
(0.706367 0.0583966 2.11696e-23)
(0.74164 0.0260318 -1.63564e-21)
(1.03443 -0.0195079 -2.34608e-21)
(1.03549 -0.0195178 4.75791e-21)
(0.96028 0.0681026 2.51326e-21)
(0.975442 0.0630974 -1.21556e-21)
(0.959197 0.0476135 1.9164e-21)
(0.983942 -0.0903413 1.32436e-20)
(0.982899 -0.0935216 -5.02621e-21)
(0.98681 -0.0924711 1.34927e-20)
(0.951806 -0.109729 0)
(0.954516 -0.10897 0)
(0.95381 -0.112893 0)
(-0.120903 -0.126919 8.75795e-21)
(-0.0976222 -0.103239 -5.57413e-20)
(-0.0842955 -0.155474 8.08501e-21)
(1.01895 -0.000371998 3.45102e-21)
(1.01864 -0.000158282 3.08198e-21)
(1.01896 -0.000416015 4.26223e-22)
(1.01376 -0.000457552 1.57266e-21)
(1.01361 -0.00046354 -1.78173e-21)
(1.01454 -0.000488052 3.1896e-21)
(1.01396 -0.00219879 5.34032e-23)
(1.01419 -0.0024911 -9.75575e-23)
(1.01139 -0.000302741 5.28203e-23)
(1.012 -0.000325702 2.91606e-22)
(1.01098 -0.000255865 -2.03738e-22)
(-0.188334 -0.156731 -7.17158e-21)
(-0.229499 -0.128395 -2.10918e-22)
(-0.159198 -0.177638 -7.22434e-22)
(1.03903 -0.00377736 0)
(1.04037 -0.004305 0)
(1.02912 -0.0036382 -3.82622e-21)
(1.02875 -0.00338389 4.58245e-21)
(1.02923 -0.00324191 2.22169e-21)
(0.802672 -0.0161996 -5.46466e-21)
(0.821014 -0.00300503 3.90881e-21)
(0.619751 -0.349551 0)
(0.653197 -0.384528 0)
(0.604534 -0.39409 1.40202e-21)
(1.11777 -0.0973713 2.47033e-21)
(1.1076 -0.108566 1.87564e-21)
(1.10459 -0.0925179 2.49376e-21)
(0.944827 -0.0732007 8.57774e-21)
(0.942015 -0.0692007 4.13187e-22)
(0.939542 -0.0735727 -4.06419e-23)
(0.826094 0.244134 -9.6087e-22)
(0.869272 0.236494 -2.76657e-22)
(0.866619 0.218095 9.56417e-21)
(1.01068 -0.0304006 -4.22538e-22)
(1.00977 -0.0276717 -1.59359e-22)
(1.00765 -0.0300725 7.78532e-22)
(0.941658 -0.149826 2.14948e-21)
(0.940468 -0.153562 2.50725e-21)
(0.929187 -0.0880416 -1.46002e-21)
(0.901475 -0.0791151 -1.58461e-21)
(1.02083 -0.045229 1.91511e-22)
(1.01907 -0.0434987 8.47727e-21)
(1.0215 -0.0427229 7.83607e-21)
(1.06252 -0.0181757 1.67334e-22)
(1.06661 -0.0198444 -1.31702e-22)
(0.879773 -0.0666316 -1.18923e-20)
(0.86481 -0.0681496 -2.38095e-20)
(0.83093 -0.0603302 -4.50699e-21)
(0.928021 -0.157152 1.25098e-20)
(0.92607 -0.16117 4.64871e-22)
(0.931694 -0.161092 -1.10527e-20)
(0.878169 0.424527 -1.35143e-20)
(0.893719 0.438667 -3.00956e-20)
(1.01903 -0.000341315 0)
(1.01885 -0.000391361 0)
(1.01489 -0.000645219 -1.38008e-21)
(1.01508 -0.000702376 -4.01274e-22)
(1.01506 -0.000738914 1.96388e-21)
(1.01843 0.0027851 -2.00566e-22)
(1.01857 0.0028223 0)
(1.01817 0.00273153 1.19689e-22)
(0.952204 0.00934634 8.22475e-22)
(0.957297 0.0134733 0)
(1.02171 -0.0846835 -1.65313e-20)
(1.0329 -0.0895559 -1.46591e-20)
(1.02702 -0.0847101 -1.13687e-20)
(0.99059 -0.0407854 -3.36145e-21)
(0.988464 -0.0432337 -3.13113e-21)
(0.987081 -0.0399081 -2.97577e-22)
(0.827684 -0.0715331 9.45625e-21)
(0.802034 -0.0644172 1.37496e-20)
(1.03084 -0.00661846 4.40277e-21)
(1.03035 -0.00652852 -9.93641e-21)
(1.03055 -0.00618952 -1.35673e-21)
(0.863961 -0.123496 6.85083e-21)
(0.886107 -0.119719 -3.57251e-22)
(0.867372 -0.118739 9.54923e-22)
(1.02115 -0.00328679 -9.12441e-22)
(1.02137 -0.003431 -2.41347e-21)
(1.02101 -0.00329288 0)
(0.555875 -0.0941709 8.56399e-20)
(0.586352 -0.0954877 1.11092e-19)
(0.49789 -0.012209 -1.35716e-23)
(1.12639 -0.0863523 -8.73653e-23)
(1.13404 -0.102788 -1.97929e-21)
(0.611488 -0.124629 -4.26978e-20)
(0.666462 -0.0224415 -4.58842e-20)
(0.910268 -0.00275636 1.21691e-22)
(0.904756 -0.016374 6.2163e-21)
(0.920903 -0.0137941 1.07108e-21)
(0.621981 -0.191101 -1.82144e-20)
(0.582624 -0.136857 6.08655e-21)
(0.62233 -0.221949 4.57953e-21)
(1.02794 -0.0176901 0)
(1.02711 -0.0168933 -7.24347e-21)
(1.02684 -0.01835 -3.98906e-21)
(1.01226 0.00222031 -9.78513e-23)
(1.0127 0.00155446 0)
(1.01286 0.00295641 1.9535e-22)
(0.976865 -0.151456 -2.10943e-20)
(0.973044 -0.150148 -1.34652e-20)
(1.06665 -0.0182069 2.77266e-21)
(1.08605 -0.018464 -1.33187e-20)
(1.07164 -0.0334136 -2.85888e-21)
(0.911626 -0.0921258 0)
(1.02409 -0.0226336 -5.4468e-21)
(1.02284 -0.0224284 -5.28157e-21)
(1.02319 -0.0241113 1.51519e-21)
(1.02893 -0.0175454 -1.10494e-20)
(1.02865 -0.0187246 0)
(1.00932 -0.000105444 1.6559e-23)
(1.00945 -0.000129035 3.3188e-22)
(1.01074 -0.000266211 1.58528e-22)
(0.944762 -0.064624 0)
(0.950449 -0.0653335 1.11915e-20)
(1.01088 -0.238165 0)
(1.03161 -0.246672 0)
(1.03301 -0.229079 -2.74091e-20)
(0.93998 0.0703837 3.18783e-23)
(0.959336 0.0868062 -6.29353e-21)
(1.00692 -8.70556e-06 5.27848e-23)
(1.00911 -0.000121008 2.12349e-23)
(-0.31432 -0.191479 -1.04105e-20)
(-0.205591 -0.151544 4.59585e-20)
(-0.256488 -0.198361 -2.66864e-20)
(0.992196 -0.0599884 -6.35822e-22)
(0.994387 -0.0626947 -6.16771e-22)
(0.99553 -0.0591197 1.64658e-20)
(1.02676 -0.0117883 0)
(1.02784 -0.0121678 -7.54712e-22)
(1.02709 -0.0126715 0)
(1.04646 -0.0159609 1.75413e-21)
(1.04724 -0.0169139 1.07423e-20)
(1.00745 -6.13099e-05 0)
(1.00903 -6.80371e-05 8.44691e-24)
(1.00773 -5.8304e-05 0)
(0.894208 0.0319068 -5.23004e-21)
(0.894572 0.0600506 9.68335e-21)
(0.912865 0.0465875 -1.57568e-21)
(0.994057 -0.071951 3.91528e-21)
(0.991915 -0.0693608 0)
(0.990253 -0.073007 8.11091e-21)
(1.01302 -0.000583446 9.2576e-23)
(1.01303 -0.000781793 7.20637e-23)
(1.01293 -0.000578794 5.5483e-23)
(0.916882 -0.16079 -1.13505e-20)
(0.913309 -0.160556 -1.33619e-20)
(0.906489 -0.0748028 3.48798e-21)
(0.916117 -0.0639639 0)
(1.00947 1.86337e-06 2.40564e-22)
(1.00713 -3.83257e-06 1.4973e-22)
(1.00938 -1.5924e-05 1.36933e-22)
(1.01178 0.00309253 -8.85192e-23)
(1.01166 0.00115468 -4.14218e-22)
(1.05114 -0.0199698 2.16305e-22)
(1.05953 -0.00873113 -2.33968e-21)
(1.00511 9.46558e-05 -3.05665e-22)
(1.00515 3.65346e-06 -1.08012e-21)
(1.01083 -4.56749e-06 5.63251e-25)
(1.00927 1.28798e-05 4.53209e-22)
(1.09944 -0.150903 -1.48097e-20)
(1.09112 -0.131872 6.89284e-21)
(0.992353 -0.222387 3.51227e-21)
(0.985977 -0.237421 6.20082e-22)
(1.01335 -0.00110335 1.54288e-23)
(1.01341 -0.00119947 -1.79737e-23)
(1.01329 -0.00115363 -1.60755e-23)
(1.01022 -0.000239081 0)
(1.01009 -0.000231379 0)
(1.00781 -0.000116237 2.14578e-23)
(1.0135 -0.000389251 -1.00594e-21)
(1.01242 -0.000416849 1.57029e-21)
(1.01191 -0.000333385 -1.02951e-21)
(0.0608087 0.24078 5.13842e-20)
(0.0475059 0.236308 -1.23539e-20)
(1.04506 -0.016716 1.08222e-22)
(1.04528 -0.0151453 -1.06723e-20)
(0.922391 -0.172228 -1.11125e-21)
(0.929611 -0.175813 5.94553e-21)
(0.955789 0.0891509 -8.30521e-21)
(0.742373 -0.0500318 5.21402e-21)
(0.714784 -0.0167696 5.25019e-21)
(1.03989 0.00791335 -1.78827e-22)
(1.03912 0.00519414 8.84424e-23)
(1.04221 0.00624901 -1.33772e-22)
(0.778385 -0.10257 -1.55108e-21)
(0.776195 -0.0720179 -3.26201e-22)
(0.990804 -0.0492211 -1.82746e-22)
(0.991899 -0.0517622 1.24579e-22)
(0.988315 -0.0508741 1.32517e-20)
(1.01359 -0.0155032 1.71192e-22)
(1.01205 -0.0159779 0)
(0.896317 -0.0713745 8.33471e-22)
(0.902521 -0.0716848 0)
(0.897546 -0.0796916 3.99103e-21)
(1.01801 -0.00450914 -1.97433e-22)
(1.01834 -0.00452583 -6.52145e-22)
(1.01255 -0.000379269 0)
(1.01264 -0.000477613 0)
(1.01252 -0.000509614 0)
(0.89245 -0.0712852 1.31467e-20)
(0.883934 -0.0797548 1.02449e-20)
(1.02125 -0.00322974 1.04903e-21)
(1.02087 -0.00309478 2.32436e-22)
(1.09959 -0.218044 -5.0292e-21)
(1.01229 -0.000366536 7.70511e-23)
(1.01222 -0.000315138 -3.93482e-22)
(1.01192 -0.000289635 -3.16718e-23)
(1.01331 -0.000985755 -5.82877e-23)
(1.01343 -0.00102112 -1.64086e-23)
(0.930453 -0.153823 1.41332e-21)
(0.933035 -0.150711 -9.8779e-21)
(0.9358 -0.154119 -1.00817e-20)
(0.310669 -0.199827 1.7981e-23)
(0.295225 -0.20287 1.15285e-21)
(0.319671 -0.149205 1.723e-21)
(0.572947 0.263367 8.84559e-21)
(0.609557 0.297279 -1.92967e-20)
(0.582496 0.311929 1.26105e-20)
(-0.379196 -0.191656 2.12531e-20)
(-0.405314 -0.25262 -8.60194e-21)
(1.01414 -0.000545524 0)
(1.01256 -0.000228588 0)
(1.02975 0.00366627 0)
(1.03116 0.00448947 0)
(1.03151 0.00276588 1.48655e-22)
(1.01994 -0.00584376 -8.76875e-23)
(1.0201 -0.00525109 5.65347e-23)
(1.02066 -0.00593234 -4.96815e-23)
(1.02973 -0.00659647 6.9732e-22)
(1.02947 -0.00660098 -2.02406e-21)
(1.0296 -0.00707702 -7.13721e-21)
(0.787251 -0.0326712 5.81859e-21)
(0.778235 -0.0185393 7.66003e-21)
(1.00792 0.0402973 8.72311e-21)
(1.01115 0.0402827 2.53432e-22)
(1.0042 0.0359993 2.30217e-22)
(0.886245 -0.0712269 4.49889e-21)
(0.892427 -0.0622126 5.56904e-22)
(1.0278 -0.000720401 2.50832e-21)
(1.02787 -0.00120854 0)
(0.739648 0.0137108 9.577e-22)
(0.75483 0.0107851 8.77844e-22)
(1.02662 -0.125158 7.22152e-21)
(1.02242 -0.126937 -2.80768e-20)
(1.01279 -0.000506912 -2.84053e-23)
(1.01318 -0.000461348 -6.72397e-22)
(1.01392 -0.000460279 -9.6764e-22)
(0.125539 -0.207019 0)
(0.223531 -0.142601 0)
(1.0108 -0.000235463 2.01595e-22)
(1.01175 -0.000363369 2.0763e-22)
(1.03128 -0.0112024 -1.3533e-20)
(1.03164 -0.0116811 -6.41189e-21)
(1.03169 -0.0110758 4.02056e-22)
(1.02986 -0.00611983 5.17509e-21)
(1.02985 -0.00648123 4.11463e-21)
(1.01448 -0.00238919 -2.65266e-23)
(1.01441 -0.00230707 -5.32188e-22)
(1.0145 -0.00229766 3.16715e-22)
(1.03531 -0.00422983 -5.7614e-22)
(1.03451 -0.0046096 -3.15748e-21)
(1.03461 -0.00416567 -1.41453e-21)
(0.949499 -0.112448 0)
(0.949063 -0.107835 0)
(0.98515 -0.0866524 -3.3317e-22)
(0.981164 -0.0876538 -1.67001e-20)
(1.01402 0.00333434 -3.06094e-25)
(1.01408 0.00301497 -2.57032e-25)
(1.01436 0.00365306 3.26328e-24)
(1.03249 -0.0301821 -7.13842e-21)
(1.03116 -0.0306731 0)
(1.03228 -0.0319991 -1.13353e-20)
(-0.151041 -0.184217 4.90617e-20)
(-0.198792 -0.139222 -2.49542e-20)
(1.01245 -0.000294972 -6.01382e-22)
(1.0126 -0.000246882 0)
(1.0434 0.011346 -5.9404e-22)
(1.04072 0.0105218 -6.26327e-22)
(1.04228 0.0088756 -1.10184e-21)
(1.01691 -0.00416004 5.67483e-23)
(1.01742 -0.00431308 -1.94049e-22)
(1.01715 -0.00389693 -4.97624e-25)
(1.00669 0.0389689 -1.09242e-21)
(1.01452 0.0448589 4.9985e-21)
(1.02017 -0.0477501 3.18244e-23)
(1.02269 -0.0466031 -2.70046e-22)
(1.01484 -0.0149061 -7.84635e-22)
(1.01329 -0.0142387 8.98673e-23)
(1.14705 -0.365493 -5.53926e-21)
(1.16303 -0.363094 -1.32831e-19)
(1.15877 -0.328488 -2.27806e-20)
(0.962728 -0.0818547 -5.62875e-20)
(1.01921 -0.0838193 5.43947e-21)
(1.01408 -0.000253619 1.00029e-22)
(1.01419 -0.000176961 2.95343e-22)
(1.01424 -0.000296174 5.27281e-22)
(1.01454 -0.0024737 -1.99717e-22)
(1.01448 -0.00246629 -6.58964e-22)
(0.542998 0.229399 1.90417e-20)
(0.565609 0.220414 -3.28794e-21)
(1.01235 -0.000220326 -9.08059e-22)
(1.0123 -0.000327324 4.55814e-23)
(0.704828 0.106947 -1.42779e-21)
(0.67586 0.0948766 6.22879e-21)
(0.989441 -0.0460858 0)
(0.993008 -0.0470675 1.33658e-20)
(1.02713 0.00861793 1.98057e-23)
(1.02609 0.00924364 -7.55014e-23)
(1.02796 0.0100288 -1.2067e-22)
(0.901124 -0.156583 -3.08849e-21)
(0.905359 -0.146505 -1.52301e-21)
(1.01316 -0.000538737 -4.48254e-24)
(1.01315 -0.000273064 1.27776e-23)
(1.01323 -0.000501274 -1.4467e-23)
(1.02369 -0.010548 -4.9985e-22)
(1.02436 -0.00995518 3.39978e-22)
(1.02364 -0.00945197 1.14702e-22)
(0.925389 -0.153501 1.05677e-20)
(1.02107 -0.0029375 -6.61251e-21)
(1.02083 -0.00276756 -6.5207e-21)
(1.02074 -0.00285227 -6.69766e-21)
(0.938383 0.020246 5.17404e-22)
(0.939867 0.0121671 2.03832e-22)
(1.01286 0.000332405 1.64009e-22)
(1.01257 0.000250697 9.84485e-23)
(1.01282 0.000356018 -1.8276e-23)
(1.00858 -0.000102565 -2.00122e-23)
(1.00912 -2.09255e-05 2.16822e-22)
(1.00996 8.38994e-05 -1.89674e-23)
(1.01207 -0.0329789 -5.49862e-22)
(1.01372 -0.0303578 -9.86642e-23)
(1.01447 -0.000565388 -8.23569e-22)
(1.01432 -0.000532773 -7.54784e-22)
(0.934783 -0.054779 -8.84164e-22)
(0.932137 -0.0493377 -3.84336e-22)
(0.92757 -0.0546485 -1.13603e-21)
(0.979879 -0.0127276 1.28667e-22)
(0.977808 -0.0256522 0)
(0.991859 -0.0185494 0)
(0.864648 -0.0725918 6.13939e-22)
(-0.131702 -0.15483 4.66093e-20)
(-0.166548 -0.0960851 -3.08178e-20)
(1.01118 0.00388929 2.08117e-22)
(1.01022 0.00265538 1.99159e-22)
(1.01049 0.00475787 1.65011e-22)
(1.01289 -0.0369987 -7.23666e-21)
(1.01433 -0.0386221 6.01258e-21)
(1.01512 -0.0365491 -8.06766e-21)
(0.587982 -0.312249 0)
(0.625665 -0.309204 -3.87434e-22)
(1.03088 -0.010274 1.18154e-20)
(1.03099 -0.0107348 -1.74176e-21)
(1.03123 -0.0103663 4.29441e-21)
(1.02838 0.00313739 1.82106e-22)
(1.02799 0.00411436 2.97397e-23)
(0.887105 -0.134078 3.36432e-23)
(0.858274 -0.105639 1.90543e-22)
(0.87294 -0.118743 -1.18383e-20)
(1.02828 0.00775743 4.89137e-22)
(1.02646 0.00730561 3.28633e-23)
(1.01827 0.00273174 8.39671e-23)
(1.01869 0.00283634 -2.5898e-22)
(1.04053 0.0105363 -3.15505e-21)
(1.03757 0.00903515 -1.73078e-22)
(0.866771 -0.626055 0)
(0.946144 -0.659253 0)
(0.967403 -0.585679 4.51696e-20)
(1.00571 -9.87367e-05 8.96336e-22)
(1.00874 -0.000139105 7.33666e-22)
(1.00517 -0.000138305 -1.00963e-21)
(1.01936 -0.00318048 -1.43702e-21)
(1.01905 -0.00300476 -1.58291e-22)
(1.01925 -0.00318905 -1.40303e-21)
(1.01742 -0.00362822 2.11775e-22)
(1.01259 2.90216e-05 -2.67086e-23)
(1.01757 0.00173868 -9.85279e-22)
(1.02142 -0.00300549 -3.46818e-22)
(1.02132 -0.00311764 4.10205e-21)
(0.407975 0.162742 -5.94814e-21)
(0.399904 0.155454 -6.71498e-21)
(0.414236 0.207256 6.45743e-22)
(1.02594 -0.013041 7.52422e-21)
(1.02662 -0.012691 -2.20457e-21)
(1.02659 -0.0138345 -3.3225e-21)
(0.975503 -0.0930211 8.02826e-21)
(0.970222 -0.0897238 4.04491e-21)
(0.972026 -0.0932647 1.80557e-20)
(1.01358 0.00122103 -2.03818e-23)
(1.01366 0.00144754 -1.20733e-24)
(1.01351 0.000965216 0)
(0.949242 -0.115141 -1.81415e-20)
(0.951852 -0.113593 1.47158e-20)
(0.953002 -0.113827 -2.10585e-20)
(1.02636 -0.011014 0)
(1.0257 -0.0113585 0)
(0.966422 -0.170322 9.62752e-21)
(0.933961 -0.16107 -8.28576e-21)
(0.96696 -0.172087 -1.16447e-21)
(1.01311 0.000376006 1.42298e-23)
(1.01304 0.000102273 0)
(1.013 0.000277119 0)
(1.01855 -0.00546378 1.82912e-22)
(1.01821 -0.00591568 8.05875e-23)
(1.01796 -0.00524684 2.37512e-22)
(0.826081 0.0200954 1.51102e-21)
(0.801597 0.0284585 3.95663e-22)
(0.84326 0.034121 1.54182e-21)
(1.15163 -0.0710698 -2.01871e-20)
(1.13312 -0.0729463 9.06001e-22)
(1.13552 -0.0561392 4.47387e-21)
(0.457178 -0.185306 -4.05413e-21)
(0.483479 -0.283342 -3.9846e-21)
(1.01937 -0.00111006 0)
(1.01924 -0.000955479 0)
(1.01915 -0.0010692 1.94305e-21)
(0.978935 -0.0933156 -2.10133e-20)
(0.979503 -0.0965541 -2.21202e-20)
(1.02553 -0.012387 1.36342e-20)
(1.02505 -0.0132941 1.02772e-20)
(1.0311 -0.00695011 8.10837e-21)
(1.03129 -0.00661614 8.07401e-21)
(0.97683 -0.14329 -3.47536e-23)
(0.983043 -0.144537 -1.11237e-20)
(0.982121 -0.140184 1.93453e-20)
(0.9349 -0.0957726 -2.41159e-21)
(0.930309 -0.0966082 -6.33072e-21)
(0.933557 -0.101269 6.9119e-22)
(0.941378 -0.117572 1.27651e-20)
(0.945871 -0.115189 -4.85732e-21)
(0.943067 -0.116599 -3.08583e-21)
(1.00825 5.54073e-05 0)
(1.00835 3.5865e-05 -1.09615e-22)
(1.00598 2.21528e-05 0)
(1.01944 -0.0252479 1.86157e-22)
(1.01832 -0.0264965 -1.71164e-21)
(1.01771 -0.0248358 -2.66754e-21)
(1.00717 -6.83254e-05 5.27829e-23)
(1.0054 -7.6157e-05 0)
(-0.306693 0.0855537 -7.48375e-21)
(-0.283372 0.120308 -1.67766e-21)
(-0.267624 0.075908 1.17687e-20)
(1.01321 0.000629894 1.28073e-23)
(1.01321 0.000463381 -9.06255e-24)
(0.995316 0.0025653 -2.37268e-21)
(0.996436 -0.000551219 1.68448e-21)
(1.08591 0.159602 0)
(1.06155 0.184169 -5.93331e-21)
(1.04508 0.209468 0)
(1.01395 -0.000208797 -1.02651e-22)
(1.01398 -0.000313442 -4.64419e-22)
(1.0121 0.00462557 2.02643e-22)
(0.99725 -0.0926916 7.2677e-21)
(0.994364 -0.0906415 0)
(0.99765 -0.088948 1.08857e-20)
(1.1112 0.0370534 0)
(1.10178 0.0325605 0)
(1.11048 0.0259607 -3.41475e-22)
(0.417788 0.166193 1.12525e-20)
(0.402048 0.112798 -2.72158e-22)
(0.803391 0.271192 4.1482e-21)
(0.79009 0.247442 2.86063e-21)
(1.01921 -0.00569042 -1.73504e-24)
(1.01958 -0.00643775 -9.13355e-23)
(1.01943 -0.00318858 0)
(1.01964 -0.00332077 2.16102e-21)
(0.864982 -0.0303311 4.1976e-21)
(0.84474 -0.0402421 2.04195e-21)
(0.788869 0.121247 -8.21817e-22)
(0.807018 0.126939 -1.89789e-21)
(0.839173 0.126459 2.8326e-21)
(1.01243 0.00781826 1.70377e-21)
(1.01261 0.00666075 -4.20853e-23)
(1.01163 0.00645242 -5.93414e-23)
(1.02275 -0.00650327 1.23331e-22)
(1.01635 -0.0105503 -1.42105e-25)
(1.01031 -9.6208e-05 -5.03753e-24)
(1.01011 -0.00012044 6.8761e-23)
(0.958872 -0.108682 -3.24138e-21)
(0.961169 -0.106834 -1.10099e-20)
(0.956856 -0.109178 -3.18791e-20)
(0.99013 -0.0576814 8.13315e-23)
(0.988572 -0.0611861 -6.34485e-21)
(0.959308 -0.159281 -1.15542e-20)
(0.952062 -0.150668 2.14283e-20)
(0.971989 -0.149651 3.05296e-21)
(1.03015 -0.00567902 -2.74359e-21)
(1.03041 -0.00514301 -1.50682e-21)
(1.03034 -0.0056317 -1.68066e-21)
(1.02657 -0.00271806 1.99575e-22)
(1.02712 -0.00345637 -5.06012e-22)
(1.02726 -0.00228905 9.42528e-23)
(0.995454 0.00921772 3.28076e-22)
(0.993725 0.00272046 3.02918e-22)
(0.998431 0.00460961 -2.96693e-22)
(0.77411 0.109788 -6.62523e-22)
(0.749848 0.117972 1.01609e-21)
(1.02826 -0.00685917 0)
(1.02848 -0.00694033 6.49985e-22)
(1.02824 -0.00680687 0)
(1.02991 -0.0055984 2.41537e-21)
(1.01203 -0.0791357 8.09162e-21)
(1.01158 -0.082452 -3.24571e-21)
(1.00846 -0.0795518 -3.56718e-21)
(0.986483 -0.161961 -3.49446e-22)
(0.986704 -0.174869 -2.27805e-23)
(0.999525 -0.166811 -1.05052e-21)
(0.969753 -0.00304072 2.12473e-21)
(0.98186 -0.000193958 -3.54491e-22)
(0.930324 -0.147335 0)
(0.935107 -0.147588 0)
(0.96147 -0.0831429 1.47553e-20)
(0.78203 -0.0674539 -6.84918e-20)
(0.70433 -0.0672044 -1.40295e-21)
(1.02183 -0.000705005 1.63189e-21)
(1.0215 -0.000554985 0)
(1.02154 -0.000823443 4.2214e-21)
(1.01878 -0.00503245 9.3626e-23)
(1.05956 -0.0196356 3.23962e-22)
(1.05914 -0.0232905 0)
(1.05576 -0.0212335 0)
(0.890396 -0.236251 4.38949e-21)
(0.890305 -0.214774 -2.49626e-21)
(0.913145 -0.23121 -9.07345e-22)
(1.02752 0.00315789 1.94422e-22)
(1.02696 0.00221178 -1.94574e-22)
(1.02819 0.00208044 1.46336e-22)
(0.867503 -0.161067 -6.4545e-21)
(0.855629 -0.155967 2.07154e-22)
(0.85605 -0.170875 -9.771e-21)
(1.03059 -0.0103057 -1.26912e-21)
(1.03072 -0.00990643 3.93198e-21)
(1.02827 -0.00689738 -2.44357e-21)
(1.02798 -0.00674117 0)
(1.02518 -0.0232426 4.71492e-23)
(1.0249 -0.0221129 5.2115e-21)
(0.971734 -0.145642 5.63579e-22)
(0.971713 -0.141432 1.60399e-20)
(1.04342 0.0643433 1.13241e-22)
(1.03082 0.0567659 -3.8747e-21)
(1.03255 0.0656071 3.49733e-22)
(0.993253 0.0158316 4.87719e-22)
(0.999868 0.0149192 0)
(1.03089 -0.0112125 -9.17158e-21)
(0.872287 -0.143652 -2.98195e-22)
(0.885955 -0.122313 9.24494e-21)
(0.890132 -0.14504 -7.37151e-22)
(0.992657 -0.0384542 0)
(0.993884 -0.0413085 -6.36881e-21)
(1.02158 0.00912073 1.39317e-21)
(1.02207 0.00746671 2.38963e-21)
(1.01273 -0.000580399 1.02296e-23)
(1.01276 -0.000420921 -2.69308e-24)
(0.860246 -0.125238 -2.06883e-21)
(0.845663 -0.123834 5.38536e-21)
(1.05518 -0.0347837 -1.52753e-21)
(1.04368 -0.0270557 1.85796e-21)
(1.06227 -0.0218966 -3.95481e-21)
(0.915159 -0.143393 -1.89762e-20)
(0.917535 -0.139874 -7.20281e-21)
(0.914506 -0.14378 4.31311e-21)
(0.765507 0.0358431 -2.91195e-22)
(0.740979 0.0318717 1.88827e-20)
(1.01235 0.00890449 -4.03226e-23)
(1.0134 0.00870449 2.77539e-22)
(1.0137 0.0014848 1.6917e-23)
(1.01364 0.0013592 5.28813e-23)
(1.01385 0.00177383 2.32474e-23)
(1.0079 -7.89294e-05 7.23456e-24)
(1.00822 -3.11953e-05 -5.04105e-24)
(1.00941 1.65669e-05 -1.24909e-22)
(1.01527 -0.0785827 -7.83888e-21)
(1.01239 -0.0761225 8.34083e-21)
(0.902713 -0.263867 1.7859e-21)
(0.865124 -0.227902 -1.78301e-21)
(0.704767 0.149849 -4.72201e-21)
(0.675527 0.183811 7.89584e-21)
(0.70781 0.191952 3.08525e-21)
(1.01664 0.00226415 5.13767e-22)
(1.01701 0.00238007 1.76192e-22)
(1.01687 0.00231215 4.06333e-24)
(1.01962 0.000305738 3.54468e-23)
(1.01968 0.000150883 1.09306e-21)
(1.01981 0.000300974 -1.89469e-22)
(0.859002 -0.164822 2.8018e-21)
(0.850301 -0.133841 -4.88576e-22)
(0.906444 -0.114167 -3.87933e-23)
(0.887391 -0.118237 -1.31257e-20)
(0.905782 -0.106108 -1.31791e-22)
(0.878136 -0.0718649 3.37091e-21)
(0.882494 -0.0803539 1.36166e-21)
(1.03792 -0.00427233 -1.95251e-21)
(1.03795 -0.00350594 0)
(1.02947 -0.00386997 -1.17662e-20)
(1.029 -0.00390986 9.88677e-23)
(1.01412 -0.045015 -4.73708e-22)
(1.01252 -0.0431859 -4.64837e-22)
(1.01136 -0.0458525 1.59915e-22)
(0.904014 -0.116298 -6.7097e-23)
(0.929558 -0.104697 0)
(0.876806 -0.152512 -4.69948e-21)
(0.879321 -0.165643 -2.07431e-21)
(1.038 0.0085155 2.04863e-21)
(1.03813 0.00736852 -1.66847e-23)
(1.03653 0.00753703 1.21251e-21)
(0.599376 -0.240752 1.64247e-20)
(0.680458 -0.264278 4.96929e-21)
(1.01294 -0.000603127 9.28635e-22)
(1.01291 -0.000749491 -3.01308e-22)
(1.01282 -0.000653023 -2.59453e-22)
(0.960616 -0.108283 2.00153e-20)
(0.955732 -0.110512 1.06402e-20)
(1.03285 -0.0292947 -3.05948e-21)
(1.03378 -0.0301602 -7.81497e-21)
(1.02689 -0.00959775 2.03216e-21)
(1.02636 -0.00922717 1.99929e-21)
(0.92111 -0.13592 3.5757e-21)
(0.922137 -0.134651 -8.82719e-21)
(0.924483 -0.131787 2.25211e-21)
(1.02488 -0.00660865 -8.26092e-22)
(1.02495 -0.00678674 4.78734e-22)
(1.02537 -0.00677433 0)
(0.902847 0.0119741 9.95942e-21)
(0.880488 0.0152034 -1.84454e-22)
(0.985989 -0.115201 -1.79003e-22)
(0.98896 -0.117397 0)
(0.981389 -0.118273 -1.96616e-20)
(1.01645 0.00221665 0)
(1.01628 0.00212599 0)
(1.01645 -0.0645593 7.1834e-21)
(1.01618 -0.0673771 5.14793e-21)
(1.01335 -0.065502 -1.59087e-21)
(1.02203 -0.0208699 6.59828e-21)
(1.02118 -0.0224445 0)
(1.03687 -0.00467956 3.54418e-22)
(1.03776 -0.00505708 -2.01272e-21)
(0.327442 -0.186768 0)
(0.316446 -0.246009 0)
(1.03906 0.0097413 1.61975e-21)
(1.03712 0.00949319 7.36744e-22)
(1.02777 -0.0064297 -2.92247e-23)
(1.02784 -0.00648329 4.24808e-21)
(1.02804 -0.00654363 3.76023e-21)
(0.987371 -0.167988 1.15704e-20)
(0.990091 -0.161452 0)
(1.00002 -0.167837 0)
(1.01475 -0.00285163 0)
(1.01504 -0.00307705 9.79314e-23)
(1.01493 -0.00281902 0)
(1.02589 -0.00209947 -2.13742e-22)
(1.02582 -0.00335735 5.90027e-22)
(1.04108 0.0135261 3.82435e-22)
(1.04014 0.0166252 -2.23799e-21)
(1.03796 0.0137969 1.16014e-22)
(0.912482 -0.148146 2.01369e-20)
(0.915259 -0.143691 -2.27427e-20)
(0.990645 -0.142591 -1.1778e-21)
(0.98934 -0.145896 0)
(0.993077 -0.145221 -1.29243e-20)
(1.01959 -0.00113612 3.28482e-21)
(1.0195 -0.00125993 2.03614e-21)
(1.00056 -0.0707192 -6.82818e-21)
(0.997077 -0.0711491 6.8613e-21)
(0.998756 -0.0675712 -1.98417e-21)
(1.01977 -0.000567973 2.24583e-22)
(1.01981 -0.000706799 -3.66226e-21)
(1.01998 -0.000580151 -6.83061e-22)
(1.04929 -0.10097 1.62992e-20)
(1.06264 -0.0967531 1.65993e-20)
(0.989494 -0.000922842 -5.30206e-22)
(0.980756 1.03619e-05 -3.05218e-22)
(0.984109 -0.00914701 -5.28048e-21)
(1.00934 -1.61915e-05 5.93785e-23)
(1.01001 5.43029e-05 1.65655e-22)
(1.01095 0.000215231 1.4636e-22)
(1.01509 -0.00208906 -1.09886e-21)
(1.01507 -0.00211131 0)
(1.015 -0.00220642 1.94257e-22)
(0.988418 -0.139308 -1.05283e-20)
(0.992642 -0.138748 1.28919e-20)
(1.0204 -0.0237198 2.17172e-21)
(1.02102 -0.0253139 2.29216e-21)
(1.03259 -0.0113416 -2.35226e-21)
(1.03225 -0.0116411 6.01239e-21)
(1.03218 -0.0110342 2.15612e-22)
(1.01947 0.000293834 4.13511e-21)
(1.02479 -0.00645758 1.24236e-22)
(1.02441 -0.00645561 -8.17791e-22)
(1.0277 -0.00640026 -1.21187e-21)
(1.02743 -0.00630033 -5.72243e-21)
(0.733781 0.0209751 0)
(0.743736 0.0163886 -1.06564e-21)
(0.231439 -0.0763359 7.32616e-22)
(0.203737 -0.0757635 -1.61374e-20)
(1.08367 -0.443262 -1.50081e-20)
(1.02764 -0.416099 -5.5548e-20)
(1.03805 -0.471808 -4.19074e-20)
(1.06499 -0.0415036 -1.71864e-22)
(1.07086 -0.041582 8.09141e-24)
(1.06799 -0.0471145 -6.79605e-22)
(0.919949 -0.137049 -4.66178e-21)
(0.91766 -0.140063 2.57021e-21)
(0.646136 -0.0725592 8.63974e-21)
(0.634784 -0.0958042 5.88519e-21)
(0.620505 -0.0684358 -3.00286e-21)
(1.01902 -0.00043921 0)
(1.01048 -0.0373632 -9.44476e-23)
(1.01157 -0.0353874 2.66921e-21)
(0.873141 -0.0627817 4.86883e-22)
(0.868211 -0.0732681 -1.06583e-22)
(1.09941 -0.0017621 -1.36575e-21)
(1.10497 0.016771 1.74209e-21)
(1.08654 0.0119146 7.80597e-22)
(1.16826 0.0547 0)
(1.16192 0.03819 1.60819e-21)
(1.15231 0.0541202 0)
(0.961156 -0.109921 -1.96435e-20)
(0.961017 -0.106785 8.3113e-22)
(0.963394 -0.108548 0)
(0.875833 -0.140229 3.42705e-22)
(1.02168 -0.0112959 5.87142e-22)
(1.01857 -0.00967594 1.07079e-21)
(1.02062 -0.0083019 0)
(0.952523 -0.327512 0)
(0.933218 -0.308125 0)
(0.971595 -0.327074 0)
(0.971627 -0.110243 -1.01681e-20)
(0.976476 -0.108253 -1.22409e-20)
(0.978016 -0.109049 2.30688e-20)
(1.01903 -0.000220581 -3.44541e-21)
(1.01919 -0.000232187 -5.23305e-22)
(0.996823 0.0377698 -7.45142e-21)
(1.00561 0.0327335 -1.16619e-21)
(0.994827 0.0284693 -5.86174e-22)
(0.988012 0.0452031 1.0204e-21)
(1.00432 0.0451022 -1.85164e-21)
(0.795404 0.230037 2.92112e-21)
(0.816664 0.20224 -1.103e-20)
(0.773236 0.203693 -1.43969e-20)
(1.03291 -0.0110989 5.59817e-21)
(1.03305 -0.0117548 1.03234e-20)
(1.16964 0.0716151 -1.31641e-21)
(1.18307 0.0530016 1.56668e-21)
(-0.316746 0.0507703 2.77124e-20)
(-0.340421 0.0899113 -3.19279e-21)
(1.01459 -0.00255385 4.17805e-22)
(1.0146 -0.00247297 4.13737e-22)
(0.972583 -0.347595 7.71518e-21)
(0.931603 -0.308949 -8.4315e-21)
(1.0151 -0.00200219 -2.00887e-22)
(1.01517 -0.00192883 -4.25439e-22)
(1.01971 -0.000452506 5.6281e-21)
(1.01957 -0.000565745 -4.65847e-22)
(1.0112 -8.75088e-05 3.89121e-23)
(1.01048 -5.0592e-05 -2.12767e-23)
(1.01309 -0.00056655 -3.89783e-23)
(1.01299 -0.000366431 1.3487e-23)