/*--------------------------------*- C++ -*----------------------------------*\
| =========                 |                                                 |
| \\      /  F ield         | OpenFOAM: The Open Source CFD Toolbox           |
|  \\    /   O peration     | Version:  v2012                                 |
|   \\  /    A nd           | Website:  www.openfoam.com                      |
|    \\/     M anipulation  |                                                 |
\*---------------------------------------------------------------------------*/
FoamFile
{
    version     2.0;
    format      ascii;
    class       pointVectorField;
    location    "250";
    object      pointDisplacement;
}
// * * * * * * * * * * * * * * * * * * * * * * * * * * * * * * * * * * * * * //

dimensions      [0 1 0 0 0 0 0];


internalField   nonuniform List<vector> 
14386
(
(0 0 0)
(-0.0179824 -0.127324 0)
(0 0 0)
(-0.0179824 -0.127324 0)
(0 0 0)
(0 0 0)
(0 0 0)
(0 0 0)
(0 0 0)
(0 0 0)
(0 0 0)
(0 0 0)
(0 0 0)
(0 0 0)
(0 0 0)
(0 0 0)
(0 0 0)
(0 0 0)
(0 0 0)
(0 0 0)
(0 0 0)
(0 0 0)
(0 0 0)
(0 0 0)
(0 0 0)
(0 0 0)
(0 0 0)
(0 0 0)
(0 0 0)
(0 0 0)
(0 0 0)
(0 0 0)
(0 0 0)
(0 0 0)
(0 0 0)
(0 0 0)
(0 0 0)
(0 0 0)
(0 0 0)
(0 0 0)
(0 0 0)
(0 0 0)
(0 0 0)
(0 0 0)
(0 0 0)
(0 0 0)
(0 0 0)
(0 0 0)
(0 0 0)
(0 0 0)
(0 0 0)
(0 0 0)
(0 0 0)
(0 0 0)
(0 0 0)
(0 0 0)
(0 0 0)
(0 0 0)
(0 0 0)
(0 0 0)
(0 0 0)
(0 0 0)
(0 0 0)
(0 0 0)
(0 0 0)
(0 0 0)
(0 0 0)
(0 0 0)
(0 0 0)
(0 0 0)
(0 0 0)
(0 0 0)
(0 0 0)
(0 0 0)
(0 0 0)
(0 0 0)
(0 0 0)
(0 0 0)
(0 0 0)
(0 0 0)
(0 0 0)
(0 0 0)
(0 0 0)
(0 0 0)
(0 0 0)
(0 0 0)
(0 0 0)
(0 0 0)
(0 0 0)
(0 0 0)
(0 0 0)
(0 0 0)
(0 0 0)
(0 0 0)
(0 0 0)
(0 0 0)
(0 0 0)
(0 0 0)
(0 0 0)
(0 0 0)
(0 0 0)
(0 0 0)
(0 0 0)
(0 0 0)
(0 0 0)
(0 0 0)
(0 0 0)
(0 0 0)
(0 0 0)
(0 0 0)
(0 0 0)
(0 0 0)
(0 0 0)
(0 0 0)
(0 0 0)
(0 0 0)
(0 0 0)
(0 0 0)
(0 0 0)
(0 0 0)
(0 0 0)
(0 0 0)
(0 0 0)
(0 0 0)
(0 0 0)
(0 0 0)
(0 0 0)
(0 0 0)
(0 0 0)
(0 0 0)
(0 0 0)
(0 0 0)
(0 0 0)
(-0.0172956 -0.0842665 0)
(-0.017321 -0.0858612 0)
(-0.0173464 -0.087456 0)
(-0.0173719 -0.0890507 0)
(-0.0173973 -0.0906454 0)
(-0.0174228 -0.0922402 0)
(-0.0174482 -0.0938349 0)
(-0.0174736 -0.0954296 0)
(-0.0174991 -0.0970244 0)
(-0.0175245 -0.0986191 0)
(-0.0175499 -0.100214 0)
(-0.0175754 -0.101809 0)
(-0.0176008 -0.103403 0)
(-0.0176263 -0.104998 0)
(-0.0176517 -0.106593 0)
(-0.0176771 -0.108187 0)
(-0.0177026 -0.109782 0)
(-0.017728 -0.111377 0)
(-0.0177534 -0.112972 0)
(-0.0177789 -0.114566 0)
(-0.0178043 -0.116161 0)
(-0.0178298 -0.117756 0)
(-0.0178552 -0.119351 0)
(-0.0178806 -0.120945 0)
(-0.0179061 -0.12254 0)
(-0.0179315 -0.124135 0)
(-0.017957 -0.12573 0)
(-0.0163877 -0.12735 0)
(-0.0147929 -0.127375 0)
(0 0 0)
(0 0 0)
(0 0 0)
(0 0 0)
(0 0 0)
(0 0 0)
(0 0 0)
(0 0 0)
(0 0 0)
(0 0 0)
(0 0 0)
(0 0 0)
(0 0 0)
(0 0 0)
(0 0 0)
(0 0 0)
(0 0 0)
(0 0 0)
(0 0 0)
(0 0 0)
(0 0 0)
(0 0 0)
(0 0 0)
(0 0 0)
(0 0 0)
(0 0 0)
(0 0 0)
(0 0 0)
(0 0 0)
(0 0 0)
(0 0 0)
(0 0 0)
(0 0 0)
(0 0 0)
(0 0 0)
(0 0 0)
(0 0 0)
(0 0 0)
(0 0 0)
(0 0 0)
(0 0 0)
(0 0 0)
(0 0 0)
(0 0 0)
(0 0 0)
(0 0 0)
(0 0 0)
(0 0 0)
(0 0 0)
(0 0 0)
(0 0 0)
(0 0 0)
(0 0 0)
(0 0 0)
(0 0 0)
(0 0 0)
(0 0 0)
(0 0 0)
(0 0 0)
(0 0 0)
(0 0 0)
(0 0 0)
(0 0 0)
(0 0 0)
(0 0 0)
(0 0 0)
(0 0 0)
(0 0 0)
(0 0 0)
(0 0 0)
(0 0 0)
(0 0 0)
(0 0 0)
(0 0 0)
(0 0 0)
(0 0 0)
(0 0 0)
(0 0 0)
(0 0 0)
(0 0 0)
(0 0 0)
(0 0 0)
(0 0 0)
(0 0 0)
(0 0 0)
(0 0 0)
(0 0 0)
(0 0 0)
(0 0 0)
(0 0 0)
(0 0 0)
(0 0 0)
(0 0 0)
(0 0 0)
(0 0 0)
(0 0 0)
(0 0 0)
(0 0 0)
(0 0 0)
(0 0 0)
(0 0 0)
(0 0 0)
(0 0 0)
(0 0 0)
(0 0 0)
(0 0 0)
(0 0 0)
(0 0 0)
(0 0 0)
(0 0 0)
(0 0 0)
(0 0 0)
(0 0 0)
(0 0 0)
(0 0 0)
(0 0 0)
(0 0 0)
(0 0 0)
(0 0 0)
(0 0 0)
(0 0 0)
(0 0 0)
(0 0 0)
(0 0 0)
(0 0 0)
(0 0 0)
(0 0 0)
(0 0 0)
(0 0 0)
(-0.0172956 -0.0842665 0)
(-0.017321 -0.0858612 0)
(-0.0173464 -0.087456 0)
(-0.0173719 -0.0890507 0)
(-0.0173973 -0.0906454 0)
(-0.0174228 -0.0922402 0)
(-0.0174482 -0.0938349 0)
(-0.0174736 -0.0954296 0)
(-0.0174991 -0.0970244 0)
(-0.0175245 -0.0986191 0)
(-0.0175499 -0.100214 0)
(-0.0175754 -0.101809 0)
(-0.0176008 -0.103403 0)
(-0.0176263 -0.104998 0)
(-0.0176517 -0.106593 0)
(-0.0176771 -0.108187 0)
(-0.0177026 -0.109782 0)
(-0.017728 -0.111377 0)
(-0.0177534 -0.112972 0)
(-0.0177789 -0.114566 0)
(-0.0178043 -0.116161 0)
(-0.0178298 -0.117756 0)
(-0.0178552 -0.119351 0)
(-0.0178806 -0.120945 0)
(-0.0179061 -0.12254 0)
(-0.0179315 -0.124135 0)
(-0.017957 -0.12573 0)
(-0.0163877 -0.12735 0)
(-0.0147929 -0.127375 0)
(-0.000178983 -0.00328213 0)
(-0.0177702 -0.11401 0)
(-0.0173096 -0.0851282 0)
(-0.0175346 -0.099236 0)
(-0.000277094 -0.00396779 0)
(-6.10245e-05 -0.0018758 0)
(-3.68632e-05 -0.00136811 0)
(-9.90406e-05 -0.00242386 0)
(-0.000436757 -0.00480844 0)
(-2.2708e-05 -0.000973449 0)
(-0.000558042 -0.00472082 0)
(-9.70633e-06 -0.000672564 0)
(-0.000678373 -0.00419906 0)
(-0.000822523 -0.00321447 0)
(-1.39218e-05 -0.000664433 0)
(-0.0179091 -0.12313 0)
(-9.23364e-06 -0.000586497 0)
(-1.00968e-05 -0.000519208 0)
(-8.28636e-06 -0.000497315 0)
(-7.24526e-06 -0.000388238 0)
(-6.01862e-06 -0.00034724 0)
(-0.000140999 -0.0029489 0)
(-8.73562e-05 -0.00240826 0)
(-4.71339e-05 -0.00160215 0)
(-0.0176634 -0.107297 0)
(-0.0174364 -0.0930729 0)
(-4.12716e-06 -0.000226029 0)
(-3.91536e-06 -0.000220658 0)
(-0.00055923 -0.00540021 0)
(-0.000770048 -0.00388014 0)
(-0.000624271 -0.00455201 0)
(-0.000377503 -0.00462864 0)
(-0.00021216 -0.00339263 0)
(-1.97669e-05 -0.000905458 0)
(-2.91656e-05 -0.00115864 0)
(-9.77656e-06 -0.000645955 0)
(-8.69237e-06 -0.000631737 0)
(-1.23217e-05 -0.000613665 0)
(-0.0178422 -0.118584 0)
(-2.60378e-06 -0.000144153 0)
(-2.112e-06 -0.000117858 0)
(-0.000782672 -0.00241053 0)
(-0.000314696 -0.00418797 0)
(-0.000204815 -0.00350512 0)
(-0.000158921 -0.00311378 0)
(-0.000143042 -0.00319192 0)
(-8.66084e-05 -0.00225023 0)
(-6.47069e-05 -0.00188475 0)
(-5.45793e-05 -0.00176642 0)
(-4.32117e-05 -0.00153715 0)
(-5.3297e-06 -0.000289185 0)
(-1.01554e-05 -0.000629552 0)
(-2.60529e-05 -0.00107559 0)
(-9.69016e-06 -0.000730054 0)
(-5.16869e-06 -0.000294181 0)
(-6.00686e-06 -0.000351164 0)
(-8.89717e-06 -0.000465812 0)
(-2.07241e-05 -0.000919852 0)
(-8.67892e-07 -4.81979e-05 0)
(-0.0129959 -0.0437708 0)
(-0.0128066 -0.0431806 0)
(-0.0128668 -0.0466154 0)
(-0.0126781 -0.0459055 0)
(-0.0127302 -0.0492524 0)
(-0.0129162 -0.0500564 0)
(-0.0127701 -0.0525802 0)
(-0.0125867 -0.0516874 0)
(-0.0126188 -0.0548888 0)
(-0.012798 -0.0558596 0)
(-0.0126392 -0.0580304 0)
(-0.0124612 -0.0570053 0)
(-0.0124736 -0.0600345 0)
(-0.0122974 -0.0589547 0)
(-0.0123029 -0.0618718 0)
(-0.0124742 -0.0629524 0)
(-0.0122989 -0.0647053 0)
(-0.0121285 -0.0635359 0)
(-0.0121177 -0.0662858 0)
(-0.0123012 -0.0677042 0)
(-0.0120918 -0.0689827 0)
(-0.0119312 -0.0676648 0)
(-0.0118998 -0.0702147 0)
(-0.0120509 -0.0715392 0)
(-0.0118565 -0.0726642 0)
(-0.0120015 -0.0739915 0)
(-0.011801 -0.0750224 0)
(-0.0116599 -0.073679 0)
(-0.0116002 -0.0759318 0)
(-0.0117332 -0.0772936 0)
(-0.0115271 -0.0781028 0)
(-0.0116526 -0.079487 0)
(-0.01144 -0.0801922 0)
(-0.011559 -0.0815906 0)
(-0.01134 -0.082202 0)
(-0.0112253 -0.0807865 0)
(-0.0111194 -0.0827203 0)
(-0.011227 -0.0841504 0)
(-0.0110018 -0.0845812 0)
(-0.0111008 -0.086037 0)
(-0.0108714 -0.0863611 0)
(-0.0109631 -0.0878627 0)
(-0.0107262 -0.0880627 0)
(-0.0108055 -0.0895467 0)
(-0.0105654 -0.0896798 0)
(-0.0106288 -0.0910933 0)
(-0.0103973 -0.0911907 0)
(-0.0104398 -0.0925612 0)
(-0.0102131 -0.0925625 0)
(-0.0102393 -0.0939514 0)
(-0.0100057 -0.0938367 0)
(-0.0100231 -0.0952752 0)
(-0.00978264 -0.0950781 0)
(-0.00978972 -0.0964946 0)
(-0.0095455 -0.096245 0)
(-0.00954129 -0.0976161 0)
(-0.0092946 -0.0973106 0)
(-0.00927655 -0.0986528 0)
(-0.00902732 -0.0982879 0)
(-0.00899057 -0.0996275 0)
(-0.00874209 -0.0991791 0)
(-0.00868446 -0.100511 0)
(-0.00844042 -0.0999646 0)
(-0.00836263 -0.101293 0)
(-0.00811936 -0.100669 0)
(-0.00802518 -0.101989 0)
(-0.00778046 -0.101314 0)
(-0.0076734 -0.102594 0)
(-0.00743629 -0.101889 0)
(-0.00730994 -0.103122 0)
(-0.00709161 -0.102378 0)
(-0.00693753 -0.103573 0)
(-0.00673521 -0.102766 0)
(-0.00655213 -0.103899 0)
(-0.00636705 -0.103053 0)
(-0.00615868 -0.104116 0)
(-0.00599546 -0.103253 0)
(-0.00576523 -0.104279 0)
(-0.00562093 -0.103376 0)
(-0.00537676 -0.10436 0)
(-0.00524599 -0.103415 0)
(-0.00498937 -0.104355 0)
(-0.00487161 -0.103394 0)
(-0.00459804 -0.104287 0)
(-0.0045015 -0.103306 0)
(-0.00421039 -0.104122 0)
(-0.00413711 -0.103143 0)
(-0.00383493 -0.10387 0)
(-0.00378432 -0.102885 0)
(-0.00346881 -0.103565 0)
(-0.00343818 -0.102555 0)
(-0.00311042 -0.103195 0)
(-0.0030985 -0.102181 0)
(-0.0027684 -0.102751 0)
(-0.00277637 -0.101731 0)
(-0.00308818 -0.101156 0)
(-0.00277783 -0.100707 0)
(-0.00546467 -0.102376 0)
(-0.00787823 -0.0999516 0)
(-0.010011 -0.0923265 0)
(-0.0110075 -0.0812988 0)
(-0.00308384 -0.100117 0)
(-0.00277242 -0.0996708 0)
(-0.0024513 -0.102239 0)
(-0.00307006 -0.0990651 0)
(-0.00276325 -0.0986175 0)
(-0.00304152 -0.0979989 0)
(-0.00275053 -0.0975468 0)
(-0.0030155 -0.0969092 0)
(-0.00273564 -0.0964571 0)
(-0.00299119 -0.0958 0)
(-0.00271933 -0.095346 0)
(-0.00296395 -0.0946745 0)
(-0.00270144 -0.094215 0)
(-0.00245261 -0.0948437 0)
(-0.00244646 -0.0936999 0)
(-0.00219406 -0.0942778 0)
(-0.00219963 -0.0931275 0)
(-0.00243818 -0.0925501 0)
(-0.00220164 -0.0919704 0)
(-0.00194732 -0.0936444 0)
(-0.00242767 -0.0913894 0)
(-0.00219958 -0.0907992 0)
(-0.00241522 -0.0902091 0)
(-0.00219313 -0.0896112 0)
(-0.00240431 -0.0890003 0)
(-0.00218489 -0.0884054 0)
(-0.00238626 -0.0877608 0)
(-0.00217316 -0.0871838 0)
(-0.00236182 -0.0865144 0)
(-0.00215641 -0.0859442 0)
(-0.00233833 -0.0852581 0)
(-0.0021393 -0.0846903 0)
(-0.00195802 -0.0853247 0)
(-0.00194786 -0.0840704 0)
(-0.00176289 -0.0846708 0)
(-0.00176298 -0.0833947 0)
(-0.00157498 -0.083937 0)
(-0.00158306 -0.0826687 0)
(-0.00176381 -0.0821366 0)
(-0.00158547 -0.0814087 0)
(-0.00176054 -0.0808507 0)
(-0.00158754 -0.080124 0)
(-0.00139626 -0.0831477 0)
(-0.00175554 -0.0795458 0)
(-0.00158834 -0.0788258 0)
(-0.001745 -0.0782266 0)
(-0.00158357 -0.0775177 0)
(-0.00172892 -0.0768963 0)
(-0.00157545 -0.076194 0)
(-0.00171108 -0.0755563 0)
(-0.00156505 -0.0748595 0)
(-0.00142915 -0.0754475 0)
(-0.00142555 -0.0741153 0)
(-0.00129075 -0.0746514 0)
(-0.00129363 -0.073329 0)
(-0.00142028 -0.0727788 0)
(-0.00129621 -0.0720001 0)
(-0.00141055 -0.0714249 0)
(-0.00127367 -0.0705917 0)
(-0.00139863 -0.0700691 0)
(-0.00128131 -0.0692876 0)
(-0.00116034 -0.0724498 0)
(-0.00138768 -0.0687299 0)
(-0.00127268 -0.0679836 0)
(-0.00137334 -0.0673722 0)
(-0.00126194 -0.0666349 0)
(-0.00135693 -0.0660038 0)
(-0.00124913 -0.0652761 0)
(-0.00241878 -0.10325 0)
(-0.00133763 -0.064627 0)
(-0.00123446 -0.063912 0)
(-0.00114597 -0.0645086 0)
(-0.00113563 -0.0631545 0)
(-0.00104577 -0.0636945 0)
(-0.00103869 -0.0623561 0)
(-0.00112374 -0.0618043 0)
(-0.00103081 -0.061033 0)
(-0.00111031 -0.0604579 0)
(-0.00102079 -0.0597133 0)
(-0.000944948 -0.0615387 0)
(-0.00109566 -0.0591102 0)
(-0.00101114 -0.058374 0)
(-0.00107969 -0.0577561 0)
(-0.000999829 -0.0570211 0)
(-0.00106194 -0.0564038 0)
(-0.000985884 -0.0556795 0)
(-0.0010431 -0.0550561 0)
(-0.000970159 -0.0543474 0)
(-0.00102294 -0.0537137 0)
(-0.00095329 -0.053025 0)
(-0.000900523 -0.053604 0)
(-0.00088701 -0.0522986 0)
(-0.000834409 -0.0528241 0)
(-0.000823912 -0.0515366 0)
(-0.000872644 -0.0510045 0)
(-0.000812225 -0.0502579 0)
(-0.000763834 -0.0507431 0)
(-0.000754816 -0.0494824 0)
(-0.000799499 -0.0489883 0)
(-0.000744567 -0.0482327 0)
(-0.000785766 -0.047728 0)
(-0.000733227 -0.0469921 0)
(-0.000771044 -0.0464772 0)
(-0.000720977 -0.0457616 0)
(-0.000683331 -0.0462279 0)
(-0.000673338 -0.0450178 0)
(-0.000707884 -0.0445432 0)
(-0.000662459 -0.0438193 0)
(-0.000694139 -0.0433376 0)
(-0.000650793 -0.042633 0)
(-0.000679742 -0.0421439 0)
(-0.000638358 -0.0414596 0)
(-0.000609497 -0.0419026 0)
(-0.000598961 -0.0407496 0)
(-0.00062529 -0.0402991 0)
(-0.000587734 -0.0396093 0)
(-0.000611727 -0.0391522 0)
(-0.000575898 -0.0384822 0)
(-0.000597726 -0.0380189 0)
(-0.000563553 -0.037369 0)
(-0.0005417 -0.0377888 0)
(-0.000530929 -0.036695 0)
(-0.00055078 -0.0362697 0)
(-0.000519652 -0.0356155 0)
(-0.000537618 -0.0351846 0)
(-0.000507919 -0.0345503 0)
(-0.000524102 -0.0341142 0)
(-0.00049581 -0.0334986 0)
(-0.000479606 -0.0338945 0)
(-0.000468748 -0.0328592 0)
(-0.000483418 -0.0324609 0)
(-0.000457577 -0.0318395 0)
(-0.000470746 -0.0314364 0)
(-0.000446087 -0.0308349 0)
(-0.0021079 -0.102675 0)
(-0.00205336 -0.103666 0)
(-0.00174364 -0.103043 0)
(-0.001669 -0.104022 0)
(-0.000457858 -0.0304274 0)
(-0.000434527 -0.0298487 0)
(-0.000422449 -0.0302139 0)
(-0.000412263 -0.0292506 0)
(-0.000423414 -0.0288832 0)
(-0.000399712 -0.0295616 0)
(-0.000390964 -0.028624 0)
(-0.000378367 -0.0288671 0)
(-0.000370312 -0.0279715 0)
(-0.010854 -0.0911019 0)
(-0.00254512 -0.0857764 0)
(-0.0010956 -0.054371 0)
(-0.0014458 -0.0653042 0)
(-0.00551472 -0.105244 0)
(-0.00979541 -0.0978784 0)
(-0.0075529 -0.103794 0)
(-0.00186446 -0.0762092 0)
(-0.0157757 -0.0709011 0)
(-0.0158301 -0.073493 0)
(-0.0157106 -0.0737331 0)
(-0.0157606 -0.0763204 0)
(-0.0156344 -0.0764487 0)
(-0.0156795 -0.0789917 0)
(-0.0158066 -0.0789145 0)
(-0.0157188 -0.0815295 0)
(-0.0155874 -0.0815292 0)
(-0.0156211 -0.0840026 0)
(-0.0154842 -0.0839226 0)
(-0.0155104 -0.0863679 0)
(-0.0158392 -0.0815118 0)
(-0.0153674 -0.0861841 0)
(-0.0153848 -0.0886066 0)
(-0.0152358 -0.0883069 0)
(-0.0152444 -0.0906931 0)
(-0.0150908 -0.090294 0)
(-0.0150921 -0.0925932 0)
(-0.0152484 -0.0930361 0)
(-0.0150885 -0.0948333 0)
(-0.0152473 -0.0953065 0)
(-0.0150786 -0.0970063 0)
(-0.0152394 -0.0975184 0)
(-0.0150606 -0.0991178 0)
(-0.0148963 -0.0985511 0)
(-0.014868 -0.100567 0)
(-0.0152258 -0.0996659 0)
(-0.0147002 -0.0999255 0)
(-0.0146582 -0.101875 0)
(-0.0150874 -0.0879112 0)
(-0.014491 -0.101129 0)
(-0.014432 -0.103028 0)
(-0.0142681 -0.102192 0)
(-0.0141938 -0.104017 0)
(-0.0143563 -0.104899 0)
(-0.014103 -0.105785 0)
(-0.0142631 -0.106677 0)
(-0.0139946 -0.107456 0)
(-0.014153 -0.108338 0)
(-0.013868 -0.109007 0)
(-0.0140238 -0.109887 0)
(-0.0137225 -0.11045 0)
(-0.013871 -0.111383 0)
(-0.0135516 -0.111811 0)
(-0.0136974 -0.112783 0)
(-0.0133588 -0.113089 0)
(-0.0135013 -0.114041 0)
(-0.0131426 -0.114242 0)
(-0.0132594 -0.115186 0)
(-0.0128301 -0.115275 0)
(-0.0129755 -0.116227 0)
(-0.0125572 -0.116299 0)
(-0.0126605 -0.117185 0)
(-0.0122222 -0.117136 0)
(-0.0122864 -0.118038 0)
(-0.0118324 -0.117908 0)
(-0.0118562 -0.118773 0)
(-0.0113805 -0.118587 0)
(-0.0113736 -0.119416 0)
(-0.0108891 -0.119183 0)
(-0.0108345 -0.119969 0)
(-0.0103587 -0.119691 0)
(-0.0102365 -0.120431 0)
(-0.00976288 -0.120104 0)
(-0.00957638 -0.120806 0)
(-0.00910754 -0.12044 0)
(-0.00884933 -0.121105 0)
(-0.00839231 -0.120707 0)
(-0.00805568 -0.121333 0)
(-0.00762362 -0.120909 0)
(-0.00721488 -0.121482 0)
(-0.00683195 -0.121039 0)
(-0.00634341 -0.121553 0)
(-0.0060289 -0.121083 0)
(-0.00544901 -0.121554 0)
(-0.00520295 -0.12104 0)
(-0.00453708 -0.121484 0)
(-0.0043564 -0.120938 0)
(-0.00362539 -0.121357 0)
(-0.0121629 -0.1162 0)
(-0.00995216 -0.119329 0)
(-0.003528 -0.120798 0)
(-0.00586616 -0.120601 0)
(-0.013416 -0.110798 0)
(-0.0138523 -0.113768 0)
(-0.0140354 -0.103101 0)
(-0.00323381 -0.0950776 0)
(-0.0048177 -0.122012 0)
(-0.00905744 -0.0969825 0)
(-0.0127923 -0.118162 0)
(-0.00853613 -0.121745 0)
(-0.0141091 -0.101319 0)
(-0.0138735 -0.102225 0)
(-0.0139536 -0.100413 0)
(-0.0137111 -0.101377 0)
(-0.0137964 -0.0994877 0)
(-0.0135565 -0.100458 0)
(-0.0136431 -0.098563 0)
(-0.0134059 -0.0995061 0)
(-0.0134969 -0.0976211 0)
(-0.0132611 -0.0985293 0)
(-0.0133598 -0.0966556 0)
(-0.0131544 -0.100348 0)
(-0.0130127 -0.09934 0)
(-0.0128911 -0.101106 0)
(-0.0127543 -0.100064 0)
(-0.0126174 -0.101756 0)
(-0.0124894 -0.100671 0)
(-0.0123365 -0.102282 0)
(-0.00137646 -0.0843805 0)
(-0.00120241 -0.08356 0)
(-0.012217 -0.101177 0)
(-0.01205 -0.102708 0)
(-0.0123691 -0.0995561 0)
(-0.0113278 -0.120223 0)
(-0.00894513 -0.100963 0)
(-0.0117748 -0.0808807 0)
(-0.00428199 -0.105227 0)
(-0.00438373 -0.102301 0)
(-0.000823702 -0.0471636 0)
(-0.000482274 -0.0309878 0)
(-0.000361833 -0.0270441 0)
(-0.000553877 -0.034707 0)
(-0.000633381 -0.0386443 0)
(-0.000706946 -0.0499189 0)
(-0.000570336 -0.0411531 0)
(-0.000509224 -0.0370723 0)
(-0.00116224 -0.0584546 0)
(-0.00251153 -0.0845069 0)
(-0.00271903 -0.0849659 0)
(-0.00267334 -0.0836769 0)
(-0.00288129 -0.0840743 0)
(-0.00282505 -0.0827708 0)
(-0.00303168 -0.0831058 0)
(-0.00296591 -0.0817728 0)
(-0.00317033 -0.0820663 0)
(-0.00309811 -0.0807421 0)
(-0.00329366 -0.0809365 0)
(-0.0032036 -0.0796074 0)
(-0.00340014 -0.0797145 0)
(-0.00329523 -0.0783306 0)
(-0.00350187 -0.078456 0)
(-0.0033929 -0.0770403 0)
(-0.00362781 -0.0771678 0)
(-0.00347253 -0.0756614 0)
(-0.00366997 -0.0755425 0)
(-0.00352693 -0.074196 0)
(-0.0037078 -0.0740575 0)
(-0.00357191 -0.0726881 0)
(-0.00374682 -0.0725311 0)
(-0.00361368 -0.0711369 0)
(-0.00388515 -0.0738566 0)
(-0.00391795 -0.0722814 0)
(-0.00406507 -0.0735883 0)
(-0.00408754 -0.0719369 0)
(-0.00424434 -0.0732528 0)
(-0.0042543 -0.0715364 0)
(-0.0044186 -0.0728159 0)
(-0.00441417 -0.071027 0)
(-0.00458941 -0.0722799 0)
(-0.00457213 -0.0704198 0)
(-0.0043833 -0.0689818 0)
(-0.00475805 -0.0716609 0)
(-0.00472297 -0.0697258 0)
(-0.00492014 -0.0709175 0)
(-0.00486472 -0.0688987 0)
(-0.00506979 -0.070058 0)
(-0.00500386 -0.0680078 0)
(-0.0052118 -0.0691306 0)
(-0.00513416 -0.0670229 0)
(-0.00534715 -0.0681123 0)
(-0.00525374 -0.065943 0)
(-0.00547363 -0.0670027 0)
(-0.0050385 -0.0648546 0)
(-0.00528405 -0.0711758 0)
(-0.00536388 -0.06477 0)
(-0.00558931 -0.0657849 0)
(-0.00546331 -0.0634927 0)
(-0.00569314 -0.064463 0)
(-0.00581953 -0.0667378 0)
(-0.00592685 -0.0653667 0)
(-0.00605395 -0.0676006 0)
(-0.00616406 -0.0661918 0)
(-0.00602088 -0.063938 0)
(-0.00626115 -0.0647087 0)
(-0.0062911 -0.0683901 0)
(-0.00610113 -0.0624264 0)
(-0.0063438 -0.063132 0)
(-0.00616614 -0.0608082 0)
(-0.0064116 -0.0614524 0)
(-0.00621622 -0.0590793 0)
(-0.00646411 -0.0596785 0)
(-0.00666098 -0.0620211 0)
(-0.006714 -0.0601976 0)
(-0.00691249 -0.0624948 0)
(-0.00696448 -0.0606137 0)
(-0.00675052 -0.0583017 0)
(-0.00700027 -0.0586444 0)
(-0.0071642 -0.0628479 0)
(-0.00677044 -0.0563245 0)
(-0.00702107 -0.0565816 0)
(-0.00459069 -0.0740878 0)
(-0.00344177 -0.071266 0)
(-0.00348023 -0.0697099 0)
(-0.00331637 -0.0698566 0)
(-0.00334475 -0.0682711 0)
(-0.0067702 -0.0542425 0)
(-0.0070237 -0.0544289 0)
(-0.00319274 -0.0684317 0)
(-0.0032129 -0.0668213 0)
(-0.00307129 -0.0669784 0)
(-0.00308626 -0.0653593 0)
(-0.00295201 -0.0655147 0)
(-0.00296323 -0.063884 0)
(-0.00283605 -0.0640389 0)
(-0.00284338 -0.0624019 0)
(-0.00296337 -0.0621779 0)
(-0.00283903 -0.0606906 0)
(-0.00295171 -0.0603943 0)
(-0.00282247 -0.0589003 0)
(-0.00292679 -0.0585281 0)
(-0.00279397 -0.0570275 0)
(-0.00269728 -0.0574072 0)
(-0.00266603 -0.0555208 0)
(-0.0025756 -0.0559045 0)
(-0.00254296 -0.0539762 0)
(-0.00245757 -0.0543946 0)
(-0.00242275 -0.0524483 0)
(-0.00234321 -0.0528917 0)
(-0.002306 -0.050954 0)
(-0.00223219 -0.051389 0)
(-0.00219283 -0.0494526 0)
(-0.00212449 -0.0498896 0)
(-0.00208346 -0.0479552 0)
(-0.00201993 -0.0483943 0)
(-0.00197791 -0.0464683 0)
(-0.00191877 -0.0469046 0)
(-0.00187626 -0.0449906 0)
(-0.00182195 -0.0454331 0)
(-0.00288829 -0.0565506 0)
(-0.00177831 -0.0435183 0)
(-0.00172876 -0.043961 0)
(-0.00168426 -0.0420615 0)
(-0.00163906 -0.0424383 0)
(-0.00159412 -0.0406302 0)
(-0.00155402 -0.04101 0)
(-0.00238111 -0.0504062 0)
(-0.0015076 -0.0392246 0)
(-0.00147252 -0.0396539 0)
(-0.0014245 -0.0378166 0)
(-0.00139189 -0.0382908 0)
(-0.00134471 -0.0364366 0)
(-0.00131472 -0.0369013 0)
(-0.00126817 -0.0350669 0)
(-0.00124172 -0.035536 0)
(-0.00119494 -0.0337201 0)
(-0.00117168 -0.0341907 0)
(-0.00192766 -0.0444459 0)
(-0.00112419 -0.0323865 0)
(-0.00110463 -0.0328673 0)
(-0.00114517 -0.0345754 0)
(-0.00108146 -0.033256 0)
(-0.00104125 -0.0315757 0)
(-0.00102061 -0.0319661 0)
(-0.00098088 -0.0303064 0)
(-0.000962502 -0.0307018 0)
(-0.000997612 -0.032293 0)
(-0.000941992 -0.0310368 0)
(-0.00090707 -0.0294657 0)
(-0.000888845 -0.0298066 0)
(-0.000854197 -0.0282552 0)
(-0.000838116 -0.028599 0)
(-0.000803762 -0.0270692 0)
(-0.000789742 -0.0274161 0)
(-0.00075568 -0.0259084 0)
(-0.00074364 -0.0262612 0)
(-0.000774153 -0.0277065 0)
(-0.000730004 -0.0265584 0)
(-0.00069974 -0.0251348 0)
(-0.000687883 -0.0254379 0)
(-0.000657983 -0.0240371 0)
(-0.000647787 -0.0243461 0)
(-0.00061833 -0.0229693 0)
(-0.000609664 -0.0232835 0)
(-0.000636145 -0.0246008 0)
(-0.000599555 -0.0235414 0)
(-0.000573478 -0.0222512 0)
(-0.000564755 -0.0225121 0)
(-0.000539102 -0.0212471 0)
(-0.000531657 -0.0215127 0)
(-0.00050644 -0.0202702 0)
(-0.00050019 -0.0205399 0)
(-0.000522831 -0.0217247 0)
(-0.00049256 -0.0207528 0)
(-0.000470302 -0.0195945 0)
(-0.000463947 -0.0198181 0)
(-0.000442173 -0.0186813 0)
(-0.000436508 -0.018892 0)
(-0.000456387 -0.0199869 0)
(-0.000429886 -0.0190646 0)
(-0.000406713 -0.017818 0)
(-0.000404466 -0.018174 0)
(-0.000422713 -0.0192013 0)
(-0.000398566 -0.0183346 0)
(-0.000381546 -0.0173821 0)
(-0.000375607 -0.0174854 0)
(-0.000390126 -0.0183769 0)
(-0.000368728 -0.0175573 0)
(-0.000353645 -0.0166511 0)
(-0.000347859 -0.016741 0)
(-0.000361577 -0.0176123 0)
(-0.0003415 -0.0167992 0)
(-0.000353607 -0.0176177 0)
(-0.000334362 -0.0168115 0)
(-0.000321903 -0.0159913 0)
(-0.000315573 -0.0160119 0)
(-0.000326718 -0.0167858 0)
(-0.000308685 -0.0159941 0)
(-0.000318504 -0.0167149 0)
(-0.00030125 -0.015937 0)
(-0.000291162 -0.0152113 0)
(-0.000284434 -0.0151625 0)
(-0.000293436 -0.0158516 0)
(-0.000277302 -0.0150818 0)
(-0.000285387 -0.0157403 0)
(-0.000269774 -0.0149678 0)
(-0.000261704 -0.0143169 0)
(-0.00025465 -0.014204 0)
(-0.000261953 -0.0148247 0)
(-0.000247329 -0.0140676 0)
(-0.00023996 -0.0134511 0)
(-0.000253898 -0.0146543 0)
(-0.000239807 -0.0139033 0)
(-0.000245682 -0.0144574 0)
(-0.000232168 -0.0137151 0)
(-0.000237344 -0.0142345 0)
(-0.000224312 -0.0134956 0)
(-0.000228872 -0.0139853 0)
(-0.000216152 -0.0132418 0)
(-0.000220426 -0.0137233 0)
(-0.000207762 -0.0129551 0)
(-0.000203545 -0.0124882 0)
(-0.000211666 -0.0134231 0)
(-0.000199402 -0.012655 0)
(-0.000202746 -0.0130903 0)
(-0.00019109 -0.0123428 0)
(-0.00019388 -0.0127427 0)
(-0.00018256 -0.0119956 0)
(-0.000184934 -0.0123687 0)
(-0.000214524 -0.0138508 0)
(-0.000250795 -0.0149898 0)
(-0.000173812 -0.0116135 0)
(-0.000175987 -0.0119735 0)
(-0.000171277 -0.0112437 0)
(-0.000972981 -0.0325628 0)
(-0.00154072 -0.0386869 0)
(-0.000165183 -0.0112218 0)
(-0.000167133 -0.011565 0)
(-0.000177602 -0.0123111 0)
(-0.0001685 -0.0118823 0)
(-0.000178652 -0.0126275 0)
(-0.000169317 -0.0121779 0)
(-0.00144221 -0.0403505 0)
(-0.000159491 -0.0114385 0)
(-0.000160101 -0.011714 0)
(-0.00675067 -0.0520639 0)
(-0.00700443 -0.0521988 0)
(-0.00727984 -0.0545064 0)
(-0.00725744 -0.052237 0)
(-0.00753719 -0.0544554 0)
(-0.0075093 -0.0521619 0)
(-0.0077898 -0.0542945 0)
(-0.00775903 -0.0519425 0)
(-0.00803689 -0.0540424 0)
(-0.00800456 -0.051567 0)
(-0.0077079 -0.0495332 0)
(-0.00795177 -0.0490178 0)
(-0.0082327 -0.0510175 0)
(-0.00819206 -0.0484042 0)
(-0.00788453 -0.0464251 0)
(-0.00812318 -0.0457215 0)
(-0.00843724 -0.047616 0)
(-0.0083598 -0.0448824 0)
(-0.00803255 -0.0430289 0)
(-0.00826439 -0.0421234 0)
(-0.00859141 -0.043898 0)
(-0.00849089 -0.0410642 0)
(-0.00881608 -0.0427571 0)
(-0.00871069 -0.0398257 0)
(-0.00837157 -0.0382053 0)
(-0.00858648 -0.0368753 0)
(-0.00892476 -0.0383897 0)
(-0.00879582 -0.0353572 0)
(-0.00844299 -0.0339377 0)
(-0.00864786 -0.0323523 0)
(-0.00899869 -0.0336441 0)
(-0.00884438 -0.0305795 0)
(-0.00919221 -0.0317509 0)
(-0.00903137 -0.0286076 0)
(-0.00867196 -0.0275484 0)
(-0.00885216 -0.0254938 0)
(-0.00921591 -0.0264098 0)
(-0.00902649 -0.0232194 0)
(-0.00865772 -0.0224609 0)
(-0.000150554 -0.0109786 0)
(-0.000151003 -0.0112362 0)
(-0.00195545 -0.0487159 0)
(-0.00671307 -0.0498117 0)
(-0.00646048 -0.049635 0)
(-0.00121259 -0.0331233 0)
(-0.000179155 -0.0129237 0)
(-0.00337939 -0.0822642 0)
(-0.000141706 -0.0105042 0)
(-0.000142029 -0.0107452 0)
(-0.000766008 -0.0255001 0)
(-0.00640348 -0.0473284 0)
(-0.00615285 -0.0471272 0)
(-0.000132965 -0.0100168 0)
(-0.000133198 -0.0102427 0)
(-0.000141944 -0.0109686 0)
(-0.00013235 -0.00977463 0)
(-0.0059717 -0.05842 0)
(-0.00607499 -0.0447606 0)
(-0.00582582 -0.044518 0)
(-0.00237578 -0.0547358 0)
(-0.00281753 -0.0655992 0)
(-0.005728 -0.042096 0)
(-0.0054779 -0.0417964 0)
(-0.00167015 -0.0442184 0)
(-0.000511327 -0.0199491 0)
(-0.000623345 -0.0248022 0)
(-0.00150498 -0.0694367 0)
(-0.0106464 -0.0866642 0)
(-0.0120996 -0.100077 0)
(-0.0122516 -0.0984191 0)
(-0.00686943 -0.101599 0)
(-0.012615 -0.0425427 0)
(-0.0153991 -0.0980071 0)
(-0.0153901 -0.100177 0)
(-0.0155574 -0.0984913 0)
(-0.0155536 -0.100663 0)
(-0.0157142 -0.0989415 0)
(-0.0157166 -0.101081 0)
(-0.0158683 -0.0993355 0)
(-0.0158762 -0.10143 0)
(-0.0160194 -0.0996614 0)
(-0.0160323 -0.101748 0)
(-0.0161671 -0.0999042 0)
(-0.0161861 -0.10195 0)
(-0.01631 -0.100049 0)
(-0.0163352 -0.10206 0)
(-0.0164466 -0.100138 0)
(-0.0164779 -0.102118 0)
(-0.0165773 -0.10016 0)
(-0.0166138 -0.102107 0)
(-0.0167003 -0.10008 0)
(-0.0166601 -0.0981185 0)
(-0.0167709 -0.0979237 0)
(-0.0167266 -0.0959818 0)
(-0.0168233 -0.0956563 0)
(-0.0167799 -0.0937496 0)
(-0.0168654 -0.0933862 0)
(-0.0168215 -0.0914468 0)
(-0.0169001 -0.0910591 0)
(-0.0168519 -0.0890673 0)
(-0.0169225 -0.088607 0)
(-0.0168722 -0.0866225 0)
(-0.0169352 -0.0860986 0)
(-0.0168836 -0.0841145 0)
(-0.0169394 -0.0835397 0)
(-0.0168881 -0.0815679 0)
(-0.0169371 -0.0809377 0)
(-0.0167414 -0.101997 0)
(-0.0166509 -0.104002 0)
(-0.0169907 -0.0854705 0)
(-0.0167813 -0.103929 0)
(-0.016692 -0.105804 0)
(-0.0168177 -0.10585 0)
(-0.0167195 -0.107564 0)
(-0.0168523 -0.107678 0)
(-0.0167399 -0.10933 0)
(-0.0168854 -0.109449 0)
(-0.0167684 -0.111102 0)
(-0.01698 -0.107664 0)
(-0.017018 -0.10943 0)
(-0.0170967 -0.107574 0)
(-0.0166085 -0.110871 0)
(-0.01663 -0.112619 0)
(-0.0171387 -0.10931 0)
(-0.0172015 -0.107399 0)
(-0.0164592 -0.112336 0)
(-0.016466 -0.113974 0)
(-0.0172479 -0.109099 0)
(-0.0172932 -0.107117 0)
(-0.0158886 -0.103534 0)
(-0.0167787 -0.0894581 0)
(-0.0155865 -0.073882 0)
(-0.0135784 -0.095634 0)
(-0.0134374 -0.0947126 0)
(-0.0136479 -0.0935563 0)
(-0.0135022 -0.0926342 0)
(-0.0137024 -0.0913939 0)
(-0.0135603 -0.0904956 0)
(-0.0137454 -0.0891558 0)
(-0.0136025 -0.0883491 0)
(-0.0137802 -0.0868365 0)
(-0.0136225 -0.0861178 0)
(-0.013804 -0.0844444 0)
(-0.0136401 -0.0837467 0)
(-0.0138182 -0.0819772 0)
(-0.0134562 -0.0878239 0)
(-0.0136558 -0.0813006 0)
(-0.0138256 -0.0794186 0)
(-0.0136617 -0.0788025 0)
(-0.0138236 -0.0768093 0)
(-0.0139866 -0.0773357 0)
(-0.0139763 -0.0746419 0)
(-0.0162867 -0.113593 0)
(-0.0162764 -0.115113 0)
(-0.0164604 -0.115538 0)
(-0.0162569 -0.116551 0)
(-0.0164455 -0.117048 0)
(-0.0162225 -0.117915 0)
(-0.0164146 -0.118492 0)
(-0.0161668 -0.119198 0)
(-0.0163646 -0.119821 0)
(-0.0160867 -0.120379 0)
(-0.00795085 -0.120306 0)
(-0.0173422 -0.108727 0)
(-0.017371 -0.106726 0)
(-0.0173235 -0.105142 0)
(-0.0173879 -0.104692 0)
(-0.0141374 -0.0750411 0)
(-0.0141191 -0.0722905 0)
(-0.0159758 -0.118503 0)
(-0.00536012 -0.039356 0)
(-0.00511287 -0.0390083 0)
(-0.00560953 -0.0396048 0)
(-0.00318786 -0.0768851 0)
(-0.0142792 -0.0725812 0)
(-0.0142515 -0.0697672 0)
(-0.014411 -0.0699958 0)
(-0.0143724 -0.0670943 0)
(-0.0142118 -0.0669292 0)
(-0.0143255 -0.0641613 0)
(-0.0138103 -0.0741516 0)
(-0.0144829 -0.0642487 0)
(-0.0144293 -0.0612108 0)
(-0.0145837 -0.0612201 0)
(-0.0145227 -0.058101 0)
(-0.0173413 -0.103123 0)
(-0.0173944 -0.102601 0)
(-0.0162776 -0.121005 0)
(-0.015971 -0.121444 0)
(-0.0173492 -0.101051 0)
(-0.0173929 -0.100483 0)
(-0.0174357 -0.101973 0)
(-0.0174262 -0.0998522 0)
(-0.0173855 -0.0983843 0)
(-0.017412 -0.0977565 0)
(-0.0173732 -0.096294 0)
(-0.0173939 -0.0956343 0)
(-0.0173575 -0.0942086 0)
(-0.0173725 -0.0934879 0)
(-0.0173381 -0.0921204 0)
(-0.0173488 -0.0913123 0)
(-0.0173153 -0.0899757 0)
(-0.0173224 -0.0891153 0)
(-0.0172908 -0.0878165 0)
(-0.0172948 -0.0869503 0)
(-0.0172647 -0.0856674 0)
(-0.0172667 -0.0848148 0)
(-0.0172372 -0.0835097 0)
(-0.0174196 -0.108283 0)
(-0.0161454 -0.0978918 0)
(-0.0141649 -0.0640441 0)
(-0.0134907 -0.0805965 0)
(-0.00302922 -0.0580779 0)
(-0.00298169 -0.0560254 0)
(-0.00805058 -0.0564035 0)
(-0.0165769 -0.120543 0)
(-0.0121633 -0.103816 0)
(-0.0118606 -0.104164 0)
(-0.0119658 -0.10527 0)
(-0.0116476 -0.105546 0)
(-0.0115544 -0.104434 0)
(-0.0113285 -0.105746 0)
(-0.0114093 -0.106861 0)
(-0.0110785 -0.106982 0)
(-0.0111421 -0.108108 0)
(-0.0108026 -0.108125 0)
(-0.0108459 -0.109244 0)
(-0.0105004 -0.10917 0)
(-0.0105217 -0.110263 0)
(-0.010169 -0.110127 0)
(-0.0101673 -0.111192 0)
(-0.00980795 -0.110991 0)
(-0.00977875 -0.11203 0)
(-0.00941418 -0.11177 0)
(-0.0094607 -0.110734 0)
(-0.00906369 -0.111464 0)
(-0.00897998 -0.112479 0)
(-0.0086375 -0.112112 0)
(-0.00851769 -0.113103 0)
(-0.0081828 -0.112678 0)
(-0.00803232 -0.113633 0)
(-0.00770237 -0.113158 0)
(-0.00751684 -0.114071 0)
(-0.00719967 -0.113545 0)
(-0.00697669 -0.114418 0)
(-0.00667162 -0.113854 0)
(-0.00690317 -0.112985 0)
(-0.00638515 -0.113261 0)
(-0.00611386 -0.114095 0)
(-0.00584701 -0.113455 0)
(-0.0055386 -0.114262 0)
(-0.00529666 -0.11357 0)
(-0.00495694 -0.114369 0)
(-0.00474175 -0.113628 0)
(-0.00436878 -0.114378 0)
(-0.00418974 -0.113602 0)
(-0.0037832 -0.114255 0)
(-0.00364964 -0.113488 0)
(-0.00319847 -0.114086 0)
(-0.00312088 -0.113294 0)
(-0.00262441 -0.113836 0)
(-0.00258625 -0.113012 0)
(-0.0104741 -0.108064 0)
(-0.00662237 -0.11239 0)
(-0.00205332 -0.112673 0)
(-0.00912585 -0.110431 0)
(-0.0160892 -0.114638 0)
(-0.0161519 -0.122054 0)
(-0.0158097 -0.122391 0)
(-0.0156179 -0.121769 0)
(-0.0154103 -0.122613 0)
(-0.0155969 -0.123233 0)
(-0.0151389 -0.123352 0)
(-0.0153093 -0.123951 0)
(-0.0147894 -0.123985 0)
(-0.0149221 -0.124539 0)
(-0.014357 -0.124509 0)
(-0.0144067 -0.125005 0)
(-0.0137948 -0.124905 0)
(-0.0137399 -0.125352 0)
(-0.0130634 -0.12519 0)
(-0.0129094 -0.12561 0)
(-0.0121901 -0.125424 0)
(-0.0118894 -0.125813 0)