/*--------------------------------*- C++ -*----------------------------------*\
| =========                 |                                                 |
| \\      /  F ield         | OpenFOAM: The Open Source CFD Toolbox           |
|  \\    /   O peration     | Version:  v2012                                 |
|   \\  /    A nd           | Website:  www.openfoam.com                      |
|    \\/     M anipulation  |                                                 |
\*---------------------------------------------------------------------------*/
FoamFile
{
    version     2.0;
    format      ascii;
    class       pointVectorField;
    location    "950";
    object      pointDisplacement;
}
// * * * * * * * * * * * * * * * * * * * * * * * * * * * * * * * * * * * * * //

dimensions      [0 1 0 0 0 0 0];


internalField   nonuniform List<vector> 
14246
(
(0 0 0)
(-0.0132198 0.120438 0)
(0 0 0)
(-0.0132198 0.120438 0)
(0 0 0)
(0 0 0)
(0 0 0)
(0 0 0)
(0 0 0)
(0 0 0)
(0 0 0)
(0 0 0)
(0 0 0)
(0 0 0)
(0 0 0)
(0 0 0)
(0 0 0)
(0 0 0)
(0 0 0)
(0 0 0)
(0 0 0)
(0 0 0)
(0 0 0)
(0 0 0)
(0 0 0)
(0 0 0)
(0 0 0)
(0 0 0)
(0 0 0)
(0 0 0)
(0 0 0)
(0 0 0)
(0 0 0)
(0 0 0)
(0 0 0)
(0 0 0)
(0 0 0)
(0 0 0)
(0 0 0)
(0 0 0)
(0 0 0)
(0 0 0)
(0 0 0)
(0 0 0)
(0 0 0)
(0 0 0)
(0 0 0)
(0 0 0)
(0 0 0)
(0 0 0)
(0 0 0)
(0 0 0)
(0 0 0)
(0 0 0)
(0 0 0)
(0 0 0)
(0 0 0)
(0 0 0)
(0 0 0)
(0 0 0)
(0 0 0)
(0 0 0)
(0 0 0)
(0 0 0)
(0 0 0)
(0 0 0)
(0 0 0)
(0 0 0)
(0 0 0)
(0 0 0)
(0 0 0)
(0 0 0)
(0 0 0)
(0 0 0)
(0 0 0)
(-0.0132424 0.118936 0)
(-0.0132649 0.117433 0)
(-0.0132875 0.11593 0)
(-0.0133101 0.114428 0)
(-0.0133327 0.112925 0)
(-0.0133553 0.111422 0)
(-0.0133779 0.10992 0)
(-0.0134004 0.108417 0)
(-0.013423 0.106914 0)
(-0.0134456 0.105412 0)
(-0.0134682 0.103909 0)
(-0.0134908 0.102406 0)
(-0.0135134 0.100904 0)
(-0.013536 0.0994011 0)
(-0.0135585 0.0978984 0)
(-0.0135811 0.0963958 0)
(-0.0136037 0.0948931 0)
(-0.0136263 0.0933905 0)
(-0.0136489 0.0918878 0)
(-0.0136715 0.0903852 0)
(-0.013694 0.0888825 0)
(-0.0137166 0.0873799 0)
(-0.0137392 0.0858772 0)
(-0.0137618 0.0843745 0)
(-0.0137844 0.0828719 0)
(-0.013807 0.0813692 0)
(-0.0138296 0.0798666 0)
(-0.0138521 0.0783639 0)
(-0.0138747 0.0768613 0)
(-0.0138973 0.0753586 0)
(-0.0139199 0.073856 0)
(-0.0139425 0.0723533 0)
(-0.0139651 0.0708507 0)
(-0.0139877 0.069348 0)
(-0.0140102 0.0678453 0)
(-0.0140328 0.0663427 0)
(-0.0140554 0.06484 0)
(-0.014078 0.0633374 0)
(-0.0141006 0.0618347 0)
(-0.0141232 0.0603321 0)
(-0.0141457 0.0588294 0)
(-0.0141683 0.0573268 0)
(-0.0141909 0.0558241 0)
(-0.0142135 0.0543214 0)
(-0.0142361 0.0528188 0)
(-0.0142587 0.0513161 0)
(-0.0142813 0.0498135 0)
(-0.0143038 0.0483108 0)
(-0.0143264 0.0468082 0)
(-0.014349 0.0453055 0)
(-0.0143716 0.0438029 0)
(-0.0143942 0.0423002 0)
(-0.0144168 0.0407975 0)
(-0.0144393 0.0392949 0)
(-0.0144619 0.0377922 0)
(-0.0144845 0.0362896 0)
(-0.0145071 0.0347869 0)
(-0.0145297 0.0332843 0)
(-0.0145523 0.0317816 0)
(-0.0145749 0.030279 0)
(-0.0145974 0.0287763 0)
(-0.01462 0.0272736 0)
(-0.0146426 0.025771 0)
(-0.0146652 0.0242683 0)
(-0.0146878 0.0227657 0)
(-0.0147104 0.021263 0)
(-0.014733 0.0197604 0)
(-0.0147555 0.0182577 0)
(-0.0147781 0.0167551 0)
(-0.0148007 0.0152524 0)
(-0.0148233 0.0137497 0)
(-0.0148459 0.0122471 0)
(-0.0148685 0.0107444 0)
(-0.014891 0.00924178 0)
(-0.0149136 0.00773913 0)
(-0.0149362 0.00623647 0)
(-0.0149588 0.00473381 0)
(-0.0149814 0.00323116 0)
(-0.015004 0.0017285 0)
(-0.0150266 0.000225848 0)
(-0.0150491 -0.00127681 0)
(-0.0150717 -0.00277946 0)
(-0.0150943 -0.00428212 0)
(-0.0151169 -0.00578477 0)
(-0.0151395 -0.00728743 0)
(-0.0151621 -0.00879008 0)
(-0.0151846 -0.0102927 0)
(-0.0152072 -0.0117954 0)
(-0.0152298 -0.013298 0)
(-0.0152524 -0.0148007 0)
(-0.015275 -0.0163034 0)
(-0.0152976 -0.017806 0)
(-0.0153202 -0.0193087 0)
(-0.0153427 -0.0208113 0)
(-0.0153653 -0.022314 0)
(-0.0153879 -0.0238166 0)
(-0.0154105 -0.0253193 0)
(-0.0154331 -0.0268219 0)
(-0.0154557 -0.0283246 0)
(-0.0154783 -0.0298273 0)
(-0.0155008 -0.0313299 0)
(-0.0155234 -0.0328326 0)
(-0.015546 -0.0343352 0)
(-0.0155686 -0.0358379 0)
(-0.0155912 -0.0373405 0)
(-0.0156138 -0.0388432 0)
(-0.0156363 -0.0403458 0)
(-0.0156589 -0.0418485 0)
(-0.0156815 -0.0433512 0)
(-0.0157041 -0.0448538 0)
(-0.0157267 -0.0463565 0)
(-0.0157493 -0.0478591 0)
(-0.0157719 -0.0493618 0)
(-0.0157944 -0.0508644 0)
(-0.015817 -0.0523671 0)
(-0.0158396 -0.0538697 0)
(-0.0158622 -0.0553724 0)
(-0.0158848 -0.0568751 0)
(-0.0159074 -0.0583777 0)
(-0.0159299 -0.0598804 0)
(-0.0159525 -0.061383 0)
(-0.0159751 -0.0628857 0)
(-0.0159977 -0.0643883 0)
(-0.0160203 -0.065891 0)
(-0.0160429 -0.0673936 0)
(-0.0160655 -0.0688963 0)
(-0.016088 -0.070399 0)
(-0.0161106 -0.0719016 0)
(-0.0161332 -0.0734043 0)
(-0.0161558 -0.0749069 0)
(-0.0161784 -0.0764096 0)
(-0.016201 -0.0779122 0)
(-0.0162235 -0.0794149 0)
(-0.0102145 0.120393 0)
(-0.0117171 0.120416 0)
(0 0 0)
(0 0 0)
(0 0 0)
(0 0 0)
(0 0 0)
(0 0 0)
(0 0 0)
(0 0 0)
(0 0 0)
(0 0 0)
(0 0 0)
(0 0 0)
(0 0 0)
(0 0 0)
(0 0 0)
(0 0 0)
(0 0 0)
(0 0 0)
(0 0 0)
(0 0 0)
(0 0 0)
(0 0 0)
(0 0 0)
(0 0 0)
(0 0 0)
(0 0 0)
(0 0 0)
(0 0 0)
(0 0 0)
(0 0 0)
(0 0 0)
(0 0 0)
(0 0 0)
(0 0 0)
(0 0 0)
(0 0 0)
(0 0 0)
(0 0 0)
(0 0 0)
(0 0 0)
(0 0 0)
(0 0 0)
(0 0 0)
(0 0 0)
(0 0 0)
(0 0 0)
(0 0 0)
(0 0 0)
(0 0 0)
(0 0 0)
(0 0 0)
(0 0 0)
(0 0 0)
(0 0 0)
(0 0 0)
(0 0 0)
(0 0 0)
(0 0 0)
(0 0 0)
(0 0 0)
(0 0 0)
(0 0 0)
(0 0 0)
(0 0 0)
(0 0 0)
(0 0 0)
(0 0 0)
(0 0 0)
(0 0 0)
(0 0 0)
(0 0 0)
(-0.0132424 0.118936 0)
(-0.0132649 0.117433 0)
(-0.0132875 0.11593 0)
(-0.0133101 0.114428 0)
(-0.0133327 0.112925 0)
(-0.0133553 0.111422 0)
(-0.0133779 0.10992 0)
(-0.0134004 0.108417 0)
(-0.013423 0.106914 0)
(-0.0134456 0.105412 0)
(-0.0134682 0.103909 0)
(-0.0134908 0.102406 0)
(-0.0135134 0.100904 0)
(-0.013536 0.0994011 0)
(-0.0135585 0.0978984 0)
(-0.0135811 0.0963958 0)
(-0.0136037 0.0948931 0)
(-0.0136263 0.0933905 0)
(-0.0136489 0.0918878 0)
(-0.0136715 0.0903852 0)
(-0.013694 0.0888825 0)
(-0.0137166 0.0873799 0)
(-0.0137392 0.0858772 0)
(-0.0137618 0.0843745 0)
(-0.0137844 0.0828719 0)
(-0.013807 0.0813692 0)
(-0.0138296 0.0798666 0)
(-0.0138521 0.0783639 0)
(-0.0138747 0.0768613 0)
(-0.0138973 0.0753586 0)
(-0.0139199 0.073856 0)
(-0.0139425 0.0723533 0)
(-0.0139651 0.0708507 0)
(-0.0139877 0.069348 0)
(-0.0140102 0.0678453 0)
(-0.0140328 0.0663427 0)
(-0.0140554 0.06484 0)
(-0.014078 0.0633374 0)
(-0.0141006 0.0618347 0)
(-0.0141232 0.0603321 0)
(-0.0141457 0.0588294 0)
(-0.0141683 0.0573268 0)
(-0.0141909 0.0558241 0)
(-0.0142135 0.0543214 0)
(-0.0142361 0.0528188 0)
(-0.0142587 0.0513161 0)
(-0.0142813 0.0498135 0)
(-0.0143038 0.0483108 0)
(-0.0143264 0.0468082 0)
(-0.014349 0.0453055 0)
(-0.0143716 0.0438029 0)
(-0.0143942 0.0423002 0)
(-0.0144168 0.0407975 0)
(-0.0144393 0.0392949 0)
(-0.0144619 0.0377922 0)
(-0.0144845 0.0362896 0)
(-0.0145071 0.0347869 0)
(-0.0145297 0.0332843 0)
(-0.0145523 0.0317816 0)
(-0.0145749 0.030279 0)
(-0.0145974 0.0287763 0)
(-0.01462 0.0272736 0)
(-0.0146426 0.025771 0)
(-0.0146652 0.0242683 0)
(-0.0146878 0.0227657 0)
(-0.0147104 0.021263 0)
(-0.014733 0.0197604 0)
(-0.0147555 0.0182577 0)
(-0.0147781 0.0167551 0)
(-0.0148007 0.0152524 0)
(-0.0148233 0.0137497 0)
(-0.0148459 0.0122471 0)
(-0.0148685 0.0107444 0)
(-0.014891 0.00924178 0)
(-0.0149136 0.00773913 0)
(-0.0149362 0.00623647 0)
(-0.0149588 0.00473381 0)
(-0.0149814 0.00323116 0)
(-0.015004 0.0017285 0)
(-0.0150266 0.000225848 0)
(-0.0150491 -0.00127681 0)
(-0.0150717 -0.00277946 0)
(-0.0150943 -0.00428212 0)
(-0.0151169 -0.00578477 0)
(-0.0151395 -0.00728743 0)
(-0.0151621 -0.00879008 0)
(-0.0151846 -0.0102927 0)
(-0.0152072 -0.0117954 0)
(-0.0152298 -0.013298 0)
(-0.0152524 -0.0148007 0)
(-0.015275 -0.0163034 0)
(-0.0152976 -0.017806 0)
(-0.0153202 -0.0193087 0)
(-0.0153427 -0.0208113 0)
(-0.0153653 -0.022314 0)
(-0.0153879 -0.0238166 0)
(-0.0154105 -0.0253193 0)
(-0.0154331 -0.0268219 0)
(-0.0154557 -0.0283246 0)
(-0.0154783 -0.0298273 0)
(-0.0155008 -0.0313299 0)
(-0.0155234 -0.0328326 0)
(-0.015546 -0.0343352 0)
(-0.0155686 -0.0358379 0)
(-0.0155912 -0.0373405 0)
(-0.0156138 -0.0388432 0)
(-0.0156363 -0.0403458 0)
(-0.0156589 -0.0418485 0)
(-0.0156815 -0.0433512 0)
(-0.0157041 -0.0448538 0)
(-0.0157267 -0.0463565 0)
(-0.0157493 -0.0478591 0)
(-0.0157719 -0.0493618 0)
(-0.0157944 -0.0508644 0)
(-0.015817 -0.0523671 0)
(-0.0158396 -0.0538697 0)
(-0.0158622 -0.0553724 0)
(-0.0158848 -0.0568751 0)
(-0.0159074 -0.0583777 0)
(-0.0159299 -0.0598804 0)
(-0.0159525 -0.061383 0)
(-0.0159751 -0.0628857 0)
(-0.0159977 -0.0643883 0)
(-0.0160203 -0.065891 0)
(-0.0160429 -0.0673936 0)
(-0.0160655 -0.0688963 0)
(-0.016088 -0.070399 0)
(-0.0161106 -0.0719016 0)
(-0.0161332 -0.0734043 0)
(-0.0161558 -0.0749069 0)
(-0.0161784 -0.0764096 0)
(-0.016201 -0.0779122 0)
(-0.0162235 -0.0794149 0)
(-0.0102145 0.120393 0)
(-0.0117171 0.120416 0)
(-0.0162359 -0.0802246 0)
(-0.0158265 -0.0529319 0)
(-0.0154224 -0.0261477 0)
(-0.0150163 0.000901311 0)
(-0.0146094 0.0280027 0)
(-0.0142031 0.0550319 0)
(-0.0137947 0.0821612 0)
(-0.013389 0.109134 0)
(-0.0144053 0.0415521 0)
(-0.0148127 0.0144565 0)
(-0.0160324 -0.0666739 0)
(-0.0135934 0.0955809 0)
(-0.0156262 -0.0396744 0)
(-0.0152205 -0.0126367 0)
(-0.0140008 0.0684714 0)
(-0.00966566 0.120389 0)
(-0.000495209 0.00293456 0)
(-0.00029718 0.00530151 0)
(-0.000666064 0.00232473 0)
(-0.000896646 0.00038059 0)
(-0.00021492 0.00687638 0)
(-6.6689e-05 0.00852002 0)
(-0.000776708 -0.00142583 0)
(-0.0132705 0.116614 0)
(-0.000396334 0.00304859 0)
(-0.000291042 0.00393974 0)
(-0.000236636 0.00277188 0)
(-0.0136827 0.0896352 0)
(-0.015311 -0.0186816 0)
(-0.0139086 0.0745709 0)
(-0.0157161 -0.0456327 0)
(-0.0145185 0.0340301 0)
(-0.0142917 0.0491343 0)
(-0.0147216 0.020523 0)
(-0.014926 0.00692402 0)
(-0.0159182 -0.0591376 0)
(-0.0134794 0.10319 0)
(-0.015513 -0.0321216 0)
(-0.0151065 -0.00506984 0)
(-0.016125 -0.0727979 0)
(-0.0141122 0.0610683 0)
(-0.000282644 0.00251376 0)
(-0.000275 0.00622001 0)
(-0.000639675 0.00303172 0)
(-0.000670647 0.00115707 0)
(-0.000153497 0.00163909 0)
(-0.000189049 0.00180828 0)
(-0.00010239 0.00102478 0)
(-0.00017089 0.00753933 0)
(8.50585e-06 0.00779325 0)
(-0.000301714 0.00473776 0)
(-0.000682153 0.00181802 0)
(-0.000757724 -0.000713356 0)
(-0.000468468 0.00311856 0)
(-0.000266654 0.00333645 0)
(-0.000369173 0.00307521 0)
(-0.000198736 0.00220761 0)
(-0.00010545 0.00109597 0)
(-4.87513e-05 0.000498245 0)
(-0.000192945 0.00716032 0)
(-0.000395083 0.0135205 0)
(-0.000437481 0.0130773 0)
(-0.000605475 0.0192014 0)
(-0.000664904 0.018619 0)
(-0.000822705 0.0242638 0)
(-0.0008942 0.0235606 0)
(-0.00104876 0.0288823 0)
(-0.00112571 0.0280351 0)
(-0.00128065 0.0329739 0)
(-0.00135916 0.0319722 0)
(-0.00151302 0.0364855 0)
(-0.00159336 0.0353498 0)
(-0.00174546 0.0395916 0)
(-0.0018281 0.0383219 0)
(-0.00197957 0.0423363 0)
(-0.00188691 0.0436859 0)
(-0.00211991 0.0461881 0)
(-0.00201523 0.0475601 0)
(-0.00224884 0.0498478 0)
(-0.00213117 0.0512112 0)
(-0.00236746 0.0533184 0)
(-0.00223713 0.0546784 0)
(-0.00247537 0.0566095 0)
(-0.00233553 0.0580201 0)
(-0.00257593 0.0597254 0)
(-0.00243804 0.0611651 0)
(-0.00267197 0.0626781 0)
(-0.00252437 0.0640587 0)
(-0.00275816 0.0654559 0)
(-0.00259742 0.0668143 0)
(-0.00283815 0.0680948 0)
(-0.00266771 0.0693989 0)
(-0.00291029 0.0706357 0)
(-0.00272592 0.0718651 0)
(-0.00297423 0.0730241 0)
(-0.00278141 0.0742479 0)
(-0.00303711 0.075277 0)
(-0.00283495 0.076494 0)
(-0.00309855 0.0774112 0)
(-0.00288917 0.0786241 0)
(-0.00316188 0.0794529 0)
(-0.00294423 0.0806737 0)
(-0.00336378 0.078183 0)
(-0.00343836 0.0801298 0)
(-0.00363324 0.0788048 0)
(-0.00371729 0.0806687 0)
(-0.00390636 0.0792869 0)
(-0.00400024 0.0810802 0)
(-0.00418475 0.0796323 0)
(-0.00429346 0.0813628 0)
(-0.00446536 0.0798365 0)
(-0.00458697 0.0814174 0)
(-0.00474414 0.0799384 0)
(-0.00487097 0.0813777 0)
(-0.00502406 0.0798841 0)
(-0.00516273 0.0813584 0)
(-0.00530537 0.0796731 0)
(-0.00546203 0.0811453 0)
(-0.00558937 0.0793561 0)
(-0.00575744 0.0807233 0)
(-0.00444762 0.083132 0)
(-0.00587228 0.0788826 0)
(-0.00604838 0.0801695 0)
(-0.00615106 0.078253 0)
(-0.00633565 0.0794659 0)
(-0.00642757 0.0774783 0)
(-0.00662198 0.0786154 0)
(-0.00669999 0.0765569 0)
(-0.00690281 0.0775822 0)
(-0.0065134 0.0754247 0)
(-0.00696275 0.0755185 0)
(-0.0071707 0.0763746 0)
(-0.00721279 0.0742982 0)
(-0.00743225 0.0750147 0)
(-0.00745544 0.0728674 0)
(-0.0076825 0.0734206 0)
(-0.00769374 0.0712856 0)
(-0.00791949 0.0717621 0)
(-0.00792523 0.0695401 0)
(-0.00815719 0.0699384 0)
(-0.00814556 0.0676151 0)
(-0.00838699 0.0678496 0)
(-0.00790839 0.0673833 0)
(-0.00593004 0.0820071 0)
(-0.00835412 0.0655171 0)
(-0.0086003 0.065585 0)
(-0.00855277 0.0632619 0)
(-0.0087978 0.0631619 0)
(-0.00885262 0.0653824 0)
(-0.00904429 0.0629277 0)
(-0.00898774 0.0606205 0)
(-0.00923047 0.0602908 0)
(-0.0092932 0.0625736 0)
(-0.00947552 0.059786 0)
(-0.00940491 0.0574949 0)
(-0.00964669 0.0568441 0)
(-0.00972205 0.0591198 0)
(-0.00989024 0.0560252 0)
(-0.0098065 0.0537631 0)
(-0.010049 0.0527661 0)
(-0.00995746 0.0505279 0)
(-0.0101997 0.0493408 0)
(-0.0102882 0.0516191 0)
(-0.0104395 0.0480612 0)
(-0.010345 0.0457207 0)
(-0.0105824 0.0442797 0)
(-0.0107056 0.0468017 0)
(-0.0108187 0.0425969 0)
(-0.010715 0.0403409 0)
(-0.0109337 0.0386427 0)
(-0.0110617 0.0405778 0)
(-0.0111561 0.0364483 0)
(-0.0110171 0.0344402 0)
(-0.0112519 0.0324997 0)
(-0.0113784 0.0341592 0)
(-0.0114691 0.0302152 0)
(-0.0113389 0.0285126 0)
(-0.0115471 0.0261152 0)
(-0.0114073 0.0245585 0)
(-0.0116111 0.0220244 0)
(-0.0117531 0.0234772 0)
(-0.0118102 0.0193067 0)
(-0.0116628 0.0179418 0)
(-0.0118561 0.0151114 0)
(-0.011703 0.0138647 0)
(-0.01189 0.0109496 0)
(-0.0120436 0.0121296 0)
(-0.0120698 0.00789152 0)
(-0.0119105 0.00689695 0)
(-0.0120826 0.00379735 0)
(-0.0122424 0.00468372 0)
(-0.0122472 0.00054474 0)
(-0.0120834 -0.000203698 0)
(-0.0122405 -0.0034839 0)
(-0.0120732 -0.00411593 0)
(-0.0122235 -0.00739344 0)
(-0.0123892 -0.00690296 0)
(-0.0123643 -0.0107817 0)
(-0.0121962 -0.0111541 0)
(-0.0123283 -0.0145452 0)
(-0.0124965 -0.0142568 0)
(-0.012453 -0.018077 0)
(-0.0122802 -0.0182029 0)
(-0.012397 -0.0217649 0)
(-0.0122196 -0.0217011 0)
(-0.0123277 -0.0251941 0)
(-0.0121478 -0.0250252 0)
(-0.0122473 -0.0284267 0)
(-0.0124255 -0.0287134 0)
(-0.0123368 -0.0318495 0)
(-0.0121581 -0.0315202 0)
(-0.0122402 -0.0348605 0)
(-0.0124169 -0.0352564 0)
(-0.0123125 -0.0382029 0)
(-0.0121344 -0.0377422 0)
(-0.0121976 -0.0410291 0)
(-0.0120195 -0.0404709 0)
(-0.0120737 -0.0437115 0)
(-0.00235584 0.0484144 0)
(-0.00737949 0.0771814 0)
(-0.0026639 0.0797693 0)
(-0.00270331 0.0818112 0)
(-0.00242197 0.0808456 0)
(-0.00244988 0.0829095 0)
(-0.00216867 0.0818632 0)
(-0.00512596 0.0781985 0)
(0.000188766 0.108948 0)
(-2.68114e-05 0.109725 0)
(-0.000467924 0.109049 0)
(-0.000746017 0.109786 0)
(-0.00113957 0.109034 0)
(-0.00145927 0.109752 0)
(-0.00181334 0.108925 0)
(-0.00216509 0.109627 0)
(-0.00234923 0.0654143 0)
(-0.00246124 0.108738 0)
(-0.00284761 0.109383 0)
(0.000281003 0.108192 0)
(-0.0030807 0.108453 0)
(-0.00348681 0.109024 0)
(-0.00179689 0.110465 0)
(-0.00366923 0.108065 0)
(-0.00408489 0.108582 0)
(-0.00272243 0.107829 0)
(-0.00422177 0.107583 0)
(-0.00463939 0.108047 0)
(-0.00452963 0.109044 0)
(-0.00508229 0.10845 0)
(-0.00515273 0.107415 0)
(-0.00559396 0.107749 0)
(-0.00562628 0.106675 0)
(-0.00606002 0.106937 0)
(-0.00605171 0.108018 0)
(-0.00650308 0.107137 0)
(-0.0028155 0.0612486 0)
(-0.00651806 0.108225 0)
(-0.00695247 0.107266 0)
(-0.00690948 0.106153 0)
(-0.00734426 0.106185 0)
(-0.00741162 0.107296 0)
(-0.00778563 0.106113 0)
(-0.00769262 0.104996 0)
(-0.00811066 0.104836 0)
(-0.00822831 0.105934 0)
(-0.0085232 0.104567 0)
(-0.00866129 0.105642 0)
(-0.00892759 0.104169 0)
(-0.00878647 0.103099 0)
(-0.00916787 0.102594 0)
(-0.00931797 0.103624 0)
(-0.00953307 0.101955 0)
(-0.00969284 0.102937 0)
(-0.00987385 0.101223 0)
(-0.0100503 0.102079 0)
(-0.0101936 0.100307 0)
(-0.010383 0.101051 0)
(-0.0105025 0.0991369 0)
(-0.0106958 0.0998295 0)
(-0.0108007 0.0977455 0)
(-0.0109894 0.0983788 0)
(-0.011077 0.0961926 0)
(-0.01126 0.0967457 0)
(-0.0113286 0.0945214 0)
(-0.0115104 0.0949158 0)
(-0.0115658 0.0926397 0)
(-0.0117466 0.0928244 0)
(-0.0117917 0.0905208 0)
(-0.0119692 0.0905487 0)
(-0.0120058 0.0882138 0)
(-0.0121791 0.0880765 0)
(-0.0122045 0.0857921 0)
(-0.0123706 0.0854387 0)
(-0.0123838 0.0831802 0)
(-0.012543 0.0826965 0)
(-0.0125525 0.0803785 0)
(-0.0127024 0.0797821 0)
(-0.0127085 0.0774523 0)
(-0.0128516 0.0767053 0)
(-0.0128527 0.0743655 0)
(-0.0129896 0.0735469 0)
(-0.0129898 0.0711965 0)
(-0.013118 0.0703188 0)
(-0.0131164 0.0679617 0)
(-0.0132389 0.0669869 0)
(-0.0132357 0.0646155 0)
(-0.0133521 0.063592 0)
(-0.0133469 0.0612325 0)
(-0.0134573 0.0601519 0)
(-0.0134518 0.0578591 0)
(-0.0135558 0.0566521 0)
(-0.013549 0.054446 0)
(-0.0136498 0.053081 0)
(-0.0136402 0.0509436 0)
(-0.0137401 0.0494512 0)
(-0.0137297 0.0473396 0)
(-0.013826 0.0458081 0)
(-0.0138153 0.0437135 0)
(-0.013908 0.0421429 0)
(-0.0138968 0.0401054 0)
(-0.0139859 0.0384612 0)
(-0.0139747 0.0364374 0)
(-0.01406 0.0347949 0)
(-0.0140488 0.0327712 0)
(-0.014131 0.0311348 0)
(-0.0141189 0.0291371 0)
(-0.0142 0.0274342 0)
(-0.0141859 0.0255112 0)
(-0.0142675 0.0237078 0)
(-0.0142512 0.0218651 0)
(-0.0143324 0.0200286 0)
(-0.0143141 0.0182112 0)
(-0.0143929 0.016375 0)
(-0.0143743 0.0145749 0)
(-0.0144514 0.0126332 0)
(-0.0144317 0.0108942 0)
(-0.0145073 0.00889491 0)
(-0.0144858 0.00722356 0)
(-0.0145599 0.00520639 0)
(-0.0145374 0.003576 0)
(-0.0146115 0.00149993 0)
(-0.0145843 -0.00010722 0)
(-0.0146611 -0.00223703 0)
(-0.0146323 -0.00386321 0)
(-0.0147093 -0.00597725 0)
(-0.0146811 -0.00756254 0)
(-0.0147551 -0.00970645 0)
(-0.0147244 -0.0111816 0)
(-0.0147967 -0.0133941 0)
(-0.0147631 -0.0148066 0)
(-0.0148354 -0.0170597 0)
(-0.0147987 -0.0184176 0)
(-0.0148708 -0.0206963 0)
(-0.0148316 -0.0220314 0)
(-0.0149038 -0.0243363 0)
(-0.0148621 -0.0256148 0)
(-0.0149317 -0.0279459 0)
(-0.0148853 -0.029108 0)
(-0.0149537 -0.0314601 0)
(-0.0149049 -0.0325897 0)
(-0.0149723 -0.0349374 0)
(-0.0149204 -0.0360115 0)
(-0.0149862 -0.0383958 0)
(-0.0149274 -0.0393739 0)
(-0.0149945 -0.041825 0)
(-0.0149291 -0.0427592 0)
(-0.0149971 -0.0452317 0)
(-0.0149251 -0.0460902 0)
(-0.0149915 -0.0485665 0)
(-0.0149159 -0.0493391 0)
(-0.0149791 -0.051804 0)
(-0.0149009 -0.052508 0)
(-0.014961 -0.0549961 0)
(-0.0148761 -0.0555308 0)
(-0.0149341 -0.0580847 0)
(-0.0148417 -0.0584862 0)
(-0.0148985 -0.0610374 0)
(-0.0148 -0.0613942 0)
(-0.0148539 -0.0639043 0)
(-0.0149551 -0.0635175 0)
(-0.0149069 -0.066355 0)
(-0.0147998 -0.0666792 0)
(-0.0148491 -0.0691267 0)
(-0.0150699 -0.0480036 0)
(-0.0149973 -0.0304057 0)
(-0.0148662 -0.0156678 0)
(-0.0146796 -0.000538248 0)
(-0.014468 0.0145293 0)
(-0.014209 0.0294003 0)
(-0.0141672 0.0236196 0)
(-0.0138049 0.0415412 0)
(-0.013354 0.0585101 0)
(-0.012697 0.0752619 0)
(-0.0118396 0.0882344 0)
(-0.0139186 0.0441051 0)
(-0.014604 -0.00580814 0)
(-0.0148608 -0.0402377 0)
(-0.0147925 -0.0235324 0)
(-0.0106052 0.0971176 0)
(-0.0135606 0.0589885 0)
(-0.0147872 -0.0556715 0)
(-0.00904534 0.101532 0)
(-0.0131144 0.072732 0)
(-0.0125428 0.0849585 0)
(-0.00217371 0.083928 0)
(-0.0019083 0.0827878 0)
(-0.0144016 0.00957664 0)
(-0.0116875 0.0951566 0)
(-0.0102521 0.102826 0)
(-0.00187301 0.0848074 0)
(-0.00159015 0.083377 0)
(-0.00155943 0.0856199 0)
(-0.00128511 0.0843949 0)
(-0.00124663 0.0864101 0)
(-0.000971213 0.0850857 0)
(-0.00102489 0.0830394 0)
(-0.000716305 0.0835106 0)
(-0.000794432 0.0814194 0)
(-0.000479218 0.081855 0)
(-0.00058568 0.0795166 0)
(-0.000250095 0.0800342 0)
(-0.00058754 0.0856703 0)
(-0.0018315 0.0867012 0)
(-0.000374552 0.0775485 0)
(-4.3744e-05 0.0780334 0)
(-0.000168593 0.0754997 0)
(0.000148462 0.0759046 0)
(0.000298804 0.0784033 0)
(0.000474731 0.0761938 0)
(0.000646201 0.0786461 0)
(0.000335396 0.0735754 0)
(-0.000954356 0.0297115 0)
(-0.00221385 0.11741 0)
(-0.00208515 0.116931 0)
(-0.00320928 0.117029 0)
(-0.00341355 0.117515 0)
(-0.00430564 0.117081 0)
(-0.0046054 0.117573 0)
(-0.00535826 0.117072 0)
(-0.0057648 0.117554 0)
(-0.00634678 0.117014 0)
(-0.00684063 0.117457 0)
(-0.0072633 0.116897 0)
(-0.0077951 0.117279 0)
(-0.00808659 0.116663 0)
(-0.00862452 0.116995 0)
(-0.00880564 0.116319 0)
(-0.00933323 0.116596 0)
(-0.00503809 0.116551 0)
(-0.00941255 0.115848 0)
(-0.00991961 0.116067 0)
(-0.00832421 0.116002 0)
(-0.0040858 0.0778513 0)
(-0.00991271 0.115238 0)
(-0.0103906 0.11537 0)
(-0.00812674 0.0727204 0)
(-0.00208818 0.0559201 0)
(-0.0103236 0.114486 0)
(-0.010758 0.114508 0)
(-0.00626141 0.117958 0)
(-0.00830731 -0.0238459 0)
(-0.00864901 -0.0247018 0)
(-0.0084732 -0.0216992 0)
(-0.00812672 -0.0209921 0)
(-0.00828876 -0.0188266 0)
(-0.00863067 -0.0193781 0)
(-0.0084395 -0.0165014 0)
(-0.00877387 -0.0169167 0)
(-0.00857606 -0.0139961 0)
(-0.00823357 -0.0137116 0)
(-0.00836458 -0.0111902 0)
(-0.0086986 -0.0113019 0)
(-0.00848438 -0.00849541 0)
(-0.00813877 -0.00853573 0)
(-0.00825471 -0.00586048 0)
(-0.00859257 -0.00564951 0)
(-0.00835707 -0.00305132 0)
(-0.00868689 -0.00269467 0)
(-0.00844522 -0.000138119 0)
(-0.00811044 -0.000613093 0)
(-0.00819184 0.00227373 0)
(-0.00852155 0.00284267 0)
(-0.0082617 0.00523495 0)
(-0.00792733 0.00449796 0)
(-0.0079922 0.00741654 0)
(-0.00832536 0.00826647 0)
(-0.00804748 0.0104386 0)
(-0.00771631 0.00936694 0)
(-0.00776342 0.0122946 0)
(-0.00808055 0.0136004 0)
(-0.00779522 0.015287 0)
(-0.00747838 0.0139347 0)
(-0.00750888 0.0167977 0)
(-0.00781074 0.018298 0)
(-0.00752344 0.019673 0)
(-0.00781198 0.0213015 0)
(-0.00752666 0.0225518 0)
(-0.00723261 0.020859 0)
(-0.00723672 0.0235926 0)
(-0.00752904 0.0255265 0)
(-0.00723033 0.0263762 0)
(-0.00694289 0.0244277 0)
(-0.00692783 0.0269731 0)
(-0.00718115 0.0289968 0)
(-0.00689331 0.029474 0)
(-0.00663038 0.027447 0)
(-0.00660148 0.0298248 0)
(-0.00684856 0.0319367 0)
(-0.00655877 0.0321398 0)
(-0.0067922 0.0343271 0)
(-0.00650188 0.0343857 0)
(-0.0062651 0.0321561 0)
(-0.00620948 0.0342737 0)
(-0.0064297 0.0365653 0)
(-0.00613919 0.0363087 0)
(-0.00634284 0.0386568 0)
(-0.00605537 0.0382444 0)
(-0.00624005 0.0405884 0)
(-0.00595434 0.0400252 0)
(-0.0061114 0.0422785 0)
(-0.00583142 0.0416464 0)
(-0.00566787 0.039283 0)
(-0.00555504 0.0408108 0)
(-0.00570296 0.0432119 0)
(-0.00542886 0.0422035 0)
(-0.00556161 0.0445948 0)
(-0.00529043 0.0434549 0)
(-0.00541173 0.0458682 0)
(-0.005144 0.0445818 0)
(-0.0052536 0.0470589 0)
(-0.00498407 0.045542 0)
(-0.00487352 0.0430929 0)
(-0.00471548 0.0438795 0)
(-0.00460219 0.041457 0)
(-0.00444545 0.042089 0)
(-0.00432894 0.0396815 0)
(-0.00417518 0.0401796 0)
(-0.0040541 0.0377593 0)
(-0.00390519 0.0381564 0)
(-0.00596506 0.0320174 0)
(-0.0050798 0.0480208 0)
(-0.00377721 0.0357402 0)
(-0.00363383 0.0360181 0)
(-0.00392093 0.0351772 0)
(-0.00350295 0.0336567 0)
(-0.00336473 0.0337824 0)
(-0.00348006 0.036087 0)
(-0.00323225 0.0314787 0)
(-0.00321511 0.0336999 0)
(-0.00331739 0.0359692 0)
(-0.00651493 0.0409489 0)
(-0.00554311 0.0484494 0)
(-0.00305346 0.0333806 0)
(-0.00313844 0.0355542 0)
(-0.0124878 -0.0386373 0)
(-0.0126207 -0.0177954 0)
(-0.0120392 -0.0216321 0)
(-0.0118393 -0.0398704 0)
(-0.0158403 -0.0767975 0)
(-0.0158871 -0.0762067 0)
(-0.0158423 -0.074436 0)
(-0.015882 -0.0737476 0)
(-0.0158383 -0.07208 0)
(-0.0158726 -0.0712927 0)
(-0.0158285 -0.0696334 0)
(-0.0158591 -0.0687972 0)
(-0.0158158 -0.0671156 0)
(-0.0158422 -0.0662573 0)
(-0.0157996 -0.0645611 0)
(-0.015822 -0.0636643 0)
(-0.0157806 -0.0619908 0)
(-0.0157993 -0.0610628 0)
(-0.0157593 -0.0594231 0)
(-0.0157749 -0.0585007 0)
(-0.0157358 -0.0568611 0)
(-0.0157488 -0.0559272 0)
(-0.0157105 -0.0542928 0)
(-0.0157212 -0.0533409 0)
(-0.0156836 -0.0517248 0)
(-0.0156925 -0.0507753 0)
(-0.0156554 -0.0491595 0)
(-0.0156621 -0.0482106 0)
(-0.0156258 -0.0465944 0)
(-0.0156306 -0.0456285 0)
(-0.0155948 -0.0439948 0)
(-0.0155977 -0.042982 0)
(-0.0155627 -0.0413694 0)
(-0.0155636 -0.0403122 0)
(-0.015531 -0.0388098 0)
(-0.0155301 -0.037753 0)
(-0.0154983 -0.0362787 0)
(-0.0154968 -0.035236 0)
(-0.0154649 -0.0337333 0)
(-0.0154628 -0.0327005 0)
(-0.0154316 -0.0312179 0)
(-0.0154279 -0.0301313 0)
(-0.0153969 -0.0286676 0)
(-0.0153919 -0.0275295 0)
(-0.0153609 -0.0260436 0)
(-0.0153558 -0.0249419 0)
(-0.0153239 -0.0233978 0)
(-0.0153195 -0.0223567 0)
(-0.0152875 -0.0207581 0)
(-0.0152828 -0.0197517 0)
(-0.015253 -0.0182211 0)
(-0.0152461 -0.0171589 0)
(-0.0152181 -0.0157341 0)
(-0.0152096 -0.0146042 0)
(-0.0151817 -0.0131997 0)
(-0.0151725 -0.0120317 0)
(-0.015144 -0.0105903 0)
(-0.0151351 -0.00944664 0)
(-0.0151064 -0.00798841 0)
(-0.0150975 -0.00686305 0)
(-0.0150687 -0.00540205 0)
(-0.0150596 -0.00427271 0)
(-0.0150309 -0.00281145 0)
(-0.0150222 -0.00171739 0)
(-0.0149935 -0.000260839 0)
(-0.0149852 0.000789794 0)
(-0.0149564 0.0022521 0)
(-0.0149478 0.00332414 0)
(-0.0149193 0.00476443 0)
(-0.0149094 0.00590435 0)
(-0.0148818 0.00729465 0)
(-0.0148716 0.00844186 0)
(-0.0148444 0.00978986 0)
(-0.0148341 0.0109513 0)
(-0.0148065 0.0123128 0)
(-0.0147961 0.0134904 0)
(-0.0147677 0.0148758 0)
(-0.0147584 0.0160034 0)
(-0.0147299 0.0173949 0)
(-0.0147206 0.0185178 0)
(-0.0146929 0.0198846 0)
(-0.0146825 0.0210394 0)
(-0.0146557 0.0223604 0)
(-0.0146446 0.0235521 0)
(-0.0146175 0.0248848 0)
(-0.0146062 0.0260922 0)
(-0.0145782 0.0274659 0)
(-0.0145673 0.0286436 0)
(-0.014539 0.0300151 0)
(-0.0145288 0.0311651 0)
(-0.0145 0.0325499 0)
(-0.0144903 0.0336837 0)
(-0.0144605 0.0351079 0)
(-0.0144511 0.0362292 0)
(-0.0144224 0.0375905 0)
(-0.0144127 0.0387219 0)
(-0.0143853 0.0399839 0)
(-0.015884 -0.0679658 0)
(-0.0143755 0.0411346 0)
(-0.0143471 0.0424167 0)
(-0.0143376 0.0435832 0)
(-0.0143077 0.0449092 0)
(-0.0142987 0.0460836 0)
(-0.0142682 0.0474058 0)
(-0.0157578 -0.0549442 0)
(-0.0142593 0.0485949 0)
(-0.014228 0.0499331 0)
(-0.0142197 0.0510982 0)
(-0.0141876 0.052457 0)
(-0.0141798 0.0536196 0)
(-0.0141473 0.0549582 0)
(-0.0155982 -0.0418454 0)
(-0.0141393 0.0561461 0)
(-0.0141071 0.05744 0)
(-0.0140981 0.0586936 0)
(-0.0140662 0.0599244 0)
(-0.0140575 0.061196 0)
(-0.0140253 0.0623676 0)
(-0.0154599 -0.031725 0)
(-0.0140177 0.0636312 0)
(-0.0139843 0.0647955 0)
(-0.0139781 0.066048 0)
(-0.0139426 0.06722 0)
(-0.015311 -0.0212131 0)
(-0.0139378 0.0684544 0)
(-0.0138998 0.0696421 0)
(-0.0138968 0.0708507 0)
(-0.0138565 0.07207 0)
(-0.0138549 0.073262 0)
(-0.0138133 0.0744959 0)
(-0.0151263 -0.00837499 0)
(-0.0138111 0.0757445 0)
(-0.0137684 0.0769293 0)
(-0.0137661 0.0782267 0)
(-0.0137225 0.0793209 0)
(-0.0137224 0.0805794 0)
(-0.0136761 0.0816648 0)
(-0.01559 -0.0449851 0)
(-0.015154 -0.0118481 0)
(-0.0157708 -0.0655192 0)
(-0.0144268 0.0367343 0)
(-0.0146657 0.0211927 0)
(-0.0149233 0.00392556 0)
(-0.0149365 0.0045473 0)
(-0.0153658 -0.0272908 0)
(-0.0136779 0.08292 0)
(-0.0136279 0.0840069 0)
(-0.0141525 0.0538369 0)
(-0.0136304 0.0853075 0)
(-0.0135771 0.0863407 0)
(-0.0135798 0.0876969 0)
(-0.0135227 0.0886774 0)
(-0.0139028 0.06831 0)
(-0.0135758 0.0850072 0)
(-0.0147854 0.0146081 0)
(-0.0135272 0.0900683 0)
(-0.0134641 0.091014 0)
(-0.0156949 -0.055203 0)
(-0.0157949 -0.0747862 0)
(-0.0146327 0.0247142 0)
(-0.0134706 0.0924549 0)
(-0.0134 0.0933541 0)
(-0.0134067 0.0948202 0)
(-0.0133292 0.0956906 0)
(-0.0145177 0.0323217 0)
(-0.0133387 0.0971202 0)
(-0.0132513 0.0979981 0)
(-0.0144031 0.0398123 0)
(-0.0133172 0.0941765 0)
(-0.0132662 0.0994569 0)
(-0.0131648 0.100247 0)
(-0.0142907 0.0471836 0)
(-0.0131817 0.101787 0)
(-0.0130637 0.102456 0)
(-0.0141703 0.0548509 0)
(-0.0130825 0.104005 0)
(-0.0140094 0.0648787 0)
(-0.0138919 0.0720378 0)
(-0.00287941 0.0327997 0)
(-0.00279585 0.0307689 0)
(-0.00720782 0.0723461 0)
(-0.0154634 -0.0347709 0)
(-0.00294275 0.0347806 0)
(-0.00320093 0.0376976 0)
(-0.0152521 -0.0188302 0)
(-0.0137628 0.0794876 0)
(-0.0150387 -0.00391663 0)
(-0.0147773 0.0136322 0)
(-0.0145488 0.0288468 0)
(-0.0143194 0.0435312 0)
(-0.0137652 0.0757808 0)
(-0.0140354 0.0608694 0)
(-0.0106654 0.113575 0)
(-0.0102509 0.113587 0)
(-0.0136825 -0.0575069 0)
(-0.0136273 -0.0545613 0)
(-0.0137696 -0.0544973 0)
(-0.0137089 -0.0514928 0)
(-0.0138456 -0.05136 0)
(-0.0137813 -0.0483782 0)
(-0.0139118 -0.0480962 0)
(-0.0138363 -0.0451635 0)
(-0.0139643 -0.044567 0)
(-0.0138747 -0.0416297 0)
(-0.0140031 -0.0409081 0)
(-0.0139107 -0.0379649 0)
(-0.0140333 -0.0372302 0)
(-0.0139431 -0.0342985 0)
(-0.0140547 -0.0334815 0)
(-0.0139657 -0.0306659 0)
(-0.0140658 -0.029631 0)
(-0.013971 -0.0269089 0)
(-0.0140666 -0.0256646 0)
(-0.0139623 -0.0229423 0)
(-0.0140539 -0.021585 0)
(-0.0139497 -0.0189468 0)
(-0.0140341 -0.0174195 0)
(-0.0139296 -0.0149244 0)
(-0.0140123 -0.0133039 0)
(-0.0139019 -0.0108554 0)
(-0.0139826 -0.00921948 0)
(-0.0138666 -0.00669735 0)
(-0.0137846 -0.00840376 0)
(-0.0137465 -0.0042432 0)
(-0.0138237 -0.00245158 0)
(-0.0137028 -3.24859e-05 0)
(-0.0137732 0.00184176 0)
(-0.0136496 0.00418396 0)
(-0.013715 0.00612433 0)
(-0.0135834 0.00840714 0)
(-0.0136488 0.0104297 0)
(-0.0135124 0.0126984 0)
(-0.0135753 0.0147591 0)
(-0.0134401 0.0169278 0)
(-0.0134939 0.0190758 0)
(-0.0133534 0.0210857 0)
(-0.0134036 0.0234073 0)
(-0.0132583 0.0253379 0)
(-0.0133064 0.0277065 0)
(-0.0131642 0.0295314 0)
(-0.0132031 0.0319199 0)
(-0.0130566 0.0335458 0)
(-0.0130909 0.0360692 0)
(-0.0129346 0.0375995 0)
(-0.0129696 0.0401702 0)
(-0.0128124 0.0416213 0)
(-0.0128402 0.0442136 0)
(-0.0126818 0.0455153 0)
(-0.0127026 0.0481757 0)
(-0.0125432 0.049335 0)
(-0.0125555 0.052038 0)
(-0.0123924 0.0530166 0)
(-0.0123985 0.0557583 0)
(-0.0122262 0.0565584 0)
(-0.0122324 0.0593163 0)
(-0.0120539 0.0600268 0)
(-0.0120465 0.0573572 0)
(-0.0118725 0.060641 0)
(-0.0118717 0.063381 0)
(-0.0116863 0.0638819 0)
(-0.011676 0.0666538 0)
(-0.0114881 0.0669746 0)
(-0.0114664 0.0697937 0)
(-0.0112791 0.0699023 0)
(-0.0112465 0.0727274 0)
(-0.0110602 0.07265 0)
(-0.0110183 0.0754267 0)
(-0.0108336 0.0751805 0)
(-0.0107815 0.077899 0)
(-0.0105972 0.0775111 0)
(-0.0128904 0.0347459 0)
(-0.0105324 0.0802029 0)
(-0.010347 0.0796996 0)
(-0.0133184 0.0189074 0)