/*--------------------------------*- C++ -*----------------------------------*\
| =========                 |                                                 |
| \\      /  F ield         | OpenFOAM: The Open Source CFD Toolbox           |
|  \\    /   O peration     | Version:  v2012                                 |
|   \\  /    A nd           | Website:  www.openfoam.com                      |
|    \\/     M anipulation  |                                                 |
\*---------------------------------------------------------------------------*/
FoamFile
{
    version     2.0;
    format      ascii;
    class       surfaceVectorField;
    location    "950";
    object      Uf_0;
}
// * * * * * * * * * * * * * * * * * * * * * * * * * * * * * * * * * * * * * //

dimensions      [0 1 -1 0 0 0 0];


internalField   nonuniform List<vector> 
20580
(
(1.10977 -0.0213062 -7.26754e-21)
(1.11014 -0.020301 -2.23763e-21)
(1.10888 -0.0208493 4.02428e-21)
(1.0553 -0.0413675 2.52663e-21)
(1.05526 -0.0422658 1.73589e-21)
(1.05654 -0.0419175 -9.9227e-22)
(1.05529 -0.0401814 -3.32603e-21)
(1.05398 -0.0406117 4.47267e-22)
(-0.164747 0.000271329 -1.12342e-20)
(-0.138863 -0.00333442 -1.99845e-21)
(-0.163354 -0.000355384 8.08505e-20)
(1.00168 -0.000448103 -1.39271e-21)
(1.0015 -0.000410321 -2.68838e-21)
(1.00157 -0.000245844 8.84123e-22)
(1.05937 -0.0535557 3.10765e-21)
(1.0587 -0.0549785 1.72486e-21)
(1.05752 -0.0535702 1.82807e-21)
(1.06185 -0.0158665 -5.46165e-21)
(1.06255 -0.015667 2.39068e-21)
(1.0133 -0.00109264 2.69421e-21)
(1.01291 -0.00108619 1.10041e-21)
(1.0122 -0.000674474 3.70908e-21)
(0.251287 0.014686 6.62149e-21)
(0.255067 0.014489 -8.01508e-22)
(0.234054 0.0129795 2.18402e-23)
(0.989075 -0.000334793 -1.52311e-20)
(0.989618 0.000216612 -4.93771e-21)
(0.989935 -0.00053341 9.29423e-21)
(1.105 -0.109189 5.14617e-21)
(1.10138 -0.108702 -4.36289e-20)
(1.10313 -0.112436 -1.2816e-20)
(1.00003 -0.00571565 -3.44304e-21)
(1.00012 -0.00602213 -4.1568e-22)
(0.999964 -0.00599871 1.16354e-21)
(0.976541 -0.0082252 -3.96669e-21)
(0.975929 -0.00906708 -3.14482e-21)
(0.977195 -0.0090584 -1.26896e-20)
(0.0949987 0.0038954 -1.25119e-21)
(0.0843848 0.00239533 -9.31051e-21)
(0.0997775 0.00525003 -2.78998e-21)
(1.0842 -0.0315313 -7.18321e-21)
(1.08516 -0.0319352 -1.84042e-20)
(1.08406 -0.0324757 3.69609e-21)
(1.09685 -0.0114254 -6.3408e-21)
(1.09673 -0.0112185 1.33846e-20)
(1.09683 -0.0112724 -4.97713e-21)
(-0.228021 0.0102654 2.42223e-20)
(-0.251574 0.0104624 4.76522e-20)
(-0.237705 0.0132735 2.65503e-20)
(1.02848 -0.0259077 -3.13532e-23)
(1.02928 -0.0262335 0)
(1.02867 -0.0268207 0)
(1.1407 -0.0321988 1.34078e-20)
(1.14197 -0.0335857 1.77353e-20)
(1.14252 -0.0315731 3.18062e-20)
(1.1106 -0.0219013 -1.09497e-20)
(1.10932 -0.0221463 -1.5793e-20)
(1.09003 -0.0376048 -4.73323e-21)
(1.0891 -0.038407 0)
(1.08865 -0.0370501 4.16893e-21)
(1.01473 -0.0861466 -2.11065e-21)
(1.01204 -0.08588 -1.25972e-21)
(1.0139 -0.0833761 2.91021e-22)
(0.82262 -0.370822 6.15806e-20)
(0.691523 -0.315105 3.54186e-21)
(0.576058 -0.253941 3.65748e-21)
(1.00004 -0.000146217 2.47118e-22)
(1.00007 -0.000195123 1.46323e-21)
(1.00004 -0.000123514 2.6862e-22)
(1.20007 -0.0698166 8.34483e-21)
(1.19993 -0.0688645 -1.82381e-20)
(1.13464 -0.0549383 2.77465e-20)
(1.09082 -0.01346 -8.46709e-21)
(1.09121 -0.0131913 1.90084e-21)
(1.09134 -0.0136322 7.40038e-23)
(1.10493 -0.0132477 -5.83427e-21)
(1.10345 -0.0131375 3.3532e-21)
(1.10367 -0.0134094 3.43702e-21)
(1.08914 -0.00854108 1.31165e-20)
(1.0935 -0.00934094 6.82731e-21)
(1.03453 -0.0031568 -1.07369e-21)
(0.348744 0.0104078 -4.53531e-21)
(0.330893 0.00984248 0)
(0.324947 0.00951683 2.71838e-21)
(1.01808 -0.0150713 -1.99678e-21)
(1.01759 -0.0152685 -8.42291e-22)
(1.01754 -0.0146014 -1.21443e-21)
(-0.0226412 0.00341844 -5.41696e-20)
(-0.0547142 0.00369793 3.62578e-20)
(-0.0030863 0.00306192 6.44994e-20)
(1.06197 -0.0164382 9.4907e-21)
(1.0611 -0.0159923 2.99636e-21)
(1.10681 -0.0193529 0)
(1.1061 -0.0188808 0)
(1.106 -0.0199383 0)
(0.312233 0.027406 8.81421e-21)
(0.305514 0.027755 -4.29282e-21)
(0.348193 0.0287616 1.9865e-20)
(1.08199 -0.0956614 -4.17988e-21)
(1.08323 -0.0933813 2.76325e-21)
(1.08428 -0.0966243 -1.8975e-20)
(0.34718 0.00964217 -4.91682e-21)
(0.370226 0.0105503 -4.40044e-21)
(0.35283 0.00909094 0)
(1.00001 -9.48922e-05 -5.60386e-21)
(1.00004 -0.000174757 -5.06471e-21)
(1.24225 -0.172956 2.76395e-20)
(1.23117 -0.171055 3.1117e-20)
(1.22445 -0.162521 -1.58742e-20)
(0.0552541 0.0244103 2.75753e-21)
(0.0708863 0.024647 2.72035e-21)
(0.102212 0.0244673 2.17718e-20)
(0.996686 -0.0328018 -1.92836e-21)
(0.997624 -0.0321804 2.37796e-21)
(0.997656 -0.0334279 -1.89151e-21)
(0.190378 0.0261027 8.12782e-21)
(0.22645 0.0281153 -1.41722e-22)
(0.19773 0.0265748 2.49687e-20)
(0.366184 0.0116021 -4.58831e-21)
(0.372556 0.0113592 2.74304e-22)
(-0.234286 0.010657 2.59684e-20)
(-0.236071 0.00910438 2.80992e-20)
(1.03873 -0.406379 0)
(1.03461 -0.415521 0)
(1.02541 -0.416617 0)
(0.386335 0.014368 -1.9137e-21)
(0.379606 0.0144922 0)
(0.359066 0.0126089 -5.42259e-21)
(1.00911 -0.0221155 2.91839e-21)
(1.00846 -0.021922 -2.01943e-21)
(1.00886 -0.0213112 4.65868e-21)
(1.02456 -0.00124076 0)
(1.02455 -0.000892007 -3.75667e-22)
(1.09752 -0.013549 -1.02585e-20)
(1.09761 -0.0133307 -8.5537e-21)
(1.09733 -0.0134138 -5.2337e-21)
(1.02644 -0.0602459 -1.47764e-22)
(1.02537 -0.0582013 -5.23533e-22)
(1.02758 -0.0587816 -2.01374e-22)
(0.977111 -0.00727669 -4.41274e-21)
(0.97569 -0.00730381 -1.22512e-22)
(-0.129231 0.0118729 -1.44563e-21)
(-0.127335 0.0108794 -1.14231e-21)
(-0.157842 0.0103801 8.88262e-22)
(0.97004 0.000319772 -2.33601e-21)
(0.971271 -7.73379e-05 -4.58781e-21)
(0.970156 -0.00102092 -1.62844e-20)
(1.09695 -0.0116512 7.90537e-21)
(1.09662 -0.0115478 -1.33943e-20)
(1.07549 -0.0176344 3.72022e-21)
(1.07634 -0.0177307 -3.2408e-21)
(1.07602 -0.0170362 9.12476e-21)
(0.125866 -2.17042e-06 8.4597e-22)
(0.141681 0.00186425 2.68375e-23)
(0.122441 4.83657e-05 8.2657e-22)
(0.995957 -0.0335419 5.66097e-22)
(0.995847 -0.0322144 6.38891e-21)
(1.10738 -0.0185133 0)
(1.1076 -0.0197116 0)
(0.180975 0.0267499 5.07449e-21)
(0.15927 0.0228376 -1.0107e-20)
(1.09026 -0.0126034 -6.14931e-21)
(1.06776 -0.0100695 0)
(1.06507 -0.0103223 7.41234e-21)
(0.00741378 0.00757046 1.18279e-20)
(0.0156293 0.00763147 -1.32286e-20)
(0.0264856 0.00925422 -2.48363e-20)
(0.999962 -0.00541128 -7.53086e-22)
(1.00009 -0.00543604 -3.20389e-21)
(1.10145 -0.0132689 -2.92687e-21)
(1.10194 -0.0130361 -3.94447e-21)
(0.995103 0.00297938 4.72842e-21)
(0.995109 0.00252025 -1.24609e-20)
(0.994608 0.00281217 -4.345e-21)
(1.02528 -0.0611373 -5.79305e-23)
(1.02723 -0.0615152 -1.27679e-22)
(0.831424 -0.391639 -2.02928e-20)
(0.853447 -0.387605 6.14268e-21)
(0.839102 -0.372043 -9.11215e-21)
(0.807284 -0.395371 -4.60082e-21)
(0.824544 -0.418192 1.52215e-20)
(-0.00154538 0.00539181 -4.88303e-21)
(-0.0135896 0.00433308 1.79891e-20)
(0.691733 -0.0738469 8.56067e-20)
(0.68472 -0.0893266 5.90721e-20)
(1.00986 -0.0384233 5.259e-21)
(1.00877 -0.0382361 3.77402e-21)
(1.00956 -0.0373207 1.25164e-22)
(-0.0995175 0.000302784 8.50116e-20)
(-0.132644 0.0042754 3.40894e-20)
(-0.118768 0.00372579 7.31294e-20)
(-0.0862819 0.00795232 0)
(-0.117866 0.0103058 0)
(-0.0878571 0.00662343 -2.81854e-20)
(1.09491 -0.0375336 -3.19404e-23)
(1.09525 -0.0386129 -8.79543e-21)
(1.09627 -0.0377394 -1.49495e-21)
(0.988573 -0.018771 -7.39877e-21)
(0.987883 -0.0182408 -3.3176e-21)
(0.98777 -0.0193364 -1.07514e-21)
(0.0203125 0.00745019 -3.07508e-22)
(-0.00110538 0.00426019 2.79479e-20)
(1.0785 -0.020734 -2.97657e-21)
(1.0778 -0.0211434 1.20474e-22)
(1.07863 -0.0214168 1.10131e-21)
(1.00204 -0.0684993 -1.56935e-21)
(1.00023 -0.0669546 -3.27619e-21)
(1.00236 -0.0660527 -6.96767e-21)
(-0.213478 0.0099973 2.84393e-20)
(-0.199052 0.0106555 -1.97749e-20)
(1.0212 -0.00969903 -1.78994e-22)
(1.02078 -0.00997857 9.3564e-22)
(1.02158 -0.0102836 -5.68318e-22)
(1.19905 -0.0682549 -1.39593e-20)
(1.19418 -0.0694541 -8.36314e-22)
(1.00121 -0.0151253 4.47852e-21)
(1.00121 -0.0145208 -5.23123e-21)
(1.00079 -0.0146729 1.90949e-21)
(1.01101 -0.0388187 0)
(1.01013 -0.0397646 4.03929e-21)
(1.17331 -0.107771 0)
(1.17299 -0.103947 -8.17509e-21)
(1.17686 -0.107208 0)
(1.07935 -0.0950292 -7.94886e-21)
(1.08009 -0.0982134 -2.25496e-21)
(0.0799562 0.00329076 -9.96383e-21)
(0.0871598 0.00357904 1.10744e-20)
(0.0986892 0.00625109 2.23344e-20)
(0.023595 0.00685543 1.48676e-21)
(0.038652 0.00935566 -1.33482e-20)
(-0.0700848 0.00648322 2.4891e-20)
(-0.0602134 0.00576437 2.19887e-20)
(-0.0252647 0.00293513 2.83818e-20)
(1.01599 -0.0886898 3.85995e-21)
(1.01748 -0.0860009 1.73888e-22)
(0.195395 -0.00369581 0)
(0.174923 -0.00522733 -9.73638e-21)
(0.197547 -0.00336291 0)
(0.989083 -0.00434324 -1.32425e-21)
(0.989467 -0.0049363 0)
(0.989745 -0.00419835 0)
(-0.00261782 0.000583672 -2.67457e-20)
(-0.0480931 0.00575197 -6.76507e-20)
(0.968096 0.000767928 1.15453e-20)
(0.9698 0.00207921 1.71586e-21)
(1.06214 -0.0169777 3.36407e-21)
(1.06277 -0.0167908 8.18264e-21)
(-0.176048 0.00876991 5.26765e-22)
(-0.175801 0.00686452 9.4109e-21)
(-0.0817158 0.00668961 1.60823e-22)
(-0.107286 0.00764358 -3.33726e-20)
(0.0421655 0.0233554 -3.74318e-21)
(0.0279301 0.0211209 -1.64122e-20)
(0.0103158 0.018893 1.98503e-20)
(1.03105 -0.386504 0)
(1.02378 -0.370383 1.54547e-20)
(1.01274 -0.380864 -1.17201e-21)
(1.00421 -0.0216067 4.63432e-22)
(1.00355 -0.0214158 6.78854e-21)
(1.00392 -0.022336 -2.37146e-21)
(1.09749 -0.012565 0)
(1.09735 -0.0122912 0)
(1.09716 -0.0125216 7.20607e-21)
(-0.0765002 0.010702 1.21398e-20)
(-0.0748984 0.00973907 -3.42593e-21)
(-0.101115 0.00784337 8.33203e-21)
(1.13458 -0.180897 4.02657e-20)
(1.14036 -0.181445 1.83148e-20)
(1.13686 -0.186608 -8.95378e-21)
(1.09764 -0.0127674 6.36891e-21)
(1.09761 -0.0124919 0)
(0.796052 -0.0836863 9.47528e-21)
(0.795118 -0.0734769 7.283e-21)
(0.805311 -0.0787857 4.68666e-20)
(0.800555 -0.115414 -1.23403e-20)
(0.799607 -0.104502 -1.00263e-21)
(0.788652 -0.111276 -2.05669e-20)
(0.983406 -0.0186209 -5.94074e-21)
(0.984222 -0.0191335 -7.89894e-21)
(0.983214 -0.0199259 -3.26182e-21)
(1.0119 -0.0225169 -1.54368e-21)
(1.01224 -0.0233397 -9.32042e-22)
(1.01251 -0.0226311 -1.99188e-21)
(1.09493 -0.0466106 -4.89375e-21)
(1.09542 -0.0478509 -4.41723e-21)
(1.09651 -0.046327 3.61305e-21)
(1.01158 -0.0216278 1.98822e-21)
(1.01111 -0.0223486 1.7956e-21)
(-0.0848521 0.00752866 0)
(-0.050066 0.00435837 0)
(1.06136 -0.0171951 -5.43425e-21)
(1.06232 -0.0175858 -4.57628e-21)
(1.0277 -0.0256469 -8.38995e-24)
(1.02827 -0.0251085 -7.75172e-23)
(0.997623 -0.113839 4.12298e-22)
(0.99873 -0.117751 6.63259e-22)
(0.994505 -0.116144 6.20817e-21)
(1.00983 -0.022442 -1.80945e-21)
(1.00946 -0.0231248 -8.55534e-22)
(1.14136 -0.0641671 3.63252e-21)
(1.14099 -0.0622399 2.46142e-21)
(1.1431 -0.0635589 -1.64084e-20)
(1.10973 -0.0741974 -1.62823e-21)
(1.10777 -0.0730818 4.86776e-21)
(1.10773 -0.0753887 -1.44254e-20)
(1.10228 -0.0169568 -5.80079e-21)
(1.10176 -0.0167286 -4.64088e-21)
(1.1023 -0.0163498 -1.63546e-20)
(1.07466 -0.0175226 -1.70991e-21)
(1.07493 -0.018132 -9.62412e-22)
(1.01271 -0.00914251 1.66747e-21)
(1.0124 -0.00932173 2.47209e-21)
(1.01295 -0.00956998 -7.73269e-22)
(1.01378 -0.000998879 -1.74161e-21)
(1.01378 -0.00149939 -6.22171e-23)
(-0.18902 0.00366818 -4.51682e-20)
(-0.169039 -0.000259134 -3.40019e-20)
(-0.0710409 -0.0032557 2.83664e-20)
(-0.0545315 -0.0031678 -3.76827e-20)
(1.05047 -0.309138 0)
(1.04264 -0.317867 0)
(1.05494 -0.318766 6.67989e-21)
(1.02449 -0.0215503 -2.91161e-22)
(1.02361 -0.0211427 -8.51614e-22)
(1.02421 -0.0207697 -1.22986e-22)
(1.00468 -0.0367094 -4.7181e-21)
(1.00545 -0.0375449 5.49189e-21)
(1.00438 -0.0378293 -2.01769e-21)
(0.103926 0.0142515 0)
(0.119913 0.0164975 0)
(0.101701 0.0149904 -3.60186e-21)
(1.12859 -0.0257113 8.63242e-21)
(1.13 -0.0261981 -1.71467e-20)
(1.1298 -0.0243801 -1.05668e-20)
(0.59388 -0.144747 3.32211e-20)
(0.616705 -0.138609 -5.76179e-20)
(0.612092 -0.167296 -4.61925e-20)
(1.00492 -0.0219585 -1.05549e-20)
(1.00454 -0.0209577 -2.08414e-21)
(1.07756 -0.145934 9.7677e-22)
(1.07659 -0.141167 5.67189e-21)
(1.07363 -0.145044 6.00627e-21)
(0.223129 0.0258179 -4.00272e-21)
(0.194713 0.0242935 8.03341e-21)
(0.217711 0.0257339 5.98502e-21)
(1.09131 -0.0319459 0)
(1.09226 -0.031641 0)
(1.09165 -0.0327541 -9.74872e-21)
(1.00936 -0.084985 3.21658e-22)
(1.0099 -0.0879912 -3.64091e-23)
(1.06423 -0.0782673 -3.28013e-21)
(1.0657 -0.0762731 -9.84767e-21)
(1.06298 -0.0764602 -4.74269e-21)
(1.23445 -0.172827 3.09621e-20)
(1.23719 -0.168217 -3.01954e-20)
(0.325093 0.0270526 6.72898e-21)
(0.286066 0.0264448 1.52069e-20)
(1.10801 -0.110148 1.82674e-21)
(1.10637 -0.106969 1.411e-20)
(0.0417131 0.0232346 3.06027e-22)
(0.0148987 0.0233911 -3.43793e-20)
(0.00557336 0.0230159 -2.50576e-20)
(0.708575 -0.0731005 3.94762e-20)
(-0.0565028 0.00574704 4.26994e-20)
(-0.0892477 0.00801298 -3.87639e-20)
(0.842287 -0.0584795 0)
(0.833371 -0.0564091 0)
(0.838825 -0.0498488 0)
(1.09059 -0.0299379 4.82873e-21)
(1.0896 -0.0297442 2.62691e-20)
(1.09046 -0.0289628 5.15674e-22)
(1.17364 -0.112236 9.74887e-21)
(1.16938 -0.108532 -5.75706e-20)
(0.965104 -0.0321045 2.21451e-20)
(0.965597 -0.0301533 -3.46536e-22)
(0.96712 -0.031325 -1.18599e-20)
(0.988595 -0.00382915 -1.05181e-21)
(0.988303 -0.0046623 4.325e-22)
(0.725851 -0.245509 3.94669e-20)
(0.709422 -0.258547 2.29096e-20)
(0.731417 -0.262584 -2.57949e-20)
(1.16818 -0.0516122 -2.10058e-20)
(1.12333 -0.0470636 -2.52345e-21)
(1.11853 -0.0447679 2.19704e-20)
(0.991284 -0.0623718 -6.1241e-22)
(0.990498 -0.0640836 -7.7951e-21)
(0.988882 -0.062571 -1.8264e-21)
(1.02156 -0.00943528 -3.14033e-22)
(1.02084 -0.00922753 7.96899e-22)
(-0.0955294 0.00751507 -3.61601e-20)
(0.239562 0.00660626 0)
(0.241809 0.00815223 7.75059e-21)
(0.222141 0.00542017 0)
(1.07964 -0.149538 4.98619e-21)
(1.08177 -0.145552 1.51179e-21)
(1.09764 -0.0129473 8.98185e-21)
(1.09783 -0.0128833 -3.40853e-21)
(1.14169 -0.06659 -2.52962e-20)
(1.13931 -0.0650567 0)
(1.1116 -0.0752827 1.30847e-21)
(1.11159 -0.0729993 -1.02692e-20)
(1.13558 -0.031797 -1.44906e-20)
(1.13676 -0.0331289 7.34696e-21)
(1.13472 -0.0334746 9.94345e-21)
(0.967924 -0.00894465 0)
(0.968297 -0.0104536 0)
(0.966528 -0.010114 3.54615e-21)
(0.981502 0.000558963 4.26727e-21)
(0.981067 0.00135013 1.25321e-21)
(0.982103 0.00132582 1.22629e-20)
(1.00049 -0.00481603 2.56317e-21)
(1.00038 -0.00486356 -5.43598e-22)
(1.00038 -0.00452316 2.34633e-21)
(0.041877 0.0237117 9.67176e-21)
(0.0185446 0.0214704 -3.53507e-21)
(1.08851 -0.0309926 -1.18072e-20)
(1.08879 -0.0301897 3.09159e-21)
(1.08796 -0.0303928 -5.01143e-21)
(1.05811 -0.0224317 1.11999e-20)
(1.05884 -0.0223018 4.87077e-21)
(1.05875 -0.0230021 7.5886e-22)
(1.00009 -0.000354704 -5.8965e-22)
(1.00009 -0.000311939 -5.28829e-21)
(1.00013 -0.000425985 -5.87131e-21)
(0.338594 0.00854788 2.33713e-21)
(0.334286 0.00949804 0)
(0.359053 0.0100723 0)
(1.09469 -0.0450733 0)
(1.0933 -0.0465331 1.90878e-20)
(1.09741 -0.0138078 -2.82027e-21)
(1.09774 -0.0137164 -7.26519e-22)
(0.105306 0.00432148 9.84536e-21)
(0.0887731 0.00152215 9.01129e-21)
(0.315097 0.0176694 0)
(0.294164 0.0169135 6.79676e-21)
(0.31887 0.0164082 0)
(0.308066 0.0177897 -8.55182e-22)
(0.339207 0.0187247 0)
(-0.133657 0.0121151 0)
(-0.107636 0.0134138 4.02626e-20)
(1.0008 -0.11142 -5.19867e-21)
(0.996828 -0.109908 -7.87382e-21)
(0.693546 0.0177374 -1.18335e-20)
(0.707665 0.0171877 4.01731e-21)
(0.628789 0.0195207 -1.63366e-23)
(0.999897 -0.00513732 1.06841e-22)
(0.999844 -0.00484787 -1.61374e-21)
(0.999957 -0.0048687 5.28924e-21)
(1.01308 -0.00898003 0)
(1.01248 -0.00867795 -2.08909e-21)
(1.10383 -0.0505359 -4.53298e-21)
(1.10408 -0.0521817 7.66653e-21)
(1.10239 -0.0515136 -5.78223e-22)
(1.0009 -0.000310242 -1.16381e-21)
(1.00081 -0.000395962 -1.36129e-21)
(1.00075 -0.0002592 -2.71552e-21)
(0.0520893 0.0240533 -1.72865e-20)
(0.0774 0.0242441 1.19036e-20)
(1.1117 -0.00924916 -3.23722e-21)
(1.10544 -0.00954978 -3.14358e-22)
(1.11022 -0.00938845 -3.42851e-21)
(1.09852 -0.0139491 -2.79494e-21)
(1.09868 -0.0140302 -6.3293e-21)
(1.09854 -0.0137895 -2.34796e-21)
(1.01343 -0.00883829 0)
(1.01362 -0.00926425 -1.7529e-22)
(1.07818 -0.0194678 6.6824e-21)
(1.07835 -0.020156 2.49539e-23)
(1.0775 -0.0198274 4.53213e-21)
(1.09837 -0.0137738 0)
(1.09831 -0.0140231 9.11619e-21)
(1.12728 -0.0247242 1.90901e-20)
(1.12714 -0.0266189 1.7129e-20)
(1.05188 -0.394079 0)
(1.00349 -0.108806 -2.38604e-22)
(1.00252 -0.105177 1.08192e-21)
(1.00599 -0.106195 1.05587e-21)
(1.09088 -0.0307748 -8.95991e-21)
(1.08999 -0.0318414 0)
(-0.237176 0.0079819 6.83923e-20)
(-0.235112 0.00983741 -2.78144e-20)
(0.252951 0.00801107 -7.10717e-21)
(0.235066 0.00498342 -9.58063e-21)
(1.10544 -0.0186264 0)
(1.10607 -0.0180567 2.40853e-20)
(0.882994 -0.0385827 9.69061e-21)
(0.879131 -0.0343875 2.6281e-20)
(0.877391 -0.0405211 2.21098e-20)
(0.971646 -0.0123921 6.22609e-21)
(0.971382 -0.0110493 -3.54036e-23)
(0.972863 -0.0113598 2.31924e-22)
(1.01454 -0.0178509 -2.09428e-21)
(1.0144 -0.0184332 1.50925e-21)
(1.01517 -0.0183778 2.45493e-22)
(1.19899 -0.0566774 3.38742e-21)
(1.19534 -0.0540333 2.20843e-21)
(1.08892 -0.0317121 0)
(1.08781 -0.0317452 5.5841e-21)
(0.0756203 0.00127554 -7.51795e-21)
(0.065379 0.000427848 -1.31113e-20)
(1.05964 -0.0519014 -8.27834e-21)
(1.06094 -0.0532332 4.36321e-21)
(0.991978 -0.0603069 4.19683e-21)
(0.9937 -0.0619768 -6.93271e-22)
(1.09723 -0.0120833 -9.0211e-21)
(1.09709 -0.0118582 2.89657e-21)
(1.0969 -0.012032 3.78274e-22)
(1.1048 -0.0185446 -7.68646e-21)
(1.10483 -0.0193454 1.60287e-20)
(1.04092 -0.0236913 -1.68429e-21)
(1.04152 -0.0243408 8.10096e-22)
(1.04056 -0.0243458 -6.81856e-23)
(1.0313 -0.0352572 3.21114e-22)
(1.03017 -0.0348374 0)
(1.03106 -0.0342368 0)
(0.690173 -0.102947 3.31947e-20)
(0.709591 -0.107413 5.96788e-21)
(0.698454 -0.119411 -6.92678e-21)
(1.17431 -0.116031 9.67885e-21)
(1.17431 -0.12057 3.78131e-20)
(1.17003 -0.117074 3.16774e-20)
(0.0656524 0.0241418 3.22607e-20)
(0.0835175 0.0248627 -6.89192e-21)
(0.0957678 0.0252768 -1.54303e-20)
(0.161829 0.0268846 -1.86876e-20)
(0.152262 0.0265369 3.46204e-20)
(0.192166 0.0278385 8.04489e-21)
(1.08323 -0.0311382 -2.48797e-20)
(1.0842 -0.0305473 2.84157e-21)
(0.882044 -0.611136 2.17895e-21)
(0.882519 -0.663109 -1.25717e-20)
(0.929704 -0.660866 -2.39089e-20)
(0.039833 0.0236876 2.57659e-21)
(0.0519725 0.0239988 2.69127e-20)
(0.93199 -0.00218745 -4.13833e-20)
(0.934692 -0.0014564 2.27559e-20)
(0.932325 0.000901545 -2.35472e-20)
(1.0887 -0.0245099 2.62109e-21)
(1.08874 -0.0251787 1.73648e-20)
(1.08804 -0.0246697 1.87796e-20)
(0.240789 0.0151462 -3.75616e-22)
(0.257046 0.0164896 2.41901e-20)
(0.233142 0.0149641 4.96233e-21)
(1.05288 -0.0574443 1.35939e-21)
(1.0533 -0.0586812 0)
(1.05166 -0.0583026 0)
(1.09666 -0.0109718 -2.73028e-21)
(1.09657 -0.010762 -2.71632e-20)
(1.09664 -0.0108703 -1.55454e-20)
(1.00409 -0.0361259 -7.20897e-22)
(1.00492 -0.0360162 -5.94484e-21)
(1.17778 -0.115056 -2.73442e-20)
(1 -0.0011734 -2.27492e-22)
(1.00002 -0.00138948 -3.86336e-21)
(0.999995 -0.00140652 -1.22244e-21)
(1.08522 -0.0910608 -2.3946e-22)
(1.08701 -0.0895257 0)
(1.08732 -0.092835 0)
(1.00251 -0.0736165 2.85769e-23)
(1.00454 -0.0744147 2.13472e-21)
(1.00282 -0.0760144 1.97829e-21)
(0.977974 -0.00643184 -1.99881e-21)
(0.978508 -0.00743783 0)
(1.11585 -0.0181312 -8.63791e-21)
(1.116 -0.0172238 5.94139e-21)
(1.11687 -0.0177602 -3.47861e-21)
(1.0371 -0.0304944 8.05012e-22)
(1.03643 -0.0296193 3.22221e-22)
(1.03769 -0.0296886 2.4413e-21)
(0.164361 -0.460713 -9.48135e-20)
(0.118258 -0.502081 -3.1561e-20)
(1.01327 -0.00834351 0)
(1.01387 -0.0086922 1.32513e-21)
(1.11136 -0.0224351 4.03885e-21)
(1.11216 -0.0231007 9.83163e-21)
(1.11093 -0.0233535 1.06683e-20)
(0.0743971 0.00337119 -2.31333e-20)
(0.0587963 0.00147739 -1.77923e-20)
(0.0274917 0.0217042 1.27878e-20)
(0.0204444 0.0230555 4.55055e-24)
(0.0589539 0.0228856 1.39185e-20)
(0.887832 -0.047939 1.12719e-20)
(0.892912 -0.0474279 1.66291e-20)
(0.890548 -0.0524084 -1.68787e-20)
(1.08859 -0.0238535 -8.52257e-22)
(1.08928 -0.0243264 -9.08689e-21)
(1.00001 -0.000784976 6.54984e-23)
(0.999999 -0.000589929 -4.83314e-21)
(1 -0.000587424 4.06768e-21)
(0.736052 -0.232971 -8.16179e-21)
(0.717371 -0.226298 1.08183e-19)
(0.999006 -0.00986372 5.34924e-21)
(0.999175 -0.00938424 -4.31498e-21)
(0.999354 -0.00986816 0)
(1.08282 -0.089967 -8.5602e-21)
(0.094564 -0.0412201 0)
(-0.0116652 -0.0274449 0)
(0.0259667 -0.0314277 0)
(0.885193 -0.0437251 1.17409e-20)
(0.887755 -0.0380337 1.20777e-20)
(1.0522 -0.055786 -3.44476e-22)
(1.05406 -0.0561169 -1.91581e-21)
(0.996293 0.0042247 -1.19734e-20)
(0.995862 0.00416545 -7.76028e-21)
(0.135931 0.0259296 -2.09003e-20)
(0.167583 0.0258582 3.52404e-21)
(1.01877 -0.0154692 -8.84541e-22)
(1.01859 -0.0147589 1.5128e-22)
(0.970252 -0.420831 6.95251e-21)
(1.05424 -0.471997 3.95331e-20)
(0.146479 0.0258652 1.07711e-20)
(0.138594 0.0250784 -3.0555e-21)
(0.174864 0.0263748 -2.02537e-20)
(1.12855 -0.18007 7.34221e-22)
(1.13232 -0.17509 3.98119e-20)
(1.00008 -0.000395296 2.15068e-21)
(1.00005 -0.000283594 4.72999e-21)
(1.16718 -0.280722 1.76931e-20)
(1.18185 -0.277527 5.99419e-20)
(1.1864 -0.28951 7.87705e-20)
(0.0278317 0.00642776 -2.74827e-21)
(0.0336997 0.00622655 -2.78487e-21)
(0.0471355 0.00938778 7.04535e-22)
(0.41605 0.0154388 -1.29867e-20)
(0.392056 0.0139267 3.16859e-21)
(1.09643 -0.0110574 1.63726e-20)
(1.08051 -0.0445222 2.88103e-21)
(1.0802 -0.0459829 -2.35216e-20)
(1.07899 -0.0445963 -1.45891e-20)
(0.698823 -0.289827 -3.39282e-21)
(0.6928 -0.272011 -2.31787e-21)
(0.675994 -0.285507 -7.79133e-21)
(1.11483 -0.0185084 -8.88766e-21)
(1.11568 -0.0190574 2.6569e-21)
(1.07878 -0.0190885 1.01832e-20)
(1.07793 -0.0188135 2.814e-21)
(1.03374 -0.360662 -2.20704e-21)
(1.0193 -0.357385 1.41603e-20)
(1.01417 -0.121576 -1.24741e-21)
(1.01028 -0.120899 -1.17254e-21)
(1.01296 -0.118033 -6.04183e-22)
(0.163817 -0.00202677 0)
(0.148987 -0.00246038 1.06066e-20)
(0.148365 -0.0033376 0)
(1.12193 -0.0334233 -5.8756e-21)
(1.12098 -0.0320361 2.45599e-20)
(1.12038 -0.0339699 -5.53992e-21)
(1.0092 -0.00064047 -4.39222e-21)
(1.0098 -0.000921844 2.1873e-21)
(1.0093 -0.00131839 -2.96514e-21)
(1.06578 -0.0392893 4.81083e-21)
(1.06468 -0.038626 0)
(1.06453 -0.0397856 0)
(1.09735 -0.0120819 5.61242e-21)
(0.338729 0.0081156 -1.76445e-21)
(0.320007 0.0084353 -5.62144e-21)
(0.233906 -0.00482428 -2.54174e-21)
(0.24943 -0.00332861 7.88656e-21)
(0.239776 -0.00491237 2.25957e-20)
(1.01401 -0.0173705 2.18115e-21)
(1.01471 -0.0173887 1.49037e-21)
(0.574718 -0.156867 6.34723e-20)
(0.989848 -0.00546137 0)
(0.990219 -0.00595209 0)
(0.990486 -0.00528179 -4.35031e-21)
(1.10727 -0.0145582 6.45491e-21)
(1.108 -0.0148136 1.43795e-20)
(1.10732 -0.015339 1.22063e-22)
(1.13113 -0.0274226 -4.69445e-21)
(1.13229 -0.0284464 2.5046e-20)
(1.13022 -0.0286261 -1.69035e-20)
(1.06658 -0.0400127 4.07343e-21)
(1.06671 -0.0390159 -5.22512e-21)
(1.09456 -0.0439103 0)
(1.09587 -0.0439187 0)
(1.12306 -0.0343041 2.97732e-21)
(1.12333 -0.0323673 -4.28187e-20)
(0.993765 -0.018669 -1.25036e-20)
(0.994237 -0.0194972 -7.19754e-21)
(0.994485 -0.0184101 -3.08216e-21)
(0.797694 -0.0933378 1.53105e-20)
(0.786792 -0.0880513 -4.78265e-20)
(1.09711 -0.0146174 8.9942e-21)
(1.0972 -0.0142885 -5.78031e-21)
(1.09686 -0.0144516 -2.56938e-21)
(1.09849 -0.0107841 -2.31735e-20)
(1.09603 -0.0103548 6.3987e-21)
(1.12542 -0.0135957 -1.98355e-20)
(0.996302 -0.00394686 1.16124e-21)
(0.996671 -0.00385722 -4.50766e-21)
(0.996499 -0.00347802 -4.08257e-21)
(0.978706 -0.00569369 1.45575e-20)
(0.97735 -0.00557429 -4.221e-21)
(0.882379 -0.0491284 -1.33746e-20)
(0.304241 0.021722 1.38967e-21)
(0.31138 0.0211468 -9.1976e-22)
(0.336668 0.0230917 -1.0225e-20)
(-0.213516 0.00766573 1.99054e-20)
(-0.242755 0.0100199 -6.29824e-20)
(-0.215427 0.00705549 -7.18637e-20)
(1.09237 -0.0355756 -9.35262e-22)
(1.09152 -0.0359475 1.46462e-20)
(1.09253 -0.0365681 9.74089e-21)
(1.02527 -0.0218995 6.87955e-22)
(1.02469 -0.0223288 6.90194e-22)
(1.12648 -0.0240395 -5.21039e-21)
(1.12747 -0.0232991 -1.3429e-20)
(1.13444 -0.0305838 -3.09012e-20)
(1.13332 -0.0294339 1.44593e-20)
(1.13248 -0.0309125 -9.7052e-21)
(1.10299 -0.0185613 -6.97266e-21)
(1.10228 -0.0181757 4.27103e-21)
(1.10222 -0.0189206 7.21615e-21)
(1.09437 -0.04248 3.22795e-21)
(1.09312 -0.0437319 0)
(0.297744 0.0213771 -5.12066e-21)
(0.277122 0.0187904 1.15785e-20)
(-0.0500547 0.00880221 1.67311e-22)
(-0.0477383 0.00804291 -1.47753e-20)
(-0.07355 0.00688509 -4.07064e-20)
(1.06598 -0.0449007 0)
(1.06575 -0.0460106 -6.33103e-21)
(1.06703 -0.0453506 0)
(1.08073 -0.031731 9.18219e-21)
(1.08171 -0.0319317 -5.60781e-21)
(1.08114 -0.0310009 -5.30492e-21)
(1.2402 -0.204655 -3.36414e-20)
(1.22416 -0.195225 -1.07518e-21)
(1.14026 -0.179602 -1.61159e-20)
(1.01449 -0.0222862 -1.81298e-21)
(1.01468 -0.0231743 -2.14096e-21)
(1.01372 -0.0224036 -1.63156e-21)
(1.00057 -0.00472643 1.46763e-22)
(1.00065 -0.00464697 0)
(1.00053 -0.00439028 0)
(1.10358 -0.0187857 2.11893e-20)
(1.10349 -0.0180192 -6.06953e-21)
(1.09298 -0.121072 1.00194e-20)
(1.09201 -0.117686 1.15093e-22)
(1.08939 -0.120285 1.05731e-22)
(1.01948 -0.0157754 0)
(1.0201 -0.0160929 0)
(1.01987 -0.0154559 -1.01757e-22)
(1.00005 -0.00143526 -2.62756e-21)
(1.00003 -0.00141041 -1.77615e-21)
(1.00002 -0.00121189 2.53058e-21)
(0.998839 -0.0102004 2.0781e-21)
(0.99872 -0.00972237 5.66702e-22)
(1.00337 -0.000630578 2.4641e-21)
(1.00363 -0.000658227 1.72415e-22)
(1.00336 -0.000376263 2.74145e-21)
(1.07947 -0.0394619 -1.08009e-20)
(1.08062 -0.0400047 1.00315e-20)
(1.08066 -0.038759 -1.95217e-20)
(1.0006 -0.00510208 2.44001e-21)
(0.247006 0.0149414 -3.30766e-21)
(0.269904 0.0162551 6.98367e-21)
(1.09128 -0.0379106 -8.31058e-21)
(1.09066 -0.0367309 1.11827e-21)
(1.00383 -0.029113 -2.35961e-21)
(1.00314 -0.0288077 -4.79405e-21)
(1.00346 -0.0297571 7.18809e-21)
(0.326783 0.00621026 -7.04251e-21)
(0.101857 0.014253 0)
(0.0884651 0.0134168 0)
(0.970075 -0.00533935 -2.88804e-21)
(0.970396 -0.00678943 2.80295e-21)
(0.971584 -0.00581298 -1.00479e-20)
(1.1117 -0.0214537 1.11208e-20)
(-0.103993 0.0107561 2.52455e-21)
(-0.130631 0.0092419 9.75148e-21)
(-0.101877 0.00992496 3.30526e-20)
(0.963161 -0.0329452 -3.42148e-21)
(0.965175 -0.0340333 9.62466e-21)
(0.969615 -0.00389646 -7.35876e-21)
(0.968216 -0.00508961 5.35186e-22)
(1.09207 -0.0387525 9.21871e-21)
(1.09249 -0.0375954 -3.67176e-21)
(0.0618777 0.00266113 3.3753e-22)
(0.0590718 0.00345995 0)
(0.0774391 0.00517423 -1.03006e-20)
(0.374497 -0.0113835 3.31724e-20)
(0.292885 -0.00382184 2.41111e-20)
(0.361566 -0.0126482 -3.80835e-20)
(1.10532 -0.0444458 -1.00332e-20)
(1.10682 -0.0449402 0)
(1.10544 -0.0456759 0)
(1.00189 -0.00043852 -3.16771e-21)
(1.0018 -0.000622146 2.91598e-21)
(0.686 0.0178903 9.80039e-21)
(0.759598 0.0145057 -2.01682e-20)
(0.999825 -0.00540326 3.38125e-22)
(1.10828 -0.0453697 0)
(1.10877 -0.0468632 0)
(1.11002 -0.0456306 1.07754e-20)
(-0.108426 0.011226 -4.16783e-20)
(-0.0835727 0.0135371 -3.92475e-20)
(1.09877 -0.0113279 5.05004e-21)
(1.09988 -0.0106982 -4.26128e-21)
(1.12438 -0.0137399 1.64675e-20)
(1.05723 -0.0227353 3.49073e-21)
(1.05731 -0.0220204 2.31462e-21)
(1.24294 -0.216982 -1.59112e-21)
(1.24172 -0.211729 -5.54502e-20)
(1.21717 -0.17343 -1.49298e-23)
(1.19974 -0.167726 -2.67941e-20)
(1.19809 -0.173378 2.74398e-20)
(-0.0626756 0.00756174 2.81323e-20)
(-0.0523874 0.00832234 5.55184e-20)
(-0.019972 0.00543578 -2.87221e-20)
(1.14208 -0.0686046 -3.25081e-21)
(1.14018 -0.0697637 2.39954e-21)
(1.14249 -0.0708299 2.13176e-22)
(0.775001 -0.0617368 1.09092e-21)
(0.776135 -0.0507471 -2.57149e-20)
(0.763796 -0.0542022 1.11831e-23)
(0.0680137 0.0236595 1.62587e-20)
(0.0784886 0.0238602 1.64701e-20)
(0.136906 0.0191291 1.02876e-21)
(0.154119 0.0208257 3.12631e-22)
(0.132918 0.0189368 -9.0846e-21)
(1.12089 -0.0119618 1.21976e-20)
(1.07905 -0.00842746 1.42857e-20)
(1.03235 -0.0357283 1.05885e-21)
(1.03141 -0.0364123 -2.28707e-22)
(-0.213773 0.0114223 7.24108e-20)
(-0.192012 0.00987284 3.31304e-20)
(-0.182847 0.0102657 -3.39792e-20)
(0.13459 -0.00556131 -1.30938e-21)
(0.136536 -0.00595824 -2.06924e-21)
(0.463515 -0.383241 2.18068e-20)
(0.431235 -0.356911 9.00025e-20)
(0.432367 -0.402722 1.2402e-19)
(0.492584 -0.363498 0)
(0.50194 -0.404599 0)
(0.929942 -0.00319251 -2.21437e-20)
(0.931182 -0.00473521 -2.16985e-20)
(1.10641 -0.0487072 0)
(1.10516 -0.0495742 -1.37869e-20)
(1.10683 -0.0501598 -1.82274e-20)
(0.925853 -0.0944278 1.28725e-20)
(0.929444 -0.0907443 -1.12141e-20)
(0.931184 -0.0961645 1.18293e-20)
(0.206949 -0.00256654 -1.06896e-20)
(0.189693 -0.00482579 0)
(0.777804 -0.10745 1.22312e-20)
(0.776912 -0.0945888 -3.17045e-20)
(0.763428 -0.102456 1.04644e-19)
(1.00706 -0.00175812 -7.43468e-21)
(1.00701 -0.00209344 4.94778e-22)
(1.0074 -0.00198896 -8.02196e-22)
(1.02436 -0.00154381 0)
(1.02415 -0.00125071 2.53959e-23)
(1.03959 -0.0819473 0)
(1.04167 -0.0830176 0)
(1.03926 -0.0840621 0)
(-0.0970118 0.00576134 6.00178e-20)
(-0.0736079 0.0069657 -1.06933e-20)
(0.230389 -0.490245 -6.19387e-20)
(1.01515 -0.0222046 7.53952e-22)
(1.01432 -0.0216062 3.48606e-21)
(0.000175589 0.0224416 6.31714e-21)
(0.916056 -0.0904248 0)
(0.921409 -0.0929016 1.28486e-20)
(0.91999 -0.0870146 0)
(1.06308 -0.0799391 -4.9239e-22)
(1.06555 -0.0795917 -1.92081e-21)
(1.0596 -0.0223543 -4.36918e-21)
(1.05908 -0.021819 0)
(0.061862 0.00211399 3.98523e-22)
(0.0449598 0.00237572 1.6113e-20)
(1.12525 -0.0232162 -2.03001e-20)
(1.12521 -0.0248311 -4.13205e-21)
(1.09708 -0.011664 1.33148e-20)
(1.0023 -0.0708534 4.37172e-21)
(1.00034 -0.0722055 -3.90808e-21)
(1.05153 -0.0544822 -1.66743e-21)
(1.05049 -0.055535 -1.58661e-21)
(0.390513 0.00906394 -1.80039e-21)
(0.393911 0.00858153 -2.4777e-21)
(0.374081 0.00789041 -9.4568e-21)
(0.970594 -0.0135105 1.11112e-20)
(0.972139 -0.0137239 -9.39198e-21)
(1.13626 -0.0301637 -2.12105e-20)
(1.06484 -0.0441684 -1.5154e-21)
(1.06629 -0.0435446 0)
(1.09167 -0.0397386 1.74484e-20)
(1.09305 -0.0393072 3.23191e-22)
(0.912762 -0.0947933 -9.29026e-21)
(0.910395 -0.0885723 0)
(0.989165 -0.00568611 -5.1598e-21)
(1.00477 -0.0295671 4.17445e-21)
(1.00431 -0.0284821 2.98446e-21)
(1.14634 -0.104808 -9.79313e-21)
(1.14698 -0.108092 -4.6167e-20)