/*--------------------------------*- C++ -*----------------------------------*\
| =========                 |                                                 |
| \\      /  F ield         | OpenFOAM: The Open Source CFD Toolbox           |
|  \\    /   O peration     | Version:  v2012                                 |
|   \\  /    A nd           | Website:  www.openfoam.com                      |
|    \\/     M anipulation  |                                                 |
\*---------------------------------------------------------------------------*/
FoamFile
{
    version     2.0;
    format      ascii;
    class       volScalarField;
    location    "350";
    object      ddt0(k);
}
// * * * * * * * * * * * * * * * * * * * * * * * * * * * * * * * * * * * * * //

dimensions      [0 2 -3 0 0 0 0];


internalField   nonuniform List<scalar> 
13917
(
0.000848134
2.36683e-06
-0.000153124
2.50363e-07
8.20455e-07
2.1963e-06
2.919e-07
4.35831e-06
3.17299e-07
-6.10026e-05
4.25899e-06
2.58e-07
4.62668e-07
-8.65928e-05
9.14042e-07
0.00069421
-8.35389e-07
3.03071e-06
1.29741e-08
0.000489578
9.52341e-07
3.8852e-07
2.20739e-07
3.8695e-07
3.92612e-07
1.09344e-06
-4.33784e-05
-3.67523e-05
1.64653e-06
-4.27271e-07
-2.08126e-05
-3.15484e-07
3.0137e-07
0.00137837
1.31778e-07
5.22976e-06
6.30908e-07
1.85923e-07
3.04054e-07
8.18698e-07
-6.08987e-06
-1.52511e-06
3.00455e-07
-6.20735e-07
-8.29678e-07
-1.58182e-05
9.34536e-07
0.000132993
-2.37669e-05
1.3005e-07
2.65972e-07
6.6749e-07
0.000799971
3.41338e-07
3.38848e-07
5.80595e-07
5.35105e-05
2.18099e-07
-1.28494e-06
-4.33877e-06
0.00154841
-1.6034e-06
-7.86999e-07
3.72579e-07
0.00656536
0.000792728
1.87422e-06
5.42303e-06
3.15138e-06
0.00062577
0.00720565
0.00119399
1.7069e-07
-1.12774e-06
9.60406e-07
4.82809e-07
6.00507e-07
-8.68729e-07
4.5569e-07
3.00627e-07
4.78759e-07
-3.00913e-08
1.66703e-07
0.0078481
-2.3109e-09
-1.88916e-06
2.37918e-08
8.80838e-08
8.08073e-07
-1.26256e-06
-6.84379e-07
3.43785e-07
-6.2304e-05
2.13073e-07
4.4332e-07
1.75194e-06
3.28844e-06
6.34391e-08
6.81265e-08
1.20404e-06
-2.80904e-06
-2.45594e-06
4.84861e-07
2.06755e-08
5.3913e-07
0.00695832
0.0018468
-1.21676e-06
-1.29672e-06
0.000214676
3.78435e-08
0.0015394
1.46515e-06
-0.000732053
0.0065535
5.34479e-07
-2.29655e-07
-7.282e-07
-2.72779e-06
1.56883e-07
-5.55924e-07
-6.41319e-07
2.10419e-06
2.20464e-07
0.000440781
0.00774029
3.51364e-07
9.61815e-07
3.63521e-07
1.21686e-07
1.13693e-07
6.23603e-06
0.00245772
5.43441e-07
-4.36843e-07
0.000192943
0.00138199
-0.00018459
1.17578e-06
1.79262e-07
-0.00414023
-5.00245e-07
0.00688069
3.46814e-07
1.78364e-07
-1.68765e-06
0.00716018
0.00146753
0.00028434
3.41894e-07
7.89169e-07
-1.9329e-06
1.66121e-07
1.53294e-07
-3.57284e-05
3.64698e-07
-8.74625e-09
0.00183389
-4.17715e-06
-2.34189e-06
1.12389e-07
0.00525077
8.60241e-07
-0.00288498
0.00238655
3.83987e-07
-0.000118922
0.00108645
2.34239e-08
1.19471e-06
3.92318e-07
0.00297099
2.74832e-07
0.00231337
7.01456e-07
-3.4051e-06
2.40721e-07
2.66573e-07
4.66817e-07
9.14047e-07
1.64879e-07
3.72913e-07
2.66844e-07
1.04527e-05
-4.80236e-06
6.27593e-06
2.65137e-07
8.73443e-06
-6.43591e-07
-1.18842e-06
7.24934e-07
-2.68142e-07
5.39105e-07
0.000813434
2.0661e-07
0.000451697
4.69577e-07
0.00301887
1.40661e-07
3.70393e-07
8.52144e-07
0.000649334
-0.000292132
6.25337e-07
-0.000255049
1.55798e-06
8.00349e-07
-5.43906e-07
3.49726e-07
4.78298e-07
2.21836e-07
6.4713e-07
9.01324e-07
0.000596955
-3.04078e-07
1.09134e-06
0.00416937
2.36052e-07
-4.13268e-07
-4.08826e-07
0.000754626
3.60044e-06
-9.61554e-06
5.90605e-09
-6.95243e-07
0.00134325
0.00050936
-3.48863e-07
-3.46313e-07
-6.03372e-06
-4.69635e-07
-4.63234e-07
0.00109397
0.00110769
4.21399e-07
-3.00703e-08
4.34111e-07
0.000939301
-3.46422e-06
-1.80739e-09
-4.27018e-05
0.00663011
8.6277e-06
0.00406011
8.77784e-07
3.38387e-07
0.00151547
4.30759e-07
1.49239e-06
-1.69575e-07
5.90871e-07
0.000869815
1.51732e-07
6.65954e-07
6.34043e-07
4.34927e-07
-6.16986e-06
3.64911e-07
1.4453e-07
7.45586e-08
0.000502681
-0.0045247
-4.2413e-07
-3.48309e-07
3.83456e-07
-3.4026e-07
1.55924e-07
5.14476e-07
4.22091e-07
-4.89975e-07
-0.000143936
0.00215326
2.48854e-07
3.62465e-07
-1.62312e-05
-1.98439e-07
8.67139e-07
0.000566018
-2.15842e-07
0.000727266
8.96292e-08
0.00541091
-3.20751e-06
8.08381e-07
4.50443e-07
3.38065e-07
3.74478e-06
1.91026e-07
3.72851e-06
5.80026e-07
-0.00193463
-2.02923e-06
3.29507e-06
-0.000289701
-1.79104e-06
2.76573e-07
2.61255e-07
5.69867e-07
5.44412e-07
4.45217e-07
1.80281e-07
1.53199e-07
6.10557e-07
4.08366e-06
6.4898e-07
4.32987e-07
-8.2231e-09
0.00218475
0.000499382
3.43659e-07
5.98988e-05
5.66137e-07
5.94813e-06
2.20036e-08
0.00224608
0.00274335
0.000707418
2.34028e-06
3.23677e-07
0.00768976
9.59182e-06
-6.3607e-05
4.95447e-07
8.7013e-07
-9.95146e-06
4.02388e-07
2.61207e-06
-5.80612e-07
-1.48701e-06
0.00324027
-3.90901e-09
3.85221e-08
1.63924e-06
0.000135094
9.48191e-08
6.21818e-07
1.52487e-06
0.000521026
-1.35222e-06
-2.19321e-07
0.00757277
4.22296e-07
3.93062e-07
0.00180279
0.007351
0.00516
0.000260026
-2.59183e-07
4.17509e-07
0.00628559
2.53625e-06
-2.66356e-07
4.78403e-07
2.95926e-07
7.66535e-07
6.18015e-07
3.31934e-07
1.29983e-06
4.76177e-07
5.99244e-08
0.00131791
3.62067e-07
4.19201e-07
7.32433e-07
1.1168e-05
-2.87363e-06
0.000679115
3.45884e-08
0.00129018
3.39826e-07
2.03336e-06
0.000113836
-3.94081e-05
-6.38938e-07
-1.00706e-05
-1.43424e-05
1.68956e-06
2.45945e-07
0.00380872
2.7776e-06
0.00217265
3.08304e-06
-6.57597e-07
-1.94604e-05
4.96157e-07
-0.000608162
7.60305e-08
0.000814751
-0.000329103
5.61329e-07
0.00205198
4.18624e-07
5.51847e-07
0.00406064
0.00105176
4.99987e-07
3.86224e-06
3.94981e-07
3.06075e-07
-0.000153592
6.65865e-09
3.08139e-07
4.18073e-07
3.07502e-07
7.11236e-08
3.57263e-07
0.000468341
1.45971e-06
3.92159e-07
3.34055e-07
3.57681e-07
4.01171e-07
8.47414e-06
3.09954e-07
3.19668e-08
-2.77469e-07
2.18354e-06
3.5706e-07
5.37911e-07
0.00411882
0.000133164
0.000944697
-7.34857e-07
0.00759366
-9.0518e-07
6.21434e-08
9.70518e-07
6.11626e-08
3.14179e-07
4.29634e-07
7.85455e-08
-9.06314e-07
0.00131713
4.03001e-07
8.05079e-07
-7.5048e-05
3.23534e-07
2.34347e-07
1.70188e-07
0.0043469
8.70132e-07
0.000459851
9.79525e-07
7.67113e-08
3.21014e-06
-5.10683e-07
6.20572e-07
5.13688e-07
0.00392426
6.3221e-05
0.00648986
7.66341e-08
1.5489e-07
6.2469e-05
4.68304e-07
7.93992e-07
0.00523914
2.86414e-07
0.00309425
2.53566e-07
1.16461e-07
3.60254e-07
5.01638e-07
1.90421e-07
2.23867e-07
0.00218609
0.00193537
1.79135e-07
-2.57979e-06
-5.30301e-07
1.01824e-07
2.68601e-07
-2.27944e-07
0.00337788
1.20866e-07
0.006971
-0.000140992
-0.000263356
5.19495e-07
0.000670158
6.41571e-05
5.82234e-07
0.00246349
-9.21511e-07
3.21032e-07
4.42495e-07
-9.61545e-08
8.71008e-07
-2.82189e-06
2.14404e-08
-5.16055e-06
3.40861e-07
2.41215e-06
9.34605e-07
3.90257e-07
-0.000356352
3.12317e-07
5.67367e-07
0.00252342
-1.3591e-08
9.51628e-07
1.15068e-06
6.70538e-08
0.000794135
1.29292e-07
-5.03575e-07
4.06286e-07
9.40371e-07
2.60764e-07
7.56168e-07
0.00118749
0.00494525
9.48107e-08
2.31301e-07
-3.56839e-06
0.00102078
9.22043e-05
3.69335e-07
3.40822e-07
6.88056e-08
5.44327e-07
0.000700851
3.30621e-07
-2.98109e-06
3.54922e-07
2.76848e-07
2.62717e-07
4.45473e-07
-1.30072e-06
3.65392e-08
6.63769e-08
3.68603e-07
4.11904e-07
0.00204829
-2.17424e-07
2.57496e-07
8.36104e-08
2.22047e-07
2.52295e-07
7.20508e-07
6.53025e-07
1.38512e-06
4.16679e-07
2.50144e-06
0.0036675
0.00146238
-9.76967e-06
3.07369e-07
3.54564e-07
-9.78469e-06
2.29398e-07
0.00653828
-1.51859e-07
0.00444852
4.58903e-07
0.00559685
1.14004e-06
2.94955e-07
-0.000501546
1.76506e-07
-6.922e-08
-1.27435e-08
-1.00197e-07
0.00497415
5.60874e-07
-3.0764e-05
-1.46334e-06
2.46695e-07
3.54579e-07
3.06594e-08
1.0329e-07
-3.0902e-07
-8.74688e-07
3.11961e-07
-0.00696209
0.00722026
0.00235922
0.00307594
-2.03406e-07
0.000545199
-4.72843e-07
0.00170689
0.000298737
-1.01853e-07
9.51078e-05
-2.54983e-06
3.41669e-07
9.39912e-08
5.89338e-07
2.24402e-08
4.68639e-07
0.00703258
1.3074e-07
1.6715e-08
3.24647e-07
-3.00117e-07
-3.38029e-06
7.69924e-06
0.00577997
-0.00063498
-6.84885e-08
4.28978e-07
0.000363314
0.000968999
8.54794e-08
0.00516403
4.23188e-07
-2.64874e-07
2.41993e-07
0.00363914
2.55288e-07
4.41998e-07
1.83454e-07
-0.00613621
3.90897e-07
0.0059003
-1.04175e-06
4.10205e-07
1.97115e-07
-2.62702e-06
0.00145836
-1.80704e-07
9.85628e-08
3.67097e-07
1.89951e-10
-5.05119e-07
-1.93176e-06
0.00168852
1.29721e-07
2.23125e-07
-1.44448e-07
1.35017e-07
1.19903e-05
-1.95963e-06
1.01406e-07
-1.44708e-07
8.72433e-08
0.00137969
-5.8749e-08
3.58741e-07
-0.00100454
-7.0165e-05
7.53627e-06
5.47327e-07
1.6645e-07
9.5068e-07
0.00175577
0.000319896
9.10848e-07
6.28559e-07
6.06704e-07
-2.96407e-07
3.67687e-07
0.00095987
3.10127e-07
4.87596e-07
0.00198685
3.49073e-07
1.11549e-05
0.000149622
3.08247e-06
5.769e-07
1.46407e-06
0.000813878
1.72757e-07
1.49236e-06
0.000992809
8.64818e-08
-6.50991e-07
-3.67336e-06
-4.12944e-06
2.74089e-07
0.000588312
1.34006e-07
7.42058e-08
-2.8378e-07
-6.12147e-07
0.00260528
6.07943e-08
3.64285e-07
0.000880278
2.16274e-07
-0.000248689
1.97111e-07
2.45536e-06
3.3606e-07
2.35719e-07
3.25175e-07
3.49846e-07
0.000331283
6.05704e-07
0.00288473
-4.13267e-05
1.29483e-06
0.00227306
2.39032e-07
5.38972e-08
1.71765e-07
0.000653608
0.003421
4.83486e-07
0.000415594
0.00319146
1.01585e-07
3.55664e-07
6.31704e-07
0.00731927
0.000259472
4.14616e-07
2.17531e-07
2.87354e-07
-4.81215e-07
3.67939e-07
2.86822e-07
1.44942e-07
4.39604e-07
3.13779e-07
7.82589e-08
3.27788e-07
2.85088e-07
0.00345872
6.07288e-07
-2.34675e-06
0.000412776
1.52135e-06
0.00407093
5.92741e-07
1.6952e-06
4.13564e-07
-6.23675e-05
-8.01583e-07
-1.36336e-07
0.00549781
-0.000116058
2.26524e-07
6.08552e-07
3.00393e-07
1.48571e-07
1.60425e-07
1.08873e-06
9.78223e-05
5.41565e-06
1.21401e-07
1.57862e-07
0.00604519
3.75067e-07
-1.31004e-07
3.29093e-07
4.31285e-07
-1.08698e-07
5.16285e-06
-2.66781e-07
2.08575e-07
8.94654e-07
1.71179e-07
3.30996e-07
2.02578e-07
3.72322e-07
0.000572346
3.00896e-07
-3.30787e-10
4.13045e-08
3.68844e-07
2.761e-07
5.77743e-07
3.55132e-06
1.68029e-06
0.000247089
9.47573e-07
0.00597487
1.6019e-07
6.00167e-07
3.51793e-05
-3.31818e-07
-3.23518e-06
-1.09357e-06
-6.05085e-07
2.04621e-07
6.51899e-07
6.88011e-07
3.30366e-07
0.000626857
3.34058e-07
-0.00127453
5.84369e-07
2.30244e-07
1.55969e-06
-7.32774e-08
8.39035e-07
0.00535829
1.46165e-06
-9.38647e-07
0.00202505
3.39485e-07
0.00050271
1.66061e-07
8.34541e-07
4.11834e-07
2.6145e-07
2.28147e-07
0.00340201
3.32778e-07
8.06742e-06
7.70848e-05
1.34584e-07
1.98773e-07
-3.96134e-08
-2.32685e-08
0.000631829
-3.86674e-08
0.00169468
2.41079e-07
6.21663e-07
-3.12464e-07
1.56571e-06
-2.78343e-07
-3.92116e-07
1.51252e-06
1.63257e-07
3.45896e-07
4.69896e-07
3.54372e-07
1.66749e-08
-2.89051e-07
-2.10556e-06
4.41111e-07
0.000805205
0.000443337
5.98031e-06
0.00613919
0.00261366
0.000560081
7.4513e-06
9.85208e-08
-6.54224e-07
2.01683e-07
3.76215e-07
8.20171e-08
3.3568e-07
2.50226e-07
8.35086e-06
3.44483e-07
0.00707171
2.92215e-07
1.92119e-07
1.54845e-06
3.06999e-07
8.18452e-07
3.49332e-07
7.86032e-08
3.57008e-07
2.69593e-06
0.00198222
2.40095e-07
0.00129887
3.41472e-07
1.06595e-07
3.91871e-07
3.3744e-07
0.00264071
1.03708e-07
8.80298e-07
2.2963e-07
0.00073849
7.61109e-07
3.2028e-07
-7.52e-08
-2.15288e-06
1.10939e-07
0.000688274
0.00392627
6.87246e-07
-1.83614e-07
1.59234e-07
4.31772e-07
6.39366e-06
3.4082e-07
0.00111484
-2.89468e-07
2.50977e-07
-1.95678e-07
0.00100375
5.37187e-06
-3.1784e-05
0.00167267
-9.32102e-07
5.09288e-07
3.49307e-07
0.00735053
8.54407e-08
-9.85055e-08
2.2496e-07
0.00084831
7.99073e-07
0.00107732
3.33541e-07
3.60341e-07
-0.000242805
3.26634e-07
9.85265e-07
0.00442981
5.06126e-07
1.04648e-07
-2.70909e-05
-8.8938e-07
-7.75933e-07
2.69181e-07
4.97395e-07
0.00632401
7.83231e-07
-2.75746e-07
1.32978e-07
2.57826e-07
0.00119364
4.71495e-07
2.4383e-07
9.7797e-08
0.000174248
0.000336983
2.24365e-07
6.43809e-06
-1.23069e-08
3.65259e-07
3.96412e-06
-4.1691e-07
-3.72304e-07
2.14047e-07
4.74409e-07
-2.64212e-07
4.81541e-07
-2.32282e-07
0.00232762
0.00507812
-3.03783e-07
3.97863e-07
-0.000359105
1.80306e-07
0.000203421
0.00112552
-0.000256412
-4.83116e-07
1.01956e-07
7.73286e-08
3.59438e-07
-4.12344e-07
3.31566e-06
1.53299e-07
5.68266e-07
1.05714e-07
0.000176069
-4.06364e-05
1.85821e-07
0.00407887
1.1262e-07
3.52435e-07
-3.82949e-07
0.00186143
1.00524e-06
-2.7835e-06
-0.000675022
2.12727e-07
3.37268e-07
0.00706964
-6.2018e-07
-3.09226e-05
2.64002e-07
-1.75481e-06
2.36144e-07
-5.37614e-07
8.30055e-07
-4.14994e-06
3.98462e-07
0.00111676
-3.04842e-06
2.20477e-07
5.37713e-07
1.14184e-07
1.90503e-07
-1.75447e-07
1.19165e-07
4.86195e-07
0.000777813
0.000538066
-5.03584e-06
-2.64187e-07
-4.12441e-07
0.000384264
-5.78705e-07
0.00300993
5.62033e-07
3.25569e-07
3.91023e-07
0.00228584
0.00580429
0.00736066
-1.44778e-05
-0.00139787
4.374e-06
2.45272e-07
1.25296e-07
4.32986e-07
2.28194e-07
6.89442e-06
0.000839551
-6.11808e-07
1.70803e-07
0.000860162
-1.37475e-06
-3.44152e-07
0.00609901
0.00335672
3.56197e-07
-5.57361e-07
3.24944e-07
1.77591e-07
3.31679e-07
1.11681e-06
8.30332e-07
1.95662e-07
0.00407897
-3.19897e-07
0.000522417
0.000726349
-2.20533e-06
0.000328293
2.02854e-07
2.88662e-07
0.0005501
0.00104782
-0.000921699
0.000135688
9.76955e-07
2.36729e-07
2.82757e-07
4.47696e-06
0.00510379
-1.85255e-06
3.94087e-07
-1.47272e-07
3.26004e-07
-0.00017233
4.04118e-08
1.14097e-07
-1.5516e-07
-7.4407e-05
2.98316e-05
0.00402834
0.00221756
1.84953e-07
-7.20004e-05
-3.77072e-07
5.88289e-07
4.81267e-07
-0.000926639
3.30749e-07
-7.22653e-08
4.24993e-07
5.75143e-06
5.45708e-07
0.00353268
4.51977e-07
8.25558e-07
0.00351549
-5.7159e-07
-1.88935e-07
5.20541e-07
3.64388e-07
-2.88984e-07
0.00032554
5.90819e-07
1.30232e-07
3.92526e-07
0.00725505
1.2265e-07
5.15187e-07
8.41171e-08
4.67737e-07
2.68766e-07
1.39643e-06
-1.97402e-07
3.99067e-07
3.22126e-07
-8.60126e-07
0.000576793
1.91529e-06
0.00146399
2.15232e-07
9.2746e-08
0.00379767
3.00713e-08
5.43344e-07
0.00245575
0.000312562
1.04065e-06
6.59608e-07
8.45548e-07
0.000558405
-1.99597e-07
8.47842e-07
0.00673963
3.31857e-07
3.5287e-07
0.00269248
-4.55774e-06
0.00234009
-5.02237e-05
-9.82983e-07
3.6183e-07
4.94964e-07
2.70522e-07
3.80866e-07
0.0036413
-2.61186e-07
3.84701e-07
-6.51809e-08
-1.04869e-07
0.00401852
5.08109e-07
0.000930561
0.00193004
1.09206e-07
-3.00723e-07
8.81523e-07
4.69155e-07
1.70775e-07
0.000208234
-4.47038e-08
0.000925324
6.4163e-07
0.000925296
9.56772e-07
3.71833e-06
5.92369e-06
4.14573e-07
2.13279e-06
3.39105e-07
8.97003e-06
1.72239e-07
6.50273e-07
1.01389e-06
8.11728e-07
2.37389e-07
1.66877e-08
0.000667529
1.24284e-07
2.59566e-06
-1.5295e-06
3.46916e-07
1.70765e-07
-2.62301e-07
0.00716772
-0.000129532
2.12463e-07
1.92832e-07
-0.000102334
3.96822e-06
-0.000395351
2.24871e-07
6.51613e-08
-1.00777e-06
1.13599e-07
4.10672e-07
6.24558e-07
0.0072375
3.5363e-07
2.84397e-07
0.000294956
-0.000107231
-2.72647e-07
0.00371704
0.00116863
1.98333e-07
1.22329e-07
5.66723e-08
4.73305e-07
-1.93645e-07
0.00261176
0.000995542
1.40457e-06
8.88819e-07
-5.45888e-08
1.20119e-07
0.00026913
6.62364e-07
-7.00792e-07
2.40936e-07
-2.92008e-07
0.000170453
1.34069e-07
1.77551e-07
0.00220207
3.92105e-07
0.000161695
0.00218093
8.97233e-07
3.35259e-07
-7.29383e-06
3.55122e-07
-1.36793e-08
0.00543963
0.00400465
2.32585e-07
1.04761e-06
-3.13494e-07
7.80309e-07
2.88822e-07
-3.02079e-07
1.85835e-07
2.20853e-07
1.18783e-07
4.63126e-07
8.54906e-07
0.000265523
7.68711e-07
3.50045e-07
2.27628e-07
1.01609e-06
3.02786e-07
8.96206e-07
-1.1117e-05
5.06609e-05
0.00197798
5.37056e-07
-3.17194e-07
0.000155588
7.75483e-08
-0.00122828
3.26813e-07
8.27991e-07
3.36128e-07
8.30307e-08
0.0041028
4.13539e-07
5.33095e-07
9.51501e-08
0.00162111
0.00256511
0.000884991
3.30097e-07
3.5975e-07
-9.41113e-06
-1.99613e-06
-7.73282e-07
2.51608e-06
0.00237505
6.05499e-07
3.23359e-07
2.84544e-07
0.00767837
3.21369e-08
6.55213e-07
2.37347e-07
-3.23989e-07
0.000248981
4.66225e-08
2.08275e-07
4.31223e-06
-8.29193e-08
0.00111261
-3.58371e-05
1.44388e-08
3.07135e-07
2.76993e-07
3.25109e-07
5.18857e-07
2.15424e-07
2.80685e-07
-4.89132e-05
2.2113e-07
4.04072e-07
-6.33524e-07
-1.9747e-05
1.74345e-07
3.51849e-05
3.58968e-07
5.3205e-05
5.30521e-07
1.12838e-05
-3.46337e-07
2.75082e-07
-1.7768e-07
3.03276e-07
2.97453e-07
2.96165e-07
-3.28256e-07
1.95794e-07
1.21266e-07
-0.000469605
1.86065e-06
-4.16593e-06
-4.19383e-08
2.09493e-07
1.87679e-06
1.74538e-06
3.13688e-07
0.0039869
3.63884e-07
-5.67444e-07
-9.00831e-09
-2.23237e-08
4.12192e-07
1.77485e-05
0.00497423
-3.54798e-06
-0.000222644
-1.95549e-05
9.8003e-07
6.6334e-07
0.00597106
-7.96123e-08
4.3142e-07
4.97471e-07
0.00101158
2.29216e-08
0.00188418
3.62254e-07
2.51522e-08
2.4601e-06
6.22516e-06
0.000536307
0.00083421
4.12819e-07
3.36166e-06
1.51722e-05
-4.01023e-07
0.00604706
1.08434e-07
-3.04303e-06
2.40758e-05
-7.20828e-08
0.00234354
0.000631318
2.11731e-07
2.16108e-07
-4.25625e-07
0.00293573
-5.3551e-06
-3.08243e-07
-3.17163e-07
8.62814e-09
2.56825e-07
2.58678e-06
-4.86998e-07
-2.00214e-07
2.05841e-07
3.80764e-07
8.72019e-08
-2.44895e-07
-2.3857e-06
9.26473e-08
9.5662e-08
3.55138e-07
-1.23989e-08
2.81943e-07
3.44203e-07
2.80676e-08
2.05277e-07
5.43401e-08
4.49181e-07
2.38581e-07
1.98524e-06
-2.47514e-08
-3.43604e-08
3.7342e-07
2.89425e-06
1.86297e-07
2.73863e-07
3.44195e-07
7.91174e-07
8.19768e-07
7.66843e-07
2.47576e-07
0.00168133
0.00101463
0.00174584
0.00348678
-2.75509e-07
0.00579128
3.70423e-07
2.44395e-07
6.5895e-06
0.00328191
1.09636e-06
0.000793273
7.75168e-08
-4.34323e-07
0.00099255
2.76591e-07
4.91806e-08
0.00038109
0.00289294
-3.04208e-07
2.32774e-07
1.99426e-07
0.000268685
2.75483e-07
0.00257422
0.000638241
2.81574e-07
-2.24536e-06
1.05429e-05
-3.97192e-07
0.000458243
0.000216545
4.87539e-07
4.18947e-08
0.00116057
0.000473485
-4.36623e-07
1.52062e-07
4.19942e-07
6.68294e-06
8.2507e-07
3.09712e-07
2.0319e-07
0.00769356
3.10826e-07
1.08398e-07
2.4248e-07
1.37805e-07
-7.62813e-05
7.86127e-07
3.48608e-07
0.000477661
1.17438e-07
7.49166e-07
1.5855e-07
0.00119836
5.82717e-07
0.000179203
1.61281e-07
2.75044e-07
-1.34437e-06
2.59538e-08
2.15018e-07
2.97287e-07
0.00165152
4.44857e-07
1.6526e-07
1.18663e-07
-0.000629859
5.34531e-08
-0.00458674
0.00281181
0.00139892
3.40161e-07
2.54412e-07
5.76063e-08
-3.16462e-05
3.67099e-07
0.00706709
-2.57386e-07
2.14397e-06
5.05539e-07
-1.13423e-09
0.00166301
3.46812e-07
-7.1512e-07
0.000471243
-1.91776e-07
0.00201756
-3.07443e-08
0.00586907
3.76585e-05
3.55857e-07
0.0009231
3.82661e-07
7.44534e-07
0.00159234
6.32625e-07
1.83035e-06
0.001077
1.10048e-06
-3.42955e-08
1.64457e-07
0.00774953
1.20489e-07
-0.0057097
3.96253e-08
0.000793066
1.26635e-07
4.01098e-08
3.87493e-07
-0.00211955
2.78876e-07
0.000760975
1.06107e-06
-0.000705365
1.70533e-07
8.40907e-07
0.00396462
7.33006e-06
-1.68441e-05
4.81673e-07
1.77004e-07
3.14177e-07
1.56218e-06
6.76995e-07
0.000824482
3.99438e-07
1.33478e-06
0.000676495
2.93261e-07
-0.000406289
-3.65518e-09
0.00657296
-5.76297e-05
4.94101e-07
5.46282e-07
-0.00601697
0.00582674
7.88739e-08
3.24239e-07
1.49504e-07
3.46736e-07
0.00746342
6.89665e-07
0.00402629
3.23792e-07
5.20503e-07
0.00247195
-4.82934e-07
-1.65022e-05
0.00729218
-7.92147e-09
7.55545e-08
-2.74508e-05
0.00385257
2.16548e-06
0.00404969
4.34235e-05
8.73762e-07
1.21131e-06
0.00471067
0.00298278
0.00125869
3.85183e-08
2.32817e-07
4.43525e-07
8.01524e-07
2.72845e-07
-1.34839e-07
6.97886e-07
-5.3596e-07
0.00114573
-1.14522e-06
-7.73732e-06
0.000565796
1.29355e-06
7.67991e-08
8.76901e-08
8.07246e-06
2.63493e-07
0.00190381
5.41095e-07
1.47701e-05
2.34757e-06
0.000156768
8.90782e-08
4.43846e-07
3.13205e-07
2.57828e-07
0.00361208
-4.31773e-06
0.00235434
1.41707e-07
0.00125312
0.00166823
-3.15444e-05
7.83388e-07
6.11208e-07
1.10005e-06
-3.45164e-06
1.00075e-06
-2.64658e-07
0.00735895
-2.35226e-06
-9.3035e-08
5.18263e-07
2.69192e-09
-2.0376e-07
0.000461506
-1.08128e-06
8.24314e-08
3.95898e-07
-9.18033e-06
-3.36415e-06
1.81713e-07
8.66256e-07
2.77628e-06
8.41442e-08
0.00012257
6.35407e-07
0.0027142
7.75846e-07
-0.00229619
0.00676156
3.47301e-07
7.14589e-07
0.00101688
1.76898e-07
1.41374e-06
0.00191866
5.13168e-07
1.03431e-07
1.69892e-07
5.63327e-08
0.00344652
0.00610414
1.71284e-07
0.00735291
-3.29386e-06
-4.05819e-08
-5.497e-07
2.54894e-07
1.79268e-06
0.00156106
1.29573e-05
0.00177296
5.70178e-07
0.00226916
5.97269e-07
-5.10252e-08
-2.89802e-07
2.00434e-07
2.58657e-07
1.80725e-07
0.00260894
-1.16807e-06
7.06238e-07
2.88601e-06
-1.15735e-05
1.6306e-07
0.00285084
0.0060637
-1.71121e-07
3.65735e-07
-2.98731e-07
4.96194e-07
-3.33238e-07
1.22885e-07
0.00109058
3.12808e-07
4.30007e-07
8.52828e-07
8.46701e-07
1.73946e-06
1.41824e-06
-2.13948e-07
2.64553e-07
5.06585e-07
4.36384e-07
1.66424e-07
0.00449259
-2.37691e-07
8.46301e-07
0.000858706
3.19409e-07
4.47451e-07
1.19964e-06
1.0672e-07
-4.01457e-07
1.24733e-06
4.02516e-07
0.00123999
0.0013504
0.00214356
1.38425e-07
0.00134653
1.58273e-07
0.00591201
8.36247e-08
1.50975e-06
0.00225629
1.30987e-07
-7.93365e-06
0.000775047
9.31388e-07
2.50922e-07
-1.81558e-06
6.91274e-07
0.00468684
1.22512e-07
2.04988e-07
1.7641e-07
1.7831e-07
-0.000110685
2.76109e-07
4.39223e-07
4.06662e-09
9.09888e-08
0.000989313
4.63228e-07
6.27326e-07
-1.5847e-07
6.97165e-06
0.00307798
0.00303536
3.62671e-07
5.0348e-07
0.00174227
2.78292e-07
1.54277e-09
1.55448e-07
0.00745477
9.38476e-08
3.56703e-07
7.1334e-07
0.00541679
6.16051e-08
1.49884e-07
-1.04264e-07
9.57349e-06
0.000303159
7.21013e-07
7.25048e-08
6.62752e-07
1.2048e-07
0.00029466
-6.32966e-07
0.00596268
-5.70894e-08
3.29888e-07
6.01616e-07
1.5797e-06
0.00109198
2.56647e-07
-6.76967e-07
5.70501e-07
1.58922e-06
2.89503e-06
2.11384e-07
4.04954e-07
8.65324e-08
0.00215109
1.5752e-07
1.96754e-07
0.00629334
5.13182e-07
-7.09377e-07
3.45049e-07
3.56269e-07
1.22454e-07
0.00272657
2.36123e-07
5.63074e-05
-0.000683806
1.31616e-07
-1.62934e-05
3.27861e-07
5.70882e-07
7.53213e-07
2.38578e-07
8.92745e-07
1.1979e-07
1.20689e-07
0.00160159
-2.77408e-07
-9.84509e-06
0.00268955
2.0939e-07
6.25332e-05
8.36301e-07
0.0059873
1.89692e-07
-0.00151146
0.00579589
0.0078361
8.29186e-08
3.42509e-07
2.82719e-07
5.96056e-06
0.0045159
1.62589e-05
3.4206e-08
3.11083e-07
0.000861677
1.99302e-07
3.3571e-07
5.64095e-07
-4.00472e-07
0.00110358
-5.08737e-08
0.00447131
8.11158e-07
6.49772e-08
0.00359949
-2.52389e-07
-3.08901e-05
0.000758391
8.5081e-07
7.77254e-07
2.17775e-07
8.63089e-07
4.36626e-07
3.64329e-06
9.24808e-07
3.92231e-08
3.23305e-07
1.16886e-05
0.00136788
1.15229e-07
9.60748e-07
0.00169938
-3.3981e-05
2.32838e-09
2.18608e-07
-0.000434719
0.00783252
6.51894e-06
3.76349e-07
0.000269073
-3.3047e-08
1.70458e-07
0.000357897
6.33073e-07
3.92685e-07
3.21883e-06
3.48605e-07
-2.92102e-06
2.28017e-07
1.22715e-07
3.38304e-07
-1.03564e-07
0.00648936
6.62369e-07
3.38543e-08
2.43444e-08
2.2498e-07
7.20001e-07
2.04347e-07
3.15777e-07
7.38814e-08
4.65979e-07
4.19954e-07
-0.000181046
-0.000256662
0.00509043
0.00497533
7.83555e-07
-0.0050496
7.01095e-07
0.00426523
0.00192372
0.00628663
2.1692e-07
1.11882e-06
1.93248e-07
3.5699e-07
1.44907e-07
-3.93217e-07
2.92239e-05
-1.97611e-07
1.03116e-06
1.52793e-07
7.2069e-08
-8.74961e-08
2.2437e-07
4.07722e-07
3.34487e-07
0.000119448
6.10935e-07
0.000554374
1.54397e-07
-0.000565595
4.12361e-07
3.40073e-07
4.56158e-07
7.28266e-08
2.16976e-07
3.39858e-07
0.00166516
9.02599e-07
0.000251775
0.00139959
3.19824e-07
5.08225e-07
-0.000590755
7.60545e-07
1.30789e-06
1.03239e-07
1.14555e-07
0.00254983
1.04185e-07
6.07224e-06
-1.75928e-06
3.31018e-07
2.07149e-06
-5.7917e-06
-1.75452e-07
0.00329484
-3.99761e-07
-1.184e-07
0.000705084
0.00749761
2.78059e-07
1.62436e-07
-7.2643e-05
4.02086e-08
7.5469e-06
3.00598e-07
-6.35053e-07
6.64119e-07
1.96805e-07
3.33159e-07
0.00198942
0.00127657
3.44355e-07
6.38894e-08
1.22904e-06
3.71216e-07
9.08975e-07
1.68298e-07
5.66678e-07
-4.41362e-07
4.04355e-07
3.82903e-07
1.4227e-07
2.14244e-06
2.26216e-06
-0.000154983
-4.07604e-06
6.0782e-07
0.0078328
-2.98083e-07
-7.02719e-07
0.00696137
1.74423e-07
0.0029078
3.48867e-07
4.49911e-05
0.00266231
0.00272392
0.00705103
-3.43875e-07
6.02761e-07
0.000520864
3.38223e-07
0.000978957
3.15846e-07
2.14463e-07
2.72492e-07
2.71626e-07
3.55134e-07
0.00684167
0.00769509
0.0017864
4.2604e-07
8.94789e-07
4.40855e-07
3.23407e-07
1.79074e-07
1.03622e-06
-3.33882e-07
0.0029327
7.04388e-07
8.39958e-07
1.52462e-07
4.42045e-07
0.000473351
6.69678e-07
4.64639e-07
5.1608e-07
6.40426e-07
1.82049e-07
1.41813e-06
6.28492e-07
0.00345805
6.09752e-07
2.2704e-07
1.77202e-07
3.1405e-07
-6.62491e-06
-1.05801e-05
9.32881e-07
9.31617e-08
0.00435775
4.32672e-07
3.60262e-07
3.55416e-07
0.00212484
-0.000595712
9.12535e-07
4.46208e-08
0.00317471
4.09571e-07
8.4685e-08
1.01991e-06
2.74845e-06
0.00174647
3.37701e-07
0.000427385
0.00685686
6.51979e-07
6.01539e-07
6.31131e-07
0.00225383
6.23502e-07
0.00471264
4.27898e-07
4.25678e-06
-4.83828e-06
0.00513498
3.56183e-07
8.34563e-08
0.00212698
6.00272e-08
4.1439e-07
0.00126986
0.00730619
2.18968e-06
-1.15216e-05
2.56471e-07
3.15322e-07
0.00650881
3.57948e-07
4.29006e-08
1.6179e-07
4.61751e-07
1.72616e-07
1.2986e-06
5.338e-07
-0.000793338
0.00773485
2.63068e-07
0.000863053
5.0648e-07
0.00162682
0.000402331
1.74775e-07
2.2076e-07
2.6611e-07
-1.56628e-06
-0.000102709
3.62919e-07
0.00192329
0.00367007
-3.85092e-06
-2.41446e-07
0.00741849
0.00154254
2.11963e-06
0.00504477
3.48686e-07
3.56511e-07
1.5733e-07
4.95325e-07
1.108e-09
1.90439e-07
0.00112669
9.45281e-07
-0.000620251
0.000923261
0.00702783
0.00255053
0.00329554
7.8596e-07
0.00389959
3.14674e-07
-2.52771e-07
7.64285e-08
3.46141e-07
-1.37975e-07
0.000371169
3.86661e-07
0.00575817
0.00282841
2.57845e-07
1.95176e-07
-1.69878e-08
1.70779e-06
4.30465e-07
3.33117e-07
0.00287293
9.80741e-08
1.22603e-08
2.29819e-07
3.32657e-07
-4.34452e-07
0.0014767
1.06984e-06
0.00775566
8.82942e-07
1.3601e-07
-0.000328075
2.2201e-06
-1.71588e-06
0.00463049
0.00690002
0.00305802
-5.47883e-05
0.000702116
3.49424e-07
0.00780997
0.00135252
8.68699e-07
0.0079086
2.0582e-07
5.53103e-07
5.10321e-07
3.87016e-07
0.00735165
4.0428e-07
2.21611e-07
5.17375e-07
0.000617993
0.00105711
-1.69582e-07
4.80672e-05
0.00149678
0.00358369
1.92366e-07
7.16462e-07
6.29046e-07
5.40209e-08
5.90348e-08
0.00164891
1.68309e-07
0.00222824
-0.00048978
0.00699825
2.00347e-07
1.08752e-06
1.37412e-06
3.46442e-07
2.06799e-07
0.00163812
6.65854e-05
3.27436e-07
1.40784e-06
3.23846e-06
-5.26666e-05
0.00341004
0.00023047
5.35939e-07
0.000133917
6.04976e-05
5.85155e-07
5.7999e-09
4.9565e-06
-1.60857e-07
4.23028e-07
0.00111736
8.57824e-07
5.6206e-07
3.12096e-07
4.88108e-07
2.70422e-07
-2.39658e-07
2.55284e-07
2.81306e-07
0.0031001
3.03627e-07
-5.06721e-05
-9.36497e-05
7.21245e-07
1.85142e-08
0.00486969
0.00555214
0.00322025
4.81889e-06
3.24421e-07
5.84962e-07
5.32935e-07
5.21615e-06
0.000623841
2.50543e-07
-2.5183e-05
0.000561275
6.29302e-07
-6.2072e-07
6.48605e-08
-2.74127e-09
-2.63191e-07
3.03649e-07
-4.04841e-07
6.67265e-07
3.2251e-06
-6.78406e-06
7.0656e-08
1.64109e-07
3.87241e-07
2.24976e-08
3.44e-07
-3.91833e-07
2.00332e-07
-5.70951e-05
0.00329957
3.19758e-06
0.00260078
2.09336e-07
3.98788e-08
5.17833e-06
0.00670581
2.70647e-07
6.36298e-07
-1.06828e-07
0.000348749
0.000343896
3.03803e-07
1.27314e-06
4.02183e-07
-0.000200511
0.00125516
-6.59722e-09
1.5178e-05
0.00116087
-4.30667e-07
0.00432237
5.01852e-07
-0.000886887
0.00332233
2.36665e-08
0.0041847
0.000684145
4.42077e-07
7.56404e-07
1.00842e-06
7.40257e-07
2.35013e-07
3.65112e-07
0.00223697
-4.2608e-07
-4.50213e-07
0.00346704
0.00712444
8.36589e-07
3.17944e-07
0.000105059
1.52064e-07
0.00247632
6.74084e-05
1.91536e-07
4.88606e-08
2.69452e-07
2.45994e-07
0.00552007
-1.86957e-05
0.00538543
-3.10482e-07
0.00159955
0.0018517
2.20273e-07
5.32104e-08
0.000950236
1.66457e-07
0.00456776
-8.13484e-07
0.00392708
3.01182e-07
4.8299e-07
-2.00808e-05
1.4071e-07
-1.725e-07
-0.00533423
4.63547e-07
6.29336e-07
3.0681e-07
-0.000106643
0.00100576
1.53069e-06
0.00189426
1.78342e-07
1.45183e-07
3.04622e-07
8.73545e-07
0.00316998
0.00132451
1.10128e-06
-2.03231e-05
-1.40769e-06
0.00633616
2.70332e-06
6.01461e-08
1.05875e-07
7.64345e-08
-7.64687e-05
3.95069e-06
-0.00288627
8.7602e-07
3.26087e-06
3.28417e-07
0.00134649
-4.93936e-06
-0.000247671
6.21107e-08
3.32802e-07
1.18506e-07
0.00145277
0.000254219
-0.00510037
-4.03677e-05
-1.34832e-06
0.000820675
1.25954e-07
2.20401e-07
1.28242e-06
-5.34375e-05
0.006115
5.50889e-08
6.83163e-07
4.39605e-07
1.81557e-07
1.92564e-06
0.00519706
-4.33377e-05
4.07902e-07
1.06987e-06
5.0879e-06
0.00222418
0.000527911
0.00608411
0.00676566
3.24664e-07
4.32146e-07
3.17529e-07
1.10461e-06
2.18413e-07
1.1711e-06
5.77922e-07
3.36457e-07
-0.00116424
-0.00547509
1.77448e-07
3.55881e-07
0.000790346
2.37957e-07
6.17178e-07
0.00132366
-4.31422e-07
7.17641e-09
2.7963e-07
0.00717769
4.71396e-07
1.23699e-06
0.00171777
-0.0014926
0.000950475
2.66653e-07
0.00669088
0.00176414
0.00103049
9.53648e-07
4.06194e-07
-2.75781e-07
-1.91823e-07
0.00657036
2.98717e-06
2.65118e-07
0.00608163
1.22641e-08
-4.72201e-05
7.37706e-07
0.00177861
-2.13211e-06
0.00781275
5.41503e-08
2.70395e-05
5.31653e-07
0.00137894
8.60031e-07
0.00539608
0.000485849
5.3014e-08
9.98115e-08
0.00102557
0.00452976
-2.91699e-06
2.67427e-07
8.6164e-07
9.1782e-07
0.00707378
4.61308e-06
0.000574941
5.85251e-07
0.000387983
1.06918e-06
0.00250917
2.60428e-07
-8.12122e-06
0.00196881
1.66885e-07
-2.00671e-07
1.71028e-07
3.35508e-07
1.91549e-07
-0.000146528
2.88079e-07
1.55867e-07
0.00373014
0.00793409
6.97725e-08
0.0038147
3.2185e-07
3.4918e-07
1.49848e-07
2.44881e-07
1.9789e-07
0.00524609
0.00283657
1.23657e-08
3.14661e-07
-1.80947e-07
-1.76393e-08
0.00251781
-3.88411e-07
5.49747e-07
3.41656e-07
-6.21625e-09
-0.000301325
1.24362e-06
0.0034906
6.09918e-07
0.00775956
0.00365367
4.84969e-07
0.00739778
0.000200582
9.4119e-08
0.000612105
4.7459e-07
3.73791e-08
1.85741e-06
3.6206e-07
-2.0877e-06
-4.08897e-05
1.87811e-07
1.54192e-06
1.14877e-08
0.00676223
4.33657e-06
0.00324361
-6.91665e-05
-2.51969e-05
0.00403422
2.81384e-07
2.20222e-07
-1.45213e-07
4.32299e-07
2.14885e-07
2.13671e-07
6.75604e-07