/*--------------------------------*- C++ -*----------------------------------*\
| =========                 |                                                 |
| \\      /  F ield         | OpenFOAM: The Open Source CFD Toolbox           |
|  \\    /   O peration     | Version:  v2012                                 |
|   \\  /    A nd           | Website:  www.openfoam.com                      |
|    \\/     M anipulation  |                                                 |
\*---------------------------------------------------------------------------*/
FoamFile
{
    version     2.0;
    format      ascii;
    class       surfaceScalarField;
    location    "350";
    object      meshPhiCN_0;
}
// * * * * * * * * * * * * * * * * * * * * * * * * * * * * * * * * * * * * * //

dimensions      [0 3 -1 0 0 0 0];
oriented        oriented;


internalField   nonuniform List<scalar> 
20642
(
-0.000564245
-0.000152394
0.000716794
0.00163234
-0.00282401
0.00118172
0.000439414
0.000436517
-0.000879317
0.000419562
-0.00147767
0.00103477
0.00215054
-0.00310654
0.00093794
0.00286698
-0.0012473
-0.000495763
0.00144391
-0.000966948
0.00353281
-0.0019999
-0.00154053
0.00065136
0.000195674
-0.000845722
0.000674898
4.90596e-05
0.00154153
0.00198198
0.00190894
-0.00182982
-0.000110741
-6.44462e-05
-2.33033e-05
0.0021369
-0.0031809
0.00104005
0.00224953
-0.00304622
0.00077877
-7.02344e-08
-0.000564352
-4.81781e-05
-4.13652e-05
5.76635e-05
-0.00345787
0.00152899
0.00191932
0.00129502
-0.000831708
-0.000469606
-0.000750835
0.000362588
0.000388295
0.00238919
-0.00149239
-0.000909001
0.000421133
0.0017207
-0.00217448
0.00048281
0.000676273
-0.00116741
-0.00194025
0.00232511
0.00214385
-0.000997141
-0.00116671
-0.00256448
0.00106999
0.00148313
-0.00236006
0.00133337
0.00102425
0.000613901
-0.00306807
0.0011565
0.00190047
-3.8265e-06
-5.18214e-05
5.3794e-05
0.000596556
1.79894e-05
0.00128811
-0.000368673
-0.000929524
-0.00196607
0.0011453
0.000796194
-0.000681904
0.000289488
0.000391679
-0.00013548
0.00177108
-0.0016672
0.000285002
-0.002291
0.00190662
0.000345769
-0.00227456
5.85113e-05
-0.000217448
5.0674e-05
-0.00132823
0.000817431
0.00142976
-0.00231687
0.000874493
5.62481e-08
1.5024e-05
-3.51697e-05
0.00102592
-0.00152089
0.000477357
-0.00104694
-7.26485e-05
0.00112105
0.000398097
0.000502657
-0.000904501
0.00106684
-0.000676772
-0.000472031
0.00122802
-0.000757804
0.00203791
0.00033493
-0.000992871
0.0006508
0.000343736
-0.0013518
-0.00135091
0.00269912
0.00128896
-0.00144981
1.54938e-05
0.00186428
0.000564885
-0.00149027
0.000920298
-0.000394525
0.000557173
-0.000162826
-0.00195401
0.00241744
-0.000499601
-0.00255897
0.00180768
0.00071528
0.00127701
-0.000715981
0.000529358
-0.000761986
0.00123453
0.00155504
-0.000547213
-0.00142351
0.000949219
0.00160673
-0.00087607
-0.000729363
-0.000808106
-0.00130148
0.00209463
7.00757e-06
3.53394e-07
-1.07041e-05
0.000911528
0.00121031
0.000716485
9.38282e-06
-0.000728183
-0.000100548
6.55572e-05
3.41982e-05
0.00130158
-0.00301489
0.00170337
0.00213815
-0.00185895
-0.00192512
0.000626472
-0.00042516
-0.000201523
0.00029537
0.000517515
-0.000815974
-0.00053964
-0.000142849
0.00141182
-0.000960238
-0.000480359
0.00117233
0.000361144
-0.00245797
0.000953205
0.00277
-0.00131284
-0.00147984
0.00190375
-0.00288385
0.000961599
0.00156423
-0.000413784
0.00119227
0.00155168
-0.00135779
-0.000627569
-0.00175476
-0.000964821
0.00268632
-6.85188e-05
-6.55059e-05
8.50515e-05
0.000455193
0.000925721
-0.00092505
0.000475606
0.000446575
0.00102227
-0.000861961
-0.000250741
0.00319392
-0.00135411
-0.00184612
0.000803432
0.000485488
-0.000255971
-0.000262327
0.000407171
0.00218869
-0.000772302
3.36882e-05
-0.00010907
3.36187e-05
0.00011928
-0.000181915
-0.000963271
0.00179812
-0.0031549
0.000174349
-0.00174801
0.00154295
0.000569228
0.00183805
-0.00243765
-0.00177656
-0.00305611
0.0016456
0.00140604
-9.36602e-05
-7.53038e-05
0.000106269
-0.000548653
0.000205935
-0.00152193
0.00253159
-0.00101564
-1.81078e-05
-1.35735e-05
2.08139e-05
5.87679e-06
-3.19047e-05
-0.00256718
0.000784454
-0.000236031
-3.86743e-05
0.000212911
0.00303452
-0.00115499
0.000618875
-3.7018e-05
-0.000583229
0.000568092
0.0001938
-0.000761078
0.00161024
-0.00243555
-0.000447584
-0.0010904
-0.00111198
-0.00125025
-1.17396e-06
-0.000206397
0.00074731
-0.000458887
0.00290243
-0.00175583
-0.000134614
0.000848185
-0.000322957
-0.0013799
0.00168469
0.000635384
0.00065322
9.6982e-05
-0.000117498
-3.7618e-06
-0.000683566
-0.000341001
0.0010199
0.000171464
-0.000717135
0.000528687
-0.000180732
6.58755e-05
-0.00154026
0.000547852
0.000968672
-0.00120683
-0.00181742
-0.000658652
-0.000600299
0.00125279
-0.000303621
0.000575722
-0.000272262
-0.000457768
-0.000469223
-0.00188909
0.000785085
0.00108426
-0.000871228
-0.00159852
-0.00175859
-0.000416847
0.00213667
0.000543079
-0.00120706
0.00127299
-0.00050843
-0.000778387
-0.000665148
0.00153488
-0.00087193
0.000630346
-0.000333858
-0.000296951
-0.00186353
0.00152017
0.00117846
-0.000435639
-0.000751238
-0.00246385
0.00134917
-0.00156761
0.000836781
0.000731176
-0.000329104
-0.000135973
0.000464912
-0.00293646
0.00119111
0.00173295
-5.54657e-05
-0.00262016
0.00276225
-0.000145091
0.000532497
0.00100965
-0.000106603
0.000723159
-0.000386907
0.00182081
-0.00147641
0.00124001
-0.000893547
-0.000369593
-0.00130208
-0.000255367
0.0015431
0.000799025
-0.000506569
0.00298639
0.000138348
0.000490439
-0.000627124
0.000556589
-0.00255075
-0.00152167
0.00223668
-0.000727908
1.98667e-05
5.56358e-06
-3.5902e-05
0.000804172
0.000410211
-0.001189
-0.0018706
0.00257567
-0.00209189
-0.000509563
4.64107e-05
-0.000339422
0.000321181
0.000210654
-0.000532504
-2.41508e-05
-2.80216e-05
3.10779e-05
8.63673e-06
6.79872e-05
0.00198676
-0.0014986
-0.000559815
0.000275938
0.000606787
-0.000883159
-0.0031428
0.00119629
0.00192541
0.000136672
-0.000585831
-0.000553929
0.00114072
-0.00254516
0.00132931
0.00121152
8.12898e-05
-0.000565882
0.00121528
-0.000648099
1.51403e-05
-1.51687e-05
-4.12846e-07
-0.0011202
-0.00182789
0.00357784
-0.00212724
-0.00148546
0.000126849
0.000481971
-0.00060972
0.00104715
0.00168912
-0.00107965
-0.000608911
-0.000506168
0.00137701
-0.000876684
2.21998e-05
-5.69779e-05
2.05443e-05
-0.000968348
0.00136639
0.000772642
-0.00148768
0.000710881
0.000570246
0.000715671
-0.00170975
-0.00145145
-0.00107468
0.0013699
-0.000320262
0.00159936
0.00160416
-0.00161292
-0.000384323
0.00100915
-0.000627242
0.000236035
-0.000923109
0.000992468
-0.00166071
0.00183901
-0.000263531
-0.00127171
0.000883976
-7.90577e-05
7.33425e-05
0.00168895
0.00149791
0.00110111
-0.00161488
0.000492246
0.000569912
-0.00137396
0.000722645
0.000647094
-0.000390934
0.000714602
-0.000324556
-0.0012367
0.00138767
-0.00032636
0.000584995
-0.000258814
0.000652256
-0.00181497
0.00114623
0.000313188
0.00031627
-0.000400168
0.00214066
0.00211803
0.000429045
-0.00110066
-0.0012232
0.00230891
-0.000550407
-0.000109192
0.000659117
5.26371e-05
-0.00038192
0.00264985
-0.00190891
-0.000763168
-0.00155755
0.00199071
-0.000434352
-0.00186549
-0.000705321
0.00255793
0.000654792
-0.00102939
-0.000721758
0.00185572
-0.00285333
-0.00148312
0.00179197
-0.000355879
-0.00331744
0.00146443
0.00184002
-0.00221107
-0.00111739
0.000790504
0.000817685
0.000354047
-0.00138344
-0.000310305
-0.000517898
0.000826541
-0.00010906
0.0002864
-0.00029255
-3.18231e-05
-0.000575476
0.00058521
-0.000568144
0.000515245
0.000609234
-0.00147486
0.000844827
0.000625604
0.000636649
-0.00136905
0.000729751
0.000616037
-0.000720667
5.1773e-05
-1.22992e-06
5.64275e-06
-0.00129432
-0.0011713
0.000230547
0.000803296
-0.000519377
-0.000306486
0.000463651
0.000315054
-2.41977e-05
8.96354e-06
-1.74145e-05
-0.000571512
-0.000592783
0.000553944
-0.000371184
-0.000168923
-0.000380813
-0.000516508
0.000898617
-0.00274578
0.00160464
0.00111247
2.07123e-05
-3.18021e-05
9.04156e-06
-0.00101915
-0.000688109
0.00169922
0.00033969
-0.000627493
0.000287527
-9.02993e-05
3.00993e-05
3.65143e-05
-9.068e-05
0.000647743
0.000770923
-0.00233051
-0.000454081
-0.000171793
0.000624268
-0.000468964
0.000465356
-0.000776968
0.000763542
0.000864532
-0.00163325
0.00122436
-0.00164818
0.000588543
0.000627877
0.00033569
-0.00136186
0.00112447
0.00176816
0.00137136
-0.00104775
-0.000332433
0.00182142
0.00080493
0.000410708
0.000222993
0.00046153
-0.000703438
0.00197231
-0.00152325
-0.0004573
-0.00178823
0.00117663
0.000602577
-0.0030979
0.00127687
0.00178898
-2.24408e-06
-0.000997079
-0.00250452
0.00314235
-0.000658308
0.00136334
0.000448086
-0.00183511
0.000567767
-0.000278205
-0.000289551
-0.00263986
0.000563954
0.00207328
-0.00166691
0.000523792
0.00111791
-9.60439e-05
0.00053397
0.000553851
-0.00267183
-0.000561906
0.000440838
-0.000514246
-0.000186908
3.17143e-05
0.00160786
-0.00102961
-0.000589836
-0.00068092
-0.00100822
-0.000451749
0.000239826
-0.000332557
0.00090119
-0.0025146
0.000965022
0.0015022
0.00221566
-0.00314001
0.00090303
0.000694333
0.000822547
-0.00151865
6.20731e-05
-0.000506203
0.00042801
0.000784293
-0.00197185
0.00118257
0.000280662
0.000286876
0.000490701
-0.000444106
0.000266095
0.00036023
-0.000467318
0.00180705
0.000975934
-0.00070059
-1.92253e-05
2.61308e-05
-0.00202278
-0.000786969
0.00279147
-0.00191541
-0.00120609
-0.00187154
-0.000476126
0.00229781
-0.000899134
0.00108673
-0.0001925
-0.000155277
-0.00010647
0.000168236
-0.00133896
-0.0012101
0.000710486
-0.00182896
0.0011051
-9.04547e-06
-0.00130567
-0.00104849
-0.00100972
0.00205558
-0.000242751
-6.09293e-05
-5.03081e-05
0.000816161
-0.00158824
0.000762175
-0.00279276
-0.000203754
0.00297413
0.000506745
-0.00199292
0.00146703
-0.000726152
0.00285754
0.00235513
-0.00118428
0.000439701
-0.00181533
0.00134804
-0.00038053
0.000130774
0.000821185
-0.00163394
0.00080818
0.000596078
-0.00245272
0.00184452
0.00113308
0.00082862
0.000749123
0.00158477
-0.000453326
0.000560447
-0.000161723
-0.000229325
0.000550179
-9.09605e-05
-0.00045979
-0.00161874
-0.000440916
0.00202141
0.000155505
-0.000545528
0.000383667
-0.00137471
-0.0023207
-0.000536085
0.00284982
0.000656475
-0.000806283
0.000147462
0.00084659
-3.71472e-05
-0.000810081
0.000494807
0.00119463
4.67544e-05
2.30033e-05
-7.0836e-05
0.000284632
0.00124667
0.00295388
-0.000758754
0.000884875
-0.00041234
-0.00273624
0.000408294
-0.00040565
0.000841983
-0.000124609
3.42052e-05
0.00273188
-0.000499961
0.00210255
-0.000408143
0.00236677
-0.00198637
-0.000317369
-0.00251644
0.00104369
-0.000556687
-7.61985e-05
-1.95074e-05
6.37844e-05
0.000519708
-0.000393587
0.000703277
-0.000636238
-0.000166128
0.00028118
-0.000867269
0.000127234
0.000453408
-0.000591928
-0.000601225
-0.00014952
-0.000889794
-0.00016454
0.000995945
-0.00186238
0.000785766
0.00106688
-0.00271369
0.000836039
-4.53664e-06
5.02237e-05
-0.00012209
1.17581e-05
-0.000722469
-0.000455998
0.00117115
-0.000483746
0.000746918
-0.000264112
0.000552063
-0.00215279
0.00157009
-0.00235445
0.00191885
0.000406706
0.000339497
-0.000552976
-0.000127119
0.000680014
-0.000298973
0.00100308
-0.000704155
0.00280134
-0.000668464
-5.61134e-05
0.000527282
-0.00268447
0.00160168
0.00105352
-0.000373279
-0.000210277
0.000582371
0.00136271
-0.00108123
-0.000598627
0.000521518
-0.00354387
0.0019895
-0.00144973
-0.000567601
0.00262546
-0.0016111
-0.00102338
-0.000738591
-0.00139803
0.000738886
0.000653919
-0.00195231
0.00105569
0.00089065
0.0019272
-0.00114925
0.000839382
-8.77871e-05
-0.000757405
0.000339806
-0.000736313
0.000395432
-0.00213802
0.0003412
-0.00165444
0.00217543
-0.00184127
-0.00127631
0.000272114
0.000659877
-0.00093605
-4.50871e-05
4.44261e-05
-2.56556e-05
-0.000543281
-0.000122144
0.000953207
-0.000215947
0.000842867
-0.00124107
-0.00134969
0.000868372
-0.00185418
0.000981174
-0.000406703
0.000555925
0.000959383
0.00193464
-0.00289911
-0.000467628
-0.000863743
0.00131637
-0.000637519
-0.000730483
-0.00178696
-0.000938963
-0.00124528
-0.00131186
0.000459833
0.000469461
-0.000932178
-0.000472231
-0.000138827
0.000600636
0.000637745
-0.00122277
-0.000533179
-0.00128837
0.000805864
0.00275309
0.000170989
-0.00220985
0.0020153
-0.000710193
0.000516133
0.000191476
-0.00140909
0.000498118
0.000877371
-0.0002918
0.000654343
-0.000665397
-4.81075e-05
0.00283186
-0.00171047
-0.00114092
-0.00240091
0.00110453
-0.00118033
-0.000975488
0.00214989
-0.00277723
0.000969653
0.00178138
0.000798299
-0.0013829
0.000584939
-0.000752528
0.00033372
0.00146422
-0.00242798
0.000941639
-0.00119949
0.000295762
-0.00168103
0.00259217
-0.000942807
0.00115041
-0.00233695
0.0009677
-0.000534638
7.46768e-05
-0.000450002
0.0011738
-0.000731442
0.00200587
-0.00127485
0.00217295
-0.00160623
-0.000622507
0.00153949
-0.000943142
-0.0006647
-0.00205529
-2.81057e-05
0.0020435
0.0025658
-0.00124088
0.000584568
-0.00184886
0.0012403
0.000460452
0.00170037
-0.00219601
0.00196129
0.000620225
-0.0026205
-0.00101361
0.00174318
-0.000740177
6.60914e-05
-0.00248858
0.00241599
6.85642e-05
-0.000512312
0.000429268
1.54713e-06
1.1599e-05
-0.000336486
0.000991678
0.00189816
-0.00103527
3.09411e-05
-0.00194553
0.00104564
0.00176045
0.000670313
0.000634017
-0.0013045
-0.00157716
-0.00101242
0.00258705
-7.66402e-05
-2.49165e-05
-0.00105507
0.00021771
0.000449417
0.000432767
0.00109513
-0.000236667
-0.000875194
-0.000502213
-1.66286e-05
0.000502873
0.00247666
-0.00175314
-0.000737428
0.000841463
0.000625899
-0.000447995
-0.00149477
-0.000449464
0.000419316
0.000264102
0.000814034
0.000565446
0.000556834
-0.00112128
-0.00252477
0.00081382
0.00212637
-0.00111992
-0.00101673
0.000459603
-0.000219812
0.00137165
-0.000565253
0.000241205
-0.00177048
-0.0004479
0.00122601
0.00120692
-0.000408436
0.00162424
-0.00274168
0.000161706
-0.00046521
9.12441e-05
-0.000558004
0.000453656
0.000292845
-0.000998714
0.000667637
0.000145933
-0.000626359
5.94103e-05
-0.00067278
-0.000485268
0.00236902
0.000409623
-0.0023726
0.0019396
0.00144078
-0.000770715
-0.0011241
-0.000266669
0.00137831
-0.000562426
0.00103115
-0.000780612
0.00144356
-0.000499271
-0.00095851
-0.00108712
-0.000195166
0.00127071
0.00249387
-0.000665913
-0.000820795
0.00157913
0.000838635
-0.00113766
0.00151619
0.000446479
0.000941331
0.0013724
-0.00231564
0.00172748
-0.00172104
-5.30828e-05
-1.36035e-06
-0.000479664
0.000391698
-0.000550627
0.00247707
-0.00206328
0.0022105
0.00131351
0.000321337
-0.00168501
0.000261443
6.85817e-05
-0.000440629
-0.00056345
0.000527239
-0.000248337
0.00151329
0.000875484
-0.00192684
0.000944173
-0.000496472
-0.000450735
0.000148861
-0.000235075
2.74844e-05
0.000856654
-0.00142651
0.000559857
-0.000321944
0.000704032
-0.00113533
0.00108197
5.40075e-05
0.000577319
0.000400216
-0.00100395
-0.00059132
0.00078049
-0.000643755
-0.000140122
0.000194417
0.000583439
-0.00182154
8.76821e-05
-0.00134916
0.000250747
-0.000980539
-0.00138732
0.000804031
0.000581674
-0.000125791
0.000132517
0.00169818
0.000683802
-0.00160963
-0.000822039
-0.000388999
0.00115921
0.00211132
-0.00060645
-0.00151616
0.00108582
-0.0008043
-0.000284387
-0.000717835
0.00120302
-0.000492738
-0.00179242
0.00115746
0.000620287
-0.000933096
-0.00222627
0.00308792
-0.00156652
-0.00229239
0.00116153
0.00112202
0.00167877
-0.00111818
-0.0013113
-0.00187156
0.00159738
-0.000402019
-0.00120667
0.00177004
-0.00107305
-0.00122434
0.000581244
0.000643828
0.000299439
-0.00128623
-0.00101457
-0.000790657
-0.000700696
0.0011601
-0.00072369
-0.000507243
0.000311386
0.000152003
-0.000463752
-0.000398388
0.000322403
-0.000535187
0.000575748
-0.00148311
0.000460577
0.000528167
-0.000449207
0.000217745
-0.000441667
-0.000821245
0.00163704
-0.000514904
0.000295035
0.00139441
-0.00234471
0.000948825
0.0013052
0.000611566
-0.000503675
0.00113902
-0.000650857
-0.00160376
0.00106045
0.000529756
-0.00063001
-0.000708941
0.00133756
-0.000791331
-0.000813316
0.00160343
0.0021263
-0.000414728
-0.00173837
0.00232561
-0.00160735
0.00113073
0.000411678
-0.00190671
0.000937344
0.000960004
-0.000629431
-0.0017713
0.00239818
0.000455262
0.00161425
-0.00210466
-0.000108509
3.48275e-05
-0.000648048
0.0027371
0.00154943
0.000571923
-0.00193606
-0.000629082
0.0025484
0.000699352
0.000821752
-0.00153326
-3.23231e-05
-0.00116814
0.00044306
0.000600911
0.000486037
0.00193817
-0.00301961
0.00104231
0.00145853
0.00052906
-0.000763974
0.000235865
0.000527314
0.000330206
-0.00043422
6.8869e-05
-0.000730693
-0.000481834
0.00119646
0.00182631
-0.00140172
0.000687695
0.000743665
-0.00137796
0.000614562
0.000755983
-0.00166885
0.0022359
-0.000574643
-0.000417872
0.00103839
0.00198676
-0.00162122
-0.000388628
0.00187113
0.000619114
-0.000306622
-0.000506551
0.00107325
0.000225165
0.000234208
-0.00148876
-0.000457949
0.00190894
-0.00190907
-0.000585726
0.00245891
-0.000954158
-0.000848669
-0.000679477
0.00164025
-0.000997982
-0.000619859
0.000886071
-0.000269196
6.81528e-06
-0.000528676
-0.00207819
-0.000748075
0.00282176
0.00172833
-0.00109347
-0.000751501
0.000379857
0.000370249
0.000554391
-0.00114712
0.000726756
-0.0006501
-7.56228e-05
0.00128482
-0.00158295
5.14626e-05
0.00055336
-0.000606563
8.28036e-05
-0.000239578
-0.00186105
0.000568812
0.00127324
-0.000309412
-0.000442902
5.82916e-05
0.000455412
0.000831296
-0.000702484
-0.000130905
-6.79671e-06
-6.7457e-06
8.57484e-06
-3.10048e-05
0.000118558
-0.00249446
0.000775608
0.000305732
-0.00244625
0.000494349
0.000366816
0.00013709
-0.000527339
-0.00106254
0.000505749
0.000553097
-0.000751465
0.00159801
0.0015282
0.00120537
0.00107978
-0.000283787
0.000141052
0.000401145
-0.000542862
-0.00077313
-0.000361769
-3.12627e-05
0.000328632
6.33808e-06
0.00036194
-0.000368384
1.3679e-05
1.43452e-05
-3.40909e-05
-0.00050988
0.00134771
0.00114003
0.00184282
-0.000555237
-0.00132303
-0.000155357
0.000591556
-0.000442516
2.26688e-05
-2.47772e-05
0.00115293
0.000433413
0.000528596
0.000806184
-0.000468071
-0.000202355
7.64379e-05
2.87719e-05
-0.000173014
5.36073e-05
0.000488315
0.000587666
0.00129887
0.000223119
-0.00156878
-0.00118225
0.000570132
0.000613205
0.00229189
-0.000628648
-0.000143361
0.000485708
2.69508e-05
-7.08737e-05
0.00159465
-0.000369388
0.00111318
-0.000870907
-0.000243368
0.000497515
0.00023048
0.000613656
0.00074878
-0.000779256
0.00146659
0.00119614
-0.000891787
-0.000307274
0.000603885
-0.00026451
-0.000453317
-0.000986901
0.000837916
-0.00135947
0.000520468
6.11253e-05
-0.000117042
-0.000516286
0.000822403
-0.000310604
-0.00163308
0.000919013
0.000938742
-0.000482088
0.0020209
-0.000523061
-0.00278919
0.00214412
0.000200677
-0.00111162
0.00251993
-0.00116707
-0.000426673
0.00158221
0.000333989
0.000414621
-0.000750337
-7.00288e-05
0.00011466
-7.94389e-05
0.000872027
0.000723918
-0.00250108
0.00153668
0.000934547
-9.28231e-08
1.48803e-05
0.000697046
-0.000358488
0.00112566
0.00129636
-0.0024268
0.0021968
-0.00147991
-0.000740397
-0.00067694
-0.000726099
-0.00058709
-0.000528622
-0.00122668
0.00173777
1.64131e-05
-5.24341e-06
0.000315834
0.000379907
0.00201336
-0.000771654
-0.00272893
-0.000426932
0.000420476
0.00101928
0.00115537
-0.000560337
0.000828926
-2.75617e-05
2.30697e-05
-0.000620301
0.00123142
-0.00061637
-6.16725e-05
-7.81363e-05
8.97271e-05
0.000166854
0.000845262
-0.0010767
-0.00138508
-0.000379942
-0.000460019
-0.000255483
0.000407242
-0.000151739
0.00076061
6.80218e-05
-0.00220363
-0.000635901
0.00283256
0.00046975
-0.0012632
-0.000343606
0.0015778
-0.0011806
-0.00188
-0.000249493
-0.000515305
0.000698075
-0.000629299
-7.06641e-05
0.000808346
0.00165388
0.00189579
-0.00156789
-0.000969455
-0.00183532
-0.00016665
6.35757e-05
0.000130838
-0.00189313
0.00172703
-3.20756e-05
-3.9201e-05
-0.00143189
0.000753773
0.000670722
0.00138999
-0.00199852
0.000592498
-0.00065312
-0.000570182
-0.00155179
0.000371511
0.000527557
0.0021195
-0.00265289
0.000764501
-0.00155693
-0.00183524
0.00242
-0.0017549
0.000780568
0.000964156
0.00137674
-0.000658661
-0.000361509
-0.00133455
0.000947382
0.00135894
-0.00231932
-3.88875e-05
6.61294e-06
0.000978939
-0.000874322
-6.50749e-05
-0.000150092
2.66126e-05
-7.55607e-05
-0.000511518
-0.00110476
0.00026554
9.53896e-06
-0.00037997
0.000330568
-0.000324283
-0.0007368
0.00108552
-0.000356025
6.39986e-05
0.000269775
-0.000406456
0.000455867
0.000582112
-0.000159947
6.24191e-05
0.000215786
0.000630327
-0.00179088
0.00129997
-0.00206737
0.00161368
-0.000276798
-0.000238652
0.000586412
-0.00125132
0.000658264
0.000932303
0.000297848
-0.000905313
0.00121322
-0.00032739
0.000157989
-0.000566133
0.00040085
0.000467203
0.00150032
-0.00200205
0.000854805
-0.00107224
0.000206947
0.000838469
-0.00101691
0.000171
-0.0016922
-0.000506127
0.0021542
0.000509438
-0.000336419
-0.000173185
0.0019704
-0.000419989
-0.00156363
-0.00192266
-0.00060267
0.00252962
-0.000284548
0.00121464
0.00225476
-0.00131983
0.000447086
-0.000306532
-0.00117933
0.00066091
6.92734e-06
-0.000190833
0.000129501
-0.00150729
0.000555842
-0.000275563
-0.00100751
-0.000466899
-0.0013631
-0.000371923
0.000533752
0.00077342
-0.00283218
0.00205433
0.000223053
-0.00117274
-0.00205895
0.000402132
0.00192769
-0.00243569
-0.000610937
0.000312918
-0.00122338
0.000907194
-0.00146627
0.00121816
-0.00038028
0.000431599
-0.0011732
-0.000636545
0.000663489
0.00226731
-0.000609874
0.00134328
0.000194915
-0.000937989
-0.000594047
0.00240262
-0.000193904
-0.00117906
0.000137214
-0.000184232
-0.000530939
0.0013571
0.00218947
-0.000408537
0.000550796
-0.0021381
0.00156844
-0.00191141
0.00126001
0.000636629
-0.000416702
0.000542064
-0.000125538
7.67882e-05
-0.000117099
3.85627e-05
-0.00205247
0.00282146
1.41117e-05
0.0018616
-0.00290659
0.00200079
0.000892637
-0.00162513
0.00110386
0.000507443
0.000671562
2.46204e-05
6.84164e-05
-0.000180269
-0.000887227
0.000493955
0.000388754
0.000271576
0.000840298
5.80717e-05
-4.36156e-05
-1.53485e-05
0.00166856
-0.00102521
-0.000681033
-0.00145964
-4.52209e-05
0.000207132
0.00161836
-0.000964555
-0.000691299
0.000217935
-0.00110747
0.000864096
-0.000842963
0.00255791
-0.00172672
-0.00133186
0.00130903
0.00028277
-0.00123507
-0.00114718
-0.000324147
0.00142429
0.000718978
-0.000358001
-0.000362863
0.000805702
-0.000602185
2.33263e-05
-0.000891984
0.00069497
-0.000929507
-0.00178389
0.000630936
-0.000582229
0.0025189
-0.0008757
0.000404104
-0.000481856
4.66593e-05
-0.000665471
0.00124471
-0.000885764
-0.000770954
0.00165104
-0.000718394
0.000908408
0.000411631
0.0011046
-0.00154979
0.00131474
0.000427279
-0.00140687
0.00150831
-0.000534696
0.00191765
-0.00080014
0.000445578
0.00135739
-0.00182622
-0.000711981
0.000985341
0.000382922
-0.00211815
0.000401477
0.00141078
-0.00185375
0.00129656
-2.3466e-05
0.00117597
-0.00196209
-0.000534119
0.00248598
-0.00236953
0.000789702
0.00144936
0.00116615
-0.000316315
0.000804483
-0.00060472
-0.000414332
-0.00248647
-0.00107158
0.000529957
0.000538426
0.00128026
-0.00185283
0.000322764
-0.00218936
0.00185209
7.09704e-05
-8.71444e-05
-9.21645e-05
-0.000111373
0.000163949
0.000998154
0.000407532
-0.00142758
0.000637967
0.0015445
-0.00220059
-0.00220633
0.000530293
-0.00107938
0.00145833
-0.000150765
0.000543714
-0.000396191
-0.00205103
0.002566
-0.000544217
-0.00104034
0.00217754
-0.00171549
-0.000414114
0.000979205
-0.000441261
-1.93029e-05
-0.0010349
0.000691397
-0.000486191
-0.000612168
0.00109799
-0.00251694
0.000544819
-1.87148e-05
6.38138e-05
-0.000654166
0.000616651
-0.00118727
0.0018598
-0.000690416
0.000306943
-0.00115454
0.000653604
-0.00187729
0.00266938
-0.000800399
-0.00294329
0.00209881
0.000821549
-0.000489564
-0.00130454
0.00175903
0.000670047
0.000962242
0.000642424
-0.000136736
-0.000506478
-0.000835604
-0.000688716
0.00150988
-0.0026869
0.000476087
0.00140826
-0.00242335
0.000859512
0.000720469
-0.000957392
0.000235692
-2.56894e-06
2.20558e-05
-0.00157525
-0.000541173
0.00210128
0.000663403
-0.00240823
0.00173965
-1.48797e-05
-1.79274e-05
0.00114676
-0.000580969
0.00111696
-0.000553452
-0.00262515
0.000739143
-0.00057898
0.00120815
0.00291168
-0.00223521
-0.000683664
0.000837535
0.000109859
-0.000976158
0.000206777
-4.30796e-05
-0.000204256
-0.00103369
-0.000924175
-0.00153819
-0.00179643
-0.00053217
0.00229494
-0.00229632
0.00156589
0.00070816
-0.00184445
-0.00056556
0.0023742
-0.000841384
0.000130647
0.000684082
0.00274115
-0.00134514
-0.00140101
0.00173035
-0.00235246
-0.000505467
0.000601471
-9.64428e-05
0.000285914
0.000528765
0.00203947
-0.00257478
-0.000546316
-0.00127311
0.00221308
-0.000505663
-0.00287419
0.00233071
-0.00102169
-8.64579e-05
0.00104591
-0.000505077
-0.00115132
0.00163973
0.00189765
-0.000965944
-0.000967398
0.00189808
-0.00135997
-0.000560028
-0.000365265
-0.00137877
0.000408219
0.00128323
-0.00173379
0.00188698
-0.00182547
-0.00232946
-0.000876252
0.000447695
0.00042587
0.00121929
0.000673565
0.00093553
-0.000445794
-0.000495759
-0.00101543
0.00183015
-0.000820175
0.000475293
0.0013817
-0.0018918
-0.000798507
-0.00152928
0.000323017
-0.0015262
-0.000634244
0.00201659
-0.00140194
0.00166329
-0.000672033
-0.00100557
-0.00059165
0.000442467
0.00050291
-0.000287681
-0.000857232
-0.000581569
0.000126607
-0.00046425
0.000334568
-0.00197465
0.00149694
-0.000518697
0.000377369
0.000190369
0.00214526
0.000592794
-0.00267311
0.00121989
-0.00105413
-9.264e-05
0.00108573
0.00233335
0.00141121
0.000558157
0.000910585
-0.00030842
-0.000603838
0.0008918
-0.00287293
0.00196273
-0.00222656
0.00147723
0.00070499
-0.000335158
0.000714988
-0.00202727
-0.00128277
0.000165336
0.000898827
-0.00055076
0.00177874
-0.00274594
0.000945634
-0.00106135
0.000332288
0.00112715
-0.00150326
0.00131227
-0.000569324
0.000134358
0.000424149
-0.00205537
0.00261959
-0.000327305
-0.000410371
5.20763e-06
0.000162117
-0.00101746
-0.000479826
0.00105998
-0.000610291
0.000388524
-0.000155534
-0.000421624
0.000562875
0.00221613
-0.00278517
-0.000630194
-0.000444627
-0.000564852
-0.00097942
0.0015276
-0.00308576
0.00233754
0.000722551
-0.00246567
-0.000429681
0.000661276
-0.000380157
-0.000304042
-0.000438311
-0.000629961
0.000770523
0.000737115
-0.00153322
-0.000217791
0.000528746
0.00177963
-0.00258281
0.00095326
-0.00185665
0.000901928
-0.00162702
-0.000362208
0.000457669
-0.000107786
-0.000297479
-0.000371427
0.000263653
-0.000119593
-1.76185e-05
9.30924e-05
0.000321975
0.000296457
0.00248314
-0.000826242
-0.00168223
0.000193417
-0.00126045
0.00100719
0.00227843
0.00058935
-0.00287356
-0.00144411
-0.00167609
0.00115382
-0.000631545
-0.000811499
0.00225419
-0.000757019
0.000947485
0.00116808
-0.000410157
0.000807365
-0.000402828
-0.00116754
-0.000900317
0.00131569
0.000497655
-0.000240917
-0.000257055
0.000763883
-0.00248341
0.00169189
-0.000643683
-0.00101238
-0.000229739
0.0012068
0.00023954
-0.000467274
0.000227554
0.000264927
0.000936423
-0.00109121
0.000146299
0.000579128
-0.000455541
0.00193191
-0.00145275
-0.000500061
0.000142631
0.00042455
-0.000437651
0.00107046
-0.000650687
-0.00046454
-0.0010262
0.00146959
-0.0015999
0.000982855
0.000580435
-0.000858045
0.00157919
-0.000733488
-4.41945e-05
0.00041778
0.00161721
0.000840607
0.00108129
-0.000550612
-0.000537563
0.00125309
-0.000594101
-0.0006577
0.000558533
-0.00104497
0.00041847
0.000635039
-0.00196415
0.000298131
-0.000599181
-0.000326921
-0.00157622
0.00184909
0.00106513
-0.000538684
0.00172844
-0.00236143
0.000140512
0.000848575
-0.000274047
-0.000591693
-0.00117671
0.00043353
-0.000243735
-0.000279898
-0.00166806
-0.000752131
0.00238649
0.000622687
0.000210086
-0.000485647
0.000623938
-0.00119604
0.00170687
-0.000564788
-0.000804687
-0.000959989
0.00120515
-0.00107133
0.00036463
0.000253507
-0.000617395
-0.000463836
-0.00133778
-0.000382415
0.0016695
0.000487674
0.000153767
0.000118466
-0.00116197
-0.00163369
0.0015746
0.00211408
-0.000518663
0.000716249
-0.000402109
-0.00206064
0.000766626
5.18443e-05
-1.7519e-05
-5.08194e-05
0.00124149
-0.00157568
0.00192889
-0.00038832
-0.000472388
0.000715074
-0.000356571
-0.000360303
-0.00169708
0.00245258
-0.00126417
-0.00119124
-0.00144154
0.000404658
-0.00145104
-0.00118196
0.00191801
-0.000632123
-0.000783011
0.00139607
-0.00218915
0.000954629
0.00222163
0.000681017
0.00152241
0.000448297
0.000285379
0.000318131
0.00208456
2.01738e-05
-0.00211824
-8.21477e-05
-0.000211704
-0.00110265
-0.00200438
0.000320751
0.000286229
-0.000626212
0.00158793
-0.000926843
0.000613061
0.00031616
-0.000923893
0.000349846
-0.000348464
0.00172427
0.000261608
0.000294089
-0.000344447
0.000709844
0.00285701
-0.000644609
-0.00030254
-0.0006295
-0.000973531
0.00147584
-0.000506283
0.000257133
0.000249006
-0.000755109
0.00128421
0.00086781
-0.00143905
0.000571254
-0.000739209
-0.000972199
0.000517397
-0.000801188
-0.000877448
0.00165876
6.42886e-05
0.00135754
-0.00142258
-0.000638724
0.000345916
0.000291675
0.000129948
-0.000572107
0.000434738
0.00262697
8.20652e-06
-0.000461087
-0.00117226
0.00154219
-0.000589024
-0.000693237
0.00239526
0.00140364
-0.000657467
-0.000990516
0.00170255
-0.000714404
0.000549769
-0.00042594
-0.000124039
-0.00140652
-0.000501309
0.00035527
-0.000620155
5.7446e-06
-1.72561e-05
-0.000655004
9.76707e-05
0.000541675
0.000794227
0.000428714
0.000432005
-0.000861321
0.0014568
0.000419964
1.93199e-05
-1.16331e-05
0.00110058
0.000332523
-0.000825879
0.00125526
-0.00045454
-0.00164679
0.00172368
-0.00257879
0.00277284
-0.00195365
-0.000834768
0.00116815
0.000691243
0.00260068
-0.000457421
0.000579973
0.00103088
-0.00130079
0.000260067
0.00238744
0.00221836
-0.000146586
0.000274605
-0.000536569
0.000261817
0.000280132
-0.00120244
0.00184675
-0.000653127
0.00055762
2.39466e-05
-0.000586297
0.00030302
0.00061346
-0.000100851
-0.00056829
0.000720457
-0.0024881
-0.000777517
0.00108837
-0.00031222
-7.30094e-05
-0.00138216
0.000406496
-0.000570002
0.000594518
-0.000667728
-0.00125659
0.000430026
-0.00252935
0.00207183
-0.00127064
0.000797235
0.000460188
0.000352596
-0.00199869
7.92733e-07
5.61269e-05
-0.000982726
0.0013648
-0.000389572
0.00049234
0.00045059
0.000864728
-0.000374936
0.000639834
-0.00135221
0.000710238
0.00125397
-0.00094418
0.000750715
0.000689556
0.000408949
-0.000625182
0.000215886
5.38224e-05
-0.00021993
-0.00073153
-0.000480401
-0.000188574
0.0017002
-0.00077118
0.000810953
-0.00150594
-0.000620152
-0.00179221
0.00144956
-0.000480698
-0.000984177
-0.00123893
0.00179002
-0.000622821
-0.00107595