/*--------------------------------*- C++ -*----------------------------------*\
| =========                 |                                                 |
| \\      /  F ield         | OpenFOAM: The Open Source CFD Toolbox           |
|  \\    /   O peration     | Version:  v2012                                 |
|   \\  /    A nd           | Website:  www.openfoam.com                      |
|    \\/     M anipulation  |                                                 |
\*---------------------------------------------------------------------------*/
FoamFile
{
    version     2.0;
    format      ascii;
    class       surfaceScalarField;
    location    "200";
    object      meshPhi;
}
// * * * * * * * * * * * * * * * * * * * * * * * * * * * * * * * * * * * * * //

dimensions      [0 3 -1 0 0 0 0];
oriented        oriented;


internalField   nonuniform List<scalar> 
20537
(
0.0036288
-0.000236804
-0.00342308
-0.00453896
0.00348072
0.00105855
0.000740984
0.00156225
-0.00231164
0.00552219
-0.00277141
-0.00277962
-0.00106528
-0.0011278
0.00218216
-0.00318707
-0.000822275
0.00399939
0.00149019
-0.00164038
0.000123447
-0.00164457
0.00272517
-0.0010954
0.00178572
-0.00220048
0.000355029
-0.00314909
0.00116818
0.00197329
0.000424172
-0.00121334
0.000786272
0.00212177
0.000261208
-0.00238351
-0.00128655
0.00137993
-9.67515e-05
-0.000628759
-0.0008857
0.00151255
-3.92416e-05
0.000536368
-0.000606168
0.00137897
0.00157758
-0.0029755
-0.00330842
0.000588175
0.00268772
7.49572e-05
0.00288812
-0.00298118
-0.000666758
-0.00101982
0.0016827
0.0021285
-0.000405495
0.00222361
0.00325488
0.00275619
-0.00202503
8.09666e-05
-1.84924e-05
-8.8151e-05
-0.000155453
0.000186419
-0.000129781
1.25824e-05
4.26992e-05
0.00101504
-0.00267526
-0.00200326
0.0019702
7.39394e-06
0.000558551
0.000347591
0.0044349
-0.000838406
0.00392562
-0.000234396
-0.00372316
0.000751777
-0.00394747
-0.00215366
-0.00118638
0.00284981
-0.00129718
0.00136686
0.0010009
-0.00236933
0.000149113
-0.000407732
0.000533568
0.000431949
-0.000967301
-0.00106855
0.00034884
0.000717323
-0.00134988
-0.000743133
0.00209039
-0.00249258
-0.0006628
0.00318677
-0.00182164
0.00391232
-0.00247906
-0.00149165
-0.000167215
-4.71554e-05
0.000205409
-0.000731837
0.000175024
0.000557603
-0.000868423
-0.000291924
0.00115921
0.000251854
-0.00112107
-0.00123702
0.000783801
0.000455288
-0.000298703
0.00113353
-0.000834327
0.00374768
-0.00091181
-0.0028368
-0.00193608
-9.08313e-05
-0.00299244
0.00248945
0.00049019
0.000707513
-0.00176355
0.00104443
-0.00113217
0.00183155
-0.00070688
-0.000286127
0.000729225
-0.000443217
7.28145e-05
0.000252421
-0.00043543
5.0237e-05
0.00041246
-0.000633038
4.16996e-05
-0.000217031
5.11787e-05
-0.000298437
0.000190922
0.000373402
0.000574529
-0.000948236
0.00359358
0.000295876
-0.00212108
0.00202347
5.64483e-05
-0.00210501
0.000752356
0.0010443
0.000421854
-0.00146506
-0.00119883
-0.00277709
0.003964
0.00105462
0.0008111
-0.00187362
-0.00355929
0.000493608
0.00306031
-0.000769541
0.00375967
-0.0030115
-0.000735961
-0.000332948
-0.000172608
0.00115216
-0.000689068
-0.00142085
0.0020899
0.00307943
-0.0030248
0.000409168
0.000108166
-0.000517313
-0.000554312
-0.000280941
0.00083437
-0.00290186
-0.00163562
-0.000412356
0.000363902
0.000915444
-6.61763e-05
-0.00100374
-0.00061442
-0.0014775
0.0020535
0.000894814
0.00185345
-0.000486237
0.00087146
-0.00038496
0.00227844
-0.0010349
-0.00125847
-1.7172e-05
-0.000492651
-0.00231893
0.000207155
0.00206745
-6.86767e-05
9.86038e-05
-2.91118e-05
0.00217761
-0.00251217
0.000253759
-0.000770407
0.00123483
-0.000461838
0.00251673
-0.00372703
-0.000303423
0.00242467
0.000850584
-0.00387088
0.00300816
-0.00293534
0.00210497
0.00082906
0.00257194
-0.000289397
-0.00231479
-0.00173646
0.00138229
0.00032707
0.00111101
-0.000580384
0.00492781
-0.00267263
-0.0022714
0.000800468
0.00264432
-0.001722
-0.000944568
0.00329215
-0.000754864
0.000138158
3.15344e-05
-0.000226507
-0.0019869
0.000911173
0.00132548
-0.00120712
-0.000118239
-0.00230029
-0.00070361
0.000121823
-5.09222e-05
0.00114007
-0.00122325
8.17894e-05
-0.00155963
-0.000473659
0.00201804
0.00405277
-0.00142005
-0.00267012
0.000634523
-0.00144833
1.39026e-05
-2.0976e-05
2.05106e-06
-0.000857396
-0.00288189
0.00372798
0.00129303
0.000475595
-0.0017813
-9.54197e-05
-1.93287e-05
0.000108582
0.000282226
-0.000738675
-0.00390407
0.00307228
-0.000120675
0.000124086
-7.35527e-05
-0.00133269
-0.000431473
0.00255856
0.00235265
-4.17192e-05
-5.31733e-05
-0.000295091
9.99492e-05
-0.00181274
0.00360724
0.000962716
0.000362875
0.000157761
-0.000108051
-5.86246e-05
-0.000201632
-0.000178475
0.000246315
-0.000537147
6.60371e-05
0.000321856
-0.000785793
5.43187e-05
-0.00121348
0.00182768
0.00022904
-0.00151808
0.00375951
0.000978142
0.00276647
-0.000139507
0.000770436
-0.000642744
0.00381799
-0.00284273
0.00142452
0.000308126
-0.00174537
0.0048455
-0.00265764
-0.00102445
0.00179999
-0.000780282
0.00131294
0.00253194
0.000426678
-0.00180751
0.00128911
-0.000127294
0.000536856
-1.29161e-05
0.00210577
0.00184149
-0.000369884
-0.000365638
0.000625285
6.18022e-05
8.43758e-05
-0.000276725
-0.000623621
0.000899184
0.00192902
-0.00115705
-0.000771951
0.00107623
-0.00204184
0.000964627
0.000143049
0.000996587
-0.000562181
0.000426149
0.00317396
-0.00122296
-0.00197957
2.53031e-05
0.000377523
-0.00041313
0.000940442
-0.00273387
0.00176166
-0.00115032
0.000857156
-8.09959e-05
2.50011e-06
7.649e-05
-0.00201312
0.000982586
0.00161034
-0.000163638
0.00106494
-0.000813807
0.00129336
-0.000853024
0.000449912
-1.68534e-05
-0.00059297
0.000723915
-0.00135487
0.000201273
-0.000199297
-0.0005557
-0.00148623
0.00201303
-0.00214864
0.00305356
-0.000255078
0.00276482
-0.00256849
-0.00312966
0.00334278
-0.000245325
-0.00138728
0.000248038
0.0017875
-0.00109302
-5.22812e-05
5.2773e-05
-1.35194e-06
0.00214297
-0.00148286
-0.000677903
-0.000437755
0.000811165
0.00148495
-0.00114117
-0.00343578
-0.000612451
0.00401905
3.59736e-05
-0.000384947
0.000337299
-1.37035e-05
-6.84696e-05
-0.0019954
0.00128799
0.00293598
0.00187426
0.000609777
-0.00117099
0.000563203
-0.000682258
0.000196305
0.000922029
-0.00016472
-0.000810929
-0.00281044
0.00249842
0.00208201
-0.00100619
0.000330151
0.00106881
-0.00367928
0.00276587
-0.00093918
0.00234817
0.00148758
0.00101458
-0.00252498
-0.00175305
0.00108289
9.64613e-05
2.30107e-05
-0.000124311
-0.000689077
0.00289437
-0.00223169
-0.000831912
-0.00205481
0.00176431
0.00021585
-0.00205994
2.82201e-05
-1.68161e-05
1.52786e-05
1.32543e-07
0.000107311
1.45981e-06
-0.000148213
-0.00373815
0.00294741
-0.00065775
-3.40534e-05
0.00123899
0.000740827
-0.00198794
0.00204527
-0.00310917
0.0010558
0.000853825
-0.000768594
0.000483289
0.00159058
-0.000224492
-0.00138778
-0.00150415
-0.000520448
0.00200652
-0.000834291
0.00188018
-0.000612257
-0.00178194
0.00236297
0.000852458
0.00229306
-0.00285273
0.000846639
0.00200348
-0.00159367
0.00305341
0.00150889
-0.0021619
-0.000806964
0.00065527
-0.00146295
0.00062567
0.000839122
9.65303e-05
-0.00029664
5.48276e-05
-0.000714785
0.00242917
-0.00179532
-0.00294806
0.00114815
0.00179254
-7.00905e-05
-0.00205973
0.00225575
-0.00144597
-0.000809719
-0.00317974
0.00251679
0.000631218
0.000311597
-0.000793631
0.000482041
8.2627e-05
-6.36716e-05
-2.16925e-05
0.000983195
-0.000588876
-0.000395374
0.00322855
0.000782239
-0.000938865
0.00296005
-0.00202062
-6.7453e-05
-1.71478e-05
8.01127e-05
-8.25601e-05
-0.000321877
0.000393772
0.00029837
-0.00103284
0.000730079
-0.00425646
0.0012134
0.00302794
-0.00049849
-0.000736487
-0.00113102
0.000884435
0.000158172
-0.0004491
0.000760765
-0.0012134
-0.00199206
-0.00243161
7.2258e-05
0.00113826
-0.000789714
-0.000351119
0.00184491
-0.000898083
-0.000953643
0.000861131
-0.000629083
-0.000232386
-5.85183e-05
-4.08684e-05
6.21382e-05
0.00264995
-0.00144173
-0.00123062
-3.34113e-06
1.09284e-05
-0.00054307
0.000768177
-0.000224898
9.66527e-07
-7.0847e-05
-0.00185811
0.00285696
0.000909249
0.00231504
-0.00322806
0.000762894
0.000106206
0.000235874
-0.000344407
-0.00129557
0.00162822
-0.00376825
0.00311237
0.000643828
0.00166085
0.000594519
-0.00304845
-0.000514318
0.000406456
-0.000392423
0.00143584
-0.00222202
0.00391091
-0.00316745
-0.00276005
0.000232842
0.00252194
-4.7787e-05
6.95295e-05
-2.17994e-05
-0.00109472
-0.00185955
-2.25407e-05
-4.30229e-06
0.000373844
-0.000706959
0.000332954
0.000181891
-0.00175445
0.000783486
0.00193667
-0.00271946
-0.000599439
-0.00237148
0.00293744
-0.00282559
0.00280745
-1.14096e-05
-0.000963572
-0.00210797
0.00305334
-0.000466368
-0.00229489
0.00273211
-0.00250006
-0.000267462
-0.00277837
0.00219527
-0.00103186
-0.0011789
0.00054207
-0.00366207
0.00311469
-0.00143074
0.00346827
-0.000804722
0.000179897
0.000937148
-0.000259459
-0.000679743
-0.00126608
0.00125617
-5.32043e-05
0.000313723
-0.000115252
-0.00341676
0.0035109
-0.00255731
0.00394453
-0.00138832
-0.000305634
0.000869846
-0.000579825
0.000856425
0.000754782
-0.00161285
-0.00210379
0.00146395
0.000467678
0.0022272
0.00044082
0.00218235
0.000350356
0.000785327
-0.00131162
0.0014587
-0.000156842
-0.00305054
0.00206833
-0.00236983
-0.0020694
0.00387676
-0.00181126
0.000867598
0.00139543
-0.00196371
0.00332263
-0.000644586
-0.00125043
6.07285e-06
-7.41648e-05
0.000234997
-0.000864411
0.00062369
0.000790407
-0.000617649
-0.000173033
0.000965614
-0.000544
-4.97982e-05
3.47605e-06
5.65668e-05
-2.57508e-05
-3.44805e-05
1.20129e-05
3.8013e-07
-1.60572e-05
0.00119231
0.000989035
-0.0037561
0.00119802
0.000791671
0.00306547
-0.0038569
0.00259004
-0.00157184
-0.00107196
0.000780797
-0.000140945
-0.000703036
-0.00384111
0.00176753
1.38294e-05
-3.14214e-05
1.95861e-05
-0.00124537
-0.000772594
0.00338888
0.00017394
-0.00161779
-0.000542183
0.00148934
0.000520407
-0.00202743
-4.25003e-05
5.75615e-05
0.00174234
-0.000888113
-0.00362567
0.00297483
0.00063243
-0.00272996
0.00242586
-0.00125062
-0.00050984
0.00168439
-0.000373437
0.000747147
0.0016625
0.000461532
0.00303381
-0.00247614
0.000832869
-0.000475909
-0.000357026
0.00415181
-0.00164117
-0.00255438
0.0029561
-0.00382513
-0.000131176
-0.000939286
0.00106814
0.000908954
0.00162008
0.00203598
-0.000987088
-0.00106385
0.000929086
-0.00267686
0.00326199
9.67599e-05
0.00118383
0.000744463
-0.00207893
-0.00156202
0.0012276
0.00121999
-0.00248265
0.000710998
0.000379761
-0.0010926
7.18892e-05
-0.000281625
0.000199752
-0.00311349
0.000265263
5.99221e-05
-0.00087208
0.000801548
0.000482215
0.000308248
0.000282147
-0.00110304
0.00081665
-0.000197111
-0.00101627
0.00102181
-0.00186098
0.000825334
0.00133974
-0.000604031
-0.000815749
8.99177e-05
0.000846856
0.00394383
-0.00257833
-0.00138355
7.67407e-05
1.11095e-05
-0.000118788
-0.000243744
-0.00223269
0.00243621
-0.00094597
0.0012225
0.000925255
0.00170134
0.00164311
-0.00230369
0.000632915
0.000598673
0.00124256
0.00286158
-0.00172959
0.00291778
-0.000910452
-0.000305315
0.000756966
0.000712575
-0.000598114
0.00135165
-0.000751299
0.00394444
-0.00117618
-0.00278586
0.000344675
0.000488084
0.00186325
-0.000706022
-0.00115734
-0.000548147
-0.00202324
0.00050232
0.0005728
-0.00182213
-0.000648886
-0.00235183
0.00298753
-0.00405333
0.00152913
0.00251384
-0.00149574
0.000321865
0.00116678
0.000719823
-0.00342226
0.000357153
0.00304387
-0.00279772
0.00377737
-0.000978171
0.000908996
-0.000420103
-0.00048969
0.000443939
-1.32947e-05
-0.000625202
0.00104468
-0.000426265
-0.00113142
0.000499061
-0.00133449
0.00215456
-0.000821353
0.00238603
-0.000771213
-0.00223461
-0.00182528
-0.000746587
0.000203596
-0.000273183
-0.00259177
-0.0037137
0.000917281
0.00212467
-0.00240983
0.000471502
0.000786579
-3.16548e-05
4.22727e-06
-0.00012434
2.34422e-05
-0.00267827
0.00057917
0.00203167
0.000438588
0.00046947
0.000166394
-0.00192286
0.0017543
-0.00252937
-5.82813e-05
0.0025315
0.000655177
0.00136422
-2.14558e-05
-0.00026484
0.000276454
-0.000360553
-0.00236974
-8.7874e-05
-0.00286635
0.00293894
0.00402982
-0.000268108
-0.000725841
0.00133763
-0.00261921
3.58781e-05
-0.00104636
-0.00321614
-0.0027647
0.00210442
0.000637274
0.00309522
0.000934998
0.00375009
-0.00124521
-0.00257527
-0.000124667
7.49236e-06
-0.00419261
0.00304978
0.00112636
0.000240737
-0.000910309
0.000668297
8.49677e-05
0.00214756
-0.000963288
-0.00333716
-0.000302614
-0.00119997
-0.000347815
-0.000820871
0.000576042
-0.00109079
0.000509834
0.00112985
-0.000558819
0.00377242
-0.00211339
-0.00167667
0.000478414
-0.00150057
0.00094476
-0.000275017
-4.02043e-05
0.000214698
0.000981661
0.00294407
0.00171879
-0.000707965
0.000672458
-0.00155956
0.000962342
0.000836169
-0.00181661
0.000558954
0.000301758
-0.000726547
0.00104348
-0.00031847
-0.000237627
0.000208794
-0.00141592
9.98512e-05
-0.0013217
0.000494013
5.18868e-05
-0.000545827
0.00311874
-0.0022135
-0.00043758
0.00139941
-0.00122322
-0.00298489
-0.00091474
-0.00187295
-0.000134924
-2.4823e-05
0.000106962
0.00111716
0.000745798
0.00104012
0.000304431
-0.00139499
0.00280435
-0.00124154
0.0012374
0.0025148
-2.42703e-05
-0.00168816
0.00167038
9.05404e-06
0.00238164
-0.00152866
0.000266764
-0.000239412
-0.000660967
0.00170808
-0.00310666
0.00374329
-0.000647383
-0.000839228
0.000998685
-0.00015942
-0.00306942
0.004117
-0.00106906
-0.000580815
0.00298761
-0.00384915
0.000847211
-0.002493
0.0020257
-0.000565297
0.00310974
-0.00257191
0.000829142
-0.00216552
0.000586086
0.00241919
0.000945504
-0.000651435
0.000138758
-8.8143e-05
0.000744647
0.00157853
8.38381e-05
-1.63404e-05
0.000816754
0.00120041
-0.0020193
0.00255682
-0.000781104
-0.00177495
-0.00123846
-0.000813555
0.00204423
0.00380597
-0.000831837
-0.000749446
-0.00180081
0.00280028
0.00379487
0.000345356
-0.00138265
0.00102918
0.00117273
0.0025057
-5.85017e-05
-0.00244044
4.53078e-06
2.28317e-05
-3.72238e-05
-0.000860345
0.00239905
-0.00154036
-0.00271007
0.000342889
0.00236291
-0.00270064
0.00123303
0.00145834
-0.000354597
0.000772053
-0.000417497
0.0012841
-0.00290529
-0.000203909
0.000761499
-0.000562506
-0.00046548
-0.00224626
0.00103926
0.000276861
-1.7846e-05
-1.5378e-06
0.00167482
0.000766233
-0.00246075
-0.00198648
3.42774e-05
-0.00135325
0.000928648
0.000166844
-0.00114803
-0.000548278
0.002758
-0.00224953
0.000426412
0.00180802
1.54571e-05
0.00414187
-0.00143866
-0.00272077
0.000922977
0.00147886
-0.00240127
4.98753e-05
-0.000147007
0.000601734
-0.00287275
0.000474679
0.000420189
-0.000893727
-0.00371461
0.000256005
3.60794e-05
1.89195e-05
-0.00144373
-0.00149188
-0.000901742
0.00130583
-0.00303506
-0.00155688
0.00112814
0.000369916
0.00373813
-0.00343229
-0.000321446
-0.00328788
0.00289902
0.000356942
5.33951e-05
-0.0015646
0.0028217
0.00141663
-0.000708058
-0.00177801
-0.000803866
0.000670394
0.00122666
-0.00191391
-0.000895437
0.000418093
-0.00387771
0.000464767
0.00339846
-0.00022115
0.000865135
-0.000648142
-6.4623e-05
-3.16624e-05
0.000428122
-0.00304753
0.00256854
5.15015e-05
-0.000176949
3.62108e-05
-0.00391151
0.00103953
0.00286936
-0.00274875
0.00262735
7.91132e-05
-0.0030438
-0.000838072
0.00192503
-0.000233974
-0.000184163
-1.28615e-06
0.00143863
-0.000822044
-0.000617176
-0.000692885
0.000338298
0.00198965
-0.00189681
-0.000154923
-4.76394e-05
-0.00384593
0.00231832
-0.00290946
0.00264983
-0.00242159
0.000395799
-0.00116411
-0.00177411
0.00234342
0.00167752
-0.00151328
-0.00371139
0.00239939
-0.000758913
0.00202754
-0.0012774
0.00174614
-0.00192837
0.000141543
-0.000343957
0.000798629
-0.000454121
-0.000111599
3.65062e-05
6.49634e-05
0.000728363
9.41848e-07
-0.00149098
-0.0016432
0.00312755
-0.000230764
0.000174879
-0.00385003
0.00378649
-0.000534522
0.00127946
-0.000743632
0.000624868
-0.00249534
0.00106806
0.000322389
-0.00139052
0.00018264
-0.00051161
-0.00250384
-0.00112587
0.00362989
-0.000125003
0.000359624
-0.00129335
0.000321308
0.000893549
-0.000485663
0.00180943
-0.00140233
0.000109721
-0.00154783
0.00140138
0.000118265
0.000375856
-0.000641973
-0.00114991
0.00177971
0.000399515
-0.00135402
0.00094809
0.000407374
0.000841736
-0.00125264
0.00371696
-4.78782e-05
-5.67177e-06
-0.00100775
0.00160121
-0.000593868
0.000763566
0.00179206
-0.00267973
0.00196692
-0.00204223
0.000538757
0.000873531
0.0017698
0.00269949
0.00106188
0.000552021
0.000430166
-0.000202582
0.000258034
-0.000182374
0.000529043
-0.000872029
0.00118194
-0.000936421
-0.000525079
-0.00270987
-0.00290025
-0.000961674
0.000799892
0.00281781
0.000593563
-0.000802498
-0.00348463
0.00402093
-0.00214356
-0.00070882
-0.000871431
0.00218408
-0.00131431
0.000258572
-0.00341878
0.00141313
-0.00228582
-0.000935501
0.00115723
-0.000224182
-4.58595e-05
-7.64563e-05
0.000822922
0.00113412
-0.000733838
0.000401327
0.000332395
0.000477828
-0.00287946
-0.00211341
0.00200163
1.81512e-05
0.00213992
0.000562762
-0.00251335
0.00258969
-0.000133946
0.00194329
-0.000713045
-0.00310242
0.00374485
-0.000655896
0.00356226
-0.00145816
-0.00146981
0.00239339
0.000515391
7.16424e-05
-0.000673573
0.000936005
-0.000460208
-0.000882609
0.000543712
0.000338444
0.000806979
0.00293412
-0.00374987
0.00272882
-0.00196602
-0.0013434
-1.92636e-05
-1.17684e-05
3.02542e-05
-0.00151288
-6.64914e-05
9.28897e-05
-2.58578e-05
0.000501681
-0.00151008
0.00076877
-0.00227519
0.000626241
0.000658646
-0.00128968
0.0011554
-0.000231834
-0.000926918
0.000183646
-0.00014985
0.00313488
0.000630242
-0.00377751
-0.00376086
0.000976263
0.00278493
0.000949383
0.00120274
-0.00045925
-0.00122631
0.00167588
0.000467443
-0.000349074
0.000986923
-0.000689108
-0.000299357
-0.00246278
-0.00164438
0.00157995
0.00167884
0.00142082
-0.00309926
-0.00085947
-0.000466511
0.00128335
-0.000822147
0.00175665
-0.000808971
0.00105678
-0.0038442
-3.41502e-05
-0.00235403
0.00228121
-1.97916e-05
0.00132189
3.07053e-05
0.000145658
-0.00246174
0.0029083
9.69667e-05
-7.86396e-05
-0.00132919
0.00101484
0.000209511
-0.000117595
-0.000819819
-0.00118499
0.00246994
0.00131923
0.000144492
-0.000120468
0.00108307
0.00106457
-0.00183141
0.00267547
0.000506425
-0.00167291
0.001093
0.000198468
3.32137e-05
-0.000274223
-0.000825829
0.000505269
5.52636e-05
-0.000704682
0.000943765
-0.00184449
0.00262864
-0.00278339
-0.00133211
0.000397202
0.00115576
-0.00365942
-0.00193988
0.00124659
0.00067654
-0.000354896
-0.000378645
-0.00020625
-0.000587442
-0.00287729
-0.000562245
-0.00210872
0.000669461
-2.42388e-05
4.65737e-06
-0.000757599
-0.0014459
0.00310987
-0.00168136
-0.00139906
0.000857353
0.000539855
0.00272204
0.00105513
0.00137734
-0.00075653
0.00138005
-0.00237322
0.000973175
0.00200928
-0.000707504
-0.0013636
-0.000886583
-0.00225237
0.00312057
0.00279229
-0.000817243
-0.00199925
0.00135489
-0.000286742
0.000683952
0.00106035
-0.00175416
0.00170896
0.000137829
0.00282296
-0.00401678
0.00108705
-0.000213276
-0.00254764
0.000790753
0.00173658
0.000469553
-0.00171351
0.000160644
0.00181875
0.00337056
-0.0022644
-0.00268866
0.00258741
0.00253455
-0.000416938
-0.00215667
0.000806655
-0.00130368
0.00211785
0.00140936
0.00042984
-0.000738322
0.00319115
-0.00247047
-0.00119207
0.000720965
0.000666184
0.00128179
0.00382102
-0.00133955
-0.00248855
0.00181993
-0.00116826
-0.000162592
0.00377391
-0.000592897
-3.02959e-05
0.000159442
-0.000198205
0.000760727
-0.00047895
0.00327591
-0.000311924
-0.00299258
-0.000820492
0.00047498
0.00048207
0.000355138
-0.000837584
0.00120875
-0.000726504
-0.000480624
-0.00309037
0.00164579
0.00124343
-0.000251798
0.000479137
-4.36083e-05
-6.58753e-06
-0.00158126
0.000180625
0.0013007
8.09312e-05
-5.37344e-05
-0.00130463
-0.000127608
-2.23991e-06
1.974e-05
-1.7445e-05
-0.00403398
0.000945763
0.00298203
0.000739524
2.34359e-05
0.000114953
-0.001208
0.0021609
-0.000953217
-0.00292798
-0.00180199
0.000593118
0.00241892
-0.000516457
-0.00196379
4.78761e-05
-1.88947e-05
-3.53504e-05
-5.38365e-05
8.6856e-05
-5.3765e-05
0.00230032
-0.00173299
0.00173057
-0.000838575
-0.000890785
0.00136323
0.000151288
-0.00152386
-0.00212698
-4.70537e-05
2.48894e-06
0.000105566
-0.000175621
-0.00049314
0.000359287
4.47478e-05
0.00302449
-0.000869885
-0.00219289
0.000927975
0.000465687
-0.0013977
-0.00125424
-0.000923004
0.00217684
0.00199191
0.000503563
0.000125343
-0.000108225
-0.00130663
0.00138209
-0.00018092
0.00314714
-0.00163463
-0.000920168
0.00255226
0.000332556
-0.000789518
0.000456735
-0.0028669
0.000784947
0.000571056
-0.00135485
0.00257867
-0.00370458
0.000878646
0.00242299
-0.00105849
0.00145019
0.000127484
-0.000638553
-0.00192387
0.00218443
0.0022842
-0.00212246
0.0029457
-0.000321434
0.00167291
0.000678774
0.000816506
0.00184986
0.00390396
-2.61946e-05
2.0741e-05
0.00124828
-0.00145271
0.000346026
0.000425961
0.00221527
-0.000538805
-0.00171281
0.000192673
-0.0031258
0.00290586
-0.00283555
0.00388194
-0.000334152
-0.00103562
0.000714583
-0.00397966
0.000133499
-0.000902204
0.00180906
-0.000907599
0.00185149
-0.0011784
-0.000976166
0.00172884
-0.00105419
-4.09385e-05
7.57084e-05
0.000503863
0.00185137
0.000766071
0.000671691
0.000240788
0.000910981
-0.000679495
-0.00310035
0.000825579
-0.000343628
0.00167727
-0.000482228
-0.0012425
-0.0001615
6.00891e-05
2.07039e-05
8.19475e-05
-0.00254779
0.00370427
0.000459254
-0.00105062
0.000589742
0.000280152
-0.00317493
0.00287116
-0.000799217
0.00347616
-0.00271268
-0.000860827
0.000635414
0.00246773
-0.00228197
-0.000218026
4.14637e-05
-0.000112633
-0.00053337
0.00104349
-0.000508223
-0.00375853
9.35171e-05
-0.000606718
-0.00023467
0.00083967
-0.000168271
0.00243889
-0.000488008
0.000719495
-0.000480348
-0.000239066
0.000734597
-2.86788e-05
-0.000705859
0.001229
-0.000120316
0.00189948
0.000866595
0.000291435
0.000561923
-0.000854423
-0.0021556
0.000233204
0.000708584
-0.00250958
0.00102457
0.00148003
-0.00145019
-0.00125908
-0.00307626
0.000595144
0.00245483
0.000711819
-0.000888027
0.00249474
-0.00162062
-0.000519706
-0.00191697
0.0024164
0.001039
-0.00069241
-0.000253715
0.000154392
-5.56702e-05
-0.000256218
-0.00306379
0.00177545
-0.00116614
-0.000945559
0.000413694
-0.00112991
0.0029598
-0.00184593
0.00133908
-0.00116851
0.00362496
-0.000630181
-0.000239413
0.00135923
-3.91911e-05
0.000169933
-0.000469175
0.000181207
-0.00302062
4.724e-05
2.5075e-05
-0.00294601
0.00221948
0.000660511
-5.85404e-05
0.00055136
-0.000628719
-0.000769178
-0.000171829
-0.000602923
-0.000148911
0.000188043
-4.86706e-05
-0.00374946
0.000797522
0.00294665
-9.95678e-06
-0.00167474
0.00026429
0.000455057
-2.26636e-05
2.40416e-05
-1.43955e-05
0.000838718
0.00207955
-0.00294397
0.00113959
-0.00123932
9.27137e-05
-0.00254377
0.00090665
-0.00193143
0.000238005
0.00169056
0.000537884
-0.000489239
-0.000136373
0.00419237
-0.000322209
0.00161367
-0.000827982
-0.0023193
0.000677703
-0.00112642
0.000446616
-0.000321341
0.00155361
-0.000469592
-0.00114239
-0.000933087
-0.001286
0.00220757
0.00060401
-0.000428677
0.00326216
0.000920567
0.00293848
-0.000319798
-0.00264437
-6.42122e-05
0.00010023
0.00226134
-0.00100593
0.00257563
-0.00157675
-0.00287951
-8.34496e-05
0.00295485
0.00309288
-0.000141654
0.00122868
-0.00217343
0.000156795
-0.000466924
-0.00199581
0.00280941
-0.00128958
0.00110165
-0.000820515
-0.00173282
0.00255173
0.00199373
-0.00126142
-0.00103383
0.00206685
0.000325463
0.00122628
-0.00142533
0.000311677
0.00110653
0.000741466
0.00342799
-0.00317455
0.000473702
-0.00177376
0.0013001
0.00133232
-0.000928861
0.00180285
-0.00185791
-0.000691953
0.00120209
-0.000507567
0.000893093
0.00292044
-0.000595439
-0.000966793
0.00156349
-0.00188222
0.000978761
0.00123966
-0.000634863
-0.000607196
0.000287555
-0.00160106
0.00130895
-0.00144401
0.00302796
-0.00159902
0.00124635
-0.00284814
0.00381159
0.00104964
-0.000475504
0.000544721
-0.000731793
0.00287461
-0.0021858
-6.6698e-05
-6.68395e-05
8.54937e-05
-0.00188412
0.000576173
-7.55472e-05
-8.81013e-07
7.62138e-05
0.000190011
4.45243e-05
-0.000243775
0.000435328
0.000346757
-0.000782078
0.00125117
0.000378563
-0.00265195
-2.62823e-05
0.00261541
-0.000523968
-0.00063734
0.000826783
-0.000189532
-0.00105621
-2.74786e-06
-0.00041929
-0.00124271
-0.000479702
0.000874174
0.00019699
0.000537751
-0.00019254
0.00111702
0.000467657
0.000810788
-0.00358082
0.00294127
0.000615512
0.000766776
0.000586773
0.00206039
-0.00111325
0.000933422
0.000798038
0.00183891
-0.00137695
-0.00126135
0.00190042
-0.00230914
0.00183402
-0.00012895
-0.00329278
0.000394081
-0.0013719
0.000328486
0.0010337
0.000321808
-0.000269853
0.00201416
-0.00325218
0.00210274
-0.000571375
0.000987132
-0.00148837
0.000894272
-0.000549213
-0.00033383
-0.00191927
0.00187864
-1.19556e-05
0.000575103
-0.00187899
0.00128649
-0.00110002
0.00153277
-0.00300682
-0.00281956
0.00298536
0.000111059
0.00145518
-0.00156624
-0.000113147
-4.2243e-05
-0.000385848
0.000688203
-0.000302209
-2.82646e-05
0.000209068
-0.000340391
0.00147244
0.00213526
5.35733e-06
-0.00220627
0.00182458
-0.00240261
0.00057358
-0.000198525
-0.00137261
0.00192873
-0.000635289
0.00191412
-0.00038817
-0.00154005
-0.00273435
-0.000710447
-0.000144102
-0.000113042
-0.00173111
-0.00288752
0.000984114
-0.00360311
0.00261122
-0.000503182
0.00314655
-0.00267542
-0.000629446
-8.05463e-06
0.000691185
0.000162541
0.000204613
0.00147092
-0.000741241
0.00294932
-0.00225281
7.75229e-05
-0.000667204
-0.000556027
0.000786391
-0.000522316
-0.00133612
0.00161918
0.00407138
-0.0020756
-0.00353317
0.00109502
0.00239131
-0.000838182
0.00022996
-0.0003003
4.32173e-05
0.00339256
0.000217141
-0.00072611
0.000464099
0.000261902
-0.00195493
-0.000588308
0.00247824
0.0019652
-0.00167233
-0.000317697
-0.000907012
0.000956513
-0.00279106
0.000934927
-0.00192918
0.000994231
0.00215671
0.000402787
-0.00260543
-0.000277925
-6.83778e-05
0.00322723
-0.00182581
-0.00139905
-0.000796296
0.000347219
0.00058127
-0.00181608
0.000356005
0.00255791
0.000573657
-0.00339174
0.00279312
0.00165507
-0.00145233
-0.000416181
-0.000588349
0.00100591
-0.00150071
6.6749e-05
3.75433e-05
-0.000196614
-0.00267763
0.00121968
-0.000349117
-0.00103828
0.00130651
-0.000154826
-0.000241936
-0.00118631
4.76478e-05
9.5507e-05
-3.57087e-05
0.000890548
0.00137434
-0.00226672
-0.00248678
0.00242223
-0.000150864
-0.00256003
-0.00281351
-0.00144984
0.00305456
-8.02004e-05
-0.000592974
0.000673047
0.000629835
-0.00116283
0.00271295
-0.0010611
0.00151076
-0.00103755
0.00218556
-0.00011716
-0.00177917
0.00252483
0.00308291
-0.00203209
0.00103101
-0.00146151
-0.00343836
0.000574123
0.0028109
-0.00282904
0.00261575
-0.00038268
0.000688558
-0.000305614
-0.00178323
-0.000170303
-0.00186907
0.0015362
-1.11187e-05
-0.00196002
0.00276379
-6.42165e-05
-0.000738909
0.000234684
0.000504261
-0.000423225
0.000143601
0.00305701
-0.00137747
-0.00238914
-0.000497496
-0.00115921
0.000277713
0.000877514
0.00112316
-0.00226717
0.000888481
-0.00256011
0.00165537
-0.000437645
-0.00147327
0.00224119
-0.000565925
0.00366589
-0.00181346
-0.0038369
0.000684688
0.00315152
0.000382745
0.000427395
-0.000809926
-0.0018921
-0.000670279
0.00254952
0.000152647
0.000519441
0.00321302
0.000512907
0.00138456
0.00135173
-0.000838162
0.000332979
0.000131286
-0.00166248
0.00190202
-0.000239434
-0.00183575
0.00227594
-0.00253222
0.00156458
-0.000893152
-0.00102129
0.000304623
0.000703052
-0.00018627
-0.00157033
-0.000295748
-0.00180917
-0.000726581
-0.00167988
0.000385693
-0.000930476
-8.51152e-05
3.8745e-05
4.51682e-05
0.000193594
0.00205024
0.000422903
0.000614446
0.00187223
-0.00252315
-0.00134797
0.0011517
0.000548579
-0.000963726
0.00137463
-0.00317094
0.00178708
0.000907693
0.000900252
0.000103905
0.000208111
-0.000151962
-0.000977328
9.55328e-05
0.000175427
-0.00274489
0.000965012
-0.00130799
-0.000390999
0.00168958
-0.00145388
0.00135773
7.14806e-05
-0.00184352
-0.000243036
0.00204316
-0.00340014
0.00256701
6.82671e-05
-2.44378e-05
0.000321733
0.000990718
-0.00224512
-0.00275088
0.000801202
-0.00123929
0.00130491
-0.000337514
-0.000971086
-0.000560817
-0.00186267
0.00334159
-0.00256043
-0.000784161
0.00234212
-0.000978895
0.00238772
-0.00182633
0.000462005
0.00136442
-0.00303906
-0.000700815
0.00373022
0.00122457
0.0014271
-0.00265387
0.000782471
-0.000984581
0.00083391
0.000299282
-0.0017102
0.00266382
0.000414395
-0.000986362
0.000571926
-0.000760625
0.000788239
-8.61691e-05
0.00140679
-0.00118016
0.00233709
0.000602801
0.00220592
0.000233194
-2.94002e-05
-5.70362e-05
-0.00114549
-0.000502431
0.0016011
0.000355108
-0.00180988
0.0014532
-0.00280434
0.0036901
-0.00084647
0.000530369
0.0016468
-0.001895
0.002033
-0.00020996
0.00289604
0.000917641
0.00199327
-0.00277435
0.00147639
0.00018813
0.00146421
0.0026218
-0.00367167
0.0010487
-0.00156286
0.00055
0.00100938
-0.0019553
-0.000455151
0.00241039
6.11427e-05
-0.000170876
-0.00291287
0.000265493
0.00258742
-0.00174591
0.00349349
-0.00175449
0.00401388
-0.0035641
-0.000266512
0.00160959
-0.00136318
-0.000689825
0.00013588
-0.00204042
-2.78537e-05
-0.00145082
-0.00280498
0.00335333
-0.00243946
0.0011044
0.00133522
-0.00204888
0.000165968
0.000587607
0.000410675
0.000690718
0.000472406
-0.00116679
0.00361936
-0.00022393
0.000579961
0.000765775
-0.0013501
-0.000188928
-4.38349e-05
0.000104924
-0.000623748
0.000505242
0.0037799
-0.00284722
-0.000975058
-0.00099713
0.0013093
-0.000313886
-0.00294684
0.00178001
0.00116268
7.03934e-05
-0.000885357
-4.46819e-05
-5.24349e-05
0.00219116
-0.00169993
-0.0013235
-0.000449416
3.77079e-05
-0.000324471
0.000275452
0.000494089
0.00165659
-0.000791243
-0.00167709
0.000433063
0.00153671
-0.00198668
0.00107384
-0.00061622
-0.00368049
0.00122877
0.00289472
-0.000778563
0.000577784
-0.00106926
-0.000311515
-0.000977907
0.00170883
-0.000731977
-0.00153351
-6.47787e-05
0.000383419
0.000828558
0.00120879
-0.00203838
-0.00102164
0.00143384
-0.00041947
6.75778e-05
-0.000459981
0.000379523
0.000351485
-0.00134908
-0.000640334
-0.00154327
6.43974e-05
-7.799e-05
0.00298256
0.000753463
-0.000469456
-0.000302058
0.000771297
-0.00141231
0.000460623
-0.002584
0.00180355
-0.00149776
-0.000631244
0.00176414
-0.0019509
0.00010767
1.33441e-05
-2.25375e-05
-0.00102062
0.00353921
-0.00256467
0.00253027
0.000806784
-0.000818997
0.00394876
-0.00313264
2.40759e-05
2.77285e-05
-0.00137377
0.00179122
0.00105887
-0.00417701
0.000421208
0.000241121
-0.000662383
-0.000213372
4.23457e-05
0.000935638
0.00229891
-0.00323537
4.85894e-05
-5.07803e-05
5.9782e-05
-0.00131443