/*--------------------------------*- C++ -*----------------------------------*\
| =========                 |                                                 |
| \\      /  F ield         | OpenFOAM: The Open Source CFD Toolbox           |
|  \\    /   O peration     | Version:  v2012                                 |
|   \\  /    A nd           | Website:  www.openfoam.com                      |
|    \\/     M anipulation  |                                                 |
\*---------------------------------------------------------------------------*/
FoamFile
{
    version     2.0;
    format      ascii;
    class       volVectorField;
    location    "200";
    object      U;
}
// * * * * * * * * * * * * * * * * * * * * * * * * * * * * * * * * * * * * * //

dimensions      [0 1 -1 0 0 0 0];


internalField   nonuniform List<vector> 
13851
(
(1.01945 -0.0379354 0)
(0.72098 -0.158006 2.75955e-21)
(1.10824 -0.0697198 -3.27515e-21)
(1.01755 -0.0362958 -7.00479e-22)
(1.1381 -0.0553178 0)
(0.996199 -0.0485643 2.65372e-21)
(1.0446 0.000979336 0)
(1.10526 -0.0512692 0)
(0.987955 -0.00585882 7.88606e-22)
(1.08842 -0.0580404 0)
(0.881005 0.0571318 0)
(0.323375 0.0970313 4.89008e-22)
(0.726014 -0.0476133 0)
(0.0585678 0.00361997 0)
(1.02663 -0.000565337 1.27898e-21)
(1.08327 -0.0498085 0)
(1.07865 -0.0281982 -3.55183e-21)
(1.03997 -0.0547301 0)
(0.894745 -0.0658733 0)
(0.988339 -0.00588758 -7.84282e-22)
(1.01767 -0.0356325 -7.54038e-23)
(1.11153 -0.0687252 -3.65688e-21)
(1.00212 0.00100317 -3.59027e-22)
(0.988252 -0.000271638 -1.28837e-22)
(1.00093 0.000517644 -1.893e-22)
(1.10377 -0.0523867 8.66163e-21)
(1.0853 -0.0117859 1.00272e-20)
(0.00395192 -0.0524232 -2.11003e-20)
(1.02036 -0.0374014 3.6794e-23)
(1.05002 -0.0423769 0)
(0.992779 -0.0467046 2.97558e-21)
(1.08016 -0.0291316 3.7333e-21)
(1.10607 -0.068248 0)
(0.829708 0.0591909 -4.46049e-21)
(0.988027 -0.000437656 -1.18817e-22)
(1.17909 -0.0213466 0)
(0.878331 -0.0297772 -3.51818e-22)
(1.05365 -0.0963052 -1.58995e-20)
(1.08569 -0.0583157 -7.3661e-22)
(0.861122 0.0381725 -2.11216e-22)
(1.01753 -0.0200203 2.93043e-22)
(1.0241 0.00919663 -3.62837e-22)
(0.0139446 0.0902665 2.83336e-20)
(0.921736 0.0236004 5.36153e-22)
(0.942406 0.036424 1.33242e-21)
(0.0993766 0.00597903 0)
(0.982947 0.0229827 4.84552e-23)
(0.967905 -0.103737 0)
(1.08706 -0.0118698 1.09585e-20)
(0.973817 -0.0253607 0)
(1.14803 -0.0336696 2.00686e-20)
(1.1628 -0.045244 -5.30142e-20)
(-0.0234486 0.035476 0)
(1.0263 -0.000601989 -4.33879e-21)
(1.01163 -0.0016933 5.01152e-22)
(1.02509 0.00950653 -3.47773e-22)
(0.987249 0.000673798 0)
(-0.0612318 0.0148982 1.66474e-20)
(1.04867 -0.0413049 0)
(1.04742 -0.00286334 0)
(1.03597 -0.0981602 -6.4319e-21)
(0.328434 -0.0657611 -2.76648e-21)
(1.02274 -0.0606671 -2.15549e-21)
(1.14587 -0.0562347 0)
(1.07583 -0.140604 -2.83571e-21)
(1.01739 -0.0413412 -1.37081e-21)
(0.818439 -0.030185 0)
(0.992846 0.0273246 1.02869e-22)
(1.11503 -0.0226131 -4.61496e-22)
(1.03841 -0.0542841 2.80879e-22)
(0.131118 0.0106602 8.7706e-22)
(0.707586 -0.0329556 -2.40206e-20)
(0.643648 -0.140453 -1.25059e-21)
(1.02628 -0.000622038 1.26982e-21)
(1.01079 -0.00312679 -3.94283e-22)
(0.987314 -0.00879674 1.389e-21)
(1.11248 -0.0666806 -9.61169e-21)
(0.238066 0.0152152 0)
(1.12177 -0.040959 0)
(0.115786 0.00760771 0)
(1.05467 -0.00781462 -3.22099e-21)
(0.832142 0.0148188 -5.89941e-22)
(1.0311 -0.00747055 -4.41638e-21)
(0.0842187 0.0257451 -2.88195e-20)
(1.0223 -0.0629684 -3.3049e-21)
(0.358198 0.0876906 0)
(0.999902 -0.0429471 0)
(0.811714 0.00278134 6.69676e-21)
(1.08701 -0.0220281 5.2485e-21)
(0.983222 0.0198928 -1.40124e-21)
(1.18146 -0.0212909 0)
(0.995152 -0.0331031 1.10416e-21)
(0.987813 0.0315156 1.36954e-22)
(1.09606 -0.0246483 0)
(1.08684 -0.0206491 0)
(0.986831 0.000277812 2.08062e-22)
(1.14084 -0.0548123 0)
(0.418912 -0.0190526 3.02877e-20)
(0.971867 -0.0280858 -1.95482e-22)
(0.987907 0.000138896 4.08778e-22)
(-0.057914 0.0560458 3.22858e-21)
(1.13058 -0.0345175 7.74593e-22)
(1.02803 -0.0327142 0)
(1.08753 0.00247392 -8.43773e-21)
(1.01481 0.00050543 -3.25429e-23)
(0.999139 -0.0386309 -3.04064e-21)
(1.13643 -0.0336714 1.50103e-20)
(1.02486 0.00585125 7.08552e-24)
(0.58337 -0.0305128 0)
(0.997047 -0.0517182 -2.93745e-21)
(0.987629 -7.84059e-05 7.34988e-22)
(0.981941 0.0199358 -4.54481e-22)
(0.995505 -0.0325283 -1.10715e-21)
(0.993984 -0.000100758 0)
(0.986766 -0.000124594 -1.36726e-21)
(0.903127 -0.206216 -3.42982e-21)
(0.445266 -0.0234343 0)
(1.02052 0.0052002 0)
(0.996608 -0.000720696 0)
(1.00862 -0.00130608 4.7294e-22)
(0.00579256 0.0980635 -4.20248e-20)
(1.0865 0.00128194 0)
(0.695752 -0.047666 0)
(0.814464 -0.0877228 9.82004e-22)
(0.970292 -0.0821257 0)
(1.01801 0.0328668 0)
(0.961242 -0.0688607 0)
(1.12608 -0.038179 -4.03354e-22)
(1.01637 -0.0346276 1.59062e-22)
(1.15424 -0.0732555 0)
(1.01727 -0.0193012 5.57524e-22)
(0.994832 -0.0055439 3.54194e-22)
(0.146512 0.00781338 -7.89874e-22)
(1.03098 -0.00686118 3.74669e-21)
(0.88938 -0.191548 6.53408e-21)
(0.995624 -0.00207325 0)
(1.02021 0.0047294 -3.73704e-22)
(0.724873 -0.0334761 9.74186e-21)
(0.0493404 -0.117781 0)
(0.321943 -0.0784118 2.52098e-20)
(-0.0714423 0.0503079 0)
(1.01084 -0.00155837 1.59915e-21)
(0.985438 -0.015655 0)
(1.02565 0.0195944 0)
(1.06396 -0.0278947 4.06448e-21)
(0.923985 0.00902525 9.47914e-23)
(1.07835 0.0214786 -5.9743e-24)
(1.15277 -0.0763608 -8.7909e-21)
(1.04356 0.000731046 0)
(0.935612 0.0568815 -7.8651e-22)
(1.15646 -0.0139198 -4.69729e-20)
(1.00805 -0.00160171 1.62448e-22)
(0.0605681 0.0220316 0)
(0.987378 0.000690944 8.96037e-22)
(1.07031 -0.0156742 2.4159e-22)
(1.06259 -0.0282528 0)
(1.00043 -0.0141302 1.21386e-22)
(1.04983 -0.0356769 0)
(1.16356 -0.0470411 3.50062e-20)
(1.14647 -0.0347623 1.86105e-20)
(1.03734 0.00780129 0)
(1.10192 -0.0153726 -1.35849e-20)
(-0.0551311 0.0156851 -2.05861e-20)
(0.994325 -0.00529603 -4.1822e-22)
(1.06163 -0.0519322 0)
(1.02388 0.0148715 -5.06552e-22)
(1.08017 0.0254232 1.27201e-24)
(1.11679 -0.0218303 3.18823e-23)
(1.01643 -0.0337287 -7.18259e-22)
(0.310649 -0.0169497 -4.83568e-20)
(0.224434 0.0162387 -5.87857e-21)
(0.98655 -0.000289034 0)
(1.00109 -0.0144594 -1.24662e-22)
(0.257125 -0.102103 -2.77986e-20)
(0.994217 -0.00480892 2.05059e-22)
(0.983036 -0.117018 0)
(1.12408 -0.0384321 0)
(0.987553 -0.0176015 0)
(0.862788 -0.0623412 -8.01525e-21)
(1.0271 0.00673243 -1.99114e-22)
(1.08172 -0.0317122 4.38901e-21)
(0.681125 -0.0321801 2.48396e-22)
(1.03055 -0.00562769 0)
(1.11385 -0.0709223 1.83219e-20)
(1.02507 0.00172565 4.66584e-23)
(0.99335 0.00097081 9.39249e-22)
(1.01851 -0.0419888 -1.3941e-21)
(1.0104 -0.00195713 0)
(1.13916 -0.0630575 -1.55856e-20)
(1.10376 -0.0585359 1.25945e-24)
(0.980075 0.0202439 1.93954e-22)
(-0.0311438 0.0321809 0)
(0.979764 0.0219991 2.87927e-22)
(1.11181 -0.0278522 1.92874e-20)
(0.3525 -0.0702136 1.5427e-20)
(1.06787 -0.0163437 -5.92976e-21)
(0.98572 -0.0151542 4.59823e-22)
(0.923942 -0.0579452 -2.90735e-22)
(0.987303 -0.0169778 5.16407e-22)
(0.98756 -0.00923775 -4.61517e-22)
(1.01769 0.0316236 6.19057e-22)
(0.186732 -0.0264014 2.75326e-20)
(0.998286 -0.000340722 0)
(1.02463 -0.0113952 -2.52228e-23)
(1.09484 -0.0566819 0)
(1.03135 -0.00586712 -3.18781e-21)
(0.176604 -0.131369 0)
(1.08161 -0.0260993 -1.07353e-21)
(0.253896 0.00318204 3.00941e-20)
(1.03179 0.00696703 0)
(0.447875 -0.0198859 3.39319e-20)
(1.02751 -0.0315875 0)
(0.853935 -0.0176 -8.88496e-22)
(1.02697 0.00524352 1.13497e-22)
(1.02639 0.0173338 0)
(0.891696 0.102066 0)
(1.02576 -0.0671542 -1.80717e-21)
(0.0615844 0.0157278 -2.66355e-20)
(1.02714 -0.00166608 -4.34524e-21)
(0.266552 0.00164796 -2.78344e-20)
(1.08227 -0.0271342 0)
(1.05618 -0.00789063 5.80461e-21)
(0.492293 -0.020712 2.21691e-20)
(1.15898 -0.0573715 2.66686e-23)
(0.366135 -0.0154102 0)
(0.995968 0.000583144 3.85223e-24)
(1.10063 -0.027916 -2.73601e-20)
(1.01192 0.000276615 8.41089e-23)
(-0.0470833 0.0555626 0)
(1.02786 0.00541037 -6.19565e-23)
(1.10183 -0.0519824 -4.17014e-22)
(1.01155 -0.120757 -4.40051e-21)
(0.986645 -0.000177842 0)
(0.98121 0.0222097 2.98358e-22)
(1.14526 -0.0286142 2.56686e-21)
(1.04786 -0.0756624 -4.49536e-22)
(0.216992 -0.127082 -2.30015e-20)
(1.09106 -0.151165 3.25614e-21)
(1.0265 0.0191144 4.70686e-22)
(1.02535 -0.0114668 1.56612e-21)
(0.993264 -0.0435667 0)
(0.940108 -0.0342806 -8.2223e-22)
(1.04715 0.0113373 5.54905e-23)
(1.09555 -0.0556708 -4.65555e-22)
(1.01798 0.000848413 1.61996e-22)
(0.328738 -0.0096433 0)
(1.13076 -0.0364496 0)
(0.803793 0.0550647 7.62562e-22)
(1.06158 -0.0302766 -3.96783e-23)
(1.07362 -0.0377837 0)
(0.990176 -0.0250563 -7.2816e-22)
(0.932699 -0.0359534 1.33691e-21)
(1.05007 -0.0182317 3.23407e-21)
(1.06296 -0.0299392 0)
(1.13805 -0.0239337 2.40782e-20)
(1.04066 -0.0474008 0)
(1.10308 -0.0616102 0)
(0.701445 -0.0330598 -5.03665e-21)
(0.204365 0.0224094 2.90214e-20)
(1.03134 -0.000672047 4.1918e-21)
(1.02573 0.0178625 -4.99173e-22)
(1.03648 -0.0514045 0)
(0.949102 -0.0545727 -2.69653e-21)
(1.0168 0.0267893 -4.80451e-24)
(0.77331 -0.0671508 1.36193e-20)
(1.06725 -0.0171183 6.47118e-21)
(1.04969 -0.0172598 0)
(1.09503 -0.0238277 0)
(0.523362 -0.0234709 8.51536e-23)
(0.931412 0.0413895 -8.60205e-22)
(0.989807 -0.0247872 0)
(1.06973 -0.0166547 6.61636e-21)
(0.978688 -0.0573014 -1.7238e-21)
(1.12014 -0.0392875 0)
(1.08165 -0.0499381 0)
(0.994937 -0.00603314 -2.19138e-22)
(0.845053 0.0201405 7.30916e-22)
(0.99895 0.0920891 1.34271e-22)
(0.362848 -0.0193233 2.614e-20)
(0.879342 0.0793811 -7.87159e-23)
(1.04839 0.0109706 -7.32106e-23)
(1.03111 0.00587215 4.82807e-23)
(1.01591 0.000486017 0)
(1.13645 -0.0231049 -7.94161e-21)
(0.939357 -0.0442102 4.38178e-21)
(0.993259 -0.12909 0)
(0.988367 -0.00790884 0)
(1.0276 0.000431238 8.77248e-22)
(0.976167 -0.0524704 0)
(0.827454 0.0119183 1.1469e-22)
(1.15227 -0.0792152 -3.65043e-20)
(1.04903 -0.0395489 -1.48059e-21)
(1.04812 -0.00348216 0)
(1.11706 -0.0273008 5.08085e-22)
(0.82419 0.00981792 -2.30495e-22)
(0.7958 -0.0661535 8.70933e-21)
(1.0642 -0.0488526 -2.99688e-21)
(0.37609 0.104425 0)
(0.995387 -0.00679872 1.07859e-24)
(0.345072 -0.0111984 -1.48445e-20)
(1.10077 -0.0147431 -1.80965e-21)
(1.07719 -0.0290532 0)
(0.375181 -0.0199556 1.25294e-20)
(1.03081 -0.0242206 0)
(0.998651 -0.0399438 -2.1229e-21)
(0.413838 -0.0117852 1.0906e-20)
(0.988501 -0.00755989 6.96661e-25)
(1.12945 -0.0230608 -2.71124e-20)
(1.09554 -0.0260897 7.38195e-21)
(1.04767 -0.0385739 4.16163e-21)
(0.0729051 -0.116428 -2.61123e-20)
(1.06435 -0.0498663 -3.46261e-21)
(1.04727 -0.0192955 7.06694e-22)
(0.473725 -0.0201198 5.09754e-21)
(1.02378 0.0108831 -4.31289e-22)
(1.07509 -0.0382987 -1.46476e-21)
(1.01776 0.0289294 0)
(0.395297 -0.0215563 -7.23889e-22)
(1.16665 -0.0207646 0)
(1.02757 -0.00182901 9.30391e-22)
(1.13443 -0.0306782 0)
(1.028 -0.000834212 0)
(0.243675 0.0204219 0)
(0.989882 -0.02612 -7.48438e-22)
(0.999549 0.00114561 1.83497e-22)
(0.999914 -0.0182535 -4.80788e-22)
(1.16571 -0.0215579 1.20903e-21)
(1.09922 -0.0265952 -9.01399e-21)
(1.07058 -0.0134545 8.43744e-21)
(1.02731 0.000543201 8.40687e-22)
(1.0308 -0.0236512 0)
(1.04614 -0.0194053 0)
(0.895914 0.0521498 3.50176e-22)
(0.203624 0.0920775 -1.49103e-20)
(0.328015 -0.0282168 3.41043e-20)
(1.03085 -0.055126 0)
(0.406303 -0.0219746 -1.12171e-20)
(0.565702 -0.0921229 7.5525e-21)
(1.02651 -0.000587911 1.44664e-21)
(1.11205 -0.0296983 -1.59577e-20)
(1.14463 -0.082595 3.64008e-20)
(0.996703 -0.0346583 0)
(1.04175 -0.0866655 0)
(1.16157 -0.0408291 3.77583e-20)
(0.865734 -0.067585 -2.42334e-20)
(0.994794 -0.0271923 -4.45658e-22)
(0.870595 -0.0531194 -2.44119e-21)
(0.385485 -0.0111906 1.30201e-20)
(1.02657 -0.000406993 -1.01115e-21)
(0.979772 0.0301437 0)
(0.968865 0.0141032 8.48939e-22)
(0.853547 -0.101715 -2.5684e-21)
(1.07083 -0.0125997 -1.71974e-20)
(1.04001 -0.0898013 0)
(-0.0529847 0.0512042 0)
(1.00131 -0.0151278 -5.45366e-22)
(0.842033 -0.0463821 2.64054e-21)
(0.999486 -0.0180308 0)
(1.02774 -0.000724075 -8.07202e-22)
(1.01989 0.00104522 -7.86473e-23)
(1.02563 0.00598397 0)
(1.00062 -0.0125202 1.85278e-22)
(0.411514 -0.0139841 0)
(0.867999 0.063205 0)
(1.02972 -0.014617 0)
(1.12788 -0.0219349 2.20178e-20)
(1.02593 0.0127576 4.00083e-22)
(0.369459 0.119386 0)
(1.0837 -0.0570807 1.78558e-21)
(0.910841 -0.144347 8.63771e-22)
(0.327634 -0.0207904 3.90731e-20)
(1.0297 -0.0153415 -5.51327e-22)
(1.02416 -0.0683396 5.66489e-21)
(1.09369 -0.0287826 7.28767e-21)
(0.94109 -0.15632 -1.07747e-21)
(1.01499 -0.0177798 -5.92704e-22)
(1.02022 0.00566467 0)
(0.992288 -0.0281328 0)
(-0.022426 0.0719903 0)
(1.01031 -0.00252243 0)
(0.0924959 -0.123989 3.59017e-20)
(0.995861 -0.034471 -1.24914e-21)
(1.16209 -0.0409049 -4.28062e-20)
(0.271963 -0.0150766 2.52373e-20)
(0.884685 -0.0126907 2.41136e-22)
(0.893174 -0.00112976 -7.44981e-22)
(0.987871 -0.0223893 -8.38512e-22)
(0.997771 -0.00627983 -1.3877e-22)
(1.02565 -0.000282407 1.47846e-21)
(1.03109 -0.0534967 2.22646e-21)
(1.13494 -0.0290745 0)
(0.110121 0.00147932 0)
(1.1183 -0.0190893 2.41618e-20)
(0.395801 -0.0177876 1.04396e-22)
(0.406839 -0.0123483 -3.51411e-20)
(1.02525 0.0130865 5.90367e-22)
(1.03199 -0.000586734 -2.75838e-21)
(0.310517 -0.0244235 -3.91916e-20)
(0.141163 0.008741 0)
(1.00915 -0.112318 2.29478e-21)
(0.461572 -0.0234215 -1.29003e-20)
(0.991631 -0.0282976 1.01402e-21)
(1.09535 -0.0296919 0)
(0.989258 0.000414622 -1.98259e-21)
(0.620514 -0.0921681 6.31762e-21)
(0.986519 -0.00245008 -2.12385e-22)
(1.08392 -0.0486398 0)
(0.988084 -0.0219808 -1.44019e-21)
(1.04183 -0.00215565 2.18021e-21)
(1.01348 0.000262918 3.16769e-23)
(0.988156 -0.00707762 -7.42371e-22)
(1.0245 0.0144849 0)
(1.14627 -0.0536973 0)
(1.05412 -0.0850011 0)
(0.276131 0.018256 -3.67996e-20)
(1.0353 -0.0541198 0)
(1.13643 -0.0318543 -1.66385e-20)
(1.01004 -0.0473501 0)
(0.926942 -0.0290592 2.85944e-22)
(1.07411 -0.0412134 -2.21026e-21)
(0.812448 -0.099992 0)
(1.07562 -0.0284265 -3.4708e-21)
(0.896851 0.113493 0)
(1.02072 0.00438187 0)
(0.988248 -0.00671407 0)
(0.99303 0.000608604 -8.45026e-22)
(0.928508 -0.101604 0)
(0.915586 -0.105864 0)
(1.15529 -0.0617221 -1.93711e-22)
(1.01129 -0.04723 0)
(0.250816 0.0192568 4.28621e-20)
(0.832797 0.058024 2.27009e-22)
(0.999907 -0.0412563 2.20456e-21)
(1.00745 -0.00115792 3.69221e-22)
(1.14656 -0.0274715 1.31634e-20)
(1.01471 -0.0170338 0)
(0.917096 -0.0328692 0)
(1.01376 0.000678385 1.2309e-22)
(0.676106 -0.0796907 -8.29324e-21)
(0.86815 -0.0798766 0)
(1.10224 -0.0648604 -5.20207e-22)
(0.252005 0.00617101 4.60566e-21)
(0.986616 -0.0169187 5.15643e-22)
(1.01306 0.083624 0)
(0.875886 -0.0929985 -3.19947e-22)
(0.130549 0.0962925 0)
(1.02527 0.00205453 -2.78402e-23)
(1.09836 -0.0316736 -8.75128e-21)
(1.12368 -0.0405689 0)
(0.921624 0.0474897 -9.87033e-22)
(0.986795 -0.0017198 8.98925e-22)
(1.04533 -0.0206684 -2.21942e-21)
(1.1549 -0.0132522 0)
(1.16167 -0.0445384 1.79555e-20)
(1.03493 -0.0596793 -1.08936e-21)
(0.477349 0.197855 -6.54655e-21)
(0.99551 0.000820754 7.24758e-22)
(1.00016 -0.0191264 1.49595e-21)
(0.00716873 0.0830144 -2.16438e-20)
(1.06117 -0.0539381 6.67561e-22)
(1.03036 0.00548972 0)
(0.740547 0.026265 2.9041e-21)
(0.997362 -0.00601666 1.43079e-22)
(1.01854 -0.0376042 0)
(0.987722 -0.00352199 1.45463e-21)
(1.07108 -0.0699652 0)
(1.04591 -0.0338137 -2.33468e-21)
(1.03099 0.00648548 -1.22235e-22)
(0.98633 -0.0163465 -1.02751e-21)
(0.496109 -0.0242478 4.17201e-21)
(1.03187 -0.0079146 2.86163e-21)
(1.12056 -0.0220529 1.75931e-20)
(0.996227 -0.00239958 2.43908e-22)
(1.00235 -0.0354256 -1.85734e-21)
(0.952236 0.110504 -6.15747e-22)
(0.994631 -8.19199e-05 4.80176e-22)
(1.01173 -0.0198366 1.14611e-23)
(0.990809 -0.000144191 1.34598e-22)
(0.990703 -4.46672e-05 0)
(1.01708 -0.0969346 -5.66429e-22)
(1.0502 -0.0157781 0)
(0.998177 -0.0441822 -1.17975e-21)
(1.03036 -0.00504495 0)
(0.989038 0.000596972 1.58637e-21)
(-0.04974 0.0266076 2.8899e-21)
(0.239391 0.00748983 0)
(1.03279 -0.00577639 3.90225e-21)
(1.00184 -0.035408 2.48826e-21)
(1.07571 -0.0407871 -5.28656e-21)
(0.945908 -0.0427197 -3.88928e-22)
(0.0775061 0.0234049 2.78216e-20)
(1.00071 -0.0193316 0)
(0.884635 0.0439116 9.92022e-22)
(1.01599 -0.018144 0)
(1.13148 -0.0616027 0)
(1.04417 -0.00357063 -1.30435e-21)
(-0.0450968 0.0612764 -1.93944e-20)
(1.02102 0.00303263 1.49303e-22)
(-0.0201928 0.0456361 2.96387e-20)
(1.10434 -0.0680437 0)
(1.02369 0.00965699 1.93272e-22)
(1.00125 -0.0347854 0)
(0.357209 -0.0119687 2.12576e-20)
(1.10093 -0.0532221 -1.21958e-20)
(0.974849 0.107552 -1.07181e-22)
(0.997266 -0.000989693 4.78983e-23)
(0.857325 -0.000347881 -9.59383e-22)
(1.01125 -0.00126982 -9.55272e-22)
(0.992168 -0.00411731 2.59663e-22)
(0.994504 -0.00674385 -2.17052e-22)
(1.04128 0.000395273 2.10793e-21)
(0.16184 0.00542999 -2.30942e-20)
(1.14257 -0.0347274 0)
(1.16371 -0.0339223 -9.72421e-21)
(0.887331 -0.0511005 -6.05127e-20)
(1.02462 -0.0647246 0)
(1.03814 0.00846974 0)
(0.612929 -0.0547249 7.47705e-21)
(0.910814 -0.100089 9.07722e-22)
(1.08324 -0.0310241 5.17313e-21)
(1.10174 -0.0167691 1.16396e-20)
(0.952868 -0.0392423 4.08798e-22)
(0.829818 -0.0642198 4.79317e-22)
(0.48132 -0.0221084 -1.00866e-20)
(1.02443 -0.000392118 1.29018e-21)
(-0.0482528 0.0584349 -3.19408e-20)
(0.112096 0.00755558 0)
(0.145432 -0.019595 1.08993e-20)
(1.06367 -0.0516258 2.50585e-21)
(1.00081 -0.0348542 1.03567e-21)
(0.865688 -0.144394 -8.82e-22)
(1.00435 0.0921503 9.61874e-24)
(1.04151 -0.0532661 0)
(0.887302 -0.0360462 4.76085e-22)
(0.539171 -0.0848941 1.38437e-21)
(1.04958 -0.0370491 0)
(0.515767 -0.0920154 6.03159e-22)
(0.685176 -0.0313223 0)
(1.0212 0.00353949 -4.7434e-22)
(1.0111 0.0903893 2.93815e-22)
(1.14437 -0.0336924 0)
(0.217766 0.0119997 -2.35065e-20)
(1.06172 -0.0317914 -1.79989e-21)
(1.02426 -0.00734104 0)
(1.00027 -0.0135025 -4.24432e-22)
(1.02127 -0.0162224 -5.49135e-22)
(1.13991 -0.0602126 1.50824e-20)
(1.05616 -0.0725534 0)
(0.880867 -0.0293807 -1.03184e-20)
(0.458385 0.198159 0)
(0.991207 -0.00166863 0)
(0.00956509 0.0863661 4.03737e-20)
(0.279714 0.00781086 0)
(0.997376 -0.0349615 -3.20117e-21)
(0.899272 -0.102633 -1.98203e-21)
(1.11882 -0.0228879 -1.76563e-20)
(1.02896 0.00470825 -2.26732e-23)
(0.987911 -0.00627723 5.54842e-22)
(1.06044 0.0313647 0)
(0.582636 -0.0493962 0)
(1.07174 -0.0157239 6.90052e-22)
(1.16 -0.0197187 -3.63401e-20)
(1.17741 -0.0254337 0)
(1.02549 0.00906888 9.77676e-24)
(1.0081 -0.0495696 6.1283e-22)
(0.881075 -0.0504797 -3.51137e-21)
(0.945425 -0.0992979 -4.72382e-21)
(1.15916 -0.0463002 -1.295e-20)
(0.170584 0.00457772 -1.72055e-20)
(0.680323 -0.0308615 2.53367e-21)
(1.01625 -0.0189119 0)
(1.0423 -0.00152282 2.20385e-21)
(0.536534 0.086934 -1.98858e-21)
(0.398522 -0.0111489 3.88636e-20)
(1.16509 -0.0253084 2.96401e-21)
(1.11861 -0.0174548 -9.81752e-21)
(1.02134 -0.0584329 4.41163e-21)
(1.02622 0.00659923 2.15728e-22)
(1.01634 -0.0101206 0)
(0.641727 -0.086471 8.18437e-22)
(1.02485 0.00828148 1.54972e-22)
(1.06027 -0.0320856 -1.62279e-21)
(1.02733 0.00626671 7.86098e-23)
(0.999659 -0.004446 5.60418e-23)
(0.66412 -0.0318799 -2.62031e-21)
(1.14318 -0.0569725 0)
(1.0116 -0.0453348 0)
(1.02526 0.00793229 0)
(0.12688 -0.121051 -1.37953e-20)
(0.936773 -0.0802952 -2.16119e-21)
(0.996624 -0.00713419 0)
(0.9892 0.00120986 0)
(1.01592 0.0271948 0)
(1.02621 -0.00038878 -5.98205e-21)
(-0.0385541 0.0679305 0)
(0.828132 0.0244113 -1.67712e-21)
(0.82941 0.0181912 0)
(0.121534 -0.0212409 1.83101e-22)
(0.827034 0.017366 -1.35803e-22)
(1.11559 -0.0159422 0)
(0.200406 0.0141544 0)
(0.23535 0.00577946 0)
(0.994795 -0.0278436 0)
(1.11512 -0.0244381 1.57335e-20)
(1.02939 0.00461123 1.86955e-23)
(1.01691 0.0303976 -6.60348e-22)
(1.08829 -0.0486577 2.88935e-21)
(0.543306 -0.0315943 0)
(0.899526 -0.0408059 0)
(1.15895 -0.0205713 3.66108e-20)
(1.09131 -0.0346126 8.5518e-21)
(0.98808 -0.00509013 0)
(1.08014 -0.0519311 -3.95319e-21)
(0.983871 -0.0132988 0)
(0.969676 0.107087 -3.0773e-22)
(1.14492 -0.039954 2.15581e-20)
(1.02965 -0.00480675 -6.05461e-21)
(1.03199 -0.0564765 -1.65151e-21)
(0.986966 -0.00179596 -8.11209e-22)
(1.09562 -0.0211257 5.1527e-21)
(1.15602 -0.0648663 -1.47367e-20)
(1.04609 -0.00293357 5.04196e-21)
(1.01377 -0.0167149 1.27394e-22)
(1.08499 -0.0562833 -2.05358e-21)
(1.04425 -0.00952461 -4.28031e-21)
(1.1376 -0.058038 1.03067e-21)
(0.968516 -0.101883 -1.35159e-20)
(1.15608 -0.0566233 1.85345e-20)
(1.07849 -0.054183 -1.84774e-21)
(1.16527 -0.024405 0)
(0.988144 -0.0047934 0)
(1.01301 -0.098295 -4.60629e-22)
(0.990258 -0.0258022 -5.68377e-23)
(0.0867895 -0.0112993 -3.58059e-20)
(1.02819 -0.0308193 5.57073e-22)
(0.986459 0.00018261 -1.45745e-21)
(0.613384 -0.0303024 0)
(1.03904 -0.0410841 -5.45257e-22)
(0.255631 -0.0104555 0)
(0.358406 -0.00965201 -3.11159e-20)
(0.0118251 0.0361402 2.78667e-20)
(0.733265 0.0162947 0)
(0.98674 -0.0025429 0)
(0.673817 -0.0325508 -2.16981e-20)
(1.05037 0.0115474 0)
(0.998868 -0.00514771 0)
(1.0215 0.00276919 0)
(0.999776 -0.00498441 0)
(1.06493 0.0143547 0)
(1.03373 -0.0544542 8.04594e-22)
(1.06869 -0.0681742 0)
(1.02473 0.00723848 1.41285e-22)
(0.511758 -0.108546 -6.75749e-21)
(1.10616 -0.0647743 0)
(0.48289 -0.106742 -8.71721e-21)
(0.998013 -0.0120666 8.02054e-22)
(1.02237 0.00206822 3.13299e-22)
(1.0045 0.00176402 3.73865e-22)
(1.15128 -0.084441 -1.02609e-20)
(0.352495 -0.0817168 0)
(1.14191 -0.0175522 0)
(1.09618 -0.0220562 0)
(1.05086 0.0124969 -2.22087e-23)
(0.988521 0.000496987 7.20351e-22)
(0.990607 -0.00100091 2.4947e-22)
(0.999738 -0.0153078 2.09969e-22)
(0.966989 -0.0369632 -5.5526e-20)
(0.287129 0.12885 -4.46663e-22)
(1.04319 -0.00929844 -4.31551e-21)
(1.02511 0.00690685 -1.33477e-22)
(1.04157 0.00107614 2.28554e-21)
(1.00016 -0.0150778 5.40424e-22)
(0.812452 -0.0740435 1.38648e-21)
(-0.0398309 0.0188184 -2.19712e-20)
(1.08163 -0.05154 0)
(0.397654 -0.0207022 4.75514e-20)
(0.851711 -0.0217961 1.16778e-21)
(1.01352 -0.0159863 1.64269e-22)
(1.1631 -0.0351018 0)
(0.0710607 0.0891723 3.88097e-21)
(1.11705 -0.0255068 0)
(0.307797 0.0774063 1.30145e-20)
(1.05394 -0.0086357 6.38656e-21)
(1.03796 -0.0522005 -2.79117e-22)
(1.14045 -0.0180636 -1.19367e-21)
(1.0352 -0.0520728 0)
(0.882373 -0.0457089 3.65121e-21)
(1.03198 -0.0055468 -1.15154e-21)
(0.852792 -0.117828 0)
(1.01364 0.000522611 3.74404e-22)
(1.11639 -0.00234171 -2.2465e-20)
(0.270533 0.0031647 1.25653e-20)
(0.985326 -0.00825108 4.35351e-22)
(1.0345 -0.0378281 -1.12546e-21)
(1.02218 -0.0568758 -2.0879e-21)
(0.992238 -0.00454943 -5.42421e-22)
(1.0802 -0.0307982 -4.13419e-21)
(0.966685 -0.0494597 0)
(0.205926 -0.0915992 0)
(1.14301 -0.0410483 0)
(0.814952 -0.0710528 -3.43954e-20)
(0.86786 -0.0168623 -2.61221e-22)
(1.02669 0.00567969 8.75521e-23)
(0.99791 -0.0114402 4.60488e-22)
(-0.052327 0.0179091 -2.66389e-21)
(1.1813 -0.023502 1.01629e-20)
(1.04888 -0.0793445 0)
(0.374937 -0.0112109 4.05709e-20)
(0.984823 -0.0018238 0)
(1.02224 4.27276e-05 -3.00245e-21)
(1.02062 0.00383165 3.26771e-22)
(0.840108 0.0364743 7.78785e-22)
(0.814377 -0.0328129 3.84997e-20)
(1.06096 -0.0450107 2.50859e-21)
(1.01835 -0.0287537 0)
(0.943513 0.112053 -5.6132e-23)
(1.08409 -0.0159391 1.0279e-20)
(1.00527 0.00194308 -1.80669e-21)
(0.033128 0.0746918 -1.86397e-20)
(1.04304 -0.0431135 -3.40063e-21)
(0.33919 0.00123465 0)
(1.02428 0.0104618 -4.07324e-22)
(1.04297 -0.00846489 5.25693e-21)
(0.215313 0.0142359 0)
(-0.0169582 -0.0197177 1.55442e-20)
(1.1697 -0.0216386 3.52208e-21)
(0.984105 -0.0128995 4.73639e-22)
(0.572386 -0.0284903 -4.53941e-20)
(1.03165 -0.00657196 1.92995e-21)
(0.91442 0.111328 -1.75983e-22)
(1.10857 -0.092993 1.13186e-20)
(1.1015 -0.0673299 -7.92979e-21)
(1.07189 -0.0352384 5.36895e-21)
(0.0364235 0.0293876 2.75168e-20)
(0.988699 -0.023433 0)
(0.981845 -0.012225 8.22366e-22)
(0.910368 -0.0303512 -3.10279e-20)
(0.986569 0.000175317 0)
(0.999059 -0.000189967 1.49703e-22)
(1.04708 -0.0348391 4.70442e-21)
(0.987861 -0.00442924 -8.02187e-22)
(0.0320175 0.0725463 1.83917e-20)
(1.089 -0.0441929 -6.00872e-21)
(1.16072 -0.0447339 2.6392e-20)
(1.01274 -0.0453704 1.04365e-21)
(0.984769 0.0993789 -3.72386e-22)
(0.988393 -0.00550984 1.79561e-22)
(0.962702 -0.0548742 0)
(0.992116 -0.000698368 8.3843e-23)
(0.988244 -0.0232295 0)
(1.02092 0.00227904 0)
(1.01239 -0.0149872 2.70426e-22)
(1.00537 -0.00215976 0)
(0.402178 -0.0103729 -3.05348e-20)
(1.00076 -0.0131656 2.32042e-22)
(1.01966 0.00726818 -4.67237e-22)
(0.97932 -0.0508681 3.11777e-21)
(1.04352 -0.00141635 0)
(0.234147 0.0116656 2.29441e-20)
(1.00936 0.000519239 0)
(0.984839 -0.0144689 4.85671e-22)
(1.15005 -0.0253408 -8.88349e-21)
(0.759067 -0.0654687 -4.13876e-21)
(0.844125 0.0745654 -3.35009e-22)
(0.989582 -0.00113349 -5.73801e-22)
(0.986957 -0.0553985 5.31567e-21)
(0.417884 -0.0259003 -4.25808e-20)
(1.05065 -0.0167174 0)
(0.480037 -0.0194334 2.02354e-20)
(1.11499 -0.00290298 3.04371e-20)
(0.987664 -0.00381003 -3.96661e-22)
(0.98228 -0.0156958 3.19155e-22)
(0.0212009 0.0851738 0)
(0.990053 -0.0525366 -2.81155e-21)
(1.07093 -0.0406172 -2.27062e-21)
(0.99127 -0.00143476 -1.32594e-22)
(1.02457 0.00623835 -1.20526e-22)
(0.893545 -0.0916754 8.95256e-22)
(1.09799 -0.070068 0)
(1.08665 -0.0774678 0)
(1.06241 -0.0481299 4.94398e-21)
(0.981798 -0.0166227 2.81354e-22)
(1.02552 -0.000411013 -3.03212e-21)
(0.984591 -0.0139256 -4.9126e-22)
(1.1611 -0.0152751 0)
(0.926097 -0.0980657 -3.39989e-22)
(1.13631 -0.0635122 0)
(0.918288 -0.0505764 0)
(1.04194 -0.00822711 0)
(1.13419 -0.0612848 0)
(1.15316 -0.0335673 2.19954e-21)
(0.409906 -0.0231362 2.62369e-20)
(1.05919 -0.0453541 0)
(0.0776963 -0.116458 -1.41662e-20)
(0.912241 -0.0538005 2.50735e-20)
(1.04402 -0.000680625 4.18415e-21)
(0.172261 -0.000638913 5.69774e-20)
(1.01711 -0.0918893 -3.30739e-21)
(0.430093 -0.0544005 -2.39592e-20)
(0.228548 -0.0743575 0)
(0.428398 -0.0141603 -2.15805e-20)
(0.954346 -0.041784 1.63904e-22)
(1.09093 -0.05228 1.16333e-20)
(0.98792 -0.00413879 0)
(1.02991 -0.0524109 -8.14476e-22)
(-0.0685138 0.0232019 1.61445e-20)
(0.119877 0.0159897 -3.39106e-20)
(0.996991 -0.0165886 0)
(0.991158 0.000496405 0)
(1.14574 -0.0306047 0)
(0.882018 0.0050037 1.06664e-21)
(1.02085 0.00975128 1.43107e-22)
(-0.0242804 0.0130623 0)
(0.985027 -0.00158963 0)
(1.03159 -0.0128818 4.36011e-21)
(0.0159051 0.0765958 2.05543e-20)
(0.221766 0.0143544 2.20789e-20)
(0.859455 -0.0107382 0)
(0.998556 -0.00540067 9.87648e-23)
(1.02771 -0.000369375 8.28666e-22)
(-0.0231926 -0.0106893 1.64924e-20)
(0.996002 -0.0388186 2.7637e-20)
(1.16516 -0.0250252 -2.65474e-21)
(0.996985 -0.0266761 4.14396e-22)
(0.360633 -0.0286926 5.29573e-22)
(0.968058 -0.101354 3.90009e-21)
(0.399695 -0.0798536 0)
(1.13452 -0.0346124 1.43046e-20)
(1.12621 -0.0229066 1.17516e-20)
(1.04631 -0.0204621 0)
(1.0436 -0.00283694 -2.52602e-21)
(0.598708 -0.14231 1.77883e-21)
(1.14137 -0.0108368 -2.19227e-20)
(0.135759 0.00764879 -2.00466e-20)
(0.990995 -0.0278063 1.73719e-21)
(1.11643 -0.0198339 -1.52659e-20)
(0.0455654 0.063891 1.85303e-20)
(0.411461 -0.0488187 -2.61178e-20)
(0.262952 0.0108481 2.04217e-20)
(1.03571 -0.00521311 0)
(1.11335 -0.0131149 1.71537e-20)
(0.996204 -0.00685638 -1.83141e-22)
(1.08015 -0.0536513 6.20878e-21)
(1.03327 -0.0374866 8.35271e-22)
(0.253021 0.086543 -3.22053e-21)
(1.01546 -8.17449e-05 2.33215e-21)
(0.23883 -0.00383836 -2.52086e-20)
(1.02004 0.00940692 1.69866e-22)
(1.14868 -0.0256152 -1.53817e-20)
(1.01569 -0.0130094 0)
(1.0804 -0.0988338 0)
(1.11757 -0.0164116 0)
(1.11187 -0.0142356 -9.79241e-22)
(0.400128 -0.0187863 -4.0074e-20)
(1.13133 -0.0194945 -7.06713e-21)
(1.07101 -0.0731018 -1.03734e-21)
(0.987974 -0.000286647 -6.49913e-22)
(1.14831 -0.0276564 0)
(0.979751 -0.136341 0)
(1.01808 -0.0671191 0)
(1.05887 -0.0338925 0)
(0.213009 0.0145805 0)
(1.01663 0.0257395 1.06237e-21)
(0.314472 -0.056287 7.40762e-21)
(0.907666 0.0143584 -4.92203e-22)
(1.04002 -0.0181746 0)
(0.425757 -0.0171894 -2.92554e-20)
(-0.0381946 0.0633862 -1.62634e-20)
(0.246515 0.0103409 -2.05891e-20)
(0.950918 -0.0454002 1.34718e-22)
(0.990763 -0.0270596 -1.63196e-21)
(0.999113 -0.0168714 -3.82222e-22)
(0.331356 0.00311699 0)
(1.02261 -0.00019328 -8.99238e-23)
(0.928349 -0.197071 -4.25824e-21)
(0.248347 0.00259077 0)
(0.999022 -0.0121293 -2.15044e-22)
(1.07366 -0.00294295 9.52467e-21)
(0.956953 -0.0995668 8.39083e-21)
(0.926813 -0.0895732 2.52918e-21)
(0.0613154 -0.0903964 0)
(1.04041 -0.012297 2.05503e-21)
(0.987334 0.000815519 -5.07809e-22)
(0.501383 0.00264445 5.80363e-22)
(0.260738 0.00324581 -7.69316e-21)
(1.15963 -0.0485937 0)
(1.06936 -0.0395769 4.54922e-21)
(0.997674 -0.025698 -8.95819e-22)
(0.921249 -0.00482667 0)
(-0.00122644 0.0633703 7.1968e-20)
(1.1539 -0.034937 0)
(1.01942 0.00766119 7.37091e-22)
(1.09209 -0.0525198 -1.28527e-20)
(0.992982 -0.00456711 0)
(0.999188 -0.000660184 0)
(0.937841 0.00100648 -9.54646e-22)
(0.989086 0.000326072 -4.68802e-22)
(0.665233 -0.0965135 -1.568e-21)
(0.905765 -0.0268773 0)
(1.03162 -0.0135954 -4.61547e-21)
(0.985706 -0.0162479 0)
(0.999031 -0.0173118 0)
(1.04855 -0.0346384 3.59703e-21)
(0.165764 0.0116844 0)
(0.350896 -0.0146896 0)
(1.09865 -0.0300574 8.44803e-21)
(0.0815632 -0.127931 -1.01053e-20)
(1.01594 -0.0125132 -1.88644e-22)
(1.09665 -0.0322261 2.79634e-22)
(0.998503 -0.0162348 4.68432e-22)
(0.993408 -0.00479711 -6.85182e-22)
(1.03257 -0.0213543 -9.81402e-22)
(1.03071 -0.0137424 3.08604e-21)
(0.201804 0.00887756 -2.94479e-20)
(1.03311 -0.00633114 -2.88297e-21)
(1.13991 -0.0201204 1.06384e-20)
(1.03609 -0.00583045 0)
(1.07249 -0.0401172 4.4906e-21)
(0.921584 0.00975113 5.58321e-22)
(-0.0129387 -0.0375198 1.58124e-20)
(0.996283 -0.000848105 7.1207e-23)
(0.544556 0.0979246 1.88154e-21)
(1.08991 -0.0779603 0)
(0.870821 -0.0427517 0)
(1.09038 -0.0440899 1.50965e-20)
(1.09678 -0.0405822 0)
(0.129162 0.00991074 -9.1445e-22)
(1.09609 -0.0196343 1.22539e-20)
(1.05051 -0.0737375 4.53527e-22)
(0.268687 0.0971895 -1.04396e-20)
(0.950558 -0.111217 0)
(-0.0230483 0.0703318 2.69305e-20)
(1.10603 -0.0457751 9.75911e-21)
(0.911301 0.0680503 -6.77968e-22)
(1.02746 -0.0295925 -6.2677e-22)
(1.12932 -0.0189488 -1.65016e-20)
(1.13249 -0.0336003 -1.44549e-20)
(0.0589111 -0.109649 0)
(0.98903 -0.000846624 0)
(0.118049 -0.117947 0)
(0.997385 -0.0110855 -7.6278e-22)
(0.998558 -0.0124163 0)
(0.0896439 -0.0209728 0)
(1.01835 0.0309329 1.00542e-21)
(0.79513 -0.0574746 -2.00135e-20)
(1.07325 -0.0358908 0)
(0.994966 -0.00701847 0)
(1.00974 -0.0492882 0)