/*--------------------------------*- C++ -*----------------------------------*\
| =========                 |                                                 |
| \\      /  F ield         | OpenFOAM: The Open Source CFD Toolbox           |
|  \\    /   O peration     | Version:  v2012                                 |
|   \\  /    A nd           | Website:  www.openfoam.com                      |
|    \\/     M anipulation  |                                                 |
\*---------------------------------------------------------------------------*/
FoamFile
{
    version     2.0;
    format      ascii;
    class       volScalarField;
    location    "800";
    object      p;
}
// * * * * * * * * * * * * * * * * * * * * * * * * * * * * * * * * * * * * * //

dimensions      [0 2 -2 0 0 0 0];


internalField   nonuniform List<scalar> 
13851
(
-0.346371
-0.0889461
-0.0872856
-0.414887
-0.00476886
-0.0995972
-0.0717024
-0.020102
-0.305304
0.0317245
-0.168103
0.00675715
0.0400548
-0.40522
-0.15629
-0.142747
-0.248467
-0.0411904
-0.418302
-0.342495
-0.178227
-0.0357048
-0.390884
-0.0017917
-0.255218
-0.137653
-0.267883
-0.541499
-0.0916209
-0.0253544
-0.296913
-0.072086
-0.316708
-0.530326
-0.142707
-0.0861856
-0.00169349
-0.244161
-0.284479
0.00231408
-0.561644
-0.0961339
-0.300732
-0.175644
-0.126563
-0.0127312
-0.0267935
-0.176396
-0.0476017
0.0408973
-0.38423
0.0500195
-0.145071
-0.102858
-0.266052
0.00363764
-0.327008
-0.561931
-0.182077
-0.536171
0.00686233
-0.266636
0.0294301
-0.0475194
0.044603
0.050873
-0.538053
0.277559
-0.0167785
-0.378125
-0.275739
-0.202724
0.021405
-0.533921
-0.118094
-0.0147912
-0.252669
-0.0282534
-0.260784
0.0020811
-0.01829
-0.225037
-0.138027
-0.429966
-0.53255
-0.287592
-0.0392372
-0.0787073
0.0287658
-0.296633
0.0512718
-0.0743009
-0.329707
-0.292997
-0.367375
-0.143955
-0.00451891
-0.160309
-0.487925
-0.195939
-0.163107
0.188574
0.183307
0.0267726
-0.0179948
-0.194643
-0.0171461
-0.279309
-0.0744506
-0.0401553
-0.0214694
-0.0137504
-0.276261
-0.200938
-0.279191
-0.101475
-0.01905
-0.0205223
-0.417228
-0.381135
-0.144135
-0.0338781
-0.00984094
-0.52847
-0.445363
0.318938
-0.00537818
-0.127675
-0.547007
-0.186017
-0.0315603
-0.112054
-0.241255
-0.51938
-0.173067
-0.335358
0.269496
-0.285098
0.160565
-0.178817
-0.22346
0.0422683
0.0296292
0.198872
-0.325369
0.00158196
-0.028107
-0.295424
-0.157704
-0.131461
-0.167827
-0.269949
-0.205917
-0.402113
0.0488825
0.0401446
0.00472143
-0.283758
-0.172373
-0.0781977
-0.00150322
-0.0876669
-0.19161
-0.181014
-0.395626
-0.263514
-0.274584
-0.379185
-0.0221458
-0.520389
0.00768835
-0.0191688
-0.218141
-0.00338395
-0.366653
-0.409402
-0.20545
-0.0199637
-0.114183
-0.200461
-0.436736
-0.171337
-0.0280734
-0.181799
-0.248048
-0.153223
-0.318595
0.125387
0.0436564
-0.02125
-0.322713
-0.172605
-0.402106
-0.102482
-0.000493154
-0.15227
-0.307269
-0.0554789
-0.0468084
0.261378
-0.221269
-0.449289
-0.547583
-0.15351
-0.171569
-0.453823
0.0851469
-0.165392
-0.336459
-0.0894806
-0.137797
-0.00911785
-0.222703
0.00784572
-0.149067
-0.0186994
0.0395825
-0.442713
-0.053475
0.373659
-0.0201615
-0.3497
-0.43227
-0.347572
0.113543
-0.165913
0.0073403
0.20382
0.00796343
-0.144693
-0.419585
0.120371
-0.0900071
0.03018
-0.545708
-0.0262225
-0.375757
-0.540726
-0.19053
-0.00133424
-0.268019
-0.5281
-0.123645
-0.139493
-0.146761
0.217294
-0.425894
-0.113547
-0.139068
-0.0422909
-0.143168
-0.345162
-0.0158533
-0.107081
-0.156828
-0.0832597
-0.0783385
-0.0208829
0.333705
0.0270563
-0.372152
-0.427389
-0.109957
-0.19608
-0.350354
0.0126888
0.191083
-0.183492
-0.548721
0.0200181
0.0400928
0.118839
-0.382054
-0.404349
-0.190216
-0.0349484
-0.450358
-0.415307
-0.27532
-0.19337
-0.38751
-0.526063
-0.11226
-0.144507
-0.259442
-0.0211316
0.00366665
-0.285316
-0.149255
-0.0277275
0.00670539
0.00862742
-0.00779376
-0.146377
0.00403295
-0.318285
-0.183201
-0.00541038
-0.0864896
-0.522372
0.0473248
-0.354678
-0.438977
0.0434431
0.0488002
-0.187997
-0.459731
-0.229125
-0.237351
-0.00501788
-0.522497
0.00758238
-0.247462
-0.435222
-0.54921
-0.07621
-0.259439
-0.237606
-0.267108
-0.26026
0.21579
-0.334182
-0.536276
-0.532863
-0.0483813
-0.291876
-0.0773973
0.325561
0.305639
0.0859092
-0.230867
0.0633959
-0.0757034
0.204648
-0.0128023
-0.0268628
-0.0732503
-0.271505
0.366272
-0.0213885
-0.349908
0.0746363
-0.112185
-0.0784205
-0.451322
-0.443881
-0.148782
-0.0161455
-0.0865513
-0.0911279
0.0434987
-0.41803
-0.110579
-0.18886
0.0796377
0.0280518
-0.00649144
-0.216648
-0.200928
-0.353551
-0.241206
-0.0905854
0.000316464
-0.54428
-0.417477
-0.0344537
-0.545333
-0.290149
-0.483538
-0.0713626
-0.125032
-0.183695
-0.223851
-0.210213
-0.0864638
-0.050806
-0.421789
-0.30385
-0.132799
-0.144711
-0.14251
-0.535905
-0.141939
-0.106764
-0.343297
-0.213189
0.0396431
-0.106791
-0.151985
-0.117541
-0.00918246
-0.19202
-0.532081
0.0203389
-0.167929
-0.425666
-0.0779444
-0.286421
-0.13318
-0.224944
-0.0927327
-0.135963
-0.125435
-0.440302
-0.191399
-0.0813731
-0.52934
-0.258585
0.0138224
-0.216995
-0.140134
-0.127541
-0.0316213
-0.279368
-0.565612
-0.227514
-0.0866614
-0.351969
-0.312491
-0.407034
-0.0315767
-0.289915
-0.217468
-0.423941
-0.0467767
-0.46251
0.0326224
-0.00365834
-0.255735
-0.335432
0.0324058
-0.0887637
-0.172076
-0.0164825
-0.568183
-0.235518
-0.285575
-0.101713
-0.0519912
0.0528003
-0.225397
-0.00373537
0.052076
-0.125808
-0.537502
-0.0279235
-0.192879
0.0296269
0.00301619
-0.0809422
-0.358033
-0.124258
-0.0085839
-0.0655872
-0.140277
-0.0789077
-0.241372
0.00547989
-0.102321
-0.133627
0.066632
-0.0264328
0.0098509
-0.100525
-0.0591899
-0.257098
-0.116851
-0.149978
-0.133163
-0.0836133
0.0115054
-0.501342
-0.191317
0.128773
0.0180347
-0.531822
0.151615
-0.293374
0.0277023
-0.117661
-0.213471
-0.131447
-0.539406
-0.305089
-0.227161
0.0373902
-0.266355
0.0108186
-0.0883449
-0.134197
-0.305096
-0.139097
-0.0166797
0.060681
-0.222914
-0.00441656
-0.366819
-0.504507
-0.24571
-0.436179
-0.121366
-0.239468
-0.430155
0.102519
0.0185277
-0.315173
0.0321322
-0.00890902
0.106102
-0.377273
-0.0872757
0.0479642
-0.0867481
-0.181926
0.0367403
-0.2751
-0.00259448
-0.536824
-0.249758
0.00145018
-0.0809159
-0.218432
-0.552802
-0.0268671
-0.238063
-0.347057
-0.0390266
-0.220303
-0.416057
-0.352793
0.0393553
-0.132131
-0.54414
-0.0396559
-0.302772
-0.013453
-0.00319527
-0.115813
-0.528403
-0.159601
-0.121235
0.0335562
-0.149379
-0.544986
-0.305233
-0.0435356
-0.246419
-0.00826163
-0.0149297
-0.195734
-0.0954078
-0.0317894
-0.0113321
-0.220511
-0.210334
-0.221376
-0.0841708
0.0263812
-0.361176
0.0181067
-0.222287
-0.1087
-0.121922
-0.145944
-0.12704
-0.5237
-0.102332
-0.304892
-0.0746595
-0.222106
-0.102151
-0.269968
-0.00475067
0.011941
0.17495
-0.222795
-0.150025
-0.145969
-0.326079
-0.0951319
-0.138179
-0.415529
-0.258799
-0.112531
-0.530815
-0.300609
-0.0889181
-0.0455007
-0.174531
-0.451625
0.0127397
-0.324713
-0.380855
-0.0278198
-0.183063
0.00841827
0.0797939
-0.139036
-0.385454
-0.00274843
-0.00289359
0.107582
-0.177954
0.00489935
-0.374082
-0.00302392
-0.301638
0.0453522
-0.130089
0.025717
0.0373953
-0.0916557
-0.245447
-0.189197
-0.342338
-0.11709
-0.0163168
-0.0375215
-0.219894
-0.0638824
-0.244052
-0.0930802
0.129952
-0.168611
0.0193915
-0.0905582
0.00727237
-0.131499
-0.308879
-0.206819
0.135952
-0.360226
-0.0761541
-0.208245
-0.389514
-0.0462357
-0.275876
0.0686747
-0.13694
-0.43335
-0.310853
-0.0347848
-0.238359
-0.0546763
-0.0859438
-0.333162
-0.0214195
0.273211
-0.575425
0.0135811
0.0135182
-0.135822
-0.0880813
-0.143869
0.0488974
-0.335332
-0.0763934
0.0381922
-0.160387
-0.343501
-0.196193
-0.0302848
-0.188053
0.0883642
-0.130735
0.0655255
0.0011794
-0.132684
0.10391
-0.18114
-0.198403
-0.201192
-0.0996051
-0.249578
-0.404005
-0.39
-0.234444
-0.171298
-0.416038
-0.0202657
-0.114738
-0.358781
-0.0366431
-0.135381
-0.392994
-0.0574546
0.00166313
0.000288018
-0.137065
-0.0824749
-0.104988
-0.53748
-0.0157926
-0.145929
-0.0404289
-0.429095
-0.232795
-0.0959129
-0.0884988
-0.422809
-0.197262
-0.0201583
-0.326518
-0.0507468
-0.303686
-0.13466
-0.31002
-0.131866
-0.22384
0.0315283
0.00788715
0.0817727
0.0384785
-0.109041
-0.00735236
-0.15768
-0.36512
-0.233343
-0.31559
-0.494057
-0.321334
-0.214361
0.133087
0.0281263
0.0388191
-0.0268857
-0.0366801
-0.00326979
-0.227731
-0.282824
0.0895405
-0.54186
-0.0184079
-0.324796
0.02262
-0.416721
-0.128175
0.022975
0.0291622
-0.227261
-0.100046
-0.267741
-0.401303
-0.175142
-0.241156
-0.0384183
-0.534565
0.0267724
-0.0886023
-0.163801
0.0273838
0.043849
-0.0428876
-0.139691
-0.113923
-0.106978
-0.136
-0.219641
-0.300796
0.129042
0.0226026
-0.0932664
-0.0265253
-0.0891385
-0.00116426
-0.0800369
-0.268392
-0.204482
-0.281682
-0.191513
-0.193462
0.0250517
0.0214686
-0.228111
-0.0475357
0.0250813
-0.10265
-0.219079
-0.00612799
-0.202318
-0.286018
-0.221743
-0.192714
-0.325076
0.16813
0.0278755
-0.20573
-0.0148675
-0.108571
-0.381477
-0.0939766
-0.260969
-0.097005
-0.0266194
-0.0215629
0.00455561
0.00552968
-0.0247615
-0.404185
-0.37128
-0.180073
-0.130091
-0.209928
0.0393699
-0.0248444
-0.283711
-0.283835
-0.0828802
0.0266572
-0.269892
-0.251126
-0.532762
0.0491012
0.000929679
-0.117394
0.0648904
-0.144097
-0.0162297
-0.392476
-0.0154117
-0.301931
0.0278443
-0.184792
-0.168119
0.0258138
-0.135596
0.0224602
-0.0878254
-0.0048784
-0.148438
0.0601084
-0.0794785
-0.053596
-0.504303
-0.47469
-0.124061
-0.00661812
-0.429321
-0.128072
-0.105828
-0.199317
0.0391121
-0.0717113
-0.0376381
-0.383081
0.0148189
-0.0052571
-0.263153
-0.148561
0.00976596
-0.105324
-0.560447
-0.0413862
-0.573538
-0.0198079
-0.409761
0.0202721
-0.00607915
0.0471128
-0.0269588
0.0158382
-0.553637
-0.429819
-0.0539726
-0.00295905
-0.163739
-0.0144154
-0.430309
-0.209068
-0.410665
-0.327504
-0.0869951
-0.184872
0.0126072
-0.175962
-0.0300313
-0.0454364
-0.000909525
-0.261506
-0.338671
-0.236344
-0.246137
-0.205152
0.0287732
-0.160489
-0.198496
-0.239608
-0.142258
-0.234434
-0.290745
0.00627378
-0.37576
-0.379662
-0.10537
-0.312315
-0.114795
0.0343646
0.197741
0.0530304
-0.507841
-0.0564871
-0.0126413
-0.563492
-0.0138005
-0.00663906
-0.00636407
-0.0122874
-0.387397
-0.403797
-0.0122422
-0.16506
-0.442369
-0.0367968
-0.252691
0.0614489
-0.221159
-0.51212
0.00516239
-0.148145
-0.0668721
-0.127692
-0.0132166
-0.0170698
-0.228969
-0.131685
-0.56288
-0.0567137
-0.0711802
-0.129761
-0.516106
-0.276822
-0.0699241
-0.171227
0.0270448
-0.0256016
0.0150089
-0.105158
0.0272468
-0.544892
-0.023833
0.0885218
0.127571
0.0321925
-0.0195154
-0.0832211
-0.0646558
-0.0806282
-0.0396634
-0.427333
-0.141921
-0.129343
-0.111643
-0.564366
0.0468998
-0.262608
-0.0259492
-0.0255804
0.0621441
-0.0231513
-0.0763607
0.0121141
-0.0128626
0.208195
0.0413786
-0.216123
-0.061305
-0.315056
-0.531361
-0.434073
-0.297836
-0.0497273
-0.311721
-0.383719
0.00730572
-0.0614144
0.0464358
-0.260788
0.0656499
0.181404
-0.558498
-0.422953
-0.151286
-0.0414068
-0.128657
-0.54785
-0.113763
-0.0630134
-0.0170973
-0.0430657
-0.236843
0.0298945
-0.544915
-0.221378
0.0185989
-0.421921
-0.217375
-0.0419446
-0.434275
-0.297582
-0.354296
-0.054518
-0.11952
-0.227419
-0.000389366
-0.177987
0.0193804
-0.0387766
0.0015138
-0.115349
-0.110325
-0.343018
-0.297738
-0.136216
-0.296212
-0.128874
0.0273739
0.295221
0.00098339
-0.261437
-0.0443169
-0.00400736
0.00038161
-0.048524
-0.421376
-0.0713068
-0.224502
-0.517008
-0.234673
0.105648
0.0180201
-0.0599759
-0.227902
-0.0438957
-0.0243187
-0.131211
-0.265514
-0.125562
-0.0263782
-0.0914441
-0.139539
-0.355912
-0.296606
-0.0389625
-0.0314921
-0.07641
-0.223291
-0.0999304
-0.551869
0.00448458
0.00114088
-0.0394802
-0.00052618
-0.0220818
-0.336186
-0.0916305
-0.232377
0.135657
0.0130251
-0.293267
-0.0597214
-0.45956
-0.545573
0.112896
-0.246054
-0.102808
-0.324586
-0.138879
-0.139684
-0.41499
-0.133466
0.0353445
-0.00576406
-0.209679
-0.0428163
-0.117666
0.0285179
-0.33284
-0.22267
-0.0255271
0.0429123
-0.080828
-0.220162
-0.146365
-0.000810975
-0.111437
0.0759932
-0.0973282
-0.0269389
0.0237642
-0.128454
-0.102477
0.0288028
-0.135701
-0.111948
0.0120475
-0.0935752
-0.0781355
-0.32256
-0.0788093
0.00887687
-0.034954
-0.0714127
0.0445877
-0.201106
-0.148679
0.0258158
-0.176618
0.100354
-0.498325
-0.170335
-0.447309
0.0753495
-0.0317426
0.19493
-0.289052
-0.244445
0.0148769
-0.0755639
-0.540491
-0.390356
-0.237766
-0.341706
-0.284346
-0.508604
0.0163711
0.0254726
-0.048704
-0.154984
-0.126536
-0.24287
-0.336315
-0.0554906
-0.024327
0.0332792
-0.128321
-0.028646
-0.109405
-0.00313016
-0.157345
0.044363
-0.0141825
0.0191665
0.00208658
-0.00274623
0.0808035
-0.208344
0.0307301
-0.570547
0.0240001
-0.00112533
-0.539614
-0.480935
-0.088646
-0.169597
0.144603
-0.136222
-0.0171664
-0.0603381
-0.0296435
0.0270571
-0.0820131
-0.295468
-0.0729723
-0.293601
-0.268657
-0.0570135
-0.0226677
0.0991483
-0.335522
0.00572596
-0.154503
-0.0481249
-0.156297
0.0289845
-0.0527927
-0.108389
0.10081
0.0408916
-0.279114
-0.284836
-0.129129
-0.509719
0.0331428
-0.238727
-0.499896
0.0214942
-0.222585
0.0450602
0.200717
0.0453636
-0.0511222
-0.00599676
0.0381728
-0.0172345
0.118298
-0.227406
-0.0427535
0.0303791
0.248026
-0.0360679
-0.214034
0.0297517
-0.138211
-0.121458
-0.543227
-0.525658
0.0222639
-0.353593
-0.0164152
-0.0987507
-0.122034
-0.16473
-0.175798
0.00478345
-0.180029
0.191764
-0.226429
-0.511151
0.0478546
-0.277324
-0.15269
-0.216533
0.0422433
-0.0327021
-0.244946
-0.429009
-0.0594556
0.000157567
-0.275883
-0.0157974
-0.176418
0.000696081
-0.147791
-0.232454
-0.0310117
-0.362275
-0.100402
0.000860048
-0.194665
-0.0124925
0.198137
-0.0806139
-0.165448
-0.233124
-0.00623674
0.0061879
0.211148
0.0190661
0.0270035
-0.108617
-0.125954
-0.232683
-0.15665
0.0262007
-0.0900734
-0.0306787
0.0117035
0.0191358
0.0216282
-0.261403
-0.0442105
0.0637243
-0.200534
-0.0161833
-0.00153577
-0.420228
0.0262426
-0.334236
-0.0752046
-0.344546
-0.451608
0.151381
-0.28102
-0.17803
-0.0635122
-0.0550169
-0.256714
-0.0732893
-0.0327769
-0.0114977
0.0652536
-0.136025
0.00154894
-0.125534
-0.00934556
-0.035212
-0.283184
-0.374637
-0.208527
-0.08112
0.203017
-0.516824
-0.413407
0.0188299
-0.106886
-0.162924
-0.051728
-0.133533
-0.257098
-0.21151
-0.106938
-0.158178
-0.0078632
-0.219535
0.0219349
0.0413809
-0.479643
0.0277934
-0.0209299
-0.212776
-0.15413
-0.234034
-0.518827
-0.143406
0.0425871
-0.0087224
-0.0534285
-0.244472
-0.458837
-0.569476
-0.160974
0.0383604
-0.455685
0.0282952
-0.248311
0.118679
-0.0728066
-0.179216
0.0147861
-0.401124
-0.244889
-0.0375417
-0.24057
-0.129688
-0.258711
-0.164448
-0.140109
-0.216912
-0.125104
-0.13622
-0.155956
0.027699
-0.13229
0.290068
-0.132616
0.0094623
-0.224428
-0.168631
-0.132963
0.00680074
-0.219018
-0.104912
0.0266901
-0.0231193
-0.108519
-0.105641
0.0451873
-0.00413813
-0.0037772
-0.128769
-0.319794
-0.16373
0.024342
0.0625542
-0.12789
-0.348397
0.0176807
-0.167731
-0.258968
-0.088027
-0.215144
-0.106894
-0.479329
-0.233095
0.0160983
-0.226775
-0.00210671
-0.0314685
-0.12998
-0.148882
-0.256379
-0.145304
-0.0646993
-0.0883341
-0.120173
0.000542239
-0.0284456
0.101979
-0.0997915
0.0630563
-0.53456
-0.0526533
-0.0112354
0.000529807
-0.0811334
-0.163362
0.0271064
-0.0916358
0.0812325
-0.473336
-0.228224
-0.128863
-0.114717
-0.522206
-0.252012
-0.279898
-0.143595
-0.00906563
0.356815
-0.0246365
0.116825
-0.253883
-0.0968425
-0.280985
-0.26763
0.0266651
-0.467273
-0.00963935
-0.186551
0.0113593
-0.125474
-0.558882
-0.0797745
-0.00607499
-0.275032
0.196556
0.013856
-0.246029
0.0333257
0.028808
-0.100683
0.0472575
-0.108916
0.0826266
0.0381319
-0.07098
-0.222062
-0.168672
-0.164973
0.014552
-0.473468
-0.0985259
-0.00594583
-0.254988
0.0146906
0.102887
-0.549635
-0.00569417
0.033802
0.0668076
-0.455889
0.01345
0.00106478
-0.159965
-0.113989
-0.00654959
0.030932
-0.0303701
-0.534924
-0.158379
-0.155943
-0.404501
0.0327977
0.218482
-0.0233388
-0.539951
-0.0966044
0.0329278
-0.0934266
-0.216873
0.000199953
-0.0513196
-0.362309
-0.099744
-0.0587641
-0.518596
0.00624798
-0.0243972
-0.231873
0.00801614
-0.0443214
-0.403933
0.0156952
-0.171105
-0.188302
-0.252353
-0.534997
-0.0434077
0.091952
0.0968485
0.00204398
0.0293204
0.0190796
-0.124895
0.0124357
-0.128281
-0.238943
-0.02132
-0.0365114
-0.116688
-0.245209
-0.234687
0.0168795
-0.174863
-0.00891499
-0.299152
-0.142288
-0.0947963
-0.154859
-0.110651
-0.250021
-0.43356
-0.110245
-0.0788893
-0.511676
-0.423809
-0.0915307
-0.0119609
-0.131058
0.16654
-0.0382828
-0.0595188
-0.0842716
0.00666515
-0.0295476
0.0134857
-0.0307694
-0.0780953
-0.0459325
-0.263287
-0.00613399
-0.221512
0.00270524
-0.0893093
-0.0449224
-0.273247
-0.103695
0.0281122
-0.420396
0.0903173
0.015266
-0.16104
-0.0308234
0.039625
-0.0422395
-0.0946981
-0.0260026
-0.170409
0.309514
-0.409116
-0.00948217
-0.126312
-0.523654
-0.109057
-0.0486283
-0.0664388
-0.0703363
-0.221747
-0.281276
-0.0284481
-0.388031
-0.00354491
0.170903
-0.243928
-0.105025
-0.118978
-0.031615
-0.139913
0.00350934
-0.250034
-0.0989309
-0.00295904
-0.101986
-0.316902
-0.0440932
0.0245909
-0.00021768
-0.291341
0.0150321
-0.00626534
-0.503959
0.0206982
0.0148622
-0.121766
-0.035052
-0.448386
-0.0246805
0.0264934
-0.0125589
0.110661
-0.0534939
-0.0477095
-0.200677
-0.487921
0.0101938
0.0305237
-0.56812
-0.0553777
-0.372183
-0.0656027
-0.216646
-0.0227192
0.0242641
-0.0167603
-0.0759042
-0.496118
-0.00643552
0.0138065
0.120655
-0.00532414
0.0293953
-0.0964964
-0.00294623
-0.178118
-0.0251777
-0.111749
0.0193142
-0.570488
-0.0150836
-0.149032
-0.0180392
-0.208675
-0.25324
-0.0299673
-0.0701349
-0.309704
-0.211429
-0.165478
-0.121908
-0.206375
0.0791517
-0.143607
-0.28119
-0.548668
-0.0522166
-0.111815
0.0942848
-0.0122738
-0.0727717
-0.389559
-0.233561
-0.377036
-0.254623
-0.0729796
-0.337218
-0.0380945
-0.0291898
-0.222101
-0.23173
-0.338253
-0.242686
-0.53956
-0.017359
-0.226255
-0.174066
-0.249763
0.000964108
-0.261355
-0.314195
-0.259171
-0.110911
-0.425966
-0.192106
-0.109761
-0.281631
0.106383
-0.000414686
-0.227163
-0.275619
-0.0287915
-0.538135
0.0129754
0.000319235
-0.173579
0.0857172
-0.34201
0.0746087
-0.418856
-0.137098
0.113843
-0.516317
-0.470758
-0.35522
0.0612203
0.10044
-0.234349
-0.052461
-0.01524
-0.173552
0.0426835
-0.247935
0.0066794
-0.329995
-0.00281203
-0.0989091
-0.140806
-0.133056
0.0783451
-0.171704
-0.245771
0.0289169
-0.00499942
-0.254291
-0.219495
-0.0579526
-0.0832823
0.0121785
-0.128879
-0.0953772
-0.0921412
-0.248096
0.0438291
-0.000363444
0.233635
-0.0327969
-0.515614
-0.368584
-0.0144148
0.013894
-0.0679957
0.00585519
-0.0755302
-0.00914898
-0.0539557
0.0957406
0.000846783
0.0073167
0.0475819
-0.151658
-0.54411
0.00518974
-0.570612
-0.245004
-0.0237156
0.078093
-0.179388
-0.161171
0.035813
-0.271652
-0.111511
0.164986
-0.127811
-0.0431954
-0.000469584
-0.261223
-0.0859339
-0.212482
0.0390413
0.0330586
0.00829729
-0.11805
0.00821996
-0.196677
-0.173481
-0.150516
-0.00518624
-0.504644
-0.230327
-0.545104
-0.0176471
-0.218757
0.163863
-0.227481
-0.269987
0.065859
-0.0109014
-0.197857
-0.533295
-0.221291
-0.171067
-0.244152
-0.00218022
-0.035975
-0.0519701
0.0112193
0.0506313
-0.227184
0.00858217
0.191263
-0.0243969
-0.518437
-0.55353
-0.5045
-0.146743
-0.545733
0.0445739
0.018639
-0.407929
-0.0293021
-0.0299683
-0.0247381
-0.165445
-0.547281
-0.271644
0.0860107
-0.0530173
-0.0321878
-0.0275037
-0.416017
-0.0043755
-0.12492
-0.512469
0.0179704
0.0265949
-0.261959
-0.176205
-0.0708322
0.022798
-0.572271
-0.511274
-0.0444425
-0.388869
0.00854368
-0.533462
-0.222993
-0.0646198
-0.429677
-0.332729
-0.572812
-0.0240128
-0.0525454
0.0157776
0.0261408
-0.49153
-0.00746303
-0.195282
-0.150661
-0.314742
-0.0546905
-0.1517
-0.5244
-0.177856
-0.425269
-0.2315
-0.0249734
-0.101874
-0.102734
-0.133697
-0.207157
-0.0300242
-0.0936544
-0.0265345
-0.158787
0.0377136
-0.00844012
-0.23208
-0.134874
-0.42831
0.0100224
-0.156016
-0.0515699
-0.292348
-0.0870788
-0.477738
-0.513998
-0.203499
-0.142412
0.00608561
-0.00292596
-0.263577
0.0193001
-0.344553
-0.36433
-0.000413345
-0.135344
0.140765
-0.337165
-0.0820396
-0.149261
-0.151656
-0.0403744
-0.573105
0.014117
-0.142
-0.0855
-0.544794
-0.243193
-0.555368
-0.0146642
-0.192895
-0.0332812
-0.515529
-0.00808596
-0.346764
-0.0339486
-0.446879
-0.0311743
0.00652402
-0.139909
0.0905369
0.0287607
-0.0013713
-0.185533
-0.138634
-0.00665875
-0.107958
-0.0931922
-0.222958
0.0325774
-0.230572
-0.0319529
-0.130281
-0.115862
-0.0227867
-0.1897
0.00697383
-0.247134
-0.085947
-0.0905999
0.0252109
-0.219434
-0.161672
-0.0346703
-0.541237
-0.439959
-0.449906
-0.0367797
-0.53784
0.0229181
-0.193815
-0.109275
-0.152905
-0.348121
-0.241562
0.160278
-0.549582
-0.116659
0.00826375
-0.0181327
-0.529621
-0.138953
-0.247876
0.243557
5.44351e-05
-0.117519
-0.194656
-0.221137
-0.186274
-0.365874
-0.169582
-0.24451
-0.242567
0.00626554
0.0902697
0.0204673
-0.0406243
-0.0300133
-0.356755
-0.0183333
0.0686513
-0.24011
0.000991132
-0.013373
-0.132194
-0.326137
-0.118522
-0.0195251
-0.443796
-0.0729065
-0.138521
0.0110008
-0.283675
0.067986
-0.562337
0.0246459
-0.145572
-0.133044
0.0206248
-0.415561
-0.518921
-0.19911
0.0051659
-0.011096
-0.274898
-0.286421
-0.083196
-0.0389431
-0.199363
-0.529372
-0.0461746
-0.000936064
-0.0166773
-0.541854
0.113717
-0.075003
-0.0855792
-0.101813
-0.358013
-0.160706
-0.456587
-0.0893401
-0.141557
-0.0309756
-0.162922
-0.147794
0.0254305
-0.0988027
-0.224644
-0.558582
-0.102048
-0.319666
-0.219277
-0.416732
0.0776708
-0.0435995
-0.548125
-0.416526
-0.340238
0.00765082
-0.168336
0.0395166
0.00885462
-0.118476
-0.540456
-0.225369
0.00846109
-0.384229
-0.288922
-0.186767
-0.457407
-0.237851
-0.281022
-0.0107689
-0.492671
-0.124685
-0.21918
-0.119906
-0.174656
0.0498972
-0.0112413
-0.147355
-0.169565
-0.0287391
-0.150712
-0.11697
0.0085965
-0.141127
-0.282992
0.0378864
-0.148465
-0.547325
-0.15311
0.030052
0.313155
-0.115073
-0.0723742
-0.145984
-0.0418211
-0.125088
-0.0670543
0.0350801
-0.0231268
0.145306
-0.128956
-0.160496
-0.204598
-4.30143e-05
-0.039215
-0.204149
-0.101818
-0.442493
-0.518391
-0.170557
-0.0303301
0.0373171
-0.124375
-0.032475
-0.305342
0.0334922
0.0129475
-0.0259719
-0.0980929
-0.355975
0.0436418
-0.204752
-0.0624174
-0.00199905
-0.117116
0.149099
-0.166811
-0.126452
-0.399421
-0.105951
-0.490935
-0.122009
-0.405789
-0.102925
-0.00962533
-0.0182729
-0.283029
-0.362531
-0.0156991
-0.00704836
-0.108167
-0.172751
-0.140645
-0.427017
-0.416881
0.0116394
-0.396149
-0.00115958
-0.0889476
0.0242675
-0.191321
-0.00576687
-0.0831408
-0.121372
-0.0975335
0.0244235
-0.0982211
0.11012
-0.36342
-0.472606
-0.137674
-0.0131862
-0.308489
-0.376243
-0.43291
-0.431115
-0.184794
-0.0293132
-0.120165
-0.0411593
-0.22672
0.00203935
-0.105366
-0.373844
-0.348547
-0.0281951
6.30469e-05
-0.243456
-0.145144
-0.235622
0.159158
0.0219828
-0.160342
-0.418083
0.158756
-0.155846
-0.0920287
-0.464361
-0.0736821
0.0139946
-0.00418012
-0.216022
0.0574995
-0.153286
0.0392436
-0.0237765
-0.212108
-0.102367
-0.0383009
0.00747915
-0.100132
-0.491863
-0.147528
-0.151787
0.0808082
-0.196272
0.0133783
-0.190414
-0.124506
-0.176463
0.19892
-0.0870097
-0.108463
0.126973
-0.0401845
-0.222009
-0.343676
-0.0857874
-0.048967
-0.276044
-0.321346
0.00684716
0.0644964
-0.111327
-0.498545
0.124015
-0.248681
-0.259892
-0.0516516
-0.217822
-0.0295216
-0.103446
-0.20615
-0.255702
-0.0826183
-0.125994
-0.519614
-0.101275
-0.536269
-0.0726606
-0.380384
0.030113
-0.12045
-0.551538
0.0183554
-0.00415204
-0.0757626
0.0470381
0.0241763
-0.462403
-0.278988
-0.412314
-0.0998705
-0.549062
-0.00410552
-0.1064
-0.327347
0.000800605
-0.382631
-0.233869
-0.415001
-0.0960776
-0.287725
-0.0728565
-0.0106399
0.074006
-0.215531
-0.22621
0.0257712
-0.142478
0.0261205
-0.24695
-0.398468
0.114074
-0.276086
-0.208806
-0.373707
-0.187312
0.233371
-0.256481
-0.22242
-0.0971137
-0.0282519
-0.128208
-0.00382245
-0.0284719
-0.222045
0.0122123
-0.139091
0.0485394
-0.565271
-0.0951906
0.0134836
-0.342508
0.11447
0.07405
-0.075265
-0.422875
-0.273848
-0.105464
-0.116091
0.0426934
-0.130211
-0.341658
-0.145385
0.0255948
-0.184588
-0.226358
-0.0559306
-0.101773
-0.169376
-0.00677838
-0.200544
-0.239575
-0.150503
0.0123446
-0.240367
-0.0187554
-0.33436
-0.150385
-0.549439
-0.0120176
-0.142047
-0.384569
-0.0762512
-0.187909
-0.109581
-0.155894
-0.550596
-0.225068
0.0767931
-0.340784
-0.0112602
-0.0967167
0.00924381
-0.0670733
-0.31863
-0.0852853
-0.0680588
0.290359
-0.193415
-0.123978
-0.0449354
0.0483163
-0.164851
-0.262257
0.110187
-0.310986
-0.362206
-0.117105
-0.120665
-0.133016
-0.118892
0.174767
-0.223841
-0.00349257
-0.066153
-0.0528892
-0.267932
0.0213918
-0.105066
-0.0262184
-0.24524
-0.113614
-0.218929
-0.462468
0.0769665
-0.378428
-0.0276294
0.0459976
0.0105425
0.0256018
-0.0937409
-0.00187771
-0.216306
-0.521001
-0.210156
-0.184683
-0.0929504
-0.0244482
-0.132012
0.0125487
-0.380108
-0.542408
-0.302922
-0.199786
-0.0897995
-0.103525
0.0165533
0.0571858
0.160384
-0.134988
-0.516118
-0.198917
-0.2521
-0.177301
0.00139665
-0.0145488
-0.0816327
-0.000395127
-0.12842
0.218859
-0.264324
-0.0760928
-0.528724
0.0270886
-0.0519007
0.0402131
0.0379134
0.0577181
-0.198851
-0.0284981
-0.11931
0.172571
-0.183526
-0.178992
-0.178948
-0.156496
-0.21383
-0.15253
-0.0781606
-0.0406305
-0.165278
-0.0880236
-0.452173
-0.114437
-0.131653
-0.486462
-0.169658
-0.0641272
0.00552375
-0.136915
0.0151647
-0.111314
-0.317793
0.00876275
-0.033903
-0.223229
-0.116544
-0.143786
-0.248726
0.0445274
-0.286336
-0.136812
-0.419409
0.134583
0.00778921
-0.111931
0.253213
0.0293208
-0.0938753
0.0189749
-0.184925
-0.0975723
0.247216
-0.239086
0.112893
-0.561096
-0.00183338
-0.278156
0.0393672
-0.0897295
-0.0187104
-0.152864
0.000445348
0.0361993
-0.0945058
-0.234231
-0.190525
-0.0549925
0.147565
-0.0230827
-0.0175107
-0.0717938
-0.391103
-0.0983733
-0.555868
-0.462732
-0.185233
0.0178273
-0.197699
-0.208582
-0.334935
-0.0795228
-0.511999
0.00876751
-0.0298562
0.00625137
-0.22449
-0.0386945
0.0225324
-0.106967
0.0115947
-0.251254
0.0686714
-0.0423909
-0.398013
-0.0893091
-0.563482
-0.027916
-0.538972
-0.0352951
0.215727
-0.430141
-0.23394
0.00341203
-0.0980355
-0.427644
-0.111924
-0.201614
-0.134764
-0.0650786
-0.178845
-0.00823204
-0.0554452
-0.24509
-0.101647
-0.0978906
-0.135585
0.010917
-0.0174023
-0.000425518
-0.0974894
0.0363424
0.0177461
-0.564821
-0.434449
0.129142
-0.415343
-0.13899
-0.0983923
-0.339366
-0.273433
0.0519002
-0.245702
-0.22243
-0.193036
-0.231834
-0.114098
-0.439866
-0.151887
-0.405328
-0.228918
-0.486298
0.0767527
0.0884187
0.0523389
-0.0920556
-0.00906253
-0.258655
0.0156748
-0.423214
0.04296
-0.151289
-0.0259143
-0.228708
0.0779177
0.0856893
0.0265172
-0.00386604
0.0767254
-0.0798538
-0.0576617
-0.121969
-0.249207
-0.0866344
-0.194953
-0.015475
0.0907179
0.116801
0.0371991
-0.00520965
-0.00204934
-0.564609
-0.389534
-0.384137
-0.298221
-0.036617
-0.279736
0.0274706
-0.137825
-0.00857177
-0.028659
0.019635
-0.395073
-0.025179
-0.119038
-0.240094
-0.020971
-0.134075
0.0156936
-0.259224
-0.243136
-0.421175
-0.391745
-0.240354
-0.36021
-0.17144
-0.289908
-0.143572
-0.285745
0.0568211
0.170282
-0.230738
-0.477397
0.0257948
-0.435057
-0.178689
-0.558348
-0.0254434
-0.215761
-0.279756
0.00921822
-0.405998
0.104893
-0.39127
-0.00194341
0.048388
-0.184142
0.0104666
-0.0963491
-0.200871
-0.0347397
-0.0453558
-0.0757832
-0.574279
-0.381441
-0.135015
-0.0542391
0.0565613
0.00937015
-0.0219592
-0.0823374
-0.368961
-0.496908
-0.261827
-0.109679
-0.00803126
-0.00685999
-0.513298
-0.436505
-0.227181
0.111962
-0.0250775
0.135687
-0.401665
-0.42868
-0.030668
0.0052934
-0.28036
-0.0471432
-0.133088
0.070653
0.0100103
-0.0424503
0.0967991
-0.542997
-0.299833
-0.000281215
-0.0349837
-0.0624889
-0.126215
-0.329955
0.0189591
-0.19429
-0.42708
-0.0302562
-0.117707
-0.118704
-0.404252
0.0269513
-0.426993
-0.328077
-0.045895
-0.0346155
-0.0798783
0.338596
-0.298473
-0.100735
0.00277889
-0.434653
-0.348465
-0.0247883
-0.360012
-0.242352
-0.130175
-0.389988
-0.34814
-0.553025
-0.418251
-0.105914
0.0799128
-0.0747402
-0.556438
-0.379108
-0.389623
-0.43183
-0.54486
-0.0323708
-0.161972
-0.00261568
0.00183023
0.0222393
0.00131379
0.0210058
-0.0265649
-0.214143
-0.316275
-0.239852
0.00523958
-0.332134
0.1804
-0.0170156
-0.0071032
-0.538151
0.0181105
-0.0801437
-0.10707
0.0230535
-0.0317589
-0.154704
-0.00379463
-0.222919
-0.0850197
-0.0210734
-0.0330827
-0.536479
-0.0277042
-0.252574
-0.54775
-0.029559
-0.183137
-0.0273587
-0.0716599
-0.0460896
-0.157907
-0.291196
0.00102562
-0.564522
-0.0819911
0.00818092
-0.0344324
0.0291032
-0.0501045
0.017785
-0.222161
-0.422967
-0.41521
-0.120381
-0.397581
0.0195573
-0.1036
-0.053642
-0.185077
0.0458096
-0.433073
-0.0131739
-0.0779277
-0.494569
-0.256701
-0.18205
-0.0134324
-0.141959
-0.0183771
-0.545608
-0.0259674
-0.0245414
-0.0736426
-0.0970011
-0.0116872
0.00330671
0.0622189
-0.566748
0.0488627
-0.0392504
-0.0838405
0.000675787
-0.258483
0.0165736
-0.430572
-0.0941395
-0.0703087
-0.490558
-0.394227
-0.12109
-0.48556
-0.0281385
0.00845802
-0.153763
-0.256431
-0.208151
-0.100416
-0.234986
-0.0471648
-0.188607
-0.132159
-0.0825704
0.0185549
-0.00749121
-0.571787
-0.342507
-0.421323
-0.0956648
-0.0255003
0.0177789
-0.418097
-0.228556
-0.0267807
-0.198564
-0.0379936
-0.169475
-0.127298
-0.130554
-0.0495696
0.0117337
-0.00534547
-0.0909538
-0.171064
-0.235812
-0.0293118
-0.0296748
-0.399626
-0.00389983
0.00822867
0.111908
0.103158
-0.120133
0.0116993
-0.0713456
-0.130308
0.105454
-0.243781
-0.268747
0.0185424
-0.0971097
0.0306947
-0.00493535
-0.365866
0.315481
-0.0776461
-0.0500784
0.0152036
-0.157094
0.0884863
0.0185485
-0.135412
-0.223698
-0.0241052
-0.123252
0.0215585
-0.308969
0.0265999
-0.0397084
-0.408789
-0.566732
-0.560247
0.0102497
-0.374678
-0.0361992
0.017602
-0.133064
-0.383382
-0.237815
-0.0948994
-0.376993
-0.0695414
-0.128474
0.233888
0.203982
-0.0406837
-0.0272771
0.05576
-0.0265165
-0.08944
0.00482623
-0.226578
-0.431556
-0.0452715
0.050144
0.0607007
-0.0377168
-0.374143
-0.554266
-0.404411
-0.184565
0.0599887
-0.185358
-0.486999
-0.224335
-0.140833
0.0546796
0.0467566
-0.236947
-0.429399
-0.243855
-0.0199272
0.0458243
0.0466523
-0.10476
-0.230247
-0.0253562
-0.0576827
0.107525
-0.0117617
0.0189946
-0.040741