/*--------------------------------*- C++ -*----------------------------------*\
| =========                 |                                                 |
| \\      /  F ield         | OpenFOAM: The Open Source CFD Toolbox           |
|  \\    /   O peration     | Version:  v2012                                 |
|   \\  /    A nd           | Website:  www.openfoam.com                      |
|    \\/     M anipulation  |                                                 |
\*---------------------------------------------------------------------------*/
FoamFile
{
    version     2.0;
    format      ascii;
    class       pointVectorField;
    location    "800";
    object      pointDisplacement;
}
// * * * * * * * * * * * * * * * * * * * * * * * * * * * * * * * * * * * * * //

dimensions      [0 1 0 0 0 0 0];


internalField   nonuniform List<vector> 
14246
(
(0 0 0)
(1.92502e-05 -0.000153977 0)
(0 0 0)
(1.92502e-05 -0.000153977 0)
(0 0 0)
(0 0 0)
(0 0 0)
(0 0 0)
(0 0 0)
(0 0 0)
(0 0 0)
(0 0 0)
(0 0 0)
(0 0 0)
(0 0 0)
(0 0 0)
(0 0 0)
(0 0 0)
(0 0 0)
(0 0 0)
(0 0 0)
(0 0 0)
(0 0 0)
(0 0 0)
(0 0 0)
(0 0 0)
(0 0 0)
(0 0 0)
(0 0 0)
(0 0 0)
(0 0 0)
(0 0 0)
(0 0 0)
(0 0 0)
(0 0 0)
(0 0 0)
(0 0 0)
(0 0 0)
(0 0 0)
(0 0 0)
(0 0 0)
(0 0 0)
(0 0 0)
(0 0 0)
(0 0 0)
(0 0 0)
(0 0 0)
(0 0 0)
(0 0 0)
(0 0 0)
(0 0 0)
(0 0 0)
(0 0 0)
(0 0 0)
(0 0 0)
(0 0 0)
(0 0 0)
(0 0 0)
(0 0 0)
(0 0 0)
(0 0 0)
(0 0 0)
(0 0 0)
(0 0 0)
(0 0 0)
(0 0 0)
(0 0 0)
(0 0 0)
(0 0 0)
(0 0 0)
(0 0 0)
(0 0 0)
(0 0 0)
(0 0 0)
(0 0 0)
(1.92502e-05 -0.000152053 0)
(1.92501e-05 -0.000150128 0)
(1.92501e-05 -0.000148203 0)
(1.925e-05 -0.000146279 0)
(1.925e-05 -0.000144354 0)
(1.925e-05 -0.000142429 0)
(1.92499e-05 -0.000140504 0)
(1.92499e-05 -0.00013858 0)
(1.92499e-05 -0.000136655 0)
(1.92498e-05 -0.00013473 0)
(1.92498e-05 -0.000132805 0)
(1.92497e-05 -0.000130881 0)
(1.92497e-05 -0.000128956 0)
(1.92497e-05 -0.000127031 0)
(1.92496e-05 -0.000125107 0)
(1.92496e-05 -0.000123182 0)
(1.92496e-05 -0.000121257 0)
(1.92495e-05 -0.000119332 0)
(1.92495e-05 -0.000117408 0)
(1.92494e-05 -0.000115483 0)
(1.92494e-05 -0.000113558 0)
(1.92494e-05 -0.000111634 0)
(1.92493e-05 -0.000109709 0)
(1.92493e-05 -0.000107784 0)
(1.92493e-05 -0.000105859 0)
(1.92492e-05 -0.000103935 0)
(1.92492e-05 -0.00010201 0)
(1.92492e-05 -0.000100085 0)
(1.92491e-05 -9.81605e-05 0)
(1.92491e-05 -9.62358e-05 0)
(1.9249e-05 -9.4311e-05 0)
(1.9249e-05 -9.23863e-05 0)
(1.9249e-05 -9.04616e-05 0)
(1.92489e-05 -8.85369e-05 0)
(1.92489e-05 -8.66121e-05 0)
(1.92489e-05 -8.46874e-05 0)
(1.92488e-05 -8.27627e-05 0)
(1.92488e-05 -8.0838e-05 0)
(1.92487e-05 -7.89133e-05 0)
(1.92487e-05 -7.69885e-05 0)
(1.92487e-05 -7.50638e-05 0)
(1.92486e-05 -7.31391e-05 0)
(1.92486e-05 -7.12144e-05 0)
(1.92486e-05 -6.92896e-05 0)
(1.92485e-05 -6.73649e-05 0)
(1.92485e-05 -6.54402e-05 0)
(1.92484e-05 -6.35155e-05 0)
(1.92484e-05 -6.15908e-05 0)
(1.92484e-05 -5.9666e-05 0)
(1.92483e-05 -5.77413e-05 0)
(1.92483e-05 -5.58166e-05 0)
(1.92483e-05 -5.38919e-05 0)
(1.92482e-05 -5.19671e-05 0)
(1.92482e-05 -5.00424e-05 0)
(1.92482e-05 -4.81177e-05 0)
(1.92481e-05 -4.6193e-05 0)
(1.92481e-05 -4.42682e-05 0)
(1.9248e-05 -4.23435e-05 0)
(1.9248e-05 -4.04188e-05 0)
(1.9248e-05 -3.84941e-05 0)
(1.92479e-05 -3.65694e-05 0)
(1.92479e-05 -3.46446e-05 0)
(1.92479e-05 -3.27199e-05 0)
(1.92478e-05 -3.07952e-05 0)
(1.92478e-05 -2.88705e-05 0)
(1.92477e-05 -2.69457e-05 0)
(1.92477e-05 -2.5021e-05 0)
(1.92477e-05 -2.30963e-05 0)
(1.92476e-05 -2.11716e-05 0)
(1.92476e-05 -1.92469e-05 0)
(1.92476e-05 -1.73221e-05 0)
(1.92475e-05 -1.53974e-05 0)
(1.92475e-05 -1.34727e-05 0)
(1.92474e-05 -1.1548e-05 0)
(1.92474e-05 -9.62324e-06 0)
(1.92474e-05 -7.69852e-06 0)
(1.92473e-05 -5.7738e-06 0)
(1.92473e-05 -3.84907e-06 0)
(1.92473e-05 -1.92435e-06 0)
(1.92472e-05 3.70456e-10 0)
(1.92472e-05 1.92509e-06 0)
(1.92472e-05 3.84982e-06 0)
(1.92471e-05 5.77454e-06 0)
(1.92471e-05 7.69926e-06 0)
(1.9247e-05 9.62398e-06 0)
(1.9247e-05 1.15487e-05 0)
(1.9247e-05 1.34734e-05 0)
(1.92469e-05 1.53982e-05 0)
(1.92469e-05 1.73229e-05 0)
(1.92469e-05 1.92476e-05 0)
(1.92468e-05 2.11723e-05 0)
(1.92468e-05 2.3097e-05 0)
(1.92467e-05 2.50218e-05 0)
(1.92467e-05 2.69465e-05 0)
(1.92467e-05 2.88712e-05 0)
(1.92466e-05 3.07959e-05 0)
(1.92466e-05 3.27207e-05 0)
(1.92466e-05 3.46454e-05 0)
(1.92465e-05 3.65701e-05 0)
(1.92465e-05 3.84948e-05 0)
(1.92464e-05 4.04195e-05 0)
(1.92464e-05 4.23443e-05 0)
(1.92464e-05 4.4269e-05 0)
(1.92463e-05 4.61937e-05 0)
(1.92463e-05 4.81184e-05 0)
(1.92463e-05 5.00432e-05 0)
(1.92462e-05 5.19679e-05 0)
(1.92462e-05 5.38926e-05 0)
(1.92462e-05 5.58173e-05 0)
(1.92461e-05 5.7742e-05 0)
(1.92461e-05 5.96668e-05 0)
(1.9246e-05 6.15915e-05 0)
(1.9246e-05 6.35162e-05 0)
(1.9246e-05 6.54409e-05 0)
(1.92459e-05 6.73657e-05 0)
(1.92459e-05 6.92904e-05 0)
(1.92459e-05 7.12151e-05 0)
(1.92458e-05 7.31398e-05 0)
(1.92458e-05 7.50646e-05 0)
(1.92457e-05 7.69893e-05 0)
(1.92457e-05 7.8914e-05 0)
(1.92457e-05 8.08387e-05 0)
(1.92456e-05 8.27634e-05 0)
(1.92456e-05 8.46882e-05 0)
(1.92456e-05 8.66129e-05 0)
(1.92455e-05 8.85376e-05 0)
(1.92455e-05 9.04623e-05 0)
(1.92454e-05 9.23871e-05 0)
(1.92454e-05 9.43118e-05 0)
(1.92454e-05 9.62365e-05 0)
(1.92453e-05 9.81612e-05 0)
(1.92453e-05 0.000100086 0)
(1.92453e-05 0.000102011 0)
(1.54007e-05 -0.000153978 0)
(1.73255e-05 -0.000153977 0)
(0 0 0)
(0 0 0)
(0 0 0)
(0 0 0)
(0 0 0)
(0 0 0)
(0 0 0)
(0 0 0)
(0 0 0)
(0 0 0)
(0 0 0)
(0 0 0)
(0 0 0)
(0 0 0)
(0 0 0)
(0 0 0)
(0 0 0)
(0 0 0)
(0 0 0)
(0 0 0)
(0 0 0)
(0 0 0)
(0 0 0)
(0 0 0)
(0 0 0)
(0 0 0)
(0 0 0)
(0 0 0)
(0 0 0)
(0 0 0)
(0 0 0)
(0 0 0)
(0 0 0)
(0 0 0)
(0 0 0)
(0 0 0)
(0 0 0)
(0 0 0)
(0 0 0)
(0 0 0)
(0 0 0)
(0 0 0)
(0 0 0)
(0 0 0)
(0 0 0)
(0 0 0)
(0 0 0)
(0 0 0)
(0 0 0)
(0 0 0)
(0 0 0)
(0 0 0)
(0 0 0)
(0 0 0)
(0 0 0)
(0 0 0)
(0 0 0)
(0 0 0)
(0 0 0)
(0 0 0)
(0 0 0)
(0 0 0)
(0 0 0)
(0 0 0)
(0 0 0)
(0 0 0)
(0 0 0)
(0 0 0)
(0 0 0)
(0 0 0)
(0 0 0)
(1.92502e-05 -0.000152053 0)
(1.92501e-05 -0.000150128 0)
(1.92501e-05 -0.000148203 0)
(1.925e-05 -0.000146279 0)
(1.925e-05 -0.000144354 0)
(1.925e-05 -0.000142429 0)
(1.92499e-05 -0.000140504 0)
(1.92499e-05 -0.00013858 0)
(1.92499e-05 -0.000136655 0)
(1.92498e-05 -0.00013473 0)
(1.92498e-05 -0.000132805 0)
(1.92497e-05 -0.000130881 0)
(1.92497e-05 -0.000128956 0)
(1.92497e-05 -0.000127031 0)
(1.92496e-05 -0.000125107 0)
(1.92496e-05 -0.000123182 0)
(1.92496e-05 -0.000121257 0)
(1.92495e-05 -0.000119332 0)
(1.92495e-05 -0.000117408 0)
(1.92494e-05 -0.000115483 0)
(1.92494e-05 -0.000113558 0)
(1.92494e-05 -0.000111634 0)
(1.92493e-05 -0.000109709 0)
(1.92493e-05 -0.000107784 0)
(1.92493e-05 -0.000105859 0)
(1.92492e-05 -0.000103935 0)
(1.92492e-05 -0.00010201 0)
(1.92492e-05 -0.000100085 0)
(1.92491e-05 -9.81605e-05 0)
(1.92491e-05 -9.62358e-05 0)
(1.9249e-05 -9.4311e-05 0)
(1.9249e-05 -9.23863e-05 0)
(1.9249e-05 -9.04616e-05 0)
(1.92489e-05 -8.85369e-05 0)
(1.92489e-05 -8.66121e-05 0)
(1.92489e-05 -8.46874e-05 0)
(1.92488e-05 -8.27627e-05 0)
(1.92488e-05 -8.0838e-05 0)
(1.92487e-05 -7.89133e-05 0)
(1.92487e-05 -7.69885e-05 0)
(1.92487e-05 -7.50638e-05 0)
(1.92486e-05 -7.31391e-05 0)
(1.92486e-05 -7.12144e-05 0)
(1.92486e-05 -6.92896e-05 0)
(1.92485e-05 -6.73649e-05 0)
(1.92485e-05 -6.54402e-05 0)
(1.92484e-05 -6.35155e-05 0)
(1.92484e-05 -6.15908e-05 0)
(1.92484e-05 -5.9666e-05 0)
(1.92483e-05 -5.77413e-05 0)
(1.92483e-05 -5.58166e-05 0)
(1.92483e-05 -5.38919e-05 0)
(1.92482e-05 -5.19671e-05 0)
(1.92482e-05 -5.00424e-05 0)
(1.92482e-05 -4.81177e-05 0)
(1.92481e-05 -4.6193e-05 0)
(1.92481e-05 -4.42682e-05 0)
(1.9248e-05 -4.23435e-05 0)
(1.9248e-05 -4.04188e-05 0)
(1.9248e-05 -3.84941e-05 0)
(1.92479e-05 -3.65694e-05 0)
(1.92479e-05 -3.46446e-05 0)
(1.92479e-05 -3.27199e-05 0)
(1.92478e-05 -3.07952e-05 0)
(1.92478e-05 -2.88705e-05 0)
(1.92477e-05 -2.69457e-05 0)
(1.92477e-05 -2.5021e-05 0)
(1.92477e-05 -2.30963e-05 0)
(1.92476e-05 -2.11716e-05 0)
(1.92476e-05 -1.92469e-05 0)
(1.92476e-05 -1.73221e-05 0)
(1.92475e-05 -1.53974e-05 0)
(1.92475e-05 -1.34727e-05 0)
(1.92474e-05 -1.1548e-05 0)
(1.92474e-05 -9.62324e-06 0)
(1.92474e-05 -7.69852e-06 0)
(1.92473e-05 -5.7738e-06 0)
(1.92473e-05 -3.84907e-06 0)
(1.92473e-05 -1.92435e-06 0)
(1.92472e-05 3.70456e-10 0)
(1.92472e-05 1.92509e-06 0)
(1.92472e-05 3.84982e-06 0)
(1.92471e-05 5.77454e-06 0)
(1.92471e-05 7.69926e-06 0)
(1.9247e-05 9.62398e-06 0)
(1.9247e-05 1.15487e-05 0)
(1.9247e-05 1.34734e-05 0)
(1.92469e-05 1.53982e-05 0)
(1.92469e-05 1.73229e-05 0)
(1.92469e-05 1.92476e-05 0)
(1.92468e-05 2.11723e-05 0)
(1.92468e-05 2.3097e-05 0)
(1.92467e-05 2.50218e-05 0)
(1.92467e-05 2.69465e-05 0)
(1.92467e-05 2.88712e-05 0)
(1.92466e-05 3.07959e-05 0)
(1.92466e-05 3.27207e-05 0)
(1.92466e-05 3.46454e-05 0)
(1.92465e-05 3.65701e-05 0)
(1.92465e-05 3.84948e-05 0)
(1.92464e-05 4.04195e-05 0)
(1.92464e-05 4.23443e-05 0)
(1.92464e-05 4.4269e-05 0)
(1.92463e-05 4.61937e-05 0)
(1.92463e-05 4.81184e-05 0)
(1.92463e-05 5.00432e-05 0)
(1.92462e-05 5.19679e-05 0)
(1.92462e-05 5.38926e-05 0)
(1.92462e-05 5.58173e-05 0)
(1.92461e-05 5.7742e-05 0)
(1.92461e-05 5.96668e-05 0)
(1.9246e-05 6.15915e-05 0)
(1.9246e-05 6.35162e-05 0)
(1.9246e-05 6.54409e-05 0)
(1.92459e-05 6.73657e-05 0)
(1.92459e-05 6.92904e-05 0)
(1.92459e-05 7.12151e-05 0)
(1.92458e-05 7.31398e-05 0)
(1.92458e-05 7.50646e-05 0)
(1.92457e-05 7.69893e-05 0)
(1.92457e-05 7.8914e-05 0)
(1.92457e-05 8.08387e-05 0)
(1.92456e-05 8.27634e-05 0)
(1.92456e-05 8.46882e-05 0)
(1.92456e-05 8.66129e-05 0)
(1.92455e-05 8.85376e-05 0)
(1.92455e-05 9.04623e-05 0)
(1.92454e-05 9.23871e-05 0)
(1.92454e-05 9.43118e-05 0)
(1.92454e-05 9.62365e-05 0)
(1.92453e-05 9.81612e-05 0)
(1.92453e-05 0.000100086 0)
(1.92453e-05 0.000102011 0)
(1.54007e-05 -0.000153978 0)
(1.73255e-05 -0.000153977 0)
(1.96811e-05 0.000107671 0)
(2.18735e-05 7.74138e-05 0)
(1.60703e-05 2.57486e-05 0)
(1.84716e-05 3.77006e-06 0)
(2.16664e-05 -3.73687e-05 0)
(2.10709e-05 -7.74977e-05 0)
(1.76406e-05 -9.72912e-05 0)
(1.87704e-05 -0.000139698 0)
(1.85928e-05 -4.90701e-05 0)
(1.98876e-05 -1.76191e-05 0)
(2.14444e-05 9.85449e-05 0)
(1.97472e-05 -0.000124702 0)
(1.89501e-05 5.39029e-05 0)
(2.45758e-05 2.48592e-05 0)
(1.95084e-05 -8.79239e-05 0)
(2.23702e-05 -0.000210199 0)
(3.10638e-05 -0.000183824 0)
(1.69687e-05 -0.000152042 0)
(4.05256e-05 -0.000137307 0)
(4.85079e-05 3.59179e-06 0)
(1.91992e-05 -0.00017194 0)
(2.23651e-05 -0.000203608 0)
(3.85946e-05 8.86519e-05 0)
(1.90903e-05 -0.000148452 0)
(2.34152e-05 -0.000177494 0)
(1.67456e-05 -0.000158263 0)
(1.34513e-05 -0.000127718 0)
(1.97936e-05 -0.000119188 0)
(2.19878e-05 2.85165e-05 0)
(1.54688e-05 -7.67588e-05 0)
(2.17272e-05 6.88947e-05 0)
(1.96826e-05 -4.11543e-05 0)
(2.17265e-05 -7.25419e-05 0)
(1.99236e-05 -2.71072e-05 0)
(2.01129e-05 -6.10014e-06 0)
(1.6063e-05 6.48463e-05 0)
(2.33659e-05 -0.000162455 0)
(2.14497e-05 4.89708e-05 0)
(2.34888e-05 1.16187e-05 0)
(2.51782e-05 0.000126102 0)
(2.05991e-05 -8.52962e-05 0)
(1.82546e-05 -0.000156245 0)
(1.68164e-05 -0.000138052 0)
(3.81691e-05 -0.000175653 0)
(3.6952e-05 -4.78488e-05 0)
(8.36775e-06 -7.92548e-05 0)
(1.24134e-05 -0.000112464 0)
(6.12625e-06 -5.74486e-05 0)
(2.07886e-05 -0.000184446 0)
(1.92256e-05 -0.000160804 0)
(1.64619e-05 -0.000150451 0)
(3.89569e-05 -9.52292e-05 0)
(4.04506e-05 5.66441e-05 0)
(2.79189e-05 -0.000184464 0)
(1.55164e-05 -0.000147928 0)
(2.25593e-05 -0.000182767 0)
(1.08161e-05 -0.000102214 0)
(5.92916e-06 -5.62841e-05 0)
(2.82822e-06 -2.68881e-05 0)
(2.01195e-05 -0.00018231 0)
(3.75153e-05 -0.000336109 0)
(3.58757e-05 -0.000314141 0)
(5.23165e-05 -0.000458077 0)
(5.05101e-05 -0.00043224 0)
(6.54904e-05 -0.000561305 0)
(6.41264e-05 -0.000543305 0)
(7.79203e-05 -0.00065947 0)
(7.67805e-05 -0.000648396 0)
(8.89547e-05 -0.000747096 0)
(8.78538e-05 -0.000738869 0)
(9.82917e-05 -0.000821813 0)
(9.72907e-05 -0.000815094 0)
(0.000106459 -0.000889659 0)
(0.000105469 -0.000883151 0)
(0.000113467 -0.000952481 0)
(0.000115086 -0.000965567 0)
(0.000120577 -0.00101615 0)
(0.000122755 -0.00102835 0)
(0.000126657 -0.00106239 0)
(0.000129187 -0.0010689 0)
(0.000131764 -0.00109017 0)
(0.000134587 -0.00109162 0)
(0.000136235 -0.00110531 0)
(0.000139362 -0.00110543 0)
(0.000140265 -0.00111559 0)
(0.000143284 -0.00111352 0)
(0.000143638 -0.00112281 0)
(0.000146117 -0.00111501 0)
(0.000145806 -0.00112208 0)
(0.000148078 -0.00110913 0)
(0.000147188 -0.00111429 0)
(0.000149931 -0.00110023 0)
(0.000148954 -0.0011058 0)
(0.000152426 -0.00109092 0)
(0.000151246 -0.00109541 0)
(0.000155312 -0.00107508 0)
(0.000153686 -0.00107783 0)
(0.000157731 -0.00105068 0)
(0.000155549 -0.00105319 0)
(0.000159124 -0.00102181 0)
(0.000156541 -0.0010239 0)
(0.000159759 -0.000990143 0)
(0.000153433 -0.00105586 0)
(0.000153971 -0.00102615 0)
(0.000151594 -0.00105828 0)
(0.000151501 -0.00102931 0)
(0.000149961 -0.00106076 0)
(0.000149406 -0.00103322 0)
(0.000148859 -0.00106493 0)
(0.000147833 -0.00103946 0)
(0.000148248 -0.00107327 0)
(0.00014677 -0.00104977 0)
(0.000147937 -0.00108407 0)
(0.000146392 -0.00106135 0)
(0.00014829 -0.0010969 0)
(0.000146612 -0.00107209 0)
(0.000149214 -0.00111083 0)
(0.000147287 -0.00108484 0)
(0.00015051 -0.00112196 0)
(0.000148611 -0.00109644 0)
(0.000146244 -0.00101099 0)
(0.000152499 -0.00112904 0)
(0.000150689 -0.00110299 0)
(0.000155338 -0.00113022 0)
(0.000153641 -0.00110326 0)
(0.000159266 -0.00112295 0)
(0.000157902 -0.00109494 0)
(0.000164092 -0.00110739 0)
(0.000162947 -0.00107979 0)
(0.00016537 -0.00114141 0)
(0.000169069 -0.00108785 0)
(0.00016811 -0.00106181 0)
(0.000174167 -0.00106708 0)
(0.000173291 -0.00104059 0)
(0.000179542 -0.00104456 0)
(0.00017875 -0.00101676 0)
(0.000185127 -0.00101888 0)
(0.000184291 -0.000989675 0)
(0.00019102 -0.000990867 0)
(0.000190134 -0.000960371 0)
(0.000197179 -0.000963964 0)
(0.00019623 -0.000931088 0)
(0.000197451 -0.000998731 0)
(0.000146511 -0.00107467 0)
(0.000203301 -0.000937537 0)
(0.000202077 -0.000904113 0)
(0.000209168 -0.000909545 0)
(0.000207629 -0.000875885 0)
(0.000200792 -0.000867216 0)
(0.000205813 -0.000839595 0)
(0.000213114 -0.000839125 0)
(0.000210954 -0.000801574 0)
(0.000203715 -0.000800859 0)
(0.000208691 -0.000757665 0)
(0.000216148 -0.000749235 0)
(0.000213602 -0.000698417 0)
(0.00020629 -0.000705891 0)
(0.000210832 -0.000639828 0)
(0.000218133 -0.000630658 0)
(0.000215036 -0.000570351 0)
(0.000222355 -0.000560349 0)
(0.000218999 -0.00049734 0)
(0.000211662 -0.00051288 0)
(0.000215331 -0.000440056 0)
(0.000222993 -0.000419201 0)
(0.000219148 -0.000366849 0)
(0.000210272 -0.000393433 0)
(0.000215215 -0.00032344 0)
(0.000222977 -0.000296328 0)
(0.000219255 -0.000259016 0)
(0.000211323 -0.000281754 0)
(0.000216023 -0.000220351 0)
(0.000224576 -0.000191563 0)
(0.000220071 -0.000160139 0)
(0.000212324 -0.000178782 0)
(0.000216174 -0.000118706 0)
(0.000224233 -9.04576e-05 0)
(0.000220592 -4.3313e-05 0)
(0.000229019 -6.49446e-06 0)
(0.000225345 4.80318e-05 0)
(0.000216361 1.68565e-05 0)
(0.000220884 0.000108459 0)
(0.000230102 0.000145607 0)
(0.00022543 0.000205174 0)
(0.000234657 0.000243599 0)
(0.000229797 0.00030505 0)
(0.000220395 0.00026914 0)
(0.000224741 0.000371783 0)
(0.000234046 0.000405035 0)
(0.000229244 0.000469564 0)
(0.000219839 0.000447595 0)
(0.000224583 0.000541362 0)
(0.000233826 0.000563933 0)
(0.000229632 0.00063338 0)
(0.00023861 0.00065796 0)
(0.000234881 0.000727055 0)
(0.000225817 0.000708148 0)
(0.000231138 0.00079789 0)
(0.000239892 0.000825033 0)
(0.000235949 0.00089502 0)
(0.000226989 0.000867932 0)
(0.000231564 0.000964332 0)
(0.000240356 0.000995238 0)
(0.000236169 0.00105919 0)
(0.000244857 0.00108896 0)
(0.000240977 0.00114612 0)
(0.000249295 0.00117731 0)
(0.000245772 0.00123054 0)
(0.000237152 0.00119753 0)
(0.00024211 0.00128112 0)
(0.000250169 0.00131465 0)
(0.0002463 0.00136706 0)
(0.000237962 0.00133046 0)
(0.000241954 0.00141743 0)
(0.000249922 0.00145448 0)
(0.000245755 0.0015059 0)
(0.000253567 0.00153734 0)
(0.00024944 0.00158584 0)
(0.000124528 -0.00105051 0)
(0.000166475 -0.00103975 0)
(0.000162435 -0.000991871 0)
(0.000162362 -0.000958678 0)
(0.000165037 -0.000966971 0)
(0.000163929 -0.000933033 0)
(0.000166691 -0.000947968 0)
(0.000150591 -0.00113553 0)
(0.000120213 -0.000529292 0)
(0.000114336 -0.000504369 0)
(0.000117805 -0.000520869 0)
(0.000113048 -0.000496163 0)
(0.000116916 -0.000514033 0)
(0.000111618 -0.000489389 0)
(0.00011485 -0.000508791 0)
(0.000107788 -0.000484957 0)
(0.000148525 -0.00110254 0)
(0.000110334 -0.0005064 0)
(0.000102712 -0.000485635 0)
(0.000126446 -0.000551198 0)
(0.000104576 -0.000508874 0)
(9.71993e-05 -0.000492288 0)
(0.000103549 -0.000464345 0)
(9.84225e-05 -0.000516847 0)
(9.15638e-05 -0.000504077 0)
(0.000111395 -0.000526176 0)
(9.21043e-05 -0.000530064 0)
(8.68683e-05 -0.000519608 0)
(8.60945e-05 -0.000492049 0)
(8.35563e-05 -0.000509017 0)
(8.34346e-05 -0.000537716 0)
(8.16629e-05 -0.000528056 0)
(8.07953e-05 -0.000558652 0)
(7.97218e-05 -0.000549605 0)
(8.0141e-05 -0.000517276 0)
(7.8345e-05 -0.000539175 0)
(0.000140906 -0.00112607 0)
(7.76166e-05 -0.000505401 0)
(7.59051e-05 -0.000528132 0)
(7.6869e-05 -0.000562999 0)
(7.51059e-05 -0.000552992 0)
(7.3561e-05 -0.000516591 0)
(7.37308e-05 -0.000543018 0)
(7.50318e-05 -0.000580653 0)
(7.41068e-05 -0.000572514 0)
(7.24712e-05 -0.000532247 0)
(7.29276e-05 -0.000562339 0)
(7.04726e-05 -0.000520674 0)
(7.12431e-05 -0.000551879 0)
(7.42165e-05 -0.000592747 0)
(7.30351e-05 -0.000582406 0)
(6.89518e-05 -0.000542059 0)
(7.13224e-05 -0.000571223 0)
(6.65645e-05 -0.000533837 0)
(6.95122e-05 -0.000560292 0)
(6.46862e-05 -0.000525987 0)
(6.83566e-05 -0.000549259 0)
(6.37475e-05 -0.000516039 0)
(6.8223e-05 -0.000536582 0)
(6.35741e-05 -0.000503854 0)
(6.85727e-05 -0.000521833 0)
(6.36411e-05 -0.000489096 0)
(6.8656e-05 -0.000504718 0)
(6.36546e-05 -0.000471341 0)
(6.84863e-05 -0.000485029 0)
(6.37149e-05 -0.000450452 0)
(6.83594e-05 -0.000461652 0)
(6.39759e-05 -0.000426095 0)
(6.83138e-05 -0.000433521 0)
(6.40602e-05 -0.000397548 0)
(6.79753e-05 -0.000402887 0)
(6.37394e-05 -0.000368854 0)
(6.735e-05 -0.000374085 0)
(6.32966e-05 -0.000344819 0)
(6.70067e-05 -0.000350512 0)
(6.29629e-05 -0.000325749 0)
(6.68558e-05 -0.000328211 0)
(6.26647e-05 -0.000305527 0)
(6.66824e-05 -0.000302127 0)
(6.22911e-05 -0.000277508 0)
(6.64355e-05 -0.000268936 0)
(6.18221e-05 -0.000244899 0)
(6.58612e-05 -0.000231348 0)
(6.11881e-05 -0.000212989 0)
(6.51893e-05 -0.000196448 0)
(6.03927e-05 -0.000183603 0)
(6.44571e-05 -0.000166687 0)
(5.9597e-05 -0.000158638 0)
(6.38028e-05 -0.000141911 0)
(5.89901e-05 -0.000136632 0)
(6.317e-05 -0.00011752 0)
(5.86889e-05 -0.000109667 0)
(6.27936e-05 -8.78936e-05 0)
(5.84994e-05 -7.44266e-05 0)
(6.25946e-05 -5.31699e-05 0)
(5.82056e-05 -3.88478e-05 0)
(6.22192e-05 -2.02615e-05 0)
(5.77515e-05 -1.0847e-05 0)
(6.17135e-05 5.27832e-06 0)
(5.72587e-05 1.11363e-05 0)
(6.11374e-05 2.74581e-05 0)
(5.68111e-05 3.22807e-05 0)
(6.0688e-05 5.00083e-05 0)
(5.64479e-05 5.17784e-05 0)
(6.03734e-05 7.0815e-05 0)
(5.62264e-05 6.98054e-05 0)
(6.0202e-05 9.11793e-05 0)
(5.61937e-05 9.01466e-05 0)
(6.01482e-05 0.00011159 0)
(5.62329e-05 0.000111606 0)
(6.01788e-05 0.000129925 0)
(5.63827e-05 0.000128557 0)
(6.04637e-05 0.000143346 0)
(5.68694e-05 0.000137188 0)
(6.10337e-05 0.000150733 0)
(5.76651e-05 0.000139799 0)
(6.19954e-05 0.000155873 0)
(5.87283e-05 0.000144015 0)
(6.32516e-05 0.000165984 0)
(5.99956e-05 0.000157379 0)
(6.46162e-05 0.00018314 0)
(6.12531e-05 0.000176652 0)
(6.62828e-05 0.000204096 0)
(6.25528e-05 0.000197403 0)
(6.77868e-05 0.00022673 0)
(6.38175e-05 0.00022081 0)
(6.89824e-05 0.000252679 0)
(6.51968e-05 0.000248911 0)
(7.04137e-05 0.000282353 0)
(6.67574e-05 0.000281754 0)
(7.20748e-05 0.000315145 0)
(6.83901e-05 0.000315876 0)
(7.3817e-05 0.000349759 0)
(7.01138e-05 0.000350162 0)
(7.55535e-05 0.000384136 0)
(7.17652e-05 0.000381722 0)
(7.71067e-05 0.000415499 0)
(7.3533e-05 0.000408328 0)
(7.89235e-05 0.000444833 0)
(7.53903e-05 0.000435115 0)
(8.0662e-05 0.000474929 0)
(7.70092e-05 0.000464387 0)
(8.21576e-05 0.000506679 0)
(7.84974e-05 0.000497197 0)
(8.38008e-05 0.000541658 0)
(7.99413e-05 0.00052906 0)
(8.54127e-05 0.000572655 0)
(8.13987e-05 0.000553927 0)
(8.71647e-05 0.000597521 0)
(8.32411e-05 0.000576092 0)
(8.90887e-05 0.000620996 0)
(8.54057e-05 0.000599754 0)
(9.12295e-05 0.000645495 0)
(8.78215e-05 0.000623805 0)
(9.38376e-05 0.000669766 0)
(9.05642e-05 0.000646681 0)
(9.6716e-05 0.000694856 0)
(9.32245e-05 0.000671843 0)
(9.93782e-05 0.000725094 0)
(9.55313e-05 0.000704158 0)
(8.94644e-05 0.000648252 0)
(9.15245e-05 0.000682331 0)
(9.75389e-05 0.000742296 0)
(9.33703e-05 0.000719754 0)
(7.74322e-05 0.000530317 0)
(7.03752e-05 0.000396234 0)
(6.33642e-05 0.000286798 0)
(5.81185e-05 0.000176414 0)
(5.35108e-05 0.000122127 0)
(5.2563e-05 7.33663e-05 0)
(6.44407e-05 0.000134627 0)
(6.59143e-05 2.82777e-05 0)
(6.81859e-05 -0.000122017 0)
(7.13593e-05 -0.00029499 0)
(7.21949e-05 -0.000438098 0)
(5.36728e-05 3.51838e-07 0)
(7.33682e-05 0.000265421 0)
(8.94566e-05 0.000586671 0)
(8.08967e-05 0.000419493 0)
(7.34771e-05 -0.000553949 0)
(5.47279e-05 -0.000130862 0)
(9.99869e-05 0.000716098 0)
(7.63241e-05 -0.000620592 0)
(5.74194e-05 -0.000222342 0)
(5.91849e-05 -0.000313494 0)
(0.00016471 -0.000913715 0)
(0.000167229 -0.00093416 0)
(6.66556e-05 0.000174341 0)
(5.93315e-05 -0.000420398 0)
(6.01973e-05 -0.000493098 0)
(0.000164775 -0.000902428 0)
(0.000167333 -0.00092823 0)
(0.00016448 -0.000897375 0)
(0.000166573 -0.000919968 0)
(0.00016425 -0.000897103 0)
(0.000166263 -0.000918372 0)
(0.000167944 -0.000937436 0)
(0.000167525 -0.000936486 0)
(0.000168959 -0.000953612 0)
(0.000168418 -0.000953017 0)
(0.000169739 -0.000971271 0)
(0.000169064 -0.000969568 0)
(0.000166049 -0.000918349 0)
(0.000161869 -0.000875794 0)
(0.000169763 -0.000988143 0)
(0.000168628 -0.000982108 0)
(0.000167835 -0.000996969 0)
(0.000166153 -0.000985993 0)
(0.000166416 -0.000977775 0)
(0.000163224 -0.00097829 0)
(0.000163281 -0.000973751 0)
(0.000161691 -0.000981871 0)
(7.89944e-05 -0.000671172 0)
(1.30768e-05 -0.000270063 0)
(1.6803e-05 -0.000285047 0)
(1.78189e-05 -0.000283327 0)
(1.48499e-05 -0.000268543 0)
(1.97541e-05 -0.000281279 0)
(1.67366e-05 -0.000267018 0)
(2.11657e-05 -0.000280319 0)
(1.82109e-05 -0.000266773 0)
(2.20958e-05 -0.000280314 0)
(2.04164e-05 -0.000267413 0)
(2.43068e-05 -0.00028063 0)
(2.34953e-05 -0.000268619 0)
(2.73136e-05 -0.000281992 0)
(2.63055e-05 -0.000270906 0)
(2.96546e-05 -0.000284305 0)
(2.74437e-05 -0.000274671 0)
(2.55748e-05 -0.000294494 0)
(3.04271e-05 -0.000288933 0)
(2.69994e-05 -0.000280229 0)
(3.16812e-05 -0.000294569 0)
(0.000149581 -0.00109256 0)
(3.02718e-05 -0.000295542 0)
(2.61133e-05 -0.000287576 0)
(0.000181381 -0.0009664 0)
(0.000137077 -0.00108641 0)
(2.97522e-05 -0.000302442 0)
(2.55319e-05 -0.000296035 0)
(1.80041e-05 -0.000254571 0)
(0.00029913 0.00122589 0)
(0.0003019 0.00126815 0)
(0.000299041 0.0011791 0)
(0.000295721 0.00113463 0)
(0.000295717 0.00108054 0)
(0.000298826 0.00112044 0)
(0.000295734 0.00101686 0)
(0.000298594 0.001052 0)
(0.000295378 0.000945402 0)
(0.000291782 0.000913729 0)
(0.000291726 0.000841018 0)
(0.000294713 0.000866468 0)
(0.000292355 0.00076104 0)
(0.000288649 0.000739359 0)
(0.000290549 0.000655265 0)
(0.000293237 0.000677473 0)
(0.000291598 0.000567323 0)
(0.000293239 0.000593827 0)
(0.000291162 0.000481317 0)
(0.000289 0.000454729 0)
(0.000288 0.00036933 0)
(0.000289311 0.000399304 0)
(0.000285878 0.000288182 0)
(0.000284208 0.00026233 0)
(0.000282637 0.000182743 0)
(0.000283711 0.000206241 0)
(0.000281198 0.000100001 0)
(0.000279966 8.55982e-05 0)
(0.000279255 5.19202e-06 0)
(0.00027995 1.13129e-05 0)
(0.000278544 -7.69478e-05 0)
(0.000277195 -8.683e-05 0)
(0.000277057 -0.000166237 0)
(0.000277929 -0.000157535 0)
(0.000276582 -0.000243715 0)
(0.000277358 -0.000237402 0)
(0.000275981 -0.000320502 0)
(0.000273988 -0.000331902 0)
(0.000273402 -0.000402753 0)
(0.000275605 -0.000398906 0)
(0.000272783 -0.00047563 0)
(0.000269057 -0.000481429 0)
(0.00026811 -0.000552849 0)
(0.000271472 -0.000557867 0)
(0.000266663 -0.000635371 0)
(0.000262403 -0.000631124 0)
(0.000261239 -0.000716018 0)
(0.000264729 -0.000730444 0)
(0.000259165 -0.0008099 0)
(0.00026182 -0.000831426 0)
(0.000256049 -0.000906373 0)
(0.000252747 -0.000883574 0)
(0.000249187 -0.000972806 0)
(0.000251758 -0.00099883 0)
(0.000244389 -0.00105368 0)
(0.000246163 -0.00108044 0)
(0.00023849 -0.00112297 0)
(0.000239739 -0.00114942 0)
(0.000232161 -0.00118265 0)
(0.000232948 -0.00120698 0)
(0.000225777 -0.00123493 0)
(0.000224478 -0.00121034 0)
(0.000218925 -0.00125882 0)
(0.000219531 -0.00127965 0)
(0.000213404 -0.00130221 0)
(0.000213198 -0.00131741 0)
(0.00020774 -0.00134095 0)
(0.000206712 -0.0013495 0)
(0.000201805 -0.00137189 0)
(0.000200259 -0.00137723 0)
(0.000195694 -0.00139479 0)
(0.000196141 -0.00138401 0)
(0.000190044 -0.00139719 0)
(0.000189481 -0.00138032 0)
(0.000183449 -0.00138516 0)
(0.00018227 -0.00136545 0)
(0.000176404 -0.00136482 0)
(0.000174492 -0.00134314 0)
(0.000168938 -0.00133816 0)
(0.000244839 -0.000950081 0)
(0.000193993 -0.00139911 0)
(0.000166095 -0.00131306 0)
(0.00016113 -0.00130648 0)
(0.000171955 -0.00131272 0)
(0.000157498 -0.00127671 0)
(0.000153227 -0.00126917 0)
(0.000156502 -0.00129375 0)
(0.000149035 -0.00123478 0)
(0.00014875 -0.00125235 0)
(0.000151585 -0.00127258 0)
(0.000246274 -0.00110561 0)
(0.00020489 -0.00135156 0)
(0.000143312 -0.00122244 0)
(0.000145688 -0.00123875 0)
(0.00023342 0.00137533 0)
(0.000222516 0.000932618 0)
(0.00025301 0.00111781 0)
(0.00026084 0.00155668 0)
(4.1273e-05 0.000286843 0)
(3.85012e-05 0.000258027 0)
(4.03909e-05 0.000266742 0)
(3.7735e-05 0.000240395 0)
(3.95773e-05 0.000253349 0)
(3.70109e-05 0.000228211 0)
(3.88599e-05 0.000245471 0)
(3.62876e-05 0.000220649 0)
(3.80578e-05 0.000239411 0)
(3.5545e-05 0.000214017 0)
(3.72393e-05 0.000230373 0)
(3.4802e-05 0.000204561 0)
(3.64377e-05 0.000217767 0)
(3.40939e-05 0.000192952 0)
(3.56683e-05 0.000202315 0)
(3.34271e-05 0.000178922 0)
(3.49522e-05 0.000184656 0)
(3.2792e-05 0.000163486 0)
(3.42561e-05 0.000167673 0)
(3.21772e-05 0.000150042 0)
(3.35695e-05 0.000154676 0)
(3.15887e-05 0.000141246 0)
(3.28973e-05 0.000145281 0)
(3.10458e-05 0.000134035 0)
(3.22506e-05 0.00013427 0)
(3.04953e-05 0.000123578 0)
(3.1604e-05 0.000119371 0)
(2.99166e-05 0.000109982 0)
(3.09704e-05 0.000104935 0)
(2.93733e-05 9.78675e-05 0)
(3.03887e-05 9.32835e-05 0)
(2.89298e-05 8.63618e-05 0)
(2.99551e-05 8.43005e-05 0)
(2.85429e-05 7.74323e-05 0)
(2.95661e-05 8.20271e-05 0)
(2.81777e-05 7.54728e-05 0)
(2.91802e-05 8.69193e-05 0)
(2.7826e-05 8.10757e-05 0)
(2.88613e-05 9.70648e-05 0)
(2.75434e-05 9.13339e-05 0)
(2.85846e-05 0.000111019 0)
(2.73109e-05 0.000106119 0)
(2.8379e-05 0.000129441 0)
(2.71224e-05 0.000126116 0)
(2.81294e-05 0.00014958 0)
(2.69799e-05 0.000146891 0)
(2.78498e-05 0.000163659 0)
(2.68561e-05 0.00016155 0)
(2.76902e-05 0.000171736 0)
(2.67671e-05 0.000167462 0)
(2.759e-05 0.000173627 0)
(2.66741e-05 0.000167025 0)
(2.74658e-05 0.00017068 0)
(2.65547e-05 0.000164135 0)
(2.73183e-05 0.00016491 0)
(2.64132e-05 0.000159362 0)
(2.71465e-05 0.000156955 0)
(2.62412e-05 0.000151757 0)
(2.69268e-05 0.000147496 0)
(2.60136e-05 0.00014178 0)
(2.66669e-05 0.000138938 0)
(2.57583e-05 0.000133949 0)
(2.64077e-05 0.000132397 0)
(2.54877e-05 0.000129184 0)
(2.61378e-05 0.000126398 0)
(2.52362e-05 0.000122582 0)
(2.58949e-05 0.000118077 0)
(2.50199e-05 0.000111284 0)
(2.57037e-05 0.000107419 0)
(2.48179e-05 9.84026e-05 0)
(2.55206e-05 9.71329e-05 0)
(2.46327e-05 8.69295e-05 0)
(2.53537e-05 8.97561e-05 0)
(2.44607e-05 8.06136e-05 0)
(2.51642e-05 8.67053e-05 0)
(2.4295e-05 7.80919e-05 0)
(2.49619e-05 8.4308e-05 0)
(2.41333e-05 7.31771e-05 0)
(2.47763e-05 7.79383e-05 0)
(2.39574e-05 6.31323e-05 0)
(2.45813e-05 6.66603e-05 0)
(2.37581e-05 5.01952e-05 0)
(2.43895e-05 5.15704e-05 0)
(2.35688e-05 3.63054e-05 0)
(2.42052e-05 3.40074e-05 0)
(2.33754e-05 1.91116e-05 0)
(2.40086e-05 1.32281e-05 0)
(2.31894e-05 -3.02287e-06 0)
(2.382e-05 -1.06489e-05 0)
(2.30457e-05 -2.78583e-05 0)
(2.36474e-05 -3.46883e-05 0)
(2.2938e-05 -4.9901e-05 0)
(2.35414e-05 -5.20255e-05 0)
(3.39859e-05 0.000198615 0)
(2.28641e-05 -6.19818e-05 0)
(2.35054e-05 -6.07996e-05 0)
(2.28157e-05 -6.63455e-05 0)
(2.34921e-05 -6.38801e-05 0)
(2.27823e-05 -6.97603e-05 0)
(2.3501e-05 -6.76318e-05 0)
(3.0879e-05 0.000150332 0)
(2.27695e-05 -7.72933e-05 0)
(2.35073e-05 -7.59981e-05 0)
(2.2751e-05 -8.82356e-05 0)
(2.34717e-05 -8.59308e-05 0)
(2.26674e-05 -9.86086e-05 0)
(2.3364e-05 -9.3012e-05 0)
(2.82193e-05 0.000101527 0)
(2.25358e-05 -0.000103518 0)
(2.31824e-05 -9.6941e-05 0)
(2.23666e-05 -0.000103856 0)
(2.30056e-05 -9.74504e-05 0)
(2.22023e-05 -0.000100685 0)
(2.28888e-05 -9.34524e-05 0)
(2.68971e-05 7.1645e-05 0)
(2.20795e-05 -9.35214e-05 0)
(2.2815e-05 -8.57033e-05 0)
(2.19793e-05 -8.17512e-05 0)
(2.28017e-05 -7.30381e-05 0)
(2.61503e-05 0.00012936 0)
(2.19237e-05 -6.63392e-05 0)
(2.28511e-05 -5.67096e-05 0)
(2.19083e-05 -4.98363e-05 0)
(2.28915e-05 -4.19838e-05 0)
(2.19196e-05 -3.87209e-05 0)
(2.2888e-05 -3.45508e-05 0)
(2.57306e-05 0.000157989 0)
(2.19558e-05 -3.56313e-05 0)
(2.28856e-05 -3.45145e-05 0)
(2.20054e-05 -3.78251e-05 0)
(2.2912e-05 -3.97917e-05 0)
(2.21041e-05 -4.31311e-05 0)
(2.29996e-05 -5.22037e-05 0)
(3.34128e-05 0.00013078 0)
(2.844e-05 0.00017812 0)
(4.00524e-05 0.000259882 0)
(2.44491e-05 -1.77987e-05 0)
(2.56592e-05 8.95703e-05 0)
(2.71655e-05 0.000129761 0)
(2.45966e-05 0.000125525 0)
(3.00537e-05 0.000119468 0)
(2.22606e-05 -5.57858e-05 0)
(2.31517e-05 -7.32673e-05 0)
(2.43097e-05 -8.14179e-05 0)
(2.24554e-05 -7.65444e-05 0)
(2.32733e-05 -0.000101215 0)
(2.25935e-05 -0.000106793 0)
(2.33041e-05 -0.000135821 0)
(2.39089e-05 -6.23111e-05 0)
(2.3951e-05 -9.54988e-05 0)
(2.3895e-05 7.79601e-05 0)
(2.25929e-05 -0.000143557 0)
(2.32197e-05 -0.000172427 0)
(3.66356e-05 0.000190212 0)
(4.32589e-05 0.000292092 0)
(2.32662e-05 4.67347e-05 0)
(2.25139e-05 -0.000180051 0)
(2.30689e-05 -0.000206659 0)
(2.23868e-05 -0.000212426 0)
(2.28354e-05 -0.00023694 0)