/*--------------------------------*- C++ -*----------------------------------*\
| =========                 |                                                 |
| \\      /  F ield         | OpenFOAM: The Open Source CFD Toolbox           |
|  \\    /   O peration     | Version:  v2012                                 |
|   \\  /    A nd           | Website:  www.openfoam.com                      |
|    \\/     M anipulation  |                                                 |
\*---------------------------------------------------------------------------*/
FoamFile
{
    version     2.0;
    format      ascii;
    class       volScalarField;
    location    "950";
    object      ddt0(omega);
}
// * * * * * * * * * * * * * * * * * * * * * * * * * * * * * * * * * * * * * //

dimensions      [0 0 -2 0 0 0 0];


internalField   nonuniform List<scalar> 
13851
(
-0.000208721
-4.80137e-05
-4.48775e-05
0.0290382
-6.64071e-06
-5.92637e-05
-4.60211e-05
-7.24968e-06
0.0847716
-5.54759e-06
0.000128206
-6.97224e-06
-9.33592e-06
0.0541247
-0.000117316
-0.000609183
0.111877
-1.42451e-05
-0.00119536
-0.000265826
-0.000124019
-5.33235e-05
0.332564
-1.20727e-06
0.00180853
-0.000310119
-0.00532461
-0.000508725
0.0650531
-9.56079e-06
0.0530886
-4.48934e-05
-6.95121e-05
0.0300601
-2.9801e-05
0.0587286
-2.76481e-07
-0.140036
0.114673
-2.0079e-05
0.0698704
0.0600999
0.159959
-0.00177906
0.0548794
-1.42772e-05
1.96987e-06
-0.000450216
-4.1771e-05
-7.52839e-06
0.0817835
-7.25685e-06
-0.000479959
-0.000105459
0.0583506
-1.95866e-05
-8.61775e-05
0.0979391
-0.00769443
0.0811079
-7.00084e-06
-0.00213687
-2.69022e-06
-4.52358e-05
-0.0137924
-0.014153
0.0876935
-0.0299056
-1.99076e-05
0.0141845
0.0872367
-0.000120637
-1.25424e-05
0.0713775
-0.000116183
-4.02925e-05
0.105382
-6.06943e-06
0.0153455
-1.18381e-05
-2.15802e-05
0.00235465
-4.57245e-05
0.0557006
0.0773875
0.069425
-5.37987e-05
0.0319428
-7.66111e-06
0.0460051
-5.87976e-06
-4.60325e-05
0.230685
0.0663597
0.163301
0.00892079
-1.39981e-05
-0.000744334
0.0925441
-0.00171331
-0.000690531
0.00512937
-0.00555687
-1.18247e-05
-1.32054e-05
-9.92665e-05
-1.36913e-05
0.0860014
-4.63355e-05
-1.65792e-05
-5.51071e-05
-1.426e-05
-0.000531112
2.53731e-05
-0.000209052
-0.000109366
-8.42596e-06
-6.25555e-06
0.0391238
-0.0114551
-0.00264018
-1.22101e-05
-2.15342e-05
0.0980183
-0.000948921
-0.0185462
-1.58956e-05
0.000212693
0.0930496
-0.000155519
-5.31695e-05
-7.40151e-05
-0.0137334
0.0383114
0.00012364
0.16065
-0.0111457
0.0735104
-0.000491167
-0.000150061
0.00211854
-1.61253e-05
-7.76203e-06
-0.0110134
0.000374144
-3.57037e-05
-5.6617e-06
0.0590056
0.0616899
5.13935e-05
-0.000621842
-0.000108695
6.39277e-05
0.000450131
-8.5625e-06
-4.85241e-06
-5.93471e-06
0.141972
-0.000133169
-3.65876e-05
-1.79052e-06
0.063795
-0.00011014
-0.000434881
0.0853268
0.0712046
0.0691152
0.086598
-5.49343e-05
-0.312994
-6.40911e-06
-8.7008e-06
-3.98411e-05
-5.51039e-06
0.129328
-0.0028753
-0.000623978
-8.95895e-06
-0.000112834
-0.00073029
-0.000611053
-0.00405876
-5.70951e-05
-0.000147819
0.246946
0.06182
-0.00012239
-3.50743e-05
-8.78138e-06
-1.18326e-05
-0.00237625
-0.000132063
0.132968
-6.01766e-05
-3.41647e-05
-0.00065248
-0.000282552
-1.62927e-05
-2.23632e-05
-0.00460009
0.00122505
0.143912
0.0979178
-0.000119388
-0.058073
0.150732
-5.63768e-06
-0.000166216
0.0885848
-5.49754e-05
-0.00069403
-2.01842e-05
0.00153327
-8.02643e-07
-3.47279e-05
-4.4365e-05
-7.535e-06
9.04525e-05
-2.25512e-05
-0.00165912
-8.01535e-06
4.73883e-05
-0.0418693
0.159686
-2.20207e-05
-0.000172893
-8.27719e-07
-0.0116193
-9.1653e-06
-3.45599e-05
-0.0974667
-1.14826e-05
-5.58714e-05
-1.79334e-06
0.103439
-9.46003e-06
-0.516773
0.0991813
-0.00158552
-7.93026e-07
0.00248843
0.0753332
0.0422703
-0.000628636
-7.18218e-05
0.00440195
0.000274091
-0.000117171
0.000721365
-5.21503e-05
0.0546105
-0.000190586
-7.64971e-06
-6.19189e-05
-0.000699385
0.0634728
0.0464386
-1.08649e-05
-0.0309882
-6.91774e-06
-0.000263545
3.06718e-05
-6.63233e-05
-0.000120156
-0.000212636
-1.23382e-05
-0.00378419
-0.000362318
-0.00321244
-6.83012e-06
-6.67481e-06
6.22643e-06
0.059313
0.0612177
-0.000126105
-1.20106e-05
-0.000261601
0.000993538
-0.000117211
-0.000109672
0.0777366
0.0803316
-6.62155e-05
-8.65209e-05
-0.604177
-1.55094e-05
-6.00133e-06
-0.000278771
9.53457e-05
-9.41002e-06
-2.28708e-06
-1.01731e-05
-8.35985e-06
-0.000118063
-6.3034e-06
0.0863401
-0.000113085
-1.85062e-05
0.0632079
0.0933982
-8.65648e-06
-0.000130395
0.100601
-1.59433e-05
-6.53994e-06
-0.00012017
0.118514
0.0263029
-4.94166e-05
-6.91501e-06
-0.271662
-6.32804e-06
-4.38646e-05
0.109552
-0.00297164
-3.55797e-05
1.06894
-0.000696694
0.0946268
0.00157211
-0.00581594
0.140784
0.107908
-0.00353458
-2.22457e-05
0.0897066
-0.0539871
0.051038
-0.0393151
-4.71062e-06
-2.23009e-05
-3.6713e-05
0.0319816
0.00623308
-8.2038e-06
3.91365e-06
-6.17697e-05
0.0999696
-0.00325243
-1.4545e-05
0.161028
-3.08069e-05
-6.89498e-05
-3.8243e-05
-0.0537205
0.000238619
-0.00056107
-4.19767e-05
-5.45941e-05
0.0555268
-9.10615e-06
0.000944994
-6.9495e-05
-0.000119507
-3.43219e-05
-7.41384e-06
-1.82194e-05
-0.00167473
-0.00309803
5.68886e-05
0.00531006
0.052925
-3.59334e-05
0.11939
-0.00038485
-6.06623e-06
-0.00308476
-6.50437e-05
0.0941053
-6.04792e-05
-0.000362529
-0.00354402
0.0132436
-0.000328658
0.0533853
-3.2012e-05
-0.0029254
0.181353
-7.87922e-05
0.0426439
-8.16567e-05
0.0688289
-7.61648e-05
-0.000178842
0.000439804
-0.000141541
-5.7592e-06
-6.13824e-05
0.000127227
-0.000117028
-1.50334e-05
-0.000130246
-0.292226
-1.22473e-05
-0.000164218
0.0484198
-4.6043e-05
-0.441701
-0.000205492
0.00793544
-5.93138e-05
-0.000318043
-0.0328588
-0.000808628
-7.52291e-05
0.0379329
0.0656437
0.00302878
-1.20499e-05
-0.000537796
-8.09557e-05
-0.000353678
-1.18925e-05
0.191228
-0.205451
-0.0111149
-5.35265e-05
-2.91204e-05
-0.000935325
0.0655721
-1.07938e-06
0.102946
0.00157809
0.201183
-5.09479e-05
0.000283798
-8.97225e-06
-5.56767e-06
0.0536442
-0.000940177
-5.44597e-06
-4.74634e-05
-0.000164538
-8.96166e-06
-0.376284
-3.8302e-05
-7.87358e-05
-6.03454e-05
-3.28111e-05
-2.24176e-06
0.0122918
-1.79643e-05
-1.57297e-06
-0.398619
-0.334802
-5.1789e-05
-0.00158617
-7.85674e-07
-6.85693e-06
-4.80247e-05
-0.000114012
-0.000211028
-1.43311e-05
-3.21477e-05
-0.000957362
-3.8412e-05
0.0275248
-7.39545e-06
-8.82132e-05
0.0475569
-4.38665e-05
-6.48502e-07
-6.32593e-06
-5.28771e-05
-1.771e-05
0.0187317
-0.161061
-7.37915e-05
-0.00659871
-4.94468e-05
-8.07061e-06
0.097481
-0.0032757
5.81842e-05
-1.39032e-05
0.104368
0.000311668
0.997769
-1.14546e-05
-7.19051e-05
-0.00211187
-0.000126858
0.107324
-0.00227431
0.00162831
-2.56597e-05
0.001648
-1.35889e-05
0.0671638
-0.000192358
-0.000289621
-8.24874e-05
-4.14216e-05
-4.43162e-05
-5.19078e-05
-6.13709e-06
0.0750995
0.0979503
0.00578982
-0.00836429
-0.166917
0.109655
0.000560639
-1.86727e-05
-2.2535e-06
-0.578206
-4.26393e-06
-1.35925e-05
-2.0646e-05
0.123283
-4.46366e-05
-1.44525e-05
0.00496754
-6.575e-05
-3.00729e-06
-0.249736
-1.26797e-05
0.0658036
0.020325
-1.1762e-05
-3.53582e-05
0.00118063
-0.00415368
-9.31685e-06
0.00370123
-8.74651
-8.04802e-06
0.123187
-0.000616548
0.000156414
-2.56509e-05
-0.388729
0.0808907
-8.78218e-06
0.00118301
-1.97569e-05
-1.28929e-05
-0.452104
0.0731078
-7.79001e-05
-0.000209163
-3.91368e-06
-0.00026715
0.0702803
0.135598
-9.80038e-06
0.0989529
-1.56823e-05
-1.93141e-05
-9.31079e-05
-8.34936e-05
-1.4938e-06
-4.07162e-05
0.129456
0.00297161
0.138595
-4.27461e-05
-7.51005e-06
0.0529453
-3.75769e-06
0.00252401
-7.13423e-05
-0.000116304
-8.34136e-05
0.003882
0.0899148
-5.95879e-05
0.102347
-3.2921e-05
-2.07093e-05
0.0547817
0.0490541
-2.07584e-05
-1.27209e-05
0.00329335
0.136347
-0.00112918
-0.000260882
-0.867519
-8.51586e-05
-7.40609e-05
-0.0065745
-0.374543
0.00257954
0.0815584
-0.000325868
0.0493948
-2.69507e-05
-0.00746907
-0.00604746
-7.11944e-06
0.127813
-0.221621
-5.91648e-05
-0.000149959
-1.73447e-05
-0.0121539
-0.000580131
2.42726
-1.6752e-05
-4.3154e-06
-1.1875e-05
-5.98678e-05
-7.51163e-06
0.15231
-4.31087e-06
-7.19031e-05
-2.15204e-05
-0.000353332
-1.34043e-05
-3.03991e-06
-8.26645e-05
0.108194
-7.73946e-05
0.161207
-7.63285e-05
-8.70613e-06
-8.30947e-06
-5.16266e-05
-3.15951e-05
0.000253316
-4.9111e-05
-0.000426849
-0.0085934
-2.76591e-06
0.0514128
-8.21926e-07
-0.000438221
0.091637
0.0532108
0.00167187
-0.235622
0.00596399
0.00111268
-0.222414
-1.19155e-05
-0.199226
-3.59301e-05
-7.62319e-05
-0.0223959
-0.00286847
-6.49821e-06
0.000296175
-1.683e-05
0.0584369
0.0901481
-2.39239e-05
-0.00515321
-0.449978
-1.29267e-06
-1.32014e-06
-0.000325617
0.0656092
-0.279946
-6.05747e-06
0.000477042
-3.47274e-05
-3.66165e-06
-0.0122138
0.000794034
0.000177852
-1.20958e-06
-0.000417511
-0.000130005
-0.000316415
-5.7697e-06
-3.19936e-05
-0.0010731
-1.38138e-05
-0.000333595
-0.000118269
-0.000109044
0.00113612
0.042855
-0.00120058
-0.211427
-0.0161408
-0.000593561
0.0184662
-0.000371087
-0.384721
0.000105716
-1.41672e-05
-0.000102879
-0.00143645
-5.79264e-05
-1.14455e-05
-1.1161e-05
-0.000461995
0.0315683
-7.13176e-05
0.121428
-9.49813e-06
-0.533948
-0.00180858
0.114599
0.000307524
-5.79282e-05
-4.50103e-05
0.118287
-0.00109164
3.90142e-05
-0.00173055
-2.77937e-05
0.0444809
-0.000446323
-0.000165396
-7.14112e-05
-0.00119264
-7.95415e-06
-7.00443e-07
-5.37432e-06
-3.47999e-06
0.0611882
-8.21031e-06
-0.00775227
0.0683135
0.000380289
0.12872
0.094243
-0.000266617
0.000374777
2.41756e-06
-1.55508e-06
-6.59219e-06
-6.1672e-06
-9.86644e-06
-4.70777e-06
-2.32703e-05
-0.000259446
-0.000114902
-0.00641538
-3.09897e-05
0.086501
4.87796e-07
0.000220888
-5.03285e-05
-1.43976e-06
-1.01037e-06
0.0550589
-6.23265e-05
-0.104681
-0.215243
-0.00014837
-0.000110915
-4.31766e-06
0.0351712
-3.3583e-05
-4.55488e-05
-0.00897685
-1.45163e-06
-1.49612e-05
-1.11909e-05
-0.000187277
0.0554046
-6.55109e-05
-6.99553e-05
0.0019235
0.160388
2.49588e-05
-4.40211e-05
0.0503952
-5.86039e-06
0.0553614
-3.37521e-06
-3.91683e-05
0.0042636
-0.000218735
-0.000175692
0.000253891
-7.70879e-05
-2.5546e-06
6.34157e-07
6.95065e-06
-2.80918e-05
-2.08406e-06
-8.36481e-05
0.00179088
-7.73553e-06
0.00243041
0.350673
-0.0484334
-0.000115853
0.00935761
0.00369987
-1.84349e-06
0.00340043
-9.29732e-06
-6.19926e-05
-0.361258
0.0525056
-0.334849
0.0308059
-2.63878e-05
-2.3119e-05
0.00442327
-2.99487e-05
-1.27001e-05
0.387534
-0.000402253
0.0453166
-0.000464826
-0.000218444
-4.54824e-06
-9.72732e-06
0.0136869
-6.69256e-05
-4.34245e-05
-1.1582e-06
-0.000225303
-0.000565413
0.111426
-7.89535e-06
-3.76124e-06
0.0638306
-5.85738e-06
-8.21271e-05
-8.52581e-06
0.11816
-8.95033e-06
0.0909943
-4.54068e-06
-0.000448867
-0.000107999
0.000672635
-6.75705e-05
-1.19246e-05
-4.40833e-05
-7.11449e-06
-0.00848235
-9.01935e-06
0.0325712
-3.25826e-05
0.0292111
0.155875
-7.06749e-05
-8.71345e-06
0.0256402
-0.14295
-6.01531e-05
-0.000235847
-6.938e-06
0.0482193
-1.60223e-05
-0.00100351
-7.43991e-06
-6.98327e-06
-0.069415
-7.47084e-05
-6.31975e-06
-0.000112903
0.102195
-0.0203697
-0.321394
-1.10412e-05
0.0973253
-6.76539e-06
-7.57636e-06
-1.01305e-05
4.26946e-06
-1.08794e-06
-0.288431
-0.300997
-2.65136e-05
-4.60072e-06
-7.85071e-05
-1.38753e-05
-0.00594625
0.00348607
0.141051
0.119663
-4.19451e-05
-0.000362662
-7.03912e-06
-0.000115793
-0.001137
-1.00809e-05
-2.06048e-06
0.000384495
0.0933202
-0.000115324
0.223133
-0.000173977
-3.78324e-06
-8.15633e-05
-0.000235348
0.105878
-6.71798e-05
0.00963224
-4.80538e-05
-2.83675e-06
0.0929857
0.00776148
0.0397569
-0.0103917
-0.490481
-2.62337e-05
0.00614291
-1.99788e-06
-0.0055753
-5.73508e-05
-8.30063e-06
-0.29491
-3.07581e-05
-7.49574e-06
-2.18306e-05
-3.13167e-05
0.147763
-0.000384405
-1.12193e-05
-8.51794e-05
0.176735
-3.68606e-05
0.213045
-1.41903e-05
-0.000180947
0.0865786
-7.56677e-06
-0.00387925
-5.71616e-05
-7.2174e-05
0.0231176
-3.07761e-05
0.00176584
-0.000306413
0.0781501
-8.82098e-06
0.0305736
-7.60545e-05
0.0808852
0.102706
0.0483196
-0.000149774
-1.09097e-05
-2.6086e-05
-7.3082e-07
-0.000174527
-3.46797e-06
0.106287
-5.91537e-05
-2.34245e-05
6.62717e-05
-2.83286e-05
-1.11514e-05
-7.89154e-05
-5.81938e-05
-3.48306e-05
-5.67319e-05
-0.0741783
-0.00652858
-7.77764e-05
5.91131e-06
-0.322406
-1.52741e-05
0.0997393
-5.84466e-06
-6.94829e-05
-8.51697e-06
-1.68191e-05
-4.34016e-05
-8.70921e-06
-1.12711e-05
-0.0123353
-4.76574e-06
0.00247159
-3.11046e-05
0.168475
-0.00336365
-0.000612972
0.00198316
-1.72327e-05
0.157327
-0.000145868
-2.0722e-06
-5.72783e-05
-1.37789e-05
0.0966457
-1.16971e-05
-0.00433358
-0.00131202
0.0502177
0.00078852
-2.1423e-05
0.0173078
-0.000691365
-0.339532
-5.76739e-05
-8.92554e-06
-8.91992e-06
-4.64503e-05
-9.01303e-06
0.0757861
0.000951722
-2.23199e-06
-0.000315166
0.00195434
-1.36326e-05
-0.146978
0.100366
-0.000613295
-3.31067e-05
0.0146321
-5.2654e-06
-8.4727e-06
0.0512376
-4.44814e-05
-1.08976e-05
-1.27024e-05
-0.000108921
-0.000194685
0.0855494
0.0409032
-0.000166157
0.071565
-0.000119353
-8.30996e-06
0.0223612
-1.11448e-05
0.00664057
-1.10953e-05
-6.70976e-06
-3.68025e-05
-2.74188e-05
0.0698471
0.0647487
-0.00126907
0.0883196
-0.138707
-2.21906e-05
-1.3664e-05
-3.06306e-05
0.00253474
-1.04158e-05
-7.48609e-06
-4.09062e-05
0.0083055
-0.00372455
-1.38353e-06
-4.41496e-05
-7.72252e-05
-0.000171593
0.198228
-8.20036e-06
-1.34549e-06
-3.41639e-05
-0.000509403
-8.18656e-05
0.0787777
-3.09548e-05
-3.76408e-06
-1.04368e-05
-1.27238e-05
-4.32289e-05
-0.000619823
0.0429182
0.0691039
-0.000211959
-7.84544e-06
0.0183245
-1.59552e-05
0.000389386
0.0834447
-3.4954e-05
0.0990899
0.0651376
0.016252
-0.00025313
-0.000105425
0.0706395
-7.61531e-05
-4.67116e-05
-0.00215635
0.00203032
-2.74482e-05
0.00596429
-8.22632e-06
-0.437642
-0.00243489
-5.84887e-06
-2.31785e-05
-2.24451e-05
0.000941065
-8.66741e-05
-4.62384e-06
-8.05215e-05
-7.85939e-06
-5.65272e-05
0.0394855
-3.62153e-06
-0.0904501
0.0507518
-8.3096e-06
-7.3254e-05
-0.000182345
-6.84865e-06
0.0532541
0.109192
0.151369
0.0413376
-8.46867e-06
-4.67842e-05
-5.78781e-05
-1.01046e-05
-0.00103821
-8.7241e-05
-1.39076e-06
-0.000219809
-1.29007e-05
-0.087511
-0.000113721
-0.0942878
-6.38832e-06
-3.8172e-05
0.00341117
-1.45471e-05
-4.20733e-05
-1.11465e-05
0.0333427
0.0947765
0.776188
0.119016
-0.287302
0.0785428
0.0777255
-1.09534e-05
-8.05334e-06
-1.60901e-05
-0.000942872
-0.000198278
-1.41159e-05
0.0905031
-1.08184e-05
-6.02292e-06
-4.64461e-06
-0.0017192
-5.90644e-06
-6.67531e-05
-3.83997e-05
-0.271858
-1.86558e-05
-9.32675e-06
-6.50062e-06
-1.59168e-05
-4.19798e-06
-3.34654e-05
-0.00102133
-4.61979e-05
-0.432233
-7.36517e-06
-1.25368e-05
0.0900446
0.0613504
0.0289131
-0.141213
-0.00101563
-0.487822
-8.61612e-06
-0.000948812
-3.79919e-05
-4.81136e-06
-4.16153e-05
0.0848756
-3.77719e-05
-4.85053e-06
-0.0199096
-1.5717e-05
-1.76608e-05
-1.56207e-05
-0.000669366
2.68546e-07
-0.448339
-1.38542e-05
-0.00132286
-9.87736e-07
-2.58532e-05
-6.07079e-05
-0.000194268
-9.07993e-06
-0.00662687
0.0858551
-0.0012867
0.0345682
-8.28686e-06
0.103568
-0.00190716
-6.68448e-06
0.00788005
-9.26064e-06
0.00356738
-9.82709e-06
-1.71808e-05
-8.69233e-06
-2.13022e-06
-2.76118e-05
-4.58446e-05
-0.000138811
-2.35371e-05
-1.7768e-06
-0.0118942
-5.92322e-06
-0.30283
-1.78069e-06
-7.65818e-05
-0.000120005
0.0777638
-0.00502988
-4.77208e-06
-0.000830885
-8.31727e-06
-0.000101674
-0.000359946
-0.117176
-0.000156031
1.19373e-07
-0.000289158
0.00633573
-0.000191786
-0.000718391
-4.32066e-05
4.05395e-05
-0.000254045
-0.000169428
-1.69223e-05
-1.21375e-05
-0.0382003
0.0412999
-4.76256e-05
-8.50943e-06
0.199039
-9.88126e-06
-9.77843e-05
-1.06058e-05
0.00084504
0.00631351
-2.07966e-06
0.0726825
-5.88685e-05
-3.27385e-06
-0.000644214
-8.15587e-06
-0.00306005
0.0442311
-8.96408e-05
-0.0880905
-9.14232e-06
-1.03135e-06
0.00726837
-2.17652e-06
6.17274e-07
-7.36032e-05
-7.49487e-05
-0.000125916
0.000631917
-1.31751e-05
-3.71967e-05
-1.2775e-05
-8.08987e-06
-2.21903e-06
-6.53241e-06
-0.00806947
-1.07022e-05
-1.65323e-05
-0.00164049
-9.54969e-06
-8.81657e-06
0.047545
-2.03889e-06
0.13786
-4.07011e-05
0.0195321
-0.000438062
0.000680125
0.0147075
5.87163e-05
0.0891979
-1.68789e-05
0.00078212
-6.10242e-05
-1.17498e-05
-1.49638e-05
-1.13132e-05
-7.92249e-05
-1.51871e-05
-4.54282e-05
-1.04273e-05
-3.78919e-05
0.186345
0.055131
-0.107753
-4.06237e-05
-0.000713086
0.091637
-0.104563
-3.67686e-06
-6.68498e-05
-0.0810061
-1.91802e-05
-6.00746e-05
0.0637829
0.0614986
-6.68209e-05
-0.000145943
-3.00824e-05
0.00314644
-1.98341e-07
-4.45172e-05
0.00222446
-1.5106e-05
-7.25381e-06
-0.859743
-6.05308e-05
-0.00152698
0.0136502
-0.000407829
-1.37441e-05
-1.04912e-05
-2.14408e-05
0.102441
-0.00372468
-0.136976
-1.38773e-06
-3.97792e-06
0.114388
-3.83509e-06
3.66724e-05
-0.000157745
-3.17829e-05
-0.000103647
-7.34826e-06
-0.193616
-0.138007
-3.8553e-06
-8.08886e-05
-0.000208633
0.0691167
-6.09933e-05
-0.0002618
-0.00100148
-0.000120225
-0.00676693
-0.000252426
-2.88339e-06
-0.000121517
0.0147498
-0.39396
-8.82503e-06
0.00781305
-4.83385e-05
-0.000283689
1.6913e-07
-0.033742
-6.28368e-05
-2.83958e-05
-1.42611e-05
-5.19688e-05
-6.34051e-05
0.000145412
-6.25552e-06
-2.84196e-05
0.000167917
0.274593
6.89001e-05
-3.74197e-06
-7.08622e-06
-0.000125353
-0.000172395
-3.90392e-06
0.000380899
-0.482642
-8.10773e-05
0.0291981
-0.000183858
0.0909022
0.00103616
-1.06319e-05
0.00704927
-2.26572e-06
-4.96822e-05
-0.000104754
-7.52505e-05
0.000201189
-0.000182717
-7.24265e-06
-4.42201e-05
-7.07139e-05
-3.75567e-05
-4.39249e-06
-0.000759048
-5.80409e-05
-3.52215e-05
-0.00474281
-5.46947e-05
-5.40487e-05
-1.14441e-05
0.0313717
0.000450242
-1.16033e-05
-4.87568e-05
-4.04763e-06
0.0794187
0.00174755
-0.000105423
0.0551176
-2.66783e-05
-0.00482703
7.22968e-05
-0.00328155
-1.1968e-05
0.0124232
-6.94094e-06
-7.0472e-05
-0.650964
0.0537552
0.000813629
0.00528436
-2.61444e-06
0.159612
-1.14039e-05
-0.00024849
-4.07444e-05
-0.339079
-0.243813
-7.57964e-05
-7.30024e-06
0.000826279
0.00259625
-8.76161e-06
0.108489
-3.79346e-06
-3.08039e-05
-5.81465e-05
-7.94073e-06
-6.78722e-05
-4.17103e-06
-5.3292e-06
-8.4811e-05
-0.000650731
-0.000128392
7.36874e-05
-1.00302e-05
0.0967572
0.0488962
-8.65519e-06
-0.00217539
-3.97071e-05
-1.72151e-05
-0.174783
-7.67316e-06
-1.92161e-05
-3.14875e-05
0.123821
-8.50958e-06
-3.25948e-06
-7.52768e-05
-0.379504
-8.37392e-06
-4.84951e-05
-5.82464e-05
-0.00308646
-4.82467e-05
-8.11344e-05
-0.000512604
-3.78896e-06
0.00104339
-5.77731e-06
0.0806321
-6.28561e-05
-3.99638e-06
-7.53384e-05
-0.000186381
-4.17305e-06
-1.92551e-05
-3.78398e-05
-0.00456595
-1.39864e-05
0.0603025
-3.89676e-06
-5.51448e-06
-4.57663e-05
-9.08873e-06
-1.13393e-05
-0.535571
6.00828e-07
-0.000107115
-0.000477754
0.0995851
-0.00232483
-9.53306e-06
-5.41125e-06
-1.9862e-05
-7.26451e-06
-9.28863e-06
-6.66192e-06
-0.0681595
-2.94227e-06
-0.00611953
-0.000370585
-6.99944e-06
-9.58484e-06
-7.0063e-05
-0.000338111
-0.00177821
0.00155247
5.91703e-05
-3.8218e-05
0.0846755
0.00106774
-0.000108024
-0.000138367
0.00116969
1.30074e-05
0.00655965
-0.000181375
0.0380325
-0.00343734
-0.0966865
-4.82577e-05
-1.77518e-05
-6.47521e-05
0.00120751
-1.12532e-05
-1.416e-05
0.00101005
-2.46104e-06
-2.55586e-05
-8.39333e-06
-5.32458e-09
-3.16549e-05
-1.72873e-05
0.105687
-7.78128e-06
0.00087102
-6.83728e-06
-0.0017549
-2.77165e-05
-9.91131e-05
-0.00329626
-9.67737e-06
-0.277145
-7.51222e-06
-1.7698e-06
-0.000127528
-1.15032e-05
-4.42098e-05
-1.30063e-05
0.0229227
-4.38469e-05
-7.80551e-05
0.0127145
-0.290128
-5.0967e-05
-0.00600759
-0.0041266
-8.34279e-06
-1.72697e-05
-3.06402e-05
-0.0011345
-2.91511e-05
0.10467
-1.01553e-05
-0.0333696
-2.03872e-05
-0.0076081
0.0297609
-6.29858e-05
-0.376695
-4.9956e-05
-7.80782e-05
-4.20864e-05
-0.118817
-6.75952e-05
-5.08019e-06
-2.87829e-05
-0.000413029
-4.03168e-05
-7.24485e-06
-4.8715e-06
0.11943
-6.0109e-07
-5.40486e-05
0.0532294
-3.7206e-05
-1.14459e-05
-0.000208347
-4.9443e-05
-0.273508
-5.27662e-06
-8.92499e-06
-9.88933e-06
2.71841e-05
-2.19403e-05
-1.81862e-05
-0.000174826
0.114674
-1.21211e-05
-2.12414e-06
-0.12582
-1.2945e-05
0.0652263
-3.70868e-05
0.0114355
-1.48568e-05
-3.41178e-05
-8.12808e-06
0.0371311
0.0256242
-5.0665e-05
0.000147431
0.000330863
-1.62935e-05
-9.84944e-07
0.015974
-5.37069e-06
-0.000262911
-3.84843e-06
-0.000182674
-2.72265e-06
-0.411692
-9.32563e-06
-0.000169813
-7.72489e-06
-0.00298509
0.0111118
-1.11955e-05
-3.22339e-05
-0.280878
-0.000175708
-0.700602
-0.205456
0.00142114
-7.97388e-06
-8.67772e-05
6.42719e-05
0.000360163
-1.70775e-05
-0.000168159
-2.17788e-05
-1.78179e-05
0.0310487
-0.0504386
-0.000139962
-0.000100268
0.000780281
-7.4395e-05
0.0437817
-7.49869e-06
-1.10303e-05
0.000275888
-0.231857
0.00129004
-0.00051732
-0.00843198
-9.67054e-06
-0.0786268
0.0506496
-0.0267069
-2.57604e-06
0.104748
0.0280892
0.0183606
-0.138814
0.0577246
-0.000250027
-6.96371e-05
-0.000606489
8.93387e-07
-1.66176e-05
0.00474026
-9.66716e-05
-3.3696e-06
0.0781717
-3.64332e-06
-4.95772e-05
-0.000123082
-2.42024e-05
-0.000875001
-3.47445e-05
0.0495669
-0.000173381
-0.000222266
0.00722806
0.0717518
0.000111745
-2.68846e-06
-1.15415e-05
1.21108e-05
-0.00110178
-8.56629e-06
-5.65077e-05
-9.75052e-05
-0.000435121
-1.44798e-05
0.000191938
-3.87226e-05
-3.24276e-05
-0.291973
-0.00605527
-3.47463e-06
0.00292657
0.103472
-1.41919e-05
-2.89326e-05
0.00235913
0.000441012
-4.87924e-05
-4.95697e-05
-6.89272e-06
-0.000324888
-5.41991e-05
0.0586311
-6.30042e-05
-1.40398e-05
-2.14504e-06
-0.00262392
-6.03252e-05
-0.00215651
0.0807004
-1.42624e-05
-8.20287e-06
-5.96377e-05
-3.81371e-06
-4.50044e-05
-3.08388e-05
-3.27901e-05
-1.53602e-05
-1.2415e-05
-3.98327e-05
-5.73905e-06
-0.000176901
-0.00634199
-8.48428e-07
-0.4859
0.168024
-5.82398e-06
-0.0108172
-0.00487022
-0.000611056
-2.0322e-05
-0.000110552
-6.53294e-05
-0.00133278
-7.52842e-05
-3.82553e-05
-2.16979e-06
0.104271
-9.92983e-05
-0.11325
-1.82592e-05
-6.64054e-06
-9.30176e-06
0.000740371
-1.22207e-05
-0.000113408
-0.00021818
-0.0396749
-1.13847e-05
-0.000576983
0.00994292
0.0989198
-7.93861e-06
-0.000558436
0.203092
0.0103911
0.00354053
-3.62231e-06
-2.45334e-05
0.00218375
-0.00649038
-0.0086253
-0.000106803
-0.00189616
-2.2703e-06
-1.24245e-05
-0.000138958
-3.12462e-06
-2.18011e-06
0.00266974
-4.68693e-07
-0.00726047
-1.45325e-05
0.0530186
-0.335343
-0.074419
-0.382019
0.0933756
-7.43543e-06
-4.09849e-06
-0.105318
-1.01423e-05
-1.18466e-05
-6.27061e-06
0.00607731
0.0308899
0.10185
-2.49732e-05
-1.44983e-05
-3.6387e-05
-7.67101e-05
0.153623
-6.64084e-06
-0.189079
0.0385463
-3.97484e-06
-1.49006e-06
0.0604747
-0.000258045
-3.09598e-05
-6.95178e-06
-0.410063
0.108451
-1.73067e-05
9.54361e-05
-5.23658e-07
0.0988932
-0.0667626
-4.83114e-05
-0.121149
0.0900251
-0.068684
-1.28125e-05
-1.66249e-05
-1.15144e-06
-7.12458e-06
0.0950678
-1.35197e-05
0.00314634
-0.00370552
0.0983767
-3.12201e-05
0.000107211
-0.000478901
-7.02319e-05
-0.216877
0.127341
-1.14682e-06
-5.82757e-05
-5.74251e-05
-0.000780875
0.0150832
-1.36839e-06
0.0447484
-5.18614e-05
-0.000137575
-1.85867e-05
-8.42209e-06
-0.000688926
-5.55837e-05
-0.0173501
-3.10098e-06
1.43253e-06
-2.93135e-05
-0.000303611
-4.45589e-05
0.107424
0.00525521
0.00343279
-0.00039313
-1.41507e-05
-3.82846e-05
-0.000113394
-0.0160165
0.0666554
-0.339868
-4.24034e-06
-0.21872
-0.00815376
0.0641131
-5.97747e-05
-5.57549e-05
-7.51355e-05
-2.11621e-05
-0.266278
-7.48376e-06
-7.66627e-05
0.0379854
0.0528812
0.0138281
0.0440463
-5.44002e-05
-0.000110058
-7.56448e-06
0.054996
-5.0538e-05
0.00466513
-8.35789e-06
-0.44018
-9.62136e-07
-9.54375e-06
-8.06469e-05
-3.51518e-05
-5.1355e-05
-1.65597e-05
0.0559232
-0.000168264
-1.61859e-05
-5.73001e-05
0.0438941
-0.0368609
-8.4147e-06
0.109563
-4.47458e-05
-0.000117135
-0.000106139
-4.97728e-06
2.17987e-05
-1.00921e-05
0.0265726
0.000238392
-7.51734e-05
-8.08958e-06
0.00185257
-8.6133e-05
-7.13475e-06
-0.150574
-0.00424017
0.000231833
-2.88658e-06
-0.00251898
-4.7396e-06
0.00259084
-7.51641e-05
-0.00106422
0.0028576
0.0580723
-0.00159009
0.038237
2.15222e-05
-4.71473e-05
-1.1046e-05
-0.697921
0.00480873
-3.57145e-05
-0.00775786
-1.29833e-06
-0.398084
0.00038287
0.000532213
-0.00206937
-0.195811
0.0553184
0.0144842
0.106617
-4.48192e-05
-3.38721e-05
-5.63911e-06
-2.03724e-05
-2.20202e-06
-0.000171828
-5.03608e-05
-4.04339e-05
0.111635
-1.30036e-05
-8.4323e-06
-0.000165009
-0.000299598
-7.03225e-05
-6.60241e-06
0.136418
-4.35832e-05
-0.000192134
-1.91628e-05
0.0920426
-3.30762e-05
-0.314192
0.000643948
-8.5109e-05
3.91177e-05
-5.56932e-06
0.0701484
-0.00111165
4.00597e-05
-1.71323e-05
-7.57872e-06
0.0606461
0.0806672
0.0600151
-1.00627e-05
2.63483e-05
-0.00268717
-1.92477e-05
-8.71216e-06
-2.24366e-05
0.0347451
-0.00128286
-6.74447e-05
-7.8322e-05
-5.96115e-05
-0.395528
-0.000755835
0.000332642
-6.85752e-05
-8.1647e-05
-2.96496e-07
-0.0047718
1.98133e-05
-8.62482e-06
0.00931943
0.12951
0.115384
-0.0205157
0.0339336
0.0309377
-0.497343
-4.56559e-06
-1.04223e-05
-0.311164
0.113022
0.00369412
-1.76061e-05
-9.9221e-05
-3.33151e-06
-1.27597e-05
-0.243205
0.0459058
-0.000121138
-9.97688e-06
-0.0023275
-2.54499e-05
-7.2588e-05
0.104414
-0.00291316
-0.00229013
-7.611e-06
0.121152
-0.0589374
0.0021909
-0.000105314
-8.9468e-05
-5.78851e-06
-1.1074e-05
-7.50089e-05
-7.09279e-05
-4.49411e-05
-0.000137832
-7.10313e-05
-4.07636e-05
-0.00151015
0.0577768
-4.63466e-05
-0.000149954
0.098326
-0.0013757
-2.09695e-06
-0.0728093
0.0227625
0.035
-6.26113e-05
-2.04421e-05
-7.30916e-05
-5.84232e-05
-4.69718e-05
-4.94934e-06
-0.000233088
-9.42494e-05
-0.000154461
0.000379781
-1.311e-06
-3.61515e-05
0.056861
0.0218511
0.0936371
-0.00026215
-0.000345903
-1.39053e-07
-3.85475e-06
-7.18402e-05
-8.93224e-06
-0.164113
-5.92462e-06
-2.01041e-07
-7.33569e-06
0.0222301
-0.797323
-1.32766e-05
-0.000169256
-5.79152e-05
-6.41816e-05
-7.05616e-05
-0.000486793
-0.000116739
-6.0009e-05
0.0329803
-6.06607e-05
0.103661
-5.36976e-05
0.106213
-6.34886e-05
-7.56427e-06
-1.06489e-05
-8.52282e-05
0.000150024
-8.33634e-06
0.00044111
-6.70642e-05
1.45914e-05
-0.42505
-0.131884
-0.15429
-4.3866e-08
-0.00143807
-4.98399e-05
-6.7156e-05
-7.22986e-06
3.91091e-05
-3.61595e-05
0.033251
-0.0530552
-4.43081e-05
-5.29424e-06
0.0202222
-1.25609e-05
0.0640041
0.100669
-0.00180415
-4.20441e-05
0.000125657
-0.36648
-0.000856746
0.0739916
9.39749e-06
-1.76136e-05
-5.48357e-05
-1.24081e-05
-0.246411
-3.96724e-05
-6.83541e-05
-0.00206202
0.120385
-1.62589e-05
-1.57177e-05
0.113596
-6.29304e-05
0.00224102
-0.000335798
-6.634e-06
-7.62225e-05
-0.000587831
-0.00128637
-0.118049
-5.90788e-05
-0.000369228
-5.1906e-05
-7.38502e-07
-1.62016e-05
-0.0013916
-9.98597e-06
0.00247742
-4.92727e-06
-1.93579e-05
0.00287618
-5.47648e-05
-2.09024e-05
-8.24211e-06
-6.61346e-05
-0.00131838
-0.000155529
-7.81309e-05
-2.04006e-05
-1.99533e-06
-1.57391e-05
-0.000140721
-7.27674e-05
-8.91157e-05
0.0101953
-0.000100715
-0.0034867
0.000603775
-1.22279e-05
-0.000161079
0.000524302
0.0432617
-1.82452e-05
0.00609249
0.0582125
-1.40857e-05
-6.32196e-06
0.0147548
0.0782298
-5.88005e-06
0.0520283
0.000629463
-1.39394e-05
-0.000207827
-8.71801e-07
-5.6656e-05
-2.31668e-05
0.338045
0.0187385
-0.00226685
-0.00155012
-0.0104117
0.104446
-3.32492e-05
0.0824475
-6.10115e-06
-0.0430716
0.105273
-5.82871e-06
-6.4786e-06
0.0395933
-5.18369e-06
-5.30107e-06
-0.0010381
0.00510262
-0.00056618
-6.08883e-05
0.0957301
-5.9064e-06
0.00665482
0.0644
-2.56944e-06
-0.00421471
0.00214621
0.1224
0.049247
0.0643565
0.0361453
-1.17225e-05
-9.98293e-06
-4.44228e-05
-0.000120444
-5.36271e-06
-0.00124569
-6.2334e-06
0.0649469
-0.00133021
-0.000225459
-0.0016169
0.0643606
-0.00176801
-0.0013857
-0.00825697
0.115384
-0.000993718
-5.59886e-05
-3.59768e-06
-0.0602118
-6.08208e-05
-1.04216e-05
-0.0232902
-1.32782e-05
-0.0736318
-5.92656e-06
0.054067
-5.34539e-05
-1.12299e-05
6.3695
-6.97601e-06
-3.71571e-05
0.0351741
-0.169439
0.0239459
-6.42725e-05
-0.000203621
-2.14889e-05
-0.000153877
0.00025023
-0.000145031
-2.07084e-06
-0.0464104
-8.40978e-05
-5.87445e-05
0.0439922
-8.78876e-05
-7.28079e-05
-0.0037512
9.15768e-07
-0.000163226
-1.18632e-05
0.00025964
-1.08699e-05
-0.000301443
-0.0103018
0.0913398
-1.03053e-05
-6.47286e-05
0.0294191
-4.1272e-05
3.35793e-05
-0.000104036
-7.21178e-05
-0.0438607
-9.82675e-05
-1.11727e-05
1.52847
-9.13171e-06
0.018254
-5.4359e-06
-3.21852e-05
0.000126672
0.0580196
-7.02743e-05
-0.0182581
-0.00856205
-9.87326e-05
-2.20508e-05
0.00052886
-6.50701e-05
0.120689
-9.33117e-06
0.42532
-0.000184433
-9.35601e-05
-7.13203e-05
0.00545884
-6.42655e-05
0.0058264
-0.000113087
-0.000108667
-4.79686e-05
-1.33527e-05
0.000452684
-1.12935e-05
-6.7184e-05
-5.17261e-07
-0.000294756
-6.98905e-05
-0.000129581
0.0608142
-3.73248e-06
0.000275284
1.52405e-06
-8.11697e-06
-3.92383e-06
-1.42759e-06
-6.75438e-05
-1.1426e-05
-0.000204454
0.083847
-0.000153509
-0.000106009
-5.09019e-05
-2.07039e-05
-0.00844931
-1.50951e-05
-0.208824
-0.000961771
0.0793979
-0.000522468
-5.47542e-05
-6.76624e-05
-3.04075e-06
-3.87584e-05
-0.00957216
-5.81721e-05
0.113911
-0.000175005
0.0800561
-0.000476226
-2.0875e-06
-8.57358e-06
0.042294
-1.47914e-05
-7.77231e-05
0.000662165
0.000626471
-2.64837e-05
0.0720819
-1.87365e-06
-5.23031e-05
-2.69916e-06
-1.65101e-05
1.25749e-05
-0.00035215
-2.45622e-05
-0.000110023
0.00240379
-0.000119154
-0.000203899
-0.0065698
-0.00016988
0.00358673
-0.000428284
-7.60488e-05
-3.47884e-05
-0.000220695
0.055867
-0.346777
0.0372284
-8.33388e-05
0.00571205
-0.000357704
-2.96948e-05
-1.00844e-05
-0.000285222
-4.3863e-06
-0.000107832
0.0814396
-1.21829e-05
-1.2094e-05
0.0018426
-0.311958
-0.000188921
0.00875609
-6.90855e-06
0.0586035
-5.77502e-05
0.0987425
-0.000278364
-1.64154e-05
0.00775681
-0.00670572
-8.95363e-06
-0.00016665
-7.72244e-07
0.00254925
-6.63805e-05
0.0154918
-0.0815207
-0.000139943
-0.141166
-1.19935e-05
0.0565897
-1.0287e-05
-5.84863e-05
-2.83321e-05
-3.1822e-05
-4.80296e-06
0.000176001
0.0285456
-0.0376479
-7.99855e-05
-5.39068e-05
0.00283466
-1.62287e-05
-8.79877e-06
-3.66731e-05
-0.00356913
-5.715e-05
0.0636902
0.144828
-0.00161883
-1.73509e-06
-0.00225388
0.00222124
0.000327191
-6.80903e-05
0.0976746
-1.37831e-05
1.63598e-06
-1.32952e-05
0.00922703
-2.10134e-05
-1.20629e-05
0.0243238
-1.12283e-05
0.0017179