/*--------------------------------*- C++ -*----------------------------------*\
| =========                 |                                                 |
| \\      /  F ield         | OpenFOAM: The Open Source CFD Toolbox           |
|  \\    /   O peration     | Version:  v2012                                 |
|   \\  /    A nd           | Website:  www.openfoam.com                      |
|    \\/     M anipulation  |                                                 |
\*---------------------------------------------------------------------------*/
FoamFile
{
    version     2.0;
    format      ascii;
    class       volVectorField;
    location    "950";
    object      ddtCorrDdt0(U);
}
// * * * * * * * * * * * * * * * * * * * * * * * * * * * * * * * * * * * * * //

dimensions      [0 1 -2 0 0 0 0];


internalField   nonuniform List<vector> 
13851
(
(-0.00145927 0.00410961 5.66158e-18)
(-0.000357029 0.00162317 4.41922e-19)
(-0.000380412 0.0015955 -2.45871e-19)
(-0.00231909 -0.00155397 -3.70108e-17)
(6.84536e-06 2.53788e-07 1.04233e-18)
(-2.70412e-05 0.00177057 -6.54268e-20)
(-0.00163735 0.00157373 -2.3786e-19)
(-0.000156092 2.14833e-05 2.0111e-18)
(0.0175609 0.00160898 1.81313e-18)
(4.25676e-05 -7.00372e-05 -1.35527e-18)
(0.0016513 0.00279634 3.04856e-18)
(3.56395e-05 -1.48492e-05 -1.23088e-18)
(0.000109881 -2.76167e-05 9.3229e-18)
(0.0131968 0.000960981 -5.60192e-18)
(-0.00106134 0.00277281 3.31028e-19)
(-0.00257083 0.00357323 -6.09886e-19)
(-0.0061467 -0.000856507 4.59038e-17)
(-0.000251703 0.000720827 1.27855e-18)
(-0.000704105 0.00498188 -6.44948e-18)
(-0.00141127 0.00409492 -5.17824e-18)
(-0.000796999 0.0029549 -3.46e-18)
(0.000749113 0.000797725 2.28379e-18)
(-0.0014338 0.000718567 -1.86691e-17)
(7.8715e-07 -2.08265e-06 -4.36923e-18)
(0.00179355 0.0066241 -1.43015e-17)
(-0.00226881 0.00321494 1.49423e-20)
(-0.00270805 0.00415261 3.02077e-18)
(-0.000513224 0.00476261 -1.90802e-18)
(0.0178809 0.00143673 -1.47368e-18)
(-0.000170368 0.000342471 -2.12635e-18)
(-0.00151196 -0.000312262 -2.45607e-17)
(-0.00159177 0.00156566 1.5126e-19)
(-0.00159778 0.00402645 -5.71094e-18)
(0.0215662 0.00237271 4.30156e-18)
(0.00109617 0.00236093 3.09812e-18)
(0.0180791 0.0014838 1.90868e-18)
(4.64533e-07 -1.93419e-06 3.83575e-18)
(0.00510335 0.0046263 4.1342e-17)
(0.011367 0.00327274 -4.71084e-18)
(0.000199675 0.000285974 2.65179e-18)
(0.0195553 0.00181285 1.94485e-18)
(0.0187473 0.00144838 2.94688e-19)
(-0.00446635 -0.0011321 -3.44671e-17)
(0.00450646 -0.00157105 2.40264e-17)
(0.0196369 0.00149332 3.69044e-18)
(3.52313e-05 0.000303054 5.67259e-18)
(-0.000500733 4.54449e-05 -2.48561e-18)
(-0.00236949 0.00368186 3.62189e-18)
(0.000307014 0.000971507 3.06236e-18)
(0.000101935 -3.35166e-05 -1.05158e-17)
(0.00331676 0.000322506 6.87241e-18)
(6.37948e-05 -6.76406e-05 -1.09627e-17)
(-0.00254433 0.00357489 1.07794e-18)
(-0.00182479 0.00235013 8.91702e-21)
(0.0135562 0.00110826 1.14225e-18)
(0.000204173 0.000280609 3.44705e-18)
(-0.00158644 0.00406773 7.43493e-18)
(0.0186407 0.00177232 -7.30735e-19)
(-0.00289213 0.00400339 2.48583e-18)
(0.0105927 0.000729163 1.15822e-18)
(3.37604e-05 -2.02612e-05 2.36785e-18)
(-0.00243259 0.00410616 -3.08239e-18)
(2.17508e-05 -0.000105519 -5.67042e-18)
(0.000345138 0.000981513 -1.37197e-18)
(0.0025609 -0.00223049 7.83934e-18)
(0.00253461 -0.00241528 1.27127e-18)
(0.00985121 0.000574592 -8.90237e-19)
(0.000349063 -0.00170127 1.25878e-17)
(0.000163309 0.000494279 3.01486e-19)
(-0.00279058 -0.0015237 -4.0771e-17)
(-0.00206223 -0.000369544 2.77659e-17)
(-0.000785088 0.00321283 4.05211e-18)
(0.000146124 7.74631e-05 1.95933e-18)
(0.01037 0.000684129 -2.56857e-18)
(-0.00162639 0.00248051 -4.97978e-19)
(0.00052724 0.000568143 3.5112e-18)
(-0.00550338 -0.000775727 -3.13775e-17)
(-0.000310967 0.000291455 5.81329e-19)
(0.00156074 0.00627523 9.57318e-18)
(6.94668e-05 0.000117144 7.52056e-18)
(0.000164296 0.000517852 -7.5978e-18)
(0.00267758 0.0049808 6.09276e-18)
(0.00110224 0.00228986 -2.54422e-19)
(0.0141887 0.00118458 4.81115e-18)
(0.0108857 0.000806399 1.35099e-18)
(-0.0013636 -0.000325478 4.51492e-17)
(0.000773371 0.000843297 -1.56847e-18)
(0.0136117 0.00119802 -2.95719e-18)
(6.54981e-05 -4.41606e-05 -1.91334e-18)
(-0.00154229 -0.000259945 4.11306e-17)
(5.78059e-05 -7.28917e-05 9.30256e-18)
(-0.00157299 0.00162428 1.42945e-19)
(-0.000373922 -0.000285245 2.76921e-18)
(-0.00229026 -0.00040429 -6.27631e-19)
(0.0104395 0.00239669 6.68597e-18)
(0.00414056 -0.00130728 8.08836e-18)
(8.35445e-05 0.000242696 3.2458e-18)
(-0.00247544 0.00364388 8.06275e-19)
(0.00708508 0.000436228 -8.87056e-18)
(0.00376931 0.00252669 1.09841e-17)
(-0.00247256 0.00367554 -9.17008e-19)
(0.000503466 -0.00106718 2.51577e-17)
(0.000677425 -0.00114355 -2.14054e-17)
(0.000159908 5.50985e-05 -7.41722e-18)
(-5.17426e-07 0.000365849 1.34716e-18)
(-0.000394285 0.00314852 5.42404e-18)
(2.00894e-06 0.000347036 3.88977e-18)
(-0.00170748 -0.000281333 -1.30625e-17)
(-0.00152996 0.00161106 -6.86697e-19)
(-0.000251219 0.000697179 1.37853e-18)
(0.00115365 0.000547893 6.06086e-18)
(3.28348e-05 0.00032356 -2.78046e-18)
(0.000540073 0.00472873 -4.60519e-19)
(0.000656988 0.00335717 -3.55188e-18)
(-0.0018687 0.00392836 -1.7126e-18)
(-0.00179327 0.0023052 2.89134e-19)
(-0.000114651 0.000185625 4.45532e-18)
(-0.000171677 2.81091e-05 -3.17596e-18)
(-0.00242746 -0.00152868 5.4395e-17)
(-0.00264915 -0.00133624 -1.62261e-17)
(0.00401452 -0.000444349 -2.33989e-18)
(-0.00023329 0.000551153 -2.25335e-18)
(0.000190634 0.0004248 5.77888e-19)
(0.0138496 0.00134276 -1.05541e-19)
(-0.00100378 0.00465122 -6.96777e-18)
(0.000540229 -0.00230984 -1.22711e-17)
(7.62554e-05 0.000243597 7.49274e-19)
(0.00212682 0.00176929 -1.50027e-18)
(0.0185081 0.00182753 -2.99296e-18)
(-0.00108392 0.00310613 -3.71602e-18)
(0.000759885 0.000758473 -3.42601e-18)
(0.000563241 0.00193257 -1.15401e-18)
(0.00489713 0.00455313 1.59229e-18)
(0.0213608 0.00230483 -1.14127e-18)
(0.00164336 0.00290451 -2.12673e-18)
(0.00979907 0.00251461 -8.65599e-18)
(0.00032637 -0.00162474 2.82753e-17)
(-0.00166264 -0.000383256 -3.11487e-17)
(0.000394226 -0.000788442 -7.94846e-18)
(-0.00120845 0.00305332 -6.09303e-18)
(0.00273692 0.00486751 -3.96103e-18)
(0.000274526 3.13834e-05 -1.18841e-17)
(6.44599e-05 -4.28016e-05 -3.05361e-19)
(0.00131945 -0.00205202 5.06242e-17)
(0.00092953 0.00585339 -9.66486e-18)
(0.000505592 0.000405791 -7.36044e-18)
(-0.000318004 0.000279886 -2.98046e-19)
(-0.00235604 -0.000642805 2.17888e-17)
(0.0159185 0.00139639 -1.72511e-18)
(0.00220726 0.00182709 1.80543e-19)
(-0.00244607 0.00368515 -5.31667e-18)
(0.000607012 0.00467555 -2.83395e-18)
(0.000674082 0.00344993 -9.28309e-19)
(-0.000709697 0.00477962 -5.62158e-18)
(0.000127952 -4.5502e-05 -1.92682e-18)
(4.56408e-05 -6.60843e-05 4.65743e-18)
(2.7726e-05 -1.94039e-05 1.32477e-18)
(0.00935706 0.00277374 2.3369e-18)
(-0.00115426 0.0029722 5.06371e-18)
(-0.0011408 0.00154604 -3.43298e-20)
(1.50168e-06 -4.35332e-06 -6.8806e-18)
(0.0178917 0.00143814 -2.86516e-18)
(-0.000440866 0.00311239 -5.51247e-18)
(-0.00234301 0.00369099 -3.57954e-18)
(0.0131872 0.00100363 3.3312e-18)
(0.0194818 0.00167996 -3.09638e-18)
(0.0197615 0.00169945 1.45116e-18)
(0.00352415 0.000476666 2.95351e-18)
(0.00110319 0.00057225 6.99763e-18)
(-0.0027926 0.00529874 -3.5051e-18)
(3.05967e-05 -2.9492e-05 4.97187e-18)
(-0.000117341 0.000179143 -1.81028e-18)
(-0.00019269 0.00341208 3.36056e-18)
(5.9597e-06 -1.27055e-06 -4.18942e-20)
(0.0124726 0.00282976 -1.97261e-19)
(-0.00213693 0.00437745 4.85224e-18)
(-0.00231967 0.00382765 1.0653e-19)
(-0.000130254 0.000187523 5.67066e-18)
(-0.0017042 0.00246481 -5.859e-19)
(-0.00232343 0.0037937 -2.19696e-18)
(-0.00101049 0.00460853 5.78311e-18)
(0.00445281 -0.00140395 -3.75504e-19)
(0.00105072 0.000660794 3.15242e-18)
(-0.00111098 0.00306473 3.54925e-18)
(-0.00504683 -0.000938907 -6.94039e-19)
(0.0160611 0.00145071 -8.51354e-19)
(-0.00164712 0.00402682 -5.00288e-18)
(0.000317616 -0.000503798 1.85519e-17)
(0.000134588 -2.56988e-05 1.18596e-17)
(-7.90774e-05 0.000345364 -2.04781e-18)
(0.000874605 0.00595551 3.28303e-18)
(-0.00111368 0.00296828 -1.00921e-18)
(0.0126094 0.000886701 -4.09598e-19)
(-6.38789e-05 0.00181093 9.36682e-21)
(0.00048257 0.000420361 5.08965e-18)
(-0.00251122 0.00360817 1.04742e-18)
(-0.00165709 0.00398952 4.76243e-18)
(-0.000592351 0.000985747 7.09461e-19)
(-0.000140093 0.000876998 -4.51537e-19)
(0.000569 -0.00177228 1.97946e-17)
(0.0029796 0.00471114 -1.22286e-17)
(0.0145356 0.00236552 -4.2997e-18)
(0.0184591 0.00186018 1.37018e-18)
(-0.00110815 0.00274832 -3.3911e-19)
(0.00409382 -0.00379989 -3.75874e-18)
(0.0129235 0.00213895 -3.60913e-18)
(8.88157e-05 -0.000204444 -1.75031e-18)
(-0.00148112 0.00300445 -1.95883e-18)
(0.0177689 0.00164495 -1.28459e-18)
(0.000124097 0.00161137 -2.60746e-19)
(-0.00260237 0.00354824 5.69736e-18)
(0.000182926 0.000413029 4.13876e-18)
(0.00293108 0.00484895 2.95591e-17)
(4.26785e-06 -2.88881e-05 1.5643e-18)
(0.00101484 0.00248287 -2.1202e-18)
(0.000615634 0.000620639 9.25587e-19)
(0.000100681 -3.50851e-05 7.9579e-18)
(-0.00143441 0.00439604 -2.11632e-18)
(-0.000354002 0.0009649 2.59267e-18)
(0.00141376 -0.00518076 5.58062e-18)
(-0.000135717 0.000181513 -4.90578e-18)
(-0.0013282 0.00412622 -4.35292e-18)
(0.0124788 0.0011087 -3.31998e-18)
(0.0107901 0.00258936 4.29029e-18)
(0.000406254 -0.000427696 3.72045e-17)
(-0.00152128 0.00301929 3.60131e-18)
(8.46685e-07 -1.67068e-05 1.24834e-18)
(0.00122014 -0.00196642 1.93789e-17)
(5.98825e-05 2.93085e-05 -3.84583e-18)
(0.00101561 0.00241825 1.9416e-18)
(-0.00473561 -0.000479884 -5.69704e-17)
(0.000339946 -0.000473552 9.64311e-18)
(7.83723e-05 0.00161682 1.42904e-19)
(4.75663e-06 -0.000114329 -1.7163e-19)
(0.0180838 0.00173365 1.6838e-18)
(-0.000184132 0.000355749 1.90278e-18)
(0.00408471 -0.00163283 -6.82367e-17)
(0.0179999 0.00198734 -2.00722e-19)
(0.00359433 0.00248277 7.98557e-18)
(1.06112e-06 -4.33379e-06 5.9274e-18)
(0.00562854 0.00117904 1.82112e-17)
(0.011066 0.000865358 2.18456e-18)
(0.0200942 0.00152921 -3.16337e-18)
(-0.0025844 0.00354447 -4.91344e-18)
(-0.000462877 0.00252081 -5.64057e-19)
(0.00134389 -0.00241602 6.30379e-18)
(-0.00141445 0.00435805 1.75782e-18)
(-0.00175 0.00247766 5.94179e-20)
(0.00405644 -0.00113837 -1.63211e-18)
(0.00126908 0.000750127 -9.24076e-19)
(0.0135204 0.00112754 -3.08557e-18)
(-0.000796507 0.00430466 4.1977e-18)
(-8.67958e-05 1.79558e-05 -2.33065e-19)
(-0.000560423 0.00194995 -1.24952e-19)
(-0.00250497 0.00363999 1.15357e-18)
(0.017588 0.00144907 3.13906e-18)
(0.01374 0.00141085 -1.00871e-18)
(-8.05471e-05 0.000333567 2.96564e-18)
(0.00050375 -0.0023128 2.75643e-17)
(6.73353e-05 -3.52283e-05 2.51605e-18)
(-0.00175062 0.00420966 -4.5057e-18)
(-0.000900209 0.00467228 4.83045e-19)
(-0.000571563 0.00199044 -8.45105e-19)
(-0.000506471 0.00314778 -9.19458e-18)
(-0.000767695 0.00435096 -5.04051e-18)
(0.000124752 0.000108576 -1.41861e-17)
(0.000554701 -0.00111463 -3.5115e-17)
(-0.00224675 0.0036388 8.16268e-19)
(-0.00111264 0.00478003 1.81445e-18)
(4.04366e-05 -6.74938e-05 5.953e-18)
(9.14479e-05 -4.08975e-05 -1.01884e-17)
(0.000386433 -0.000468404 -1.14866e-17)
(0.0208124 0.00194921 -2.46592e-18)
(-0.00327911 -0.00160713 -4.1432e-17)
(-0.000879063 0.00308561 -6.75747e-18)
(-0.000237254 0.000575629 4.04122e-18)
(-0.00107896 0.00460757 3.01441e-20)
(-0.000808325 0.00472133 -2.09958e-18)
(-0.00173918 0.00388024 7.94826e-19)
(-0.000544985 0.00311429 6.83837e-18)
(0.0201385 0.00190301 1.30617e-18)
(0.00845771 0.000479414 1.23114e-18)
(-0.000356854 0.00201166 -9.88447e-19)
(-0.00107202 0.00260417 -2.11008e-18)
(0.00536314 0.00553861 -3.58332e-17)
(-3.4493e-05 0.000397598 -3.39995e-18)
(3.127e-05 -1.43934e-05 2.02019e-18)
(-0.00172148 0.00391905 2.86405e-18)
(0.00176745 0.0023883 3.89982e-18)
(-0.000207561 0.000387408 -4.93856e-18)
(4.26388e-06 -2.66588e-05 -9.14847e-18)
(6.25665e-05 3.02901e-05 7.48307e-18)
(-3.70045e-06 3.93229e-06 -4.59066e-18)
(-0.000697351 0.00255244 -6.73117e-19)
(2.69939e-05 -1.70622e-05 2.06384e-18)
(0.0180359 0.00164704 6.57504e-19)
(-0.000817217 0.00300685 1.5832e-18)
(0.000133822 0.000319538 6.65697e-18)
(0.0175329 0.00144445 -2.7136e-18)
(0.0134463 0.00130697 1.11328e-18)
(0.000102272 -4.96719e-05 4.40875e-18)
(-0.00137981 0.00414352 5.31693e-18)
(0.00535119 0.000375342 -1.47642e-18)
(0.000285756 2.87047e-05 4.71774e-18)
(9.68224e-05 -5.79402e-05 3.59355e-18)
(-0.00078896 0.00306652 2.8491e-18)
(0.0112635 0.000350317 -2.91633e-18)
(0.00771645 0.00470137 -2.91975e-17)
(-0.000438179 0.00357111 6.12858e-18)
(5.93789e-06 1.13567e-06 -6.9837e-18)
(-0.00464739 0.00536095 4.00046e-19)
(3.29416e-05 -2.51541e-05 -7.48676e-18)
(-0.000377895 0.0036812 -4.55392e-18)
(0.00561596 0.000519785 1.35012e-18)
(-0.00134508 0.00473877 -3.4244e-19)
(-0.00112436 0.00151289 -3.30719e-19)
(0.00718456 0.00366035 1.08389e-17)
(0.00479253 0.004133 3.36659e-18)
(-7.06388e-05 0.000328343 1.10712e-17)
(0.000785151 0.00464087 5.15611e-18)
(0.000335779 -0.00118953 -6.86699e-18)
(0.0122418 0.00293508 -2.87847e-21)
(0.0154298 0.00153352 1.19024e-18)
(-0.000656672 0.00478916 4.91986e-18)
(-0.000132937 0.00090665 -1.71866e-18)
(-0.00493263 -0.00109107 1.44173e-17)
(0.00821258 0.00094432 -3.9568e-19)
(0.00140362 -0.00370112 -2.55285e-17)
(0.00129341 -0.00366153 2.06389e-17)
(0.000112473 -0.00021274 1.6308e-17)
(-0.000256384 0.0035365 -1.13178e-17)
(0.00079221 -0.00017322 -1.56226e-17)
(0.0138136 0.00127959 -5.49621e-18)
(0.000586112 -0.00128128 4.38144e-18)
(-4.82478e-05 2.87788e-05 -1.52362e-18)
(-0.000487423 5.47044e-05 2.84537e-18)
(0.000694498 0.00131916 1.06465e-18)
(-0.00102442 -0.000107923 -3.58479e-17)
(0.00143456 -0.00505888 -2.13294e-17)
(-4.33744e-05 0.000395135 2.04306e-18)
(0.0101487 0.00243371 -1.11116e-17)
(0.000750576 -0.000258958 6.49332e-18)
(0.000629475 0.00193156 1.5633e-18)
(-0.00117645 0.00156978 -2.14016e-20)
(0.010165 0.000121476 3.57581e-18)
(-0.00109262 0.00456858 8.92382e-19)
(-0.0025392 0.00360484 -3.91204e-18)
(0.000587611 0.000586863 8.05507e-18)
(5.70281e-05 0.00156155 -4.87258e-20)
(0.0178639 0.0014852 -6.14801e-18)
(0.000145593 -1.92721e-05 -7.78607e-18)
(-0.000786604 0.00477937 1.51279e-18)
(-0.000398267 0.0019906 1.81915e-19)
(-0.000737303 0.00307142 1.29453e-19)
(0.000743197 -0.000304921 -7.49826e-18)
(7.03681e-05 -3.53888e-05 -2.25875e-18)
(0.000127603 0.000329696 -1.11423e-18)
(0.0021582 0.00421089 -9.39171e-18)
(0.00382745 0.00269963 -1.62717e-17)
(-0.000892947 0.0042775 7.91673e-19)
(0.00486197 0.00400429 1.67049e-18)
(0.0181539 0.00146678 6.47243e-18)
(0.00052557 0.000425074 -7.99791e-19)
(0.0173199 0.00186177 -3.37326e-18)
(-0.00174167 0.00433511 3.90746e-18)
(-0.00039834 0.000474501 -1.3285e-18)
(-0.00116427 0.00467865 4.67782e-19)
(-0.00120091 0.00384823 5.99424e-18)
(0.00734858 0.000555575 1.48454e-18)
(0.000653608 0.00129229 1.02447e-18)
(-0.00243327 0.00322056 3.2387e-18)
(-0.00286105 0.00396516 -3.19129e-18)
(0.00383286 0.00583064 -8.19403e-18)
(0.00230587 0.00398714 3.99324e-18)
(0.0139305 0.00122453 -1.08125e-18)
(2.40316e-05 0.000995181 1.56959e-18)
(-0.0022149 0.00441083 -1.73766e-18)
(-0.00658209 -0.00138172 -1.03693e-17)
(-0.000219268 0.00230085 -3.00283e-18)
(0.0139798 0.00116701 -2.19899e-18)
(-0.000137679 0.0024315 1.19047e-18)
(0.0191053 0.00224987 -8.65418e-18)
(-0.00104087 0.00257262 1.53217e-18)
(-0.0021911 0.00270203 1.946e-19)
(-0.000649094 0.00433698 1.74969e-18)
(0.00390963 0.00342122 -1.13096e-17)
(5.44416e-05 -6.19945e-05 -2.23281e-18)
(-0.000250734 0.00190532 1.0155e-18)
(0.00188392 0.00241006 1.11852e-17)
(-0.0016745 0.00249748 -2.54536e-19)
(6.78112e-05 0.000294032 1.54523e-18)
(-0.000929364 0.00311664 4.8658e-18)
(0.0146435 0.00362345 -6.08893e-20)
(0.000144352 7.93614e-05 -1.27934e-18)
(-0.00142214 0.00302694 2.42684e-18)
(-0.0022722 -0.00164261 -2.05248e-18)
(7.686e-06 0.00142181 1.49337e-19)
(0.00666682 -0.00129005 2.79637e-17)
(-0.00193069 0.00287938 -4.41987e-18)
(0.00837039 0.0053325 2.04109e-17)
(0.000161547 0.00164512 1.4783e-19)
(-0.00225181 0.00318175 1.24399e-18)
(0.00378498 -0.00353716 -7.36985e-19)
(-0.000957412 0.00467535 1.15356e-18)
(-0.000278762 0.00308317 -1.04777e-18)
(0.0133242 0.00139144 3.08317e-18)
(0.0105594 0.000721462 -2.64936e-18)
(0.00550951 0.00108406 -1.03964e-17)
(0.000127536 0.000103533 -2.5849e-18)
(0.00199898 0.00419127 7.74066e-18)
(2.40049e-05 0.00240786 -9.93361e-18)
(-0.00239336 0.00321402 -3.07932e-18)
(-0.000179509 0.000524489 -7.06922e-18)
(-0.00477634 -0.0010585 -2.06313e-17)
(0.0154555 0.00339902 -1.39153e-18)
(0.00287477 0.00615807 1.18679e-17)
(1.35743e-05 0.00156343 1.37532e-20)
(-0.000707585 0.00435622 -3.05228e-19)
(-0.00230599 0.00416967 3.94873e-18)
(-0.00301503 -0.00159207 5.15143e-17)
(-0.000490427 0.000317962 1.56006e-18)
(-0.00578688 -0.00114216 -1.12298e-17)
(0.00380215 0.00379996 -2.47174e-19)
(-0.00307447 0.000685996 -2.03073e-17)
(0.00132949 0.000794347 -3.14319e-18)
(-0.00011042 0.00528023 -1.08817e-17)
(9.60412e-05 -2.25475e-05 -9.45052e-19)
(6.61924e-06 -1.0348e-06 -2.14822e-18)
(0.0131526 0.00105473 1.98824e-18)
(-0.00226931 0.00422359 2.1891e-18)
(4.47152e-05 -6.54361e-05 9.65797e-19)
(-0.000320338 0.00161134 -9.74396e-21)
(-0.00140036 0.0030581 -9.74146e-19)
(-7.40516e-05 0.000170586 -7.26495e-20)
(0.00981278 0.00381682 -1.70712e-19)
(-0.000314908 0.0035661 3.75972e-18)
(-0.0011567 0.0038275 -5.47321e-18)
(-0.00101672 0.00194924 -4.59859e-18)
(9.46955e-06 0.0010003 -1.11646e-19)
(2.9204e-05 -9.3354e-05 1.13287e-19)
(0.00377249 0.00522561 3.04687e-19)
(0.000133972 0.000298547 -2.73876e-18)
(1.05877e-05 -7.0294e-05 7.42584e-18)
(0.00918308 0.00260959 3.95825e-18)
(0.012114 0.00407732 9.41502e-19)
(0.000731986 0.000716156 -1.73963e-18)
(-0.00253045 0.00393168 -1.51255e-18)
(1.13839e-05 -0.000110734 7.6413e-18)
(2.68233e-05 -1.18112e-05 -4.84535e-18)
(2.31566e-05 0.00146821 2.75337e-19)
(-0.000870647 0.00432276 -1.12328e-18)
(-0.00203894 0.00284989 3.46745e-19)
(8.14597e-05 0.00030157 -1.90942e-19)
(-0.000165426 0.00121097 -4.63438e-19)
(0.0039368 -0.000326006 1.21081e-17)
(-0.000499388 0.00145237 1.59116e-20)
(0.00659136 0.00420626 -6.55707e-18)
(3.22735e-05 -1.32217e-05 2.23653e-18)
(-0.00142174 0.00211402 1.15728e-18)
(0.0199027 0.00149798 3.59009e-18)
(0.00113174 -0.000309543 -3.47095e-18)
(-0.00038968 6.29774e-05 -3.93258e-19)
(2.80652e-05 -4.3355e-05 -2.51531e-18)
(-0.000981995 0.00192566 4.89373e-18)
(-0.000651039 0.00106831 -5.47479e-19)
(0.00549316 0.000243404 -1.41229e-17)
(0.0167876 0.00192844 7.09553e-19)
(-0.000497928 0.00255766 3.34069e-19)
(0.00273079 -0.00663109 6.33385e-18)
(-5.31123e-06 0.0015114 -6.19955e-20)
(5.01951e-05 -1.60148e-05 -4.4403e-19)
(0.0185719 0.00205479 1.66949e-18)
(-0.00277282 0.00397867 3.2919e-18)
(0.000673665 -0.000672953 -2.20632e-17)
(0.0001677 0.000119894 3.6865e-18)
(0.014832 0.00149801 -6.32863e-19)
(0.000439309 -0.000750473 -1.19514e-18)
(0.00630041 -0.00319226 6.23732e-18)
(0.000152661 4.62671e-05 4.78902e-18)
(0.000475996 0.00200762 -1.15625e-18)
(0.0022843 0.00409643 -6.8378e-18)
(-0.00150727 0.00262052 9.73756e-19)
(0.0166061 0.00167897 -3.15725e-18)
(-0.00241552 0.00417209 -2.80093e-18)
(0.00311112 0.00571891 -1.03671e-17)
(0.000476359 9.17299e-05 -6.50537e-18)
(0.000707379 0.00470721 -7.60819e-18)
(0.000129901 0.000132747 3.77098e-18)
(0.0174861 0.00145611 1.4403e-18)
(-0.00189255 0.00287048 2.88487e-18)
(-0.00169022 0.00397974 2.52788e-19)
(-3.34371e-05 0.00239442 7.35006e-18)
(0.000553502 0.000600079 2.21812e-18)
(0.00108978 -0.000320989 -1.28943e-17)
(-0.000254908 0.00345168 -2.76116e-18)
(6.56797e-06 7.56677e-09 -1.15711e-18)
(-0.00431951 -0.00154317 -1.61856e-17)
(0.0175506 0.0019044 -6.3328e-19)
(0.00641159 0.00453576 1.94161e-17)
(-0.00100162 -0.00186187 5.42482e-17)
(0.0154026 0.00197292 -1.39535e-18)
(-0.0019815 0.000333112 8.60686e-18)
(-0.000875531 0.00472862 7.78795e-19)
(0.00044178 -0.000373636 2.97298e-18)
(8.33672e-06 -6.77473e-05 6.15648e-19)
(0.00699255 -0.00131275 4.53307e-17)
(3.68358e-05 -7.4337e-05 -1.21191e-18)
(6.42559e-05 0.00028287 -2.70496e-18)
(0.000552993 -0.000445138 -1.11963e-18)
(0.0138151 0.00290541 -2.68877e-18)
(-0.000528647 0.00161215 1.63079e-19)
(0.000237983 -5.37592e-06 2.6071e-18)
(0.00301018 2.31498e-06 1.60965e-18)
(0.000232075 0.00300062 5.87117e-19)
(1.19653e-05 -8.27937e-05 -2.43546e-18)
(0.00151486 0.00723886 9.88206e-18)
(8.62879e-05 0.000212868 1.61277e-18)
(0.0194283 0.00200127 -2.27227e-18)
(0.0053745 0.000417558 -4.29489e-19)
(7.35195e-05 0.000129269 4.97945e-18)
(-0.0007819 0.00152916 -2.29318e-19)
(0.00340873 0.00429388 1.11049e-17)
(-0.000938474 0.00479247 -4.8758e-18)
(-0.000190158 0.000375538 2.76446e-18)
(0.00446138 0.00534729 1.2261e-17)
(0.0055221 -0.000745433 -4.10921e-17)
(-0.00068057 0.000543214 -1.19228e-19)
(0.00444161 0.00206245 7.99215e-18)
(-0.000743394 0.00491315 8.19481e-18)
(-0.00124571 0.00415366 -2.13791e-18)
(0.000455256 7.84251e-05 1.28976e-17)
(0.00598946 0.00283418 -7.03839e-18)
(0.00966658 0.000567573 4.47702e-18)
(-0.000684168 0.000561417 8.34383e-19)
(0.000359711 0.00530567 -4.37988e-18)
(0.000178112 0.000455778 -4.78326e-19)
(8.89758e-05 0.000225041 -7.46507e-18)
(0.00288998 0.00324577 1.91881e-18)
(0.019385 0.0024158 8.34167e-18)
(7.80126e-05 0.00267393 -4.33533e-18)
(-0.00205804 0.00282241 -9.37515e-19)
(2.97534e-05 -7.7312e-05 1.13541e-17)
(-0.00200164 0.00314547 2.071e-18)
(0.0193041 0.00195289 -7.78338e-19)
(0.0102499 0.0027035 -9.64998e-18)
(-0.000623134 0.000682787 -3.72502e-18)
(-0.00509056 -0.000455872 -2.32103e-17)
(7.86592e-05 0.000288657 -1.53314e-18)
(0.000179149 0.00047891 2.78432e-19)
(-0.000320896 0.0031209 -1.64984e-18)
(-0.00162396 0.00208219 5.30689e-19)
(-0.000510395 0.000319817 -3.0877e-18)
(0.000521526 0.000537182 -2.26111e-18)
(0.0054444 0.00230623 5.49886e-18)
(0.00375674 0.00341023 1.80437e-17)
(0.00389694 0.00194915 -7.32688e-18)
(-0.000513089 0.00155696 5.42348e-20)
(6.70433e-05 -3.09859e-05 -1.65706e-18)
(0.0209494 0.00185758 -2.00488e-18)
(1.3873e-05 -7.65806e-05 -2.41211e-18)
(0.00180843 0.00430812 6.60633e-18)
(-0.00119369 0.00213222 4.25156e-19)
(-0.00154425 0.00249745 1.42182e-18)
(-0.000355071 0.00249361 7.69056e-19)
(0.0209399 0.00158064 2.70026e-18)
(0.0087295 0.000595913 1.54642e-18)
(-0.000158986 0.00182751 5.53112e-19)
(-0.00574412 -0.00125213 2.60521e-17)
(-0.00104898 0.00145578 -1.67247e-21)
(8.87046e-05 0.00352935 -3.21531e-18)
(0.0190732 0.00145964 7.53135e-18)
(0.0141288 0.00121932 4.48647e-19)
(0.000205833 0.000365569 -5.94276e-18)
(0.000127129 0.00012351 1.34364e-18)
(0.000755988 -0.00114765 3.25733e-18)
(0.0048029 0.00210084 -5.12385e-18)
(-0.00262036 0.00375016 -1.61549e-18)
(-0.00202006 0.0031181 -2.6642e-18)
(0.00532125 -0.00229308 -6.55023e-18)
(-0.00166339 0.00209577 -3.99985e-19)
(-0.00107789 0.00253066 -1.51194e-18)
(-0.00513882 0.000551927 3.29682e-17)
(0.00330223 0.00772119 -1.74215e-18)
(0.00358413 -0.000437635 3.31225e-18)
(0.0189066 0.00200453 1.95133e-18)
(-0.00205894 0.00405936 -2.50507e-18)
(0.0188163 0.00149157 9.62534e-19)
(3.47037e-05 0.000894413 -2.23692e-18)
(-0.00268018 0.00394822 -4.16561e-18)
(-0.000867707 0.00528642 -9.58421e-19)
(4.33901e-05 -3.65794e-05 -4.83837e-18)
(-0.000120767 -0.000108176 -1.42762e-17)
(0.0131872 0.00595842 6.88718e-18)
(0.00110548 0.000636224 -7.41496e-18)
(-0.00116663 0.00308742 4.40009e-18)
(0.000199858 0.00021772 -5.79606e-18)
(0.00268957 -0.00500987 3.1318e-18)
(0.00274798 0.00161775 7.63854e-18)
(0.00029894 0.000981645 2.97538e-19)
(0.000141473 0.000294955 1.15392e-18)
(5.15537e-06 -2.26385e-06 2.94366e-18)
(0.000240105 -0.000357886 -1.22519e-17)
(0.000278856 0.00294575 -1.98733e-18)
(3.04882e-05 -1.27792e-05 -5.32702e-18)
(0.0118604 0.00262861 1.86187e-18)
(5.71517e-06 -2.07573e-06 -2.66634e-18)
(-0.00202287 0.00404976 9.90542e-19)
(0.000437721 3.15418e-05 -3.26944e-19)
(-0.00238095 0.00324239 2.93709e-18)
(0.000159486 6.62366e-05 -7.15824e-18)
(1.3192e-05 -8.04124e-05 5.04222e-18)
(0.0019059 0.00119171 2.15874e-18)
(-0.00493872 -0.000403876 3.3022e-17)
(-0.000159279 0.00306176 1.37202e-18)
(0.00905883 0.0023811 1.54822e-17)
(0.00053603 0.0020031 2.02959e-18)
(-6.97557e-05 0.000178659 -5.58575e-19)
(-0.000381106 0.000564947 -2.57177e-19)
(-0.000129511 0.00344489 -5.03141e-18)
(-0.000160268 0.00120471 5.4612e-19)
(0.00060418 0.004089 -1.92618e-17)
(-0.000471317 0.00170229 -2.00476e-19)
(0.000635441 -0.000659023 2.05852e-17)
(-0.00297078 0.00392037 2.82985e-18)
(1.30913e-05 -8.07342e-05 -4.60135e-19)
(0.0131882 0.00136252 1.14096e-18)
(1.74181e-06 -2.10421e-05 -3.295e-18)
(-0.0025079 0.00338047 1.63012e-18)
(-0.00530599 -0.00123442 4.46592e-17)
(0.0200575 0.00166137 -4.6386e-18)
(9.24993e-05 -0.000519283 2.96897e-18)
(0.00280124 0.000455484 2.31617e-17)
(0.00288986 -7.35761e-05 -4.20072e-19)
(0.00445429 0.00191152 2.06972e-17)
(0.0147158 0.00548825 -2.71065e-18)
(-0.000623454 0.0007587 -1.11924e-18)
(0.00511442 0.00763384 -2.33051e-17)
(0.000786443 -0.000224878 2.11893e-17)
(-0.000206007 0.00235664 3.25702e-19)
(-0.00155247 -0.00211168 -5.20394e-17)
(0.000211761 0.00588599 4.03404e-18)
(-0.000392261 0.000488971 -9.98068e-19)
(0.000637728 0.00402486 1.85074e-17)
(-0.000611901 0.00096519 -1.28884e-19)
(0.0180675 0.00147843 -8.97593e-19)
(0.00117261 0.000294908 3.57224e-18)
(0.000166738 0.000572816 2.73008e-18)
(0.000430013 -0.00175528 -1.95063e-18)
(0.00801829 0.00435135 -9.53203e-18)
(1.64086e-06 -2.65461e-05 -2.85129e-18)
(2.58666e-06 -3.26515e-05 3.37931e-19)
(-0.0023 0.00322414 -7.1717e-19)
(0.0125992 0.00135116 -6.8868e-19)
(-0.00507811 0.00382359 -1.87926e-18)
(8.79057e-05 -6.03266e-05 -1.31158e-17)
(-0.000535222 0.00436984 -6.4658e-18)
(-0.000493703 0.00140866 -2.04367e-20)
(1.53782e-05 -7.64122e-05 -4.7747e-18)
(-0.00277589 0.00386128 -2.69369e-18)
(-0.000601728 0.0043896 9.66322e-18)
(0.00354203 0.00281019 2.44448e-18)
(-0.000472596 0.000269263 1.38233e-19)
(-0.00221811 0.00365009 -7.70228e-18)
(0.00133053 -0.000776184 4.57932e-18)
(-0.00224722 0.00310952 9.94525e-19)
(9.68095e-05 -0.000115404 -3.51749e-18)
(0.000461346 0.000402222 -4.47676e-18)
(0.0026607 0.0015264 -8.29637e-18)
(0.000255695 -0.000325548 -4.72726e-18)
(-0.00230673 0.00365994 1.06382e-18)
(-0.000831254 0.00317969 -7.63135e-18)
(-0.000729949 0.00318718 2.18759e-18)
(0.00339405 -0.00039663 -6.12543e-19)
(0.00607187 -0.00336233 -1.58422e-17)
(-0.000647399 0.00498728 2.19648e-18)
(0.0164082 0.00308032 1.0194e-18)
(0.00484721 0.00534046 -2.14675e-17)
(-0.00241961 0.003674 6.50189e-18)
(0.0153749 0.00155502 1.81071e-19)
(0.00161215 0.000286203 1.46369e-17)
(0.00727579 0.00286 -1.56983e-18)
(-0.00129854 0.00416947 6.12658e-19)
(-0.000188767 0.000643726 -2.7476e-18)
(-0.00105576 0.00248668 1.41048e-18)
(-0.000586604 0.0049146 1.30791e-18)
(0.000743431 0.00109469 -2.48084e-18)
(6.52201e-05 0.000113912 1.49553e-19)
(6.0238e-05 0.000113162 1.67693e-18)
(-0.00246525 0.00340098 -9.08199e-19)
(0.0135978 0.00117926 1.43431e-18)
(-0.00138564 0.00215073 -6.03629e-19)
(0.0167476 0.00191141 -2.59457e-18)
(-6.25056e-05 0.000183392 -5.47705e-18)
(-0.00270388 0.00389783 4.44516e-18)
(0.0030233 -0.00117831 1.50803e-18)
(0.0048218 0.000285884 -8.46073e-18)
(0.000742462 0.00398434 -4.20657e-18)
(0.000154077 0.00168886 -1.24063e-19)
(-0.000422073 0.00162076 2.16382e-19)
(0.00504829 0.000429556 1.09228e-17)
(0.00347395 0.00291794 -1.19523e-17)
(0.00155254 0.000327467 1.97299e-18)
(-0.00237511 0.0042196 -3.55887e-18)
(-6.5513e-06 0.000962901 1.83303e-18)
(0.00694933 -0.000798801 -8.46493e-18)
(-0.00249264 0.0034033 -1.3617e-18)
(-0.00198328 0.00408483 -1.62992e-18)
(0.000203871 0.00225549 2.66209e-18)
(0.00389075 0.0043228 3.61401e-17)
(9.28875e-05 -2.08347e-05 2.48466e-18)
(2.73999e-06 -2.47968e-05 6.33683e-18)
(9.40879e-05 -0.000190321 -9.73932e-18)
(2.09996e-05 -7.51857e-05 3.98137e-19)
(0.01893 0.00146002 3.92487e-18)
(-2.89041e-06 4.67281e-06 1.53807e-18)
(-0.00298533 0.00386481 2.94443e-18)
(0.0203466 0.00188593 2.94386e-18)
(0.000823065 0.0040262 4.8959e-18)
(0.0113916 0.00294086 -5.00394e-18)
(0.00744604 0.000553164 -1.25522e-18)
(-0.00197043 0.00411668 2.42859e-18)
(0.00454498 0.00208758 -1.81981e-17)
(0.000139031 -0.000503101 -1.1286e-17)
(1.44433e-06 -0.000102937 -1.06663e-17)
(8.84025e-05 -3.91591e-05 -1.70943e-17)
(-0.000277453 0.000269925 3.33692e-20)
(-0.000366451 0.000547976 8.24323e-20)
(5.80998e-06 -1.49606e-06 -7.20915e-19)
(-5.39582e-05 0.00356954 -1.70965e-18)
(0.000350274 0.00466905 -1.47343e-18)
(0.00137323 -0.000824156 8.60769e-18)
(-0.000832268 0.0047638 -4.50793e-18)
(0.000416173 0.000608787 5.01709e-18)
(0.017385 0.00161991 7.67258e-19)
(-8.22612e-07 -8.37264e-06 -1.3642e-17)
(-0.00206411 -0.00150206 -3.31035e-17)
(0.00114017 0.00210748 2.0863e-18)
(-2.39986e-06 -1.80277e-05 1.36216e-17)
(5.37915e-06 -0.000114429 -2.52282e-18)
(0.02002 0.00166922 -1.66182e-18)
(2.03835e-05 0.00178424 2.31936e-19)
(-0.00874185 0.0044975 -3.20732e-18)
(0.0131629 0.00586741 7.32764e-18)
(-0.00119539 0.00300984 -2.14967e-18)
(-0.00100458 0.0035659 9.25151e-18)
(-0.000710263 0.000520218 1.09567e-18)
(0.0210164 0.0022573 -5.99772e-18)
(0.000568991 0.000184702 -1.46056e-17)
(-0.000497702 0.00162984 -1.39619e-19)
(-0.00273993 0.00388061 -2.89453e-18)
(3.51991e-06 -0.000101516 3.36229e-19)
(0.0002586 1.86714e-05 3.34525e-19)
(-0.000438931 0.000697694 1.9913e-18)
(-0.0018185 0.00290051 -3.51635e-18)
(0.0138171 0.00111282 3.7491e-19)
(0.00043426 0.00187008 3.83614e-19)
(0.000107855 0.00231976 -2.1257e-18)
(0.00396611 0.00373222 2.85133e-18)
(0.00838224 0.00239931 9.7739e-18)
(0.000286861 -0.000516514 -4.13964e-17)
(0.00079016 0.000208648 -4.72018e-18)
(0.0191654 0.00148214 -2.19973e-18)
(-0.000276304 0.000260383 -2.24809e-18)
(0.0188453 0.00150177 -8.42268e-19)
(4.01904e-06 -8.39637e-06 6.42627e-19)
(-0.000541741 0.00148345 1.37513e-19)
(0.0012531 0.00600957 5.10268e-18)
(-0.00184833 0.00352076 -3.50946e-19)
(-0.00182289 0.00392454 1.57581e-18)
(0.0019258 0.0033661 2.2365e-17)
(-0.000210836 0.00310481 2.63658e-18)
(2.12057e-06 -7.08908e-05 -5.24812e-18)
(-2.22171e-07 -7.51548e-06 2.05944e-18)
(9.99715e-05 0.00361102 1.8803e-17)
(2.4145e-05 0.00092065 2.98995e-18)
(7.29013e-07 -6.38675e-05 8.30567e-18)