/*--------------------------------*- C++ -*----------------------------------*\
| =========                 |                                                 |
| \\      /  F ield         | OpenFOAM: The Open Source CFD Toolbox           |
|  \\    /   O peration     | Version:  v2012                                 |
|   \\  /    A nd           | Website:  www.openfoam.com                      |
|    \\/     M anipulation  |                                                 |
\*---------------------------------------------------------------------------*/
FoamFile
{
    version     2.0;
    format      ascii;
    class       volScalarField;
    location    "800";
    object      ddt0(k);
}
// * * * * * * * * * * * * * * * * * * * * * * * * * * * * * * * * * * * * * //

dimensions      [0 2 -3 0 0 0 0];


internalField   nonuniform List<scalar> 
13851
(
1.35733e-06
1.32258e-07
1.53128e-07
-0.000151306
-4.4733e-08
1.58488e-07
2.81946e-07
-1.2071e-08
0.000395979
-1.12692e-08
1.27692e-07
-2.2704e-08
-1.21031e-08
0.000353984
5.06789e-07
2.23292e-06
-0.000320687
4.00572e-08
-1.10862e-06
1.36899e-06
5.23952e-07
1.73341e-08
-0.00142976
-7.93271e-09
0.00194866
9.80242e-07
1.00392e-06
-5.32411e-05
0.00090418
-4.33632e-09
-0.000462818
2.94213e-07
1.26556e-06
0.0038841
1.5934e-07
0.000649608
-9.87802e-10
-0.00102813
-0.00124985
-1.98034e-08
0.000155799
0.000957634
-1.64469e-05
2.33273e-06
0.000504087
-1.42083e-08
6.06512e-08
1.62552e-06
2.50344e-08
-5.90506e-09
-0.000313471
-1.71158e-08
2.20955e-06
5.10782e-07
0.000867699
-1.95763e-08
1.2829e-06
3.17683e-05
3.36759e-06
0.000730895
-2.34403e-08
-9.45487e-07
-4.58709e-09
1.71182e-08
-4.50423e-06
-4.59644e-06
0.000744059
7.86772e-07
-3.51122e-09
-0.000437657
-0.000307322
4.92514e-07
-2.19586e-08
0.00064226
5.21596e-07
-2.98365e-09
-0.000364181
4.63639e-09
0.00310868
-2.9111e-08
-5.82361e-09
-4.20849e-06
1.1122e-07
0.000294451
0.000731946
-0.000381796
3.10953e-08
0.000241363
-1.68583e-08
-0.000537432
-1.19794e-08
2.93637e-07
-6.27423e-05
-0.000390008
0.000389358
1.41565e-06
-1.96984e-08
2.06906e-06
-7.23184e-05
-1.20076e-06
2.05337e-06
-3.80947e-07
-2.80983e-07
-1.51433e-08
-3.69164e-09
4.13851e-07
-6.84094e-09
-0.000314001
2.91293e-07
2.90481e-08
-2.33976e-08
-1.17546e-08
1.61603e-06
2.80142e-07
8.66019e-07
4.66327e-07
-2.70811e-08
-1.61757e-08
-0.000139868
-0.000537675
4.71059e-06
2.57054e-08
-1.11812e-08
0.00188856
-1.47922e-06
-2.14437e-06
-2.30046e-08
1.40621e-07
0.002735
5.61883e-07
1.85927e-08
1.52681e-07
0.00172747
0.00439849
1.40098e-07
1.71501e-05
-1.74338e-07
-0.000330277
-3.50971e-08
6.31965e-07
-5.2769e-06
-1.1428e-08
-1.61285e-08
-2.64614e-07
0.00314208
-5.83863e-09
3.05408e-09
-0.000432405
0.00101849
8.82502e-08
1.95712e-06
1.56706e-06
3.10103e-07
1.80048e-06
-1.1915e-08
-9.36565e-09
-2.55548e-08
-0.00109002
5.99774e-07
2.23041e-07
-9.91605e-09
0.000849143
3.72249e-07
1.58491e-06
0.000369864
0.000164812
0.000270951
-0.000303732
-9.49545e-09
0.00822519
-2.20141e-08
-3.18397e-08
4.10913e-07
-3.75573e-08
0.000450353
1.47412e-07
9.22488e-07
-3.27819e-08
5.42502e-07
1.22444e-06
-1.31148e-06
3.90235e-07
2.77977e-09
5.84049e-07
-0.000128804
0.001048
1.28733e-06
-1.58637e-09
-1.09873e-08
-1.17277e-08
-0.000842181
5.97078e-07
0.000346801
1.63942e-07
-6.50207e-09
2.19339e-06
1.13279e-06
9.52852e-08
3.35217e-08
2.7002e-06
-9.46358e-07
0.000647435
-2.15419e-05
5.27999e-07
-0.00253143
0.00015693
-2.91065e-09
6.80658e-07
0.000774827
1.21742e-07
2.0824e-06
-6.41638e-09
-3.82886e-06
-1.09996e-09
1.63409e-07
4.64449e-09
-6.34613e-09
4.11603e-06
6.39894e-08
4.30824e-06
-3.09636e-08
1.2047e-06
0.000203723
0.000290849
-2.19914e-08
6.97906e-07
-1.7778e-09
-2.39288e-06
-2.60256e-08
1.69574e-07
-8.03651e-05
-4.0007e-08
1.25186e-07
-1.81843e-09
-0.0001999
-1.94821e-09
-0.00220891
-0.000127468
-1.67139e-06
-4.55278e-09
3.12934e-05
0.000738694
0.000325543
2.14309e-06
4.00834e-07
2.78987e-06
1.92129e-06
5.38335e-07
3.95079e-06
-3.01055e-08
0.00059575
2.48253e-07
-3.69284e-08
2.26001e-07
2.20355e-06
0.000788831
0.000310051
-1.15517e-08
-1.53888e-06
-1.26781e-08
2.15361e-06
-1.31157e-06
2.39886e-07
3.75074e-07
2.31009e-07
-1.73343e-08
-8.74557e-08
1.18263e-06
-2.52309e-05
-1.90136e-08
-4.80041e-09
7.83307e-08
0.00359568
-0.00021131
5.50363e-07
3.05901e-08
-1.17033e-06
-1.24654e-08
8.88297e-07
4.24111e-07
0.00281547
0.000183786
2.06664e-07
4.64834e-07
-0.00406178
-9.18529e-09
-2.60977e-08
1.02504e-06
1.55952e-07
6.42125e-09
-7.56408e-09
-2.63306e-08
-5.57363e-08
3.86913e-07
-2.56104e-08
0.000587779
5.53817e-07
-2.0299e-08
0.000676275
0.00157361
-1.31776e-08
1.32575e-06
-0.000298791
-7.38352e-09
-1.07303e-08
5.23267e-07
0.000283107
0.000584656
4.73989e-07
-4.71312e-08
0.0081393
-2.12382e-08
4.55654e-07
-0.000302248
-6.81274e-06
2.14001e-07
0.0593609
-0.000444096
-0.000280368
1.30359e-06
1.22162e-06
1.63274e-05
0.00253693
-2.72642e-05
3.90228e-08
-0.000255664
7.88612e-05
-3.24414e-06
1.18198e-06
-2.18428e-09
4.40144e-07
-2.12024e-08
0.000255829
5.02245e-07
-5.52306e-08
4.68806e-08
6.92811e-08
-0.000287414
5.2401e-06
1.67424e-09
0.000253189
-1.41851e-08
1.5835e-07
2.31939e-07
0.000107391
-1.02633e-06
2.26441e-06
2.32241e-10
1.10076e-07
0.000231551
-1.03597e-08
5.81638e-07
2.01478e-07
5.20705e-07
-1.62449e-08
-1.5105e-08
-1.90634e-08
-4.50435e-07
1.19237e-06
3.33838e-07
0.000195913
0.000327289
-3.00895e-09
-0.000393013
3.28833e-06
4.035e-08
1.0916e-05
7.40322e-07
-0.000149585
7.53048e-08
1.00372e-06
4.26741e-06
-0.000846394
-2.41512e-08
0.00035238
3.56669e-08
1.67654e-06
-3.32434e-05
2.76281e-07
0.000724927
2.95638e-07
0.000438295
4.39025e-07
7.20948e-07
2.90182e-07
3.63579e-06
-1.17292e-08
1.92775e-07
1.63623e-07
5.33243e-07
-1.78519e-08
5.80715e-07
5.9363e-05
-1.6981e-08
6.74312e-07
-6.98244e-05
9.13379e-08
-0.00156646
7.68026e-07
0.000780484
1.24894e-07
9.25668e-07
0.000106934
-1.14263e-06
4.32189e-07
0.00029463
0.000580973
5.25651e-05
-2.00835e-08
-5.95439e-07
2.70602e-07
9.93598e-07
2.31581e-08
-5.90482e-05
0.000217293
0.00058039
1.14184e-07
1.66816e-07
-1.24122e-06
-0.000198163
3.77819e-08
-0.000178374
5.27032e-06
-0.00133018
-1.69097e-08
-0.00138666
-1.5632e-08
-3.8125e-08
0.000689809
-5.46211e-07
-1.08141e-08
1.37022e-07
6.60539e-07
-3.23651e-08
0.00122428
4.6797e-07
7.15282e-07
2.85101e-07
3.48994e-08
-4.84569e-09
-0.000578977
-1.89547e-08
-5.18629e-09
-0.000245894
-0.000548231
5.82977e-09
2.91534e-06
8.91117e-10
-2.73951e-08
9.98826e-08
3.17844e-07
7.56789e-07
-7.42838e-09
7.36234e-08
1.26176e-06
1.41593e-07
-0.000302885
-3.02913e-08
3.60638e-07
0.000205783
-8.95441e-09
1.49923e-08
-2.13718e-08
3.05893e-07
1.13594e-07
3.19787e-06
-0.000482461
3.7972e-07
-0.000109149
1.05245e-07
-2.34983e-08
0.00413195
4.14132e-06
3.2106e-07
-1.858e-08
0.00231289
1.9578e-07
-0.000848029
-1.67316e-08
1.95074e-07
-4.88713e-07
5.38846e-07
0.00287188
-1.23631e-06
-2.52555e-05
-4.17836e-09
1.75022e-06
-2.39819e-08
0.000838429
7.71856e-07
1.11021e-06
2.62039e-07
4.69659e-09
-1.81858e-08
4.20702e-07
-4.21032e-08
-0.000277694
0.00379594
-0.00051447
-8.56161e-05
-0.000798963
-0.000615178
-7.23917e-07
8.917e-09
-6.40649e-09
0.0187726
-6.31832e-09
-1.02377e-08
-1.87727e-08
0.000914532
1.66074e-07
-1.04413e-08
-7.62262e-08
3.21923e-07
-5.28611e-09
0.00992825
-1.53583e-08
0.00337921
6.99889e-05
-2.73184e-08
1.72632e-07
3.85663e-06
-3.29081e-05
4.27295e-09
-0.00116375
-0.00764206
9.09428e-08
-0.000950625
1.69822e-07
1.01946e-06
-5.25888e-09
-0.000284029
0.000526261
1.07092e-07
5.31954e-06
-3.68527e-09
-1.43767e-08
5.36186e-05
0.000772325
3.39181e-07
7.48192e-07
-6.12822e-09
7.84554e-07
0.00286446
-0.000703387
1.0101e-07
-0.000508255
-1.55429e-08
1.50467e-09
4.0543e-07
3.81327e-07
3.86403e-08
-5.02073e-09
-0.00108645
2.52788e-06
-0.00100617
1.42771e-07
-1.59823e-08
0.00298898
-1.39162e-08
2.07712e-07
3.48654e-07
5.1314e-07
3.51006e-07
-0.000581452
0.000199033
1.67851e-07
-0.000141151
1.97799e-07
3.97361e-07
0.000967219
0.00084141
-1.28453e-08
-1.76079e-08
2.25186e-06
-0.00114605
4.9537e-06
8.03914e-07
-0.000680461
3.95991e-07
4.4075e-07
0.000139707
0.0086375
-6.58843e-07
0.00348986
4.85102e-07
0.000734659
3.04228e-08
5.1649e-06
-0.000136304
-2.21717e-08
-0.000175931
-1.49681e-05
-1.28444e-08
5.98274e-07
-1.96665e-08
-4.2761e-05
2.11583e-07
0.00153714
-1.50341e-08
-2.76717e-08
1.67423e-08
3.051e-07
-3.1512e-08
0.000698171
-2.83374e-08
9.91212e-07
3.804e-09
9.99058e-07
-2.17177e-08
-4.99538e-09
-1.96331e-08
-0.000507302
3.88901e-07
0.000119349
1.65275e-07
-2.83772e-08
6.41471e-08
3.99691e-07
7.16253e-08
6.26221e-07
1.70148e-07
-1.88963e-07
6.73856e-06
-5.35961e-09
0.000338473
-1.44294e-09
1.4287e-06
-0.000185131
-0.000376212
1.91555e-06
0.00150801
2.21744e-08
-4.33571e-06
0.000476371
8.57999e-08
0.0075154
-2.51684e-08
2.97447e-07
-0.000117271
7.3755e-06
4.0502e-08
5.67689e-07
9.63664e-08
0.00055188
-0.00025621
-6.84548e-09
2.64077e-06
0.00498225
2.02423e-09
2.20046e-09
9.78619e-07
0.000271651
-9.61793e-05
-9.54368e-09
4.05445e-07
1.3306e-07
-8.1948e-09
9.14045e-06
2.25876e-07
1.22955e-06
2.82361e-08
1.15438e-06
-3.55722e-07
8.77853e-07
-6.77627e-09
-9.28275e-09
1.80407e-07
-2.74422e-08
1.37901e-06
5.18001e-07
4.92111e-07
-5.21545e-08
-0.00119679
-4.6367e-06
0.00648932
-0.00203935
1.88543e-06
0.000356017
-7.54758e-09
7.18602e-05
1.11498e-06
1.91026e-08
4.18346e-07
3.79271e-06
3.76404e-08
-2.86881e-08
-2.85807e-08
1.41121e-06
0.000295455
3.58578e-07
-0.000443179
-3.41051e-08
-4.05948e-05
-1.60236e-06
-0.000306929
5.31163e-07
1.35254e-07
1.533e-07
-0.00036406
1.00138e-06
-3.06297e-08
-5.19174e-07
3.55962e-08
-0.000411325
1.43873e-06
8.60177e-07
2.45357e-07
-2.52414e-06
-1.19747e-08
-7.55431e-10
-5.87385e-09
-6.4948e-09
0.000910556
-5.55248e-08
8.11961e-06
0.00253155
5.30966e-07
-0.000500271
-6.08179e-05
1.42281e-06
-1.00669e-05
2.07115e-07
1.87012e-09
-5.25347e-09
1.98721e-09
5.72127e-08
-3.18058e-08
4.06609e-07
1.51562e-06
6.0681e-08
-4.63869e-05
1.60238e-08
0.000513835
7.38383e-09
-0.000181928
9.02858e-08
5.05548e-10
-4.45288e-10
-0.000315365
1.46861e-07
5.87109e-05
0.000659317
6.00476e-07
5.87136e-07
1.00584e-07
0.00376114
-6.67749e-09
1.57266e-07
7.85569e-06
-3.23302e-10
-9.47567e-09
6.70872e-08
7.5093e-07
0.000479013
1.62366e-07
2.85977e-07
6.9244e-06
-0.000635963
9.67865e-09
-9.4738e-09
0.000982533
-1.98088e-09
0.000885903
-1.903e-08
1.4663e-07
0.00196127
8.16856e-07
8.79065e-07
1.36425e-07
4.24431e-07
2.35799e-09
7.70235e-09
4.3614e-07
3.36724e-08
4.83083e-09
4.10725e-07
-4.50754e-06
-4.21903e-08
1.53045e-05
-0.00196384
-4.9523e-05
6.16676e-08
-0.00104878
1.35147e-07
-1.10576e-09
4.60821e-07
-3.05765e-08
1.96802e-07
0.00438011
0.000192732
0.00785958
0.000923875
-4.31289e-09
-7.03886e-09
-1.1229e-07
-9.02712e-09
6.71378e-09
-0.00159196
1.60034e-06
0.000863211
1.38364e-06
8.1936e-07
-9.35456e-09
-7.03667e-09
0.00316521
6.88471e-07
1.4848e-07
1.09913e-09
8.65043e-07
-7.60508e-09
-0.000343714
-8.40111e-09
-1.94365e-08
0.000427567
-7.36949e-09
3.21907e-07
-3.20087e-08
0.00119798
-2.73559e-08
-0.000216426
-8.81265e-09
-4.34826e-07
4.8702e-07
-3.05384e-08
2.786e-07
-2.02363e-08
1.37778e-07
-3.94399e-08
6.89811e-06
-1.09392e-08
0.000286362
2.82464e-08
1.83358e-06
0.00432279
2.16947e-07
-5.37369e-08
-6.43747e-05
-0.00110936
1.88397e-07
8.4624e-07
-9.37879e-09
0.000218055
1.29896e-08
3.13701e-06
-2.25651e-08
-3.89017e-08
-1.03002e-05
3.8371e-07
-2.08439e-08
5.06869e-07
0.000809242
5.86001e-05
0.00509378
-1.35835e-08
0.000418712
-1.79706e-08
-4.17119e-08
-1.86555e-08
3.9409e-08
-1.82344e-09
0.00948567
0.00427974
4.33673e-08
-2.77787e-08
3.5569e-07
-9.23832e-09
-6.13442e-05
2.37531e-08
0.00028382
-0.000199568
1.36721e-07
1.32269e-06
-2.13766e-08
5.12365e-07
2.98018e-07
9.76357e-08
-1.22919e-08
0.00131396
-0.000256153
6.10473e-07
-0.000148209
6.90182e-07
-1.14858e-08
2.82359e-07
8.61361e-07
-0.000474719
3.80342e-07
-1.38197e-05
6.88173e-07
-1.15707e-08
0.0014284
0.00114443
0.000546093
-0.00567188
5.4979e-05
-4.84571e-09
3.16049e-06
-7.78889e-09
1.47141e-05
5.01659e-08
-5.3607e-08
0.00657503
8.51474e-09
-4.62203e-08
-1.61698e-08
-3.5209e-09
0.000906127
2.24818e-06
-2.83611e-08
2.99505e-07
0.000248256
1.66152e-08
-0.00012193
-1.05045e-08
7.83508e-07
0.000799444
-3.28624e-08
5.04742e-06
6.317e-08
2.22896e-07
4.22193e-05
8.36822e-09
-2.13971e-06
9.25449e-07
0.000486976
1.33286e-07
0.000247398
2.61181e-07
0.00104633
-0.000350369
0.000236812
6.36726e-07
-1.8476e-08
-3.80468e-09
2.41493e-09
6.76827e-07
-8.349e-09
0.00284785
-4.80195e-09
-6.18998e-09
1.27861e-07
-1.17105e-08
-2.18203e-08
3.81712e-07
5.91971e-08
1.72156e-07
1.78939e-08
0.00327822
5.70446e-06
2.79751e-07
-1.51491e-08
0.00791799
-1.26211e-08
-0.000289184
-6.0684e-09
-1.63408e-08
-1.28115e-08
-1.38938e-10
-3.78942e-09
-2.56955e-08
-3.064e-08
2.08078e-06
-9.20297e-09
-7.30952e-06
6.11021e-08
-0.000160779
-1.97212e-05
1.0786e-06
3.59569e-06
6.12631e-08
-0.000468417
9.53115e-07
-5.79889e-09
5.88947e-08
-1.1825e-08
-0.000277038
-1.11804e-08
3.98724e-07
3.36999e-05
-9.32781e-05
8.26103e-08
2.27773e-08
-0.000416831
2.67803e-05
8.04619e-05
6.39058e-08
-2.68535e-08
1.11838e-07
4.75164e-07
-1.63542e-08
0.000315014
-1.19657e-07
-6.14618e-09
3.35755e-06
3.6035e-06
5.67782e-08
0.00359487
-0.000175091
1.7164e-06
3.75621e-08
-0.000145869
4.10258e-07
-3.87586e-08
0.000728889
-7.7595e-09
5.3537e-08
-1.99598e-08
4.93892e-07
6.79967e-07
0.00110034
-0.000720535
6.63954e-07
0.000574038
4.97449e-07
-1.67472e-08
2.5929e-06
-3.14392e-08
-0.00124675
9.28688e-08
-3.85016e-08
1.79157e-09
2.87119e-08
0.00388235
0.000253354
-1.35474e-06
0.000110663
0.00429897
-5.5264e-09
-2.09386e-08
6.21027e-08
-3.01638e-06
1.05741e-07
3.34757e-08
8.05891e-08
0.00285624
2.68056e-06
3.15e-08
3.01126e-09
2.68151e-07
6.45875e-07
-3.9709e-05
9.19154e-08
4.34043e-08
2.08057e-07
-0.000303946
4.14769e-07
0.00244813
-7.55483e-09
-1.96193e-08
5.19988e-08
-1.85873e-08
4.96639e-09
1.57222e-06
0.000780907
-1.63742e-05
4.33888e-08
-2.29491e-08
0.00215241
1.22927e-07
0.00054686
0.000768944
-3.21648e-08
-0.000523494
0.000961661
-0.000784081
8.14114e-07
3.68537e-07
0.000608557
2.99167e-07
-2.81554e-08
-1.30593e-07
2.36701e-06
2.83887e-08
8.61711e-05
-1.55309e-08
0.00352254
-3.21103e-05
-5.09623e-09
1.95978e-09
-2.54896e-08
1.41623e-06
3.48097e-07
-2.56314e-08
3.32049e-07
-7.05804e-09
2.83883e-07
6.69291e-06
-4.8091e-09
-0.00134222
0.000424304
-1.50133e-08
3.53581e-07
6.78478e-07
-2.15366e-08
0.000109407
0.000153739
-0.000239095
0.000207028
-2.47987e-08
2.10575e-08
6.70036e-08
-1.0469e-08
5.71212e-07
3.60654e-07
1.80215e-10
7.56166e-07
-3.08587e-08
9.58531e-05
5.02632e-07
0.000187009
-8.42148e-09
9.66577e-09
-1.64708e-06
5.89065e-07
4.64355e-07
-1.91457e-08
0.000104016
0.00155826
-0.00282081
-0.000719823
0.00492611
0.000397925
0.000850421
-1.99881e-08
-1.97506e-08
6.10209e-08
4.97438e-06
7.45743e-07
4.5794e-07
-0.000189404
1.26049e-07
-1.25584e-08
-8.24974e-09
3.3645e-06
2.7504e-09
2.54868e-07
-7.46079e-09
-0.000107178
-1.46204e-08
-3.32877e-08
-1.84815e-08
-2.0603e-08
-2.63309e-08
-3.07703e-08
-1.98105e-07
-3.18878e-08
0.00375159
-1.77211e-08
-1.63294e-08
0.003062
0.00529588
0.000302775
-1.6409e-05
2.93211e-07
-6.4453e-05
-2.96684e-08
1.29381e-07
9.21923e-09
-1.07028e-08
2.59115e-07
-0.000279057
1.24377e-07
6.12474e-07
-0.00160825
1.07298e-07
5.18204e-09
-8.35018e-09
1.08134e-06
5.62014e-09
-2.77822e-05
7.58749e-08
3.99653e-06
9.87202e-10
4.31964e-08
1.94918e-07
4.78332e-07
-1.05657e-08
4.30422e-07
-0.000316051
2.88503e-06
0.00502427
-1.5022e-08
-0.000526508
9.90049e-06
-1.43376e-08
-0.000503983
-9.08639e-09
-2.18067e-06
-1.73826e-08
1.49938e-07
-4.13706e-08
-2.05133e-09
-7.7469e-09
-5.96797e-08
6.53845e-07
2.26669e-08
8.23895e-10
-3.85898e-07
5.60593e-08
0.00273094
-1.56296e-09
2.91524e-07
5.19784e-07
0.00097208
-1.14961e-05
-9.18936e-09
1.09404e-06
-3.42906e-08
4.67551e-07
-3.84251e-08
1.27144e-05
6.56105e-07
4.51242e-09
1.2096e-06
-1.24323e-06
7.9035e-07
-5.32014e-06
-1.65991e-08
1.13235e-06
7.80184e-07
6.95213e-07
-6.45959e-09
2.15433e-08
-0.000199104
-8.33856e-05
4.72413e-08
-3.88488e-08
-8.39411e-05
-3.01947e-08
4.68775e-07
-2.9813e-08
1.5246e-07
-0.0012594
5.5604e-08
-0.000296387
1.62277e-07
-1.80816e-08
1.30813e-06
-5.46406e-08
-1.60836e-06
0.000181146
3.72601e-07
-0.000176418
-4.50141e-08
-1.23922e-09
-1.36516e-06
-5.39501e-09
-4.66041e-09
3.54475e-07
2.53918e-07
6.29965e-07
9.29106e-08
-1.76262e-08
-6.2104e-09
1.67619e-08
-2.42667e-08
-5.57071e-09
-1.38468e-08
-0.000452204
7.35477e-08
-1.9571e-08
2.28105e-06
-3.07161e-08
-3.73427e-08
0.0049513
-1.87187e-09
-0.000165987
1.33011e-07
0.00382852
3.50962e-07
1.74821e-07
0.00120707
1.44966e-07
-2.98066e-05
6.89957e-08
5.61904e-08
7.57024e-08
2.46236e-08
-1.74584e-08
-6.02363e-09
3.07978e-07
-1.93227e-08
6.97947e-08
-3.83598e-08
8.51438e-09
-5.8363e-05
-0.000282782
-0.0173913
2.45075e-07
1.95253e-06
7.44973e-05
-0.000226159
-1.01341e-08
2.57899e-07
-0.000139926
6.46843e-08
1.34901e-07
0.252282
-0.000104842
3.24912e-07
6.45855e-07
-7.70252e-09
4.47224e-07
6.78175e-09
2.53251e-08
-0.00247399
-1.99956e-08
-3.19477e-09
0.00228469
1.76952e-07
-1.92837e-06
0.00455149
1.4112e-06
-1.31666e-08
-3.78386e-08
5.05939e-08
-0.00054702
-6.36301e-05
0.00210875
1.61616e-07
-6.78984e-09
-0.000364075
-1.33867e-08
2.37883e-07
3.32808e-07
1.96161e-07
4.90062e-07
-2.19285e-08
0.00138695
0.00505314
1.19728e-07
5.3934e-07
7.74871e-07
0.0379113
2.44918e-07
8.36187e-07
-8.97515e-07
5.07911e-07
4.50572e-06
8.06424e-07
-6.27999e-09
5.4278e-07
2.9757e-06
-0.00043368
-2.54789e-08
-1.58253e-05
2.35455e-07
8.82045e-07
2.47557e-09
0.00260129
2.27716e-07
-1.05874e-08
-1.02463e-08
3.15304e-08
5.32876e-08
-5.58476e-07
-4.2243e-08
-1.12707e-08
4.32228e-08
-6.52455e-05
1.53818e-07
-4.04683e-09
-1.31544e-08
5.41687e-07
1.7379e-06
-1.24116e-08
3.06732e-07
-0.0841186
-4.29311e-09
-0.000667448
6.78684e-07
-0.000173899
-5.80456e-07
-1.75649e-08
7.55515e-05
-1.41151e-08
1.24613e-08
4.59339e-07
3.88887e-07
6.34657e-07
7.37825e-07
7.79595e-09
5.308e-09
1.98591e-07
-3.93947e-09
9.66327e-09
-1.87807e-06
2.13073e-07
-1.91823e-08
-2.03997e-05
4.73401e-08
-3.23443e-08
-2.85701e-08
0.000314694
2.16906e-07
-1.19449e-08
1.67803e-07
-1.56802e-08
0.000280679
3.80023e-07
4.60838e-07
0.000633207
1.8453e-05
-0.000226226
4.27255e-07
4.55349e-06
-3.4265e-08
-3.19061e-07
3.82204e-08
2.67259e-07
-0.00648506
6.87507e-05
3.24955e-06
0.000661331
-3.3272e-09
0.000218463
-2.99199e-08
8.96231e-07
-2.29004e-09
1.33567e-05
0.00856111
3.37434e-07
-4.49495e-08
-2.60839e-06
-6.01975e-07
-2.24862e-08
-0.000533558
-1.70482e-09
-2.11775e-08
2.14625e-07
-1.19187e-08
1.63422e-07
-5.93866e-09
-1.17543e-08
2.36722e-08
-2.36147e-06
5.13898e-07
1.86957e-07
-2.77595e-08
-0.000212677
6.55799e-05
-4.61226e-08
-1.00493e-06
6.25363e-10
-2.34348e-08
5.36417e-05
-4.24459e-08
-1.11044e-08
-7.00077e-09
-0.00037512
-2.34931e-08
-1.81875e-08
3.39792e-07
5.02056e-05
-4.49405e-08
-2.52701e-08
-1.64983e-08
-2.1223e-05
1.91609e-07
3.19412e-07
3.70163e-06
-1.78801e-09
1.46785e-06
-1.82442e-08
0.000777856
1.30528e-07
-5.97885e-09
3.51176e-07
1.90388e-07
-2.27925e-08
6.19767e-08
5.66029e-07
0.00100935
1.25033e-07
0.000499898
-1.86275e-08
-1.10653e-08
4.67328e-07
-2.84738e-08
7.45908e-08
7.66112e-05
6.58834e-09
4.5823e-07
1.61144e-06
-0.000317713
-1.24378e-05
1.17304e-07
-1.05935e-08
-1.17682e-08
-2.95362e-08
-1.8863e-08
-1.9733e-08
3.55743e-05
-4.24804e-09
3.25948e-06
8.13078e-07
2.36293e-09
5.59796e-08
1.93101e-07
8.16106e-07
-3.31865e-07
-3.48305e-07
1.55937e-07
-1.4059e-10
0.000427665
2.20338e-07
4.71815e-07
5.97081e-07
-1.0475e-07
5.55343e-07
-0.000377793
6.37851e-07
0.000258302
-6.93236e-05
3.64883e-05
1.77978e-07
-1.35694e-08
1.68987e-07
1.06862e-07
5.51487e-08
1.20002e-07
-2.31426e-07
-8.24901e-09
-9.63216e-11
-2.49277e-08
3.86141e-08
1.84633e-07
4.71142e-08
-0.000282598
-4.8078e-08
-0.00135938
-2.68395e-08
2.3204e-07
3.33991e-08
8.9336e-07
-7.47829e-08
-1.55611e-08
0.00529994
-2.95365e-08
-2.23287e-09
5.67176e-07
2.35314e-08
-2.47364e-08
4.8264e-08
0.000958806
9.62828e-09
3.71614e-07
-4.76662e-06
0.00515825
-8.98692e-10
3.12865e-06
-1.21304e-05
2.36832e-08
5.98586e-08
8.45111e-08
2.05113e-07
3.71497e-07
-0.000359892
6.93611e-09
-0.000521883
-1.59576e-08
-2.40581e-06
-0.000227807
8.90479e-08
7.62822e-06
2.1395e-08
3.14036e-07
-1.05945e-08
0.00392037
1.25712e-07
-3.12977e-08
2.48484e-08
8.66627e-07
1.82211e-08
-1.7824e-08
-2.60123e-08
-0.0010939
3.93614e-09
-8.97295e-09
0.00508545
-7.30776e-09
-1.89158e-08
3.35347e-09
5.76239e-09
0.000132891
-9.5464e-09
-1.7913e-08
-3.67896e-08
-1.43648e-07
5.63925e-08
5.56173e-08
6.96437e-07
0.00443968
-2.0048e-08
-9.2125e-10
0.00120089
1.43566e-07
-0.00030501
2.5502e-07
0.00185046
-3.75505e-10
-6.87524e-09
-3.10959e-08
0.000343511
0.00565103
-1.16569e-08
-1.36787e-07
-2.97747e-07
-1.94092e-08
2.83871e-10
0.00105569
-3.17708e-08
9.37892e-07
3.23401e-08
7.18605e-07
-5.17459e-09
0.00333297
-3.608e-08
6.9191e-07
-1.98472e-08
1.30315e-05
-6.69055e-05
1.80705e-08
3.65557e-08
0.00185486
6.90466e-07
-1.26057e-05
8.83527e-06
-1.72314e-06
-7.25065e-09
2.69572e-07
4.71363e-07
-2.98517e-05
1.45587e-07
6.36023e-07
8.29413e-09
-1.32016e-08
0.00024927
-0.000772358
6.34964e-07
7.64392e-07
2.13253e-07
2.8605e-08
0.00244784
5.89046e-08
1.37505e-08
3.36018e-07
0.00585012
2.43899e-06
-8.99117e-08
3.29204e-06
-3.45637e-08
0.0033908
0.000987863
-0.000671932
-1.48585e-08
-0.000500038
-0.000883418
0.000104356
-0.000189475
0.000822225
8.88805e-07
1.72499e-07
1.58253e-06
-4.45103e-08
-1.88017e-08
2.77128e-05
8.08935e-07
1.57034e-08
0.000994874
-1.04973e-08
-1.00751e-08
5.12512e-07
5.16074e-09
-0.000134469
-1.25224e-08
-0.000100996
7.3235e-07
1.94366e-07
-5.7665e-05
0.0025304
4.51002e-07
-9.41878e-09
8.42837e-10
4.89819e-07
-5.96051e-08
-3.53758e-08
2.81252e-07
-1.423e-08
8.73834e-07
-2.1599e-08
2.0436e-06
2.99445e-09
-1.82255e-08
-0.000436742
4.30243e-06
-8.58178e-09
2.59212e-06
-0.000521684
-1.71948e-08
-4.26538e-09
-0.000639859
1.7849e-07
4.11325e-08
1.09458e-07
-2.21601e-08
1.82081e-08
2.6142e-07
0.00095658
6.17148e-07
-1.04258e-08
-1.33102e-08
2.89289e-06
-3.46533e-09
1.37586e-05
-0.000275211
-1.33185e-08
-2.24683e-08
6.1389e-08
-1.95686e-08
8.65651e-08
-1.69782e-09
4.00496e-08
-1.08002e-08
-1.66525e-08
-5.16364e-09
-9.25909e-09
7.25511e-07
-3.06608e-05
2.12801e-09
0.0022038
-0.000353179
-1.6054e-08
-3.52478e-06
-3.08119e-06
-8.52661e-09
-1.61799e-08
8.00959e-07
1.99983e-07
-1.77693e-06
2.83502e-07
2.14287e-08
-1.33398e-08
-0.000429153
3.84819e-07
-0.000111397
-1.289e-08
-1.28152e-08
-2.7807e-08
-2.86725e-08
-2.0858e-08
4.40775e-07
7.60816e-07
5.65969e-05
-3.03903e-08
6.54411e-06
-0.00108683
0.00169599
-2.67611e-08
5.05e-07
1.42917e-05
-0.000827116
-0.00026158
-1.05082e-08
-1.09077e-08
1.06111e-06
-2.01024e-05
-3.03508e-05
4.79999e-07
-4.06826e-07
-1.39968e-08
3.03304e-08
-2.62963e-08
-2.47461e-09
-8.61973e-09
5.37469e-07
4.75893e-10
-2.67366e-06
-1.0916e-08
0.00169785
-0.000330534
6.44035e-06
-0.000389705
0.00146654
-1.26796e-08
-1.03969e-08
-9.00793e-05
1.50329e-08
1.96698e-08
-1.07193e-08
-5.25348e-08
0.00242014
-0.000404256
-5.16098e-09
1.17589e-07
7.06098e-09
-3.36264e-08
0.000255753
-3.80932e-08
-2.65311e-06
0.00246121
-1.5826e-08
2.34945e-09
0.000865799
9.06718e-07
2.02004e-07
-1.61178e-08
0.00644134
-0.000174823
3.90273e-08
2.2409e-06
2.94562e-10
0.00190689
0.0138419
2.38616e-07
0.000347984
-0.00022048
0.00347884
-6.07639e-09
1.44229e-07
-2.09491e-09
-1.34104e-09
0.0055307
-1.21897e-08
-5.75714e-06
4.81738e-06
-0.000264532
4.07786e-08
1.02678e-07
5.92693e-06
2.87087e-07
0.00054269
-0.000697326
-3.93852e-09
2.02925e-07
2.00475e-07
1.8969e-06
-0.00101256
3.28565e-08
0.000385266
-5.91281e-09
6.35428e-07
-1.19798e-08
-4.54215e-08
-7.89856e-07
1.59171e-07
-3.3152e-05
-8.00794e-09
1.58811e-07
2.8145e-08
1.03616e-06
1.54909e-07
0.00387413
-7.22318e-06
2.33342e-05
1.31571e-06
-2.08069e-08
-4.77438e-09
7.42736e-07
-4.68983e-06
0.00209543
-0.000199853
-2.36408e-08
-4.04939e-05
-2.97536e-07
-0.000173931
3.74289e-07
1.66577e-07
2.94261e-07
1.91866e-08
0.00548589
-2.38648e-08
3.42446e-07
0.000300849
0.000622532
7.12881e-05
0.00182126
-3.61243e-09
4.80817e-07
3.39183e-08
0.00194168
1.33761e-08
0.000569082
4.62493e-08
0.00169697
5.46792e-08
-2.77603e-08
3.15198e-07
-1.95806e-09
-2.25792e-08
-1.63979e-08
0.00101689
7.10988e-07
-1.88407e-08
8.33784e-08
0.000525974
0.000228567
-1.45057e-08
-0.000609047
2.10393e-08
4.9426e-07
4.88178e-07
-2.03629e-08
2.32563e-07
-2.97501e-08
0.00653413
-1.77153e-07
3.46186e-07
-2.04489e-08
2.80702e-06
3.52734e-07
4.28355e-08
-4.89249e-05
3.74087e-06
-1.89444e-07
1.17991e-07
-1.73047e-05
-1.12944e-08
-1.26341e-07
3.22609e-07
-6.57748e-07
-0.000691805
0.000888034
-1.63591e-07
0.00234778
3.67079e-08
-1.56366e-08
-2.48089e-08
-0.000720637
-8.70823e-07
6.4239e-07
-2.59657e-06
-8.29781e-09
2.05725e-05
1.63114e-07
1.95094e-06
3.3387e-06
-0.000335846
0.00103725
0.000618999
-0.00060282
-2.71542e-08
1.2826e-08
-1.40535e-08
2.24323e-08
2.70762e-08
1.81943e-06
1.89363e-09
-1.61882e-08
-0.00146019
-2.06362e-08
-3.74054e-08
6.49954e-07
6.9279e-07
2.52862e-07
-2.18933e-08
0.000983063
8.82376e-08
7.62336e-07
-2.01972e-08
-0.000251619
-4.18243e-09
0.00887106
4.25652e-08
3.05361e-07
6.348e-08
-1.33657e-08
-0.000108201
5.98489e-07
2.78649e-07
-1.65954e-08
-5.20977e-08
0.000730153
-0.000283284
0.000574619
5.05865e-08
2.7155e-07
1.02359e-05
4.33884e-08
-4.06311e-08
-1.63592e-08
0.00296897
1.54784e-06
1.2887e-08
3.80003e-07
2.74359e-07
0.00408729
2.40561e-08
-3.66371e-07
3.35312e-07
3.14962e-07
4.12793e-08
3.31412e-07
9.78599e-08
-1.69315e-08
0.000925401
-0.000828903
0.000929065
0.0011279
-0.000718842
0.00118013
0.000697187
-6.82424e-09
9.12917e-08
0.0102185
-0.000316789
0.000881588
-1.95421e-08
4.44214e-07
-6.23346e-09
-2.25345e-08
7.21121e-06
0.000999526
5.81391e-07
-2.70771e-08
-3.86761e-07
6.42397e-07
3.69452e-07
0.000480818
0.000134967
-1.18203e-06
-5.23584e-08
0.00379815
1.93846e-05
5.49358e-06
4.82268e-07
4.11193e-07
-1.01698e-08
-3.04726e-08
2.7036e-07
2.82352e-07
1.51071e-08
5.85684e-07
2.57113e-07
-1.95475e-09
4.62496e-06
0.000778135
-2.22593e-08
6.45727e-07
0.00156678
3.73637e-06
-9.98653e-10
-4.99575e-06
-9.95941e-06
0.000282335
2.1389e-07
2.80568e-08
2.51013e-07
6.47201e-08
-1.42477e-08
-1.68552e-08
1.49098e-07
4.08375e-07
6.94348e-07
9.35665e-07
-8.30712e-09
1.23464e-08
0.000989538
0.000807665
0.00180295
8.3492e-06
1.3305e-06
5.0028e-08
-8.30788e-09
2.28736e-07
2.92517e-08
0.000934276
-1.09783e-08
3.5427e-09
-3.40411e-09
0.000743326
-0.00299286
-1.19202e-08
6.614e-07
5.16222e-08
-3.12092e-08
1.95631e-07
4.57227e-07
5.11766e-07
1.54032e-07
-0.000256973
2.20532e-07
-0.000234716
1.1981e-07
0.00149003
1.52292e-07
-5.27786e-08
-2.47741e-08
7.88688e-07
3.81828e-07
-3.53545e-08
-5.05045e-08
1.56776e-07
1.67178e-07
-0.000395511
0.000324034
0.000102235
3.74831e-09
6.75748e-05
-3.2489e-09
3.34035e-08
-1.66391e-08
2.42077e-07
-8.6732e-10
0.000313089
-7.07852e-05
6.10681e-09
-1.18536e-08
0.000940822
6.08389e-08
0.000468078
-0.000286754
4.32106e-06
1.29951e-09
6.97072e-07
0.0016658
4.7149e-06
0.00132352
2.33258e-07
-2.74235e-09
1.02338e-07
5.52283e-08
-0.00016502
3.60795e-09
1.40445e-07
-6.24097e-07
0.000340781
1.22528e-10
-1.99764e-08
-0.000580576
2.02486e-07
-3.69446e-05
-3.84938e-08
-1.38243e-08
2.81876e-07
3.20252e-06
7.82611e-08
1.56588e-05
4.57335e-08
-9.93431e-07
7.40597e-08
7.14838e-09
-2.06009e-08
5.26748e-07
-1.08756e-08
-6.62393e-08
-1.11339e-08
-6.98894e-09
2.60869e-06
3.02932e-07
1.64489e-08
-2.62723e-08
8.45602e-08
-1.52182e-06
6.58882e-07
2.99804e-07
-1.91012e-09
2.95326e-07
-2.10888e-08
1.38668e-06
2.21944e-07
4.14021e-07
2.94484e-06
3.8032e-07
3.48209e-07
-4.28703e-07
5.5991e-08
6.69793e-07
-0.00147269
0.000232293
5.70919e-08
9.89906e-05
0.000644964
-2.25644e-08
-9.68329e-09
3.08478e-06
0.000872007
-4.56975e-07
0.000878514
2.83284e-07
1.08705e-07
7.9904e-07
2.39645e-08
1.88833e-07
3.31593e-07
0.00681957
4.3369e-06
2.78075e-06
2.533e-06
0.0010996
0.00231056
1.97587e-07
0.000483477
-1.01218e-08
1.7676e-06
0.00158949
-1.65765e-08
-3.79762e-08
0.000207719
-9.97685e-09
-1.22037e-08
3.92252e-06
0.00131261
-3.44001e-07
2.81704e-07
0.00141955
-3.98448e-08
0.000388922
0.000548949
-1.47208e-08
2.99171e-06
0.000315998
-0.000252076
0.000654415
0.00068186
0.000265553
-3.03509e-08
-6.18753e-09
3.83657e-07
6.04786e-07
-1.21822e-08
3.95907e-06
-1.28094e-08
0.000815351
4.56312e-06
2.02905e-07
-2.35396e-06
0.000952915
3.67726e-06
2.00447e-06
5.31744e-07
-0.000264002
1.32921e-05
2.2881e-07
1.02413e-08
1.85562e-05
-3.32878e-08
1.1224e-08
0.0024014
-2.31698e-08
5.00469e-05
-1.21786e-08
0.000455097
2.63221e-07
-2.0157e-08
-0.00694343
-4.89869e-08
-3.42822e-09
0.000234785
-0.000204174
-0.000196995
3.46566e-07
7.5689e-07
-1.13246e-08
6.2941e-07
7.04089e-07
6.12687e-07
3.09962e-09
3.93472e-05
4.49923e-07
5.33851e-09
0.000583493
4.16552e-07
-4.6048e-08
1.27624e-06
4.51507e-07
6.83427e-07
-2.19474e-08
2.75387e-07
-2.49668e-08
1.10912e-06
8.01542e-06
0.00107156
-3.8145e-08
2.31886e-07
-0.000386211
1.35386e-07
2.55739e-07
4.55094e-07
2.66152e-07
0.0106113
4.89098e-07
-5.9934e-09
-0.0038179
-3.58502e-08
0.00101942
-1.78491e-08
8.06741e-08
1.09058e-06
0.000570568
3.28742e-08
-5.26272e-06
4.92002e-06
4.27953e-07
2.96948e-08
-1.73483e-06
2.60236e-07
-0.00140463
-4.23067e-08
0.000188087
8.06173e-07
4.41367e-07
2.18452e-07
-6.12022e-07
1.31063e-07
-1.27303e-06
5.18384e-07
-6.51269e-08
5.70736e-08
1.17344e-07
0.000275358
-1.93438e-08
1.54242e-07
1.66752e-08
8.35454e-07
1.86474e-07
5.71652e-07
0.000791558
-1.03499e-08
1.0457e-06
3.0349e-08
-1.5976e-08
-1.07731e-08
7.0141e-09
3.28054e-07
-3.30854e-08
7.98742e-07
0.000141644
6.11942e-07
4.99661e-07
2.37282e-07
-4.0083e-09
3.69398e-06
-2.01017e-08
2.45767e-05
-9.10763e-05
-0.00032236
1.15391e-06
6.0732e-08
3.31167e-07
-1.09676e-08
-1.31316e-08
-8.62814e-07
9.88129e-08
-0.000260024
6.49289e-07
-0.00016335
1.77037e-06
-1.14e-08
-3.67393e-08
0.000214661
-1.84511e-08
2.93369e-07
3.64968e-06
-2.3779e-06
1.69643e-07
0.00393008
1.06284e-09
4.2411e-08
-4.78046e-09
-1.36847e-08
-2.23971e-06
9.70804e-07
-4.7559e-09
4.84846e-07
-9.1712e-07
5.67746e-07
7.07766e-07
3.08833e-05
-3.72029e-06
2.39687e-06
1.97774e-06
3.39842e-07
1.57404e-08
7.44242e-07
0.000436311
0.00264488
0.000491597
4.14027e-07
0.00176704
1.24587e-06
7.22775e-08
-3.06437e-08