/*--------------------------------*- C++ -*----------------------------------*\
| =========                 |                                                 |
| \\      /  F ield         | OpenFOAM: The Open Source CFD Toolbox           |
|  \\    /   O peration     | Version:  v2012                                 |
|   \\  /    A nd           | Website:  www.openfoam.com                      |
|    \\/     M anipulation  |                                                 |
\*---------------------------------------------------------------------------*/
FoamFile
{
    version     2.0;
    format      ascii;
    class       pointVectorField;
    location    "950";
    object      pointDisplacement;
}
// * * * * * * * * * * * * * * * * * * * * * * * * * * * * * * * * * * * * * //

dimensions      [0 1 0 0 0 0 0];


internalField   nonuniform List<vector> 
14324
(
(0 0 0)
(0.0108271 0.0800862 0)
(0 0 0)
(0.0108271 0.0800862 0)
(0 0 0)
(0 0 0)
(0 0 0)
(0 0 0)
(0 0 0)
(0 0 0)
(0 0 0)
(0 0 0)
(0 0 0)
(0 0 0)
(0 0 0)
(0 0 0)
(0 0 0)
(0 0 0)
(0 0 0)
(0 0 0)
(0 0 0)
(0 0 0)
(0 0 0)
(0 0 0)
(0 0 0)
(0 0 0)
(0 0 0)
(0 0 0)
(0 0 0)
(0 0 0)
(0 0 0)
(0 0 0)
(0 0 0)
(0 0 0)
(0 0 0)
(0 0 0)
(0 0 0)
(0 0 0)
(0 0 0)
(0 0 0)
(0 0 0)
(0 0 0)
(0 0 0)
(0 0 0)
(0 0 0)
(0 0 0)
(0 0 0)
(0 0 0)
(0 0 0)
(0 0 0)
(0 0 0)
(0 0 0)
(0 0 0)
(0 0 0)
(0 0 0)
(0 0 0)
(0 0 0)
(0 0 0)
(0 0 0)
(0 0 0)
(0 0 0)
(0 0 0)
(0 0 0)
(0 0 0)
(0 0 0)
(0 0 0)
(0 0 0)
(0 0 0)
(0 0 0)
(0 0 0)
(0 0 0)
(0 0 0)
(0 0 0)
(0 0 0)
(0 0 0)
(0 0 0)
(0.0094908 -0.0532241 0)
(0.00950085 -0.0522218 0)
(0.0095109 -0.0512195 0)
(0.00952095 -0.0502171 0)
(0.00953099 -0.0492148 0)
(0.00954104 -0.0482125 0)
(0.00955109 -0.0472101 0)
(0.00956114 -0.0462078 0)
(0.00957118 -0.0452055 0)
(0.00958123 -0.0442031 0)
(0.00959128 -0.0432008 0)
(0.00960133 -0.0421985 0)
(0.00961137 -0.0411961 0)
(0.00962142 -0.0401938 0)
(0.00963147 -0.0391915 0)
(0.00964152 -0.0381891 0)
(0.00965157 -0.0371868 0)
(0.00966161 -0.0361845 0)
(0.00967166 -0.0351821 0)
(0.00968171 -0.0341798 0)
(0.00969176 -0.0331775 0)
(0.0097018 -0.0321751 0)
(0.00971185 -0.0311728 0)
(0.0097219 -0.0301705 0)
(0.00973195 -0.0291681 0)
(0.009742 -0.0281658 0)
(0.00975204 -0.0271635 0)
(0.00976209 -0.0261611 0)
(0.00977214 -0.0251588 0)
(0.00978219 -0.0241565 0)
(0.00979223 -0.0231541 0)
(0.00980228 -0.0221518 0)
(0.00981233 -0.0211495 0)
(0.00982238 -0.0201471 0)
(0.00983242 -0.0191448 0)
(0.00984247 -0.0181425 0)
(0.00985252 -0.0171401 0)
(0.00986257 -0.0161378 0)
(0.00987262 -0.0151355 0)
(0.00988266 -0.0141331 0)
(0.00989271 -0.0131308 0)
(0.00990276 -0.0121285 0)
(0.00991281 -0.0111261 0)
(0.00992285 -0.0101238 0)
(0.0099329 -0.00912148 0)
(0.00994295 -0.00811914 0)
(0.009953 -0.00711681 0)
(0.00996305 -0.00611448 0)
(0.00997309 -0.00511214 0)
(0.00998314 -0.00410981 0)
(0.00999319 -0.00310748 0)
(0.0100032 -0.00210514 0)
(0.0100133 -0.00110281 0)
(0.0100233 -0.000100477 0)
(0.0100334 0.000901856 0)
(0.0100434 0.00190419 0)
(0.0100535 0.00290652 0)
(0.0100635 0.00390886 0)
(0.0100736 0.00491119 0)
(0.0100836 0.00591352 0)
(0.0100937 0.00691585 0)
(0.0101037 0.00791819 0)
(0.0101138 0.00892052 0)
(0.0101238 0.00992285 0)
(0.0101339 0.0109252 0)
(0.0101439 0.0119275 0)
(0.010154 0.0129299 0)
(0.010164 0.0139322 0)
(0.010174 0.0149345 0)
(0.0101841 0.0159369 0)
(0.0101941 0.0169392 0)
(0.0102042 0.0179415 0)
(0.0102142 0.0189439 0)
(0.0102243 0.0199462 0)
(0.0102343 0.0209485 0)
(0.0102444 0.0219509 0)
(0.0102544 0.0229532 0)
(0.0102645 0.0239555 0)
(0.0102745 0.0249579 0)
(0.0102846 0.0259602 0)
(0.0102946 0.0269625 0)
(0.0103047 0.0279649 0)
(0.0103147 0.0289672 0)
(0.0103248 0.0299695 0)
(0.0103348 0.0309719 0)
(0.0103449 0.0319742 0)
(0.0103549 0.0329765 0)
(0.010365 0.0339788 0)
(0.010375 0.0349812 0)
(0.010385 0.0359835 0)
(0.0103951 0.0369858 0)
(0.0104051 0.0379882 0)
(0.0104152 0.0389905 0)
(0.0104252 0.0399928 0)
(0.0104353 0.0409952 0)
(0.0104453 0.0419975 0)
(0.0104554 0.0429998 0)
(0.0104654 0.0440022 0)
(0.0104755 0.0450045 0)
(0.0104855 0.0460068 0)
(0.0104956 0.0470092 0)
(0.0105056 0.0480115 0)
(0.0105157 0.0490138 0)
(0.0105257 0.0500162 0)
(0.0105358 0.0510185 0)
(0.0105458 0.0520208 0)
(0.0105559 0.0530232 0)
(0.0105659 0.0540255 0)
(0.010576 0.0550278 0)
(0.010586 0.0560302 0)
(0.0105961 0.0570325 0)
(0.0106061 0.0580348 0)
(0.0106161 0.0590372 0)
(0.0106262 0.0600395 0)
(0.0106362 0.0610418 0)
(0.0106463 0.0620442 0)
(0.0106563 0.0630465 0)
(0.0106664 0.0640488 0)
(0.0106764 0.0650512 0)
(0.0106865 0.0660535 0)
(0.0106965 0.0670558 0)
(0.0107066 0.0680582 0)
(0.0107166 0.0690605 0)
(0.0107267 0.0700628 0)
(0.0107367 0.0710652 0)
(0.0107468 0.0720675 0)
(0.0107568 0.0730698 0)
(0.0107669 0.0740722 0)
(0.0107769 0.0750745 0)
(0.010787 0.0760768 0)
(0.010797 0.0770792 0)
(0.0108071 0.0780815 0)
(0.0108171 0.0790838 0)
(0.00982482 0.0800962 0)
(0.00882248 0.0801063 0)
(0.00782015 0.0801163 0)
(0.00681782 0.0801264 0)
(0.00581548 0.0801364 0)
(0.00481315 0.0801465 0)
(0.00381082 0.0801565 0)
(0.00280848 0.0801666 0)
(0.00180615 0.0801766 0)
(0.000803818 0.0801867 0)
(-0.000198515 0.0801967 0)
(-0.00120085 0.0802067 0)
(-0.00220318 0.0802168 0)
(-0.00320551 0.0802268 0)
(-0.00420785 0.0802369 0)
(-0.00521018 0.0802469 0)
(-0.00621251 0.080257 0)
(-0.00721485 0.080267 0)
(0 0 0)
(0 0 0)
(0 0 0)
(0 0 0)
(0 0 0)
(0 0 0)
(0 0 0)
(0 0 0)
(0 0 0)
(0 0 0)
(0 0 0)
(0 0 0)
(0 0 0)
(0 0 0)
(0 0 0)
(0 0 0)
(0 0 0)
(0 0 0)
(0 0 0)
(0 0 0)
(0 0 0)
(0 0 0)
(0 0 0)
(0 0 0)
(0 0 0)
(0 0 0)
(0 0 0)
(0 0 0)
(0 0 0)
(0 0 0)
(0 0 0)
(0 0 0)
(0 0 0)
(0 0 0)
(0 0 0)
(0 0 0)
(0 0 0)
(0 0 0)
(0 0 0)
(0 0 0)
(0 0 0)
(0 0 0)
(0 0 0)
(0 0 0)
(0 0 0)
(0 0 0)
(0 0 0)
(0 0 0)
(0 0 0)
(0 0 0)
(0 0 0)
(0 0 0)
(0 0 0)
(0 0 0)
(0 0 0)
(0 0 0)
(0 0 0)
(0 0 0)
(0 0 0)
(0 0 0)
(0 0 0)
(0 0 0)
(0 0 0)
(0 0 0)
(0 0 0)
(0 0 0)
(0 0 0)
(0 0 0)
(0 0 0)
(0 0 0)
(0 0 0)
(0 0 0)
(0.0094908 -0.0532241 0)
(0.00950085 -0.0522218 0)
(0.0095109 -0.0512195 0)
(0.00952095 -0.0502171 0)
(0.00953099 -0.0492148 0)
(0.00954104 -0.0482125 0)
(0.00955109 -0.0472101 0)
(0.00956114 -0.0462078 0)
(0.00957118 -0.0452055 0)
(0.00958123 -0.0442031 0)
(0.00959128 -0.0432008 0)
(0.00960133 -0.0421985 0)
(0.00961137 -0.0411961 0)
(0.00962142 -0.0401938 0)
(0.00963147 -0.0391915 0)
(0.00964152 -0.0381891 0)
(0.00965157 -0.0371868 0)
(0.00966161 -0.0361845 0)
(0.00967166 -0.0351821 0)
(0.00968171 -0.0341798 0)
(0.00969176 -0.0331775 0)
(0.0097018 -0.0321751 0)
(0.00971185 -0.0311728 0)
(0.0097219 -0.0301705 0)
(0.00973195 -0.0291681 0)
(0.009742 -0.0281658 0)
(0.00975204 -0.0271635 0)
(0.00976209 -0.0261611 0)
(0.00977214 -0.0251588 0)
(0.00978219 -0.0241565 0)
(0.00979223 -0.0231541 0)
(0.00980228 -0.0221518 0)
(0.00981233 -0.0211495 0)
(0.00982238 -0.0201471 0)
(0.00983242 -0.0191448 0)
(0.00984247 -0.0181425 0)
(0.00985252 -0.0171401 0)
(0.00986257 -0.0161378 0)
(0.00987262 -0.0151355 0)
(0.00988266 -0.0141331 0)
(0.00989271 -0.0131308 0)
(0.00990276 -0.0121285 0)
(0.00991281 -0.0111261 0)
(0.00992285 -0.0101238 0)
(0.0099329 -0.00912148 0)
(0.00994295 -0.00811914 0)
(0.009953 -0.00711681 0)
(0.00996305 -0.00611448 0)
(0.00997309 -0.00511214 0)
(0.00998314 -0.00410981 0)
(0.00999319 -0.00310748 0)
(0.0100032 -0.00210514 0)
(0.0100133 -0.00110281 0)
(0.0100233 -0.000100477 0)
(0.0100334 0.000901856 0)
(0.0100434 0.00190419 0)
(0.0100535 0.00290652 0)
(0.0100635 0.00390886 0)
(0.0100736 0.00491119 0)
(0.0100836 0.00591352 0)
(0.0100937 0.00691585 0)
(0.0101037 0.00791819 0)
(0.0101138 0.00892052 0)
(0.0101238 0.00992285 0)
(0.0101339 0.0109252 0)
(0.0101439 0.0119275 0)
(0.010154 0.0129299 0)
(0.010164 0.0139322 0)
(0.010174 0.0149345 0)
(0.0101841 0.0159369 0)
(0.0101941 0.0169392 0)
(0.0102042 0.0179415 0)
(0.0102142 0.0189439 0)
(0.0102243 0.0199462 0)
(0.0102343 0.0209485 0)
(0.0102444 0.0219509 0)
(0.0102544 0.0229532 0)
(0.0102645 0.0239555 0)
(0.0102745 0.0249579 0)
(0.0102846 0.0259602 0)
(0.0102946 0.0269625 0)
(0.0103047 0.0279649 0)
(0.0103147 0.0289672 0)
(0.0103248 0.0299695 0)
(0.0103348 0.0309719 0)
(0.0103449 0.0319742 0)
(0.0103549 0.0329765 0)
(0.010365 0.0339788 0)
(0.010375 0.0349812 0)
(0.010385 0.0359835 0)
(0.0103951 0.0369858 0)
(0.0104051 0.0379882 0)
(0.0104152 0.0389905 0)
(0.0104252 0.0399928 0)
(0.0104353 0.0409952 0)
(0.0104453 0.0419975 0)
(0.0104554 0.0429998 0)
(0.0104654 0.0440022 0)
(0.0104755 0.0450045 0)
(0.0104855 0.0460068 0)
(0.0104956 0.0470092 0)
(0.0105056 0.0480115 0)
(0.0105157 0.0490138 0)
(0.0105257 0.0500162 0)
(0.0105358 0.0510185 0)
(0.0105458 0.0520208 0)
(0.0105559 0.0530232 0)
(0.0105659 0.0540255 0)
(0.010576 0.0550278 0)
(0.010586 0.0560302 0)
(0.0105961 0.0570325 0)
(0.0106061 0.0580348 0)
(0.0106161 0.0590372 0)
(0.0106262 0.0600395 0)
(0.0106362 0.0610418 0)
(0.0106463 0.0620442 0)
(0.0106563 0.0630465 0)
(0.0106664 0.0640488 0)
(0.0106764 0.0650512 0)
(0.0106865 0.0660535 0)
(0.0106965 0.0670558 0)
(0.0107066 0.0680582 0)
(0.0107166 0.0690605 0)
(0.0107267 0.0700628 0)
(0.0107367 0.0710652 0)
(0.0107468 0.0720675 0)
(0.0107568 0.0730698 0)
(0.0107669 0.0740722 0)
(0.0107769 0.0750745 0)
(0.010787 0.0760768 0)
(0.010797 0.0770792 0)
(0.0108071 0.0780815 0)
(0.0108171 0.0790838 0)
(0.00982482 0.0800962 0)
(0.00882248 0.0801063 0)
(0.00782015 0.0801163 0)
(0.00681782 0.0801264 0)
(0.00581548 0.0801364 0)
(0.00481315 0.0801465 0)
(0.00381082 0.0801565 0)
(0.00280848 0.0801666 0)
(0.00180615 0.0801766 0)
(0.000803818 0.0801867 0)
(-0.000198515 0.0801967 0)
(-0.00120085 0.0802067 0)
(-0.00220318 0.0802168 0)
(-0.00320551 0.0802268 0)
(-0.00420785 0.0802369 0)
(-0.00521018 0.0802469 0)
(-0.00621251 0.080257 0)
(-0.00721485 0.080267 0)
(0.00966665 -0.0356567 0)
(0.00984756 -0.0176245 0)
(0.0100269 0.000297674 0)
(0.0102095 0.0184513 0)
(0.0103905 0.0365876 0)
(0.0105706 0.054522 0)
(0.0107519 0.0726641 0)
(0.0102999 0.0275286 0)
(0.00957622 -0.0446804 0)
(0.0101192 0.00949085 0)
(0.00975765 -0.0266012 0)
(0.0106616 0.0636023 0)
(0.00993785 -0.00861039 0)
(0.0104804 0.0454973 0)
(0.000164084 0.0801878 0)
(0.00824971 0.0801014 0)
(-0.00684196 0.0802505 0)
(0.000398181 0.00222288 0)
(0.000291631 0.00389246 0)
(0.000478376 0.00172279 0)
(0.000495989 0.000439209 0)
(0.000225709 0.00451145 0)
(0.000142674 0.00508367 0)
(0.0107968 0.0775158 0)
(0.000277245 0.00191877 0)
(0.000245459 0.00265309 0)
(4.7028e-05 0.0053171 0)
(0.000484015 -0.000423228 0)
(0.000198947 0.00192122 0)
(0.0106214 0.0596226 0)
(0.00989765 -0.0126593 0)
(0.0105207 0.0495209 0)
(0.00971488 -0.0308002 0)
(0.0102489 0.0224292 0)
(0.010351 0.032629 0)
(0.0101584 0.013371 0)
(0.00961639 -0.040672 0)
(0.0100692 0.00448953 0)
(0.00980565 -0.0217574 0)
(0.0107119 0.0685825 0)
(0.00953563 -0.048755 0)
(0.00998642 -0.0037122 0)
(0.010431 0.0405527 0)
(0.00431729 0.0801526 0)
(0.000216326 0.0016792 0)
(0.000271178 0.00426412 0)
(0.000431894 0.00200347 0)
(0.000477712 0.00100752 0)
(0.000139195 0.00124987 0)
(0.000159498 0.00131455 0)
(-0.00372733 0.0802286 0)
(7.97087e-05 0.000680469 0)
(0.000200583 0.00482928 0)
(9.58505e-05 0.00516258 0)
(0.00025796 0.00312234 0)
(0.000503935 0.00144422 0)
(0.000457569 -2.46375e-06 0)
(0.000559307 -0.00102092 0)
(0.00028105 0.00172736 0)
(0.00031201 0.00230103 0)
(0.00022383 0.00227501 0)
(0.000175628 0.00162715 0)
(8.89497e-05 0.000781063 0)
(3.29719e-05 0.00028482 0)
(0.00787733 -0.0306742 0)
(0.00782984 -0.0290298 0)
(0.00795848 -0.0281187 0)
(0.00790657 -0.0265043 0)
(0.00804984 -0.025374 0)
(0.00796885 -0.023586 0)
(0.00810998 -0.0223038 0)
(0.00804928 -0.0206438 0)
(0.00817315 -0.0193819 0)
(0.00810322 -0.0178604 0)
(0.00822373 -0.0165243 0)
(0.00815499 -0.0151247 0)
(0.00826697 -0.0136874 0)
(0.00819618 -0.0124027 0)
(0.0083057 -0.0107281 0)
(0.00822602 -0.00959732 0)
(0.00833599 -0.00776375 0)
(0.00825398 -0.00671144 0)
(0.00835633 -0.00483738 0)
(0.00826683 -0.00384051 0)
(0.00836944 -0.00192361 0)
(0.00827231 -0.000997091 0)
(0.00837184 0.000969306 0)
(0.00827694 0.00180321 0)
(0.00836465 0.00381484 0)
(0.00826742 0.00450516 0)
(0.0083518 0.00658627 0)
(0.00825058 0.00716785 0)
(0.00833072 0.00926284 0)
(0.00822739 0.00973263 0)
(0.00830007 0.0119125 0)
(0.00819088 0.0122208 0)
(0.00825652 0.0144619 0)
(0.008147 0.0146844 0)
(0.00820632 0.0168648 0)
(0.00809659 0.0170772 0)
(0.00815351 0.01926 0)
(0.00803614 0.0193913 0)
(0.00809261 0.0217233 0)
(0.00796845 0.0216646 0)
(0.00801938 0.0240342 0)
(0.00789687 0.0238296 0)
(0.00793907 0.0260884 0)
(0.00798351 -0.0190224 0)
(0.00815759 -0.00289897 0)
(0.00808265 0.0124733 0)
(0.00781439 0.0257709 0)
(0.00785011 0.0279804 0)
(0.00772383 0.0276137 0)
(0.00775303 0.0297913 0)
(0.00768214 0.0253491 0)
(0.00762701 0.029356 0)
(0.00764813 0.0315038 0)
(0.00751956 0.0308994 0)
(0.00753526 0.0330802 0)
(0.00740489 0.0323169 0)
(0.00741369 0.0345424 0)
(0.00728113 0.0336823 0)
(0.00728332 0.0359165 0)
(0.00822597 0.0215727 0)
(0.00843516 0.00877298 0)
(0.00777915 0.032091 0)
(0.00714817 0.0350116 0)
(0.0071452 0.0371502 0)
(0.00700921 0.0361922 0)
(0.00700104 0.038213 0)
(0.00713425 0.039218 0)
(0.00698303 0.0401874 0)
(0.00711242 0.0412381 0)
(0.00695366 0.0421523 0)
(0.00682703 0.0410149 0)
(0.00678891 0.0429009 0)
(0.00666774 0.0417407 0)
(0.00662285 0.0435201 0)
(0.00673033 0.044713 0)
(0.00656519 0.0452221 0)
(0.00666585 0.0464552 0)
(0.00645922 0.0441206 0)
(0.0084372 -0.00591702 0)
(0.00649625 0.0468586 0)
(0.00658771 0.0481263 0)
(0.00641558 0.0484205 0)
(0.00650088 0.0496868 0)
(0.00632389 0.0498974 0)
(0.00640717 0.0512288 0)
(0.00621771 0.0512971 0)
(0.00628858 0.0526368 0)
(0.00824601 -0.0209256 0)
(0.00609346 0.0525948 0)
(0.00615452 0.0539202 0)
(0.00595375 0.05378 0)
(0.00590476 0.0523528 0)
(0.00600512 0.0551163 0)
(0.00580035 0.0548851 0)
(0.00584168 0.0562479 0)
(0.00648972 0.0525603 0)
(0.00563327 0.0559013 0)
(0.00565915 0.0572575 0)
(0.00545189 0.056801 0)
(0.00546099 0.0581137 0)
(0.00525559 0.0575881 0)
(0.00524858 0.058909 0)
(0.00714592 0.0327525 0)
(0.00504964 0.0582927 0)
(0.00501639 0.0595955 0)
(0.00504266 0.0570516 0)
(0.00483114 0.0588507 0)
(0.0047721 0.0601362 0)
(0.0045893 0.0593043 0)
(0.00566885 0.0585686 0)
(0.00451587 0.0605814 0)
(0.00432935 0.0597127 0)
(0.00470438 0.0613882 0)
(0.0044305 0.0618005 0)
(0.00462673 0.0625931 0)
(0.00433843 0.062971 0)
(0.00452673 0.0637534 0)
(0.00424273 0.0640531 0)
(0.00439499 0.0648122 0)
(0.00411108 0.0650359 0)
(0.00425821 0.0657985 0)
(0.00395082 0.0659794 0)
(0.00380617 0.0650712 0)
(0.00411179 0.0667662 0)
(0.00377712 0.066882 0)
(0.00392844 0.0676603 0)
(0.00358568 0.0676959 0)
(0.00373153 0.0684645 0)
(0.00408266 0.0684035 0)
(0.00388045 0.0691928 0)
(0.00424367 0.0691014 0)
(0.00351869 0.0692046 0)
(0.00365302 0.0699158 0)
(0.00328038 0.0698872 0)
(0.0034003 0.0705731 0)
(0.00301307 0.0704961 0)
(0.00311476 0.0711672 0)
(0.00271458 0.0710371 0)
(0.00280002 0.0717016 0)
(0.00238722 0.0715233 0)
(0.00232884 0.0708397 0)
(0.00198652 0.0712749 0)
(0.00321662 0.0718177 0)
(0.00202855 0.0719542 0)
(0.00161672 0.0716654 0)
(0.00163102 0.0723313 0)
(0.00122082 0.07199 0)
(0.00118115 0.0726245 0)
(0.000738031 0.0721663 0)
(0.000705762 0.0728487 0)
(0.000319034 0.0724658 0)
(0.000229031 0.0730348 0)
(-0.00010974 0.0726217 0)
(-0.000257761 0.0731457 0)
(0.00197 0.0705697 0)
(0.000603942 0.0734465 0)
(-4.44409e-05 0.0721127 0)
(0.00921812 -0.0495788 0)
(0.00921271 -0.0481555 0)
(0.00926816 -0.0476131 0)
(0.00926322 -0.0461946 0)
(0.00931478 -0.0456248 0)
(0.00930972 -0.0442196 0)
(0.00935913 -0.0435714 0)
(0.00935373 -0.042188 0)
(0.00939928 -0.0414922 0)
(0.00939498 -0.0401353 0)
(0.0094354 -0.039501 0)
(0.00943303 -0.0381127 0)
(0.0093928 -0.0386586 0)
(0.00942994 -0.0367223 0)
(0.00914926 -0.0486757 0)
(0.0094698 -0.0360492 0)
(0.00946734 -0.0347064 0)
(0.00950596 -0.0339234 0)
(0.00950328 -0.0326305 0)
(0.00953966 -0.0318146 0)
(0.00953658 -0.0304979 0)
(0.00957153 -0.0297045 0)
(0.00956951 -0.0283502 0)
(0.00960218 -0.0275912 0)
(0.00960092 -0.0262386 0)
(0.00963196 -0.0254657 0)
(0.00963112 -0.0241729 0)
(0.00966077 -0.0233369 0)
(0.00965913 -0.0221151 0)
(0.00968813 -0.0212295 0)
(0.00968574 -0.020012 0)
(0.00971414 -0.0191403 0)
(0.00971233 -0.0178815 0)
(0.00973895 -0.0170765 0)
(0.00973788 -0.015781 0)
(0.00976296 -0.0150505 0)
(0.00976297 -0.0136809 0)
(0.00973467 -0.0145758 0)
(0.00976047 -0.0124653 0)
(0.00960398 -0.0246731 0)
(0.00942407 -0.0353032 0)
(0.00978879 -0.0115221 0)
(0.00978626 -0.0102878 0)
(0.00981422 -0.00930933 0)
(0.00981084 -0.00809972 0)
(0.00983855 -0.00708904 0)
(0.00983485 -0.00590604 0)
(0.00986211 -0.00487417 0)
(0.00985839 -0.00372709 0)
(0.00988515 -0.00268182 0)
(0.00988158 -0.00154979 0)
(0.00990763 -0.000535735 0)
(0.00990379 0.000619696 0)
(0.0099293 0.0016084 0)
(0.00992466 0.00275124 0)
(0.00994986 0.00370969 0)
(0.00994451 0.00484622 0)
(0.00996945 0.00577436 0)
(0.00996462 0.00697435 0)
(0.00993671 0.00591455 0)
(0.00995705 0.00812372 0)
(0.00983045 -0.0047291 0)
(0.00998876 0.00928108 0)
(0.00997699 0.0103579 0)
(0.0100052 0.0115097 0)
(0.00999538 0.0125827 0)
(0.010023 0.0136301 0)
(0.0100127 0.0147379 0)
(0.0100408 0.0157813 0)
(0.0100296 0.0168498 0)
(0.0100584 0.0179445 0)
(0.010045 0.0189724 0)
(0.0100742 0.0201329 0)
(0.0100585 0.0211072 0)
(0.0100883 0.0223113 0)
(0.0100719 0.0232676 0)
(0.0101021 0.0244748 0)
(0.010084 0.0254326 0)
(0.0101145 0.0266174 0)
(0.0100947 0.0276019 0)
(0.0100621 0.0263665 0)
(0.0100708 0.0285932 0)
(0.0100012 0.0159975 0)
(0.0101044 0.0298301 0)
(0.010078 0.030835 0)
(0.0101123 0.0320741 0)
(0.0100837 0.0330144 0)
(0.010118 0.0343081 0)
(0.0100861 0.0351708 0)
(0.0100475 0.0319193 0)
(0.010121 0.0365248 0)
(0.0100846 0.0373159 0)
(0.0101212 0.0387203 0)
(0.0100807 0.0394973 0)
(0.0101178 0.0409023 0)
(0.010073 0.041668 0)
(0.0101106 0.0430583 0)
(0.010061 0.0438028 0)
(0.0100223 0.0423661 0)
(0.0100053 0.0444851 0)
(0.0100443 0.0459404 0)
(0.00998348 0.0465854 0)
(0.0100217 0.0480654 0)
(0.00995454 0.0486374 0)
(0.00999219 0.0501305 0)
(0.0099175 0.0506386 0)
(0.00988307 0.0490557 0)
(0.00983534 0.0509715 0)
(0.00987193 0.0525959 0)
(0.00978088 0.0529256 0)
(0.00981625 0.0544952 0)
(0.00971907 0.0547859 0)
(0.00975329 0.0563575 0)
(0.00964832 0.0565863 0)
(0.00967954 0.0581437 0)
(0.00974165 0.0512125 0)
(0.00956655 0.0582781 0)
(0.0095921 0.0597978 0)
(0.00947684 0.0598313 0)
(0.00949358 0.0613542 0)
(0.00937212 0.061251 0)
(0.00937735 0.0627702 0)
(0.00936676 0.0598072 0)
(0.00925119 0.0625465 0)
(0.00924601 0.064008 0)
(0.00911686 0.0637105 0)
(0.00910291 0.0651477 0)
(0.00896798 0.0647628 0)
(0.0100682 0.0167564 0)
(0.0101309 0.0256453 0)
(0.00894167 0.066183 0)
(0.00880187 0.065708 0)
(0.00995174 0.00246441 0)
(0.00986689 -0.00597039 0)
(0.0101559 0.0378493 0)
(0.00973002 -0.0134421 0)
(0.00992711 0.0069708 0)
(0.00978968 0.05795 0)
(0.00973823 -0.0184347 0)
(0.0096334 -0.0267558 0)
(0.00876069 0.0670719 0)
(0.00861959 0.0665302 0)
(0.00866592 0.0651725 0)
(0.00848054 0.0659685 0)
(0.00853212 0.0646128 0)
(0.00937004 0.0642792 0)
(0.00943545 -0.0407346 0)
(0.00856468 0.0678217 0)
(0.00927302 -0.0490218 0)
(0.0087104 0.0683752 0)
(0.00834049 0.0653986 0)
(0.00840012 0.0640273 0)
(0.00849442 0.069038 0)
(0.0086409 0.0696153 0)
(0.00840732 0.0701662 0)
(0.00517215 -0.0131901 0)
(0.00855139 0.0707572 0)
(0.00830212 0.0712038 0)
(0.00844516 0.0718048 0)
(0.00820593 0.0647629 0)
(0.00827175 0.0634003 0)
(0.00497832 -0.0119363 0)
(0.00518499 -0.0111924 0)
(0.00817601 0.0721575 0)
(0.00831138 0.0727652 0)
(0.00859172 0.0723932 0)
(0.00498355 -0.010035 0)
(0.005191 -0.00919585 0)
(0.00538801 -0.0103103 0)
(0.00539241 -0.008226 0)
(0.00518839 -0.0072165 0)
(0.00538803 -0.0061622 0)
(0.00517708 -0.00526749 0)
(0.00537368 -0.00410919 0)
(0.0051557 -0.00334733 0)
(0.00534914 -0.00207641 0)
(0.0051236 -0.00145145 0)
(0.00531491 -8.02022e-05 0)
(0.00804501 0.0715684 0)
(0.00802218 0.0730228 0)
(0.00815226 0.0736256 0)
(0.00783571 0.073786 0)
(0.00795569 0.0743856 0)
(0.00558437 -0.00929809 0)
(0.00761553 0.0744603 0)
(0.00771475 0.0750393 0)
(0.00508211 0.000424522 0)
(0.0052705 0.00185463 0)
(0.00735525 0.075053 0)
(0.0074316 0.0756142 0)
(0.00704809 0.0755611 0)
(0.00708504 0.076097 0)
(0.00700657 0.0750286 0)
(0.00553338 -0.000706268 0)
(0.00503093 0.00223502 0)
(0.00521708 0.0037208 0)
(0.00808298 0.0640712 0)
(0.00814519 0.0627407 0)
(0.00668507 0.0759801 0)
(0.00669285 0.0764709 0)
(0.000188786 0.0507035 0)
(0.000297309 0.0523343 0)
(0.000407739 0.0507957 0)
(0.000525423 0.052332 0)
(0.000623169 0.0508516 0)
(0.000752131 0.0523336 0)
(0.000835211 0.0508095 0)
(0.00497046 0.00396842 0)
(0.00515398 0.00551192 0)
(0.00490101 0.00563499 0)
(0.00508143 0.00721136 0)
(0.0053252 0.00715891 0)
(0.00524921 0.00887396 0)
(0.00500138 0.00880989 0)
(0.00516589 0.0104785 0)
(0.00491371 0.0103046 0)
(0.00507494 0.011966 0)
(0.0048182 0.011694 0)
(0.00497932 0.0133672 0)
(0.000986178 0.0523297 0)
(0.00104942 0.0506516 0)
(0.00471701 0.0129664 0)
(0.00487101 0.0146604 0)
(0.00807259 0.0749741 0)
(0.00626885 0.0763332 0)
(0.00625216 0.0768445 0)
(0.00460665 0.014086 0)
(0.00475075 0.015786 0)
(0.00795597 0.0634381 0)
(0.00801811 0.0620863 0)
(0.00820015 0.0612688 0)
(0.00807384 0.0606475 0)
(0.00823692 0.0597389 0)
(0.00811853 0.0591294 0)
(0.00827361 0.058166 0)
(0.00815432 0.0575479 0)
(0.00831453 0.0564593 0)
(0.00122087 0.052154 0)
(0.00126482 0.050425 0)
(0.000876019 0.049137 0)
(0.00448669 0.0150556 0)
(0.00462734 0.0167561 0)
(0.00539982 0.0105617 0)
(0.00488221 0.0175709 0)
(0.00475506 0.0185137 0)
(0.00449992 0.0176021 0)
(0.00462303 0.0193284 0)
(0.00436783 0.0183235 0)
(0.00448593 0.0200105 0)
(0.00473087 0.0210591 0)
(0.00458999 0.0217062 0)
(0.00434403 0.0205691 0)
(0.00444517 0.0222487 0)
(0.00419705 0.021002 0)
(0.00429128 0.0226482 0)
(0.00404624 0.0213199 0)
(0.00413434 0.0229074 0)
(0.00435892 0.024277 0)
(0.00420538 0.0244848 0)
(0.00397701 0.0230553 0)
(0.00404663 0.0245706 0)
(0.00425949 0.0260047 0)
(0.00410248 0.0260397 0)
(0.00428579 0.0272058 0)
(0.00418136 0.0276991 0)
(0.00393583 0.025945 0)
(0.00396924 0.0273367 0)
(0.00418086 0.0291143 0)
(0.00398106 0.0286405 0)
(0.00378071 0.0269405 0)
(0.00379327 0.0281743 0)
(0.00398444 0.0299244 0)
(0.00379117 0.0293414 0)
(0.00396708 0.0310789 0)
(0.00377169 0.0304058 0)
(0.00360566 0.0286807 0)
(0.00393249 0.0321272 0)
(0.00373792 0.031384 0)
(0.00388569 0.0331108 0)
(0.00368578 0.0322509 0)
(0.00382476 0.0340111 0)
(0.00362188 0.0330522 0)
(0.00375017 0.034811 0)
(0.00354974 0.0337738 0)
(0.00366214 0.035498 0)
(0.00341592 0.0320538 0)
(0.00346443 0.0343751 0)
(0.00356254 0.0360809 0)
(0.00336989 0.034882 0)
(0.00345405 0.0365861 0)
(0.00325678 0.0351855 0)
(0.00332982 0.0369395 0)
(0.00312739 0.0353456 0)
(0.00319281 0.0371322 0)
(0.00305285 0.0334277 0)
(0.00818195 0.0559169 0)
(0.0083367 0.0546766 0)
(0.00578523 0.0766212 0)
(0.00565513 0.0770659 0)
(0.00144628 0.0518825 0)
(0.00147263 0.0500939 0)
(0.00116499 0.0538319 0)
(0.00402564 0.0348343 0)
(0.00165971 0.0515072 0)
(0.00167068 0.0496717 0)
(0.00186352 0.0510547 0)
(0.00186061 0.0491839 0)
(0.00167024 0.0477419 0)
(0.00184662 0.0472073 0)
(0.00204692 0.0486622 0)
(0.00202306 0.0466485 0)
(0.00782581 0.0628061 0)
(0.00774602 0.0642437 0)
(0.00299193 0.0354373 0)
(0.00364697 0.0377494 0)
(0.00492637 -0.00275997 0)
(0.00523407 0.0768344 0)
(0.00504263 0.0772537 0)
(0.00222579 0.0481073 0)
(0.00820233 0.0542146 0)
(0.00834626 0.0528873 0)
(0.0018204 0.0451101 0)
(0.00198624 0.0445416 0)
(0.00550579 0.0775002 0)
(0.0047832 0.0776282 0)
(0.00438128 0.0773856 0)
(0.00405096 0.0777359 0)
(0.00447129 0.0779996 0)
(0.00364149 0.0780533 0)
(0.00329002 0.0778065 0)
(0.00282079 0.078088 0)
(0.00316872 0.0783487 0)
(0.00226814 0.0783294 0)
(0.00197402 0.0780756 0)
(0.00139496 0.0782988 0)
(0.00167219 0.0785757 0)
(0.000668666 0.0784907 0)
(0.000589217 0.0782061 0)
(-0.000195295 0.0783658 0)
(0.00708356 0.0766074 0)
(-0.000144075 0.0786516 0)
(-0.00100235 0.0784989 0)
(-0.000974816 0.0781977 0)
(-0.0017674 0.0782972 0)
(-0.00167821 0.0779779 0)
(-0.00243544 0.0780423 0)
(-0.00257572 0.0783658 0)
(0.00538276 0.0763926 0)
(0.00762058 0.0634035 0)
(0.00802744 0.0570272 0)
(0.00751481 0.0646658 0)
(0.0082158 0.0524446 0)
(0.00835077 0.051063 0)
(0.00848152 0.0514078 0)
(0.008477 0.049534 0)
(0.00860598 0.0497813 0)
(0.00859389 0.0478639 0)
(0.00871949 0.0480262 0)
(0.00870073 0.0460691 0)
(0.00882304 0.0461285 0)
(0.00879776 0.0441506 0)
(0.00891685 0.0441193 0)
(0.00888534 0.0421289 0)
(0.00900229 0.0419844 0)
(0.00896208 0.0399953 0)
(0.00907299 0.0396729 0)
(0.00902735 0.0377366 0)
(0.00913099 0.0373056 0)
(0.00908346 0.0353886 0)
(0.00918299 0.0348724 0)
(0.0091321 0.03292 0)
(0.00922842 0.0323288 0)
(0.00917523 0.0304322 0)
(0.00926622 0.029705 0)
(0.00920464 0.0279076 0)
(0.00929253 0.0270414 0)
(0.0092255 0.0252584 0)
(0.00931084 0.0243276 0)
(0.00924641 0.0225773 0)
(0.00932429 0.0215673 0)
(0.00925901 0.0198901 0)
(0.00933131 0.0188227 0)
(0.00926398 0.0171532 0)
(0.00933242 0.0160496 0)
(0.00939864 0.017687 0)
(0.00939577 0.0148794 0)
(0.00932861 0.0132705 0)
(0.00938776 0.0120663 0)
(0.00931992 0.0104978 0)
(0.00937496 0.00922918 0)
(0.00930684 0.00770585 0)
(0.00935805 0.00634633 0)
(0.00928828 0.00487983 0)
(0.00933711 0.00342261 0)
(0.00926362 0.0020313 0)
(0.00930978 0.000504589 0)
(0.0047097 0.00414139 0)
(0.0092349 -0.000814617 0)
(0.00927814 -0.00233934 0)
(0.00934765 -0.00115155 0)
(0.00931532 -0.00391476 0)
(0.00924381 -0.00515398 0)
(0.00927799 -0.00672448 0)
(0.00178125 0.0428722 0)
(0.00192894 0.042263 0)
(0.00835088 0.0491594 0)
(0.00943886 0.0108505 0)
(0.00920517 -0.00796785 0)
(0.00923562 -0.00956994 0)
(0.00454643 0.0114413 0)
(0.00892647 0.038104 0)
(0.0100598 0.0495333 0)
(0.00934403 -0.00549325 0)
(0.00916197 -0.0107851 0)
(0.00919212 -0.0124231 0)
(0.00185757 0.0528181 0)
(0.00932128 0.0316577 0)
(0.00740409 0.0638749 0)
(0.00728289 0.065147 0)
(0.0091149 -0.0135819 0)
(0.00914578 -0.0152501 0)
(0.00922713 -0.0139893 0)
(0.00917191 -0.0169266 0)
(0.00909335 -0.0180338 0)
(0.00912021 -0.0197498 0)
(0.00903733 -0.0207634 0)
(0.00906132 -0.0225515 0)
(0.00897615 -0.0234417 0)
(0.00899739 -0.0252666 0)
(0.00920665 -0.0184594 0)
(0.00890945 -0.0260816 0)
(0.00892905 -0.0279082 0)
(0.00901593 -0.0271181 0)
(0.00894667 -0.0297225 0)
(0.00885696 -0.0304731 0)
(0.00887336 -0.032257 0)
(0.00877974 -0.0329721 0)
(0.00879402 -0.0348035 0)
(0.00869571 -0.0354327 0)
(0.00870582 -0.0373206 0)
(0.00860494 -0.0378285 0)
(0.00860988 -0.0397384 0)
(0.00850775 -0.0401319 0)
(0.00394174 0.0197222 0)
(0.00996583 0.0430107 0)
(0.00868045 0.0440637 0)
(0.00173166 0.0405007 0)
(0.00186527 0.0398759 0)
(0.00924991 0.00888414 0)
(0.00791461 0.0194839 0)
(0.0044072 0.0584286 0)
(0.00414748 0.0587882 0)
(0.00422332 0.0575107 0)
(0.00881329 -0.0368038 0)
(0.00477091 -0.0107568 0)
(0.00868584 -0.0335911 0)
(0.00815705 0.00506276 0)
(0.00778975 -0.0276194 0)
(0.00810591 -0.011454 0)
(0.00907539 0.030823 0)
(0.00915998 0.0234086 0)
(0.00624404 0.048555 0)
(0.00482506 0.0227172 0)
(0.00470402 0.0646286 0)
(0.007178 0.0642572 0)
(0.00703512 0.0654881 0)
(0.0090327 -0.0289342 0)
(0.00206785 0.0415858 0)
(0.00198815 0.0391785 0)
(0.00917846 0.0391134 0)
(0.00397061 0.0577887 0)
(0.00404484 0.0565051 0)
(0.00158946 0.0410723 0)
(0.00154414 0.0385721 0)
(0.00140736 0.0391002 0)
(0.00694851 0.064515 0)
(0.007093 0.0633323 0)
(0.00908179 -0.0119136 0)
(0.00918762 0.00067912 0)
(0.00678623 0.065659 0)
(0.0068595 0.0666734 0)
(0.00894523 0.0461341 0)
(0.00136347 0.0364498 0)
(0.00123132 0.0369408 0)
(0.0067877 0.0478978 0)
(0.000101222 0.0662108 0)
(0.000192079 0.0653027 0)
(0.000428288 0.0659655 0)
(0.000500306 0.0650317 0)
(0.000759676 0.0656749 0)
(0.000809819 0.064695 0)
(0.00108435 0.0653337 0)
(0.00110914 0.0642866 0)
(0.00084088 0.0636354 0)
(0.00671319 0.0646933 0)
(0.00954311 -0.0330654 0)
(0.00219243 0.0408184 0)
(0.00209956 0.0384193 0)
(0.00888788 -0.0242608 0)
(0.00380293 0.0567026 0)
(0.00387408 0.0554127 0)
(0.00371546 0.057944 0)
(0.00844832 0.0572315 0)
(0.00946181 -0.053147 0)
(0.00946433 -0.0522069 0)
(0.00948012 -0.0517031 0)
(0.00948363 -0.0507867 0)
(0.00949789 -0.0502667 0)
(0.00950184 -0.0493631 0)
(0.0095153 -0.0488216 0)
(0.00951949 -0.0479233 0)
(0.0095325 -0.0473458 0)
(0.00953694 -0.0464637 0)
(0.0095234 -0.0470122 0)
(0.00954133 -0.045553 0)
(0.00955394 -0.0450128 0)
(0.00955876 -0.0441055 0)
(0.00957043 -0.0435796 0)
(0.00957576 -0.042663 0)
(0.00958665 -0.0421473 0)
(0.00959237 -0.0412267 0)
(0.00960267 -0.0407127 0)
(0.0096087 -0.039789 0)
(0.0096185 -0.0392724 0)
(0.00962467 -0.0383585 0)
(0.00963412 -0.0378315 0)
(0.00964052 -0.0369213 0)
(0.00963036 -0.0374538 0)
(0.0096466 -0.0360083 0)
(0.00965645 -0.0354632 0)
(0.00966271 -0.0345568 0)
(0.00967209 -0.0340193 0)
(0.00967857 -0.0331116 0)
(0.00968749 -0.0325852 0)
(0.00969439 -0.0316555 0)
(0.00968491 -0.0321799 0)
(0.00970112 -0.0307089 0)
(0.00971026 -0.0301838 0)
(0.00971717 -0.0292413 0)
(0.00972595 -0.0287198 0)
(0.0097329 -0.0277921 0)
(0.00974129 -0.0272798 0)
(0.00974843 -0.0263501 0)
(0.00975651 -0.0258416 0)
(0.00976386 -0.0249043 0)
(0.00977178 -0.0243916 0)
(0.00977936 -0.0234443 0)
(0.00977092 -0.0239641 0)
(0.00978665 -0.022497 0)
(0.00979502 -0.0219624 0)
(0.00980217 -0.0210414 0)
(0.00981024 -0.0205024 0)
(0.00981747 -0.0195982 0)
(0.00982493 -0.0190989 0)
(0.00983269 -0.0181577 0)
(0.00984006 -0.0176597 0)
(0.00984786 -0.0167135 0)
(0.00985535 -0.0161816 0)
(0.00986303 -0.0152606 0)
(0.00985526 -0.0157766 0)
(0.00987063 -0.0143163 0)
(0.00987816 -0.0138084 0)
(0.00988592 -0.0128608 0)
(0.00989323 -0.0123567 0)
(0.00990084 -0.0114382 0)
(0.00990804 -0.010918 0)
(0.00991538 -0.0100378 0)
(0.00989464 -0.011811 0)
(0.00992254 -0.00951078 0)
(0.0099299 -0.00862985 0)
(0.00993714 -0.00810042 0)
(0.0099447 -0.00719888 0)
(0.00995153 -0.00669972 0)
(0.00995933 -0.00578006 0)
(0.00995193 -0.00630201 0)
(0.00996702 -0.00484498 0)
(0.00997291 -0.00445275 0)
(0.00998102 -0.0034909 0)
(0.00997473 -0.00387736 0)
(0.00998974 -0.00243992 0)
(0.00999555 -0.00212627 0)
(0.010005 -0.000981172 0)
(0.010012 -0.000507723 0)
(0.0100201 0.000484912 0)
(0.0100269 0.000933955 0)