/*--------------------------------*- C++ -*----------------------------------*\
| =========                 |                                                 |
| \\      /  F ield         | OpenFOAM: The Open Source CFD Toolbox           |
|  \\    /   O peration     | Version:  v2012                                 |
|   \\  /    A nd           | Website:  www.openfoam.com                      |
|    \\/     M anipulation  |                                                 |
\*---------------------------------------------------------------------------*/
FoamFile
{
    version     2.0;
    format      ascii;
    class       surfaceVectorField;
    location    "950";
    object      Uf_0;
}
// * * * * * * * * * * * * * * * * * * * * * * * * * * * * * * * * * * * * * //

dimensions      [0 1 -1 0 0 0 0];


internalField   nonuniform List<vector> 
20673
(
(1.09435 0.171615 1.22404e-20)
(1.09917 0.170183 -1.3811e-20)
(1.09489 0.166435 -1.29607e-22)
(1.02691 0.0598376 0)
(1.02545 0.0587046 -1.2328e-21)
(1.02555 0.06124 0)
(0.0509034 -0.0199955 1.47598e-20)
(0.066104 -0.0213991 -2.4412e-23)
(0.0776187 -0.0218987 1.40358e-20)
(1.10027 0.00220195 -2.32024e-20)
(1.09969 0.00379411 1.2452e-20)
(1.0984 0.00263021 -1.82043e-21)
(0.996167 0.00601688 -1.88962e-21)
(0.995987 0.00557374 5.73778e-21)
(0.995649 0.00635872 6.05189e-21)
(0.367645 0.0614795 -2.45841e-20)
(0.356377 0.0347148 0)
(0.339224 0.0625296 0)
(0.0276087 -0.0177857 2.04606e-20)
(0.0253204 -0.018189 -5.57732e-20)
(0.0471156 -0.0199855 -1.27101e-20)
(0.0778759 -0.0224088 4.64346e-20)
(0.0568691 -0.0211661 1.3774e-20)
(0.0649791 -0.0211542 1.86178e-20)
(0.0184516 -0.0147391 0)
(0.00729612 -0.0136107 4.88614e-20)
(-0.00665107 -0.012449 -2.56107e-20)
(1.12957 0.206297 -2.04341e-23)
(1.13569 0.207597 -7.7175e-22)
(1.13207 0.212763 3.49536e-20)
(1.20043 -0.00345013 3.27915e-20)
(1.18939 -0.00690062 6.89945e-20)
(1.14437 -0.0113839 1.51882e-20)
(1.17953 -0.0100678 -1.28434e-20)
(1.18134 -0.0109915 -2.67991e-20)
(1.1804 -0.0086298 -3.32247e-20)
(1.10192 0.00240144 -4.25998e-21)
(-0.194179 0.00599298 -2.53743e-20)
(-0.214575 0.0047371 3.49236e-20)
(-0.193775 0.00451334 3.15356e-20)
(0.968154 0.116642 6.27388e-21)
(0.963766 0.115632 1.82192e-20)
(0.967313 0.111804 -5.30636e-22)
(0.992202 0.114039 9.02871e-23)
(0.989964 0.110882 -1.80889e-21)
(0.994126 0.110027 -6.83241e-21)
(1.01796 0.0657192 -7.49448e-22)
(1.01974 0.0655723 -1.08684e-22)
(1.01845 0.0637877 2.25647e-23)
(1.17903 0.0846531 7.53169e-21)
(1.17874 0.0873736 6.9812e-21)
(1.18182 0.0852848 1.79418e-20)
(1.17891 -0.0121143 6.69625e-20)
(1.17735 -0.00976603 -9.32584e-21)
(1.00207 0.00678685 -6.27142e-22)
(1.00209 0.00648792 3.44194e-22)
(1.00184 0.00624757 -1.23568e-21)
(0.999982 0.00126116 2.72578e-22)
(0.999969 0.00169389 -2.27552e-21)
(0.999985 0.00126911 4.39121e-21)
(0.0271492 -0.0180316 3.55001e-20)
(0.010635 -0.0174423 3.27827e-21)
(1.00126 0.0104467 -3.2011e-21)
(1.00136 0.0110665 1.8767e-22)
(1.0015 0.0108689 1.70594e-22)
(0.0953267 -0.024127 2.0149e-22)
(0.100784 -0.0245939 3.22352e-20)
(0.995152 0.0212077 -4.19373e-21)
(0.994621 0.0209883 -2.51224e-21)
(0.994906 0.0220129 -7.54389e-21)
(0.0484038 -0.0198608 9.97765e-21)
(0.0314267 -0.0179925 2.83072e-20)
(0.0298212 -0.0186697 -4.45194e-20)
(0.78144 0.0452587 -5.65726e-21)
(0.772167 0.0506522 -1.67505e-20)
(0.773943 0.0386988 -6.18422e-20)
(0.750091 0.129488 -2.48792e-20)
(0.748035 0.142079 -3.65515e-20)
(0.739612 0.132382 4.79953e-20)
(0.685974 0.558582 0)
(0.715352 0.570432 -1.9871e-20)
(0.69286 0.601559 0)
(1.19865 0.171381 3.29311e-20)
(1.19968 0.166957 1.17203e-20)
(1.20382 0.169558 0)
(1.11622 0.163475 -1.54421e-20)
(1.11221 0.165492 1.43242e-21)
(1.1123 0.160633 -1.39629e-20)
(1.06652 0.127189 8.10964e-21)
(1.06311 0.127141 -8.94324e-21)
(1.06482 0.123731 6.35537e-22)
(0.833745 0.0821313 1.92469e-20)
(0.825759 0.0846201 1.59476e-20)
(0.827534 0.0750379 2.4034e-20)
(0.903701 0.0129328 -2.18082e-20)
(0.90659 0.00981907 -3.3637e-20)
(0.907793 0.0137985 3.78816e-21)
(0.991034 0.017627 8.95658e-22)
(0.990452 0.01852 2.98092e-21)
(0.991231 0.0187057 9.73971e-21)
(0.55346 -0.0362393 6.08214e-21)
(0.546041 -0.0375141 0)
(0.490691 -0.0371639 0)
(1.00108 0.00997932 2.68494e-21)
(1.00125 0.00984638 -4.84355e-21)
(-0.132015 -0.00454011 -1.9042e-20)
(-0.145775 -0.00331713 -2.73716e-20)
(-0.140082 -0.00372835 2.71896e-20)
(1.1133 0.000875115 -4.33917e-21)
(1.1154 0.000270226 2.05036e-20)
(-0.104751 0.00273749 -2.13695e-20)
(-0.120272 0.00420305 -2.73012e-20)
(-0.103101 0.0039221 -6.34955e-20)
(1.0121 0.00141392 -7.03632e-22)
(1.01269 0.00140103 1.85111e-21)
(1.0116 0.000819692 1.17174e-21)
(0.999994 0.000882091 2.8739e-21)
(1 0.000412621 2.69114e-21)
(0.999998 0.000448567 -5.70345e-22)
(1.03303 0.0057006 3.62499e-21)
(1.0324 0.00588181 0)
(1.03235 0.00532589 0)
(0.683035 0.203052 -6.95052e-20)
(0.698753 0.211391 1.15353e-20)
(0.681554 0.224699 -4.07697e-20)
(1.05312 0.0423952 -5.00334e-21)
(1.0542 0.0436914 -4.88902e-22)
(1.05487 0.0425946 -5.37131e-21)
(0.885769 0.0294108 0)
(0.884465 0.0247011 2.58516e-20)
(0.889915 0.0258951 -2.90266e-20)
(1.17985 0.0813144 0)
(1.17619 0.0833174 0)
(1.20096 0.0563457 2.32427e-20)
(1.19841 0.0576743 0)
(1.19872 0.0547854 -3.75484e-20)
(0.092238 0.131536 0)
(0.0917413 0.166194 -1.10732e-20)
(0.120485 0.144713 7.01236e-22)
(1.00451 0.00104953 1.09544e-22)
(1.00493 0.000956937 -1.18719e-22)
(1.00484 0.00147616 -4.17993e-22)
(1.12113 0.0519094 5.97727e-21)
(1.12186 0.0535294 -8.4603e-21)
(1.12336 0.0517784 -1.42029e-20)
(0.9639 0.0190371 3.03987e-21)
(0.962649 0.0176837 -3.13359e-21)
(0.962217 0.0199873 1.78261e-20)
(0.0855404 0.102197 -7.03669e-20)
(0.0531812 0.136146 -1.10752e-19)
(0.900478 0.0161422 -2.82721e-20)
(0.899429 0.0116034 0)
(1.01749 0.0675558 9.28071e-22)
(1.01604 0.0655447 -1.0941e-21)
(1.11007 0.0771466 9.17895e-21)
(1.10835 0.079136 6.60766e-21)
(1.11148 0.0798448 -3.16201e-20)
(1.20828 -0.00207658 -3.88287e-20)
(1.21991 0.0017099 -4.89133e-20)
(0.995448 0.0412466 -3.09839e-21)
(0.995481 0.0394247 -1.34622e-21)
(0.996689 0.0407026 3.80567e-21)
(1.0898 0.0784591 -8.45716e-21)
(1.09195 0.080391 0)
(1.08899 0.0811433 0)
(1.05141 0.0421682 5.49527e-21)
(1.05192 0.0410771 5.28955e-21)
(0.230605 0.0401169 -7.18063e-20)
(0.139174 0.0263409 4.13391e-20)
(0.169432 0.0297781 -5.16874e-20)
(1.02859 0.0592572 0)
(1.02845 0.0617505 1.661e-22)
(-0.195427 0.00759914 -1.38379e-20)
(1.00207 0.00705667 4.79323e-23)
(1.00232 0.00731716 2.12934e-21)
(0.374957 0.0960796 2.31137e-20)
(0.398632 0.0656846 -8.24417e-20)
(0.836777 0.316986 1.48835e-20)
(0.782169 0.288731 0)
(0.533965 0.193031 0)
(0.995359 0.00198136 8.0923e-21)
(0.994866 0.0023372 4.56996e-22)
(0.986722 0.00378351 -3.39818e-21)
(0.987539 0.00352774 5.73847e-21)
(1.25196 0.0369609 -1.1095e-21)
(1.25117 0.0353568 0)
(1.2466 0.0360646 -6.36266e-20)
(1.05639 0.174378 -9.22352e-21)
(1.0619 0.175485 -1.56306e-20)
(1.05717 0.18073 -1.00677e-20)
(0.996628 0.0057188 -9.05856e-21)
(0.996332 0.00646386 -3.42801e-21)
(0.0445559 -0.0169439 0)
(0.0295081 -0.0155481 -4.3432e-20)
(-0.208305 -0.000958832 0)
(-0.194968 -0.00208308 0)
(-0.198072 -0.00178794 -3.35192e-20)
(0.995888 0.0213605 7.34032e-21)
(0.995552 0.020152 7.32056e-21)
(0.0926312 0.200259 -1.05019e-20)
(0.126355 0.217025 0)
(0.0948835 0.237638 0)
(1.1808 -0.0262557 -2.23733e-20)
(1.17881 -0.0261542 8.96267e-22)
(1.17954 -0.0244239 -2.29158e-20)
(-0.23028 0.00200589 1.68704e-20)
(-0.214361 0.000188231 6.46166e-20)
(-0.225391 0.00255327 2.41056e-20)
(1.07408 0.0509145 -1.00321e-20)
(1.07571 0.052072 9.84818e-21)
(1.07374 0.0528657 -8.83508e-21)
(0.0348921 -0.0167129 -8.42131e-21)
(0.0334152 -0.0174614 -7.42535e-21)
(0.0524653 -0.0189895 -5.32444e-21)
(0.999938 0.00254566 4.04506e-21)
(0.999881 0.00298168 -4.01589e-21)
(0.999902 0.00302647 -4.76381e-22)
(1.0001 0.00407582 1.3479e-22)
(1.00012 0.00448932 2.51154e-21)
(1.00014 0.00397902 6.13125e-21)
(0.995802 0.00213391 3.01692e-21)
(0.383841 0.121993 1.08635e-19)
(0.39345 0.151699 6.73755e-20)
(0.414822 0.128185 1.34493e-19)
(-0.116786 -0.00608042 2.59098e-20)
(-0.122167 -0.00569369 -2.13779e-20)
(-0.120411 0.0120037 -9.41602e-23)
(-0.143464 0.01013 1.74507e-20)
(-0.137894 0.010299 -6.91814e-20)
(1.07235 0.0497951 -5.08335e-21)
(1.07428 0.0491387 0)
(1.00051 0.00570526 -2.22361e-25)
(1.00057 0.00560031 2.17917e-21)
(1.00042 0.00515406 5.0378e-21)
(0.8767 0.348472 -2.42827e-20)
(1.03295 0.421154 6.82365e-21)
(1.11995 0.0499792 -1.0047e-20)
(1.11853 0.0518755 6.58833e-21)
(1.03358 0.00561875 -7.55319e-21)
(1.03363 0.00616517 3.11317e-21)
(-0.167353 -0.00338101 4.63756e-20)
(-0.181774 -0.00257614 -1.71511e-20)
(-0.17614 -0.00276259 -7.60309e-21)
(1.17571 0.197389 7.00421e-20)
(1.16983 0.197817 2.21378e-20)
(1.17182 0.202474 2.60328e-22)
(1.03167 0.0372757 -2.86541e-21)
(1.03228 0.0363397 1.23265e-21)
(1.03088 0.0360344 -9.93603e-22)
(0.971874 0.0673275 0)
(0.969593 0.0686643 -1.35653e-20)
(0.972201 0.070278 1.62594e-21)
(1.00264 0.40574 3.54367e-20)
(0.780695 0.324293 -3.64786e-20)
(0.370627 0.00785808 5.44406e-20)
(0.399349 0.000661112 1.39899e-20)
(0.376945 -0.0264969 -3.80892e-20)
(1.21781 0.0200774 3.04472e-20)
(1.218 0.0212855 2.05418e-20)
(1.21504 0.018785 3.79668e-20)
(1.19335 0.0633514 -3.08579e-20)
(1.19559 0.0649372 1.34599e-20)
(1.19303 0.0661592 3.56581e-20)
(1.18677 -0.029298 0)
(1.1449 -0.0334892 0)
(1.16363 -0.0327353 -2.95804e-20)
(0.584925 0.13565 -5.36905e-21)
(0.605123 0.12177 -5.94792e-21)
(0.605984 0.147981 8.96283e-20)
(1.01581 0.00878376 5.19134e-22)
(1.01649 0.00900458 -9.66007e-22)
(1.01617 0.00955561 -1.27149e-21)
(0.835757 0.00916114 2.01379e-20)
(0.83893 0.0166528 1.38414e-20)
(0.843372 0.00988071 -7.29458e-21)
(0.667317 0.195753 -2.67145e-20)
(0.685456 0.18778 -2.08292e-21)
(1.08678 0.0469444 -7.87355e-21)
(1.08869 0.0472748 0)
(1.08769 0.0451415 9.99954e-21)
(1.02304 0.0195461 4.39706e-21)
(1.02316 0.0187458 6.34006e-21)
(1.02392 0.0196205 -2.13169e-21)
(0.0302503 -0.0141122 2.98583e-20)
(0.0271212 -0.0140115 -1.49381e-20)
(0.0585301 -0.0143046 3.7452e-20)
(0.787915 0.503938 -1.18815e-20)
(0.760402 0.519576 6.12032e-21)
(0.796665 0.529253 -1.52176e-20)
(1.20337 0.055438 -1.47837e-20)
(1.20287 0.058296 2.01353e-20)
(1.02169 0.0653939 -1.37194e-22)
(1.02141 0.0675464 -3.73421e-23)
(1.11151 0.175753 1.57649e-23)
(1.10716 0.177468 -1.48782e-20)
(1.11151 0.180921 0)
(-0.195646 -0.000689182 -6.88168e-21)
(-0.212304 -0.000704 -2.69016e-20)
(-0.205854 -0.000553145 -2.89763e-20)
(-0.0927799 0.00120046 3.82105e-20)
(-0.108392 0.00266296 2.84257e-21)
(1.18926 -0.0148618 0)
(1.18886 -0.016245 4.89093e-21)
(1.19053 -0.0155877 -1.33723e-20)
(0.0295474 -0.0136975 0)
(0.00427597 -0.0138407 1.53663e-20)
(0.946081 0.0182946 -1.13882e-20)
(0.944588 0.0205062 6.4032e-21)
(0.943908 0.0176678 -9.66726e-21)
(0.0861535 -0.120497 -9.89893e-21)
(0.096946 -0.0912876 -3.8669e-20)
(0.059595 -0.0958987 3.4389e-20)
(1.00161 0.0189386 -1.16524e-21)
(1.00174 0.0198496 -1.04003e-21)
(1.00128 0.0193823 -2.50014e-21)
(0.180105 0.103034 -9.9845e-21)
(0.20966 0.0841157 6.18063e-20)
(0.21071 0.118755 -1.20619e-19)
(-0.1545 0.00314429 -2.60216e-20)
(-0.15026 0.00332697 8.78814e-21)
(-0.139584 0.000611537 -1.2275e-20)
(0.902859 0.0242871 3.99077e-21)
(0.899871 0.0276405 1.16458e-20)
(0.904569 0.0281249 1.09042e-20)
(1.00001 0.00133714 5.29514e-22)
(0.999989 0.00132239 0)
(1.25247 0.0398457 -5.46942e-20)
(1.23735 0.0380007 5.45725e-20)
(-0.163716 0.0015434 -7.07168e-20)
(-0.150047 0.000101554 5.23558e-22)
(-0.153441 0.000541246 3.38423e-20)
(0.752645 0.117565 -2.38011e-20)
(0.763777 0.126804 1.29062e-20)
(1.00692 0.000958878 -3.56834e-23)
(1.00724 0.00138721 6.3585e-23)
(1.00739 0.000831269 -9.58008e-23)
(0.971938 0.0642242 0)
(0.974389 0.0658594 -5.84357e-21)
(1.04658 0.0451616 2.26265e-21)
(1.04746 0.0465817 2.07528e-21)
(1.04589 0.0463066 3.92034e-21)
(1.00647 0.000968382 -3.01227e-22)
(1.00628 0.000488324 5.41428e-22)
(1.02773 0.00376718 0)
(1.02823 0.00352047 0)
(1.02764 0.00323522 -4.05591e-21)
(0.342763 0.00923908 6.23226e-20)
(-0.0952544 -0.00605673 1.26559e-20)
(-0.100763 -0.00474549 -2.51257e-20)
(-0.108134 -0.0035377 0)
(0.947704 0.0157112 0)
(0.948719 0.0185456 0)
(1.05521 0.0448945 -5.13081e-22)
(1.05344 0.0447704 2.33595e-21)
(0.999968 0.00123298 -4.28251e-21)
(1 0.000836362 -8.20012e-21)
(0.673912 0.0362961 -3.24945e-20)
(0.714594 0.041023 -3.16042e-20)
(0.619864 0.0320895 2.33298e-20)
(0.115597 -0.0257002 -3.36459e-20)
(0.090153 -0.0233804 -1.3047e-20)
(1.09351 0.176522 3.63246e-20)
(1.08961 0.172451 1.08767e-20)
(0.568329 0.146259 4.49558e-20)
(0.569679 0.118767 0)
(0.994823 0.00284274 1.37006e-20)
(0.994327 0.00264142 0)
(0.901503 0.0202165 -1.29466e-20)
(0.905835 0.0213633 2.38923e-20)
(0.624744 -0.0347055 1.43308e-20)
(0.628616 -0.0335044 2.99207e-20)
(0.692941 -0.0313779 -1.65294e-21)
(1.03636 0.0226673 2.22006e-21)
(1.03611 0.0234668 0)
(1.03518 0.0225301 4.04941e-21)
(0.960792 0.0325137 5.61461e-23)
(0.958513 0.0334602 -7.4944e-21)
(0.959323 0.0305369 -1.23638e-20)
(0.650541 0.199041 -3.42097e-23)
(0.630148 0.204515 5.79113e-21)
(0.647773 0.221824 3.98945e-22)
(0.98649 0.00458443 3.00109e-22)
(0.985866 0.00413334 -1.16765e-20)
(0.133558 -0.0186976 -1.15361e-21)
(0.100063 -0.0170307 -1.45287e-20)
(0.132446 -0.0180866 4.81804e-21)
(0.771951 0.604127 0)
(0.780252 0.576963 1.21607e-20)
(0.747733 0.575866 -2.08996e-20)
(0.965293 0.0206998 0)
(0.965899 0.018272 0)
(1.03468 0.0193335 -3.70048e-21)
(1.0346 0.0201375 -8.02469e-21)
(1.03368 0.0192288 5.04937e-22)
(1.05909 0.133598 1.72461e-21)
(1.05505 0.13323 -5.55377e-21)
(1.05709 0.137935 -5.6878e-21)
(1.18347 0.0316624 -6.24187e-21)
(1.18582 0.0312485 -1.89514e-20)
(1.18387 0.0337434 -2.93896e-20)
(0.110174 -0.142505 -9.42982e-20)
(0.0705197 -0.150594 -4.30702e-20)
(1.19889 0.00739055 2.3498e-20)
(1.20072 0.00821904 -1.64803e-20)
(1.20041 0.00602956 -1.46494e-20)
(1.01032 0.214116 1.35294e-21)
(1.01422 0.2095 9.12094e-22)
(1.01811 0.214657 8.73968e-22)
(1.0927 0.102813 -1.87386e-21)
(1.08973 0.104247 7.07747e-22)
(1.08976 0.100721 2.31493e-20)
(-0.0827767 0.0270814 0)
(-0.0931624 0.0298234 6.30323e-20)
(-0.114329 0.0259628 5.07847e-20)
(1.05107 0.173786 1.08392e-20)
(1.05488 0.169472 1.53883e-20)
(0.407397 -0.0282217 9.36713e-21)
(0.45121 -0.0263444 -7.16143e-21)
(0.465574 -0.0269892 3.6848e-20)
(-0.248542 0.00217873 -4.03937e-20)
(-0.233031 0.00122119 -2.66847e-20)
(0.723495 0.0436363 -2.54367e-20)
(0.625826 0.0314173 -3.97916e-20)
(0.937304 0.0572684 -1.01265e-20)
(0.934306 0.0590173 -2.25683e-21)
(0.934294 0.0550746 -1.60656e-21)
(0.784752 -0.018295 -2.02406e-20)
(0.77879 -0.00994999 9.47688e-20)
(0.773266 -0.0209846 5.20233e-20)
(1.00002 0.00313315 7.20974e-21)
(1.00004 0.00302094 -2.56812e-21)
(0.999993 0.00257265 -9.62615e-23)
(1.21656 0.0180228 -3.84355e-20)
(1.21577 0.0205868 -3.22617e-20)
(1.18973 -0.0131003 0)
(1.18771 -0.0137442 0)
(1.19693 -0.0249285 2.26267e-20)
(1.19622 -0.025283 -4.15003e-21)
(1.08592 0.0485165 -7.44058e-21)
(1.08495 0.0465136 3.01921e-21)
(1.18878 0.0474383 3.31132e-21)
(1.18859 0.0451561 -7.19672e-20)
(1.19131 0.0461981 -5.47089e-20)
(1.04513 0.0353916 -1.10993e-20)
(1.04612 0.0364635 1.33748e-21)
(1.04456 0.0364309 -5.72287e-21)
(0.832826 0.00280215 -1.29651e-20)
(0.827951 0.00993088 9.79992e-21)
(1.03668 0.212309 -5.85873e-21)
(1.02958 0.21049 0)
(1.03557 0.205331 -5.60596e-21)
(-0.265086 0.00326921 2.20476e-20)
(-0.274708 0.00407586 2.90523e-20)
(-0.257816 0.00324581 -2.33047e-20)
(1.18912 -0.0207368 9.36639e-22)
(1.19088 -0.0210824 -2.027e-20)
(1.19004 -0.0193273 -7.66724e-21)
(1.01586 0.0751203 5.4248e-22)
(1.01562 0.0773507 0)
(1.01356 0.0755552 -7.63646e-23)
(0.178928 -0.0215315 0)
(0.175344 -0.0212022 0)
(0.217402 -0.0211073 2.78195e-20)
(1.00013 0.230993 3.13086e-22)
(0.996456 0.235506 -1.62953e-21)
(1.00438 0.236563 -1.35923e-21)
(-0.090351 -0.00618631 5.06329e-20)
(-0.0810943 -0.00729856 -9.70179e-21)
(0.149397 0.086993 -7.18898e-20)
(0.150627 0.123878 -6.79226e-20)
(0.139225 -0.0191242 1.43606e-20)
(0.174935 -0.0187567 1.42478e-20)
(1.01655 0.0379157 1.48675e-22)
(1.01741 0.0389387 1.19698e-22)
(1.01628 0.0390109 -1.00183e-22)
(1.1812 0.197757 2.97409e-20)
(1.17905 0.193132 9.5854e-21)
(1.12083 0.166387 0)
(1.12078 0.161566 1.68691e-20)
(1.03747 0.0227439 -5.14706e-21)
(1.03648 0.0218343 6.55813e-21)
(1.00047 0.00584404 -5.68935e-21)
(1.0006 0.00630915 -3.77864e-21)
(0.927782 0.135764 4.32339e-20)
(0.924059 0.131208 2.40831e-20)
(0.930419 0.131148 3.68708e-21)
(0.0686747 -0.0219805 2.98154e-21)
(0.0667441 -0.0217095 2.2374e-20)
(1.23779 0.22086 0)
(1.24165 0.219695 -2.92981e-20)
(1.24061 0.2255 -3.07445e-20)
(-0.0725664 0.027736 0)
(-0.0296605 0.035804 1.9595e-20)
(1.1434 0.0940154 -1.00467e-20)
(1.14181 0.0964418 -2.12699e-20)
(1.14527 0.0963217 1.02045e-20)
(1.19887 -0.0174833 9.40852e-21)
(1.19814 -0.0185611 0)
(1.20263 -0.0182296 -1.61052e-20)
(0.676418 -0.026077 1.91343e-20)
(0.628024 -0.026188 8.67252e-21)
(0.628615 -0.0275214 -1.89177e-20)
(-0.0948111 0.0135035 4.86701e-20)
(-0.101395 0.0130912 3.13114e-20)
(1.22682 0.257076 -1.30232e-20)
(1.22835 0.251585 -2.70081e-20)
(1.23106 0.255044 -1.35395e-20)
(0.999911 0.0110614 -3.17257e-22)
(0.999987 0.0104976 1.74489e-21)
(0.999794 0.0103737 -3.90699e-21)
(0.560544 0.0572057 3.83477e-20)
(0.56526 0.0772144 5.70617e-21)
(0.540998 0.0710255 1.48642e-19)
(0.79003 0.0421126 -6.01747e-21)
(0.788812 0.053292 3.66297e-20)
(1.01447 0.000642253 -1.80692e-21)
(1.01387 0.000627651 9.72215e-22)
(1.03098 0.0380504 -3.74802e-21)
(1.03249 0.0384969 4.38774e-21)
(0.835894 0.474845 -9.089e-21)
(0.832166 0.448211 -4.35992e-21)
(0.857901 0.458383 -7.44451e-22)
(1.11099 0.493845 -3.33753e-21)
(1.09716 0.468455 4.47961e-20)
(0.924925 0.392172 -2.1578e-20)
(1.12068 0.026102 -5.39571e-21)
(1.12277 0.0256746 9.22294e-21)
(1.1222 0.0276462 -1.69465e-20)
(1.00425 0.00125486 3.52036e-23)
(1.00423 0.000782695 2.12513e-23)
(1.18475 0.0403166 -1.71991e-20)
(1.18205 0.0411014 4.19756e-20)
(1.18478 0.0431171 3.77523e-20)
(1.18336 0.0292543 3.05842e-20)
(1.18105 0.0315397 -5.77946e-21)
(-0.218419 -0.000443076 -3.5563e-20)
(-0.221122 -0.000250705 0)
(0.667701 0.0148256 1.45209e-20)
(0.680975 0.0139402 5.30472e-20)
(0.750185 0.0209107 3.32143e-20)
(0.991548 0.0170061 2.9189e-21)
(0.99103 0.0168706 -7.51464e-21)
(0.994232 0.0415244 8.09229e-21)
(0.995392 0.0427454 -1.45103e-21)
(1.19118 0.0617463 -1.28428e-19)
(1.19363 0.0604185 -3.58191e-20)
(0.0570914 -0.0213151 2.33836e-20)
(0.0817901 -0.0231034 -3.2443e-20)
(0.0740712 -0.0226284 1.0493e-20)
(0.962786 0.0313082 2.33037e-20)
(0.962444 0.033993 2.91631e-20)
(0.0219251 -0.0181481 -1.93771e-20)
(0.0177353 -0.0179451 2.39995e-20)
(0.0407297 -0.0196493 2.51096e-20)
(-0.249034 0.0012189 0)
(-0.234431 0.000937715 0)
(-0.246934 0.00121797 0)
(1.19856 -0.0162102 3.37223e-20)
(1.19978 -0.016022 -2.22101e-21)
(1.02232 0.0193294 7.63488e-22)
(1.02293 0.0201798 2.68117e-21)
(0.478116 0.385996 4.89853e-20)
(0.496092 0.420321 5.07187e-20)
(0.445561 0.420351 1.89115e-20)
(1.18424 0.0573905 2.58091e-20)
(1.18664 0.0587734 5.71543e-20)
(1.18392 0.0600646 -3.2589e-20)
(-0.268953 0.000985963 -1.99381e-20)
(-0.250562 -0.00031407 4.41131e-21)
(-0.261652 0.00169715 6.29482e-21)
(1.00419 0.0252296 4.72124e-21)
(1.00468 0.0258448 5.71993e-23)
(1.0042 0.0263244 2.11127e-21)
(0.333997 0.056078 -4.77242e-20)
(0.305118 0.0529499 3.69351e-20)
(1.01559 0.036719 5.46152e-24)
(1.01672 0.0367741 -6.58209e-23)
(1.20345 0.148086 5.72329e-20)
(1.20098 0.144944 2.80552e-20)
(1.19937 0.148584 4.72295e-21)
(1.01185 0.001835 -1.42413e-21)
(1.01157 0.00127224 -1.09735e-21)
(-0.136336 -0.00524277 -1.98514e-20)
(-0.149694 -0.00483956 -4.90151e-20)
(-0.140647 -0.00476465 2.45757e-20)
(0.0243329 -0.0137083 -8.16997e-20)
(0.021208 -0.0135338 1.10502e-20)
(0.0513677 -0.0135749 -4.02676e-20)
(0.991287 0.11764 6.0483e-21)
(0.995347 0.116808 3.73891e-22)
(1.13383 0.522253 7.49833e-20)
(1.14568 0.522075 2.74328e-20)
(1.14657 0.508107 6.78377e-21)
(1.09581 0.104538 -4.37861e-21)
(1.09514 0.101087 -1.21436e-20)
(1.02131 0.0190139 -1.96032e-21)
(1.02154 0.0182544 1.28596e-21)
(0.602389 -0.0371503 5.45851e-22)
(0.54754 -0.035986 2.5005e-21)
(1.1882 -0.022095 2.29636e-21)
(1.18742 -0.0204247 -4.72758e-20)
(1.14173 0.0917083 0)
(1.1448 0.0916326 3.40986e-23)
(0.105425 -0.0242742 3.97282e-21)
(0.0849919 -0.0228069 -1.20994e-20)
(0.115481 -0.0243287 -3.65926e-20)
(-0.252085 0.00307947 0)
(-0.261141 0.00258746 0)
(1.01762 0.0050002 -1.17869e-21)
(1.01824 0.00511901 6.78455e-22)
(1.01793 0.00443014 -2.54332e-21)
(1.06993 0.126918 1.15394e-20)
(1.06838 0.130684 1.52494e-20)
(-0.156651 -0.00419214 1.16819e-20)
(-0.151384 -0.00436057 0)
(-0.146455 0.0107002 4.82427e-20)
(-0.162703 0.00933486 -7.82464e-21)
(-0.148043 0.0106307 2.25286e-20)
(1 0.00309996 7.06576e-21)
(0.999989 0.00362291 1.04211e-20)
(1.00819 0.012718 -2.01432e-22)
(1.00877 0.0131292 1.35423e-22)
(1.00843 0.0133776 -5.68902e-23)
(-0.0863572 0.00198835 -4.1151e-20)
(-0.0741975 0.0011861 -5.90139e-20)
(1.21592 0.0230313 2.64718e-21)
(1.21489 0.0214688 1.92684e-20)
(1.22262 0.0221005 3.40051e-20)
(1.00007 0.000174274 3.16979e-22)
(1.00003 0.000132994 -2.14272e-22)
(1.00007 0.000218729 -8.88413e-22)
(0.665148 -0.0354173 2.75256e-20)
(0.669655 -0.0355298 -1.05412e-20)
(0.726962 -0.0359065 1.63398e-20)
(1.21593 0.0953705 -1.29548e-21)
(1.21642 0.0920464 1.16222e-20)
(1.21294 0.0934241 -5.65412e-20)
(0.794048 -0.0180338 3.43079e-21)
(0.789867 -0.027801 -4.89e-20)
(1.09479 0.153356 -2.09248e-21)
(1.09726 0.157807 -9.14418e-21)
(1.09919 0.152803 4.58825e-21)
(1.00004 0.00356173 -5.62716e-21)
(1.00007 0.00299744 -2.59614e-21)
(0.964527 0.238021 2.34242e-21)
(0.966919 0.228456 6.17792e-21)
(0.956734 0.231455 2.35606e-21)
(-0.239231 0.00199567 -2.56882e-20)
(-0.238988 0.00264518 8.22808e-21)
(-0.255916 0.00355998 3.70122e-20)
(1.06581 0.0151197 -5.77071e-21)
(1.06656 0.0143104 4.06721e-21)
(1.06744 0.0153853 1.1203e-20)
(1.19203 0.215435 9.39115e-21)
(1.18609 0.21701 -2.27144e-20)
(1.18843 0.210378 -5.32556e-20)
(0.557731 0.163603 8.09778e-20)
(0.572055 0.18459 -1.3454e-20)
(0.542543 0.189038 -2.113e-20)
(1.04571 0.0437285 -1.76225e-21)
(1.04723 0.0438982 0)
(0.995577 0.0378016 -7.4274e-23)
(0.994477 0.0382508 1.4805e-21)
(1.18858 0.00898138 -4.15435e-20)
(1.19106 0.00921133 -1.24065e-20)
(1.18991 0.00701238 2.0861e-20)
(-0.0610936 -0.00164794 0)
(-0.0715163 -0.000141946 0)
(-0.0722376 -0.000300033 0)
(1.19689 0.00630267 -6.87674e-21)
(1.19716 0.00881708 3.08277e-20)
(0.930521 0.140739 -3.01003e-21)
(0.924668 0.141381 -6.93627e-21)
(0.972324 0.11693 -1.21229e-20)
(0.969273 0.120864 -9.22202e-21)
(1.00007 0.000377826 7.35828e-22)
(1.00007 0.000328466 0)
(1.00002 0.000221113 0)
(-0.177257 0.00247404 -1.9365e-20)
(-0.17395 0.00243881 -4.66815e-20)
(0.120699 -0.00608579 -8.55738e-20)
(0.163887 -0.00654131 0)
(0.163583 -0.00553656 3.88622e-20)
(0.606888 -0.0406394 4.7499e-21)
(0.586974 -0.0384661 7.24414e-20)
(0.554953 -0.0359918 3.1155e-20)
(1.02051 0.0188081 -4.11224e-22)
(1.02116 0.0197019 1.30371e-21)
(-0.226306 -0.000156537 -2.88992e-20)
(-0.210979 -0.000856326 -3.05316e-20)
(-0.216012 -0.000338927 3.5045e-20)
(-0.203598 0.00219812 2.72915e-21)
(-0.202017 0.00269877 2.46758e-20)
(-0.21869 0.0038687 9.15196e-20)
(0.352518 -0.0290472 -2.01269e-20)
(0.368652 -0.0285026 -1.22581e-20)
(0.0339049 -0.016721 -2.49256e-20)
(0.0192646 -0.0160777 -2.29756e-20)
(1.18257 -0.0259197 -2.17278e-20)
(1.18201 -0.0275751 0)
(1.00005 0.00414715 -6.45109e-21)
(1.00892 0.00110687 -7.40493e-23)
(1.00842 0.00117516 -3.41362e-23)
(1.00899 0.00172115 -3.38579e-22)
(1.1804 0.0789778 1.41975e-20)
(1.178 0.077476 -3.63353e-20)
(1.18105 0.0762295 -1.07881e-21)
(-0.165776 -0.00200713 1.42366e-22)
(-0.177024 -0.000946059 -5.21944e-21)
(-0.178845 -0.000619699 1.68407e-20)
(1.22492 0.0577662 1.44997e-20)
(1.22565 0.0601626 0)
(1.22991 0.0578652 -2.002e-20)
(1.08757 0.0766894 1.43291e-21)
(1.09034 0.0760141 1.48543e-20)
(0.651452 0.0150085 -3.06614e-20)
(0.584304 0.00867012 -6.3131e-20)
(1.15556 -0.0137018 1.75147e-20)
(1.15378 -0.0136267 1.72014e-20)
(1.0277 0.00218431 3.50735e-21)
(1.02759 0.00267307 8.13296e-22)
(1.02809 0.00247125 7.38909e-21)
(0.413287 0.0364931 -1.54169e-20)
(0.406179 0.0316191 -2.56274e-20)
(0.335565 0.0220339 -2.68115e-21)
(1.00265 0.0066769 -9.83968e-22)
(1.00265 0.00638588 -9.45224e-22)
(1.00238 0.00618841 -2.03842e-21)
(0.17803 -0.0217538 0)
(0.143842 -0.0212443 2.10638e-20)
(1.11835 0.0268077 1.44585e-20)
(1.11884 0.0248681 4.72176e-21)
(1.00008 0.000135058 -9.95924e-22)
(1.00013 0.000213624 3.76616e-22)
(0.996692 0.133781 8.60883e-21)
(0.995035 0.138672 7.42405e-21)
(0.992451 0.133597 -2.26016e-21)
(1.0077 0.219848 -1.0885e-21)
(1.00382 0.21365 -2.20105e-21)
(0.773187 -0.00032243 -2.1178e-20)
(0.783429 0.000419127 7.3349e-20)
(0.609455 -0.0345134 -1.38956e-20)
(0.655757 -0.036184 -1.26962e-20)
(0.990282 0.170401 0)
(0.989883 0.176907 2.78979e-21)
(0.984095 0.171827 -2.71111e-21)
(1.06726 0.0246457 3.45146e-20)
(1.06786 0.0260477 9.17173e-22)
(1.06623 0.0253168 4.90385e-21)
(1.099 0.0981219 7.52833e-21)
(1.10479 0.103513 7.48718e-21)
(1.00695 0.0853163 -1.01974e-21)
(0.122711 -0.0251256 1.19033e-20)
(0.0935333 -0.024036 1.5215e-20)
(0.08358 -0.00854406 -7.46076e-20)
(0.0874796 -0.00807131 -1.87871e-20)
(1.00364 0.0248553 2.06235e-21)
(1.00405 0.0243801 2.36341e-21)
(0.339431 -0.0264579 -1.67857e-20)
(0.385093 -0.0243082 2.56174e-20)
(0.330472 -0.0257642 2.39048e-20)
(0.998371 0.00157351 0)
(0.998255 0.0018893 0)
(0.998047 0.00176497 1.06123e-20)
(1.06705 0.0233138 -4.95738e-22)
(1.06865 0.0239451 -1.16185e-20)
(1.00146 0.0179697 -3.5283e-21)
(1.00192 0.01843 1.88193e-21)
(0.799277 0.634392 0)
(0.754208 0.637748 0)
(1.00214 0.00127807 7.59357e-22)
(1.00233 0.00111629 3.05155e-22)
(1.00199 0.00100051 -2.85647e-22)
(1.20574 0.150903 -2.82162e-20)
(1.20731 0.147353 2.71905e-20)
(1.09037 0.154737 2.24902e-20)
(1.09187 0.149836 -1.74598e-20)
(1.04404 0.034153 -6.03833e-21)
(1.04561 0.0342254 1.53866e-22)
(1.18698 0.0396368 -2.73017e-20)
(1.18432 0.0385837 -8.73358e-21)
(1.04406 0.0832704 -7.82744e-22)
(1.04553 0.0813889 -5.0584e-21)
(1.04688 0.0840246 -3.97243e-21)
(0.119059 0.0676839 0)
(0.106678 0.0528802 -5.34999e-20)
(0.105059 0.0839082 -6.03774e-20)
(1.0045 0.226224 -5.6128e-23)
(0.997017 0.225479 4.26287e-22)
(1.16824 0.19184 5.3258e-21)
(1.16381 0.196638 -1.71068e-20)
(1.0437 0.025785 1.17531e-21)
(1.04463 0.0269016 1.49828e-20)
(1.04496 0.0256944 2.30959e-21)
(0.996625 0.0373262 0)
(0.995648 0.0362982 0)
(-0.20479 0.000299421 6.42667e-20)
(-0.217555 0.000373081 -1.93652e-20)
(-0.219659 0.000350626 5.44456e-20)
(-0.171365 0.00402768 -4.29474e-20)
(-0.176045 0.00365242 2.35994e-21)
(-0.160496 0.00161482 -5.65654e-20)
(1.00175 0.0207748 1.47171e-21)
(1.00214 0.0203362 -4.64211e-22)
(1.00993 0.00104151 2.11569e-22)
(1.01055 0.00139382 1.32353e-21)
(1.00995 0.00180126 -5.08747e-22)
(0.411678 0.0348415 -5.49532e-20)
(0.504504 0.045753 3.92104e-20)
(1.02072 0.0365663 1.8719e-22)
(1.021 0.0379204 5.06101e-22)
(1.02211 0.0374428 5.6911e-22)
(-0.181047 -0.00303798 0)
(-0.191283 -0.00227141 0)
(1.0427 0.0249517 -1.63269e-22)
(1.04244 0.0260225 -2.39069e-21)
(-0.132576 -0.00530092 -3.91722e-20)
(-0.123632 -0.00567336 2.76489e-20)
(1.08205 0.00669333 -5.31866e-21)
(1.08173 0.00542818 0)
(1.08322 0.00606123 1.38995e-20)
(1.17642 0.374541 0)
(1.16516 0.372137 0)
(1.16844 0.384231 -2.76603e-20)
(1.14844 0.0475075 7.98292e-21)
(1.14696 0.0494278 -5.17419e-21)
(1.14987 0.0497085 4.41098e-20)
(0.100241 0.310304 -1.67403e-20)
(0.0982236 0.27145 -1.6768e-20)
(0.132239 0.28744 6.16239e-20)
(0.940622 0.0585701 -1.95279e-20)
(0.940275 0.0548341 0)
(0.814059 0.0572613 3.72672e-20)
(0.744249 0.0497501 2.7903e-20)
(0.502765 0.2956 -9.59437e-20)
(0.476724 0.305282 1.48799e-20)
(0.503039 0.327557 -1.31172e-19)
(1.001 0.134727 3.38177e-21)
(0.998885 0.130555 -3.5828e-22)
(1.2197 0.0248266 -1.82854e-20)
(1.21423 0.0240204 -1.74663e-20)
(0.914795 0.526288 -4.97263e-21)
(0.930489 0.544773 2.59379e-20)
(0.902175 0.54787 6.9797e-21)
(0.997104 0.0584304 -2.39938e-21)
(0.995399 0.0576989 -2.11742e-21)
(0.995818 0.0600081 -1.22529e-21)
(-0.114023 -0.00438095 1.51881e-20)
(-0.128178 -0.00271409 -1.07054e-20)
(-0.123325 -0.0032895 -1.01774e-20)
(0.575869 0.0462343 -7.83064e-20)
(0.555622 0.0370943 0)
(-0.191753 0.00177677 4.87702e-22)
(-0.203372 0.00198734 -3.60123e-20)
(0.918819 0.0299478 -1.13612e-20)
(0.915076 0.0313078 1.87365e-21)
(0.917894 0.0341763 -3.12162e-20)
(-0.132914 0.00282316 -1.39115e-21)
(-0.149835 0.00447592 0)
(-0.131764 0.00349346 0)
(1.07368 0.126847 -4.68606e-21)
(1.07568 0.131047 0)
(1.0776 0.127486 1.82634e-20)
(-0.15194 0.00377385 5.24744e-20)
(-0.135494 0.00420091 3.00086e-20)
(-0.130693 0.00382545 1.60971e-20)
(0.509922 0.26509 -3.80183e-20)
(0.533984 0.288561 -2.60703e-20)
(0.901123 0.371304 7.90678e-21)
(0.885229 0.367784 8.84716e-21)
(0.892741 0.385781 7.58835e-21)
(0.918405 0.378099 1.22211e-21)
(0.911656 0.359264 -3.16279e-21)
(0.0391726 -0.0199277 -3.63491e-20)
(0.02813 -0.0193257 -2.22692e-20)
(0.999747 0.00334414 1.02313e-22)
(0.999681 0.00375291 6.36688e-22)
(0.999712 0.00378666 6.31763e-22)
(1.04379 0.212424 7.67918e-21)
(1.0398 0.21873 -5.57519e-21)
(-0.177251 -0.00100403 1.06484e-20)
(-0.183601 -0.000808207 -2.45014e-20)
(0.982232 0.0404957 -1.57096e-21)
(0.981221 0.0416038 1.36057e-21)
(0.980861 0.0395864 -6.20393e-21)
(1.00158 0.0950253 -1.89306e-21)
(1.00268 0.0923636 -9.73383e-21)
(0.999544 0.0925197 -4.08666e-22)
(-0.196743 0.00252253 0)
(-0.193311 0.00304964 0)
(0.812934 0.491746 4.29439e-23)
(0.843528 0.501271 -8.00169e-24)
(1.02056 0.0718298 1.05911e-22)
(1.02036 0.0738081 -5.07974e-22)
(1.02266 0.0735331 2.39225e-22)
(0.728883 -0.024122 1.88314e-20)
(0.72667 -0.024333 2.26397e-20)
(0.652668 0.552429 0)
(0.678754 0.526366 7.68994e-21)
(1.01283 0.00763378 1.41539e-21)
(1.01347 0.00806231 -7.54774e-22)
(1.01338 0.00734482 1.36023e-21)
(-0.158138 0.00229997 3.9539e-21)
(-0.175116 0.00390381 -1.26207e-20)
(0.614517 -0.032734 -2.18338e-20)
(0.562362 -0.033732 -2.31363e-20)
(0.629998 -0.0321309 -4.10528e-21)