/*--------------------------------*- C++ -*----------------------------------*\
| =========                 |                                                 |
| \\      /  F ield         | OpenFOAM: The Open Source CFD Toolbox           |
|  \\    /   O peration     | Version:  v2012                                 |
|   \\  /    A nd           | Website:  www.openfoam.com                      |
|    \\/     M anipulation  |                                                 |
\*---------------------------------------------------------------------------*/
FoamFile
{
    version     2.0;
    format      ascii;
    class       volScalarField;
    location    "1000";
    object      omega;
}
// * * * * * * * * * * * * * * * * * * * * * * * * * * * * * * * * * * * * * //

dimensions      [0 0 -1 0 0 0 0];


internalField   nonuniform List<scalar> 
13851
(
0.0865411
0.02319
0.0231135
6.24097
0.0220819
0.0242951
0.023219
0.021821
3.56723
0.0220417
0.0546144
0.0220767
0.0221012
5.61186
0.0293279
0.101019
8.58406
0.0218541
0.182743
0.086522
0.0317233
0.0250122
22.9082
0.0222638
0.465125
0.0469404
0.246537
0.327144
3.05775
0.0217511
7.9225
0.0232056
0.0852002
5.27523
0.0374505
2.99497
0.022274
1.17312
8.40462
0.0220265
5.90134
3.16556
22.3208
0.53043
3.4232
0.0218621
0.0216099
0.0915969
0.0229265
0.0220968
7.21309
0.022166
0.100131
0.0265549
5.31587
0.0220262
0.0865871
5.72495
0.235485
5.72209
0.0220846
0.202051
0.022097
0.0230241
0.202141
0.213169
7.49786
0.0650808
0.0220299
6.36371
6.69153
0.0368909
0.0220011
6.61369
0.0271956
0.0232835
7.17359
0.0216688
0.448987
0.0219383
0.0220389
0.232287
0.0372527
5.22335
5.54332
7.60545
0.0250885
6.36886
0.0220251
8.07513
0.0222033
0.0232476
24.6064
6.86177
6.91595
0.319494
0.0218954
0.100698
6.82918
0.149567
0.104037
0.0425145
0.0455574
0.0220427
0.0218436
0.0363935
0.021846
7.09011
0.0232345
0.0218389
0.0293438
0.0218584
0.115014
0.0491267
0.085013
0.026186
0.0217701
0.021786
6.3237
7.02673
0.197223
0.0217756
0.0220305
4.09305
0.148869
0.120269
0.0218941
0.0500209
5.03532
0.0344511
0.0249506
0.0278862
0.802777
5.20515
0.0550558
7.18079
0.0628042
7.19427
0.0350884
0.0340242
0.223416
0.0225542
0.0220251
0.103371
0.400345
0.0231448
0.0216633
6.99288
3.21178
0.0522577
0.102724
0.113366
0.0521656
0.14957
0.0222532
0.0220522
0.0221002
8.05661
0.0321573
0.0228149
0.0222429
3.0294
0.0356557
0.091526
5.28012
3.75341
3.83648
6.13997
0.028912
3.1938
0.0221002
0.0217739
0.0437992
0.0221391
7.35032
0.211555
0.108501
0.0217605
0.027223
0.105873
0.144334
0.490704
0.0280202
0.0341052
24.3449
3.17535
0.0855037
0.0290976
0.0221852
0.0217991
0.390833
0.0321415
7.6082
0.0243302
0.0230303
0.100533
0.0830443
0.0219637
0.0220238
0.0708832
0.229234
6.54958
5.94627
0.0292392
2.67255
6.16459
0.0236669
0.033592
3.67562
0.0240327
0.101583
0.0220181
0.232648
0.0222343
0.0379266
0.0238173
0.0220778
0.135415
0.0220091
3.94748
0.021759
0.0866081
6.00811
7.25589
0.0287848
0.0339624
0.0222638
0.089613
0.0220052
0.0374789
10.8383
0.0289458
0.0240057
0.0221192
5.79813
0.0217456
13.7126
5.9944
0.130061
0.0222512
0.728106
5.61761
3.49194
0.0997109
0.027776
0.139139
0.122718
0.0273799
0.295984
0.0308118
6.07045
0.0898928
0.0218365
0.0240739
0.10284
2.98876
4.35424
0.021797
0.126746
0.0220216
0.118076
0.147968
0.024264
0.0359852
0.092955
0.0219604
0.0432238
0.0764849
0.312318
0.0220786
0.0220758
0.028988
4.29673
7.97232
0.0343907
0.0217856
0.145075
0.148368
0.0757793
0.0354658
4.19439
6.82136
0.0245563
0.027678
2.25691
0.0218307
0.0220998
0.0779786
0.0486267
0.0217406
0.0222316
0.0219965
0.0219984
0.0275233
0.022093
3.65655
0.0328279
0.0219347
2.95801
4.07751
0.0221825
0.0876952
6.46741
0.0226498
0.0222091
0.034043
5.5963
10.2458
0.0468223
0.0220723
2.4721
0.0220922
0.0505383
5.72535
0.310295
0.0227367
1.47134
0.551803
7.5957
0.113331
0.0444907
7.75032
4.31708
0.327758
0.0220682
6.80027
18.4372
0.764579
0.70067
0.0236975
0.0470293
0.028981
5.73216
0.0493702
0.0218705
0.0215491
0.0257503
7.03229
3.31183
0.0218253
6.93214
0.0292407
0.0281265
0.0228739
6.53201
0.143078
0.101795
0.0236392
0.0237143
2.86886
0.0221934
0.153791
0.0244804
0.0340269
0.0297078
0.0220205
0.0219313
0.118735
0.159338
0.0897215
0.682382
2.9153
0.0232022
5.76173
0.139713
0.0216947
0.309585
0.0610692
5.84491
0.0253137
0.0504482
0.238553
0.590427
0.11573
4.88072
0.0223379
0.223652
17.5285
0.0264751
4.65091
0.0279153
6.38298
0.0274735
0.0313649
0.0914877
0.20742
0.0220532
0.0243539
0.0523035
0.0273729
0.0218806
0.0345658
4.87409
0.0219954
0.033756
6.98265
0.0231952
2.22474
0.0331683
10.1058
0.024347
0.0447699
1.99124
0.15065
0.0361256
5.14469
6.51734
0.643586
0.0219661
0.1173
0.0282241
0.049466
0.0217891
23.4377
5.16287
0.553728
0.0236667
0.0925211
0.197795
7.6322
0.0216072
8.35676
0.231416
25.1067
0.0316089
0.347537
0.0220283
0.0221265
6.25284
0.19935
0.0220387
0.0232167
0.0342088
0.0218077
4.85556
0.047012
0.0601571
0.0239128
0.0223464
0.022197
0.596034
0.0219351
0.0221764
3.73815
4.81104
0.0246864
0.191182
0.022104
0.022092
0.0234009
0.0917998
0.0330895
0.0218877
0.0224505
0.184002
0.0226808
10.6706
0.0220722
0.0247745
3.5089
0.0344536
0.0215959
0.0221181
0.0238764
0.0220454
0.676843
3.73708
0.0278872
9.7597
0.0234101
0.0220505
4.59675
0.237668
0.0346591
0.0220055
4.18013
0.0342646
4.00624
0.0220458
0.0279343
0.118849
0.0281694
4.54818
0.208963
0.49636
0.0235435
0.114684
0.0219547
3.01032
0.0330285
0.0827351
0.0280037
0.0234749
0.0343525
0.0440394
0.0220939
8.05551
4.45413
10.715
6.83026
3.76368
5.94225
0.152236
0.0277985
0.0222064
3.64369
0.0220443
0.0218814
0.0297125
7.43491
0.023038
0.0225686
0.0802166
0.0373334
0.0220522
4.08729
0.0219016
5.09098
0.648195
0.0219335
0.022717
0.225833
0.312889
0.0217465
2.19187
8.38204
0.0216759
8.2813
0.178578
0.0863074
0.0235258
3.73434
5.73523
0.0216879
0.189596
0.0220286
0.0219012
3.48853
6.49887
0.0313553
0.0326461
0.0220464
0.0403069
5.16057
7.81514
0.0217522
7.02637
0.0218871
0.0220376
0.0362834
0.0248435
0.0216024
0.0233021
8.47659
0.18973
7.88578
0.0228695
0.0220172
4.28221
0.0221775
0.11714
0.0247246
0.0271954
0.0277816
3.71163
5.89515
0.0241898
8.47533
0.0226175
0.0480351
3.23653
4.0469
0.0220368
0.0219591
0.0467839
8.03103
0.182847
0.0396786
8.72748
0.0249185
0.0270204
14.5598
5.65961
0.1387
4.9244
0.117611
3.0518
0.0222176
0.234712
0.334716
0.022073
16.4101
6.61698
0.0288768
0.0341337
0.0220175
7.24277
0.0658465
16.3674
0.0219366
0.0221657
0.0264211
0.0369857
0.0220822
7.09746
0.02216
0.114219
0.0236297
0.0505072
0.0220371
0.0220525
0.0421522
7.3762
0.0362977
6.84828
0.0279829
0.0218152
0.0217336
0.0443855
0.0224508
0.0728967
0.0232929
0.0340801
0.234798
0.0221795
5.24613
0.0222534
0.0671653
7.49642
3.72387
0.0286178
14.608
0.0776465
0.220356
6.68662
0.0217951
6.15214
0.0292184
0.027015
6.65216
0.333898
0.0217025
0.0713003
0.0219488
2.95012
7.25357
0.0220841
0.0711766
4.80665
0.0222633
0.0222518
0.0475796
6.55639
3.56314
0.0222168
0.0921444
0.0225708
0.0220504
0.234401
0.0930219
0.136745
0.0215936
0.0762336
0.0443469
0.0420855
0.0226499
0.0229099
0.0628842
0.0262409
0.0837335
0.036555
0.0367658
0.115271
2.2708
0.181825
4.47396
1.84501
0.0977229
3.95427
0.0374559
3.52759
0.0886047
0.0218363
0.0267005
0.160106
0.0254249
0.0219415
0.0219388
0.0668543
5.34637
0.0248642
5.7664
0.0218187
3.66305
0.132136
6.79725
0.0716587
0.0244289
0.0231074
6.07452
0.134614
0.0359852
0.207361
0.0222478
2.5056
0.067508
0.115014
0.0280354
0.29839
0.022024
0.0222451
0.023395
0.0220487
3.25264
0.0219984
0.235096
4.18162
0.0733348
7.87305
6.24569
0.118513
0.230091
0.0285343
0.0221803
0.0220621
0.0216768
0.0217337
0.022141
0.0479564
0.109934
0.0479678
0.324249
0.0227698
3.59378
0.0222934
6.35249
0.0353601
0.0222835
0.0221336
3.75837
0.0244168
3.18859
6.48123
0.032972
0.0469121
0.021664
5.27011
0.0239541
0.0230681
0.238734
0.0221835
0.0225553
0.0217877
0.0329906
5.33931
0.0264178
0.0280752
0.238411
7.37278
0.0289673
0.0259899
3.18134
0.021676
3.10501
0.022202
0.0226857
0.426716
0.053948
0.0832202
0.0730031
0.0363894
0.0222269
0.0222935
0.0512931
0.0222448
0.0222344
0.0251585
0.238449
0.0219806
0.207272
1.8409
2.71448
0.0719708
9.20102
0.0366012
0.0221759
0.115256
0.021832
0.0243699
4.36079
2.88588
5.84993
3.31714
0.0221324
0.022066
0.064913
0.0227971
0.0218049
21.9398
0.120905
4.41151
0.068244
0.0549843
0.0220492
0.0217561
1.46979
0.0605366
0.0228446
0.0222529
0.0834293
0.130314
5.98685
0.0222442
0.022151
6.54675
0.0226302
0.0278556
0.0218131
7.41861
0.0218923
6.86552
0.0220727
0.117991
0.0305454
0.0651454
0.028076
0.0220014
0.0232395
0.0220201
0.232045
0.0226197
3.43897
0.0222869
0.438509
4.55628
0.0272187
0.0220016
6.31179
3.82304
0.0244425
0.053763
0.022061
6.00891
0.0218479
0.160545
0.0220594
0.0220167
2.38213
0.0278525
0.0221077
0.0267982
5.3503
5.00431
5.09072
0.0218022
3.81467
0.0220709
0.0219883
0.0222475
0.0215171
0.0222327
5.4322
4.5014
0.022017
0.0221561
0.0314951
0.0218581
6.27157
0.117744
4.34058
7.92191
0.0232241
0.0831621
0.0220655
0.0317649
0.107555
0.0217833
0.0222103
0.824103
6.81043
0.0456932
19.3143
0.0426518
0.0221007
0.0328836
0.0545852
8.2757
0.0269264
0.298082
0.0619253
0.0222234
16.6919
16.2877
3.98958
0.381659
3.44615
0.0234757
0.135001
0.0221816
0.277424
0.0250139
0.0218722
5.30715
0.0227059
0.0220029
0.022034
0.0225963
7.16075
0.155292
0.021854
0.0333977
5.62519
0.0227431
18.2205
0.0231259
0.0519515
6.601
0.0220956
0.229566
0.027299
0.0280527
5.8447
0.022677
0.224864
0.0442265
5.69135
0.0219972
4.09383
0.0263463
4.15272
8.17955
5.48005
0.0329314
0.0220196
0.0221389
0.0222631
0.030523
0.0221231
4.73377
0.0272944
0.0275368
0.0287537
0.0234089
0.0218015
0.0244698
0.0256724
0.0227167
0.0256499
6.99354
0.230242
0.0258622
0.044767
5.2471
0.0226117
7.2815
0.0216873
0.0311372
0.0226326
0.0218808
0.0405414
0.0220449
0.0218492
0.0443941
0.0220596
0.238226
0.0223553
17.7815
0.266899
0.125523
0.169939
0.0219248
7.50509
0.0991716
0.0222257
0.0256355
0.0224909
7.93377
0.0231321
0.0434096
0.309522
7.65083
0.0690798
0.0219909
3.66516
0.30246
3.48605
0.027299
0.0218064
0.0217416
0.0468597
0.0220233
6.76178
0.118433
0.0221967
0.137671
0.239008
0.0217789
6.68782
7.39827
0.118331
0.0223551
3.6245
0.0475587
0.0220169
6.01772
0.025836
0.0217748
0.0219185
0.0266946
0.0306129
3.85432
9.09452
0.030952
3.87985
0.0274401
0.0220096
0.0845736
0.0219457
0.906343
0.0217633
0.0220449
0.0235394
0.0222181
4.34505
5.38117
0.158545
5.99129
8.53409
0.0286735
0.021997
0.0223602
0.228564
0.0217516
0.021866
0.0371529
0.438928
0.214156
0.0216531
0.0351607
0.0281467
0.0871438
18.6791
0.0216731
0.0215929
0.0226957
0.53246
0.0251115
5.21698
0.0229097
0.0221626
0.021775
0.0219098
0.0237743
0.117282
3.09212
3.65735
0.0287628
0.0220509
2.20964
0.0220476
0.35067
4.78431
0.0299823
6.49873
3.17807
7.83449
0.0381688
0.026783
3.69325
0.0263174
0.0323405
0.0662619
0.221583
0.0222333
4.86769
0.0220125
4.21017
0.551502
0.0216909
0.0236314
0.0415764
0.235772
0.0276171
0.0221422
0.0248395
0.0232019
0.0237885
1.04953
0.0221617
3.84191
5.32095
0.0220142
0.0263132
0.0303163
0.0220791
2.84272
15.0102
7.62511
3.0018
0.0220331
0.0238224
0.0248569
0.0222496
0.159718
0.0277712
0.0222565
0.042152
0.0256845
1.7571
0.0305865
6.85888
0.0231093
0.0227878
0.049309
0.0614333
0.050219
0.0219669
16.0482
4.21087
24.9801
5.97061
4.31884
3.75487
4.19616
0.0219725
0.0220181
0.0218727
0.173483
0.0326715
0.0503516
8.54771
0.0219622
0.0216638
0.0220439
0.170422
0.0216547
0.024235
0.0232621
3.75864
0.0228189
0.0218401
0.0220831
0.0219399
0.0221627
0.0333102
0.157762
0.0324258
3.76459
0.0220276
0.0219088
4.97266
4.79324
6.01548
3.32571
0.0466641
3.62115
0.0218026
0.0554126
0.0227958
0.0220779
0.0230469
6.49891
0.0224433
0.0619842
1.10779
0.0219998
0.0218728
0.026162
0.119713
0.0222718
3.77001
0.0218605
0.154208
0.0221265
0.0220176
0.0244698
0.0906298
0.0221085
0.25047
6.922
0.147951
5.1568
0.0220302
7.20573
0.224563
0.022044
0.57067
0.0222449
0.0419279
0.0221918
0.0219362
0.021956
0.0220517
0.0222471
0.0270213
0.0448785
0.0220289
0.0220984
0.060288
0.0216844
8.4521
0.0221277
0.0271575
0.027383
4.93952
0.303517
0.0221459
0.119951
0.0218089
0.0260223
0.0601813
3.07866
0.0340272
0.0222722
0.0734873
0.0732136
0.0544545
0.225746
0.0341418
0.0998507
0.0395932
0.045335
0.0227792
0.0217873
2.30137
6.62542
0.0236112
0.0220128
17.9246
0.0218208
0.0317813
0.0219497
0.0686869
0.741677
0.0215509
7.58718
0.0241745
0.0221701
0.107043
0.0218732
0.0399499
2.90922
0.0313472
2.60504
0.0219505
0.0222646
0.0436118
0.0222254
0.0222466
0.0247751
0.0258945
0.0453215
0.072076
0.022061
0.0351726
0.0217822
0.0220582
0.0222143
0.0220472
0.826809
0.0217864
0.0231697
0.18636
0.0218161
0.0220011
4.51468
0.0222497
17.2898
0.0225301
4.42849
0.13923
0.0502925
1.47276
0.0522576
1.82703
0.0221085
0.131518
0.0252147
0.0217777
0.0218659
0.0231646
0.0264306
0.021933
0.0464594
0.0218952
0.0227496
19.0434
7.52778
3.29887
0.0230043
0.0462809
5.03412
8.40671
0.0221716
0.0240996
1.73228
0.0219742
0.0335731
0.872566
3.64511
0.024417
0.0315338
0.0225338
0.242173
0.022285
0.0341309
0.340322
0.0221241
0.0218313
7.8688
0.0355235
0.163356
5.22412
0.0668053
0.0223647
0.0218999
0.0220387
6.08409
0.312788
1.3385
0.0462423
0.0220467
5.11098
0.0221096
0.116012
0.0266352
0.022572
0.0320662
0.0220532
6.54857
8.13501
0.0216527
0.0463285
0.0332791
0.968731
0.0354263
0.0394925
0.162053
0.0273783
0.226876
0.0407961
0.022112
0.0280305
0.0822485
3.79727
0.0220287
0.260104
0.0372363
0.0415784
0.0222725
9.18946
0.0239811
0.0233111
0.0218147
0.0344955
0.033091
0.0523665
0.0221271
0.0224692
0.0491615
26.1927
0.0495916
0.0221566
0.0226131
0.0279809
0.137617
0.0221703
0.0735818
1.91104
0.0425508
3.91332
0.0302734
6.84748
0.219883
0.0219714
0.495376
0.0222385
0.0240777
0.0267721
0.0279456
0.0705102
0.033047
0.0391574
0.0404411
0.0271109
0.0236273
0.0216493
0.0783937
0.0236602
0.0280546
0.284352
0.0248176
0.0287451
0.0219343
4.26775
0.0672879
0.0220611
0.0232967
0.023294
5.59364
0.116325
0.0267749
3.39821
0.216249
0.549855
0.0633255
0.230469
0.0218787
0.299833
0.0218589
0.0268219
1.66062
2.81481
0.20701
0.879971
0.0221219
6.75781
0.0218755
0.0534718
0.0245228
3.53179
5.57539
0.0239694
0.0220221
0.199099
0.04256
0.0220123
6.15886
0.0220727
0.0233852
0.0236591
0.0221907
0.0271653
0.0233498
0.022043
0.031587
0.29717
0.0304616
0.0496227
0.0220077
6.0048
2.85664
0.0220024
0.190657
0.0244752
0.0287226
3.27857
0.0219988
0.0225772
0.0273053
5.16981
0.0220236
0.0221825
0.0316502
3.44423
0.0219855
0.0307941
0.0319726
0.276091
0.0373494
0.0316657
0.135707
0.0220777
0.114323
0.0217073
6.19801
0.0269464
0.022049
0.0243983
0.0717863
0.0221501
0.0219571
0.0902599
3.41971
0.0220385
5.46025
0.0221871
0.0216965
0.0460606
0.0220282
0.0217853
5.51824
0.0222735
0.0308637
0.104764
8.27275
0.259168
0.0217413
0.023992
0.0276943
0.0220726
0.0220222
0.0220927
3.18995
0.0221944
0.213244
0.0754725
0.0218231
0.0216927
0.0264829
0.0757206
0.189589
0.051947
0.0494723
0.0233485
3.61735
0.0658148
0.0260095
0.0304153
0.0574644
0.0658645
22.805
0.0296148
3.32911
0.512521
7.59624
0.023256
0.0219107
0.0317234
0.0341086
0.0217514
0.0220431
0.115656
0.0222432
0.0221214
0.0220461
0.0215944
0.0226556
0.0218951
7.64649
0.0220189
0.822225
0.0220801
0.0771672
0.0222513
0.0767173
0.0690582
0.0220247
4.5305
0.023971
0.0222251
0.0301283
0.0217738
0.0296479
0.0218539
3.21431
0.0235296
0.0323751
0.101797
4.45729
0.0270437
0.2295
0.26985
0.0446833
0.021924
0.0224199
0.0975868
0.0470077
7.54606
0.0217422
7.36491
0.0220175
0.0843159
10.4763
0.0312296
3.46733
0.0243328
0.0271352
0.0242061
8.356
0.0276724
0.0221419
0.0436592
0.0930466
0.0228243
0.022033
0.0221428
8.28776
0.0222519
0.026373
4.97465
0.0252827
0.021966
0.0492355
0.0240113
3.46219
0.0216629
0.0220059
0.0218566
0.0260046
0.0220979
0.0219383
0.0426461
4.58118
0.0219505
0.0221043
1.05725
0.0219813
7.15761
0.022808
9.46926
0.0218198
0.0238683
0.021806
3.39644
5.08681
0.0288857
0.0657712
0.0268896
0.0219109
0.0221178
3.29472
0.0221367
0.0533137
0.0217712
0.0314279
0.0221889
3.01172
0.0218292
0.0322715
0.0218409
0.399175
0.62579
0.0217614
0.0403402
7.07266
0.0448154
3.70844
3.41717
0.188057
0.0233722
0.028138
0.0644948
0.318782
0.0219556
0.0293839
0.027712
0.021923
3.65028
9.44027
0.0459208
0.0965696
0.206077
0.0300681
4.25533
0.0217462
0.0217592
0.0731093
7.81728
0.135447
0.114404
0.295819
0.0218025
8.87753
3.47553
10.9157
0.0222026
6.20426
8.89917
0.662508
3.83067
3.71829
0.0550093
0.0269321
0.115069
0.025498
0.0219359
0.493667
0.0595566
0.0216355
4.64837
0.0221876
0.0280198
0.0313954
0.0263104
0.310179
0.033795
7.34844
0.0320564
0.0260591
0.254677
7.12783
0.088074
0.0223846
0.025673
0.0513782
0.0535234
0.0218255
0.037253
0.0580488
0.101801
0.0219462
0.12223
0.023759
0.0435621
3.84894
0.223031
0.0230875
0.109125
6.08263
0.022125
0.022548
11.0236
0.225251
0.0234239
0.023421
0.022088
0.0635683
0.0235868
3.1404
0.0710434
0.0224504
0.0222232
0.0650659
0.0277686
0.229368
6.49081
0.0218497
0.0220267
0.0258024
0.0221939
0.0231818
0.0226223
0.0223583
0.0255752
0.0219164
0.0242168
0.0221784
0.0332318
0.318865
0.0222641
4.61351
11.8492
0.0217061
0.21762
0.107494
0.0719192
0.02261
0.0592026
0.0245275
0.075464
0.0257214
0.0227383
0.0222093
7.5078
0.0249021
2.96201
0.0226063
0.0220343
0.0220152
0.0612573
0.0219453
0.0357973
0.0408848
1.41886
0.0219056
0.195965
0.705283
4.24752
0.0217961
0.102992
0.955674
0.664017
0.37365
0.0225633
0.0221423
0.129508
0.291304
1.56353
0.0307463
0.198662
0.0222315
0.0217856
0.0368951
0.022195
0.022143
0.117998
0.0222652
0.0862339
0.0218101
6.64029
4.88197
1.4502
3.84144
4.29801
0.0221192
0.0221434
4.4156
0.021751
0.0217691
0.0216957
0.100476
5.46199
7.08768
0.0270823
0.0219129
0.0227242
0.0348049
5.00172
0.0220357
3.44509
6.7366
0.0221879
0.0221777
3.78997
0.0510513
0.0225453
0.0220354
4.93643
4.83629
0.0218713
0.121386
0.0222533
4.15078
2.33912
0.0227095
10.2007
8.02752
1.47971
0.0218009
0.0219496
0.0222445
0.0222862
4.92404
0.0218858
0.19631
0.23174
8.40248
0.022296
0.0484648
0.211624
0.0376436
3.82991
7.74342
0.0216385
0.0237387
0.023832
0.0983712
3.96826
0.021584
4.96124
0.0302814
0.0312059
0.0226243
0.0219448
0.188618
0.0331347
6.35494
0.0221949
0.0454681
0.0222488
0.0772222
0.0230561
4.44075
0.264388
0.214086
0.062897
0.021941
0.0233984
0.0560578
0.200726
4.16416
6.24365
0.0221491
3.52461
0.0881846
8.1968
0.0243118
0.0353117
0.0317136
0.0219487
3.19629
0.0220654
0.0270639
3.09609
6.3365
0.562724
5.49477
0.0268449
0.0351681
0.0217181
6.76445
0.0260485
0.397418
0.0217079
4.12075
0.0215564
0.021993
0.0268739
0.0306852
0.0312084
0.0219383
3.40808
0.0316581
0.0218893
0.0326063
3.53347
0.48236
0.0220271
8.56051
0.0236453
0.0273954
0.0265762
0.0216921
0.0490067
0.0219853
1.38447
0.0718248
0.0242784
0.0220219
0.236114
0.0311088
0.0217069
2.217
0.323175
0.140604
0.0216405
0.266287
0.0221399
0.114494
0.0245651
0.0998056
0.367117
3.58795
0.0338673
5.42517
0.0432769
0.0273167
0.0218087
4.43529
0.0962854
0.0729583
0.0599705
0.0222434
3.53333
0.0669727
0.235087
0.180912
6.93104
3.35745
0.815758
5.9768
0.0277363
0.0308852
0.0220933
0.0219384
0.0216001
0.107737
0.0275479
0.031972
8.71703
0.0219195
0.0218518
0.0305863
0.0926421
0.0248441
0.0217976
6.73862
0.0232313
0.0332409
0.0221387
6.88302
0.0280704
5.33514
0.0525124
0.0280288
0.0446569
0.0220859
9.25068
0.206337
0.0524166
0.0219951
0.0219075
6.57861
7.60527
2.94099
0.0217849
0.0535717
0.241151
0.0219087
0.0220034
0.0219978
5.35361
0.0954271
0.0311608
0.0245448
0.0238796
4.28452
0.0732487
0.144205
0.0240598
0.0271096
0.0215888
0.104338
0.04568
0.0220036
3.22756
8.01509
5.16533
3.454
7.78437
9.77409
5.12547
0.0231239
0.0217632
2.80673
5.29786
0.386
0.0220197
0.0306814
0.0220511
0.021946
3.34689
6.45371
0.0430974
0.0219946
0.206697
0.0612584
0.0364674
4.16231
0.412754
0.194268
0.0219128
4.45095
3.00744
0.238057
0.0265587
0.0320544
0.0221794
0.0218622
0.0313676
0.0352462
0.023701
0.0300694
0.0248011
0.0243666
0.171611
3.83341
0.0304077
0.0309347
4.29717
0.148812
0.0221126
0.439087
0.806538
4.32025
0.0330724
0.021979
0.0257481
0.0251723
0.0290315
0.0216898
0.0330189
0.0261707
0.0326484
0.185226
0.0222305
0.0226097
3.45286
3.40639
7.19289
0.210422
0.0727043
0.0215427
0.022049
0.0263715
0.0217142
7.71038
0.0220358
0.0222732
0.0217141
3.15824
14.1041
0.0223688
0.0420732
0.0262387
0.0334252
0.0263713
0.0348558
0.0304052
0.031333
6.1487
0.0240249
4.93577
0.0329616
7.4036
0.0262822
0.0219334
0.0218053
0.0613064
0.0911211
0.0218191
0.0370138
0.0263064
0.0463504
3.78735
9.97668
2.83311
0.022273
0.280482
0.0283311
0.0324036
0.0220226
0.0525207
0.0232731
3.29136
1.77496
0.035147
0.022076
3.36601
0.0271385
4.13178
5.17795
0.17986
0.0236691
0.0855594
3.92923
0.264207
3.78158
0.0461579
0.0218746
0.0334103
0.0217778
9.40472
0.0240309
0.0278334
0.212487
7.83085
0.0218511
0.0219275
6.36842
0.0335831
10.4203
0.0326001
0.0220362
0.0334526
0.129129
0.0423238
3.28562
0.031797
0.248772
0.0238004
0.0222444
0.0219106
0.193331
0.0226262
0.106292
0.0220493
0.0219273
0.190307
0.0239125
0.0219568
0.022032
0.0308163
0.236548
0.0311779
0.031317
0.0260292
0.0457842
0.0220024
0.122608
0.0265047
0.0324129
0.0676092
0.0248001
0.0742576
0.0436136
0.0217655
0.0446539
11.1443
2.88574
0.0219397
1.12683
4.08801
0.0219409
0.0226468
0.697512
4.07245
0.0277762
3.80595
0.209966
0.0218826
0.0544166
0.0215994
0.0239951
0.0452054
2.44793
0.439282
0.219186
0.203253
3.34671
4.26841
0.0225901
3.60503
0.0220317
3.14317
4.4001
0.0220971
0.0220827
3.05679
0.0221179
0.022083
0.185864
4.26344
0.13058
0.0239153
4.35916
0.0221033
3.5457
3.65468
0.0221899
0.260997
0.77851
5.29489
3.19729
3.51582
3.25391
0.0218668
0.0231589
0.0446101
0.0436529
0.0220773
0.151527
0.0220354
3.39713
0.178367
0.047374
0.167255
3.30235
0.175548
0.15797
0.0588268
8.75375
0.298696
0.0235137
0.021636
3.19114
0.0327457
0.02175
9.23464
0.0219568
3.21688
0.0221435
5.81608
0.0235893
0.0219648
14.587
0.0272638
0.0342688
3.35319
2.10697
1.20905
0.02459
0.0325934
0.02314
0.0298692
0.0800661
0.0301456
0.0222095
1.38837
0.0431485
0.0302489
3.64171
0.0311098
0.0348224
0.157243
0.0518123
0.032024
0.0219601
0.133887
0.0218033
0.0788606
0.231923
4.52114
0.0218647
0.0317626
6.18473
0.0225382
0.0494963
0.0261688
0.0329496
4.35087
0.0423276
0.0233744
10.2335
0.0218766
3.32959
0.0221234
0.0224457
0.0775973
2.96948
0.029465
0.368498
0.472511
0.0261836
0.0220183
0.145935
0.0352518
8.39085
0.0264217
6.56791
0.0894226
0.0261633
0.0258936
0.0875008
0.0315428
0.0711391
0.0419481
0.0359097
0.0233533
0.0219106
0.897017
0.0219931
0.0258024
0.0216143
0.0688757
0.0258621
0.0412913
3.85622
0.02304
0.1346
0.021534
0.0221482
0.022188
0.0222063
0.0240976
0.0219313
0.0551592
7.08805
0.0406414
0.033136
0.0233899
0.0219499
0.222548
0.0219927
3.30087
0.86462
6.34399
0.0954644
0.0307257
0.0243833
0.0221766
0.0289448
0.0915612
0.0354764
4.86275
0.0401061
9.12943
0.0989364
0.0222099
0.0218356
2.94545
0.0219214
0.0257003
0.0637473
0.203368
0.0225593
5.01035
0.0221735
0.0245019
0.0220536
0.0225381
0.151739
0.0684482
0.0220704
0.0267065
0.0346151
0.0331861
0.0392481
0.410679
0.295594
0.192361
0.090941
0.0240133
0.0225723
0.0388885
2.92571
4.19999
3.46442
0.0264095
0.350384
0.0681205
0.0223266
0.0219866
0.04223
0.0221424
0.0266951
6.86181
0.0219478
0.0217664
0.297446
3.34313
0.0333212
0.570601
0.0221135
5.30398
0.034957
7.37761
0.0289164
0.0219923
3.58867
0.0586089
0.0220187
0.0640368
0.0222525
0.126117
0.0261796
0.0552541
8.69223
0.0327043
2.63663
0.0219175
9.15984
0.0221119
0.0243299
0.0222875
0.0373969
0.0221432
0.052031
3.28156
0.81822
0.0366889
0.0292948
0.0732016
0.0218551
0.0219188
0.0224342
0.251206
0.0235743
6.23894
4.44971
0.110613
0.0222148
0.112225
0.160125
0.0941931
0.0238981
4.95952
0.0219505
0.0215471
0.0219382
0.538636
0.0219459
0.0219966
3.44185
0.0219599
0.114007
0.092829
0.0217364
4.32341
0.0249112
5.85219
0.0218646
0.29577
0.022487
0.0695177
13.9609
0.0448258
0.0219281
0.0244203
3.41981
0.0265988
0.113577
0.0264635
0.0247562
0.114231
0.0276765
0.0219832
26.2418
0.0263529
0.0248754
0.101755
0.0219513
0.0218347
0.0221888
0.0261753
0.0221051
0.0251179
3.63078
14.574
0.0966528
8.52939
0.0416689
0.027784
7.97355
8.28587
0.0224065
9.91388
1.01957
3.55385
0.523056
0.027163
2.87078
3.66821
19.6238
0.511501
4.95732
0.0408043
0.0777292
0.0286007
0.0238849
0.0221315
0.899798
0.022285
6.18578
0.113274
0.27703
0.0216052
0.0484629
0.0434639
0.0235837
0.0222931
0.0221183
0.112954
0.0227016
0.0220056
0.0303836
7.66077
0.0231137
0.124566
0.0218227
0.117436
0.0772935
0.0221342
0.0256179
0.0219349
5.75541
4.52944
0.101404
1.87995
0.0309392
0.058352
0.0221318
0.0306342
0.0220474
0.0221334
0.0222328
4.474
0.0217591
0.0330603
0.537625
0.0263911
0.0261919
0.0219872
8.83212
0.131967
18.2131
4.47175
0.116881
0.173738
3.96564
0.193926
0.22978
9.70119
0.11389
0.0340631
0.428369
7.12694
0.0220403
7.11738
0.121151
5.08689
0.021621
0.0423526
8.72692
0.022273
6.14599
0.0253351
6.37859
0.0220911
0.0221129
0.0522023
0.194981
0.0242044
0.048057
0.0217565
0.0219731
3.20255
3.96603
11.3053
0.0374838
0.0219742
0.0224216
0.0221342
0.0337227
0.967624
4.48061
0.413784
0.388467
0.0280551
0.02195
0.0219809
5.9953
9.12933
0.191018
0.026215
0.0239441
0.0771053
6.9953
8.01103
0.0215418
0.0219441
5.89458
0.0225859
0.210895
0.0273166
0.022021
0.0300755
0.0442605
4.62117
5.84754
0.0222021
0.0217656
0.023694
0.209166
8.2686
0.0222649
0.10009
5.27007
0.0215479
3.31398
3.67148
16.8929
0.0221099
8.09899
5.77366
0.035809
0.266884
0.0232476
0.292836
0.19344
0.0237372
0.0219248
9.61069
0.296885
0.021838
0.0888995
0.0998405
0.0258443
0.15198
5.64231
5.10673
7.57487
0.0248193
0.0235263
0.0224846
5.27275
5.49739
5.36489
6.80986
4.70938
0.0217063
0.0320626
0.0220665
0.0221141
0.0242667
0.0219575
0.0220551
0.0221687
4.10312
9.36003
7.51628
0.0524668
0.118289
0.0360884
0.0218329
0.0219853
4.38677
0.0221371
5.55404
3.3796
0.0221784
0.0218343
3.20497
0.0223668
0.425057
0.024208
0.0217453
0.0217021
4.67143
0.0216768
7.69099
4.36386
0.0215838
0.0345913
0.0218566
0.022407
0.0217959
0.0926104
2.84589
0.0219615
6.06211
0.387779
0.0235555
0.0218249
0.022525
0.0229578
0.0222258
0.297108
5.33563
6.99265
0.0307011
10.8763
0.0222724
0.0238839
0.0219801
0.138015
0.0231865
4.25624
0.0218557
3.57798
0.190858
6.70104
0.105748
0.0218523
0.0356058
0.0218713
4.56203
0.0219366
0.0268396
0.0247725
0.023894
0.0220426
0.0222509
0.0312721
5.88066
0.0221827
0.022481
0.0230038
0.0316848
0.112095
0.0221873
6.83534
3.2475
0.0230448
5.08078
6.16085
3.49698
3.39775
0.0215569
0.0227993
3.6117
3.99969
0.102593
3.46045
4.15783
0.0300736
0.0368424
0.0261307
3.89402
0.0220294
0.0219628
3.91425
0.0814488
6.56299
0.0233862
0.0217064
0.0220396
6.25926
0.0475246
0.0237087
0.180221
0.0217816
0.0420716
0.0263762
0.0264982
0.0218733
0.022188
0.0219085
0.0234099
1.09
3.79656
0.0215906
0.0218512
7.18572
0.0220006
0.0577629
0.0259144
0.0254829
0.0297294
0.0222857
3.84878
0.0257918
0.0252376
21.7775
0.0565336
0.0229668
0.0273128
0.0220183
0.0223137
11.6274
0.272924
3.0234
0.0220718
0.0221528
0.0492177
0.0267618
0.022023
0.0299581
7.63362
0.0247532
0.0349298
0.0246689
0.0769436
0.0221154
0.0216924
6.45516
1.20325
1.06813
0.0219499
0.0961363
0.0216267
0.0220138
0.0476598
4.57753
0.0463889
0.0256866
0.0976071
0.0223518
0.0257405
0.0516794
0.708408
0.0221058
0.021644
0.0225162
0.0239252
0.0246278
0.0219453
0.939194
12.3369
0.0219594
0.0308457
0.022414
0.0216558
3.58992
4.80445
8.82982
0.0513627
0.0223917
0.0394918
7.04643
0.0719622
0.0677889
0.0324696
0.0287217
6.1541
0.135705
0.480462
0.021758
0.0294389
0.0221139
0.0270586
8.9863
0.0216332
0.0368443
0.0253717
0.0282842
0.0228299
0.0217561
0.0218715
4.04404
0.0339469
0.0261542
0.0462272
0.0327061
0.375594
0.0297865
0.434355
0.0219029
9.09141
4.92836
3.59739
0.0222645
0.0269912
0.0220837
0.021924
10.1902
0.034359
8.83749
0.021982
0.043165
0.0999768
4.86707
0.0274181
0.0216496
5.23787
0.0222851
0.0222841
0.0224086
0.0220284
10.1171
0.0217951
0.0218527
0.0337656
0.0267282
0.120173
0.104884
0.0323067
4.84343
0.0218875
0.132105
0.0217471
8.51945
0.0310551
0.386197
0.0969241
1.90034
0.0699647
8.65457
0.0225469
6.04196
0.0312111
6.3781
0.149757
0.0277775
0.157748
0.0220962
11.9583
0.0225715
0.0328551
0.0265909
3.87286
0.0949883
7.44241
0.0298945
0.0220026
6.19255
0.171278
0.0399915
0.102344
9.62793
8.89397
0.0358423
0.18951
0.032791
0.021854
0.0418468
0.189435
0.060862
21.965
0.0978642
0.0217772
0.0218561
0.110261
0.0220852
1.17878
0.0639044
0.022084
3.1828
0.299117
3.42181
0.0882663
0.0218941
0.0283687
0.0255151
7.66337
3.12308
0.0254664
6.58064
0.0218251
0.030818
0.51883
0.0219913
0.0335439
0.0219182
0.024857
0.0222512
0.142678
0.252055
0.0294626
0.028252
0.0217025
0.109294
0.0218412
0.0218086
0.0318718
0.0219107
0.156236
8.47196
0.727808
5.08861
0.0217671
9.21378
0.0221885
0.0370033
0.104247
0.0219171
6.51717
0.0608071
0.0219921
0.0216452
0.0335611
0.0347872
0.148597
0.181646
0.0256662
0.0234424
4.45082
0.0430008
0.159798
0.4955
8.70998
3.71819
8.97329
0.568849
0.0221517
0.0221136
0.0410002
0.0221417
0.0432928
0.0296766
7.43489
9.43512
6.23799
0.0216814
0.0217498
0.0956257
0.217479
7.58108
0.547462
3.06363
0.0540806
0.0318607
0.551214
0.192525
0.0242426
7.94932
0.0321684
0.0265025
6.09593
0.0313309
0.0218663
4.17286
0.62605
0.0233157
0.10897
0.0232423
2.69987
5.36293
0.364406
0.0220041
0.0216821
0.0861289
0.0220066
0.0218471
0.0220111
0.0217198
0.0220173
0.022025
8.89509
0.0264407
0.0441748
6.56518
0.0218881
0.0220345
0.027141
0.0240376
0.024194
0.0220435
0.0558944
0.0284403
0.0260835
0.078569
4.9046
0.0220555
0.0322825
0.0220684
0.0220294
0.0215889
0.0220816
6.75948
0.0218427
0.0220156
0.0220955
0.0388896
5.98047
6.23486
9.22912
0.519144
0.0336748
5.38718
5.71467
0.0219447
0.0403772
1.8642
0.22605
0.0221103
0.0250953
0.0322856
0.0364154
0.0220576
0.0316942
0.0553836
0.0428607
0.021636
0.0446048
0.34181
0.0215903
0.510419
7.26749
0.0402756
0.623281
0.0315423
0.022089
0.0238809
0.022
0.186297
8.87989
0.0216728
0.0407372
0.0219572
0.0219785
0.022147
0.0222858
0.0348068
0.0221715
0.101657
0.111174
0.0246539
0.0238932
0.0353649
0.0220431
0.042926
0.0271683
0.0222065
0.0221004
0.0221403
7.02221
0.0220009
0.153674
0.0316192
0.022253
0.0220047
0.0217256
5.02604
0.0243933
0.0415361
0.0440139
8.90948
0.027719
4.83631
0.472241
0.0420333
0.0219598
0.136587
0.0328233
5.12868