/*--------------------------------*- C++ -*----------------------------------*\
| =========                 |                                                 |
| \\      /  F ield         | OpenFOAM: The Open Source CFD Toolbox           |
|  \\    /   O peration     | Version:  v2012                                 |
|   \\  /    A nd           | Website:  www.openfoam.com                      |
|    \\/     M anipulation  |                                                 |
\*---------------------------------------------------------------------------*/
FoamFile
{
    version     2.0;
    format      ascii;
    class       volScalarField::Internal;
    location    "400";
    object      V0;
}
// * * * * * * * * * * * * * * * * * * * * * * * * * * * * * * * * * * * * * //

dimensions      [0 3 0 0 0 0 0];


value           nonuniform List<scalar> 
13851
(
0.0936142
0.0503784
0.0154278
0.0940646
0.012807
0.0873563
0.0775784
0.0208049
0.166984
0.0233446
0.173378
0.0180942
0.0051001
0.0064864
0.169194
0.0350678
0.0444152
0.0594436
0.00823034
0.167117
0.106917
0.0170078
0.165222
0.18708
0.157796
0.0239653
0.0316895
0.00097283
0.0914585
0.0640523
0.0858172
0.0421926
0.0189962
0.10518
0.205709
0.00540451
0.00431037
0.0113364
0.0196138
0.134551
0.1018
0.170993
0.00132163
0.162855
0.15944
0.00300582
0.155609
0.111546
0.0301998
0.145793
0.0112193
0.00683573
0.00137865
0.150067
0.172545
0.169768
0.16944
0.00212387
0.0744974
0.0763019
0.0127278
0.00548707
0.0664116
0.00933309
0.0427391
0.0824759
0.00343636
0.165865
0.0214191
0.062387
0.00128372
0.00338084
0.0478612
0.170759
0.171303
0.119477
0.0113602
0.0016751
0.0164041
0.00137906
0.073623
0.166359
0.122089
0.00271532
0.0624417
0.0166856
0.0888952
0.0272106
0.0389233
0.183283
0.00526297
0.109344
0.128871
0.0248757
0.0414136
0.155575
0.0121541
0.00301039
0.125658
0.184482
0.00375382
0.0147514
0.0798323
0.0292145
0.163036
0.0942826
0.0132222
0.183535
0.00289519
0.0844339
0.157523
0.18565
0.107183
0.194376
0.162628
0.0680366
0.00390234
0.135082
0.171615
0.153241
0.00135836
0.0363379
0.00515678
0.107896
0.103285
0.175862
0.10689
0.0130697
0.0899926
0.00799495
0.114233
0.161694
0.00133756
0.127503
0.0698659
0.16598
0.166151
0.00332991
0.0067586
0.0101743
0.0033581
0.187405
0.137255
0.162509
0.0535791
0.157093
0.186939
0.0106884
0.0917058
0.160253
0.00841223
0.166215
0.00518321
0.149728
0.0387797
0.0603016
0.123256
0.0596643
0.00686365
0.011893
0.173081
0.0198381
0.00166189
0.145792
0.063937
0.169855
0.197691
0.0203664
0.0913078
0.00301016
0.00136884
0.144499
0.119903
0.00907871
0.150384
0.105108
0.0169747
0.106341
0.00785441
0.18087
0.0353348
0.0031221
0.113749
0.0119781
0.170536
0.165214
0.0793157
0.154532
0.0118959
0.0288818
0.1498
0.00151949
0.153547
0.0187605
0.00685814
0.0485749
0.136072
0.132503
0.126948
0.119546
0.175113
0.00387216
0.168241
0.113736
0.0239507
0.11577
0.00927191
0.0407732
0.00193308
0.178671
0.00249074
0.0930714
0.139061
0.192628
0.178643
0.164854
0.0672847
0.00284121
0.127355
0.00192768
0.0328193
0.0652832
0.00250994
0.00752128
0.00220595
0.178237
0.0268905
0.163523
0.00138185
0.178399
0.0248746
0.0449242
0.142317
0.151535
0.0107287
0.0486599
0.00851132
0.035123
0.177277
0.101335
0.0877351
0.13504
0.194625
0.0214803
0.16224
0.00163728
0.0138948
0.127105
0.0565483
0.0452414
0.120945
0.126851
0.0565354
0.0527912
0.0134473
0.0655513
0.0336805
0.00309476
0.0012399
0.122666
0.166792
0.0734379
0.0781845
0.175417
0.00669159
0.0420784
0.0559415
0.0247377
0.00259658
0.142026
0.119901
0.0439517
0.0885708
0.0166242
0.0378541
0.150171
0.17169
0.154824
0.00224298
0.148271
0.146697
0.191139
0.162517
0.0133846
0.0903324
0.0975092
0.153699
0.127104
0.0897298
0.18752
0.00851101
0.0567301
0.0645504
0.0198293
0.142723
0.00695986
0.0369424
0.0178376
0.141372
0.00176433
0.0190429
0.039994
0.00228536
0.0793289
0.0937656
0.00246763
0.152063
0.0144487
0.0298988
0.061539
0.00772751
0.0294262
0.0569691
0.0028984
0.165349
0.0389126
0.176007
0.00263958
0.00614442
0.123858
0.0130537
0.131934
0.00179462
0.120513
0.172542
0.110024
0.0069574
0.0268187
0.0378312
0.128545
0.0834554
0.0663152
0.195945
0.00413027
0.00390527
0.065891
0.00266192
0.00672219
0.149027
0.0181415
0.00843422
0.0893921
0.0406382
0.00646637
0.00741191
0.109358
0.0734377
0.00204228
0.162045
0.150865
0.151031
0.0120795
0.0374025
0.0397994
0.00140403
0.118924
0.0783982
0.110406
0.140902
0.16921
0.169242
0.133716
0.00212682
0.177783
0.0869569
0.017346
0.168166
0.016223
0.0361851
0.0926263
0.00361927
0.0846705
0.0395659
0.0285123
0.107819
0.121176
0.133605
0.099209
0.00296942
0.184107
0.00837153
0.100683
0.00583651
0.00320477
0.155782
0.159547
0.0967278
0.139522
0.14606
0.0675856
0.0104612
0.00587622
0.0206714
0.0025279
0.0022728
0.126256
0.0977339
0.00371274
0.0013546
0.0423382
0.00364583
0.104962
0.0264556
0.167457
0.00752149
0.133398
0.0267977
0.103995
0.0836393
0.167611
0.141572
0.126406
0.00834034
0.0459645
0.00161922
0.0686231
0.0117895
0.0841803
0.118027
0.0442055
0.0139202
0.0405828
0.161575
0.174918
0.147641
0.163569
0.0104839
0.128576
0.00905828
0.0792374
0.0015534
0.101676
0.0903058
0.174755
0.00835765
0.120545
0.122722
0.180308
0.0161097
0.141651
0.0182694
0.00154721
0.127412
0.161886
0.159972
0.00368502
0.185443
0.0249864
0.0144796
0.131652
0.140152
0.06499
0.0086486
0.00693426
0.0632331
0.0172024
0.187603
0.108459
0.00169152
0.0558956
0.181169
0.0238243
0.133447
0.0798791
0.144151
0.0459755
0.0602085
0.167722
0.127534
0.00366527
0.105334
0.0181116
0.159853
0.0766776
0.167226
0.167943
0.107993
0.179098
0.172067
0.100642
0.0643499
0.0928301
0.112952
0.176049
0.00407173
0.00137275
0.100874
0.0870116
0.0417949
0.128479
0.00279581
0.0914774
0.159615
0.115928
0.0116213
0.0749574
0.00170051
0.174362
0.00121204
0.0296512
0.163534
0.0875762
0.00301775
0.02086
0.138032
0.164374
0.111189
0.17838
0.145027
0.151241
0.0845015
0.00138028
0.0115029
0.00649617
0.00406079
0.0625877
0.183245
0.00621356
0.13209
0.0321906
0.0234838
0.110696
0.110969
0.00283059
0.147592
0.00212731
0.00285203
0.00333161
0.0402433
0.0671097
0.114958
0.163995
0.075025
0.128997
0.0150483
0.0584356
0.0149646
0.0034584
0.172014
0.159383
0.0114363
0.00129591
0.0523755
0.124691
0.12929
0.0921443
0.0115426
0.0473584
0.0310698
0.0170427
0.154922
0.00183206
0.00166533
0.0944061
0.141031
0.0193877
0.128287
0.145205
0.153558
0.00578461
0.0291958
0.00715476
0.0042874
0.165615
0.0828694
0.10502
0.0144903
0.00900961
0.00132598
0.00302053
0.109684
0.0829454
0.0254674
0.0020404
0.00559006
0.0168534
0.0627982
0.167287
0.128278
0.0140604
0.175653
0.0535274
0.178352
0.14886
0.00273091
0.0104286
0.0852182
0.158542
0.00758593
0.128828
0.138969
0.142769
0.16573
0.152461
0.0028367
0.122732
0.13088
0.00367638
0.114104
0.019359
0.00123308
0.00146686
0.077271
0.0196616
0.127306
0.173637
0.0295212
0.00395515
0.0776156
0.00760209
0.0269439
0.145872
0.0388595
0.12603
0.131119
0.00953868
0.116758
0.0663249
0.137982
0.0231003
0.00734402
0.0807276
0.110805
0.0325293
0.0625414
0.0112063
0.0108639
0.00617735
0.0386668
0.00526155
0.143443
0.0523266
0.102885
0.00293759
0.100102
0.171442
0.00281949
0.0660076
0.00196173
0.00188092
0.00265545
0.0262923
0.128784
0.00302682
0.127826
0.150005
0.165809
0.148247
0.146447
0.0690588
0.0500288
0.161861
0.00989595
0.0282812
0.00828463
0.127816
0.157767
0.138682
0.0101741
0.00645752
0.0106622
0.0232333
0.130522
0.14219
0.153871
0.0928247
0.00401192
0.0136635
0.0617609
0.171673
0.081477
0.128192
0.0162279
0.00155093
0.0354283
0.00407961
0.111188
0.116396
0.00737018
0.00299612
0.0199133
0.0155686
0.0731519
0.0627455
0.0115964
0.0687179
0.13578
0.109064
0.130671
0.184243
0.0158151
0.00165834
0.130318
0.0612715
0.0642636
0.143062
0.0375062
0.0870817
0.00686311
0.00997354
0.00708379
0.144358
0.16965
0.131813
0.00444056
0.00407431
0.0471001
0.00192465
0.156208
0.13569
0.169977
0.118448
0.00351458
0.0480993
0.0824791
0.156856
0.0395676
0.122951
0.00201304
0.0487158
0.00167681
0.156069
0.0665053
0.00126306
0.00122077
0.00494576
0.121687
0.00256446
0.126077
0.162845
0.0145671
0.0184932
0.0428688
0.00274711
0.0882342
0.12783
0.00436002
0.171764
0.172904
0.0595811
0.131475
0.00202331
0.0240962
0.00915054
0.0729945
0.156015
0.143576
0.0841612
0.177974
0.110027
0.162059
0.111
0.154395
0.00184729
0.129873
0.132533
0.0952767
0.0814084
0.00131077
0.152926
0.12505
0.00646395
0.0160286
0.134869
0.154663
0.0786694
0.00442602
0.0573781
0.00281577
0.0175104
0.132428
0.104152
0.00118698
0.093768
0.0431154
0.149044
0.16647
0.162133
0.0166982
0.0311122
0.0500076
0.103343
0.134026
0.123574
0.00667308
0.127413
0.011573
0.0762533
0.0774602
0.0111846
0.00645899
0.00228227
0.052677
0.00989131
0.00437409
0.0934069
0.00262438
0.051708
0.0051749
0.00701781
0.00251357
0.12992
0.0281751
0.14388
0.065994
0.0021694
0.00226135
0.119646
0.175966
0.0117662
0.15474
0.130774
0.00129924
0.152012
0.0963911
0.00178414
0.00145384
0.117132
0.117818
0.137129
0.00108537
0.00340161
0.00623709
0.106235
0.00386863
0.0122495
0.00662762
0.0134625
0.0157342
0.0537613
0.0764141
0.0400065
0.0104915
0.000793282
0.0984935
0.0224411
0.00205902
0.00480183
0.00142676
0.088162
0.019299
0.141491
0.0361335
0.0595928
0.0112134
0.192767
0.00171237
0.118383
0.00741272
0.106009
0.0142306
0.0160605
0.0203383
0.00301013
0.0140918
0.0429294
0.16564
0.00823989
0.0930143
0.0574414
0.055744
0.00115514
0.168946
0.00719336
0.148393
0.0784045
0.00174813
0.00288233
0.00143213
0.138135
0.12153
0.113579
0.00167212
0.172529
0.0649512
0.00159118
0.132799
0.0398269
0.00967067
0.138002
0.0107512
0.0731675
0.12864
0.0289225
0.00183894
0.00864631
0.0419749
0.101227
0.151125
0.00202295
0.00718746
0.128104
0.0262158
0.144863
0.119281
0.157783
0.140397
0.0133668
0.126045
0.0908564
0.122176
0.106386
0.059705
0.00129987
0.00296391
0.0278933
0.00782312
0.0991709
0.025177
0.108999
0.145778
0.0884139
0.0954057
0.00128419
0.0902227
0.0115104
0.0865585
0.0452005
0.156738
0.00121692
0.127662
0.024857
0.026882
0.00416221
0.0215535
0.0215633
0.00122234
0.0252709
0.0481817
0.0140683
0.0766938
0.00131204
0.0174959
0.178334
0.0857922
0.0174575
0.0131087
0.00905093
0.143968
0.00955426
0.132046
0.126778
0.00564806
0.163541
0.00649869
0.0353556
0.141103
0.0713699
0.131281
0.125001
0.135967
0.065062
0.00390835
0.129018
0.00377672
0.00188568
0.0285441
0.00669979
0.0783336
0.177253
0.156812
0.0906752
0.127899
0.0084105
0.0486865
0.117774
0.0786551
0.174938
0.0014845
0.0132408
0.0594325
0.00330232
0.00420591
0.0898818
0.100587
0.0230627
0.127616
0.139158
0.0927493
0.10127
0.151533
0.157368
0.134908
0.00198951
0.140577
0.00472372
0.0314587
0.0378102
0.165836
0.148114
0.0130227
0.0508908
0.0927223
0.13248
0.103723
0.100454
0.0722045
0.0148656
0.146998
0.0397397
0.00554705
0.128028
0.161274
0.0953417
0.044217
0.0804589
0.0335859
0.0124791
0.0155535
0.0505881
0.103045
0.0152065
0.108517
0.00157175
0.00398591
0.0621666
0.00573702
0.126929
0.157879
0.096174
0.120155
0.141665
0.13804
0.147886
0.136686
0.00956566
0.134949
0.137191
0.0571675
0.0186456
0.00365664
0.0476424
0.0587169
0.161294
0.0101896
0.00677125
0.0495424
0.00189441
0.00959261
0.0071738
0.142004
0.00927534
0.0927367
0.137717
0.0989787
0.00132801
0.00726997
0.127145
0.0316887
0.153182
0.11001
0.147063
0.0867819
0.0964131
0.0685149
0.131551
0.0168693
0.0517799
0.00128801
0.186513
0.0324908
0.134426
0.00685766
0.0189346
0.00278648
0.00624683
0.00686976
0.0108375
0.00160386
0.123334
0.00382561
0.146733
0.0206003
0.13844
0.0527381
0.0202549
0.0751455
0.00152493
0.0318995
0.031333
0.146997
0.00585864
0.0990132
0.136123
0.036987
0.0442274
0.167204
0.067281
0.028555
0.111474
0.0419499
0.110184
0.0246154
0.0999336
0.109599
0.00389434
0.0358631
0.151324
0.0573221
0.00243763
0.0223416
0.0149988
0.00602528
0.11228
0.141272
0.00352294
0.0684298
0.0168422
0.0263929
0.00244714
0.112745
0.00785739
0.0457485
0.0580006
0.0734913
0.0956036
0.00122947
0.0460413
0.00150924
0.160378
0.0225862
0.0050535
0.0400254
0.00252626
0.00358701
0.14961
0.025574
0.00165506
0.0246307
0.0027888
0.129921
0.0925179
0.00111032
0.00694237
0.00208201
0.146436
0.0856931
0.098768
0.00147513
0.00507207
0.0627099
0.0914293
0.0155524
0.0115199
0.00341297
0.0918257
0.116624
0.00263048
0.0322072
0.106717
0.00552754
0.00618787
0.0487476
0.136046
0.00101807
0.0026201
0.15184
0.135451
0.0109533
0.147806
0.164027
0.109066
0.102624
0.0918031
0.0105967
0.0400912
0.00369165
0.0533384
0.00125218
0.0989212
0.00990812
0.00532788
0.00762594
0.109295
0.113858
0.0103423
0.127673
0.11314
0.155349
0.0878532
0.104028
0.0037473
0.133966
0.121911
0.00160745
0.0198275
0.0131983
0.0512856
0.134479
0.144994
0.0210996
0.00296416
0.00302276
0.123246
0.0111694
0.139828
0.0869068
0.14541
0.00168456
0.0186309
0.0335184
0.0066749
0.00896019
0.06642
0.00319889
0.00279802
0.11053
0.141051
0.155614
0.0207965
0.0112518
0.154103
0.00560257
0.113981
0.161745
0.0122489
0.00160368
0.0687271
0.00534156
0.0512498
0.00183287
0.0904319
0.0789475
0.0895057
0.0505753
0.152188
0.133043
0.0502126
0.00228377
0.00214621
0.0345124
0.00268089
0.0434143
0.00185749
0.00226621
0.0208739
0.115071
0.112269
0.134534
0.113759
0.00393158
0.154356
0.0403657
0.0636452
0.00631299
0.002412
0.00311733
0.0890512
0.00323389
0.0529369
0.0507254
0.120703
0.127479
0.00180573
0.0399629
0.00144486
0.0286145
0.0913243
0.00622856
0.14524
0.0365268
0.0836297
0.00454472
0.100947
0.045336
0.0887349
0.120034
0.00438511
0.0473142
0.0246777
0.118993
0.0226668
0.0121025
0.00120387
0.114514
0.011601
0.115611
0.0614025
0.150115
0.00636842
0.0216916
0.0176358
0.0357337
0.135951
0.110114
0.109835
0.161241
0.135071
0.125375
0.128139
0.00207231
0.0354618
0.076651
0.103529
0.160212
0.00897924
0.00332747
0.00682945
0.0191804
0.0904185
0.135352
0.155745
0.120596
0.00560112
0.0016561
0.164594
0.0464346
0.0315563
0.00318727
0.0620903
0.0428553
0.00130946
0.0400296
0.142455
0.00326085
0.00231757
0.089479
0.147044
0.0957762
0.00155728
0.00537357
0.0245499
0.00616611
0.00350034
0.0408139
0.00232776
0.0144475
0.0932873
0.00661806
0.00714725
0.145025
0.00191485
0.077955
0.113586
0.148101
0.0055784
0.112067
0.00482602
0.0546928
0.0462569
0.0170833
0.119751
0.00372669
0.00227696
0.145331
0.0520456
0.00490499
0.012538
0.00152203
0.0203073
0.154539
0.112078
0.0964027
0.143526
0.0841809
0.0436457
0.0990008
0.0101958
0.0185301
0.0211391
0.120688
0.141986
0.132475
0.0261143
0.0255162
0.0946274
0.0112908
0.0188584
0.0301949
0.0124927
0.0144005
0.0621645
0.00232665
0.113106
0.1296
0.00455329
0.00337203
0.00103628
0.089465
0.165101
0.00152079
0.145608
0.126292
0.0255858
0.143037
0.0152281
0.0116079
0.148428
0.00135116
0.00371235
0.050898
0.00714844
0.00123534
0.127063
0.0405246
0.00473879
0.00163552
0.0369695
0.00822706
0.140326
0.158536
0.140391
0.0445257
0.00220022
0.0036578
0.00152315
0.00341489
0.0377254
0.0378754
0.0293116
0.128345
0.153456
0.130194
0.00378569
0.120523
0.00294479
0.0389691
0.0620118
0.0107042
0.00382967
0.000807198
0.00297753
0.0153505
0.100422
0.126024
0.00311351
0.00350674
0.0341158
0.142277
0.150682
0.0170112
0.0336041
0.00541191
0.0125791
0.0400891
0.149674
0.00557879
0.134623
0.00123767
0.0542995
0.127942
0.00958773
0.0948636
0.00154287
0.159898
0.00175047
0.14477
0.0421307
0.0656361
0.139467
0.0631937
0.017298
0.0148466
0.00193954
0.00237266
0.0314273
0.0247827
0.0836194
0.00328597
0.00198748
0.128127
0.149965
0.140732
0.166158
0.0014232
0.178769
0.0535178
0.0195688
0.0468696
0.0495617
0.0727598
0.0783392
0.008757
0.00216545
0.109749
0.0692715
0.00488802
0.0550917
0.020957
0.0406257
0.00182783
0.0260032
0.0158793
0.113699
0.148668
0.146448
0.00198766
0.00216167
0.0129094
0.152703
0.110636
0.12905
0.000935983
0.14256
0.00234043
0.00212803
0.0412522
0.0142903
0.0789463
0.0395244
0.070816
0.0769447
0.00130718
0.0439036
0.00889343
0.155677
0.0847466
0.145077
0.0776006
0.00477788
0.0038446
0.0305728
0.00239077
0.00521017
0.164887
0.101569
0.14349
0.104352
0.00188341
0.00385628
0.0448795
0.143075
0.0723699
0.0174839
0.0179865
0.000958622
0.0332792
0.00220696
0.0149096
0.0622911
0.107022
0.146545
0.0102327
0.124582
0.142848
0.00153169
0.0197341
0.00556396
0.104124
0.0319893
0.133967
0.00155656
0.00357617
0.111811
0.0876119
0.0364549
0.0883629
0.130783
0.108775
0.134748
0.00109037
0.0314573
0.000983292
0.0372936
0.00618385
0.0166064
0.00166751
0.119271
0.026142
0.0016186
0.0405677
0.037421
0.00129472
0.140345
0.114139
0.0294798
0.00285931
0.00133622
0.0362404
0.0901708
0.122343
0.147586
0.0459878
0.193723
0.00326825
0.145117
0.0388197
0.0760494
0.142317
0.0198165
0.00807456
0.0863125
0.00614739
0.10096
0.151545
0.0200807
0.00155402
0.0216093
0.021003
0.00440977
0.00591501
0.128362
0.0973279
0.0345816
0.0025794
0.00229994
0.109503
0.00122542
0.0488072
0.111605
0.0823901
0.00366121
0.0146725
0.116004
0.000756434
0.0687835
0.0475688
0.119947
0.00197458
0.118538
0.00521345
0.0674834
0.036938
0.0565088
0.113749
0.00791654
0.000678256
0.139215
0.0311464
0.010885
0.152681
0.0804571
0.0943646
0.0154853
0.011644
0.0113316
0.0461993
0.00279553
0.0333982
0.0119288
0.0424208
0.0156038
0.111622
0.00136754
0.00150566
0.0263523
0.114475
0.00916175
0.0024958
0.0665249
0.0260971
0.12791
0.0350598
0.00115074
0.0378442
0.00213452
0.0685554
0.0112853
0.0698533
0.00127102
0.141031
0.143081
0.105893
0.0242312
0.00333001
0.00364772
0.008744
0.0306176
0.144068
0.0402168
0.0669633
0.126353
0.00520495
0.135183
0.0151456
0.0928703
0.0437506
0.145602
0.15083
0.139804
0.0669928
0.0512861
0.0255479
0.00151142
0.0992583
0.0426286
0.0243165
0.143977
0.0930389
0.0552566
0.0559841
0.020801
0.132956
0.113559
0.00674191
0.162597
0.0609213
0.0928261
0.0589623
0.141657
0.00270623
0.070757
0.116932
0.00509099
0.0313893
0.0377191
0.00239344
0.00743736
0.0796599
0.0290864
0.0532392
0.0519694
0.0762523
0.148357
0.031479
0.00139303
0.00176188
0.00304039
0.0535243
0.00188365
0.0699528
0.0524766
0.156928
0.00288967
0.11323
0.0353289
0.123368
0.00267115
0.00283314
0.10743
0.162649
0.0387918
0.113544
0.0929059
0.00690218
0.0895819
0.114056
0.0014022
0.00232778
0.141107
0.0329362
0.0416016
0.00359293
0.150727
0.00256226
0.00172123
0.109533
0.0555194
0.00392021
0.0148486
0.0976032
0.104123
0.113523
0.0421052
0.145623
0.122285
0.00242844
0.00152372
0.00209467
0.137511
0.00269039
0.0764844
0.00693178
0.14577
0.05348
0.0413998
0.14035
0.00329677
0.0439903
0.0112645
0.00566417
0.00245872
0.0221151
0.0111281
0.00266568
0.00249174
0.123291
0.000965099
0.138106
0.11948
0.106896
0.114878
0.138968
0.00192936
0.0676818
0.14001
0.0446048
0.00163753
0.00217645
0.0329599
0.148086
0.0287759
0.0218853
0.0030512
0.115715
0.12587
0.161956
0.0138642
0.0984841
0.140081
0.00158375
0.015947
0.017609
0.110089
0.128058
0.063192
0.00200115
0.13186
0.00157192
0.0171278
0.080064
0.00188135
0.00246297
0.151261
0.00875039
0.0413205
0.00197569
0.133546
0.0434199
0.139449
0.062795
0.0293875
0.00393278
0.150447
0.114114
0.111878
0.00727357
0.020347
0.00183434
0.0017665
0.0738773
0.00141177
0.0486257
0.0171543
0.00403376
0.00134548
0.044525
0.0016152
0.0146207
0.0730332
0.141453
0.0041872
0.0208915
0.0421984
0.00603393
0.146745
0.00229612
0.137318
0.0146488
0.138031
0.0607259
0.00145748
0.0171769
0.00693961
0.0454255
0.0395212
0.0457492
0.00512571
0.0201054
0.00215479
0.0769895
0.00203775
0.0823089
0.00563784
0.00935555
0.00365166
0.110548
0.126142
0.0977644
0.00229495
0.112525
0.131376
0.137226
0.0606151
0.147067
0.113692
0.00348334
0.00318234
0.00232667
0.00233728
0.124101
0.00404873
0.00252052
0.00571852
0.00163764
0.0015749
0.0460543
0.00220462
0.0365205
0.0219241
0.00263532
0.006001
0.160054
0.00268782
0.0870398
0.085935
0.0129697
0.00170658
0.00238065
0.000959179
0.0395448
0.0612169
0.143001
0.00268169
0.00246143
0.116174
0.011796
0.114739
0.0900439
0.0779423
0.0035059
0.00352957
0.0544035
0.107084
0.0448406
0.0671062
0.0980885
0.0568093
0.123562
0.044327
0.0264492
0.0055537
0.0894683
0.00614048
0.0747248
0.0503819
0.00170523
0.00254701
0.0502805
0.041512
0.12595
0.0196182
0.0666959
0.149207
0.0209403
0.122283
0.0798499
0.0417711
0.115026
0.0511256
0.00869558
0.0215082
0.00152874
0.0891506
0.179348
0.0025434
0.106586
0.0332216
0.115044
0.101881
0.151789
0.0769675
0.134687
0.0318482
0.0987495
0.00169004
0.0821242
0.0613045
0.0392492
0.148167
0.0866756
0.0299139
0.105336
0.0102504
0.00175234
0.0628351
0.0538471
0.125169
0.0813299
0.109729
0.0635033
0.123294
0.0340065
0.00403548
0.106354
0.00883785
0.00143869
0.136523
0.106894
0.13767
0.0340297
0.010271
0.103088
0.0146079
0.00364821
0.0614309
0.13292
0.0012308
0.159422
0.113376
0.146746
0.175982
0.0961291
0.134963
0.0781165
0.00419711
0.0522561
0.0227798
0.019177
0.0672466
0.0666266
0.0207227
0.00157582
0.00177078
0.00858344
0.00980518
0.00335842
0.00641804
0.134691
0.0557661
0.142195
0.020173
0.114359
0.0394303
0.0106704
0.132326
0.0195414
0.0217836
0.130274
0.118499
0.0812474
0.115071
0.144479
0.13955
0.00458221
0.00414269
0.0603165
0.0820337
0.146772
0.0113215
0.00561067
0.00163267
0.014095
0.00337991
0.120107
0.00243528
0.00132124
0.0761015
0.069699
0.0813703
0.136849
0.0658428
0.0944405
0.100895
0.0416059
0.00166464
0.00932798
0.00150894
0.116578
0.0107533
0.00417634
0.115762
0.126153
0.122506
0.148474
0.0579041
0.104921
0.0104032
0.0833578
0.0025315
0.0334559
0.00243386
0.00840387
0.00223061
0.00109155
0.0869164
0.131852
0.12829
0.0792509
0.149309
0.114088
0.00166424
0.0031904
0.0873613
0.0735266
0.0873575
0.0219702
0.0106506
0.137447
0.0695154
0.00431862
0.126622
0.0973206
0.0241147
0.0122331
0.0611615
0.00381149
0.00560282
0.0379162
0.00274593
0.00717092
0.00130121
0.149699
0.0450501
0.129347
0.0335944
0.00351156
0.132631
0.00143342
0.126898
0.172479
0.109305
0.00193175
0.0145742
0.00816925
0.105618
0.148305
0.031015
0.00193672
0.0265367
0.120618
0.0966106
0.084497
0.0475252
0.119758
0.125083
0.00195969
0.00239094
0.00199458
0.0223466
0.00613525
0.00223754
0.00839296
0.00216985
0.0117752
0.154739
0.134489
0.164668
0.0691059
0.00262729
0.00269501
0.143272
0.00150718
0.0017796
0.0216341
0.106707
0.132199
0.00661771
0.00387817
0.0016345
0.0249529
0.00162553
0.159268
0.00606966
0.00993957
0.139709
0.00247373
0.116218
0.00638533
0.00198312
0.0382097
0.00555606
0.075143
0.137678
0.00209771
0.00160885
0.00779115
0.0278013
0.00126481
0.00525827
0.001691
0.00186507
0.00171307
0.00661907
0.00661004
0.0743988
0.0942796
0.0146383
0.00143242
0.138794
0.00133418
0.160749
0.013187
0.0308678
0.131413
0.00304686
0.111479
0.00578392
0.00152516
0.114796
0.012084
0.00973996
0.00174824
0.00659518
0.0104999
0.111796
0.077323
0.00261051
0.127992
0.136854
0.0168837
0.0387093
0.00149597
0.0342597
0.135179
0.0391829
0.137174
0.0105989
0.0536316
0.0064642
0.142141
0.146923
0.00150567
0.00947606
0.110366
0.00190433
0.00439287
0.138346
0.0463269
0.0538026
0.00185614
0.116135
0.143655
0.005681
0.0531911
0.00241543
0.0016974
0.0110097
0.0452281
0.0703415
0.0969768
0.0146341
0.0305983
0.0939932
0.00340931
0.0135398
0.127173
0.0874826
0.0111399
0.0555081
0.00140081
0.00504497
0.132604
0.00227523
0.00897695
0.0185384
0.116887
0.00238832
0.00110643
0.00382852
0.107748
0.150657
0.0120607
0.0355725
0.13044
0.0908191
0.115298
0.120995
0.0284011
0.126137
0.131424
0.0151504
0.00629699
0.00125107
0.0409637
0.00382637
0.00158449
0.106031
0.003569
0.00348542
0.00136453
0.157183
0.0112588
0.00116839
0.00231655
0.00637211
0.00701344
0.0809398
0.00233559
0.0115572
0.00459039
0.144109
0.016303
0.0128129
0.114109
0.0100178
0.00337056
0.113963
0.00239585
0.0032936
0.115599
0.130361
0.080883
0.113222
0.0579947
0.145777
0.129589
0.00277471
0.00391395
0.0512137
0.00839769
0.199517
0.020489
0.00138221
0.00151819
0.00146252
0.0270692
0.0016509
0.0775875
0.137016
0.0336072
0.00155336
0.00357459
0.00659851
0.00390879
0.0462038
0.12658
0.114572
0.054453
0.0348358
0.00267305
0.00318262
0.030729
0.00273708
0.00136823
0.114655
0.00350179
0.0866875
0.0226616
0.0639818
0.0969047
0.150714
0.0289234
0.0329479
0.00387152
0.00152771
0.140568
0.0139361
0.0269251
0.0194512
0.00381884
0.0143341
0.0024621
0.10114
0.00766761
0.00208589
0.00693336
0.00579379
0.116717
0.00647994
0.00233388
0.00203804
0.147109
0.0065107
0.147143
0.0685489
0.0961667
0.0165908
0.00243204
0.00118569
0.115806
0.00235898
0.0168997
0.151695
0.144899
0.0749371
0.158374
0.0189431
0.00225416
0.00184007
0.00748388
0.0983744
0.0804764
0.0182485
0.143929
0.00168461
0.0390175
0.100787
0.0144516
0.00775091
0.0207097
0.00129556
0.0101424
0.00129096
0.0413369
0.00397578
0.00429293
0.00276429
0.141638
0.0795015
0.0193114
0.0786718
0.00398141
0.0012071
0.0176903
0.0076794
0.00492383
0.00652103
0.0183894
0.0218823
0.048385
0.135367
0.00568771
0.0265919
0.0335749
0.0199171
0.0221366
0.0293718
0.00197344
0.00485623
0.0603645
0.0410995
0.0190252
0.0395824
0.108724
0.0140399
0.011455
0.135157
0.00190545
0.0874131
0.00144725
0.105334
0.0679068
0.0523729
0.0014701
0.0348807
0.00151473
0.00335791
0.0188087
0.0629448
0.00611302
0.0152772
0.00576449
0.0478633
0.17745
0.0121776
0.137431
0.00143832
0.140123
0.141671
0.124503
0.0361697
0.031303
0.0428433
0.0119655
0.0136579
0.065473
0.0414631
0.00383931
0.00282736
0.0298371
0.0164338
0.137545
0.0110141
0.0202798
0.00908364
0.0732201
0.0121439
0.0217272
0.148274
0.147629
0.0740425
0.0426737
0.103149
0.00141402
0.142148
0.00805592
0.041114
0.00270274
0.00387815
0.0286862
0.0136139
0.0100698
0.00399947
0.00215932
0.0475899
0.0381723
0.0132309
0.0184465
0.0891986
0.00434623
0.00122751
0.140394
0.13433
0.00381894
0.0164081
0.0205792
0.107361
0.0186155
0.116074
0.0365268
0.0105931
0.0325639
0.0292415
0.127533
0.144046
0.0200992
0.00152813
0.0918043
0.020413
0.00446395
0.151323
0.130592
0.00144789
0.0107394
0.00775517
0.110522
0.035563
0.0219895
0.168022
0.114146
0.00825866
0.0220152
0.0014299
0.00637157
0.0263045
0.00239767
0.0144748
0.00781388
0.127547
0.126135
0.0190932
0.0288791
0.0193818
0.0163749
0.091654
0.0177336
0.0387945
0.0938901
0.150525
0.0383153
0.0946767
0.0376644
0.00801576
0.0107847
0.134963
0.00774624
0.0207228
0.00373927
0.0154996
0.00134247
0.0131937
0.00155759
0.145021
0.00870824
0.0266535
0.122716
0.130327
0.0162294
0.0254551
0.0715156
0.131069
0.00976437
0.00132972
0.0320506
0.115971
0.0662222
0.00461446
0.0150129
0.0254252
0.14707
0.129727
0.037689
0.0399246
0.084259
0.0214782
0.00168245
0.0142515
0.00174773
0.1451
0.0378998
0.109515
0.0398081
0.0803532
0.121395
0.0143832
0.037558
0.113338
0.00187027
0.0324263
0.00135755
0.128156
0.0269173
0.0210824
0.00868349
0.0224027
0.00775046
0.0281102
0.0116129
0.0208304
0.125904
0.00271894
0.00380132
0.0638216
0.137972
0.0255386
0.109203
0.110978
0.00897531
0.138055
0.00181638
0.0047813
0.00528243
0.0718326
0.139103
0.0373247
0.00951606
0.0159632
0.0377509
0.0375658
0.12776
0.0393319
0.103749
0.0648334
0.00141364
0.063075
0.0800857
0.00408092
0.0211427
0.0402404
0.0738067
0.0364528
0.13891
0.0402007
0.00179557
0.132219
0.0249314
0.0024764
0.00681613
0.0126331
0.0286392
0.0301936
0.00192282
0.00638348
0.0373511
0.0208108
0.0477328
0.0524714
0.0270766
0.0799727
0.123364
0.00198275
0.120858
0.0436041
0.132958
0.0683138
0.0237591
0.132862
0.141761
0.0166328
0.103672
0.0512772
0.0186371
0.0265367
0.0142259
0.0320415
0.129077
0.0291139
0.0108068
0.0353747
0.0189572
0.0229296
0.0191966
0.0272166
0.00170617
0.107127
0.00393862
0.0109407
0.00437743
0.0219255
0.0137838
0.00920255
0.0418375
0.0121229
0.0115078
0.0334264
0.03286
0.10963
0.111604
0.154701
0.0438368
0.00137852
0.146549
0.00757048
0.0731342
0.0320739
0.0479456
0.00700612
0.0347054
0.0216385
0.0750588
0.0469022
0.0431166
0.136236
0.0394584
0.0355187
0.139908
0.0413043
0.0484299
0.12916
0.0207647
0.0315158
0.00326847
0.0433601
0.00421404
0.0117874
0.0300555
0.105999
0.0176637
0.132415
0.0260701
0.0197767
0.00371822
0.041837
0.0295886
0.0219692
0.138266
0.0159561
0.0407222
0.00281618
0.129296
0.0573794
0.00497413
0.0376473
0.0389239
0.149854
0.115053
0.146383
0.0203979
0.00345536
0.0332314
0.0570657
0.0431659
0.0194227
0.116819
0.0549227
0.0445577
0.0375452
0.0487558
0.163889
0.00521883
0.142104
0.00280189
0.160701
0.00325017
0.139539
0.142663
0.00708578
0.0552471
0.0397138
0.0113643
0.0403182
0.022203
0.1282
0.13268
0.0763381
0.0447479
0.00148831
0.116308
0.0368917
0.0523825
0.0499151
0.0761506
0.0587683
0.0100004
0.0212788
0.0427255
0.0312754
0.0399136
0.154007
0.0624787
0.0144821
0.0815616
0.0640471
0.00747915
0.128909
0.0343524
0.0140151
0.038956
0.00256996
0.150004
0.0403911
0.169765
0.0209546
0.0230846
0.0683969
0.00275646
0.145007
0.0688275
0.0392888
0.144307
0.00323188
0.151998
0.0817816
0.016968
0.0156606
0.037991
0.147986
0.0286269
0.0215341
0.00161972
0.0731862
0.0296106
0.145397
0.13958
0.039838
0.00786075
0.00247922
0.0758418
0.124262
0.1324
0.0827797
0.0366684
0.00367111
0.00268276
0.0819794
0.139234
0.121819
0.0379588
0.004744
0.00273579
0.0571817
0.00660419
0.153591
0.0966468
0.0160301
0.108477
0.0819766
0.021089
0.00624414
0.00564545
0.037398
0.045787
0.0051782
0.0167861
0.0464451
0.0296993
0.00580408
0.0802291
0.0661008
0.034884
0.118564
0.0818871
0.13323
0.150688
0.0228108
0.0343067
0.0482315
0.0130654
0.0128841
0.0824945
0.0371025
0.150192
0.0963904
0.0452962
0.0365208
0.0163006
0.0334969
0.00332143
0.0511874
0.0471025
0.0536762
0.00445852
0.00192548
0.0273697
0.151312
0.0104668
0.0407358
0.0975992
0.105749
0.0420393
0.130995
0.129859
0.0564969
0.0530542
0.00659738
0.0530097
0.0944728
0.0452821
0.0026555
0.00144271
0.119669
0.0611002
0.0384984
0.0372614
0.00336619
0.0550107
0.00427376
0.0114393
0.101024
0.0531885
0.00132424
0.0764039
0.0632337
0.0342299
0.0433272
0.0805242
0.062704
0.0788464
0.00988746
0.121297
0.0206394
0.0474103
0.0393273
0.0787093
0.106434
0.097355
0.0587718
0.0636669
0.118947
0.150645
0.0798624
0.064069
0.0651871
0.0328028
0.0913431
0.0957388
0.0818637
0.0642881
0.0296232
0.114968
0.137909
0.00167458
0.0450173
0.00259472
0.0141655
0.132864
0.0566248
0.01595
0.1499
0.0964005
0.15488
0.0492586
0.0601895
0.0125242
0.0588641
0.11033
0.00649592
0.00365707
0.0175193
0.146909
0.00249697
0.0601386
0.131744
0.0153149
0.150909
0.0806032
0.00286573
0.129849
0.0109344
0.0876119
0.00684546
0.00652523
0.0364723
0.10079
0.129842
0.00874018
0.051503
0.0501222
0.0436994
0.00418583
0.120388
0.00754644
0.0624596
0.00125511
0.0825964
0.107858
0.113713
0.0604152
0.0523932
0.0507905