/*--------------------------------*- C++ -*----------------------------------*\
| =========                 |                                                 |
| \\      /  F ield         | OpenFOAM: The Open Source CFD Toolbox           |
|  \\    /   O peration     | Version:  v2012                                 |
|   \\  /    A nd           | Website:  www.openfoam.com                      |
|    \\/     M anipulation  |                                                 |
\*---------------------------------------------------------------------------*/
FoamFile
{
    version     2.0;
    format      ascii;
    class       volScalarField;
    location    "50";
    object      k;
}
// * * * * * * * * * * * * * * * * * * * * * * * * * * * * * * * * * * * * * //

dimensions      [0 2 -2 0 0 0 0];


internalField   nonuniform List<scalar> 
13851
(
0.000217373
0.00015937
0.000159145
0.0149045
0.000148462
0.000161957
0.000162405
0.000148815
0.0523468
0.000148646
0.00018112
0.00014859
0.000149679
0.0265728
0.000177402
0.000195295
0.013179
0.000151129
0.00880337
0.000216838
0.000179438
0.000158702
0.04045
0.000149734
0.0799446
0.000198969
0.058789
0.082687
0.0559491
0.000148277
0.0336094
0.000162276
0.000218074
0.0661659
0.000174159
0.0572526
0.000149811
0.0705448
0.0509096
0.000150252
0.0588262
0.0593054
0.00470077
0.000229415
0.0621927
0.000148955
0.000146792
0.000245452
0.00015538
0.000149608
0.0186225
0.000149779
0.000195426
0.000174184
0.0267643
0.000150224
0.000218507
0.0562914
0.0585545
0.0237677
0.000148632
0.0518696
0.000148709
0.000155663
0.000184684
0.000185514
0.0187105
0.000167353
0.000150781
0.0211067
0.030584
0.000183055
0.000149425
0.0211352
0.000175396
0.000154766
0.0172978
0.000147396
0.0753951
0.000148441
0.00015091
0.000543567
0.000173586
0.0276229
0.0253282
0.0328871
0.000159107
0.0253685
0.000148713
0.0334458
0.000149879
0.000162435
0.00720994
0.0297478
0.046063
0.000206216
0.000148989
0.00017282
0.0197291
0.000201768
0.00015771
0.000163033
0.000164059
0.000149712
0.000149101
0.000180821
0.000149053
0.0322348
0.000162345
0.000150899
0.000162004
0.000149011
0.000218856
0.000183923
0.000221442
0.000172985
0.000147273
0.000148149
0.0129982
0.0238144
0.000194416
0.00014984
0.000150585
0.0419023
0.000839626
0.000173717
0.00014899
0.000175278
0.0567897
0.000182985
0.000158573
0.000167256
0.0516506
0.0647631
0.000181913
0.0456928
0.000167002
0.0319567
0.000161132
0.000183337
0.000378771
0.000151575
0.000148746
0.000172697
0.0826665
0.00015405
0.000147288
0.0300693
0.0448571
0.000176101
0.000157417
0.000215623
0.000185189
0.000240691
0.00015029
0.000149023
0.000148694
0.0479146
0.000181409
0.000159644
0.000149583
0.0565454
0.000180624
0.000235132
0.0270226
0.0590641
0.0607045
0.0222514
0.00016193
0.0850364
0.000148726
0.000147221
0.000184652
0.000148831
0.0487909
0.0575177
9.99354e-05
0.000147184
0.000175638
0.000145127
0.000611948
0.000230673
0.000161623
0.000182844
0.00555614
0.0459831
0.000218586
0.000158291
0.000150118
0.00014865
0.0770114
0.000181308
0.020478
0.00016227
0.000153786
0.000183592
0.000217481
0.000153282
0.000152401
0.000168041
0.000369016
0.0498637
0.055797
0.000177405
0.000345936
0.0467129
0.000152869
0.000184469
0.0529112
0.000160592
0.000201944
0.000150512
0.0004767
0.000149547
0.000174943
0.000156122
0.000149487
0.000728427
0.000153019
0.000490881
0.000147142
0.000216047
0.0223456
0.0470622
0.000157934
0.000184815
0.000149746
0.000171134
0.000148351
0.000174544
0.0253564
0.000157771
0.000160595
0.000148783
0.0540889
0.000148373
0.0227806
0.0545323
0.000197935
0.000149646
0.000797153
0.0259533
0.0642621
0.000222716
0.000172171
0.000176187
0.000274358
0.000176094
0.000204833
0.000163678
0.0243601
0.000213088
0.000147793
0.000163177
0.000170692
0.0547003
0.0315306
0.000148565
0.000174009
0.000148702
0.000269893
0.000415737
0.000164044
0.00018109
0.000214934
0.000149132
0.000163556
0.000217935
0.078155
0.000148677
0.000149439
0.000157944
0.0625915
0.00883671
0.000181919
0.000150074
0.000762176
0.000290683
0.000212896
0.000181014
0.0602344
0.0195267
0.000163992
0.000174415
0.0653125
0.000149174
0.000148679
0.000214283
0.000177698
0.000148662
0.000149528
0.000148344
0.000147963
0.000172608
0.000148645
0.0539615
0.000180411
0.000149719
0.0550293
0.0395956
0.000149965
0.000217136
0.0188279
0.000151833
0.000150037
0.000181116
0.0245614
0.0602132
0.000187788
0.000148372
0.0861463
0.000148682
0.000189078
0.0228611
0.0775282
0.000159198
0.0576185
0.0160154
0.0361342
0.000213647
0.000163513
0.0497041
0.0475013
0.080554
0.000152718
0.0185897
0.00831445
0.00021702
0.000210257
0.000152885
0.00018683
0.000159136
0.0271562
0.000164298
0.000147241
0.00014582
0.000161788
0.0335964
0.000377018
0.000149112
0.0450611
0.00015911
0.000167494
0.000160006
0.0200408
0.00073656
0.000183712
0.000155602
0.000159811
0.0579876
0.000150174
0.000454557
0.000163929
0.000181053
0.000159746
0.000148719
0.000149705
0.000207702
0.000206718
0.000213795
0.0359693
0.059214
0.000154193
0.0528777
0.00836869
0.000149367
0.0799519
0.000198933
0.0234373
0.000161154
0.000201714
0.0521579
0.0702896
0.000204045
0.0283516
0.000153904
0.0627543
0.0050865
0.000168494
0.029866
0.00017087
0.0571629
0.00017397
0.000184516
0.000213192
0.00023075
0.00014905
0.000163028
0.000178766
0.000175878
0.0001491
0.000182402
0.0794555
0.000149444
0.000184195
0.00940943
0.000158095
0.00454082
0.000186143
0.063791
0.000161356
0.000197274
0.000327707
0.00142016
0.000180203
0.0272099
0.0213378
0.000681018
0.000149144
0.000205101
0.00017069
0.000201329
0.00014971
0.00557325
0.078607
0.07553
0.000159792
0.000214289
0.0517153
0.0097476
0.000147587
0.0137634
0.000258824
0.0335582
0.000164387
0.0816371
0.000149131
0.000148763
0.0225456
0.0526593
0.000148687
0.000159378
0.000184465
0.000147383
0.0814456
0.000187239
0.000198416
0.000163997
0.000153991
0.000149706
0.0637002
0.00014965
0.000149614
0.0767818
0.0811085
0.000157933
0.0422424
0.000148732
0.000148623
0.000158738
0.000214805
0.000186547
0.000149214
0.000155361
0.000194243
0.000157524
0.063649
0.000148548
0.000167904
0.0630922
0.000162129
0.000146087
0.00014884
0.000163705
0.000154091
0.000590144
0.0746912
0.00017243
0.000599434
0.000158963
0.000148518
0.0568705
0.0503077
0.00016105
0.000149682
0.0456429
0.000160337
0.00144934
0.000149672
0.000167785
0.000205303
0.000176935
0.0512918
0.0546424
0.0710526
0.000153943
0.000216796
0.000149213
0.0544544
0.000185972
0.000217384
0.000170516
0.000155304
0.000162198
0.000185311
0.000148525
0.00998992
0.0544632
0.0657855
0.00599884
0.0756668
0.0260048
0.00078278
0.000157461
0.000149373
0.00702645
0.000148642
0.000149058
0.000158683
0.0508701
0.00015922
0.000151473
0.000176229
0.000178683
0.000148617
0.0844777
0.000148913
0.0596387
0.000475368
0.00014849
0.000158371
0.000286887
0.0806607
0.000148552
0.0797165
0.0258848
0.000150516
0.0434069
0.00469136
0.000214969
0.000153878
0.0773702
0.0238967
0.000150732
0.000736275
0.000150659
0.00014896
0.0727773
0.0577401
0.000174723
0.000185977
0.000148642
0.000192485
0.0590647
0.0477907
0.000151266
0.0183881
0.000149161
0.000150788
0.000180464
0.000168582
0.000147575
0.000154762
0.0450288
0.000225265
0.0421956
0.000158466
0.0001487
0.0636661
0.000149208
0.000206364
0.000167157
0.000175168
0.000171604
0.0689847
0.023388
0.000162215
0.0127731
0.000158433
0.000185998
0.0604902
0.0332124
0.000150473
0.00014922
0.000164146
0.0432485
0.0303176
0.000192167
0.0102157
0.000168853
0.000173121
0.0311325
0.0829796
0.00018626
0.0579774
0.000936562
0.0610261
0.000153102
0.0606348
0.0750168
0.00014862
0.00809929
0.0755776
0.000161956
0.000183238
0.000150029
0.000509275
0.000179288
0.0522718
0.00014968
0.000149024
0.000156029
0.000178082
0.000148597
0.0484173
0.000148984
4.66608e-05
0.000153834
0.000201529
0.000149711
0.000148649
0.000170272
0.0185635
0.000179685
0.044246
0.000167801
0.000147489
0.000150024
0.000184925
0.000155261
0.000195023
0.000160134
0.000160748
0.0565995
0.000149212
0.027396
0.000149675
0.000213536
0.0146031
0.0628541
0.000157106
0.0497821
0.000175498
0.000213967
0.074011
0.000151718
0.0811675
0.000159213
0.000169402
0.00752683
0.0623687
0.000149565
0.000194242
0.000153187
0.058183
0.0195154
0.000151371
0.000167952
0.0817144
0.000149744
0.00014967
0.000199563
0.0238017
0.0777264
0.000150021
0.000212734
0.00015697
0.000148708
0.0583722
0.000213808
0.000201393
0.000146962
0.000218188
0.000165093
0.000195034
0.000151166
0.000153416
0.000177889
0.000155805
0.000224809
0.000183122
0.000182742
0.000182167
0.000451304
0.00483056
0.0795763
0.0782093
0.000215377
0.0346726
0.000165387
0.0734395
0.000216883
0.000150537
0.000172351
0.000248348
0.000160447
0.000148381
0.000148291
0.000213195
0.0249958
0.000168077
0.0517615
0.000147542
0.0783392
0.000181328
0.017885
0.000193772
0.000161576
0.000159252
0.02105
0.000201614
0.000165073
0.0561005
0.000153569
0.00817098
0.000213646
0.000149909
0.000169379
0.000756245
0.000149149
0.000149618
0.000152438
0.000148756
0.0596438
0.000147949
0.053726
0.0612884
0.000194311
0.0491764
0.0221092
8.9764e-05
0.0002248
0.000157199
0.00014916
0.000149328
0.000147276
0.000149956
0.00014885
0.000186594
0.000216222
0.000165836
0.0797056
0.000153691
0.0516225
0.000149956
0.0173736
0.00017203
0.000149881
0.000148878
0.0622167
0.000162167
0.0830383
0.0764063
0.000182607
0.000190669
0.000150477
0.0638574
0.000154984
0.000159301
0.0582067
0.00014919
0.000151532
0.000151086
0.000185594
0.0262715
0.000165285
0.000170107
0.000280026
0.0449158
0.000157707
0.000157897
0.0615356
0.00014714
0.060291
0.000149291
0.000157677
0.0748155
0.00020007
0.000219764
0.0001888
0.000180073
0.000149488
0.000149955
0.000187213
0.000153338
0.000149537
0.000169353
0.000248542
0.00014789
0.000207226
0.00270215
0.0807404
0.000188549
0.033292
0.000161145
0.000149134
0.000201973
0.000147619
0.000163219
0.0811681
0.0594299
0.0807315
0.0644211
0.000151663
0.000151215
0.000170966
0.000153016
0.000149166
0.0356987
0.000370424
0.0307862
0.000214353
0.00020079
0.000148847
0.000148351
0.0179853
0.000198049
0.000158412
0.000149662
0.000220605
0.000223218
0.053056
0.00015022
0.000148963
0.0220513
0.000151092
0.000171231
0.000147334
0.0520823
0.000149031
0.0165279
0.000148642
0.000194215
0.000177395
0.000170467
0.00016988
0.000149374
0.000159249
0.000148095
0.0505615
0.000151248
0.0362385
0.000153945
0.0873239
0.0591093
0.000167813
0.000147953
0.0106279
0.0758636
0.000162903
0.000200503
0.000149294
0.0242989
0.000150726
0.00053792
0.000148568
0.000148075
0.0822362
0.000172014
0.000148787
0.00017486
0.0545866
0.000434695
0.079861
0.000148454
0.0374081
0.00014865
0.000147921
0.000150304
0.000145289
0.000149548
0.0784627
0.0809547
0.000153045
0.000148958
0.000175202
0.00014903
0.0133724
0.000203721
0.0301605
0.0508086
0.000159098
0.000225186
0.000148587
0.000179003
0.000177734
0.000151625
0.000149353
0.00198063
0.0209045
0.000190129
0.00655889
0.000190979
0.000148736
0.000175334
0.000201124
0.0160264
0.000171411
0.0747425
0.000198639
0.000149467
0.0492135
0.0442255
0.0324452
0.0729659
0.0717474
0.000153929
0.000175812
0.000149593
0.0715999
0.00015987
0.000147264
0.078066
0.000153353
0.000147954
0.000150499
0.000152943
0.0494965
0.00028683
0.000148078
0.000175907
0.0256054
0.000154382
0.00597333
0.000152507
0.000197108
0.0559367
0.000148671
0.0386032
0.00016309
0.000168919
0.00049205
0.000153347
0.00044784
0.000197
0.058362
0.000154076
0.0327151
0.000167901
0.0349938
0.0166832
0.0270311
0.000183035
0.000149402
0.000151718
0.000149742
0.000183039
0.000148855
0.0529793
0.00016083
0.000157548
0.00015753
0.000153843
0.00014837
0.000167575
0.000161262
0.000158305
0.000159837
0.0703802
0.0478136
0.000167776
0.000172538
0.0797605
0.000151581
0.0359289
0.000147088
0.000163184
0.000151253
0.000149919
0.000169196
0.0001485
0.000148021
0.000163513
0.000149084
0.000236109
0.000154738
0.00716644
0.0685945
0.000271782
0.000353105
0.000152283
0.0464129
0.000222682
0.000149486
0.000160956
0.000151251
0.0385401
0.000152423
0.00016354
0.0807278
0.00766321
0.000181539
0.000151828
0.067411
0.0769216
0.0726743
0.000162991
0.000147475
0.000151273
0.000187833
0.000149265
0.0202975
0.000209036
0.000149315
0.00509515
0.000248565
0.000150918
0.0727484
0.0150668
0.000374109
0.000154242
0.0677618
0.000186481
0.000148194
0.0250641
0.000157798
0.000150429
0.000148809
0.000174069
0.000183081
0.0565977
0.0357854
0.000182651
0.0600867
0.000175267
0.000148918
0.000169218
0.000148267
0.0132364
0.000151373
0.000148243
0.000154882
0.000153292
0.0605204
0.0278792
0.026891
0.0226536
0.0720496
0.000157976
0.000149562
0.000154689
0.000574022
0.000151362
0.000150351
0.0001728
0.0792343
0.0356371
0.0001471
0.000168497
0.000170261
0.000214038
0.00550649
0.000150622
0.000147466
0.00015891
0.067778
0.00016938
0.0583516
0.000153353
0.000149035
0.000150542
0.000148863
0.000156112
0.000189381
0.0625271
0.0600483
0.00015741
0.00014853
0.00495957
0.000154159
0.084545
0.029959
0.000159184
0.0209554
0.0584218
0.0299454
0.000190788
0.000171237
0.0418114
0.000168725
0.00016182
0.000171375
0.00021456
0.000152985
0.000504848
0.000148938
0.0815618
0.0726811
0.00014709
0.000154018
0.000169508
0.00038128
0.000172364
0.000148885
0.000167349
0.000152155
0.000163711
0.000245529
0.000149094
0.0750705
0.026476
0.000149032
0.00017016
0.000182582
0.000148651
0.057801
0.0128271
0.0479704
0.0422096
0.000148425
0.000156764
0.000160538
0.000150422
0.0287058
0.000172923
0.000149691
0.000192596
0.000155561
0.0872257
0.000177723
0.0215281
0.000151995
0.000154237
0.000164601
0.000197145
0.00018916
0.000149022
0.0135995
0.0372994
0.0312012
0.0293693
0.080467
0.0583855
0.0332484
0.000148933
0.000148686
0.00015203
0.0267119
0.000185784
0.000188661
0.010174
0.000153726
0.000146376
0.000148652
0.0130945
0.000147277
0.000164331
0.000154436
0.0791494
0.000152245
0.000147617
0.0001487
0.000149499
0.000149009
0.000161166
0.0246143
0.000161931
0.0851784
0.000148593
0.000148926
0.0574222
0.0626545
0.023792
0.0790924
0.00016474
0.0775476
0.000147389
0.000171555
0.000154175
0.000148663
0.000160883
0.0197144
0.000156343
0.000197667
0.0308586
0.000153605
0.000149818
0.00015589
0.00080224
0.000149802
0.0788637
0.000151962
0.016734
0.000148844
0.000152946
0.000163201
0.000172722
0.000149742
0.0629722
0.0311434
0.00459645
0.0664146
0.000149089
0.0190321
0.0649799
0.000148561
0.0717314
0.000150368
0.000162337
0.000150095
0.00015399
0.000147837
0.000148647
0.000151929
0.000156399
0.000190772
0.000152107
0.000148688
0.00016648
0.000149644
0.0779994
0.000148832
0.000169618
0.000175674
0.0281649
0.0742261
0.000149013
0.000347098
0.000147244
0.000172632
0.000176181
0.0776895
0.000183895
0.000149804
0.000216829
0.00016895
0.00019915
0.0588857
0.000162366
0.000210402
0.000191748
0.000192502
0.000152158
0.000149802
0.0812829
0.00896112
0.000157581
0.000148185
0.00639526
0.000147659
0.000178017
0.000148222
0.000180707
0.066273
0.000147055
0.0115302
0.000161941
0.000149087
0.000100915
0.000147241
0.00016185
0.0444838
0.000175586
0.0815435
0.000147819
0.000149752
0.000162851
0.000149493
0.000149612
0.000167391
0.000167057
0.000190477
0.00018226
0.000149886
0.000168436
0.000149544
0.00014855
0.000149424
0.000148567
0.00298754
0.000151292
0.000152622
0.0392958
0.000147604
0.000148112
0.0633381
0.000149638
0.00887083
0.000156864
0.0677043
0.000608963
0.000165485
0.0125321
0.000182024
0.000300386
0.000153412
0.000230931
0.000161094
0.000149736
0.000148966
0.000152515
0.000169253
0.000149403
0.000174451
0.000147761
0.000154325
0.00524299
0.0185299
0.000336706
0.000160641
0.000163816
0.0286275
0.0224397
0.000149167
0.00016404
0.000347708
0.000152676
0.000172391
0.0256666
0.0608204
0.000165942
0.000182009
0.000152595
0.000259995
0.000149895
0.000162763
0.0812988
0.000150251
0.000149149
0.0789493
0.000174905
0.0339864
0.0676451
0.000212999
0.000150956
0.000147773
0.000153101
0.0245163
0.070706
0.087954
0.000178536
0.000148825
0.0323147
0.000148777
0.000214313
0.000155812
0.000158253
0.00017874
0.000148556
0.0742565
0.0737903
0.000150894
0.000189226
0.000186569
0.0232534
0.000176105
0.000192291
0.0319631
0.000175416
0.0447755
0.000192657
0.000148796
0.000176655
0.000168999
0.0772735
0.000148416
0.0721259
0.000177057
0.00019462
0.000149807
0.0682243
0.000163067
0.000153746
0.000149137
0.000169798
0.000169476
0.000167812
0.000148833
0.000152272
0.000175411
0.00639729
0.000179636
0.000149061
0.000151153
0.000176829
0.000264313
0.000149163
0.000184293
0.056796
0.000170308
0.0660943
0.000182643
0.0191627
0.000459476
0.000148987
0.037952
0.000149551
0.000157113
0.000173189
0.000172832
0.000195536
0.000185301
0.00016817
0.000170022
0.000167136
0.000155047
0.00014717
0.000171216
0.000161961
0.000158597
0.072791
0.00015924
0.00016116
0.00014836
0.0296611
0.000182974
0.000149849
0.000160038
0.000152112
0.024203
0.000207616
0.000173257
0.0629026
0.0578815
0.00108076
0.000195704
0.0411001
0.00014808
0.000185972
0.000150355
0.000156104
0.0664662
0.0578865
0.00150135
0.00320964
0.00014884
0.0205536
0.00014805
0.000201033
0.000156322
0.0753571
0.0770919
0.000165685
0.000148068
0.000612858
0.000162774
0.000148463
0.0290413
0.000148577
0.000153851
0.000162055
0.000150022
0.000166255
0.000152298
0.000148897
0.000165999
0.000530203
0.000178045
0.000179758
0.000148465
0.0225616
0.0596233
0.000147983
0.0460583
0.000156215
0.000158137
0.0864168
0.000147971
0.000151823
0.000157873
0.0355821
0.000148455
0.000149168
0.00017482
0.0717309
0.000147874
0.000161205
0.000163841
0.0723626
0.000175907
0.000174271
0.00466964
0.000148585
0.000173723
0.000146883
0.0219216
0.000164984
0.000148613
0.000166878
0.00019196
0.000148949
0.000152593
0.000215623
0.0685806
0.000154146
0.0235313
0.000149229
0.000146947
0.000186946
0.000148393
0.000151327
0.0802976
0.000149817
0.000177098
0.000132302
0.0404522
0.0678219
0.00015136
0.000153235
0.000157427
0.000148501
0.000149284
0.000148744
0.0700009
0.000149301
0.0401613
0.000214385
0.000149127
0.000149793
0.000166326
0.000214513
0.043943
0.000168238
0.000180899
0.000154795
0.0543985
0.000179629
0.00017271
0.000180278
0.000174691
0.000193594
0.0220882
0.00018119
0.0379828
0.087331
0.0179991
0.000160065
0.000149717
0.00017153
0.000160005
0.000150256
0.000154246
0.000181346
0.000149601
0.000151766
0.000148506
0.000147137
0.000158277
0.000151785
0.0165532
0.000148049
0.0804359
0.000148555
0.000176078
0.000153182
0.000213869
0.000176259
0.000149396
0.0797432
0.000153143
0.000149493
0.000178781
0.00014947
0.000160329
0.00015119
0.0651168
0.000155758
0.000176481
0.000171559
0.0810254
0.000160042
0.0419587
0.0688932
0.000172477
0.000152171
0.000155434
0.000178295
0.000185563
0.0188964
0.000148788
0.0242597
0.000150335
0.000170652
0.067949
0.000168772
0.0728274
0.00015747
0.000170052
0.000155954
0.0720604
0.000165868
0.000148864
0.00017143
0.000211145
0.000154999
0.000148601
0.000148894
0.0500371
0.000149673
0.000159287
0.0628442
0.00015711
0.000149059
0.000174692
0.000157102
0.0857252
0.000146449
0.000148917
0.000147596
0.00015539
0.000153227
0.000152133
0.000191016
0.0580516
0.000148985
0.000148716
0.0884661
0.000154061
0.0118175
0.000160354
0.0644606
0.000149202
0.000154936
0.000147282
0.0366039
0.0674671
0.000161058
0.000170803
0.000156116
0.000149423
0.000148799
0.0662668
0.000148826
0.000201434
0.000148992
0.000184474
0.000149265
0.0861267
0.000147545
0.000184005
0.000148735
0.000226533
0.000613666
0.000149249
0.000168587
0.0754727
0.000192321
0.0796437
0.0724957
0.000212034
0.000152476
0.000171058
0.000195992
0.0817746
0.000154132
0.000180798
0.000157577
0.000149821
0.0349977
0.0282324
0.000191192
0.0002209
0.00052256
0.000165644
0.0645076
0.000150228
0.000149129
0.000192898
0.077242
0.000260422
0.000210216
0.0755404
0.000147459
0.0702801
0.0382372
0.0694694
0.000149305
0.0241973
0.0335
0.000599031
0.000406501
0.0434498
0.000201693
0.00016587
0.000219342
0.000155034
0.000149574
0.0234837
0.000198743
0.000147051
0.0292076
0.000149255
0.000160245
0.000179116
0.000156573
0.0622859
0.00016156
0.00930702
0.000184393
0.000155487
0.0863999
0.0574189
0.000213762
0.000150317
0.000155235
0.000188022
0.000170637
0.000147315
0.000177624
0.000168812
0.000207648
0.000149361
0.000235763
0.000155433
0.000171436
0.0776359
0.0469728
0.000151834
0.000189745
0.0255488
0.000150226
0.000152612
0.0629935
0.000310749
0.000157151
0.000159051
0.000148697
0.000177753
0.00016279
0.0598824
0.000195039
0.000151213
0.000149445
0.000167113
0.000161619
0.0634055
0.0217391
0.000148866
0.00014846
0.000161503
0.000149273
0.000157889
0.000152964
0.00015415
0.000155475
0.000148881
0.000155945
0.000149856
0.000185076
0.0793356
0.000149745
0.082603
0.0125986
0.000146936
0.000185479
0.000191853
0.000182985
0.000151882
0.000199176
0.000163744
0.000169857
0.000167513
0.000154675
0.000149348
0.0186893
0.000169104
0.0810266
0.000151793
0.000148751
0.000148362
0.000176198
0.00014891
0.00018149
0.000191601
0.000341493
0.000148179
0.0540702
0.0605743
0.0390104
0.000147385
0.000203041
0.000225631
0.063465
0.0623396
0.00015076
0.000151236
0.00020051
0.0746066
0.0788547
0.000177446
0.0494955
0.000149499
0.00015015
0.000166951
0.000149302
0.000149408
0.000209975
0.000149757
0.00017076
0.000149213
0.0590159
0.0805543
0.0874183
0.0781305
0.0361604
0.000149626
0.000149013
0.0823959
0.000149031
0.000149332
0.000147037
0.00018784
0.0652357
0.0199722
0.00015728
0.000153276
0.000154067
0.00016512
0.0257726
0.000148187
0.0739191
0.0604693
0.000149263
0.00014916
0.0362664
0.000199395
0.000158228
0.00014857
0.0809086
0.0350508
0.000151499
0.0003169
0.000149677
0.0412586
0.000204109
0.000159747
0.020571
0.0118533
0.0877045
0.000149029
0.000154013
0.000149621
0.000149898
0.0639627
0.000149015
0.00020613
0.0435921
0.0172156
0.000154033
0.000177658
0.0572
0.000178247
0.0834885
0.039792
0.000146181
0.000162094
0.000162155
0.000234029
0.0678262
0.000146787
0.0273858
0.000162767
0.000181258
0.000151873
0.00014766
0.000305396
0.000172391
0.014646
0.000149297
0.000177765
0.000153615
0.000213308
0.000159092
0.0567522
0.0836287
0.000212122
0.000210087
0.000149267
0.000154747
0.000197332
0.000185069
0.0624052
0.077988
0.000148937
0.076688
0.000171789
0.0564152
0.000166915
0.000174298
0.000173766
0.000151528
0.0857672
0.000148598
0.000170847
0.0400389
0.058762
0.00606088
0.0621621
0.000160051
0.000181265
0.000149381
0.0591826
0.000159129
0.08466
0.000149432
0.0840776
0.000147127
0.000148327
0.000170104
0.000159635
0.000161438
0.000149625
0.0401762
0.000183635
0.000149038
0.000169468
0.0364199
0.000218895
0.000149018
0.0434
0.000156244
0.00017509
0.000173718
0.000146482
0.000182362
0.000148334
0.0671386
0.000175579
0.000166513
0.000148642
0.000330919
0.000175004
0.000149482
0.0872469
0.0711159
0.000550448
0.000150718
0.0711077
0.000148976
0.000197274
0.000166381
0.000185188
0.0730815
0.037817
0.000160358
0.0629279
0.000173081
0.000159472
0.000148194
0.0836683
0.000183115
0.000195574
0.000166323
0.000149591
0.0737496
0.000187914
0.000452415
0.0357271
0.0739461
0.0408304
0.0427643
0.0258431
0.000159785
0.000159794
0.000148742
0.000151494
0.000146946
0.000239851
0.000160843
0.000161221
0.0485168
0.000148752
0.000147402
0.000182171
0.000212002
0.000165278
0.000148086
0.0508239
0.000157763
0.000185935
0.00015068
0.0172474
0.000158379
0.0791589
0.000168235
0.000171346
0.000175037
0.00014871
0.00798994
0.0512748
0.000184617
0.000149962
0.000147415
0.0225796
0.0336518
0.0558873
0.000150512
0.000184725
0.0650678
0.000151842
0.000148138
0.000150582
0.0635744
0.000172919
0.000166039
0.000167742
0.000163537
0.0814427
0.000183427
0.00079407
0.000165615
0.000170461
0.000147185
0.00018757
0.000176906
0.000148888
0.0665635
0.0415821
0.0520368
0.0696718
0.0307028
0.0712912
0.0810405
0.000151965
0.000151244
0.0857701
0.0290723
0.0829654
0.00015006
0.000176589
0.000148783
0.000148983
0.069158
0.0601524
0.000188631
0.00014835
0.0556557
0.000197736
0.000179268
0.0337568
0.0588162
0.0489326
0.000147439
0.0557089
0.0672663
0.000293056
0.000173437
0.000177245
0.000149695
0.000148032
0.000173065
0.000176695
0.000156248
0.000179777
0.000165269
0.000156218
0.0208972
0.035445
0.00016072
0.000181682
0.0380793
0.011367
0.000148758
0.000194148
0.000238098
0.0322013
0.000173628
0.000151785
0.000166797
0.000160602
0.000160052
0.000146537
0.000159717
0.000171132
0.000183675
0.000211457
0.0001495
0.000154089
0.0395812
0.0656887
0.0546571
0.0518369
0.000216625
0.000146637
0.000148677
0.000167058
0.000149172
0.0724387
0.000148751
0.000149816
0.000147657
0.0655115
0.0281428
0.000150926
0.000190135
0.000161665
0.000163456
0.000166154
0.000160501
0.00017768
0.000170728
0.0156596
0.000162949
0.0313462
0.000170969
0.0533801
0.000164677
0.000147542
0.000148032
0.000199439
0.000215126
0.000147259
0.000164859
0.000165136
0.000179939
0.0779501
0.0188799
0.0858678
0.000149815
0.0604851
0.000160579
0.000167698
0.000148629
0.000183851
0.00015447
0.0374781
0.000307858
0.000169054
0.000148666
0.06591
0.000156484
0.0327976
0.0285746
0.0239741
0.000155603
0.000206489
0.0840574
0.0608028
0.0473886
0.000181379
0.00015025
0.00017098
0.000150783
0.0758575
0.000155828
0.000166722
0.059136
0.0513265
0.000149967
0.000149399
0.0316887
0.000173669
0.065013
0.000159388
0.000148556
0.000175383
0.000933142
0.000163489
0.0778862
0.000167593
0.0595954
0.00015898
0.00014962
0.000149346
0.000248029
0.000151365
0.000186323
0.00014894
0.000150367
0.000225834
0.000163777
0.000151426
0.000148404
0.000168025
0.0586409
0.000182329
0.000173573
0.000156267
0.000182522
0.000149775
0.000197277
0.00016724
0.000177566
0.000167733
0.000168753
0.000177417
0.00016424
0.000150601
0.000191203
0.0357457
0.0438033
0.000152249
0.00283629
0.0334725
0.000149196
0.000151244
0.00023587
0.0348151
0.000156794
0.0346238
0.000847462
0.000152872
0.000199791
0.000146776
0.000162174
0.000183509
0.0717597
0.000209793
0.0290812
0.0557113
0.0686993
0.0452978
0.00015842
0.0431018
0.000148699
0.066112
0.041405
0.000148766
0.000148463
0.0415344
0.000149477
0.000148691
0.0508212
0.069332
0.000268629
0.00016405
0.0371773
0.000148609
0.0683412
0.0381577
0.000149219
0.0664501
0.0577819
0.03358
0.0408986
0.0400659
0.0390697
0.000148083
0.000152231
0.000184456
0.00018942
0.00014867
0.0109943
0.000148613
0.041925
0.047797
0.000165427
0.0391254
0.0436518
0.0458515
0.0255776
0.000166285
0.0144556
0.000449281
0.000161952
0.000146887
0.0717518
0.000163351
0.000148911
0.0666532
0.000149039
0.0750817
0.000149593
0.0608321
0.000162753
0.000148842
0.00927819
0.000156698
0.000161813
0.0376492
0.0866276
0.00172234
0.000166917
0.000186088
0.000152963
0.000180905
0.000209461
0.000180539
0.000149364
0.000364249
0.000185907
0.000164292
0.0354118
0.000176385
0.000164201
0.000206624
0.000188268
0.000183395
0.00014884
0.000227372
0.000148123
0.00021026
0.055281
0.0333248
0.000147613
0.000172694
0.0187009
0.000156981
0.000182679
0.000172611
0.000174756
0.0828723
0.000186522
0.000152602
0.0383154
0.000147582
0.0661013
0.000148869
0.000155502
0.000210867
0.0577447
0.00016479
0.000190377
0.000227176
0.000171767
0.000152216
0.000179114
0.000176104
0.0485583
0.000155891
0.00712766
0.000215829
0.000172195
0.000166258
0.00018155
0.000170213
0.000168837
0.000186828
0.000164499
0.000157517
0.000153191
0.00502248
0.000149238
0.000164446
0.000146348
0.000208509
0.00016539
0.00018747
0.0386264
0.000151673
0.000265729
0.000145461
0.000149758
0.000149253
0.000149348
0.000165536
0.000148183
0.000200413
0.0193583
0.000188058
0.00017972
0.000161859
0.000150537
0.0425899
0.000149702
0.085156
0.0881267
0.0210496
0.0002406
0.000167252
0.000166216
0.000149198
0.000159392
0.000171804
0.000172786
0.037997
0.000188709
0.044008
0.000180842
0.000149361
0.000147335
0.0429906
0.000149311
0.000167839
0.000166921
0.000605845
0.000157712
0.0599599
0.000149131
0.000158824
0.000148783
0.000151599
0.000178913
0.000210759
0.000151484
0.000173872
0.000160521
0.000181004
0.000189479
0.00022349
0.00020484
0.000232278
0.000244591
0.000165899
0.000154007
0.000190016
0.0585087
0.0830873
0.0648335
0.00017189
0.0846302
0.000212175
0.000154931
0.000148299
0.000194899
0.000149001
0.000174274
0.0166136
0.000148843
0.00014979
0.00121895
0.0683206
0.000185686
0.00320067
0.000149551
0.0262912
0.000172719
0.054654
0.000157997
0.000149866
0.0681048
0.000165868
0.000149164
0.000174553
0.000149674
0.000194957
0.00016407
0.00016503
0.0702418
0.000160662
0.0867484
0.000148435
0.0394752
0.000149786
0.000161055
0.000152061
0.000175283
0.000148903
0.00016777
0.0646833
0.000349736
0.000179691
0.000163989
0.00016967
0.000149665
0.00015052
0.000156188
0.0776117
0.000161846
0.0615946
0.0308697
0.000193905
0.000149429
0.000198163
0.000217075
0.000213504
0.000165405
0.0304195
0.000149297
0.000146415
0.000149121
0.0648647
0.000151374
0.000149284
0.0653788
0.000148789
0.000212086
0.000173348
0.000150986
0.0611224
0.000169014
0.0597061
0.000150077
0.0778898
0.0001535
0.000167879
0.0228589
0.000188314
0.00014876
0.000166685
0.0856349
0.000173988
0.000199881
0.000168899
0.000159981
0.000192122
0.000160252
0.00015412
0.00542468
0.000164744
0.00016857
0.000227908
0.000149033
0.000148899
0.000149205
0.00017308
0.000149888
0.000157006
0.0855565
0.0146347
0.000172662
0.00717934
0.000194421
0.000177651
0.0525502
0.0374664
0.000150842
0.012355
0.083198
0.0376715
0.0281555
0.000166799
0.08613
0.0656122
0.0416541
0.0337929
0.0811478
0.000164297
0.000171247
0.000159172
0.00016464
0.000150716
0.00040697
0.000149896
0.0142213
0.000175945
0.000204177
0.000145946
0.000193838
0.000165108
0.000152596
0.000149951
0.00014869
0.000175189
0.000158446
0.00015374
0.000182335
0.0435784
0.000158904
0.000198006
0.000147349
0.000175005
0.000170818
0.000150048
0.000158386
0.000148145
0.0618241
0.0662811
0.000222541
0.0284194
0.000163554
0.000195127
0.0001489
0.000181922
0.000149352
0.000151837
0.000149541
0.0794923
0.000148516
0.000186696
0.000287315
0.000159867
0.000169657
0.000148631
0.0522022
0.00022194
0.0325562
0.0315496
0.000213037
0.000946161
0.0335136
0.000831122
0.0522458
0.0125254
0.000175812
0.000159698
0.0565132
0.059801
0.000148597
0.0150683
0.000193551
0.0790747
0.000146054
0.000189268
0.0549574
0.000149812
0.016238
0.000154723
0.0214883
0.00014855
0.000149233
0.000182817
0.000185164
0.000165883
0.000183397
0.000149827
0.000152039
0.0397412