/*--------------------------------*- C++ -*----------------------------------*\
| =========                 |                                                 |
| \\      /  F ield         | OpenFOAM: The Open Source CFD Toolbox           |
|  \\    /   O peration     | Version:  v2012                                 |
|   \\  /    A nd           | Website:  www.openfoam.com                      |
|    \\/     M anipulation  |                                                 |
\*---------------------------------------------------------------------------*/
FoamFile
{
    version     2.0;
    format      ascii;
    class       pointVectorField;
    location    "400";
    object      pointDisplacement;
}
// * * * * * * * * * * * * * * * * * * * * * * * * * * * * * * * * * * * * * //

dimensions      [0 1 0 0 0 0 0];


internalField   nonuniform List<vector> 
14386
(
(0 0 0)
(0.0185635 0.181963 0)
(0 0 0)
(0.0185635 0.181963 0)
(0 0 0)
(0 0 0)
(0 0 0)
(0 0 0)
(0 0 0)
(0 0 0)
(0 0 0)
(0 0 0)
(0 0 0)
(0 0 0)
(0 0 0)
(0 0 0)
(0 0 0)
(0 0 0)
(0 0 0)
(0 0 0)
(0 0 0)
(0 0 0)
(0 0 0)
(0 0 0)
(0 0 0)
(0 0 0)
(0 0 0)
(0 0 0)
(0 0 0)
(0 0 0)
(0 0 0)
(0 0 0)
(0 0 0)
(0 0 0)
(0 0 0)
(0 0 0)
(0 0 0)
(0 0 0)
(0 0 0)
(0 0 0)
(0 0 0)
(0 0 0)
(0 0 0)
(0 0 0)
(0 0 0)
(0 0 0)
(0 0 0)
(0 0 0)
(0 0 0)
(0 0 0)
(0 0 0)
(0 0 0)
(0 0 0)
(0 0 0)
(0 0 0)
(0 0 0)
(0 0 0)
(0 0 0)
(0 0 0)
(0 0 0)
(0 0 0)
(0 0 0)
(0 0 0)
(0 0 0)
(0 0 0)
(0 0 0)
(0 0 0)
(0 0 0)
(0 0 0)
(0 0 0)
(0 0 0)
(0 0 0)
(0 0 0)
(0 0 0)
(0 0 0)
(0 0 0)
(0 0 0)
(0 0 0)
(0 0 0)
(0 0 0)
(0 0 0)
(0 0 0)
(0 0 0)
(0 0 0)
(0 0 0)
(0 0 0)
(0 0 0)
(0 0 0)
(0 0 0)
(0 0 0)
(0 0 0)
(0 0 0)
(0 0 0)
(0 0 0)
(0 0 0)
(0 0 0)
(0 0 0)
(0 0 0)
(0 0 0)
(0 0 0)
(0 0 0)
(0 0 0)
(0 0 0)
(0 0 0)
(0 0 0)
(0 0 0)
(0 0 0)
(0 0 0)
(0 0 0)
(0 0 0)
(0 0 0)
(0 0 0)
(0 0 0)
(0 0 0)
(0 0 0)
(0 0 0)
(0 0 0)
(0 0 0)
(0 0 0)
(0 0 0)
(0 0 0)
(0 0 0)
(0 0 0)
(0 0 0)
(0 0 0)
(0 0 0)
(0 0 0)
(0 0 0)
(0 0 0)
(0 0 0)
(0 0 0)
(0 0 0)
(0 0 0)
(0.0199531 0.120724 0)
(0.0199017 0.122992 0)
(0.0198502 0.12526 0)
(0.0197987 0.127528 0)
(0.0197473 0.129796 0)
(0.0196958 0.132065 0)
(0.0196443 0.134333 0)
(0.0195928 0.136601 0)
(0.0195414 0.138869 0)
(0.0194899 0.141137 0)
(0.0194384 0.143405 0)
(0.019387 0.145673 0)
(0.0193355 0.147941 0)
(0.019284 0.150209 0)
(0.0192326 0.152477 0)
(0.0191811 0.154746 0)
(0.0191296 0.157014 0)
(0.0190782 0.159282 0)
(0.0190267 0.16155 0)
(0.0189752 0.163818 0)
(0.0189237 0.166086 0)
(0.0188723 0.168354 0)
(0.0188208 0.170622 0)
(0.0187693 0.17289 0)
(0.0187179 0.175158 0)
(0.0186664 0.177427 0)
(0.0186149 0.179695 0)
(0.0162954 0.181911 0)
(0.0140273 0.18186 0)
(0 0 0)
(0 0 0)
(0 0 0)
(0 0 0)
(0 0 0)
(0 0 0)
(0 0 0)
(0 0 0)
(0 0 0)
(0 0 0)
(0 0 0)
(0 0 0)
(0 0 0)
(0 0 0)
(0 0 0)
(0 0 0)
(0 0 0)
(0 0 0)
(0 0 0)
(0 0 0)
(0 0 0)
(0 0 0)
(0 0 0)
(0 0 0)
(0 0 0)
(0 0 0)
(0 0 0)
(0 0 0)
(0 0 0)
(0 0 0)
(0 0 0)
(0 0 0)
(0 0 0)
(0 0 0)
(0 0 0)
(0 0 0)
(0 0 0)
(0 0 0)
(0 0 0)
(0 0 0)
(0 0 0)
(0 0 0)
(0 0 0)
(0 0 0)
(0 0 0)
(0 0 0)
(0 0 0)
(0 0 0)
(0 0 0)
(0 0 0)
(0 0 0)
(0 0 0)
(0 0 0)
(0 0 0)
(0 0 0)
(0 0 0)
(0 0 0)
(0 0 0)
(0 0 0)
(0 0 0)
(0 0 0)
(0 0 0)
(0 0 0)
(0 0 0)
(0 0 0)
(0 0 0)
(0 0 0)
(0 0 0)
(0 0 0)
(0 0 0)
(0 0 0)
(0 0 0)
(0 0 0)
(0 0 0)
(0 0 0)
(0 0 0)
(0 0 0)
(0 0 0)
(0 0 0)
(0 0 0)
(0 0 0)
(0 0 0)
(0 0 0)
(0 0 0)
(0 0 0)
(0 0 0)
(0 0 0)
(0 0 0)
(0 0 0)
(0 0 0)
(0 0 0)
(0 0 0)
(0 0 0)
(0 0 0)
(0 0 0)
(0 0 0)
(0 0 0)
(0 0 0)
(0 0 0)
(0 0 0)
(0 0 0)
(0 0 0)
(0 0 0)
(0 0 0)
(0 0 0)
(0 0 0)
(0 0 0)
(0 0 0)
(0 0 0)
(0 0 0)
(0 0 0)
(0 0 0)
(0 0 0)
(0 0 0)
(0 0 0)
(0 0 0)
(0 0 0)
(0 0 0)
(0 0 0)
(0 0 0)
(0 0 0)
(0 0 0)
(0 0 0)
(0 0 0)
(0 0 0)
(0 0 0)
(0 0 0)
(0 0 0)
(0 0 0)
(0.0199531 0.120724 0)
(0.0199017 0.122992 0)
(0.0198502 0.12526 0)
(0.0197987 0.127528 0)
(0.0197473 0.129796 0)
(0.0196958 0.132065 0)
(0.0196443 0.134333 0)
(0.0195928 0.136601 0)
(0.0195414 0.138869 0)
(0.0194899 0.141137 0)
(0.0194384 0.143405 0)
(0.019387 0.145673 0)
(0.0193355 0.147941 0)
(0.019284 0.150209 0)
(0.0192326 0.152477 0)
(0.0191811 0.154746 0)
(0.0191296 0.157014 0)
(0.0190782 0.159282 0)
(0.0190267 0.16155 0)
(0.0189752 0.163818 0)
(0.0189237 0.166086 0)
(0.0188723 0.168354 0)
(0.0188208 0.170622 0)
(0.0187693 0.17289 0)
(0.0187179 0.175158 0)
(0.0186664 0.177427 0)
(0.0186149 0.179695 0)
(0.0162954 0.181911 0)
(0.0140273 0.18186 0)
(0.000107134 0.00461385 0)
(0.0189946 0.162928 0)
(0.019928 0.121823 0)
(0.0194721 0.141913 0)
(0.000216677 0.00553814 0)
(1.90489e-06 0.00267396 0)
(-9.68975e-06 0.00195214 0)
(3.15197e-05 0.00343277 0)
(0.000406729 0.0066163 0)
(-1.19649e-05 0.00139276 0)
(0.000583432 0.00635569 0)
(-1.69146e-05 0.00097363 0)
(0.000778095 0.00543029 0)
(0.00102924 0.00378045 0)
(-1.04394e-05 0.000952211 0)
(0.0186917 0.175891 0)
(-1.36252e-05 0.000848133 0)
(-9.28296e-06 0.000746067 0)
(-1.08889e-05 0.000718577 0)
(-7.3751e-06 0.000558239 0)
(-7.26461e-06 0.000501707 0)
(6.77598e-05 0.00415797 0)
(1.54573e-05 0.00342406 0)
(-5.59816e-06 0.00228605 0)
(0.0192109 0.153403 0)
(0.0196713 0.133135 0)
(-4.422e-06 0.000324989 0)
(-4.48135e-06 0.000318133 0)
(0.000554601 0.00735816 0)
(0.000923369 0.00483929 0)
(0.000685264 0.00602516 0)
(0.000330381 0.00641301 0)
(0.000149802 0.00475418 0)
(-1.3081e-05 0.00129629 0)
(-1.11613e-05 0.00165516 0)
(-1.55796e-05 0.000934344 0)
(-1.65037e-05 0.000914363 0)
(-1.04168e-05 0.000881528 0)
(0.018846 0.169403 0)
(-2.86041e-06 0.000207485 0)
(-2.36266e-06 0.000169765 0)
(0.00100921 0.00263057 0)
(0.000260585 0.00582836 0)
(0.000134098 0.00492046 0)
(8.59576e-05 0.0043827 0)
(5.96275e-05 0.00450879 0)
(2.16123e-05 0.00319375 0)
(6.81511e-06 0.00268356 0)
(-2.38129e-06 0.0025203 0)
(-8.29048e-06 0.00219258 0)
(-5.58814e-06 0.000415816 0)
(-1.42741e-05 0.000910615 0)
(-1.18312e-05 0.00153773 0)
(-1.95905e-05 0.00105705 0)
(-6.05171e-06 0.000424742 0)
(-7.46107e-06 0.00050721 0)
(-8.55802e-06 0.000669396 0)
(-1.23628e-05 0.00131659 0)
(-9.59959e-07 6.93651e-05 0)
(0.0164899 0.0520239 0)
(0.0162543 0.0511663 0)
(0.0161672 0.0562738 0)
(0.0159379 0.0552551 0)
(0.0158421 0.0602768 0)
(0.0160622 0.0614405 0)
(0.0157289 0.0653018 0)
(0.015517 0.064007 0)
(0.0153997 0.0688478 0)
(0.0156013 0.0702628 0)
(0.0152677 0.0736222 0)
(0.01507 0.0721391 0)
(0.0149312 0.0767726 0)
(0.0147386 0.0752126 0)
(0.0145957 0.0796867 0)
(0.0147807 0.0812574 0)
(0.0144436 0.0840488 0)
(0.0142646 0.0823422 0)
(0.0141074 0.0865821 0)
(0.014291 0.0886745 0)
(0.0139317 0.0907565 0)
(0.013775 0.0888064 0)
(0.0136 0.0927525 0)
(0.0137425 0.0947236 0)
(0.0134139 0.0965497 0)
(0.0135474 0.098529 0)
(0.0132159 0.10021 0)
(0.0130882 0.0982116 0)
(0.0128901 0.10171 0)
(0.0130054 0.103743 0)
(0.0126782 0.105089 0)
(0.0127819 0.107162 0)
(0.0124514 0.108349 0)
(0.0125452 0.110449 0)
(0.0122113 0.111492 0)
(0.0121239 0.109368 0)
(0.0118799 0.112393 0)
(0.0119567 0.114545 0)
(0.0116239 0.115309 0)
(0.0116875 0.117505 0)
(0.0113549 0.118103 0)
(0.011406 0.120374 0)
(0.0110696 0.12078 0)
(0.0111046 0.123028 0)
(0.0107676 0.123329 0)
(0.0107844 0.125474 0)
(0.0104614 0.125713 0)
(0.0104519 0.127799 0)
(0.0101404 0.127886 0)
(0.0101081 0.130006 0)
(0.00979305 0.129913 0)
(0.00974671 0.13211 0)
(0.00942633 0.131891 0)
(0.00936734 0.134056 0)
(0.0090443 0.133756 0)
(0.00897247 0.135852 0)
(0.00864854 0.135465 0)
(0.00855955 0.137519 0)
(0.00823485 0.137041 0)
(0.00812073 0.139092 0)
(0.00780086 0.138486 0)
(0.00765889 0.140527 0)
(0.00734935 0.139772 0)
(0.00718024 0.141808 0)
(0.00687477 0.140936 0)
(0.00668402 0.142959 0)
(0.00637825 0.142012 0)
(0.00617224 0.143972 0)
(0.00587776 0.142979 0)
(0.00564798 0.144866 0)
(0.00538048 0.143812 0)
(0.00511474 0.145643 0)
(0.00487134 0.144494 0)
(0.00456882 0.146233 0)
(0.00435008 0.145024 0)
(0.00401603 0.146659 0)
(0.0038273 0.145424 0)
(0.00346474 0.147003 0)
(0.00330298 0.145709 0)
(0.0029228 0.147224 0)
(0.00278072 0.145869 0)
(0.0023849 0.147319 0)
(0.00226084 0.145942 0)
(0.00184313 0.147322 0)
(0.00174887 0.145914 0)
(0.00130954 0.147183 0)
(0.00124712 0.145776 0)
(0.000795854 0.146914 0)
(0.000764892 0.145499 0)
(0.000296563 0.146569 0)
(0.000293994 0.145117 0)
(-0.000190418 0.14613 0)
(-0.000167153 0.144672 0)
(-0.000652802 0.145583 0)
(-0.000601727 0.144116 0)
(-0.000140826 0.1432 0)
(-0.000559033 0.142645 0)
(0.00312872 0.144278 0)
(0.00657588 0.139928 0)
(0.00987408 0.127601 0)
(0.0117964 0.110264 0)
(-0.000104921 0.141708 0)
(-0.000524928 0.141159 0)
(-0.00107861 0.144933 0)
(-8.10785e-05 0.140198 0)
(-0.000494753 0.13965 0)
(-7.68731e-05 0.138674 0)
(-0.000468316 0.138118 0)
(-6.77903e-05 0.137117 0)
(-0.000443801 0.136561 0)
(-5.51931e-05 0.135534 0)
(-0.00042006 0.134975 0)
(-4.58204e-05 0.13393 0)
(-0.000397392 0.133363 0)
(-0.000776172 0.134346 0)
(-0.000736364 0.132715 0)
(-0.0011183 0.133624 0)
(-0.00106161 0.131983 0)
(-0.000698793 0.131076 0)
(-0.00100914 0.130333 0)
(-0.00144048 0.132803 0)
(-0.000663522 0.129424 0)
(-0.000961344 0.128666 0)
(-0.000629877 0.127745 0)
(-0.000918936 0.126976 0)
(-0.000592665 0.126025 0)
(-0.000878153 0.125262 0)
(-0.00056413 0.124264 0)
(-0.000841477 0.123526 0)
(-0.000544296 0.122496 0)
(-0.000811074 0.121766 0)
(-0.000522683 0.120714 0)
(-0.000780571 0.119986 0)
(-0.00106591 0.120962 0)
(-0.00102557 0.11918 0)
(-0.00131427 0.120107 0)
(-0.00125847 0.118291 0)
(-0.00154811 0.119135 0)
(-0.00148124 0.117328 0)
(-0.0012022 0.116502 0)
(-0.00142252 0.115537 0)
(-0.00115026 0.114675 0)
(-0.00136298 0.113711 0)
(-0.00176693 0.118079 0)
(-0.00109972 0.112823 0)
(-0.00130447 0.111868 0)
(-0.00105619 0.110954 0)
(-0.00125327 0.110013 0)
(-0.00101982 0.109072 0)
(-0.00120597 0.108138 0)
(-0.00098536 0.107178 0)
(-0.00116135 0.10625 0)
(-0.0013801 0.107137 0)
(-0.00132597 0.10525 0)
(-0.00154132 0.106062 0)
(-0.00147835 0.104186 0)
(-0.00127394 0.103357 0)
(-0.00141551 0.1023 0)
(-0.00122742 0.10144 0)
(-0.00138481 0.100311 0)
(-0.00118386 0.099521 0)
(-0.00131575 0.0984572 0)
(-0.00162922 0.102988 0)
(-0.00113958 0.0976246 0)
(-0.00126975 0.0966101 0)
(-0.00109923 0.0957036 0)
(-0.00122468 0.0947006 0)
(-0.00106133 0.0937685 0)
(-0.00118202 0.0927776 0)
(-0.00116314 0.146391 0)
(-0.00102699 0.0918224 0)
(-0.0011416 0.0908477 0)
(-0.00129453 0.0917268 0)
(-0.00124831 0.0898101 0)
(-0.00140113 0.0906085 0)
(-0.00135085 0.0887126 0)
(-0.00120435 0.0878992 0)
(-0.00130233 0.0868383 0)
(-0.00116273 0.0859941 0)
(-0.00125706 0.0849699 0)
(-0.0014486 0.0875843 0)
(-0.0011228 0.0840877 0)
(-0.00121042 0.0830744 0)
(-0.00108447 0.0821734 0)
(-0.0011655 0.0811608 0)
(-0.00104872 0.0802629 0)
(-0.00112484 0.0792644 0)
(-0.00101471 0.0783591 0)
(-0.00108712 0.0773819 0)
(-0.000982843 0.0764634 0)
(-0.00105143 0.0755133 0)
(-0.00115371 0.0763534 0)
(-0.00111391 0.0745093 0)
(-0.00121378 0.075273 0)
(-0.00117049 0.0734541 0)
(-0.0010759 0.0726825 0)
(-0.0011293 0.0716483 0)
(-0.00122124 0.0723526 0)
(-0.00117699 0.0705715 0)
(-0.00108999 0.0698559 0)
(-0.00113501 0.0688066 0)
(-0.00105255 0.068077 0)
(-0.001095 0.0670547 0)
(-0.00101692 0.0663114 0)
(-0.0010567 0.065317 0)
(-0.00113228 0.0659906 0)
(-0.00109162 0.0642808 0)
(-0.00102011 0.0635963 0)
(-0.00105276 0.0625878 0)
(-0.000985036 0.0618939 0)
(-0.00101557 0.0609118 0)
(-0.000951422 0.0602082 0)
(-0.000980022 0.0592539 0)
(-0.00104191 0.0598909 0)
(-0.00100452 0.0582608 0)
(-0.000945931 0.0576136 0)
(-0.000968705 0.0566486 0)
(-0.000913166 0.0559923 0)
(-0.000934357 0.0550544 0)
(-0.000881638 0.0543895 0)
(-0.000901348 0.0534791 0)
(-0.000952089 0.0540809 0)
(-0.000917678 0.0525326 0)
(-0.000869557 0.051923 0)
(-0.000884634 0.0510043 0)
(-0.000838966 0.0503869 0)
(-0.000852887 0.0494958 0)
(-0.000809545 0.048871 0)
(-0.000822282 0.0480057 0)
(-0.000863793 0.0485726 0)
(-0.000832129 0.0471055 0)
(-0.000792709 0.0465351 0)
(-0.000801616 0.0456601 0)
(-0.000764125 0.0450827 0)
(-0.000772238 0.0442355 0)
(-0.00157843 0.145649 0)
(-0.00169258 0.147081 0)
(-0.00210528 0.146268 0)
(-0.00224716 0.147685 0)
(-0.000736553 0.0436515 0)
(-0.000743783 0.0428357 0)
(-0.000777953 0.0433592 0)
(-0.000748555 0.0419911 0)
(-0.000715621 0.0414641 0)
(-0.000780903 0.042437 0)
(-0.000750603 0.0411045 0)
(-0.000779892 0.0414531 0)
(-0.000750522 0.04018 0)
(0.0110935 0.125402 0)
(-0.000251899 0.121368 0)
(-0.000908784 0.0773667 0)
(-0.000903544 0.09274 0)
(0.00307737 0.148492 0)
(0.00930812 0.136173 0)
(0.00595218 0.145813 0)
(-0.000796323 0.108038 0)
(0.0188283 0.0943748 0)
(0.018759 0.0983555 0)
(0.0185929 0.0985415 0)
(0.0185184 0.102513 0)
(0.0183499 0.102536 0)
(0.0182723 0.106428 0)
(0.0184388 0.106481 0)
(0.0181869 0.110312 0)
(0.0180177 0.110175 0)
(0.0179265 0.113998 0)
(0.0177528 0.113771 0)
(0.0176527 0.117565 0)
(0.0183419 0.110429 0)
(0.0174765 0.117189 0)
(0.0173671 0.120941 0)
(0.0171895 0.120391 0)
(0.0170714 0.12408 0)
(0.0168916 0.123397 0)
(0.0167661 0.126981 0)
(0.0169483 0.127717 0)
(0.0166357 0.130498 0)
(0.0168204 0.131269 0)
(0.0164999 0.133918 0)
(0.0166852 0.134742 0)
(0.016357 0.137242 0)
(0.0161701 0.136338 0)
(0.0160192 0.139518 0)
(0.0165459 0.138119 0)
(0.0158319 0.1385 0)
(0.0156667 0.141581 0)
(0.0170168 0.119699 0)
(0.0154859 0.140402 0)
(0.0153016 0.143408 0)
(0.0151298 0.142091 0)
(0.0149299 0.144982 0)
(0.015097 0.14637 0)
(0.0147118 0.147783 0)
(0.0148751 0.14919 0)
(0.0144763 0.150435 0)
(0.0146378 0.151823 0)
(0.014224 0.152896 0)
(0.0143821 0.154283 0)
(0.0139536 0.155189 0)
(0.0140991 0.15666 0)
(0.013655 0.157352 0)
(0.0137951 0.158884 0)
(0.0133335 0.159382 0)
(0.0134708 0.16088 0)
(0.0129895 0.161209 0)
(0.0130942 0.162693 0)
(0.012524 0.16285 0)
(0.0126671 0.164344 0)
(0.0121116 0.164473 0)
(0.012203 0.165863 0)
(0.0116278 0.1658 0)
(0.011668 0.167214 0)
(0.0110762 0.167022 0)
(0.0110665 0.168377 0)
(0.0104483 0.168096 0)
(0.010402 0.16939 0)
(0.00977349 0.169037 0)
(0.00966863 0.170259 0)
(0.00905231 0.169836 0)
(0.0088624 0.170982 0)
(0.00824909 0.170485 0)
(0.00797785 0.171568 0)
(0.00736989 0.171012 0)
(0.00700696 0.172035 0)
(0.00641276 0.171432 0)
(0.00594839 0.17239 0)
(0.00538419 0.171752 0)
(0.00482581 0.172624 0)
(0.00432321 0.171962 0)
(0.00365892 0.172741 0)
(0.00324439 0.172041 0)
(0.00245631 0.172752 0)
(0.00213095 0.171992 0)
(0.00122453 0.172661 0)
(0.000984883 0.17186 0)
(-1.57473e-05 0.172489 0)
(0.0115954 0.164334 0)
(0.00852874 0.169286 0)
(-0.000143877 0.171674 0)
(0.0030338 0.171325 0)
(0.0135298 0.155756 0)
(0.0139457 0.160437 0)
(0.0147697 0.143542 0)
(0.000317843 0.134413 0)
(0.00159947 0.173438 0)
(0.0083384 0.135044 0)
(0.0123269 0.167398 0)
(0.00657433 0.173014 0)
(0.0149661 0.140721 0)
(0.0146021 0.142168 0)
(0.0148084 0.139302 0)
(0.0144314 0.140841 0)
(0.0146487 0.13785 0)
(0.0142745 0.139405 0)
(0.0144937 0.136403 0)
(0.0141239 0.137917 0)
(0.0143484 0.134931 0)
(0.013982 0.136393 0)
(0.014216 0.133427 0)
(0.0137406 0.139276 0)
(0.0136042 0.137705 0)
(0.0133463 0.140507 0)
(0.0132177 0.138883 0)
(0.012944 0.141567 0)
(0.0128291 0.139878 0)
(0.0125389 0.142434 0)
(-0.00184877 0.119839 0)
(-0.00206096 0.118735 0)
(0.0124356 0.140717 0)
(0.0121312 0.143148 0)
(0.0127253 0.138145 0)
(0.0103066 0.170648 0)
(0.0079951 0.141141 0)
(0.01288 0.109258 0)
(0.00136511 0.148775 0)
(0.00162613 0.144482 0)
(-0.000972058 0.0672628 0)
(-0.0007269 0.0444399 0)
(-0.000720305 0.038861 0)
(-0.000793613 0.0497023 0)
(-0.000858657 0.0552635 0)
(-0.00126588 0.0712055 0)
(-0.00106421 0.0588401 0)
(-0.000966226 0.0530727 0)
(-0.000998279 0.0831325 0)
(-0.00024399 0.11957 0)
(3.01562e-05 0.120137 0)
(2.19628e-05 0.118316 0)
(0.000299264 0.118793 0)
(0.000277104 0.116956 0)
(0.000555141 0.117342 0)
(0.00052119 0.115467 0)
(0.000797826 0.115793 0)
(0.000754654 0.113934 0)
(0.00102306 0.11412 0)
(0.00095508 0.112263 0)
(0.00122882 0.112322 0)
(0.00114248 0.110394 0)
(0.00142974 0.110472 0)
(0.00133932 0.1085 0)
(0.00166655 0.108563 0)
(0.00151479 0.106485 0)
(0.00180013 0.10621 0)
(0.00165861 0.104355 0)
(0.00192141 0.104058 0)
(0.00179113 0.102167 0)
(0.00204634 0.101845 0)
(0.00192112 0.0999171 0)
(0.00218195 0.103672 0)
(0.00230032 0.101389 0)
(0.00244909 0.103184 0)
(0.00255625 0.100795 0)
(0.00271815 0.102597 0)
(0.00281053 0.100119 0)
(0.00298448 0.101864 0)
(0.00305984 0.0992875 0)
(0.00325026 0.100986 0)
(0.00331083 0.0983122 0)
(0.00310955 0.0963566 0)
(0.00351666 0.0999868 0)
(0.00355555 0.0972128 0)
(0.00377937 0.0988086 0)
(0.00379341 0.0959207 0)
(0.00402976 0.0974573 0)
(0.00403044 0.0945284 0)
(0.00427238 0.0960072 0)
(0.00425921 0.0930018 0)
(0.00450966 0.0944279 0)
(0.00447716 0.0913409 0)
(0.0047386 0.092716 0)
(0.00422338 0.0899217 0)
(0.00428075 0.0989267 0)
(0.00468602 0.0895467 0)
(0.00495723 0.0908498 0)
(0.00488452 0.0876045 0)
(0.00516393 0.0888368 0)
(0.00523773 0.0920611 0)
(0.00545155 0.0899706 0)
(0.00552796 0.0931403 0)
(0.00574744 0.090989 0)
(0.00564942 0.0878006 0)
(0.00595216 0.0887331 0)
(0.00582511 0.0941132 0)
(0.00583185 0.0855151 0)
(0.0061411 0.0863463 0)
(0.00599792 0.0830815 0)
(0.00631408 0.0838169 0)
(0.00614816 0.0804945 0)
(0.00647007 0.0811584 0)
(0.00663922 0.0844409 0)
(0.0067985 0.0817048 0)
(0.00697173 0.0849253 0)
(0.00713248 0.0821004 0)
(0.00693803 0.0788723 0)
(0.0072747 0.0791551 0)
(0.00731008 0.0852321 0)
(0.0070581 0.0759302 0)
(0.00740033 0.0760793 0)
(0.00316958 0.103594 0)
(0.00167132 0.100199 0)
(0.00179685 0.0979441 0)
(0.00155757 0.0982479 0)
(0.00167016 0.0959568 0)
(0.00715474 0.0728464 0)
(0.00750462 0.0728797 0)
(0.00144694 0.0962748 0)
(0.00154903 0.093954 0)
(0.00134059 0.0942629 0)
(0.00143576 0.0919339 0)
(0.0012377 0.0922379 0)
(0.00132809 0.0898955 0)
(0.00113998 0.0901958 0)
(0.00122513 0.0878475 0)
(0.00140613 0.0874508 0)
(0.001297 0.085399 0)
(0.00147085 0.0849016 0)
(0.00135507 0.0828441 0)
(0.00152044 0.0822418 0)
(0.00139985 0.0801785 0)
(0.00124488 0.080787 0)
(0.00128634 0.0781054 0)
(0.00114 0.0787154 0)
(0.00118137 0.0759753 0)
(0.0010405 0.0766316 0)
(0.00107955 0.0738666 0)
(0.000945782 0.0745546 0)
(0.000981011 0.0718027 0)
(0.000855726 0.0724748 0)
(0.000887822 0.0697253 0)
(0.000770199 0.0703966 0)
(0.000799784 0.0676507 0)
(0.000688899 0.0683215 0)
(0.000716631 0.0655882 0)
(0.000612086 0.0662522 0)
(0.000638543 0.0635364 0)
(0.000540548 0.0642066 0)
(0.00155576 0.079431 0)
(0.000565372 0.0614903 0)
(0.000474123 0.0621578 0)
(0.000497009 0.0594639 0)
(0.000414922 0.0600343 0)
(0.000432983 0.0574723 0)
(0.000358044 0.058045 0)
(0.00111316 0.0709675 0)
(0.000372949 0.0555167 0)
(0.000302912 0.0561599 0)
(0.000317919 0.0535555 0)
(0.000249336 0.0542616 0)
(0.000266326 0.0516306 0)
(0.000201907 0.052321 0)
(0.000218919 0.0497175 0)
(0.000159363 0.0504123 0)
(0.000175222 0.0478355 0)
(0.000120158 0.0485312 0)
(0.000736946 0.0627213 0)
(0.000134487 0.0459716 0)
(8.42447e-05 0.0466801 0)
(6.43464e-05 0.049107 0)
(3.3017e-05 0.0472596 0)
(5.21443e-05 0.0448716 0)
(4.45209e-06 0.0454518 0)
(2.33368e-05 0.0430921 0)
(-2.13443e-05 0.0436786 0)
(-4.37324e-05 0.0459433 0)
(-6.6327e-05 0.0441803 0)
(-4.45751e-05 0.0419436 0)
(-8.6544e-05 0.0424525 0)
(-6.52843e-05 0.0402428 0)
(-0.000104294 0.0407546 0)
(-8.35946e-05 0.0385746 0)
(-0.000119775 0.0390892 0)
(-9.9661e-05 0.0369392 0)
(-0.000133255 0.0374605 0)
(-0.000155627 0.0395232 0)
(-0.000166605 0.0379029 0)
(-0.000144868 0.0358698 0)
(-0.00017593 0.0363205 0)
(-0.000154707 0.0343184 0)
(-0.000183655 0.0347778 0)
(-0.00016289 0.0328086 0)
(-0.000189872 0.0332749 0)
(-0.0002122 0.0351601 0)
(-0.000216354 0.0336605 0)
(-0.00019468 0.0318129 0)
(-0.000219301 0.0322017 0)
(-0.000198168 0.0303892 0)
(-0.000221159 0.0307839 0)
(-0.000200433 0.0290031 0)
(-0.000221886 0.0294029 0)
(-0.000243684 0.0311019 0)
(-0.000242721 0.0297213 0)
(-0.000221596 0.0280595 0)
(-0.000241082 0.0283925 0)
(-0.000220246 0.0267607 0)
(-0.000238146 0.0270751 0)
(-0.000259789 0.0286472 0)
(-0.000255676 0.0273356 0)
(-0.000231815 0.0255452 0)
(-0.000251466 0.0260696 0)
(-0.000272348 0.0275444 0)
(-0.000267398 0.0263123 0)
(-0.000248191 0.0249454 0)
(-0.000261531 0.0251039 0)
(-0.000281548 0.026385 0)
(-0.000274777 0.0252173 0)
(-0.000254898 0.0239146 0)
(-0.00026739 0.0240528 0)
(-0.000287632 0.0253061 0)
(-0.000279245 0.0241455 0)
(-0.000299388 0.0253237 0)
(-0.000290117 0.0241728 0)
(-0.000270413 0.0229922 0)
(-0.0002805 0.0230312 0)
(-0.000299972 0.0241455 0)
(-0.00028963 0.023015 0)
(-0.000308553 0.0240524 0)
(-0.000297719 0.0229411 0)
(-0.000278961 0.0218969 0)
(-0.000286412 0.0218339 0)
(-0.000305 0.0228238 0)
(-0.000292927 0.0217226 0)
(-0.000311422 0.0226684 0)
(-0.00029848 0.0215627 0)
(-0.000280313 0.0206279 0)
(-0.000285239 0.0204691 0)
(-0.000303154 0.0213614 0)
(-0.000289508 0.020277 0)
(-0.00027188 0.0193907 0)
(-0.000306984 0.0211221 0)
(-0.000292847 0.0200456 0)
(-0.000309849 0.0208447 0)
(-0.000295272 0.0197795 0)
(-0.000311699 0.0205295 0)
(-0.000296568 0.0194679 0)
(-0.000312522 0.0201755 0)
(-0.000296722 0.0191065 0)
(-0.000312708 0.019802 0)
(-0.000295688 0.018697 0)
(-0.000280293 0.0180221 0)
(-0.000311589 0.0193733 0)
(-0.000293986 0.0182678 0)
(-0.000309191 0.0188968 0)
(-0.000291658 0.0178207 0)
(-0.000306026 0.0183983 0)
(-0.000288023 0.0173224 0)
(-0.000301751 0.0178608 0)
(-0.000327146 0.019991 0)
(-0.00032697 0.0216131 0)
(-0.000283087 0.016773 0)
(-0.000296507 0.0172926 0)
(-0.000269749 0.0162394 0)
(-9.16509e-05 0.0463536 0)
(0.000445118 0.0547194 0)
(-0.000277536 0.0162092 0)
(-0.000290514 0.0167048 0)
(-0.000309711 0.0177799 0)
(-0.000303145 0.017163 0)
(-0.000322767 0.0182369 0)
(-0.000315582 0.0175901 0)
(0.000227532 0.0571839 0)
(-0.000295756 0.0165242 0)
(-0.000307565 0.0169224 0)
(0.00722868 0.0696305 0)
(0.00758166 0.0695795 0)
(0.00786325 0.0727475 0)
(0.0079381 0.0693858 0)
(0.0082296 0.0724224 0)
(0.00829824 0.0690246 0)
(0.00859448 0.0719384 0)
(0.0086623 0.0684493 0)
(0.00895603 0.0713245 0)
(0.009028 0.0676425 0)
(0.00870398 0.0648909 0)
(0.00907436 0.0638677 0)
(0.00937746 0.0665852 0)
(0.00944449 0.0626964 0)
(0.00910212 0.0600442 0)
(0.00947456 0.0587353 0)
(0.00983021 0.0612551 0)
(0.00985085 0.0572228 0)
(0.00947396 0.0547849 0)
(0.009847 0.0531751 0)
(0.0102274 0.0554983 0)
(0.0102203 0.0513418 0)
(0.0106021 0.0535485 0)
(0.0105934 0.0492484 0)
(0.0101876 0.0471726 0)
(0.0105587 0.0449449 0)
(0.0109687 0.0468668 0)
(0.0109317 0.0424427 0)
(0.0104955 0.0406864 0)
(0.0108658 0.0380868 0)
(0.0113057 0.0396554 0)
(0.011234 0.035215 0)
(0.0116755 0.0366058 0)
(0.0115982 0.0320627 0)
(0.0111346 0.0308623 0)
(0.0114918 0.0276205 0)
(0.0119679 0.0286208 0)
(0.0118486 0.024096 0)
(0.0113577 0.0233389 0)
(-0.000287523 0.0158622 0)
(-0.000298738 0.0162347 0)
(0.000581905 0.0688244 0)
(0.00728053 0.0663179 0)
(0.00693078 0.0663122 0)
(0.000227991 0.0469632 0)
(-0.00033568 0.0186648 0)
(0.00108504 0.11598 0)
(-0.000278496 0.0151791 0)
(-0.000289128 0.015528 0)
(-6.59864e-05 0.036339 0)
(0.00695731 0.0629415 0)
(0.00661114 0.062903 0)
(-0.000268711 0.0144771 0)
(-0.000278782 0.0148046 0)
(-0.00029954 0.0158516 0)
(-0.000258443 0.0141263 0)
(0.0058337 0.0797419 0)
(0.00661035 0.0594678 0)
(0.00626793 0.0593718 0)
(0.000908157 0.0771738 0)
(0.00104243 0.0924398 0)
(0.00624084 0.0558786 0)
(0.00589961 0.0557043 0)
(0.000378258 0.0625653 0)
(-0.000178588 0.0285301 0)
(-0.000239976 0.0354654 0)
(-0.00100463 0.0985806 0)
(0.0110292 0.118668 0)
(0.0123344 0.13901 0)
(0.0126259 0.136383 0)
(0.0051088 0.142712 0)
(0.0160171 0.0502573 0)
(0.0168699 0.135534 0)
(0.0167355 0.138939 0)
(0.0170515 0.136329 0)
(0.0169246 0.139724 0)
(0.0172305 0.137089 0)
(0.0171145 0.140415 0)
(0.0174074 0.137769 0)
(0.0173014 0.14102 0)
(0.017584 0.138349 0)
(0.0174849 0.141588 0)
(0.0177607 0.138814 0)
(0.0176721 0.14198 0)
(0.0179354 0.139144 0)
(0.0178574 0.142241 0)
(0.018104 0.139398 0)
(0.018036 0.142439 0)
(0.018268 0.139562 0)
(0.0182083 0.142551 0)
(0.0184276 0.139577 0)
(0.0184838 0.136562 0)
(0.0186334 0.136422 0)
(0.0186832 0.133439 0)
(0.018821 0.133124 0)
(0.0188701 0.1302 0)
(0.0189956 0.129831 0)
(0.0190458 0.126863 0)
(0.0191632 0.126478 0)
(0.01921 0.123444 0)
(0.0193207 0.122973 0)
(0.0193637 0.119963 0)
(0.0194683 0.119407 0)
(0.0195103 0.116375 0)
(0.0196089 0.115743 0)
(0.0196512 0.112713 0)
(0.0197441 0.112003 0)
(0.0183751 0.142519 0)
(0.0181521 0.14546 0)
(0.0195689 0.118707 0)
(0.0183205 0.145479 0)
(0.0181047 0.148248 0)
(0.0182615 0.148432 0)
(0.0180414 0.150979 0)
(0.0182041 0.151263 0)
(0.017969 0.153719 0)
(0.0181478 0.154005 0)
(0.0179067 0.156467 0)
(0.0183665 0.151365 0)
(0.0183168 0.154092 0)
(0.0185178 0.151369 0)
(0.0177147 0.156026 0)
(0.0176434 0.158753 0)
(0.0184754 0.154044 0)
(0.0186581 0.151259 0)
(0.0174389 0.158257 0)
(0.0173536 0.160828 0)
(0.0186233 0.153879 0)
(0.0187869 0.151008 0)
(0.0171998 0.144308 0)
(0.0190994 0.123833 0)
(0.0184252 0.098598 0)
(0.0145661 0.131788 0)
(0.0144259 0.130355 0)
(0.014773 0.128505 0)
(0.0146258 0.127077 0)
(0.0149644 0.125094 0)
(0.0148202 0.123707 0)
(0.0151443 0.121574 0)
(0.014994 0.120331 0)
(0.0153179 0.117931 0)
(0.0151424 0.116829 0)
(0.0154808 0.114176 0)
(0.0152952 0.11311 0)
(0.0156347 0.110308 0)
(0.0148233 0.119533 0)
(0.0154492 0.10928 0)
(0.015784 0.106307 0)
(0.0155926 0.105377 0)
(0.0159231 0.102235 0)
(0.016118 0.103033 0)
(0.0162492 0.0988485 0)
(0.0171421 0.160196 0)
(0.0170401 0.162593 0)
(0.0172555 0.163291 0)
(0.0169304 0.164868 0)
(0.0171474 0.165681 0)
(0.0168055 0.167034 0)
(0.0170219 0.167971 0)
(0.0166581 0.16907 0)
(0.0168791 0.17007 0)
(0.0164858 0.170938 0)
(0.00583681 0.170829 0)
(0.0187607 0.15349 0)
(0.0189039 0.150607 0)
(0.0189303 0.14817 0)
(0.0190332 0.147696 0)
(0.0164467 0.099474 0)
(0.0165683 0.0952333 0)
(0.0164499 0.167956 0)
(0.00584455 0.0522091 0)
(0.00550947 0.0519652 0)
(0.00618753 0.0523041 0)
(0.00105547 0.108381 0)
(0.0167688 0.0957116 0)
(0.0168812 0.0913822 0)
(0.0170849 0.091766 0)
(0.0171872 0.0873119 0)
(0.0169783 0.0870266 0)
(0.0172788 0.0828292 0)
(0.0160484 0.0981014 0)
(0.0174865 0.0830208 0)
(0.0175734 0.0784016 0)
(0.0177802 0.0785032 0)
(0.0178604 0.0737823 0)
(0.0190601 0.145276 0)
(0.0191523 0.144706 0)
(0.0166975 0.171938 0)
(0.0162753 0.17262 0)
(0.0191797 0.142317 0)
(0.0192622 0.141695 0)
(0.0192349 0.143998 0)
(0.0193346 0.140989 0)
(0.0193636 0.13871 0)
(0.0194274 0.138003 0)
(0.0194584 0.135737 0)
(0.0195165 0.134985 0)
(0.0195486 0.132771 0)
(0.0196028 0.131934 0)
(0.0196348 0.129788 0)
(0.019687 0.128854 0)
(0.0197186 0.126751 0)
(0.0197687 0.125759 0)
(0.0198 0.123727 0)
(0.0198469 0.122712 0)
(0.0198792 0.120707 0)
(0.0199232 0.119697 0)
(0.0199573 0.117666 0)
(0.01888 0.153009 0)
(0.0178426 0.135717 0)
(0.0170669 0.0826113 0)
(0.015261 0.108217 0)
(0.00168654 0.0815276 0)
(0.00171247 0.0786136 0)
(0.00886316 0.0748442 0)
(0.0171137 0.171221 0)
(0.0122262 0.144869 0)
(0.0118009 0.145462 0)
(0.0118854 0.147183 0)
(0.0114433 0.147661 0)
(0.0113745 0.145933 0)
(0.0110035 0.14802 0)
(0.0110559 0.149754 0)
(0.0106046 0.149989 0)
(0.0106339 0.151739 0)
(0.0101761 0.15181 0)
(0.0101792 0.153549 0)
(0.00971771 0.153477 0)
(0.00969333 0.155176 0)
(0.00922498 0.155006 0)
(0.00917214 0.15666 0)
(0.0086975 0.156389 0)
(0.00861022 0.158001 0)
(0.00813064 0.157639 0)
(0.00824044 0.156033 0)
(0.00767089 0.157207 0)
(0.00751308 0.158779 0)
(0.00706608 0.158254 0)
(0.0068619 0.159786 0)
(0.0064265 0.159174 0)
(0.00618343 0.160648 0)
(0.00575547 0.15996 0)
(0.00546768 0.161369 0)
(0.00505749 0.160605 0)
(0.00472145 0.16195 0)
(0.00432726 0.161132 0)
(0.00467548 0.159794 0)
(0.00395834 0.160273 0)
(0.00355769 0.161558 0)
(0.00321516 0.160633 0)
(0.00276473 0.161875 0)
(0.00245601 0.160875 0)
(0.00196282 0.162103 0)
(0.00169047 0.161033 0)
(0.00115255 0.162186 0)
(0.000929577 0.161068 0)
(0.000347347 0.162077 0)
(0.000186101 0.160972 0)
(-0.000457402 0.161903 0)
(-0.000541046 0.16076 0)
(-0.00124738 0.161612 0)
(-0.00127582 0.160424 0)
(0.00973609 0.151761 0)
(0.00431513 0.158934 0)
(-0.00200892 0.160011 0)
(0.00780106 0.155611 0)
(0.0168226 0.161831 0)
(0.0164749 0.173595 0)
(0.0160142 0.174113 0)
(0.0158009 0.173122 0)
(0.0154875 0.174449 0)
(0.0156946 0.175435 0)
(0.0151 0.175603 0)
(0.0152878 0.176555 0)
(0.0146175 0.176588 0)
(0.0147583 0.177466 0)
(0.0140333 0.177397 0)
(0.0140707 0.178178 0)
(0.0132913 0.177998 0)
(0.013198 0.178694 0)
(0.01234 0.178414 0)
(0.0121218 0.17906 0)
(0.0112098 0.178741 0)
(0.0108053 0.179328 0)
(0.00989954 0.178966 0)
(0.00922164 0.179515 0)
(0.00834331 0.17911 0)
(0.00717025 0.179673 0)
(0.00656232 0.179188 0)
(0.0115331 0.177999 0)
(0.00753741 0.178645 0)
(0.0139056 0.176657 0)
(0.00185117 0.0806934 0)
(0.00186521 0.0777194 0)
(0.00201361 0.0797288 0)
(0.00201231 0.0766477 0)
(0.00217288 0.0786325 0)
(0.00215721 0.0754409 0)
(0.00199531 0.0734529 0)
(0.00212716 0.0721351 0)
(0.00196379 0.0701391 0)
(0.00208183 0.0687057 0)
(0.00191753 0.0667104 0)
(0.00202112 0.0651595 0)
(0.00185754 0.0631722 0)
(0.00219442 0.0671339 0)
(0.00211804 0.0634811 0)
(0.0022983 0.0654193 0)
(0.00220586 0.0616714 0)
(0.002392 0.063564 0)
(0.002281 0.0596945 0)
(0.00247371 0.0615514 0)
(0.00234181 0.0575364 0)
(0.00254248 0.0593775 0)
(0.0021552 0.0556719 0)
(0.00238972 0.0552356 0)
(0.002597 0.0570514 0)
(0.00242278 0.0527837 0)
(0.00263505 0.0545761 0)
(0.00281617 0.0588277 0)
(0.00285893 0.0563336 0)
(0.0055637 0.0553823 0)
(0.00517932 0.0514912 0)
(0.00523125 0.0548491 0)
(0.00485146 0.0507619 0)
(0.00489493 0.0539245 0)
(0.0045319 0.0498911 0)
(0.00457998 0.0530139 0)
(0.00422339 0.0489483 0)
(0.0122338 0.137301 0)
(0.0125205 0.134656 0)
(0.0152734 0.173455 0)
(0.0057578 0.0486119 0)
(0.00610446 0.0486492 0)
(0.0109506 0.14629 0)
(0.00070699 0.160016 0)
(0.00265548 0.0519767 0)
(-0.00131938 0.159238 0)
(0.00258984 0.0654451 0)
(0.00304676 0.0605549 0)
(-0.000882378 0.0754533 0)
(-0.000806509 0.0762809 0)
(-0.000785749 0.0743502 0)
(-0.000707996 0.0750945 0)
(-0.000693299 0.073154 0)
(-0.00061348 0.0738015 0)
(-0.000605265 0.0718665 0)
(-0.000524091 0.0724161 0)
(-0.000521954 0.0704886 0)
(-0.000524171 0.0743567 0)
(-0.000440651 0.0709552 0)
(-0.000443547 0.069018 0)
(-0.000362816 0.0694127 0)
(-0.000370028 0.0674615 0)
(-0.000445323 0.0670888 0)
(-0.000376125 0.065519 0)
(-0.000446768 0.0651748 0)
(-0.000380951 0.063587 0)
(-0.000447345 0.0632744 0)
(-0.000384481 0.0616541 0)