/*--------------------------------*- C++ -*----------------------------------*\
| =========                 |                                                 |
| \\      /  F ield         | OpenFOAM: The Open Source CFD Toolbox           |
|  \\    /   O peration     | Version:  v2012                                 |
|   \\  /    A nd           | Website:  www.openfoam.com                      |
|    \\/     M anipulation  |                                                 |
\*---------------------------------------------------------------------------*/
FoamFile
{
    version     2.0;
    format      ascii;
    class       volScalarField;
    location    "300";
    object      ddt0(k);
}
// * * * * * * * * * * * * * * * * * * * * * * * * * * * * * * * * * * * * * //

dimensions      [0 2 -3 0 0 0 0];


internalField   nonuniform List<scalar> 
13851
(
2.48015e-07
0.00503374
1.84821e-06
2.43831e-07
2.28862e-06
9.37038e-07
2.91604e-07
1.39786e-06
-2.28887e-07
2.03844e-06
-0.000492609
-0.00551498
4.92397e-05
-0.000808219
5.30228e-08
1.15865e-06
7.08662e-07
8.67592e-07
1.06743e-05
-2.1771e-07
2.64074e-07
1.85176e-06
-5.04505e-07
-1.76615e-06
-6.88353e-07
1.40464e-06
6.16265e-07
9.71509e-06
2.86417e-07
6.0945e-07
2.13003e-05
7.37211e-07
1.73235e-06
0.00124852
-1.74849e-06
5.3642e-06
-2.39576e-06
4.50135e-06
2.15332e-06
0.00129195
3.57559e-07
-2.57094e-07
-1.86441e-05
-0.000449641
0.000370191
0.000139207
0.00114897
0.00219211
6.34529e-07
-0.00155287
1.70105e-06
2.60769e-06
-7.71817e-06
1.03933e-07
1.52366e-07
-2.7766e-07
-7.1313e-07
6.15468e-06
5.92077e-07
2.99737e-07
4.15612e-06
0.000880144
3.81362e-06
2.78682e-06
-4.18007e-06
1.28633e-07
-7.12923e-05
0.00133654
1.14517e-06
8.71241e-07
0.000890681
-5.38075e-05
-0.000716811
1.19793e-07
9.83283e-08
-3.13853e-07
1.81617e-06
0.000984383
1.43391e-06
0.00100667
3.48408e-07
0.000291033
1.73836e-07
0.000124501
3.76666e-06
-0.00473608
-3.20873e-06
0.00014486
7.35545e-07
3.63819e-07
5.02395e-06
-3.19414e-06
0.00133803
8.81188e-07
7.18581e-07
-2.93205e-06
2.31379e-06
0.000759414
-0.000658763
-2.95953e-06
-0.000301585
1.4424e-06
3.77658e-07
5.38252e-07
2.56154e-06
1.43756e-05
1.50648e-06
-2.40373e-07
0.00124851
-8.1058e-06
-3.47605e-06
4.41354e-07
-3.01668e-06
-2.19985e-06
-2.91348e-06
-0.00565761
0.000594926
-1.54979e-07
-1.26911e-07
9.60091e-08
-8.52537e-06
5.33276e-07
2.69706e-05
0.000391317
0.00119319
1.13462e-05
0.000760252
1.43711e-06
2.6913e-07
4.29304e-06
3.42229e-07
-7.34889e-08
0.00120538
1.62249e-07
-0.00515526
-8.37492e-08
-1.53271e-07
5.20755e-05
0.00083588
-0.000134354
-0.000270332
1.69517e-07
1.95284e-07
-3.80708e-07
5.56608e-07
-0.000415734
2.26221e-05
4.28447e-06
2.85684e-07
0.000720778
1.91978e-06
5.03919e-08
-0.000730738
-4.50908e-07
5.0781e-07
5.48841e-07
1.03716e-07
5.27512e-07
2.81218e-06
1.70209e-06
-1.13432e-07
8.43571e-07
8.4839e-07
-8.08842e-08
8.15959e-07
-3.21261e-07
3.21673e-05
1.14612e-06
2.74646e-07
0.000802332
0.000798604
-9.2391e-08
1.1726e-07
-0.000167283
-8.66285e-08
0.00303681
1.42553e-06
4.24569e-07
1.04547e-05
-2.69933e-07
7.95036e-07
-1.2077e-05
1.3947e-07
1.95461e-06
-2.56722e-07
-1.33892e-06
1.35666e-07
1.40293e-07
2.68333e-06
3.8504e-06
0.00106302
-7.25151e-06
1.2232e-06
1.16119e-06
0.000925288
4.89882e-07
-3.23257e-08
0.0012937
4.37039e-07
-2.99993e-07
1.23023e-05
-0.00026848
2.94364e-07
1.92051e-07
2.4572e-06
1.50769e-07
0.00260074
7.17176e-07
0.00158304
-2.52944e-07
0.00340828
3.71213e-07
0.00167439
-2.60218e-07
-4.65388e-07
-0.000693324
2.84146e-06
0.000205183
5.262e-08
0.00160088
7.31759e-07
3.54159e-07
-0.000202787
3.69765e-06
0.00452913
-1.35877e-06
9.94793e-07
2.34963e-06
-1.06762e-05
-2.67562e-07
1.39439e-06
-1.03837e-05
-8.46567e-08
9.54104e-07
1.60039e-06
9.99735e-07
0.00191886
-3.28916e-06
-4.99579e-07
1.9912e-07
2.35988e-05
0.000204913
1.00925e-06
2.79326e-06
1.6146e-06
0.00314524
1.4626e-06
0.00206891
5.57528e-07
7.72788e-07
-2.50292e-06
0.000131389
3.86048e-07
5.64977e-07
1.387e-06
2.90708e-05
3.7037e-06
3.01226e-05
4.99882e-05
9.75495e-08
-4.31376e-07
8.10849e-07
-0.00720159
8.57016e-07
8.87862e-06
4.89652e-07
3.78614e-07
8.5439e-07
-0.00037127
0.000128616
-2.23044e-06
5.09428e-07
2.04717e-05
1.38849e-06
1.11427e-06
-6.34047e-08
0.000167105
3.41616e-05
0.00572044
-0.000479988
9.21622e-07
-2.57483e-07
2.67333e-06
1.32979e-06
-0.00799507
0.00377404
-2.45979e-07
4.37189e-08
8.18585e-06
0.000280827
4.54454e-06
5.67224e-07
3.05845e-07
1.22665e-06
0.000209343
7.76653e-06
8.03234e-07
-0.00545017
-5.14185e-08
0.00327379
8.20615e-07
6.98378e-07
0.00573229
4.14014e-07
1.04232e-05
0.000728997
-2.34879e-07
1.279e-06
8.90625e-07
5.49705e-07
0.00117086
8.14259e-07
3.82668e-07
0.000144488
-2.59592e-07
7.90996e-07
1.79313e-05
0.00567799
3.22138e-06
6.28586e-08
1.42115e-06
5.56924e-08
0.000528276
-8.91905e-06
-7.57621e-07
1.5969e-07
3.01166e-06
9.52464e-07
4.90141e-07
4.26641e-08
4.20711e-07
3.76703e-07
-0.000386992
-0.00041265
0.000826191
1.2165e-06
0.0055192
0.000430737
4.67801e-08
1.18465e-06
4.53972e-06
-1.69648e-06
1.80232e-07
2.16285e-06
1.06943e-05
-1.75804e-06
-0.00294368
0.00161932
5.80326e-08
0.00113149
0.00121685
6.69451e-06
4.86924e-07
3.26615e-08
-1.09682e-05
1.32282e-07
-0.00119977
1.45446e-07
5.04472e-08
1.35499e-06
-2.47955e-07
8.20787e-08
0.0018586
-0.000498485
3.14348e-07
1.23071e-06
-3.34577e-07
-0.00720142
1.35643e-06
0.00120605
0.000847685
3.35117e-07
2.97371e-06
9.00082e-07
0.00240115
2.8633e-07
-1.47047e-07
-3.66445e-06
-0.000160757
1.15446e-07
0.00140372
-2.64764e-06
2.01698e-06
0.000535341
0.0008988
0.000686036
-2.9868e-07
-1.52483e-08
1.94147e-07
1.02089e-06
1.40655e-06
-0.000846867
1.13141e-06
0.00496401
0.000957401
-3.39728e-07
1.02977e-07
0.000776232
0.00126986
-1.12874e-05
0.000460358
-3.7372e-06
9.35804e-07
-2.82716e-06
0.000108612
-1.85298e-07
1.13448e-06
5.84767e-07
3.03719e-07
2.70854e-06
-2.42821e-07
-3.29001e-07
2.6863e-06
1.91332e-07
0.000787366
9.22762e-07
1.49406e-06
-6.18357e-07
2.92271e-05
8.3364e-07
6.82233e-06
6.75754e-07
-0.000969301
-1.75169e-07
-2.33449e-07
-1.83684e-06
7.80999e-06
-0.00348229
3.97822e-06
-6.3965e-07
0.000612534
0.000579691
-1.03806e-06
3.55816e-08
1.62668e-06
2.71054e-07
3.401e-05
1.55445e-06
-1.39097e-05
-0.000101401
1.65734e-06
0.00144112
3.95826e-07
-0.000464619
-0.000481037
-4.74905e-05
-3.40018e-07
1.01823e-06
1.44068e-06
9.74776e-05
-1.55447e-07
3.8166e-07
1.75245e-06
2.24882e-06
1.18949e-06
-0.000480527
-1.36976e-06
1.67075e-07
-2.95905e-05
8.40495e-07
-2.73454e-07
0.00172397
-2.18922e-08
2.53985e-07
-1.90143e-07
1.0589e-06
4.88131e-07
-2.61663e-07
2.79429e-07
-1.96794e-05
1.89061e-07
1.20047e-06
-4.65955e-08
1.92251e-06
-0.0015131
-1.31865e-06
3.29097e-07
-2.28727e-06
-2.7504e-06
0.0041465
3.7008e-07
-4.06055e-06
1.25611e-07
-2.02016e-06
-0.000465164
0.00140411
1.68362e-07
2.43548e-06
8.40728e-07
-0.000122138
0.000153171
1.91325e-07
3.65877e-05
3.02342e-07
2.25705e-06
3.17402e-07
-2.35186e-05
-2.58147e-07
-1.22386e-05
3.44142e-06
-2.42873e-07
2.34854e-06
0.000917684
1.40229e-06
-0.00097613
-7.2189e-07
-0.00197354
1.90168e-07
-1.26251e-07
-7.14551e-08
2.74981e-07
0.00155754
1.64078e-06
2.15278e-06
-1.23963e-06
3.05887e-06
-4.97837e-08
-5.5301e-06
-0.00369259
8.0237e-07
8.62871e-07
5.27263e-05
-0.00041613
0.00342624
2.46437e-07
-2.51486e-05
9.25529e-05
3.40169e-05
8.41251e-07
2.36902e-06
0.00117761
-0.000513155
1.55529e-05
0.0019996
0.000193827
5.43464e-07
0.000186671
1.73777e-05
-2.46951e-07
1.0928e-05
1.64184e-06
0.00124234
5.73185e-07
1.20449e-07
9.12254e-08
2.7901e-07
2.7089e-06
8.34255e-07
0.000140324
-0.000337504
-1.28181e-07
-2.41833e-05
0.00132396
-1.21281e-05
-0.00265717
1.19477e-06
-2.71318e-07
-2.38428e-07
9.28752e-05
-3.10874e-05
5.14696e-07
2.30856e-06
3.59042e-06
-2.94069e-07
-8.38378e-07
-0.00158267
2.93406e-06
2.75188e-06
0.00166581
3.22723e-05
3.21302e-07
3.00329e-07
0.00364443
0.000910682
3.38934e-06
1.12646e-06
4.9264e-06
-2.66887e-07
1.40757e-07
-1.02921e-05
-2.65527e-07
5.6624e-07
-2.75138e-07
7.46759e-09
7.90855e-05
2.69768e-06
-1.83526e-07
-2.78752e-07
0.00165964
0.000872177
-2.98937e-08
-3.16882e-07
8.8895e-07
1.77851e-07
-0.000102692
0.00228785
0.00184936
0.000164257
-0.00142717
1.05406e-06
0.00106332
0.00150104
-2.1011e-06
1.16204e-06
-2.72886e-07
1.6445e-05
1.2205e-06
-0.000324026
-0.00636021
2.22373e-06
9.60206e-07
-2.10046e-07
1.1286e-06
-1.01583e-06
-0.0016928
1.80151e-06
1.19197e-07
1.24561e-06
-1.55268e-07
8.34092e-07
4.27798e-06
3.06134e-07
2.55393e-07
1.36385e-06
3.43269e-07
2.31314e-06
6.27967e-06
3.44765e-06
1.13602e-06
3.72539e-06
-2.04653e-07
-7.32273e-06
-4.16748e-06
0.000464263
3.7421e-07
-2.94862e-06
0.00111491
5.41105e-07
0.000493302
0.00199257
7.93301e-05
0.00454989
-1.80703e-07
-1.75646e-06
1.49037e-06
-2.61647e-09
-2.73215e-07
1.0142e-08
6.69937e-06
9.80976e-07
1.01883e-06
-2.54806e-07
0.000690934
3.80653e-06
0.000873328
3.65416e-08
-1.8896e-07
-1.16151e-07
4.2794e-06
0.000943075
1.36201e-06
8.50376e-07
1.87718e-06
-2.23691e-06
-6.19154e-07
1.12705e-07
4.3237e-06
-0.00102299
3.57019e-07
-2.58241e-07
2.75692e-07
1.13272e-07
6.12096e-06
-6.2893e-06
1.15373e-06
0.000832383
-0.00178067
2.41003e-07
1.92428e-06
-0.000145045
1.21072e-06
-0.00381891
3.47638e-07
8.07629e-07
1.34349e-06
8.31363e-07
0.00188111
1.56441e-07
0.00108299
1.81374e-06
9.22715e-07
0.00148089
-4.17273e-07
4.6974e-07
4.8999e-06
-1.23022e-07
7.55616e-07
-0.00190088
-0.000587732
1.80876e-06
9.23202e-06
0.000956677
-2.60347e-07
2.62434e-08
-0.000329947
3.58053e-06
7.54472e-07
0.00194328
-2.04504e-07
4.96788e-07
-2.3563e-07
-0.0011598
-2.53831e-05
7.26222e-07
3.29644e-07
-0.000935635
6.41183e-07
-1.25275e-07
-2.40568e-05
7.12254e-05
0.00121558
-2.69434e-07
3.69606e-07
0.00107422
3.25256e-06
4.25096e-06
-1.12784e-06
0.00131918
1.67076e-07
-0.0010071
2.18264e-06
1.64903e-06
7.18001e-07
0.000108342
-1.16272e-06
-4.52541e-06
1.12243e-06
-2.67667e-06
3.7559e-07
5.04153e-07
-2.03939e-07
-2.85136e-05
1.11801e-06
2.4008e-06
-2.97816e-07
-3.92866e-05
-2.08957e-07
-0.00131297
-9.57253e-07
-9.47446e-07
-7.96453e-08
2.13024e-07
8.05882e-08
0.000757636
9.39736e-08
-1.60008e-07
0.000130897
3.1895e-07
0.00123505
1.03003e-06
1.12418e-07
1.86678e-06
6.03358e-06
-0.000981954
-1.26722e-07
5.48986e-05
0.000774921
3.78166e-07
0.000723013
9.11273e-07
-1.95528e-07
-5.26366e-05
-1.94976e-05
2.67587e-05
7.78027e-07
-1.29899e-07
-2.38292e-07
-0.00118803
1.6746e-06
1.13545e-06
7.80759e-07
-3.67368e-05
2.00337e-07
-2.44459e-07
2.37054e-06
-0.00350298
2.64259e-06
-0.00901436
3.58606e-07
2.30024e-06
1.8102e-06
0.00533026
7.11339e-07
0.00136052
5.26469e-06
2.98289e-07
-9.91476e-05
-3.83116e-06
0.000731945
-0.000786371
0.000591451
0.000353512
1.37873e-06
-1.98228e-07
9.88553e-07
5.95997e-06
1.42172e-05
6.57526e-08
-2.08504e-06
1.62077e-06
-0.000405098
-1.98724e-07
-1.79126e-06
-1.95361e-07
2.94851e-07
-3.59554e-05
0.00105644
0.000412373
-1.24365e-08
4.7408e-08
-2.71539e-07
2.91512e-06
2.36335e-06
-8.28363e-07
0.000825897
3.37378e-06
0.000897536
1.51551e-06
1.23855e-06
3.86148e-07
3.27491e-07
-0.00332341
1.28889e-06
0.00122927
-5.66965e-06
1.13077e-06
-1.26926e-05
0.000748686
0.00124957
2.05066e-07
9.81355e-07
-4.1127e-08
1.1553e-06
4.57432e-07
-0.00547775
4.73435e-07
0.00259507
-1.75193e-07
1.73123e-06
1.8836e-07
2.13387e-06
1.07829e-06
9.74632e-07
0.000814015
1.26061e-06
9.21093e-07
-2.2624e-06
1.73884e-06
0.00347408
3.75645e-06
5.72735e-07
0.00083293
6.78695e-07
-0.00108983
0.000618489
3.88932e-07
0.00357352
-0.000247547
0.00129692
0.000121469
-3.74778e-06
1.24631e-07
0.00123526
5.04833e-07
-0.00975236
0.00164757
5.4187e-08
4.45189e-07
8.04033e-06
0.00081529
0.000114143
3.87334e-07
-2.48645e-08
0.00231452
0.00152404
2.88585e-06
7.47141e-07
-4.24864e-07
0.000638776
-3.14841e-05
1.90819e-06
-1.45471e-07
1.37988e-06
-1.04602e-07
-2.44193e-07
0.00145924
-2.99139e-06
-2.19219e-05
-6.23443e-05
3.15919e-07
2.73013e-07
1.28814e-07
5.12325e-07
0.00110437
0.000905958
9.95018e-07
0.00177143
1.81148e-07
9.99473e-07
9.74905e-08
-1.00723e-07
4.30843e-07
3.06073e-07
0.00136467
1.81884e-07
1.34159e-06
2.25141e-07
7.87595e-07
0.00115745
2.27205e-05
-5.26928e-07
0.00370754
1.26678e-06
6.73198e-08
1.14809e-06
1.15433e-06
0.000975046
8.3126e-07
7.90813e-07
-0.00635645
-0.00162421
-5.55379e-06
1.33635e-06
-6.86191e-05
3.71501e-07
1.21014e-06
1.44566e-06
0.000378277
-7.31243e-07
-0.000219466
1.43595e-08
4.85023e-08
-0.000784792
5.89547e-07
7.63947e-06
7.39824e-07
-6.47424e-08
-8.20895e-07
-4.64214e-08
4.87041e-08
3.13363e-06
3.40703e-07
5.83027e-06
6.58711e-08
2.97152e-06
-3.53696e-05
2.11236e-06
-0.000446812
3.12768e-07
-1.05793e-06
2.58969e-05
2.94999e-07
-5.36045e-08
1.70369e-06
3.16585e-07
-2.03609e-07
3.27063e-07
-1.08245e-06
0.00116539
-0.000927515
3.48684e-06
0.000572105
-1.77635e-06
1.43973e-07
-0.000135749
9.47763e-07
7.0193e-08
0.000604331
2.92172e-07
0.000314839
1.01968e-07
0.000643008
7.80248e-05
-2.23979e-05
-1.12502e-07
-4.64506e-06
1.07462e-06
6.16856e-07
4.30686e-06
-2.17315e-07
0.000689415
-3.78362e-07
0.00460239
-3.94557e-07
1.49711e-07
0.000264605
3.80086e-07
5.80589e-06
0.00040964
7.26256e-05
1.00873e-05
0.00207324
-1.90301e-06
3.12954e-07
2.2451e-06
1.91185e-06
5.53914e-07
2.33247e-06
1.36826e-06
3.2196e-07
-4.78169e-07
-0.000621486
-2.15111e-07
0.00100869
-2.61957e-05
-0.00972614
5.29963e-06
2.34774e-07
1.56348e-07
3.71935e-07
-0.00024317
-0.000446312
-1.11135e-07
2.22312e-07
-3.84053e-07
1.72527e-06
-1.88657e-07
-3.66687e-07
3.62619e-07
1.13364e-06
-2.01673e-05
9.63264e-07
1.14559e-06
6.65278e-08
1.35926e-06
4.52293e-06
3.64463e-07
0.000214936
-1.34359e-05
1.72639e-06
-1.78522e-07
1.27761e-06
1.1924e-07
-7.46088e-07
3.98907e-07
0.000949304
2.68973e-06
0.000330461
5.54222e-07
-0.00140123
1.25676e-07
2.26592e-06
4.17413e-07
-0.000358284
-7.10094e-05
-1.70431e-07
1.12684e-06
-1.04558e-07
0.00150468
-1.90624e-06
0.00349729
7.8299e-06
0.00295673
1.77438e-06
0.00149426
2.4107e-06
1.71978e-06
6.07362e-06
0.00135795
0.00189459
-0.000620228
-5.42804e-07
2.78479e-06
-1.88148e-07
5.80323e-07
7.48979e-07
3.63539e-07
0.00140124
1.00997e-06
8.83065e-07
0.000282051
4.71638e-06
0.00313032
5.86737e-08
5.78346e-07
7.54936e-07
3.2959e-07
9.66784e-07
0.00428085
-0.000311511
-0.0146649
7.76492e-08
8.26458e-07
-8.77087e-07
-0.000435312
0.000163147
2.35942e-06
9.26214e-08
3.0143e-07
-2.07381e-05
1.39442e-06
0.00015208
0.000293697
1.20303e-05
-1.76754e-07
-8.20579e-05
8.95441e-07
1.39558e-06
9.31397e-07
0.00191546
0.00033764
3.99402e-06
-4.54712e-06
3.86246e-07
1.3295e-06
2.84355e-07
-1.08614e-05
4.51736e-07
0.00136455
0.000205775
7.49253e-07
2.11965e-06
4.93765e-07
0.00233622
3.97227e-06
2.32585e-07
7.70008e-06
0.00147505
8.57613e-06
0.000649773
1.60779e-07
3.37201e-07
0.00111154
2.59047e-06
-3.05573e-05
3.05382e-07
2.87728e-07
3.25265e-07
0.00120859
3.77056e-06
3.40433e-07
1.0803e-06
1.73824e-06
0.00137013
-8.08229e-05
0.00300988
1.10176e-07
0.00098166
6.77792e-07
3.14303e-07
1.74393e-06
0.000958006
2.91458e-07
-4.53386e-09
2.46234e-05
0.00110318
9.56891e-06
7.68017e-08
-0.000143698
2.02996e-07
4.81173e-05
7.77531e-08
-0.00191473
3.42547e-07
1.35956e-06
-0.00748569
-1.27007e-06
4.5957e-07
1.94848e-05
-4.78822e-05
0.000733336
1.15675e-05
0.00312241
4.9117e-06
1.50469e-07
-9.35187e-06
-1.47431e-06
5.60283e-08
2.62378e-07
0.00032352
2.27849e-07
-2.05362e-06
6.92901e-09
-4.8426e-06
0.00082435
1.54603e-06
-2.29605e-05
5.16935e-07
9.67483e-05
-7.21347e-08
1.07499e-06
-0.000100483
-0.000441635
-7.13031e-08
1.69307e-06
0.00189086
4.29363e-07
-2.22333e-07
0.001355
1.16947e-06
1.23187e-06
2.13458e-06
-0.000303033
7.05109e-06
-8.7822e-05
0.000645375
5.62304e-06
-0.000767238
-0.00126436
1.29879e-05
1.74493e-06
2.87533e-07
2.32439e-06
1.55492e-07
1.15236e-07
-0.00052445
0.0014088
5.04561e-07
-0.000830646
-1.35121e-06
0.000996923
-1.23748e-05
1.45982e-05
2.66988e-07
8.19906e-07
-0.000727117
-2.84596e-07
4.71498e-07
0.000588366
0.00100376
0.00193421
0.00259453
1.19993e-06
0.00331691
0.00163659
1.06801e-06
1.74703e-07
1.58011e-07
0.000230889
1.32065e-07
4.99285e-06
2.48952e-07
3.85926e-07
5.221e-07
6.0795e-07
0.00503118
-0.000100798
3.19007e-07
-5.22903e-05
6.84651e-07
8.73332e-07
9.00918e-08
1.5786e-07
1.4982e-05
8.48315e-07
0.00153069
-0.00269693
4.97486e-06
2.25928e-06
4.55391e-08
1.36139e-06
4.17996e-07
4.01213e-06
2.79184e-07
5.05278e-07
3.44855e-07
1.14343e-08
1.44026e-06
3.88537e-07
1.22879e-06
-4.33922e-07
1.24965e-06
2.06642e-06
0.00113109
1.46762e-07
1.4191e-06
2.23167e-06
5.52436e-06
2.05683e-05
0.000175993
3.31828e-06
1.02906e-06
5.77274e-07
2.47785e-07
-0.000298353
3.02168e-07
-0.000856379
4.43496e-08
-3.80845e-07
7.06446e-08
0.00038769
8.56224e-07
1.64619e-07
-3.33008e-06
-1.34795e-07
1.64519e-06
0.000476876
8.93276e-06
1.22362e-06
2.73048e-07
-0.000354022
3.09731e-07
-1.99563e-07
5.81759e-06
0.00250049
8.15486e-07
8.85971e-07
-1.14607e-06
2.42148e-05
3.36555e-07
3.82275e-07
0.002398
4.79481e-07
-0.00106197
1.64485e-06
0.00459735
3.60363e-07
3.36312e-05
1.70451e-07
0.00433319
4.58985e-06
1.35756e-06
2.06433e-06
-0.0001187
4.18266e-07
0.00409124
7.04016e-05
4.28028e-07
5.05244e-06
1.69808e-06
2.57223e-07
2.66605e-05
3.55276e-07
7.72949e-08
-1.82245e-07
4.77185e-06
-0.000132942
2.38076e-06
5.11085e-07
3.73722e-07
9.25348e-07
-0.00198776
-1.1792e-06
0.00482665
0.00174726
3.54067e-07
4.26754e-06
4.02226e-06
-1.02115e-05
1.66836e-06
-0.000246117
1.35569e-07
-3.53827e-06
-2.32067e-07
4.65457e-05
1.03782e-06
1.66053e-07
-0.000378437
2.4478e-06
1.13921e-06
-8.01065e-06
-2.42765e-07
4.71863e-08
1.63058e-06
1.21157e-06
0.000360741
1.80559e-06
1.56676e-06
2.14177e-06
3.34016e-06
0.000116086
3.55592e-06
0.00477977
1.47156e-07
-1.5087e-07
4.04763e-06
-6.02352e-05
-8.81481e-06
1.53379e-05
-1.59713e-06
0.000827116
0.00176304
-4.08297e-07
7.78748e-07
3.7043e-08
1.24785e-06
1.67192e-06
2.55155e-05
-9.29448e-06
5.1632e-06
4.73829e-07
0.000797473
0.000727831
1.02515e-07
-1.4481e-06
0.000629539
-1.59864e-05
5.97743e-07
1.76544e-06
-2.68249e-07
3.37604e-07
4.85557e-07
7.33384e-07
0.00513403
0.000867223
3.7411e-05
0.000519037
4.36063e-07
1.12262e-06
1.81691e-06
1.76494e-07
1.30734e-07
-2.25284e-07
-0.000399595
1.14396e-07
0.0034731
1.09308e-06
3.34253e-06
3.50778e-06
1.36753e-05
0.00105478
-3.19445e-05
1.25685e-06
-3.545e-07
-1.62179e-05
-7.3603e-05
-3.0956e-05
6.91517e-07
1.28993e-08
1.63252e-08
1.60422e-06
1.06024e-06
3.24308e-06
0.00083266
4.1616e-07
-1.92337e-07
3.49432e-06
-0.00018686
0.0010516
0.00338951
8.09363e-08
1.87809e-06
4.4042e-07
0.00567576
-2.98961e-07
0.00350349
4.65634e-06
4.07721e-07
8.29398e-07
1.72275e-07
4.96919e-06
1.01155e-06
1.39885e-06
-4.1181e-06
0.000931207
7.37632e-07
1.02701e-06
2.55049e-07
-7.09227e-05
-2.95116e-05
-7.06412e-07
-7.11239e-08
0.00177384
-2.03785e-07
0.00165069
1.58865e-06
1.19465e-06
1.64579e-06
9.78567e-05
9.55183e-07
3.19159e-07
2.81347e-07
1.7988e-06
0.000664235
1.53438e-07
2.01624e-05
-0.000561363
0.00766157
3.55574e-06
1.05533e-06
0.00105033
6.5756e-07
1.47607e-06
1.13234e-07
0.0014855
0.0015841
-8.69771e-06
-2.42515e-05
0.000658135
3.61128e-07
9.80665e-06
-2.47443e-08
0.000800778
0.000256243
0.000477117
-1.73681e-06
8.40656e-07
0.000419255
-4.75244e-05
1.12091e-06
4.72348e-07
3.13093e-07
0.00159596
7.65235e-07
1.67563e-06
2.7346e-08
4.11299e-07
-9.15863e-08
4.24039e-07
0.000594892
1.0567e-05
1.08239e-06
-1.77538e-05
4.02616e-06
2.52607e-06
1.62928e-07
-1.86584e-07
1.13835e-06
0.00316785
5.45307e-06
7.41903e-07
1.41815e-07
-5.19694e-05
1.69286e-06
1.34878e-06
-8.65707e-06
1.03872e-06
0.00438636
9.40533e-07
9.53631e-07
1.4018e-07
-1.24314e-07
1.8907e-06
-0.000624408
0.00105455
0.00179047
1.69468e-06
0.000669139
6.24257e-07
6.69442e-07
-7.33989e-07
3.829e-05
1.69236e-05
-0.000805
-1.57722e-07
5.74653e-07
2.94748e-07
4.854e-09
4.63014e-08
-2.36947e-07
-1.02701e-05
9.95091e-07
-1.11512e-05
1.0821e-06
0.000659767
-1.54824e-05
0.00293816
-5.16256e-06
7.52165e-07
-2.83875e-05
1.21919e-06
-2.11394e-06
0.00199347
-1.30672e-07
-6.04238e-05
8.7025e-07
-1.42836e-05
-3.61948e-06
1.15039e-06
1.49838e-05
0.00205656
-9.56201e-08
7.84405e-07
4.99684e-07
0.000381946
-0.00115962
6.30055e-07
2.95825e-07
0.00121446
3.87011e-06
4.03928e-06
0.00018471
2.13263e-06
1.64926e-06
-3.55345e-07
-0.000358592
0.00235466
1.83133e-06
1.00042e-06
0.000490164
-0.000550077
-1.39112e-08
1.62714e-07
6.52086e-07
0.000266373
3.65475e-05
1.05518e-07
0.00128299
3.65873e-07
1.71712e-07
4.19141e-07
0.000513753
1.59728e-06
-0.000830225
-5.50218e-06
4.87151e-07
5.02464e-07
1.23089e-07
-8.15624e-06
2.53227e-07
0.000617122
2.21515e-07
0.00685661
3.02144e-07
1.60854e-07
4.13617e-06
3.3298e-06
0.00135643
1.24826e-06
0.000201683
4.43074e-07
3.75309e-07
1.7586e-07
1.39746e-06
1.80449e-06
1.7459e-06
9.22769e-07
0.00120971
6.54015e-07
3.96853e-06
-6.15311e-06
3.97709e-05
1.2433e-09
0.00145225
0.00175422
6.35791e-07
0.0023018
1.59127e-06
-0.000184034
3.58065e-07
2.45533e-06
-2.2797e-07
-6.35715e-06
0.000893729
-2.27344e-06
0.00307266
5.34061e-07
1.27261e-06
4.45956e-07
0.00131466
-3.38067e-07
2.51644e-08
7.34714e-05
2.31303e-06
-0.000175655
-8.91407e-05
1.66523e-06
9.51176e-07
-1.66821e-07
-0.0009855
7.18283e-07
-5.00756e-08
4.31154e-06
2.29835e-06
1.33305e-06
3.06187e-07
0.0087613
1.8591e-07
0.000161054
0.00085905
2.8311e-07
3.94111e-06
1.69951e-06
0.00571721
3.55506e-07
-0.00444429
-0.00169954
-1.09511e-07
2.06638e-07
5.18188e-07
3.1098e-07
1.32583e-06
-1.31471e-08
0.000374899
1.5295e-06
-0.000379718
4.81391e-06
4.55336e-07
3.63076e-07
-1.42416e-07
8.71523e-06
3.92675e-07
3.29747e-07
4.48915e-06
5.72063e-07
0.00175204
0.00288911
2.2847e-06
2.03993e-07
1.18263e-06
4.95385e-07
3.66467e-07
2.46944e-06
1.0157e-08
5.93206e-07
2.01315e-05
0.0039887
-8.60396e-08
4.89148e-07
-3.76303e-05
1.87626e-05
3.07396e-07
5.22952e-05
-0.000483864
1.01872e-07
5.58393e-07
5.94187e-08
0.000148083
5.38948e-05
-0.000192934
-1.42482e-08
6.40647e-07
-7.07488e-07
3.02938e-07
3.39465e-06
4.49952e-07
-2.84172e-05
4.45171e-05
0.00419726
-1.56216e-07
5.95244e-07
5.17512e-07
0.000406976
-2.32602e-07
4.37946e-06
3.18449e-05
-0.000379182
-0.00170536
0.000776646
0.000166144
-5.67542e-08
9.09384e-05
0.000871919
4.04103e-07
-1.58476e-07
5.61764e-08
0.00252679
-1.92978e-05
-2.3305e-05
-4.10561e-07
0.0047069
3.75552e-07
4.09779e-06
-1.40824e-07
5.53514e-07
4.06529e-07
-1.57431e-07
0.000131277
4.01087e-07
-0.000369914
-0.000632087
-1.27905e-06
1.40833e-06
1.36409e-06
4.79421e-05
0.000321214
-4.45954e-07
-1.85608e-05
-1.55365e-07
-1.63527e-07
1.40912e-07
0.000345532
1.46214e-07
-1.12405e-05
1.74404e-07
-0.00175064
9.01327e-07
2.07647e-05
-2.89401e-05
-1.40802e-06
-1.57471e-07
1.8783e-06
1.85946e-06
0.000136187
-2.7826e-08
-1.6463e-07
3.19178e-07
-0.000309299
3.54674e-07
-0.000357703
-9.61952e-06
1.29176e-06
1.55133e-06
1.61039e-08
-0.000222039
3.31739e-07
0.00354583
1.78488e-08
-2.2029e-05
1.0119e-06
3.35373e-07
-1.17539e-05
-1.84951e-05
3.10477e-09
1.677e-06
6.83261e-07
-2.84941e-05
-0.000750622
-4.56761e-06
-0.00164781
3.48869e-07
1.84284e-06
0.000788954
3.18195e-07
0.000386405
-6.97514e-07
1.66508e-06
1.08904e-06
3.60897e-05
0.00109222
3.67798e-07
0.00147367
4.46937e-07
1.40589e-06
6.94606e-05
-1.00035e-05
9.65868e-07
0.00133182
1.84013e-06
2.79238e-07
-5.73086e-05
3.12876e-06
1.01645e-06
4.01257e-07
0.000519735
-1.69588e-08
9.06413e-05
-0.00108082
1.64561e-06
4.76604e-08
1.10837e-06
0.00138388
1.40221e-06
0.000859737
3.78943e-07
6.20676e-07
-3.79862e-06
0.000255592
7.07387e-07
0.000992002
-0.000404386
-1.79712e-05
4.19989e-07
0.000130228
-1.74037e-05
0.000225975
9.09401e-08
-1.02408e-05
2.97261e-07
0.00217465
-4.24836e-06
-0.000832549
-8.22963e-05
3.63324e-07
-5.1814e-07
9.31502e-08
0.000252113
0.000194694
-0.000372637
-2.84209e-05
1.11424e-07
0.000833273
0.000125162
2.41022e-06
-2.67271e-05
0.00138092
9.18058e-07
8.71038e-05
5.41295e-07
7.01484e-07
0.00020291
9.14256e-07
1.14816e-05
-0.000629419
3.54776e-07
1.97778e-07
0.00150332
0.00112905
0.00351072
0.000811165
1.0606e-06
3.57742e-07
2.15269e-07
0.00222501
-2.64478e-05
1.39579e-07
1.23378e-06
0.00159739
1.81547e-07
4.1665e-07
-0.000223289
0.000852965
5.34658e-07
8.60691e-08
3.92631e-07
4.58637e-07
8.42299e-05
3.12301e-07
-2.26073e-07
7.56177e-07
6.31925e-06
0.00111889
6.1879e-06
0.000808148
3.68321e-07
6.66492e-07
0.00124364
0.000273796
8.18721e-07
-4.4563e-06
5.47052e-08
1.25983e-06
3.17118e-07
1.72974e-05
1.56029e-06
-1.9851e-07
-0.00727986
1.00736e-06
-2.71193e-07
6.4034e-07
-2.16984e-05
-0.00108791
0.00128199
1.94619e-07
2.79939e-07
0.00170828
-0.000637336
6.17158e-07
-2.14747e-08
9.35119e-08
-0.000390065
4.10775e-07
-1.18406e-06
9.2253e-07
1.9669e-07
0.00132139
1.49014e-05
3.58122e-07
6.57383e-07
-1.27197e-07
4.50664e-07
0.00147422
0.000352859
1.73898e-06
-3.04461e-05
2.24789e-06
3.65256e-07
5.55743e-08
3.48827e-07
2.88715e-07
3.44323e-07
9.99232e-08
2.82798e-06
0.000215893
-3.62226e-07
3.30826e-06
0.00121742
-0.00150489
2.92797e-07
3.30658e-08
5.38411e-07
0.00113864
2.61602e-07
6.41128e-06
5.72092e-06
3.21478e-06
3.87366e-06
0.000776267
-6.93353e-07
-0.000134422
4.92367e-08
-6.49116e-07
3.54432e-07
-3.42336e-07
2.45632e-06
-1.34279e-05
8.33827e-06
1.32474e-06
-1.28141e-05
2.33919e-06
5.24002e-05
1.08241e-06
0.00117342
-1.82075e-05
3.42513e-06
0.000858521
-0.000182509
1.79721e-06
-1.41371e-05
3.2283e-07
7.42939e-08
-0.00309627
1.49897e-07
6.66237e-07
0.00286845
0.000343889
-0.00757869
4.12988e-06
-1.34684e-07
-2.54326e-06
4.05784e-07
-3.89929e-06
-1.83806e-07
0.000895267
-0.000254487
-0.000214151
0.00294891
4.25101e-07
-6.04045e-08
1.68261e-06
-0.00107151
0.001387
1.79967e-06
-2.43255e-05
5.56051e-08
-2.95227e-05
0.00184692
2.55172e-06
5.82961e-07
4.33213e-07
3.28326e-07
5.04809e-07
4.42007e-07
3.67578e-07
6.46066e-07
0.00132318
1.79109e-06
0.00144948
0.000345233
7.74667e-06
5.27151e-06
1.07687e-07
-2.72706e-07
-1.5434e-06
2.34458e-08
3.17183e-07
-0.000184431
0.000187659
0.00015641
0.00463913
5.17068e-07
-3.41451e-05
3.7569e-06
0.00115067
0.00209658
4.57391e-07
-3.54469e-07
0.00149217
4.39194e-07
-9.75649e-09
0.00387138
0.00135423
-0.000118135
2.82645e-07
4.00997e-07
5.19685e-07
1.31104e-06
-1.35012e-05
-1.69298e-07
3.93617e-07
2.03419e-06
1.35731e-06
0.000810992
1.30929e-06
0.00235284
3.49909e-07
-3.44772e-06
-0.00107061
1.13465e-06
0.00173483
2.36977e-06
0.00156736
-3.10864e-07
7.12299e-07
-3.30021e-08
1.02181e-06
0.000476909
-7.20405e-07
5.83848e-06
-1.29507e-06
-4.49649e-07
7.21923e-08
0.00382113
1.32302e-06
2.86112e-06
0.000536589
-2.81665e-12
1.23074e-06
2.93785e-05
1.7788e-06
4.82416e-08
-7.40872e-08
4.45257e-07
1.22373e-06
-1.19801e-08
-3.35327e-07
0.005109
0.00444167
0.00230892
3.62791e-06
1.07516e-05
-3.58557e-05
1.74078e-06
0.00537219
3.77835e-06
-3.20136e-07
9.29467e-08
-1.90227e-07
4.06895e-07
0.00271899
0.00206147
-7.65039e-07
1.14736e-05
0.00434254
9.03466e-07
-3.72266e-07
5.29369e-07
0.000729349
-0.00023351
0.00138137
2.95121e-06
0.00142573
-2.45056e-07
1.13054e-05
3.05603e-06
-0.000678868
0.000448519
1.34874e-07
3.37562e-06
-1.7255e-08
1.07256e-06
-0.000884455
3.78922e-07
0.00106226
-2.02673e-05
0.00248627
1.90323e-06
1.09203e-06
0.000907523
3.87103e-06
0.00281065
0.00288848
0.00129985
1.73933e-06
3.26054e-05
3.95345e-07
2.70789e-07
1.36687e-06
0.00136915
0.000754437
0.00161638
-1.69689e-06
2.04633e-06
2.69091e-06
-2.33868e-06
-8.43625e-05
1.11574e-07
2.11817e-06
0.0012085
8.46691e-08
0.000755825
0.00109574
0.00312452
0.000309605
7.79292e-06
0.000389416
8.22701e-08
0.00303821
-1.21757e-06
7.57521e-08
1.32341e-06
6.26538e-07
0.00194767
6.34876e-07
3.93194e-07
6.55523e-07
-3.50861e-07
9.53468e-05
5.2793e-07
1.794e-06
-9.01514e-06
-1.41838e-07
0.00185075
3.09888e-06
-5.05603e-07
5.1244e-05
4.74039e-06
4.77063e-08
3.54375e-07
4.03267e-07
0.00421471
0.000627477
-6.21169e-07
3.32931e-06
5.38358e-07
0.0038608
0.00153332
1.74168e-06
-0.000432698
9.92891e-08
1.01624e-07
0.00230752
5.92765e-07
2.79498e-07
-4.40603e-05
1.16005e-06
5.92197e-08
-2.5395e-07
3.69399e-06
5.11603e-07
0.00113242
1.07767e-05
0.000412745
-0.000144672
1.36714e-06
1.57431e-06
8.90134e-08
0.00420285
0.00106944
-6.2899e-05
9.76158e-08
-4.2732e-07
1.99619e-06
1.0386e-06
-0.0023485
2.89857e-07
0.00155571
-9.86334e-09
6.02026e-06
-1.18883e-06
0.0010251
1.88008e-06
2.10939e-06
0.00176332
-0.00354959
-0.000434855
0.00144227
-1.66373e-07
-1.18552e-05
-1.74282e-05
0.00127002
-1.53888e-07
3.4232e-06
0.00109636
-2.09449e-06
2.43868e-06
1.07407e-05
-0.00553574
0.00463959
1.22362e-06
7.09146e-06
-1.60426e-07
1.35468e-06
1.19758e-06
1.03841e-07
1.79711e-06
-0.000171974
-0.00023221
4.75954e-06
7.59422e-05
1.27215e-07
-4.59309e-08
8.85916e-08
1.14242e-07
0.00431608
-1.87828e-07
-1.38126e-07
0.0052368
8.41932e-06
1.12131e-06
3.02087e-06
-1.86396e-06
1.89919e-06
-1.12535e-05
0.00183243
-1.0937e-05
6.92049e-07
0.00167135
3.88836e-07
4.99401e-09
5.02501e-07
0.00134231
2.84049e-06
1.30419e-05
7.73821e-06
4.33199e-07
-1.61943e-07
1.29688e-07
3.22081e-07
8.12108e-07
-0.000389289
-2.78598e-05
9.72579e-07
0.000135353
0.00108938
0.000882902
-0.00034794
2.17e-07
1.02759e-06
5.63544e-07
1.49369e-07
3.72034e-05
8.58333e-07
6.33286e-07
0.000857452
0.00189121
-1.74972e-07
1.16357e-06
1.02791e-06
1.65206e-06
0.000405816
1.42652e-06
0.0045105
3.19045e-07
2.14731e-06
0.00425746
1.96478e-06
3.42329e-06
0.000451977
0.000569487
0.0040596
0.00546299
-1.78292e-07
2.36556e-05
-6.14735e-07
2.83311e-07
2.24915e-07
1.59593e-06
0.00432823
0.00083941
0.000573221
7.77719e-06
1.55003e-06
2.11757e-08
2.16463e-08
4.08214e-07
-2.29598e-08
1.36802e-06
0.00501504
0.00492092
1.90486e-06
5.86537e-05
4.02819e-07
1.52073e-06
-1.18227e-07
0.00302932
-1.87521e-06
3.12309e-07
1.64695e-06
2.86656e-06
-0.000784567
0.00150955
3.26189e-06
-1.22827e-05
7.08102e-07
6.80149e-05
1.34487e-06
1.39997e-05
0.000478272
3.54735e-07
1.50261e-06
3.74349e-07
-0.0002834
-9.57622e-06
1.33848e-06
0.00115888
2.79355e-06
0.000634758
1.60511e-06
3.53114e-06
1.00367e-06
6.57304e-08
3.53462e-06
2.00706e-06
6.53524e-07
1.50186e-06
1.09471e-06
1.15006e-06
4.43558e-05
1.80319e-06
5.33319e-07
1.04275e-06
1.27836e-06
1.03226e-06
-5.3837e-07
-0.000855158
3.44181e-06
-0.000651478
0.000100662
2.61591e-07
0.00182542
8.26491e-08
4.09523e-07
5.78444e-07
0.0017432
1.24473e-06
0.00319575
-0.000478694
1.52623e-06
1.38345e-06
2.30765e-06
-0.00118103
3.39042e-06
-7.76671e-05
9.27778e-08
1.23646e-06
3.75199e-07
0.00239183
0.00119417
1.45017e-07