/*--------------------------------*- C++ -*----------------------------------*\
| =========                 |                                                 |
| \\      /  F ield         | OpenFOAM: The Open Source CFD Toolbox           |
|  \\    /   O peration     | Version:  v2012                                 |
|   \\  /    A nd           | Website:  www.openfoam.com                      |
|    \\/     M anipulation  |                                                 |
\*---------------------------------------------------------------------------*/
FoamFile
{
    version     2.0;
    format      ascii;
    class       surfaceVectorField;
    location    "200";
    object      Uf;
}
// * * * * * * * * * * * * * * * * * * * * * * * * * * * * * * * * * * * * * //

dimensions      [0 1 -1 0 0 0 0];


internalField   nonuniform List<vector> 
20580
(
(1.05731 0.0609768 -9.01932e-22)
(1.05612 0.0626709 3.68823e-20)
(1.05575 0.0603296 -2.68656e-20)
(1.05086 -0.0114633 4.7335e-22)
(1.05147 -0.0121077 -3.78366e-21)
(1.05214 -0.0109909 2.473e-21)
(1.05002 -0.0104365 -8.5112e-22)
(1.04936 -0.0115742 1.77921e-21)
(-0.206421 -0.0439445 3.04625e-20)
(-0.173783 -0.04758 7.57976e-20)
(-0.205632 -0.045583 -1.45372e-19)
(1.00187 -0.00045795 -3.69398e-22)
(1.00169 -0.000426947 8.21018e-22)
(1.00177 -0.000254041 -1.58622e-21)
(1.06194 -0.0185078 4.1964e-21)
(1.06229 -0.0201106 1.36652e-21)
(1.06045 -0.0197638 -1.43288e-20)
(1.03462 0.00644046 5.99977e-21)
(1.03459 0.00708289 -1.902e-21)
(1.01107 -0.000673191 0)
(1.01082 -0.000685206 0)
(1.01019 -0.000417045 -1.25389e-21)
(0.641517 0.0479375 8.3288e-22)
(0.645582 0.0475207 -2.1387e-23)
(0.610603 0.0454586 9.36277e-24)
(0.990581 -0.00433861 7.49124e-21)
(0.990994 -0.00380561 2.09808e-21)
(0.99139 -0.00443654 3.41364e-21)
(1.15224 -0.0454206 -2.39308e-21)
(1.14704 -0.0475575 -2.88678e-20)
(1.15187 -0.0513268 -2.37803e-20)
(1.00095 -0.00669975 -1.8185e-21)
(1.00109 -0.00693369 -1.58585e-21)
(1.00095 -0.00698996 2.42924e-22)
(0.980235 -0.0129394 4.05322e-22)
(0.979859 -0.0137476 -1.75804e-20)
(0.981029 -0.0135299 -1.0059e-20)
(0.402741 0.0256773 -5.94911e-22)
(0.38591 0.0212408 -7.0196e-21)
(0.408853 0.0279918 -1.27705e-20)
(1.05915 0.0199728 -1.99119e-21)
(1.06025 0.0206966 0)
(1.06013 0.0192281 0)
(1.03253 0.037481 0)
(1.03245 0.0371597 0)
(1.03219 0.0375456 0)
(-0.373065 -0.0288592 0)
(-0.407069 -0.0287233 0)
(-0.389096 -0.024173 8.96808e-20)
(1.02598 -0.0137507 2.78609e-21)
(1.02658 -0.0137112 2.48209e-21)
(1.02641 -0.0143385 -5.9142e-22)
(1.10571 0.101726 -1.31072e-20)
(1.1093 0.102377 8.83322e-21)
(1.10585 0.10577 0)
(1.05876 0.0620538 -1.25009e-21)
(1.05864 0.0598223 6.57251e-22)
(1.0697 0.0223177 -9.16578e-21)
(1.0701 0.0206924 -2.04217e-20)
(1.06834 0.021251 -8.94779e-21)
(1.03663 -0.0722678 3.69444e-21)
(1.0337 -0.0730893 -3.88409e-21)
(1.03478 -0.0697966 4.78209e-21)
(0.838607 -0.388533 5.52508e-20)
(0.681768 -0.328021 -2.6198e-21)
(0.54289 -0.266169 2.4485e-20)
(1.00005 -0.000186317 6.39916e-23)
(1.00009 -0.000244861 -3.11618e-21)
(1.00005 -0.000156526 -1.14627e-22)
(1.24323 0.104661 -3.15897e-20)
(1.25482 0.100396 -8.98095e-20)
(1.27243 0.112663 -1.05127e-19)
(1.03746 0.0327389 3.41559e-21)
(1.03707 0.0330037 -3.09295e-21)
(1.03758 0.033279 1.12655e-21)
(1.02849 0.0499396 -2.10169e-20)
(1.02815 0.0504069 8.21294e-21)
(1.02802 0.0494016 -1.52863e-20)
(1.06348 0.110903 -5.40292e-22)
(1.06233 0.108728 -1.44427e-20)
(1.05597 0.111599 3.00717e-20)
(0.723698 0.0402365 -7.48655e-23)
(0.694188 0.040298 -4.07689e-21)
(0.688051 0.0399095 8.54864e-21)
(1.01621 -0.00926076 6.6087e-22)
(1.01594 -0.00954088 4.40519e-22)
(1.01577 -0.00907183 2.32167e-22)
(-0.0490426 -0.0345383 1.17764e-20)
(-0.0927543 -0.0354277 -2.24454e-20)
(-0.0221311 -0.0317878 -2.57545e-20)
(1.0351 0.00652381 -8.0027e-22)
(1.0346 0.00605392 3.93544e-21)
(1.0519 0.0577427 2.35545e-21)
(1.05078 0.0568533 -1.84175e-20)
(1.05241 0.0564021 -8.49581e-21)
(0.812855 0.0783711 -1.05972e-20)
(0.803348 0.0792697 1.77541e-22)
(0.869958 0.0830767 6.94051e-21)
(1.11376 -0.0454319 -3.80187e-21)
(1.11414 -0.0418378 -2.67219e-20)
(1.11691 -0.0451991 -1.97422e-20)
(0.70694 0.0399213 -6.51599e-22)
(0.741574 0.0402251 -2.76482e-21)
(0.711767 0.0391187 -1.43848e-21)
(1.00002 -0.000122268 3.08274e-21)
(1.00005 -0.000223181 1.67167e-21)
(1.39748 -0.0713434 -1.36567e-19)
(1.40331 -0.0746306 3.12498e-20)
(1.4005 -0.0621362 -1.10736e-19)
(0.165434 0.0644335 1.85376e-20)
(0.202453 0.0700924 1.87471e-20)
(0.264919 0.0746258 2.76116e-20)
(1.00332 -0.0299818 1.37633e-21)
(1.00402 -0.0292503 0)
(1.00433 -0.03027 -1.10187e-21)
(0.599683 0.0935005 -1.73982e-21)
(0.675045 0.100081 7.81212e-23)
(0.613627 0.0925885 -1.82379e-20)
(0.752119 0.0410239 2.74457e-21)
(0.758606 0.0405294 9.26351e-21)
(-0.34397 -0.0287091 -2.90788e-21)
(-0.348085 -0.0297939 3.83431e-21)
(1.14852 -0.449595 1.79869e-20)
(1.14362 -0.459283 0)
(1.13329 -0.46415 -2.61102e-20)
(0.796483 0.04359 -1.67812e-21)
(0.789645 0.0435662 2.37917e-21)
(0.755878 0.0423896 -8.47354e-22)
(1.01148 -0.0175271 1.04856e-22)
(1.01089 -0.0175876 9.94087e-23)
(1.01114 -0.0169283 -2.56983e-22)
(1.01697 -0.000415196 -1.26405e-21)
(1.01683 -0.000281097 -4.21618e-22)
(1.0346 0.0412014 2.01462e-20)
(1.03413 0.0410623 -4.06228e-22)
(1.03461 0.0406217 1.01578e-20)
(1.03752 -0.0426959 -7.92025e-21)
(1.03578 -0.0414253 -2.52288e-21)
(1.03786 -0.0410173 -5.77086e-22)
(0.980628 -0.0119894 -5.17641e-21)
(0.979243 -0.0121655 7.38058e-21)
(-0.142518 0.0106927 2.02272e-20)
(-0.13526 0.00958406 1.41533e-20)
(-0.187162 0.00116655 1.25583e-20)
(0.972761 -0.00581952 -4.15992e-21)
(0.973962 -0.00605448 3.33681e-22)
(0.973117 -0.00704247 4.45763e-21)
(1.03261 0.0378797 1.29803e-21)
(1.03286 0.0374891 1.04477e-20)
(1.03996 0.0169544 -4.08332e-21)
(1.0403 0.0175608 3.88854e-21)
(1.03952 0.0175306 1.16813e-20)
(0.433837 0.0253837 3.04426e-21)
(0.459138 0.0284448 1.12352e-22)
(0.430079 0.025404 2.24939e-21)
(1.00282 -0.0307626 1.062e-22)
(1.00243 -0.0296591 1.01462e-21)
(1.05111 0.0593583 3.71941e-20)
(1.05326 0.0587091 3.19784e-20)
(0.580481 0.0935902 1.49971e-20)
(0.535693 0.083347 1.06204e-20)
(1.02803 0.0428465 -1.32754e-20)
(1.0285 0.042486 9.49149e-22)
(1.02855 0.0432006 6.18128e-22)
(0.251474 0.0220021 0)
(0.267551 0.0232221 0)
(0.284245 0.0284656 0)
(1.00084 -0.00645936 2.2848e-21)
(1.00095 -0.00641483 0)
(1.02919 0.049554 -8.98237e-22)
(1.02924 0.0504916 -1.41483e-20)
(0.995555 -0.000641312 -3.87089e-21)
(0.995623 -0.00106099 7.3049e-22)
(0.995135 -0.000870423 1.18959e-21)
(1.03697 -0.044076 3.07477e-22)
(1.03891 -0.0434268 -9.88859e-22)
(0.897431 -0.452962 1.43311e-21)
(0.922081 -0.445889 -2.59365e-21)
(0.903331 -0.429439 6.57145e-21)
(0.87073 -0.459066 -1.23461e-21)
(0.892633 -0.483572 1.8531e-21)
(0.234742 0.0184937 -1.23023e-20)
(0.215317 0.0131179 0)
(0.705767 -0.121443 1.93614e-20)
(0.69987 -0.138243 3.28982e-20)
(1.01607 -0.0304864 -6.70346e-22)
(1.01512 -0.0307634 -9.21465e-23)
(1.01549 -0.0296947 9.57293e-22)
(-0.133346 -0.0461131 -7.2183e-20)
(-0.174818 -0.0423704 4.79086e-20)
(-0.158634 -0.0433398 -6.24715e-20)
(-0.139366 -0.0268712 -3.33137e-20)
(-0.187876 -0.026065 8.45512e-22)
(-0.141617 -0.0282776 -5.38443e-20)
(1.073 0.0280581 5.11338e-21)
(1.07462 0.0276224 2.17981e-20)
(1.07418 0.0297303 1.50076e-21)
(0.993222 -0.0202079 3.6169e-21)
(0.992467 -0.0198909 -4.36224e-23)
(0.992594 -0.020857 3.78137e-21)
(0.276423 0.0243238 -1.86505e-21)
(0.240668 0.0158961 -1.73244e-20)
(1.04421 0.0187933 5.93391e-21)
(1.04445 0.0180334 6.51216e-21)
(1.04502 0.0187119 -5.68887e-22)
(1.01798 -0.0599707 4.98388e-22)
(1.01582 -0.0591322 -5.76134e-23)
(1.01762 -0.057545 5.86929e-22)
(-0.348107 -0.0287826 0)
(-0.32486 -0.0265525 -5.93274e-20)
(1.01677 -0.00497138 -1.21238e-21)
(1.01661 -0.00520934 1.94417e-21)
(1.0171 -0.00523488 0)
(1.23464 0.108935 5.78705e-20)
(1.23162 0.0988026 8.38677e-20)
(1.0037 -0.0142819 -1.42937e-21)
(1.00359 -0.0137915 -1.0584e-22)
(1.00327 -0.0140513 -1.46306e-21)
(1.01717 -0.0304307 0)
(1.01659 -0.0316047 -1.14653e-21)
(1.25862 0.00942274 -6.75649e-21)
(1.25564 0.0169077 3.6915e-20)
(1.26446 0.0133579 4.34294e-20)
(1.11033 -0.0463525 1.63546e-20)
(1.11317 -0.0497388 1.39815e-21)
(0.379379 0.0231354 1.15922e-21)
(0.391421 0.0257325 2.42852e-21)
(0.408426 0.030433 3.11331e-21)
(0.283123 0.0237505 2.44651e-22)
(0.307144 0.0302596 -1.07633e-20)
(-0.114363 -0.0312172 1.04722e-20)
(-0.100808 -0.0308088 4.53889e-20)
(-0.0514546 -0.0327338 2.17472e-20)
(1.03878 -0.0742984 4.9091e-21)
(1.03922 -0.0710066 -1.99715e-21)
(0.490957 0.0280829 1.16689e-20)
(0.454752 0.0243902 6.6614e-21)
(0.496819 0.0276537 -3.11511e-21)
(0.99119 -0.00788476 1.84009e-21)
(0.991637 -0.00835564 -9.51543e-22)
(0.991766 -0.00767698 -2.45809e-23)
(-0.023252 -0.0368015 2.86296e-20)
(-0.0828893 -0.0341826 2.45309e-20)
(0.970789 -0.00566103 7.56521e-21)
(0.972181 -0.00413328 -2.40243e-20)
(1.03565 0.00654248 1.9227e-21)
(1.0356 0.00711725 2.27464e-21)
(-0.265582 -0.00764154 0)
(-0.260532 -0.0102359 0)
(-0.130789 -0.0325477 5.18586e-20)
(-0.168285 -0.032239 1.09221e-19)
(0.184523 0.0781378 -2.95193e-20)
(0.147309 0.0678842 4.86122e-20)
(0.113735 0.0590933 2.88273e-20)
(1.13636 -0.425876 1.46796e-20)
(1.12488 -0.406715 -2.65973e-20)
(1.1124 -0.420893 -2.09604e-21)
(1.00739 -0.0186127 1.06556e-21)
(1.00682 -0.0186297 3.6942e-22)
(1.00735 -0.0192486 1.32964e-23)
(1.03305 0.0396339 -7.26756e-22)
(1.03292 0.0391541 -1.24848e-21)
(1.03337 0.0392684 1.13426e-20)
(0.0287523 0.0213885 1.35326e-20)
(0.0353522 0.0194974 -1.93138e-21)
(-0.000415341 0.0109859 1.09559e-21)
(1.23298 -0.131195 3.55671e-20)
(1.24199 -0.129509 -3.13702e-21)
(1.23857 -0.138754 0)
(1.03315 0.0401683 1.71505e-22)
(1.03258 0.0399973 -8.43531e-21)
(0.813749 -0.117236 -3.18607e-20)
(0.811367 -0.106848 -1.02339e-20)
(0.822529 -0.11076 5.5003e-21)
(0.822726 -0.149914 0)
(0.820169 -0.138499 -1.88547e-20)
(0.809833 -0.147385 0)
(0.988407 -0.0210006 -3.85284e-21)
(0.989331 -0.0212955 -5.85689e-22)
(0.988532 -0.0222033 -2.3689e-21)
(1.01368 -0.0169288 -4.27257e-22)
(1.01411 -0.0174876 -3.84794e-22)
(1.01415 -0.0167982 3.46604e-22)
(1.08413 0.0202841 3.92982e-21)
(1.08617 0.0197078 0)
(1.08556 0.0223322 0)
(1.01328 -0.0163192 -1.66203e-22)
(1.01304 -0.0170514 3.67687e-22)
(-0.136744 -0.0280456 -2.64383e-20)
(-0.0857197 -0.0298103 -1.54458e-19)
(1.03561 0.00597398 3.60155e-21)
(1.03621 0.00650897 -3.21484e-21)
(1.02543 -0.0138199 2.53477e-21)
(1.0256 -0.0132614 0)
(1.02865 -0.106695 2.85981e-21)
(1.03118 -0.110532 -2.08472e-21)
(1.02606 -0.110237 2.69674e-21)
(1.01204 -0.0175319 0)
(1.01196 -0.0181681 0)
(1.16062 0.0588489 -1.31477e-20)
(1.15702 0.0620406 0)
(1.16193 0.0630657 2.49611e-20)
(1.12966 0.00557254 1.74356e-20)
(1.12622 0.00516808 1.98785e-20)
(1.12834 0.00204366 8.67146e-21)
(1.04451 0.0517304 9.22059e-23)
(1.04371 0.0509972 -7.98104e-21)
(1.04343 0.0522991 1.36649e-20)
(1.03967 0.0162445 -5.52612e-21)
(1.04039 0.0163157 -9.92817e-21)
(1.01152 -0.00619807 9.14933e-22)
(1.01135 -0.00637875 5.34262e-22)
(1.01178 -0.00645386 3.72836e-23)
(1.01136 -0.000590358 0)
(1.01142 -0.000908745 1.16303e-21)
(-0.238359 -0.0402074 8.6965e-20)
(-0.21116 -0.0446199 -5.6118e-21)
(-0.0985657 -0.0488689 4.79158e-20)
(-0.0803352 -0.0486923 0)
(1.1488 -0.326321 3.90316e-20)
(1.1402 -0.338613 3.83496e-20)
(1.15668 -0.337736 -2.88031e-20)
(1.02203 -0.0119936 -3.8758e-21)
(1.02134 -0.0119965 -7.14154e-21)
(1.02158 -0.0115251 -1.28512e-21)
(1.01123 -0.0307647 1.03185e-22)
(1.01211 -0.0312275 9.86537e-23)
(1.01127 -0.0319112 2.87148e-23)
(0.421015 0.0457669 5.32793e-21)
(0.450786 0.051313 -1.03681e-20)
(0.417602 0.0476156 -8.51946e-21)
(1.08091 0.0892523 -1.38817e-20)
(1.0836 0.0909285 -5.09345e-20)
(1.08055 0.0921989 -1.76085e-20)
(0.613306 -0.20793 0)
(0.636049 -0.199355 3.33582e-20)
(0.633956 -0.229735 7.41973e-20)
(1.00806 -0.0187704 0)
(1.00759 -0.0180134 4.39191e-22)
(1.13594 -0.110158 1.24254e-20)
(1.13247 -0.104372 1.99863e-21)
(1.13036 -0.111098 5.08667e-20)
(0.654653 0.0776175 -7.55562e-21)
(0.598683 0.0734198 0)
(0.645377 0.0783668 0)
(1.06318 0.0276499 3.57061e-21)
(1.06347 0.0292686 8.53647e-21)
(1.06469 0.0276038 1.43378e-20)
(1.03073 -0.0731757 2.55493e-22)
(1.0324 -0.0758558 2.45996e-21)
(1.08271 -0.0386877 1.79081e-20)
(1.08281 -0.0355453 -1.57355e-20)
(1.08007 -0.0376404 -2.2948e-20)
(1.37423 -0.0763048 -6.69574e-20)
(1.37341 -0.0670076 -5.67194e-20)
(0.831455 0.0774066 4.89896e-21)
(0.764706 0.0769688 -8.45285e-21)
(1.15659 -0.0443503 -2.45715e-20)
(1.15228 -0.0412683 -3.08376e-20)
(0.167249 0.0741182 -2.45815e-20)
(0.109658 0.0690312 1.07313e-20)
(0.0855044 0.0655491 -1.88997e-20)
(0.722618 -0.118656 6.17722e-20)
(-0.0953298 -0.0296726 -4.90506e-20)
(-0.143435 -0.0295048 -1.69357e-20)
(0.856559 -0.0841643 2.57467e-22)
(0.847394 -0.083179 -3.71947e-20)
(0.852017 -0.0757959 -3.77802e-21)
(1.06038 0.0280978 0)
(1.05946 0.0269706 0)
(1.05891 0.0283476 -4.79909e-22)
(1.26165 0.00191397 -1.07514e-19)
(1.25226 0.00567783 -6.24015e-20)
(0.973963 -0.0363615 1.13073e-21)
(0.974057 -0.0344921 -2.76155e-21)
(0.975744 -0.0352287 -1.01302e-20)
(0.990658 -0.00747236 -6.52228e-21)
(0.990524 -0.00826059 3.39772e-22)
(0.762173 -0.300273 1.37829e-21)
(0.746151 -0.316213 1.37866e-21)
(0.770143 -0.31803 -3.89916e-21)
(1.17605 0.129887 3.25708e-20)
(1.19164 0.135995 -1.19508e-20)
(1.18218 0.137038 2.54905e-20)
(1.00594 -0.0576035 1.02293e-22)
(1.00578 -0.059391 3.24337e-22)
(1.00377 -0.0585878 3.71982e-22)
(1.01689 -0.00474065 -1.08789e-21)
(1.01644 -0.00475858 3.03188e-21)
(-0.14963 -0.033016 0)
(0.585865 0.0374205 8.1628e-21)
(0.591646 0.0387219 -5.26514e-21)
(0.558589 0.035579 -3.4075e-21)
(1.14046 -0.11416 -2.02216e-20)
(1.14127 -0.107752 -2.36413e-20)
(1.03351 0.0403357 1.97959e-20)
(1.0331 0.0406996 1.12145e-20)
(1.16427 0.0556273 -3.35837e-20)
(1.15892 0.0549271 -1.52411e-20)
(1.13302 0.00607269 -1.54544e-20)
(1.13067 0.00906574 9.06368e-21)
(1.09927 0.0937756 -1.54568e-20)
(1.10291 0.0942514 1.25028e-20)
(1.10147 0.0907756 3.80836e-20)
(0.972297 -0.0146338 1.09161e-22)
(0.972967 -0.0159962 -8.78622e-21)
(0.97119 -0.0159963 -8.4099e-21)
(0.983479 -0.00432088 -1.01702e-20)
(0.982899 -0.00362671 6.98937e-21)
(0.9839 -0.00355427 -5.17201e-21)
(1.00117 -0.00558168 1.08077e-21)
(1.00108 -0.00568434 0)
(1.00102 -0.00534669 -1.23892e-21)
(0.132972 0.055546 -1.1383e-20)
(0.0868815 0.049135 -6.51605e-21)
(1.0603 0.025036 1.55055e-20)
(1.05962 0.0260507 1.22286e-20)
(1.05947 0.0247135 5.21801e-21)
(1.03889 0.00218603 -5.39932e-21)
(1.03904 0.00261358 -6.32257e-21)
(1.03953 0.00225309 1.15772e-20)
(1.00011 -0.000445124 0)
(1.00012 -0.000390653 1.68402e-21)
(1.00017 -0.000526518 0)
(0.699824 0.0380767 0)
(0.696599 0.0397007 8.07902e-22)
(0.732587 0.0394742 -5.58166e-21)
(1.08217 0.0215416 3.19916e-21)
(1.08242 0.0187257 -2.98786e-20)
(1.03524 0.0412802 3.76573e-21)
(1.03478 0.0418377 -1.07588e-20)
(0.417787 0.0285777 5.39236e-21)
(0.393897 0.023785 1.14012e-21)
(0.736574 0.0501314 2.84928e-21)
(0.700614 0.0498859 8.73664e-21)
(0.740433 0.049649 1.23852e-20)
(0.728059 0.0508144 -9.24074e-21)
(0.776769 0.0518236 -1.27794e-20)
(-0.154025 0.00980897 -3.49567e-20)
(-0.108659 0.0188749 -2.02636e-24)
(1.03115 -0.103174 -4.46851e-22)
(1.02646 -0.102896 1.16913e-21)
(1.10873 0.145913 6.77375e-22)
(1.11335 0.147579 -5.09628e-20)
(1.09721 0.148134 -8.03413e-21)
(1.00072 -0.0062397 3.50936e-21)
(1.00062 -0.00600803 -4.92006e-22)
(1.00072 -0.00595511 -3.70057e-22)
(1.01174 -0.00600182 2.41327e-21)
(1.0113 -0.00589519 6.60419e-22)
(1.09684 0.0269457 2.11736e-20)
(1.09894 0.0255979 -3.33196e-20)
(1.09657 0.0242481 -1.92124e-20)
(1.00104 -0.000341879 6.15024e-23)
(1.00094 -0.000436692 1.03147e-21)
(1.00089 -0.000288209 1.25369e-21)
(0.211204 0.0825735 -5.71957e-20)
(0.265947 0.0882386 -4.75041e-20)
(1.03238 0.0628104 -2.48793e-21)
(1.03355 0.0619888 -7.12565e-21)
(1.03201 0.0614975 0)
(1.03433 0.0441558 -4.46532e-21)
(1.03459 0.0448608 -9.03438e-21)
(1.03364 0.0445709 -2.48059e-20)
(1.01195 -0.00583025 -1.55056e-22)
(1.01216 -0.00609865 1.31745e-21)
(1.04271 0.0188588 -8.69735e-22)
(1.04349 0.0188431 6.76269e-22)
(1.04288 0.0181564 6.3141e-23)
(1.03407 0.0434832 -3.78929e-21)
(1.03485 0.0436998 9.77221e-21)
(1.07787 0.0882918 4.18654e-20)
(1.0812 0.0865335 4.23107e-20)
(1.16378 -0.43312 -6.46661e-21)
(1.03316 -0.0995061 -5.90777e-21)
(1.03085 -0.0960035 -5.52553e-22)
(1.03488 -0.0958826 5.31744e-21)
(1.06157 0.0279209 3.73736e-21)
(1.0623 0.0263884 4.16356e-21)
(-0.376716 -0.0287602 3.7736e-21)
(-0.372829 -0.0267821 1.84897e-20)
(0.604868 0.0393915 1.95364e-20)
(0.577774 0.0355994 -5.88451e-21)
(1.05 0.0559263 2.70673e-21)
(1.04928 0.0572335 3.08907e-21)
(0.89441 -0.0572921 -8.33896e-21)
(0.889961 -0.0533859 2.27279e-20)
(0.889071 -0.0600784 5.71691e-21)
(0.976402 -0.0172315 -3.64869e-21)
(0.975981 -0.0160868 -1.15287e-20)
(0.977364 -0.0162231 -1.542e-20)
(1.01452 -0.0123462 -2.26275e-22)
(1.01456 -0.0128451 1.0491e-21)
(1.0151 -0.0125749 -9.65254e-22)
(1.17351 0.124773 -3.33401e-20)
(1.16694 0.126081 3.04697e-20)
(1.06161 0.0252066 1.36703e-21)
(1.06104 0.0238112 -1.49244e-20)
(0.372563 0.0210221 0)
(0.350789 0.0179105 0)
(1.06113 -0.0167748 0)
(1.06303 -0.0170926 0)
(1.006 -0.0555635 -1.56538e-21)
(1.00806 -0.0565975 -2.97251e-23)
(1.03282 0.0387443 -1.44873e-20)
(1.03269 0.0382629 4.39359e-21)
(1.03311 0.0383028 1.34917e-20)
(1.04919 0.0551244 8.97097e-21)
(1.05057 0.0546701 0)
(1.03198 -0.00723141 8.10327e-22)
(1.03262 -0.00737797 1.1946e-20)
(1.03215 -0.00778447 2.08407e-21)
(1.03144 -0.0195743 4.39232e-21)
(1.0305 -0.0197053 0)
(1.03085 -0.0188949 0)
(0.7073 -0.151962 2.44626e-20)
(0.728064 -0.154616 2.73804e-20)
(0.717917 -0.168881 0)
(1.26496 -0.00457039 3.0232e-21)
(1.26744 -0.0122763 4.8161e-20)
(1.25829 -0.0090664 7.69024e-20)
(0.286117 0.0871361 -1.96013e-20)
(0.324107 0.0928523 -8.2236e-21)
(0.35496 0.0962448 0)
(0.540734 0.0930833 -6.81191e-21)
(0.518815 0.0929563 1.23338e-20)
(0.603969 0.101062 2.16171e-20)
(1.05808 0.0189839 -1.23888e-20)
(1.05797 0.0204897 5.35957e-23)
(0.979069 -0.703882 1.55336e-20)
(0.981532 -0.763844 -3.13726e-21)
(1.03593 -0.761039 1.51108e-20)
(0.224838 0.0802817 1.09654e-20)
(0.257051 0.0829104 -1.64346e-20)
(0.936778 -0.0133695 -3.91983e-21)
(0.939161 -0.0123248 3.08779e-21)
(0.936539 -0.0104251 -1.0534e-20)
(1.05213 0.0284211 8.31327e-22)
(1.05309 0.0283615 -3.11759e-21)
(1.05227 0.027663 -1.43731e-20)
(0.628045 0.0488376 -1.1644e-21)
(0.658266 0.0509947 -1.13462e-20)
(0.616879 0.0483888 1.60746e-21)
(1.05903 -0.0261035 -1.26763e-20)
(1.06034 -0.0268276 -1.56208e-20)
(1.05852 -0.0276687 1.7325e-21)
(1.0324 0.0368145 0)
(1.03228 0.0365607 0)
(1.03206 0.0369059 7.33992e-21)
(1.01061 -0.0305415 8.86194e-22)
(1.0112 -0.0301196 2.18393e-22)
(1.27044 -0.000193945 -8.37473e-20)
(1.00008 -0.00177766 -2.36446e-21)
(1.00012 -0.00206086 1.51513e-21)
(1.0001 -0.00211351 2.86923e-21)
(1.11462 -0.0374858 -1.36123e-21)
(1.11541 -0.0342053 4.32435e-22)
(1.11796 -0.0380513 -4.73468e-20)
(1.02009 -0.0645942 2.9898e-21)
(1.02234 -0.0646726 8.38461e-22)
(1.02123 -0.06681 1.93314e-21)
(0.981279 -0.0110954 -8.69542e-22)
(0.98196 -0.0119006 -1.21109e-20)
(1.0556 0.0733071 2.00335e-20)
(1.05371 0.0739107 -1.20019e-22)
(1.05529 0.0751348 2.03696e-20)
(1.03311 -0.0134398 3.4916e-21)
(1.03234 -0.0131038 -2.04211e-22)
(1.03312 -0.0126267 3.5718e-21)
(0.201031 -0.584785 1.06986e-20)
(0.1565 -0.634594 2.55603e-20)
(1.01177 -0.00550641 -1.55878e-21)
(1.01222 -0.00565454 -3.43163e-22)
(1.0604 0.062837 -1.24516e-20)
(1.06211 0.0637024 2.95083e-21)
(1.06191 0.0615443 -1.28792e-20)
(0.370249 0.0232376 -1.83058e-21)
(0.346486 0.0180285 1.66634e-22)
(0.143457 0.0696328 -9.40463e-21)
(0.123807 0.0702818 4.10837e-20)
(0.213656 0.0792298 -2.24885e-20)
(0.900875 -0.065773 -9.32155e-21)
(0.906009 -0.0641098 -1.3476e-20)
(0.904697 -0.0698819 -1.47015e-20)
(1.05115 0.0285967 -2.95445e-21)
(1.05185 0.0292683 1.86079e-20)
(1.00005 -0.0011986 0)
(1.00002 -0.000907504 0)
(1.00002 -0.000920798 -2.48913e-21)
(0.771444 -0.2854 -1.18639e-21)
(0.750997 -0.28051 -1.07574e-20)
(1.00084 -0.0106349 1.69712e-21)
(1.00091 -0.0101885 1.62564e-21)
(1.00116 -0.0105444 3.41685e-21)
(1.11101 -0.038045 1.81287e-20)
(0.0622335 -0.0701908 1.02482e-19)
(-0.0368026 -0.0654385 -2.60054e-22)
(-0.00469351 -0.066866 1.61663e-19)
(0.897787 -0.0621995 -9.90707e-21)
(0.899275 -0.055829 0)
(1.05746 -0.0250761 -7.57371e-21)
(1.05931 -0.0241431 -2.07381e-20)
(0.996495 0.000728488 0)
(0.996121 0.000591314 0)
(0.48598 0.0877879 8.51163e-21)
(0.553361 0.0923438 6.81751e-21)
(1.01673 -0.00937739 -2.61592e-22)
(1.01646 -0.00890063 1.2155e-21)
(1.02415 -0.446826 3.4217e-20)
(1.13904 -0.511616 0)
(0.505642 0.0928638 0)
(0.487299 0.0921551 2.60085e-21)
(0.566946 0.0996031 8.73733e-21)
(1.22354 -0.132708 3.08267e-20)
(1.22735 -0.123615 7.75001e-21)
(1.00011 -0.000496777 0)
(1.00006 -0.000360028 0)
(1.30834 -0.269139 8.77249e-21)
(1.32897 -0.263051 7.91486e-22)
(1.3368 -0.279677 2.93111e-21)
(0.29078 0.0235293 5.72246e-21)
(0.302155 0.0254732 -7.84819e-21)
(0.322721 0.0321505 9.7961e-21)
(0.839029 0.0445564 4.78998e-22)
(0.801518 0.0430715 1.66525e-21)
(1.03263 0.0368296 0)
(1.07093 0.0063704 -1.24626e-20)
(1.07192 0.00496759 1.80696e-20)
(1.06988 0.00519637 7.55602e-21)
(0.738512 -0.352457 2.24695e-20)
(0.730238 -0.332769 -2.36285e-20)
(0.713104 -0.349339 -1.7103e-20)
(1.056 0.0714472 2.74609e-20)
(1.05761 0.0725133 -8.88425e-21)
(1.04246 0.0195607 2.70659e-22)
(1.04191 0.018871 -3.54723e-21)
(1.136 -0.393397 -2.73709e-20)
(1.11691 -0.391304 -6.38481e-21)
(1.04937 -0.109221 -1.17278e-21)
(1.04489 -0.109984 2.38123e-21)
(1.04672 -0.105856 8.85172e-21)
(0.470761 0.0258101 -4.61599e-21)
(0.44834 0.0253924 1.48369e-20)
(0.444355 0.0243794 -7.89707e-22)
(1.08855 0.0704226 0)
(1.08532 0.0704721 4.02699e-20)
(1.08764 0.0676432 0)
(1.00826 -0.000430797 -8.01417e-22)
(1.00873 -0.000619231 -9.01407e-22)
(1.00836 -0.000950308 7.96432e-22)
(1.05624 -0.00224687 -8.88787e-21)
(1.05491 -0.00248514 0)
(1.05576 -0.00358481 -1.04962e-20)
(1.03244 0.039092 -1.5037e-20)
(0.697113 0.0383055 -2.70136e-21)
(0.670017 0.0398587 0)
(0.513787 0.0303406 -1.42978e-23)
(0.536543 0.0317585 -6.40038e-21)
(0.519758 0.03054 -1.02819e-20)
(1.01405 -0.0120999 -2.47516e-21)
(1.01453 -0.0119435 -1.34015e-21)
(0.595437 -0.223182 -4.81641e-20)
(0.992033 -0.00875918 -3.56996e-21)
(0.992457 -0.00915042 -3.3548e-21)
(0.992596 -0.00852537 -3.18837e-21)
(1.04414 0.061602 -7.93389e-21)
(1.04517 0.0626264 -2.22807e-21)
(1.04562 0.0611702 -2.21028e-20)
(1.08666 0.0910738 -1.97566e-21)
(1.08977 0.0922035 4.81068e-20)
(1.08838 0.0887028 -1.06175e-21)
(1.05723 -0.00229033 -8.71054e-22)
(1.05648 -0.00155521 -6.3596e-21)
(1.08069 0.0223493 -5.34825e-22)
(1.08185 0.0238119 2.03958e-20)
(1.09118 0.0712472 3.57094e-20)
(1.0887 0.0733934 0)
(0.997845 -0.0190703 3.06556e-21)
(0.998433 -0.0196916 -3.01844e-21)
(0.998468 -0.0187075 -8.572e-23)
(0.816809 -0.127161 -1.91744e-20)
(0.804782 -0.123492 6.16276e-20)
(1.0372 0.0414347 -6.52571e-21)
(1.03641 0.0413788 -1.08092e-20)
(1.03695 0.0407676 0)
(1.05433 0.0985536 -9.46112e-21)
(1.05588 0.100926 5.49959e-22)
(1.05724 0.097843 1.32266e-21)
(0.997498 -0.00651605 1.86734e-21)
(0.997804 -0.00637589 -3.49839e-21)
(0.997603 -0.00608235 0)
(0.981857 -0.0103459 1.20619e-20)
(0.980543 -0.0103764 1.17403e-20)
(0.895978 -0.0675778 1.16355e-20)
(0.749287 0.058876 -1.36396e-21)
(0.758288 0.0584448 0)
(0.803149 0.061449 -1.01983e-20)
(-0.27323 -0.0366899 3.05903e-21)
(-0.307501 -0.0337256 -2.01995e-21)
(-0.277748 -0.037875 3.23076e-21)
(1.06861 0.0264417 -1.10269e-20)
(1.06881 0.0251324 7.21182e-21)
(1.06999 0.0260986 -3.28299e-21)
(1.02264 -0.0120124 2.44181e-21)
(1.02241 -0.0125158 -7.20229e-23)
(1.07575 0.0872449 1.10292e-20)
(1.07546 0.0895111 7.05168e-21)
(1.09596 0.0932813 -3.90691e-20)
(1.09266 0.0927106 1.81664e-20)
(1.0947 0.0899528 4.17247e-22)
(1.04798 0.0519421 2.1655e-21)
(1.04699 0.0510628 -7.4478e-21)
(1.04823 0.0507289 -8.88643e-21)
(1.0787 0.023334 1.92235e-20)
(1.07921 0.0208228 0)
(0.74162 0.0583836 4.67778e-21)
(0.701962 0.0551574 6.78228e-22)
(0.107649 0.0207823 -8.123e-21)
(0.114686 0.0193119 -7.23575e-21)
(0.077624 0.0121857 -5.78492e-21)
(1.06065 -0.00629349 4.10241e-21)
(1.06138 -0.00736493 1.26366e-20)
(1.06203 -0.00583423 2.47596e-21)
(1.05742 0.0159614 -1.06705e-21)
(1.05804 0.0167069 1.83884e-20)
(1.05673 0.0168287 -1.31642e-20)
(1.40271 -0.13604 5.2429e-21)
(1.38914 -0.122218 -6.44668e-21)
(1.29862 -0.117807 6.32147e-21)
(1.01555 -0.0158921 -7.11576e-22)
(1.01591 -0.0165095 4.00451e-22)
(1.01501 -0.0161972 4.33596e-22)
(1.00123 -0.00543622 -1.39067e-22)
(1.00128 -0.00530488 -1.1832e-21)
(1.00113 -0.00510576 1.2819e-21)
(1.04883 0.0527486 2.79258e-20)
(1.04747 0.0530873 1.48456e-20)
(1.14367 -0.0694756 -1.24971e-20)
(1.14022 -0.065784 -1.46493e-20)
(1.13838 -0.0707997 -9.38284e-21)
(1.01725 -0.00939601 -1.44114e-21)
(1.01771 -0.00945162 2.45067e-21)
(1.0174 -0.0090668 -3.84861e-21)
(1.00017 -0.00205138 8.62772e-22)
(1.00014 -0.00205647 -1.57523e-21)
(1.0001 -0.00176635 -3.31314e-21)
(1.00077 -0.0109379 -2.98922e-21)
(1.00059 -0.0106053 1.77207e-21)
(1.0035 -0.0005851 -3.44498e-22)
(1.00374 -0.000601846 -2.99859e-22)
(1.00351 -0.000349758 -8.85035e-22)
(1.06489 0.0095884 -8.84604e-21)
(1.06623 0.0102125 1.58899e-20)
(1.06495 0.0111746 -1.38834e-20)
(1.00132 -0.00579878 3.23551e-21)
(0.63651 0.0484577 3.85721e-21)
(0.675321 0.0504762 -1.21036e-20)
(1.07072 0.0232556 2.43697e-20)
(1.06895 0.023559 -2.03412e-21)
(1.00862 -0.0248434 -1.49485e-21)
(1.00798 -0.0248711 -9.87315e-22)
(1.00852 -0.0254698 -6.53795e-23)
(0.675972 0.0364954 2.55143e-21)
(0.41694 0.0452948 1.75339e-20)
(0.393425 0.0433042 1.77584e-20)
(0.973759 -0.0110138 3.66893e-21)
(0.97428 -0.0122962 5.89839e-21)
(0.975231 -0.0112954 -8.57493e-21)
(1.05902 0.0644167 9.8818e-21)
(-0.0578206 0.016729 6.80499e-21)
(-0.0943181 0.00680274 2.76583e-20)
(-0.0494944 0.0147742 -1.47279e-20)
(0.972242 -0.0374836 0)
(0.974394 -0.038191 2.17653e-21)
(0.97301 -0.00969444 -4.37655e-21)
(0.971883 -0.0110828 0)
(1.07228 0.0238465 1.03358e-20)
(1.07134 0.0253979 9.70535e-21)
(0.351127 0.0216001 2.48603e-21)
(0.346869 0.0234304 -1.1615e-20)
(0.375638 0.0270476 -3.92765e-21)
(0.55872 0.0200686 -6.87726e-23)
(0.450598 0.0170284 0)
(0.534178 0.0143458 0)
(1.09004 0.0353443 0)
(1.09217 0.0369122 -1.4369e-20)
(1.09215 0.0340725 0)
(1.00209 -0.000440482 3.30903e-22)
(1.002 -0.000627524 4.63865e-23)
(1.10556 0.143817 1.68524e-20)
(1.10221 0.141209 4.3737e-20)
(1.00072 -0.00653202 2.24632e-21)
(1.0942 0.0383038 6.96092e-21)
(1.09648 0.0371276 2.13149e-20)
(1.09635 0.0401749 2.12976e-20)
(-0.0701699 0.0166381 -1.53644e-21)
(-0.0272051 0.0280888 -1.35913e-20)
(1.05166 0.0947552 -2.86925e-21)
(1.05313 0.096735 -7.61336e-23)
(1.05365 0.0939174 1.15021e-23)
(1.0387 0.00153641 7.14684e-21)
(1.03816 0.00190305 1.38649e-21)
(1.40428 -0.151232 3.41021e-21)
(1.39981 -0.142701 2.70559e-20)
(1.35164 -0.0824274 9.58982e-20)
(1.32891 -0.077229 -5.70124e-20)
(1.33062 -0.0884499 -1.46741e-20)
(-0.101694 -0.0229817 4.22348e-20)
(-0.0859155 -0.0200255 -1.87119e-19)
(-0.0387524 -0.0220526 -1.3776e-19)
(1.16758 0.0527724 1.02997e-20)
(1.16631 0.048311 3.27994e-20)
(1.17124 0.0496712 6.70451e-20)
(0.788983 -0.0976729 1.25489e-21)
(0.788756 -0.0861486 1.0057e-21)
(0.776703 -0.0914678 -1.17238e-20)
(0.223538 0.0805008 2.59892e-20)
(0.251965 0.0850532 -1.32271e-20)
(0.483773 0.0577975 -7.58684e-22)
(0.51777 0.0624703 6.84265e-21)
(0.477043 0.05778 1.72314e-22)
(1.06828 0.1103 2.80462e-21)
(1.06393 0.112842 1.64594e-20)
(1.03238 -0.0195188 -8.51953e-21)
(1.03198 -0.0204616 6.62263e-21)
(-0.331681 -0.030453 -3.54484e-20)
(-0.296514 -0.032299 3.09958e-20)
(-0.283574 -0.0310293 3.04984e-23)
(0.365021 0.0219329 -8.51123e-21)
(0.365009 0.0204996 1.06693e-21)
(0.501222 -0.475857 -2.01679e-21)
(0.46672 -0.450274 -1.71097e-21)
(0.470693 -0.499557 6.49933e-20)
(0.529033 -0.452907 4.18229e-20)
(0.541111 -0.495607 -2.99208e-20)
(0.934788 -0.0147122 -3.30715e-20)
(0.936281 -0.015799 2.62571e-21)
(1.09676 0.0320957 -2.00122e-20)
(1.09686 0.0295767 2.11757e-20)
(1.09914 0.0313101 2.30654e-20)
(0.948539 -0.105576 -8.61556e-21)
(0.951598 -0.101032 6.90069e-21)
(0.954459 -0.106486 2.70223e-22)
(0.507799 0.0298959 8.64939e-21)
(0.480116 0.0276294 9.06475e-21)
(0.798278 -0.14467 -5.63107e-20)
(0.795136 -0.131689 8.71408e-21)
(0.782875 -0.142295 -2.86137e-20)
(1.00666 -0.00138392 -8.71303e-23)
(1.00664 -0.00164524 -1.51535e-22)
(1.00694 -0.00154132 -1.71261e-22)
(1.01691 -0.000552675 -2.40235e-21)
(1.01678 -0.000425741 3.74353e-22)
(1.05961 -0.0570499 -4.29998e-21)
(1.06232 -0.0569386 2.49794e-20)
(1.0605 -0.059305 -9.40323e-21)
(-0.155013 -0.0289192 7.3422e-20)
(-0.119351 -0.0268465 8.39295e-20)
(0.269814 -0.611772 -1.16826e-21)
(1.01601 -0.015588 0)
(1.01523 -0.0153829 1.3702e-21)
(0.0861594 0.0648274 -9.8168e-21)
(0.937751 -0.103592 3.62874e-21)
(0.943637 -0.105026 -1.58016e-20)
(0.940976 -0.0994325 4.39963e-22)
(1.08263 -0.0409987 4.27185e-20)
(1.0851 -0.038987 3.07249e-20)
(1.03939 0.00320871 2.26102e-22)
(1.03874 0.00302337 -3.65544e-21)
(0.350629 0.0207033 1.14563e-21)
(0.321552 0.0200171 -5.60286e-21)
(1.07262 0.0860815 2.19322e-21)
(1.07599 0.0844741 -4.28998e-21)
(1.03228 0.0382803 5.86856e-21)
(1.01904 -0.0620874 1.98311e-21)
(1.01754 -0.0639725 1.21826e-21)
(1.05609 -0.0243824 3.93209e-21)
(1.05591 -0.0259252 4.64862e-21)
(0.741749 0.0385334 -5.16267e-21)
(0.743528 0.037946 1.00826e-20)
(0.716158 0.0384635 0)
(0.975612 -0.0184913 1.51678e-21)
(0.977171 -0.0184028 7.38495e-21)
(1.09723 0.0967345 -2.69771e-20)
(1.05923 -0.00662231 -2.20991e-20)
(1.0598 -0.00498537 -1.06741e-20)
(1.0733 0.0223822 -3.04126e-20)
(1.07392 0.0247232 1.38656e-20)
(0.935203 -0.108654 2.12284e-20)
(0.931669 -0.102539 -5.44677e-22)
(0.991465 -0.00902678 -7.25082e-21)
(1.00962 -0.024999 -3.53545e-22)
(1.00896 -0.0241243 -4.87401e-22)
(1.21066 -0.00499734 -3.63394e-21)
(1.21417 -0.00992317 1.28995e-19)
(1.21752 -0.00183351 5.5758e-20)
(1.25158 -0.128635 2.77115e-20)
(1.24522 -0.120956 -2.89412e-21)
(1.08335 0.0701195 3.41157e-22)
(1.08048 0.0697136 -8.29344e-21)