/*--------------------------------*- C++ -*----------------------------------*\
| =========                 |                                                 |
| \\      /  F ield         | OpenFOAM: The Open Source CFD Toolbox           |
|  \\    /   O peration     | Version:  v2012                                 |
|   \\  /    A nd           | Website:  www.openfoam.com                      |
|    \\/     M anipulation  |                                                 |
\*---------------------------------------------------------------------------*/
FoamFile
{
    version     2.0;
    format      ascii;
    class       volScalarField::Internal;
    location    "350";
    object      V0;
}
// * * * * * * * * * * * * * * * * * * * * * * * * * * * * * * * * * * * * * //

dimensions      [0 3 0 0 0 0 0];


value           nonuniform List<scalar> 
13851
(
0.0932896
0.0503646
0.015338
0.0937638
0.0126894
0.0872411
0.0773276
0.0206456
0.1664
0.0232622
0.173351
0.0180889
0.00506164
0.00646972
0.168179
0.0348627
0.0440719
0.059248
0.00818619
0.166504
0.106461
0.0169024
0.164978
0.186109
0.157551
0.0237966
0.0314214
0.000969886
0.0911207
0.0637148
0.0857155
0.0418582
0.0188935
0.10516
0.204698
0.00538356
0.00428175
0.0113079
0.0195457
0.134529
0.10121
0.170906
0.001329
0.162845
0.159433
0.00302639
0.155614
0.111523
0.0299523
0.145663
0.0110978
0.00675555
0.00137671
0.149039
0.170874
0.169689
0.168902
0.00212002
0.0741162
0.0758958
0.0126985
0.00549948
0.0662764
0.00924757
0.0426699
0.0822482
0.00342917
0.165874
0.021207
0.0621668
0.00128328
0.00336966
0.0478608
0.169622
0.16979
0.119096
0.0112751
0.00167721
0.0162452
0.0013783
0.0731761
0.166366
0.121297
0.00274108
0.062311
0.0166795
0.0887591
0.027188
0.0385842
0.183022
0.0052302
0.109168
0.128878
0.0246408
0.0410489
0.155029
0.0120414
0.00300944
0.125542
0.183838
0.00373982
0.0145914
0.0794454
0.0290338
0.162988
0.0941543
0.0130897
0.183475
0.0028884
0.0843242
0.156841
0.185382
0.107003
0.19344
0.161901
0.0680525
0.00390052
0.134998
0.170302
0.151776
0.00136141
0.0361348
0.00512738
0.107924
0.103241
0.175749
0.106848
0.0129351
0.08962
0.00794296
0.113554
0.160793
0.00134081
0.126672
0.0698774
0.164906
0.166042
0.00331615
0.00676406
0.0101695
0.00335428
0.18558
0.136962
0.162411
0.0532472
0.157081
0.18692
0.0106218
0.0912863
0.160247
0.00834829
0.164645
0.00516294
0.149259
0.0384796
0.0599301
0.122665
0.0593276
0.00678759
0.0117563
0.173073
0.0196517
0.00166115
0.144978
0.0636239
0.169743
0.19768
0.020172
0.0909389
0.00302874
0.00137118
0.143982
0.11933
0.00908014
0.149542
0.105079
0.0168106
0.106105
0.00781494
0.180823
0.035055
0.00311139
0.113023
0.0119065
0.170523
0.164837
0.07909
0.153018
0.0118075
0.0287902
0.149804
0.00152714
0.153337
0.0185689
0.00687578
0.0482519
0.135781
0.132473
0.12666
0.119163
0.174997
0.00389063
0.166814
0.112936
0.023869
0.115038
0.00927967
0.0404384
0.0019328
0.178645
0.00247846
0.0926379
0.139063
0.192584
0.178541
0.164813
0.0671142
0.00286168
0.12652
0.00192769
0.032548
0.0648745
0.00248195
0.00744722
0.00220517
0.177884
0.0266535
0.163463
0.00138317
0.178375
0.0246999
0.044874
0.141808
0.151323
0.0106067
0.0485244
0.00851371
0.0350765
0.17717
0.10063
0.0876358
0.134986
0.194623
0.0214114
0.162185
0.00163415
0.0137585
0.127107
0.0561975
0.044927
0.120752
0.126837
0.0561744
0.0524745
0.0132874
0.0654832
0.0335923
0.00308118
0.00121842
0.122072
0.166694
0.0732104
0.0781585
0.175268
0.0066714
0.0417923
0.055562
0.0245147
0.00256842
0.14193
0.119705
0.0436171
0.0885153
0.0164602
0.0376371
0.149309
0.171694
0.15477
0.00223863
0.148248
0.146711
0.191104
0.162483
0.0132406
0.0903092
0.0975009
0.153169
0.126531
0.0896721
0.187538
0.00845807
0.0564062
0.0641644
0.0196428
0.142733
0.00693372
0.0367454
0.0178298
0.14062
0.00176129
0.0188442
0.0396718
0.00228315
0.0788817
0.0936341
0.00244323
0.151462
0.0142933
0.0296265
0.0612231
0.00772577
0.0292624
0.0566118
0.00287709
0.165253
0.0386717
0.175906
0.00263816
0.00609957
0.123078
0.0129098
0.131183
0.00179009
0.120321
0.172249
0.109613
0.00689789
0.0265719
0.0375454
0.128024
0.0829678
0.0659144
0.195923
0.00411356
0.0039266
0.065698
0.00265854
0.00672265
0.148126
0.0179639
0.00839082
0.0892468
0.0405202
0.00639083
0.00738025
0.109132
0.0734393
0.00203282
0.161067
0.150801
0.150964
0.012068
0.0371101
0.0397229
0.00140393
0.118374
0.0783988
0.109984
0.140145
0.169164
0.169189
0.133042
0.00211585
0.17776
0.0863974
0.0171726
0.168072
0.0162175
0.0360173
0.0926398
0.00363807
0.0841329
0.0394963
0.0282685
0.107809
0.120469
0.133519
0.0990326
0.00295646
0.182414
0.00838181
0.100512
0.00576351
0.00322693
0.155736
0.1595
0.0965444
0.13876
0.145133
0.0673813
0.0103468
0.005865
0.0204793
0.00252057
0.00225617
0.126185
0.097265
0.00373405
0.00135469
0.0422863
0.00363406
0.104795
0.0262116
0.166953
0.00752006
0.132909
0.0266381
0.103787
0.0832301
0.167564
0.141021
0.126324
0.00825926
0.0458416
0.00161872
0.0683904
0.0116555
0.0840248
0.118016
0.0439119
0.0139026
0.0402819
0.161534
0.174813
0.147066
0.163187
0.0104621
0.128581
0.00897352
0.0790909
0.00155085
0.101658
0.0901725
0.17308
0.00826356
0.119827
0.122662
0.180214
0.016094
0.141607
0.0181703
0.00154624
0.127126
0.16184
0.159954
0.00366346
0.185418
0.0247773
0.0143479
0.131579
0.139645
0.0645833
0.00858016
0.00684773
0.0630398
0.0172062
0.187236
0.108067
0.00170218
0.0556505
0.181153
0.0238134
0.132714
0.079599
0.143579
0.045802
0.0598759
0.167689
0.127254
0.00363754
0.104649
0.0179332
0.158803
0.0765204
0.167186
0.167004
0.107478
0.178177
0.171204
0.100603
0.0639191
0.0927044
0.112241
0.175567
0.00406699
0.00137217
0.100269
0.086838
0.041519
0.128431
0.00281646
0.0911459
0.159592
0.115257
0.0115265
0.0745584
0.0017054
0.174267
0.00121249
0.0295749
0.163449
0.0874014
0.0030291
0.0207267
0.138031
0.163125
0.111178
0.176636
0.144262
0.150464
0.0841506
0.00138095
0.0113753
0.00642801
0.00402175
0.0624392
0.183233
0.00620629
0.132076
0.0319393
0.0232679
0.110629
0.110975
0.00281834
0.146389
0.00213628
0.00287529
0.00334646
0.0400447
0.0669783
0.114971
0.163947
0.0749496
0.128998
0.0150336
0.0581159
0.0149559
0.00343254
0.171914
0.159331
0.0113173
0.00129394
0.0520594
0.123773
0.128666
0.09157
0.0114478
0.0472085
0.0310504
0.0170459
0.154075
0.00184252
0.00165985
0.0943035
0.141022
0.0191932
0.128279
0.144645
0.153561
0.00577481
0.0289864
0.0071041
0.00425122
0.165538
0.082734
0.105011
0.0144665
0.00890598
0.00132667
0.00300338
0.109037
0.0825565
0.0254625
0.00202212
0.00553344
0.0166975
0.0626794
0.167225
0.127365
0.0140436
0.175582
0.0531994
0.178306
0.147832
0.00271053
0.0103292
0.0850366
0.158476
0.00759184
0.1288
0.138242
0.142363
0.165588
0.151409
0.00281984
0.122734
0.130874
0.00369204
0.114093
0.0191808
0.0012353
0.00146544
0.0770856
0.0194671
0.127302
0.173537
0.0293327
0.00393289
0.0775997
0.00754505
0.0267318
0.14527
0.0386598
0.125784
0.13112
0.00943446
0.116
0.0661311
0.137453
0.0228865
0.0072838
0.0802943
0.110138
0.0323828
0.0621505
0.0111109
0.0108371
0.00611533
0.0384748
0.0052125
0.142846
0.052242
0.102716
0.00295074
0.0996119
0.170779
0.00281248
0.0657074
0.00198393
0.0018757
0.00267171
0.0262745
0.128314
0.0030176
0.127822
0.149027
0.165721
0.147235
0.146446
0.0688541
0.049845
0.161802
0.00989625
0.0282091
0.00827921
0.127203
0.157707
0.138486
0.0101147
0.0064719
0.0105673
0.023021
0.130513
0.141758
0.152999
0.0924376
0.00396834
0.0136683
0.0613713
0.171611
0.0811512
0.127605
0.016202
0.00154778
0.0352479
0.00408858
0.111174
0.115706
0.00728735
0.0029811
0.019711
0.0155621
0.0726926
0.0625461
0.0114765
0.0684863
0.135777
0.108385
0.130691
0.184149
0.0156827
0.0016569
0.129957
0.060989
0.0641443
0.142316
0.0372299
0.087014
0.00686038
0.00985838
0.00705915
0.144317
0.16961
0.131178
0.00443326
0.00403512
0.0469692
0.00192228
0.155743
0.134966
0.169875
0.118443
0.00349537
0.0478486
0.0821097
0.156815
0.0392293
0.122787
0.00203166
0.0486769
0.00165854
0.155979
0.0660967
0.00126345
0.00122065
0.00491983
0.121423
0.00255173
0.125265
0.162809
0.0145156
0.0184012
0.0425907
0.00276254
0.0880875
0.127623
0.00433294
0.1711
0.171411
0.0592457
0.130922
0.00203768
0.0239236
0.00904695
0.0728483
0.155966
0.142972
0.0841034
0.176818
0.109827
0.161978
0.11034
0.153063
0.00182925
0.129225
0.132443
0.0952121
0.0810161
0.00130913
0.152803
0.124788
0.00639146
0.0160044
0.134839
0.153804
0.0785894
0.00443102
0.0569882
0.00279267
0.017365
0.131893
0.104035
0.00118963
0.0936537
0.0428416
0.1482
0.166414
0.162111
0.0166233
0.0310201
0.0497557
0.103224
0.133016
0.123317
0.00662401
0.127396
0.0114805
0.076241
0.0769973
0.0110921
0.00638377
0.00228085
0.0523935
0.00989991
0.00433086
0.0929695
0.00264972
0.0516198
0.00518702
0.00700949
0.00248729
0.129874
0.0280109
0.143302
0.0657952
0.00216447
0.00227937
0.11921
0.175507
0.0116373
0.154738
0.130686
0.00129837
0.151547
0.0957669
0.00179773
0.00145249
0.117088
0.117027
0.136414
0.00108607
0.00336419
0.00618479
0.105982
0.00388611
0.0122274
0.00663834
0.0133193
0.0155656
0.0534433
0.0760122
0.0400258
0.0103924
0.000793648
0.0983343
0.0222136
0.00207932
0.00481449
0.00142162
0.0876483
0.0191163
0.140762
0.0359578
0.0593143
0.0112148
0.19131
0.00171352
0.118295
0.0073349
0.105359
0.0141847
0.0158965
0.0201374
0.00301595
0.0139445
0.0427894
0.164854
0.00815634
0.0930044
0.0573511
0.0554073
0.00115306
0.168793
0.00719045
0.148371
0.0779499
0.0017389
0.00287159
0.00142977
0.138091
0.121332
0.113104
0.00165606
0.17118
0.0649613
0.00159006
0.132148
0.0395746
0.00964529
0.137968
0.010756
0.0727068
0.128185
0.0289367
0.00183846
0.00855486
0.0417137
0.100964
0.151105
0.00203649
0.00709629
0.128008
0.0260642
0.144073
0.118298
0.157715
0.139958
0.0133503
0.125984
0.0902702
0.121908
0.105966
0.0593712
0.00129784
0.00297744
0.0276494
0.00782557
0.0985096
0.0249584
0.10855
0.144982
0.0878715
0.0947843
0.00128607
0.0896682
0.0113935
0.0860511
0.044922
0.156665
0.0012165
0.12667
0.0248554
0.0268009
0.00411916
0.0214019
0.0213898
0.00122192
0.0250305
0.0480429
0.0140637
0.0766687
0.0013136
0.017358
0.178317
0.0853651
0.0172828
0.0129669
0.0090649
0.143246
0.00956222
0.131412
0.126169
0.00564064
0.163412
0.00645804
0.0350696
0.14038
0.0712359
0.130588
0.124405
0.135955
0.0646546
0.0038881
0.128391
0.00373651
0.00189544
0.0284416
0.00669347
0.0779243
0.176136
0.156719
0.0901154
0.12716
0.0083121
0.0484454
0.117343
0.0783045
0.174625
0.00147845
0.0132466
0.0593404
0.00329455
0.00416611
0.0891973
0.100548
0.0228838
0.126979
0.139158
0.0926394
0.101242
0.150202
0.157365
0.134877
0.0019884
0.140017
0.00469564
0.0312449
0.0375106
0.165824
0.147655
0.013012
0.050805
0.0927068
0.132102
0.103016
0.100399
0.0718011
0.014841
0.146969
0.0397145
0.00550768
0.128026
0.160862
0.0947451
0.0441373
0.080296
0.0333816
0.0124291
0.0154201
0.0503459
0.102779
0.0152128
0.108125
0.00156657
0.00394598
0.0621824
0.00568929
0.126288
0.157749
0.0957374
0.120138
0.141622
0.13752
0.146926
0.136298
0.00946766
0.134841
0.136791
0.0567948
0.0184666
0.00363745
0.0475059
0.0585158
0.159902
0.0100987
0.00675802
0.049289
0.00191215
0.00958391
0.00709789
0.141881
0.0091656
0.0920483
0.137482
0.0985286
0.00132522
0.00720904
0.127149
0.0315099
0.153147
0.109236
0.147007
0.0863103
0.0963591
0.0684714
0.131541
0.0167038
0.0516478
0.00128726
0.185471
0.032471
0.134425
0.00685889
0.0188597
0.00276327
0.00619373
0.00679225
0.0108147
0.00159826
0.123345
0.00384761
0.146307
0.0205563
0.13833
0.0524305
0.0201067
0.074665
0.00152384
0.0316736
0.0310304
0.146969
0.00580781
0.0989764
0.135311
0.0366945
0.0439842
0.167063
0.0670866
0.028555
0.111503
0.0419468
0.109275
0.0243912
0.0997003
0.109601
0.00388172
0.0357957
0.1512
0.0570628
0.00244624
0.0221925
0.0149863
0.00602765
0.112136
0.141151
0.00349905
0.0682316
0.0166724
0.0261386
0.00243114
0.11273
0.00779927
0.0456615
0.0577274
0.0733328
0.0949842
0.00123123
0.0459133
0.00150751
0.160325
0.0223934
0.00500939
0.039753
0.00251052
0.00354389
0.149453
0.025539
0.00165289
0.0245959
0.00277742
0.12875
0.0919382
0.00111001
0.0069331
0.00209044
0.14496
0.0853104
0.0981351
0.00147262
0.00503236
0.0623099
0.0913199
0.0154832
0.0115231
0.003379
0.0918243
0.116031
0.00261677
0.031917
0.106198
0.00546772
0.00619957
0.0485219
0.135421
0.0010135
0.0025961
0.15175
0.134402
0.0109532
0.147643
0.164026
0.108136
0.102617
0.0912336
0.0104809
0.0401035
0.00367106
0.0529359
0.00126323
0.0988897
0.00990546
0.00528775
0.00762714
0.10915
0.113042
0.0103305
0.126947
0.112501
0.155218
0.0878402
0.103404
0.00372226
0.133348
0.121711
0.00158944
0.0197334
0.0131827
0.0509242
0.134408
0.144216
0.0208961
0.0029403
0.00301747
0.122461
0.0110505
0.139832
0.0864483
0.144971
0.00167814
0.0184453
0.0333571
0.0066017
0.00896036
0.0663754
0.00317671
0.00278672
0.110381
0.141033
0.155595
0.0207841
0.0111355
0.154049
0.00554284
0.113165
0.160285
0.0122508
0.00160006
0.068395
0.0053299
0.0511704
0.00182198
0.0903275
0.0788378
0.0889565
0.0504933
0.152034
0.132892
0.0498701
0.00226062
0.0021353
0.0344954
0.00266233
0.0432321
0.00185846
0.00225276
0.0206589
0.113984
0.111684
0.134539
0.113006
0.00388588
0.152839
0.0401002
0.0633318
0.00629775
0.00240749
0.00311277
0.0886743
0.00321372
0.0526602
0.0504922
0.11967
0.127338
0.00180268
0.0397186
0.00144233
0.0286281
0.0912153
0.00617006
0.144736
0.0363661
0.0831225
0.00451641
0.100726
0.0450332
0.0883483
0.118899
0.00433582
0.0470038
0.0245133
0.118865
0.02252
0.0120722
0.00120289
0.113952
0.0114829
0.115561
0.0612948
0.150038
0.0063699
0.0216456
0.0174705
0.0354553
0.134928
0.110001
0.109213
0.161193
0.13446
0.125011
0.127865
0.00205217
0.0351556
0.0764156
0.103345
0.160006
0.00890135
0.00331243
0.00681112
0.0189903
0.0898303
0.135201
0.155693
0.120208
0.00555057
0.00165806
0.164457
0.0462356
0.0314896
0.00317055
0.0617098
0.042564
0.00130933
0.0397314
0.14231
0.00323134
0.00231156
0.0889362
0.146973
0.0951404
0.00155438
0.00533757
0.0243685
0.00610311
0.00349849
0.0405442
0.00232337
0.0144337
0.0928502
0.00660568
0.00707142
0.143785
0.00190401
0.0774916
0.113176
0.147629
0.00552875
0.111938
0.00478817
0.0542959
0.0460364
0.0169429
0.119729
0.00370081
0.00227239
0.145326
0.0517328
0.0048692
0.0124687
0.00152522
0.0202224
0.154544
0.111338
0.0962305
0.143079
0.0840949
0.0434714
0.0983442
0.0101989
0.0184915
0.0209706
0.120507
0.141985
0.132307
0.0260037
0.0253409
0.0945745
0.0111781
0.0187569
0.0300879
0.0124091
0.0143914
0.0620641
0.00232062
0.112582
0.129094
0.00451219
0.00337155
0.00103986
0.0893454
0.164169
0.00152435
0.145602
0.125939
0.0253665
0.141959
0.0150706
0.0114745
0.14837
0.00135766
0.00368621
0.0505524
0.00716439
0.00123236
0.126404
0.0404374
0.00474141
0.00164279
0.0366649
0.00814249
0.140307
0.156936
0.140209
0.0442422
0.00219327
0.00367295
0.00151396
0.00343591
0.0374853
0.037693
0.0292011
0.128197
0.151956
0.129777
0.00375725
0.119754
0.0029328
0.0388017
0.0618759
0.0106533
0.00380781
0.000806834
0.00296314
0.0151859
0.100362
0.125925
0.0030911
0.00346519
0.0338267
0.141271
0.150115
0.0169038
0.0333606
0.00536478
0.0125771
0.0398659
0.149204
0.00554198
0.134476
0.00123718
0.0543009
0.126956
0.00948499
0.0944127
0.00153951
0.159782
0.0017493
0.14467
0.0418752
0.065455
0.138609
0.0630844
0.0171235
0.014682
0.00193593
0.00235724
0.0311517
0.0245925
0.0830942
0.00326652
0.00198973
0.127349
0.149834
0.140735
0.166077
0.00142383
0.178665
0.0533554
0.0194713
0.0468272
0.049377
0.0725144
0.0780329
0.00867491
0.00214587
0.108969
0.0692021
0.00486519
0.055076
0.0209228
0.0404466
0.00181304
0.0258044
0.0158506
0.112896
0.148654
0.146432
0.00200343
0.00217188
0.0129065
0.152588
0.110492
0.12846
0.000935467
0.142571
0.00231454
0.00212322
0.0409949
0.0142845
0.0789616
0.0393408
0.0704669
0.0765195
0.00130805
0.0436092
0.00880473
0.154653
0.0843005
0.144267
0.0771197
0.00478075
0.00381826
0.0303672
0.00239375
0.0051808
0.164753
0.100882
0.143095
0.104136
0.00188313
0.00383666
0.0446124
0.141597
0.0723094
0.0174034
0.0178032
0.000957991
0.0330698
0.00219956
0.0147702
0.062052
0.106283
0.145645
0.0101189
0.124561
0.142825
0.00153259
0.0196254
0.00557767
0.103921
0.0317278
0.133759
0.00154691
0.00358059
0.111822
0.0874993
0.0361596
0.0877987
0.129762
0.108244
0.134314
0.00109081
0.0312332
0.000982016
0.0371026
0.00619315
0.0165895
0.00166741
0.119082
0.0259314
0.00162508
0.0404013
0.0373892
0.00129377
0.139611
0.114017
0.0292352
0.0028406
0.00134796
0.0360716
0.0900704
0.122345
0.146448
0.0458751
0.192314
0.00328471
0.1451
0.038521
0.0756924
0.142293
0.0197856
0.00800058
0.0863355
0.00608303
0.100752
0.150732
0.0200647
0.00155563
0.0215246
0.0208056
0.00440471
0.00591089
0.127777
0.096765
0.0343026
0.00255548
0.00227787
0.108791
0.00122736
0.048489
0.111036
0.0819051
0.00368665
0.0146448
0.115869
0.00075938
0.0684375
0.047247
0.119199
0.00199288
0.117373
0.00522414
0.06726
0.0369499
0.0562521
0.112954
0.00785006
0.00067899
0.139217
0.0309928
0.0108814
0.152666
0.0799558
0.0938142
0.0153615
0.0115231
0.0112102
0.0460381
0.00276933
0.0331261
0.0118491
0.0423701
0.015597
0.111256
0.00136591
0.00150398
0.026174
0.114487
0.00907482
0.00249057
0.0660951
0.0260057
0.127519
0.0350305
0.00114875
0.0377631
0.00212347
0.068241
0.011171
0.0695033
0.00126829
0.140928
0.142046
0.105903
0.0241453
0.00333059
0.00362001
0.0086634
0.0303803
0.14361
0.0401924
0.066779
0.12621
0.00516561
0.135175
0.0149779
0.0922751
0.0437144
0.144177
0.150824
0.139774
0.0668204
0.0512125
0.025442
0.00150816
0.0987662
0.0426389
0.0243286
0.143186
0.0924413
0.0549149
0.0557211
0.0206492
0.131897
0.113465
0.00667852
0.162556
0.0608224
0.0923705
0.0585666
0.141275
0.00268626
0.0703035
0.116256
0.00503746
0.0311636
0.0377069
0.00237839
0.00737739
0.0793972
0.0289041
0.0528887
0.051625
0.076128
0.148234
0.0312485
0.00138498
0.00176103
0.00300875
0.053164
0.00189328
0.0698907
0.0522537
0.156877
0.00285487
0.112524
0.0350493
0.122517
0.00265953
0.00283736
0.107397
0.162518
0.0384859
0.113264
0.0924771
0.00682945
0.0890972
0.113921
0.00139377
0.00231985
0.14044
0.0326708
0.0413302
0.00360152
0.150726
0.00256703
0.00170983
0.109418
0.0554977
0.00394196
0.0148313
0.0973299
0.104094
0.113432
0.041854
0.145157
0.121517
0.00241442
0.00153039
0.00210822
0.137306
0.00268197
0.0760044
0.00689584
0.145525
0.0531425
0.0411281
0.139672
0.00330002
0.0437324
0.0112638
0.00565254
0.002467
0.0219762
0.0110271
0.00267499
0.00246536
0.122387
0.000966169
0.137719
0.119411
0.106167
0.114808
0.13874
0.00192576
0.0674998
0.139911
0.0444491
0.00163143
0.00217849
0.0328946
0.147375
0.0286656
0.0218018
0.00306078
0.115352
0.125856
0.160298
0.0138766
0.0981127
0.140032
0.00158177
0.0157832
0.0174945
0.109726
0.128018
0.0628054
0.00200184
0.131461
0.00158025
0.0169804
0.0795899
0.00188243
0.00247098
0.150908
0.00867357
0.0410457
0.0019923
0.133394
0.0433503
0.139353
0.0623887
0.0292817
0.00394294
0.150235
0.114049
0.111605
0.00719732
0.0201485
0.00182453
0.00176162
0.0734249
0.00140994
0.0482654
0.0169987
0.00401996
0.0013448
0.0443582
0.00160923
0.0145901
0.0726941
0.141406
0.00413946
0.0206975
0.041955
0.00604013
0.146399
0.00227938
0.137214
0.0145913
0.137167
0.0605318
0.00145674
0.0170192
0.006951
0.0451019
0.0392217
0.0456585
0.00512876
0.0199329
0.0021403
0.0770073
0.00203664
0.0818464
0.0056381
0.00934384
0.00365465
0.109942
0.12604
0.0973332
0.00228421
0.112356
0.131335
0.137156
0.0602159
0.146882
0.113017
0.00349232
0.00317261
0.0023153
0.00234047
0.12329
0.00406342
0.00249326
0.00566088
0.00164828
0.00157303
0.0458937
0.00218331
0.0362463
0.0217602
0.00262461
0.005988
0.159962
0.00267686
0.0866511
0.0854035
0.0129687
0.00169601
0.00237667
0.000958718
0.0393185
0.0608243
0.141584
0.00266187
0.00247339
0.115335
0.0116929
0.114753
0.0895309
0.0774528
0.00347705
0.00353338
0.0540446
0.106592
0.0445726
0.0667542
0.0980284
0.0565272
0.12321
0.0440654
0.0264045
0.00555881
0.08938
0.00615782
0.0742848
0.0500989
0.0016886
0.00252486
0.0500534
0.0414357
0.125104
0.0194411
0.0664819
0.149123
0.0208423
0.121901
0.0798195
0.0415855
0.114657
0.0508485
0.00868625
0.0215233
0.00152658
0.0886416
0.177477
0.00252469
0.106586
0.0329335
0.114668
0.101511
0.151761
0.0764882
0.133973
0.0316011
0.098103
0.00168154
0.0820297
0.0609086
0.0389694
0.148038
0.0861887
0.0299332
0.105263
0.010132
0.00175951
0.0627231
0.0534966
0.124271
0.0808378
0.10923
0.0631063
0.122135
0.0339046
0.00402983
0.106068
0.00874649
0.00143335
0.136418
0.106291
0.136674
0.0337766
0.0102688
0.102613
0.014583
0.00362503
0.0613003
0.132714
0.00123048
0.159325
0.113248
0.146353
0.175872
0.0957669
0.134601
0.0779825
0.0041789
0.0521821
0.0226107
0.019159
0.0671661
0.0665634
0.0205122
0.00156108
0.0017763
0.00850567
0.00980137
0.00332752
0.00634637
0.134637
0.0554586
0.141979
0.0201741
0.113719
0.0391314
0.0106709
0.132189
0.019532
0.021739
0.129729
0.118407
0.0807386
0.114938
0.144238
0.139451
0.00458153
0.00412697
0.0603383
0.0815279
0.146443
0.0112006
0.00559576
0.00162878
0.0140415
0.0033587
0.119373
0.00242292
0.00132223
0.076012
0.0693453
0.0808743
0.136846
0.0655599
0.093973
0.100421
0.0413054
0.00165537
0.00922296
0.00150818
0.116475
0.0107379
0.00416003
0.114934
0.125796
0.12226
0.148057
0.0575899
0.104847
0.0103972
0.0833697
0.00252242
0.033231
0.00243446
0.00836674
0.00221502
0.00109067
0.0864287
0.13147
0.128222
0.0787622
0.14896
0.11411
0.0016586
0.0031644
0.0868018
0.0730515
0.0871803
0.0218438
0.0106397
0.137058
0.0692673
0.00427138
0.126598
0.0973144
0.0239719
0.0122331
0.0607754
0.00378258
0.00559412
0.0377457
0.00272283
0.00708254
0.00130113
0.149587
0.0447857
0.128745
0.0333834
0.00353264
0.132416
0.0014275
0.126638
0.171367
0.108817
0.00192833
0.0144211
0.00807449
0.105605
0.147746
0.0308937
0.00192751
0.0264311
0.120458
0.0963497
0.0839939
0.0474056
0.119354
0.124699
0.00195637
0.00238388
0.00198958
0.0223135
0.00609204
0.00223484
0.00831537
0.00216584
0.0117073
0.154627
0.134334
0.164585
0.0687203
0.00260879
0.00267501
0.14311
0.00150215
0.00177874
0.0214384
0.106421
0.13102
0.00662448
0.00385099
0.00162971
0.0249201
0.00162193
0.159193
0.0060267
0.00985907
0.139658
0.00246553
0.115461
0.00632842
0.00197543
0.0380287
0.00554439
0.0747469
0.137577
0.00209322
0.00160908
0.00771226
0.0276218
0.00126057
0.00521359
0.00169253
0.00186299
0.00170089
0.00654325
0.0066076
0.073923
0.0940583
0.0144808
0.00143425
0.138762
0.00133483
0.159893
0.0131327
0.0307764
0.130813
0.00301549
0.110761
0.00572641
0.001522
0.114107
0.0120783
0.00973992
0.00174673
0.00659832
0.0104828
0.111701
0.0769865
0.00259606
0.127731
0.136615
0.0167151
0.038408
0.00149673
0.0339812
0.133757
0.0388767
0.136791
0.0105927
0.0532763
0.00639377
0.142095
0.146183
0.00150535
0.00939636
0.11008
0.00189094
0.00434491
0.137431
0.0462732
0.0534427
0.00185449
0.116037
0.143503
0.00564156
0.0528419
0.00240571
0.00169617
0.0108894
0.045244
0.070131
0.0966594
0.0146403
0.0303805
0.0936145
0.00338405
0.0134226
0.126341
0.0871876
0.0110831
0.0551627
0.00139525
0.00500429
0.132469
0.00226708
0.00889758
0.0184277
0.116402
0.0023816
0.00110485
0.00382594
0.107174
0.150469
0.0119417
0.0353586
0.130411
0.090445
0.115313
0.120578
0.0283575
0.125465
0.131297
0.01511
0.00623292
0.00125259
0.0409841
0.00379129
0.00158191
0.105962
0.0035449
0.00346546
0.00136548
0.156608
0.0112255
0.00116856
0.00233247
0.00631806
0.00698476
0.0809108
0.00233067
0.0114518
0.00454137
0.143417
0.0161342
0.01269
0.113346
0.00991988
0.00336609
0.113838
0.00240806
0.00328195
0.114741
0.129756
0.0807169
0.112475
0.0580131
0.145359
0.129058
0.00277219
0.00388394
0.0510464
0.00832018
0.198513
0.0204112
0.00138497
0.00151703
0.00146455
0.0268571
0.00165008
0.0773592
0.13657
0.0333769
0.00154978
0.00355854
0.00655695
0.00387874
0.04588
0.126113
0.113809
0.0541635
0.0345161
0.00265791
0.00316529
0.0304939
0.00270794
0.00136052
0.114566
0.00352823
0.0861714
0.0224755
0.0638903
0.0963521
0.150646
0.0286817
0.0326764
0.00388638
0.00152935
0.140183
0.0138126
0.0267139
0.0193658
0.00382769
0.0143276
0.00245507
0.100771
0.00759468
0.00207918
0.00686584
0.00575854
0.116621
0.00648625
0.00232777
0.00203493
0.146663
0.00650514
0.14696
0.0682804
0.0955371
0.0164776
0.00242758
0.00118525
0.115824
0.00237803
0.0167833
0.151358
0.143873
0.0744486
0.156953
0.0187471
0.00225017
0.00183729
0.00741306
0.0983162
0.0800427
0.0181301
0.143173
0.00168365
0.0389281
0.100414
0.0144092
0.00767427
0.0206898
0.00129572
0.0100963
0.00129375
0.0410716
0.0039808
0.004241
0.00274632
0.141649
0.0792667
0.0191949
0.0781713
0.00395844
0.00120772
0.017571
0.00768504
0.00486662
0.00651813
0.0182814
0.0218388
0.0482464
0.134302
0.00565154
0.0264918
0.033313
0.0198033
0.0219652
0.0291723
0.00196111
0.00480962
0.0600295
0.040853
0.018857
0.0393919
0.108441
0.0140333
0.0113672
0.135077
0.00192423
0.0868485
0.00144793
0.104906
0.0676661
0.0520534
0.00147019
0.0347257
0.0015149
0.00338017
0.0186982
0.0628176
0.00605532
0.0152774
0.0057128
0.0478814
0.175744
0.0120652
0.137164
0.00143947
0.14008
0.140361
0.124219
0.0360061
0.0310306
0.0425527
0.0118317
0.0135278
0.0650545
0.0412919
0.00385996
0.00281765
0.0297894
0.016264
0.137454
0.0110051
0.020084
0.00899329
0.0731613
0.012035
0.0217149
0.14793
0.146184
0.0737882
0.0424929
0.102482
0.00141415
0.142095
0.00804362
0.0409528
0.00267606
0.00385183
0.0284438
0.0136221
0.0099746
0.00396652
0.0021796
0.0474689
0.0378777
0.013113
0.0183314
0.0889645
0.004293
0.00122848
0.14037
0.133299
0.00380004
0.016379
0.0205565
0.106599
0.018435
0.115742
0.0363152
0.0105889
0.0323427
0.029023
0.126719
0.142964
0.0200714
0.00152067
0.0913608
0.0203891
0.00441999
0.150987
0.130421
0.00144803
0.0106742
0.00767473
0.109833
0.0352726
0.0219324
0.167577
0.113578
0.00826385
0.0218237
0.00143076
0.00630937
0.02606
0.0023928
0.0144243
0.0077765
0.126685
0.1261
0.0189066
0.0286226
0.0193819
0.0161986
0.0911596
0.017665
0.0384714
0.0936701
0.150314
0.0382824
0.0940617
0.0375716
0.00800547
0.0107071
0.134583
0.00772393
0.020526
0.00374633
0.0154644
0.00134188
0.0131378
0.00155725
0.144179
0.00860811
0.0264411
0.121802
0.130296
0.0162116
0.0252557
0.0714396
0.130899
0.00966344
0.00133051
0.0317847
0.115867
0.0661864
0.00462454
0.0150215
0.0253796
0.147005
0.129185
0.0375979
0.0397515
0.0842735
0.0214657
0.00168118
0.0142485
0.00174452
0.144009
0.0378603
0.108931
0.0395633
0.0798425
0.121359
0.0143447
0.0374723
0.112716
0.00188868
0.0321685
0.00135674
0.127954
0.0268114
0.0208744
0.00860867
0.0222566
0.00766833
0.0278999
0.0115772
0.0207806
0.125068
0.00271343
0.00377882
0.0637009
0.136731
0.0253408
0.108213
0.11047
0.00888853
0.137927
0.00182605
0.00472535
0.00521934
0.0717677
0.138913
0.0373008
0.00942032
0.0159536
0.037561
0.0373875
0.127728
0.0391528
0.10362
0.064742
0.00141646
0.062757
0.079666
0.00405318
0.0209316
0.039929
0.0736212
0.0362559
0.13868
0.0399722
0.00179402
0.131595
0.0247615
0.00245726
0.00673487
0.0125052
0.0286022
0.0301603
0.00191988
0.00637395
0.0373294
0.0206997
0.0477001
0.0521326
0.0268846
0.0794735
0.122585
0.00197278
0.120841
0.04342
0.132399
0.0682452
0.0236821
0.132658
0.141709
0.0164996
0.103009
0.0509495
0.0186378
0.0262956
0.014095
0.0318855
0.128851
0.0290389
0.010684
0.0351717
0.018923
0.0228468
0.0191746
0.0271699
0.00169366
0.106871
0.00395914
0.0108988
0.00435014
0.0218322
0.0137978
0.00910805
0.041595
0.0119898
0.0113948
0.0331889
0.0327586
0.109019
0.110806
0.154615
0.0434816
0.00137929
0.1463
0.00749026
0.0728846
0.0318143
0.0476558
0.00697041
0.0344408
0.02154
0.0745944
0.0466222
0.0428353
0.135948
0.039394
0.035237
0.139685
0.0410648
0.048225
0.128957
0.0207579
0.0312529
0.00327268
0.0433017
0.00421303
0.0116736
0.0299681
0.105869
0.0174835
0.132251
0.0258736
0.0197671
0.00368395
0.0417914
0.0294907
0.0217519
0.138104
0.0159426
0.0405674
0.00279196
0.129036
0.057371
0.00493242
0.0376229
0.0389126
0.149658
0.114452
0.14612
0.0202055
0.00342107
0.0331363
0.0570598
0.0429242
0.0192434
0.116164
0.0546082
0.0443785
0.0372534
0.0484679
0.16365
0.00515795
0.14205
0.00278812
0.159017
0.00323724
0.139265
0.142514
0.00700952
0.0548759
0.0394109
0.0112383
0.0400358
0.0221137
0.127563
0.132517
0.0759075
0.0444592
0.00148828
0.115975
0.036601
0.0520379
0.049616
0.0761354
0.0584395
0.0098921
0.0212841
0.0424536
0.031068
0.039626
0.152965
0.0620689
0.014435
0.0810489
0.0638302
0.0074749
0.128434
0.0341391
0.0138437
0.0388548
0.00257529
0.149807
0.0400863
0.168806
0.0207511
0.0230295
0.0683572
0.00277234
0.144679
0.0686327
0.0391968
0.143145
0.00322002
0.151835
0.0813159
0.0169423
0.0154927
0.0376857
0.147833
0.0285731
0.0214782
0.0016263
0.0727829
0.0295728
0.145248
0.138982
0.0395274
0.00778574
0.00247367
0.0753879
0.123599
0.132333
0.0822618
0.0363862
0.00364274
0.00267514
0.0814841
0.138856
0.12124
0.0377629
0.00469139
0.00271407
0.0567996
0.00653196
0.153005
0.0960158
0.0160188
0.108217
0.0815661
0.0208802
0.0061956
0.00559125
0.0371044
0.0455519
0.00515754
0.016617
0.0461077
0.0296513
0.0058146
0.0797199
0.0656655
0.0346335
0.11783
0.0813664
0.132897
0.150498
0.0226538
0.0340838
0.0481035
0.0129227
0.0128827
0.0824726
0.0368973
0.149996
0.0959067
0.0450363
0.0362494
0.016124
0.0332791
0.00329732
0.0508903
0.0470266
0.0534085
0.0044777
0.00192343
0.0271305
0.150296
0.0104118
0.0404333
0.0973877
0.105153
0.0417537
0.129846
0.129731
0.05636
0.0529187
0.00652683
0.0526951
0.0942598
0.0450029
0.00263582
0.0014354
0.119683
0.0608046
0.0384338
0.0371867
0.00334928
0.0546909
0.00424718
0.011323
0.100453
0.0529492
0.00132092
0.0759189
0.0628903
0.0339755
0.0433353
0.0800227
0.0623098
0.0786314
0.00988761
0.120793
0.0205142
0.0474193
0.0390264
0.0782623
0.105878
0.0968263
0.0584637
0.0632602
0.118814
0.149626
0.07937
0.0636563
0.0647675
0.0325838
0.0907597
0.095723
0.0814864
0.0638876
0.0294557
0.114818
0.137783
0.00167976
0.0450236
0.00257819
0.0140405
0.132506
0.0564809
0.0159339
0.149702
0.0963418
0.153677
0.0492709
0.0598752
0.0124068
0.0585703
0.109708
0.00641961
0.00363984
0.0175168
0.146884
0.00248189
0.0597995
0.131423
0.0153125
0.150709
0.0801153
0.0028388
0.12881
0.0109381
0.0871491
0.00679799
0.00645745
0.036188
0.100734
0.129671
0.00864729
0.0514482
0.0500771
0.0436629
0.00418466
0.120312
0.00755373
0.0620402
0.00125463
0.0820765
0.10713
0.113375
0.0600307
0.0524075
0.0503974
0.00412893
0.0748392
0.132845