/*--------------------------------*- C++ -*----------------------------------*\
| =========                 |                                                 |
| \\      /  F ield         | OpenFOAM: The Open Source CFD Toolbox           |
|  \\    /   O peration     | Version:  v2012                                 |
|   \\  /    A nd           | Website:  www.openfoam.com                      |
|    \\/     M anipulation  |                                                 |
\*---------------------------------------------------------------------------*/
FoamFile
{
    version     2.0;
    format      ascii;
    class       volVectorField;
    location    "600";
    object      U_0;
}
// * * * * * * * * * * * * * * * * * * * * * * * * * * * * * * * * * * * * * //

dimensions      [0 1 -1 0 0 0 0];


internalField   nonuniform List<vector> 
13917
(
(0.464538 0.0406066 2.83603e-21)
(0.988485 0.0409352 1.18091e-21)
(1.02663 0.170235 2.15805e-20)
(1.03648 0.0353575 0)
(0.984626 0.0210207 0)
(0.988575 0.0403379 -3.79783e-21)
(1.04927 0.0693817 -1.78321e-20)
(0.981251 0.0432084 -2.30009e-23)
(1.0776 0.0581675 -2.29316e-20)
(0.0154967 -0.0580312 -4.8425e-20)
(0.982261 0.0435969 9.14259e-22)
(1.02169 0.0277279 7.85382e-21)
(1.00987 0.00034258 -1.07204e-20)
(0.953176 0.04411 -5.42303e-22)
(0.990928 0.0343787 -2.12743e-21)
(0.442027 0.0335546 5.93845e-24)
(1.00053 -0.000717747 0)
(0.983282 0.04557 5.24214e-22)
(1.0295 0.148608 7.10025e-21)
(0.488691 0.0527431 -1.2701e-20)
(0.997788 0.0558869 -1.06868e-20)
(0.994052 0.0177127 -1.68133e-21)
(1.04479 0.109218 -1.73171e-20)
(0.993703 0.0173208 1.32569e-21)
(1.02597 0.0464466 -8.41906e-21)
(0.994775 0.0541592 -2.87331e-21)
(0.967288 0.0782265 0)
(0.00596193 -0.0405211 4.07549e-20)
(0.987688 0.0500644 0)
(1.05165 -0.00473424 -1.43319e-24)
(0.0249131 -0.0476479 2.62761e-21)
(1.06273 0.138398 0)
(1.02742 0.0367647 0)
(0.507485 0.0696131 -9.32116e-21)
(0.984519 -0.000614895 0)
(0.980868 0.0417865 0)
(1.00597 0.0414419 1.53345e-20)
(0.992606 0.000199111 3.96244e-21)
(1.05103 0.0702392 5.07618e-21)
(1.00218 0.0700477 0)
(1.00981 -0.000491617 -9.66012e-23)
(0.990561 -0.021621 0)
(1.07155 0.0468495 0)
(1.04057 0.154884 0)
(1.03957 0.153047 -1.59066e-20)
(0.982977 0.129704 -3.40302e-21)
(0.999141 0.0554495 0)
(0.382708 0.0715524 0)
(1.00266 0.0315926 0)
(0.984604 -7.0375e-05 0)
(1.02112 0.0269471 0)
(1.00031 0.126236 0)
(0.282498 0.0208066 2.48499e-20)
(1.00795 0.0245627 0)
(1.00974 0.0263889 2.85335e-22)
(1.00211 0.127407 0)
(-0.0206018 -0.016154 2.84177e-21)
(1.04328 0.107829 2.25898e-20)
(0.991758 -0.0218251 0)
(0.981111 0.128089 3.08376e-22)
(0.588872 0.122486 0)
(0.973478 0.000755502 2.66514e-23)
(1.0281 4.73479e-06 -1.09786e-23)
(1.02628 0.04535 7.4406e-21)
(0.917989 0.152858 3.16567e-20)
(1.06404 -0.0269626 2.48293e-22)
(0.986097 0.0486998 1.06662e-21)
(0.981575 0.0410962 -3.2711e-22)
(0.982114 0.0452409 3.51821e-22)
(0.383459 0.0359192 -2.4538e-20)
(1.01107 0.167903 5.58693e-21)
(0.485649 0.0623229 0)
(1.03836 0.0199659 0)
(0.992393 -0.0208653 -2.42885e-22)
(0.997465 0.0572688 1.09148e-20)
(1.01802 0.0469008 0)
(0.987502 0.021156 1.3216e-21)
(0.993549 -0.0209425 1.59995e-22)
(1.01855 0.0459522 -1.03739e-20)
(1.02748 0.0375951 0)
(1.00003 0.0265835 -1.44242e-21)
(0.997307 -0.000641537 5.36838e-23)
(1.03805 0.0189619 0)
(0.999355 0.176199 2.66949e-20)
(1.00748 0.0046449 0)
(0.974148 0.0519577 -1.88567e-22)
(1.0632 0.136181 3.20518e-20)
(1.0069 0.00228238 7.90754e-21)
(1.00213 0.0685002 6.29541e-21)
(1.00182 -0.000952093 0)
(1.00702 -0.00234904 -1.31344e-22)
(1.07356 0.0479077 -1.91692e-20)
(1.00298 0.0364622 -1.04778e-21)
(0.986556 -0.00358783 0)
(1.00608 0.0304608 1.13411e-20)
(0.986438 0.0500173 2.37623e-21)
(0.967159 0.0702777 -2.38445e-21)
(0.99181 -0.000255441 0)
(1.00759 0.00258757 0)
(0.976394 0.0742124 7.60718e-22)
(1.0202 -0.000220808 3.61743e-23)
(1.02266 -0.00049424 -4.65366e-23)
(1.00026 0.0273766 3.52702e-21)
(0.992209 -0.000298555 -1.39191e-21)
(0.987437 0.0206437 0)
(0.940496 0.201857 6.68787e-21)
(0.59329 0.088228 -5.95461e-23)
(0.972342 -0.000163223 9.60912e-24)
(0.989828 -0.022533 1.62969e-22)
(0.963006 0.0770511 -7.63271e-21)
(1.02277 0.00123516 -1.22317e-20)
(0.527477 0.0749829 6.56428e-23)
(0.98813 0.0513729 -3.29037e-21)
(0.237641 0.0472338 -1.68319e-20)
(0.930871 0.155016 -2.61333e-20)
(1.01471 0.0478226 1.08443e-20)
(1.03107 0.147361 1.95522e-20)
(1.01574 -0.00190796 4.76371e-23)
(1.02845 0.164817 0)
(1.03847 0.0130529 -1.8625e-20)
(0.997543 -0.000841199 0)
(0.993681 -0.0181489 3.52615e-23)
(0.984919 0.0485453 8.88331e-22)
(1.0203 0.133044 -9.32115e-21)
(0.300498 0.0325198 -3.71141e-22)
(0.971279 0.173795 -4.59377e-21)
(1.02785 0.0441235 0)
(0.99623 0.0577035 -3.38893e-21)
(0.988645 0.00550475 2.78532e-21)
(1.02122 0.134673 0)
(1.07383 0.0901925 2.14273e-20)
(0.974684 0.102982 0)
(0.603074 0.135308 9.78663e-21)
(1.0138 0.0473572 0)
(1.05633 0.14585 4.29312e-22)
(0.957238 0.0743115 7.00828e-21)
(0.587179 0.113714 2.6446e-21)
(0.203028 0.029496 2.02036e-21)
(0.992832 0.0534233 0)
(0.994683 0.000157888 -7.346e-21)
(0.846796 -0.0074314 -1.58344e-22)
(0.993947 -0.0199683 0)
(0.954732 0.204879 0)
(0.997793 0.0122804 0)
(1.03479 0.0187023 0)
(0.985765 -0.0285935 0)
(1.01041 0.169204 1.63461e-20)
(0.795798 0.0320477 -1.09894e-21)
(0.419614 0.0725244 -2.21799e-20)
(1.00831 0.0254484 0)
(1.00373 0.0662378 0)
(1.0253 -0.000402543 1.1006e-22)
(1.03454 0.0175522 0)
(1.03923 0.0125867 0)
(0.969288 0.0702329 2.06341e-21)
(0.988486 0.0161878 0)
(0.992552 -0.000467264 1.96239e-21)
(0.542238 0.126968 -2.60844e-20)
(1.01315 -0.000755694 0)
(1.01485 -0.00163448 0)
(1.00381 0.00936645 -4.33419e-21)
(0.852503 0.14539 0)
(0.99908 0.0412847 2.08853e-21)
(0.809477 -0.00459309 -1.90939e-21)
(0.670025 0.126744 0)
(0.972797 0.0741547 1.08858e-22)
(0.193013 0.0150688 -7.28653e-21)
(0.515527 0.113475 -1.63228e-20)
(1.0373 -0.000860921 -6.44124e-24)
(0.991611 0.0536662 6.64743e-21)
(0.992707 0.0174623 0)
(0.649282 0.131993 -8.04709e-21)
(1.07886 0.0565887 -4.5575e-22)
(0.688921 0.126994 -2.5499e-21)
(1.00508 0.105873 1.45641e-20)
(1.02036 -0.000655737 1.32765e-22)
(1.03773 0.0350577 0)
(0.996548 0.126842 9.66471e-21)
(1.07431 0.0880146 0)
(0.998272 0.04172 -2.23499e-21)
(1.0679 0.0473835 1.68077e-20)
(0.993052 0.017208 -2.85022e-21)
(1.02017 0.0270716 0)
(1.00059 0.14249 0)
(1.02695 0.1642 0)
(0.973427 0.101186 0)
(1.01962 0.0263499 -8.98037e-21)
(0.998818 0.141669 7.10675e-21)
(1.05138 -0.00518415 -1.94895e-24)
(0.976277 0.0519308 3.98451e-24)
(1.00349 0.104757 -3.66898e-21)
(1.04147 0.1507 -1.6811e-20)
(1.00682 0.139439 -9.73393e-21)
(0.479141 0.0445427 -1.21203e-20)
(0.986499 -0.00303295 0)
(0.317921 0.0345401 -7.07798e-22)
(1.02532 0.0604533 -2.08834e-22)
(0.652632 0.145675 0)
(0.984949 -0.000989407 0)
(0.989084 0.0159675 -1.14427e-21)
(1.00182 0.0545091 0)
(0.396091 0.0359481 -2.34833e-20)
(0.195398 0.0252639 -4.44994e-21)
(1.00368 0.0374255 -2.79205e-21)
(0.966686 0.0833879 -3.39321e-21)
(0.991834 0.0462177 9.17668e-22)
(1.00377 0.0677355 -1.51993e-21)
(0.993236 -0.0189687 -2.86724e-23)
(0.998566 0.127732 0)
(0.999236 0.0261926 2.70805e-21)
(0.990539 0.00293502 -1.44228e-21)
(0.984045 0.0208792 -2.58461e-22)
(0.983947 0.0206641 -2.15344e-22)
(0.451761 0.0792405 0)
(1.05833 0.144588 -9.77914e-21)
(0.993627 0.0545537 3.09497e-21)
(0.778698 0.12983 1.33814e-20)
(0.997383 0.000801243 0)
(1.00797 -0.0150747 1.7691e-23)
(1.00864 -0.0152008 -5.57094e-23)
(0.462162 0.105138 1.87451e-20)
(1.00304 0.140601 1.58362e-20)
(0.995289 0.142825 0)
(1.02001 0.00450097 1.63392e-20)
(1.02368 -0.000261266 2.92814e-23)
(0.91632 0.0717986 0)
(0.313854 0.0308022 0)
(1.00746 -0.0127504 4.65792e-23)
(1.00761 -0.0122792 -3.98672e-23)
(1.0086 -0.000691635 0)
(1.00907 -0.0162739 5.47391e-23)
(1.00975 -0.0164312 1.06675e-22)
(0.477138 0.0576108 0)
(0.560504 0.0968819 1.91756e-20)
(0.997161 0.0214965 5.356e-21)
(1.04003 -0.00170506 2.02357e-23)
(1.01369 0.117341 -5.94519e-21)
(0.438662 0.0548063 1.05378e-20)
(1.00959 -0.000906688 0)
(1.01954 0.00417667 -2.00905e-20)
(0.966549 0.0820007 2.69029e-21)
(0.939147 0.206754 -2.54699e-21)
(1.00218 0.141655 -1.13743e-20)
(0.757788 0.125836 -7.51305e-21)
(0.995539 0.11192 -7.41532e-21)
(0.998187 0.0125316 5.05324e-21)
(0.580859 0.118967 -1.47424e-20)
(1.01391 0.119587 1.32907e-20)
(0.989266 0.0513028 5.81709e-21)
(1.03873 0.134301 -1.21581e-20)
(1.00444 0.0369026 5.59109e-21)
(0.538072 0.0912568 -2.88847e-20)
(1.03843 0.0147907 -5.65788e-21)
(1.01088 0.0832459 7.34082e-21)
(1.00829 0.103958 -7.96729e-21)
(0.996113 0.0215914 0)
(1.00527 -0.000205236 -4.42185e-23)
(1.02758 0.0452361 -2.62239e-20)
(0.983923 0.0195456 -5.62418e-22)
(0.984343 -0.00561635 7.46255e-22)
(0.339022 0.0467434 1.11871e-20)
(0.844325 0.0207154 0)
(0.991104 -0.0147512 8.20484e-23)
(1.0069 -0.0114564 2.55189e-23)
(0.98839 0.0168026 2.21926e-21)
(1.00636 -0.0113997 0)
(1.03903 0.0143035 3.51014e-20)
(1.01454 0.000633585 2.64155e-21)
(1.03188 0.0905628 7.54928e-21)
(0.990601 -0.0153776 0)
(0.191177 0.0359227 0)
(0.615011 0.0959397 0)
(1.01579 0.0212089 1.38678e-20)
(0.985413 0.019172 -1.54962e-21)
(0.974141 0.127888 3.58383e-21)
(1.02009 -0.0174236 -1.87077e-22)
(0.979843 0.0737421 0)
(0.359723 0.0556824 0)
(1.01931 -0.0174101 0)
(0.402956 0.042874 0)
(0.985003 -0.0059528 -1.45336e-21)
(0.871643 0.148823 1.5236e-20)
(1.01819 -0.000498882 0)
(0.991943 0.0324181 -2.1711e-21)
(0.995716 0.021884 -2.70819e-21)
(0.996136 0.0110879 3.14043e-21)
(1.01704 0.148976 0)
(0.991767 0.000259541 -3.31514e-21)
(0.971991 0.0740481 1.65704e-21)
(1.01761 0.0647623 -9.10537e-21)
(0.762865 0.0183491 -7.35517e-22)
(0.984087 -0.0281698 0)
(0.964269 0.0864758 0)
(0.170324 0.0269975 -1.77693e-20)
(1.01216 -0.00152707 0)
(1.03105 0.110351 -2.11717e-20)
(0.984487 0.0201725 2.34947e-21)
(1.01199 0.0479041 0)
(0.984815 0.020734 -6.22223e-22)
(1.01994 0.0462263 6.61568e-21)
(0.986068 -0.00457324 9.14363e-22)
(0.991896 0.000296404 3.06091e-21)
(0.993889 0.123439 0)
(0.968908 0.00652923 0)
(1.01167 0.0823489 -6.19516e-21)
(1.02043 0.0453497 -2.09606e-22)
(1.01862 0.00409052 -7.6398e-21)
(0.578264 0.134201 2.81777e-20)
(0.386793 0.0320539 2.17565e-20)
(0.988414 0.0038023 -1.27723e-21)
(1.06379 -0.0155524 -1.74164e-22)
(1.01295 0.0484299 0)
(0.995667 0.0211111 0)
(1.05621 0.173656 0)
(0.613555 0.0929223 1.80865e-20)
(0.727125 0.129314 -3.28358e-21)
(1.07364 -0.0233273 3.47484e-23)
(0.977103 0.102749 1.07424e-21)
(0.985424 0.0185819 0)
(1.01398 0.176466 -2.69457e-20)
(0.999796 0.0165102 -1.27022e-22)
(1.02846 0.171184 1.25816e-20)
(1.01479 0.000583887 1.34181e-20)
(0.990974 0.0336138 5.78862e-21)
(0.966917 0.0803256 0)
(0.991008 0.0174658 -4.22324e-21)
(0.987932 0.0410933 2.24097e-21)
(1.04043 0.148879 0)
(1.00333 -0.000776441 7.58789e-23)
(0.666706 0.135617 9.50978e-21)
(1.00735 0.00356081 0)
(1.09395 0.108829 0)
(1.03439 -0.0229973 0)
(0.436843 0.0437087 7.01567e-21)
(0.993152 0.00236254 4.24488e-21)
(1.01437 0.0815451 -1.52861e-20)
(0.991616 0.0470738 0)
(1.08037 -0.0190441 -8.30657e-23)
(1.00468 -0.0011501 -1.43665e-22)
(1.04219 0.136412 -2.83105e-20)
(0.990793 0.202019 -2.50372e-20)
(1.00744 0.0300624 4.54607e-21)
(0.990538 0.0170971 1.39489e-21)
(0.556054 0.0843988 -6.7444e-23)
(0.979419 0.204912 2.41828e-21)
(0.929639 0.155474 0)
(0.963902 0.0410486 0)
(1.01857 -0.0162856 -1.55159e-22)
(0.999107 0.0224894 0)
(0.92131 0.207933 4.58832e-20)
(0.97832 0.10455 -3.85657e-21)
(1.01769 -0.016417 -1.56078e-22)
(0.984444 0.0205833 -1.48346e-21)
(1.01424 0.0261183 7.10519e-21)
(0.988093 0.0620177 -2.39465e-21)
(1.01358 0.0825971 -8.52076e-21)
(1.0111 0.134711 -2.17822e-21)
(0.989835 0.101051 0)
(0.979995 0.0723991 0)
(1.08447 0.10826 0)
(0.514753 0.0628706 -1.03737e-20)
(0.988516 0.00593835 -3.76944e-21)
(1.00822 0.0303785 -9.28953e-21)
(0.984224 0.0209891 -1.60716e-21)
(1.01936 0.155786 1.7102e-20)
(1.00669 -0.000745528 -4.90004e-25)
(0.462052 0.0384077 2.64632e-20)
(1.0863 0.107122 0)
(0.910257 -0.0373659 -8.09431e-23)
(1.00935 0.0269829 -3.68195e-22)
(0.983091 0.104036 1.25328e-21)
(1.06377 -0.0163436 2.9804e-22)
(1.01201 0.0480475 0)
(0.993865 -0.0253464 1.81281e-22)
(0.997174 0.143645 4.91955e-23)
(0.976484 0.129634 -2.29274e-21)
(0.990382 0.0473987 0)
(1.01565 0.0219513 -1.57353e-20)
(1.0145 0.161902 -1.32192e-21)
(1.03886 -0.0247821 0)
(0.654765 0.126104 1.04122e-20)
(1.00541 0.140756 1.05186e-20)
(0.994667 -0.0265175 0)
(1.00972 0.0415256 1.20666e-21)
(0.99382 0.0225254 -3.56969e-21)
(0.919266 -0.0411267 0)
(0.990753 -0.00495478 6.13131e-22)
(0.508396 0.056958 -1.30653e-20)
(0.90079 -0.0379182 4.80528e-22)
(1.00958 0.0414622 0)
(0.882177 0.0707406 0)
(0.982357 0.0705896 0)
(1.00487 0.0352604 5.2294e-21)
(0.794396 0.142878 0)
(1.06411 0.209191 -3.70193e-20)
(1.01193 0.0404043 0)
(1.01543 0.148711 -7.78748e-21)
(1.00102 0.0226032 -9.83074e-21)
(0.98111 0.0691949 0)
(1.02741 0.168435 -2.0919e-20)
(1.00771 0.00312266 0)
(1.06085 0.0663415 2.36347e-20)
(1.02166 0.0455377 1.61951e-20)
(0.997078 0.011012 -3.00044e-21)
(0.996936 0.00460258 3.11511e-21)
(0.988613 0.00686259 0)
(0.501275 0.10868 1.03284e-21)
(0.973327 0.0760413 -1.11089e-22)
(1.00883 0.0287928 -5.66333e-21)
(0.987792 0.00651066 1.32038e-21)
(0.994438 0.0163246 -1.63805e-21)
(1.02383 0.104004 -1.06031e-20)
(0.984308 0.0382597 0)
(1.02729 -0.0201455 0)
(1.03696 -0.000820358 3.59645e-24)
(1.05567 0.171017 0)
(0.983077 0.101776 -1.02683e-20)
(0.99619 0.0116649 0)
(1.01015 0.0409602 2.12982e-20)
(0.87186 0.142058 4.09172e-21)
(0.964951 0.0653128 0)
(1.04918 -0.0301072 2.42837e-22)
(1.02975 0.150731 0)
(1.02909 0.179174 -1.22768e-20)
(1.01053 -0.0245305 0)
(1.02526 -0.0190609 0)
(0.99868 0.0518674 6.4517e-21)
(0.996974 0.00439232 3.29861e-23)
(1.02637 -0.0203185 0)
(0.996779 0.0218667 0)
(1.02438 -0.0192886 0)
(1.01109 -0.0239266 0)
(0.566209 0.113013 1.28025e-21)
(1.00126 0.0233631 6.91476e-21)
(1.0023 0.0734116 -5.44271e-21)
(0.211112 0.0416001 -1.61068e-20)
(1.02984 0.108401 0)
(0.990446 0.00328568 0)
(1.03338 0.0172433 0)
(0.810724 0.143784 -9.1842e-21)
(1.00069 0.0536675 0)
(0.280186 0.0273433 0)
(1.03185 -0.0221479 0)
(1.01849 0.0101783 -1.06619e-20)
(1.03893 -0.0263717 9.28656e-23)
(1.01031 -0.0175331 0)
(1.00592 0.0403488 -1.28355e-20)
(0.992712 0.0223691 0)
(0.896386 0.142804 4.14156e-21)
(0.992715 -0.0419997 2.08873e-23)
(0.922007 0.203158 -1.30979e-21)
(1.0179 0.010159 9.80157e-21)
(1.06057 0.0955558 0)
(0.987552 -0.039991 0)
(0.999143 0.0253394 3.12154e-21)
(0.997547 0.113059 2.14528e-21)
(0.923886 0.153782 -1.2917e-20)
(1.01459 0.0254826 0)
(0.818811 0.0598075 -4.20713e-22)
(0.990535 0.00399201 0)
(0.996258 0.00136942 2.27315e-21)
(0.994392 0.0156843 -1.65776e-21)
(0.99432 0.0229719 -5.29531e-22)
(0.990729 0.00225856 -2.0592e-21)
(1.00299 0.00147083 1.11083e-20)
(0.567657 0.129933 -3.14415e-20)
(0.641023 0.125079 3.12475e-21)
(0.990838 0.00196515 2.77437e-21)
(0.962927 0.088188 0)
(1.05201 0.167795 3.1911e-21)
(1.0195 0.00124961 -9.77943e-21)
(1.02662 0.111903 0)
(1.09292 0.151857 1.30486e-20)
(0.73385 0.132145 4.37693e-21)
(1.06428 0.0703865 3.3859e-21)
(0.947483 0.199326 4.53373e-21)
(0.841331 -0.0540933 -2.3572e-22)
(0.842884 -0.0577868 -6.48987e-23)
(0.993151 0.0228166 1.16626e-22)
(1.07306 -0.0239589 -3.49978e-22)
(0.984004 -0.040243 0)
(1.00419 0.0358696 -5.19025e-21)
(0.999771 0.156184 -5.69183e-22)
(1.00612 -0.00218233 -6.31631e-24)
(1.00843 0.0238625 4.594e-21)
(1.00688 0.0307979 -1.36863e-20)
(1.0678 0.0630462 0)
(1.00078 0.0589871 2.41863e-21)
(1.0268 0.16058 5.29038e-21)
(1.04891 0.120037 0)
(0.98426 -0.0225904 -4.63151e-22)
(0.984954 0.0194227 7.49381e-22)
(0.983412 0.0470539 0)
(0.996646 0.0804628 0)
(1.00832 0.0283122 3.02047e-21)
(0.895642 0.0437719 3.47457e-21)
(1.03956 0.0927529 1.44483e-20)
(1.01895 0.0652453 9.29911e-21)
(0.670631 0.130288 2.58021e-21)
(1.00777 0.0041338 0)
(0.995264 0.0811742 7.18099e-21)
(0.994336 0.128415 -1.05809e-20)
(0.994639 0.00250796 -7.23115e-21)
(0.417755 0.102385 0)
(0.996509 0.00138118 3.98114e-22)
(1.01095 -0.0176068 0)
(1.02425 0.106129 0)
(1.03073 -0.0224159 0)
(0.997138 0.00089638 0)
(0.993387 0.121015 6.53434e-21)
(0.477584 0.125261 -1.39829e-20)
(0.764536 0.0603933 -2.18401e-21)
(1.0041 0.00885038 -1.85594e-20)
(1.04658 0.0363442 0)
(0.984448 -0.0190016 0)
(0.99062 0.150472 6.54253e-21)
(0.969108 0.123166 0)
(1.00795 0.0268602 5.51513e-21)
(1.00924 0.0256176 4.11945e-21)
(1.00388 0.00791034 5.05495e-21)
(1.01209 0.103007 0)
(0.896832 0.00106161 0)
(0.98754 0.00468985 -1.2398e-21)
(1.00867 -0.00102216 3.7288e-25)
(0.989147 0.0153194 0)
(0.99746 0.0105508 0)
(0.977809 0.00638126 -6.33594e-23)
(1.03024 0.071599 8.86232e-21)
(1.00652 -0.00184202 5.76614e-23)
(1.04677 0.120114 -1.34457e-20)
(0.994702 0.00237538 -2.62182e-23)
(0.995189 0.0172484 6.40136e-21)
(1.02221 0.0448131 0)
(0.593809 0.0868138 0)
(0.99929 -0.00360756 0)
(1.05353 0.0502731 -1.62139e-20)
(0.984328 -0.0048864 -3.75113e-22)
(1.06077 0.0935414 0)
(1.0248 0.11998 1.44464e-20)
(0.985579 0.0573241 0)
(1.00725 0.105376 -1.37118e-20)
(0.975171 0.0760994 0)
(1.01975 0.0420638 1.08768e-20)
(0.984646 0.0471962 -1.56835e-23)
(0.691452 0.151708 2.47395e-21)
(0.583474 0.110868 0)
(0.232662 0.0507521 0)
(0.988349 0.00215176 1.07367e-21)
(0.993798 0.0147483 0)
(0.983377 -0.02282 6.03921e-22)
(1.01841 0.0167178 -5.97103e-21)
(0.91545 0.154672 0)
(1.02096 -0.0185319 2.02456e-22)
(0.851395 -0.028662 2.59049e-22)
(1.02671 0.0606915 9.97238e-21)
(0.826152 0.162203 -1.94052e-21)
(0.978301 0.0743674 -1.59504e-21)
(1.06976 0.048293 -3.7969e-20)
(0.0581936 -0.0208888 -4.52539e-21)
(0.990668 0.0016514 -2.58477e-21)
(1.08706 0.140359 0)
(0.992186 -0.000404166 3.1114e-22)
(0.982144 -0.0107757 1.04485e-22)
(0.783572 0.154404 2.82139e-21)
(1.0295 -0.0211822 -2.05725e-22)
(1.03778 0.18176 0)
(1.02221 -0.000217831 -1.95548e-23)
(1.01812 0.000806804 0)
(0.993836 0.0153757 3.27603e-21)
(1.02817 0.160448 0)
(0.977603 0.00588455 0)
(1.00501 -0.00898464 0)
(1.04389 0.157091 -1.98778e-20)
(1.02602 0.109805 0)
(0.879342 0.079366 -3.17799e-21)
(1.02653 0.171319 1.25443e-20)
(0.591461 0.140141 1.0449e-20)
(0.712769 0.129968 -8.66897e-21)
(0.999035 -0.00329442 0)
(0.343633 0.0326186 6.68254e-21)
(1.03163 -0.000547401 -3.56561e-23)
(0.61337 0.119189 -2.45993e-21)
(0.834116 0.014711 1.85422e-21)
(0.981392 -0.0114165 1.11211e-22)
(1.06883 -0.0175991 3.9734e-22)
(1.02254 -0.000200074 2.55983e-22)
(1.03946 0.0916325 0)
(1.06777 0.0450356 1.78203e-20)
(1.02847 -0.0214071 0)
(0.99184 -0.00032742 -9.1722e-22)
(1.01145 0.000725813 1.40992e-21)
(1.02685 0.169998 -1.13002e-20)
(1.00566 0.0106502 0)
(1.06686 0.133554 -3.8473e-20)
(1.008 0.0231273 0)
(1.00542 -0.00864864 4.70244e-23)
(1.01461 -0.000993819 0)
(0.985904 0.128816 0)
(0.983305 0.161359 8.26629e-21)
(0.228926 0.0228828 7.44408e-22)
(1.03982 0.132319 2.20086e-20)
(1.03174 0.0715637 -2.82071e-20)
(1.00265 0.155458 -2.26605e-20)
(0.440773 0.0579686 -1.10998e-20)
(0.99047 -0.00526274 -1.15743e-21)
(0.98876 0.157009 4.07266e-21)
(1.01136 0.000518253 1.64495e-20)
(1.08484 0.171003 -5.35953e-20)
(1.01772 0.0169118 6.29369e-21)
(1.01417 0.161887 0)
(0.997258 0.0100268 -1.74365e-21)
(0.977498 0.00713109 -5.38407e-22)
(1.03587 0.0191559 0)
(0.875396 0.0651877 3.39572e-21)
(1.03468 0.0922095 0)
(0.880358 0.146217 3.41786e-21)
(1.00271 -0.00160606 0)
(1.03309 0.0887333 3.56544e-20)
(0.985359 0.0022956 -9.22976e-22)
(1.01804 -0.000482852 -2.51821e-22)
(0.532699 0.068523 9.97301e-21)
(0.973133 0.0710284 -2.81872e-23)
(0.984212 0.00176656 0)
(1.00974 0.136266 2.28471e-21)
(1.01905 0.00444385 1.07978e-21)
(0.984008 -0.0121298 1.00836e-22)
(1.02161 -0.000330827 -1.78525e-22)
(0.554981 0.0768874 6.35346e-22)
(1.00615 0.0105573 0)
(0.983976 0.0200798 0)
(1.0217 -0.0184237 -2.87649e-22)
(0.984665 0.00175579 -1.04802e-21)
(1.0184 0.154708 0)
(1.02355 -0.00034019 2.99542e-23)
(1.01538 0.137989 0)
(0.995092 -0.000509936 0)
(0.993627 0.00259973 -2.02972e-21)
(0.56525 0.11911 0)
(1.06634 0.135464 5.14044e-21)
(1.00773 0.0260206 -2.06212e-21)
(0.135033 0.0138306 -4.55049e-20)
(1.04044 0.182214 0)
(0.986166 0.0395863 0)
(0.992262 0.127554 1.26128e-20)
(0.990788 0.00135889 3.81578e-21)
(0.990141 0.0346461 -2.42079e-21)
(0.570792 0.0797018 0)
(1.04788 0.198203 4.45594e-20)
(0.99987 0.0514496 -6.85653e-21)
(1.00679 0.0419009 -7.84751e-21)
(0.976742 0.00722172 0)
(0.995139 -0.000639664 -4.55974e-22)
(0.990032 0.00832576 0)
(1.06085 -0.0251675 -2.89353e-22)
(1.02118 0.121112 1.54341e-20)
(1.02161 0.0550268 0)
(0.626634 0.126217 -2.64828e-21)
(1.03551 0.093828 0)
(0.985984 0.0367024 -9.66487e-23)
(0.970171 0.126699 0)
(0.968266 0.0083631 -1.71973e-22)
(1.01956 0.0826182 -8.22536e-21)
(1.00893 0.13995 9.92452e-21)
(0.420321 0.0473497 0)
(0.986033 -0.00393924 0)
(0.973115 0.0135408 -3.37297e-22)
(1.05521 -0.0249597 0)
(0.99386 0.0027092 0)
(0.998847 -0.0011854 3.452e-22)
(1.01578 -0.000987354 -4.24732e-23)
(0.983712 -0.0192929 0)
(0.999403 0.00114473 6.86576e-21)
(0.350876 0.0337564 7.81967e-21)
(1.08709 0.0941279 0)
(0.992372 -2.70101e-05 -2.26411e-21)
(1.04211 0.146816 0)
(1.00263 -0.00176063 0)
(0.641193 0.101506 -2.52565e-20)
(0.985077 -0.00666882 3.42562e-23)
(0.988315 0.00508478 2.77044e-21)
(0.437009 0.114826 -1.3677e-20)
(1.02822 0.118591 -3.44796e-22)
(0.924086 -0.0556211 0)
(1.03698 0.0236404 1.31217e-20)
(1.04987 -0.0207486 0)
(0.987477 0.00292654 1.14751e-21)
(1.0434 0.0309952 -1.1272e-20)
(1.04894 0.0763551 0)
(0.994746 0.0103524 -6.06178e-21)
(0.246821 0.0293514 0)
(1.01545 0.0683429 -9.90589e-21)
(0.818263 -0.0407861 1.08014e-21)
(0.901356 -0.0501977 0)
(0.972987 0.0124003 4.6362e-22)
(0.589173 0.141266 0)
(1.04558 0.0370203 0)
(0.991362 -0.000232631 0)
(0.984923 0.00228276 1.97694e-21)
(0.380195 0.0612901 0)
(0.816324 0.0652885 -5.29343e-21)
(1.02446 0.0614948 -1.70635e-20)
(0.281519 0.0305912 1.27073e-20)
(0.907046 0.0222517 -6.09985e-21)
(0.993181 0.00262402 -5.08034e-21)
(0.988231 0.0042324 0)
(1.00485 0.0398643 0)
(0.966182 0.200598 4.03681e-20)
(0.853545 -0.0687229 -7.43234e-22)
(1.03272 0.0922552 -1.4381e-21)
(1.0423 0.030405 -4.75494e-21)
(1.05231 0.05095 1.71005e-20)
(1.08656 0.173515 6.85938e-20)
(0.985973 0.0183456 0)
(1.01326 0.135402 -9.54893e-21)
(1.08482 0.0954008 0)
(1.00585 0.0294725 -6.9765e-21)
(1.02675 0.037889 -6.18952e-22)
(0.991362 -0.000225389 -1.18789e-21)
(1.0479 0.0751792 -1.11172e-20)
(0.9844 0.0191983 0)
(1.06037 0.211585 -1.53578e-21)
(1.01004 0.0481364 0)
(0.982217 -0.0159007 1.97958e-23)
(0.26125 0.0290802 1.38021e-20)
(1.05877 -0.0101673 -8.05074e-23)
(0.907 0.00407203 2.00973e-21)
(1.00765 0.0412408 -1.16875e-22)
(0.990638 0.0406083 -1.3366e-21)
(1.03203 0.0619565 1.42308e-22)
(1.05 0.19699 -6.53264e-20)
(0.998445 -0.000888255 5.14154e-22)
(1.09062 0.136159 -2.77086e-21)
(1.00031 0.160589 1.28893e-20)
(0.860621 -0.0316904 8.84261e-23)
(1.01993 0.017077 5.87689e-21)
(1.01102 0.0486871 0)
(0.997971 0.000693448 -1.02413e-20)
(1.01638 0.0130929 1.67974e-20)
(1.03647 0.0172446 -1.64013e-20)
(0.983296 0.0271548 0)
(0.989457 -0.0426994 -4.28599e-22)
(0.986332 0.127465 -2.12591e-21)
(1.01378 0.137607 1.02957e-20)
(0.990792 0.000772644 1.27657e-21)
(1.05621 0.212682 2.12078e-20)
(1.07572 0.0580586 3.06847e-20)
(1.06658 0.063984 0)
(1.0104 0.138439 0)
(0.998649 0.0229815 0)
(1.08428 0.140084 -4.82923e-20)
(0.967096 0.0722831 3.03339e-21)
(1.00273 -0.00607514 0)
(1.03004 0.119161 2.59786e-20)
(0.997894 0.106119 -6.72215e-21)
(1.08238 0.0942224 2.50323e-20)
(0.990842 0.00636765 0)
(0.990855 0.00289418 -1.52781e-21)
(0.98979 0.00800607 0)
(0.377648 0.0328278 2.09442e-20)
(1.02635 0.0359022 5.36981e-21)
(0.984523 -0.00786656 7.22915e-22)
(1.09118 0.107208 0)
(0.99482 0.0109051 6.11035e-21)
(0.989955 0.00366663 2.92461e-21)
(1.00385 0.126579 0)
(0.971086 0.0723358 -7.88663e-22)
(0.980087 0.0249326 0)
(0.943949 0.065652 0)
(0.989601 0.061568 -2.64901e-21)
(0.905443 0.208494 -2.43493e-20)
(1.03747 0.0167527 -9.81632e-21)
(0.987047 0.021317 7.43873e-22)
(1.00718 0.157448 8.93422e-21)
(0.981645 -0.0122943 -6.27733e-23)
(0.970584 0.00223286 8.51327e-24)
(1.00373 -0.00106833 7.9662e-23)
(0.99798 -0.00118973 -6.73182e-22)
(1.03406 0.0243912 2.28322e-20)
(1.00806 0.048262 -4.4818e-21)
(0.984749 0.0584836 0)
(0.990692 0.0060806 0)
(1.01166 -0.0209918 2.07238e-22)
(0.988195 0.0132774 -9.61015e-22)
(0.859305 0.0147069 -2.14017e-21)
(1.00847 0.041797 0)
(1.06595 0.0693407 2.275e-20)
(1.03313 -0.0233114 0)
(1.03665 0.134251 3.53704e-21)
(0.991848 0.0332832 -2.44129e-21)
(0.883325 0.151755 -3.00023e-20)
(0.979052 0.0256316 0)
(1.00191 -0.00055803 7.4471e-23)
(0.60254 0.0895934 -4.40291e-21)
(1.02533 0.0388142 -8.11298e-21)
(0.337991 0.0432617 -2.15729e-20)
(1.06883 0.0419713 -1.69108e-20)
(0.973541 0.0256042 0)
(0.987052 0.0184704 0)
(0.988476 0.000548274 -1.06045e-21)
(1.01988 0.0162546 -1.80664e-20)
(0.699588 0.13016 -1.02912e-20)
(1.04477 0.0743101 0)
(0.985903 0.0390508 2.7943e-22)
(0.951449 0.0641155 0)
(1.01619 0.012704 -5.19426e-21)
(1.08067 0.0954773 -2.8046e-20)
(1.03973 -0.00147963 -1.32422e-23)
(0.974995 -0.00268972 -5.95349e-23)
(0.932348 0.0437434 6.96701e-22)
(1.04063 -0.00180571 -1.02654e-23)
(0.599032 0.11801 1.62122e-20)
(1.05654 0.0505079 3.31984e-20)
(0.972484 0.0269932 0)
(1.03062 0.145066 -1.48283e-20)
(0.985144 0.0343402 6.44813e-22)
(1.00013 -0.0105917 2.61792e-22)
(0.995894 -0.00108229 5.24372e-22)
(0.987549 0.102039 3.57553e-21)
(0.990654 0.00102632 1.26703e-21)
(1.00674 0.0236241 0)
(1.01362 0.0398879 0)
(0.99324 0.0138249 -5.50153e-23)
(1.0888 0.10838 0)
(1.00059 -0.0103203 -8.03517e-23)
(0.976673 0.0567652 0)
(1.00498 0.0291802 -2.36125e-21)
(0.442861 0.0386575 -1.33894e-20)
(0.320372 0.0414674 3.61045e-22)
(0.989662 0.0147384 6.37762e-22)
(0.90363 0.203523 -2.27329e-20)
(0.852272 0.0618318 0)
(0.434174 0.0352216 1.02771e-20)
(0.997299 0.0267665 0)
(0.992387 0.00149165 -1.59228e-21)
(0.984942 -0.0131645 5.39213e-23)
(1.02502 0.0204145 0)
(1.01958 0.0377819 1.08618e-20)
(1.00365 0.00836445 5.23695e-21)
(1.04602 0.0756764 1.40489e-20)
(1.0041 0.0130639 -5.82168e-23)
(0.98308 0.0384342 -4.49602e-22)
(1.00708 0.0243865 0)
(1.0257 0.175905 -1.73591e-21)
(1.02663 0.0345576 1.15539e-20)
(1.0878 0.0820377 5.35229e-21)
(0.988436 0.0954491 4.55924e-22)
(0.987576 0.00120188 2.97209e-24)
(1.00069 0.0708441 0)
(1.02443 0.0389335 0)
(0.980903 -0.00865515 -1.50767e-22)
(1.03932 0.0645947 -4.07004e-22)
(1.0403 -0.0241462 -5.39507e-23)
(0.571768 0.145673 1.11841e-20)
(1.01962 0.122833 -1.64493e-20)
(1.02741 -0.0208982 2.90045e-22)
(0.988161 0.00337183 2.48115e-21)
(1.02875 0.0064141 0)
(0.991586 0.0171342 8.54591e-21)
(0.98812 0.0138943 -1.02239e-21)
(0.685297 0.130951 -8.94678e-21)
(0.992544 0.00189471 0)
(0.973761 0.0726018 0)
(0.997571 0.00965598 9.25212e-21)
(0.854902 -0.0513664 -5.22303e-22)
(0.990766 0.0304726 -1.9715e-21)
(0.999816 0.0127546 4.85359e-21)
(1.09016 0.138252 4.0496e-21)
(0.973506 0.00173273 -6.01412e-23)
(0.992537 0.00212948 1.65786e-21)
(0.904091 -0.0395411 -1.55075e-21)
(0.997863 0.157821 6.36311e-22)
(1.00107 0.0369105 -4.38045e-21)
(1.03995 0.136467 4.5208e-20)
(0.990378 1.76322e-05 1.11651e-21)
(0.975741 0.0726236 0)
(1.04706 -0.0240456 4.71026e-24)
(0.988648 0.0143031 -5.28425e-23)
(0.497153 0.0550718 0)
(0.995441 -0.000900778 0)
(1.03651 0.0367686 0)
(1.04117 0.144946 1.53464e-20)
(0.479682 0.0492415 1.17208e-20)
(1.04905 -0.0245491 0)
(1.01516 0.0388125 0)
(1.00826 0.158606 0)
(0.991683 -0.0240471 -1.77027e-22)
(0.990104 0.0207975 -1.47643e-21)
(0.993259 0.0144278 -1.52579e-21)
(1.02931 0.177126 1.77879e-21)
(1.02702 0.0066975 -2.67129e-21)
(1.04229 0.158766 -3.39168e-22)
(1.02391 0.0249931 0)
(0.426151 0.107061 6.08673e-21)
(0.991219 0.0319203 4.81448e-21)
(0.949774 0.118184 -5.52859e-24)
(0.98808 0.0069246 0)
(1.03738 -0.0145444 0)
(0.872925 -0.04171 -4.22409e-22)
(1.00139 0.000940313 -1.07062e-20)
(1.0592 -0.00912472 -5.23579e-23)
(0.744241 0.161933 -2.18197e-20)
(1.00865 0.036742 0)
(0.995582 0.00483998 -1.34841e-21)
(1.01776 0.00433035 0)
(0.992417 -0.0253374 0)
(0.985093 -0.013963 -5.33356e-23)
(1.0231 0.121709 -1.74965e-20)
(1.01145 0.0394045 0)
(0.901994 0.15235 0)
(1.00371 0.0725692 -1.82331e-21)
(1.08762 0.150747 -3.03317e-21)
(0.991976 0.124585 0)
(1.05075 0.0501849 -3.02499e-22)
(0.466807 0.106115 2.47861e-22)
(1.0046 0.0307033 -4.67533e-21)
(1.02666 0.120471 1.71604e-20)
(1.021 0.0106122 0)
(0.268357 0.0458488 -3.00685e-20)
(0.84602 -0.0558976 1.15659e-22)
(1.04009 0.0239396 -1.89799e-21)
(1.04582 -0.02515 2.92549e-23)
(0.982543 -0.00855053 0)
(1.00856 0.0271696 -3.29345e-21)
(1.04352 -0.0242698 6.68795e-23)
(1.00122 -0.0203112 -5.89924e-23)
(0.989644 -0.0130136 -2.61769e-22)
(1.02053 0.015227 0)
(1.02713 0.0716446 0)
(1.00309 -0.00572703 -7.76392e-23)
(1.00926 0.036033 1.57962e-22)
(1.05305 0.138855 -1.03292e-21)
(0.647194 0.121649 7.72077e-21)
(0.853658 0.147443 2.47496e-20)
(1.04282 0.142658 0)
(0.992037 0.017517 -3.9639e-22)
(0.866675 -0.0473614 0)
(1.00389 0.0114639 -4.05515e-21)
(1.00892 0.157874 -8.96815e-21)
(0.895061 0.0140441 -4.3775e-22)
(0.0915299 0.00863112 2.26758e-20)
(1.01423 -0.0182209 -1.24248e-22)
(0.992364 0.00170208 0)
(1.01275 0.00236257 0)
(1.00237 0.0210787 -3.36297e-21)
(1.01454 -0.0177378 0)
(1.03726 -0.0268928 -9.48691e-23)
(1.00918 0.0123488 6.52246e-21)
(1.01865 0.0839795 1.70845e-20)
(0.995902 0.00497562 -1.40487e-21)
(0.443354 0.0529187 1.6481e-20)
(1.01531 0.0128449 0)
(0.994007 0.00602083 0)
(0.737125 0.139155 -9.52546e-21)
(1.02164 0.0109694 -1.45102e-21)
(0.98888 0.00727738 0)
(0.97287 -0.0014764 -6.51846e-23)
(0.574419 0.0824123 0)
(0.993495 0.0802177 -6.64099e-21)
(1.01859 -0.00114505 4.32496e-23)
(0.920943 -0.0671161 0)
(0.985774 -0.000128553 1.37452e-21)
(0.987992 0.00600146 -6.91916e-22)
(1.05709 0.214412 2.21178e-20)
(0.984179 -0.0129287 0)
(0.971991 0.0664829 -9.14019e-23)
(1.03752 0.0378256 0)
(0.969488 0.0270596 -4.84706e-22)
(0.990671 0.00362921 0)
(0.991861 -0.0163573 -7.60096e-23)
(1.00213 0.0556105 0)
(0.984924 0.0304654 -3.05379e-22)
(1.02044 0.0413369 -1.68887e-20)
(0.462059 0.0660204 -1.01834e-20)
(0.975548 0.00381199 -1.24826e-23)
(0.993512 0.000386277 -5.65679e-21)
(0.989522 0.02095 0)
(1.0289 0.0075648 9.2408e-21)
(0.990929 0.00258379 2.30086e-21)