/*--------------------------------*- C++ -*----------------------------------*\
| =========                 |                                                 |
| \\      /  F ield         | OpenFOAM: The Open Source CFD Toolbox           |
|  \\    /   O peration     | Version:  v2012                                 |
|   \\  /    A nd           | Website:  www.openfoam.com                      |
|    \\/     M anipulation  |                                                 |
\*---------------------------------------------------------------------------*/
FoamFile
{
    version     2.0;
    format      ascii;
    class       volVectorField;
    location    "450";
    object      ddt0(U);
}
// * * * * * * * * * * * * * * * * * * * * * * * * * * * * * * * * * * * * * //

dimensions      [0 1 -2 0 0 0 0];


internalField   nonuniform List<vector> 
13917
(
(-0.0149844 0.000295422 -3.14495e-18)
(0.000284505 0.000221466 -5.01103e-19)
(0.000146537 0.00535639 -2.61363e-18)
(0.000771359 0.000765167 -1.09052e-17)
(0.00103521 -0.000662307 -8.67527e-19)
(0.000283506 0.000292324 -5.79193e-20)
(0.00124631 0.00168468 1.36642e-17)
(-0.000467797 -0.00113054 -5.51617e-19)
(0.00189194 0.00136104 -8.97173e-18)
(0.000262538 0.000601527 -2.66994e-17)
(-0.000302498 -0.000969159 -8.9821e-19)
(0.000424732 0.00051887 1.26225e-18)
(0.000177433 7.44303e-06 7.96412e-20)
(-0.00187955 0.000694476 6.47372e-19)
(-0.000100498 0.00034712 -1.10803e-18)
(-0.0144285 0.000204948 -2.27233e-18)
(-0.000711785 1.78287e-05 -9.4149e-20)
(-0.000444274 -0.000509674 -2.69829e-19)
(0.00097831 0.00451919 5.77772e-18)
(-0.0133872 1.31963e-05 -4.33432e-21)
(-0.00025359 0.000721114 -6.55285e-18)
(9.54427e-05 4.41927e-05 -1.70245e-18)
(0.00113887 0.00299512 1.03354e-17)
(0.000106573 4.10154e-05 5.92508e-19)
(0.000564684 0.000943934 1.32861e-18)
(-0.000292212 0.000597468 4.90718e-18)
(-0.00337607 -0.00309547 1.30185e-19)
(-1.9724e-05 0.000639692 2.76881e-17)
(-0.000431452 0.000197108 4.56954e-19)
(-0.00166977 -0.000503964 7.83593e-21)
(9.77452e-05 0.000926049 -6.69286e-18)
(0.00209206 0.00396329 -1.2457e-18)
(0.000560651 0.000739912 3.23998e-18)
(-0.0162205 0.00103925 -4.70967e-18)
(0.000194077 0.000491483 -1.79379e-19)
(-0.000298829 -0.00157933 3.37542e-19)
(9.31775e-05 0.000581807 -4.38062e-19)
(6.7665e-05 2.21869e-06 -1.85352e-18)
(0.00127158 0.00171124 1.18425e-18)
(-0.000358455 0.00121201 -5.10357e-18)
(-0.000741648 8.65025e-06 -6.38373e-20)
(-0.000752546 0.00128115 7.51281e-21)
(0.00147053 0.00108038 -8.64953e-18)
(0.00124967 0.00472688 6.66009e-19)
(0.00131902 0.00466955 8.93053e-18)
(-0.00174679 0.00464578 -3.44732e-18)
(-0.000200608 0.000747446 1.81015e-18)
(-0.000819668 -0.0036331 -8.64908e-18)
(0.00287102 -0.00388968 1.1835e-19)
(0.00022112 0.000461189 4.77161e-20)
(0.000391641 0.000499902 -4.10185e-18)
(-0.000556942 0.00397906 -6.63694e-18)
(-0.017455 -0.000175371 2.96496e-18)
(0.000179876 0.00032896 -1.9795e-18)
(0.000202919 0.000377249 2.19035e-18)
(-0.000447172 0.00399497 7.36006e-18)
(0.000556818 0.00102006 5.28282e-18)
(0.00112006 0.00295138 9.67331e-18)
(-0.000822158 0.00116875 2.96237e-20)
(-0.00193 0.00463591 8.91623e-19)
(-0.00667524 0.00833452 -1.56459e-19)
(0.00061972 0.00342542 6.01756e-20)
(-0.00106491 -3.34032e-05 -4.09833e-21)
(0.000556303 0.000920315 -1.05501e-17)
(-0.0129849 0.00326632 1.22136e-17)
(-0.00770971 -0.00122093 4.25437e-20)
(-0.000453942 2.9812e-05 1.59969e-19)
(5.52023e-05 -0.00165625 6.16447e-19)
(-0.000554549 -0.000665414 9.21628e-19)
(-0.0164134 0.000192712 6.2215e-18)
(-0.00882866 0.00426961 -1.18498e-17)
(-0.016055 0.000855133 -2.41575e-18)
(0.000698659 0.000454566 8.8323e-18)
(-0.000749453 0.00106981 -8.34406e-20)
(-0.000270482 0.000734752 4.74508e-18)
(0.000383729 0.00086871 -2.42591e-18)
(0.000341022 -0.000317402 1.16107e-18)
(-0.000797714 0.000991433 4.21689e-20)
(0.000399927 0.000852722 -4.67903e-18)
(0.000583166 0.000758444 -2.41866e-18)
(6.18683e-05 0.000233399 -1.41152e-18)
(-0.000574982 1.84262e-05 3.14293e-19)
(0.000631587 0.000434092 -1.18207e-17)
(-0.0107562 0.00479948 8.40091e-18)
(0.000186807 6.70782e-05 -1.00821e-18)
(-0.00195575 0.000516873 -6.65209e-21)
(0.00217895 0.0038854 3.44628e-18)
(0.000188823 3.27923e-05 -3.57525e-18)
(-0.000322675 0.00116712 3.51998e-18)
(-0.000800661 2.53623e-05 4.8968e-20)
(-0.000970071 6.46598e-05 -1.58423e-20)
(0.0016236 0.00110809 -8.15151e-18)
(0.00331098 -0.00222322 7.14431e-20)
(-4.30244e-05 0.000453002 4.77104e-19)
(0.000136074 0.000391066 2.30316e-18)
(-0.000503191 0.000149505 9.81544e-19)
(0.000593208 -0.00251315 -2.79178e-20)
(-0.000293718 1.45891e-05 -3.66806e-20)
(0.000177674 3.73672e-05 4.42764e-18)
(-0.00104473 -0.000172313 -6.30272e-21)
(-0.00105268 -1.29492e-05 -7.45138e-21)
(-0.00113843 -1.09792e-05 -1.0902e-20)
(5.43888e-05 0.000248435 1.95844e-18)
(-0.000270948 2.91932e-05 6.97418e-19)
(0.000381889 -0.00027036 -1.06492e-18)
(-0.0150637 0.00623092 -3.18842e-18)
(-0.0129601 -0.00027746 3.34154e-18)
(-2.91408e-05 0.00367797 7.75463e-20)
(-0.000827101 0.00143394 3.80016e-20)
(-0.00435067 -0.00379179 4.14011e-19)
(0.000215859 3.36739e-05 -1.00735e-17)
(-0.0161126 0.00115036 2.51865e-18)
(-0.00047004 0.000295928 3.58028e-18)
(0.00509364 -0.0039845 1.31792e-17)
(-0.0126164 0.00343763 -1.00956e-17)
(0.000236846 0.000848952 2.00962e-18)
(0.000957148 0.00446395 7.99696e-18)
(-0.0012103 3.1364e-05 -3.33803e-20)
(0.00100977 0.00517404 -9.03444e-18)
(0.00053709 0.000321258 3.883e-18)
(-0.000618872 2.52086e-05 -1.22545e-19)
(-0.000641718 0.000862816 -4.51549e-21)
(-0.000530396 -4.38392e-05 -5.89782e-19)
(0.000409 0.00399573 -1.58393e-19)
(-0.0188399 0.000200616 -8.02003e-18)
(-0.0126268 0.00457559 -7.57093e-18)
(0.00060016 0.000905628 -2.07155e-18)
(-0.000302181 0.000727254 3.60006e-18)
(0.000142746 0.000110629 1.2528e-18)
(0.000500205 0.00405617 7.09588e-18)
(0.00214624 0.00228214 -1.73904e-17)
(-0.00323847 0.00295063 -7.23399e-19)
(-0.0217409 0.00307524 1.44782e-18)
(0.000222239 0.000827868 -1.65651e-18)
(0.00204406 0.00429829 -1.21597e-17)
(-0.00429871 -0.00463829 -6.33661e-19)
(-0.00761101 0.00828501 -2.49805e-18)
(-0.0211201 -9.2706e-05 8.92694e-18)
(-0.000314979 0.000529281 -1.73136e-18)
(0.000140118 2.32302e-06 -5.9927e-19)
(-0.0231494 -0.0165642 1.43029e-19)
(-0.0007491 0.000926215 -6.52894e-20)
(-0.0141279 0.0064864 8.23219e-18)
(9.28633e-05 9.64404e-05 5.72182e-19)
(0.000587111 0.000417535 1.93918e-18)
(-0.00211302 0.00223131 -3.38074e-20)
(-0.00831339 0.00447427 -5.7326e-19)
(-0.014718 0.00846554 -4.24837e-19)
(-0.00450907 -0.00301112 -1.26476e-18)
(0.000178643 0.000346816 2.05984e-18)
(-0.000214152 0.00113776 -1.76663e-18)
(-0.0011735 -2.05449e-05 -7.06394e-20)
(0.000566982 0.000393331 3.95559e-18)
(0.000564271 0.000313984 2.50463e-18)
(0.000728129 -0.0034777 2.11044e-19)
(0.000258101 2.9869e-06 -8.22628e-19)
(-0.000283182 3.61348e-05 -6.6227e-19)
(-0.0223808 0.00266166 1.14674e-17)
(-0.001043 9.33535e-06 -1.21578e-20)
(-0.00118101 2.98952e-05 5.83409e-20)
(0.000130976 0.000113499 9.15898e-19)
(-0.0111087 0.0022604 -8.10324e-18)
(2.78892e-05 0.000460544 1.41843e-18)
(-0.0217487 -0.0186385 -2.1918e-19)
(-0.007623 0.00279221 -9.70455e-18)
(-0.00103212 -0.000901648 3.70009e-19)
(-0.011458 -0.000173686 -3.29391e-18)
(0.000271938 0.00279499 -1.71405e-18)
(-0.00116921 -0.000170351 -1.39192e-20)
(-0.000366119 0.000500957 -2.46428e-19)
(0.000145146 1.62106e-05 2.37464e-18)
(-0.0196478 0.00303948 8.31114e-20)
(0.00193498 0.00131697 -1.84372e-18)
(-0.0116117 0.00733581 1.51841e-18)
(-0.000567683 0.00292793 3.91514e-18)
(-0.00118532 -6.03047e-06 2.8494e-20)
(0.000806844 0.000762336 -1.10258e-18)
(-0.000800869 0.0040962 5.92556e-18)
(0.00198795 0.00220433 1.86512e-17)
(2.87299e-05 0.000435298 -2.72603e-18)
(0.00147874 0.00110024 1.53797e-18)
(0.00013527 2.39221e-05 -1.07323e-20)
(0.000373197 0.000494251 -6.19147e-18)
(-0.000190794 0.00456368 1.08549e-18)
(0.0009796 0.00514281 6.3849e-18)
(-0.00345381 0.00276225 1.98716e-18)
(0.000375643 0.000477473 4.3323e-18)
(-0.000245274 0.00459805 3.40606e-18)
(-0.00168712 -0.000453626 -2.72598e-21)
(-0.00166937 0.000358015 7.09699e-19)
(-0.000657245 0.00287018 -6.32629e-18)
(0.00133276 0.00455797 1.69056e-17)
(-7.72664e-05 0.00435381 -2.03534e-18)
(-0.0144834 0.000322087 -1.76913e-18)
(-2.2007e-05 0.000444618 -9.35667e-19)
(-0.0184753 0.0002102 -7.79798e-18)
(0.000524312 0.00129661 8.07538e-18)
(-0.0215604 0.0034771 1.15828e-18)
(0.000146155 0.000476331 1.3883e-19)
(0.000234641 4.38745e-06 -7.25847e-19)
(-0.000128421 0.000773892 4.64147e-18)
(-0.0159727 0.000219573 -2.98744e-18)
(-0.0208914 -0.000226402 -1.96757e-18)
(8.15174e-05 0.00047215 6.87876e-19)
(-0.00480849 -0.000821716 4.03048e-20)
(-0.00013922 0.00028477 5.8483e-21)
(-0.000239172 0.00118487 -1.89795e-18)
(-0.000668846 0.000932787 4.97616e-20)
(-0.000663711 0.0040817 1.72611e-18)
(5.63425e-05 0.000211735 -6.38934e-19)
(2.12936e-05 0.000137839 -2.7376e-18)
(0.00210085 -0.00102601 4.55064e-19)
(0.00236701 -0.00128123 7.03476e-19)
(-0.00471085 -0.00302166 5.59936e-19)
(0.00195894 0.00422355 -1.51168e-18)
(-0.000325828 0.000584562 -4.42844e-18)
(-0.0134646 0.00183079 1.62008e-17)
(0.000104881 5.24187e-06 3.30799e-18)
(-0.00103814 0.000458973 3.10517e-19)
(-0.00106028 0.000455992 -6.54928e-20)
(0.00315533 0.0013868 -1.07521e-17)
(-8.26742e-05 0.00444621 7.84171e-19)
(-0.000844516 0.00472235 -3.00724e-18)
(0.000248892 9.73058e-05 2.32348e-18)
(-0.000920563 -1.06496e-05 -4.69298e-21)
(-0.00478976 -0.00539644 1.0948e-18)
(-0.0180473 4.95454e-05 9.17348e-18)
(-0.000992621 0.000385959 -5.09937e-20)
(-0.000997857 0.000371097 1.38936e-19)
(-0.000668461 2.65152e-05 -1.00738e-21)
(-0.00108106 0.000488389 5.74033e-20)
(-0.00110425 0.000485945 -1.00968e-19)
(-0.0158706 0.000753755 -2.56474e-18)
(-0.00886326 -0.00204142 1.44271e-17)
(8.06563e-05 0.000114402 2.16203e-18)
(-0.00124524 -0.000273216 -2.63159e-21)
(-1.26563e-05 0.00343119 4.78216e-18)
(-0.0167739 0.000690972 3.38107e-18)
(-0.00100648 1.36873e-05 9.27536e-20)
(0.000259794 8.82543e-05 1.20052e-20)
(-0.0046147 -0.00176471 -3.88545e-20)
(-0.0154246 0.00640911 2.31475e-18)
(9.85612e-05 0.00452683 -4.47102e-18)
(-0.0137659 0.00171715 -8.19675e-18)
(-0.00110219 0.00332109 1.11894e-18)
(8.78664e-05 9.99001e-05 4.68669e-18)
(-0.00467837 0.00290493 1.19678e-18)
(1.54338e-05 0.00352672 -4.42001e-18)
(-0.000399764 0.000339027 -3.88695e-18)
(0.00122659 0.0039593 1.21384e-17)
(0.000103631 0.000475679 1.56346e-19)
(-0.00884753 -0.00242166 -9.07592e-18)
(0.000567584 0.000354688 9.46544e-19)
(-0.000193438 0.00187619 4.17611e-18)
(-0.000374879 0.00283009 -1.65984e-18)
(9.34802e-05 8.8596e-05 1.54513e-19)
(-0.00040551 6.57665e-06 4.12563e-20)
(0.000597022 0.00092838 8.18173e-18)
(0.000926569 0.000221683 8.39789e-19)
(-9.87578e-05 0.000553308 -4.81162e-19)
(-0.0189972 0.00051772 -1.13638e-17)
(-0.00696506 -0.00961428 7.53755e-20)
(-0.000374742 0.000791057 2.13694e-19)
(-0.000969954 0.000350916 8.77441e-20)
(0.000278201 -9.17074e-06 1.28372e-18)
(-0.000951215 0.000354678 -4.77408e-20)
(0.00057387 0.000345517 3.34974e-18)
(0.000197487 1.26131e-05 -2.59901e-18)
(0.00065281 0.00232478 -1.85197e-19)
(-0.000356343 0.000847209 -1.02634e-19)
(-0.021941 1.57014e-05 7.20442e-19)
(-0.0127232 -9.74447e-05 -2.0794e-18)
(0.000297747 0.000358631 -4.40448e-18)
(0.000644649 -3.01592e-05 8.91501e-19)
(-0.00144934 0.00491108 1.92458e-18)
(-0.00141828 0.000360418 1.02251e-20)
(-0.00100868 0.000261208 7.16556e-19)
(-0.019145 0.000732955 5.04664e-18)
(-0.00140265 0.000372976 -3.37551e-21)
(-0.01668 0.000416895 8.37921e-18)
(-0.000107993 0.00052941 6.25356e-19)
(-0.010761 0.00249096 6.60044e-18)
(-0.001072 -3.04935e-06 -1.62485e-20)
(-0.000123081 0.000255615 -9.33027e-19)
(6.99111e-05 8.07172e-05 -1.08068e-18)
(8.2955e-05 7.90599e-05 1.99501e-18)
(0.000472877 0.00453276 6.9253e-19)
(-3.56265e-05 5.95749e-06 1.1758e-18)
(-0.00112502 -0.00147336 3.67296e-19)
(0.000211238 0.00132988 1.94038e-19)
(-0.00432015 -0.0104957 9.74338e-22)
(-0.00209848 0.00274548 1.12558e-20)
(-0.00435226 0.000195265 3.77822e-19)
(-0.0217311 -0.000187245 -8.7055e-18)
(-0.00111266 2.95923e-05 6.67168e-20)
(0.000705883 0.00308074 1.14103e-17)
(0.00106175 -9.48224e-05 1.15342e-18)
(0.000193795 0.000811211 1.53483e-18)
(0.00103117 -0.000473893 -6.96099e-20)
(0.000426552 0.000878575 -8.82847e-18)
(-6.81799e-05 0.000488789 -2.35838e-19)
(-5.86782e-05 8.9897e-06 1.84551e-19)
(-0.00104017 0.00400173 3.22326e-18)
(-0.00206439 -0.00413988 1.00292e-19)
(-0.000119977 0.00185572 -5.58548e-18)
(0.00043489 0.000861839 2.0001e-18)
(0.000269169 8.41965e-05 1.15778e-17)
(-0.0222721 0.00292215 -1.13882e-17)
(-0.0155493 0.00012449 -1.63071e-18)
(0.000129548 0.000159943 1.16556e-18)
(-0.00847031 0.00240287 1.16924e-19)
(0.000210733 0.000835701 2.82431e-18)
(0.0137001 -0.00150552 -3.81552e-19)
(0.00183958 0.00539006 -7.79577e-19)
(-0.0135086 0.000358237 -7.53691e-18)
(-0.0111004 0.0067067 -4.37449e-18)
(-0.00745789 -0.0059974 4.57943e-21)
(-0.00269868 0.00283881 1.59541e-18)
(0.000573164 2.84228e-05 -1.27043e-18)
(-0.00807358 0.00495884 -6.62754e-19)
(0.0167721 -0.00400756 -1.82668e-19)
(0.000232001 0.00541855 4.67872e-18)
(0.000198152 1.1182e-05 8.88071e-19)
(-0.000122762 0.000315532 6.38258e-19)
(-0.0037477 -0.00216388 -3.27355e-20)
(0.00017877 -1.4363e-05 -3.07309e-19)
(0.000354436 0.000160422 -3.27511e-19)
(0.00129173 0.00449236 -1.15006e-17)
(-0.00080208 2.2178e-05 1.99717e-19)
(-0.0194403 0.0031154 -5.71531e-18)
(0.000215561 5.09971e-05 -4.94343e-18)
(0.00280823 0.0027224 1.39605e-17)
(-0.00160988 0.00037357 6.50135e-20)
(-0.0106607 1.97479e-05 1.27451e-17)
(-1.09903e-05 6.61637e-05 2.13892e-18)
(-8.76257e-06 0.00187128 -2.45067e-20)
(-0.000153951 0.000281139 -1.23308e-18)
(-0.00711097 -0.00684643 2.17245e-20)
(-0.000910574 2.33601e-05 5.80346e-20)
(0.00134099 0.00401652 -1.32587e-17)
(-0.0108084 0.00673987 2.99757e-18)
(0.000150279 0.00040637 -2.86892e-18)
(0.00019565 -1.13438e-05 8.78424e-19)
(-0.016278 0.00138257 1.01657e-17)
(-0.0121429 0.00675442 2.88133e-18)
(-0.00904734 0.00445865 -6.6601e-18)
(-0.00356138 -0.00086072 -6.96597e-19)
(-0.00136215 0.00035517 7.69958e-21)
(8.0203e-05 0.000164946 1.19611e-19)
(-0.0167415 0.00618406 1.14068e-18)
(-0.00253534 0.00300788 1.68681e-18)
(-0.00134208 0.000371597 -6.75902e-21)
(0.00118882 -0.000259312 -2.67829e-19)
(0.000282079 0.000424796 3.43219e-18)
(-0.000567168 0.000699156 1.86057e-18)
(-5.15608e-06 0.00190568 -1.21637e-18)
(7.93591e-05 0.00414656 -2.84303e-18)
(-0.00159556 0.0026316 2.43546e-18)
(-0.000845642 0.000292715 1.46901e-18)
(0.00251765 0.00277402 -7.86808e-18)
(-0.0150306 0.00069044 5.93421e-18)
(0.000163697 0.000100441 -1.30452e-18)
(0.000157134 0.00042081 -2.14443e-18)
(0.00120934 -0.000804888 3.6764e-19)
(0.000669825 0.00475297 -3.25064e-18)
(-0.000879779 1.64556e-05 -8.43873e-20)
(-0.0144193 0.000232557 5.92833e-18)
(0.0026851 0.00273748 5.20245e-18)
(-0.00238953 -0.0361746 -4.5443e-19)
(0.000237986 0.000382223 2.72706e-18)
(-0.00217311 0.00289915 -7.2427e-19)
(-0.00727006 0.00385053 7.24352e-20)
(0.00705481 0.00396476 5.39833e-20)
(-0.00114733 0.00100529 -3.05345e-20)
(-0.00071222 0.00467732 -6.51145e-18)
(-0.00136878 0.00485015 -4.65893e-18)
(-0.000193363 0.000235476 1.02433e-18)
(0.000300157 0.000370016 -1.51408e-17)
(0.00114312 0.00482068 6.8419e-18)
(-0.00155531 0.000520675 -2.28919e-20)
(-0.00734811 0.00363392 4.40038e-18)
(-3.38968e-05 0.00440413 -3.83334e-18)
(-0.00120916 0.00090241 1.23843e-20)
(0.00616525 0.00123722 -7.38998e-20)
(6.39216e-05 2.00131e-05 -1.46486e-18)
(0.0143646 0.0210529 7.93614e-19)
(-0.000237075 0.000355303 2.00182e-18)
(-0.0137728 6.65794e-06 1.06063e-17)
(0.0156136 0.0218763 -6.84141e-19)
(0.000175212 0.000638555 2.99211e-19)
(-0.00547297 -0.00528011 -7.36373e-19)
(-0.00081658 0.000537952 -4.93164e-19)
(0.000110135 0.000453193 -5.40012e-18)
(-0.00908127 0.00334836 1.20139e-17)
(0.00222978 0.00659362 2.09667e-18)
(0.000239906 0.000651651 -3.98291e-19)
(0.000378265 0.00452276 -2.38558e-18)
(9.68003e-05 0.000202126 -3.52574e-19)
(-0.000697513 0.000502366 -8.4117e-20)
(0.000604429 0.00531248 8.3656e-18)
(0.000195752 4.50732e-05 5.50256e-18)
(0.00154661 0.00160575 -1.25812e-17)
(0.000467022 0.000881516 -3.40508e-18)
(8.09766e-05 8.56706e-05 -3.11133e-18)
(5.77623e-05 5.12729e-05 3.02906e-18)
(0.000152105 8.02159e-05 8.52885e-20)
(-0.00237015 0.00915796 8.22415e-20)
(-0.00149365 -0.000678324 -1.58155e-19)
(0.000154944 0.000404212 -2.73255e-18)
(0.000176194 8.38997e-05 -1.68709e-19)
(0.000126493 5.4932e-05 -4.2846e-18)
(0.000373246 0.00283507 -1.34393e-18)
(0.00177221 -0.00206131 1.6902e-19)
(-0.00156896 0.000321177 -5.4876e-20)
(-0.00117036 -0.000152855 2.53485e-21)
(0.00210235 0.00531646 4.22397e-18)
(-0.0021779 0.00270729 -7.06055e-19)
(9.9334e-05 8.09014e-05 -2.98937e-18)
(0.000211459 0.000636596 -9.19235e-19)
(-0.0102763 0.00577035 1.5953e-18)
(-0.0010923 -0.000171772 2.4506e-19)
(-0.00636493 -0.00161431 -2.18715e-20)
(0.000974219 0.00459925 -1.39384e-17)
(-0.00269967 0.00543426 -6.71419e-19)
(-0.00114463 0.000809386 7.67887e-21)
(-0.00152819 0.000324332 -4.99872e-20)
(-0.000151639 0.000628164 -2.58034e-18)
(6.40923e-05 4.94518e-05 -9.55882e-19)
(-0.00156199 0.000329091 5.12524e-20)
(9.43852e-05 0.000108351 1.64295e-18)
(-0.00151906 0.000336758 1.21307e-20)
(-0.00118031 0.000780099 -4.49712e-21)
(-0.00486797 0.000796349 3.57841e-18)
(9.46269e-05 0.000214817 3.18082e-18)
(-0.000415587 0.00133862 4.09221e-18)
(-0.0219609 0.000112103 -9.07643e-18)
(0.000650019 0.00300525 -4.83784e-18)
(4.01491e-05 0.000135025 2.24372e-18)
(0.000559502 0.000384094 -1.45896e-18)
(-0.00931044 0.00299975 1.81909e-18)
(-0.000133291 0.000718487 -3.79484e-19)
(-0.0187766 0.000109207 -2.60006e-18)
(-0.0016078 0.000335091 3.37138e-20)
(0.000290845 0.000196063 2.12242e-18)
(-0.00146601 0.000497974 8.03756e-20)
(-0.00112672 0.000518378 1.89931e-19)
(0.000105374 0.000560431 6.3014e-19)
(7.17426e-05 -2.43243e-05 -2.74238e-18)
(-0.0102015 0.00569267 -1.84496e-18)
(-0.00264933 -0.00130817 4.13465e-20)
(-0.0164548 0.00617592 1.10979e-18)
(0.000286109 0.000193412 2.05224e-18)
(0.00175466 0.00249639 -5.92193e-18)
(-0.00397918 -0.000311701 4.08473e-20)
(5.92451e-05 0.000197288 -5.57837e-20)
(-0.000956819 0.00336387 4.87552e-19)
(-0.00919967 0.00467322 1.2399e-17)
(0.000282945 0.000417504 -5.83961e-18)
(0.000328336 -0.00381358 -1.05641e-18)
(5.54182e-05 0.000121919 -9.59409e-19)
(6.09714e-05 1.64229e-05 -3.19715e-18)
(0.000107989 5.5977e-05 4.49275e-18)
(5.80303e-05 3.15661e-05 -9.00843e-19)
(-2.71124e-06 0.000142914 9.13313e-19)
(0.000151062 1.67774e-05 8.93261e-19)
(-0.0219902 0.00281982 -2.50197e-18)
(-0.0101007 0.00781687 -1.32032e-18)
(-1.58471e-05 0.000143328 -1.72453e-18)
(-0.00451745 0.000596458 -3.55554e-19)
(0.00225529 0.0052505 1.77066e-18)
(0.000242632 2.60161e-05 3.66397e-18)
(0.000556916 0.0031533 7.8095e-18)
(0.00265025 0.00405675 7.25081e-19)
(-0.0088874 0.0022158 9.78925e-18)
(0.00158643 0.00171388 -1.18448e-17)
(-0.0148503 0.00623492 -3.38153e-18)
(-0.00530313 -0.0208735 -4.64408e-20)
(-0.00539879 -0.0211564 2.58565e-20)
(5.996e-05 -1.22802e-05 2.53634e-18)
(-0.00820848 -0.00310132 -4.73808e-20)
(-0.00484833 7.38926e-05 -1.35119e-19)
(9.71379e-05 0.000453283 -1.62786e-18)
(-0.00357467 0.00479334 -1.61295e-18)
(-0.000945991 6.14035e-05 -9.99152e-20)
(0.000188186 0.000324896 3.94932e-18)
(0.00014832 0.000408331 1.06144e-18)
(0.00164846 0.00150703 1.12256e-17)
(-0.000208121 0.000859102 -1.23421e-18)
(0.000898911 0.00497785 1.43764e-18)
(0.00148518 0.00337944 -9.85764e-18)
(-0.00040052 0.00257887 -3.86015e-20)
(0.000766035 -1.48406e-05 2.17598e-19)
(-0.000594459 -0.000297074 -2.34704e-19)
(-0.000777459 0.0014659 2.15341e-18)
(0.000166107 0.000391427 -2.89908e-18)
(-0.000481361 0.00208756 4.08123e-19)
(0.00100254 0.00242029 1.66168e-17)
(0.000253708 0.00136181 7.4396e-18)
(-0.00798245 0.00492407 3.27512e-18)
(0.000226613 6.03176e-05 3.21441e-18)
(-0.000824305 0.00145889 -3.48171e-18)
(-0.000847268 0.00421686 1.77399e-20)
(2.09061e-05 4.27711e-05 3.02533e-18)
(-0.0222872 0.00175992 -5.63002e-18)
(6.40398e-05 1.58242e-05 1.36818e-18)
(-0.00114925 0.000512351 -2.65887e-20)
(0.000393379 0.00292077 -2.74145e-18)
(-0.00160244 0.00032409 5.42097e-20)
(9.61012e-05 6.57571e-06 2.91591e-18)
(-0.00109208 0.00388147 1.66227e-18)
(-0.0240428 0.00204321 2.01034e-17)
(-0.00287685 -0.00698765 -5.02609e-20)
(0.000149974 0.000109177 -2.70269e-18)
(0.000999072 0.000822996 -9.14068e-19)
(0.000463481 0.0018019 1.62688e-20)
(-0.00169023 0.00519635 -2.83286e-18)
(-0.00525204 0.00499066 -4.53342e-19)
(0.000169422 0.000362323 1.11664e-18)
(0.000190514 0.000360493 2.83292e-19)
(0.000145174 9.80414e-05 2.63568e-18)
(-0.000189971 0.00278519 -7.28436e-18)
(0.0156992 0.00690813 4.3358e-19)
(0.000185367 0.000139871 3.8837e-19)
(-0.000991906 2.13496e-05 1.42421e-19)
(0.00022063 1.22605e-05 8.45092e-19)
(9.00348e-05 8.67937e-05 4.54295e-18)
(0.000972797 -0.00106494 1.1382e-19)
(0.000691803 0.00167187 -3.09909e-18)
(-0.000967669 4.62926e-05 -2.80674e-19)
(0.00138732 0.00339176 8.81314e-18)
(1.6854e-05 4.06407e-05 -8.1618e-19)
(0.000110013 6.422e-05 -3.03432e-20)
(0.000460502 0.000870433 4.32713e-18)
(-0.0141876 0.000674463 6.30558e-19)
(-0.000641202 0.000137243 -7.20282e-20)
(0.00123058 0.00117034 -7.98586e-18)
(-7.50544e-05 0.000564872 -3.27969e-19)
(0.0017184 0.0024284 -1.7184e-18)
(0.000416062 0.0034701 -1.31017e-17)
(-0.000617129 0.000561827 9.32606e-19)
(-0.000464806 0.00289585 4.07663e-18)
(-0.00130369 -0.000324948 -3.55586e-19)
(0.000381466 0.000782845 -3.57538e-18)
(-0.000450474 -0.000202297 -1.42654e-18)
(-0.0211527 0.00376529 -1.35152e-18)
(-0.00638356 -1.7269e-05 -3.46492e-20)
(-0.0221687 0.000298861 2.38697e-18)
(9.19724e-05 0.000212162 -1.00921e-18)
(0.000115392 5.16493e-05 -7.21788e-19)
(-0.000371144 0.00294427 2.01209e-19)
(0.000324869 0.00030361 1.03234e-17)
(-0.0132928 0.00345585 6.79042e-18)
(-0.00144844 0.000372724 8.82077e-21)
(-0.0133169 -0.0273112 -5.72833e-19)
(0.000567071 0.00131655 -8.92451e-18)
(-0.017546 0.00426728 3.9718e-19)
(-0.00112759 9.46609e-05 -3.33479e-19)
(0.00143292 0.00111846 -6.4712e-19)
(0.00185561 0.00035537 -1.12202e-17)
(-1.83023e-05 0.000154116 4.15045e-19)
(0.0027566 0.00377643 2.67981e-18)
(-0.000345106 2.12909e-05 1.41826e-18)
(-0.00013208 0.000281969 -2.12611e-19)
(-0.018272 0.00390189 -3.2067e-18)
(-0.0015934 0.000321512 -5.24869e-20)
(0.00140953 0.00610037 -4.64895e-18)
(-0.00094896 -1.2674e-05 -7.65317e-21)
(0.000242731 1.8272e-05 -3.55273e-18)
(0.000118228 4.99401e-05 2.09504e-18)
(0.000878198 0.00497768 -3.59019e-18)
(0.00123617 -0.00116318 -1.2375e-19)
(-0.000892847 0.000286526 -1.72264e-20)
(0.00147589 0.00480938 -1.09161e-17)
(0.000528048 0.00306745 -9.89503e-19)
(0.018025 0.0370893 7.62022e-19)
(-0.00537637 0.00466884 -7.46964e-20)
(-0.0228008 0.00304201 5.91236e-19)
(-0.00847106 0.00223927 -9.79685e-18)
(-0.00062499 0.000127902 2.15946e-19)
(-0.0175455 0.000252537 3.42864e-18)
(-0.00126099 -4.03443e-05 -4.06091e-20)
(-0.00899869 0.00807856 -1.10334e-19)
(-0.0190895 0.00250157 -1.62842e-19)
(-0.000143186 0.000135371 7.92776e-20)
(-0.00538104 0.0060851 -2.61175e-19)
(-0.00112362 -1.92378e-05 -2.94057e-20)
(0.000956961 0.00238025 -1.10531e-17)
(0.00154979 0.00104607 4.80234e-18)
(-0.00158834 0.000322567 8.2487e-20)
(-0.000307319 1.91704e-05 -3.97222e-19)
(0.000213736 1.1886e-05 -6.30408e-19)
(-0.000904896 0.00511377 5.16352e-18)
(0.000148258 0.000137828 1.24591e-18)
(0.00211675 0.00374434 4.34831e-18)
(0.000172537 0.000309503 -5.08229e-18)
(-0.000904789 0.000271933 3.13518e-20)
(-0.00114115 1.17342e-05 7.16278e-21)
(-0.00140036 0.00451339 3.11083e-18)
(-0.00899736 0.00351881 6.53259e-18)
(-0.00237971 -0.000445297 1.81023e-17)
(0.00120788 0.00387512 -2.3433e-17)
(0.000751174 0.00168213 -2.63615e-18)
(0.00180297 0.0047613 1.0752e-17)
(-0.0170143 0.000791123 2.01039e-18)
(-0.000229603 0.000374647 5.3666e-19)
(-0.00760971 0.00458524 5.8029e-18)
(0.00020935 1.11073e-05 -3.55224e-19)
(0.00332498 0.00489589 -2.02288e-17)
(0.000307296 0.000304292 -5.22549e-18)
(0.00153965 0.00457945 -1.0861e-18)
(8.29563e-05 8.35807e-05 -5.87214e-18)
(0.00069983 -0.00122292 -1.04005e-19)
(0.00057646 0.000430437 -1.98053e-18)
(0.014344 0.035288 -9.93785e-19)
(0.00074574 0.0023906 1.21243e-17)
(-0.0133837 0.00276677 9.60102e-18)
(-0.000827759 4.77863e-05 1.04603e-19)
(0.000727146 0.00226396 -1.68831e-18)
(0.000275832 0.000286723 -1.50764e-19)
(-0.00092826 3.70955e-06 3.44741e-20)
(-0.0149407 0.000786705 -3.36303e-18)
(-0.000214595 -0.000625741 -7.69703e-19)
(0.000350974 0.000366808 2.76008e-20)
(5.1541e-05 0.00421401 -3.75161e-19)
(0.000247703 9.2174e-05 -1.31637e-17)
(5.17162e-05 0.000420259 1.60617e-19)
(-0.00102388 -1.019e-05 7.53529e-20)
(-0.0151114 0.000987895 3.12811e-18)
(0.000163257 0.000139905 -4.7548e-19)
(0.00110094 0.000127859 -3.53083e-19)
(-0.00146026 0.000357673 -4.14298e-21)
(0.000303831 0.000344312 -6.66375e-19)
(0.000615662 0.00470941 2.33983e-18)
(-0.00112487 -1.82407e-05 -4.17744e-21)
(0.000330161 0.00420958 -4.24336e-18)
(-0.000466511 1.65716e-05 -6.66547e-19)
(-1.11659e-05 5.85205e-05 -8.42075e-19)
(-0.00538791 0.00860863 2.19262e-19)
(0.00237708 0.00384042 9.41072e-18)
(0.000175298 0.000347095 1.12422e-18)
(-0.0208424 -0.000497045 1.15154e-17)
(0.00159041 0.0060883 -2.12879e-17)
(0.0024152 -0.000490529 -5.99847e-21)
(-0.000961562 0.00422554 -1.57479e-18)
(-2.90497e-05 0.000154194 2.70458e-19)
(-0.00011056 0.000377412 1.23408e-20)
(-0.0140816 0.000491746 3.25807e-18)
(0.00148992 0.00660626 -1.06861e-18)
(-0.000116739 0.000639054 -4.70483e-18)
(9.58971e-05 0.000603755 -6.70841e-19)
(0.000529862 -0.00139116 -2.82609e-19)
(-0.0004941 2.09715e-05 -1.8007e-19)
(0.000124496 6.19125e-05 1.11935e-18)
(-0.00659335 -0.00653632 6.12846e-20)
(0.000333519 0.00353857 4.27699e-18)
(0.000421336 0.00110869 2.9915e-18)
(-0.00726703 0.00545328 5.29616e-18)
(0.000833428 0.00245352 -1.17675e-17)
(0.00329463 -0.00243807 3.59716e-20)
(-0.00623748 0.00530993 -9.92214e-19)
(-0.00286217 -0.00328896 -5.84975e-20)
(0.000188611 0.00195827 2.52643e-18)
(3.12288e-05 0.00433458 1.67823e-18)
(-0.0166474 0.000499709 -6.52803e-18)
(-5.033e-05 0.000483241 -3.69021e-19)
(-0.00173492 -0.000442414 4.94827e-19)
(-0.00612902 -0.00841478 2.31446e-20)
(-6.72346e-06 5.49771e-05 8.94381e-19)
(-0.00066533 3.93057e-05 -7.08606e-19)
(-0.00116648 1.17147e-05 -1.34913e-20)
(0.000668115 0.00206954 7.74783e-21)
(0.000127218 1.15028e-05 -3.62074e-19)
(-0.0175809 0.000309602 -1.15589e-17)
(0.0024336 0.00232616 -3.91391e-18)
(-0.000189059 3.26976e-05 -3.14779e-19)
(0.00138441 0.00440884 5.44753e-19)
(-0.000825263 5.34946e-05 1.66384e-19)
(-0.013479 0.000548844 1.55999e-18)
(-0.000119192 0.000521463 3.99202e-19)
(0.000154215 0.00012382 -1.36984e-18)
(-0.023687 0.00179688 -6.21761e-19)
(0.00058053 0.00340323 2.39426e-17)
(-0.0132644 -0.0409884 1.92293e-19)
(0.000690043 0.000522987 -1.1032e-17)
(-0.00270467 0.00138923 7.58357e-20)
(0.000157407 0.000205677 -8.81863e-19)
(0.000898246 0.000695659 8.68642e-18)
(0.00119865 0.00188751 1.25665e-17)
(8.76995e-05 6.96996e-05 -1.5434e-18)
(-0.0198038 5.31074e-05 1.50681e-17)
(0.000146838 0.00141094 8.46967e-19)
(-0.0287457 -0.054047 1.79305e-18)
(-0.0082929 -0.0286791 1.56975e-20)
(-0.00165629 -0.000868279 -5.75873e-19)
(-0.0230991 0.00301337 -1.61783e-18)
(0.000976827 0.000835074 -7.92621e-18)
(-0.000254777 1.69357e-05 -1.37579e-18)
(0.000309368 0.000301555 1.35638e-18)
(-0.019078 0.000876915 3.38016e-18)
(-0.00468962 -0.00599702 -4.10591e-19)
(0.000517403 0.0013174 2.56718e-18)
(-0.0191618 0.000187285 7.61493e-18)
(0.0071961 -0.00187465 -1.40125e-19)
(-7.55318e-06 6.82208e-05 -3.03295e-18)
(0.000147769 0.000149873 -9.22773e-19)
(9.80076e-05 0.00053499 -1.31899e-18)
(-0.0134388 0.00650454 -3.0459e-18)
(-0.0145543 -0.0294724 -6.02333e-20)
(0.000663108 0.00238685 5.78707e-18)
(0.000855481 0.000679508 2.83845e-18)
(0.00120036 0.00118523 1.19117e-18)
(0.00364669 0.00498236 2.09135e-17)
(0.000497146 4.77443e-06 1.43763e-18)
(0.000201319 0.00414586 -1.13143e-18)
(0.00238331 0.00237491 4.43552e-18)
(0.000135382 0.000372414 -2.5793e-19)
(0.000557197 0.000759062 7.78401e-18)
(-0.000238901 1.58937e-05 -3.17893e-19)
(0.00118382 0.00184919 -1.04118e-17)
(0.000777302 0.00013031 -8.58002e-19)
(0.00186178 0.00672195 1.04996e-18)
(0.000155097 0.00078353 -6.08119e-19)
(0.00114324 0.000290536 1.832e-20)
(-0.0194699 3.11807e-05 6.13377e-19)
(-0.00318106 -0.000240722 6.85421e-21)
(0.000290106 -0.00857993 -6.82417e-19)
(0.000124326 0.000607567 1.75129e-18)
(0.000102143 0.000307411 1.75774e-18)
(0.000701729 0.00139421 5.93885e-18)
(0.00204787 0.00663261 -1.61791e-18)
(-0.00066354 2.61701e-05 8.72649e-20)
(0.00294583 0.00361973 -1.58154e-17)
(-0.00826051 0.00364955 -2.28216e-18)
(0.00476885 -0.00733516 5.36145e-20)
(0.000346598 0.000321069 4.78797e-18)
(0.00017198 0.000811965 -8.42663e-18)
(0.000127996 7.69736e-06 -1.10218e-18)
(0.000289796 0.000233414 6.45483e-18)
(0.000585382 0.000394565 -2.01973e-19)
(-0.000763283 -0.000642347 -7.42663e-19)
(-0.00348124 -0.00138267 3.16543e-20)
(-0.00120889 0.00445923 4.17281e-18)
(0.00023841 0.00421584 1.07585e-17)
(-5.15864e-05 0.000163981 -9.68141e-19)
(0.00184425 0.00694111 4.69011e-18)
(0.00188545 0.00136397 1.05211e-17)
(0.00160671 0.00153326 -4.32646e-18)
(9.35442e-05 0.00427699 -2.9232e-18)
(7.36976e-05 0.000160057 -1.3459e-19)
(0.00267762 0.00379045 -7.99786e-18)
(-0.000449188 -0.00243184 2.03498e-20)
(-0.000793182 0.000205622 2.03392e-20)
(0.000657586 0.00341762 -4.26553e-19)
(-0.00100785 0.00295752 3.60142e-18)
(0.00234627 0.00235591 1.55627e-18)
(9.32125e-05 8.60144e-05 -3.59138e-19)
(1.43528e-05 0.000130597 1.21042e-18)
(0.000128366 6.61091e-05 8.44951e-19)
(-0.0159298 8.65753e-05 1.20982e-18)
(0.000535567 0.000715789 2.32994e-18)
(-0.00013761 0.000509913 2.0804e-19)
(0.00276587 0.00270035 -1.1594e-17)
(8.63031e-05 7.00929e-05 1.35043e-18)
(5.90026e-05 0.000138373 -3.49072e-18)
(-0.000335224 0.00393594 2.78025e-18)
(-0.000415036 -0.00163572 -3.33957e-20)
(-0.00109777 -0.00165813 -7.11359e-19)
(-0.00118438 -0.00196613 -9.18031e-19)
(-0.000522141 0.000706852 1.55257e-18)
(-0.0178731 0.00580758 1.73133e-17)