/*--------------------------------*- C++ -*----------------------------------*\
| =========                 |                                                 |
| \\      /  F ield         | OpenFOAM: The Open Source CFD Toolbox           |
|  \\    /   O peration     | Version:  v2012                                 |
|   \\  /    A nd           | Website:  www.openfoam.com                      |
|    \\/     M anipulation  |                                                 |
\*---------------------------------------------------------------------------*/
FoamFile
{
    version     2.0;
    format      ascii;
    class       volVectorField;
    location    "450";
    object      ddtCorrDdt0(U);
}
// * * * * * * * * * * * * * * * * * * * * * * * * * * * * * * * * * * * * * //

dimensions      [0 1 -2 0 0 0 0];


internalField   nonuniform List<vector> 
13917
(
(-0.0149585 0.000297301 -3.14494e-18)
(0.000113371 0.000216226 -5.0111e-19)
(-0.000119046 0.00532632 -2.61366e-18)
(0.000409143 0.000756493 -1.09055e-17)
(0.000915701 -0.000664435 -8.6753e-19)
(0.000120524 0.000287443 -5.79217e-20)
(0.000706643 0.0016593 1.36645e-17)
(-0.000600792 -0.00113522 -5.51623e-19)
(0.00144086 0.00134401 -8.97191e-18)
(0.00026391 0.000595349 -2.66992e-17)
(-0.000453279 -0.000974471 -8.98219e-19)
(0.000115999 0.000512903 1.26224e-18)
(4.69141e-05 7.41264e-06 7.96625e-20)
(-0.00195126 0.000691859 6.47376e-19)
(-0.000288791 0.000342489 -1.10804e-18)
(-0.0144601 0.000202892 -2.27235e-18)
(-0.000817943 1.78607e-05 -9.41483e-20)
(-0.00059797 -0.0005152 -2.69822e-19)
(0.000326337 0.00445325 5.77808e-18)
(-0.0133793 1.38863e-05 -4.32795e-21)
(-0.000515788 0.000710258 -6.55297e-18)
(-7.62577e-05 4.18544e-05 -1.70247e-18)
(0.000648392 0.00295869 1.03358e-17)
(-6.78673e-05 3.86797e-05 5.92525e-19)
(0.000152669 0.000930541 1.32877e-18)
(-0.000539567 0.000587477 4.90721e-18)
(-0.00345872 -0.0031006 1.30186e-19)
(-1.87744e-05 0.000628025 2.76877e-17)
(-0.00061805 0.000189984 4.56939e-19)
(-0.00167702 -0.000503873 7.83594e-21)
(0.000104726 0.000913692 -6.69288e-18)
(0.00146776 0.00390654 -1.24541e-18)
(0.000212436 0.000731032 3.24023e-18)
(-0.0163449 0.00102657 -4.71009e-18)
(6.83595e-05 0.000490919 -1.79381e-19)
(-0.000413894 -0.00158334 3.37544e-19)
(-0.000187929 0.000573358 -4.38163e-19)
(-0.00023177 2.15615e-06 -1.85366e-18)
(0.000757925 0.00168683 1.18448e-18)
(-0.000661726 0.00119643 -5.10377e-18)
(-0.000796736 8.66883e-06 -6.38383e-20)
(-0.000820988 0.00128152 7.51306e-21)
(0.0012478 0.00107366 -8.64965e-18)
(0.000757548 0.00467618 6.66142e-19)
(0.000707763 0.00460714 8.93083e-18)
(-0.00189252 0.0046315 -3.44732e-18)
(-0.000481429 0.000735941 1.81024e-18)
(-0.000737312 -0.00361805 -8.64878e-18)
(0.00281056 -0.00389212 1.18349e-19)
(9.59858e-05 0.000460595 4.77178e-20)
(0.000106151 0.000494536 -4.10188e-18)
(-0.000903482 0.00394715 -6.63693e-18)
(-0.0174793 -0.000176926 2.96498e-18)
(-9.19439e-05 0.000324137 -1.97956e-18)
(-7.26356e-05 0.000372021 2.19045e-18)
(-0.000801111 0.00396219 7.36037e-18)
(0.000534915 0.00100958 5.28306e-18)
(0.000589709 0.0029124 9.6735e-18)
(-0.000888337 0.00116912 2.96237e-20)
(-0.0020737 0.00462198 8.91647e-19)
(-0.00663164 0.0083424 -1.56453e-19)
(0.000550315 0.00342495 6.0176e-20)
(-0.00107549 -3.33982e-05 -4.09832e-21)
(0.000162092 0.000907817 -1.05504e-17)
(-0.0134403 0.0032116 1.22142e-17)
(-0.00771454 -0.00122077 4.25437e-20)
(-0.000628502 2.3277e-05 1.59982e-19)
(-6.25082e-05 -0.00166032 6.16451e-19)
(-0.000710142 -0.000671007 9.21629e-19)
(-0.0164521 0.000189773 6.22155e-18)
(-0.00928544 0.00421666 -1.18499e-17)
(-0.0161827 0.000842809 -2.41581e-18)
(0.000466331 0.000451602 8.83235e-18)
(-0.00082844 0.00107023 -8.34408e-20)
(-0.000534612 0.00072354 4.74516e-18)
(-2.50092e-05 0.000855082 -2.42583e-18)
(0.00020148 -0.000319726 1.16109e-18)
(-0.000874263 0.000991857 4.21692e-20)
(-5.96657e-06 0.000839482 -4.67919e-18)
(0.000211189 0.000748743 -2.41871e-18)
(-0.000164858 0.000228988 -1.41148e-18)
(-0.00071566 1.84581e-05 3.14295e-19)
(0.00046033 0.000432027 -1.18209e-17)
(-0.010715 0.00480428 8.40113e-18)
(-9.72965e-05 6.6103e-05 -1.00828e-18)
(-0.00209028 0.000511519 -6.65605e-21)
(0.00145985 0.00382101 3.44668e-18)
(-0.000107415 3.2271e-05 -3.57546e-18)
(-0.000628969 0.00115173 3.5202e-18)
(-0.000908457 2.54046e-05 4.89686e-20)
(-0.00107095 6.47604e-05 -1.58449e-20)
(0.00130073 0.00109813 -8.1516e-18)
(0.00324828 -0.00222587 7.14435e-20)
(-0.000166304 0.000452705 4.77109e-19)
(-0.000128854 0.000385225 2.30318e-18)
(-0.0006802 0.000142728 9.81528e-19)
(0.000477205 -0.00251967 -2.79176e-20)
(-0.00046775 1.45877e-05 -3.66781e-20)
(-9.80475e-05 3.68273e-05 4.42787e-18)
(-0.00121528 -0.00018208 -6.30273e-21)
(-0.0010872 -1.29378e-05 -7.45137e-21)
(-0.00117121 -1.096e-05 -1.09021e-20)
(-0.000167787 0.00024399 1.95845e-18)
(-0.000461252 2.91508e-05 6.97447e-19)
(0.00023983 -0.000272678 -1.06492e-18)
(-0.0151478 0.00621871 -3.18839e-18)
(-0.0129283 -0.000273789 3.34151e-18)
(-0.000100786 0.00367759 7.75468e-20)
(-0.000894777 0.00143433 3.80018e-20)
(-0.00442992 -0.00379685 4.14015e-19)
(0.000191488 3.36575e-05 -1.00736e-17)
(-0.0162738 0.00113338 2.51901e-18)
(-0.000654139 0.000288739 3.58032e-18)
(0.00514288 -0.00397368 1.3179e-17)
(-0.0131396 0.00337526 -1.00961e-17)
(-9.70191e-05 0.000837533 2.00973e-18)
(0.000368329 0.004405 7.99752e-18)
(-0.00128582 3.1445e-05 -3.33805e-20)
(0.000454539 0.00511289 -9.03443e-18)
(0.000467879 0.000320725 3.88299e-18)
(-0.000760076 2.52486e-05 -1.22548e-19)
(-0.000723383 0.000863187 -4.51737e-21)
(-0.000705863 -5.04174e-05 -5.89812e-19)
(-7.99556e-05 0.00395017 -1.58091e-19)
(-0.018868 0.000198357 -8.0201e-18)
(-0.0126215 0.00457613 -7.57117e-18)
(0.000202084 0.000893397 -2.07191e-18)
(-0.000561172 0.000716145 3.60004e-18)
(-1.91464e-05 0.000109578 1.25281e-18)
(-3.23241e-05 0.00400605 7.09567e-18)
(0.0014891 0.00224302 -1.73911e-17)
(-0.0033706 0.00294029 -7.23416e-19)
(-0.0217731 0.0030703 1.44786e-18)
(-0.000110099 0.000816594 -1.65641e-18)
(0.00129894 0.00422679 -1.21604e-17)
(-0.00438664 -0.0046439 -6.33669e-19)
(-0.00759896 0.008287 -2.49804e-18)
(-0.0210942 -9.02745e-05 8.927e-18)
(-0.000556901 0.000519596 -1.73141e-18)
(-0.000155631 2.28074e-06 -5.99229e-19)
(-0.023182 -0.016564 1.43029e-19)
(-0.000825704 0.000926616 -6.52895e-20)
(-0.0143587 0.00645397 8.23224e-18)
(-0.000134979 9.4269e-05 5.72164e-19)
(0.000385784 0.000415105 1.93921e-18)
(-0.00216721 0.00223179 -3.38078e-20)
(-0.00877989 0.00441973 -5.73174e-19)
(-0.0147343 0.00846639 -4.24838e-19)
(-0.004368 -0.0029883 -1.26513e-18)
(-8.89537e-05 0.000341903 2.05991e-18)
(-0.000553609 0.00112131 -1.76685e-18)
(-0.00120091 -2.05274e-05 -7.06397e-20)
(0.000380595 0.000391234 3.95561e-18)
(0.000485808 0.000313411 2.50466e-18)
(0.000617272 -0.00348389 2.11044e-19)
(0.000103897 9.68427e-07 -8.22641e-19)
(-0.000470841 3.61013e-05 -6.62295e-19)
(-0.0225168 0.00264076 1.14676e-17)
(-0.00110608 9.36494e-06 -1.21578e-20)
(-0.0012473 2.9957e-05 5.83414e-20)
(-0.000131852 0.000111658 9.1599e-19)
(-0.0111561 0.00225418 -8.1033e-18)
(-0.000235017 0.000452588 1.41846e-18)
(-0.02178 -0.0186385 -2.19181e-19)
(-0.00755019 0.00280361 -9.70441e-18)
(-0.00116978 -0.000909606 3.70021e-19)
(-0.0114741 -0.000174897 -3.29392e-18)
(0.000340836 0.00280966 -1.71399e-18)
(-0.00117153 -0.000170343 -1.39192e-20)
(-0.000592956 0.000491805 -2.46375e-19)
(-4.19445e-05 1.36731e-05 2.37469e-18)
(-0.0197924 0.00301948 8.30621e-20)
(0.00146604 0.00129981 -1.8439e-18)
(-0.0115948 0.00733831 1.5184e-18)
(-0.000936802 0.0028996 3.91519e-18)
(-0.00123196 -6.00231e-06 2.8494e-20)
(0.000437424 0.000753593 -1.10265e-18)
(-0.00107654 0.00407049 5.92556e-18)
(0.00148972 0.0021754 1.86524e-17)
(-0.000237315 0.000427143 -2.72605e-18)
(0.0011612 0.00109048 1.53797e-18)
(-4.93322e-05 2.14525e-05 -1.07408e-20)
(8.85298e-05 0.000488859 -6.19159e-18)
(-0.000453964 0.00453632 1.08554e-18)
(0.00037273 0.005076 6.38476e-18)
(-0.00360737 0.00275043 1.98718e-18)
(7.8931e-05 0.000471998 4.33235e-18)
(-0.000510194 0.00457055 3.40607e-18)
(-0.00169422 -0.000453536 -2.72599e-21)
(-0.00180807 0.000352478 7.09708e-19)
(-0.0010217 0.00284242 -6.32642e-18)
(0.000776363 0.00450205 1.69068e-17)
(-0.000462145 0.0043152 -2.03551e-18)
(-0.0146415 0.000309991 -1.7693e-18)
(-0.000144592 0.000444291 -9.35674e-19)
(-0.018508 0.000207519 -7.79803e-18)
(6.73137e-05 0.00127717 8.07561e-18)
(-0.0217306 0.00345187 1.15834e-18)
(2.33802e-05 0.000475823 1.38832e-19)
(7.36714e-05 2.31198e-06 -7.25884e-19)
(-0.000415721 0.000762386 4.64157e-18)
(-0.0160551 0.000213453 -2.98754e-18)
(-0.0208545 -0.000223149 -1.96757e-18)
(-0.000183908 0.000464931 6.87874e-19)
(-0.0048806 -0.000826374 4.03046e-20)
(-0.000341554 0.000277743 5.87668e-21)
(-0.00057746 0.00116811 -1.89781e-18)
(-0.000745943 0.000933154 4.97621e-20)
(-0.000962472 0.00405376 1.72603e-18)
(-0.000168415 0.000207422 -6.38939e-19)
(-0.000160487 0.000137073 -2.73763e-18)
(0.00199844 -0.00102799 4.55073e-19)
(0.00227338 -0.00128308 7.03481e-19)
(-0.00461858 -0.00300668 5.59874e-19)
(0.00136332 0.00416695 -1.51159e-18)
(-0.000563968 0.000574846 -4.42848e-18)
(-0.0136875 0.0018029 1.62011e-17)
(-0.000222347 4.98668e-06 3.30809e-18)
(-0.00111923 0.000459459 3.1052e-19)
(-0.00114157 0.000456491 -6.5493e-20)
(0.00320826 0.00139902 -1.07518e-17)
(-0.000428837 0.00441091 7.84276e-19)
(-0.00105182 0.00470043 -3.0073e-18)
(0.000121283 9.69333e-05 2.32346e-18)
(-0.0009283 -1.06459e-05 -4.69299e-21)
(-0.00484656 -0.00540028 1.0948e-18)
(-0.0180894 4.62794e-05 9.17362e-18)
(-0.00109109 0.00038646 -5.09958e-20)
(-0.00109392 0.00037157 1.38936e-19)
(-0.000723563 2.65369e-05 -1.00739e-21)
(-0.00116014 0.000488909 5.74038e-20)
(-0.00118359 0.000486482 -1.00968e-19)
(-0.0159831 0.000743412 -2.56477e-18)
(-0.00874593 -0.00202377 1.44269e-17)
(-0.000132392 0.000110989 2.16206e-18)
(-0.00125248 -0.000273173 -2.6316e-21)
(-0.000469856 0.00339296 4.78248e-18)
(-0.016822 0.000686457 3.38113e-18)
(-0.00108141 1.37238e-05 9.27551e-20)
(0.00011231 8.78494e-05 1.19997e-20)
(-0.00469081 -0.00176969 -3.88546e-20)
(-0.0156441 0.00637771 2.31465e-18)
(-0.00025264 0.00449065 -4.47094e-18)
(-0.0139524 0.00169392 -8.19689e-18)
(-0.00141256 0.00329551 1.11905e-18)
(-0.000134679 9.77474e-05 4.68679e-18)
(-0.00461208 0.00291712 1.19667e-18)
(-0.000442017 0.00348777 -4.42047e-18)
(-0.000607055 0.00033097 -3.88698e-18)
(0.00058121 0.00390054 1.21387e-17)
(-0.000174064 0.000468242 1.56342e-19)
(-0.00873842 -0.00240541 -9.0757e-18)
(0.0004672 0.000353787 9.46506e-19)
(-0.000579103 0.00185304 4.17621e-18)
(-0.000787257 0.00279917 -1.65982e-18)
(-0.000126668 8.50457e-05 1.5452e-19)
(-0.000457667 6.58254e-06 4.1257e-20)
(0.000191353 0.000915586 8.18193e-18)
(0.00081464 0.000219912 8.39795e-19)
(-0.000202076 0.000553094 -4.81166e-19)
(-0.0190138 0.000516097 -1.13638e-17)
(-0.00704416 -0.00961753 7.53757e-20)
(-0.000464891 0.000791307 2.13695e-19)
(-0.00106973 0.000351368 8.77452e-20)
(0.000123121 -1.12654e-05 1.28374e-18)
(-0.00105131 0.000355121 -4.77429e-20)
(0.000479623 0.000344708 3.34976e-18)
(5.99886e-05 1.2553e-05 -2.59913e-18)
(0.000157353 0.00229355 -1.85074e-19)
(-0.000434926 0.000847435 -1.02633e-19)
(-0.0219427 1.54935e-05 7.20452e-19)
(-0.0127028 -9.49713e-05 -2.07938e-18)
(1.97958e-05 0.00035447 -4.40451e-18)
(0.000520124 -3.2088e-05 8.91498e-19)
(-0.00156842 0.00489946 1.92459e-18)
(-0.00147891 0.000360961 1.02251e-20)
(-0.00117886 0.0002516 7.16552e-19)
(-0.0191916 0.000727942 5.04664e-18)
(-0.00146299 0.000373508 -3.37549e-21)
(-0.0167062 0.000414731 8.37927e-18)
(-0.00021207 0.000529223 6.2536e-19)
(-0.0108217 0.00248298 6.60051e-18)
(-0.00111796 -3.02841e-06 -1.62486e-20)
(-0.000303795 0.000251404 -9.33052e-19)
(-0.000129837 7.74536e-05 -1.08072e-18)
(-0.000130924 7.71707e-05 1.995e-18)
(-0.000102772 0.00447288 6.92488e-19)
(-0.000292589 5.86833e-06 1.17581e-18)
(-0.00125216 -0.00148077 3.67295e-19)
(-0.000169296 0.0013123 1.93877e-19)
(-0.00438421 -0.0104983 9.74244e-22)
(-0.0021571 0.00274599 1.12561e-20)
(-0.00445083 0.000188733 3.77827e-19)
(-0.0217427 -0.000188412 -8.70554e-18)
(-0.00119015 2.96543e-05 6.6717e-20)
(0.000160886 0.00303902 1.14111e-17)
(0.000937927 -9.68868e-05 1.15341e-18)
(-0.000147891 0.000799443 1.53485e-18)
(0.000914501 -0.000475924 -6.96164e-20)
(2.05009e-05 0.000865288 -8.8286e-18)
(-0.000182457 0.000488546 -2.35835e-19)
(-0.000311684 8.88084e-06 1.84534e-19)
(-0.00129272 0.0039787 3.22336e-18)
(-0.00213484 -0.00414057 1.00295e-19)
(-0.000535026 0.00183111 -5.58554e-18)
(3.648e-05 0.000849061 1.99997e-18)
(9.33949e-05 8.37176e-05 1.1578e-17)
(-0.0223304 0.00291323 -1.13884e-17)
(-0.0156204 0.000119513 -1.63069e-18)
(-3.27107e-05 0.000159042 1.16558e-18)
(-0.00849348 0.0024036 1.16924e-19)
(-0.000131853 0.00082379 2.82437e-18)
(0.0136304 -0.00150775 -3.81554e-19)
(0.00160165 0.00536353 -7.79163e-19)
(-0.0135909 0.000348684 -7.5369e-18)
(-0.0110889 0.00670832 -4.37449e-18)
(-0.00746228 -0.00599726 4.57943e-21)
(-0.00287061 0.00282544 1.59543e-18)
(0.00045036 2.65816e-05 -1.27044e-18)
(-0.00806414 0.00495983 -6.63092e-19)
(0.0167014 -0.00400997 -1.82668e-19)
(4.55026e-05 0.00539736 4.67895e-18)
(7.75996e-05 1.11308e-05 8.8815e-19)
(-0.000309498 0.000311043 6.38274e-19)
(-0.00382125 -0.00216853 -3.27353e-20)
(1.59926e-05 -1.65971e-05 -3.07304e-19)
(0.000189368 0.000155318 -3.27507e-19)
(0.000725508 0.00443598 -1.15016e-17)
(-0.00089696 2.22106e-05 1.99719e-19)
(-0.019586 0.00309525 -5.71539e-18)
(-0.000100579 5.01587e-05 -4.94363e-18)
(0.00221392 0.00268045 1.39609e-17)
(-0.00165423 0.000374185 6.50135e-20)
(-0.0106497 2.0663e-05 1.27451e-17)
(-0.000250946 6.55229e-05 2.13894e-18)
(-0.000432097 0.00184653 -2.44435e-20)
(-0.000370487 0.000273466 -1.23311e-18)
(-0.00711543 -0.0068463 2.17245e-20)
(-0.00100705 2.34096e-05 5.80357e-20)
(0.000717673 0.00395924 -1.32594e-17)
(-0.0109479 0.00672139 2.9975e-18)
(-0.000111591 0.000400687 -2.86904e-18)
(3.13209e-05 -1.35655e-05 8.78412e-19)
(-0.0164618 0.00136214 1.01655e-17)
(-0.0122426 0.00674129 2.88133e-18)
(-0.00905644 0.00445746 -6.6601e-18)
(-0.00363796 -0.000863386 -6.96599e-19)
(-0.00143239 0.000355748 7.69955e-21)
(-0.000142439 0.000161246 1.19587e-19)
(-0.0169457 0.00615424 1.14062e-18)
(-0.00271517 0.00299368 1.68681e-18)
(-0.00141299 0.000372173 -6.7592e-21)
(0.00106703 -0.000261413 -2.6782e-19)
(-1.06033e-05 0.000419363 3.43218e-18)
(-0.000799611 0.000688275 1.86057e-18)
(-0.000463773 0.0018785 -1.2163e-18)
(-0.000361311 0.00410423 -2.84311e-18)
(-0.00186286 0.00261151 2.43541e-18)
(-0.00104414 0.000281707 1.46901e-18)
(0.00192771 0.00273234 -7.86819e-18)
(-0.015217 0.000672816 5.93449e-18)
(-8.08536e-06 9.92721e-05 -1.30453e-18)
(-0.00010216 0.000415131 -2.14439e-18)
(0.00110134 -0.000806841 3.67643e-19)
(0.000165252 0.00469871 -3.25105e-18)
(-0.000957454 1.64847e-05 -8.4388e-20)
(-0.0144087 0.000233306 5.92832e-18)
(0.00197208 0.0026877 5.20267e-18)
(-0.00239513 -0.0361746 -4.5443e-19)
(-7.88237e-05 0.000376071 2.72732e-18)
(-0.00238671 0.00288246 -7.24281e-19)
(-0.00729294 0.00385121 7.24356e-20)
(0.00698265 0.00396198 5.39831e-20)
(-0.00121332 0.00100577 -3.05345e-20)
(-0.000927277 0.00465455 -6.51156e-18)
(-0.00147241 0.00483993 -4.65895e-18)
(-0.000391428 0.000228378 1.02431e-18)
(1.47645e-05 0.000365589 -1.51411e-17)
(0.000685886 0.00476909 6.84226e-18)
(-0.00159454 0.000521277 -2.28921e-20)
(-0.00729391 0.00364263 4.40036e-18)
(-0.000427789 0.00436414 -3.83332e-18)
(-0.00127542 0.000902923 1.23843e-20)
(0.00609517 0.00123452 -7.39002e-20)
(-0.000117661 1.69506e-05 -1.46486e-18)
(0.014351 0.0210529 7.93616e-19)
(-0.000370434 0.000355237 2.00183e-18)
(-0.0137802 5.9964e-06 1.06063e-17)
(0.015597 0.0218762 -6.84142e-19)
(-0.000140086 0.000629131 2.99126e-19)
(-0.00553488 -0.00528444 -7.36379e-19)
(-0.000991511 0.000528543 -4.93174e-19)
(-0.000160716 0.00044627 -5.4003e-18)
(-0.00905934 0.00335151 1.20139e-17)
(0.00243902 0.00662079 2.09647e-18)
(-9.41548e-05 0.000641968 -3.98276e-19)
(-0.000125881 0.00447018 -2.38542e-18)
(-0.000139517 0.000198196 -3.52587e-19)
(-0.000878469 0.000492797 -8.4136e-20)
(0.000154851 0.00526208 8.36555e-18)
(-9.57026e-05 4.43938e-05 5.50279e-18)
(0.00102404 0.00158263 -1.25815e-17)
(6.04878e-05 0.000868457 -3.40518e-18)
(-0.000138713 8.37617e-05 -3.11137e-18)
(-0.000203203 5.0263e-05 3.02907e-18)
(-8.77059e-06 7.90378e-05 8.52998e-20)
(-0.00235704 0.00916052 8.22411e-20)
(-0.00163757 -0.000686804 -1.58164e-19)
(-9.02383e-05 0.000399128 -2.73259e-18)
(2.75618e-05 8.28074e-05 -1.68714e-19)
(-8.26671e-05 5.22853e-05 -4.28467e-18)
(-0.000130687 0.00279824 -1.34384e-18)
(0.00165747 -0.0020652 1.69017e-19)
(-0.00162024 0.00032176 -5.48763e-20)
(-0.00117698 -0.000152834 2.53485e-21)
(0.0015453 0.00525512 4.22348e-18)
(-0.00240003 0.0026903 -7.06036e-19)
(-0.000127474 7.88056e-05 -2.98942e-18)
(-0.000125153 0.000626667 -9.19086e-19)
(-0.0102949 0.00576796 1.59531e-18)
(-0.00116541 -0.000176041 2.45058e-19)
(-0.0063708 -0.0016141 -2.18715e-20)
(0.000343312 0.00453468 -1.39392e-17)
(-0.00339713 0.00535264 -6.71672e-19)
(-0.00121135 0.000810037 7.67894e-21)
(-0.00158561 0.000324939 -4.99875e-20)
(-0.000415316 0.00061805 -2.58037e-18)
(-0.000206608 4.845e-05 -9.55923e-19)
(-0.00161318 0.000329666 5.12527e-20)
(-0.000134959 0.000104616 1.643e-18)
(-0.0015768 0.000337363 1.21308e-20)
(-0.0012492 0.000780762 -4.49713e-21)
(-0.00479756 0.000809089 3.57848e-18)
(-0.00014106 0.000210775 3.1809e-18)
(-0.00072951 0.00132173 4.09233e-18)
(-0.0219346 0.000115231 -9.07642e-18)
(0.000110994 0.00296462 -4.83812e-18)
(-0.000146355 0.000134189 2.24373e-18)
(0.000357975 0.000381857 -1.45891e-18)
(-0.00929818 0.00300147 1.81909e-18)
(-0.000413707 0.000707408 -3.79606e-19)
(-0.0187551 0.000110808 -2.60005e-18)
(-0.0016547 0.000335702 3.37134e-20)
(8.21529e-05 0.000194614 2.1224e-18)
(-0.00150684 0.000498611 8.0376e-20)
(-0.00120754 0.000518964 1.89931e-19)
(-0.000180049 0.000552081 6.30234e-19)
(-0.000102614 -2.72572e-05 -2.7424e-18)
(-0.0102225 0.00569005 -1.84496e-18)
(-0.00269961 -0.00130755 4.13469e-20)
(-0.0166854 0.00614266 1.11009e-18)
(7.11698e-05 0.000191915 2.0524e-18)
(0.00111268 0.00245536 -5.92224e-18)
(-0.00402904 -0.00031104 4.08471e-20)
(-0.000161967 0.000193173 -5.57833e-20)
(-0.00128212 0.00333688 4.87499e-19)
(-0.00920597 0.0046724 1.2399e-17)
(-4.84957e-06 0.000412297 -5.8396e-18)
(0.00027665 -0.00381738 -1.05642e-18)
(-0.000132239 0.000120997 -9.59396e-19)
(-0.000241513 1.60411e-05 -3.19725e-18)
(-8.42893e-05 5.3627e-05 4.4928e-18)
(-0.000123983 2.84476e-05 -9.00817e-19)
(-0.000190207 0.000142223 9.1334e-19)
(-0.000160716 1.63969e-05 8.9327e-19)
(-0.0220203 0.00281523 -2.502e-18)
(-0.0100993 0.00781709 -1.32032e-18)
(-0.000205075 0.000142678 -1.72457e-18)
(-0.00463777 0.00058831 -3.55558e-19)
(0.00135002 0.00515218 1.77146e-18)
(0.000120121 2.59127e-05 3.6641e-18)
(1.40558e-06 0.00310991 7.80961e-18)
(0.002656 0.00405727 7.24533e-19)
(-0.00882393 0.00222494 9.78923e-18)
(0.00113195 0.00169261 -1.18449e-17)
(-0.0149603 0.00621952 -3.38177e-18)
(-0.00531813 -0.0208738 -4.64409e-20)
(-0.00541125 -0.0211567 2.58565e-20)
(-0.000112141 -1.52202e-05 2.53637e-18)
(-0.00821291 -0.00310118 -4.73808e-20)
(-0.00489724 7.45904e-05 -1.35119e-19)
(-0.000171079 0.0004463 -1.62784e-18)
(-0.00373171 0.00477503 -1.61298e-18)
(-0.00104645 6.1495e-05 -9.99166e-20)
(-8.64084e-05 0.000320169 3.94943e-18)
(-0.000121213 0.000402332 1.06147e-18)
(0.00120222 0.00148845 1.12258e-17)
(-0.000495114 0.000846638 -1.23419e-18)
(0.000269462 0.00490972 1.43813e-18)
(0.000846749 0.00332784 -9.8584e-18)
(-0.00046583 0.0025792 -3.86016e-20)
(0.000652568 -1.66312e-05 2.17614e-19)
(-0.000735081 -0.000302244 -2.34711e-19)
(-0.00108498 0.00144761 2.15346e-18)
(-9.46949e-05 0.000386104 -2.8991e-18)
(-0.000527914 0.00208582 4.08125e-19)
(0.00042091 0.00238317 1.66174e-17)
(-0.000136503 0.00134369 7.43989e-18)
(-0.00793681 0.0049314 3.2751e-18)
(-9.36344e-05 5.93391e-05 3.2145e-18)
(-0.00116551 0.00143838 -3.48177e-18)
(-0.00113041 0.00419002 1.77232e-20)
(-0.000242746 4.21304e-05 3.02539e-18)
(-0.0227419 0.0016894 -5.63009e-18)
(-0.000237679 1.54439e-05 1.36813e-18)
(-0.00123017 0.00051295 -2.6589e-20)
(-0.000110906 0.00288322 -2.74159e-18)
(-0.00164941 0.000324693 5.42098e-20)
(-0.000230379 6.29524e-06 2.91593e-18)
(-0.00137021 0.00385658 1.66226e-18)
(-0.0240693 0.00203875 2.01034e-17)
(-0.00291511 -0.00699052 -5.02565e-20)
(-0.00013019 0.000107325 -2.70293e-18)
(0.000639192 0.000814333 -9.14031e-19)
(0.000398815 0.00180207 1.6269e-20)
(-0.00180875 0.00518292 -2.83287e-18)
(-0.00534322 0.00498198 -4.53341e-19)
(-9.53854e-05 0.000357189 1.11674e-18)
(-7.79239e-05 0.000355542 2.83274e-19)
(-0.000135443 9.63766e-05 2.63576e-18)
(-0.000614212 0.00275387 -7.28469e-18)
(0.0156749 0.00690616 4.3358e-19)
(2.88801e-05 0.000138875 3.88381e-19)
(-0.00106535 2.1388e-05 1.42422e-19)
(6.02425e-05 1.02615e-05 8.45125e-19)
(-0.000144214 8.48465e-05 4.54296e-18)
(0.000883685 -0.00106591 1.13822e-19)
(0.000148263 0.00164469 -3.09909e-18)
(-0.00106329 4.63685e-05 -2.80676e-19)
(0.000773831 0.00334198 8.81355e-18)
(-0.000246158 4.00349e-05 -8.16216e-19)
(-9.41111e-05 6.15204e-05 -3.034e-20)
(7.55317e-05 0.00085828 4.32731e-18)
(-0.0143613 0.000655128 6.30338e-19)
(-0.000781222 0.00013739 -7.20314e-20)
(0.000810826 0.00115627 -7.98619e-18)
(-0.000176906 0.000564627 -3.27978e-19)
(0.00111095 0.00239039 -1.7186e-18)
(-1.74418e-05 0.00343377 -1.3102e-17)
(-0.000819685 0.000553003 9.32656e-19)
(-0.000832973 0.00286782 4.07673e-18)
(-0.00148898 -0.000335845 -3.55592e-19)
(3.68353e-05 0.000772596 -3.57562e-18)
(-0.000626154 -0.000208742 -1.42653e-18)
(-0.0212777 0.003747 -1.35151e-18)
(-0.00628555 -8.94114e-07 -3.47064e-20)
(-0.022172 0.000298348 2.38696e-18)
(-6.72319e-05 0.000211427 -1.00921e-18)
(-7.73765e-05 4.94065e-05 -7.21782e-19)
(-0.000421109 0.00294453 2.0121e-19)
(7.3759e-05 0.000300691 1.03235e-17)
(-0.0137954 0.00339517 6.79079e-18)
(-0.00151239 0.000373335 8.82079e-21)
(-0.0133343 -0.0273122 -5.72835e-19)
(0.000103266 0.00129679 -8.92513e-18)
(-0.0177915 0.00423484 3.97076e-19)
(-0.00131488 8.3969e-05 -3.33472e-19)
(0.00120858 0.00111143 -6.47072e-19)
(0.00187432 0.000348416 -1.122e-17)
(-0.000208192 0.000153486 4.15055e-19)
(0.00231291 0.00373626 2.67982e-18)
(-0.00051525 2.12932e-05 1.41829e-18)
(-0.000209078 0.000281915 -2.12613e-19)
(-0.01846 0.00387687 -3.20692e-18)
(-0.00164348 0.000322123 -5.24871e-20)
(0.000790637 0.00602779 -4.64829e-18)
(-0.000964251 -1.26679e-05 -7.65318e-21)
(0.000108602 1.82026e-05 -3.55284e-18)
(-7.44458e-05 4.76165e-05 2.09508e-18)
(0.000263188 0.00491129 -3.59086e-18)
(0.00115052 -0.00116414 -1.23752e-19)
(-0.000999371 0.000286888 -1.72247e-20)
(0.000905586 0.00475018 -1.09168e-17)
(-2.86616e-05 0.00302471 -9.88997e-19)
(0.0179995 0.037089 7.62024e-19)
(-0.0059057 0.004608 -7.48844e-20)
(-0.0229695 0.0030159 5.91247e-19)
(-0.00843127 0.00224514 -9.79687e-18)
(-0.000769971 0.000128037 2.15951e-19)
(-0.0175661 0.000251015 3.42871e-18)
(-0.00128071 -4.03222e-05 -4.06091e-20)
(-0.00895726 0.00808534 -1.10311e-19)
(-0.0191132 0.00250257 -1.62842e-19)
(-0.000217271 0.000135323 7.92775e-20)
(-0.00540587 0.00608579 -2.61176e-19)
(-0.00115606 -1.92253e-05 -2.94056e-20)
(0.000415793 0.00234613 -1.10535e-17)
(0.00115298 0.00103452 4.8026e-18)
(-0.00163843 0.00032317 8.24875e-20)
(-0.000486251 1.91651e-05 -3.9723e-19)
(1.26171e-05 1.17736e-05 -6.30471e-19)
(-0.00148273 0.0050481 5.16353e-18)
(-0.00011137 0.000135792 1.24591e-18)
(0.00156828 0.00369627 4.34872e-18)
(-9.09085e-05 0.000305099 -5.08245e-18)
(-0.00101178 0.000272288 3.13507e-20)
(-0.00120449 1.17732e-05 7.16267e-21)
(-0.00162188 0.00449197 3.11089e-18)
(-0.00914002 0.00350114 6.53264e-18)
(-0.00230398 -0.000438345 1.81022e-17)
(0.000605512 0.00382109 -2.34338e-17)
(0.0001935 0.00165432 -2.63629e-18)
(0.00144868 0.0047216 1.07522e-17)
(-0.0170742 0.000785276 2.01032e-18)
(-0.000359995 0.000374582 5.36661e-19)
(-0.00770591 0.00457359 5.80294e-18)
(2.33643e-05 1.10449e-05 -3.55042e-19)
(0.00265265 0.00482289 -2.02297e-17)
(6.15701e-05 0.000301394 -5.22554e-18)
(0.00102242 0.00452137 -1.08609e-18)
(-0.000148416 8.17418e-05 -5.87216e-18)
(0.000607216 -0.00122393 -1.04004e-19)
(0.000409868 0.000428383 -1.98055e-18)
(0.0143189 0.0352881 -9.93788e-19)
(0.000253688 0.00235917 1.21245e-17)
(-0.0136916 0.00272932 9.60112e-18)
(-0.000943575 4.78563e-05 1.04603e-19)
(0.00020168 0.00223157 -1.68836e-18)
(0.000145808 0.00028597 -1.50773e-19)
(-0.000958335 3.72303e-06 3.44741e-20)
(-0.0151748 0.000763573 -3.3631e-18)
(-0.000345575 -0.000633016 -7.69707e-19)
(0.000229989 0.000366093 2.76035e-20)
(-0.000386983 0.00417128 -3.75101e-19)
(0.000101833 9.17434e-05 -1.31638e-17)
(-2.34232e-05 0.000420257 1.60619e-19)
(-0.00104949 -1.01783e-05 7.53532e-20)
(-0.0153553 0.000962333 3.12804e-18)
(-0.000105596 0.00013782 -4.7547e-19)
(0.000977128 0.000125825 -3.53084e-19)
(-0.00152442 0.000358293 -4.14319e-21)
(0.000185068 0.000343632 -6.66385e-19)
(0.000118605 0.00465618 2.33986e-18)
(-0.00115254 -1.82261e-05 -4.17741e-21)
(-0.00019051 0.00415888 -4.2437e-18)
(-0.000625339 1.65961e-05 -6.66554e-19)
(-0.000245545 5.78791e-05 -8.42121e-19)
(-0.00535689 0.00861439 2.19261e-19)
(0.00156381 0.00376817 9.41093e-18)
(-9.60113e-05 0.000341996 1.12422e-18)
(-0.0208402 -0.000496872 1.15154e-17)
(0.00110554 0.00603137 -2.12892e-17)
(0.00230526 -0.000494078 -5.99894e-21)
(-0.00122638 0.00420052 -1.57499e-18)
(-0.000223296 0.000153597 2.70465e-19)
(-0.000289938 0.000372983 1.23478e-20)
(-0.0142809 0.000470382 3.25821e-18)
(0.00117438 0.00656669 -1.06857e-18)
(-0.000391192 0.000628643 -4.70491e-18)
(-0.000181832 0.000595324 -6.70886e-19)
(0.000420946 -0.00139236 -2.82614e-19)
(-0.000655351 2.10005e-05 -1.80069e-19)
(-4.45292e-05 6.05765e-05 1.1194e-18)
(-0.00659675 -0.00653621 6.12846e-20)
(-0.000140808 0.0034982 4.2771e-18)
(6.69769e-06 0.00109254 2.99148e-18)
(-0.00720681 0.00546361 5.29612e-18)
(0.000282582 0.00241777 -1.17677e-17)
(0.00319407 -0.00244156 3.59717e-20)
(-0.00632383 0.00530144 -9.92223e-19)
(-0.00293172 -0.00328959 -5.84977e-20)
(-0.000250515 0.00193249 2.52653e-18)
(-0.000394878 0.0042919 1.67843e-18)
(-0.0166681 0.000497915 -6.52804e-18)
(-0.000162637 0.000482971 -3.69019e-19)
(-0.00182219 -0.0004433 4.94829e-19)
(-0.00613115 -0.00841471 2.31446e-20)
(-0.000242929 5.43242e-05 8.94408e-19)
(-0.000809084 3.93568e-05 -7.08612e-19)
(-0.00122865 1.1754e-05 -1.34914e-20)
(0.000604516 0.00206969 7.74787e-21)
(-0.000203902 1.1171e-05 -3.62026e-19)
(-0.0175927 0.000308719 -1.15589e-17)
(0.00190132 0.00229343 -3.91426e-18)
(-0.00038981 3.26054e-05 -3.14802e-19)
(0.000770515 0.00434858 5.44648e-19)
(-0.000938418 5.35685e-05 1.66384e-19)
(-0.0135429 0.000541085 1.56003e-18)
(-0.000223359 0.000521306 3.99207e-19)
(-8.51013e-06 0.000122788 -1.36987e-18)
(-0.0237981 0.00177828 -6.21912e-19)
(0.000100489 0.00336367 2.39437e-17)
(-0.0132733 -0.0409886 1.92293e-19)
(0.000434548 0.000519026 -1.10322e-17)
(-0.00273555 0.00138984 7.5836e-20)
(3.75306e-06 0.000204851 -8.81878e-19)
(0.000569222 0.000688946 8.68658e-18)
(0.000702564 0.00186179 1.2567e-17)
(-0.000121821 6.79231e-05 -1.5434e-18)
(-0.0198504 4.90882e-05 1.50682e-17)
(-0.000264293 0.00139082 8.47026e-19)
(-0.0287687 -0.0540482 1.79305e-18)
(-0.00830259 -0.0286794 1.56975e-20)
(-0.00174214 -0.000869149 -5.75875e-19)
(-0.0232763 0.0029856 -1.61786e-18)
(0.000616128 0.000826197 -7.9264e-18)
(-0.000441162 1.69122e-05 -1.37578e-18)
(0.000184428 0.000300812 1.35639e-18)
(-0.0191186 0.000872386 3.38027e-18)
(-0.00472462 -0.00599955 -4.10593e-19)
(3.86687e-05 0.00129665 2.56735e-18)
(-0.019142 0.000188882 7.6149e-18)
(0.00716951 -0.00187658 -1.40126e-19)
(-0.000242765 6.75396e-05 -3.03297e-18)
(-1.56135e-05 0.000148914 -9.22771e-19)
(-0.000187526 0.000526726 -1.31893e-18)
(-0.0135502 0.00648994 -3.04589e-18)
(-0.0145691 -0.0294728 -6.02335e-20)
(0.000184977 0.0023562 5.78707e-18)
(0.000545372 0.000673288 2.83847e-18)
(0.000780469 0.00117093 1.19117e-18)
(0.0027616 0.00488508 2.09149e-17)
(0.000363144 2.79481e-06 1.43764e-18)
(-0.000284663 0.00409915 -1.1315e-18)
(0.00184422 0.00234126 4.43482e-18)
(-0.000127034 0.000366813 -2.57922e-19)
(0.00019466 0.000749519 7.78429e-18)
(-0.00042509 1.58711e-05 -3.17896e-19)
(0.000671484 0.00182299 -1.04123e-17)
(0.00066242 0.000128528 -8.58017e-19)
(0.00163861 0.00669246 1.05008e-18)
(-0.000185189 0.000771708 -6.08089e-19)
(0.00107647 0.000290512 1.83207e-20)
(-0.0195055 2.82464e-05 6.13382e-19)
(-0.00318837 -0.00024059 6.85419e-21)
(0.000263257 -0.00858178 -6.82418e-19)
(-0.00016558 0.00059892 1.75131e-18)
(-8.61893e-05 0.00030175 1.75776e-18)
(0.000239161 0.00137427 5.93884e-18)
(0.0016076 0.006578 -1.61805e-18)
(-0.000801837 2.62138e-05 8.72692e-20)
(0.00238568 0.00357055 -1.58157e-17)
(-0.0084475 0.00362735 -2.28226e-18)
(0.00476596 -0.00733505 5.36145e-20)
(0.000101231 0.000318174 4.78802e-18)
(-0.000172705 0.000799872 -8.42683e-18)
(-0.000207366 7.50321e-06 -1.10223e-18)
(4.15981e-05 0.000231147 6.45502e-18)
(0.000421509 0.000392781 -2.01925e-19)
(-0.000887809 -0.000644754 -7.42672e-19)
(-0.00353205 -0.001382 3.16544e-20)
(-0.0014348 0.00443766 4.17279e-18)
(-0.000241464 0.00416905 1.07588e-17)
(-0.000244322 0.000163457 -9.68138e-19)
(0.00163067 0.00691278 4.68982e-18)
(0.00139246 0.00134536 1.05214e-17)
(0.00117377 0.00151494 -4.32645e-18)
(-0.000344953 0.00423367 -2.92339e-18)
(-0.00014595 0.000156328 -1.3463e-19)
(0.00221825 0.00374888 -7.99814e-18)
(-0.000532055 -0.00243662 2.035e-20)
(-0.000914597 0.000205881 2.03368e-20)
(0.000170391 0.00337742 -4.2665e-19)
(-0.00131639 0.00293349 3.60153e-18)
(0.00176737 0.00232017 1.55728e-18)
(-9.40221e-05 8.48109e-05 -3.59153e-19)
(-0.000174773 0.00012983 1.21042e-18)
(-4.18844e-05 6.47887e-05 8.44972e-19)
(-0.0159972 8.1654e-05 1.2098e-18)
(0.000192446 0.000707233 2.32989e-18)
(-0.000232618 0.000509801 2.08042e-19)
(0.00211722 0.00265516 -1.15943e-17)
(-0.000117978 6.82824e-05 1.35044e-18)
(-0.000114777 0.000137519 -3.49077e-18)
(-0.00074591 0.00389827 2.78008e-18)
(-0.000538821 -0.0016428 -3.3395e-20)
(-0.00121641 -0.00166032 -7.1136e-19)