/*--------------------------------*- C++ -*----------------------------------*\
| =========                 |                                                 |
| \\      /  F ield         | OpenFOAM: The Open Source CFD Toolbox           |
|  \\    /   O peration     | Version:  v2012                                 |
|   \\  /    A nd           | Website:  www.openfoam.com                      |
|    \\/     M anipulation  |                                                 |
\*---------------------------------------------------------------------------*/
FoamFile
{
    version     2.0;
    format      ascii;
    class       surfaceScalarField;
    location    "450";
    object      meshPhi;
}
// * * * * * * * * * * * * * * * * * * * * * * * * * * * * * * * * * * * * * //

dimensions      [0 3 -1 0 0 0 0];
oriented        oriented;


internalField   nonuniform List<scalar> 
20642
(
0.000313901
8.48059e-05
-0.000398795
-0.000893777
0.0015513
-0.000651421
-0.000244594
-0.000242744
0.000489511
-0.000237551
0.000791888
-0.000540483
-0.00118096
0.00170266
-0.000511814
-0.00157462
0.000688375
0.000268186
-0.000792339
0.000534604
-0.00194804
0.00110344
0.000849306
-0.000352309
-9.07939e-05
0.000449847
-0.000375523
-2.72985e-05
-0.000850754
-0.00109144
-0.00100648
0.000979642
4.4871e-05
3.50204e-05
9.21927e-06
-0.00118579
0.00176321
-0.000574432
-0.00122883
0.00166978
-0.000430566
2.08696e-08
0.000313976
2.46491e-05
2.31218e-05
-3.1522e-05
0.00190642
-0.000844138
-0.00105633
-0.000719561
0.000461997
0.000261329
0.00041778
-0.000201737
-0.000216069
-0.00131315
0.000817283
0.000503162
-0.000226723
-0.00093988
0.00118452
-0.000264885
-0.000375567
0.000645306
0.00105983
-0.00126658
-0.00115903
0.000532424
0.000638209
0.00141118
-0.000591507
-0.000812631
0.00131277
-0.000738661
-0.000572568
-0.000341584
0.00169104
-0.000639529
-0.00104476
3.05711e-06
2.628e-05
-2.826e-05
-0.000331932
-1.00058e-05
-0.00070909
0.000198918
0.000514085
0.00105402
-0.000602662
-0.000437149
0.000379378
-0.00016104
-0.000217929
9.02695e-05
-0.000973251
0.000900935
-0.000156262
0.00126381
-0.00102655
-0.000196513
0.00123537
-3.14402e-05
0.000118118
-2.7751e-05
0.000731959
-0.000454863
-0.000784981
0.0012769
-0.00048449
4.33761e-07
-8.04562e-06
1.80977e-05
-0.000561871
0.000812961
-0.000240787
0.000469068
6.77618e-05
-0.000531594
-0.000219871
-0.000279891
0.000502266
-0.000591898
0.000375807
0.000262354
-0.000683441
0.0004221
-0.00111473
-0.000188768
0.000552481
-0.000362413
-0.000190939
0.000745979
0.000745947
-0.00148973
-0.000690115
0.000794789
4.82933e-06
-0.000994762
-0.000314688
0.000829305
-0.000511702
0.000219512
-0.000309983
9.05758e-05
0.0010451
-0.00130524
0.000280359
0.00138127
-0.000964242
-0.000396975
-0.0007107
0.000398232
-0.000294543
0.000423346
-0.000682243
-0.000829068
0.000277786
0.000792271
-0.000528675
-0.000894803
0.000487999
0.000406004
0.000422916
0.000729923
-0.00114419
-3.50956e-06
-1.14735e-09
5.11702e-06
-0.000500718
-0.000645552
-0.000398745
-5.12184e-06
0.000405164
5.27233e-05
-3.5398e-05
-1.66951e-05
-0.000719224
0.00166183
-0.000936511
-0.00117834
0.00102601
0.00106104
-0.000348535
0.000236551
0.000112104
-0.000164458
-0.000287832
0.000454002
0.00030024
7.94612e-05
-0.000716166
0.000467923
0.00026546
-0.000637972
-0.000178517
0.00135218
-0.000527538
-0.00150448
0.00070675
0.000810834
-0.00104328
0.00157949
-0.000526209
-0.000831864
0.000206519
-0.000654695
-0.000834699
0.000736307
0.000328824
0.000946764
0.000532402
-0.00146099
3.51748e-05
3.09486e-05
-4.23079e-05
-0.000252455
-0.00044919
0.00051527
-0.000264975
-0.000248852
-0.000544054
0.000451411
0.00014097
-0.00176645
0.000750207
0.00102037
-0.000439161
-0.000264802
0.000128219
0.00014609
-0.000216366
-0.00120541
0.000428322
-1.8584e-05
5.71985e-05
-1.50855e-05
-6.22906e-05
9.20654e-05
0.00046199
-0.000992389
0.0017413
-7.8874e-05
0.000935926
-0.000838827
-0.000319444
-0.000988854
0.00132489
0.000977961
0.00169849
-0.000911905
-0.00078372
5.11462e-05
4.10481e-05
-5.87418e-05
0.000288593
-0.000115261
0.000846119
-0.00140391
0.000561518
8.97018e-06
7.61457e-06
-1.1053e-05
-3.41925e-06
1.64237e-05
0.0013956
-0.000433717
0.000122625
2.08682e-05
-0.000112295
-0.00166131
0.000631286
-0.000344623
2.05435e-05
0.000324792
-0.000316381
-0.000107458
0.000423698
-0.000895198
0.0013281
0.000225138
0.000597906
0.000615387
0.00069876
1.31635e-05
8.5302e-05
-0.000415776
0.000255326
-0.00159964
0.000966197
7.48097e-05
-0.00047192
0.000186842
0.000745926
-0.000922402
-0.000352413
-0.000363255
-5.0912e-05
5.94864e-05
3.56001e-06
0.00037994
0.000189078
-0.000566346
-0.000118268
0.000363126
-0.000238315
8.92792e-05
-3.13303e-05
0.00081791
-0.000277106
-0.00052724
0.000666699
0.00100088
0.000365246
0.000334283
-0.000695941
0.000168919
-0.000320277
0.000151472
0.000254849
0.000261413
0.001021
-0.000432304
-0.000577169
0.000482261
0.000877017
0.000963343
0.000218687
-0.00116065
-0.000302135
0.000670496
-0.000668261
0.00027607
0.000399063
0.000368448
-0.000853161
0.000485957
-0.000350934
0.00018588
0.000165289
0.00101971
-0.000821311
-0.000648911
0.000241706
0.000411557
0.00137051
-0.000753417
0.000873011
-0.000465888
-0.000407496
0.000183115
7.56365e-05
-0.000258655
0.00161668
-0.000658153
-0.000950877
3.06529e-05
0.00144169
-0.00152441
8.44984e-05
-0.000269554
-0.000549694
5.9414e-05
-0.000402792
0.000205423
-0.000985463
0.000803135
-0.000628663
0.000434399
0.000208041
0.00071556
0.000120924
-0.000827726
-0.000444585
0.000281739
-0.00164336
-7.67224e-05
-0.00027303
0.000348866
-0.000313346
0.00138087
0.00083469
-0.00123051
0.0004035
-1.03418e-05
-2.24303e-06
1.7744e-05
-0.000386725
-0.000228318
0.000663357
0.00103736
-0.00140752
0.00114549
0.00027623
-2.51198e-05
0.000177108
-0.00017883
-0.000117257
0.000296426
1.48009e-05
1.56304e-05
-1.93914e-05
-5.8088e-06
-3.51049e-05
-0.00106858
0.000798832
0.000308377
-0.000153532
-0.000337779
0.000491532
0.00171353
-0.000657692
-0.00104348
-8.12231e-05
0.000326372
0.00030814
-0.000635072
0.00141332
-0.00073598
-0.000674516
-4.52123e-05
0.000314628
-0.000676559
0.000361186
-7.831e-06
8.07227e-06
1.06586e-07
0.000619193
0.00100462
-0.00195248
0.00116203
0.000809512
-7.06063e-05
-0.000268235
0.000339328
-0.000546166
-0.000940641
0.000601294
0.000338969
0.000281983
-0.00076471
0.000486128
-1.21416e-05
2.94752e-05
-9.94271e-06
0.000508137
-0.000732961
-0.00043018
0.000827898
-0.000395336
-0.000304126
-0.000357813
0.000927622
0.000797168
0.000431758
-0.000599163
0.000175632
-0.000871843
-0.000845133
0.000863709
0.000214052
-0.000561899
0.000349202
-0.000131108
0.000513558
-0.000553303
0.000923525
-0.000982182
0.000153406
0.000708077
-0.000492125
4.15608e-05
-3.74107e-05
-0.000934053
-0.000827837
-0.000610161
0.00089657
-0.000272002
-0.000316551
0.00076488
-0.000402447
-0.000360027
0.000217486
-0.000397586
0.000180595
0.000673377
-0.000738436
0.000181575
-0.000325396
0.000143952
-0.000363024
0.00099249
-0.000619635
-0.000174396
-0.000176072
0.000204213
-0.0011601
-0.00115885
-0.000232878
0.000608561
0.000666579
-0.00126631
0.000306226
6.07345e-05
-0.000366692
-2.92729e-05
0.000212489
-0.00143872
0.0010296
0.000421621
0.000863836
-0.00110732
0.000244355
0.00102093
0.000391049
-0.00140421
-0.000363442
0.000560731
0.000401491
-0.00100353
0.00155376
0.000804887
-0.000963286
0.000185358
0.00182061
-0.000806367
-0.00100709
0.00121078
0.000616024
-0.000439846
-0.000449585
-0.000195981
0.000759295
0.000172537
0.000288341
-0.000459996
6.04978e-05
-0.000156477
0.000157339
4.74948e-06
0.000308768
-0.000301196
0.000292411
-0.000275942
-0.000339545
0.0008211
-0.000470449
-0.000348156
-0.000354474
0.000762276
-0.000406339
-0.000295811
0.000363866
-4.14168e-05
4.99623e-07
-2.78457e-06
0.000723678
0.000648015
-0.000128239
-0.00041894
0.00026555
0.000166265
-0.000234503
-0.0001705
1.3041e-05
-4.64384e-06
-3.11375e-06
0.000307135
0.000306275
-0.000297423
0.0002065
9.39982e-05
0.0002117
0.000287695
-0.000500081
0.00149491
-0.000869174
-0.000610058
-1.09055e-05
1.62543e-05
-4.21925e-06
0.000565438
0.000383344
-0.000944113
-0.000189004
0.000349108
-0.000159954
4.51154e-05
-1.42958e-05
-1.9293e-05
5.91843e-05
-0.000325087
-0.000431954
0.00129712
0.000252766
9.56178e-05
-0.000347487
0.000261026
-0.000259101
0.000432318
-0.000424717
-0.000480089
0.000907811
-0.000666833
0.000892237
-0.000327967
-0.000349254
-0.000187672
0.000757186
-0.000621664
-0.000971999
-0.000759772
0.000581482
0.00018332
-0.000981841
-0.000444018
-0.000228677
-0.000142591
-0.00020706
0.000356802
-0.00108795
0.000842216
0.000250612
0.000991762
-0.000653567
-0.000332919
0.00168662
-0.000698843
-0.000970082
8.79132e-07
0.000531588
0.0013752
-0.0017202
0.000356013
-0.000747497
-0.000226802
0.000988426
-0.000315689
0.000154717
0.000161032
0.0014594
-0.000310916
-0.00114658
0.000885434
-0.000264253
-0.000606101
5.926e-05
-0.000279511
-0.000301151
0.00146095
0.00029515
-0.000222025
0.000228222
9.49766e-05
-1.40932e-05
-0.000887209
0.000565843
0.000328123
0.000348161
0.000550494
0.000251313
-0.000133406
0.000184956
-0.000501428
0.00134452
-0.000527781
-0.000790922
-0.00121549
0.0017187
-0.000491678
-0.000385929
-0.000458427
0.000845317
-2.27383e-05
0.000263663
-0.000231464
-0.00043638
0.00109437
-0.00065489
-0.000155963
-0.000159559
-0.000253795
0.000240217
-0.000148029
-0.000200428
0.000236265
-0.000969369
-0.000543233
0.000390032
9.54687e-06
-1.38039e-05
0.00110352
0.000435131
-0.00152811
0.0010463
0.000653656
0.00101434
0.000260113
-0.00124701
0.000500514
-0.000604718
0.000106992
8.45491e-05
5.64534e-05
-9.09396e-05
0.000741477
0.000674367
-0.000395223
0.00100412
-0.000600925
2.14156e-05
0.000701928
0.000586373
0.000558847
-0.00114351
0.00013506
3.15552e-05
2.39509e-05
-0.000450518
0.000879935
-0.000423595
0.00153283
0.000107622
-0.00162832
-0.000285515
0.00109106
-0.00079467
0.000394501
-0.00156495
-0.00127786
0.000635606
-0.000221479
0.000972597
-0.000734725
0.000204497
-6.95932e-05
-0.000456666
0.000909121
-0.000449824
-0.000312977
0.00133973
-0.00101984
-0.000626907
-0.000454777
-0.000413646
-0.00085191
0.00021773
-0.000284043
9.40961e-05
0.000127652
-0.000306327
5.06199e-05
0.000255797
0.000885889
0.000230431
-0.001095
-7.48047e-05
0.00028723
-0.000208691
0.00074434
0.00128177
0.000287848
-0.00156499
-0.00036475
0.000448459
-8.18978e-05
-0.000470793
2.04726e-05
0.000450709
-0.000275455
-0.000665423
-2.54488e-05
-1.12749e-05
3.74334e-05
-0.000157179
-0.000693976
-0.00161633
0.000411896
-0.000492993
0.000229579
0.00150428
-0.000217828
0.000225665
-0.000468243
6.12589e-05
-1.83379e-05
-0.00149649
0.000277672
-0.00116946
0.00022281
-0.00129294
0.00108534
0.000172135
0.00138497
-0.000577929
0.000309267
4.05319e-05
9.22153e-06
-3.35574e-05
-0.000289302
0.000219085
-0.000376596
0.000332768
9.6158e-05
-0.000150965
0.000473931
-5.87058e-05
-0.000246359
0.000312048
0.000334554
8.31827e-05
0.000478376
8.67003e-05
-0.0005329
0.00102711
-0.000430977
-0.000590402
0.00149068
-0.000462364
1.99355e-06
-2.67587e-05
6.23989e-05
-4.61043e-06
0.000401025
0.000251653
-0.000648556
0.00026944
-0.000415931
0.000146987
-0.000312441
0.0011714
-0.000842042
0.00128654
-0.00104869
-0.000226296
-0.000188865
0.000308075
7.0737e-05
-0.00037882
0.000166391
-0.000558508
0.000392124
-0.00155126
0.0003685
3.90292e-05
-0.000281475
0.00146017
-0.000865452
-0.000578523
0.00020768
0.000116922
-0.000323868
-0.000757254
0.000601864
0.000319128
-0.000267884
0.00194107
-0.00107407
0.000772135
0.000317557
-0.00144973
0.000890844
0.000564412
0.000405674
0.000777993
-0.0004115
-0.000363462
0.00108449
-0.000586242
-0.00049477
-0.00106847
0.000636034
-0.000461988
5.05894e-05
0.000415586
-0.000189041
0.000409665
-0.000220026
0.00116291
-0.000178478
0.000887614
-0.00118286
0.00100735
0.000701496
-0.000151341
-0.000367335
0.000520969
2.13709e-05
-2.23225e-05
1.38128e-05
0.000302264
6.43026e-05
-0.000520374
0.000123479
-0.000455225
0.000678726
0.000720303
-0.000483224
0.00103096
-0.000545079
0.000221541
-0.000292665
-0.000529171
-0.00106724
0.00159929
0.000236532
0.000474935
-0.000702505
0.000354969
0.000407048
0.000985277
0.000512871
0.000677588
0.000689968
-0.00025599
-0.000261184
0.00051877
0.000258666
6.60593e-05
-0.00031863
-0.000354883
0.000680773
0.000296714
0.000689277
-0.000443889
-0.00151899
-9.75354e-05
0.00120815
-0.00109726
0.000376122
-0.000280191
-9.40953e-05
0.000742638
-0.000252304
-0.000471516
0.000162384
-0.000364096
0.000359429
1.88471e-05
-0.00153881
0.000935747
0.000614604
0.0013364
-0.000611416
0.000653082
0.000541232
-0.00119058
0.00150796
-0.000533993
-0.000959738
-0.000444521
0.00076992
-0.000325611
0.000419276
-0.000186489
-0.000787142
0.00131958
-0.000519616
0.000667602
-0.00016447
0.000905652
-0.00140661
0.000518346
-0.000637882
0.0012948
-0.000537816
0.000297501
-4.63694e-05
0.000276222
-0.000688538
0.000420834
-0.00108757
0.00068441
-0.00117832
0.000868539
0.000340197
-0.000828884
0.000508146
0.00035759
0.00111718
2.28564e-05
-0.00111832
-0.00142419
0.000691014
-0.000303029
0.000996232
-0.000679866
-0.000242582
-0.000933169
0.0011951
-0.00106708
-0.000340344
0.00142897
0.000560047
-0.0009655
0.000411677
-3.77257e-05
0.0013734
-0.00133138
-2.60417e-05
0.000266274
-0.000231994
-5.16616e-07
-6.15893e-06
0.000185663
-0.000548168
-0.0010548
0.000574719
-1.91793e-05
0.00105732
-0.000575677
-0.000948259
-0.000373712
-0.000352832
0.000726603
0.000879967
0.000559022
-0.00143727
4.12782e-05
1.21856e-05
0.000586725
-0.000121342
-0.000250396
-0.000241183
-0.000588417
0.000136763
0.000461455
0.000260822
1.81655e-05
-0.000269833
-0.00135877
0.000958174
0.000409045
-0.000453516
-0.000336707
0.000242892
0.000810349
0.000242982
-0.000217062
-0.000150775
-0.000427805
-0.00031508
-0.000309657
0.000624157
0.00137088
-0.000448751
-0.00117275
0.000619772
0.000559033
-0.000255688
0.0001223
-0.000759726
0.000314953
-0.000123804
0.000955157
0.000246968
-0.00061899
-0.000671905
0.000227266
-0.000886451
0.00150484
-8.9983e-05
0.000258825
-3.86968e-05
0.000291694
-0.000245424
-0.000133978
0.000509243
-0.000354809
-7.0026e-05
0.000334772
-4.25426e-05
0.000360497
0.000271154
-0.00128546
-0.000227095
0.00129752
-0.00105721
-0.000802395
0.000428781
0.000621145
0.000128781
-0.000742505
0.000313109
-0.000527327
0.000416008
-0.000814904
0.000284007
0.00053783
0.000601028
8.89828e-05
-0.000683095
-0.00135701
0.000368554
0.000455872
-0.000877577
-0.00046711
0.000633487
-0.000807474
-0.000251545
-0.000519513
-0.000766469
0.00128729
-0.000937696
0.00092917
3.48155e-05
2.38332e-07
0.000257529
-0.000209693
0.000301824
-0.00134954
0.0011235
-0.00120753
-0.000710035
-0.000166601
0.000904622
-0.000137554
-4.04463e-05
0.000236634
0.000313651
-0.000293662
0.000126784
-0.000809349
-0.000484847
0.00107302
-0.000515588
0.000270104
0.000248003
-7.031e-05
0.000118444
-1.96359e-05
-0.000473469
0.00079141
-0.000312095
0.0001813
-0.000400732
0.00063211
-0.00060228
-3.0196e-05
-0.00033852
-0.000258316
0.000603641
0.000329313
-0.000415373
0.000350597
6.6951e-05
-9.55771e-05
-0.000317999
0.000993078
-4.60798e-05
0.000727214
-0.000119391
0.000539771
0.000772449
-0.000447728
-0.00032384
6.61286e-05
-6.76244e-05
-0.000906124
-0.00037945
0.000866242
0.000458864
0.000183264
-0.000634177
-0.00116068
0.000337033
0.000830412
-0.000603218
0.000447499
0.000158184
0.000398238
-0.000664997
0.000271303
0.000965473
-0.00063588
-0.000320823
0.000507404
0.0012217
-0.00170217
0.0008628
0.00126828
-0.000643425
-0.000619516
-0.000904132
0.000614424
0.00072883
0.00103608
-0.000880136
0.000219539
0.000667069
-0.00097101
0.000583815
0.000681709
-0.000323781
-0.000358376
-0.000165463
0.000712348
0.000560944
0.000440085
0.000389909
-0.000622968
0.000388064
0.000272876
-0.000173292
-8.45966e-05
0.000258067
0.00021384
-0.000173601
0.000274853
-0.000306694
0.000822153
-0.000256863
-0.000274964
0.000243349
-0.000116893
0.000238825
0.000456936
-0.0009105
0.000286567
-0.000164216
-0.000773061
0.00130633
-0.000532254
-0.000695084
-0.000335592
0.00027962
-0.00061076
0.000340669
0.000862804
-0.000583861
-0.000270867
0.000350679
0.000394861
-0.000744783
0.000441565
0.000451879
-0.000892751
-0.00114143
0.000212563
0.000943842
-0.00125598
0.000863831
-0.000600852
-0.000228076
0.00105719
-0.000518224
-0.000533451
0.000327718
0.000985457
-0.0013105
-0.000238929
-0.000884967
0.0011433
5.3721e-05
-1.83146e-05
0.000351967
-0.00149476
-0.000837249
-0.000312897
0.00104703
0.000354523
-0.00139228
-0.000387711
-0.000446368
0.000841334
1.46597e-05
0.000646526
-0.00024412
-0.000322643
-0.000260971
-0.00105299
0.00164487
-0.000570364
-0.000782402
-0.000294497
0.000425042
-0.000130941
-0.000293533
-0.000163247
0.000220663
-3.8864e-05
0.000409782
0.000274344
-0.000674516
-0.000983302
0.00077043
-0.000386685
-0.000420738
0.000765399
-0.000342614
-0.000418504
0.00092118
-0.00123478
0.000318282
0.000230923
-0.000574667
-0.00107917
0.000870664
0.000221813
-0.00102929
-0.000344706
0.000170678
0.000281644
-0.000597423
-0.000125255
-0.000130308
0.000814639
0.000238354
-0.00103169
0.00103945
0.000320396
-0.00134005
0.000526956
0.000444903
0.000373572
-0.000869663
0.000516106
0.000344948
-0.000492961
0.000149687
-1.24153e-05
0.000285323
0.00115318
0.000403464
-0.00155463
-0.000942741
0.000590085
0.000418611
-0.000211547
-0.000206368
-0.000306254
0.000504112
-0.000404399
0.000361746
4.20782e-05
-0.000692661
0.000847413
-3.10027e-05
-0.00031248
0.000345887
-4.58712e-05
0.000130094
0.00100457
-0.000289534
-0.00070353
0.000172298
0.0002467
-2.08209e-05
-0.00024598
-0.000457317
0.000386172
7.27293e-05
3.36977e-06
3.76296e-06
-4.60308e-06
1.97597e-05
-5.98951e-05
0.00136058
-0.000430761
-0.000169966
0.00133802
-0.000282124
-0.000193625
-6.40052e-05
0.000270152
0.000589273
-0.000280132
-0.000306229
0.000418026
-0.000885572
-0.000861604
-0.000657894
-0.000600734
0.000157806
-7.85045e-05
-0.000223393
0.000302235
0.0004303
0.000201571
1.98721e-05
-0.000165845
-3.50861e-06
-0.000201372
0.000204938
-7.42549e-06
-6.89246e-06
1.72915e-05
0.000283975
-0.000750565
-0.000613638
-0.00102716
0.000283559
0.000731443
7.49275e-05
-0.000312062
0.0002409
-1.16945e-05
1.23076e-05
-0.000637205
-0.000236582
-0.000267823
-0.000321512
0.000253384
0.000108844
-4.08112e-05
-1.78143e-05
8.99219e-05
-2.58017e-05
-0.000271607
-0.000327046
-0.000703967
-0.000111901
0.000841191
0.00063648
-0.000301557
-0.000331155
-0.00123642
0.000349578
6.7192e-05
-0.000247722
-1.5049e-05
3.99864e-05
-0.000887663
0.000205782
-0.000619675
0.000484777
0.000135509
-0.000276843
-0.000128248
-0.000339014
-0.000415686
0.000423528
-0.000804079
-0.000665837
0.000496467
0.000170987
-0.000335986
0.000147153
0.000229181
0.000531495
-0.000466516
0.000756993
-0.000289893
-3.22725e-05
5.6986e-05
0.000291963
-0.000463866
0.000174046
0.000868161
-0.000476015
-0.000522419
0.000268192
-0.00109484
0.000285634
0.00152999
-0.0011665
-0.000122522
0.000566932
-0.00140117
0.000641836
0.000238069
-0.000873187
-0.000185963
-0.000230617
0.00041755
3.83362e-05
-6.1064e-05
3.96524e-05
-0.000478407
-0.00040189
0.00135858
-0.000843502
-0.000498875
-2.22529e-07
-7.62154e-06
-0.000387825
0.000199481
-0.000622621
-0.000721568
0.00134725
-0.00119455
0.000814551
0.000392889
0.000376488
0.000404403
0.00029867
0.000268064
0.000676732
-0.000933818
-8.29102e-06
2.24019e-06
-0.0001757
-0.000211396
-0.00107952
0.000406556
0.001494
0.000221176
-0.000225784
-0.000545288
-0.000637134
0.000311934
-0.000461297
1.41491e-05
-1.14515e-05
0.000345451
-0.000684883
0.000342521
3.22037e-05
3.77276e-05
-4.479e-05
-8.82684e-05
-0.000454237
0.000577791
0.000771362
0.000201998
0.000259498
0.00014215
-0.000226565
8.441e-05
-0.00041781
-3.81167e-05
0.00121329
0.000351525
-0.00156033
-0.000261358
0.000703039
0.000177056
-0.000841239
0.00065043
0.00102784
0.00013876
0.000286865
-0.000389753
0.000351137
3.96092e-05
-0.000448071
-0.000901949
-0.00103338
0.000846659
0.000539768
0.000999013
8.40166e-05
-3.10482e-05
-7.6532e-05
0.0010355
-0.00093974
1.65427e-05
2.13293e-05
0.000795612
-0.000419825
-0.000371511
-0.000750345
0.00108863
-0.000328863
0.000363404
0.000317696
0.000857143
-0.000207705
-0.000292104
-0.00116843
0.00146433
-0.000424884
0.000867056
0.00101371
-0.00132023
0.000967514
-0.00042761
-0.000533882
-0.000766308
0.000366468
0.000201137
0.000729968
-0.000531601
-0.000737438
0.00127631
2.07148e-05
-3.95101e-06
-0.000525091
0.000470789
3.37647e-05
7.25599e-05
-1.60182e-05
4.25393e-05
0.000261737
0.000608552
-0.000142634
-7.23576e-06
0.000205691
-0.000183903
0.000180423
0.000401006
-0.000581985
0.000187107
-3.34615e-05
-0.000140842
0.000211668
-0.000251589
-0.000322864
8.31371e-05
-3.15766e-05
-0.000120114
-0.000350438
0.000962281
-0.000711583
0.00112279
-0.000883751
0.00015404
0.000132812
-0.00032682
0.000694883
-0.00036422
-0.000518507
-0.000146997
0.000456613
-0.000630494
0.000185962
-7.59587e-05
0.000296584
-0.000215911
-0.000243834
-0.000822154
0.00108543
-0.000442228
0.000570795
-0.000121128
-0.000457172
0.000559032
-9.72817e-05
0.000919339
0.00027626
-0.00117086
-0.000283424
0.000187175
9.63405e-05
-0.00108293
0.000234747
0.000856029
0.00107069
0.000310426
-0.00137863
0.000140218
-0.000657179
-0.00124059
0.000715969
-0.000248916
0.000170665
0.000633119
-0.00034441
-3.57304e-06
0.000100264
-6.87444e-05
0.000827304
-0.000309073
0.000153246
0.000564053
0.000260919
0.000740522
0.000206917
-0.00029698
-0.000416638
0.00156064
-0.00114178
-0.000118358
0.000629851
0.00111711
-0.000210053
-0.00103839
0.00132179
0.000340167
-0.000154502
0.000661508
-0.000504677
0.000809736
-0.000645556
0.000213115
-0.000234532
0.000653004
0.0003585
-0.00036044
-0.00124345
0.000338941
-0.000747237
-9.98075e-05
0.000506505
0.000332134
-0.00130481
0.000114305
0.000630695
-7.26027e-05
9.66584e-05
0.00029578
-0.000745545
-0.00120214
0.00022717
-0.000308805
0.00117153
-0.000851751
0.00103424
-0.000695365
-0.000330197
0.000231844
-0.000301582
6.98314e-05
-4.19504e-05
6.20895e-05
-1.90121e-05
0.00113943
-0.001554
-1.71876e-05
-0.00100469
0.00159466
-0.00109376
-0.000492969
0.000886524
-0.000595746
-0.00028248
-0.000374702
-1.39286e-05
-3.52573e-05
8.8846e-05
0.000500812
-0.000277408
-0.000219808
-0.000151203
-0.000467752
-3.1398e-05
2.28659e-05
9.03402e-06
-0.000881372
0.000527629
0.000374133
0.00079233
2.62981e-05
-0.000113571
-0.000848711
0.000517896
0.000351502
-0.000134283
0.000560878
-0.000414259
0.000462592
-0.00140249
0.000946625
0.000717635
-0.000728513
-0.000157528
0.000687262
0.000615972
0.000165406
-0.000755056
-0.000399584
0.000198962
0.000201009
-0.00040704
0.000322481
-2.03989e-05
0.000485324
-0.00038703
0.000511094
0.00096504
-0.000359078
0.000330614
-0.00139936
0.000489099
-0.000208245
0.000242593
-1.8155e-05
0.000368065
-0.000690747
0.000491482
0.000428614
-0.000916791
0.000390649
-0.000485064
-0.000228973
-0.000597267
0.000844504
-0.000711291
-0.000224112
0.000763923
-0.000824401
0.000297477
-0.00102837
0.000441556
-0.000223388
-0.000742971
0.000980302
0.000391448
-0.000536931
-0.00020956
0.00115295
-0.000210396
-0.000768545
0.00100246
-0.000721194
1.27425e-05
-0.000655307
0.00107808
0.000292251
-0.00136422
0.00131665
-0.000434919
-0.000798355
-0.000645178
0.000175908
-0.000413021
0.000287528
0.000227305
0.00136142
0.000596424
-0.000295034
-0.000299616
-0.000707557
0.00100171
-0.000155975
0.00119306
-0.00102875
-3.63053e-05
4.57089e-05
4.36818e-05
5.73647e-05
-8.13087e-05
-0.000506997
-0.00022799
0.00074812
-0.000355932
-0.000840955
0.00120719
0.00121916
-0.00029356
0.000583167
-0.000794261
7.32317e-05
-0.000286642
0.000215589
0.00112334
-0.00140104
0.000293733
0.000587831
-0.00119962
0.000929367
0.000242044
-0.000573987
0.000239386
1.15987e-05
0.000573553
-0.000382817
0.000270592
0.000340844
-0.000611243
0.00138282
-0.000298752
1.05636e-05
-3.37287e-05
0.000363984
-0.000343249
0.00064796
-0.00100141
0.000363696
-0.000170638
0.00054267
-0.000279413
0.00103449
-0.0014684
0.000438971
0.00161031
-0.00115027
-0.000447668
0.000253982
0.000712541
-0.000946341
-0.00036667
-0.000494953
-0.000357659
7.61313e-05
0.000281907
0.000454555
0.000382069
-0.000827961
0.00148173
-0.000263769
-0.000785453
0.00134625
-0.000461154
-0.000366404
0.000517333
-0.000121764
1.09615e-06
-1.13169e-05
0.000874304
0.000278824
-0.00114437
-0.000345504
0.00131706
-0.000968587
7.40605e-06
9.50511e-06
-0.000638417
0.000332855
-0.000671967
0.000348452
0.00144555
-0.000405936
0.000321991
-0.000670689
-0.00159774
0.00123457
0.000367872
-0.000440658
-4.86351e-05
0.000505661
-0.000104782
2.36367e-05
0.000101371
0.000574102
0.000513617
0.000819633
0.000960953
0.000297599
-0.00123984
0.00124712
-0.000841027
-0.000393237
0.00100495
0.000308922
-0.00129422
0.000460938
-7.59115e-05
-0.000351814
-0.00151656
0.000745535
0.000774407
-0.00093102
0.0012785
0.000281226
-0.000334623
5.36401e-05
-0.000159077
-0.000285278
-0.00112464
0.00141401
0.000304025
0.000711451
-0.00122994
0.000281315
0.00158008
-0.00128738
0.00054653
4.37927e-05
-0.000556346
0.00025594
0.000635525
-0.000880938
-0.000994181
0.000521243
0.000492668
-0.001025
0.000724346
0.000313141
0.000202878
0.00075773
-0.000229379
-0.000684177
0.000936477
-0.0010415
0.00100693
0.00125999
0.000488161
-0.000249456
-0.000237198
-0.000642035
-0.000372148
-0.000495714
0.000231181
0.000269634
0.000563952
-0.00101583
0.000455078
-0.000247624
-0.000757802
0.00102476
0.000438353
0.000844957
-0.000163898
0.00082105
0.000326457
-0.00108902
0.000773849
-0.000905066
0.000360989
0.000552844
0.000315252
-0.00024313
-0.000279923
0.000160115
0.000477327
0.000322293
-6.09425e-05
0.000244918
-0.000181835
0.00106944
-0.000818562
0.000256684
-0.000160242
-0.000104706
-0.00117119
-0.000321057
0.00146053
-0.000679202
0.000565381
4.72409e-05
-0.000579122
-0.00129463
-0.000761819
-0.000305027
-0.00048628
0.000156476
0.000331153
-0.000492395
0.00157474
-0.00107172
0.00120643
-0.000795618
-0.000386948
0.000190564
-0.000378405
0.00111464
0.000686814
-8.64547e-05
-0.000500262
0.000306674
-0.000960796
0.00149452
-0.000521285
0.000588007
-0.000169068
-0.000604006
0.000798196
-0.000729666
0.00029937
-6.2948e-05
-0.000231071
0.00112496
-0.0014303
0.000182086
0.000228338
-4.2382e-06
-8.0856e-05
0.000536217
0.0002673
-0.000586732
0.000338864
-0.000216174
7.41212e-05
0.000229962
-0.00030181
-0.00122626
0.00153216
0.000350832
0.000247386
0.00028775
0.000537677
-0.000815526
0.00168859
-0.00127839
-0.000396102
0.00134492
0.000239261
-0.000323771
0.000164965
0.000170753
0.000241875
0.000350238
-0.000395325
-0.000403203
0.000812518
0.000121198
-0.000294273
-0.000971205
0.00141573
-0.000532302
0.0010341
-0.000501023
0.000892202
0.000195553
-0.00024049
5.12901e-05
0.000169191
0.000192507
-0.000141821
6.66676e-05
8.2416e-06
-4.91019e-05
-0.000179296
-0.000165043
-0.00134687
0.000456148
0.000904608
-0.000104265
0.000679697
-0.000543057
-0.00126053
-0.000318088
0.00158232
0.000772032
0.000901981
-0.000635149
0.000349832
0.000448897
-0.00122369
0.000421189
-0.000524712
-0.000641679
0.000235802
-0.000460993
0.000227486
0.000649679
0.000499116
-0.000724052
-0.000276987
0.000134081
0.000143067
-0.00042386
0.00135007
-0.000911218
0.000356269
0.000510644
0.000132735
-0.000624556
-0.000133284
0.000259976
-0.000126594
-0.000134191
-0.000470516
0.000570759
-9.17475e-05
-0.000306217
0.000248705
-0.0010404
0.000798956
0.000253563
-6.81353e-05
-0.000232567
0.000218681
-0.000563585
0.000355603
0.000232924
0.000560067
-0.000780133
0.000840641
-0.000502302
-0.000318336
0.000467057
-0.000866336
0.000406587
1.70853e-05
-0.000209491
-0.000868477
-0.000464411
-0.000599809
0.000305105
0.00029855
-0.000697619
0.000331
0.000365899
-0.000310972
0.00058169
-0.000230791
-0.000352273
0.00107225
-0.000153334
0.000324826
0.000183907
0.000841684
-0.000996094
-0.000592814
0.000299732
-0.000962495
0.00129298
-7.81639e-05
-0.000447923
0.000150961
0.000306918
0.000628072
-0.000224132
0.000133467
0.000136952
0.000896552
0.000415276
-0.00129336
-0.000321906
-0.000116833
0.000267187
-0.000331255
0.00062969
-0.000914795
0.000314409
0.000441575
0.000531705
-0.00064944
0.000577591
-0.000202903
-0.000141065
0.00034355
0.000247673
0.000726184
0.00020711
-0.000905073
-0.000271554
-8.56251e-05
-7.57619e-05
0.000603106
0.000894306
-0.000854653
-0.00115218
0.000265563
-0.000398512
0.000223763
0.00114053
-0.000423512
-2.7294e-05
8.2158e-06
2.76296e-05
-0.000672159
0.000865962
-0.00104168
0.000195846
0.000248955
-0.000397349
0.000198393
0.000199931
0.00091442
-0.00136243
0.000705669
0.000658706
0.00077705
-0.000229039
0.000800696
0.000649452
-0.00103267
0.000321678
0.000430152
-0.0007407
0.0011997
-0.000526552
-0.00122515
-0.000367107
-0.000819641
-0.000250218
-0.000158763
-0.000177015
-0.00115236
3.54966e-06
0.00115686
4.39556e-05
0.000115163
0.000603665
0.00109651
-0.000183102
-0.00011673
0.000309064
-0.000850946
0.000504631
-0.000334588
-0.000167315
0.000496243
-0.000182533
0.000196307
-0.000938313
-0.000145475
-0.000163484
0.000191652
-0.000395008
-0.00156558
0.000345962
0.000163519
0.000344042
0.000530607
-0.000781946
0.000281689
-0.00014306
-0.000138557
0.000414923
-0.000681188
-0.00048374
0.000801452
-0.00031781
0.000408957
0.000586655
-0.00030323
0.00042224
0.000484565
-0.000895366
-3.41566e-05
-0.000757517
0.000791993
0.000355686
-0.00019252
-0.000162532
-6.09648e-05
0.000300721
-0.000235257
-0.00145714
9.63472e-06
0.000252809
0.00062495
-0.00083363
0.000321418
0.000385054
-0.00130053
-0.000744039
0.000362017
0.000552574
-0.000946695
0.000395554
-0.000305869
0.000236965
6.90205e-05
0.000747869
0.000272592
-0.000197676
0.000345032
-3.15298e-06
8.87415e-06
0.000344978
-5.75263e-05
-0.000278576
-0.00043034
-0.000238556
-0.000240449
0.000479272
-0.000776356
-0.000236556
-1.00298e-05
5.58364e-06
-0.000607348
-0.000178168
0.000400538
-0.000636381
0.000250689
0.000903021
-0.000944927
0.00141443
-0.00151045
0.00106923
0.000450464
-0.000596357
-0.000376614
-0.00142866
0.000248344
-0.000304856
-0.000570134
0.000700931
-0.00012513
-0.00130523
-0.00121058
6.58538e-05
-0.000152794
0.000298539
-0.000145667
-0.0001613
0.000629131
-0.000989173
0.000361686
-0.000291561
-2.0773e-05
0.000315274
-0.000168576
-0.000322783
4.4948e-05
0.000300188
-0.000400024
0.00136688
0.000299895
-0.000467453
0.000175198
4.74296e-05
0.000737821
-0.000220708
0.000299614