/*--------------------------------*- C++ -*----------------------------------*\
| =========                 |                                                 |
| \\      /  F ield         | OpenFOAM: The Open Source CFD Toolbox           |
|  \\    /   O peration     | Version:  v2012                                 |
|   \\  /    A nd           | Website:  www.openfoam.com                      |
|    \\/     M anipulation  |                                                 |
\*---------------------------------------------------------------------------*/
FoamFile
{
    version     2.0;
    format      ascii;
    class       surfaceScalarField;
    location    "700";
    object      meshPhi;
}
// * * * * * * * * * * * * * * * * * * * * * * * * * * * * * * * * * * * * * //

dimensions      [0 3 -1 0 0 0 0];
oriented        oriented;


internalField   nonuniform List<scalar> 
20673
(
-0.000260717
-8.89458e-05
0.000346205
0.000291812
0.000214174
-0.000515283
9.63759e-05
-6.47393e-05
-3.17368e-05
0.000461829
-7.81865e-05
-0.000379418
0.000858297
-0.000868122
2.90081e-06
0.000232468
-0.000243686
1.11838e-05
0.000100787
-5.76323e-06
-9.47182e-05
-4.65751e-05
5.93448e-05
-1.28904e-05
2.54797e-05
-2.95055e-05
3.94605e-06
0.000260698
-1.40123e-05
-0.000248527
-0.000142951
4.26341e-05
0.000100323
-0.000146176
0.0002284
-8.20811e-05
0.000252227
4.49682e-05
-3.51721e-05
-9.72811e-06
0.000438891
-0.000700952
0.000257956
-0.000226354
-0.000378816
0.000599262
-0.000698573
0.000271132
0.000418272
0.000117535
-6.10786e-05
-5.76343e-05
0.00012049
-0.000266678
-0.000366628
0.000397375
-4.47088e-05
-0.000132828
4.67997e-06
0.000125314
2.51616e-05
7.56291e-05
1.42495e-06
-0.000509909
0.000496593
6.34036e-06
-5.30047e-05
0.000875692
-0.000836574
-4.87727e-05
-0.000116712
9.97023e-05
1.69842e-05
0.000189395
0.000239368
-0.000428635
-8.09712e-05
0.000301509
-0.000220175
-0.000149361
0.000266873
-0.000117786
-5.70686e-05
0.000196013
-0.000139982
-0.000103861
-0.000204402
0.000305466
-0.000176102
-0.000223922
0.000395127
0.000395971
8.43517e-05
-0.000480415
0.000132113
-0.000617293
0.000484921
-0.000358434
-0.000503186
0.000855765
-1.99958e-05
-7.42121e-05
9.40322e-05
-0.000470749
0.000460279
-4.38654e-05
1.13271e-05
3.24257e-05
-0.000410777
0.000398927
-0.000125799
0.000103556
2.23408e-05
-4.84084e-05
-2.27369e-05
4.63838e-05
-4.04501e-06
-4.30376e-05
4.58373e-05
0.000155116
-7.25525e-05
-7.74841e-05
-0.000369176
0.000327668
4.183e-05
0.000134256
-0.000284449
0.000144991
0.000623649
-0.000597097
-2.67906e-05
4.08593e-05
7.46084e-05
2.9219e-07
-4.46382e-05
4.45634e-05
-0.00019709
0.000179956
1.71224e-05
-2.32069e-06
6.29789e-05
-8.30767e-05
-1.23738e-06
-6.04247e-05
5.7946e-05
0.000592112
-0.000851143
0.000257132
-0.000219919
2.28063e-05
0.00058448
-0.000452529
-0.000503112
-0.000204116
0.000161326
-1.70252e-05
-0.000147909
-2.45648e-05
-0.000118445
-0.000742556
-0.00020954
0.000941913
0.000285704
-0.000165582
-0.000126006
-0.000129678
0.00025809
0.000146188
-0.000154755
8.38589e-06
0.000627001
-0.000345978
1.51092e-05
-0.000443371
6.30813e-05
0.000267273
-3.4857e-05
3.94949e-05
0.000158453
-0.00019827
-1.26877e-05
0.000823874
0.000803046
0.000125748
-5.6422e-05
3.78596e-05
1.83966e-05
0.00027566
0.000104625
-0.000383586
2.78032e-05
0.000824081
-2.47352e-06
2.78952e-05
-2.38267e-05
3.55158e-05
-1.17486e-05
0.000908312
-4.27173e-05
-0.000180492
-3.15533e-06
0.000183624
0.000301005
-9.36474e-05
-0.000206271
-2.34972e-05
8.56302e-07
2.25701e-05
0.000186003
-8.38544e-05
-0.00010665
0.000138503
1.63276e-06
-0.00013994
-1.07665e-05
-0.00027512
0.000282609
-0.000365351
8.39098e-05
0.000273707
0.000727761
-0.000233777
0.000247941
-1.39788e-05
-3.27834e-06
-4.06793e-05
0.000156235
-0.000163293
6.89755e-06
4.50143e-05
0.000136834
-0.00037497
0.000366429
-9.57112e-07
-0.000118759
0.000157981
6.86314e-05
-7.11999e-05
9.57567e-05
6.54779e-05
5.25422e-07
-2.1636e-05
2.10613e-05
-5.63221e-05
0.000291401
-0.000236656
-0.000515956
0.000237978
0.000267246
0.000291305
-0.000730966
0.000435324
6.72174e-05
-0.0001862
0.000197568
5.8084e-05
-0.000255622
-3.0012e-05
-4.44751e-05
7.4383e-05
5.42739e-05
-1.65192e-05
-3.80331e-05
-0.000243394
0.000178249
6.53674e-05
-0.000192779
-0.00018179
0.000375168
0.000134375
0.000121224
-0.000269232
-0.000316318
0.000538056
-0.000221668
-0.000259304
-0.000109528
-7.51339e-05
-7.20134e-06
8.01797e-05
-0.000293841
0.000344162
-6.13338e-05
2.10455e-05
-3.77442e-05
1.66326e-05
0.000293853
-0.000281329
-1.30393e-05
4.23958e-05
-4.2182e-05
0.000713102
-0.000452015
0.000210082
9.16791e-05
-0.000304412
7.97772e-05
-9.05497e-05
1.06732e-05
-0.000140691
1.49845e-05
-0.000243882
7.07759e-05
0.000173706
3.64586e-05
-1.54922e-05
-0.000114793
0.000613846
-0.000499762
-0.000213376
0.000140051
7.33013e-05
0.000565336
0.000197625
-0.00077648
-1.11889e-05
-0.000189058
0.000200246
3.33722e-05
4.02504e-05
-7.37337e-05
-0.000618681
0.000124525
0.000493936
0.000119683
-0.000124869
-3.2354e-05
-2.36341e-05
6.31521e-05
-1.77695e-05
-4.53924e-05
-0.000397593
0.000316874
3.152e-05
-8.14061e-05
2.91985e-05
-0.000458571
0.000744919
0.000334335
-0.000194867
-0.000146512
-3.6279e-05
4.32648e-05
-3.28093e-05
6.40086e-05
-2.76256e-05
-4.61347e-05
-4.57785e-05
-1.50606e-05
6.08002e-05
-0.000734907
0.000619259
-0.000185061
-0.000104956
-0.000134337
-3.84928e-07
-4.41595e-05
8.76381e-05
-4.35319e-05
-5.05225e-05
5.67603e-05
-0.000346269
8.22154e-05
9.27111e-05
-0.000285339
0.000865874
-4.27219e-05
-0.000511712
-0.000107125
3.38189e-05
7.43091e-05
-0.000108424
0.000155326
-0.000251061
9.01396e-05
0.00082588
1.73429e-05
-0.000846235
-1.64748e-05
-0.000271491
0.000288558
0.000820772
-1.8302e-05
3.36742e-05
-7.98744e-06
-2.58074e-05
-0.000161165
0.000276281
-0.000115645
0.000894231
-0.00030412
0.000148689
-0.000203796
5.03171e-05
0.000298237
0.00012315
-0.000426663
-1.67881e-05
8.35352e-05
-6.78122e-05
-9.90328e-05
-0.000114385
-0.00015973
1.29227e-05
0.000146602
-0.000446893
0.000417723
2.66639e-05
-6.13317e-05
-0.000250321
0.000306464
0.000227338
-6.39925e-05
-0.000163506
-0.0001841
0.000455796
6.19595e-05
-5.39233e-05
-8.1795e-06
-3.71344e-06
-1.9898e-05
4.2536e-05
-8.67522e-05
0.000572924
7.8313e-05
-0.00065312
-0.000321706
0.000490964
-0.000169229
-0.000263287
0.000297119
-3.66543e-05
5.8384e-05
-8.89565e-05
-1.95683e-05
-0.000223868
-0.000194364
-4.88697e-05
-9.50713e-05
1.78881e-05
-8.03815e-05
4.43274e-05
3.55913e-05
0.000319138
-0.000186416
-0.000140189
-0.00050865
0.000192189
-0.00017391
-0.000245515
0.000416008
-8.9434e-07
-7.4018e-05
7.48642e-05
-9.40443e-05
0.000226684
-0.000132096
0.000710862
-0.000367877
-0.000351093
3.69957e-05
-2.36842e-05
-1.33536e-05
0.00040535
-0.000379445
-2.81133e-05
3.36731e-05
-7.96317e-05
-0.000190588
0.000179289
3.3288e-05
2.19164e-07
0.000567695
1.68291e-05
-0.000596875
-0.000245786
0.000188099
-0.000336073
0.000229157
-5.66e-05
0.00020641
-0.000444431
6.02261e-05
4.80637e-05
-0.000493209
0.000442996
-4.02992e-05
-7.65138e-05
0.000173038
-4.07562e-05
-0.00013232
4.86341e-05
0.000178286
0.000132544
-7.27322e-06
-0.000126838
-0.000174841
3.95174e-05
0.000135663
-9.00773e-05
8.31121e-05
6.95352e-06
0.000140025
1.60865e-05
-5.19963e-06
0.000169044
-0.000164364
-0.000147138
0.000672716
-0.000539517
-0.000314689
0.000311573
3.33194e-06
-0.000217956
0.000407514
-2.05372e-06
-1.86965e-05
-0.000321136
-0.000204848
-0.000264892
1.20716e-05
0.000252131
2.34144e-05
0.000143152
-0.000166943
-0.000194183
0.000212937
-1.85753e-05
-6.17438e-05
4.22584e-05
0.000116082
-6.61629e-05
-4.98053e-05
7.88126e-05
-9.71394e-05
1.15524e-05
-3.5458e-05
-5.69257e-05
2.14256e-05
3.53654e-05
0.000445737
-0.000809241
-0.000802597
5.0534e-05
1.02312e-05
4.38927e-05
0.000118324
-3.97683e-05
-7.85757e-05
-7.11563e-05
0.00089361
8.42095e-05
3.92675e-06
-8.79191e-05
-3.91579e-05
2.74069e-05
1.16915e-05
-0.000192605
1.82265e-05
6.58732e-05
-0.000370395
-0.000196322
0.000280849
-8.39066e-05
5.30905e-05
8.24941e-07
-5.44819e-05
-8.13145e-05
6.40204e-05
1.72344e-05
-3.32758e-05
0.000541347
-0.000518153
0.000143652
2.31032e-06
-0.000192959
0.000746371
-0.000159547
0.000120367
3.83186e-05
-9.02485e-05
2.14138e-05
-3.83191e-05
1.24432e-05
2.58168e-05
2.19972e-05
-4.00536e-05
1.79648e-05
-0.000602921
0.000371304
-7.91747e-05
-0.000196625
0.00027501
-0.000277332
0.000211866
-0.000356724
0.000409431
-8.86049e-05
6.84673e-05
0.000140506
-0.000234114
0.000116213
1.45158e-05
-5.67995e-05
8.06364e-05
-2.3912e-05
-2.00858e-05
-1.90871e-05
-9.49657e-05
-4.56155e-05
0.000126481
0.000189835
-0.000370156
-2.43256e-05
2.47601e-05
0.000142371
-0.000143513
9.79291e-07
-0.000271043
9.55823e-07
0.000266805
0.000241528
-0.000523375
-1.16684e-05
-0.000114081
-6.3507e-05
4.596e-06
5.8736e-05
1.62313e-05
-8.15985e-07
-1.74531e-05
6.79028e-05
7.77815e-05
-0.000145679
-9.20305e-05
1.5029e-05
7.62862e-05
8.13195e-05
-0.000403247
0.000210761
-0.000329352
0.000115473
2.67698e-05
0.000264334
-0.000209453
0.000479814
-0.000273295
-9.73464e-06
2.81649e-05
-1.84659e-05
-0.000287082
9.63857e-05
0.000195255
-0.000238363
1.18014e-05
0.000225206
-0.00032653
0.000304396
2.25801e-05
0.000200494
0.000127545
0.000627848
-0.000846374
-0.000183782
5.52117e-05
0.00012894
-0.000145263
0.000113069
3.21596e-05
-1.76182e-05
-0.000141969
0.000401857
-0.000355542
0.000587542
-0.000152747
-3.14168e-05
3.22874e-05
-2.26292e-06
2.21608e-05
4.09033e-05
-7.90255e-05
7.69133e-05
1.96677e-06
-0.000137973
-8.42334e-06
0.000146367
2.13311e-05
-0.000388952
-3.98324e-05
4.61515e-05
-6.31671e-06
-4.13713e-05
1.37583e-05
2.76892e-05
1.76794e-05
4.41422e-05
3.12903e-05
0.000107204
5.87698e-05
0.000243282
-0.000344271
7.30363e-05
-1.53921e-05
-8.51134e-05
-8.74945e-05
5.31357e-05
3.32988e-05
-1.55149e-05
2.89593e-05
-1.34434e-05
5.18362e-05
-4.76746e-05
-4.9593e-06
0.000126344
0.000154052
-2.25048e-05
-3.45576e-05
0.000123197
-0.000338504
-3.01069e-05
-2.10921e-05
5.5498e-05
4.0897e-05
5.51248e-05
-9.61264e-05
-0.000348042
0.000373218
-3.79129e-05
2.73536e-05
9.64349e-06
-0.000190126
-3.52553e-06
1.22865e-05
1.64678e-08
0.000659033
-0.000323571
-0.000340302
-0.000311378
-0.000138143
0.000244756
0.000246122
0.0001101
-4.23192e-05
0.000557666
-0.000180034
-0.000381218
0.0001144
4.68701e-05
-0.000159969
9.38974e-05
6.01463e-06
-0.000100116
-7.40249e-05
1.71118e-05
-1.95807e-05
-5.9809e-05
-0.000615227
0.000570559
5.39103e-05
-4.4441e-05
-9.48826e-06
-0.000543748
0.000655159
-0.000112661
-4.96493e-05
0.000165463
-0.000288276
0.000839616
6.52803e-05
-0.000226852
-0.000126134
5.76896e-05
4.87037e-05
-0.000127799
-3.2517e-05
-0.000170047
0.000377313
0.000135671
0.000176493
5.75508e-05
5.84924e-05
-0.000400613
0.000547288
-0.000154879
2.28504e-06
-0.000107415
0.000105085
0.000321702
8.14169e-05
0.000185893
0.000103804
7.89565e-05
-0.000165742
8.33554e-05
0.000858933
-0.000240098
9.71352e-05
-3.16787e-05
-6.55106e-05
4.1752e-05
1.20306e-05
-5.38201e-05
-0.000510344
0.00069648
5.57147e-05
4.96225e-06
-8.33666e-05
-7.54338e-05
0.00011647
0.000419515
-0.000699283
0.000267163
2.18343e-05
1.3647e-05
0.000187442
-0.000113089
-2.58223e-05
-1.25401e-05
-0.000306968
-9.27851e-05
0.000404695
-5.49886e-05
0.000254212
-0.000199984
7.79237e-05
-9.35694e-05
1.47557e-05
0.000170137
-0.000181459
1.13335e-05
0.000769483
-0.000198577
0.000115403
-7.31641e-05
-4.83879e-05
-0.000164282
0.000213325
0.000193967
0.000460168
-6.86737e-05
4.97586e-06
0.000235795
2.09848e-06
-0.000238649
0.000800697
-0.000393599
-0.000414494
-6.56636e-05
2.3556e-05
4.20466e-05
-9.90355e-05
-0.000215534
-2.08601e-05
-2.04819e-05
-0.000283802
-0.000376522
0.000659741
-9.49245e-05
8.44053e-05
1.05847e-05
0.000238987
-0.000367082
0.000123627
-0.000117552
1.13663e-05
0.000106069
-0.000285668
0.000237743
0.000417527
-0.000182661
-0.000235955
0.000117258
0.000298755
5.29987e-05
4.33715e-05
-2.59164e-05
-0.000324703
0.000346167
0.000248117
-0.000425001
8.13377e-05
-1.64502e-06
0.000826539
-0.000159428
-0.000672223
-0.000357491
0.000660565
-0.000309587
-4.08107e-05
5.75799e-06
-0.000286158
2.04099e-05
0.000544126
-0.000791164
0.000236969
-7.12771e-05
-1.88705e-05
-0.000229344
7.99088e-05
-1.60918e-05
-0.000242241
0.000241128
-4.18426e-05
7.50373e-05
-6.53121e-05
9.91764e-05
-3.39661e-05
-0.000393606
3.2042e-05
0.000231478
0.000314922
-0.000560877
-0.000581749
3.86834e-05
-4.53163e-05
0.000189245
9.45171e-05
-8.89763e-07
-2.66485e-05
3.28621e-05
-6.33117e-06
0.000225367
-0.000283186
5.73271e-05
9.04217e-06
8.79747e-05
0.000617245
-0.000935982
0.000307893
-0.000224513
-1.4571e-05
9.54424e-05
5.55631e-05
-0.000151055
-1.76313e-05
-5.95722e-05
7.62081e-05
7.87032e-05
-2.95792e-05
1.39988e-05
-1.57988e-05
0.000250582
-0.000158333
-0.000102871
2.63005e-05
-0.00016424
0.000479969
-0.000142758
-0.000350702
0.000156318
-1.28312e-05
-0.000276085
0.000140814
0.000176419
-6.29899e-06
-9.30269e-05
2.1075e-07
0.00038828
-0.000292408
-9.32294e-05
-0.000286044
-8.17255e-05
0.000362318
5.44362e-05
-4.47116e-05
-0.000193381
-5.33381e-05
8.24598e-05
-3.6852e-05
-4.68104e-05
2.73517e-05
-0.000150608
0.000123751
-3.37789e-05
-8.383e-05
-2.60301e-05
-5.53128e-05
-0.000445788
0.000234026
0.000286442
-2.75121e-05
0.000398868
-0.000145077
5.51052e-05
8.71354e-05
3.75571e-05
-0.000100279
6.2669e-05
-0.00100285
0.000409775
0.000582639
9.53786e-05
1.98642e-05
-0.000898026
0.000107666
0.000781519
-5.19096e-05
6.85806e-05
-1.6918e-05
-0.000383411
8.10996e-05
0.000281743
-0.000312605
-0.000221188
0.000407878
-0.000191977
6.01174e-05
-0.00014548
8.53458e-05
-0.000467019
0.000239728
-0.000101133
-4.40822e-05
0.000152836
-0.000193655
4.06175e-05
-5.28965e-05
-3.24613e-05
8.53697e-05
0.000297315
-0.000231914
-6.48667e-05
0.000472135
0.000321244
4.04033e-05
-0.000236265
0.000133484
-0.000126025
0.000606439
-0.000495614
6.97522e-06
-1.72964e-05
0.000837658
0.000877846
-7.82232e-05
-0.000805743
-0.000160914
0.000102993
-4.13625e-05
6.29281e-06
0.000738434
0.000226073
-0.000973073
3.78983e-05
0.000431826
0.000101466
-7.33446e-06
-0.000205441
0.000191573
5.81808e-06
-0.000100627
-0.000161397
0.00012357
3.77587e-05
-0.000192167
0.000165239
2.68778e-05
-0.000162053
0.000156368
-0.000130513
6.69374e-05
6.35444e-05
-6.86215e-05
5.07826e-05
1.77688e-05
6.53747e-05
-8.37867e-05
-0.000193336
0.000799465
-2.95372e-05
9.44295e-05
-6.51691e-05
-0.000138206
-0.00026948
0.000243693
0.000130048
-0.000378416
-0.000633953
0.000474735
6.50001e-06
6.27403e-05
5.56199e-05
-0.00011379
-4.75595e-05
0.00027547
0.000324459
-0.000604398
7.85029e-05
-4.80347e-05
-3.10471e-05
0.00048198
-0.000766687
2.02858e-05
0.000383128
5.60569e-05
2.55835e-05
0.000612998
-6.6852e-05
-0.000553335
-0.000173432
4.02308e-05
0.000133293
0.000478468
0.000225014
-7.1834e-05
-6.98121e-05
3.65461e-05
-1.47939e-05
-3.68704e-05
7.03753e-05
3.61218e-05
-7.32258e-05
-0.000226879
0.000243808
-1.83306e-05
-4.1234e-05
-0.000150987
-1.31359e-05
-5.26219e-05
5.76337e-05
-4.45447e-06
-5.31682e-05
-1.82257e-05
-7.10782e-06
2.5245e-05
1.69352e-05
3.0839e-05
-4.89562e-05
-6.60362e-05
2.91834e-05
3.62643e-05
2.03526e-05
0.000585512
0.000215658
0.000602453
-0.000825877
-2.73059e-05
-3.873e-05
6.58784e-05
-4.79963e-05
7.47017e-05
-5.76843e-06
-4.74749e-05
0.000161547
-0.000145078
-1.78414e-05
4.91268e-05
-8.13668e-05
3.14533e-05
-2.86548e-05
1.01639e-05
1.84145e-05
0.000387166
-0.000525009
7.10585e-05
-3.41895e-05
-3.70351e-05
0.000189519
-0.000171255
-1.84772e-05
0.000193972
-0.00023498
4.04437e-05
8.65884e-05
-6.26631e-05
-2.39193e-05
-0.000203598
-0.000510393
-0.000502208
1.24462e-05
-3.10747e-05
0.000197161
-0.000384428
9.52927e-05
0.000144237
5.21142e-05
-0.000128153
7.59192e-05
-1.1279e-05
0.000236183
0.000239748
0.000314106
0.000163396
-3.35056e-05
-0.00012994
0.000161628
-3.87561e-06
-1.9759e-05
7.76757e-05
4.79131e-07
5.70819e-05
0.000135446
0.000140594
-0.000157012
0.000104188
9.15846e-05
-5.80592e-05
3.44912e-05
3.71405e-05
-0.000116624
-8.65118e-05
0.000202482
9.21092e-05
-4.6518e-05
-4.60031e-05
-0.000192471
1.56634e-05
0.00017789
-7.29295e-05
-7.55086e-05
0.000148426
3.35358e-05
6.12409e-05
-0.000236802
0.000176389
2.73698e-05
2.05472e-05
-4.78871e-05
-3.3343e-05
9.09761e-06
1.6262e-05
6.2051e-05
-7.6994e-05
1.47524e-05
7.59708e-05
3.57971e-06
-8.10422e-05
-2.1084e-05
0.000221522
-0.000196692
-0.000238524
0.000431688
-7.9927e-05
0.000166649
-9.16343e-05
-1.24456e-05
-1.6291e-05
2.66935e-05
9.71051e-06
0.000620255
-0.000212587
-3.48254e-05
8.60595e-06
4.34424e-05
-0.000112223
6.86444e-05
-2.30611e-05
-4.5571e-05
9.90289e-07
2.66665e-05
2.23589e-05
6.41951e-05
-0.000161249
-2.15613e-05
0.000183553
1.84315e-06
-0.000173432
0.000171061
-0.0007566
0.000380404
0.00036195
-2.77068e-05
4.19441e-05
-1.43101e-05
2.09992e-05
-3.60648e-05
1.50126e-05
0.000445872
-0.000153172
9.98114e-06
0.000283978
-0.000299576
-4.72776e-05
-8.32808e-05
1.79699e-05
0.000154578
9.35183e-05
4.89225e-05
-0.000142472
-3.90883e-05
-3.52324e-06
2.31607e-05
1.08337e-05
-3.4051e-05
-0.000188369
-2.90187e-05
0.000119532
-9.05156e-05
-0.000173708
0.000154715
-0.000126535
-3.68532e-05
-1.38065e-06
5.65642e-05
-5.51877e-05
-0.000136671
7.52815e-05
6.0996e-05
0.000498473
-0.000280495
0.000451258
0.00020209
-0.000660574
-0.000233643
-7.66669e-05
2.44137e-05
8.13057e-05
1.60245e-05
-0.000254393
0.000554012
-2.99454e-05
-0.000131026
0.000143729
0.000122152
-0.000169241
-5.05091e-05
1.05501e-05
3.52112e-05
-6.26732e-05
-7.20665e-05
-9.89948e-05
-8.13655e-05
0.000180598
8.28577e-06
4.19263e-05
0.000225725
-0.000102376
5.50866e-05
2.29639e-05
-3.30947e-05
5.36051e-05
-2.06147e-05
-6.40421e-05
-0.000121244
0.000183167
-0.000272673
7.97902e-05
0.000106906
0.000762078
-0.000734445
0.000800876
-6.72006e-05
-0.00010432
0.000144325
-4.42771e-06
-0.000307614
0.000352059
-5.30476e-05
0.000761017
-0.000743728
-2.01914e-05
-0.000147113
-0.000210894
1.93627e-05
-5.20103e-06
8.24225e-05
-0.000997462
0.000477002
-0.000540467
0.000201977
0.00033177
0.000416404
-4.28026e-06
-0.000417588
-2.55683e-05
5.31501e-05
0.000247965
-1.30281e-05
-0.000139596
5.46803e-05
-8.42257e-05
-5.3231e-05
5.41192e-06
4.73204e-05
-3.46288e-05
5.59174e-05
0.000255755
-7.13622e-05
0.000199773
0.000499892
-0.000710456
-3.06816e-05
2.09011e-05
1.36643e-05
0.000195544
-0.000558746
-6.51789e-05
0.000207227
-0.000142818
-1.04516e-05
7.23247e-05
0.000378088
-0.000304273
-7.54912e-05
7.9452e-05
-3.00137e-05
-6.39313e-05
0.000207124
-1.37453e-05
0.000162116
-3.18907e-05
-0.000131094
0.000111752
-0.0001758
6.39276e-05
-9.69178e-06
-4.40583e-05
0.00058446
-0.000212396
-0.000373158
9.12152e-05
-4.29287e-05
0.000239678
-0.000530999
4.08356e-05
-6.05655e-05
0.000151519
-5.78837e-05
1.89481e-06
5.61159e-05
0.000668356
-0.000200335
-0.000189941
4.36252e-05
0.00014248
6.8582e-05
-0.000150157
-1.67867e-05
-1.28607e-05
2.87357e-06
3.60467e-05
3.86087e-05
-5.56325e-05
-0.000242774
1.495e-05
-0.000652413
0.000268191
-0.000140312
-0.000198939
0.000333852
-0.000627938
-0.000377395
-0.000387367
0.000389942
-3.51824e-06
-0.000275516
0.0008241
6.45785e-05
-1.19161e-05
-0.000233433
4.01207e-06
-6.18331e-05
0.000146769
-5.32585e-05
-0.00058393
0.000252579
0.000324408
-8.75741e-05
6.74996e-05
3.56098e-05
-1.503e-05
0.000615725
-0.000406247
-0.000214111
-0.000331567
0.000933081
-0.000604362
-0.000214026
7.597e-05
0.000138136
1.18329e-05
-4.32254e-05
3.15943e-05
-3.33626e-05
2.42438e-05
9.02387e-06
0.0001686
-0.000178132
9.06796e-06
-5.30758e-05
2.1287e-05
2.14623e-05
-6.34423e-05
-0.000325845
1.60683e-05
4.4408e-05
0.000255184
5.17357e-06
-0.000264112
8.14085e-05
-8.73638e-05
5.28271e-06
-0.000157827
0.00055381
0.000190598
4.25469e-06
0.000108988
-0.000135991
2.70688e-05
3.3149e-05
5.84557e-05
0.000228892
-4.34905e-05
-0.000184495
6.9707e-05
-2.90541e-05
0.000107094
6.99633e-05
-0.000181138
-2.44379e-05
6.11795e-06
-0.00025999
-1.53848e-05
-0.000378622
6.39225e-05
1.8481e-05
3.56379e-05
3.6524e-05
-2.43862e-05
0.000242299
-0.000261492
1.95135e-05
0.000157342
-5.41641e-05
0.000426686
0.000274893
4.67183e-05
0.000711188
0.000304997
-0.000180295
-5.6539e-07
-3.98956e-05
-0.000154022
0.000185571
-0.000330966
-3.30334e-05
-0.0001238
5.48509e-05
-0.000486212
-0.000281127
0.000110608
-0.000190315
0.000191073
-0.000230454
-0.000180607
-2.71503e-05
0.000207987
-0.000828975
0.000368681
0.000448203
-7.11611e-05
3.88926e-05
3.18879e-05
-0.000168622
-5.98067e-06
0.000158628
-0.000261105
0.000245167
5.13893e-05
0.000324821
-7.24182e-05
-0.000119881
-0.000197412
3.30332e-05
0.000146728
0.000155697
-7.2661e-05
-8.21119e-05
-0.00034431
0.000142561
-0.000369962
0.000309148
5.93071e-05
9.47547e-05
0.000528664
0.000121531
2.00622e-06
-0.000123657
-0.000128597
0.00015592
-4.28625e-05
-3.77782e-05
0.000216416
-0.000248736
8.96525e-05
-6.00555e-05
-3.02189e-05
3.85767e-05
0.000203988
-7.66154e-05
-1.87151e-05
9.53463e-05
-0.000218535
-6.47612e-05
0.000401041
0.000176846
-0.000578566
-0.000564323
0.00029538
-0.000344399
0.00023763
0.000108786
-0.000235786
6.60778e-05
-4.85272e-05
4.71872e-05
-0.000287404
7.01616e-06
-0.0001736
0.000258914
-0.000264998
8.32345e-06
-6.46573e-05
0.000107291
-1.18581e-06
0.000213072
-0.000213179
-3.78032e-05
2.55975e-05
1.21271e-05
0.000305373
-0.000336377
2.92184e-05
0.000714343
-0.000271418
-1.55488e-05
2.61454e-05
-1.06715e-05
-3.76162e-05
4.05569e-05
0.000221689
0.000505351
-0.000737188
0.000171863
-0.000237675
3.50738e-05
-3.39256e-05
-8.55022e-07
0.000155717
1.23335e-05
4.36373e-05
7.45304e-06
-4.49347e-05
3.68054e-05
1.59746e-06
-0.000283932
0.000288182
2.08492e-05
0.000232512
0.000143376
0.000247497
-0.000101104
6.26859e-05
-0.000144769
-3.88842e-05
9.53087e-05
6.31045e-05
2.19787e-05
9.92762e-05
-0.000122134
1.59096e-05
0.000137296
0.000156952
-0.000289691
-0.000424105
0.00040739
2.21129e-05
-2.59586e-05
-0.000161716
0.000168998
-2.00211e-05
6.17211e-05
-0.000149219
1.26787e-05
-0.000358566
0.00062934
7.76377e-05
-7.85858e-05
0.00065143
-0.000287769
-0.0003691
4.82564e-06
3.20438e-05
-0.000362065
0.000106485
-0.000306202
0.000390622
-0.000173245
-0.000198615
0.000413695
-0.00021775
-0.000769587
0.000469042
-8.43113e-05
0.000213775
-0.000130998
-0.00013078
-6.46014e-06
0.000115445
-0.000119527
-0.000210921
0.000328937
1.04254e-05
-0.000170741
1.21242e-05
0.000177106
0.000196915
-0.00011096
-8.56461e-05
-4.5602e-05
1.2426e-05
5.03773e-06
-4.52153e-05
-0.000412634
0.000174296
7.98944e-05
0.000144733
0.0001237
-0.000270665
4.16163e-05
-3.74002e-05
-4.21219e-06
3.80888e-05
-1.08825e-05
-2.73063e-05
2.28569e-05
-8.50631e-05
0.000684397
-0.000974519
0.000282592
1.03079e-05
9.08092e-05
-0.000237609
-2.36083e-05
-2.43504e-05
-0.000156047
0.000124227
-3.32847e-06
6.89318e-05
-3.58959e-05
-3.38282e-05
6.69095e-05
-0.000141073
7.40242e-05
1.5872e-05
0.000289779
-0.000308655
-0.000138126
-0.000198739
9.96592e-05
-1.55531e-05
-8.44145e-05
-0.000252115
0.000263516
-7.125e-05
9.37689e-05
0.000164074
7.75275e-05
-0.000241431
-2.7231e-05
-8.89357e-05
0.000115526
2.52087e-05
-0.000293212
0.000270545
9.68761e-05
-1.52472e-05
0.000515941
-0.000325937
-7.0576e-05
0.000230651
-0.000156877
-4.44148e-05
-0.000295974
0.000305564
-9.8266e-05
-0.000313545
0.00043148
0.000561129
-0.000878534
0.000305266
4.34453e-05
6.87866e-05
-2.47239e-05
-4.44006e-05
5.70088e-05
6.70345e-05
-0.000124006
-5.28406e-05
-4.9033e-05
0.000850148
-0.00017142
0.000810079
-0.000105703
-0.000711675
-0.000150636
-5.30643e-07
5.87365e-05
0.000515897
-0.000580382
-0.000206842
0.000273378
-5.7886e-05
-0.000451857
0.000327249
0.000118726
-7.40359e-06
0.00017234
-0.000182299
1.97749e-06
-2.97509e-05
0.000115026
0.000157726
-0.000272219
-4.31894e-05
0.000263828
-0.000233222
-1.41756e-05
0.000233865
0.000145945
-0.000160281
1.07644e-05
0.000440641
-4.18988e-05
-0.000398894
4.73958e-05
-0.000165196
0.000211786
0.000531115
-0.000743539
0.000117288
-9.50731e-05
-2.24378e-05
-5.26145e-05
0.000279283
-0.00022821
1.02478e-05
0.000145822
0.000217379
7.71713e-05
-3.04077e-05
-4.71382e-05
-2.20133e-05
8.38504e-05
-6.25385e-05
7.18412e-05
-0.000134211
5.98882e-05
-5.41283e-05
0.000156862
3.70667e-06
-0.00041055
4.35448e-05
5.66033e-05
-0.000100191
-2.53658e-06
0.000145599
-1.95913e-05
-3.08387e-05
5.02808e-05
-0.000420752
-3.62354e-05
0.000153549
-5.81492e-05
0.000376776
-3.33798e-05
-0.00034542
0.000183504
-0.000237274
-0.000124887
5.98388e-05
-0.000113477
7.73552e-05
3.34199e-05
-7.35167e-06
7.88768e-06
0.000235581
1.48431e-05
-0.000798299
0.00078117
0.000370801
-0.000818602
0.000441703
-0.000111665
9.59819e-05
1.539e-05
0.000246782
-0.000621572
0.00058296
-0.000561518
-2.6238e-05
-0.000236343
0.000172585
6.05124e-05
-0.000501386
0.000308628
0.000176564
1.07857e-05
-2.35585e-05
1.13212e-05
0.000217025
0.00051881
6.30568e-06
3.52974e-05
-0.000174197
-0.000195736
0.000366344
-0.000109946
0.000251052
4.97035e-05
-9.72836e-05
1.28366e-05
-2.96864e-05
-0.000254071
0.000318547
-0.000797094
0.000469255
0.000496185
0.000163845
2.22746e-05
9.46738e-05
-3.32038e-05
3.71176e-05
-3.56915e-06
8.07072e-05
-7.54549e-05
-5.34609e-06
0.000304106
0.00027917
0.000270412
-0.000242999
-0.000169255
6.11643e-05
2.88514e-05
-1.79091e-05
0.000229085
-0.000167009
-0.000347305
7.2889e-05
-6.53581e-05
-7.55464e-06
-0.000626047
0.000248988
-3.47536e-05
5.82926e-05
-0.000245817
0.000498058
-0.000259984
-0.000726831
0.000310523
0.00041288
4.55389e-05
1.8908e-05
-6.44809e-05
-0.000936182
2.97482e-05
-2.41376e-06
7.83008e-05
-0.00051822
-0.000226454
0.000734362
0.000126295
-0.000115903
-2.75135e-05
0.000316714
-0.000227929
-0.000176013
0.000421066
-6.6359e-05
-0.000125956
0.000187814
3.15446e-05
-2.66971e-05
0.000114474
-2.95319e-05
-8.48691e-05
-0.00023941
-0.000424225
-0.000212376
0.000149693
6.76925e-05
0.000111389
-0.00021661
0.000105553
-5.43774e-05
-4.4778e-05
1.66375e-06
-5.09121e-05
2.50552e-05
2.57711e-05
-6.79186e-05
-0.000140163
9.84589e-05
-0.000374484
7.35034e-05
0.000307228
8.57696e-05
8.56514e-05
-0.00016963
-4.17237e-05
2.17172e-06
-0.000101221
9.80125e-05
0.000181813
-8.28316e-05
0.000245664
-0.000210355
-3.82541e-05
0.000156554
-8.67875e-07
-0.000157156
0.000100455
-7.55629e-05
-2.33692e-05
-0.00094723
0.000670545
0.00027525
0.000744883
-0.000334862
-0.000422533
-6.58511e-05
-0.00035305
-0.000112081
0.00021408
-0.000101686
0.000259681
-0.000210852
-4.56108e-05
-6.01896e-05
0.000114587
-5.60406e-05
2.94845e-05
-1.21e-05
-1.74432e-05
-2.69948e-05
1.89228e-05
3.75674e-05
0.000191357
-0.000194352
-3.54191e-05
-2.84521e-05
6.32951e-05
-8.17261e-05
-1.70229e-05
9.57267e-05
0.000169341
-0.000274599
9.90403e-05
-0.000164186
-0.000433089
3.46293e-05
0.000133317
-0.00025414
0.000586017
1.51027e-05
-0.000607786
-0.000164996
0.000440119
2.11093e-05
1.69299e-05
4.02579e-05
-7.16146e-05
2.959e-05
-8.3324e-05
6.18937e-06
7.70629e-05
2.84082e-06
-0.000523523
5.38623e-05
-4.18535e-05
-5.5226e-05
6.0375e-05
-5.10656e-06
-0.000125993
0.000166505
4.6147e-05
6.75359e-05
-0.000113721
-0.000187673
-8.6769e-06
0.000196382
0.000327314
0.000404671
8.84834e-05
1.07309e-05
8.10721e-05
-0.000150975
-0.000100238
0.000101452
-1.79512e-05
-0.00022581
3.89606e-05
7.12697e-06
2.03644e-05
-0.000217268
1.55393e-05
-8.823e-05
6.78792e-05
-0.000188201
0.000316241
-0.000125406
-0.000171063
0.000172363
0.000140578
0.000243153
0.000226969
-0.000172459
-5.14268e-05
-0.000333258
-0.000182538
0.000515883
-0.000339404
0.000337181
-7.26856e-06
-7.43587e-05
0.000258652
0.000198041
-0.000469294
4.4757e-05
-0.000581826
0.000521783
5.49728e-05
0.000151259
-2.47966e-06
-3.83779e-05
7.87891e-05
4.03707e-05
-0.000119205
9.25601e-05
-6.65538e-05
-2.60431e-05
0.000601413
-0.000201068
-8.88329e-05
2.34735e-05
7.83057e-05
1.12603e-05
-8.95859e-05
0.00058484
0.000264841
6.53185e-05
-4.39131e-05
-6.52878e-05
-8.95726e-05
-3.06643e-06
8.13237e-05
-0.000123138
0.000101254
2.18117e-05
1.29253e-05
1.6511e-05
-9.06835e-05
0.00020221
1.48153e-05
7.44628e-05
-0.000472209
0.000666944
0.000110771
-6.82539e-05
1.27048e-05
9.18719e-05
-5.43305e-05
-1.54687e-06
-0.000170376
0.000453834
-0.000225764
-0.000425278
0.000734229
1.45819e-06
4.77684e-05
-8.36515e-05
3.4145e-05
-0.000370504
-0.00017929
0.000548939
-5.74812e-05
2.6361e-05
3.10782e-05
0.000215724
0.000228697
-1.26728e-05
-0.000685842
0.000695198
0.00016369
-9.72484e-05
-6.64702e-05
-0.000252717
4.25011e-06
0.000247552
-0.000392384
-0.000555343
0.000475043
0.000249941
-0.000171685
-8.15001e-05
-0.000173483
4.41834e-05
0.000125849
2.84854e-05
0.000168518
0.000173054
0.000301822
-0.000465712
-0.000241923
0.000705176
0.000137582
-0.000323169
8.79409e-05
2.65278e-05
-3.04874e-05
7.59806e-05
-0.000196677
7.57076e-06
-4.96331e-05
-0.000318859
-0.000157444
0.000174977
0.000149239
1.19938e-05
0.000113117
-0.000114688
1.48556e-06
-1.90727e-05
0.000100776
0.000149823
-0.000250211
-0.000331902
6.57059e-05
-8.90593e-05
-0.000479734
0.00022706
-0.000112591
0.000120248
-0.00048696
3.891e-05
-2.16935e-05
-4.73276e-05
0.00045876
0.000188643
-0.000174352
-6.07762e-05
-0.000101789
0.00016256
-6.05632e-05
4.04523e-05
1.98657e-05
0.000346598
-0.000325762
2.87376e-05
-1.41721e-05
-4.44433e-05
5.86717e-05
0.000224781
0.000154329
0.00068048
-0.000839126
1.73648e-05
1.6306e-06
-1.90281e-05
-0.000156886
0.000285308
-0.000355089
0.000719579
-0.000355906
-0.000123963
0.000480003
0.000144962
1.82814e-05
-4.89503e-05
-0.000489969
-0.000350632
1.24204e-05
6.90433e-05
-8.13791e-05
-4.17467e-05
-4.72003e-05
-2.08897e-05
3.81913e-05
-1.75394e-05
-4.70171e-05
-3.69152e-08
4.65729e-05
-9.23304e-05
1.80943e-05
9.15488e-05
-0.000486634
0.000385227
2.2831e-05
4.10807e-05
-6.39398e-05
-0.000653705
0.000804212
0.000725187
-0.000333351
-0.000405936
-0.000933359
0.000598818
-8.16928e-05
0.000133687
6.46683e-05
1.594e-05
-9.43264e-05
-1.75255e-05
0.000111391
7.18477e-05
3.12229e-05
-0.000748058
0.000219634
2.24945e-06
0.000529703
-0.000174276
0.000144915
2.56723e-05
-0.00080408
0.000816482
-0.000180908
0.000714311
7.75575e-05
4.82342e-05
0.000182338
-0.000171405
-0.000287567
0.000265057
2.15213e-05
3.78602e-05
-8.6818e-05
4.87993e-05
-0.000171331
0.000363456
-3.30995e-05
0.000290611
-0.00025913
-0.000144634
-0.000446061
1.49676e-05
2.69171e-05
3.01194e-05
-4.43193e-05
-3.64854e-05
-5.41095e-05
-6.7346e-05
3.13348e-05
-0.000200685
1.30408e-05
9.07444e-05
0.000133476
-7.33899e-05
0.000268206
1.49087e-05
0.000120658