/*--------------------------------*- C++ -*----------------------------------*\
| =========                 |                                                 |
| \\      /  F ield         | OpenFOAM: The Open Source CFD Toolbox           |
|  \\    /   O peration     | Version:  v2012                                 |
|   \\  /    A nd           | Website:  www.openfoam.com                      |
|    \\/     M anipulation  |                                                 |
\*---------------------------------------------------------------------------*/
FoamFile
{
    version     2.0;
    format      ascii;
    class       surfaceVectorField;
    location    "700";
    object      Uf_0;
}
// * * * * * * * * * * * * * * * * * * * * * * * * * * * * * * * * * * * * * //

dimensions      [0 1 -1 0 0 0 0];


internalField   nonuniform List<vector> 
20673
(
(1.02451 0.0906899 9.32968e-22)
(1.02704 0.0894468 -1.50952e-22)
(1.02458 0.0876661 0)
(0.998358 0.0282006 -5.97942e-21)
(0.997807 0.0273975 -4.88521e-21)
(0.997329 0.0286385 -4.63642e-21)
(0.828097 0.0172081 1.39805e-21)
(0.863449 0.02032 6.13344e-22)
(0.882176 0.022241 1.91162e-22)
(1.03863 0.0219298 -3.01266e-22)
(1.03819 0.0221241 8.10524e-22)
(1.03815 0.0217232 8.31901e-22)
(0.995531 -0.00717543 -1.56604e-21)
(0.995462 -0.00768185 1.54352e-21)
(0.994995 -0.00766333 -1.75722e-21)
(0.373059 -0.0422819 2.29995e-20)
(0.361577 -0.0691202 0)
(0.34464 -0.044164 -6.07021e-20)
(0.744918 0.017174 -3.88218e-23)
(0.743426 0.0150139 -2.22014e-21)
(0.78889 0.0182441 2.1148e-21)
(0.903738 0.0239639 -1.35558e-21)
(0.860826 0.0203407 1.34845e-21)
(0.88206 0.0201269 6.73138e-22)
(0.87885 0.00615501 2.24789e-21)
(0.852552 0.0039615 -5.45496e-21)
(0.813027 0.00443902 -1.41818e-21)
(1.0472 0.107274 4.26406e-21)
(1.05075 0.107157 -4.34775e-21)
(1.0494 0.11091 -7.30526e-21)
(1.0521 0.0343396 1.61048e-22)
(1.05218 0.0344471 2.87382e-21)
(1.05203 0.0344266 1.81715e-21)
(1.05293 0.0309428 4.87011e-22)
(1.05312 0.0311433 -1.59139e-21)
(1.05276 0.0311748 -2.46454e-21)
(1.03901 0.0222322 -6.48797e-22)
(0.219953 0.00840864 2.16189e-22)
(0.282108 0.0104563 -2.88915e-21)
(0.212388 0.00961485 -3.12798e-21)
(0.946426 0.0537119 -2.19687e-20)
(0.943165 0.0525226 -1.08397e-20)
(0.946416 0.0501725 -2.67902e-22)
(0.964738 0.0547201 3.24362e-21)
(0.963574 0.0523536 -5.89273e-21)
(0.966744 0.0522938 -1.41439e-20)
(0.991716 0.0294879 -5.33123e-22)
(0.992839 0.0297424 1.20442e-20)
(0.992494 0.0285424 7.08522e-23)
(1.05227 0.0458329 1.38466e-22)
(1.0525 0.0466056 3.06185e-21)
(1.05315 0.0457293 -2.49749e-22)
(1.05313 0.0306865 -1.4521e-22)
(1.05273 0.0307117 4.54092e-22)
(1.00018 0.00192626 5.14069e-21)
(1.00023 0.00188006 -5.22037e-21)
(1.00017 0.00176073 -5.54141e-21)
(0.999921 -0.000277157 -3.5144e-22)
(0.999888 -0.000340666 -6.39899e-21)
(0.999926 -0.00023352 -1.2878e-21)
(0.740295 0.0150726 2.99637e-21)
(0.707095 0.0115353 1.90179e-21)
(0.998879 0.00184437 1.96265e-22)
(0.998735 0.00195628 -3.42269e-21)
(0.998894 0.00207234 -1.1516e-20)
(0.934516 0.0242083 9.18714e-23)
(0.945676 0.0241367 -4.67985e-21)
(0.990265 0.000163668 2.17227e-21)
(0.989804 -0.00038083 0)
(0.989643 0.000354712 -1.32036e-20)
(0.758136 0.0178141 -2.38715e-21)
(0.721115 0.0165015 3.36136e-21)
(0.721218 0.0149436 -1.40396e-21)
(0.783911 -0.0315786 -4.27661e-20)
(0.774713 -0.0271515 1.56878e-20)
(0.77697 -0.0384528 -1.47988e-21)
(0.750851 0.0454764 0)
(0.748778 0.057151 1.67077e-20)
(0.740615 0.0474714 0)
(0.697914 0.441093 -1.82681e-20)
(0.727494 0.449128 -1.25644e-20)
(0.708353 0.481592 0)
(1.07563 0.0752885 -8.47895e-21)
(1.07494 0.0730608 -5.24518e-21)
(1.07735 0.0730763 -1.58068e-21)
(1.03548 0.0841458 6.62853e-23)
(1.03362 0.0856728 -7.44403e-23)
(1.03336 0.0830225 3.17098e-22)
(1.00966 0.0667869 2.46984e-21)
(1.00787 0.0667397 4.34823e-23)
(1.00902 0.0649182 1.96666e-21)
(0.832368 0.00846307 -1.19842e-20)
(0.824564 0.0100233 0)
(0.826806 0.0012547 0)
(0.906007 -0.0455683 -9.21762e-20)
(0.909302 -0.0479129 9.04869e-21)
(0.909856 -0.0437597 4.00619e-21)
(0.987621 -0.00504347 3.68632e-21)
(0.986835 -0.00492134 -4.44359e-21)
(0.987479 -0.00418837 3.92676e-21)
(1.05009 0.0362612 0)
(1.04948 0.0360373 -2.25148e-21)
(1.04635 0.0361498 0)
(0.998907 0.00163603 -3.95642e-21)
(0.999031 0.00175794 6.48312e-21)
(0.42359 0.0021255 -5.07046e-22)
(0.395052 0.00235216 -2.01976e-21)
(0.406611 0.00259045 -1.18326e-21)
(1.04152 0.0236839 3.27928e-22)
(1.04207 0.0238312 -1.99387e-22)
(0.437509 0.0160848 4.1576e-22)
(0.407209 0.0158561 1.89525e-21)
(0.43999 0.0162052 2.56062e-22)
(1.00478 0.000640205 7.72347e-22)
(1.00506 0.000644812 -4.66393e-21)
(1.00454 0.00035649 -7.68387e-21)
(0.999977 -7.01275e-05 2.25284e-21)
(0.999989 -4.02522e-05 -1.99219e-21)
(0.999993 -2.47765e-05 -1.23314e-21)
(1.01694 0.00594516 -2.00396e-21)
(1.01646 0.00584166 1.65822e-22)
(1.0167 0.00552689 -2.54809e-21)
(0.685656 0.111353 -4.08341e-20)
(0.700778 0.11915 4.49499e-20)
(0.684358 0.131064 4.57339e-20)
(1.01529 0.0250215 8.12518e-22)
(1.01544 0.0257306 0)
(1.01597 0.0253877 0)
(0.886303 -0.0334263 -6.71971e-21)
(0.885847 -0.0381479 -1.89547e-20)
(0.890762 -0.0359112 -6.37137e-20)
(1.05216 0.0448418 1.58315e-21)
(1.05137 0.0456685 -3.5864e-21)
(1.054 0.0379765 5.03994e-21)
(1.05366 0.0383928 -4.89043e-22)
(1.05345 0.0378627 -7.15137e-22)
(0.0900124 -0.00204924 8.64094e-21)
(0.0885839 0.036953 -1.07369e-19)
(0.12186 0.0173443 -1.28203e-19)
(1.00155 0.000402444 -1.30644e-21)
(1.00171 0.000370556 -8.70479e-22)
(1.00167 0.000566022 2.67611e-21)
(1.03691 0.0366486 -6.67316e-23)
(1.037 0.0371605 -4.5656e-24)
(1.03752 0.0367377 -1.2116e-24)
(0.962488 -0.0201164 -1.91426e-21)
(0.961648 -0.0218809 2.67092e-21)
(0.960631 -0.0201161 -2.41255e-21)
(0.0862826 -0.0347868 1.55644e-19)
(0.0498469 -0.0194946 9.71239e-20)
(0.902419 -0.0431162 -8.73006e-20)
(0.902029 -0.0478105 -8.1187e-21)
(0.990941 0.0303685 -3.72062e-21)
(0.990536 0.0290449 -3.52979e-21)
(1.03182 0.0444522 3.13644e-22)
(1.03111 0.0451344 -2.7855e-22)
(1.03216 0.0455297 1.16448e-21)
(1.05202 0.0342374 0)
(1.05212 0.0342448 0)
(0.983602 0.0105658 -7.23088e-22)
(0.984201 0.00957737 2.23228e-21)
(0.984746 0.0107042 -1.33005e-22)
(1.02425 0.0439257 2.9966e-21)
(1.02491 0.0448516 -2.15638e-22)
(1.02369 0.0449893 3.7279e-21)
(1.01461 0.0246512 -4.11134e-23)
(1.01507 0.0243076 8.16254e-22)
(1.17843 0.0923445 -1.19273e-21)
(1.08365 0.0822031 -2.05529e-20)
(1.12591 0.0833124 5.42263e-21)
(0.999397 0.0281725 4.69222e-23)
(0.998831 0.0294199 2.97518e-21)
(0.222264 0.00789843 1.48543e-21)
(1.00012 0.00197073 -1.57829e-21)
(1.00019 0.00210492 4.99979e-21)
(0.379666 -0.00780029 -2.17348e-20)
(0.40379 -0.0358879 2.88405e-20)
(1.20058 0.338074 -3.26776e-21)
(1.20033 0.31928 1.43226e-20)
(1.17481 0.318431 -4.04441e-20)
(0.995651 -0.0118412 -1.08488e-20)
(0.995148 -0.0122151 -2.11333e-21)
(0.987491 -0.0198568 -1.9288e-21)
(0.988346 -0.0193537 1.05052e-20)
(1.05453 0.0323066 -4.93284e-22)
(1.0542 0.0323284 6.05043e-22)
(1.05437 0.0319357 -3.40587e-21)
(1.00242 0.0947797 -2.59919e-21)
(1.00581 0.0952108 1.30497e-22)
(1.003 0.0987544 4.62026e-22)
(0.996044 -0.00669163 -8.1441e-21)
(0.995595 -0.00664621 2.7821e-21)
(0.938718 0.00570054 5.75116e-21)
(0.904006 0.00540325 5.68811e-21)
(0.212213 -0.0096641 1.81651e-21)
(0.243188 -0.0123005 -2.96846e-21)
(0.233234 -0.0123551 -1.87167e-21)
(0.990784 0.000656982 -8.68245e-21)
(0.990896 -5.14016e-05 2.8066e-21)
(0.0885429 0.0692435 6.71401e-20)
(0.122205 0.0894236 1.37713e-19)
(0.0897529 0.10692 -1.55402e-20)
(1.05567 0.0299783 -2.14005e-21)
(1.05555 0.0296302 -3.35691e-21)
(1.05526 0.029904 -6.45746e-23)
(0.209859 0.00195989 1.35015e-21)
(0.236783 -0.00160501 -3.03846e-21)
(0.220012 0.000856892 -5.20007e-21)
(1.02187 0.0314973 6.59917e-22)
(1.02223 0.0320951 -1.16934e-22)
(1.02141 0.0321262 6.43815e-22)
(0.701246 0.017153 3.62621e-21)
(0.701355 0.0151518 -5.54279e-21)
(0.736047 0.0175007 -5.68297e-21)
(0.99977 -0.000405224 5.98563e-21)
(0.999673 -0.000520091 1.21805e-20)
(0.999696 -0.000406945 6.0794e-21)
(0.999692 0.000230815 -2.78425e-21)
(0.99964 0.000312846 -3.17092e-21)
(0.999727 0.000300971 -1.51422e-20)
(0.996016 -0.0110058 -2.39499e-22)
(0.388434 0.0187124 -4.09415e-20)
(0.397743 0.0485289 0)
(0.41954 0.026512 0)
(0.455854 0.00170653 2.25523e-21)
(0.444831 0.00132127 5.48374e-22)
(0.188293 0.0130422 0)
(0.0839846 0.00436262 0)
(0.116952 0.00406111 0)
(1.02144 0.0308031 0)
(1.0223 0.0308335 0)
(0.999659 0.000894637 1.98736e-21)
(0.999707 0.000945607 -4.39247e-21)
(0.999717 0.000811339 -6.36481e-21)
(1.19002 0.35115 1.40797e-20)
(1.15106 0.32104 1.44798e-20)
(1.03676 0.035989 1.11796e-22)
(1.03618 0.036427 -6.59875e-23)
(1.01736 0.00607329 -4.22788e-21)
(1.01711 0.00638954 -3.58114e-21)
(0.331559 -0.00930078 0)
(0.296918 -0.00834974 -8.43765e-22)
(0.312021 -0.00829495 2.38283e-21)
(1.07065 0.0939483 -5.71794e-21)
(1.0675 0.0954114 1.08297e-20)
(1.06968 0.097714 0)
(1.00685 0.0190116 0)
(1.00738 0.0187692 -5.92408e-21)
(1.0068 0.0183751 0)
(0.957823 0.0196076 -1.56418e-21)
(0.955613 0.0199908 1.13679e-20)
(0.957484 0.0217971 -2.20446e-21)
(1.14534 0.339767 3.1114e-20)
(1.21486 0.370721 3.14524e-20)
(0.375404 -0.0955505 -2.68077e-22)
(0.404979 -0.100731 -2.40137e-20)
(0.382859 -0.130339 -2.96226e-20)
(1.05245 0.0338666 5.3179e-22)
(1.05253 0.0338212 3.73098e-23)
(1.05242 0.0337515 0)
(1.05335 0.0397647 0)
(1.05391 0.0398865 4.47985e-21)
(1.05358 0.0403452 0)
(1.05618 0.0335383 2.20133e-21)
(1.05637 0.0338168 -1.43332e-22)
(1.05655 0.0335476 4.00592e-21)
(0.591221 0.0443877 2.50659e-20)
(0.610859 0.0319554 2.86613e-21)
(0.611529 0.056711 4.38716e-20)
(1.00595 0.00441686 -1.20237e-21)
(1.00626 0.00459562 1.81552e-21)
(1.00602 0.00481148 3.62679e-21)
(0.83945 -0.0609672 -8.88764e-21)
(0.842002 -0.0530356 4.75686e-20)
(0.846979 -0.0591867 1.71803e-20)
(0.67056 0.104005 5.56966e-20)
(0.688088 0.0974665 0)
(1.02704 0.0316158 0)
(1.02766 0.0319873 0)
(1.02759 0.0311373 -7.12165e-22)
(1.00733 0.0102024 -4.71006e-21)
(1.00755 0.00988397 3.81746e-21)
(1.00771 0.0103872 4.89146e-21)
(0.918714 0.00600858 -3.31064e-21)
(0.91344 0.00417608 1.77889e-21)
(0.974324 0.00966213 -3.83613e-21)
(0.791899 0.381266 -1.69639e-20)
(0.766247 0.397738 4.48742e-20)
(0.801325 0.404107 -1.02144e-20)
(1.05424 0.0376787 -3.7809e-21)
(1.05446 0.038088 1.77713e-21)
(0.994012 0.0300294 2.31648e-21)
(0.993343 0.0310655 -1.29692e-21)
(1.03411 0.0915245 5.29207e-22)
(1.03194 0.0929482 -7.87772e-23)
(1.03444 0.0944851 6.32233e-22)
(0.120026 -0.0283239 2.30866e-20)
(0.0699737 -0.0278142 1.11863e-20)
(0.0937988 -0.0276133 1.94267e-20)
(0.457197 0.0159396 0)
(0.432814 0.0159547 0)
(1.05397 0.0320274 4.99093e-22)
(1.05418 0.0319602 4.34566e-22)
(1.05415 0.0322376 -2.82898e-21)
(0.915637 0.00616531 -2.54916e-21)
(0.852593 2.27535e-06 1.51745e-21)
(0.945935 -0.0280052 -8.86143e-21)
(0.944143 -0.0264318 1.02458e-20)
(0.943966 -0.0294774 -2.22921e-20)
(0.0998215 -0.255488 6.83903e-20)
(0.111427 -0.226053 3.7927e-21)
(0.0733249 -0.230603 5.85189e-20)
(0.996173 0.00375814 -9.48241e-22)
(0.995897 0.00407724 1.48466e-20)
(0.995755 0.00364109 9.11783e-21)
(0.181608 -0.0198186 5.66577e-20)
(0.211759 -0.0357028 1.92387e-21)
(0.212418 -0.00102088 3.72199e-21)
(0.385152 0.0155989 7.1408e-23)
(0.392298 0.0135153 2.2777e-21)
(0.407845 0.0120672 1.24996e-21)
(0.903444 -0.0346661 -4.23411e-21)
(0.900066 -0.0321645 9.45984e-21)
(0.904495 -0.0305485 -2.0663e-20)
(0.999947 -9.12151e-05 4.96958e-21)
(0.99994 -0.000135261 -1.1676e-20)
(1.05482 0.032231 -1.30799e-21)
(1.05461 0.0325345 2.06487e-21)
(0.367325 0.012277 -3.01043e-22)
(0.388726 0.0111081 -1.84948e-22)
(0.382776 0.0110059 3.1429e-21)
(0.753567 0.0347842 -2.02692e-20)
(0.763891 0.0438481 -3.68366e-20)
(1.00251 0.000388924 -2.69274e-21)
(1.00263 0.00056665 -2.43751e-21)
(1.0027 0.000341784 2.45958e-22)
(0.958588 0.0174988 -1.07513e-20)
(0.960119 0.0193488 1.65253e-20)
(1.01182 0.0250353 0)
(1.01189 0.0257747 0)
(1.01124 0.0253931 -1.6255e-21)
(1.00232 0.000389315 0)
(1.00227 0.000194082 0)
(1.01407 0.00317874 1.31525e-21)
(1.01453 0.00310021 -7.22964e-21)
(1.01418 0.0027453 4.86037e-21)
(0.347439 -0.0969173 -1.12533e-19)
(0.483109 0.00785397 1.22513e-21)
(0.473368 0.00922469 8.02777e-22)
(0.459358 0.0105156 -8.19114e-22)
(0.947994 -0.0299157 1.45724e-20)
(0.948428 -0.0268811 3.32379e-21)
(1.01558 0.0263669 0)
(1.01487 0.0260266 3.7526e-21)
(0.999914 -0.000336076 6.56914e-21)
(0.999968 -0.000201898 3.23064e-21)
(1.08625 0.0260116 -6.30688e-22)
(1.08584 0.0267222 2.17169e-21)
(1.08383 0.0242755 -6.45111e-21)
(0.965134 0.0258932 2.57521e-21)
(0.923603 0.0234751 2.45629e-21)
(1.02435 0.0936283 1.19276e-21)
(1.0219 0.0915247 -1.01117e-21)
(0.57438 0.0538564 1.82155e-20)
(0.575487 0.026936 -2.08657e-20)
(0.994982 -0.0117324 -6.51549e-21)
(0.994596 -0.0126811 -5.47622e-21)
(0.902813 -0.038928 -4.38042e-22)
(0.906827 -0.036802 1.39762e-20)
(1.05217 0.035744 -1.49736e-21)
(1.05233 0.0359142 1.80959e-21)
(1.05249 0.0356462 2.10868e-21)
(1.01289 0.0141216 -3.83627e-21)
(1.01257 0.0143969 1.4853e-21)
(1.0124 0.0138366 9.25885e-23)
(0.956437 -0.00997758 0)
(0.954032 -0.0100154 0)
(0.955502 -0.0122193 -7.48036e-21)
(0.653962 0.106055 2.30046e-21)
(0.634354 0.110892 3.84848e-20)
(0.651448 0.127363 -8.35248e-20)
(0.987079 -0.0191009 -8.41282e-21)
(0.986662 -0.0202073 -8.35192e-21)
(1.05594 0.0211757 3.60376e-22)
(1.02288 0.017869 -2.13462e-21)
(1.05729 0.0199107 3.29368e-22)
(0.783938 0.476056 1.03358e-20)
(0.791329 0.449188 2.11692e-20)
(0.758971 0.451429 1.23648e-20)
(0.963355 -0.0180471 -3.35495e-22)
(0.964497 -0.0198717 -7.51351e-21)
(1.01305 0.0124517 -3.48104e-22)
(1.01278 0.0127485 -3.80384e-22)
(1.0126 0.0121821 3.41828e-21)
(1.00526 0.0703145 -1.5838e-22)
(1.00298 0.0700937 -4.03316e-21)
(1.00394 0.0728149 -3.6897e-21)
(1.05037 0.0351822 9.37905e-22)
(1.05065 0.0351517 5.5738e-21)
(1.05041 0.0354533 3.07135e-21)
(0.124963 -0.274748 3.85802e-20)
(0.0855162 -0.288598 5.24044e-20)
(1.05207 0.0335995 1.43163e-22)
(1.05207 0.0337017 -7.06075e-22)
(1.05216 0.0336197 3.98474e-23)
(0.971372 0.123539 5.60174e-21)
(0.97425 0.120176 -3.62085e-21)
(0.977007 0.12361 7.56564e-21)
(1.02368 0.0547215 2.30107e-21)
(1.0223 0.0553436 0)
(1.02252 0.0536964 0)
(0.218949 0.0700164 -2.38138e-20)
(0.173202 0.0728277 7.76855e-20)
(0.0764407 0.0563503 -1.0928e-20)
(0.999199 0.0946539 5.8817e-21)
(1.00156 0.0918154 -3.11835e-22)
(1.04187 0.0312426 9.88957e-22)
(1.04227 0.0307124 0)
(1.04288 0.0311743 1.99619e-21)
(0.177995 0.00373179 2.55579e-21)
(0.201306 0.00158752 3.45776e-21)
(1.08993 0.02765 2.05188e-21)
(1.08471 0.0249111 5.58923e-21)
(0.930264 0.00321766 1.25773e-20)
(0.927171 0.00395634 2.84096e-20)
(0.927869 0.000608159 6.13753e-21)
(0.790233 -0.0944005 -5.51004e-21)
(0.78391 -0.0864222 3.14733e-20)
(0.778851 -0.0981307 0)
(0.999784 2.68181e-05 2.93774e-21)
(0.999808 9.04563e-05 8.51217e-22)
(0.999858 4.50087e-05 1.38739e-20)
(1.05233 0.0338777 -2.95244e-21)
(1.05242 0.0339593 5.87633e-22)
(1.0537 0.0321523 1.98987e-21)
(1.05374 0.0318441 0)
(1.056 0.0333087 -2.68746e-21)
(1.05584 0.0335693 -2.14844e-21)
(1.02653 0.032086 1.51048e-21)
(1.02643 0.0312411 0)
(1.05146 0.0373198 -2.3876e-21)
(1.05131 0.0369772 -3.91506e-21)
(1.05176 0.0370313 -2.66454e-21)
(1.01351 0.0208554 1.98679e-21)
(1.01366 0.0214698 3.40085e-21)
(1.01298 0.021152 0)
(0.837085 -0.0676563 -1.45646e-21)
(0.831623 -0.0612039 -6.70519e-20)
(0.989911 0.120834 0)
(0.985088 0.120057 -4.85856e-21)
(0.989069 0.11621 -5.4553e-21)
(-0.110157 -0.0163505 1.8126e-20)
(-0.129751 -0.013998 2.29593e-20)
(-0.0903852 -0.01691 -1.03237e-20)
(1.0549 0.0318499 2.40392e-21)
(1.05498 0.0321308 -1.61066e-22)
(1.05467 0.0320526 -9.50584e-22)
(0.98806 0.0342138 1.71583e-22)
(0.987418 0.0353539 9.77819e-22)
(0.986544 0.0340623 -9.91171e-21)
(1.06948 0.0253533 3.23966e-21)
(1.07008 0.0252324 5.61951e-22)
(1.07083 0.025948 3.39628e-23)
(0.963953 0.136329 9.61061e-21)
(0.961181 0.13982 7.30369e-21)
(0.96711 0.14024 1.18719e-20)
(0.492025 0.00843773 2.0444e-23)
(0.511603 0.00826796 -7.77282e-22)
(0.150814 -0.0380321 0)
(0.152149 -0.00159481 -7.76019e-21)
(1.0582 0.0219231 0)
(1.07076 0.0221582 3.16123e-21)
(0.998764 0.0159992 1.35604e-21)
(0.998904 0.0165996 4.5209e-21)
(0.998252 0.0163381 0)
(1.07347 0.0929463 -4.73011e-21)
(1.07133 0.0907991 -6.61496e-21)
(1.03816 0.0852937 1.70897e-21)
(1.03761 0.0826579 -1.58324e-21)
(1.0134 0.0143956 0)
(1.01318 0.0138262 3.77861e-21)
(0.999604 0.00085198 1.16269e-20)
(0.999581 0.00100783 2.20426e-21)
(0.911649 0.0640441 -1.99644e-20)
(0.908975 0.0600319 -2.12152e-20)
(0.914425 0.0606806 -3.84729e-21)
(0.799704 0.0196888 1.23925e-21)
(0.799268 0.0192917 -3.94882e-21)
(1.11271 0.091441 6.71976e-22)
(1.11573 0.0893401 1.358e-20)
(1.11733 0.0931794 -6.97788e-21)
(0.267963 0.0745629 3.54288e-21)
(0.438418 0.115248 -1.07578e-20)
(1.04273 0.0507615 -1.01008e-21)
(1.04232 0.0516919 -2.89573e-21)
(1.04342 0.0515233 -2.08174e-21)
(1.05424 0.033825 3.49165e-21)
(1.05439 0.0338207 8.28048e-22)
(1.05433 0.0340106 3.27981e-21)
(1.05204 0.0340932 -1.81268e-21)
(1.0519 0.0342153 1.44448e-21)
(1.05186 0.0339524 -1.28599e-21)
(0.312819 0.0220464 3.26542e-20)
(0.273976 0.0206027 0)
(1.11654 0.119013 -1.09894e-20)
(1.11577 0.114688 0)
(1.12024 0.116107 2.32817e-20)
(0.997696 0.000597116 -6.1404e-21)
(0.99797 0.000616753 2.09442e-21)
(0.997816 0.000319102 -6.33297e-22)
(0.566493 -0.0336572 0)
(0.570768 -0.0138081 0)
(0.546837 -0.0214259 5.20046e-20)
(0.79257 -0.0338124 5.59125e-21)
(0.790617 -0.0230361 2.65042e-20)
(1.00602 0.000328331 0)
(1.00572 0.000317953 -3.46927e-21)
(1.00628 0.0192309 -3.41179e-22)
(1.00693 0.0197119 3.61335e-21)
(0.83459 0.351005 0)
(0.829946 0.32741 1.30428e-20)
(0.853462 0.334563 1.08566e-20)
(1.1078 0.344273 -2.31666e-20)
(1.11157 0.332699 2.11996e-20)
(1.16929 0.366381 -4.93785e-20)
(1.03935 0.0298062 4.78815e-23)
(1.03989 0.0299184 -6.23748e-23)
(1.03953 0.0303279 8.19093e-23)
(1.00145 0.000474717 -1.16133e-21)
(1.00145 0.000298705 8.12909e-21)
(1.0506 0.0363565 -9.19525e-22)
(1.05022 0.0364898 -9.46081e-22)
(1.05065 0.0367652 4.18042e-21)
(1.05038 0.0348626 -3.82934e-21)
(1.05005 0.0351199 -3.86282e-21)
(0.192604 -0.00764042 3.56634e-21)
(0.183718 -0.00788569 1.78924e-21)
(1.06894 0.0237383 2.27816e-23)
(1.0682 0.0239964 -2.23795e-21)
(1.06931 0.0247679 -2.20696e-22)
(0.988293 -0.00499171 -8.62635e-21)
(0.987884 -0.00563296 4.59535e-21)
(0.982523 0.0101831 4.48204e-22)
(0.983 0.0113066 5.64722e-21)
(1.05283 0.0396471 2.93648e-21)
(1.05313 0.0392303 0)
(0.803964 0.0173654 -1.26221e-21)
(0.854378 0.021689 -8.41426e-22)
(0.843178 0.0208932 1.7916e-22)
(0.958465 -0.0100569 1.23156e-20)
(0.957477 -0.00823175 0)
(0.738908 0.0139734 -8.64776e-23)
(0.732832 0.0129414 1.81087e-21)
(0.783308 0.0164952 3.09676e-22)
(0.128683 -0.0032291 1.44005e-21)
(0.157113 -0.00512487 0)
(0.137467 -0.00246981 4.5508e-21)
(1.05407 0.0336673 8.43339e-22)
(1.054 0.0339192 -4.88326e-21)
(1.00703 0.00995129 2.51779e-21)
(1.00709 0.0104427 -5.31947e-21)
(0.483549 0.283072 -1.7454e-21)
(0.502277 0.316691 7.02459e-20)
(0.450286 0.315978 0)
(1.0512 0.0392071 0)
(1.05175 0.0393608 -3.15339e-21)
(1.05131 0.0397448 3.30688e-21)
(-0.0286965 -0.0149569 0)
(0.00684307 -0.0185096 -5.62531e-21)
(-0.0109668 -0.014516 0)
(0.995547 0.0070407 1.95218e-21)
(0.995679 0.00751095 2.04986e-22)
(0.995244 0.00741746 6.95387e-21)
(1.21962 0.106847 9.60759e-21)
(1.21355 0.110262 -1.55953e-20)
(0.998607 0.0152373 -4.44651e-21)
(0.999277 0.0155639 7.03488e-21)
(1.07165 0.0636223 -6.43545e-21)
(1.06987 0.0628297 3.32323e-21)
(1.07014 0.0646882 -5.225e-21)
(1.00466 0.000840796 4.53168e-21)
(1.00452 0.000569435 6.04435e-21)
(0.41519 -0.00075706 0)
(0.386294 -0.00207776 -1.66709e-21)
(0.405652 -0.00093158 0)
(0.908273 0.00284562 5.31171e-21)
(0.902897 0.00177596 6.47493e-22)
(0.963698 0.00734815 4.44699e-21)
(0.963536 0.0569 5.0573e-21)
(0.966602 0.0568652 1.59677e-20)
(1.09023 0.353644 2.46127e-20)
(1.09737 0.34502 8.92583e-22)
(1.09809 0.338136 -8.55059e-21)
(1.02493 0.0555543 9.87382e-22)
(1.02479 0.053987 4.803e-22)
(1.00658 0.00963597 -9.69937e-22)
(1.00686 0.00934388 1.35068e-20)
(1.05196 0.0362207 0)
(1.05005 0.0364474 -5.43066e-22)
(1.05512 0.031652 4.62971e-22)
(1.05482 0.0315614 5.8687e-23)
(1.04211 0.050004 4.22749e-22)
(1.0431 0.0498747 1.51028e-21)
(0.940517 0.0255415 -7.4728e-22)
(0.901604 0.0216911 -7.87599e-22)
(0.953986 0.0279298 -9.77324e-22)
(0.117848 -0.00222206 1.94119e-21)
(0.0981214 0.00144002 -1.02355e-21)
(1.00742 0.00272739 7.04561e-21)
(1.00775 0.00284133 -1.75962e-21)
(1.00764 0.00244411 4.36007e-21)
(1.01156 0.066651 5.27099e-22)
(1.0105 0.0687681 3.70372e-23)
(0.356998 -0.0108595 -2.9845e-21)
(0.371482 -0.0103066 2.03647e-21)
(0.0317487 0.0176854 -3.20612e-20)
(-0.023096 0.0118051 8.1265e-20)
(0.022654 0.0149831 6.3337e-20)
(0.999768 -4.41188e-05 -3.25452e-21)
(0.999709 5.05239e-06 -3.24376e-21)
(1.0017 0.00487496 0)
(1.00188 0.00512578 -7.61009e-21)
(1.00167 0.00512487 0)
(0.464953 0.0194036 -6.86079e-21)
(0.482539 0.0181565 -8.76691e-21)
(1.05277 0.0335006 2.87417e-21)
(1.05262 0.0335708 1.44857e-21)
(1.05262 0.0333763 3.9428e-21)
(1.00002 5.51559e-05 1.28087e-21)
(1.00001 4.20173e-05 -9.69338e-21)
(1.00002 6.90012e-05 -4.98072e-21)
(1.05396 0.0364704 -2.34348e-22)
(1.05423 0.0365437 0)
(1.05379 0.0362383 3.0567e-21)
(1.06301 0.0434282 -2.91895e-21)
(1.06242 0.0425516 -1.25273e-21)
(1.06178 0.0436024 -1.13453e-20)
(0.799525 -0.0933312 2.65918e-20)
(0.795623 -0.103755 -1.16322e-20)
(1.02405 0.0803274 0)
(1.0255 0.082646 0)
(1.0263 0.0797619 6.35448e-22)
(0.99975 0.000157627 3.12829e-22)
(0.999829 0.000156353 -5.68264e-21)
(0.936695 0.143111 -1.34517e-20)
(0.938586 0.135719 -3.97361e-21)
(0.930607 0.138342 -4.55596e-21)
(0.164525 -0.00247367 5.5612e-23)
(0.16709 -0.00148889 4.55055e-23)
(0.135088 0.00031331 4.30263e-21)
(1.02672 0.0181938 -1.4672e-21)
(1.0272 0.0181799 2.71271e-21)
(1.02716 0.0186378 1.93709e-21)
(1.08363 0.100754 -4.73353e-21)
(1.08081 0.103082 7.70651e-21)
(1.08046 0.0985677 0)
(0.563651 0.0701297 -3.31814e-20)
(0.577366 0.0905782 5.57504e-20)
(0.548519 0.0936741 -3.04703e-20)
(1.01177 0.0243013 1.49902e-21)
(1.0124 0.0246341 -1.72216e-21)
(0.984789 0.00872337 -2.48412e-21)
(0.983776 0.00849475 -5.49636e-21)
(1.05158 0.0331587 6.75383e-22)
(1.05173 0.033304 -1.05759e-21)
(1.05178 0.033097 2.62965e-22)
(0.501612 0.0159618 -4.24254e-21)
(0.485763 0.0162997 0)
(0.485891 0.0162016 -1.63483e-21)
(1.05207 0.0334713 4.6257e-21)
(1.05197 0.0335924 -3.07101e-21)
(0.91351 0.0681939 1.93581e-21)
(0.908681 0.0680603 0)
(0.949586 0.0544716 6.23269e-21)
(0.946721 0.0568804 1.38118e-20)
(1.00002 0.000116847 -5.89318e-22)
(1.00002 0.000102247 0)
(1.00001 6.86832e-05 0)
(0.34457 0.0132269 6.75857e-22)
(0.351113 0.0130224 -1.26991e-21)
(1.09073 0.0114355 1.7477e-20)
(1.11104 0.0152028 3.37077e-21)
(1.11384 0.0145333 -5.30877e-21)
(1.05544 0.0370884 -1.18621e-21)
(1.05456 0.0370719 -7.6254e-21)
(1.05307 0.0371309 -5.76773e-21)
(1.00624 0.00941414 -7.64488e-21)
(1.00637 0.00993138 -5.63918e-21)
(0.138465 -0.0123453 1.59759e-21)
(0.172688 -0.0154697 3.41519e-21)
(0.157368 -0.0147403 9.40963e-21)
(0.291499 0.00742633 -2.7824e-22)
(0.294652 0.00851763 -1.57885e-22)
(0.264364 0.00885006 -1.57331e-21)
(1.04392 0.0309626 1.48941e-21)
(1.04284 0.0312781 -9.36385e-23)
(0.695992 0.0155137 3.05721e-21)
(0.669768 0.0127717 4.93286e-21)
(1.05574 0.0303407 7.12593e-22)
(1.05606 0.0300841 -9.41712e-23)
(0.999654 0.000154878 6.1178e-21)
(1.00334 0.000469785 4.80396e-22)
(1.00312 0.000497644 -3.37034e-22)
(1.00336 0.000737804 7.84505e-21)
(1.05208 0.0442024 -2.50492e-22)
(1.05137 0.0440147 -4.90714e-21)
(1.05196 0.0434849 3.73571e-22)
(0.347972 -0.00100668 2.11319e-21)
(0.325676 0.000407969 4.09393e-22)
(0.321512 -0.00027987 1.50726e-21)
(1.05725 0.0351488 1.01824e-21)
(1.05774 0.0353518 9.60253e-21)
(1.0576 0.034686 7.40979e-22)
(1.02355 0.0430426 8.81003e-22)
(1.0247 0.0429461 0)
(1.0694 0.023361 9.11504e-21)
(1.06592 0.0219537 -2.5025e-21)
(1.05092 0.0270563 8.77759e-22)
(1.05067 0.0267883 2.66249e-22)
(1.01446 0.00191904 3.35158e-21)
(1.01429 0.00230952 3.33986e-21)
(1.01475 0.00223895 -4.26908e-21)
(1.13305 0.0373122 -7.7534e-21)
(1.13046 0.0351792 -1.44962e-20)
(1.15236 0.0362668 1.10445e-20)
(1.00043 0.00206203 -6.39797e-21)
(1.00047 0.00199857 0)
(1.00039 0.00189678 -5.82274e-21)
(1.06899 0.0257108 -3.9075e-21)
(1.04767 0.024315 2.2524e-21)
(1.03874 0.0297077 -4.7038e-23)
(1.0391 0.0293136 4.00875e-23)
(1.00003 4.28555e-05 1.39644e-21)
(1.00004 6.79426e-05 5.38058e-22)
(0.965424 0.0681389 0)
(0.963777 0.071366 -3.28773e-22)
(0.962434 0.0677531 0)
(0.96947 0.127788 -1.15461e-21)
(0.966555 0.123481 3.25668e-21)
(0.777631 -0.0771276 -3.55141e-20)
(0.788051 -0.0753199 3.39774e-20)
(1.05297 0.036569 -1.30775e-21)
(1.05367 0.0363885 5.06492e-21)
(0.957907 0.0929421 -1.07978e-20)
(0.957307 0.0975772 7.58756e-21)
(0.953213 0.0939169 -1.04714e-20)
(1.02472 0.0212689 -3.56579e-21)
(1.02462 0.0218208 -3.15968e-21)
(1.0242 0.0212647 -1.66512e-21)
(1.08821 0.0345422 0)
(1.09013 0.0356252 3.55848e-21)
(1.09126 0.0337438 0)
(0.96974 0.0286276 1.25844e-21)
(0.924738 0.0233315 0)
(1.04966 0.00358944 1.04959e-20)
(1.05731 0.0056093 1.50056e-20)
(0.995333 0.00663269 5.41308e-21)
(0.995838 0.00673148 3.66108e-21)
(1.04637 0.0296491 -6.10739e-22)
(1.04299 0.0294665 -1.15464e-22)
(1.04769 0.0292299 1.79342e-21)
(0.998353 -0.00653218 1.17357e-21)
(0.998224 -0.00638076 -4.4966e-21)
(0.998108 -0.00709237 3.50578e-21)
(1.02496 0.0208146 -1.06581e-21)
(1.02532 0.0213322 4.41733e-21)
(0.996436 0.00340927 -8.1475e-21)
(0.996597 0.00380759 -1.33535e-20)
(0.811848 0.501023 -1.81491e-20)
(0.769082 0.50971 -2.40078e-20)
(1.00069 0.000443669 5.85688e-21)
(1.00076 0.000391082 0)
(1.00065 0.000345674 0)
(1.07336 0.064296 4.83297e-21)
(1.07304 0.0624815 3.92931e-21)
(1.02179 0.0813652 -2.5972e-21)
(1.02246 0.0785551 0)
(1.01335 0.0201496 6.71551e-22)
(1.01401 0.0204722 -1.27118e-21)
(1.05091 0.03622 -3.51674e-21)
(1.05048 0.0361216 2.49534e-21)
(1.00273 0.04233 4.49864e-21)
(1.00385 0.041502 2.95184e-21)
(1.0041 0.0430144 -8.24274e-22)
(0.120292 -0.0625654 0)
(0.105721 -0.0846479 7.95101e-20)
(0.107328 -0.0524118 5.77726e-20)
(0.96719 0.132624 -1.17758e-20)
(0.961642 0.132418 -8.28605e-21)
(1.06549 0.0922912 5.25603e-21)
(1.06417 0.0957908 7.28529e-21)
(1.01531 0.0168642 4.63822e-21)
(1.01545 0.0174422 8.92816e-21)
(1.0159 0.0170635 3.60353e-21)
(0.985778 0.00891458 1.01629e-20)
(0.985353 0.00796278 -2.51157e-21)
(0.0812037 -0.0268537 -1.82945e-20)
(0.0472645 -0.0256426 9.50946e-21)
(0.0361776 -0.0266333 -7.12544e-21)
(0.356241 0.01102 -2.75114e-22)
(0.348671 0.011866 1.50908e-21)
(0.373654 0.00978441 2.32904e-21)
(0.995602 0.00437404 5.40876e-21)
(0.996006 0.00446432 4.75266e-21)
(1.00379 0.000453789 0)
(1.00406 0.000618471 -2.92202e-21)
(1.00379 0.000792027 -1.45913e-21)
(1.13744 0.0393075 -1.45233e-20)
(1.12076 0.0393239 1.17623e-20)
(1.00151 0.0164406 4.5296e-21)
(1.00127 0.0170585 1.02926e-20)
(1.00198 0.01711 -7.7193e-22)
(0.278408 -0.0140108 -6.02169e-21)
(0.2545 -0.012233 -1.60631e-21)
(1.01511 0.016359 -6.54101e-21)
(1.0147 0.0166915 -3.2866e-21)
(0.423624 -0.000764102 0)
(0.444031 0.000275346 9.89104e-22)
(1.03353 0.0196069 -2.07141e-23)
(1.03374 0.0192885 0)
(1.03402 0.0197672 2.47247e-23)
(1.10836 0.22176 0)
(1.09939 0.221782 0)
(1.10396 0.23117 -5.66546e-21)
(1.04397 0.0370781 0)
(1.04356 0.0374607 -7.31152e-22)
(1.04422 0.0376459 0)
(0.0889265 0.181048 -8.57899e-21)
(0.0903297 0.141719 -8.90032e-20)
(0.123408 0.161557 -6.58903e-20)
(0.932959 0.00503097 5.77256e-21)
(0.933328 0.00194929 5.51488e-21)
(1.09237 0.0297922 -1.82746e-21)
(1.09265 0.0288727 -5.20006e-21)
(0.509016 0.194998 0)
(0.482006 0.203795 6.69914e-20)
(0.508767 0.226939 0)
(0.968403 0.06908 -6.93657e-21)
(0.967392 0.066095 0)
(1.05291 0.0335791 -2.61081e-21)
(1.05291 0.0333544 7.92006e-22)
(0.908465 0.388823 -3.94594e-21)
(0.92324 0.403238 -1.87173e-22)
(0.898024 0.409242 1.18833e-20)
(0.97967 0.0206846 -8.4619e-21)
(0.978605 0.0197692 3.84942e-21)
(0.978292 0.0212736 -7.73653e-21)
(0.45437 0.00604643 0)
(0.427504 0.00668932 0)
(0.436133 0.00654329 0)
(0.581738 -0.0438001 -2.2851e-21)
(0.56145 -0.0541685 -6.02589e-20)
(0.311533 0.00740224 -1.99439e-21)
(0.291242 0.00796033 -7.03148e-22)
(0.917899 -0.0255209 -1.96296e-20)
(0.914196 -0.025162 1.27085e-20)
(0.916401 -0.0218348 -1.2746e-20)
(0.407632 0.0144153 3.06666e-22)
(0.376683 0.0142388 3.01439e-21)
(0.408943 0.0145661 2.3229e-21)
(1.01348 0.0666123 0)
(1.01433 0.0688324 4.08743e-21)
(1.01546 0.0669363 2.1053e-21)
(0.18549 -0.0187944 2.85305e-20)
(0.252512 -0.0177381 7.34617e-21)
(0.28088 -0.018212 6.91621e-21)
(0.516325 0.165774 -4.52137e-20)
(0.540074 0.188991 0)
(0.887501 0.255186 -1.82935e-20)
(0.873324 0.253367 -2.79655e-20)
(0.881064 0.268173 1.22231e-20)
(0.902828 0.259688 1.51588e-20)
(0.896026 0.244282 0)
(0.796093 0.0143909 0)
(0.771795 0.0119567 2.54634e-21)
(0.999511 -0.000925504 3.72461e-21)
(0.99936 -0.00110128 3.74975e-21)
(0.999405 -0.000922949 3.68515e-22)
(0.994741 0.120471 0)
(0.992188 0.125126 0)
(0.181189 -0.0303061 -1.11146e-20)
(0.155155 -0.0303594 1.89861e-20)
(0.973214 0.00480468 2.1996e-21)
(0.971937 0.00514751 -9.79992e-21)
(0.972171 0.0036227 -4.0936e-21)
(0.974457 0.0436314 -9.69633e-22)
(0.975763 0.0421685 0)
(0.973525 0.0417587 -9.76557e-22)
(0.307902 0.00849407 -1.79375e-22)
(0.314205 0.00863223 -5.99738e-22)
(0.814122 0.367952 0)
(0.842802 0.373838 -2.92126e-20)
(0.991832 0.0331437 4.36372e-21)
(0.991109 0.0341311 3.37329e-21)
(0.992628 0.0344785 -3.20073e-21)
(1.05167 0.0339021 -3.81737e-22)
(1.0517 0.0341527 1.71079e-21)
(0.664722 0.437861 -1.75442e-20)
(0.689031 0.41128 -7.66101e-21)
(1.00467 0.0035936 2.39454e-21)
(1.00492 0.0038411 5.33608e-21)
(1.00496 0.00351732 -6.8731e-21)
(0.378414 0.0146303 -1.61348e-21)
(0.352025 0.015505 -1.67137e-21)
(1.05148 0.0353123 -2.92698e-21)
(1.04949 0.0353417 -2.09241e-21)
(1.05215 0.0355384 3.51816e-21)
(1.00038 0.00211974 5.53431e-21)
(1.00045 0.00224038 -6.14144e-21)
(1.0027 0.00813397 -4.06852e-21)
(1.00251 0.00777817 7.04148e-21)
(1.00239 0.0081395 -1.66751e-23)
(0.998408 -0.0068667 4.1423e-21)