/*--------------------------------*- C++ -*----------------------------------*\
| =========                 |                                                 |
| \\      /  F ield         | OpenFOAM: The Open Source CFD Toolbox           |
|  \\    /   O peration     | Version:  v2012                                 |
|   \\  /    A nd           | Website:  www.openfoam.com                      |
|    \\/     M anipulation  |                                                 |
\*---------------------------------------------------------------------------*/
FoamFile
{
    version     2.0;
    format      ascii;
    class       volVectorField;
    location    "450";
    object      U;
}
// * * * * * * * * * * * * * * * * * * * * * * * * * * * * * * * * * * * * * //

dimensions      [0 1 -1 0 0 0 0];


internalField   nonuniform List<vector> 
13851
(
(1.05339 -0.0296512 -9.99124e-21)
(1.03003 -0.0341352 -1.0591e-21)
(1.02971 -0.0333615 1.85708e-21)
(-0.122735 -0.00662107 0)
(1.00093 -0.000222922 1.13698e-20)
(1.03049 -0.0421977 0)
(1.03845 -0.0198417 -1.19939e-21)
(1.00873 -0.000719975 -4.39101e-21)
(0.549242 -0.006529 2.81664e-21)
(0.988434 0.00864346 -1.89004e-20)
(1.06087 -0.0780384 5.78997e-21)
(0.998884 -0.00236416 0)
(0.973853 0.00493583 3.34969e-20)
(0.348341 -0.0109012 2.59023e-21)
(1.04624 -0.0318348 -2.10592e-21)
(1.05657 -0.0292843 0)
(-0.186605 0.0156958 5.88958e-20)
(1.01566 -0.0207436 0)
(1.06611 -0.0253476 6.86965e-21)
(1.05357 -0.0297702 9.03565e-21)
(1.04782 -0.0348896 0)
(0.995625 -0.0626932 -5.46611e-21)
(0.931102 -0.370112 9.71347e-20)
(1.00003 -8.81107e-05 -2.0095e-20)
(1.09806 -0.028462 0)
(1.05323 -0.0257457 2.95774e-21)
(1.05249 -0.031448 -3.39664e-21)
(1.05269 -0.0211028 -5.85538e-21)
(0.63461 -0.0134847 8.09045e-21)
(1.01029 -0.0114708 -7.8046e-21)
(0.14467 0.0010127 0)
(1.03816 -0.0199996 1.84273e-21)
(1.05272 -0.0297237 0)
(0.712737 -0.00293465 0)
(1.04586 -0.0694176 2.66875e-21)
(0.65802 -0.014638 6.23097e-21)
(1.00002 -7.89119e-05 1.97534e-20)
(1.15187 -0.0986125 3.60208e-20)
(0.399433 0.029438 -8.65699e-21)
(0.98954 -0.0204121 -2.17241e-20)
(0.567973 0.00881164 3.23505e-21)
(0.672954 -0.0145817 -2.69492e-21)
(-0.208744 0.00754467 -8.36817e-21)
(1.02638 -0.353214 -4.85712e-20)
(0.70088 -0.013768 0)
(1.0019 -0.0145256 6.48968e-21)
(1.01934 -0.00131119 0)
(1.05408 -0.0298496 2.83537e-21)
(1.00832 -0.0433875 1.3206e-20)
(0.973958 0.00586256 -9.55283e-21)
(0.0426742 0.0102833 3.15302e-20)
(0.968803 0.0142812 2.08325e-20)
(1.05623 -0.0292202 0)
(1.04509 -0.0233358 0)
(0.382665 -0.013004 6.33554e-21)
(0.988618 -0.0203029 3.9694e-20)
(1.05279 -0.0296249 7.26967e-24)
(0.526285 0.0087932 1.86611e-21)
(1.05508 -0.0330484 7.02863e-21)
(0.264374 -0.00501841 0)
(0.998981 -0.00215182 0)
(1.05141 -0.0311614 -6.33764e-21)
(0.99461 0.00875529 0)
(1.00786 -0.0448286 3.55452e-21)
(0.840215 -0.336133 -1.22082e-23)
(0.824181 -0.354106 5.0267e-21)
(0.23644 -0.00717454 -7.93893e-22)
(0.685835 -0.043772 0)
(0.998627 -0.0261421 -1.06556e-20)
(-0.0496254 -0.00114379 -1.73341e-20)
(0.0234749 0.0211365 0)
(1.0503 -0.0352074 4.09435e-21)
(0.983856 -0.00714708 -4.0956e-21)
(0.255524 -0.00652915 7.21185e-22)
(1.04539 -0.0257002 -1.36233e-21)
(0.987716 -0.0477424 -2.86965e-20)
(-0.155433 0.0139376 6.43261e-23)
(1.014 -0.00841737 0)
(1.09832 -0.0290166 0)
(0.99724 -0.00803362 6.31583e-21)
(0.999154 -0.0268963 1.16566e-20)
(1.11135 -0.0632203 -6.5593e-20)
(1.04401 -0.0701418 -3.82118e-21)
(0.34256 -0.0100298 -1.93532e-21)
(0.277102 -0.0054478 0)
(0.102533 0.0113046 0)
(0.997429 -0.0639271 -1.15702e-20)
(0.438407 -0.0181018 6.40244e-21)
(0.987766 0.0046548 1.94767e-20)
(0.156566 -0.00361417 0)
(0.967883 0.0156323 -4.09053e-20)
(1.03836 -0.0205284 1.22985e-21)
(-0.0646397 0.00434241 2.78406e-20)
(0.0263066 0.0130577 0)
(0.300974 0.0262274 1.8782e-20)
(1.01159 -0.321923 0)
(0.997868 -0.013558 -1.47466e-20)
(1.0551 -0.029834 0)
(0.132733 0.00361308 -8.63339e-21)
(1.09803 -0.13123 -2.36463e-20)
(1.0549 -0.0301267 1.44985e-21)
(0.797264 -0.0475745 0)
(0.794925 -0.0776522 -8.36253e-20)
(0.979434 -0.00640672 -1.82672e-20)
(1.00431 -0.0157611 0)
(1.05041 -0.0392513 7.68707e-21)
(1.004 -0.0152989 -1.13453e-20)
(0.0571324 0.0169168 0)
(1.03804 -0.0206903 -1.1811e-21)
(1.01537 -0.0201511 -5.80469e-21)
(0.980254 -0.0870327 1.10346e-20)
(1.00222 -0.0150991 -5.76113e-21)
(1.07689 -0.0402167 0)
(1.05972 -0.0532667 -9.28326e-21)
(1.05223 -0.0298015 -4.68576e-21)
(1.04461 -0.0233626 0)
(1.0076 -0.00687225 1.62308e-20)
(1.00933 -0.000895491 -4.15327e-21)
(-0.149076 -0.00346735 0)
(0.0155376 -0.00941084 0)
(1.03324 -0.259743 0)
(1.0135 -0.0165985 7.89606e-21)
(0.995018 -0.0248649 0)
(0.391344 -0.000824073 -9.38169e-23)
(1.05944 -0.0265129 0)
(0.60671 -0.11398 1.87189e-19)
(0.998449 -0.0134953 0)
(1.04389 -0.106952 0)
(0.553831 0.00400461 -2.21069e-21)
(1.04902 -0.032599 -7.34654e-21)
(0.993049 -0.0634119 6.67544e-21)
(1.03281 -0.0573834 2.88237e-22)
(1.14512 -0.0997714 -3.06947e-20)
(0.68971 -0.00195853 2.96146e-21)
(1.06296 -0.0764779 -7.16053e-21)
(0.288565 0.0303919 0)
(0.699517 -0.0374954 2.14727e-21)
(0.0729181 0.0141481 0)
(0.835683 -0.0262725 -2.68504e-20)
(1.04873 -0.031432 -2.40298e-21)
(1.11055 -0.0655573 5.50531e-20)
(0.960502 -0.0132884 0)
(0.987041 0.00508502 -2.84205e-20)
(0.724583 -0.216422 -6.93077e-20)
(1.07599 -0.0194564 2.10486e-20)
(0.978504 -0.0435795 -6.86804e-21)
(1.01412 -0.00804802 1.10123e-21)
(0.0423279 0.00848618 0)
(0.512488 -0.0106738 3.68502e-21)
(1.04691 -0.108381 0)
(1.05462 -0.0300918 0)
(1.07696 -0.0414151 0)
(1.06124 -0.0528966 -3.51677e-21)
(1.06371 -0.0272525 -1.86582e-21)
(0.964797 0.00575563 1.27896e-20)
(0.980316 0.0127493 1.29286e-20)
(0.999566 -0.00208629 7.13756e-21)
(0.32197 0.0267928 -1.40649e-21)
(1.04801 -0.0317501 -4.97781e-22)
(1.03505 -0.023027 0)
(1.00006 -0.000203232 -2.05432e-20)
(0.643621 -0.0146831 0)
(1.04978 -0.0388269 -8.6353e-21)
(1.05386 -0.0298278 -2.24006e-21)
(0.351813 -0.0111458 2.46855e-21)
(0.63705 -0.00671629 0)
(0.651275 -0.00794972 1.61482e-21)
(0.0564754 0.012844 -1.38445e-20)
(0.981629 -0.0837196 1.05768e-20)
(1.08804 -0.0157619 -9.13552e-21)
(0.999009 -0.00179105 0)
(1.00771 -0.00658761 -1.30847e-20)
(1.05445 -0.0410919 -1.58888e-21)
(1.00047 -0.000194113 -5.51307e-21)
(0.356088 0.0297179 0)
(1.05092 -0.029223 0)
(1.05316 -0.0304721 -1.37613e-21)
(1.00817 -0.00675354 0)
(1.04554 -0.0250126 2.61961e-21)
(1.05333 -0.0303378 1.19006e-21)
(1.05891 -0.0268941 0)
(1.02932 -0.33761 2.24418e-20)
(0.9865 -0.0795888 1.34845e-20)
(1.04873 -0.0322528 5.28476e-21)
(-0.18834 0.00651066 7.16461e-21)
(0.519998 -0.0114522 -5.68716e-21)
(1.0526 -0.0296774 -4.82938e-21)
(0.877213 -0.0122538 0)
(0.968903 0.00315876 -1.13143e-20)
(1.00723 -0.0131758 1.4267e-20)
(1.08368 -0.0220991 -4.28835e-21)
(1.04793 -0.0320367 -1.04245e-21)
(0.322904 -0.0140516 0)
(1.03147 -0.041581 1.3525e-21)
(0.980541 -0.0425482 6.8615e-21)
(1.05565 -0.0295625 0)
(1.05254 -0.0297511 5.91151e-21)
(1.02429 -0.0211962 -2.11666e-21)
(1.01532 -0.0267523 -6.10238e-21)
(0.699532 -0.0768315 7.35475e-20)
(1.11294 -0.0717289 -3.28084e-20)
(0.388689 0.0225346 0)
(0.517663 0.012667 -5.64546e-21)
(1.04612 -0.0313825 1.75972e-21)
(0.890642 -0.555372 1.47806e-20)
(0.340588 0.0225166 -4.8403e-21)
(0.931191 0.0193814 2.78488e-20)
(1.04883 -0.029311 -4.09943e-21)
(0.549991 -0.00505458 0)
(1.02635 -0.0444583 0)
(1.05717 -0.0288968 1.23673e-20)
(0.994976 -0.0241974 4.19957e-21)
(1.1139 -0.0689736 4.80568e-20)
(0.999912 -0.000412517 6.02955e-21)
(1.04779 -0.0660684 0)
(0.988173 -0.0537848 -7.61555e-21)
(0.975452 0.00615485 -4.43053e-21)
(1.05382 -0.0278501 -5.22645e-21)
(1.02049 -0.0243462 4.85881e-21)
(0.135454 -0.418867 0)
(1.00836 -0.00648167 -1.60374e-21)
(1.05407 -0.0297842 0)
(0.319782 -0.011966 1.79564e-21)
(0.315035 0.028697 0)
(0.886844 -0.0227694 -5.62668e-22)
(1.04906 -0.0291827 3.78254e-21)
(0.999976 -0.000219268 0)
(0.727614 -0.197397 -2.25845e-20)
(0.996958 -0.00410251 1.09061e-20)
(1.04617 -0.0665821 -2.68272e-21)
(0.203509 -0.0613173 1.1058e-19)
(0.882248 -0.0137452 3.26016e-20)
(1.02681 -0.0434425 0)
(0.995867 0.00969492 8.8458e-21)
(0.498661 0.0135943 6.62997e-21)
(1.01079 -0.0116312 0)
(1.08745 -0.430697 3.80909e-20)
(0.495576 0.0134202 -1.93323e-21)
(1.09293 -0.128513 1.91489e-20)
(1.00004 -0.000193652 2.24411e-20)
(1.14032 -0.2156 0)
(0.28581 -0.00534099 0)
(0.730372 -0.0143776 0)
(1.05682 -0.0288405 -1.16289e-20)
(1.04304 -0.0379466 0)
(0.690666 -0.243927 0)
(1.05403 -0.0281882 1.08931e-21)
(1.04582 -0.0247088 -2.73548e-21)
(1.0137 -0.307139 0)
(0.993088 -0.0904942 0)
(0.400415 -0.016473 1.51996e-21)
(1.0587 -0.0309819 3.36518e-21)
(1.00613 -0.000638927 -1.68471e-20)
(1.03573 -0.0335438 0)
(1.05541 -0.0299192 -7.58813e-22)
(0.630224 -0.0139019 -1.71321e-22)
(0.487432 -0.0183721 -2.50995e-21)
(1.00718 -0.0126394 -1.10452e-20)
(0.583962 -0.109007 -1.02013e-19)
(0.988385 0.00338064 0)
(1.0523 -0.0291113 -3.74137e-22)
(1.06076 -0.0269086 7.93212e-21)
(1.03647 -0.0336835 -1.09418e-23)
(1.05013 -0.0380118 0)
(1.05937 -0.030832 -3.63629e-21)
(0.989753 -0.00885541 -1.09122e-20)
(0.791886 -0.05603 0)
(1.05349 -0.029354 4.48616e-21)
(1.05474 -0.0234904 8.64277e-21)
(0.9955 0.00166441 5.5404e-21)
(0.975758 0.00709028 4.5035e-21)
(0.882064 -0.0205058 4.2728e-20)
(0.664513 -0.0050779 2.65812e-21)
(-0.218769 0.0072463 0)
(1.04905 -0.0342597 -3.25912e-21)
(1.01383 -0.0171916 -9.35381e-21)
(1.05828 -0.0265936 8.60071e-21)
(1.06214 -0.0270212 -5.67219e-21)
(1.05233 -0.0298431 6.24167e-21)
(1.04968 -0.0375907 0)
(0.631815 -0.00507384 -3.80852e-21)
(0.17213 -0.000173656 -7.28261e-22)
(1.03572 -0.0372939 -1.02577e-22)
(1.04487 -0.0312047 1.70856e-21)
(1.18728 -0.132984 2.37627e-20)
(1.00601 -0.0161155 6.01172e-21)
(0.999744 -0.00211308 7.92184e-21)
(1.05236 -0.0298424 -5.39089e-21)
(1.05357 -0.0862882 0)
(1.01159 -0.0122807 -7.77708e-21)
(0.999932 -0.000482377 -6.15797e-21)
(0.996565 -0.00411536 -6.77463e-21)
(1.00208 -0.000356062 1.06809e-20)
(1.04359 -0.0350616 6.93763e-22)
(0.999642 -0.00220943 -6.69326e-21)
(0.564661 -0.00609097 -1.66948e-21)
(1.0484 -0.034756 -1.78799e-21)
(0.995666 -0.018747 2.48585e-20)
(0.633863 -0.015466 -6.91204e-21)
(0.377222 -0.000952099 -7.68404e-22)
(0.968346 0.00873736 -1.07899e-20)
(1.05385 -0.0296227 3.53741e-22)
(0.0874362 0.00619729 2.40095e-20)
(0.958936 -0.0148744 0)
(0.967191 0.0100607 1.19011e-20)
(1.04883 -0.0352351 0)
(0.31638 -0.00998996 -1.02869e-21)
(0.813607 -0.0196568 -1.51211e-20)
(1.05487 -0.0378637 -1.00829e-20)
(1.00103 -0.000300845 -5.22386e-21)
(1.09349 -0.0167966 8.23598e-21)
(0.998907 -0.00196868 0)
(1.05635 -0.0380265 1.15413e-21)
(0.100642 0.00896996 -2.26553e-20)
(1.05473 -0.0242284 -5.34515e-21)
(1.03452 -0.0228248 -2.29136e-21)
(1.16894 -0.134887 0)
(1.14734 -0.107114 -3.20571e-20)
(0.133021 0.0171249 -1.13255e-19)
(1.07875 -0.0439401 -1.44492e-20)
(0.771007 -0.0247594 9.77249e-20)
(0.366574 0.0290331 -1.45304e-20)
(0.442455 0.00232412 1.92031e-21)
(1.0548 -0.021126 -6.57851e-21)
(1.0157 -0.0275011 6.35797e-21)
(-0.157068 0.0161693 5.57187e-20)
(0.264499 -0.0124692 -5.01988e-21)
(0.449805 -0.344104 0)
(0.486332 -0.348737 0)
(0.929014 0.0185836 -4.54128e-20)
(1.05551 -0.0398936 0)
(0.920793 -0.0660543 0)
(0.446484 -0.0174794 -7.0067e-21)
(0.772134 -0.0682792 -9.66329e-20)
(1.00444 -0.00133051 2.67482e-21)
(1.01898 -0.00154868 0)
(1.01598 -0.0615998 0)
(0.0695827 0.0147396 8.46531e-20)
(0.190405 -0.426256 0)
(1.00632 -0.0156971 2.50977e-21)
(0.289767 0.028759 -6.26827e-21)
(0.911882 -0.0620576 7.53316e-22)
(1.03277 -0.0589488 -1.3589e-22)
(1.03546 -0.0229495 0)
(0.304963 -0.0104759 -9.13095e-24)
(1.05783 -0.0269365 -8.7649e-21)
(1.056 -0.029636 0)
(0.98718 -0.0517668 6.0027e-21)
(1.02584 -0.0424883 -4.5142e-21)
(0.684045 -0.0163085 -8.03812e-21)
(0.968171 0.00180176 1.24185e-20)
(1.06305 -0.0266926 -6.34949e-21)
(1.03555 -0.0365708 0)
(1.04895 -0.035638 3.87457e-21)
(0.906543 -0.0632379 -1.44905e-20)
(0.987683 0.00386283 4.38116e-23)
(0.996384 -0.0187897 -2.19992e-20)
(1.0916 -0.0677525 3.81338e-20)
(1.10261 -0.127798 0)
(1.05777 -0.0305833 -3.39302e-21)
(1.14541 -0.105838 3.82397e-20)
(0.695929 -0.0167859 7.35251e-21)
(0.978817 -0.0448147 -1.00589e-20)
(0.470264 0.0132602 0)
(1.05219 -0.0285777 -1.50166e-21)
(1.01681 -0.0125518 6.18923e-21)
(1.05227 -0.0240664 9.16162e-21)
(1.05366 -0.0314217 -1.11324e-21)
(0.146466 0.00523238 9.50204e-21)
(1.01534 -0.059817 6.26667e-21)
(1.05457 -0.0246282 0)
(1.05411 -0.03264 -6.95916e-21)
(1.12601 -0.0593492 0)
(1.09121 -0.0734788 0)
(0.442982 -0.0180197 1.73073e-21)
(1.01386 -0.0339766 0)
(1.05131 -0.0290975 0)
(-0.282688 0.0137762 0)
(1.03972 -0.0409947 2.02162e-21)
(0.42372 -0.0159661 -3.41889e-21)
(1.04179 -0.0427443 -1.50856e-21)
(0.538446 0.0121915 7.64829e-21)
(1.04437 -0.0313014 -3.26734e-21)
(1.04921 -0.0224975 -2.63329e-21)
(1.06041 -0.031756 1.41215e-20)
(1.11536 -0.111135 2.42358e-20)
(0.979981 0.0118351 -1.41938e-20)
(1.03373 -0.0385569 -2.12117e-22)
(1.05582 -0.0879414 0)
(1.0457 -0.0254407 1.52932e-21)
(0.999743 -0.0150618 0)
(1.04921 -0.0339209 4.53398e-21)
(0.969483 -0.0166244 0)
(0.984643 -0.00744983 -1.5257e-20)
(1.04875 -0.029779 -3.07893e-21)
(-0.172853 -0.00352235 -1.74972e-20)
(1.02342 -0.0397231 -3.1557e-21)
(1.13702 -0.342189 0)
(1.04955 -0.0256869 2.0852e-22)
(0.893944 -0.0250092 2.70421e-20)
(1.02711 -0.0455537 0)
(1.0529 -0.0255674 -5.03149e-21)
(0.8812 -0.539363 -1.21722e-20)
(1.06026 -0.0266129 -9.99949e-21)
(1.05023 -0.0407246 -9.02207e-21)
(0.467724 -0.0188397 4.95624e-21)
(0.263118 -0.00748429 6.34286e-22)
(1.13437 -0.218019 -4.5356e-21)
(0.989088 -0.00858246 2.52092e-20)
(1.08921 -0.0663326 -3.47803e-20)
(1.04133 -0.045445 1.75042e-21)
(1.05419 -0.0248819 0)
(1.0119 -0.0168219 -7.35122e-21)
(-0.197537 0.0101015 0)
(0.958341 -0.0146791 1.17557e-21)
(1.11596 -0.0440333 -5.88421e-20)
(1.02617 -0.0414797 2.81605e-21)
(1.06016 -0.031295 -1.53256e-20)
(1.05082 -0.0305178 0)
(-0.19927 0.00342915 0)
(1.01837 -0.00830306 4.91037e-21)
(-0.204439 0.017893 6.23418e-20)
(1.11844 -0.10135 0)
(0.605981 -0.285422 5.96823e-20)
(0.995632 -0.0927406 0)
(1.05965 -0.0179898 0)
(0.981502 0.00339127 0)
(1.00055 -0.000167275 -1.14961e-20)
(0.368568 -0.0132196 -6.41678e-21)
(1.05078 -0.0302078 2.56819e-21)
(0.987573 0.00861626 -4.39864e-21)
(1.0296 -0.0346633 -1.52184e-21)
(1.04899 -0.0299663 0)
(1.00612 -0.0066848 0)
(1.01134 -0.0188237 1.21464e-21)
(1.05554 -0.0391879 -4.54021e-21)
(1.05371 -0.0315972 -7.85972e-22)
(1.03818 -0.027819 4.7633e-22)
(1.01464 -0.0335834 -3.44858e-23)
(0.968828 0.0206321 -1.90745e-20)
(1.12858 -0.0629989 -1.60577e-20)
(0.995166 -0.0178516 0)
(0.970255 0.021106 3.87259e-20)
(1.02934 -0.034545 -4.32374e-21)
(0.99553 -0.0206727 -4.60551e-22)
(0.991414 -0.0612252 -7.15702e-21)
(1.05286 -0.0320231 0)
(0.994958 0.00900967 1.27789e-21)
(0.99982 -0.00222652 0)
(1.02425 -0.0406492 -2.73912e-21)
(1.05829 -0.0304109 -1.95846e-21)
(1.04969 -0.0246369 3.30034e-21)
(0.999034 -0.0157624 7.59008e-21)
(1.02138 -0.0326991 6.20139e-21)
(1.03427 -0.250601 -6.4718e-21)
(1.02875 -0.0296282 0)
(0.943719 -0.0407135 0)
(0.999219 -0.00240952 0)
(1.04154 -0.0252821 0)
(0.710511 -0.0140105 2.16718e-21)
(0.906791 -0.100158 3.69693e-20)
(1.01612 -0.00172973 0)
(0.998857 -0.00119428 -9.57603e-21)
(1.03773 -0.0279755 -5.98652e-22)
(1.02592 -0.021846 -7.84602e-21)
(1.1202 -0.257247 3.52867e-20)
(0.969165 -0.0289748 0)
(1.04364 -0.0376074 5.34414e-22)
(0.287763 -0.990245 4.1374e-20)
(1.02533 -0.0404046 5.5439e-21)
(0.997016 -0.00203286 -1.09824e-20)
(0.569587 4.33659e-05 -1.04767e-21)
(1.05355 -0.0323706 3.55176e-21)
(0.858412 -0.0611046 9.03295e-22)
(0.983993 -0.0107397 3.39949e-20)
(0.424476 0.00144261 -2.64974e-21)
(0.843737 -0.0323128 7.98901e-20)
(1.12932 -0.50964 8.05025e-21)
(0.979213 -0.00552096 3.57984e-20)
(1.03473 -0.0551673 4.06171e-22)
(1.09272 -0.0715363 0)
(1.04607 -0.0274221 0)
(0.483547 0.00377024 4.55575e-21)
(1.05124 -0.0307087 -4.58941e-22)
(1.1172 -0.0466696 5.11665e-20)
(0.954355 -0.0344661 0)
(1.07865 -0.042498 1.86328e-20)
(0.990129 -0.0102102 -1.11087e-20)
(0.62083 -0.0129645 -5.2364e-21)
(1.04932 -0.0258371 0)
(1.05244 -0.0297462 3.21077e-21)
(1.04105 -0.0444955 -2.44568e-21)
(0.988365 -0.0497677 2.3055e-20)
(0.912774 -0.0985946 4.75191e-20)
(1.05463 -0.0401839 7.63474e-21)
(1.00082 -0.000266252 -5.9094e-21)
(-0.225559 0.0112814 -7.57093e-20)
(0.535832 -0.000215721 0)
(0.985624 -0.0486587 0)
(-0.15 0.006262 6.21272e-20)
(0.986289 -0.0302137 0)
(-0.0345499 0.0238458 -3.10621e-20)
(1.06159 -0.0265599 -7.66021e-22)
(0.896389 -0.0279227 0)
(0.999301 0.00112449 7.23898e-21)
(1.18079 -0.368099 -1.21007e-19)
(0.988746 0.00926978 4.00555e-21)
(0.999856 -0.0145341 0)
(0.888202 -0.0413492 -1.92482e-20)
(0.3906 0.0283883 1.95489e-20)
(1.03103 -0.0310261 1.74959e-21)
(0.957919 -0.0080136 1.82185e-20)
(1.00425 -0.199114 0)
(1.05137 -0.0483648 0)
(0.987945 0.0151034 -9.17643e-21)
(1.14479 -0.0189464 -2.4942e-20)
(0.997305 -0.0123628 7.5869e-23)
(0.599742 0.00204523 0)
(1.11903 -0.246798 -1.86111e-21)
(0.997262 -0.00853109 7.30459e-21)
(1.03206 -0.0266044 1.58667e-21)
(1.11607 -0.0853365 -1.96808e-20)
(1.05264 -0.0234359 -1.48093e-20)
(1.01105 -0.0121769 0)
(1.18064 -0.0845853 -1.02827e-20)
(1.18272 -0.362987 1.02715e-19)
(1.02254 -0.0124122 1.40506e-21)
(0.247024 0.0253683 2.91079e-20)
(1.06527 -0.0258396 0)
(1.05462 -0.0298675 7.7954e-22)
(0.953748 -0.0328421 0)
(1.03897 -0.0346628 4.45118e-21)
(0.223275 -0.00106295 -2.07121e-21)
(1.02267 -0.0127756 3.3027e-21)
(1.08125 -0.0322773 0)
(0.996896 -0.025457 5.07613e-21)
(0.997354 -0.0128463 2.26148e-20)
(1.05294 -0.0359141 2.69707e-21)
(0.550192 0.0117794 0)
(1.04569 -0.0465267 0)
(1.04957 -0.0243092 -3.13497e-21)
(0.988436 0.0108445 2.55844e-20)
(1.05132 -0.0267483 -5.68475e-21)
(0.589095 0.00296669 1.09387e-21)
(0.324412 0.027975 -8.74093e-21)
(1.02225 -0.0154169 -7.92906e-22)
(-0.137687 0.0197148 -2.68714e-20)
(0.999065 -0.0152404 -4.58994e-21)
(0.997499 -0.0262817 -1.86564e-20)
(1.05066 -0.0402297 8.41416e-21)
(1.04225 -0.0233077 0)
(1.01883 -0.00832771 -5.03871e-21)
(0.985828 -0.0473116 3.342e-20)
(0.277683 0.0224089 0)
(1.11136 -0.109303 0)
(0.215237 0.0265959 0)
(1.03014 -0.0306289 -2.05355e-21)
(0.988321 0.00267909 3.49953e-22)
(0.682666 -0.00745709 4.34387e-21)
(0.998803 0.00118617 0)
(1.08826 -0.0615878 8.80347e-21)
(1.04073 -0.0275085 -1.40456e-22)
(1.04521 -0.0264726 -2.97616e-21)
(1.04268 -0.0394136 -1.45065e-21)
(0.808253 -0.0180136 -3.54729e-21)
(0.185446 0.00129286 -5.74548e-21)
(1.03202 -0.0397284 1.4272e-21)
(-0.217685 0.0137104 5.68303e-20)
(1.03347 -0.0229621 -1.99308e-21)
(1.05747 -0.0438862 0)
(0.685397 -0.0143105 2.67654e-21)
(0.411923 -0.0113334 0)
(0.992353 -0.0236393 0)
(0.989604 -0.00977833 0)
(0.80056 -0.0857591 6.82726e-20)
(0.239462 0.0242631 0)
(1.05544 -0.0320757 -3.66659e-21)
(1.05126 -0.0264862 4.63501e-21)
(1.11638 -0.489842 -7.46369e-21)
(1.04257 -0.023174 1.21026e-22)
(1.04408 -0.0306983 3.18283e-21)
(0.448282 -0.109444 0)
(1.14515 -0.0200548 -2.62005e-20)
(1.01382 -0.243594 2.49897e-21)
(0.577091 0.00262673 1.57087e-21)
(1.05191 -0.0299332 0)
(0.711917 -0.0165686 -3.58691e-21)
(1.01196 -0.0319876 9.52579e-21)
(1.05484 -0.0331614 -8.25559e-21)
(1.06786 -0.0199144 0)
(0.997312 -0.00115723 1.9227e-20)
(-0.0629777 0.0103302 -3.06401e-20)
(0.977477 0.000954474 0)
(0.985515 -0.0831302 -4.77833e-21)
(1.04895 -0.0318301 8.619e-22)
(0.987184 -0.0170032 1.52567e-20)
(0.472789 -0.718272 5.3654e-20)
(1.05289 -0.129642 -1.79082e-20)
(1.03216 -0.269278 -1.9192e-20)
(0.994397 -0.017957 0)
(1.00032 -0.00022084 2.62961e-21)
(0.899781 0.00152027 -4.84161e-20)
(1.05077 -0.0492522 -2.94072e-21)
(0.999387 -0.00240025 -3.74879e-21)
(0.334229 0.0294829 -2.37472e-20)
(1.00037 -0.000266895 0)
(1.05198 -0.0298624 1.39778e-21)
(0.949701 -0.0301676 2.37114e-20)
(1.05425 -0.0252637 0)
(0.980371 -0.00669947 -1.95945e-20)
(0.987147 0.0154003 1.18819e-20)
(1.02146 -0.11231 -2.71031e-21)
(-0.134071 0.0165938 -4.94345e-20)
(1.05039 -0.0423471 2.22883e-21)
(0.264299 0.0305776 -7.62521e-21)
(1.0345 -0.0566852 -4.63245e-22)
(1.00595 -0.00732299 7.71882e-21)
(1.01709 -0.0148894 7.83886e-21)
(1.05519 -0.041707 -7.85412e-21)
(1.02056 -0.0327853 -3.82152e-21)
(1.06942 -0.0468887 -2.22885e-20)
(1.03194 -0.0328544 -1.33087e-21)
(0.859389 -0.0543631 -5.20258e-20)
(1.05574 -0.0331354 0)
(0.998732 0.00163335 0)
(0.48174 -0.022329 -5.14977e-21)
(0.999963 -0.000301698 -1.24438e-20)
(1.05618 -0.0262563 0)
(-0.196727 0.0122643 -3.13614e-20)
(0.689985 -0.0110932 -3.9231e-21)
(0.87556 0.0256313 3.99038e-20)
(1.14969 -0.315139 0)
(0.996 -0.198765 4.76364e-21)
(1.10726 -0.163976 -3.47968e-20)
(0.948476 0.00454325 9.07234e-21)
(1.02279 -0.0168367 -3.35502e-21)
(1.12975 -0.015611 4.69404e-20)
(0.915795 -0.0669988 0)
(1.04056 -0.0414033 6.58882e-22)
(-0.125169 0.00540614 -6.90855e-20)
(1.09034 -0.0253094 -1.11068e-20)
(1.01676 -0.0129435 -8.84611e-21)
(1.06897 -0.0477944 1.73417e-20)
(1.02439 -0.0206551 -1.04795e-21)
(0.67557 -0.016001 0)
(-0.00124042 0.0131152 5.81923e-21)
(1.00029 -0.0289108 -1.48427e-20)
(0.683745 -0.067482 0)
(1.02029 -0.0170131 6.79378e-21)
(0.99993 6.47886e-05 1.14131e-20)
(0.999877 6.59091e-05 2.07969e-20)
(1.05351 -0.0256729 9.45763e-22)
(0.460666 -0.0230018 0)
(1.06168 -0.0361969 4.53261e-21)
(0.967824 0.0112684 0)
(1.06171 -0.0323713 2.00832e-21)
(1.02805 -0.029111 0)
(0.985729 0.0152852 4.85312e-21)
(1.05604 -0.033358 -8.65911e-21)
(1.06134 -0.0318086 2.1859e-21)
(1.09744 -0.119182 -6.22107e-21)
(1.01793 -0.00717761 2.09129e-21)
(1.05333 -0.0293811 5.47449e-21)
(0.875325 -0.135745 0)
(1.0525 -0.0249936 2.52565e-21)
(0.950857 0.015058 -4.22065e-20)
(0.980233 -0.0403089 -1.44788e-20)
(1.04816 -0.129836 1.38132e-20)
(0.903534 -0.00056213 3.09852e-20)
(1.05376 -0.0295713 -2.36618e-21)
(1.04988 -0.0347605 -4.13436e-21)
(1.05021 -0.0356829 0)
(1.00498 -0.234299 -1.95499e-21)
(1.06514 -0.475391 0)
(1.067 -0.0259444 -7.68403e-21)
(0.973697 -0.0239423 0)
(1.16001 -0.0798932 3.34905e-22)
(1.05447 -0.0299099 0)
(0.383359 -0.00771265 1.60755e-21)
(0.971814 -0.119998 -1.79128e-20)
(1.04015 -0.0349422 1.44754e-21)
(1.05438 -0.0296612 0)
(1.01333 -0.0199655 0)
(1.04358 -0.0307282 -2.68108e-21)
(1.0664 -0.027107 0)
(1.00771 -0.0630744 -2.14565e-20)
(0.997647 -0.0077923 0)
(0.998397 -0.00762919 -1.1842e-20)
(1.05568 -0.0268033 1.08734e-21)
(0.432942 -0.019898 -3.77483e-21)
(1.04178 -0.0257029 0)
(0.449657 0.0138477 -2.22263e-21)
(1.00566 -0.00751357 6.79143e-21)
(1.0592 -0.0366171 -1.2978e-21)
(0.945744 -0.271445 1.90355e-20)
(0.0735506 0.00680563 -2.64572e-20)
(1.06949 -0.0495252 1.04975e-20)
(1.02826 -0.045599 6.04142e-22)
(1.03039 -0.0329157 1.98596e-21)
(0.0849236 0.00897864 2.18481e-20)
(1.0978 -0.115552 0)
(0.972874 -0.114912 0)
(1.05106 -0.0303994 -3.90322e-21)
(1.01455 -0.0320979 -1.54782e-20)
(1.16488 -0.322544 -2.29272e-20)
(1.05604 -0.0267582 0)
(1.05198 -0.0297455 -2.74947e-21)
(1.03907 -0.0488218 -1.20204e-21)
(1.12694 -0.0915511 -2.24957e-20)
(0.982089 0.00265217 0)
(0.999942 -0.000322875 0)
(0.934448 0.0187486 0)
(0.984793 0.0149869 0)
(0.671012 -0.0138326 0)
(1.00194 -0.000432979 -1.97055e-20)
(1.05649 -0.0332535 5.37039e-21)
(0.64806 -0.00555821 -2.6247e-21)
(1.07103 -0.0500738 -8.32039e-21)
(0.35513 0.0294072 -1.59037e-20)
(0.146046 0.00372335 0)
(1.05188 -0.0297056 0)
(1.11291 -0.160255 4.18385e-20)
(0.877439 0.0178609 -1.06567e-21)
(0.998466 0.00616502 1.29753e-20)
(0.977173 0.00704039 3.64711e-20)
(1.01298 -0.00798954 5.82793e-21)
(1.01661 -0.0146598 -7.49057e-21)
(1.00045 -0.000253186 1.74516e-20)
(1.0569 -0.0419166 -4.156e-21)
(1.07389 -0.0386548 6.5279e-21)
(0.871619 -0.145247 0)
(1.05525 -0.0220023 1.16918e-20)
(0.992556 -0.0417785 0)
(0.538675 -0.00561566 0)
(1.00002 0.000198749 -2.11547e-20)
(-0.0737468 -0.012511 0)
(1.0401 -0.072331 -2.77297e-21)
(1.00003 0.000470282 2.4067e-20)
(0.996614 0.00840196 -1.74401e-22)
(0.678007 -0.00958803 0)
(1.0304 -0.0431882 -4.71979e-22)
(1.06184 -0.0327483 4.04546e-21)
(0.986178 -0.00214532 -2.33256e-20)
(1.04835 -0.0313807 -1.08926e-21)
(1.05252 -0.0330886 0)
(1.02296 -0.0119097 3.02167e-21)
(0.672433 -0.00158377 -1.99742e-21)
(0.959188 -0.0449151 2.77956e-20)
(1.03106 -0.0317531 7.93704e-22)
(1.05542 -0.033225 0)
(0.998428 0.00557998 0)
(0.960165 -0.0115038 -1.41921e-20)
(1.01921 -0.0174684 -4.56111e-21)
(1.04914 -0.0265137 -6.62053e-21)
(0.420952 -0.017871 -1.75375e-21)
(1.03096 -0.0537864 9.85636e-22)
(1.0402 -0.0468678 2.34517e-21)
(1.12173 -0.105435 0)
(0.265186 0.0290754 -8.88514e-21)
(0.875153 -0.00316676 7.46088e-20)
(0.955446 -0.0630815 1.74315e-20)
(0.708213 -0.0161842 0)
(1.01287 -0.00774292 5.63427e-21)
(0.694098 -0.0151295 0)
(1.00014 -0.000506202 7.57047e-22)
(1.02942 -0.0293192 0)
(1.09518 -0.0271803 0)
(1.052 -0.0292709 6.4469e-21)
(1.05226 -0.0297803 4.24527e-21)
(1.07492 -0.0759099 -9.21375e-22)
(1.05081 -0.0417025 0)
(0.999406 0.00274791 -7.03277e-21)
(1 0.000157121 -5.79703e-21)
(1.05865 -0.0436466 -5.7391e-21)
(1.01285 -0.0323859 0)
(0.999588 0.00242191 1.56602e-23)
(1.04277 -0.0245727 2.72448e-22)
(1.12063 -0.132359 1.33181e-21)
(1.00177 -0.00304369 -2.06401e-21)
(1.10002 -0.174988 0)
(1.13216 -0.326177 9.12904e-21)
(1.05273 -0.0331396 0)
(1.07381 -0.0736876 0)
(0.21978 -0.0205319 5.30242e-20)
(0.826443 -0.0279291 0)
(0.998294 0.00615309 0)
(1.09192 -0.0794664 3.87003e-20)
(1.00513 -0.00751961 0)
(1.03439 -0.0379413 0)
(1.00313 -0.0251742 1.79396e-21)
(0.702934 -0.0179757 -7.51752e-21)
(1.11983 -0.0144871 3.13858e-20)
(0.749449 -0.016822 0)
(1.00255 -0.0301641 1.25919e-20)
(1.00069 -0.0283949 0)
(0.930673 -0.196875 5.93635e-21)
(0.978366 -0.037579 -1.11877e-20)
(1.00826 -0.015658 -1.09401e-20)
(0.887159 -0.37431 -4.63355e-20)
(1.05212 -0.0291496 0)
(0.420114 -0.0140732 0)
(1.05654 -0.0262422 -1.28387e-21)
(1.05205 -0.029375 -2.63747e-21)
(0.982925 0.0139788 8.84101e-21)
(1.00992 -0.0117098 0)
(1.15986 -0.218472 2.62429e-20)
(1.05398 -0.0318093 -1.42042e-20)
(1.03015 -0.0299267 0)
(0.999799 0.00223138 -2.63513e-21)
(1.05222 -0.0298008 0)
(1.08453 -0.0466826 2.06438e-20)
(0.469826 0.0139671 0)
(0.965572 0.00729719 -5.9765e-21)
(1.00016 -0.00129005 -1.21589e-20)
(0.399947 -0.0182879 1.74002e-21)
(0.952413 0.015999 -2.11533e-21)
(1.04221 -0.0410878 8.63097e-22)
(1.00604 -0.00630632 -1.19933e-20)
(0.418027 0.0263132 -4.73746e-21)
(1.00574 -0.000353892 0)
(-0.179063 0.0122212 5.07274e-20)
(0.993078 0.00674355 3.19878e-21)
(1.08818 -0.131728 -2.85084e-20)
(1.04657 -0.0359344 1.2736e-21)
(0.911268 -0.199417 0)
(1.04014 -0.0483598 2.20785e-21)
(0.983639 -0.00616803 0)
(1.02885 -0.0357122 1.81881e-22)
(1.00129 -0.00205416 1.17964e-20)
(1.0571 -0.0332549 0)
(0.953072 0.00650126 1.49678e-23)
(0.510683 -0.0183205 6.50818e-21)
(1.01593 -0.0325028 0)
(1.04466 -0.0272119 3.35188e-21)
(0.604995 -0.0020634 1.90493e-21)
(1.03679 -0.0501661 0)
(1.00177 -0.00157526 7.79446e-21)
(-0.141045 -0.00896311 7.12159e-20)
(0.974415 -0.0290637 6.1059e-21)
(1.03298 -0.040194 -2.10397e-22)
(1.0521 -0.0290538 5.64179e-21)
(0.97757 0.00791521 -3.28554e-20)
(0.447295 -0.0190884 3.20306e-21)
(1.01358 -0.0206275 0)
(1.06735 -0.0275413 0)
(0.996313 -0.000800758 1.11997e-20)
(1.00141 -0.00217358 7.62339e-21)
(1.0536 -0.0333116 -3.78858e-21)
(1.04325 -0.0389973 4.76531e-22)
(0.998719 -0.00136443 -1.96945e-20)
(1.04531 -0.0236721 0)
(0.508876 0.00805311 0)
(0.716927 -0.667361 0)
(0.991532 -0.0139478 -5.46628e-21)
(1.00665 -0.0123158 1.00594e-22)
(0.401679 -0.00685565 2.11765e-21)
(0.995031 0.00164698 -6.20865e-21)
(1.00172 -0.00285 4.01487e-22)
(0.96598 0.00426658 0)
(1.01889 -0.00183969 -3.84197e-21)
(0.999709 0.000392235 -9.6328e-21)
(0.975645 -0.00916066 6.86193e-21)
(0.994572 -0.0238905 -1.65695e-21)
(1.02034 -0.0250042 -2.99358e-21)
(1.00038 -0.000363905 0)
(1.04639 -0.0456504 3.16773e-21)
(1.00269 -0.01519 4.61461e-21)
(-0.0916992 -0.0139689 0)
(1.09341 -0.0771047 -3.8308e-20)
(0.361512 -0.00928134 -2.34644e-21)
(0.391902 0.0285882 1.48956e-20)
(1.0283 -0.0360339 1.43103e-21)
(1.05357 -0.0295729 0)
(0.997095 -0.00139766 -9.36718e-21)
(1.04756 -0.0354708 -2.82984e-21)
(0.94152 -0.257119 -2.27796e-20)
(1.02277 -0.0163181 0)
(1.00011 -0.000492141 -4.97358e-21)
(1.14262 -0.199577 8.49518e-20)
(0.0101136 0.0135745 0)
(1.05221 -0.0329178 0)
(-0.236652 0.0105915 6.6591e-20)
(1.05092 -0.0304523 -5.5959e-21)
(0.994874 0.00806336 -1.1611e-20)
(1.0467 -0.0503239 0)
(1.05224 -0.0290421 -7.32513e-21)
(-0.127158 0.0158988 4.42173e-20)
(1.04283 -0.0349751 -6.95631e-22)
(1.04508 -0.0320857 3.17586e-21)
(1.05432 -0.0318006 1.27048e-20)
(0.999932 -0.000562296 -4.09288e-21)
(0.88252 -0.206948 2.50061e-20)
(0.769729 -0.166164 0)
(0.45187 -0.0164813 -8.8268e-22)
(1.08771 -0.0236065 -4.35723e-21)
(1.0565 -0.0362938 0)
(0.956703 -0.0360606 2.79514e-20)
(0.7094 -0.25593 -3.32664e-20)
(0.970125 0.02315 -5.3651e-21)
(1.05352 -0.0271982 3.75667e-21)
(1.00772 -0.0609077 2.2933e-21)
(1.00435 -0.00104941 0)
(0.966334 -0.00990496 1.73085e-21)
(0.990325 -0.040225 0)
(1.00175 -0.00144835 -6.58613e-21)
(0.993259 -0.0240659 1.82751e-21)
(0.98991 -0.0388021 -5.06203e-21)
(0.365314 0.0275281 1.39548e-21)
(1.06471 -0.0269345 5.94573e-21)
(1.00346 -0.0096429 -4.26882e-21)
(1.0476 -0.0494579 -4.16451e-21)
(0.328688 -0.00991673 -2.91552e-21)
(1.00345 -0.041595 0)
(-0.249764 0.0141384 -2.51698e-20)
(0.945144 -0.00712291 -2.51759e-20)
(1.0518 -0.0298766 0)
(0.508499 0.0179089 9.6412e-21)
(0.99944 -0.00212869 -3.94952e-21)
(1.05576 -0.0324623 4.23157e-21)
(1.01099 -0.0712886 0)
(1.03792 -0.0510027 -1.00365e-21)
(0.676369 -0.696296 -5.04091e-20)
(0.992104 -0.0404589 5.30248e-21)
(1.10601 -0.0580229 3.03704e-20)
(1.05287 -0.0251765 0)
(0.565586 0.008061 5.89247e-21)
(1.02757 -0.0194121 0)
(0.479413 -0.0185101 -8.20762e-21)
(1.03891 -0.0416231 0)
(0.347413 -0.00387627 -1.39311e-21)
(-0.0671086 0.012727 0)
(0.455361 -0.0193204 -6.25986e-21)
(1.04844 -0.0306362 2.16445e-22)
(0.981465 -0.00335755 8.49335e-21)
(1.0017 -0.0306439 -5.61662e-21)
(0.999921 0.000153974 2.43555e-20)
(1.04879 -0.0223937 0)
(0.996207 0.00665646 0)
(0.502858 0.00390372 0)
(0.984321 -0.0770572 -4.90612e-21)
(0.906838 -0.0375784 -2.72765e-20)
(0.878673 -0.000449857 -8.49834e-20)
(0.958951 -0.0352865 -2.36482e-20)