/*--------------------------------*- C++ -*----------------------------------*\
| =========                 |                                                 |
| \\      /  F ield         | OpenFOAM: The Open Source CFD Toolbox           |
|  \\    /   O peration     | Version:  v2012                                 |
|   \\  /    A nd           | Website:  www.openfoam.com                      |
|    \\/     M anipulation  |                                                 |
\*---------------------------------------------------------------------------*/
FoamFile
{
    version     2.0;
    format      ascii;
    class       surfaceVectorField;
    location    "950";
    object      ddtCorrDdt0(Uf);
}
// * * * * * * * * * * * * * * * * * * * * * * * * * * * * * * * * * * * * * //

dimensions      [0 1 -2 0 0 0 0];


internalField   nonuniform List<vector> 
20642
(
(0.0215418 0.00417607 1.06774e-18)
(0.0217847 0.00467556 -9.61013e-18)
(0.0206023 0.00461506 -2.98157e-19)
(0.00422124 0.0033844 4.0672e-20)
(0.00439311 0.00384017 3.74551e-19)
(0.00482601 0.00341369 2.4894e-20)
(-0.0204142 -0.0170795 5.44179e-19)
(-0.0215975 -0.0176506 2.67092e-18)
(-0.0210975 -0.0161622 -3.2334e-19)
(0.00118405 -0.00341101 -1.1057e-18)
(0.00129568 -0.00348711 1.28875e-19)
(0.00128154 -0.00335043 -6.10582e-19)
(0.00542715 0.00063077 1.22196e-20)
(0.00549952 0.000513791 -2.07679e-19)
(0.00533788 0.000523506 4.6612e-20)
(0.00421412 0.00279689 -2.45219e-19)
(0.00377407 0.00300969 -3.86476e-19)
(0.000513519 -0.00760436 1.04625e-18)
(0.000670928 -0.00739258 -3.33101e-18)
(0.000768882 -0.0076446 1.24793e-18)
(0.0107584 0.010783 7.73194e-19)
(0.0105242 0.012274 6.12754e-19)
(0.0123904 0.0113201 -3.2374e-19)
(-0.0024235 -0.00547307 6.14436e-19)
(-0.00229207 -0.00558798 -1.88881e-18)
(-0.00245751 -0.00566757 1.90155e-18)
(-0.00328899 0.00871862 3.38911e-18)
(-0.00492384 0.0126284 -1.3241e-17)
(0.0112701 0.00928657 -8.47762e-21)
(0.00955924 0.0100503 9.43132e-20)
(0.00208982 -0.00207586 4.05851e-20)
(0.00216084 -0.00214067 1.73659e-18)
(0.00204202 -0.00215319 2.48266e-18)
(0.000543934 -4.30573e-05 -4.50786e-19)
(0.000502296 -3.78075e-05 -1.47115e-19)
(0.0605223 0.0245581 2.10372e-19)
(0.0458482 0.0172931 -6.88818e-19)
(0.057535 0.0146144 3.81947e-19)
(0.00403641 0.000342158 -3.122e-20)
(0.00396622 0.000427331 -2.27065e-21)
(0.004101 0.000443933 2.73573e-20)
(0.0216801 0.00412479 3.10608e-18)
(0.0216263 0.00430535 1.36315e-17)
(-0.00106885 -3.64842e-05 -1.18196e-19)
(-0.00108566 -3.0345e-05 9.20752e-20)
(-0.000813686 -1.38084e-05 9.54959e-20)
(0.0115962 0.00795158 4.71957e-19)
(0.0116986 0.00679491 -1.4925e-19)
(0.010358 0.0074503 2.28252e-20)
(-0.00841204 -0.0217036 -6.33559e-18)
(-0.00917266 -0.0219201 -2.42804e-18)
(-0.00856549 -0.0223409 -2.86721e-18)
(0.0270667 0.0158416 -3.35721e-19)
(0.0217214 0.015787 4.33414e-18)
(0.022244 0.0136713 -6.04206e-18)
(0.00909452 -0.00221455 3.99553e-19)
(0.0094597 -0.00227974 1.99006e-19)
(0.00930373 -0.00193883 9.12014e-19)
(0.00323169 0.000655007 2.63699e-20)
(0.00319737 0.000583267 3.11398e-20)
(0.00329377 0.000608579 3.03954e-20)
(-0.000965745 -0.0140065 2.36753e-18)
(-0.00129481 -0.0137557 5.24545e-18)
(-0.00128942 -0.0143253 -1.11737e-18)
(0.00326223 0.000749534 -1.75036e-19)
(0.00317324 0.00071453 2.48394e-19)
(0.00315779 -0.00408048 -1.29292e-18)
(0.00319079 -0.00423398 5.94472e-19)
(0.00331073 -0.00410445 -7.0532e-19)
(0.00991505 -0.00102115 -1.737e-19)
(0.00970374 -0.00132166 -2.75634e-19)
(0.00951034 -0.000975439 2.10762e-19)
(-0.0972058 -0.0170196 7.49502e-19)
(-0.0841954 -0.0151962 -1.23868e-18)
(-0.0794969 -0.0121403 -9.47484e-20)
(-0.00157613 0.00516254 2.8266e-18)
(0.011083 0.00248935 -1.85551e-19)
(0.0109559 0.0019099 -7.1363e-20)
(0.0103934 0.00236861 -2.65872e-19)
(0.00183481 0.002035 -1.12808e-21)
(0.00174896 0.00216733 -2.55682e-20)
(0.0017 0.00201676 -5.81452e-20)
(-0.00159667 0.00467294 3.27298e-18)
(-0.00143928 0.00835269 -3.26355e-18)
(-0.00749181 -0.0140341 -4.33753e-18)
(-0.00785649 -0.0139409 -1.00017e-17)
(-0.00761559 -0.0143427 8.47649e-18)
(0.00231827 -0.00323616 -2.19717e-18)
(0.00229286 -0.00312294 -1.71651e-19)
(0.00219196 -0.00319209 -6.01088e-19)
(0.0173138 0.00280568 1.34318e-17)
(0.016009 0.00268689 -4.72618e-18)
(0.0162414 0.00249996 1.59356e-18)
(-0.00146494 0.00352562 -8.56321e-20)
(-0.00154957 0.0033681 -1.59403e-19)
(-0.0017084 0.00355289 -2.04606e-19)
(0.00921958 0.0139168 5.39171e-19)
(0.0114671 0.0149698 -3.13363e-19)
(0.00507187 -0.00156492 3.18157e-20)
(0.00513795 -0.00170957 7.39342e-19)
(0.00525479 -0.0015548 1.3494e-18)
(0.000758806 2.55027e-05 6.99861e-20)
(0.00100108 5.28734e-05 3.52714e-20)
(0.000745434 2.41699e-05 -3.02844e-20)
(0.000368268 -0.00780266 -1.01108e-19)
(0.000283889 -0.00754109 7.94495e-19)
(0.0102415 -0.00591444 1.40314e-19)
(0.0105909 -0.00621095 1.50066e-18)
(0.010041 -0.00633946 5.14387e-20)
(0.000320616 -3.79352e-05 2.30889e-20)
(0.000287405 -2.58843e-05 -1.00783e-19)
(0.000520845 -5.17655e-05 3.03522e-19)
(-0.0019727 0.00180076 -7.42154e-20)
(-0.00153838 0.00171594 -2.45884e-19)
(-0.00183474 0.00144764 -1.16333e-19)
(-0.00184042 -0.00469643 -1.61536e-19)
(-0.00163972 -0.00474538 -9.95105e-18)
(-0.00173727 -0.00454172 -2.3261e-18)
(-0.0101866 -0.0187603 -8.22558e-19)
(-0.0103139 -0.0183886 9.14799e-18)
(-0.0109358 -0.0188625 1.45076e-17)
(-0.00959428 -0.0187471 -9.74948e-18)
(-0.00992039 -0.0193441 -1.19021e-17)
(-0.0711383 -0.0450996 1.36942e-18)
(-0.0644107 -0.0452822 -5.39889e-19)
(-0.0746366 -0.0438365 7.98038e-20)
(0.00870809 -0.0022146 -1.98119e-19)
(0.00883098 -0.0025326 -3.97945e-19)
(-0.00379484 0.0249403 7.89316e-19)
(-0.00629801 0.0230115 -5.05525e-18)
(-0.00853196 0.022028 -3.40529e-18)
(-0.04387 0.0226023 -1.33789e-18)
(-0.0404696 0.0324451 -1.82988e-19)
(-0.0330729 0.0213232 -2.84476e-19)
(-0.00131202 0.00352249 1.97771e-20)
(-0.00144513 0.00370728 -1.88737e-19)
(0.00214086 -0.00201034 -7.15396e-19)
(0.00203196 -0.00201505 -1.09319e-18)
(0.00529013 -0.0288776 1.01176e-17)
(0.00773658 -0.0299554 4.52404e-18)
(0.0063478 -0.0283434 5.52459e-18)
(0.0215833 0.00276164 1.98102e-18)
(0.025488 0.00243145 1.63798e-17)
(0.0216944 0.00281946 3.44205e-18)
(0.00294495 -0.000957996 -7.91982e-20)
(0.00286667 -0.000931935 1.57904e-19)
(0.002943 -0.000881738 2.08558e-19)
(0.00303198 -0.00116103 -5.13236e-19)
(0.00295276 -0.00112873 -5.13612e-20)
(0.00293981 -0.00121279 -4.85028e-19)
(0.00487901 -0.0284863 2.68519e-18)
(0.00430179 -0.029606 1.74697e-19)
(0.0116706 0.00665993 -3.73115e-18)
(-0.000610998 -0.0141993 -1.0406e-18)
(-0.000696848 -0.0136724 -7.61655e-19)
(-0.00232862 0.00180248 1.77047e-19)
(-0.00221736 0.00218349 -4.95198e-20)
(-0.0783107 -0.0462208 -1.19095e-17)
(-0.0663688 -0.0440931 1.69668e-18)
(-0.0573367 -0.00495706 1.57092e-18)
(-0.0589757 -0.0038884 2.94299e-18)
(-0.0559902 -0.00136206 -7.64279e-18)
(-0.0104613 0.0011755 -3.72849e-19)
(-0.0111606 0.00347382 -1.26713e-19)
(-0.00933575 0.00318213 6.50553e-20)
(0.000747136 4.34358e-05 2.01245e-20)
(0.000813094 5.90405e-05 1.05998e-21)
(0.00087656 8.54183e-05 3.74304e-21)
(0.00298526 -0.00405666 6.88537e-19)
(0.00309916 -0.00393792 -9.62901e-19)
(-0.0131888 -0.00344327 7.03981e-18)
(-0.0140287 -0.00351032 1.60926e-17)
(-0.0113715 -0.00256507 9.79001e-18)
(0.00663486 0.00480866 1.03063e-19)
(0.00601118 0.00492875 1.20545e-19)
(0.00617987 0.00442965 4.75146e-20)
(0.011255 0.00327258 9.73837e-20)
(0.0113868 0.00396716 -9.47902e-20)
(0.0105654 0.00379895 5.49638e-20)
(0.00761101 0.0131559 3.35096e-19)
(0.00776555 0.0157837 -7.46989e-19)
(0.0128008 0.00836371 -4.31374e-19)
(0.022568 0.0027053 -8.24629e-18)
(0.0230656 0.00298415 1.07702e-18)
(0.0235341 0.002905 1.70165e-17)
(-0.0186178 -0.00701881 -7.6459e-18)
(-0.0206415 -0.00783107 2.42825e-18)
(-0.0176749 -0.0060634 1.5156e-17)
(0.018273 0.00301502 -3.51655e-18)
(0.0185164 0.00285648 1.02928e-17)
(0.000252284 -0.00208291 -3.21496e-19)
(0.000231983 -0.00215944 1.09326e-18)
(0.000324525 -0.00214208 -1.43022e-18)
(-0.00265421 0.00175752 -1.7907e-20)
(-0.00245645 0.00155113 -1.08614e-19)
(0.00983218 -0.0023501 -1.4195e-18)
(0.00961093 -0.00262019 -4.58478e-20)
(0.00428263 -0.00358476 1.8175e-18)
(0.00435603 -0.00375455 1.65889e-18)
(0.00445377 -0.00354508 -1.12647e-18)
(0.00460323 0.000712214 -1.18258e-19)
(0.00465262 0.000648248 -9.9381e-20)
(0.00453516 0.000629354 8.76384e-20)
(-0.00285216 0.00163129 -4.25652e-20)
(-0.00291407 0.00193042 -9.12712e-20)
(0.00409165 -0.00363394 -6.52615e-19)
(0.00417264 -0.00344409 -1.04706e-19)
(0.00241464 -0.00326996 -1.81571e-18)
(0.0023234 -0.00334616 6.40191e-19)
(0.00365613 -0.000333344 -2.21953e-20)
(0.00362967 -0.000273819 -2.35581e-19)
(0.00357251 -0.000330168 1.62382e-20)
(-0.00115038 1.08467e-05 -3.31065e-20)
(-0.00116339 5.00054e-06 1.63688e-20)
(-0.000861172 8.80286e-06 2.08429e-20)
(0.000167382 -0.00201979 1.87288e-19)
(0.000265848 -0.00199095 8.91298e-19)
(-0.00857572 -0.00461174 -1.73974e-18)
(-0.0107816 -0.00566906 4.21012e-18)
(-0.00933773 -0.00536547 6.08279e-18)
(0.00139713 -0.000147827 1.21353e-19)
(0.00141027 -0.000168974 3.50487e-20)
(0.00142423 -0.000142995 -1.92603e-19)
(0.0213078 0.00283155 -3.16467e-19)
(0.0222729 0.00104773 -5.61336e-19)
(0.0229463 0.00344593 -6.92627e-19)
(-0.00733758 -0.0136342 8.63896e-19)
(-0.00707418 -0.0140757 4.09815e-18)
(0.00139203 -8.09107e-05 -3.81016e-19)
(0.00140711 -7.11665e-05 4.25416e-19)
(0.00141099 -5.94558e-05 3.08819e-19)
(0.00985353 -0.00574131 4.21905e-19)
(0.0102575 -0.00549828 1.346e-18)
(-0.00102731 -3.89586e-05 -2.49446e-19)
(-0.00114878 -5.98059e-05 -9.43062e-20)
(-0.00107103 -0.000164211 -1.14486e-20)
(-0.00102205 -0.00016446 -2.07017e-19)
(-0.00104003 -0.000208816 2.02899e-19)
(-0.00192604 -0.00485855 -1.77325e-18)
(-0.0456209 0.0114603 6.82076e-19)
(-0.0422731 0.0174282 -1.43702e-18)
(-0.0017488 0.00253429 -9.28294e-20)
(-0.00189931 0.00253227 1.31952e-19)
(-0.00180505 0.00241528 -1.53932e-19)
(0.00366034 -0.0010701 -8.71744e-20)
(0.00362457 -0.000981623 2.85995e-19)
(0.00373303 -0.000993991 3.5688e-19)
(0.0119269 0.00250873 1.66017e-19)
(-0.0254248 -0.00523166 5.56178e-19)
(0.00353494 0.00129231 -2.05957e-19)
(0.00718996 -0.000516211 4.58704e-19)
(-0.000638705 8.46528e-05 -3.67701e-20)
(-0.000595398 8.65452e-05 -6.70096e-20)
(-0.000394693 4.32385e-05 -2.6954e-20)
(0.0013802 -9.72415e-05 1.26272e-19)
(0.00137937 -8.37343e-05 -2.49237e-19)
(0.0141543 -0.000885152 7.45857e-19)
(0.0155906 -0.00165197 -1.64061e-19)
(0.0139635 -0.00129254 -6.78088e-20)
(0.000979451 2.90172e-06 1.48284e-19)
(0.000973325 -5.15197e-06 6.39017e-20)
(0.000725062 2.63059e-06 -6.61726e-21)
(0.00100071 5.30063e-06 2.10176e-20)
(0.00112527 -1.53455e-05 8.28494e-21)
(0.00373027 -0.000334087 1.35265e-19)
(0.00367112 -0.00039095 -1.69968e-19)
(-0.000556016 0.000183318 2.27123e-20)
(-0.000495521 0.000178151 -6.01673e-20)
(-0.00045943 0.000128663 5.48497e-21)
(0.00452552 0.000808022 2.88098e-20)
(0.00465654 0.000836595 3.1729e-19)
(0.00677067 -0.00374813 3.63164e-18)
(0.00611458 -0.00352508 5.5839e-18)
(0.00708952 -0.00301933 1.41179e-17)
(-0.000547211 0.0118957 -2.22817e-18)
(0.00172279 0.0124906 -7.53573e-18)
(0.00211455 0.014236 1.20784e-18)
(-0.00859723 -0.000464888 5.70846e-19)
(-0.0122617 -0.000881893 -4.72968e-19)
(-0.00125187 0.00219244 4.52642e-20)
(-0.0011075 0.00155553 1.62856e-19)
(-0.105831 -0.0166828 8.4626e-20)
(-0.106878 -0.0180825 1.01182e-18)
(0.000204043 -0.00014962 -5.1617e-20)
(0.000185565 -0.000185823 -2.43724e-19)
(0.0143385 0.00255836 -1.00271e-17)
(0.0155267 0.0029407 -4.69884e-18)
(0.0108241 0.00135469 -4.9877e-20)
(0.0114609 0.00140134 1.29003e-20)
(-0.0118537 -0.00333061 -6.04039e-18)
(-0.0150733 -0.00439703 -2.15086e-17)
(0.00492538 -0.00337334 -1.68715e-19)
(0.00499494 -0.00356174 -1.41325e-18)
(0.00476687 -0.00345678 2.23133e-19)
(-0.00768372 -0.0214893 8.0011e-18)
(-0.00825957 -0.0210758 1.92931e-18)
(2.78902e-05 -0.000208736 -8.80136e-21)
(5.2083e-05 -0.000281704 1.42786e-20)
(-3.89812e-05 -0.000234157 2.57259e-20)
(-0.0204797 -0.0205367 -2.09454e-18)
(-0.0201757 -0.0200376 6.35163e-18)
(-0.0174811 -0.0209578 1.00593e-17)
(-0.000118169 -0.00158244 1.53223e-18)
(-6.98317e-05 -0.0016467 1.65596e-18)
(-5.348e-05 -0.00156062 -3.98255e-20)
(-0.00128132 1.84682e-05 1.94817e-19)
(-0.00111839 1.35133e-05 1.33406e-19)
(-0.00279191 0.00127743 -1.31281e-19)
(-0.0027855 0.00117614 -1.18422e-19)
(-0.00290167 0.00121353 -2.23392e-19)
(0.0114724 0.00477919 4.0072e-20)
(0.0121885 0.00407522 -3.14745e-20)
(-0.00229183 -0.0237755 -3.1321e-18)
(-0.00158633 -0.0240755 -6.33974e-18)
(-0.00176418 -0.0231795 -6.85438e-18)
(0.0256825 0.00226844 -9.77581e-19)
(0.0249678 0.00223204 4.79443e-18)
(0.0255333 0.00231187 -3.68386e-18)
(-0.00785546 -0.0043507 2.29099e-18)
(-0.006727 -0.00419 -9.46038e-18)
(0.00284415 -0.0040281 9.42671e-19)
(0.00269959 -0.0039964 -8.15636e-19)
(0.00279627 -0.00389281 -1.17971e-18)
(0.0100512 -0.00205732 -8.25537e-19)
(0.0101944 -0.00242895 1.56213e-19)
(0.00112393 0.00253874 3.49324e-20)
(0.00098854 0.00256259 6.14799e-20)
(0.0010651 0.0024146 2.87286e-20)
(-0.00293708 -0.0233138 2.42601e-19)
(-0.00276204 -0.0242129 -2.66134e-18)
(-0.00318897 -0.00872078 6.47559e-18)
(-0.00311113 -0.00896184 4.88523e-19)
(-0.0033899 -0.00884315 3.88089e-18)
(0.0132409 -0.0211262 5.69415e-18)
(0.0270336 -0.0178107 -1.75471e-18)
(0.00182965 -0.0254962 -3.50934e-18)
(0.011867 0.000313696 -4.0583e-18)
(0.0131517 0.000586292 1.18724e-17)
(0.0126009 0.000549143 -1.12008e-17)
(0.00510653 -0.00329527 3.21976e-19)
(0.00488972 -0.00318942 -1.84073e-19)
(-0.00858801 -0.0152682 -8.00234e-18)
(-0.00854532 -0.0156602 -6.93249e-18)
(-0.00901316 -0.0153979 -1.80581e-17)
(-0.110521 -0.0161729 4.28867e-20)
(-0.104787 -0.0146486 -5.87869e-20)
(-0.0610983 -0.00824685 4.8056e-18)
(-0.063226 -0.00821196 -3.68221e-18)
(-0.0653305 -0.011288 7.81773e-18)
(0.0272058 0.00195778 -3.31284e-18)
(0.027201 0.00192858 -7.46916e-18)
(0.0264819 0.00200108 -8.57357e-18)
(0.0102878 -0.000328957 4.19267e-19)
(0.0101016 -0.000713948 6.72649e-20)
(0.00986131 -0.000285412 -4.99877e-19)
(0.000732604 2.81508e-05 -1.2614e-19)
(-0.0177303 0.0254673 -1.20615e-19)
(-0.0125168 0.0199671 6.51145e-19)
(-0.0108579 0.0311848 6.54995e-20)
(-0.00281141 0.00144256 -2.07261e-20)
(-0.0030214 0.0015152 9.43054e-20)
(0.00773774 -0.00359835 -3.92956e-18)
(0.00650337 -0.00438009 1.00039e-19)
(0.002273 0.000388869 2.40738e-19)
(0.00223076 0.000420391 1.82027e-20)
(0.00228656 0.000452678 -2.50643e-20)
(0.00041378 -0.00188338 1.71806e-18)
(0.000404791 -0.00196815 1.34565e-19)
(0.000492765 -0.00194618 1.37361e-18)
(0.00481535 0.00519483 -1.07465e-19)
(0.00335844 0.00676274 -5.4205e-20)
(0.00267777 0.00471803 6.11811e-21)
(-0.0191744 -0.00765511 4.19196e-18)
(-0.0166618 -0.00633235 -2.96837e-18)
(0.0175438 0.00227325 -1.83367e-19)
(-0.00441183 0.023393 2.45105e-18)
(-0.00295228 0.022536 7.41825e-18)
(-0.0017548 0.0257481 -2.1344e-18)
(0.00295707 -0.00104571 -3.97492e-20)
(0.00303832 -0.000990724 1.01897e-19)
(0.00952512 -0.00558703 1.38437e-19)
(0.00922421 -0.00541131 5.57874e-19)
(0.00957117 -0.00519578 -7.99723e-19)
(0.000987029 1.27524e-05 4.37085e-20)
(0.0010345 1.34911e-05 -7.7888e-21)
(0.00117115 2.89207e-05 -3.49524e-20)
(0.000429562 -0.00181556 -2.19137e-19)
(0.000358063 -0.00182529 1.08988e-18)
(-0.0563579 -0.00912749 2.26377e-18)
(-0.051386 -0.0120923 1.799e-18)
(0.00377411 0.00154695 -5.77479e-20)
(0.00391091 0.00153454 2.63987e-20)
(0.00386069 0.00166173 2.22845e-20)
(-0.000618261 0.000191874 -1.36011e-20)
(-0.000605692 0.000244149 4.61204e-20)
(0.0141423 0.000665382 -2.16465e-18)
(0.0146471 0.00074902 4.34636e-19)
(0.0152835 0.000918781 -2.11758e-18)
(0.000234618 -0.000108636 2.79118e-21)
(0.000290365 -0.000104592 6.09141e-20)
(0.000185765 -5.11466e-05 2.38605e-21)
(8.38546e-05 -0.000180443 2.20299e-20)
(1.42245e-06 -0.00014548 -1.77181e-19)
(0.0017595 -9.73472e-05 -7.72314e-20)
(0.00179646 -0.000112227 2.72757e-19)
(0.00178971 -6.99456e-05 -5.87142e-20)
(-0.0256078 -0.00467133 -1.04524e-17)
(-0.0248157 -0.00442802 -3.75985e-18)
(-0.0228586 -0.00259948 -1.74478e-18)
(0.00578499 -0.000253002 -3.5709e-19)
(0.00575568 -0.00045958 -4.00177e-19)
(0.00557217 -0.000311008 4.12143e-19)
(-0.0207592 0.0167896 -2.6551e-19)
(-0.0325331 0.00055682 5.57863e-18)
(-0.0304571 0.00190898 1.14239e-18)
(-0.0308992 -0.000620758 3.77422e-18)
(0.0235886 0.00389749 -1.46868e-20)
(0.0196882 0.00199689 -3.25823e-19)
(0.0163491 0.00115073 -8.60109e-20)
(0.0213707 0.0031671 -1.74028e-18)
(-0.0305269 0.0121361 -1.97578e-17)
(-0.0345626 0.00797621 3.94598e-19)
(-0.034998 0.0105888 5.18474e-18)
(0.000927483 0.000421131 -6.91666e-20)
(0.00093518 0.000469645 1.20088e-19)
(0.000882466 0.0004505 -1.71721e-20)
(0.010449 0.000114783 2.91541e-19)
(0.0106982 -0.000381703 1.89716e-19)
(0.0033474 0.000798864 4.74965e-20)
(0.00343876 0.000841398 -4.10122e-19)
(0.00342582 0.000744435 -4.5872e-21)
(0.00949263 0.00019225 -2.7409e-18)
(0.00959944 0.000160913 4.17983e-19)
(0.010922 0.000475393 5.44617e-18)
(-0.0024211 -0.00527882 1.05042e-18)
(-0.055112 -0.0108401 -7.99806e-19)
(-0.0567444 -0.00751829 7.56939e-18)
(-0.0589679 -0.01035 2.67721e-18)
(0.0105755 -0.018809 -9.47546e-19)
(0.009928 -0.0186836 4.31881e-18)
(0.010237 -0.0195677 1.27061e-18)
(0.000856776 -4.60742e-05 1.36469e-20)
(0.000972619 -7.23157e-05 1.76772e-20)
(0.000798247 -4.48623e-05 2.47053e-20)
(0.00110234 -0.00349307 -5.71891e-19)
(0.00108512 -0.00335825 3.90555e-19)
(0.0104499 -0.0307547 5.31513e-18)
(0.01266 -0.03154 -4.56354e-18)
(0.0113566 -0.0303348 5.13191e-18)
(-0.00322776 -0.00844467 4.99599e-18)
(-0.00297314 -0.00858627 9.71061e-19)
(0.00600309 -0.000194613 -1.47238e-19)
(0.00579711 -5.38511e-05 3.48482e-21)
(-0.00150414 -0.00478446 -1.38171e-18)
(-0.00141262 -0.00464508 4.88875e-18)
(-0.00131109 -0.00483312 2.82221e-18)
(0.00326565 0.000841396 1.37269e-19)
(0.00217222 -0.00194436 6.37199e-19)
(0.00224121 -0.00199446 2.10691e-18)
(-0.0509881 -0.0358277 5.21944e-18)
(-0.0451135 -0.0361664 5.78042e-18)
(-0.0538877 -0.0342129 1.19139e-17)
(-0.021273 -0.0209996 -5.68214e-18)
(-0.0232033 -0.0198359 -1.92598e-17)
(0.0212079 -0.0184374 4.41376e-18)
(-0.0123633 -0.0257047 5.2694e-18)
(0.00211286 -0.00187928 -1.09289e-18)
(0.00221718 -0.00187377 2.66164e-19)
(-0.0584851 -0.0367214 -4.91856e-18)
(-0.0474856 -0.0361339 -1.61394e-18)
(0.00198096 0.00203349 -1.62916e-20)
(0.0018849 0.00189028 -7.11858e-20)
(0.0195184 0.00366146 4.8807e-19)
(0.0194256 0.00191295 -2.81233e-20)
(0.0111885 -0.0180937 -3.10484e-19)
(0.0115423 -0.0190492 -1.23121e-18)
(-0.00909045 -0.01867 -1.24772e-18)
(-0.0093103 -0.0182333 8.41269e-19)
(-0.00320294 -0.0319329 -5.48254e-18)
(0.00119542 -0.0308403 -2.40287e-18)
(0.00260587 -0.0310592 3.86567e-18)
(0.021876 0.00529043 1.42858e-18)
(0.0203929 0.00613499 -5.70616e-18)
(0.0225677 0.0063309 6.10681e-18)
(-0.00172523 0.00265607 -1.10472e-19)
(-0.00165233 0.00254241 -6.00799e-20)
(0.0251743 0.00235109 8.04714e-18)
(0.024569 0.00226899 -3.22676e-18)
(0.0253775 0.00232664 -6.84742e-18)
(0.00418853 -0.00611354 1.31097e-18)
(0.00441341 -0.00614772 -3.97896e-19)
(0.00429522 -0.00591991 -1.68805e-19)
(0.010542 -2.03063e-05 -2.96002e-18)
(0.0111492 3.13272e-05 2.74667e-18)
(-0.0016921 0.00323231 2.29471e-19)
(-0.00145487 0.00321171 -8.44925e-20)
(0.00363532 0.00155393 1.56768e-20)
(0.00368304 0.00143895 1.28518e-20)
(0.00813633 -0.00244165 3.62274e-19)
(0.00819372 -0.00276682 5.46729e-20)
(0.00789843 -0.00264291 9.88042e-19)
(0.022768 0.00318298 -4.35289e-18)
(0.022902 0.00302849 1.49365e-17)
(0.0220548 0.00303025 1.20275e-17)
(0.0271738 0.00209083 5.2782e-18)
(0.0271173 0.00202379 -1.22981e-18)
(0.00467338 -0.00107236 -9.3985e-20)
(0.00480983 -0.00105993 1.12892e-19)
(0.00472896 -0.000947526 2.13151e-19)
(-0.092213 -0.0207437 4.16121e-19)
(-0.0772917 -0.0197321 3.06283e-20)
(-0.0963854 -0.0251256 -2.70316e-19)
(0.00814134 0.00167156 4.50481e-20)
(0.00779477 0.0019056 -1.13696e-20)
(0.00777846 0.00141942 2.58331e-20)
(0.0094921 -0.00597382 -5.72888e-19)
(-0.0026807 0.0013211 -9.58191e-20)
(0.0100735 -0.031115 -5.2668e-18)
(0.00359443 -0.000217971 -5.66375e-20)
(0.00367005 -0.000221963 -2.79845e-19)
(0.000543136 0.00172066 3.89011e-20)
(0.000518321 0.0016294 -6.52026e-20)
(0.000443757 0.00172105 -3.26244e-21)
(0.00594441 0.000175858 -3.49977e-19)
(0.00598939 0.000314217 -6.12644e-19)
(0.00581463 0.000261635 -2.94702e-19)
(0.00602308 6.44007e-05 -1.09759e-19)
(0.00584196 5.81863e-05 1.0756e-19)
(-0.00813333 0.020236 1.02016e-18)
(-0.00824327 -0.0151259 1.37336e-17)
(-0.00866687 -0.0149047 4.77609e-18)
(0.0103016 -0.00110343 9.34347e-20)
(-0.00819776 0.00211626 5.85697e-18)
(-0.00945633 0.00214938 -8.19506e-19)
(-0.0110927 0.000524712 -2.73958e-18)
(0.00139562 8.76347e-05 -3.12704e-19)
(0.00138202 7.75553e-05 -7.18667e-20)
(0.00141208 8.02376e-05 2.56581e-19)
(-0.00219364 -0.00150016 -8.9294e-20)
(-0.00233462 -0.00144123 1.16731e-20)
(-0.00216061 -0.00133729 -2.74398e-20)
(-0.00220769 -0.00166486 -1.39046e-20)
(-0.00205523 -0.00155588 -2.41552e-20)
(-0.0263065 0.0139186 -6.33628e-18)
(-0.031164 -0.0354967 -3.7892e-18)
(-0.011773 -0.0331 -7.92413e-18)
(-0.0135855 -0.0340232 8.63746e-18)
(-0.0633194 -0.0360377 1.15889e-18)
(-0.0668792 -0.0356436 6.30612e-19)
(-0.0637927 -0.0374889 1.65955e-18)
(0.000612021 -0.000407041 -1.90339e-19)
(0.000615958 -0.000457339 -1.26584e-18)
(0.000560985 -0.000424358 2.59879e-19)
(0.000685774 3.85124e-05 3.63238e-20)
(0.00051867 1.90743e-05 -3.46803e-21)
(-0.111088 -0.0151963 1.47447e-18)
(-0.112808 -0.014388 -8.86539e-19)
(0.0250576 0.00237175 8.99832e-18)
(-0.00185298 -0.00109698 1.02537e-19)
(-0.00192632 -0.00118548 -7.36863e-20)
(-0.00197745 -0.00107488 4.59719e-19)
(-0.00179004 -0.00100263 -5.63223e-20)
(-0.00173483 -0.00110427 -7.27977e-19)
(0.000409408 -6.47755e-05 3.13301e-19)
(0.000220157 -1.93872e-05 -4.41593e-20)
(-0.0022285 -0.00184603 1.36092e-20)
(-0.00239955 -0.0018014 1.90508e-19)
(-0.00221908 -0.00206219 -4.11739e-19)
(-0.00207054 -0.00190642 -1.03639e-19)
(0.0194572 0.00309871 -1.49657e-17)
(0.0185677 0.00317178 -1.25527e-17)
(-0.0111564 0.0171972 -3.39673e-18)
(-0.0140711 0.0162602 -4.21969e-18)
(-0.0136724 0.0139318 -4.98791e-18)
(0.00339111 0.000113546 -7.12831e-20)
(0.0033273 0.000131664 -2.91215e-20)
(0.00334633 7.28484e-05 -2.6856e-19)
(0.00103384 0.000769233 6.56887e-23)
(0.00107261 0.000818299 1.46703e-20)
(0.0010986 0.00075487 -1.18599e-21)
(0.00425687 -0.0219848 -1.96902e-18)
(0.00514216 -0.0217939 1.81663e-18)
(0.00457541 -0.0212475 5.28337e-18)
(0.0200836 0.00236179 4.17735e-18)
(0.0208751 0.00254918 -2.47884e-18)
(0.019795 0.00245368 -2.78057e-18)
(-0.000281791 -0.00014243 1.04524e-19)
(-0.000312891 -9.14302e-05 1.58239e-19)
(-0.000249455 -9.18904e-05 -5.39276e-21)
(0.000658729 -0.000395671 -5.77888e-20)
(0.000614172 -0.000366963 1.38346e-19)
(-0.0890225 -0.0179259 3.35518e-19)
(-0.101471 -0.022524 -1.18259e-19)
(0.00847029 -0.00352751 -3.53909e-18)
(0.00933914 -0.00344054 -6.61378e-18)
(0.00841585 -0.00418269 2.01902e-18)
(-0.0416989 -0.0354704 -1.20422e-17)
(-0.00733339 0.00191074 -2.72965e-19)
(-0.00566491 0.00343416 5.50372e-18)
(0.0137811 -0.0235136 2.26084e-18)
(0.0147217 -0.0227344 -7.7664e-19)
(0.0145957 -0.0238982 1.41842e-18)
(0.00226167 0.000338607 2.10699e-19)
(0.00231403 0.000364629 2.85492e-19)
(-0.0326925 0.00627104 -8.15022e-18)
(-0.0357798 0.00461035 6.58545e-18)
(0.00350214 -0.0222976 -1.72986e-18)
(0.00416269 -0.0228658 -4.24051e-18)
(0.0107736 0.00095522 -1.5169e-19)
(0.0103733 0.00132542 6.05689e-20)
(-0.00488905 -0.0183691 1.68888e-17)
(-0.00499302 -0.0188443 1.84596e-18)
(-0.00544551 -0.0184629 2.21402e-18)
(0.00454594 -0.00107021 4.22151e-19)
(0.00461252 -0.0011893 -2.1924e-19)
(-0.00851074 0.0173013 8.44889e-18)
(-2.87573e-05 -0.00171048 1.01386e-18)
(2.28297e-05 -0.00168741 5.70059e-19)
(1.54985e-05 -0.00177592 -3.15239e-19)
(0.00881784 -0.0104264 -3.19014e-18)
(0.00921697 -0.0105284 -4.91077e-19)
(0.00878341 -0.0108178 5.13364e-19)
(0.0093937 -0.0182337 -7.3212e-19)
(0.00868694 -0.0177315 -3.07004e-18)
(0.00954578 -0.0174671 -1.77476e-18)
(0.00348619 0.000189704 -6.56212e-20)
(0.00343288 0.000146187 -6.01922e-20)
(0.00342931 0.000210659 -4.27112e-21)
(0.000311143 -1.25722e-05 1.1758e-21)
(0.00288539 -0.00417436 6.3727e-20)
(0.00568909 0.0013604 1.36858e-19)
(0.00552427 0.00149805 -2.05968e-19)
(0.00574345 0.0016052 -6.12451e-20)
(-0.00253124 0.00258689 8.32289e-20)
(-0.00250614 0.00270182 -2.19401e-19)
(-0.00263099 0.00267738 -1.48696e-19)
(0.0231974 0.00208164 -9.07214e-20)
(0.0238891 0.00216344 7.67427e-19)
(0.0241298 0.00214876 5.40837e-18)
(0.0168234 0.068526 -6.64016e-18)
(0.00650817 0.0703898 -2.95335e-18)
(-0.00288616 0.0653205 1.54198e-18)
(-0.00272684 0.00100636 9.06747e-20)
(-0.00272858 0.00103329 -3.93568e-20)
(-0.00270313 0.00101806 -4.32168e-20)
(-0.00181312 -0.000878774 3.02247e-20)
(-0.00172033 -0.000907217 9.23289e-20)
(0.00395417 0.00141261 2.58323e-20)
(0.00405372 0.00151409 1.254e-19)
(-0.00190522 -0.000850122 -7.57888e-20)
(-0.00181344 -0.000776587 9.40148e-20)
(-9.38864e-05 -0.0017299 3.13419e-19)
(0.00070738 -7.40723e-05 -2.77629e-19)
(0.000565422 -3.85953e-05 5.05561e-19)
(0.00312431 -0.0116788 -4.4261e-18)
(0.00304634 -0.0120724 1.03996e-18)
(0.00344698 -0.0119511 -5.61399e-18)
(-0.00271608 0.000986376 2.39396e-19)
(-0.0027698 0.000954975 -1.50336e-20)
(0.0269775 0.00183089 1.47227e-18)
(0.0262736 0.00179875 4.60869e-19)
(-0.00284918 0.0114504 5.74125e-18)
(-0.00287614 0.00980638 -4.54589e-18)
(0.00207338 -0.00134806 6.2784e-19)
(0.00198882 -0.00135528 2.00408e-19)
(0.00203237 -0.00128599 -2.38937e-19)
(0.00502206 0.00143399 -9.46259e-21)
(0.0051656 0.00133259 -2.74101e-20)
(0.00500341 0.00125456 -3.19512e-20)
(-0.0820468 -0.0455382 -2.85791e-18)
(-0.0823674 -0.0464125 4.91603e-18)
(-0.0841442 -0.0453674 1.30292e-17)
(0.000212122 -0.00287197 3.1817e-20)
(0.000414138 -0.00300436 2.49219e-19)
(0.000337963 -0.00273543 1.43918e-19)
(0.015975 -0.00252898 6.73093e-20)
(0.0164299 -0.00220675 -1.07576e-19)
(0.0163394 -0.00291894 -1.37739e-19)
(0.0221663 0.00197496 -6.32122e-18)
(0.0224523 0.00198591 4.67411e-21)
(4.99443e-05 -0.00274325 4.24852e-20)
(6.43652e-05 -0.00301401 -1.53938e-19)
(0.0217749 0.00259757 -5.07408e-18)
(0.0220625 0.00256578 -4.28066e-18)
(-0.00255855 0.00247219 1.80135e-19)
(-0.00242924 0.00248933 1.66333e-19)
(-0.0293166 -0.00703906 -6.94991e-18)
(-0.0269542 -0.00532136 -7.27152e-19)
(0.000878445 -3.96169e-05 3.91842e-20)
(0.000640258 -2.03785e-05 -7.80737e-21)
(0.00411219 0.000216292 -2.3547e-20)
(0.00407644 0.000153118 -1.77732e-21)
(0.00412302 0.000160235 -3.37334e-20)
(0.00354227 0.000212702 8.90165e-20)
(0.00353954 0.000156717 1.59637e-20)
(0.00222767 0.000644661 -3.34382e-20)
(0.00217843 0.000696113 -5.96909e-20)
(0.00216006 0.000629498 1.04965e-19)
(-0.00943174 -0.0275236 -4.57127e-18)
(-0.00725484 -0.0268517 9.89684e-18)
(-0.0100656 -0.0270019 6.69751e-18)
(0.000666797 9.83264e-05 -6.39563e-20)
(0.000714353 9.01943e-05 -2.99394e-20)
(0.000650728 4.80441e-05 -1.88307e-20)
(0.0264805 0.00503622 -2.26636e-19)
(0.0286705 0.00560596 -8.1715e-20)
(0.00592835 -0.00649295 -2.10789e-20)
(0.00622239 -0.0065262 3.87683e-19)
(0.0060398 -0.00623704 -3.41565e-19)
(0.00617517 0.00339652 -6.09795e-20)
(0.00837513 0.00557956 -5.52969e-19)
(-0.0588715 -0.0191768 -7.94582e-19)
(-0.0557254 -0.0161766 4.94427e-18)
(-0.0190654 -0.01028 3.72181e-19)
(0.0274236 0.00188576 8.55676e-18)
(-0.0003092 -0.000193426 1.03956e-20)
(-0.000237952 -0.000191558 -4.3931e-20)
(0.00161581 -0.0161681 3.59073e-18)
(0.00129232 -0.0165983 -1.21667e-18)
(0.0010267 -0.0160541 -1.2229e-19)
(0.00556412 0.000974877 1.78142e-19)
(0.00563239 0.00116505 4.02745e-19)
(0.00542479 0.00109318 9.53279e-20)
(0.00526785 -0.00322439 7.93399e-19)
(0.00543635 -0.00312128 -7.01127e-19)
(0.00521563 -0.00302732 2.17965e-19)
(0.00549274 0.000779363 -1.93728e-19)
(0.00531681 0.000771719 -2.97518e-20)
(0.00394291 -0.0036629 -3.45514e-18)
(0.00402019 -0.00381479 1.60209e-18)
(-0.00203395 0.00252826 6.24341e-22)
(-0.00216706 0.00251944 -2.78887e-19)
(-0.00207484 0.00240783 5.97536e-20)
(0.000615437 0.00014318 1.17115e-20)
(0.000609115 9.57689e-05 1.74753e-20)
(0.0142978 -0.0301078 -6.27553e-18)
(0.0193823 -0.0312152 -7.43803e-18)
(0.0124564 -0.0300246 -7.79287e-18)
(0.00870666 0.00940281 -6.84142e-19)
(0.00925893 0.0101716 -1.04732e-19)
(0.00814202 0.0101632 -3.77289e-19)
(0.00832872 -0.0103482 -1.93977e-18)
(0.00875026 -0.0100534 8.14364e-19)
(0.00378455 -0.00370075 2.31496e-19)
(0.00386251 -0.00354886 -1.75249e-18)
(0.000693488 -0.000382773 3.04455e-19)
(0.000692712 -0.000340212 2.97134e-19)
(0.000732282 -0.000366011 6.03788e-19)
(0.01361 0.000621441 1.23413e-17)
(0.0129856 0.000425639 3.02395e-18)
(0.0223807 0.00322706 -1.39956e-17)
(0.0221356 0.00348629 -3.23412e-18)
(0.00058444 0.00259165 -2.80253e-20)
(0.000450034 0.0025841 1.92404e-19)
(0.000549819 0.00245743 -3.93845e-21)
(0.00433244 0.000765157 1.81648e-19)
(0.00416062 0.000807583 1.57382e-19)
(0.00422531 0.000623494 1.70819e-19)
(0.00531065 -0.00340718 1.87701e-19)
(0.00611555 -0.00377272 -3.28018e-20)
(0.00711615 -0.00354718 5.8503e-20)
(0.00650965 -0.00277769 5.78288e-20)
(-0.0133379 -0.0148204 5.34091e-19)
(-0.0132142 -0.0150119 -5.66011e-18)
(-0.0135184 -0.0144652 -1.06957e-18)
(0.000593481 0.00918003 3.31903e-18)
(0.00348814 0.0102461 -1.64019e-18)
(0.00228425 0.0112502 -7.61436e-18)
(-0.0518201 -0.011158 -2.23821e-18)
(-0.0549519 -0.0137412 5.18889e-18)
(0.00543863 0.00620575 -6.45353e-20)
(0.00573926 0.00551709 -9.97269e-21)
(0.0061614 0.00618672 3.45577e-20)
(0.0365761 -0.0181678 -8.56378e-19)
(0.0400329 -0.0172306 -1.1227e-18)
(0.00487626 0.00152459 4.31234e-20)
(0.00502728 0.00163059 1.93975e-19)
(-0.0129265 -0.00676197 6.30291e-18)
(-0.0121483 -0.00606529 -7.17996e-18)
(0.00606407 -0.00508608 1.43988e-20)
(0.00495766 -0.00368682 -6.90703e-20)
(-0.0193978 -0.0163243 -4.91146e-18)
(-0.0194225 -0.0178252 2.66483e-18)
(0.000580127 -5.41247e-05 -2.06607e-19)
(0.000428236 -2.56335e-05 -1.30739e-19)
(0.00407382 0.000278585 3.61594e-21)
(0.00399337 0.000242535 -1.24248e-20)
(-0.0615796 -0.0123731 -2.40783e-19)
(0.00362127 0.00107278 1.13011e-20)