/*--------------------------------*- C++ -*----------------------------------*\
| =========                 |                                                 |
| \\      /  F ield         | OpenFOAM: The Open Source CFD Toolbox           |
|  \\    /   O peration     | Version:  v2012                                 |
|   \\  /    A nd           | Website:  www.openfoam.com                      |
|    \\/     M anipulation  |                                                 |
\*---------------------------------------------------------------------------*/
FoamFile
{
    version     2.0;
    format      ascii;
    class       volScalarField;
    location    "950";
    object      omega;
}
// * * * * * * * * * * * * * * * * * * * * * * * * * * * * * * * * * * * * * //

dimensions      [0 0 -1 0 0 0 0];


internalField   nonuniform List<scalar> 
13917
(
5.47251
0.0473974
2.82588
0.0229972
0.0293022
0.0463782
0.0298797
0.0838523
0.027237
5.42836
0.0808691
0.0222492
0.0254018
0.275283
0.0315041
7.25988
0.0229481
0.0734105
0.132784
8.12806
0.0424267
0.0222001
0.0517358
0.0222005
0.0250796
0.0452602
1.95366
8.18542
0.0576016
0.0206525
6.3456
0.0700274
0.0231553
2.9716
0.021465
0.0915013
0.0265275
0.0226768
0.0298772
0.0488942
0.0234382
0.0220873
0.025252
0.118065
0.117256
2.2764
0.0398536
3.11098
0.186885
0.0214889
0.0221977
0.133478
15.5168
0.0221928
0.0223259
0.132307
6.33994
0.0518747
0.0220332
2.3163
2.84978
0.0317521
0.0206939
0.0247084
2.79889
0.0268149
0.0618553
0.0902111
0.0780394
6.02332
2.95093
3.19582
0.0220279
0.0218051
0.0438168
0.0260366
0.0255585
0.0217244
0.0256213
0.0233001
0.0231806
0.0225515
0.0219896
3.03389
0.021176
0.109273
0.0676917
0.0217093
0.0484428
0.0229649
0.0211199
0.025404
0.193088
0.0210922
0.0231982
0.0616397
0.490389
0.0219659
0.021604
0.128513
0.0220767
0.0218901
0.0232782
0.0212713
0.0254153
3.22662
3.58533
0.0312421
0.0224156
2.10665
0.0215809
2.88071
0.057534
2.59826
2.82182
0.0268212
0.118635
0.021682
1.91313
0.0218321
0.0224528
0.021391
0.0661815
0.105972
5.46319
2.99305
0.024374
0.0463695
0.0212112
0.106026
0.0357987
0.741311
2.71826
0.0267448
0.0822777
2.16303
2.75369
5.36778
0.0483306
0.0226372
0.132087
0.0215196
3.26173
0.0213512
0.0219062
0.0241431
2.96643
0.0959387
3.44663
0.0222574
0.0445258
0.0215002
0.0218565
0.0218432
1.22745
0.0229849
0.0212448
2.6876
0.0231476
0.0222141
0.0212035
2.67627
0.0298475
0.24151
2.99866
0.133688
23.7593
3.16455
0.0197022
0.0512547
0.0223844
2.69928
0.0270941
2.71405
0.08342
0.0224918
0.0229976
0.109318
0.0349261
0.0307965
0.0251858
0.0222456
0.0221959
2.29816
2.08022
0.720837
0.0221529
2.36564
0.020665
0.101883
0.0833446
0.106696
0.26697
5.53104
0.0211019
5.36209
0.0294587
2.77135
0.0214115
0.0227188
0.0368138
5.9123
6.85842
0.0257801
2.00953
0.0440064
0.0450883
0.0214959
0.127084
0.023172
0.0208753
0.0333494
0.034677
3.52362
0.0794789
0.0476803
2.66807
0.0223662
0.0207645
0.0207543
3.09724
1.24049
2.54467
0.0213853
0.0208831
2.24097
6.62926
0.0205911
0.0205573
0.0234359
0.0208641
0.0208553
3.4042
3.88729
0.0225206
0.0197587
0.0870216
3.46996
0.0234429
0.021381
2.09404
3.27999
2.13952
2.66779
0.113369
0.0213631
3.22781
0.0895274
0.0543199
0.0823872
0.0253291
3.98461
0.0218673
0.0520816
0.0756398
0.0226845
0.0233752
0.0246665
0.0272986
0.0215152
3.75864
0.321016
0.0212494
0.0205249
0.0231701
0.0205264
0.0218722
0.0253557
0.0440083
0.0213681
4.16021
3.31984
0.0217771
0.0257132
2.44273
0.0208996
0.105096
3.28777
0.020917
4.48542
0.0214222
2.67442
0.0224941
0.029043
0.0227937
0.0213062
0.532935
0.0220716
0.165378
0.0335893
0.885849
0.023773
1.52004
5.52662
0.0222521
0.0597669
0.0278953
0.027368
0.0286506
0.0255438
0.0211756
0.0218402
0.115688
0.0333718
0.0505168
0.025229
0.0213628
2.71306
8.1121
0.021096
0.025166
0.0274421
0.0567038
0.144896
3.07873
2.66467
0.0278052
0.171703
0.0253372
3.04532
0.0611663
2.7717
0.0251477
0.0309046
1.84047
0.0226915
0.0506578
0.106809
0.0231973
2.70639
0.0212275
0.0434008
0.0220527
13.8133
0.020803
0.0473743
0.0450506
0.0277794
0.0229225
0.0819314
3.22586
0.0230165
0.0226794
2.75248
3.24377
2.62182
0.226679
0.0207937
0.0224761
3.29351
0.246586
0.0208152
0.0286042
0.0221823
0.0672934
0.0489127
0.13991
0.107696
0.10538
0.0436475
3.35735
0.0212638
0.0230294
0.0303779
2.07054
0.0234854
6.64962
0.043164
0.167451
0.0224076
0.128159
0.0252666
0.194256
0.0222157
2.51176
2.42659
0.0484349
0.0218312
2.93708
0.0226449
3.0053
0.831546
0.0224418
0.19731
0.0233163
0.0410297
0.020695
6.86852
0.0411015
0.0256678
2.29754
0.0948036
0.0246778
2.67359
2.66143
0.0249462
0.673124
0.0223262
0.0957456
2.72644
0.0212561
0.0286085
0.0251728
0.0212807
0.0209727
0.0213396
2.71225
0.132481
0.0226916
0.0214065
0.021954
0.0597383
0.0963551
0.0213472
0.0197341
0.141194
0.130856
0.0213464
0.0254289
2.55591
1.73583
0.0277267
0.14406
3.07595
0.0224391
0.0211727
0.0380282
0.0209595
0.0213831
0.022643
0.0212068
0.0222914
3.35966
0.0224097
0.0528445
3.74652
0.059777
0.0208966
0.0218289
2.6723
0.0368122
6.68551
0.0217993
0.0214034
0.0229604
0.0209908
0.0263147
0.0235698
2.5383
0.0127219
3.23666
0.0213986
0.0396398
0.017409
0.0230361
0.113327
2.60481
0.0221158
2.20238
0.020942
0.021311
0.0218756
0.0233565
0.0208223
0.0222773
2.69404
2.81296
0.0208023
1.79868
0.137918
0.022009
0.0648651
0.0721392
2.80668
0.0295746
3.20985
0.0931248
0.0859369
0.023612
0.0267456
0.0180728
0.0250672
2.72029
0.0213763
0.0220894
0.0232111
0.0279194
0.041391
0.949513
0.0590712
0.0246392
0.0264427
0.0719297
0.0677722
0.0226963
0.669874
0.042374
0.0336334
2.88864
0.0211833
0.0705107
0.383629
0.0208579
2.65361
0.0213982
0.0209863
0.06083
0.021831
0.0222663
0.12288
2.6944
2.29556
0.0211921
0.0232541
0.0251316
2.67719
2.45576
0.0224921
0.0222664
0.0211635
0.0701136
0.537371
0.0212711
0.0234057
0.0225893
0.0212489
0.0262543
0.0331823
0.0218554
0.0599927
0.0208589
0.0220272
0.0248937
2.9985
0.0204704
0.0252486
0.0215234
0.0383191
0.0752739
0.0698065
0.0783185
0.1348
0.0244979
0.0669359
2.80618
3.43862
3.2773
0.0209938
0.0217976
0.0228038
0.0215786
2.818
0.0210735
0.339044
0.0294062
2.88002
0.116052
0.0252508
2.37758
0.0207889
0.0634483
0.0219314
0.0226016
2.82836
0.0215558
2.60562
0.0211078
0.0232376
0.0218718
0.457002
0.0265155
0.0204261
0.118832
0.0640106
0.103989
3.01238
2.74646
2.86037
0.0204762
6.17004
0.0206098
2.7816
0.0844425
0.022904
0.0259821
0.0219122
0.0418233
0.0248178
0.0215969
0.0218977
0.0250143
3.02017
0.0212569
0.0631652
0.0220324
0.0204027
0.0231596
2.11399
2.75103
3.86116
0.077072
0.032951
2.83046
3.30525
0.0207258
2.67017
0.0247304
0.0994237
0.0215778
2.94301
0.0212198
0.0264869
0.0219398
0.101464
0.0439598
2.74009
0.0217454
0.0421814
0.0214688
0.0219839
3.18055
0.137555
0.0217007
0.12536
0.0213631
0.0223158
0.0215435
2.9426
0.0212585
0.0278285
0.0210497
0.0215729
2.02431
0.021576
0.140291
0.0223521
0.020826
2.81998
0.0649292
0.022392
16.3617
2.49022
0.0862711
0.420996
0.02077
0.0327414
3.25723
2.98317
0.036098
0.0265685
0.0268069
0.0222393
0.0213533
0.0288493
0.0814837
0.0281361
3.00314
0.0443413
0.11033
2.47636
0.0335905
0.0445725
0.265314
4.02978
0.021184
0.0296259
0.0305301
0.020841
0.0216959
0.0231484
0.0253841
0.0224594
5.83439
0.0373242
0.0210464
0.0979383
0.0215436
2.91391
0.0214139
0.0212033
2.66858
0.0707236
0.10527
0.0221594
0.0231911
0.0211413
0.0227194
0.0319512
0.0212866
6.08779
0.036962
0.470409
0.132019
0.0294641
2.75836
0.0232765
0.0216862
0.0215474
3.11032
2.31267
0.0301579
5.78138
0.187142
0.0208149
0.0211425
0.026308
3.20503
0.232824
0.0444692
0.0226729
0.0252648
0.102244
0.0247797
0.138927
0.0376469
0.0230818
0.0233648
0.0217142
0.0319102
0.0264251
3.03785
0.0280626
0.025164
5.91182
0.0221556
0.210424
0.0259971
0.0401336
0.0289238
2.68651
0.0225571
0.059666
2.77815
0.0504883
0.0216089
0.0281136
0.0228428
0.0214359
0.021896
0.0342515
0.0137419
1.89872
0.14119
0.0207388
3.21448
0.0271612
0.0280428
0.119665
0.0226243
0.0634002
0.441709
0.0203884
0.0707398
0.0969369
0.0373771
0.0211019
0.0208578
0.0213354
7.36216
0.0230935
0.0216056
0.0430581
0.0213246
0.0209516
0.136165
0.151267
0.0390043
2.02778
0.0624784
3.31218
0.0218987
0.0260597
2.85852
0.0231673
0.0240428
0.022814
0.0215735
0.0221368
0.0288962
0.0725908
0.0210921
0.0296904
0.0223312
0.0838289
0.0260856
0.0294182
0.0220733
0.0835743
0.0295846
2.65852
0.0406905
0.0234045
3.10207
0.0235465
4.06769
0.0245002
0.0520971
0.024346
0.0209033
0.0215802
2.70217
0.0319545
0.0899431
1.87818
0.0214215
0.037847
0.0197284
0.0271119
0.521605
0.0197797
3.26404
0.0253052
0.0535662
0.116776
0.0497638
0.0205856
0.0214754
0.127157
0.0207576
0.0221272
0.0245508
0.0217211
0.0433483
0.0205718
0.102759
0.0230738
5.82408
4.15225
0.0538073
3.24809
2.21433
7.4387
0.0561681
0.0207379
0.0222511
0.0218068
0.0236151
0.0211739
0.0320089
0.0213504
0.0976708
0.0221914
3.07191
0.022923
0.0331635
0.104675
0.0210291
0.0526312
0.023548
0.022784
0.0291013
0.0226074
2.79273
0.0871986
0.0288834
0.0210872
0.0215723
0.0224853
0.022456
2.88224
0.020764
0.134337
0.0211926
0.138053
0.028352
0.0213564
0.0614922
0.0331141
0.0207766
0.130378
2.7009
0.0263709
0.0826197
0.0207303
0.131226
0.0232553
0.0224584
3.82217
0.0217621
0.0231436
0.0971381
4.16599
0.0237216
0.0658458
2.89093
0.0222724
0.0239749
0.0217937
3.07268
0.0215393
0.129699
0.0220522
2.65342
0.0290472
2.4361
0.0214124
0.0209926
0.0480412
0.022972
0.0219824
2.87512
0.0244606
0.020961
0.0816079
0.0223012
0.0223201
0.0803642
0.0247687
2.79232
0.0496203
0.0724432
0.219699
0.0251963
2.65046
0.0234509
0.075249
0.0214558
3.65739
0.129403
0.0222322
0.0233422
0.0222214
0.0225005
0.022928
0.021419
0.0212722
0.0215553
0.0341621
0.0203883
0.0241127
0.0755031
3.14536
2.66217
0.0890065
0.0224998
0.051555
0.0212777
2.85188
0.535569
24.537
0.0210314
0.0207486
0.0218414
0.0220261
0.0209543
0.0229892
0.0213383
0.046159
0.0209707
7.60803
0.0730766
0.0210051
2.73355
0.0214717
0.0213562
0.0303226
2.86367
0.073483
0.0224932
0.117771
0.0212559
0.0213436
3.27035
0.0223507
1.10618
0.0232775
0.0603994
0.0209137
0.0213458
0.0372118
0.0448806
0.0243005
3.02333
0.0341361
0.0223691
0.0243228
0.021579
0.0208356
0.0930507
0.0361627
0.0278642
2.89868
6.82198
0.0428937
0.0992318
0.0212424
3.04819
0.0213421
2.58932
0.0737206
0.0286945
0.0239861
2.45736
2.25923
3.34053
0.0243264
0.0839844
0.0229959
0.021354
0.0373551
0.0229661
0.0220144
1.23257
4.47683
0.0213872
0.0291716
3.54076
0.0210592
0.0207819
0.499991
2.74833
0.0233788
0.0206783
0.0293005
0.0218017
0.0212737
0.0341906
0.0287357
0.0217598
0.488094
0.0244792
0.366731
0.536376
0.0330724
3.53207
0.0221998
0.0228472
0.030518
4.25986
0.0361464
0.0258611
0.0389114
0.022419
0.0233496
0.0236201
2.65075
0.0278341
0.0228946
0.0569201
0.0213044
0.0630904
0.0819142
0.122829
0.0585499
2.62076
0.227881
2.54567
2.64504
0.0226252
2.61071
0.0208396
0.06879
0.0882902
0.501834
0.0268681
0.0226066
0.028515
0.110477
0.0246721
2.76092
0.041576
0.0998545
2.60862
0.0215522
0.0989667
0.0253235
0.0220971
0.0278342
0.365735
0.0213603
0.020684
0.0240168
3.33109
0.0209582
0.0244653
0.0247982
0.0234551
0.0218735
0.105497
0.0674471
0.0229017
0.0210332
0.0958308
0.0305407
0.0427836
2.6565
0.0222948
0.0215144
2.28393
0.0216155
0.0248663
2.6454
3.35396
0.0305096
0.0692861
0.0302979
7.70461
0.137593
0.0394646
2.97083
0.0212085
0.0891954
3.03194
2.28069
0.527065
0.162578
0.0222979
0.0219558
0.0251386
0.0219175
0.022109
3.11624
0.0218292
0.0525471
0.0205211
0.0564989
2.71483
0.0247987
2.65643
2.16283
0.0215229
0.0733289
0.0293588
0.0242536
0.0214473
3.13
0.0762706
3.8811
0.0319296
3.02153
0.0982853
0.0232528
0.0551528
0.0415607
0.0254327
0.021383
1.87141
0.021453
0.0289249
0.0448675
0.0283774
0.0224544
0.0590681
2.41633
0.021219
0.861813
0.0614268
0.0221244
0.0212494
0.0239389
3.38491
2.79673
0.0208279
0.0322275
0.0258865
0.0523786
6.86608
0.0219276
0.0209636
0.0223754
0.0215839
0.0243347
0.0260571
3.36967
0.0225847
0.0260947
0.367096
0.0259349
0.0885612
2.71403
3.01734
0.0221933
0.0213322
0.0209216
0.0239568
0.0674096
2.86269
0.0288087
0.106312
0.036106
0.0537048
0.024741
0.0261837
0.0284482
0.115245
0.021095
0.120171
0.0265294
0.0207383
0.0220822
2.66451
0.0569307
0.366517
3.14604
0.115522
0.0211463
2.34667
0.0230402
0.0212573
2.65164
0.435541
0.0211111
0.0304536
0.115758
0.0413374
0.0231154
0.0205657
0.0212698
0.0208599
0.0214171
0.034545
0.0626097
4.56238
0.0420502
0.028481
0.0345662
0.095838
0.0209844
0.041476
2.39379
2.49465
3.52674
0.0242233
0.0205699
3.47641
0.0210603
0.0345949
0.024162
0.0530316
0.0225551
0.0211034
3.07068
0.0294957
0.0240263
0.021559
2.45133
2.99449
3.37633
0.0221596
0.0219196
0.178356
0.0221831
0.0224177
0.135696
0.505005
0.0307897
0.0382155
0.0229841
3.25951
0.021281
0.0256411
0.0224525
0.0205465
2.07021
0.0212846
0.0208396
1.64254
0.0596685
2.40635
2.52839
0.0212124
0.0339092
0.0209655
0.0210901
0.0243568
0.0228223
0.0220474
0.786646
0.0219133
0.0812278
0.0272498
0.0318479
0.0218281
0.0237953
0.02127
3.10005
0.0213345
0.104081
0.0716362
0.0231658
0.0557546
0.0381078
0.034399
0.0218729
0.0283213
0.020973
0.020737
0.0428812
0.0425296
0.0188911
0.0212293
0.0213268
0.0248478
0.0751039
0.021306
2.67386
0.0531309
0.0214026
0.0213302
0.0206439
0.0532498
0.347418
2.26814
0.0314333
0.127422
0.0297944
0.110532
0.0255378
2.71003
0.0205193
0.0212113
0.0277213
0.0305938
0.0206588
2.71561
0.0220285
0.0212768
0.13683
2.16054
8.0921
0.0299176
0.0286399
0.138502
0.329568
0.0214584
2.70908
0.0214818
0.0223837
2.37959
0.0205939
2.66408
0.0277282
0.0211672
0.0215818
0.0214667
2.79175
0.0232351
0.0205721
0.0767051
0.0212206
0.0209232
0.0235578
0.0219123
0.0483585
0.0220631
0.0247944
0.0206903
1.68814
0.0392613
0.0207134
0.020722
0.0232978
0.021314
0.0253227
0.022278
0.0213406
0.0220975
0.0215224
0.0236635
0.0217678
0.0697264
0.0206456
0.0842369
0.0220622
0.054353
0.0207939
0.0220026
0.0212947
0.0214818
0.0446682
0.0283972
0.0267488
2.42838
0.0367189
2.66511
2.70951
0.0826495
3.26009
0.0220109
0.0217183
0.659468
2.55646
0.0254389
3.42878
0.0206951
0.123136
0.127956
0.025252
0.0879998
1.30929
2.29822
0.0214745
0.0499832
0.021026
0.314788
0.0260184
2.64556
6.89076
0.0221961
0.0377016
0.537746
0.0231791
2.64318
0.036523
0.0248911
0.0209928
0.0335352
3.23254
0.0215406
0.0349066
0.0225606
0.196172
0.109436
0.0219456
0.0208234
3.25235
0.0210344
0.0215282
0.0227797
0.0207009
2.64101
0.0314166
0.0320815
2.9289
0.0214199
0.0678165
0.0219883
0.0323993
0.0650592
0.332937
0.0207641
0.0307117
0.021797
0.0214866
0.0248902
0.0218227
2.68692
0.0239299
0.020741
0.0212304
0.0325038
0.0209764
0.463725
2.54075
0.106172
0.0218232
0.0208967
0.021297
0.0659684
0.0223918
3.33194
0.0215041
0.332096
0.0246426
0.0228309
3.00186
0.0220612
0.022839
3.34859
0.11758
2.71226
0.0219301
2.91581
1.5364
0.0219592
3.09531
0.0222021
0.0274876
3.11049
0.0251283
0.0488491
3.95157
0.0350488
0.0719288
0.0217912
3.25403
0.0215146
0.471079
0.0212917
4.52068
0.0215392
0.0216336
0.0240785
0.0837017
0.020938
0.0341997
0.0768892
1.84314
0.0213627
0.0344599
2.75565
0.0904199
2.38849
0.0868359
0.0207899
0.123115
0.241078
0.0261033
2.82634
0.0210869
0.218584
6.31233
0.0209843
6.77391
0.0213338
2.98226
2.60443
0.0259204
0.0247096
0.494633
0.315761
0.0215308
0.0240508
0.0207128
0.021997
2.95589
0.0754013
3.08689
0.0219523
0.0314988
2.65429
0.0315093
0.0603527
3.35274
0.0211738
0.0214451
1.28938
2.53162
2.41448
0.378258
0.625205
0.0474229
0.0464572
2.77878
2.85824
0.532005
0.0209931
0.0876368
0.0526504
0.0823543
0.021693
0.0278929
0.0702383
0.126186
0.0974099
0.0223873
0.137555
2.96956
0.0514785
0.0214865
0.021498
0.0861112
0.0209333
2.70222
0.0325498
0.0275967
1.15057
0.0557401
0.0206964
0.0422028
0.0332621
0.0217336
2.86279
0.0270161
2.80047
0.0209924
2.91528
2.96102
1.84776
0.0214777
0.030223
0.0358711
0.121037
0.132114
0.0704587
2.94433
0.135134
0.0198351
0.0289558
0.0223839
0.142676
6.65308
0.0213122
0.0206689
0.0239908
2.31153
0.120168
0.0210396
0.0612912
0.877499
0.0209658
0.040283
0.0260559
2.80046
0.0293726
0.340547
3.35291
0.0319511
0.0268077
2.85926
0.0212413
0.0545053
3.44826
0.0253125
0.0928802
0.0334453
0.0597261
2.51662
2.90925
0.021765
1.28052
0.136205
0.0205941
0.143686
0.074106
0.129641
2.71128
0.766183
0.139204
0.123257
3.29469
0.0308425
0.0646849
0.0203244
0.0220903
0.0218419
0.0209551
3.03287
0.119782
0.0213683
0.0519885
0.404907
0.0212208
0.522197
2.75683
0.0207134
0.0223176
0.0204179
0.023714
0.0475412
0.0215119
3.09801
0.0331372
0.0790989
0.0287251
0.0808722
0.0446136
0.0376747
0.142955
0.0217362
0.0239019
0.0212415
0.0209225
2.79798
0.0925486
0.0338265
2.95924
0.0220511
0.022831
0.0377428
0.0207155
0.0212842
0.0869401
0.0280355
3.38361
2.40532
2.7176
0.0218007
2.62746
0.0213638
3.13492
0.0206727
0.153388
2.46575
0.0214919
2.13725
3.61873
0.0389828
0.0225225
0.0219979
0.0323003
2.60916
0.0206757
0.0222192
0.0219344
0.0228118
1.21231
0.0231973
0.0286078
0.0211468
0.0219096
2.85494
0.039995
0.0251688
0.141831
0.0821175
2.66155
1.00218
0.0231446
0.0234955
3.45027
0.0217408
0.070715
0.0218731
2.99075
0.0223874
0.0223945
0.0309004
2.66514
0.0214413
0.0207619
0.0205075
0.162716
8.30037
0.133996
0.0215315
0.0255439
0.0209686
2.99176
0.0208767
3.00913
0.0587714
0.0220554
2.18748
0.0388446
0.0305113
0.0225115
0.0222452
0.035617
0.0488601
0.136839
0.0221049
0.0226881
0.0222401
2.74957
0.0215841
0.0226775
2.9074
0.0246413
0.0281058
0.0267529
0.0211509
0.0212887
0.0726299
0.0244457
1.6531
0.0322651
0.0204797
0.604414
0.02255
0.121507
0.059175
0.0230037
0.0216226
0.0204292
0.0214998
0.649419
0.0501187
3.15146
2.98006
0.0209955
0.0315359
0.0474626
3.07549
0.0215336
0.361131
2.87783
3.04441
0.0211305
0.0243424
0.0227018
0.0528918
2.78538
0.0270089
0.0216021
0.0344483
3.08068
0.0220018
0.0244507
0.0243743
0.120914
2.922
0.0205247
2.6892
0.031447
0.0214716
2.66367
0.0589582
0.890352
0.63001
0.0385386
0.0279913
0.0227472
0.0303191
0.0229655
0.0697207
0.0572419
0.0213472
0.0263592
2.94541
2.42689
0.0206597
0.129925
2.60636
1.3547
0.0215153
0.021835
0.0444927
3.09597
0.0776891
0.0213073
2.53374
0.0652576
0.020665
4.56085
0.0315565
0.0222437
2.01527
0.0217121
0.0331049
0.0208587
0.0201889
0.0219079
0.020506
2.79929
0.0213398
0.0212163
0.0832446
0.0266168
0.0266386
0.13847
0.0218941
0.0215385
0.0243879
0.0235292
0.0711319
0.100007
3.05075
1.15704
0.0373451
0.516483
0.0361515
2.67565
2.48234
2.7576
0.0209115
0.035029
0.0215593
0.0219574
0.0209931
0.0224525
0.631397
0.0595671
0.046564
0.0211919
0.0214501
0.0556319
0.0222246
0.0225884
0.0219151
2.89495
0.0369358
8.02763
0.021775
0.0388224
0.0227899
0.0222759
0.022893
0.0457855
0.0211569
0.0941896
2.86094
0.0506185
3.59372
0.0788607
0.0224205
0.0314722
0.299302
0.132056
0.0218645
0.020955
0.0204803
2.97785
0.0201948
0.0738252
0.0348884
0.0857439
0.153747
0.149018
0.0676701
2.86053
0.0217928
0.0204959
0.363902
3.28309
0.0216462
0.0217912
0.130195
0.021005
1.67716
0.0231336
0.0207509
0.0284279
0.0217199
0.0800738
2.87184
3.22238
0.0269108
0.0213176
0.0905541
0.0237424
0.0897649
0.0209362
0.158898
0.0909623
0.0225891
0.0221566
0.020585
0.134171
0.042226
1.28774
2.67819
0.0348929
3.05686
0.0757078
0.11124
2.97237
0.0213885
2.87998
0.0233729
2.92934
3.04059
2.97698
2.89709
0.0227478
0.063981
0.363236
0.0217353
4.07651
0.0218408
0.0217395
0.0280816
0.0228229
0.0338608
3.22799
3.25825
3
0.0287773
0.049121
0.0237984
0.0222073
0.0219384
0.113848
0.0892132
2.56275
0.0545631
0.0215214
0.020728
0.022744
2.56993
0.0262491
0.0231824
0.0278537
0.0962175
0.034895
0.0500969
0.0398323
2.74994
0.0344358
0.036408
0.021537
0.0281164
2.25341
0.363062
0.0562729
0.0207145
2.63872
0.0380882
0.0212675
0.0561318
2.70927
0.383846
0.0399664
0.021014
2.76621
0.0226894
0.0209754
0.0216779
2.38004
2.88854
0.0224086
2.62375
2.87682
0.0252325
0.0399101
0.0702247
2.77602
0.0363336
2.78487
0.0227485
0.0888093
0.0239343
2.91388
0.0381372
0.0208588
2.65586
0.0218056
0.0234116
2.0849
3.3095
0.0655221
2.38315
0.0259179
0.0237981
2.99437
0.0212771
0.0212325
0.0217549
0.0532356
0.0215115
0.0355638
0.0253196
0.374589
3.15627
0.0229325
4.01361
0.0251773
2.72925
3.45129
0.0217392
0.0221486
0.0274914
0.138256
0.690205
0.0750682
2.74735
2.7889
0.13844
0.0229699
3.30603
3.85994
0.0401408
3.00037
0.0220591
0.0215749
0.0217511
0.023557
0.0213394
0.0367113
3.22362
0.0342281
0.0334523
3.7202
3.39885
2.65675
2.67543
0.0305034
2.80966
0.120432
0.0758789
0.0206493
0.0218175
0.0717104
4.07876
0.0231735
2.68165
2.64677
0.0209589
0.02187
0.021795
0.0991472
0.0228576
0.0811904
2.87843
0.0206371
0.0214309
0.0209342
0.0231894
0.100912
2.95707
0.0436223
3.20753
0.131709
0.0212457
0.035077
0.133722
0.023216
3.04839
3.10344
2.53224
2.39876
3.53869
0.021637
3.11675
2.89428
0.29003
3.07832
0.0209591
0.0248853
0.0259488
0.0245658
3.00183
0.0749971
0.0221122
0.0311175
0.194078
2.96791
0.0227899
0.0241537
2.67491
2.67772
0.0220575
0.0323991
0.122127
0.021374
0.021464
2.44493
0.0212116
2.98047
0.035684
3.01347
0.0211327
0.0855639
0.146534
0.0212191
0.0208738
2.43771
2.44706
0.0223243
0.0376945
1.05563
1.96761
2.72921
2.6071
0.0288456
0.0410544
0.179829
0.0415799
0.0211461
0.0776518
0.0204761
0.021206
3.44684
0.0462941
0.1046
0.0263414
0.0257147
0.0209386
0.020611
0.0228631
0.0232524
2.63729
0.0259103
2.60099
6.22168
0.053807
0.0770419
2.58749
2.91378
2.61308
0.0229166
0.0269602
0.0421537
0.028481
1.30713
0.238193
0.0227877
2.64847
3.15725
0.0302284
0.0951253
0.0814917
0.104914
0.115523
0.0238817
0.132643
0.158321
0.135743
0.315255
0.119256
0.0895468
0.0269305
0.0211328
0.0376713
0.0948389
0.0211773
2.56845
2.80065
1.47763
2.65464
0.0207666
0.0207255
0.023072
2.89798
0.0230932
0.0258021
0.062947
2.80512
0.406557
0.0218237
0.0357754
0.0277967
1.89914
0.207349
0.0254982
2.818
2.94217
0.107482
2.73861
0.105512
0.375347
2.77618
0.0197005
2.90873
2.86951
0.023665
0.0815837
0.110569
0.0274423
0.0208624
0.137524
1.10285
0.0211567
0.021186
2.50983
3.10885
0.0906777
0.0222727
2.90608
0.120851
2.64436
3.66596
0.0218165
0.0214244
0.0230201
0.0225093
2.81896
0.147343
2.6957
0.0876708
3.01242
0.532411
0.0223677
0.0210854
2.99892
0.0209196
2.81384
0.0208058
2.71745
0.023539
0.0233844
0.0728372
0.0215619
0.12037
0.491935
0.0251
0.025122
0.0237834
0.554316
3.427
0.205076
2.67047
0.0232267
0.0220468
0.0308466
0.0881811
2.90286
2.9374
0.109139
2.69454
0.145247
2.95834
0.0220083
0.0209199
0.0206526
0.020651
2.80142
0.0703379
0.322206
0.0504796
0.158885
0.0212495
0.199044
0.140263
1.94141
0.021517
0.0240773
0.0202282
2.77992
0.0288924
0.0815377
2.76646
0.14345
2.96629
0.0205309
0.0419
0.223824
2.83772
3.08043
0.0217539
0.138791
0.0227299
0.0221348
0.109415
1.2137
2.32349
0.0223736
0.0978491
0.36227
2.66849
5.39601
2.87931
3.01858
0.0210403
0.0699165
0.021854
0.136648
0.0211786
0.129652
0.0243827
0.0567129
0.0585406
0.49305
0.0225909
0.105413
2.8406
0.121612
0.0249133
2.0732
0.109165
0.0220706
0.0225552
3.00626
0.0330432
0.12041
2.96953
0.360214
4.36769
0.0224044
2.82955
2.86039
0.600799
0.144878
0.0363372
0.1148
0.105778
2.90881
0.0656836
0.0228791
3.02144
0.0486482
2.55128
0.0319119
3.12612
2.21728
3.12293
0.0280132
0.153963
0.0264544
3.19592
0.306581
2.98644
7.40196
0.0209822
0.0202358
3.06213
2.91147
0.0332091
0.0227536
0.051949
0.0331816
2.90406
0.073573
2.89749
0.02934
2.95955
0.119296
0.68568
0.0228089
2.45454
2.90171
0.0228603
0.0853238
0.0206656
0.0262583
0.021902
0.0532809
0.0213332
0.0218201
2.77922
3.11581
0.0206313
2.89737
0.0232726
0.0218183
0.0213991
0.0208976
0.0221268
3.07816
2.70468
0.0206579
0.219486
0.0717075
0.0509648
2.91765
0.0895753
0.0286028
0.0346158
0.0213152
0.0507806
0.0348099
2.90719
0.0248632
3.0586
2.97431
0.0809832
3.32172
3.03442
0.0207889
3.85179
0.0651218
0.0719513
0.0372274
0.0213341
0.0337637
0.643469
0.0218173
0.0473603
0.0214431
2.97668
0.136853
2.52375
0.483537
0.385479
2.78062
0.0219612
0.0211751
0.0664063
0.0243582
0.0221393
0.0221844
0.0312918
0.0212064
0.0212466
0.0238764
0.0524155
0.0248641
0.0313902
0.0230435
0.0382427
0.101462
0.0254464
2.9861
0.0250203
0.021343
0.0981142
0.0452852
0.0228052
0.0211838
0.183354
0.0244244
3.13813
0.0247534
0.131303
0.0213647
0.0216512
0.103187
2.76454
0.0751472
0.0425578
0.0204732
2.6441
0.0219375
0.0212139
0.0815664
0.0255824
0.214015
2.81604
0.106688
0.137252
0.0515274
4.45389
0.0218362
0.0219941
0.0754694
0.0423509
0.0633637
0.118315
2.79302
0.0319025
0.0218894
0.0312306
2.85473
0.0586449
0.0218464
0.107775
0.0990688
0.0738573
0.0220882
0.0218421
1.93313
0.0737816
3.28178
0.508573
0.0251945
0.0771544
0.0220631
0.0476204
2.5903
0.0222094
0.951928
0.0269866
0.0950778
0.955776
0.0217478
0.0216406
0.0212779
2.81093
2.5172
0.0252847
0.103283
0.119587
0.0220275
0.0217098
0.331695
2.87127
2.13154
2.93166
0.154202
0.0332495
3.02261
0.138621
0.0333952
0.0561685
0.0912794
0.0557616
0.0217889
0.0989985
0.160213
0.0234174
0.157052
0.0490068
0.0859467
0.031253
0.127929
0.0212177
4.04428
0.0260111
0.0208162
0.0209973
0.0207284
0.0239232
0.0235232
0.0208688
0.0254845
0.0220531
0.0233135
0.0630649
0.08298
0.0229245
0.0737739
0.0271651
0.0248445
0.0205878
0.0510465
0.0264386
3.09497
0.0217746
0.0217556
0.0817936
1.84844
0.0219513
0.021847
0.133568
0.0246777
0.10855
0.0700377
0.0218316
2.31085
0.0250275
0.0232981
0.088536
2.86655
0.0217939
0.0684341
0.0211868
0.0277574
0.0213952
0.0313596
0.0212987
0.0217775
0.0356873
0.0699924
5.09233
0.0606608
0.0217534
0.0335298
2.84113
0.060605
0.595334
0.108101
0.0218581
0.0651165
0.0806873
1.98922
0.576187
0.0293057
3.1876
0.164402
0.0341622
0.0220719
0.0892517
0.0231776
0.0585498
2.64535
0.0219739
0.0412544
0.0223897
2.71358
0.0531428
0.0233722
0.0702586
2.76559
0.401317
0.0254728
0.0815214
0.0348571
0.0206152
2.42236
0.0205363
0.0412344
0.021174
0.027359
2.69811
0.0766829
0.021234
0.0333116
2.72791
0.0219215
0.0225985
0.0328044
0.0279032
0.0216831
0.0253825
0.0265933
0.0228355
0.0212017
0.0664174
0.108787
1.2538
0.0210772
0.0625913
2.9699
4.37823
0.0228707
0.022032
0.0266712
0.0982353
0.0231084
0.0211763
0.0213723
0.0208863
0.0287014
0.030923
0.0249754
0.0704388
0.0250487
0.0206013
0.0250507
0.0677645
0.056844
0.111187
0.0230162
0.0336469
3.18049
0.0341921
0.0261351
4.28415
3.00817
0.101661
0.0755775
0.295073
0.0215759
0.164177
0.0303897
3.33405
0.0214742
0.0212553
3.29023
0.0208244
0.0312146
2.62303
0.0226223
6.10015
0.0359564
0.0349152
0.0308437
0.0877463
0.0333049
0.0296546
0.154075
0.0209027
0.0255752
3.72359
0.0238818
0.0217808
0.0363127
3.06448
0.0231075
0.0231131
2.66438
0.0225228
0.0308284
0.0596556
0.0204293
5.78117
0.0258886
0.0234192
0.120484
0.0595762
2.87935
0.0246095
2.3444
0.0395078
0.104311
2.53671
0.021946
0.0381063
0.0909732
0.0229603
2.44265
0.0232096
0.0241262
2.94452
0.022475
0.0451595
0.103406
0.0738502
0.0334953
0.0302274
0.0231677
0.0251206
0.0904872
0.0270216
0.0335941
0.0768572
0.0556163
0.0219486
3.21937
0.0441273
0.0205991
0.0242635
0.0212642
0.0208923
0.0204361
0.0219963
0.0218725
0.0358245
0.0255004
0.0463711
0.0204816
0.020484
0.0251511
0.0881247
0.0207366
0.0328432
0.0664663
0.0334998
0.0355855
0.0217118
0.0241503
0.0265503
0.0463277
0.0323979
0.0260574
2.64221
0.0222453
2.4095
0.0264861
0.090749
0.100358
0.0219335
0.0624096
0.0352613
3.0312
2.65446
0.0272979
0.0222477
0.0246946
0.0319797
0.0535433
0.0231947
0.302207
0.0637922
0.0250004
0.0638637
0.0529278
0.0667726
0.0324095
1.63683
0.0825557
0.0303701
0.42319
0.0223997
0.156471
0.0234711
0.0213857
0.0850444
0.0951158
0.0214482
0.0626105
0.0214941
0.0219621
0.0217594
0.022674
0.0218065
0.0214642
0.0215281
0.0230276
0.682679
0.0229012
0.0214024
0.0231824
0.0237585
0.889136
2.66366
0.0635247
0.02648
3.05993
0.0216413
0.0214209
0.0427894
0.0376776
0.0224116
0.0231742
0.0221449
1.02943
0.0223323
0.0274405
0.023298
0.041307
3.80367
0.0215091
0.0641786
0.0752057
0.0269738
0.0544221
0.0228386
0.0220767
0.0735429
1.19226
0.0242982
0.044023
2.38935
0.104633
0.0211555
2.57604
0.0239559
0.0198373
0.0605684
2.88192
0.0217356
0.0207037
0.0240732
0.0309512
0.0401238
0.0214998
0.023529
0.0492468
0.0220599
0.0335271
0.0281577
0.74213
0.0218961
2.94733
3.01836
0.0357399
0.0215806
0.0925715
0.0210376
0.0252719
0.021998
0.0586625
0.0206279
0.0205403
0.0507753
0.063739
3.1421
0.0226044
0.0207651
0.024472
0.0209239
2.74665
0.0246324
0.024188
0.0229436
0.0745909
0.0537203
0.0250102
0.0244203
0.0499874
0.0221662
0.0214646
0.0247701
0.0229093
0.136158
0.0213037
0.0327873
0.0224607
0.0217274
0.0595728
0.104856
2.91697
0.0217743
0.0606859
0.298597
2.69646
2.71615
0.031887
0.0218944
0.0270855
0.0358087
2.6088
0.0225224
0.027884
0.0311588
0.0335247
0.0205115
0.0589836
0.0550381
1.31231
0.0228571
0.0220267
0.106456
1.24831
0.0203989
0.026789
0.0380237
0.0204895
0.0236391
0.0511676
0.0221728
0.0216733
0.0221001
0.0264508
0.0880087
0.0446391
0.0236427
0.022686
0.0230487
0.122659
0.0201508
0.0208577
0.0293165
0.0977749
0.0283761
4.58938
0.0270401
0.0217735
0.0217197
0.0246815
0.02124
0.0395141
0.0437126
0.0209591
0.0210542
0.0226974
0.0213736
0.0227394
0.0562431
2.58736
0.0220961
0.116763
0.0224467
0.0214195
2.97838
0.0254366
2.91468
0.0222068
0.0222788
0.0207138
0.0217047
0.0237537
0.0332582
0.0340502
0.139803
0.0315877
0.0621201
0.0223529
0.0358618
0.0214947
0.0252481
0.035875
2.58875
2.76334
0.0224702
3.22939
0.10697
0.0494383
0.151649
0.0202835
0.0214819
0.0221541
0.0244046
2.64815
0.0209066
0.0726279
2.93327
0.0234171
0.0957054
0.0204281
0.0368319
0.2142
1.35262
0.0224381
0.0322433
0.123691
2.98973
0.0298981
2.65859
0.0237077
0.134122
0.126685
0.0205354
0.0446719
0.0380177
0.0249492
0.373403
0.0331912
0.0211066
0.0272463
0.172245
0.0222978
0.0577919
0.0217319
0.020118
0.0233484
0.0365603
0.0217551
0.0948379
0.0296723
0.0239969
0.0203334
0.0218719
0.495767
0.0951361
0.129231
0.0400024
0.0275363
0.0315829
0.0281636
0.0217126
0.0240503
0.0401981
0.0248505
0.025998
0.0204739
0.0289713
2.78531
0.0224705
3.31164
0.144939
0.0217754
0.0221087
0.0205424
0.033866
0.0442689
0.0203608
0.0278859
0.0241599
0.0225807
0.0212564
0.0228556
0.0213069
0.0220495
0.0398572
0.0221303
0.0260463
0.0215173
0.454414
0.0457612
0.0217389
0.0338126
0.0220957
0.0257841
0.0309251
0.197562
0.0344818
0.0210497
0.0215667
0.0359279
0.0525067
0.170384
0.0234733
0.0606187
0.124054
0.0225651
0.0218402
0.114796
0.063831
0.036361
0.02197
0.0271021
0.0239489
0.0250788
0.020921
2.41519
0.0257083
0.0258136
0.0206158
0.033301
0.0204714
2.74388
0.0217128
0.0395152