/*--------------------------------*- C++ -*----------------------------------*\
| =========                 |                                                 |
| \\      /  F ield         | OpenFOAM: The Open Source CFD Toolbox           |
|  \\    /   O peration     | Version:  v2012                                 |
|   \\  /    A nd           | Website:  www.openfoam.com                      |
|    \\/     M anipulation  |                                                 |
\*---------------------------------------------------------------------------*/
FoamFile
{
    version     2.0;
    format      ascii;
    class       volVectorField;
    location    "200";
    object      ddtCorrDdt0(U);
}
// * * * * * * * * * * * * * * * * * * * * * * * * * * * * * * * * * * * * * //

dimensions      [0 1 -2 0 0 0 0];


internalField   nonuniform List<vector> 
13851
(
(0.00263943 -0.000549192 -6.41831e-19)
(-0.0679526 -0.0464917 -6.82664e-19)
(0.0106454 0.00394219 -1.67794e-18)
(0.00268299 -0.000598655 -1.86334e-19)
(0.0138162 0.00648401 -5.18861e-18)
(0.0122425 0.00252047 -9.84699e-21)
(0.000745655 0.00130147 -2.59777e-18)
(0.00968088 0.00376736 -5.14866e-18)
(-0.00209606 -0.0011079 1.96734e-20)
(0.0166879 0.00399964 2.42332e-18)
(-0.0254933 0.0149125 3.56291e-19)
(-0.0608601 0.113403 -1.74603e-18)
(-0.0508909 0.0209012 5.60818e-18)
(-0.0421689 -0.0842509 -2.0074e-18)
(0.000656025 0.000147726 -3.2323e-18)
(0.00731295 -2.6039e-05 1.30177e-18)
(0.00454377 0.00241088 -1.45894e-18)
(0.0034207 -0.000458193 5.23714e-20)
(-0.00627644 0.00646821 2.63837e-18)
(-0.00198445 -0.00111182 -3.14324e-20)
(0.00265466 -0.000615883 -3.11827e-19)
(0.0107573 0.00377613 -3.00211e-18)
(0.000261265 7.56979e-05 3.93614e-20)
(-0.00120927 -6.02211e-05 7.91299e-20)
(0.000189353 4.13221e-05 -6.2748e-20)
(0.00981225 0.00359836 -2.16292e-18)
(0.00298052 0.00400843 2.42628e-18)
(-0.00335682 0.00669361 -1.46901e-17)
(0.00262094 -0.000567146 6.3233e-19)
(0.00341344 -7.94871e-05 3.65704e-19)
(0.0146649 0.000602808 1.03482e-20)
(0.00473906 0.00249228 5.38243e-18)
(0.0107218 0.00397137 2.51829e-18)
(-0.0259567 0.105666 -3.00224e-19)
(-0.00128554 -8.96643e-05 -8.30467e-20)
(0.0104823 0.0300238 2.13824e-17)
(-0.0314698 0.03081 -8.95418e-18)
(0.0140852 -0.00459974 -9.39298e-19)
(0.0173608 0.00504091 -1.7098e-19)
(-0.0237244 0.0740332 1.67088e-19)
(0.00179148 -0.000478976 7.556e-19)
(0.00151648 0.00035646 1.54448e-20)
(0.00810873 0.00995547 7.27042e-18)
(-0.0296859 0.00733179 1.80016e-18)
(-0.0181818 0.0263096 -8.85885e-19)
(0.00834474 0.0158231 -3.88613e-18)
(-0.00765248 0.0121568 -5.22424e-19)
(-0.00916477 0.00843303 8.48943e-20)
(0.00305851 0.00414102 -6.76793e-18)
(-0.00918472 -0.0457654 -6.41295e-19)
(0.0117929 0.0133643 -1.31764e-18)
(0.0197465 0.01358 9.72253e-18)
(-0.00197952 0.0242937 -5.35977e-18)
(0.000721259 9.21448e-05 -2.84765e-18)
(0.00104334 -5.29276e-05 -5.70476e-19)
(0.00156766 0.000358165 -4.86433e-21)
(-0.00160053 9.2486e-05 8.3559e-21)
(-0.00845144 0.0243287 -9.67612e-18)
(0.00333215 -5.27367e-05 6.65516e-19)
(0.00111695 0.00140424 2.95836e-18)
(0.0124234 -0.0049702 -5.45811e-19)
(-0.0506126 -0.015418 -3.78854e-18)
(0.00736093 -0.00321229 -1.59799e-18)
(0.0158628 0.00696212 1.51375e-17)
(-0.025356 -0.00646089 -4.82637e-20)
(0.00270547 -0.000339169 1.41196e-19)
(-0.0326695 0.0295632 -6.55146e-18)
(-0.00170979 -0.00429953 2.4739e-18)
(0.00577004 0.00734075 -1.43548e-19)
(0.00342851 -0.000516174 3.00645e-19)
(0.0134809 0.00127821 1.13261e-17)
(-0.0291857 0.0257974 3.13654e-19)
(-0.0479612 -0.0729782 3.10161e-18)
(0.000689461 9.21663e-05 2.38896e-18)
(0.000946308 -0.000118078 2.28857e-19)
(-0.00266793 -0.00175687 3.59041e-20)
(0.0108898 0.00386816 -2.63728e-18)
(-0.0248772 0.00355578 -1.4855e-18)
(0.00949704 0.00678461 3.7294e-19)
(0.0187549 0.00114436 1.12041e-17)
(0.00168788 0.00172861 8.38542e-18)
(-0.00575241 0.00638107 5.58412e-20)
(0.00125404 0.000509727 2.10991e-18)
(0.00418435 0.0233956 -2.7614e-18)
(0.00821259 -0.00224431 1.49515e-18)
(-0.0340483 0.0914995 2.30276e-18)
(0.00878014 -0.000640741 -5.1929e-20)
(0.0124268 -0.0697605 2.47334e-19)
(0.00434193 0.00364595 -5.40419e-18)
(-0.00299626 0.00500465 -1.67687e-20)
(0.0130112 0.029725 -1.9935e-17)
(0.00377531 -0.00343416 -4.05279e-20)
(-0.00494298 -0.0164044 -2.59962e-19)
(0.00512867 0.00451933 1.60147e-17)
(0.00413604 0.00369387 8.34497e-18)
(-0.00152125 2.87829e-05 8.18261e-21)
(0.0143971 0.00684418 2.73755e-18)
(-0.0408467 0.0188839 -4.93988e-19)
(-0.0137861 -0.0529003 2.85086e-19)
(-0.00134059 1.37322e-05 -1.59926e-20)
(-0.0100553 -0.00289324 -5.38159e-18)
(0.00935683 0.00906612 -9.54939e-18)
(0.00251862 -0.000361636 8.85797e-19)
(0.00124866 0.00445319 9.94638e-18)
(0.000877877 1.02863e-06 8.54165e-22)
(0.00822688 -0.00352405 7.30009e-20)
(0.00992727 0.0104069 -2.25534e-18)
(0.00147722 0.000180586 7.68516e-21)
(-0.0232639 0.0216267 -1.13351e-17)
(0.0118861 0.00483375 -1.1364e-20)
(-0.00132793 -2.47047e-05 -2.83039e-20)
(-0.00356276 0.00527478 -1.01968e-19)
(0.00379294 -0.0035066 -5.02973e-20)
(-0.000455942 -2.32428e-05 -4.08518e-20)
(-0.00147817 -3.60528e-05 1.72472e-19)
(-0.0844746 0.199505 -5.33796e-18)
(-0.0434582 0.0190666 1.53343e-17)
(0.0012737 0.000206964 4.18374e-20)
(0.000101188 -7.64471e-05 -2.5134e-19)
(0.000956544 -5.62261e-05 -1.5801e-18)
(0.00588623 0.0117664 -5.56597e-18)
(0.00138635 0.00435114 -2.67716e-18)
(-0.0534284 0.0204264 -3.80012e-18)
(-0.0601556 0.00550599 -2.80602e-20)
(-0.00740886 0.0114533 7.24324e-20)
(0.000728597 0.00125802 2.28149e-19)
(-0.00428008 0.0129597 -3.52329e-20)
(0.0094787 0.00780502 -7.34915e-18)
(0.00266423 -0.000683781 6.39011e-19)
(0.0173322 0.00203068 -1.18947e-17)
(0.00175029 -0.000467508 5.89428e-19)
(-0.000494874 -0.00083967 -3.0061e-22)
(0.0128349 0.0020547 -1.02404e-17)
(0.00120855 0.000507298 -3.79888e-18)
(-0.0866396 0.222044 1.68131e-18)
(-0.000388321 -0.000286745 3.36438e-19)
(0.00125322 0.000187647 -2.11189e-20)
(-0.0313393 0.0268521 -3.27372e-17)
(-0.0249172 -0.0642469 -1.07894e-18)
(0.0510358 -0.0294938 2.9869e-20)
(-0.00853951 0.00151184 1.12028e-17)
(0.00102718 -4.81239e-05 -5.8373e-19)
(-0.0060618 -0.00434812 1.17461e-19)
(0.00184509 0.000947566 4.11324e-20)
(0.00362669 0.00136612 -9.41464e-19)
(-0.0328716 -0.00550233 9.39584e-20)
(0.00302259 -0.000291061 -3.7825e-22)
(0.0167909 0.000734079 1.50903e-17)
(0.000755946 0.00124183 1.30119e-18)
(-0.0110796 0.0407691 -1.31765e-18)
(0.00426519 0.0186224 9.76502e-18)
(0.000919464 -7.5472e-05 -4.70077e-19)
(-0.0376894 -0.0831282 -3.30388e-18)
(-0.00157296 9.81425e-05 -1.06579e-20)
(0.00287378 0.00251525 1.95622e-18)
(0.00357109 0.0012724 -2.0186e-18)
(0.000635947 -0.00164847 4.72748e-19)
(0.0032533 0.000268367 -5.95002e-19)
(0.0200502 0.0128318 -3.14918e-18)
(0.0118561 0.012687 1.57364e-17)
(0.00200508 -3.19197e-05 -5.07073e-21)
(0.00402003 0.00570617 -3.9159e-18)
(-0.00799346 0.0237334 4.37993e-18)
(-0.000577894 -0.000819852 -1.01891e-19)
(0.00408864 -0.000714827 4.95617e-19)
(0.00164247 0.000669478 -6.27653e-20)
(0.00304016 -0.000317599 -5.7677e-21)
(0.00569225 0.00767133 -8.44046e-18)
(0.00262885 -0.00070208 2.3121e-19)
(-0.0322625 0.016963 -7.82308e-18)
(-0.0238052 0.00227638 1.64456e-17)
(-0.00198441 -7.29161e-05 -2.20906e-20)
(0.000737009 -0.00160494 4.69212e-20)
(0.040523 -0.0334242 -8.72092e-21)
(-0.00058502 -0.000743723 1.00934e-19)
(-0.00430301 0.00313685 9.23018e-21)
(0.00932227 0.00746693 1.01098e-17)
(-0.00380065 -0.00632015 5.16825e-20)
(-0.0216417 0.0110581 -5.19431e-18)
(0.00158791 0.000182987 -4.31845e-21)
(0.00513958 0.0024035 -1.36156e-18)
(-0.0296683 0.0254205 1.71072e-17)
(0.00111069 0.000495165 8.91672e-20)
(0.0107974 0.00363296 1.68306e-18)
(0.00141173 -1.37423e-05 -1.01088e-20)
(-0.000626585 0.000120014 -1.65112e-20)
(0.00262175 -0.00036602 2.84934e-19)
(0.000983428 -7.14924e-05 2.32426e-18)
(0.0146252 0.00472915 2.16769e-18)
(0.0160738 -0.0107668 5.28773e-19)
(-0.0113877 -0.00398849 -1.62979e-18)
(-0.00231515 0.0242243 -7.98536e-18)
(-0.00415002 0.00669563 -1.48692e-20)
(0.00650632 0.0064824 -6.06787e-19)
(-0.0555251 -0.015233 -1.23427e-19)
(0.00286525 0.00228907 3.88484e-18)
(-0.00548767 -0.00395855 4.04592e-19)
(-0.00147652 -0.107554 -1.28626e-18)
(-0.00407849 -0.00579819 7.31145e-20)
(-0.00263941 -0.00187305 2.23767e-20)
(0.000703315 0.000928821 -1.88414e-19)
(-0.0127726 0.00478654 -3.31325e-18)
(0.00040421 -3.04097e-05 6.21421e-19)
(0.0014687 0.000143461 7.70518e-20)
(0.0149731 -0.00411352 -3.01184e-20)
(0.00113348 0.000531017 3.2328e-20)
(-0.110271 -0.0196102 -5.51049e-19)
(0.00450775 0.00285499 9.15737e-18)
(-0.00683718 0.00727314 7.38061e-18)
(0.00177353 6.88742e-05 2.3491e-21)
(-0.0260036 0.0195673 -7.57324e-18)
(0.00247011 -0.000348076 1.18823e-19)
(-0.0176379 -0.0822834 -7.02124e-20)
(0.00154373 9.58326e-05 1.42579e-21)
(0.00183626 0.000771744 -7.41841e-20)
(-0.0146434 0.0207355 -3.27587e-19)
(0.00728879 -4.55882e-05 -2.61727e-19)
(0.0163342 0.0172347 -1.8103e-17)
(0.000782297 0.000271533 2.87959e-18)
(-0.00860475 0.0081922 -3.34658e-18)
(0.0046758 0.00282841 -9.03643e-18)
(0.00172158 0.00181445 -9.0358e-19)
(-0.0460381 0.0218267 8.45585e-19)
(0.0202025 0.00757651 8.40343e-19)
(-0.00937878 0.015011 8.94359e-18)
(-0.000279378 6.33458e-05 -2.57838e-20)
(0.00584328 0.00491411 -5.05774e-18)
(0.000709825 -1.92439e-06 -1.65818e-22)
(-0.00104553 0.02619 5.19494e-18)
(0.00158045 8.10482e-05 1.37879e-21)
(0.00969021 0.00330905 3.73375e-18)
(-0.00206973 0.0290584 2.43797e-19)
(-0.00194867 -5.35976e-05 -3.97837e-21)
(-0.00339158 0.00638392 -4.10972e-20)
(0.0098657 0.01356 -6.79523e-19)
(0.00200642 0.0007613 -7.96463e-20)
(-0.113546 -0.0168012 2.62139e-18)
(-0.0294367 -0.00979574 8.28684e-19)
(0.0018841 0.000893293 1.00223e-19)
(0.00147913 0.000176337 -1.38658e-18)
(0.0137527 -0.00152079 8.75363e-21)
(-0.0258071 0.0113003 -8.61343e-19)
(0.00246665 -7.08507e-05 -5.38164e-21)
(0.0163479 -0.00429733 6.60045e-19)
(0.00108473 6.34405e-06 3.94614e-21)
(-0.00805323 0.0129763 2.07689e-17)
(0.00977202 0.00883198 6.88325e-18)
(-0.0398956 0.014588 -9.24973e-20)
(0.0036337 0.00107604 4.42398e-18)
(0.00500028 0.00109659 -2.51648e-18)
(0.00385068 -0.00796494 1.18829e-19)
(-0.0182238 0.0288619 1.32063e-18)
(0.00236304 0.00113029 -5.88956e-18)
(0.00368616 0.00116151 2.12442e-18)
(0.00749613 0.0119496 9.60738e-18)
(-0.0117363 -0.0224265 5.99694e-19)
(0.0139418 -0.0109994 -6.98819e-19)
(-0.0320208 0.0265018 2.05525e-17)
(-0.0498413 0.00621293 1.76801e-17)
(0.000665651 0.000551816 9.44285e-20)
(0.00181333 0.000824442 -6.14914e-20)
(0.00331886 -0.000609878 -4.01893e-20)
(0.0654866 -0.0163257 3.67661e-19)
(0.00154115 0.00134841 -2.13843e-20)
(-0.0387437 0.00847988 -3.00628e-18)
(0.00291134 0.00220672 -9.27415e-18)
(0.00229069 0.00114689 4.03403e-18)
(0.00492303 0.00444405 -1.43783e-18)
(-0.0495743 0.0228992 2.39683e-18)
(0.00121601 0.0474876 1.20754e-18)
(0.00362132 -0.00876011 -2.22646e-19)
(0.00296182 0.00242309 5.12144e-19)
(0.0301773 0.00647542 7.76903e-20)
(0.0090971 0.00672214 1.41871e-17)
(0.00699632 -0.000188357 1.13908e-18)
(-0.000481289 -0.000913769 -4.6993e-19)
(-0.00249758 0.0163528 -7.90162e-20)
(-0.000714574 0.0108328 -6.19658e-20)
(-0.00140841 0.0135642 -2.05408e-18)
(-0.0212617 0.0218731 -1.27559e-18)
(0.00248636 -0.000116917 7.28399e-21)
(0.00171122 1.21777e-05 -5.80346e-21)
(0.000917235 -4.60412e-06 2.72032e-20)
(0.00711371 0.0116853 -7.19432e-18)
(0.0629655 -0.034439 6.73544e-20)
(0.0174816 -0.00846245 -2.95741e-21)
(-0.00219767 -0.00155972 6.69747e-21)
(0.000467955 0.000286146 2.07526e-18)
(0.0301894 0.000690141 -1.06023e-19)
(4.9662e-06 0.0132408 1.03438e-20)
(0.0158904 -0.000244746 1.76727e-17)
(0.00332473 2.3578e-05 -4.61705e-19)
(0.00118986 0.00143151 -2.70746e-18)
(0.00674658 0.00737121 1.04714e-18)
(-0.00289132 0.00784204 -5.04815e-20)
(-0.033905 0.00941597 6.3558e-18)
(0.00437713 -0.000472684 -1.88477e-18)
(-0.0161018 0.07185 -3.58424e-19)
(-0.000403419 -0.00101571 -2.24851e-19)
(-0.0103983 0.0140264 -1.3723e-17)
(0.00386358 0.00563348 6.38591e-18)
(0.0045372 0.00221713 -3.81754e-19)
(-0.00489823 0.0147609 4.74412e-18)
(0.00222045 1.19358e-05 -1.43682e-18)
(0.00899038 -0.00279949 4.25931e-21)
(-0.0311368 0.017378 5.9029e-18)
(-0.00211086 -0.00147607 -2.07723e-20)
(0.00667602 0.0100657 -1.85095e-18)
(0.00532154 0.00437006 -8.32154e-19)
(0.00323071 4.43796e-05 2.4177e-18)
(-0.0265152 -0.0596401 -3.82811e-20)
(0.00439977 -0.000584017 2.30035e-18)
(0.00234697 0.000958031 3.2547e-18)
(-0.0456939 0.021098 1.74249e-18)
(0.00153988 0.000443043 2.13091e-20)
(0.00517183 0.00113697 1.76938e-18)
(0.000361241 0.000129925 -4.46197e-20)
(-0.00509036 0.0147712 -1.80412e-18)
(0.00811614 0.0248298 -1.50847e-19)
(0.000791341 0.000306085 7.62768e-19)
(0.00901815 0.0103533 -2.84803e-18)
(0.000659623 0.000312156 2.35927e-18)
(-0.0435837 0.00953278 -1.3057e-17)
(0.00518844 -0.00749129 -3.35563e-19)
(3.37949e-05 0.000102227 9.41139e-21)
(0.0010123 -0.00227722 -2.26083e-19)
(0.0090381 0.0240346 2.17663e-17)
(0.00559956 0.0048034 -8.72033e-18)
(0.00268642 0.00262242 3.17561e-18)
(0.000440302 0.000262164 -2.62291e-18)
(0.00218331 3.92294e-05 -8.02206e-19)
(0.00232427 0.000906821 1.74504e-18)
(-0.0258732 0.0178078 4.3708e-19)
(-0.0405672 -0.0499246 6.70128e-18)
(-0.032974 0.0100242 6.95717e-19)
(0.00367049 -0.00119868 -5.35538e-20)
(-0.00790821 0.0162337 1.04613e-17)
(-0.0700083 -0.00598474 -1.62639e-18)
(0.000686718 0.00014104 6.01728e-19)
(0.00681833 0.00637164 1.71112e-18)
(0.0149497 -0.000765736 -1.43837e-17)
(0.00348493 -0.00348925 7.73794e-20)
(0.00116839 0.00383703 -1.52886e-19)
(0.018628 0.0149854 1.87846e-17)
(-0.01434 0.00658422 2.46814e-18)
(0.00319777 -0.00442939 7.33265e-20)
(0.0600144 -0.0695077 -1.02137e-19)
(-0.0227706 0.0161497 1.89863e-17)
(0.000621651 0.000123782 2.17769e-18)
(-0.00277523 -0.0157627 -1.8166e-19)
(-0.00537577 -0.0140925 2.85856e-19)
(0.0042818 0.00681622 3.46853e-19)
(0.00258331 0.00267435 -2.30639e-18)
(0.000613792 0.00477515 2.56562e-19)
(-0.00166828 0.0263921 2.63306e-18)
(0.000813896 -0.00165753 -3.05618e-19)
(0.0518485 -0.0929081 3.61223e-20)
(0.000938549 -0.00234811 5.22896e-19)
(0.000634996 0.000295195 -2.93681e-18)
(0.00118816 6.5639e-06 -5.20297e-21)
(0.00151169 0.00017217 -7.97782e-21)
(0.000540057 -0.0014115 -8.43059e-19)
(-0.0250986 0.0176137 -1.67477e-18)
(0.00287468 -0.0109838 -6.48447e-19)
(0.00169544 0.000302014 2.13962e-18)
(0.00637507 0.00975011 2.45774e-18)
(0.00168873 0.00050858 -7.84529e-21)
(-0.019075 0.0709732 3.98602e-19)
(0.00774092 -0.00215582 -1.24116e-18)
(0.0314561 -0.0470007 -1.12191e-18)
(-0.0325292 0.0149761 1.39139e-18)
(0.00173403 0.000278977 -2.6834e-18)
(0.00807942 0.000292458 6.21416e-19)
(0.00555241 0.00395876 1.00693e-17)
(0.0258404 -0.0346915 9.54876e-19)
(0.00163122 -0.000546977 1.21255e-18)
(0.00126811 0.000230289 -4.06424e-20)
(0.0043311 -0.00493541 -3.72646e-19)
(-0.0148931 0.0062734 -9.77386e-18)
(0.00095095 -0.000100547 -1.57571e-19)
(-0.0367109 -0.0591553 -1.54172e-19)
(0.00356704 -0.00335103 -2.42114e-20)
(0.0194722 0.0155394 4.70411e-18)
(-0.0318681 0.0178642 -1.71921e-17)
(-0.0157377 -0.0176541 -1.26046e-19)
(-0.0132633 -0.0212722 2.66507e-19)
(-0.000191223 -0.0106328 4.98855e-20)
(-4.34793e-05 -0.000792379 1.53891e-19)
(0.000580304 6.17221e-05 -5.6238e-18)
(0.00345536 -0.00112169 2.80015e-20)
(0.00866279 0.0106507 5.83985e-18)
(-0.0447709 -0.0816068 9.9292e-18)
(0.00529342 0.00810357 -4.24476e-18)
(-0.0127752 0.0162891 4.6773e-18)
(-0.0287059 0.017318 1.08179e-17)
(0.00166399 0.000537738 -1.86151e-21)
(0.000661044 0.000588144 5.66421e-18)
(-0.0315706 0.0123565 2.64974e-18)
(0.0147414 0.00192414 4.92609e-18)
(0.00393463 0.0264506 -4.87406e-19)
(-0.0453002 0.0199743 -2.31513e-17)
(0.00463562 -0.00492372 8.31757e-20)
(0.00577244 0.00409084 8.93068e-20)
(-0.00113967 5.41682e-05 -2.34262e-20)
(-0.064186 -0.00475407 7.53913e-18)
(-0.00217799 -0.000461266 1.87265e-20)
(0.00730474 0.000301501 -2.38797e-18)
(-0.000753683 -0.0100807 -4.26986e-19)
(0.000961838 0.00111327 2.04311e-18)
(0.00077828 -6.78718e-06 -2.19888e-20)
(-0.00216854 -0.00136926 -6.35398e-21)
(0.00166503 0.000631628 5.73133e-20)
(0.0157205 0.00770696 -4.89678e-18)
(-0.000326582 0.000378326 -1.85082e-19)
(-0.0416815 0.0150375 -9.49514e-19)
(0.00348407 -0.000679445 -2.84579e-20)
(0.00950741 0.0106617 -1.29802e-18)
(0.00386553 0.00175852 -2.26107e-20)
(-0.0133296 0.0587113 -2.06501e-18)
(0.00530822 0.000719453 2.07783e-18)
(0.00261827 0.0105788 3.82421e-19)
(0.00436427 0.00213408 5.19664e-18)
(-0.0105629 0.024438 1.00845e-18)
(0.00127217 0.000167423 -8.71926e-21)
(-0.00210103 -0.00128695 8.18526e-21)
(-0.000624875 7.58244e-05 8.25894e-21)
(0.0149548 -0.00868015 -2.71246e-19)
(0.0392859 0.0401901 -1.12255e-19)
(0.0197024 0.00591089 6.03432e-18)
(0.00339403 0.00150798 7.02344e-21)
(-0.0456505 0.0136977 4.48258e-18)
(-0.0174431 0.122683 2.6853e-19)
(0.00836312 -0.00159639 6.77937e-23)
(0.00092411 -5.2997e-05 -2.6437e-19)
(0.00957011 0.0141205 4.94914e-18)
(0.00158553 -0.000535953 -1.0455e-20)
(-0.00444098 0.0765829 3.44893e-19)
(0.00089014 1.17119e-05 -6.4122e-22)
(-0.00517887 0.0294935 3.44961e-19)
(0.0210847 0.10699 4.08835e-19)
(0.0110388 0.00397585 4.79044e-18)
(-0.0112561 0.00648449 3.76491e-19)
(-0.00491145 -0.005861 -2.58509e-19)
(0.00577233 0.0109258 -3.16033e-19)
(0.0247445 0.0986003 -3.31988e-19)
(-0.0271491 0.00847422 1.87061e-18)
(0.0014284 -5.84529e-06 1.46734e-21)
(0.00628087 0.0043165 5.36329e-18)
(0.00961669 0.00712754 3.87483e-19)
(0.00522128 0.0516138 -1.72525e-18)
(-0.00201411 -0.000333221 1.61642e-20)
(0.00237588 0.000812544 -2.4912e-19)
(0.00411031 0.0178505 -2.94814e-17)
(0.0204615 0.0135349 -4.17568e-18)
(0.00395387 -0.000512897 8.62148e-20)
(-0.0479167 0.107293 6.78512e-19)
(-0.000348257 9.37207e-05 2.69041e-20)
(0.00115418 -0.00234879 1.61427e-19)
(0.0112523 0.0168992 -3.82882e-18)
(0.00396484 -0.000856564 4.5933e-19)
(0.00167086 7.7657e-06 1.44024e-21)
(0.0122169 -0.0841102 -6.51989e-18)
(-0.000102373 -0.000777887 1.07894e-19)
(0.00267229 -0.000550894 6.97559e-20)
(-0.00191842 -0.000653359 -4.42622e-21)
(0.00309027 -0.00327182 1.65082e-20)
(0.00302634 0.000232296 4.60347e-19)
(0.0017274 5.72153e-05 -4.62935e-22)
(-0.0051378 -0.00527169 -1.72729e-20)
(-0.0484878 0.0218159 -1.2119e-18)
(0.00128916 0.00054317 1.36826e-18)
(0.0059318 0.0083511 2.9003e-18)
(-0.000333186 -0.000325256 -5.14377e-19)
(0.00465883 -0.00262582 -6.49292e-21)
(-0.00173375 0.0202821 -1.09727e-18)
(-0.000327935 -1.68853e-05 6.27485e-20)
(0.00169756 -0.000862887 -1.01963e-18)
(-0.000733135 -3.72511e-05 -8.10562e-20)
(-0.000761632 -1.80156e-05 1.2484e-20)
(-0.00195366 0.000266888 1.41405e-19)
(0.00219491 0.00122873 2.21185e-18)
(0.0101892 -0.000188493 2.96622e-20)
(0.00106405 0.000488764 5.49362e-19)
(-0.00121378 8.04671e-05 3.54389e-20)
(-0.00913474 -0.0324883 -4.05474e-18)
(-0.00978262 0.00561387 2.66965e-18)
(0.00113119 0.000602953 1.65423e-18)
(0.00472541 -0.00290349 8.75935e-21)
(0.0054661 0.00087163 3.92892e-18)
(-0.0263587 -0.0282506 -9.94069e-20)
(0.00885758 0.0232396 2.32269e-17)
(0.00123338 -0.00225951 -4.84213e-20)
(0.0128579 7.25284e-05 3.55071e-19)
(0.00166925 -0.000501945 -1.0637e-18)
(0.0128221 0.00479089 8.6986e-18)
(0.00111381 0.0012218 4.38013e-18)
(0.00533538 0.0259219 5.89667e-18)
(0.00129124 0.000102272 -1.44882e-21)
(-0.00100946 0.0247007 9.43114e-19)
(0.0111367 -0.0130198 1.88714e-19)
(0.00150854 0.000383445 3.043e-21)
(0.00444291 -0.00314073 -1.33115e-21)
(-0.0350715 0.0193245 -5.57837e-18)
(0.00989944 0.00313853 -1.48936e-18)
(-0.0432004 -0.0178196 3.11146e-20)
(0.000115031 -0.000105768 -1.52942e-19)
(-0.0484679 0.0318032 2.87463e-19)
(0.00104165 -3.82874e-05 1.69514e-20)
(-0.000937524 -0.00069284 2.7718e-19)
(-0.000559776 -0.00106088 2.07061e-19)
(0.000745808 0.00110766 -5.75593e-18)
(0.0137085 0.00313691 -1.94002e-17)
(0.0111291 0.0116612 5.12775e-18)
(0.0165121 0.0200224 1.56837e-17)
(-0.0285452 0.0201765 1.59081e-17)
(0.00731 -0.000973671 -7.66466e-19)
(0.00205911 -8.06142e-06 -1.08879e-21)
(-0.0581367 0.0127042 5.878e-18)
(0.0328547 0.0503948 -8.27244e-20)
(0.00517684 0.00260758 5.9175e-18)
(0.00421291 0.00567062 8.23281e-18)
(-0.0309472 -0.0375732 4.16212e-19)
(-0.0692652 0.0166089 -1.89791e-19)
(-0.0304801 0.0213538 3.07518e-19)
(0.000779464 6.59946e-05 5.55553e-19)
(0.00530381 0.0264892 -4.64898e-18)
(-0.00167781 0.0225593 -3.5222e-18)
(0.00202948 0.00437655 -3.72806e-18)
(0.00427227 -0.000741815 -6.76236e-20)
(0.00444831 -0.00337636 1.41613e-20)
(-0.0416856 -0.0411335 -1.19548e-18)
(0.00372022 0.0124026 8.04307e-20)
(-0.0158331 -0.0178193 1.22022e-19)
(-0.0119558 -0.0890038 1.72472e-18)
(-0.0641433 0.0413128 1.24644e-18)
(0.00328095 0.000182199 1.19243e-19)
(-0.0793342 0.0389149 -4.71568e-19)
(-0.0410791 0.0282683 -1.69402e-17)
(0.00129342 0.000125074 -1.70432e-20)
(0.00148929 0.0104469 5.0462e-20)
(0.0111567 0.0122696 -6.00098e-18)
(-0.0105083 0.00354582 4.22603e-18)
(0.0037275 0.000964233 -1.08478e-18)
(0.00124428 0.000200195 3.6808e-18)
(0.00056812 -0.001585 -5.881e-19)
(0.00166501 -0.000164955 1.03119e-18)
(0.0146603 0.00548461 1.7196e-18)
(0.00194716 -0.000846852 -5.18233e-20)
(0.00384728 -0.0651216 -3.12804e-18)
(-0.0320594 0.0798261 -2.81424e-19)
(-0.00109784 -0.000287322 9.85583e-20)
(0.0100093 0.0146374 -2.05129e-17)
(-0.0232542 0.00736542 -4.89041e-18)
(0.00906262 -0.00698566 1.88468e-20)
(0.029814 0.0747497 1.60393e-20)
(0.00600039 0.0079882 5.7483e-18)
(0.00159727 2.68763e-06 1.82409e-22)
(-0.00215465 -0.00119452 -2.02079e-20)
(0.00278748 -0.000402343 3.62494e-21)
(-0.0581753 0.0135357 -1.06939e-18)
(0.00289984 0.00263444 -8.53128e-19)
(0.00732251 0.0206028 -8.69561e-18)
(0.016248 0.0282016 1.44255e-17)
(0.00157414 0.000332185 4.36111e-20)
(0.00458325 0.00298552 4.72214e-20)
(-0.055395 0.0193771 -3.74249e-22)
(0.00216353 0.00704588 -6.11886e-19)
(0.0189455 0.0122681 9.36489e-18)
(0.0127562 0.00358735 -7.57503e-18)
(-0.039139 0.0280565 4.65116e-18)
(0.00171355 -0.000512218 -1.06689e-18)
(0.000916694 0.00114748 1.82115e-18)
(0.112298 -0.0857158 -5.6536e-19)
(-0.0286915 0.0168299 -1.68981e-17)
(0.0113478 0.0240626 -3.36538e-17)
(0.00498426 0.00819287 -2.70779e-18)
(0.00774201 -0.00508679 9.10566e-19)
(0.00154959 0.000194465 1.25582e-20)
(0.00129607 -0.000187774 5.12865e-19)
(-0.0223566 0.0310037 -9.08846e-19)
(0.00152932 0.000302993 -4.28344e-21)
(0.00365983 0.000883754 -2.97322e-19)
(0.00158516 0.000149613 1.97781e-21)
(0.000159394 -0.000480022 5.33355e-19)
(-0.0415629 0.0277804 2.34908e-17)
(0.0152345 0.00652664 -7.82064e-18)
(0.00344877 0.000912962 1.39201e-20)
(0.00153891 0.000280344 6.72625e-21)
(-0.0440139 -0.0529934 4.31108e-20)
(0.00551778 -0.132209 -1.08099e-18)
(-0.000201192 -0.000987355 3.44957e-19)
(-0.00134565 0.000174148 1.69299e-20)
(0.00155332 0.00132916 7.2129e-20)
(0.000618436 8.06825e-05 6.08341e-18)
(-0.0146953 0.0121709 1.34168e-18)
(-0.0341627 -0.0269266 7.61026e-20)
(-0.0314198 -0.0504419 -1.04442e-18)
(0.0102009 -0.0014418 1.90862e-17)
(-0.0576506 0.042289 -1.55631e-19)
(0.00452161 0.00778904 -7.66625e-19)
(-0.0105103 0.00215063 4.6196e-18)
(-0.00579346 0.00591178 -1.30306e-17)
(0.0033711 -0.00436974 4.8195e-20)
(0.00610787 0.00722033 4.60341e-18)
(0.00160704 -1.94285e-05 -1.10557e-21)
(0.000253067 0.000623827 2.96224e-19)
(0.00800516 0.000988688 -4.13305e-19)
(-0.0532435 0.021843 -5.43037e-18)
(0.0699338 -0.067633 -4.83097e-21)
(0.00782413 0.0199768 1.18417e-17)
(0.00622754 0.0031975 -3.54087e-18)
(-0.001976 -0.000950853 1.454e-20)
(0.00677159 -0.000756822 3.08531e-18)
(-0.00545097 -0.00136811 -1.97972e-19)
(-0.0496382 -0.0180399 -6.19712e-20)
(0.0129029 0.0110655 -7.94249e-18)
(0.00104637 0.000451081 1.07384e-18)
(0.00386036 -0.00104113 2.24687e-20)
(-0.00196518 -0.00034657 -4.63044e-20)
(0.00458352 0.00467613 -2.20703e-17)
(0.0196139 0.00484761 -1.05206e-17)
(0.0010937 0.00134283 -5.0829e-19)
(0.00154676 -0.000578634 2.63651e-19)
(0.00814293 -0.00188275 1.30512e-18)
(0.00158561 0.00110673 -2.03515e-18)
(0.0138764 0.00582467 6.89229e-18)
(0.0132015 -0.00637555 -1.82678e-18)
(0.0199216 0.00793124 -1.76933e-17)
(0.00643924 -0.0013392 1.77444e-18)
(0.0103411 0.0251165 4.16979e-17)
(-0.00192538 -0.000891012 1.62087e-20)
(0.00851294 0.0170232 -5.83526e-19)
(0.00450242 -0.0075664 1.46767e-19)
(0.0178229 -0.00112409 -1.1021e-17)
(0.00245126 -0.000303294 -5.06073e-19)
(-0.00156669 1.35139e-05 -5.59199e-21)
(-0.0256883 0.0228261 2.06064e-17)
(0.00301911 -0.000273138 1.25187e-18)
(-0.0330698 0.0210837 1.15023e-17)
(-0.0173964 0.0144413 -1.25217e-17)
(0.0181493 0.0225794 1.4305e-17)
(0.00628816 -0.0920393 -4.07556e-18)
(-0.00211502 -0.000479477 -3.83896e-20)
(-0.0276679 0.0245316 -1.48056e-17)
(0.00256319 -0.000132488 -1.92747e-21)
(8.86839e-05 -0.00059183 -5.22659e-19)
(0.00131248 8.63321e-05 -1.89485e-20)
(0.000191283 -0.000535033 8.7906e-19)
(0.00289309 -0.000266869 -6.51249e-22)
(0.00355298 -0.000820009 -1.37423e-20)
(0.00318178 -0.00272402 3.23401e-19)
(0.00150229 0.000254391 1.12532e-20)
(-0.0838027 -0.00357148 4.77835e-19)
(0.013158 -0.0132092 -5.38341e-20)
(-0.0847311 -0.00685605 -6.16322e-19)
(0.000168994 -0.00165344 1.66959e-19)
(0.0013433 4.29557e-05 9.42413e-21)
(0.000398263 0.000134012 -3.84227e-20)
(0.013686 -0.00072468 7.24849e-18)
(-0.0644253 -0.0188404 -2.48978e-18)
(0.00573394 0.0134098 -1.30287e-17)
(0.00478178 0.00468048 1.68155e-17)
(0.00260512 -0.000111743 1.14377e-21)
(-0.00127026 6.66978e-05 1.2105e-20)
(-0.00102857 -0.00018181 1.08425e-19)
(0.000661464 -0.00190834 -1.50913e-19)
(-0.0300166 0.0302828 -4.72876e-18)
(-0.0514784 0.107461 8.01024e-20)
(0.00154488 0.00106337 -3.19022e-18)
(0.00151104 0.000231891 6.40396e-21)
(0.000695015 0.00113078 5.02485e-18)
(0.000687712 -0.00181959 -8.25083e-20)
(0.0154794 0.0231088 1.56876e-19)
(-0.00420554 0.0236695 3.26505e-18)
(0.00706688 -0.000594564 -1.79888e-18)
(-0.0382193 0.017296 8.52073e-18)
(-0.0618102 0.0319747 -1.34097e-19)
(0.0015026 -0.000566561 6.97131e-19)
(0.017249 0.0188581 -2.34332e-17)
(-0.0227087 0.00269862 -8.67958e-19)
(0.00641017 0.00748903 -9.3536e-18)
(-0.0765759 0.122843 -2.01105e-18)
(0.00174554 0.00167189 4.32744e-18)
(0.00335133 -0.000549863 -8.40827e-20)
(0.00584187 0.0131166 1.12648e-17)
(0.00336188 -0.000699927 2.54212e-20)
(-0.00748357 -0.105096 -9.70221e-21)
(0.00110904 0.000563351 1.8939e-18)
(-0.0519342 -0.0230173 4.01795e-19)
(0.000869829 4.34995e-06 -1.89921e-21)
(0.00202655 0.00805806 1.76961e-17)
(-0.0119664 0.00800172 -8.62722e-18)
(-0.00326388 -0.00153929 -4.37806e-20)
(0.00281179 -0.000307237 -2.01761e-18)
(0.00637647 -0.00569591 1.01083e-18)
(-0.000943797 -0.000768192 6.81756e-20)
(0.00492885 0.00233404 1.36846e-18)
(0.0383939 -0.00736261 3.50326e-19)
(0.00603696 -0.0316857 2.64896e-18)
(0.0127241 0.01043 -1.11438e-18)
(-0.024447 0.0047322 -3.00825e-18)
(-0.020157 -0.0184446 -1.70316e-19)
(0.0015454 0.000129896 -6.27386e-21)
(0.00011947 -0.00156342 2.51856e-20)
(-0.00784788 -0.0296315 -3.10103e-17)
(0.0173048 0.0280254 -1.63971e-17)
(0.00128245 0.000959474 1.30928e-19)
(-0.0198746 0.0155591 1.2327e-17)
(-0.00269648 -0.000298801 -1.38597e-20)
(0.000403416 3.26956e-05 -8.3542e-19)
(0.00126835 0.000142885 -3.56059e-21)
(-0.0391592 0.0356677 1.81329e-19)
(-0.0374142 0.0310007 -3.43497e-17)
(0.00411153 -0.000125302 1.08491e-18)
(0.00231214 -0.000650819 5.16875e-19)
(-0.00550258 0.0196972 1.44985e-19)
(0.00343277 0.00369526 1.41903e-18)
(0.000449493 0.000143611 7.75459e-21)
(0.0129849 0.0130577 -1.06915e-17)
(-0.0102114 -0.0274188 4.5062e-19)
(-0.0322174 0.0131924 -1.30701e-17)
(0.00155333 0.000415313 5.92285e-21)
(0.001479 0.00107137 4.82257e-18)
(-0.0155548 0.00263188 7.082e-18)
(-0.00325655 0.0191177 -1.97109e-19)
(0.0100462 0.0276877 -5.59685e-18)
(-0.00497837 -0.0016014 1.49321e-19)
(-0.0331536 0.0243575 -6.32463e-18)
(0.001186 0.000541267 9.52722e-20)
(-0.0104796 0.0207802 -2.00559e-19)
(0.00772385 0.003636 -3.2275e-18)
(0.0110299 0.00416246 7.53982e-19)
(0.00467225 0.00125493 6.4875e-18)
(0.0196426 0.0230638 -2.05325e-18)
(0.00164945 -0.0101472 -4.21031e-19)
(-0.00284527 -0.00122448 2.01816e-19)
(-0.0318708 0.0319145 -1.97651e-17)
(-0.00157158 7.99981e-06 1.30559e-20)
(0.000308528 -1.51196e-05 -5.73239e-19)
(0.00310167 0.000221437 -2.33588e-18)
(-0.00196831 -0.000822756 -1.91217e-20)
(0.014249 0.0150352 1.95152e-17)
(0.00739776 0.00179417 4.14067e-19)
(0.0193449 0.0132345 2.07002e-18)
(0.00312682 0.000761207 -2.36404e-20)
(-0.00225024 0.0129295 -3.83783e-19)
(-0.00192865 -0.00103179 9.34928e-22)
(0.0505377 -0.00601484 -2.90217e-19)
(-0.000564272 -0.000111881 -4.03479e-20)
(0.0011187 -0.0108061 -6.9256e-19)
(0.00128904 6.51943e-05 -2.31311e-20)
(0.00141856 -0.000591003 3.94322e-19)
(0.000684133 -0.000140301 -7.43123e-19)
(-0.0308748 0.0165136 -4.99543e-18)
(0.000598346 -0.00147882 -3.3168e-19)
(0.00127509 0.000313906 -1.78721e-21)
(0.002523 0.00534513 3.28694e-22)
(0.000935401 0.00121292 6.57141e-19)
(-0.0156523 0.00415935 1.01486e-17)
(0.000687057 1.53362e-05 -1.72926e-20)
(-0.0059844 -0.00285355 9.99762e-21)
(0.00910111 0.0154397 1.88832e-17)
(0.0196699 0.0272015 1.00387e-18)
(-0.0160614 -0.0555925 3.62068e-19)
(-0.00131859 -0.000205068 -1.0629e-19)
(0.0214317 0.00758739 -8.8303e-20)
(-0.0404588 0.0163068 -1.21811e-17)
(0.00227887 0.00121564 -1.32901e-18)
(-0.0387349 0.0213957 1.57e-17)
(0.00217106 0.00786515 -4.14533e-18)
(-0.00196162 -0.000707293 -4.63584e-20)
(0.015255 -0.00852994 1.33842e-19)
(0.0109091 0.0107114 -4.08627e-18)
(0.0179481 0.00514978 3.76166e-20)
(0.00494408 0.00062379 1.92163e-18)
(-0.00105143 -0.000247239 4.50412e-20)
(0.00147291 0.000206287 9.57076e-21)
(0.0271239 0.0829837 -6.57718e-20)
(0.0111647 0.00482271 -9.38607e-19)
(0.003287 -0.00809926 -2.64139e-19)
(0.00421809 -0.000390061 6.57495e-19)
(0.0138442 -0.0149273 -8.87998e-20)
(0.000768016 8.25948e-05 -4.95075e-20)
(-0.00570573 -0.0023502 -4.52117e-19)
(0.00457514 0.0208741 -1.5213e-17)
(0.025025 -0.0581933 8.77686e-19)
(0.0140696 0.00447757 1.77259e-18)
(0.0774701 -0.0436207 2.75377e-20)
(0.00144045 0.00102294 -1.08492e-18)
(0.013386 0.00490897 -1.07244e-17)
(0.0129404 0.015009 -1.4365e-17)
(-0.005691 0.0153031 6.0131e-18)
(0.00398344 -0.000164829 2.58543e-19)
(-0.0879815 -0.018159 6.12441e-19)