/*--------------------------------*- C++ -*----------------------------------*\
| =========                 |                                                 |
| \\      /  F ield         | OpenFOAM: The Open Source CFD Toolbox           |
|  \\    /   O peration     | Version:  v2012                                 |
|   \\  /    A nd           | Website:  www.openfoam.com                      |
|    \\/     M anipulation  |                                                 |
\*---------------------------------------------------------------------------*/
FoamFile
{
    version     2.0;
    format      ascii;
    class       volVectorField;
    location    "100";
    object      cellDisplacement;
}
// * * * * * * * * * * * * * * * * * * * * * * * * * * * * * * * * * * * * * //

dimensions      [0 1 0 0 0 0 0];


internalField   nonuniform List<vector> 
13917
(
(-0.0266286 -0.174486 0)
(-0.00771443 -0.136947 0)
(-0.0246932 -0.156234 0)
(-0.015908 -0.0898212 0)
(-0.00505249 -0.111975 0)
(-0.00766502 -0.136022 0)
(-0.0190105 -0.114381 0)
(-0.00670221 -0.144878 0)
(-0.020178 -0.0806942 0)
(-0.0228001 -0.181028 0)
(-0.00694492 -0.14441 0)
(-0.0131808 -0.090884 0)
(-0.000443683 -0.00204685 0)
(-0.00439652 -0.150315 0)
(-0.0079116 -0.127225 0)
(-0.026626 -0.17365 0)
(-9.41681e-05 -0.00294976 0)
(-0.00747251 -0.144563 0)
(-0.0228989 -0.156317 0)
(-0.0256938 -0.180168 0)
(-0.0116351 -0.142092 0)
(-0.00679259 -0.0969788 0)
(-0.0208586 -0.138057 0)
(-0.00664742 -0.0961944 0)
(-0.0153923 -0.113685 0)
(-0.010889 -0.142826 0)
(-0.00741264 -0.163003 0)
(-0.023397 -0.181014 0)
(-0.00899666 -0.144341 0)
(-4.14041e-05 -0.00198644 0)
(-0.0246508 -0.180977 0)
(-0.0231055 -0.131815 0)
(-0.0148622 -0.100141 0)
(-0.0264179 -0.167556 0)
(-0.00267386 -0.0667795 0)
(-0.00639396 -0.144638 0)
(-0.0118597 -0.125009 0)
(-0.000298495 -0.00409753 0)
(-0.0191781 -0.113726 0)
(-0.0136511 -0.147032 0)
(-2.24712e-05 -0.000902553 0)
(-0.00129213 -0.0463458 0)
(-0.0194131 -0.0734249 0)
(-0.0236345 -0.148621 0)
(-0.0234907 -0.14935 0)
(-0.0154636 -0.169106 0)
(-0.0118605 -0.14107 0)
(-0.0165266 -0.17962 0)
(-0.0040288 -0.140353 0)
(-0.00273738 -0.0675052 0)
(-0.0129985 -0.0899378 0)
(-0.0180605 -0.164657 0)
(-0.02603 -0.147038 0)
(-0.010448 -0.0982674 0)
(-0.0110228 -0.100137 0)
(-0.01839 -0.164481 0)
(-0.0256651 -0.180963 0)
(-0.0206955 -0.138463 0)
(-0.00126263 -0.0451797 0)
(-0.0150591 -0.169054 0)
(-0.0104811 -0.176065 0)
(-0.00230394 -0.0762198 0)
(-6.85838e-06 -0.000306323 0)
(-0.015354 -0.1122 0)
(-0.0248793 -0.172026 0)
(-5.77051e-05 -0.00301516 0)
(-0.00849343 -0.144493 0)
(-0.00630207 -0.143941 0)
(-0.00722087 -0.145025 0)
(-0.0263196 -0.159883 0)
(-0.0248489 -0.16844 0)
(-0.026446 -0.167565 0)
(-0.0147935 -0.0594649 0)
(-0.00126775 -0.044672 0)
(-0.0117154 -0.143085 0)
(-0.0143293 -0.120927 0)
(-0.00585178 -0.109926 0)
(-0.00123696 -0.0435094 0)
(-0.0143296 -0.119585 0)
(-0.0149474 -0.101646 0)
(-0.00920192 -0.109593 0)
(-0.000118762 -0.00342769 0)
(-0.0146302 -0.0572537 0)
(-0.025574 -0.158942 0)
(-0.00367568 -0.0298158 0)
(-0.00685842 -0.150507 0)
(-0.0230108 -0.13116 0)
(-0.00187221 -0.0153963 0)
(-0.0135145 -0.146287 0)
(-0.000111579 -0.0035275 0)
(-0.000174422 -0.00575014 0)
(-0.0195551 -0.0732909 0)
(-0.00387451 -0.139643 0)
(-0.00228733 -0.0583559 0)
(-0.0108374 -0.110682 0)
(-0.00874834 -0.144964 0)
(-0.00721842 -0.159665 0)
(-0.00020996 -0.00473148 0)
(-0.00213041 -0.0172019 0)
(-0.00951618 -0.158459 0)
(-2.02245e-05 -0.000868352 0)
(-2.45446e-05 -0.00105697 0)
(-0.00933954 -0.110824 0)
(-0.000408487 -0.00860796 0)
(-0.00577987 -0.108783 0)
(-0.0254971 -0.13092 0)
(-0.0232346 -0.179097 0)
(-0.00223775 -0.0754791 0)
(-0.00128508 -0.046832 0)
(-0.00693094 -0.163334 0)
(-0.00298809 -0.00751589 0)
(-0.0264091 -0.168942 0)
(-0.00925433 -0.144806 0)
(-0.0154782 -0.17983 0)
(-0.0249467 -0.171226 0)
(-0.0139293 -0.124343 0)
(-0.0228448 -0.155069 0)
(-9.69675e-05 -0.0036344 0)
(-0.0242736 -0.156625 0)
(-0.0140341 -0.0426037 0)
(-0.000149085 -0.00425586 0)
(-0.00127258 -0.0429214 0)
(-0.00824557 -0.145061 0)
(-0.0209059 -0.158714 0)
(-0.0259415 -0.143167 0)
(-0.0256453 -0.159596 0)
(-0.0154723 -0.10941 0)
(-0.0115173 -0.14401 0)
(-0.00370668 -0.0703926 0)
(-0.0211165 -0.158765 0)
(-0.0212997 -0.107637 0)
(-0.0121743 -0.165466 0)
(-0.0257159 -0.135699 0)
(-0.0137422 -0.124605 0)
(-0.0233796 -0.137231 0)
(-0.00655307 -0.162871 0)
(-0.00933659 -0.175183 0)
(-0.0255477 -0.12579 0)
(-0.0104218 -0.143503 0)
(-0.000159012 -0.00222039 0)
(-0.00274595 -0.122509 0)
(-0.00123919 -0.0429553 0)
(-0.0254603 -0.129536 0)
(-0.00622599 -0.0763976 0)
(-0.0140763 -0.059426 0)
(-0.0012092 -0.0478457 0)
(-0.0249629 -0.1675 0)
(-0.00186134 -0.0974113 0)
(-0.0180348 -0.179752 0)
(-0.0106418 -0.0996367 0)
(-0.0135841 -0.144378 0)
(-2.15021e-05 -0.000938056 0)
(-0.0138861 -0.0571396 0)
(-0.0141075 -0.0406772 0)
(-0.00685722 -0.160042 0)
(-0.00548912 -0.098271 0)
(-0.000464762 -0.00989959 0)
(-0.0256393 -0.131512 0)
(-4.52895e-05 -0.00175294 0)
(-7.91621e-05 -0.00297724 0)
(-0.00590823 -0.0568028 0)
(-0.020969 -0.176222 0)
(-0.0104535 -0.13011 0)
(-0.0026077 -0.122023 0)
(-0.0159205 -0.177443 0)
(-0.0087455 -0.159479 0)
(-0.0260529 -0.148049 0)
(-0.0133544 -0.178271 0)
(-9.08185e-06 -0.000409801 0)
(-0.0102101 -0.144248 0)
(-0.00650868 -0.0982397 0)
(-0.0259165 -0.146263 0)
(-0.0201737 -0.0778406 0)
(-0.0114548 -0.175378 0)
(-0.0170305 -0.158045 0)
(-3.60436e-05 -0.00149503 0)
(-0.0160241 -0.0884062 0)
(-0.0175087 -0.165843 0)
(-0.0212201 -0.105981 0)
(-0.0103227 -0.131152 0)
(-0.0192203 -0.0772843 0)
(-0.00650231 -0.0968693 0)
(-0.0128525 -0.0911579 0)
(-0.0193016 -0.168791 0)
(-0.0242232 -0.158075 0)
(-0.0117658 -0.165391 0)
(-0.0126743 -0.0902717 0)
(-0.0189454 -0.168959 0)
(-5.12022e-05 -0.0024555 0)
(-0.00714938 -0.15005 0)
(-0.0167372 -0.158262 0)
(-0.0233852 -0.148153 0)
(-0.0200142 -0.166037 0)
(-0.0266418 -0.176924 0)
(-0.00234724 -0.0590908 0)
(-0.0260042 -0.145935 0)
(-0.0162217 -0.126708 0)
(-0.0256957 -0.135398 0)
(-0.00262771 -0.0653972 0)
(-0.0055754 -0.0973276 0)
(-0.0122596 -0.138729 0)
(-0.026379 -0.162519 0)
(-0.025571 -0.126807 0)
(-0.0110674 -0.12236 0)
(-0.00814676 -0.164313 0)
(-0.00937102 -0.13941 0)
(-0.0137131 -0.145107 0)
(-0.00127439 -0.0435904 0)
(-0.0178916 -0.165539 0)
(-0.00900067 -0.109707 0)
(-0.00300901 -0.0551658 0)
(-0.00459133 -0.11299 0)
(-0.00450038 -0.113647 0)
(-0.0177033 -0.179589 0)
(-0.0233322 -0.135877 0)
(-0.0107038 -0.143668 0)
(-0.0239238 -0.176266 0)
(-0.000872681 -0.0100219 0)
(-0.000693215 -0.0243684 0)
(-0.000677563 -0.0240144 0)
(-0.0133308 -0.178603 0)
(-0.0196079 -0.167437 0)
(-0.0183016 -0.169965 0)
(-0.00562756 -0.0241221 0)
(-4.63463e-06 -0.000207067 0)
(-0.00605928 -0.163094 0)
(-0.0260334 -0.147205 0)
(-0.000644169 -0.0221699 0)
(-0.000620936 -0.021301 0)
(-2.0904e-05 -0.000835475 0)
(-0.000691782 -0.0247775 0)
(-0.00067617 -0.0244123 0)
(-0.026475 -0.16843 0)
(-0.0182074 -0.179136 0)
(-0.00795729 -0.1026 0)
(-1.91843e-05 -0.000875665 0)
(-0.0189607 -0.157827 0)
(-0.0263373 -0.161222 0)
(-6.41836e-05 -0.00233642 0)
(-0.00519403 -0.0227485 0)
(-0.00775099 -0.164065 0)
(-0.0254087 -0.12617 0)
(-0.0195793 -0.168143 0)
(-0.0242323 -0.176357 0)
(-0.0162155 -0.162605 0)
(-0.00636195 -0.0770186 0)
(-0.0142899 -0.178026 0)
(-0.0191633 -0.158352 0)
(-0.00947414 -0.144195 0)
(-0.0221677 -0.148555 0)
(-0.0111656 -0.12113 0)
(-0.0184619 -0.179341 0)
(-0.0142 -0.0470274 0)
(-0.0159863 -0.148367 0)
(-0.0172684 -0.156263 0)
(-0.0077575 -0.103863 0)
(-9.84407e-06 -0.000396413 0)
(-0.0155143 -0.110967 0)
(-0.00472918 -0.106407 0)
(-0.002187 -0.0611182 0)
(-0.0259676 -0.144401 0)
(-0.00350796 -0.144332 0)
(-0.00144095 -0.046106 0)
(-0.000614573 -0.0208365 0)
(-0.00554739 -0.0997413 0)
(-0.00063348 -0.0213064 0)
(-0.0142577 -0.0451541 0)
(-0.000822708 -0.00394778 0)
(-0.0187703 -0.139414 0)
(-0.00144318 -0.0468644 0)
(-0.0254334 -0.120786 0)
(-0.0229752 -0.178815 0)
(-0.0112258 -0.0830624 0)
(-0.00511526 -0.106114 0)
(-0.01416 -0.169667 0)
(-0.000491224 -0.0193993 0)
(-0.010082 -0.157274 0)
(-0.0259621 -0.144259 0)
(-0.000502869 -0.0197276 0)
(-0.0263164 -0.159856 0)
(-0.00214319 -0.0596696 0)
(-0.0205978 -0.175993 0)
(-2.8437e-05 -0.00118463 0)
(-0.00801615 -0.124216 0)
(-0.00774355 -0.105084 0)
(-0.00570795 -0.0747816 0)
(-0.0222083 -0.163819 0)
(-0.000427986 -0.00671651 0)
(-0.00837683 -0.159946 0)
(-0.0155291 -0.135169 0)
(-0.0032284 -0.144158 0)
(-0.00122229 -0.048748 0)
(-0.00904551 -0.164041 0)
(-0.0254389 -0.12101 0)
(-8.83254e-05 -0.00321833 0)
(-0.0200042 -0.147062 0)
(-0.00488014 -0.108513 0)
(-0.0134604 -0.12652 0)
(-0.00504191 -0.110712 0)
(-0.014548 -0.118689 0)
(-0.00221954 -0.0586416 0)
(-0.000518396 -0.00827811 0)
(-0.0168487 -0.165711 0)
(-0.00298181 -0.0944211 0)
(-0.0159945 -0.147476 0)
(-0.0145555 -0.117295 0)
(-0.00483315 -0.0226209 0)
(-0.0256579 -0.132715 0)
(-0.0263998 -0.163393 0)
(-0.00334353 -0.0661218 0)
(-0.000336597 -0.0166519 0)
(-0.0136575 -0.126272 0)
(-0.003449 -0.1142 0)
(-0.024533 -0.134671 0)
(-0.0241983 -0.178598 0)
(-0.0121687 -0.175216 0)
(-3.5944e-05 -0.00187507 0)
(-0.0126382 -0.164864 0)
(-0.00507761 -0.104723 0)
(-0.0254708 -0.159883 0)
(-0.00337559 -0.115134 0)
(-0.024734 -0.15473 0)
(-0.000735463 -0.0032449 0)
(-0.00786966 -0.126162 0)
(-0.0078075 -0.163316 0)
(-0.00615139 -0.0993199 0)
(-0.00757142 -0.137685 0)
(-0.0232352 -0.148818 0)
(-7.84853e-05 -0.00260909 0)
(-0.025933 -0.147729 0)
(-0.00293958 -0.0239573 0)
(-0.0225249 -0.0997738 0)
(-0.000434387 -0.0189615 0)
(-0.0256085 -0.180533 0)
(-0.00225451 -0.0358177 0)
(-0.0162874 -0.145718 0)
(-0.00942448 -0.140269 0)
(-2.67651e-05 -0.00139009 0)
(-0.000107476 -0.00354835 0)
(-0.0224516 -0.146528 0)
(-0.0255527 -0.137103 0)
(-0.0110627 -0.108787 0)
(-0.00600798 -0.0988511 0)
(-0.0263528 -0.168708 0)
(-0.0255167 -0.133826 0)
(-0.016542 -0.174703 0)
(-0.00451485 -0.149579 0)
(-0.000493366 -0.0191757 0)
(-0.00848838 -0.102813 0)
(-0.0253551 -0.122949 0)
(-0.0129828 -0.165024 0)
(-0.000508452 -0.0196204 0)
(-0.00488202 -0.109857 0)
(-0.0117741 -0.0951888 0)
(-0.0104672 -0.149943 0)
(-0.0162609 -0.146664 0)
(-0.0201497 -0.163252 0)
(-0.0144626 -0.161609 0)
(-0.00996261 -0.156727 0)
(-0.0223357 -0.10755 0)
(-0.0264925 -0.174915 0)
(-0.0037977 -0.0720793 0)
(-0.0112436 -0.108565 0)
(-0.00494044 -0.112592 0)
(-0.0231297 -0.163939 0)
(-5.83966e-05 -0.00207473 0)
(-0.0266636 -0.176031 0)
(-0.022315 -0.10547 0)
(-0.000427695 -0.024331 0)
(-0.0110536 -0.101868 0)
(-0.0136531 -0.163965 0)
(-0.000348061 -0.0171421 0)
(-0.0038785 -0.138022 0)
(-0.00116928 -0.043407 0)
(-0.018722 -0.169784 0)
(-0.0146267 -0.1697 0)
(-0.00922239 -0.141129 0)
(-0.0113566 -0.0850612 0)
(-0.0234552 -0.170121 0)
(-0.000428617 -0.0191592 0)
(-0.0151067 -0.177374 0)
(-0.0199747 -0.166851 0)
(-0.00114234 -0.042889 0)
(-0.00402694 -0.13877 0)
(-0.00741478 -0.107635 0)
(-0.000419951 -0.0218186 0)
(-0.0017459 -0.0437491 0)
(-0.0253554 -0.180023 0)
(-0.000414145 -0.0216829 0)
(-0.0125554 -0.122448 0)
(-0.00593294 -0.163782 0)
(-0.0102248 -0.155335 0)
(-0.0110962 -0.118711 0)
(-0.0170692 -0.176337 0)
(-0.0249989 -0.118526 0)
(-0.0128487 -0.119046 0)
(-0.0220404 -0.164641 0)
(-0.00887026 -0.101161 0)
(-0.00985885 -0.155281 0)
(-0.0245493 -0.156834 0)
(-0.00262388 -0.0211258 0)
(-0.0196329 -0.102647 0)
(-0.0147572 -0.116475 0)
(-0.00577268 -0.0727726 0)
(-0.00327789 -0.0412865 0)
(-0.00399405 -0.0743631 0)
(-0.00843314 -0.175384 0)
(-0.00912674 -0.159798 0)
(-0.0111725 -0.105302 0)
(-0.00387217 -0.0750407 0)
(-0.00661304 -0.0931808 0)
(-0.0189733 -0.14905 0)
(-0.00567449 -0.142128 0)
(-0.000453267 -0.0189198 0)
(-1.04117e-05 -0.000469022 0)
(-0.0244552 -0.135572 0)
(-0.0134711 -0.163394 0)
(-0.00587082 -0.0767259 0)
(-0.0125812 -0.121142 0)
(-0.0132913 -0.174044 0)
(-0.00555554 -0.158553 0)
(-5.5254e-05 -0.00290617 0)
(-0.0230862 -0.156367 0)
(-0.0253857 -0.159057 0)
(-0.000782698 -0.030307 0)
(-0.000458334 -0.0188443 0)
(-0.0114189 -0.139052 0)
(-0.0030898 -0.0388251 0)
(-0.000464613 -0.0192798 0)
(-0.00793395 -0.103812 0)
(-0.000470448 -0.0192332 0)
(-0.00076708 -0.0295766 0)
(-0.0152103 -0.178453 0)
(-0.00903203 -0.102502 0)
(-0.0139727 -0.148401 0)
(-0.0254612 -0.122018 0)
(-0.0198026 -0.146975 0)
(-0.00312024 -0.0569814 0)
(-0.013638 -0.0572636 0)
(-0.0177933 -0.176319 0)
(-0.0119838 -0.138936 0)
(-0.025916 -0.14203 0)
(-0.000441718 -0.0189992 0)
(-0.00859171 -0.0479304 0)
(-0.000442494 -0.0198306 0)
(-0.000686543 -0.0250701 0)
(-0.0117565 -0.123933 0)
(-0.00715761 -0.108242 0)
(-0.0131699 -0.173619 0)
(-0.00103765 -0.0437845 0)
(-0.0254454 -0.12768 0)
(-0.00844997 -0.0482385 0)
(-0.0209535 -0.121402 0)
(-0.00107778 -0.0453174 0)
(-0.00887004 -0.108264 0)
(-0.0165892 -0.162309 0)
(-0.0160216 -0.174619 0)
(-0.01174 -0.0935539 0)
(-0.00467736 -0.16 0)
(-0.00331902 -0.0593063 0)
(-0.00120967 -0.0157263 0)
(-0.00648743 -0.091533 0)
(-0.00757313 -0.108075 0)
(-0.00277976 -0.0514425 0)
(-0.00127574 -0.0119555 0)
(-0.0256961 -0.134364 0)
(-0.0112914 -0.175867 0)
(-0.00266716 -0.0495748 0)
(-0.00905624 -0.164644 0)
(-0.0243551 -0.138796 0)
(-0.00183841 -0.00739657 0)
(-0.019784 -0.150086 0)
(-0.0237936 -0.109805 0)
(-0.0178433 -0.177124 0)
(-0.0200171 -0.102801 0)
(-0.025525 -0.132921 0)
(-0.000439363 -0.0237981 0)
(-0.000445597 -0.0239185 0)
(-0.00730909 -0.10872 0)
(-4.85693e-05 -0.00252684 0)
(-0.00108888 -0.0461603 0)
(-0.0110204 -0.120025 0)
(-0.0182618 -0.173191 0)
(-0.000171199 -0.00558571 0)
(-0.0104342 -0.0964324 0)
(-0.011029 -0.110509 0)
(-0.0198831 -0.0937893 0)
(-0.0124711 -0.142198 0)
(-0.0239164 -0.158226 0)
(-0.021702 -0.138563 0)
(-0.00133244 -0.0507828 0)
(-0.00500028 -0.106715 0)
(-0.00773562 -0.145092 0)
(-0.0136886 -0.15354 0)
(-0.0110175 -0.104818 0)
(-0.00404865 -0.15043 0)
(-0.0195398 -0.135618 0)
(-0.015735 -0.134562 0)
(-0.0142466 -0.176899 0)
(-0.00337238 -0.0270588 0)
(-0.0135362 -0.154358 0)
(-0.0173295 -0.166686 0)
(-0.00215155 -0.0309066 0)
(-0.0255745 -0.127682 0)
(-0.00123565 -0.015802 0)
(-0.000668478 -0.0245832 0)
(-0.0191747 -0.149406 0)
(-0.000453229 -0.0193822 0)
(-0.000929288 -0.0108951 0)
(-0.0166152 -0.165196 0)
(-0.025425 -0.121438 0)
(-0.00505418 -0.163537 0)
(-0.00572813 -0.0544011 0)
(-0.0170243 -0.0818094 0)
(-0.00144331 -0.0529035 0)
(-0.0172172 -0.172545 0)
(-0.0120704 -0.170074 0)
(-0.0107737 -0.102865 0)
(-0.0108288 -0.0989957 0)
(-0.0052553 -0.0499069 0)
(-0.0176361 -0.154426 0)
(-0.00179178 -0.0860233 0)
(-0.00351605 -0.0708206 0)
(-7.00588e-05 -0.00250938 0)
(-0.00550372 -0.0958008 0)
(-0.00569034 -0.0706246 0)
(-0.00320276 -0.0878078 0)
(-0.0174542 -0.130737 0)
(-0.000144032 -0.00477825 0)
(-0.02161 -0.140064 0)
(-0.00198385 -0.0284519 0)
(-0.00691495 -0.0948442 0)
(-0.0147736 -0.115065 0)
(-0.0253202 -0.178207 0)
(-0.000484452 -0.0136878 0)
(-0.0183901 -0.0936185 0)
(-0.00224541 -0.0617852 0)
(-0.0208655 -0.120185 0)
(-0.0202048 -0.153356 0)
(-0.00946471 -0.148889 0)
(-0.0172593 -0.15719 0)
(-0.00949028 -0.159324 0)
(-0.0142299 -0.114204 0)
(-0.00798812 -0.144548 0)
(-0.0257129 -0.136817 0)
(-0.0161024 -0.178519 0)
(-0.0254562 -0.121833 0)
(-0.00300563 -0.061921 0)
(-0.00621263 -0.0896757 0)
(-0.0013222 -0.0511554 0)
(-0.0107156 -0.0689851 0)
(-0.0252349 -0.170038 0)
(-0.000499692 -0.0199169 0)
(-0.00243321 -0.115568 0)
(-0.0164047 -0.125777 0)
(-0.0258495 -0.148635 0)
(-0.00989049 -0.15805 0)
(-0.0193642 -0.0767384 0)
(-0.0215982 -0.180697 0)
(-0.00260618 -0.0493721 0)
(-0.023466 -0.112989 0)
(-0.000252326 -0.00576829 0)
(-0.001895 -0.0607709 0)
(-0.025884 -0.148877 0)
(-0.000448094 -0.0189882 0)
(-0.0250324 -0.144353 0)
(-8.97708e-06 -0.000398506 0)
(-0.00133265 -0.00549588 0)
(-0.00633505 -0.0913303 0)
(-0.0238985 -0.157124 0)
(-0.0031236 -0.0874703 0)
(-0.000576202 -0.018764 0)
(-0.0238168 -0.14611 0)
(-0.0195767 -0.149861 0)
(-0.00197479 -0.103267 0)
(-0.024957 -0.166228 0)
(-0.0255808 -0.129307 0)
(-0.0172602 -0.177294 0)
(-0.00046449 -0.0130103 0)
(-0.0261366 -0.151794 0)
(-2.15292e-05 -0.000953495 0)
(-0.0100068 -0.175391 0)
(-0.00197751 -0.0975582 0)
(-0.00187315 -0.0613514 0)
(-0.000370007 -0.0182178 0)
(-2.16876e-05 -0.000936687 0)
(-0.0194511 -0.13481 0)
(-0.0191128 -0.0750607 0)
(-0.000459692 -0.0193664 0)
(-0.000254254 -0.00565059 0)
(-0.000845026 -0.00471657 0)
(-0.0248482 -0.165637 0)
(-0.00670253 -0.0608527 0)
(-0.0229585 -0.12793 0)
(-0.0102366 -0.0951949 0)
(-0.000546143 -0.0178569 0)
(-5.65564e-05 -0.00217474 0)
(-0.0158978 -0.168616 0)
(-0.0203568 -0.174553 0)
(-0.0222257 -0.180556 0)
(-0.0220675 -0.147457 0)
(-0.017605 -0.129634 0)
(-0.0215554 -0.171105 0)
(-0.0263049 -0.159864 0)
(-0.00177412 -0.0450009 0)
(-0.0173675 -0.173896 0)
(-0.000836561 -0.00454125 0)
(-0.0242816 -0.115222 0)
(-0.0106371 -0.0701621 0)
(-0.0236428 -0.169368 0)
(-0.00549939 -0.068706 0)
(-0.00326648 -0.08916 0)
(-0.0143011 -0.0594363 0)
(-0.00199359 -0.102404 0)
(-0.0191346 -0.138263 0)
(-0.0245531 -0.173807 0)
(-0.000166356 -0.0051655 0)
(-0.0187734 -0.137905 0)
(-0.00307349 -0.0702672 0)
(-1.50365e-05 -0.000650289 0)
(-0.0263984 -0.175739 0)
(-0.0084025 -0.158361 0)
(-0.00297398 -0.0713897 0)
(-0.020113 -0.164224 0)
(-0.00526102 -0.0241722 0)
(-0.00178704 -0.0576172 0)
(-1.55746e-05 -0.000680676 0)
(-0.0263069 -0.175212 0)
(-0.00670737 -0.059746 0)
(-0.00473269 -0.107663 0)
(-0.000486501 -0.0195007 0)
(-0.00298423 -0.0705271 0)
(-0.022936 -0.164172 0)
(-2.07035e-05 -0.000900334 0)
(-0.0209252 -0.162201 0)
(-0.000135922 -0.00366275 0)
(-0.00229993 -0.0352291 0)
(-0.00980204 -0.17585 0)
(-0.0230453 -0.128814 0)
(-0.0106287 -0.101487 0)
(-0.0254618 -0.122005 0)
(-0.0249959 -0.143054 0)
(-0.00573704 -0.139708 0)
(-0.0169558 -0.166928 0)
(-0.00249574 -0.047514 0)
(-0.00773773 -0.127951 0)
(-0.0254087 -0.178666 0)
(-0.0251359 -0.130363 0)
(-0.0116047 -0.138038 0)
(-0.0120681 -0.124823 0)
(-0.00324376 -0.089995 0)
(-0.000162545 -0.00432777 0)
(-0.00439713 -0.0759533 0)
(-3.46192e-05 -0.00181759 0)
(-0.0199917 -0.155469 0)
(-0.0153994 -0.125361 0)
(-0.0134386 -0.177178 0)
(-0.0193038 -0.138506 0)
(-0.00521268 -0.141513 0)
(-0.0121499 -0.170586 0)
(-0.003051 -0.0953372 0)
(-0.0170045 -0.1433 0)
(-0.0203452 -0.165464 0)
(-0.0263452 -0.161269 0)
(-0.00227897 -0.0592897 0)
(-0.00343553 -0.0970997 0)
(-2.53567e-05 -0.00133587 0)
(-0.00233928 -0.035198 0)
(-0.000201354 -0.00574587 0)
(-5.37162e-05 -0.00209311 0)
(-0.00142936 -0.0532664 0)
(-0.000997947 -0.0106129 0)
(-0.0261612 -0.15288 0)
(-0.021867 -0.0987553 0)
(-0.000613958 -0.01172 0)
(-0.0231421 -0.147586 0)
(-0.000184155 -0.00566936 0)
(-0.0240923 -0.178196 0)
(-0.00208744 -0.0590106 0)
(-0.00361215 -0.0699863 0)
(-0.0254376 -0.121777 0)
(-0.020386 -0.151153 0)
(-0.000704113 -0.0396826 0)
(-0.0149549 -0.0685196 0)
(-0.000363584 -0.0170962 0)
(-0.00318121 -0.066565 0)
(-0.0163508 -0.076417 0)
(-0.0193248 -0.11976 0)
(-0.00534327 -0.0743029 0)
(-0.0257519 -0.134814 0)
(-0.015493 -0.138678 0)
(-0.00182619 -0.089743 0)
(-0.000702657 -0.0390944 0)
(-0.00338654 -0.0962148 0)
(-0.0255474 -0.127743 0)
(-0.016969 -0.0837928 0)
(-0.000338523 -0.00696481 0)
(-0.00306399 -0.0711257 0)
(-0.0259888 -0.145537 0)
(-0.00545886 -0.163979 0)
(-0.0161832 -0.128212 0)
(-0.0258829 -0.140586 0)
(-0.00237254 -0.112798 0)
(-0.00240395 -0.0379407 0)
(-0.00343399 -0.0678524 0)
(-0.0115189 -0.124261 0)
(-0.0255591 -0.135947 0)
(-0.000750063 -0.0400665 0)
(-0.0189424 -0.139689 0)
(-0.0161857 -0.0764967 0)
(-0.0183349 -0.095566 0)
(-0.0243286 -0.114122 0)
(-0.00518903 -0.104109 0)
(-0.0204325 -0.162581 0)
(-0.0218585 -0.101249 0)
(-0.0106885 -0.109367 0)
(-0.0148879 -0.102912 0)
(-0.000345397 -0.00701405 0)
(-0.0191938 -0.119771 0)
(-0.00485299 -0.105897 0)
(-0.0250404 -0.11896 0)
(-0.0131559 -0.128272 0)
(-0.00162352 -0.0582392 0)
(-0.0258112 -0.13743 0)
(-6.68024e-05 -0.00332943 0)
(-0.00244724 -0.113779 0)
(-0.0121935 -0.123409 0)
(-0.00834233 -0.135083 0)
(-0.0170716 -0.122723 0)
(-0.0250995 -0.130853 0)
(-0.000141744 -0.00414181 0)
(-0.0233597 -0.109925 0)
(-0.0206376 -0.174129 0)
(-3.16051e-05 -0.00178343 0)
(-0.0110798 -0.0685856 0)
(-0.013368 -0.128016 0)
(-0.000728478 -0.00783871 0)
(-0.00930475 -0.0601127 0)
(-0.0142048 -0.0546776 0)
(-0.00587535 -0.121613 0)
(-0.00105058 -0.0446404 0)
(-0.0159724 -0.168033 0)
(-0.0206789 -0.162922 0)
(-0.00233271 -0.0454941 0)
(-0.0251184 -0.121559 0)
(-0.0200757 -0.0822346 0)
(-0.0198732 -0.0960029 0)
(-0.0203844 -0.164552 0)
(-0.00846095 -0.104203 0)
(-0.0234324 -0.114828 0)
(-0.00762739 -0.160058 0)
(-0.000508925 -0.0156952 0)
(-0.020562 -0.150269 0)
(-0.0160568 -0.160509 0)
(-0.0217413 -0.102671 0)
(-0.00397232 -0.0674421 0)
(-0.00296173 -0.0534848 0)
(-0.00429788 -0.0752075 0)
(-0.0263447 -0.160957 0)
(-0.0146558 -0.0997327 0)
(-0.0020197 -0.0591235 0)
(-0.0224181 -0.101413 0)
(-0.0054975 -0.0762019 0)
(-0.00326347 -0.0604033 0)
(-0.0185712 -0.163836 0)
(-0.00799411 -0.159601 0)
(-0.00524683 -0.121376 0)
(-0.00538198 -0.159244 0)
(-0.0106867 -0.149141 0)
(-0.0252979 -0.119771 0)
(-0.0142919 -0.052812 0)
(-0.00579193 -0.11082 0)
(-0.02268 -0.169616 0)
(-0.00182417 -0.060646 0)
(-0.00218542 -0.0769708 0)
(-0.000106646 -0.00348559 0)
(-0.000211953 -0.00592511 0)
(-0.0146228 -0.0727026 0)
(-0.012827 -0.129898 0)
(-0.00942997 -0.149722 0)
(-0.00387703 -0.0664405 0)
(-0.000313347 -0.0162502 0)
(-0.00506142 -0.091663 0)
(-0.00204711 -0.0984375 0)
(-0.0123828 -0.123442 0)
(-0.0200561 -0.100597 0)
(-0.000445899 -0.019348 0)
(-0.0220919 -0.149979 0)
(-0.00805926 -0.125369 0)
(-0.0188261 -0.175751 0)
(-0.00520611 -0.122355 0)
(-7.92265e-05 -0.00257345 0)
(-0.0246634 -0.178592 0)
(-0.0147578 -0.105157 0)
(-0.0260013 -0.14586 0)
(-0.0190313 -0.070096 0)
(-0.00476257 -0.123975 0)
(-0.00545009 -0.104159 0)
(-0.00269179 -0.0577537 0)
(-0.0108759 -0.0664475 0)
(-0.0260359 -0.155625 0)
(-0.0189166 -0.121621 0)
(-0.00563748 -0.140562 0)
(-0.0052281 -0.158012 0)
(-0.0090612 -0.0582361 0)
(-0.0217388 -0.104884 0)
(-1.39276e-05 -0.000634736 0)
(-0.00225586 -0.0727751 0)
(-0.00172439 -0.0831611 0)
(-1.92342e-05 -0.000880151 0)
(-0.0151821 -0.178114 0)
(-0.0186221 -0.0911717 0)
(-0.00473846 -0.124854 0)
(-0.0226325 -0.155227 0)
(-0.00333676 -0.110334 0)
(-0.000878265 -0.0271983 0)
(-0.000275335 -0.00716183 0)
(-0.0142094 -0.162404 0)
(-0.00244046 -0.0473622 0)
(-0.0100884 -0.0975227 0)
(-0.0130863 -0.11694 0)
(-0.00594567 -0.0877442 0)
(-0.0224234 -0.10379 0)
(-0.000841467 -0.026093 0)
(-0.00767695 -0.151757 0)
(-0.010495 -0.10967 0)
(-0.0265738 -0.171396 0)
(-0.0259371 -0.143016 0)
(-0.00363428 -0.116021 0)
(-0.0253938 -0.124562 0)
(-0.00496131 -0.160528 0)
(-0.0265974 -0.172255 0)
(-0.00334263 -0.113249 0)
(-0.00198289 -0.0341712 0)
(-0.00171225 -0.0558264 0)
(-0.0126689 -0.0723772 0)
(-0.013856 -0.108917 0)
(-0.00544421 -0.0523336 0)
(-0.0190828 -0.121574 0)
(-0.00730505 -0.0713782 0)
(-0.00578266 -0.142825 0)
(-0.0102667 -0.098827 0)
(-0.0251895 -0.159104 0)
(-0.0145826 -0.097793 0)
(-0.0214572 -0.0909125 0)
(-0.0137521 -0.160601 0)
(-0.00286923 -0.0623731 0)
(-0.0135082 -0.148112 0)
(-0.0146633 -0.106228 0)
(-0.00202639 -0.0634766 0)
(-0.017934 -0.119114 0)
(-0.000416915 -0.0187513 0)
(-0.0254006 -0.120959 0)
(-0.0200015 -0.156614 0)
(-0.000282407 -0.0146785 0)
(-0.00325947 -0.065717 0)
(-0.0103244 -0.0284974 0)
(-0.00623745 -0.0981237 0)
(-0.00513527 -0.0931971 0)
(-0.0150394 -0.176988 0)
(-0.00215205 -0.0361477 0)
(-0.00876627 -0.158661 0)
(-0.00541056 -0.0666479 0)
(-0.000440576 -0.0242761 0)
(-0.00759449 -0.122241 0)
(-0.00662402 -0.0754985 0)
(-0.0234349 -0.110694 0)
(-0.00232433 -0.0772486 0)
(-0.00228396 -0.0381122 0)
(-0.000685818 -0.0383523 0)
(-0.0179957 -0.173712 0)
(-0.0104823 -0.123848 0)
(-0.0223682 -0.148021 0)
(-0.00228237 -0.046767 0)
(-0.00917197 -0.158118 0)
(-0.000397004 -0.0183756 0)
(-0.00527744 -0.0937423 0)
(-0.0265611 -0.175243 0)
(-0.000225826 -0.00590489 0)
(-0.015989 -0.0918113 0)
(-0.0229839 -0.148132 0)
(-0.0265899 -0.17405 0)
(-0.000398013 -0.0185884 0)
(-0.00307608 -0.112266 0)
(-0.0227063 -0.170459 0)
(-0.00122589 -0.045104 0)
(-0.00639849 -0.107316 0)
(-0.0060664 -0.0894411 0)
(-0.0252748 -0.159905 0)
(-0.00974483 -0.0304019 0)
(-0.0239088 -0.147108 0)
(-0.013175 -0.0834493 0)
(-0.0255429 -0.126347 0)
(-0.00781258 -0.123911 0)
(-0.010327 -0.170268 0)
(-0.00397122 -0.075553 0)
(-0.00030601 -0.0135161 0)
(-0.000416978 -0.0220251 0)
(-0.000945499 -0.00900215 0)
(-5.79568e-05 -0.00287809 0)
(-0.0256879 -0.136482 0)
(-0.011949 -0.117379 0)
(-0.00336044 -0.0452545 0)
(-0.00311716 -0.11597 0)
(-0.00119506 -0.044496 0)
(-0.00166943 -0.055254 0)
(-0.0202101 -0.154663 0)
(-0.0126813 -0.118209 0)
(-0.0251661 -0.170976 0)
(-0.0141074 -0.147362 0)
(-0.0237653 -0.113735 0)
(-0.0166883 -0.166502 0)
(-0.0181596 -0.096049 0)
(-0.0257021 -0.133666 0)
(-0.0105874 -0.112462 0)
(-0.0204024 -0.152495 0)
(-0.00934622 -0.0477351 0)
(-0.0256634 -0.130951 0)
(-0.000446363 -0.0243577 0)
(-0.0154024 -0.0662837 0)
(-0.000408491 -0.0188069 0)
(-0.00201616 -0.0615727 0)
(-0.0109403 -0.102953 0)
(-0.000407217 -0.0185836 0)
(-0.00100328 -0.0353946 0)
(-0.00155558 -0.0484417 0)
(-0.0107322 -0.0628788 0)
(-0.0171285 -0.132901 0)
(-0.00047478 -0.0147065 0)
(-0.0119987 -0.115902 0)
(-0.0229229 -0.139118 0)
(-0.0167592 -0.177916 0)
(-0.0191047 -0.176106 0)
(-0.0228824 -0.146869 0)
(-0.00638141 -0.0987326 0)
(-0.000426091 -0.0225431 0)
(-0.00673648 -0.0654952 0)
(-0.0229217 -0.168894 0)
(-0.00174142 -0.0850415 0)
(-0.0254867 -0.123099 0)
(-0.000610781 -0.0231507 0)
(-0.00210628 -0.0360662 0)
(-0.0022327 -0.0143479 0)
(-0.00888589 -0.0963844 0)
(-0.000594724 -0.0224861 0)
(-0.000454595 -0.0202439 0)
(-0.0077744 -0.0632739 0)
(-0.0169833 -0.144423 0)
(-0.00342552 -0.0453297 0)
(-0.0236425 -0.180348 0)
(-0.00319684 -0.115086 0)
(-0.0038987 -0.0567292 0)
(-0.0260051 -0.155832 0)
(-0.00964702 -0.0485854 0)
(-0.00409599 -0.0750766 0)
(-0.00222398 -0.0742695 0)
(-0.0261676 -0.175772 0)
(-0.0131691 -0.154683 0)
(-5.3146e-05 -0.00212025 0)
(-0.000720992 -0.040437 0)
(-0.00272067 -0.064749 0)
(-0.00378709 -0.0733573 0)
(-0.0252 -0.124266 0)
(-0.00174191 -0.0570182 0)
(-0.006395 -0.158794 0)
(-0.0161861 -0.0923702 0)
(-0.00453952 -0.125207 0)
(-0.00320448 -0.0573485 0)
(-0.00136976 -0.0450469 0)
(-0.0123984 -0.139389 0)
(-0.00348368 -0.110259 0)
(-0.0142675 -0.112809 0)
(-0.0262923 -0.159769 0)
(-0.00246027 -0.0805756 0)
(-0.000542176 -0.00743703 0)
(-0.00629931 -0.108119 0)
(-0.0106817 -0.0325244 0)
(-0.00284363 -0.0516127 0)
(-0.023922 -0.132498 0)
(-0.021883 -0.0932911 0)
(-0.0152545 -0.124875 0)
(-0.0259804 -0.145357 0)
(-0.0234472 -0.180162 0)
(-0.00352068 -0.109225 0)
(-0.0240183 -0.133219 0)
(-0.00147992 -0.046683 0)
(-0.0257444 -0.134655 0)
(-0.0013039 -0.043402 0)
(-0.011766 -0.174366 0)
(-0.0175868 -0.155454 0)
(-0.0197704 -0.101739 0)
(-0.0140224 -0.11129 0)
(-0.00955109 -0.171034 0)
(-0.00461806 -0.163786 0)
(-0.0253551 -0.127379 0)
(-0.000362125 -0.0174524 0)
(-0.00195463 -0.0997988 0)
(-0.000418819 -0.0190052 0)
(-0.00740301 -0.0710394 0)
(-0.021989 -0.0944391 0)
(-0.010349 -0.108394 0)
(-0.0129698 -0.0829301 0)
(-0.0108662 -0.165236 0)
(-0.0264954 -0.168104 0)
(-0.00133978 -0.0446346 0)
(-0.0207826 -0.0817467 0)
(-0.0262801 -0.1585 0)
(-1.00858e-05 -0.000448411 0)
(-0.00052488 -0.0199285 0)
(-0.00234497 -0.116372 0)
(-0.0230295 -0.17762 0)
(-0.0138532 -0.107176 0)
(-1.78561e-05 -0.000791887 0)
(-0.0189039 -0.113221 0)
(-0.0133444 -0.0595347 0)
(-0.0036073 -0.0712707 0)
(-0.0057304 -0.121056 0)
(-0.0100003 -0.128071 0)
(-0.0124831 -0.0703072 0)
(-0.00169623 -0.0903897 0)
(-0.000374225 -0.0179537 0)
(-0.00089819 -0.0414774 0)
(-0.00177116 -0.0841622 0)
(-0.00245718 -0.0796277 0)
(-0.02578 -0.136127 0)
(-0.015151 -0.0685557 0)
(-0.0143787 -0.0972465 0)
(-0.00042194 -0.021111 0)
(-0.0265729 -0.176562 0)
(-0.000412339 -0.0212538 0)
(-0.000358289 -0.0177236 0)
(-0.0114919 -0.140059 0)
(-0.0164006 -0.0569732 0)
(-0.0162153 -0.0941443 0)
(-0.00038679 -0.0181551 0)
(-0.018196 -0.175829 0)
(-0.00160401 -0.0585891 0)
(-0.00578249 -0.0993513 0)
(-0.0218786 -0.13527 0)
(-0.00594105 -0.0744528 0)
(-2.59374e-05 -0.00145347 0)
(-0.0217567 -0.150688 0)
(-0.0242746 -0.137764 0)
(-0.0233486 -0.107256 0)
(-0.0175938 -0.17082 0)
(-0.000767925 -0.0408017 0)
(-0.0137489 -0.173182 0)
(-0.0261572 -0.157384 0)
(-0.000281945 -0.00401378 0)
(-0.0180659 -0.170678 0)
(-0.000541807 -0.0206054 0)
(-0.0174031 -0.154063 0)
(-0.0186466 -0.158508 0)
(-0.00165066 -0.083022 0)
(-0.0176074 -0.112413 0)
(-0.00194445 -0.0614368 0)
(-0.0165818 -0.123052 0)
(-0.00536918 -0.1422 0)
(-0.0113166 -0.118479 0)
(-0.0164983 -0.176738 0)
(-0.0182045 -0.138748 0)
(-0.0162266 -0.161131 0)
(-0.0135091 -0.175193 0)
(-0.000231233 -0.00653084 0)
(-0.024258 -0.119012 0)
(-0.0128147 -0.12044 0)
(-0.00905909 -0.0978095 0)
(-0.00290873 -0.0855706 0)
(-0.000889255 -0.0407356 0)
(-0.000336043 -0.0149656 0)
(-0.00203392 -0.0415585 0)
(-0.0141714 -0.111628 0)
(-0.0253887 -0.127577 0)
(-0.00345123 -0.0478556 0)
(-0.0117369 -0.117791 0)
(-0.0191518 -0.0719985 0)
(-0.0107851 -0.112263 0)
(-0.0110258 -0.0880255 0)
(-0.0142973 -0.161017 0)
(-0.023651 -0.110398 0)
(-0.00592558 -0.0998873 0)
(-0.00309321 -0.0636234 0)
(-0.00797226 -0.151317 0)
(-0.000428356 -0.0212874 0)
(-0.00788612 -0.135331 0)
(-0.0256902 -0.133414 0)
(-0.0147972 -0.0786523 0)
(-0.0098519 -0.0383049 0)
(-0.00516777 -0.162861 0)
(-0.00207447 -0.0598103 0)
(-0.0116785 -0.119212 0)
(-0.02615 -0.158417 0)
(-0.0257483 -0.134747 0)
(-0.00589718 -0.118115 0)
(-0.0168998 -0.154324 0)
(-0.0110087 -0.131107 0)
(-0.0258629 -0.139702 0)
(-0.00842847 -0.157587 0)
(-0.012647 -0.14125 0)
(-0.0246509 -0.168421 0)
(-0.00343237 -0.06914 0)
(-0.0194259 -0.157963 0)
(-0.0173178 -0.177687 0)
(-0.0244407 -0.155924 0)
(-0.00163879 -0.0875455 0)
(-0.00387585 -0.136451 0)
(-0.00074128 -0.0287537 0)
(-0.00677273 -0.0933087 0)
(-0.000672306 -0.00418136 0)
(-0.011179 -0.0895345 0)
(-0.00691461 -0.0963193 0)
(-0.0250792 -0.121132 0)
(-0.000219544 -0.00582959 0)
(-0.0189672 -0.145067 0)
(-0.00107518 -0.0274562 0)
(-0.023262 -0.106215 0)
(-0.0180938 -0.1767 0)
(-0.012472 -0.118824 0)
(-0.0166424 -0.172649 0)
(-0.00487247 -0.159357 0)
(-0.0101922 -0.0422757 0)
(-0.0238272 -0.112407 0)
(-0.00963023 -0.128374 0)