/*--------------------------------*- C++ -*----------------------------------*\
| =========                 |                                                 |
| \\      /  F ield         | OpenFOAM: The Open Source CFD Toolbox           |
|  \\    /   O peration     | Version:  v2012                                 |
|   \\  /    A nd           | Website:  www.openfoam.com                      |
|    \\/     M anipulation  |                                                 |
\*---------------------------------------------------------------------------*/
FoamFile
{
    version     2.0;
    format      ascii;
    class       volVectorField;
    location    "750";
    object      ddtCorrDdt0(U);
}
// * * * * * * * * * * * * * * * * * * * * * * * * * * * * * * * * * * * * * //

dimensions      [0 1 -2 0 0 0 0];


internalField   nonuniform List<vector> 
13917
(
(0.00357673 0.00459032 2.56558e-18)
(0.00142147 0.00152171 -6.21313e-19)
(-0.0444545 -0.00417476 1.49301e-17)
(0.00224491 -0.00186471 -1.51867e-17)
(2.81058e-05 0.000573518 6.06739e-19)
(-6.7967e-05 0.00310607 -7.76818e-17)
(-0.0446962 -0.00329385 7.78257e-18)
(-0.0473713 -0.00399423 -2.34108e-17)
(-0.0691175 0.0103082 3.79704e-17)
(0.00374998 0.0061084 3.34201e-17)
(0.00646861 -0.0105107 -9.84177e-18)
(0.00410931 -0.00665927 3.21056e-17)
(0.00224545 -0.00192995 1.35054e-17)
(-0.0470442 0.00196662 -1.12051e-17)
(0.00100849 0.00309382 -1.63027e-18)
(0.00132423 0.00293522 -5.76473e-19)
(0.00132916 0.00173099 -1.99208e-18)
(0.00903585 0.00124965 1.12018e-17)
(0.0039902 -0.00652646 -2.80514e-17)
(7.71044e-05 0.000186294 1.01627e-18)
(4.62636e-06 7.43523e-05 8.62746e-19)
(-0.0457325 -0.00305891 -9.65644e-18)
(0.000111003 0.000364028 1.25552e-18)
(-0.0428127 -0.0051689 2.6894e-17)
(0.00023078 0.00099576 2.85018e-18)
(-0.0390238 -0.00605729 -7.64752e-18)
(-1.0261e-05 0.00338846 -2.28323e-17)
(-8.34571e-05 0.00365555 -3.58932e-17)
(-0.00244379 0.0046605 -2.58031e-18)
(0.0071397 0.00784898 3.51141e-17)
(0.0041741 0.00467747 -5.30449e-17)
(0.00295117 0.00318927 -2.26757e-17)
(7.95531e-05 0.00339566 -2.70584e-17)
(-2.066e-05 0.0027338 -3.98186e-17)
(0.000191568 0.00108359 1.68317e-19)
(0.00291738 -0.0120197 -2.14151e-18)
(0.000100522 0.000344744 -4.49446e-19)
(-0.0505105 0.00219869 -9.29747e-19)
(0.0025639 -0.00243953 -1.56436e-17)
(-0.0267457 0.00111022 -2.12996e-18)
(0.000312439 2.92098e-05 -2.01366e-18)
(-3.47427e-07 2.74873e-05 1.25787e-18)
(0.00065 -6.99758e-05 -1.78243e-18)
(-0.000341681 0.00381844 -8.18008e-18)
(0.00191663 0.00071424 -1.17067e-17)
(4.20988e-05 0.0029474 -4.88195e-18)
(0.00901464 0.000997511 1.60228e-18)
(0.0107918 -0.00233174 7.14884e-19)
(5.28232e-05 0.0029622 8.5807e-18)
(0.00012736 2.83081e-05 -2.64927e-18)
(0.00469686 -0.000260929 1.86097e-17)
(0.000100355 0.00190411 4.48694e-19)
(0.000156404 0.00319833 -6.8879e-17)
(-1.43854e-05 0.0027893 1.34922e-17)
(0.00131611 0.00177309 5.47027e-18)
(0.00449607 0.00132642 -9.47847e-18)
(0.00693532 -0.0105163 1.13432e-17)
(0.000573964 0.00144179 1.38904e-18)
(0.00365939 0.00157992 6.79973e-18)
(0.00184117 0.000710527 8.0092e-18)
(-0.0387216 -0.000741211 5.84732e-17)
(0.00146946 0.00151778 1.23298e-18)
(-0.040902 0.00261254 9.89779e-18)
(8.44126e-05 0.000202664 -1.86522e-19)
(-3.48203e-05 0.00317944 7.64211e-17)
(-0.042316 -0.00899005 4.61682e-17)
(-9.59824e-06 0.00061169 4.6705e-18)
(-2.05296e-05 0.00110307 1.17251e-17)
(0.0149272 -0.00838555 -5.55974e-18)
(0.00263028 0.00434317 -7.9246e-18)
(3.06718e-05 0.000546773 -1.47106e-18)
(-0.0706746 0.0104511 -2.78646e-17)
(-0.0363531 0.00518953 2.59835e-17)
(0.000225507 0.000959934 -9.98693e-19)
(5.27153e-05 0.00271598 -1.69985e-19)
(0.00267775 -0.00707817 1.13305e-18)
(-0.0431854 0.00379465 8.76971e-18)
(0.00272479 0.00069298 -1.32244e-17)
(-0.0322731 -0.00702167 3.21951e-18)
(7.25779e-06 0.000143274 -1.91907e-18)
(2.01e-05 0.000172019 -2.61344e-18)
(-9.6831e-06 0.000571277 1.48113e-18)
(-0.000104446 0.00314404 1.96536e-17)
(-0.0519585 0.00224753 4.25395e-18)
(-0.00443232 -0.00263987 5.05503e-17)
(0.00265736 0.000636542 6.40462e-18)
(3.54607e-05 0.000193616 -1.01186e-18)
(-0.0398332 -0.00543602 1.65441e-17)
(0.00457012 -0.000266179 -1.73794e-17)
(0.000662683 -8.57552e-05 -1.04396e-18)
(-0.0449563 0.00551008 -2.45415e-19)
(0.00483327 0.00712889 4.24193e-17)
(0.00118917 0.00080407 2.60776e-18)
(0.000698795 0.00232959 6.51615e-18)
(-0.0376669 -0.00839246 3.23547e-18)
(-5.11886e-05 0.00318613 5.38775e-17)
(0.0101573 -0.00830256 3.74346e-18)
(0.0103878 -0.00107411 -9.90559e-18)
(0.00273678 -0.00883084 1.59084e-17)
(-0.000356166 0.00345545 -4.42371e-17)
(0.00043627 0.000186001 3.78747e-18)
(-2.51377e-05 0.00321404 -9.8711e-18)
(-0.000321857 0.0037164 -2.65875e-17)
(0.00309492 0.000231883 -4.31471e-19)
(0.000719122 0.000393712 -1.02654e-18)
(-0.070727 0.0137153 2.26015e-17)
(-0.00176987 0.00549224 -5.96878e-19)
(0.0111824 -0.00252106 -1.28297e-19)
(0.00139182 0.00173819 3.49056e-19)
(0.00383534 0.00501981 1.36374e-17)
(-0.00751656 0.00335191 -7.1192e-17)
(-0.0274738 0.00090437 5.29297e-18)
(0.0038905 -0.00763192 1.06e-18)
(-0.0700712 0.012839 -5.33128e-17)
(6.87344e-05 0.00223221 -4.01676e-18)
(0.000619067 0.00282174 -1.00443e-17)
(0.000256084 0.00070794 -8.4167e-19)
(2.58578e-05 0.00295843 2.08014e-17)
(-0.0438822 0.00146014 -4.94152e-19)
(9.81175e-05 0.00282571 8.92392e-18)
(1.14372e-06 5.47558e-05 -7.75021e-20)
(0.0147619 -0.00792396 2.28515e-17)
(-0.0462386 0.00220749 4.61719e-19)
(-5.45525e-05 0.00364152 6.48057e-17)
(0.000189576 2.67876e-05 1.42852e-18)
(0.000687502 0.00226722 1.65282e-18)
(0.00174891 0.000919427 1.27765e-18)
(0.00017534 2.13453e-05 5.37671e-19)
(0.000564595 2.55738e-06 7.81693e-19)
(4.68587e-05 0.00320197 -6.44509e-17)
(-0.0467444 0.00089887 -1.26426e-18)
(6.08948e-05 0.002194 -5.63852e-18)
(0.00194911 0.000758785 -3.89796e-18)
(1.31817e-06 6.02916e-05 -4.76546e-19)
(-0.0657821 0.0181487 -4.38983e-17)
(-0.0410699 -0.00614828 -1.18037e-17)
(0.00343341 0.00464977 1.43968e-17)
(-0.000336725 0.00339344 6.01342e-17)
(-5.65361e-06 0.000635397 -7.65297e-18)
(3.73127e-05 0.00281257 -3.46007e-17)
(0.0034894 -0.0118922 -1.02992e-17)
(0.00107295 0.000360289 -2.46737e-18)
(0.000237112 0.00205575 1.4201e-18)
(-0.00044292 0.00372435 -2.28356e-17)
(-1.29977e-05 0.00112837 -1.01412e-17)
(-0.0697324 0.00909228 -1.72446e-17)
(-0.00245864 0.00540969 2.41646e-20)
(0.000110972 0.00185979 2.60304e-18)
(0.000976136 0.000285469 1.7083e-18)
(0.00274437 0.00340118 -1.04929e-18)
(0.00790303 -0.00415738 4.02346e-17)
(0.000819658 0.00317151 -1.94367e-16)
(0.00690637 -0.00753738 1.04357e-18)
(0.00169181 0.00467342 -9.73537e-18)
(0.00379732 0.00245698 -4.60667e-18)
(-0.00646503 -0.00213286 -7.62138e-17)
(0.00255005 0.00423782 4.18441e-18)
(0.022311 -0.0185186 -1.41557e-17)
(-0.0434195 0.00348249 -1.44053e-17)
(-0.0632342 0.0173422 -3.43776e-17)
(0.000360848 0.00260485 -1.14238e-17)
(-5.43248e-05 0.00343311 -6.54222e-17)
(8.94068e-06 0.000126728 -2.07512e-21)
(0.00972991 -0.00838857 -7.85541e-18)
(0.00405858 -0.00756662 -6.69454e-18)
(0.0029655 -0.00882731 -1.43438e-17)
(0.00305347 0.000293797 -7.02766e-18)
(0.00923723 -0.00302904 2.82808e-18)
(0.00154933 0.000626144 -4.9565e-18)
(-2.69209e-05 0.00324693 -2.34435e-17)
(0.00200768 0.00474977 2.8176e-17)
(0.00179958 0.000129063 -9.74159e-18)
(0.00341759 -0.00785223 7.06925e-20)
(0.00139866 0.00204005 -2.72333e-19)
(-0.0551618 0.00109448 -1.95146e-17)
(0.00159436 0.00486451 -4.40186e-18)
(-0.0474176 0.000716687 -3.63644e-18)
(-0.000120525 0.00296497 -1.72802e-17)
(-0.0669566 0.00732625 2.28176e-17)
(0.000878961 0.00102163 2.34052e-18)
(0.00505586 0.00738372 -3.95668e-17)
(0.00434663 0.00480658 1.28498e-17)
(0.00108772 0.000333763 2.53023e-18)
(3.91063e-05 0.000211746 5.91012e-19)
(0.00069384 0.00345367 -1.25814e-17)
(-0.0339531 -0.00723196 -1.31913e-18)
(0.0027734 0.011468 -1.28974e-18)
(-0.00869556 -0.00209156 3.53854e-17)
(0.00635446 0.00203994 -4.03358e-17)
(0.00407754 -0.00899455 -1.37077e-17)
(0.00504673 -0.0126597 -6.73258e-18)
(-0.00664286 -0.00288081 -7.32248e-17)
(0.00165167 0.00975254 -4.09632e-17)
(9.18128e-05 0.00042147 -2.59074e-18)
(-0.00013121 0.00339157 8.12883e-17)
(4.83642e-05 0.00332826 2.99912e-17)
(0.000279501 9.98061e-06 2.24443e-18)
(0.00121266 0.000841743 -4.54818e-19)
(-0.00107067 0.00563899 2.0294e-18)
(-0.0208328 -0.00227266 4.01264e-18)
(0.00393433 -0.00161124 -9.59327e-18)
(0.000116223 2.49076e-05 2.30502e-19)
(0.00845933 -0.00320941 3.1392e-18)
(0.00767956 -0.00415051 -3.67144e-17)
(-0.0356206 0.00443633 1.75282e-17)
(0.00630754 0.00515712 3.27452e-17)
(0.00016732 0.00105032 5.3767e-20)
(0.000588808 0.00148596 -1.6258e-18)
(0.0101829 -0.00138028 -1.68799e-17)
(-0.0362221 -0.00606094 -1.4918e-18)
(0.000248576 0.00201358 -3.35431e-18)
(-0.0462695 -0.00287032 2.65799e-18)
(-0.0344464 0.00344334 -3.87478e-17)
(0.00425557 -0.0089756 4.76471e-18)
(0.000708868 0.000406589 3.45802e-19)
(-0.00132622 0.00323185 -2.97315e-17)
(0.00929837 -0.00152487 -2.10787e-17)
(-0.00785388 0.00219587 4.6424e-17)
(0.000415901 0.000861517 1.16573e-19)
(-0.04462 -0.000911842 -5.39873e-17)
(0.000842431 0.000987216 -9.80353e-19)
(0.0085344 0.00692014 4.86741e-17)
(0.000304031 3.61149e-05 6.93306e-19)
(-0.0509346 0.00265702 -2.83327e-17)
(-0.069719 0.0146799 5.45504e-18)
(0.00136469 0.00301061 1.06826e-18)
(-0.000650863 0.0091353 1.36136e-16)
(0.00394361 0.00244418 -4.3201e-17)
(0.000675117 0.000395092 -1.17183e-18)
(0.00247947 -0.0119184 3.82279e-18)
(0.00329007 -0.00770622 -6.06539e-18)
(0.00634284 0.00185243 5.47845e-17)
(-0.0379734 -0.0057248 -1.47687e-17)
(-0.0337272 0.00317471 6.92809e-17)
(0.000437182 9.03875e-05 2.11315e-18)
(0.00305058 0.00326011 2.26445e-17)
(-0.0464805 0.00610698 1.66953e-17)
(-0.00352578 -0.00299032 6.93265e-17)
(1.20245e-05 0.000144682 -2.20647e-18)
(0.000294716 0.000361442 -2.38257e-19)
(-0.0238943 0.000539306 -4.33636e-18)
(0.0109557 -0.00867948 -1.12578e-17)
(1.60226e-06 5.12196e-06 -1.46016e-18)
(0.00375042 -0.011501 -4.0773e-18)
(0.0128798 0.00256966 -3.48108e-19)
(-4.65193e-05 0.00340436 5.1824e-17)
(0.00377662 0.00419293 1.41322e-17)
(1.19929e-05 0.0001353 -3.98356e-19)
(0.00100054 0.00468278 -6.77017e-19)
(-0.0376883 0.00337278 -3.38589e-17)
(0.00167432 -0.000572846 -1.94084e-19)
(0.00436838 0.00815089 -3.85156e-18)
(-0.000423104 0.00343527 2.28235e-17)
(0.00171741 0.000866733 -2.83069e-18)
(0.000535478 0.00141088 -7.60257e-19)
(0.00637404 -0.00651283 2.45563e-17)
(-0.0249308 -6.64516e-05 1.47321e-19)
(0.00679599 -0.00733093 7.42526e-18)
(0.000717771 0.00351271 7.24153e-19)
(0.00105819 0.00312743 -4.83516e-20)
(1.42128e-06 9.02526e-06 4.4723e-19)
(-0.0461205 0.00198489 1.96568e-18)
(-0.0693648 0.0189278 -2.59699e-17)
(0.00124536 -0.0108699 2.02471e-19)
(0.000663942 0.000407672 3.48961e-18)
(-0.0261976 0.00541771 -1.48545e-17)
(-0.0452656 0.00124687 -6.49369e-18)
(0.0170346 -0.0180034 8.22949e-18)
(-0.0327939 -0.00522619 -1.27042e-18)
(0.00262258 -0.0072318 3.14346e-18)
(1.68404e-05 0.000164701 -3.93992e-19)
(0.000231238 3.27296e-05 1.25262e-18)
(0.00915176 0.000455676 -3.96787e-18)
(-0.0479329 0.00379241 -1.10689e-18)
(0.014794 -0.00307391 -7.74661e-18)
(0.00359311 0.00147479 3.76342e-18)
(-0.0199502 0.0101411 2.65696e-17)
(0.00292723 -0.00488645 5.98832e-18)
(0.000547756 -2.25033e-06 -1.32004e-18)
(-0.062834 0.00894027 -7.6417e-17)
(8.98044e-05 0.00017728 1.68386e-18)
(-0.0565488 0.00131652 2.51348e-17)
(0.00380351 -0.00155687 -6.38753e-18)
(2.77328e-06 5.22031e-06 8.74784e-19)
(0.00148189 0.00335598 -4.18913e-19)
(0.00159513 0.00467504 5.04071e-18)
(-2.23468e-05 0.00341061 -2.19312e-17)
(0.00307413 -0.0116671 4.74468e-19)
(0.00138619 0.00401256 -2.98819e-18)
(0.00195505 -0.000185094 -9.94232e-18)
(0.0307275 0.0167122 -8.82662e-17)
(-0.0372296 -0.00593636 -1.66178e-18)
(-0.0667432 0.0185051 2.76132e-17)
(0.000393054 0.000844469 4.48734e-20)
(0.00491146 -0.0159213 -1.25925e-17)
(2.36548e-06 0.00036049 4.63538e-18)
(0.00194351 -0.000247829 4.97973e-18)
(0.00023878 0.00066726 8.81894e-19)
(-0.00286641 0.00564413 5.54467e-18)
(5.98367e-05 2.94594e-05 -3.97004e-19)
(0.00870603 0.00725473 -3.90237e-18)
(0.00364891 0.00410203 -1.39486e-17)
(0.00151288 0.000585885 -3.78612e-18)
(0.00845575 -0.00349882 -2.69902e-18)
(0.00219082 0.00202465 -6.92284e-18)
(0.000207805 0.00285781 -1.78568e-16)
(0.00151254 0.00472952 7.53457e-18)
(0.00480083 0.00687305 -3.32299e-17)
(0.00134503 0.000318317 6.87396e-18)
(0.000520806 0.00136654 -1.90801e-20)
(-0.00547317 0.00258322 -6.49376e-17)
(-0.0469319 0.00235459 -6.45944e-18)
(0.000277151 0.000731328 -4.25581e-19)
(0.000263361 3.36891e-05 2.01548e-19)
(-0.0635712 0.00900559 7.50964e-17)
(0.00095128 0.000928925 3.11245e-18)
(-0.037733 0.00580333 -1.32633e-17)
(0.00130009 0.000326825 -5.92338e-21)
(-0.051988 0.00259923 1.50103e-17)
(0.00184971 -0.00127285 -3.179e-18)
(0.00229204 0.00698712 8.23422e-17)
(0.00607155 -0.00119611 -5.72017e-17)
(3.4137e-05 0.00253324 -4.88513e-17)
(0.000375699 0.00255991 5.39447e-18)
(-0.0507765 0.0182448 -2.28927e-17)
(-0.000837782 0.00332359 3.07962e-17)
(0.00153189 0.00331661 -3.26618e-18)
(0.0112929 -0.00844033 2.77163e-17)
(-0.00131448 0.00687715 2.70099e-18)
(0.000849732 0.00183049 -6.39811e-19)
(-0.0486531 0.00197698 -1.10897e-19)
(-8.3494e-05 0.00336293 -5.29501e-17)
(-0.0461608 0.00155828 -1.07017e-19)
(0.000117667 0.00266713 -8.87494e-18)
(-0.0363506 0.00139513 8.75395e-18)
(0.00327326 0.00327805 1.06113e-17)
(-0.00645805 0.000908071 -7.7551e-17)
(-0.000851392 0.00336039 1.77773e-17)
(-0.000240121 0.00554433 4.09031e-18)
(-9.34066e-05 0.00562197 -5.07578e-18)
(-0.047893 -0.00325146 -1.13419e-17)
(1.31273e-05 0.000200743 -3.52392e-18)
(0.0020769 0.00487616 -2.04795e-17)
(-0.0089299 0.00382572 1.0909e-17)
(0.000456073 0.00173788 1.33127e-19)
(0.0013285 0.00252812 1.49644e-18)
(-0.045465 0.00209108 1.58197e-17)
(-0.00133277 0.0057199 1.11731e-18)
(0.00148874 0.00191746 3.43536e-18)
(0.00528756 -0.0123822 1.50211e-17)
(-0.00230272 0.00440492 4.66676e-18)
(0.000360747 0.000171514 3.64638e-18)
(-0.0438871 0.00171718 2.11072e-18)
(0.00317597 -0.0121314 5.55902e-18)
(9.77043e-05 0.00019261 -6.80206e-19)
(0.000480502 0.000493027 1.08816e-18)
(-1.8877e-06 0.000339739 -4.51277e-18)
(0.000986088 0.000261189 2.46234e-18)
(0.033829 0.0135581 9.79683e-17)
(-0.0630944 0.00487346 2.18329e-17)
(0.000484912 0.00321487 -2.14458e-17)
(-0.00696331 0.00313164 5.07185e-17)
(0.000243637 0.000856776 8.21508e-20)
(0.00436337 0.00843556 -5.70559e-18)
(-0.00241707 -0.00208561 6.82219e-17)
(0.0072868 -0.00231782 -5.83413e-17)
(-0.0472458 -0.00259521 6.32233e-19)
(-0.0492595 0.00394218 2.87822e-17)
(-0.0687693 0.0142317 1.4339e-17)
(0.000505777 0.000165805 -1.88261e-18)
(0.00199886 -0.0109722 2.78329e-19)
(0.000515728 0.000457928 -1.62491e-18)
(-0.048248 0.000158161 -6.61237e-17)
(0.00180715 0.000750825 3.55034e-18)
(0.000189338 0.00252494 5.9843e-17)
(0.0130503 0.0030181 1.16078e-17)
(0.00296677 -0.00187733 -5.44132e-18)
(2.2293e-05 0.000248213 -1.96291e-18)
(0.00981535 -0.00136864 -4.76235e-17)
(0.00502272 0.00771911 -3.98091e-17)
(0.0113181 0.00086205 -8.69968e-18)
(-0.00198687 0.00143891 2.85565e-17)
(-0.00429175 0.000750011 -6.01223e-17)
(-0.00629353 0.00162855 -8.40478e-18)
(0.00101028 0.0047798 3.41533e-18)
(0.00374554 0.00593674 -4.50619e-17)
(0.000276415 0.000344126 4.0822e-19)
(-0.00449351 -0.00312344 -3.79051e-17)
(-0.0444908 -0.00411923 3.76058e-18)
(0.000716586 0.00147337 -9.13437e-19)
(-0.0131187 0.0164394 -1.01213e-16)
(0.000155546 0.000819769 5.75601e-18)
(0.0261708 0.00441133 4.82998e-17)
(0.00187535 -0.00122715 -3.79403e-19)
(7.86122e-06 0.000173547 -1.47439e-18)
(0.00204702 0.00213161 -2.20564e-18)
(-0.0237737 -0.00498045 1.91368e-18)
(0.00199363 0.00214019 -3.18782e-18)
(-0.0248548 -0.000571104 4.30524e-18)
(-0.0050643 -0.00125156 -6.18201e-17)
(0.00593679 -0.00985411 1.15658e-17)
(-0.000658315 0.00311517 -1.06571e-16)
(0.000871215 0.00179223 -1.27864e-18)
(-0.00115563 0.00324652 -4.12335e-18)
(-0.000831805 0.00322959 4.80874e-19)
(0.000184018 0.000455308 6.60649e-20)
(-0.00149032 0.00551558 -2.56147e-18)
(0.000472498 0.0016963 -5.34173e-19)
(0.000186465 0.000952189 -1.17847e-18)
(0.00678796 0.00777947 2.20662e-17)
(2.71964e-06 1.36685e-05 1.27709e-19)
(0.000224261 0.00103534 -4.41323e-19)
(0.000519377 0.000446561 2.63299e-18)
(0.0246333 0.0125452 5.96436e-17)
(7.2477e-06 0.000114792 -4.13661e-18)
(-0.0370864 0.00107473 -7.13871e-18)
(-0.0198976 -0.00762116 4.48436e-19)
(-0.00348101 -0.000991022 1.43411e-16)
(0.00172883 0.009286 8.5802e-17)
(-0.0314614 -0.00164802 -9.97658e-19)
(-0.0138311 0.00320404 1.81264e-16)
(0.00708091 -0.00235731 7.10025e-17)
(0.000232626 0.000810997 8.08776e-19)
(0.0158479 0.00615743 2.08933e-17)
(0.0025819 -0.00234129 2.83816e-18)
(0.00316033 0.00347694 2.19309e-17)
(0.000104975 0.000449101 3.55562e-18)
(-0.0677266 0.00684838 -2.98958e-17)
(-0.0410946 -0.00494461 -4.5643e-18)
(-0.0149021 -0.00852933 -4.62707e-19)
(0.00113516 0.00293205 -4.43992e-19)
(0.0140662 0.00184903 -4.69203e-17)
(0.000102407 0.00261846 -8.63801e-18)
(0.00264224 -0.00251444 4.70442e-19)
(0.0111881 0.000577645 2.29052e-17)
(0.0016428 0.00219101 -1.43546e-18)
(0.0013778 -0.0106476 -2.23515e-17)
(0.00140465 0.00168976 -2.60294e-18)
(5.94466e-05 3.47839e-05 1.49704e-18)
(-0.0389323 0.0066032 6.11762e-17)
(-0.0464266 0.000583897 1.06751e-18)
(-0.0469553 0.000244248 -3.84718e-18)
(0.00260149 0.00706684 -4.14183e-17)
(-0.00377104 -0.000752001 -1.70463e-16)
(-0.0496267 0.00178564 -2.84237e-18)
(-0.0193298 0.00757877 -2.46149e-17)
(-0.0458744 0.00357069 3.20882e-17)
(0.00055688 2.24231e-05 -5.63701e-18)
(0.00970447 -0.000509209 4.80011e-17)
(0.00168887 0.00218027 2.66073e-18)
(0.000573813 0.00155644 -9.80513e-19)
(0.0224699 0.00492649 -5.45445e-17)
(0.00936847 0.000771497 -2.45688e-17)
(0.000436782 -3.27813e-05 -7.24878e-19)
(0.00861474 0.00415163 1.92196e-19)
(0.00705738 -0.0016569 7.96248e-18)
(-0.0466465 0.00392826 2.18506e-17)
(0.000198811 0.000475333 -2.22033e-19)
(0.0124735 -0.00613197 4.42052e-17)
(-0.00546096 0.00390232 3.56821e-17)
(0.00555544 0.00739723 -2.99539e-17)
(-0.0395382 0.000699896 9.34406e-19)
(8.33306e-06 0.000105111 8.19835e-20)
(0.000703141 0.00150794 9.39563e-19)
(0.000421653 1.37987e-05 5.32337e-18)
(0.0024058 0.00426551 -1.60684e-19)
(0.000498235 0.000153248 -3.47111e-18)
(-0.0263595 -0.00933782 -4.11034e-18)
(0.000429048 0.0032526 2.70742e-17)
(0.00149205 0.00397041 -1.61027e-18)
(-0.00689479 -0.00318803 -1.72293e-17)
(0.00448641 0.00118271 -3.77677e-18)
(0.00943436 -0.00851678 2.6285e-18)
(-0.0215314 0.00850243 1.04793e-16)
(-0.00240705 0.00580461 1.67468e-18)
(0.00575154 -0.00969346 8.71137e-18)
(0.00292256 -0.0119021 6.17255e-18)
(0.0124254 -0.00649682 -1.97961e-17)
(0.00750995 0.00484733 -1.65906e-17)
(0.0168612 0.00327556 7.89087e-18)
(0.00516942 -0.00439507 1.16281e-17)
(0.00418331 -0.010011 5.48443e-18)
(-5.544e-05 0.00310219 2.92072e-17)
(0.00435974 -0.00525183 -1.72367e-17)
(0.011319 -0.00364686 1.8478e-17)
(0.00050232 1.64402e-05 2.78435e-18)
(-0.0297807 0.0143094 -4.22594e-17)
(0.00491133 -4.74985e-05 1.19552e-18)
(0.00109425 -0.000314505 2.29382e-18)
(0.0023444 0.00415597 -1.03337e-17)
(0.00284517 0.000577717 1.1331e-18)
(-0.0467343 0.00381266 1.05782e-17)
(-0.0703665 0.0125599 5.1242e-17)
(0.000907742 0.000896864 3.93609e-18)
(0.000543712 -9.37242e-07 -2.47805e-18)
(-0.0278415 -0.00863756 -2.09772e-18)
(-0.0127412 0.00251766 -1.48607e-16)
(2.4356e-06 1.02921e-05 -6.4465e-19)
(-0.039354 0.00133409 4.44108e-18)
(0.00266654 -0.000751281 -5.39687e-18)
(0.00296788 0.00952089 -7.25462e-17)
(0.000923856 0.000979167 3.47603e-18)
(-0.0311121 0.00446377 -3.33108e-17)
(0.0264046 -0.0136384 -6.50538e-19)
(0.00284994 0.00336151 3.30584e-19)
(0.00199384 0.0013038 -4.42311e-18)
(-0.0317617 -0.00236965 1.33866e-18)
(0.00435327 0.011096 2.92396e-17)
(-2.15398e-05 -0.0020749 -1.46506e-17)
(1.75347e-06 1.23102e-05 -3.26922e-19)
(-0.0357435 0.00349381 -3.52322e-17)
(2.61399e-05 0.00291995 2.87014e-18)
(-0.0624634 0.00825595 1.06196e-16)
(0.00111596 -0.000283987 -6.20746e-18)
(-0.00314265 -0.00269059 -5.60128e-17)
(-0.0520001 0.0159928 2.65566e-17)
(0.00699045 -0.00272774 6.3201e-18)
(0.000501193 0.000488058 1.07048e-18)
(0.00118031 0.00178387 -6.38889e-19)
(0.00233122 -0.00698519 -7.98442e-18)
(0.0355476 0.00386097 1.19836e-16)
(0.000425309 -4.40959e-05 2.92753e-18)
(0.000451498 0.00046952 1.3604e-18)
(0.00019059 9.16015e-05 5.70667e-19)
(0.000203046 9.59519e-05 3.28953e-18)
(-0.0262197 0.00467043 -5.60191e-17)
(0.0230542 0.00484022 4.23197e-17)
(0.00694735 -0.0025946 -4.6795e-20)
(0.0035925 0.0114917 3.76737e-17)
(0.000233796 2.58059e-05 -1.06252e-18)
(0.000418073 0.000177855 -3.44555e-18)
(0.0139032 0.00142663 -1.70442e-17)
(-0.0476668 0.0140476 5.08779e-17)
(0.00544577 0.00239847 1.408e-17)
(0.00160643 0.000626284 1.16772e-17)
(0.000201725 0.000956758 3.36168e-18)
(-9.34849e-07 0.000840965 -2.66811e-19)
(-0.0611124 0.00858266 -7.4261e-17)
(-0.00844603 -0.00291041 5.5346e-17)
(3.69715e-05 0.000172022 4.35003e-19)
(3.07015e-05 0.000837568 5.6108e-18)
(0.0020044 -0.0107558 2.02969e-17)
(0.00526679 -0.00422678 -1.27874e-18)
(0.00600818 -0.00132854 -3.36406e-18)
(0.000656789 0.00149036 -1.17297e-18)
(0.00192371 0.00222723 -5.16479e-18)
(0.00244076 0.00320686 2.83617e-18)
(0.0110126 -0.00384808 -7.95386e-18)
(-0.00115299 0.00665455 -1.64648e-17)
(0.00318069 0.0119186 -3.05226e-17)
(0.0167725 0.00590805 3.55293e-17)
(0.0136478 -0.00141351 -8.22924e-19)
(-0.000909745 0.00507294 -2.60161e-17)
(0.00512381 0.00683298 1.81483e-17)
(0.000362424 0.00084153 7.08952e-19)
(-0.0371586 0.00346922 -6.23072e-18)
(-6.0259e-06 0.000810548 3.79571e-18)
(0.00136329 0.00259728 -1.51438e-18)
(0.00325129 -0.00133293 -3.40795e-18)
(-0.0216098 0.0119166 6.61083e-17)
(0.000680031 0.00558326 -1.20435e-17)
(0.000359947 4.12837e-05 -1.0157e-19)
(0.00339778 0.00719828 6.03179e-17)
(0.00769795 0.00840058 -3.24351e-17)
(-0.00380849 -0.00850813 -1.01625e-18)
(0.0136102 -0.00101712 -1.27966e-17)
(0.00037302 0.00373797 1.49375e-17)
(0.00732459 -0.00182502 4.84718e-17)
(2.12805e-05 0.000274282 1.12377e-18)
(-0.0633047 0.0180621 1.00363e-16)
(0.00276825 0.00712748 -3.22699e-17)
(-0.055079 5.44724e-05 -2.8504e-18)
(0.00135578 0.00162072 5.52167e-19)
(0.00510273 0.00163449 6.4757e-18)
(0.00422145 0.0116312 -1.32721e-17)
(-0.0498548 0.00425668 -5.40315e-18)
(-0.0153232 0.00124287 -8.066e-17)
(0.0107916 -0.0011656 -2.49446e-17)
(0.00250763 0.00716254 7.44463e-17)
(0.00124995 0.00291939 3.54358e-19)
(0.00292223 0.00203059 2.12457e-18)
(0.000656261 0.00151446 -1.46666e-18)
(0.000220764 0.0044794 -1.06072e-18)
(-0.00038316 0.00372503 8.41239e-18)
(-5.04e-05 0.00168641 4.28101e-18)
(0.00908508 -0.0017507 7.2828e-18)
(-0.000366861 0.00339261 -1.89093e-17)
(-0.0556616 -0.000138628 3.37917e-18)
(-2.35849e-05 -0.00210629 -3.66418e-17)
(0.00207546 0.00254504 -1.81799e-17)
(0.00907487 -0.00856683 -4.26551e-18)
(0.0305864 -0.0165985 -1.03012e-17)
(0.00156515 0.00352313 6.04998e-18)
(0.000294406 0.0019686 1.09145e-17)
(-0.000769063 0.00161591 -4.77526e-17)
(-0.0722728 0.01783 1.47526e-17)
(-0.0677639 0.00582482 -5.51606e-18)
(0.0048838 0.0116892 -7.24814e-17)
(0.000570101 9.35976e-06 1.5724e-18)
(-0.0444295 0.00193031 -5.93924e-18)
(0.00254121 -0.00695126 2.08942e-18)
(0.000357838 3.12331e-05 -3.53062e-18)
(0.00440477 0.00313137 -2.1617e-17)
(0.00907171 -0.00565923 -2.15133e-17)
(9.97751e-05 0.00337789 1.71836e-17)
(0.00734837 0.00757263 -2.84113e-17)
(-0.0344225 -0.00649874 1.16926e-19)
(0.016529 0.00266829 2.15006e-17)
(0.00484229 -0.00390219 4.71344e-17)
(-0.0634302 0.0184711 4.78784e-17)
(0.00299026 0.00089906 5.32277e-18)
(-0.0459164 0.00348224 1.41269e-17)
(8.54812e-06 0.00013204 2.81995e-18)
(3.94339e-05 0.000184967 -5.45302e-19)
(0.0014207 -0.0155883 1.86356e-18)
(-0.0720677 0.017502 4.92849e-17)
(-0.000490157 0.00304893 -7.95245e-17)
(0.00301536 0.000818823 -5.53945e-18)
(0.00141269 0.00196689 8.49106e-19)
(3.5775e-05 0.000810707 -3.33559e-18)
(0.00304241 -0.00498978 1.47883e-18)
(0.000166794 0.00297674 -1.24065e-17)
(0.0029462 -0.00861088 1.18679e-17)
(0.00302235 0.00205657 -2.09955e-18)
(0.00587431 -0.00939306 -2.1635e-17)
(0.00960771 -0.0016173 -1.97766e-17)
(0.000940963 0.00100939 2.22405e-18)
(0.00130795 0.00899854 -3.67684e-17)
(0.00277902 -0.00847787 -2.07876e-18)
(0.000764837 -0.00972042 -5.6293e-18)
(0.000489791 0.000881718 -6.48502e-19)
(0.0166123 0.00154193 -6.39458e-17)
(0.00280569 0.000673939 8.64848e-18)
(-0.00612167 -0.00101098 1.45358e-16)
(0.00391566 0.00625031 2.68597e-17)
(0.000808401 0.00559993 1.8856e-17)
(0.00512813 0.00175892 -1.00729e-17)
(0.000294144 0.00010131 -4.25879e-18)
(0.00107615 -8.14844e-05 1.18178e-18)
(0.00181304 0.000933772 -5.2367e-18)
(4.38718e-05 0.00586788 -1.60314e-18)
(7.20682e-05 0.00297057 -8.69279e-18)
(0.00897967 0.0128162 3.32148e-17)
(-0.00788311 0.00349498 -5.29369e-18)
(0.00920127 -0.00270988 2.19091e-17)
(0.000343805 0.000172795 -5.32145e-19)
(0.0159282 0.00416063 -1.08935e-17)
(-0.000591455 0.00303176 1.29999e-17)
(0.00457664 -0.0125997 -5.28415e-19)
(0.0016458 -0.000521661 3.34376e-18)
(0.000128823 0.00292584 -5.45334e-18)
(0.000431126 0.000473048 -1.85183e-18)
(0.00360691 -0.00290414 1.89443e-17)
(0.00378386 0.00157258 -5.00729e-18)
(-0.0505456 0.0162467 1.39951e-17)
(9.90346e-06 0.000163253 8.42083e-19)
(-0.0151106 0.00428163 -1.80365e-17)
(0.003807 -0.0026702 9.05138e-18)
(0.00597129 -0.0102259 1.68472e-17)
(0.00430239 0.00706289 -3.05612e-18)
(-0.0339888 0.00530881 -7.68527e-17)
(0.00102268 0.00575779 3.96301e-19)
(0.00114284 0.00173442 3.33565e-19)
(-0.0467504 0.0041208 -2.1136e-17)
(-0.0223768 0.00250825 4.60552e-17)
(0.000891546 0.00141145 -2.17663e-19)
(0.00316103 -0.00137385 1.15954e-17)
(0.018186 -0.0101199 -4.33874e-17)
(0.00626798 0.0113641 -7.13236e-17)
(0.01433 -0.00332585 -7.96135e-18)
(6.31725e-06 1.49724e-05 -4.23416e-19)
(0.00204633 0.00129588 1.41476e-17)
(0.00245877 0.00702238 7.37093e-17)
(0.00297756 -0.00196484 6.02765e-18)
(0.0110841 0.00124167 -4.1766e-17)
(0.00631188 -0.00622403 -3.74171e-17)
(0.00110317 -0.000106327 2.55331e-18)
(0.00738042 -0.0045057 -9.71316e-18)
(-0.0440392 -0.00435883 6.45018e-18)
(0.00157822 -0.000617912 -3.78705e-18)
(0.00217701 -0.00153638 -6.00072e-18)
(0.000170709 9.70043e-05 -8.87358e-19)
(-0.0467694 0.00272607 -3.47504e-18)
(4.07207e-06 7.75057e-05 3.72996e-18)
(0.00111531 0.00285443 -3.41514e-18)
(0.00178432 0.000186127 -1.62461e-17)
(0.00114829 0.00247726 1.76536e-19)
(-0.0723993 0.017202 2.84786e-17)
(0.00372289 0.0025615 1.27821e-17)
(8.22568e-05 0.00342866 -2.69083e-17)
(0.000183864 0.000102082 1.23654e-18)
(0.00123352 0.00526597 -3.08362e-18)
(0.000217871 0.000640917 -7.53781e-20)
(0.00698671 0.00505996 -1.2318e-17)
(0.000277888 6.23691e-05 3.25633e-18)
(0.00166946 0.00608814 -2.04218e-17)
(0.00267 -0.000688823 -1.17391e-17)
(-0.0224401 -0.00605221 -9.78727e-17)
(-0.00323313 0.00212889 -1.36151e-17)
(-0.0471958 0.0135843 -6.61692e-17)
(0.000405925 1.33969e-05 -1.54164e-18)
(1.69558e-05 0.000226858 3.47421e-18)
(0.00520482 0.00661875 -1.8886e-17)
(0.00449606 0.00512637 -1.8893e-17)
(-0.0467218 0.00259651 8.98416e-18)
(-0.0609423 0.01326 -3.10817e-17)
(0.00896074 0.00158609 1.18376e-17)
(0.000160692 0.000996868 -4.6895e-19)
(0.0203395 0.0117943 -3.1417e-17)
(-0.000328387 0.00297837 1.92173e-16)
(0.00117803 -0.00983073 1.19788e-17)
(0.00703157 0.0128076 -9.47897e-18)
(0.00880881 -4.81971e-05 2.65204e-18)
(-0.0289926 -0.00663093 6.52404e-18)
(0.00320961 0.00459359 -3.84141e-18)
(0.00296095 -0.00471887 -1.89831e-17)
(0.0138686 0.00677772 1.42787e-17)
(-0.000970359 0.00542651 -1.44525e-19)
(0.00871662 0.00169177 -1.69303e-17)
(-0.000531605 0.00279332 9.64607e-17)
(0.00843673 0.00219364 4.97175e-17)
(0.00259366 -0.0015477 6.77397e-18)
(0.00931627 -0.00588296 2.68452e-17)
(0.0016129 0.00335932 4.18747e-18)
(0.00129736 -0.000303824 1.02288e-17)
(0.00363845 -0.00281107 -1.5781e-17)
(0.00398475 0.00495406 -4.11386e-17)
(0.00263865 0.00331958 4.45078e-18)
(0.000202632 0.000682404 -6.1456e-19)
(0.000249418 2.09039e-05 -1.49662e-18)
(0.00943815 -0.00221008 6.4487e-18)
(0.00312966 -0.000397968 5.03252e-19)
(0.0112913 0.00152806 4.75411e-17)
(0.00015429 0.000952509 4.56263e-19)
(0.00011229 0.000767878 1.72576e-18)
(4.857e-07 6.35611e-05 -2.88461e-18)
(0.00181334 0.00223697 -1.6e-18)
(0.000674148 -0.000257899 1.57556e-18)
(0.00263025 0.00289846 9.32753e-18)
(0.000152287 0.000102061 -2.9202e-18)
(-0.0304158 0.00434812 -4.24805e-18)
(0.00365535 -0.00654162 9.07873e-18)
(0.000597008 0.0034032 7.74221e-17)
(0.000460956 0.000160536 1.35227e-18)
(6.36418e-06 8.19095e-05 4.56389e-19)
(-2.70577e-05 0.0037643 7.52291e-17)
(0.00778278 0.00491044 3.11049e-17)
(2.29192e-05 0.00214021 -1.24371e-19)
(-0.0615577 0.0117841 3.84681e-17)
(0.00274596 0.00632815 -1.27337e-17)
(-0.0516816 0.000215441 7.34482e-17)
(0.00377496 -0.0027673 -5.09256e-18)
(0.014962 0.00233617 2.25981e-17)
(0.00247778 4.03561e-05 8.2198e-18)
(-2.52074e-06 6.26153e-05 1.35394e-18)
(0.000211656 8.52612e-05 -2.6244e-18)
(0.00213653 0.00206244 2.94137e-18)
(0.00578627 -0.00092648 1.92822e-18)
(4.60301e-06 6.8321e-05 2.6381e-19)
(-0.043889 0.00926214 -1.59761e-17)
(0.00266695 0.00297971 -5.82325e-18)
(-0.0022788 -0.00216132 -8.90888e-17)
(0.000819986 0.00480358 8.79768e-19)
(0.00283319 0.00644038 8.12762e-18)
(0.00597537 -0.0100089 -1.60358e-17)
(0.000781254 0.000107348 2.50387e-19)
(5.71513e-08 1.73992e-06 4.70141e-19)
(0.0038005 -0.0066506 -1.46479e-17)
(4.35405e-05 0.00110446 -4.92955e-18)
(0.000692788 0.00196124 -3.92285e-18)
(-0.066632 0.0145685 9.48342e-17)
(0.00144958 0.00209475 -1.02329e-18)
(2.48767e-06 0.000337914 2.81971e-18)
(0.00433637 0.00215675 8.80088e-18)
(0.000282161 0.000302545 1.27633e-18)
(0.000536334 1.30455e-05 -3.16848e-21)
(0.00285136 0.00324311 -1.55944e-17)
(-0.000120783 0.00300029 -1.18029e-17)
(-0.045542 0.00247222 -5.49329e-18)
(0.00338083 0.00407096 -1.01094e-17)
(0.00156186 -0.000655786 8.16905e-18)
(0.00033202 3.39491e-05 1.24788e-18)
(-0.0515947 0.0044741 -7.99453e-19)
(-9.30914e-05 0.00581321 3.42753e-19)
(0.000937987 0.00169482 -5.92153e-20)
(0.00137058 0.00159123 1.73094e-19)