/*--------------------------------*- C++ -*----------------------------------*\
| =========                 |                                                 |
| \\      /  F ield         | OpenFOAM: The Open Source CFD Toolbox           |
|  \\    /   O peration     | Version:  v2012                                 |
|   \\  /    A nd           | Website:  www.openfoam.com                      |
|    \\/     M anipulation  |                                                 |
\*---------------------------------------------------------------------------*/
FoamFile
{
    version     2.0;
    format      ascii;
    class       volVectorField;
    location    "600";
    object      ddtCorrDdt0(U);
}
// * * * * * * * * * * * * * * * * * * * * * * * * * * * * * * * * * * * * * //

dimensions      [0 1 -2 0 0 0 0];


internalField   nonuniform List<vector> 
13851
(
(-0.000303142 0.00220749 4.2916e-20)
(0.0113995 0.0125483 4.60926e-19)
(-0.000674419 -0.000590085 -1.4212e-19)
(-5.64048e-05 0.00206918 -1.89317e-20)
(-0.00255237 0.00102514 -3.69008e-19)
(0.024137 0.00627509 6.63727e-20)
(-0.000967218 -1.68728e-05 1.90235e-19)
(-0.0022199 -0.000547061 -1.88479e-19)
(0.00179505 0.000455474 4.54519e-20)
(-0.00214855 -0.00526085 -9.18657e-19)
(0.00069485 0.00278465 5.60381e-20)
(0.0107051 -0.00101159 -1.11318e-18)
(0.0177937 0.00461513 1.55746e-18)
(0.0173093 0.00701733 -2.20993e-18)
(-0.000450626 2.64349e-05 -1.58579e-18)
(-0.00363973 -0.00017341 -7.8839e-19)
(-0.00230554 0.000131604 3.00848e-20)
(-0.00153945 0.00244188 -4.0436e-19)
(0.0122645 0.0063567 -2.57044e-18)
(0.00175316 0.000451888 1.90011e-19)
(-6.55399e-05 0.00199266 -2.587e-19)
(-0.000856112 -0.000310924 4.83038e-19)
(0.00108694 -3.16361e-05 4.18621e-20)
(0.0015406 -4.2316e-06 -7.7758e-19)
(0.000945795 -2.64653e-05 -1.87378e-19)
(-0.00221169 -0.000673898 1.50882e-19)
(-0.00204869 -0.000105591 -2.64565e-20)
(0.000646626 0.000981717 -4.18244e-18)
(-0.000380816 0.00210538 -2.545e-19)
(-0.00204369 0.00154461 3.37999e-19)
(0.0245724 0.00310458 -8.75436e-21)
(-0.00234836 0.000105999 -2.34962e-20)
(-0.000798338 -0.00082842 -7.85541e-20)
(-0.0237325 0.0746972 2.76572e-18)
(0.00155816 1.51177e-05 6.09708e-19)
(-0.00294878 -1.80501e-05 3.74346e-18)
(-0.00375573 0.000308084 1.751e-18)
(0.00314532 0.00343393 2.3282e-18)
(-0.00176648 -0.00573433 7.60769e-19)
(-0.0202235 0.0639987 -8.38413e-19)
(-0.000109759 0.000938592 -3.44095e-19)
(0.000951455 -0.000321509 -2.88661e-20)
(-0.00264093 -0.0031022 -2.38804e-17)
(0.000466552 0.00327008 1.25559e-19)
(0.00322289 0.00642549 -4.4791e-20)
(-0.0090295 -0.00838538 4.02797e-18)
(0.0100316 0.000859239 1.27835e-19)
(0.000283 0.000916428 1.92923e-19)
(-0.00207962 -0.000119464 9.81046e-21)
(0.00830557 -0.00388421 -1.8026e-19)
(-0.00335635 0.000137692 -1.08531e-18)
(-0.00495729 0.00060066 1.07926e-17)
(0.00134446 -0.00754341 7.36726e-18)
(-0.000436314 2.22188e-05 5.95401e-19)
(0.000169238 7.33055e-05 5.69975e-19)
(0.000945274 -0.000335712 1.9868e-20)
(0.00178712 -3.88695e-05 1.74677e-19)
(0.00560302 -0.00567302 2.04747e-18)
(-0.00194293 0.00151859 -9.24051e-19)
(-0.0010702 5.80699e-05 -2.37266e-18)
(0.00479607 0.00361344 -2.10247e-18)
(0.00766978 0.0106935 -2.12373e-18)
(0.0017907 -0.00109308 -2.74163e-19)
(-0.00293077 0.00139684 -2.06271e-18)
(0.000614769 0.0096103 -7.48718e-19)
(-8.65346e-05 0.00292183 -2.62511e-19)
(0.00621551 0.00114402 -1.35147e-18)
(0.0144368 -0.00650924 2.29865e-19)
(-0.00254466 -0.000134343 -3.95763e-19)
(-0.00145512 0.0023678 -2.30416e-19)
(0.0129954 0.000454697 -7.16672e-19)
(0.0165296 0.00375045 4.85556e-19)
(0.0153746 0.0116562 3.56398e-19)
(-0.000441117 2.15505e-05 6.94739e-19)
(0.000258805 0.00014992 8.98793e-19)
(0.00193684 0.000696989 4.17069e-19)
(-0.00105806 -0.000310894 3.8587e-19)
(0.0165971 -4.15489e-05 7.00798e-18)
(-0.00249253 0.000104621 -2.30634e-18)
(0.0146301 0.000457016 -8.93134e-19)
(-0.00132262 0.000121493 -3.77515e-19)
(0.013161 -0.0177178 -5.07803e-19)
(-0.000606774 0.000270033 9.48041e-19)
(-0.00834471 -0.0068646 -1.13027e-17)
(0.00285452 -0.000335214 -5.57298e-20)
(0.0128533 -0.00206164 1.59603e-18)
(0.0158178 -0.00250324 -5.40739e-19)
(0.0141129 -0.0113184 5.49836e-18)
(-0.00224198 -3.63984e-05 -3.42588e-20)
(0.00236465 -0.000608015 -5.14382e-19)
(-0.00299652 -0.000154941 -1.37553e-18)
(-0.0100472 0.00759108 1.86629e-19)
(0.0152113 -0.0108811 1.18695e-19)
(-0.00236428 -0.000106098 1.55054e-19)
(-0.00221315 -3.78292e-05 3.58051e-20)
(0.00162976 -3.34007e-05 8.56299e-20)
(-0.00270421 0.00111737 1.94134e-18)
(0.0149544 0.000560449 -3.29012e-19)
(0.00826198 -0.00538407 5.19271e-19)
(0.00146139 -1.78179e-05 -1.80573e-19)
(0.0137602 -0.00508533 -7.32699e-18)
(-0.0027819 0.000137511 -5.88929e-19)
(-0.000776394 0.00150295 1.13315e-19)
(-0.00194355 -0.000302648 -3.76027e-20)
(0.000640966 -2.2956e-05 4.90762e-20)
(0.0115973 -0.0122583 -1.57769e-18)
(-0.0029568 0.000167844 -2.81302e-18)
(0.000820288 -0.000246562 1.0657e-19)
(0.0214803 0.00434752 -8.28266e-19)
(0.02007 0.0131054 2.05424e-19)
(0.00152214 -2.13448e-05 -6.23323e-19)
(0.00241526 -0.000626043 3.2095e-19)
(-0.0078096 0.00708027 -3.7094e-19)
(0.000908507 -6.21592e-06 -5.28202e-19)
(0.0016434 -2.35782e-05 2.42386e-19)
(0.0351365 0.0511151 1.00266e-18)
(0.0154575 0.00109631 -3.87072e-18)
(0.000902471 -0.000187667 1.88482e-19)
(0.000930725 5.64917e-05 -3.71714e-19)
(0.000281161 5.91469e-05 1.81829e-19)
(-0.00202188 -0.00385113 8.36943e-18)
(-0.00193373 -0.000279463 -1.03749e-19)
(0.0175246 0.00446489 -5.99176e-18)
(0.053564 0.0399219 -1.5176e-19)
(-0.0168756 0.00247901 3.39129e-20)
(0.00165291 -0.00101641 -1.99875e-19)
(-0.0214067 0.0183348 -8.27481e-20)
(-0.00263059 0.000152303 5.77844e-19)
(6.18347e-05 0.00188891 3.73256e-19)
(-0.00216196 0.00274994 2.17064e-18)
(-9.45354e-05 0.000902261 1.32161e-19)
(0.00117799 0.000377123 1.30832e-18)
(0.0143214 0.000412167 1.41454e-18)
(-0.000599433 0.000248836 -8.66764e-19)
(0.0285836 0.0490802 -1.44144e-18)
(0.00109779 0.000147141 -3.4633e-19)
(0.000901959 -0.000170508 2.70754e-20)
(0.0160806 0.00326422 2.82296e-18)
(-0.0139296 0.014913 -8.33547e-19)
(0.004873 0.00924585 -3.14995e-19)
(0.0125379 -0.00602158 3.12821e-18)
(0.000202767 6.87297e-05 -6.34607e-19)
(0.00147785 0.000823806 -4.82498e-19)
(0.001204 -0.000555163 -2.64892e-20)
(-0.00203511 0.000480211 -1.06521e-18)
(0.000172238 0.000354247 1.92317e-19)
(0.000574001 -0.000667428 1.40976e-20)
(-0.00177413 0.00274299 -3.46437e-18)
(-0.000941107 -7.68474e-06 2.47444e-18)
(0.00430833 0.00813419 -2.38495e-20)
(-0.00326261 -0.000242532 -5.72301e-19)
(0.000342216 7.47328e-05 -2.94381e-19)
(0.0173836 0.00543923 2.2854e-18)
(0.0017883 -4.03235e-05 -5.01724e-19)
(-0.00183752 0.0001078 -6.59054e-19)
(-0.00201236 0.00052825 1.04241e-18)
(0.000817684 0.000903752 8.96127e-19)
(-0.00183323 0.00117911 6.11197e-19)
(-0.00501517 0.000885222 -7.22723e-18)
(-0.00330993 0.000192976 -3.65765e-19)
(0.000812912 -0.00042565 -1.51711e-21)
(-0.00234151 -0.000177437 -3.91808e-19)
(0.00469523 -0.00585686 -5.1094e-18)
(0.00121114 0.000363154 -2.57636e-19)
(-0.00313015 0.00168473 1.31605e-19)
(0.00111428 -0.000449909 8.01178e-20)
(0.000486597 -0.00083891 -1.01995e-20)
(-0.002574 -0.000136257 7.34535e-19)
(4.60373e-05 0.00180451 1.41813e-18)
(0.00864937 -0.00233678 -6.71184e-18)
(0.015543 -9.47024e-05 -1.36895e-18)
(0.00184084 6.27038e-05 3.6442e-20)
(0.000766935 0.000909116 4.36044e-19)
(0.00684277 0.0103492 -1.69176e-18)
(0.00121087 0.000330521 1.48564e-18)
(0.000410371 -0.00990831 6.98708e-20)
(-0.00258425 0.000120885 -3.77431e-19)
(0.002096 0.000448266 -9.7879e-19)
(0.0146323 0.00621847 6.3404e-18)
(0.000818143 -0.000292113 2.06427e-21)
(-0.00244704 8.29699e-05 6.97884e-21)
(0.0188877 0.00367633 -4.20829e-19)
(-0.000579812 0.000205552 -1.4434e-18)
(-0.000736566 -7.62394e-05 -2.75849e-19)
(0.000650899 -0.000106681 8.96037e-21)
(0.00140062 -4.52821e-05 4.70069e-19)
(-0.000338257 0.00295343 -1.89852e-19)
(0.000253265 9.11856e-05 8.45299e-19)
(-0.00219605 0.00142087 -1.92445e-18)
(-0.00950911 -0.00441029 -2.38309e-18)
(0.010925 -0.00385938 -1.63192e-19)
(0.00183597 -0.00727284 -1.04072e-18)
(0.00248005 -0.000698398 2.60305e-19)
(-0.00250171 -0.000111036 1.3656e-18)
(0.0126113 0.0100939 1.66006e-18)
(-0.00180321 0.000152875 -6.24504e-19)
(0.00160396 0.000906176 2.70034e-19)
(-0.002108 -0.015068 1.88503e-19)
(0.00197488 0.000540688 6.70576e-19)
(0.00191581 0.000722655 3.52232e-20)
(0.00168696 -0.00103375 2.2891e-20)
(-0.0126348 -0.00236259 5.00484e-18)
(0.00070787 2.72951e-05 5.59203e-19)
(-0.000385078 0.000466082 -1.34536e-18)
(-0.00604851 -0.003889 -5.13956e-19)
(-0.000607936 0.000211443 2.46789e-18)
(-0.00158131 0.00443771 1.22044e-18)
(-0.00227284 6.34934e-05 -4.11193e-20)
(0.0160614 -0.000642024 1.3271e-18)
(0.000788925 -0.000354724 6.00902e-21)
(0.0195125 -0.00160277 6.02465e-18)
(-0.000729056 0.00144697 -4.88231e-19)
(-0.0194632 -0.00883771 3.83897e-19)
(0.000758904 -0.000258488 -3.7317e-20)
(0.00114407 -0.000508213 3.43914e-20)
(0.00282743 0.000210047 -5.58595e-20)
(0.00249331 0.00191106 -6.90363e-19)
(-0.00826075 -0.00870484 1.05651e-17)
(-0.000463099 7.01457e-05 1.29006e-18)
(0.0163344 -0.000737876 2.58502e-19)
(-0.0023137 5.71428e-05 1.42147e-19)
(-0.0013625 0.000112588 6.90865e-19)
(0.0198063 0.000633962 9.21012e-18)
(-0.00413621 0.00213972 6.45124e-18)
(0.0184111 7.97394e-05 2.16922e-18)
(0.00110803 -2.03314e-05 2.71907e-20)
(-0.00242226 -0.000126954 -3.58753e-19)
(0.000575271 -1.47466e-05 -6.23666e-20)
(0.00147221 -0.00842885 5.69696e-18)
(0.000753086 -0.000274103 8.21405e-21)
(-0.00232513 -0.000743918 -2.62763e-20)
(-0.00203447 0.0161258 -3.6998e-19)
(0.00183025 5.04886e-05 5.67143e-19)
(0.00242933 -0.000680728 -1.61243e-19)
(-0.0032061 6.53439e-06 3.00407e-19)
(-0.00220477 0.00529699 -5.29507e-19)
(0.00162537 0.00445536 -1.62417e-18)
(0.00173564 0.00756223 7.39494e-20)
(0.00118334 -0.000545345 2.17842e-20)
(-0.000415229 0.000464799 -1.03813e-18)
(0.0262347 -0.00497589 5.56176e-20)
(-0.00498233 -0.0115683 -9.88465e-19)
(0.000921292 -0.000519655 3.36599e-21)
(-0.00620212 -0.00449211 1.19469e-18)
(0.000725443 -3.82344e-05 2.44599e-20)
(0.0169486 -0.000802656 -4.27755e-18)
(-0.00276524 0.000187356 -1.12959e-18)
(-0.0241291 0.0430905 -7.13729e-19)
(-0.0020551 0.000620165 8.90702e-19)
(-0.00266012 0.000393361 -1.17371e-18)
(0.00752015 0.00424738 1.4115e-19)
(-0.00870783 -0.0118908 8.40379e-19)
(-0.00137355 0.000462038 1.13323e-19)
(-0.00208224 0.000570917 -6.8357e-19)
(-0.0029987 -6.58107e-05 3.84917e-18)
(-0.00648869 -0.0209538 -5.85668e-19)
(-0.00979584 -0.00348079 2.40779e-18)
(0.0178299 0.00311209 -2.12496e-18)
(0.010836 -0.00159512 -5.65855e-19)
(-0.000600141 4.85169e-05 1.3497e-18)
(0.00116388 -0.000517551 3.47965e-20)
(-0.00142976 0.00218384 2.25695e-19)
(0.0077966 0.0490389 -1.56105e-19)
(0.00154899 -0.000764246 1.17774e-20)
(0.0150641 0.00569162 1.04416e-19)
(-0.00180649 0.000176564 1.18963e-19)
(-0.0013433 0.000436295 -3.96449e-19)
(-0.00234229 -0.00010063 -1.53853e-20)
(0.020129 0.000867939 -3.63039e-18)
(0.00255825 -0.000990804 -1.121e-19)
(0.00772134 0.00305585 -4.06792e-19)
(-0.00184758 0.000131821 1.60172e-19)
(-0.00505468 0.0365072 -1.23603e-18)
(-0.00249131 5.45679e-05 7.00521e-19)
(-0.00367138 -1.23961e-05 2.9684e-19)
(0.00117777 0.000410257 -3.32378e-19)
(0.0135324 -0.0175801 4.73101e-19)
(0.00169666 -0.00140978 1.1563e-19)
(0.021981 0.00331678 5.15355e-18)
(0.00190893 0.00277362 1.25696e-19)
(0.000919375 -0.000515403 -5.41718e-21)
(0.000749036 -0.000331718 3.31789e-20)
(0.000627854 -2.49223e-05 8.42053e-21)
(-0.00295993 -7.88283e-05 -1.55534e-18)
(0.0100532 0.0417537 -1.25099e-19)
(0.00392407 -0.0108886 9.03653e-19)
(0.00181072 0.00060351 -8.29582e-19)
(-0.000496599 1.16284e-05 3.8922e-19)
(0.000156969 0.0319661 5.09934e-19)
(0.00377681 -0.00804989 -1.24426e-19)
(-0.00110902 0.00316233 -4.00967e-18)
(-0.001916 0.001407 5.33151e-19)
(-0.00109505 6.81955e-05 1.03535e-18)
(-0.00256834 -7.89261e-05 -2.67818e-18)
(0.00523536 -0.0113006 -1.48908e-19)
(0.0151298 0.00577673 -5.21948e-18)
(-0.00308277 0.0013541 4.8377e-19)
(0.0132615 -0.00261111 4.18878e-18)
(0.00115432 0.00045937 3.26924e-19)
(0.0172869 -0.00096287 5.19991e-18)
(-0.0023184 -0.000178124 2.68075e-19)
(-0.00231828 0.00017584 3.81859e-19)
(0.0214328 0.00264965 1.82821e-18)
(-0.000773426 0.00099868 6.11415e-19)
(0.0152267 -0.010223 7.73792e-19)
(0.0194356 -0.000848118 -2.8048e-18)
(0.00178629 0.000575148 1.00599e-19)
(-0.00279671 -8.54065e-05 -3.94036e-18)
(-0.00237772 -0.00010593 -2.14662e-20)
(-0.00182327 0.00138796 3.3499e-19)
(-0.0169251 0.0145063 -2.5792e-18)
(-0.00317165 0.00140018 -5.09127e-20)
(-0.00130755 0.000539583 4.24286e-20)
(0.0185105 0.00101459 -7.92809e-18)
(0.00100702 -0.00035884 -1.36362e-19)
(-0.00269808 0.000340693 9.44904e-19)
(0.00176428 -0.00110736 8.33357e-21)
(0.0230339 0.00370003 -1.68639e-19)
(-0.00313447 -0.000243242 1.62408e-18)
(-0.00047682 7.68923e-05 3.28246e-19)
(-0.00291047 8.15535e-05 5.57088e-19)
(-0.00049655 4.5398e-05 -9.19686e-19)
(0.0169586 -0.00094909 -7.79322e-18)
(0.0094546 0.00683455 5.99266e-20)
(0.00121142 -4.29967e-05 -5.81839e-20)
(0.000760045 0.00126224 6.45848e-20)
(-0.00316488 -0.0002917 -2.67509e-18)
(-0.00240407 -0.000123351 -4.01709e-19)
(-0.00180396 6.73506e-05 -8.77306e-19)
(-0.000491565 9.24046e-06 -8.71172e-19)
(-0.000760841 0.000971518 -1.11614e-18)
(-0.00127362 0.000559566 4.2263e-19)
(0.00075141 0.004083 1.25151e-19)
(0.00783228 0.000468633 6.72998e-18)
(0.0077846 0.00138834 1.03547e-17)
(-0.0011868 0.00181339 -2.32633e-19)
(0.0225477 0.00310146 7.43583e-18)
(0.0181701 0.00654647 1.05033e-18)
(-0.000443184 2.64912e-05 -3.12889e-19)
(-0.00249228 -0.000103382 -1.69649e-18)
(-0.00100618 0.00318589 3.57926e-18)
(-0.0135782 0.00295258 -1.42897e-19)
(-0.000949374 0.00780596 -2.05296e-19)
(-0.00436001 0.000183919 2.72403e-18)
(0.0145789 0.00618635 -1.89528e-19)
(-4.70876e-05 0.00573301 -3.80665e-19)
(0.00365882 0.0331853 2.04597e-19)
(0.0184965 -0.001506 -1.12106e-17)
(-0.000452603 1.93747e-05 1.02329e-19)
(0.00221138 -0.00184056 1.88467e-19)
(0.00209329 -0.00185715 -4.11832e-21)
(0.0188896 0.00210499 -2.6369e-19)
(-0.00179016 5.26398e-05 4.23067e-20)
(-0.00048882 0.00863748 5.52218e-20)
(0.00196947 -0.00838687 -2.43941e-18)
(0.000744244 0.000949578 -9.29062e-19)
(-0.00557487 0.0164791 -3.87555e-19)
(0.00080793 0.00127633 3.20037e-19)
(-0.000489497 4.19142e-05 -3.47614e-20)
(0.00073385 -5.12377e-05 -1.88767e-20)
(0.00081219 -0.0002593 -5.11547e-20)
(0.000811376 0.000783561 9.34598e-19)
(0.0189526 -0.00165439 4.05769e-20)
(0.0140312 -0.0222276 4.36362e-19)
(-0.000612208 0.00056546 -1.1901e-18)
(-0.00276256 -0.000105925 1.996e-18)
(0.00102873 -0.0004109 3.93528e-20)
(0.0121921 -0.00264873 -2.57975e-18)
(-0.00484566 -0.000170986 -1.06898e-18)
(0.0348163 0.0295535 1.22988e-18)
(0.00999897 -0.000672571 7.12307e-19)
(-0.000618077 0.000597156 3.27329e-19)
(0.00358687 0.00204828 1.34268e-18)
(-0.00240731 -9.7977e-05 -6.58891e-20)
(0.0337264 0.0165095 -1.35475e-18)
(2.07008e-05 0.000848062 -1.14461e-18)
(0.000921916 -0.00020067 -1.88929e-19)
(0.00176288 0.0100259 4.99216e-20)
(0.0134487 -0.00499121 1.8848e-18)
(0.000274799 0.000119875 -7.87384e-19)
(-0.0174716 0.0131827 1.41423e-18)
(-0.0135859 0.00578894 -8.89652e-19)
(-0.00452149 8.3463e-05 1.43969e-18)
(0.00459314 -0.00387054 -5.1813e-18)
(0.00133103 -0.00250064 -2.37177e-19)
(0.00169715 -0.00262164 2.60584e-19)
(0.00494748 -0.000688903 1.34352e-19)
(0.000979307 0.000402487 -5.55548e-19)
(-0.000445074 1.05218e-05 1.00271e-18)
(-0.00132153 0.00188334 2.97407e-21)
(-0.00292688 4.40579e-05 -8.52657e-19)
(0.0168344 0.00823358 -4.54882e-18)
(-0.00259487 -0.00016228 -3.4862e-19)
(0.0194696 0.000295007 -1.61485e-18)
(0.0192154 -0.00118386 5.27127e-18)
(0.00104611 -0.000414683 -2.77698e-20)
(-0.000618451 4.76188e-05 7.31285e-19)
(0.00589126 -0.000201357 -1.24207e-17)
(0.0141477 0.000344997 -5.25229e-19)
(-0.00122517 0.0153615 7.20655e-20)
(0.0162295 0.00122227 3.25607e-18)
(0.00262919 0.0113606 -7.60486e-20)
(-0.00242408 -0.000112458 2.47758e-19)
(0.0014005 -3.24678e-05 2.04486e-19)
(0.0177593 0.00619232 9.94863e-19)
(0.0018714 0.000225083 1.285e-19)
(-0.00348875 -0.000193078 7.10058e-19)
(0.00428562 -0.000381553 -7.38028e-19)
(-0.000910219 6.78015e-05 -4.78514e-19)
(0.000584899 -1.79135e-05 -7.57795e-21)
(0.00181025 0.000544975 -1.01582e-19)
(0.00109616 -0.000443 -5.82433e-20)
(-0.00306946 0.00125274 1.9248e-18)
(-0.00366599 0.00678722 6.93163e-20)
(0.0184927 -0.000798339 -8.82677e-18)
(-0.00130509 0.00223828 6.23395e-19)
(-0.00296295 0.000114144 1.45548e-18)
(0.00365313 0.00661855 -2.79389e-19)
(-0.00996154 -0.00749902 2.1726e-19)
(-0.00288208 0.000437297 5.27388e-19)
(0.0199588 0.00195629 7.69883e-19)
(-0.00227248 0.000204177 2.76523e-19)
(0.00325753 -0.000303769 -1.15631e-19)
(0.000878699 -0.00016241 1.69903e-20)
(0.00179009 0.000515295 -1.06508e-18)
(0.00126797 -3.52314e-05 -5.15748e-19)
(0.0135653 0.0046032 2.4956e-18)
(-0.00351241 -0.0372637 -5.29894e-21)
(-0.0035072 0.00234525 -2.94344e-18)
(0.0025206 0.00640058 2.31238e-19)
(0.014488 -0.00177727 -2.16718e-19)
(-0.0237236 0.0766542 -4.04719e-18)
(0.0137737 -0.00530679 -1.68604e-19)
(0.000323742 4.9245e-05 5.83335e-19)
(-0.00322654 -3.11075e-05 -1.39793e-18)
(3.63415e-05 0.000812872 2.10588e-18)
(-0.01251 -0.00593895 -4.43906e-19)
(0.000738172 -2.67402e-05 2.23694e-20)
(0.0219428 0.00030407 -1.95161e-18)
(-0.0180223 -0.0022517 6.39798e-19)
(-0.00113194 -0.00140012 1.0245e-20)
(0.01657 -0.000497589 3.0938e-18)
(0.00178377 0.000463354 9.56526e-19)
(0.00137385 -0.00148875 2.06946e-21)
(-0.0146836 -0.00904547 -3.25581e-19)
(0.00856475 -0.00341336 2.64774e-19)
(0.000660851 -0.00012402 -1.11272e-20)
(-0.0024499 -0.00014142 -2.10174e-19)
(-0.00253572 0.000143303 2.04158e-18)
(0.00257057 -0.000898963 7.79926e-20)
(0.0018148 0.000159563 1.23767e-20)
(-0.00127178 0.000621499 8.5527e-19)
(-0.00324542 -0.000256161 -3.03695e-18)
(-0.00463831 0.000556702 -5.89165e-18)
(-0.000857144 0.00245148 3.07717e-19)
(0.000249052 -0.00258572 -9.24965e-18)
(0.00125871 -2.48432e-05 6.51616e-21)
(0.00070207 0.00132552 4.03181e-19)
(-0.00419123 -0.00590167 2.77878e-18)
(-0.00320984 0.0018929 -3.67637e-19)
(0.000735801 -0.000315663 2.10948e-20)
(0.0131251 -0.0128534 1.34382e-18)
(0.00100525 0.000389925 -1.06753e-19)
(-0.000173868 0.00220384 2.87405e-19)
(0.00174775 0.000280138 2.19454e-19)
(-0.00546059 0.00296479 -9.63847e-20)
(-0.00161571 0.00118666 4.04426e-19)
(0.000774044 -0.000338535 -5.73759e-20)
(0.00170538 0.000597252 -1.18572e-18)
(0.0184004 0.00138443 5.71291e-18)
(-0.000635459 0.000281751 -1.392e-18)
(-0.00263042 -0.000123171 2.00988e-19)
(0.00106807 0.000165914 -6.1635e-19)
(0.000285255 -0.00328534 -8.60467e-19)
(0.00219581 -0.00169202 -5.94348e-21)
(0.000882036 1.99617e-06 3.87338e-19)
(0.000166881 0.000984122 -1.70155e-19)
(0.00136854 -9.86434e-06 1.20129e-19)
(0.00134476 -2.61031e-05 7.13439e-19)
(-0.0187706 -0.0353465 3.97063e-19)
(-0.00132841 0.000383474 8.22527e-20)
(0.0208361 -0.00162426 6.35305e-19)
(-0.000571526 0.000185701 -1.12575e-18)
(0.00153668 -3.25479e-05 1.41144e-19)
(0.0114804 -0.00232294 9.65907e-18)
(0.0162852 -0.000406152 -3.16245e-18)
(-0.000655464 0.000203646 -5.92311e-19)
(-0.000291909 -0.00433817 7.42159e-19)
(-0.00287861 0.00034293 4.61097e-20)
(-0.00162198 -0.0155898 8.18178e-19)
(-0.00829615 -0.00807699 9.99523e-19)
(0.000648883 0.00130039 5.03114e-19)
(0.0093107 -0.0230864 1.67416e-19)
(-2.86989e-05 0.000856481 -1.3873e-19)
(-0.00194917 0.000941419 1.90448e-18)
(-0.000989033 9.1975e-05 5.22726e-19)
(-0.00108268 -0.0089807 2.96891e-18)
(0.000856111 -0.000117211 4.62594e-20)
(0.00108411 -0.0078919 -1.18848e-19)
(-0.0109668 -0.00207449 -1.31672e-18)
(0.000972726 -0.000329596 1.69031e-20)
(-0.00195789 -0.00408143 1.02123e-18)
(0.0139658 -0.00121897 2.25132e-18)
(-0.00232863 -0.00089404 -4.40358e-21)
(0.0123554 -0.00477788 1.13488e-19)
(0.000919231 7.28984e-05 6.90129e-20)
(0.0122688 0.0779406 -1.65414e-18)
(0.000151424 5.15802e-05 -1.55436e-18)
(0.001351 0.000290454 2.26276e-19)
(0.00122045 0.000462744 -7.50403e-19)
(-0.000878864 8.56335e-06 1.53042e-18)
(0.0145063 0.000335328 -6.7496e-18)
(-0.00315752 0.000209896 1.88318e-18)
(-0.00408138 -0.00073437 9.68957e-19)
(0.0124088 0.00449028 -6.1821e-19)
(0.00223573 0.00112716 3.27488e-19)
(0.0008347 -0.00043912 -1.32983e-20)
(0.0150841 0.00488453 1.40617e-17)
(-0.00301095 -0.0343793 7.86023e-19)
(-0.00243248 4.62496e-05 1.3177e-19)
(-0.00234942 -0.000168489 1.5114e-19)
(0.00199462 -0.0131076 -1.42526e-18)
(0.048027 0.0495808 -1.19931e-20)
(0.0202744 -0.00151865 4.10321e-18)
(-0.000400285 1.78042e-05 -6.69454e-19)
(-0.000933143 -0.00938127 -4.98405e-18)
(-0.00969937 -0.00788921 3.22358e-18)
(-0.0133046 -0.00430229 -1.97476e-18)
(-0.00323435 0.0015528 1.18653e-18)
(-0.00273242 -0.00485676 -5.67567e-19)
(0.0619696 0.020555 6.02827e-19)
(0.00153341 -0.00154924 1.84183e-19)
(-0.0122718 -0.0167048 6.93085e-19)
(-0.0130294 -0.00512396 -1.94987e-19)
(0.019685 0.00144916 1.02591e-18)
(-0.00186337 0.00125701 -4.20742e-19)
(0.0191645 0.00201077 -1.20019e-18)
(0.0210182 -0.000723962 2.14084e-18)
(0.000854262 -0.000136087 4.55189e-20)
(0.00157895 -0.00140803 -1.88982e-19)
(-0.0032187 0.000173284 -3.13825e-18)
(0.0159765 -0.00023153 4.86272e-18)
(-0.00211193 0.000664313 -1.52843e-18)
(-0.000352533 0.000293615 5.31957e-19)
(0.000833974 0.000863274 -9.482e-19)
(-0.000266121 0.000711285 -6.6542e-19)
(-0.002394 0.00132789 1.42229e-18)
(-0.00351281 0.00443421 3.07283e-19)
(0.0131751 -0.00992563 -5.03837e-18)
(0.00158715 -0.00375607 -2.46115e-18)
(0.00138692 0.000124177 1.42258e-20)
(-0.00371158 -0.00506579 1.06821e-17)
(0.0175257 -0.000238065 -2.24205e-18)
(0.0154342 -0.0273083 -2.13015e-18)
(-0.00673088 -0.0264631 -7.60262e-20)
(-0.00260233 -0.000120412 9.64186e-19)
(0.000711344 -0.000278477 1.11084e-20)
(0.00181393 0.000488139 4.97795e-19)
(-0.00135923 -0.00215716 -3.2078e-20)
(0.0150732 0.00459645 -1.34219e-17)
(-0.00186368 8.96532e-05 5.40734e-19)
(-0.0032716 -0.000251522 -3.68212e-18)
(-0.0029149 -0.000657003 3.83738e-18)
(0.000924359 -0.000329079 -4.9814e-21)
(0.00587818 0.00912225 -5.53229e-20)
(0.0280003 0.0560764 -1.50181e-18)
(0.0161523 0.00132376 3.69197e-19)
(-0.00430513 0.000819953 -4.66506e-19)
(0.0145827 0.000296821 1.96659e-18)
(0.0206953 -5.80789e-05 -2.52801e-18)
(-4.48011e-05 0.000892419 4.65533e-19)
(-0.000919283 5.01038e-05 -3.72547e-19)
(0.0107107 -0.015208 2.60977e-19)
(0.0192956 -0.000999092 -1.58313e-18)
(-0.00314999 -0.000549765 2.12879e-18)
(-0.00259789 -0.000180494 -8.87693e-20)
(0.00177867 -0.00320513 4.38802e-19)
(0.000826094 -0.000279976 -3.11276e-20)
(-2.34047e-05 0.000455783 -8.15281e-19)
(0.0210826 0.0011464 1.27134e-18)
(0.000908738 -0.000305514 6.51417e-20)
(-0.00208338 0.000717072 1.19297e-18)
(0.000796477 -0.000285071 -2.13012e-20)
(0.000851573 0.000273612 -1.03477e-18)
(0.0216897 -0.000840577 -8.70896e-19)
(-0.00273493 0.00131918 -9.20508e-19)
(0.00231193 0.00507591 6.72179e-19)
(0.000889838 -0.000301471 -1.57356e-19)
(-0.017625 0.0120729 1.31441e-18)
(0.00225411 -0.0321116 -4.47293e-19)
(0.00106778 0.000470752 2.44246e-19)
(0.00177037 -4.94843e-05 -1.0954e-19)
(0.00158619 -0.000780986 2.45066e-19)
(-0.000448806 1.51888e-05 -7.9045e-19)
(0.0123968 -0.00636848 -1.06161e-19)
(-0.0228946 0.0243552 3.29531e-19)
(-0.0235209 0.0102785 -2.10702e-20)
(-0.0125652 -0.00338608 -7.71708e-19)
(0.0128063 0.069654 8.57193e-19)
(-0.00254441 -0.000198212 1.84288e-19)
(0.0155883 -7.42344e-05 -1.96861e-18)
(0.0158241 -0.000475557 -2.18739e-18)
(-0.000765093 0.00626353 1.187e-19)
(-0.0025412 -0.000119863 6.19351e-19)
(0.000702395 -0.000284806 -1.88488e-20)
(0.00172363 -0.00109255 6.24048e-20)
(-0.00327188 -0.000513533 4.80516e-19)
(0.017958 0.00231051 -3.48856e-18)
(0.00619243 0.0335528 -5.86461e-19)
(-0.0032816 -0.00025395 1.79241e-18)
(-0.00252803 -0.000122764 2.58639e-20)
(0.00175688 0.000395017 -1.2492e-19)
(-0.00393224 0.000174123 -7.05993e-20)
(0.00185618 0.00162937 3.93076e-19)
(0.0117172 0.000465134 -4.29618e-20)
(-0.00325461 0.000432986 8.81198e-19)
(-0.000546568 0.000178671 -2.02506e-18)
(-0.0010181 0.00191988 -4.66447e-19)
(0.00179187 0.000159639 5.37113e-20)
(-0.00231231 -0.000112137 -1.81279e-19)
(-0.00329262 0.00259083 5.89068e-18)
(-0.0010357 6.61311e-05 1.1128e-18)
(8.22647e-05 0.00080673 -4.40442e-19)
(-0.00470715 -0.000436461 4.92948e-19)
(-0.00104955 0.000249954 -1.90191e-18)
(-0.00240022 0.00111086 -8.58089e-19)
(0.0120453 0.00402293 6.49265e-19)
(-0.00393947 0.00191735 -3.41727e-18)
(-0.00420444 0.000436896 -1.64877e-18)
(-0.00306217 -0.000522745 -7.05484e-19)
(0.00173926 0.000370452 1.13408e-19)
(4.5985e-05 0.0124157 6.85852e-21)
(0.00789427 0.0057294 2.0524e-19)
(-0.0105797 -0.00487316 -9.12545e-19)
(-0.000748931 0.00138954 -2.14685e-19)
(0.00165232 -3.27363e-05 1.12928e-19)
(0.0207169 0.00413653 -4.22263e-18)
(-0.00146975 0.00171703 -6.66994e-20)
(0.00331293 -0.0049064 -5.10887e-18)
(0.0178023 -0.00141829 1.33178e-18)
(-0.00632663 -0.00909361 5.46826e-18)
(0.0118624 -0.0130874 -1.46043e-18)
(0.0018429 0.00022641 -1.90637e-19)
(0.0187755 0.00426083 -3.78583e-19)
(0.000931371 -0.00052774 7.95986e-21)
(0.000899664 0.000321057 -7.94547e-19)
(0.000833556 -0.000110321 -4.79672e-20)
(0.000842499 0.00030526 2.7581e-19)
(0.000862246 -0.000513209 6.10869e-21)
(-0.00123327 0.00211553 1.70506e-20)
(-0.00495221 0.00293644 -1.48119e-18)
(0.000874508 -0.000279269 6.2111e-20)
(0.0190391 0.00567604 -3.00193e-19)
(-0.0106946 -0.00306418 7.39269e-19)
(0.0188147 0.00598058 4.00868e-19)
(0.00100973 0.000809189 6.9305e-19)
(0.000775742 -9.29354e-05 9.03226e-21)
(0.00122237 -5.16694e-05 -5.1447e-19)
(-0.000398088 0.00284208 -3.3988e-18)
(0.0141855 0.00912687 -5.74288e-20)
(-0.00305416 -0.000182976 4.99928e-18)
(-0.00233337 -0.000114025 2.32591e-19)
(0.000944286 -0.000542544 -2.59622e-22)
(0.0015318 -3.17416e-05 -9.54772e-20)
(0.00138818 8.18076e-05 -1.54388e-19)
(0.000854946 0.00101756 -8.50149e-19)
(-0.00981335 -0.00354458 5.04009e-18)
(0.00125023 0.00512531 -1.96529e-19)
(-0.00101382 0.000255452 1.95928e-18)
(0.000856036 -0.000274923 -6.22781e-21)
(-0.000883819 -8.34504e-06 9.91745e-19)
(0.000826697 0.000986578 6.89124e-19)
(0.0232418 -0.0013567 -7.99362e-19)
(0.0029101 -0.00632391 3.22485e-18)
(-0.00388613 6.47303e-07 2.32513e-19)
(0.013643 0.000569674 1.95763e-18)
(0.0234444 0.0708336 1.04692e-18)
(9.59929e-05 0.000772737 -2.26349e-18)
(-0.00415256 -0.000558026 9.71386e-19)
(0.0106624 -0.00342337 8.89158e-18)
(-0.00257071 -9.69644e-05 2.36189e-18)
(0.0101119 -0.000418139 -2.93679e-18)
(-0.00131381 0.000148339 2.12749e-18)
(-0.00147973 0.00224597 -3.14127e-19)
(-0.00303096 -0.000175541 -3.17052e-18)
(-0.00137625 0.00215353 5.2977e-19)
(-0.0142149 -0.0180795 -2.84286e-19)
(-0.000627544 0.000198424 -5.20069e-19)
(0.0613254 0.0275241 8.05589e-20)
(0.000714657 -2.43875e-05 -6.46327e-20)
(-0.00250632 -0.000365096 1.10627e-18)
(0.0167642 -0.000658954 -1.29514e-18)
(0.0021691 0.00073125 -3.041e-19)
(-0.00119813 0.00164016 -1.11293e-18)
(3.77595e-05 -0.00355708 1.02392e-18)
(0.00135504 0.000320762 -7.5529e-19)
(-0.00240569 0.000114532 -1.50257e-20)
(0.00498214 0.0386358 1.12532e-18)
(0.0109291 0.0117296 4.06387e-20)
(-0.00315802 0.000469104 -1.12693e-18)
(0.014458 0.00563041 2.00342e-18)
(0.000530869 -0.00271585 1.89719e-20)
(0.000781628 -0.000264328 3.7716e-20)
(0.00101363 0.000763194 -5.54569e-20)
(0.00777838 -0.00246553 -1.28334e-17)
(-0.00301656 -0.000583416 -3.94995e-18)
(-0.00248687 0.00592971 -7.9345e-19)
(0.0181412 -0.00152864 -5.45507e-18)
(0.00209989 0.000216265 3.96593e-19)
(-0.000409688 1.27237e-06 -1.50728e-18)
(0.000878564 -0.000142665 -1.86708e-19)
(0.00241134 0.0661929 -3.8122e-19)
(0.00959083 -0.000726054 2.35499e-19)
(-0.00270672 0.00127377 -2.84042e-19)
(-0.000169656 0.00141514 1.35728e-19)
(0.00235605 -0.0014856 -1.14085e-19)
(-0.00209058 -5.14379e-05 1.45666e-19)
(0.00123498 -5.65978e-05 4.99569e-19)
(-0.0053145 -0.00393848 9.18369e-18)
(-0.00558162 -0.0255502 9.80173e-20)
(0.018282 -0.000245627 -3.98843e-18)
(0.000986412 -0.000351969 -8.66243e-20)
(-0.00100181 0.000232465 -2.26053e-18)
(0.0160068 -0.000120021 -8.33668e-19)
(0.00196348 -0.00363318 1.11764e-19)
(-0.00290362 -0.00019856 2.73499e-19)
(0.0019799 0.00150009 1.60171e-19)
(0.022709 0.00110352 1.01792e-17)
(-0.000621542 0.000235958 -2.72737e-18)
(0.00276623 -0.000938983 2.89114e-20)
(0.00164291 0.000369737 -2.12996e-19)
(-0.000819377 -0.00144892 9.95023e-20)
(-0.00250491 0.000412452 7.62966e-19)
(-0.00756763 -0.0089121 -1.64044e-17)
(0.00624932 0.000305309 4.19464e-20)
(0.00313883 0.00202579 -1.40251e-20)
(-0.0049486 -0.000248256 -5.7701e-19)
(0.00165319 -3.34502e-05 -2.00389e-19)
(0.00045321 1.5473e-05 -3.16841e-19)
(-0.0016937 0.00120978 1.23252e-18)
(0.00175957 0.000347505 -1.50017e-19)
(-0.00581871 -0.00490894 -1.96799e-17)
(-0.00293223 -0.000309492 1.98312e-19)
(-0.00442307 0.00061598 -1.92686e-18)
(0.0015029 0.00499686 -3.22827e-19)
(0.00181351 -0.00144792 -1.17691e-19)
(0.00173614 0.000422324 -6.6772e-19)
(0.00205454 0.0474757 -5.36257e-19)
(0.00124824 6.2646e-05 -5.58993e-19)
(0.00593247 -0.00049076 4.2559e-20)
(0.000835405 -9.14911e-05 -3.80025e-21)
(0.000152047 0.000734348 -8.48307e-19)
(0.000523128 0.000119812 1.86226e-20)
(0.0194234 -0.000699574 -9.45331e-20)
(0.000800307 0.000825453 1.85323e-19)
(0.000980282 -0.0002446 -8.11854e-21)
(-0.044347 0.0197286 3.0819e-19)
(-0.000953953 4.25279e-05 -1.93127e-18)
(0.0165368 -0.000206322 -2.95283e-18)
(0.000739187 -1.56786e-05 -8.67902e-20)
(0.00154931 0.00121139 -2.0701e-19)
(-0.00327397 -0.000113113 8.84115e-19)
(0.0235613 -0.00151687 -2.23955e-18)
(0.0203275 -0.0128765 2.79222e-19)
(0.00147997 7.87553e-05 -1.64476e-19)
(-0.00384977 0.029507 6.17855e-19)
(0.0135636 0.00139684 -4.56799e-18)
(-0.00136092 0.000406095 -2.05919e-19)
(0.0202229 -0.00123265 8.04704e-19)
(-0.00248369 -0.00035602 -7.8396e-19)
(0.00176267 0.000303692 -1.00722e-20)
(0.00712512 0.00362877 6.81549e-20)
(-0.00362744 -0.00347836 3.465e-17)
(0.0101214 0.0203481 -1.43913e-18)
(-0.00278455 0.000578846 3.57907e-19)
(0.00137185 0.000109703 8.63581e-21)
(0.000840409 -0.000252997 -6.17575e-20)