/*--------------------------------*- C++ -*----------------------------------*\
| =========                 |                                                 |
| \\      /  F ield         | OpenFOAM: The Open Source CFD Toolbox           |
|  \\    /   O peration     | Version:  v2012                                 |
|   \\  /    A nd           | Website:  www.openfoam.com                      |
|    \\/     M anipulation  |                                                 |
\*---------------------------------------------------------------------------*/
FoamFile
{
    version     2.0;
    format      ascii;
    class       volVectorField;
    location    "250";
    object      ddt0(U);
}
// * * * * * * * * * * * * * * * * * * * * * * * * * * * * * * * * * * * * * //

dimensions      [0 1 -2 0 0 0 0];


internalField   nonuniform List<vector> 
13917
(
(0.000950711 0.00156234 3.65654e-17)
(0.000215826 0.000523519 2.00576e-18)
(-0.0269763 -0.000412996 -4.037e-18)
(0.00110467 -0.000835352 1.23344e-17)
(-5.24807e-05 0.000285872 -1.06596e-19)
(0.000210984 0.0022026 -5.0252e-18)
(-0.0249144 -0.00159703 -1.04879e-18)
(-0.0275344 0.00119453 -5.36689e-18)
(-0.0245523 0.000522179 2.07072e-17)
(0.00171567 0.00220093 -9.78058e-18)
(0.00451386 -0.00358733 -3.44697e-17)
(0.00222471 -0.00289319 6.89176e-18)
(0.00118194 -0.000868407 -3.57176e-18)
(-0.0186172 0.00111824 3.22566e-19)
(0.000275476 0.00121635 -2.42278e-18)
(0.000310111 0.00111576 -9.68162e-19)
(0.000195172 0.000619901 -1.08251e-18)
(0.0032883 -2.70332e-05 2.58554e-17)
(0.0020833 -0.00286232 -7.0366e-18)
(-0.000154485 8.49172e-05 6.583e-21)
(-9.99158e-06 3.79986e-05 7.69204e-19)
(-0.0248407 -0.00147115 -9.01338e-18)
(-0.000135957 0.000167538 2.09693e-18)
(-0.0272093 0.000992412 -1.52653e-17)
(-0.00010198 0.000415493 2.9194e-18)
(-0.0223944 -0.00240142 1.10468e-17)
(0.000238351 0.00161027 -1.36271e-17)
(0.000401573 0.00175021 -3.05453e-17)
(-3.80457e-05 0.00229444 -1.23001e-17)
(0.00361366 0.00233526 8.80375e-18)
(0.00192922 0.00161695 -8.76602e-18)
(0.000772807 0.0010766 9.99874e-18)
(0.000249375 0.00151286 -7.48603e-18)
(0.000115384 0.00121947 6.06702e-18)
(-1.03037e-05 0.000464526 1.93224e-20)
(0.00860272 -0.00619304 -3.06997e-17)
(-0.000144563 0.000160102 -5.23525e-19)
(-0.0179075 0.00134783 -2.0465e-17)
(0.00136527 -0.00111311 6.39604e-18)
(-0.0160768 -0.000479785 -2.12184e-17)
(-0.000271863 9.36782e-06 -1.05193e-18)
(9.6164e-06 1.42666e-05 6.46591e-19)
(0.000121452 -4.3162e-05 1.31849e-17)
(0.000369305 0.00194208 2.97022e-17)
(0.000493206 0.000158956 -3.71923e-18)
(0.000151962 0.00130155 -2.10785e-17)
(0.00297652 -8.46329e-05 -1.93099e-17)
(0.0039373 -0.00109461 7.74436e-18)
(0.000471296 0.00294284 2.22276e-17)
(-0.00027153 1.11746e-05 -4.24051e-19)
(0.00170925 -0.000305978 -4.64118e-18)
(5.81439e-05 0.000825484 -1.1261e-17)
(0.000582707 0.00315662 -2.92216e-17)
(0.000128817 0.00124163 2.72726e-17)
(0.000188764 0.000636988 -2.08187e-18)
(0.00153801 0.000287214 -4.95076e-18)
(0.00443562 -0.00347323 1.6055e-17)
(2.16145e-05 0.00056644 -2.6971e-18)
(0.00111328 0.000418287 2.44779e-17)
(0.000487074 0.000161694 -6.13246e-19)
(-0.0209688 -0.000352038 9.64268e-18)
(0.000217992 0.00051689 -5.46683e-18)
(-0.013478 0.0009096 -2.87652e-17)
(-0.000172788 9.20296e-05 -3.00453e-20)
(0.000271031 0.00219537 -1.02183e-17)
(-0.0197323 -0.00246137 5.69012e-18)
(3.49267e-05 0.000313774 -1.19936e-17)
(4.45081e-05 0.000508668 6.68228e-19)
(0.0047449 -0.00192759 -1.73644e-17)
(0.000865751 0.00157729 2.71772e-17)
(-3.53779e-05 0.000272792 2.28776e-18)
(-0.0257331 0.00059782 -2.59622e-17)
(-0.0116263 0.000708848 1.63847e-17)
(-5.41589e-05 0.000403063 6.42701e-20)
(0.000484367 0.00278906 3.60779e-17)
(0.00170764 -0.00326614 1.70611e-18)
(-0.0118164 0.00088227 -3.59598e-17)
(0.000875158 0.000122723 4.62323e-18)
(-0.0203207 -0.00251538 3.74563e-18)
(-1.14845e-05 7.17832e-05 -1.63768e-18)
(-7.286e-05 8.21953e-05 -5.05413e-19)
(3.81362e-05 0.000294589 1.94018e-18)
(0.000412111 0.00218631 -1.9875e-17)
(-0.0183636 0.00155223 2.83422e-17)
(-0.00211233 -3.93028e-05 -1.26814e-17)
(0.000858199 0.000104672 -6.46331e-18)
(-0.000118258 9.12116e-05 1.14787e-19)
(-0.0132192 -0.00860715 -7.43425e-18)
(0.0019636 -0.000302766 -1.64705e-17)
(0.000181031 -4.85603e-05 -1.09196e-17)
(-0.0127351 0.00103871 -1.62924e-17)
(0.00241934 0.00249272 -3.32956e-17)
(0.000149986 0.000233487 -4.0339e-18)
(0.00018144 0.000941917 -1.20766e-18)
(-0.0326984 -0.000577384 8.8349e-17)
(0.000275018 0.00214121 8.28977e-17)
(0.00425877 -0.00233246 -1.90138e-17)
(0.00386832 -0.000767108 1.02228e-18)
(0.00193224 -0.00421295 9.82128e-18)
(0.000337813 0.00188254 -9.64736e-18)
(-0.000137933 5.5104e-05 2.89946e-18)
(0.000138977 0.00145512 1.29464e-17)
(0.000373844 0.00189601 1.05375e-17)
(0.00120619 -5.66946e-05 1.67124e-17)
(-3.00513e-05 0.000111285 -6.81968e-19)
(-0.0263518 1.93416e-05 -2.67309e-17)
(5.48625e-05 0.00241913 -5.4425e-19)
(0.00386419 -0.00109318 -1.987e-17)
(0.00020592 0.000616156 -6.58284e-19)
(0.00108494 0.00170058 3.69156e-17)
(-0.00636073 0.00200852 4.94421e-17)
(-0.0163397 -0.00052936 1.50402e-17)
(0.00250441 -0.00338641 -1.26514e-17)
(-0.0257725 5.58052e-05 1.04834e-17)
(0.00011134 0.000977649 1.00007e-17)
(0.000105592 0.00288787 6.7533e-17)
(-0.000114745 0.000290495 -1.05709e-19)
(0.000376117 0.00258603 -7.0683e-17)
(-0.0195417 -0.000140894 4.18077e-18)
(0.00015601 0.00123924 6.99851e-18)
(1.37444e-05 2.78753e-05 -1.82751e-18)
(0.00490226 -0.0019448 3.90269e-18)
(-0.0195239 0.000282134 -2.45899e-18)
(0.00033537 0.00171802 3.07455e-19)
(-0.000273981 9.64833e-06 -6.06956e-20)
(0.000160255 0.000918017 -3.95612e-18)
(0.000367915 0.00024683 -1.21075e-18)
(-0.000292209 7.99342e-06 -1.2944e-19)
(5.55885e-05 -1.27641e-05 -8.01772e-19)
(0.000309893 0.00218896 -8.19769e-17)
(-0.0209606 -5.31338e-05 -1.37054e-17)
(0.000100211 0.000960393 -3.31801e-18)
(0.000500421 0.000174238 1.63324e-17)
(2.367e-06 3.10375e-05 -1.56272e-18)
(-0.0191469 0.0043535 1.53916e-17)
(-0.0272261 0.000527831 9.99814e-18)
(0.00103513 0.00161443 -5.00714e-17)
(0.000245449 0.00186067 2.93345e-17)
(4.04665e-05 0.000323964 1.16316e-17)
(0.000160635 0.00122843 -8.07032e-18)
(0.00542452 -0.00518509 7.10721e-19)
(0.000179315 6.57594e-05 4.59372e-18)
(7.99585e-05 0.000878628 9.96485e-19)
(0.000452439 0.00200705 -1.02522e-17)
(5.17016e-05 0.000516525 -1.09603e-18)
(-0.0272444 -9.73028e-05 1.05031e-17)
(-0.000154895 0.00229353 -5.5565e-19)
(7.31965e-05 0.000806 1.27236e-17)
(0.000174872 4.47436e-05 5.03879e-19)
(0.000745094 0.00117822 5.88744e-18)
(0.00318026 -0.00159754 5.77059e-18)
(0.000285716 0.00279641 -7.4245e-17)
(0.00342155 -0.00275398 4.47542e-18)
(0.000512415 0.00177717 5.63527e-19)
(0.00116968 0.000748659 1.96697e-17)
(-0.00204874 -0.000499322 -2.42646e-17)
(0.000809907 0.00153584 -9.87254e-18)
(-0.00175832 4.49343e-05 6.66831e-18)
(-0.0117139 0.000823312 2.07245e-17)
(-0.0169487 0.00176532 -1.28055e-17)
(0.000162481 0.00110298 -7.16041e-18)
(0.00017354 0.00160204 -7.07919e-17)
(-4.5461e-06 6.14243e-05 -1.97296e-18)
(0.00400765 -0.00231105 5.10155e-18)
(0.00245697 -0.00332372 1.35441e-17)
(0.00210317 -0.00417763 -8.39688e-18)
(0.00122629 -3.20081e-05 -2.11654e-17)
(0.00352756 -0.00125158 1.34023e-17)
(0.000316379 0.000140336 -1.19479e-17)
(0.000146587 0.00147048 -1.79778e-17)
(0.000566378 0.00177426 -2.19544e-18)
(-0.00186997 0.00120652 -1.38768e-17)
(0.00229404 -0.00357177 1.35247e-17)
(0.000239488 0.00073962 -5.47363e-19)
(-0.0253622 0.000966356 1.17046e-17)
(0.000394559 0.00185526 8.91222e-18)
(-0.0214535 -0.000111849 4.86407e-18)
(0.000197892 0.00274676 -1.72196e-17)
(-0.0268513 -0.000216846 -1.1149e-17)
(2.21895e-05 0.000363866 -3.02348e-19)
(0.00259782 0.00250769 -8.49669e-18)
(0.0018549 0.00162506 5.00145e-18)
(0.000187406 5.52536e-05 -9.8239e-18)
(-0.000130432 9.9842e-05 -1.2417e-19)
(0.000289393 0.00140574 -1.78132e-18)
(-0.0225748 -0.00276833 2.47826e-18)
(0.00174153 0.00365695 2.99348e-17)
(-0.0033571 -0.000435379 1.73967e-17)
(0.00213824 0.000424059 -1.36097e-17)
(0.00290563 -0.0040391 1.04681e-17)
(0.00651001 -0.00320411 -1.0874e-17)
(-0.00325162 -0.000198227 -2.28342e-17)
(0.00239291 0.00367361 -5.13615e-17)
(-0.000128956 0.000199122 -4.59201e-18)
(0.000303491 0.00188027 -2.48437e-17)
(0.000224695 0.00160545 5.54238e-17)
(-0.000253835 2.68874e-06 -1.54577e-18)
(0.000106232 0.000256722 8.6987e-19)
(8.5069e-05 0.00239792 -1.43786e-19)
(-0.00773635 -0.0168696 -4.19815e-18)
(0.00178025 -0.000793634 6.19055e-18)
(-0.000277773 1.00274e-05 6.43015e-19)
(0.0035238 -0.00132562 1.72204e-17)
(0.00289457 -0.00163487 4.34215e-19)
(-0.0111564 0.000718851 -2.20396e-18)
(0.0018524 -0.00272118 3.18819e-17)
(-2.0306e-05 0.000454397 3.00817e-19)
(1.7339e-05 0.000584046 4.00039e-18)
(0.00393833 -0.000847673 2.43466e-17)
(-0.0249493 -0.0026046 5.58083e-18)
(7.54443e-05 0.000857746 1.7514e-18)
(-0.0254353 -0.00113145 -7.05918e-18)
(-0.0105831 0.000765619 -3.63264e-17)
(0.0029013 -0.00397436 -7.61246e-18)
(-1.08187e-05 0.000118628 2.68523e-18)
(0.000484931 0.00236342 -1.39154e-16)
(0.00340907 -0.000824894 -7.88343e-18)
(-0.006101 0.0013878 9.99281e-17)
(-7.35662e-05 0.000330357 4.19527e-19)
(-0.023257 -0.000645884 7.98459e-17)
(1.45629e-05 0.00035208 -1.64582e-19)
(0.00389765 0.00179556 9.98624e-19)
(-0.000274817 1.15059e-05 -1.08972e-18)
(-0.0165606 0.0017088 -1.07644e-18)
(-0.0262229 0.000173754 -8.81353e-18)
(0.000333642 0.00114237 3.78703e-19)
(0.000413395 0.00155856 -1.29692e-16)
(0.00126989 0.000736922 6.91216e-18)
(-3.99165e-05 0.000116713 -2.64369e-18)
(0.00760377 -0.0060743 4.33869e-17)
(0.00213141 -0.00350758 -2.50117e-17)
(0.00218887 0.000361666 -6.39442e-19)
(-0.0266028 -0.000315134 2.30964e-17)
(-0.0103928 0.00076825 2.98825e-17)
(-0.000156913 2.29878e-05 -1.49806e-18)
(0.000830437 0.00109962 -5.96835e-18)
(-0.0133325 0.00106531 4.37553e-19)
(-0.00119946 -0.000261953 4.09611e-17)
(-7.135e-05 7.00469e-05 6.31557e-19)
(-0.000167657 0.000128843 1.63421e-19)
(-0.0158712 -0.000730234 1.3332e-17)
(0.00432668 -0.00216316 6.18311e-18)
(-3.02207e-05 2.44088e-06 -1.37685e-19)
(0.00234965 -0.00523658 1.27273e-17)
(0.00461313 -3.87205e-05 1.89691e-17)
(0.000108406 0.00159064 3.4241e-17)
(0.000961177 0.00138157 3.05441e-18)
(-4.60039e-05 6.5215e-05 3.42992e-18)
(0.000328994 0.00182605 3.75641e-19)
(-0.0108043 0.000763835 -1.19304e-17)
(0.000679491 -0.0002781 1.02476e-18)
(0.00246143 0.00283033 1.02528e-17)
(0.000359918 0.00198957 -3.79859e-17)
(0.000416889 0.000227994 2.64063e-18)
(7.27518e-06 0.000557123 -7.71478e-19)
(0.00321984 -0.00251673 3.03458e-18)
(-0.0162657 -0.00080382 -7.81799e-19)
(0.00345436 -0.00271636 -1.13754e-17)
(0.000300512 0.00142762 5.24535e-18)
(0.000269166 0.00122231 -5.55621e-19)
(-1.77785e-05 4.32669e-06 5.8372e-20)
(-0.0190831 0.000254598 1.28284e-17)
(-0.0288611 0.00293551 4.92733e-17)
(0.00183608 -0.00555334 -4.40679e-18)
(-6.13916e-05 0.000123147 3.95212e-18)
(-0.0107553 0.00119377 2.61998e-17)
(-0.0165064 0.00111193 -5.3511e-18)
(-0.00995616 0.000639243 -5.47589e-18)
(-0.0202481 -0.00232948 -1.55615e-18)
(0.00175748 -0.00334544 3.02749e-18)
(-4.16881e-05 7.90804e-05 -7.28567e-19)
(-0.000293079 1.1075e-05 -4.797e-18)
(0.00299365 -0.000257968 1.83834e-17)
(-0.0143509 0.00138393 8.85778e-18)
(0.00452117 -0.00141296 1.4602e-17)
(0.00114329 0.0003836 3.83935e-18)
(-0.00664716 -0.00221546 -1.72977e-17)
(0.00182029 -0.00223512 5.09323e-18)
(4.85096e-05 -1.04158e-05 1.30038e-18)
(-0.0301069 0.0028255 5.20511e-17)
(-0.000162682 7.93218e-05 -1.12315e-19)
(-0.0258228 0.00128154 -5.68234e-18)
(0.00193793 -0.000772619 -1.98333e-17)
(-7.03765e-05 2.46567e-06 2.32736e-19)
(0.000328678 0.00126549 1.4237e-19)
(0.000384927 0.0017616 5.73491e-18)
(0.000160782 0.00158848 5.272e-17)
(0.00292826 -0.00535319 4.42752e-18)
(0.00044306 0.00137866 -4.28385e-19)
(0.000689213 -0.000162143 -8.9194e-18)
(0.0141729 0.000484575 -3.57252e-17)
(-0.0264818 -1.27428e-05 -2.58341e-18)
(-0.0283486 0.00304575 -4.77587e-17)
(-8.06554e-05 0.000325709 -8.34881e-19)
(-0.0154652 0.00107846 1.61882e-17)
(2.42868e-05 0.000186948 -4.09613e-18)
(0.000685676 -0.000182663 9.32125e-18)
(-0.000118201 0.000276186 -1.81521e-19)
(-0.000182705 0.00239657 2.34443e-18)
(-0.000233409 1.309e-05 -1.89884e-19)
(0.00406043 0.00188143 -1.92553e-17)
(0.000932042 0.0013588 -1.5278e-17)
(0.000339766 0.000127232 4.38591e-18)
(0.00356033 -0.0014108 -1.68807e-17)
(0.000449211 0.00066391 5.59459e-18)
(0.000569195 0.00271647 1.4178e-17)
(0.000436305 0.00184355 -3.41817e-18)
(0.00242147 0.00240215 2.94842e-20)
(0.000325593 3.67298e-05 -1.50568e-18)
(5.48041e-06 0.000538998 -1.63641e-18)
(-0.00541991 0.00189275 -2.72761e-17)
(-0.0191502 0.000477838 1.88267e-18)
(-0.000103792 0.000296347 -3.0862e-19)
(-0.000287046 1.08753e-05 -4.86869e-20)
(-0.0302684 0.00276703 -1.81738e-17)
(5.66636e-05 0.000318318 -1.0692e-18)
(-0.0120407 0.000682819 -1.41318e-17)
(0.00029996 4.1801e-05 8.43803e-19)
(-0.0167955 0.0017663 1.35972e-17)
(0.000885316 -0.000550745 -1.66796e-18)
(0.00122533 0.0032205 -4.66806e-17)
(0.00244169 -0.000675087 2.53941e-17)
(0.000626577 0.00276906 -1.08428e-16)
(0.000169713 0.00108198 2.23778e-18)
(-0.00835061 0.00162177 -3.03784e-17)
(0.000536324 0.00227905 -4.77776e-17)
(0.000343251 0.00124555 -7.94538e-19)
(0.00430432 -0.00211372 1.15471e-17)
(-6.37239e-05 0.00255611 -1.67088e-17)
(0.000109774 0.000709721 1.27183e-18)
(-0.020395 0.00068026 9.35533e-18)
(0.00027283 0.00185794 -5.25466e-17)
(-0.0162461 0.00098823 1.67974e-18)
(0.00015702 0.00117011 7.75813e-18)
(-0.0179733 -0.000234816 1.25706e-17)
(0.000898314 0.00108857 -6.50762e-19)
(-0.00435758 0.00185655 3.11563e-17)
(0.000202672 0.00205219 -2.16186e-18)
(8.14101e-05 0.00220701 -1.38821e-18)
(3.99864e-05 0.00218349 -1.01153e-18)
(-0.0267632 -0.000254324 6.82244e-18)
(-3.10822e-05 9.86196e-05 5.92791e-18)
(0.000681647 0.00183397 -9.12062e-18)
(-0.00696009 0.00219489 2.47281e-17)
(4.35156e-05 0.000705166 -1.16245e-18)
(0.000261962 0.000950345 -6.18638e-19)
(-0.0172815 0.000740203 -2.81369e-17)
(-3.74174e-05 0.00234848 -1.38834e-18)
(0.000254599 0.00068121 -8.78964e-19)
(0.00609009 -0.00303296 1.85005e-17)
(0.000123354 0.00235147 5.47303e-18)
(-0.000172094 5.42677e-05 -1.79993e-18)
(-0.0192407 -0.000125257 -2.91628e-18)
(0.00809008 -0.0049038 -1.28756e-17)
(-0.000177736 8.57236e-05 4.46169e-20)
(-0.000104445 0.000170363 2.15074e-18)
(5.57018e-05 0.000175984 5.06792e-18)
(0.000157724 3.48975e-05 1.46336e-18)
(0.0132368 0.00161921 2.99373e-17)
(-0.0262972 8.57038e-05 1.16619e-17)
(7.53217e-05 0.00221016 -3.44252e-17)
(-0.00604348 0.00210242 4.42788e-18)
(-8.3299e-05 0.000357484 2.67117e-18)
(0.0027627 0.00295242 1.09853e-17)
(-0.000222064 -6.86667e-05 -5.23031e-17)
(0.00298978 -0.00104026 5.67548e-17)
(-0.0250023 -0.00112762 1.37714e-17)
(-0.014801 0.00159337 -2.96846e-17)
(-0.0254993 0.000300171 4.09162e-17)
(-0.000118352 4.07589e-05 1.2174e-18)
(0.00129163 -0.00536495 -4.13464e-18)
(-0.000135678 0.000153983 4.38242e-18)
(-0.0251127 -0.000487802 -8.91274e-17)
(0.000491763 0.000179024 8.34683e-18)
(0.000779322 0.00293242 6.50314e-17)
(0.00461714 6.45985e-05 4.15598e-18)
(0.00142252 -0.000879246 -9.02357e-18)
(-5.44213e-05 0.000121079 1.11538e-18)
(0.00355182 -0.000786415 3.88893e-17)
(0.00272134 0.00258526 3.18856e-17)
(0.00382549 -0.000303246 -1.57889e-18)
(0.00117444 0.00337336 1.15344e-17)
(-0.00345382 0.00176117 -2.46599e-17)
(-0.00564191 0.00127818 -1.88888e-16)
(0.000396379 0.0018792 -6.70265e-19)
(0.00159948 0.00212728 2.16395e-18)
(-0.000175726 0.000123296 -6.8609e-19)
(-0.00171554 -0.000333647 -2.42341e-17)
(-0.0237395 -0.00181642 1.04403e-18)
(3.05941e-05 0.000574456 1.11106e-18)
(0.00594933 0.00245075 -3.36943e-17)
(-4.31642e-05 0.000364466 -1.09149e-18)
(0.00650683 -0.00118559 -2.60393e-18)
(0.000905272 -0.00053665 -1.35705e-18)
(-3.5817e-05 8.51328e-05 1.48609e-18)
(0.00046171 0.000723467 2.11915e-18)
(-0.0179746 -0.00224245 6.91195e-18)
(0.000468246 0.000732612 6.25679e-19)
(-0.016408 -0.000981558 -4.0649e-18)
(-0.00228734 0.000206223 1.02829e-17)
(0.00365451 -0.00380522 -1.73434e-17)
(0.000388126 0.00216781 -2.02874e-17)
(0.000108006 0.000691435 -1.42651e-18)
(0.000427346 0.00228826 1.0806e-16)
(0.000348739 0.00217868 -2.60335e-17)
(-0.000146281 0.000194 5.42328e-19)
(5.38633e-05 0.00235616 -2.89696e-18)
(2.9873e-05 0.000696092 1.18393e-18)
(-3.33401e-05 0.000412059 -5.99278e-19)
(0.00347461 0.00236568 1.59244e-17)
(-4.71509e-05 6.49888e-06 -1.67394e-19)
(-1.20515e-05 0.000435803 9.2439e-19)
(-8.08185e-05 0.000150451 -5.54696e-18)
(0.0075376 0.00152011 -4.76582e-17)
(-8.95912e-06 5.7151e-05 -1.40053e-18)
(-0.0181992 -0.000314573 -1.08637e-17)
(-0.0187428 -0.00301682 -9.10419e-18)
(-0.00100392 0.000532928 -5.1911e-17)
(0.00236039 0.00359969 6.42955e-18)
(-0.0181374 -0.00108915 1.5992e-18)
(-0.00771392 0.00134919 4.46131e-18)
(0.00282536 -0.00105286 -5.61724e-17)
(-8.33898e-05 0.000341182 -3.33453e-18)
(0.00589927 0.000439444 -9.39029e-19)
(0.00130165 -0.00106568 -1.04844e-18)
(0.000810119 0.00116977 2.44696e-17)
(-0.000119585 0.00021052 -1.22461e-18)
(-0.0270723 7.86159e-05 8.78559e-18)
(-0.0245407 -0.00217353 -6.262e-18)
(-0.0182238 -0.00329873 -5.67416e-18)
(0.000265832 0.00113097 7.66308e-19)
(0.00479205 -0.000392904 -4.76493e-18)
(0.000122036 0.00114724 1.20689e-17)
(0.00141858 -0.00114952 -5.47352e-18)
(0.00411862 -0.000364432 1.02505e-17)
(0.000305791 0.000779646 7.29643e-19)
(0.00153936 -0.00526472 -3.71766e-18)
(0.000191467 0.000593775 2.86716e-18)
(-0.000217488 1.54899e-05 -2.42545e-19)
(-0.0127214 0.000654509 1.8218e-17)
(-0.0210424 -0.000215356 -9.51392e-18)
(-0.0214872 -0.000336636 1.02407e-17)
(0.00145412 0.00281954 -8.6502e-18)
(-0.000778267 0.000556938 3.06624e-17)
(-0.0209239 0.000757182 1.68461e-17)
(-0.0106503 0.00210138 -4.89175e-17)
(-0.0129575 0.00104537 -5.75881e-17)
(4.85604e-06 -6.17509e-06 -1.79687e-18)
(0.00345592 -0.000522481 1.08847e-17)
(0.000317539 0.000772034 -9.56731e-19)
(4.96252e-05 0.000618004 1.88037e-18)
(0.00922067 -0.00265592 -3.90776e-17)
(0.00304314 -0.000188944 4.95698e-20)
(0.000212728 -1.28291e-05 4.19246e-18)
(0.00333742 0.000911264 4.95684e-17)
(0.0026241 -0.000864362 2.91853e-18)
(-0.0136139 0.00116839 4.64824e-18)
(-0.000133707 0.000199239 3.73633e-19)
(0.00436129 -0.00178702 3.9538e-17)
(-0.00271181 0.00143277 -2.36594e-16)
(0.00156892 0.0034317 3.63978e-17)
(-0.0188727 -0.000395433 -1.30106e-18)
(-8.41081e-06 5.30089e-05 8.82865e-19)
(5.74313e-06 0.000575741 -2.21899e-18)
(-0.000194555 3.19644e-06 2.32784e-18)
(0.00074452 0.00155293 -9.62603e-18)
(-9.01483e-05 3.81128e-05 -1.47991e-18)
(-0.021743 -0.00321743 -1.79363e-17)
(0.000126044 0.00216312 1.89082e-17)
(0.000379832 0.00129908 3.24576e-19)
(-0.00258481 -0.000388631 -4.71289e-17)
(0.00157221 0.000235869 7.97434e-18)
(0.00402648 -0.00240906 4.44398e-18)
(-0.0115413 0.00226799 1.41416e-17)
(-7.96432e-05 0.00245211 4.62706e-19)
(0.00360196 -0.00382832 9.15177e-18)
(0.00683356 -0.00535456 -4.9884e-18)
(0.00465549 -0.0018471 -3.34466e-17)
(0.00326369 0.00127912 -1.11871e-17)
(0.00561785 -0.00055492 7.44104e-18)
(0.00257003 -0.00187717 1.86537e-17)
(0.00319785 -0.00441255 -2.80913e-18)
(0.000386916 0.00222469 4.78454e-17)
(0.00233962 -0.00228134 -4.56e-19)
(0.0039737 -0.00138775 -2.00419e-17)
(-0.000100154 1.64742e-06 4.50047e-18)
(-0.00511855 -0.00104632 -5.10988e-17)
(0.00210518 -0.000229625 6.27763e-19)
(0.000374547 -0.000148752 1.34853e-18)
(0.000632962 0.00149873 8.81699e-19)
(0.000893852 7.43377e-05 7.76446e-18)
(-0.0135139 0.00110824 2.87623e-17)
(-0.0260564 0.000169777 -6.65878e-18)
(4.52107e-05 0.000308936 -2.53145e-18)
(3.43816e-05 -8.70817e-06 -1.56773e-18)
(-0.0235977 -0.00338378 -7.13563e-18)
(-0.0074071 0.00124879 -1.47336e-17)
(-6.0437e-05 4.88525e-06 3.44011e-19)
(-0.018588 -0.000233775 6.21685e-18)
(0.00116187 -0.000406698 1.72255e-17)
(0.00207945 0.00337901 3.9521e-17)
(2.2854e-05 0.000341526 -4.61606e-19)
(-0.0105739 0.000847273 -1.59895e-17)
(-0.00339762 -0.00281378 2.3758e-17)
(0.00072521 0.00115154 -1.92339e-17)
(0.000469537 0.000388831 -6.39772e-18)
(-0.0184931 -0.00127414 -2.54543e-18)
(0.00196304 0.00363789 -9.66593e-19)
(0.000766722 0.00020368 -1.0333e-16)
(-1.48032e-05 5.89476e-06 1.18884e-20)
(-0.0107032 0.000728543 1.57196e-17)
(0.000231268 0.00271093 9.1114e-17)
(-0.029998 0.00315591 -1.04759e-17)
(0.000347333 -0.000140206 1.93933e-19)
(-0.00140677 -7.50718e-05 -7.3043e-17)
(-0.0233067 0.00293583 -1.5817e-17)
(0.00288783 -0.00119222 1.22487e-17)
(-8.73661e-05 0.000167699 -1.6055e-18)
(0.00017945 0.000658869 5.55014e-19)
(0.0016549 -0.00325259 -1.42449e-17)
(0.0114391 -0.00132717 4.51138e-17)
(0.000268342 -1.66672e-05 -9.58929e-21)
(-0.000113637 0.000162464 2.02063e-19)
(-0.000239435 3.23279e-05 -8.44706e-19)
(-0.000238126 3.33092e-05 -3.60223e-19)
(-0.0104384 0.00111923 -8.72441e-17)
(0.00969149 -0.00259985 1.20069e-17)
(0.00278702 -0.00114127 -1.71446e-17)
(0.00287137 0.0038561 -7.05122e-17)
(-0.000267941 8.91156e-06 5.56292e-18)
(-0.00014912 5.33863e-05 -3.73094e-18)
(0.00471685 -0.000465155 3.00051e-17)
(-0.0190628 0.00120432 4.31438e-17)
(0.00194286 0.0006207 -7.86391e-18)
(0.000277192 0.000137335 1.07097e-17)
(-4.96278e-05 0.00040721 2.46971e-18)
(4.1323e-05 0.000405113 2.19238e-19)
(-0.0293927 0.00323619 5.52866e-17)
(-0.00430574 -0.000355105 8.70205e-17)
(-0.000101069 8.04748e-05 -2.19088e-20)
(-3.91304e-06 0.000398313 3.59268e-18)
(0.000962356 -0.00529481 4.35692e-18)
(0.00258196 -0.00180703 -7.13446e-18)
(0.00238063 -0.000717973 -1.28768e-17)
(1.49379e-05 0.000581299 8.11598e-19)
(0.000341612 0.000764038 -3.13395e-18)
(0.000594083 0.00111923 5.93693e-18)
(0.00394646 -0.00143197 3.40345e-17)
(-0.000124668 0.00248523 -3.11813e-18)
(0.00201388 0.00376042 6.0734e-17)
(0.00625479 0.000242961 2.86928e-18)
(0.00437464 -0.0010365 -8.9499e-19)
(-0.00141665 -0.0027093 1.18017e-17)
(0.0024594 0.00230149 7.38572e-18)
(-8.18713e-05 0.000328911 -4.40269e-19)
(-0.0108466 0.000708308 4.77621e-17)
(4.73809e-05 0.000395002 1.09707e-18)
(0.00028749 0.000974611 1.36401e-20)
(0.00114801 -0.000660736 -2.42341e-17)
(-0.00135787 -0.00250066 -4.73255e-18)
(0.000184995 0.00214961 -4.97522e-18)
(-0.000223235 1.19346e-05 1.59238e-18)
(0.0012652 0.00333786 -2.0039e-17)
(0.00390546 0.00241403 4.01496e-17)
(-0.00169783 -0.0011075 -3.41411e-17)
(0.00440644 -0.000966427 -2.99099e-17)
(0.000256116 0.00157361 1.87958e-17)
(0.0029207 -0.000876322 1.02838e-17)
(-5.29708e-05 0.000133534 1.38509e-18)
(-0.0272057 0.00295845 2.12834e-17)
(0.00136647 0.00310818 3.7066e-17)
(-0.0242571 0.00104116 -4.54486e-18)
(0.000195102 0.000571215 -5.92789e-19)
(0.00143126 0.000359951 1.19076e-17)
(0.00294099 0.00397357 1.8439e-17)
(-0.014877 0.00162155 2.96945e-17)
(-0.00560311 0.000638744 4.16752e-17)
(0.0040026 -0.000807753 1.34638e-17)
(0.00159013 0.00290939 -1.51264e-17)
(0.000306715 0.00111808 6.86958e-19)
(0.00050742 0.000611116 4.34581e-18)
(5.42667e-05 0.000586333 -7.94198e-19)
(0.000276807 0.00188869 -4.24753e-18)
(0.000324476 0.00193219 -2.67894e-17)
(5.83066e-05 0.000753399 -4.66103e-18)
(0.00345116 -0.000885103 9.32336e-18)
(0.000359555 0.00194253 7.5971e-17)
(-0.0246114 0.00117559 1.62459e-17)
(0.00066874 0.000169551 2.55942e-17)
(0.000460213 0.000884961 -2.42894e-18)
(0.00402166 -0.00244777 -6.41684e-18)
(0.00233288 -0.00331769 -2.19825e-17)
(0.000345383 0.00132832 -8.82403e-19)
(0.000118283 0.000833572 2.66941e-17)
(0.000825447 0.00255352 -2.81223e-17)
(-0.0281485 1.65105e-05 -2.07195e-17)
(-0.0270172 0.00110737 -2.37949e-17)
(0.003713 0.00391167 2.40205e-17)
(3.68778e-05 -1.19937e-05 5.49525e-19)
(-0.0195042 3.7596e-05 -8.97145e-18)
(0.00172182 -0.00321906 6.77778e-18)
(-0.000266112 9.10885e-06 2.27073e-18)
(0.00139534 0.000957615 -6.59103e-18)
(0.00357458 -0.00191591 1.07738e-17)
(0.000275731 0.00149932 4.42785e-18)
(0.00360781 0.00220575 1.35286e-18)
(-0.0206974 -0.00246004 -5.40218e-18)
(0.00546845 -0.000631039 -1.2059e-17)
(0.00234297 -0.00170282 -1.00177e-17)
(-0.0271693 0.00288478 -4.30852e-17)
(0.00103853 0.000193384 -1.23331e-17)
(-0.0129166 0.000809937 7.32573e-17)
(-3.28219e-05 6.47325e-05 5.44873e-19)
(-0.000108151 8.65534e-05 -1.55116e-20)
(-0.0173631 0.00112445 -2.1436e-17)
(-0.0280423 -0.000109107 2.45396e-18)
(0.00029123 0.00233525 6.87103e-17)
(0.00103929 0.000161635 -4.02366e-18)
(0.000230779 0.000712021 -2.70364e-18)
(-3.64031e-06 0.000387327 -2.12923e-18)
(0.00186866 -0.0022682 -5.03692e-18)
(0.000529761 0.00299466 -9.60379e-18)
(0.00221168 -0.00408409 2.89308e-18)
(0.000681629 0.000623507 1.83402e-17)
(0.00362694 -0.00369826 -5.39864e-18)
(0.00360701 -0.000864493 -3.93475e-17)
(5.63925e-05 0.000353769 -2.89131e-18)
(0.00145681 0.00337801 3.08922e-18)
(0.00219968 -0.00403416 1.24704e-18)
(0.000998729 -0.00522778 1.27096e-18)
(-7.10429e-05 0.000330226 -2.20523e-19)
(0.00534226 -0.000857923 5.17872e-18)
(0.000884949 0.000112872 -6.19e-18)
(-0.00271287 0.000273466 3.15559e-17)
(0.00180953 0.00223661 -1.2196e-17)
(0.00021694 0.00215 1.34353e-17)
(0.00170804 0.000407712 -6.20726e-18)
(-0.000233724 3.24513e-05 1.15066e-18)
(0.000302143 -7.81812e-05 -2.02913e-18)
(0.000401184 0.000249133 -5.26893e-18)
(6.57367e-05 0.0022597 -6.32474e-19)
(0.000168496 0.00131255 -4.68035e-18)
(0.00413938 0.00322527 -1.56263e-18)
(-0.000396097 0.00230852 -7.11632e-18)
(0.00349283 -0.00116857 1.1319e-17)
(-0.000179915 5.54573e-05 9.43482e-19)
(0.00552957 -0.000190756 -3.00902e-17)
(0.000376634 0.00227697 1.10017e-17)
(0.0104993 -0.00594557 2.86265e-17)
(0.00048152 -0.000258236 -5.27154e-18)
(0.00014509 0.0012731 1.13739e-17)
(-0.00010386 0.000165125 -1.44781e-19)
(0.00150961 -0.00131941 -7.49252e-18)
(0.00119727 0.000410119 -3.81603e-17)
(-0.0226655 0.00293261 5.35417e-17)
(-3.53874e-05 8.08322e-05 -2.10496e-18)
(0.00172842 0.000746172 8.17493e-17)
(0.00167214 -0.00122351 2.92205e-18)
(0.00436287 -0.00375262 -1.96595e-17)
(0.00223757 0.0025157 9.94254e-18)
(-0.0114802 0.000789493 -5.80881e-17)
(0.00027181 0.00220403 6.42857e-18)
(0.000141698 0.000640108 -1.2243e-18)
(-0.0134936 0.00130712 -2.1546e-17)
(-0.00847785 0.0010255 -5.16892e-17)
(7.40764e-05 0.000532388 8.50283e-20)
(0.00132821 -0.00067709 1.67538e-17)
(-0.00334201 -0.00276913 5.85498e-17)
(0.00372112 0.00372035 2.96209e-17)
(0.00445228 -0.00142871 -1.45829e-17)
(-9.15212e-05 6.91846e-06 -2.27086e-19)
(0.000483423 0.000382406 -3.42156e-18)
(0.00112824 0.00305138 8.00242e-18)
(0.00146561 -0.000915826 1.6358e-17)
(0.00377355 -0.000200319 -1.68634e-17)
(0.00306376 -0.00242429 2.21776e-17)
(0.000400346 -8.67626e-05 -8.55438e-19)
(0.00294731 -0.00175812 -8.76233e-18)
(-0.0269203 -0.000134885 -2.77328e-17)
(0.000617117 -0.000286269 -9.64668e-19)
(0.00107145 -0.000689036 3.26242e-18)
(-0.000231351 3.54409e-05 -1.23681e-18)
(-0.0190092 0.000575978 -1.95988e-18)
(6.3154e-06 3.96669e-05 4.99607e-18)
(0.000245504 0.00110106 -7.45798e-19)
(-0.00177856 0.00127708 -7.90252e-17)
(0.000221192 0.000947121 -1.64517e-18)
(-0.0277883 -0.000445907 1.41413e-17)
(0.00113429 0.000790425 -2.36946e-17)
(0.000291058 0.00153313 2.13404e-17)
(-0.000223157 3.65937e-05 3.98463e-19)
(0.000384994 0.00192647 -4.43894e-18)
(-0.000115747 0.000269853 1.489e-18)
(0.00284788 0.00140407 6.69996e-18)
(-0.000251034 1.99299e-05 1.72496e-19)
(0.000644522 0.00238823 -1.01589e-17)
(0.0012551 -0.000384698 8.35931e-18)
(-0.00914596 -0.00156564 1.82613e-16)
(0.000460557 0.00253075 7.84589e-18)
(-0.0190837 0.00117207 3.60564e-17)
(-0.000214499 3.19267e-06 2.10285e-19)
(-4.60033e-05 0.000112228 -5.56302e-18)
(0.0024102 0.00216787 8.08543e-18)
(0.00176382 0.00171736 -3.88045e-18)
(-0.0173377 0.000294861 -2.67741e-17)
(-0.0222151 0.000301939 1.19638e-17)
(0.00328056 8.28394e-05 1.71551e-17)
(-5.84199e-05 0.000431311 -1.63574e-19)
(0.00574425 0.00139879 5.09365e-17)
(2.58567e-05 0.00213054 -8.6437e-17)
(0.000748723 -0.00518442 3.98251e-18)
(0.00526942 0.00326114 -2.49576e-18)
(0.00311962 -0.000392306 1.06872e-17)
(-0.0196905 -0.00256438 -6.11475e-18)
(0.00102234 0.00161422 3.1028e-18)
(0.00173495 -0.00215704 -3.75046e-18)
(0.00550129 0.000924574 7.89872e-17)
(5.15449e-07 0.00244654 2.54365e-18)
(0.00346171 0.000132253 -1.09903e-17)
(0.000320476 0.00232908 -7.01199e-17)
(0.00339405 0.000315356 1.69119e-17)
(0.00117256 -0.000721414 -3.0646e-18)
(0.00395756 -0.00196403 4.36032e-18)
(0.000369278 0.00125492 1.01085e-18)
(0.000489211 -0.000161796 -4.51637e-18)
(0.00167989 -0.00128506 2.49015e-19)
(0.00134117 0.00168346 -1.49715e-17)
(0.000679575 0.00115086 -2.6064e-18)
(-0.000108724 0.000292603 -9.68395e-19)
(-0.00025827 6.92124e-06 -2.61899e-19)
(0.00338049 -0.00103757 2.64189e-17)
(0.00123157 -0.00029559 1.56848e-17)
(0.00406037 -0.000135619 1.32424e-17)
(-3.45331e-05 0.000416366 -3.0571e-19)
(-5.60471e-05 0.000352405 -5.50059e-19)
(1.45552e-06 3.27874e-05 -5.69963e-18)
(0.000420188 0.000785308 -1.79617e-18)
(0.000236219 -9.914e-05 3.07696e-18)
(0.000636795 0.000984541 1.90712e-18)
(-0.000238776 3.86651e-05 7.00187e-19)
(-0.0104372 0.000938709 3.10333e-19)
(0.00204928 -0.00291675 -1.02107e-17)
(0.00018073 0.00214342 -7.68917e-18)
(-0.000126871 4.40299e-05 1.04465e-18)
(-3.35788e-05 3.96432e-05 -1.35397e-20)
(0.000286253 0.00171567 -3.79463e-19)
(0.00315548 0.00125773 7.52732e-18)
(9.05006e-05 0.000942216 3.43368e-18)
(-0.0286132 0.00332684 -2.61386e-17)
(0.00130234 0.00243994 -8.33343e-18)
(-0.0266998 -0.000855608 3.47028e-17)
(0.0017018 -0.00126356 -4.35966e-18)
(0.00513074 -0.000423798 3.06644e-17)
(0.000867515 -0.000105666 6.29421e-18)
(-5.1956e-06 3.14258e-05 2.7377e-18)
(-0.000258131 2.91313e-05 7.28267e-19)
(0.000469979 0.000684548 -8.00526e-18)
(0.00113345 0.000792183 1.43491e-17)
(-2.2589e-05 3.32287e-05 -2.57883e-19)
(-0.0170188 -0.00229747 3.44638e-17)
(0.000546096 0.00100372 -1.63921e-18)
(-0.000177096 -0.000118559 -5.07538e-17)
(0.000291132 0.00188827 5.57788e-19)
(0.00143716 0.00249202 -4.49267e-18)
(0.00387167 -0.00374282 1.01662e-17)
(0.000101892 -3.22107e-06 4.11457e-18)
(7.33953e-06 8.34516e-07 2.47596e-19)
(0.00202851 -0.00294654 1.68532e-18)
(2.9691e-05 0.000497183 6.13734e-18)
(0.000115025 0.00078486 6.8474e-18)
(-0.0300319 0.0037826 -2.61724e-17)
(0.000285115 0.000759879 7.19229e-19)
(-3.1095e-05 0.000172958 -1.95535e-18)