/*--------------------------------*- C++ -*----------------------------------*\
| =========                 |                                                 |
| \\      /  F ield         | OpenFOAM: The Open Source CFD Toolbox           |
|  \\    /   O peration     | Version:  v2012                                 |
|   \\  /    A nd           | Website:  www.openfoam.com                      |
|    \\/     M anipulation  |                                                 |
\*---------------------------------------------------------------------------*/
FoamFile
{
    version     2.0;
    format      ascii;
    class       volScalarField;
    location    "250";
    object      k_0;
}
// * * * * * * * * * * * * * * * * * * * * * * * * * * * * * * * * * * * * * //

dimensions      [0 2 -2 0 0 0 0];


internalField   nonuniform List<scalar> 
13917
(
0.000166291
0.000149696
0.0541666
0.000154814
0.00014871
0.000193185
0.0552871
0.0570264
0.0866672
0.000174309
0.000215264
0.000189049
0.000155002
0.0176635
0.000155723
0.000154796
0.000150051
0.000178429
0.000188613
0.000148693
0.000149776
0.0555579
0.00014861
0.0520179
0.000148359
0.050154
0.000161849
0.000164614
0.000212879
0.00018745
0.000168033
0.000159004
0.000160402
0.000154734
0.000148498
0.000124444
0.000148664
0.0525105
0.000158601
0.0194462
0.000147798
0.000149902
0.000145281
0.000168635
0.000149585
0.000156068
0.000178191
0.000187072
0.000386592
0.000148017
0.000159972
0.000149954
0.000421732
0.000155047
0.000150106
0.000159231
0.000214772
0.000148802
0.000156269
0.000149371
0.0903529
0.000149718
0.00928188
0.000148617
0.000191866
0.0475069
0.000148665
0.00014857
0.000217247
0.00016372
0.000148754
0.0847042
0.0509505
0.000148364
0.000405498
0.000193485
0.0370789
0.000151942
0.045757
0.00014957
0.000149344
0.000148706
0.000189615
0.0570852
0.0473665
0.000151684
0.000149175
0.0249428
0.000159566
0.000145253
0.0565271
0.000181515
0.000148253
0.000151542
0.0352436
0.000189869
0.000204182
0.000184404
0.000209863
0.000170764
0.000146801
0.000158865
0.000168449
0.000153147
0.000147013
0.0875615
0.000197067
0.000188208
0.000150096
0.000168909
0.0530457
0.0211219
0.000195754
0.0877982
0.00015133
0.000421789
0.000148176
0.000262153
0.029359
0.000155013
0.000149823
0.000215534
0.0335571
0.000163998
0.000147904
0.000151195
0.000149341
0.000147976
0.000145321
0.000191821
0.0472153
0.00015116
0.000149682
0.000149827
0.013092
0.0500022
0.000166378
0.000171244
0.000148623
0.00015487
0.000225472
0.000147365
0.000150547
0.000170991
0.000148583
0.0726194
0.000217788
0.000149802
0.000146964
0.000159463
0.000182845
0.000408575
0.00019572
0.000164213
0.000158762
0.0257313
0.000162887
0.00146995
0.0302071
0.0146405
0.000153324
0.000162192
0.000149569
0.000203163
0.000195165
0.00020925
0.000153059
0.000183692
0.000148681
0.000159321
0.000164896
0.0277486
0.000198245
0.000150924
0.0513437
0.000165382
0.0496017
0.00030594
0.0660934
0.000148256
0.000182999
0.00016906
0.000147343
0.000149117
0.000158364
0.0473329
0.00024789
0.0308328
0.000168815
0.000206904
0.000152682
0.0518961
0.00022561
0.000148682
0.000172106
0.000161532
0.000155012
0.000148322
0.000183349
0.00442614
0.00015953
0.000148116
0.000181944
0.000182644
0.044757
0.00311501
0.000148488
0.000148892
0.000184016
0.0485428
0.000150318
0.056901
0.0329239
0.000207008
0.000147028
0.000203185
0.000180935
0.0326392
0.000148048
0.0897226
0.000148184
0.00018667
0.000147492
0.0564516
0.0891933
0.000155155
0.000441438
0.000159191
0.000147041
0.000136348
0.000197683
0.000168613
0.0470862
0.0272105
0.000146458
0.00015959
0.0619026
0.0365182
0.000149517
0.000147666
0.020783
0.000208451
0.000149758
0.000252592
0.000192522
0.000161613
0.000165592
0.000149514
0.000164603
0.0303212
0.000149288
0.000187922
0.00017401
0.00014923
0.000148739
0.000189618
0.0273793
0.000194028
0.000158552
0.000155998
0.00014979
0.0275821
0.0901451
0.000255026
0.000147071
0.0472578
0.0283992
0.00649875
0.0457574
0.000195108
0.000149422
0.000147504
0.000178641
0.0496267
0.000201466
0.000155824
0.00502539
0.000177267
0.000145246
0.0751384
0.000148524
0.0545599
0.000158799
0.000149722
0.000157203
0.000164167
0.000162095
0.000253152
0.000160468
0.000149689
0.000138461
0.0462474
0.0943889
0.000148041
0.0129589
0.000149098
0.000149687
0.000148207
0.000238533
0.00014858
0.000188816
0.000164882
0.000148571
0.0001823
0.00015236
0.000337089
0.000165031
0.000180026
0.000148022
0.000148669
0.0494468
0.0321773
0.000148153
0.000147527
0.0718589
0.0001482
0.0549318
0.000147922
0.0597693
0.000151367
0.00023816
0.000167838
0.000431754
0.000152915
0.00246877
0.000186288
0.000157249
0.000208119
0.000205147
0.000149809
0.0485945
0.000172049
0.032932
0.000153964
0.0217727
0.000160417
0.0620229
0.000182688
0.000174284
0.000173544
0.0575849
0.000149436
0.000165445
0.0583519
0.000149414
0.000152639
0.0300559
0.000186873
0.000150795
0.000247232
0.000208303
0.000147034
0.0255199
0.000189814
0.000148483
0.00014745
0.000149149
0.000146929
0.000160249
0.0604134
0.000203331
0.0552016
0.000148286
0.000190921
0.00899348
0.00017534
0.0571768
0.0551957
0.0891663
0.000146494
0.000255033
0.000147333
0.0868516
0.000149348
0.000455263
0.000192383
0.000157044
0.00014931
0.00018279
0.000185245
0.000186123
0.000591193
0.0570316
0.0254005
0.000165066
0.000173345
0.000147703
0.0398637
0.0543667
0.000148954
0.000536767
0.000148407
0.000236193
0.00015135
0.000149504
0.000152351
0.0393835
0.000152267
0.0303932
0.0113529
0.000211415
0.000195819
0.000149762
0.000195782
0.000193041
0.000148265
0.000188792
0.000149346
0.000148419
0.000187266
0.00014972
0.000148409
0.000147299
0.000245997
0.000149647
0.0250024
0.0353837
0.0057846
0.000226164
0.0376471
0.0332946
0.000174971
0.000148291
0.00021079
0.00015821
0.000160796
0.000148642
0.0683076
0.0523155
0.0303571
0.000154637
0.000196445
0.000153595
0.000159409
0.000186104
0.000151723
0.000248156
0.000150086
0.000148553
0.0606433
0.0478779
0.0497836
0.000185738
0.00382182
0.0529064
0.063533
0.0360866
0.000145518
0.000181266
0.00015183
0.000149032
0.000567973
0.000178873
0.000148942
0.000179727
0.000173323
0.0339172
0.000148244
0.000202331
0.0112968
0.000253627
0.030481
0.000149698
0.000148993
0.000154964
0.00016289
0.0001465
0.0410717
0.000200388
0.000160456
0.038493
0.000159182
0.000203725
0.0690178
0.000219946
0.000210184
0.000212401
0.000202347
0.000178222
0.000210076
0.00017672
0.000215318
0.00020786
0.000180499
0.000191543
0.000148438
0.00530259
0.000160922
0.000146874
0.000162091
0.000152282
0.0369067
0.0870335
0.00014812
0.000145508
0.041156
0.0274659
0.000149721
0.024976
0.000152628
0.000209009
0.000148222
0.0419424
0.00188936
0.000159468
0.000150373
0.040484
0.000218704
0.0128149
0.000149777
0.0341147
0.000338441
0.0749412
0.000146989
0.0431941
0.0945693
0.000175603
0.000147421
0.000149979
0.000193586
0.000204998
0.000148217
0.00014746
0.000147622
0.000147589
0.0413833
0.000964682
0.000175219
0.000245864
0.000148182
0.000146836
0.000196103
0.0863364
0.000165805
0.000148794
0.000148382
0.000148505
0.0798104
0.0567373
0.000149127
0.000148526
0.000255072
0.000176369
0.000167846
0.000148926
0.00015244
0.000157704
0.000190978
0.00019813
0.000251317
0.000212114
0.000195172
0.00283325
0.00017985
0.000148082
0.0353814
0.000148513
0.0001531
0.000156087
0.00522018
0.000170699
0.000146932
0.000258908
0.000191078
0.00873027
0.000195342
0.000160529
0.000174695
0.000149244
0.0946892
0.000244038
0.0643829
0.000149781
0.000162461
0.000249163
0.0577166
0.0116544
0.000185506
0.000189381
0.000154587
0.000154502
0.000148943
0.00016566
0.000169414
0.000149334
0.000180759
0.000173163
0.0651327
0.0151597
0.000153929
0.000202996
0.00109863
0.000158178
0.000150104
0.00041859
0.0822257
0.0727009
0.000236791
0.000145439
0.0286182
0.000192981
0.000147471
0.000163405
0.000190616
0.000159846
0.000187414
0.0468442
0.000209414
0.000173057
0.0946206
0.000152969
0.0305289
0.000149577
0.000149082
0.0141397
0.0837495
0.000209388
0.000152969
0.000150769
0.000148533
0.000177748
0.000431609
0.000207144
0.000154881
0.000207548
0.000182423
0.00014826
0.000488597
0.000206322
0.000245524
0.000148006
0.000208627
0.000152172
0.01326
0.000175041
0.000170493
0.000162753
0.000147138
0.000146789
0.0001495
0.000175164
0.000156324
0.000261284
0.000523676
0.000183188
0.000147088
0.000207737
0.000210626
5.63509e-05
0.000149157
0.000155953
0.0001475
0.00016377
0.000156532
0.0937413
0.000149518
0.00162577
0.000163347
0.000214984
0.000181077
0.0502961
0.000171442
0.000149829
0.0469989
0.0122229
0.000148913
0.00015597
0.00417041
0.000215864
0.000201569
0.000149544
0.000150488
0.000214071
0.000157306
0.000185634
0.00018821
0.000146856
0.000182832
0.0539129
0.0001491
0.000153233
0.000147754
0.030056
0.000149767
0.000154201
0.0300807
0.000152309
0.0790323
0.00015876
0.000160617
0.000147709
0.000166736
0.000148244
0.00017706
0.000147165
0.000174359
0.000152616
0.0199711
0.000329662
0.086211
0.000153557
0.000149356
0.000178783
0.000170892
0.0359446
0.0895399
0.000177937
0.000148456
0.00025053
0.000210375
0.000244803
0.00025821
0.00017815
0.0428861
0.000165527
0.000175793
0.00020411
0.000179703
0.000177561
0.000240404
0.000176769
0.00015464
0.000192049
0.000157396
0.000147921
0.00016347
0.000169055
0.000158792
0.000148307
0.000147678
0.000182877
0.00015381
0.000185753
0.000148437
0.00014847
0.000149819
0.000152193
0.000145127
0.000156593
0.00014789
0.0403807
0.000188671
0.000187692
0.000146634
0.000149635
0.000163816
0.0001786
0.000150819
0.0859132
0.00017594
0.0755044
0.000163513
0.000200178
0.000151181
0.00014979
0.000147474
0.000152354
0.020587
0.000149688
0.0146174
0.00015705
0.0108243
0.000165463
0.000176625
0.000214409
0.000146136
0.000149935
0.000189098
0.000148582
0.000150183
0.0726805
0.000151121
0.000149157
0.000160111
0.000147599
0.00014605
0.000159007
0.000156522
0.0296294
0.00016406
0.000149096
0.000147463
0.0626752
0.000175442
0.000149577
0.00014978
0.0780241
0.00241624
0.0250822
0.000160546
0.000154649
0.000146536
0.000145872
0.000181004
0.000164747
0.000260409
0.00015421
0.0452293
0.000150179
0.000152543
0.0208192
0.000148447
0.000161193
0.000148632
0.000148442
0.000168167
0.000162188
0.000151136
0.0805861
0.0258206
0.000181801
0.000148083
0.000145736
0.000206198
0.0134955
0.000149718
0.00138713
0.000145682
0.000168087
0.000148137
0.000148189
0.000177329
0.000149296
0.00095294
0.000168274
0.000149817
0.000145534
0.00014886
0.000147887
0.000152991
0.00042342
0.000148833
0.000147813
0.0816118
0.0785899
0.000174183
0.000170016
0.000185227
0.000157049
0.000147494
0.000156637
0.0422257
0.000175181
0.000148864
0.000150182
0.0898061
0.000169668
0.0619358
0.000149772
0.000151014
0.0275823
0.000167669
0.00015141
0.0181275
0.000281705
0.00014783
0.00020051
0.000147459
0.000149144
0.000146575
0.051957
0.00014504
0.000149337
0.000147492
0.00470519
0.000157275
0.000208792
0.000165976
0.000148227
0.000159074
0.00014912
0.0567028
0.000147789
0.000148949
0.000149171
0.000207364
0.000149114
0.000209603
0.0201624
0.0424817
0.000155592
0.000178906
0.0356356
0.00014865
0.0242215
0.0869767
0.040193
0.0381939
0.0810669
0.0100339
0.000204958
0.000150081
0.0468295
0.000167462
0.0555149
0.00014683
0.00014825
0.000149617
0.000149074
0.000158501
0.000158553
0.0368343
0.000148171
0.000148533
0.0121547
0.000190466
0.000148841
0.000160744
0.00016208
0.000150222
0.000319528
0.00016094
0.00015275
0.000157112
0.0210801
0.0258692
0.000255069
0.000148009
0.000219624
0.000191186
0.0361908
0.0902694
0.000197703
0.000148222
0.000151367
0.000150173
0.000144677
0.000152409
0.000145427
0.000157819
0.000165032
0.0425951
0.000206718
0.00014939
0.000199715
0.0655115
0.000167214
0.000149813
0.0325025
0.000148438
0.000149951
0.000160843
0.0432561
0.0001491
0.000148037
0.058666
0.000254173
0.000439113
0.000198029
0.000121492
0.000147871
0.000212596
0.00014993
0.000148016
0.000149948
0.0449302
0.0312206
0.000147871
0.000145535
0.000148759
0.00404408
0.000151926
0.000162819
0.000148555
0.000150438
0.000210829
0.000148347
0.0001778
0.000202378
0.0498552
0.000149073
0.000173271
0.000154128
0.0472524
0.0629256
0.000148376
0.0485104
0.000186752
0.000266205
0.000149101
0.0401928
0.000149605
0.000158926
0.000167161
0.000197963
0.0453648
0.000230125
0.000217332
0.0858401
0.000147025
0.000248658
0.00014817
0.000157374
0.0603622
0.000149084
0.000149662
0.000151674
0.000150062
0.0412022
0.000145998
0.000148551
0.00018313
0.000171253
0.000179157
0.000206333
0.000209254
0.0197251
0.000189312
0.000168909
0.000175091
0.0434805
0.000174843
0.08024
0.0502595
0.000158154
0.000148416
0.0350525
0.000242629
0.000149816
0.000196607
0.000166332
0.000150992
0.000159108
0.000150241
0.000167324
0.000149943
0.00017775
0.000171565
0.000147361
0.000179026
0.0001482
0.000167536
0.000147143
0.000155171
0.000181672
0.000154164
0.000149926
0.000147909
0.000296684
0.00017828
0.0734424
0.000148417
0.00014955
0.000183547
0.000148624
0.000188627
0.000178244
0.000150995
0.000192883
0.000148064
0.0889008
0.000149706
0.000172696
0.0335995
0.000255245
0.000147933
0.000152917
0.0174345
0.000148033
0.00014758
0.0404486
0.057636
0.000153252
0.000215879
0.000148626
0.000149924
0.0438805
0.000152143
0.000146213
0.000225089
0.000148303
0.00063676
0.000149303
0.0001462
0.000149576
0.000210182
0.0371023
0.000149207
0.000149806
0.000147859
0.000155594
0.000148406
0.000231384
0.000178787
0.000149774
0.0628181
0.00016557
0.000245761
0.0550429
0.000431165
0.000147699
0.00014967
0.000148934
0.000213706
0.000155955
0.037251
0.0342435
0.000152865
0.0602428
0.000322313
0.000178296
0.000213445
0.000170213
0.000190051
0.0436249
0.000168148
0.000186674
0.059903
0.000188225
0.000154882
0.044464
0.000164658
0.000146979
0.000153533
0.0842681
0.000163563
0.000148065
0.000167059
0.000190879
0.000165429
0.0435522
0.000153254
0.0794044
0.000175067
0.000247127
0.000200112
0.000222662
0.000161414
0.000147957
0.000150882
0.0484921
0.000148088
0.000153127
0.000147529
0.000152468
0.000148287
0.000160835
0.000214719
0.000291392
0.000163167
0.000165627
0.0275655
0.000195006
0.000148315
0.00310324
0.0390669
0.00014675
0.000147533
0.000163398
0.0241316
0.000149677
0.000184006
0.000220506
0.000167628
0.000148853
0.000153535
0.00014845
0.000196507
0.000163723
0.000147833
0.0286244
0.0441915
0.000164192
0.00194968
0.000188736
0.00697319
0.00015221
0.000157522
0.0273582
0.00385476
0.000197929
0.000273832
0.000159579
0.00014984
0.000149202
0.000149694
0.000148584
0.000150655
0.000167522
0.000147975
0.000206689
0.00014759
0.000160761
0.000147958
0.000176824
0.000206928
0.000216795
0.000148563
0.000221453
0.000149191
0.0260219
0.000148397
0.000154691
0.000148824
0.000252538
0.0457361
0.000212151
0.00014798
0.000206705
0.000148893
0.000160895
0.0561934
0.000148971
0.000149981
0.000170417
0.000163417
0.0587896
0.000147995
0.000158716
0.000153632
0.000148348
0.000158954
0.000150574
0.000146311
0.000152506
0.0335891
0.000154887
0.000216734
0.070825
0.00017741
0.0390252
0.00015446
0.000146348
0.000159352
0.0271454
0.000154133
0.000162795
0.000175703
0.00547774
0.000147763
0.00412593
0.000179849
0.000184755
0.000146664
0.000145623
0.000216716
0.000150144
0.000149904
0.000159478
0.000146843
0.000153503
0.000160138
0.000190264
0.00018279
0.0527515
0.000158159
0.000191077
0.000198221
0.0157844
0.000172803
0.000183591
0.0230079
0.000171466
0.0851354
0.000152478
0.0150496
0.00367875
0.00014695
0.000149724
0.000147725
0.000151913
0.000169783
0.000148036
0.000152849
0.000197725
0.000153221
0.000160818
0.0522214
0.000157987
0.000155465
0.0869872
0.000151405
0.0253294
0.000156304
0.000165729
0.000147696
0.0323494
0.0313273
0.000148916
0.000152261
0.038034
0.000157623
0.0159729
0.000148048
0.000148319
0.0639343
0.000152123
0.000162934
0.00788559
0.000148517
0.000177545
0.00016051
0.000145621
0.000147374
0.0441718
0.0332874
0.000149925
0.00015405
0.000148912
0.000157348
0.000160282
0.0342946
0.000150813
0.00032955
0.0107892
0.000248857
0.00645284
0.000151923
0.000206813
0.000180188
0.000157356
0.000148488
0.000185863
0.0538459
0.000152145
0.000163466
0.0557003
0.000466291
0.000183775
0.000154303
0.000149788
0.000149618
0.000148521
0.0262702
0.000181382
0.000154989
0.000152589
0.000155274
0.000149798
0.000148515
0.000148579
0.000190602
0.00017373
0.0584769
0.000163921
0.00935764
0.032362
0.000159116
0.000178715
0.000146758
0.000158231
0.0275107
0.000149494
0.000153
0.000179914
0.000201769
0.000165138
0.0330938
0.00024466
0.000148437
0.0490358
0.000145369
0.00015038
0.000164399
0.000149819
0.000149283
0.000217086
0.0802628
0.000148318
0.0316818
0.000149446
0.000147652
0.000152843
0.000349301
0.000160238
0.000156287
0.0859921
0.000151946
0.000255172
0.0414859
0.000149608
0.000164157
0.000147973
0.0192836
0.000184669
0.000148602
0.0426842
0.000179914
0.000168527
0.000149856
0.0293666
0.000157657
0.000188115
0.000153031
0.000168314
0.0322924
0.00014778
0.000256558
0.000149153
0.000179242
0.000164392
0.000149601
0.0330073
0.000152757
0.000201341
0.00017864
0.000170086
0.000163368
0.000163629
0.000150646
0.0550043
0.000159524
0.021353
0.000158248
0.000187664
0.000148912
0.00016914
0.000148798
0.000190801
0.0440826
0.000151273
0.000147575
0.000441297
0.000152222
0.00128597
0.000151035
0.0357529
0.000243781
0.000163961
0.000148063
0.000147755
0.000148731
0.000145483
0.000193787
0.000166533
0.000161068
0.000156566
0.000148477
0.0056972
0.000154259
0.000163242
2.76617e-05
0.000148693
0.0136924
0.000179543
0.000165112
0.000251674
0.0486425
0.000123613
0.0349666
0.0543463
0.000147752
0.000203665
0.0335869
0.000188888
0.000149112
0.000149569
0.000204153
0.04371
0.0252238
0.000266473
0.00015101
0.000164972
0.00017198
0.0408946
0.00297377
0.000175489
0.000206782
0.000153528
0.000177689
0.00019784
0.000149058
0.000191532
0.0815523
0.00014885
0.00475517
0.000149672
0.000149126
0.0402828
0.0593106
0.000146981
0.000151297
0.000150867
0.000148281
0.000166912
0.000218811
0.000153449
0.000147947
0.000148598
0.000175156
0.000159434
0.000158981
0.000155947
0.000148523
0.0638139
0.0171059
0.0713411
0.000176908
0.000175186
0.000236756
0.000167005
0.0455155
0.000396709
0.0418589
0.000150406
0.0917401
0.0358861
0.000146433
0.00014831
0.000187544
0.0597971
0.0850855
0.000148292
0.00014891
0.0480561
0.00506125
0.0249826
0.000154051
0.000152876
0.000291795
0.000149527
0.0551469
0.0317513
8.42441e-05
0.0021719
0.000148904
0.000147922
0.000147175
0.000155302
0.0410022
0.000174395
0.000158349
0.00015066
0.000174177
0.0257333
0.000175208
0.0648787
0.0157375
0.0283889
0.000309489
0.000148456
0.000149101
0.0337827
0.000145856
0.000146899
0.000151785
0.000376472
0.000170274
0.0381738
0.000199115
0.000148311
0.0884464
0.000168259
0.000148283
0.0172793
0.000177121
0.000154235
0.000150057
0.0054904
0.0661638
0.000149168
0.0846608
0.0122292
0.0612432
0.00161313
0.000177477
0.000148209
0.000151308
0.000437113
0.000157157
0.0327781
0.000169154
0.00662658
0.000218627
0.000151233
0.000157775
0.000148296
0.000150865
0.0593138
0.0218571
0.000148527
0.0230415
0.000176
0.000148933
0.000154111
0.000147743
0.000212009
0.000150793
0.000328986
0.000165305
0.000148169
0.000147108
0.00017011
0.0267591
0.000170953
0.000153736
0.000169695
0.000148749
0.000152842
0.000160884
0.0204142
0.032964
0.0630156
0.000146215
0.000147045
0.000150208
0.000207169
0.000147391
0.000150355
0.000217564
0.000183552
8.204e-05
0.00014676
0.0678567
0.0328507
0.000149885
0.0193563
0.000202501
0.000172362
0.000310222
0.00015003
0.0382065
0.000157947
0.000151632
0.000152883
0.000145812
0.000253032
0.000154924
0.000152629
0.000158176
0.0312595
0.0390776
0.000149624
0.000148078
0.000153383
0.000149063
0.000202078
0.000150173
0.000186773
0.000154226
0.0517204
0.00015219
0.0633871
0.000146278
0.0891318
0.000150775
0.000145715
0.0621404
0.000186533
0.000171977
6.04459e-05
0.000162822
0.000173028
0.000148557
0.039974
0.000148511
0.000147419
0.000169172
0.000188619
0.0451394
0.0428487
0.000200003
0.0848092
0.000197915
0.000848537
0.000148865
0.000156547
0.000161645
0.0644224
0.000153964
0.0620131
0.0343902
0.000150476
0.000148883
0.000148787
0.000382646
0.000426264
0.000153743
0.000148733
0.000155593
0.00015955
0.000170801
0.00021186
0.000197664
0.00014835
0.000202637
0.000184378
0.0259021
0.000185435
0.000152448
0.000154264
0.0867424
0.000147149
0.000188057
0.0495149
0.000151048
0.000156102
0.000218772
0.000173309
0.000151016
0.0282028
0.000155256
0.0002582
0.000175705
0.000158717
0.000152288
0.063083
0.000147107
0.000172481
0.000273642
0.0629376
0.000175346
0.000177508
0.00015858
0.000164252
0.00014976
0.0642443
0.000159983
0.000149364
0.000162958
0.000148548
0.000149778
0.000378528
0.000148521
0.000149121
0.000148942
0.000207614
0.000149678
0.000162461
0.000190425
0.000210131
0.000194988
0.00014967
0.00018581
0.000195874
0.000214761
0.000183694
0.000156225
0.000211189
0.0407817
0.000258488
0.000149887
0.0663772
0.0373391
0.000149883
0.000154765
0.000145679
0.000219911
0.000187923
0.000149783
0.000256416
0.0615958
0.000146767
0.000149559
0.0361801
0.0369297
0.000189195
0.000145914
0.0669046
0.0360281
0.000472758
0.000148263
0.0663337
0.000195487
0.000168281
0.0539281
0.000158435
0.000145777
0.000162708
0.000206571
0.000165708
0.040413
0.0705082
0.000147573
0.0771838
0.00020262
0.039009
0.000146281
0.000163938
0.000149808
0.000148219
0.069065
0.00676029
0.000258343
0.00432537
0.00015835
0.00017612
0.000152615
0.068039
0.0248153
0.000148549
0.000150122
0.000158683
0.000148574
0.000179115
0.0676849
0.0903579
0.000176757
0.000151037
0.000150302
0.0696762
0.000154404
0.000179181
0.00014738
0.000151682
0.000257476
0.00946059
0.000126482
0.000358306
0.000149087
0.00024714
0.000153595
0.000164347
0.0924586
0.0210065
0.000148541
0.000149958
0.000171242
0.000154894
0.000149476
0.0730199
0.0637854
0.000147789
0.000144966
0.000149241
0.000147795
0.000336876
0.000147739
0.0364088
0.000194281
0.000188586
0.000148199
0.000167705
0.0731638
0.000167549
0.000198602
0.0488393
0.000149746
0.030827
0.000159272
0.000160062
0.000192815
0.0301629
0.0384805
0.000186809
0.000147821
0.000193007
0.000147788
0.000154364
0.000149531
0.033361
0.000159466
0.00274586
0.0002415
0.000175862
0.000148807
0.000225403
0.000160014
0.000149787
0.00018321
0.000145283
0.00017389
0.000166786
0.000149418
0.0902439
0.000152512
0.000204623
0.000151183
0.000147725
0.0562827
0.0532722
0.000153163
0.000158989
0.000174291
0.000172785
0.000185339
0.000159698
0.000155684
0.000157133
0.000251486
0.000154393
0.0316015
0.0001673
0.000238172
0.000205744
0.00015199
0.0746217
0.000145316
0.0514658
0.000153216
0.0594895
0.017673
0.046801
0.0588037
0.000232378
0.0001693
0.000149635
0.0672158
0.000170742
0.000148609
0.02357
0.0673462
0.000151949
0.000154984
0.00016218
0.000162245
0.000166849
0.0405178
0.000149882
0.000165266
0.000170431
0.000159932
0.000149048
0.000195856
0.000145767
0.0331858
0.000152704
0.000198409
0.000164008
0.000171537
0.000185758
0.0066355
0.000184838
0.000147593
0.000190529
0.0614981
0.0686989
0.000151192
0.0273716
0.000162001
0.000301796
0.000148513
0.000154022
0.0602062
0.000182821
0.0291959
0.0286123
0.000159443
0.0834005
0.000148678
0.000145725
0.0248059
0.000165349
0.000153942
0.0826307
0.000158303
0.000163919
0.000158257
0.000178758
0.000149824
0.0562622
0.0553988
0.0101739
0.000262465
0.000157096
0.000172794
0.0312262
0.000153454
0.000149926
0.00017788
0.000146232
0.00018613
0.0492624
0.0238334
0.0323361
0.000183388
0.000151442
0.0693549
0.000145377
0.000190871
0.000149561
0.0455834
0.000153479
0.000164933
0.0437932
0.000198335
0.000148111
0.000159911
0.00942593
0.000148931
0.000210348
0.000147638
0.0811946
0.0617078
0.000202555
0.000168027
0.000147653
0.000249091
0.000210992
0.00017112
0.000147629
0.000151651
0.000148899
0.000183034
0.000148808
0.00019603
0.000149177
0.000147919
0.0907038
0.000148317
0.000158256
0.00015769
0.000149828
0.0499222
0.000148171
0.000162104
0.065429
0.000181121
0.0283712
0.000148873
0.065116
0.000182474
0.0825825
0.000153035
0.000207101
0.000150482
0.000173146
0.000206861
0.000204317
0.000239232
0.0623795
0.000217305
0.00042708
0.000155896
0.000203435
0.000163602
0.000367915
0.000154278
0.000150248
0.000148661
0.000181458
0.000165508
0.00342447
0.000180229
0.0421367
0.0717386
0.000170895
0.000148768
0.014662
0.000179886
0.000150325
0.000153183
0.000148994
0.0367182
0.000148626
0.0191485
0.000148199
0.000160589
0.041711
0.000171607
0.000148447
0.000148608
0.029451
0.000148161
0.000153394
0.00015714
0.000161352
0.000159484
0.000149564
0.000215518
0.000168261
0.000163197
0.000268227
0.0476516
0.0479112
0.0353166
0.000146356
0.000148471
0.000172925
0.000151447
0.000163715
0.0273525
0.0486876
0.000145858
0.000148537
0.0410524
0.000111709
0.00014606
0.000147662
0.000155619
0.0551345
0.0450522
0.000158138
0.000163182
0.000149329
0.000236353
0.000207568
0.000174596
0.000158638
0.000164133
0.000150146
0.000167993
0.00019978
0.000150999
0.000149946
0.000157667
0.0534915
0.000154744
0.0240751
0.000148707
0.0580323
0.000162713
0.000156496
0.000146575
0.000147661
0.000283829
0.0767409
0.000165122
0.0246622
0.0563373
0.000150508
0.0613363
0.000212635
0.000148704
0.0174464
0.00021219
0.0002023
0.000149676
0.0424664
0.0398651
0.000149315
0.000163224
0.0327109
0.000167125
0.000148987
0.000147824
0.000150778
0.000155081
0.000185024
0.000235117
0.000167987
0.000182112
0.000146637
0.000149555
0.0352365
0.000147982
0.000168974
0.000155535
0.00015043
0.000176132
0.000148275
0.000152913
0.000258851
0.000147996
0.0482614
0.000148305
0.00789323
0.0527505
0.000191592
0.000149795
0.000149948
0.0676771
0.000145717
0.00015447
0.000149965
0.000211785
0.00178719
0.000166519
0.0534879
0.000163189
0.000265753
0.000150486
0.000188769
0.000148364
0.000148927
0.0225027
0.0530093
0.000844566
0.000153663
0.000187524
0.000188179
0.0406104
0.0663794
0.000264754
0.00016792
0.000145315
0.0581519
0.000148819
0.000149078
0.00025445
0.000204319
0.000157199
0.00017935
0.000164431
0.000160207
0.00015944
0.0860218
0.000155423
0.000147981
0.0216162
0.000164658
0.000146598
0.0363071
0.000148148
0.000148748
0.000211931
0.000189339
0.0389984
0.000146728
0.000154134
0.000147907
0.000315533
0.00014805
0.000201141
0.00738728
0.0497505
0.0328932
0.017802
0.000157903
0.0490747
0.000223796
0.000149393
0.000158875
0.000163213
0.000158166
0.000247785
0.0524349
0.0555549
0.047266
0.000344298
0.000149403
0.000200323
0.000148177
0.0226659
0.000161554
0.000153636
0.000154753
0.000151678
0.000148017
0.00019904
0.0574801
0.000146224
0.000153779
0.000147035
0.0462536
0.000153543
0.0870428
0.0299432
0.000544218
0.000148644
0.000148078
0.0428476
0.000191076
0.00014892
0.000194161
0.000149516
0.000191026
0.000178665
0.000193311
0.000180616
0.0603423
0.000147396
0.000148432
0.000249869
0.0358001
0.000160983
0.000167149
0.000148238
0.0160641
0.000148347
0.0001477
0.000152694
0.000148544
0.00723039
0.0510375
0.000405253
0.000186997
0.0674394
0.000105896
0.000145817
0.000165524
0.000146266
0.000255513
0.000149477
0.000154256
0.000148418
0.000147613
0.000148069
0.000426439
0.00015278
0.000280725
0.000146377
0.000158908
0.00015888
0.000266362
0.000148366
0.000165409
0.000170508
0.000173045
0.0816363
0.000147623
0.0366645
0.000177554
0.000165223
0.000149862
0.00014798
0.0389685
0.0102726
0.000149556
0.000148586
0.000255751
0.000256415
0.000161044
0.0636718
0.00015112
0.000148129
0.000165882
0.000146216
0.0518536
0.000153468
0.0481893
0.000148601
0.000151569
0.000148801
0.0464568
0.0482083
0.000145996
0.000181829
0.000247756
0.000148308
0.00014846
0.000147973
0.000183471
0.0646585
0.000176366
0.000156432
0.000168808
0.000148277
0.00014888
0.000153998
0.000148024
0.000221372
0.000148938
0.000187916
0.000189488
0.000165772
0.0001454
0.0217889
0.000189705
0.000148323
0.000179613
0.000164483
0.000209489
0.000153565
0.0874992
0.000177225
0.000148728
0.000185724
0.000186162
0.000155906
0.0908641
0.000186345
0.000165334
0.000263874
0.000148431
0.000188021
0.000169602
0.000184085
0.000147734
0.000148507
0.000145672
0.000159362
0.000184056
0.000183175
0.0683849
0.0340001
0.0316254
0.000149775
0.000300309
0.0524483
0.0714007
0.000148458
0.000148924
0.000181023
0.0514337
0.000153584
0.00017011
0.0127217
0.0402683
0.00700767
0.000171832
0.000212983
0.04021
0.000193674
0.000145812
0.00313988
0.000251945
0.000150515
0.000150958
0.000151464
0.0645635
0.000188177
0.0582307
0.000154067
0.0328888
0.000149724
0.00100049
0.0371692
0.000149629
0.000168571
0.0552733
0.0362972
0.000176138
0.000152149
0.000152873
0.00015009
0.000187273
0.000207091
0.00292698
0.0691004
0.000147089
0.0194347
0.00019593
0.000159855
0.000148103
0.000149048
3.33918e-05
0.000183102
0.000148401
0.000174285
0.000167573
0.000161316
0.0312049
0.0581475
0.0711704
0.0671585
0.000155191
0.000146524
0.000166686
0.0305624
0.0828817
0.000149151
0.000184848
0.00016981
0.00019225
0.000151759
0.000149705
0.000242572
0.010103
0.0299121
0.000278978
0.0254761
0.000147893
0.000183241
0.0657997
0.000149654
0.000166196
0.000196167
0.000146134
0.000213728
0.0763051
0.000181593
0.000149697
0.0204771
0.00020131
0.0612703
0.000144768
0.000154818
0.0001496
0.000153831
0.000149467
0.000172011
0.000163307
0.000162969
0.000185907
0.000168221
0.0502808
0.000154577
0.000164206
0.000158927
0.0231776
0.000165389
0.0356309
0.000158444
0.000156639
0.0117084
0.000170294
0.000148932
0.000163257
0.0139647
0.0648343
0.000208479
0.000148615
0.000148141
0.00014849
0.000158247
0.000152088
0.000332799
0.000259577
0.000183016
0.000161923
0.000226775
0.0306574
0.000149447
0.0819027
0.000160655
0.00016407
0.000148622
0.000149003
0.000177378
0.0674744
0.000148442
0.0316703
0.000229356
0.000170724
0.000206266
0.000148149
0.000148163
0.000163565
0.00015308
0.067332
0.0344214
0.000170592
0.000277764
0.000148559
0.000149523
0.00014994
0.000149611
0.0866547
0.000153499
0.0457552
0.000169113
0.000151865
0.000190974
0.00275133
0.0420924
0.0222463
0.000154214
0.000148277
0.000148864
0.000154737
0.00021319
0.00018213
0.0920263
0.000149021
0.000151409
0.000177355
0.000149709
0.000254456
0.000152577
0.000175861
0.000177403
0.000163216
0.000163393
0.000146746
0.000174522
0.000162877
0.000182486
0.000168088
0.000163621
0.000147168
0.000190914
0.000148003
0.00186026
0.0488508
0.000227937
0.00014901
0.000171651
0.000148794