/*--------------------------------*- C++ -*----------------------------------*\
| =========                 |                                                 |
| \\      /  F ield         | OpenFOAM: The Open Source CFD Toolbox           |
|  \\    /   O peration     | Version:  v2012                                 |
|   \\  /    A nd           | Website:  www.openfoam.com                      |
|    \\/     M anipulation  |                                                 |
\*---------------------------------------------------------------------------*/
FoamFile
{
    version     2.0;
    format      ascii;
    class       volScalarField;
    location    "350";
    object      omega_0;
}
// * * * * * * * * * * * * * * * * * * * * * * * * * * * * * * * * * * * * * //

dimensions      [0 0 -1 0 0 0 0];


internalField   nonuniform List<scalar> 
13851
(
0.0222891
1.69281
0.0794793
0.0221114
0.0852088
0.0360712
0.0215929
0.0462876
0.0206265
0.0862044
0.277373
2.77844
0.28265
1.63618
0.0213855
0.0310354
0.0243201
0.0253532
0.265441
0.0206215
0.0220296
0.0779149
0.02699
0.0227036
0.0282616
0.0466918
0.0240439
7.70236
0.0222155
0.0231171
0.0412049
0.0246122
0.0759775
0.45244
0.0223622
0.183256
0.309499
0.179358
0.095654
0.439933
0.0211502
0.0200487
2.60535
0.274391
0.281001
5.50641
0.277592
0.654296
0.0242882
0.101673
0.0816792
0.145866
2.52231
0.0215135
0.0219272
0.0200764
0.022162
1.29122
0.0229733
0.0216113
0.177908
2.86546
0.0384146
0.0996018
0.107643
0.0230075
0.319272
0.243247
0.0350409
0.0252103
7.89845
0.304538
1.51692
0.0216148
0.0209744
0.0207572
0.0749842
5.616
0.0494836
7.28545
0.0217887
0.241125
0.0213126
5.61306
0.0401819
2.58685
0.0305246
1.31051
0.0250375
0.0211175
0.183496
0.026378
0.219981
0.0274074
0.0248622
0.0242573
0.0879223
2.9342
0.156238
0.0245849
1.79265
0.0543525
0.0217265
0.0239605
0.0275927
0.0320158
0.0609394
0.0198979
0.575709
0.0375107
0.0237741
0.0211837
0.0257418
0.0235535
0.0235171
0.885757
2.90051
0.0198245
0.0221262
0.0221092
2.82904
0.0238053
0.309744
0.65586
0.676495
0.0230366
0.678538
0.0518934
0.0219244
0.139869
0.0211362
0.0206711
6.48065
0.0213159
0.882002
0.0207863
0.019818
0.295648
2.52555
1.47268
1.64357
0.0219458
0.0219981
0.0206388
0.0227852
0.27435
0.0593358
0.141553
0.0215763
0.279716
0.0883031
0.0218616
1.70986
0.022132
0.0226701
0.0227013
0.0208499
0.0224723
0.145266
0.0801214
0.0204859
0.0278132
1.3151
0.0206598
0.0257077
0.0203283
0.0768409
0.0355888
0.021861
3.80925
6.71074
0.0204639
0.0208626
1.47076
0.0206564
0.663673
0.0500335
0.0218575
0.27489
0.019978
0.0252701
0.287588
0.0213195
0.0833562
0.020295
0.0254658
0.0231218
0.021536
0.0955824
0.0773493
0.265022
1.84554
0.0214099
0.0347337
2.73001
0.022519
0.0218019
0.411741
0.0217329
0.0207753
0.0232217
8.42268
0.0226592
0.0211932
0.0650228
0.0213289
4.2325
0.0245378
3.4925
0.020139
3.05931
0.0216678
0.435713
0.019906
0.0205169
0.290471
0.0391656
3.88721
0.0213276
3.46002
0.0246884
0.021828
2.82418
0.139205
3.60433
0.0269981
0.0295137
0.0283954
1.22634
0.019929
0.0452764
0.0917644
0.0204556
0.0213315
0.0727516
0.0346205
4.08225
0.120043
0.0206153
0.0212058
0.0391366
0.40358
0.0214662
0.0705647
0.025615
3.64367
0.0554412
0.448815
0.0227414
0.0248179
0.0236963
0.399332
0.021747
0.0228229
0.0575535
0.0934166
0.0738495
0.289415
23.328
0.0214136
0.0205377
0.0246108
0.292185
0.0211063
0.273164
0.0225015
0.0217234
0.0268786
2.59629
0.114136
0.0236774
0.0226541
0.0868686
0.0465477
0.0301232
0.0206751
0.240209
0.197084
3.71955
0.276187
0.0215603
0.0200656
0.0272919
0.0548619
0.286567
0.656094
0.0206847
0.0214265
0.0834007
0.24613
0.155171
0.022788
0.0216153
0.0376076
0.243905
0.278516
0.0253526
2.58872
0.0206872
3.60128
0.027341
0.0241503
3.58575
0.0214241
0.0320165
3.22999
0.020673
0.0468923
0.0275037
0.0226455
3.18145
0.0254958
0.0216872
2.89595
0.020123
0.0250282
0.0248123
3.4935
0.138528
0.0213276
0.0566912
0.0213611
10.2742
0.0245692
0.0260759
0.0209758
0.13525
0.0287374
0.0226189
0.0214299
0.0214103
0.0216517
0.274013
2.22671
3.33004
0.026646
3.39329
1.9077
0.0213466
0.0352717
0.155167
0.0283791
0.0431905
0.129117
0.271272
0.0228099
0.738962
3.37432
0.0213988
0.206395
0.209035
0.222653
0.022613
0.0454209
1.17967
0.0208793
0.730523
0.0209668
0.0213736
0.0246116
0.0199133
0.0208246
3.27922
0.328802
0.0212825
0.0446324
0.0202399
2.61982
0.0358409
0.669635
3.3928
0.0212866
0.0421452
0.0274848
0.658693
0.0210821
0.0198423
0.0241608
2.2257
0.0212292
3.67385
0.0280334
0.139016
7.42906
0.330867
0.332476
0.0231862
0.0207245
0.0219718
0.0259278
0.0562557
1.67155
0.0358117
3.44076
3.26546
0.0202537
0.0214215
3.68304
5.42311
0.0838457
2.88284
0.0244561
0.0281128
0.025795
1.08192
0.0205437
0.0305379
0.0229612
0.0215196
0.0280974
0.0206596
0.0203141
0.0972505
0.0412689
6.31387
0.0254101
0.0602881
0.026015
0.398506
0.0255194
0.235699
0.0239271
0.289074
0.0198037
0.020649
0.0267871
0.226026
0.372551
0.135184
0.0257274
8.38004
0.449847
0.029651
0.0222954
0.0745973
0.0210714
0.387324
0.0272581
0.357187
0.361937
0.0699047
3.54101
0.0219781
0.172511
0.363656
2.78903
0.0198771
0.0295429
0.0509848
0.172861
0.0205143
0.0216521
0.0824421
0.138015
0.0277757
1.6347
0.0267554
0.0210137
1.57132
0.0261892
0.0200187
2.10332
0.0207175
0.0222666
0.0205603
0.0349538
0.022201
0.0200903
0.0218615
2.74752
0.021321
0.0383134
0.0207418
0.0246626
0.28232
0.0233551
0.0210816
0.0236002
0.0237957
0.688664
0.0217147
0.0324388
0.0213213
0.0247882
1.51149
3.65431
0.0213525
0.0250742
0.0256789
0.403875
4.75752
0.0210255
0.324596
0.0211026
0.0839711
0.0215488
1.1794
0.020057
2.91973
0.0720521
0.0200676
0.0251342
2.99681
0.0461135
0.301584
0.0220026
0.606572
0.0222144
0.0206175
0.020674
0.0215359
4.36899
0.0721842
0.14657
0.278305
0.0374391
0.0205565
1.32867
0.371875
0.0254592
0.0279477
0.401081
0.653229
2.77071
0.0222011
1.18304
6.66617
6.80533
0.0260012
0.0254655
0.675602
0.192818
0.0770346
0.425963
1.25261
0.0225878
1.38706
0.291855
0.0198092
0.175325
0.0743151
4.43061
0.0228631
0.0211985
0.0208365
0.0211581
0.0942086
0.0327625
0.960004
1.68789
0.0206893
1.69332
3.39178
0.0428286
0.369213
0.0375784
0.0199362
0.0206372
0.217259
1.87816
0.022756
0.104457
0.180276
0.020059
0.0278691
0.633574
0.194004
0.126998
4.20119
0.303158
0.0211156
0.0215332
1.80973
3.26555
0.146094
0.0358169
0.0418304
0.0199597
0.0210569
0.442188
0.0200151
0.0227783
0.019967
0.020751
0.316775
0.0951366
0.0248593
0.0200027
4.40535
0.403106
0.0207111
0.0217837
0.0211568
0.0218766
2.22714
0.445947
0.438463
5.58566
0.61217
0.0336227
6.26706
3.61623
0.0230253
0.0353714
0.0199351
0.0243861
0.0328519
2.41563
0.453843
0.102706
0.0281069
0.0206001
0.0303361
0.0219612
0.306011
0.0803892
0.0213141
0.0271854
0.0205142
0.0267143
0.137357
0.0215854
0.0210518
0.0361981
0.0215348
0.0862693
0.207986
0.133095
0.0305467
0.151571
0.0205922
0.0682325
0.0240533
4.33289
0.0216324
0.0239476
0.530043
0.0226404
8.85824
3.47535
2.20806
2.13025
0.0205413
0.295057
0.0218973
0.0207403
0.0200306
0.0207558
0.0268777
0.0257975
0.0332587
0.019964
2.05666
0.0752301
2.17761
0.0207885
0.0205955
0.0239663
0.151678
2.67172
0.0597034
0.0270231
0.021909
0.0247977
0.0213345
0.020869
0.245802
1.91017
0.0215136
0.0199558
0.0215491
0.02087
0.22546
1.52839
0.030996
2.90244
0.625658
0.021043
0.144387
2.54149
0.037227
2.76295
0.0217686
0.0247717
0.0584549
0.0248845
0.429394
0.0213428
0.669779
0.0277818
0.0319122
3.40777
0.020843
0.0222334
0.0398569
0.0206207
0.0248445
0.136304
1.51308
0.0779176
0.270561
0.326875
0.0199177
0.0207771
1.44081
0.17698
0.0369328
3.42734
0.0206002
0.0240263
0.0198308
0.591062
0.313268
0.0243407
0.0214463
0.286331
0.0241055
0.0236668
2.15714
0.107322
3.15737
0.0201032
0.0215094
5.67575
3.22245
0.168538
0.0217682
0.825914
0.0213281
0.292209
0.134631
0.0749277
0.0242045
3.01777
0.0235254
0.0223266
0.295162
0.0235786
0.0226285
0.0223005
0.0205826
2.14957
0.0304565
0.128725
0.0247198
0.247215
0.0206112
0.174524
0.0222073
0.0235297
0.0209702
0.0210166
0.0211703
3.22392
0.0208354
0.0199303
0.615674
0.0215521
4.17222
0.0281298
0.0219505
0.079939
0.239112
0.334343
0.0207792
0.0564587
2.86506
0.021739
2.89678
0.0314896
0.0205674
0.0367836
2.25535
0.0495768
0.0248308
0.020761
0.0199077
0.365555
0.0835504
0.0500765
0.0250523
0.0362714
0.021977
0.0218465
0.104401
0.393589
0.0930949
0.469204
0.0214917
0.0857397
0.0951689
3.32478
0.0241701
3.37664
0.271241
0.0215671
10.4847
0.0615657
2.64976
1.55035
3.05125
0.357858
0.0387326
0.0205756
0.02554
1.25233
8.03286
0.0209204
0.0258529
0.0749365
0.242076
0.0200528
2.38928
0.020585
0.0213073
1.70193
5.60534
0.329187
0.0207288
0.0213886
2.53082
0.237875
0.136123
0.0222103
2.86877
0.191166
2.53599
0.0598536
0.0436355
0.0216808
0.0215432
1.34655
0.0560906
6.32636
0.0248531
0.0352491
3.11134
2.69413
3.66947
0.0214012
0.0318814
0.0207006
0.0312619
0.0221736
2.9994
0.0238859
3.73308
0.0200292
0.0778037
0.0210537
0.155074
0.0343909
0.0313932
2.92699
0.0475012
0.0367407
0.0230196
0.0774523
0.647558
0.0461059
0.0228114
6.72785
0.0210022
1.61422
0.334223
0.0214984
3.25147
2.04467
3.86313
0.358334
0.0244303
0.0209248
3.15773
0.0239449
0.881954
3.51872
0.0207996
0.0226184
0.215145
0.405049
2.54757
0.0214669
0.0210012
1.2713
3.44559
0.12729
0.0244768
0.0218841
0.329844
1.60337
0.0980809
0.0199421
0.0393585
0.0206326
0.0223457
0.287029
0.0258357
0.350616
0.376608
0.02131
0.0221132
0.0209382
0.0223598
6.44469
2.98244
0.0292451
3.5233
0.0210554
0.0291062
0.0208982
0.020643
0.0214025
0.0212956
4.26252
0.0213529
0.0582332
0.0214019
0.0250123
0.316717
2.78858
0.0220528
1.94826
0.0527252
0.290697
0.0312475
0.0321417
8.58419
0.0267762
0.0331242
2.95687
0.998307
2.15093
0.040328
0.275053
0.0215667
0.0448018
0.0558252
2.76925
0.0212604
1.54582
0.0207658
0.0207999
1.59772
0.0225546
0.280973
0.0244195
0.0206855
0.0270869
0.0206985
0.0213945
0.0224854
0.0217255
0.263117
0.0208114
0.235708
1.44262
0.0574525
1.48328
0.0215249
0.0223313
0.0265465
0.0211594
0.0206855
0.0911049
0.0218697
0.0207131
0.0214839
0.0276434
4.03511
1.75503
0.043658
2.94585
0.259568
0.0210452
0.449792
0.0279625
0.0208117
0.32641
0.0380909
0.453436
0.0210192
0.280754
0.398326
1.13048
0.0204749
0.289206
0.0297298
0.0238345
0.0228576
0.0205968
2.1714
0.0578188
0.675729
0.0208068
0.0212752
0.681795
0.0215154
0.23932
0.347416
1.42714
0.278744
0.366846
0.0254518
0.0212301
0.0421729
0.0246913
0.0239029
0.14416
0.0423643
0.0219048
0.0218
1.48004
0.0207265
3.69978
0.291658
0.898044
0.196148
0.0222065
0.0206991
0.0213678
0.301793
0.368711
0.0204746
0.0229066
0.0207912
0.0878209
0.0201518
0.0207644
0.0218575
0.0331742
0.311101
0.034231
0.0271067
0.021206
0.0593703
0.33244
0.0221969
11.601
0.313477
0.0929616
0.0203495
0.0483931
0.0211891
0.0264507
0.0213293
5.34888
0.138016
0.372694
0.0240041
0.289912
0.021245
0.0280316
0.0214021
0.391293
0.551528
0.0203859
0.0327483
0.0429399
3.83825
0.0234673
1.94295
0.0273941
4.38779
0.0757558
2.34047
0.105951
0.0909291
0.220598
3.35494
0.364521
8.18281
0.0222844
0.133819
0.0201324
0.0228999
0.0264326
0.0215172
3.42978
0.0284516
0.0271894
0.344427
0.173263
0.69033
0.0213437
0.0234696
0.0246673
0.0208051
0.0261183
1.42567
0.621737
1.61715
0.0209121
0.0269314
0.0224044
0.651461
2.7611
0.0418271
0.0206806
0.0218079
1.24529
0.0447458
1.21795
2.27623
0.0292132
0.0203262
0.286622
0.0257198
0.0455803
0.028279
3.0189
0.295362
0.132387
0.0706821
0.0217785
0.0240751
0.0213202
2.12885
0.0381866
3.47176
0.287586
0.0261757
0.160623
0.0224366
2.90274
0.243373
0.0250011
0.155306
3.38169
0.167395
0.412496
0.0214664
0.0212474
6.14231
0.312798
1.29102
0.0223216
0.021542
0.0212981
3.94882
0.163166
0.0217025
0.0392929
0.0877561
2.93334
0.285383
0.649093
0.0214003
0.695222
0.0244543
0.0210657
0.156668
2.80557
0.0215967
0.0207553
3.54194
2.75706
0.022638
0.0208925
1.4996
0.0242608
0.216044
0.0209154
0.619075
0.0212338
0.0592897
1.50423
2.67329
0.0223114
4.04234
0.367368
2.03395
0.284313
4.31572
0.0272675
0.0211122
0.283717
0.0233354
0.0213599
0.0207855
0.454742
0.0210254
0.29833
0.0207661
0.0224712
5.30129
0.0660002
0.277136
0.0224972
0.0340748
0.0206711
0.0335746
0.302434
1.5821
0.0207604
0.0738834
0.328692
0.021364
0.0206114
3.274
0.0352218
0.0323574
0.144917
1.51851
0.666908
0.302755
0.423567
0.0283333
0.283435
0.371428
1.09702
0.0732824
0.0220467
0.143335
0.021096
0.0210521
1.5432
3.33878
0.0223817
1.88365
0.060555
4.03013
0.0431887
0.0342035
0.0211166
0.0647179
0.0615571
0.0214923
0.0224057
3.12951
3.08442
1.92676
2.5513
0.0339158
3.81933
3.1828
0.0329243
0.0215525
0.0209015
0.243326
0.0209299
0.247212
0.0219634
0.0219461
0.0225015
0.381391
3.12274
1.28266
0.0214475
0.286507
0.0238988
0.0267946
0.0209515
0.0248055
1.36543
0.0257859
3.65076
1.2213
0.0373577
0.131524
0.0214601
0.0364841
0.0214306
0.161311
0.0217177
0.0224481
0.0214011
0.0218226
0.168131
0.0220161
0.0332
0.0215988
0.0336104
0.162196
6.35872
0.0208886
0.0515215
0.0286827
0.0435781
0.0267641
1.99715
0.139347
0.0329233
0.0236632
0.0222559
0.0358548
0.0211184
0.255708
0.0214103
0.0208241
0.021727
3.02023
0.0266796
0.0227789
0.0250212
0.0280467
0.0747122
2.93766
0.267743
0.0370248
0.0213323
0.0460606
0.0221908
0.0208401
0.193289
3.69909
0.0279888
0.0273965
0.078352
0.293208
0.021754
0.0219253
3.72736
0.0223483
0.0727707
0.259733
2.97227
0.0212377
0.0300654
0.0212004
3.60363
0.151259
0.041338
0.133689
1.30334
0.0223184
2.53177
1.52928
0.0213045
0.357581
0.0929584
0.0221363
1.43403
0.021486
0.0209406
0.020559
0.171465
0.0338377
0.17317
0.0224317
0.02226
0.0314309
0.333298
0.287279
3.018
0.326655
0.0219421
0.152071
0.138372
1.45824
0.0728989
0.242456
0.0209437
0.0248504
0.0206072
0.216886
0.0319105
0.0211952
1.52124
0.137883
0.0316208
0.0253637
0.0201774
0.0281208
0.0495927
0.0327035
0.684473
0.0728637
0.0666968
0.0548892
0.12249
2.13915
0.0432807
3.10213
0.0208915
0.0207133
0.232065
1.37642
1.71449
0.0356355
0.0225555
5.27886
0.325197
0.0208607
0.0265289
0.0207905
0.0443493
0.0794827
0.0745818
1.7915
0.280384
0.0224678
2.60307
6.78636
0.0213968
0.0655354
2.17368
1.50097
0.0236641
0.0866389
0.0199256
0.0225766
0.0213814
0.0242881
3.35084
2.92199
1.8028
6.76898
0.0225464
0.0307837
0.0487821
0.0257838
0.0215528
0.0205953
2.20034
0.0208896
2.57512
0.0323437
0.0357168
0.148245
0.253302
5.08748
0.279404
0.0434031
0.0202898
0.0250326
0.28182
0.291024
0.0245327
0.0207551
0.0206134
0.063896
0.0291803
0.161464
2.18834
0.0225457
0.0205721
0.140493
0.0381195
7.07389
1.16631
0.0209018
0.0797577
0.0212698
3.73641
0.0205076
3.78454
0.0219515
0.0224732
0.0263384
0.02188
0.0413774
0.0300217
0.0504063
1.18618
3.06571
0.0249609
0.0291907
0.0211159
0.279922
1.14287
0.0215359
0.0205128
0.325965
0.019793
4.26057
0.0285325
0.028321
0.0689702
0.183501
0.032554
0.0218042
0.0215712
0.0809602
3.04656
0.0211088
0.15895
2.05145
1.1426
0.159474
0.0300543
3.80911
0.0258685
0.181302
0.0212481
0.316293
0.319004
2.81084
1.57858
2.79433
0.0228264
0.0293125
0.020745
9.07817
0.32922
3.14409
1.19833
0.0256385
1.91495
0.769052
0.0311033
0.0221555
0.0215733
3.75719
0.0246837
0.0805844
0.0229292
0.0213973
0.0206457
0.0214264
2.84375
0.250098
0.0295013
1.24258
0.286781
0.0222618
0.021273
0.0206243
0.0243961
3.7787
0.270076
0.0244153
0.0230985
0.290258
0.0771629
0.0473058
3.40331
0.0287874
3.22631
0.0317008
0.0258273
0.0212536
0.0230055
0.0773903
0.400058
0.311469
3.62072
0.0709304
5.30304
0.0227463
0.02407
0.027811
1.774
1.44346
0.645904
0.0378848
0.0233669
0.0213346
0.0209266
0.0214065
0.0206056
2.14552
0.028036
2.29231
0.0295547
2.54821
0.381838
3.55974
0.0253593
0.0260612
1.21774
0.03476
0.472555
3.82849
0.0206081
0.0383691
0.0267845
2.88386
3.21566
0.0315289
0.04047
0.453738
0.0222112
0.0392939
0.0238235
2.24754
0.329105
0.0236929
0.0215644
0.313415
0.173989
0.139542
0.688058
0.142939
0.0245663
0.0210294
1.04038
3.6966
0.0754127
0.0318233
2.83763
1.4953
0.0207559
0.0213801
0.0239113
3.05281
2.87109
0.0213163
4.56846
0.0219791
0.0209149
0.0214216
8.4
0.192343
0.0487903
1.80245
0.0222491
0.022398
0.0208958
5.96352
0.0218975
4.95331
0.0224448
1.81177
0.0217868
0.021092
0.133309
2.26139
0.326456
0.0331395
1.32928
0.0212048
0.0214403
0.0213887
0.0441914
0.0705454
0.0710171
0.030566
1.85151
0.0242028
0.13236
0.0816197
1.88326
0.0210449
3.72207
3.51559
0.0253984
0.524024
0.0755702
1.45487
0.0215192
0.0625929
0.0208836
0.310547
8.2004
0.0614555
3.14403
0.0225796
0.0553602
0.0219757
4.24009
0.0203812
0.0207728
0.555092
0.0836259
1.3598
0.303673
0.0743851
0.0277246
0.0205483
0.779464
0.0258959
0.0214851
0.166169
0.022435
0.046245
0.0213227
1.07638
0.0220201
0.274297
0.312755
0.026072
0.0675654
0.0513042
3.72118
0.0211048
1.34971
1.31465
0.0206562
0.0213204
0.0224347
0.0218143
0.0387085
0.0210393
0.339052
0.0874791
0.295223
0.0456283
0.0212522
0.0217656
0.0205854
0.280731
0.021458
0.0211382
0.238325
0.0239705
1.868
2.98574
0.103105
0.0225782
0.031722
0.0223318
0.021959
0.0291624
0.0206026
0.0240772
1.6085
3.81036
0.288772
0.022272
1.67105
0.283003
0.021838
0.285756
2.32924
0.0213321
0.0234862
0.0212957
0.32486
1.40847
0.483332
0.0205861
0.0236497
0.0219573
0.0215624
0.141901
0.0213479
0.0350118
2.12344
2.93756
0.0205905
0.0238573
0.0236076
2.1206
0.020205
1.31755
1.58378
0.0432063
1.04083
3.49214
1.5224
0.0217666
0.488308
0.41077
0.0223426
0.0205344
0.0208054
3.08549
1.52266
1.9618
0.0270508
3.31409
0.0214952
0.155543
0.0207316
0.0226728
0.022252
0.0205858
1.50969
0.0224396
1.8536
1.5227
1.32572
0.0457133
0.0591614
1.42392
3.0134
0.0214349
3.05749
0.02058
0.0198776
0.0212664
0.0613203
0.020946
1.14915
0.0254426
0.348293
0.0314253
1.50697
1.15105
0.0707833
0.0205726
0.0502154
0.0725493
1.54519
0.0210577
0.0207335
0.0223987
1.42531
0.0212233
0.337168
1.16687
0.0437585
0.0612582
0.0210743
0.354223
0.0217199
3.81925
0.0203519
1.88029
0.0328363
0.0214674
1.13953
1.35433
0.0203396
0.0763742
0.0238241
1.98415
0.0413251
0.100061
0.335996
0.0217045
0.0494708
2.84517
0.02133
0.0568425
0.0218684
0.0887616
0.0334019
1.58523
3.20088
0.0214761
3.76534
0.0222593
0.045452
2.61822
1.1961
0.0308853
3.31529
0.180094
0.0215777
0.333701
0.147588
0.0316864
0.0223686
2.51363
0.0203686
3.39106
0.226966
0.109992
0.0213341
0.0265063
3.51923
0.0462311
2.53704
0.0219788
0.0234623
0.0648617
2.38363
0.0265782
3.16058
0.781584
1.14753
0.0214084
2.09214
0.279498
1.61389
0.0213774
0.0238415
0.0210509
3.24478
0.0267475
0.34294
0.372611
0.0217108
0.0206794
0.0213476
1.68086
0.299842
1.72241
1.18703
0.0208938
2.86458
2.58913
0.148491
1.46361
3.39082
0.0295486
3.74546
0.023314
0.0261384
0.340954
0.42236
0.0235647
1.97007
0.0213999
0.0213645
3.33826
3.2641
2.15799
9.77706
0.029141
0.0217297
0.0223927
2.12908
1.37294
0.0211281
0.0524274
0.51528
0.0214024
0.0214364
1.54621
2.27079
0.0225499
0.0214161
0.0222599
0.0220564
0.621936
0.0217918
0.020923
0.0246011
0.122746
3.34385
0.0416951
2.64848
0.0214833
0.0236538
3.1878
2.82008
0.025841
0.0730415
0.0213142
0.0362187
0.0218128
0.0244678
0.0651306
0.0208699
0.248717
0.0294096
0.0207325
0.0234116
0.304427
1.32224
3.85929
0.0214133
0.0232775
2.8291
0.593369
0.0239698
0.0210176
0.0214654
0.278637
0.021444
0.0217971
0.0271331
0.0213062
3.25244
0.0388202
0.0216721
0.0236553
0.0204841
0.0213569
1.20292
0.392848
0.0787845
1.39815
0.039522
0.0217943
0.0212943
0.0214586
0.0210338
0.0216693
0.0226075
0.0646199
2.71106
0.0216759
0.119691
3.70049
0.266497
0.0211031
0.0207866
0.0234913
2.3907
0.0210078
0.217119
0.295675
0.0342762
0.0224964
6.56231
0.0206625
0.0302795
0.02051
0.0207077
0.0212585
0.0207857
0.0277866
0.351856
0.0631961
0.0378305
0.347897
0.0665491
0.375758
0.0327548
3.30397
1.35704
0.116277
2.07987
1.71738
0.129355
0.364388
0.0217988
0.0209708
2.36619
0.0209056
0.0237869
4.13889
0.0803858
2.5365
0.137563
0.0206832
0.0275654
0.0214139
0.0308888
0.0207085
0.122671
1.40512
2.31304
0.902611
0.0213951
0.0204151
0.0820331
1.78854
3.31581
0.116095
0.313343
0.0208018
0.313984
4.03148
0.0414515
0.0229101
0.0214187
0.0210877
0.0224406
0.0212225
0.0211156
0.0235954
3.24241
0.0862561
3.585
0.375161
0.252438
0.184109
0.0212428
0.0217475
0.0216157
0.0206651
0.0217658
0.338468
1.33571
0.684051
3.3518
0.0235033
1.19786
0.144137
3.12495
3.79095
0.0213293
0.0207514
0.348548
0.0213752
0.0203548
0.549277
3.284
0.304056
0.0213465
0.0214502
0.022556
0.036203
0.319309
0.0205924
0.0227259
0.272509
0.0242687
0.462924
0.0356689
3.93105
0.0217276
0.274093
1.70983
0.0318861
1.99214
0.125308
3.70973
0.0205775
0.0241146
0.0207339
0.0283078
7.83337
0.0274546
1.46289
0.0214892
0.0212781
0.0214276
3.44373
0.0474556
0.12325
0.498775
0.0206596
0.0385441
1.43512
0.0508089
0.0210261
0.0218978
0.0213564
0.0358838
0.020982
0.0207811
3.70549
2.81122
3.34122
0.167959
0.267247
1.16619
0.0815142
3.42345
0.131631
0.0204722
0.0257836
0.0198058
0.0214332
2.26452
2.44357
0.0208311
1.70348
3.82786
0.0305324
0.0216062
0.0240616
2.48198
1.37738
3.3062
0.249772
3.34903
0.0198009
0.224511
0.108733
0.337199
0.38598
0.0213055
0.148074
1.23601
0.0297793
1.62181
0.0215272
0.14296
1.18375
3.66546
0.0869872
0.0298422
5.45428
0.150048
3.76075
3.59572
3.22036
0.128689
1.17439
0.0214604
0.0229181
0.0507488
4.53519
0.313438
3.83697
0.0223048
0.116573
0.0625591
0.0228676
1.86831
0.0213299
0.14725
4.09244
0.0213425
3.08549
2.22774
3.74632
2.1282
0.242131
0.285905
0.0208819
2.38126
0.0214395
0.0211279
0.0432144
0.0235982
3.62251
0.0239117
0.0235373
0.0237357
0.0207665
0.868905
0.0225155
0.132648
0.336214
0.0205972
4.20185
0.109675
0.0216586
1.84286
0.24327
0.0213329
0.0893068
0.0219407
3.77788
0.425008
0.0208935
0.135184
0.0225903
2.59434
3.41568
0.0812622
1.1335
0.0233628
0.0214722
4.01534
0.0241637
0.0210436
0.304873
0.0453905
0.0208174
0.0207218
0.136978
0.0223685
4.00428
0.228834
0.0712853
1.40851
0.0600364
0.0630446
0.0209028
2.70447
6.82727
1.43318
0.0213823
0.0206584
0.0789281
0.0285793
0.387038
0.0210629
0.507233
0.020949
0.123227
0.0217068
0.163915
0.156493
0.130435
3.99983
1.17565
2.3443
3.37253
0.0198915
0.308148
0.310865
4.87913
0.0214215
0.175546
6.51675
1.83656
0.133195
0.262093
0.211541
2.9077
0.05143
0.232618
0.0205769
0.0515524
0.0479544
0.0212938
0.0803512
1.34857
0.044871
1.50398
0.319467
0.021122
0.0207237
0.0247998
0.0212999
0.911041
0.0206047
0.0206944
3.2708
0.241666
0.0282556
0.111237
0.0228898
0.0820792
1.43796
3.54821
1.29822
0.0260213
3.485
0.0219344
0.0206222
0.0233329
3.43285
0.273358
0.218947
0.24401
0.0222247
0.0207233
0.0212978
0.0218206
0.0268107
1.56998
0.315069
0.0278466
1.96862
4.02722
0.439124
9.55262
0.0213897
0.0294806
0.049892
0.0213809
0.0379184
0.0264584
0.0238112
2.86039
3.5854
0.0206116
0.0442599
0.0288317
0.0679476
1.81728
2.85333
3.02255
0.0212281
0.0962022
3.26138
0.0941794
0.13418
0.430833
2.4437
2.51229
3.56819
0.0205736
0.919289
0.0207387
0.0221046
0.0212927
0.0621608
2.6872
6.95273
0.501275
2.57853
0.0580114
0.0203019
0.020769
0.0214443
0.0221784
0.0466822
3.18818
3.78928
0.0896951
0.624568
0.0214282
0.0571485
0.0206305
3.74583
0.0561402
0.021181
0.134686
0.112457
1.39452
3.98
0.135553
2.35075
0.0240487
1.51118
0.232553
0.293934
0.31909
0.0218737
0.0562
0.0214244
2.07057
1.66912
0.0402053
3.15234
0.225568
2.2925
0.0676695
0.130994
0.0335116
0.0208573
0.13944
0.0548753
0.0239949
0.055366
0.0301684
0.03112
1.6067
0.169863
0.0225194
0.0286166
0.0370765
0.0291817
0.0217273
2.79621
0.118623
0.372309
8.93294
0.0213451
3.65988
0.0214463
0.0228635
0.0228566
3.58221
0.0341594
3.88394
8.91252
0.0603345
0.0340262
0.134906
1.80497
0.154419
1.12175
0.0227742
0.0512883
0.0211298
3.80416
0.425552
0.0227362
0.0256901
0.0332091
0.0260629
0.0236846
0.0553758
0.0440565
0.0215269
0.0303019
7.11737
2.03118
0.0915824
0.043476
0.0201534
1.76892
0.0332583
0.0736713
0.210333
0.0484772
2.14344
0.0203846
0.023605
0.0227583
0.0296271
0.0211321
3.88838
0.340108
0.291609
0.0327324
2.09216
0.24762
0.025876
1.96302
0.0752755
0.236162
4.21414
0.0346809
0.0237623
0.0452353
0.0691363
0.0226362
0.277584
4.21665
0.320493
0.0208619
0.259572
0.192691
0.376462
0.0212331
0.046922
0.0209034
0.0289965
0.891498
0.0281408
0.0282471
0.0208222
0.0208129
0.213284
3.35378
0.0211407
0.399483
0.225386
0.0203174
0.0247184
3.84364
0.120761
0.113684
0.0213401
0.0266673
0.0978253
0.0252376
0.0209016
3.22008
0.0288367
3.8455
0.0958704
0.0261207
2.34387
0.115691
0.154073
0.0208702
0.40146
0.0313393
0.0263554
1.83551
0.0428941
0.0213725
0.0824675
0.0242938
0.0230705
0.0204341
0.626385
0.0213056
0.0528389
0.273774
0.107375
0.0207803
0.244906
0.0315671
3.29396
0.155936
3.82609
0.110113
3.62884
0.0206598
0.0850677
0.0257002
0.0210851
0.393933
0.469968
0.0253479
0.0959038
0.024157
0.0792896
3.88688
0.0261927
0.347637
0.987985
3.97613
1.55888
0.132688
0.049577
0.0206736
0.0549271
0.0315137
0.672421
2.13567
3.70924
2.60099
3.47587
0.0207912
0.165113
0.0213806
0.0224027
0.0214857
0.415902
0.146407
0.0641906
0.0209157
13.9538
0.0269258
3.90918
0.0211575
0.0577277
0.0312029
0.0812154
0.0414285
0.115063
0.0227196
0.169021
0.116354
0.0208886
1.62651
0.256436
0.0363764
0.0223985
0.0292911
0.0214468
0.0208811
0.0740723
0.081376
1.4678
0.209061
0.0960916
0.166428
0.0214434
1.51146
0.0732339
2.12104
0.0282056
0.0284331
0.395243
0.0286281
0.0336654
0.0465685
4.70657
0.022713
0.021425
2.51557
0.0326441
0.0233613
0.0240037
0.028054
0.020779
0.0252172
3.76404
0.0216449
0.0417546
2.954
0.126001
0.0775344
0.169415
0.276274
3.72593
1.58248
1.61048
0.0545345
0.186668
0.0223972
0.0252129
0.0214315
0.0209128
1.31868
0.444191
0.0287231
0.0206633
0.161705
0.0850488
0.0216137
0.103641
0.054345
0.0211435
0.022624
1.52105
0.0268648
0.041132
0.0338012
0.0217126
0.0738731
0.0724727
0.0278938
0.177245
0.0744366
0.211274
0.132244
3.18043
0.0220263
5.75443
0.153115
0.16749
0.0646147
1.53504
0.0851257
0.0251045
0.0550031
0.0724361
0.0235877
0.0641557
0.0209716
0.0212262
0.0207434
0.02413
3.81451
0.0206652
0.116242
0.0228939
0.0237612
0.0234927
0.255654
0.0234066
0.0595723
0.0214524
0.0236242
0.0241764
0.0209063
0.085461
0.0235683
0.0208303
0.0222999
0.0263517
0.0212543
1.97333
0.0266687
1.37786
0.112173
2.17962
0.0634123
0.0633108
0.0311479
0.044099
0.0286483
0.025525
2.45221
1.01677
0.127215
0.0562254
0.0330823
0.0216991
1.47957
0.0352131
1.10449
0.0213916
1.10099
0.16221
1.42789
1.82406
0.020427
0.0213939
0.0205894
0.0302387
1.13583
0.0400122
1.10748
0.0247141
0.0301312
0.0208909
0.0218061
0.029904
0.0235501
0.0232819
0.021207
0.235598
0.337404
0.302327
0.0232564
0.316544
0.0209099
0.0207765
0.117347
0.0218445
0.0238467
0.0715788
0.023617
0.0666268
0.0214015
0.0269945
0.0215012
0.02377
3.84544
0.0209467
0.0234489
0.0223652
0.0231865
0.421917
0.0217429
0.0543711
1.44194
0.0239177
0.0285971
0.0223821
0.0228579
0.021705
0.127583
0.0213569
0.0242562
1.58115
0.0207126
0.0277615
0.0543696
0.0480579
1.24517
0.0203894
0.0234307
0.0223053
0.0313364
0.094766
0.706098
3.45252
0.020432
0.0249661
0.0612168
0.0226608
0.319312
0.0203058
0.0215304
0.22176
0.0431198
0.0235182
0.0204324
0.105529
0.11103
1.32509
0.0215348
0.167667
0.0203864
0.0205596
0.0233001
0.0892384
2.8333
0.0214689
0.0208158
0.375251
0.0213775
0.0232273
0.279874
1.8939
0.0213364
0.0205987
0.0229321
0.0289706
0.219735
1.254
0.0217731
0.118285
0.021829
0.0213053
1.19293
0.0219274
0.021532
0.0310825
0.216551
0.149724
0.0232993
0.0221621
0.282079
0.0423749
0.0222863
0.130412
4.71967
0.0214151
0.0216513
0.0232587
0.0213426
0.0213966
0.0208513
0.0206066
0.0385118
0.0231767
0.0352462
0.0519903
3.19128
0.430713
0.0287781
0.0203679
0.0211754
0.0221921
0.0231602
0.0426102
0.0276311
0.30786
0.0229924
0.0589271
0.0232325
4.03491
1.19385
0.0284907
0.0224133
0.129354
0.0235291
0.0238626
0.021367
0.0222811
0.0210877
0.157153
0.0335951
0.0367672
0.119434
0.0227117
0.0232574
0.0222273
1.41409
1.73427
0.356252
0.0252575
0.0757676
0.0681104
2.81626
0.0218931
0.303077
0.0700719
0.0213725
0.0217796
1.54078
0.0214257
0.0220599
0.0233304
1.22922
0.0214344
0.0216971
0.0232263
1.46306
0.020792
0.0506738
1.27759
0.0233987
0.0214706
0.021
0.0213952
0.0217389
0.0216478
0.0853431
0.0221602
0.0214434
0.0216484
0.0216528
0.0275109
0.0213323
0.275465
0.0215274
0.0216474
0.0360419
0.0298279
0.0657001
1.33143
1.40484
1.60079
0.0412636
0.0207993
0.0310222
0.469133
0.0205562
0.299945
0.0226742
1.14365
0.0225891
0.0482099
0.0217355
0.0213639
0.127386
0.244226
2.38928
0.283548
2.64771
0.0216924
0.0208951
2.58568
0.0205126
0.0214527
0.965431
0.0209773
3.47995
0.0214151
0.167655
0.120485
0.0236181
0.572146
0.0253229
0.0831107
0.0926621
0.117388
0.146584
1.44548
0.480409
2.61462
0.0214849
1.43738
0.0213871
0.0212839
0.0208424
0.0217379
1.02947
0.022286
7.59149
0.0214073
0.0213585
0.021543
0.0651698
0.0214158
0.0215967
0.0453072
0.0230939
0.0240439
0.0254911
0.0273896
0.222786
0.28541
0.0817769
0.581779
0.105427
0.02231
0.294305
0.0214313
0.0243224
0.0512463
2.60544
0.0332666
1.75493
0.021406
0.272318
3.83258
0.163423
3.64792
0.27507
0.0236817
0.0212907
0.0230618
0.0213675
0.0212806
2.94734
2.23015
0.0209607
0.235799
0.0213969
0.121496
0.0208822
0.179888
0.0241123
0.0233902
0.0217229
0.355333
1.29207
0.334781
0.020596
0.0206567
0.0255152
0.0215638
0.0222283
0.108838
0.0684616
0.0521354
0.260252
0.0341076
0.021761
0.0265404
0.0522108
0.0218004
2.60017
0.0559988
0.328747
0.0223789
0.0241591
0.0206255
0.0201642
0.0213454
0.0248652
0.020757
1.41847
0.0320345
0.0567375
0.0212003
0.0323631
0.0213256
0.142261
0.0324455
0.0541745
1.25751
0.0245002
0.0212977
0.0239459
0.0217711
2.17357
0.0547903
0.0329966
0.0551185
1.91413
1.18731
0.115619
0.0496829
0.0213664
0.0224645
0.0232417
0.105829
0.0758771
0.0251196
0.0214576
0.471204
0.267641
0.0216742
0.023411
0.0568
0.0220145
0.0208238
0.0316432
0.0212006
0.0218342
0.0208752
0.0235761
0.0219565
0.0353557
1.42224
0.0214445
0.306268
0.1047
0.122601
0.0208756
0.0212985
0.160476
0.0266077
0.0214139
0.0480056
0.0212919
0.0415858
0.021498
0.0324792
1.98229
0.053322
0.0223547
0.0576401
0.264875
1.35967
0.0214108
0.0377618
3.17017
0.0209217
0.0215729
0.0901542
8.52037
3.57966
0.0237581
0.0212504
0.0441835
0.020999
0.022333
0.0248537
0.0216602
2.03558
0.0217477
0.102258
0.0213471
0.0214488
0.0368802
0.0213479
0.0215081
0.0250367
0.136442
0.0205729
0.0274564
0.0218277
0.0208956
0.0213395
0.0272595
0.024533
0.0674289
0.0226346
0.0216707
0.0217776
0.0419828
0.0223489
3.65374
0.0219226
0.123911
0.0346524
0.0222978
0.0270093
0.958978
0.0214494
0.0220008
0.0203466
0.05558
0.390324
0.0213341