/*--------------------------------*- C++ -*----------------------------------*\
| =========                 |                                                 |
| \\      /  F ield         | OpenFOAM: The Open Source CFD Toolbox           |
|  \\    /   O peration     | Version:  v2012                                 |
|   \\  /    A nd           | Website:  www.openfoam.com                      |
|    \\/     M anipulation  |                                                 |
\*---------------------------------------------------------------------------*/
FoamFile
{
    version     2.0;
    format      ascii;
    class       volVectorField;
    location    "350";
    object      U;
}
// * * * * * * * * * * * * * * * * * * * * * * * * * * * * * * * * * * * * * //

dimensions      [0 1 -1 0 0 0 0];


internalField   nonuniform List<vector> 
13851
(
(0.989094 -0.0149462 -8.41825e-22)
(0.603956 0.00173276 7.60164e-21)
(1.01026 -0.0747878 1.53524e-20)
(0.98917 -0.0132939 3.27591e-21)
(1.02242 -0.0796969 7.93124e-22)
(0.96857 -0.022789 1.10096e-21)
(1.02819 -0.00993577 -1.31682e-20)
(1.01616 -0.0652966 0)
(1.01104 0.0112644 -4.05095e-22)
(0.996192 -0.0708393 1.33257e-20)
(0.892471 0.0686829 3.85386e-22)
(0.678373 -0.0950058 5.61755e-21)
(1.01674 -0.090747 -1.72063e-20)
(0.0595779 0.048372 -7.10223e-23)
(1.01679 -0.00158366 4.50928e-21)
(1.00733 -0.0507826 0)
(1.02272 -0.0412673 1.77448e-20)
(0.990059 -0.0328794 2.21751e-21)
(1.01829 -0.0904373 6.27479e-22)
(1.01048 0.0106509 1.85119e-22)
(0.989924 -0.013155 0)
(1.01176 -0.0748297 1.49299e-20)
(1.02918 2.75982e-06 6.84882e-23)
(1.00825 0.000706649 0)
(1.02494 -0.000259594 0)
(1.01475 -0.0652978 1.29871e-21)
(1.03785 -0.0384323 -5.35865e-21)
(0.00381781 -0.0657355 0)
(0.989951 -0.0152092 -1.01043e-21)
(1.00205 -0.0316665 2.01351e-21)
(0.963983 -0.0253659 1.20869e-22)
(1.02264 -0.0425812 1.86345e-20)
(1.00973 -0.0737947 -1.2689e-20)
(0.846084 0.0474383 -5.07416e-21)
(1.00905 0.000983974 0)
(1.02929 -0.104521 0)
(1.01979 -0.105404 -2.09436e-20)
(1.01151 -0.08587 -2.34536e-20)
(0.995419 -0.0721844 4.01772e-21)
(0.833565 0.0389003 2.85669e-21)
(1.00043 -0.00888625 6.6097e-21)
(1.04144 -0.00202048 0)
(-0.0140605 0.0435492 1.28087e-20)
(0.868085 0.0753972 -3.01085e-22)
(0.86668 0.0680544 2.36807e-22)
(0.0570584 -0.0100889 2.19065e-20)
(0.896129 0.0649354 1.45138e-21)
(0.736542 0.048082 -6.40045e-22)
(1.03846 -0.0395607 0)
(1.00251 0.0372038 -3.66986e-22)
(1.03305 -0.0839325 -2.66226e-22)
(1.02467 -0.0882333 0)
(-0.0150916 -0.0463646 2.41768e-20)
(1.01604 -0.0011905 1.45511e-20)
(1.0039 -0.000777589 4.69487e-21)
(1.04192 -0.00223248 0)
(1.02383 0.00157086 0)
(-0.0196826 -0.0324138 -3.08171e-20)
(1.00209 -0.0307426 0)
(1.02696 -0.013502 -2.66926e-20)
(1.01069 -0.0857845 5.30824e-21)
(0.749336 -0.0824425 -2.99171e-20)
(0.969222 -0.0345103 0)
(1.02253 -0.0823458 8.34986e-22)
(0.998134 -0.0472153 0)
(0.985568 -0.014787 6.44514e-22)
(1.01465 -0.104924 -1.28459e-20)
(0.923449 0.0649529 6.83397e-22)
(1.03898 -0.0617881 -1.78189e-20)
(0.989335 -0.0320709 0)
(0.513114 -0.0313227 2.51572e-20)
(1.01331 -0.108761 2.44008e-20)
(0.513021 0.0169397 -3.73073e-21)
(1.01624 -0.00121578 4.3238e-21)
(1.00428 -0.00118936 4.18871e-21)
(1.00952 0.0157215 6.74761e-23)
(1.01271 -0.0741764 1.10324e-20)
(0.639227 -0.0413564 0)
(1.02747 -0.070182 0)
(0.491969 -0.0343848 -2.8453e-21)
(1.02706 -0.0197342 0)
(0.844334 -0.0115236 0)
(1.01471 -0.00904733 -1.47558e-21)
(0.0451826 -0.00670432 1.35963e-22)
(0.969301 -0.0373347 0)
(0.74278 -0.100987 -4.70869e-21)
(0.968296 -0.0144983 -1.27919e-21)
(0.929735 -0.025982 1.46398e-21)
(1.03035 -0.0436656 1.78274e-20)
(1.04634 0.0152698 -5.80732e-23)
(1.02946 -0.103497 9.24325e-21)
(0.98127 0.0140401 6.58675e-22)
(0.929779 0.0685484 -2.43596e-22)
(1.03177 -0.0501625 0)
(1.03152 -0.042951 -1.51535e-20)
(1.01824 0.000869722 -2.73428e-22)
(1.02277 -0.0806094 1.34964e-20)
(0.846532 -0.0811637 0)
(0.995823 0.0365698 8.76442e-22)
(1.01613 0.000689176 2.45104e-22)
(0.012345 0.0401025 0)
(1.03277 -0.0739654 -1.26463e-20)
(0.997381 -0.018041 -8.41317e-21)
(1.05036 -0.0329242 0)
(1.02571 -0.000402101 -1.0873e-23)
(0.963199 -0.00854719 1.82311e-21)
(1.03364 -0.0773723 -1.43689e-20)
(1.03859 -0.00250306 0)
(1.02818 -0.112684 0)
(0.971718 -0.0242094 8.44992e-22)
(1.01098 0.000619456 2.09762e-22)
(1.04682 0.0159264 -5.59469e-23)
(0.981983 0.0130474 -1.07524e-21)
(1.0021 0.000260962 5.26403e-22)
(1.01238 0.000861075 -5.04281e-22)
(0.643684 0.0629384 2.2007e-21)
(0.881619 -0.0846477 0)
(1.0378 -0.0013088 9.34137e-25)
(1.00055 0.000108335 2.00436e-21)
(1.00223 -0.000450226 -4.81951e-21)
(-0.0123322 0.0427852 2.49228e-20)
(1.04885 -0.0329123 0)
(1.02037 -0.0915692 1.30822e-20)
(0.863482 0.0940973 -5.55161e-22)
(0.780139 0.050881 6.89502e-22)
(1.0647 0.00566992 -1.4558e-22)
(0.78925 0.0547538 0)
(1.03 -0.0719801 -2.84864e-21)
(0.989932 -0.0120477 0)
(1.01767 -0.0848972 0)
(1.00072 -0.00855806 0)
(1.00425 0.00345225 7.63807e-22)
(0.537313 -0.0376311 -2.08469e-20)
(1.01503 -0.00864521 0)
(0.651331 0.0561983 -5.20898e-21)
(1.00472 0.00106132 2.05328e-22)
(1.03759 -0.00121997 2.45386e-24)
(1.01214 -0.106411 -1.23086e-20)
(0.0672052 -0.00666014 1.04398e-20)
(0.121086 0.0354685 1.31782e-21)
(-0.00347122 0.0338251 8.46825e-21)
(1.0035 -0.00071751 0)
(1.0018 0.0256169 7.60376e-22)
(1.04972 -0.000775319 -4.56814e-23)
(1.01705 -0.0332909 0)
(0.870826 0.0774698 4.51217e-23)
(1.08216 -0.0144139 -5.68345e-23)
(1.0168 -0.0848188 0)
(1.02738 -0.0096101 2.76002e-20)
(0.860398 0.0615447 0)
(1.04757 -0.0944849 -1.40875e-20)
(1.00242 -0.000520284 0)
(0.0632095 0.05034 1.65378e-20)
(1.02437 0.00144995 -1.20793e-22)
(1.02857 -0.031608 -1.43682e-20)
(1.01628 -0.0327535 6.83102e-21)
(0.99897 0.00256676 -1.12965e-21)
(1.00603 -0.0292561 -7.06324e-21)
(1.02414 -0.0880198 -1.55551e-21)
(1.03251 -0.082963 -2.61801e-22)
(1.04553 -0.00648369 -2.31387e-23)
(1.04107 -0.050563 0)
(-0.0199169 -0.0367116 -1.91916e-20)
(1.00462 0.00357908 -7.15105e-22)
(1.00072 -0.0398685 -3.97286e-21)
(1.04577 -0.00113579 1.99897e-23)
(1.08666 -0.0133754 0)
(1.0401 -0.0627534 1.94265e-20)
(0.990528 -0.0117309 0)
(0.712072 -0.0737571 0)
(0.618749 -0.0387681 0)
(1.01937 0.00649543 2.58466e-22)
(0.998759 0.00205925 0)
(0.108908 0.0354898 0)
(1.00476 0.00330435 -1.53562e-21)
(0.736106 0.0368275 -6.81429e-22)
(1.02948 -0.070998 -7.54361e-21)
(0.997715 0.0218922 -4.46457e-22)
(1.01806 -0.0907989 0)
(1.03993 -0.00313734 -2.34597e-25)
(1.02124 -0.0442784 0)
(1.01417 -0.107653 -1.30555e-20)
(1.01561 -0.00771998 0)
(1.01204 -0.0760985 -2.08406e-20)
(1.03501 -0.00172771 -1.96953e-23)
(1.02716 0.000319731 0)
(0.985726 -0.0155751 -1.98363e-21)
(1.00383 -0.000790281 3.4766e-21)
(1.01978 -0.0808591 0)
(0.986907 -0.0574674 5.64442e-21)
(0.904462 0.069828 -2.92655e-22)
(-0.0187718 -0.043524 -2.13879e-20)
(1.04868 0.0167713 -3.84179e-23)
(1.03415 -0.0611595 0)
(0.781679 -0.0844123 1.91827e-20)
(1.02693 -0.0305464 1.10512e-20)
(1.00264 0.0245443 -2.35684e-22)
(0.836439 0.00674049 1.18109e-21)
(0.998853 0.0220414 3.76596e-22)
(1.00882 0.0157074 -2.84722e-22)
(1.06448 0.00667357 0)
(0.30593 -0.0562718 7.53028e-21)
(0.997832 5.57043e-06 -2.64131e-21)
(1.00852 -0.00870402 -4.76987e-21)
(0.993086 -0.0606928 0)
(1.01594 -0.00818107 0)
(0.569942 -0.06529 0)
(1.02537 -0.0421731 1.33987e-20)
(0.672993 -0.054732 4.56144e-21)
(1.04186 -0.00475866 -7.89415e-24)
(0.951598 -0.0899268 -1.56297e-20)
(0.997868 -0.0174181 1.9729e-21)
(0.920555 0.013002 -1.11268e-21)
(1.03835 -0.00324067 0)
(1.04831 -0.00127863 -3.94251e-23)
(0.960086 0.0415428 1.84171e-22)
(0.973893 -0.040229 1.23757e-22)
(-0.00169854 0.000503687 0)
(1.01611 -0.00328158 5.79577e-21)
(0.68993 -0.0573645 0)
(1.02475 -0.042875 -8.17979e-21)
(1.02781 -0.0204309 0)
(0.959294 -0.0855112 -1.72339e-20)
(1.022 -0.0861059 -2.19996e-20)
(0.860777 -0.0858276 -1.51802e-23)
(1.0239 0.000217032 -7.73513e-23)
(1.03084 -0.0543107 6.06848e-21)
(1.02163 -0.000317987 -3.80853e-23)
(-0.0355515 -0.0179293 0)
(1.03874 -0.00354575 8.18484e-24)
(1.01406 -0.0641499 -1.23597e-21)
(0.985854 -0.0687119 -2.15715e-21)
(1.01948 0.00599218 0)
(1.04825 0.0161249 1.34508e-22)
(1.03656 -0.0828771 0)
(0.987807 -0.0439863 -1.31747e-21)
(0.671743 -0.0624519 5.76715e-21)
(0.999242 -0.0452906 0)
(1.0496 -0.00102926 8.1153e-24)
(1.00888 -0.00900107 0)
(0.960941 -0.0222097 -1.44573e-21)
(0.877483 0.0349283 2.03793e-21)
(1.05471 -0.00813026 0)
(0.991726 -0.0615773 0)
(1.03082 -0.000645495 -4.60248e-24)
(0.795485 -0.0763017 6.23802e-22)
(1.0315 -0.0742883 1.27588e-20)
(0.909938 0.0257693 0)
(1.01455 -0.0329422 6.90393e-21)
(1.01386 -0.0417693 1.82824e-20)
(0.986234 0.0151251 0)
(0.857966 0.0351955 -2.60472e-21)
(1.01765 -0.0225619 8.95493e-22)
(1.01539 -0.0334915 -1.16163e-20)
(1.04084 -0.0781164 1.56089e-20)
(0.953972 0.0028007 0)
(0.987721 -0.0559555 -4.85414e-21)
(1.01329 -0.105373 1.34647e-20)
(0.566286 -0.0308703 0)
(1.01984 -0.00486645 6.71044e-21)
(1.0485 -0.00103608 0)
(0.989606 -0.0297423 1.48577e-21)
(0.948338 -0.0836578 0)
(1.05447 0.0037986 0)
(1.01246 -0.0918485 -9.04364e-21)
(1.02608 -0.0305164 -1.22082e-20)
(1.01807 -0.0219335 0)
(1.03226 -0.0492407 0)
(0.991639 -0.0876465 0)
(1.06444 0.027737 0)
(0.986021 0.0159765 4.8786e-22)
(1.02751 -0.0317192 0)
(0.96822 -0.0471686 1.00505e-21)
(1.02809 -0.0689395 1.99378e-20)
(1.00691 -0.0497457 0)
(1.00407 0.00368357 2.25613e-21)
(0.843 -0.0123741 8.00468e-23)
(1.082 -0.00571349 0)
(0.878473 -0.0966381 1.46603e-20)
(0.899963 0.0622147 0)
(1.05524 -0.00874571 0)
(1.04044 -0.00477785 0)
(1.02614 -0.000489642 -3.79602e-25)
(1.04165 -0.0770217 0)
(0.93262 -0.0857661 -9.78023e-23)
(0.723934 0.0121683 -5.17353e-22)
(1.00908 0.012933 -4.79683e-23)
(1.0189 -0.00196623 0)
(0.959945 -0.048929 -2.43823e-22)
(0.87539 -0.0298658 0)
(1.0162 -0.0857011 2.63907e-20)
(1.00321 -0.0302073 0)
(1.02683 -0.0141782 1.56245e-20)
(1.03582 -0.0644122 -1.16573e-21)
(0.875916 -0.0240734 0)
(1.01338 -0.0914428 5.58534e-21)
(1.00344 -0.039897 0)
(0.735386 -0.092511 2.90432e-22)
(1.00359 0.00384001 -8.43017e-22)
(0.819324 -0.0788043 7.11383e-21)
(1.04144 -0.0495703 0)
(1.02151 -0.0407286 0)
(0.893365 -0.0973181 3.76402e-21)
(1.00428 -0.0164139 -2.95895e-21)
(0.963644 -0.0117184 -5.7153e-22)
(0.879251 -0.0772784 0)
(1.00918 0.0123288 4.84665e-23)
(1.04104 -0.0721112 -2.89535e-20)
(1.03038 -0.0504244 1.04701e-20)
(1.00324 -0.0293302 6.50655e-21)
(0.111724 -0.0194226 1.64563e-20)
(1.00278 -0.0402312 -9.13605e-21)
(1.01561 -0.0217827 -1.32674e-20)
(0.92952 -0.0841466 0)
(1.04268 -0.00172812 -1.16554e-23)
(1.01415 -0.0426991 -2.13424e-20)
(1.06567 0.00887456 1.78146e-22)
(0.926406 -0.101691 0)
(1.03562 -0.100509 0)
(1.01632 -0.00365643 -1.81368e-20)
(1.03548 -0.0759296 0)
(1.01766 -0.00304881 -1.18528e-20)
(0.63513 -0.0410421 -6.95109e-21)
(0.985163 0.0139435 0)
(1.02974 1.86329e-05 -1.32472e-23)
(0.99614 0.00371332 -5.48746e-23)
(1.03534 -0.0991856 0)
(1.03125 -0.0529055 -1.80477e-20)
(1.03023 -0.0306665 -1.52203e-20)
(1.01892 -0.00170145 0)
(1.00479 -0.016238 8.80565e-21)
(1.01497 -0.0213765 1.71172e-20)
(0.875152 0.0711484 3.29226e-22)
(0.137003 0.0566573 0)
(0.737991 -0.0798685 -7.82659e-22)
(0.982879 -0.0294674 -1.1023e-21)
(0.936953 -0.101152 -3.26054e-21)
(0.993233 -0.0909635 -4.57594e-22)
(1.01648 -0.00153903 5.01615e-21)
(1.03291 -0.0617778 1.88757e-20)
(1.01539 -0.0857878 -2.6302e-20)
(0.977913 0.0141784 -1.95294e-22)
(0.984961 -0.0483888 2.02573e-21)
(1.02675 -0.0883788 0)
(1.01708 -0.0906309 -5.45337e-21)
(0.987011 0.0109548 7.59259e-23)
(0.830464 -0.0870902 4.77547e-21)
(0.8563 -0.0776922 -1.03587e-20)
(1.01699 -0.00129799 -5.82423e-21)
(1.04389 0.0151651 7.19189e-22)
(1.03966 0.0173883 -6.13901e-22)
(1.00256 -0.0856922 0)
(1.03108 -0.0303668 7.61752e-21)
(0.984598 -0.0495267 -2.10116e-21)
(-0.0372571 -0.0183052 5.16963e-21)
(0.998381 0.00196703 0)
(0.81017 -0.0852921 -4.6721e-21)
(0.996279 0.00418856 -7.5362e-22)
(1.01767 -0.00284305 5.60122e-21)
(1.0327 -0.00085533 0)
(1.03887 -0.00275548 -1.90038e-24)
(0.999845 0.00208749 -1.13198e-21)
(0.893592 -0.0814609 1.10854e-21)
(0.818204 0.0157575 -3.38409e-22)
(1.0096 -0.0121969 0)
(1.04164 -0.0705999 -2.41899e-20)
(1.0447 -0.00191383 -6.35964e-23)
(0.675091 -0.0982026 1.76584e-22)
(1.00096 -0.0515829 1.17158e-20)
(0.776037 0.0160006 -4.82685e-21)
(0.735983 -0.0767378 0)
(1.00917 -0.0125118 3.42616e-21)
(0.972927 -0.0415296 -5.85878e-22)
(1.02786 -0.0503272 -1.61674e-20)
(0.74947 0.0211372 4.63864e-21)
(1.00054 -0.00701135 2.71413e-21)
(1.03807 -0.00129251 0)
(0.986252 0.0127535 9.13966e-22)
(0.0494436 0.0448077 -1.91491e-20)
(1.00403 -0.000941244 -7.83211e-21)
(0.177786 -0.0303521 -1.52367e-20)
(0.979291 0.0149634 2.47226e-22)
(1.02626 -0.0889421 -3.08653e-20)
(0.646132 -0.0705783 -1.83827e-20)
(0.960686 0.0332765 0)
(0.963633 0.026583 0)
(0.988725 0.0211602 0)
(1.00274 0.00214495 0)
(1.01649 -0.000736288 4.58183e-21)
(0.98423 -0.0284667 0)
(1.03674 -0.0760937 0)
(0.0807601 0.0493902 -2.90669e-20)
(1.04237 -0.0632317 -1.46532e-20)
(0.904665 -0.0901779 -1.44384e-20)
(0.875719 -0.0783764 -2.1256e-21)
(1.04474 -0.00170139 -6.12625e-23)
(1.02032 -0.00510259 0)
(0.713771 -0.0772941 0)
(0.529934 -0.0370619 1.16689e-20)
(0.981225 -0.0680471 2.78729e-22)
(0.905065 -0.0855623 1.3137e-20)
(0.986223 0.0129135 -4.53737e-22)
(1.02779 -0.0516443 -1.71079e-20)
(1.02007 0.000317296 0)
(1.01127 -0.0912433 8.37844e-21)
(1.01623 0.00971344 8.35007e-23)
(1.00855 -0.0508737 -6.9554e-21)
(0.989907 0.0209214 -1.47364e-21)
(1.02447 -0.0105559 -5.69717e-21)
(1.02297 -0.000424368 1.06622e-24)
(1.00995 0.0123743 0)
(1.04566 -0.00133986 1.02694e-23)
(1.02343 -0.0823187 1.94891e-20)
(0.988939 -0.0468548 0)
(0.688579 -0.0459174 0)
(0.987298 -0.0307906 0)
(1.03481 -0.0772068 1.58988e-20)
(0.979043 -0.014791 -4.0778e-23)
(0.857944 0.0461649 4.69803e-22)
(1.01144 -0.0430154 -4.42264e-21)
(1.00144 -0.0862818 7.18217e-21)
(1.02144 -0.0396384 6.03234e-21)
(0.969312 0.0297981 -3.51543e-21)
(1.0374 -0.00128812 0)
(1.01009 0.0118175 0)
(1.02399 7.94e-05 0)
(1.01002 -0.0869678 1.06115e-20)
(0.955372 0.0469552 9.78695e-22)
(1.0209 -0.0853934 1.8488e-20)
(0.979682 -0.0146793 -1.81676e-24)
(0.655717 -0.0481369 7.83203e-21)
(0.839663 0.0566311 1.58881e-21)
(0.967272 -0.0119743 4.6506e-22)
(1.00155 -0.000421964 1.98893e-21)
(1.03744 -0.0837698 2.37606e-20)
(1.00081 -0.00666329 -2.86472e-21)
(0.845003 0.0502389 -5.81807e-22)
(1.02804 -0.000465964 0)
(0.997762 -0.0891734 -2.77383e-21)
(0.857716 0.0656349 0)
(1.00847 -0.0716116 1.21661e-20)
(0.666446 -0.0514952 1.46043e-21)
(0.999049 0.0236058 0)
(1.07576 -0.0229299 -8.99137e-22)
(0.878694 0.0625354 0)
(0.123866 0.0531985 -2.32936e-20)
(1.0354 -0.00193071 1.33669e-24)
(1.02721 -0.0541458 -1.27669e-20)
(1.02813 -0.0711519 1.16866e-20)
(1.06124 0.0280831 0)
(1.01639 0.00774404 -3.39283e-22)
(1.01376 -0.0214773 -1.10092e-20)
(1.04876 -0.0928745 0)
(1.0254 -0.0880812 0)
(0.984175 -0.0340842 1.43124e-21)
(0.278868 -0.0644522 0)
(1.0268 0.000422232 -1.53775e-23)
(0.995443 0.00362842 0)
(-0.0256121 0.0254382 0)
(0.999601 -0.0401154 0)
(1.03969 -0.00456955 6.17302e-25)
(0.839193 -0.0288997 0)
(1.00295 0.00225733 -1.10602e-21)
(0.98886 -0.0143476 -3.77165e-21)
(1.01298 0.00853552 -2.38848e-22)
(0.994559 -0.0461521 -2.09788e-21)
(1.00544 -0.0268112 -2.25891e-21)
(1.04102 -0.00460495 2.03377e-23)
(1.00016 0.0238369 0)
(0.954591 -0.0875449 0)
(1.01492 -0.00966103 1.70796e-21)
(1.04068 -0.0655821 2.35948e-21)
(1.00462 0.00114507 4.37826e-22)
(0.976109 -0.00111474 5.1655e-22)
(1.04083 -0.00579263 2.31467e-21)
(1.00082 0.000165394 -1.43669e-21)
(0.998035 -0.00565949 -2.28645e-21)
(1.00368 0.000423864 0)
(1.00409 0.000262715 -3.75658e-23)
(0.769517 0.0192593 0)
(1.01939 -0.0215118 0)
(0.966915 -0.0172639 0)
(1.01589 -0.00727853 0)
(1.02294 0.000745372 0)
(-0.00688992 0.037808 2.53811e-20)
(0.650754 -0.0490832 0)
(1.01691 -0.00874612 0)
(0.974911 -0.000176027 -2.36785e-22)
(1.0122 -0.0437836 4.66218e-21)
(0.880398 0.0246135 8.08004e-22)
(0.0273014 0.00102658 2.28662e-20)
(0.995317 0.00305512 1.0654e-21)
(0.816693 0.0167883 5.55696e-23)
(1.00078 -0.0075886 -2.83327e-21)
(1.01922 -0.0783408 -1.30637e-20)
(1.02479 -0.0124639 -3.22737e-21)
(-0.0531339 0.00400581 0)
(1.0372 -0.00117241 -3.9191e-25)
(-0.0144805 -0.0426759 0)
(0.987612 -0.0530723 7.14318e-21)
(1.04172 -0.00186597 0)
(0.975425 0.00204007 3.57345e-23)
(0.765546 -0.0751414 0)
(1.0128 -0.0643503 2.20228e-23)
(0.889498 0.0154119 0)
(1.00133 0.00016648 -2.26181e-21)
(0.777616 0.0577877 1.41774e-21)
(1.00334 -0.000629251 1.2816e-22)
(1.00652 0.00404002 1.24752e-21)
(1.00409 0.00443806 -1.37449e-21)
(1.02589 -0.00871376 1.72272e-20)
(0.555058 -0.0441803 -1.09956e-20)
(1.0328 -0.0808178 1.64234e-20)
(1.02776 -0.0919696 0)
(1.02152 -0.090184 1.56601e-20)
(0.972498 -0.0380734 3.49634e-22)
(1.04665 -0.00651873 2.1814e-23)
(1.02118 -0.0950055 2.75666e-20)
(0.919196 0.0435632 -3.60231e-22)
(1.02228 -0.0448973 0)
(1.03973 -0.051036 9.94281e-22)
(0.909775 0.029512 -1.27066e-21)
(0.815381 0.088536 4.62115e-22)
(0.988681 -0.0925527 0)
(1.01404 -0.000811688 -4.49431e-21)
(-0.0552679 0.00437443 -2.73674e-20)
(0.0950631 -0.0145455 -2.32587e-20)
(0.164772 -0.0345184 -2.7224e-20)
(1.00161 -0.0405682 1.30568e-20)
(0.974381 0.00307022 0)
(0.837277 0.0929547 -4.34703e-23)
(1.07615 -0.01837 0)
(0.961054 0.00490138 2.98587e-21)
(0.857622 0.0100012 8.43928e-22)
(0.99678 -0.0908706 1.29942e-20)
(1.00509 -0.0296349 9.73861e-21)
(0.989155 -0.0898881 -1.30527e-20)
(1.01483 -0.0964074 -2.27988e-20)
(1.03722 -0.00126233 4.8943e-25)
(1.08324 -0.0115883 0)
(1.03335 -0.0818056 0)
(0.622845 -0.0421182 -1.40792e-20)
(1.01357 -0.0335267 -7.44092e-21)
(1.0104 -0.00640882 4.76618e-21)
(0.999333 0.00256919 2.25677e-21)
(1.00423 -0.00938678 -8.69142e-23)
(1.02079 -0.0807331 -1.37381e-20)
(0.991099 -0.0437096 -1.57767e-21)
(0.961071 -0.0225949 0)
(0.299021 -0.0680831 -6.48162e-24)
(1.00849 0.00203477 0)
(-0.0206541 0.0298706 0)
(0.691906 -0.0516283 1.21861e-20)
(0.951696 -0.00778918 7.56206e-22)
(0.914005 0.052873 -2.4563e-22)
(1.03968 -0.0645349 -2.04745e-20)
(1.03831 -0.00405793 1.05669e-24)
(1.01086 0.0118485 -3.93306e-22)
(1.08785 -0.0140175 0)
(1.01436 -0.095763 -2.92897e-20)
(1.02936 -0.0324801 1.93263e-20)
(1.0401 -0.0957192 -3.06111e-20)
(1.02764 -0.0998854 -2.17736e-20)
(1.04163 -0.00239644 -1.28553e-23)
(0.977929 -0.0160955 -3.85016e-22)
(0.754998 0.0802195 -8.65167e-22)
(1.00431 -0.0845791 -7.29906e-21)
(1.02527 -0.086816 0)
(0.566715 -0.0462728 1.12027e-20)
(1.01534 -0.0982074 -8.57205e-22)
(1.00048 -0.00795019 0)
(1.02517 -0.0103946 -5.8304e-21)
(0.492426 -0.0206723 0)
(0.861985 -0.0772669 0)
(1.03166 -0.0970812 -1.6989e-20)
(1.04386 -0.0628661 1.17657e-20)
(0.96585 -0.0329345 8.89909e-22)
(1.03959 -0.00288465 1.92223e-24)
(1.00467 -0.00524174 1.66888e-21)
(0.998584 -0.0893936 -6.66148e-21)
(1.04082 -0.00231513 1.21269e-23)
(1.01277 -0.0329367 -3.49069e-21)
(1.03952 -0.0032684 1.70741e-24)
(1.00265 0.00082238 1.22128e-21)
(1.0178 -0.0958676 2.93827e-20)
(1.02217 -0.0814962 -1.56034e-20)
(0.980337 -0.013998 1.64494e-22)
(1.0406 -0.00247705 2.62708e-23)
(0.270578 -0.0450864 0)
(0.832933 0.00127579 0)
(1.00293 0.00316543 1.86971e-21)
(1.02754 0.00167382 0)
(1.05467 0.00443157 8.15972e-23)
(1.01669 -0.000968395 1.2444e-21)
(0.0411962 0.0413177 -2.08575e-20)
(0.898742 0.0192428 1.94838e-21)
(0.926503 0.0166735 -2.67656e-21)
(0.101452 -0.0268741 0)
(0.797611 0.0517644 3.65627e-21)
(1.04482 -0.0605582 2.11757e-20)
(0.600464 -0.0378004 -1.51288e-20)
(0.647919 -0.0498802 -1.76718e-20)
(0.986374 0.0111509 -1.30549e-23)
(1.03759 -0.0622819 1.92774e-20)
(1.03833 -0.00426387 7.25068e-25)
(1.06631 0.00789132 0)
(1.0101 -0.054076 0)
(0.998909 -0.0912352 7.29175e-22)
(0.886496 -0.0949255 -2.12445e-21)
(1.03964 -0.0944266 4.32992e-20)
(1.02246 -0.0510087 0)
(1.01137 0.0100917 4.61329e-22)
(1.00503 -0.0490112 0)
(1.00761 0.027506 2.61886e-22)
(0.870422 0.00838372 1.22122e-22)
(1.02969 -0.0818055 1.91655e-20)
(1.01557 -0.00680087 -1.26165e-20)
(0.983074 -0.0309845 1.09543e-21)
(1.01589 0.00736139 4.17216e-22)
(1.03447 -0.0485955 2.17165e-20)
(1.02016 -0.0855008 -1.08458e-20)
(1.02625 -0.0129878 6.24169e-21)
(1.0006 -0.00615003 -4.3015e-21)
(1.00168 -0.0525495 -1.39627e-20)
(1.02076 -0.0157645 1.39191e-20)
(1.02141 -0.0797977 1.39404e-20)
(1.00993 -0.0861135 -1.18092e-20)
(1.02258 -0.0857988 1.35136e-20)
(1.00306 -0.0482568 0)
(1.03155 -0.0982677 2.89838e-22)
(1.01147 0.00957749 2.94615e-22)
(0.976283 -0.0617471 -6.76871e-22)
(0.985745 0.01435 4.92307e-22)
(0.0326858 -0.00770503 1.49377e-20)
(0.998729 -0.0175086 -5.35758e-21)
(1.01666 0.000750137 -1.84858e-22)
(1.0249 -0.111107 1.4132e-20)
(0.997583 -0.026431 0)
(0.60183 -0.0661783 1.44787e-20)
(0.823554 -0.0754841 2.97206e-22)
(-0.0472406 0.0133103 2.38791e-20)
(0.799922 -0.0245939 -2.4208e-21)
(1.0157 0.00925191 2.02451e-22)
(1.01528 -0.110258 -2.0422e-24)
(1.05715 -0.00908757 3.12486e-24)
(1.00264 0.00128141 0)
(1.03701 -0.0011905 0)
(1.00248 0.000885232 0)
(1.06893 -0.0129686 3.00515e-24)
(0.985864 -0.0303948 3.26873e-22)
(0.995021 -0.0453849 3.74985e-21)
(1.03988 -0.00237335 0)
(0.968577 -0.0878543 5.7254e-21)
(0.986604 -0.054347 -5.05532e-21)
(0.945181 -0.0868048 0)
(1.00039 0.00411761 0)
(1.03617 -0.00123427 0)
(1.03399 0.000155708 5.11316e-23)
(1.01489 -0.0850344 7.44559e-21)
(0.789819 -0.0831839 8.64754e-21)
(1.04645 -0.0810564 -4.22902e-20)
(1.03372 -0.0492058 0)
(1.05818 -0.00880419 0)
(1.02169 0.000666508 -3.33222e-23)
(1.00746 0.00127174 -2.81838e-22)
(0.998262 0.00340592 -2.00632e-21)
(1.02425 -0.0931285 2.74072e-20)
(0.189621 -0.0292252 0)
(1.0204 -0.0152184 1.406e-20)
(1.03965 -0.00251033 -1.28391e-23)
(1.02651 -0.00843842 1.20317e-20)
(0.998407 0.00300255 2.92826e-21)
(0.99604 -0.0868078 0)
(-0.0188255 -0.0447626 0)
(1.00562 -0.0499134 0)
(0.816429 -0.0807028 -6.03185e-21)
(0.777127 0.0710338 -2.50498e-21)
(1.00085 -0.00581585 4.02668e-21)
(1.02772 -0.0911215 2.58532e-20)
(0.0975333 0.052054 3.46081e-20)
(1.03721 -0.0639145 -1.91163e-20)
(0.685502 -0.0986432 -5.62829e-21)
(1.02609 -0.0197954 0)
(0.990142 -0.030798 0)
(1.04586 -0.0801247 2.94008e-20)
(0.98833 -0.0295097 -1.83292e-21)
(0.886233 0.00919219 9.52363e-22)
(1.01656 -0.00825052 0)
(0.831117 0.09651 2.18251e-22)
(1.02717 -0.000496574 3.72805e-24)
(1.05737 -0.0567265 3.85029e-21)
(0.691331 -0.0559854 2.03567e-20)
(1.01236 0.0190354 -9.32995e-24)
(0.997309 -0.023005 0)
(0.966178 -0.0299438 -7.13482e-22)
(1.00641 0.0044112 0)
(1.02137 -0.0430898 -2.69327e-20)
(0.95325 -0.0612538 -2.4255e-21)
(0.098368 0.0423977 9.22771e-21)
(1.02923 -0.0808974 -2.02069e-20)
(1.01247 -0.0912662 0)
(0.93351 0.042591 0)
(1.03876 -0.00310997 4.84948e-24)
(1.00074 0.00398473 9.19698e-22)
(-0.023638 0.0331364 3.5209e-20)
(1.02848 -0.100245 2.27912e-20)
(0.987745 -0.0452638 -1.20125e-21)
(0.846041 -0.0778313 0)
(1.02018 0.0137541 0)
(1.01498 -0.000246656 0)
(1.03738 -0.00120469 0)
(0.796801 0.035861 -3.52716e-21)
(1.01537 -0.0994652 7.56583e-22)
(1.00463 -0.0374829 0)
(0.995151 -0.0115745 0)
(1.03418 0.00536403 -1.2087e-21)
(1.03408 -0.0395783 0)
(1.03487 0.000150925 -4.08523e-23)
(-0.00945725 0.0245028 0)
(0.94732 0.00513322 0)
(0.761122 -0.0625846 3.11533e-21)
(1.04247 -0.0019021 1.23247e-23)
(1.02083 -0.014687 -6.53375e-21)
(0.616768 -0.0402864 0)
(-0.00593773 -0.0696045 0)
(1.03098 -0.10264 -1.79028e-20)
(1.00802 0.0264724 0)
(1.03025 -0.100976 -2.93546e-20)
(1.01567 -0.00875856 0)
(0.999154 0.0233861 1.15339e-21)
(1.00675 -0.081386 -3.9757e-21)
(1.00766 -0.0727732 0)
(1.01506 -0.0400411 -3.14157e-22)
(-0.0288625 0.00978821 0)
(0.987234 0.0188908 0)
(1.01249 0.0302279 0)
(1.02179 -0.104376 0)
(1.01629 0.000880806 -1.21682e-22)
(0.998233 -1.95201e-06 -8.70911e-23)
(1.00531 -0.0277029 2.37355e-21)
(1.01215 0.0095666 -2.35382e-22)
(-0.0114628 0.0244985 0)
(1.01412 -0.0528919 0)
(1.02565 -0.0875875 1.98278e-20)
(0.980939 -0.0141852 0)
(1.07343 -0.00294426 -1.77945e-21)
(1.01066 0.0101091 0)
(0.961057 -0.0709948 2.29074e-21)
(1.00368 0.00055953 -1.59262e-21)
(0.987241 0.0200899 0)
(1.03661 -0.00108012 0)
(1.00089 -0.00505262 0)
(1.00278 -0.000401239 0)
(0.862461 -0.0757028 -1.30501e-21)
(0.999502 0.00210013 -1.07046e-21)
(1.03917 -0.00116253 1.04528e-24)
(0.932157 0.0436557 4.54952e-22)
(1.02586 -0.0108702 5.97411e-21)
(0.640591 -0.044342 1.45869e-20)
(1.02527 -0.000254617 -3.28952e-25)
(1.00449 0.0261869 0)
(1.03864 -0.0863669 -3.13122e-20)
(0.993846 -0.0883294 0)
(0.814261 0.0195773 4.57168e-22)
(1.01016 0.00184582 0)
(0.97125 -0.0363972 4.75172e-22)
(0.842072 -0.0846768 0)
(1.01892 -0.0221332 0)
(0.965097 -0.0861431 1.4643e-20)
(1.05613 -0.0560044 2.10312e-22)
(1.01289 0.00906065 5.22599e-22)
(1.01417 0.0317957 0)
(-0.0162088 0.0371863 -4.1971e-20)
(0.968309 -0.031991 -9.28286e-22)
(1.01084 -0.0411402 0)
(1.0081 0.00168058 8.45975e-22)
(1.0389 -0.00239403 0)
(0.88161 0.0524922 0)
(1.00544 -0.0740786 0)
(0.992021 -0.0489685 2.64278e-21)
(1.0033 -0.0391088 5.68808e-21)
(1.01348 0.0315781 4.28727e-22)
(1.01505 -0.000944652 0)
(1.00572 0.0263232 0)
(1.04451 -0.0984961 -3.43328e-20)
(0.867352 0.012879 1.09258e-22)
(1.01926 -0.0800707 -3.30041e-21)
(0.905165 -0.0956192 2.11751e-21)
(1.02044 -0.0141064 -2.23204e-20)
(1.01977 -0.0791395 1.69332e-20)
(1.032 -0.0865875 8.9538e-21)
(0.947123 -0.105627 -1.50798e-20)
(1.00378 -0.0367785 5.21535e-21)
(0.296602 -0.035362 0)
(1.02232 -0.0901153 -4.84556e-21)
(1.02663 -0.0106583 5.31544e-21)
(0.290685 -0.0447048 2.29683e-20)
(0.975686 -0.0573394 6.85802e-22)
(0.857794 -0.0902869 -1.57948e-20)
(0.106911 0.0454356 7.38452e-21)
(0.874869 -0.0796056 0)
(0.870124 0.0213941 -1.0691e-22)
(1.00738 -0.0574264 2.0793e-20)
(1.01223 0.00906032 -7.68412e-22)
(0.984049 -0.0271283 -3.2457e-21)
(-0.0244398 -0.0252451 2.99676e-20)
(0.118726 -0.0220639 0)
(0.997459 0.0065733 0)
(1.02227 0.000411145 0)
(1.03521 -0.0828896 -2.11758e-20)
(0.970001 -0.0261644 7.92936e-22)
(1.04125 -0.00120511 1.90025e-23)
(-0.0121865 -0.0570002 2.5761e-20)
(1.02015 0.0129832 0)
(1.01166 -0.0121065 9.91516e-21)
(-0.0239659 0.024013 0)
(0.622658 -0.0409346 0)
(0.914794 0.0446484 6.56246e-23)
(1.00271 0.00147875 0)
(1.01794 -0.00257948 -1.1549e-20)
(-0.00792225 -0.0646654 1.56691e-20)
(1.02438 -0.0927568 -2.51683e-20)
(1.03277 -0.0965042 1.56592e-20)
(0.987658 0.00847125 2.15318e-23)
(0.772765 -0.0816657 -1.09796e-20)
(1.00536 -0.0843446 -8.99971e-21)
(0.837045 -0.0860224 1.11044e-20)
(1.03302 -0.0763198 0)
(1.04067 -0.0695168 1.60558e-20)
(1.01436 -0.0218524 -6.84613e-21)
(1.02498 -0.0117824 -9.48065e-21)
(0.468441 0.0206499 -2.08833e-21)
(1.05286 -0.0803782 2.29919e-20)
(0.521404 -0.0363149 0)
(0.986106 0.0127653 0)
(1.0415 -0.0620763 -1.99903e-20)
(-0.00170661 0.0221097 -3.28729e-20)
(0.834972 -0.0885406 1.2568e-20)
(0.671371 -0.0469641 1.45309e-20)
(1.01899 -0.00966099 0)
(1.04641 -0.0579078 2.16415e-20)
(1.00319 0.00330454 -9.25206e-22)
(1.00369 -0.0491709 0)
(0.996893 -0.022285 -2.75274e-21)
(0.527054 -0.0892106 5.88594e-21)
(1.00911 -0.000265341 -7.76252e-21)
(0.665902 -0.0650184 0)
(1.04084 -0.00106817 -1.65165e-23)
(1.03848 -0.0855582 1.3913e-20)
(1.00316 -0.00601451 1.76324e-21)
(1.00512 -0.0828008 -7.95975e-21)
(1.04499 -0.0616316 0)
(1.04501 -0.0572438 -2.06113e-20)
(0.82117 -0.0799137 0)
(1.04435 -0.0727009 1.55667e-20)
(0.993599 -0.0463382 3.9812e-21)
(1.00861 0.000730313 6.09305e-22)
(1.03727 -0.0847075 -1.24279e-20)
(0.718046 0.0297686 -6.56417e-22)
(0.96678 -0.0427627 -3.02955e-22)
(1.01101 -0.032871 0)
(0.607154 -0.0394222 0)
(1.05337 0.00349567 0)
(0.136961 0.0478406 -1.56864e-20)
(0.821135 0.0156067 3.80209e-22)
(1.01282 -0.0181119 -1.74369e-20)
(0.924795 -0.0867722 2.05133e-20)
(0.0366433 0.043811 5.88793e-22)
(0.655105 -0.0466318 -1.38213e-20)
(0.875528 0.0260652 1.05795e-22)
(0.986074 0.0130597 0)
(0.997197 0.00433448 1.82827e-21)
(0.749033 -0.0607723 1.58631e-20)
(1.0131 -0.000442788 8.47963e-21)
(0.636635 0.0562553 -4.36103e-23)
(0.667333 -0.0553537 -2.26206e-20)
(1.0002 0.00326102 -9.2316e-22)
(1.03964 -0.0270985 -8.65111e-21)
(1.01114 -0.0869914 6.76421e-21)
(0.853225 0.00268856 -2.81949e-22)
(0.191848 -0.0155679 0)
(1.01692 -0.0155637 -1.0725e-20)
(1.02501 0.00198631 0)
(0.402132 0.0309302 -1.9232e-23)
(0.680568 -0.0552976 0)
(1.02453 -0.0867569 5.04954e-21)
(1.01108 -0.0399926 0)
(0.988787 0.00748992 -1.39091e-22)
(0.822228 0.0187368 0)
(-0.043128 0.0167596 0)
(1.03111 -0.0866451 0)
(1.03941 -0.00111545 6.17601e-24)
(1.00767 -0.0585771 -1.28563e-20)
(1.00574 0.00389281 0)
(0.999825 3.88134e-05 0)
(1.01516 0.0214104 -1.36959e-22)
(1.0185 0.000393044 0)
(1.00133 -0.0880109 0)
(0.843442 0.0618683 0)
(1.01125 -0.012469 -1.22215e-20)
(1.00055 0.0253392 -1.62132e-22)
(0.996829 0.0045002 8.6615e-22)
(1.00612 -0.028296 7.45255e-21)
(0.561334 -0.037654 0)
(0.75774 -0.0754369 1.66945e-20)
(1.02856 -0.0537542 0)
(0.306375 -0.0398348 0)
(1.00348 -0.00593863 0)
(1.02623 -0.0533004 1.19324e-20)
(0.997694 0.00479206 -2.18684e-21)
(1.00535 0.00380716 0)
(1.00707 -0.0162285 0)
(1.01064 -0.0121583 -1.1177e-20)
(0.606792 -0.0438722 1.03452e-22)
(1.0167 -0.00920631 2.0842e-21)
(1.04425 -0.0793301 0)
(1.01879 -0.0101888 0)
(1.01167 -0.0418329 0)
(0.996914 0.0215417 0)
(0.00232538 -0.0658284 -2.91862e-20)
(1.00129 0.000188084 -2.65945e-21)
(0.525768 -0.0305367 0)
(0.99132 -0.0493657 0)
(1.02125 -0.0905016 3.04117e-20)
(1.01466 -0.0538595 0)
(1.02011 -0.0563616 -1.36583e-20)
(0.512935 -0.0345118 -6.18859e-21)
(1.03575 -0.0486283 2.08515e-20)
(0.989049 -0.0434026 5.18466e-21)
(0.541221 -0.0935102 0)
(0.888641 -0.0368753 0)
(-0.0185336 -0.0217362 2.40366e-20)
(1.02009 -0.0636456 3.91061e-21)
(0.865559 0.0634229 -5.41573e-22)
(0.999145 -0.0166847 4.35776e-21)
(1.04456 -0.0711906 0)
(1.03358 -0.0750158 1.40995e-20)
(0.204848 -0.0210848 0)
(1.00974 0.00151877 -9.06597e-22)
(0.0909717 0.021764 0)
(1.00105 0.00429397 -9.18155e-22)
(1.0001 0.00375327 2.03995e-21)
(0.0687864 0.0470703 1.11378e-20)
(1.06242 0.00768889 7.38856e-23)
(1.01437 -0.0909791 3.3096e-20)
(1.01509 -0.0409048 -6.09433e-21)
(1.00372 0.00426556 7.69226e-22)
(0.978677 -0.0155154 3.33269e-22)
(1.00327 0.00369869 4.49396e-22)
(1.01828 -0.00263042 1.29877e-20)
(1.06134 -0.00894382 4.9641e-23)
(1.02554 -0.0189118 -1.54113e-20)