/*--------------------------------*- C++ -*----------------------------------*\
| =========                 |                                                 |
| \\      /  F ield         | OpenFOAM: The Open Source CFD Toolbox           |
|  \\    /   O peration     | Version:  v2012                                 |
|   \\  /    A nd           | Website:  www.openfoam.com                      |
|    \\/     M anipulation  |                                                 |
\*---------------------------------------------------------------------------*/
FoamFile
{
    version     2.0;
    format      ascii;
    class       volScalarField::Internal;
    location    "450";
    object      V0;
}
// * * * * * * * * * * * * * * * * * * * * * * * * * * * * * * * * * * * * * //

dimensions      [0 3 0 0 0 0 0];


value           nonuniform List<scalar> 
13851
(
0.0940618
0.0504192
0.0155641
0.0944791
0.0129779
0.087533
0.0778186
0.0210365
0.16774
0.0234713
0.173424
0.018108
0.00515973
0.0065076
0.170309
0.0353621
0.0448825
0.0597231
0.0083015
0.167907
0.107529
0.017166
0.165529
0.188349
0.158105
0.0242125
0.0320396
0.000977081
0.0919232
0.064519
0.0859758
0.04265
0.0191512
0.105221
0.207024
0.00543634
0.00435395
0.0113873
0.0197183
0.134598
0.102569
0.171107
0.00131299
0.162879
0.15946
0.0029815
0.155613
0.111603
0.0305223
0.145974
0.0113871
0.00694818
0.00138411
0.151227
0.174682
0.169872
0.170132
0.00213057
0.075023
0.0767711
0.0127818
0.00547481
0.0666153
0.00945766
0.0428513
0.0827953
0.00345044
0.165866
0.0217091
0.0627023
0.00128579
0.00339914
0.0478841
0.172035
0.173238
0.119973
0.0114873
0.00167438
0.0166298
0.00138124
0.0741719
0.166364
0.123047
0.00268415
0.0626389
0.0167003
0.0890985
0.0272536
0.0393805
0.183622
0.00531004
0.109596
0.128872
0.0251962
0.0419043
0.156278
0.0123183
0.00301779
0.125819
0.185311
0.00377271
0.0149743
0.0803547
0.0294352
0.163095
0.0944756
0.0134059
0.183614
0.00290799
0.0846025
0.158404
0.186
0.107439
0.195593
0.16357
0.0680413
0.00391274
0.135189
0.173323
0.155123
0.00135509
0.0365813
0.00520456
0.107884
0.103367
0.176013
0.10697
0.01326
0.0904938
0.00807486
0.115114
0.162863
0.00133593
0.128503
0.0698765
0.167373
0.16629
0.0033512
0.00675025
0.010182
0.00336262
0.18974
0.137648
0.16264
0.0540263
0.157119
0.186975
0.0107916
0.092161
0.160272
0.0085013
0.168235
0.00520912
0.15033
0.0391755
0.0608017
0.124026
0.0601241
0.00697127
0.0120817
0.1731
0.0200864
0.00166484
0.146847
0.0643795
0.170001
0.197718
0.0206312
0.0918012
0.00299124
0.00136748
0.145165
0.120649
0.00907717
0.151477
0.105171
0.0172054
0.106658
0.00791933
0.180935
0.0357207
0.00313954
0.114608
0.0120863
0.170555
0.165693
0.0796329
0.15647
0.0120274
0.0290207
0.149807
0.00151245
0.153819
0.0190264
0.00684017
0.0489946
0.13646
0.132558
0.127335
0.120045
0.175271
0.00385051
0.170096
0.114746
0.0240749
0.116643
0.00926376
0.0412286
0.00193583
0.17871
0.00250997
0.0936532
0.139079
0.192688
0.178778
0.164917
0.0675366
0.0028163
0.128298
0.00193043
0.0331895
0.0657877
0.00254989
0.00762936
0.00221079
0.178686
0.0272155
0.163597
0.0013826
0.178435
0.0251295
0.0450105
0.142975
0.151811
0.0108963
0.0488599
0.00851033
0.035201
0.177421
0.102222
0.0878904
0.135121
0.194637
0.0215856
0.162309
0.00164462
0.0140859
0.127121
0.0570227
0.0456797
0.121216
0.12688
0.0570047
0.0532176
0.0136656
0.0656661
0.0338162
0.00311482
0.00126936
0.123294
0.166921
0.0737623
0.0782425
0.175612
0.00672929
0.0424514
0.0564363
0.0250413
0.002637
0.142158
0.120175
0.0443937
0.0886699
0.0168573
0.038164
0.151288
0.171698
0.154901
0.00225283
0.148312
0.14669
0.191189
0.162561
0.0135817
0.0903909
0.0975452
0.154386
0.127662
0.0898322
0.187513
0.00859313
0.0571778
0.065008
0.0200861
0.14272
0.00700558
0.037222
0.0178553
0.142347
0.00177159
0.0193092
0.040435
0.00229261
0.0799171
0.0939632
0.00250116
0.152842
0.0146606
0.0302714
0.0619725
0.00772866
0.029656
0.0574361
0.00293238
0.165475
0.0392485
0.176145
0.00264641
0.00620608
0.124739
0.0132518
0.132755
0.00180319
0.120785
0.172914
0.110569
0.00703942
0.0271572
0.0382017
0.129031
0.0840926
0.0668347
0.195987
0.00415307
0.00388288
0.0661686
0.00267104
0.0067277
0.150023
0.0183886
0.00850382
0.0896029
0.0408126
0.00657165
0.00746613
0.10967
0.0734598
0.00205743
0.163103
0.150954
0.151125
0.012105
0.037781
0.0399174
0.00140684
0.119641
0.0784225
0.110961
0.141702
0.169268
0.169313
0.134591
0.00214391
0.177829
0.0876705
0.0175826
0.168292
0.016237
0.0364298
0.092632
0.00360015
0.0853556
0.0396735
0.028848
0.107859
0.122092
0.133715
0.0994564
0.002987
0.18628
0.00835774
0.100928
0.00593783
0.00318009
0.155851
0.159616
0.0969801
0.140511
0.147057
0.0678781
0.0106182
0.00589033
0.0209306
0.00254188
0.00229673
0.126349
0.0982239
0.00369068
0.0013566
0.0424261
0.00366847
0.105198
0.0267937
0.168101
0.00753106
0.13403
0.0270264
0.104281
0.0841008
0.16767
0.142285
0.126514
0.00845763
0.0461482
0.00162255
0.068952
0.0119738
0.0844069
0.118053
0.0446169
0.0139542
0.0409912
0.161636
0.175051
0.148384
0.164055
0.0105252
0.128585
0.00918299
0.0794514
0.00156049
0.101716
0.0905052
0.176906
0.008487
0.121473
0.122811
0.180424
0.0161397
0.141724
0.0184185
0.0015513
0.127796
0.161955
0.160011
0.00371477
0.185475
0.025277
0.0146662
0.131754
0.140805
0.0655228
0.00874281
0.00705583
0.0635115
0.0172045
0.188069
0.10898
0.00167996
0.0562454
0.181194
0.0238505
0.134398
0.0802644
0.14489
0.0462284
0.0606586
0.16777
0.127911
0.00370861
0.106165
0.0183564
0.161216
0.0769005
0.167286
0.169165
0.108667
0.180302
0.173185
0.100719
0.0649059
0.0930208
0.113788
0.176667
0.00407709
0.00137602
0.101586
0.0872566
0.042182
0.128554
0.00277165
0.0919171
0.159661
0.116796
0.0117611
0.0754186
0.00169653
0.174482
0.00121389
0.0297689
0.163646
0.0878236
0.00300854
0.0210563
0.138044
0.165998
0.111227
0.180607
0.146019
0.15225
0.0848711
0.00138052
0.0116796
0.00658902
0.00411898
0.0628078
0.183269
0.00623334
0.132123
0.0325368
0.0237717
0.110793
0.110987
0.00285086
0.148994
0.00211854
0.002824
0.00331343
0.0405251
0.0672958
0.114969
0.164066
0.0751524
0.129013
0.0150754
0.0588719
0.0149842
0.00349484
0.172141
0.15946
0.0116013
0.00130093
0.0528036
0.125824
0.130102
0.0928862
0.0116819
0.0475783
0.0311106
0.0170459
0.156024
0.00182023
0.00167553
0.0945656
0.141058
0.0196537
0.128301
0.145928
0.153564
0.00580765
0.0294694
0.00722405
0.00433701
0.165716
0.0830709
0.105056
0.0145348
0.00915569
0.00132656
0.00304576
0.110525
0.0833756
0.0254863
0.00206543
0.005668
0.0170637
0.0629792
0.167368
0.129438
0.0140909
0.175748
0.0539722
0.178414
0.150191
0.00275895
0.0105732
0.0854791
0.158629
0.00757812
0.128881
0.139915
0.143289
0.165918
0.153608
0.00285951
0.122748
0.130907
0.00365705
0.114142
0.0195972
0.00123292
0.00147044
0.077528
0.0199276
0.127314
0.173775
0.0297928
0.0039921
0.0776612
0.00767928
0.0272375
0.146649
0.0391461
0.126357
0.131128
0.00968486
0.117654
0.066604
0.138663
0.0233897
0.00743412
0.0812282
0.111669
0.0327439
0.063024
0.0113465
0.0109115
0.00626792
0.0389426
0.00532925
0.144213
0.052461
0.103122
0.00292118
0.100759
0.172297
0.00283298
0.0664223
0.00193686
0.00189112
0.00263552
0.0263283
0.129393
0.00304271
0.127838
0.15127
0.165919
0.149554
0.146457
0.0693517
0.0502969
0.161941
0.00990237
0.0283927
0.00829716
0.128613
0.157843
0.138928
0.0102671
0.00644304
0.0107904
0.0235211
0.130541
0.142744
0.155006
0.093331
0.00407243
0.0136612
0.0622373
0.171755
0.0818148
0.128958
0.0162726
0.00155771
0.0356883
0.00407614
0.111229
0.117287
0.00748335
0.00301668
0.020191
0.0155825
0.0737224
0.0630315
0.0117591
0.0690449
0.135802
0.109869
0.130677
0.184361
0.0159878
0.00166304
0.13079
0.0616576
0.0644454
0.144028
0.0378847
0.087197
0.00686646
0.0101358
0.00712714
0.144419
0.169705
0.132639
0.00444899
0.00412857
0.047294
0.00193051
0.15681
0.136406
0.170108
0.118479
0.00354369
0.0484494
0.0829729
0.156917
0.0400162
0.123157
0.00199111
0.0487865
0.00170227
0.156188
0.067004
0.00126465
0.00122293
0.00498283
0.122038
0.00258451
0.127049
0.1629
0.0146499
0.0186324
0.0432508
0.00272898
0.0884401
0.128108
0.00440131
0.172622
0.174844
0.0600376
0.132188
0.00200755
0.0243421
0.0092958
0.0732065
0.156085
0.144356
0.0842629
0.179481
0.110303
0.162161
0.111853
0.156117
0.00187208
0.130714
0.132649
0.0953836
0.0818473
0.0013144
0.153081
0.1254
0.00656294
0.0160704
0.13492
0.155781
0.0787973
0.00442728
0.057886
0.00284905
0.0176995
0.133121
0.104314
0.00118422
0.0939455
0.0434972
0.150141
0.166545
0.162178
0.0168129
0.0312513
0.0503622
0.103507
0.135183
0.123915
0.00673913
0.127452
0.0117102
0.076294
0.0780224
0.0113217
0.00656365
0.00228868
0.053073
0.00988177
0.00443848
0.0938907
0.0025945
0.0518472
0.00516527
0.00702858
0.0025528
0.129989
0.0284144
0.144627
0.0662786
0.00217808
0.00224041
0.120223
0.176553
0.0119437
0.154755
0.130889
0.00130337
0.152612
0.0971804
0.00176859
0.00145701
0.117196
0.118839
0.137885
0.00108731
0.00345301
0.00630899
0.106581
0.00385227
0.0122898
0.00661898
0.0136625
0.0159646
0.0541742
0.0768746
0.0400006
0.0106257
0.000793967
0.0987182
0.0227495
0.00203498
0.00479159
0.00143613
0.0887646
0.0195426
0.142437
0.0363866
0.0599737
0.0112154
0.194415
0.00171269
0.118495
0.00751815
0.106847
0.0143055
0.016282
0.0206069
0.0030084
0.0142929
0.0431359
0.166658
0.00835436
0.0930511
0.0575847
0.0562028
0.00115908
0.169146
0.00719756
0.148436
0.0789883
0.00176243
0.00289685
0.00143762
0.138202
0.121809
0.1142
0.00169518
0.174062
0.064962
0.00159462
0.133645
0.0401337
0.00971598
0.138065
0.0107462
0.0737412
0.129225
0.0289186
0.00184224
0.00877655
0.0423376
0.101583
0.151165
0.00200718
0.00731424
0.128227
0.0264379
0.145887
0.120558
0.157877
0.140958
0.0133974
0.126137
0.0916005
0.122536
0.10694
0.0601592
0.00130361
0.00295214
0.0282312
0.00782068
0.100018
0.0254813
0.109584
0.14681
0.0891186
0.0961969
0.00128359
0.0908837
0.0116696
0.0871567
0.0455885
0.156838
0.00121896
0.12895
0.0248714
0.027004
0.00422205
0.0217699
0.0218093
0.00122422
0.025595
0.0483864
0.0140793
0.0767527
0.0013121
0.0176928
0.178368
0.0863623
0.0176953
0.0133069
0.00903379
0.144907
0.00954418
0.13287
0.127571
0.00565696
0.163712
0.00656372
0.0357529
0.14204
0.0715664
0.132178
0.125606
0.135989
0.0655657
0.00393986
0.129832
0.00383264
0.00187513
0.0286982
0.00670751
0.0788007
0.178708
0.156938
0.0913978
0.128858
0.00854558
0.0489589
0.118335
0.0791236
0.175333
0.00149439
0.0132374
0.0595796
0.00331925
0.00426125
0.0907513
0.100656
0.0233102
0.128442
0.13917
0.0929174
0.101322
0.153232
0.157384
0.134965
0.00199305
0.141298
0.00476915
0.0317621
0.0382052
0.165861
0.148708
0.0130416
0.0510266
0.0927666
0.132973
0.104583
0.10055
0.0727209
0.0149079
0.147049
0.0397913
0.00560836
0.128045
0.161801
0.0961068
0.0443407
0.0806912
0.0338358
0.0125579
0.0157453
0.0508608
0.103407
0.0152034
0.109026
0.00158196
0.00404254
0.0621682
0.00580716
0.127565
0.158048
0.0967555
0.120186
0.141737
0.13871
0.149138
0.137191
0.00970015
0.135088
0.137711
0.0576327
0.0188941
0.00368515
0.047844
0.0590051
0.163093
0.0103132
0.0067989
0.0498344
0.0018738
0.00961325
0.00727706
0.142163
0.00942735
0.0935924
0.138013
0.0995769
0.00133383
0.00735439
0.127155
0.0319041
0.153235
0.110953
0.147132
0.0874021
0.0965015
0.0685952
0.131569
0.0170996
0.0519779
0.00129067
0.187867
0.0325316
0.134435
0.00685644
0.0190497
0.00281942
0.00631745
0.0069762
0.0108796
0.00161357
0.123334
0.00379972
0.147279
0.0206714
0.138582
0.0531558
0.020445
0.0757586
0.00152877
0.0322176
0.0317493
0.147045
0.00593323
0.0990862
0.137025
0.0373693
0.0445682
0.167388
0.06756
0.0285691
0.11146
0.0419721
0.11135
0.0249165
0.100253
0.109621
0.00391873
0.0359667
0.151487
0.0576103
0.00242862
0.0225598
0.0150228
0.00603058
0.112486
0.141429
0.00355645
0.0687138
0.0170833
0.0267433
0.00247079
0.112772
0.00794558
0.0458836
0.0583692
0.0737177
0.0963819
0.00122832
0.0462313
0.00151388
0.160454
0.0228384
0.0051143
0.0403855
0.00254974
0.00364599
0.149806
0.025633
0.00166005
0.0246891
0.00280785
0.131385
0.0932621
0.00111235
0.00696508
0.00207352
0.148273
0.0861041
0.0995742
0.00148128
0.00512665
0.0632076
0.0915961
0.0156595
0.0115197
0.00346015
0.0918515
0.117272
0.00265177
0.0325939
0.107399
0.0056094
0.00617637
0.0489883
0.136859
0.00102482
0.00265423
0.151962
0.136798
0.0109546
0.148011
0.16404
0.110257
0.102657
0.0925368
0.0107527
0.0400937
0.00372591
0.0538624
0.00123833
0.0989719
0.00991764
0.00539006
0.00762534
0.109504
0.114891
0.0103668
0.128619
0.113839
0.155521
0.0878852
0.104835
0.00378531
0.13477
0.122179
0.00163457
0.0199688
0.0132274
0.0517683
0.134577
0.146005
0.0213749
0.00299878
0.00302909
0.124268
0.0113351
0.139836
0.0875094
0.145979
0.00169596
0.0188878
0.0337521
0.00677529
0.00896139
0.0665013
0.00323161
0.0028168
0.110743
0.141081
0.155656
0.0208223
0.0114152
0.154171
0.00568376
0.115019
0.163606
0.01225
0.00161102
0.0691819
0.00535711
0.051377
0.00185001
0.0905936
0.0791125
0.0902153
0.050706
0.152401
0.13324
0.050652
0.00231779
0.00216455
0.0345507
0.00270798
0.0436791
0.00185924
0.0022866
0.0211659
0.116425
0.113028
0.134539
0.114729
0.00399422
0.156277
0.0407008
0.0640752
0.00634318
0.00242218
0.00312384
0.0895555
0.00326248
0.0533219
0.0510585
0.122027
0.127657
0.00181081
0.040306
0.00144965
0.0286106
0.0914906
0.00630901
0.145683
0.0367615
0.0842918
0.00458478
0.101243
0.0457392
0.0892508
0.121494
0.00445273
0.0477038
0.0249145
0.11916
0.0228791
0.0121537
0.00120585
0.115246
0.0117673
0.115674
0.0615675
0.150221
0.00637467
0.0217658
0.0178558
0.0360931
0.137122
0.110279
0.110643
0.161312
0.135669
0.125852
0.128503
0.00210246
0.0358801
0.0769788
0.103788
0.16047
0.00908605
0.00335373
0.00686442
0.0194442
0.0911509
0.135557
0.15581
0.121105
0.0056756
0.00165574
0.164765
0.0467195
0.0316593
0.00321112
0.0625554
0.0432251
0.00131156
0.0404252
0.142656
0.00330167
0.00232988
0.0901793
0.147142
0.0965727
0.00156363
0.00542453
0.0248126
0.00625212
0.00350293
0.0411467
0.00233743
0.0144725
0.0938686
0.00664508
0.00725098
0.146524
0.00193107
0.0785172
0.114128
0.148713
0.00565164
0.112252
0.00487812
0.0552267
0.0465084
0.0172666
0.11979
0.00376425
0.00228667
0.14535
0.0524229
0.00495514
0.0126468
0.00152129
0.020436
0.154544
0.11303
0.0966458
0.144106
0.0843242
0.0438983
0.0998262
0.010194
0.0185932
0.0213772
0.120932
0.141992
0.132685
0.0262784
0.025768
0.0947192
0.0114508
0.0190103
0.0303552
0.0126204
0.0144181
0.0623195
0.00233835
0.11379
0.130258
0.00461065
0.0033721
0.0010346
0.0896469
0.166314
0.00151926
0.14563
0.126754
0.0258734
0.144429
0.0154446
0.0117908
0.148511
0.00134544
0.00375018
0.0513403
0.00713484
0.00124154
0.12778
0.0406595
0.00473425
0.00162871
0.0373706
0.00834236
0.140353
0.160522
0.140626
0.0449196
0.00221309
0.00364439
0.00153645
0.0033915
0.0380194
0.0381379
0.0294763
0.128531
0.155375
0.130733
0.00383018
0.121514
0.00296523
0.0392116
0.0622149
0.0107851
0.00386285
0.000808205
0.00299864
0.0155766
0.1005
0.126156
0.00314466
0.0035645
0.0345019
0.14358
0.151411
0.0171708
0.0339476
0.00547797
0.0125872
0.0403493
0.150282
0.00563141
0.134822
0.00124029
0.0543201
0.129211
0.00973332
0.0954606
0.00155064
0.160051
0.00175464
0.144905
0.0424321
0.0658966
0.140372
0.0633614
0.0175401
0.0150774
0.0019467
0.00239769
0.0318009
0.0250489
0.0842978
0.00331387
0.00198642
0.129138
0.150135
0.140742
0.166263
0.00142395
0.178899
0.0537519
0.0197155
0.0469437
0.0498303
0.0730923
0.0786533
0.00886925
0.00219461
0.110738
0.0693876
0.00491912
0.0551344
0.0210146
0.0408835
0.00185087
0.0262501
0.0159293
0.114673
0.148698
0.14648
0.00196988
0.00215032
0.0129177
0.152855
0.110842
0.129815
0.000938187
0.142559
0.00237605
0.0021366
0.0416136
0.014304
0.0789517
0.0397887
0.0712911
0.0774411
0.00130908
0.044312
0.00901338
0.157012
0.0853352
0.146126
0.0782209
0.0047834
0.00388282
0.0308655
0.00238876
0.00525794
0.165065
0.102408
0.144003
0.104655
0.00188692
0.00388697
0.0452519
0.144965
0.0724729
0.0176071
0.0182428
0.000960594
0.0335758
0.00221995
0.0150923
0.0626301
0.107923
0.147724
0.0103943
0.124626
0.142888
0.00153365
0.0198978
0.00554627
0.104401
0.0323412
0.13423
0.00157118
0.00356948
0.111821
0.0877832
0.0368438
0.0890685
0.132108
0.109314
0.135311
0.00109155
0.0317729
0.000986448
0.0375673
0.00617914
0.0166376
0.00167102
0.119537
0.0264154
0.00161205
0.0408103
0.0374806
0.00129658
0.141296
0.114315
0.029816
0.00288552
0.00132235
0.0364841
0.0903253
0.122358
0.149064
0.0461563
0.19529
0.0032471
0.145153
0.039219
0.0764362
0.14236
0.0198691
0.00818365
0.0863085
0.00623517
0.101254
0.152603
0.0201112
0.00155399
0.0217385
0.0212682
0.00442474
0.00591893
0.129121
0.0979789
0.0349561
0.00261335
0.00233294
0.110342
0.00122471
0.049198
0.112345
0.0830242
0.00363304
0.0147207
0.11619
0.00075394
0.0692565
0.0479985
0.120913
0.00195377
0.120011
0.00519928
0.0677914
0.0369406
0.0567928
0.11476
0.00801554
0.000678455
0.139224
0.0313697
0.0108983
0.152708
0.0810764
0.0950046
0.0156652
0.0118161
0.0115029
0.0464325
0.00283222
0.0337582
0.0120506
0.0425067
0.0156192
0.112105
0.00137113
0.0015096
0.0265713
0.114482
0.00928025
0.00250276
0.0670648
0.0262352
0.128423
0.0351152
0.00115412
0.0379696
0.0021516
0.0689903
0.0114414
0.0703263
0.0012774
0.141164
0.14442
0.105901
0.0243621
0.00332866
0.00368764
0.008854
0.0309504
0.144659
0.0402664
0.067228
0.12654
0.00525884
0.1352
0.0153792
0.0936201
0.043817
0.14742
0.150849
0.139852
0.0672413
0.0514055
0.0257059
0.00151886
0.0999046
0.0426338
0.0243119
0.145007
0.093766
0.0557193
0.0562787
0.0210204
0.134331
0.113699
0.00682809
0.162659
0.0610741
0.093429
0.0594657
0.142149
0.00273386
0.0713204
0.117813
0.00516737
0.0316725
0.0377525
0.0024159
0.00751826
0.0800238
0.0293481
0.0537077
0.0523971
0.0764327
0.148517
0.0317708
0.00140527
0.00176648
0.00308424
0.0540081
0.00187348
0.0700588
0.0527202
0.157002
0.00294005
0.114051
0.0356891
0.124354
0.00268957
0.00282829
0.107494
0.16282
0.0392049
0.113925
0.0933711
0.00700708
0.0902184
0.114248
0.00141529
0.00234185
0.141966
0.0332801
0.0419322
0.00358182
0.150733
0.00255731
0.00173821
0.1097
0.0555673
0.00389724
0.0148785
0.0979731
0.104182
0.113658
0.0424045
0.146224
0.123278
0.00244983
0.0015174
0.0020795
0.137769
0.00270604
0.0770872
0.00698847
0.146085
0.0539399
0.0417327
0.141226
0.0032925
0.0442941
0.0112671
0.00567821
0.00244938
0.022319
0.0112653
0.00265432
0.00252916
0.124465
0.000964684
0.138607
0.119568
0.10778
0.114973
0.139264
0.00193663
0.0679423
0.140148
0.0448304
0.00164769
0.00217607
0.0330616
0.149004
0.0289406
0.0220123
0.0030389
0.116196
0.125889
0.164047
0.013853
0.0989777
0.140154
0.0015886
0.0161744
0.0177785
0.110568
0.128121
0.0636643
0.00200371
0.132372
0.00156269
0.0173222
0.0806341
0.00188225
0.00245498
0.151711
0.00885512
0.0416973
0.00195637
0.133755
0.0435325
0.139584
0.0633062
0.0295457
0.00392675
0.150724
0.114204
0.112249
0.00737771
0.0206175
0.00184936
0.00177676
0.0744305
0.00141545
0.0490941
0.0173764
0.00405953
0.00134894
0.044767
0.0016257
0.014673
0.0733972
0.141523
0.00425234
0.0211528
0.0424875
0.00603322
0.147186
0.00232027
0.13746
0.0147389
0.138996
0.0610039
0.00146056
0.0174024
0.00693077
0.045831
0.0399236
0.0458897
0.00512981
0.0203263
0.00217654
0.0769915
0.00204138
0.082917
0.00564556
0.0093801
0.0036471
0.111217
0.126278
0.0983298
0.00231206
0.112754
0.13144
0.137328
0.0611262
0.147305
0.114461
0.00347124
0.00319971
0.00234199
0.00233487
0.125147
0.00403595
0.00255876
0.00579746
0.00162594
0.00158168
0.0462862
0.0022344
0.0368704
0.022131
0.00265277
0.00602877
0.16018
0.00270306
0.0875569
0.0865725
0.0129749
0.00172363
0.00238993
0.00096142
0.039868
0.0617118
0.144807
0.00271018
0.00244783
0.117233
0.0119357
0.114742
0.0906347
0.0785636
0.00354932
0.00352343
0.0548923
0.107591
0.045162
0.0675849
0.0981897
0.0571292
0.124024
0.0446916
0.0265222
0.00554561
0.0896075
0.00612495
0.0752649
0.0507749
0.00172834
0.00257824
0.0506038
0.0416316
0.126916
0.0198681
0.0669884
0.149322
0.0210872
0.122784
0.0799142
0.0420378
0.115507
0.0515089
0.00871705
0.0214985
0.00153351
0.0897404
0.181714
0.00257046
0.106609
0.0336007
0.115541
0.102226
0.151834
0.077581
0.135617
0.0321937
0.0995416
0.00170331
0.0822705
0.0618087
0.0396303
0.148335
0.0873151
0.029904
0.105448
0.0104155
0.00174554
0.0630046
0.054289
0.126211
0.081928
0.110385
0.063999
0.124782
0.0341617
0.00405093
0.106738
0.008971
0.0014476
0.136667
0.107676
0.138959
0.0343493
0.0102785
0.103711
0.0146509
0.00368245
0.0616264
0.133192
0.00123263
0.159551
0.11356
0.14725
0.176127
0.0966105
0.135432
0.0783097
0.00422866
0.0523765
0.0230238
0.0192104
0.0673767
0.0667335
0.0210108
0.00159731
0.00176751
0.00869884
0.00981563
0.0034033
0.00651577
0.134772
0.0561267
0.142475
0.0201802
0.115186
0.039837
0.0106717
0.132513
0.019562
0.021855
0.130981
0.118623
0.0818925
0.115261
0.144789
0.139687
0.00458189
0.00417147
0.060312
0.0826828
0.147192
0.0114873
0.00563091
0.00164145
0.0141802
0.00341123
0.121055
0.00245345
0.00132121
0.0762419
0.0701861
0.0820148
0.136861
0.0662325
0.0950571
0.101518
0.0420129
0.00167871
0.00947362
0.00151309
0.116727
0.0107844
0.00420118
0.116766
0.126609
0.12283
0.149008
0.0582707
0.105036
0.0104184
0.0833665
0.00254759
0.0337328
0.00243458
0.00846344
0.0022536
0.00109366
0.0875526
0.132347
0.128387
0.0798813
0.149754
0.114081
0.00167472
0.00322763
0.0880548
0.0741221
0.0875988
0.0221544
0.0106738
0.13795
0.0698597
0.0043868
0.126653
0.0973437
0.0243221
0.0122358
0.0616436
0.00385306
0.00561436
0.0381624
0.00277877
0.00729424
0.00130244
0.149844
0.0454171
0.130129
0.0338926
0.00348815
0.132902
0.00144249
0.127242
0.173926
0.109796
0.00193913
0.0147862
0.00830463
0.105657
0.149027
0.031193
0.0019505
0.0266946
0.120825
0.0969655
0.0851484
0.0477029
0.120291
0.125585
0.00196751
0.00240412
0.00200387
0.022404
0.00620213
0.0022428
0.00849809
0.00217879
0.0118805
0.154886
0.134684
0.164774
0.0696131
0.00265425
0.00272378
0.143482
0.00151575
0.00178435
0.0218928
0.107093
0.133608
0.00661565
0.00392088
0.00164371
0.0250083
0.00163208
0.159363
0.00613631
0.0100593
0.139784
0.00248762
0.117122
0.00646382
0.00199502
0.0384699
0.00557108
0.0756699
0.137816
0.00210563
0.0016117
0.00789819
0.0280571
0.00127267
0.00532075
0.00169196
0.00187134
0.00173146
0.00672295
0.0066226
0.074995
0.0945871
0.0148569
0.00143153
0.138845
0.0013355
0.161863
0.0132733
0.031007
0.132192
0.00309163
0.112319
0.00586265
0.00153019
0.11558
0.0120948
0.00974459
0.00175298
0.00659928
0.0105331
0.111938
0.0777625
0.00263283
0.128336
0.137164
0.0171217
0.0391136
0.00149879
0.0346299
0.13696
0.0395988
0.13767
0.010615
0.0541128
0.00656054
0.142209
0.147882
0.00150824
0.00959359
0.110752
0.00192345
0.0044602
0.139378
0.0464183
0.0542675
0.00186152
0.116279
0.143853
0.00573688
0.0536636
0.00243202
0.00170211
0.0111773
0.045227
0.0706381
0.0972599
0.0146297
0.030874
0.0944918
0.00344621
0.0136973
0.128247
0.0878656
0.0112299
0.0559761
0.00140982
0.00510709
0.132787
0.00228629
0.00908378
0.0187037
0.117522
0.00240095
0.00110973
0.00383068
0.108379
0.150898
0.0122321
0.0358778
0.130492
0.0913121
0.115299
0.121544
0.0284733
0.12701
0.131598
0.0152179
0.00638442
0.00124976
0.0409567
0.00387895
0.00159005
0.106119
0.00360459
0.00351481
0.00136492
0.157925
0.0113158
0.00116989
0.00229759
0.00644618
0.00706267
0.0810024
0.00234608
0.0117004
0.00466124
0.145003
0.0165363
0.0129796
0.115012
0.0101503
0.00337615
0.114142
0.00238144
0.00331311
0.116679
0.131147
0.0811227
0.114109
0.0579941
0.146318
0.130278
0.00278311
0.00395691
0.0514542
0.00851045
0.20082
0.0206078
0.00138183
0.00152158
0.00146245
0.0273369
0.00165408
0.0778985
0.137589
0.0338916
0.00156122
0.00360027
0.00666472
0.00395174
0.0466179
0.127189
0.115482
0.0547886
0.0352624
0.00269302
0.00320872
0.0310592
0.00277816
0.00138021
0.114787
0.00347096
0.0873002
0.0229212
0.0641249
0.0975408
0.150808
0.0292558
0.0333103
0.00385577
0.00152872
0.141067
0.0141024
0.0272221
0.0195805
0.00380646
0.0143474
0.00247541
0.101631
0.00776735
0.00209765
0.00702577
0.0058442
0.116859
0.00647875
0.0023464
0.00204572
0.147685
0.0065273
0.147379
0.0689153
0.0969469
0.0167577
0.00244235
0.0011869
0.115804
0.0023363
0.0170713
0.152125
0.146226
0.0755513
0.160212
0.0192174
0.00226321
0.00184732
0.00758048
0.0984727
0.0810459
0.0184237
0.144908
0.00168867
0.0391544
0.101284
0.0145207
0.00786144
0.0207453
0.00129751
0.0102163
0.00128806
0.0417012
0.00396792
0.00436466
0.00278993
0.141638
0.0798214
0.0194843
0.0792938
0.00401913
0.00120806
0.0178622
0.00767067
0.00500555
0.0065234
0.0185504
0.0219528
0.0485891
0.136738
0.0057396
0.0267419
0.0339239
0.0200859
0.0223775
0.0296573
0.00199118
0.00492047
0.060822
0.0414499
0.0192628
0.0398554
0.109105
0.0140532
0.0115869
0.13527
0.00188272
0.0881112
0.0014492
0.10575
0.068241
0.0528102
0.00147233
0.0351064
0.00151698
0.00333166
0.0189725
0.0631341
0.00619254
0.0152821
0.0058361
0.0478608
0.17965
0.0123302
0.137778
0.00143817
0.140199
0.143368
0.124865
0.0364068
0.031665
0.0432427
0.0121473
0.0138333
0.0660032
0.0417105
0.003816
0.00284047
0.0299149
0.0166714
0.137663
0.0110285
0.0205484
0.00920581
0.0733208
0.0122904
0.0217525
0.148713
0.149396
0.0743963
0.0429342
0.104005
0.0014161
0.142225
0.00808119
0.0413486
0.00274002
0.00391656
0.0290044
0.0136076
0.0102002
0.00404606
0.00213508
0.0477694
0.038568
0.013389
0.0186171
0.0895225
0.00442179
0.00122726
0.140439
0.135657
0.00384852
0.0164583
0.0206193
0.108293
0.0188696
0.11651
0.0368281
0.0106073
0.0328765
0.0295483
0.128583
0.145448
0.0201466
0.00153949
0.0923892
0.0204544
0.00452452
0.151751
0.130822
0.00145002
0.0108405
0.00786994
0.111347
0.0359652
0.0220791
0.168592
0.114886
0.00825479
0.0222818
0.00143066
0.00645725
0.0266365
0.0024085
0.0145555
0.00787386
0.128657
0.126197
0.0193405
0.0292313
0.0193901
0.0166208
0.092303
0.0178392
0.0392275
0.0941958
0.150793
0.0383762
0.0954455
0.0378056
0.00803805
0.0109014
0.135457
0.00778612
0.0209904
0.00372988
0.0155584
0.0013445
0.0132812
0.00156125
0.146112
0.00884863
0.0269283
0.123867
0.130383
0.0162613
0.0257083
0.0716386
0.131296
0.00990863
0.00133046
0.0324006
0.116123
0.0662923
0.00460065
0.015007
0.0254986
0.14716
0.130429
0.0378283
0.0401747
0.0842647
0.021504
0.00168725
0.0142606
0.00175422
0.146513
0.0379695
0.110152
0.0401026
0.080997
0.121458
0.0144468
0.0376902
0.114144
0.00184839
0.0327819
0.00135969
0.12842
0.0270761
0.0213646
0.00878622
0.0226163
0.00786625
0.0283842
0.011674
0.0209092
0.12698
0.00272645
0.00383504
0.0640032
0.139462
0.0258164
0.110438
0.111639
0.0090931
0.138229
0.00180587
0.00485838
0.00536947
0.0719415
0.139352
0.0373733
0.0096464
0.0159822
0.0380218
0.0378208
0.127817
0.039589
0.103938
0.0649763
0.00141216
0.0635119
0.0806391
0.00412458
0.0214334
0.0406607
0.074069
0.0367332
0.139206
0.0405216
0.00180082
0.133026
0.0251792
0.00250383
0.00692851
0.0128176
0.0287023
0.0302521
0.00193003
0.00639572
0.0373967
0.0209757
0.0477963
0.0529287
0.0273171
0.0805941
0.124368
0.00199738
0.120899
0.0438692
0.133682
0.0684272
0.0238778
0.133128
0.141835
0.0168275
0.104524
0.0517218
0.0186444
0.0268548
0.0144014
0.0322682
0.129373
0.0292294
0.0109753
0.0356633
0.0190141
0.0230562
0.0192365
0.0272922
0.00172616
0.107474
0.00391537
0.0110102
0.00441693
0.022066
0.0137698
0.00933201
0.0421778
0.0123046
0.0116695
0.0337221
0.0330144
0.110422
0.112577
0.154816
0.0443198
0.00137853
0.146868
0.00768233
0.0734816
0.0324075
0.0483452
0.00706434
0.0350412
0.0217861
0.0756462
0.0472882
0.0435059
0.136609
0.0395622
0.0358847
0.140195
0.0415868
0.0487225
0.129424
0.0207828
0.0318834
0.0032627
0.0434577
0.00421419
0.0119517
0.0301884
0.106187
0.017909
0.132636
0.0263182
0.0197977
0.00376965
0.0419167
0.0297363
0.0222611
0.138476
0.015981
0.0409491
0.00285041
0.129639
0.0574132
0.00503108
0.0376966
0.0389566
0.150105
0.115701
0.146719
0.0206513
0.00350553
0.0333731
0.0570963
0.0435035
0.0196575
0.117666
0.0552976
0.0448163
0.0379301
0.0491514
0.164202
0.00530452
0.142183
0.00282268
0.162837
0.00327189
0.139893
0.142855
0.00719182
0.0557236
0.0401233
0.0115404
0.0407052
0.0223381
0.128883
0.132898
0.0768451
0.0451459
0.00149078
0.116746
0.0372766
0.0528457
0.0503265
0.0761948
0.0591571
0.010149
0.0212813
0.0431001
0.0315684
0.0402793
0.155366
0.0629989
0.0145576
0.0822254
0.0643534
0.00748537
0.129525
0.0346545
0.014253
0.0391085
0.00256415
0.150256
0.0408045
0.171013
0.0212274
0.0231729
0.0684721
0.00274043
0.145426
0.0691057
0.0394301
0.145818
0.00325147
0.152206
0.0823371
0.0170115
0.0158931
0.0383992
0.148182
0.0287128
0.0216214
0.00161341
0.0736581
0.0296747
0.14559
0.140352
0.0402547
0.00796343
0.00249123
0.076402
0.125119
0.132497
0.0834462
0.0370318
0.00371164
0.00269229
0.0826224
0.139721
0.12257
0.038239
0.00482012
0.00276684
0.0576719
0.00670383
0.154347
0.0974341
0.0160526
0.10883
0.0825247
0.0213744
0.00631861
0.00572016
0.0377805
0.0460581
0.00521453
0.0170244
0.0468802
0.0297775
0.00579019
0.0808656
0.0666585
0.0351953
0.119384
0.0825513
0.133663
0.150932
0.0230385
0.0345793
0.048421
0.013262
0.01289
0.0825475
0.0373955
0.150442
0.097026
0.045603
0.0368656
0.0165485
0.0338043
0.00335641
0.0515948
0.0472244
0.05405
0.00443395
0.0019307
0.0276999
0.152634
0.0105527
0.0411448
0.0978955
0.10642
0.0423952
0.132438
0.130033
0.0566998
0.053255
0.00669438
0.053439
0.0947691
0.0456185
0.00268401
0.00145422
0.119663
0.0615178
0.0386018
0.0373778
0.0033952
0.0554
0.00431389
0.0116058
0.101674
0.053452
0.00133029
0.0770303
0.0636963
0.0345488
0.0433353
0.0811431
0.0631902
0.0791475
0.00988896
0.121954
0.0208241
0.0474186
0.0397293
0.0792363
0.107158
0.0979538
0.0591268
0.0641784
0.119134
0.151973
0.0804645
0.0645915
0.0657257
0.0331113
0.0920618
0.0957646
0.0822743
0.064787
0.0298673
0.115177
0.138079
0.00167161
0.0450283
0.00261964
0.0143325
0.133328
0.0568365
0.01598
0.150154
0.0964858
0.156446
0.0492636
0.0606213
0.0126831
0.0591962
0.111023
0.00660089
0.00368403
0.0175283
0.14695
0.00251964
0.0605408
0.132161
0.0153235
0.151166
0.0811945
0.00290365
0.131175
0.0109319
0.088131
0.00691837
0.00661809
0.0368497
0.100885
0.130073
0.008874
0.0515972
0.0502032
0.0437666
0.00418593
0.120505
0.00753601
0.0629853
0.00125765
0.0832645
0.108729
0.114155
0.060924
0.0523969
0.051306
0.00408323
0.0759342
0.134551