/*--------------------------------*- C++ -*----------------------------------*\
| =========                 |                                                 |
| \\      /  F ield         | OpenFOAM: The Open Source CFD Toolbox           |
|  \\    /   O peration     | Version:  v2012                                 |
|   \\  /    A nd           | Website:  www.openfoam.com                      |
|    \\/     M anipulation  |                                                 |
\*---------------------------------------------------------------------------*/
FoamFile
{
    version     2.0;
    format      ascii;
    class       volVectorField;
    location    "850";
    object      cellDisplacement;
}
// * * * * * * * * * * * * * * * * * * * * * * * * * * * * * * * * * * * * * //

dimensions      [0 1 0 0 0 0 0];


internalField   nonuniform List<vector> 
13851
(
(0.0180988 0.0171056 0)
(0.0166292 -0.0337672 0)
(0.016528 -0.0324375 0)
(0.0208076 -0.122025 0)
(0.000578275 -0.00448843 0)
(0.0173122 -0.0512199 0)
(0.0142194 0.0495653 0)
(0.00129429 -0.00475027 0)
(0.017657 0.047768 0)
(0.00376901 -0.0970047 0)
(0.0193609 -0.0821674 0)
(0.0051617 -0.0567451 0)
(0.00602895 -0.115556 0)
(0.0178841 0.0353191 0)
(0.0173747 0.01183 0)
(0.0166746 0.0827842 0)
(0.0201051 -0.0843549 0)
(0.0135153 -0.044891 0)
(0.0189038 -0.022003 0)
(0.0181199 0.0156185 0)
(0.0178377 -0.00212641 0)
(0.0162977 -0.108998 0)
(0.0209891 -0.136396 0)
(0.000239126 -0.00204635 0)
(0.0196029 -0.0586928 0)
(0.0163556 0.0739182 0)
(0.0174801 0.0541869 0)
(0.0186065 -0.00444746 0)
(0.0171173 0.0767513 0)
(0.0102132 -0.0412773 0)
(0.0203593 -0.098314 0)
(0.014286 0.0471587 0)
(0.0179481 0.0242676 0)
(0.018146 0.0213805 0)
(0.0188861 -0.0786874 0)
(0.0170171 0.0821411 0)
(0.000209381 -0.00179826 0)
(0.0202103 -0.0929628 0)
(0.0195484 -0.0543199 0)
(0.0114797 -0.102071 0)
(0.0185339 0.00047629 0)
(0.0171187 0.0766207 0)
(0.0203749 -0.0988242 0)
(0.0205385 -0.136912 0)
(0.0172336 0.0704521 0)
(0.0109045 -0.0751947 0)
(0.00209999 0.00335494 0)
(0.017035 0.0676837 0)
(0.0158531 -0.0884349 0)
(0.0057773 -0.115553 0)
(0.019222 -0.0366293 0)
(0.00430993 -0.119661 0)
(0.0167004 0.0812911 0)
(0.0155643 0.0555297 0)
(0.017623 0.0495841 0)
(0.0114001 -0.103139 0)
(0.0179827 0.0229959 0)
(0.0185478 -0.00027105 0)
(0.0172002 0.0683723 0)
(0.0183327 0.0115394 0)
(0.00495586 -0.0548579 0)
(0.017483 0.0536264 0)
(0.00214986 -0.0784469 0)
(0.0159388 -0.0897551 0)
(0.019328 -0.143651 0)
(0.0193783 -0.144204 0)
(0.0183454 0.0109329 0)
(0.00928628 -0.145948 0)
(0.0131406 -0.0914534 0)
(0.020674 -0.115079 0)
(0.0202243 -0.0909524 0)
(0.0180548 -0.00338092 0)
(0.00843813 -0.10627 0)
(0.0183055 0.0128441 0)
(0.0161727 0.0439845 0)
(0.0148315 -0.110398 0)
(0.0201119 -0.0847181 0)
(0.00872603 -0.0192262 0)
(0.0195809 -0.0576549 0)
(0.00852927 -0.0797078 0)
(0.0133152 -0.0911128 0)
(0.0198346 -0.0751148 0)
(0.0188454 -0.0803887 0)
(0.0179397 0.0322916 0)
(0.0182929 0.0135527 0)
(0.0203108 -0.0956725 0)
(0.0164758 -0.108293 0)
(0.0171216 0.0764201 0)
(0.00499807 -0.0985038 0)
(0.0203812 -0.0994918 0)
(0.00408885 -0.120272 0)
(0.0144543 0.0457913 0)
(0.0194125 -0.0469232 0)
(0.0203304 -0.0966822 0)
(0.0192845 -0.0400464 0)
(0.0203439 -0.13652 0)
(0.0103917 -0.0842538 0)
(0.0168919 0.074464 0)
(0.0188789 -0.018171 0)
(0.0200951 -0.103802 0)
(0.0169445 0.0730451 0)
(0.0103111 -0.143437 0)
(0.0119921 -0.143513 0)
(0.00829716 -0.110982 0)
(0.0114136 -0.0703904 0)
(0.0183164 -0.0201712 0)
(0.0112494 -0.0706618 0)
(0.0202395 -0.0917932 0)
(0.0145207 0.0434025 0)
(0.0133594 -0.0445319 0)
(0.0167521 -0.121316 0)
(0.0110938 -0.0750875 0)
(0.0192811 -0.0465999 0)
(0.0190521 -0.0542074 0)
(0.0176857 0.0375825 0)
(0.0155367 0.0540145 0)
(0.00759753 -0.0354661 0)
(0.00157464 -0.00553607 0)
(0.0208219 -0.122722 0)
(0.0206812 -0.115562 0)
(0.0201924 -0.131767 0)
(0.0122872 -0.0427951 0)
(0.0126865 -0.0962963 0)
(0.0182303 0.0170514 0)
(0.0186518 -0.00889172 0)
(0.0119393 -0.146757 0)
(0.0103942 -0.0828932 0)
(0.0192604 -0.104231 0)
(0.0182741 0.0145947 0)
(0.0176989 0.0108807 0)
(0.0162045 -0.110793 0)
(0.01813 -0.0732002 0)
(0.0202009 -0.0929738 0)
(0.0181221 0.0226683 0)
(0.019388 -0.0804968 0)
(0.0193678 -0.0446118 0)
(0.0088593 -0.145746 0)
(0.0202906 -0.0945667 0)
(0.00913711 -0.141859 0)
(0.0175165 0.0177428 0)
(0.0198449 -0.0763305 0)
(0.00937774 -0.123307 0)
(0.0049553 -0.0998473 0)
(0.0163673 -0.145406 0)
(0.0193451 -0.044467 0)
(0.0139428 -0.115449 0)
(0.00846842 -0.0176635 0)
(0.0203525 -0.0978809 0)
(0.0173851 0.0626924 0)
(0.0193374 -0.104195 0)
(0.0169815 0.0713236 0)
(0.0192944 -0.0479519 0)
(0.0190838 -0.0538963 0)
(0.0188351 -0.0191112 0)
(0.00611999 -0.121449 0)
(0.00379129 -0.10996 0)
(0.00448757 -0.0468025 0)
(0.0195628 -0.0550668 0)
(0.0174805 0.0157908 0)
(0.0151127 0.0203185 0)
(0.000538915 -0.00465489 0)
(0.0170744 0.0790595 0)
(0.0182625 -0.0186766 0)
(0.0170726 0.0658857 0)
(0.0178662 0.0363687 0)
(0.0175644 0.0527603 0)
(0.0175814 0.0518213 0)
(0.0192383 -0.0375336 0)
(0.0166643 -0.120304 0)
(0.0188177 -0.0152406 0)
(0.0046189 -0.0526182 0)
(0.00738781 -0.0339291 0)
(0.0185976 -0.0274332 0)
(0.00050094 -0.00406496 0)
(0.019274 -0.0394803 0)
(0.0178354 0.0357463 0)
(0.0172603 0.0601836 0)
(0.00748209 -0.0329568 0)
(0.0160046 0.0484551 0)
(0.0172212 0.0614032 0)
(0.0186282 -0.00788411 0)
(0.0204842 -0.136071 0)
(0.0166899 -0.117759 0)
(0.0176319 0.0126032 0)
(0.0201343 -0.0858489 0)
(0.0173667 0.0636643 0)
(0.017911 0.0264833 0)
(0.00825977 -0.139225 0)
(0.00649484 -0.118995 0)
(0.0107741 -0.0562534 0)
(0.0193416 -0.0444793 0)
(0.0175287 0.0132703 0)
(0.0178879 0.0350474 0)
(0.017333 -0.0482986 0)
(0.0139348 -0.114134 0)
(0.0167966 0.0779464 0)
(0.0178791 0.0275201 0)
(0.0142034 -0.0146614 0)
(0.0145955 -0.0569452 0)
(0.0109871 -0.145707 0)
(0.0198965 -0.0796082 0)
(0.0190154 -0.0254733 0)
(0.0186292 -0.00467467 0)
(0.017298 0.0141436 0)
(0.0208201 -0.144404 0)
(0.0190083 -0.0250809 0)
(0.00469513 -0.132714 0)
(0.0171486 0.0323511 0)
(0.0177152 0.044622 0)
(0.0172032 -0.0622187 0)
(0.0165825 0.0859863 0)
(0.0125495 -0.0958846 0)
(0.019885 -0.0783199 0)
(0.00167016 -0.019631 0)
(0.0189025 -0.0745467 0)
(0.0153447 -0.11133 0)
(0.00568339 -0.114308 0)
(0.0182515 0.012158 0)
(0.0145956 -0.0368576 0)
(0.0170598 -0.148084 0)
(0.00728221 -0.031362 0)
(0.0181935 0.0118587 0)
(0.0179542 0.0315069 0)
(0.0193265 -0.0423508 0)
(0.00939452 -0.138347 0)
(0.0171309 0.0341891 0)
(0.000883635 -0.010217 0)
(0.0159023 -0.145307 0)
(0.00676543 -0.07447 0)
(0.018858 -0.0757975 0)
(0.020828 -0.123861 0)
(0.00853265 -0.138792 0)
(0.0171638 -0.0598098 0)
(0.00135332 -0.0729031 0)
(0.0186108 -0.00367164 0)
(0.0103215 -0.0399947 0)
(0.0209505 -0.136232 0)
(0.0186709 -0.00691965 0)
(0.0200464 -0.103449 0)
(0.000505555 -0.00439246 0)
(0.0205628 -0.117982 0)
(0.0182571 0.0155722 0)
(0.017214 0.0714402 0)
(0.0166034 0.084578 0)
(0.0177827 -0.0198762 0)
(0.0166786 -0.145924 0)
(0.0182449 0.0120902 0)
(0.0159472 0.0509603 0)
(0.0202876 -0.135721 0)
(0.0173667 -0.117445 0)
(0.017385 0.0628882 0)
(0.0186117 -0.0103553 0)
(0.00138998 -0.00685655 0)
(0.0169295 -0.0179383 0)
(0.0168561 0.0763487 0)
(0.0170568 0.0800436 0)
(0.0168497 0.0917484 0)
(0.0105927 -0.0552415 0)
(0.0114902 -0.146958 0)
(0.00529284 -0.0973754 0)
(0.0179416 0.0276653 0)
(0.0187113 -0.0123353 0)
(0.0169935 -0.0173215 0)
(0.0182316 -0.0155804 0)
(0.0186431 -0.011629 0)
(0.00886129 -0.0982462 0)
(0.0108319 -0.143598 0)
(0.0170876 0.0626556 0)
(0.0184722 0.00262543 0)
(0.0043819 -0.0747038 0)
(0.0054383 -0.114113 0)
(0.00912766 -0.138793 0)
(0.0177759 0.0412726 0)
(0.0207683 -0.119844 0)
(0.0178716 0.00160535 0)
(0.0124921 -0.0431861 0)
(0.018592 -0.00573159 0)
(0.0187737 -0.0157436 0)
(0.017743 0.0331055 0)
(0.0181768 -0.0138336 0)
(0.0177908 0.0404846 0)
(0.018707 -0.00885215 0)
(0.017291 -0.0296418 0)
(0.0171846 0.0125206 0)
(0.0203484 -0.100679 0)
(0.0116002 -0.0660501 0)
(0.00439912 -0.0444558 0)
(0.0177834 0.0316841 0)
(0.0192849 -0.0902541 0)
(0.0106516 -0.0388902 0)
(0.0016862 -0.0190384 0)
(0.00683019 -0.0762013 0)
(0.000801516 -0.00560956 0)
(0.0175664 -0.00781923 0)
(0.00457962 -0.0467524 0)
(0.0176765 0.0467079 0)
(0.0178715 -0.00143924 0)
(0.0115357 -0.0923812 0)
(0.0170321 0.0813765 0)
(0.0182176 0.0177531 0)
(0.00544481 -0.119559 0)
(0.0181683 0.0135535 0)
(0.0190502 -0.027343 0)
(0.00954533 -0.124043 0)
(0.00522173 -0.120275 0)
(0.0179447 -0.00305105 0)
(0.0180271 0.027691 0)
(0.0200142 -0.0798819 0)
(0.0185177 -0.018451 0)
(0.000740454 -0.00569333 0)
(0.0187947 -0.0140355 0)
(0.004828 -0.0546593 0)
(0.0186 -0.0206607 0)
(0.019067 -0.0281923 0)
(0.0184149 0.00568427 0)
(0.015032 0.0195027 0)
(0.0203579 -0.101729 0)
(0.0202108 -0.0946763 0)
(0.0201526 -0.0870548 0)
(0.0193519 -0.0515467 0)
(0.00859277 -0.14427 0)
(0.0193712 -0.0448028 0)
(0.0182488 0.0160214 0)
(0.0186328 -0.00592599 0)
(0.0147445 -0.0573054 0)
(0.0203157 -0.0957902 0)
(0.0171441 0.0754147 0)
(0.0170202 -0.147603 0)
(0.0172117 -0.14745 0)
(0.00498903 -0.13302 0)
(0.018613 -0.0250018 0)
(0.0135232 -0.134234 0)
(0.0171066 0.0773965 0)
(0.0112747 -0.144203 0)
(0.00224014 -0.0128818 0)
(0.00239919 0.00319154 0)
(0.0173812 -0.0929817 0)
(0.0201644 -0.0876754 0)
(0.0171021 -0.148042 0)
(0.0115338 -0.0643902 0)
(0.0193084 -0.0413532 0)
(0.0130329 -0.13548 0)
(0.0181769 -0.0751151 0)
(0.0150957 0.0225931 0)
(0.0180126 0.0284579 0)
(0.0185651 -0.00449284 0)
(0.0167655 0.0796413 0)
(0.0151231 -0.111616 0)
(0.017044 -0.059643 0)
(0.0168228 0.0925605 0)
(0.0067844 -0.119371 0)
(0.0188079 -0.0173937 0)
(0.0172147 -0.0277642 0)
(0.0179933 -0.00545144 0)
(0.0129712 -0.13617 0)
(0.0052455 -0.0987204 0)
(0.0115936 -0.0911126 0)
(0.0197148 -0.0746531 0)
(0.0201106 -0.102326 0)
(0.0185437 -0.00665127 0)
(0.0202221 -0.0946055 0)
(0.016842 0.0914805 0)
(0.014116 -0.115604 0)
(0.0186502 -0.00579956 0)
(0.0180199 0.024674 0)
(0.0110255 -0.0196563 0)
(0.0183945 0.00689204 0)
(0.0181385 0.00994744 0)
(0.018898 -0.0192028 0)
(0.0172692 -0.0923046 0)
(0.0160501 0.0843287 0)
(0.0171937 0.0681606 0)
(0.0199504 -0.0783347 0)
(0.0197424 -0.0780554 0)
(0.0171778 0.0734075 0)
(0.0154018 -0.070583 0)
(0.01786 0.0346611 0)
(0.0203863 -0.0997274 0)
(0.0178011 -0.0337503 0)
(0.0173828 0.0629693 0)
(0.0180082 -0.0362556 0)
(0.0187161 -0.00937787 0)
(0.0171639 0.0112416 0)
(0.0154844 0.0735371 0)
(0.0187033 -0.0153959 0)
(0.0201139 -0.0963238 0)
(0.00405981 -0.110121 0)
(0.0172643 -0.0370738 0)
(0.0193458 -0.0908968 0)
(0.01612 0.0465528 0)
(0.0109418 -0.0812379 0)
(0.0178567 0.00353652 0)
(0.0181469 0.0211326 0)
(0.0085063 -0.105368 0)
(0.0172356 0.0291656 0)
(0.020891 -0.126352 0)
(0.0166751 -0.0596238 0)
(0.0207748 -0.1311 0)
(0.0163359 0.0584481 0)
(0.0199957 -0.0789481 0)
(0.0173069 -0.0630304 0)
(0.0163164 0.0733714 0)
(0.0206904 -0.144464 0)
(0.0186897 -0.0109161 0)
(0.0183686 -0.0250752 0)
(0.0168628 0.0910347 0)
(0.0182689 0.0148446 0)
(0.0205468 -0.118791 0)
(0.00876041 -0.0991258 0)
(0.0196835 -0.0734382 0)
(0.018127 -0.0436005 0)
(0.0161156 0.0819152 0)
(0.012246 -0.0488566 0)
(0.0202718 -0.0932634 0)
(0.0183088 0.0124465 0)
(0.0197999 -0.0697321 0)
(0.0169909 -0.0572665 0)
(0.0186851 -0.0139303 0)
(0.0175994 0.0477103 0)
(0.020783 -0.120625 0)
(0.00879077 -0.00189963 0)
(0.0203117 -0.0955362 0)
(0.0200809 -0.0924702 0)
(0.0210588 -0.138898 0)
(0.0175297 -0.1171 0)
(0.0189326 -0.0220799 0)
(0.00592724 -0.108108 0)
(0.000441673 -0.00355363 0)
(0.0176059 0.0505166 0)
(0.0176583 0.0447353 0)
(0.00390696 -0.0988064 0)
(0.0166563 -0.0359165 0)
(0.0172936 0.0281936 0)
(0.00751442 -0.039758 0)
(0.0183099 0.0123203 0)
(0.018592 -0.0229034 0)
(0.0181515 0.00857164 0)
(0.0162543 0.0107229 0)
(0.0154077 -0.0684723 0)
(0.00312909 -0.119945 0)
(0.0199717 -0.0797617 0)
(0.0113102 -0.0927989 0)
(0.00292477 -0.119158 0)
(0.0170523 0.0787836 0)
(0.0181624 0.0202562 0)
(0.0160093 -0.111234 0)
(0.0172214 0.0660746 0)
(0.00195023 -0.0770832 0)
(0.0044764 -0.0443432 0)
(0.0167992 -0.0595801 0)
(0.0185758 -0.00801343 0)
(0.0160764 0.0645625 0)
(0.011098 -0.0835901 0)
(0.0158572 -0.0516984 0)
(0.0201405 -0.130891 0)
(0.016002 -0.0246063 0)
(0.0201128 -0.0854864 0)
(0.00500543 -0.0531446 0)
(0.0158915 0.0336102 0)
(0.0172588 0.0691037 0)
(0.0151041 -0.136559 0)
(0.00262033 -0.000905479 0)
(0.00423651 -0.0519392 0)
(0.0162635 0.00836432 0)
(0.0144411 -0.0105678 0)
(0.0206165 -0.124386 0)
(0.0170289 0.0804046 0)
(0.0177914 -0.0178444 0)
(0.0206144 -0.147792 0)
(0.0168613 -0.0571715 0)
(0.00566839 -0.0704007 0)
(0.0180806 0.0249219 0)
(0.0172265 0.0663903 0)
(0.0119088 -0.140528 0)
(0.00927716 -0.106688 0)
(0.0182263 0.0172498 0)
(0.00964964 -0.141443 0)
(0.0209144 -0.13927 0)
(0.00809457 -0.11117 0)
(0.0181515 -0.0683046 0)
(0.0197433 -0.076809 0)
(0.0165832 0.0367659 0)
(0.0182499 0.0159399 0)
(0.0175794 0.0489497 0)
(0.0198152 -0.0708233 0)
(0.0119561 -0.125999 0)
(0.0193355 -0.0500156 0)
(0.00923344 -0.0980488 0)
(0.0170982 0.0778037 0)
(0.0163764 0.0563725 0)
(0.0178471 0.0291964 0)
(0.0180691 -0.0416746 0)
(0.0150378 -0.110343 0)
(0.0151624 -0.135896 0)
(0.0185783 -0.0251562 0)
(0.000647149 -0.00507828 0)
(0.0206315 -0.112718 0)
(0.0180961 0.0241092 0)
(0.0201318 -0.0866141 0)
(0.0210785 -0.137002 0)
(0.0170532 0.0790364 0)
(0.0197848 -0.0668947 0)
(0.0187494 -0.0141876 0)
(0.00999125 -0.137342 0)
(0.0019591 -0.0362766 0)
(0.0208212 -0.131438 0)
(0.00353303 -0.0965692 0)
(0.0107902 -0.0804004 0)
(0.0109822 -0.138164 0)
(0.0192346 -0.0373295 0)
(0.0163308 -0.0220534 0)
(0.00851712 -0.124385 0)
(0.0194625 -0.130199 0)
(0.0186794 -0.0449737 0)
(0.00213857 -0.0993537 0)
(0.0195321 -0.0540135 0)
(0.0100447 -0.0845487 0)
(0.0182096 0.0180417 0)
(0.0205832 -0.123419 0)
(0.00873282 -0.0803899 0)
(0.0157135 -0.00419437 0)
(0.0199892 -0.0859067 0)
(0.0184488 0.00396992 0)
(0.0105743 -0.0406148 0)
(0.0201308 -0.0877743 0)
(0.0208437 -0.13057 0)
(0.0111854 0.00563254 0)
(0.0198838 -0.0723842 0)
(0.0188728 -0.0205179 0)
(0.0182637 0.00818633 0)
(0.0117008 -0.126173 0)
(0.0170816 0.0771697 0)
(0.0185507 -0.000466744 0)
(0.011369 0.00504696 0)
(0.0193024 -0.0445187 0)
(0.0128902 -0.0938333 0)
(0.0102242 -0.0850239 0)
(0.016786 0.091472 0)
(0.0187376 -0.0105434 0)
(0.0183783 -0.0426906 0)
(0.0159856 0.0658167 0)
(0.00314998 -0.0973601 0)
(0.0166334 0.0596895 0)
(0.0182532 0.0157056 0)
(0.0194776 -0.0505304 0)
(0.0124055 -0.00493819 0)
(0.019982 -0.0776411 0)
(0.0109457 -0.0829545 0)
(0.0130723 -0.0933241 0)
(0.0183657 -0.0231163 0)
(0.015433 0.0456587 0)
(0.0088041 -2.3656e-05 0)
(0.0146737 -0.111505 0)
(0.0198437 -0.0702128 0)
(0.0200868 -0.0958395 0)
(0.019865 -0.0713487 0)
(0.0162283 -0.0231296 0)
(0.00551699 -0.0975657 0)
(0.0177326 0.0436054 0)
(0.00259644 -0.0459017 0)
(0.0196329 -0.0698159 0)
(0.0163233 0.02008 0)
(0.0163384 0.0393027 0)
(0.0178619 -0.0252911 0)
(0.0171942 0.0723189 0)
(0.0187245 -0.00979062 0)
(0.0172524 -0.0430585 0)
(0.0203886 -0.0997976 0)
(0.015022 0.014939 0)
(0.0188064 -0.0364659 0)
(0.0171418 0.0753592 0)
(0.0176237 0.0495544 0)
(0.0122558 -0.099493 0)
(0.00910652 -0.0988164 0)
(0.0125671 -0.143315 0)
(0.0198273 -0.0693017 0)
(0.0169282 0.0789558 0)
(0.0165652 0.0609267 0)
(0.0209388 -0.138275 0)
(0.0153973 0.0477528 0)
(0.0170665 0.0133362 0)
(0.0208135 -0.123499 0)
(0.0195897 -0.0571076 0)
(0.0199342 -0.132498 0)
(0.0181888 0.0191693 0)
(0.0176538 0.0423545 0)
(0.0169323 0.0865787 0)
(0.0150368 -0.0721397 0)
(0.0171744 0.0698371 0)
(0.0189355 -0.0224363 0)
(0.00508468 -0.0667057 0)
(0.0194211 -0.0478279 0)
(0.0192139 -0.0364529 0)
(0.016787 -0.118814 0)
(0.0175865 0.015701 0)
(0.0107189 -0.104115 0)
(0.0204164 -0.147752 0)
(0.019604 -0.110317 0)
(0.0208261 -0.1263 0)
(0.0112821 -0.0940742 0)
(0.000579048 -0.00477807 0)
(0.00716818 -0.13709 0)
(0.0186787 -0.0469739 0)
(0.00490031 -0.0512188 0)
(0.0192473 -0.0380143 0)
(0.000700302 -0.00575189 0)
(0.0176702 0.041151 0)
(0.0112833 -0.127466 0)
(0.0161945 0.0808416 0)
(0.00835467 -0.110023 0)
(0.00218399 -0.100872 0)
(0.0187693 -0.113248 0)
(0.0199645 -0.076653 0)
(0.0184433 -0.0298882 0)
(0.0193477 -0.043508 0)
(0.0181862 -0.0705132 0)
(0.00793088 -0.0429605 0)
(0.011993 -0.0254211 0)
(0.0186512 -0.0295762 0)
(0.015804 -0.0539214 0)
(0.0192 -0.0487403 0)
(0.0166139 -0.0251868 0)
(0.0114775 -0.140454 0)
(0.0171357 0.0714053 0)
(0.0024502 -0.0465932 0)
(0.0167412 0.0973316 0)
(0.00120023 -0.0138408 0)
(0.0162955 0.0861861 0)
(0.0204123 -0.100998 0)
(0.0174383 0.0595545 0)
(0.00471341 -0.139585 0)
(0.0208238 -0.127231 0)
(0.0193548 -0.131127 0)
(0.0202722 -0.111483 0)
(0.0191928 -0.0352843 0)
(0.0129232 -0.00739679 0)
(0.019547 -0.0547271 0)
(0.013454 -0.134995 0)
(0.017873 -0.0337448 0)
(0.021061 -0.136107 0)
(0.0193645 -0.0461006 0)
(0.0112134 -0.0210896 0)
(0.0192017 -0.0499717 0)
(0.0140724 -0.0125642 0)
(0.0169304 0.0867925 0)
(0.0193869 -0.045863 0)
(0.0136791 -0.0904532 0)
(0.0102039 -0.145936 0)
(0.0184357 0.00552073 0)
(0.000907748 -0.0133819 0)
(0.00123101 -0.0180364 0)
(0.0163188 0.0758021 0)
(0.0167585 0.0964374 0)
(0.0171089 0.0753033 0)
(0.00498227 -0.120053 0)
(0.0187707 -0.0191345 0)
(0.0158895 -0.0251724 0)
(0.00245965 -0.103258 0)
(0.0170779 0.0744033 0)
(0.0187496 -0.017569 0)
(0.0200399 -0.099893 0)
(0.0079777 -0.00124759 0)
(0.0171273 0.0608652 0)
(0.0159041 -0.139884 0)
(0.016187 0.0740866 0)
(0.00494976 -0.127539 0)
(0.0137163 -0.114058 0)
(0.0195335 -0.111314 0)
(0.00737186 -0.136632 0)
(0.0170607 0.0652255 0)
(0.0179894 -0.00117286 0)
(0.0180844 -0.00589096 0)
(0.0197871 -0.132744 0)
(0.0208465 -0.139608 0)
(0.018931 -0.0236464 0)
(0.0177396 0.0429263 0)
(0.0201064 -0.0866584 0)
(0.0169855 0.070451 0)
(0.0179054 0.0341882 0)
(0.0175442 -0.127583 0)
(0.0168124 0.0905128 0)
(0.0182365 0.00999666 0)
(0.0131607 -0.0508119 0)
(0.0170322 0.0124598 0)
(0.0189308 -0.0240491 0)
(0.0169906 -0.100602 0)
(0.00840913 -0.0779707 0)
(0.00833548 -0.0749925 0)
(0.0164189 0.0826371 0)
(0.0171578 0.0743856 0)
(0.0160022 0.032153 0)
(0.0186894 -0.00790944 0)
(0.00806467 -0.0447227 0)
(0.0171357 0.0741411 0)
(0.0195302 -0.138657 0)
(0.0190897 -0.0293461 0)
(0.0192417 -0.0526652 0)
(0.017384 -0.0617165 0)
(0.0165196 -0.0293056 0)
(0.0191058 -0.0301944 0)
(0.020022 -0.098138 0)
(0.0174415 -0.126816 0)
(0.0176345 0.0461335 0)
(0.015255 -0.0669594 0)
(0.0207679 -0.128495 0)
(0.0163815 0.0844058 0)
(0.0177164 0.0388819 0)
(0.0181443 -0.0533888 0)
(0.0200736 -0.0890059 0)
(0.00608634 -0.107424 0)
(0.00135934 -0.0160048 0)
(0.00475873 -0.131982 0)
(0.00268015 -0.104472 0)
(0.0171855 0.0730491 0)
(0.000920426 -0.00653713 0)
(0.0170504 0.0753353 0)
(0.0177495 0.0427145 0)
(0.0192768 -0.0538703 0)
(0.0194359 -0.0483054 0)
(0.0188627 -0.0172407 0)
(0.017742 0.0380134 0)
(0.0202903 -0.110266 0)
(0.00539499 -0.139399 0)
(0.000868102 -0.0507324 0)
(0.00536953 -0.112797 0)
(0.00846533 -0.02164 0)
(0.0118611 -0.0264003 0)
(0.000672414 -0.00547118 0)
(0.0187403 -0.0318007 0)
(0.0192132 -0.0431677 0)
(0.0161552 -0.140226 0)
(0.018581 -0.00318191 0)
(0.0146263 -0.10498 0)
(0.0176943 0.0457538 0)
(0.000138444 -0.00371416 0)
(0.0208101 -0.122267 0)
(0.0187511 -0.084377 0)
(0.000282209 -0.00782065 0)
(0.00139093 -0.0678394 0)
(0.0174823 0.0571898 0)
(0.0173814 -0.0534909 0)
(0.017476 0.0563216 0)
(0.0191673 -0.0339362 0)
(0.0174732 0.0177869 0)
(0.0181039 0.00477754 0)
(0.0109445 0.00908991 0)
(0.018167 0.0202852 0)
(0.0131555 -0.124649 0)
(0.016424 -0.0241777 0)
(0.0171161 0.0726313 0)
(0.0010826 -0.0506112 0)
(0.00905872 -0.123475 0)
(0.0129298 -0.0239218 0)
(0.0165331 0.051945 0)
(0.0172945 0.0675241 0)
(0.0179198 -0.0700525 0)
(0.0181179 -0.0482786 0)
(0.0201131 -0.0938692 0)
(0.0194939 -0.0513922 0)
(0.00767401 -0.139394 0)
(0.0144721 -0.126767 0)
(0.01705 0.0802496 0)
(0.00818567 -0.0207983 0)
(0.017024 0.0816883 0)
(0.00124495 -0.0108759 0)
(0.0160118 -0.0215963 0)
(0.0195267 -0.0547009 0)
(0.0173305 0.0448449 0)
(0.0177154 0.0357285 0)
(0.0195777 -0.0790854 0)
(0.0184359 -0.0278142 0)
(0.000945527 -0.0327184 0)
(0.00014374 -0.00344002 0)
(0.0188393 -0.0365405 0)
(0.0151513 -0.0707446 0)
(0.000808542 -0.0286186 0)
(0.0157732 0.0413089 0)
(0.0202224 -0.102496 0)
(0.00475374 -0.035505 0)
(0.0202762 -0.114528 0)
(0.0207507 -0.129822 0)
(0.0173682 0.061727 0)
(0.0195444 -0.077328 0)
(0.0205145 -0.106744 0)
(0.00921269 -0.142299 0)
(0.00103342 -0.0528366 0)
(0.0197863 -0.0817079 0)
(0.00807719 -0.0469983 0)
(0.0172517 -0.0340671 0)
(0.0177238 0.0437128 0)
(0.0167968 0.0938467 0)
(0.0195702 -0.0559758 0)
(0.0170514 0.0800699 0)
(0.0140132 -0.0876919 0)
(0.0136073 -0.0893551 0)
(0.0184146 -0.137232 0)
(0.0133169 -0.114905 0)
(0.0116585 -0.0581947 0)
(0.0210076 -0.137498 0)
(0.0179147 0.0293335 0)
(0.0174574 0.0587607 0)
(0.0162697 0.08778 0)
(0.0173743 0.0438912 0)
(0.00313871 -0.106917 0)
(0.0103074 -0.0431381 0)
(0.020599 -0.11729 0)
(0.0182064 0.00580747 0)
(0.0161326 -0.0210063 0)
(0.000408427 -0.0217173 0)
(0.0176442 0.0392475 0)
(0.0194665 -0.0570862 0)
(0.0187103 -0.00904469 0)
(0.00581778 -0.121065 0)
(0.00284864 -0.0265907 0)
(0.0173106 0.0666961 0)
(0.00470021 -0.127062 0)
(0.017942 -0.0309384 0)
(0.00721333 -0.0382109 0)
(0.0191936 -0.035097 0)
(0.000961111 -0.00479426 0)
(0.0203724 -0.0988828 0)
(0.00329676 -0.0841778 0)
(0.0200237 -0.105037 0)
(0.0178415 -0.00788114 0)
(0.0181694 -0.138696 0)
(0.0181716 -0.0512557 0)
(0.00821039 -0.106394 0)
(0.0166919 -0.0402043 0)
(0.0036206 -0.0281032 0)
(0.0169808 0.0783925 0)
(0.00621538 -0.126558 0)
(0.0168545 0.0914121 0)
(0.01542 -0.0639707 0)
(0.0180232 0.0271885 0)
(0.0179962 0.0294007 0)
(0.0180831 -0.0581551 0)
(0.00287056 -0.0209646 0)
(0.0209312 -0.128527 0)
(0.0171062 0.0763585 0)
(0.0173422 -0.0424099 0)
(0.0172624 0.0475886 0)
(0.00513415 -0.112512 0)
(0.0169546 0.0856884 0)
(0.0133184 -0.0511905 0)
(0.018959 -0.0256855 0)
(0.00524943 -0.0726054 0)
(0.00378992 -0.0290856 0)
(0.017462 0.0568801 0)
(0.01786 -0.022896 0)
(0.00446261 -0.054319 0)
(0.0156612 0.0546661 0)
(0.0184613 0.00444464 0)
(0.0206832 -0.146688 0)
(0.0184565 0.0044379 0)
(0.010444 -0.0561429 0)
(0.0178883 0.0351548 0)
(0.00454881 -0.0771422 0)
(0.00452311 -0.0338689 0)
(0.00634732 -0.120782 0)
(0.00285486 0.00370053 0)
(0.00159484 -0.0258955 0)
(0.0186408 -0.005516 0)
(0.0178362 0.0377085 0)
(0.0146978 -0.0387764 0)
(0.000879394 -0.00723961 0)
(0.0183768 -0.0400411 0)
(0.0111302 -0.0737898 0)
(0.0209243 -0.128338 0)
(0.0197841 -0.0802545 0)
(0.0179022 0.0343319 0)
(0.0193947 -0.0460838 0)
(0.0166979 -0.0425144 0)
(0.0170982 0.0634052 0)
(0.00529593 -0.0686717 0)
(0.0178728 -0.00503067 0)
(0.0193579 -0.138454 0)
(0.0127538 -0.00579472 0)
(0.00122632 -0.0108028 0)
(0.0205247 -0.115222 0)
(0.0193732 -0.0449611 0)
(0.0180576 0.00624484 0)
(0.0201121 -0.0848106 0)
(0.0175558 0.0279177 0)
(0.00225053 -0.0769726 0)
(0.0185482 -0.0505903 0)
(0.0172461 0.0491019 0)
(0.0198415 -0.0700842 0)
(0.0175123 -0.00840676 0)
(0.017389 0.0599542 0)
(0.0182422 0.00468867 0)
(0.00187452 -0.0208517 0)
(0.02078 -0.122805 0)
(0.0207733 -0.121974 0)
(0.0172589 0.069333 0)
(0.0193678 -0.0460311 0)
(0.0167285 0.0940738 0)
(0.0121706 -0.125159 0)
(0.0171438 -0.145713 0)
(0.00255546 -0.119439 0)
(0.0181161 0.021443 0)
(0.0168941 -0.099476 0)
(0.00183909 -0.0106296 0)
(0.0185258 0.000717931 0)
(0.0143201 -0.106441 0)
(0.00264262 -0.0192927 0)
(0.0123955 -0.098428 0)
(0.01415 -0.106348 0)
(0.0192085 -0.0358966 0)
(0.0188686 -0.0207198 0)
(0.009208 -0.0604388 0)
(0.0185585 -0.0482895 0)
(0.0179791 0.030207 0)
(0.0153312 -0.0933307 0)
(0.0201501 -0.0867796 0)
(0.00830277 -0.128794 0)
(0.0175341 0.0352333 0)
(0.0188219 -0.0150804 0)
(0.0046336 -0.0489103 0)
(0.0169358 0.0793508 0)
(0.017459 -0.102428 0)
(0.0181659 -0.0585139 0)
(0.0207466 -0.147079 0)
(0.0144724 -0.104885 0)
(0.0197735 -0.0718799 0)
(0.0162197 0.0749818 0)
(0.0184668 0.00412756 0)
(0.013883 0.0046433 0)
(0.0170105 0.0827341 0)
(0.0177927 -0.0365464 0)
(0.0181912 0.0192035 0)
(0.0196029 -0.0571167 0)
(0.0170094 0.0827989 0)
(0.0173621 0.0227873 0)
(0.0075953 -0.108633 0)
(0.014014 -0.0894456 0)
(0.000881803 -0.0138793 0)
(0.0154386 0.0726053 0)
(0.00214935 -0.0693496 0)
(0.0182734 0.0146596 0)
(0.0164845 -0.118149 0)
(0.0109982 -0.136058 0)
(0.00733001 -0.139162 0)
(0.0121711 -0.12435 0)
(0.0102654 -0.0550923 0)
(0.0147718 0.0551838 0)
(0.0171892 -0.097386 0)
(0.0157445 -0.00690222 0)
(0.0165902 -0.10925 0)
(0.0190908 -0.0296982 0)
(0.0169098 0.0814569 0)
(0.0175891 -0.0256774 0)
(0.019017 -0.106922 0)
(0.0185453 -0.000370954 0)
(0.00885785 -0.12439 0)
(0.0201267 -0.0856107 0)
(0.00792254 -0.0214464 0)
(0.0170394 -0.121961 0)
(0.00595458 -0.127099 0)
(0.0126497 -0.0744527 0)
(0.018542 -0.116817 0)
(0.00573793 -0.0722473 0)
(0.00918155 -0.0590211 0)
(0.00939382 -0.144086 0)
(0.00365351 -0.11095 0)
(0.0201939 -0.101328 0)
(0.0156591 -0.0543221 0)
(0.0194598 -0.0497153 0)
(0.0185554 -0.00212844 0)
(0.0184364 0.0019803 0)
(0.0193001 -0.044861 0)
(0.014191 -0.0356217 0)
(0.0194536 -0.0492552 0)
(0.0183529 0.00482448 0)
(0.00181912 -0.0209617 0)
(0.0171317 -0.0996551 0)
(0.00840049 -0.123562 0)
(0.0201124 -0.0848604 0)
(0.00757651 -0.129479 0)
(0.0115039 -0.143303 0)
(0.0183617 0.00864328 0)
(0.0208743 -0.125482 0)
(0.0196539 -0.104857 0)
(0.0143062 -0.0633478 0)
(0.017217 0.0711819 0)
(0.0183414 0.00960224 0)
(0.0167577 0.093049 0)
(0.0173737 -0.103772 0)
(0.00808381 -0.0425968 0)
(0.0122181 -0.000747679 0)
(0.0184743 -0.016337 0)
(0.00680866 -0.108419 0)
(0.0185329 0.000453117 0)
(0.0196659 -0.0712754 0)
(0.00218682 -0.0402944 0)
(0.0180537 0.0227747 0)
(0.0201638 -0.098374 0)
(0.0127847 -0.0241025 0)
(0.0190721 -0.0287175 0)
(0.0203519 -0.0977411 0)
(0.017875 0.0310715 0)
(0.0155228 -0.0651059 0)
(0.01717 0.073649 0)
(0.0186899 -0.0295789 0)
(0.00581598 -0.0519125 0)
(0.0174574 0.0587619 0)
(0.0144987 -0.125845 0)
(0.0126109 -0.0327671 0)
(0.00946134 -0.0862749 0)
(0.0161146 0.0432168 0)
(0.0156418 0.0688131 0)
(0.0177192 0.0443863 0)
(0.020394 -0.100246 0)
(0.0165169 0.0479867 0)
(0.0176221 0.0496152 0)
(0.0166003 0.0328168 0)
(0.00621322 -0.102813 0)
(0.0106978 -0.146333 0)
(0.00812737 -0.0744363 0)
(0.0204404 -0.108107 0)
(0.0125876 -0.00681162 0)
(0.00353637 -0.0282349 0)
(0.0143155 -0.116615 0)
(0.0151233 -0.0681787 0)
(0.0178629 0.0365667 0)
(0.0169712 0.0848053 0)
(0.0173492 0.0589941 0)
(0.0187633 -0.0118192 0)
(0.0197062 -0.0631764 0)
(0.0102264 -0.137812 0)
(0.00911632 -0.105831 0)
(0.015616 -0.0565134 0)
(0.0198022 -0.0731299 0)
(0.0123983 -0.00230558 0)
(0.00126428 -0.00228555 0)
(0.0188273 -0.0849638 0)
(0.0195504 -0.0558412 0)
(0.0165876 0.0942577 0)
(0.00220241 -0.000401407 0)
(0.0184206 -0.104263 0)
(0.0181492 -0.0465296 0)
(0.0184042 0.000762475 0)
(0.0203522 -0.097794 0)
(0.0111256 0.00822408 0)
(0.00855338 0.00159145 0)
(0.0150942 0.0162977 0)
(0.0198669 -0.0737876 0)
(0.015647 0.0433634 0)
(0.0182967 0.0133676 0)
(0.0135198 -0.115164 0)
(0.00262192 -0.0246429 0)
(0.0126699 -0.0309422 0)
(0.00976334 -0.0855188 0)
(0.015449 -0.109793 0)
(0.017805 0.0346034 0)
(0.0169102 0.0876824 0)
(0.0174967 0.0564316 0)
(0.00577488 -0.139698 0)
(0.00558971 -0.0725126 0)
(0.0207371 -0.127285 0)
(0.0144364 -0.00809078 0)
(0.0189565 -0.0232719 0)
(0.0185522 -0.000527235 0)
(0.010715 -0.138708 0)
(0.0199992 -0.0785677 0)
(0.0171625 0.074295 0)
(0.0205125 -0.106508 0)
(0.0164061 0.0637158 0)
(0.0174296 -0.00585976 0)
(0.017893 0.0349147 0)
(0.0176632 -0.025549 0)
(0.0156454 -0.132967 0)
(0.018603 -0.136827 0)
(0.0203008 -0.113238 0)
(0.014964 -0.0760508 0)
(0.020835 -0.146151 0)
(0.00615535 -0.104019 0)
(0.0176261 0.0488871 0)
(0.0198485 -0.0725234 0)
(0.00796112 -0.0228849 0)
(0.0115604 -0.127187 0)
(0.0186654 -0.116458 0)
(0.0199771 -0.0843937 0)
(0.0176678 -0.0130701 0)
(0.00254607 -0.0224963 0)
(0.0164237 0.0186024 0)
(0.0051872 -0.130802 0)
(0.0160488 0.0148866 0)
(0.0203651 -0.145137 0)
(0.00216965 -0.0551764 0)
(0.0171302 0.0752446 0)
(0.0172547 0.0695493 0)
(0.0063326 -0.10514 0)
(0.017371 -0.00638457 0)
(0.015719 0.0663549 0)
(0.0050193 -0.0646572 0)
(0.0167797 0.0948291 0)
(0.0171553 0.0744327 0)
(0.0194127 -0.0470551 0)
(0.0168772 0.0900402 0)
(0.00609834 -0.0698479 0)
(0.0159155 -0.104229 0)
(0.0171763 -0.0890212 0)
(0.00716599 -0.120658 0)
(0.0172491 0.0639181 0)
(0.0176401 -0.00995797 0)
(0.000490085 -0.0208589 0)
(0.0171012 0.0458422 0)
(0.00717916 -0.136139 0)
(0.0179909 0.029094 0)
(0.0178182 -0.00527028 0)
(0.0179916 0.0295454 0)
(0.00480438 -0.130451 0)
(0.015214 -0.0977465 0)
(0.0118895 -0.143966 0)
(0.0183888 -0.00367435 0)
(0.0185538 -0.0187058 0)
(0.00838243 -0.0981628 0)
(0.0171216 0.0763199 0)
(0.0183252 0.0119057 0)
(0.0210413 -0.139736 0)
(0.0197943 -0.067429 0)
(0.0176476 0.0478067 0)
(0.0176035 0.0506405 0)
(0.0181708 0.0202846 0)
(0.00800545 -0.097821 0)
(0.00556293 -0.0962943 0)
(0.013772 -0.0255346 0)
(0.0169639 0.077065 0)
(0.016161 0.0617355 0)
(0.0186207 -0.0226938 0)
(0.0205304 -0.107177 0)
(0.0137795 0.00357358 0)
(0.00532458 -0.0128407 0)
(0.00339078 -0.0980119 0)
(0.0165512 0.0927534 0)
(0.00853632 -0.0158807 0)
(0.0168127 -0.00757606 0)
(0.0143178 -0.114702 0)
(0.0172049 0.0707416 0)
(0.00998712 -0.124999 0)
(0.00799748 -0.0475501 0)
(0.00440135 -0.0729704 0)
(0.0106075 -0.0957038 0)
(0.000940442 -0.00780088 0)
(0.0141404 -0.137359 0)
(0.0172814 0.062133 0)
(0.0157354 -0.132145 0)
(0.0183386 0.0106602 0)
(0.00527304 -0.0916992 0)
(0.00994226 -0.0859472 0)
(0.0182304 0.0169451 0)
(0.0180011 0.0291266 0)
(0.0171958 0.072497 0)
(0.0172168 0.0696499 0)
(0.0142825 -0.142414 0)
(0.0170811 0.0768523 0)
(0.00769503 -0.0397855 0)
(0.0188607 -0.128428 0)
(0.015129 -0.099265 0)
(0.00334389 -0.0824036 0)
(0.0152324 0.0237812 0)
(0.0203367 -0.0969339 0)
(0.0156647 -0.0234325 0)
(0.0183616 -0.00170003 0)
(0.0204573 -0.108139 0)
(0.0143304 -0.0139849 0)
(0.0125174 -0.0735872 0)
(0.00816539 -0.136286 0)
(0.0177828 0.036032 0)
(0.000702207 -0.00768629 0)
(0.0171825 0.0718778 0)
(0.0136531 -0.0237458 0)
(0.0169552 0.0766546 0)
(0.00157685 -0.0694087 0)
(0.0146675 -0.0416492 0)
(0.017349 -0.0393597 0)
(0.0178335 -0.143114 0)
(0.0061876 -0.116355 0)
(0.0175095 0.0529269 0)
(0.0202577 -0.0927783 0)
(0.0165329 0.0923216 0)
(0.0180771 0.0250571 0)
(0.00567661 -0.107762 0)