/*--------------------------------*- C++ -*----------------------------------*\
| =========                 |                                                 |
| \\      /  F ield         | OpenFOAM: The Open Source CFD Toolbox           |
|  \\    /   O peration     | Version:  v2012                                 |
|   \\  /    A nd           | Website:  www.openfoam.com                      |
|    \\/     M anipulation  |                                                 |
\*---------------------------------------------------------------------------*/
FoamFile
{
    version     2.0;
    format      ascii;
    class       surfaceVectorField;
    location    "100";
    object      ddtCorrDdt0(Uf);
}
// * * * * * * * * * * * * * * * * * * * * * * * * * * * * * * * * * * * * * //

dimensions      [0 1 -2 0 0 0 0];


internalField   nonuniform List<vector> 
20537
(
(0.000346877 -0.000482079 -5.8867e-20)
(0.000352529 -0.000553968 1.23722e-18)
(0.000439209 -0.000509938 8.52149e-19)
(0.0248921 0.00709331 -3.03324e-18)
(0.0353763 0.00242799 1.16373e-18)
(0.0397929 -0.00428943 -3.64594e-18)
(-0.00015707 -0.00395797 6.35811e-20)
(-0.000401997 -0.00396251 1.77111e-18)
(-0.00028393 -0.00420266 -5.7006e-19)
(0.000207886 -0.000589008 1.15953e-19)
(0.000290019 -0.000592928 3.38467e-19)
(0.000222763 -0.000655869 -3.38956e-19)
(0.00110332 -0.00302461 -3.46854e-18)
(0.00107913 -0.0030585 -3.76524e-18)
(0.001064 -0.00301678 5.6664e-18)
(-0.0145326 -0.0178478 -1.87991e-19)
(-0.00928616 -0.0173926 -7.73736e-19)
(-0.0104996 -0.0138337 5.71785e-20)
(0.000513801 -0.000286566 8.64182e-19)
(0.000525207 -0.0002996 -8.63807e-19)
(0.00053049 -0.000284917 -5.35375e-18)
(-0.000156915 -0.00237732 3.43618e-18)
(-5.84037e-05 -0.00231294 9.89245e-19)
(-5.56201e-05 -0.00246348 1.1579e-18)
(-0.000576232 -0.000271874 4.17226e-20)
(-0.00057645 -0.000289871 1.1791e-19)
(-0.000593225 -0.000287687 -8.81517e-20)
(-0.00527749 -0.00250745 1.67317e-18)
(-0.00494532 -0.00190225 4.95169e-19)
(-0.00448011 -0.00254112 1.00382e-18)
(-0.015438 0.12218 -4.9892e-18)
(-0.0168717 0.134223 -6.55083e-20)
(-0.0150368 0.141215 -2.16206e-18)
(-0.00538431 -0.0278666 3.15484e-18)
(-9.22511e-05 -0.0304572 1.88401e-18)
(0.0010021 -0.0324714 -9.86854e-19)
(-0.00734057 -0.0023964 -2.74744e-18)
(-0.00382938 -0.00288751 -7.08124e-18)
(-0.00704405 -0.00289694 -1.56589e-19)
(0.0034456 0.0196354 4.18198e-18)
(0.00262689 0.0178023 4.32609e-19)
(0.00196546 0.0196789 -8.67784e-18)
(0.000189134 -4.43028e-05 1.8417e-20)
(0.000197162 -4.07018e-05 -6.31066e-19)
(0.000196489 -5.15577e-05 1.33482e-18)
(-3.07888e-05 -0.000788508 -1.26124e-18)
(-6.78083e-05 -0.000853627 5.64754e-18)
(-0.000111047 -0.00077527 4.48005e-19)
(0.000468238 -0.00109917 -6.01628e-19)
(0.00045231 -0.00106115 4.01851e-18)
(0.000491305 -0.00107502 -3.50394e-19)
(-0.000808166 -0.000529605 4.86026e-19)
(-0.000681348 -0.000633588 9.80207e-20)
(-0.000838946 -0.000702063 1.86773e-19)
(0.00132127 -0.0019561 1.20441e-18)
(0.00144888 -0.00162642 2.85862e-18)
(0.000667061 -0.00193422 1.42294e-18)
(-0.0005764 -0.000254878 -1.29544e-19)
(-0.000560308 -0.000255327 6.7578e-20)
(0.000137742 -0.000585511 1.22365e-19)
(0.000185912 -0.000542641 -1.7503e-19)
(4.32614e-06 -0.00374385 -1.69276e-18)
(0.000126017 -0.00394895 4.88241e-19)
(-0.0011459 1.12513e-05 -2.11331e-20)
(-0.00122068 3.61804e-06 -1.00887e-19)
(-0.00130062 -5.37879e-06 9.437e-20)
(-0.00063136 -1.79091e-05 7.38585e-20)
(-0.000539201 -8.28223e-06 4.46712e-19)
(-0.000656874 -1.9276e-05 1.7828e-19)
(-0.0010599 -2.13495e-06 -1.233e-19)
(-0.000892485 1.40575e-05 4.39232e-20)
(-0.000274802 -0.00230418 -8.95926e-19)
(-0.000268617 -0.00246647 -3.01847e-18)
(0.000967267 -0.00111701 3.98588e-18)
(0.000962779 -0.00108022 -1.77574e-18)
(0.000930597 -0.00109487 3.48781e-18)
(0.000195384 -0.00443395 1.61267e-18)
(0.000557089 -0.00452618 -3.08253e-18)
(0.000285672 -0.00045939 -1.68466e-18)
(0.000351192 -0.000411662 -9.34874e-19)
(3.85294e-05 -0.000734673 1.01778e-18)
(6.14303e-05 -0.000760316 4.64392e-19)
(2.90383e-05 -0.000756253 -4.21266e-18)
(-0.0206842 -0.0167078 2.65487e-19)
(-0.0194896 -0.0221138 -1.75712e-19)
(0.000439637 -0.00111699 -2.46208e-18)
(0.0004811 -0.00114087 -1.63853e-18)
(-0.000524593 -0.00373381 1.81597e-18)
(-0.000698385 -0.00397405 -1.61096e-18)
(0.0268709 -0.153875 5.57957e-18)
(0.0275713 -0.134415 -6.5364e-18)
(0.0239568 -0.147462 -3.01518e-18)
(-0.000615497 -1.67088e-05 -3.54464e-19)
(-0.000658941 -2.84381e-05 -1.90359e-20)
(0.00113971 -0.0031829 1.82472e-19)
(0.00102429 -0.00331321 1.15276e-17)
(0.000580285 -0.00309088 -4.06895e-18)
(0.00185475 -0.00205329 3.66717e-18)
(0.00284095 -0.00220392 2.60311e-18)
(0.00260361 -0.00244852 -2.64416e-18)
(0.00329193 -0.0040753 4.19309e-19)
(0.0032661 -0.00349021 2.58766e-18)
(0.00314345 -0.00389014 9.46857e-19)
(-0.00599005 -0.00257522 -1.59471e-19)
(-0.0054089 -0.00334228 -4.23044e-19)
(0.0249173 -0.159647 2.66107e-18)
(0.0249992 -0.167501 4.62469e-18)
(-7.34918e-05 -0.000274656 -1.13885e-18)
(-7.31877e-05 -0.000281072 5.93449e-19)
(-6.5256e-05 -0.000278772 1.19114e-19)
(-0.00146349 0.000529318 1.84975e-20)
(-0.00149417 0.000482689 6.66319e-20)
(-0.00144266 0.000475246 3.57468e-20)
(-0.00131795 -0.00422223 2.87691e-19)
(-0.00199113 -0.00393262 6.24167e-18)
(-0.00158327 -0.00343191 2.66367e-18)
(-0.00840252 0.123144 -4.8726e-19)
(0.00121907 0.117338 -1.54677e-19)
(-0.00751527 0.131093 -2.57558e-19)
(-0.0161656 0.117349 -1.77059e-18)
(-0.00843596 0.113627 1.04931e-18)
(-0.00628292 -0.00401114 1.08243e-17)
(-0.00887923 -0.0039662 5.23619e-18)
(-0.00998473 -0.00209669 7.91815e-19)
(0.0208939 0.0701763 2.31608e-19)
(0.0108855 0.0875114 -1.05086e-18)
(0.0110373 0.0793371 -1.14004e-18)
(0.0580267 -0.0365286 -1.68176e-18)
(0.040994 0.0058573 -6.42057e-19)
(0.0465322 -0.038582 -4.60054e-19)
(0.000969633 -0.00115474 -2.36861e-18)
(0.00100345 -0.00113775 -6.58539e-18)
(-0.0386176 0.0276589 2.07296e-18)
(-0.0313192 0.0256623 1.1752e-19)
(-0.0391246 0.0152308 4.94848e-19)
(0.00136327 -0.0029219 4.79111e-18)
(0.00136787 -0.00295063 7.7295e-18)
(0.00139347 -0.00292616 5.8962e-18)
(0.0012195 -0.00319281 -3.23106e-19)
(0.0012361 -0.0031686 -3.05424e-18)
(0.00128898 -0.00323528 -4.98351e-18)
(-0.000324665 -0.00435421 1.33321e-18)
(-0.000273088 -0.00444993 4.6963e-18)
(-0.000417457 -0.00441588 -2.78261e-18)
(0.000177864 -3.17753e-05 6.95923e-19)
(0.000170244 -2.49436e-05 1.53125e-18)
(0.000170668 -3.79558e-05 -8.86281e-19)
(-0.000175422 -2.30648e-05 1.22012e-18)
(-0.000166766 -2.02838e-05 1.62824e-18)
(-0.000162144 -3.22797e-05 1.29366e-18)
(-0.00142746 0.000568037 -2.18087e-20)
(-0.00149265 0.000590448 -2.88214e-20)
(-0.00102082 -4.30882e-05 -1.81078e-20)
(-0.00102543 -5.62405e-05 -3.31259e-20)
(-0.000984823 -3.46292e-05 1.53411e-20)
(-0.00123883 -0.00501079 -5.31921e-18)
(-0.00149899 -0.00489985 -3.27336e-18)
(-0.00145368 -0.00521672 2.00964e-18)
(4.98766e-05 -0.000709022 7.88714e-19)
(1.57795e-05 -0.000699046 -1.22401e-18)
(0.000497117 -0.000381338 1.21004e-18)
(0.000485711 -0.000366273 4.14419e-18)
(0.00050915 -0.000371508 3.86976e-18)
(0.00405564 -0.00403691 -2.41782e-19)
(0.00340278 -0.00463993 1.64197e-18)
(-0.00269176 0.0139982 -8.03654e-19)
(-0.00532744 0.0146245 9.43061e-18)
(-0.00548993 0.0167154 3.87112e-18)
(-0.00759502 0.0034398 -6.92261e-20)
(-0.00736617 0.00556897 -1.97926e-19)
(-0.00599454 0.00413214 7.52045e-20)
(0.00117004 -0.00301683 7.4073e-19)
(0.00116563 -0.00303042 -2.37182e-18)
(0.00118746 -0.00302847 7.63044e-18)
(0.0191785 -0.00886508 -1.11302e-18)
(0.0163582 -0.0107221 6.52404e-19)
(0.015533 -0.00728486 3.74868e-19)
(0.000811255 -0.000856461 9.28475e-20)
(0.000646052 -0.000915835 -5.55695e-20)
(0.000761188 -0.00107116 3.22771e-19)
(-0.000216526 -0.00174299 4.23454e-18)
(-0.000266856 -0.00185561 -8.59078e-19)
(0.0351031 0.0312936 -3.12596e-19)
(0.0279048 0.0522705 2.1161e-19)
(0.00122132 -0.00202904 -4.1915e-18)
(0.00116673 -0.00202751 7.25165e-19)
(0.00118874 -0.00197431 -5.37339e-18)
(-0.000721825 -0.000372758 2.58396e-19)
(-0.000904166 -0.000367581 2.23773e-19)
(-0.0169304 0.000330198 7.2024e-19)
(-0.0167591 0.000368897 2.4103e-18)
(-0.0161628 0.000324741 -2.93931e-18)
(-0.0091877 -0.00127103 -2.44681e-18)
(-0.00955675 -0.00146702 -3.38283e-19)
(-0.00537502 -0.00173855 -3.87927e-18)
(0.0127738 0.00903601 -6.33664e-18)
(0.00917842 0.0202795 -6.91063e-18)
(0.000183213 -3.85293e-05 2.69164e-19)
(0.000186466 -2.72302e-05 2.05804e-18)
(-0.000196126 -4.58482e-05 7.78002e-19)
(-0.000185015 -5.16807e-05 -1.11166e-18)
(-0.000195043 -5.62969e-05 -1.18679e-18)
(-0.000470541 -0.000401718 2.20281e-20)
(-0.000491959 -0.000427544 -3.24833e-20)
(-0.000495177 -0.000394871 -6.50525e-20)
(0.000135972 -0.00366321 1.78926e-18)
(-3.5489e-05 -0.00364435 3.96521e-18)
(-0.0165432 -0.000105824 2.22688e-18)
(-0.016758 -0.000237327 8.88892e-18)
(-0.0164051 -0.00015313 1.10614e-18)
(0.00084043 -0.00249806 5.78113e-18)
(0.000874335 -0.00255095 -2.77292e-18)
(0.000811346 -0.00255483 -2.18986e-20)
(-0.0165257 0.000423085 -2.01826e-18)
(-0.0162303 0.000387901 -1.10717e-19)
(0.000553922 -0.000536757 2.6033e-18)
(0.000528329 -0.000524852 3.69299e-18)
(0.000543304 -0.000511922 -1.82168e-18)
(0.0151005 -0.00178834 -1.8409e-18)
(0.0122836 -0.00893755 5.63169e-20)
(0.0117819 -0.0182656 2.01486e-19)
(0.000167235 -0.000237654 -7.63285e-20)
(0.000168299 -0.000249916 1.28459e-18)
(0.000155014 -0.00024099 5.59225e-18)
(-0.00668726 -0.00551587 4.38901e-18)
(-0.00662506 -0.00488687 1.74025e-17)
(-0.00562982 -0.00585767 1.53237e-17)
(-0.0073512 0.00182898 -2.661e-20)
(-0.00933718 0.00268156 -3.3286e-20)
(-0.0108729 -0.023831 1.44685e-18)
(-0.0108114 -0.0227112 -2.6085e-18)
(-0.0108049 -0.00459388 -2.84949e-19)
(-0.0110844 -0.00708933 2.61693e-19)
(-0.00869681 -0.00606382 -1.90394e-19)
(-0.0367432 0.047745 -3.02992e-19)
(-0.0208202 0.0403615 2.80833e-18)
(-0.0301897 0.0428075 -3.37304e-19)
(0.000735182 -0.00123478 2.52766e-18)
(0.00069367 -0.00123348 -1.91947e-19)
(0.000725228 -0.00128363 3.31914e-18)
(-0.000238707 0.000432314 1.43627e-19)
(-0.000462809 0.000293909 -6.07882e-20)
(-0.000128536 0.00013394 7.5081e-20)
(0.00117583 -0.00322293 -2.87675e-18)
(0.00123278 -0.0030745 1.337e-17)
(0.00694114 -0.000616348 2.4234e-19)
(0.00843491 0.000259774 8.20808e-19)
(0.00812367 -0.00175342 3.93318e-19)
(0.0392828 0.0167649 -7.55415e-18)
(0.000789743 -0.00148545 -8.28055e-18)
(0.000757215 -0.00151133 -2.64601e-18)
(0.000805256 -0.00154157 -1.50556e-18)
(0.000755415 -0.00120533 4.41934e-18)
(0.000785587 -0.00124774 -3.1031e-18)
(-0.000833484 -1.9091e-05 -8.39613e-20)
(-0.00082722 -1.40855e-05 -5.85622e-20)
(-0.000907636 -2.29723e-05 -4.72836e-20)
(0.00113602 -0.00303639 -7.52768e-18)
(0.00112244 -0.0030061 -3.43387e-18)
(-0.0158589 0.000515863 4.63815e-18)
(-0.0161518 0.000741077 1.34522e-18)
(-0.0162491 0.000241312 7.27112e-19)
(-0.0458928 0.0289866 -1.06522e-18)
(-0.0368858 0.0406914 -1.73988e-20)
(-0.000657288 -1.0715e-05 -9.51436e-22)
(-0.00083482 -1.7856e-05 -4.20359e-20)
(0.00057554 0.00912849 -3.46768e-18)
(0.0014105 0.010089 4.53286e-18)
(0.00159483 0.0110276 -6.87384e-19)
(0.00113815 -0.00262134 4.676e-18)
(0.00118824 -0.00262047 3.68142e-18)
(0.00115243 -0.00257395 1.32096e-17)
(5.33785e-05 -0.000328555 3.20153e-19)
(5.33826e-05 -0.000327573 7.92212e-19)
(6.32624e-05 -0.000318371 -3.10159e-19)
(0.00130652 -0.000906668 2.63807e-18)
(0.00134177 -0.000931755 -2.43614e-19)
(-0.000837517 2.98161e-05 -3.32247e-22)
(-0.000949093 4.24368e-05 -1.2844e-20)
(-0.000843683 3.02389e-05 -4.55748e-20)
(-0.0144581 -0.000174597 -7.19439e-19)
(-0.0150779 0.00339742 -1.1392e-18)
(-0.0119735 0.00226876 -5.08601e-19)
(0.00129087 -0.00270716 -2.87212e-19)
(0.00125196 -0.0027057 5.86258e-18)
(0.00126979 -0.00274924 1.33934e-17)
(-0.00114166 0.000372646 -3.94952e-20)
(-0.00117172 0.000377733 -2.83644e-20)
(-0.0011428 0.00033807 3.36555e-20)
(-0.0137468 -0.00102373 4.58292e-20)
(-0.0152792 -0.00101656 1.52394e-19)
(-0.00694478 -0.0209452 -6.79109e-19)
(-0.0051956 -0.0170356 -3.93045e-19)
(-0.00070865 -1.58271e-05 -1.10792e-19)
(-0.000569268 -5.78023e-06 -7.91564e-20)
(-0.000713282 -1.35821e-05 -5.503e-20)
(0.000150709 0.00065731 4.10709e-20)
(-0.000362345 0.000791103 2.04919e-20)
(0.00576073 -0.00131881 -4.22584e-19)
(0.00594405 0.000149421 2.83654e-19)
(-0.000385407 -8.88457e-06 2.96644e-19)
(-0.000391494 -4.2939e-06 -6.38578e-20)
(-0.000763949 -2.35772e-05 -5.68436e-20)
(-0.000688585 -1.44893e-05 4.98369e-20)
(0.0397417 -0.0343032 4.01643e-18)
(0.0548842 -0.0344736 3.56883e-19)
(-0.0156063 5.08681e-05 -1.77905e-19)
(-0.0154114 0.000612544 -3.09813e-18)
(-0.00129372 0.000238957 3.80528e-20)
(-0.00131532 0.000251259 -8.86593e-20)
(-0.00129104 0.000266051 -1.51697e-21)
(-0.000393788 -1.49216e-05 9.26039e-20)
(-0.000401724 -1.4141e-05 -1.37918e-18)
(-0.000348812 -6.79915e-06 -4.34753e-19)
(-0.000203556 -2.39067e-05 9.61011e-20)
(-0.00021587 -1.4799e-05 9.71728e-19)
(-0.000203973 -1.17611e-05 -8.48725e-19)
(-0.000918442 -0.00465985 -9.5465e-19)
(-0.000724489 -0.00487032 -8.87441e-18)
(0.00127012 -0.000938594 -2.71892e-18)
(0.00126023 -0.000887385 6.8518e-18)
(-0.00710958 -0.00201618 -2.11301e-19)
(-0.00916367 -0.00186865 2.73985e-18)
(0.0219714 -0.0204596 -3.47033e-19)
(0.0660229 -0.0516037 -5.17325e-19)
(0.0692856 -0.0305679 1.50731e-18)
(0.00559037 0.00905236 1.81475e-21)
(0.00539231 0.0060253 7.08012e-20)
(0.0081025 0.00767323 -2.77045e-19)
(0.0605747 -0.0525731 3.15766e-18)
(0.0631265 -0.0587175 5.25145e-19)
(0.00098616 -0.00255235 1.58246e-18)
(0.00103163 -0.00256225 3.97381e-19)
(0.00100159 -0.00260658 -7.02103e-18)
(8.00966e-05 -0.000570079 -4.08387e-19)
(7.22978e-05 -0.00063612 1.9088e-19)
(0.00155979 -0.00294714 -5.38789e-18)
(0.00146528 -0.00296228 1.1849e-19)
(0.0015288 -0.00284022 4.98364e-18)
(-8.11316e-05 -0.000270081 2.77263e-19)
(-7.35494e-05 -0.000268113 -1.35253e-18)
(-0.000457088 -0.000138802 6.7409e-19)
(-0.000445677 -0.000147086 1.71565e-20)
(-0.000445973 -0.000136802 -1.17957e-19)
(-0.0170933 0.000423745 -5.94944e-18)
(-0.0169815 0.000467612 -3.82298e-18)
(0.000178018 -0.000232204 -1.06579e-18)
(0.000163878 -0.000223583 -4.9443e-18)
(0.0437512 -0.0466398 1.08675e-17)
(-0.000453292 -5.33438e-05 7.24791e-19)
(-0.000464687 -5.24305e-05 1.3466e-19)
(-0.000463982 -4.13737e-05 -4.4285e-19)
(-0.00127272 0.000224311 1.12885e-20)
(-0.00130128 0.000207584 1.48619e-19)
(-0.00858512 -0.00119249 5.45195e-19)
(-0.00773877 -0.00111819 -2.89178e-18)
(-0.00416869 -0.00158522 -4.70159e-18)
(0.000882227 0.0222772 -8.60717e-19)
(-0.000133594 0.0241384 1.12356e-18)
(0.00042796 0.0201721 1.08687e-18)
(-0.0177495 0.00140028 7.71012e-19)
(-0.0165421 0.000219577 -2.303e-19)
(-0.0175304 -0.00166075 -7.9722e-19)
(-0.00031126 0.00720485 8.08527e-19)
(0.000828891 0.00824164 5.87913e-18)
(-0.000182748 -2.82196e-05 6.86206e-19)
(-0.000185839 -1.80091e-05 -4.57396e-19)
(0.0011002 -0.000272361 -9.10126e-20)
(0.00128657 4.66128e-05 1.71233e-20)
(0.00148344 -0.000363546 1.17468e-19)
(-0.00237137 -0.000405265 1.29395e-20)
(-0.0021991 -0.000430408 5.29999e-20)
(-0.00230367 -0.000610619 -9.16638e-20)
(0.000341014 -0.000806545 1.06913e-18)
(0.000347227 -0.000830638 5.0902e-18)
(0.000359534 -0.000811691 -1.68334e-18)
(0.00958838 0.10033 -1.5533e-19)
(0.00775463 0.104334 7.7012e-20)
(0.000383441 -0.0223112 1.9619e-18)
(-0.00468231 -0.0199378 -7.42353e-20)
(0.00284605 -0.016701 2.85317e-18)
(0.00182804 -0.00286586 -3.13748e-18)
(0.00167505 -0.00307144 2.4775e-19)
(0.000500926 -0.000270041 -3.25909e-18)
(0.000493687 -0.00028441 5.62828e-19)
(-0.0221742 0.115545 1.59648e-19)
(-0.0237789 0.104886 4.59281e-19)
(0.00192582 -0.00325548 1.04716e-18)
(0.00184483 -0.00328597 3.04682e-18)
(-0.00022794 -1.70442e-05 -3.63878e-20)
(-0.000238318 -2.16934e-05 2.1192e-19)
(-0.000223289 -3.05614e-05 -2.48249e-19)
(0.00362825 0.0205025 8.38558e-18)
(0.00534852 0.0189676 -8.47612e-18)
(-0.0010084 -3.8574e-05 5.32401e-20)
(-0.00104831 -5.12764e-05 -2.75143e-20)
(0.000621932 -0.000845461 -6.57165e-18)
(0.00064709 -0.000863734 -8.48628e-19)
(0.000640404 -0.000827281 -1.38302e-18)
(0.000317895 -0.000804322 1.83746e-19)
(0.000328087 -0.00078105 2.34126e-18)
(-0.000250715 -0.000209666 9.59726e-19)
(-0.000262227 -0.000209891 2.66127e-19)
(-0.000255904 -0.000218375 5.42886e-19)
(0.000106863 -0.000689491 -1.50654e-20)
(0.000115803 -0.0006731 6.14682e-19)
(0.00012815 -0.000697592 1.59351e-18)
(0.00126727 -0.00324497 1.01572e-17)
(0.00117212 -0.00318499 -6.39622e-18)
(0.00135603 -0.0028837 -6.74646e-18)
(0.00132758 -0.00291414 -3.86593e-18)
(-0.000586898 0.000437372 4.5432e-21)
(-0.00066486 0.000441379 -2.43856e-20)
(-0.00062395 0.000391561 1.86671e-22)
(0.00115396 -0.00151445 -5.53018e-18)
(0.00113048 -0.00154669 -4.13393e-18)
(0.0011779 -0.00155885 -6.52547e-18)
(-0.00117603 -0.00514363 -5.11262e-18)
(-0.000932635 -0.00492633 3.96429e-18)
(-0.000466841 -0.000130587 3.55888e-19)
(-0.000466376 -0.00013986 1.88302e-19)
(0.000289178 -0.00100867 -1.6247e-18)
(0.000300678 -0.000954697 1.93311e-18)
(0.00025037 -0.000972937 -9.59424e-19)
(-0.00197491 0.000220168 2.28538e-19)
(-0.00201663 0.000123489 7.05504e-20)
(-0.001927 0.000130058 1.48228e-19)
(0.00491272 -0.0251619 -2.56096e-19)
(-0.00552245 -0.0298771 -6.29447e-19)
(0.00125312 -0.00208484 3.79418e-18)
(0.00127572 -0.00202603 -2.57028e-18)
(8.91912e-05 -0.000531682 -1.55116e-18)
(4.14241e-05 -0.000551585 6.34573e-19)
(-0.0186415 0.00290358 1.69306e-18)
(-0.018929 0.00234308 -3.80723e-18)
(-0.0184401 0.00186982 3.61899e-18)
(-0.0159791 5.39769e-05 -5.0109e-18)
(-0.0166693 -7.06165e-05 -5.81359e-18)
(-0.00083912 -0.000129924 4.73258e-20)
(-0.000828809 -0.000138051 -5.05431e-20)
(-0.000839964 -0.000140343 -1.45909e-20)
(-0.000239689 -0.000210368 6.97165e-19)
(-0.000247076 -0.000203302 -3.52146e-19)
(-0.0167707 0.00326382 2.06236e-18)
(-0.017416 0.0042626 -2.82769e-19)
(-0.000476774 -0.000121785 -2.15e-19)
(-0.000466953 -0.00012081 3.91337e-19)
(0.0124156 0.0599736 -5.85236e-19)
(0.0304498 0.0521169 -1.80573e-18)
(0.000924313 -0.00255108 -1.56329e-18)
(0.000956891 -0.0025005 6.03227e-18)
(0.000237325 0.000685908 2.26993e-21)
(1.64264e-05 0.000730983 1.22275e-20)
(0.000181484 0.000970649 -1.37966e-20)
(0.0004898 -0.00202643 -1.11991e-17)
(0.00140691 -0.00234154 -4.55571e-18)
(-0.00112895 0.000434892 1.46369e-20)
(-0.00108984 0.000419486 9.99985e-21)
(-0.00111844 0.000473415 4.57109e-20)
(0.000422159 -0.0011721 3.71565e-18)
(0.000413796 -0.00113408 -1.57674e-18)
(0.000388105 -0.00115283 1.50754e-18)
(-0.0115636 -0.000856657 7.80193e-18)
(0.000184522 -0.000212576 -5.72239e-18)
(0.000181702 -0.000200688 -1.33523e-18)
(0.000171774 -0.000205994 -1.26017e-18)
(0.000227332 -0.00412966 1.28146e-18)
(0.000331865 -0.0039394 4.61786e-18)
(-0.000986576 0.000119596 -1.57943e-20)
(-0.000993343 0.000101411 -2.77201e-20)
(-0.000971721 0.000114348 -1.17291e-21)
(-0.00107485 8.28744e-07 3.34337e-23)
(-0.00112795 -1.01784e-05 3.26473e-20)
(-0.00117793 -2.80973e-05 7.53132e-20)
(0.00096967 -0.000784189 3.13466e-19)
(0.000785605 -0.000683843 6.54771e-19)
(-0.000199539 -3.3762e-05 3.66263e-20)
(-0.000190796 -3.08702e-05 -7.63275e-19)
(0.0011535 -0.00312957 1.05146e-18)
(0.00115941 -0.00318297 4.75368e-19)
(0.00122078 -0.00315214 2.73931e-18)
(-0.00141595 0.00524974 1.33547e-19)
(-0.00227131 0.00610407 7.25612e-19)
(-0.00243586 0.00479151 1.95643e-18)
(0.0276628 0.0557312 8.56246e-20)
(-0.000425634 -0.0045232 -2.42756e-18)
(-0.000347813 -0.00457122 2.26817e-18)
(0.000494247 0.000832178 -6.04412e-20)
(0.000300935 0.0014222 -1.2017e-19)
(0.00102226 0.00119257 -9.93971e-20)
(0.000952392 -0.0020299 -7.32327e-18)
(0.00100437 -0.00202622 -3.6227e-18)
(0.000971236 -0.00197667 -7.21493e-18)
(-0.000104119 0.0129846 -3.60307e-18)
(-0.00150596 0.0115468 -6.41924e-19)
(0.000572348 -0.000803961 -2.87142e-18)
(0.000595604 -0.000825311 1.04124e-19)
(0.000590007 -0.000793344 -1.2719e-18)
(0.00092053 -0.000494635 1.33746e-21)
(0.000780847 -0.000227564 -5.13593e-20)
(0.00813186 -0.0985549 1.61413e-18)
(-0.00486522 -0.0645099 3.44918e-18)
(-9.77232e-05 -0.104106 3.34595e-18)
(0.0004926 0.000612472 -2.90166e-20)
(0.000277968 0.00042328 3.73083e-21)
(-0.000451651 -0.000377519 5.06395e-21)
(-0.000440726 -0.000408377 1.32695e-19)
(0.00493425 0.0124134 3.04812e-19)
(0.00247914 0.0091871 -1.62572e-19)
(-0.0159597 0.00525634 2.71066e-18)
(-0.0198304 0.00811742 -1.59345e-18)
(-0.0184355 0.00541192 6.1696e-18)
(-0.000238663 -4.41261e-06 3.11269e-19)
(-0.000322471 -7.96421e-06 7.08917e-19)
(-0.000230134 -2.40709e-06 -1.11774e-19)
(2.14592e-05 -0.000242789 -2.5307e-19)
(1.18676e-05 -0.000230782 1.34646e-18)
(1.12831e-05 -0.000241374 1.68315e-18)
(-0.00306976 0.00196741 -4.86105e-19)
(-0.0024104 0.0019125 -7.54641e-19)
(-0.00270983 0.00140241 -2.27409e-19)
(0.000198502 -0.000218838 -6.7218e-18)
(0.000187982 -0.000225055 -2.24465e-18)
(0.0182586 -0.00978175 -4.71114e-19)
(0.0203044 -0.00820855 -3.35781e-19)
(0.0205001 -0.010473 -1.61528e-18)
(0.000535656 -0.00115299 1.41827e-18)
(0.000544473 -0.00111354 3.1896e-18)
(0.000579774 -0.00115058 -2.62426e-18)
(-0.0179593 0.000136226 -3.9436e-18)
(-0.017895 0.000164073 -3.33197e-18)
(-0.0179195 0.000223136 -1.90726e-19)
(-0.000911087 0.000424167 1.30391e-20)
(-0.000874769 0.000442033 1.76571e-20)
(-0.000915243 0.000482272 8.21245e-21)
(-0.0180036 0.000111073 1.75116e-18)
(-0.0179545 0.000190873 3.56503e-18)
(-0.0179763 5.64197e-05 -8.9705e-19)
(4.5968e-05 -0.000334052 -6.96781e-19)
(5.16967e-05 -0.000328361 -2.14773e-19)
(0.0317257 -0.111796 2.99764e-18)
(0.024564 -0.0831742 -2.26304e-19)
(0.0319544 -0.0716136 9.71141e-19)
(-0.00101334 0.000319924 -2.18402e-20)
(-0.00104583 0.000331482 3.33719e-20)
(-0.00102513 0.000294067 2.32617e-20)
(-0.00232399 -4.58735e-05 1.9411e-20)
(-0.00243828 8.73904e-05 -8.65185e-20)
(-0.00225783 0.000110896 -1.23212e-20)
(0.00518307 0.029561 -7.75031e-19)
(-0.00205679 0.0568427 1.11425e-18)
(0.00448406 0.0645826 -1.89168e-20)
(-0.00770574 -0.000868533 2.15252e-20)
(-0.00701824 0.000373598 1.16394e-19)
(-0.00591421 -0.000917412 -2.48969e-22)
(-0.00303842 -0.00499613 -1.95166e-18)
(-0.00337172 -0.00352223 -2.14533e-18)
(0.000181257 -9.61332e-05 -2.3562e-18)
(0.000180694 -8.63088e-05 3.44358e-18)
(0.000171929 -8.98615e-05 -2.58824e-18)
(-0.0179874 7.48011e-05 8.37448e-19)
(-0.0180203 0.000108137 1.54908e-18)
(0.000503384 -0.00115711 -3.09054e-18)
(0.000526345 -0.00118404 1.97924e-18)
(0.0005641 -0.000557437 1.12147e-18)
(0.000579309 -0.000543697 1.94878e-18)
(-0.0162906 -0.00222776 -5.57807e-18)
(-0.0165609 -0.00209886 2.33756e-18)
(-0.0167003 -0.00208202 -1.69393e-18)
(0.00114537 -0.0030117 2.33758e-18)
(0.00113191 -0.00297567 -3.38597e-18)
(0.00110374 -0.00301517 3.02604e-18)
(-0.0177603 0.000765925 7.52163e-18)
(-0.0177024 0.000775391 8.15662e-18)
(-0.0176737 0.00079849 -2.13979e-18)
(-0.00106948 -1.62702e-05 -2.61005e-20)
(-0.00108639 -1.24627e-05 1.9482e-19)
(-0.000823171 -6.2057e-06 1.93962e-20)
(0.000768326 -0.00166341 1.04315e-18)
(0.000778934 -0.00171166 -1.04695e-18)
(0.00073255 -0.001688 -2.47058e-18)
(-0.000829284 2.71405e-05 1.1455e-19)
(-0.000669381 1.79579e-05 -1.24079e-19)
(0.000231773 -0.00456842 -5.28251e-19)
(0.000366379 -0.00466486 -3.34547e-18)
(0.000171748 -0.0046556 2.30375e-18)
(-0.000986248 0.000315129 2.97443e-23)
(-0.00100369 0.000349088 -1.77842e-20)
(-0.000392402 -0.00223258 1.62593e-18)
(-0.000282709 -0.00216248 -2.92341e-18)
(-0.00415486 -0.0238211 2.004e-19)
(-0.000295324 -0.0224149 1.2549e-19)
(-0.00143713 -0.0274705 -1.8414e-18)
(-0.000837958 -0.000119748 -1.16791e-20)
(-0.000849284 -0.000123396 -5.18932e-20)
(0.000591056 0.000334187 -1.55412e-21)
(0.00147473 -0.00287193 5.2282e-18)
(0.00143561 -0.00287112 1.9381e-18)
(0.00145556 -0.00283429 -3.62718e-18)
(-0.000260135 -0.00398805 -2.89125e-20)
(-0.0002827 -0.00344022 -1.5002e-19)
(-0.000834976 -0.00356701 6.71061e-20)
(0.0153584 -0.010765 1.50137e-19)
(0.0160223 -0.00846491 -5.20902e-18)
(0.0223612 -0.0102021 -5.94591e-19)
(0.0213057 -0.00644271 -5.258e-19)
(-0.0023501 -0.000206355 1.09278e-19)
(-0.00254591 -0.000334556 6.27763e-20)
(2.90083e-05 -0.000244558 -1.08392e-18)
(2.79217e-05 -0.000253332 -2.0483e-18)
(-0.0199077 -0.01128 2.97714e-19)
(-0.026012 -0.0144309 -3.80383e-19)
(-0.0155866 0.11785 -1.01606e-17)
(-0.0276982 0.114733 2.38555e-18)
(-0.0118635 0.105756 2.24677e-18)
(0.000660454 -0.000317995 1.93447e-19)
(0.000457408 -5.54242e-06 1.91913e-20)
(0.00086376 4.61502e-05 -5.78164e-20)
(-0.00369013 0.00184209 7.32488e-19)
(-0.00340472 0.00256848 -4.38313e-19)
(-0.0010276 6.15056e-05 6.15211e-20)
(-0.00103407 5.95276e-05 -1.07706e-20)
(-0.0177323 0.000633746 -3.4017e-18)
(-0.0176776 0.000634979 -4.55754e-18)
(-0.0176779 0.000672685 4.37347e-18)
(0.00109693 -0.00263067 -9.8848e-18)
(0.00113215 -0.00267326 3.2912e-19)
(0.0274294 -0.159343 -1.32315e-18)
(0.0247302 -0.168623 1.63098e-18)
(0.0252114 -0.162683 1.41047e-18)
(0.000306054 -0.000802839 -5.52697e-19)
(0.000283518 -0.000798091 -3.18408e-18)
(0.000294686 -0.000776101 -1.11159e-18)
(0.000262631 -0.000965806 -8.33481e-19)
(0.000281673 -0.000955946 1.45199e-18)
(0.000259005 -0.000941815 -1.09627e-18)
(-0.00487239 -0.00310969 -7.87075e-20)
(-0.00447253 -0.00446205 5.68471e-20)
(-0.00383927 -0.00310211 -2.1635e-19)
(-0.00400733 0.111928 -4.53774e-18)
(-0.0237179 0.133172 -3.51445e-18)
(0.00032116 -0.000558659 -1.10237e-18)
(0.00032458 -0.000574775 5.24164e-18)
(0.000307156 -0.000562962 2.56527e-18)
(0.000314691 -0.000818314 -2.20213e-18)
(0.0015279 -0.00263797 1.42523e-18)
(0.00154914 -0.00268231 1.34604e-19)
(0.0014899 -0.00266785 -3.59973e-18)
(0.0271431 0.0369191 -2.55961e-19)
(0.0201972 0.047113 6.29919e-19)
(0.0173833 0.0370249 -1.07113e-19)
(-0.000315528 0.00562739 2.59187e-19)
(-0.000626299 0.00442372 -3.87711e-19)
(-0.0104604 -0.000667981 -3.65678e-20)
(-0.00737868 -0.000908721 1.16811e-19)
(-0.0133755 -0.000929886 1.45886e-17)
(-0.0110511 -0.000611669 2.54193e-18)
(-0.00934331 -0.000981631 7.8591e-18)
(0.000292822 -0.000148764 -1.09856e-18)
(0.000284334 -0.000136797 -3.60624e-19)
(0.000278019 -0.000145279 -2.45703e-18)
(-0.00219427 -0.000132497 -5.49884e-21)
(-0.000640534 -0.000265836 -4.53971e-19)
(-0.000641525 -8.88927e-05 -6.50358e-19)
(-0.000508939 -0.000151845 1.02178e-18)
(0.0334377 -0.0645787 2.48821e-19)
(0.0269687 -0.0560098 2.42462e-18)
(0.0421773 -0.0574258 1.23721e-18)
(-0.000959082 0.00128313 -6.62238e-20)
(-0.000902055 0.00086664 1.65731e-19)
(-0.000569782 0.00105662 1.488e-19)
(-0.000225808 -0.000614399 -1.73398e-19)
(0.000688603 -0.000344632 -1.53358e-18)
(-0.00229218 0.000166562 -2.97342e-18)
(0.000558265 -0.000817668 -1.97313e-18)
(0.000552312 -0.000786045 -2.43243e-18)
(0.000334238 -0.000554328 -3.89112e-18)
(0.00031686 -0.000541625 -3.51118e-18)
(0.000827323 -0.00147267 5.62211e-18)
(0.000783773 -0.00145191 -8.19029e-19)
(-0.0157275 -0.00243209 1.29993e-19)
(-0.0159213 -0.00240198 -5.63264e-18)
(0.0333783 -0.0144542 2.43222e-19)
(0.0289155 -0.0115995 -1.65628e-18)
(0.0339142 -0.00639611 -5.36022e-21)
(-0.00592314 -0.00273735 -1.89934e-19)
(-0.00470894 -0.00183831 -8.43764e-20)
(0.00060123 -0.0008592 -1.20348e-18)
(-0.0115589 -0.042662 -1.09875e-19)
(-0.0110444 -0.0383652 1.48894e-18)
(-0.00556846 -0.0457714 -4.29193e-18)
(0.000804513 -0.00244407 1.1916e-18)
(0.000865962 -0.00244432 4.29889e-18)
(1.17859e-05 -0.000716859 -1.37739e-18)
(3.71948e-05 -0.000796518 -2.6836e-18)
(-0.000435357 -0.00015457 -4.12788e-19)
(-0.000445857 -0.000156532 9.67997e-20)
(0.0165752 0.0131178 1.79022e-19)
(0.0163837 0.00186453 9.00583e-20)
(0.031372 -0.0391579 4.47973e-19)
(0.0346602 -0.0354203 1.24931e-19)
(0.0361855 -0.0274792 -2.62189e-20)
(-0.018321 6.74357e-05 3.96138e-18)
(-0.0180132 0.000210649 -3.83314e-19)
(-0.0181254 8.6522e-05 3.9214e-18)
(-0.0116345 0.107194 -1.41497e-18)
(-0.0154132 0.0961578 -2.11379e-18)
(0.000785924 -0.000614546 7.84456e-21)
(0.000380654 -0.00048008 1.14263e-20)
(-0.000905785 0.000355719 -7.02149e-21)
(-0.000909477 0.000387179 -3.54379e-22)
(-0.000880549 0.00036789 -3.83796e-20)
(-0.000840555 3.37349e-05 -2.96946e-19)
(-0.000849726 3.32528e-05 6.48623e-20)
(-0.000940363 4.11563e-05 -3.61151e-21)
(0.00156984 -0.00260743 3.17944e-18)
(0.00151293 -0.00259634 -1.0555e-18)
(0.0408126 -0.0785091 4.79584e-19)
(0.0238977 -0.070582 4.35395e-19)
(-0.0150062 0.121756 3.09008e-18)
(-0.0319433 0.1675 5.34116e-18)
(-0.0424066 0.178266 2.69637e-18)
(-0.000510575 -0.000296214 -3.1699e-19)
(-0.000509291 -0.000318811 -5.67215e-20)
(-0.000490154 -0.00029992 1.05613e-20)
(0.000260203 -6.09523e-05 4.4685e-19)
(0.000254214 -6.65862e-05 -3.52784e-18)
(0.000265173 -6.83023e-05 2.30476e-18)
(-0.00470914 -0.0450391 -2.06307e-18)
(-0.0186582 -0.0379917 5.73684e-19)
(0.0150317 0.00665468 2.31339e-20)
(0.0184522 0.0228696 -2.72921e-19)
(0.0200811 0.0205598 -8.83033e-20)
(0.00204392 -0.00283574 3.09502e-21)
(0.00197582 -0.00270536 -5.07641e-19)
(5.60765e-05 -0.000692291 3.3867e-19)
(7.11299e-05 -0.000713589 1.2993e-18)
(0.000515212 -0.000397828 -2.05691e-18)
(0.000487488 -0.000391401 2.33002e-18)
(0.0011164 -0.0021334 -5.3705e-19)
(0.00106353 -0.0021321 -3.96977e-18)
(0.00109749 -0.0021908 -5.38013e-18)
(0.0119697 -0.00480738 -5.0858e-19)
(0.00967359 -0.00777067 1.91788e-19)
(0.000875695 -0.0014056 3.24641e-18)
(-0.0012209 -0.000964482 2.79502e-18)
(0.000272371 -0.000909339 -1.68948e-18)
(0.000255266 -0.000904534 -1.60668e-18)
(0.000268127 -0.000889569 8.85222e-19)
(-0.0132304 -0.0226898 1.15988e-18)
(-0.0169917 -0.0189633 -7.17543e-19)
(-0.000427036 -0.000171836 -3.5647e-19)
(-0.000417924 -0.000169238 9.08558e-20)
(-0.000426892 -0.000161443 -2.07731e-19)
(-0.0178101 0.000583494 4.97471e-19)
(-0.0177973 0.000642826 2.27965e-20)
(0.0011384 -0.00148346 -1.97626e-18)
(0.00118278 -0.00149074 -1.7676e-18)
(0.000440234 -0.00102857 2.34261e-18)
(0.000421328 -0.00104582 3.19622e-18)
(-0.0182229 0.000378295 -5.39905e-18)
(-0.0178816 0.000437289 3.79475e-18)
(-0.0179059 0.000535064 -4.45054e-18)
(3.42088e-05 -0.000379864 9.58661e-19)
(3.13898e-05 -0.000375073 1.09849e-18)
(3.90877e-05 -0.00038843 1.93393e-20)
(-0.0124373 -0.00264973 1.90164e-19)
(-0.0165359 -0.00291482 -3.22014e-20)
(-0.0179151 -0.00120219 3.47573e-18)