/*--------------------------------*- C++ -*----------------------------------*\
| =========                 |                                                 |
| \\      /  F ield         | OpenFOAM: The Open Source CFD Toolbox           |
|  \\    /   O peration     | Version:  v2012                                 |
|   \\  /    A nd           | Website:  www.openfoam.com                      |
|    \\/     M anipulation  |                                                 |
\*---------------------------------------------------------------------------*/
FoamFile
{
    version     2.0;
    format      ascii;
    class       volScalarField;
    location    "100";
    object      p;
}
// * * * * * * * * * * * * * * * * * * * * * * * * * * * * * * * * * * * * * //

dimensions      [0 2 -2 0 0 0 0];


internalField   nonuniform List<scalar> 
13851
(
-0.00630407
0.0134077
-0.0307675
-0.00617704
-0.0523515
0.00615027
-0.0396953
-0.0371572
-0.00156384
-0.0130609
-0.0113121
0.0142926
-0.0605776
-0.0529254
-0.0288824
-0.0243872
-0.039512
-0.00852913
-0.0563526
-0.00171844
-0.00649517
-0.0331399
0.000627084
-0.00223215
0.00071568
-0.0353077
-0.0550721
-0.0786051
-0.00694762
-0.0176721
0.00681856
-0.0396529
-0.0297922
-0.0233144
-0.00233982
-0.0822166
-0.0758598
-0.0381659
-0.0115457
-0.0207188
-0.0128998
0.000500003
-0.0737363
-0.00420152
-0.00136834
-0.075674
0.00278594
-0.00631262
-0.055999
7.27851e-05
-0.0692837
-0.0632976
-0.0744408
-0.0281836
-0.0154666
0.000492405
-5.76058e-05
-0.0773621
-0.0177068
-0.0391876
-0.0359871
-0.0612883
-4.17396e-05
-0.0545331
0.00285244
-0.00414315
-0.0749305
0.00325269
-0.0639402
-0.00805993
-0.0610376
-0.0767255
0.0088091
-0.0285026
-0.0139197
-0.0010152
-0.0343197
-0.0612803
-0.0537345
-0.0636558
-0.0401939
-0.000916769
-0.0272974
-0.0730344
0.000485912
0.0125181
0.00341082
-0.00605026
-0.0481839
0.00122198
-0.0819976
0.000877283
0.00328766
-0.0515186
-0.049319
-0.000210286
-0.0533555
-0.0667329
-2.49922e-05
-0.000132282
-0.0732733
-0.0623674
-0.0125997
-0.0667412
0.000144825
0.00260675
-0.0654031
0.000286362
-0.0756986
0.0057299
-0.00116498
0.00119008
0.000622098
-0.00208934
-0.00124404
0.00402587
-0.0675224
0.000532857
-0.00703339
-0.014124
-0.073615
-0.0653014
-0.0615803
-0.00999249
-0.00388205
0.0011519
-0.000398695
-0.0577523
-0.00639334
-0.0492789
-0.0130528
-0.00487371
-0.0620719
-0.0275334
0.0031787
-0.00557334
0.000510449
-0.0750542
-0.0382037
-0.00886608
-0.0745158
-0.0148412
0.000427845
0.000854
-0.0319959
-0.00407549
-0.000128716
-0.0477831
-0.0389432
-0.000676061
-0.0920929
-0.0132277
-0.0519778
5.50786e-05
-0.0435596
-0.0312829
-0.00577076
-0.0210399
-0.0622324
-0.0678829
7.12775e-05
-0.0621749
-0.0772275
-0.004651
-0.0165313
0.000752723
0.000628801
-0.0657094
-0.00671613
-0.0692607
-0.0611022
-0.000681811
-0.00601605
-0.0113412
-0.0046787
-0.0106254
-0.0567081
0.000108268
-0.0574483
0.000251968
-0.0384092
-0.0728659
-0.0280711
-0.0340605
2.42485e-05
0.000653651
-0.00442827
-0.014192
-0.0491691
-0.00773879
0.00227038
-0.0750561
0.00119385
-0.0579598
-0.0575627
-0.0417809
0.000267528
-0.0166029
6.92246e-05
-0.00105998
0.00106554
-0.0748701
-0.00872167
-0.0209963
-0.0119234
-0.0284201
-0.00469679
-0.0422555
-0.0606018
0.000133917
-0.063557
-0.0128314
-0.0213735
0.0001776
0.000795089
-0.0103438
3.28137e-06
-0.0755826
-0.0284503
-0.0606144
-0.041991
-0.0410615
-0.0633488
-0.0573887
-0.0635
0.000784187
-0.0517722
0.000160673
-0.0748858
0.000140064
-0.0342845
0.0103809
-0.000674194
0.00126572
-0.0723798
-0.00411765
-0.00442543
0.00250225
0.000853163
-0.0213511
0.00638896
-0.016883
9.56663e-05
-0.0108659
0.000196941
-0.062869
-0.0609217
-0.027552
-0.0296145
-0.0300796
0.00144036
-0.0176998
-0.031419
-0.0304914
-0.0744207
-0.00291754
-0.00807553
-0.0741218
-0.0671994
-0.0317347
0.000816491
-0.0083123
0.0143389
0.00122419
-0.0559332
-0.0408858
-0.0317084
-0.0518782
-0.0639993
0.000515013
0.00164919
-0.0425127
0.0125036
-0.0540235
-0.0239423
-0.00483335
0.000311396
0.000457662
-0.069197
-0.0115542
1.97008e-05
7.89071e-05
-9.17376e-05
-0.074518
0.0108414
-0.0186353
-0.00153017
-0.0306688
0.0119436
-0.000499995
-0.0479017
-0.0185989
-0.0391981
-0.0612952
0.000208619
-0.057889
-0.0193543
0.0229239
-0.00493321
-0.0619843
-0.0622978
-0.0380542
-0.0683075
-0.0179987
0.00351398
-0.0631258
-0.00161623
-0.0713009
-0.0499528
-0.0185474
-0.0396426
-0.0187088
-0.0292468
-0.0671047
0.000588221
-0.0305492
0.000665679
-0.0715919
-0.0846108
-0.0286564
-0.066661
-0.0298576
-0.0655088
0.00244744
0.000738565
-0.00435731
-0.0833261
-0.0517693
-0.0451593
-0.0306425
-0.0183677
-0.0286334
-0.00769151
-0.063772
-0.0689498
-0.00483429
-0.0673281
-0.0368421
-0.0285868
-0.0567841
-0.0465726
0.00116855
-4.14434e-05
-0.0658936
-0.056648
0.00028524
0.000913999
-0.0620032
-0.0290437
-0.00698653
-0.00806784
-0.0126936
-0.0460038
0.000834838
-0.0751255
-0.00593764
-0.00336395
-0.00422129
-0.0298291
0.000150122
0.000286785
-0.00630832
-0.0621832
-0.0140854
-0.0224242
-0.0712546
0.00051887
0.0241668
-0.0179867
-0.00714372
-0.0687525
-0.0220367
0.00106441
-0.0472234
-0.0120501
-0.0124119
0.000479585
0.00172857
-0.0748105
-0.0137999
-0.0357612
0.0011298
-0.065874
-0.0707815
-0.0162598
-0.0153181
0.00108896
-0.00620539
-0.02907
-0.0054439
-0.0683077
-0.0490075
-0.0682131
-0.0658154
-0.0609869
0.000554538
-0.0321889
-0.0693932
-0.0623424
0.0101362
-0.0660972
0.00193301
-0.047457
0.000255767
-0.0368098
-0.00100139
-0.0257183
0.000975305
-0.0364462
2.35425e-05
-0.00153023
0.000718336
-0.0557973
-0.00280953
-0.0651378
-0.00694331
-0.0666581
0.000661966
-0.0180992
-0.0277447
-0.00985981
-0.0377599
-0.00778072
0.00047883
-0.00160964
0.000677821
-0.0339756
-0.00557898
-0.0549687
0.000290864
-0.0611807
-0.0195576
0.00308726
-0.013516
-0.0741348
-0.0125359
-0.0140658
0.000219806
0.00150747
-0.0128569
-0.0278826
-0.0597784
0.000239224
0.00246499
-0.0125664
-0.0731904
4.56372e-05
-0.0475201
-0.0549377
0.000199014
-0.00108079
-0.0275111
-0.092419
-0.0640738
-0.00505101
0.00881403
0.000752321
-0.0041618
-0.0742637
-0.0155271
8.77717e-05
-0.00778758
-0.00603914
-0.00607724
-0.001588
-0.0100454
-0.0203075
0.000131184
0.000249832
-0.0648122
-0.0274874
-0.0675501
-0.0057481
3.72797e-05
-0.00115245
-0.00261477
-0.00979268
-0.00222926
-0.00200379
-0.0164037
-0.0329703
0.00429934
-0.0283358
0.000286948
-0.0686561
-0.0595362
-0.0293551
0.000305522
-0.0285281
-0.0143108
-0.076432
-0.00437231
-0.0125976
-0.0128311
-0.0465837
-0.0370175
-0.0743241
0.000412481
-0.0739015
-0.00744357
0.000547105
0.000172892
-0.0669816
-0.0327925
-0.0118178
-0.00728729
-0.0106388
-0.0158082
-0.00376187
-0.00450965
-0.0375066
-0.0638754
-0.0668375
-0.070398
-0.0608756
-0.000269019
8.06207e-05
-0.0595013
-0.00991334
-0.039662
-0.0607085
-0.0130282
-0.00845958
-0.062172
-0.0270984
-0.0747688
-0.0743382
-0.0766184
-0.017419
0.000386498
-0.0031652
0.00154887
-0.00459808
-0.0192344
0.0046643
-0.0202313
0.000816237
-0.0664809
0.000423259
0.00243184
-0.0681974
-0.0580506
-0.0286428
-0.0227963
-0.00586067
-0.0166287
-0.0506837
-0.00668581
-0.0109775
0.0078335
-0.00343658
-0.0738395
-0.0612078
0.00336549
-0.0100057
-0.0659497
1.08241e-05
-0.00151487
0.00208214
-0.0618214
-0.0447217
-0.0855542
-0.0776569
0.000449068
0.00182126
-0.00377159
-0.0149207
-0.0623922
-0.0638518
-0.0684598
-0.0126711
-0.0370536
-0.00376906
-0.0618905
-0.0784455
-0.0698871
0.000554096
0.000301333
-0.0161632
0.000244632
0.000422314
-0.0278152
0.000221793
-0.00746113
-0.0653314
-0.0532687
-0.000388196
0.000387515
-0.0358045
-0.0156614
-0.0054954
0.000349357
0.00118369
-0.028932
-0.0758358
-0.0253795
-0.0244895
-0.0791008
-0.0154158
-0.0699991
-0.0575813
-0.059168
0.000414995
-0.0625113
-1.17139e-05
-0.000124249
-0.0280149
-0.0645279
0.0048253
-0.0842759
-0.0410423
-0.00167349
-0.0218862
0.000810379
-0.0133224
-0.0636263
-0.0280403
-0.00479409
-0.00117249
-0.0541683
-0.0539396
-0.0384055
-0.0121286
-0.0188984
-0.0335534
-0.0509264
-0.0317535
-0.0579099
-0.0196791
-0.0792768
-0.00172868
0.00783241
0.00205049
-0.0788136
-0.0134924
-0.000481473
-0.0767006
-0.0137213
-0.0717192
-0.0615722
-0.0757037
-0.00782154
-0.00110623
-0.078267
3.18718e-05
-0.00698684
0.000374742
-0.00750056
0.000209644
-0.00615975
-0.0105661
0.000382478
-0.0217583
-0.00720439
-0.025732
-0.00511333
0.000266039
0.000745051
-0.0448382
-0.0506621
-0.0824198
-0.0536753
6.60115e-05
0.000214679
-0.00352787
-0.00512568
-0.0672416
0.010041
-0.0331555
0.000327091
-0.0379905
-0.00539389
-0.000934166
-0.0759962
-0.0226043
-0.0680871
-0.0083933
-0.0122342
-0.0694751
-0.0716568
-0.0627615
0.0224277
-0.0392486
-0.00867134
-0.0812867
-0.00752903
-0.0184534
-0.0290071
-0.00621749
0.000469711
-0.0825329
-0.0601575
-0.000367836
-0.0132177
-0.000241468
-0.00373068
-0.0383162
0.00884684
-0.0222781
-0.0623795
-0.0540852
-0.0169219
0.00021794
-0.00522413
-0.069575
-0.078534
-0.00321259
-0.0610039
-0.000323231
-0.0295714
0.000480852
-0.0171953
-0.0706547
-0.0203008
-0.00959126
-0.003228
-0.0512085
0.000743865
-0.0727373
-0.00381043
-0.0641064
0.000528728
-0.0335208
-0.0587639
-0.0774314
-0.0825458
0.000605799
-0.0672298
-0.0281626
-0.00690714
-0.0248049
-0.0267093
-0.0310862
-0.0762973
0.000873149
0.00135716
-0.0756412
-0.000591501
-0.00890739
-0.0202531
-0.00162259
-0.0741153
-0.0323446
-0.0636581
-0.00078057
0.000192206
-0.00178237
0.0087169
-0.00460374
0.000987156
0.000349774
-0.0119483
-0.0108236
-0.0605578
-0.00619501
0.000609323
0.000985475
-0.037787
-0.0594165
0.000497177
0.000501172
-0.0773704
0.00225618
-0.0166271
-0.00279473
0.00873046
-0.0666522
-0.0325723
-0.0627832
-0.0810097
-0.00155414
0.0028423
-0.0737879
0.00678417
-0.0269044
-0.0035511
0.000330759
-0.0141211
-0.0232861
-0.00782891
-0.019074
0.00319921
-0.0274774
0.000586567
-0.0916882
-0.0138645
-0.0478261
0.00903836
-0.0331221
-0.0479865
-0.0701356
-0.0711932
-0.0194596
0.0022755
-0.0604756
-0.0384834
-0.0699029
0.00591872
-0.0611826
-0.0249285
-0.0637991
-0.0178696
-0.0255217
-0.00166283
-0.00537059
-0.0772943
-0.073703
-0.00351613
0.000482849
-0.0710843
0.00174886
0.000649737
-0.0755961
-0.000368765
-0.0244569
-0.0739812
-0.0591518
-0.0139326
-0.00682777
-0.0299437
-0.0771688
-0.0669682
-0.078991
-0.000668183
-0.0677667
-0.0176436
-0.0498483
-0.0640715
-0.0696363
-0.0280838
-0.0371093
0.0111716
-0.0890112
-0.0633778
0.00186541
-0.0669278
-0.0738127
-0.0639008
-0.0609009
-0.0313637
-0.0710321
-0.00532916
-0.0204382
-0.012813
0.0175711
-0.0285085
-0.0639129
0.000666905
-0.0766515
-0.0146608
-0.0210947
-0.0708831
-0.0691046
-0.066359
-0.075489
-0.00874194
-0.00198788
-0.0747499
-0.0153354
0.00235948
-0.0260804
-0.059144
0.00120933
-0.0232144
-0.0137883
-0.0261541
-0.066719
-0.0738831
-0.0598601
-0.0190041
0.00186348
-0.00442903
-0.0643488
-0.0282857
0.00382101
-0.0603697
-0.00560445
-0.054234
-0.0361058
-0.0153212
0.00345843
-0.0298429
-6.97113e-06
0.00669532
-0.0594457
-0.0613821
-0.0269992
-0.0011978
-0.0147068
-0.0745235
-0.0693209
0.000609448
-0.0258481
-0.00410057
-0.00866449
-0.00999934
0.00015213
-0.00460173
-0.0105095
-0.0240923
0.000399092
-0.00428281
-0.021053
-0.058378
-0.0682754
-0.0490103
0.00124482
-0.0149922
-0.046165
-0.00429383
-0.00427873
-0.0204482
-0.0234443
-0.0585644
-0.0291706
-0.0790053
-0.0312185
-0.0278421
-0.00884347
-0.0784166
-0.00684449
-0.00448269
-0.00758872
-0.0634363
-0.0328833
-0.0398058
-0.0611829
-0.0556058
-0.0051465
0.0175118
0.0116426
-0.0731519
-0.0419038
-0.00410135
-0.0137196
-0.0749227
-0.0640073
0.00257733
-0.00278779
-0.00798244
-0.00504934
-0.0053015
-0.0450364
0.0011517
-0.0581852
-0.0313094
-0.00469025
0.00140855
-0.00508787
-0.0302135
-7.37919e-05
-0.0386804
-0.0770329
-0.00578693
-0.0661031
-0.0746849
-0.0128639
-0.0240992
-0.0364803
-0.00440974
0.000306298
-0.0162345
-0.00502005
-0.0746626
-0.0472906
-0.00187701
-0.0098657
0.000819398
-0.0616165
0.00921032
0.00139892
-0.065676
-0.0690223
-0.0158739
-0.00655003
-0.0423174
-0.0060931
-0.00419495
0.000932554
-0.00358182
-0.0143963
0.000966913
-0.0149516
-0.0754032
-0.00109852
-0.0606873
-0.0324771
-0.0505263
4.52502e-05
-0.000496679
0.0124977
0.00581827
-0.022531
-0.000469436
-0.0258206
-1.93305e-05
-0.0268194
-0.00206508
-0.0162996
0.00696599
-0.0594121
-0.0118459
0.000538481
-0.019534
0.00138064
0.000181209
-0.0636222
-0.0239963
-0.0426557
-0.048209
-0.00109543
0.00495512
-0.0017218
-0.0658695
-0.0632811
0.00361067
-0.0605328
-0.0295718
0.00110788
-0.00956421
-0.0148496
-0.0161559
-0.00102411
-0.00427514
-0.000417147
-0.068976
0.000787489
-0.000506581
-0.0409685
-0.0551214
-0.0707294
-0.00557769
-0.00573853
-0.0112398
-0.0894411
-0.0547966
-0.0536474
-0.068324
-0.0271225
-0.077339
0.000939875
-0.0726375
-0.0225527
0.000877577
-0.00978869
-0.0611675
-0.0815619
-0.00567261
-0.0649182
-0.00496066
-0.0248219
8.44054e-05
-0.015814
-0.00571027
0.00736117
5.27851e-05
-0.0537793
-0.00161972
-0.0602397
-0.00239436
0.00541823
-9.84296e-05
-0.0129567
-0.0188622
-0.0627824
-0.0903856
-0.0734784
-0.0289041
-0.0611403
-0.0122856
-0.0735527
0.000337111
-0.00314653
0.000767354
-0.0269066
-0.0646248
-0.0301641
-0.0602336
-0.0339985
-0.0484536
-0.0181327
-0.0597249
-0.0126505
-0.029131
-0.0502623
-0.0201679
0.00114864
-0.00464848
0.00318194
-0.026649
0.0176941
-0.0127033
-0.0567757
-0.00043915
-0.00703351
-0.0654496
0.00171755
0.00109475
-0.0462087
-0.0749786
-0.03175
0.00977815
-0.0565569
0.00244919
0.000924546
-0.0656102
-0.00459986
-0.052464
-0.0503344
-0.062662
-0.0143056
-0.0501263
0.00648648
-0.0128436
-0.000100241
-0.0254623
-0.0730085
-0.00368676
-0.0602996
-0.0066581
-0.0635647
-0.0727798
-0.0383361
-0.0622353
-0.0653637
0.000800548
-0.00357442
-0.0605696
-0.00272933
-0.0708538
-0.0204296
-0.0196156
-0.0579924
-0.0525071
-0.0749992
-0.0213995
-0.0376591
-0.0230763
-0.0594856
-0.0835801
-0.0377875
0.00130088
-0.0242751
-0.00218008
-0.0656023
-0.0200919
-0.031579
-0.0672397
-0.0507161
-0.00950174
-0.0701858
-0.0552009
-0.04003
-0.00460961
-0.0785426
-0.0628279
0.00107198
-0.0116935
-0.00515613
0.000853923
0.000532944
-0.0128264
-0.00550378
-0.0185925
-0.0779695
0.012036
-0.0651413
-0.0416991
-0.0719941
-0.0106966
-0.0139662
-0.0602807
-0.00851821
0.00293308
-0.018431
-0.0249001
-0.00294378
-0.0294854
0.00114219
-0.00252882
-0.0118584
-0.0777589
-0.00477437
0.00128914
-0.0649325
-0.0239341
-0.001981
-0.0330542
-0.00225258
-0.00456561
-0.0667311
-0.0689747
-0.0700439
-0.00535681
-0.0653271
-0.000290857
-0.0148536
-0.00038027
-0.0614313
-0.0595185
-0.0218104
-0.0683439
-0.00731338
0.00400665
-0.0702529
-0.0731339
0.00332328
-0.010571
-0.0164596
0.00665022
-0.0624866
0.000237345
-0.0737967
-0.0175916
-0.0147158
0.00531773
-0.0606345
-0.0146936
-0.0507569
0.00624332
-0.0651166
0.00204447
0.00327046
-0.014999
0.00701607
-0.00253258
0.00150238
-0.0423924
-0.0648544
-0.0656812
0.0113535
-0.062431
-0.0137713
-0.0661892
-0.0624841
-0.0651214
-0.0213976
-0.00772984
-0.00095318
-0.011287
-0.0676176
-0.0188559
-0.0411142
-0.0145644
-0.058271
-0.068275
-0.0745552
-0.00877258
-0.0661236
-0.0196623
-0.0150907
-0.0136612
0.000642286
-0.0780539
-0.0267266
-0.0597214
0.00973833
0.000246625
-0.0780463
-0.030195
-0.0168093
-0.0205806
-0.0878427
2.44021e-05
-0.034856
-0.00901058
-0.0127321
-0.0722952
-0.0434511
-0.0300079
0.00155862
-0.0286939
-0.0207555
-0.0587753
-0.00649573
-0.0592479
0.000208284
0.00010707
0.00132318
-0.0532933
-0.00144016
-0.0715239
-0.0545708
-0.0281783
0.000721113
-0.0137174
-0.000503696
-0.030422
-0.000554756
0.000361387
-0.062701
-0.0480091
-0.00456467
0.00127221
0.000723208
-0.0924201
-0.0650843
-0.0527127
-0.0597531
-0.0264354
0.000669897
0.000197867
-0.00144675
-0.0598989
-0.0634571
0.000570705
-0.0141068
-0.000447268
-0.0682484
-0.0404248
-0.0403097
-0.0658911
-0.0380503
-0.000557428
-0.0680627
-0.0717231
-0.0181273
0.00180374
-0.0218794
-0.0615709
-0.090183
-0.0361483
-0.0742054
-0.0744922
-0.0492692
-0.0679628
0.0122517
-0.0103041
-0.0559692
-0.0759411
-0.0249187
-0.078057
-0.0333524
-0.00359177
-0.000511978
-0.0589187
0.00149277
-0.0763572
-0.0319871
-0.0547906
-0.07931
-0.0200128
-0.0716813
-0.0674336
-0.00381889
-0.0456785
-0.0883007
-0.0445054
-0.0738468
-0.0182605
-0.00106575
-0.0115997
0.00154393
-0.00055294
-0.00535165
-0.0118398
-0.0216158
0.00571011
-0.00317003
-0.0386591
0.00204322
0.000100818
0.000674353
-0.016656
-0.0309641
0.001114
-0.0596907
-0.026807
-0.0126665
-0.0460734
0.0167118
-0.000990163
-0.0659754
-0.0061726
-0.00245398
-0.0697032
-0.0739007
-0.0733968
0.00493721
-0.00309767
-0.0656311
-0.00408527
-0.000416319
-0.0614215
-0.00882088
-0.068123
-0.0709007
0.00226155
-0.0757175
-0.0725886
-0.0436336
-0.0578808
-0.0615304
-0.0312785
-0.000882763
-0.0439576
-0.0738407
-0.0511204
-0.0818575
0.000104601
-0.0218111
0.0013992
-0.0259872
-0.0656017
-0.0680686
-0.0789386
-0.0700255
-0.053308
-0.0176545
-0.013494
0.000789778
-0.0146759
-0.000662479
-0.0640749
-0.0100009
-0.0645896
-0.0143797
-0.000719845
-0.0363479
-0.0765617
-0.0584162
-0.0654593
-0.0663747
0.00069583
0.00255448
-0.0644065
-0.0639393
-0.0492481
-0.00771971
-0.000550123
-0.0339274
-0.033761
-0.0784005
0.0106096
-0.0568293
-0.000473679
-0.0908116
-0.000192574
-0.0575923
-0.0090173
-0.0116954
-0.0609799
-0.0104737
-0.0724329
0.000889636
-0.0642804
0.00127033
-0.0559827
-0.00394991
-0.0292991
-0.000625336
-0.0529238
-0.0605603
-0.0764858
-0.0664198
-0.0468306
-0.0401506
-0.0153716
-0.064829
-0.0751764
-0.00365741
0.00102783
-0.00107412
0.000361871
-0.0640172
0.000320978
-0.00499016
-0.0247547
-0.00715571
-0.00986202
-0.0044145
-0.039041
-0.0818269
-0.0625947
-0.0180681
-0.00261439
-0.057063
-0.0178595
0.000330674
-0.0161713
-0.0661747
-0.0736517
-0.00629385
-0.0251277
-0.00714826
-0.00721765
-0.0746733
-0.0750903
0.008291
0.000610409
0.00320295
-0.00419942
-0.057251
-0.00208452
-0.0629881
-0.0766243
-0.0256862
0.0136185
-0.0153797
-0.0156357
-0.0156146
-0.0376041
-0.0605032
-0.0287082
-0.0835535
-0.00446357
-0.0147082
-0.00448688
-0.0240789
-0.0650177
-0.0737806
-0.0290031
-0.0751423
-0.0605502
0.00076205
-0.0255124
-6.81352e-05
-0.000160408
-0.0636476
-0.079082
-0.0240003
-0.0166345
0.00653209
-0.0244725
-0.0603463
-0.074881
-0.0291427
-0.0634328
-0.0788673
-0.00722537
-0.0250554
-0.00412386
-0.0596597
-0.0134458
-0.00924423
-0.0610732
-0.0308271
-0.0611869
0.000663772
-0.0441589
0.000966643
-0.0790574
-0.0735175
-0.0119479
0.00246094
-0.0488684
-0.0260883
-0.00843201
-0.030464
-0.000718427
-0.0735097
-0.0328177
-0.0738986
-0.0202116
-0.0562936
0.005628
-0.0624208
0.00245395
-0.0604975
-0.0750244
-0.0146504
0.00725851
-0.0646642
-0.00360962
-0.000919286
-0.045342
-0.0751708
-0.0731663
-0.018363
0.000210254
-0.0255564
-0.00756807
-0.000970736
-0.0285327
-0.0760086
-0.0172416
-0.0442236
-0.0387638
-0.00936793
0.00212415
-0.0560382
-0.0117176
-0.0716676
-3.66376e-05
-0.00323646
0.00851473
-0.0634328
-0.0163867
-0.0678503
-0.0657655
-0.0438994
-0.00434924
-0.0306765
-0.0449141
-0.0619591
-0.0626264
-0.0282335
-0.0584818
-0.0456116
-0.00763768
-0.0190698
-0.0694351
-0.00708095
0.00105032
-0.0736887
-0.0154775
-0.0338126
-0.00994495
-0.0735308
-0.018296
-0.0656804
-0.00561531
0.0111373
-0.0454669
-0.0172249
-0.0525919
-0.0738057
-0.00315419
-0.022541
-0.0215936
2.28562e-05
-0.0299507
-0.0310803
-0.0379673
-0.058334
-0.0611623
-0.00703078
-0.0628594
-0.0504473
-0.046303
0.00901272
0.0174867
-0.00225534
-0.0589918
-0.0604764
-0.0720782
-0.00783664
-0.0836362
-0.0745017
-0.0313327
-0.0118154
-0.00108976
0.00997911
-0.0585042
-0.000267708
-0.0634377
-0.0130415
-0.086935
-0.0164523
-0.0586826
0.000812067
-0.00826269
-0.0233361
-0.0126519
-0.0734919
-0.0677098
-0.0887833
-0.0378038
-0.000442859
0.0223949
-0.00390358
0.00144083
-0.086039
0.000147903
-0.0619654
-0.0251095
-0.0171675
-0.0162698
-0.00141269
-0.00973646
-0.00324404
0.00705837
-0.0170027
-0.0655288
-0.00965451
0.00940533
0.00630815
-0.00323841
-0.0271472
-0.0268154
-0.0456197
-0.0369118
-0.00867021
-0.00421635
-0.077733
-0.0084453
-0.00043183
-0.0109701
-0.0368566
0.000117477
-0.0684636
-0.030267
-0.0135672
-0.0630392
-0.06189
0.0164604
-0.063811
-0.0877377
-0.00523306
-0.0284587
-0.0318338
-0.0446234
0.000606848
0.0010812
-0.0600094
-0.078484
-0.064659
-0.0636795
-0.0308698
-0.0744867
0.00037874
-0.047106
-0.00362072
-0.063738
-0.0289082
-0.0549879
-0.0274192
-0.0693059
-0.0754642
-0.00494046
0.00106354
-0.0407834
-0.000801189
-0.0383855
-0.0594719
-0.0154211
0.000399776
-0.0789518
-0.0646022
-0.00278279
-0.0555848
-0.0643333
-0.0768619
6.3647e-05
-0.0753083
-0.078663
0.00187178
0.00844453
-0.0691433
0.0103124
-0.00202119
-0.00773041
-0.00414416
-0.0527574
-0.000478669
-0.0080243
-0.0620278
-0.0741053
-0.0746884
0.000912541
-0.064581
-0.0296744
-0.0416225
0.00104449
-0.0261137
-0.0494623
-0.00281453
-0.0754398
-0.0558758
0.00351477
-0.0466508
-0.0751437
-0.0301934
-0.0858345
-0.0754296
-0.0626241
-0.0064519
-0.0737543
-1.4332e-05
0.000493066
-0.0255882
-0.000426577
0.0010857
-0.0759429
-0.00363721
0.00134781
-0.00745617
-0.0785846
-0.0750112
-0.000387772
-0.00269473
-0.0137116
-0.0158348
-0.0754421
-0.00193144
4.95653e-05
-0.0192085
0.00301057
-0.00503412
-0.0064122
-0.0758449
-0.0618103
-0.0328088
-0.00234145
-0.0098804
-0.039717
-0.0655492
3.39359e-05
-0.0739411
-0.0744485
-0.0328732
-0.0758119
-0.0750744
0.000579995
-0.0905412
-0.0299658
-0.0743868
0.000566163
0.00487679
0.00282921
-0.0366048
-0.0123006
-0.0674688
0.00115646
-0.000936176
-0.000684318
-0.0803746
-0.0636845
-0.078729
-0.0661134
-0.0323809
-0.0591175
-0.042104
-0.0493876
-0.064346
-0.0755065
-0.0106647
-0.0616216
-0.0103261
-0.0392997
-0.00706449
-0.0845703
-0.064757
-0.0538793
-0.0577127
0.00056528
-0.0789621
0.0025699
-0.0231047
-0.0286489
-0.00552888
-0.0599287
-0.0508321
-0.0521389
-0.0435864
-0.040337
0.00603113
-0.0593947
-0.0712787
-0.0613436
-0.0106282
-0.0758341
-0.0168551
-0.0579545
-0.0302921
-0.0745974
-0.0305138
0.00229898
-0.00638272
-0.062029
0.00241476
-0.0138641
-0.00535146
-0.034187
0.00127525
-0.0295235
-0.0753719
-0.0791634
-0.071742
-0.0750684
-0.0103541
-0.0678396
-0.063288
-0.074605
-0.0740736
-0.0606367
-0.00775289
-0.0775997
-0.0539587
-0.0706121
-0.0697138
-0.057193
0.00143664
-0.0519955
-0.00985015
-0.0295988
0.000420865
-0.0653137
-0.0689401
-0.0574049
-0.0244172
-0.0362894
-0.016607
-0.0628933
-0.0747274
-0.0192884
-0.0864895
-0.0082554
-0.0316346
-0.026878
-0.0634697
-0.0566415
-0.0269303
-0.0317328
-0.0516935
-0.016349
0.00453348
-0.0447829
-0.000920381
-0.024941
-0.00420976
-0.0626616
-0.00136961
-0.0618384
-0.0320624
-0.0206171
-0.0632061
-0.0623027
-0.0150144
0.00763094
-0.0280383
-0.0486104
-0.00464692
0.00170995
-0.0214232
-0.0013433
0.00635323
-0.0154309
-0.00130522
-0.0207301
-0.0333944
0.00634946
-0.060098
-0.0320819
-0.0191815
-0.0626454
-0.023175
-0.0535749
-0.00210008
-0.0330229
-0.00766572
-0.026412
-0.00305042
-0.0377681
-0.0266151
-0.0617283
0.00339533
-0.0336802
-0.0340475
0.00102177
-0.0165229
0.0115232
-0.00809963
-0.0651125
-0.0744821
-0.000854974
-0.0377213
-0.0272368
-0.031951
-0.00687129
-0.0360471
-0.0144436
-0.00912775
-0.0646123
-0.0013487
-0.0556166
-0.0613231
0.00195405
-0.0133128
-0.00855482
-0.0582076
-0.00341626
-0.00703608
-0.00484443
-0.0728125
-0.00118135
0.00132182
-0.0601442
0.000861324
0.000270083
0.000348318
0.000917035
-0.00517447
-0.000121525
0.000314275
-0.0607111
0.00563508
-0.0358538
0.00682606
-0.00222341
-0.00336387
-0.0619689
-0.0645174
-0.0743251
-0.0506524
-0.00943196
-0.0635035
-0.0732997
-0.00687229
-0.0439813
0.00111416
0.0075707
-0.00876819
-0.0364175
-0.00732852
0.000119254
0.00949066
-0.00161591
-0.0027949
0.00287428
-0.0266564
-0.00017114
0.00106073
-0.00550332
-0.0714491
-0.0638639
-0.00436511
-0.0243847
0.000651606
-0.0717872
-0.0424482
-0.0610156
-0.0244154
-0.0718404
-0.00774443
-0.0742638
-0.0643372
0.00711013
-0.0166862
-0.0245511
1.41818e-05
-0.0133642
-0.01113
-0.00921895
-0.0362209
-0.0620115
-0.066046
-0.0594589
-0.000207788
-0.0254584
-0.0838374
-0.0249162
0.000416605
0.000857668
0.000336527
-0.0431547
-0.006617
-0.0155591
-0.00829789
-0.0627124
-0.0627252
-0.0751151
-0.0403186
-0.06266
-0.064965
-0.0165777
-0.000452881
-0.0146537
-0.0221055
0.000597458
-0.0079714
-0.0613633
-0.0689863
-0.0270514
-0.0291374
0.000587007
-0.02888
-0.0212281
-6.528e-05
-0.00749586
-0.0621962
0.000231546
-0.0168829
-0.0277047
0.00574413
-0.0375268
-0.0713311
-0.0389224
-0.0163784
-0.0630857
-0.0647927
-0.059978
0.000947097
-0.0241086
-0.00429541
-0.0280305
-0.0707962
0.000956666
-0.0777926
0.000708403
-0.0046126
-0.0316613
-0.0638591
-0.0636203
-0.0604444
-0.0117272
-0.000654628
-0.0121759
-0.0779953
-0.0152624
0.00115275
-0.0017926
-0.0198298
-0.00155994
-0.00235616
-0.000866382
-0.065572
-0.065641
-0.061218
0.000625491
-0.0582365
-0.0752268
-0.0851938
-0.0658049
-0.0423908
0.000866558
0.00079688
0.000390932
-0.0172924
-0.0635848
-0.0627624
0.00130648
-0.0782511
-0.0652407
-0.0746467
-0.00125702
-0.025811
-0.0511315
-0.0633479
-0.0610437
-0.00359294
-0.0606336
0.000352382
-0.0577262
-0.0504259
-0.00745524
-0.0706099
-0.027518
-0.0808998
-0.0765466
-0.0181707
-0.0405326
-0.0153759
-0.00471874
-0.0758755
-0.062745
-0.0850941
-0.0300714
-0.0619121
-0.0870603
-0.0641249
-0.0623471
-0.0624356
-0.0710685
-0.0522129
-0.0287395
-0.000896181
-0.0636832
-0.0591938
-0.00979997
-0.0610241
-0.00209177
-0.0283012
-0.00930937
-0.00193709
-0.0636436
-0.0287614
-0.0725078
-0.0596744
-0.0291974
0.00804302
-0.00772706
-0.0637961
-0.0517618
-0.0282655
-0.0038108
-0.00448324
-0.0637121
0.000706217
0.00111429
-0.0557246
-0.0428252
-0.0615812
-0.0483202
-0.0209641
-0.0386704
-0.000282524
-0.019793
-0.028609
-0.0719828
-0.00691179
-0.00328822
-0.0662172
-0.0532137
-0.000894439
-0.0790233
-0.0644307
-0.0284635
0.0121065
-0.0371656
-0.0646427
-0.00104024
0.00133313
-0.0895088
-0.0295701
-0.0645466
-0.0602102
-0.0663202
-0.00183879
-0.00404804
-0.0334232
-0.00162565
-0.0614567
-0.00579679
-0.0688212
-0.0888321
-0.00860467
-0.00143474
-0.0404374
-0.0258915
-0.061535
-0.0590248
-0.000634442
-0.074967
-0.0843897
-0.0309629
-0.00404073
-0.0649809
-0.0590034
-0.0721488
-0.0308647
0.00126304
-0.0554454
-0.0236871
-0.0164321
-0.00592879
-0.00571004
-0.00251528
-0.00415407
-0.0029228
-0.000613953
-0.0162587
-0.0756077
-0.0638455
0.0104696
-0.0640372
-0.060249
0.000509984
-0.0696185
-0.0695147
-0.0595721
-0.000558206
-0.0322049
-0.0578561
-0.0750295
-0.0806306
-0.0530665
0.00674538
-0.0665105
-0.0880975
-0.0623672
-0.00267829
-0.0652111
-0.0856669
-0.0272073
-0.0800687
-0.073986
0.000200199
-0.0751381
-0.0794003
-0.0191829
-0.00413669
0.000106333
-0.0274881
-0.00419956
-0.000162888
-0.00272168
-0.0700717
-0.0733411
-0.00588916
-0.0556848
-0.00240293
-0.0150651
-0.0739059
-0.0609179
-0.074262
-0.0710979
-0.0600739
-0.00332693
3.92869e-05
-0.0614049
-0.0605945
-0.0824849
-0.0557908
-0.0723814
-0.0435611
-0.00226614
-0.0272361
-0.0448166
-0.0588681
-0.0716136
-0.0718075
-0.035248
-0.063045
-0.0625127
-0.00331163
-0.074022
-0.0306203
-0.0448859
-0.00102325
-0.0308156
0.00137875
-0.043785
-0.0468757
-0.060923
-0.0610234
-1.94249e-05
-0.0866618
-0.036553
-0.0219921
-0.0743543
0.0223804
-0.0646909
-0.0045174
-0.0897399
-0.0628494
-0.0832784
-0.0863894
0.000952262
-0.0530223
-0.0710522
-0.0662455
-0.000305913
-0.0543493
0.00131952
-0.00738493
-0.0253226
-0.0358068
-0.0690652
-0.0586322
-0.00581565
-0.0742826
-0.0364807
0.00066695
-0.00801006
-0.0280567
-0.0112015
-0.058565
-0.0662562
-0.0656958
-0.0867809
0.00443736
-0.0162712
-0.0335118
-0.00390348
-0.0638505
-0.00112503
-0.0047334
-0.0168146
-0.0581706
0.0079372
-0.0607371
-0.0370619
-0.0737194
-0.0299334
-0.071325
-0.0649078
-0.0669929
0.000254429
-0.00360885
-0.0306369
-0.0292342
-0.0636088
-0.0737352
-0.0393406
-0.0512958
-0.0627608
-0.0339197
-0.0300293
-0.00268262
-0.00381893
-0.0107018
-0.0876585
-0.0142617
-0.0461698
-0.027944
-0.0378879
-0.0296859
-0.0781462
-0.0743554
-0.0194121
-0.0256034
-0.0499805
-0.0173848
-0.000972133
0.0196047
-0.0474136
-0.000986414
-0.07179
-0.0273831
-0.0615206
-0.0323286
-0.007691
-0.024316
-0.0606795
-0.0167104
-0.0676145
-0.074021
-0.0297561
-0.00130172
-0.0765144
0.0101487
-0.0815743
-0.00239213
-0.0127061
-0.0845087
0.000908751
-0.0648599
-0.0131921
-0.0113317
0.0007605
-0.0159319
-0.0562819
-0.028999
-0.0831333
-0.083149
-0.0309739
-0.0142427
-0.0713279
-0.0715199
0.00175569
-0.0587327
0.000618817
0.00910261
-0.0606161
-0.0820112
0.0085371
-0.0876836
0.0125555
0.000581962
-0.0245385
-0.00666387
-0.0135902
-0.0169794
-0.0668185
-0.00449121
-0.0397248
-0.0125469
-0.0628754
-0.0749002
-0.0588922
0.0120465
-0.0802103
-0.0719754
-0.0736974
-0.00150674
-0.0420534
-0.0851721
-0.032797
-0.00157599
-0.0626356
-0.0642104
-0.0116191
-0.010721
-0.0783766
-0.00346518
-0.00319079
-0.0243095
-0.0570105
-0.000854344
-0.0266931
-0.0259179
-0.0304305
-0.0364855
-0.00858558
-0.00878314
0.00477253
-0.0620538
-0.00908451
0.00666361
-0.069254
0.000681115
0.000941062
-0.0664094
-0.0427644
-0.0605655
-0.0286012
-0.0411828
-0.00770368
0.000488676
-0.00706245
-0.00731689
-0.0410677
-0.0651877
-0.081615
-0.051399
-0.0704667
-0.0207117
-0.0434187
-0.0100924
-0.0123376
-0.0722667
-0.0464644
0.0083264
-0.0602356
-0.0159522
-0.0176073
-0.046437
-0.000891994
0.00111568
0.0117471
-0.0251942
-0.00239679
-0.0361151
-0.0475348
-0.000324705
-0.0429195
-0.0616371
-0.0789536
-0.00857987
-0.0598446
-0.0267605
-0.0621267
-0.00489621
-0.0634088
-0.0611637
-0.017771
-0.0147691
0.0087869
-0.0682131
0.00489463
0.00101231
-0.058297
-0.060156
-0.0579657
-0.00168259
0.00468029
-0.0654933
0.00791503
-0.00373123
0.00208235
-0.00266854
-0.0029057
-0.0137194
-0.0091955
0.00838967
-0.0632835
0.0194167
-0.0637273
-0.00845382
0.00908569
-0.0305801
-0.0527871
-0.0289217
-0.0122866
-0.015169
-0.00288849
-0.00868676
-0.0721612
-0.0426474
-0.059369
0.00113576
-0.0145677
-0.0629601
-0.0905742
-0.0322172
-0.06263
-0.045636
-0.0343111
-0.00454852
-0.0103932
-0.0740164
-0.0754815
-0.00114193
-0.0252463
-0.0378872
-0.0208546
-0.00563308
-0.0853208
0.002284
-0.0743643
-0.0659079
-0.0714642
0.00578982
0.00122333
0.0089911
-0.0786105
0.0181572
-0.0198101
-0.0178689
-0.0133351
-0.0158953
0.00413931
-0.000741372
-0.0578977
-0.0169562
-0.0151576
-0.0627796
-0.0589592
-0.0390797
-0.00231945
-0.0218016
0.00106418
-0.0237538
-0.0641953
-0.00182622