/*--------------------------------*- C++ -*----------------------------------*\
| =========                 |                                                 |
| \\      /  F ield         | OpenFOAM: The Open Source CFD Toolbox           |
|  \\    /   O peration     | Version:  v2012                                 |
|   \\  /    A nd           | Website:  www.openfoam.com                      |
|    \\/     M anipulation  |                                                 |
\*---------------------------------------------------------------------------*/
FoamFile
{
    version     2.0;
    format      ascii;
    class       volVectorField;
    location    "900";
    object      U;
}
// * * * * * * * * * * * * * * * * * * * * * * * * * * * * * * * * * * * * * //

dimensions      [0 1 -1 0 0 0 0];


internalField   nonuniform List<vector> 
13917
(
(1.14142 0.146228 0)
(1.03511 0.0523619 0)
(0.403481 -0.111145 2.35935e-20)
(1.06786 -0.0278143 0)
(0.996558 0.0100971 -3.66028e-22)
(0.35987 0.124949 1.34074e-21)
(0.34857 -0.0983802 2.03341e-20)
(0.394525 -0.105976 2.2454e-20)
(0.163124 -0.0556065 1.22677e-19)
(1.19717 0.182554 -1.99807e-20)
(1.16051 -0.14689 6.5511e-20)
(1.11282 -0.101985 2.7712e-21)
(1.06821 -0.0290849 0)
(-0.220983 0.00397122 0)
(0.987328 0.122472 7.65744e-21)
(1.01324 0.113506 -1.40608e-22)
(1.02925 0.0599242 -7.00502e-21)
(1.20401 0.0049468 0)
(1.11079 -0.100487 0)
(1.00245 0.00697475 2.3348e-21)
(1.00003 0.00201747 1.5775e-22)
(0.32729 -0.0948745 -6.31542e-21)
(1.00234 0.0121051 1.30059e-21)
(0.454485 -0.11584 0)
(0.997747 0.02507 1.7059e-21)
(0.381187 -0.0970113 -1.98367e-20)
(0.78392 0.0785895 4.66174e-20)
(0.76354 0.171071 0)
(0.748536 0.646398 5.13138e-21)
(1.27355 0.109195 -3.85669e-20)
(1.16011 0.133299 -4.82477e-20)
(1.09309 0.107411 1.86901e-20)
(0.841497 0.109513 1.23818e-20)
(0.909229 0.0304687 8.70252e-20)
(0.993524 0.0230889 5.87139e-22)
(1.12627 -0.18161 -4.68198e-20)
(1.00213 0.0114874 4.068e-22)
(-0.0746733 -0.0288833 -5.29468e-20)
(1.076 -0.0384444 -1.02817e-20)
(0.165609 -0.0212954 3.96336e-22)
(1.0117 0.00105563 1.37403e-20)
(0.999984 0.000819826 -3.24906e-21)
(1.02565 0.00160412 2.66471e-20)
(0.711502 0.260412 0)
(1.05483 0.0264924 1.70878e-20)
(0.892041 0.0473022 -4.94088e-20)
(1.20025 0.0022653 1.68826e-20)
(1.20698 -0.0496407 0)
(0.11345 0.226164 -1.24586e-19)
(1.00496 0.00108565 5.15243e-23)
(1.1193 0.00277464 5.18896e-20)
(0.966271 0.0286376 -1.94483e-20)
(0.0854884 0.210078 1.81903e-20)
(0.904675 0.0324743 1.19858e-21)
(1.02808 0.0613114 0)
(1.12192 0.0376341 -2.09157e-20)
(1.16342 -0.145114 -5.02047e-20)
(1.00217 0.0427454 1.19298e-21)
(1.10281 0.0482726 0)
(1.05285 0.0262261 -1.75706e-20)
(0.250994 0.044589 0)
(1.03702 0.052223 -9.00429e-21)
(-0.168326 0.00730922 0)
(1.00264 0.00755005 2.89889e-22)
(0.388624 0.136999 -2.84734e-20)
(0.758766 0.279433 6.97425e-20)
(0.995202 0.00661118 9.05079e-22)
(0.987479 0.0100101 0)
(1.23855 -0.115772 0)
(1.10043 0.164794 0)
(0.996996 0.00997394 0)
(0.211694 -0.0642205 -1.06057e-19)
(-0.260375 -0.00157118 4.44513e-20)
(0.998274 0.0243879 0)
(0.116135 0.296368 0)
(1.09366 -0.110593 -1.95272e-20)
(-0.283345 0.00156318 -9.57575e-20)
(1.07596 0.026758 2.85695e-20)
(0.411823 -0.0908238 0)
(1.00001 0.00391859 -4.00165e-21)
(1.00035 0.00527733 -1.95309e-21)
(0.995775 0.00632584 -2.3336e-20)
(0.409101 0.198833 -1.31807e-19)
(-0.048859 -0.0345325 2.2787e-20)
(-0.151803 0.0317673 0)
(1.07419 0.025344 2.61817e-20)
(1.00082 0.00643582 -2.94319e-22)
(0.963308 0.373391 -6.24251e-20)
(1.11644 0.00296202 1.84522e-20)
(1.02616 0.00148437 -2.00445e-20)
(-0.200109 -0.0117201 0)
(1.24491 0.158938 5.82513e-20)
(1.03403 0.02829 1.04074e-20)
(0.983252 0.0751738 7.56184e-21)
(0.920719 0.365624 0)
(0.386625 0.0632922 0)
(1.19119 -0.117446 0)
(1.20717 -0.033005 -5.72023e-21)
(1.09771 -0.134557 0)
(0.61159 0.187637 0)
(1.01549 0.00719748 1.5605e-20)
(0.843432 0.0386894 0)
(0.700158 0.244317 -1.80068e-21)
(1.08489 0.0158907 -2.14457e-20)
(1.02306 0.0148138 0)
(0.214324 -0.055208 1.3476e-20)
(0.833421 0.583086 4.94644e-23)
(1.21125 -0.0513216 5.43597e-20)
(1.03165 0.060226 3.90913e-21)
(1.16043 0.151988 -5.23431e-20)
(-0.268165 0.0124669 -9.40095e-20)
(0.172688 -0.0229891 -5.19968e-21)
(1.11198 -0.115891 -3.86112e-21)
(0.184192 -0.053786 -5.75855e-20)
(0.948497 0.0311995 1.86873e-20)
(0.0828844 -0.0237216 8.68872e-20)
(1.00386 0.0209977 0)
(0.207135 0.177599 -1.17517e-19)
(0.00204985 -0.019663 0)
(0.907723 0.0449741 1.21243e-20)
(1 0.00159558 -1.74421e-21)
(1.24119 -0.112337 0)
(-0.0432157 -0.0183662 0)
(0.772025 0.163614 4.97722e-20)
(1.00726 0.000950266 0)
(0.984401 0.0720134 1.49155e-21)
(1.0496 0.0321581 7.7429e-21)
(1.00675 0.000778223 5.09426e-21)
(1.0225 0.00153818 0)
(0.364082 0.078952 8.49065e-20)
(0.0616898 -0.0420173 -7.58412e-20)
(0.950789 0.0298412 2.89996e-20)
(1.05559 0.0277488 0)
(0.999998 0.00162427 -2.65886e-21)
(1.00568 -0.0189379 9.78733e-20)
(0.472848 -0.121939 3.21523e-20)
(1.13824 0.15202 0)
(0.587934 0.189404 -3.79983e-20)
(0.994947 0.00727089 0)
(0.908062 0.0405131 5.50969e-20)
(1.16348 -0.179614 -7.80201e-21)
(1.03362 0.0143763 -1.37751e-20)
(0.96513 0.0422791 3.79505e-20)
(0.662017 0.259461 0)
(0.98696 0.0105195 -4.56534e-21)
(0.404549 -0.0800324 1.43224e-19)
(0.822307 0.653726 1.49844e-20)
(0.968363 0.0286612 1.62766e-20)
(1.03143 0.011944 0)
(1.08752 0.119318 0)
(1.16504 -0.0657858 0)
(0.0960067 -0.058737 1.94582e-19)
(1.15234 -0.110486 3.67901e-20)
(1.05808 0.218118 -8.07525e-22)
(1.11243 0.0726275 7.19597e-20)
(-0.101135 0.0507925 -5.38709e-20)
(1.09426 0.161766 0)
(0.992235 -0.161331 2.69556e-20)
(-0.307523 0.00418013 1.27438e-19)
(1.01102 -0.018963 -1.11713e-20)
(0.945321 0.0705153 1.07915e-20)
(0.780245 0.0181836 0)
(1.00015 0.00377834 2.34211e-21)
(1.18736 -0.115885 0)
(1.11391 -0.1147 0)
(1.09962 -0.134044 -2.00065e-20)
(1.08382 0.0172912 2.14843e-20)
(1.18496 -0.0534143 4.48711e-21)
(1.04526 0.0232187 -1.03801e-20)
(0.835935 0.035313 3.04106e-20)
(1.08089 0.209186 5.43278e-20)
(-0.364874 0.0217273 4.34094e-22)
(1.10581 -0.119996 0)
(1.02833 0.0715979 3.40126e-21)
(0.571474 -0.104862 0)
(1.04709 0.242429 2.44746e-20)
(0.0836032 -0.0481067 8.04622e-20)
(0.167254 0.182617 -1.30209e-19)
(0.461961 -0.0875778 -8.5372e-20)
(1.02149 0.0348269 7.23922e-21)
(1.25232 0.152689 -4.93374e-20)
(1.16718 0.131402 0)
(1.03417 0.0136908 0)
(1.00086 0.00702173 0)
(0.950296 0.147821 0)
(0.439399 -0.105411 -1.91254e-20)
(1.34554 0.170929 0)
(-0.0695121 0.0511948 3.55252e-19)
(1.16691 0.0389433 5.47454e-20)
(1.11676 -0.134204 3.41951e-21)
(1.19054 -0.178766 -4.99637e-20)
(-0.114482 0.0343188 1.90284e-19)
(1.33543 0.219768 -3.95796e-20)
(1.00091 0.0127234 0)
(0.565297 0.123542 2.38041e-19)
(0.794781 0.0794745 -3.36032e-20)
(1.01017 0.000382061 0)
(1.03451 0.0295878 -4.27683e-21)
(0.897637 0.512438 -4.59151e-21)
(1.15401 0.497487 -7.60237e-20)
(1.10175 -0.0218476 0)
(1.00454 0.000971021 5.57776e-21)
(1.17413 -0.0537099 -2.36164e-20)
(1.16166 -0.0656621 -2.05556e-20)
(-0.287083 0.00156119 4.87016e-20)
(1.12653 -0.0737256 -4.48432e-20)
(0.993673 0.0220277 0)
(1.00164 0.044193 0)
(1.2031 -0.0359198 -8.57743e-20)
(0.443876 -0.113493 5.86228e-20)
(0.96755 0.0421732 -4.22089e-20)
(0.327928 -0.0977879 6.00647e-21)
(-0.33328 0.00704917 7.68766e-20)
(1.11906 -0.133718 0)
(1.02262 0.0152313 -2.09136e-21)
(0.504473 0.479315 1.64066e-19)
(1.19076 -0.0338057 -5.96971e-20)
(-0.364481 0.0138227 2.21212e-19)
(1.00762 0.0261352 9.00152e-24)
(0.374226 0.0581989 -6.84144e-20)
(1.02075 0.0336427 -4.70734e-21)
(1.26594 0.0775074 8.39876e-20)
(1.01143 0.00130623 -8.18333e-21)
(-0.0977965 -0.0292327 6.53606e-20)
(0.194767 -0.049873 1.49248e-20)
(1.01493 0.117458 -1.20602e-21)
(1.25098 0.561773 0)
(1.11649 0.0709702 -1.96746e-20)
(1.02166 0.0147911 0)
(1.14268 -0.180741 8.85038e-20)
(1.10388 -0.118154 0)
(1.16497 0.0354451 -5.76075e-20)
(0.489879 -0.121814 -2.51769e-20)
(-0.352415 0.00988053 4.23205e-20)
(1.01637 0.00364584 0)
(1.09741 0.108656 -2.34607e-20)
(-0.17183 -0.0152926 6.56305e-22)
(-0.176506 0.0320029 -1.26422e-19)
(1.00014 0.00426284 -3.42123e-21)
(1.00934 0.0123123 0)
(0.223614 -0.0247757 0)
(1.2008 -0.12028 7.46881e-20)
(1.00006 0.000196503 0)
(1.13807 -0.169952 2.98463e-20)
(1.25731 -0.00763856 0)
(0.789657 0.0121618 2.34585e-20)
(1.13796 0.127934 5.26879e-20)
(1.00021 0.00406955 -2.04802e-21)
(1.00551 0.248768 -5.71604e-21)
(-0.330332 0.00783372 9.35373e-20)
(1.05219 -0.003071 -2.77444e-20)
(1.27144 0.174122 -3.84549e-20)
(0.575145 0.236307 0)
(1.04895 0.0305237 0)
(1.00117 0.0409442 4.11672e-21)
(1.1439 -0.0970846 -1.09277e-19)
(0.237757 -0.0334127 0)
(1.15053 -0.107847 -3.94405e-20)
(0.951871 0.153014 -1.60126e-20)
(0.991536 0.125109 3.25313e-21)
(1.00005 0.000345823 0)
(-0.0644284 -0.0123404 0)
(0.344815 -0.0272067 0)
(1.12513 -0.168865 -1.4118e-20)
(1.02114 0.0151803 0)
(-0.29615 0.00629461 9.14749e-20)
(-0.198284 -0.000926813 -3.84529e-20)
(0.921413 -0.157585 5.97555e-20)
(0.393035 -0.0867501 2.13258e-21)
(1.09335 -0.112941 -4.44764e-20)
(1.00027 0.00498916 -2.8246e-22)
(1.00878 0.00113147 0)
(1.19895 -0.00557785 -4.68379e-21)
(-0.17127 -0.0149816 -6.71723e-20)
(1.24668 -0.0696892 -1.39213e-19)
(1.10043 0.0456439 4.94666e-20)
(1.04114 -0.0703415 1.31187e-19)
(1.09111 -0.0788223 -2.61189e-20)
(1.02226 0.000982635 1.44157e-20)
(0.595252 0.0178718 -6.81359e-20)
(1.003 0.00673734 2.9589e-21)
(0.533401 -0.103236 0)
(1.09911 -0.020826 -2.74517e-20)
(1.00011 0.000199247 0)
(1.02143 0.137108 3.89719e-21)
(1.05174 0.220493 -2.42659e-20)
(0.781437 0.0303899 7.56472e-20)
(1.14533 -0.174548 -7.22665e-20)
(1.02215 0.178748 -2.72606e-21)
(1.05778 0.00537572 3.78705e-20)
(1.37876 0.0164284 -8.87808e-20)
(0.498089 -0.12145 2.82776e-20)
(0.259655 -0.0257192 2.28903e-19)
(1.00709 0.0255398 7.75057e-23)
(0.869356 -0.145345 -3.09999e-20)
(0.998399 0.00472403 8.35663e-21)
(1.05763 0.00407086 6.0807e-20)
(1.0038 0.0200304 0)
(0.835478 0.695965 -1.67453e-20)
(1.00232 0.00119066 2.54135e-21)
(1.27259 0.077673 -5.36661e-21)
(1.13208 0.127808 -6.24963e-20)
(1.04445 0.0220268 9.53583e-21)
(1.17362 -0.0577357 -1.99262e-21)
(1.05988 0.0689908 -1.08099e-20)
(0.121714 0.146327 2.08635e-19)
(1.04571 0.236562 -2.2318e-20)
(1.23757 0.155403 0)
(1.04112 0.0143763 -2.35949e-20)
(1.00166 0.0395673 -5.29309e-21)
(-0.281736 0.0145248 0)
(-0.0794799 -0.0129112 -7.75788e-20)
(1.00434 0.0217115 0)
(1.00992 0.00117172 0)
(0.647786 0.0245633 -1.52806e-19)
(1.0252 0.0322529 0)
(-0.239897 -0.0043498 1.21735e-19)
(1.0399 0.0144254 1.61983e-20)
(-0.0824881 -0.0315301 -7.58667e-20)
(1.05801 -0.0164646 0)
(1.27388 0.387399 0)
(1.14226 -0.0178408 -2.91961e-20)
(0.124325 0.367756 -1.25577e-19)
(0.949282 0.0696374 0)
(1.11534 -0.00743065 0)
(0.519121 0.36992 -9.17489e-20)
(1.02471 0.134152 9.23946e-21)
(1.20423 -0.117546 0)
(0.98554 0.599122 -5.55972e-21)
(1.00589 0.0597759 -3.14041e-21)
(-0.00676158 -0.0353578 0)
(0.57245 0.101745 -2.65245e-19)
(-0.190474 -0.00426331 8.513e-20)
(0.923234 0.0476916 0)
(0.0708069 -0.0161535 -6.73987e-20)
(1.1053 0.105868 0)
(-0.162621 0.0217858 1.345e-19)
(0.535664 0.347352 -6.96231e-20)
(0.946914 0.413873 0)
(0.964293 0.408176 0)
(0.349242 -0.104306 5.66606e-20)
(0.999894 0.00511475 0)
(1.08854 0.212899 -7.38341e-20)
(-0.237569 0.012159 1.68523e-19)
(0.988104 0.0461067 -5.04514e-21)
(1.01854 0.092336 -4.62141e-21)
(-0.17586 -0.00413858 6.54202e-20)
(0.883906 0.54974 5.21188e-21)
(1.03355 0.0669411 9.83356e-21)
(1.20613 -0.176658 -4.57175e-20)
(0.717179 0.617161 0)
(1.01292 0.00644484 -1.23535e-20)
(-0.0174362 -0.0148636 0)
(1.16621 -0.182555 0)
(1.00323 0.00726478 -6.00747e-21)
(1.0144 0.0170828 4.43933e-21)
(0.998529 0.00430664 -1.03701e-20)
(1.03183 0.0113564 -2.65041e-20)
(1.39178 0.0120518 8.91821e-20)
(0.506009 -0.0940611 -9.17975e-20)
(0.378637 -0.20364 6.63139e-20)
(-0.25179 0.0138026 0)
(1.0009 0.0232451 5.02212e-21)
(1.28026 0.173819 1.32226e-19)
(-0.215122 0.029606 1.02321e-20)
(1.1589 -0.0375024 1.19856e-20)
(0.309044 -0.0942929 -2.59909e-20)
(-0.143407 -0.0209915 0)
(0.166484 -0.0491968 0)
(1.01818 0.00660663 0)
(1.11766 -0.164941 0)
(1.01585 0.0162501 -9.09984e-21)
(0.484287 0.0676701 2.20615e-19)
(1.05182 0.0272991 -1.70394e-20)
(0.101751 0.419781 1.32872e-19)
(1.26122 -0.00403765 -3.36161e-20)
(1.08273 -0.0272884 1.93096e-20)
(0.999855 0.00619179 1.77669e-21)
(1.19885 -0.0337516 -7.66815e-20)
(1.25998 0.154614 -2.13512e-20)
(1.23008 -0.0157635 0)
(0.353022 1.18531 8.28852e-21)
(-0.19722 0.0208995 4.92999e-20)
(-0.388797 0.0162071 -2.8348e-19)
(1.01176 0.257701 9.7556e-23)
(1.18913 0.178781 5.20967e-20)
(1.00886 0.0117519 2.31243e-22)
(-0.157472 0.032651 2.04491e-19)
(0.323947 -0.0924967 -2.36362e-20)
(1.00761 0.0466146 6.32763e-22)
(1.23427 -0.000173389 8.20478e-20)
(0.997624 0.0196732 8.71761e-21)
(1.36142 -0.0471587 -1.34384e-19)
(1.0584 -0.0156358 2.31873e-20)
(0.999905 0.00438708 0)
(1.05452 0.0736862 -1.36822e-20)
(0.46939 -0.0853787 0)
(1.05238 0.0742754 -4.93599e-21)
(0.259321 -0.0395441 0)
(-0.101439 0.0572952 0)
(1.14274 -0.141301 0)
(0.450956 0.351777 1.14494e-19)
(1.00773 0.0589875 -9.60259e-23)
(0.504897 0.435488 -1.69083e-19)
(0.476755 0.376822 1.11833e-19)
(1.00433 0.0149548 1.98321e-22)
(0.846566 0.550539 -7.27497e-21)
(0.989522 0.0455585 0)
(0.996724 0.0226378 1.21616e-20)
(1.2708 0.115072 0)
(1.0001 0.000518194 0)
(0.996528 0.0249283 -8.00511e-21)
(1.0161 0.015941 1.32423e-20)
(1.3796 0.0158864 0)
(1.00004 0.00314674 -2.85881e-22)
(0.0787418 -0.0196019 7.23925e-20)
(0.565312 -0.104546 3.5925e-21)
(-0.150646 0.0340551 -1.57207e-19)
(1.32993 0.226961 -1.23073e-19)
(0.226271 -0.0475505 1.97847e-20)
(-0.361561 0.0122312 2.49738e-19)
(1.15537 -0.0378946 4.2962e-20)
(1.00114 0.0222484 -3.16095e-21)
(1.30805 -0.0022372 -7.41762e-20)
(1.07605 -0.0365069 0)
(1.10401 0.115315 0)
(1.00106 0.0135218 0)
(0.434533 -0.0879093 1.31174e-19)
(0.385058 -0.105049 2.2518e-20)
(0.625413 -0.111922 -3.06577e-21)
(1.00009 0.113153 -3.0017e-21)
(1.26462 -0.0230307 -7.64616e-20)
(0.926257 0.0441127 -6.94619e-21)
(1.07777 -0.039722 -2.96629e-20)
(1.22659 -0.0185313 -4.0077e-20)
(1.0374 0.0776832 7.99946e-22)
(1.11267 -0.163446 -4.67706e-22)
(1.03271 0.0584933 4.25331e-21)
(1.00229 0.0014046 4.94678e-21)
(-0.210365 -0.00789601 -3.83676e-20)
(0.0828241 -0.0462809 0)
(0.102844 -0.0510682 -7.87564e-21)
(1.24396 0.256234 -8.90179e-20)
(-0.154893 0.0292889 1.34596e-19)
(0.0206811 -0.0421841 0)
(-0.218891 0.0043198 4.73224e-22)
(-0.25085 -0.00226057 2.26903e-19)
(1.02175 0.00182222 -1.28233e-20)
(1.20179 -0.0204553 -8.69885e-20)
(1.03977 0.0772184 0)
(0.999235 0.0455707 -7.32248e-21)
(1.20649 -0.0643294 -1.21801e-19)
(1.20213 -0.00299655 -2.17873e-20)
(1.02221 -0.000355556 -9.01627e-21)
(1.22707 0.0479641 -4.68057e-20)
(1.15715 -0.0288975 4.38567e-20)
(-0.243957 0.00227843 0)
(1.00466 0.0154525 0)
(1.21823 -0.0946675 -3.2862e-20)
(-0.0581438 0.034499 -1.31657e-19)
(1.30482 0.408154 0)
(0.075959 -0.024623 -3.56924e-20)
(1.00005 0.00282063 -1.60845e-22)
(1.00642 0.0472999 0)
(1.01546 0.000527581 -9.44492e-21)
(1.08816 0.166593 0)
(1.01804 0.00611634 0)
(0.511097 -0.113602 0)
(0.391141 -0.165477 0)
(1.02522 0.172397 2.3291e-21)
(-0.123646 0.0371824 1.11045e-19)
(1.12084 0.0343084 3.97858e-20)
(1.18396 -0.119401 4.0878e-21)
(-0.185238 0.00262716 -1.73779e-19)
(0.84392 0.655119 -2.12001e-20)
(1.13952 -0.139827 0)
(1.1655 -0.18216 1.01314e-20)
(1.21706 -0.0979246 0)
(1.22301 0.0718618 4.05781e-20)
(1.29546 -0.0301755 5.26668e-20)
(1.12445 -0.0679195 -4.2389e-20)
(1.12791 -0.147946 6.1741e-20)
(0.379405 0.18032 0)
(1.1134 -0.0814141 3.84647e-20)
(1.20986 -0.0665859 -2.88707e-20)
(1.01926 0.00078037 5.50058e-21)
(1.10745 -0.0334036 1.00279e-19)
(1.12424 0.00654847 -4.00315e-20)
(1.03775 0.000178806 0)
(1.08256 0.162551 -2.74807e-21)
(1.07896 0.0238964 -3.21034e-20)
(-0.241012 -0.00217096 1.46433e-19)
(0.205324 -0.0579648 1.33842e-19)
(1.02409 0.0311071 4.46892e-21)
(1.02212 0.000793906 -1.52094e-20)
(0.520799 -0.121309 0)
(-0.382451 0.014845 -3.29382e-19)
(1.00009 0.000392034 0)
(0.053833 -0.0178344 0)
(1.07507 -0.00527544 1.78885e-20)
(1.31631 0.201617 0)
(1.02372 0.0337493 9.82767e-22)
(-0.310266 0.00651261 0)
(1.03551 -0.128942 3.54245e-20)
(1.09103 0.116227 2.44893e-20)
(1.05537 0.0442208 1.12158e-20)
(0.252894 -0.0543286 2.59475e-20)
(1.33953 0.170114 -6.97811e-20)
(-0.267276 0.023405 -1.60971e-19)
(1.00007 0.000468848 0)
(-0.324919 0.00589655 1.15636e-19)
(0.139729 0.145359 -1.19042e-19)
(0.621208 0.0263688 0)
(1.0381 0.000825668 9.13474e-21)
(-0.175524 0.0315729 0)
(0.081287 -0.01733 6.76633e-20)
(1.15409 -0.0438513 0)
(1.01512 0.0170538 -7.58392e-21)
(1.02211 0.0614725 -1.59014e-21)
(1.08866 -0.110044 -3.51893e-20)
(1.35338 -0.0525706 1.85168e-19)
(1.02255 -0.000428337 1.76599e-21)
(1.01366 0.0162227 0)
(1.00716 0.00328793 3.19422e-21)
(1.0076 0.00342439 -3.22168e-21)
(-0.321913 0.00746404 0)
(1.23232 -0.0595555 -8.53129e-20)
(1.15356 -0.0414688 0)
(1.34592 0.154894 0)
(1.00885 0.000890571 -6.05085e-24)
(1.01489 0.00686814 -1.3242e-20)
(1.2595 -0.0259625 -7.57489e-20)
(-0.0228529 -0.0184837 1.50763e-20)
(1.15277 0.0545064 4.2126e-20)
(1.04681 0.0233413 0)
(0.997279 0.0230737 -5.97357e-21)
(0.992139 0.00914309 5.5263e-21)
(0.565888 0.0198821 1.87973e-19)
(-0.084177 0.0354803 -1.98161e-19)
(1.00098 0.00594327 -1.90131e-22)
(0.992832 0.0121803 1.12598e-20)
(1.11308 -0.162883 0)
(1.12583 -0.0653609 3.64501e-20)
(1.1406 -0.0198819 -6.56669e-22)
(1.00495 0.045812 0)
(1.04932 0.0781636 0)
(1.07276 0.115473 -1.81436e-20)
(1.20573 -0.0680022 0)
(0.980195 0.570243 3.32406e-20)
(1.34973 0.165638 4.07616e-20)
(1.31104 -0.00832852 1.86976e-19)
(1.24166 -0.0505617 -1.81907e-20)
(1.08368 -0.077915 0)
(1.23761 0.146631 0)
(1.00599 0.0250877 -6.32779e-22)
(-0.315075 0.0056016 -9.24477e-20)
(0.992389 0.00836894 6.99355e-22)
(1.01973 0.0957108 4.48419e-21)
(1.08797 -0.016553 -4.51828e-23)
(1.12501 -0.0376171 -1.03289e-19)
(1.02435 0.344221 -3.85832e-21)
(1.01356 0.00155964 5.63289e-21)
(1.30397 0.395489 8.87659e-20)
(1.28583 0.100774 -1.35408e-19)
(-0.135114 -0.0259386 0)
(1.24369 -0.0468774 9.73795e-20)
(0.899581 0.17652 -3.64163e-20)
(1.16104 -0.0305213 -4.78229e-20)
(0.999714 0.00679484 7.99976e-21)
(0.205291 -0.0238874 -7.14438e-20)
(1.28837 0.381466 -4.26888e-20)
(0.17762 -0.0759661 4.80148e-20)
(1.0315 0.0559053 -1.11271e-20)
(1.13764 0.0407488 1.51764e-20)
(1.35058 0.150266 0)
(-0.135633 -0.0229847 -1.56423e-20)
(-0.289982 0.0157842 0)
(1.21145 -0.0353442 6.17812e-21)
(1.25449 0.258644 1.30904e-20)
(1.00849 0.1128 3.23728e-22)
(1.08399 0.0655478 0)
(1.00386 0.0465669 0)
(0.907949 0.281557 2.2754e-21)
(0.677358 0.239994 4.96752e-20)
(0.972204 0.0128936 8.42294e-21)
(1.18676 -0.0360214 7.39115e-20)
(0.572777 0.210262 1.24599e-19)
(0.189979 -0.0782257 -3.63013e-20)
(-0.262714 0.0250413 5.66453e-23)
(1.05482 0.0902878 -1.30401e-20)
(1.18049 -0.118316 -3.05337e-20)
(1.10121 -0.137098 0)
(1.02759 0.146192 -5.3428e-21)
(0.971713 0.043565 7.54453e-21)
(0.192763 0.623737 5.40228e-20)
(0.361959 -0.0549979 -2.03574e-19)
(0.363542 -0.0839382 -9.46395e-20)
(1.34489 0.134728 0)
(1.02246 0.00178817 0)
(-0.0147568 -0.0170224 0)
(1.09134 -0.109174 0)
(1.01349 0.00117282 0)
(1.13628 0.0850327 -2.06205e-21)
(1.17952 -0.0863645 0)
(0.851203 0.110391 0)
(1.26956 0.102676 0)
(0.395971 -0.0920336 1.65507e-20)
(1.28967 -0.0319317 -2.41176e-20)
(1.11906 -0.060596 1.35184e-20)
(0.207283 -0.0225297 1.20959e-19)
(1.08307 0.0319331 -5.17649e-20)
(-0.272991 0.000251777 -1.70572e-19)
(1.00011 0.00385608 6.82579e-21)
(1.00101 0.00640098 2.48588e-22)
(0.842367 -0.145742 0)
(0.336009 -0.054847 1.14748e-19)
(0.383214 0.312845 -1.3633e-19)
(1.08356 0.0298781 3.34511e-20)
(1.02954 0.0690558 0)
(0.99335 0.012402 -1.0486e-20)
(1.09315 -0.0798938 -2.01925e-21)
(0.089862 0.266526 1.32249e-19)
(1.10027 -0.13175 5.50599e-20)
(1.08711 0.0658002 -2.73987e-20)
(1.14001 -0.136096 8.95791e-20)
(1.19491 -0.0362752 6.56542e-20)
(1.02377 0.0347127 -6.14078e-21)
(1.23467 0.572906 9.62033e-20)
(1.09813 -0.13014 -7.46057e-21)
(1.09757 -0.154821 0)
(1.01003 0.0275067 -2.23814e-21)
(1.28343 -0.0401107 -2.84621e-20)
(1.07807 0.0262679 -3.23232e-20)
(-0.0715613 0.0669585 0)
(1.2047 0.178713 -2.12967e-20)
(1.03622 0.336238 0)
(1.13948 0.0432866 0)
(1.01085 0.00372029 -7.76196e-21)
(1.03604 0.0043767 7.72102e-21)
(1.05136 0.0326457 8.43177e-21)
(0.997872 0.414459 0)
(0.891178 0.052788 5.66278e-20)
(1.3509 0.0565602 -1.93406e-19)
(0.473409 0.891351 1.21865e-20)
(1.18549 -0.0492071 -3.6728e-20)
(1.0123 0.00642993 0)
(1.29403 -0.0195762 -6.42439e-20)
(0.381751 0.34477 0)
(1.10382 -0.181442 0)
(1.05138 -0.00212919 2.83666e-20)
(0.902209 0.06463 2.49046e-20)
(1.01296 0.0162048 0)
(1.0968 -0.0452298 -3.53484e-20)
(1.10611 0.0474464 0)
(0.0662174 -0.0155603 3.61184e-20)
(1 0.00434329 1.48491e-22)
(1.23936 0.558213 -6.90589e-20)
(1.10001 -0.0409699 0)
(1.15716 -0.148032 1.20552e-20)
(1.24008 0.173949 0)
(-0.269486 0.00155277 4.75283e-20)
(1.062 0.33394 0)
(1.02125 0.0594788 0)
(-0.204311 -0.0108066 7.49152e-20)
(-0.40921 0.015899 0)
(1.01601 0.0468317 1.03863e-21)
(1.08615 -0.0174225 0)
(1.03809 -0.120484 -6.90434e-20)
(1.33966 0.137628 -6.11919e-20)
(1.24178 -0.070826 1.56534e-19)
(1.00024 0.00056392 0)
(1.05699 0.0439155 -1.79414e-20)
(1.2603 0.377008 0)
(1.0832 -0.0288975 -5.97256e-20)
(1.22917 -0.0100778 -1.06168e-19)
(1.14295 -0.0934834 -3.97836e-20)
(1.03684 0.00403366 8.70736e-21)
(1.15714 -0.0700794 5.35498e-20)
(0.41069 -0.111926 -2.61131e-20)
(1.05017 -0.00415289 0)
(1.0657 -0.0213932 1.72586e-20)
(1.00643 0.00352316 -5.28422e-21)
(-0.0807821 -0.00985988 5.02381e-20)
(1 0.00202653 1.80689e-21)
(0.999939 0.10863 0)
(-0.358733 0.019768 0)
(1.00803 0.089484 -4.94005e-23)
(0.393236 -0.0579505 -6.70949e-21)
(1.1112 0.0763197 -3.58687e-20)
(0.836153 0.115904 1.57098e-20)
(1.00689 0.00367157 0)
(1.05609 0.259029 -3.06799e-20)
(1.0033 0.0192038 4.50904e-22)
(1.2196 0.0829619 -9.53044e-20)
(1.01037 0.00224972 6.76386e-21)
(1.12898 0.312005 3.0526e-21)
(1.07494 -0.00409458 1.77696e-20)
(0.062914 0.090285 0)
(0.445917 0.75963 1.02117e-20)
(-0.0256283 -0.0193615 5.67375e-20)
(1.01487 0.00050829 -1.93223e-21)
(0.999875 0.00562459 0)
(1.23059 0.142399 0)
(1.17962 0.135694 -3.61269e-20)
(-0.132321 -0.0126196 1.65722e-20)
(0.0616462 -0.0367408 -1.08298e-19)
(1.20529 0.0105438 -1.97334e-20)
(0.994736 0.0218954 0)
(1.36378 0.0121501 -5.75128e-20)
(0.350987 0.288972 1.42081e-19)
(1.09699 -0.154439 0)
(1.34064 0.0603794 2.11499e-19)
(1.19185 -0.0115037 -7.1461e-20)
(0.454051 -0.0940358 1.53342e-20)
(1.12919 0.15754 0)
(1.09105 -0.0763001 2.39717e-20)
(1.29973 0.0162447 0)
(0.878292 0.48981 3.65093e-21)
(1.20268 0.0135638 0)
(0.316066 0.367281 0)
(1.20299 0.0230398 0)
(1.07459 -0.0212218 1.75857e-20)
(1.18223 -0.0891168 -4.89333e-20)
(1.02984 0.135533 -4.49257e-21)
(1.04272 0.00116302 -1.99473e-20)
(1.09715 -0.0435939 5.63487e-20)
(1.1627 0.145537 0)
(1.08217 0.117608 2.81736e-20)
(1.00201 0.0196545 6.0799e-21)
(1.00942 0.000706714 6.5842e-24)
(1.1905 -0.0434933 -8.06988e-20)
(1.08516 0.00212797 1.12322e-20)
(1.23349 -0.00768065 1.14956e-19)
(0.995348 0.0212287 0)
(0.996681 0.0173063 -2.83198e-22)
(0.999971 0.00164651 2.90334e-21)
(1.04437 0.0789163 1.85902e-20)
(1.02815 -0.000926198 1.6042e-20)
(1.07829 0.100039 0)
(1.00574 0.00376392 -1.37664e-21)
(-0.316296 0.00766184 0)
(1.10621 -0.101272 -2.42213e-20)
(0.46345 -0.212736 0)
(1.01659 0.00634838 -1.02383e-20)
(1.00015 0.00269597 5.41369e-22)
(0.810743 0.19231 0)
(1.22787 0.0689809 0)
(0.953077 0.0250244 0)
(0.478435 0.00821447 -1.3435e-19)
(1.1903 0.239065 -5.2509e-20)
(0.639745 0.0856573 0)
(1.09956 -0.0426216 -1.38819e-20)
(1.27517 -0.0251218 0)
(1.06998 0.0111797 0)
(0.999874 0.00187827 0)
(1.00792 0.00304286 6.47479e-21)
(1.05785 0.0705513 3.10962e-20)
(-0.358498 0.019782 0)
(1.00011 0.00227912 0)
(0.924229 -0.0794641 0)
(1.08033 0.102891 4.19715e-20)
(-0.21351 0.0317277 0)
(0.993563 0.271177 -5.93871e-21)
(1.1993 0.236919 0)
(1.15362 -0.146161 1.51624e-20)
(1.02724 0.00630294 1.04776e-20)
(1 6.65603e-05 2.50726e-21)
(1.10852 -0.102573 0)
(0.988508 0.0149488 6.68565e-21)
(0.9942 0.0610187 -3.27117e-21)
(0.612832 0.00224116 0)
(1.02995 0.0738148 0)
(0.998642 0.00495644 0)
(1.12425 0.0595024 2.57605e-20)
(1.00933 0.0104568 0)
(1.02116 0.000869118 -7.0155e-21)
(1.08987 0.111001 5.69126e-20)
(0.880854 0.00991594 0)
(-0.155062 -0.0068492 -1.99123e-20)
(1.12236 0.132825 0)
(1.04994 -0.00485272 -1.7109e-20)
(1.01251 0.00124435 -3.2612e-21)
(-0.105489 -0.0286688 1.47184e-20)
(0.982052 0.422688 0)
(1.01289 0.056526 -1.0521e-21)
(1.03254 0.0549301 4.44918e-21)
(0.566167 0.00797017 6.48375e-20)
(1.0628 -0.125303 1.17787e-19)
(-0.387066 0.0158898 2.76439e-19)
(0.907989 0.176409 5.49701e-20)
(1.07617 -0.0203267 1.94301e-22)
(1.01592 0.0038197 0)
(1.02137 0.00100853 -7.19303e-21)
(1.11601 -0.0822017 -1.69327e-22)
(1.1284 0.134 -2.64276e-22)
(1.21563 -0.168618 0)
(0.9191 0.0481552 0)
(-0.0319166 -0.0290321 0)
(1.04546 0.0523953 -8.14913e-21)
(0.974945 0.083319 0)
(-0.388508 0.0188198 1.18086e-20)
(0.99723 0.0190808 -4.72939e-21)
(1.12553 0.00389954 5.75589e-20)
(1.01381 0.0426234 0)
(1.00293 0.00179824 9.65355e-22)
(1.15332 0.15246 1.04725e-19)
(0.771918 0.0377774 -1.21359e-19)
(1.06944 0.0284511 1.45813e-20)
(0.36017 -0.0571234 2.92777e-20)
(0.182627 -0.027387 0)
(1.24616 0.16815 5.84781e-20)
(1.00654 0.0258034 1.22865e-22)
(1.03117 0.000505227 1.38547e-20)
(1.11271 -0.132838 -7.48281e-20)
(0.965919 -0.0767234 0)
(1.0001 0.000643946 0)
(1.16562 -0.0880148 -1.11325e-19)
(1.03061 0.00085964 4.20293e-23)
(1.15814 0.139192 1.43217e-21)
(1.0414 -0.0078457 -2.48476e-20)
(1.04478 0.00311986 9.59977e-21)
(1.32591 -0.0538161 -9.60683e-20)
(1.0545 0.0146321 3.90719e-21)
(0.954636 -0.139992 0)
(1.1649 0.103977 2.60325e-20)
(0.99997 0.00161379 0)
(1.02556 0.00286576 -1.81908e-20)
(0.981051 0.0153345 1.33425e-20)
(1.01631 0.0268949 -5.57579e-21)
(1.06545 -0.019815 0)
(0.289032 0.763582 0)
(1.04914 -0.00124352 0)
(1.04101 0.00937033 0)
(0.132274 -0.0622037 -6.15405e-22)
(0.323286 -0.0731615 -2.31896e-19)
(1.12088 -0.0632778 1.7482e-20)
(1.17253 0.13728 0)
(1.2189 -0.0245357 -1.6603e-19)
(1.10791 0.0182286 0)
(1.03378 0.0159749 1.9745e-20)
(0.887547 0.0454441 1.98915e-20)
(-0.295198 0.00208265 3.66567e-20)
(1.14046 0.313809 -5.69721e-20)
(0.998923 0.0107986 -5.03616e-21)
(1.05344 0.0432702 -2.60139e-20)
(0.0855267 -0.0396524 6.47643e-20)
(1.16258 0.00595765 -5.39401e-22)
(-0.20948 0.0133571 -2.41868e-19)
(1.00001 0.00204036 -3.05451e-21)
(0.950803 0.0264136 -1.75039e-20)
(-0.100802 -0.00806326 2.72443e-20)
(1.15051 -0.00236838 -7.60921e-20)
(1.07202 0.0261105 -4.31676e-20)
(-0.335357 0.0201431 0)
(0.224077 0.319832 0)
(1.01649 0.0261136 0)
(1.29399 0.0175504 0)
(1.00835 0.00317912 -7.85682e-21)
(1.053 0.014858 0)
(1.01708 0.00665447 6.65257e-21)
(-0.273122 0.00413172 -4.84464e-20)
(1.02759 -0.0010041 0)
(1.04698 -0.0121147 1.55153e-20)
(1.03436 0.0152784 0)
(0.90189 -0.13584 -2.30201e-20)
(1.07641 -0.0331072 1.24337e-20)
(1.3224 0.193954 -6.53038e-20)
(0.695894 -0.0414652 2.33049e-21)
(1.0449 0.000552166 5.59651e-21)
(0.845834 0.0661052 -5.40988e-20)
(1.00098 0.00558589 -3.76669e-22)
(-0.241142 0.0142889 5.1153e-20)
(1.0087 0.0142829 -3.15208e-21)
(1.04986 -0.0021562 0)
(0.998736 0.00543737 0)
(1.11426 -0.134357 9.99037e-20)
(0.998525 0.0055507 0)
(1.28887 -0.0385945 0)
(0.197951 -0.0233455 9.28193e-23)
(0.533751 -0.127366 0)
(0.907337 0.0644487 2.48101e-21)
(1.17132 -0.181866 4.36654e-20)
(-0.330259 0.0182179 1.2875e-19)
(1.003 0.0394994 0)
(-0.0334396 -0.0123318 1.52551e-21)
(0.162031 0.0437544 0)
(-0.311275 0.0186771 -2.27176e-19)
(0.209643 -0.0462853 0)
(0.117002 -0.0612704 1.39452e-20)
(0.0340196 0.114675 3.54428e-20)
(1.2892 -0.0181321 0)
(1.02428 0.0623244 2.74273e-21)
(0.381042 -0.088561 1.12512e-21)
(1.14977 0.000843508 7.19914e-20)
(0.288918 -0.0864595 0)
(1.03736 0.00151908 -2.339e-20)
(1.03502 0.0275089 -2.38243e-20)
(1.01484 0.057416 1.30995e-21)
(1.00107 0.00603805 0)
(1.11428 0.0106942 0)
(0.9004 0.128613 0)
(-0.0800276 -0.0182175 3.19709e-20)
(1.03458 0.026273 0)
(0.994344 0.0127573 -1.01703e-20)
(-0.239825 0.0273436 9.24499e-20)
(1.00468 0.524199 6.60889e-20)
(0.980986 0.0139894 -1.43135e-20)
(0.806533 -0.0103212 0)
(1.13478 0.0614473 -2.23087e-20)
(1.0625 0.0211115 2.08727e-20)
(0.507238 0.796352 0)
(0.801194 -0.00493612 4.77819e-20)
(0.959412 0.0767647 -3.38667e-20)
(1.07735 -0.0321363 0)
(0.160237 -0.0211767 2.73156e-20)
(-0.375377 0.0204453 -4.34654e-20)
(0.226296 0.141769 0)
(1.04098 -0.00708491 2.35154e-20)
(1.3345 0.178807 1.39189e-19)
(1.28171 0.0952801 7.18213e-20)
(-0.265682 0.0233413 0)
(0.152351 -0.0459685 -6.83247e-20)
(1.09934 -0.117666 2.58005e-20)
(1.02506 0.0335854 0)
(1.07159 0.0119798 1.62657e-20)
(1.04375 0.0530882 8.26647e-21)
(1.02287 -0.000557559 6.02875e-21)
(1.0477 0.0798046 0)
(1.02162 0.00158948 6.79761e-21)
(1.07551 0.113362 0)
(1.12393 0.157382 0)
(-0.111667 0.0372229 0)
(1.2244 -0.102455 0)
(1.04781 -0.0115231 6.2094e-23)
(1.26989 -0.0272089 -4.41166e-22)
(-0.207363 0.00362465 1.09034e-19)
(1.14898 0.146091 -4.66908e-20)
(0.976319 0.0423081 1.86377e-20)
(-0.277165 0.00437983 9.58032e-20)
(1.04279 0.0218361 1.02911e-20)
(0.994788 0.0584965 6.86098e-21)
(0.821161 0.106437 3.44311e-20)
(-0.0827851 0.0416219 -1.11252e-19)
(0.998363 0.0041749 0)
(1.00962 0.0281159 1.7312e-21)
(0.304913 -0.0948729 6.6222e-20)
(1.18578 -0.177757 8.96173e-20)
(1.13585 -0.143253 6.88204e-20)
(1.24404 -0.0591533 -7.71082e-20)
(1.13609 -0.182201 6.79611e-20)
(1.01377 0.0257398 4.6818e-21)
(1.3071 -0.0180148 4.40694e-21)
(0.975745 0.0446144 -6.92564e-21)
(1.00637 0.0155331 -2.93995e-21)
(0.972728 0.040872 0)
(0.465234 -0.108887 -1.63115e-20)
(-0.367344 0.0157061 -2.84428e-19)
(1.04206 0.00693286 -8.27806e-23)
(1.02613 0.00275677 2.32687e-20)
(1.01408 0.0443596 0)
(1.00175 -0.12246 1.842e-20)
(1.04266 0.0775374 -1.85708e-20)
(1.13917 0.0342409 5.48141e-20)
(0.989395 0.0142716 0)
(1.03192 0.064613 -7.49759e-21)
(1.3053 -0.0140989 -6.06603e-20)
(1.04566 -0.00028995 0)
(1.22428 0.0798113 7.19987e-20)
(1.15093 0.469202 1.35253e-23)
(0.122966 -0.053773 0)
(1.04718 0.0300886 -6.36988e-21)
(1.1083 0.321069 0)