/*--------------------------------*- C++ -*----------------------------------*\
| =========                 |                                                 |
| \\      /  F ield         | OpenFOAM: The Open Source CFD Toolbox           |
|  \\    /   O peration     | Version:  v2012                                 |
|   \\  /    A nd           | Website:  www.openfoam.com                      |
|    \\/     M anipulation  |                                                 |
\*---------------------------------------------------------------------------*/
FoamFile
{
    version     2.0;
    format      ascii;
    class       volScalarField::Internal;
    location    "900";
    object      V0;
}
// * * * * * * * * * * * * * * * * * * * * * * * * * * * * * * * * * * * * * //

dimensions      [0 3 0 0 0 0 0];


value           nonuniform List<scalar> 
13917
(
0.0120497
0.0430319
0.00275438
0.0345868
0.120613
0.0022472
0.00227953
0.00146446
0.0017747
0.00795869
0.0043931
0.0091418
0.0248046
0.00135283
0.0217767
0.0264984
0.0408246
0.00910264
0.0104373
0.158134
0.136663
0.00191974
0.124051
0.00200141
0.0722637
0.00214519
0.00739048
0.00497682
0.00208811
0.0059926
0.0112267
0.0179876
0.0111484
0.0171224
0.0710911
0.00311846
0.122
0.00145129
0.0267602
0.00123056
0.173975
0.172406
0.132239
0.00481949
0.0437794
0.0172214
0.0103077
0.00766579
0.00167498
0.170321
0.0158292
0.0391359
0.00147155
0.0159081
0.038425
0.0197023
0.00562532
0.0666639
0.0272306
0.0424985
0.00238106
0.0486033
0.00124849
0.136787
0.00319385
0.00243818
0.113773
0.0676586
0.00368883
0.0126253
0.128976
0.00179936
0.00141636
0.0959389
0.00149402
0.00889892
0.00124697
0.037277
0.00232673
0.146863
0.153449
0.109266
0.00262314
0.00171518
0.00193797
0.0384994
0.141849
0.00192622
0.020972
0.106367
0.00145162
0.00762111
0.0696704
0.0311524
0.00154833
0.00296466
0.0050722
0.00778493
0.00480737
0.00521136
0.126703
0.0119293
0.0041752
0.0273575
0.0901569
0.00226219
0.00352028
0.00664977
0.0436648
0.00987634
0.00166481
0.00155448
0.00627171
0.00196175
0.0264436
0.00132669
0.103579
0.00174251
0.00140294
0.0157269
0.164081
0.00418742
0.00125186
0.00674101
0.150294
0.0343817
0.0429628
0.170439
0.172468
0.00224725
0.00129582
0.0330735
0.0441588
0.140575
0.00326181
0.00206117
0.0113188
0.00359272
0.101376
0.0171971
0.00417998
0.0762267
0.0410243
0.00434637
0.0567201
0.00259699
0.00233698
0.0470401
0.0880158
0.0193297
0.00930073
0.00118019
0.00732406
0.00909078
0.0211653
0.00190109
0.0147137
0.00313243
0.00125535
0.00319708
0.023438
0.00817871
0.16228
0.00560176
0.00794663
0.00459285
0.0265661
0.00878259
0.0625728
0.00953338
0.0106996
0.00132121
0.00607343
0.0353477
0.00272394
0.00742918
0.0016201
0.00163876
0.00278059
0.0661092
0.00656054
0.012335
0.0772789
0.126764
0.0151213
0.00234462
0.0042306
0.00208206
0.0101458
0.00351813
0.00311594
0.00194553
0.00351529
0.143161
0.00369291
0.00782227
0.188142
0.0557977
0.00378067
0.00203426
0.0215323
0.129689
0.0112228
0.0102048
0.00134577
0.00298673
0.0608444
0.0588542
0.00808629
0.00270121
0.0444061
0.00225088
0.00138499
0.00541727
0.0919543
0.00268066
0.00949975
0.00154526
0.0703878
0.00271815
0.0785196
0.00562837
0.142992
0.00137497
0.0020179
0.023517
0.00354999
0.0187062
0.104085
0.0027148
0.00639856
0.0108704
0.00256806
0.00105127
0.141124
0.0161479
0.00172973
0.00120604
0.139011
0.116301
0.00131686
0.0043548
0.162479
0.00393187
0.00714311
0.00733631
0.0128043
0.164006
0.0114501
0.00128544
0.0562875
0.00651873
0.0038609
0.0467099
0.0592884
0.00805257
0.00133747
0.00667103
0.0119805
0.0200469
0.177302
0.00112783
0.00261981
0.00341696
0.0834564
0.00153437
0.00126426
0.00287741
0.00192018
0.00765357
0.160147
0.185636
0.00888429
0.00140246
0.00583698
0.0271773
0.00297168
0.0115199
0.161344
0.00230488
0.138787
0.00243322
0.0248942
0.133641
0.0181747
0.00810748
0.00990315
0.00324454
0.0125808
0.0494019
0.00338192
0.00219576
0.00195133
0.0804391
0.00295893
0.124138
0.0520133
0.110274
0.00203274
0.183898
0.00520217
0.0147796
0.0679252
0.0092815
0.0320447
0.00103692
0.00810706
0.00813127
0.0659638
0.0611382
0.00153604
0.0013542
0.0883336
0.155639
0.00268556
0.0716774
0.00150779
0.0772093
0.00126353
0.0393445
0.00388378
0.0160373
0.00142433
0.0255833
0.00308377
0.00260816
0.0184818
0.00370612
0.00271171
0.0407216
0.00158871
0.00324855
0.00103812
0.0201571
0.00128048
0.0167763
0.00184929
0.00359649
0.00445687
0.00506442
0.00220743
0.123985
0.0108419
0.00186623
0.0408472
0.0281737
0.00139481
0.00338293
0.0436865
0.00351252
0.00198975
0.144716
0.00146211
0.0035838
0.133374
0.105203
0.138922
0.0790616
0.00330844
0.00244721
0.00242194
0.00183799
0.0892779
0.00551333
0.00127678
0.0114269
0.00193266
0.00166305
0.00193236
0.108877
0.00378219
0.0904049
0.00250265
0.0413519
0.0013381
0.00654008
0.0311807
0.109754
0.00883788
0.00525313
0.00610656
0.00121807
0.00163913
0.00122908
0.0100642
0.0064814
0.0996161
0.0012485
0.00195776
0.0589622
0.00383459
0.104623
0.00397296
0.0367838
0.135581
0.0232329
0.00167867
0.0279415
0.00168019
0.00148709
0.00245948
0.00246309
0.0395977
0.00259735
0.00238576
0.125642
0.00379446
0.0471896
0.0660332
0.00489799
0.177517
0.0981685
0.0822661
0.00362798
0.142055
0.00144978
0.00213163
0.00134671
0.00329166
0.00158014
0.00128626
0.012314
0.0944539
0.00522591
0.0233883
0.0166697
0.125316
0.00259434
0.00240096
0.0025831
0.0211009
0.00573439
0.0233344
0.0280955
0.00727352
0.0293821
0.00298782
0.0408945
0.153005
0.001571
0.00147969
0.00154105
0.00549097
0.00119573
0.00178674
0.00151026
0.00150317
0.142923
0.0079138
0.0290997
0.0539439
0.00325778
0.00767445
0.159708
0.00834258
0.012332
0.00135036
0.100222
0.00561668
0.0016536
0.00307761
0.00121003
0.133952
0.0505838
0.161069
0.0115042
0.131212
0.00229881
0.00270727
0.0146949
0.0017059
0.0207015
0.00474587
0.00158467
0.00149378
0.00453881
0.00334541
0.00484688
0.0092883
0.00463675
0.0113452
0.00444152
0.00232209
0.00950985
0.0053421
0.154718
0.00278002
0.021432
0.0795343
0.0125121
0.033714
0.00150361
0.00164312
0.0697971
0.152844
0.00240657
0.00112529
0.180819
0.00124368
0.0295005
0.00414917
0.072986
0.00108043
0.00311623
0.0189321
0.0307615
0.0018483
0.00405509
0.00127979
0.176989
0.001358
0.0018633
0.00295223
0.0679339
0.00170664
0.00210908
0.0113046
0.100032
0.0353717
0.0092248
0.00375827
0.135423
0.111105
0.138171
0.136956
0.00124944
0.00306359
0.0121735
0.00422207
0.166803
0.098492
0.00575176
0.00217092
0.0121708
0.0514486
0.0880202
0.0700587
0.00257612
0.00185172
0.1414
0.0729158
0.00353645
0.0118292
0.0118612
0.0571008
0.0248847
0.0189309
0.0059559
0.00282687
0.00349921
0.00442043
0.0052811
0.00300599
0.00691747
0.078092
0.00147846
0.0793776
0.0251977
0.0269903
0.00267579
0.0053688
0.11643
0.00319842
0.00518507
0.00145122
0.00484495
0.00964981
0.0117446
0.104356
0.00192085
0.00326824
0.00158293
0.0476286
0.0151547
0.00368286
0.00150923
0.00136007
0.00722117
0.00439986
0.0256977
0.0217346
0.0499124
0.00605015
0.00413431
0.0424472
0.0097008
0.00331521
0.00171241
0.00108554
0.0263139
0.00509203
0.00359376
0.0164387
0.0432799
0.00155394
0.00258101
0.00225981
0.00415802
0.139411
0.00124391
0.00977543
0.136803
0.0141069
0.00724624
0.0113757
0.00637623
0.00215989
0.00500987
0.0153101
0.00233674
0.0266367
0.00138362
0.141146
0.107934
0.00244731
0.00215497
0.00243276
0.0248828
0.0397305
0.0782273
0.0102015
0.00136031
0.00494185
0.0209451
0.00553475
0.00889928
0.0594084
0.00244641
0.00604671
0.00339903
0.0768521
0.00403185
0.0327342
0.00156272
0.00820978
0.00594164
0.0128176
0.136763
0.0774979
0.0419529
0.00500632
0.014948
0.00375898
0.0012619
0.00854719
0.135106
0.00382634
0.00178426
0.00335058
0.055407
0.0154713
0.11097
0.0166747
0.0205228
0.00187863
0.145881
0.00230928
0.0174055
0.00404967
0.00649006
0.0013364
0.00558628
0.0388265
0.00135718
0.00136321
0.0546265
0.0283631
0.00332609
0.0046406
0.00557713
0.168046
0.0307748
0.00404222
0.0245016
0.00747306
0.00921894
0.0703821
0.0103454
0.00243468
0.0528217
0.041551
0.154878
0.00138341
0.153751
0.0220343
0.0013554
0.0251487
0.00240028
0.0209215
0.00848382
0.13753
0.00828874
0.10073
0.00904158
0.163023
0.00574388
0.0288709
0.00175826
0.00134123
0.00166275
0.188848
0.135651
0.0072357
0.0095575
0.00119786
0.00156551
0.00878617
0.075769
0.00372131
0.00237504
0.00297006
0.00414809
0.00904464
0.00207896
0.0101407
0.0127738
0.00400605
0.00377832
0.00943161
0.00168863
0.0104242
0.0303496
0.0063999
0.0146234
0.0686022
0.0180284
0.0101164
0.0183026
0.102277
0.152852
0.00901359
0.0258326
0.00665139
0.0672737
0.0901816
0.141093
0.0263299
0.0997298
0.0207043
0.142299
0.00110679
0.0098262
0.00282835
0.139655
0.138331
0.00676223
0.00789008
0.0300432
0.00241649
0.00634559
0.00263042
0.0135598
0.00490302
0.031108
0.158383
0.145457
0.0260917
0.00123958
0.145246
0.00268098
0.0152902
0.0010677
0.00801597
0.00554592
0.00435308
0.0959596
0.182477
0.00874385
0.0711378
0.0401968
0.0026905
0.0318388
0.130287
0.0153923
0.128822
0.131547
0.0178126
0.0135317
0.00105168
0.0136139
0.04404
0.178775
0.00157675
0.00411098
0.0482273
0.0383308
0.0025421
0.00324662
0.00130761
0.0113758
0.0294403
0.13023
0.124316
0.00932312
0.0128854
0.003203
0.0147551
0.00156458
0.0342402
0.0254498
0.000928469
0.103344
0.0182766
0.0574447
0.160387
0.0101394
0.00749818
0.0322495
0.00205273
0.00121306
0.00751462
0.0635349
0.0805308
0.00552636
0.00274061
0.158771
0.00280632
0.0837897
0.01076
0.0531607
0.0694858
0.00344776
0.0506621
0.00292815
0.010807
0.151683
0.109349
0.0509378
0.0721758
0.0441658
0.00151326
0.0557993
0.0706256
0.00165206
0.00200319
0.0120477
0.0117178
0.00661916
0.0211583
0.0795257
0.0107844
0.00136572
0.00460693
0.0982573
0.0410256
0.00181562
0.00997629
0.00157098
0.136249
0.0284689
0.00134048
0.0132241
0.0346236
0.0012423
0.00162067
0.079855
0.00435503
0.118908
0.0544422
0.106853
0.00137806
0.0980645
0.0471452
0.0800754
0.00251137
0.0214432
0.00424671
0.00590669
0.0621978
0.0103411
0.144031
0.00151069
0.0987212
0.0552721
0.131179
0.00381499
0.110461
0.00396573
0.00127221
0.00255554
0.0184418
0.00302497
0.00134734
0.06047
0.00123457
0.00166228
0.00127843
0.0015638
0.00157717
0.00153144
0.00405263
0.0351379
0.00188768
0.0140923
0.00178084
0.0800999
0.062492
0.0483527
0.141914
0.0184067
0.0130179
0.00104585
0.0641163
0.0733442
0.00109403
0.00320584
0.0479344
0.00712867
0.0153392
0.0415932
0.00108116
0.00697746
0.0237045
0.0213335
0.00121395
0.00100353
0.0017485
0.0564323
0.00401015
0.0049471
0.00135468
0.001729
0.00694498
0.0624922
0.0306567
0.0317488
0.158769
0.0241123
0.132315
0.0165445
0.00598975
0.00164848
0.00551827
0.0442138
0.0051798
0.00152526
0.0109369
0.0474344
0.00122141
0.0602383
0.0415783
0.00858314
0.00175693
0.112556
0.0743399
0.00208201
0.00317111
0.0030584
0.005003
0.00246169
0.066762
0.00350403
0.0432058
0.102982
0.0438662
0.00257223
0.00114464
0.0626237
0.106901
0.0554962
0.0029694
0.0263311
0.0175091
0.0754468
0.0456688
0.00418068
0.0573381
0.00766197
0.00358879
0.00174365
0.050488
0.00535101
0.0224574
0.00139372
0.00120398
0.086405
0.00122865
0.00660572
0.00163765
0.121857
0.00153479
0.120002
0.0159546
0.0109257
0.00444744
0.00235063
0.00285605
0.00446753
0.00225737
0.141034
0.00373689
0.0724442
0.0119369
0.0018578
0.0482733
0.155005
0.033691
0.0393402
0.00130477
0.114411
0.123479
0.00897975
0.00764632
0.00958018
0.00226541
0.00539326
0.00120188
0.00902723
0.0123165
0.0140838
0.00135049
0.0122616
0.00265523
0.00150746
0.0212627
0.0643719
0.00160244
0.00333544
0.0414872
0.0059586
0.00944055
0.0354809
0.0188345
0.0361996
0.0112739
0.173307
0.00917072
0.00333834
0.101779
0.00853567
0.0613686
0.00641239
0.166114
0.0148584
0.00769001
0.02407
0.0410129
0.0649956
0.00163465
0.00615571
0.00257992
0.0728442
0.038528
0.00824997
0.0583246
0.00680987
0.00569722
0.0344087
0.00650864
0.0697487
0.00240131
0.0437719
0.0161966
0.00103173
0.00360568
0.0808193
0.0271347
0.00127239
0.0992285
0.102657
0.00143052
0.00149014
0.0219188
0.00432941
0.145695
0.0403329
0.00253548
0.0319022
0.0903824
0.00330007
0.055961
0.00298413
0.115615
0.0980532
0.0440419
0.00517504
0.00143291
0.0435736
0.0408746
0.0734222
0.0194646
0.134729
0.00163756
0.00840159
0.158954
0.00232106
0.00851206
0.00284308
0.00158108
0.00150167
0.0677158
0.0482931
0.0535505
0.00198879
0.0196405
0.00149727
0.0014092
0.0274221
0.0018033
0.00155003
0.00927543
0.00438621
0.00576953
0.00238438
0.00224089
0.00479617
0.0027957
0.00156059
0.00908951
0.0223381
0.00133947
0.00542282
0.0709251
0.0238027
0.00247855
0.0102502
0.0676243
0.00726157
0.00602176
0.0116613
0.00122807
0.0268975
0.00223863
0.0126308
0.00377311
0.00447712
0.00399903
0.0159116
0.0658208
0.040314
0.00238405
0.082068
0.0227218
0.153109
0.0249622
0.0593973
0.0104508
0.00503226
0.00142814
0.00808618
0.00646168
0.00236938
0.00291191
0.059047
0.00302181
0.00220407
0.0569923
0.100999
0.0125891
0.00132585
0.141239
0.00745547
0.00257855
0.00841841
0.0574762
0.0277803
0.0573856
0.00527788
0.00949012
0.13422
0.00173238
0.00207664
0.0096382
0.00277197
0.00764444
0.00214576
0.0264479
0.0194105
0.00228897
0.00277207
0.0068085
0.00184986
0.0179176
0.147823
0.0617224
0.0495197
0.0587869
0.0272937
0.00893338
0.0760176
0.00458941
0.133543
0.0144713
0.0670083
0.00649063
0.00524912
0.00295898
0.0619403
0.00400548
0.0594671
0.00225851
0.0924538
0.0176162
0.0939903
0.00360504
0.00124401
0.00398574
0.0728373
0.0052742
0.0463793
0.0143687
0.00149354
0.0531799
0.0425087
0.00812402
0.0157409
0.00191358
0.073871
0.0146587
0.0381399
0.105834
0.0122533
0.032952
0.101279
0.0244908
0.00100082
0.0223316
0.00305234
0.00227333
0.00907368
0.00142909
0.0222711
0.109545
0.0144326
0.0011691
0.0338299
0.0103347
0.0107368
0.0016096
0.0752118
0.00113582
0.00719972
0.00736101
0.0670317
0.114027
0.0050262
0.0391732
0.144498
0.00999571
0.0809148
0.0159354
0.0157767
0.00538362
0.00333676
0.00207838
0.0219352
0.0055223
0.00245861
0.00110459
0.0138743
0.00279856
0.00132914
0.0117824
0.00201262
0.0202121
0.00180344
0.00119763
0.0730217
0.164496
0.107372
0.0383787
0.00989197
0.0655446
0.01894
0.00653607
0.0257116
0.0109797
0.00106215
0.00973258
0.0225729
0.00157043
0.0329346
0.00122342
0.0254755
0.00425249
0.0772646
0.00106418
0.00130574
0.046353
0.036748
0.00181013
0.0106482
0.00126745
0.133678
0.0479117
0.00168311
0.0309431
0.00627992
0.00157085
0.0764509
0.00841633
0.0124395
0.111126
0.133237
0.00184937
0.00131388
0.0403078
0.0227358
0.0547593
0.014056
0.00873711
0.00145572
0.0271502
0.00169439
0.00279255
0.00337557
0.00270675
0.03145
0.00569035
0.0034989
0.0142303
0.0910018
0.00880649
0.00146531
0.025146
0.0072736
0.00185076
0.00132447
0.00272197
0.019549
0.0482531
0.130938
0.0794507
0.00130043
0.0089614
0.0248727
0.0283197
0.0240757
0.135842
0.0593559
0.0760618
0.00619217
0.0153592
0.00236961
0.00572543
0.00120108
0.00148685
0.0135453
0.00926025
0.114655
0.0172195
0.00105528
0.0368104
0.024786
0.00911542
0.00454124
0.006054
0.00221102
0.00201876
0.0586559
0.00106761
0.120819
0.0384796
0.00800172
0.145022
0.0468966
0.0043317
0.00238289
0.0541327
0.00233137
0.0374712
0.0673012
0.0207446
0.00168324
0.0161201
0.0272636
0.00200533
0.0318493
0.00338736
0.00164757
0.169449
0.00503507
0.130347
0.00119992
0.00640079
0.0670546
0.00196115
0.0087222
0.00462178
0.12899
0.00105112
0.0138179
0.00285042
0.0404687
0.00424465
0.00129435
0.069177
0.00173269
0.0462385
0.00763724
0.00632017
0.159663
0.00103044
0.0241797
0.00432875
0.0081718
0.0047406
0.00965393
0.00929213
0.0283301
0.00188005
0.0107623
0.00116917
0.0134025
0.00986073
0.0494115
0.0114296
0.0555728
0.0091087
0.00223603
0.0359948
0.0706741
0.00134163
0.028812
0.00226521
0.0327679
0.00228814
0.00256519
0.0128994
0.0728685
0.101046
0.0856836
0.120185
0.00577059
0.00657557
0.00729989
0.0191641
0.136386
0.00303222
0.0249419
0.0138848
0.00273799
0.0563372
0.00181744
0.00959455
0.0174404
0.00173201
0.0013294
0.00313993
0.00230507
0.00270334
0.0719878
0.00257553
0.00148696
0.00260609
0.148738
0.0441883
0.00473346
0.00210553
0.00128469
0.00300373
0.0496514
0.00718935
0.0110722
0.00186036
0.00127056
0.0121165
0.00335515
0.0219044
0.00650789
0.00636984
0.144871
0.00549736
0.00246575
0.106829
0.00282182
0.142671
0.0463082
0.00103051
0.00152948
0.12768
0.0388339
0.0231141
0.0459496
0.00982811
0.00431794
0.0258835
0.10062
0.102697
0.00876324
0.0164772
0.0207285
0.00326948
0.0704433
0.00176456
0.0012258
0.00148384
0.0034831
0.00966107
0.00304967
0.0133537
0.00184224
0.00268806
0.00270728
0.0406919
0.00187985
0.00113007
0.115418
0.0969403
0.00536173
0.00149791
0.00230778
0.0629244
0.0498959
0.00151157
0.00185133
0.00271015
0.0245338
0.0209727
0.00184964
0.0493127
0.00148749
0.00173637
0.00313307
0.00248271
0.0513258
0.0778999
0.131344
0.0154837
0.00115708
0.0110606
0.0223837
0.0297815
0.00456213
0.00107988
0.010011
0.00278129
0.0011063
0.00103493
0.00171551
0.0803202
0.152564
0.00226143
0.114274
0.0691575
0.0284239
0.00112602
0.011619
0.00197562
0.0044396
0.0879358
0.00146458
0.011936
0.0597133
0.0013457
0.00302925
0.0182166
0.0412127
0.00119172
0.00156627
0.118914
0.00229011
0.002302
0.00183066
0.00209133
0.0054142
0.0639637
0.0318532
0.00350542
0.0202734
0.00217261
0.00840995
0.00281518
0.00325701
0.0267172
0.0164987
0.0549372
0.0343581
0.00168262
0.00113797
0.0810349
0.00126906
0.0100264
0.0475104
0.0203758
0.0933238
0.00415119
0.0263334
0.00168747
0.0064971
0.0658278
0.134327
0.00490837
0.00098827
0.01085
0.0229231
0.00961816
0.0641918
0.0248239
0.0175092
0.000937473
0.00136729
0.0015592
0.109447
0.13128
0.0247494
0.0065283
0.0988387
0.0343196
0.00384391
0.0071654
0.00273024
0.0713212
0.00161842
0.00132763
0.163961
0.00100866
0.00520124
0.0104529
0.00153266
0.0361112
0.00144252
0.0147012
0.0241339
0.0226319
0.12203
0.00355715
0.166884
0.0361467
0.011424
0.0015011
0.00150232
0.140399
0.161415
0.0241391
0.0491397
0.00413291
0.0381593
0.00617832
0.0291006
0.00145128
0.0352159
0.00156812
0.102995
0.00162485
0.035133
0.113096
0.0018149
0.00259375
0.00391044
0.00299074
0.00566152
0.0101443
0.0726046
0.00142857
0.0656586
0.0996995
0.00450818
0.00902616
0.00180036
0.00143906
0.00488089
0.00276521
0.00477599
0.00281785
0.139883
0.0222498
0.0165565
0.00155051
0.0202774
0.0013812
0.00102889
0.0365631
0.0463545
0.0520803
0.00263754
0.00106045
0.0236269
0.124202
0.020954
0.0184745
0.0109058
0.00347122
0.00307728
0.126658
0.00203101
0.0062835
0.000966971
0.00648978
0.024536
0.0245056
0.00138578
0.142019
0.00603938
0.00219682
0.0285769
0.0197167
0.00378827
0.0042149
0.033169
0.00125804
0.0245264
0.00332788
0.00957953
0.0137935
0.0304437
0.00166522
0.101479
0.00502698
0.00178461
0.001548
0.00910482
0.00718409
0.021126
0.00958357
0.138312
0.00172546
0.0190713
0.0495478
0.0148112
0.139282
0.164459
0.00088152
0.0931027
0.147068
0.0536957
0.00394495
0.0462806
0.0130708
0.00613268
0.0035404
0.00535517
0.137534
0.00313256
0.00199348
0.00414209
0.00748879
0.0121076
0.00419215
0.00265281
0.00268258
0.166797
0.0024741
0.00216706
0.168756
0.0250293
0.119248
0.00223452
0.00518502
0.0343412
0.00169449
0.00149288
0.136469
0.0425876
0.00208453
0.0011148
0.00834476
0.107578
0.00265049
0.00159672
0.00130833
0.100534
0.0015181
0.00672385
0.00403284
0.00128927
0.0210457
0.118703
0.0135369
0.00425956
0.0129367
0.0020468
0.00150188
0.0688462
0.00231768
0.00154695
0.00133965
0.086473
0.00623404
0.0288216
0.0635463
0.00122148
0.00306595
0.00335772
0.00293442
0.0146359
0.0100175
0.158197
0.00162408
0.00118488
0.0718259
0.0377891
0.0111152
0.0606296
0.00917602
0.001677
0.0019228
0.0090563
0.0342726
0.0366921
0.00162528
0.0196332
0.00898565
0.0755907
0.0290945
0.00333376
0.0028069
0.00311106
0.00154996
0.142544
0.00365797
0.153445
0.00782481
0.00177615
0.00136616
0.095744
0.144769
0.0144727
0.0165004
0.0444983
0.00138683
0.00152319
0.0760888
0.140174
0.118116
0.0957055
0.00144163
0.0658413
0.00150463
0.00513107
0.00847791
0.0616565
0.00920277
0.00162884
0.0140816
0.0026544
0.00162387
0.0322509
0.00102566
0.00988142
0.00636159
0.00319551
0.00122625
0.00136181
0.00923581
0.0722663
0.00386953
0.0652782
0.0155812
0.0439688
0.00232321
0.0104054
0.00278834
0.0034509
0.0100047
0.114597
0.00343338
0.018077
0.161652
0.00269381
0.108894
0.0145304
0.0105491
0.0439567
0.00215007
0.0280377
0.0022979
0.0270995
0.0941873
0.00179748
0.00151505
0.021163
0.0109092
0.012346
0.00663477
0.00882864
0.0148253
0.0149097
0.0223017
0.0036735
0.0182197
0.00218713
0.00561017
0.00262839
0.00567815
0.0297968
0.00160049
0.155479
0.0023441
0.0206964
0.00195322
0.00268962
0.00269519
0.00270016
0.00398746
0.00465431
0.03301
0.00166468
0.00443656
0.0730056
0.00106341
0.00230256
0.0253259
0.0276657
0.0121614
0.0118045
0.0148286
0.00137349
0.184699
0.0153027
0.0110577
0.0111401
0.140797
0.00584335
0.0933394
0.00212436
0.0193379
0.00448411
0.0131151
0.0110036
0.00505442
0.00283492
0.00695254
0.0697139
0.00374427
0.00177977
0.0017435
0.0380858
0.00231208
0.0168234
0.00143161
0.0638488
0.0222737
0.00145852
0.00995808
0.00123058
0.00123086
0.0101753
0.00123103
0.0488851
0.0930247
0.00103097
0.00567433
0.0241004
0.00171575
0.0183196
0.00723789
0.0148827
0.00709633
0.0417921
0.00253659
0.00180441
0.00123327
0.003234
0.0169881
0.0084828
0.00124411
0.0239167
0.042646
0.00528933
0.113228
0.00209419
0.00179957
0.00121456
0.00132015
0.00884067
0.034607
0.00158313
0.123806
0.00506647
0.147387
0.00166419
0.0275591
0.0065401
0.00125569
0.00470501
0.124682
0.0125545
0.00183801
0.047361
0.00536633
0.0681214
0.00214824
0.00131914
0.00547464
0.0043094
0.124178
0.00402505
0.00496006
0.0103049
0.0682588
0.0379986
0.166022
0.00958427
0.100031
0.00563815
0.0433372
0.0633554
0.00182953
0.058693
0.0184242
0.0219526
0.134916
0.00146833
0.0623748
0.0118492
0.00159433
0.0100237
0.00261001
0.0491656
0.00173351
0.0100863
0.0017636
0.0261324
0.00394692
0.0434109
0.00947784
0.00511292
0.00539356
0.00388786
0.00153481
0.0042834
0.00287462
0.0157135
0.00523502
0.00912354
0.00266311
0.0185663
0.0414448
0.059695
0.00966743
0.00688219
0.00287761
0.00897644
0.00220791
0.00237469
0.00386258
0.0539895
0.00277171
0.00259202
0.0396975
0.0252121
0.0508577
0.00218376
0.0585906
0.000884151
0.0621697
0.0180007
0.00142995
0.00523803
0.0873087
0.0594784
0.0012232
0.0741066
0.0234574
0.0168596
0.0123017
0.0202318
0.0401634
0.00314866
0.00436619
0.00918197
0.00366253
0.00146222
0.00137294
0.00111278
0.116476
0.0636757
0.00420551
0.0352884
0.00555075
0.00223747
0.00127814
0.112014
0.0713694
0.00153108
0.00304959
0.107943
0.0714383
0.0148751
0.00185712
0.00200088
0.0185415
0.0126673
0.130605
0.00355754
0.00546776
0.00324326
0.011456
0.0101805
0.0269281
0.0110045
0.00331796
0.0233834
0.0401355
0.0186577
0.00209257
0.0178306
0.00122331
0.0908879
0.00151536
0.0112348
0.0124247
0.0867931
0.0935492
0.00280401
0.00235585
0.00598868
0.00118484
0.00190232
0.0349406
0.00148548
0.00473688
0.144734
0.00260779
0.00285587
0.00339525
0.139249
0.0014632
0.00144116
0.0641221
0.00973732
0.00128408
0.0101524
0.0490306
0.069257
0.035065
0.0242591
0.00663865
0.00371243
0.00447942
0.00675606
0.12068
0.0517136
0.00228554
0.0638698
0.00845442
0.0137992
0.0474993
0.00877035
0.0803529
0.0240199
0.00358347
0.103063
0.00135113
0.0985724
0.00183199
0.00166554
0.00588066
0.042682
0.162464
0.00156968
0.120056
0.0229711
0.0355658
0.00370827
0.002983
0.0113918
0.00156895
0.00980578
0.00282242
0.0300287
0.00695319
0.0587909
0.0967636
0.00122467
0.0013493
0.00302503
0.0238134
0.0076153
0.00664338
0.00107007
0.00150885
0.00352653
0.00770311
0.118909
0.00157637
0.0515684
0.0468558
0.00414265
0.00529148
0.0139343
0.00297431
0.00698072
0.0124312
0.017596
0.00142129
0.0235152
0.0910235
0.000990765
0.00557204
0.0903007
0.00110249
0.127831
0.10753
0.00399618
0.00503718
0.0019005
0.0994193
0.0195027
0.0618365
0.00180785
0.0668576
0.00227764
0.00258427
0.00152466
0.00143509
0.00158703
0.0116157
0.00148458
0.001985
0.13355
0.0127438
0.00942812
0.0114783
0.00177882
0.00128233
0.00127275
0.00156412
0.00169979
0.0438766
0.00584364
0.144663
0.00142843
0.0165669
0.0254297
0.0234605
0.0278484
0.0663892
0.004778
0.00133712
0.10789
0.025179
0.144562
0.00149418
0.0266734
0.00169002
0.00216022
0.00293043
0.0864217
0.0662744
0.00115403
0.00261029
0.103117
0.00321629
0.137197
0.00467759
0.00294895
0.00584361
0.00977416
0.0026313
0.057851
0.0605184
0.00361784
0.00147964
0.0149663
0.00692985
0.0632476
0.00110176
0.0814533
0.142293
0.0310947
0.0624541
0.00174808
0.00142818
0.00287798
0.00865728
0.00149948
0.00337484
0.119447
0.0139716
0.0855538
0.00174767
0.0365531
0.0196436
0.0615664
0.0971152
0.0646354
0.00204605
0.039244
0.00154043
0.0773357
0.0116053
0.155241
0.00182033
0.100182
0.0138248
0.010556
0.00589418
0.00178354
0.0928233
0.00117302
0.00729032
0.00845862
0.14177
0.0799659
0.00142294
0.00101469
0.0407406
0.0650385
0.00342847
0.00362406
0.00889761
0.0015592
0.0277941
0.002144
0.0168773
0.0926433
0.00178828
0.0357115
0.00188143
0.0593346
0.0280445
0.109918
0.00098649
0.00145882
0.110951
0.00278013
0.00367236
0.13922
0.0570908
0.144622
0.00281558
0.00153861
0.00753649
0.0280609
0.0102546
0.0997792
0.0508854
0.0246198
0.106983
0.00394796
0.0463162
0.00781823
0.00287919
0.0106066
0.130733
0.00237179
0.00569328
0.0963231
0.00543755
0.0146678
0.00288654
0.0200701
0.00230795
0.00842589
0.0527758
0.00612402
0.00613974
0.0256416
0.00170327
0.00811927
0.0182101
0.0029278
0.0568703
0.00451664
0.00388187
0.00479569
0.0963855
0.0605364
0.120698
0.0105526
0.00890073
0.00878309
0.00237209
0.00129887
0.00223558
0.133187
0.00159473
0.00163084
0.00158319
0.0602452
0.0466014
0.00887193
0.00188907
0.0231889
0.0107434
0.00151796
0.00130017
0.00169356
0.0037916
0.00403627
0.00154124
0.00289882
0.0881427
0.00181486
0.00362898
0.0365893
0.0380289
0.0278706
0.00143287
0.00596874
0.00181683
0.0229573
0.00272989
0.0423548
0.00254324
0.00133835
0.0358969
0.00876434
0.00146531
0.00234656
0.00841831
0.0287001
0.0238163
0.0332616
0.0036317
0.0054398
0.00249672
0.0015516
0.0782751
0.00105018
0.00432612
0.00270848
0.144464
0.137429
0.00354659
0.00294612
0.0615456
0.00906803
0.00489623
0.0061432
0.00209165
0.00192128
0.00159085
0.00149239
0.0193851
0.076874
0.00519793
0.0012707
0.00225006
0.0495014
0.00188003
0.00427868
0.00210954
0.0318853
0.146283
0.00175245
0.00266333
0.0024901
0.00181907
0.00133004
0.0858204
0.00283509
0.00158302
0.0460911
0.00542205
0.00650464
0.0997879
0.00388605
0.00185537
0.00283173
0.142164
0.00112167
0.00492839
0.00161797
0.107197
0.0254435
0.0321752
0.0360512
0.0360029
0.00736383
0.00947806
0.00801568
0.00290727
0.0104025
0.00136083
0.0186911
0.0184315
0.0145614
0.0010565
0.00581587
0.00145367
0.0145038
0.0139313
0.00103167
0.00362545
0.0481169
0.00838776
0.00284734
0.00228279
0.00368861
0.0545363
0.0804939
0.0496096
0.00311579
0.0283348
0.00148967
0.00181748
0.0026158
0.0133828
0.00384194
0.0013249
0.047395
0.00249664
0.0111269
0.00510784
0.0479253
0.0512649
0.00785156
0.00148045
0.140235
0.00152992
0.00319127
0.0044697
0.00427057
0.074449
0.113508
0.014843
0.0376174
0.00168307
0.00169882
0.00513675
0.00286691
0.0561519
0.0435334
0.0407597
0.132084
0.00182162
0.0300131
0.00136142
0.00439881
0.0283845
0.00247341
0.00214283
0.00146854
0.00108145
0.0239221
0.0668105
0.104236
0.0241003
0.00212965
0.00344375
0.00162491
0.113217
0.0362125
0.00333289
0.149482
0.00339821
0.0230238
0.0033215
0.00291835
0.00851637
0.00949062
0.0754676
0.00918171
0.00987244
0.00346715
0.00442719
0.00922098
0.0975849
0.00380206
0.0688499
0.00251192
0.00161037
0.00187789
0.0504973
0.00563033
0.0562516
0.0107352
0.0272776
0.0355754
0.0126748
0.0013957
0.00188689
0.00465476
0.00779017
0.00346243
0.00572119
0.00209603
0.00151969
0.0153105
0.00146404
0.00348814
0.0639452
0.00581383
0.00152956
0.00474984
0.142501
0.00811741
0.00162163
0.00324543
0.00103347
0.0415984
0.00300785
0.074572
0.06385
0.0108288
0.00186932
0.159426
0.0014741
0.00163084
0.00334407
0.00260857
0.00263162
0.00157376
0.00370819
0.108408
0.0200815
0.0812225
0.00727809
0.00373843
0.00222358
0.0190988
0.0106311
0.0745043
0.00158593
0.0111329
0.00919863
0.00174548
0.00336232
0.00167731
0.00157718
0.0593741
0.00104353
0.104105
0.0147733
0.00533804
0.00166066
0.00435878
0.0143358
0.0315536
0.00200036
0.0145816
0.00201494
0.00100594
0.00998771
0.00153833
0.0104803
0.144047
0.00188846
0.00735108
0.0276537
0.000988344
0.00189003
0.0148626
0.0150054
0.00498185
0.00130958
0.0635688
0.0483218
0.111163
0.0894948
0.0285123
0.00151186
0.0107853
0.00165247
0.120561
0.0470936
0.00201029
0.0364641
0.165632
0.111185
0.0504588
0.00270656
0.0677328
0.00158407
0.0362208
0.0272722
0.00770854
0.0387183
0.00267726
0.0698575
0.149423
0.0649376
0.012753
0.00503939
0.0219239
0.00144607
0.0472285
0.00778266
0.0159744
0.00151631
0.0333928
0.104959
0.060005
0.0750037
0.00339564
0.0685564
0.0571065
0.0255612
0.00280399
0.142384
0.00803318
0.00882272
0.0538994
0.0016649
0.00161262
0.00305401
0.00259865
0.0221893
0.00537371
0.0442514
0.00350525
0.00360988
0.0369787
0.00292417
0.00506014
0.00241982
0.0133365
0.0628605
0.00163832
0.00879399
0.00296968
0.00187398
0.0784774
0.0626839
0.00122188
0.00153444
0.00861849
0.00603721
0.0277942
0.00182949
0.00248622
0.110978
0.0918464
0.0402386
0.0990975
0.13419
0.0600154
0.00960259
0.0015237
0.014648
0.043219
0.00230673
0.0844107
0.00302866
0.00507271
0.0446646
0.0164456
0.0624067
0.00305583
0.0176909
0.00650905
0.063027
0.038398
0.00118016
0.00147462
0.132124
0.00894319
0.00760095
0.015335
0.0212327
0.160293
0.0353452
0.00292732
0.00298112
0.0110113
0.00211984
0.0371268
0.00163907
0.00458299
0.025038
0.00125578
0.0264905
0.00179858
0.00240416
0.00142413
0.00269653
0.00151277
0.00151752
0.070708
0.0175424
0.0225389
0.0772401
0.0653855
0.0150827
0.00462886
0.059771
0.0133778
0.00419482
0.00492417
0.002662
0.00360124
0.013062
0.00256646
0.00213179
0.0103352
0.0184289
0.00385624
0.00175633
0.00181722
0.0188829
0.0771652
0.0664787
0.067318
0.0128738
0.00127826
0.00334139
0.0618024
0.00128087
0.106995
0.0045605
0.00209937
0.00462039
0.0038849
0.0039851
0.00323325
0.0285248
0.0108088
0.0774908
0.00358715
0.0623169
0.0271694
0.0132538
0.00312927
0.0960469
0.0242924
0.00118069
0.116044
0.0413149
0.016211
0.00158554
0.00486946
0.0030275
0.0092065
0.138468
0.00164907
0.00830765
0.0267687
0.0673593
0.010401
0.0151229
0.0565573
0.0219979
0.00125363
0.0236699
0.0804173
0.00653769
0.080444
0.0113924
0.00981536