/*--------------------------------*- C++ -*----------------------------------*\
| =========                 |                                                 |
| \\      /  F ield         | OpenFOAM: The Open Source CFD Toolbox           |
|  \\    /   O peration     | Version:  v2012                                 |
|   \\  /    A nd           | Website:  www.openfoam.com                      |
|    \\/     M anipulation  |                                                 |
\*---------------------------------------------------------------------------*/
FoamFile
{
    version     2.0;
    format      ascii;
    class       volScalarField;
    location    "400";
    object      ddt0(omega);
}
// * * * * * * * * * * * * * * * * * * * * * * * * * * * * * * * * * * * * * //

dimensions      [0 0 -2 0 0 0 0];


internalField   nonuniform List<scalar> 
13917
(
-0.000488092
-2.41041e-05
0.103406
-0.000177028
-3.5828e-08
0.0148224
0.102417
0.106842
0.220129
-0.0012872
-0.00907375
-0.0020275
-0.00018222
0.432073
-9.99587e-05
-8.41978e-05
-2.63359e-05
-0.00116598
-0.00200236
-9.78572e-07
-1.615e-07
0.10362
-1.14737e-06
0.0858793
-2.35475e-06
0.10053
0.0043042
-0.00245937
0.0291991
-0.0014788
-0.00065735
-0.000232385
-0.00101877
-6.87559e-05
-1.17792e-06
-0.441932
-1.13561e-06
0.0873452
-0.000312489
0.139877
-4.19484e-06
-5.66455e-08
-4.79645e-06
-0.0029441
-3.4362e-05
8.8897e-05
-0.00116106
-0.00171735
-0.0851169
-1.45551e-06
-0.000295309
9.11162e-07
-0.0481182
-4.99233e-05
-2.5991e-05
-0.000265257
-0.00832587
-6.13821e-06
-0.00017165
-3.0948e-05
-0.0231036
-2.69323e-05
0.147905
-1.07145e-06
-0.0146248
-1.67872
7.33849e-07
1.89556e-06
-0.00686307
-0.000388862
2.21107e-08
0.179515
0.0825709
-1.98686e-06
-0.0138558
-0.00266727
-0.0645789
-7.45959e-05
0.101343
-2.00071e-07
-5.16708e-07
6.9201e-07
-0.00520278
0.0961612
0.429031
-6.96221e-05
-7.46417e-07
-0.263683
-0.000278748
-4.95425e-06
0.0816386
-0.000145866
-1.33465e-05
-2.21245e-05
0.166497
-0.00879752
-0.00437741
-0.00165162
-0.00723685
0.00581406
-3.06972e-06
-6.29194e-05
-0.00269152
-0.0001033
-5.73176e-06
0.147949
0.00317
-0.00191612
-2.76087e-05
-0.0006457
0.167872
0.0401724
-0.00306404
0.187736
4.84358e-06
-0.0386893
-2.20346e-06
0.0152525
0.0588775
-5.92158e-05
-7.06604e-08
-0.00606779
0.0790584
-0.000406941
-2.10432e-06
-1.82946e-05
-2.85997e-05
-2.17767e-06
-3.77286e-06
0.00416878
0.0630559
4.04839e-06
-3.52273e-05
-9.56316e-08
-0.284541
0.0814308
-0.000495675
0.00197812
7.39749e-07
-0.000146419
-0.646233
-1.00678e-05
-3.0706e-06
-0.00441231
1.85053e-06
0.047087
0.00852014
1.19905e-06
-9.53627e-06
-0.000248484
-0.0014263
0.0111048
-0.00286168
-0.000267895
-0.000239185
0.604656
-0.000248114
-0.483162
-0.177711
-0.49174
-2.83425e-06
0.00163509
-1.76879e-07
-0.00406388
-0.0029712
-0.00600196
-0.000100679
-0.00150503
-2.28337e-05
-0.000168175
-0.000651923
0.0361334
-0.00364074
-3.36057e-05
-0.0087715
-0.000184214
0.0671701
-0.00583734
0.00620319
-8.08045e-06
-0.00178189
-0.000672544
-1.04939e-05
-7.80706e-07
-0.000108508
0.102854
-0.00922728
0.833107
-0.000635559
-0.00535811
-0.849818
0.573868
-0.00880443
-1.02284e-06
-0.0170111
0.00327345
-3.16716e-05
-1.41202e-05
-0.00576195
-0.226442
-0.000300931
-1.42356e-06
-0.00144544
-0.0013888
0.0558875
-0.176708
-9.89467e-07
-6.42745e-06
-0.00149565
0.098499
-4.17296e-06
0.103879
-0.0180826
-0.00532537
-5.45668e-06
-0.00693127
-0.00132423
0.037741
-3.64652e-06
-0.482361
-7.87671e-06
-0.00188593
-3.54036e-06
0.0982523
0.165815
-9.98119e-05
-0.0485856
-0.000252582
-5.51484e-06
-0.607656
-0.0034183
-0.000628211
0.0805812
-0.11318
-3.0463e-06
-0.000249847
0.105719
0.28268
-4.59872e-07
-2.33166e-06
0.0282432
-0.00523717
-1.14688e-07
-0.410304
-0.00265325
0.000722881
-0.000599885
-3.59726e-07
-0.00010295
-0.120865
-3.89423e-05
-0.00266282
-0.000736938
-2.76838e-05
-5.94239e-06
-0.00202056
-0.0110429
-0.00268338
-4.77017e-06
-0.000103203
-7.0965e-08
0.114866
0.0122637
-0.558292
-5.1091e-06
0.0835857
0.184968
-0.233797
0.0975265
-0.00294592
-3.74702e-07
-2.14724e-06
-0.00117953
0.0989443
-0.00412734
-0.000160182
-0.293892
-0.00123518
-3.44656e-06
-1.13129
-1.04658e-06
-0.00221009
-0.000272972
-2.68497e-07
-0.000150593
-0.000223156
0.00255013
-0.665553
-0.000176738
-4.13059e-05
-0.0139859
0.0732835
0.069403
-3.4689e-06
-0.188256
4.02171e-07
-4.12987e-05
-2.09292e-06
-0.00253121
-1.02928e-06
-0.00207559
-0.000548483
-2.24141e-05
-0.00143651
-6.95301e-05
0.01094
-0.000117046
-0.00158261
-1.29767e-05
-5.10409e-06
0.149144
0.0949528
-2.41699e-06
-2.7925e-06
-1.15594
-9.13496e-06
0.0981923
-8.30994e-06
0.103216
-8.33665e-05
-0.00839511
-0.000594876
-0.00662823
-2.36145e-05
-0.0210263
0.00967894
-0.000136757
-0.00516525
0.0062386
-1.43399e-05
0.071202
-0.0127286
0.116004
-1.10684e-05
0.134081
-0.000282094
0.347638
-0.0362468
-0.00276385
-0.00103526
0.110626
-2.73037e-07
-0.000518259
0.2086
-5.47928e-06
-5.216e-05
0.146874
-0.00635899
-3.51781e-05
-0.197287
0.0246829
-2.58616e-06
0.115142
-0.754144
-1.14625e-06
-3.63859e-06
5.39022e-07
-9.78149e-06
-0.0191771
6.09591e-05
0.025338
0.188793
-2.11365e-06
-0.0027467
-0.111542
-0.00100499
0.103711
0.100358
0.197417
-3.57907e-06
-0.594144
-3.92457e-06
-0.923683
-3.06257e-05
-0.012961
-0.00244084
-0.000233255
-3.49094e-07
-0.00152608
-0.00223668
-0.00178625
0.260025
0.283601
-0.107708
-0.000104208
-0.00102296
-2.25165e-06
0.357298
0.0985407
-8.62601e-06
0.0193392
-1.00165e-06
-0.0192748
-8.30858e-05
-2.71403e-07
-6.68769e-05
0.0834853
-6.49021e-05
-0.00376074
0.847401
-0.00580781
0.0536809
-1.3783e-05
0.0663503
0.0411547
-1.63601e-06
-0.00710905
-5.42451e-06
-1.44031e-06
-0.00168374
-1.8252e-07
-1.69204e-06
-3.70772e-06
-0.0269167
-1.83189e-07
0.0410468
0.118971
0.141173
-0.00889644
0.0265614
0.050115
-0.000978952
-2.0086e-06
-0.00525628
-0.000293619
-0.000297597
-1.11396e-06
0.0372668
0.101148
0.12183
-8.20895e-05
-0.00367904
-3.98975e-05
-0.000338367
-0.00174002
-4.99856e-05
-0.548467
-2.78025e-05
-1.00073e-06
0.122606
0.0621866
0.0637918
-0.0038374
-0.00821542
0.0789093
0.202738
0.189793
-3.79334e-06
-0.00135968
-5.24171e-05
-6.65435e-06
-0.0331833
-0.00120269
-1.96028e-05
-0.00130077
-0.000860508
0.171003
-1.67802e-06
-0.00391005
0.970093
-0.0135914
0.0410581
-1.81577e-07
-8.40199e-06
-3.19661e-05
-0.000328884
-3.49048e-06
0.103198
0.0347397
-0.000191206
0.526643
-0.000262093
-0.0042415
0.243156
-0.0079349
-0.00507216
-0.726965
-0.00392237
-0.00112103
-0.00532482
-0.001122
-0.0162237
0.0049903
-0.00130802
-0.00235807
-1.18758e-05
-0.0503062
-0.000325436
-1.50185e-05
-0.000268166
-8.22115e-05
0.197072
0.17859
-8.39279e-06
-4.22711e-06
0.0906599
-0.0753811
-2.28104e-07
0.0555407
-0.00010025
-0.00510079
-8.8184e-06
0.0565644
-1.14197
-0.000244148
-4.09092e-05
0.0395694
-0.0060261
-0.118321
-6.30316e-08
-0.0260468
0.0178474
-1.23642
-1.54504e-05
0.312198
0.256937
-0.0010306
-3.66039e-06
-1.85876e-05
-0.00286743
-0.00214407
-1.64215e-05
-3.34002e-06
-1.65918e-06
-1.72079e-06
0.0621344
-0.0386386
-0.00100607
-0.00914587
-3.35018e-06
-2.9221e-06
-0.00319065
0.304874
-0.000486969
-2.45012e-05
-1.44189e-06
1.12616e-06
-1.08914
0.612618
-6.66735e-07
4.48034e-07
-0.651747
-0.00111331
-0.000596378
-7.14417e-06
-6.95377e-05
-0.000192014
-0.00230832
0.000388672
-0.0101641
-0.00523187
-0.00274294
-0.162999
-0.0012538
-3.21926e-06
-0.0265749
1.16592e-06
-6.1605e-05
-0.00019281
-0.0576175
-0.000538959
-3.32345e-06
-0.0204081
-0.00180547
1.28467
-0.00275386
-0.000521829
-0.00096723
-3.17121e-07
0.114565
-0.0109001
0.114186
-2.29794e-05
-0.000367864
-0.00992401
0.101967
0.00385866
-0.00174773
-0.00279694
-8.71205e-05
-0.000122616
-7.0968e-06
-0.00151337
-0.00504863
4.57259e-06
-0.00130667
-0.0101209
0.117698
0.0450009
-9.59684e-05
-0.00397131
-0.590854
-0.000302907
-3.29845e-06
0.0317889
0.0194951
0.0839938
-0.00830687
-4.00419e-06
0.0764575
-0.00259537
-4.56236e-06
-0.000391962
-0.00213601
0.000978019
-0.00165453
0.100314
-0.0050785
-0.000887686
0.114241
-9.56231e-05
0.28296
-3.01095e-07
-7.10429e-07
-0.154605
0.049066
0.0283955
-9.56436e-05
-3.16052e-05
2.70214e-07
-0.00123879
-0.0167107
-0.00608048
-0.000133986
-0.00517514
-0.00145938
-8.85121e-06
-0.0428294
-0.00555184
-0.337531
-4.33573e-06
-0.00472642
-8.09698e-05
0.759732
-0.00121608
-0.00152817
-0.000380064
-2.35282e-06
-1.31597e-05
-3.11039e-05
0.000276953
-8.50785e-05
-0.00955729
-0.0420164
-0.00145816
-2.50456e-06
-0.00459543
-0.0167241
-0.397577
-3.62454e-05
6.99336e-06
-3.23e-06
-0.000483917
-0.000179759
0.296245
-3.14627e-07
-0.138498
-0.00045741
-0.00817716
-0.00106901
0.0888648
-0.000687712
-2.03724e-05
0.0987681
-0.306526
-1.0581e-05
-0.000189586
-0.77654
-0.00620761
-0.00404908
-3.51818e-07
-4.47612e-05
-0.00804681
-0.000243013
-0.00182148
-0.00192991
-1.32064e-05
-0.00142828
0.10009
-3.71709e-05
-0.000128255
-1.54488e-06
0.0969414
-7.99743e-08
-6.80341e-05
0.0585431
-4.39379e-05
0.00749482
-0.000240128
-0.00142824
-1.56844e-06
-0.00040197
-1.91592e-06
-0.00123689
-2.2469e-06
-0.00184212
-9.99563e-05
-0.0165281
0.131825
0.314491
-2.4422e-05
-2.2607e-07
-0.00131132
-0.000799957
0.0972113
0.278008
-0.00116222
-1.09082e-06
-0.0225635
-0.0877863
-0.351467
-0.00829633
-0.00119847
0.104059
-0.000591674
-0.00115498
-0.00427102
-0.00377316
-0.00112458
-0.0366468
-0.00112653
-0.000160943
-0.00229892
-0.000138078
-2.0602e-05
-0.00047185
-0.000665686
-0.000219585
-1.66747e-06
-2.62337e-06
-0.00149064
-0.000122167
-0.00187158
-9.35905e-07
-7.93044e-07
-9.19463e-08
-6.00494e-05
-5.71679e-06
-0.000165762
-1.49224e-06
0.0444331
-0.00195293
0.036917
-3.20739e-06
-2.59952e-07
-0.00130204
-0.00113713
6.18157e-06
-0.408858
-0.000968996
-1.27083
-0.000467438
-0.00382809
-6.38384e-05
-1.34314e-07
-1.87298e-06
-6.91109e-05
-0.0910837
-1.92247e-07
-1.04241
-0.000175463
0.0470877
0.000565347
-0.000627266
-0.0079243
-7.06867e-06
2.66857e-08
-0.00203082
9.27664e-07
-1.33378e-05
-1.05722
-3.65102e-05
1.00859e-07
-0.000286366
-2.18685e-06
-5.06031e-06
-0.000229376
0.00338055
0.186172
-0.000364674
-3.71317e-05
-3.75485e-06
0.112026
-0.000160401
-1.43314e-05
-2.39762e-05
-0.913507
-0.901536
-0.075258
-0.000593684
-0.000161367
-3.00836e-06
-4.83847e-06
-0.00131331
-0.000496236
0.0309841
7.25419e-05
0.0668917
-3.48531e-05
-3.09751e-05
-0.110016
-9.29472e-07
-0.000334793
-8.20163e-06
-1.08706e-06
-0.000606913
0.00231693
-5.88403e-05
0.0267895
0.0108248
-0.00224204
-3.42601e-06
-8.65566e-06
-0.00559508
-0.760198
-2.23195e-07
-0.215918
-8.09046e-06
-0.000687013
-2.70976e-05
-2.27685e-05
0.0215023
-3.28343e-05
0.0123501
-0.000678994
-4.17326e-08
-5.27835e-06
2.17605e-06
-5.44952e-06
-0.00012096
0.00266567
-3.19761e-05
-1.82978e-05
0.208203
0.0864343
-0.000933888
-0.000725791
-0.00173762
-0.000200285
-1.03375e-05
0.000321085
0.0336371
-0.00206734
-4.88598e-07
-3.79265e-05
0.262531
-0.00066119
0.257697
-1.38809e-07
3.74907e-06
0.136711
-0.000576603
-6.42527e-05
-0.144128
0.0154618
-5.11833e-06
-0.00381199
-1.90596e-06
-2.99422e-05
-3.33197e-06
0.106655
-5.17245e-06
-4.46795e-05
-1.08639e-05
0.0423054
-0.000253649
-0.00479394
-0.00883581
-2.40464e-05
1.4178e-05
-6.9899e-07
0.210692
-2.36929e-06
-3.37795e-05
-9.61678e-09
-0.00530304
3.52771e-08
-0.00509509
0.042023
0.0677214
-2.36077e-06
-0.629784
0.0793557
-5.95308e-06
0.157052
0.148508
0.117209
0.0266088
0.202791
-0.345606
-0.0042851
-2.3117e-05
0.096313
-0.000567865
0.09642
-1.4389e-05
-1.3838e-05
-1.52724e-05
-8.16211e-07
-0.000246545
-0.00148812
0.0808827
-1.33999e-05
1.45295e-07
0.0261689
-0.00685883
2.6417e-06
0.00333601
-0.000354876
-4.56525e-05
0.0920657
0.00154162
-2.02293e-05
-0.000246575
0.0354531
0.0135599
0.00188206
-2.53059e-05
-0.00612153
-0.00196705
0.146021
0.211317
-0.00333128
-9.88664e-06
-6.73204e-05
-3.25093e-05
-2.49698e-06
-6.70772e-05
-3.42354e-06
-0.00019484
-0.000543689
0.593248
-0.00495741
-4.49694e-05
-0.00361293
0.20889
-0.000569883
-3.25928e-06
0.0915617
-2.0966e-05
-1.16383e-05
-0.000813252
0.650941
3.8661e-07
-4.32355e-06
0.106294
-0.273501
-0.475118
-0.00335982
-0.566299
-4.54076e-06
-0.00561782
-4.21247e-06
-2.1169e-06
-2.27576e-06
0.104326
0.048513
-1.83357e-05
-5.50204e-06
-9.24022e-06
-0.939301
-5.66207e-05
-0.000379498
8.27141e-07
-3.07332e-05
-0.00544465
-2.56264e-05
-0.00114276
-0.00883716
0.0644011
-2.53002e-05
-0.00159887
-0.00010043
0.0823028
0.18679
-1.70453e-06
0.139081
-0.00182357
0.00236586
3.02935e-07
0.0761013
-1.12388e-07
-0.000253181
-0.000579831
-0.00325134
0.0967245
-0.210972
0.00914353
0.0458928
-2.52022e-06
-0.0178773
-2.28059e-05
-0.000161991
0.108455
-7.33049e-06
-1.05733e-07
-5.84722e-05
-4.16494e-05
0.479823
-5.8309e-06
-1.20034e-06
-0.00144254
-0.000772144
-0.00123685
0.0514571
-0.0117453
-0.105897
-0.00205119
-0.000626432
-0.00110553
0.104611
-0.00100718
-0.548144
0.100443
-0.000245563
-2.69737e-05
0.0137423
-0.358087
9.91943e-07
-0.00376852
-0.000507846
-6.96858e-05
-0.000267351
-4.51713e-05
-0.000598139
6.14168e-08
-0.00116916
-0.00166882
-3.67687e-06
-0.00110434
-1.80828e-05
0.000459421
-2.48251e-06
0.000145862
-0.00138744
-0.000132216
-4.39417e-05
-1.84808e-05
0.0988984
-0.00181128
-0.00520008
-1.9002e-06
-2.74066e-05
-0.0015099
-7.91946e-06
-0.00205583
-0.00153935
-6.98173e-05
-0.00281289
-1.90647e-05
-0.732194
8.09026e-07
-0.000863702
0.107753
-0.0235291
-4.70731e-06
-6.27669e-05
0.138388
-2.03806e-06
-3.26225e-06
0.178295
0.134367
-3.74901e-05
0.013078
-1.05884e-06
-4.4584e-05
0.101527
-6.97401e-05
-6.60624e-06
0.0120522
-2.17083e-05
-1.3181
-5.73821e-07
-6.53881e-06
-1.26275e-05
-0.0114975
0.0336651
-4.62498e-06
-1.10554e-05
-4.42524e-06
-0.000100482
-1.15749e-06
-0.115797
-0.00129437
-6.62129e-08
0.0239498
-0.000137501
-0.00555574
0.0822325
0.0341926
-1.72055e-05
-3.7855e-06
-1.01668e-05
0.0293007
-9.13255e-05
0.0372509
0.0655936
-1.47131e-05
0.105906
-0.00940221
-0.00119306
-0.0146162
-0.000503799
0.0234603
0.0919601
0.00167756
0.0234803
0.100561
-0.00186707
-8.82487e-05
0.114304
-0.000615159
-1.47751e-05
-0.000111391
-0.466251
-0.000343245
-8.19438e-06
-0.000913653
-0.00273488
-0.000464313
0.0971682
-8.00099e-05
-0.00217812
-0.00108947
-0.385759
-0.00431585
-0.00671881
-0.00033086
-1.86388e-05
-3.36296e-05
0.0878304
-2.51781e-06
-2.96194e-05
-8.39701e-06
-7.07144e-05
-1.59461e-05
-0.000385241
-0.012672
0.00218119
0.00462774
-0.000916002
0.119245
0.00397781
-1.77841e-05
-0.945334
0.111392
-9.08212e-06
-3.36284e-06
-0.000404154
0.0482781
-9.87553e-08
-0.00155104
-0.0220988
-0.000614082
-1.64783e-06
-0.000128231
-2.39321e-05
-0.00365409
-0.000196397
-1.51855e-06
-0.606036
0.102853
-0.000430856
-0.222405
-0.00195128
-0.319667
-4.35727e-05
-0.000214115
0.0690281
-0.54194
-0.00346957
0.0928079
-0.00024911
-8.39412e-08
-3.34784e-05
-3.69794e-05
-1.53207e-06
-1.92954e-06
-0.000977469
-4.36049e-06
-0.00492168
-2.15953e-06
-0.000306075
-2.08577e-05
-0.000851009
-0.00514812
-0.00933832
-5.30454e-06
-0.00636618
-3.2982e-05
0.039632
-1.09559e-06
-0.000117182
-5.80084e-07
0.00605155
0.0712591
-0.0101405
-4.71086e-06
-0.00493312
-1.23641e-05
-0.000296562
0.114573
-2.75865e-05
-2.8603e-06
-0.000758532
-0.000393826
0.104572
-4.56264e-06
-6.73842e-05
-0.000138837
-1.6369e-06
0.000736912
-2.78517e-05
-3.29092e-06
-1.97794e-05
-0.0284167
-0.000132067
-0.199877
0.063275
-0.0011694
0.0353066
-0.000120022
-3.27014e-06
-4.39282e-05
-0.0731363
-0.000149146
-0.000373625
-0.00104689
-0.367544
-5.18309e-06
0.60817
-0.00131863
-0.00173716
-7.40789e-06
-5.13608e-06
0.0115913
-3.67844e-06
-9.27556e-08
0.00110774
-1.36304e-05
-2.68824e-06
-0.000281902
-0.00212891
0.00526618
0.100544
-0.000288855
-0.00221082
-0.0235544
0.19007
-0.000860043
-0.011604
0.0427313
-0.000779768
-0.530683
8.08098e-06
-1.31696
0.165147
-1.58686e-05
-1.98727e-07
-2.39511e-06
-8.62513e-05
-0.000716234
-2.21681e-05
-1.04099e-05
-0.00337097
-9.97458e-05
-0.000254186
0.062196
-4.05569e-05
-0.00015848
0.213957
-6.39675e-05
0.0600122
-0.000202033
-0.00312973
-5.31127e-06
0.00992997
0.0557314
-1.23173e-05
-9.23797e-05
0.0981658
-5.07969e-05
0.0138682
-1.40636e-06
-2.24005e-05
0.114249
-8.46621e-05
-0.00146361
1.09304
1.32391e-07
-0.00120322
-0.000283349
-5.37354e-06
-2.71086e-06
0.0980622
0.0718103
-3.2942e-05
-0.000123868
-6.06309e-06
-0.000184129
0.000669097
0.160125
-1.47342e-05
-0.00759612
-0.169241
-0.333322
-0.828004
-8.07504e-05
-0.00605753
-0.00370673
4.49575e-05
-7.20658e-07
-0.00170154
0.0765694
-1.75757e-05
-0.000141615
0.0948154
-0.0282972
-0.0256261
8.68759e-05
-1.34574e-05
8.57434e-09
9.79815e-07
0.0277099
-0.00135903
-0.00015555
-0.000101151
-0.000146153
-6.23135e-08
-6.85584e-06
4.55187e-07
-0.00212049
-0.000991404
0.0207507
0.00249115
0.652121
0.00150285
-0.000233598
-0.00122638
-3.10321e-06
-0.00023481
-0.0587172
-2.0894e-05
-7.4244e-05
-0.00128855
-0.00397164
-0.000784792
0.114853
-0.160044
-2.0435e-05
0.0829451
-5.00659e-06
-4.78365e-05
-0.0025271
-7.03046e-08
-3.89865e-05
-0.00635521
-0.100037
-2.11942e-05
0.0986865
-1.99846e-05
-1.69072e-05
-7.03898e-05
0.00159282
-0.00027303
-0.000202489
-0.274712
-6.42441e-05
0.0184145
0.0434934
-2.33896e-07
0.00190718
-1.45589e-06
0.06608
-0.00169606
1.05175e-06
0.110953
-0.00129045
-0.00121464
6.00648e-09
0.0494894
0.000191241
0.0282358
-0.000120335
-0.000620374
0.00516561
-1.78054e-05
0.0531753
-4.83878e-06
-0.00114211
-0.00175663
-2.39406e-07
0.213456
-5.217e-05
-0.00379388
-0.00132332
0.00593292
-0.000411074
0.000928583
-1.2486e-05
0.0948958
-0.00038992
0.164955
-0.000204751
-0.00189655
-2.25047e-05
-0.00066782
-2.25543e-06
-0.00237553
0.0881013
-4.17025e-05
-8.36693e-06
-0.0236192
-8.17536e-05
-0.00183451
-5.58197e-05
0.0947657
-0.316334
-0.000385506
-2.59846e-06
-3.35108e-06
3.49869e-08
-3.88952e-06
-0.00229752
-0.00130744
0.000628111
-0.000173897
-1.10537e-06
-0.307355
-0.00013033
-0.000377792
-0.0440055
-2.07618e-06
0.76129
-0.00127284
-0.000555047
-0.00561719
0.0438192
-0.0146543
0.0747798
-0.722729
-5.87678e-06
-0.00832935
0.110184
-0.0158716
-6.7999e-07
8.535e-07
-0.00436242
0.108815
0.0459415
-0.0256901
-7.68022e-05
-0.00168223
-0.00081533
0.0395308
0.0702328
-0.00102328
-0.00486471
-8.46681e-05
-0.00145487
-0.00331792
-7.68802e-07
-0.00318428
-0.583616
-5.78267e-08
-0.639619
-1.78998e-07
-2.98555e-05
0.0992446
0.0951376
-2.7543e-06
-8.34194e-05
-5.3938e-05
-2.02617e-05
-0.000637099
-0.00652455
-0.000124762
-2.16577e-06
-1.0134e-06
-0.00103599
-0.000254365
-0.000235934
-0.0176807
-1.23957e-06
0.116383
-0.130281
0.141279
-0.00287724
-0.00102659
-0.447564
-0.000551867
0.0953616
-0.899439
-0.426447
-2.97691e-05
0.290586
0.0194801
-3.10769e-06
-1.7451e-06
-0.00334757
0.278138
-1.0831
-2.53395e-05
-1.11105e-05
0.061884
-0.37446
-0.334853
-0.000109367
2.72291e-05
0.0110921
-9.95213e-06
0.081713
0.668292
-0.607508
-0.0764027
-1.81127e-06
-4.85643e-06
-2.23448e-06
-0.000144381
0.0671809
-0.000948772
-0.000255496
5.2285e-06
-0.00172897
0.0341832
-0.00101621
-0.0539068
0.0679037
0.0615847
-0.011893
-6.87134e-07
-6.22088e-07
0.0876885
-5.19453e-06
-1.39331e-05
-3.61835e-05
0.0335524
-0.000702162
0.678631
-0.00303061
-1.84236e-06
0.293292
-0.000672504
-1.50975e-05
0.054834
-0.000241018
0.000112068
-4.91799e-05
0.322235
0.273065
-3.68307e-09
-0.194731
-0.134699
0.566118
-0.0627046
-0.000956599
-6.8194e-06
-6.13682e-05
-0.0556828
-0.00019863
0.0644891
-0.000719558
-0.0835154
-0.00211598
-2.4899e-07
-0.000227011
-8.75036e-06
-1.14011e-05
0.340946
0.175673
6.18955e-07
0.123785
-0.00105907
-1.10931e-05
-3.81189e-05
-3.55846e-06
-0.00556272
-5.00959e-05
0.026276
1.61068e-05
-7.24825e-06
-2.44377e-06
-0.00642814
0.304224
-0.000751531
-9.04745e-05
-0.000777694
-1.81385e-06
-9.11317e-05
-0.000328899
-0.0974445
0.0348894
0.278413
-4.3142e-06
-2.39283e-06
-2.63278e-05
-0.00618149
-3.97526e-06
-2.90696e-05
-0.00670853
-0.00147638
-0.781603
-1.4883e-05
0.249913
0.0299772
-1.36626e-07
-0.108
-0.00397701
-0.000832039
0.00342698
-2.40045e-05
0.426372
-0.000356653
-2.22952e-05
-2.04178e-05
-5.06849e-06
-0.364653
-2.81593e-05
-0.000107689
-0.000231124
0.00210887
0.0375933
-2.42788e-07
-1.63388e-06
-9.71754e-05
-2.52012e-05
-0.00385548
-9.49251e-07
-0.00194296
-0.000129943
0.0765744
-9.09688e-05
0.110918
-4.78809e-06
0.331721
-5.07162e-05
-5.26968e-06
0.535253
0.00302208
-0.00600868
-0.638299
7.82501e-05
-0.000865619
5.26186e-07
0.0780991
9.04895e-07
-3.87739e-06
0.000255136
-0.00191642
0.516914
0.170542
-0.00413425
-0.0661811
-0.00273845
0.0114206
-1.97481e-05
-0.000180332
-0.00035321
0.13704
4.34939e-05
0.168585
0.0595657
-5.82098e-05
1.64091e-06
-8.9793e-06
-0.0321832
-0.0329561
-0.000116555
-9.76741e-07
-9.15396e-05
-0.000262654
-0.000740698
-0.0175308
-0.00451072
-1.2001e-06
0.00444407
-0.00190876
-0.0878312
-0.00186113
-6.25975e-05
-0.000119478
0.28511
-2.27194e-06
-0.0022492
0.0984235
-2.4235e-05
-0.000157956
-0.00655771
0.00708876
-1.37451e-05
0.151822
-0.000145546
-0.00403091
-0.00112366
-0.000260158
-9.0323e-05
0.251583
-3.0189e-06
-0.00238346
0.00377449
0.383025
-0.000991103
-0.001345
-0.000262784
-0.000820896
-8.34235e-08
0.424841
-0.000297208
-3.52418e-05
-0.000389127
-1.07462e-06
-8.84675e-08
0.0550968
-6.63525e-07
-6.37456e-07
-8.9365e-06
-0.00494811
1.18809e-06
-0.000419457
-0.00211054
-0.00578104
-0.00267518
2.76049e-08
-0.00562432
-0.00893451
-0.00596674
-0.00174742
-0.000896289
-0.00561725
0.0589656
-0.023912
-7.85684e-08
-1.15281
0.108213
-5.92382e-08
-0.000131532
-4.45726e-06
0.0242436
-0.00256059
-4.41489e-05
0.00340925
0.153314
-3.30656e-06
1.11767e-06
0.104231
0.0526405
-0.00199074
-5.86221e-06
-1.06073
0.0199231
-0.00236588
-1.87025e-06
0.140498
-0.00293767
-0.000178066
0.217257
-0.000237639
-4.60118e-06
-0.000376625
-0.00443881
-0.000504389
0.11326
0.262452
-8.85325e-06
-0.0235701
0.00807768
0.158722
-4.7861e-06
0.00583292
4.46787e-06
-7.36614e-06
0.132197
-0.860775
-0.0263387
-0.436792
-6.1697e-05
-0.00107176
-2.19943e-05
0.334951
0.086004
9.21494e-07
-3.85076e-05
-0.00148184
-2.89192e-05
-0.00124317
0.128341
-0.0628551
-0.00110004
-5.60177e-05
-5.52776e-05
0.133946
-4.87086e-05
-0.00122724
-8.21811e-06
-4.02406e-05
-0.0211238
-0.763988
-0.0973551
0.00581722
-6.33132e-07
-0.0199557
-2.12735e-05
-0.000132858
-0.136583
0.0377069
-6.94326e-07
4.43381e-08
-0.000794959
0.000137531
7.72845e-08
0.150435
0.151935
-1.3843e-05
-3.58005e-06
5.48971e-09
-2.1323e-06
0.0320933
-1.79135e-05
0.116408
-0.00288534
-0.0019567
-1.51249e-05
-0.0007423
0.297475
-0.000569468
0.00215361
0.629131
-1.21528e-05
-0.0248022
0.000608586
-0.000197967
-0.00976475
0.00934446
0.139255
-0.00181156
-5.71006e-06
-0.0065742
-1.81412e-05
-5.50205e-05
-3.48129e-06
0.119119
-0.000198986
-0.0448153
-0.603417
-0.0010883
-1.96397e-08
-0.00797191
-0.00029557
-4.99703e-08
0.00237745
-3.75969e-06
-0.0010392
-0.000527408
-3.31807e-06
-0.512683
-5.42685e-05
0.00916967
-1.79707e-05
-3.20334e-06
0.605702
0.07811
-1.8549e-05
0.00133919
-0.000929742
-0.000994898
-0.00159635
-0.000306834
-0.000104412
-0.000200796
-0.146142
-2.11143e-06
0.119947
-0.00145619
-0.701558
-0.00599696
-8.10783e-05
0.159455
-3.46011e-06
0.10056
-3.60429e-05
0.225251
-0.115789
-0.668263
-1.26404
-0.0215119
0.00200823
-4.1911e-05
0.123774
-0.000525997
6.42147e-07
-0.0722459
0.0613621
-1.53502e-05
-0.000155569
-0.000347399
-0.000351454
-0.000554969
0.0345319
-1.15622e-07
-0.000556485
-0.000734503
1.35412e-05
-7.38466e-07
-0.00295693
-7.60872e-06
0.112885
-2.34387e-05
-0.00268161
-0.000415367
-0.000779372
-0.00367604
-1.24744
-0.00209656
-7.59692e-06
-0.00461238
0.107828
-0.476208
-6.84276e-05
0.0914548
-0.000355686
0.029828
8.41999e-07
-6.42589e-05
0.100453
-0.00147339
0.105482
0.0165125
0.0025411
0.275987
-1.2301e-05
-7.79862e-06
-0.0859846
-0.00567649
-6.97171e-05
0.215943
-0.000222312
-1.961e-05
4.30063e-05
-0.00138015
-3.33337e-05
-0.0305134
0.0688694
-0.150959
-0.0176287
-0.000197487
-0.00105916
0.107593
-6.00091e-05
-1.05697e-05
-0.00112177
-5.24939e-06
-0.0218398
0.682518
0.126766
0.082563
-0.0015114
-7.18461e-05
0.141814
-4.75857e-06
-0.00218173
-3.48792e-07
-0.130993
-8.46814e-05
0.000782299
0.0629753
-0.00382303
-1.42913e-06
-0.000253107
1.07826
1.85828e-06
-0.00576696
-1.15704e-05
-1.3235
0.184628
-0.00401148
-0.00354255
-2.13301e-06
-0.584397
-0.00558073
-0.000776018
-1.09589e-05
-7.99819e-05
-8.65491e-07
-0.00150379
-1.38763e-07
-0.00294717
3.79284e-06
-8.96217e-06
0.326766
-1.71781e-05
-0.000223631
-0.000233623
-6.08006e-08
0.0701595
-1.41947e-05
-0.000408969
0.118402
-0.00144625
0.122874
3.39558e-07
0.280379
-0.00154675
0.214019
-7.62803e-05
-0.0050528
-5.95865e-05
-0.000884388
-0.00481364
-0.00463806
-0.00757096
0.13441
-0.00606398
-0.0688674
3.35967e-06
-0.0041525
-0.000480105
0.0123624
-3.07657e-05
-5.63066e-05
-1.64587e-06
-0.00136561
-0.000394588
-0.673894
-0.00132215
0.079698
-0.296395
0.00156543
-9.58894e-06
-1.09994
-0.00724304
-3.3421e-06
-2.58207e-05
-4.07106e-06
0.0281725
-1.35368e-06
0.272778
-1.5714e-05
-0.000312239
0.0943854
-0.00111038
-1.19977e-06
-1.88302e-06
-0.145084
-1.24839e-05
-5.71986e-05
-0.000199243
-0.000482329
-0.000258899
-1.74451e-05
-0.00652239
0.0137151
-0.0012687
-0.0087696
0.227078
0.0676141
0.036732
-4.50492e-06
-4.5867e-06
-0.00152665
-7.20139e-05
0.00136317
0.102371
0.0771791
-5.56627e-06
3.70455e-07
0.0432729
-0.1657
-6.37911e-06
-8.31517e-06
-0.000152823
0.185494
0.107389
-0.00021776
-0.000450234
-4.9479e-07
-0.0156145
-0.00500905
0.00601268
-0.000901273
-0.000815931
1.75191e-06
-0.000640062
-0.0294027
-3.12106e-06
-4.03447e-05
-0.000204158
0.101691
-7.3725e-05
0.0484362
-1.06776e-06
0.0966961
-0.000434239
0.00026694
-3.44827e-06
-3.32951e-06
-0.0130261
-0.767195
0.00208334
-0.00199435
0.563477
-1.33523e-05
0.100055
-0.0169543
-1.24732e-05
-0.176967
-0.378143
-0.00393095
-6.27494e-08
0.0445809
0.169606
-3.57603e-05
-0.000500731
0.0471419
-0.000777825
-9.0959e-06
-1.23117e-05
-5.06934e-05
-0.000150273
-0.00167292
-0.00580362
0.00628572
-0.00147882
-6.47755e-06
-1.17543e-05
0.0584547
-1.25539e-05
-0.000509769
0.00041407
-6.44405e-05
-0.00100453
-1.74855e-06
-4.94681e-05
-0.0213287
-1.93372e-06
0.127209
-1.71152e-06
-0.606978
0.0723723
-0.00210361
-1.74051e-05
7.55521e-08
0.16082
-4.97374e-06
-0.000119875
-1.86381e-06
-0.00829274
0.00910524
-0.000514883
0.0770703
5.81356e-05
-0.72457
5.97099e-06
-0.00192513
-2.44536e-05
-6.51594e-07
0.0942911
0.0847241
-0.100619
-9.93089e-05
-0.00185627
-0.00189666
0.386019
0.119047
-0.0151653
-0.000642257
-4.47514e-06
0.126115
-2.58873e-05
-2.75047e-05
-0.0257921
-0.00440407
-7.58721e-05
-0.00467005
-0.000107466
-0.00016298
-0.000258501
0.29354
-0.000150132
-2.08411e-06
0.0339633
-0.00338763
-8.53321e-06
0.0211679
-1.33716e-06
-9.51253e-07
-0.00590799
-0.00387266
0.712256
-8.09642e-06
-3.00383e-05
-5.12719e-06
0.00183413
-1.09558e-05
-0.00755918
-0.372291
0.0641823
0.00694214
-0.912886
0.000858883
0.0928615
-0.0014584
-4.71606e-07
-6.43132e-05
-0.000845289
-0.000269297
0.0129449
0.0633454
0.251922
0.0620341
-0.00767682
-9.05542e-06
-0.00357572
-1.26431e-06
0.121625
-0.000337791
-0.000125419
-0.000132077
-6.7877e-05
-8.45259e-06
-0.00350325
0.257893
-4.16125e-06
-0.000108482
-2.39948e-06
0.0515985
-0.000104761
0.387487
0.118047
-0.015329
-8.88584e-08
-8.62253e-06
0.0904268
-0.00762258
-3.45282e-07
-0.00200108
-2.94042e-07
-0.00136545
-0.00348238
-0.0027645
-0.00134346
-0.552325
-8.99591e-06
-2.58597e-05
-0.0751788
0.0181596
-0.000304279
-0.000449485
-6.55507e-06
0.311398
-2.25916e-06
-2.33014e-06
-8.17216e-05
-5.09965e-06
0.604421
0.0968345
-0.578617
-0.00187048
0.170519
0.00174842
-4.74318e-06
-0.000493293
-6.24108e-06
-0.00478439
-3.66614e-05
-6.30436e-05
-3.19359e-06
-3.38987e-06
-1.89228e-05
-0.124556
-0.000110851
0.0467627
-1.4298e-05
0.000472556
-5.30077e-05
-0.0177997
-1.53763e-06
-0.00048522
-0.000739643
-0.00123359
0.338604
-3.54048e-06
0.0659563
-0.00135518
-0.000612105
-2.38104e-05
-4.04769e-06
0.0325616
0.182538
-3.8545e-05
-2.31789e-05
0.00243601
0.00829387
-0.000735022
0.110629
-2.38238e-05
-0.479279
-0.000511012
-5.17392e-06
-0.00970347
-0.000137131
0.0975697
-1.30547e-06
-6.34531e-05
-9.04377e-07
0.101474
0.0606351
-5.30521e-06
-0.0235911
0.0266441
-1.1931e-06
-2.30369e-05
-5.41476e-06
-0.0202662
0.11538
-0.00116237
-0.000215633
-0.000693343
-1.78668e-06
-4.99147e-06
-0.000114934
-1.80352e-06
-0.00699168
-3.03504e-06
-0.00183811
-0.0130208
-0.000541134
-3.64906e-06
0.107487
-0.00220124
-1.60366e-06
-0.00232976
-0.000449526
-0.663093
-5.82125e-05
-0.0646008
-0.00103883
-1.05147e-05
-0.00217203
-0.00134423
-0.000163911
0.356722
-0.00177668
-0.000576535
-1.08672
-9.52391e-06
-0.0047262
-0.00518587
-0.00223663
-3.15895e-06
-6.93203e-06
-4.7653e-06
-0.00250518
-0.00148088
-0.00149126
-0.124873
0.144508
0.119128
-1.48822e-07
0.0150208
0.0783397
0.141726
-3.29239e-06
-1.16116e-05
-0.00129602
0.0998967
-5.68504e-05
-0.000701103
-0.400926
0.0401352
-1.07587
0.00429531
-0.0058022
0.0394285
-0.0183762
-8.08429e-06
-0.395665
-0.0206078
-4.59633e-05
-6.11445e-05
-4.40226e-05
0.337205
-0.00176623
0.0720728
-0.00010858
-0.385966
-3.2843e-05
-0.228711
0.0424382
-1.10595e-05
-0.000623712
0.123307
0.0557838
-0.00118048
-7.63923e-05
-4.67825e-05
-7.38271e-07
-0.00339858
-0.00526445
-0.0896963
0.131579
-9.36491e-06
0.0757157
-0.00349535
-0.0855969
-1.30677e-06
-7.08288e-07
-0.0378572
-0.00639922
-6.56659e-06
-0.000884029
0.00304283
-0.000289142
0.115114
0.109349
0.324673
0.124686
-8.19655e-05
-1.14729e-05
-0.00404942
0.0554425
-1.05186
-3.13746e-05
-0.0210313
0.00686227
0.0318349
-9.33602e-05
-2.16641e-07
-0.035847
-1.1812
-0.15817
0.0311786
0.00527567
-3.11367e-06
-0.00178249
0.119612
-3.40096e-06
-0.00397945
-0.00352936
-6.18993e-06
-0.00586065
0.175846
0.0102359
-1.69923e-07
0.0384996
-0.00418326
-0.641311
-3.69212e-06
-0.000154462
-2.23147e-05
-0.000146789
-2.04197e-05
-0.000902564
-0.000295196
4.54624e-05
0.00212062
-0.000607716
0.0621708
-6.24102e-05
-0.000527554
-0.000228405
-0.089451
-0.00829884
0.107108
-0.000207903
-0.000241742
0.190248
-0.00273694
-1.69564e-06
0.00175463
-0.889936
0.0984074
-0.0213875
-9.30906e-06
-7.46246e-06
-1.17765e-05
-0.329444
-4.75227e-05
0.00494246
-0.00433117
-0.0278517
-0.000376916
-0.00662259
0.0513518
-2.01168e-05
-0.229769
-0.000215751
-0.000912197
-1.45806e-05
-2.99499e-05
-0.00110029
0.203816
-1.09989e-06
0.113377
-0.0144827
-0.0188111
-0.00430914
-1.1648e-05
-1.70095e-06
-0.000407229
-0.000118212
-0.712718
-0.0499372