/*--------------------------------*- C++ -*----------------------------------*\
| =========                 |                                                 |
| \\      /  F ield         | OpenFOAM: The Open Source CFD Toolbox           |
|  \\    /   O peration     | Version:  v2012                                 |
|   \\  /    A nd           | Website:  www.openfoam.com                      |
|    \\/     M anipulation  |                                                 |
\*---------------------------------------------------------------------------*/
FoamFile
{
    version     2.0;
    format      ascii;
    class       surfaceScalarField;
    location    "400";
    object      phi;
}
// * * * * * * * * * * * * * * * * * * * * * * * * * * * * * * * * * * * * * //

dimensions      [0 3 -1 0 0 0 0];
oriented        oriented;


internalField   nonuniform List<scalar> 
20673
(
-0.164172
0.158643
0.00553674
0.370199
-0.307699
-0.0625027
0.0176786
-0.0431179
0.0254393
0.14987
-0.277782
0.127914
-0.357498
-0.121453
0.47895
-0.0251504
0.00278277
0.0223676
0.0292413
-0.0265427
-0.00269847
0.0101778
0.015679
-0.0258567
0.0176819
-0.0301716
0.0124897
-0.0581332
0.151118
-0.0929859
-0.101752
0.105478
-0.00372535
0.15578
-0.000629742
-0.15515
-0.0997607
0.00383334
-0.000632007
-0.00320782
0.200349
-0.0337632
-0.166587
0.241112
-0.238765
-0.00234861
-0.103386
0.299492
-0.196109
0.137064
-0.157487
0.0204237
0.151224
0.0045559
0.335587
0.268094
-0.603686
-0.384198
0.574176
-0.189979
0.0284507
0.000790629
-0.601095
0.332643
0.268448
0.0412886
-0.0311108
-0.307508
-0.0615647
0.36907
-0.00222931
0.0267219
-0.0244925
-0.107394
0.0751008
0.0322936
-0.0984541
0.0475733
0.0508809
-0.0608407
0.0452244
0.0156162
-0.138658
0.10096
0.0376989
0.15305
-0.162856
0.00981011
0.194228
-0.201231
0.00700215
-0.0998205
0.136771
-0.0369501
0.173443
-0.045196
-0.128247
-0.388729
0.362193
0.0265347
0.0906125
-0.105618
0.0150052
-0.370703
-0.230396
-0.00465705
-0.00564202
0.010299
-0.184672
-0.0579871
-0.0142159
0.000700164
0.0135158
-0.585237
0.595394
-0.0101675
0.68511
-0.3975
-0.28761
0.367642
-0.539185
0.171542
-0.0438457
-0.023072
0.0669177
-0.17326
-0.15283
0.326087
0.0922029
0.0749698
-0.167173
0.142908
-0.00584488
-0.0196408
-0.106359
0.126
0.00210472
0.00527952
-0.00738428
-0.685678
0.440405
0.245264
0.0422647
-0.164026
0.12176
-0.283981
0.0345663
0.249414
0.00014634
0.00195833
0.0520372
0.121406
0.169639
-0.273028
0.208517
-0.221601
0.0130834
-0.113053
0.011301
0.27223
-0.353374
0.0811405
0.0807634
0.16192
-0.242685
-0.332778
0.159516
-0.0282745
-0.0295586
0.0578329
0.161912
0.208284
0.00382765
-0.170022
0.505604
0.0101593
-0.0353099
-0.0852382
0.0901848
-0.00494672
-0.51571
0.327564
0.263948
-0.361625
-0.0984054
0.101123
-0.00271732
-0.161663
0.176767
-0.0151055
-0.526219
0.16872
-0.0149645
0.0326464
0.00123128
0.00216139
-0.00339268
0.144931
-0.452442
-0.00225065
-0.00719357
0.00944415
-0.0247491
0.149249
-0.124499
-0.00149732
-0.00122231
0.0027196
0.0695012
0.192771
-0.262273
0.0276953
-0.0265258
-0.00116948
-0.613135
0.318859
0.294275
-0.334442
0.603961
-0.269522
-0.252813
0.0130006
0.0195081
-0.0325087
0.00946781
-0.0141249
-0.000798744
0.000240482
0.000558049
-0.214425
0.283926
0.364333
0.210635
-0.574971
-0.0899804
0.00474214
0.20945
-0.167185
0.517315
-0.149673
-0.00350995
-0.00274797
0.00625791
0.116503
-0.00823477
-0.108268
-0.0490835
0.366491
-0.317412
-0.261906
0.0550268
0.206878
-0.0404242
-0.0495563
0.0206286
-0.0362114
0.0155831
0.0894214
-0.122747
0.0333255
0.125771
-0.00360458
-0.122167
-0.0611079
-0.0420535
0.103162
0.0550622
-0.0611899
0.00612793
-0.459154
0.56325
-0.104103
0.124544
0.00383238
-0.128376
0.022916
-0.0667615
-0.271885
0.0743493
0.197535
-0.485755
0.087766
0.397985
0.0388565
-0.0318791
-0.00697732
-0.00923307
-0.0548998
0.0641327
0.0890041
-0.108645
0.101147
0.198342
0.154033
-0.14759
-0.00644275
-0.00103781
0.00222211
-0.00118434
-0.0024171
-0.0117987
-0.107663
0.132312
-0.0246479
0.0372731
0.00158335
-0.2739
0.115237
0.158663
0.0134231
-0.011779
-0.00164427
-0.362969
0.503066
-0.140102
0.011347
-0.00699595
-0.0043509
-0.00889199
0.0107869
-0.00189499
-0.0737077
0.164383
-0.0906757
0.507399
0.177711
-0.0936772
-0.00472789
0.00173666
0.00752938
-0.00926608
-0.0512577
-0.0471963
-0.613791
0.12406
0.489722
-0.244003
-0.0179043
0.0970605
0.221687
-0.31875
-0.53955
-0.0742509
-0.493529
0.589454
-0.0959277
0.0234114
0.00974159
-0.0139198
0.00417821
-0.0803725
-0.193527
0.151496
-0.304328
0.198108
-0.582306
-0.118867
0.0597108
0.0591566
0.00944899
0.0318396
-0.0114636
-0.152715
0.0499367
0.00512555
-0.109917
0.437481
0.104075
-0.177782
-0.100243
0.113238
-0.0129953
0.452844
-0.189626
-0.263217
-0.217987
0.27692
-0.0589331
-0.0710546
0.0290343
0.0420206
-0.0676989
0.331647
0.0479994
0.00238573
-0.0503851
0.0214338
0.0360278
-0.0574618
0.0166181
-0.300599
0.505661
-0.166331
-0.339331
0.218176
-0.212616
-0.00556031
0.155966
0.000727203
-0.156693
0.00257795
0.0108451
0.0277094
-0.117376
0.0896669
-0.0750645
-0.0474683
0.122532
0.216902
-0.208906
-0.00799803
0.00722186
-0.00462635
-0.00259556
-0.16884
0.00717563
0.0255117
-0.0851155
0.0596038
0.000453304
-0.00195068
-0.0668876
-0.0519797
-0.15042
0.21819
-0.0677703
-0.0823887
-0.0109578
0.0933466
0.235775
0.366142
-0.601918
0.110529
-0.0211078
-0.136464
0.0288011
0.0341793
-0.095287
-0.200764
-0.0711213
-0.15212
0.151538
0.000582784
0.131368
0.224153
-0.355526
0.0292647
0.0952794
0.149053
-0.136944
-0.0121106
0.00891509
-0.00382468
-0.00509043
0.113619
0.000386939
-0.114005
-0.00952006
0.237264
-0.227747
0.0584705
-0.0497105
-0.00876001
-0.0472916
-0.0637622
0.111053
0.0151553
-0.00541374
0.00563899
0.00570798
0.0598543
-0.011855
-0.261359
0.404075
-0.14272
0.00911558
0.107387
-0.00814977
0.161201
0.301057
0.151789
-0.0961562
0.460486
0.188278
-0.087585
-0.100694
0.0300772
-0.0323065
-0.0324634
0.117892
-0.0854283
0.00862191
-0.00140019
0.14673
-0.147405
0.000674545
-0.104245
0.0983956
0.00585007
-0.00354955
0.071297
-0.0677474
0.00559078
-0.0063896
-0.105814
0.0847354
0.0210786
0.626696
-0.275661
-0.351039
-0.0264271
-0.0189166
0.0453437
-0.0998062
-0.00758797
0.636923
-0.636934
-0.304546
0.255459
0.0117759
-0.0795522
0.0677761
-0.083001
0.0777373
0.00526355
0.025174
0.174839
-0.200012
-0.342667
-0.343017
0.157031
0.00104843
-0.158078
0.151927
0.00403862
0.00185474
-0.000623487
-0.0724426
0.0955692
-0.0231266
-0.280145
-0.108586
-0.0902566
0.362484
0.0105863
0.115185
0.0119864
0.0276763
-0.0396627
-0.286952
0.0689638
0.0321045
-0.0256838
-0.00642068
0.000755988
-0.000647139
-0.000108877
-0.00092846
-0.103317
-0.417856
-0.0679033
-0.0538336
0.0350415
0.0187923
0.146027
-0.0075463
-0.13848
0.00437117
0.000921711
-0.00529289
-0.49415
0.292944
0.201202
0.0555256
-0.0838001
-0.398241
0.136878
0.0014632
0.107731
-0.109194
-0.128986
-0.45626
-0.00773905
-0.00209403
0.00983305
0.0372898
-0.0303694
-0.00692033
0.0665531
0.174557
-0.110381
0.023961
0.0864201
0.040618
0.176283
-0.457651
0.03979
0.00927085
0.0813417
0.123637
-0.0100177
-0.0114324
0.158162
-0.0494892
0.0162186
0.0332707
0.000833336
-7.73597e-05
-0.595255
0.493371
0.101877
0.189444
0.00478271
-0.00945552
0.00594555
-0.000800685
-0.00119277
0.00199341
-0.312366
0.548139
-0.464149
0.445662
0.0184812
-0.0153638
0.0013496
-0.11476
0.0955054
0.0192544
0.401142
-0.602636
0.201493
-0.0833676
0.0921964
-0.00882868
-0.138365
0.133977
0.00438781
-0.103877
0.0214885
-0.165858
-0.00840088
0.174246
0.584255
-0.218114
0.139967
-0.000123035
-0.139845
-0.000899607
0.000669009
0.000230574
-0.288691
0.387165
-0.0984728
0.0542942
-0.126288
0.0719937
-0.0323001
-0.0153384
0.0476387
-0.241738
0.338796
-0.2832
-0.0701764
-0.0208585
-0.107735
0.128593
0.000920487
0.0118184
-0.0127389
0.107008
-0.0792981
0.118353
0.0699249
0.00975589
0.190592
0.2395
0.373227
-0.612727
-0.00554858
0.00728516
0.00276075
0.0511352
-0.0538959
0.0624227
-0.0912608
0.0288382
-0.384715
-0.0729402
0.000756822
0.000222331
-0.00097915
-0.00513183
0.00492182
0.000210049
-0.0448582
0.07037
0.028477
-0.000781591
-0.12689
0.102141
0.249811
0.476447
-0.667305
0.190847
-0.138254
0.0034297
0.134824
-0.00117684
0.00628945
-0.00511261
0.115965
-0.128276
0.0123112
-0.171471
0.252233
-0.0994509
0.0270084
-0.148803
-0.0104835
-0.094149
-0.454727
0.548873
-0.0869967
0.0831671
0.00382958
0.253741
0.285469
-0.539215
0.0574991
0.000971456
-0.207773
0.232948
-0.0716181
0.472759
0.078359
0.114025
-0.192385
0.0521666
-0.127232
0.103099
-0.114057
0.0183957
-0.101763
-0.00866073
0.131527
-0.122867
0.376979
-0.0887603
-0.288218
0.0780332
-0.0885707
0.0105376
-0.0220982
-0.0273911
0.0342096
-0.031449
-0.228615
-0.265539
0.0742813
-0.0180113
-0.0562699
-0.490173
0.0229199
0.467253
0.184575
0.192405
-0.477921
0.114948
0.0586571
-0.0372235
-0.0602412
0.523925
-0.463691
-0.0998999
0.101363
-0.173552
0.00768474
-0.268229
0.39959
0.000278961
0.156752
-0.24286
0.0240181
0.218839
-0.00824454
0.00536934
0.00287515
0.079152
-0.126444
0.116291
-0.124526
-0.279001
-0.105945
0.384958
0.0679387
-0.351142
-0.000931336
-0.00198566
0.00291698
0.00943177
-0.00704283
-0.00238899
0.288512
0.214551
-0.395376
0.631217
-0.235851
-0.0765915
-0.0104051
-0.29218
-0.0665508
0.358726
-0.00219031
0.0043517
0.100267
-0.379246
-0.0100714
0.0023323
-0.332299
0.255787
0.0765139
0.0989535
-0.0174061
-0.0815476
0.213317
-0.140583
-0.0727336
0.01279
-0.00648827
-0.00630179
0.0587272
-0.209148
0.00156952
-0.0684572
-0.0510377
0.0145872
0.0364508
0.179213
-0.100856
-0.0566993
-0.0580603
-0.013348
0.0694463
-0.0560985
0.0530175
-0.279856
0.226836
-0.00404735
-0.00813025
0.0121776
-0.050617
0.02419
-0.000112315
-0.00501951
-0.18708
0.171629
0.0154503
-0.0117415
0.000182437
0.0115591
-0.160117
-0.0528306
0.212946
0.00145284
-0.00451786
0.003065
-0.0384895
-0.0125481
0.063488
-0.0889041
0.0254157
0.0905377
-0.0270502
0.0312737
-0.0135951
-0.565207
0.329619
0.235586
0.137383
0.0116686
0.000157648
-0.00119548
-0.180596
0.294468
-0.113873
0.223764
-0.00471957
-0.219047
-0.00641277
0.0057808
-0.0588908
0.0706664
-0.216015
-0.0490944
0.265106
-0.0783342
0.0747852
-0.0312414
-0.0295994
-0.605898
0.327622
0.278268
-0.0104999
0.00160784
-0.109599
0.0289471
0.0806523
-0.2708
0.524536
0.511547
-0.361933
-0.14962
0.10264
-0.592812
0.238738
0.266921
-0.0105664
0.0885995
-0.0431672
0.0582586
-0.0150914
-0.0428652
0.0284858
0.0143793
1.74793e-05
-0.000948847
-0.373625
-0.00613041
0.379752
-0.0546389
0.108933
-0.00732879
0.00776664
-0.000437904
0.125062
-0.163073
0.0380112
0.00556199
-0.00904668
0.00786982
0.00541065
0.211175
-0.482369
0.271189
0.0936555
-0.0312327
0.323619
-0.498686
0.175061
-0.0214069
0.0769324
-0.141704
-0.191077
0.0106052
0.00218463
-0.0282483
-0.110117
0.18014
0.088523
-0.268662
0.457083
-0.575326
0.118241
0.137275
-0.126689
-0.0851435
0.0942588
0.121075
-0.123631
0.00255631
-0.0138702
-0.0327011
0.0465763
0.000631877
0.00082096
0.00594434
-0.00157317
0.0112604
0.128705
0.0552
-0.113334
0.0182876
-0.482442
-0.000915766
0.000115043
-0.0194568
-0.00693151
0.0263883
-0.0289619
0.289119
-0.26016
0.0841492
-0.0825797
-0.308462
0.502799
-0.19434
0.0326315
0.0716792
-0.104311
-0.0988613
-0.233436
-0.311338
-0.253871
-0.291671
0.107635
0.184034
-0.0214515
-0.00530978
0.0267613
-0.0739785
-0.217694
-0.0164206
0.0173411
-0.00115603
-0.000672036
0.00182799
0.0834459
-0.0845662
0.00112036
0.0207279
-0.0399179
0.0191902
-0.216182
0.269197
-0.0344254
-0.0194079
0.0353153
0.591695
-0.243093
-0.348607
-0.0681242
-0.297067
0.116469
0.216535
-0.340812
0.124275
-0.0689378
-0.0697195
-0.368297
0.607796
-0.392014
0.462758
-0.0707462
0.391404
-0.0677883
0.0853982
-0.0959645
-0.338112
-0.275024
-0.010539
-0.00120249
-0.000852676
0.0297117
-0.028859
0.00356312
0.00237015
-0.00593329
-0.0720948
-0.0337195
-0.00488237
-0.0121373
0.0170197
0.00349471
0.000171054
-0.00366578
0.16319
-0.038128
-0.475621
0.101992
0.101936
0.0148173
-0.116753
-0.267141
0.0824692
0.2014
-0.193323
-0.00807806
0.224138
0.402554
0.0166871
0.0308261
-0.0188396
-0.0397333
0.0388807
-0.189865
0.20566
-0.0157966
0.105439
0.0234593
-0.128898
-0.167501
-0.0195788
-0.261147
0.203159
0.00721807
0.113857
0.19165
-0.241674
0.0500215
-0.0775033
0.0865523
-0.00904885
-0.176726
0.27787
-0.441384
0.381137
0.00404444
-0.00623476
0.012676
0.00247918
0.016087
-0.003411
0.0462355
0.0808569
-0.127093
0.00611797
-0.00255487
0.01174
-0.0157874
-0.00256273
0.0038749
-0.00131215
-0.00302713
-0.000718398
0.00374548
0.147107
0.368428
-0.515539
-0.128044
0.00314179
0.124902
0.224978
-0.0333307
0.347007
-0.264848
-0.0821616
-0.102469
0.0255286
0.0769401
0.00465441
0.485196
-0.538648
0.0534545
0.0112941
-0.131331
0.120036
-0.00656916
-0.14576
0.15233
-0.00477116
0.00314971
0.0016214
0.347438
0.244253
0.114293
-0.00402284
-0.11027
0.000457207
-0.00496959
0.00451231
0.0903899
-0.0100978
-0.0802922
0.000720826
-0.0110542
0.0103334
0.236063
-0.251843
0.222877
0.525294
0.111621
-0.149168
-0.0196738
0.511714
-0.300545
-0.0275503
-0.00660452
0.0341548
-0.0314653
-0.0114
-0.155115
0.146453
-9.85793e-05
0.000969599
-0.000871021
0.0204749
0.188041
0.10067
0.00985978
-0.00676685
0.00420411
-0.0118207
0.0478484
-0.00646903
0.0899151
-0.00913946
-0.0911031
0.10183
0.0124635
0.11784
-0.139989
0.022149
0.0837333
0.0280985
-0.111832
-0.168127
0.177688
-0.00956059
0.0963314
-0.108593
0.0122616
0.0231598
-0.140327
-0.0102357
0.150563
0.104285
0.000453569
-0.104738
-0.533377
0.5475
-0.0141286
0.0978733
-0.028548
-0.0693253
0.211948
-0.0150838
-0.196864
-0.431699
0.30597
0.125729
-0.155615
0.00644569
-0.264198
0.181839
0.0823579
-0.00137806
-0.00339315
0.015538
0.0217352
0.0891056
-0.38129
-0.518891
0.424739
-0.0305186
-0.00607863
0.0365972
0.00444314
-0.000948447
0.594886
-0.22166
-0.00935674
0.0100775
-0.313062
0.231759
0.081304
0.116786
-0.0864179
-0.0303687
0.00890106
0.325471
-0.334377
-0.00029234
2.89683e-06
0.000289411
0.0675876
-0.0940747
0.0264871
0.0386285
0.179546
0.305576
-0.193131
-0.112446
0.0169555
-0.0218379
-0.108218
0.0757546
-0.0097475
0.00969731
5.01823e-05
0.238802
-0.607099
-0.000664416
0.000367626
0.000296763
-0.00260554
0.0960994
-0.0144503
-0.0816491
-0.356078
-0.0756205
-0.00133593
0.00157638
0.034573
-0.0152676
-0.0193054
-0.125467
0.163816
-0.0383483
0.126776
0.384767
-0.218957
0.265023
-0.0460684
-0.138205
-0.0613212
0.0939527
-0.0428767
0.528075
-0.521489
0.15955
0.654866
-0.442252
-0.21262
0.411299
0.24356
0.00108338
-0.000326606
-0.0408286
-0.0616401
0.0377227
-0.091884
0.108011
-0.016127
0.577285
-0.100848
-0.0492439
-0.409915
-0.00772642
0.113166
-0.0220189
0.0106384
0.0113805
0.147862
-0.163001
0.0151383
-0.113083
0.337233
0.453581
-0.237049
-0.288757
-0.0887164
0.377473
0.019508
-0.00375896
0.0093496
0.393811
0.171288
-0.565102
-0.264082
-0.144782
0.408863
0.0161523
-0.0189662
-0.14916
0.104576
0.108741
0.0443031
-0.296149
-0.145374
0.260077
-0.114706
0.178154
-0.218325
0.0401697
-0.000800548
0.105085
0.0562756
-0.0696238
0.026008
0.0936569
0.00827935
-0.143263
0.0562737
0.0869891
0.0144046
0.0811647
0.00330666
0.112984
0.455369
-0.293777
-0.161595
-0.00015295
-0.000746685
-0.452561
0.248189
-0.0244261
0.252392
0.00530339
-0.257695
0.0686073
0.029266
0.0745931
0.0248141
-0.0994077
-0.0147284
0.402899
-0.388177
-0.00667647
0.0970662
0.102185
-0.131209
0.0290246
-0.00143205
0.00037811
0.00105387
-0.076518
-0.0667449
-0.00132874
0.0948807
-0.0935523
0.13796
-0.144529
0.327372
0.12971
0.0558639
-0.0216543
0.0922769
-0.0226386
0.0187476
0.0038911
0.168097
-0.344826
-0.152513
0.184193
-0.0316812
0.101426
0.0065852
-0.00285795
-0.00618874
0.0039942
-0.00398698
0.113616
-0.117221
-0.0566715
0.102907
-0.033184
-0.205583
0.199212
-0.224739
0.0255258
-0.211565
0.255865
-0.0691293
-0.0197883
0.0889173
-0.0481385
0.0257143
0.14208
0.00394716
0.0176368
-0.0168131
-0.00582544
-0.00241675
-0.00733075
0.0238517
-0.218991
0.195137
-0.00491381
0.105583
0.0894919
-0.0219043
0.0804911
0.0945539
-0.175047
-0.290305
0.086077
0.204227
-0.0240196
0.000249393
0.0237702
0.0591968
-0.0416634
-0.0175333
-0.0491747
0.0401834
0.00899128
-0.0380258
-0.0611509
0.0991766
-0.541317
0.0477844
-0.00844622
-0.00205374
0.0110447
-0.471494
0.456757
0.179823
-0.180285
0.000460484
-0.0120019
-0.108408
0.12041
-0.123253
0.0234323
-0.0168869
0.117846
0.029837
-0.00724413
-0.0225928
0.105185
-0.0214513
-0.023957
0.193107
-0.169149
0.0289592
0.0269047
0.26359
-0.199067
-0.0645243
-0.00340677
0.000379595
0.264107
-0.576474
-0.0171865
0.410995
0.0643629
0.00991855
0.0459918
0.0132051
0.0267862
-0.00117586
-0.0256102
0.0946304
0.168959
0.256246
-0.265769
-0.448742
0.184659
8.76378e-05
-0.14889
0.00302879
0.118544
-0.0843646
0.218068
-0.0188575
0.103064
-0.109533
0.129729
-0.262619
0.271516
-0.0527246
-0.0576569
0.114402
0.00414306
-0.076815
0.0731916
0.00362349
-0.0480203
0.361728
-0.313712
-0.0812298
-0.0220491
0.103279
-0.0714289
-0.00996825
0.00881216
0.0355702
0.115548
0.105928
-0.0313353
-0.185468
0.0329544
-0.261011
0.541229
-0.280225
0.294293
0.0842027
-0.378497
-0.0889796
0.310664
-0.0796632
-0.015441
0.0951037
0.153816
-0.0616135
-0.0510709
0.0956773
-0.0446064
-0.0343299
0.0204596
-0.137702
-0.0144178
-0.224308
-0.381597
0.0286094
-0.0861518
0.0575423
0.0219191
0.00486727
-0.0983281
0.0859537
0.0123745
0.0571316
-0.345821
-0.182153
0.146737
0.0354156
-0.121526
-0.399969
-0.156426
-0.0451977
0.201626
-0.0496254
0.211545
0.00666593
0.0279071
-0.296716
0.615574
-0.0590401
0.18626
-0.000216966
-0.186041
0.0881198
0.0173583
0.141116
-0.0616543
-0.0794622
-0.000869196
-0.00172604
0.0025952
-0.0262542
-0.0823588
0.108612
0.0465856
-0.265545
-0.00413299
0.0058901
-0.00175714
0.00362941
0.000372427
0.354822
-0.267171
-0.0876546
0.221706
0.0306864
0.0998008
-0.0776141
-0.0221865
0.0768353
-0.114861
0.113217
0.00274775
-0.350372
-0.241517
0.591887
0.0364287
0.269145
-0.0986845
0.0812781
0.243022
-0.0628805
-0.109865
-0.0137671
-0.147312
0.126454
0.388632
-0.0943391
-0.146588
0.148011
-0.00142238
-0.0268993
0.401156
-0.17524
-0.225914
-0.265759
-0.0329475
0.298709
0.677349
-0.396285
-0.281071
0.00634063
0.00309108
-0.425105
0.623212
-0.199089
0.00922259
0.00165331
0.00726175
0.00662791
0.202391
-0.209021
0.0519228
-0.00593091
-0.0230645
-0.185843
0.0689883
0.0677824
0.23509
0.122275
-0.0102067
-0.112069
-0.101565
-0.376361
0.1337
-0.00708086
-0.126619
0.327721
-0.590688
0.262957
0.109821
-0.0940998
-0.0157218
-0.218024
-0.0950374
-0.035041
0.0354981
0.0437954
-0.0400703
-0.00372501
-0.00798112
-0.0140378
-0.564499
-0.0724448
-0.245709
0.120704
-0.117398
-0.144827
0.155986
-0.0111582
0.00163226
-0.00722216
0.00558989
0.0247032
-0.0222175
-0.00248575
-0.129847
-0.0276408
-0.332105
-0.0150236
0.347126
0.0988312
-0.013433
-0.0211069
0.0199312
-0.0844702
0.00765541
0.0532251
-0.104296
0.138778
-0.000729541
-0.138048
-0.0247242
-0.00365123
0.0283754
-0.161702
0.144412
0.0172868
0.164797
-0.175279
0.00262072
0.0872636
-0.0898844
-0.0708081
-0.00874434
-0.142963
0.0131165
-0.00629003
0.0177878
-0.0114977
0.141274
-0.146965
0.00569077
-0.281264
0.0816769
0.199589
0.0932306
-0.105232
0.066665
0.112547
-0.405622
0.319638
0.0859852
-0.184152
0.0277286
0.0101268
0.143906
-0.164618
-0.0479993
-0.382004
-0.0438626
0.425862
0.1819
0.14321
-0.0116755
-0.131535
-0.0617407
0.24143
-0.179689
-0.133102
0.0232371
0.0110872
-0.343194
-0.224236
0.463786
-0.239552
0.124325
-0.549431
0.214057
-0.160373
-0.0536862
0.222321
0.225412
-0.447732
0.0301998
0.181889
-0.212091
0.630134
-0.284678
-0.345463
-0.000781798
0.000489432
-0.152396
0.145911
0.0064854
0.0395736
-0.0433101
0.239787
-0.520051
0.280257
-0.348248
-0.212628
0.560875
-0.0399931
0.085989
-0.0459959
0.145067
-0.027227
0.24936
-0.195951
-0.0534081
0.0535281
0.0198335
-0.0733617
0.131607
-0.0434481
-0.0881589
-0.0890012
0.0675945
0.00210956
0.0936799
-0.117983
0.0243032
-0.0867879
0.259859
-0.173071
-0.62833
0.0146464
0.613683
0.603144
-0.191853
-0.255867
0.0130053
0.00946736
-0.00974934
0.000281963
-0.604207
0.255959
-0.0888645
0.0153261
0.0735384
-0.123465
0.153663
-0.0011924
-0.00613643
0.103506
-0.1344
0.0308927
0.103579
0.0280267
-0.00755322
0.095673
-0.44143
0.100889
0.340538
0.279285
0.31773
-0.00117161
-0.429991
0.274577
0.155414
-0.300611
0.0828442
0.217765
-0.0602688
-0.0222205
0.0824892
0.250085
-0.0128224
0.105548
0.44241
-0.547959
-0.00476743
0.17318
-0.168414
-0.0597238
-0.420057
0.479774
0.3266
-0.47651
0.149906
-0.162604
0.00999114
-0.00376428
0.0053965
0.164827
-0.171392
0.00657436
0.251031
0.150127
0.468434
0.126948
0.00842775
-0.0112857
0.010874
0.331701
-0.100184
-0.231521
-0.111107
0.279201
0.078783
-0.025255
-0.0833378
0.0952261
-0.0118881
-0.00579145
-0.000742681
0.0065341
-0.114351
0.113022
-0.0509152
-0.230348
-0.235979
-0.359283
0.507848
-0.181251
0.0050169
-0.145343
-0.00872917
0.0154769
-0.0864727
0.070995
0.0531018
0.118528
-0.0130808
0.00495057
-0.285796
0.0852089
0.200585
0.0369618
-0.216674
0.179711
0.00535774
-0.00690059
0.00154284
0.143028
-0.451492
0.00277651
0.209172
0.275723
-0.358432
0.0827061
0.338853
0.260839
-0.599698
0.000379252
-0.147971
0.0888816
0.014218
0.206779
-0.275776
0.0689958
0.0497902
0.00213263
0.000961293
0.0121151
-0.0130764
0.0328474
0.226751
-0.312897
-0.117678
0.430575
-0.0962078
-0.00625028
0.102458
-0.0744598
-0.328789
0.56759
-0.0799375
0.0939176
-0.0139801
-0.438457
0.12556
-0.152721
-0.281108
0.366044
-0.0849331
0.438828
-0.152806
-0.286021
-0.10215
-0.24431
-0.100668
0.344977
0.021205
-0.0718977
0.138306
0.0426367
-0.180944
0.404804
-0.586815
0.18201
0.377031
-0.506137
0.129104
-0.0161533
-0.267291
0.283444
0.0297969
-0.322148
0.292347
-0.340061
0.074306
-0.0291449
0.038055
-0.00891
0.291042
0.0500587
-0.3411
-0.107735
0.401358
-0.293628
0.0242618
-0.00667692
-0.0175849
-0.0305989
0.0329847
-0.153246
0.12929
-0.152977
-0.00128752
-0.116275
0.117563
-0.0496122
-0.165771
0.215383
0.473407
-0.161415
-0.311991
0.126101
-0.0511311
0.0011903
0.107179
0.00264222
0.278466
-0.483615
0.205147
-0.30246
0.109326
-0.0022817
0.0269849
-0.0498543
-0.081836
0.13169
0.00145259
-0.00267604
0.00122344
0.529129
0.168987
0.000864973
-0.00790783
-0.178346
0.151814
0.0265334
-0.27624
0.0618128
0.0104806
-0.0101122
-0.000368354
-0.0139047
0.0106452
0.00325953
0.35544
-0.325648
0.097421
-0.0948004
0.495607
0.107531
-0.339024
0.0947134
0.432149
-0.192367
-0.00163417
0.00185649
0.472787
-0.250465
-0.329897
0.283781
-0.0401216
-0.273813
0.0725926
0.201221
0.0336476
0.0831387
-0.0937752
0.0425725
0.306463
0.0726734
-0.379135
0.100462
-0.122018
0.0215561
0.369181
0.172151
-0.541335
0.00147005
0.508518
-0.484998
-0.0235242
0.348175
0.353748
0.226608
-0.580358
0.00218808
0.459296
0.0239548
-0.0110138
0.014173
-0.00315932
0.0115175
-0.0449996
0.0334822
-0.0026577
-0.179496
-0.0383612
-0.071238
-0.00590864
0.00652178
-0.000613143
-0.282068
0.350004
0.000313817
-0.00876006
-0.0454826
0.0159239
-0.00610255
0.000193881
0.000430448
0.0141498
-0.0145803
0.00545258
0.0188093
-0.0201356
0.0187034
-0.0667249
0.0953343
0.180839
0.0841812
0.00331131
-0.150268
-0.0280773
0.00460635
-0.0240632
-0.412569
0.0564904
0.0889927
0.277494
0.278338
0.0533604
0.540465
0.162669
-0.227787
0.0651176
0.122545
-0.144574
0.0220292
-0.00577866
0.00795674
-0.00217811
0.372868
-0.283879
0.425904
-0.188862
-0.237042
-0.0018198
0.00817516
-0.00635536
0.0146521
-0.0759774
0.061325
-0.269329
0.253176
0.0180968
0.0197155
-0.171376
0.151659
-0.069836
-0.208174
0.278009
0.0240298
0.0197656
0.0868469
-0.06875
0.16301
-0.210538
0.0475275
-0.167818
-0.105995
0.0118666
-0.0109054
0.00615971
-0.000802
0.00844055
-0.0154365
-0.36443
0.0833239
-0.078262
-0.0299562
-0.0105593
0.112745
-0.00420252
-0.00202466
0.00622714
-0.0326511
-0.126392
0.123379
0.00301307
0.258916
0.171081
-0.257869
-0.0743956
-0.211403
-0.509883
-0.11379
0.0686821
0.513617
-0.366513
0.168317
0.00983578
-0.0646569
-0.0970468
0.00223507
-0.00212627
-0.000108791
-0.126708
0.029786
0.0969221
-0.0955807
-0.234314
0.117139
0.00469496
-0.00237225
-0.00232268
0.159036
0.327158
-0.246562
-0.0805979
0.00211113
-0.000230441
-0.00188071
-0.361899
0.0936651
-0.304436
0.0038227
0.0770466
-0.107068
0.0300214
0.00886004
-0.00895866
0.482178
0.300786
-0.34881
-0.0230387
0.029945
-0.00690627
-0.102796
0.0644347
-0.0221228
0.0889441
-0.0668213
-0.131606
0.0333215
0.0982851
-0.0412962
-0.0643214
-0.490013
0.174882
0.315128
-0.0934768
0.0939039
-0.000426979
0.174238
0.152919
0.0142161
0.358586
-0.372807
-0.0781709
-0.212135
-0.0378768
0.0103264
0.000147455
-0.00593893
-0.369546
0.0877918
0.281753
0.501717
-0.124687
-0.072448
0.348167
0.0164632
0.0646033
-0.178162
-0.00651395
0.184675
-0.234109
-0.195882
-0.302402
0.0863835
0.000180364
0.364563
-0.0580987
-0.0062894
-0.0650549
-0.0203329
0.0853874
-0.0131187
-0.00375995
0.0168786
-0.327409
0.0856686
0.114489
-0.0303104
-0.0841788
0.183873
-0.160024
0.00167245
-0.00166958
0.00362829
0.00106668
0.00281141
-0.000589307
-0.117596
0.116309
0.000362089
-0.0142667
0.465329
0.00381101
-0.0252625
-0.456663
0.481236
-0.0740829
-0.147519
0.164014
-0.153739
-0.0102793
-0.0753327
-0.0362518
0.00573321
0.050523
0.0245495
-0.0750723
0.0975185
0.0118609
-0.109379
-0.0138592
0.0515295
-0.0376703
-0.288029
-0.276243
0.564264
-0.0591626
0.0959797
-0.0368171
0.104585
0.334243
-0.0866781
0.153342
0.0270932
-0.0212776
-0.00581556
0.231291
0.115714
0.185992
-0.642656
0.21959
-0.265617
0.046025
0.104366
-0.256412
0.152044
0.00284283
-0.000607766
0.469214
-0.101199
-0.368018
0.51641
-0.183771
0.00533853
-0.0234274
0.128005
-0.104578
0.142993
-0.144068
0.00107535
-0.0261679
0.00506105
-0.104918
-0.00253863
0.107457
0.00951854
0.000340637
-0.00985918
-0.00773778
-0.13062
0.111381
-0.161235
0.00475777
-0.0048514
-0.172212
0.0106576
0.0675089
-0.0781665
0.000665257
0.0260566
0.203525
-0.00622282
-0.197302
-0.308628
-0.0571487
0.365779
0.00137108
0.0175161
-0.0188872
-0.0339471
-0.248211
0.264828
-0.138099
0.033924
0.104175
0.151051
-0.00318857
-0.345462
0.118136
0.227328
-0.0263715
0.189041
-0.141195
0.24556
0.152545
0.282513
0.314502
0.132482
0.00629595
-0.0211065
0.0501409
-0.371916
0.133793
-0.122996
-0.0107979
0.107659
0.211536
-0.319191
0.1038
-0.0919005
-0.0119003
-0.254524
0.582236
0.156112
0.000371812
-0.128415
-0.230308
0.168568
0.320233
-0.0804066
-0.239826
-0.299097
-0.0704505
0.0325478
-0.0342571
0.00170939
-0.0825518
-0.0325449
0.115096
-0.0209574
0.0554843
-0.0345268
0.264538
0.198218
-0.325647
0.266597
0.0590476
0.00550875
-0.272927
-0.0855082
0.0184785
0.109556
-0.128035
-0.120227
0.0376749
-0.234722
-0.110739
0.024724
0.109253
-0.260713
0.368371
-0.0257581
0.070129
-0.044371
-0.290402
0.0421913
0.00342138
0.189687
-0.004878
-0.00153472
-0.0757722
0.0958675
-0.0200953
-0.0937748
0.403061
-0.309291
-0.224071
0.189855
0.0342139
0.00169459
-0.0127084
0.357473
-0.343261
0.477506
-0.119304
-0.358207
-0.00535897
0.00115641
0.00208278
-0.00371696
0.0277757
-0.195277
-0.00453693
-0.0910421
0.0955793
0.5474
-0.279311
0.231473
-0.00779956
0.236661
-0.212645
-0.356446
-0.084987
-0.0880548
0.0167789
0.0712759
0.307834
-0.286201
-0.0216317
0.0164328
0.0684688
-0.0849015
0.204589
0.399369
-0.447668
0.0912197
-0.296838
0.196651
0.000715718
-0.105634
0.0123215
0.00201365
-0.0143352
-0.222322
-0.0747474
-0.00108269
-0.235941
0.237021
-0.350447
-0.139569
0.194737
-0.184982
0.485183
-0.146336
0.0156291
0.130692
-0.119398
-0.585261
0.256471
0.0133969
0.0448617
0.114766
-0.0911192
0.0319566
0.0149332
-0.0031932
-0.018346
-0.00567367
0.395836
-0.308045
-0.301563
0.0550004
-0.259695
0.338792
-0.0791002
-0.0122375
-0.175605
0.141841
0.000708149
0.0126382
-0.0133463
-0.00195454
-0.00461006
0.0065646
0.229007
-0.17028
0.00405458
0.00293302
-0.0101266
-0.140011
0.141238
-0.00122652
-0.0968703
0.0923336
-0.110881
0.0846258
-0.00665968
-0.00857552
0.105491
-0.00169132
0.0261957
0.0536583
-0.0798541
0.013393
-0.00392517
0.13056
0.00839423
-0.138954
0.172475
0.00451201
-0.0296375
0.0772109
-0.400483
-0.0120861
0.213989
-0.13964
0.0604423
-0.0497848
-0.12645
0.138624
-0.0121758
0.37475
-0.285648
0.118369
0.00390572
-0.0935171
0.111996
-0.00830797
0.00594202
-0.000460899
-0.00548114
0.215439
-0.00497171
-0.210469
-0.0592045
0.0453454
0.0334391
0.128505
-0.161943
-0.0133127
0.084512
-0.0711991
-0.0503808
-0.0475867
0.0979674
0.113246
-0.0795982
-0.158295
0.17801
-0.36845
0.207149
0.0369568
0.309593
-0.43369
0.124094
-0.0426368
0.205646
-0.507123
-0.0262608
0.186097
-0.370732
0.11097
0.259758
0.000625597
0.110275
-0.110901
-0.010703
0.107035
0.0121663
0.00113882
-0.0133051
0.0803668
0.0249561
-0.105323
-0.0372594
-0.0565159
-0.033303
-0.00643029
0.0709274
0.263796
-0.364674
0.100873
0.00115146
0.00515122
-0.0335679
0.0284167
0.324498
-0.394096
0.0695962
0.355975
-0.150141
-0.00853238
0.158673
0.00127193
0.00819541
0.327261
-0.593952
0.266689
0.123602
-0.0058802
-0.117722
0.0724004
-0.00907542
-0.0633252
0.113406
-0.148408
0.0350008
0.374149
-0.268698
-0.105452
-0.286844
0.230242
0.0566028
-0.182688
0.323557
-0.140868
-0.075316
-0.0627825
-0.145808
0.0983383
0.233843
0.0011826
-0.0362237
0.028592
-0.0206169
-0.0079751
-0.119299
0.119175
-0.091461
0.0115236
-0.0225343
0.153095
0.0868931
-0.0825914
-0.00430183
-0.213897
0.220524
-0.201887
0.152275
0.00744553
0.0357176
-0.0431631
-0.067918
0.0916159
-0.0236979
-0.00275453
-0.00752245
0.029326
-0.0340234
-0.594307
-0.415996
0.312232
0.103765
-0.149193
0.311101
0.347463
-0.0715945
-0.27587
0.119266
0.157653
-0.0605659
-0.0693203
0.129885
0.373311
-0.0773548
-0.295961
0.00440525
0.0971185
-0.101524
-0.505955
0.446224
-0.163063
-0.301036
0.124753
-0.0211737
-0.000892003
0.103957
-0.0580679
0.0842635
-0.356277
0.0742054
0.0349837
-0.173274
-0.242722
0.00817599
0.0381112
-0.0462872
0.2728
0.229997
-0.183512
0.138316
0.459613
-0.181149
0.013815
0.0782829
-0.0920986
0.000803236
0.0638903
-0.105944
0.279533
-0.0743806
-0.0523274
0.359753
-0.143564
-0.216192
0.148568
-0.00452379
0.00279773
0.236292
0.100395
-0.336689
0.196685
-0.274856
-0.1356
0.112173
0.168933
0.0108883
0.00426134
0.28437
0.1183
-0.174841
0.0565397
0.250007
-0.282952
0.122378
-0.504386
0.135189
-0.0126444
-0.0980032
-0.167769
-0.217626
-0.23785
0.455471
-0.164589
-0.0459498
0.000208724
0.000460268
-0.202255
-0.0107542
0.213008
-0.0679626
0.0834398
-0.0357778