/*--------------------------------*- C++ -*----------------------------------*\
| =========                 |                                                 |
| \\      /  F ield         | OpenFOAM: The Open Source CFD Toolbox           |
|  \\    /   O peration     | Version:  v2012                                 |
|   \\  /    A nd           | Website:  www.openfoam.com                      |
|    \\/     M anipulation  |                                                 |
\*---------------------------------------------------------------------------*/
FoamFile
{
    version     2.0;
    format      ascii;
    class       pointVectorField;
    location    "550";
    object      pointDisplacement;
}
// * * * * * * * * * * * * * * * * * * * * * * * * * * * * * * * * * * * * * //

dimensions      [0 1 0 0 0 0 0];


internalField   nonuniform List<vector> 
14324
(
(0 0 0)
(0.0313606 0.207037 0)
(0 0 0)
(0.0313606 0.207037 0)
(0 0 0)
(0 0 0)
(0 0 0)
(0 0 0)
(0 0 0)
(0 0 0)
(0 0 0)
(0 0 0)
(0 0 0)
(0 0 0)
(0 0 0)
(0 0 0)
(0 0 0)
(0 0 0)
(0 0 0)
(0 0 0)
(0 0 0)
(0 0 0)
(0 0 0)
(0 0 0)
(0 0 0)
(0 0 0)
(0 0 0)
(0 0 0)
(0 0 0)
(0 0 0)
(0 0 0)
(0 0 0)
(0 0 0)
(0 0 0)
(0 0 0)
(0 0 0)
(0 0 0)
(0 0 0)
(0 0 0)
(0 0 0)
(0 0 0)
(0 0 0)
(0 0 0)
(0 0 0)
(0 0 0)
(0 0 0)
(0 0 0)
(0 0 0)
(0 0 0)
(0 0 0)
(0 0 0)
(0 0 0)
(0 0 0)
(0 0 0)
(0 0 0)
(0 0 0)
(0 0 0)
(0 0 0)
(0 0 0)
(0 0 0)
(0 0 0)
(0 0 0)
(0 0 0)
(0 0 0)
(0 0 0)
(0 0 0)
(0 0 0)
(0 0 0)
(0 0 0)
(0 0 0)
(0 0 0)
(0 0 0)
(0 0 0)
(0 0 0)
(0 0 0)
(0 0 0)
(0.0223887 -0.138284 0)
(0.0224561 -0.135687 0)
(0.0225236 -0.133091 0)
(0.0225911 -0.130494 0)
(0.0226585 -0.127898 0)
(0.022726 -0.125302 0)
(0.0227934 -0.122705 0)
(0.0228609 -0.120109 0)
(0.0229283 -0.117512 0)
(0.0229958 -0.114916 0)
(0.0230633 -0.11232 0)
(0.0231307 -0.109723 0)
(0.0231982 -0.107127 0)
(0.0232656 -0.10453 0)
(0.0233331 -0.101934 0)
(0.0234006 -0.0993376 0)
(0.023468 -0.0967413 0)
(0.0235355 -0.0941449 0)
(0.0236029 -0.0915485 0)
(0.0236704 -0.0889521 0)
(0.0237378 -0.0863557 0)
(0.0238053 -0.0837593 0)
(0.0238728 -0.0811629 0)
(0.0239402 -0.0785665 0)
(0.0240077 -0.0759701 0)
(0.0240751 -0.0733737 0)
(0.0241426 -0.0707773 0)
(0.0242101 -0.0681809 0)
(0.0242775 -0.0655845 0)
(0.024345 -0.0629881 0)
(0.0244124 -0.0603917 0)
(0.0244799 -0.0577953 0)
(0.0245473 -0.0551989 0)
(0.0246148 -0.0526025 0)
(0.0246823 -0.0500061 0)
(0.0247497 -0.0474097 0)
(0.0248172 -0.0448133 0)
(0.0248846 -0.0422169 0)
(0.0249521 -0.0396205 0)
(0.0250195 -0.0370241 0)
(0.025087 -0.0344277 0)
(0.0251545 -0.0318313 0)
(0.0252219 -0.0292349 0)
(0.0252894 -0.0266385 0)
(0.0253568 -0.0240422 0)
(0.0254243 -0.0214458 0)
(0.0254918 -0.0188494 0)
(0.0255592 -0.016253 0)
(0.0256267 -0.0136566 0)
(0.0256941 -0.0110602 0)
(0.0257616 -0.00846377 0)
(0.025829 -0.00586738 0)
(0.0258965 -0.00327098 0)
(0.025964 -0.000674583 0)
(0.0260314 0.00192181 0)
(0.0260989 0.00451821 0)
(0.0261663 0.00711461 0)
(0.0262338 0.009711 0)
(0.0263013 0.0123074 0)
(0.0263687 0.0149038 0)
(0.0264362 0.0175002 0)
(0.0265036 0.0200966 0)
(0.0265711 0.022693 0)
(0.0266385 0.0252894 0)
(0.026706 0.0278858 0)
(0.0267735 0.0304822 0)
(0.0268409 0.0330786 0)
(0.0269084 0.035675 0)
(0.0269758 0.0382714 0)
(0.0270433 0.0408678 0)
(0.0271108 0.0434642 0)
(0.0271782 0.0460606 0)
(0.0272457 0.048657 0)
(0.0273131 0.0512533 0)
(0.0273806 0.0538497 0)
(0.027448 0.0564461 0)
(0.0275155 0.0590425 0)
(0.027583 0.0616389 0)
(0.0276504 0.0642353 0)
(0.0277179 0.0668317 0)
(0.0277853 0.0694281 0)
(0.0278528 0.0720245 0)
(0.0279203 0.0746209 0)
(0.0279877 0.0772173 0)
(0.0280552 0.0798137 0)
(0.0281226 0.0824101 0)
(0.0281901 0.0850065 0)
(0.0282575 0.0876029 0)
(0.028325 0.0901993 0)
(0.0283925 0.0927957 0)
(0.0284599 0.0953921 0)
(0.0285274 0.0979885 0)
(0.0285948 0.100585 0)
(0.0286623 0.103181 0)
(0.0287298 0.105778 0)
(0.0287972 0.108374 0)
(0.0288647 0.11097 0)
(0.0289321 0.113567 0)
(0.0289996 0.116163 0)
(0.029067 0.11876 0)
(0.0291345 0.121356 0)
(0.029202 0.123952 0)
(0.0292694 0.126549 0)
(0.0293369 0.129145 0)
(0.0294043 0.131742 0)
(0.0294718 0.134338 0)
(0.0295393 0.136934 0)
(0.0296067 0.139531 0)
(0.0296742 0.142127 0)
(0.0297416 0.144724 0)
(0.0298091 0.14732 0)
(0.0298765 0.149916 0)
(0.029944 0.152513 0)
(0.0300115 0.155109 0)
(0.0300789 0.157706 0)
(0.0301464 0.160302 0)
(0.0302138 0.162898 0)
(0.0302813 0.165495 0)
(0.0303488 0.168091 0)
(0.0304162 0.170688 0)
(0.0304837 0.173284 0)
(0.0305511 0.17588 0)
(0.0306186 0.178477 0)
(0.030686 0.181073 0)
(0.0307535 0.18367 0)
(0.030821 0.186266 0)
(0.0308884 0.188862 0)
(0.0309559 0.191459 0)
(0.0310233 0.194055 0)
(0.0310908 0.196652 0)
(0.0311582 0.199248 0)
(0.0312257 0.201844 0)
(0.0312932 0.204441 0)
(0.0287642 0.207105 0)
(0.0261678 0.207172 0)
(0.0235714 0.20724 0)
(0.020975 0.207307 0)
(0.0183786 0.207374 0)
(0.0157822 0.207442 0)
(0.0131858 0.207509 0)
(0.0105895 0.207577 0)
(0.00799306 0.207644 0)
(0.00539666 0.207712 0)
(0.00280026 0.207779 0)
(0.000203867 0.207847 0)
(-0.00239253 0.207914 0)
(-0.00498893 0.207982 0)
(-0.00758532 0.208049 0)
(-0.0101817 0.208116 0)
(-0.0127781 0.208184 0)
(-0.0153745 0.208251 0)
(0 0 0)
(0 0 0)
(0 0 0)
(0 0 0)
(0 0 0)
(0 0 0)
(0 0 0)
(0 0 0)
(0 0 0)
(0 0 0)
(0 0 0)
(0 0 0)
(0 0 0)
(0 0 0)
(0 0 0)
(0 0 0)
(0 0 0)
(0 0 0)
(0 0 0)
(0 0 0)
(0 0 0)
(0 0 0)
(0 0 0)
(0 0 0)
(0 0 0)
(0 0 0)
(0 0 0)
(0 0 0)
(0 0 0)
(0 0 0)
(0 0 0)
(0 0 0)
(0 0 0)
(0 0 0)
(0 0 0)
(0 0 0)
(0 0 0)
(0 0 0)
(0 0 0)
(0 0 0)
(0 0 0)
(0 0 0)
(0 0 0)
(0 0 0)
(0 0 0)
(0 0 0)
(0 0 0)
(0 0 0)
(0 0 0)
(0 0 0)
(0 0 0)
(0 0 0)
(0 0 0)
(0 0 0)
(0 0 0)
(0 0 0)
(0 0 0)
(0 0 0)
(0 0 0)
(0 0 0)
(0 0 0)
(0 0 0)
(0 0 0)
(0 0 0)
(0 0 0)
(0 0 0)
(0 0 0)
(0 0 0)
(0 0 0)
(0 0 0)
(0 0 0)
(0 0 0)
(0.0223887 -0.138284 0)
(0.0224561 -0.135687 0)
(0.0225236 -0.133091 0)
(0.0225911 -0.130494 0)
(0.0226585 -0.127898 0)
(0.022726 -0.125302 0)
(0.0227934 -0.122705 0)
(0.0228609 -0.120109 0)
(0.0229283 -0.117512 0)
(0.0229958 -0.114916 0)
(0.0230633 -0.11232 0)
(0.0231307 -0.109723 0)
(0.0231982 -0.107127 0)
(0.0232656 -0.10453 0)
(0.0233331 -0.101934 0)
(0.0234006 -0.0993376 0)
(0.023468 -0.0967413 0)
(0.0235355 -0.0941449 0)
(0.0236029 -0.0915485 0)
(0.0236704 -0.0889521 0)
(0.0237378 -0.0863557 0)
(0.0238053 -0.0837593 0)
(0.0238728 -0.0811629 0)
(0.0239402 -0.0785665 0)
(0.0240077 -0.0759701 0)
(0.0240751 -0.0733737 0)
(0.0241426 -0.0707773 0)
(0.0242101 -0.0681809 0)
(0.0242775 -0.0655845 0)
(0.024345 -0.0629881 0)
(0.0244124 -0.0603917 0)
(0.0244799 -0.0577953 0)
(0.0245473 -0.0551989 0)
(0.0246148 -0.0526025 0)
(0.0246823 -0.0500061 0)
(0.0247497 -0.0474097 0)
(0.0248172 -0.0448133 0)
(0.0248846 -0.0422169 0)
(0.0249521 -0.0396205 0)
(0.0250195 -0.0370241 0)
(0.025087 -0.0344277 0)
(0.0251545 -0.0318313 0)
(0.0252219 -0.0292349 0)
(0.0252894 -0.0266385 0)
(0.0253568 -0.0240422 0)
(0.0254243 -0.0214458 0)
(0.0254918 -0.0188494 0)
(0.0255592 -0.016253 0)
(0.0256267 -0.0136566 0)
(0.0256941 -0.0110602 0)
(0.0257616 -0.00846377 0)
(0.025829 -0.00586738 0)
(0.0258965 -0.00327098 0)
(0.025964 -0.000674583 0)
(0.0260314 0.00192181 0)
(0.0260989 0.00451821 0)
(0.0261663 0.00711461 0)
(0.0262338 0.009711 0)
(0.0263013 0.0123074 0)
(0.0263687 0.0149038 0)
(0.0264362 0.0175002 0)
(0.0265036 0.0200966 0)
(0.0265711 0.022693 0)
(0.0266385 0.0252894 0)
(0.026706 0.0278858 0)
(0.0267735 0.0304822 0)
(0.0268409 0.0330786 0)
(0.0269084 0.035675 0)
(0.0269758 0.0382714 0)
(0.0270433 0.0408678 0)
(0.0271108 0.0434642 0)
(0.0271782 0.0460606 0)
(0.0272457 0.048657 0)
(0.0273131 0.0512533 0)
(0.0273806 0.0538497 0)
(0.027448 0.0564461 0)
(0.0275155 0.0590425 0)
(0.027583 0.0616389 0)
(0.0276504 0.0642353 0)
(0.0277179 0.0668317 0)
(0.0277853 0.0694281 0)
(0.0278528 0.0720245 0)
(0.0279203 0.0746209 0)
(0.0279877 0.0772173 0)
(0.0280552 0.0798137 0)
(0.0281226 0.0824101 0)
(0.0281901 0.0850065 0)
(0.0282575 0.0876029 0)
(0.028325 0.0901993 0)
(0.0283925 0.0927957 0)
(0.0284599 0.0953921 0)
(0.0285274 0.0979885 0)
(0.0285948 0.100585 0)
(0.0286623 0.103181 0)
(0.0287298 0.105778 0)
(0.0287972 0.108374 0)
(0.0288647 0.11097 0)
(0.0289321 0.113567 0)
(0.0289996 0.116163 0)
(0.029067 0.11876 0)
(0.0291345 0.121356 0)
(0.029202 0.123952 0)
(0.0292694 0.126549 0)
(0.0293369 0.129145 0)
(0.0294043 0.131742 0)
(0.0294718 0.134338 0)
(0.0295393 0.136934 0)
(0.0296067 0.139531 0)
(0.0296742 0.142127 0)
(0.0297416 0.144724 0)
(0.0298091 0.14732 0)
(0.0298765 0.149916 0)
(0.029944 0.152513 0)
(0.0300115 0.155109 0)
(0.0300789 0.157706 0)
(0.0301464 0.160302 0)
(0.0302138 0.162898 0)
(0.0302813 0.165495 0)
(0.0303488 0.168091 0)
(0.0304162 0.170688 0)
(0.0304837 0.173284 0)
(0.0305511 0.17588 0)
(0.0306186 0.178477 0)
(0.030686 0.181073 0)
(0.0307535 0.18367 0)
(0.030821 0.186266 0)
(0.0308884 0.188862 0)
(0.0309559 0.191459 0)
(0.0310233 0.194055 0)
(0.0310908 0.196652 0)
(0.0311582 0.199248 0)
(0.0312257 0.201844 0)
(0.0312932 0.204441 0)
(0.0287642 0.207105 0)
(0.0261678 0.207172 0)
(0.0235714 0.20724 0)
(0.020975 0.207307 0)
(0.0183786 0.207374 0)
(0.0157822 0.207442 0)
(0.0131858 0.207509 0)
(0.0105895 0.207577 0)
(0.00799306 0.207644 0)
(0.00539666 0.207712 0)
(0.00280026 0.207779 0)
(0.000203867 0.207847 0)
(-0.00239253 0.207914 0)
(-0.00498893 0.207982 0)
(-0.00758532 0.208049 0)
(-0.0101817 0.208116 0)
(-0.0127781 0.208184 0)
(-0.0153745 0.208251 0)
(0.0235721 -0.0927364 0)
(0.0247858 -0.0460218 0)
(0.0259916 0.000384717 0)
(0.0272133 0.0474149 0)
(0.0284345 0.0944097 0)
(0.0296409 0.140848 0)
(0.0308612 0.187868 0)
(0.0278255 0.0709694 0)
(0.0229639 -0.116145 0)
(0.0266108 0.0242182 0)
(0.0241817 -0.0692719 0)
(0.0302501 0.164299 0)
(0.0253922 -0.0226809 0)
(0.0290337 0.117477 0)
(0.0037001 0.207756 0)
(0.0246339 0.207199 0)
(-0.0144566 0.208221 0)
(0.0011134 0.00604783 0)
(0.000884031 0.0102897 0)
(0.0013097 0.00485309 0)
(0.0013112 0.00157293 0)
(0.00072625 0.0118494 0)
(0.000522764 0.0132758 0)
(0.0311772 0.200435 0)
(0.000786827 0.00516267 0)
(0.000727732 0.00705848 0)
(0.000278187 0.0138045 0)
(0.00124847 -0.000683647 0)
(0.000584436 0.00513834 0)
(0.0299847 0.154078 0)
(0.0251196 -0.0331715 0)
(0.0293046 0.127904 0)
(0.0238989 -0.0801624 0)
(0.0274814 0.0577269 0)
(0.0281681 0.0841554 0)
(0.0268716 0.0342611 0)
(0.0232331 -0.105782 0)
(0.0262741 0.0112598 0)
(0.0245079 -0.0567219 0)
(0.0305867 0.177269 0)
(0.0226905 -0.126664 0)
(0.0257228 -0.00996337 0)
(0.028701 0.104674 0)
(0.0144328 0.207474 0)
(0.000620426 0.00450353 0)
(0.000840143 0.011239 0)
(0.00119506 0.00551903 0)
(0.00128453 0.0030224 0)
(0.000406581 0.00335483 0)
(0.000460577 0.00352475 0)
(-0.00637329 0.208016 0)
(0.000231456 0.00182722 0)
(0.000668681 0.0126589 0)
(0.000401469 0.0134376 0)
(0.000773167 0.00827307 0)
(0.00136827 0.00416634 0)
(0.00119411 0.000391315 0)
(0.00142489 -0.00218581 0)
(0.000791041 0.00467574 0)
(0.000890744 0.00618045 0)
(0.000660178 0.00606922 0)
(0.000514342 0.00436141 0)
(0.000259342 0.00209867 0)
(9.59615e-05 0.000765515 0)
(0.0193649 -0.0749448 0)
(0.0193096 -0.0705749 0)
(0.0196779 -0.0681381 0)
(0.0196098 -0.0638525 0)
(0.0200236 -0.0608492 0)
(0.0198856 -0.0561482 0)
(0.0202991 -0.0527668 0)
(0.0202073 -0.0484133 0)
(0.0205765 -0.0450766 0)
(0.0204546 -0.0411092 0)
(0.0208179 -0.0375915 0)
(0.0206941 -0.0339467 0)
(0.021039 -0.0301824 0)
(0.020906 -0.0268015 0)
(0.0212528 -0.0224471 0)
(0.0210911 -0.0194514 0)
(0.0214447 -0.0146885 0)
(0.0212733 -0.0119081 0)
(0.0216093 -0.00702728 0)
(0.0214154 -0.00440205 0)
(0.0217535 0.000569023 0)
(0.0215364 0.0030066 0)
(0.0218683 0.008094 0)
(0.0216526 0.0102844 0)
(0.0219548 0.0154693 0)
(0.0217274 0.0172878 0)
(0.0220232 0.022653 0)
(0.021781 0.0241835 0)
(0.022066 0.0295632 0)
(0.0218135 0.0307884 0)
(0.022082 0.0363756 0)
(0.0218077 0.0371753 0)
(0.0220596 0.0428955 0)
(0.0217806 0.0434636 0)
(0.022014 0.0490368 0)
(0.0217335 0.0495854 0)
(0.0219609 0.0551886 0)
(0.0216573 0.0555177 0)
(0.0218885 0.0614787 0)
(0.0215602 0.0613155 0)
(0.0217777 0.0673246 0)
(0.0214484 0.0667834 0)
(0.0216388 0.0724978 0)
(0.0200994 -0.0442059 0)
(0.0211677 -0.00193218 0)
(0.0215335 0.0378209 0)
(0.0213 0.0716704 0)
(0.0214709 0.077265 0)
(0.0211265 0.0763153 0)
(0.0212787 0.0818222 0)
(0.0209379 0.0705675 0)
(0.0209326 0.080691 0)
(0.0210628 0.0860942 0)
(0.0207036 0.0845265 0)
(0.0208207 0.0900067 0)
(0.0204512 0.088033 0)
(0.0205515 0.0936252 0)
(0.0201729 0.0914064 0)
(0.0202557 0.0970179 0)
(0.0222332 0.0610909 0)
(0.0223202 0.0282735 0)
(0.0214279 0.0876178 0)
(0.0198688 0.0946846 0)
(0.0199342 0.100054 0)
(0.0195432 0.0975858 0)
(0.0195903 0.102656 0)
(0.0199759 0.105237 0)
(0.0196097 0.107602 0)
(0.0199872 0.110291 0)
(0.0195987 0.112516 0)
(0.0192257 0.109609 0)
(0.0191887 0.114324 0)
(0.0188295 0.11136 0)
(0.0187706 0.115808 0)
(0.0190949 0.118846 0)
(0.018675 0.120057 0)
(0.0189828 0.123192 0)
(0.0183582 0.117246 0)
(0.0217772 -0.00987013 0)
(0.0185471 0.12414 0)
(0.0188319 0.127358 0)
(0.0183853 0.128034 0)
(0.0186537 0.131246 0)
(0.0181913 0.131712 0)
(0.0184566 0.135088 0)
(0.017956 0.135193 0)
(0.0181886 0.138585 0)
(0.0207028 -0.0491566 0)
(0.0176691 0.138413 0)
(0.0178753 0.141768 0)
(0.0173373 0.141349 0)
(0.0171604 0.137737 0)
(0.0175181 0.144728 0)
(0.0169665 0.14408 0)
(0.0171214 0.147525 0)
(0.0187206 0.138458 0)
(0.0165565 0.146585 0)
(0.01667 0.150011 0)
(0.0161047 0.148794 0)
(0.016172 0.152108 0)
(0.0156097 0.150718 0)
(0.0156343 0.154051 0)
(0.0197852 0.0890057 0)
(0.0150867 0.152437 0)
(0.0150408 0.155719 0)
(0.0150279 0.149298 0)
(0.0145256 0.153785 0)
(0.0144107 0.15702 0)
(0.0138994 0.154865 0)
(0.016739 0.153316 0)
(0.0137463 0.15808 0)
(0.0132243 0.155828 0)
(0.0142718 0.160169 0)
(0.0135599 0.161145 0)
(0.0141053 0.163197 0)
(0.0133544 0.164088 0)
(0.0138784 0.16611 0)
(0.0131366 0.166809 0)
(0.0135642 0.168761 0)
(0.0128205 0.169273 0)
(0.0132344 0.171231 0)
(0.0124274 0.171636 0)
(0.0120156 0.169306 0)
(0.0128785 0.173656 0)
(0.0119975 0.173896 0)
(0.0124224 0.175892 0)
(0.0115176 0.175932 0)
(0.0119274 0.177904 0)
(0.0128543 0.177796 0)
(0.0123444 0.17977 0)
(0.0133034 0.179583 0)
(0.0113885 0.179755 0)
(0.011766 0.181577 0)
(0.0107807 0.181462 0)
(0.0111187 0.183218 0)
(0.0100942 0.182982 0)
(0.0103825 0.1847 0)
(0.00932344 0.184331 0)
(0.00956772 0.186033 0)
(0.00847578 0.185543 0)
(0.00830271 0.18379 0)
(0.00741662 0.184871 0)
(0.0106708 0.186363 0)
(0.00754621 0.186614 0)
(0.00645856 0.185839 0)
(0.00651476 0.187548 0)
(0.00543159 0.186638 0)
(0.00534618 0.188268 0)
(0.00418274 0.187052 0)
(0.0041199 0.188811 0)
(0.00311368 0.187793 0)
(0.00290009 0.189256 0)
(0.0020192 0.188163 0)
(0.00165589 0.189508 0)
(0.00735295 0.183063 0)
(0.00387605 0.190344 0)
(0.00217071 0.18685 0)
(0.0219234 -0.126514 0)
(0.0219737 -0.122686 0)
(0.022132 -0.121381 0)
(0.022183 -0.117568 0)
(0.0223329 -0.116195 0)
(0.0223829 -0.112419 0)
(0.0225303 -0.110857 0)
(0.0225782 -0.107145 0)
(0.0227181 -0.10546 0)
(0.0227682 -0.101799 0)
(0.0228931 -0.100264 0)
(0.0229488 -0.0965367 0)
(0.0228285 -0.0978316 0)
(0.0230028 -0.0928015 0)
(0.0217957 -0.123947 0)
(0.0231277 -0.0911815 0)
(0.0231811 -0.0875759 0)
(0.0233076 -0.0856708 0)
(0.0233588 -0.0821783 0)
(0.0234813 -0.0801819 0)
(0.0235325 -0.0766295 0)
(0.0236501 -0.0747064 0)
(0.0237051 -0.0710656 0)
(0.0238158 -0.0692293 0)
(0.0238729 -0.0655854 0)
(0.0239803 -0.0637107 0)
(0.0240357 -0.0602235 0)
(0.0241423 -0.0581881 0)
(0.0241924 -0.0548947 0)
(0.0242993 -0.0527354 0)
(0.0243478 -0.0494348 0)
(0.0244528 -0.047308 0)
(0.0245047 -0.0438909 0)
(0.0246022 -0.041943 0)
(0.0246569 -0.0384488 0)
(0.0247473 -0.0367041 0)
(0.0248079 -0.0330142 0)
(0.0247023 -0.0351905 0)
(0.0248559 -0.0297134 0)
(0.0239495 -0.0613952 0)
(0.023051 -0.0889906 0)
(0.0249633 -0.0274215 0)
(0.0250117 -0.0240782 0)
(0.0251198 -0.0216941 0)
(0.0251655 -0.0183918 0)
(0.0252748 -0.0159076 0)
(0.0253181 -0.0126878 0)
(0.0254271 -0.0101533 0)
(0.0254684 -0.00704273 0)
(0.0255768 -0.0044727 0)
(0.0256177 -0.00140033 0)
(0.025723 0.00108507 0)
(0.0257644 0.00422949 0)
(0.0258674 0.00665039 0)
(0.0259061 0.00976581 0)
(0.0260073 0.0121151 0)
(0.0260438 0.0152111 0)
(0.0261432 0.017483 0)
(0.0261829 0.0207221 0)
(0.0260698 0.0180881 0)
(0.026213 0.0238254 0)
(0.0253588 -0.00949835 0)
(0.026339 0.0266625 0)
(0.0263553 0.0295917 0)
(0.0264726 0.0324369 0)
(0.0264924 0.0353012 0)
(0.0266048 0.0379052 0)
(0.0266246 0.0408616 0)
(0.0267386 0.0434696 0)
(0.0267538 0.0463067 0)
(0.0268716 0.0490324 0)
(0.026879 0.0517544 0)
(0.027 0.0546382 0)
(0.0270002 0.0572495 0)
(0.0271245 0.0602426 0)
(0.027122 0.062826 0)
(0.0272474 0.0658196 0)
(0.0272406 0.0684098 0)
(0.0273663 0.0713501 0)
(0.0273558 0.0740187 0)
(0.0272226 0.0709545 0)
(0.0273349 0.0767311 0)
(0.0266479 0.0442344 0)
(0.027471 0.0798054 0)
(0.0274434 0.0825379 0)
(0.0275817 0.0856138 0)
(0.0275448 0.0881435 0)
(0.0276853 0.0913587 0)
(0.0276364 0.0936901 0)
(0.0274069 0.0854292 0)
(0.027781 0.0970667 0)
(0.0277171 0.0992321 0)
(0.0278682 0.10273 0)
(0.0277925 0.104848 0)
(0.027945 0.108338 0)
(0.027857 0.110429 0)
(0.0280103 0.113889 0)
(0.0279081 0.115911 0)
(0.0277501 0.112333 0)
(0.0277869 0.117776 0)
(0.0279464 0.121406 0)
(0.0278095 0.123163 0)
(0.027968 0.126855 0)
(0.0278109 0.128413 0)
(0.0279683 0.132144 0)
(0.0277881 0.133536 0)
(0.0276358 0.129574 0)
(0.0275809 0.134472 0)
(0.0277405 0.138524 0)
(0.027509 0.139438 0)
(0.0276633 0.143349 0)
(0.0274137 0.144149 0)
(0.0275651 0.148061 0)
(0.0272917 0.148703 0)
(0.0274342 0.152577 0)
(0.0273389 0.135164 0)
(0.0271359 0.152969 0)
(0.0272617 0.156748 0)
(0.0269532 0.156877 0)
(0.0270554 0.160663 0)
(0.0267259 0.160436 0)
(0.0267975 0.164206 0)
(0.0266568 0.15685 0)
(0.0264512 0.163666 0)
(0.0264926 0.167289 0)
(0.0261354 0.166561 0)
(0.0261521 0.170121 0)
(0.025776 0.169173 0)
(0.0268467 0.0458515 0)
(0.027368 0.0687173 0)
(0.0257586 0.17269 0)
(0.025366 0.171516 0)
(0.0259571 0.00872819 0)
(0.0253901 -0.0131519 0)
(0.0279243 0.100356 0)
(0.0247406 -0.0321278 0)
(0.0260911 0.0209577 0)
(0.0277228 0.152015 0)
(0.0245398 -0.0456147 0)
(0.0239261 -0.0671959 0)
(0.0253059 0.174891 0)
(0.0249074 0.17355 0)
(0.0249816 0.17019 0)
(0.0245137 0.172157 0)
(0.0246023 0.168801 0)
(0.0268352 0.167952 0)
(0.0228382 -0.103581 0)
(0.0248072 0.176744 0)
(0.022081 -0.125166 0)
(0.0252187 0.178114 0)
(0.0241171 0.170741 0)
(0.0242269 0.167345 0)
(0.0246625 0.179752 0)
(0.025077 0.18118 0)
(0.0244689 0.182542 0)
(0.0130148 -0.030245 0)
(0.0248775 0.184005 0)
(0.0242229 0.185109 0)
(0.0246292 0.186597 0)
(0.0237328 0.169161 0)
(0.0238597 0.165785 0)
(0.0125566 -0.027091 0)
(0.0131234 -0.0249665 0)
(0.0239172 0.187469 0)
(0.0243028 0.188974 0)
(0.0250446 0.188052 0)
(0.0126415 -0.0220732 0)
(0.013213 -0.0197153 0)
(0.0136856 -0.0224959 0)
(0.013773 -0.0170345 0)
(0.0132784 -0.0145373 0)
(0.0138367 -0.0116278 0)
(0.0133199 -0.00943558 0)
(0.013874 -0.0062559 0)
(0.013334 -0.00441847 0)
(0.0138833 -0.000962089 0)
(0.0133186 0.00050354 0)
(0.013865 0.00419659 0)
(0.0235441 0.18601 0)
(0.023533 0.189612 0)
(0.0239041 0.191104 0)
(0.0230569 0.191502 0)
(0.0234005 0.192988 0)
(0.0142336 -0.0197101 0)
(0.0224869 0.193174 0)
(0.0227734 0.19461 0)
(0.0132771 0.00533591 0)
(0.0138184 0.00917983 0)
(0.0218066 0.194645 0)
(0.0220306 0.196038 0)
(0.0209976 0.195907 0)
(0.0211142 0.19724 0)
(0.0208689 0.194584 0)
(0.0144111 0.00272137 0)
(0.0132075 0.00999603 0)
(0.0137445 0.013979 0)
(0.0233778 0.167439 0)
(0.0234964 0.164141 0)
(0.0200357 0.196951 0)
(0.0200713 0.198175 0)
(0.00205386 0.131478 0)
(0.00238889 0.135735 0)
(0.0026238 0.131781 0)
(0.00298053 0.135796 0)
(0.00318643 0.131992 0)
(0.00357185 0.135865 0)
(0.00373953 0.13195 0)
(0.0131109 0.014449 0)
(0.013642 0.0185604 0)
(0.0129891 0.0186867 0)
(0.0135126 0.0228712 0)
(0.0141454 0.0229212 0)
(0.0140071 0.0272572 0)
(0.0133599 0.0269023 0)
(0.013845 0.0313037 0)
(0.0131815 0.0306768 0)
(0.0136577 0.0350511 0)
(0.0129792 0.0341565 0)
(0.0134559 0.0385457 0)
(0.00418414 0.135924 0)
(0.00429546 0.131611 0)
(0.0127583 0.0373148 0)
(0.0132169 0.0417481 0)
(0.0237354 0.194446 0)
(0.0189294 0.197834 0)
(0.0188989 0.199112 0)
(0.0125079 0.0400742 0)
(0.0129405 0.0445123 0)
(0.0230143 0.16586 0)
(0.0231321 0.162508 0)
(0.02359 0.16049 0)
(0.0232292 0.158939 0)
(0.0236324 0.156692 0)
(0.0232936 0.155171 0)
(0.0236728 0.152786 0)
(0.0233316 0.151243 0)
(0.0237194 0.148547 0)
(0.00479354 0.135543 0)
(0.00485308 0.131096 0)
(0.00379219 0.127643 0)
(0.0122269 0.0424416 0)
(0.0126502 0.0468775 0)
(0.0144576 0.0316856 0)
(0.0133428 0.0491494 0)
(0.0130416 0.0514427 0)
(0.012345 0.0489234 0)
(0.0127231 0.0534062 0)
(0.0120231 0.0506478 0)
(0.0123865 0.0550265 0)
(0.0130615 0.057885 0)
(0.0127135 0.0594118 0)
(0.012033 0.0563269 0)
(0.012351 0.0606649 0)
(0.0116617 0.0573032 0)
(0.0119604 0.0615547 0)
(0.0112763 0.0579859 0)
(0.0115571 0.0620881 0)
(0.0121892 0.0657436 0)
(0.0117932 0.0661535 0)
(0.0111493 0.0623392 0)
(0.0113796 0.0662485 0)
(0.0119833 0.0700608 0)
(0.0115722 0.0700286 0)
(0.0120902 0.0731349 0)
(0.0118312 0.0743084 0)
(0.0111317 0.0696587 0)
(0.0112625 0.0732246 0)
(0.0118739 0.077905 0)
(0.0113338 0.0765497 0)
(0.0107546 0.0720721 0)
(0.0108254 0.0752222 0)
(0.0113821 0.0798178 0)
(0.0108557 0.0781927 0)
(0.0113718 0.0827434 0)
(0.010837 0.0808909 0)
(0.0103475 0.0763746 0)
(0.0113129 0.0853895 0)
(0.0107783 0.083364 0)
(0.0112201 0.0878671 0)
(0.0106679 0.0855457 0)
(0.0110874 0.0901271 0)
(0.0105244 0.0875552 0)
(0.0109157 0.0921264 0)
(0.0103564 0.0893574 0)
(0.0107047 0.0938328 0)
(0.00995212 0.0848777 0)
(0.0101495 0.0908431 0)
(0.0104597 0.0952662 0)
(0.00991538 0.0920854 0)
(0.0101889 0.0964996 0)
(0.0096262 0.0927996 0)
(0.00987188 0.0973365 0)
(0.00928969 0.0931383 0)
(0.00951599 0.0977555 0)
(0.00903548 0.0881759 0)
(0.0233458 0.14719 0)
(0.0237131 0.144116 0)
(0.0176414 0.198557 0)
(0.0173045 0.199673 0)
(0.00537634 0.134914 0)
(0.00538805 0.130312 0)
(0.00470144 0.139854 0)
(0.0116413 0.0923501 0)
(0.00592483 0.134016 0)
(0.00589487 0.129292 0)
(0.00644592 0.132918 0)
(0.00637857 0.128103 0)
(0.00583216 0.124321 0)
(0.00627897 0.12301 0)
(0.00685194 0.126828 0)
(0.00672539 0.121639 0)
(0.0226428 0.164281 0)
(0.0224805 0.167845 0)
(0.00893487 0.0932989 0)
(0.0107329 0.099583 0)
(0.0127576 -0.00305324 0)
(0.0161721 0.199094 0)
(0.0156704 0.200151 0)
(0.00730483 0.125466 0)
(0.0233381 0.142959 0)
(0.023673 0.139666 0)
(0.00614365 0.1176 0)
(0.0065621 0.116204 0)
(0.0169148 0.200765 0)
(0.0149844 0.201098 0)
(0.013908 0.200491 0)
(0.0130351 0.201382 0)
(0.0141584 0.202042 0)
(0.0119538 0.202193 0)
(0.0110176 0.201571 0)
(0.00978553 0.202294 0)
(0.0107095 0.202953 0)
(0.00834409 0.202919 0)
(0.00756802 0.202273 0)
(0.00606656 0.202853 0)
(0.00679971 0.20356 0)
(0.00419215 0.203358 0)
(0.00397685 0.202624 0)
(0.00196699 0.203048 0)
(0.0211263 0.198511 0)
(0.00210986 0.20379 0)
(-9.03538e-05 0.203407 0)
(-3.19941e-05 0.202621 0)
(-0.00203787 0.202892 0)
(-0.00182188 0.202055 0)
(-0.00372911 0.202232 0)
(-0.00407129 0.203085 0)
(0.0165584 0.197985 0)
(0.0221145 0.165746 0)
(0.0229739 0.149937 0)
(0.0218758 0.168873 0)
(0.0233096 0.138557 0)
(0.0236185 0.135127 0)
(0.023979 0.13599 0)
(0.0238984 0.131327 0)
(0.0242504 0.131946 0)
(0.0241477 0.127171 0)
(0.0244872 0.127576 0)
(0.0243652 0.1227 0)
(0.0246921 0.122834 0)
(0.0245525 0.117897 0)
(0.0248677 0.117787 0)
(0.0247113 0.112811 0)
(0.0250164 0.112406 0)
(0.0248369 0.107426 0)
(0.0251198 0.106559 0)
(0.0249279 0.10171 0)
(0.0251871 0.100563 0)
(0.0249911 0.0957583 0)
(0.0252358 0.0943864 0)
(0.0250294 0.0894868 0)
(0.0252624 0.0879077 0)
(0.0250517 0.0831407 0)
(0.025265 0.0811931 0)
(0.025036 0.0766835 0)
(0.0252354 0.0743494 0)
(0.024993 0.0698961 0)
(0.0251826 0.0674038 0)
(0.0249484 0.063044 0)
(0.0251148 0.0603542 0)
(0.0248811 0.0561638 0)
(0.02503 0.0533161 0)
(0.0247915 0.0491399 0)
(0.0249282 0.0462072 0)
(0.0251626 0.0502951 0)
(0.0250483 0.0430892 0)
(0.0248126 0.0390586 0)
(0.0249193 0.035828 0)
(0.0246834 0.0318877 0)
(0.0247766 0.0285036 0)
(0.0245421 0.0246844 0)
(0.0246215 0.0210785 0)
(0.0243846 0.0173782 0)
(0.0244531 0.0134934 0)
(0.0242102 0.0100035 0)
(0.0242688 0.00595606 0)
(0.0124405 0.0146999 0)
(0.0240259 0.00266972 0)
(0.0240761 -0.00138791 0)
(0.0243 0.00156747 0)
(0.0241075 -0.00559529 0)
(0.0238764 -0.00869586 0)
(0.0239 -0.0128788 0)
(0.00597029 0.111821 0)
(0.00633988 0.110315 0)
(0.0235495 0.130387 0)
(0.025004 0.0325594 0)
(0.0236659 -0.0159896 0)
(0.0236789 -0.0202294 0)
(0.0122621 0.0332924 0)
(0.0246738 0.102683 0)
(0.0281256 0.130512 0)
(0.024117 -0.00978582 0)
(0.0234444 -0.023259 0)
(0.0234545 -0.0275981 0)
(0.00648672 0.137454 0)
(0.0254832 0.0861163 0)
(0.0215515 0.166896 0)
(0.0212715 0.170048 0)
(0.0232127 -0.0305042 0)
(0.0232222 -0.0349482 0)
(0.023479 -0.0317649 0)
(0.023219 -0.039407 0)
(0.0229765 -0.042184 0)
(0.0229727 -0.0467637 0)
(0.0227228 -0.0493098 0)
(0.0227081 -0.0540943 0)
(0.0224576 -0.0563202 0)
(0.0224344 -0.0611941 0)
(0.0232427 -0.0435164 0)
(0.0221805 -0.0632213 0)
(0.0221528 -0.068101 0)
(0.022403 -0.0661344 0)
(0.0221199 -0.0729554 0)
(0.0218637 -0.074842 0)
(0.0218288 -0.0796181 0)
(0.0215646 -0.081405 0)
(0.0215228 -0.0862962 0)
(0.0212496 -0.0878731 0)
(0.0211938 -0.0929337 0)
(0.0209181 -0.0942198 0)
(0.0208478 -0.0993462 0)
(0.0205736 -0.10034 0)
(0.0109524 0.053844 0)
(0.0276251 0.114094 0)
(0.0242377 0.117699 0)
(0.00576585 0.105689 0)
(0.00609816 0.10414 0)
(0.0244401 0.0278096 0)
(0.0213415 0.0557429 0)
(0.0133889 0.152593 0)
(0.0127131 0.153431 0)
(0.0128726 0.150208 0)
(0.0214853 -0.0916594 0)
(0.0120604 -0.0241475 0)
(0.0213029 -0.0829546 0)
(0.0214606 0.0187459 0)
(0.0192635 -0.0668331 0)
(0.0207095 -0.0242994 0)
(0.0248024 0.0842214 0)
(0.0247524 0.0652641 0)
(0.0179353 0.128306 0)
(0.0133622 0.062169 0)
(0.0143767 0.168357 0)
(0.0209598 0.167825 0)
(0.0206202 0.170874 0)
(0.0223679 -0.0709842 0)
(0.00668453 0.108633 0)
(0.00640027 0.1024 0)
(0.02538 0.105096 0)
(0.012213 0.150838 0)
(0.012368 0.147596 0)
(0.00540955 0.107101 0)
(0.00521281 0.100634 0)
(0.00486944 0.101935 0)
(0.0203549 0.168442 0)
(0.0207002 0.165515 0)
(0.0231965 -0.02607 0)
(0.023963 0.00663115 0)
(0.0199603 0.171274 0)
(0.0201913 0.173808 0)
(0.0250178 0.122829 0)
(0.0046722 0.0950767 0)
(0.00433984 0.0962823 0)
(0.0193545 0.126857 0)
(0.00235443 0.171597 0)
(0.00255808 0.169264 0)
(0.00318927 0.171017 0)
(0.00334365 0.168617 0)
(0.00403695 0.170322 0)
(0.00413468 0.167801 0)
(0.00487151 0.169494 0)
(0.00490167 0.1668 0)
(0.00418 0.165071 0)
(0.019732 0.168859 0)
(0.0234337 -0.083568 0)
(0.00698897 0.106716 0)
(0.00667061 0.1005 0)
(0.0222021 -0.0583647 0)
(0.0117346 0.148022 0)
(0.0118812 0.14476 0)
(0.0115434 0.151157 0)
(0.024105 0.150472 0)
(0.0223428 -0.137171 0)
(0.0223914 -0.134633 0)
(0.0224495 -0.133438 0)
(0.0224993 -0.130971 0)
(0.0225542 -0.129734 0)
(0.0226048 -0.127293 0)
(0.0226586 -0.125999 0)
(0.0227098 -0.123566 0)
(0.022764 -0.12218 0)
(0.022815 -0.119794 0)
(0.0227607 -0.121104 0)
(0.0228669 -0.117341 0)
(0.0229184 -0.116055 0)
(0.0229713 -0.113605 0)
(0.0230199 -0.112355 0)
(0.0230746 -0.109877 0)
(0.0231208 -0.108654 0)
(0.0231765 -0.106171 0)
(0.0232208 -0.104964 0)
(0.0232771 -0.102485 0)
(0.0233207 -0.101257 0)
(0.0233772 -0.0987912 0)
(0.0234204 -0.0975333 0)
(0.0234775 -0.0950736 0)
(0.0234323 -0.0963437 0)
(0.0235338 -0.0926089 0)
(0.0235788 -0.0913045 0)
(0.0236353 -0.0888564 0)
(0.0236788 -0.0875681 0)
(0.0237357 -0.0851251 0)
(0.0237774 -0.083875 0)
(0.023836 -0.0813851 0)
(0.023793 -0.0826277 0)
(0.0238953 -0.0788351 0)
(0.0239376 -0.0775834 0)
(0.0239971 -0.0750447 0)
(0.0240384 -0.0738048 0)
(0.0240972 -0.0713121 0)
(0.0241371 -0.0700932 0)
(0.0241965 -0.0675955 0)
(0.0242355 -0.0663846 0)
(0.0242957 -0.0638674 0)
(0.0243344 -0.062649 0)
(0.0243955 -0.0601086 0)
(0.0243553 -0.0613391 0)
(0.0244559 -0.0575671 0)
(0.0244966 -0.0562968 0)
(0.0245555 -0.0538209 0)
(0.0245958 -0.0525343 0)
(0.0246541 -0.0501079 0)
(0.0246912 -0.0489204 0)
(0.0247524 -0.046397 0)
(0.0247891 -0.0452199 0)
(0.0248508 -0.0426785 0)
(0.0248894 -0.0414049 0)
(0.0249498 -0.0389263 0)
(0.0249112 -0.0401579 0)
(0.0250109 -0.0363925 0)
(0.0250488 -0.0351746 0)
(0.0251103 -0.0326392 0)
(0.0251476 -0.0314274 0)
(0.0252076 -0.0289581 0)
(0.0252455 -0.027699 0)
(0.0253033 -0.0253257 0)
(0.0251786 -0.0298312 0)
(0.0253408 -0.0240685 0)
(0.0253989 -0.02169 0)
(0.0254362 -0.020444 0)
(0.0254957 -0.0180099 0)
(0.025531 -0.0168305 0)
(0.0255915 -0.0143606 0)
(0.0255538 -0.0155967 0)
(0.0256524 -0.0118525 0)
(0.0256809 -0.0109491 0)
(0.0257442 -0.00836165 0)
(0.0257149 -0.00924662 0)
(0.0258127 -0.00554298 0)
(0.025837 -0.00487095 0)
(0.025912 -0.00177671 0)
(0.025947 -0.00066269 0)
(0.0260121 0.00202932 0)
(0.026045 0.00307782 0)
(0.0261098 0.00574979 0)
(0.0261412 0.00673947 0)
(0.0262079 0.00948395 0)
(0.0261734 0.00840076 0)
(0.0262725 0.0121719 0)
(0.0263065 0.0132423 0)
(0.0263713 0.015931 0)
(0.026404 0.0169642 0)
(0.0264696 0.0196741 0)
(0.0264351 0.0186261 0)
(0.0265357 0.0224469 0)
(0.0265675 0.0234062 0)
(0.0266353 0.0262312 0)
(0.0266675 0.0272136 0)
(0.026734 0.0299905 0)
(0.0266026 0.0252975 0)
(0.0267685 0.0310704 0)
(0.0268324 0.0337414 0)
(0.0268679 0.0348648 0)
(0.0269306 0.037487 0)
(0.0269661 0.0386136 0)
(0.0270289 0.0412343 0)
(0.0269943 0.0401914 0)
(0.0270927 0.0439356 0)
(0.0271265 0.0449568 0)
(0.0271909 0.0476788 0)
(0.0272234 0.0486554 0)
(0.0272892 0.0514272 0)
(0.0272549 0.0504324 0)
(0.0273562 0.0543033 0)
(0.0273879 0.0551921 0)
(0.0274572 0.0581471 0)
(0.027487 0.0589758 0)
(0.0275538 0.0618066 0)
(0.0275854 0.0627355 0)
(0.0276501 0.0654905 0)
(0.0276832 0.0664826 0)
(0.0277497 0.0693228 0)
(0.0277085 0.0681383 0)
(0.0278151 0.0721769 0)
(0.0278492 0.0731236 0)
(0.027914 0.0759567 0)
(0.0278782 0.0750172 0)
(0.0279778 0.0788378 0)
(0.0280131 0.0797339 0)
(0.0280788 0.0826973 0)
(0.0280395 0.0817371 0)
(0.0281419 0.0856552 0)
(0.0281801 0.0865653 0)
(0.0282432 0.0895231 0)
(0.028282 0.0904421 0)
(0.0283449 0.0934007 0)
(0.0283892 0.0944499 0)
(0.0284472 0.0973113 0)
(0.0284966 0.0986291 0)
(0.0285483 0.101207 0)
(0.0285014 0.100083 0)
(0.0286046 0.104065 0)
(0.0286478 0.105054 0)
(0.0287062 0.107989 0)
(0.0286593 0.107022 0)