/*--------------------------------*- C++ -*----------------------------------*\
| =========                 |                                                 |
| \\      /  F ield         | OpenFOAM: The Open Source CFD Toolbox           |
|  \\    /   O peration     | Version:  v2012                                 |
|   \\  /    A nd           | Website:  www.openfoam.com                      |
|    \\/     M anipulation  |                                                 |
\*---------------------------------------------------------------------------*/
FoamFile
{
    version     2.0;
    format      ascii;
    class       volVectorField;
    location    "550";
    object      U;
}
// * * * * * * * * * * * * * * * * * * * * * * * * * * * * * * * * * * * * * //

dimensions      [0 1 -1 0 0 0 0];


internalField   nonuniform List<vector> 
13917
(
(1.15892 0.15365 4.4548e-20)
(1.04031 0.0549156 -7.31232e-22)
(0.371645 -0.141034 -8.31597e-20)
(1.06801 -0.0399106 0)
(0.996695 0.0124584 3.83613e-22)
(0.361883 0.147274 0)
(0.323562 -0.129589 0)
(0.351067 -0.129404 0)
(0.0814967 -0.0430527 0)
(1.21947 0.193583 0)
(1.17388 -0.208826 8.94368e-21)
(1.1109 -0.141372 9.97233e-20)
(1.06817 -0.0415139 0)
(-0.341945 0.0144229 -8.70699e-20)
(0.993133 0.131418 4.09146e-21)
(1.01998 0.121099 2.0856e-21)
(1.03444 0.0634206 -3.80386e-22)
(1.23194 -0.00703146 5.34677e-21)
(1.10833 -0.138977 -7.35377e-20)
(1.00276 0.00767232 -2.90153e-21)
(1.00005 0.0023327 0)
(0.30024 -0.125005 -7.16617e-21)
(1.00282 0.013485 6.01654e-23)
(0.414109 -0.143127 -8.14796e-20)
(0.998827 0.0284142 -1.29345e-20)
(0.377995 -0.135177 -2.08051e-20)
(0.785012 0.0928676 1.24158e-21)
(0.766234 0.186716 0)
(0.753293 0.669773 0)
(1.30676 0.115438 4.31543e-20)
(1.17955 0.139562 0)
(1.10559 0.111987 -1.89852e-20)
(0.843546 0.122553 1.21117e-20)
(0.909313 0.0402505 0)
(0.994372 0.0268013 4.82437e-21)
(1.13033 -0.261488 0)
(1.00257 0.0128147 3.56521e-23)
(-0.172987 -0.0246204 -3.90026e-22)
(1.07583 -0.0537896 1.08865e-20)
(0.177173 -0.0272673 3.3762e-20)
(1.01259 0.00110844 0)
(0.999981 0.000938464 5.54399e-21)
(1.02608 0.000472381 4.2076e-21)
(0.714942 0.277965 -7.54386e-20)
(1.06004 0.0249504 -1.93454e-20)
(0.892677 0.0580321 -3.01943e-21)
(1.22755 -0.0102623 -1.18309e-21)
(1.23718 -0.0745587 -1.32811e-21)
(0.117401 0.254945 -2.44762e-19)
(1.00541 0.00117192 -5.45608e-21)
(1.13143 -0.00764209 -2.9492e-20)
(0.966841 0.0350407 -3.48939e-20)
(0.0895511 0.240856 2.79041e-19)
(0.904791 0.042513 0)
(1.03328 0.0649685 -1.40919e-20)
(1.13592 0.0330995 5.98249e-21)
(1.17878 -0.206233 -2.98579e-20)
(1.00465 0.0469034 -3.58312e-21)
(1.11462 0.0461575 0)
(1.05786 0.0248363 2.47347e-20)
(0.163334 0.0468263 0)
(1.04235 0.0546504 1.0314e-20)
(-0.247794 0.0146971 -4.58782e-20)
(1.00298 0.00830432 1.50354e-21)
(0.391106 0.15934 0)
(0.635042 0.244101 7.96855e-20)
(0.99514 0.00912455 1.57212e-20)
(0.987356 0.0139705 1.43519e-20)
(1.27496 -0.159061 1.3139e-19)
(1.11446 0.173869 -9.51702e-22)
(0.997145 0.0122342 -5.4158e-21)
(0.12748 -0.0522137 8.82984e-20)
(-0.341046 0.0116216 -2.56273e-20)
(0.999379 0.027599 9.18008e-21)
(0.121127 0.323942 0)
(1.08159 -0.149699 1.9886e-20)
(-0.385422 0.0133643 -2.7938e-20)
(1.0834 0.0234901 -4.77943e-20)
(0.430956 -0.131858 3.48992e-21)
(1.00004 0.00450769 -3.88407e-21)
(1.00044 0.00596639 0)
(0.995724 0.00868141 1.61473e-20)
(0.411874 0.220751 -3.47522e-21)
(-0.143542 -0.03101 -2.71804e-20)
(-0.17068 0.0382981 -1.25751e-19)
(1.08132 0.022008 1.51146e-20)
(1.00097 0.00720074 1.39459e-23)
(0.842478 0.337053 8.9554e-20)
(1.12809 -0.00726735 4.22493e-20)
(1.02656 0.000244384 -5.27642e-21)
(-0.290968 0.00099441 0)
(1.27259 0.1692 1.56304e-20)
(1.03766 0.0287822 0)
(0.986862 0.0821657 0)
(0.810759 0.331263 -1.1241e-19)
(0.388125 0.085425 1.87405e-19)
(1.21835 -0.16549 1.4558e-19)
(1.23704 -0.0536032 -1.03094e-19)
(1.08175 -0.187127 -4.3286e-20)
(0.613426 0.205689 0)
(1.01667 0.0073775 -6.11468e-21)
(0.843638 0.0511819 1.83439e-21)
(0.703249 0.261649 4.78047e-20)
(1.09263 0.0103054 -4.40731e-22)
(1.02504 0.0149811 1.01842e-20)
(0.128351 -0.0408771 0)
(0.839361 0.606137 -1.5547e-22)
(1.24265 -0.0766258 -9.13117e-22)
(1.03704 0.0635912 9.44707e-21)
(1.17974 0.159979 -1.22996e-19)
(-0.310049 0.0229017 1.29334e-19)
(0.182165 -0.0307625 -2.00245e-20)
(1.10707 -0.161071 0)
(0.100371 -0.0390351 0)
(0.948958 0.0388433 1.88734e-20)
(0.0874188 0.00432183 -8.7105e-20)
(1.00495 0.0232768 0)
(0.210269 0.203533 -1.82094e-21)
(-0.0721977 -0.0209169 8.34787e-20)
(0.908457 0.0549941 -2.38404e-20)
(1.00001 0.0018274 3.91431e-22)
(1.278 -0.154458 -1.10665e-19)
(-0.132485 -0.0166687 0)
(0.774587 0.179033 -5.06865e-20)
(1.00789 0.00102194 -4.03768e-23)
(0.987904 0.0788268 0)
(1.05475 0.0317233 0)
(1.00735 0.000840634 0)
(1.02304 0.00107742 -6.0878e-21)
(0.366362 0.101687 -8.02571e-20)
(-0.0101407 -0.0498393 0)
(0.95119 0.0373393 -2.93628e-20)
(1.06098 0.0262947 0)
(1 0.00188192 4.97939e-24)
(0.86177 -0.0177849 -9.87597e-20)
(0.434471 -0.151799 1.19939e-19)
(1.15542 0.159952 -4.70991e-20)
(0.589927 0.207551 0)
(0.994918 0.00987694 -1.30396e-20)
(0.908527 0.0504927 2.18207e-20)
(1.17407 -0.259032 9.1483e-20)
(1.03614 0.0134827 3.09744e-22)
(0.966419 0.0491155 0)
(0.66499 0.277836 5.61612e-20)
(0.986887 0.0145476 -2.42654e-20)
(0.310576 -0.0729267 -4.15712e-20)
(0.827719 0.677665 -2.07496e-21)
(0.96898 0.034926 1.65026e-20)
(1.03359 0.0110333 6.67978e-21)
(1.09978 0.125059 1.06633e-21)
(1.18415 -0.0958959 -1.40663e-19)
(0.100753 -0.0283073 -2.91653e-19)
(1.16527 -0.156375 8.48937e-20)
(1.06969 0.23069 0)
(1.12617 0.0731126 4.01034e-20)
(-0.114456 0.0476697 2.81146e-19)
(1.10777 0.170647 3.11364e-21)
(0.940069 -0.203656 1.89651e-21)
(-0.412419 0.015775 -8.50627e-23)
(0.865511 -0.0174832 1.01412e-19)
(0.947614 0.0792013 1.57616e-20)
(0.780118 0.0325376 0)
(1.00019 0.0042921 2.84926e-22)
(1.21297 -0.163487 -1.37203e-19)
(1.11026 -0.159535 4.18243e-20)
(1.0852 -0.186508 0)
(1.09155 0.0120042 -4.82877e-20)
(1.20967 -0.0799012 5.1602e-21)
(1.04939 0.0221711 0)
(0.836089 0.048016 -2.94686e-20)
(1.09382 0.221214 6.31989e-20)
(-0.401109 0.0294643 -7.34978e-20)
(1.0971 -0.165855 3.34569e-20)
(1.03409 0.0759885 4.57549e-21)
(0.481393 -0.108527 0)
(1.05844 0.256271 8.38893e-21)
(0.0153699 -0.0580631 0)
(0.169549 0.209738 0)
(0.366005 -0.0825404 -5.03513e-20)
(1.02464 0.0368953 4.42727e-21)
(1.28096 0.162563 0)
(1.18739 0.137533 -8.34686e-22)
(1.03665 0.0126736 8.21675e-21)
(1.00103 0.00786052 -1.02229e-22)
(0.955538 0.158835 3.36189e-20)
(0.447251 -0.148427 0)
(1.3799 0.185779 -1.52874e-19)
(-0.0884372 0.0480879 -2.11522e-19)
(1.18783 0.0332927 -3.00494e-20)
(1.11111 -0.188958 3.66859e-21)
(1.19094 -0.249234 5.96718e-20)
(-0.136131 0.0407351 1.00577e-19)
(1.36672 0.238305 4.34346e-20)
(1.00132 0.0143847 2.66645e-21)
(0.567155 0.142281 0)
(0.795928 0.0934742 5.43329e-20)
(1.01087 0.000389201 8.99559e-21)
(1.03825 0.030165 0)
(0.904902 0.535094 0)
(1.08971 0.482475 0)
(1.10879 -0.0361079 0)
(1.00496 0.00104872 6.8015e-21)
(1.19601 -0.080291 -1.21571e-19)
(1.1798 -0.0956392 1.34716e-19)
(-0.370635 0.0141563 2.79978e-20)
(0.997963 -0.0789092 0)
(0.994434 0.0256719 -5.59286e-21)
(1.0042 0.0484736 4.03267e-21)
(1.23209 -0.0573299 9.01533e-22)
(0.435923 -0.153651 0)
(0.968888 0.0488428 0)
(0.297329 -0.126575 0)
(-0.421088 0.0186005 -6.01011e-20)
(1.11467 -0.188353 5.32699e-21)
(1.02461 0.0154691 9.50144e-21)
(0.508954 0.501167 -3.493e-20)
(1.21676 -0.0549003 0)
(-0.41742 0.0234734 6.11996e-20)
(1.00929 0.028565 6.62233e-22)
(0.267638 0.0572538 -7.47711e-20)
(1.02377 0.0356642 3.88658e-21)
(1.30009 0.0796633 0)
(1.0123 0.0013714 -4.65841e-21)
(-0.195718 -0.0217511 6.11729e-20)
(0.109657 -0.03498 6.9021e-20)
(1.02194 0.125201 0)
(1.25863 0.587663 9.20295e-20)
(1.13066 0.0711187 4.69049e-20)
(1.02356 0.015087 -8.4631e-21)
(1.14714 -0.261293 0)
(1.09459 -0.162841 0)
(1.18558 0.0292439 5.80167e-20)
(0.458754 -0.155206 2.9549e-20)
(-0.440114 0.0214421 1.46295e-19)
(1.01741 0.00364894 -2.95039e-21)
(1.11035 0.113252 2.28051e-20)
(-0.259496 -0.00212448 -7.53072e-20)
(-0.188454 0.0362314 -1.91634e-20)
(1.00019 0.00484788 -2.71254e-21)
(1.01038 0.0132084 7.79644e-21)
(0.256599 -0.0339784 1.52849e-20)
(1.23429 -0.169051 0)
(1.00007 0.000216255 -1.87303e-21)
(1.138 -0.245969 -2.06549e-21)
(1.2963 -0.0198774 7.85194e-20)
(0.789442 0.0263143 0)
(1.15511 0.133737 -2.06981e-20)
(1.00026 0.00461504 3.78941e-21)
(1.01489 0.263081 0)
(-0.424599 0.0197961 -6.17898e-20)
(1.05397 -0.00864139 -7.94759e-21)
(1.30103 0.186616 -1.23112e-19)
(0.577905 0.255282 -6.9472e-20)
(1.05393 0.0299667 0)
(1.0035 0.0450703 0)
(1.15441 -0.137319 -2.7549e-20)
(0.262229 -0.0470274 -1.96316e-20)
(1.16295 -0.152616 9.06373e-20)
(0.957355 0.164185 -1.26788e-20)
(0.997613 0.134019 -5.08086e-21)
(1.00006 0.000380854 -3.47341e-21)
(-0.155967 -0.0087745 0)
(0.239965 -0.0121638 0)
(1.10825 -0.243651 0)
(1.02305 0.0155391 0)
(-0.36609 0.0180858 1.5599e-19)
(-0.312618 0.00799275 -5.59205e-20)
(0.8671 -0.196669 3.66395e-20)
(0.409835 -0.126018 -7.59298e-21)
(1.08046 -0.152918 -4.65151e-20)
(1.00035 0.00565018 0)
(1.00951 0.00120634 7.81546e-22)
(1.2262 -0.0198237 -8.73923e-20)
(-0.272684 -0.00480254 0)
(1.28789 -0.0978591 0)
(1.11184 0.0433021 -2.82532e-20)
(0.910745 -0.071702 -5.1096e-20)
(1.08666 -0.106386 0)
(1.02272 0.000639217 -1.28622e-20)
(0.461495 0.0207739 2.27493e-19)
(1.00336 0.00737922 -4.17189e-21)
(0.445577 -0.107191 1.14319e-19)
(1.10576 -0.0346553 0)
(1.00012 0.000219235 5.10537e-21)
(1.02943 0.145748 0)
(1.06308 0.233237 0)
(0.781557 0.0446557 2.21103e-19)
(1.14697 -0.253031 0)
(1.03122 0.189605 -1.26954e-20)
(1.0613 0.000631778 9.57092e-21)
(1.2931 0.0123224 -1.99823e-19)
(0.465096 -0.153949 3.41224e-20)
(0.167508 -0.00969071 0)
(1.00868 0.027959 1.02337e-21)
(0.800874 -0.174049 -3.68395e-20)
(0.998404 0.00624052 0)
(1.06097 -0.000869626 0)
(1.00481 0.0222056 0)
(0.841048 0.720769 -1.21692e-20)
(1.00254 0.00129762 0)
(1.30756 0.0801551 9.99434e-20)
(1.14864 0.133617 0)
(1.04841 0.0209133 0)
(1.19528 -0.0854982 1.38968e-19)
(1.06799 0.0714381 -1.26281e-20)
(0.125543 0.174035 2.0353e-19)
(1.05688 0.250117 0)
(1.26456 0.165066 -1.4698e-20)
(1.04415 0.0127105 -2.11785e-20)
(1.00391 0.0435649 0)
(-0.321791 0.0243777 1.12999e-19)
(-0.177557 -0.00840613 3.01203e-20)
(1.00551 0.0240174 0)
(1.01071 0.00123872 2.0489e-21)
(0.511499 0.0264421 -1.35373e-19)
(1.02844 0.0338094 1.05288e-20)
(-0.31999 0.00927877 0)
(1.04285 0.0128852 2.0475e-20)
(-0.178054 -0.0241059 -5.4986e-20)
(1.05838 -0.0252632 3.56098e-20)
(1.29448 0.411241 7.41791e-20)
(1.15767 -0.0339884 -6.71859e-20)
(0.130528 0.394838 -6.53927e-20)
(0.951604 0.0781225 0)
(0.963568 -0.00879293 -5.86145e-22)
(0.523147 0.3908 0)
(1.03281 0.142521 5.12001e-21)
(1.23868 -0.16495 0)
(0.994616 0.624304 4.20765e-20)
(1.00963 0.0646868 0)
(-0.0948956 -0.0365351 0)
(0.574049 0.12023 -8.83453e-20)
(-0.303148 0.00487408 -6.43354e-21)
(0.924199 0.0570094 -3.20854e-20)
(0.0335148 -0.0183747 -7.44238e-20)
(1.11896 0.110025 0)
(-0.193322 0.0296005 -2.89386e-19)
(0.53897 0.367705 0)
(0.955154 0.433847 -9.79153e-21)
(0.972947 0.428067 -2.44411e-21)
(0.313595 -0.131163 0)
(0.999954 0.00593813 3.40343e-21)
(1.102 0.22515 -4.99372e-20)
(-0.278332 0.0229128 -1.85659e-19)
(0.990267 0.0515182 -4.77685e-21)
(1.02469 0.0984997 9.22807e-22)
(-0.289744 0.00402097 0)
(0.890525 0.572842 -3.70701e-21)
(1.03945 0.0706795 9.87027e-21)
(1.22662 -0.249996 0)
(0.721818 0.639953 0)
(1.01396 0.00670888 0)
(-0.0953441 -0.0145645 -8.56121e-20)
(1.17237 -0.260552 8.69138e-20)
(1.00362 0.0079568 4.09174e-21)
(1.01601 0.0181011 -5.37695e-21)
(0.99852 0.00573159 0)
(1.03395 0.0103341 7.70082e-21)
(1.34837 0.00847659 2.05882e-19)
(0.411291 -0.0917407 1.65891e-19)
(0.37813 -0.179948 -7.39486e-20)
(-0.291012 0.0240236 -9.61643e-20)
(1.00198 0.026079 2.95172e-21)
(1.31072 0.186628 9.67757e-20)
(-0.217175 0.0278915 0)
(1.17729 -0.0592353 1.19623e-19)
(0.276841 -0.122168 0)
(-0.241604 -0.0111409 0)
(0.0838018 -0.0341285 -7.13954e-20)
(1.01941 0.0065904 0)
(1.09778 -0.237031 -2.77281e-20)
(1.01752 0.0170897 1.77318e-20)
(0.365524 0.0648755 -2.58681e-22)
(1.05681 0.0261206 -2.4669e-20)
(0.109223 0.44856 -1.27207e-19)
(1.30055 -0.0152809 7.55928e-20)
(1.08558 -0.0409226 -3.89013e-20)
(0.999958 0.00720838 0)
(1.22676 -0.05474 -8.74002e-20)
(1.28931 0.164966 -9.63989e-20)
(1.26418 -0.0313518 -2.29147e-21)
(0.363375 1.21185 9.23693e-20)
(-0.22677 0.0286676 -1.06203e-19)
(-0.441235 0.025554 -1.1742e-19)
(1.02151 0.272396 5.44666e-21)
(1.21078 0.189393 0)
(1.00984 0.0126251 -9.03845e-21)
(-0.171097 0.0371767 7.21554e-20)
(0.301854 -0.124359 0)
(1.01061 0.0506103 2.15683e-22)
(1.08359 -0.00498657 0)
(0.998342 0.0226282 4.56554e-21)
(1.3983 -0.0591477 -2.36888e-19)
(1.059 -0.0242806 -1.24336e-20)
(0.999941 0.00510324 0)
(1.06237 0.076859 1.65074e-20)
(0.525833 -0.126432 -2.77876e-21)
(1.0601 0.0776036 -6.52645e-21)
(0.285105 -0.0560618 5.22239e-21)
(-0.115865 0.0536604 -3.69138e-20)
(1.15157 -0.201225 0)
(0.455049 0.37326 0)
(1.01152 0.0637655 -2.29979e-22)
(0.50899 0.456975 0)
(0.48061 0.398403 0)
(1.0051 0.0164966 0)
(0.852745 0.573091 1.85165e-21)
(0.991763 0.0508077 5.92754e-23)
(0.997575 0.0259358 -9.95371e-22)
(1.30331 0.121827 -9.94808e-20)
(1.00011 0.000570943 -2.76241e-21)
(0.997558 0.0284071 -1.02828e-20)
(1.01776 0.016742 -1.77192e-20)
(1.43041 0.0175261 1.81338e-19)
(1.00008 0.00362294 4.36034e-21)
(0.039682 -0.0236185 5.19465e-20)
(0.630234 -0.156179 -1.60826e-20)
(-0.15871 0.0330189 0)
(1.36025 0.245447 -4.56709e-20)
(0.221948 -0.0672003 -7.99253e-21)
(-0.422887 0.0226578 0)
(1.17292 -0.0596095 -7.16671e-20)
(1.00218 0.024962 -4.15427e-21)
(1.3584 -0.00903824 -5.62968e-20)
(1.07622 -0.0514471 9.12892e-21)
(1.11769 0.120365 -4.56802e-20)
(1.00153 0.0152691 0)
(0.341465 -0.0827333 -5.21582e-20)
(0.370775 -0.141257 0)
(0.695766 -0.168134 2.47462e-20)
(1.00616 0.121185 0)
(1.30643 -0.0381325 -2.23132e-20)
(0.927084 0.053241 2.80265e-20)
(1.07771 -0.0555759 0)
(1.26008 -0.0349197 -4.62025e-20)
(1.04411 0.082004 -4.24171e-21)
(1.08902 -0.233805 -4.76135e-22)
(1.03807 0.0616564 -3.84259e-22)
(1.00252 0.00153082 4.94223e-21)
(-0.287911 0.00626597 -4.46737e-20)
(0.0160024 -0.0564751 7.49321e-20)
(0.0390451 -0.0632013 -8.0887e-20)
(1.2681 0.273668 0)
(-0.160861 0.0284974 -4.68702e-20)
(-0.0636461 -0.0451815 0)
(-0.271822 0.0179637 5.03117e-20)
(-0.359058 0.00869587 2.6527e-19)
(1.02244 0.00145404 -3.5466e-21)
(1.23003 -0.0380765 0)
(1.04659 0.0814068 0)
(1.00178 0.0501298 -1.49157e-21)
(1.07372 -0.0696564 -1.40889e-19)
(1.22993 -0.0166372 9.98963e-20)
(1.02162 -0.000577512 3.29022e-21)
(1.2573 0.0443594 0)
(1.17542 -0.0483274 0)
(-0.354886 0.0149539 1.42152e-19)
(1.00549 0.0170236 0)
(1.25342 -0.132856 0)
(-0.0747066 0.043391 0)
(1.33584 0.438017 0)
(0.0282611 -0.0305858 0)
(1.00009 0.00326027 -4.92122e-21)
(1.0094 0.0514115 -5.03422e-23)
(1.01646 0.000527672 -1.07663e-20)
(1.10121 0.175885 -3.18929e-20)
(1.01924 0.00609222 0)
(0.534599 -0.163553 0)
(0.390965 -0.142116 2.04718e-19)
(1.03435 0.182872 3.43999e-21)
(-0.138229 0.0395662 1.16526e-19)
(1.13459 0.0293014 1.09803e-20)
(1.20846 -0.168535 -7.57243e-20)
(-0.237467 0.016861 1.44766e-19)
(0.849331 0.679343 -1.48337e-21)
(1.14677 -0.198827 3.14838e-20)
(1.17407 -0.261585 -9.14397e-20)
(1.25217 -0.137233 4.22725e-20)
(1.25156 0.0716849 0)
(1.34667 -0.043808 -1.51391e-20)
(1.13153 -0.0965464 3.12869e-20)
(1.12575 -0.210729 -4.02832e-20)
(0.382266 0.202697 1.52701e-19)
(1.11523 -0.113209 0)
(1.24173 -0.0963841 2.78309e-20)
(1.02013 0.000724986 0)
(0.964768 -0.0348385 -2.25355e-19)
(1.1374 -0.00344922 -5.04091e-20)
(1.03859 -0.00308282 0)
(1.09516 0.171611 1.8912e-21)
(1.08656 0.019974 -3.83149e-20)
(-0.350812 0.00986835 -4.30543e-20)
(0.120658 -0.0435402 -7.78621e-20)
(1.02719 0.0326557 -1.58886e-20)
(1.02257 0.000518443 1.35567e-20)
(0.526031 -0.168734 0)
(-0.443695 0.0250371 0)
(1.0001 0.000431659 3.21823e-21)
(0.00537491 -0.0208305 3.52129e-20)
(1.07947 -0.01365 -2.89112e-20)
(1.34902 0.218363 3.73723e-20)
(1.02695 0.0355584 5.0417e-21)
(-0.388704 0.0187634 6.83332e-20)
(0.946173 -0.149486 -8.45162e-20)
(1.10353 0.121627 9.55885e-21)
(1.06182 0.0446236 -3.28901e-20)
(0.251392 -0.0774162 -2.09984e-20)
(1.37381 0.184968 -2.31059e-19)
(-0.268118 0.0247159 0)
(1.00007 0.000516619 3.16809e-21)
(-0.414606 0.0176834 -1.1941e-19)
(0.142543 0.172922 2.30115e-19)
(0.486041 0.0274165 -1.56478e-19)
(1.03908 -0.00237913 -5.14618e-21)
(-0.192425 0.0377023 0)
(0.0129546 -0.000402397 7.52879e-20)
(1.17103 -0.0671618 -1.31594e-19)
(1.01677 0.0180229 0)
(1.02692 0.065514 0)
(1.07479 -0.147525 3.56694e-20)
(1.31059 -0.0672885 8.55256e-20)
(1.02184 -0.00071893 3.85387e-21)
(1.01518 0.017214 5.09899e-21)
(1.00779 0.00351606 -3.8185e-21)
(1.00826 0.00365493 7.75061e-21)
(-0.394673 0.018894 -9.70567e-20)
(1.10584 -0.0647533 -4.98841e-20)
(1.17051 -0.0640574 1.19709e-19)
(1.3785 0.167963 -1.5539e-19)
(1.00958 0.00095054 0)
(1.01604 0.00706017 -1.89443e-21)
(1.30042 -0.0420866 8.77954e-20)
(-0.0903353 -0.00255381 1.34566e-19)
(1.17155 0.0515039 -9.54728e-20)
(1.05108 0.0221695 -1.47791e-20)
(0.998216 0.0263392 5.42141e-21)
(0.992103 0.0123641 1.36898e-20)
(0.434095 0.0224049 6.95687e-20)
(-0.109716 0.0421237 1.04292e-19)
(1.00114 0.00661596 -7.66216e-22)
(0.992975 0.0153813 1.17176e-20)
(1.08954 -0.232855 1.39259e-20)
(1.13362 -0.0932868 -4.03982e-20)
(1.15557 -0.036472 -4.30836e-20)
(1.00774 0.0499826 2.04178e-21)
(1.05692 0.0819057 1.42386e-20)
(1.08365 0.121279 -3.63697e-20)
(1.23654 -0.098283 -6.90279e-20)
(0.988992 0.594717 0)
(1.3887 0.180489 1.31257e-19)
(1.3605 -0.0162354 0)
(1.28071 -0.0740343 -6.2327e-20)
(0.956281 -0.0821183 0)
(1.26491 0.155421 -2.03352e-21)
(1.00747 0.0275694 -3.58776e-22)
(-0.406783 0.0177454 -1.08723e-19)
(0.992313 0.0115165 -1.89293e-20)
(1.02609 0.102019 0)
(1.09311 -0.0284539 0)
(0.983395 -0.0402187 1.24812e-21)
(1.03504 0.362439 1.93591e-22)
(1.0145 0.00160388 8.02773e-22)
(1.33638 0.425662 -4.64965e-20)
(1.32095 0.106703 -1.25584e-20)
(-0.146916 -0.0392534 -2.39207e-19)
(1.28289 -0.06923 -2.0573e-19)
(0.904128 0.18967 1.80082e-20)
(1.18014 -0.0504615 -1.08101e-19)
(0.999813 0.00792218 0)
(0.12084 -0.00729682 -4.00801e-20)
(1.31251 0.407015 4.59827e-20)
(0.114329 -0.0884021 0)
(1.03665 0.0589612 -4.17815e-21)
(1.15404 0.0360702 0)
(1.39012 0.163847 1.73781e-19)
(-0.232188 -0.012895 1.86934e-20)
(-0.339821 0.0225847 1.7612e-20)
(1.24234 -0.0563728 -5.77232e-20)
(1.2792 0.276521 7.13384e-20)
(1.01493 0.120514 -1.77477e-21)
(1.09429 0.0664232 0)
(1.00668 0.0507972 0)
(0.914495 0.297599 -1.60824e-20)
(0.680169 0.258007 -1.52864e-19)
(0.971921 0.0185285 1.7597e-20)
(1.21185 -0.0576943 5.68621e-20)
(0.574986 0.228997 7.87921e-20)
(0.127568 -0.0908916 0)
(-0.265178 0.0266609 -9.59159e-20)
(1.06341 0.094745 7.46703e-21)
(1.20365 -0.167141 1.06813e-19)
(1.01553 -0.161716 0)
(1.03619 0.155134 5.48681e-21)
(0.973252 0.0500247 8.30194e-21)
(0.200788 0.64898 -1.88929e-20)
(0.259443 -0.0406582 5.90013e-20)
(0.277839 -0.0794667 -5.7207e-20)
(1.37791 0.145919 -1.19273e-19)
(1.02307 0.00130676 1.84984e-21)
(-0.0934244 -0.016972 0)
(1.07885 -0.147008 0)
(1.01444 0.00120988 -1.1768e-20)
(1.15306 0.0863672 1.79222e-20)
(1.20269 -0.123345 0)
(0.853321 0.123207 0)
(1.30262 0.108037 0)
(0.408924 -0.132159 -3.01805e-20)
(1.34005 -0.0462179 0)
(1.12558 -0.0864553 2.90836e-20)
(0.122903 -0.00552476 -1.00904e-19)
(1.09166 0.028843 -2.37441e-20)
(-0.383302 0.0110338 -2.53751e-19)
(1.00015 0.00439431 0)
(1.00117 0.00712489 0)
(0.774635 -0.174417 8.72216e-20)
(0.236371 -0.0399041 -6.66376e-20)
(0.386801 0.335442 5.12357e-21)
(1.09208 0.0264603 -1.24549e-20)
(1.03529 0.0732123 0)
(0.99352 0.0155237 -1.03289e-20)
(1.08906 -0.108128 -2.14375e-21)
(0.0949105 0.296313 3.63189e-20)
(1.08612 -0.182884 3.72169e-20)
(1.09776 0.0665532 0)
(1.14645 -0.193125 -7.90704e-22)
(1.22193 -0.0579657 8.68661e-20)
(1.02708 0.0365905 0)
(1.25324 0.602566 -1.04011e-19)
(1.08306 -0.179973 -3.10182e-20)
(1.05577 -0.216212 4.76453e-20)
(1.01194 0.0298625 -3.16769e-22)
(1.33331 -0.0569662 -3.28159e-20)
(1.08571 0.0227815 3.86806e-20)
(-0.0897052 0.0627114 -1.42325e-19)
(1.2278 0.189597 -9.63312e-20)
(1.04736 0.354188 2.51895e-20)
(1.15618 0.0389499 -1.56002e-20)
(1.01172 0.00390216 -9.40445e-21)
(1.03748 0.00200323 0)
(1.05669 0.0321148 0)
(1.00749 0.43485 -7.11476e-21)
(0.892063 0.0636274 1.44897e-20)
(1.42783 0.066726 0)
(0.476165 0.915661 -1.47007e-20)
(1.21034 -0.0744449 0)
(1.01332 0.0067198 9.7563e-21)
(1.34131 -0.0311702 0)
(0.385729 0.367839 2.45233e-19)
(1.10078 -0.256451 8.93087e-20)
(1.05321 -0.007438 0)
(0.903515 0.0750592 2.36369e-20)
(1.01443 0.0172422 0)
(1.09985 -0.0645784 0)
(1.1183 0.0450848 -2.03499e-20)
(-0.000606831 0.00171541 -7.99414e-20)
(1.00005 0.00501298 -4.89693e-21)
(1.19437 0.554545 -1.41149e-19)
(1.10439 -0.0595806 2.22776e-20)
(1.16922 -0.210614 -6.46968e-20)
(1.26665 0.185321 -7.0659e-20)
(-0.347135 0.0145404 -5.45666e-20)
(1.07423 0.351999 -3.10729e-20)
(1.02589 0.0634294 -1.58316e-21)
(-0.306775 0.000176635 -2.18384e-20)
(-0.482085 0.026374 0)
(1.01956 0.0502529 1.56971e-21)
(1.09087 -0.0293159 -1.1724e-20)
(0.938941 -0.135424 4.05962e-20)
(1.37664 0.150037 0)
(1.28178 -0.0996781 -1.0606e-20)
(1.00026 0.000620171 -2.25353e-22)
(1.06355 0.0441664 1.36772e-20)
(1.2818 0.400447 -7.17093e-20)
(1.08586 -0.0429547 4.57049e-20)
(1.26272 -0.024431 1.0712e-19)
(1.15343 -0.132322 -7.63061e-21)
(1.03827 0.00151144 0)
(1.17376 -0.101313 -5.72191e-20)
(0.377253 -0.141045 3.13149e-20)
(1.05154 -0.009687 -3.1669e-20)
(1.06648 -0.0319948 2.51415e-20)
(1.00701 0.00378053 3.12563e-21)
(-0.178033 -0.00422673 -2.7463e-20)
(1.00002 0.00235569 -4.5682e-21)
(1.00581 0.116441 -2.70428e-21)
(-0.394416 0.0275576 2.86452e-19)
(1.01349 0.0959626 -4.30639e-23)
(0.28989 -0.0448029 1.84331e-19)
(1.12487 0.0772685 -4.05537e-20)
(0.838374 0.129138 -1.54294e-20)
(1.00751 0.00393263 -4.76389e-23)
(1.06794 0.2737 0)
(1.00424 0.0213468 -6.40775e-22)
(1.24727 0.0842028 -9.55375e-20)
(1.01119 0.00236502 1.93383e-21)
(1.1446 0.32984 -7.53866e-20)
(1.07949 -0.0122217 0)
(0.0124336 0.0839571 0)
(0.450871 0.782526 -3.62313e-20)
(-0.092912 -0.00343234 -8.45814e-20)
(1.01588 0.000509924 -6.75236e-21)
(0.999952 0.00655564 -2.77477e-21)
(1.25733 0.150629 6.22121e-20)
(1.20111 0.142326 -3.13511e-20)
(-0.23869 -0.00623071 -1.94335e-20)
(-0.0139824 -0.0208392 0)
(1.2333 -0.000296246 -5.51183e-21)
(0.995505 0.025362 4.25397e-21)
(1.43752 0.0130537 -1.77049e-19)
(0.354898 0.312016 -2.43422e-19)
(1.05706 -0.216308 -5.0057e-20)
(1.39002 0.0659434 -7.85649e-20)
(1.21779 -0.0271753 -8.11545e-20)
(0.491105 -0.138747 1.29643e-20)
(1.14553 0.165918 0)
(1.08709 -0.103103 0)
(1.34278 0.0117203 1.74601e-20)
(0.885257 0.511406 5.30257e-22)
(1.2301 0.00329628 2.02119e-20)
(0.320852 0.391088 -2.1173e-19)
(1.23021 0.0145838 -3.78335e-20)
(1.07684 -0.0327318 0)
(1.20636 -0.127019 1.03803e-21)
(1.03831 0.143837 -6.34089e-21)
(1.04418 -0.00256949 -1.09769e-20)
(1.10055 -0.0625505 0)
(1.18229 0.152949 6.11296e-20)
(1.09395 0.123304 0)
(1.0029 0.0220002 -3.30451e-21)
(1.01018 0.000750989 0)
(1.21657 -0.0671098 0)
(1.09181 -0.00583557 -2.54466e-20)
(1.26775 -0.0213974 -1.23546e-19)
(0.996085 0.0245775 -7.08645e-21)
(0.997213 0.0201838 0)
(0.999974 0.00191851 5.63031e-21)
(1.0517 0.0829698 2.25593e-20)
(1.028 -0.00293801 1.32425e-22)
(1.08921 0.104417 2.7161e-20)
(1.00628 0.00405185 6.46901e-21)
(-0.394156 0.019724 0)
(1.10185 -0.139311 4.23649e-20)
(0.463068 -0.189884 4.02346e-21)
(1.01777 0.00641865 1.17489e-20)
(1.00018 0.00302422 0)
(0.81403 0.207441 0)
(1.25722 0.0685005 -8.51696e-22)
(0.953254 0.032314 0)
(0.353325 0.0149406 9.3619e-21)
(1.21086 0.254029 1.20405e-19)
(0.505408 0.0791114 -1.47499e-19)
(1.10357 -0.0616223 0)
(1.3195 -0.0397669 0)
(1.07548 0.00612289 -1.77425e-20)
(0.999865 0.00213958 0)
(1.0086 0.00324139 -3.79128e-21)
(1.06585 0.0732413 2.82183e-20)
(-0.382693 0.0255683 1.66711e-19)
(1.00013 0.00255382 3.48453e-23)
(0.803052 -0.0787386 0)
(1.09152 0.107433 0)
(-0.216356 0.0300176 9.95648e-20)
(1.00268 0.286462 -4.04128e-21)
(1.2206 0.251927 -6.80134e-20)
(1.16525 -0.208083 7.15238e-20)
(1.02858 0.00532419 -1.75459e-20)
(1 7.32951e-05 0)
(1.10475 -0.141419 -5.30676e-20)
(0.988705 0.0188814 0)
(0.997467 0.0667307 6.07368e-21)
(0.478675 0.00855735 -1.01387e-19)
(1.03596 0.0782696 0)
(0.998653 0.00637157 1.15695e-20)
(1.13916 0.0579479 -3.29679e-20)
(1.01031 0.0111818 7.66306e-21)
(1.02183 0.000698739 -2.26587e-20)
(1.10215 0.115982 2.86278e-20)
(0.880111 0.0209725 -6.07588e-20)
(-0.264431 0.000842967 2.33633e-20)
(1.138 0.139158 -6.91969e-20)
(1.05116 -0.0104994 0)
(1.01342 0.00129585 -4.09145e-21)
(-0.198855 -0.0188489 -1.75659e-20)
(0.991205 0.443159 -9.76399e-21)
(1.01682 0.0608265 0)
(1.03768 0.0578494 5.61612e-21)
(0.434088 0.0137842 8.99421e-21)
(0.96943 -0.144483 9.29268e-20)
(-0.43205 0.0243583 0)
(0.912752 0.189359 1.38573e-20)
(1.0788 -0.0318085 0)
(1.01696 0.00384415 -4.50504e-23)
(1.02201 0.000799367 1.60804e-20)
(1.11856 -0.114584 0)
(1.14462 0.140418 7.35086e-20)
(1.25592 -0.239516 0)
(0.92003 0.0576357 0)
(-0.12386 -0.0282759 -4.77469e-20)
(1.05149 0.0542592 9.32119e-21)
(0.978651 0.091033 0)
(-0.430118 0.0266517 2.71039e-19)
(0.997876 0.0220342 0)
(1.13877 -0.00668808 5.16748e-20)
(1.01693 0.045905 5.48711e-21)
(1.00322 0.00195586 -4.92076e-21)
(1.17192 0.160434 9.01105e-21)
(0.772277 0.0523308 -4.65334e-20)
(1.07627 0.0259306 0)
(0.259632 -0.043391 -1.36744e-19)
(0.186951 -0.0374603 -1.82932e-20)
(1.27361 0.179232 6.49241e-20)
(1.00811 0.0283082 0)
(1.03157 -0.00176928 7.61396e-21)
(1.10498 -0.186224 8.04852e-20)
(0.842189 -0.0767845 0)
(1.00011 0.000709677 -2.15089e-22)
(1.04836 -0.0972504 0)
(1.03105 -0.00126515 5.29697e-23)
(1.17732 0.146027 0)
(1.04109 -0.0130867 2.71816e-20)
(1.04672 -0.000550766 -2.20349e-20)
(1.22388 -0.0636447 0)
(1.05869 0.0116277 3.00545e-20)
(1.00541 -0.205186 -8.60627e-21)
(1.18507 0.107233 0)
(0.999976 0.00189708 3.07952e-21)
(1.02629 0.00185276 0)
(0.981094 0.0201637 -1.23471e-20)
(1.0186 0.0286834 3.25946e-21)
(1.06646 -0.0300714 -2.35859e-20)
(0.296662 0.787262 -8.72523e-20)
(1.05086 -0.00614156 3.00449e-20)
(1.04348 0.00706136 3.03328e-20)
(0.0522073 -0.0542482 0)
(0.234305 -0.0641804 2.51153e-19)
(1.12757 -0.0900396 3.88875e-20)
(1.19323 0.143988 8.79894e-22)
(1.25101 -0.0426674 -6.39879e-20)
(1.11907 0.0113249 0)
(1.03645 0.0152394 -7.60419e-21)
(0.887988 0.0562922 1.99463e-20)
(-0.381196 0.0144176 0)
(1.1567 0.331928 0)
(0.999157 0.0126451 4.85739e-21)
(1.05965 0.043677 2.00694e-20)
(0.00810404 -0.0237703 0)
(1.18262 -0.00564589 6.35381e-22)
(-0.247491 0.0237109 1.05831e-19)
(1.00003 0.00238832 2.00341e-22)
(0.951044 0.033873 0)
(-0.202642 -0.00254905 -9.87243e-20)
(1.16811 -0.0154059 0)
(1.07895 0.0230697 1.60047e-20)
(-0.350979 0.0249493 1.75105e-19)
(0.229222 0.345732 0)
(1.01875 0.0278161 0)
(1.3369 0.0127261 1.10535e-19)
(1.00907 0.00337891 0)
(1.05708 0.0120333 -3.21729e-20)
(1.01828 0.00671257 -1.53037e-20)
(-0.342395 0.0168563 0)
(1.02735 -0.00293785 2.35235e-20)
(1.04657 -0.0188378 -1.86864e-22)
(1.03701 0.0144087 -7.60331e-21)
(0.965175 -0.199757 1.8225e-20)
(1.07714 -0.0473586 0)
(1.35606 0.210328 -1.04654e-19)
(0.695485 -0.0246185 3.13306e-19)
(1.04647 -0.00354556 0)
(0.846808 0.0786017 0)
(1.00113 0.00620387 5.35629e-22)
(-0.279304 0.0243743 1.11993e-19)
(1.00977 0.0154137 0)
(1.05152 -0.00729537 -3.02671e-20)
(0.998767 0.0068361 0)
(1.10723 -0.189017 -1.14334e-19)
(0.998534 0.00704054 0)
(1.34006 -0.0546334 0)
(0.219727 -0.0318481 0)
(0.509054 -0.165405 1.03733e-19)
(0.90876 0.0746652 -4.34484e-20)
(1.17889 -0.259171 9.40545e-22)
(-0.36346 0.0256564 7.00666e-20)
(1.00531 0.043391 0)
(-0.115779 -0.0102794 0)
(0.0939922 0.0469597 1.13924e-19)
(-0.34442 0.0264316 0)
(0.198354 -0.064959 1.75663e-20)
(0.0369054 -0.053668 -7.06238e-20)
(0.00756902 0.0877622 3.29468e-19)
(1.33503 -0.0299472 -1.34467e-19)
(1.02928 0.0662786 8.22802e-21)
(0.392331 -0.127336 3.34116e-20)
(1.16732 -0.0114859 0)
(0.259213 -0.115108 0)
(1.03837 -0.00148052 0)
(1.03868 0.0278364 1.8557e-20)
(1.01895 0.0616496 0)
(1.00123 0.00670898 -7.69761e-22)
(1.126 0.00206118 0)
(0.903798 0.14038 -3.25661e-21)
(-0.179002 -0.0140829 0)
(1.03811 0.0265159 8.99482e-21)
(0.994558 0.0157229 -5.61555e-21)
(-0.241206 0.0272198 1.94318e-19)
(1.01441 0.548122 -6.97244e-20)
(0.980957 0.0187999 1.3648e-20)
(0.805679 0.00365134 -4.72187e-20)
(1.15111 0.0598571 8.24407e-21)
(1.06803 0.0182094 2.34121e-20)
(0.510898 0.819492 0)
(0.800672 0.00906109 0)
(0.962311 0.0849807 0)
(1.07845 -0.0462457 0)
(0.164127 -0.0279944 1.889e-20)
(-0.41757 0.0288454 -2.37523e-19)
(0.228773 0.16724 -1.42798e-21)
(1.04077 -0.0121233 -2.5729e-20)
(1.36854 0.194086 2.33789e-19)
(1.31664 0.100384 0)
(-0.285952 0.0294953 -7.05022e-20)
(0.0707389 -0.0302908 -7.90023e-20)
(1.08787 -0.161063 -8.14782e-20)
(1.02836 0.0352692 -5.86091e-21)
(1.07736 0.00693981 -1.48649e-22)
(1.04967 0.0551342 -2.928e-20)
(1.02208 -0.00111035 1.32267e-20)
(1.05528 0.0837165 0)
(1.02226 0.00126216 0)
(1.08655 0.118926 4.16937e-20)
(1.13982 0.165746 0)
(-0.128516 0.0403943 5.8955e-20)
(1.26404 -0.142783 0)
(1.04763 -0.0182164 0)
(1.31322 -0.0427949 2.45454e-20)
(-0.262026 0.0176868 -9.75195e-20)
(1.16719 0.153524 -5.90232e-20)
(0.977882 0.0483641 -1.20825e-20)
(-0.384447 0.0165637 -2.27643e-19)
(1.0466 0.0208662 -5.80604e-21)
(0.997951 0.0640497 -5.87229e-21)
(0.82297 0.12003 1.54304e-22)
(-0.102605 0.0433166 -1.73989e-19)
(0.99835 0.00567666 1.43997e-20)
(1.01155 0.0305363 -2.44365e-21)
(0.268514 -0.120857 -1.59449e-21)
(1.20673 -0.256155 5.03861e-20)
(1.05945 -0.172955 2.09057e-19)
(1.28459 -0.0846951 0)
(1.13997 -0.26169 0)
(1.01584 0.0276337 6.08011e-21)
(1.35677 -0.0282232 1.80256e-19)
(0.977449 0.050798 0)
(1.00732 0.0169649 7.06677e-23)
(0.974139 0.0471903 -7.59066e-21)
(0.481232 -0.155142 0)
(-0.413134 0.0247132 0)
(1.04428 0.00415647 -1.1653e-20)
(1.02683 0.00163561 0)
(1.01733 0.0477502 -5.46497e-21)
(0.904225 -0.13685 -1.09179e-19)
(1.04975 0.0815552 -2.2547e-20)
(1.15566 0.0284993 -6.18483e-20)
(0.989581 0.0180769 0)
(1.03757 0.0682808 -1.41165e-20)
(1.35703 -0.0234637 -1.38964e-19)