/*--------------------------------*- C++ -*----------------------------------*\
| =========                 |                                                 |
| \\      /  F ield         | OpenFOAM: The Open Source CFD Toolbox           |
|  \\    /   O peration     | Version:  v2012                                 |
|   \\  /    A nd           | Website:  www.openfoam.com                      |
|    \\/     M anipulation  |                                                 |
\*---------------------------------------------------------------------------*/
FoamFile
{
    version     2.0;
    format      ascii;
    class       volScalarField;
    location    "50";
    object      nut;
}
// * * * * * * * * * * * * * * * * * * * * * * * * * * * * * * * * * * * * * //

dimensions      [0 2 -1 0 0 0 0];


internalField   nonuniform List<scalar> 
13851
(
0.000425818
0.00125341
0.00133503
0.00366985
0.00672195
0.000987147
0.00231204
0.00675315
0.00701724
0.00673288
0.000242182
0.00672435
0.00306678
0.0041956
0.000818791
0.0013984
0.00212109
0.00400049
0.000408474
0.000452399
0.000700952
0.00064262
0.00185967
0.00672546
0.0070554
0.00139404
0.000844454
0.000440603
0.00507193
0.00673538
0.0101169
0.00278181
0.000537729
0.00522479
0.000342741
0.00459098
0.00672579
0.00634393
0.0153898
0.00267966
0.00782856
0.00451351
0.000175521
0.00025372
0.00421248
0.00539865
0.00673555
0.00105849
0.00126364
0.0027453
0.00402458
0.0027134
0.00139761
0.00158878
0.00358353
0.00272202
0.000490375
0.00871164
0.000847398
0.0057575
0.00672429
0.00089668
0.00672559
0.00109033
4.7359e-05
4.01469e-05
0.00394447
7.59673e-05
0.00252523
0.00575442
0.00944273
0.000543566
0.00366081
0.00462344
0.00133967
0.000922812
0.00333474
0.00672741
0.00521757
0.00673
0.00234147
0.000487022
0.000342633
0.00491058
0.00597081
0.0100474
0.00066814
0.0020301
0.0062203
0.00997825
0.00199733
0.0023214
0.000264931
0.00901607
0.0141983
7.15315e-05
0.00590566
0.00128978
0.00451143
0.000181026
0.00124592
0.000152785
0.000128386
0.00298012
0.0061957
0.000436548
0.00507213
0.010004
0.00234941
0.00411422
0.000385257
0.0059555
0.000266116
0.000287147
0.000629666
0.00165015
0.00672469
0.00674377
0.00303262
0.00652552
8.98918e-05
0.00567611
0.00217878
0.00875043
0.000364848
4.86444e-05
0.00547077
0.000215005
0.00730418
0.000644736
0.000658675
0.000568957
0.00417266
0.00531507
0.000269548
0.0145967
8.75545e-05
0.00981345
0.000203589
0.000787039
0.00049872
0.00140657
0.0060388
5.47286e-05
0.00542261
0.00112487
0.00672639
0.00912653
0.00636294
0.000207896
0.00117934
0.000269783
0.00028326
0.000353837
0.00189171
0.00395269
0.00672381
0.0150493
0.000795289
0.00229899
0.006725
0.00492951
0.000482401
0.00109274
0.00447298
0.00554815
0.00538666
0.0055796
0.000417502
0.00538851
0.00672432
0.00672397
0.000391895
0.00672231
0.0147498
0.000653699
0.000937116
0.00672436
0.0014073
0.000974849
0.000359671
0.000130818
0.000443921
0.000751473
0.000191329
0.00638288
0.000555022
0.000323767
0.0023235
0.00674033
0.00306138
0.000760155
0.00260333
0.000907887
0.00104534
0.0013467
0.000538171
0.00335552
0.00258249
8.34228e-05
0.000488101
0.0138706
0.00990348
0.000863748
6.06954e-05
0.0132273
0.000947923
0.000964129
0.00701123
0.000875718
0.00140766
0.00296053
0.000482853
0.00672549
0.000356101
0.000835412
0.00300496
0.000427174
0.00292796
3.03099e-05
0.0067236
0.000411855
0.00378155
0.014721
0.000347263
0.000909434
0.00672591
6.32087e-05
0.00672609
0.000327578
0.0054706
0.000347197
0.000963698
0.00672448
0.0114389
0.00673566
0.00114594
0.00998821
0.000165009
0.00672524
0.000227374
0.00584351
0.00363186
0.00140969
0.000754846
4.70248e-05
0.000405861
0.00140057
8.46003e-05
0.000372793
0.00233467
0.00032308
0.00673381
0.00105289
0.00133909
0.00497441
0.0028249
0.00673893
4.98751e-05
0.00651053
0.000517904
0.000394489
0.00124323
0.000538906
0.000298946
0.004315
0.000140764
0.000968661
0.000424787
0.00672586
0.00312377
0.000353554
0.00443599
0.00156712
0.000628767
0.00526242
0.000406191
0.000359628
0.000622822
0.000507597
0.00511375
0.00417982
0.000886974
0.000936322
0.00553553
0.00541821
0.0067236
0.000567057
0.000254631
0.00673855
0.00672542
0.00672613
0.00672178
0.000798979
0.00672371
0.00665533
0.000666626
0.00365134
0.00501023
0.00893184
0.002425
0.000402767
0.00402857
0.00123875
0.00211348
0.00060643
0.00463795
0.0136948
0.000375173
0.00672108
0.00460189
0.00672438
0.000341758
0.00596851
0.000458472
0.00217996
0.00467985
0.00107987
0.0114715
0.000267787
0.000131003
0.0150813
0.00823978
0.000449194
0.00241874
0.00404003
0.000147698
2.89015e-05
2.89382e-05
0.000739104
0.000393405
0.00034661
0.00232017
0.000111345
0.00672
0.00672355
0.000644946
0.0106384
2.84065e-05
0.00535707
0.0143548
0.000342011
0.000510666
0.002007
0.00359599
0.000340144
0.00137806
0.000906937
0.00104158
0.00401946
0.00217392
0.000342029
0.00096931
0.000528871
0.000327179
0.00622858
0.00325217
0.000208212
0.000196096
0.00032448
0.00217107
0.00384048
0.000900957
0.0108995
0.000492636
0.00674524
0.000439619
0.000435172
0.00613252
0.00066944
0.001715
0.000907325
0.00588141
0.000222041
0.00294385
0.0019138
0.000626036
0.000484643
0.000741028
0.00365731
0.000651503
0.0108533
0.00105944
0.00160597
0.000355852
0.000288553
0.00406368
0.00102439
0.000226786
0.00133748
0.00504466
0.000574588
0.00177304
0.003626
0.000862237
0.00185341
0.00117097
0.000502956
0.00120098
0.0123325
0.000793835
0.00136503
8.88649e-05
0.000334027
0.000511158
0.00220952
0.00443816
0.000282739
0.00462992
0.00025379
0.000553167
0.00158774
0.0055146
0.000206173
0.00357337
0.00622452
0.00105491
0.000291038
0.000729863
0.0017656
0.00672892
0.00230557
0.000418355
0.00145071
0.000332573
0.000730082
0.00406312
0.00672267
0.00277308
0.000714853
0.00594589
0.00137567
0.000911741
0.00672418
0.00226991
0.00036957
0.000496357
0.00145248
0.00177645
0.00232719
0.00462257
0.00349244
0.00251738
0.000612087
0.00144742
0.000674167
0.000958121
0.00672521
0.00672348
0.00112671
0.000357187
0.00144381
0.00461233
0.00170222
9.75426e-05
0.00173658
0.0125943
0.00672402
0.00148587
0.00398882
0.000234859
0.00672201
0.00672449
0.00165912
0.00319838
0.000252845
0.000100787
0.000712138
1.53594e-05
0.00115996
0.00672561
0.00615713
0.00090464
0.000211348
0.00325573
0.00912268
0.000225382
0.000122091
0.00288936
0.000544035
0.000221674
0.00115665
0.00829496
0.000868098
0.00551216
0.000821414
0.000268512
0.00429396
0.00521322
0.00132299
0.000498889
0.000626151
0.000934418
0.000223773
0.000380379
0.00672164
0.00171035
0.00703908
0.0101763
0.00107997
0.000150544
0.00733266
0.000342517
0.000392266
0.00672525
0.000527872
0.00673197
0.00595515
0.000316104
0.0148546
0.0014708
0.00139734
0.000112317
0.000412879
0.0061078
0.0103086
0.00646834
0.00639364
0.000214922
0.00673112
0.00188896
0.000463096
0.000514931
0.00673834
0.00856175
0.00162914
0.00675803
0.0138518
0.000402842
0.00039588
0.000942518
0.000561724
0.0058423
0.00676218
0.000429091
0.00263632
0.00498289
0.000713984
0.0117907
0.000528043
0.00137778
0.00648438
0.00122671
0.00668918
0.0150232
0.00621888
0.00388793
0.00505562
0.0023937
0.000460227
0.00192508
0.00672849
0.000889408
0.0139577
0.000335799
0.0135847
0.00151743
0.00647436
0.00398343
0.0067251
0.000250042
0.00135752
0.00126032
0.000734889
0.00201111
0.00581554
0.00102027
0.00215578
0.00231487
0.00031421
0.00434032
0.00545212
0.00248228
0.00478205
0.000127471
0.0138832
0.00102329
0.0010902
0.000637085
0.001654
0.00094116
0.0051819
0.0109181
8.02551e-05
0.00708541
0.000635884
0.00356599
0.00190668
0.000847257
0.000300544
0.00672524
0.000666172
0.0107293
0.000410265
0.000738526
0.00293402
1.37179e-05
0.000162821
0.00364245
0.00383473
0.00672301
0.000456666
0.000399736
0.00672395
0.0146949
0.00672293
0.000600568
0.000800351
0.00152786
0.00301871
0.00546455
0.000249749
0.00366253
0.000478983
0.0142928
0.000559636
0.00672541
0.00675882
0.000368679
0.00174701
0.00026299
0.00136449
0.000236662
0.000857264
0.00672496
0.00188823
0.00672573
0.00171925
0.00281204
0.00424633
0.000358978
0.00309443
0.000105918
0.000209945
0.0127689
0.00511487
0.010648
0.000345359
0.000686122
0.00143387
0.000758675
0.00674805
0.000263049
0.00352538
0.00423375
0.00452248
0.00221274
7.11902e-05
0.00343684
0.00672598
0.00672592
0.0013716
0.00130862
0.000723848
0.00188965
0.000321178
0.00183104
0.00515277
0.000859484
0.000293717
0.000198028
0.00672429
0.000945529
0.000147706
0.00137142
0.00133755
0.00108962
0.000167694
0.000461557
0.0010143
0.000597429
0.000581188
9.31906e-05
0.000130589
0.000408799
0.000305085
0.00783357
0.00110255
0.00696264
0.000239206
0.000703019
0.000398312
0.00434588
0.000991962
0.000334986
0.000620054
0.00672935
0.00672833
0.00151344
0.00261099
0.00148322
0.0109623
0.00672579
0.000715661
6.54604e-05
0.00359691
0.000243214
0.000860753
0.00142406
0.00487014
0.000192848
0.000258628
0.000801781
0.00205009
0.000857117
0.00157714
0.000678376
0.000598357
0.000415405
0.00419514
0.00672564
0.000912406
0.00527868
0.00465506
0.0067214
0.000879149
0.00483063
0.00022192
0.0151467
0.00543408
0.000634446
0.000280422
0.000387537
0.00672409
0.00341222
0.00672677
0.00626917
0.00672241
0.000320891
0.000266145
0.000133975
0.000435169
0.00109355
0.00717004
0.00672645
0.00451186
0.00035771
0.00672623
0.00672423
0.00442515
0.000917864
0.000674069
0.00960442
0.000730302
0.000475714
0.00675573
0.00511028
0.000759443
0.00143539
0.000858171
0.00672421
0.00136066
0.00548737
0.00116561
0.00274055
0.000611361
0.000593286
0.000433498
0.0145538
0.000328698
0.000526244
0.00379648
0.00672574
0.00402866
0.00672407
0.00170509
0.00459178
0.000812799
0.000597704
0.000210045
0.00046016
0.00672516
0.0067264
0.000331336
0.00191578
0.00672531
0.00149283
0.000352338
0.00672148
0.000177234
0.00042517
0.000648112
0.000217824
0.00916606
0.000196162
0.00672406
0.000212804
0.0067261
0.00103984
0.000344119
0.00376503
0.0133803
0.00292795
0.00226255
0.00267402
0.000111447
0.00117363
0.00563751
0.00160303
0.000495691
0.0042369
0.001692
0.000844067
0.00460166
0.00673567
0.00160801
0.00043349
0.00163985
0.00672553
0.000666008
0.000285192
0.0108736
0.00194169
0.00672346
0.00197167
0.00148851
0.000663199
0.00672355
0.0145396
0.00675393
0.00343611
0.00672716
0.000158629
0.000691601
9.97969e-05
0.000604617
0.00361097
0.00125919
0.00672145
0.000897214
0.0013825
0.00409992
0.00224524
0.000667651
0.00544868
0.000604703
0.00672084
0.00240315
0.000148191
0.000918631
0.000809433
0.00348821
0.00189469
0.0041022
0.000327846
0.00672577
0.00672143
0.000578161
0.000719097
0.00672458
0.00151774
0.00845156
7.6285e-05
0.00427889
0.00673723
0.00737372
0.00672637
0.00672138
0.00203105
0.00671687
0.00672579
0.00561488
0.00044455
0.00275068
0.00672289
0.000520302
0.00516566
0.00336164
0.000219223
0.00591624
0.0152238
0.0014724
0.00106706
0.0067254
0.000655636
7.7213e-05
0.00545917
0.00672429
0.000456314
0.00470543
0.000499121
0.000504485
0.000650454
0.00672548
0.000466662
0.000807855
0.00283298
0.000801383
0.000774949
0.000441537
0.00672515
0.00382077
0.00447175
0.00425934
0.00270213
0.000732755
0.000884543
4.64191e-05
0.00245403
0.000464367
0.000670286
0.00672038
0.0053671
0.00115244
0.00672072
0.00266803
0.0013252
0.0145747
0.000341689
0.00673051
0.000451259
0.00448157
0.0012816
0.000478738
0.000971026
0.000682956
0.0100153
0.00672392
0.000974008
0.000500734
0.000572847
3.00573e-05
0.00136714
0.000496028
0.00137512
0.00818162
0.00361646
0.00356633
0.000743452
0.00821185
0.00306279
0.00221348
0.00080634
0.00354471
0.00207884
0.00672603
0.00159465
0.00672474
0.00782879
0.000470779
0.000400698
0.000431999
0.000917144
0.00673583
0.00213342
0.000628973
0.00193549
0.000615848
0.0114898
0.000913213
0.000826395
0.000236597
0.00490443
0.00132307
0.0114408
0.00672411
0.000347082
0.00133363
0.0036872
0.000261907
0.00672581
0.00673007
0.000128695
0.00351549
0.000353263
0.00176236
0.000563286
0.000432217
0.000369981
0.000347215
0.00326985
0.0147865
0.000378746
0.00672529
0.000573716
0.00147162
0.0122022
0.00109932
0.000138385
0.000553962
0.00133956
0.000174738
0.00271227
0.00245741
0.00043837
0.000724073
0.000480519
0.00672537
0.00639773
0.000400024
0.00404933
0.00433769
0.000232315
0.00672514
0.000451165
0.000367098
0.00532807
0.0102796
0.00283706
0.000540165
0.00152544
0.00216244
0.000358748
0.00672322
0.00260618
0.000534545
0.00567767
0.00620086
0.00134594
0.00150363
0.00614671
0.00974927
0.00116773
0.005164
0.00113005
0.00504497
6.30629e-05
0.00672754
0.00135446
0.00585693
0.00672164
0.000968208
0.00189014
0.00482832
0.00214024
0.00085644
0.00557965
0.0121841
0.000360106
0.00357103
0.00192954
0.000496835
0.00598227
0.00677103
0.000340701
0.00618653
0.000970403
0.0067347
0.00036549
0.000605995
0.00036417
0.000407057
0.00675881
0.00672805
0.00213719
0.00505124
0.00168051
0.00709979
0.00111013
0.0067236
0.0054764
0.00620033
0.000816279
0.000592314
0.00309986
0.00529696
0.000337347
0.00672577
0.000560683
0.00313419
0.000827553
0.00817583
0.000302857
0.00516669
0.00484328
0.00857849
0.00122724
0.000864973
0.0079027
0.000799262
0.000278288
9.71416e-05
0.000221539
0.00188308
6.31193e-05
0.00476857
0.000417571
0.00597656
0.0067243
0.000824094
0.000209519
0.000469392
0.00075034
0.00672301
0.0012662
0.00099708
0.00151478
3.93983e-05
0.00672462
6.86678e-05
0.00271075
0.00426223
0.000919611
0.00152234
0.00672515
0.00393639
0.000446644
0.0149587
0.00494241
0.00672546
0.000845387
0.000710908
0.00193433
0.000928985
0.000805703
0.00672568
0.000906173
0.000554142
0.000482072
0.000678253
0.00321115
0.00105805
0.00122321
0.00011795
0.000388515
0.000363871
0.00583911
0.000381665
0.00920078
0.00123493
0.00876898
0.000344877
0.00589924
0.00780517
0.00554718
0.00673231
0.00387558
0.00103208
0.00135992
0.000354648
0.00164963
0.00369319
0.00671873
0.00627216
0.00110077
0.00672627
0.00122599
0.00101088
0.000625691
0.00118735
0.00672562
0.00672583
0.00386298
0.00672311
0.000242656
0.000929528
0.000291922
0.000910595
0.00672964
0.00521259
0.00710466
0.00489174
0.00223234
0.000707313
0.000128456
0.000731056
0.0067247
0.000155966
0.00127493
0.00672662
0.00205711
0.0047607
0.00198278
0.000386262
0.00223997
0.00318876
0.0039642
0.000493151
0.000542699
0.006726
0.000673964
0.00400993
0.00108162
0.00672428
0.00277549
0.000915517
7.17193e-05
0.00246268
0.000827828
0.00961929
0.00116196
0.00463819
0.00430968
0.00397383
0.000462504
0.00672771
0.0060228
0.00202065
0.000149835
0.00216056
0.00443625
0.00672222
0.00584064
0.00187942
0.000411625
0.000569917
0.00257493
0.00672534
8.6922e-05
0.00674784
0.0105211
0.00672425
0.000650267
0.00128459
0.00720325
0.000472979
0.00672473
0.00051955
0.00672279
0.00164331
0.000170582
0.000754988
0.0008679
0.00672598
0.00105563
7.79135e-05
0.000680803
0.000455812
0.000254554
0.000258163
0.00109625
0.000659037
0.00109311
0.00552383
0.000656943
0.00185309
0.000918674
0.00672329
0.000520124
0.00672689
0.000588997
0.00672705
0.000163126
0.00559393
0.00672533
0.0021198
0.00094145
0.00672372
0.00100932
0.00671971
0.000166424
0.00503631
0.000551662
0.000659591
0.00672236
0.00672591
0.000141745
0.00672552
0.00672523
0.0015078
0.000781043
0.000533095
0.000167045
0.00279429
0.000349247
0.00588623
0.00672546
0.00672538
0.00672767
0.000541005
0.00576722
0.000986782
0.000958468
0.00672638
0.00672311
0.00358541
0.00672541
0.000730566
0.00191481
0.00300088
0.00039006
0.000119094
0.00109092
0.000252057
5.76381e-05
0.00245722
0.000281577
0.000667919
0.00584397
0.00581524
0.000985125
0.000785967
0.00403407
0.00024332
0.00672454
0.00133885
0.000414426
0.00402861
5.5329e-05
0.00218963
0.000124404
0.00820186
0.00561242
0.00672491
0.00125861
7.4869e-05
0.00305952
0.000397492
0.00193084
0.00517652
0.00140087
0.00094132
0.00140992
0.000393628
0.00672637
0.000248526
0.000471534
0.00229515
0.00675621
0.0103256
0.000375313
0.000816815
0.0043579
0.00142181
0.00162725
0.00672423
0.00246879
0.00674387
0.000390144
0.00021642
0.000274653
0.00419342
0.010261
0.00672498
0.00025339
0.000467055
0.00238216
0.000595631
0.00672608
0.0124732
0.012156
0.00675678
0.000461786
0.00135935
0.00204075
0.000397951
0.00121021
0.000874509
0.00124512
0.000928512
0.00114058
0.00672495
0.0011292
8.04271e-05
0.000453928
0.00672555
0.000781352
0.000385718
0.0014011
0.00672603
0.0124424
0.00118306
0.000867643
0.00582414
0.000338408
0.000398341
0.000120683
0.00672462
0.00147128
0.000226138
0.00021571
0.000255495
0.00672449
0.00132725
0.00119861
0.000313493
0.0067249
0.000184909
0.00466359
0.000236573
0.00335314
0.0015671
0.0041548
0.000506319
0.005075
0.00200351
0.00672486
0.000778602
0.00101543
0.000668753
0.00027048
0.0010997
0.000242556
0.000258215
0.000608822
0.00087484
0.00672552
7.81515e-05
0.00133097
0.000388562
0.000503387
0.000697807
0.000410966
0.00672932
0.00361657
0.000185953
0.00291893
0.00134296
0.000982219
0.00475031
0.00024256
0.00118803
0.00389228
0.000425971
0.000372046
0.00032396
0.000968358
0.0067292
3.43636e-05
0.00677174
0.000462929
0.0056386
0.00398822
0.000552503
0.000543018
0.00672453
0.00350421
0.00672909
0.000928371
0.000627735
0.000642237
0.00589763
0.00201044
0.00672082
0.00050655
0.000142983
0.00672758
0.00887935
0.00672788
0.00090674
0.00132453
0.00214336
0.000574444
0.000965005
0.00427779
0.000379171
0.000407419
0.000680092
0.000265755
0.00672785
0.00566742
0.00354856
0.00672119
0.00082252
0.000667041
0.000353352
0.00021249
0.00672131
0.00136382
0.000430767
0.0114566
0.00672663
0.00672393
0.000471149
0.000734932
0.00672084
0.000336222
0.000338848
0.000487595
0.000372713
0.000483741
0.000525991
0.00672712
4.86807e-05
0.00672205
0.00509139
0.000568763
0.00673142
0.00179866
0.000240171
0.00672332
0.00312405
0.000368676
0.000953332
0.00329439
0.00536199
0.00672459
0.00672296
0.000388791
0.00672525
0.00574601
0.00925152
0.00672622
0.000619648
0.00100801
0.012826
0.000439512
0.00646915
0.00076119
0.000404307
0.00672332
0.00375938
0.00672556
0.000779618
0.00672518
0.000946212
0.000689541
0.00675735
0.00675041
0.000641922
0.000675402
0.0008376
0.000135241
0.00026304
0.0010255
0.00668793
0.000173814
0.00170522
0.000943192
0.000169383
0.00026139
0.00106919
0.00151442
0.00428797
0.000468504
0.00447617
0.0013801
0.00368683
0.00043073
0.000228258
0.00666151
0.00324315
8.09832e-05
0.00672547
0.00206642
0.00672568
0.0067254
0.00212735
0.0034871
0.00308743
0.00672083
0.008135
0.00672345
0.000123303
0.00185543
0.000617213
0.000138691
0.00334579
0.000380156
0.000743509
0.00672559
0.000884815
0.00636561
0.000342414
0.00404119
0.00218244
0.000894367
0.000507448
5.67193e-05
0.000323877
0.000467559
0.00094124
0.000454147
0.000233359
0.00335982
0.00185472
9.18634e-05
0.00033083
0.00376012
0.00674093
0.00655434
0.00251874
6.69931e-05
0.00951907
0.000399379
0.000711434
0.000715263
0.000690162
0.00072571
0.0131078
0.000541168
0.00672268
0.000234283
0.000288776
0.00119822
0.0067295
0.00672312
0.0153109
0.00672604
0.000511128
0.00485579
0.000578453
0.00456989
0.000231413
0.000790945
0.000494594
0.00671913
0.00502382
0.00672453
0.000528866
0.00221031
0.00318203
0.000744451
0.00580969
0.00533518
0.00672517
0.000217173
0.003925
0.00230783
0.00279895
0.0136504
0.00566312
0.000779537
0.00672325
0.00482426
0.00400071
0.000383802
9.88878e-05
0.000443494
0.00420126
0.00672466
0.00193419
0.00672255
0.000970677
0.0067573
0.00150588
0.00672501
0.00111611
0.00672539
0.00104164
0.00675173
0.000196708
0.00025466
0.00674947
0.000223934
0.0119541
0.000686851
0.000746581
0.000749247
0.000233308
0.000940145
0.000653483
0.000308209
0.000495727
0.00438213
0.00148138
0.00039292
0.00345437
0.00397209
0.00704694
0.000543228
0.000383834
0.000543162
0.000407336
0.00383245
0.00676402
0.00674737
0.000226906
0.0120376
0.000323097
0.000252502
0.00041244
0.00672547
0.0122032
0.00589566
0.00976584
0.0067243
0.00626794
0.00956636
0.000248224
7.76507e-05
0.00804748
0.000923496
0.000591431
0.000244208
0.000570069
0.00390811
0.001394
0.000504471
0.00672457
0.00756679
0.00672501
0.00049141
0.000670458
0.000490806
1.75005e-05
0.000264206
0.00172268
0.00115883
0.00050009
0.000517153
0.012006
0.000336689
0.00171092
0.000567986
0.000342364
0.00014068
0.00672283
0.000388851
0.00011293
0.000239178
0.00413751
0.000291721
0.000814736
0.000239752
0.000351732
0.000925273
0.00104596
0.000139657
0.00732946
0.00238461
0.00135656
0.0101483
0.000493871
0.000976287
0.00113141
0.00672505
0.000162258
0.00165003
0.00425811
0.000256892
0.00154029
0.00672462
8.11666e-05
0.000466592
0.000516752
0.00545404
0.00674334
0.0067265
0.000569042
0.00672466
0.00119633
0.00127225
0.00157178
0.000540602
0.00549175
0.000810321
0.00236274
0.00101296
0.000428995
0.00672583
0.00230637
0.00146396
0.00672254
3.50291e-05
0.000160374
0.000179421
0.00126659
0.000508695
0.000939149
7.45773e-05
0.00085425
0.00146272
0.00672431
0.00368831
0.00197059
0.000714599
0.00144282
0.00521498
0.00672561
0.000163948
0.00555208
0.000547529
0.000906384
0.00014779
0.00672852
0.000468193
0.00444342
0.00948127
0.00672473
0.000215513
2.68205e-05
0.00478408
0.00162306
0.00148123
0.00196865
0.000188251
0.000423415
0.000672312
0.000658493
0.000912413
0.00672466
0.00563064
0.000265718
0.00672509
0.00264415
0.000237562
0.006726
6.46453e-05
0.00556828
0.0118528
0.00188039
0.000457016
0.000457304
0.00915385
0.0026342
0.00672496
0.0100543
0.00674503
0.00647327
0.00672422
0.00014342
0.00550805
0.00435299
0.000443084
0.00407714
0.00124355
0.000272296
0.00490247
0.00672153
0.000744678
0.012184
0.00672501
0.0067243
0.00596318
0.000969819
0.00252674
0.00672858
0.00400663
0.0105368
0.00368669
0.000489038
0.00672581
0.00932172
4.4684e-05
0.00285505
0.00448209
0.0020498
0.000404566
0.00626236
0.00405882
0.00672591
0.00672614
0.0046698
0.00505294
0.000151172
0.000955806
0.00305223
0.00176907
0.000254253
0.000434177
0.000385827
0.00873926
0.0128556
0.00671785
0.00125856
0.00118276
0.00144451
0.00291188
0.00672303
0.00297328
0.000356256
0.000932693
0.00120078
0.00672079
0.000382733
0.000410993
0.00367526
0.00672502
0.000279847
0.00208004
0.000499472
0.00146871
0.00627004
0.000440211
0.000188795
0.00141855
0.00433163
0.000870809
0.000522887
4.71104e-05
0.00463191
0.0111798
0.0067232
0.000736329
7.21381e-05
0.0149864
0.00202398
0.00038623
0.000474083
0.00293518
0.00162478
0.00672564
0.000727686
0.00451501
0.0098874
0.000686234
0.00651478
0.000497869
0.000511345
0.00674688
0.00922393
0.000528607
0.00511413
0.00674669
0.000326587
0.00672503
0.00672633
0.000730365
0.00033056
0.000311196
0.00345525
0.00620341
0.00115609
0.00519302
0.000380249
0.00485921
0.00014761
0.00446762
0.0136901
0.00087633
0.00104556
0.00134893
0.00671893
0.000299406
0.00672674
0.00581084
0.000126893
0.00172796
0.00673137
0.000467449
0.000533755
0.00674705
0.000249748
0.000363531
0.000357477
0.00675366
0.000468182
0.00672466
0.000187736
0.00128014
0.000129032
0.00185442
0.00622639
0.000213829
0.00607671
0.000257351
0.00048601
0.00673336
0.00052881
0.000120248
0.000231786
0.000101276
0.00672511
0.000686037
0.000222948
0.00047655
0.0009812
0.0117348
0.00612217
0.0034305
0.0071116
0.000423256
0.000285988
0.0067255
0.00305842
0.00672403
0.000517137
0.000456849
0.000287316
0.0149585
0.00648778
0.00672258
0.00119006
0.000302644
0.000978049
0.006742
0.0134966
0.00114045
0.00116658
0.00214622
0.00367452
0.000410853
0.00535904
0.000132603
0.000649783
0.000264218
0.00672573
0.00117663
0.000479404
0.000269676
0.00297264
0.00671988
0.00263084
0.0103591
0.00478378
0.00536892
0.000261569
0.000476785
0.00333776
0.00672321
0.00277927
0.00555818
6.2013e-05
0.000381442
0.00181742
0.00143966
0.000367913
0.000185656
0.00038761
0.00177815
0.000689036
0.00672593
0.000134719
0.000263532
0.00530473
0.00155607
0.0133725
0.0094037
0.000937884
0.00892473
0.0109967
0.00935648
0.00102348
0.00595711
0.00320698
0.00892019
0.00479652
0.00277147
0.000619028
0.00471874
0.0052209
0.000764657
0.00919423
0.000539779
0.00672634
0.000676232
0.000438944
0.000462605
0.0071429
0.00241023
0.000787686
0.00671995
0.00646374
0.000777505
0.000468671
0.00130885
0.00055394
0.00241903
0.00672957
0.000469291
0.000433079
0.000862153
0.000953565
0.000985352
0.000717961
0.0010613
0.00600953
0.000317487
0.00102828
0.00952676
0.00111075
0.00672471
2.7216e-05
7.39493e-05
0.003546
0.000424811
0.00276267
0.000816128
0.0006607
0.00038156
0.00671939
0.000240708
0.00104963
0.000837873
0.000207759
0.00672482
0.00144352
0.0062545
0.00265175
0.0130743
0.000477234
0.00112289
0.00672233
0.00534941
0.000702746
0.00674379
0.0124821
0.00556308
0.0067262
0.006729
0.00172555
0.00143701
0.00167079
0.000685514
0.000581772
0.000264127
0.000669083
0.000219734
0.000719571
0.00043831
0.00385338
0.00109879
0.00955285
0.000397753
0.0135295
0.000633332
0.00672002
0.00673162
0.000462246
0.000362597
0.00672246
0.000228373
0.000653208
0.000288556
0.000511979
0.00417933
0.000578593
0.0067262
0.000182284
0.000385918
0.000389134
0.00673056
0.00025876
0.000963657
0.00423913
0.00010602
0.000328738
0.00672646
0.00239949
0.000403628
0.0060929
0.00855978
0.0010517
0.00083545
0.000278803
0.000513281
0.000337917
0.00801204
0.000310166
0.00364391
0.00038184
0.0053792
0.00986827
0.00071906
0.000524918
0.000722189
0.015016
0.00412354
0.00413053
0.0100027
0.000401768
0.0129315
0.00024421
0.00672848
0.000430869
0.000486905
0.000155492
0.000752666
0.000389526
0.000384299
0.000881296
0.00672583
0.00433096
0.000361173
0.00137151
0.000126762
0.0041896
0.00313672
0.000311292
0.00150182
0.00286746
0.00672519
0.000421215
0.000463108
0.00103566
0.000479794
0.00051441
0.000316254
0.00297156
0.000164345
0.000687027
0.000527941
7.87874e-05
0.00180009
0.000131673
0.000144095
0.0057564
0.00060399
0.0087011
0.00492737
0.00317255
0.000368068
0.0058137
0.00457804
0.00130166
7.52084e-05
0.00796547
0.000443943
0.00574846
0.000533147
0.00423889
0.000740215
0.00672283
0.00103672
0.000340529
0.00628739
4.68625e-05
0.00101764
0.00043934
0.000666356
0.00943017
0.00236996
0.00774039
0.00673328
0.00079805
0.0100945
0.0067254
0.00672167
0.00495662
0.00272826
0.00672604
0.000593368
0.00241438
0.000339668
0.00142464
0.00955506
0.00672239
0.00158532
0.00686484
0.00672405
0.000768155
0.00428388
0.0109119
0.00558778
0.00685962
0.00493744
0.00672987
0.000998074
0.000359914
0.000547783
0.00672651
0.00111608
0.00672996
0.00681212
0.00061225
0.000142033
0.000760882
0.00671537
0.000631236
0.000997861
8.59373e-05
0.00231099
0.000407602
0.00146379
0.00672315
0.000770378
0.00030062
0.00674239
0.0133346
0.00513531
0.000759222
0.00263828
0.00746269
0.0015692
0.00603214
0.000407725
0.000426388
0.000235955
0.00439436
0.00840055
0.000332242
0.00141597
0.00145465
0.00100474
0.001216
0.000383139
0.00103202
0.00672483
8.58693e-05
0.000451972
0.00039306
0.00477591
0.000567757
0.000273538
0.000205215
0.000325766
0.00103505
0.00599691
0.000277876
0.00673269
0.000427574
0.000879403
0.00894715
0.00672436
0.000448387
0.00490887
0.00196229
0.000265467
0.00146023
0.000449414
0.00487719
0.000467748
0.000898051
0.00242675
0.00672341
0.00216279
0.00672445
0.00179384
0.000536992
0.0044204
0.000430391
3.08302e-05
0.000117923
0.00126463
0.00259312
5.23998e-05
0.000409128
0.0150542
0.000517279
0.00043686
0.000380061
0.00129888
0.00072973
0.000135825
0.000420869
7.8886e-05
0.00050459
0.000268315
0.00107643
0.00402309
0.000680102
0.00400428
0.000684664
0.00672497
0.000732776
0.000706061
0.000550854
0.00803358
0.00110402
0.000336921
0.00671536
0.00246024
0.00672491
0.0067247
0.00171058
0.00672732
0.000707638
0.00417639
0.000619863
0.000585799
0.00160812
0.00297431
0.000936248
0.00324918
0.000636789
0.000346132
0.00528253
0.000956854
0.000408037
0.00147756
0.00672504
0.000355043
6.91512e-05
0.000353163
0.0112389
0.000716156
0.0134432
0.00105191
0.00672451
0.00672257
0.00493094
0.00444916
0.000901443
8.21029e-05
0.00054225
0.00216702
0.00577764
0.00672415
0.000735506
0.00441666
0.00140958
4.92212e-05
0.00089802
0.00232227
0.0012754
0.000221136
0.000618713
0.00085414
0.000114474
8.5235e-05
0.000324361
0.00133953
0.00196204
0.00141237
0.000984572
0.0040884
0.00803139
0.00329942
0.00105776
0.000608463
0.00111134
0.00192452
0.00672618
0.00132279
0.00672482
0.00141754
0.00357397
0.00598049
0.00631432
0.000422447
0.000756227
0.00112631
0.000540073
0.00279178
0.00372397
0.00037479
0.0131945
0.000321402
0.00297792
0.00184226
9.01403e-05
0.00401936
0.000139702
0.00672595
0.000157065
0.000629884
9.9575e-05
0.0133155
0.000267415
0.0004498
0.00673142
0.0116939
0.00297637
0.00090049
0.00156561
0.000355754
0.00672324
0.000130471
0.00266507
0.000142774
0.000442938
0.000405305
7.71002e-05
0.00424312
0.006782
0.00199827
0.0005048
0.0013881
0.00830599
0.00650988
0.000175625
0.00672543
0.000195613
0.000264511
0.000294856
0.00263545
0.00897688
0.00422584
0.00672091
0.00484479
0.00465448
0.00301912
0.00409813
0.00293634
0.00618202
0.000261302
7.04011e-05
0.00647622
0.00466499
0.00189342
0.00772795
0.00367166
0.00044545
0.00149779
8.18254e-05
0.00336219
0.000469475
0.00641689
0.00166945
0.000522822
0.00144996
0.000205586
0.000779749
0.000699814
0.000149108
0.000440507
0.00383369
0.000166156
0.000619727
0.00167005
0.00140736
0.00537021
0.00658302
0.00672389
0.00168872
0.00258123
0.000623082
0.000546888
0.000955194
5.76666e-05
0.00111776
0.00132722
0.00164928
0.0149357
0.0116276
0.00159209
0.00169802
0.00932258
0.00588629
0.00168121
0.000587045
0.000534972
0.00311099
0.00250104
0.00188805
0.00731686
0.000163646
8.05238e-05
0.000381747
0.00175275
0.00675164
0.000167297
0.00672635
0.00352462
6.5599e-05
9.48013e-05
0.00671693
0.000622707
0.000154205
0.000939026
0.00672637
0.00672201
6.23972e-05
0.00200034
0.00316397
0.00136348
0.0140956
0.00132488
0.000172767
0.00672331
5.14993e-05
7.34839e-05
0.00238581
0.000566588
0.00672679
0.00726961
0.00346758
0.000344694
0.00202708
0.000344885
0.000374062
0.00672456
0.00114446
0.0067473
0.00212086
0.00672564
0.000429197
0.00673708
0.00148166
0.000252647
0.000522301
0.000886302
0.00673141
0.0152745
0.000288482
0.0030835
0.00573719
0.000249165
0.000379106
0.00485323
0.000447744
0.000896701
0.00183914
5.93362e-05
0.000222689
0.00246116
0.0114302
0.00672913
0.00370202
0.000148846
0.00291752
0.00671739
0.000607704
0.0156685
0.00672612
0.00411888
0.000586162
0.00533404
0.0067223
0.00297385
0.000265712
4.88751e-05
0.00163872
0.000299937
0.00634933
0.00281914
0.00514548
0.00191809
0.00740637
0.00126686
0.00443798
0.00161539
0.00672442
0.000290538