/*--------------------------------*- C++ -*----------------------------------*\
| =========                 |                                                 |
| \\      /  F ield         | OpenFOAM: The Open Source CFD Toolbox           |
|  \\    /   O peration     | Version:  v2012                                 |
|   \\  /    A nd           | Website:  www.openfoam.com                      |
|    \\/     M anipulation  |                                                 |
\*---------------------------------------------------------------------------*/
FoamFile
{
    version     2.0;
    format      ascii;
    class       volVectorField;
    location    "50";
    object      U_0;
}
// * * * * * * * * * * * * * * * * * * * * * * * * * * * * * * * * * * * * * //

dimensions      [0 1 -1 0 0 0 0];


internalField   nonuniform List<vector> 
13851
(
(1.07778 0.157785 0)
(1.07699 0.00199286 0)
(1.07462 0.0024467 0)
(-0.226276 -0.0334358 -2.26654e-19)
(1.00238 -0.000504944 2.07926e-21)
(1.09548 -0.00946003 -4.45565e-20)
(1.03915 0.0336836 -1.83533e-20)
(1.013 -0.000576527 5.39222e-23)
(0.638074 0.0926542 0)
(0.992558 -0.0139503 0)
(1.23088 -0.0616154 -4.30819e-20)
(1.00233 -0.0102258 3.74861e-22)
(0.984561 -0.0278356 -6.13799e-21)
(0.324569 0.0418856 0)
(1.08694 0.0646867 0)
(1.01704 0.0979384 -5.39021e-21)
(-0.480834 -0.0365662 0)
(1.03772 -0.0106442 2.12528e-20)
(1.21472 0.238367 5.322e-20)
(1.08215 0.157077 0)
(1.1065 0.0676805 -2.92434e-20)
(1.06369 -0.0887052 1.74463e-20)
(0.361046 -0.199636 5.94615e-20)
(1.0001 -0.000272059 0)
(1.12673 0.0866773 -2.19504e-20)
(1.03387 0.0885385 0)
(1.00625 0.129389 1.4031e-20)
(1.10578 0.274863 -8.16612e-20)
(0.794318 0.0814695 -1.09163e-20)
(1.02174 -0.00878508 0)
(-0.155328 -0.0470535 0)
(1.03998 0.0331803 3.58461e-20)
(1.06556 0.148881 7.03025e-21)
(0.728259 0.189315 -1.46604e-20)
(1.17905 -0.0493862 3.13483e-20)
(0.827303 0.0817467 -1.83295e-21)
(1.00006 -0.0002457 1.0685e-24)
(0.989832 -0.0955736 -1.56077e-19)
(-0.134112 -0.00402111 1.8583e-19)
(1.01449 -0.0404768 -9.32271e-22)
(0.376939 0.168291 -1.54395e-20)
(0.839659 0.0863648 3.57772e-21)
(-0.299624 -0.0211481 0)
(1.17125 -0.535783 -6.88027e-20)
(0.864464 0.0934041 -1.12825e-22)
(1.0189 -0.0217003 0)
(1.01547 0.000603792 9.53541e-21)
(1.0227 0.108172 -1.59119e-22)
(1.06173 -0.0473528 -1.68574e-20)
(0.98397 -0.0269552 1.36487e-21)
(-0.504438 -0.0143022 -1.34993e-20)
(0.976197 -0.0225546 -7.54009e-21)
(1.01789 0.0985911 -9.80694e-21)
(1.04696 0.056652 3.81459e-20)
(0.429863 0.0397607 4.23663e-21)
(1.01349 -0.0409606 1.54893e-22)
(1.06612 0.152374 0)
(0.310257 0.151752 3.75339e-21)
(1.00469 0.112052 0)
(0.0472286 0.0350719 4.29182e-20)
(1.00214 -0.00970332 1.51188e-21)
(1.00823 0.129756 -2.71524e-20)
(0.995917 -0.00742264 7.33899e-21)
(1.06302 -0.0496896 2.42263e-20)
(0.919204 -0.505772 0)
(0.899531 -0.528407 0)
(0.0184852 0.0237073 -4.49652e-20)
(0.704881 -0.16785 -1.87961e-20)
(1.02926 -0.0375552 6.9277e-21)
(-0.202552 -0.0367697 -1.40222e-19)
(-0.24969 -0.0423321 -1.04969e-19)
(1.11553 0.0819317 -1.22667e-19)
(0.99884 -0.0316837 0)
(0.0528199 0.0297472 0)
(1.05604 0.0597976 -1.99729e-20)
(1.03871 -0.0743236 0)
(-0.445874 -0.0424459 0)
(1.02035 -0.00289317 -2.85807e-21)
(1.22601 0.100921 -2.55153e-20)
(1.00812 -0.0196188 -2.86165e-22)
(1.03077 -0.0377353 2.50842e-22)
(1.40803 -0.0254818 0)
(1.17471 -0.0529162 -5.04282e-20)
(0.300291 0.044363 -8.2308e-21)
(0.0786335 0.0385989 0)
(-0.186255 -0.0452721 0)
(1.0679 -0.0891785 -3.96569e-20)
(0.561724 0.038726 -4.88933e-21)
(0.993929 -0.0178629 -9.86054e-21)
(-0.15034 -0.0447516 -1.22338e-19)
(0.974747 -0.0220595 1.44071e-20)
(1.0413 0.0339805 -1.33696e-20)
(-0.437344 -0.0268997 -1.21103e-19)
(-0.221392 -0.0437549 2.30195e-19)
(-0.203786 0.0291828 1.23252e-19)
(1.15409 -0.491897 6.07538e-20)
(1.01442 -0.0247706 3.52325e-21)
(1.01912 0.103464 0)
(-0.336983 0.00545544 0)
(1.32074 -0.192376 -1.12151e-19)
(1.01846 0.105016 0)
(0.823432 -0.150984 6.24454e-20)
(0.827024 -0.185536 1.49377e-20)
(0.995097 -0.0344753 -1.60434e-21)
(1.02236 -0.0202152 -1.2215e-20)
(1.13744 0.0653713 -3.41477e-20)
(1.02157 -0.0202244 3.56305e-21)
(-0.224271 -0.044515 1.27502e-19)
(1.04212 0.0332576 1.33094e-20)
(1.03662 -0.0104782 -1.60936e-20)
(1.05848 -0.135919 -1.9041e-20)
(1.01978 -0.0218321 0)
(1.29539 0.1117 -1.3546e-19)
(1.21146 0.0257721 0)
(1.04601 0.135567 -1.37395e-20)
(1.04741 0.054944 -3.11144e-20)
(1.01522 -0.00664656 -9.20937e-23)
(1.01355 -0.000633511 0)
(-0.242678 -0.0311011 1.83936e-19)
(-0.164339 -0.0399741 1.72724e-19)
(1.18759 -0.404019 -2.26344e-20)
(1.0302 -0.00963694 0)
(1.02441 -0.0397424 6.26402e-21)
(0.250508 0.0898777 2.21472e-20)
(1.14594 0.220622 7.04579e-20)
(0.629642 -0.258563 4.64588e-20)
(1.01482 -0.0242874 8.38426e-23)
(1.19438 -0.141134 7.68788e-20)
(0.471952 0.157681 0)
(1.09388 0.0821234 0)
(1.06029 -0.0917513 -8.30588e-21)
(1.12852 -0.0361564 0)
(1.17948 -0.119074 1.3767e-19)
(0.710266 0.18233 1.52687e-20)
(1.23699 -0.0558555 4.93437e-20)
(-0.224011 0.0162645 0)
(0.717203 -0.158969 1.7352e-20)
(-0.20527 -0.0444883 -9.74615e-20)
(0.859375 -0.117574 0)
(1.08569 0.0813704 0)
(1.4 -0.0321657 2.22516e-21)
(0.983491 -0.0539782 0)
(0.993243 -0.0181607 1.18582e-20)
(0.769106 -0.361398 -1.4774e-20)
(1.1981 0.191883 -7.53239e-21)
(1.02348 -0.0757753 2.89665e-21)
(1.01998 -0.00260387 0)
(-0.20906 -0.0440319 5.76414e-23)
(0.62098 0.0659642 -3.12973e-21)
(1.20188 -0.143254 0)
(1.01925 0.106125 0)
(1.29455 0.103742 1.17629e-19)
(1.21758 0.0294164 0)
(1.19374 0.217154 9.216e-20)
(0.976841 -0.0324717 -7.77161e-21)
(0.985426 -0.0167934 -4.30621e-21)
(1.00204 -0.00801288 0)
(-0.182287 -0.0122039 -2.73731e-19)
(1.08652 0.0756224 2.54492e-20)
(1.05053 0.0250012 1.81487e-20)
(1.00018 -0.000621732 5.50577e-22)
(0.806591 0.0808866 0)
(1.13285 0.0646612 -1.07413e-20)
(1.02377 0.109234 -1.98479e-20)
(0.332706 0.0421333 0)
(0.765358 0.103193 0)
(0.78017 0.10634 3.96573e-21)
(-0.479893 -0.0101266 0)
(1.05827 -0.130219 5.54311e-21)
(0.939766 0.298901 -7.9574e-20)
(1.00172 -0.00906151 1.21337e-21)
(1.01505 -0.00627852 -4.71732e-21)
(1.16218 0.0727781 0)
(1.00128 -0.000482158 1.72253e-21)
(-0.15946 0.0415852 -2.11629e-19)
(1.01831 0.162252 -1.16934e-20)
(1.02139 0.116957 0)
(1.01554 -0.00608558 -1.10669e-20)
(1.05284 0.0598227 -2.04722e-21)
(1.02211 0.115098 0)
(1.1409 0.215931 -6.24732e-20)
(1.17923 -0.514709 -4.93084e-20)
(1.06319 -0.120965 -3.13867e-20)
(1.09133 0.0802479 0)
(-0.354407 -0.025659 0)
(0.632045 0.0671426 6.82207e-21)
(1.06163 0.147863 -3.22498e-20)
(0.898886 -0.0895095 0)
(0.981426 -0.0324614 0)
(1.02155 -0.0138792 5.69019e-24)
(1.30386 0.201269 7.53778e-21)
(1.08892 0.0748546 -1.85444e-20)
(0.295814 0.02981 -5.83896e-22)
(1.0962 -0.00625167 -2.42524e-20)
(1.02487 -0.0731361 0)
(1.01843 0.100936 2.39579e-21)
(1.06117 0.144924 2.9079e-20)
(1.04338 0.00264667 2.21586e-20)
(1.04665 -0.0170284 -1.34972e-20)
(0.723107 -0.203991 5.49138e-20)
(1.39945 -0.0536438 0)
(-0.0616297 0.0886641 0)
(0.260524 0.15282 5.35612e-20)
(1.08409 0.0643589 -5.97321e-21)
(1.0025 -0.801747 0)
(-0.111642 0.0787499 0)
(0.941588 -0.0367155 0)
(1.07012 0.0816478 -3.21636e-20)
(0.629263 0.0995 -8.20694e-21)
(1.09249 -0.0214726 2.0063e-21)
(1.01666 0.0959139 5.00141e-21)
(1.02347 -0.0390445 -5.20981e-21)
(1.40772 -0.0465675 1.11355e-20)
(1.00021 -0.00292396 0)
(1.18186 -0.0374689 0)
(1.04463 -0.0817682 0)
(0.985092 -0.0255967 1.43568e-20)
(1.07653 0.19 -3.71535e-21)
(1.047 -0.00653178 1.39728e-20)
(0.185788 -0.632467 1.28245e-19)
(1.01546 -0.00569201 9.96563e-21)
(1.09038 0.160655 0)
(0.269673 0.0345717 9.55517e-21)
(-0.197492 0.024429 1.58262e-19)
(0.912497 -0.0978166 2.56711e-20)
(1.06827 0.0822947 3.33605e-20)
(1.00005 -0.00151496 -1.35308e-21)
(0.770934 -0.338318 4.436e-20)
(1.00371 -0.0158545 -7.29202e-22)
(1.1774 -0.040765 -2.53266e-20)
(-0.0877048 -0.048437 1.6514e-19)
(0.904923 -0.089694 2.32411e-20)
(1.09127 -0.0190216 6.20875e-21)
(0.996428 -0.00506692 6.04635e-21)
(0.239872 0.146658 -5.94106e-20)
(1.0223 -0.00834895 0)
(0.779819 -0.396846 4.6957e-20)
(0.213489 0.144272 -3.42546e-20)
(1.30977 -0.185716 -9.28235e-20)
(1.00013 -0.000598551 -5.57074e-22)
(1.44272 -0.365314 6.09937e-20)
(0.107291 0.0420344 -2.2744e-20)
(0.895989 0.0965956 -1.56747e-21)
(1.01738 0.09649 7.45921e-21)
(1.10974 0.0362942 0)
(0.732432 -0.397408 0)
(1.07999 0.185442 3.22148e-20)
(1.05135 0.0605624 4.28333e-21)
(1.15688 -0.471149 5.20598e-21)
(1.08174 -0.134414 3.78257e-20)
(0.488937 0.035892 -7.06771e-21)
(1.15159 0.169622 -1.07049e-19)
(1.01059 -0.000689934 -5.10842e-21)
(1.08273 0.0188163 0)
(1.01801 0.102493 0)
(0.791965 0.0787629 -3.81771e-21)
(0.637364 0.0452435 2.9377e-21)
(1.02094 -0.0132786 -1.29548e-20)
(0.604432 -0.255401 0)
(0.994907 -0.0184733 8.01807e-23)
(1.04899 0.161219 4.66575e-21)
(1.16166 0.218261 3.57582e-20)
(1.0844 0.0204576 2.20386e-20)
(1.13052 0.0694669 -9.53947e-20)
(1.15757 0.173181 1.09442e-19)
(1.00421 -0.0283668 3.16313e-21)
(0.81959 -0.161792 -7.33785e-20)
(1.02915 0.108957 0)
(1.07291 0.248493 0)
(0.998918 -0.0120923 0)
(0.984756 -0.0246665 -2.07545e-20)
(0.906623 -0.0970041 -5.97095e-20)
(0.770536 0.132573 1.0052e-21)
(-0.297928 -0.0253097 3.63441e-20)
(1.10594 0.0770113 -1.10775e-20)
(1.03134 -0.00980097 0)
(1.13222 0.217579 -3.02026e-22)
(1.1772 0.218318 -8.45782e-20)
(1.0558 0.134854 -5.24543e-20)
(1.1267 0.068911 8.35831e-20)
(0.726831 0.126885 0)
(-0.229447 0.0136201 5.44782e-20)
(1.0933 0.0129599 0)
(1.08274 0.0569037 3.94162e-20)
(0.908518 -0.12186 -9.12307e-21)
(1.02406 -0.0186178 0)
(1.00213 -0.00752085 -2.52431e-22)
(1.05665 0.137926 3.45038e-20)
(1.21197 -0.0883273 -4.15731e-20)
(1.02353 -0.00805936 -1.08956e-21)
(1.00023 -0.0028391 0)
(1.00357 -0.0163516 0)
(1.00477 -0.000670667 -9.69409e-23)
(1.09914 0.0452521 -7.43379e-20)
(1.00225 -0.00804681 0)
(0.65587 0.0985044 -4.86798e-21)
(1.10733 0.070818 -7.54158e-20)
(1.0182 -0.0328532 -3.57306e-21)
(0.797459 0.0770126 -1.79629e-22)
(0.235478 0.0820895 -1.1291e-20)
(0.978354 -0.0275992 -2.03052e-20)
(1.08531 0.162066 0)
(-0.43307 -0.00504285 -1.16708e-20)
(0.982695 -0.0565764 0)
(0.976823 -0.0272388 7.55966e-21)
(1.11041 0.0731477 8.91944e-20)
(0.238817 0.038496 -2.99906e-21)
(0.11266 -0.0424191 1.58142e-19)
(1.15215 0.0936795 1.70221e-20)
(1.00263 -0.00065687 -2.14892e-21)
(0.981374 0.305696 1.37084e-19)
(1.00191 -0.0095868 -1.07441e-21)
(1.16148 0.0989254 0)
(-0.409175 0.00151576 0)
(1.06321 0.239976 -1.40306e-20)
(1.04966 0.0240322 2.63774e-20)
(1.0469 -0.154024 0)
(1.41285 -0.159845 1.11834e-19)
(-0.20078 -0.0452372 -1.24551e-20)
(1.30273 0.0875122 1.02216e-19)
(0.790956 -0.131592 1.63921e-21)
(-0.156216 0.0227301 0)
(0.316017 0.115061 0)
(1.11295 0.275623 1.03454e-19)
(1.04831 -0.017325 -1.50169e-20)
(-0.367255 -0.0374839 0)
(0.345971 0.0205178 0)
(0.486727 -0.526304 -2.05959e-20)
(0.521307 -0.530248 4.95172e-21)
(0.940416 -0.0380277 -9.75349e-21)
(1.16374 0.0836443 1.15862e-19)
(0.967288 -0.135389 0)
(0.571789 0.0413218 -5.41507e-21)
(0.800773 -0.180721 -3.5661e-20)
(1.00865 -0.00179546 0)
(1.0157 0.000647514 -1.2228e-20)
(1.09752 -0.0672451 1.79635e-20)
(-0.231771 -0.0478121 5.47078e-20)
(0.238514 -0.636025 -1.2027e-19)
(1.02387 -0.0177397 2.05017e-21)
(-0.222479 0.0232783 -1.66547e-19)
(0.955189 -0.134294 0)
(1.13083 -0.0396877 -1.63146e-20)
(1.05008 0.0261632 1.9456e-20)
(0.230611 0.0323131 7.66219e-22)
(1.12779 0.213075 -8.3732e-21)
(1.01741 0.100127 9.34884e-21)
(1.0415 -0.0799983 1.65286e-20)
(1.08788 -0.0193073 -1.98392e-20)
(0.863702 0.0776558 0)
(0.981589 -0.0340636 1.62843e-21)
(1.18585 0.22279 -2.94522e-21)
(1.09063 0.013663 -4.05573e-21)
(1.11369 0.0722892 5.72028e-20)
(0.949405 -0.137164 -7.09657e-21)
(0.994286 -0.0186273 0)
(1.01891 -0.0320839 0)
(1.33676 -0.0243981 0)
(1.33244 -0.186704 0)
(1.14022 0.170474 0)
(1.29248 -0.144169 0)
(0.875836 0.0791622 0)
(1.0253 -0.0770063 0)
(0.187489 0.137677 4.1363e-20)
(1.04664 0.173138 -1.94216e-20)
(1.0262 -0.00264296 0)
(1.05755 0.239219 0)
(1.09982 0.134388 0)
(-0.321256 0.0129327 6.56507e-20)
(1.09427 -0.0649836 -1.50986e-20)
(1.02771 0.0863113 0)
(1.00558 0.112192 -1.27198e-20)
(1.12379 -0.0303292 1.05958e-19)
(1.33096 -0.0434041 0)
(0.559329 0.0405882 8.30375e-21)
(1.05593 -0.0276501 6.77559e-21)
(1.01776 0.166088 0)
(-0.425925 -0.0303935 -1.43476e-19)
(1.11178 0.0177925 -5.47167e-20)
(0.513757 0.0413559 8.13862e-21)
(1.12189 0.0195722 5.84567e-20)
(0.245847 0.152992 0)
(1.08283 0.0549931 -2.40973e-20)
(1.03784 0.0690923 2.42872e-20)
(1.17022 0.166523 0)
(1.36713 -0.154169 -9.34501e-20)
(0.985741 -0.0176611 0)
(1.09305 0.00497838 3.85108e-21)
(1.21873 -0.0914498 1.07212e-19)
(1.05448 0.0607599 0)
(1.01774 -0.0243876 -7.50764e-21)
(1.10359 0.079584 -5.60407e-21)
(0.967333 0.230153 -5.65858e-21)
(0.999602 -0.0314705 2.67028e-21)
(1.07308 0.0823014 0)
(-0.248568 -0.0303053 -6.98749e-20)
(1.07887 -0.0195608 -9.77949e-21)
(1.30436 -0.52157 0)
(1.04794 0.0768327 0)
(0.163936 -0.0393884 -2.46255e-19)
(1.09619 -0.0222948 3.12709e-20)
(1.03493 0.0873646 1.33351e-20)
(0.970686 -0.7738 0)
(1.15542 0.221297 1.83698e-20)
(1.1425 0.0575156 -1.10407e-19)
(0.616343 0.0412242 5.74502e-21)
(0.0780073 0.0318571 2.95137e-20)
(1.40234 -0.364512 0)
(1.00343 -0.0286005 0)
(1.32998 -0.0191097 -4.03973e-22)
(1.12805 0.0116162 0)
(1.02908 0.0867127 -4.25387e-22)
(1.02951 -0.011957 -9.31042e-21)
(-0.32204 -0.0214261 3.10751e-19)
(0.925965 0.247062 -4.96855e-20)
(1.11988 0.0179915 2.67517e-19)
(1.08649 -0.0171535 3.7176e-20)
(1.166 0.170544 0)
(1.01036 0.138844 0)
(-0.283302 -0.0275191 0)
(1.02097 0.000702788 0)
(-0.413671 -0.032754 7.73029e-20)
(1.38358 -0.134166 0)
(0.17906 -0.129749 -6.97859e-20)
(1.08754 -0.136903 -2.32794e-20)
(1.24401 0.317437 -1.63702e-20)
(0.990682 -0.023831 0)
(1.00149 -0.000413156 0)
(0.418686 0.0355087 -6.77034e-21)
(1.0119 0.144078 0)
(0.991969 -0.0146432 0)
(1.07757 0.000194004 0)
(1.07486 0.083407 1.747e-20)
(1.0138 -0.00761854 1.73012e-23)
(0.979345 0.254387 -1.58999e-20)
(1.16106 0.0880814 -3.75804e-20)
(1.1032 0.132923 0)
(1.06629 0.0320088 -3.76066e-20)
(1.05619 -0.0261129 -1.27166e-20)
(0.97371 -0.0168376 -1.4914e-20)
(1.20165 -0.0425358 -3.08017e-19)
(1.01683 -0.0323289 -3.63973e-21)
(0.974551 -0.0156411 -3.00732e-21)
(0.989464 0.100883 0)
(0.98642 0.233975 5.8962e-21)
(1.05613 -0.089773 8.94213e-21)
(1.00805 0.114194 -1.32061e-20)
(0.996035 -0.00678063 1.41767e-22)
(1.00232 -0.00755231 2.41e-22)
(1.08186 -0.0196238 0)
(1.1449 0.174155 0)
(1.04359 0.0751628 3.05676e-20)
(1.018 -0.0259832 -8.7951e-22)
(1.06306 -0.0138978 0)
(1.18886 -0.391212 4.7219e-20)
(1.06476 0.00438384 -1.30375e-20)
(0.184098 -0.0426199 -1.04761e-19)
(1.00241 -0.00946752 -1.56549e-21)
(1.0568 0.0448303 0)
(0.873141 0.0950221 -3.20886e-21)
(0.963906 -0.183748 0)
(1.01612 7.07645e-05 -2.14971e-21)
(1.00119 -0.00865793 -1.63218e-21)
(1.06677 0.0306933 2.4588e-20)
(1.04543 0.005127 0)
(1.36915 -0.424498 -2.1135e-19)
(1.00048 0.100279 -7.31851e-21)
(1.10967 0.0389874 6.91018e-21)
(0.37103 -1.23878 3.48445e-20)
(1.08317 -0.0171399 1.0243e-20)
(1.00176 -0.0134341 0)
(0.564883 0.14681 7.98144e-21)
(1.00617 0.114048 1.30409e-20)
(0.893961 -0.150539 6.68848e-20)
(1.00164 -0.0350346 0)
(0.299909 0.105665 -2.96472e-21)
(0.869714 -0.122289 -1.87278e-20)
(1.19937 -0.683527 1.72582e-19)
(0.994228 -0.0337319 0)
(1.12991 -0.0280152 0)
(1.33777 -0.0375575 0)
(1.06303 0.0640546 -4.8801e-21)
(0.376791 0.132046 -1.12441e-20)
(1.00875 0.137251 0)
(1.19696 0.0107248 -2.39827e-19)
(0.990214 -0.080743 8.39081e-21)
(1.30377 0.0962873 -1.18536e-19)
(1.00565 -0.0293225 0)
(0.778609 0.079566 1.584e-20)
(1.04945 0.0766311 8.2667e-21)
(1.05832 0.143757 -2.18384e-20)
(1.1247 0.0133152 -1.32659e-20)
(1.04138 -0.0762953 8.74172e-21)
(0.97082 -0.179982 8.51187e-21)
(1.16011 0.0783472 1.65367e-20)
(1.00213 -0.000610701 2.20388e-21)
(-0.333259 -0.0273793 0)
(0.509651 0.13688 -1.55639e-20)
(0.213531 -0.0424168 -8.67138e-20)
(-0.194729 -0.0158969 0)
(0.998199 0.100843 0)
(-0.444833 -0.0349111 0)
(1.1701 0.223072 4.86523e-20)
(0.924763 -0.100134 -1.99866e-20)
(0.999869 -0.00465557 0)
(1.1892 -0.485557 6.23828e-20)
(0.992439 -0.0132428 0)
(1.01724 -0.0237872 8.5031e-21)
(0.92073 -0.118536 -2.25942e-20)
(-0.119758 0.0560159 2.02685e-19)
(1.07028 0.00864918 0)
(0.978001 -0.0499263 -1.38126e-20)
(1.13707 -0.310764 -4.97683e-20)
(1.16841 0.0293771 -7.01894e-20)
(0.989744 -0.00920166 0)
(0.645326 0.0770699 3.68881e-20)
(1.01288 -0.0241269 2.71064e-21)
(0.562462 0.166893 1.02338e-20)
(1.35994 -0.406648 2.74546e-19)
(1.00869 -0.0201019 -4.22939e-22)
(1.05944 0.015399 0)
(1.39196 -0.0939267 -8.31364e-20)
(1.06559 0.247376 1.29923e-20)
(1.02309 -0.0085805 8.36659e-21)
(0.771978 -0.0598149 2.17593e-19)
(0.93151 -0.361882 0)
(1.0266 0.00411597 0)
(-0.187462 -0.0414632 1.98005e-19)
(1.206 0.233169 0)
(1.09896 0.163427 -5.09193e-20)
(0.988283 -0.0791419 -1.49026e-20)
(0.989373 0.10215 0)
(-0.0969758 0.0313617 1.59297e-21)
(1.02732 0.00417569 7.76889e-21)
(1.33306 0.159328 -1.62028e-19)
(1.02676 -0.038666 -5.044e-21)
(1.01352 -0.0245842 -1.43546e-21)
(0.994041 0.0920821 0)
(0.249826 0.151935 0)
(1.14354 0.0206092 -8.79386e-21)
(1.04274 0.0740391 -2.30833e-20)
(0.991616 -0.0121403 5.79864e-21)
(1.04544 0.08811 -2.29712e-21)
(0.530917 0.166842 -1.58881e-21)
(-0.190851 0.000944664 9.55393e-20)
(1.03181 0.00260116 -1.82136e-20)
(-0.477513 -0.0353759 0)
(1.01744 -0.0254647 4.00284e-22)
(1.02829 -0.0390364 -3.50655e-21)
(1.14186 0.0610867 1.06508e-19)
(1.04949 0.0466146 -2.80558e-20)
(1.02095 0.0010528 4.06812e-21)
(1.03548 -0.0751219 4.47343e-21)
(-0.173977 -0.0408756 -3.10116e-19)
(1.36068 -0.149802 -1.44901e-19)
(-0.210005 -0.0412458 -1.64821e-19)
(1.0683 0.00697171 0)
(0.995266 -0.0191258 0)
(0.799242 0.127958 8.4254e-21)
(0.999802 -0.00616761 -9.58625e-21)
(1.3303 -0.000611819 0)
(1.06534 0.0416623 0)
(1.05951 0.0596235 -3.67992e-20)
(1.11408 0.0311978 2.52328e-20)
(0.964374 0.102345 0)
(-0.215966 0.0214055 -4.88331e-20)
(1.09299 -0.00132369 -3.12115e-20)
(-0.396451 -0.032852 -1.33132e-19)
(1.04999 0.021109 0)
(1.1858 0.0672012 0)
(0.852032 0.0890209 -3.48339e-21)
(0.463199 0.0492002 -2.55778e-22)
(1.0204 -0.0412272 4.23423e-21)
(1.00486 -0.0294659 0)
(0.835427 -0.19451 0)
(-0.202991 -0.0395529 2.39959e-19)
(1.00923 0.102631 2.49799e-20)
(1.04473 0.0866503 -7.29247e-21)
(1.03499 -0.567561 1.15697e-20)
(1.04853 0.0472605 3.02465e-20)
(1.08014 0.0540352 0)
(-0.0293274 -0.0537076 -2.23126e-19)
(0.571606 0.0512196 1.51957e-19)
(1.15629 -0.379959 0)
(0.537821 0.159995 -6.14337e-22)
(1.02967 0.139578 -7.9072e-21)
(0.890146 0.0850188 -8.35189e-21)
(1.05117 -0.0279745 -2.83084e-20)
(1.00447 0.110814 -8.83802e-22)
(1.2421 0.30251 1.69248e-20)
(1.00112 -0.0119583 -2.98141e-22)
(-0.620898 -0.0329781 1.74832e-20)
(0.481071 0.156512 -1.35429e-19)
(1.06391 -0.127195 2.04008e-20)
(1.08859 0.0824205 -4.03591e-21)
(1.00948 -0.0389085 2.59347e-22)
(0.50509 -0.933776 -4.78619e-21)
(1.21938 -0.186677 0)
(0.383821 -0.142063 -4.82851e-20)
(1.01627 -0.0330841 -1.35847e-21)
(1.00091 -0.000577652 -3.84852e-22)
(0.918158 -0.067033 0)
(1.16816 0.0243315 9.16201e-20)
(1.00242 -0.00908278 4.51421e-22)
(-0.165888 0.0466834 -1.97243e-19)
(1.00106 -0.000680157 0)
(1.0325 0.140547 1.93956e-21)
(0.982626 -0.078566 9.21084e-21)
(1.02923 0.0879666 0)
(0.99603 -0.0338067 -6.5974e-21)
(0.989061 -0.00943275 0)
(1.14685 -0.159988 0)
(-0.478128 -0.0380805 0)
(1.14872 0.0512558 0)
(-0.245312 0.0163972 1.21839e-20)
(1.13158 -0.0318568 -8.02194e-21)
(1.01419 -0.00859706 -9.16022e-21)
(1.0299 -0.00393272 1.46178e-20)
(1.16783 0.0721267 0)
(1.06228 -0.0155463 0)
(1.25273 0.0696299 1.42214e-19)
(1.07613 0.00870407 0)
(0.892969 -0.142377 -3.31574e-20)
(1.0049 0.109127 2.50039e-20)
(0.99966 -0.00600104 6.76421e-21)
(0.639438 0.0375908 0)
(1.00012 -0.00202368 0)
(1.02282 0.0912566 -3.43937e-20)
(-0.376015 -0.0318832 7.42138e-20)
(0.838821 0.100465 -1.6002e-20)
(0.886978 -0.0511266 2.60933e-20)
(0.586444 -0.211841 2.40673e-20)
(1.12329 -0.310537 -3.85196e-20)
(1.32827 -0.256867 6.37725e-20)
(0.45006 0.158149 1.76089e-19)
(1.03448 0.00261861 0)
(0.54123 0.0592175 0)
(0.961761 -0.138737 0)
(1.115 0.0193836 8.96051e-20)
(-0.187332 -0.0189356 0)
(1.4084 0.192484 -1.0133e-22)
(1.02683 -0.00293557 -1.45892e-20)
(1.25068 0.0639015 -1.33881e-19)
(1.04228 0.00313256 -2.27552e-20)
(0.850511 0.0804426 -1.18554e-21)
(-0.537385 -0.0259048 8.48899e-23)
(1.034 -0.0385983 1.72345e-20)
(0.704068 -0.193797 -3.9213e-20)
(0.961489 0.267096 -2.17691e-20)
(1.00002 -0.00188944 3.1951e-21)
(1.00004 -0.00248888 -1.91445e-21)
(1.03253 0.0884144 -9.22573e-21)
(0.615275 0.0340919 0)
(0.99202 0.104131 -1.76565e-21)
(0.976785 -0.0258152 0)
(1.18364 0.16343 -6.02092e-20)
(1.06296 0.0035335 -1.29017e-20)
(0.988123 -0.0107474 3.7732e-21)
(1.00489 0.106494 -2.90204e-20)
(1.17852 0.168374 6.57343e-20)
(1.32381 -0.166312 -4.7787e-20)
(1.01969 0.000609408 -6.56969e-21)
(1.03046 0.110125 0)
(0.934882 -0.239491 6.75661e-21)
(1.03555 0.0843992 1.38444e-20)
(0.961022 -0.0312353 -1.52756e-20)
(1.02287 -0.0706879 0)
(1.20902 -0.187227 7.74164e-22)
(0.922525 -0.067502 1.06532e-20)
(1.0259 0.108579 1.05529e-20)
(1.11154 0.0812215 8.82484e-20)
(1.11843 0.078984 1.24983e-19)
(1.14155 -0.365102 0)
(1.26133 -0.750351 -1.21241e-19)
(1.22339 0.232074 -8.90945e-20)
(0.99172 0.156685 -1.82063e-20)
(0.882503 -0.0557085 -3.40569e-20)
(1.02066 0.106175 0)
(0.358851 0.0594231 -1.26626e-22)
(1.06245 -0.19059 0)
(0.992334 0.0923369 -2.88418e-21)
(1.09366 0.165157 4.70627e-20)
(1.03487 -0.0131229 1.00731e-20)
(1.07979 0.0516683 0)
(1.22077 0.219804 2.56913e-20)
(1.08414 -0.0783065 -7.33681e-21)
(1.00803 -0.0188916 -1.6602e-22)
(1.00834 -0.017734 0)
(1.02404 0.0930498 0)
(0.551274 0.0362958 1.06523e-20)
(1.05844 0.0457381 0)
(0.143742 0.128942 -9.95567e-21)
(1.0141 -0.0089926 4.00014e-21)
(0.989449 0.104755 0)
(1.05567 -0.418283 -2.92055e-21)
(-0.453364 -0.00822885 0)
(1.25419 0.054939 0)
(1.09863 -0.0206916 -4.35162e-20)
(1.07423 0.00468594 0)
(-0.437402 -0.00215025 6.58957e-20)
(1.32688 -0.158416 0)
(1.0619 -0.182516 0)
(1.00991 0.14234 -2.76559e-22)
(1.05421 -0.0244328 1.5991e-21)
(1.23986 -0.447477 5.79988e-20)
(1.02296 0.0925899 -1.22549e-21)
(1.03477 0.144097 1.36804e-20)
(1.12972 -0.00365729 0)
(1.42288 -0.118607 8.79637e-20)
(0.991478 -0.0241094 0)
(1.00014 -0.00238141 0)
(0.944855 -0.0357283 0)
(0.987656 -0.0116526 -5.38593e-21)
(0.833236 0.0880074 -3.6378e-21)
(1.0045 -0.000821897 1.82465e-21)
(1.00533 0.10559 2.42213e-20)
(0.754755 0.125704 -8.59365e-21)
(1.26168 0.0534416 0)
(-0.167785 0.0108327 9.55255e-20)
(-0.311093 0.0116726 4.1199e-20)
(1.03446 0.146176 0)
(1.34035 -0.251689 -1.89359e-19)
(0.890654 -0.0581348 6.99378e-21)
(0.998635 -0.00317267 8.1852e-21)
(0.985862 -0.0236293 5.21269e-21)
(1.01958 -0.00332618 1.35783e-20)
(1.0293 -0.00424446 -9.91671e-21)
(1.00123 -0.000627058 0)
(1.1779 0.0768252 -5.71145e-20)
(1.2777 0.122247 0)
(0.932533 -0.252456 -2.02174e-20)
(1.097 0.265601 1.77913e-21)
(1.03922 -0.0619245 -6.06879e-21)
(0.617592 0.094273 8.74992e-21)
(0.999949 -0.000364962 0)
(-0.193445 -0.0362588 0)
(1.16568 -0.0628616 -1.0879e-19)
(0.999869 -0.000749894 0)
(0.997157 -0.0049258 -6.46599e-21)
(0.822192 0.102362 -1.31373e-21)
(1.0976 -0.0110532 6.97394e-20)
(0.983389 0.123915 -1.58641e-20)
(0.517234 0.170707 -1.73559e-20)
(1.0851 0.0789165 -2.15296e-20)
(1.10946 0.110289 7.24701e-20)
(1.02569 0.00467567 -6.0527e-21)
(0.67376 0.180803 0)
(1.00178 -0.0903987 3.86656e-22)
(1.07216 0.00775903 0)
(1.0046 0.108113 -2.70307e-20)
(0.998717 -0.00362134 -2.0375e-23)
(0.981932 -0.0523723 0)
(1.03458 -0.00290792 1.02124e-20)
(1.05279 0.0775837 2.61512e-20)
(0.522093 0.0368329 -7.98225e-21)
(1.11872 -0.0312002 -2.25707e-20)
(1.12827 0.00397097 -5.75915e-20)
(1.38896 -0.145068 -6.1512e-20)
(-0.236802 -0.00503003 0)
(0.895566 -0.0807006 0)
(1.00864 -0.115392 1.1283e-22)
(0.881157 0.0881753 -8.04492e-21)
(1.01911 -0.00324534 -6.34298e-21)
(0.867522 0.08677 9.48921e-21)
(1.00051 -0.0014969 7.54674e-23)
(1.06446 0.0065836 1.45461e-20)
(1.26112 0.122131 -5.6862e-20)
(1.05208 0.109915 0)
(1.04929 0.136446 0)
(1.27634 -0.0497999 -8.18963e-20)
(1.14777 0.0555299 1.87697e-20)
(0.999577 -0.00281137 -4.70025e-21)
(0.999974 -0.000346923 -2.98971e-21)
(1.1912 0.0712073 1.32873e-19)
(1.05268 -0.0272459 2.00606e-20)
(0.999654 -0.00242738 2.77756e-21)
(1.05366 0.0487756 3.1064e-21)
(1.36804 -0.201408 0)
(1.00563 -0.00594629 -3.51501e-21)
(1.31177 -0.27538 0)
(1.35186 -0.51578 -4.39575e-20)
(0.990978 0.117432 -6.77547e-21)
(1.2729 -0.0427777 7.82152e-20)
(-0.104817 -0.0474863 2.26067e-19)
(0.850193 -0.121706 0)
(0.998513 -0.00359426 2.91743e-21)
(1.32913 -0.062864 -4.81546e-20)
(1.0137 -0.00960796 0)
(1.0927 0.00760931 -4.23394e-21)
(0.990463 0.153279 1.23471e-20)
(0.883944 0.0772495 0)
(0.524147 0.0534269 -2.05482e-19)
(0.922862 0.0933555 0)
(1.03802 -0.0378637 0)
(1.03355 -0.037774 -6.28262e-21)
(1.02364 -0.313117 -1.63841e-20)
(1.01843 -0.0688048 1.12897e-21)
(1.02536 -0.0152584 0)
(0.426363 -0.240579 -1.24129e-19)
(1.04477 0.160365 -2.33694e-21)
(0.499351 0.043728 0)
(1.02188 0.090916 3.82569e-20)
(1.05262 0.111554 0)
(0.986543 -0.0137179 -1.95161e-20)
(1.02172 -0.00928434 0)
(1.26252 -0.316947 3.12376e-21)
(1.10811 0.134339 0)
(1.06658 0.00802822 0)
(0.9998 -0.00146527 2.01501e-20)
(1.04496 0.133281 1.78157e-20)
(1.32977 0.0684828 -3.74199e-21)
(0.161155 0.133465 0)
(0.976686 -0.0304939 0)
(1.00125 -0.00405993 -5.99094e-22)
(0.498296 0.0325742 8.78237e-21)
(0.961808 -0.0296936 7.75005e-22)
(1.11804 0.0255422 5.7422e-20)
(1.01335 -0.00721779 -5.41753e-21)
(-0.0815878 0.0684274 -1.7095e-19)
(1.01008 -0.000405645 0)
(-0.371626 -0.0380671 0)
(0.995756 -0.0108593 3.92691e-21)
(1.29815 -0.19144 9.42603e-20)
(1.10908 0.057647 4.05918e-20)
(0.99726 -0.319343 0)
(1.13118 -0.000243683 0)
(0.998007 -0.0308584 0)
(1.07851 -0.00316862 2.12651e-22)
(1.004 -0.00440798 -1.25551e-21)
(1.00546 0.103183 1.35233e-20)
(0.96642 -0.0383226 1.15545e-20)
(0.66189 0.0487835 -1.82177e-20)
(1.05611 -0.0223606 -1.33556e-20)
(0.996154 0.195745 -3.19623e-20)
(0.641408 0.147255 -5.55921e-21)
(1.12632 -0.0120025 -2.98212e-20)
(1.00455 -0.00307467 2.02983e-21)
(-0.219665 -0.0334462 7.12578e-20)
(1.00053 0.102865 1.42971e-20)
(1.09563 0.00016203 0)
(1.0497 0.107868 -1.05894e-20)
(0.98569 -0.022749 0)
(0.587218 0.0380402 -2.29798e-20)
(1.0359 -0.0133914 1.38789e-22)
(1.22989 0.215336 0)
(1.00066 -0.0132509 0)
(1.00433 -0.00456552 3.3434e-21)
(0.987827 0.124178 -4.09356e-21)
(1.11347 0.0341961 -6.25795e-20)
(1.00133 -0.00923932 0)
(1.04797 0.0577331 -3.33804e-20)
(0.325929 0.147835 -3.08354e-20)
(0.764773 -0.880295 3.64474e-20)
(0.91915 0.264489 3.73586e-20)
(1.02014 -0.0135721 7.88297e-21)
(0.387504 0.0663704 0)
(0.998816 -0.0127313 2.58049e-21)
(1.0054 -0.00563992 3.23921e-21)
(0.978478 -0.0331958 1.51884e-20)
(1.01572 0.000682453 5.56207e-21)
(0.999984 -0.00350184 0)
(0.823719 0.268034 0)
(0.99175 0.172791 -1.08844e-22)
(1.04799 -0.00735867 -9.35804e-21)
(1.0011 -0.000936163 0)
(1.14356 0.0255081 0)
(1.02026 -0.0216208 -2.78771e-21)
(-0.186623 -0.0379924 1.87644e-19)
(1.33597 -0.0561716 1.07895e-19)
(0.333551 0.0497944 1.87794e-22)
(-0.137808 0.0204574 0)
(1.07879 -0.00468813 2.83016e-20)
(1.02706 0.109792 0)
(1.00127 -0.0125705 3.08987e-22)
(1.10886 0.0647448 -6.29846e-22)
(1.04826 -0.398271 6.72118e-21)
(1.03354 0.00291556 0)
(1.00044 -0.00148451 -4.38847e-22)
(1.4364 -0.340191 -1.46857e-19)
(-0.520916 -0.0229057 -6.88364e-20)
(1.10628 0.10815 -5.63597e-20)
(-0.488237 -0.0363243 -1.9034e-19)
(1.07498 0.101678 0)
(0.996274 -0.00758737 -1.16945e-20)
(1.15576 0.0106271 -5.78501e-21)
(1.04742 0.107783 0)
(-0.527028 -0.0366227 0)
(1.09746 0.0422783 -4.75466e-20)
(1.00143 0.12186 -1.54978e-20)
(1.11123 0.136705 1.01206e-20)
(1.00037 -0.00312944 4.11879e-22)
(0.19444 -0.0899641 -6.10389e-20)
(0.116777 -0.0660203 0)
(0.559193 0.044771 -8.94087e-21)
(1.34011 0.191569 1.22991e-19)
(0.995235 0.0903617 1.03043e-21)
(0.993385 -0.0809489 -6.68532e-21)
(0.755636 -0.410973 1.82651e-20)
(0.973644 -0.0140584 4.22003e-21)
(1.03411 0.200124 0)
(1.0819 -0.0747032 3.49901e-20)
(1.00847 -0.00143567 0)
(0.860853 0.262044 0)
(1.03491 -0.0621518 -1.70917e-21)
(1.00445 -0.0028233 -1.71133e-21)
(1.02172 -0.0409295 -4.52471e-21)
(1.03288 -0.0606001 0)
(-0.131306 0.0581997 1.36995e-19)
(1.20333 0.221187 -1.42689e-19)
(1.01447 -0.0140271 -1.98708e-21)
(1.15701 0.0157077 -4.8543e-20)
(0.269864 0.0402485 0)
(1.05266 -0.0508895 8.52855e-21)
(-0.502897 -0.035455 -1.59531e-19)
(0.965703 -0.0560905 7.08526e-21)
(1.06336 0.1129 -3.34507e-21)
(0.15522 0.141546 4.58801e-20)
(1.00211 -0.00841303 0)
(1.00749 0.102419 0)
(1.09811 -0.0900729 2.35246e-20)
(1.13077 -0.0117742 3.13048e-20)
(0.71805 -0.910466 -2.9122e-21)
(1.03739 -0.0606289 0)
(1.39737 -0.00408835 1.97356e-19)
(1.03432 0.0858352 0)
(0.405994 0.16721 7.59552e-20)
(1.04038 0.00962114 0)
(0.616278 0.0452056 0)
(1.11169 0.013807 0)
(0.209155 0.0664898 1.14762e-20)
(-0.558622 -0.031977 -1.86267e-19)
(0.592242 0.0396874 0)
(1.07947 0.0798674 0)
(0.994698 -0.0300962 9.49745e-21)
(1.03772 -0.039333 0)
(0.999993 -0.0018916 0)
(1.03829 0.0675495 -2.27116e-20)
(0.997378 -0.00678399 0)
(0.39584 0.139634 1.31487e-20)
(1.05794 -0.118426 0)
(0.939631 -0.107061 1.54859e-20)
(0.897835 -0.0769342 0)
(0.995337 -0.0791975 3.65016e-21)
(1.01958 -0.013088 0)
(1.04178 0.0440383 -1.30877e-20)
(1.09066 -0.0736455 1.56583e-20)
(1.06002 0.013959 -1.88502e-20)
(1.06977 -0.0929961 0)
(0.390413 0.167437 0)
(1.00583 0.100873 1.36259e-20)
(1.10281 0.0229331 3.92078e-20)
(1.17143 -0.142745 0)
(0.886558 0.26666 0)
(0.979115 -0.0523224 8.05476e-21)
(-0.218103 -0.045034 2.34798e-19)
(1.01866 -0.00350598 1.22175e-20)
(1.06442 -0.146031 0)
(0.964411 -0.037353 0)
(1.0289 -0.0243371 2.43599e-20)
(1.12814 -0.166793 5.41878e-21)
(1.00164 -0.0139547 0)
(1.01465 -0.0135705 4.29348e-21)
(0.799331 -0.142749 0)
(0.984312 -0.0166663 -4.41954e-21)
(1.36476 -0.191494 -2.31114e-21)
(1.06003 -0.0158276 -2.73133e-20)
(-0.616813 -0.0285538 -1.63157e-19)
(1.09795 0.251378 -3.73869e-20)
(1.10843 0.198438 3.40341e-20)
(1.3259 0.149916 1.56844e-19)
(1.04326 -0.00641209 -1.38313e-20)
(-0.21529 0.00346377 -1.01492e-19)