/*--------------------------------*- C++ -*----------------------------------*\
| =========                 |                                                 |
| \\      /  F ield         | OpenFOAM: The Open Source CFD Toolbox           |
|  \\    /   O peration     | Version:  v2012                                 |
|   \\  /    A nd           | Website:  www.openfoam.com                      |
|    \\/     M anipulation  |                                                 |
\*---------------------------------------------------------------------------*/
FoamFile
{
    version     2.0;
    format      ascii;
    class       pointVectorField;
    location    "700";
    object      pointDisplacement;
}
// * * * * * * * * * * * * * * * * * * * * * * * * * * * * * * * * * * * * * //

dimensions      [0 1 0 0 0 0 0];


internalField   nonuniform List<vector> 
14332
(
(0 0 0)
(0.0185632 -0.181959 0)
(0 0 0)
(0.0185632 -0.181959 0)
(0 0 0)
(0 0 0)
(0 0 0)
(0 0 0)
(0 0 0)
(0 0 0)
(0 0 0)
(0 0 0)
(0 0 0)
(0 0 0)
(0 0 0)
(0 0 0)
(0 0 0)
(0 0 0)
(0 0 0)
(0 0 0)
(0 0 0)
(0 0 0)
(0 0 0)
(0 0 0)
(0 0 0)
(0 0 0)
(0 0 0)
(0 0 0)
(0 0 0)
(0 0 0)
(0 0 0)
(0 0 0)
(0 0 0)
(0 0 0)
(0 0 0)
(0 0 0)
(0 0 0)
(0 0 0)
(0 0 0)
(0 0 0)
(0 0 0)
(0 0 0)
(0 0 0)
(0 0 0)
(0 0 0)
(0 0 0)
(0 0 0)
(0 0 0)
(0 0 0)
(0 0 0)
(0 0 0)
(0 0 0)
(0 0 0)
(0 0 0)
(0 0 0)
(0 0 0)
(0 0 0)
(0 0 0)
(0 0 0)
(0 0 0)
(0 0 0)
(0 0 0)
(0 0 0)
(0 0 0)
(0 0 0)
(0 0 0)
(0 0 0)
(0 0 0)
(0 0 0)
(0 0 0)
(0 0 0)
(0 0 0)
(0 0 0)
(0 0 0)
(0 0 0)
(0 0 0)
(0 0 0)
(0 0 0)
(0 0 0)
(0 0 0)
(0 0 0)
(0 0 0)
(0 0 0)
(0 0 0)
(0 0 0)
(0 0 0)
(0 0 0)
(0 0 0)
(0 0 0)
(0 0 0)
(0 0 0)
(0 0 0)
(0 0 0)
(0 0 0)
(0 0 0)
(0 0 0)
(0 0 0)
(0 0 0)
(0 0 0)
(0 0 0)
(0 0 0)
(0 0 0)
(0 0 0)
(0 0 0)
(0 0 0)
(0 0 0)
(0 0 0)
(0 0 0)
(0 0 0)
(0 0 0)
(0 0 0)
(0 0 0)
(0 0 0)
(0 0 0)
(0 0 0)
(0 0 0)
(0 0 0)
(0 0 0)
(0 0 0)
(0 0 0)
(0 0 0)
(0 0 0)
(0 0 0)
(0 0 0)
(0 0 0)
(0 0 0)
(0 0 0)
(0 0 0)
(0 0 0)
(0 0 0)
(0 0 0)
(0 0 0)
(0 0 0)
(0 0 0)
(-0.0222618 -0.181032 0)
(-0.0199937 -0.181084 0)
(-0.0177257 -0.181135 0)
(-0.0154576 -0.181187 0)
(-0.0131896 -0.181238 0)
(-0.0109215 -0.18129 0)
(-0.00865347 -0.181341 0)
(-0.00638542 -0.181393 0)
(-0.00411737 -0.181444 0)
(-0.00184932 -0.181496 0)
(0.000418736 -0.181547 0)
(0.00268679 -0.181599 0)
(0.00495484 -0.18165 0)
(0.00722289 -0.181702 0)
(0.00949095 -0.181753 0)
(0.011759 -0.181804 0)
(0.0140271 -0.181856 0)
(0.0162951 -0.181907 0)
(0.0186146 -0.179691 0)
(0.0186661 -0.177423 0)
(0.0187176 -0.175155 0)
(0.018769 -0.172887 0)
(0.0188205 -0.170619 0)
(0.018872 -0.168351 0)
(0.0189234 -0.166083 0)
(0.0189749 -0.163814 0)
(0.0190264 -0.161546 0)
(0.0190778 -0.159278 0)
(0.0191293 -0.15701 0)
(0.0191808 -0.154742 0)
(0.0192322 -0.152474 0)
(0.0192837 -0.150206 0)
(0.0193352 -0.147938 0)
(0.0193866 -0.14567 0)
(0.0194381 -0.143402 0)
(0.0194896 -0.141134 0)
(0.019541 -0.138866 0)
(0.0195925 -0.136598 0)
(0.019644 -0.13433 0)
(0.0196954 -0.132062 0)
(0.0197469 -0.129794 0)
(0.0197984 -0.127526 0)
(0.0198498 -0.125258 0)
(0.0199013 -0.12299 0)
(0.0199528 -0.120721 0)
(0 0 0)
(0 0 0)
(0 0 0)
(0 0 0)
(0 0 0)
(0 0 0)
(0 0 0)
(0 0 0)
(0 0 0)
(0 0 0)
(0 0 0)
(0 0 0)
(0 0 0)
(0 0 0)
(0 0 0)
(0 0 0)
(0 0 0)
(0 0 0)
(0 0 0)
(0 0 0)
(0 0 0)
(0 0 0)
(0 0 0)
(0 0 0)
(0 0 0)
(0 0 0)
(0 0 0)
(0 0 0)
(0 0 0)
(0 0 0)
(0 0 0)
(0 0 0)
(0 0 0)
(0 0 0)
(0 0 0)
(0 0 0)
(0 0 0)
(0 0 0)
(0 0 0)
(0 0 0)
(0 0 0)
(0 0 0)
(0 0 0)
(0 0 0)
(0 0 0)
(0 0 0)
(0 0 0)
(0 0 0)
(0 0 0)
(0 0 0)
(0 0 0)
(0 0 0)
(0 0 0)
(0 0 0)
(0 0 0)
(0 0 0)
(0 0 0)
(0 0 0)
(0 0 0)
(0 0 0)
(0 0 0)
(0 0 0)
(0 0 0)
(0 0 0)
(0 0 0)
(0 0 0)
(0 0 0)
(0 0 0)
(0 0 0)
(0 0 0)
(0 0 0)
(0 0 0)
(0 0 0)
(0 0 0)
(0 0 0)
(0 0 0)
(0 0 0)
(0 0 0)
(0 0 0)
(0 0 0)
(0 0 0)
(0 0 0)
(0 0 0)
(0 0 0)
(0 0 0)
(0 0 0)
(0 0 0)
(0 0 0)
(0 0 0)
(0 0 0)
(0 0 0)
(0 0 0)
(0 0 0)
(0 0 0)
(0 0 0)
(0 0 0)
(0 0 0)
(0 0 0)
(0 0 0)
(0 0 0)
(0 0 0)
(0 0 0)
(0 0 0)
(0 0 0)
(0 0 0)
(0 0 0)
(0 0 0)
(0 0 0)
(0 0 0)
(0 0 0)
(0 0 0)
(0 0 0)
(0 0 0)
(0 0 0)
(0 0 0)
(0 0 0)
(0 0 0)
(0 0 0)
(0 0 0)
(0 0 0)
(0 0 0)
(0 0 0)
(0 0 0)
(0 0 0)
(0 0 0)
(0 0 0)
(0 0 0)
(0 0 0)
(0 0 0)
(0 0 0)
(-0.0222618 -0.181032 0)
(-0.0199937 -0.181084 0)
(-0.0177257 -0.181135 0)
(-0.0154576 -0.181187 0)
(-0.0131896 -0.181238 0)
(-0.0109215 -0.18129 0)
(-0.00865347 -0.181341 0)
(-0.00638542 -0.181393 0)
(-0.00411737 -0.181444 0)
(-0.00184932 -0.181496 0)
(0.000418736 -0.181547 0)
(0.00268679 -0.181599 0)
(0.00495484 -0.18165 0)
(0.00722289 -0.181702 0)
(0.00949095 -0.181753 0)
(0.011759 -0.181804 0)
(0.0140271 -0.181856 0)
(0.0162951 -0.181907 0)
(0.0186146 -0.179691 0)
(0.0186661 -0.177423 0)
(0.0187176 -0.175155 0)
(0.018769 -0.172887 0)
(0.0188205 -0.170619 0)
(0.018872 -0.168351 0)
(0.0189234 -0.166083 0)
(0.0189749 -0.163814 0)
(0.0190264 -0.161546 0)
(0.0190778 -0.159278 0)
(0.0191293 -0.15701 0)
(0.0191808 -0.154742 0)
(0.0192322 -0.152474 0)
(0.0192837 -0.150206 0)
(0.0193352 -0.147938 0)
(0.0193866 -0.14567 0)
(0.0194381 -0.143402 0)
(0.0194896 -0.141134 0)
(0.019541 -0.138866 0)
(0.0195925 -0.136598 0)
(0.019644 -0.13433 0)
(0.0196954 -0.132062 0)
(0.0197469 -0.129794 0)
(0.0197984 -0.127526 0)
(0.0198498 -0.125258 0)
(0.0199013 -0.12299 0)
(0.0199528 -0.120721 0)
(-0.0028154 -0.181471 0)
(0.000122123 -0.00451902 0)
(0.0190001 -0.162669 0)
(0.019925 -0.121948 0)
(0.0194576 -0.142519 0)
(0.00021745 -0.00496729 0)
(-0.0207357 -0.181063 0)
(5.09979e-05 -0.00374868 0)
(-1.29359e-06 -0.00237347 0)
(-1.79943e-05 -0.00104159 0)
(0.000460405 -0.0068296 0)
(-9.10244e-06 -0.00169428 0)
(1.46782e-05 -0.00275 0)
(0.0127852 -0.181817 0)
(0.000567187 -0.00566156 0)
(-1.79393e-05 -0.00115087 0)
(0.000785895 -0.00489773 0)
(-9.44458e-06 -0.00114126 0)
(0.00105274 -0.00325497 0)
(0.018683 -0.176189 0)
(-1.44115e-05 -0.00100896 0)
(-1.06071e-05 -0.00106462 0)
(-9.0667e-06 -0.000676785 0)
(-7.26353e-06 -0.000659616 0)
(-6.83534e-06 -0.000537818 0)
(8.32238e-05 -0.00422014 0)
(-5.69264e-06 -0.00181463 0)
(-0.0117819 -0.181266 0)
(0.0192077 -0.153533 0)
(0.0196699 -0.133179 0)
(-5.2418e-06 -0.000452698 0)
(-3.77532e-06 -0.000305745 0)
(0.000488104 -0.00598998 0)
(0.00039614 -0.00704503 0)
(0.000654333 -0.00528709 0)
(0.000987164 -0.00463708 0)
(0.000180398 -0.00505048 0)
(3.69771e-05 -0.00377183 0)
(6.47447e-06 -0.00244419 0)
(-1.175e-05 -0.00127333 0)
(-1.18964e-05 -0.00166565 0)
(-1.69133e-05 -0.0010247 0)
(-1.28866e-05 -0.000863445 0)
(-4.12489e-06 -0.000347615 0)
(0.00381379 -0.181623 0)
(0.0188485 -0.169315 0)
(-2.20628e-06 -0.000183346 0)
(-2.14605e-06 -0.000176179 0)
(0.00124567 -0.00200277 0)
(0.000281761 -0.00569802 0)
(0.000156793 -0.00503869 0)
(0.000103287 -0.0044502 0)
(6.15666e-05 -0.00370944 0)
(2.49154e-05 -0.0033101 0)
(-9.43277e-06 -0.00150113 0)
(-8.76311e-06 -0.00202417 0)
(2.31036e-06 -0.00259594 0)
(-6.25471e-06 -0.00055177 0)
(-3.79658e-06 -0.00195523 0)
(-1.49301e-05 -0.000929816 0)
(-8.57071e-06 -0.000615369 0)
(-7.08774e-06 -0.000546742 0)
(-5.60162e-06 -0.000447223 0)
(-8.46255e-06 -0.000809859 0)
(-1.07207e-06 -8.84467e-05 0)
(-0.00362994 -0.147305 0)
(-0.00318242 -0.146415 0)
(-0.00308503 -0.147804 0)
(-0.00264318 -0.146827 0)
(-0.00250843 -0.148186 0)
(-0.00208926 -0.14712 0)
(-0.00191621 -0.148438 0)
(-0.00151995 -0.147293 0)
(-0.00131407 -0.148576 0)
(-0.000940348 -0.147338 0)
(-0.000705294 -0.148573 0)
(-0.000355889 -0.147249 0)
(-9.65862e-05 -0.148436 0)
(0.000235384 -0.147026 0)
(0.000515123 -0.148169 0)
(0.000830279 -0.146679 0)
(0.00113537 -0.147749 0)
(0.00140954 -0.146244 0)
(0.00174702 -0.147157 0)
(0.0019671 -0.145614 0)
(0.00234381 -0.146412 0)
(0.00251625 -0.144704 0)
(0.00292156 -0.145503 0)
(0.00306484 -0.143664 0)
(0.00348502 -0.14441 0)
(0.0035971 -0.142542 0)
(0.00401693 -0.143114 0)
(0.00410582 -0.14126 0)
(0.00452763 -0.141781 0)
(0.00459924 -0.13987 0)
(0.00504346 -0.140336 0)
(0.00507538 -0.138357 0)
(0.00552919 -0.138629 0)
(0.00552043 -0.136633 0)
(0.00597376 -0.136731 0)
(0.00508939 -0.136387 0)
(0.00550259 -0.134621 0)
(0.00508784 -0.13439 0)
(-0.000755757 -0.0425097 0)
(-0.000737914 -0.041176 0)
(0.00548442 -0.132581 0)
(0.00507576 -0.132371 0)
(-0.000721282 -0.0415242 0)
(-0.000704658 -0.04025 0)
(0.00545886 -0.130515 0)
(0.00505456 -0.130321 0)
(-0.000688623 -0.0405875 0)
(-0.000672235 -0.0393075 0)
(-0.000656278 -0.0396543 0)
(-0.000641167 -0.0383608 0)
(0.00542284 -0.128424 0)
(0.0050261 -0.128241 0)
(-0.000625117 -0.0386523 0)
(-0.000611305 -0.0373962 0)
(0.00538172 -0.126303 0)
(0.00499197 -0.126136 0)
(-0.000595304 -0.0376198 0)
(-0.000582575 -0.0364021 0)
(-0.000597133 -0.0361634 0)
(0.0053316 -0.12415 0)
(0.00495056 -0.123981 0)
(0.00570684 -0.12439 0)
(-0.000566658 -0.0365698 0)
(-0.000554998 -0.0353861 0)
(0.00527873 -0.12193 0)
(0.00490106 -0.121783 0)
(-0.000539344 -0.0355155 0)
(-0.00054818 -0.0366293 0)
(-0.000528524 -0.034355 0)
(-0.00045262 -0.149797 0)
(0.00600461 -0.138765 0)
(0.00644791 -0.13674 0)
(0.00649171 -0.13879 0)
(0.0069169 -0.136793 0)
(0.0069908 -0.138684 0)
(0.00739011 -0.136604 0)
(0.00750268 -0.13839 0)
(0.00788796 -0.136089 0)
(0.00801795 -0.137931 0)
(0.00839054 -0.135483 0)
(0.00853531 -0.137304 0)
(0.0088891 -0.134704 0)
(0.00904994 -0.136547 0)
(0.00938429 -0.133752 0)
(0.00956343 -0.135571 0)
(0.00987547 -0.132642 0)
(0.0100734 -0.13435 0)
(0.0103594 -0.131367 0)
(0.0105774 -0.132968 0)
(0.010838 -0.129863 0)
(0.0110725 -0.131353 0)
(0.0113106 -0.128096 0)
(0.011562 -0.129472 0)
(0.0117818 -0.126042 0)
(0.0115236 -0.124728 0)
(0.0119874 -0.122439 0)
(0.0122477 -0.12375 0)
(0.0124324 -0.120026 0)
(0.0126967 -0.121183 0)
(0.0128422 -0.117435 0)
(0.0131317 -0.118288 0)
(0.0132471 -0.114545 0)
(0.0135675 -0.115065 0)
(0.0136379 -0.111274 0)
(0.0139854 -0.111453 0)
(0.0140414 -0.10758 0)
(0.0143723 -0.107608 0)
(0.0144497 -0.103803 0)
(0.0147531 -0.103669 0)
(0.0148193 -0.0997505 0)
(0.0151343 -0.0993086 0)
(0.0151728 -0.0952404 0)
(0.015497 -0.0944661 0)
(0.0155187 -0.0903185 0)
(0.0158428 -0.0892878 0)
(0.0158515 -0.0851424 0)
(0.0161807 -0.0838515 0)
(0.0161709 -0.0797458 0)
(0.0165034 -0.0782173 0)
(0.0164739 -0.0741769 0)
(0.0168055 -0.0723735 0)
(0.0167591 -0.0684464 0)
(0.0170881 -0.0663953 0)
(0.0170274 -0.0626006 0)
(0.0117292 -0.121165 0)
(0.0141839 -0.103355 0)
(0.0161486 -0.0755903 0)
(0.00864972 -0.139264 0)
(-0.000513199 -0.0344449 0)
(-0.000503076 -0.0333076 0)
(0.00520881 -0.119685 0)
(0.00484285 -0.119558 0)
(0.0168345 -0.0763328 0)
(-0.000487951 -0.0333554 0)
(-0.000478446 -0.0322428 0)
(0.00512342 -0.117428 0)
(0.00477661 -0.117303 0)
(-0.000463597 -0.0322466 0)
(-0.000454626 -0.0311652 0)
(-0.000468327 -0.0311366 0)
(0.00503952 -0.115133 0)
(0.00470313 -0.115015 0)
(-0.00044017 -0.0311195 0)
(-0.00043175 -0.0300771 0)
(0.0150673 -0.10406 0)
(0.00495367 -0.112823 0)
(0.00462511 -0.112685 0)
(0.00527214 -0.112784 0)
(0.011314 -0.132806 0)
(-0.000417784 -0.0299831 0)
(-0.000424444 -0.0309194 0)
(-0.000409805 -0.028983 0)
(0.00486207 -0.110468 0)
(0.00453915 -0.110329 0)
(-0.000396323 -0.0288588 0)
(-0.000388682 -0.0278854 0)
(-0.000375604 -0.0277371 0)
(-0.000368341 -0.0267857 0)
(0.00476329 -0.108081 0)
(0.00444455 -0.107955 0)
(-0.00035563 -0.0266229 0)
(-0.00034874 -0.0256857 0)
(-0.000360571 -0.0258225 0)
(0.0046541 -0.105665 0)
(0.00434571 -0.105523 0)
(-0.00034132 -0.0247532 0)
(-0.000352353 -0.0248809 0)
(-0.000329955 -0.0245854 0)
(0.00453834 -0.103213 0)
(0.00424442 -0.103077 0)
(0.00404952 -0.105184 0)
(0.00395918 -0.102823 0)
(0.00376134 -0.104836 0)
(0.00367973 -0.102509 0)
(0.00347793 -0.104523 0)
(0.00340763 -0.102101 0)
(0.00359786 -0.100015 0)
(0.00333203 -0.099604 0)
(0.00314662 -0.101545 0)
(0.00307779 -0.0991311 0)
(-0.000322757 -0.023678 0)
(-0.000311987 -0.0234926 0)
(0.00324939 -0.0970482 0)
(0.00300508 -0.0965872 0)
(0.00283334 -0.0986162 0)
(0.00277038 -0.0960594 0)
(0.0011741 -0.145245 0)
(-0.000305375 -0.0226429 0)
(-0.000294659 -0.0224087 0)
(0.00259713 -0.0980107 0)
(0.00254394 -0.0954526 0)
(0.00270185 -0.093449 0)
(0.00248374 -0.0928583 0)
(0.00232476 -0.0948018 0)
(0.00227454 -0.0922005 0)
(0.0021138 -0.0940724 0)
(0.002074 -0.0914705 0)
(0.00191473 -0.0932596 0)
(0.00188189 -0.0906753 0)
(0.00172574 -0.0923896 0)
(0.00169837 -0.0898246 0)
(0.00184324 -0.0880518 0)
(0.00166499 -0.0872267 0)
(0.00454789 -0.12153 0)
(-0.000288022 -0.0215167 0)
(-0.000277604 -0.0213232 0)
(0.00152315 -0.0889335 0)
(0.00149522 -0.086363 0)
(0.00162581 -0.0845898 0)
(0.00146246 -0.0837528 0)
(0.00133361 -0.0854597 0)
(0.00130734 -0.0828709 0)
(0.00118038 -0.0845118 0)
(0.00115994 -0.0819486 0)
(-0.000270528 -0.0204621 0)
(-0.0002612 -0.0202484 0)
(-0.000268588 -0.0211512 0)
(0.00127593 -0.0802468 0)
(0.00113441 -0.0793559 0)
(0.00101961 -0.080996 0)
(0.00100009 -0.0784337 0)
(0.000886369 -0.0800117 0)
(0.000872757 -0.0774734 0)
(0.000760745 -0.0789904 0)
(0.000752259 -0.0764785 0)
(0.000642869 -0.0779337 0)
(0.000638659 -0.0754551 0)
(0.000740024 -0.0739385 0)
(0.000629875 -0.0729492 0)
(0.000531692 -0.0744127 0)
(0.000526582 -0.0719459 0)
(-0.000254594 -0.0194138 0)
(-0.000264456 -0.0196908 0)
(-0.000245371 -0.0191732 0)
(0.000616825 -0.0704146 0)
(0.000517878 -0.0694499 0)
(0.000429666 -0.0709237 0)
(0.000425126 -0.068463 0)
(0.000338796 -0.0698734 0)
(0.000338344 -0.0674498 0)
(0.000252138 -0.0688394 0)
(0.000256828 -0.0664186 0)
(0.000334573 -0.0650083 0)
(0.000256779 -0.0640123 0)
(0.000180975 -0.0653589 0)
(0.000184305 -0.0629967 0)
(0.000110624 -0.0642684 0)
(0.000116893 -0.0619648 0)
(0.000183669 -0.0606207 0)
(0.000119497 -0.0596435 0)
(5.41312e-05 -0.0609267 0)
(5.97681e-05 -0.0586564 0)
(-4.02803e-06 -0.0598661 0)
(4.31901e-06 -0.0576516 0)
(-0.000238856 -0.0183618 0)
(-0.00023002 -0.01811 0)
(6.30143e-05 -0.056372 0)
(1.02011e-05 -0.0554235 0)
(-4.71763e-05 -0.0566406 0)
(-3.9002e-05 -0.0544619 0)
(-9.48344e-05 -0.055629 0)
(-8.43663e-05 -0.0534906 0)
(-0.000138727 -0.0546073 0)
(-0.000126225 -0.0525138 0)
(-7.58718e-05 -0.0513429 0)
(-0.000115678 -0.0504117 0)
(-0.00016467 -0.0515316 0)
(-0.000152202 -0.0494721 0)
(-0.000199508 -0.0505359 0)
(-0.000185518 -0.0485241 0)
(-0.000141687 -0.0474162 0)
(-0.000173501 -0.0465169 0)
(0.00212361 -0.148018 0)
(-0.00731939 -0.172738 0)
(-0.00705653 -0.171957 0)
(-0.00601073 -0.172555 0)
(-0.00586797 -0.171755 0)
(-0.00474195 -0.17226 0)
(-0.00472075 -0.171353 0)
(-0.00350796 -0.171868 0)
(-0.00351689 -0.171037 0)
(-0.00236463 -0.171426 0)
(-0.00249489 -0.170582 0)
(-0.00133174 -0.170907 0)
(-0.00112465 -0.171737 0)
(-0.000160139 -0.171164 0)
(0.000135373 -0.171968 0)
(0.0010436 -0.17127 0)
(0.00144665 -0.172093 0)
(0.00225695 -0.17127 0)
(0.00277319 -0.172046 0)
(0.00344128 -0.171153 0)
(0.00403577 -0.171845 0)
(0.00459769 -0.170857 0)
(0.00523656 -0.17153 0)
(0.00570844 -0.170439 0)
(0.00637356 -0.171075 0)
(0.00509997 -0.169774 0)
(-0.00360557 -0.170195 0)
(0.00673872 -0.169886 0)
(0.00742649 -0.170462 0)
(-0.000223596 -0.0173455 0)
(-0.000215132 -0.0170607 0)
(-0.00148408 -0.170071 0)
(0.00174536 -0.0949238 0)
(-0.000132838 -0.0453621 0)
(-0.000163125 -0.044512 0)
(0.00484758 -0.103225 0)
(-0.000231036 -0.0495319 0)
(0.00768749 -0.169209 0)
(0.00838585 -0.169684 0)
(0.00123989 -0.0775883 0)
(0.00262737 -0.0907965 0)
(-0.000209202 -0.0163454 0)
(-0.000200598 -0.0160211 0)
(-0.000207005 -0.0167838 0)
(0.00471049 -0.100747 0)
(0.00501926 -0.100635 0)
(0.00486167 -0.0981359 0)
(0.00516677 -0.0979226 0)
(0.0049915 -0.0953847 0)
(0.00529419 -0.0950769 0)
(0.00509931 -0.0924956 0)
(0.00539672 -0.0920652 0)
(0.00518116 -0.0894624 0)
(0.00546911 -0.0889042 0)
(-0.00772617 -0.173493 0)
(0.00854905 -0.168349 0)
(0.00925945 -0.168715 0)
(-0.000125418 -0.0433104 0)
(-0.000154128 -0.0425103 0)
(0.00920253 -0.131944 0)
(0.000642016 -0.08039 0)
(0.00523387 -0.0862675 0)
(0.00551374 -0.0856245 0)
(0.00576613 -0.0882216 0)
(0.00579789 -0.0848547 0)
(0.00606568 -0.0873657 0)
(0.00608356 -0.083923 0)
(0.00636623 -0.0863515 0)
(0.00637114 -0.0828375 0)
(0.0066684 -0.0851817 0)
(0.00665855 -0.0815996 0)
(0.00697095 -0.083834 0)
(0.00694068 -0.0802053 0)
(0.00726952 -0.0823151 0)
(0.00721803 -0.078633 0)
(0.00756344 -0.0806277 0)
(0.00749587 -0.0768594 0)
(0.00785303 -0.0787449 0)
(0.00776848 -0.0748998 0)
(0.00813698 -0.0766711 0)
(0.00803304 -0.0727816 0)
(0.00841421 -0.0744075 0)
(0.00829005 -0.0704793 0)
(0.00868308 -0.07195 0)
(0.00853841 -0.0679976 0)
(0.00894245 -0.0692908 0)
(-0.000195035 -0.0153197 0)
(-0.000204285 -0.0156916 0)
(-0.00018659 -0.0149837 0)
(0.00877836 -0.0653353 0)
(0.0091934 -0.0664259 0)
(0.00932763 -0.167283 0)
(0.0100469 -0.167535 0)
(0.00857176 -0.167058 0)
(0.00900764 -0.0624994 0)
(0.00943374 -0.0633644 0)
(-0.00011924 -0.0412649 0)
(-0.000146308 -0.0405158 0)
(-0.000180384 -0.0417049 0)
(-0.000171014 -0.0397587 0)
(0.00922498 -0.0595058 0)
(0.00966164 -0.0601054 0)
(-0.000181187 -0.0143099 0)
(-0.000173162 -0.0139613 0)
(0.00526047 -0.0829604 0)
(0.0100466 -0.166044 0)
(0.0107428 -0.166151 0)
(0.00942751 -0.0563156 0)
(0.00987588 -0.0566438 0)
(0.00960366 -0.0672808 0)
(-0.000204152 -0.0408914 0)
(-0.000193351 -0.0389898 0)
(-0.000162598 -0.0378219 0)
(-0.000183706 -0.0370991 0)
(0.00961698 -0.0529212 0)
(0.0100749 -0.0530316 0)
(0.00342476 -0.172737 0)
(0.00820655 -0.0805021 0)
(-0.000155012 -0.0358973 0)
(-0.000174873 -0.035227 0)
(0.00979525 -0.049372 0)
(0.0102584 -0.0492996 0)
(0.0105288 -0.0529764 0)
(0.0107197 -0.0490497 0)
(0.010428 -0.045441 0)
(0.0109032 -0.0449952 0)
(0.0105836 -0.0414524 0)
(0.0110664 -0.0407424 0)
(0.0107208 -0.0373489 0)
(0.0112109 -0.0363343 0)
(0.0106951 -0.164618 0)
(0.0113546 -0.164593 0)
(0.011418 -0.166112 0)
(0.0120135 -0.164447 0)
(0.0118932 -0.162873 0)
(0.0125194 -0.16256 0)
(0.0126974 -0.164158 0)
(0.013149 -0.162076 0)
(0.012953 -0.160478 0)
(0.0135324 -0.159744 0)
(0.0137576 -0.161339 0)
(0.0140832 -0.158854 0)
(0.0143218 -0.160358 0)
(0.0146045 -0.157808 0)
(0.0148559 -0.159209 0)
(0.0150923 -0.156595 0)
(0.015347 -0.157763 0)
(0.0155473 -0.155108 0)
(0.0157983 -0.156154 0)
(0.0159764 -0.153322 0)
(0.0162328 -0.154365 0)
(0.0163794 -0.151229 0)
(0.0166433 -0.152006 0)
(0.0167575 -0.148797 0)
(0.0170215 -0.149234 0)
(0.0171079 -0.146075 0)
(0.0173636 -0.146297 0)
(0.0174314 -0.143043 0)
(0.0176753 -0.143161 0)
(0.0177386 -0.139759 0)
(0.0179654 -0.13974 0)
(0.0180262 -0.136278 0)
(0.0182344 -0.136076 0)
(0.0182882 -0.132594 0)
(0.0184823 -0.132247 0)
(0.0185316 -0.128747 0)
(0.018713 -0.128266 0)
(0.0187595 -0.124764 0)
(0.0189322 -0.124073 0)
(0.0189731 -0.120561 0)
(0.0191343 -0.119698 0)
(0.0191701 -0.116323 0)
(0.019319 -0.115327 0)
(0.0193519 -0.112036 0)
(0.0194955 -0.110891 0)
(0.0195275 -0.107573 0)
(0.0193743 -0.108692 0)
(0.0183452 -0.129182 0)
(0.0168595 -0.145694 0)
(0.015323 -0.153926 0)
(0.0133457 -0.158095 0)
(0.0196307 -0.109695 0)
(0.0188863 -0.127726 0)
(0.0108397 -0.0331274 0)
(0.0113294 -0.031794 0)
(0.0115632 -0.0397856 0)
(0.0063405 -0.0792428 0)
(-0.000167939 -0.0133292 0)
(-0.000160307 -0.0129776 0)
(0.0109381 -0.0288061 0)
(0.0114231 -0.0272247 0)
(-0.000213131 -0.0381854 0)
(-0.000672933 -0.041085 0)
(0.0110151 -0.0244517 0)
(0.0115041 -0.0226366 0)
(0.0179095 -0.143177 0)
(-0.000148124 -0.0339874 0)
(-0.000166642 -0.0333695 0)
(-0.00015517 -0.0123729 0)
(-0.000147895 -0.0120183 0)
(-0.000152135 -0.0125636 0)
(0.00738301 -0.0730534 0)
(0.0151999 -0.160358 0)
(0.0081678 -0.170985 0)
(-0.000142893 -0.0114417 0)
(-0.000149285 -0.0117496 0)
(-0.000141762 -0.0320949 0)
(-0.000158955 -0.0315263 0)
(-0.000135896 -0.0110787 0)
(0.00835693 -0.064048 0)
(-0.0011597 -0.146097 0)
(-0.000135814 -0.030222 0)
(-0.000151709 -0.0297045 0)
(-0.000118398 -0.0307292 0)
(-0.000174539 -0.0309475 0)
(-0.000166109 -0.0291746 0)
(-0.000188543 -0.0303586 0)
(-0.000179068 -0.0286326 0)
(-0.000131101 -0.0105357 0)
(-0.000124441 -0.0101706 0)
(-0.000201037 -0.0297587 0)
(-0.000190643 -0.0280795 0)
(-0.00017001 -0.0269296 0)
(-0.000180714 -0.0264239 0)
(0.00499738 -0.0835804 0)
(0.0050037 -0.0802285 0)
(0.00475125 -0.0808576 0)
(0.00474113 -0.0774281 0)
(0.00450048 -0.0780182 0)
(0.00447715 -0.0744991 0)
(0.00425494 -0.0750234 0)
(0.00914819 -0.0527291 0)
(0.0046612 -0.130124 0)
(0.0134429 -0.118903 0)
(0.00422084 -0.0714537 0)
(0.00401135 -0.0719539 0)
(-0.000161281 -0.0252513 0)
(-0.000171134 -0.0247928 0)
(-0.00019021 -0.0259075 0)
(-0.000179883 -0.0243231 0)
(0.0103516 -0.034203 0)
(-0.000119819 -0.00965804 0)
(-0.000113457 -0.00929386 0)
(-0.00016183 -0.0231881 0)
(-0.000169868 -0.0227643 0)
(-8.96434e-05 -0.0420069 0)
(0.00396654 -0.0683499 0)
(0.00376642 -0.0688424 0)
(0.0041553 -0.0678597 0)
(-0.000114139 -0.0288258 0)
(-9.66079e-05 -0.0292666 0)
(-0.000198598 -0.0253832 0)
(-0.000108952 -0.00880702 0)
(-0.000102956 -0.00844979 0)
(-0.000106559 -0.00886012 0)
(-0.000152745 -0.021611 0)
(-0.000160101 -0.0212323 0)
(0.00370879 -0.0651562 0)
(0.00352051 -0.0656568 0)
(-0.00301607 -0.149279 0)
(-9.40346e-05 -0.0273339 0)
(-7.65325e-05 -0.0277025 0)
(-9.85937e-05 -0.00798764 0)
(-0.000104289 -0.00832108 0)
(-9.26603e-05 -0.00761833 0)
(-0.000143829 -0.0200637 0)
(-0.000150524 -0.0197291 0)
(-0.00250439 -0.120004 0)
(-0.00225036 -0.11884 0)
(-0.00222275 -0.120534 0)
(-0.00196965 -0.119306 0)
(-0.00193915 -0.120973 0)
(-0.00168286 -0.119689 0)
(-0.00163981 -0.12154 0)
(-0.00138278 -0.119972 0)
(-0.00128893 -0.121615 0)
(-0.00107548 -0.120082 0)
(-0.000965783 -0.121662 0)
(-0.000761854 -0.120091 0)
(-0.000866079 -0.118363 0)
(-0.000636317 -0.121609 0)
(-0.000445781 -0.11999 0)
(-0.00030135 -0.121444 0)
(-0.000126177 -0.11972 0)
(3.50029e-05 -0.121154 0)
(-0.000144655 -0.122933 0)
(0.000196449 -0.11934 0)
(0.000203496 -0.122597 0)
(2.61249e-05 -0.124389 0)
(0.000385989 -0.123998 0)
(0.000208995 -0.125803 0)
(0.00345067 -0.0618745 0)
(0.00327613 -0.0623874 0)
(0.00706627 -0.140593 0)
(0.0169533 -0.152178 0)
(0.00696709 -0.0873532 0)
(-8.77829e-05 -0.00711866 0)
(-8.28447e-05 -0.00681992 0)
(-7.5591e-05 -0.0257456 0)
(-5.83899e-05 -0.0260405 0)
(-0.000135027 -0.0185485 0)
(-0.000141093 -0.0182574 0)
(-0.000156368 -0.0193792 0)
(-0.000146376 -0.0179485 0)
(-0.000128165 -0.0188223 0)
(-0.000161364 -0.019013 0)
(-0.000150895 -0.0176229 0)
(-0.000136564 -0.0165509 0)
(-0.000140656 -0.0162657 0)
(0.00438847 -0.114713 0)
(-0.00016553 -0.0186311 0)
(0.0184597 -0.0875261 0)
(0.018222 -0.0883997 0)
(0.0181675 -0.0928894 0)
(0.000580293 -0.125358 0)
(0.000405373 -0.127176 0)
(-0.00015312 -0.0566674 0)
(0.000247071 -0.0712432 0)
(-0.00036213 -0.0275341 0)
(-0.000687217 -0.0389298 0)
(6.46726e-05 -0.0540839 0)
(0.00073538 -0.123509 0)
(-0.00131105 -0.0713066 0)
(-0.00106496 -0.0589294 0)
(-0.000954517 -0.0531568 0)
(0.000600019 -0.0678566 0)
(0.0109816 -0.0527608 0)
(0.00319249 -0.0585249 0)
(0.00303455 -0.0590413 0)
(0.0031025 -0.0628057 0)
(0.00287795 -0.0594688 0)
(0.00293275 -0.0631389 0)
(0.00272226 -0.059816 0)
(0.00276617 -0.0633812 0)
(0.00256808 -0.0600602 0)
(0.00260251 -0.0635324 0)
(0.00241642 -0.0602112 0)
(0.00237199 -0.0566597 0)
(0.00223175 -0.0568303 0)
(0.00226792 -0.0603232 0)
(0.00209537 -0.0569658 0)
(0.0033509 -0.0579109 0)
(0.00771638 -0.134256 0)
(0.0027998 -0.0556251 0)
(2.35449e-05 -0.11795 0)
(0.000343927 -0.117464 0)
(0.000163611 -0.116076 0)
(0.000480886 -0.115511 0)
(0.000298507 -0.11412 0)
(-0.000258331 -0.0148351 0)
(-0.000275541 -0.015884 0)
(-0.000259479 -0.0151379 0)
(-0.00024259 -0.0140948 0)
(-0.000243586 -0.0143775 0)
(-0.000259936 -0.0154131 0)
(-0.000243927 -0.0146331 0)
(-0.000227886 -0.0136052 0)
(-0.000228156 -0.0138432 0)
(-0.000259694 -0.0156588 0)
(-0.000212394 -0.0128225 0)
(-0.000212634 -0.0130451 0)
(-0.000197124 -0.012031 0)
(-0.000197369 -0.0122401 0)
(-0.000212293 -0.0132403 0)
(-0.000197052 -0.0124217 0)
(-0.000196332 -0.0117964 0)
(-0.000211363 -0.013406 0)
(-0.000196179 -0.0125743 0)
(-7.83246e-05 -0.00637895 0)
(-0.000182108 -0.0115999 0)
(-0.000181319 -0.0117413 0)
(-7.36721e-05 -0.0060723 0)
(-7.70034e-05 -0.00641511 0)
(0.00204851 -0.0533846 0)
(0.00192531 -0.0535558 0)
(0.00196256 -0.0570397 0)
(0.00180495 -0.0536657 0)
(0.0129402 -0.113569 0)
(0.0105742 -0.0218585 0)
(0.0151868 -0.0914577 0)
(0.0169764 -0.0593493 0)
(0.00261227 -0.142731 0)
(0.0179273 -0.0935249 0)
(0.0178676 -0.0979647 0)
(-0.000126895 -0.0151873 0)
(-0.000130594 -0.0149418 0)
(-0.00278972 -0.14542 0)
(-5.89319e-05 -0.0240593 0)
(-4.23191e-05 -0.0242907 0)
(0.0181078 -0.0974112 0)
(0.0178043 -0.102352 0)
(0.017558 -0.10278 0)
(0.0174891 -0.107043 0)
(0.0172347 -0.107371 0)
(0.0171502 -0.111707 0)
(0.0168956 -0.111689 0)
(0.0167855 -0.116176 0)
(0.0165415 -0.115645 0)
(0.0164094 -0.120206 0)
(0.0018299 -0.170401 0)
(0.00183308 -0.0570481 0)
(0.00168696 -0.0537124 0)
(0.000788974 -0.126672 0)
(0.000618405 -0.128501 0)
(0.00164906 -0.0502623 0)
(0.00154287 -0.050353 0)
(0.00157145 -0.0537108 0)
(0.00143877 -0.0503834 0)
(0.00145906 -0.0536526 0)
(0.00133706 -0.0503574 0)
(0.00134989 -0.0535524 0)
(0.00123808 -0.050292 0)
(0.00121722 -0.0470431 0)
(0.00112799 -0.0470298 0)
(0.00114194 -0.0501853 0)
(0.00104128 -0.0469703 0)
(0.0161671 -0.119417 0)
(0.0160249 -0.123845 0)
(-0.000209862 -0.0135406 0)
(-6.97109e-05 -0.00568445 0)
(-7.40967e-05 -0.00597063 0)
(-3.9892e-05 -0.0263137 0)
(-2.459e-05 -0.0245006 0)
(-2.01806e-05 -0.0265621 0)
(-5.72111e-06 -0.0246713 0)
(7.23241e-07 -0.0267964 0)
(1.42247e-05 -0.0248091 0)
(2.31196e-05 -0.0270118 0)
(-0.000167471 -0.0107766 0)
(-0.000166795 -0.0109091 0)
(3.53111e-05 -0.024919 0)
(4.69925e-05 -0.0271923 0)
(0.00104879 -0.0500283 0)
(0.000957 -0.0468592 0)
(0.000944102 -0.0437868 0)
(0.000867915 -0.0436911 0)
(0.000875248 -0.0467078 0)
(0.000793881 -0.043592 0)
(0.000796381 -0.0465162 0)
(0.000722581 -0.0434595 0)
(0.000720645 -0.0462833 0)
(0.000654018 -0.0432853 0)
(0.000650698 -0.0404021 0)
(0.000589061 -0.0402911 0)
(0.000587888 -0.0430778 0)
(0.0005296 -0.0401448 0)
(0.000524219 -0.0428363 0)
(0.00047233 -0.0399627 0)
(-6.48986e-05 -0.0053535 0)
(0.000473325 -0.037229 0)
(0.000422106 -0.0371062 0)
(0.000417372 -0.0397469 0)
(0.000372744 -0.0369486 0)
(0.000602757 -0.113512 0)
(0.000424549 -0.112133 0)
(-0.00171092 -0.118021 0)
(5.74525e-05 -0.0250041 0)
(-0.000117346 -0.0138595 0)
(-0.000120683 -0.013653 0)
(-0.00013365 -0.0146771 0)
(-0.000123428 -0.0134259 0)
(-0.000136064 -0.014393 0)
(-0.000125591 -0.0131788 0)
(0.00101776 -0.127924 0)
(-0.00011341 -0.0122118 0)
(-0.000115359 -0.0120009 0)
(0.00394767 -0.14497 0)
(0.000849189 -0.129777 0)
(0.00043069 -0.130294 0)
(-0.00452701 -0.161791 0)
(-0.00446634 -0.160614 0)
(-0.00373855 -0.161302 0)
(-0.00370209 -0.160124 0)
(-0.00298428 -0.16074 0)
(0.0180467 -0.101842 0)
(0.00149565 -0.0468466 0)
(-0.0139236 -0.17933 0)
(-0.0132188 -0.178897 0)
(-0.0117922 -0.179336 0)
(-0.0112097 -0.178963 0)
(-0.00979631 -0.179337 0)
(-0.00925404 -0.178976 0)
(-0.00771354 -0.179324 0)
(-0.00728911 -0.178923 0)
(-0.00551719 -0.179258 0)
(-0.00531149 -0.178804 0)
(-0.00345222 -0.179094 0)
(-0.00347224 -0.179543 0)
(-0.00145957 -0.179329 0)
(-0.00126076 -0.179756 0)
(0.00063418 -0.179497 0)
(-0.00345388 -0.178616 0)
(0.000995018 -0.179907 0)
(0.00279033 -0.17961 0)
(0.00228139 -0.179172 0)
(0.00428989 -0.179232 0)
(0.00505931 -0.179717 0)
(0.0062754 -0.179221 0)
(0.00549402 -0.178769 0)
(0.00725759 -0.178704 0)
(0.00814752 -0.179129 0)
(0.00886987 -0.178566 0)
(0.0098315 -0.178968 0)
(0.0103095 -0.178329 0)
(0.0112998 -0.178702 0)
(0.0115662 -0.177965 0)
(0.0125436 -0.178288 0)
(0.0126238 -0.177454 0)
(0.0135619 -0.177706 0)
(0.0135011 -0.176773 0)
(0.01436 -0.176908 0)
(-0.00892859 -0.178558 0)
(-0.0100457 -0.17966 0)
(0.0142141 -0.175929 0)
(0.014966 -0.175882 0)
(0.0134927 -0.175782 0)
(0.0105998 -0.177619 0)
(0.00648025 -0.178236 0)
(0.0157765 -0.122872 0)
(0.0156278 -0.127132 0)
(0.000364574 -0.039482 0)
(0.000373896 -0.0342638 0)
(-4.42581e-05 -0.0223054 0)
(-0.000153159 -0.00995414 0)
(-0.000152618 -0.0100795 0)
(-0.000165632 -0.0110132 0)
(-0.000151608 -0.0101768 0)
(0.00401217 -0.0753495 0)
(-0.00438897 -0.159435 0)
(-6.14272e-05 -0.00501528 0)
(-5.66829e-05 -0.00468071 0)
(0.000851822 -0.0405031 0)
(0.0170583 -0.116544 0)
(0.017001 -0.107453 0)
(0.0153789 -0.126047 0)
(0.0152156 -0.130154 0)
(0.00126524 -0.129127 0)
(0.0014119 -0.12721 0)
(-0.000137854 -0.0140904 0)
(-0.00365386 -0.158934 0)
(-0.00016398 -0.011087 0)
(-0.000150134 -0.0102447 0)
(-0.000137958 -0.0093466 0)
(-0.000136686 -0.00941083 0)
(0.0147455 -0.174887 0)
(0.0154244 -0.17461 0)
(0.0149741 -0.129007 0)
(0.0147874 -0.132885 0)
(0.0145574 -0.131604 0)
(0.0143437 -0.135289 0)
(0.000658192 -0.131584 0)
(0.000228097 -0.13203 0)
(-0.00117193 -0.123235 0)
(-0.000103581 -0.0110357 0)
(-0.000105351 -0.0108605 0)
(0.000329714 -0.0341698 0)
(0.00032764 -0.0314335 0)
(0.000711103 -0.111482 0)
(0.000541452 -0.110126 0)
(0.000260641 -0.110745 0)
(0.00038539 -0.108741 0)
(0.000120319 -0.109307 0)
(0.000240883 -0.107324 0)
(-7.18019e-06 -0.107844 0)
(0.000104761 -0.105865 0)
(-0.000133394 -0.106357 0)
(-2.69486e-05 -0.104433 0)
(-0.000245634 -0.104804 0)
(-0.000139629 -0.102964 0)
(-0.000347212 -0.103218 0)
(-0.000232901 -0.101355 0)
(-0.000442033 -0.101619 0)
(-0.000328997 -0.099742 0)
(-0.000531959 -0.100007 0)
(-0.00042211 -0.0981574 0)
(0.000892907 -0.112812 0)
(-0.000614578 -0.0983726 0)
(-0.0005051 -0.0965478 0)
(-9.57207e-05 -0.0993254 0)
(-0.000689913 -0.0967196 0)
(-0.000581626 -0.0949219 0)
(-0.000404377 -0.0946787 0)
(-0.000482385 -0.0930767 0)
(-0.000650855 -0.0932802 0)
(-0.000552655 -0.0914594 0)
(-0.000470649 -0.105099 0)
(0.000191878 -0.103728 0)
(-0.000712582 -0.091623 0)
(-0.00061605 -0.0898268 0)
(-0.000462521 -0.0896068 0)
(-0.000526492 -0.0879967 0)
(-0.00067386 -0.0881859 0)
(-0.000585611 -0.0863873 0)
(-0.000725604 -0.0865396 0)
(-0.000638278 -0.0847725 0)
(-0.000771286 -0.0848888 0)
(-0.000685917 -0.0831388 0)
(-0.000811343 -0.0832242 0)
(-0.000729264 -0.0814975 0)
(-0.000605777 -0.0813543 0)
(-0.000652072 -0.0797401 0)
(-0.000767765 -0.0798661 0)
(-0.000693683 -0.0781344 0)
(-0.000581349 -0.0779415 0)
(-0.000623911 -0.0763609 0)
(-0.000440986 -0.0861338 0)
(-0.000730116 -0.0765355 0)
(-0.000661213 -0.0747893 0)
(-0.000560462 -0.074551 0)
(-0.000598079 -0.0730127 0)
(-0.000693112 -0.0732165 0)