/*--------------------------------*- C++ -*----------------------------------*\
| =========                 |                                                 |
| \\      /  F ield         | OpenFOAM: The Open Source CFD Toolbox           |
|  \\    /   O peration     | Version:  v2012                                 |
|   \\  /    A nd           | Website:  www.openfoam.com                      |
|    \\/     M anipulation  |                                                 |
\*---------------------------------------------------------------------------*/
FoamFile
{
    version     2.0;
    format      ascii;
    class       volScalarField;
    location    "400";
    object      k_0;
}
// * * * * * * * * * * * * * * * * * * * * * * * * * * * * * * * * * * * * * //

dimensions      [0 2 -2 0 0 0 0];


internalField   nonuniform List<scalar> 
13851
(
0.000219227
0.000155976
0.00015579
0.018327
0.000148464
0.000159037
0.000156491
0.000147998
0.0590658
0.000148578
0.000179453
0.000148566
0.00014924
0.0371783
0.000174298
0.000223031
0.017801
0.000148939
0.000327775
0.00021896
0.000177336
0.000157104
0.0450991
0.000149734
0.078593
0.000194831
0.000296333
0.0247421
0.0416864
0.000147057
0.0444949
0.000156501
0.00021924
0.0805171
0.000171738
0.0383099
0.000149811
0.0783469
0.0768372
0.000149283
0.0891852
0.0407817
0.00629054
0.000235928
0.0428524
0.000148111
0.000145306
0.000220993
0.000153424
0.000149187
0.0313616
0.000149437
0.000223028
0.000168127
0.0331657
0.000149273
0.000219679
0.0867049
0.000299382
0.0396958
0.000148611
0.000289375
0.000148697
0.000153741
0.000184397
0.000185423
0.0322938
0.000166891
0.000149603
0.0265426
0.0420246
0.000182196
0.000148809
0.0355259
0.000170159
0.000153472
0.0235511
0.000146065
0.0678688
0.000148065
0.000149681
0.000414593
0.000171173
0.0398366
0.0414805
0.0440904
0.000157465
0.0227606
0.000148569
0.0438948
0.000149544
0.000156736
0.01216
0.0400674
0.0739203
0.000208844
0.000148224
0.000224203
0.0343612
0.000204673
0.00022569
0.000162413
0.000163515
0.000149067
0.000148119
0.000179776
0.000148115
0.0440191
0.000156716
0.000148775
0.000160416
0.000148124
0.00022412
0.000183335
0.000219079
0.000166974
0.000146712
0.000147414
0.0159014
0.0295942
0.000194976
0.000148036
0.000149504
0.0636553
0.000279701
0.000173395
0.000148218
0.000172847
0.0815175
0.000181528
0.000157026
0.000164941
0.0553303
0.0798556
0.000180383
0.0723972
0.000166517
0.0431635
0.000160608
0.000181571
0.000340438
0.000150847
0.00014859
0.000172095
0.0741465
0.000152898
0.000145984
0.0403184
0.0453302
0.000173535
0.000225513
0.000220529
0.000184787
0.000286284
0.00014978
0.000148842
0.000148681
0.0727875
0.000179014
0.000154927
0.000149585
0.0403171
0.000179477
0.000221078
0.0379989
0.057267
0.0576568
0.0369737
0.00016028
0.0924
0.000148709
0.000146679
0.000184483
0.000148833
0.0777402
0.000288014
0.000229324
0.000146605
0.000170162
0.000228296
0.000273338
0.000238465
0.000159888
0.000181253
0.00778999
0.0455859
0.000219121
0.000157837
0.000149598
0.000147611
0.060938
0.000178937
0.0305663
0.000159291
0.000152628
0.000223588
0.000217935
0.000150083
0.000150139
0.000167757
0.0003424
0.080831
0.0870924
0.000174306
0.000321787
0.0763598
0.000152571
0.000181859
0.0613396
0.000157841
0.000222733
0.000149437
0.000397543
0.000149562
0.000172646
0.000154716
0.000149095
0.000254925
0.000150253
0.000462493
0.000146567
0.000218751
0.0340086
0.0747512
0.000157461
0.000182244
0.000149755
0.000170458
0.000148249
0.000172262
0.0291911
0.000157397
0.000157823
0.000148785
0.0847593
0.000147044
0.0268798
0.0860016
0.00019948
0.000149647
0.000806836
0.0420369
0.0395769
0.000222559
0.000169398
0.000176168
0.000246047
0.000170384
0.000207836
0.000161866
0.0259433
0.00021851
0.000147441
0.000159622
0.000224568
0.0400575
0.0233766
0.000147551
0.000173686
0.000148544
0.000241972
0.000280226
0.000160328
0.000180116
0.000219062
0.000148543
0.000162837
0.00021365
0.00927757
0.000148634
0.00014907
0.000157567
0.0655683
0.0107767
0.000180557
0.0001482
0.000271549
0.000282322
0.000213954
0.000179866
0.0666318
0.0342831
0.000160757
0.000170855
0.0740042
0.000148101
0.000148667
0.000215067
0.000175516
0.000147132
0.000149541
0.000148209
0.000147957
0.000169561
0.000148631
0.0605909
0.000178649
0.000148777
0.0395384
0.0601591
0.000149523
0.000219508
0.0323618
0.000151108
0.000149606
0.000179762
0.0374708
0.0775742
0.000188349
0.000148371
0.088595
0.000148662
0.000190438
0.0391596
0.00618128
0.000154613
0.065564
0.0143189
0.0496754
0.000218647
0.000162892
0.0778642
0.0713047
0.0220244
0.000150419
0.0248299
0.00967788
0.000224978
0.00021446
0.000152597
0.000187142
0.000158291
0.0238301
0.000164199
0.000147111
0.00014469
0.000159721
0.0464464
0.000385219
0.000148034
0.0720656
0.000158321
0.000165246
0.00015527
0.0316653
0.000269377
0.000223751
0.000154273
0.000157005
0.0325589
0.000149624
0.000294456
0.000160643
0.00017965
0.000158907
0.000148559
0.000148758
0.000211215
0.000211122
0.000219138
0.0361201
0.0322086
0.000153053
0.0837175
0.000252377
0.000147015
0.00735629
0.000202086
0.0402791
0.000159118
0.00019684
0.000283907
0.071898
0.000207293
0.0269536
0.000151647
0.000276689
0.00653234
0.000165707
0.031265
0.000168408
0.0893013
0.000170354
0.000178286
0.000217319
0.000242058
0.000148847
0.000159872
0.000176689
0.000170448
0.000148254
0.000181079
0.0645783
0.000148806
0.00018184
0.0111273
0.00015531
0.00587638
0.000181576
0.0814195
0.000158639
0.000192794
0.000344656
0.000287332
0.000179007
0.0203364
0.0355781
0.000647284
0.000148546
0.000209342
0.000168322
0.000196443
0.000148084
0.00765343
0.0773217
0.0748076
0.000156947
0.000218867
0.000294997
0.0117128
0.000145563
0.0179276
0.000272745
0.0359226
0.000162497
0.0480065
0.000148788
0.000148766
0.0284681
0.000297026
0.000148597
0.000156035
0.000182318
0.000146928
0.0718833
0.000187698
0.000201071
0.000159588
0.000151685
0.000149463
0.0625853
0.000148728
0.000149392
0.00188074
0.0625016
0.000156404
0.000263662
0.000148724
0.000148611
0.000155954
0.000219268
0.00018133
0.000148342
0.000152548
0.000194737
0.000154075
0.0787773
0.000148522
0.000162823
0.0424946
0.000161188
0.000145119
0.000148829
0.00015942
0.000150678
0.000627907
0.00681349
0.000169694
0.000621354
0.000156102
0.000148471
0.0759629
0.000282785
0.000160531
0.000148941
0.0684414
0.00015996
0.00122422
0.000149063
0.000165465
0.000209076
0.000172411
0.0756382
0.000294795
0.0691151
0.000153121
0.000221762
0.000148559
0.0413045
0.000181424
0.00021809
0.000168117
0.000153923
0.000161228
0.000185073
0.000148527
0.0122734
0.0745667
0.0804583
0.00651865
0.00649565
0.0389407
0.000290689
0.000156953
0.000149401
0.010262
0.000148579
0.000148224
0.000158156
0.0811486
0.000155684
0.000150816
0.000174813
0.00017722
0.0001486
0.103921
0.000148201
0.0816739
0.000503863
0.000148073
0.000154467
0.000294752
0.0096064
0.000147154
0.0904022
0.0326242
0.000147222
0.0619717
0.000321416
0.000218308
0.000153067
0.00218123
0.0408216
0.000147459
0.000355656
0.000149542
0.000148226
0.000289339
0.0901624
0.00017266
0.000180672
0.000148583
0.000189101
0.0826262
0.0739134
0.000148241
0.0261655
0.000148305
0.000149615
0.000179331
0.000162878
0.000145518
0.000153455
0.0645708
0.000235037
0.0607045
0.000154957
0.000148533
0.063338
0.000149225
0.000210945
0.000162621
0.000170203
0.000168998
0.0305204
0.0403577
0.000159138
0.0164997
0.000154002
0.000186115
0.0406476
0.0400107
0.000149452
0.000148578
0.000163819
0.062595
0.000249743
0.000188634
0.0122186
0.000163129
0.00016929
0.0346939
0.103306
0.000185323
0.0799442
0.00023812
0.0332611
0.000151018
0.00030022
0.0301387
0.000148588
0.0128979
0.105154
0.000160296
0.000181503
0.000149157
0.00051502
0.000177248
0.0562209
0.000148745
0.000149026
0.000155694
0.000176534
0.000148578
0.0778287
0.000148987
0.000236729
0.000153075
0.000197086
0.000149041
0.000148625
0.000168119
0.0263464
0.000178451
0.0705188
0.000165523
0.000147025
0.000147743
0.000184596
0.000152504
0.000197353
0.000156622
0.00016021
0.000298818
0.000149233
0.0187681
0.000149685
0.000207229
0.0189517
0.0507731
0.000157217
0.0549685
0.000174131
0.000223638
0.1046
0.00014867
0.10368
0.000158389
0.00016678
0.00821641
0.0322528
0.00014721
0.000196145
0.000149968
0.0354663
0.0319155
0.000150037
0.000167684
0.0791486
0.000149758
0.000149688
0.000195199
0.0158825
0.000416856
0.00014962
0.000217163
0.000153568
0.000148665
0.000301571
0.000218313
0.000203975
0.000145288
0.000213785
0.000164214
0.000190485
0.000150783
0.000152324
0.00017573
0.000155492
0.000217343
0.00018225
0.000181894
0.000180789
0.000401892
0.000319864
0.036864
0.0870912
0.000223043
0.0477932
0.000163878
0.000358737
0.000219774
0.000148657
0.000168487
0.000305161
0.000158591
0.00014804
0.000147978
0.000207326
0.0243619
0.000163116
0.0825408
0.000147068
0.000614508
0.000180145
0.0308533
0.000195545
0.000158859
0.000155811
0.0356105
0.000204173
0.000163534
0.000297003
0.000151291
0.0122439
0.00020759
0.000237062
0.000167037
0.000641243
0.000148781
0.000149632
0.000152144
0.000148683
0.0427881
0.000147939
0.000290322
0.0649134
0.000196058
0.0763267
0.038133
0.000240888
0.000235841
0.000157016
0.000149177
0.000148982
0.0001461
0.000147736
0.000148851
0.000186924
0.00022269
0.000165068
0.0166651
0.000152323
0.0598645
0.000149961
0.0212902
0.000169499
0.000149892
0.000148882
0.0529312
0.000159297
0.00103388
0.105663
0.000180384
0.000191404
0.000147036
0.0816641
0.000154048
0.000155764
0.000298699
0.000149207
0.000150828
0.000148503
0.000181398
0.0268145
0.000162963
0.000167728
0.000293616
0.0697742
0.000157375
0.000156857
0.0365061
0.00014604
0.0368962
0.000149294
0.000154164
0.0642805
0.000199884
0.000218615
0.00018866
0.000178883
0.000149513
0.000149958
0.00018773
0.000151199
0.000149561
0.000164013
0.000264638
0.000147851
0.000211521
0.00392733
0.00020298
0.000188309
0.0419332
0.000160726
0.00014915
0.000204636
0.000147176
0.00016001
0.0303878
0.0310498
0.102969
0.0329108
0.000150228
0.000149873
0.000169857
0.000151973
0.000147951
0.0396202
0.000243724
0.0339244
0.000207732
0.000200515
0.00014874
0.000147122
0.0230988
0.000201159
0.000154901
0.000149678
0.000218667
0.000231052
0.0843371
0.000149735
0.000148963
0.0232706
0.000150724
0.000168719
0.000146928
0.0832562
0.000148607
0.0217388
0.000148618
0.000195073
0.000175119
0.000169419
0.000167509
0.000148794
0.000155996
0.000148077
0.000284307
0.00015077
0.0273259
0.000151544
0.0114537
0.0742003
0.000165412
0.00014794
0.0125891
0.00882649
0.000159866
0.000199881
0.000148976
0.0201058
0.000148789
0.000301481
0.000148518
0.000148057
0.000419849
0.000169327
0.00014877
0.000168712
0.0835709
0.000433354
0.08381
0.000147508
0.0508199
0.00014861
0.000147889
0.000149772
0.000144317
0.000149574
0.0942911
0.0389227
0.000150299
0.000148961
0.000173134
0.000148139
0.01594
0.000206904
0.0422613
0.0790425
0.000155906
0.000217353
0.00014855
0.000177096
0.000176806
0.000148554
0.000149355
0.00249705
0.0340364
0.000190897
0.00889167
0.000190104
0.000148726
0.000173357
0.000200486
0.0232878
0.000168233
0.000218518
0.000201838
0.000149479
0.052158
0.0470919
0.031994
0.052635
0.000195768
0.000153062
0.000175858
0.0001494
0.000257759
0.000158014
0.000147136
0.089373
0.00015206
0.000147939
0.000149464
0.000151714
0.0796979
0.000301488
0.000147522
0.000174003
0.0380792
0.000152631
0.00800165
0.000151936
0.000198008
0.088637
0.000148658
0.000259548
0.000160955
0.000166593
0.000488202
0.000152041
0.000392938
0.000192399
0.0874493
0.000150348
0.0272299
0.000165137
0.0536072
0.0258631
0.0224045
0.000180596
0.000148864
0.000150308
0.000149759
0.000176651
0.000148851
0.0779593
0.000159223
0.000156919
0.000157218
0.000152961
0.000147429
0.000161297
0.000159354
0.00015445
0.000158186
0.102941
0.000278564
0.000164656
0.000170186
0.0886395
0.000150905
0.0498404
0.000146086
0.000161501
0.000150788
0.000148694
0.000167208
0.00014845
0.000147468
0.000163115
0.000148885
0.000249602
0.000152042
0.0114576
0.00346694
0.00024982
0.000288631
0.00014965
0.0723615
0.000226412
0.000149501
0.000159077
0.000150591
0.0531426
0.0001519
0.000163052
0.00556532
0.00903482
0.00017972
0.000149828
0.0348582
0.00309425
0.000215293
0.000160876
0.000146973
0.000148143
0.000188485
0.00014882
0.0352434
0.000212662
0.00014934
0.000253771
0.000262322
0.000148395
0.104272
0.0197212
0.000241585
0.000151843
0.0319734
0.000186738
0.000148159
0.0279214
0.000156702
0.000148224
0.000148206
0.00016868
0.000177015
0.0632712
0.046346
0.000178157
0.0595832
0.000170677
0.000148621
0.000169272
0.00014799
0.0164239
0.000148395
0.000148233
0.00015373
0.000151098
0.069482
0.0222357
0.000254764
0.0392602
0.0952078
0.000157473
0.000148862
0.000152043
0.000401072
0.000148283
0.000148721
0.00017027
0.0747537
0.000256667
0.000145812
0.000165987
0.000167884
0.0002183
0.0071646
0.000147221
0.000145392
0.000154423
0.0654146
0.000163923
0.0833375
0.000152258
0.000149038
0.00014827
0.000148205
0.000154703
0.000240658
0.0306192
0.0546431
0.000157192
0.000148487
0.00779463
0.000150694
0.0588045
0.0499832
0.000158526
0.0300298
0.0427499
0.038388
0.000186993
0.000167977
0.0561684
0.000165764
0.000160711
0.000170232
0.000230076
0.000151014
0.000506254
0.000148641
0.0220449
0.0726427
0.00014612
0.000153261
0.00016751
0.00035923
0.000169473
0.000148886
0.000163
0.000151812
0.000159183
0.00025204
0.000149108
0.0121549
0.0264938
0.00014869
0.000166776
0.000176651
0.000148622
0.0313484
0.012728
0.075
0.0317118
0.000148369
0.000155109
0.000158414
0.000149835
0.000251018
0.000170027
0.000149709
0.000190559
0.000155178
0.0217397
0.000175361
0.0324063
0.000151673
0.000152624
0.000164138
0.000200338
0.000190484
0.000148497
0.01017
0.0588115
0.0351751
0.0437604
0.0274107
0.058979
0.0508081
0.000148479
0.000148517
0.000149258
0.000249789
0.000180828
0.00018983
0.0127537
0.000150098
0.000145668
0.000148591
0.000241455
0.000145902
0.000160451
0.000153225
0.00229374
0.00015151
0.000147203
0.00014867
0.000148656
0.000149011
0.000160343
0.000251451
0.000160802
0.0632693
0.000148485
0.000148239
0.0807944
0.0751087
0.0231451
0.000198522
0.000164226
0.000306625
0.000146913
0.000169945
0.00015261
0.000148638
0.000156101
0.0265957
0.000152942
0.000201147
0.0380421
0.000150339
0.000148617
0.000155505
0.000240854
0.000149808
0.00141732
0.000149178
0.000243258
0.000148842
0.000150272
0.0001601
0.000171963
0.00014927
0.000298038
0.0425078
0.000236541
0.077791
0.000148778
0.02769
0.000198663
0.000148505
0.0727909
0.00014981
0.000162028
0.000149585
0.000149801
0.000147751
0.000148627
0.000150658
0.000156082
0.000191151
0.00015006
0.000148681
0.000165985
0.000147014
0.0964142
0.000148835
0.000166987
0.000170514
0.0463647
0.0080565
0.000149016
0.000241925
0.000146861
0.000166578
0.000174096
0.000216946
0.000181877
0.000149809
0.000212366
0.000168514
0.00019984
0.000961097
0.000161326
0.00021441
0.000188556
0.00019224
0.000151419
0.000148107
0.000352875
0.0106249
0.000155476
0.000148138
0.00821158
0.00014714
0.000176179
0.000147982
0.000178798
0.0705195
0.00014494
0.0143218
0.000158925
0.000149089
0.000228296
0.000147116
0.000161751
0.0325836
0.000173532
0.000292591
0.000147726
0.00014976
0.000162198
0.000149522
0.000149628
0.000162817
0.000164144
0.000191072
0.000180488
0.000149188
0.000166019
0.000147973
0.000148508
0.000149453
0.00014852
0.00390347
0.00014853
0.00015202
0.000264574
0.000147088
0.000148062
0.069038
0.000149658
0.0141622
0.000153342
0.0582461
0.00026039
0.000164844
0.0162991
0.000180744
0.000314599
0.000150799
0.000234266
0.000158995
0.00014801
0.00014812
0.000151973
0.000166264
0.000148587
0.000172046
0.0001475
0.000152622
0.00690505
0.0310897
0.00059834
0.000155944
0.000163631
0.0485167
0.0266195
0.000149182
0.000160071
0.000382863
0.000149998
0.000170003
0.0298269
0.0527125
0.000161499
0.000178773
0.000151439
0.000274981
0.000149908
0.000161572
0.0424928
0.000149499
0.000148188
0.0965259
0.000172835
0.000258213
0.0781558
0.000207597
0.000150268
0.000147522
0.000150408
0.0351647
0.0210724
0.052969
0.000176517
0.000148723
0.0543785
0.000148769
0.00021917
0.000155659
0.000153801
0.000176844
0.000148504
0.104979
0.0974421
0.000146905
0.000190011
0.000181757
0.0275237
0.000174259
0.000188431
0.000254713
0.000170515
0.000272625
0.000189621
0.000148789
0.000172227
0.00016895
0.0031887
0.000148353
0.000250517
0.000175264
0.000190219
0.000149814
0.0898812
0.000159394
0.00015281
0.000147991
0.000167204
0.000166884
0.000166803
0.000148855
0.000151172
0.00017309
0.0108327
0.000177853
0.000149072
0.000150723
0.000172141
0.000256654
0.000149174
0.000183018
0.0649387
0.000168217
0.0477581
0.000176385
0.033309
0.000380663
0.000148504
0.0318639
0.000149552
0.000155521
0.000168883
0.000170062
0.000198364
0.000181453
0.000166257
0.000167724
0.000164805
0.000153901
0.000145828
0.000170253
0.000158253
0.000157772
0.0049458
0.000157428
0.00015969
0.000148001
0.0276923
0.000181489
0.000149184
0.000156585
0.00015189
0.0374298
0.00021233
0.000168909
0.0404321
0.000142343
0.00137634
0.000198806
0.000259202
0.000147614
0.000186899
0.000148619
0.000155832
0.075
0.0312421
0.000392667
0.00404001
0.000148832
0.0324563
0.000147589
0.00019988
0.000155246
0.000139944
0.0946435
0.000159489
0.000148058
0.000359343
0.000162226
0.000148352
0.0414442
0.000148573
0.000152945
0.000158288
0.000149551
0.000163987
0.000152033
0.000148743
0.000163719
0.0004871
0.000175548
0.000177987
0.000148334
0.038777
0.0292789
0.000147961
0.000279939
0.000155162
0.000157604
0.0464395
0.000147944
0.000151005
0.000157108
0.0594003
0.000148371
0.000149173
0.000172723
0.000156212
0.000147841
0.000160069
0.000162105
0.00299343
0.000173857
0.000172103
0.000251738
0.000148584
0.000173443
0.000146148
0.0372109
0.000162811
0.000148569
0.000161327
0.00019294
0.00014895
0.000149888
0.000219487
0.0197416
0.00015064
0.0384711
0.00014924
0.000146106
0.000187168
0.000148335
0.000148531
0.105801
0.00014983
0.000174932
0.0002274
0.0558791
0.00189336
0.000148178
0.000153
0.000156855
0.000148486
0.000148825
0.000148719
0.000211481
0.000149322
0.00026255
0.000214043
0.000148147
0.000147197
0.000163863
0.000213934
0.000274986
0.000167042
0.000179427
0.000153496
0.0594811
0.000177556
0.000166402
0.00017692
0.000172707
0.00019541
0.0223212
0.000175175
0.028796
0.0122943
0.0211471
0.000156534
0.000148713
0.000169058
0.000159644
0.000147996
0.000150672
0.000179998
0.000149611
0.000150246
0.000148458
0.000145338
0.0001542
0.000149356
0.022386
0.000148041
0.0866408
0.000148539
0.000174591
0.000151151
0.000214328
0.000174515
0.000148884
0.0406877
0.000152911
0.000149519
0.000175872
0.000147871
0.000159266
0.000148946
0.026455
0.000154292
0.000174631
0.000171424
0.0357316
0.000158568
0.000266957
0.00484599
0.000170186
0.000149604
0.000152485
0.000177019
0.000185491
0.0294957
0.000147238
0.0298093
0.000149336
0.000169839
0.0835014
0.000166134
0.000121591
0.000155937
0.000167349
0.000154807
0.096662
0.000163636
0.000148865
0.000169209
0.000215891
0.000153058
0.000148497
0.000148896
0.0760795
0.000149696
0.000157899
0.0778992
0.000156065
0.000148515
0.000172309
0.000155506
0.0222851
0.000145685
0.000148613
0.000147262
0.000155151
0.000150686
0.000149666
0.000190199
0.0752023
0.000148418
0.000148714
0.0449395
0.000150222
0.0146031
0.000154665
0.08591
0.000148064
0.000153971
0.000146867
0.0325635
0.075331
0.000159656
0.000169708
0.000155884
0.000148536
0.000148795
0.0248722
0.000148828
0.000199802
0.000147478
0.000178563
0.00014929
0.061461
0.000147113
0.00018023
0.000148103
0.000248267
0.000615536
0.00014768
0.000166662
0.103023
0.000192104
0.000702717
0.000144528
0.00021878
0.000152149
0.000168637
0.000199113
0.014541
0.000149958
0.000174916
0.000156987
0.000148807
0.0277773
0.0337626
0.000191583
0.000226053
0.000365627
0.000163258
0.0607586
0.00014793
0.000147603
0.000194193
0.0989759
0.000254401
0.000215419
0.00153546
0.000146951
0.0927517
0.0410023
0.0829665
0.00014931
0.0372515
0.0429505
0.000665032
0.000417039
0.0585555
0.000200775
0.00016362
0.000223923
0.000154754
0.000148684
0.0180063
0.000201805
0.000145674
0.0474775
0.000149273
0.000158962
0.000176962
0.000155973
0.0247697
0.000160685
0.011068
0.000179936
0.000155245
0.00472515
0.090886
0.000218569
0.000150055
0.00015489
0.000188907
0.000169093
0.000146972
0.000175963
0.000167904
0.000211152
0.000148599
0.000237349
0.000154233
0.000169225
0.00463018
0.000274752
0.000151576
0.000189308
0.0365725
0.000149483
0.000151454
0.0768917
0.00031035
0.000155023
0.000156155
0.000148672
0.000175719
0.000158359
0.0388551
0.000197593
0.000150524
0.000149448
0.000166812
0.000159885
0.000138986
0.0361694
0.000147997
0.00014838
0.000159551
0.000149283
0.000155136
0.000151745
0.000151807
0.000155061
0.000148238
0.000154808
0.000149481
0.000181609
0.0138247
0.000149753
0.0704827
0.0175677
0.000146165
0.000185489
0.000191852
0.000181292
0.000151076
0.000201938
0.000160542
0.000169162
0.00016439
0.000152791
0.00014935
0.0284603
0.000162727
0.000409159
0.000151012
0.000148632
0.000148286
0.000174178
0.000148362
0.000180508
0.000189436
0.00034801
0.000147777
0.000283086
0.0614252
0.0615463
0.000146877
0.000205451
0.000229774
0.0640267
0.0416679
0.000150501
0.000150068
0.000202479
0.000821071
0.000187455
0.000175206
0.000282223
0.0001495
0.00014821
0.000164997
0.00014932
0.000149239
0.000214098
0.000149768
0.000170069
0.00014801
0.0920199
0.0665238
0.0207096
0.00473935
0.0576981
0.000149243
0.000149014
0.104633
0.000147469
0.000147784
0.000146137
0.000187106
0.0842303
0.0309206
0.000156651
0.000149707
0.000152464
0.000163394
0.0376549
0.000148175
0.000158726
0.0936569
0.00014928
0.000149178
0.0428725
0.000198059
0.000153638
0.000148487
0.0835184
0.0583554
0.000149132
0.000244524
0.00014969
0.0635267
0.000648294
0.000154156
0.0234224
0.0149874
0.0584592
0.000147855
0.000149936
0.000149645
0.000149903
0.0760484
0.000148217
0.000206755
0.000262964
0.0276627
0.00015159
0.000175497
0.000121739
0.000176672
0.103161
0.0564148
0.00014543
0.000158462
0.000158669
0.000221159
0.0439003
0.000145168
0.0269192
0.000161108
0.000178132
0.000151079
0.000147604
0.000285419
0.000169999
0.0174977
0.000149313
0.000175587
0.000151303
0.000214669
0.000155653
0.0736546
0.00226623
0.000213907
0.000205144
0.000148532
0.000153563
0.000199278
0.000184553
0.0629266
0.105641
0.000148938
0.000244926
0.000170963
0.0865468
0.000160616
0.000172111
0.000171537
0.000149555
0.0665843
0.00014856
0.000167961
0.0288999
0.0907624
0.00610327
0.0857369
0.00015856
0.000180111
0.000147298
0.0925817
0.000157689
0.0754241
0.000147216
0.0302632
0.000144993
0.0001482
0.00016727
0.000158921
0.000160291
0.000148732
0.0433417
0.000179382
0.000148232
0.000166857
0.0343442
0.00025315
0.000148733
0.0607495
0.000154689
0.000170648
0.000168458
0.000145894
0.000181355
0.000148184
0.0748358
0.000174051
0.000160895
0.000148504
0.000330631
0.000172945
0.000147203
0.0390595
0.0255602
0.000263924
0.000146682
0.00133484
0.000148976
0.00019859
0.000161981
0.000183999
0.0480549
0.0436905
0.000159917
0.0846456
0.000170503
0.000158252
0.000147364
0.0506528
0.000181805
0.00019793
0.000165837
0.000149593
0.000348926
0.000187664
0.000391911
0.000258814
0.103996
0.0429342
0.0468624
0.0389029
0.000158525
0.000159076
0.000148717
0.000149484
0.000145342
0.000233024
0.000159235
0.000160275
0.070866
0.000148172
0.000147129
0.00017753
0.000216695
0.000161922
0.000147447
0.0821539
0.000155131
0.000181708
0.000149743
0.023228
0.000157604
0.091674
0.000167096
0.000168859
0.000172444
0.000148679
0.00952436
0.00015809
0.00018398
0.000149059
0.000147335
0.0289387
0.0454284
0.0381265
0.000148329
0.000184175
0.000211865
0.000149454
0.000148084
0.000149404
0.0833086
0.000172313
0.000163735
0.00016158
0.000159396
0.0261363
0.000181904
0.000266322
0.000160102
0.000167673
0.000145304
0.000186615
0.000174554
0.000148583
0.0209115
0.0591619
0.0808417
0.0161452
0.039769
0.0893331
0.105174
0.000151671
0.000148335
0.0833569
0.0486925
0.0720987
0.000149181
0.000174455
0.000148714
0.000148399
0.00015632
0.0924925
0.000188694
0.00014821
0.000293867
0.000200806
0.000177957
0.0486303
0.0448057
0.00028521
0.000147368
0.0743743
0.000242549
0.000306604
0.000168437
0.000175438
0.000149431
0.000147527
0.000170815
0.000174964
0.000154691
0.000176307
0.000161914
0.000155112
0.000245982
0.0429852
0.000159661
0.000178011
0.0607298
0.000241048
0.000148757
0.000195015
0.000247803
0.0285683
0.000171398
0.000149755
0.000163864
0.000158585
0.000158937
0.000145899
0.00015934
0.00016703
0.000180523
0.000216787
0.000149502
0.000152297
0.0437687
0.0315669
0.087283
0.000188045
0.000211713
0.00014478
0.000148636
0.000164439
0.000147139
0.100796
0.000148636
0.000149827
0.000146513
0.0223523
0.0339402
0.000150263
0.000189277
0.000159785
0.000162079
0.00016366
0.000160114
0.000175287
0.000168225
0.0194485
0.00015936
0.0526156
0.000168405
0.08521
0.00016231
0.000147492
0.000147259
0.000202231
0.00021947
0.000146912
0.000163453
0.000162754
0.000178261
0.00325737
0.0214878
0.0131097
0.000149826
0.0123637
0.000159206
0.000165192
0.00014849
0.000183094
0.000153265
0.0275466
0.000330062
0.00016665
0.000148633
0.0292687
0.000156123
0.0439516
0.0483696
0.000246158
0.000154276
0.000210364
0.017919
0.00686538
0.0628977
0.000180077
0.000148788
0.000168423
0.000148348
0.0916754
0.000154623
0.000164473
0.000297235
0.0805467
0.00014857
0.000148564
0.0452266
0.000171434
0.0810503
0.000159096
0.000148492
0.000173417
0.000248162
0.000162866
0.000140067
0.00016509
0.00297573
0.000156563
0.000149643
0.000148495
0.000258099
0.000150835
0.000185295
0.000148777
0.000149077
0.000236069
0.000159548
0.000149561
0.00014835
0.000165401
0.000850728
0.000178477
0.000171373
0.000155668
0.000181556
0.000148986
0.000197684
0.000164665
0.000175753
0.000167567
0.000162504
0.000175817
0.000163478
0.000148219
0.000191372
0.0431589
0.0311815
0.000149722
0.00363917
0.0425691
0.000148494
0.000150807
0.000244333
0.0522352
0.000156506
0.0407846
0.000394413
0.000149455
0.000199992
0.000145287
0.000158909
0.000182808
0.0805713
0.000211904
0.000248753
0.000192044
0.015726
0.068916
0.00015385
0.0558063
0.000148578
0.00026892
0.0659581
0.000148741
0.000148462
0.0320893
0.000149198
0.000148661
0.000309254
0.0490922
0.000253803
0.000159586
0.0598642
0.000148612
0.0265473
0.0478766
0.000149223
0.000271924
0.0595826
0.0558521
0.0380753
0.0480414
0.0327599
0.000147577
0.000151829
0.000183991
0.000189403
0.000148635
0.000240439
0.000148519
0.0479394
0.000300748
0.000164727
0.00027037
0.0476331
0.000295414
0.00024853
0.000165816
0.0194243
0.000440215
0.000157921
0.00014562
0.000180033
0.000161845
0.000147369
0.0889884
0.000148486
0.000141928
0.000149312
0.08906
0.000158379
0.000148411
0.0111105
0.000156322
0.000160932
0.0293954
0.0990225
0.00232029
0.000162166
0.000180467
0.000152217
0.000176141
0.000213497
0.000176645
0.000149389
0.000382958
0.000185811
0.000162268
0.0342779
0.000174311
0.00016274
0.000209616
0.000189237
0.000179839
0.000148386
0.000231025
0.000147302
0.000213888
0.000296701
0.0545897
0.000147299
0.000170345
0.0235527
0.000153474
0.000181674
0.00016711
0.000172689
0.0895037
0.000186382
0.000152214
0.0454284
0.000147328
0.027071
0.000148859
0.000152597
0.000214134
0.0369434
0.00016252
0.000191642
0.000235288
0.000167224
0.000150048
0.000178666
0.000174261
0.0723711
0.000155591
0.00947786
0.000219466
0.000167186
0.00016351
0.000180114
0.000167623
0.00016828
0.000186634
0.00016306
0.000155164
0.000149686
0.00660668
0.000148709
0.000161993
0.000145333
0.000209845
0.000162783
0.00018706
0.0548461
0.000151453
0.000255691
0.000144472
0.000149367
0.000149269
0.000149373
0.000160327
0.000147882
0.000200652
0.0340565
0.000187354
0.000178139
0.000157537
0.000149223
0.000268339
0.000148913
0.0108435
0.0300804
0.0282006
0.000223509
0.000164672
0.000161396
0.00014922
0.000158496
0.00017097
0.000170371
0.0628713
0.000187576
0.0598727
0.000224251
0.000149365
0.000147025
0.0314149
0.000148501
0.000164601
0.0001668
0.000368761
0.000153681
0.0805181
0.000149148
0.000156943
0.000148719
0.000150822
0.000178511
0.000209328
0.000150004
0.000168744
0.000159819
0.00017925
0.000187567
0.000226235
0.000208635
0.000244345
0.000219606
0.000159591
0.000152153
0.000187492
0.0340611
0.102085
0.0368716
0.000167761
0.0489557
0.000208894
0.000152038
0.000148152
0.00019069
0.000149
0.000168619
0.0217349
0.000148334
0.000147945
0.00081234
0.000171438
0.000181801
0.00375723
0.000149209
0.0334639
0.000170303
0.0870405
0.00015756
0.000149001
0.0290687
0.000165504
0.000148763
0.000172846
0.000149697
0.000196016
0.000161768
0.000164838
0.0941708
0.000159985
0.0504047
0.000147975
0.0520453
0.000149279
0.000158411
0.000150764
0.000173113
0.000148905
0.000166691
0.0306694
0.000348453
0.000178454
0.000161864
0.000168928
0.000148467
0.00014973
0.000152818
0.000149215
0.000158025
0.0926952
0.0452833
0.00019464
0.000149457
0.000199718
0.00022438
0.000218305
0.000159207
0.0512606
0.000148582
0.00014477
0.000148446
0.0627183
0.000149483
0.000148732
0.0340471
0.000148353
0.000217363
0.000172583
0.000148063
0.067753
0.000162878
0.0891607
0.000148694
0.00122521
0.000151817
0.000167763
0.0248434
0.000188737
0.000148212
0.00016152
0.0182461
0.000168451
0.000202061
0.000166019
0.000157945
0.000191877
0.000158842
0.000150224
0.00780346
0.000162458
0.000163094
0.000222757
0.000148453
0.000147952
0.000149208
0.000166819
0.000149309
0.000155946
0.0579173
0.0157345
0.000171959
0.00842218
0.000190376
0.00017101
0.0818754
0.0507862
0.000150274
0.0168593
0.0921062
0.0413492
0.024254
0.000164468
0.0164827
0.0415129
0.0430398
0.0287214
0.101117
0.000163353
0.000170261
0.000158254
0.000159521
0.000150824
0.000670444
0.000149905
0.0172446
0.000175526
0.000207406
0.000145121
0.00019472
0.00016418
0.000152372
0.000149954
0.000148693
0.000174869
0.000154413
0.000150397
0.000177033
0.0648858
0.000155628
0.00019952
0.00014698
0.000174743
0.000169946
0.000149449
0.00015706
0.00014788
0.0885551
0.0642537
0.000227017
0.0367268
0.000161782
0.000197375
0.000148903
0.000177615
0.000149485
0.000150329
0.00014957
0.0372583
0.000147208
0.000181163
0.000287328
0.000158308
0.000166322
0.00014838
0.0767872
0.000229817
0.0334649
0.0433069
0.000217575
0.000344629
0.0363599
0.000358729
0.000288627
0.0165347
0.000175437
0.000159371
0.0443683
0.0936569