/*--------------------------------*- C++ -*----------------------------------*\
| =========                 |                                                 |
| \\      /  F ield         | OpenFOAM: The Open Source CFD Toolbox           |
|  \\    /   O peration     | Version:  v2012                                 |
|   \\  /    A nd           | Website:  www.openfoam.com                      |
|    \\/     M anipulation  |                                                 |
\*---------------------------------------------------------------------------*/
FoamFile
{
    version     2.0;
    format      ascii;
    class       volVectorField;
    location    "850";
    object      ddtCorrDdt0(U);
}
// * * * * * * * * * * * * * * * * * * * * * * * * * * * * * * * * * * * * * //

dimensions      [0 1 -2 0 0 0 0];


internalField   nonuniform List<vector> 
13917
(
(-0.00193846 0.00130226 -1.03305e-17)
(-0.000300799 0.000504106 -5.40211e-19)
(-0.00842995 0.00433858 -9.92666e-18)
(0.00199039 0.00141049 -8.67056e-18)
(-2.22342e-05 -0.00016476 3.92995e-18)
(-0.00043754 -0.00315745 8.1853e-17)
(-0.00823267 0.00419428 8.08571e-18)
(-0.00768766 0.00358461 -6.30999e-17)
(-0.000621795 0.00164353 -2.51688e-17)
(-0.00278589 0.00141852 -1.84782e-17)
(0.00314792 0.0107398 1.63908e-18)
(0.00481668 0.00578242 -2.93826e-17)
(0.00206246 0.00142452 5.24379e-18)
(0.00600949 -0.000862915 -5.77602e-17)
(-0.000829841 -5.58242e-05 1.44141e-18)
(-0.00083441 0.000191529 6.55878e-19)
(-0.000375747 0.000420621 -6.43968e-19)
(-0.00159378 0.0045641 5.44011e-17)
(0.004833 0.00559794 3.04253e-17)
(-2.70418e-05 -2.79473e-05 7.54335e-19)
(-3.1663e-06 -4.09795e-05 -9.71935e-19)
(-0.00770893 0.00397859 2.37494e-18)
(-4.70827e-05 -5.84559e-05 1.13086e-19)
(-0.00907 0.00401139 5.2077e-17)
(-0.000113866 -0.000104166 4.46754e-19)
(-0.0105602 0.00473549 2.91574e-17)
(-0.00032639 -0.00121658 -7.17164e-17)
(-0.000747738 -0.00143614 -3.50143e-17)
(-0.00238655 -0.00298761 -7.63041e-19)
(-0.00316971 0.00259338 6.16371e-17)
(-0.00202179 0.00159656 -1.98891e-18)
(-0.00114583 0.00110233 -2.8644e-17)
(-0.000504841 -0.000931143 -1.32136e-17)
(-8.83324e-05 -0.000497395 2.96367e-17)
(-0.000100179 -0.000144615 -2.59084e-18)
(-0.0250439 0.0103653 -3.76455e-17)
(-4.36558e-05 -6.28873e-05 2.81751e-19)
(0.00276858 0.000231278 -4.3852e-18)
(0.00249288 0.00186371 -1.86095e-17)
(-0.0103751 0.00116979 -6.5043e-18)
(2.07308e-05 1.00946e-05 6.23503e-18)
(2.65206e-07 -1.56811e-05 1.13748e-18)
(0.000354646 0.000179212 -8.43059e-18)
(-0.00106195 -0.00182833 3.85737e-17)
(0.000115125 0.000889125 -7.59408e-18)
(-0.000185501 -0.000616086 1.64686e-17)
(-0.00143146 0.00458442 -4.64093e-17)
(-0.000319692 0.00676513 2.75578e-17)
(-0.000679448 -0.00435357 5.09251e-17)
(-1.70762e-05 1.3156e-06 -6.14593e-18)
(0.000365895 0.00270611 8.49889e-18)
(-0.000110713 -0.0002407 -7.6742e-18)
(-0.000640706 -0.00462659 8.0145e-18)
(-0.000101101 -0.000533192 1.73135e-18)
(-0.000392009 0.000410957 2.89841e-19)
(-0.000404567 0.00222375 6.87346e-18)
(0.00551686 0.0104809 -2.74912e-18)
(-0.000235479 2.81782e-05 9.19296e-19)
(-0.000418936 0.00172137 -1.00068e-17)
(0.000109228 0.000844492 -2.35345e-18)
(-0.000142007 4.20074e-06 -5.49284e-17)
(-0.000298547 0.000530183 2.70813e-18)
(0.00418328 -0.000615091 3.14152e-17)
(-2.87048e-05 -2.77301e-05 9.77916e-19)
(-0.000491993 -0.0030827 -2.71212e-17)
(7.56975e-05 -6.66744e-05 5.90624e-17)
(5.28125e-07 -0.000176303 5.78281e-18)
(-3.63036e-06 -0.00020682 1.2393e-17)
(0.00342322 0.00816415 -3.7723e-17)
(-0.0017419 0.000796456 -6.61449e-18)
(-2.37133e-05 -0.000161467 -5.78885e-18)
(-0.00143799 0.00194197 -5.35136e-18)
(0.00709758 -0.000811985 -3.85968e-17)
(-0.000113955 -0.000102538 -8.31526e-19)
(-0.00089392 -0.00430796 1.4883e-16)
(0.006514 0.00526391 -8.73868e-18)
(0.00731778 -0.000863954 -3.58618e-17)
(0.000129481 0.00134255 6.49761e-18)
(-0.0128085 0.00496093 2.50478e-17)
(-4.97225e-06 -6.89482e-05 -5.94333e-19)
(-1.19784e-05 -7.00788e-05 4.17811e-19)
(7.22801e-07 -0.000174152 8.99881e-19)
(-0.000651935 -0.00302104 -3.10352e-17)
(0.00223899 0.000405358 1.3185e-17)
(0.00108338 -0.00107688 1.64655e-17)
(0.000168657 0.00131425 8.18537e-19)
(-1.82962e-05 -6.29735e-05 -4.2391e-19)
(-0.000722544 5.96118e-06 -3.74654e-17)
(0.000414694 0.00265659 -3.01266e-17)
(0.000370679 0.00019028 1.79216e-17)
(0.00566892 -0.000377508 -1.65174e-17)
(-0.00314178 0.00200777 7.48215e-17)
(-3.08158e-05 0.000484661 -8.77201e-18)
(-0.000463609 -5.0017e-05 -2.64404e-18)
(-0.000624825 -9.45986e-05 -1.08316e-17)
(-0.000271086 -0.00306573 -7.17498e-17)
(0.000953686 0.00743879 1.40843e-17)
(-0.000892658 0.0061231 -7.77035e-17)
(0.0080853 0.0077487 3.51048e-17)
(-0.000633211 -0.00211901 -5.04311e-17)
(3.99194e-05 0.000106184 -4.72175e-18)
(-0.000128354 -0.00087816 -3.75181e-17)
(-0.000968617 -0.00183954 -9.08673e-18)
(0.000366761 0.00162639 -5.20699e-18)
(5.27046e-05 0.000263219 -4.69855e-18)
(-0.000414646 0.0018629 -1.29232e-17)
(-0.00256269 -0.0025548 -3.39082e-18)
(-0.000405907 0.0069934 -4.66251e-17)
(-0.0003806 0.000454957 -2.7955e-18)
(-0.00217419 0.00141931 -1.25023e-17)
(0.0034637 -0.0019942 -8.22893e-17)
(-0.010149 0.00136546 -3.29459e-18)
(0.00566422 0.00659325 -1.90952e-17)
(-0.000144216 0.00172206 -4.98974e-17)
(-0.000117212 -0.00030744 5.18044e-18)
(-0.000649918 -0.00444847 -2.76353e-17)
(-9.48443e-05 -3.77539e-05 1.03432e-19)
(-0.000620325 -0.0038593 -1.47796e-17)
(-0.00101868 0.000471524 -4.83985e-17)
(-0.000187166 -0.000522127 7.33845e-18)
(-9.64904e-07 -2.98502e-05 6.82952e-19)
(0.00688442 0.00767865 4.8798e-17)
(0.000957805 0.00027553 -1.03446e-17)
(-0.000705789 -0.00138372 3.70881e-17)
(-1.16581e-05 3.95566e-06 -3.25346e-18)
(-0.00044355 -4.74446e-05 5.57964e-18)
(-4.68669e-06 0.000768848 -8.83179e-19)
(-1.37368e-05 1.91128e-06 2.92464e-18)
(0.000269464 9.31748e-05 -1.75964e-18)
(-0.000391616 -0.00318509 4.86539e-17)
(-0.00152007 0.00142826 -2.14657e-17)
(-0.000107404 -0.000300886 6.82692e-18)
(8.86726e-05 0.000901946 -9.97578e-18)
(-9.87817e-07 -3.37459e-05 -8.40032e-20)
(-0.00768065 -0.00353259 7.16732e-18)
(-0.00957165 0.00433472 -4.43223e-17)
(-0.00195742 0.00122452 -4.73231e-17)
(-0.0006385 -0.00216993 -3.23296e-18)
(-3.99252e-06 -0.000178744 -9.13427e-18)
(-0.000155596 -0.00052361 -1.65173e-17)
(-0.0246292 0.0109752 -4.50168e-18)
(0.000183812 0.000449523 -2.308e-18)
(-0.000199762 -0.000224319 -2.03968e-18)
(-0.000990527 -0.00207118 5.68704e-17)
(-1.34001e-05 -0.000207113 -1.76522e-17)
(-0.00458783 0.00293636 -1.81375e-18)
(-0.00264276 -0.00295386 5.14105e-18)
(-0.000114733 -0.000234631 4.90545e-18)
(0.00020242 0.00039506 -3.26936e-18)
(-0.00123017 0.000954082 -6.7327e-19)
(0.00139115 0.00590871 1.60128e-17)
(-0.00034548 -0.0048367 7.62618e-17)
(0.00297156 0.00753792 4.83738e-17)
(-0.00187281 0.000120566 -1.62358e-17)
(-0.000869011 0.00164799 -1.14041e-17)
(0.000509473 -0.001317 6.28777e-18)
(-0.00165963 0.000739222 1.02001e-17)
(-0.0197606 0.00581857 2.23462e-17)
(0.00784441 -0.000972561 3.05938e-17)
(-0.00757021 -0.00345332 2.85315e-17)
(-0.000378992 -0.000311825 3.24986e-18)
(-3.02582e-05 -0.00125147 3.30416e-17)
(-5.21986e-06 -5.89296e-05 1.04572e-19)
(0.00144754 0.00752185 -3.79212e-17)
(0.00544912 0.00657168 1.77152e-17)
(0.00536286 0.00774192 1.13384e-17)
(0.000333694 0.00159432 -4.37714e-18)
(0.000508996 0.0061421 1.75937e-17)
(0.000120827 0.00069548 -1.04778e-17)
(-0.000117601 -0.000911113 2.49005e-17)
(-0.00196071 0.000329575 5.26318e-18)
(0.00364913 -0.00148891 -9.27842e-17)
(0.00628872 0.00656681 7.39657e-17)
(-0.000492034 0.000411679 -2.08581e-18)
(-0.00925775 0.00340227 -1.14681e-17)
(-0.00199728 -8.09053e-05 -8.54809e-18)
(-0.00200007 0.00169266 9.32804e-18)
(-0.000488146 -0.0040679 3.06278e-18)
(-0.00582933 0.00320833 1.34947e-17)
(-0.00015323 0.000281509 3.66671e-18)
(-0.00318198 0.00212326 -2.31522e-17)
(-0.00208888 0.00168548 5.73446e-18)
(0.000201971 0.000455906 -1.5554e-18)
(-1.96171e-05 -6.65708e-05 4.60351e-19)
(-0.000924301 -0.000358325 -1.21579e-18)
(-0.0117751 0.00519261 -4.80079e-17)
(-0.00448232 0.00304029 -7.46174e-17)
(0.000525626 -0.00128389 -2.55362e-17)
(-0.00113723 0.00303992 2.84477e-17)
(0.00455738 0.00805559 -3.05158e-17)
(-0.0222782 0.00907251 -4.76843e-17)
(0.000881217 -0.00104266 -4.28985e-18)
(-0.00463657 0.002118 6.69026e-18)
(-4.51869e-05 -9.07962e-05 -7.59477e-20)
(-0.000455118 -0.00228554 3.84054e-17)
(-0.000335446 -0.00115924 4.15601e-17)
(4.70697e-05 5.99366e-06 -1.26626e-18)
(-4.22047e-05 0.000487353 5.34229e-18)
(-0.00258096 -0.00209564 -6.1537e-20)
(-0.00241313 -0.000468112 -1.36169e-17)
(0.00142484 0.00261449 -5.84996e-18)
(-1.72495e-05 7.80755e-07 7.98987e-18)
(0.000884689 0.00578367 2.98939e-17)
(0.00154079 0.00582022 -9.48201e-18)
(0.00757265 -0.000921052 -9.05011e-18)
(-0.0076106 0.00400016 -2.31671e-17)
(-9.19304e-05 -0.000150524 4.55882e-18)
(-0.000244533 3.15364e-05 -8.43045e-19)
(-0.000650273 0.00611171 -1.76376e-17)
(-0.010542 0.00492705 2.72874e-17)
(-0.000203688 -0.000212032 3.23728e-18)
(-0.00750693 0.00398947 -6.11808e-17)
(0.0084442 -0.00111575 -4.23486e-17)
(0.00434612 0.00815811 1.70171e-17)
(4.61758e-05 0.00026106 9.38717e-18)
(-0.0015698 -0.0031485 -5.79528e-17)
(-0.000283817 0.00565519 -3.94797e-17)
(0.00620185 -0.00168237 -1.72853e-16)
(-0.000126959 3.16873e-05 2.37319e-19)
(-0.00031862 0.000129207 1.08832e-16)
(-0.000147254 0.000265994 -1.82178e-18)
(-0.00315744 0.00285856 -4.60897e-18)
(1.85756e-05 1.24809e-05 -8.22317e-18)
(0.00334898 8.27988e-05 2.06362e-18)
(0.000142434 0.00155341 6.31783e-17)
(-0.000874814 0.000203204 2.07044e-18)
(-0.00445663 -0.00156583 5.22831e-17)
(-0.000886919 0.00172657 3.70261e-17)
(4.12399e-05 0.000236995 1.60266e-18)
(-0.0253065 0.010597 4.18572e-17)
(0.00630733 0.00635889 -3.25067e-17)
(-0.00105105 0.00307909 -1.69603e-17)
(-0.0102983 0.00465998 3.1569e-17)
(0.00878082 -0.00118935 3.73747e-17)
(7.97498e-05 6.90452e-05 8.60323e-18)
(-0.00118857 0.0011427 3.16504e-17)
(0.00514433 -0.000232813 7.40873e-19)
(0.00121972 -0.00125555 -1.12603e-16)
(-7.84593e-06 -6.5693e-05 -3.79006e-19)
(-4.14606e-05 5.04455e-05 1.36585e-18)
(-0.0128986 0.00172576 3.83532e-17)
(0.0010802 0.00697288 -1.23508e-17)
(-7.03984e-07 -2.18056e-06 1.51587e-19)
(-0.0260532 0.0118988 2.74224e-17)
(-0.00391728 0.00554801 5.6121e-18)
(-2.19314e-05 -0.00119388 -1.63232e-17)
(-0.00174237 0.00143012 -8.17506e-18)
(-7.28149e-06 -6.10865e-05 -2.522e-19)
(-0.00180483 -0.000374539 2.9188e-18)
(0.00837317 -0.00110107 2.99633e-17)
(0.000878884 0.000839631 1.91985e-17)
(-0.00352003 0.00208414 -1.62046e-17)
(-0.000855263 -0.0023676 -2.92478e-17)
(1.84151e-05 0.000760974 -6.81035e-20)
(-0.000224525 9.58125e-06 -2.88996e-19)
(0.00309353 0.00660616 1.22627e-17)
(-0.0120556 0.00215728 -4.40009e-18)
(0.00299741 0.00734285 -2.43344e-17)
(-0.000973573 -0.000361441 6.91202e-18)
(-0.000865522 -2.13977e-05 -2.9931e-18)
(-6.32312e-07 -3.90316e-06 2.84406e-19)
(0.0013358 4.86121e-06 -2.54217e-17)
(-0.00147802 -0.00296732 1.54016e-17)
(-0.0274576 0.0119628 3.41007e-17)
(2.78552e-05 0.000235942 -2.3774e-18)
(0.00751401 -0.00131566 1.35115e-18)
(0.00540831 -0.000678546 -3.00266e-17)
(-0.0185486 0.00556787 6.34023e-18)
(-0.0124457 0.00473134 -4.86283e-18)
(0.00671924 0.0053801 4.32664e-18)
(-9.92778e-06 -6.91757e-05 -2.02096e-19)
(-3.81255e-06 7.16132e-06 -4.30759e-18)
(-0.00124977 0.00482506 3.88805e-17)
(0.0048377 -0.0003529 -1.83952e-17)
(-0.000670853 0.0100645 -3.78599e-17)
(-0.000350483 0.00170775 9.06166e-18)
(-0.0067167 0.00291427 -1.20168e-17)
(0.00453061 0.00360649 2.51154e-17)
(0.00027391 6.67206e-05 9.25831e-18)
(-0.00401825 -0.000439573 -1.06927e-16)
(-2.70452e-05 -1.7715e-05 2.93799e-18)
(-0.00856183 0.0032249 9.69471e-18)
(0.00142739 0.00251748 1.57775e-17)
(-1.23469e-06 -2.18137e-06 1.91909e-19)
(-0.00106196 0.000200875 -1.99544e-18)
(-0.00187209 7.44383e-05 4.3311e-18)
(-7.82964e-05 -0.00121533 -5.05853e-18)
(-0.0260405 0.0116102 -1.35081e-17)
(-0.00138868 5.39646e-05 -9.39524e-19)
(0.000631557 0.000990907 5.03204e-18)
(-0.00634941 -0.00106655 -9.66548e-18)
(-0.010469 0.0044165 3.75268e-17)
(-0.000627298 -0.00287606 9.82566e-19)
(-0.000121643 2.09392e-05 -1.10384e-18)
(-0.017222 0.00475997 5.21964e-17)
(-4.0718e-06 -0.000149822 -7.32729e-18)
(0.000666219 0.000986799 2.08761e-18)
(-8.86815e-05 -3.96075e-05 1.29304e-22)
(-0.00267561 -0.00313497 -6.34489e-18)
(-1.51325e-05 -3.39366e-06 -1.15166e-18)
(-0.00321877 0.0028462 5.71344e-17)
(-0.0016872 0.00137239 -3.70693e-18)
(0.000142342 0.00067969 -4.54225e-18)
(0.00100811 0.00595378 -2.4813e-17)
(-0.000514565 0.00085153 2.00347e-17)
(-0.00053124 -0.00417268 5.02613e-17)
(-0.00193226 -5.19054e-05 -8.21873e-19)
(-0.00303927 0.00197979 2.39755e-17)
(0.000263199 0.000599321 -2.68717e-18)
(-0.000214391 7.75278e-06 2.07679e-18)
(0.00330223 -0.00187104 -6.978e-17)
(0.0021589 -2.89584e-05 2.53815e-17)
(-0.00010012 -2.89401e-05 -3.71232e-20)
(4.86823e-06 9.90223e-06 -1.85137e-18)
(-0.00395283 2.05929e-05 -1.51763e-17)
(-0.000118854 0.000339767 1.41363e-18)
(0.00673063 -0.000700152 9.03017e-17)
(0.000248449 0.000575053 7.09031e-18)
(0.00301925 0.000169448 4.83897e-18)
(0.0014692 0.00101189 -1.22919e-17)
(-0.00487909 -0.000232538 -5.1609e-17)
(0.00057268 0.0038109 6.19035e-18)
(-0.0011084 -0.00433024 -6.34314e-17)
(-0.000374778 -0.000291253 1.02937e-18)
(-0.00749711 -0.00286315 -1.80298e-17)
(-0.00127542 -0.00284847 -2.22058e-17)
(-0.00104898 0.000244639 -2.86368e-18)
(0.00117229 0.00695104 -4.15899e-17)
(-0.00337916 -0.00231078 -3.12223e-17)
(-0.000362992 0.000131942 -7.55784e-19)
(0.000794556 0.000822245 -4.65713e-18)
(-0.000373745 -0.00223883 -2.79957e-19)
(0.00524895 -0.000621574 7.48035e-17)
(-0.000219007 -0.000442551 2.30375e-17)
(-0.00493054 0.000654115 5.57984e-17)
(-0.00121687 0.00126276 2.39275e-17)
(0.000438979 -0.00109023 -1.01773e-16)
(-0.00115185 -0.00272215 3.81383e-18)
(-0.0023997 -0.00143642 -5.80946e-19)
(-0.00243774 -0.00135301 2.14738e-19)
(-0.00734251 0.00393232 4.61601e-17)
(-1.0156e-05 -9.17245e-05 1.37293e-18)
(-0.00204546 0.000364068 8.04162e-18)
(0.00284611 -0.00209559 8.98476e-17)
(-0.00025428 -8.85789e-05 -1.6619e-18)
(-0.000662243 0.000281397 -1.97262e-18)
(0.00493507 -0.000578098 2.72336e-18)
(-0.00262939 -0.00227761 -1.21144e-18)
(-0.00045108 0.000479563 -3.45013e-18)
(-0.0219571 0.00945353 6.15088e-17)
(-0.00225148 -0.0029215 5.49049e-18)
(1.44474e-05 7.14328e-05 2.50022e-19)
(-0.000505473 0.000251946 7.13209e-17)
(-0.0238016 0.0101227 -7.79297e-18)
(-2.93413e-05 -1.73134e-05 -2.78489e-18)
(-4.55619e-05 0.000130147 -5.01982e-18)
(-7.48273e-07 -0.000145609 5.7344e-18)
(0.000218835 0.000401266 4.09954e-18)
(-0.00643416 -0.00141622 4.81476e-17)
(-0.00712038 0.00342048 3.66853e-17)
(0.000485449 -0.00334621 -1.41242e-17)
(0.00275087 -0.00197008 -9.93567e-17)
(-0.000105125 -7.38638e-05 -2.38406e-18)
(-0.00361197 0.00215376 -6.85537e-18)
(0.00119379 -0.00120804 -4.22918e-17)
(0.000732269 0.00483696 1.58448e-17)
(-0.00718928 0.00382782 5.82983e-17)
(0.0042831 -0.000171637 5.30674e-17)
(0.000369481 0.0014966 -4.43663e-18)
(8.44869e-05 0.000130576 -1.73356e-18)
(-0.0270709 0.0121951 -2.73808e-17)
(-3.02561e-05 0.000153812 -1.12576e-17)
(-0.000705204 0.000368085 1.53772e-17)
(8.53526e-05 0.00082372 -2.02904e-18)
(-0.00125383 -0.00463829 1.2979e-17)
(-0.00409145 0.00530251 -1.3434e-17)
(0.0018781 0.00201046 4.58337e-18)
(-1.39701e-05 -0.000102675 -1.82483e-18)
(-0.000560466 0.00590056 -2.51858e-17)
(-0.0032734 0.00216367 3.65649e-17)
(-0.00234239 0.00586192 1.47357e-17)
(-0.00315036 -0.00585297 -3.97712e-17)
(0.000843443 -0.00116395 2.77413e-19)
(0.0064048 -0.00166599 2.26934e-16)
(-0.00189977 -0.00038014 4.76212e-18)
(-0.00268257 0.00141335 1.79036e-17)
(-4.0612e-05 4.32602e-05 -3.69575e-18)
(0.00110394 -0.00122407 1.70189e-16)
(-0.00817516 0.00408007 -1.61974e-17)
(-0.000257836 0.000108184 5.32661e-20)
(-0.00722668 -0.00247957 -7.9523e-18)
(-8.14971e-05 -0.000126481 1.11415e-18)
(-0.0121234 0.00206415 -2.01107e-17)
(0.00142197 0.00102451 -1.308e-17)
(-6.09806e-06 -8.42951e-05 1.051e-18)
(-0.000558767 0.000745187 -1.14726e-17)
(-0.0171139 0.00541845 -3.0423e-17)
(-0.000560496 0.000714223 -5.326e-18)
(-0.0122889 0.00249935 -5.19379e-18)
(0.000296922 -0.00135225 -1.63708e-16)
(0.00676176 0.00862155 1.65194e-17)
(-0.00115137 -0.00304991 -8.15663e-18)
(-0.000357558 0.000149676 2.80479e-20)
(-0.00142523 -0.00303896 -8.85981e-19)
(-0.00120604 -0.00303284 7.20835e-17)
(-6.25424e-05 -3.04001e-05 1.74077e-19)
(-0.00249397 -0.00236737 1.40928e-18)
(-0.000268501 -7.39249e-05 -1.75004e-18)
(-9.39648e-05 -0.0001272 5.42498e-18)
(-0.0031607 0.00255081 -8.39751e-17)
(-1.20766e-06 -5.80639e-06 -1.48477e-18)
(-0.000115278 -0.000112082 1.45384e-19)
(-2.47466e-05 0.000155065 1.30515e-17)
(-0.00701472 -0.000510835 5.39121e-17)
(-4.87468e-06 -5.82478e-05 -2.43285e-19)
(-0.00486837 0.000830797 -4.53696e-17)
(-0.018683 0.00652748 -5.01217e-18)
(0.000669487 -0.00120678 8.79057e-17)
(-0.00459578 0.00196688 1.65255e-17)
(-0.00921355 0.00261882 5.68877e-17)
(0.00564752 -0.00137802 4.51122e-17)
(0.000847644 0.00476923 -3.08462e-17)
(-0.000101891 -7.40365e-05 2.02641e-18)
(-0.00640462 0.00328179 9.54416e-19)
(0.00238765 0.00184728 2.40705e-17)
(-0.00130388 0.00117008 1.18303e-17)
(-5.03741e-05 -8.80224e-05 1.2044e-18)
(-0.00556323 0.00316129 -9.91395e-18)
(-0.00934074 0.00450189 -7.36129e-17)
(-0.0207399 0.00717194 8.99475e-18)
(-0.00079769 7.79768e-05 -3.80795e-19)
(-0.00452534 0.00667367 4.50304e-18)
(-0.000191374 -0.000427411 8.3006e-18)
(0.00255502 0.00196699 -2.20977e-18)
(-0.00212198 0.00592881 -2.49489e-17)
(-0.000565011 0.00051707 -3.76553e-18)
(-0.0274221 0.0120818 1.88695e-18)
(-0.000362985 0.000471394 3.81365e-18)
(-1.48262e-05 -4.03416e-06 1.06054e-18)
(0.00623163 -0.000568441 3.41078e-19)
(-0.00222796 0.00167775 -1.1149e-18)
(-0.00263091 0.00191021 6.76134e-18)
(-0.00378193 0.00106111 -2.06906e-17)
(0.000706478 -0.00118306 -5.17112e-17)
(0.000250726 0.00108678 -2.6607e-17)
(0.00489904 -0.00210914 5.44479e-17)
(0.00652746 -0.000758591 5.07976e-17)
(0.000234212 8.85461e-05 -6.79294e-18)
(-0.00103361 0.00546076 2.10144e-17)
(-0.00055779 0.000538729 1.93977e-18)
(-0.000256327 1.11797e-05 2.93654e-18)
(-0.00840678 0.00198648 -1.31262e-17)
(-0.00140339 0.00479912 -6.57264e-18)
(0.000408907 2.01295e-05 6.73098e-18)
(-0.00254179 0.00343914 -7.25978e-18)
(0.000535977 0.00454191 2.99527e-17)
(0.0064167 -0.00090867 1.22657e-17)
(-6.63888e-05 -2.37488e-05 -5.77866e-19)
(0.0021328 0.00814741 2.19915e-17)
(-7.04675e-05 -0.00087986 1.22381e-16)
(-0.00391781 -0.000168133 1.58411e-17)
(-0.00404116 0.00104818 5.27986e-18)
(-5.62688e-06 -5.48788e-05 -1.26909e-19)
(-0.000263803 9.88302e-05 8.41631e-20)
(8.34369e-05 1.08346e-05 -5.46167e-20)
(-0.00166088 0.000670925 -1.15904e-18)
(8.69876e-05 0.000122305 -1.55147e-19)
(-0.0140255 0.00593555 4.59238e-18)
(0.000372436 -0.00328722 1.6703e-17)
(-0.0013619 0.000106829 -3.70801e-18)
(0.000834962 -0.00126612 7.48681e-17)
(-0.000331422 0.00225231 6.66419e-18)
(0.00109484 0.00780708 1.51689e-17)
(0.00442669 -0.00223468 -2.12572e-17)
(-0.00277191 -0.00294238 5.7734e-18)
(0.00525218 0.00906842 -1.36138e-17)
(-0.0244831 0.0104718 2.52994e-17)
(0.00199684 0.00794434 -3.59284e-17)
(-0.0025116 0.00293045 4.1674e-17)
(-0.00762219 0.00607098 1.62736e-17)
(0.00283499 0.00472036 1.26539e-17)
(0.00670355 0.00927504 9.65971e-18)
(-0.000605191 -0.00311818 -2.28133e-17)
(0.00381286 0.00480817 2.22539e-17)
(0.000348814 0.00747229 3.80849e-17)
(0.000167754 2.42869e-05 -2.3211e-19)
(-0.00798937 -0.00289347 7.92751e-18)
(0.000229492 0.0027645 8.56899e-19)
(0.000605349 0.000465979 -2.35894e-17)
(-0.00158763 0.00063378 -2.05189e-18)
(0.000186753 0.00143375 1.25062e-17)
(0.0063631 -0.000792977 4.69015e-18)
(-0.000621365 0.00190547 4.12179e-17)
(-0.000115232 0.000318661 -6.38818e-18)
(0.000273235 5.42418e-05 3.70023e-18)
(-0.01297 0.00573095 3.79548e-17)
(0.00495305 -0.00131239 -2.14814e-17)
(-1.10149e-06 -4.36469e-06 1.52363e-18)
(-0.00375151 0.00069221 -3.68779e-17)
(0.00103983 0.00152275 -4.35867e-18)
(-0.00429705 0.00218776 4.63983e-17)
(-0.000140018 0.000314008 2.52162e-18)
(0.00795943 -0.00115542 -7.28459e-18)
(-0.0187416 0.00676713 7.58606e-17)
(-0.00121702 0.00101153 -1.38857e-17)
(-0.00018659 0.000850217 1.73527e-18)
(-0.0096869 0.00300248 -2.57865e-17)
(-0.00427581 0.00281477 -1.41497e-17)
(0.00177014 -0.00125634 -6.23376e-18)
(-7.54865e-07 -5.29268e-06 -1.7002e-19)
(0.00825792 -0.0010678 8.72878e-17)
(-0.000489232 -0.00410137 1.47776e-17)
(-0.00345103 0.000424338 -6.89022e-18)
(0.000589271 0.000479853 9.27736e-18)
(0.00122757 -0.00112708 4.27066e-17)
(0.00131417 -0.00251104 -3.05036e-18)
(0.00108654 0.00487391 -4.33519e-17)
(-4.10406e-05 0.00014106 1.70797e-18)
(-0.000392763 0.000327511 2.66774e-19)
(0.00675693 0.00492418 1.5784e-17)
(-0.0116026 0.00161882 6.12355e-17)
(0.000419731 2.36112e-05 -6.1066e-18)
(-4.39244e-05 0.000116631 1.66568e-19)
(-1.38592e-05 1.38636e-05 1.90737e-18)
(-1.24946e-05 1.6494e-05 8.26486e-18)
(0.00800316 -0.00133232 5.05299e-17)
(-0.00893395 0.000886099 -1.4447e-17)
(0.00100365 0.00478293 1.89653e-17)
(-0.00522608 0.00404765 -2.14113e-18)
(-3.82756e-06 5.1951e-06 3.59473e-18)
(3.57017e-05 9.67878e-05 8.67375e-18)
(-0.00411399 0.0068872 -6.50992e-18)
(0.00368136 -0.000474208 -5.50579e-17)
(-0.00111489 0.00252873 -1.15248e-17)
(0.000128768 0.000722943 1.14288e-17)
(-9.98359e-05 -0.000117479 -2.97844e-18)
(-1.68342e-06 -0.000183234 5.13796e-18)
(-0.00349325 2.15408e-05 8.8065e-17)
(0.000745008 -0.000975938 -1.22948e-17)
(-1.78947e-05 -5.27006e-05 5.2866e-19)
(-2.79746e-05 -0.000182917 -1.34023e-18)
(-0.0271063 0.0123315 1.07691e-18)
(0.00265007 0.00464881 2.23793e-17)
(0.000685495 0.00382364 -4.07569e-18)
(-0.000253223 6.93722e-05 -1.49813e-18)
(-0.000584967 0.000675955 -2.61324e-18)
(-0.00109382 0.000813712 -3.62053e-18)
(0.000512953 0.0073273 -3.39387e-18)
(-0.00318848 -0.0021587 -1.0723e-17)
(-0.00443944 0.00270621 7.20956e-17)
(-0.00687223 0.00325661 2.2214e-17)
(-0.00194024 0.00844764 -2.16982e-17)
(-0.00755312 0.00467026 8.08983e-17)
(-0.00298855 0.00207 1.23442e-17)
(-0.000119549 2.34482e-06 4.0965e-20)
(0.0080773 -0.00103327 -6.25232e-17)
(-8.68015e-06 -0.000182522 -5.62155e-18)
(-0.00068908 0.000292087 3.02608e-18)
(0.00137793 0.00207301 1.43145e-17)
(-0.00821688 -0.00252289 2.1467e-17)
(-0.0024671 -0.000771736 9.19501e-19)
(4.53576e-05 2.29489e-05 -6.58827e-19)
(-0.00460701 -0.00026237 -2.83043e-18)
(-0.00323607 0.00267335 1.70289e-17)
(0.00206693 -0.00155304 -4.12486e-17)
(-0.00227391 0.00827493 3.7192e-17)
(-0.000974143 -0.000745432 -1.20925e-17)
(0.000479648 0.00467904 -3.56456e-18)
(-1.29468e-05 -0.000110787 2.08791e-18)
(0.000109062 -0.00266667 6.89167e-17)
(-0.00517332 -9.09811e-05 -2.97249e-17)
(-0.00306955 0.00235774 -6.28395e-18)
(-0.000342041 0.00045334 3.07511e-18)
(-0.00066217 0.00249307 1.46543e-17)
(-0.00146244 0.00693206 -2.74742e-17)
(0.00414276 -0.000107436 -2.37426e-17)
(0.0063495 -0.00109111 -1.51198e-17)
(-0.000995336 0.00635476 2.74049e-17)
(-0.00390855 0.00110441 -1.23212e-17)
(-0.000809261 0.000151369 -5.86871e-20)
(-0.000563038 0.0012523 1.72847e-17)
(-0.000259894 7.21839e-05 -9.8276e-19)
(-0.00159723 -0.00101346 -1.72924e-17)
(-0.000925397 -0.00197561 -1.67154e-17)
(-3.01682e-06 -0.000236864 1.07512e-17)
(-9.2872e-05 0.00561593 -4.131e-17)
(-0.000701474 -0.00230421 -1.85925e-17)
(-0.00330598 0.00235177 2.1683e-17)
(0.00176843 -0.00128424 -4.50899e-17)
(-0.000741841 0.000706489 1.49647e-17)
(0.00151228 0.00786319 -1.92118e-17)
(-0.0200118 0.007192 -7.03687e-17)
(-0.00115916 0.000238961 2.9774e-18)
(-0.000219259 -0.00018927 1.03647e-17)
(-0.0017306 -0.00446573 -1.11087e-17)
(-0.00105837 0.00132021 -7.69788e-18)
(-0.00479827 0.00243345 -4.12419e-17)
(-0.00477042 0.0014502 1.10988e-16)
(0.00025968 0.000102108 2.49251e-19)
(-0.000455112 0.000355217 -3.38008e-19)
(0.00653282 0.00504826 2.89214e-18)
(4.31247e-05 1.63748e-05 1.45272e-18)
(-0.00127426 0.00185704 1.00715e-19)
(0.00154146 0.00689321 1.04132e-17)
(-0.00051485 -0.000884999 1.2907e-17)
(-0.0031325 0.00263704 -3.3698e-17)
(-0.012097 0.00483751 -3.07494e-17)
(-0.00793524 0.0065259 -1.35867e-17)
(0.00270815 0.0042264 1.72702e-17)
(0.000146753 -0.00257342 -5.66312e-17)
(5.0144e-06 0.0014625 -9.74981e-18)
(0.00701406 -0.00083353 -8.52496e-17)
(-5.35455e-06 -6.1481e-05 5.25748e-19)
(-1.83166e-05 -5.37076e-05 -6.00111e-19)
(-0.0166625 0.00473955 -1.90662e-17)
(-0.000802435 0.00137849 2.84457e-17)
(-0.000939554 -0.00326957 -2.37539e-17)
(4.8298e-05 0.00149051 7.51472e-18)
(-0.000469396 0.000422053 -5.42848e-19)
(-3.03317e-05 -0.000179648 2.75749e-18)
(0.00451653 0.00376289 -6.05895e-18)
(-0.000831543 -0.00454978 -4.63856e-17)
(0.00559871 0.00740468 1.09131e-17)
(-0.000583964 0.00130226 -1.89085e-17)
(0.00291458 0.00922804 2.73395e-17)
(-0.000347827 0.005872 -4.06349e-17)
(-0.000150022 0.000319716 -1.2664e-18)
(-0.00420477 -0.00192205 -6.1598e-17)
(0.00608713 0.00695847 -1.78386e-17)
(-0.0291168 0.0117492 2.32644e-17)
(-0.000131214 6.82315e-05 1.67437e-18)
(-0.00713401 0.00831936 -2.31526e-17)
(0.000137596 0.00138876 1.94771e-18)
(0.000168311 -0.00137495 2.14881e-16)
(-0.00284129 0.00150797 1.80525e-17)
(-0.00248948 -0.000669716 1.34899e-17)
(-0.00074481 0.00248803 -1.59628e-18)
(8.08187e-06 3.43269e-05 -1.44866e-18)
(0.000446982 0.000450054 1.11508e-17)
(-6.31429e-06 0.00080361 1.59296e-18)
(-0.00264984 -0.00126182 3.37e-18)
(-0.000227928 -0.000629081 -1.18793e-17)
(-0.00608745 0.00201123 -1.67049e-17)
(-0.00320476 -0.00417681 1.58027e-18)
(0.000358887 0.00602378 1.65314e-17)
(9.49034e-06 6.45742e-05 -7.55534e-18)
(-0.00685477 0.00558683 1.65003e-17)
(-0.00106081 -0.00337094 4.72712e-17)
(-0.0240476 0.0096919 2.64424e-17)
(0.000838224 0.000817732 -1.18131e-17)
(-0.000293565 -0.000553015 -1.05502e-17)
(-4.79732e-05 0.000105227 3.08058e-18)
(0.00254106 0.00288272 2.51767e-17)
(-0.000430718 0.0017856 2.54413e-18)
(0.00171908 -0.00233063 -4.4342e-17)
(-6.85359e-06 -7.72121e-05 -2.13175e-18)
(-0.00304447 -0.00160168 -1.28208e-16)
(0.0022692 0.00294084 -2.23987e-18)
(0.00412128 0.0108766 4.00384e-17)
(-0.00319201 0.00182134 4.95099e-19)
(0.00727819 -0.000961688 -5.33513e-17)
(-0.00263688 -0.000536356 9.08333e-18)
(-0.000373213 0.000316775 5.73418e-19)
(0.00555423 -0.000488731 -4.07353e-17)
(0.00918887 -0.00148719 5.1051e-17)
(-0.000266861 0.000221783 -2.4201e-18)
(0.00142494 0.00202228 -2.08517e-17)
(-0.0165761 0.00822391 8.12547e-18)
(-0.00347275 0.00317063 -8.42946e-17)
(-0.00053373 0.00971528 2.14241e-17)
(-2.66336e-06 -5.69594e-06 8.46194e-19)
(-0.000178518 0.000880712 1.39832e-17)
(-0.00463402 -2.60978e-05 -3.48407e-18)
(0.00195421 0.00205292 -1.36507e-17)
(-0.00238361 0.0055484 -5.06471e-17)
(0.00303112 0.00641774 3.92623e-17)
(0.000468692 0.000465405 -1.62203e-17)
(0.00180518 0.00581098 -8.80034e-18)
(-0.0084869 0.00425391 7.08179e-18)
(0.000903017 0.000778623 2.89535e-18)
(0.00169865 0.00130286 -5.19304e-18)
(-1.67546e-05 1.12314e-05 -4.24314e-19)
(0.00207785 -0.000135978 7.84769e-18)
(-3.09393e-06 -4.29111e-05 2.35228e-20)
(-0.000758495 8.46626e-05 -1.64496e-18)
(0.00350529 -0.00147046 1.80864e-17)
(-0.000617112 0.00017755 -1.25768e-19)
(-0.00174884 0.0019331 -3.01009e-17)
(-0.000910744 0.00159971 5.94728e-18)
(-0.000542337 -0.000964076 1.01092e-17)
(-1.57378e-05 1.39599e-05 -1.15629e-18)
(-0.00216002 -0.000118135 -2.17723e-17)
(-8.42754e-05 -4.86341e-05 -1.12058e-20)
(-0.00248887 0.00273088 -4.24812e-17)
(8.3048e-06 2.05388e-05 3.43143e-19)
(-0.00301641 -6.81933e-05 -1.83165e-18)
(0.000988026 0.00151322 2.88337e-17)
(0.00140909 -0.00113971 -3.66154e-17)
(-0.00223276 -0.00400992 8.79195e-18)
(0.00378948 -0.000600377 -2.6051e-17)
(6.84103e-05 1.03395e-05 -2.91744e-18)
(-1.31e-05 -9.89394e-05 -1.081e-18)
(-0.00288738 0.00208403 1.22139e-17)
(-0.00225972 0.00174443 3.70573e-17)
(0.00382704 -0.000250979 4.04213e-17)
(0.00211493 0.000742802 2.94385e-18)
(-0.00169658 0.00436604 5.31772e-17)
(-9.14347e-05 -0.000140564 2.67728e-19)
(-0.00709287 -0.00122091 -3.39305e-17)
(-0.000898957 -0.00334436 -2.19783e-17)
(-0.0287648 0.0119939 1.14884e-17)
(0.00326977 0.00425476 3.39337e-17)
(-0.000893084 0.00489416 -1.6926e-17)
(-0.0147655 0.00545837 -1.90545e-17)
(-0.00192013 0.0010852 -3.18994e-17)
(0.0043878 0.00350772 -2.05504e-17)
(-0.00515953 0.00307823 2.37555e-17)
(-0.00240251 -0.00204031 -2.41831e-18)
(-0.00166516 0.00423158 -2.22217e-17)
(-0.00113328 -0.0035935 1.42796e-16)
(-0.00178155 0.00394508 1.75035e-17)
(0.0016625 0.00164313 1.04756e-18)
(0.00157213 0.00704122 5.9701e-20)
(-0.00108688 0.000290273 -2.188e-18)
(0.000637254 0.000597464 4.7361e-18)
(0.00243713 0.00285145 -2.22394e-17)
(-0.00214731 0.00150168 -4.59327e-18)
(-0.0011806 0.000911839 4.17803e-18)
(-8.4831e-05 -6.89565e-05 -3.87012e-19)
(1.58735e-06 5.57642e-06 1.91061e-18)
(1.94956e-05 0.0059787 1.33928e-17)
(0.00074989 0.0017702 -6.8805e-18)
(-0.00261271 0.00549959 4.55926e-17)
(-8.76652e-05 -0.000139903 5.04056e-19)
(-6.43032e-05 -0.000141901 -4.32348e-18)
(-5.58258e-07 -3.5898e-05 7.30514e-19)
(-0.000599153 0.00060766 8.97227e-18)
(0.00049806 0.00021561 -8.03858e-18)
(-0.000965188 0.0009601 -8.04507e-18)
(-1.90809e-05 8.42099e-06 -2.77847e-18)
(0.00805323 -0.00120998 5.83286e-17)
(0.00515904 0.00544978 1.08355e-17)
(0.000557366 -0.0030716 5.45337e-17)
(6.40883e-05 0.0001103 1.07758e-18)
(-3.73641e-06 -3.76057e-05 2.47119e-19)
(-0.000882747 -0.00124057 -3.66008e-17)
(-0.00258205 0.00299462 -2.60829e-17)
(-7.71258e-05 -0.000291535 -1.66487e-17)
(-0.00392885 -0.00162033 1.44088e-17)
(-0.00309695 0.000876545 -2.72885e-17)
(-0.00137454 0.000493599 -6.30247e-18)
(0.00237525 0.00295467 -2.14912e-18)
(-0.0055161 0.00673226 -8.60541e-18)
(0.000508802 0.00129116 -1.74787e-17)
(9.59196e-07 -3.30576e-05 1.1351e-18)
(-9.54305e-06 1.61911e-05 -6.01252e-18)
(-0.000530646 0.000818816 -1.83156e-17)
(0.00285455 -0.00125164 -4.81185e-17)
(-2.75897e-06 -3.18537e-05 -2.45503e-19)
(-0.00743164 0.0045027 -7.51932e-17)
(-0.00100941 0.00097398 3.83565e-18)
(0.0011811 -0.00125986 4.75921e-17)
(-0.00189239 -0.000549913 -1.71193e-18)
(-0.00315453 0.000928083 5.72481e-18)
(0.00656448 0.0102706 -2.51422e-17)