/*--------------------------------*- C++ -*----------------------------------*\
| =========                 |                                                 |
| \\      /  F ield         | OpenFOAM: The Open Source CFD Toolbox           |
|  \\    /   O peration     | Version:  v2012                                 |
|   \\  /    A nd           | Website:  www.openfoam.com                      |
|    \\/     M anipulation  |                                                 |
\*---------------------------------------------------------------------------*/
FoamFile
{
    version     2.0;
    format      ascii;
    class       volScalarField;
    location    "250";
    object      omega;
}
// * * * * * * * * * * * * * * * * * * * * * * * * * * * * * * * * * * * * * //

dimensions      [0 0 -1 0 0 0 0];


internalField   nonuniform List<scalar> 
13917
(
0.0478479
0.0225489
4.36734
0.026316
0.0221197
0.4408
4.26283
4.37837
3.86707
0.0846515
0.251908
0.107508
0.0264888
21.4991
0.0275752
0.0263976
0.0226931
0.0766737
0.106432
0.0221187
0.0222686
4.20934
0.0221059
4.45068
0.0220518
4.2714
0.0419585
0.0556453
0.908833
0.147856
0.0522603
0.0319048
0.0367604
0.025737
0.0220627
4.29859
0.0221135
4.08528
0.0306156
7.01644
0.0219511
0.0222863
0.0216121
0.0863666
0.0225422
0.0276096
0.0752086
0.10949
2.77231
0.0220249
0.0328664
0.0224275
3.09321
0.0262512
0.0227104
0.0319906
0.249958
0.0221416
0.0281123
0.0224429
6.21081
0.0225608
28.8921
0.0221079
0.407122
19.7915
0.0221106
0.0220592
0.31709
0.0421164
0.022127
3.96534
4.45181
0.0220549
2.87721
0.126552
6.43411
0.0239389
4.25905
0.02224
0.0222086
0.0221177
0.382405
3.90592
3.40505
0.0237531
0.0221851
20.6689
0.0322756
0.0216062
4.10496
0.119502
0.0220513
0.0234649
20.8873
0.384124
0.21867
0.0977016
0.247779
0.112006
0.0218439
0.0325291
0.0856419
0.0248803
0.0218598
3.97157
0.570108
0.117873
0.0227172
0.0558432
3.81053
5.85714
0.142732
3.89632
0.0230819
3.514
0.0220403
1.50511
5.86096
0.0262156
0.0222752
0.274201
5.86445
0.052858
0.021999
0.0232187
0.0224245
0.0220077
0.0216232
0.421985
4.03292
0.0229905
0.0225812
0.0222758
6.58294
4.47626
0.0483648
0.119107
0.0221043
0.0261
4.20525
0.0218857
0.0227311
0.110856
0.0220601
4.4047
0.976655
0.0223725
0.0218368
0.0325219
0.0866152
3.30559
0.146359
0.0468455
0.0314478
4.32272
0.0398901
4.87164
9.40551
6.67278
0.0246886
0.0422187
0.0222397
0.210514
0.139556
0.243602
0.0247993
0.0919434
0.022181
0.0336081
0.0477104
6.58632
0.154659
0.0231549
4.71202
0.0521062
3.94644
1.95601
4.52637
0.022043
0.128664
0.0548914
0.0218807
0.0221768
0.0315606
4.35979
0.71389
5.10398
0.0489596
0.220387
4.57697
3.4879
0.619225
0.0221164
0.116807
0.0408856
0.0228651
0.0220673
0.289935
16.1888
0.0320394
0.0220393
0.0848312
0.0864842
5.08859
6.02172
0.0220631
0.0221626
0.0956318
4.39133
0.0226237
4.22769
7.45993
0.221583
0.0218634
0.648985
0.0825128
6.24543
0.0220148
7.20692
0.0220279
0.135003
0.0219269
4.02775
3.93411
0.026939
4.31134
0.0321049
0.0218656
4.23486
0.151727
0.0483558
4.48725
10.3252
0.0217952
0.0327885
3.86965
3.47768
0.0222323
0.0219711
5.29526
0.280146
0.0222668
3.60855
0.153875
0.0402489
0.0444437
0.022232
0.0502267
8.25108
0.0224286
0.168759
0.14838
0.0223868
0.0221209
0.113878
4.32357
0.139065
0.0319734
0.0277973
0.0222713
7.96423
4.62745
3.6518
0.0218719
4.67831
9.30911
4.86606
4.20551
0.136781
0.0222192
0.0219492
0.0763445
4.52546
0.211712
0.0276021
5.96223
0.0664581
0.0216114
6.47614
0.0220954
4.6123
0.0310007
0.022262
0.0295414
0.046495
0.0426353
3.92574
0.0354605
0.0225957
7.30855
4.51288
4.34082
0.0220145
4.92727
0.022177
0.0225889
0.0220456
1.42248
0.0221071
0.149587
0.0428516
0.0221467
0.0855468
0.0242365
2.20426
0.0502667
0.109836
0.0219966
0.0221067
3.95511
6.15462
0.0220364
0.0219405
6.76801
0.0220361
4.17062
0.0219741
3.9092
0.0235488
0.808443
0.0466159
2.94968
0.0243554
6.94527
0.339017
0.0295537
0.278491
0.697661
0.0225212
4.0799
0.117564
8.24413
0.0251151
8.07917
0.034045
3.37185
0.289781
0.133907
0.128044
4.2922
0.0222217
0.0499793
3.59792
0.0222927
0.0243496
8.71437
0.364435
0.0231068
4.5262
0.822879
0.0218808
8.73993
4.40724
0.0220894
0.0219349
0.0221838
0.0218316
7.18385
4.61307
0.638511
3.66809
0.0220505
0.194942
5.55886
0.0629447
4.18398
4.11379
3.87087
0.0217954
3.30198
0.021916
7.90679
0.0224358
3.69238
0.154955
0.0287379
0.0222045
0.0901608
0.143311
0.111749
6.71165
3.41647
9.52317
0.0524059
0.0779648
0.021977
3.44969
4.19294
0.0222016
7.12068
0.0220693
6.08009
0.0235372
0.022231
0.0242311
4.20411
0.024166
4.04246
3.97057
0.273359
0.457343
0.0225103
0.502774
0.423537
0.0220566
0.407286
0.0222829
0.0220618
0.148178
0.0222616
0.0220558
0.0219113
5.89972
0.0222506
6.46804
4.34632
4.57482
0.609875
3.95858
6.41348
0.0619669
0.0220534
0.364801
0.0301024
0.0345822
0.0221106
4.45675
4.31504
4.35029
0.026294
0.183004
0.0247566
0.0316861
0.111689
0.023725
3.22928
0.0227144
0.0220987
3.88798
3.97687
3.92709
0.180392
5.92231
3.92297
3.61376
6.91844
0.0216536
0.0858277
0.0238224
0.0222031
6.24425
0.0775382
0.0220076
0.0865581
0.0580974
7.52266
0.0220534
0.209381
8.82559
1.88926
5.24011
0.0222578
0.0222032
0.0228203
0.0401032
0.021798
4.41507
0.495434
0.0352863
3.59213
0.0318271
0.209887
3.49805
1.01116
0.270187
4.32065
0.207922
0.083454
0.345414
0.0656497
0.254854
0.594704
0.0758983
0.134651
0.0219756
6.508
0.0343262
0.0218121
0.0380977
0.0241906
6.55316
3.94811
0.0220144
0.0216353
4.45873
8.93729
0.0222618
6.93429
0.0244354
0.402739
0.0220359
5.35576
5.24254
0.0324654
0.0229192
3.92568
0.532088
5.93674
0.0222695
7.27317
2.28421
6.83059
0.0218273
3.42084
3.7458
0.063509
0.0219287
0.02264
0.12641
6.34264
0.0219215
0.0219363
0.0219685
0.0219636
5.39875
6.34132
0.0625426
0.597387
0.0220128
0.02185
0.179374
3.54301
0.0428968
0.0222173
0.0220583
0.0220759
6.50524
3.60579
0.0221785
0.0220797
3.20118
0.0650202
0.0465888
0.0221906
0.0243075
0.0301002
0.131397
0.557436
0.702517
0.364707
0.164559
5.92077
0.105538
0.022021
6.85129
0.0220783
0.0247568
0.0277149
6.46757
0.0910846
0.0218562
1.61082
0.172501
10.8214
0.166541
0.0373742
0.0614475
0.0221959
4.10012
1.01904
3.9634
0.0225673
0.0369941
0.752332
3.9999
23.9872
0.103863
0.216086
0.0263186
0.026204
0.0221886
0.0590652
0.0931956
0.0221945
0.0818274
0.140986
3.98843
5.3389
0.02559
0.20654
5.26764
0.0308904
0.0225349
3.34276
4.40138
4.27604
0.593622
0.02164
7.09994
0.125613
0.0219089
0.0388502
0.124001
0.0353798
0.146353
4.23695
0.334953
0.0568029
4.10216
0.0247281
9.12529
0.0222408
0.0221723
4.88731
4.30402
0.657473
0.0247168
0.023103
0.0220834
0.067421
3.22431
0.210857
0.02661
0.243435
0.0889379
0.022045
4.4309
0.208311
2.84661
0.0220052
0.324049
0.0241145
5.75726
0.0865104
0.0884917
0.0377219
0.0218975
0.0218029
0.0225003
0.142442
0.0279657
1.97831
6.47286
0.0908825
0.021889
0.302159
0.729587
4.43891
0.0223693
0.027542
0.0219437
0.0385852
0.0284302
3.69503
0.0222328
14.56
0.0379096
0.239528
0.120184
4.4385
0.0941399
0.0225589
4.8597
19.9335
0.0222053
0.0275363
5.37648
0.487513
0.212121
0.0222376
0.0229911
0.575958
0.0290719
0.110344
0.106285
0.0218109
0.0868469
4.38004
0.0223526
0.0249142
0.0219875
6.9869
0.0222675
0.0258169
5.8928
0.0240585
4.47488
0.031514
0.037417
0.0219807
0.0584424
0.0220518
0.0798857
0.0219016
0.10938
0.0244284
19.3785
2.99583
3.53488
0.0226346
0.0222112
0.0993688
0.0611119
6.22968
3.67685
0.0752992
0.0220635
4.64478
0.737808
2.72748
0.66415
0.0738683
4.29147
0.0464767
0.0621781
0.256787
0.218497
0.0740226
1.136
0.0722906
0.0261687
0.133204
0.029743
0.0219694
0.038056
0.0556595
0.0315218
0.0220593
0.0219546
0.0902506
0.0254443
0.111513
0.0220648
0.0220791
0.0222748
0.0240861
0.0215846
0.0286536
0.0220067
5.56286
0.106332
0.323196
0.0218192
0.0222489
0.0505545
0.0852352
0.0227809
5.82009
0.105448
8.91175
0.0381672
0.215789
0.0234096
0.0222705
0.0219471
0.0242461
7.23695
0.0222564
5.68366
0.0291864
4.96419
0.0555017
0.108433
0.248124
0.0217306
0.022291
0.107415
0.0220674
0.0226513
6.18059
0.0233168
0.022185
0.0334108
0.0219625
0.0217037
0.0319292
0.0280119
8.43158
0.0410981
0.0223513
0.0219163
3.82543
0.144213
0.0224467
0.0225794
6.1409
5.32328
8.59301
0.0375961
0.0261824
0.0218069
0.0216816
0.0767221
0.042741
4.50668
0.0254136
4.31115
0.022796
0.0242171
9.20096
0.0220747
0.0347512
0.0221192
0.0220834
0.0531489
0.0431462
0.023374
4.34995
4.91284
0.124917
0.02202
0.0216657
0.214294
5.77407
0.0222613
5.88092
0.0216592
0.0525378
0.0220391
0.0220427
6.45747
0.0224149
3.69619
0.0500256
0.0222746
0.021648
0.0220935
0.0219828
0.0247075
3.94089
0.0222465
0.0219515
3.82779
4.22628
0.0591198
0.0583717
0.104167
0.0289496
0.021905
0.0285817
5.50657
0.116651
0.0221427
0.0228158
3.7203
0.0501383
3.45902
0.0222682
0.0228982
8.76898
0.0462826
0.0235567
7.12135
1.63959
0.0219765
0.231409
0.0219449
0.022354
0.0218079
4.24386
0.0215737
0.0224569
0.021901
3.81416
0.0289627
0.398509
0.0627796
0.0220462
0.0333633
0.0221778
3.59296
0.0219883
0.0222946
0.0221868
0.2207
0.022179
0.336188
5.53999
4.52998
0.0270187
4.40438
5.00545
0.0221067
8.97012
5.5226
4.42313
3.9765
3.8083
35.9143
0.267145
0.0226857
4.19378
0.0459343
4.12787
0.0218064
0.022049
0.0224482
0.0221715
0.0307824
0.0322322
5.63696
0.0220323
0.0220874
5.4265
0.390175
0.0220906
0.0378923
0.0366347
0.0228562
2.83903
0.0378115
0.0242831
0.0288022
6.25529
7.81556
1.29674
0.0219982
0.521886
0.172694
3.953
3.8485
0.151368
0.0220379
0.0235239
0.0228
0.0215086
0.0242631
0.0216433
0.0302944
0.0449979
3.64642
0.277155
0.0224816
0.210772
3.58402
0.0504377
0.0224156
8.06323
0.0221049
0.0225444
0.0385557
4.02408
0.0221774
0.0220092
4.19195
4.34079
5.22464
0.186221
4.29959
0.0219854
0.365237
0.022474
0.0220201
0.0224572
4.37163
6.29622
0.0219598
0.0216469
0.0221553
5.32112
0.0238646
0.0375361
0.0220663
0.022892
0.365184
0.0220853
0.0827121
0.485077
3.91665
0.0223138
0.104435
0.0257895
4.67501
3.65691
0.0220559
4.0743
0.113726
1.44679
0.0221771
4.16536
0.0222466
0.0315006
0.0511668
0.186463
4.42263
3.30781
0.255534
4.31994
0.0218806
5.46613
0.0220306
0.0297799
4.16051
0.0222232
0.022254
0.0237209
0.0227654
3.52859
0.021715
0.0220978
0.0873954
0.0605318
0.0756745
0.601344
0.234395
6.95005
0.106679
0.0485755
0.0611255
5.32904
0.0611229
10.8472
4.22299
0.0302474
0.0221056
3.90804
2.99257
0.022377
0.186341
0.043851
0.0233104
0.0316398
0.0228627
0.0510776
0.0222922
0.0722264
0.115853
0.0219215
0.0846267
0.0220391
0.0703142
0.0218984
0.0263444
0.0874099
0.0257582
0.0227127
0.0219711
2.12246
0.108408
4.56282
0.0220566
0.0224918
0.0920046
0.0221154
0.142039
0.109727
0.0233131
0.157333
0.0220055
7.01637
0.0223482
0.0563123
7.1831
5.16305
0.0219932
0.0246372
6.87262
0.0220228
0.021955
3.69681
3.9188
0.0244955
0.26206
0.0221095
0.0227113
4.39362
0.0240639
0.0217414
5.22639
0.0220712
5.00464
0.0222028
0.021741
0.0224311
0.24688
4.26426
0.0222268
0.022501
0.0219848
0.0273888
0.0220805
1.04648
0.0826701
0.022269
4.54465
0.0548918
5.90706
3.87752
3.45752
0.0219304
0.0223737
0.0222073
0.935967
0.0276766
4.30044
5.50601
0.0243417
4.12073
2.38026
0.0735335
0.264961
0.0838927
0.392708
4.44596
0.0729391
7.71273
3.83178
0.10514
0.0265695
5.19247
0.0561311
0.0218259
0.0252
9.15842
0.0433869
0.0220069
0.0606607
0.155688
0.0456344
5.11831
0.0249406
4.58473
0.0605698
1.95663
0.220082
0.567008
0.0355178
0.0219802
0.0231515
4.45681
0.0220276
0.0245986
0.0218683
0.0243205
0.0220597
0.0379057
0.258957
1.823
0.0473887
0.0568159
4.34885
0.48366
0.0220698
5.26924
4.40822
0.0218097
0.0219473
0.0388316
6.15897
0.0222561
0.105306
0.871852
0.0570808
0.0221141
0.0251886
0.022115
0.187044
0.0445585
0.0219984
29.4433
4.2809
0.0481767
5.85498
0.106979
15.2321
0.0239825
0.0295351
4.47878
5.66615
0.152125
1.84396
0.0327523
0.0222775
0.0223818
0.0225532
0.0220717
0.0227799
0.0614816
0.0219996
0.246833
0.0219606
0.0344127
0.0219864
0.107966
0.23318
4.7421
0.0220843
0.565788
0.0223776
4.53431
0.0220661
0.0257306
0.022137
3.98877
4.90053
0.265637
0.0219979
0.272988
0.0222129
0.0346321
4.05269
0.022285
0.0224758
0.057914
0.0388116
4.15046
0.0220021
0.0318963
0.0252373
0.0220662
0.0332447
0.0229535
0.0217718
0.024057
7.36916
0.0266254
4.62321
4.34603
0.0738035
4.10195
0.0261696
0.021778
0.0332725
9.14654
0.0257052
0.0410327
0.063702
17.0846
0.0219662
5.48979
0.0891218
0.107507
0.0217984
0.0216618
0.259118
0.0225567
0.0222867
0.0341956
0.0218084
0.02486
0.0336351
0.115907
0.270429
4.28743
0.0300814
0.12415
3.66923
7.2433
0.0562854
0.318268
5.9366
0.054648
9.45541
0.0237909
26.5515
5.24966
0.0218214
0.0222621
0.0219786
0.0239012
0.0566789
0.0220047
0.0240789
0.151116
0.0249426
0.0378961
4.39651
0.0310591
0.0270928
3.84619
0.0235602
6.88071
0.0279429
0.0592572
0.0219561
7.47215
5.80445
0.0222156
0.0241547
4.26293
0.0303
5.83435
0.0220293
0.022074
4.02258
0.0240486
0.046723
6.38986
0.0220829
0.076706
0.03416
0.0216603
0.0219235
4.24646
5.24415
0.022678
0.0256571
0.0221688
0.0296027
0.0356889
7.3824
0.0229774
2.50702
4.90194
2.52927
5.62378
0.0239043
0.203593
0.232374
0.0298992
0.0220837
0.096598
4.24812
0.0237982
0.049821
4.39405
3.70692
0.27688
0.0254401
0.022504
0.0222481
0.0220797
7.19614
0.0836516
0.0265561
0.0244003
0.0269778
0.0222715
0.022088
0.0220685
0.121509
0.0578663
4.59846
0.050557
3.87784
3.97266
0.0328026
0.0751905
0.0218374
0.0309975
9.06469
0.0224502
0.0247274
0.0780163
0.211401
0.0552797
4.29619
4.3266
0.0221058
4.3249
0.021624
0.022933
0.0505353
0.0222749
0.0224232
0.317536
4.8987
0.0220731
4.43943
0.0224408
0.0219172
0.02464
2.60765
0.033597
0.0278896
8.22535
0.0239461
4.42719
3.94046
0.0222463
0.0519551
0.0220184
5.61328
0.10769
0.0220669
4.36549
0.080063
0.0848096
0.0222797
6.43859
0.0303861
0.425302
0.0247549
0.0797964
7.45251
0.0219406
1.51946
0.022215
0.087901
0.0543479
0.0222454
3.57523
0.0244425
0.207983
0.0808736
0.0993704
0.045064
0.0476134
0.022864
4.39947
0.0339644
8.08878
0.031434
0.104877
0.0222543
0.0547123
0.0221104
0.114333
4.47142
0.0233892
0.0219257
3.32807
0.0241413
3.69431
0.0233113
4.45464
2.55007
0.0411504
0.0220243
0.0219783
0.0221214
0.0216466
0.168746
0.0640312
0.0385006
0.0286073
0.0220889
6.05711
0.0258683
0.0393992
3.56511
0.0220875
7.51517
0.0771404
0.0408804
1.31383
4.71722
7.47207
4.50038
8.64781
0.0219621
0.538616
4.39672
0.371353
0.0221769
0.022288
0.206137
4.34101
6.60624
1.43503
0.0233302
0.0552023
0.0556957
3.93278
4.59387
0.0632841
0.270516
0.0252142
0.108777
0.151363
0.0221692
0.165025
5.91229
0.022141
4.98414
0.0222544
0.0223458
5.69792
3.96151
0.0218723
0.0235016
0.0232181
0.0220635
0.0567454
0.376545
0.0251064
0.022011
0.0221053
0.0617091
0.0324608
0.0317991
7.32664
0.0220652
3.7975
6.71147
3.74776
0.180129
0.0707498
5.16802
0.045096
4.21781
4.786
10.4853
0.0228721
3.73612
4.03126
0.0217912
0.0220613
0.153615
3.4202
7.17008
0.0220664
0.022206
3.94898
15.3833
10.7055
0.0257582
0.0242417
1.82618
0.0223875
3.87727
4.49801
4.44969
12.2558
0.0221304
0.0219899
0.0219028
0.0266713
4.95331
0.0603576
0.0304891
0.0227242
0.110247
6.70072
0.06169
4.80539
4.43162
6.42541
2.12211
0.0220753
0.0221754
4.46622
0.0216957
0.0218153
0.0236799
3.0806
0.0516304
5.47492
0.225145
0.0220574
3.62004
0.0493946
0.022061
5.22585
0.192344
0.0252098
0.0227792
4.21745
3.4491
0.0221863
5.21193
4.86204
3.69478
12.2268
0.111973
0.0220329
0.023504
4.3352
0.0292281
4.51513
0.0526718
12.1175
5.22911
0.0231041
0.0305774
0.0220535
0.0229639
3.3728
8.94391
0.0220817
4.0424
0.0642113
0.0222129
0.0255651
0.0219765
0.321033
0.0231644
2.37053
0.0575529
0.0220253
0.021891
0.0912782
10.1081
0.0536069
0.0253971
0.0542934
0.0220989
0.0246157
0.034187
8.47607
4.82288
3.42898
0.0217524
0.0218838
0.0227512
0.208202
0.021923
0.0228358
0.280317
0.0916749
4.77802
0.0217974
3.48622
4.74299
0.0222842
8.18642
0.208341
0.0555937
2.03682
0.0226715
3.53732
0.0308964
0.0234973
0.0242889
0.0216901
3.31403
0.0228394
0.0244137
0.0310086
4.08203
4.14053
0.0222476
0.0220306
0.0251245
0.0223165
0.239604
0.0225513
0.125352
0.0258061
4.40536
0.0240927
3.99778
0.0217596
3.56642
0.0231542
0.0216749
3.95962
0.389055
0.111069
4.38633
0.0464477
0.0579396
0.0220679
5.12302
0.0220775
0.0219276
0.0879672
0.105665
5.8027
3.73117
0.215907
4.80545
0.214991
8.34497
0.0220193
0.0283825
0.0354141
3.75996
0.0250092
3.70214
5.51226
0.023006
0.0221033
0.0221597
3.10274
3.36848
0.0253891
0.0221234
0.0274007
0.0327776
0.0528606
3.58965
0.452905
0.022071
0.577433
0.122456
9.55882
0.110895
0.0243054
0.0259345
3.59266
0.0218992
0.135385
4.40078
0.0231499
0.0280105
0.335584
0.131871
0.0230738
8.53051
0.0269823
5.61712
0.0626158
0.032319
0.0241702
3.48388
0.0218884
0.115073
1.52541
3.3706
0.0685446
0.0907529
0.0307417
0.0524012
0.0222672
3.38701
0.0328246
0.0224474
0.0380071
0.0220986
0.0222695
3.09598
0.0220894
0.0221796
0.0222034
0.280204
0.0223173
0.0380116
0.121126
0.421504
0.190168
0.0222551
0.313139
0.550911
0.4461
0.120373
0.0275346
0.318192
4.54545
1.72337
0.0222845
6.21367
4.42116
0.0222839
0.0264381
0.0216734
0.566686
0.157687
0.0226459
1.43388
3.75908
0.0218356
0.0222896
4.27973
4.9732
0.107485
0.0217016
9.46136
3.90419
3.1606
0.0220548
3.71679
0.138269
0.0787041
3.54752
0.0308632
0.0216874
0.0376726
0.3474
0.0428762
4.34504
3.46748
0.0219228
4.6952
0.683595
3.89348
0.0217585
0.0498274
0.0223479
0.022033
3.7509
5.41953
4.78586
4.95908
0.0314489
0.0706662
0.0224556
3.37791
7.32147
0.0220674
0.0227848
0.0321575
0.0221522
0.0760613
3.99158
4.96074
0.0723102
0.0233207
0.0229124
3.70771
0.0258608
0.0777404
0.0218969
0.0236381
1.99399
5.4632
5.23515
2.84533
0.0221737
5.21969
0.0226167
0.0526653
6.30973
6.08167
0.0220937
0.0222941
0.0529449
0.0262601
0.0222709
3.78099
3.72708
0.0219507
0.0215358
0.0221964
0.0219895
2.66372
0.0219325
4.32245
0.170596
0.105088
0.0220407
0.0571349
3.42812
0.0460486
0.59421
3.68244
0.0224728
8.13325
0.0338095
0.0354814
0.478964
7.46102
4.00163
0.0980511
0.0219724
0.359326
0.0219464
0.0255277
0.0223066
4.32771
0.0338211
11.096
3.64871
0.0686036
0.0221353
0.589943
0.0329734
0.0222707
0.289669
0.0216178
0.0580166
0.0446989
0.0222782
6.74284
0.0242835
0.510468
0.0232202
0.021975
3.54096
3.90459
0.0245454
0.0326028
0.0595427
0.0742327
0.0955205
0.0322907
0.0274856
0.0290703
3.79551
0.0257459
4.36674
0.0686294
4.20846
0.200201
0.023955
3.81808
0.0216253
4.36622
0.024464
3.53673
9.70828
8.9806
6.60626
5.80401
0.0895579
0.0225743
3.91687
0.0994016
0.0220683
7.67489
4.40272
0.0236355
0.026533
0.0367386
0.0368065
0.0448667
5.71737
0.022284
0.0410786
0.0514594
0.0347545
0.022168
0.146602
0.0216727
4.40408
0.024225
0.223069
0.0397925
0.0547796
0.176377
5.359
0.128289
0.0219289
0.339194
4.08331
14.7919
0.0234214
4.42926
0.0362642
1.83315
0.0220775
0.0256469
3.82589
0.0831435
4.37598
7.42137
0.0341829
3.52715
0.0221538
0.0216658
9.15486
0.0597617
0.0255814
3.86827
0.0308961
0.0502654
0.0313052
0.0970275
0.0226288
4.74768
4.49043
5.9309
5.39892
0.029147
0.0735692
4.40387
0.0250302
0.0225244
0.111956
0.0217292
0.356803
4.49049
7.62461
7.008
0.0878595
0.023574
3.67361
0.0216267
0.124396
0.0222387
14.9314
0.0251408
0.0531537
4.2733
0.202461
0.0220371
0.0345861
5.22454
0.0221096
0.282312
0.0219238
7.16817
3.68098
0.202543
0.0829999
0.0219705
1.15033
0.269865
0.0539666
0.0219254
0.0237174
0.0221481
0.0872081
0.0221349
0.147498
0.0221557
0.021975
3.67674
0.0220713
0.0308272
0.0296332
0.0222759
3.9712
0.0220311
0.038324
3.76123
0.0767623
4.31258
0.0221134
3.42685
0.0822382
3.78113
0.0247514
0.25968
0.0230094
0.0582214
0.241319
0.198932
0.576074
3.80568
0.438908
4.33913
0.0273328
0.203783
0.046659
8.25119
0.0257179
0.0228888
0.0220835
0.0812998
0.0530399
5.59692
0.0803706
4.49589
5.22995
0.0973039
0.0221595
5.42443
0.236602
0.0226298
0.024606
0.0221659
4.63839
0.0220746
10.9045
0.0220396
0.0337557
4.80296
0.0957499
0.0220718
0.0220734
8.83037
0.0220274
0.0249997
0.0290953
0.0366296
0.0325562
0.0224445
0.263901
0.0832157
0.0472528
0.995202
3.52713
4.0343
6.50765
0.0217727
0.0220651
0.120384
0.0235819
0.050412
4.40467
4.18102
0.0216953
0.0220684
3.94657
5.26533
0.0217206
0.0219388
0.027118
7.66112
4.32067
0.0305875
0.0395264
0.0222066
3.36668
0.249016
0.150132
0.0322442
0.049263
0.0224974
0.0485162
6.111
0.0229639
0.0227113
0.0300131
4.33679
0.0262059
6.75925
0.0221195
3.86734
0.0411699
0.028198
0.021808
0.0219655
1.69635
5.97235
0.0588299
4.64915
5.61447
0.0228104
3.87968
0.264267
0.0220079
4.94332
4.46036
0.204308
0.0222558
3.96742
3.78767
0.0224283
0.0443315
5.03195
0.0539199
0.0222107
0.0219545
0.0231591
0.0266898
0.120142
5.90328
0.0785883
0.110778
0.0217705
0.022408
4.54836
0.0219906
0.0597911
0.0268666
0.0229909
0.0707487
0.0220545
0.0245455
4.3108
0.0220188
4.20626
0.0220543
26.3989
3.91707
0.152333
0.0225438
0.0222929
3.65873
0.0216765
0.0261915
0.0224471
0.548848
8.55534
0.04417
3.89616
0.0457468
5.17323
0.022626
0.113007
0.0220877
0.0221513
4.26495
3.97207
10.0461
0.0253818
0.11072
0.111873
3.44311
3.74107
4.27457
0.049114
0.0216189
3.93466
0.0222275
0.022323
5.09725
0.202638
0.0295199
0.227585
0.052305
0.0348157
0.0325434
3.55559
0.027146
0.0220161
6.05538
0.0524611
0.0217907
4.03482
0.0220425
0.0221256
0.322611
0.223235
7.24138
0.0218101
0.0255743
0.0219856
2.19141
0.0220027
0.553965
4.98913
3.91225
4.0166
33.9951
0.0308428
4.42445
0.877153
0.0222155
0.0326453
0.0471788
0.0314091
1.27731
4.36608
3.45145
3.95838
2.42859
0.0223305
0.188722
0.0220475
3.97306
0.0355785
0.0252687
0.0264487
0.023761
0.0219978
0.188047
3.45071
0.0217541
0.0254778
0.0218821
5.05131
0.0252531
3.49854
4.27927
11.0169
0.0221096
0.0220063
5.22199
0.38008
0.0221507
0.424608
0.0222323
0.213324
0.215597
0.157874
0.0795029
9.29747
0.0218982
0.0221056
2.62822
3.92505
0.0349738
0.0556696
0.0220372
7.20195
0.0220535
0.0219723
0.0245245
0.0220808
3.99176
4.37739
4.98418
0.0978595
3.63802
6.85834
0.0216921
0.0422048
0.0217512
1.26403
0.0224915
0.0258992
0.0220546
0.021959
0.0220053
3.52439
0.0245435
1.68674
0.0217473
0.032566
0.0235352
1.52317
0.02207
0.042224
0.0516226
0.0888107
3.76162
0.0219589
5.12839
0.0932706
0.0516725
0.022141
0.0220041
4.02663
14.6321
0.0225336
0.0221512
5.04268
4.16837
0.038797
3.78764
0.02319
4.56054
0.0428241
0.0217489
4.67359
0.0250988
4.20996
0.0220717
0.0236588
0.0221331
4.83152
3.92849
0.0217154
0.248478
3.2333
0.0220659
0.0221147
0.0219602
0.268636
3.77637
0.0871683
0.0280299
0.0504419
0.0220568
0.0221478
0.0256753
0.022023
0.488475
0.0221459
0.104224
4.24629
0.0441717
0.0216352
4.3064
0.1226
0.0220638
0.111521
0.0404713
4.92635
0.0247416
6.04636
0.0786646
0.0221584
0.131334
0.128323
0.0276776
3.58638
0.0973932
0.0412046
4.95313
0.0220834
0.218417
0.0956538
0.178815
0.0219768
0.022085
0.0216711
0.0331402
0.0893149
0.0873193
4.98415
3.91469
4.30574
0.0222684
2.01351
3.97388
3.69283
0.0220604
0.022214
0.0822
4.25273
0.0251737
0.0508736
32.7709
5.79862
23.3144
0.110669
0.324634
3.92728
8.43833
0.0216779
20.7008
3.9707
0.0229974
0.0232734
0.0235329
3.37199
0.14833
4.46373
0.0257857
10.1992
0.0225856
5.80389
4.43243
0.0224134
0.0479284
4.01951
4.56387
0.0754828
0.0240812
0.0245053
0.0225023
0.303039
0.22639
12.6349
3.7057
0.0218517
4.44251
0.266485
3.3104
0.0220368
0.0221682
3.38671
0.267552
0.0220642
0.0676893
0.0730323
0.0403643
4.38846
4.26642
3.39841
3.72259
0.0267996
0.0217707
0.0665762
5.44251
7.62001
0.0223587
0.34345
0.0951452
0.399044
0.0238007
0.0222586
1.27171
5.39647
8.2612
1.66815
4.65754
0.0219986
0.267609
3.75125
0.0223659
0.0624032
0.182388
0.0217332
0.266209
3.90914
0.25652
0.0222577
5.59087
0.212634
20.9678
0.0215385
0.0263756
0.0224957
0.0253956
0.0224324
0.0694054
0.0449908
0.0461338
0.300309
0.0472818
4.5561
0.0260388
0.0390878
0.0317375
9.10537
0.057994
4.44926
0.0311753
0.0286831
17.0794
0.092484
0.0221292
0.0463788
5.48827
4.32383
6.38267
0.0221212
0.0220194
0.0221068
5.44859
0.0239395
2.46368
1.34405
0.266976
0.0368834
0.509261
5.17461
0.0224237
5.2277
0.0367765
0.0525043
0.0221503
0.0223019
0.075371
3.56032
0.0220846
4.31724
0.798856
0.0957717
0.345615
0.0220264
0.0220424
0.0387476
0.0247934
19.2938
16.0159
0.0972413
1.39109
0.0221131
0.0224924
0.0226906
0.0222473
4.04636
0.0251643
4.05538
0.0889049
0.0238688
0.42022
12.6314
3.94108
8.14655
0.0258248
0.0220656
0.0221427
0.0262481
0.682899
0.264896
3.64444
0.0221649
0.0235572
0.189091
0.0222602
3.51722
0.0240583
0.171742
0.19845
0.0459903
0.0447331
0.0218096
0.0652394
0.0428279
0.263935
0.0816277
0.0470631
0.0218976
0.333321
0.0219937
13.5351
4.01718
1.02962
0.0221805
0.114876
0.0221484
0.0712258
0.0243397
0.0242814
0.0289608
8.66973
4.2967
0.0819027
0.0551424
0.312107
0.10081
4.35429
3.61148
0.0336196
3.82623
0.537293
0.0220144
0.0569155
3.61627
0.0956066
0.0222399
0.0736289
2.22616
6.04893
11.0596
0.0227368
5.0642
0.0221056
0.0220224
0.0660839
4.53699
0.0222642
4.95622
3.40029
3.75455
7.12634
0.386158
3.37098
1.00749
0.0217971
0.0275114
0.0217751
0.045755
3.02675
6.5201
0.0252935
0.0470225
0.0217766
3.52524
0.0562751
0.0640966
4.20971
0.101355
4.04688
3.41527
0.0220852
5.98927
0.0221241
0.0292701
0.0508346
4.04317
0.248801
0.0286376
0.0255742
0.608976
0.0411756
4.34179
4.36719
0.0319823
3.90208
0.0712135
0.0222738
1.01274
0.0849294
0.0232982
8.39066
8.93191
0.0386018
0.0265837
0.254588
4.9124
0.0220446
0.0227593
0.0217093
0.0218246
0.0223976
3.54908
0.0339022
4.05705
0.0219708
0.0223626
0.791563
0.0228865
0.0245004
0.0220779
0.0220651
5.21257
0.0219198
3.8337
0.0225556
0.024903
0.0475012
0.0222208
0.139053
0.0219433
0.0222657
0.0219383
0.03311
0.0940101
0.0283573
3.97003
0.0220778
0.0473012
0.0381926
3.64876
0.0228794
0.02227
0.0219815
0.0217825
4.55392
0.0220066
0.0221826
0.0278803
10.851
0.0219514
0.045731
0.0353399
0.0221495
4.56609
3.91857
4.29164
4.57122
0.0291364
0.194821
0.0222373
0.0990041
5.77239
0.0232647
5.03486
0.231669
4.59893
0.0330107
0.0220626
1.44006
0.0506576
1.48067
4.00399
0.0217231
0.0220635
6.52285
3.90409
0.0968867
0.0640539
0.0238082
6.06189
4.82729
0.0215475
0.0219993
0.0226769
0.02218
0.0222508
0.0220669
0.0361771
3.6491
0.0338694
0.0223109
0.439648
0.0220184
1.65773
0.0515368
0.0228891
0.0330689
0.0219835
0.55244
0.0258091
0.0496696
0.0220463
0.0228596
4.13811
4.4838
0.0221785
0.0820833
0.0461361
0.0337487
0.0242999
0.0222716
0.0244849
4.15654
0.962553
0.0626846
4.66401
0.0237451
18.5403
0.187361
0.0286369
18.7978
0.023415
3.94745
4.46468
3.98042
9.81558
3.82954
3.99293
0.0218402
0.0316625
0.024964
0.0217544
0.0219623
0.0374537
0.0788681
0.021983
0.0305794
0.24799
0.0866593
0.265304
2.92648
0.0396623
4.34479
7.69748
0.0346891
0.0250992
0.242898
5.13001
3.85808
0.0263904
0.021757
0.0219859
0.0219198
0.0398727
4.30483
0.569341
0.0220422
4.47854
0.0220044
0.255828
4.40198
0.0783511
0.289983
0.0850731
0.317882
0.0231121
0.0337988
0.0219324
0.285169
0.0220637
0.0241668
0.0454453
0.254561
0.022183
0.024667
3.78318
0.0218452
0.0224604
0.0299851
3.73721
0.188567
4.93779
0.038906
0.0221525
3.95832
0.0377567
0.0248425
0.0220649
0.0336981
0.0296269
0.0220713
0.0368237
4.96246
0.024635
0.0217546
0.0491445
0.0219459
0.0331928
0.0309177
0.0220885
0.0220262
3.60424
0.0217897
0.0220623
0.0217101
0.02674
0.0215102
4.54382
0.0292091
0.384838
0.0219738
0.0222412
0.0227773
3.92131
0.10718
0.0220713
0.021762
4.44299
0.0253281
0.105586
0.0219067
0.288672
0.0242774
0.0215855
12.8104
0.0220834
0.0224039
0.0221576
0.0225107
0.0245177
0.0221331
0.0220518
1.67169
1.44729
3.62168
2.25397
4.5047
0.0219886
3.39228
0.021983
4.36055
4.312
0.0218228
5.98554
0.0219941
4.71076
7.84612
0.261435
3.95922
4.27841
1.50767
3.3049
3.75153
4.42188
0.0511684
0.0664211
5.30599
0.0238733
0.0217215
5.9503
0.0259522
0.0292061
9.60216
0.0236263
2.48129
4.05925
4.22204
3.96504
0.226215
0.0222528
0.0294819
0.049132
0.0228679
4.67032
0.523321
0.1114
0.0220262
0.022074
4.83483
0.0217836
3.53891
0.022075
5.00218
3.42392
0.0343915
0.0279632
0.0221171
6.41727
4.37076
0.0266355
0.0386642
0.0222863
0.0222857
0.095767
0.0234654
0.0325718
0.0777154
0.0251727
0.0467917
0.0220676
0.0337249
9.04168
0.0237588
7.93265
0.0223101
4.09481
0.0546289
0.0220654
9.15345
0.254999
0.0219349
0.172949
0.0220669
5.19594
0.0223369
0.0220477
4.316
0.022157
0.183023
0.0249069
0.271656
0.0220467
0.0225323
0.0219052
0.0313295
0.0248542
0.0224856
0.0228719
0.0255624
0.0226809
0.237066
0.0741085
0.0412922
0.0234609
0.0218105
2.33914
11.0554
0.0230185
0.0227595
0.0228784
0.042439
0.022535
0.0407396
0.0216035
0.0222853
4.34917
0.0236344
0.0222847
0.0219657
4.24463
6.27873
0.0216215
0.0867978
0.0571391
0.477063
3.44267
3.80024
3.52223
2.85966
0.0244265
0.269774
0.0219442
0.0317786
4.03916
3.93098
0.154219
0.0242315
9.30215
0.0220641
0.0566392
5.21066
0.0224049
0.267117
0.0244647
0.0241217
0.101327
0.266172
4.26857
3.98826
0.0219273
0.0216712
4.09437
4.32284
0.0224294
0.0306843
0.229261
0.0220804
0.0220309
0.0254858
3.48155
0.0218416
4.47755
0.0309361
0.0228041
1.64919
0.124453
0.114284
0.169252
5.75762
0.0248738
0.0468024
0.0275555
0.0242638
5.34562
0.0437392
4.46623
3.68842
0.080151
4.32999
0.0564232
0.0553275
0.473611
0.0217937
3.55725
0.134643
0.0367081
0.0303567
0.0221855
0.0217842
4.39371
0.051236
4.42054
4.52587
0.0221274
4.2805
0.0218809
0.0220458
0.0298355
7.08173
0.126924
0.0219407
4.37633
0.0220829
0.0246147
4.18891
0.0248451
4.05377
0.0222738
3.4524
6.39069
0.0700169
11.2615
0.0238
3.99911
0.0217856
4.70923
4.11805
3.57113
3.42057
0.0219602
0.0220773
0.37444
4.04446
3.93137
4.40249
4.37614
0.0224352
3.38142
4.02799
0.0226356
10.0753
0.0317153
0.0380566
9.05188
0.0419525
4.37021
0.0220662
0.0416807
0.0472254
0.370896
3.77298
0.0408736
4.14189
4.46614
0.022177
0.0252528
0.0245923
0.0282052
3.9368
0.0220428
0.0218229
0.0425184
3.95457
4.07214
0.0334329
4.36402
4.22457
0.0220619
4.56793
4.74599
0.456889
4.51449
0.0889594
0.0252473
0.0221809
0.22816
0.0300242
0.113626
5.809
3.83892
0.030803
0.124385
0.0262039
0.060074
0.0216732
0.0656984
0.0251546
0.130428
4.50502
8.71752
3.70717
0.0218397
0.239374
0.103898
3.91146
0.0232914
3.37823
4.48099
3.60071
0.0230293
0.188014
5.21071
7.40647
4.10225
0.0404511
4.58619
11.9413
0.102924
0.113043
0.0266078
0.031207
3.36679
0.0465869
0.0221912
3.9188
0.0224741
0.0231371
0.231534
0.239446
0.0221516
0.111192
0.0258378
4.27551
8.80747
0.0251153
4.22504
0.0227988
0.0219428
0.0950246
4.56284
3.37726
4.05491
26.0101
3.97243
0.36061
0.0220784
10.8097
4.89526
0.0265753
0.19645
0.0224345
0.0225429
0.023132
4.86409
4.03798
0.0662754
4.31422
3.97116
5.00725
0.120371
3.86