/*--------------------------------*- C++ -*----------------------------------*\
| =========                 |                                                 |
| \\      /  F ield         | OpenFOAM: The Open Source CFD Toolbox           |
|  \\    /   O peration     | Version:  v2012                                 |
|   \\  /    A nd           | Website:  www.openfoam.com                      |
|    \\/     M anipulation  |                                                 |
\*---------------------------------------------------------------------------*/
FoamFile
{
    version     2.0;
    format      ascii;
    class       volScalarField;
    location    "950";
    object      ddt0(k);
}
// * * * * * * * * * * * * * * * * * * * * * * * * * * * * * * * * * * * * * //

dimensions      [0 2 -3 0 0 0 0];


internalField   nonuniform List<scalar> 
13851
(
-2.55022e-06
-3.31867e-07
-3.228e-07
0.000796896
-5.25336e-09
-4.02433e-07
-3.43376e-07
-5.41854e-08
-0.00235304
-8.35687e-09
-5.72694e-07
-1.60533e-08
-2.05654e-08
-0.0011979
-1.0258e-06
-8.83993e-06
0.000721558
-1.24008e-07
2.80365e-06
-2.53316e-06
-1.10744e-06
-2.55962e-07
0.0107191
-6.81364e-10
0.0179234
-1.93596e-06
-0.00809405
-0.0116823
-0.0034663
-7.91642e-08
0.00133602
-3.32473e-07
-2.33729e-06
-0.00212653
-5.07682e-07
-0.00370609
-4.69399e-10
-0.0013007
0.000975605
-9.63616e-08
-0.000952572
-0.00360844
0.000249055
-2.82481e-06
-0.00349935
-8.80264e-08
4.28587e-08
-3.49113e-06
-2.09493e-07
-1.98917e-08
0.000324865
-1.70725e-08
-3.60174e-06
-8.91296e-07
-0.001594
-8.87899e-08
-2.51943e-06
-0.000928431
-0.00650303
-0.000513053
-1.55912e-08
-0.0073263
-1.99731e-09
-2.09995e-07
-3.31715e-06
-3.50123e-06
-0.000234181
-3.20037e-06
-1.28572e-07
0.00134758
0.00116328
-1.05695e-06
-4.58785e-08
-0.000326354
-9.57018e-07
-1.77082e-07
0.000780619
-3.98604e-08
-0.00683115
-4.43899e-08
-1.31718e-07
-4.08291e-06
-5.06333e-07
-0.00108761
-0.000612192
0.00125872
-2.71545e-07
-0.00184564
-1.74979e-08
0.00137502
-1.3282e-08
-3.49021e-07
8.02193e-05
0.00116529
0.000298949
2.95479e-06
-6.95448e-08
-7.5029e-06
5.59301e-05
-9.36037e-07
-8.02865e-06
-4.68221e-07
-4.05954e-07
-4.307e-08
-1.01397e-07
-9.26406e-07
-9.89685e-08
0.00119536
-3.51726e-07
-1.20362e-07
-1.96712e-07
-9.22024e-08
-2.074e-06
-7.71176e-07
-2.0819e-06
-8.22686e-07
-3.84463e-08
-4.36939e-08
0.000663841
0.00160813
3.01835e-06
-1.06029e-07
-1.1806e-07
-0.00136477
-2.54083e-06
-5.59046e-06
-7.46641e-08
-3.8703e-07
-0.00166971
-1.14574e-06
-2.57049e-07
-5.15715e-07
-0.000188401
-0.0021261
-5.97541e-07
0.000364614
-5.55694e-06
0.0011658
-3.80906e-07
-1.17053e-06
-3.12511e-06
-6.37835e-08
-1.66565e-08
-2.54457e-06
-0.00631705
-1.55734e-07
-3.48945e-08
0.0012919
-0.00257395
-3.93586e-07
-5.98911e-06
-1.86642e-06
-7.79809e-07
1.36991e-06
-2.91179e-08
-8.06273e-09
-1.30014e-08
0.000870973
-1.17652e-06
-2.88732e-07
-1.14801e-09
-0.00355504
-9.84512e-07
-4.5264e-06
-0.0012272
-0.00273869
-0.00275461
0.000296469
-2.53215e-07
-0.00484832
-1.42487e-08
-3.71696e-08
-9.27756e-07
-2.59881e-09
0.000294587
-0.00742534
-3.57624e-06
-3.7482e-08
-9.62801e-07
-4.57588e-06
-4.56491e-06
-3.43033e-06
-2.93743e-07
-1.15176e-06
0.00026931
-0.00264839
-2.40354e-06
-7.73039e-08
-2.74e-08
-1.02284e-07
-0.0049851
-1.17039e-06
-0.00126861
-4.08117e-07
-1.53853e-07
-5.75272e-06
-2.15121e-06
-1.44596e-07
-1.52331e-07
-6.80196e-08
-3.5027e-06
0.000311913
-0.000622263
-1.03097e-06
-0.000262163
0.000258624
-2.70152e-08
-1.25906e-06
-0.00228008
-3.52036e-07
-6.7754e-06
-1.16279e-07
-3.57493e-06
-3.80991e-09
-6.01743e-07
-2.06554e-07
-1.87525e-08
-1.53327e-06
-1.58318e-07
4.48622e-06
-3.65981e-08
-2.55844e-06
-0.00100339
0.000343166
-5.33586e-08
-1.25469e-06
-2.57241e-09
-4.37102e-06
-2.56852e-08
-5.50607e-07
0.00122892
-4.04093e-08
-3.54943e-07
2.33943e-09
-0.00071974
-8.12208e-08
-0.00697121
-0.00048916
-1.20494e-06
-9.07674e-10
3.41883e-06
-0.000672041
-0.00360221
-8.13448e-06
-7.72654e-07
2.86161e-07
-6.00232e-06
-9.83547e-07
2.10704e-06
-2.46907e-07
-0.00181744
-1.562e-06
-4.20891e-08
-4.54353e-07
-6.34726e-06
-0.00347563
-0.00240184
-9.55082e-08
-4.75231e-06
-1.89386e-08
-5.48862e-07
-7.10706e-07
-4.87649e-07
-9.86713e-07
-1.49191e-06
-5.03265e-08
-1.74282e-06
-2.28463e-06
-0.0103726
-1.53042e-08
-1.79201e-08
-5.87526e-08
-0.00251701
0.000634424
-1.10478e-06
-1.10567e-07
-3.88046e-06
1.36953e-06
-1.7743e-06
-1.0101e-06
-0.00242211
-7.47645e-05
-4.77807e-07
-8.98624e-07
-0.00414649
-1.06615e-07
-1.24241e-08
-1.83923e-06
-4.72566e-07
-9.21417e-08
-4.19703e-09
-2.71372e-08
-1.136e-08
-8.1056e-07
-1.31931e-08
-0.00237494
-1.10482e-06
-9.31049e-08
-0.00357827
-0.00128897
-2.33265e-08
-2.54754e-06
0.00028704
-6.93223e-08
-2.12655e-08
-1.07559e-06
-0.000728588
-0.000938929
-1.12048e-06
-4.54228e-09
-0.00563387
-1.47704e-08
-1.08429e-06
0.000242711
-0.00942466
-2.81005e-07
-0.0012295
-3.14639e-05
0.00135082
-2.16573e-06
-1.82716e-06
0.0003704
-0.00151591
-0.0127327
-1.59536e-07
0.000843724
-0.00045045
3.48098e-06
-4.57258e-06
-2.1789e-08
-9.65435e-07
-1.57205e-07
-0.00193496
2.65634e-06
-1.56277e-08
3.94148e-08
-3.37098e-07
0.00124801
-3.28163e-06
-1.06539e-07
0.000331035
-1.15931e-07
-5.1883e-07
-3.05434e-07
-0.000704473
-7.19864e-06
-5.74673e-06
-1.92042e-07
-3.33607e-07
-0.00401732
-3.0783e-08
1.37475e-06
-4.79254e-07
-1.06876e-06
-1.35968e-07
-1.79236e-08
-9.67444e-08
-1.2616e-06
-8.03745e-07
-2.2637e-06
-4.87616e-05
-0.00405498
-1.60635e-07
-0.000587886
-6.45797e-06
-9.38363e-08
-0.00919454
-1.78755e-06
2.53979e-05
-3.33575e-07
-2.11572e-06
-0.00681826
-0.000271584
-6.99807e-07
-0.00198059
-1.84336e-07
-0.00863652
0.000478952
-6.27592e-07
-0.00200792
-7.02268e-07
-0.00030917
-8.79977e-07
-1.39097e-06
-1.60714e-06
-1.47172e-06
-8.65091e-09
-4.43343e-07
-4.91117e-07
-9.71035e-07
-8.44371e-08
-1.11748e-06
-0.0028089
-4.87375e-08
-1.22784e-06
0.000452097
-2.85269e-07
0.00149062
-1.40815e-06
-0.00166661
-3.73333e-07
-1.83114e-06
-2.19454e-05
-2.34743e-06
-8.89604e-07
-0.00211141
-0.000315754
5.5521e-06
-4.64398e-08
-1.79824e-06
-6.82352e-07
-2.08596e-06
-1.089e-07
0.000257154
-0.00233994
-0.00326636
-3.32596e-07
-1.59949e-06
-0.00800843
0.00062934
-1.63559e-08
0.000713089
1.82184e-06
0.00245485
-2.2888e-07
-0.0146378
-2.38417e-08
-3.60628e-09
-0.00153714
-0.00739555
-9.86671e-09
-3.31179e-07
-1.2305e-06
-3.79992e-08
-0.00265186
-1.00539e-06
-1.76531e-06
-4.787e-07
-1.85602e-07
-3.72899e-09
-0.000109433
-8.83838e-08
-3.20856e-09
-0.00436107
-0.00296026
-2.41564e-07
-0.00713003
-3.65027e-10
-1.26031e-08
-3.01042e-07
-2.00095e-06
-1.43772e-06
-8.55008e-08
-2.14479e-07
6.01091e-07
-2.73232e-07
-0.00217599
-1.55209e-08
-6.25464e-07
-0.00347848
-1.20257e-07
1.56591e-08
-1.35538e-08
-4.64066e-07
-1.57248e-07
1.46409e-05
-0.0042739
-7.8453e-07
1.75183e-05
-3.08268e-07
-2.01809e-08
-0.0019747
-0.00704853
5.52298e-08
-5.57839e-08
-0.00149294
-2.23367e-07
-0.0354752
-4.07921e-08
-5.43283e-07
-7.53702e-07
-1.0176e-06
-0.00160862
-0.00807444
-0.000811444
-1.18284e-07
-2.30998e-06
-5.59994e-08
-0.00342728
-1.40302e-06
-2.10591e-06
-6.83352e-07
-1.88566e-07
-1.62028e-07
-9.80503e-07
-4.10376e-09
0.000735996
-0.00188666
-0.00220122
0.00027041
-0.00429131
0.000713513
1.39094e-06
-2.45938e-08
-5.26312e-09
0.00358334
-6.58514e-09
-8.21501e-08
-4.65002e-08
0.000295568
-3.27892e-07
-5.05362e-08
-1.20451e-07
-7.32979e-07
2.16235e-11
-0.00406947
-6.74439e-08
-0.00184966
1.83138e-05
-4.61869e-08
-2.85692e-07
-1.23e-06
-0.0100937
-8.78297e-08
-0.00471342
0.0164138
-6.29558e-08
0.00203735
9.34619e-06
-2.65875e-06
-1.15997e-07
-0.00441317
-0.000348491
-5.98305e-08
-4.51836e-06
-1.22393e-07
-6.9501e-08
-0.00454673
-0.000227159
-8.35455e-07
-1.43237e-06
-4.16017e-09
-1.56643e-06
-0.0017537
0.000592194
-8.64728e-08
0.000734875
-8.48253e-08
-1.27096e-07
-9.03486e-07
-6.37893e-07
-1.64436e-08
-1.76774e-07
0.00206742
-1.59166e-06
0.00187348
-3.00982e-07
-2.3054e-08
-0.00260453
-8.09063e-09
-1.8488e-06
-6.01627e-07
-9.44259e-07
-7.42059e-07
-0.00376913
-0.00019172
-4.15674e-07
0.000735266
-2.6106e-07
-8.86468e-07
-0.00361172
-0.00174304
-1.07676e-07
-5.12953e-08
1.16601e-06
0.00182361
-0.00537982
-1.55344e-06
0.00264143
-6.50398e-07
-8.48057e-07
-0.000457317
-0.00426785
-9.87039e-07
-0.00185066
-2.90348e-05
-0.00399855
-1.70154e-07
-0.00643187
-0.0146211
-1.77467e-08
0.000391273
-0.00271395
-2.87436e-07
-1.17202e-06
-7.64647e-08
3.40233e-06
-4.64485e-07
-0.0056635
-8.45923e-08
-2.11717e-09
-5.97646e-08
-7.25703e-07
-1.49224e-08
0.000290189
-2.28202e-09
3.86601e-06
-1.00569e-07
-2.08906e-06
-4.59444e-08
-1.49898e-09
-2.80098e-07
0.000739028
-8.32419e-07
0.00033634
-5.43312e-07
-4.0059e-08
-9.84887e-08
-9.57732e-07
-2.13165e-07
-9.73224e-07
-3.53689e-07
-1.4029e-07
-0.00612017
-6.67753e-09
-0.00222008
-2.88338e-09
-2.58715e-06
0.00075
-0.00310751
1.95065e-06
0.00156115
-1.03287e-07
-2.62331e-07
-0.00240125
-1.01197e-07
-0.00242079
-1.32193e-07
-6.56926e-07
0.000377268
-0.00017612
-9.92347e-08
-9.65705e-07
-1.41527e-07
-0.00387759
0.00033085
-1.43579e-07
4.88281e-07
-0.00235827
-2.93827e-09
-3.42431e-09
-1.95541e-06
-0.00205057
-0.00476544
-1.93983e-08
-1.68259e-06
-2.55303e-07
-3.38343e-09
-0.00602529
-1.709e-06
-9.1839e-07
-4.20632e-09
-2.36484e-06
-6.18008e-07
-1.77508e-06
-2.76527e-08
-1.48504e-07
-3.96703e-07
-4.47256e-08
-2.4648e-06
-1.08161e-06
-1.05879e-06
-1.04108e-06
0.000864456
-4.38558e-06
-0.0034227
-0.00246635
-4.89427e-06
-0.00129498
-2.14797e-07
-0.004545
-2.63196e-06
-1.17539e-07
-8.216e-07
1.99467e-06
-3.0742e-07
-3.97732e-08
-3.92328e-08
-2.53919e-06
-0.00182336
-6.4188e-07
-0.000472718
-4.11741e-08
-0.00463246
-1.24966e-06
0.000368781
-1.00213e-06
-3.787e-07
-3.24712e-07
0.000330592
-3.17053e-07
-1.43362e-07
-0.00848473
-1.78673e-07
-0.00121237
-2.57379e-06
-4.77379e-07
-6.24817e-07
1.02373e-06
-2.89916e-08
-3.25332e-09
-2.36202e-08
-4.00585e-09
-0.00349995
-1.05394e-08
-0.00603484
-0.00250812
-1.0284e-06
0.000495837
-2.98015e-05
-1.46185e-06
-1.89374e-06
1.68464e-07
2.62428e-09
-1.67208e-08
-4.06013e-08
-9.88286e-08
-2.67905e-09
-9.37832e-07
-1.56953e-06
4.90521e-08
-0.0121877
-1.68952e-07
-0.00226712
-2.35677e-09
0.000949318
-5.16868e-07
-2.90361e-09
1.95877e-09
-0.00300344
-4.0344e-07
-0.00523166
-0.00288261
-1.20079e-06
-1.34962e-06
-5.74454e-08
-0.00202495
-1.50227e-07
-3.28325e-07
-0.00629176
9.06149e-10
-6.75917e-08
-1.07449e-07
-1.37141e-06
-0.00184812
-4.63993e-07
-6.57435e-07
-1.29894e-06
0.000571093
5.96926e-08
-2.45504e-07
-0.00381406
-3.47764e-08
-0.0038165
-2.42613e-09
-2.75696e-07
-0.00825785
-1.64247e-06
-1.83557e-06
-7.44975e-07
-8.66627e-07
-1.61969e-09
-2.30718e-09
-8.56417e-07
-1.73807e-07
-1.36521e-09
-6.8535e-07
-5.63962e-06
-1.47099e-08
-2.49166e-07
0.000246675
-0.00559373
-8.19153e-07
0.00213514
4.50527e-07
1.88103e-09
2.31931e-08
-4.05103e-08
-4.47759e-07
-0.00364354
-0.00412068
-0.00302408
-0.00391784
-1.45803e-07
-1.38918e-07
-2.20925e-07
-1.38959e-07
-1.07799e-07
-0.010555
-3.94382e-07
-0.00194086
-2.64521e-06
-1.66477e-06
-5.57671e-09
-8.16136e-08
-1.52749e-05
-1.77715e-06
-3.03444e-07
-1.2402e-09
-1.97807e-06
-3.33576e-06
-0.000381311
-2.60412e-08
-5.8687e-09
-0.00171897
-2.62013e-08
-7.23558e-07
-3.34623e-08
0.000298744
-8.51588e-08
0.000801538
-7.38043e-09
-1.29703e-06
-1.01585e-06
-2.15472e-07
-6.4608e-07
-4.21353e-08
-3.24657e-07
-1.06942e-08
-0.00583307
-3.4546e-08
-0.00268606
-1.85675e-07
-0.00600578
-0.00213902
-5.61142e-07
-1.06211e-08
0.000437587
-0.00421243
-4.37214e-07
-1.68793e-06
-1.76757e-08
-0.00192676
-1.20877e-07
2.18181e-06
-1.85035e-08
-1.09341e-08
-0.00560994
-7.62284e-07
-1.45441e-08
-9.23041e-07
-0.00116638
-1.37601e-05
-0.00204727
-8.68445e-08
-0.00143245
-1.70587e-08
-1.34548e-08
-3.25512e-08
4.17974e-08
-4.67437e-09
-0.00141481
-0.00352864
-1.5659e-07
-2.50391e-09
-8.7344e-07
-9.27785e-08
0.000597676
-4.04709e-07
-0.00114688
0.000409859
-3.16607e-07
-2.98898e-06
-1.81904e-08
-1.06544e-06
3.51967e-07
-9.6619e-08
-2.13262e-09
-6.28262e-05
0.000324229
-1.34331e-06
0.000520346
-1.37423e-06
-4.16896e-09
-8.19664e-07
-1.7128e-06
0.000606412
-7.64869e-07
-0.00651898
-1.83321e-06
-4.66529e-09
-0.00397215
-0.00292933
-0.00212998
-0.00362404
-0.00452769
-1.22547e-07
5.93489e-07
-7.18555e-10
-0.00762625
-2.96479e-07
-1.55323e-08
-0.00160583
-1.62529e-07
-9.47108e-09
-1.13345e-07
-1.58524e-07
0.000300188
3.62375e-07
-4.92157e-08
-7.99221e-07
-0.000925145
-1.93448e-07
0.000484349
-5.74805e-08
-1.51416e-06
-1.03712e-05
-1.41896e-08
-0.00582185
-3.56296e-07
-5.92969e-07
-8.84124e-06
-1.67995e-07
2.29705e-06
-1.85273e-06
-0.00116164
-1.38022e-07
-0.00239998
-6.00215e-07
-0.0010987
0.000404087
-0.00211851
-1.20805e-06
-3.52361e-08
-1.48429e-07
-3.0743e-09
-1.33003e-06
-2.89343e-09
-0.00160058
-2.91477e-07
-9.13866e-08
5.3768e-08
-1.23365e-07
-8.24559e-08
-5.77101e-07
-3.28373e-07
-2.85521e-07
-2.73247e-07
-0.000979562
-0.00558469
-6.08079e-07
-3.15277e-07
-0.00188309
-5.57103e-08
0.00134686
-3.45907e-08
-2.41751e-07
-3.13202e-08
-1.17464e-07
-2.4451e-07
-2.14004e-08
-5.55713e-08
-9.06695e-07
-9.94571e-09
-4.12271e-06
-2.01017e-07
0.000392289
-0.012184
-5.73889e-06
-3.90616e-06
-1.37635e-07
0.000499557
-3.73163e-06
-4.63881e-09
-3.1605e-07
-4.60032e-08
0.00148923
-5.12263e-08
-3.53784e-07
-0.00866656
0.000459898
-5.25754e-07
-1.43864e-07
-0.00368441
-0.00899411
-0.00455607
-3.52948e-07
-4.07727e-08
-7.93942e-08
-1.13208e-06
-3.11753e-08
-0.000190633
-1.88927e-06
-5.83081e-09
2.81709e-05
-2.14577e-06
-1.07502e-07
-0.00143603
0.000765345
-1.55757e-07
-1.91138e-07
-0.00378669
-9.35219e-07
-1.80718e-08
-0.00179481
-1.95085e-07
-1.08273e-07
-5.81582e-08
-8.91115e-07
-1.31909e-06
-0.00239865
0.00152814
-1.2926e-06
-0.00266177
-9.41911e-07
-2.63699e-08
4.89538e-06
-3.72759e-08
9.75389e-05
-9.14817e-08
-9.26171e-09
-1.7537e-07
-1.74566e-07
-0.00234507
-0.00217927
-0.00121573
-0.00010252
-0.000761307
-1.08726e-07
-5.18817e-08
-1.98883e-07
-1.91719e-06
-8.1623e-08
-5.25038e-08
-4.9051e-07
-0.0117493
-0.00393527
1.67408e-08
-4.27594e-07
-6.6504e-07
-3.14306e-06
0.00048937
-5.67417e-08
-8.41682e-09
-2.78117e-07
-0.000359251
-6.9087e-07
-0.00164436
-1.42887e-07
-5.31211e-09
-1.09316e-07
-6.35129e-08
-2.06326e-07
-2.99937e-06
-0.00409416
-0.00291562
2.69096e-07
-2.03028e-08
0.00022542
-1.56231e-07
-0.0143206
-0.000581806
-4.7229e-08
0.000852564
-0.00349765
0.00170355
-1.54027e-06
-7.60534e-07
-0.00161203
-6.41191e-07
-1.39974e-07
-1.73354e-07
-2.82116e-07
-1.66163e-07
-3.30415e-05
-2.47971e-08
-0.00386252
-0.00173177
-3.52452e-08
-1.09662e-07
-2.89517e-07
-3.33344e-06
-7.9772e-07
-5.09005e-09
-6.18125e-07
-3.10864e-08
-4.68639e-07
3.06803e-06
-4.99838e-09
-0.00412044
-0.00187275
-2.67134e-08
-7.11486e-07
-1.31494e-06
-1.74946e-08
-0.00404941
-0.00151478
0.00042803
-0.00304576
-2.23805e-08
-2.27284e-07
-3.24043e-07
-3.61504e-08
-0.00138168
-8.20219e-07
-1.9375e-09
-1.50851e-06
-5.884e-08
-0.00517503
-1.03439e-06
-0.000892286
-2.3217e-08
-1.81456e-07
9.80611e-07
-1.70751e-06
-1.10323e-06
-4.31786e-08
-0.00136131
-0.00110605
-0.000671966
0.0008748
-0.00367928
-0.00264504
-0.00100591
-3.89861e-08
-2.31935e-08
-1.26227e-07
-0.0040744
-1.41489e-06
-1.00516e-06
0.000685342
-1.32631e-07
-1.33423e-08
-5.25545e-09
-0.00225386
-3.32762e-08
-5.0105e-07
-1.62197e-07
-0.00451296
-8.28483e-08
-3.9011e-08
-1.57575e-08
-7.33031e-08
-2.47047e-09
-1.41832e-07
-0.00122723
-1.45281e-07
-0.00341713
-2.09358e-08
-6.61516e-08
-0.00176949
-0.00223964
-0.00180904
-0.00507721
-1.36926e-08
-0.00463104
-3.78133e-08
-1.89568e-07
-1.82844e-07
-8.38268e-09
-3.41966e-07
0.000866814
-2.34038e-07
-1.76819e-06
7.49071e-05
-1.49587e-07
-1.17374e-07
-9.42483e-08
-3.19024e-06
-1.68085e-09
-0.00449299
-1.25685e-07
-0.00145938
2.6849e-09
-1.59154e-07
-4.4593e-07
-1.83605e-06
-2.08697e-08
-0.0079116
0.00111858
-0.000578102
-0.00224742
-1.86437e-08
0.000664376
-0.00823141
-1.80514e-08
-0.000997259
-3.22576e-08
-9.28935e-07
-2.80208e-08
-9.58891e-08
-1.97763e-08
3.06382e-09
-1.4382e-07
-1.53013e-11
-1.34296e-06
-1.49985e-07
1.55734e-09
-4.30233e-06
-8.61637e-08
-0.00683694
2.46515e-09
-6.5923e-07
-9.5976e-07
-0.000728587
-0.0148581
-7.82027e-09
-2.41704e-06
-3.05918e-08
-8.19527e-07
-3.24247e-07
-0.0052475
-1.20626e-06
-1.7407e-09
-2.50027e-06
3.19615e-06
-1.59429e-06
-0.00178433
-1.81099e-07
-1.33706e-06
-1.49787e-06
-1.40042e-06
-8.2176e-08
-1.08333e-07
-0.00575822
0.0003939
-2.62599e-07
-1.86044e-08
0.000526479
-4.4792e-08
-1.01623e-06
-3.49662e-08
-5.3616e-07
-0.000305574
1.71035e-08
0.000755224
-4.0807e-07
-4.83934e-09
-5.46796e-06
-1.53626e-08
-5.50586e-07
-0.00320014
-8.91122e-07
-0.0054888
-2.09929e-08
-2.45157e-09
-2.57076e-06
-4.22475e-09
-8.39833e-10
-6.19009e-07
-5.71077e-07
-1.35479e-06
-4.65019e-07
-4.75157e-08
-3.71899e-07
-1.06827e-07
-1.94688e-08
-4.59973e-09
-1.79139e-08
-4.58058e-05
-1.05857e-07
-6.69047e-08
-0.00540605
-4.40587e-08
-1.86522e-08
-0.0024432
-9.22207e-10
0.000376874
-2.50646e-07
-0.00279252
-7.34384e-06
5.28989e-07
-7.63299e-05
-6.55158e-07
-9.93379e-06
-1.69066e-07
-3.56844e-06
-3.42193e-07
-1.06434e-07
-8.60452e-08
-5.29891e-08
-6.63897e-07
-7.20674e-08
-3.75522e-07
-3.14279e-08
-1.91809e-07
0.000412505
0.000316251
-0.000560607
-3.34909e-07
1.97646e-06
-0.000243992
0.00122679
-7.84058e-09
-4.89164e-07
-2.34469e-05
-1.47934e-07
-5.78081e-07
0.000306071
-0.00301572
-5.52406e-07
-1.23582e-06
-1.46474e-07
-3.14651e-06
-2.29976e-09
-1.61703e-07
-0.0144128
-5.50843e-08
-5.76623e-08
-0.00820549
-6.2878e-07
-0.00219825
-0.00224659
-2.46243e-06
-4.98876e-08
-3.07026e-08
-1.58689e-07
0.000955002
-0.00579932
-0.0047414
-5.84967e-07
-5.57136e-09
0.000128265
-3.35126e-09
-2.4293e-06
1.45154e-07
-2.56687e-07
-1.05303e-06
-1.98958e-08
-0.00243921
-0.000642757
-3.52579e-08
-1.26008e-06
-1.42478e-06
8.36254e-05
-7.2281e-07
-1.57247e-06
-0.00129341
-9.51647e-07
-0.00524496
-1.51456e-06
-2.68622e-09
-1.00975e-06
3.67562e-06
-0.00434164
-2.34281e-08
-0.00652818
-7.12276e-07
-1.74125e-06
-1.82909e-09
-0.000549627
-4.52001e-07
-1.28035e-07
-1.07372e-07
-4.13229e-07
-4.39062e-07
-7.19612e-07
-6.87135e-09
-1.37495e-07
-4.03481e-07
9.04077e-05
-5.59052e-07
-4.73101e-09
-2.61331e-08
-1.02422e-06
-2.0893e-07
-8.80852e-09
-5.06171e-07
-0.00200834
-2.86003e-07
-0.00318597
-1.30524e-06
0.000149082
-1.21893e-06
-4.13823e-08
-1.27018e-05
-9.17348e-10
-2.29408e-07
-8.513e-07
-8.0471e-07
-9.54354e-07
-1.33379e-06
-1.94516e-07
-3.12411e-07
-5.32761e-07
-1.73503e-07
-2.86202e-08
-2.06222e-06
-4.16861e-07
-9.3681e-08
-0.0132671
-2.82411e-07
-2.4582e-07
-4.34349e-08
-0.00200746
-5.28259e-07
-4.43967e-08
-3.52377e-07
-1.83845e-08
-0.000611771
-1.39982e-06
-8.54021e-07
-0.00360865
-0.00271943
-2.28084e-05
-1.25556e-06
-0.00567816
-4.70927e-08
2.64834e-07
-4.96859e-08
-1.81828e-08
-0.0023106
-0.00411212
-1.10862e-05
-6.31809e-05
-1.43348e-09
-0.000646913
-4.58858e-08
-1.7564e-06
-1.78925e-07
-0.00465972
-0.00110778
-4.76735e-07
-8.20996e-09
-1.07378e-05
-9.89635e-07
-2.55333e-08
0.00114816
3.05118e-09
-1.28954e-07
-4.14116e-07
-2.5046e-08
-4.88819e-07
-2.49663e-08
-8.8211e-09
-3.81169e-07
5.98958e-06
-1.05136e-06
-5.73567e-07
-2.60668e-08
9.81082e-05
-0.00422263
-1.1687e-08
-0.00727945
-1.75064e-07
-1.03922e-07
-0.00403647
-1.20701e-08
-8.59781e-08
-1.61705e-07
0.000132832
-2.38308e-08
-4.40311e-09
-8.61515e-07
-0.00455251
-1.20388e-08
-1.62624e-07
-3.33972e-07
-0.0129674
-6.10819e-07
-8.10453e-07
-2.98821e-05
3.97125e-09
-2.15557e-06
-3.05854e-08
-0.000429181
-4.41809e-07
-5.08507e-09
-5.63033e-07
-1.07347e-06
-5.44784e-09
-1.4587e-07
-3.22369e-06
-0.00424437
-1.51666e-07
-0.000553929
-6.96895e-09
-3.18574e-08
-1.03187e-06
-2.29906e-08
-1.0463e-07
-0.00408669
-2.58059e-09
-9.92115e-07
-6.24142e-06
0.00165433
-0.0118668
-7.75898e-08
-1.66448e-08
-1.24702e-07
-1.35275e-08
-3.19356e-08
-1.49842e-08
-0.00480367
-7.16801e-09
-0.00435801
-1.99958e-06
-5.73577e-08
-9.41909e-08
-5.06069e-07
-1.98368e-06
-0.0067371
-6.68034e-07
-6.33289e-07
-1.67237e-07
-0.00245195
-4.55442e-07
-8.20327e-07
-1.16927e-06
-3.072e-07
-9.12222e-07
0.00257104
-1.23586e-06
-0.00277913
-0.00608937
0.000702771
-3.5595e-07
-1.04317e-07
-6.8662e-07
-7.04502e-07
-9.9693e-08
-1.55045e-07
-1.23876e-06
-3.73169e-09
-1.47778e-07
-2.1706e-08
-5.44559e-09
-2.77316e-07
-1.3389e-07
0.000733093
-8.97495e-09
-0.00578381
-1.33078e-08
6.70782e-09
-1.70589e-07
-1.72953e-06
-3.95339e-07
-3.23037e-08
-0.00337701
-3.83391e-08
-5.02593e-09
-1.11065e-06
-1.05835e-07
-1.64081e-07
-1.22841e-07
-0.00418907
-2.00757e-07
-8.9635e-07
1.93866e-06
-0.00361092
-2.56412e-07
-0.0044093
-0.0125124
-3.18563e-07
-1.39113e-07
-2.18909e-07
-5.27537e-07
-8.93113e-07
0.000374922
-9.62755e-08
0.00179595
-1.05364e-07
-3.47596e-06
-0.00276485
-5.68316e-07
-0.00460636
-2.34242e-07
-6.88404e-07
-1.79562e-07
-9.06009e-05
-4.58303e-07
-3.24318e-09
-2.84038e-07
-5.28059e-07
-2.0872e-07
-1.85847e-08
-5.62073e-09
0.000811567
-3.52337e-09
-2.35177e-07
-0.00215256
-1.79023e-07
-4.39589e-08
-3.69261e-07
-2.29189e-07
-0.00455182
-1.53652e-08
-2.78293e-08
-3.45739e-08
-1.74418e-08
-1.68229e-07
-1.39108e-07
-1.37273e-06
-0.00206005
-4.8711e-08
1.82934e-09
-0.00527153
-1.27425e-07
0.000786167
-2.63459e-07
0.000440594
-1.08711e-07
-1.5155e-07
-3.16622e-08
-0.00243291
-0.00234722
-2.6449e-07
-2.66617e-07
4.33363e-07
-8.48955e-08
9.27377e-10
-0.0041813
-3.43997e-09
-1.81701e-06
-3.00589e-08
-1.38245e-06
-6.35012e-09
-0.00380286
-4.01625e-08
-1.29028e-06
-5.53244e-08
-5.79428e-06
2.80771e-06
-1.05865e-07
-1.8502e-07
-0.000636839
-1.40038e-06
-0.00468932
-0.00466723
-2.45881e-06
-2.85664e-08
-7.03271e-07
-1.20907e-06
-0.0105577
-9.89079e-08
-1.2163e-06
-7.17616e-08
-1.07733e-07
-0.00257101
0.00221202
-1.37008e-06
-3.80936e-06
-8.44416e-06
-4.13459e-07
-0.00269118
-1.00698e-07
-1.06777e-07
-1.07578e-06
-0.00369952
-4.86949e-07
-2.04303e-06
-0.0084042
-4.1108e-08
-0.00070332
-0.00221994
-0.00211322
-3.39236e-09
0.000476306
0.00187437
6.02293e-06
-3.22511e-05
-0.00165305
-1.75239e-06
-4.79252e-07
-1.86053e-06
-4.20797e-08
-7.95637e-08
7.90165e-06
-1.70394e-06
-2.20311e-08
-0.000774474
-8.02281e-09
-6.88617e-08
-1.07773e-06
-1.07325e-07
-0.0318181
-1.14485e-07
0.000504365
-1.34742e-06
-3.04438e-07
-0.00647015
0.000334161
-2.87865e-06
-1.19467e-08
-5.92799e-08
-9.15187e-07
-1.74614e-07
-2.96164e-08
-7.27199e-07
-1.24821e-07
-1.93511e-06
-6.35349e-08
-7.37369e-07
-1.82706e-07
-2.95363e-07
-0.0043012
-0.0050714
-1.54592e-08
-8.244e-07
0.000998682
-5.35458e-08
-1.46261e-07
-0.0013776
-2.43932e-06
-2.50121e-07
-3.1116e-07
-1.69065e-08
-4.1741e-07
-4.29068e-07
-0.00370981
-9.7823e-07
-5.30028e-08
-2.1325e-09
1.96984e-08
-3.15028e-07
-0.00691189
0.000296407
-9.25672e-08
-2.31791e-08
-3.32483e-07
-6.24776e-09
-2.80932e-07
-1.55759e-07
-1.8877e-07
-5.5453e-08
-6.16184e-08
-1.78279e-07
-1.79252e-08
-1.29788e-06
-0.0112607
-2.21213e-09
-0.00276443
0.000702035
-3.25708e-08
-1.6397e-06
-9.4492e-07
-4.37282e-07
-8.57308e-08
-1.67498e-06
-4.69478e-07
-4.64042e-07
-6.02457e-07
-1.98428e-07
-2.37724e-09
0.000433959
-6.43534e-07
-0.00532602
-7.81572e-08
-1.19526e-08
-2.42814e-08
-3.4236e-07
-5.06887e-08
-1.01688e-06
-1.49393e-06
-1.2718e-05
-4.48377e-08
-0.00130153
-0.000120061
-0.00113995
-3.97171e-08
-1.55424e-06
1.61738e-06
-0.000192114
-0.000305755
-1.14859e-08
-1.29845e-07
-9.02289e-07
-0.00812822
-0.00598261
-1.01097e-06
-0.00833152
-9.36588e-10
-1.0939e-07
-2.59911e-07
-7.57229e-09
-9.7391e-10
-1.84561e-06
-2.75962e-09
-3.00371e-06
-1.0805e-07
-5.17872e-05
-0.00276834
-0.00535745
-0.00430036
-0.00103008
-1.80795e-08
-1.0249e-08
-0.00552849
-1.07572e-07
-1.04512e-07
-3.46136e-08
-8.80097e-07
-0.00191625
0.000409249
-1.09956e-07
-1.17034e-07
-1.85369e-07
-2.41914e-07
-0.00098551
-9.85363e-09
-0.00471481
7.17626e-06
-7.39452e-09
5.38649e-10
-0.001864
-1.73987e-06
-2.49662e-07
-1.87977e-08
-0.00215708
-0.000268511
-1.27799e-07
-9.04831e-07
-3.09089e-09
-0.00130208
0.000270302
-2.34367e-07
0.000431431
0.000706733
-0.00460365
-1.05236e-07
-1.05422e-07
-4.04462e-09
-2.9393e-09
-0.00224545
-7.9003e-08
-8.53706e-07
-0.00603379
0.000379392
-1.85345e-07
-4.72158e-07
-0.00274084
-6.95688e-07
-0.00626185
0.00180917
-6.44819e-09
-4.18054e-07
-4.18405e-07
-9.00258e-06
-0.00327701
2.47151e-09
-0.0018998
-1.90363e-07
-1.19567e-06
-8.11766e-08
-1.50046e-08
-1.46267e-06
-6.49227e-07
0.000630872
-7.16632e-09
-5.62407e-07
-1.79036e-07
-1.90003e-06
-3.23423e-07
-0.00204764
-0.00651304
-5.33423e-07
-2.4294e-06
-5.99262e-08
-1.82469e-07
-1.55801e-06
-4.23498e-06
-0.00259918
-0.00303365
-5.00737e-09
-0.00476146
-1.80455e-06
0.000287454
-5.08523e-07
-6.23378e-07
-7.79408e-07
-1.38393e-07
-0.0035655
-1.88003e-08
-7.27489e-07
-0.00297181
-0.000424102
3.40514e-06
-0.00169824
-2.55142e-07
-1.02851e-06
-1.03246e-07
3.65517e-05
-2.42166e-07
-0.00532511
-1.00952e-07
-0.00396471
1.3953e-08
-2.85504e-08
-6.93987e-07
-7.48029e-08
-1.59303e-07
-8.08649e-08
-0.00226347
-1.32434e-06
-7.80654e-08
-5.07446e-07
-0.00235093
-1.05938e-05
-1.83485e-08
0.00200867
-2.13557e-07
-9.38059e-07
-8.78137e-07
-1.77512e-08
-6.99368e-07
-3.00889e-08
-0.00150276
-2.45903e-07
-5.49269e-07
-2.26829e-08
6.31258e-07
-8.42779e-07
-9.97365e-08
-0.00462546
-0.00692297
-6.26375e-06
-3.15778e-08
-0.0117108
-7.20068e-09
-1.05204e-06
-5.789e-07
-2.65391e-07
-0.00197283
-0.00198097
-1.91069e-07
-0.00182129
-4.07318e-07
-3.44501e-07
-7.18806e-08
-0.00347093
-5.3157e-07
-9.76658e-07
-4.75518e-06
-1.71027e-09
-0.00455675
-7.99279e-07
-2.05131e-06
-0.00470623
-0.00208883
-0.00234608
-0.000107758
0.000659514
-1.41986e-07
-7.22512e-08
-1.25894e-08
-1.38746e-07
-7.01831e-09
-2.45185e-06
-2.81749e-07
-1.51877e-07
0.00189254
-5.67911e-08
-2.65017e-08
-1.28234e-06
-1.19667e-06
-5.2504e-07
-4.29171e-08
0.000342524
-2.73747e-07
-1.3956e-06
-8.91781e-08
0.000782118
-8.68365e-08
-0.0015863
-6.48661e-07
-7.23746e-07
-4.47125e-07
-1.39939e-08
0.000576013
-0.00188143
-7.65195e-07
-8.14858e-08
-1.42911e-08
-0.00154343
0.00115786
-0.00367868
-1.122e-07
-7.49385e-07
-0.00837043
-1.33473e-07
-1.93433e-08
-1.25213e-07
-0.00192928
-1.43018e-06
-3.86606e-07
-5.74469e-07
-4.64773e-07
-0.00375522
-4.61309e-07
-4.69398e-06
-5.10012e-07
-7.09617e-07
-4.84474e-09
-5.46412e-07
-5.13859e-07
-2.84172e-08
-0.0043419
0.00194444
-0.00111296
-0.0043081
0.00151674
-0.00425742
-0.00472486
-1.84804e-08
-9.49159e-08
-0.00407742
0.000235283
-0.00533851
-7.88042e-08
-9.67946e-07
-3.84387e-09
-5.2809e-08
-0.00453811
-0.000314469
-1.29674e-06
-2.76694e-08
-0.0071475
-1.7762e-06
-8.3073e-07
-0.00110077
-4.95952e-05
-0.00641541
-1.38746e-08
-0.00197208
-0.00477375
1.31126e-06
-8.65062e-07
-9.52336e-07
-1.09018e-08
-4.65187e-08
-7.23074e-07
-7.3003e-07
-2.1347e-07
-1.13943e-06
-5.31262e-07
-1.78556e-07
-0.00350659
-0.0017588
-1.56368e-07
-1.22376e-06
-0.00106207
-0.0011786
1.82959e-09
-6.56357e-06
2.85991e-06
-0.00222145
-6.96229e-07
-1.42824e-07
-5.68155e-07
-3.22474e-07
-1.51952e-07
-1.95893e-08
-2.67132e-07
-7.67287e-07
-1.26004e-06
-6.22364e-07
-1.91592e-09
-1.85842e-07
-0.0021759
-0.00390988
0.000368419
-0.000835908
-2.38949e-06
2.44778e-08
-2.8332e-09
-5.53068e-07
-1.03627e-07
8.54089e-05
-8.97647e-09
-2.40471e-09
-5.49672e-08
-0.00434612
0.00247429
-4.85364e-08
-1.34637e-06
-3.26527e-07
-1.93185e-07
-5.05624e-07
-1.4219e-07
-1.03454e-06
-6.29701e-07
0.000942261
-4.48258e-07
-0.000112879
-5.59701e-07
0.000316827
-4.39814e-07
-1.24551e-08
-6.59369e-08
-1.77316e-06
-2.69507e-06
-2.90124e-08
-1.45171e-07
-4.63385e-07
-6.45916e-07
-0.00441627
0.00106001
-0.00510506
-2.38823e-09
-0.00101243
-2.69343e-07
-4.53359e-07
-2.17895e-08
-7.24401e-07
-1.67467e-07
-0.00279577
-8.75569e-06
-4.36795e-07
-1.1225e-08
-0.00400547
-5.32988e-08
-0.00143405
2.96503e-05
-0.00461923
-1.9705e-07
-6.61319e-07
-0.00434747
-0.000507906
-0.00181361
-7.18003e-07
-1.23756e-07
-5.5537e-07
-1.06658e-07
-0.00519706
-1.84654e-07
-4.93259e-07
-0.00834058
0.000318217
-1.18164e-07
-7.4463e-08
0.00128688
-6.58039e-07
-0.0024264
-4.84856e-07
-1.95466e-08
-7.80162e-07
-3.46304e-06
-7.16825e-08
-0.00509804
-4.59072e-07
0.000447678
-3.00518e-07
-3.43786e-09
-8.12639e-08
-5.29589e-07
-4.12538e-08
-1.86927e-07
-7.87289e-09
-1.2589e-07
-3.15707e-07
-4.71175e-07
-1.37649e-07
-2.16015e-08
-4.94453e-07
-0.00154392
-1.26305e-06
-7.49448e-07
-9.03822e-08
-7.56068e-07
-6.1738e-08
-8.86687e-07
-5.58966e-07
-9.62313e-07
2.35581e-06
-6.20715e-07
-4.52116e-07
-2.96448e-07
-1.05369e-07
-1.3407e-06
0.00273771
-0.00321497
-1.38447e-07
1.33668e-05
-0.00158375
-5.84649e-08
-3.06744e-08
8.32945e-07
-0.00108908
-1.56926e-07
-0.00184322
-1.16548e-05
-1.12377e-07
-1.61699e-06
-4.22484e-09
-4.1598e-07
-8.03534e-07
-0.00412118
6.48473e-07
-0.0039003
-0.00259343
-0.00440123
-0.00142311
-2.49251e-07
-0.00177275
-1.3013e-08
-0.00456394
-0.0010816
-1.47616e-08
-5.45457e-09
-0.0029668
-1.0251e-08
-1.16791e-08
-0.00131473
-0.00306332
-2.94501e-06
-4.7182e-07
-0.000979984
-4.36189e-09
-0.00398522
-0.00172459
-3.75014e-09
-0.00824756
-0.000290035
0.000227645
-0.00258464
-0.00191453
-0.00269553
-4.82166e-08
-3.90542e-08
-9.14471e-07
-1.32889e-06
-1.02626e-08
-0.000794187
-1.67605e-08
-0.00212353
-0.00296685
4.93591e-08
-0.00271316
-0.00233008
-0.0025821
-0.00149306
-3.01669e-06
0.000732959
6.13317e-06
-4.06702e-07
-1.82772e-08
-0.00490716
-2.00576e-07
-1.07798e-07
0.000318778
-4.87642e-08
-0.00505766
-1.16981e-08
-0.00123152
-4.38803e-07
-4.36451e-08
0.000444243
-9.34616e-09
-1.00941e-07
-0.00273307
-0.00764268
-3.35062e-05
-5.90373e-07
-1.4454e-06
-9.63686e-08
-1.21094e-06
-2.43793e-06
-1.18576e-06
-4.99363e-10
-1.07427e-05
-1.09771e-06
-3.37801e-07
-0.00227268
-9.5539e-07
-2.16694e-07
-1.77764e-06
-9.17384e-07
-1.2766e-06
-4.56688e-08
-2.08561e-06
-7.1339e-08
-2.18945e-06
-0.00586151
-0.000795498
-3.41475e-08
-7.18439e-07
0.00118085
-2.51193e-07
-7.05027e-07
-8.16547e-07
-7.9232e-07
-0.002518
-1.16091e-06
-4.60401e-08
0.0103375
-2.92751e-08
-0.00409345
-1.24583e-08
-2.19876e-07
-2.16776e-06
-0.00379294
-4.25462e-07
-2.31711e-06
-9.52214e-07
-7.93854e-07
-1.5134e-07
6.25044e-07
-7.24908e-07
0.00129825
-4.17256e-08
0.00766254
-3.20326e-06
-8.06772e-07
-5.33344e-07
-5.4392e-07
-6.2615e-07
2.19634e-06
-1.18238e-06
-1.95235e-07
-2.5884e-07
-1.19877e-07
-2.91699e-05
-3.96071e-08
-4.5856e-07
1.72861e-08
-1.74261e-06
-4.97147e-07
-1.23726e-06
-0.00132928
-3.77597e-09
1.18218e-07
3.09797e-08