/*--------------------------------*- C++ -*----------------------------------*\
| =========                 |                                                 |
| \\      /  F ield         | OpenFOAM: The Open Source CFD Toolbox           |
|  \\    /   O peration     | Version:  v2012                                 |
|   \\  /    A nd           | Website:  www.openfoam.com                      |
|    \\/     M anipulation  |                                                 |
\*---------------------------------------------------------------------------*/
FoamFile
{
    version     2.0;
    format      ascii;
    class       volScalarField;
    location    "400";
    object      omega_0;
}
// * * * * * * * * * * * * * * * * * * * * * * * * * * * * * * * * * * * * * //

dimensions      [0 0 -1 0 0 0 0];


internalField   nonuniform List<scalar> 
13851
(
0.0222542
1.18397
0.0483827
0.0221174
0.046586
0.109532
0.0214873
0.0302315
0.0208223
0.0595564
0.288993
2.41235
0.685331
1.92739
0.0213938
0.025518
0.0224119
0.0241723
0.177478
0.0208049
0.0220274
0.046648
0.0247821
0.0253561
0.0256466
0.0307174
0.0222069
8.67121
0.0221416
0.022275
0.294996
0.0225104
0.0462059
0.429656
0.0246101
0.0884256
0.173432
0.127516
0.0657076
0.425023
0.0211966
0.0202516
2.52282
0.279008
0.274398
3.94646
0.273391
0.610405
0.0222739
0.165555
0.0420508
0.0754912
2.47782
0.0214721
0.0225554
0.0202812
0.0231244
1.27218
0.0221911
0.0214758
0.128621
3.67618
0.0391454
0.0537367
0.253519
0.0231367
0.197399
0.275904
0.0250586
0.0240993
7.40176
0.178316
1.22014
0.0215566
0.0210313
0.0210988
0.0448317
5.52312
0.0299402
6.64584
0.0215233
0.191947
0.0213059
3.72512
0.0412937
2.41743
0.0481665
1.87166
0.0225552
0.0219637
0.0888088
0.0292539
0.274647
0.0232318
0.0224879
0.0267
0.0477134
2.69772
0.218528
0.0270911
1.69923
0.0311308
0.0215765
0.0221521
0.0223474
0.0568291
0.0336351
0.0200459
0.370383
0.140342
0.0273106
0.0220831
0.0281142
0.029905
0.0265711
0.881035
2.71053
0.0199936
0.024652
0.0235392
2.83632
0.0221126
1.2471
0.627811
0.658397
0.0238257
0.661988
0.0306154
0.0219456
0.0793123
0.0211877
0.0207829
6.11999
0.0213104
0.875226
0.0209552
0.0199996
0.17192
2.37301
1.9923
1.63179
0.0223729
0.0229021
0.0210939
0.0219043
0.280482
0.02647
0.081005
0.0214799
0.273611
0.0422393
0.0227217
1.95079
0.0230907
0.0218139
0.0218717
0.0210311
0.0218691
0.0753982
0.041327
0.0206268
0.0231905
1.31998
0.0207703
0.0236414
0.0206329
0.0272026
0.0252318
0.0218803
5.65283
6.53411
0.0204984
0.0210423
1.9644
0.0207588
0.617681
0.029921
0.0227367
0.178034
0.0201426
0.0227534
0.166543
0.021318
0.0499035
0.0204044
0.0255994
0.0232024
0.0217099
0.0530563
0.0590479
0.274652
1.85471
0.0225355
0.0251445
3.1134
0.0217661
0.0226408
0.412722
0.0225568
0.0211272
0.0239142
6.67281
0.0282025
0.0212104
0.0468716
0.0213232
3.84286
0.0224534
3.12009
0.0203003
2.97191
0.0215382
0.430421
0.0200455
0.0209108
0.266965
0.039202
2.9879
0.0213431
3.08764
0.0225051
0.0215381
2.79912
0.0744291
3.26271
0.0261357
0.0238283
0.0226395
1.36672
0.0200704
0.0300747
0.54289
0.0204796
0.0223883
0.0376814
0.0317882
4.01528
0.362169
0.0210607
0.0212196
0.237955
0.43927
0.0216805
0.0505122
0.0220503
3.24113
0.0318636
0.430116
0.021903
0.022745
0.0265791
0.437046
0.0214892
0.0219347
0.0315337
0.599354
0.0559484
0.167938
23.8519
0.0214082
0.0209435
0.0236832
0.796771
0.0217548
0.496767
0.0217608
0.0214794
0.0230824
2.71069
0.0490668
0.026503
0.021809
0.82602
0.0290101
0.0251748
0.0207914
0.208213
0.0502703
3.3506
0.287707
0.0216998
0.0202089
0.022156
0.0305565
0.761198
0.603004
0.0209415
0.0214334
0.82528
0.143896
0.0909089
0.0220712
0.0214743
0.025931
0.14355
0.465138
0.023368
2.35995
0.0208127
3.22719
0.0230845
0.0223714
3.27263
0.0213447
0.0676563
2.9901
0.0209157
0.028034
0.0232774
0.0219944
2.8042
0.0234468
0.0214629
2.7968
0.020348
0.0228268
0.0246832
3.21023
0.0646259
0.0213422
0.031814
0.0213735
11.3883
0.0283425
0.0248947
0.0212124
0.063232
0.0236248
0.0217938
0.0214373
0.0213365
0.0214475
0.285309
2.07643
4.39457
0.0258112
3.15427
2.30831
0.0213639
0.0254057
0.0924228
0.0329431
0.040882
0.0650851
0.161581
0.024058
0.729961
3.08397
0.0214036
0.0517466
0.0582267
0.418005
0.021792
0.0437174
1.32783
0.0210604
0.751292
0.0212076
0.0213852
0.0217248
0.0200655
0.0209863
3.05676
0.335569
0.0212656
0.0275476
0.0205031
2.23366
0.0284026
0.654017
4.39453
0.0212671
0.0420161
0.023324
0.621736
0.02115
0.0200047
0.0268741
1.7671
0.0213505
3.11346
0.032062
0.0695402
10.1983
0.233501
0.229284
0.025198
0.0208349
0.0218026
0.0251583
0.0314556
1.98714
0.0252106
3.18141
3.01781
0.0205242
0.0214128
5.58667
5.02513
0.403368
2.73391
0.027396
0.0235202
0.0273969
2.18679
0.0206547
0.0252106
0.0247603
0.0214428
0.0223952
0.020892
0.0206107
0.0518602
0.0373027
7.24572
0.0244222
0.0330784
0.028608
0.424401
0.0230712
0.689599
0.0222894
0.248295
0.0199867
0.0208685
0.0268572
0.144892
0.405951
0.0728987
0.0278076
9.95229
0.434997
0.0414113
0.0236386
0.0384161
0.0211393
0.419025
0.0227298
1.88327
0.422287
0.0438713
3.21366
0.022895
0.0437206
0.410621
1.95928
0.020126
0.02396
0.0305425
0.0579795
0.0205878
0.0214469
0.0401085
0.0698413
0.0265308
1.64652
0.0261662
0.0212583
1.52184
0.0239915
0.0201611
1.81574
0.0208262
0.022249
0.0206691
0.0297244
0.0217394
0.0202377
0.0227361
2.75147
0.0213097
0.0259274
0.0208585
0.0261935
0.112552
0.0303401
0.0211775
0.0301092
0.0304145
0.650256
0.0214782
0.0609101
0.0213213
0.0261749
1.71419
3.33504
0.0213398
0.0268741
0.0231352
0.448091
3.35884
0.0212614
0.3328
0.0211637
0.0471911
0.021448
1.39438
0.0203692
2.86456
0.0559916
0.0202711
0.0268964
2.88373
0.0307921
0.287445
0.0237985
0.550956
0.0229844
0.0207095
0.0208023
0.0214637
3.92807
0.0381129
0.0719955
0.164398
0.0373847
0.0207264
2.36064
0.399158
0.0228053
0.0232585
0.445493
0.592476
2.83041
0.0220815
1.41245
4.51483
5.13351
0.0237538
0.0275285
0.63483
0.0489865
0.557766
0.412212
2.10729
0.0219357
2.18955
0.202407
0.0200649
0.0439524
0.0390404
4.18162
0.0219665
0.0212206
0.021014
0.0211859
0.0515805
0.0292861
1.84312
1.60629
0.0208501
1.64134
3.11119
0.275809
0.397408
0.0256914
0.0200622
0.0208455
0.0354863
2.4725
0.021842
0.049465
0.0884207
0.0202626
0.0324244
0.565417
0.136973
0.0652241
3.84076
0.209316
0.021174
0.021452
1.35371
3.0121
0.0688378
0.0251233
0.044747
0.0201224
0.0211078
1.87557
0.0202006
0.0219349
0.0201253
0.0208363
0.295569
0.0513918
0.0263241
0.0201881
3.67412
0.408663
0.0208336
0.0224864
0.0218429
0.0217447
1.71203
0.425176
0.431493
4.34243
0.560425
0.0246022
6.18593
3.27604
0.0244058
0.0252534
0.0200573
0.0245952
0.0259444
2.6329
0.70266
0.0488094
0.0236541
0.02076
0.0254434
0.0228855
0.309842
0.0422876
0.0213177
0.0262034
0.0205845
0.0229997
0.0751854
0.021466
0.0211268
0.0284347
0.0214175
0.0475246
0.137237
0.0708726
0.0257134
0.0714277
0.0207417
0.137062
0.0273551
3.55807
0.0215061
0.0263364
0.33002
0.0221104
10.8611
3.12905
2.04972
1.73472
0.0206443
0.171083
0.0220187
0.0208377
0.0203687
0.02085
0.0241792
0.0248819
0.0286816
0.0201354
2.24786
0.0587638
2.29022
0.0209702
0.0207035
0.0232429
0.0890055
3.01998
0.0319197
0.0230825
0.0220949
0.0264661
0.0222092
0.0210727
0.140346
1.76521
0.0214087
0.020123
0.0214731
0.0210654
0.758811
1.55409
0.0256743
2.66735
0.559664
0.0211177
0.0711694
1.90259
0.0256875
2.50416
0.0215138
0.023787
0.0315087
0.0239873
0.416807
0.0213342
0.628484
0.0227682
0.0239982
3.05076
0.0212745
0.0218835
0.0418276
0.0207244
0.0226118
0.848208
1.98274
0.041142
0.399378
0.274477
0.0200655
0.0209533
1.68444
0.0858179
0.0337893
3.11377
0.0207946
0.0232794
0.0200767
0.550001
0.187035
0.0227988
0.0214518
0.129384
0.0222448
0.0231291
1.78181
0.866154
2.86156
0.0203231
0.0214098
5.55371
3.11142
0.0802959
0.0226335
1.05392
0.0213199
0.198994
0.0873126
0.0464225
0.0224842
2.43507
0.0259707
0.0236129
0.162884
0.026139
0.0280578
0.0217925
0.0207213
1.74315
0.0247973
0.0656458
0.0259142
0.0678457
0.0207827
0.859489
0.0242583
0.0259006
0.0208591
0.0210978
0.0213733
2.98352
0.0209998
0.020084
0.643201
0.021459
3.92597
0.0235263
0.0228343
0.0401763
1.20356
0.350759
0.0210535
0.660424
2.63457
0.0214872
2.85863
0.0239144
0.020686
0.0383381
2.05644
0.472257
0.022826
0.0209849
0.0200632
0.40565
0.0525173
0.0404792
0.0231987
0.0380719
0.0218507
0.022714
0.0486138
0.400389
0.0516696
0.708459
0.0214024
0.0478859
0.047521
3.10321
0.0227512
2.5811
0.164384
0.021469
8.86609
0.0939397
2.50182
2.01853
2.8437
0.360251
0.0285948
0.0207031
0.0248715
1.25844
5.57132
0.0211905
0.0266155
0.0389585
0.0819211
0.0202492
2.38431
0.0207623
0.0212849
1.56222
5.53432
0.289299
0.0208327
0.0213983
2.45182
0.134626
0.0646577
0.0229488
2.8907
0.146804
2.45921
0.0331399
0.0272452
0.0214596
0.0214485
1.31009
0.0303718
5.9215
0.0285373
0.0250312
2.14856
2.5375
3.41321
0.0213704
0.0241454
0.0208237
0.0259749
0.0218509
2.25235
0.0236355
3.26856
0.0202178
0.0395152
0.0211121
0.110515
0.0248068
0.0240128
2.69206
0.0280788
0.0311769
0.0261061
0.0395375
0.593341
0.0503065
0.0219677
6.55124
0.0216066
2.09399
0.34325
0.0213772
3.06346
1.76081
3.61299
0.359989
0.0277568
0.0211605
2.86908
0.0236465
0.86349
3.13134
0.0209706
0.021793
0.144881
0.406841
2.03445
0.0213752
0.0214516
1.40409
3.08114
0.0656855
0.0226722
0.0224642
0.340297
1.599
0.0492173
0.0200959
0.0287167
0.0207356
0.0253651
0.12781
0.02793
1.81313
0.418968
0.021285
0.0230583
0.0211774
0.0218106
6.28541
2.95434
0.0238148
2.73792
0.0211126
0.023843
0.0211353
0.0207466
0.0213282
0.0212753
3.97186
0.021337
0.0315787
0.0213682
0.0228839
0.135997
2.60364
0.0240492
1.4054
0.0428592
0.169821
0.0250524
0.0250806
8.11509
0.023
0.0300704
2.23468
0.784435
2.15967
0.0277199
0.279893
0.0214655
0.0274783
0.031757
2.17279
0.022013
1.84029
0.02094
0.0209836
1.95086
0.0237007
0.258225
0.0225739
0.020814
0.0304527
0.0208238
0.0214039
0.0226315
0.0214988
0.133407
0.0209833
0.133979
1.49394
0.041917
1.91329
0.0214418
0.0253365
0.0253935
0.0211885
0.0208038
0.0453039
0.0215781
0.0209842
0.0214731
0.0259736
3.81802
1.77258
0.0460589
2.75474
0.145416
0.0210996
0.550366
0.0235828
0.0209732
0.336721
0.0991817
0.493387
0.0210801
0.273202
0.403365
1.32197
0.020493
0.932891
0.0245238
0.0221637
0.0229257
0.0207845
2.74496
0.0729811
0.61131
0.0212068
0.0212789
0.67572
0.0213864
1.06372
0.353361
1.65158
0.17089
0.387182
0.0262394
0.0212312
0.0422304
0.0262915
0.0221415
0.0953296
0.0283933
0.0215903
0.0223937
1.88476
0.0210129
3.64034
0.152146
0.840781
0.114504
0.0219423
0.0211593
0.0213946
0.328487
0.425437
0.0204932
0.0302802
0.0211813
0.0447035
0.020377
0.0211284
0.0215454
0.0248535
0.185396
0.0308195
0.0259047
0.0214625
0.0314303
1.37046
0.0216811
11.0806
1.74642
0.0457085
0.0206461
0.028481
0.0212118
0.0250532
0.0213639
5.17366
0.0649474
0.41282
0.0221659
0.179507
0.0212583
0.0226074
0.0213423
0.573985
0.959904
0.0205435
0.0247124
0.0397494
3.46872
0.0303818
1.40079
0.0241715
3.63169
0.0497171
2.65046
0.0493898
0.0454193
0.147154
3.05165
0.376543
7.23117
0.0231536
0.108005
0.0203546
0.0219996
0.0227947
0.0213964
3.11141
0.0239932
0.0232167
0.351974
0.0968884
0.652638
0.0213574
0.0220505
0.0229647
0.0213228
0.0255382
1.30467
0.590616
1.11911
0.0209793
0.0230215
0.0232277
0.576287
2.71453
0.0416568
0.0211358
0.0215605
1.47573
0.0301699
2.10222
2.45949
0.0711214
0.0206124
0.184525
0.0252426
0.028713
0.0235113
2.93002
0.321849
0.0733175
0.114423
0.0216068
0.0252402
0.0212951
2.23328
0.0347489
3.17444
0.138207
0.0227442
0.0793385
0.0217422
2.88839
0.142137
0.0230572
0.372473
3.023
0.565535
0.303364
0.021553
0.0212416
6.01943
1.6076
1.45264
0.0225895
0.0214628
0.0212754
3.71412
0.076534
0.021488
0.171595
0.0555967
3.66002
0.173889
0.603996
0.0213908
0.758752
0.0223495
0.0211668
0.078157
3.51934
0.0214859
0.0209388
3.41161
2.81154
0.0235869
0.0209651
1.86851
0.022927
0.0367831
0.0209789
0.555796
0.0212334
0.0319651
1.19781
2.71209
0.0216972
2.57402
0.424922
2.23102
0.199468
3.50827
0.0473774
0.0211496
1.62345
0.0302442
0.0213713
0.0212948
0.499178
0.0211071
0.159266
0.0209519
0.0237159
5.19071
0.0422768
1.81629
0.0217829
0.0266014
0.0207916
0.024663
0.167355
1.72027
0.0209105
0.0392217
0.332966
0.0213268
0.0208169
2.94951
0.0253024
0.026284
0.0718748
2.07948
0.968105
0.16737
0.302666
0.0589715
0.283105
0.410105
1.72014
0.0393438
0.0211757
0.0688207
0.0211376
0.021116
1.85142
2.99737
0.0219303
2.11163
0.107689
3.91299
0.21664
0.0839593
0.0211606
0.147027
0.0850989
0.0226029
0.0217283
2.95839
2.80163
1.39588
2.73403
0.0282412
3.32522
3.01006
0.0244736
0.0216437
0.0210437
0.165793
0.0210188
0.140578
0.0222476
0.0215748
0.022006
1.47264
2.99712
1.48319
0.0214719
0.194915
0.022607
0.0243525
0.0210104
0.0230937
1.27445
0.0232485
3.28725
1.39534
0.127788
0.0627359
0.0214602
0.0288664
0.021343
0.0747142
0.0225389
0.0217574
0.0214325
0.0225511
0.0837208
0.0216012
0.0259205
0.0227786
0.0262249
0.127642
6.1674
0.0210565
0.0303079
0.0228542
0.049015
0.0256008
2.41174
0.122344
0.0243482
0.022094
0.0221089
0.335201
0.0211694
0.0779688
0.0214191
0.0212336
0.0225468
2.84648
0.023065
0.0228688
0.0271911
0.0247155
0.0368946
2.77247
0.45636
0.0257292
0.0213053
0.053471
0.0212339
0.0212102
0.111125
3.24308
0.0235899
0.0247731
0.0736479
0.212881
0.0215138
0.0215671
3.26716
0.0217122
0.102564
0.148528
2.82194
0.0212366
0.0263584
0.0212175
3.25642
0.0687659
0.0284213
0.0647072
1.52657
0.0217019
2.60361
2.25115
0.0213351
1.7637
0.0458549
0.0221377
1.27104
0.0214029
0.021212
0.0207052
0.0957086
0.205692
0.0847541
0.0217617
0.0216993
0.0239199
0.339038
0.161866
2.9422
0.331014
0.0215864
0.0694578
0.0806377
1.5581
0.0476695
0.096885
0.0210294
0.0270525
0.0208054
0.756412
0.0275091
0.0212134
1.87443
0.117054
0.0248996
0.0265244
0.0203256
0.0246706
0.0354497
0.025696
0.68686
0.0395587
0.0420154
0.040385
0.0697314
2.73201
0.0492352
2.99451
0.0210684
0.020959
0.12349
1.63947
1.80067
0.140009
0.0248318
6.36622
0.330469
0.0213014
0.0228503
0.0208633
0.0275954
0.0406153
0.0311371
1.80912
0.154632
0.0217471
2.48268
6.62906
0.0213921
0.0598782
2.17293
1.57351
0.0221085
0.0424585
0.020061
0.0229075
0.0224772
0.0226208
3.13716
2.80013
1.45472
9.40008
0.0217721
0.0260601
0.0363117
0.0236266
0.0218431
0.0207775
2.58687
0.0209896
2.74055
0.0273332
0.0360738
0.0904048
0.12953
4.90488
0.201563
0.0273011
0.0205737
0.0248098
0.173646
0.161305
0.0224003
0.0208354
0.020832
0.0396038
0.0242608
0.0776073
2.71338
0.0217767
0.0207338
0.0644126
0.0454535
6.96229
0.92479
0.0209755
0.0424477
0.0213095
3.35752
0.0208961
3.30508
0.0229058
0.0217559
0.0259943
0.0217291
0.044945
0.0239702
0.0298578
1.27155
2.79744
0.0225382
0.0240484
0.0211588
0.187335
1.35459
0.0226604
0.0208827
0.33559
0.0199742
3.83155
0.0231582
0.0269772
0.0441318
1.03941
0.0283592
0.0219737
0.0214893
0.0402268
2.93152
0.0211477
0.766811
2.10661
0.917668
0.232638
0.0259037
3.72491
0.0226078
0.166363
0.0212621
0.335937
0.333664
2.04875
1.62783
3.10687
0.0240081
0.0919604
0.0209377
8.9763
0.345741
2.9428
1.26421
0.0231914
2.61862
0.785385
0.0264798
0.0217809
0.0214574
3.36301
0.0227144
0.039905
0.0300166
0.0213463
0.0207473
0.021341
2.66113
0.129196
0.0246181
1.49005
0.389657
0.0233756
0.0212758
0.0208448
0.0257372
3.29878
0.135239
0.0227265
0.0261361
0.879504
0.0487079
0.0288811
3.36852
0.0243187
3.06309
0.0239802
0.0247406
0.0212634
0.0302174
0.0413394
0.403158
0.336269
3.20912
0.0436881
4.46776
0.0242822
0.0222839
0.0255081
1.38352
1.71533
0.583118
0.128757
0.0220255
0.0213053
0.021104
0.021415
0.0207988
2.22713
0.0238916
2.28549
0.0252299
2.45293
1.89424
3.19703
0.0314703
0.0227389
1.40627
0.0285068
1.6546
3.38974
0.0206996
0.215764
0.0231415
1.86949
2.25263
0.0263406
0.215296
0.425753
0.024871
0.0373722
0.0233807
2.24635
0.329125
0.0221548
0.0214795
0.338322
0.32741
0.075257
0.743695
0.0694433
0.0260092
0.0215382
2.06569
3.24391
0.0505237
0.0241854
2.69187
1.85624
0.0209514
0.0213635
0.0222256
2.91352
2.79705
0.0213216
4.30693
0.0215962
0.0210588
0.0213402
9.93549
0.21311
0.0678827
1.8803
0.0218377
0.0217418
0.0209987
3.47691
0.0221101
4.14814
0.0224618
1.19624
0.0215514
0.0211353
0.0728621
2.31293
0.333516
0.0265998
2.20487
0.0213507
0.0213663
0.0213676
0.0293307
0.0385035
0.0383284
0.0278156
2.47685
0.0222777
0.0756531
0.243719
2.60056
0.0214175
3.37825
3.12301
0.0225025
0.539457
0.037937
1.53625
0.0214016
0.0449701
0.0212977
1.64381
8.13147
0.0574894
3.00491
0.0220911
0.0301117
0.0216657
3.98219
0.0207095
0.0208494
0.559864
0.0576457
1.59207
0.169021
0.0370108
0.0236248
0.0206862
1.26776
0.0256556
0.0226168
0.0776784
0.0224934
0.028317
0.0212951
0.971939
0.0226723
0.274434
0.318346
0.0261222
0.222679
0.0364494
3.34986
0.0211961
1.26617
1.82159
0.0207895
0.021307
0.0217925
0.0215563
0.027553
0.0212823
0.485981
0.0434708
0.194374
0.0555801
0.0212879
0.0215053
0.0207759
0.236218
0.0213745
0.0211843
0.14867
0.022164
1.25508
2.93163
0.0485568
0.0226038
0.0255295
0.0217222
0.0215878
0.0333288
0.021016
0.0221983
1.44763
3.35174
0.169712
0.0217026
1.56179
0.899466
0.0215713
0.117344
2.63035
0.0213367
0.0220424
0.0213137
0.261997
1.6677
0.519201
0.0209961
0.0221641
0.0226442
0.0214704
0.0746112
0.0213118
0.131731
1.81478
2.90922
0.0206937
0.0221491
0.0220601
2.20763
0.0203344
1.57364
1.32252
0.350571
0.763907
5.3047
2.23601
0.0221931
0.506532
0.504354
0.0217143
0.0206555
0.020917
2.96927
1.57085
1.74123
0.0247898
3.11315
0.0213866
0.0953102
0.0211906
0.0219044
0.0216823
0.0206797
1.77201
0.0217472
1.81574
1.87799
1.56942
0.0309532
0.0315393
1.67056
2.90308
0.0223407
2.40551
0.0207619
0.0200281
0.0212738
0.02928
0.0215493
1.28332
0.0254278
0.158972
0.0283028
1.33951
1.38571
0.0656529
0.020649
0.0370329
0.0484621
1.78689
0.0214631
0.0207278
0.0227701
1.98232
0.0214174
0.240334
1.29089
0.0277053
0.0380574
0.0214422
0.400784
0.0215016
3.32801
0.0203514
1.72283
0.0242775
0.0213954
1.2858
1.54633
0.0204161
0.0377568
0.0223486
1.72012
0.0551777
0.186417
0.173501
0.0214843
0.0372245
2.63189
0.0222876
0.0288937
0.0225661
0.0437
0.0246883
1.29808
3.03105
0.0213927
3.41343
0.0216782
0.0288889
2.67401
1.32219
0.0272756
3.02069
0.133867
0.0214889
0.238387
0.0680006
0.0242061
0.0217238
2.46786
0.0204609
1.67319
0.104335
0.0694966
0.0213499
0.0254816
3.2148
0.0291143
2.44328
0.0215905
0.0220999
0.0779015
2.50375
0.0227941
2.98284
0.794969
1.30317
0.02134
2.4592
1.54577
1.86781
0.0213782
0.0243388
0.0212157
3.04781
0.0275409
0.400934
0.391767
0.0214795
0.0211417
0.0213517
1.91439
0.168722
1.72035
1.43464
0.0209896
2.76421
2.73423
0.0713854
1.48473
3.08068
0.0270373
1.67991
0.0219935
0.022689
0.251996
1.92501
0.0243547
2.08744
0.0214136
0.0213431
3.62093
3.07421
2.33253
9.64273
0.0247354
0.021492
0.0232654
2.56699
1.52777
0.0211619
0.0292187
0.528043
0.021378
0.0213518
2.43008
2.28539
0.0218442
0.0214126
0.0216901
0.0217148
0.660687
0.0215465
0.0213658
0.022777
0.130639
3.02499
0.377605
2.52981
0.0213929
0.0224638
2.88069
2.81618
0.0238505
0.195874
0.0213311
0.0259435
0.0219756
0.0248999
0.0424406
0.0212615
0.719427
0.0256327
0.0210412
0.0223472
1.70452
1.74772
3.61943
0.0213827
0.0254031
2.84942
0.561822
0.0221908
0.021399
0.0214535
0.284714
0.0213541
0.023111
0.0234234
0.0212966
2.92578
0.155772
0.0214647
0.022227
0.0208429
0.0213118
1.57578
0.553402
0.0411232
1.44357
0.0435182
0.021517
0.0213137
0.0213855
0.0211923
0.0214714
0.0246532
0.0489245
2.67511
0.0222164
0.0639123
3.45866
0.111084
0.0211599
0.020865
0.0220359
2.91379
0.0211641
0.571713
0.165601
0.0346309
0.0231704
6.4046
0.0211254
0.159541
0.0207316
0.0211932
0.0214435
0.0211708
0.0306969
1.45555
0.158475
0.0272642
1.79849
0.308882
0.88079
0.0244966
3.08039
1.45028
0.0640938
2.28431
2.46461
0.0628978
0.406628
0.0215429
0.0216303
1.68727
0.0210277
0.0222553
3.51037
0.0626836
2.13872
0.123015
0.0208913
0.0257597
0.0213412
0.101397
0.0211632
0.126387
1.65253
2.58072
0.991998
0.0213267
0.0205473
0.0417833
2.11277
2.97266
0.0742082
0.18735
0.0209174
0.19139
3.58617
0.22166
0.0221772
0.0213383
0.0212313
0.0220039
0.0212673
0.0212127
0.0221824
2.92607
0.0445298
3.2472
0.346652
0.608507
0.0886066
0.021259
0.0224485
0.0225791
0.0209854
0.0215314
0.553332
2.19489
0.734903
3.12929
0.0220344
1.44404
0.0860954
2.97411
3.35468
0.0212957
0.0211051
0.34371
0.0213136
0.0204425
0.560441
2.94909
0.168864
0.0213157
0.0213662
0.0238724
0.0273066
1.78757
0.0207832
0.0224932
0.166677
0.021568
0.434051
0.0271066
3.23969
0.0214951
0.152067
2.07662
0.0267751
2.52158
0.0637009
3.32694
0.0210023
0.0225856
0.0209211
0.0241782
9.10786
0.0253651
1.40208
0.0223797
0.0220189
0.0214259
3.17372
0.0287238
0.0641503
0.504316
0.0208989
0.0311226
1.27204
0.036762
0.0217387
0.0223624
0.0213036
0.0343573
0.0213364
0.0211461
3.33284
2.84026
3.09379
0.28473
0.160579
1.36699
0.0401993
3.17909
0.0768924
0.0208446
0.0236552
0.0199863
0.021353
2.6141
2.69032
0.0213806
1.58826
3.37618
0.0237653
0.0221546
0.0242813
2.41377
2.39508
2.9734
1.47673
2.99745
0.0200202
0.153006
0.0603803
0.278643
0.291167
0.0213066
0.0691774
1.28264
0.0255344
2.0005
0.0214198
0.158276
1.31643
3.21755
0.0422848
0.0246796
5.29282
0.0687701
3.28148
3.21002
2.90271
0.0632182
2.28009
0.0213684
0.0236413
0.0297624
4.29123
0.335637
3.44314
0.0239863
0.0728624
0.0471684
0.0258939
2.49839
0.0213327
0.0715326
3.85058
0.0213489
3.23689
2.51198
3.28027
2.41445
0.359814
0.487631
0.0211166
2.65741
0.0223152
0.021674
0.0278621
0.0221323
3.20476
0.0222001
0.0252496
0.022214
0.0211357
2.16908
0.0218158
0.0648365
0.203957
0.0206896
3.79857
0.0600021
0.0222909
1.34208
0.14998
0.02135
0.73196
0.0215665
3.34301
0.403228
0.0214667
0.0622561
0.0218412
2.74785
3.04986
0.0422582
1.26027
0.0234796
0.0214565
3.52562
0.0222177
0.0212243
0.172795
0.0272147
0.02092
0.0210161
0.0811352
0.0217702
3.7916
0.152917
0.052368
1.498
0.0318932
0.0397467
0.0211506
2.7914
6.56225
1.70381
0.0213808
0.0211019
0.0430538
0.0245346
0.411847
0.0212424
0.534443
0.021285
0.150618
0.0227923
0.0589877
0.113276
0.0628138
3.57168
1.44107
2.63187
3.02337
0.0200377
0.183861
0.185524
4.60752
0.0221326
0.128553
6.41265
1.79017
0.0629254
0.154459
0.710166
2.88664
0.028749
0.146802
0.0206686
0.0299337
0.0278276
0.021303
0.0401358
1.54942
0.274855
1.66422
0.199022
0.0211581
0.0209072
0.0264972
0.021306
1.00717
0.0208062
0.0209124
3.07797
0.125534
0.0266987
0.0600302
0.0259484
0.0549811
1.54499
3.14767
1.43069
0.0226555
3.10228
0.0222016
0.0208517
0.0219895
3.14273
0.13551
0.152821
0.127236
0.0216676
0.020984
0.0213025
0.0215527
0.0229561
1.68296
0.189194
0.023739
2.52327
3.82952
0.500571
8.41664
0.0213587
0.0240071
0.0940487
0.0213674
0.0275228
0.0230695
0.0221776
3.46347
3.17524
0.0208212
0.0269261
0.0240499
0.0442617
2.02233
2.99808
2.95296
0.0214483
0.0455991
3.07711
0.0454986
0.0623876
0.375798
2.42656
2.49997
3.25816
0.0207411
2.20363
0.021246
0.0220507
0.0212827
0.0379857
2.68084
6.80688
0.525714
2.02443
0.0359301
0.0203729
0.0208506
0.0213589
0.0242146
0.0286687
3.04085
3.37162
0.0433809
0.657092
0.0213562
0.0359684
0.0207357
3.27462
0.0516811
0.0213962
0.0921168
0.0595357
2.09596
3.58307
0.0820183
2.36488
0.0224462
1.78119
0.136867
0.258334
0.348588
0.0221171
0.035968
0.021357
2.54817
1.75492
0.0278683
2.84623
0.141076
2.19113
0.0418988
0.111084
0.0309673
0.0209315
0.0644921
0.0395589
0.0222425
0.0360275
0.0244557
0.0251675
1.30901
0.0837146
0.0219158
0.0244149
0.0262276
0.0253157
0.0223531
2.85923
0.0662856
0.314987
5.70854
0.021316
3.24002
0.0214398
0.022584
0.0220093
3.17819
0.0278468
3.37084
7.88767
0.0381349
0.0354526
0.0646832
1.7432
0.0719974
1.23864
0.0269435
0.0288333
0.0215958
3.34178
0.443845
0.0275312
0.0257475
0.0275443
0.0227753
0.0223112
0.0302913
0.0269573
0.0214024
0.0263126
8.24311
1.84972
0.0934181
0.0277761
0.0203878
1.78759
0.0247255
0.0372696
0.892699
0.0280136
2.24119
0.0204874
0.0241898
0.0225942
0.0260268
0.021167
3.41909
0.143705
1.63721
0.0278756
2.56078
0.127675
0.0226993
1.74225
0.0380812
0.123875
2.73564
0.0335175
0.022192
0.027263
0.042022
0.0231832
0.16782
3.80255
0.330659
0.0209382
0.131413
0.273399
1.85026
0.0212484
0.0289347
0.0213415
0.0245411
2.19047
0.0240182
0.0238344
0.0209281
0.0208867
1.22376
3.0812
0.0212339
1.85844
0.12101
0.0204019
0.0268077
3.37459
0.070055
0.0594576
0.0213276
0.0231773
0.0708837
0.0262597
0.0210569
3.75397
0.0238958
3.38095
0.0464287
0.0228457
2.42042
0.0755663
0.0933568
0.0209638
0.421848
0.0239623
0.0229913
1.5381
0.0274119
0.0213255
0.0540431
0.0223352
0.0238215
0.0207137
1.60054
0.021288
0.0472043
1.43851
0.0605327
0.0211615
0.150059
0.024235
2.99004
0.123588
3.46517
0.0682036
3.19234
0.0207595
0.0444491
0.0226362
0.0211291
0.411253
1.95338
0.0225052
0.514413
0.0261908
0.042696
3.50126
0.0227961
0.385506
0.97792
3.45408
1.81868
0.163973
0.0287695
0.0208758
0.0488486
0.0270347
0.725045
2.13839
3.249
2.93722
3.17571
0.0208577
1.38252
0.021383
0.0217302
0.0213795
0.437789
0.104739
0.0566166
0.0210399
12.9642
0.0232415
3.64708
0.021755
0.0412687
0.0240634
0.0395809
0.0289536
0.0594776
0.0218258
0.123023
0.091723
0.0209824
1.58483
0.131332
0.0383972
0.0223768
0.0241581
0.021527
0.0210702
0.037148
0.0323697
1.48072
0.113882
0.0478191
0.800668
0.0225591
1.53779
0.0374271
2.66078
0.0246501
0.0249124
0.421441
0.0251886
0.106486
0.073564
4.44868
0.0220731
0.0213614
2.66947
0.0245346
0.0220736
0.0245754
0.0244414
0.0212839
0.0230988
3.32007
0.0229015
0.0288381
2.89233
0.0633322
0.0423834
0.840355
1.64237
3.33416
2.01132
1.39489
0.0360933
1.28257
0.0217649
0.0224646
0.0213573
0.0210086
1.26443
0.421903
0.0254568
0.0208541
0.60246
0.0600335
0.0222691
0.0339418
0.033413
0.0211755
0.0218678
1.64577
0.0229559
0.0262151
0.0273923
0.0222729
0.0591483
0.037892
0.0242385
0.328691
0.0508938
1.08195
0.196321
2.9669
0.0228319
7.76796
0.0981279
0.0776746
0.0428573
1.84972
0.0427507
0.0230684
0.0305221
0.0397912
0.0220588
0.0472143
0.0210755
0.021244
0.0212509
0.0223366
3.36369
0.0210762
0.0593878
0.0226834
0.0221156
0.0223057
0.160174
0.0220153
0.0402929
0.0213612
0.0223447
0.0225318
0.0213015
0.124438
0.0220716
0.0213891
0.0217062
0.0242244
0.0218931
2.19365
0.0232359
1.64519
0.539404
2.21969
0.0362846
0.0490735
0.0837297
0.0272502
0.0277037
0.0225419
1.87242
2.22951
1.16133
0.0427817
0.0244475
0.0231105
2.2448
0.0291541
2.02439
0.0222245
0.881918
0.0759503
1.53882
1.18341
0.0207142
0.021394
0.0209191
0.0236599
2.27342
0.0342353
0.86468
0.0228858
0.0236671
0.0210172
0.0215397
0.0264306
0.0220845
0.0222096
0.0220899
0.143904
0.170279
0.249422
0.0257491
0.178376
0.0213227
0.0212806
0.0592827
0.0215323
0.0222405
0.0382111
0.0222528
0.0451029
0.021399
0.0269177
0.0214218
0.0223796
3.34708
0.0214159
0.0220594
0.0217426
0.0221761
0.687683
0.0215216
0.0307139
1.63223
0.0224194
0.0241371
0.0217187
0.0297787
0.0214808
0.0839527
0.0213036
0.0236319
2.09756
0.0209713
0.0240789
0.0309001
0.0429413
1.5015
0.0206518
0.0221155
0.0250598
0.0240459
0.0661915
0.94099
4.36835
0.0205701
0.0247898
0.054784
0.0286028
0.198954
0.0205579
0.0214308
1.32824
0.0273443
0.0220915
0.020751
0.100401
0.0824095
1.41773
0.0214385
1.09046
0.0206807
0.0206545
0.0220411
0.0435391
2.7506
0.021384
0.0209634
0.373151
0.0213169
0.0219724
0.158714
2.08733
0.0212928
0.0207979
0.0252086
0.02504
0.140642
2.0877
0.0215043
0.059111
0.022789
0.0212884
2.11583
0.0227273
0.0214476
0.0240869
0.143339
0.0712728
0.0219983
0.0216677
0.602317
0.0275792
0.0216884
0.229678
3.97929
0.0213483
0.021455
0.0219703
0.0213551
0.0213317
0.0212855
0.0210115
0.0276776
0.0219488
0.0331025
0.0299175
2.69532
0.674039
0.024787
0.020622
0.0212351
0.0216721
0.0219493
0.0274856
0.0239188
0.183855
0.0220889
0.0648746
0.0223867
3.42646
1.28227
0.0236069
0.0255841
0.0763184
0.0221409
0.024955
0.0213655
0.0216892
0.0211284
0.0714854
0.0327557
0.0359698
0.0590606
0.0219414
0.0241397
0.0216786
2.15263
1.49803
0.404965
0.0233959
0.0704966
0.0641763
2.75372
0.0215634
0.170021
0.0387003
0.0213644
0.0215556
1.54155
0.021344
0.0216737
0.0219913
1.27676
0.0213665
0.0214917
0.0234558
1.98611
0.0210311
0.033273
1.17047
0.0220658
0.0214056
0.021115
0.0213812
0.0215262
0.0214611
0.0575943
0.0242387
0.0213758
0.0214572
0.0214526
0.0237811
0.0213106
0.28526
0.021453
0.0214657
0.0274315
0.064245
0.029748
1.44409
1.16451
2.2312
0.0261805
0.0211977
0.0301073
1.92701
0.0209253
0.373521
0.0288063
1.16407
0.0219759
0.0280362
0.0215315
0.0213672
0.0632978
0.119034
1.76438
0.219923
2.77485
0.021501
0.0213658
2.79472
0.0208493
0.0213857
1.96041
0.0210386
2.64006
0.0213938
0.0969338
0.0589882
0.0221166
0.650968
0.0277266
0.0450178
0.865073
1.21425
1.3742
1.71545
0.535623
2.35403
0.0213835
1.54508
0.021324
0.0212911
0.0212612
0.0214854
1.14635
0.0216877
6.79346
0.021331
0.0213725
0.0214737
0.229326
0.0222852
0.0224694
0.0391381
0.0233582
0.0234945
0.0225517
0.0236568
0.146525
0.26499
0.615671
0.932645
0.0576053
0.0216965
0.174118
0.0214309
0.0256431
0.0517512
2.49259
0.0330502
2.29645
0.0213398
0.721112
3.30437
0.0792625
3.29414
0.272032
0.0220819
0.0212928
0.0222851
0.0213101
0.0212921
3.53846
2.67142
0.021062
0.847334
0.0213984
0.058912
0.0210059
0.120231
0.0253665
0.0220203
0.0226299
0.535189
1.33519
0.330332
0.0207102
0.0207448
0.0230184
0.0223979
0.0216851
1.13117
0.297656
0.0292618
0.516712
0.032276
0.0215359
0.0264936
0.0581732
0.0215165
2.7023
0.0348475
0.375377
0.0219732
0.0222519
0.0210428
0.0203075
0.0213475
0.0231561
0.0208313
1.39847
0.0296607
0.125969
0.0212127
0.0323931
0.0212883
0.314123
0.0305859
0.0348288
2.31519
0.0229524
0.0212948
0.0225383
0.0215276
1.44296
0.0724005
0.0316446
0.0348541
2.35122
1.40723
0.0656946
0.0323548
0.0213534
0.0219082
0.0219697
0.0437245
0.484359
0.0229893
0.0213578
0.520201
0.14942
0.0214622
0.0220113
0.0348105
0.0216272
0.0210002
0.031176
0.0212534
0.021547
0.0209706
0.0220636
0.0215753
0.0347065
1.32418
0.0214419
0.162808
0.0580106
0.0588912
0.0209643
0.02209
0.0714801
0.0227876
0.0214145
0.0684941
0.0212773
0.036448
0.0213797
0.0317063
1.71325
0.0348661
0.0217205
0.0384445
1.61262
1.06063
0.02141
0.0256619
4.2028
0.0212348
0.0217708
0.0432596
11.9527
3.26864
0.0221305
0.0212437
0.0357998
0.0211702
0.0217177
0.0244734
0.0214533
2.37942
0.0215175
0.974169
0.0212981
0.0214472
0.0381064
0.021362
0.0214217
0.0243892
0.769134
0.0206449
0.0318291
0.0215499
0.0211963
0.022126
0.023533
0.0228399
0.0447788
0.0219157
0.0214679
0.0215248
0.0265013
0.0217095
3.29276
0.0215623
0.0589816
0.0250401
0.0252679
0.0233246