/*--------------------------------*- C++ -*----------------------------------*\
| =========                 |                                                 |
| \\      /  F ield         | OpenFOAM: The Open Source CFD Toolbox           |
|  \\    /   O peration     | Version:  v2012                                 |
|   \\  /    A nd           | Website:  www.openfoam.com                      |
|    \\/     M anipulation  |                                                 |
\*---------------------------------------------------------------------------*/
FoamFile
{
    version     2.0;
    format      ascii;
    class       volScalarField;
    location    "450";
    object      nut;
}
// * * * * * * * * * * * * * * * * * * * * * * * * * * * * * * * * * * * * * //

dimensions      [0 2 -1 0 0 0 0];


internalField   nonuniform List<scalar> 
13917
(
0.00216101
0.004748
0.00135461
0.00680892
0.00568811
0.00477731
0.00654729
0.00259982
0.00663833
0.000277471
0.00284335
0.00681331
0.00254698
0.0204122
0.0060692
0.00141482
0.00704581
0.00303258
0.00207245
0.000949319
0.00568383
0.00683501
0.00421002
0.0068342
0.00675573
0.00543047
0.0109179
0.000133507
0.00432978
0.00694255
0.000191443
0.0033103
0.00681028
0.00684824
0.00684299
0.00102501
0.00665521
0.00682802
0.00654224
0.00540386
0.00687412
0.00666441
0.00672788
0.00240349
0.00230028
0.000377976
0.00586294
0.00233358
0.0215115
0.00683956
0.00681118
0.00164373
0.000347285
0.00682758
0.00682734
0.00165455
1.44522e-05
0.0051097
0.00668784
3.29333e-05
0.00592131
0.00569553
0.00682947
0.00676893
0.00539752
0.00556712
0.00396335
0.00103028
0.00283119
0.0020438
0.00195266
0.00616684
0.00678181
0.00676809
0.00560425
0.00670962
0.00639646
0.00678427
0.00672934
0.00680753
0.00679501
0.00703242
0.00677764
0.00132875
0.00673378
0.000336921
0.0036568
0.00678149
0.00543411
0.00700712
0.00680702
0.00667218
0.0224314
0.00689569
0.00680772
0.00398423
0.00932448
0.00696672
0.00677118
0.00210851
0.00676165
0.00676901
0.00679426
0.00681616
0.00639538
0.000952994
0.00534294
0.00576163
0.00654917
0.0133344
0.00673922
0.00714592
0.00434463
0.00275105
0.00517928
0.00667162
0.00216247
0.00686614
0.00170182
0.00675992
0.00694552
0.00687234
0.00361862
0.0023054
0.00243795
0.00243952
0.00677976
0.00541769
0.0068822
0.00189893
0.00581544
0.000853229
0.00718817
0.00667548
0.00312831
0.0147798
0.00727516
0.00263371
0.00517311
0.00473357
0.026352
0.00683394
0.000663159
0.0068171
0.00677304
0.00595773
0.00198891
0.0259086
0.0018402
0.00682894
0.00568359
0.00677526
0.00676847
0.00676002
0.0119473
0.00671956
0.00680797
0.00755119
0.00693602
0.00689936
0.00675273
0.00748316
0.00640997
0.0256475
0.00522216
0.000205186
0.000107954
0.00426437
0.00681109
0.00494174
0.00682418
0.00722021
0.00659572
0.00634727
0.00273947
0.00681264
0.0068081
0.00155333
0.00592916
0.0063387
0.00673466
0.00683448
0.00681307
0.00140358
0.00165106
0.000528563
0.00681127
0.00140445
0.00694361
0.00121195
0.00291785
0.00256127
0.00159664
0.00232085
0.00689038
0.00256822
0.00656793
0.00667386
0.00684443
0.00676543
0.00607849
0.00210496
0.00187271
0.00667931
0.0088653
0.00530871
0.00565023
0.00682767
0.00156689
0.00679684
0.00684349
0.00449194
0.00434606
0.00201193
0.00292257
0.00525181
0.00764319
0.00689956
0.00697049
0.00697219
0.00424303
0.00110368
0.00054762
0.00672843
0.00684251
0.0165852
0.00191324
0.00693487
0.00692133
0.0068889
0.00698516
0.00698721
0.00547564
0.00183177
0.00682419
0.00687075
0.00283267
0.00538392
0.00700978
0.00672862
0.0103024
0.00081594
0.00132371
0.00770691
0.00213671
0.00681584
0.00346943
0.00249734
0.00462358
0.0028564
0.00670834
0.0017348
0.00676418
0.00531456
0.00326111
0.00681284
0.00686179
0.00677033
0.00589226
0.00680282
0.00472195
0.021703
0.00687301
0.0068971
0.00670865
0.00690012
0.00676415
0.00685382
0.00580114
0.00682873
0.00404312
0.00594656
0.00679244
0.0062699
0.000947438
0.00701656
0.00225115
0.00593737
0.00701171
0.00336059
0.0068148
0.00740941
0.00680345
0.00627007
0.00680742
0.00682509
0.00163427
0.00692359
0.00157319
0.00635544
0.0209883
0.0058962
0.00485395
0.00242278
0.00690621
0.00363719
0.0058254
0.00664171
0.00574781
0.00673447
0.00687853
0.00687538
0.0016567
0.0036996
0.00539403
0.00674696
0.0067291
0.0072691
0.0011789
0.00688895
0.00609301
0.00663746
0.0109969
0.00246867
0.0066581
0.00699321
0.00566516
0.00184785
0.00630565
0.00113298
0.0151767
0.0013347
0.00685126
0.00609305
0.00942329
0.00677898
0.0044854
0.00242956
0.0070486
0.00715879
0.00674028
0.00518798
0.00696491
0.000238447
0.00675033
0.00558923
0.00526216
0.00573907
0.00698471
0.00299619
0.000808763
0.0068155
0.00678442
0.00763658
0.000827421
0.00729131
0.0199808
0.00700238
0.00682872
0.000964966
0.00171147
0.00699793
0.00575513
0.00681936
0.00398808
0.00551413
0.00180225
0.0023555
0.00221547
0.00543087
0.00555407
0.00688565
0.006814
0.00556698
0.00145664
0.00704742
0.00171061
0.00500821
0.0170335
0.00682775
0.00198752
0.00607906
0.0224015
0.00663435
0.0010164
0.00109388
0.00500024
0.00679686
0.000179631
0.00687247
0.00495856
0.00141271
0.0066378
0.0215655
0.0067595
0.00357742
0.00691305
0.00122965
0.0028307
0.00670903
0.0167404
0.00265527
0.00674164
0.0077162
0.00157477
0.00674776
0.00164341
0.00683282
0.00253731
0.00142446
0.00674352
0.00659236
0.00675062
0.0068128
0.00674489
0.00688065
0.00872534
0.000314013
0.00682289
0.00687533
0.00684847
0.0045568
0.0015094
0.00702539
0.00681236
0.00249888
0.00198353
0.00683124
0.00672225
0.0080061
0.0179862
0.00543532
0.00203138
0.000324392
0.00690033
0.00702742
0.00594943
0.006742
0.00702019
0.00681654
0.00702231
0.00692523
0.00297889
0.00683146
0.00520445
0.0048212
0.00455908
0.00685294
0.00676662
0.00770977
0.00606034
0.00172622
0.00699453
0.00673961
0.0068498
0.00699425
0.00666411
0.00673067
0.00801874
0.0058289
0.000976606
0.00673997
0.00587053
0.00573013
0.00680035
0.00215844
0.00742851
0.00681765
0.0190323
0.00685679
0.00677521
0.00684821
0.00675514
0.00683037
0.0068268
0.00744273
0.00545981
0.0068244
0.00558967
0.00252873
0.00680444
0.00356772
0.00397838
0.00720224
0.00654104
0.000735734
0.00790158
0.00377742
0.0067252
0.0056635
0.00558177
0.00671788
0.00394335
0.00682577
0.0068278
0.00680635
0.00661572
0.00580617
0.00183652
0.00396623
0.00609499
0.00610353
0.00320989
0.00426824
0.00682253
0.0206823
0.00587729
0.00635704
0.00542173
0.00673442
0.00413958
0.0015659
0.0067403
0.00807185
0.00678308
0.0069962
0.00393522
0.00698909
0.00686647
0.00163065
0.00762762
0.0181864
0.00674969
0.00680128
0.0062072
0.00323041
0.00587404
0.00682616
0.00682604
0.00674497
0.00382554
0.0287779
0.00688541
0.00701854
0.00677121
0.00680257
0.00594583
0.00638746
0.00688034
0.00387239
0.00673945
0.00684528
0.00676067
0.00677904
0.00676189
0.00674275
0.00679796
0.00545423
0.00298357
0.00364733
0.00334291
0.0022872
0.00677324
0.00354923
0.00627026
0.00262249
0.00601918
0.00689451
0.0068514
0.00574884
0.00676347
0.00525497
0.00701649
0.0260361
0.00657145
0.00510198
0.00202548
0.00672834
0.000819141
0.0068285
0.00440327
0.00689429
0.0064712
0.00500966
0.00701472
0.00156397
0.00678325
0.0068329
0.00685209
0.00168894
0.00584747
0.00684208
0.0023488
0.00431061
0.0276688
0.000489436
0.00700065
0.00682428
0.00676105
0.00203358
0.00680214
0.00650625
0.027996
0.00632015
0.00597105
0.00676071
0.00591003
0.0067479
0.0070088
0.00689488
0.00681205
0.00028665
0.0067547
0.00393507
0.00682524
0.00683565
0.0069366
0.00151537
0.00546054
0.000667427
0.00283522
0.00640493
8.63428e-05
0.0058265
0.00691573
0.00597923
0.00680439
0.00313119
0.00676515
0.000302321
0.00679819
0.00587561
0.00677519
0.0277361
0.00579956
0.00636335
0.00684479
0.00589865
0.0068534
0.00675119
0.00607177
0.000368611
0.00681065
0.00170255
0.00672897
0.00651766
0.00676046
0.0069166
0.00675415
0.00583543
0.00702146
0.00683308
0.00159789
0.00676909
0.00177972
0.00703021
0.00674567
0.00667872
0.00368496
0.00682727
0.000315245
0.00162375
0.0011718
0.00137548
0.00682236
0.00591473
0.00598475
0.00151656
0.00608435
0.00665432
0.00582454
0.00693157
0.00687509
0.00556423
0.00270427
0.00662447
0.00419981
0.00576125
0.00500189
0.006485
0.00345039
0.00576603
0.00153467
0.0041389
0.0068741
0.00502461
0.00541811
0.00674541
0.00684089
0.00692358
0.00602662
0.00685813
0.00211627
0.00544991
0.0067797
0.00269945
0.006839
0.00711245
0.00682021
0.00688988
0.00789652
0.0033917
0.018475
0.00679299
0.0066855
0.00689579
0.00680678
0.00643699
0.00683614
0.00206026
0.00617703
0.0270684
0.0194726
0.00499165
0.00685572
0.00680193
0.00687372
0.006841
0.00643185
0.01761
0.00653412
0.0021032
0.0267594
0.00675479
0.00689401
0.00666045
0.000638515
0.0202855
0.0057624
0.00680673
0.00674299
0.00305476
0.00643579
0.00181732
0.00565197
0.00681033
0.00680637
0.00688915
0.00644649
0.00610853
0.00145882
0.00659837
0.00597652
0.00213415
0.0065894
0.0270308
0.00669079
0.00544019
0.00659435
0.00157029
0.00695182
0.00457484
0.00495581
0.00252093
0.00676398
0.00659654
0.00686142
0.00675079
0.00677005
0.00529808
0.00574882
0.00114574
0.00184656
0.00682044
0.00123196
0.00664217
0.00661304
0.00162305
0.00682125
0.00434156
0.00662396
0.00677747
0.00344445
0.00253978
0.00544853
0.00686585
0.00683226
0.00687718
0.00146014
0.0068108
0.00676829
0.00524073
0.00684267
0.00687042
0.00202181
0.00368434
0.0042266
0.0183286
0.00428425
0.000951028
0.00676922
0.00632005
0.000243043
0.00632041
0.00406172
0.00699
0.00683543
0.00679486
0.00654616
0.00353708
0.00686491
0.00500786
0.00678879
0.0287259
0.00668767
0.00654978
0.00696076
0.00292686
0.0062476
0.00750571
0.00413556
0.00708397
0.00654185
0.00680234
0.00418639
0.00675802
0.00234733
0.00653251
0.00689882
0.00676049
0.00670968
0.00644901
0.00099842
0.0187851
0.00674859
0.00545948
0.00685536
0.00578798
0.028517
0.00688674
0.00316564
0.00673871
0.00222377
0.00222669
0.00952509
0.00690917
0.00681431
0.0022066
0.00682701
0.006829
0.00676586
0.00685458
0.00527461
0.00689962
0.00173151
0.00681118
0.00198937
0.00401853
0.00587854
0.00103043
0.018929
0.00132849
0.0131036
0.00675339
0.00653961
0.0067776
0.00680052
0.00674771
0.00643759
0.00677618
0.00234809
0.00683052
0.000218775
0.00681336
0.00588202
0.00249126
0.00690498
0.00519297
0.00680249
0.00643862
0.00658575
0.0068746
0.00670848
0.00292422
0.00522045
0.00689771
0.0067344
0.00681065
0.00678423
0.00564963
0.00675594
0.000429836
0.00679043
0.013088
0.00630476
0.00680317
0.00429185
0.00575427
0.00676128
0.0188535
0.00513165
0.00663164
0.00286866
0.0068438
0.00245359
0.00674224
0.00678029
0.00444521
0.00687605
0.00680692
0.0026236
0.00376421
0.00662793
0.0227028
0.00026541
0.00659333
0.00665249
0.00685573
0.000434232
0.00673395
0.00233391
0.00679995
0.00804142
0.00626806
0.00864102
0.0068709
0.00702634
0.00211333
0.00689679
0.00662813
0.00550939
0.00676105
0.00675518
0.0245768
0.00660512
0.00654718
0.00283325
0.00675444
0.00559671
0.00538189
0.00397743
0.0018112
0.0067462
0.00802683
0.00679579
0.00311609
0.00674063
0.00511678
0.011094
0.0067959
0.0067333
0.00658776
0.00682573
0.00681201
0.00693152
0.00684618
0.00675568
0.00634264
0.00677625
0.0067769
0.00330266
0.00465144
0.00761966
0.00277981
0.00680676
0.00203237
0.00676556
0.000755865
0.0282196
9.97894e-05
0.00700532
0.00675903
0.00677938
0.00683576
0.00700443
0.00684857
0.00675638
0.00567989
0.00675431
0.000544996
0.0218239
0.00679128
0.00675949
0.0067416
0.00687514
0.00571708
0.00719056
0.00392081
0.00687751
0.0185311
0.00687519
0.00687554
0.00109693
0.00652136
0.0139563
0.00680469
0.00156544
0.00684425
0.00684716
0.00605479
0.00319662
0.00677996
0.00671333
0.00565585
0.00693829
0.00659871
0.00673674
0.00682527
0.00315672
0.00551357
0.00663738
0.00718761
0.000669407
0.00322423
0.00302943
0.00686207
0.00674721
0.00686382
0.00778201
0.00348565
0.00658563
0.0067898
0.00938389
0.0182045
0.00022814
0.00640787
0.0272755
0.00680749
0.00677446
0.00538136
0.00681393
0.00679771
0.000876121
0.00353418
0.00685463
0.00597653
0.00524197
0.0067963
0.00698942
0.0247244
0.0076962
0.00680709
0.00680555
0.00656994
0.00676625
0.00688034
0.00532017
0.00645388
0.00677201
0.0207373
0.00638999
0.00503661
0.0288586
0.00557693
0.0053459
0.00679552
0.00681369
0.0052444
0.00362118
0.00455928
0.00597375
0.00589197
0.0067989
0.00680375
0.00663773
0.00760705
0.0058068
0.00675271
0.00413262
0.00681447
0.00350439
0.00278577
0.00261652
0.00461474
0.000170645
0.0201064
0.00756338
0.00794559
0.00685685
0.000352594
0.00699655
0.00380444
0.0026864
0.0274176
0.00668691
0.00647031
0.00661439
0.00539132
0.00674339
0.00713218
0.00594539
0.00242177
0.00759676
0.00683422
0.00314455
0.00673089
0.00683672
0.00556422
0.00503366
0.00700765
0.00681565
0.00678898
0.000199273
0.00676183
0.00675939
0.0067475
0.00679577
0.00680766
0.0024424
0.00419467
0.0067476
0.00690113
0.00222381
0.00528142
0.00515277
0.00788163
0.0068032
0.00673692
0.0182817
0.0067607
0.00673889
0.00784618
0.00580345
0.00573538
0.00408242
0.0064058
0.00130972
0.000521179
0.0059344
0.00134075
0.00688496
0.00244041
0.00593516
0.00159128
0.0228424
0.0222672
0.00692646
0.00684513
0.00679746
0.00680951
0.00684293
0.001414
0.0068695
0.0053058
0.00680902
0.00475106
0.0076638
0.00675111
0.00403309
0.0191373
0.00673953
0.00391475
0.00639413
0.00677482
0.00675364
0.00649355
0.00324592
0.0042339
0.00642031
0.00538052
0.00248643
0.00667779
0.00706324
0.00594274
0.00619059
0.00680866
0.0007656
0.00675307
0.00654953
0.00548275
0.00647309
0.00680007
0.00393447
0.00830088
0.00675506
0.00155239
0.00137576
0.00683211
0.006765
0.00599262
0.000514256
0.000226336
0.00690139
0.00587181
0.00589799
0.0116718
0.00174696
0.00679201
0.0067429
0.00692967
0.00673635
0.00678871
0.00667122
0.000202595
0.00677464
0.00671149
0.00537823
0.00588206
0.00276762
0.00777831
0.0052405
0.00679353
0.00680799
0.00673874
0.00678181
0.00417457
0.00602105
0.00520316
0.00251331
0.00610023
0.00425449
0.00675249
0.00569271
0.00656831
0.00248855
0.00689739
0.00220587
0.00571465
0.00690316
0.00678521
0.00793939
0.00501562
0.00546831
0.00448531
0.00176042
0.00688945
0.000789608
0.00696956
0.00673695
0.00680983
0.0252181
0.00689142
0.00573792
0.00217186
0.00586776
0.00680992
0.0069004
0.00676743
0.00685247
0.00674607
0.00631742
0.00459115
0.00342693
0.00583604
0.00661463
0.00625698
0.00259578
0.0069041
0.00578925
0.0010613
0.00161128
0.00538559
0.00675633
0.00690564
0.00548893
0.00675156
0.00532425
0.00678576
0.00516705
0.00682242
0.00675516
0.00118382
0.00657005
0.00676136
0.00673379
0.0114105
0.00138599
0.00565158
0.00682147
0.00684849
0.0215268
0.00689836
0.00689498
0.00198485
0.0262984
0.0064817
0.00610735
0.00681192
5.78306e-05
0.00673561
0.00650911
0.00679856
0.00689361
0.00163708
0.00673849
0.00684318
0.00124655
0.00408169
0.010173
0.00157558
0.00673372
0.0063358
0.00686302
0.0068937
0.00658541
0.00682549
0.00681509
0.00178199
0.00679084
0.003075
0.00564711
0.00593185
0.00676793
0.00639324
0.00687883
0.00651789
0.00701812
0.00463311
0.00335303
0.00686207
0.00407769
0.0061162
0.00631501
0.006817
0.00561809
0.00680174
0.00691381
0.00452886
0.00520231
0.00546775
0.00679977
0.00686823
0.00676612
0.00309034
0.00680948
0.00773982
0.00519869
0.00683578
0.00672995
0.00689879
0.00525141
0.00513662
0.01852
0.00353547
0.00246908
0.00596571
0.00222004
0.00663512
0.00654251
0.00680887
0.00701856
0.00664064
0.00496272
0.0069012
0.00777869
0.00683891
0.00681542
0.0019146
0.000552512
0.0012324
0.00503631
0.00660958
0.00192134
0.00529042
0.00693677
0.00658759
0.00674108
0.00680576
0.00638867
0.00687982
0.00792707
0.0052949
0.00678665
0.00675894
0.00693267
0.00630647
0.00690241
0.00690258
0.00307618
0.00673444
0.00686199
0.00657125
0.0069196
0.00479728
0.00679151
0.00643139
0.00674912
0.00628762
0.00253979
0.00675123
0.00675595
0.0068085
0.0067304
0.00673878
0.0068088
0.00683312
0.00679211
0.0067678
0.00679432
0.00678864
0.00344942
0.00690898
0.00255761
0.00684069
0.00424038
0.00690226
0.00681241
0.00682931
0.00700558
0.00565753
0.00629976
0.006671
0.0104784
0.00567753
0.00775589
0.00780181
0.00293427
0.001104
0.00684364
0.00678403
0.00587009
0.00801855
0.00674678
0.00552529
0.00690231
0.00268166
0.0275735
0.00674521
0.00268302
0.0202341
0.0167844
0.00682708
0.00465688
0.00679545
0.00447129
0.00671719
0.00781534
0.00105677
0.0068166
0.00101468
0.00123186
0.00707179
0.00311712
0.00404945
0.00675238
0.00673725
0.0048235
0.00609511
0.00693716
0.0060668
0.00682582
0.00290747
0.00182247
0.0068238
0.00691218
0.000356785
0.00689773
0.00673881
0.00680925
0.00682197
0.00124367
0.00594964
0.00643798
0.00712231
0.00674564
0.00389286
0.00677661
0.00494259
0.00420748
0.00539666
0.00690271
0.00650728
0.00682949
0.0068479
0.00674136
0.00681267
0.00399332
0.00678733
0.00683759
0.00675362
0.00417899
0.00673916
0.0268252
0.00729046
0.0283063
0.00684929
0.00690879
0.0067403
0.0205286
0.00682845
0.000155393
0.00683716
0.010531
0.00675644
0.00643436
0.00119271
0.00683025
0.00699458
0.0057797
0.00212377
0.00778015
0.00667228
0.00461589
0.0184096
0.00683736
0.00649845
0.00683626
0.00640955
0.00391988
0.00667639
0.00491044
0.00410345
0.00604072
0.00325484
0.00676283
0.000165047
0.00674211
0.0268188
0.00673749
0.00330669
0.00674186
0.00675391
0.00655465
0.0280367
0.00690665
0.00570268
0.00362836
0.0195119
0.00675693
0.0062075
0.00583217
0.00157144
0.00303481
0.00272849
0.006913
0.00189389
0.0092347
0.00663806
0.000541075
0.00702873
0.0015792
0.00167294
0.00690127
0.00182584
0.00672978
0.00356846
0.000984065
0.00671318
0.00652985
0.0271684
0.025654
0.00673242
0.00678885
0.00683543
0.0068315
0.00296379
0.00355443
0.00116097
0.00682932
0.00647118
0.00793392
0.00529199
0.0188711
0.000601988
0.00673358
0.0067371
0.00176095
0.00816379
0.00710898
0.0250478
0.00178957
0.00545038
0.00433167
0.00622684
0.00666312
0.0274489
0.00673736
0.00264954
0.00530421
0.00317799
0.00678851
0.00661315
0.00401235
0.00219157
0.0285067
0.00655931
0.0103404
0.00698523
0.00489666
0.00673463
0.00673617
0.000584886
0.00691254
0.00741432
0.00641622
0.00652271
0.00152747
0.00490971
0.00675242
0.00590095
0.00636834
0.00678922
0.00577808
0.00587067
0.0065914
0.00691093
0.00705688
0.00138167
0.00170613
0.00701113
0.00650753
0.00599847
0.000856763
0.0019216
0.00340384
0.00314973
0.00516873
0.00692228
0.00658305
0.00655801
0.00176194
0.00178927
0.00680584
0.00674755
0.00678942
0.00116377
0.000733934
0.00689676
0.00468763
0.00174712
0.00674891
0.00516908
0.0066677
0.00570347
0.0061678
0.00947294
0.000195755
0.006452
0.00659807
0.000253574
0.00676701
0.00462089
0.00558657
0.00233258
0.00266741
0.00591647
0.00399151
0.00816164
0.00456778
0.00676245
0.0223524
0.00311784
0.00687391
0.0024786
0.00313673
0.00217011
0.00302388
0.00200598
0.0279045
0.0018213
0.00597978
0.00648521
0.00424239
0.00682672
0.00678917
0.00680076
0.00679215
0.00118853
0.00210043
0.00700268
0.00441195
0.00189779
0.00676431
0.0226696
0.0061292
0.00692521
0.00682901
0.00685045
0.00678211
0.00485949
0.00674231
0.00479394
0.00637994
0.00310161
0.006425
0.0032966
0.00424173
0.00556332
0.0126848
0.00679203
0.00677532
0.00700859
0.00691264
0.0061521
0.00328412
0.00624266
0.0058728
0.00682801
0.00681416
0.00584393
0.00690288
0.00685572
0.00329563
0.00663625
0.00552925
0.0110724
0.00646491
0.00675722
0.00925173
0.0067561
0.00121613
0.0067496
0.00191443
0.00911358
0.00678654
0.000939165
0.00511333
0.00590953
0.00684649
0.00688179
0.00638471
0.00715331
0.0068195
0.00680061
0.00688119
0.00680817
0.00176055
0.006853
0.00660805
0.00673429
0.00692802
0.000178178
0.00602741
0.00657876
0.00188967
0.000832028
0.00756617
0.0239579
0.00691692
0.00678279
0.00560008
0.00679664
0.00327834
0.00676684
0.00277418
0.00670579
0.00680582
0.00534378
0.0074888
0.00673476
0.00691382
0.00680807
0.00235052
0.000551527
0.00169731
0.00673043
0.00663425
0.00676075
0.00691285
0.00686268
0.000424057
0.00410639
0.00682251
0.00121095
0.00551915
0.00495286
0.00680039
0.00690059
0.0062486
0.00496583
0.00198048
0.00679462
0.00682299
0.00671966
0.00762829
0.00679859
0.00684417
0.00452545
0.00675483
0.00571755
0.00669211
0.00688591
0.00685052
0.0287532
0.00676272
0.0199484
0.00429817
0.00699289
0.0155055
0.00682146
0.00194891
0.00486656
0.00682402
0.00700425
0.00698675
0.00674288
0.0234931
0.00470932
0.00635838
0.00700563
0.00680691
0.00581896
0.00546882
0.000419581
0.00675157
0.00601893
0.00488854
0.00141836
0.00678894
0.00678057
0.00681512
0.0102775
0.00619659
0.00655327
0.0067496
0.00631691
0.00484654
0.0067875
0.00677733
0.00673742
0.00275398
0.000216596
0.00679718
0.00776491
0.00594346
0.00673392
0.00559516
0.00404609
0.016356
0.0243225
0.00597342
0.00639027
0.00685787
0.00639747
0.00681433
0.00327017
0.00471336
0.0068263
0.00670537
0.00129218
0.00960509
0.00681367
0.00208597
0.00931584
0.0144571
0.0067794
0.00678493
0.00426129
0.000351499
0.00215354
0.00685386
0.0118749
0.00419281
0.00702686
0.00339369
0.00644025
0.0068366
0.000590098
0.00685926
0.0056874
0.0069107
0.00691603
0.00684752
0.00680894
0.0054625
0.00701295
0.00674831
0.00280235
0.00667789
0.00658798
0.00191614
0.00682456
0.00673171
0.00677179
0.00680125
0.00211145
0.0026453
0.00123029
0.0232043
0.00527755
0.0253585
0.00462229
0.00771194
0.0106001
0.00603928
0.00682856
0.00603145
0.00675171
0.00684095
0.00690395
0.00649314
0.00182517
0.00421742
0.0053815
0.00676341
0.00673611
0.0046778
0.00680356
0.0068267
0.00683123
0.00726509
0.00616784
0.0012623
0.00675439
0.00433777
0.00682161
0.00681388
0.0067963
0.00507334
0.00678961
0.00261737
0.00721418
0.00521622
0.00522682
0.0291765
0.00667603
0.00647426
0.0172364
0.00195108
0.00697226
0.00690947
0.00699896
0.00699536
0.00693131
0.00238567
0.00425397
0.00278925
0.0181317
0.0163492
0.00346512
0.00588229
0.00692336
0.00675669
0.00237465
5.90324e-05
0.00678307
0.00676146
0.0219701
0.00673767
0.00136964
0.00686976
0.00684619
0.00656281
0.00676648
0.00294854
0.00715846
0.00599482
0.00668394
0.00681421
0.00313261
0.00679719
0.00277307
0.00678804
0.0022498
0.00322751
0.0068256
0.00683781
0.0070109
0.00198207
0.00437938
0.00174794
0.00134171
0.00627923
0.00126316
0.0032429
0.0028803
0.00331966
0.00675719
0.00731478
0.00680676
0.00715742
0.00118638
0.00699567
0.00401404
0.00705327
0.00461575
0.00313288
0.00685779
0.00396136
0.00682038
0.0067762
0.00661961
0.00681274
0.00631981
0.00120837
0.00092524
0.00437005
0.00660091
0.00530398
0.00679116
0.00679882
0.00677394
0.00182248
0.00284861
0.00811752
0.00515009
0.00699306
0.00682428
0.0068023
0.00159287
0.00664154
0.00675162
0.0066324
0.00259295
0.00626984
0.00494033
0.00496985
0.0076927
0.00630802
0.00618699
0.00675059
0.00661512
0.000827786
0.000504654
0.00472064
0.00691362
0.00621224
0.00612987
0.00684792
0.00472155
0.00778488
0.0101857
0.005866
0.00673944
0.00694478
0.0068242
0.00674843
0.00698783
0.00727112
0.000174312
0.00695827
0.00400398
0.00363879
0.00678867
0.00494056
0.00390897
0.00676574
0.00620493
0.00618228
0.00682023
0.00512606
0.00589605
0.00498983
0.00611694
0.00692045
0.00796556
0.00677638
0.0068041
0.019416
0.000117356
0.00301037
0.00102593
0.00671217
0.00679542
0.00028324
0.00684218
0.00673888
0.006758
0.00525829
0.00675057
0.00580399
0.00238848
0.00503788
0.000294206
0.0068103
0.00401877
0.0067964
0.00774626
0.00555235
0.00676081
0.00680032
0.00664942
0.00270577
0.00180461
0.00315225
0.00764637
0.00745835
0.00567715
0.00655167
0.000195303
0.00457778
0.00435877
0.000206403
0.00683375
0.00686103
0.00675253
0.00678562
0.00674673
0.0061635
0.00598313
0.00573561
0.00391354
0.00209253
0.000185028
0.00701794
0.00741408
0.00600361
0.00617522
0.00190614
0.00352509
0.00674676
0.00685337
0.00330512
0.00401912
0.00670458
0.00696552
0.00779054
0.00685165
0.00677787
0.00669884
0.00282032
0.0068169
0.00268311
0.00729939
0.00681153
0.00672724
0.0068345
0.00681107
0.00285228
0.00688515
0.00552938
0.000720528
0.00198653
0.0067561
0.003276
0.00184179
0.00702876
0.0013351
0.00030451
0.00828631
0.00428719
0.0051688
0.00686284
0.000517315
0.00711803
0.0015045
0.0010436
0.00691804
0.00673591
0.00670894
0.00676618
0.00276395
0.00317761
0.00680002
0.00648858
0.00361487
0.00688131
0.00657032
0.00634406
0.00771564
0.00737798
0.00678633
0.00636997
0.00207489
0.00673699
0.00673262
0.00915338
0.00676621
0.00148441
0.00390983
0.00293657
0.00678582
0.00331791
0.00158543
0.00684788
0.00703748
0.0139594
0.00684305
0.00679477
0.0055373
0.001353
0.00165516
0.00697146
0.00308913
0.00658541
0.0015645
0.020262
0.00594561
0.00673424
0.0030037
0.00679866
0.00702389
0.00537586
0.00551962
0.00216574
0.00670766
0.00607915
0.00690435
0.0069159
0.00681052
0.0068065
0.00553926
0.00672226
0.00118527
0.002072
0.0052082
0.00289256
0.0074154
0.00477961
0.00613962
0.00677221
0.00668244
0.00590082
0.0066015
0.00150965
0.0198737
0.00681064
0.00100749
0.00630193
0.00649857
0.00277936
0.00281826
0.00263272
0.00248856
0.00679287
0.00245563
0.00231159
0.00215805
0.00196138
0.00266971
0.00255843
0.00606349
0.00674079
0.00615096
0.00271668
0.00678048
0.000146545
0.00629859
0.00158363
0.00791597
0.00703586
0.0069267
0.00471851
0.00297638
0.00680906
0.00667464
0.004223
0.00747081
0.0235553
0.00681703
0.00590072
0.00664761
0.00235269
0.00997303
0.00672675
0.00079145
0.00696407
0.00243989
0.00666651
0.0021234
0.00536861
0.00657388
0.00681265
0.00522518
0.0073163
0.00679443
0.00333937
0.00220503
0.00641399
0.00690025
0.00457741
0.0216698
0.00690911
0.00690372
0.00833767
0.000965413
0.00277074
0.00682407
0.00135238
0.00163938
0.0078894
0.00496138
0.00677267
0.00673379
0.00680983
0.00692042
0.00563624
0.0212826
0.00705497
0.00293018
0.00119175
0.024705
0.00692564
0.00674559
0.00678312
0.00692232
0.00605794
0.00682732
0.0069622
0.00680158
0.00679222
0.027786
0.00679406
0.00223136
0.0267847
0.00687245
0.00667669
0.00679553
0.00186241
0.0054659
0.0015824
0.00795097
0.00677647
0.00694419
0.00650018
0.00288961
0.00548392
0.00559601
0.00229731
0.00152623
0.00217362
0.00123456
0.00663492
0.00691521
0.00681714
0.0067481
0.00139958
0.00314247
0.011117
0.00524676
0.00194095
0.00682806
0.0171873
0.00653419
0.00240748
0.00672987
0.00678826
0.00692765
0.00756382
0.00587386
0.0287272
0.00140484
0.00224243
0.00120317
0.00700514
0.00588343
0.0016927
0.00139874
0.00108084
0.00677278
0.00202197
0.00681765
0.0067512
0.00234175
0.02304
0.00322588
0.00683166
0.00257704
0.000579202
0.00719194
0.00243518
0.00487517
0.00306997
0.00689217
0.00362705
0.00683609
0.00201281
0.00687938
0.00203137
0.00668549
0.00398873
0.00725338
0.0271582
0.00452762
0.0022165
0.00739972
0.00273569
0.00666177
0.0194161
0.00294156
0.00697849
0.00670946
0.00285982
0.00639502
0.00192287
0.00136824
0.00678448
0.00353948
0.00693132
0.00467611
0.00721263
0.0236236
0.00211892
0.00622205
0.00233018
0.00239201
0.00435174
0.00352749
0.00681152
0.000188416
0.00381367
0.000357536
0.00638605
0.00367731
0.0012236
0.000217826
0.00660945
0.0173852
0.00668577
0.00604621
0.00167998
0.000395187
0.00143414
0.00673983
0.00694336
0.00659802
0.00511469
0.0055591
0.00681268
0.0051637
0.00585525
0.00334911
0.00307579
0.007228
0.00654952
0.00701944
0.00181352
0.023233
0.00681163
0.000576679
0.00474606
0.00401196
0.00333837
0.00701879
0.00670997
0.00677831
0.00427696
0.00679279
0.00676204
0.00648458
0.000384286
0.00674674
0.0054591
0.00680907
0.00685132
0.00675187
0.00690694
0.00679242
0.00132675
0.00725717
0.00690979
0.0114487
0.00335192
0.00453572
0.000286556
0.00287691
0.00659343
0.00624734
0.00673024
0.00363518
0.00595769
0.00530674
0.00678648
0.00147847
0.000409779
0.0029437
0.000730341
0.00677223
0.00675179
0.00460628
0.00401771
0.00320517
0.00428962
0.00683729
0.00517945
0.001806
0.00677161
0.000874896
0.00672733
0.00345236
0.00213768
0.00769461
0.00188164
0.00193033
0.00639522
0.00681565
0.00688035
0.00362206
0.00677598
0.00679786
0.00680043
0.00643823
0.00682736
0.00674012
0.00679224
0.00504434
0.00675758
0.00640346
0.0068736
0.00504588
0.00307919
0.00673465
0.00369246
0.00675484
0.00675216
0.00275184
0.00500187
0.00692998
0.00684078
0.0100455
0.00676209
0.00637694
0.00675345
0.00191073
0.00674111
0.00686233
0.00221186
0.00675833
0.00323859
0.0056543
0.00692371
0.00791589
0.00678048
0.00674148
0.00301203
0.00673331
0.00153034
0.00747597
0.00229951
0.000577351
0.00521321
0.00351387
0.00684892
0.00680032
0.00357642
0.00196472
0.00376073
0.00209439
0.00602728
0.00639562
0.00679302
0.00648136
0.00134353
0.00443026
0.00677322
0.00263845
0.0031523
0.00335958
0.00678698
0.00676372
0.00144865
0.00336406
0.000291348
0.0266413
0.00664989
0.00305932
0.00678874
0.00490704
0.00402743
0.00682524
0.00140809
0.00544519
0.00242302
0.022658
0.00676558
0.00685574
0.00673286
0.00610951
0.00157576
0.00672506
0.00222763
0.00252624
0.00678579
0.00685761
0.000202724
0.00561719
0.00140049
0.00708985
0.00188308
0.0061837
0.0013774
0.00239849
0.00633678
0.0139464
0.00315272
0.0190974
0.00678495
0.00314843
0.00229162
0.00680577
0.0121296
0.0054526
0.00263107
0.00644823
0.00210405
0.00682264
0.00436149
0.00670551
0.00674078
0.00690977
0.00680742
0.00678829
0.00680304
0.00689921
0.00672754
0.00682212
0.00680842
0.0076094
0.00300874
0.00680928
0.00336694
0.00666648
0.00627303
0.00690727
0.00460953
0.00591168
0.000481542
0.00676716
0.00675649
0.00322549
0.000530258
0.00679775
0.00678998
0.00183535
0.00675726
0.00231734
0.0035607
0.00684828
0.00119754
0.00674594
0.00680918
0.00316919
0.00586354
0.00687638
0.00380583
0.00691589
0.00662944
0.00685824
0.00641385
0.00676793
0.00675822
0.00472066
0.00348226
0.000321677
0.00452723
0.00678227
0.00630574
0.00747145
0.00435927
0.00182815
0.00233699
0.0067671
0.00437279
0.0230229
0.00168863
0.0168205
0.00655736
0.00633992
0.0192652
0.00606452
0.00679425
0.00287788
0.00681043
0.00428111
0.00786453
0.00682608
0.0039357
0.00682552
0.00775906
0.00418161
0.00680653
0.00338625
0.00760692
0.00948172
0.00673944
0.00278674
0.00629464
0.00674716
0.0122646
0.00681241
0.00573186
0.00675882
0.00652488
0.00730513
0.00318162
0.00681984
0.00610033
0.00140663
0.00681675
0.00682338
0.00641232
0.00649609
0.0067814
0.00674389
0.00659151
0.00681971
0.00678734
0.00357907
0.00295079
0.00177599
0.006741
0.003792
0.0068652
0.00367819
0.00677752
0.00682901
0.00667158
0.00249793
0.00681348
0.00682143
0.00678991
0.00692649
0.00641886
0.00649959
0.00678789
0.003351
0.00675229
0.00691268
0.00673464
0.00369786
0.00503248
0.00287885
0.0068135
0.00628672
0.00626074
0.00607403
0.0066974
0.00378595
0.00686635
0.00307877
0.00305141