/*--------------------------------*- C++ -*----------------------------------*\
| =========                 |                                                 |
| \\      /  F ield         | OpenFOAM: The Open Source CFD Toolbox           |
|  \\    /   O peration     | Version:  v2012                                 |
|   \\  /    A nd           | Website:  www.openfoam.com                      |
|    \\/     M anipulation  |                                                 |
\*---------------------------------------------------------------------------*/
FoamFile
{
    version     2.0;
    format      ascii;
    class       volScalarField;
    location    "800";
    object      ddt0(k);
}
// * * * * * * * * * * * * * * * * * * * * * * * * * * * * * * * * * * * * * //

dimensions      [0 2 -3 0 0 0 0];


internalField   nonuniform List<scalar> 
13917
(
5.26552e-07
4.21874e-07
0.00599596
1.85859e-07
6.92416e-08
-5.32223e-07
0.00692246
0.00375818
-0.00492882
-2.5182e-07
-8.03765e-06
-3.82867e-07
1.40488e-07
-0.00101659
2.13157e-07
3.08493e-07
4.3286e-07
-3.81909e-07
-1.64292e-07
1.22351e-07
9.39014e-09
0.00655833
1.2995e-07
0.00487449
1.68218e-07
0.0103498
-3.68035e-08
-6.36559e-08
-9.77797e-06
-1.52071e-06
3.52485e-07
3.63965e-07
-6.72321e-08
2.5197e-08
9.78155e-08
0.0158784
1.32122e-07
-0.00177898
1.75633e-07
0.0017893
1.71865e-07
-7.54172e-09
1.64009e-08
6.30392e-08
3.97998e-07
-2.48006e-09
-3.36588e-07
-9.6297e-07
-7.79083e-07
1.77542e-07
3.37279e-07
6.97027e-08
8.37817e-06
2.34484e-07
4.01867e-07
3.26438e-07
8.98464e-07
2.48533e-07
3.82359e-07
4.21003e-07
-0.000513457
4.29909e-07
-0.0008196
1.39417e-07
-3.47483e-07
-0.0037981
-1.27728e-08
-4.88521e-09
7.44016e-05
4.37754e-07
5.8717e-08
-0.00484662
-0.00315723
1.27329e-07
-7.61128e-06
-4.12952e-07
-0.00236393
3.61791e-07
0.0124114
1.19462e-08
6.34423e-08
-1.47238e-08
-8.0858e-07
-0.0018879
-0.000796093
3.52899e-07
9.28406e-08
-0.00443916
2.64082e-07
-9.40952e-09
-0.00334632
1.86375e-07
3.76992e-07
2.1058e-07
-0.00301484
-1.15846e-06
9.11955e-07
-7.95343e-07
-4.22606e-07
-6.96154e-07
1.75547e-07
-3.76632e-07
8.56048e-08
3.45963e-07
2.56128e-07
-0.0051017
1.81611e-06
-1.09182e-06
4.1937e-07
6.48893e-07
-0.0024539
0.00233811
-9.78777e-07
-0.00509164
5.40143e-08
2.69494e-06
1.76002e-07
-2.07451e-06
0.000346191
1.3095e-09
-8.12955e-09
1.406e-05
-0.000359989
-3.98634e-07
1.74092e-07
2.22376e-07
4.42864e-07
1.80385e-07
1.8814e-09
-1.51484e-06
0.000983734
5.10426e-08
3.99184e-07
-1.14299e-09
-0.00306238
0.00560396
3.10641e-07
-3.74958e-07
-1.15341e-08
6.13626e-08
0.0103335
2.82603e-07
1.19061e-07
-1.5318e-07
-6.619e-09
-0.00401403
-9.28855e-06
5.99669e-08
2.21592e-07
4.1573e-07
-4.92241e-07
7.40272e-06
-1.09686e-06
2.15788e-07
3.61436e-07
-8.51735e-05
5.28886e-07
0.00904731
-0.00187835
-0.00310266
1.66599e-07
-5.2936e-07
7.13408e-09
-2.20105e-07
-8.54903e-07
-7.22917e-07
3.39686e-07
-8.28397e-07
3.67377e-07
-2.5941e-07
6.52943e-07
-0.000808453
-9.09854e-07
3.77579e-07
-0.00134605
2.78041e-07
0.00144057
-8.94284e-07
-0.00349564
3.68725e-07
1.06261e-06
1.86721e-07
2.84789e-07
1.0198e-07
1.14853e-07
0.0117155
2.69594e-05
0.000149319
4.18032e-08
-2.19562e-06
0.0142655
-0.000719381
-1.15147e-05
1.21437e-07
-4.52684e-07
-1.37351e-07
1.28926e-07
4.15454e-07
3.57067e-08
-0.00189311
2.63279e-07
1.80291e-07
-7.26483e-07
-3.42203e-07
-0.00278491
-0.00115327
9.82188e-08
2.62762e-07
-7.13565e-07
0.00976293
1.16142e-07
0.00584403
-0.00196935
-2.08796e-06
2.46491e-07
9.96781e-07
-5.88944e-07
-0.00136746
2.08246e-07
-0.000603896
3.49576e-07
-1.39385e-07
1.72644e-07
-0.00242527
-0.00515409
3.29242e-07
-0.000206218
3.22576e-07
2.58357e-07
0.0122534
-8.06101e-07
4.09565e-08
0.00697624
-0.00172626
1.38385e-07
3.66975e-07
-0.00357865
-0.00051154
5.19306e-08
1.88137e-07
0.00259903
-1.18432e-05
1.51042e-08
0.00161883
-1.93017e-06
-1.91548e-06
4.55195e-07
3.56697e-08
-1.07456e-08
-0.00190389
1.85102e-07
-1.44087e-07
-3.24901e-07
4.24278e-07
2.41914e-07
-1.11165e-06
0.00313898
-1.25143e-06
1.54201e-07
2.71762e-07
5.75685e-09
-0.000578249
-0.00411168
0.000686911
2.76883e-07
-0.00283575
-0.00163333
0.00865382
0.0120783
-8.09244e-07
3.33142e-08
1.91475e-07
-4.53692e-07
-0.00255642
-3.24486e-06
3.64677e-07
-0.00178678
-8.76244e-08
-1.97183e-08
-0.00244162
1.31854e-07
-0.00156255
1.85685e-07
4.0469e-08
1.68869e-07
2.34243e-07
-6.38626e-07
0.0030067
4.52794e-07
2.82669e-07
-0.00326779
0.00686945
-0.00413851
2.03912e-07
0.00579276
-1.35028e-08
2.79559e-07
1.71531e-07
-1.091e-05
1.52412e-07
2.13154e-07
4.62634e-07
3.4447e-07
-7.66283e-07
4.51782e-07
2.64536e-06
7.91116e-08
2.03395e-07
2.83225e-07
2.32155e-07
-0.00221095
-0.000834388
1.75424e-07
1.77219e-07
-0.00256263
3.52068e-07
-0.00339164
2.80173e-07
-0.00260283
1.75723e-07
-3.94347e-06
-1.6818e-08
-1.247e-07
1.26402e-07
-0.00308743
-2.22836e-06
2.90711e-07
-2.00839e-05
1.66122e-06
3.0432e-07
-0.00051591
-2.0326e-07
-0.00169169
-8.10628e-08
0.000237949
3.65815e-07
-0.00191492
1.10466e-06
2.24386e-07
2.58507e-07
0.00526508
2.95176e-08
4.67102e-07
-0.00267949
2.01915e-07
3.37751e-07
-0.00162262
1.41215e-07
4.01322e-07
0.0137773
-9.14393e-07
1.76027e-07
-9.83628e-05
0.0162033
1.45532e-07
2.32037e-07
-3.66114e-08
2.39678e-07
-0.00292033
-0.00281995
1.455e-06
-0.00246066
1.46641e-07
-1.82985e-06
-9.05129e-05
-2.52644e-07
0.00557306
-0.0027679
-0.00515506
1.76341e-07
0.000247048
2.82251e-07
-0.00119561
4.13335e-07
-5.13385e-07
-1.98975e-06
1.8795e-07
4.75225e-08
-6.04236e-07
2.74694e-07
-4.34366e-07
-3.81847e-06
-0.00185486
-0.0010579
1.64337e-07
4.01927e-07
1.89373e-07
-0.000514842
0.00728985
2.85442e-07
-0.00319494
9.31698e-08
0.00110417
1.655e-07
3.07318e-08
4.04592e-07
0.012465
3.96914e-07
0.0037463
-3.73565e-05
-1.65009e-06
2.47635e-07
3.08085e-07
-1.02748e-07
-7.78069e-07
1.76209e-07
-1.03257e-06
2.05764e-07
1.06763e-07
-1.44027e-06
2.37485e-08
1.03826e-07
2.35885e-07
-0.00065691
1.02939e-08
0.000711744
0.0159926
-7.28932e-05
-2.16427e-06
0.0043519
-0.0015764
-2.78576e-07
1.40723e-07
-3.17177e-06
2.11358e-07
4.16479e-07
1.20752e-07
-0.0035425
0.00854629
0.016608
3.23644e-07
-1.98166e-06
1.43079e-07
1.46836e-07
-7.84562e-07
3.91011e-07
0.000340931
4.28722e-07
1.44966e-07
-0.0036915
0.00150671
0.0019571
-3.72857e-07
-3.84433e-05
-0.000389081
-0.00344115
-0.00217494
3.58131e-08
-4.59356e-07
4.07281e-07
2.36708e-07
-0.00144415
-3.61828e-07
-9.24744e-08
-2.43792e-07
-1.7051e-07
-0.00191398
1.71419e-07
3.53006e-07
0.000173452
0.00325641
0.000979716
9.9932e-09
3.09781e-07
1.18494e-07
5.74179e-07
1.47814e-07
0.0140902
1.05703e-06
4.68158e-07
-0.000316263
3.19503e-07
-3.60674e-07
-0.00366438
-6.13298e-06
-6.91774e-06
0.0138582
-1.1634e-06
-3.29886e-07
4.02874e-06
-3.24789e-07
1.10248e-05
2.27375e-07
-3.38906e-07
-1.04366e-06
7.54139e-08
-0.00269776
4.1734e-08
1.98114e-07
5.26979e-07
4.07405e-07
-0.00212933
-0.00507286
3.33557e-07
-3.17796e-08
0.012278
-0.00134194
3.11457e-08
0.000205415
2.7958e-07
-3.95243e-06
3.72741e-07
-0.00261559
0.00311133
4.06409e-07
3.90488e-07
0.00544015
2.4984e-06
-9.23099e-05
2.65316e-09
-0.00212248
2.0994e-06
-0.00235438
2.06947e-07
-0.000765381
-0.00445138
-4.24467e-07
2.29942e-07
3.36027e-07
-3.77256e-07
-0.00256257
-1.59253e-07
2.25492e-07
1.71319e-07
1.70047e-07
-0.00244668
-0.00129921
-2.85396e-07
-5.54469e-05
1.61321e-07
1.79064e-07
-1.70939e-06
-0.00482823
1.64443e-07
4.0623e-07
1.18759e-07
-3.31905e-09
-0.00230914
-0.000717604
7.57313e-08
3.46794e-08
0.000150819
-3.7477e-07
-2.72829e-08
2.85674e-07
4.33102e-07
4.02097e-07
-1.25092e-06
-7.04972e-06
0.00011908
-5.55492e-06
-2.46906e-06
-0.00126149
4.52399e-07
1.9231e-07
-0.00222507
-1.09701e-08
3.12172e-07
2.88014e-07
-0.00251312
4.46907e-07
1.50756e-07
-0.000773234
-8.22004e-07
1.14489e-05
-2.40744e-06
-1.371e-07
-2.61774e-07
4.60769e-08
-0.0043134
1.45185e-05
0.000470189
3.91955e-07
3.6111e-07
3.23828e-05
-0.00293311
-0.000931053
-8.39143e-07
-4.91011e-07
2.92375e-07
4.34567e-07
2.61959e-07
3.13717e-07
-5.88694e-08
7.04405e-09
-6.4577e-07
-2.66186e-07
0.000477841
-0.000125726
4.16997e-07
-2.6551e-06
0.00407768
4.88517e-07
1.05696e-07
6.08961e-06
-0.00495899
-0.00360868
0.000105022
2.11121e-08
3.05076e-05
-4.3834e-07
1.66518e-07
3.41427e-07
-1.28894e-06
1.93148e-07
-7.68281e-07
0.0119442
-2.77264e-06
-1.55618e-07
-0.00439363
3.90989e-07
-0.00192214
2.56979e-08
8.42832e-08
0.00574329
-0.00507486
-2.58671e-07
3.98507e-07
3.73884e-07
3.44273e-08
-9.56405e-08
2.27367e-06
-1.43895e-06
4.24355e-07
-3.96757e-07
-6.14125e-07
3.52536e-07
-0.00052397
-5.41874e-07
-0.000175184
2.39614e-07
-6.78071e-05
4.13026e-07
0.000208481
-2.73851e-07
3.01778e-07
2.18512e-07
1.77253e-07
1.94399e-07
4.43208e-07
2.63284e-07
5.12046e-08
-0.00493356
-3.48198e-06
-8.03501e-07
1.74967e-07
-1.13239e-05
2.56059e-08
0.0173104
2.04851e-07
2.40454e-08
2.141e-07
1.33112e-07
3.616e-07
-0.00453854
3.0378e-08
-0.000670133
1.49628e-07
-2.03505e-06
-4.50329e-07
-0.00310283
1.21581e-07
3.6748e-07
-0.00256418
-0.000711236
3.39627e-07
2.77643e-07
0.00160145
-1.15272e-05
-2.6979e-06
5.0942e-08
3.97308e-07
-1.95875e-06
1.56553e-07
-3.66557e-07
-8.84741e-07
1.65975e-07
-4.99305e-07
0.00564993
1.79142e-07
1.66249e-07
1.6738e-07
-0.000877855
-1.08815e-09
3.28443e-07
-0.000904634
3.22334e-07
-0.00488275
3.69728e-07
-2.2503e-07
1.63732e-07
3.34566e-07
1.63766e-07
-1.06854e-07
1.7526e-07
4.82472e-07
2.64079e-07
-0.00150255
-2.10771e-06
-0.00478745
1.30612e-07
4.06215e-08
4.34858e-08
1.27783e-07
-0.00142449
-0.00512544
-3.12934e-07
1.18317e-07
-0.00124479
-1.61954e-06
-0.000140266
0.000311335
-4.06931e-07
0.0136694
2.47145e-07
2.59609e-08
-5.29673e-06
-1.98807e-07
-3.99563e-07
1.29065e-06
-2.08351e-07
2.36233e-07
-1.18125e-06
4.17222e-07
2.08273e-07
5.10453e-08
6.28093e-07
3.91188e-07
1.51062e-07
1.65146e-07
-8.15298e-07
2.79041e-07
-6.54497e-07
9.41865e-08
8.94556e-08
-1.66787e-10
3.69011e-07
-2.09167e-08
4.13065e-07
1.7404e-07
-0.00248766
-2.15962e-07
3.36159e-06
1.64802e-07
2.5851e-08
-3.65913e-08
-2.04089e-07
3.0395e-08
-0.00243866
2.2313e-07
-0.00203803
5.0954e-08
-3.48607e-06
2.81791e-07
3.56972e-09
1.81426e-07
4.26445e-07
-0.000430144
1.66502e-08
-0.00185146
4.50393e-07
-9.90654e-05
1.12163e-08
4.00757e-07
1.99027e-06
1.41534e-07
-7.45544e-09
-2.27873e-07
3.09037e-08
2.51554e-07
-0.00275961
3.60586e-07
2.26246e-08
2.86213e-07
1.87512e-07
2.78975e-08
3.89213e-07
-4.26288e-07
-0.00143064
2.82889e-07
1.7829e-07
1.68278e-07
-0.00318497
2.20404e-07
3.33576e-07
4.11798e-07
-0.00257733
0.0024992
-0.000833486
-2.36302e-07
2.49334e-07
1.36198e-07
1.0578e-08
-3.92382e-07
3.07141e-07
0.0093072
-4.49282e-08
-0.000694378
4.5841e-07
1.98833e-07
-0.000619404
8.8631e-08
3.28131e-08
3.06339e-07
1.51162e-07
8.36283e-07
-5.84779e-07
4.1884e-07
-0.00489431
0.00245337
5.43214e-07
1.94814e-07
6.05499e-08
-2.81454e-06
-0.00176729
2.71019e-08
-7.72308e-05
6.64646e-08
4.15489e-07
1.20657e-07
2.4184e-07
-0.000623179
3.19777e-07
0.00240403
4.03934e-07
-6.73014e-09
5.51707e-08
2.46746e-08
3.01142e-07
1.8767e-07
-7.48579e-06
2.16492e-07
2.44845e-07
-0.00436582
-0.00441529
-1.7003e-07
4.66681e-08
-8.5528e-07
3.35524e-07
2.78204e-07
4.29949e-07
-0.00264124
4.8589e-07
6.77227e-08
4.23113e-07
-0.00514277
1.09873e-07
-0.00265639
1.09961e-08
1.97961e-08
-0.000955144
-1.36657e-07
3.95778e-07
-0.000274959
3.60707e-06
2.8541e-07
-1.27338e-06
1.77975e-07
2.97297e-07
1.75436e-07
-0.00311787
-4.99978e-08
1.34782e-07
2.91683e-07
0.00580525
2.10931e-07
-2.56368e-06
3.86086e-06
2.19234e-07
-7.62428e-08
8.9531e-08
-0.00247936
1.87777e-07
2.05926e-07
2.29145e-08
-3.97584e-06
1.32318e-08
-6.16801e-05
0.00251984
0.00859566
2.33803e-08
0.0150463
-0.00120846
2.43834e-07
-0.00031793
-0.000604568
-0.00145418
0.00418077
-0.00427833
-0.000276711
-1.29517e-06
3.51769e-07
0.011357
-1.09998e-07
0.00629074
2.19906e-07
3.9105e-07
3.42222e-07
1.01783e-07
3.31813e-07
-9.57352e-08
-0.000921312
3.68507e-07
4.16246e-08
-8.88444e-05
-6.26384e-06
7.2024e-09
-3.38293e-06
2.41345e-07
3.70726e-07
1.75652e-06
-2.24968e-06
1.63616e-07
1.99809e-07
0.00202962
-0.000798742
-1.14145e-06
1.34759e-07
-9.28719e-06
-8.72399e-07
-0.000872048
-0.00515568
-9.92005e-07
3.85841e-07
3.15382e-07
4.39182e-07
-1.57744e-07
3.69707e-07
1.20025e-08
4.15238e-07
2.85147e-07
-0.000355272
-1.40743e-05
1.43349e-07
-3.31095e-06
-0.00360442
6.40642e-07
1.43338e-07
-0.00200463
3.56316e-07
2.49646e-07
-1.09626e-07
-0.000130922
-1.34909e-08
2.34839e-07
0.00465861
0.00940759
0.00524528
-2.25457e-06
0.0153428
2.53926e-07
-1.04469e-05
1.40497e-07
2.03814e-07
1.05782e-07
0.012849
-0.00116025
2.5484e-07
4.28479e-08
3.21671e-07
0.00157254
4.15872e-07
3.03313e-07
2.89679e-08
4.16013e-07
-7.30074e-06
1.93187e-07
-2.80909e-07
-1.01736e-06
0.00231575
4.72321e-07
4.81199e-07
4.54163e-07
-0.00293471
-0.0034888
1.22221e-07
-0.00224277
-1.13674e-06
-1.88453e-05
7.06447e-09
0.011513
2.94236e-08
3.34756e-07
3.21438e-08
-2.16036e-06
0.0111208
-4.06273e-05
3.62822e-07
-0.00493125
1.72356e-07
0.000411988
2.41223e-07
4.71324e-07
0.0037539
2.41709e-07
2.26883e-08
4.23454e-07
3.75819e-07
-0.000420603
1.1875e-07
1.3712e-07
-3.07461e-07
4.5444e-07
-5.88073e-07
-1.45457e-06
-6.87641e-07
-0.000378526
-3.04624e-07
1.0911e-07
-2.31979e-08
-0.00248726
-2.85611e-07
-0.00060623
0.00985921
2.19082e-07
1.73927e-07
0.00499928
-7.28639e-05
8.02584e-08
-2.3873e-06
7.39332e-08
2.12823e-07
3.26329e-07
3.74167e-07
1.64718e-07
-1.78047e-08
-3.63873e-07
-1.38311e-07
2.59574e-07
-7.8703e-08
2.94918e-07
4.25664e-07
1.75108e-07
-2.4188e-10
-6.90468e-07
2.8837e-07
2.90645e-07
2.50017e-07
-4.53499e-06
-1.59892e-07
-0.00446484
1.08988e-07
4.279e-07
-8.38495e-07
2.96173e-07
-1.4915e-06
1.01239e-08
2.06428e-07
-2.196e-06
2.60001e-07
-0.00128812
7.4416e-08
-1.83683e-07
-0.00172171
0.0023107
2.63778e-07
3.39889e-07
0.00187998
1.7896e-07
2.22966e-07
-0.000991256
-0.00343713
7.91429e-08
6.25082e-06
1.34773e-07
3.02953e-07
0.0129322
4.59125e-07
1.4434e-07
0.00763644
2.74729e-07
0.00698262
7.02876e-08
1.49655e-07
3.2601e-07
-6.09085e-07
0.00206564
2.11503e-07
3.08414e-07
2.5626e-07
3.4113e-07
1.58895e-07
-7.51712e-07
-2.24489e-07
1.32809e-09
-0.00283246
5.61848e-07
0.00285923
-0.00014598
-4.20573e-06
2.28569e-07
1.32707e-07
3.16875e-07
-1.45894e-05
2.3784e-07
0.00183414
-0.00117417
1.33922e-07
0.00390466
1.94986e-06
-4.31322e-07
-2.61048e-07
2.7342e-07
-8.93734e-07
0.0112092
5.28433e-07
-0.000393587
-0.0018736
-7.52703e-07
2.69558e-07
-0.00243147
2.12904e-07
1.88382e-07
3.07421e-07
0.00034971
5.98555e-07
3.35778e-07
3.77543e-07
-1.28509e-06
3.07003e-07
-0.00215703
4.03038e-07
-0.0047409
-1.82285e-08
-2.81763e-05
-2.59308e-06
-2.20485e-05
2.6792e-07
2.546e-07
3.95211e-07
0.00751134
1.89256e-07
1.64931e-07
6.45093e-08
4.39977e-07
3.88922e-07
1.2596e-07
2.94104e-07
2.51781e-05
8.54053e-09
3.27909e-06
0.0165775
1.26935e-05
3.50741e-07
0.00253878
0.0154494
2.55373e-07
2.29523e-07
1.9639e-07
-0.000504495
5.0716e-09
-9.10486e-07
-5.37449e-05
6.51886e-07
1.19066e-07
2.47312e-07
2.45701e-07
-2.3547e-06
-6.55856e-08
1.71961e-07
-0.00402572
0.0134439
4.70251e-07
-0.000782252
-7.02273e-07
-0.000640897
3.22025e-07
3.3337e-07
0.0159045
-0.000149473
-9.06182e-07
-5.01501e-06
3.65537e-07
-2.38499e-09
3.14528e-07
4.27881e-07
1.14613e-07
1.01818e-07
4.43563e-07
2.62289e-07
-1.34533e-06
1.90794e-07
2.6513e-07
2.1435e-07
4.17161e-07
-1.42747e-06
-0.000157726
2.33429e-07
-4.63905e-05
3.05324e-07
0.0143886
9.08438e-08
-1.96781e-07
8.00104e-08
0.002603
-0.00283431
-4.98912e-09
2.63241e-07
-7.577e-06
3.5108e-07
4.18221e-07
-0.00343893
3.58804e-07
1.06978e-07
4.2184e-07
3.21048e-07
0.00465149
2.65495e-07
2.52169e-07
1.97744e-07
1.46347e-07
-2.868e-07
3.73939e-07
1.44807e-07
1.54752e-07
-0.00212956
4.1218e-07
0.0122452
-0.00353675
-3.75983e-07
0.00258162
4.08318e-07
1.41533e-07
2.94205e-07
-0.00146905
2.17917e-07
5.24834e-07
-4.58262e-07
-0.0028408
2.89034e-07
-6.75469e-05
-5.11485e-08
-9.67598e-07
2.19942e-07
6.81148e-08
-1.88025e-06
1.38832e-07
-1.99777e-09
1.21258e-07
1.72804e-07
1.65059e-07
3.30923e-07
-1.13571e-06
2.98396e-07
0.00865831
1.95236e-07
-1.46286e-06
0.00212907
0.00205942
-1.52135e-07
2.83524e-06
-0.000439355
-1.4487e-08
-0.000237047
4.41407e-08
-0.00430474
-1.50382e-05
1.83007e-07
2.17104e-08
1.99375e-07
2.21036e-07
2.22006e-07
1.92061e-07
2.6138e-08
-7.54693e-07
4.07271e-07
5.55866e-07
-0.00317208
-4.14796e-08
2.25682e-07
-0.00496481
3.92699e-07
0.000200437
2.96941e-07
1.59725e-07
2.75779e-07
-0.00185461
-0.00105099
3.56797e-07
2.47817e-07
0.0139569
1.01174e-07
-0.000124063
1.75712e-07
2.71059e-07
0.00107668
2.77565e-07
5.88869e-08
4.04429e-05
4.17729e-08
-2.48226e-07
3.55214e-07
5.31939e-08
1.79545e-07
0.012866
-0.00105072
4.13757e-07
2.60842e-07
2.3506e-07
3.99298e-07
1.16312e-06
-0.00211515
2.04518e-07
-3.07764e-06
0.00680785
-9.63816e-05
-0.000773324
2.72488e-07
-2.18953e-06
-6.17592e-08
2.34852e-07
8.71863e-08
-7.1007e-07
-0.00297455
1.70381e-07
-2.03573e-08
0.00334015
4.98166e-06
4.12298e-07
-8.15078e-08
2.90011e-07
-7.27415e-09
1.12377e-08
-0.000721317
-6.65585e-07
2.83595e-07
2.84794e-07
3.82012e-07
-7.40883e-09
2.92418e-07
5.18511e-08
-1.24419e-06
-7.03976e-08
-0.00223873
2.69371e-07
-7.16591e-05
0.00412152
3.86208e-07
-4.10341e-07
1.7622e-07
3.95412e-07
-0.00158232
4.0741e-07
4.29612e-07
-5.88772e-07
-2.76025e-06
-1.07845e-06
0.0151708
0.00824846
3.45814e-07
-0.00177368
1.26162e-08
3.84569e-07
5.52661e-07
-1.87869e-09
1.93443e-07
1.15856e-05
-0.00413212
2.82336e-07
0.0164525
4.30091e-07
2.31391e-07
4.10281e-07
4.98018e-06
3.95735e-07
2.5977e-07
0.000404418
4.00543e-07
0.00876505
0.00632243
3.05729e-08
2.6691e-07
1.73802e-07
0.00264738
-9.5923e-07
2.96423e-08
0.014384
-4.0222e-07
-2.26427e-07
-1.91721e-08
-0.000927589
2.4412e-07
-7.68992e-07
1.81468e-07
-3.24366e-08
-0.00178298
2.50773e-07
-3.27946e-06
2.03375e-07
-3.56751e-07
-1.89999e-07
3.38405e-08
-0.000514276
3.10824e-07
-3.80314e-06
-2.15476e-07
8.01347e-08
3.64091e-07
6.53895e-07
2.07958e-07
0.00368685
3.26821e-07
9.28386e-06
6.69529e-08
-8.84314e-07
4.63751e-07
4.54338e-08
1.20059e-07
-2.99627e-07
0.00984054
3.77599e-07
3.04683e-07
-8.88847e-07
3.66948e-07
0.00327192
4.18696e-07
0.0150473
-7.42903e-05
4.03528e-07
2.00875e-07
2.31911e-07
3.54459e-08
2.1399e-08
-1.2047e-06
-5.64588e-08
-5.87399e-07
4.22104e-07
1.40361e-07
-0.00177768
2.79945e-07
4.7457e-07
0.000481943
1.18464e-07
0.000450947
-6.13213e-07
6.6961e-08
-6.67391e-07
-0.00281311
-0.00419741
0.0133333
-0.00284092
2.89073e-07
-1.85893e-05
-0.000825936
-4.50271e-07
8.71529e-08
7.42898e-08
-2.01735e-06
0.014086
0.000426634
-7.05145e-07
1.88571e-07
3.20287e-07
-5.45222e-08
0.00524171
1.28573e-06
-4.23783e-07
8.8857e-06
3.83637e-07
4.73401e-07
-8.10689e-07
9.99517e-08
-1.49042e-06
-0.00261063
3.7447e-08
0.00643386
1.58952e-08
2.98082e-07
-0.00202528
-0.00325431
1.75578e-07
1.54787e-07
4.15865e-07
2.79522e-07
5.32602e-07
-2.2013e-05
2.42106e-07
1.96487e-07
1.09999e-07
-3.04171e-07
3.15266e-07
3.39644e-07
-0.00351598
9.87039e-08
-0.00369508
-0.000222703
-0.00302298
2.45972e-07
1.21456e-07
0.00644383
1.86504e-07
0.0119432
0.0115934
-0.00350229
4.20232e-07
-0.0031559
0.00374193
1.35574e-07
1.53947e-07
-1.24125e-06
-0.00228105
-0.00168958
1.85018e-07
3.49473e-07
0.00187779
-0.000466561
-0.00478632
4.1488e-07
1.33441e-08
4.47572e-06
2.71077e-07
0.000271876
8.99404e-05
0.0162851
-0.00382721
1.18223e-07
2.62383e-07
1.79801e-07
2.14517e-07
-0.000864093
-3.01509e-07
1.80594e-07
3.12798e-08
4.33908e-07
-0.000658621
-2.84154e-07
-0.00390155
-0.000136618
9.14863e-05
1.09327e-05
8.81091e-08
7.93553e-08
0.0151087
1.08821e-07
1.84479e-07
3.33571e-07
-1.35235e-06
3.657e-08
0.000324683
-1.259e-06
1.38817e-07
-0.00509944
4.03715e-07
3.81964e-07
-0.000138601
2.56648e-07
-3.13541e-08
2.19281e-07
-2.42148e-05
-0.00311087
9.87415e-09
-0.0032411
0.00678126
-0.000813321
-0.00373752
6.25862e-07
3.27668e-07
4.05126e-07
1.02362e-06
3.36092e-07
0.0133878
3.31627e-07
-0.00707305
0.00644448
8.41867e-08
1.54553e-07
3.70779e-07
1.88189e-07
-0.0017616
-0.000369554
2.37758e-08
-0.000258366
-4.04277e-07
3.4686e-07
1.8694e-07
2.36342e-07
3.20193e-05
4.36812e-07
-3.14905e-06
5.15528e-07
3.39673e-07
1.84285e-07
-4.6849e-08
-0.00171373
-2.53279e-08
4.03167e-07
2.49194e-07
1.13805e-07
4.08965e-07
2.42622e-07
-0.000482917
0.00122129
-0.00263599
1.26933e-07
1.79689e-07
3.27607e-07
-2.09473e-06
2.40557e-07
3.34737e-07
-0.000234333
-7.66071e-07
0.0124947
1.70876e-07
-0.00352171
0.00139764
1.80296e-08
-0.000472569
-3.12068e-06
-1.94982e-07
1.66098e-05
3.89046e-07
-0.000376978
7.24473e-08
2.12257e-07
1.064e-07
8.98337e-08
0.000645846
1.4121e-07
2.00993e-07
-1.41609e-07
0.0036351
0.00227968
2.67073e-08
1.87959e-07
4.64429e-07
4.66566e-07
-2.6759e-06
1.17549e-07
-7.25937e-07
3.15035e-07
-0.0028435
2.38734e-07
0.00111343
1.32146e-07
-0.00483387
4.02104e-07
6.77571e-08
-0.000535551
-4.35569e-06
-5.67189e-07
0.0162174
5.03758e-09
-1.83015e-07
4.99316e-08
-0.00187775
1.57683e-08
2.23845e-07
1.11746e-07
-2.40759e-07
0.000426897
-0.00122197
-3.25747e-06
-0.00407824
5.93993e-07
-0.00525736
-9.32035e-08
3.47903e-07
1.85354e-07
-0.00389862
7.50265e-09
-0.00349251
6.91999e-05
2.31795e-07
2.58356e-08
3.13723e-07
1.84931e-05
1.14792e-05
3.08036e-07
1.11258e-07
3.51793e-07
3.17811e-07
-4.94646e-08
-0.00268792
4.64397e-06
1.49398e-07
1.36752e-06
2.55004e-08
-0.00158389
-7.09573e-07
4.28217e-07
3.94411e-07
-0.00511995
1.84212e-07
-1.032e-06
0.00867552
2.85434e-07
4.26367e-07
0.000110272
1.96355e-06
1.86662e-07
-0.00113805
3.64631e-07
0.00401929
-8.33307e-08
3.13052e-07
2.59518e-07
-0.00290997
1.95248e-07
2.22643e-07
-2.02389e-06
-0.00187063
-1.50866e-07
1.10935e-08
2.00008e-07
5.53902e-07
-1.03424e-08
-0.00174859
2.33096e-07
3.61037e-07
3.70021e-07
1.35062e-07
3.82748e-09
1.72406e-07
8.8782e-08
9.64673e-08
3.13065e-07
1.68159e-05
5.62997e-08
5.71744e-07
-1.35244e-06
-4.53951e-06
-2.2778e-06
-2.92943e-09
-8.31962e-07
1.88806e-05
-5.16971e-06
-1.03554e-06
7.67537e-07
-5.27965e-05
0.00842258
-2.07736e-05
3.3273e-09
-0.0029334
0.0155782
1.39576e-09
3.71261e-07
7.03605e-08
4.58595e-06
-2.00042e-06
2.20874e-07
-3.18927e-06
-0.0036548
1.44465e-07
5.35459e-08
0.014438
0.000277647
-3.10441e-07
1.16255e-07
-0.00222628
0.00545517
4.00389e-06
1.54839e-07
-0.00399071
-7.35008e-07
4.37591e-08
-0.00192474
3.31224e-07
7.55847e-08
1.74069e-07
-2.44371e-06
1.88734e-07
0.0153166
-0.00369013
3.13702e-07
-0.00441478
1.36929e-06
-0.00105892
1.16668e-07
-2.33325e-06
2.44892e-08
3.36512e-07
-0.00293734
0.000711388
0.00184412
0.00662802
3.0877e-07
-1.65021e-07
1.45824e-07
-0.00274861
-1.02407e-05
2.67665e-08
4.15924e-07
-1.51542e-07
2.05892e-07
-5.12205e-07
-0.00034371
-0.00326993
-1.91116e-07
4.07636e-07
2.47116e-07
-0.00350521
1.58796e-07
-3.96093e-07
2.91751e-07
3.29472e-07
-5.96481e-05
1.12298e-05
0.00714128
-6.08041e-06
8.21838e-08
-0.00902627
1.4282e-07
8.02324e-08
-0.00104297
-0.000306821
8.6011e-08
-2.52306e-08
-1.20746e-07
1.56087e-07
7.27016e-08
-0.00299497
-0.00384944
2.84317e-07
-1.61087e-07
1.07545e-08
1.82619e-07
-8.0037e-06
2.31916e-07
0.0159904
-1.65914e-06
-3.62335e-07
3.32703e-07
7.83854e-07
-0.00367319
-1.00929e-07
-4.01148e-06
-0.000527893
2.73264e-07
-0.00181353
3.66832e-08
7.49569e-07
2.03843e-06
-0.00135604
-0.00105907
-4.79378e-07
2.98961e-07
-4.63802e-07
2.28036e-07
4.91663e-08
1.32582e-07
0.0158685
2.9061e-07
-0.00647675
0.00160541
-8.74662e-08
5.82373e-08
2.67292e-05
2.87476e-07
-2.36268e-09
4.07336e-07
-7.817e-10
1.64518e-08
1.01107e-07
1.29472e-07
-0.0013034
3.47851e-07
1.49408e-06
2.09582e-07
2.21008e-07
-0.000834198
-2.42223e-05
1.16047e-07
-5.75847e-08
-2.70822e-07
5.33923e-07
-6.882e-07
2.85642e-07
1.53086e-07
3.04467e-07
0.00242794
9.81024e-08
0.0168274
1.21129e-07
0.0099926
-1.77463e-06
2.99407e-07
-0.00303705
-2.8218e-09
0.00842258
1.23548e-07
-0.0026714
-0.00419013
-0.00316015
-0.00292082
0.000792028
1.75936e-07
2.88453e-07
-0.000620304
2.09523e-07
4.88149e-08
-0.000667076
-0.0030543
1.84829e-07
2.73674e-07
3.90428e-07
3.88694e-07
7.95684e-09
-0.00252872
1.61363e-08
1.0355e-07
-1.32988e-07
2.51167e-07
9.67778e-08
-1.49541e-06
8.31259e-08
0.0166557
2.07419e-07
-1.80406e-06
2.90258e-07
-6.09515e-08
-4.38649e-07
0.000682037
-2.66581e-07
3.04927e-07
1.40716e-07
0.00257268
0.00394393
2.57192e-07
0.0168572
2.41173e-07
5.82971e-06
1.81201e-08
2.43608e-07
-0.00162713
-3.32645e-07
-0.000567136
-0.00107884
1.99496e-07
-0.00482037
4.00907e-07
6.42601e-08
-0.00110081
-2.93003e-07
3.15904e-07
-0.00452945
3.86929e-07
7.09322e-07
1.32966e-07
-1.20803e-07
3.9789e-07
-0.00283069
0.00140614
-7.25091e-05
0.00314499
3.63949e-07
2.36642e-07
-0.000712422
3.18147e-07
2.39953e-07
5.32146e-07
2.41864e-08
6.2015e-07
7.52287e-06
-0.000145862
-0.00115201
-4.96495e-07
2.719e-07
-0.00399563
2.75276e-08
-1.34677e-06
3.41576e-08
0.0017512
4.22704e-07
-2.37464e-07
0.000285961
-2.88386e-06
1.62178e-07
3.09428e-07
0.000109667
3.17346e-08
-6.14367e-06
3.15973e-07
-0.00195851
-0.00340505
-8.78986e-06
-2.80317e-07
1.89208e-07
-5.23165e-05
1.70385e-06
-5.37565e-09
3.04997e-07
2.34221e-07
1.2912e-07
-5.20266e-07
4.79152e-08
-1.46357e-06
8.09263e-09
2.77065e-07
-0.00327248
3.42228e-07
3.99522e-07
1.81656e-07
-8.41482e-09
0.000529873
3.84518e-07
4.3811e-07
-0.00327649
-2.9435e-07
0.0160815
9.49637e-08
-0.00286118
-3.44043e-07
-0.00456057
4.01641e-07
7.24516e-06
2.12686e-07
-1.62171e-07
7.45368e-07
-1.37775e-06
-0.000270758
-0.00379567
0.000145595
-3.01472e-05
1.66582e-08
-2.11293e-06
4.209e-07
-0.00500925
1.48951e-07
1.93097e-07
1.19102e-07
-6.60294e-07
4.00374e-07
-0.000130363
-5.77563e-07
0.00989311
-0.00385445
8.04367e-07
3.29363e-07
-0.000720083
-1.27429e-06
1.21494e-07
1.32296e-07
1.82179e-07
0.00619157
9.80915e-08
-0.000499091
3.38056e-07
2.40012e-07
-0.00195856
1.91691e-07
1.24021e-07
1.18276e-07
-0.00181719
3.61879e-07
2.86873e-07
3.12288e-07
2.76194e-07
3.37055e-07
3.72742e-07
3.24295e-06
-5.67772e-08
-3.56459e-07
0.000337493
-0.00134403
0.000579682
-0.00200218
1.5446e-07
2.18446e-07
2.26407e-07
2.69053e-07
1.42848e-07
0.0171055
-0.000954412
9.67706e-08
4.65203e-08
0.00655427
0.00595611
1.33628e-07
3.06873e-07
2.74555e-08
0.000923699
0.0133115
3.85117e-07
5.35944e-07
5.10447e-08
-0.0198491
2.78694e-07
-3.36515e-07
-5.15307e-07
7.01648e-08
4.6586e-08
3.17498e-07
-0.000760847
9.07515e-08
3.90544e-07
3.86069e-07
0.00730171
2.35971e-07
-0.000556005
1.19395e-07
-0.00170288
3.41401e-07
1.30194e-06
1.67126e-07
2.2374e-07
-6.81e-06
-0.00280778
-1.95913e-07
0.00277709
0.000297804
2.27702e-07
-0.0034098
3.34055e-07
9.34181e-08
0.00441135
0.0146539
-3.497e-06
-1.13866e-08
0.00334
-0.00101081
2.9886e-07
2.65413e-07
0.000800362
5.97434e-07
3.06013e-07
2.95364e-07
3.95909e-07
2.72108e-07
-3.56803e-07
0.00213406
-2.83878e-07
-2.56888e-07
6.38575e-08
2.89935e-07
0.0111136
3.38509e-07
1.38476e-07
-9.24806e-08
1.4679e-07
-2.41582e-07
1.42936e-07
2.94129e-07
-0.00110015
1.84825e-07
-0.00236065
1.25104e-07
-0.00244181
0.00287899
-1.14264e-06
3.33462e-07
-2.19213e-08
-0.00407163
8.55378e-08
3.86841e-07
8.26826e-08
-3.53578e-06
-0.00558008
4.74222e-08
0.000816075
5.48325e-07
0.00533278
3.54669e-08
-1.24311e-06
2.45438e-07
8.2431e-08
-0.000247536
-0.000936657
-0.00204501
4.20943e-07
-1.12819e-06
-1.01873e-06
-0.000535883
-0.00367419
-0.000359096
3.90569e-07
1.00779e-08
-0.00354543
3.619e-07
3.66646e-07
0.000162888
-2.87567e-06
2.08477e-07
-2.90554e-07
3.61362e-07
9.28186e-08
3.31381e-07
-0.00489109
3.49847e-07
1.9311e-07
-0.000357296
5.08008e-07
1.95456e-07
0.00365949
1.53856e-07
1.10788e-07
-4.04929e-05
-4.79387e-07
0.000661249
2.24738e-07
1.42141e-07
2.90887e-07
-9.5399e-06
3.46258e-07
-1.37041e-06
0.00535721
0.00272271
0.00399357
-0.00132195
6.73076e-07
-0.00296806
4.49735e-06
5.21492e-08
2.23582e-07
7.47572e-08
-5.13788e-08
-1.56884e-06
-0.00295408
-0.00186673
0.00589098
-7.31563e-07
2.62927e-07
-2.12594e-06
1.59655e-07
-0.00024994
2.40043e-07
2.58489e-07
3.65965e-07
4.22035e-07
3.37613e-07
-1.06405e-06
-0.00202815
1.37593e-07
4.35778e-07
1.7809e-07
-0.00285156
4.09684e-07
-0.00420207
0.0146241
-0.000307466
5.07949e-08
3.49416e-07
-0.00206314
-6.81343e-07
5.70168e-08
-5.70169e-08
2.54354e-08
-4.53559e-07
1.54437e-07
-1.36174e-06
-5.57555e-07
-0.00253158
2.95158e-07
2.3933e-07
-0.000145362
0.004919
3.61032e-07
3.92042e-07
3.07439e-07
0.00204938
1.46466e-07
1.82668e-07
4.19195e-07
2.27045e-07
-5.19769e-05
-0.00248996
0.00822964
-2.26819e-07
-0.00403935
-0.00258289
9.73379e-08
1.32965e-07
1.59893e-07
-7.01045e-06
3.07685e-07
2.21668e-07
1.76011e-07
2.30961e-07
2.66056e-07
-0.000710259
2.3018e-07
4.15036e-07
1.14391e-07
-4.76521e-07
1.0323e-07
-4.38152e-06
1.5431e-07
2.0104e-07
-1.46348e-07
8.68946e-07
-0.00188359
2.31923e-07
-0.000117566
2.61838e-07
5.24951e-07
-5.23345e-08
2.40962e-07
0.00326579
-0.000271078
3.17812e-07
3.53737e-07
0.00574472
0.00444825
1.41567e-07
-0.00194571
2.76502e-07
0.0149635
8.38525e-08
1.26608e-07
-0.000896946
1.7178e-07
0.0108878
9.42432e-08
4.39789e-07
1.14002e-07
-0.00240196
0.00220088
1.17057e-07
-5.70714e-07
0.000285344
1.54902e-07
3.41619e-07
1.72539e-07
-2.98555e-07
-0.00335556
1.4136e-07
1.94396e-07
2.7786e-07
1.62665e-07
2.00292e-07
3.88754e-07
1.75401e-07
0.000227006
1.52554e-07
-7.0613e-07
-0.000113489
3.47335e-07
1.27039e-08
0.0161404
-1.44441e-06
1.57961e-07
-2.56335e-07
2.38589e-07
0.00955261
-2.95912e-09
-0.000342779
-2.51597e-08
3.51601e-07
2.47342e-07
-2.82984e-07
3.73966e-07
-0.00424174
-6.53792e-07
7.40065e-08
0.00828627
3.56355e-07
-4.48891e-07
-3.01741e-07
-2.38876e-07
2.20889e-07
2.87714e-07
6.016e-08
-9.8931e-07
-5.1193e-07
-5.5248e-07
-0.00408485
-0.000703346
0.0153764
6.00326e-09
4.35794e-06
0.0048145
-0.00367203
1.79528e-07
3.52097e-07
-6.3795e-07
0.00951991
2.53963e-07
-1.19834e-07
-0.000273169
-0.00245345
0.000801894
2.03416e-06
5.5108e-05
0.00577499
-0.00638177
6.83039e-08
0.00113485
0.00116776
4.09233e-07
2.73185e-07
3.895e-07
-0.00237392
3.08864e-07
0.000431835
4.06766e-07
-0.00387712
4.13809e-07
-0.000197074
0.00127863
2.72185e-07
3.86858e-08
-0.00328146
0.0100188
5.96031e-08
4.32431e-07
2.67747e-07
7.50511e-08
3.28135e-07
-9.67174e-07
-0.00646479
-0.00359775
2.6772e-07
-0.000194802
-9.34473e-07
-5.03132e-05
1.58025e-07
9.43791e-08
-2.35607e-05
7.08383e-07
2.91805e-07
1.89846e-07
2.73798e-08
2.85522e-08
0.016861
0.00512919
-0.00323278
-0.00380708
2.55793e-07
1.6876e-07
3.57113e-07
0.000662062
-0.00181008