/*--------------------------------*- C++ -*----------------------------------*\
| =========                 |                                                 |
| \\      /  F ield         | OpenFOAM: The Open Source CFD Toolbox           |
|  \\    /   O peration     | Version:  v2012                                 |
|   \\  /    A nd           | Website:  www.openfoam.com                      |
|    \\/     M anipulation  |                                                 |
\*---------------------------------------------------------------------------*/
FoamFile
{
    version     2.0;
    format      ascii;
    class       volScalarField;
    location    "1000";
    object      k;
}
// * * * * * * * * * * * * * * * * * * * * * * * * * * * * * * * * * * * * * //

dimensions      [0 2 -2 0 0 0 0];


internalField   nonuniform List<scalar> 
13851
(
0.000149294
0.0224159
0.000173671
0.000148898
0.000172516
0.000307866
0.000144746
0.000163214
0.000142014
0.000178094
0.00564633
0.0320827
0.000171042
0.0296826
0.000143898
0.000157848
0.000150591
0.000154535
0.000176415
0.000141703
0.000148556
0.000172972
0.0001778
0.000177361
0.000185239
0.000163707
0.000149974
0.00190483
0.000148929
0.000149628
0.00128326
0.000150964
0.000172901
0.0106273
0.000170467
0.000182806
0.000195305
0.000187888
0.000179762
0.0108611
0.000143532
0.000140479
0.00457606
0.00575808
0.00529311
0.015134
0.00477518
0.0137142
0.000150254
0.000704153
0.000170264
0.000180402
0.00673005
0.000145161
0.000154804
0.000140943
0.000158819
0.00925005
0.00014931
0.000144835
0.00018914
0.0126845
0.000167849
0.00017512
0.000398946
0.000151833
0.000207372
0.0046448
0.000156871
0.00015435
0.00925665
0.000175515
0.0233334
0.000145878
0.000141693
0.000145252
0.000172297
0.00944192
0.000162731
0.0103359
0.000145649
0.0013272
0.000143344
0.0116598
0.000169319
0.0300665
0.000185817
0.0197029
0.000151178
0.000151227
0.000182814
0.000158829
0.00451524
0.000153206
0.000150972
0.00018828
0.000172982
0.0143972
0.00132304
0.000192186
0.0198683
0.000163663
0.000146599
0.000149787
0.000154194
0.000217952
0.000165466
0.000137808
4.96519e-05
0.000460052
0.000192466
0.000151504
0.000157457
0.000208991
0.000186939
0.010562
0.0142077
0.000136384
0.000171446
0.000161953
0.00444161
0.00014964
0.000633746
0.0107944
0.0137464
0.000157087
0.0141548
0.00016321
0.000148286
0.000181444
0.000143408
0.000140101
0.0105586
0.000143357
0.00954768
0.000141592
0.000136378
0.000183153
0.0309223
0.0414216
0.0187285
0.000153627
0.000153169
0.000148321
0.000148394
0.00579874
0.000161762
0.00018177
0.000144669
0.00511068
0.000170176
0.000156361
0.0291416
0.000158107
0.000148069
0.000148261
0.000142878
0.000148069
0.00018041
0.000169943
0.000145347
0.000153118
0.00881462
0.000139981
0.000153795
0.000144749
0.000163212
0.000157122
0.000148027
0.0105717
0.00871875
0.000138352
0.000142938
0.0400173
0.000139842
0.0134875
0.000162671
0.000152316
0.000170495
0.000139415
0.000151732
0.000177344
0.000143364
0.000174144
0.000139557
0.000182565
0.000151935
0.000148084
0.000174991
0.000179892
0.00480387
0.00763445
0.000153273
0.000157044
0.0125386
0.000147787
0.000152255
0.011095
0.00015198
0.00014539
0.000157044
0.0241177
0.000194347
0.000142814
0.000174438
0.000143419
0.0419596
0.000150788
0.0155737
0.000142014
0.0101887
0.000146381
0.00980748
0.000138148
0.000147249
0.0024219
0.00016917
0.0142029
0.000143391
0.0159994
0.000150963
0.00014583
0.011467
0.000180356
0.0151248
0.00018851
0.000154629
0.000156499
0.00959833
0.000138595
0.000163136
0.00167314
0.000138121
0.000152837
0.00016797
0.000165552
0.0384134
0.000520991
0.000148289
0.000142877
0.000900328
0.00747783
0.00015082
0.000176044
0.000152087
0.0173504
0.000164173
0.00898405
0.000148377
0.000151559
0.000158392
0.00794153
0.000145672
0.000148504
0.000163795
0.00250794
0.00017866
0.000184636
0.00471108
0.000143878
0.000147297
0.000153339
0.0154666
0.000151225
0.000185506
0.000147751
0.000145564
0.000152813
0.00927727
0.000244742
0.000158685
0.000148045
0.0106445
0.000161858
0.000157348
0.000140211
0.0017541
0.000237341
0.0134684
0.0049578
0.00015075
0.000140865
0.000152273
0.000162996
0.0148277
0.0129908
0.000143508
0.00014397
0.0109109
0.0008346
0.000183424
0.000148872
0.00014486
0.000158158
0.000893786
0.00023069
0.000153105
0.0298496
0.000140447
0.0166628
0.000152842
0.000150439
0.0125529
0.000144769
0.000245367
0.0148706
0.000143133
0.000160648
0.000153326
0.000148558
0.0331978
0.000153331
0.000145463
0.0131042
0.000141667
0.00015183
0.000157617
0.010124
0.000177727
0.000143388
0.000164069
0.000143588
0.00727429
0.000159522
0.000177957
0.000144959
0.000177324
0.000154171
0.000147958
0.000143989
0.00014467
0.000145329
0.00579255
0.0284284
0.0110928
0.000157179
0.00962685
0.0100329
0.00014362
0.000157456
0.000183693
0.000164999
0.000172835
0.000178083
0.000170147
0.000152435
0.0119902
0.0155044
0.000144054
0.000229096
0.000230828
0.000245454
0.000147954
0.000177177
0.00991853
0.000143188
0.0116779
0.000144967
0.000143658
0.000149391
0.000138187
0.000142203
0.0139942
0.00808967
0.000143377
0.000160085
0.000143722
0.0302788
0.000161869
0.0130506
0.0106644
0.000143445
0.000171506
0.000153433
0.0129468
0.000143054
0.000136445
0.000155953
0.0199326
0.000144782
0.0361457
0.000162733
0.000179207
0.0124969
0.00194832
0.00183915
0.000158008
0.000140392
0.00014835
0.000156011
0.000163792
0.0318547
0.000157074
0.0127482
0.0148769
0.000143827
0.00014392
0.01109
0.0110546
0.000929086
0.0140025
0.000156899
0.000153922
0.000197147
0.0070665
0.000140251
0.000157375
0.00015703
0.000144395
0.000154244
0.000142933
0.000144702
0.000174432
0.000170136
0.00870367
0.000154926
0.000165035
0.000162059
0.00719185
0.000152526
0.000396834
0.000150128
0.0020028
0.00013633
0.000142588
0.000193529
0.000175902
0.0103441
0.000180166
0.000161125
0.00732182
0.0110668
0.000174672
0.000164107
0.000168331
0.000142923
0.00726205
0.000158445
0.00444582
0.0100001
0.000171933
0.0141994
0.000152883
0.000222462
0.00998148
0.0223695
0.000137652
0.000154909
0.000163185
0.000285475
0.000139225
0.000145385
0.000169159
0.000179351
0.000158581
0.035964
0.000188376
0.000145311
0.00736144
0.000154628
0.000140176
0.0254673
0.000140319
0.000149294
0.000140012
0.00016364
0.000147444
0.000141167
0.000152686
0.0119677
0.0001434
0.00015812
0.000140692
0.000158668
0.000543937
0.000210403
0.000143759
0.000210955
0.000213887
0.0134973
0.000145489
0.000198515
0.000143367
0.000185054
0.0221504
0.0135067
0.000143549
0.000159603
0.000152693
0.00858473
0.0123864
0.000145288
0.00801523
0.000143161
0.000172883
0.000144539
0.0111252
0.000139121
0.00643935
0.0001791
0.000140648
0.000159313
0.0124743
0.000163828
0.00456152
0.000164667
0.0118391
0.0001584
0.000139507
0.000140444
0.000144482
0.0135161
0.000168291
0.000179567
0.000195964
0.000168408
0.000146123
0.00631896
0.0100832
0.000151897
0.000153283
0.00719391
0.0112702
0.00715502
0.000150747
0.0115869
0.0146674
0.0221306
0.000154096
0.000160212
0.0117671
0.0002408
0.00172081
0.0103187
0.0102872
0.000148344
0.011193
5.78496e-05
0.000136935
0.000216897
0.000168729
0.0111437
0.00014862
0.000142708
0.00014265
0.000142975
0.000174455
0.000163169
0.0170528
0.0341639
0.000140817
0.0065156
0.0135477
0.00118925
0.00991143
0.000157816
0.000138728
0.000142387
0.000182276
0.00808299
0.000148231
0.000173191
0.000182681
0.000140804
0.000166184
0.0125342
0.000174835
0.00017805
0.013975
5.44245e-05
0.000143292
0.000144462
0.0256853
0.0152012
0.000178815
0.000156924
0.000170155
0.000139056
0.000142098
0.00577017
0.000139867
0.000148491
0.000139262
0.000140193
6.95802e-05
0.000174332
0.000158517
0.00013977
0.0384426
0.0110791
0.00014057
0.00015389
0.000151311
0.000147799
0.018681
0.00944712
0.00928748
0.0216264
0.0112215
0.000156069
0.00928801
0.0142278
0.000152916
0.00015717
0.000138704
0.000157973
0.000158496
0.00944292
0.0125853
0.000172898
0.000154213
0.000141126
0.000157804
0.000152821
0.00525263
0.000170469
0.000143326
0.000157751
0.000139108
0.000152584
0.000180553
0.000144712
0.000142816
0.000161851
0.000144507
0.00017296
0.000175646
0.000179615
0.000158289
0.000179395
0.000140838
0.000270344
0.000158806
0.0197892
0.000146197
0.000185764
5.44291e-05
0.000148911
0.0138513
0.0165433
0.0128486
0.0262233
0.00013999
0.000172741
0.000151882
0.000140257
0.000139138
0.000140307
0.000157251
0.000155643
0.000162366
0.000138986
0.0113257
0.000180231
0.0120109
0.000142343
0.000141703
0.000162632
0.000183189
0.0128953
0.000164043
0.000152809
0.00015222
0.000187195
0.000151686
0.000143518
0.000189337
0.0366462
0.000144403
0.000138888
0.000144546
0.000143411
0.00070299
0.00803401
0.000158112
0.0139198
0.0118756
0.000142702
0.00017939
0.0219474
0.000157838
0.0322128
0.000145577
0.000153562
0.000163705
0.000153917
0.0102852
0.000143493
0.0118028
0.00015849
0.000154884
0.0155348
0.000146705
0.000148004
0.000168289
0.000139687
0.000151263
0.0148181
0.0377889
0.000169969
0.000186227
0.0036922
0.000138352
0.000142102
0.0213118
0.000182306
0.000167397
0.0158236
0.000142671
0.000160397
0.000136993
0.0113184
0.000202012
0.000151469
0.000146009
0.00064855
0.000150109
0.000161596
0.00653699
0.00391361
0.0151776
0.00014147
0.00014437
0.00938818
0.00508691
0.000181211
0.000152041
0.0002552
0.00014342
0.00126632
0.000182788
0.000173065
0.000150709
0.0128671
0.00015912
0.000153969
0.000194508
0.000183077
0.000191395
0.000147705
0.000140647
0.00730402
0.000156666
0.000178339
0.000157672
0.000298513
0.000141347
0.0157952
0.000167962
0.00015921
0.000142866
0.000142499
0.000145138
0.0151574
0.000142397
0.000137671
0.00776078
0.000144552
0.0113707
0.000166223
0.000152729
0.000169295
0.00155192
0.00899394
0.000142498
0.00430651
0.0139162
0.000145596
0.0102443
0.000154704
0.000140236
0.000188036
0.00524814
0.00281743
0.000151747
0.000141973
0.000137995
0.010001
0.000175351
0.000172218
0.000152624
0.000184792
0.000148693
0.000152483
0.000172837
0.010444
0.000174557
0.0129376
0.000144283
0.000173166
0.000172571
0.00812253
0.000151302
0.0373767
0.000195979
0.000144625
0.0172232
0.000218075
0.01286
0.0379256
0.0148188
0.00901667
0.000161804
0.000140398
0.000155519
0.00994136
0.0131034
0.000145014
0.000190442
0.000168642
0.000376747
0.000140027
0.00648637
0.000142195
0.00014343
0.00771289
0.00927945
0.00429772
0.000140235
0.000143747
0.0058805
0.000188659
0.000177739
0.000150744
0.0120819
0.000180888
0.012618
0.000165126
0.000159773
0.000145479
0.000144507
0.0242419
0.000162728
0.0106968
0.000158515
0.000156806
0.00784519
0.012864
0.0122904
0.000143805
0.000155196
0.000140471
0.00015863
0.000147883
0.0338486
0.000161973
0.0181982
0.000139498
0.00016888
0.000142315
0.000185813
0.000156447
0.000154958
0.0140836
0.000160657
0.000165135
0.000183452
0.000168962
0.0129989
0.000173454
0.000148605
0.00886539
0.000150604
0.0396347
0.00892337
0.000144574
0.0121045
0.0203875
0.0121263
0.00860509
0.00015855
0.000144532
0.014646
0.000162713
0.0126046
0.0158031
0.000142196
0.00014797
0.000176746
0.0107659
0.0339776
0.000144219
0.000145632
0.0278278
0.0155224
0.0001784
0.000151252
0.000149735
0.00891279
0.0100652
0.000173234
0.000137725
0.00016202
0.000139703
0.000177183
0.000525059
0.000199441
0.00492516
0.00684074
0.000143475
0.000153394
0.000144714
0.000147795
0.00932188
0.0118976
0.000154607
0.0383403
0.00014228
0.000154672
0.000144378
0.00013981
0.000144385
0.000143404
0.0121685
0.000143551
0.000163778
0.000143813
0.000151925
0.000562928
0.00481939
0.000166647
0.0261171
0.000173585
0.000201046
0.000157016
0.000157034
0.0096427
0.000152587
0.000164013
0.033416
0.0145444
0.00721096
0.000160577
0.00545127
0.00014593
0.000159986
0.000164062
0.034489
0.000150081
0.0363676
0.000141983
0.000142446
0.0320394
0.000155531
0.000147521
0.000151021
0.000140557
0.000165281
0.00014056
0.000143781
0.000153917
0.000145384
0.000188762
0.000142303
0.000188451
0.00963637
0.000172073
0.0358285
0.000144421
0.000176583
0.000157915
0.000143064
0.000140317
0.000171599
0.000145943
0.000143778
0.000146101
0.000187429
0.0113067
0.0383703
0.000170628
0.0143484
0.000189817
0.000142081
0.0148305
0.00015405
0.000142097
0.00719847
0.000358456
0.0134524
0.000142121
0.00504619
0.0107122
0.0116571
0.000137995
0.000353304
0.000156064
0.000149769
0.000154664
0.00014239
0.0205755
0.000184561
0.0132032
0.000146219
0.000143141
0.0131017
0.000144646
0.0011263
0.00930222
0.023938
0.000176555
0.00749648
0.000187394
0.000143246
0.000172017
0.000158986
0.000149757
0.000184712
0.00016132
0.000146101
0.000149596
0.0435992
0.00014412
0.0107116
0.000169038
0.012422
0.00018684
0.000149698
0.000148318
0.000145671
0.00643114
0.0103888
0.000138033
0.000209802
0.000146111
0.000171462
0.000141561
0.000145663
0.000145958
0.000156578
0.000201332
0.000164744
0.00015753
0.000145829
0.000163574
0.00121735
0.000147066
0.0189248
0.00292197
0.000171729
0.000144541
0.000161085
0.000142682
0.000179482
0.00014544
0.00947581
0.000177813
0.0105692
0.000149841
0.00104961
0.000142962
0.000156449
0.000144905
0.0148566
0.0140635
0.000144769
0.000156349
0.000171916
0.0140098
0.000212453
0.0251639
0.000157229
0.0412075
0.000174535
0.00591449
0.000173123
0.000171693
0.000175208
0.014195
0.00630074
0.0261816
0.000159316
0.000187334
0.000141375
0.000148736
0.000152005
0.000144506
0.0142916
0.000154973
0.000153172
0.00918911
0.000184153
0.0136885
0.000143484
0.000149289
0.00015198
0.00014919
0.000156491
0.0256248
0.00978665
0.0205406
0.000141101
0.000152672
0.000151296
0.0119518
0.0126341
0.00017181
0.000148321
0.000145687
0.0119695
0.000163276
0.0106478
0.0110312
0.000300952
0.000144397
0.000129253
0.000156042
0.000161513
0.000153899
0.0106847
0.00640288
0.000180384
0.000238936
0.000146755
0.000157166
0.000143468
0.00698318
0.000168082
0.0136559
0.000674539
0.000151884
0.000180928
0.00014764
0.00945173
0.000189745
0.000162022
0.000314393
0.0159691
0.000488141
4.36285e-05
0.000146212
0.000143349
0.00946133
0.0014954
0.0106345
0.000154639
0.000144508
0.000143455
0.0114877
0.000180513
0.000145299
0.000641791
0.000176188
0.0280818
0.000139097
0.0128512
0.000143801
0.000236307
0.000150501
0.000143692
0.000180859
0.0132818
0.00014477
0.000142113
0.00411157
0.00892716
0.000156676
0.000141015
0.0382188
0.000160143
0.000184594
0.000141096
0.0124919
0.000143346
0.000164085
0.0212963
0.0117355
0.000147341
0.00572083
0.00768045
0.0114286
0.000141385
0.0415753
0.000198923
0.00014235
0.0016877
0.000210845
0.00014358
0.00014918
0.0135142
0.000142612
0.000192405
0.000142229
0.000154058
0.00907835
0.000171363
0.00302454
0.000147813
0.000159131
0.000140308
0.000156177
0.000194534
0.0217989
0.000141188
0.000168872
0.00682815
0.000144797
0.00014285
0.0152534
0.00015727
0.000159148
0.000179547
0.0434324
0.013271
0.000198633
5.92854e-05
0.000233331
0.00325134
0.0102872
0.0224169
0.000168981
0.000145312
0.000178827
0.000142295
0.000142589
0.0415501
0.0154328
0.000148219
0.0334573
0.000246589
0.0106546
0.000846271
0.000299635
0.000142865
0.000335538
0.000365444
0.000154146
0.000147563
0.0134774
0.0151495
0.0251542
0.00642284
0.00016178
0.0189062
0.0129654
0.000155879
0.000147015
0.000142572
0.00109867
0.00014167
0.000189456
0.00015239
0.000146316
0.000148524
0.00156637
0.00748647
0.0153801
0.000146161
0.000114643
0.000150835
0.000155518
0.000141431
0.000162195
0.00899857
0.00015297
0.0144994
0.0249342
0.000464503
0.000177198
0.000144251
0.000162404
0.000144563
0.000180152
0.000151668
0.000147689
0.000145914
0.000155042
0.000181877
0.000146517
0.000158437
0.000154714
0.000158906
0.000186823
0.00963638
0.000143009
0.000162931
0.000158725
0.000172157
0.000162674
0.00977525
0.000190725
0.000155612
0.000149507
0.000150967
0.00204731
0.000143124
0.000359821
0.000143874
0.000146381
0.000152035
0.0142803
0.000152743
0.000151113
0.000156298
0.000177556
0.00016734
0.0141971
0.000150736
0.000157926
0.000143506
0.000247745
0.000145626
0.000145823
0.000185978
0.0181071
0.000166824
0.000156378
0.00018797
9.81652e-05
0.000145494
0.000146229
0.0177472
0.000147444
0.000437672
0.000190421
0.00460329
0.000143446
0.000164499
0.0001428
0.015629
0.000178806
0.000161433
0.000177796
0.0161256
0.000147335
0.0034403
0.0136111
0.000145219
0.00175391
0.000171871
0.000151266
0.00951622
0.000144244
0.000145095
0.000141303
0.000183823
0.00104692
0.000182044
0.000147699
0.000147256
0.000154716
0.0080113
0.000192899
0.00705072
0.00659397
0.000146261
0.000179011
0.000181748
0.00830104
0.000173949
0.00046446
0.000141749
0.000155986
0.000142563
0.00477237
0.000160941
0.000142765
0.0419884
0.000188781
0.000156768
0.00015783
0.000142307
0.000177341
0.000168035
0.000158104
0.0116487
0.000169147
0.00017113
0.00017141
0.000179599
0.0236647
0.000171305
0.00820078
0.000143217
0.000143247
0.000187348
0.017634
0.00758839
0.000496337
0.000172799
0.00845008
0.00674973
0.000146806
0.000152184
0.000140362
0.000160169
0.000169562
0.000179721
0.00749509
0.000192211
0.000147675
0.0125723
0.00841236
0.000143784
0.000183642
0.0294705
0.00774542
0.000149554
0.000170296
0.000138542
0.000157877
0.000153584
0.00015107
0.0112382
0.0126169
0.00768744
0.0135297
0.000147824
0.000158842
0.000168896
0.000166987
0.000149046
0.000142155
0.00803738
0.000141527
0.00604122
0.000160599
0.000165836
0.000183573
0.000188145
0.0100843
9.77856e-05
0.000159866
0.00014439
0.000157509
0.000112144
0.000168765
0.000150681
0.00014018
0.000140804
0.000169662
0.000155591
0.000180666
0.0200387
0.000147846
0.000141747
0.000177706
0.000219906
0.00922626
0.0168206
0.000141096
0.000170603
0.000144967
0.0144087
0.000146885
0.0186121
0.000155195
0.000147689
0.000157057
0.000147573
0.00016916
0.00015492
0.000162521
0.0108222
0.0150828
0.000151124
0.00015509
0.000142779
0.000105537
0.0121841
0.000155316
0.000146517
0.00704887
0.000136311
0.0141264
0.000162105
0.000159264
0.000172136
0.00796353
0.000161974
0.000148535
0.00014466
0.000169255
0.012257
0.000142363
0.00335208
0.0310492
0.016585
0.000219505
0.000158543
0.0110754
0.000151436
0.000187345
0.000142966
0.0063983
0.00658887
0.00858612
0.0108343
0.0325568
0.000155803
0.000395784
0.000142246
0.00813039
0.00716868
0.0143975
0.0101864
0.000152821
0.0191605
0.00903184
0.000159489
0.000147594
0.00014465
0.014788
0.000151455
0.000169022
0.000209564
0.000145018
0.000139734
0.000144255
0.013911
0.000188089
0.000156292
0.0125917
0.000183719
0.000155333
0.000143141
0.000143416
0.000157082
0.0187176
0.000189087
0.000151358
0.000178941
0.00933519
0.000173952
0.00016165
0.00551468
0.000155658
0.0108053
0.000154844
0.000155537
0.000143016
0.000210629
0.000170115
0.0105635
0.0058794
0.0161023
0.00017177
0.0345548
0.000156393
0.000150195
0.00018413
0.00855804
0.0184311
0.0113511
0.000468353
0.000149178
0.00014354
0.000142786
0.000143854
0.000142339
0.00636004
0.000154746
0.00710271
0.000157402
0.0126054
0.00512223
0.0164973
0.000162365
0.00015184
0.0107244
0.000162064
0.0181877
0.0161574
0.00013942
0.00114404
0.000152942
0.0201673
0.00639316
0.000159185
0.000827065
0.00929935
0.000173264
0.00016995
0.000161025
0.0170632
0.00718039
0.000149676
0.000144623
0.00617194
0.000245063
0.000180511
0.0100357
0.000178982
0.000157592
0.000146357
0.013265
0.0178088
0.000175002
0.000155291
0.0139082
0.0305688
0.000142366
0.000143689
0.000149971
0.0129712
0.0126427
0.000143334
0.0113389
0.000146378
0.00014277
0.000144638
0.015786
0.000203406
0.000296007
0.00724854
0.000147855
0.000147599
0.000141627
0.00804992
0.000151334
0.032459
0.000149956
0.0225086
0.000145602
0.000142312
0.000180235
0.0060226
0.00709654
0.000159483
0.00868853
0.000149456
0.000144068
0.000143741
0.000162439
0.000168666
0.000168517
0.000161234
0.00421988
0.000150222
0.000180886
0.000428845
0.0202385
0.000146557
0.0138538
0.0164561
0.000151091
0.0117663
0.000167975
0.0168889
0.000144478
0.00017372
0.000146533
0.0188149
0.00884844
0.000183863
0.0112674
0.000148837
0.000162471
0.000147046
0.0118382
0.000145607
0.000140273
0.0111415
0.000177553
0.0178824
0.000194056
0.000167418
0.000154135
0.000141126
0.0222875
0.00015661
0.000154134
0.000180803
0.000153336
0.000161019
0.000143507
0.0172544
0.000155565
0.00530499
0.0046239
0.000157235
0.000539094
0.00016865
0.0138885
0.000144011
0.0208244
0.0406359
0.000140352
0.0001434
0.000147782
0.000145713
0.000160447
0.000144364
0.00516351
0.000170806
0.0011637
0.000177807
0.000144779
0.000145631
0.000142892
6.85458e-05
0.000144154
0.000143307
0.000190663
0.000149847
0.0235191
0.00983554
0.000172796
0.000150399
0.000157851
0.000147466
0.000146334
0.000168708
0.000147458
0.000149979
0.00726113
0.0182083
0.000197764
0.000147357
0.008491
0.0059082
0.000145819
0.000537239
0.00771405
0.000143421
0.000149288
0.000143199
4.52792e-05
0.0151127
0.0139415
0.000147468
0.000149693
0.000150119
0.000144603
0.000180318
0.000144612
0.000618987
0.00577408
0.00763574
0.000139667
0.000149757
0.000149373
0.0178797
0.000142508
0.0137661
0.00859337
0.00287435
0.0135054
0.0114889
0.0126706
0.000149135
0.0131989
0.00747089
0.000147418
0.000140702
0.000141009
0.0109883
0.00741845
0.00970545
0.000177894
0.0113906
0.000144396
0.000184232
0.000147345
0.000148305
0.000147198
0.000139487
0.0166754
0.000147632
0.0353848
0.0304281
0.0131144
0.000164038
0.000163698
0.0143901
0.012318
0.000153005
0.00529383
0.000142583
0.000136959
0.000143083
0.000163576
0.000148988
0.010994
0.000156155
0.000903016
0.000161867
0.00801102
0.0121857
0.000188086
0.000139154
0.000169361
0.000174433
0.0158662
0.000146875
0.00014184
0.000156934
0.0460174
0.000146147
0.00213031
0.0100826
0.000160352
0.000168893
0.00014661
0.0101571
0.000145345
0.0188091
0.000137141
0.00606927
0.000155461
0.000144155
0.0105922
0.0117892
0.000138847
0.000167839
0.000150203
0.00889986
0.000246709
0.000212431
0.000680065
0.000145333
0.000169648
0.0136098
0.000152072
0.000162663
0.00015
0.000170892
0.000156237
0.00937304
0.0125717
0.000144207
0.013927
0.000147215
0.000161725
0.0117085
0.00975632
0.000160508
0.0141252
0.00017625
0.000144689
0.00239599
0.000178653
0.000155346
0.00014746
0.0125861
0.000139429
0.0151707
0.000350476
0.00017991
0.000143427
0.000156818
0.0136578
0.000162016
0.0125059
0.00014641
0.000149403
0.000170701
0.0113786
0.000152014
0.0133547
0.0104353
0.0115462
0.000144799
0.0100244
0.00139007
0.0184176
0.000143676
0.000156468
0.000144673
0.0132649
0.00015937
0.0103332
0.00797032
0.00014543
0.00014765
0.000143507
0.0175732
0.000180601
0.020805
0.0126727
0.000141468
0.012469
0.00841188
0.000179385
0.00779794
0.0142417
0.00016007
0.014529
0.000149049
0.000151688
5.86755e-05
0.00207208
0.000159421
0.0309901
0.000145754
0.00014362
0.0345152
0.0127301
0.00250721
0.00825262
0.000156472
0.000145452
0.000160667
0.0046847
0.0111089
0.00014241
0.00016169
0.0118999
0.00014381
0.000144142
0.00486044
0.0269895
0.000148048
0.000143895
0.0001472
0.000147298
0.0117158
0.000145624
0.000146951
0.00015153
0.000199294
0.029714
0.00175293
0.0126033
0.000144255
0.00015039
0.0153555
0.00986458
0.000154266
0.000440793
0.000143309
0.000158325
0.000148496
0.000160494
0.000171557
0.000146215
0.0141627
0.000158158
0.000144556
0.000149953
0.00243299
0.0392989
0.0120276
0.000143868
0.000174336
0.00918319
0.0108487
0.000149911
0.000146525
0.000144168
0.00355564
0.000144223
0.000158979
0.000153626
0.000143333
0.0155972
0.000568797
0.000145239
0.000149827
0.000146404
0.00014452
0.0300525
0.00987431
0.000169903
0.00853151
0.000168476
0.00014572
0.000143197
0.000144123
0.0001444
0.000145168
0.000171689
0.000176083
0.0125722
0.000149134
0.000178025
0.012108
0.00045569
0.00014306
0.000140371
0.000149263
0.0189589
0.000144064
0.000386862
0.000193615
0.000165197
0.000153264
0.00855127
0.000148703
0.000745783
0.000140128
0.000148913
0.000146244
0.000146197
0.000163433
0.00110376
0.000359649
0.000160156
0.00605094
0.000881778
0.0070216
0.000155937
0.0129361
0.00848632
0.000178266
0.0128859
0.00503547
0.00017726
0.00969429
0.000145661
0.000149555
0.0289614
0.000142182
0.000149984
0.0421139
0.000288003
0.0293388
0.000191755
0.000142226
0.00016159
0.000144027
0.000462663
0.000147273
0.000526852
0.0199157
0.00925877
0.0149525
0.000144029
0.000140895
0.00017008
0.0355735
0.0158095
0.000180604
0.000202094
0.00014108
0.000203163
0.0152397
0.000717069
0.000149246
0.000144156
0.000148974
0.00014849
0.000144522
0.000144221
0.000149688
0.0151539
0.000171454
0.0141836
0.00253988
0.000264376
0.000182854
0.000142932
0.00015352
0.000151949
0.000141991
0.000145515
0.0105749
0.00919257
0.0121231
0.0122402
0.000149276
0.0132624
0.00018272
0.0127276
0.0164894
0.000144329
0.000145564
0.00464073
0.000144056
0.000139248
0.0110673
0.0156995
0.000196878
0.000143579
0.000144141
0.000155313
0.000160295
0.00345659
0.000142741
0.000150051
0.000198892
0.000147971
0.00996671
0.000160075
0.0416465
0.000145416
0.000191573
0.0356726
0.00015983
0.00443541
0.000177592
0.0147457
0.000147754
0.000150892
0.000141986
0.00015539
0.0177575
0.000182643
0.00786342
0.000151378
0.00015034
0.000143963
0.014206
0.000161433
0.000177891
0.0121871
0.000141305
0.000164866
0.0102485
0.000169017
0.000150065
0.00014965
0.000144134
0.000167408
0.000146168
0.000145618
0.0154699
0.00630698
0.0143391
0.000268017
0.000184612
0.0126777
0.00016923
0.0116214
0.000181163
0.000146677
0.000167185
0.000136359
0.000144904
0.00495995
0.00614627
0.000149142
0.00680514
0.0179265
0.000154418
0.000149025
0.000166757
0.0124467
0.00467464
0.0153481
0.00449726
0.0158927
0.000136656
0.000190716
0.000177155
0.00274488
5.89595e-05
0.000143288
0.000178883
0.0112632
0.000157932
0.0340153
0.000145598
0.000696834
0.0120126
0.0180011
0.000170215
0.000156374
0.00926553
0.000178793
0.0184985
0.0170546
0.0154874
0.00017736
0.00657232
0.000144222
0.000152907
0.000162373
0.0119148
0.00533889
0.0146712
0.000166111
0.000180346
0.000175254
0.000180768
0.00517863
0.000143411
0.000179436
0.0113528
0.000143479
0.0377449
0.0144693
0.0184069
0.0106475
0.000192704
0.00666005
0.000144189
0.00522035
0.000151279
0.000148987
0.000160595
0.000149569
0.0167063
0.000149905
0.00017264
0.000149854
0.000145876
0.00759506
0.000147937
0.000177867
0.00188855
0.000139402
0.0148071
0.000176976
0.000149408
0.0101788
0.000190727
0.000143427
0.00240407
0.000146345
0.0176221
0.00419237
0.000149597
0.000177116
0.000148053
0.00563164
0.0160288
0.000170403
0.0172914
0.000152616
0.000144198
0.0419154
0.000150046
0.000144828
0.000195065
0.000159593
0.000140926
0.00014432
0.000181882
0.000147675
0.0112699
0.000190888
0.000247943
0.0160258
0.000163976
0.000169809
0.000144525
0.00593945
0.00959108
0.0194766
0.000143701
0.000147547
0.000171028
0.000156119
0.0112362
0.000144927
0.0113913
0.000145835
0.000213733
0.00015635
0.000283428
0.000184619
0.000177225
0.015025
0.022858
0.00842264
0.0154901
0.000137147
0.000200619
0.000201291
0.0112265
0.000150935
0.000188963
0.00935646
0.011374
0.000177244
0.000171164
0.0144008
0.00660191
0.000161248
0.000190581
0.000139375
0.000162546
0.000160283
0.000143211
0.000169181
0.0171151
0.00161234
0.0123205
0.000207563
0.000142348
0.00014187
0.000159332
0.000143245
0.0146034
0.000142963
0.000142556
0.00833798
0.000187488
0.00015905
0.000176914
0.00018225
0.000176489
0.00851713
0.0165281
0.00914181
0.000151597
0.0163452
0.000149328
0.00014102
0.000149045
0.0136175
0.000189257
0.000190296
0.0001878
0.000147131
0.000143565
0.000143241
0.000145743
0.000152488
0.0207606
0.000202902
0.0001544
0.00521756
0.0111163
0.00610262
0.0214107
0.000143747
0.000155022
0.000239712
0.000143694
0.000167736
0.000152746
0.000149807
0.0123647
0.0166181
0.000143267
0.000159302
0.000155134
0.000172307
0.0194478
0.0343837
0.00793428
0.000146341
0.000171648
0.0116607
0.00017162
0.000177124
0.00311369
0.0123441
0.00302039
0.0132438
0.000142014
0.0051332
0.000148372
0.000148611
0.000143285
0.000168784
0.00381611
0.00870416
0.0115234
0.0102903
0.000167535
0.000138468
0.000140286
0.000144143
0.000168139
0.000161391
0.00856117
0.0165782
0.000170698
0.0134902
0.000144997
0.000167627
0.000139793
0.0185204
0.000179737
0.000146038
0.000183186
0.000176726
0.0163899
0.0139415
0.00018206
0.00521351
0.000150555
0.0202979
0.000188889
5.28366e-05
0.00716995
0.000149069
0.000167696
0.00014399
0.00785034
0.00804069
0.000160777
0.0312483
0.000188887
0.0308026
0.000170981
0.000189134
0.000164801
0.000140803
0.000177705
0.000170752
0.000150049
0.000167814
0.000155951
0.000157281
0.0109061
0.000181876
0.000148249
0.000155877
0.000158655
0.000157596
0.000149496
0.0338899
0.000178868
0.00368591
0.00993179
0.000143554
0.0161643
0.000144066
0.000150305
0.000148749
0.0160442
0.00016121
0.018997
0.0243122
0.000169014
0.000164467
0.000177763
0.0375452
0.000179539
0.0183868
0.000185137
0.000161342
0.000148708
0.0174358
0.0125162
0.000188851
0.000184036
0.000160906
0.000151953
0.000150044
0.000162652
0.000159355
0.000144528
0.000159164
0.01912
0.0227963
0.000181527
0.000160464
0.000142275
0.0380918
0.00015632
0.000167608
0.00948633
0.000160522
0.0249579
0.000139874
0.000165258
0.000150346
0.000158767
0.000142709
0.016778
0.00104201
0.00191901
0.000161354
0.00537268
0.000187831
0.000151728
0.0361065
0.00016808
0.000187256
0.00938899
0.000166471
0.000149812
0.000159666
0.000170976
0.000152125
0.000199928
0.0141172
0.00764781
0.000140846
0.000188479
0.000245492
0.00902199
0.000142894
0.000161738
0.000146872
0.000156098
0.00727031
0.000155037
0.000154622
0.000141043
0.000140681
0.00183344
0.0134957
0.000144471
0.00827996
0.000186975
0.000138882
0.000162529
0.0174273
0.000179701
0.000176637
0.000143493
0.000153032
0.000181788
0.000186861
0.00014288
0.0295595
0.000154795
0.0167334
0.000172067
0.000152149
0.00276728
0.000180876
0.00018386
0.000141208
0.0119913
0.000154849
0.000152538
0.0308793
0.00016005
0.000144705
0.000176044
0.000150419
0.000153383
0.000144235
0.0218802
0.000143389
0.000176242
0.00106874
0.000177255
0.00014598
0.000170913
0.000155418
0.0202164
0.000183842
0.0139239
0.000179572
0.0176492
0.000139773
0.000171477
0.000151545
0.000142152
0.0113344
0.00749642
0.000151114
0.0028339
0.000161184
0.000170787
0.0140597
0.000152012
0.00348364
0.0162907
0.0303681
0.0414347
0.000211973
0.000170759
0.000142103
0.000177437
0.000160243
0.0126318
0.0250633
0.0183266
0.0320851
0.015012
0.000140468
0.0089877
0.000143694
0.000147525
0.000144352
0.0127224
0.000184477
0.000181245
0.000142332
0.0117237
0.000153194
0.0121587
0.00014936
0.000171525