/*--------------------------------*- C++ -*----------------------------------*\
| =========                 |                                                 |
| \\      /  F ield         | OpenFOAM: The Open Source CFD Toolbox           |
|  \\    /   O peration     | Version:  v2012                                 |
|   \\  /    A nd           | Website:  www.openfoam.com                      |
|    \\/     M anipulation  |                                                 |
\*---------------------------------------------------------------------------*/
FoamFile
{
    version     2.0;
    format      ascii;
    class       volScalarField;
    location    "1000";
    object      k_0;
}
// * * * * * * * * * * * * * * * * * * * * * * * * * * * * * * * * * * * * * //

dimensions      [0 2 -2 0 0 0 0];


internalField   nonuniform List<scalar> 
13851
(
0.000149299
0.0224155
0.000173675
0.000148903
0.000172517
0.000309305
0.000144747
0.000163217
0.000142017
0.000178112
0.00562831
0.0320374
0.00017211
0.0296749
0.000143898
0.00015785
0.000150592
0.000154533
0.000176359
0.000141706
0.00014856
0.000172974
0.000177766
0.000177366
0.0001852
0.000163711
0.000149975
0.00190279
0.000148933
0.00014963
0.00128923
0.000150965
0.000172904
0.0106285
0.000170472
0.000182804
0.000195337
0.000187868
0.000179783
0.0108624
0.000143535
0.00014048
0.00457489
0.00575357
0.00528765
0.015133
0.00477598
0.0137304
0.000150255
0.000703553
0.000170266
0.000180401
0.00672646
0.000145162
0.000154809
0.000140944
0.000158821
0.00924395
0.000149312
0.000144837
0.000189128
0.0126937
0.000167823
0.00017512
0.000401597
0.000151839
0.000207418
0.00465269
0.000156873
0.000154349
0.00925829
0.000175274
0.0233374
0.000145879
0.000141694
0.000145257
0.0001723
0.00944407
0.000162733
0.0103384
0.00014565
0.00132626
0.000143345
0.0116584
0.00016928
0.0300158
0.000186123
0.0197706
0.000151179
0.00015124
0.000182812
0.000158802
0.00452705
0.000153208
0.000150973
0.000188276
0.000172982
0.014402
0.00132137
0.000192179
0.0198567
0.000163665
0.000146602
0.000149788
0.000154157
0.000218174
0.000165468
0.000137809
4.94659e-05
0.000462465
0.000192466
0.000151518
0.000157443
0.000208997
0.000186942
0.010534
0.0142133
0.000136386
0.000171453
0.00016196
0.00444053
0.000149641
0.000636779
0.0107803
0.0137671
0.000157114
0.0141757
0.000163212
0.00014829
0.000181439
0.00014341
0.000140102
0.0105611
0.000143358
0.00951448
0.000141593
0.00013638
0.000182953
0.030907
0.0414301
0.0187177
0.000153632
0.000153172
0.000148323
0.000148395
0.00579629
0.000161752
0.000181764
0.00014467
0.005102
0.000170177
0.000156366
0.0291328
0.00015811
0.000148071
0.000148263
0.000142881
0.000148071
0.000180408
0.000169945
0.000145345
0.00015312
0.0088091
0.000139981
0.000153795
0.000144751
0.000163212
0.000157124
0.000148031
0.0105726
0.00872021
0.000138353
0.000142941
0.0400251
0.000139843
0.0135025
0.000162673
0.000152326
0.000170407
0.000139416
0.000151733
0.000177067
0.000143365
0.000174146
0.000139555
0.000182546
0.00015194
0.000148087
0.000174991
0.00017991
0.00480713
0.00763043
0.00015329
0.000157046
0.012547
0.000147789
0.000152257
0.0110979
0.000151989
0.000145395
0.000157072
0.0241146
0.000194358
0.000142816
0.000174451
0.00014342
0.0419717
0.00015079
0.0155791
0.000142013
0.0102017
0.000146384
0.00982948
0.000138148
0.00014725
0.00240177
0.000169128
0.0142007
0.000143392
0.0160053
0.000150964
0.000145832
0.011477
0.000180353
0.0151362
0.00018848
0.00015463
0.000156457
0.00959394
0.000138595
0.00016314
0.00167715
0.000138122
0.000152851
0.000167972
0.000165546
0.0384622
0.000525354
0.000148291
0.000142878
0.000904243
0.00744415
0.000150818
0.000176059
0.000152057
0.0173601
0.000164176
0.00900392
0.000148379
0.00015156
0.000158439
0.00791098
0.000145674
0.000148506
0.000163797
0.00250824
0.000178676
0.000184453
0.00471052
0.000143879
0.000147298
0.000153339
0.01547
0.000151234
0.00018593
0.000147753
0.000145566
0.000152815
0.00928798
0.000244179
0.000158726
0.000148047
0.0106718
0.00016186
0.000157351
0.000140212
0.00176282
0.000236893
0.0134821
0.00493251
0.000150747
0.000140865
0.000152239
0.000162998
0.0148301
0.0130007
0.000143513
0.00014397
0.0109324
0.00083443
0.000183418
0.000148874
0.000144861
0.00015816
0.000893192
0.000231179
0.000153105
0.0298127
0.000140448
0.0166734
0.000152844
0.000150441
0.0125669
0.000144772
0.000245614
0.0148808
0.000143137
0.00016065
0.000153327
0.000148561
0.033183
0.000153331
0.000145465
0.0131126
0.000141669
0.000151831
0.000157656
0.0101388
0.000177726
0.000143388
0.000164071
0.000143589
0.00727504
0.00015954
0.00017793
0.000144963
0.000177324
0.000154172
0.00014796
0.00014399
0.000144673
0.000145331
0.00578124
0.0284169
0.0110936
0.000157177
0.00964146
0.0100473
0.000143621
0.000157458
0.000183686
0.00016493
0.000172818
0.000178082
0.000170025
0.000152439
0.0120009
0.0155155
0.000144054
0.00022968
0.000231647
0.000246565
0.000147956
0.000177127
0.00991386
0.000143191
0.0116953
0.000144971
0.000143659
0.000149367
0.000138188
0.000142205
0.0140066
0.00809167
0.000143379
0.000160087
0.000143723
0.0302564
0.000161872
0.0130513
0.0106655
0.000143447
0.000171456
0.000153434
0.0129474
0.000143056
0.000136447
0.000155982
0.0199199
0.000144784
0.036131
0.000162676
0.000179206
0.0124941
0.00195394
0.00184857
0.000158028
0.000140393
0.000148352
0.00015601
0.000163795
0.031847
0.000157076
0.0127606
0.0148876
0.000143829
0.00014392
0.0110904
0.0110576
0.000931818
0.0140092
0.000156948
0.000153923
0.000197131
0.00708145
0.000140253
0.000157377
0.000157051
0.000144396
0.000154205
0.000142937
0.000144704
0.000174432
0.000170127
0.00870514
0.000154925
0.000165038
0.00016208
0.00715384
0.000152527
0.000399024
0.000150129
0.00198458
0.000136332
0.000142591
0.000193503
0.000175769
0.0103385
0.000180163
0.000161147
0.00732253
0.0110641
0.00017483
0.000164114
0.000168333
0.000142925
0.00723046
0.000158403
0.00445823
0.0100022
0.000171938
0.014204
0.000152889
0.000222005
0.00998351
0.0223573
0.000137653
0.000154911
0.000163187
0.000284399
0.000139227
0.000145387
0.000169161
0.00017935
0.000158575
0.0359393
0.000188347
0.000145315
0.00735928
0.000154627
0.000140176
0.0255173
0.00014032
0.000149299
0.000140014
0.00016364
0.000147447
0.000141167
0.000152691
0.0119765
0.000143401
0.000158122
0.000140693
0.000158654
0.000539705
0.00021041
0.000143762
0.000210962
0.000213892
0.0135095
0.000145491
0.000199161
0.000143368
0.000185042
0.0221411
0.0135108
0.00014355
0.000159585
0.000152694
0.00855021
0.0123846
0.000145292
0.00801776
0.000143163
0.000172884
0.00014454
0.0111209
0.000139122
0.00643604
0.000179115
0.000140649
0.000159293
0.0124775
0.000163832
0.0045522
0.000164672
0.0118389
0.000158406
0.000139508
0.000140445
0.000144483
0.01352
0.000168293
0.000179567
0.000195915
0.000168373
0.000146121
0.00632848
0.0100791
0.000151898
0.000153285
0.00716168
0.0112636
0.00716723
0.00015075
0.0115824
0.0146672
0.022131
0.000154096
0.000160189
0.0117573
0.000240213
0.001721
0.0103296
0.0102972
0.000148347
0.0111982
5.78426e-05
0.000136938
0.000216614
0.000168731
0.0111467
0.000148622
0.000142708
0.000142653
0.000142977
0.000174455
0.000163168
0.0171283
0.0341406
0.000140819
0.00651374
0.0135519
0.00118661
0.00990931
0.000157818
0.000138727
0.00014239
0.00018216
0.00809191
0.000148232
0.000173192
0.000182679
0.000140805
0.000166202
0.0125342
0.000174728
0.00017805
0.0139793
5.37493e-05
0.000143294
0.000144463
0.025684
0.0152114
0.000178814
0.000156926
0.00017012
0.000139056
0.000142099
0.00578078
0.000139868
0.000148493
0.000139262
0.000140194
6.98385e-05
0.000174333
0.000158532
0.000139771
0.0384399
0.0110814
0.000140571
0.000153892
0.00015132
0.000147801
0.0186683
0.00946637
0.00931364
0.0216268
0.011223
0.00015607
0.00928997
0.0142324
0.000152919
0.000157172
0.000138703
0.000158011
0.000158499
0.00945209
0.0125934
0.000172899
0.000154214
0.000141129
0.000157806
0.000152821
0.00523944
0.00017047
0.000143327
0.000157748
0.00013911
0.000152585
0.000180549
0.000144713
0.000142818
0.000161855
0.000144508
0.000172961
0.000175474
0.000179612
0.000158291
0.000179394
0.000140841
0.000270815
0.000158841
0.0197889
0.0001462
0.000185763
5.42381e-05
0.000148913
0.0138471
0.0165533
0.0128446
0.0262629
0.000139992
0.000172544
0.000151879
0.000140257
0.00013914
0.000140308
0.000157245
0.000155641
0.000162366
0.000138987
0.0113384
0.000180247
0.0120247
0.000142346
0.000141701
0.000162616
0.000183182
0.0129073
0.000164045
0.00015281
0.000152218
0.000187185
0.000151689
0.000143522
0.000189332
0.0366456
0.000144404
0.000138889
0.000144546
0.000143415
0.000705088
0.00802948
0.000158114
0.013924
0.0118735
0.000142704
0.00017939
0.0219347
0.000157839
0.0321539
0.000145578
0.000153562
0.000163707
0.000153917
0.0102987
0.000143493
0.0117946
0.000158447
0.000154886
0.0155402
0.00014671
0.000148007
0.000168264
0.000139688
0.000151265
0.0148275
0.0377893
0.000169971
0.000186479
0.00369551
0.000138352
0.000142105
0.0213033
0.000182304
0.00016739
0.0158347
0.000142675
0.000160401
0.000136996
0.0113229
0.000202015
0.00015147
0.000146012
0.000643513
0.000150111
0.000161581
0.00653503
0.00390987
0.0151828
0.000141471
0.000144371
0.00939032
0.00508346
0.000181209
0.000152043
0.000256707
0.000143421
0.00125521
0.000182789
0.00017307
0.000150711
0.0128642
0.000159148
0.000153974
0.000194527
0.000183075
0.000191406
0.000147707
0.00014065
0.00730184
0.000156668
0.000178338
0.000157686
0.000297509
0.00014135
0.015802
0.000167969
0.000159235
0.000142863
0.000142501
0.00014514
0.0151671
0.000142399
0.000137673
0.00778932
0.000144553
0.0113738
0.000166172
0.000152729
0.000169297
0.00155459
0.00899112
0.000142499
0.00433008
0.0139209
0.000145598
0.0102573
0.000154706
0.000140238
0.000188142
0.00524664
0.00283205
0.000151749
0.000141974
0.000137996
0.0100011
0.000175358
0.000172222
0.000152625
0.000184888
0.000148695
0.000152484
0.000172838
0.0104439
0.000174556
0.0129419
0.000144284
0.000173166
0.000172572
0.00813711
0.000151303
0.0373448
0.000195952
0.000144626
0.0172218
0.000218256
0.0128658
0.0379247
0.0148263
0.00900374
0.000161808
0.0001404
0.000155519
0.00993498
0.0131043
0.000145019
0.000190423
0.000168644
0.000375373
0.000140029
0.00648259
0.000142198
0.000143431
0.00771061
0.00928149
0.00430496
0.000140235
0.000143747
0.00587666
0.000188657
0.000177739
0.000150746
0.0120847
0.000180858
0.0126274
0.000165129
0.000159775
0.000145482
0.000144508
0.0242382
0.00016273
0.0106994
0.000158558
0.000156808
0.00784291
0.0128691
0.0122939
0.000143806
0.000155198
0.000140472
0.000158632
0.000147886
0.0338158
0.000161977
0.0182053
0.0001395
0.000168882
0.000142317
0.000185805
0.000156449
0.00015496
0.0140879
0.000160659
0.000165135
0.000183456
0.000168964
0.0130102
0.000173395
0.000148607
0.00886696
0.000150611
0.0396295
0.0089211
0.000144576
0.0121173
0.0203753
0.0121298
0.0085813
0.000158589
0.000144536
0.0146507
0.000162717
0.0125888
0.0158087
0.000142199
0.000147971
0.000176688
0.0107703
0.0339637
0.00014422
0.000145634
0.0278162
0.0155277
0.000178399
0.000151254
0.000149738
0.00890996
0.0100619
0.000173235
0.000137726
0.000162024
0.000139704
0.000177191
0.000527728
0.000199424
0.00493737
0.00682565
0.000143476
0.000153397
0.000144718
0.000147797
0.00932359
0.0119003
0.000154609
0.0383062
0.000142282
0.000154673
0.000144382
0.00013981
0.000144388
0.000143406
0.012172
0.000143552
0.00016378
0.000143814
0.000151927
0.000567479
0.00481509
0.000166653
0.0261183
0.00017359
0.000201045
0.000157018
0.000157036
0.00964479
0.000152589
0.000164007
0.0333837
0.0145418
0.00720795
0.000160579
0.00544108
0.000145933
0.000159988
0.000164065
0.0344686
0.000150084
0.0363782
0.000141986
0.000142449
0.0320328
0.000155554
0.000147513
0.000151023
0.000140559
0.000165303
0.000140562
0.000143781
0.000153916
0.000145386
0.000188758
0.000142306
0.000188449
0.00963319
0.000172084
0.0358304
0.000144422
0.00017659
0.000157957
0.000143066
0.000140318
0.000171601
0.000145945
0.000143782
0.000146104
0.000187394
0.0113098
0.03837
0.000170582
0.0143547
0.00018982
0.000142082
0.0148294
0.000154052
0.000142099
0.00720237
0.000357752
0.0134597
0.000142121
0.00504586
0.0107134
0.0116513
0.000137996
0.00035504
0.000156066
0.00014977
0.000154664
0.000142394
0.0205562
0.000184654
0.0132178
0.000146224
0.000143142
0.0131301
0.000144648
0.00112971
0.00929823
0.0239743
0.000176472
0.0074721
0.000187377
0.000143247
0.000171966
0.000158976
0.000149758
0.000184711
0.000161323
0.000146102
0.000149601
0.0436031
0.000144125
0.0107143
0.000168729
0.0124098
0.000186837
0.0001497
0.000148323
0.000145674
0.00643627
0.010382
0.000138034
0.000209813
0.000146115
0.000171463
0.000141564
0.000145668
0.00014596
0.00015658
0.000201335
0.00016474
0.000157526
0.000145831
0.000163576
0.00122039
0.000147067
0.0189198
0.00293749
0.00017173
0.000144544
0.000161087
0.000142683
0.000179452
0.000145443
0.00947796
0.000177812
0.0105701
0.000149842
0.00103985
0.000142963
0.000156407
0.000144908
0.0148551
0.0140973
0.000144767
0.000156351
0.000171906
0.0140142
0.000212461
0.0251625
0.000157224
0.0412102
0.000174546
0.00592778
0.000173123
0.000171694
0.000175068
0.0141996
0.00627188
0.0261743
0.000159318
0.000187394
0.000141377
0.000148738
0.000152007
0.000144507
0.0142962
0.000154974
0.000153174
0.00918077
0.000184149
0.0137042
0.000143484
0.000149291
0.000151981
0.000149196
0.000156492
0.025622
0.00979159
0.0205408
0.000141102
0.000152674
0.000151298
0.0119502
0.0126417
0.000171759
0.000148327
0.000145688
0.011965
0.00016328
0.0106524
0.0110405
0.000301953
0.0001444
0.000128691
0.000156044
0.000161515
0.0001539
0.0106983
0.00640543
0.00018038
0.000239223
0.000146757
0.000157161
0.000143469
0.00698045
0.000168074
0.0136601
0.000670008
0.000151885
0.000180927
0.000147642
0.00946538
0.000189747
0.000161996
0.000315172
0.015975
0.000490188
4.28938e-05
0.000146214
0.00014335
0.00946338
0.00150147
0.0106307
0.000154643
0.000144509
0.000143457
0.0114909
0.000180512
0.000145301
0.000639132
0.000176195
0.0281333
0.000138796
0.0128554
0.000143802
0.000237545
0.000150502
0.000143696
0.000180859
0.0132964
0.000144771
0.000142116
0.00410753
0.00894054
0.0001567
0.000141015
0.0382325
0.000160125
0.000184419
0.000141096
0.012491
0.000143348
0.000164087
0.021298
0.011744
0.000147343
0.00571911
0.00767173
0.0114402
0.000141376
0.0415703
0.000200145
0.000142351
0.00169728
0.000210853
0.00014358
0.000149186
0.0135223
0.000142614
0.000192419
0.000142231
0.000154062
0.00908015
0.000171369
0.00303995
0.000147815
0.000159168
0.000140309
0.000156178
0.000194371
0.0217888
0.000141189
0.000168874
0.00682223
0.0001448
0.000142854
0.0152587
0.000157272
0.000159151
0.000179546
0.0434357
0.0133036
0.00019854
5.88519e-05
0.000234693
0.00322588
0.0102864
0.0224728
0.000168983
0.000145301
0.000178826
0.000142296
0.000142591
0.0415605
0.0154382
0.000148222
0.0334467
0.000246393
0.0106572
0.000844501
0.000299562
0.000142867
0.000335119
0.000365176
0.000154152
0.000147564
0.0134887
0.015155
0.0251552
0.00643568
0.000161782
0.0189142
0.0129782
0.000155881
0.000147017
0.000142575
0.00109643
0.000141671
0.000189452
0.000152394
0.000146318
0.000148526
0.00157042
0.00750077
0.0153723
0.000146165
0.000114174
0.000150836
0.000155517
0.000141432
0.000162174
0.00899193
0.000152971
0.0145042
0.0249225
0.000462792
0.000177197
0.000144251
0.000162408
0.000144565
0.00018015
0.000151679
0.000147691
0.000145917
0.000155046
0.000181876
0.000146519
0.00015844
0.000154714
0.000158909
0.000186808
0.00963839
0.000143012
0.000162934
0.000158678
0.000172123
0.000162704
0.00978587
0.000190784
0.000155613
0.000149509
0.00015097
0.00204829
0.000143127
0.000357973
0.000143874
0.000146386
0.000152037
0.0142883
0.000152744
0.000151118
0.000156286
0.000177516
0.000167342
0.0142042
0.000151097
0.000157928
0.000143508
0.00024762
0.000145615
0.000145829
0.000185972
0.0181144
0.000166772
0.000156377
0.000187961
9.81664e-05
0.000145495
0.000146231
0.0177536
0.000147446
0.000437257
0.000190416
0.00461658
0.000143448
0.000164537
0.000142802
0.0156401
0.000178804
0.000161436
0.000177795
0.016118
0.000147336
0.00345325
0.0135949
0.000145222
0.00176029
0.000171872
0.000151269
0.00950859
0.000144245
0.0001451
0.000141306
0.000183819
0.00104686
0.000182042
0.000147701
0.000147257
0.000154718
0.0080106
0.000192916
0.00706482
0.00658936
0.000146263
0.00017901
0.000181742
0.00829802
0.00017396
0.000462074
0.000141751
0.000155981
0.000142567
0.00478289
0.000160942
0.000142766
0.0420019
0.000188845
0.00015677
0.000157827
0.000142306
0.0001773
0.000168042
0.000158107
0.0116735
0.000169149
0.000171135
0.00017142
0.000179596
0.0235956
0.000171286
0.00821392
0.00014322
0.000143251
0.000187354
0.0176274
0.00758565
0.000497282
0.000172805
0.00845167
0.00674414
0.000146811
0.000152186
0.000140362
0.000160171
0.000169564
0.000179648
0.00749096
0.00019222
0.000147677
0.0125788
0.00841373
0.000143785
0.000183635
0.0294578
0.00774293
0.000149555
0.000170297
0.000138542
0.000157883
0.000153595
0.000151072
0.0112509
0.0126203
0.0076784
0.0135255
0.000147826
0.000158844
0.000168904
0.000166961
0.000149049
0.000142159
0.00804694
0.000141528
0.00605229
0.000160601
0.000165813
0.000183567
0.00018814
0.0100868
9.75203e-05
0.000159868
0.000144392
0.00015748
0.000111781
0.000168496
0.000150682
0.000140181
0.000140806
0.000169666
0.000155593
0.000180665
0.0200359
0.000147847
0.00014175
0.000177705
0.00021984
0.00922813
0.0168182
0.000141097
0.000170605
0.000144971
0.0144221
0.000146887
0.0186203
0.000155212
0.000147691
0.00015706
0.000147575
0.00016914
0.000154922
0.000162524
0.0108159
0.0150883
0.000151126
0.000155092
0.000142781
0.000105272
0.0121781
0.00015532
0.000146522
0.00704257
0.000136313
0.0141306
0.000162056
0.000159255
0.000172143
0.00796479
0.000161974
0.000148539
0.000144661
0.000169256
0.0122694
0.000142364
0.00336374
0.0310383
0.016588
0.00021943
0.000158544
0.0110782
0.000151437
0.000187401
0.000142967
0.00639452
0.00658102
0.00858356
0.0108306
0.0325084
0.000155828
0.000397525
0.000142249
0.00813109
0.00717477
0.0144074
0.0101805
0.000152822
0.0191206
0.00906114
0.000159491
0.000147597
0.000144651
0.0147928
0.000151456
0.000169023
0.000209576
0.000145021
0.000139735
0.000144257
0.0139163
0.000188084
0.000156294
0.0125869
0.000184033
0.000155356
0.000143142
0.00014342
0.000157065
0.0187257
0.000189083
0.000151359
0.000178952
0.00937907
0.000173959
0.000161652
0.00551141
0.00015566
0.0108174
0.000154845
0.000155535
0.000143016
0.00021064
0.000170117
0.0105642
0.00587069
0.0161079
0.000171774
0.0345666
0.00015641
0.000150196
0.000184093
0.00854867
0.0184251
0.0113457
0.000467237
0.000149179
0.000143542
0.000142787
0.000143855
0.000142342
0.00635799
0.000154747
0.00709921
0.000157404
0.0126129
0.00513047
0.016508
0.000162453
0.000151841
0.0107204
0.000162067
0.0182467
0.0161627
0.000139421
0.00114168
0.000152943
0.0201542
0.00639131
0.000159187
0.000822696
0.00931169
0.000173271
0.00016994
0.000161029
0.0170609
0.00718846
0.000149677
0.000144623
0.00615569
0.000244897
0.000180508
0.0100815
0.000178982
0.000157575
0.00014636
0.013252
0.0178155
0.000175014
0.000155292
0.0139141
0.0305637
0.000142369
0.00014369
0.000149972
0.0129823
0.0126516
0.000143334
0.011342
0.00014638
0.000142773
0.000144641
0.0157793
0.000203515
0.000296246
0.00724604
0.000147858
0.000147601
0.000141629
0.0080478
0.000151337
0.0324655
0.00014996
0.0225027
0.000145603
0.000142313
0.000180231
0.0060207
0.00709285
0.000159486
0.0087053
0.000149453
0.000144069
0.000143742
0.000162442
0.000168668
0.000168519
0.000161231
0.00423252
0.000150223
0.000180881
0.000431068
0.0201716
0.000146563
0.013858
0.0164622
0.000151092
0.0117725
0.000167977
0.0168792
0.000144479
0.000173732
0.000146539
0.01887
0.00884978
0.000183843
0.0112806
0.00014884
0.000162473
0.000147049
0.0118415
0.000145609
0.000140273
0.0111546
0.00017757
0.0178746
0.000193935
0.00016742
0.000154137
0.000141129
0.0222771
0.000156615
0.000154141
0.000180802
0.000153334
0.000161021
0.000143509
0.0172584
0.00015557
0.00530485
0.0046041
0.000157242
0.000537807
0.000168658
0.0139021
0.000144014
0.0208276
0.0406097
0.000140353
0.000143401
0.000147784
0.000145714
0.00016045
0.000144366
0.0051405
0.000170807
0.00115435
0.000177767
0.000144782
0.000145633
0.000142896
6.85807e-05
0.000144156
0.00014331
0.000190674
0.000149849
0.023507
0.00984891
0.000172797
0.000150404
0.000157854
0.000147468
0.000146336
0.000168634
0.000147463
0.00014998
0.00725476
0.0182177
0.000197749
0.000147359
0.0084884
0.00593835
0.000145821
0.000533872
0.00772485
0.000143421
0.00014929
0.0001432
4.40965e-05
0.015108
0.0139429
0.000147473
0.000149694
0.000150124
0.000144604
0.000180316
0.000144615
0.000617756
0.0057666
0.00764767
0.000139668
0.000149758
0.000149374
0.0178777
0.000142507
0.0137612
0.00858497
0.0028762
0.0135004
0.011489
0.0126661
0.000149136
0.0132023
0.00745074
0.000147419
0.000140704
0.00014101
0.0110017
0.0074162
0.00970233
0.00017786
0.0114026
0.000144397
0.000184224
0.000147353
0.000148307
0.000147199
0.000139488
0.0166716
0.000147633
0.0353924
0.0304223
0.0131098
0.000164043
0.0001637
0.0143856
0.0123295
0.000153009
0.00529224
0.000142587
0.00013696
0.000143084
0.000163576
0.000148998
0.0109881
0.000156161
0.000911138
0.000161866
0.00800412
0.0121806
0.000188071
0.000139155
0.000169368
0.000174445
0.0158623
0.000146882
0.000141837
0.000156939
0.0460241
0.00014615
0.0021126
0.0100774
0.000160355
0.000168897
0.000146615
0.0101633
0.000145346
0.0188172
0.000137142
0.00606749
0.000155462
0.000144156
0.0105868
0.011785
0.00013885
0.00016784
0.000150204
0.00889712
0.000246907
0.000213545
0.000688067
0.000145335
0.000169656
0.0136138
0.000152087
0.000162674
0.000150006
0.000170893
0.000156238
0.0093644
0.0125752
0.000144208
0.0139313
0.000147217
0.000161728
0.0117166
0.00975147
0.000160508
0.0141297
0.000176201
0.00014469
0.00238214
0.000178652
0.000155348
0.000147461
0.0125942
0.000139432
0.0151574
0.000354092
0.000179914
0.000143428
0.000156814
0.013662
0.000162019
0.0125142
0.000146412
0.000149404
0.000170838
0.0113869
0.000152015
0.0133666
0.0104508
0.0115401
0.000144802
0.0100339
0.00139798
0.0184138
0.000143677
0.000156448
0.000144677
0.0132777
0.000159363
0.0103356
0.0079988
0.000145432
0.000147654
0.000143507
0.0175697
0.000180499
0.0207935
0.0126674
0.000141469
0.0124723
0.00842425
0.000179384
0.0077956
0.0142463
0.000160067
0.0145157
0.000149051
0.000151689
5.75966e-05
0.00207928
0.000159445
0.0309794
0.000145757
0.000143621
0.0345412
0.0127336
0.00251575
0.00825373
0.000156474
0.000145454
0.000160673
0.00469759
0.0111051
0.000142411
0.000161692
0.0119032
0.000143811
0.000144144
0.00487037
0.0269826
0.00014805
0.000143895
0.000147202
0.000147301
0.0117605
0.000145625
0.000146957
0.000151532
0.000199369
0.0297109
0.001743
0.0126095
0.000144256
0.000150391
0.0153609
0.00987713
0.000154266
0.000441281
0.000143309
0.000158327
0.0001485
0.000160526
0.000171565
0.000146221
0.0141668
0.000158159
0.00014456
0.000149955
0.00244605
0.0392706
0.012031
0.000143869
0.000174347
0.00919684
0.0108572
0.000149913
0.000146531
0.000144169
0.00352754
0.000144225
0.000158984
0.000153628
0.000143334
0.0156028
0.000568871
0.000145241
0.000149828
0.000146408
0.000144522
0.0300227
0.00985165
0.000169905
0.00852884
0.000168476
0.000145722
0.000143197
0.000144125
0.000144403
0.000145169
0.000171698
0.000176096
0.0125794
0.000149139
0.000178023
0.0121114
0.000459799
0.000143062
0.000140372
0.000149265
0.0189909
0.000144067
0.000388589
0.000193623
0.000165191
0.000153254
0.00855271
0.000148704
0.000745885
0.000140131
0.000148914
0.000146248
0.000146202
0.000163387
0.00110785
0.000358969
0.000160159
0.00604504
0.000883364
0.00703949
0.000155938
0.0129399
0.0084835
0.000178264
0.0129026
0.00504615
0.00017726
0.00971032
0.000145662
0.000149566
0.0289573
0.000142184
0.000149985
0.0421036
0.000287555
0.0293266
0.000191813
0.000142229
0.000161535
0.000144029
0.000461848
0.00014728
0.000525483
0.0199078
0.00926746
0.0149377
0.00014403
0.000140899
0.000170082
0.0355634
0.0158153
0.000180608
0.000202102
0.000141081
0.000203163
0.0152444
0.000721816
0.000149248
0.000144158
0.000148972
0.000148492
0.000144526
0.000144224
0.000149689
0.0151591
0.000171455
0.0141881
0.00252884
0.000266298
0.000182852
0.000142932
0.000153522
0.000151955
0.000141994
0.000145516
0.0105587
0.00920892
0.0121525
0.0122525
0.000149278
0.0132566
0.000182713
0.0127401
0.016495
0.000144332
0.000145569
0.00461886
0.000144058
0.000139251
0.0110834
0.0157052
0.000196714
0.000143581
0.000144142
0.000155329
0.000160298
0.00347408
0.000142745
0.000150054
0.000198878
0.000147951
0.00996419
0.000160079
0.0416211
0.000145418
0.000191591
0.0356632
0.000159832
0.00444832
0.000177592
0.0147505
0.000147757
0.000150894
0.000141988
0.000155391
0.017748
0.000182608
0.00785792
0.000151384
0.000150343
0.000143963
0.014218
0.000161435
0.00017789
0.012195
0.000141307
0.000164869
0.0102405
0.000169025
0.000150076
0.000149651
0.000144136
0.000167392
0.000146174
0.000145623
0.0154819
0.00631886
0.0143514
0.000267844
0.000184566
0.0126713
0.000169231
0.0116348
0.000181157
0.000146679
0.000167158
0.000136362
0.000144907
0.00497197
0.00615956
0.000149147
0.00679986
0.0179368
0.000154419
0.00014903
0.000166763
0.0124557
0.00468385
0.0153533
0.00451777
0.0158986
0.000136658
0.00019071
0.000177154
0.00272178
5.83273e-05
0.000143289
0.000178882
0.0112563
0.000157934
0.0340085
0.000145601
0.00069478
0.012006
0.0180085
0.000170217
0.000156376
0.00926758
0.000178791
0.0185055
0.0170646
0.0154929
0.00017736
0.00658436
0.000144224
0.0001529
0.000162376
0.0119182
0.00531399
0.014676
0.000166116
0.000180347
0.000175265
0.000180773
0.00518996
0.000143412
0.000179436
0.0113559
0.00014348
0.0376949
0.0144934
0.0184153
0.0106584
0.000193386
0.00663888
0.000144193
0.00523167
0.000151286
0.000148993
0.000160598
0.000149571
0.0167123
0.000149907
0.00017265
0.000149856
0.000145881
0.00761467
0.000147939
0.000177867
0.00187846
0.000139403
0.0148116
0.000176975
0.000149415
0.0101687
0.000190737
0.000143427
0.00240505
0.000146347
0.0176324
0.00418058
0.000149603
0.000177115
0.000148055
0.00564252
0.0160346
0.000170404
0.0173162
0.000152623
0.000144198
0.0419025
0.000150047
0.000144831
0.000195011
0.000159595
0.000140927
0.000144324
0.000181876
0.000147677
0.011273
0.000190879
0.000247661
0.0160165
0.000163978
0.000169813
0.00014453
0.00595058
0.00959306
0.0194703
0.000143701
0.000147551
0.00017103
0.00015612
0.0112318
0.000144931
0.0113921
0.000145841
0.000213971
0.000156354
0.000282797
0.000184613
0.000177225
0.0150298
0.0228372
0.00843257
0.0154955
0.000137149
0.000200624
0.000201296
0.0112295
0.000150937
0.000188952
0.00935843
0.0113702
0.000177244
0.000171052
0.0144042
0.00661509
0.00016125
0.00019059
0.000139376
0.000162548
0.000160285
0.000143211
0.000169182
0.0171068
0.00160905
0.0123163
0.000207585
0.000142349
0.000141873
0.000159345
0.000143246
0.0145895
0.000142966
0.00014256
0.00835221
0.000187484
0.000159042
0.000176914
0.000182256
0.000176502
0.00851386
0.0165341
0.00913821
0.000151598
0.0163512
0.000149331
0.000141022
0.000149046
0.0136217
0.000189251
0.000190287
0.000187798
0.000147132
0.00014357
0.000143241
0.000145744
0.000152489
0.0207507
0.000202916
0.000154401
0.00522939
0.0111192
0.00607858
0.021408
0.000143748
0.000155023
0.000239818
0.000143695
0.000167771
0.000152747
0.000149808
0.012371
0.0166241
0.000143271
0.000159304
0.000155136
0.000172315
0.0194447
0.0343126
0.00794648
0.000146345
0.000171649
0.0116731
0.000171621
0.000177123
0.00310521
0.0123533
0.00302928
0.0132571
0.000142018
0.00514412
0.000148375
0.000148615
0.000143286
0.000168787
0.00382893
0.00870555
0.0115214
0.010287
0.000167539
0.000138471
0.000140287
0.000144145
0.000168146
0.000161393
0.00857538
0.0165898
0.0001707
0.0135274
0.000145
0.000167631
0.000139794
0.0185286
0.000179731
0.000146041
0.000183199
0.000176725
0.016383
0.0139458
0.000182057
0.00521218
0.000150556
0.0202926
0.000188893
5.26743e-05
0.00717444
0.000149072
0.000167701
0.000143991
0.00785953
0.00803735
0.00016078
0.0312392
0.000188896
0.0307873
0.000170985
0.00018919
0.000164794
0.000140803
0.000177703
0.000170762
0.000150051
0.00016782
0.000155953
0.000157283
0.0108969
0.000181875
0.000148252
0.000155878
0.000158658
0.000157597
0.000149501
0.0338011
0.000178865
0.00371622
0.00993062
0.000143556
0.0161698
0.000144067
0.000150308
0.000148751
0.0160498
0.000161213
0.019004
0.0243069
0.000169019
0.00016448
0.000177763
0.0375379
0.000179538
0.018406
0.000185149
0.000161344
0.00014871
0.0174417
0.012515
0.000188863
0.000184016
0.000160908
0.000151954
0.000150046
0.000162654
0.000159357
0.000144529
0.000159165
0.0191093
0.0227842
0.00018141
0.000160466
0.000142276
0.0380964
0.000156322
0.00016761
0.00953369
0.000160524
0.0249353
0.000139878
0.000165264
0.00015035
0.000158768
0.000142711
0.0167833
0.00103703
0.00192892
0.000161355
0.00538511
0.000187825
0.00015173
0.0361003
0.000168082
0.000187256
0.0093866
0.000166447
0.000149814
0.000159667
0.00017098
0.000152122
0.000199923
0.0141215
0.00765012
0.000140847
0.000188475
0.000245649
0.00905341
0.000142895
0.00016174
0.000146878
0.0001561
0.00728906
0.000155038
0.000154624
0.000141044
0.000140682
0.00183205
0.0134998
0.000144474
0.0082783
0.00018698
0.000138885
0.000162542
0.017433
0.000179697
0.000176637
0.000143494
0.000153034
0.000181818
0.000186846
0.000142883
0.029616
0.000154796
0.0167388
0.000172068
0.00015215
0.00277554
0.000180884
0.000183853
0.000141209
0.0119874
0.000154851
0.00015254
0.0308621
0.000160052
0.000144708
0.000176056
0.00015042
0.000153375
0.00014424
0.0219102
0.00014339
0.000176239
0.00107462
0.000177254
0.000145985
0.000170941
0.000155419
0.0202168
0.000183851
0.0139282
0.000179573
0.0176561
0.000139774
0.000171479
0.000151547
0.000142153
0.0113317
0.00749849
0.000151115
0.00285436
0.000161195
0.000170788
0.0140641
0.000152013
0.00346903
0.0163091
0.0303688
0.0414318
0.000212179
0.000170792
0.000142107
0.000177435
0.000160245
0.0126553
0.0250634
0.0183349
0.0319892
0.0150238
0.000140469
0.00903074
0.000143695
0.000147526
0.000144354
0.0127193
0.000184476
0.000181248
0.000142334
0.0117213
0.000153195
0.0121622
0.000149369
0.000171536
0.000155087
0.000168816