/*--------------------------------*- C++ -*----------------------------------*\
| =========                 |                                                 |
| \\      /  F ield         | OpenFOAM: The Open Source CFD Toolbox           |
|  \\    /   O peration     | Version:  v2012                                 |
|   \\  /    A nd           | Website:  www.openfoam.com                      |
|    \\/     M anipulation  |                                                 |
\*---------------------------------------------------------------------------*/
FoamFile
{
    version     2.0;
    format      ascii;
    class       surfaceVectorField;
    location    "50";
    object      ddtCorrDdt0(Uf);
}
// * * * * * * * * * * * * * * * * * * * * * * * * * * * * * * * * * * * * * //

dimensions      [0 1 -2 0 0 0 0];


internalField   nonuniform List<vector> 
20673
(
(-0.00373352 -0.00399762 1.01496e-18)
(-0.0038802 -0.00401484 8.18596e-19)
(-0.00381381 -0.0038691 1.32266e-18)
(-0.00156823 -0.0011907 1.25062e-19)
(-0.00151511 -0.00117214 -1.37927e-19)
(-0.00155268 -0.00124868 -2.63057e-19)
(0.0276678 0.00483984 1.26365e-18)
(0.0292113 0.00548078 5.61017e-18)
(0.0291753 0.00557168 -5.34703e-18)
(-0.00118672 0.00408129 4.21543e-18)
(-0.00130703 0.00389775 -2.54794e-18)
(-0.00112901 0.00392891 -4.19193e-18)
(-6.92512e-05 -0.000606033 2.92362e-19)
(-5.16611e-05 -0.000608093 -2.48677e-18)
(-6.6489e-05 -0.000621153 9.11629e-19)
(4.44597e-05 -0.00148792 1.3882e-17)
(-2.69375e-05 -0.00141119 -2.69141e-17)
(0.00011875 -0.00143935 5.37625e-17)
(0.0216876 0.00276097 8.72666e-19)
(0.0221736 0.00290173 2.01358e-18)
(0.022817 0.00325943 3.56314e-20)
(0.0333307 0.00662743 -3.67175e-18)
(0.0316933 0.00615409 1.24857e-18)
(0.0329659 0.00613503 6.73472e-18)
(0.0451206 0.0042068 8.83454e-18)
(0.0439806 0.00423079 9.50995e-18)
(0.0416777 0.00380211 -4.05428e-19)
(-0.00392131 -0.00538267 -2.8316e-18)
(-0.00400353 -0.00552388 -1.58079e-18)
(-0.00383462 -0.00553338 5.50473e-20)
(-0.0133357 0.00668708 2.83783e-18)
(-0.0129749 0.00682285 2.21095e-18)
(-0.011246 0.00707915 1.93042e-18)
(-0.00996321 0.00823771 -2.0391e-18)
(-0.0102393 0.00825468 -1.11058e-17)
(-0.00999867 0.00797182 -2.43857e-18)
(-0.00126041 0.00417953 7.5087e-18)
(0.0222335 3.85617e-05 -2.09415e-18)
(0.0254302 0.000631773 -1.08173e-17)
(0.0221812 0.000680584 -2.96923e-18)
(-0.00119472 -0.00299438 2.33097e-18)
(-0.00114425 -0.00300128 1.31786e-17)
(-0.00117599 -0.00296558 -4.32084e-18)
(-0.00151097 -0.00279481 -6.21123e-18)
(-0.00147701 -0.00272829 -2.74878e-18)
(-0.00154707 -0.00272335 2.59831e-18)
(-0.00147541 -0.00147136 -3.32532e-18)
(-0.00150836 -0.00144944 -2.8823e-18)
(-0.00144892 -0.00140923 2.64018e-19)
(-0.0089865 -0.00107554 -3.5227e-18)
(-0.00893973 -0.00128749 -6.63453e-18)
(-0.00919057 -0.0011633 -1.37961e-18)
(-0.00998646 0.00860572 1.41745e-18)
(-0.00970255 0.00832853 2.01333e-18)
(-0.000116222 -0.00017918 -1.77221e-18)
(-0.000113639 -0.000169657 -1.73852e-18)
(-0.000106567 -0.000180207 -2.00416e-18)
(-4.61588e-06 -0.000120832 7.83308e-19)
(-7.00006e-06 -0.000163689 -6.7978e-18)
(-4.32346e-06 -0.000116924 -5.63213e-18)
(0.0211788 0.00240265 -6.65003e-18)
(0.0208605 0.00217568 -2.61183e-18)
(-0.000156411 -0.000324956 3.52968e-18)
(-0.00016603 -0.000332027 -1.48121e-18)
(-0.000165619 -0.000318339 3.86094e-18)
(0.0343125 0.0069947 -1.18507e-17)
(0.0352678 0.00721013 -9.81529e-18)
(-0.000309928 -0.00101332 1.20242e-18)
(-0.000304088 -0.00102992 4.99594e-18)
(-0.000329155 -0.00105563 -3.76293e-18)
(0.0179246 0.000575097 -3.02924e-18)
(0.0172619 0.00017725 -1.16625e-18)
(0.0176298 0.000407542 7.58785e-18)
(-0.000116565 -0.00320058 -4.41006e-17)
(-8.21199e-05 -0.00318584 -1.45903e-17)
(-9.90521e-05 -0.00315968 -4.34386e-18)
(8.27931e-05 -0.00331914 -8.31058e-18)
(0.000104276 -0.00331799 4.03018e-18)
(0.000101367 -0.00327829 -6.49771e-19)
(0.00309645 -0.00443809 3.0468e-18)
(0.0030706 -0.00490641 3.91994e-19)
(0.00359561 -0.00473726 -6.31095e-18)
(-0.00679183 -0.00670784 -2.76869e-17)
(-0.00704106 -0.00660338 -4.01786e-18)
(-0.00703859 -0.00692283 -1.70103e-17)
(-0.004468 -0.0040184 4.57252e-19)
(-0.00431608 -0.00402284 -5.50329e-19)
(-0.0043931 -0.00387073 2.39613e-18)
(-0.00325529 -0.00263944 3.48445e-19)
(-0.00315777 -0.00265701 -2.21327e-19)
(-0.00320188 -0.0025453 -5.72735e-19)
(-0.000186477 -0.00321357 -3.95304e-18)
(-0.000173899 -0.00322233 -1.7888e-17)
(-0.000183968 -0.00320138 -2.86446e-17)
(-0.000111593 -0.00264387 2.76655e-17)
(-9.25725e-05 -0.00260563 1.04958e-17)
(-0.000118848 -0.00259251 1.00692e-18)
(-0.000238574 -0.00111517 -2.4362e-18)
(-0.000252019 -0.00117148 5.95752e-18)
(-0.000256753 -0.0011331 -4.09603e-18)
(0.0234423 0.010906 -3.60035e-18)
(0.024155 0.0114442 -2.12575e-18)
(0.0257933 0.0106479 -5.56214e-18)
(-0.000145428 -0.00033151 -2.52882e-18)
(-0.000147195 -0.00031622 2.05485e-18)
(0.0262559 0.00137994 2.24922e-18)
(0.0261454 0.00118476 3.00329e-18)
(0.0259778 0.001247 -6.86469e-18)
(-0.00184211 0.00511256 1.60603e-18)
(-0.00192676 0.00530519 -5.88012e-18)
(0.0221846 -0.00192394 -7.93507e-18)
(0.0217502 -0.00173006 -8.05246e-18)
(0.0224063 -0.00201663 -7.9181e-18)
(-0.000234057 -1.22232e-05 3.48669e-19)
(-0.000236926 -9.67491e-06 5.98122e-20)
(-0.000231744 -8.03662e-06 -1.14364e-18)
(-1.48189e-06 -7.07137e-05 -1.48441e-18)
(-1.12924e-06 -3.17785e-05 5.56211e-19)
(-7.54306e-07 -3.34932e-05 -2.07581e-18)
(-0.000136458 0.000287384 2.38221e-19)
(-0.000153469 0.000280234 -4.26517e-19)
(-0.000125532 0.00026589 -6.65651e-19)
(0.00056934 -0.00320792 -2.66191e-18)
(0.000561664 -0.00325083 1.84879e-17)
(0.000613274 -0.00325877 -8.94025e-18)
(-0.00182366 0.000112649 4.18484e-20)
(-0.00188636 0.000107093 -6.55889e-20)
(-0.00187092 0.000173515 8.94756e-20)
(-0.000203807 -0.00284867 -1.12744e-18)
(-0.000162952 -0.00285001 1.27161e-17)
(-0.000187988 -0.00280476 9.40742e-18)
(-0.00912835 -0.000821066 -1.71164e-18)
(-0.00880085 -0.000894385 -2.78557e-18)
(-0.0111671 0.000888347 -1.53907e-18)
(-0.0109433 0.000811257 1.28881e-18)
(-0.010998 0.00105685 1.1723e-17)
(-0.00241777 -0.000733531 4.42414e-18)
(0.000460335 0.000918576 -1.59791e-17)
(0.00016304 -0.000115273 1.02136e-17)
(-0.000119614 -1.76151e-05 5.57312e-20)
(-0.000128013 -1.63577e-05 -1.15928e-18)
(-0.000125639 -2.64722e-05 1.00827e-18)
(-0.00496802 0.00134318 2.35517e-18)
(-0.00505114 0.00125365 2.4055e-18)
(-0.0051059 0.00137508 5.24196e-18)
(-0.000194419 -0.00174796 -8.20149e-19)
(-0.000172673 -0.00176136 7.39488e-20)
(-0.000204692 -0.00176856 7.25387e-18)
(-0.00303159 -0.00145403 2.21667e-17)
(-0.00329344 -0.00198676 -1.50333e-17)
(-0.000131254 -0.00267823 9.36455e-18)
(-0.000105119 -0.00269339 1.39457e-17)
(-0.00147489 -0.00154099 2.50094e-18)
(-0.00141572 -0.00146357 -3.69289e-18)
(-0.00474509 -0.000200487 -4.64406e-19)
(-0.00467716 -0.000318557 9.7566e-19)
(-0.00483888 -0.000331789 -9.95004e-19)
(-0.0136813 0.00654934 -1.15616e-17)
(-0.0131865 0.00634234 -8.58465e-18)
(-0.000708951 -0.00124359 -1.22271e-18)
(-0.000671911 -0.00125746 -2.57714e-18)
(-0.000697077 -0.00121474 3.13461e-18)
(-0.00384403 -0.000495418 -3.21401e-18)
(-0.00395318 -0.00055721 2.33632e-18)
(-0.00384098 -0.000635539 -1.80934e-18)
(-0.00177448 5.75091e-05 1.00706e-19)
(-0.0017601 0.000126349 1.7706e-19)
(0.0744267 0.00707028 4.18152e-18)
(0.0699293 0.00743611 -3.26959e-17)
(0.0727712 0.00754219 -4.98534e-18)
(-0.00161009 -0.00116706 7.8907e-19)
(-0.00162576 -0.00124583 4.52677e-19)
(0.022692 -0.000641196 4.23209e-18)
(-0.000118202 -0.000186354 3.40564e-18)
(-0.000124716 -0.000180187 -9.94011e-19)
(0.00023181 -0.00147822 -5.2823e-19)
(0.000139136 -0.00161767 -3.78761e-18)
(0.00984405 -0.00258483 7.08859e-18)
(0.0131106 -0.00209827 7.80862e-18)
(0.0368428 0.00741755 -1.45073e-17)
(-5.10944e-06 -0.000646387 -3.21863e-18)
(-8.3728e-06 -0.000652508 5.26977e-19)
(-1.32678e-05 -0.00120781 3.0578e-20)
(-7.13579e-06 -0.00115108 -6.1452e-18)
(-0.0153322 0.00144392 -1.1914e-18)
(-0.0155218 0.00158979 2.75104e-18)
(-0.0159689 0.00124171 -7.63024e-18)
(-0.00280377 -0.00386065 2.21536e-20)
(-0.00290951 -0.00389173 2.32389e-19)
(-0.00276689 -0.00398657 1.25159e-20)
(-6.71152e-05 -0.000602509 1.28849e-18)
(-7.54073e-05 -0.000601592 2.24127e-18)
(0.0488077 0.0046901 -7.27993e-18)
(0.0462242 0.00400616 -1.72888e-18)
(0.0266061 0.00157347 -1.38539e-18)
(0.0269929 0.0015694 -3.41854e-18)
(0.026899 0.0015486 -2.92831e-18)
(-0.000319668 -0.000991793 2.06832e-18)
(-0.000294797 -0.000955094 -2.70439e-18)
(0.000743734 0.000530027 -4.49436e-17)
(0.000352611 2.13587e-05 2.68631e-17)
(0.000680746 0.000116519 -5.33316e-18)
(-0.011681 0.0110877 2.70701e-18)
(-0.0112948 0.0113477 4.91122e-18)
(-0.0112091 0.0108486 -5.50337e-18)
(0.0262817 0.00138929 -8.62138e-18)
(0.0263022 0.0013521 9.29372e-18)
(0.0262958 0.00116611 2.39866e-18)
(-0.00269063 0.0004488 -8.34107e-19)
(-0.00278359 0.000435818 -1.11309e-19)
(-0.00273372 0.000345438 -1.02571e-18)
(0.0146503 -0.00176241 1.76495e-18)
(0.0149588 -0.00156045 1.93647e-18)
(0.0146947 -0.00147293 1.6396e-18)
(-1.51786e-05 -0.000242569 -7.61819e-19)
(-1.95241e-05 -0.000289263 -1.92608e-19)
(-1.92942e-05 -0.000282353 -1.50569e-18)
(-3.73637e-05 -0.000300944 -8.43201e-19)
(-4.48476e-05 -0.000317043 -1.05955e-18)
(-3.60525e-05 -0.000286617 7.60583e-19)
(-1.29566e-05 -0.000639722 6.54851e-19)
(0.000436191 -0.00149302 2.12263e-18)
(0.000515141 -0.00161976 -1.5721e-17)
(0.000376119 -0.00174864 -3.78394e-18)
(0.0264336 0.0016206 -9.70939e-18)
(0.0265803 0.00153616 -1.51399e-17)
(0.0167249 0.00627014 2.11953e-17)
(0.011365 0.00535527 -8.83598e-18)
(0.0125421 0.0053508 -1.69809e-17)
(-0.00259461 0.0004469 1.4465e-19)
(-0.00264216 0.000531211 1.03121e-18)
(-6.72966e-05 -0.000305949 -1.49232e-18)
(-6.83666e-05 -0.000299945 2.49929e-18)
(-6.22479e-05 -0.000295225 1.69252e-18)
(0.0072356 -0.00486456 1.47185e-18)
(-0.00150003 -0.00998343 -3.11336e-18)
(-0.00485024 0.00143836 8.93658e-19)
(-0.00481357 0.00130308 -1.79675e-19)
(-0.000122151 0.000293416 3.04987e-20)
(-0.000150669 0.000309421 5.00935e-19)
(0.0274673 0.00151749 1.26978e-17)
(0.0269334 0.00148092 -7.1244e-18)
(0.0270875 0.00142236 7.57003e-18)
(-0.00510976 -0.00642104 3.04033e-18)
(-0.00501346 -0.00621529 5.20352e-18)
(-0.00484702 -0.0063706 3.60996e-18)
(-0.00119404 -0.000462598 5.20059e-20)
(-0.00118505 -0.000420454 -9.24767e-19)
(-0.00114648 -0.000439101 -2.05708e-19)
(-0.000844182 -0.00203853 1.01157e-17)
(-0.000839668 -0.0020943 -1.61178e-18)
(-0.000879351 -0.00208704 -9.76107e-19)
(-0.000390763 -0.00734377 6.03053e-18)
(0.0151743 -0.00303749 2.50091e-18)
(-0.000205307 -0.00136895 -3.95941e-17)
(-0.000131232 -0.00161967 4.16298e-17)
(-0.000222943 -0.0015371 3.57669e-17)
(-0.0131731 0.0042453 -1.25566e-18)
(-0.0132917 0.0040787 1.07979e-17)
(-0.0132857 0.00437175 -2.34949e-18)
(-0.0104431 0.000404163 -7.18869e-18)
(-0.0106201 0.000232228 -9.11888e-18)
(-0.0103842 0.00017242 3.37754e-18)
(-0.0143216 0.00760736 -2.96124e-18)
(-0.0143574 0.00739316 1.41721e-17)
(-0.0145566 0.00770259 5.50669e-19)
(0.000452025 -0.00258692 5.73715e-18)
(0.000360995 -0.00259009 -9.86052e-18)
(0.00046422 -0.00266895 3.07901e-18)
(-0.000318043 -2.12249e-05 -2.53604e-20)
(-0.000325913 -2.05749e-05 -1.14149e-18)
(-0.000334083 -2.68956e-05 4.56755e-20)
(-0.000122048 -0.00311124 1.53849e-17)
(-0.000137273 -0.00309567 3.80701e-18)
(-0.000120905 -0.00308135 6.55468e-18)
(0.000510705 -0.00310754 1.20409e-17)
(0.000446018 -0.00317762 -2.9857e-18)
(-0.00305507 0.000927867 7.06189e-19)
(-0.00313712 0.000958955 -5.87271e-19)
(-0.00304456 0.00102726 4.86889e-19)
(-0.000602482 -0.000133983 -1.90253e-19)
(-0.000590127 -0.000115503 -7.79937e-19)
(-0.000624248 -0.000132677 -4.24794e-19)
(0.0508756 0.00676385 -8.46586e-18)
(0.0515303 0.00665178 5.13824e-18)
(0.0559315 0.00811823 -1.0586e-17)
(0.00191565 -0.00512087 9.53211e-18)
(0.00221263 -0.00504593 1.27517e-17)
(0.00205297 -0.00537806 4.4036e-18)
(-0.0113729 0.000942336 3.46639e-18)
(-0.0113098 0.00068763 -9.69913e-18)
(-0.00154599 -0.00141479 1.80625e-19)
(-0.00158338 -0.0014828 9.02275e-19)
(-0.0041198 -0.00431277 8.86316e-19)
(-0.00397404 -0.00430107 2.45519e-18)
(-0.00403328 -0.00445573 -5.30927e-19)
(0.0134213 -0.0011611 -1.17267e-17)
(0.0117586 -0.000757598 2.15875e-17)
(0.0129859 -0.00074642 -1.0614e-18)
(0.0216084 -0.00212663 9.62257e-18)
(0.0220772 -0.00202143 1.15536e-17)
(-0.0114065 0.00804377 1.70828e-18)
(-0.0115134 0.00822903 -5.11623e-18)
(-0.0116353 0.00795212 7.12903e-18)
(0.0499537 0.00612903 -8.35829e-18)
(0.0462772 0.00518909 -6.56051e-19)
(-0.000167474 -0.00198598 3.62187e-18)
(-0.000183837 -0.00200695 -1.90061e-18)
(-0.000164592 -0.00202307 -6.69251e-18)
(-0.000327579 -1.42872e-05 4.21002e-18)
(-0.000108612 -0.000162707 9.20892e-18)
(6.97298e-06 -0.000107713 -4.5019e-18)
(-0.000310276 -0.000651532 -6.1945e-19)
(-0.000333548 -0.000695494 9.79642e-19)
(-0.000319757 -0.000684858 2.59943e-18)
(9.01824e-05 -0.000683089 2.31102e-17)
(2.97922e-05 -0.00079935 -2.52274e-18)
(0.000258851 -0.00073611 -2.59941e-19)
(0.0215609 -0.00027753 -5.46533e-18)
(0.0215367 -0.000513263 -5.5042e-18)
(0.0211652 -0.000370793 -1.55495e-17)
(-0.000190424 -0.00265324 8.15133e-18)
(-0.000210132 -0.00269646 5.96679e-18)
(-0.000216399 -0.00263377 5.69639e-18)
(-5.52398e-06 -0.000110425 -5.57159e-20)
(-3.68987e-06 -0.000112855 -1.39218e-18)
(-0.0152367 0.00123334 2.26515e-18)
(-0.0143684 0.00155516 -7.26852e-19)
(0.0226249 4.6969e-05 -4.04796e-18)
(0.0223302 0.00016784 -6.48117e-19)
(0.0225328 0.000170749 -2.73833e-18)
(5.63297e-05 -0.0032572 1.17651e-17)
(2.65325e-05 -0.00330149 -1.18384e-17)
(-0.000165928 -1.8563e-05 -9.75871e-19)
(-0.000173363 -2.78194e-05 -3.00378e-19)
(-0.000176284 -1.49996e-05 -8.87459e-19)
(-0.000808428 -0.00197799 -4.21437e-18)
(-0.000851392 -0.00196977 6.08042e-18)
(-0.00173512 -0.000256965 4.85762e-19)
(-0.00179089 -0.000277769 1.23097e-19)
(-0.00174652 -0.000326479 1.20302e-19)
(-0.000156683 -1.84402e-05 9.95093e-19)
(-0.00015864 -9.33238e-06 2.90974e-18)
(-0.000152941 0.000141689 1.60085e-19)
(-0.000131084 0.000143606 -6.93474e-19)
(-0.000138719 0.000123831 6.25794e-20)
(-0.000140187 -0.00119067 -2.71075e-17)
(0.0203841 0.000505943 7.68807e-18)
(0.0206435 0.000478327 9.52562e-18)
(0.0206508 0.000299061 9.66933e-18)
(-0.00014316 -0.00196274 -3.59741e-18)
(-0.00017069 -0.00194966 6.04751e-18)
(-0.00194897 9.3597e-05 1.57997e-19)
(-0.00190023 3.08128e-05 1.37429e-20)
(-3.66222e-06 -0.000123013 5.94324e-18)
(-2.46407e-06 -7.80611e-05 7.14953e-18)
(-0.0171606 -0.0168269 -3.00214e-18)
(-0.0250794 -0.0182913 -2.62003e-18)
(-0.00501127 -0.0136103 -1.67476e-18)
(0.0356372 0.00734683 -1.04956e-19)
(0.0333026 0.00663844 2.10493e-18)
(-0.00363919 -0.00412432 -7.82964e-19)
(-0.00360127 -0.00398366 -6.64432e-19)
(0.000557044 -0.00247624 3.62103e-17)
(0.000381317 -0.00245735 4.44118e-17)
(-2.00339e-05 -0.000644214 1.06693e-17)
(-2.01263e-05 -0.000672518 1.08323e-17)
(-0.000157523 -0.0026674 -1.73669e-17)
(-0.000168816 -0.00261205 -1.07168e-17)
(0.0183147 0.0114029 4.4409e-18)
(0.0173809 0.0112308 5.4546e-19)
(0.00614795 0.0102782 5.90148e-18)
(-0.000886735 0.000174567 4.04905e-19)
(-0.000899699 0.00013566 6.85521e-20)
(-0.000865427 0.000133056 -5.3537e-19)
(-0.00041422 -0.00178893 -4.35379e-18)
(-0.000357396 -0.00189593 -1.35093e-17)
(-0.00028942 -0.00176107 -1.32988e-17)
(0.000518078 -0.00307507 -1.12025e-17)
(0.000651771 -0.00289079 4.96981e-18)
(0.000651537 -0.00307431 -9.34219e-18)
(-2.67252e-05 -0.00120369 2.36421e-18)
(-1.89838e-05 -0.00125695 -1.9052e-18)
(0.0555588 0.00696037 -2.34101e-18)
(0.0534769 0.00624091 -7.19384e-18)
(0.0566089 0.0078326 -1.35988e-17)
(0.00297476 -0.0057276 -2.56492e-18)
(0.00283982 -0.00558029 -1.39984e-18)
(0.00289335 -0.00515635 1.63028e-18)
(-0.000225385 -0.00175102 -7.21009e-18)
(-0.00020582 -0.00172999 -6.96629e-18)
(-0.000738195 0.000217129 5.29155e-19)
(-0.000757499 0.000186089 2.46755e-19)
(-0.000728282 0.000177291 3.5734e-19)
(-0.00304094 -0.00286426 4.18154e-19)
(-0.00293609 -0.0028729 -2.4973e-19)
(-0.00297862 -0.00298671 1.01852e-18)
(-0.00972875 0.00337278 -2.55789e-18)
(-0.0099549 0.00340045 -3.38502e-18)
(-0.00977018 0.00316846 -3.27376e-18)
(-0.000401149 1.17839e-05 3.20909e-18)
(-0.000348285 4.6395e-05 2.27893e-17)
(-0.011246 0.0055788 -9.54177e-18)
(-0.0114097 0.00549478 -6.94972e-18)
(-0.0113794 0.00569294 8.45336e-19)
(-0.00173526 -0.00435209 3.24032e-18)
(-0.00182249 -0.0042953 -2.32365e-20)
(-0.00185239 -0.00439182 1.938e-19)
(-0.00412827 -0.00157383 -2.20391e-18)
(-0.00401676 -0.00165805 -7.05368e-19)
(-0.00400952 -0.00150767 2.84371e-18)
(0.0239128 0.00717374 3.81834e-18)
(0.0208838 0.00677254 7.0739e-18)
(0.0134518 0.00598814 -1.68252e-17)
(-0.00269074 -0.003827 5.53804e-20)
(-0.00279944 -0.00374908 5.0438e-19)
(0.0431782 0.0108979 -3.73164e-18)
(0.0425179 0.0109833 -3.40478e-19)
(0.0410634 0.0118172 5.48141e-18)
(0.0269389 0.00152587 5.34408e-18)
(0.0262973 0.00148678 7.57434e-18)
(-0.0283582 -0.0160992 9.16933e-18)
(-0.000615003 -0.0155385 -8.07019e-18)
(-0.000496725 -0.00237075 2.26765e-18)
(-0.000505021 -0.00242962 9.21176e-18)
(-0.000468431 -0.00239631 -1.64397e-18)
(-0.00015115 -0.00317323 -6.30803e-19)
(-0.000154457 -0.00315249 -3.49163e-17)
(-0.000172152 -0.00316009 -4.3662e-18)
(-2.06437e-05 -0.000250364 2.14771e-18)
(-2.05638e-05 -0.000238194 -6.94362e-19)
(-1.44369e-05 -0.000203127 1.1548e-18)
(-0.0130253 0.00449307 -4.28063e-18)
(-0.012894 0.00420861 -1.08835e-17)
(-0.0112845 0.00779419 3.04852e-18)
(-0.0111428 0.00806659 4.31468e-18)
(-0.0137852 0.00780011 -9.17513e-18)
(-0.0139199 0.00741777 -1.96464e-18)
(-0.00306657 0.000843161 4.09735e-19)
(-0.00297629 0.000902977 9.74267e-19)
(-0.0101708 0.00184931 4.07643e-18)
(-0.0101667 0.00205363 -1.01505e-17)
(-0.0104103 0.00193002 -1.47484e-17)
(-0.00142674 7.70672e-05 -1.01551e-20)
(-0.00148504 7.32164e-05 -1.41902e-20)
(-0.00144807 2.68251e-07 -4.4755e-19)
(-0.000107803 -0.00311453 -2.03962e-18)
(-0.000122353 -0.00312515 1.79933e-17)
(-0.0021554 -0.0044511 -4.48302e-19)
(-0.00204719 -0.00437898 -1.38227e-18)
(-0.00218786 -0.00433127 4.23227e-19)
(0.00333912 0.00146848 -6.51763e-18)
(0.00301089 0.00159613 -1.76113e-17)
(0.0039731 0.00129904 2.03994e-18)
(-0.0121278 0.00871857 6.68381e-18)
(-0.0122914 0.00848806 1.41678e-17)
(-0.0119968 0.00841181 -4.86558e-18)
(-0.00157898 -0.00175728 -2.33917e-18)
(-0.00159761 -0.00181226 -1.98764e-18)
(-0.00154581 -0.00177596 -2.71425e-18)
(0.0533322 0.00449211 3.81005e-18)
(0.053634 0.00451565 1.18924e-17)
(0.0531116 0.00468641 1.7089e-17)
(-0.00151689 -0.00451013 -2.72684e-19)
(-0.00143756 -0.00454323 2.23039e-18)
(-0.00153309 -0.00459075 -2.89765e-18)
(0.0201079 0.00045092 -6.77807e-18)
(0.0202095 0.000703938 1.72132e-17)
(-0.000261865 -0.000700092 -2.71995e-17)
(0.000166993 -0.000531769 -4.7482e-17)
(0.054971 0.0062425 6.54307e-18)
(0.0565363 0.00757662 1.37911e-18)
(-0.00092675 -0.000625966 -7.98778e-19)
(-0.00096474 -0.000643156 -3.05256e-18)
(-0.000946904 -0.000663895 -1.92374e-18)
(-0.00522098 -0.00662728 1.69892e-18)
(-0.00534886 -0.00645157 -1.16532e-17)
(-0.00454539 -0.00417363 -1.10959e-17)
(-0.00464613 -0.00401733 -3.41508e-18)
(-0.00088246 0.000224078 2.27854e-19)
(-0.000853759 0.000195231 3.4298e-19)
(-6.9096e-05 -0.000316369 -4.81378e-19)
(-7.934e-05 -0.000314575 -1.47164e-18)
(-0.000828082 -0.00335588 -9.16077e-18)
(-0.000782212 -0.00332111 -1.2116e-17)
(-0.000836142 -0.00329998 2.61283e-18)
(0.0184277 0.000864809 -3.34768e-18)
(0.0188554 0.00112434 -4.03781e-18)
(-0.00439809 -0.0093911 -4.18595e-18)
(-0.00455241 -0.00969389 -6.23725e-18)
(-0.00426712 -0.00964678 -1.54857e-17)
(0.0268239 0.00733456 3.22192e-17)
(0.0391206 0.0108149 -5.47597e-19)
(-0.00657148 -0.00116724 7.16176e-19)
(-0.00645551 -0.00128196 3.55605e-18)
(-0.00664991 -0.00132224 4.56853e-18)
(-0.011945 0.00681025 -7.9281e-18)
(-0.0120429 0.00684931 -1.07785e-17)
(-0.0122848 0.00666609 -1.23946e-17)
(0.0103706 0.0126096 9.06462e-18)
(0.0218356 0.0131906 -2.04321e-18)
(0.021935 0.0137772 4.91694e-18)
(0.0248433 0.00696057 -1.10535e-18)
(0.0224058 0.00683248 3.25393e-17)
(-0.00285399 -0.00848473 6.13756e-18)
(-0.00304294 -0.00861976 5.26158e-18)
(-0.00298279 -0.00880735 -8.79974e-18)
(-0.000152586 -0.000416805 5.45376e-19)
(-0.000143399 -0.00040948 -2.05882e-18)
(-0.00014145 -0.000423793 1.15033e-18)
(9.99376e-05 -0.00241309 -1.9157e-17)
(0.000187821 -0.00242375 -3.89606e-17)
(0.000142601 -0.00230346 -1.56188e-19)
(-8.28465e-05 -0.00320305 2.01091e-17)
(-0.000114354 -0.00316565 -2.10006e-17)
(-0.000207351 -4.70007e-08 7.79559e-19)
(-0.000207561 3.89553e-07 4.30669e-19)
(-0.00120042 -0.000494399 -1.38693e-18)
(-0.00124012 -0.000480357 1.08059e-18)
(0.00144015 -0.00529922 -1.36862e-18)
(0.00127389 -0.00513855 -1.66275e-17)
(0.00115439 -0.00535944 -5.32624e-18)
(-0.00400789 -0.00941064 -1.03295e-17)
(-0.00420143 -0.00934407 9.33703e-18)
(0.00597846 -0.00517491 -4.74544e-18)
(-0.00411513 0.00307319 -4.73804e-19)
(-0.00423959 0.00317269 -2.43231e-18)
(-0.00428721 0.0030005 -8.2238e-19)
(-0.000116186 -2.09375e-05 -3.05527e-22)
(-0.000114559 -1.33539e-05 -1.45912e-18)
(-0.00982058 0.00254283 -4.19641e-18)
(-0.00958542 0.00247618 1.03202e-17)
(-0.00983456 0.00228688 5.50832e-18)
(-0.0097235 0.00360889 1.25146e-17)
(-0.00949242 0.003406 -2.20104e-19)
(0.0263637 0.00168757 5.21274e-18)
(0.0262925 0.00152255 1.08117e-18)
(-0.0109671 0.000515036 4.45368e-18)
(-0.0131214 0.0013521 3.63936e-18)
(-0.0274091 -0.00216369 -4.82885e-18)
(-0.000227972 -0.00105981 -4.3907e-18)
(-0.00022426 -0.00109742 -1.64014e-18)
(-0.000718852 -0.00124904 -1.1162e-18)
(-0.000716062 -0.00124026 -3.66214e-19)
(-0.0102734 0.000575307 2.70393e-18)
(-0.0104983 0.0006505 -7.43688e-18)
(0.0220657 0.00282575 8.62049e-18)
(0.023123 0.00333422 5.5615e-18)
(0.0234001 0.00345735 -4.64014e-18)
(-0.000386662 -0.00176419 1.18286e-17)
(-0.000410949 -0.00176036 1.39166e-17)
(0.0224834 0.00301616 -5.46188e-18)
(0.0228285 0.00310667 3.59374e-18)
(0.0237142 0.00357312 -1.28325e-17)
(0.0258987 0.00165395 -3.31179e-18)
(0.0260456 0.00147352 -1.04531e-17)
(0.0261363 0.00156346 -5.71482e-18)
(-0.0119471 0.00687096 1.142e-18)
(-0.0118206 0.0067028 1.19577e-17)
(-0.000592807 -0.000134442 7.27735e-19)
(-0.000622108 -0.000140891 7.03149e-20)
(0.00201505 -0.00193915 -2.77018e-17)
(0.00229683 -0.00213935 -2.91737e-17)
(0.0023065 -0.00167203 -3.34409e-17)
(-0.00971947 0.00103863 3.78303e-19)
(-0.00991372 0.000892634 -6.47877e-18)
(-0.00967352 0.000818592 -2.19875e-19)
(0.0128707 0.000821131 1.62352e-17)
(0.0132985 0.00031042 -5.16342e-18)
(0.0135565 0.000621352 -1.29476e-17)
(-0.000483799 -0.000814274 2.75981e-18)
(-0.000502833 -0.000804159 1.21866e-18)
(-0.000505006 -0.000838727 7.84585e-19)
(0.0708472 0.00596763 1.79309e-17)
(0.0716342 0.0061185 2.19021e-17)
(-0.000886448 -0.00061496 3.38569e-18)
(-0.000900419 -0.000594205 6.73964e-19)
(-0.00819847 -0.00608298 -4.39011e-18)
(-0.00825982 -0.00582455 -8.61624e-19)
(-0.00800466 -0.00589793 -8.44641e-18)
(-0.000233364 -1.45328e-05 1.16347e-18)
(-0.000231419 -1.22111e-05 1.92675e-18)
(0.0273277 0.00135276 9.41413e-18)
(0.0269674 0.00123183 6.98791e-18)
(0.0270965 0.00129568 -4.80003e-18)
(0.0520376 0.00650492 7.97593e-18)
(0.0525028 0.00648324 -3.54945e-18)
(0.0573704 0.00792764 -2.67853e-18)
(-0.00151619 -0.0028819 7.35719e-18)
(-0.00158662 -0.00284099 -1.1053e-18)
(0.000111569 -0.00718766 7.82699e-18)
(-0.00323114 -0.00930564 9.96285e-19)
(9.3471e-05 -0.00703014 1.03468e-17)
(-0.00424964 -0.00162892 4.11088e-19)
(-0.00421962 -0.00148112 8.42975e-19)
(-0.000573631 -0.000129571 3.44012e-20)
(-0.000562963 -0.000115616 6.78962e-19)
(0.0190485 0.0107593 -3.35887e-18)
(0.0236401 0.0101361 -4.70098e-18)
(-0.0122433 0.00903751 -1.4249e-17)
(-0.0119029 0.00896694 -3.17882e-18)
(-0.00649358 -0.0010158 5.49787e-19)
(-0.00666727 -0.00103881 -6.40376e-18)
(0.032955 0.00697288 -3.00001e-18)
(0.0309899 0.0061596 -3.35456e-18)
(0.0328948 0.00703992 -6.47043e-18)
(0.0255944 0.00152776 -1.06679e-18)
(0.0261135 0.00202021 -2.83439e-18)
(-0.000269032 -6.35754e-06 5.63096e-20)
(-0.000271854 -7.00244e-06 -7.12973e-19)
(-0.000264756 -4.8718e-06 1.0874e-18)
(-0.0033598 -0.00261397 3.57723e-19)
(-0.00330494 -0.0027425 4.5808e-19)
(0.0279792 0.00160953 3.66302e-18)
(0.028157 0.00155117 9.63333e-18)
(0.00985708 0.00588577 -3.95526e-18)
(0.00764476 0.00551369 1.52572e-17)
(0.00968502 0.00595104 3.00801e-18)
(-2.1101e-05 -0.000255245 -7.52775e-19)
(-2.59815e-05 -0.000288882 2.6783e-18)
(-0.000298265 -0.000297081 -2.0424e-18)
(-0.000316485 -0.000293957 9.67249e-19)
(-0.000313961 -0.000312152 -7.37371e-20)
(0.0228596 -0.00213059 8.64785e-18)
(0.0222014 -0.00234261 1.46953e-17)
(-0.0136744 0.00368846 1.51099e-18)
(-0.0135759 0.0039391 -5.55552e-18)
(-0.013877 0.00390281 -6.13814e-18)
(-3.42505e-06 -8.42104e-06 -3.88751e-19)
(-1.49139e-06 -6.12699e-06 2.52817e-19)
(-3.31396e-06 -1.05205e-05 -3.81836e-19)
(0.0111444 0.00737254 -1.74896e-18)
(0.010488 0.00719894 3.79131e-18)
(-8.37222e-05 0.00650735 -1.46444e-17)
(-0.0117832 -0.00305796 4.86806e-19)
(-0.0119434 -0.00274754 -6.80722e-18)
(-0.0116104 -0.00273586 -3.76305e-18)
(-0.000153304 -0.00319608 1.73163e-18)
(-0.000176552 -0.00317735 2.63448e-17)
(-0.00395133 -0.00348473 -1.18007e-18)
(-0.00398238 -0.00364535 -2.60881e-18)
(-0.00410105 -0.00348471 3.27656e-18)
(-2.82901e-05 -0.000271856 -5.17143e-18)
(-2.03051e-05 -0.000227792 -2.65312e-18)
(-0.00106281 -0.00444867 5.56174e-18)
(-0.00113534 -0.00433446 3.79378e-18)
(-0.000980756 -0.00433962 7.49661e-19)
(0.0255391 0.000270982 -4.68002e-18)
(0.0267998 0.00183594 2.5668e-18)
(0.0255479 0.00212646 2.01566e-17)
(-0.000949388 0.00130181 7.82726e-21)
(-0.000908979 0.00137287 3.90758e-19)
(-0.00100478 0.00137525 6.39857e-19)
(-0.00466096 -0.0073191 -3.58903e-18)
(-0.00452916 -0.00712426 7.32784e-19)
(-0.00481909 -0.00712905 -2.86406e-18)
(0.000614062 -0.00242152 3.94955e-17)
(0.000655831 -0.00255064 -3.16032e-17)
(0.000765531 -0.00239871 5.66666e-18)
(-0.00167758 -0.000233808 6.35574e-20)
(-0.00171963 -0.000179969 4.65034e-19)
(-0.000653461 -0.00125541 -1.49346e-19)
(-0.00063543 -0.00127813 -2.79168e-18)
(-0.0103329 0.00559644 4.76191e-18)
(-0.0105448 0.00553627 -4.60679e-18)
(-0.0104611 0.0057657 4.49077e-18)
(0.0206019 -0.00250169 1.26516e-18)
(0.0213902 -0.00242658 3.66358e-18)
(0.0212463 -0.00242102 -2.56437e-19)
(-0.011084 0.00569671 -8.86529e-18)
(-0.0110933 0.00547235 5.95012e-18)
(-0.000870175 -0.00339712 -4.27997e-18)
(-0.000814631 -0.00343248 -3.79644e-18)
(-0.00125634 -0.00298192 -1.08701e-17)
(-0.00122663 -0.00305584 -1.06785e-18)
(-3.31434e-06 -1.82064e-05 -1.3729e-18)
(-3.07404e-06 -1.57746e-05 6.01895e-19)
(-1.09234e-06 -1.00591e-05 -2.1579e-18)
(0.0226236 -2.72404e-05 4.99321e-19)
(0.022542 7.61391e-06 -1.8313e-18)
(0.0795936 -0.00123477 4.12814e-18)
(0.0791025 -0.00116183 -2.10341e-18)
(0.0791328 -0.00147421 3.00427e-18)
(0.0172755 0.00606681 1.82501e-18)
(0.0191403 0.00584235 2.09833e-17)
(0.0203667 0.00533685 1.06551e-17)
(-0.000561716 -0.000124575 -1.70099e-20)
(-0.00058687 -0.000137192 1.05483e-19)
(0.0242643 0.000674919 -5.69961e-18)
(0.0249418 0.000342725 -6.31642e-18)
(0.0243386 0.000340345 7.44122e-18)
(0.0262869 0.00111143 1.30906e-19)
(0.0261032 0.000915336 -9.26756e-18)
(0.0255249 0.000885022 -1.28383e-17)
(0.0445771 0.0103282 -7.40038e-18)
(0.0434032 0.0107845 -8.95318e-19)
(0.0144953 -0.00195654 3.39793e-18)
(0.0148107 -0.00194052 2.3241e-18)
(-0.0119927 0.0107265 6.23882e-19)
(-0.0121326 0.0112258 2.42498e-18)
(-3.54047e-05 -0.0003118 -3.97802e-18)
(-0.000202481 -1.76599e-05 -3.35293e-19)
(-0.000194166 -1.98265e-05 1.52458e-18)
(-0.000204756 -2.83504e-05 2.26034e-18)
(-0.00919645 -0.000645609 -7.99065e-20)
(-0.00904079 -0.000485476 4.12097e-18)
(-0.00928796 -0.000447107 7.0472e-18)
(0.0268389 0.00120013 3.88352e-18)
(0.0265831 0.00120317 -1.02543e-17)
(0.0265329 0.00123449 4.86694e-18)
(-0.0132386 0.000361584 6.67556e-19)
(-0.0132937 0.00014678 1.2844e-17)
(-0.0135762 0.000329956 6.10033e-18)
(-0.00372815 -0.000447241 5.95811e-20)
(-0.00383413 -0.000370233 5.20351e-20)
(-0.00660205 0.0004466 1.13909e-17)
(0.0184202 0.00632758 1.25188e-17)
(-0.00601415 0.00981631 1.18519e-18)
(-0.00567193 0.00977524 -8.08816e-18)
(-0.000110646 9.05057e-05 -2.68932e-19)
(-0.000125692 0.000107443 3.94157e-19)
(-0.000102886 0.000107215 -8.74427e-20)
(0.0705719 0.000727513 -5.50871e-18)
(0.0730206 0.00200574 -3.66118e-18)
(0.0780611 0.0048433 -1.37517e-18)
(-0.000124454 -0.000147597 5.56336e-19)
(-0.000121136 -0.000139653 -1.29087e-19)
(-0.000115011 -0.000145933 2.90797e-19)
(0.0530309 0.00460764 -7.16986e-18)
(0.0519726 0.00419868 -8.88894e-18)
(-0.00397798 0.00293736 8.63487e-19)
(-0.00392114 0.00310505 -2.67954e-18)
(-3.72559e-06 -6.53497e-06 2.85303e-19)
(-5.90275e-06 -1.05881e-05 1.92717e-18)
(-0.00169389 -0.00313994 -5.50177e-18)
(-0.00168766 -0.00322314 -6.89602e-21)
(-0.00162619 -0.00315764 -3.46903e-18)
(-0.00167036 -0.00441442 -5.39817e-19)
(-0.00165066 -0.00432784 7.78636e-19)
(-0.000190877 -0.00312799 -5.60294e-18)
(-0.000164304 -0.00312584 1.61266e-17)
(0.0179355 0.00699851 -2.78219e-18)
(0.0128816 0.00804822 -9.78784e-18)
(-0.00163036 -0.00371356 2.63547e-18)
(-0.0016111 -0.00380461 1.96334e-19)
(-0.00153747 -0.00372467 1.88886e-18)
(-0.00149614 0.00115211 -3.47665e-19)
(-0.00157578 0.00114221 -1.29987e-18)
(-0.00150584 0.00110453 -1.3027e-19)
(-0.00729159 -0.0110024 1.0312e-17)
(-0.00698799 -0.0111207 1.13151e-18)
(-0.0117255 -0.0120892 1.39875e-17)
(0.0348223 0.00770182 1.86327e-18)
(0.0327335 0.00672434 9.29748e-18)
(0.0786121 -0.00109969 4.10468e-18)
(0.0787742 -0.00163224 9.54157e-18)
(-0.000468472 -0.000827975 3.46995e-18)
(-0.000458929 -0.000796793 1.88086e-18)
(0.0467435 0.0079303 1.16686e-18)
(0.0465493 0.00800659 6.64781e-18)
(0.0474322 0.00733463 2.40214e-18)
(-1.04978e-05 -0.00059086 7.1219e-20)
(-1.47699e-05 -0.000590036 -2.00758e-18)
(-1.34819e-05 -0.000606554 7.65139e-19)
(-0.00142508 0.00117241 5.75134e-19)
(-0.0015047 0.00121363 5.29023e-19)
(-0.000287593 -0.000605438 -2.01519e-18)
(-0.000301533 -0.000617359 -2.50129e-18)
(0.00307991 -0.00630708 -4.15551e-19)
(0.00356274 -0.00577998 5.75667e-18)
(-7.94341e-05 -2.98541e-05 2.68554e-18)