/*--------------------------------*- C++ -*----------------------------------*\
| =========                 |                                                 |
| \\      /  F ield         | OpenFOAM: The Open Source CFD Toolbox           |
|  \\    /   O peration     | Version:  v2012                                 |
|   \\  /    A nd           | Website:  www.openfoam.com                      |
|    \\/     M anipulation  |                                                 |
\*---------------------------------------------------------------------------*/
FoamFile
{
    version     2.0;
    format      ascii;
    class       volVectorField;
    location    "50";
    object      U;
}
// * * * * * * * * * * * * * * * * * * * * * * * * * * * * * * * * * * * * * //

dimensions      [0 1 -1 0 0 0 0];


internalField   nonuniform List<vector> 
13917
(
(1.05451 0.128297 0)
(1.01177 0.0422199 7.12611e-21)
(0.450327 -0.0090521 -2.19126e-20)
(1.07262 0.00370903 0)
(0.99592 -0.00102247 0)
(0.362391 -0.0180108 0)
(0.402625 -0.00865095 1.23717e-20)
(0.458407 -0.00675443 0)
(0.390983 -0.00905886 1.92101e-20)
(1.07976 0.156697 -1.05853e-20)
(1.15802 0.0444388 5.6771e-20)
(1.14166 0.0213617 0)
(1.07391 0.00312983 5.74697e-21)
(0.0639715 0.00158318 0)
(0.956392 0.0804833 -2.51339e-20)
(0.978355 0.079715 0)
(1.00533 0.0454816 0)
(1.11311 0.077578 -2.87371e-20)
(1.14097 0.0198961 2.95996e-22)
(1.00093 0.00373625 -7.12578e-21)
(0.999945 0.000333026 -5.0861e-21)
(0.388424 -0.00897436 4.30207e-22)
(0.999992 0.00569954 4.58901e-21)
(0.497864 -0.00664168 2.98374e-20)
(0.992706 0.00982998 1.56749e-21)
(0.405679 -0.00841993 0)
(0.782668 -0.000577143 1.38216e-21)
(0.750503 0.0816453 6.97289e-20)
(0.704604 0.494537 -6.8309e-20)
(1.12205 0.128443 0)
(1.06689 0.124001 0)
(1.03431 0.0951317 0)
(0.832484 0.0389779 0)
(0.911584 -0.0184835 -2.01905e-20)
(0.989604 0.00591288 5.0801e-21)
(1.03741 0.0258415 8.79646e-21)
(0.999988 0.00530992 5.99315e-21)
(0.162059 -0.00497762 0)
(1.08558 0.00348069 0)
(0.21552 0.00619108 4.71026e-20)
(1.00752 0.000783551 -1.29766e-22)
(0.999988 0.000177981 -1.58875e-20)
(1.02133 0.00380881 1.00371e-21)
(0.692655 0.155098 0)
(1.03457 0.0322348 0)
(0.891507 -0.0074587 5.66124e-21)
(1.1127 0.0756851 2.46081e-20)
(1.12904 0.0651165 -1.84365e-20)
(0.101175 0.0421437 -2.50352e-19)
(1.00282 0.000686926 -5.41279e-21)
(1.08227 0.0458743 0)
(0.964384 -0.00125909 -1.95057e-20)
(0.066378 0.00467232 1.81707e-19)
(0.906855 -0.0178699 -6.74316e-20)
(1.00397 0.046227 0)
(1.07063 0.0634038 4.32131e-21)
(1.15713 0.0449276 -4.69815e-20)
(0.990363 0.0242713 1.50708e-20)
(1.05685 0.0625715 0)
(1.03321 0.0312894 0)
(0.783009 0.0894691 -7.64189e-21)
(1.01319 0.0426815 -9.86927e-21)
(0.0427739 9.42188e-05 -1.65261e-20)
(1.00099 0.00405152 -3.15536e-21)
(0.386949 -0.00410454 0)
(1.16806 0.385525 9.34792e-20)
(0.995595 -0.00509657 8.06712e-22)
(0.988458 -0.0082457 0)
(1.14984 0.0653543 0)
(1.02682 0.133106 -4.56277e-22)
(0.996282 -0.00068116 -6.30893e-21)
(0.431766 -0.00978999 2.36068e-20)
(0.0469589 -0.0101737 0)
(0.993302 0.00959066 0)
(0.101843 0.114644 0)
(1.15098 0.0110238 -2.30839e-20)
(0.0365783 -0.0051769 0)
(1.04852 0.0403074 0)
(0.41036 -0.00597132 1.13379e-20)
(0.999807 0.000846559 8.9032e-21)
(0.999875 0.00184552 -1.3082e-20)
(0.996129 -0.00475597 1.90606e-20)
(0.403313 0.0598399 1.58243e-20)
(0.181087 -0.00600239 0)
(-0.000277759 -0.000392487 0)
(1.04809 0.0388283 -1.56833e-21)
(1.00002 0.00275322 0)
(1.20937 0.419162 -1.50526e-20)
(1.0811 0.044972 0)
(1.02189 0.00391353 4.62025e-22)
(0.0957077 -0.0100206 4.99049e-20)
(1.10592 0.148771 0)
(1.01865 0.0258757 -6.39071e-21)
(0.965019 0.042505 -1.2587e-20)
(1.18496 0.425059 0)
(0.391071 -0.0768404 5.72712e-20)
(1.1476 0.0535225 0)
(1.1244 0.0684508 -1.22706e-20)
(1.16271 0.0230053 -2.94623e-21)
(0.606241 0.0771039 9.86559e-20)
(1.00999 0.00602198 -3.89876e-21)
(0.846647 -0.0270472 -4.74609e-20)
(0.684141 0.140544 0)
(1.05869 0.0373456 -1.11574e-20)
(1.01435 0.0133164 1.76644e-21)
(0.455834 -0.00529699 3.26749e-20)
(0.779982 0.43917 5.29444e-20)
(1.13044 0.065921 4.29901e-21)
(1.00692 0.0464799 -3.65206e-21)
(1.06409 0.134712 1.03832e-20)
(-0.0232028 -0.0194078 3.34471e-20)
(0.22398 0.00713903 -5.01934e-20)
(1.14989 0.0232543 4.20084e-21)
(0.425205 -0.00777686 -3.54233e-20)
(0.947646 -0.00531063 1.76632e-20)
(0.0963826 -0.216419 -7.19664e-20)
(0.998678 0.0105621 3.50696e-21)
(0.199951 0.00653994 1.14423e-19)
(0.1656 0.00318175 -2.35633e-20)
(0.906493 -0.00523268 -2.30191e-20)
(0.999969 0.000354648 1.25293e-20)
(1.14863 0.0656875 0)
(0.150733 0.0017076 -1.3083e-20)
(0.759836 0.0758329 0)
(1.00431 0.000635577 0)
(0.966774 0.0402559 3.6901e-20)
(1.02875 0.0339676 7.87915e-22)
(1.00398 0.000500812 -1.28488e-21)
(1.01811 0.00240108 8.65322e-22)
(0.364321 -0.0642875 3.95787e-20)
(0.22084 -0.00194285 4.24006e-20)
(0.950216 -0.00589094 -1.43393e-20)
(1.03453 0.0333317 2.05781e-23)
(0.999962 0.000236166 0)
(1.18939 0.104662 -2.30875e-20)
(0.507827 -0.00743732 -2.9364e-20)
(1.05171 0.131237 0)
(0.582681 0.0766907 7.41561e-20)
(0.995217 -0.00486102 3.97702e-21)
(0.908075 -0.00934804 0)
(1.1262 0.0372018 0)
(1.02302 0.0164897 4.03772e-21)
(0.959428 0.0100486 4.21314e-20)
(0.646776 0.148313 1.07633e-19)
(0.987698 -0.00800443 -5.20918e-22)
(0.601433 0.00519952 2.85521e-20)
(0.769778 0.500108 -8.61858e-21)
(0.966134 -0.000458511 1.43204e-20)
(1.02209 0.0139932 2.59055e-21)
(1.02812 0.101269 -1.40676e-22)
(1.1269 0.0479737 -4.24375e-20)
(0.104077 -0.24961 7.97762e-20)
(1.14423 0.0401157 4.65113e-20)
(0.990128 0.163109 -1.0694e-20)
(1.05491 0.0792739 4.92967e-21)
(0.0234996 0.0476135 -1.58381e-19)
(1.02363 0.129924 -5.57529e-22)
(0.978986 0.0367641 2.08949e-20)
(0.0216145 -0.00423324 -8.51926e-21)
(1.18502 0.104931 2.35839e-20)
(0.934217 0.0279184 1.82961e-20)
(0.7883 -0.060312 4.05099e-20)
(0.999903 0.00114484 -4.1829e-21)
(1.14692 0.0523698 -5.38439e-21)
(1.14859 0.0236782 6.74735e-21)
(1.16068 0.0230209 7.72221e-22)
(1.05738 0.0378013 4.06123e-21)
(1.12603 0.0573454 1.18355e-20)
(1.02873 0.0265769 1.4251e-21)
(0.8402 -0.0320662 0)
(1.00697 0.159597 0)
(-0.141258 -0.0133098 0)
(1.1532 0.0210438 3.31015e-20)
(1.00105 0.0534608 4.30647e-21)
(0.705687 0.0135344 -2.58366e-20)
(0.978153 0.179312 0)
(0.236008 -0.00349017 -3.98944e-20)
(0.16354 0.00494519 8.54036e-24)
(0.647017 0.008348 -2.65892e-20)
(1.00737 0.0259465 0)
(1.10977 0.146374 -1.94336e-20)
(1.07078 0.124233 -1.01699e-20)
(1.02368 0.0161574 -7.88967e-22)
(0.999999 0.00299704 0)
(0.920709 0.0930187 1.84385e-20)
(0.439349 -0.00860177 -2.37607e-20)
(1.15326 0.159275 2.30246e-20)
(0.120762 0.0562179 7.27193e-20)
(1.09062 0.0788355 -1.43133e-20)
(1.15695 0.0292965 2.65159e-20)
(1.13683 0.0497279 0)
(0.0610505 0.0065946 2.27683e-20)
(1.14919 0.183982 1.4517e-20)
(0.998845 0.00496713 -5.03069e-21)
(0.564523 0.00904382 1.49717e-19)
(0.792965 0.00224075 5.17917e-20)
(1.00678 0.000315761 0)
(1.01864 0.0268818 -2.63188e-21)
(0.837695 0.38101 0)
(1.13597 0.41275 -2.90306e-20)
(1.08668 0.0269035 6.1915e-21)
(1.00257 0.000607786 0)
(1.12417 0.0530332 -9.14146e-21)
(1.12637 0.0466159 3.79403e-20)
(0.0268894 -0.00878931 0)
(1.17854 0.0928618 -5.25969e-20)
(0.990088 0.00511131 -1.55837e-20)
(0.989439 0.0251402 -1.26043e-20)
(1.12426 0.0665839 1.40126e-20)
(0.454641 -0.0097206 0)
(0.961536 0.0107885 -4.23663e-20)
(0.393234 -0.00934732 -3.11742e-20)
(-0.00734288 -0.00691656 -1.64656e-20)
(1.15627 0.0297795 -2.12156e-20)
(1.01389 0.0134666 -3.28397e-21)
(0.478657 0.335992 -2.88907e-19)
(1.12071 0.0631066 0)
(-0.0872489 -0.013501 0)
(0.999784 0.0153294 0)
(0.945966 0.125541 5.08442e-20)
(1.00724 0.0249407 1.80343e-21)
(1.12179 0.11492 -5.96395e-21)
(1.00735 0.000975592 0)
(0.15545 -0.00780097 0)
(0.444112 -0.0054931 0)
(0.978541 0.0831346 0)
(1.0999 0.409441 7.33607e-20)
(1.05753 0.0794724 0)
(1.01324 0.012858 -7.6528e-22)
(1.06701 0.0298724 1.10646e-20)
(1.15269 0.0195464 -1.6681e-20)
(1.0908 0.0767617 2.68663e-20)
(0.509611 -0.00693742 -1.13033e-20)
(-0.0217127 -0.0054952 -1.11775e-20)
(1.01129 0.00327479 0)
(1.03668 0.0968003 -1.80165e-22)
(0.117031 -0.0109673 -2.09778e-20)
(-0.0627488 0.00444598 0)
(0.999859 0.00126692 5.17745e-21)
(1.00456 0.00824725 -8.47568e-21)
(0.24691 0.00897589 4.54073e-20)
(1.14922 0.0566953 6.94881e-21)
(1.00003 9.24031e-05 3.25544e-21)
(1.14847 0.0360644 0)
(1.13103 0.0869708 -9.4598e-24)
(0.798484 -0.0647165 -2.05116e-20)
(1.05591 0.116851 0)
(0.999905 0.00130297 3.05504e-21)
(0.946954 0.179067 0)
(0.000168873 -0.00505425 3.58841e-20)
(1.04582 0.0113893 -9.83898e-22)
(1.11782 0.158618 -4.54798e-20)
(0.565239 0.117749 9.05669e-21)
(1.02884 0.0326715 2.81711e-22)
(0.990056 0.0225433 -4.23742e-21)
(1.13855 0.0364627 1.32072e-20)
(0.267658 0.00666955 -1.96347e-20)
(1.14294 0.0393586 0)
(0.920667 0.0974095 2.88705e-20)
(0.958927 0.0834089 0)
(1.00002 0.000160664 0)
(0.132784 0.00280399 5.83557e-23)
(0.709531 0.0264314 0)
(1.07566 0.025739 8.63356e-21)
(1.01273 0.0130221 0)
(0.00730915 -0.0109655 0)
(0.0777701 -0.000114136 5.98546e-20)
(0.917449 0.0290802 1.13925e-20)
(0.397902 -0.00567367 -1.63049e-21)
(1.15296 0.0116886 0)
(0.999861 0.00167262 9.43479e-21)
(1.00536 0.000788727 0)
(1.11449 0.072789 2.27722e-20)
(0.108701 -0.00603469 -3.04069e-20)
(1.14109 0.0725447 5.57469e-21)
(1.05642 0.060358 3.94528e-21)
(1.17572 0.0930324 2.6178e-20)
(1.12551 0.00401061 -3.46656e-21)
(1.01806 0.00161813 1.62317e-21)
(1.07725 0.0966314 1.16134e-20)
(1.0013 0.0037613 0)
(0.668154 0.0100361 0)
(1.08488 0.0260726 -9.97468e-22)
(1.00005 9.43805e-05 0)
(0.978815 0.0990186 -1.70591e-20)
(0.984821 0.164153 2.40463e-20)
(0.787639 -0.0477476 0)
(1.12609 0.0340237 0)
(0.970841 0.129643 -1.35729e-20)
(1.04553 0.0194213 0)
(1.1488 0.103277 -2.65635e-20)
(0.517496 -0.00596705 1.27843e-20)
(0.619083 0.0149541 4.53949e-20)
(0.999647 0.0147477 0)
(0.900393 0.0303992 -2.22618e-20)
(0.998345 -0.00262468 0)
(1.04603 0.0184629 0)
(0.998952 0.0100454 0)
(0.77993 0.536547 2.4087e-20)
(1.00124 0.000692108 -1.37294e-21)
(1.12418 0.115793 3.28724e-20)
(1.05258 0.115719 0)
(1.02864 0.0254979 6.23594e-22)
(1.12553 0.0522552 0)
(1.02392 0.0613805 -1.86717e-21)
(0.116666 -0.0398153 0)
(0.97845 0.17496 9.91573e-22)
(1.10275 0.146279 2.84433e-20)
(1.02891 0.0190228 0)
(0.990925 0.0217469 3.90437e-21)
(-0.0436599 -0.0190013 1.83984e-20)
(0.133717 0.00135398 2.56357e-20)
(0.998786 0.011197 -1.23217e-20)
(1.00621 0.000851654 0)
(1.12123 0.108464 -2.02786e-20)
(1.01093 0.0254961 0)
(0.0633481 -0.0108512 -1.32441e-20)
(1.02792 0.0186385 3.59806e-22)
(0.16704 -0.00740144 1.15357e-20)
(1.05843 0.00519949 -2.23567e-21)
(1.1171 0.288374 2.50254e-20)
(1.1007 0.0485268 -1.81262e-20)
(0.102892 0.1866 -1.70594e-20)
(0.937966 0.0282078 1.06307e-20)
(1.1775 0.103347 0)
(0.499728 0.235388 -1.0192e-19)
(0.981899 0.0977289 0)
(1.14879 0.0575809 1.58441e-20)
(0.905933 0.450605 -1.12999e-20)
(0.987805 0.0378476 -1.32056e-20)
(0.19005 -0.00337398 0)
(0.57377 -0.0108744 -1.66169e-19)
(0.0854515 -0.000574079 -6.76017e-20)
(0.920096 0.00149893 0)
(0.180853 0.00502313 -5.12536e-20)
(1.04211 0.0970145 -7.81707e-22)
(0.0432584 -0.0156947 7.35558e-20)
(0.51949 0.21648 -7.47797e-20)
(0.884238 0.302716 -2.85787e-20)
(0.899005 0.298777 0)
(0.414957 -0.0103642 -1.3233e-20)
(0.999577 0.000923548 1.14753e-20)
(1.01132 0.1631 -1.26736e-21)
(0.00484398 -0.0201968 0)
(0.97791 0.0216422 7.55703e-21)
(0.987838 0.0656486 7.45275e-21)
(0.0902616 0.00035549 -2.70036e-20)
(0.82509 0.411661 2.44362e-20)
(1.00619 0.0518352 3.61643e-21)
(1.16918 0.0529904 1.89855e-20)
(0.676493 0.469051 9.32436e-20)
(1.00808 0.00506812 -5.06983e-21)
(0.150578 0.00431339 3.5489e-20)
(1.10181 0.0371554 1.69671e-20)
(1.00137 0.0040574 8.14591e-21)
(1.00717 0.0125111 -4.32327e-21)
(0.99859 -0.00265543 0)
(1.02264 0.0137249 -2.56848e-21)
(1.15075 0.102602 1.31316e-20)
(0.673873 0.0105465 2.85666e-20)
(0.404492 -0.351356 1.02473e-19)
(-0.0152829 -0.0200304 -1.57493e-20)
(0.99575 0.0102202 -9.02032e-21)
(1.12202 0.158874 3.98506e-20)
(-0.149258 0.00559809 0)
(1.11371 0.0501813 -2.27138e-20)
(0.380477 -0.00919035 1.39897e-20)
(0.129517 -0.00737759 2.5984e-20)
(0.413504 -0.00796199 9.37981e-21)
(1.01235 0.00605931 5.18288e-21)
(1.10503 0.0247369 0)
(1.00842 0.0123861 -2.37797e-21)
(1.05914 0.146126 -1.10017e-21)
(1.03207 0.0316333 -6.59289e-22)
(0.0730408 0.227842 0)
(1.13136 0.0886473 9.60506e-21)
(1.08087 0.0135634 7.19039e-22)
(0.999346 0.00114484 9.7852e-21)
(1.12258 0.0657628 -3.81936e-22)
(1.11316 0.147974 0)
(1.1257 0.0788158 -4.77326e-21)
(0.285294 0.982734 -1.32905e-20)
(-0.000449913 -0.0176479 -8.19965e-20)
(-0.106972 -0.0118743 -1.20541e-20)
(0.95021 0.186506 -7.60757e-21)
(1.07573 0.153973 0)
(1.00431 0.00778147 9.83045e-21)
(-0.0319958 0.00640356 7.01869e-20)
(0.380061 -0.00837016 2.79073e-20)
(0.993431 0.0289745 -7.78205e-21)
(1.15009 0.100999 0)
(0.994143 0.00588199 1.02257e-20)
(1.15271 0.0908365 1.99248e-20)
(1.058 0.00597902 -4.96794e-21)
(0.999686 0.000709378 -1.04554e-20)
(1.01895 0.0627494 0)
(0.429841 -0.00287577 7.08623e-21)
(1.01725 0.0625573 0)
(0.285285 0.00533133 -1.04057e-21)
(0.0162476 0.0173562 1.72264e-20)
(1.15573 0.0391152 -1.38994e-21)
(0.433722 0.212406 3.01233e-20)
(0.989577 0.037922 1.91839e-20)
(0.483433 0.295873 1.49054e-19)
(0.459959 0.237468 -1.54636e-19)
(1.00067 0.00783222 1.01625e-20)
(0.792851 0.411765 -6.46887e-20)
(0.979334 0.0215689 -1.32242e-20)
(0.99266 0.00731834 -1.69035e-21)
(1.12052 0.130619 0)
(1.00005 0.000241555 0)
(0.991603 0.00894032 -4.77745e-21)
(1.00871 0.0122152 -3.14698e-22)
(1.15568 0.104318 -1.19847e-20)
(0.999877 0.000632099 6.13179e-22)
(0.190263 0.00494098 5.03961e-20)
(0.493421 -0.00606219 -7.42475e-22)
(-0.117078 0.000360304 -6.59692e-20)
(1.14641 0.187853 1.43296e-20)
(0.283819 0.00138068 -8.463e-21)
(-0.0663349 -0.0124614 0)
(1.11308 0.0489626 2.94784e-20)
(0.996188 0.00975488 8.61617e-21)
(1.14276 0.0963425 1.45935e-20)
(1.0841 0.00454485 3.73916e-21)
(1.03925 0.1024 2.84208e-21)
(0.99874 0.00538745 5.7191e-21)
(0.616735 0.00450346 -2.70329e-20)
(0.419145 -0.0100297 -1.23866e-20)
(0.528216 -0.00636461 2.13307e-20)
(0.968386 0.0764211 -3.4499e-20)
(1.13556 0.0848093 1.15751e-20)
(0.923808 -0.00089578 0)
(1.08765 0.00417318 0)
(1.12551 0.0771589 1.61376e-20)
(1.00586 0.0606224 1.07509e-20)
(1.0812 0.0213165 -3.5492e-20)
(1.00823 0.0457029 -1.10531e-20)
(1.00122 0.000815458 8.28171e-21)
(0.0861859 -0.0121434 1.22165e-20)
(0.23132 -0.00278871 4.26944e-20)
(0.245477 -0.00354584 -3.60798e-20)
(1.10068 0.203143 0)
(-0.131731 -0.000408777 4.2619e-20)
(0.209913 -0.00456935 0)
(0.0524736 -0.019546 0)
(0.0555203 -0.00377387 0)
(1.01707 0.00250529 3.29815e-21)
(1.11945 0.0697464 3.99454e-20)
(1.00783 0.0607101 -1.08932e-20)
(0.987038 0.0251088 4.93859e-21)
(1.16393 0.0925882 -3.57279e-20)
(1.11472 0.0745273 -3.55041e-20)
(1.01981 6.45626e-05 4.20925e-22)
(1.11173 0.0974141 -2.65113e-20)
(1.10997 0.0517591 1.29688e-20)
(0.0585234 -0.00274717 0)
(1.00074 0.00822152 -6.2895e-21)
(1.1432 0.0623958 -5.49266e-21)
(0.10976 0.0630962 0)
(1.13386 0.301186 -1.6787e-20)
(0.198719 0.00370586 2.85787e-20)
(0.999898 0.000503278 0)
(0.992311 0.0290881 -1.90008e-20)
(1.01051 0.000468287 0)
(1.01888 0.132278 3.93027e-21)
(1.01234 0.0056443 -4.31827e-21)
(0.477352 -0.008785 -2.36799e-20)
(0.413936 -0.310164 -1.0553e-19)
(0.974141 0.125616 0)
(0.0153733 0.0182802 -5.65145e-20)
(1.07119 0.0614081 0)
(1.14803 0.0512833 3.09204e-20)
(0.0845732 -0.019997 -2.88656e-20)
(0.790313 0.500972 -1.74953e-20)
(1.15506 0.037952 0)
(1.10601 0.0356359 -6.94834e-21)
(1.14421 0.0619443 0)
(1.10619 0.105863 2.62516e-20)
(1.14358 0.0887994 -3.0813e-20)
(1.12168 0.0280583 7.45757e-21)
(1.1606 0.0344535 0)
(0.375298 0.0374398 -3.84003e-20)
(1.12887 0.0202698 4.60025e-21)
(1.1344 0.0633837 -1.07484e-20)
(1.01429 0.000842674 1.47785e-21)
(1.17556 0.10053 1.91676e-22)
(1.08328 0.0496982 2.54375e-21)
(1.03262 0.00755141 0)
(1.01587 0.128614 -2.26737e-21)
(1.05157 0.0397752 0)
(0.0620265 -0.00390913 0)
(0.441107 -0.00810385 -2.10485e-20)
(1.01041 0.024356 0)
(1.01793 0.00131096 1.772e-21)
(0.495511 -0.0091961 -2.35801e-20)
(-0.0825623 -0.0104446 2.42723e-20)
(1.00004 0.000183766 -5.89527e-21)
(0.179384 0.00492563 2.28866e-20)
(1.06307 0.0208869 0)
(1.13933 0.174347 1.07309e-20)
(1.00942 0.0259592 0)
(0.00502058 -0.00877886 1.99999e-20)
(1.1003 0.0626364 -1.1572e-20)
(1.03116 0.10005 -3.75883e-23)
(1.02855 0.043755 -2.5215e-21)
(0.303274 0.000170921 7.25465e-21)
(1.14916 0.158621 -6.88722e-20)
(-0.193419 -0.00395323 0)
(1.00003 0.000217192 0)
(0.000524768 -0.00668206 3.31358e-20)
(0.137333 -0.0347858 1.10902e-19)
(1.11004 0.107987 2.02205e-21)
(1.03258 0.00816119 -6.29193e-22)
(-0.0398968 -0.000469802 5.06004e-20)
(0.392125 -0.0095159 -4.14713e-20)
(1.11577 0.0464733 7.94923e-21)
(1.0077 0.0126702 4.5381e-21)
(0.999514 0.0442874 1.40281e-20)
(1.15228 0.00757377 -4.20044e-20)
(1.1455 0.0887344 -3.1919e-20)
(1.02034 9.65283e-05 -1.11145e-22)
(1.00683 0.011772 0)
(1.00418 0.00221997 0)
(1.00446 0.0023555 0)
(-0.0105994 -0.0100806 0)
(1.16022 0.0934086 -1.2752e-20)
(1.11418 0.0467543 -9.00365e-22)
(1.15268 0.151845 -2.34939e-20)
(1.00541 0.000607925 0)
(1.00958 0.00567987 0)
(1.13491 0.0831431 0)
(0.249327 -0.0141532 0)
(1.08022 0.0815795 -1.02185e-20)
(1.02984 0.0272076 -2.53526e-21)
(0.992822 0.00786662 0)
(0.992468 -0.00580998 1.23756e-20)
(1.06301 0.0960284 4.11559e-20)
(0.126948 0.0131089 2.35661e-20)
(1.00019 0.00271808 -8.72484e-21)
(0.992276 -0.00279428 -5.89243e-21)
(1.10709 0.0263958 3.10154e-20)
(1.12045 0.0290436 1.45762e-20)
(1.10124 0.0473165 -1.18807e-20)
(0.991543 0.0274082 1.27216e-20)
(1.01419 0.0643117 -4.80791e-21)
(1.01972 0.0954832 -1.54368e-21)
(1.1341 0.0618752 1.96217e-20)
(0.903404 0.427303 5.25711e-21)
(1.15493 0.156657 -2.73642e-20)
(1.14398 0.0953091 0)
(1.13638 0.0744042 -2.25287e-20)
(1.17631 0.0906823 3.86067e-20)
(1.10347 0.141946 0)
(0.998974 0.0139399 -1.38251e-20)
(0.00883541 -0.00625629 -3.01569e-20)
(0.992894 -0.00618028 -1.02485e-20)
(0.987839 0.0684234 0)
(1.07694 0.0219396 -1.15739e-20)
(1.17497 0.10008 -1.68551e-22)
(0.950332 0.252191 8.10002e-21)
(1.00907 0.0012737 -5.3619e-21)
(1.13415 0.292389 -1.68978e-20)
(1.12744 0.126203 0)
(-0.00967554 0.0333437 9.04699e-21)
(1.13594 0.0755034 2.42831e-20)
(0.873129 0.106953 0)
(1.11163 0.0526421 -1.43035e-20)
(0.999209 0.001245 -1.37866e-20)
(0.550715 0.00660662 -2.08007e-20)
(1.12567 0.28394 -2.884e-20)
(0.316823 -0.009149 -2.61605e-20)
(1.00805 0.0434648 9.46243e-21)
(1.07728 0.0704551 -1.04831e-20)
(1.15454 0.149674 1.33249e-20)
(0.136591 -0.00821644 -3.34758e-20)
(-0.0651302 -0.00208942 0)
(1.12611 0.0692068 -1.76003e-20)
(1.10637 0.204957 0)
(0.975118 0.0781278 1.12287e-20)
(1.04038 0.0666784 2.23073e-21)
(0.990444 0.0276991 -1.49875e-20)
(0.865089 0.194168 -3.28776e-20)
(0.662958 0.132272 0)
(0.974465 -0.0128801 3.71654e-21)
(1.12047 0.0612806 -1.98076e-20)
(0.56601 0.093552 -8.05016e-20)
(0.3264 -0.00930618 1.64449e-20)
(-0.184968 -0.00277683 0)
(1.01431 0.0741792 0)
(1.14761 0.050161 -1.7654e-20)
(1.13368 0.0654115 2.31119e-20)
(0.981491 0.107304 1.70874e-20)
(0.964592 0.0133251 -9.08042e-21)
(0.155268 0.447485 0)
(0.639855 0.0132871 1.50506e-20)
(0.537515 -0.00101796 1.50975e-20)
(1.15119 0.142876 7.98348e-20)
(1.01791 0.00269734 -2.00881e-21)
(0.156841 0.00341507 0)
(1.15061 0.0090424 4.3773e-20)
(1.00898 0.000941487 4.49565e-21)
(1.06438 0.0925124 -4.47224e-21)
(1.13664 0.0512548 0)
(0.841456 0.0415411 -2.29451e-20)
(1.1209 0.12525 0)
(0.403117 -0.00700331 0)
(1.1427 0.0876096 4.3499e-20)
(1.11596 0.0257996 1.04835e-20)
(0.547901 0.00767697 7.13194e-20)
(1.05108 0.0460938 5.06087e-21)
(0.0415839 -0.00320856 0)
(0.999871 0.00107695 0)
(1.00017 0.00295354 1.1437e-20)
(0.872929 0.0261599 0)
(0.609529 0.00917508 -1.71816e-20)
(0.37202 0.166567 0)
(1.0522 0.0450932 -2.99031e-21)
(1.00265 0.0519837 1.18148e-21)
(0.99264 -0.00220686 1.02517e-20)
(1.12653 0.00574783 8.00919e-21)
(0.0718116 0.0781938 4.8278e-21)
(1.15971 0.0222254 0)
(1.04221 0.0678036 -1.37702e-21)
(1.15426 0.0378182 -2.11521e-20)
(1.12247 0.0639472 0)
(1.0091 0.026644 -1.33598e-20)
(1.08585 0.418093 -1.94493e-20)
(1.15961 0.0208306 0)
(1.03813 0.0139924 -1.58526e-20)
(1.00124 0.0171972 1.09837e-20)
(1.14263 0.0850262 2.60784e-20)
(1.05011 0.0407069 0)
(0.0973171 0.0548795 7.97496e-21)
(1.08413 0.15527 1.1429e-20)
(0.959948 0.247013 -1.06014e-20)
(1.07717 0.0722886 2.06685e-20)
(1.0068 0.00282227 -5.63995e-21)
(1.02907 0.00994126 0)
(1.02984 0.0349311 -5.49764e-22)
(0.925084 0.30479 1.69885e-20)
(0.889182 -0.00278314 1.26852e-20)
(1.15371 0.115046 1.19116e-20)
(0.442075 0.718466 1.36362e-20)
(1.1247 0.0582008 -3.01199e-20)
(1.00762 0.00496972 0)
(1.14148 0.0905622 -1.89657e-20)
(0.366075 0.194111 9.0355e-20)
(1.01171 0.027115 -1.85739e-20)
(1.04467 0.0116455 0)
(0.897141 0.0115487 0)
(1.00632 0.0115642 4.28824e-21)
(1.09996 0.0151888 -3.76345e-21)
(1.05892 0.063082 -9.14639e-23)
(0.369768 -0.0113876 3.33952e-20)
(0.999742 0.000879089 -9.34709e-21)
(1.11738 0.417045 2.63323e-20)
(1.09801 0.018748 8.69679e-22)
(1.15821 0.043103 -1.8328e-21)
(1.10254 0.156043 0)
(0.0379549 -0.00998745 0)
(0.979032 0.246671 -6.32193e-23)
(0.999547 0.0426559 -5.01309e-21)
(0.0887164 -0.00620659 2.65881e-20)
(-0.0752919 -0.00745 0)
(0.999608 0.032043 -3.47596e-21)
(1.07643 0.0204924 1.04092e-20)
(1.11893 0.067356 -2.19334e-20)
(1.14808 0.14399 -4.02362e-20)
(1.14059 0.0712602 -1.15161e-20)
(1.00011 0.000275475 -3.93441e-22)
(1.02983 0.0441309 1.35818e-21)
(1.10829 0.28128 -3.19759e-20)
(1.08234 0.0130364 0)
(1.12415 0.08004 3.91773e-20)
(1.1368 0.0361817 2.24149e-20)
(1.02992 0.00996249 0)
(1.12755 0.0438335 0)
(0.457234 -0.00912777 -2.47742e-20)
(1.04488 0.00973073 -1.95578e-21)
(1.06689 0.00644029 0)
(1.00368 0.00231387 0)
(0.130079 0.00186623 0)
(0.999927 0.000251661 9.14507e-21)
(0.969403 0.0729621 1.67954e-20)
(-0.138702 -0.0152598 2.49396e-20)
(0.980661 0.0605958 1.22634e-20)
(0.657979 0.0168069 2.44018e-20)
(1.05312 0.0811488 -4.99572e-21)
(0.826074 0.0440062 0)
(1.00397 0.00246462 0)
(0.982694 0.192077 -9.80405e-21)
(0.998818 0.00933119 -3.60502e-21)
(1.10277 0.109871 0)
(1.00653 0.00168769 4.72315e-21)
(1.02708 0.234447 6.89234e-21)
(1.0622 0.0215131 -7.598e-21)
(0.466449 0.243116 0)
(0.411539 0.597082 1.22908e-20)
(0.248881 -0.0158148 0)
(1.00995 0.000449509 0)
(0.999471 0.000927127 -7.86883e-21)
(1.10038 0.139078 0)
(1.07655 0.128468 9.44141e-22)
(0.114841 6.41165e-05 1.44284e-20)
(0.319323 -0.0125949 -4.54919e-20)
(1.11231 0.0792888 -4.3425e-21)
(0.991088 0.0057972 0)
(1.1546 0.103297 0)
(0.338717 0.141797 -1.50327e-19)
(1.06277 0.0171083 4.05416e-20)
(1.14922 0.115463 0)
(1.11408 0.0690199 2.42686e-20)
(0.430316 -0.00586176 -3.71327e-20)
(1.04559 0.132937 -5.52272e-21)
(1.1234 0.00411336 3.12973e-21)
(1.13875 0.0997961 0)
(0.822629 0.362068 0)
(1.1105 0.0796159 0)
(0.292685 0.21191 -2.08653e-19)
(1.10832 0.0828969 -1.92457e-20)
(1.0723 0.0118588 4.80011e-21)
(1.13783 0.0518824 0)
(0.985191 0.0998933 0)
(1.03617 0.0102495 -1.03076e-21)
(1.09872 0.0159012 0)
(1.06631 0.131416 0)
(1.02505 0.0991578 0)
(0.997731 0.00881005 0)
(1.00584 0.000497669 0)
(1.12376 0.0609341 5.7455e-21)
(1.06512 0.0299757 4.98331e-21)
(1.12466 0.0817171 -2.57018e-20)
(0.991838 0.00563768 0)
(0.994119 0.00383791 0)
(0.999952 0.000165355 -9.97644e-21)
(1.01015 0.0634647 1.1203e-20)
(1.02513 0.00294029 0)
(1.02713 0.0867186 0)
(1.00322 0.00241006 -6.53864e-21)
(-0.000244975 -0.00909651 -4.92175e-21)
(1.14205 0.0169053 -1.56143e-22)
(0.488615 -0.352091 -8.16595e-20)
(1.01107 0.00558047 4.38307e-21)
(1 0.000990339 -4.31965e-21)
(0.792013 0.107213 -1.38547e-19)
(1.1086 0.105567 -2.69172e-20)
(0.953655 -0.00944939 0)
(0.947443 0.0711937 -2.71369e-21)
(1.07107 0.189868 -1.23354e-20)
(1.19614 0.179374 -1.49727e-21)
(1.09918 0.0179931 0)
(1.13821 0.0863597 1.37394e-20)
(1.05128 0.0283673 5.52852e-21)
(0.999926 0.000480639 0)
(1.00471 0.0021141 8.74322e-21)
(1.02201 0.0618446 0)
(-0.189648 -0.0141299 9.61502e-20)
(1 0.000844678 0)
(1.11764 0.0789934 4.32975e-20)
(1.02768 0.0891512 2.24305e-21)
(-0.144232 0.00866617 -9.17245e-20)
(0.934659 0.194689 3.97534e-20)
(1.07652 0.188917 1.58913e-20)
(1.15752 0.0422721 -6.90891e-21)
(1.0206 0.00835454 0)
(1 3.05804e-05 0)
(1.14264 0.0184644 0)
(0.987797 -0.00331848 0)
(0.97814 0.0350514 0)
(1.05314 0.0858732 -1.87763e-20)
(1.00153 0.0554731 0)
(0.998573 -0.00197728 4.03909e-21)
(1.06492 0.0755702 -5.82678e-21)
(1.00487 0.00713635 -9.17764e-22)
(1.01655 0.00118367 -4.128e-23)
(1.03157 0.0965877 7.33119e-22)
(0.889415 -0.0461083 0)
(0.0974416 0.00107105 1.72675e-20)
(1.04607 0.116913 4.06389e-21)
(1.04517 0.00911761 -2.24097e-21)
(1.00818 0.00096431 3.88221e-21)
(0.158808 -0.00939593 -1.04112e-20)
(0.912108 0.310908 -1.05147e-20)
(0.994238 0.0377283 0)
(1.00929 0.0430641 -1.80428e-21)
(1.02503 0.0842836 0)
(1.12416 0.0676087 0)
(-0.126725 -0.0134517 2.40139e-20)
(0.879947 0.10822 0)
(1.07269 0.0132194 -4.93651e-21)
(1.01088 0.00337964 0)
(1.01683 0.00139301 -6.36631e-22)
(1.12955 0.0218973 0)
(1.04939 0.118651 -8.5947e-21)
(1.173 0.0567122 -3.04821e-20)
(0.916333 0.00107588 0)
(0.173537 -0.00207088 -5.01948e-21)
(1.01916 0.0457618 2.3146e-21)
(0.955932 0.046733 -1.74929e-20)
(-0.140233 -0.0120169 1.27848e-20)
(0.994107 0.00527686 -8.44167e-21)
(1.08497 0.049156 0)
(0.999272 0.0284261 0)
(1.00158 0.00106403 0)
(1.06014 0.133927 -8.67421e-22)
(0.776987 -0.0430491 -4.55342e-20)
(1.04377 0.0388477 0)
(0.623645 0.0119668 8.94772e-21)
(0.238111 0.00623568 -4.84608e-20)
(1.10588 0.153532 0)
(0.999141 0.0145928 -4.76832e-23)
(1.0269 0.00521633 9.40898e-23)
(1.15686 0.0271618 0)
(1.14184 0.0840567 -7.02645e-23)
(1.00004 0.000299075 -4.24925e-22)
(1.17546 0.0875323 5.34089e-20)
(1.02623 0.00525409 0)
(1.06479 0.126973 0)
(1.04014 0.00313237 2.64857e-21)
(1.03682 0.0125269 -6.60699e-22)
(1.14421 0.0906394 0)
(1.03894 0.0241418 0)
(0.766407 -0.00300532 8.21325e-23)
(1.07488 0.108996 1.12174e-20)
(0.999947 8.31288e-05 4.66043e-21)
(1.02058 0.00487059 -1.9284e-21)
(0.981396 -0.00680585 3.27016e-20)
(1.00596 0.0191133 -9.48483e-22)
(1.06561 0.00731019 -2.71757e-21)
(0.247011 0.594956 -4.42848e-22)
(1.04246 0.0112731 0)
(1.03094 0.0154711 3.26059e-22)
(0.342601 -0.0115766 0)
(0.528133 -0.00068223 -3.51652e-20)
(1.118 0.0261455 2.77217e-20)
(1.07266 0.12832 1.10572e-20)
(1.12508 0.0737447 1.58317e-23)
(1.0705 0.0484098 7.41016e-21)
(1.02255 0.0176177 2.17095e-21)
(0.888276 -0.0100528 0)
(0.0215455 -0.00810212 0)
(1.03451 0.235992 -3.38662e-21)
(0.997747 0.00206503 0)
(1.02759 0.0426373 1.92615e-21)
(0.341202 -0.0116886 4.00352e-20)
(1.09865 0.0644187 1.54105e-20)
(0.0250648 -0.0212083 -3.57279e-20)
(0.99992 0.000158552 0)
(0.951128 -0.0090341 0)
(0.118562 0.00194802 -2.70308e-20)
(1.09756 0.0570306 0)
(1.04639 0.0383638 6.54993e-22)
(-0.207018 -0.0133975 7.90981e-20)
(0.204763 0.150185 0)
(1.00634 0.0186813 8.57814e-22)
(1.13694 0.0993907 1.64164e-20)
(1.00499 0.00224664 -7.05954e-21)
(1.03769 0.0237341 3.03149e-22)
(1.01141 0.00590257 -1.1358e-20)
(0.0269271 -0.0124209 -1.56932e-20)
(1.02472 0.00268985 6.02435e-22)
(1.04721 0.00243848 0)
(1.02327 0.0173543 -1.88022e-21)
(0.715744 -0.00533942 -2.29909e-22)
(1.08197 0.00660446 -1.59233e-20)
(1.14214 0.170464 -1.05285e-20)
(0.710919 -0.136647 6.48802e-20)
(1.03821 0.0107173 2.76143e-21)
(0.843985 -0.000371847 7.44199e-20)
(1.00024 0.00262512 0)
(-0.00762219 -0.0202706 0)
(1.00374 0.00915641 0)
(1.04352 0.0109536 0)
(0.998581 -0.00142892 5.45631e-21)
(1.15709 0.028281 -1.79793e-21)
(0.998444 -0.00172219 -3.1919e-21)
(1.14355 0.0862202 -1.71614e-20)
(0.234668 0.00859925 -2.40515e-20)
(0.532525 -0.0067954 -3.55855e-20)
(0.901817 0.0125476 0)
(1.11664 0.0392809 0)
(-0.122666 -0.0162646 -2.48201e-20)
(0.992019 0.0222149 -3.94552e-21)
(0.141669 0.00407819 0)
(0.648926 0.073139 0)
(-0.103428 -0.0168909 -2.4967e-20)
(0.276398 0.00139844 -1.71107e-20)
(0.328903 -0.0118078 0)
(0.209095 0.225708 -3.19802e-20)
(1.14013 0.0903061 -3.46317e-20)
(1.00089 0.0456545 0)
(0.393017 -0.00654693 -1.00425e-20)
(1.09602 0.057857 0)
(0.360192 -0.00778222 -2.23629e-20)
(1.03163 0.00838101 5.67904e-22)
(1.01964 0.0257271 -1.98784e-21)
(0.995328 0.0390361 -1.14759e-20)
(1.00024 0.00284082 -5.34882e-22)
(1.07693 0.0473834 0)
(0.882058 0.0671753 -5.8023e-20)
(0.139608 -0.000699905 -3.78506e-21)
(1.01972 0.024758 0)
(0.993381 -0.0011425 2.30571e-20)
(-0.169355 0.00361965 8.90156e-20)
(0.923696 0.390476 3.25443e-22)
(0.98174 -0.00804127 1.09543e-20)
(0.818993 -0.0847885 -7.88896e-20)
(1.06967 0.07973 1.26558e-20)
(1.04204 0.0315782 1.40537e-21)
(0.47593 0.634288 3.8517e-20)
(0.811809 -0.0797939 8.36918e-20)
(0.944777 0.0370298 0)
(1.08159 0.0076807 1.21444e-20)
(0.218422 0.00712251 0)
(-0.128382 -0.0124875 1.55018e-20)
(0.223954 -0.0253257 1.11875e-19)
(1.03931 0.00353363 -1.88991e-21)
(1.14703 0.162785 -2.3864e-20)
(1.12615 0.123615 0)
(-0.123108 -0.0130186 0)
(0.405242 -0.00876961 -2.09919e-20)
(1.15364 0.0169382 3.08734e-20)
(1.0105 0.026313 -3.82415e-21)
(1.05198 0.0295006 5.01503e-21)
(1.01772 0.0456179 -1.77032e-22)
(1.02088 0.000398483 0)
(1.01251 0.0652151 4.67651e-21)
(1.01706 0.00219096 -1.20455e-21)
(1.02216 0.0946298 3.12018e-21)
(1.04243 0.132009 -6.34436e-21)
(0.0428733 0.0201907 5.76758e-20)
(1.14638 0.063887 2.29318e-20)
(1.04748 0.00333833 2.57257e-21)
(1.1374 0.08489 1.406e-22)
(0.0661917 -0.0192888 -2.90326e-20)
(1.05869 0.129386 8.44374e-21)
(0.968969 0.014116 3.77789e-22)
(0.0379301 -0.00322911 6.6276e-20)
(1.02743 0.0247328 0)
(0.979249 0.0332396 0)
(0.814226 0.0319702 -3.39061e-20)
(0.0987717 0.0332033 0)
(0.998441 -0.00312493 0)
(1.00073 0.017383 -6.98694e-21)
(0.382492 -0.0092838 -3.38879e-20)
(1.16404 0.0460403 1.88947e-20)
(1.14328 0.0662122 0)
(1.13857 0.0735316 -1.10193e-22)
(1.05492 0.027965 -2.17682e-20)
(1.00436 0.0174978 8.54047e-21)
(1.14427 0.0927399 -7.79032e-21)
(0.967705 0.0157882 -9.00106e-21)
(1.00192 0.00896534 -5.84555e-21)
(0.966253 0.0113637 8.46416e-21)
(0.451412 -0.00903879 2.14386e-20)
(-0.10941 -0.0142389 3.18271e-21)
(1.03285 0.0141066 4.97862e-22)
(1.02117 0.00499344 1.97183e-21)
(0.998954 0.0296957 0)
(1.09313 0.0621065 0)