/*--------------------------------*- C++ -*----------------------------------*\
| =========                 |                                                 |
| \\      /  F ield         | OpenFOAM: The Open Source CFD Toolbox           |
|  \\    /   O peration     | Version:  v2012                                 |
|   \\  /    A nd           | Website:  www.openfoam.com                      |
|    \\/     M anipulation  |                                                 |
\*---------------------------------------------------------------------------*/
FoamFile
{
    version     2.0;
    format      ascii;
    class       pointVectorField;
    location    "700";
    object      pointDisplacement;
}
// * * * * * * * * * * * * * * * * * * * * * * * * * * * * * * * * * * * * * //

dimensions      [0 1 0 0 0 0 0];


internalField   nonuniform List<vector> 
14324
(
(0 0 0)
(0.0316776 0.208814 0)
(0 0 0)
(0.0316776 0.208814 0)
(0 0 0)
(0 0 0)
(0 0 0)
(0 0 0)
(0 0 0)
(0 0 0)
(0 0 0)
(0 0 0)
(0 0 0)
(0 0 0)
(0 0 0)
(0 0 0)
(0 0 0)
(0 0 0)
(0 0 0)
(0 0 0)
(0 0 0)
(0 0 0)
(0 0 0)
(0 0 0)
(0 0 0)
(0 0 0)
(0 0 0)
(0 0 0)
(0 0 0)
(0 0 0)
(0 0 0)
(0 0 0)
(0 0 0)
(0 0 0)
(0 0 0)
(0 0 0)
(0 0 0)
(0 0 0)
(0 0 0)
(0 0 0)
(0 0 0)
(0 0 0)
(0 0 0)
(0 0 0)
(0 0 0)
(0 0 0)
(0 0 0)
(0 0 0)
(0 0 0)
(0 0 0)
(0 0 0)
(0 0 0)
(0 0 0)
(0 0 0)
(0 0 0)
(0 0 0)
(0 0 0)
(0 0 0)
(0 0 0)
(0 0 0)
(0 0 0)
(0 0 0)
(0 0 0)
(0 0 0)
(0 0 0)
(0 0 0)
(0 0 0)
(0 0 0)
(0 0 0)
(0 0 0)
(0 0 0)
(0 0 0)
(0 0 0)
(0 0 0)
(0 0 0)
(0 0 0)
(0.0225503 -0.13948 0)
(0.022619 -0.136861 0)
(0.0226876 -0.134243 0)
(0.0227562 -0.131624 0)
(0.0228249 -0.129005 0)
(0.0228935 -0.126386 0)
(0.0229621 -0.123768 0)
(0.0230307 -0.121149 0)
(0.0230994 -0.11853 0)
(0.023168 -0.115911 0)
(0.0232366 -0.113293 0)
(0.0233052 -0.110674 0)
(0.0233739 -0.108055 0)
(0.0234425 -0.105436 0)
(0.0235111 -0.102818 0)
(0.0235797 -0.100199 0)
(0.0236484 -0.09758 0)
(0.023717 -0.0949613 0)
(0.0237856 -0.0923425 0)
(0.0238542 -0.0897238 0)
(0.0239229 -0.087105 0)
(0.0239915 -0.0844863 0)
(0.0240601 -0.0818675 0)
(0.0241287 -0.0792488 0)
(0.0241974 -0.07663 0)
(0.024266 -0.0740113 0)
(0.0243346 -0.0713925 0)
(0.0244032 -0.0687738 0)
(0.0244719 -0.066155 0)
(0.0245405 -0.0635363 0)
(0.0246091 -0.0609175 0)
(0.0246777 -0.0582988 0)
(0.0247464 -0.05568 0)
(0.024815 -0.0530613 0)
(0.0248836 -0.0504425 0)
(0.0249522 -0.0478238 0)
(0.0250209 -0.045205 0)
(0.0250895 -0.0425863 0)
(0.0251581 -0.0399675 0)
(0.0252267 -0.0373488 0)
(0.0252954 -0.03473 0)
(0.025364 -0.0321113 0)
(0.0254326 -0.0294925 0)
(0.0255013 -0.0268738 0)
(0.0255699 -0.024255 0)
(0.0256385 -0.0216363 0)
(0.0257071 -0.0190175 0)
(0.0257758 -0.0163988 0)
(0.0258444 -0.01378 0)
(0.025913 -0.0111613 0)
(0.0259816 -0.00854251 0)
(0.0260503 -0.00592376 0)
(0.0261189 -0.00330501 0)
(0.0261875 -0.000686256 0)
(0.0262561 0.00193249 0)
(0.0263248 0.00455124 0)
(0.0263934 0.00717 0)
(0.026462 0.00978875 0)
(0.0265306 0.0124075 0)
(0.0265993 0.0150262 0)
(0.0266679 0.017645 0)
(0.0267365 0.0202637 0)
(0.0268051 0.0228825 0)
(0.0268738 0.0255013 0)
(0.0269424 0.02812 0)
(0.027011 0.0307388 0)
(0.0270796 0.0333575 0)
(0.0271483 0.0359763 0)
(0.0272169 0.038595 0)
(0.0272855 0.0412138 0)
(0.0273541 0.0438325 0)
(0.0274228 0.0464513 0)
(0.0274914 0.04907 0)
(0.02756 0.0516888 0)
(0.0276286 0.0543075 0)
(0.0276973 0.0569263 0)
(0.0277659 0.059545 0)
(0.0278345 0.0621638 0)
(0.0279031 0.0647825 0)
(0.0279718 0.0674013 0)
(0.0280404 0.07002 0)
(0.028109 0.0726388 0)
(0.0281777 0.0752575 0)
(0.0282463 0.0778763 0)
(0.0283149 0.080495 0)
(0.0283835 0.0831138 0)
(0.0284522 0.0857325 0)
(0.0285208 0.0883513 0)
(0.0285894 0.09097 0)
(0.028658 0.0935888 0)
(0.0287267 0.0962075 0)
(0.0287953 0.0988263 0)
(0.0288639 0.101445 0)
(0.0289325 0.104064 0)
(0.0290012 0.106683 0)
(0.0290698 0.109301 0)
(0.0291384 0.11192 0)
(0.029207 0.114539 0)
(0.0292757 0.117158 0)
(0.0293443 0.119776 0)
(0.0294129 0.122395 0)
(0.0294815 0.125014 0)
(0.0295502 0.127633 0)
(0.0296188 0.130251 0)
(0.0296874 0.13287 0)
(0.029756 0.135489 0)
(0.0298247 0.138108 0)
(0.0298933 0.140726 0)
(0.0299619 0.143345 0)
(0.0300305 0.145964 0)
(0.0300992 0.148583 0)
(0.0301678 0.151201 0)
(0.0302364 0.15382 0)
(0.030305 0.156439 0)
(0.0303737 0.159058 0)
(0.0304423 0.161676 0)
(0.0305109 0.164295 0)
(0.0305795 0.166914 0)
(0.0306482 0.169533 0)
(0.0307168 0.172151 0)
(0.0307854 0.17477 0)
(0.0308541 0.177389 0)
(0.0309227 0.180008 0)
(0.0309913 0.182626 0)
(0.0310599 0.185245 0)
(0.0311286 0.187864 0)
(0.0311972 0.190483 0)
(0.0312658 0.193101 0)
(0.0313344 0.19572 0)
(0.0314031 0.198339 0)
(0.0314717 0.200958 0)
(0.0315403 0.203576 0)
(0.0316089 0.206195 0)
(0.0290588 0.208882 0)
(0.0264401 0.208951 0)
(0.0238213 0.20902 0)
(0.0212026 0.209088 0)
(0.0185838 0.209157 0)
(0.0159651 0.209226 0)
(0.0133463 0.209294 0)
(0.0107276 0.209363 0)
(0.0081088 0.209431 0)
(0.00549005 0.2095 0)
(0.0028713 0.209569 0)
(0.00025255 0.209637 0)
(-0.0023662 0.209706 0)
(-0.00498495 0.209775 0)
(-0.0076037 0.209843 0)
(-0.0102225 0.209912 0)
(-0.0128412 0.20998 0)
(-0.01546 0.210049 0)
(0 0 0)
(0 0 0)
(0 0 0)
(0 0 0)
(0 0 0)
(0 0 0)
(0 0 0)
(0 0 0)
(0 0 0)
(0 0 0)
(0 0 0)
(0 0 0)
(0 0 0)
(0 0 0)
(0 0 0)
(0 0 0)
(0 0 0)
(0 0 0)
(0 0 0)
(0 0 0)
(0 0 0)
(0 0 0)
(0 0 0)
(0 0 0)
(0 0 0)
(0 0 0)
(0 0 0)
(0 0 0)
(0 0 0)
(0 0 0)
(0 0 0)
(0 0 0)
(0 0 0)
(0 0 0)
(0 0 0)
(0 0 0)
(0 0 0)
(0 0 0)
(0 0 0)
(0 0 0)
(0 0 0)
(0 0 0)
(0 0 0)
(0 0 0)
(0 0 0)
(0 0 0)
(0 0 0)
(0 0 0)
(0 0 0)
(0 0 0)
(0 0 0)
(0 0 0)
(0 0 0)
(0 0 0)
(0 0 0)
(0 0 0)
(0 0 0)
(0 0 0)
(0 0 0)
(0 0 0)
(0 0 0)
(0 0 0)
(0 0 0)
(0 0 0)
(0 0 0)
(0 0 0)
(0 0 0)
(0 0 0)
(0 0 0)
(0 0 0)
(0 0 0)
(0 0 0)
(0.0225503 -0.13948 0)
(0.022619 -0.136861 0)
(0.0226876 -0.134243 0)
(0.0227562 -0.131624 0)
(0.0228249 -0.129005 0)
(0.0228935 -0.126386 0)
(0.0229621 -0.123768 0)
(0.0230307 -0.121149 0)
(0.0230994 -0.11853 0)
(0.023168 -0.115911 0)
(0.0232366 -0.113293 0)
(0.0233052 -0.110674 0)
(0.0233739 -0.108055 0)
(0.0234425 -0.105436 0)
(0.0235111 -0.102818 0)
(0.0235797 -0.100199 0)
(0.0236484 -0.09758 0)
(0.023717 -0.0949613 0)
(0.0237856 -0.0923425 0)
(0.0238542 -0.0897238 0)
(0.0239229 -0.087105 0)
(0.0239915 -0.0844863 0)
(0.0240601 -0.0818675 0)
(0.0241287 -0.0792488 0)
(0.0241974 -0.07663 0)
(0.024266 -0.0740113 0)
(0.0243346 -0.0713925 0)
(0.0244032 -0.0687738 0)
(0.0244719 -0.066155 0)
(0.0245405 -0.0635363 0)
(0.0246091 -0.0609175 0)
(0.0246777 -0.0582988 0)
(0.0247464 -0.05568 0)
(0.024815 -0.0530613 0)
(0.0248836 -0.0504425 0)
(0.0249522 -0.0478238 0)
(0.0250209 -0.045205 0)
(0.0250895 -0.0425863 0)
(0.0251581 -0.0399675 0)
(0.0252267 -0.0373488 0)
(0.0252954 -0.03473 0)
(0.025364 -0.0321113 0)
(0.0254326 -0.0294925 0)
(0.0255013 -0.0268738 0)
(0.0255699 -0.024255 0)
(0.0256385 -0.0216363 0)
(0.0257071 -0.0190175 0)
(0.0257758 -0.0163988 0)
(0.0258444 -0.01378 0)
(0.025913 -0.0111613 0)
(0.0259816 -0.00854251 0)
(0.0260503 -0.00592376 0)
(0.0261189 -0.00330501 0)
(0.0261875 -0.000686256 0)
(0.0262561 0.00193249 0)
(0.0263248 0.00455124 0)
(0.0263934 0.00717 0)
(0.026462 0.00978875 0)
(0.0265306 0.0124075 0)
(0.0265993 0.0150262 0)
(0.0266679 0.017645 0)
(0.0267365 0.0202637 0)
(0.0268051 0.0228825 0)
(0.0268738 0.0255013 0)
(0.0269424 0.02812 0)
(0.027011 0.0307388 0)
(0.0270796 0.0333575 0)
(0.0271483 0.0359763 0)
(0.0272169 0.038595 0)
(0.0272855 0.0412138 0)
(0.0273541 0.0438325 0)
(0.0274228 0.0464513 0)
(0.0274914 0.04907 0)
(0.02756 0.0516888 0)
(0.0276286 0.0543075 0)
(0.0276973 0.0569263 0)
(0.0277659 0.059545 0)
(0.0278345 0.0621638 0)
(0.0279031 0.0647825 0)
(0.0279718 0.0674013 0)
(0.0280404 0.07002 0)
(0.028109 0.0726388 0)
(0.0281777 0.0752575 0)
(0.0282463 0.0778763 0)
(0.0283149 0.080495 0)
(0.0283835 0.0831138 0)
(0.0284522 0.0857325 0)
(0.0285208 0.0883513 0)
(0.0285894 0.09097 0)
(0.028658 0.0935888 0)
(0.0287267 0.0962075 0)
(0.0287953 0.0988263 0)
(0.0288639 0.101445 0)
(0.0289325 0.104064 0)
(0.0290012 0.106683 0)
(0.0290698 0.109301 0)
(0.0291384 0.11192 0)
(0.029207 0.114539 0)
(0.0292757 0.117158 0)
(0.0293443 0.119776 0)
(0.0294129 0.122395 0)
(0.0294815 0.125014 0)
(0.0295502 0.127633 0)
(0.0296188 0.130251 0)
(0.0296874 0.13287 0)
(0.029756 0.135489 0)
(0.0298247 0.138108 0)
(0.0298933 0.140726 0)
(0.0299619 0.143345 0)
(0.0300305 0.145964 0)
(0.0300992 0.148583 0)
(0.0301678 0.151201 0)
(0.0302364 0.15382 0)
(0.030305 0.156439 0)
(0.0303737 0.159058 0)
(0.0304423 0.161676 0)
(0.0305109 0.164295 0)
(0.0305795 0.166914 0)
(0.0306482 0.169533 0)
(0.0307168 0.172151 0)
(0.0307854 0.17477 0)
(0.0308541 0.177389 0)
(0.0309227 0.180008 0)
(0.0309913 0.182626 0)
(0.0310599 0.185245 0)
(0.0311286 0.187864 0)
(0.0311972 0.190483 0)
(0.0312658 0.193101 0)
(0.0313344 0.19572 0)
(0.0314031 0.198339 0)
(0.0314717 0.200958 0)
(0.0315403 0.203576 0)
(0.0316089 0.206195 0)
(0.0290588 0.208882 0)
(0.0264401 0.208951 0)
(0.0238213 0.20902 0)
(0.0212026 0.209088 0)
(0.0185838 0.209157 0)
(0.0159651 0.209226 0)
(0.0133463 0.209294 0)
(0.0107276 0.209363 0)
(0.0081088 0.209431 0)
(0.00549005 0.2095 0)
(0.0028713 0.209569 0)
(0.00025255 0.209637 0)
(-0.0023662 0.209706 0)
(-0.00498495 0.209775 0)
(-0.0076037 0.209843 0)
(-0.0102225 0.209912 0)
(-0.0128412 0.20998 0)
(-0.01546 0.210049 0)
(0.023754 -0.0935388 0)
(0.0249887 -0.0464227 0)
(0.0262152 0.000382787 0)
(0.0274582 0.0478174 0)
(0.0287004 0.0952159 0)
(0.0299277 0.142053 0)
(0.031169 0.189477 0)
(0.0280808 0.0715743 0)
(0.0231353 -0.117149 0)
(0.0268451 0.0244212 0)
(0.0243741 -0.0698727 0)
(0.0305474 0.165706 0)
(0.0256056 -0.0228813 0)
(0.02931 0.118481 0)
(0.00377822 0.209542 0)
(0.0248917 0.208975 0)
(-0.0145346 0.210014 0)
(0.00112367 0.00611247 0)
(0.000892191 0.0103901 0)
(0.00132155 0.00490796 0)
(0.0013235 0.0015999 0)
(0.000732928 0.0119604 0)
(0.000527532 0.0133972 0)
(0.0314906 0.202153 0)
(0.000794125 0.0052164 0)
(0.000734509 0.00712899 0)
(0.000280536 0.0139296 0)
(0.00125986 -0.000677991 0)
(0.000589932 0.00518975 0)
(0.0302773 0.155397 0)
(0.0253283 -0.0334621 0)
(0.0295856 0.128999 0)
(0.0240864 -0.0808564 0)
(0.0277308 0.0582176 0)
(0.0284293 0.0848735 0)
(0.0271106 0.0345504 0)
(0.0234092 -0.106697 0)
(0.0265026 0.0113513 0)
(0.0247059 -0.0572144 0)
(0.0308899 0.178788 0)
(0.0228572 -0.127758 0)
(0.0259418 -0.010054 0)
(0.0289716 0.105569 0)
(0.0146029 0.209256 0)
(0.000626224 0.00454957 0)
(0.000847878 0.0113464 0)
(0.00120603 0.0055798 0)
(0.00129591 0.00306091 0)
(0.000410437 0.00338854 0)
(0.000464911 0.00356045 0)
(-0.00638164 0.209806 0)
(0.000233647 0.00184551 0)
(0.000674852 0.012776 0)
(0.000405006 0.0135601 0)
(0.000780305 0.00835513 0)
(0.00138051 0.00421558 0)
(0.00120517 0.00040617 0)
(0.00143711 -0.00219084 0)
(0.000798372 0.0047253 0)
(0.000899031 0.00624396 0)
(0.000666359 0.0061299 0)
(0.000519198 0.00440494 0)
(0.000261811 0.00211988 0)
(9.68747e-05 0.000773219 0)
(0.0195173 -0.0754618 0)
(0.0194626 -0.0710481 0)
(0.0198347 -0.0685899 0)
(0.019767 -0.0642611 0)
(0.0201851 -0.0612317 0)
(0.0200469 -0.0564832 0)
(0.0204648 -0.0530727 0)
(0.0203732 -0.0486756 0)
(0.0207463 -0.0453104 0)
(0.0206242 -0.041303 0)
(0.0209914 -0.0377562 0)
(0.0208672 -0.0340744 0)
(0.0212159 -0.0302797 0)
(0.0210826 -0.0268621 0)
(0.0214334 -0.0224638 0)
(0.0212711 -0.0194376 0)
(0.0216282 -0.0146501 0)
(0.0214555 -0.0118583 0)
(0.0217945 -0.00696538 0)
(0.0215992 -0.00432295 0)
(0.0219412 0.000691301 0)
(0.0217227 0.00315699 0)
(0.0220585 0.00829287 0)
(0.0218414 0.0105089 0)
(0.0221472 0.0157384 0)
(0.021918 0.0175749 0)
(0.0222175 0.0229875 0)
(0.0219734 0.0245321 0)
(0.022262 0.02996 0)
(0.0220073 0.0311961 0)
(0.0222794 0.0368336 0)
(0.0220026 0.0376404 0)
(0.0222579 0.043411 0)
(0.0219764 0.0439843 0)
(0.0222128 0.0496052 0)
(0.02193 0.0501572 0)
(0.0221604 0.0558093 0)
(0.0218541 0.0561414 0)
(0.0220883 0.0621518 0)
(0.0217569 0.0619896 0)
(0.0219773 0.0680524 0)
(0.0216449 0.0675098 0)
(0.0218378 0.073273 0)
(0.0202652 -0.0444254 0)
(0.0213496 -0.00183 0)
(0.0217261 0.0382921 0)
(0.0214956 0.072441 0)
(0.0216689 0.0780811 0)
(0.0213211 0.0771248 0)
(0.0214755 0.0826757 0)
(0.02113 0.0713305 0)
(0.021126 0.081536 0)
(0.0212581 0.0869825 0)
(0.0208953 0.0854025 0)
(0.0210143 0.0909268 0)
(0.020641 0.0889375 0)
(0.020743 0.0945747 0)
(0.0203605 0.0923385 0)
(0.0204448 0.097995 0)
(0.0224364 0.0617644 0)
(0.0225183 0.0286583 0)
(0.0216269 0.0885174 0)
(0.0200539 0.0956434 0)
(0.0201206 0.101056 0)
(0.0197256 0.0985682 0)
(0.0197737 0.103679 0)
(0.0201633 0.106279 0)
(0.0197938 0.108663 0)
(0.0201753 0.111373 0)
(0.0197833 0.113616 0)
(0.0194063 0.110687 0)
(0.0193694 0.115439 0)
(0.0190066 0.112452 0)
(0.0189475 0.116935 0)
(0.0192752 0.119995 0)
(0.0188515 0.121216 0)
(0.0191626 0.124375 0)
(0.0185313 0.118383 0)
(0.0219637 -0.00982566 0)
(0.0187228 0.12533 0)
(0.0190107 0.128573 0)
(0.0185599 0.129253 0)
(0.0188313 0.13249 0)
(0.0183644 0.132959 0)
(0.0186328 0.13636 0)
(0.0181273 0.136466 0)
(0.0183627 0.139883 0)
(0.0208728 -0.049431 0)
(0.0178381 0.13971 0)
(0.0180467 0.143089 0)
(0.0175035 0.142667 0)
(0.0173243 0.139028 0)
(0.0176866 0.146071 0)
(0.0171295 0.145418 0)
(0.0172865 0.148888 0)
(0.0188999 0.139755 0)
(0.0167159 0.147941 0)
(0.0168311 0.151392 0)
(0.0162601 0.150165 0)
(0.0163286 0.153503 0)
(0.0157606 0.152102 0)
(0.0157861 0.155459 0)
(0.0199689 0.0899186 0)
(0.0152328 0.153832 0)
(0.0151872 0.157138 0)
(0.015173 0.15067 0)
(0.0146666 0.155188 0)
(0.0145513 0.158447 0)
(0.0140347 0.156275 0)
(0.0169014 0.15472 0)
(0.0138808 0.159512 0)
(0.0133534 0.157243 0)
(0.0144118 0.161618 0)
(0.0136933 0.1626 0)
(0.0142445 0.164667 0)
(0.0134867 0.165563 0)
(0.0140162 0.1676 0)
(0.0132675 0.168303 0)
(0.0136998 0.17027 0)
(0.0129491 0.170784 0)
(0.0133676 0.172756 0)
(0.012553 0.173162 0)
(0.0121366 0.170815 0)
(0.0130091 0.175198 0)
(0.0121198 0.175438 0)
(0.0125495 0.177449 0)
(0.0116362 0.177488 0)
(0.0120505 0.179474 0)
(0.0129861 0.179367 0)
(0.0124722 0.181354 0)
(0.0134401 0.181167 0)
(0.0115073 0.181338 0)
(0.011889 0.183173 0)
(0.0108946 0.183056 0)
(0.0112364 0.184825 0)
(0.0102023 0.184587 0)
(0.0104941 0.186317 0)
(0.0094251 0.185945 0)
(0.00967246 0.187659 0)
(0.00857028 0.187164 0)
(0.00839476 0.185398 0)
(0.00750116 0.186486 0)
(0.0107858 0.187992 0)
(0.00763285 0.188242 0)
(0.006535 0.18746 0)
(0.00659265 0.189182 0)
(0.00549932 0.188264 0)
(0.00541408 0.189906 0)
(0.00423974 0.18868 0)
(0.00417742 0.190452 0)
(0.00316194 0.189424 0)
(0.00294745 0.190899 0)
(0.0020584 0.189796 0)
(0.00169293 0.191152 0)
(0.007436 0.184665 0)
(0.00393246 0.191997 0)
(0.00221038 0.188474 0)
(0.0220849 -0.127566 0)
(0.0221366 -0.123701 0)
(0.0222965 -0.122388 0)
(0.0223489 -0.118539 0)
(0.0225003 -0.117157 0)
(0.0225517 -0.113344 0)
(0.0227007 -0.111772 0)
(0.0227499 -0.108024 0)
(0.0228912 -0.106328 0)
(0.0229427 -0.102632 0)
(0.023069 -0.101087 0)
(0.0231261 -0.0973241 0)
(0.0230045 -0.0986278 0)
(0.0231815 -0.0935533 0)
(0.0219569 -0.124971 0)
(0.0233077 -0.0919223 0)
(0.0233625 -0.0882821 0)
(0.0234905 -0.0863636 0)
(0.023543 -0.0828376 0)
(0.023667 -0.080827 0)
(0.0237194 -0.0772404 0)
(0.0238384 -0.075304 0)
(0.0238949 -0.0716279 0)
(0.0240068 -0.0697791 0)
(0.0240653 -0.0660998 0)
(0.0241739 -0.0642125 0)
(0.0242307 -0.0606919 0)
(0.0243386 -0.0586423 0)
(0.02439 -0.0553174 0)
(0.0244982 -0.0531424 0)
(0.024548 -0.0498101 0)
(0.0246543 -0.0476674 0)
(0.0247074 -0.0442178 0)
(0.0248062 -0.0422556 0)
(0.0248623 -0.0387286 0)
(0.0249537 -0.0369719 0)
(0.0250157 -0.0332472 0)
(0.0249088 -0.0354389 0)
(0.0250649 -0.0299143 0)
(0.0241436 -0.0618696 0)
(0.0232312 -0.0897058 0)
(0.0251737 -0.0276068 0)
(0.0252234 -0.0242308 0)
(0.0253328 -0.0218308 0)
(0.0253797 -0.0184955 0)
(0.0254904 -0.0159946 0)
(0.025535 -0.0127423 0)
(0.0256454 -0.0101906 0)
(0.0256878 -0.00704872 0)
(0.0257976 -0.00446079 0)
(0.0258396 -0.00135912 0)
(0.0259463 0.00114385 0)
(0.0259888 0.00431932 0)
(0.0260931 0.00675644 0)
(0.026133 0.00990523 0)
(0.0262355 0.0122687 0)
(0.0262731 0.0153989 0)
(0.0263738 0.0176838 0)
(0.0264146 0.020957 0)
(0.0263001 0.0183068 0)
(0.0264458 0.0240921 0)
(0.0255769 -0.00951966 0)
(0.0265734 0.0269488 0)
(0.0265907 0.0299129 0)
(0.0267094 0.0327744 0)
(0.0267302 0.0356715 0)
(0.026844 0.0382903 0)
(0.0268647 0.0412788 0)
(0.0269802 0.0439034 0)
(0.0269962 0.0467701 0)
(0.0271155 0.0495139 0)
(0.0271236 0.0522628 0)
(0.0272463 0.0551671 0)
(0.027247 0.0578042 0)
(0.027373 0.0608193 0)
(0.027371 0.0634283 0)
(0.0274982 0.0664441 0)
(0.0274919 0.0690597 0)
(0.0276192 0.0720224 0)
(0.0276092 0.0747174 0)
(0.0274743 0.0716301 0)
(0.0275887 0.0774568 0)
(0.026889 0.0446851 0)
(0.0277267 0.0805542 0)
(0.0276993 0.0833132 0)
(0.0278395 0.0864121 0)
(0.0278028 0.0889664 0)
(0.0279451 0.0922057 0)
(0.0278963 0.0945601 0)
(0.0276631 0.0862326 0)
(0.0280429 0.0979617 0)
(0.0279787 0.100149 0)
(0.0281319 0.103672 0)
(0.0280559 0.105812 0)
(0.0282105 0.109326 0)
(0.0281219 0.111439 0)
(0.0282773 0.114924 0)
(0.0281745 0.116967 0)
(0.0280144 0.113364 0)
(0.0280525 0.118852 0)
(0.0282142 0.122508 0)
(0.0280763 0.124283 0)
(0.0282369 0.128001 0)
(0.0280785 0.129576 0)
(0.0282382 0.133335 0)
(0.0280564 0.134742 0)
(0.0279019 0.130747 0)
(0.0278472 0.13569 0)
(0.028009 0.139777 0)
(0.0277755 0.140703 0)
(0.027932 0.144639 0)
(0.0276802 0.145447 0)
(0.0278336 0.149384 0)
(0.0275577 0.150037 0)
(0.0277023 0.153939 0)
(0.027603 0.136394 0)
(0.0274011 0.154337 0)
(0.0275288 0.158144 0)
(0.0272173 0.158277 0)
(0.0273212 0.16209 0)
(0.0269884 0.161864 0)
(0.0270614 0.165661 0)
(0.026918 0.158252 0)
(0.0267116 0.165119 0)
(0.0267541 0.168769 0)
(0.0263933 0.168037 0)
(0.0264108 0.171623 0)
(0.0260308 0.17067 0)
(0.0270896 0.0463001 0)
(0.0276204 0.0693632 0)
(0.0260139 0.174212 0)
(0.0256171 0.173032 0)
(0.026184 0.00884966 0)
(0.0256072 -0.0132204 0)
(0.0281881 0.101275 0)
(0.0249482 -0.0323461 0)
(0.0263222 0.0212053 0)
(0.0279936 0.15337 0)
(0.0247424 -0.0459617 0)
(0.0241184 -0.0677315 0)
(0.0255573 0.176431 0)
(0.0251544 0.175082 0)
(0.0252287 0.171697 0)
(0.0247565 0.17368 0)
(0.0248453 0.1703 0)
(0.0271002 0.169435 0)
(0.0230128 -0.104434 0)
(0.025054 0.178299 0)
(0.0222441 -0.126209 0)
(0.02547 0.179677 0)
(0.0243557 0.172256 0)
(0.0244658 0.168835 0)
(0.0249087 0.181328 0)
(0.0253277 0.182766 0)
(0.024714 0.184138 0)
(0.0131238 -0.0303653 0)
(0.025127 0.185611 0)
(0.0244664 0.186724 0)
(0.024877 0.188222 0)
(0.0239673 0.170665 0)
(0.0240947 0.167265 0)
(0.0126624 -0.0271897 0)
(0.0132349 -0.0250376 0)
(0.0241584 0.189102 0)
(0.0245482 0.190617 0)
(0.0252969 0.189687 0)
(0.0127496 -0.0221264 0)
(0.013327 -0.0197387 0)
(0.013803 -0.022536 0)
(0.0138928 -0.0170246 0)
(0.0133946 -0.0145148 0)
(0.013959 -0.0115687 0)
(0.0134384 -0.00936931 0)
(0.0139979 -0.00616016 0)
(0.0134539 -0.00432286 0)
(0.0140073 -0.000854693 0)
(0.0134386 0.000616238 0)
(0.0139892 0.00433716 0)
(0.0237812 0.187633 0)
(0.0237712 0.19126 0)
(0.0241463 0.192763 0)
(0.0232912 0.193165 0)
(0.0236385 0.19466 0)
(0.0143567 -0.019716 0)
(0.0227162 0.194848 0)
(0.023006 0.196294 0)
(0.0133967 0.00548519 0)
(0.0139431 0.00936525 0)
(0.02203 0.19633 0)
(0.0222567 0.197733 0)
(0.0212139 0.197602 0)
(0.0213321 0.198944 0)
(0.0210834 0.196269 0)
(0.0145399 0.00285184 0)
(0.0133271 0.0101829 0)
(0.0138695 0.0142081 0)
(0.0236084 0.168932 0)
(0.0237275 0.165611 0)
(0.0202434 0.198654 0)
(0.0202798 0.199886 0)
(0.00207561 0.13265 0)
(0.00241414 0.136945 0)
(0.00265065 0.132958 0)
(0.00301107 0.13701 0)
(0.00321836 0.133174 0)
(0.00360775 0.137082 0)
(0.00377649 0.133135 0)
(0.0132301 0.0146796 0)
(0.0137666 0.0188442 0)
(0.0131064 0.0189787 0)
(0.0136354 0.023207 0)
(0.014274 0.0232514 0)
(0.0141342 0.0276298 0)
(0.0134809 0.0272712 0)
(0.0139706 0.0317113 0)
(0.013301 0.031076 0)
(0.0137818 0.0354901 0)
(0.013097 0.0345838 0)
(0.0135783 0.0390138 0)
(0.0042256 0.137144 0)
(0.00433744 0.132795 0)
(0.0128744 0.0377677 0)
(0.0133374 0.0422424 0)
(0.0239771 0.196129 0)
(0.019127 0.199544 0)
(0.0190969 0.200831 0)
(0.012622 0.0405491 0)
(0.0130588 0.0450288 0)
(0.023241 0.167343 0)
(0.0233592 0.163967 0)
(0.0238213 0.161933 0)
(0.0234566 0.160372 0)
(0.0238634 0.158107 0)
(0.0235208 0.156576 0)
(0.0239034 0.154173 0)
(0.0235585 0.15262 0)
(0.0239497 0.149903 0)
(0.00484051 0.136762 0)
(0.00490012 0.132279 0)
(0.00382918 0.128791 0)
(0.0123386 0.0429348 0)
(0.012766 0.0474124 0)
(0.0145887 0.0320971 0)
(0.013465 0.0497089 0)
(0.0131612 0.0520201 0)
(0.0124582 0.0494737 0)
(0.0128399 0.0539984 0)
(0.0121335 0.0512105 0)
(0.0125004 0.0556302 0)
(0.0131817 0.0585184 0)
(0.0128306 0.0600559 0)
(0.0121438 0.0569392 0)
(0.0124648 0.0613171 0)
(0.0117691 0.0579212 0)
(0.0120707 0.0622118 0)
(0.0113804 0.058607 0)
(0.0116638 0.0627471 0)
(0.0123018 0.0664385 0)
(0.0119022 0.0668492 0)
(0.0112523 0.0629973 0)
(0.0114848 0.066942 0)
(0.0120942 0.0707912 0)
(0.0116794 0.0707558 0)
(0.0122021 0.0738922 0)
(0.0119409 0.0750739 0)
(0.0112347 0.0703795 0)
(0.0113669 0.0739769 0)
(0.011984 0.0787013 0)
(0.0114389 0.0773308 0)
(0.0108543 0.072811 0)
(0.0109258 0.0759885 0)
(0.0114877 0.0806269 0)
(0.0109564 0.0789844 0)
(0.0114773 0.083577 0)
(0.0109376 0.081705 0)
(0.0104435 0.0771469 0)
(0.011418 0.0862447 0)
(0.0108783 0.0841982 0)
(0.0113243 0.0887421 0)
(0.0107669 0.086397 0)
(0.0111905 0.0910196 0)
(0.0106221 0.0884219 0)
(0.0110171 0.0930339 0)
(0.0104526 0.0902376 0)
(0.0108042 0.0947527 0)
(0.0100445 0.0857177 0)
(0.0102438 0.0917337 0)
(0.010557 0.0961958 0)
(0.0100075 0.0929842 0)
(0.0102837 0.0974369 0)
(0.00971566 0.0937015 0)
(0.00996378 0.0982776 0)
(0.00937605 0.0940398 0)
(0.00960461 0.0986967 0)
(0.00911933 0.0890343 0)
(0.0235721 0.148538 0)
(0.0239426 0.145439 0)
(0.0178274 0.200272 0)
(0.0174878 0.201396 0)
(0.00542857 0.136131 0)
(0.00543993 0.131491 0)
(0.00474811 0.141109 0)
(0.0117495 0.0932651 0)
(0.00598202 0.135228 0)
(0.00595133 0.130465 0)
(0.00650781 0.134124 0)
(0.0064394 0.129269 0)
(0.00588764 0.125451 0)
(0.00633849 0.124132 0)
(0.00691705 0.127985 0)
(0.00678895 0.122753 0)
(0.0228655 0.165753 0)
(0.0227023 0.169343 0)
(0.00901795 0.0941981 0)
(0.0108329 0.10055 0)
(0.0128727 -0.00295956 0)
(0.0163447 0.200814 0)
(0.0158389 0.201878 0)
(0.00737403 0.126616 0)
(0.0235636 0.144276 0)
(0.0239014 0.140957 0)
(0.00620158 0.118676 0)
(0.00662384 0.117271 0)
(0.0170951 0.202496 0)
(0.0151471 0.202832 0)
(0.0140604 0.20222 0)
(0.0131801 0.203118 0)
(0.0143142 0.203783 0)
(0.0120897 0.203936 0)
(0.0111445 0.203309 0)
(0.00990205 0.204037 0)
(0.0108349 0.204701 0)
(0.00844848 0.204667 0)
(0.00766503 0.204016 0)
(0.00615106 0.2046 0)
(0.00689126 0.205313 0)
(0.00426102 0.20511 0)
(0.00404321 0.20437 0)
(0.00201678 0.204797 0)
(0.0213448 0.200225 0)
(0.00216155 0.205545 0)
(-5.73964e-05 0.205159 0)
(7.36715e-07 0.204367 0)
(-0.00202137 0.20464 0)
(-0.00180432 0.203796 0)
(-0.00372686 0.203975 0)
(-0.00407111 0.204834 0)
(0.016734 0.199696 0)
(0.0223322 0.16723 0)
(0.023197 0.151307 0)
(0.0220919 0.17038 0)
(0.0235341 0.139841 0)
(0.0238456 0.136384 0)
(0.0242099 0.137252 0)
(0.0241277 0.132555 0)
(0.0244833 0.133176 0)
(0.0243788 0.128366 0)
(0.0247218 0.128772 0)
(0.0245978 0.123859 0)
(0.024928 0.123993 0)
(0.0247862 0.119018 0)
(0.0251045 0.118906 0)
(0.0249458 0.113892 0)
(0.0252539 0.113481 0)
(0.0250719 0.108464 0)
(0.0253575 0.107585 0)
(0.0251629 0.102697 0)
(0.0254247 0.10154 0)
(0.0252257 0.0966975 0)
(0.0254726 0.0953167 0)
(0.0252633 0.0903803 0)
(0.0254982 0.0887816 0)
(0.0252848 0.0839766 0)
(0.0254998 0.0820078 0)
(0.0252679 0.0774615 0)
(0.0254689 0.0751064 0)
(0.0252233 0.070619 0)
(0.0254144 0.0681028 0)
(0.0251772 0.06371 0)
(0.0253447 0.0609945 0)
(0.0251081 0.0567725 0)
(0.0252579 0.0538978 0)
(0.0250165 0.0496897 0)
(0.0251541 0.0467292 0)
(0.0253914 0.0508483 0)
(0.0252747 0.0435818 0)
(0.0250361 0.0395205 0)
(0.0251432 0.0362599 0)
(0.0249045 0.0322895 0)
(0.0249979 0.0288738 0)
(0.0247605 0.0250253 0)
(0.02484 0.0213843 0)
(0.0246004 0.0176572 0)
(0.0246685 0.0137294 0)
(0.0244226 0.0102041 0)
(0.0244805 0.00610522 0)
(0.0125507 0.0149371 0)
(0.0242343 0.00277622 0)
(0.0242841 -0.00131982 0)
(0.0245107 0.00166319 0)
(0.0243152 -0.00555527 0)
(0.0240818 -0.00866771 0)
(0.0241051 -0.012876 0)
(0.00602633 0.112847 0)
(0.0063993 0.111331 0)
(0.0237751 0.131609 0)
(0.0252282 0.0329608 0)
(0.0238684 -0.0160058 0)
(0.0238805 -0.0202866 0)
(0.0123735 0.0337072 0)
(0.0249064 0.103684 0)
(0.0283967 0.131687 0)
(0.0243242 -0.00976779 0)
(0.0236435 -0.023338 0)
(0.0236527 -0.0277203 0)
(0.00654948 0.138697 0)
(0.025721 0.0869692 0)
(0.0217639 0.16839 0)
(0.0214819 0.171565 0)
(0.0234082 -0.0306472 0)
(0.0234169 -0.0351354 0)
(0.0236765 -0.0319287 0)
(0.0234126 -0.0396379 0)
(0.0231674 -0.0424352 0)
(0.0231625 -0.0470599 0)
(0.02291 -0.0496244 0)
(0.022894 -0.0544559 0)
(0.0226409 -0.0566976 0)
(0.0226164 -0.061619 0)
(0.0234356 -0.0437882 0)
(0.0223598 -0.0636604 0)
(0.0223308 -0.0685874 0)
(0.0225835 -0.0666071 0)
(0.0222964 -0.0734887 0)
(0.0220376 -0.0753887 0)
(0.0220013 -0.080211 0)
(0.0217345 -0.0820106 0)
(0.0216912 -0.0869491 0)
(0.0214153 -0.088537 0)
(0.0213578 -0.0936468 0)
(0.0210794 -0.0949417 0)
(0.0210073 -0.100118 0)
(0.0207305 -0.101118 0)
(0.0110533 0.0544262 0)
(0.0278885 0.115143 0)
(0.0244683 0.118821 0)
(0.00581977 0.106662 0)
(0.00615512 0.105102 0)
(0.0246581 0.0281799 0)
(0.0215357 0.0563709 0)
(0.0135189 0.153985 0)
(0.0128369 0.154827 0)
(0.0129973 0.151581 0)
(0.021652 -0.0923645 0)
(0.0121625 -0.0242273 0)
(0.0214702 -0.0835709 0)
(0.021649 0.0190459 0)
(0.019417 -0.0672687 0)
(0.0208848 -0.0243306 0)
(0.0250331 0.0850689 0)
(0.0249796 0.0659519 0)
(0.0181055 0.129527 0)
(0.0134853 0.0628415 0)
(0.0145199 0.169864 0)
(0.0211665 0.169326 0)
(0.0208244 0.172397 0)
(0.022547 -0.0715034 0)
(0.00674709 0.109638 0)
(0.00645999 0.103351 0)
(0.02562 0.106103 0)
(0.0123315 0.152214 0)
(0.0124874 0.148948 0)
(0.00546018 0.108083 0)
(0.0052614 0.10156 0)
(0.00491484 0.102869 0)
(0.0205558 0.169949 0)
(0.0209039 0.167001 0)
(0.0233929 -0.0261686 0)
(0.0241718 0.00678743 0)
(0.0201581 0.172801 0)
(0.0203921 0.175352 0)
(0.0252569 0.123986 0)
(0.00471559 0.0959502 0)
(0.00438013 0.0971638 0)
(0.0195383 0.128067 0)
(0.00238817 0.173101 0)
(0.00259266 0.170749 0)
(0.00322998 0.172519 0)
(0.0033848 0.1701 0)
(0.00408482 0.17182 0)
(0.00418254 0.16928 0)
(0.00492654 0.170988 0)
(0.0049561 0.168273 0)
(0.00422739 0.166528 0)
(0.0199269 0.17037 0)
(0.0236181 -0.0842459 0)
(0.00705431 0.107707 0)
(0.00673279 0.101437 0)
(0.0223828 -0.0587564 0)
(0.0118481 0.149375 0)
(0.0119956 0.146088 0)
(0.0116556 0.152532 0)
(0.0243395 0.15184 0)
(0.0225045 -0.138342 0)
(0.0225542 -0.135781 0)
(0.0226129 -0.134577 0)
(0.0226638 -0.132088 0)
(0.0227194 -0.130842 0)
(0.0227711 -0.128378 0)
(0.0228256 -0.127075 0)
(0.0228778 -0.124619 0)
(0.0229327 -0.123224 0)
(0.0229847 -0.120815 0)
(0.0229298 -0.122135 0)
(0.0230377 -0.11834 0)
(0.0230898 -0.117044 0)
(0.0231438 -0.114572 0)
(0.0231931 -0.113313 0)
(0.0232488 -0.110812 0)
(0.0232957 -0.10958 0)
(0.0233525 -0.107074 0)
(0.0233973 -0.105859 0)
(0.0234548 -0.103356 0)
(0.0234989 -0.10212 0)
(0.0235565 -0.0996311 0)
(0.0236004 -0.0983643 0)
(0.0236585 -0.0958818 0)
(0.0236127 -0.0971609 0)
(0.0237159 -0.093394 0)
(0.0237615 -0.0920803 0)
(0.0238191 -0.0896093 0)
(0.0238633 -0.0883118 0)
(0.0239213 -0.0858461 0)
(0.0239636 -0.0845871 0)
(0.0240233 -0.0820741 0)
(0.0239797 -0.0833254 0)
(0.0240837 -0.0795005 0)
(0.0241266 -0.07824 0)
(0.0241873 -0.0756779 0)
(0.0242291 -0.0744293 0)
(0.024289 -0.0719136 0)
(0.0243295 -0.0706863 0)
(0.02439 -0.0681654 0)
(0.0244296 -0.0669461 0)
(0.0244909 -0.0644056 0)
(0.0245302 -0.0631786 0)
(0.0245924 -0.0606149 0)
(0.0245517 -0.0618539 0)
(0.0246539 -0.05805 0)
(0.0246952 -0.0567707 0)
(0.0247553 -0.0542718 0)
(0.0247961 -0.052976 0)
(0.0248555 -0.0505271 0)
(0.0248931 -0.0493313 0)
(0.0249555 -0.0467845 0)
(0.0249927 -0.0455994 0)
(0.0250555 -0.0430344 0)
(0.0250947 -0.0417519 0)
(0.0251563 -0.0392503 0)
(0.0251171 -0.0404905 0)
(0.0252185 -0.0366932 0)
(0.0252569 -0.0354669 0)
(0.0253195 -0.0329079 0)
(0.0253573 -0.0316878 0)
(0.0254185 -0.0291955 0)
(0.0254569 -0.0279275 0)
(0.0255159 -0.0255323 0)
(0.0253892 -0.0300741 0)
(0.0255539 -0.0242663 0)
(0.025613 -0.0218655 0)
(0.0256509 -0.020611 0)
(0.0257115 -0.018154 0)
(0.0257474 -0.0169663 0)
(0.025809 -0.0144734 0)
(0.0257708 -0.0157182 0)
(0.025871 -0.0119421 0)
(0.0258999 -0.0110327 0)
(0.0259643 -0.00842148 0)
(0.0259347 -0.00931212 0)
(0.0260342 -0.00557688 0)
(0.0260588 -0.00490141 0)
(0.0261352 -0.00177832 0)
(0.0261706 -0.000656744 0)
(0.0262369 0.00206023 0)
(0.0262704 0.00311563 0)
(0.0263364 0.00581226 0)
(0.0263681 0.00680821 0)
(0.0264361 0.00957806 0)
(0.0264011 0.00848794 0)
(0.026502 0.0122909 0)
(0.0265364 0.0133684 0)
(0.0266024 0.0160819 0)
(0.0266356 0.0171219 0)
(0.0267023 0.0198567 0)
(0.0266674 0.0188019 0)
(0.0267697 0.0226551 0)
(0.026802 0.0236205 0)
(0.026871 0.0264717 0)
(0.0269036 0.0274603 0)
(0.0269714 0.0302629 0)
(0.0268379 0.0255324 0)
(0.0270064 0.0313497 0)
(0.0270715 0.0340455 0)
(0.0271074 0.0351761 0)
(0.0271714 0.0378228 0)
(0.0272073 0.0389569 0)
(0.0272713 0.0416019 0)
(0.0272362 0.0405524 0)
(0.0273363 0.0443283 0)
(0.0273706 0.045356 0)
(0.0274362 0.0481034 0)
(0.0274691 0.0490861 0)
(0.0275362 0.0518835 0)
(0.0275014 0.0508826 0)
(0.0276045 0.0547861 0)
(0.0276365 0.0556801 0)
(0.0277072 0.0586622 0)
(0.0277374 0.0594958 0)
(0.0278054 0.0623524 0)
(0.0278374 0.0632871 0)
(0.0279033 0.0660676 0)
(0.0279369 0.0670661 0)
(0.0280046 0.0699323 0)
(0.0279629 0.0687402 0)
(0.0280713 0.0728126 0)
(0.0281058 0.0737652 0)
(0.0281719 0.0766243 0)
(0.0281356 0.0756792 0)
(0.0282369 0.0795319 0)
(0.0282726 0.0804331 0)
(0.0283396 0.0834238 0)
(0.0282999 0.0824579 0)
(0.028404 0.0864089 0)
(0.0284426 0.0873242 0)
(0.0285069 0.0903092 0)
(0.0285462 0.0912335 0)
(0.0286104 0.0942191 0)
(0.0286552 0.0952744 0)
(0.0287144 0.0981623 0)
(0.0287644 0.099489 0)
(0.0288172 0.102091 0)
(0.0287698 0.10096 0)
(0.0288747 0.104975 0)
(0.0289184 0.105971 0)
(0.028978 0.108932 0)
(0.0289306 0.107959 0)
(0.0290345 0.111946 0)
(0.0290813 0.112876 0)
(0.0291371 0.11588 0)