/*--------------------------------*- C++ -*----------------------------------*\
| =========                 |                                                 |
| \\      /  F ield         | OpenFOAM: The Open Source CFD Toolbox           |
|  \\    /   O peration     | Version:  v2012                                 |
|   \\  /    A nd           | Website:  www.openfoam.com                      |
|    \\/     M anipulation  |                                                 |
\*---------------------------------------------------------------------------*/
FoamFile
{
    version     2.0;
    format      ascii;
    class       volScalarField;
    location    "650";
    object      ddt0(k);
}
// * * * * * * * * * * * * * * * * * * * * * * * * * * * * * * * * * * * * * //

dimensions      [0 2 -3 0 0 0 0];


internalField   nonuniform List<scalar> 
13851
(
2.20778e-06
4.31696e-07
6.57941e-07
-0.000389116
-6.59462e-08
3.59222e-07
5.0854e-07
1.67356e-08
0.00213594
5.53585e-09
2.98923e-07
-2.54156e-08
-2.74636e-09
0.00116501
1.01633e-06
2.91924e-06
-0.000438275
6.90278e-08
2.97444e-06
2.29185e-06
1.05354e-06
9.796e-08
0.000549637
-1.22701e-08
0.0103474
1.6939e-06
4.41226e-06
0.000107291
0.00161925
1.10031e-08
-0.0010472
5.09519e-07
2.56198e-06
-0.000499919
3.00059e-07
0.0020399
-3.46966e-09
0.00718104
-0.00131764
5.46993e-09
0.00551797
0.00111788
-5.10951e-05
2.94947e-05
-0.000392445
2.02543e-08
1.20087e-08
2.29017e-06
7.90424e-08
7.82922e-09
0.00032569
-8.33268e-09
2.85721e-06
9.38691e-07
0.00120515
4.40255e-09
2.33515e-06
0.00459806
2.57403e-06
0.00208558
-2.69343e-08
6.95466e-06
3.12929e-09
6.9426e-08
2.30243e-06
2.44201e-06
0.00222264
2.36127e-06
3.765e-08
-0.000782071
-0.000637626
1.00359e-06
-8.6517e-09
0.00212027
8.92579e-07
3.77363e-08
-0.000526906
3.17238e-09
0.00744879
-1.75542e-08
3.56831e-08
-6.23839e-06
2.77991e-07
0.00151479
0.00225843
-0.000913024
1.08283e-07
0.000794914
1.41699e-09
-0.00107697
-2.7962e-09
5.1495e-07
4.1016e-05
-0.000824061
1.82498e-05
-5.99159e-06
1.18963e-08
2.65591e-06
0.000390248
1.1196e-06
2.64655e-06
1.71524e-07
2.63373e-07
-7.81343e-10
3.46309e-08
8.05572e-07
2.86672e-08
-0.000713259
5.09679e-07
7.66108e-08
-1.83238e-09
2.15429e-08
1.50474e-06
6.02027e-07
2.88562e-06
8.40676e-07
-3.03667e-08
-1.27917e-09
-0.000393412
-0.000935122
-3.32062e-06
7.44724e-08
2.28469e-08
0.00300431
9.15806e-06
1.99108e-06
1.35212e-09
1.53894e-07
0.00104015
1.09934e-06
9.5406e-08
3.38059e-07
0.00367197
-0.000381065
2.77924e-07
-0.000830261
1.94603e-06
-0.000776661
2.5796e-07
1.20124e-06
-8.44535e-06
1.30903e-09
1.5209e-09
2.77653e-06
0.00525124
2.8624e-08
-5.79612e-09
-0.000891097
0.00136146
1.67054e-07
2.48663e-06
1.56495e-06
6.23397e-07
2.04288e-05
-8.62758e-09
9.24607e-10
-2.96942e-08
-0.00169707
1.19306e-06
3.83131e-07
-1.68387e-08
0.00183883
7.86037e-07
2.34818e-06
0.00115232
0.00226973
0.00261578
0.000387091
3.06407e-08
-0.00052383
-2.52872e-08
-3.55452e-08
8.97301e-07
-5.67797e-08
-0.000452939
9.26056e-06
2.2938e-06
-3.61392e-08
1.1318e-06
2.17259e-06
6.53522e-06
6.06523e-05
4.8325e-08
1.11797e-06
-0.000151069
0.00136195
2.53503e-06
-1.68541e-07
-2.72987e-09
1.91326e-08
0.000875152
1.18885e-06
0.000908875
3.66052e-07
2.79142e-08
2.84254e-06
2.57975e-06
1.64678e-07
1.16322e-07
1.12779e-06
2.9314e-06
0.00360275
0.00623911
1.04181e-06
0.00109918
0.00356291
9.94337e-10
1.32219e-06
0.00279085
2.66924e-07
2.86379e-06
2.78175e-08
9.79462e-07
-7.33569e-10
1.58125e-07
5.53066e-08
7.34014e-09
1.17205e-06
8.33561e-08
1.59925e-05
-3.19361e-08
2.37568e-06
0.00114386
-0.000464992
-4.0001e-08
1.33375e-06
-1.72467e-09
1.897e-06
-1.87536e-08
3.19052e-07
-0.000947822
-1.15856e-07
2.84071e-07
5.75233e-09
0.00476213
1.25719e-08
-0.000494489
0.00617311
3.29124e-06
-7.41525e-09
-0.000472635
0.0023859
-0.000757696
2.91101e-06
7.98685e-07
-1.69558e-06
2.91827e-06
1.09602e-06
4.2071e-06
-2.34981e-09
0.00120479
2.96188e-06
-3.78202e-08
4.36319e-07
2.72914e-06
0.0019234
0.000558853
1.78841e-08
2.0955e-06
6.21852e-09
4.04672e-06
1.29025e-05
4.69104e-07
7.83277e-07
3.15061e-06
2.58891e-10
1.90903e-06
2.05509e-06
3.25509e-05
-1.08723e-08
9.62106e-09
6.87213e-08
0.00508575
-0.000436345
1.05235e-06
7.94753e-08
6.17431e-06
1.75664e-05
2.41285e-06
8.81192e-07
0.00487291
0.000469646
4.21973e-07
9.64247e-07
0.0145657
2.79975e-08
-3.17085e-08
2.48868e-06
2.61392e-07
2.29979e-08
-1.12516e-08
-2.37078e-08
-7.72081e-08
7.94792e-07
-3.17737e-08
0.00247601
1.061e-06
8.7573e-09
0.00197378
0.00302079
-1.01078e-08
1.98196e-06
0.000422884
9.3935e-09
-3.71463e-09
9.956e-07
0.0016648
-0.000499472
1.12689e-06
-6.91408e-08
-0.00160503
-2.33586e-08
1.18346e-06
0.000696812
2.8009e-05
3.66068e-07
0.0183565
0.000148169
-0.000698025
8.87835e-07
3.51777e-06
-0.00113511
0.00238428
0.000140521
3.64228e-08
-0.000459009
0.000239515
4.27966e-06
2.99088e-06
4.65808e-09
1.04305e-06
1.60154e-08
0.000806763
-3.29697e-06
-7.54514e-08
4.24028e-09
1.87092e-07
-0.000638801
-2.45436e-06
3.02449e-08
-4.53531e-05
1.45075e-09
3.71795e-07
4.02517e-07
0.00118546
5.43162e-06
2.88321e-06
5.13942e-08
2.4079e-07
0.00161023
-1.94265e-09
2.03454e-05
4.03023e-07
9.87603e-07
-1.27985e-08
3.30603e-09
1.20225e-08
6.72625e-07
2.82542e-06
2.6024e-06
0.00156475
0.00174187
3.49117e-08
0.00483585
5.92905e-06
7.48678e-08
-5.76279e-06
1.60978e-06
0.00060692
1.78087e-07
1.70199e-06
1.46618e-06
0.00183363
1.04536e-06
0.00108605
8.0994e-08
1.00537e-05
-0.000106317
5.81441e-07
0.00143012
6.46173e-07
0.00743129
8.36854e-07
1.26773e-06
3.05039e-06
7.88142e-06
-1.81014e-09
3.97584e-07
2.7679e-07
1.12751e-06
1.63186e-08
1.10015e-06
0.00270674
-2.03746e-09
1.31071e-06
-0.000227128
1.87281e-07
-0.00638453
1.43942e-06
-0.000136128
2.87744e-07
1.57318e-06
-6.77723e-06
1.17679e-05
8.27552e-07
0.000491157
0.00212583
0.000246741
-3.742e-09
1.50134e-07
5.99739e-07
1.68104e-06
7.18887e-08
-7.15628e-05
0.00963978
0.00596617
2.66599e-07
3.17478e-06
8.46214e-06
-0.000430613
2.82352e-08
-0.000334734
1.48031e-05
-0.000472342
1.15834e-07
-0.00535657
-4.41178e-09
-5.62826e-08
0.00105515
8.83304e-06
7.053e-09
7.43073e-07
1.27229e-06
-3.90316e-08
0.00922482
1.06938e-06
9.65387e-07
5.29114e-07
7.95322e-08
-7.9643e-10
0.000412354
7.36337e-09
2.72426e-09
1.43348e-05
0.00373622
7.09857e-08
1.08382e-06
1.29646e-08
-3.68594e-08
2.28205e-07
2.84185e-06
1.42245e-06
2.11625e-08
9.09241e-08
-4.30522e-06
2.68291e-07
0.000271464
-3.10757e-08
6.82698e-07
-0.000734114
4.32324e-08
-1.08044e-08
-2.72531e-08
5.54971e-07
2.10364e-07
-7.688e-06
-0.000105649
7.80963e-07
-6.9624e-06
2.38184e-07
-1.80066e-08
0.00214298
1.58592e-06
-4.11726e-08
6.48316e-10
0.00283781
-5.96508e-08
0.00368838
-2.22045e-09
3.99494e-07
7.7127e-07
1.00524e-06
0.00176446
8.0763e-06
0.00306717
2.34022e-08
1.03782e-06
-3.57024e-09
0.0017817
1.44151e-06
2.58364e-06
6.04563e-07
5.25279e-08
3.67257e-08
9.23704e-07
-6.26963e-08
-0.00043711
0.00267786
0.000426815
-6.20991e-05
-0.000154766
-0.000944338
1.64682e-05
7.03682e-08
-2.71479e-09
-0.015179
1.27623e-08
1.63108e-08
1.19859e-07
0.000375612
3.64039e-07
-2.84821e-09
-6.07313e-07
6.11256e-07
6.77583e-09
0.0128909
1.83408e-08
0.000455293
-0.000444807
-1.28005e-08
3.28135e-07
7.52388e-06
3.25321e-05
2.25975e-08
0.00205583
-0.000426426
1.28474e-07
-0.0010176
7.78294e-06
1.53588e-06
2.13599e-08
-0.000100877
0.00087827
1.03916e-07
8.9474e-06
3.4891e-08
1.73488e-08
9.37794e-05
0.00796322
6.61862e-07
1.40781e-06
1.04403e-08
1.35608e-06
0.00063111
-0.00146284
1.73573e-07
-0.000764989
1.17453e-08
4.22111e-08
8.00364e-07
6.91552e-07
-1.09059e-08
3.60313e-08
-0.00108743
6.94585e-06
-0.00102586
3.31122e-07
2.32023e-09
0.00518039
-1.28877e-08
2.50939e-07
6.44803e-07
7.04598e-07
7.33348e-07
-0.0015254
0.000537464
3.75321e-07
-0.00032286
3.28177e-07
8.62078e-07
0.000709219
0.00118189
2.05246e-08
1.5933e-09
6.15078e-07
-0.00114026
4.11732e-06
1.44307e-06
-0.00272872
7.1243e-07
9.92078e-07
-0.00141
0.0095948
1.6114e-06
0.000855811
4.26856e-06
0.00188732
7.56287e-08
2.88942e-06
-0.000156094
-1.735e-08
-0.000214383
0.0102927
4.49891e-08
1.1629e-06
4.09798e-09
5.37955e-07
2.4951e-07
0.00322266
1.28955e-08
-4.34045e-08
4.24422e-08
5.62707e-07
-3.56251e-08
0.000529439
-4.42499e-08
3.93e-06
2.88015e-08
1.67099e-06
-8.59685e-09
5.44959e-09
4.06206e-08
-0.000761902
7.52954e-07
-0.000424607
3.6657e-07
-2.87401e-08
9.76975e-08
8.32577e-07
1.21624e-07
1.48165e-06
3.97334e-07
1.81826e-07
3.65437e-06
-2.03298e-09
0.000458897
-6.34352e-10
2.2012e-06
-0.000398125
0.000484475
-3.21406e-06
0.00395862
-6.85747e-07
-2.65651e-06
0.00827633
1.58936e-07
0.0103586
-1.79621e-09
6.03094e-07
-0.00013461
0.000522353
7.99297e-08
1.04672e-06
1.69513e-07
0.00201271
-0.000150713
3.24253e-08
1.07541e-06
0.0108476
-3.1548e-10
-1.90064e-11
1.67648e-06
0.00038091
8.87779e-06
-2.35233e-09
3.44524e-06
-1.48632e-08
-4.20316e-10
4.67813e-06
3.3717e-06
1.25823e-06
2.65909e-08
2.03403e-06
6.80329e-08
1.54078e-06
-3.22462e-09
2.32964e-08
2.59054e-07
-1.3786e-08
2.22363e-06
1.0556e-06
1.00323e-06
3.15363e-07
-0.00434895
9.9413e-06
-0.000578513
0.00186118
2.43249e-06
0.00188602
5.98819e-08
8.31891e-05
2.37642e-06
7.74355e-08
8.73969e-07
1.64159e-05
1.47115e-07
-1.66542e-08
-1.99154e-08
2.17598e-06
0.000922666
6.80374e-07
0.0049898
-3.40429e-08
-2.82915e-07
7.86738e-07
0.000432595
9.45621e-07
3.14401e-07
6.56995e-07
0.000437694
1.16954e-06
-9.75972e-09
9.03732e-06
7.20064e-08
-0.00447364
2.19648e-06
4.36672e-06
5.36362e-07
5.57022e-05
2.84055e-09
5.92386e-10
-2.93126e-09
1.52365e-09
0.000492062
-7.68111e-08
4.63511e-06
0.00498354
4.08224e-07
-0.00136179
0.00046899
4.43206e-06
-2.14838e-05
-9.13368e-08
8.55095e-09
7.76139e-09
-5.57596e-09
8.99338e-08
-4.7413e-08
9.28747e-07
1.74875e-06
1.55971e-07
6.07542e-05
6.04946e-08
0.00241279
7.35512e-09
-0.000435444
1.89475e-07
9.69718e-10
6.98206e-09
0.00114101
3.30378e-07
1.86197e-05
0.00919502
1.18863e-06
1.26369e-06
1.75867e-07
-4.45408e-05
3.03563e-08
3.98672e-07
4.18012e-06
6.00339e-09
5.673e-09
1.32454e-07
1.579e-06
0.00120301
3.72695e-07
6.1802e-07
1.44353e-05
-0.00136161
-6.17517e-08
8.74352e-09
0.00129384
-8.69314e-09
0.00163969
-3.02341e-08
2.17955e-07
0.00816701
1.70839e-06
2.86064e-06
6.79838e-07
8.1273e-07
4.85526e-09
8.16004e-09
9.34219e-07
8.01302e-08
7.99583e-09
7.47016e-07
2.94451e-05
-5.33897e-08
3.65509e-05
0.00566397
7.46421e-06
4.20836e-07
-0.00165786
-7.13988e-07
5.57199e-09
1.35927e-06
-2.90838e-08
3.99973e-07
-0.000235073
0.00153513
0.00988233
0.000508422
3.44697e-08
3.0397e-08
2.28403e-07
2.23177e-08
4.62625e-08
0.000856888
4.42471e-06
0.00144717
2.16944e-06
1.76339e-06
1.4645e-09
9.95123e-09
0.00480981
1.03694e-06
3.28722e-07
3.31512e-09
2.86689e-06
1.72456e-06
0.00586643
-6.081e-09
-2.59894e-08
0.00101295
-4.62358e-09
6.60837e-07
-3.75299e-08
0.000734214
2.48371e-09
-0.000427704
3.0271e-09
1.85136e-06
9.9732e-07
-9.38971e-08
6.02107e-07
-4.24325e-09
3.36111e-07
-5.31412e-08
4.78213e-06
-1.03144e-08
0.000668858
-8.19759e-09
-3.16741e-05
0.00310604
4.68692e-07
-7.44933e-08
-0.000183707
-0.000373837
3.99693e-07
1.70222e-06
3.54599e-09
0.000501837
7.61275e-08
4.48554e-06
-1.42717e-08
-5.23294e-08
1.18596e-05
7.7383e-07
-2.47598e-08
9.50187e-07
0.00240391
5.44129e-05
0.0128758
8.7387e-09
0.00209984
-7.69643e-09
-5.29199e-08
-1.32521e-08
1.17522e-08
-1.97358e-09
0.00917034
-0.000615605
-4.29832e-08
-4.54542e-08
6.91268e-07
2.33753e-08
-0.000225306
1.13807e-06
0.0014552
-0.00124347
1.89398e-07
2.21894e-06
-1.49761e-08
1.008e-06
-5.64282e-07
1.78488e-07
-1.89265e-08
1.23238e-05
-9.50204e-05
1.30119e-06
-0.000190467
1.38652e-06
-5.0988e-09
5.37001e-07
1.74228e-06
-0.000910183
7.7168e-07
8.05515e-06
1.59198e-06
-1.60102e-08
0.000306123
-0.00162128
0.00145516
0.000782306
7.20938e-05
2.60576e-08
-2.6273e-06
-9.74956e-10
1.84601e-05
1.3079e-07
-7.36933e-08
0.0124092
5.12841e-08
-6.61584e-08
1.57035e-08
3.24358e-08
0.000756294
2.55026e-05
-1.62841e-08
5.4803e-07
0.00145968
6.34145e-08
-0.000149883
5.92014e-09
1.649e-06
0.00719877
-3.86752e-08
4.49257e-06
1.34981e-07
4.85663e-07
4.31445e-06
5.41379e-08
3.13753e-06
1.61666e-06
0.00448729
1.92297e-07
0.00087154
5.55909e-07
0.00292002
-0.000833438
0.000638913
1.24631e-06
-5.62777e-09
3.55261e-08
5.0626e-10
1.18035e-06
1.06799e-09
0.00148321
3.97448e-08
1.46439e-08
-8.30364e-08
1.95451e-08
5.31507e-09
6.86571e-07
1.71958e-07
3.26345e-07
1.05242e-07
0.00276342
5.58398e-06
5.68165e-07
1.05576e-07
0.0111791
-3.91106e-09
-0.000709302
-1.43398e-08
3.74401e-08
-1.22132e-08
4.23532e-08
7.93253e-08
-2.0713e-08
-2.13112e-08
2.29525e-06
9.41702e-10
5.50991e-06
2.0259e-07
-0.00021938
1.20129e-05
1.26182e-06
2.52667e-06
5.39992e-08
-0.00131075
2.10668e-06
-1.07032e-08
1.58616e-07
-5.46747e-09
-0.000758971
1.89388e-09
6.10947e-07
7.27215e-06
-0.000277909
3.73727e-07
7.68134e-08
-0.00134001
1.74634e-05
0.000109267
1.52716e-07
-3.00392e-08
2.10795e-07
1.13702e-06
-2.43927e-09
0.000728569
9.8311e-09
-1.97619e-09
5.50461e-06
-3.41541e-07
1.23307e-07
0.00347659
-0.000355065
4.54875e-06
1.13787e-07
-0.00133857
9.97744e-07
-3.81454e-08
0.00127819
3.31721e-08
1.13131e-07
6.75231e-09
8.72406e-07
1.23809e-06
0.0037757
-0.0012953
1.21307e-06
0.00325786
9.95732e-07
-6.8603e-10
-2.87198e-06
-2.23733e-08
0.00353947
1.85214e-07
-5.1354e-08
4.40866e-08
6.81759e-08
0.00453686
0.000609298
3.52673e-06
0.000441255
0.00297314
-8.38222e-08
-1.95764e-09
6.27991e-08
-2.09711e-06
1.8865e-07
5.24541e-08
1.89049e-07
0.00780295
5.09966e-06
8.01101e-09
9.48535e-08
5.94212e-07
2.21873e-06
-9.06768e-05
1.20299e-07
2.46588e-08
3.58608e-07
0.0013992
7.43228e-07
0.00102277
2.50196e-08
-2.68342e-08
1.13779e-07
1.21231e-08
6.17874e-08
4.47467e-06
0.00185115
0.00114694
-2.13362e-07
-1.62954e-08
-0.0024345
2.20093e-07
-0.00493211
0.00100538
4.78067e-08
-0.00075206
0.000940731
-0.00129878
1.44916e-06
7.41731e-07
0.00272894
6.16168e-07
-2.60445e-09
3.45751e-07
4.49706e-05
7.49752e-08
7.15071e-05
-2.97709e-10
3.09599e-05
0.00502995
-1.35909e-08
2.99714e-08
1.01596e-08
5.82952e-06
7.39895e-07
-3.71412e-08
6.22477e-07
-4.29288e-09
5.19561e-07
-6.08689e-06
5.76699e-09
-0.000386541
0.0011483
-4.10622e-11
7.11102e-07
1.26466e-06
-1.76952e-08
0.00126108
0.000361499
-0.00123418
0.00092052
-2.09658e-08
7.98926e-08
1.75927e-07
-4.9737e-09
2.5118e-06
7.62632e-07
2.5204e-09
1.5044e-06
-2.27197e-08
1.40055e-05
1.02311e-06
0.00112847
-1.67542e-10
5.21036e-08
-5.94179e-07
1.59921e-06
1.17938e-06
-3.95875e-10
0.000234573
0.00230068
-0.000247428
-0.000989398
-4.54981e-05
0.00257199
0.00278764
-1.51968e-09
-2.70285e-09
1.08741e-07
3.69015e-06
1.3825e-06
1.16935e-06
-0.000307534
2.17125e-07
-3.12313e-08
8.66195e-09
4.9313e-06
-8.16613e-09
4.96577e-07
2.86569e-08
0.000131953
4.90151e-09
-3.18124e-08
-1.01941e-08
5.0428e-09
-4.16485e-08
1.67473e-08
2.65217e-06
-3.86214e-09
0.0039372
-1.04448e-09
1.40301e-08
0.000962868
0.00179767
0.000888171
-1.74438e-05
-3.17892e-08
5.02866e-06
-3.31715e-08
1.40219e-07
5.1776e-08
4.78415e-10
4.50075e-07
-0.000502521
2.21084e-07
1.62232e-06
0.0171676
1.82361e-07
3.26501e-08
-5.04681e-09
4.7344e-06
5.1221e-09
-0.000287728
1.30334e-07
3.74689e-06
9.44408e-09
-2.30395e-08
4.10314e-07
8.2542e-07
3.39272e-10
6.10462e-06
-0.000713623
3.71777e-06
-0.000588086
-1.69499e-09
-0.000919415
1.04425e-05
1.05462e-09
0.00318278
-2.18579e-09
-3.99799e-07
-1.03553e-08
2.50212e-07
-4.78081e-08
6.45736e-09
2.93697e-08
-1.59039e-07
1.36582e-06
7.74115e-08
1.37476e-08
2.75039e-06
6.04272e-08
0.00293582
5.08384e-09
6.18425e-07
6.15734e-07
0.00200521
-3.54066e-06
-1.07535e-09
5.07865e-06
-4.05265e-08
8.56858e-07
1.3086e-07
-1.34087e-05
1.25629e-06
2.65309e-09
2.09138e-06
-9.24739e-07
1.75778e-06
6.55086e-05
-2.61707e-08
1.3843e-06
1.3626e-06
1.41093e-06
1.55347e-08
7.35783e-08
1.15117e-05
-0.000240059
1.2098e-07
-3.73724e-08
-0.00012455
-2.75393e-08
9.27133e-07
-2.11711e-08
4.25533e-07
0.00250839
5.04047e-08
-0.000472596
3.65673e-07
-2.49169e-08
2.10761e-06
-7.34046e-08
-1.00148e-06
0.00095821
7.40855e-07
3.72578e-06
-5.15286e-08
-2.69817e-09
1.97562e-06
-8.71233e-10
-4.46251e-09
6.54427e-07
5.28212e-07
1.32598e-06
3.6796e-07
-4.3745e-09
9.58856e-08
6.19798e-08
-1.96518e-08
-2.30434e-10
1.39157e-09
0.00459307
1.38555e-07
-7.08233e-09
1.14142e-06
-2.80792e-08
-4.08956e-08
0.00404128
1.2538e-09
-0.000191967
2.6335e-07
0.00507085
3.43847e-06
-8.20263e-07
0.00340735
4.78405e-07
3.61652e-05
2.17462e-07
1.70338e-06
1.78485e-07
7.36327e-08
1.16104e-08
1.16447e-08
6.34897e-07
6.22068e-09
1.59031e-07
-3.73634e-08
5.51367e-08
-8.53916e-05
0.000294927
0.0115212
4.29395e-07
-1.05482e-06
0.0006402
-0.000741744
-1.01842e-08
4.95267e-07
1.58893e-05
3.6618e-08
2.70286e-07
0.00316874
0.000673729
5.99587e-07
1.26307e-06
2.73071e-08
-3.09546e-07
9.31374e-09
3.2202e-08
-0.000533206
-6.42721e-09
3.22368e-08
0.00344497
3.07025e-07
4.17212e-06
-0.000949908
2.13029e-06
-4.53804e-09
-3.87168e-08
-7.82174e-08
-0.000750667
-0.000214554
0.000335256
1.7905e-07
4.84635e-09
0.00131294
-6.30987e-09
7.08589e-07
-2.10943e-07
3.36442e-07
9.68657e-07
-1.24377e-08
0.00775067
0.00460092
1.27683e-07
1.17563e-06
1.43669e-06
0.00453455
4.49879e-07
1.48285e-06
3.21971e-06
7.99459e-07
6.05608e-06
1.41469e-06
3.85061e-09
1.00473e-06
-2.28628e-06
-4.4009e-05
-2.12292e-08
1.9319e-06
4.43404e-07
1.58089e-06
4.83191e-09
0.00104654
4.35975e-07
2.32804e-08
3.46329e-08
1.31259e-07
1.40263e-07
-3.28295e-07
-6.06301e-08
2.22991e-08
1.92351e-07
1.01714e-05
2.4809e-07
2.81929e-09
-1.07876e-08
1.00698e-06
7.83521e-06
-1.3031e-08
5.67007e-07
0.0162875
3.73817e-08
0.00125626
1.19125e-06
0.000401217
8.39197e-06
1.60421e-09
-9.8632e-05
-2.26209e-08
6.85091e-08
9.18182e-07
7.95672e-07
1.41362e-06
1.27019e-06
3.64849e-08
5.63047e-08
4.38798e-07
3.94769e-08
6.21389e-10
1.14604e-06
4.00917e-07
1.37384e-08
8.7757e-06
1.09991e-07
-3.19944e-08
-1.90638e-08
0.00105901
3.88704e-07
4.96258e-09
4.06874e-07
-3.30715e-08
0.00173183
8.49797e-07
9.24842e-07
-0.000273398
1.15341e-05
6.59487e-05
1.58925e-06
5.03254e-06
-2.54872e-08
-1.66934e-06
5.40673e-08
4.8492e-08
0.0140987
0.00113268
2.67077e-06
0.00119307
8.42688e-09
0.00138435
-2.14034e-08
1.70493e-06
4.17081e-08
5.05568e-05
0.0110798
5.90918e-07
-6.41487e-08
-1.97984e-06
8.36621e-07
-1.02396e-08
-0.00075217
6.19702e-09
5.97116e-09
4.01092e-07
-7.10048e-09
3.75419e-07
1.26719e-08
1.22393e-09
6.55592e-08
1.58399e-05
1.04771e-06
3.48412e-07
-1.7034e-08
0.000610565
0.00117346
-6.61396e-08
5.89606e-06
4.69251e-08
-1.09246e-07
0.000390067
-5.68192e-08
1.10089e-08
1.49485e-08
0.00136534
-1.31105e-08
-2.55031e-08
6.43047e-07
6.47848e-05
-6.32438e-08
8.72252e-10
2.69571e-08
1.6477e-05
3.128e-07
5.68618e-07
5.91507e-06
5.67987e-09
2.22766e-06
-2.84034e-08
0.00196614
3.04643e-07
9.36513e-09
6.09511e-07
7.71932e-07
-3.13599e-08
7.9578e-08
2.284e-06
0.000276694
2.21887e-07
0.00213006
-2.02638e-08
-2.10102e-08
1.07988e-06
-2.5545e-08
1.38222e-07
0.0132968
9.31666e-09
9.45013e-07
2.09926e-06
-0.000795216
9.39177e-06
2.22783e-07
8.49673e-08
2.33071e-08
-3.85506e-08
-6.43497e-09
-1.39089e-08
1.41503e-05
-1.07458e-08
5.73173e-06
2.4521e-06
3.68629e-08
9.33108e-08
4.19635e-07
2.45189e-06
3.77786e-06
-1.50893e-07
5.13525e-07
4.1565e-08
0.00204789
4.00122e-07
8.70138e-07
1.1748e-06
2.32266e-08
1.19294e-06
-0.000303747
1.18786e-06
0.000756609
-4.49792e-05
-0.000330165
3.59491e-07
2.00836e-08
2.95694e-07
-2.81273e-07
1.18242e-07
2.10031e-07
3.47972e-07
-1.33651e-08
4.2588e-08
-1.89909e-08
6.53124e-08
3.30579e-07
5.71799e-08
-0.000424063
-6.80521e-08
0.00756441
-3.50619e-08
9.49518e-08
8.20956e-08
2.49707e-06
1.25854e-07
-3.04666e-09
-0.000863564
-5.22451e-08
-4.87774e-09
1.11477e-06
6.48215e-08
8.0465e-09
8.8482e-08
0.00142325
5.72357e-08
7.0891e-07
2.0548e-07
-0.000485109
4.67365e-08
5.64136e-06
9.60067e-06
7.96817e-08
5.07323e-08
1.92594e-07
-5.72062e-07
7.6154e-07
-0.000780599
2.67749e-08
-0.00097304
1.39922e-08
2.03144e-06
0.000790929
1.5483e-07
1.2226e-05
7.39885e-08
6.4377e-07
3.33287e-08
0.0044266
2.98132e-07
-4.7457e-08
3.97597e-08
3.2564e-06
7.01135e-08
-2.28385e-09
-3.70781e-08
-0.00133325
3.18368e-09
3.53635e-08
0.000529748
3.87322e-08
-7.21013e-10
7.50073e-08
6.8049e-08
0.000330297
-2.55374e-08
-1.79873e-09
-4.01817e-08
-5.51629e-08
2.45316e-07
4.83265e-08
1.4023e-06
0.00254417
-1.11112e-09
8.81958e-09
6.12098e-05
2.35322e-07
-0.000515668
4.4849e-07
0.000281301
3.0764e-08
3.13138e-08
-3.62246e-08
0.00135117
-0.000503792
6.61017e-09
8.47526e-08
-3.66236e-07
9.87982e-09
1.18709e-08
0.00110432
-4.83044e-08
1.72789e-06
3.88491e-08
1.31852e-06
-1.17829e-09
0.00388702
-3.49057e-08
1.20429e-06
5.21337e-10
-1.93249e-05
-0.000104196
5.4312e-08
9.50931e-08
0.0115277
1.41302e-06
-9.33569e-05
2.25757e-05
3.22062e-06
-7.49113e-09
5.99369e-07
1.57662e-06
4.16201e-05
2.21891e-07
1.19993e-06
7.63282e-08
2.19621e-08
0.000793971
-0.00147289
1.32351e-06
2.66254e-06
4.8785e-06
7.75895e-08
0.00514836
9.99872e-08
4.80466e-08
6.67407e-07
0.00428338
6.31848e-06
9.81283e-07
1.68751e-05
-3.65434e-08
0.00197277
0.00147626
0.000310706
-2.14495e-08
-0.000915948
-0.00144586
-0.000251813
0.000587463
0.00313783
1.74272e-06
3.75547e-07
1.50523e-06
7.73627e-08
8.00472e-09
-3.30245e-05
2.19827e-06
3.02207e-09
0.00218928
-1.5887e-08
4.06593e-08
1.03759e-06
2.24144e-08
-0.000335946
3.20298e-08
-0.000284893
1.40365e-06
1.12444e-07
-2.54219e-05
0.00486483
2.22143e-06
-7.3349e-09
2.1399e-09
1.08959e-06
1.61317e-07
-4.26592e-08
5.08307e-07
-2.20851e-07
1.61372e-06
1.59634e-09
4.74054e-06
4.94877e-08
6.78112e-08
0.000123362
6.38625e-06
7.03116e-10
7.50312e-07
-0.000727862
-2.53873e-10
3.31287e-08
-0.000259949
4.33634e-06
1.18129e-07
2.52374e-07
-1.91925e-08
1.59516e-07
4.79569e-07
0.00137862
1.16235e-06
1.57419e-09
-2.02002e-08
-8.04383e-07
3.86317e-08
8.71859e-06
0.000352609
1.65399e-08
-1.21204e-08
1.75647e-07
-2.03128e-08
1.80192e-07
3.69257e-08
7.92054e-08
-1.6486e-08
8.89561e-09
4.15253e-08
7.34434e-10
1.42701e-06
3.66636e-05
-2.22341e-09
0.00799202
-0.000520526
-2.5392e-08
2.03457e-06
3.85878e-06
3.37596e-07
4.09825e-09
1.78516e-06
4.11751e-07
5.75334e-07
5.78066e-07
7.33646e-08
-2.00883e-08
-0.000938074
6.70816e-07
-8.1343e-06
3.96513e-09
2.8624e-09
-2.25669e-08
1.28198e-07
-9.98591e-10
8.83519e-07
1.44785e-06
4.93099e-05
-2.17504e-08
2.4541e-06
0.00177464
0.00211368
-2.76155e-08
8.08635e-07
-4.79001e-07
-0.000297379
-0.0223603
-4.15919e-09
2.72054e-08
3.61907e-06
-1.12398e-05
1.00858e-05
9.80563e-07
4.63524e-06
-2.25979e-08
8.15735e-08
1.94277e-08
-1.44297e-08
1.51669e-09
7.11963e-07
1.63098e-10
1.35236e-06
3.38237e-08
0.00899328
0.00435367
-6.04214e-05
-0.000101088
0.00204323
-4.7281e-09
-9.71422e-09
0.0146766
4.51568e-08
6.28247e-08
-1.66373e-08
2.78369e-06
0.000892805
-0.000866474
2.51338e-08
2.33611e-07
5.25637e-08
7.63898e-09
0.00126841
-5.00907e-08
4.84637e-05
0.00896476
-1.58493e-08
9.11748e-09
0.00120015
1.66764e-06
3.49147e-07
7.36491e-10
0.0111327
0.00110833
5.74936e-08
3.69689e-06
4.99716e-10
0.00267373
-0.0176635
4.13406e-07
-0.000170019
-0.000376424
0.00107521
4.62012e-08
2.24599e-07
-2.90677e-09
-2.5891e-09
0.000830082
1.4279e-08
8.58215e-06
4.19919e-06
-0.000453764
-7.48198e-08
2.63334e-07
6.57803e-06
5.31465e-07
0.0134209
-0.000894232
-1.86587e-08
3.80423e-07
3.76416e-07
2.6992e-06
0.00113667
3.31703e-08
0.00113411
6.24808e-08
1.24451e-06
8.06173e-09
-6.04482e-08
4.3169e-06
2.89858e-07
-0.000259726
-1.54778e-08
1.39995e-07
5.01752e-08
2.44877e-06
4.27558e-07
0.00326213
-1.39127e-05
-6.04362e-05
2.02888e-06
2.31073e-09
3.42525e-08
1.68472e-06
3.39648e-06
0.00486025
0.0136427
-3.38299e-08
1.27742e-05
1.60076e-06
-0.000706633
6.84256e-07
2.71115e-07
5.14901e-07
7.41448e-08
0.00594201
-1.65449e-08
7.05425e-07
0.000622106
0.00817873
0.00138167
0.00180685
4.25774e-08
9.54912e-07
5.6885e-08
0.00795008
6.56235e-08
0.0107724
7.60318e-08
0.000199979
4.30758e-08
-1.97845e-08
6.58904e-07
8.58212e-08
1.8989e-09
1.08836e-08
0.00138494
1.2589e-06
4.71395e-10
1.44461e-07
0.00156861
-0.00031633
-3.57603e-09
-0.000890316
7.19423e-08
9.92191e-07
9.77319e-07
-3.79114e-08
4.48245e-07
-1.98475e-08
0.0102156
-5.54921e-08
5.96315e-07
-4.23455e-09
9.54298e-06
6.98066e-07
7.81896e-08
0.000182217
-9.3473e-05
4.94823e-06
1.33675e-07
2.1739e-05
-1.52389e-09
1.66246e-06
6.073e-07
1.03159e-06
0.000692636
0.00119141
1.14315e-07
0.00104767
1.24308e-07
-1.70855e-08
-3.29168e-09
0.00125312
-2.37578e-07
1.40877e-06
2.57373e-06
-1.27826e-08
4.48292e-05
4.20031e-07
5.9593e-06
1.27364e-06
0.0097592
0.00150306
0.00380561
-0.000942077
-2.76435e-08
2.85686e-08
-6.86783e-09
8.64138e-08
3.24916e-08
3.70567e-06
5.04633e-08
-3.4809e-08
-0.00115988
-3.1743e-09
-4.49468e-08
1.28949e-06
3.72166e-06
4.8485e-07
-1.19779e-08
0.00326539
1.64164e-07
1.36238e-06
2.86971e-09
-0.00039814
1.16936e-08
0.01031
6.20734e-09
6.5985e-07
1.82688e-07
-4.45843e-09
-0.000302745
5.04189e-06
6.03274e-07
9.18286e-09
-7.01721e-08
0.00101497
-0.000751122
0.00200153
1.13107e-07
5.99662e-07
8.09956e-06
8.35412e-08
-3.92518e-08
2.03066e-08
0.000396532
8.11966e-07
5.65747e-08
6.86671e-07
5.19067e-07
-4.34822e-05
4.45864e-07
5.15069e-06
5.66992e-07
6.65094e-07
6.23099e-09
1.77584e-06
2.23248e-07
-9.11983e-10
0.0014695
-0.00096209
0.00194941
0.000112637
-0.00125216
0.00140129
0.0119137
4.81809e-11
1.73327e-07
0.00183826
0.000916534
0.00696947
4.73757e-09
9.11625e-07
6.3611e-11
-3.76956e-09
2.06468e-06
0.00884076
1.19431e-06
-2.12429e-08
8.76788e-06
1.69705e-06
6.94099e-07
0.00237536
0.000281018
7.45868e-06
-7.0727e-08
0.00289056
1.90215e-05
1.27546e-05
8.05024e-07
8.15923e-07
-4.84896e-09
-1.78673e-08
4.95908e-07
5.24033e-07
7.03165e-08
1.16324e-06
5.00512e-07
4.30113e-08
4.69246e-06
0.00114518
1.11519e-08
1.23548e-06
0.00182051
3.76637e-06
7.93089e-09
3.52667e-06
-1.41132e-05
0.00107797
3.77942e-07
9.09543e-08
5.24754e-07
1.59314e-07
2.16099e-08
-3.33807e-08
-4.99995e-09
7.79948e-07
1.36976e-06
9.32639e-06
-1.27711e-08
5.95338e-08
0.00129615
-6.64456e-05
0.00295275
6.59937e-06
2.1354e-06
2.00087e-08
-6.04253e-10
4.94626e-07
5.06833e-08
0.00904857
4.89193e-09
6.12709e-09
-2.438e-09
0.00158297
0.00124989
-2.05214e-09
1.33267e-06
1.5017e-07
1.97312e-08
4.17743e-07
7.86566e-08
1.04496e-06
2.89302e-07
-0.000533054
4.29591e-07
0.000981717
1.98771e-07
0.00120881
3.44573e-07
-7.1379e-08
-7.98767e-09
1.59259e-06
2.41536e-06
-4.29818e-08
-9.482e-08
3.65602e-07
4.81724e-07
8.15094e-05
-7.10074e-05
0.000203861
6.69867e-09
-0.00017268
4.72407e-08
9.69762e-08
9.42048e-10
5.3207e-07
4.0038e-08
0.000627303
-0.000102972
6.38463e-08
-9.18211e-11
0.000386633
5.90219e-08
0.00133466
0.000995667
5.10936e-06
5.0139e-08
2.53375e-06
-9.91258e-05
4.35286e-05
0.003779
4.5199e-07
4.72556e-08
1.95063e-07
1.18679e-07
0.00187487
5.37915e-08
3.39957e-07
8.87226e-06
-0.000989661
4.75546e-08
6.12181e-09
-0.000799115
3.32857e-07
0.00040526
2.13395e-07
3.64987e-09
4.88919e-07
3.70924e-06
3.55809e-07
-2.26584e-05
1.10631e-07
5.61173e-05
1.69151e-07
5.66478e-09
7.16344e-09
5.36619e-06
-5.08217e-09
4.98468e-07
-7.58727e-10
3.57668e-08
6.01981e-06
5.54707e-07
6.63774e-08
-2.2151e-08
1.56454e-07
5.144e-05
1.22228e-06
5.45302e-07
8.01128e-09
5.37741e-07
-9.75737e-10
1.52985e-06
5.04152e-07
8.1252e-07
-1.93315e-06
6.65729e-07
7.06418e-07
6.4808e-07
1.05747e-07
1.38342e-06
-0.00236244
0.000702822
4.45258e-08
-0.000813951
0.00114985
-1.40311e-10
-3.10964e-09
-1.07024e-06
0.00287373
7.22298e-08
0.00122028
5.74965e-06
1.98908e-07
1.74012e-06
1.06382e-08
3.63986e-07
6.94583e-07
0.012031
-3.2314e-07
5.50454e-06
2.42854e-06
0.000847704
0.00239682
3.36928e-07
0.00233879
8.73734e-09
1.47207e-05
0.0014239
-9.32534e-09
-5.53988e-08
0.00101987
-2.4282e-09
-2.51819e-09
3.37767e-06
0.00455879
7.06228e-06
5.2318e-07
0.00153379
-5.88772e-08
-0.00104083
0.00126498
-2.09801e-08
1.16464e-05
0.000185967
0.00120267
0.00176181
0.00114807
0.00127396
-2.10043e-08
4.62075e-10
7.72655e-07
1.22849e-06
-4.16326e-10
4.22825e-06
4.78812e-09
0.0010979
6.62257e-06
-3.57e-07
6.06701e-06
0.00112636
5.72801e-06
2.1933e-06
2.85771e-06
-0.0003774
3.80599e-05
4.21848e-07
-1.31478e-09
5.36258e-06
1.00524e-08
3.20623e-08
0.000924865
-5.84513e-09
-5.76705e-06
-2.80563e-09
0.00549713
4.82864e-07
1.30648e-09
0.0042375
-4.89836e-08
3.04758e-08
0.000832239
0.0184549
0.00331405
6.43941e-07
1.43691e-06
1.08039e-08
1.17478e-06
1.73029e-06
1.23437e-06
6.54968e-09
0.000826583
1.02664e-06
3.65589e-08
0.00157815
8.63306e-07
-3.29845e-11
1.46285e-06
1.05622e-06
1.28895e-06
-3.52574e-09
2.16808e-06
-5.52518e-09
2.00994e-06
4.83818e-06
0.0011913
-4.23512e-08
3.90428e-07
-0.000711902
2.64215e-07
5.13471e-07
8.96481e-07
4.95999e-07
0.00437147
1.07153e-06
2.02145e-09
0.00555102
-3.89458e-08
0.000772325
-2.298e-08
7.91017e-08
2.12216e-06
0.00205211
5.90314e-08
3.63816e-06
-6.16196e-05
7.87498e-07
1.0244e-07
-4.46425e-07
4.67052e-07
-0.00143591
7.35818e-09
4.68496e-05
2.10127e-06
9.37753e-07
4.91293e-07
-1.53019e-07
2.0955e-07
-8.17907e-07
1.09961e-06
5.79534e-09
1.34502e-07
2.31035e-07
0.00289967
-2.84583e-09
3.46227e-07
-4.54355e-09
2.234e-06
3.97354e-07
1.14211e-06
0.00296243
-6.80064e-09
7.13034e-06
-3.57137e-08
-8.66752e-09
-2.13206e-08
1.22925e-08
6.15298e-07
-2.67129e-08
1.76844e-06
0.000390239
1.24164e-06
9.4778e-07
4.4217e-07
3.62456e-08
6.18114e-06
4.28199e-10
5.90446e-05
-0.000126014
-0.000591707
2.4271e-06
1.22489e-07
6.03732e-07
-8.04599e-09
1.5311e-08
2.56028e-06
2.15028e-07
0.00140592
1.2946e-06
-0.000748379
2.37504e-06
-1.73205e-08
-4.47526e-08
0.000825806
7.2578e-09
6.01756e-07
-1.75951e-06
3.54182e-06
3.16014e-07
0.000591069
7.16911e-09
1.1722e-07
1.00582e-09
1.76444e-09
-5.51884e-07
1.97631e-06
3.67331e-08
6.89987e-07
2.04887e-06
1.08303e-06
1.35337e-06
-9.50227e-05
1.04669e-05
5.83136e-06
2.43112e-06
5.9712e-07
6.26937e-08
1.40522e-06
0.00190393
0.00795193
-0.000608171
9.44699e-07
-0.000406128
1.96448e-06
9.16184e-08
-2.33045e-08
1.60321e-06
-1.158e-08
1.03735e-06
-0.000488294
-2.47145e-09
8.5285e-08
4.91111e-06
1.67583e-05
1.46528e-06
0.000989833
-1.95406e-09
0.00111148
2.06027e-07
0.00172029
-1.50588e-07
4.87475e-09
-0.00127308
1.50472e-06
-2.69845e-09
-5.22984e-08
5.00997e-09
-5.18889e-06
3.06272e-07
-1.16556e-06
0.00274167
3.99241e-08
0.00103121
-1.48371e-08
-0.000958123
-5.85459e-09
2.74444e-07
3.24838e-08
2.17903e-07
-3.45727e-08
1.91082e-07
0.000877551
-0.00125197
7.21065e-07
5.89581e-08
-2.07971e-07
3.74048e-08
5.90909e-08
2.27414e-07