/*--------------------------------*- C++ -*----------------------------------*\
| =========                 |                                                 |
| \\      /  F ield         | OpenFOAM: The Open Source CFD Toolbox           |
|  \\    /   O peration     | Version:  v2012                                 |
|   \\  /    A nd           | Website:  www.openfoam.com                      |
|    \\/     M anipulation  |                                                 |
\*---------------------------------------------------------------------------*/
FoamFile
{
    version     2.0;
    format      ascii;
    class       volVectorField;
    location    "650";
    object      U;
}
// * * * * * * * * * * * * * * * * * * * * * * * * * * * * * * * * * * * * * //

dimensions      [0 1 -1 0 0 0 0];


internalField   nonuniform List<vector> 
13851
(
(1.07851 0.123684 3.14713e-23)
(1.06856 -0.000847102 1.18097e-20)
(1.0666 -0.000378091 0)
(-0.214141 -0.0422294 -1.45913e-19)
(1.00237 -0.000506167 0)
(1.08393 -0.0116563 0)
(1.03801 0.0294234 0)
(1.01276 -0.000570947 0)
(0.61001 0.0823738 0)
(0.991913 -0.0113299 0)
(1.1999 -0.0555905 -3.59153e-20)
(1.00203 -0.00975727 -9.09947e-22)
(0.982898 -0.0233726 0)
(0.323059 0.0365249 1.24506e-20)
(1.0799 0.0510708 -4.75534e-20)
(1.02725 0.0830094 1.33948e-21)
(-0.430104 -0.0319798 0)
(1.03415 -0.01059 0)
(1.18014 0.175573 -5.50433e-21)
(1.08176 0.122845 -1.49596e-20)
(1.09575 0.0523827 2.58326e-20)
(1.05353 -0.0821476 -1.31747e-20)
(0.475264 -0.244274 -1.13249e-19)
(1.00009 -0.000261245 -3.33506e-22)
(1.31948 0.100822 0)
(1.03975 0.0744554 -1.47148e-20)
(1.02257 0.109447 1.9596e-20)
(1.10246 0.206563 3.1647e-20)
(0.75405 0.0697115 -8.28788e-21)
(1.02022 -0.00846506 0)
(-0.128327 -0.0392536 1.49358e-19)
(1.03866 0.0288796 -1.1575e-20)
(1.0687 0.117794 0)
(0.739411 0.148227 3.98663e-20)
(1.15516 -0.0467511 -5.48232e-20)
(0.783439 0.069711 -2.02215e-21)
(1.00005 -0.000235412 3.46592e-22)
(1.22998 -0.0880396 1.48286e-19)
(-0.0253256 0.0222422 -8.07599e-20)
(1.011 -0.0369249 -1.10157e-22)
(0.43033 0.139797 -6.19007e-20)
(0.799646 0.0734253 0)
(-0.294006 -0.0247714 -9.49921e-21)
(1.1632 -0.507557 0)
(0.828657 0.0812501 1.97325e-20)
(1.0167 -0.020225 8.5792e-21)
(1.01515 0.00054817 0)
(1.03251 0.0905841 -1.21962e-20)
(1.05326 -0.0445643 1.49579e-20)
(0.982383 -0.0225052 -4.7082e-21)
(-0.362942 -0.0059 4.47084e-20)
(0.974816 -0.0173958 -1.5219e-20)
(1.02797 0.0834666 -9.81109e-21)
(1.04681 0.0479511 7.24389e-21)
(0.411185 0.0371399 0)
(1.01001 -0.0373382 2.96296e-22)
(1.06938 0.120384 -3.92943e-21)
(0.369606 0.126384 5.16006e-20)
(1.01884 0.09597 6.67589e-21)
(0.106277 0.0309581 0)
(1.00187 -0.009287 1.01866e-21)
(1.02377 0.109222 1.11999e-20)
(0.995685 -0.00597651 0)
(1.0543 -0.0467141 -7.2095e-21)
(0.915351 -0.483554 4.72459e-21)
(0.89643 -0.506145 3.95271e-21)
(0.0773123 0.0214008 0)
(0.702022 -0.153099 -9.71995e-20)
(1.02477 -0.034706 -4.91612e-21)
(-0.189742 -0.0427211 -1.3619e-19)
(-0.215836 -0.0325725 2.35158e-19)
(1.10356 0.0632968 -3.50444e-20)
(0.996799 -0.0283553 -1.44551e-21)
(0.10857 0.0269984 4.38139e-20)
(1.05453 0.0495036 -2.06544e-21)
(1.03124 -0.0684803 -6.3906e-21)
(-0.395883 -0.0357852 0)
(1.01935 -0.00287692 0)
(1.3595 0.104167 -2.11517e-20)
(1.00686 -0.0183018 5.77606e-22)
(1.02612 -0.0349197 0)
(1.34368 -0.010489 1.33377e-19)
(1.15155 -0.0499017 4.49416e-20)
(0.30487 0.0376761 -1.57202e-20)
(0.133758 0.0340262 -4.02783e-20)
(-0.157205 -0.0363018 -4.93902e-20)
(1.05732 -0.0826256 1.69184e-20)
(0.524713 0.0360435 0)
(0.993059 -0.01521 -1.12001e-20)
(-0.124525 -0.0379167 5.94812e-20)
(0.97341 -0.0167932 -1.54496e-20)
(1.03987 0.0293925 1.27849e-20)
(-0.343677 -0.0209393 0)
(-0.195162 -0.0365255 -1.10366e-19)
(-0.0778885 0.0383151 -3.46017e-20)
(1.14449 -0.464411 -5.12675e-20)
(1.0123 -0.0229857 -1.46455e-21)
(1.02931 0.0872359 2.01293e-20)
(-0.209711 0.00942838 1.55041e-21)
(1.29005 -0.165702 3.04222e-21)
(1.02891 0.0885139 -1.70931e-20)
(0.820049 -0.137218 -2.9337e-20)
(0.823224 -0.171223 -9.38443e-20)
(0.992883 -0.0305546 9.68182e-21)
(1.01994 -0.0188943 0)
(1.12044 0.0493478 -1.0104e-20)
(1.01924 -0.0188951 2.61298e-21)
(-0.191162 -0.0342929 -6.02438e-20)
(1.04052 0.0286676 0)
(1.03321 -0.0103958 -4.67269e-21)
(1.04772 -0.125741 5.58948e-21)
(1.01748 -0.0203436 -6.33539e-21)
(1.24196 0.0875427 2.87322e-21)
(1.18022 0.0171139 4.31112e-20)
(1.05304 0.109285 0)
(1.04702 0.0464768 -6.02857e-21)
(1.01445 -0.00635338 -9.51113e-21)
(1.01327 -0.000626626 -5.81034e-21)
(-0.231447 -0.039449 2.44834e-19)
(-0.149119 -0.0466951 0)
(1.17474 -0.377824 8.82026e-20)
(1.02763 -0.00946299 8.64224e-21)
(1.02018 -0.036523 2.36315e-21)
(0.292644 0.0733315 -2.49704e-20)
(1.13321 0.165788 0)
(0.627308 -0.242583 0)
(1.01272 -0.0225705 0)
(1.17159 -0.127849 5.9417e-22)
(0.499366 0.127584 1.5492e-20)
(1.08638 0.0645177 0)
(1.05034 -0.0848989 6.18771e-21)
(1.11168 -0.0356013 -5.59664e-21)
(1.38697 -0.104882 1.24034e-19)
(0.718215 0.142418 -6.82191e-22)
(1.20483 -0.0503519 4.35273e-20)
(-0.102332 0.0326315 7.45892e-20)
(0.714465 -0.144405 7.54351e-20)
(-0.175621 -0.0354271 0)
(0.855811 -0.104782 0)
(1.07986 0.0644454 -1.37253e-20)
(1.33946 -0.0165904 -9.52157e-20)
(0.980142 -0.0475504 2.14069e-21)
(0.992347 -0.0153888 9.71031e-21)
(0.766038 -0.343821 1.5952e-20)
(1.30756 0.178901 -6.01538e-21)
(1.01701 -0.0694202 0)
(1.01902 -0.00258715 0)
(-0.184039 -0.0372986 1.11544e-19)
(0.591441 0.0604427 0)
(1.17845 -0.129467 0)
(1.02967 0.0893136 2.76723e-20)
(1.24195 0.0815593 0)
(1.18504 0.0202266 -9.48477e-20)
(1.16593 0.161298 0)
(0.974886 -0.0269495 -8.38446e-21)
(0.984491 -0.0129723 9.39679e-21)
(1.00186 -0.00776563 0)
(-0.0775933 0.0126803 0)
(1.08019 0.0597805 3.69573e-20)
(1.04716 0.0207384 -8.25519e-21)
(1.00018 -0.000601707 6.01377e-23)
(0.765012 0.0688286 -1.0056e-21)
(1.11673 0.04891 0)
(1.03348 0.0913356 1.98631e-20)
(0.329625 0.0367705 0)
(0.732052 0.0939742 0)
(0.74756 0.0960818 -6.80827e-21)
(-0.340892 -0.00170536 5.23777e-21)
(1.04761 -0.120397 3.09493e-20)
(1.01684 0.229531 3.36022e-20)
(1.00149 -0.00869931 -1.4886e-21)
(1.01434 -0.00600573 3.82132e-21)
(1.14024 0.0547019 0)
(1.00127 -0.000483914 0)
(-0.0328575 0.0510048 0)
(1.03476 0.131153 -1.68295e-20)
(1.03249 0.0976383 -6.34604e-21)
(1.01479 -0.00583254 9.0615e-21)
(1.05193 0.0498424 0)
(1.03286 0.096102 0)
(1.12949 0.162755 7.61311e-21)
(1.17028 -0.486961 0)
(1.05232 -0.111825 0)
(1.08426 0.0631837 1.14735e-20)
(-0.330326 -0.0264811 0)
(0.601812 0.0611349 0)
(1.06572 0.117377 -1.52481e-20)
(0.895404 -0.0781278 2.95344e-20)
(0.979476 -0.0274071 0)
(1.01968 -0.0131173 0)
(1.34198 0.175975 -8.93354e-20)
(1.08205 0.0590529 0)
(0.295093 0.0265322 -1.3514e-20)
(1.08465 -0.00887037 2.46281e-20)
(1.01847 -0.0670266 -1.67484e-21)
(1.02861 0.0852866 0)
(1.06511 0.11517 0)
(1.03974 0.00142813 -6.80046e-21)
(1.04156 -0.0167349 1.17056e-20)
(0.720304 -0.188748 -5.81315e-20)
(1.34128 -0.0342549 6.48756e-20)
(0.0608269 0.0818179 0)
(0.331009 0.127372 -4.88811e-20)
(1.07759 0.0509569 2.2297e-20)
(0.999689 -0.769572 -1.05916e-19)
(0.0113078 0.0731199 -9.03626e-20)
(0.939403 -0.0281405 -5.56185e-21)
(1.06755 0.0657511 3.7582e-20)
(0.603856 0.0863511 -4.32233e-21)
(1.08102 -0.0221395 -2.58003e-20)
(1.0268 0.0814423 -4.28361e-20)
(1.01939 -0.0358827 0)
(1.34583 -0.027625 -3.77196e-20)
(1.00018 -0.00276812 0)
(1.15731 -0.0363898 0)
(1.03631 -0.0754863 0)
(0.983573 -0.0213373 -2.38252e-20)
(1.08005 0.148105 -2.89671e-20)
(1.04244 -0.00713265 1.22601e-20)
(0.182435 -0.616132 0)
(1.01475 -0.00546067 -8.16111e-21)
(1.08823 0.125126 3.41051e-20)
(0.276369 0.029813 2.42511e-20)
(-0.0735839 0.0378468 0)
(0.908721 -0.0866179 -5.97425e-23)
(1.06618 0.0663859 -2.33903e-20)
(1.00005 -0.00141576 2.25127e-21)
(0.76777 -0.321133 -4.12996e-20)
(1.00299 -0.0147254 -2.18478e-21)
(1.15355 -0.0393382 0)
(-0.0605447 -0.0601825 -1.61094e-19)
(0.901358 -0.0784235 0)
(1.08005 -0.0199414 3.37746e-20)
(0.996287 -0.00381967 -8.13076e-21)
(0.310751 0.122731 5.4086e-20)
(1.02074 -0.00807482 0)
(0.879931 -0.425515 0)
(0.290717 0.119881 2.38931e-20)
(1.2793 -0.160519 -9.19447e-20)
(1.00012 -0.000577508 0)
(1.41089 -0.33189 -5.01938e-20)
(0.156379 0.0362102 -8.61617e-21)
(0.862468 0.083618 -1.47717e-20)
(1.02744 0.0818565 3.6865e-20)
(1.09727 0.0266852 -2.18887e-20)
(0.730212 -0.379531 -4.1049e-20)
(1.08157 0.144417 1.63726e-21)
(1.05079 0.0506186 0)
(1.14656 -0.444066 5.05756e-20)
(1.06922 -0.124276 1.65855e-20)
(0.463361 0.0338276 1.12277e-20)
(1.13429 0.128691 0)
(1.01042 -0.000677295 3.86648e-21)
(1.0741 0.0133461 0)
(1.02837 0.0865615 -2.31105e-20)
(0.749585 0.0673476 4.31051e-21)
(0.589742 0.0423586 9.40588e-21)
(1.01916 -0.0125523 -1.52604e-22)
(0.60221 -0.239539 0)
(0.994008 -0.0159208 6.13796e-21)
(1.05699 0.128222 -3.34941e-20)
(1.1441 0.163189 0)
(1.0756 0.0147311 0)
(1.11499 0.0528387 -8.48334e-20)
(1.13883 0.131113 5.9579e-21)
(1.00232 -0.0258042 -5.00328e-21)
(0.816015 -0.14779 -3.91267e-20)
(1.03772 0.0905674 2.12128e-20)
(1.08171 0.192919 0)
(0.998526 -0.0109678 1.84987e-22)
(0.983311 -0.0204207 2.32316e-20)
(0.902901 -0.085638 0)
(0.746018 0.110313 -1.52351e-20)
(-0.292437 -0.0325957 2.80848e-19)
(1.09574 0.0598607 0)
(1.02861 -0.00963763 1.2178e-20)
(1.12342 0.164583 -1.33878e-19)
(1.1547 0.162561 2.26252e-21)
(1.06036 0.10795 6.36279e-21)
(1.11196 0.0525125 6.52507e-20)
(0.702506 0.104872 1.70405e-20)
(-0.11986 0.0149196 0)
(1.08277 0.0078445 8.79081e-21)
(1.07609 0.0450458 1.19793e-20)
(1.1393 -0.121412 -1.33558e-19)
(1.0216 -0.017486 -7.36166e-21)
(1.00196 -0.00731527 5.4011e-23)
(1.06126 0.110201 8.45803e-21)
(1.18494 -0.0797578 3.55991e-20)
(1.02184 -0.00783707 -6.57154e-21)
(1.00021 -0.00269704 -1.21824e-21)
(1.00281 -0.0151509 5.57237e-21)
(1.00473 -0.000663803 0)
(1.08884 0.0345497 7.25168e-20)
(1.00206 -0.00779949 0)
(0.627902 0.0866355 0)
(1.09657 0.0548678 3.40066e-20)
(1.01509 -0.0302246 0)
(0.754248 0.0657319 -8.79549e-21)
(0.277081 0.0676123 1.99832e-20)
(0.976681 -0.0224993 0)
(1.08443 0.126468 1.58346e-20)
(-0.293418 0.00091484 2.4509e-20)
(0.979236 -0.0499422 -4.41774e-21)
(0.97515 -0.0219766 1.64979e-20)
(1.09912 0.0565143 -6.46458e-20)
(0.255057 0.0326286 -2.82588e-20)
(0.225393 -0.016347 -1.97512e-19)
(1.13264 0.0712768 1.49668e-20)
(1.00261 -0.000657036 -5.50166e-22)
(1.04995 0.232884 -4.17442e-20)
(1.00165 -0.00917591 -2.37424e-21)
(1.14 0.0751583 -3.22855e-20)
(-0.272146 0.00704042 0)
(1.07415 0.187631 -1.67274e-20)
(1.04632 0.0199295 -5.79182e-21)
(1.26755 -0.153943 1.32651e-19)
(1.43033 -0.122351 1.15989e-19)
(-0.159437 -0.030787 2.35429e-19)
(1.24928 0.0697455 0)
(0.787817 -0.117734 0)
(-0.0350289 0.0403058 0)
(0.355162 0.0933978 -3.80283e-22)
(1.10791 0.20596 -4.48406e-20)
(1.04298 -0.0170328 1.30021e-20)
(-0.338881 -0.0338862 0)
(0.320875 0.0215512 -1.26646e-20)
(0.485667 -0.509 -6.51496e-21)
(0.520571 -0.512827 -3.26066e-20)
(0.938109 -0.0293488 -1.02359e-20)
(1.14157 0.0632429 0)
(0.961141 -0.124247 -1.10836e-20)
(0.534266 0.0382722 0)
(0.797424 -0.166292 -1.07905e-21)
(1.0085 -0.00176587 3.76165e-21)
(1.01534 0.000584928 0)
(1.08437 -0.063014 -1.58479e-20)
(-0.19176 -0.0352132 -2.57045e-19)
(0.235598 -0.619891 3.80034e-20)
(1.02148 -0.0166791 7.98153e-21)
(-0.0964666 0.0346171 3.81261e-20)
(0.94961 -0.122885 0)
(1.11367 -0.0387308 -1.43621e-20)
(1.04685 0.0217603 9.16266e-21)
(0.245258 0.0281363 2.90672e-20)
(1.11999 0.161621 1.18894e-19)
(1.02771 0.0847027 1.06751e-20)
(1.0335 -0.0737938 1.59773e-21)
(1.07713 -0.0200959 0)
(0.813719 0.0684084 -1.31222e-21)
(0.979525 -0.02894 -1.79119e-21)
(1.16049 0.165301 0)
(1.08058 0.00853917 -3.63625e-21)
(1.1017 0.0557202 0)
(0.943913 -0.125607 0)
(0.993362 -0.0159672 -1.20026e-20)
(1.01579 -0.0295773 0)
(1.28582 -0.0166848 -3.36259e-20)
(1.30024 -0.159034 5.51583e-20)
(1.12596 0.129792 -2.30423e-20)
(1.44817 -0.121835 -1.4594e-20)
(0.82711 0.0692334 0)
(1.01861 -0.0705992 0)
(0.264485 0.115026 0)
(1.05659 0.13724 2.31684e-21)
(1.02451 -0.00274166 0)
(1.06862 0.187546 0)
(1.09384 0.104681 0)
(-0.194955 0.0159034 -5.25126e-20)
(1.08155 -0.0609509 -1.30779e-20)
(1.03487 0.0734536 0)
(1.01896 0.0958187 6.86503e-21)
(1.35529 -0.0199782 -1.24337e-19)
(1.28303 -0.0333328 0)
(0.525722 0.037423 2.72376e-21)
(1.04911 -0.0266705 5.83147e-21)
(1.03493 0.133952 -1.30948e-21)
(-0.417729 -0.0318639 -1.7184e-20)
(1.09838 0.0111865 5.5415e-21)
(0.48831 0.0385247 0)
(1.10682 0.0123686 0)
(0.328448 0.125867 3.09603e-20)
(1.07602 0.043475 -1.10432e-20)
(1.04085 0.0591981 2.38211e-20)
(1.14793 0.125862 9.80609e-20)
(1.3289 -0.12458 8.21853e-20)
(0.984733 -0.0138432 -1.0143e-20)
(1.0823 0.000979017 0)
(1.19108 -0.0821874 4.72443e-20)
(1.05335 0.0504369 0)
(1.01539 -0.0226461 -5.20633e-21)
(1.09399 0.0619974 -1.97986e-20)
(0.990151 0.180737 0)
(0.997573 -0.0282234 1.82435e-21)
(1.0699 0.0660287 0)
(-0.23883 -0.0380868 -3.38249e-20)
(1.06937 -0.0200544 -1.77421e-20)
(1.32828 -0.504161 0)
(1.04962 0.0639254 0)
(0.29383 -0.012144 2.27811e-19)
(1.08421 -0.0229547 -1.60555e-20)
(1.04043 0.0734755 -1.30426e-20)
(0.971099 -0.74332 5.08619e-20)
(1.1395 0.16553 -8.17785e-21)
(1.12435 0.042936 -1.97858e-20)
(0.568388 0.039078 0)
(0.128185 0.0278136 0)
(1.36551 -0.326768 0)
(1.00155 -0.0259752 0)
(1.2796 -0.0129537 -7.16721e-21)
(1.1118 0.00550155 -7.4223e-21)
(1.03592 0.0736043 -8.36017e-22)
(1.02688 -0.0115863 2.74862e-21)
(-0.308948 -0.0237676 1.47387e-19)
(0.954673 0.199792 1.52279e-20)
(1.33351 0.0328722 0)
(1.07601 -0.0181432 5.55457e-21)
(1.14496 0.128892 -9.50845e-20)
(1.02676 0.115426 -2.91705e-20)
(-0.275707 -0.0351036 -2.84069e-19)
(1.02002 0.000541961 0)
(-0.385388 -0.0308543 -1.46602e-19)
(1.34002 -0.104539 6.7489e-20)
(0.249104 -0.170838 0)
(1.07456 -0.126495 -2.02288e-20)
(1.1991 0.223538 0)
(0.989332 -0.0203482 4.30705e-21)
(1.00147 -0.000414386 4.84559e-23)
(0.399482 0.0334226 0)
(1.02845 0.118997 -1.79366e-20)
(0.991278 -0.0118959 1.18989e-20)
(1.06901 -0.00246894 0)
(1.07142 0.0668291 -1.6248e-20)
(1.01309 -0.00727669 -3.36772e-21)
(1.00605 0.205356 2.13223e-21)
(1.13953 0.0667394 4.79436e-20)
(1.09632 0.103437 0)
(1.06098 0.0255942 0)
(1.04942 -0.0252759 0)
(0.972572 -0.0115725 -8.02154e-21)
(1.39839 -0.0317618 -2.93935e-20)
(1.01385 -0.0297593 -5.22227e-22)
(0.973492 -0.0104973 0)
(1.00996 0.0865873 -6.98208e-21)
(1.00953 0.183838 3.33484e-21)
(1.04658 -0.0830309 9.11763e-22)
(1.0211 0.0971035 -1.40045e-20)
(0.99583 -0.00539324 0)
(1.00214 -0.00734593 6.9814e-22)
(1.07195 -0.0201892 4.40326e-20)
(1.12957 0.132318 0)
(1.04598 0.0631965 0)
(1.01548 -0.0240594 4.44965e-21)
(1.05597 -0.0144474 -1.09124e-20)
(1.17563 -0.365215 -4.53858e-20)
(1.05827 0.00183226 -2.36863e-20)
(0.319167 -0.018232 4.83511e-20)
(1.00215 -0.00908871 -3.79761e-23)
(1.0539 0.0370717 0)
(0.838792 0.0830491 0)
(0.957229 -0.170509 -4.31365e-21)
(1.01572 5.15316e-05 -1.89286e-21)
(1.00098 -0.00829426 -3.03265e-22)
(1.06131 0.0244641 -2.78622e-21)
(1.04164 0.00355748 1.46122e-20)
(1.33955 -0.389196 1.98265e-19)
(1.02183 0.0852347 -1.6622e-20)
(1.09727 0.0288802 0)
(0.369737 -1.22011 1.00575e-19)
(1.07316 -0.0180236 -2.78952e-20)
(1.00128 -0.0124944 0)
(0.570975 0.11452 1.21649e-20)
(1.01962 0.0972838 5.65099e-23)
(0.889487 -0.137646 -3.63533e-20)
(0.999231 -0.0315446 0)
(0.337968 0.0856986 -1.58458e-20)
(0.865946 -0.109615 0)
(1.23865 -0.679283 2.23926e-20)
(0.99211 -0.0298277 -1.02308e-20)
(1.11296 -0.0284994 -7.31542e-20)
(1.28796 -0.0279289 1.10706e-20)
(1.06055 0.0522997 4.57824e-21)
(0.410111 0.106626 0)
(1.02548 0.114506 3.19248e-20)
(1.38848 0.0238661 -2.54827e-20)
(0.985174 -0.0728942 4.88898e-21)
(1.2493 0.0764452 0)
(1.00361 -0.0267365 -2.15783e-21)
(0.737744 0.0682773 0)
(1.05079 0.0636353 0)
(1.0629 0.114425 0)
(1.10903 0.00701894 -1.1765e-20)
(1.03359 -0.0703893 -2.2386e-21)
(0.963935 -0.16687 1.72771e-20)
(1.13867 0.0591296 0)
(1.00212 -0.000612102 -9.99845e-22)
(-0.326989 -0.0321455 0)
(0.520836 0.106971 3.35545e-21)
(0.358632 -0.0197372 -8.07386e-20)
(-0.190675 -0.0240903 -1.64534e-19)
(1.02109 0.0860429 3.50296e-20)
(-0.360108 -0.0224668 5.24395e-20)
(1.14974 0.166048 0)
(0.920683 -0.0891906 -2.04458e-20)
(0.999806 -0.00426155 6.88282e-21)
(1.26633 -0.491265 0)
(0.991841 -0.010643 -5.35776e-21)
(1.01499 -0.0221098 4.55078e-21)
(0.916305 -0.106948 0)
(0.00915977 0.0632213 -1.28221e-19)
(1.06314 0.00526827 4.25049e-20)
(0.974995 -0.0434394 0)
(1.12375 -0.289333 0)
(1.14515 0.0196944 0)
(0.989302 -0.00624303 0)
(0.818641 0.102411 -3.01731e-20)
(1.01092 -0.0224076 5.90829e-22)
(0.580285 0.132933 0)
(1.32725 -0.370807 -6.78437e-20)
(1.00735 -0.0187501 0)
(1.05423 0.0117691 -2.60339e-20)
(1.34103 -0.0685993 0)
(1.07498 0.192784 1.61982e-20)
(1.02141 -0.00830322 -7.07122e-21)
(0.996455 -0.0436331 1.31246e-19)
(1.05031 -0.389058 -6.76843e-20)
(1.02507 0.00349005 -5.93963e-21)
(-0.115823 -0.020563 0)
(1.17322 0.17201 0)
(1.09484 0.126693 2.6117e-21)
(0.983372 -0.0713316 0)
(1.00807 0.0876759 -1.81698e-21)
(-0.00957321 0.0302823 0)
(1.02572 0.00352782 7.00473e-21)
(1.26628 0.125466 6.56274e-20)
(1.02244 -0.0356326 -5.71326e-21)
(1.01146 -0.0228069 3.33745e-22)
(1.00772 0.0796233 0)
(0.335408 0.124951 6.03469e-20)
(1.12472 0.0127178 2.39572e-20)
(1.0452 0.0623532 0)
(0.991057 -0.00945059 1.81477e-20)
(1.04864 0.0729792 0)
(0.553817 0.134233 0)
(-0.0775734 0.0228465 0)
(1.02965 0.00193616 1.28452e-20)
(-0.412885 -0.0276159 0)
(1.01503 -0.0236032 -3.10204e-21)
(1.0238 -0.0359884 4.97697e-21)
(1.12393 0.0458083 1.03787e-20)
(1.04794 0.0393311 1.23143e-20)
(1.02001 0.000860078 -3.77837e-21)
(1.02822 -0.0691656 -9.07889e-23)
(-0.09745 -0.0194129 -1.48574e-21)
(1.32166 -0.121138 6.50832e-20)
(-0.137259 -0.0211635 0)
(1.0614 0.00389691 -7.67827e-21)
(0.994317 -0.0165682 1.15207e-20)
(0.773148 0.108251 -5.88632e-21)
(0.999696 -0.00572479 1.10204e-20)
(1.27828 0.0021783 4.2176e-20)
(1.06079 0.0337057 0)
(1.05734 0.0490243 2.06245e-21)
(1.10064 0.0223679 -4.57301e-20)
(0.942571 0.0877009 0)
(-0.106879 0.0212811 0)
(1.08205 -0.00447569 3.49697e-21)
(-0.376938 -0.0323263 1.43973e-19)
(1.04643 0.0173659 -2.90468e-20)
(1.15893 0.0500993 -3.35375e-20)
(0.813317 0.0758726 -1.25418e-20)
(0.443268 0.0455357 0)
(1.01641 -0.0377651 -1.42974e-21)
(1.00285 -0.0268172 0)
(0.831418 -0.180008 8.86815e-20)
(-0.125819 -0.0191043 -1.37272e-20)
(1.02089 0.0874181 1.23712e-20)
(1.04797 0.0719167 -5.26753e-21)
(1.09875 -0.58097 -1.78188e-19)
(1.04723 0.0399711 -3.59804e-20)
(1.07377 0.0428934 0)
(0.011851 -0.0675706 1.08593e-19)
(0.748129 0.0793713 0)
(1.14381 -0.355294 0)
(0.555077 0.127056 0)
(1.04117 0.11377 8.08182e-21)
(0.845241 0.0725516 9.93466e-21)
(1.04491 -0.0267807 -2.41469e-20)
(1.01856 0.0949473 0)
(1.17856 0.211512 -5.37612e-20)
(1.00074 -0.0111732 -6.35046e-21)
(-0.483955 -0.0221716 0)
(0.632066 0.1554 1.06077e-19)
(1.05289 -0.117609 -1.99185e-20)
(1.08223 0.0650909 -1.48032e-20)
(1.00642 -0.0353555 5.42987e-23)
(0.514599 -0.914397 0)
(1.19635 -0.168363 -1.71464e-21)
(0.508051 -0.173705 0)
(1.01327 -0.0303725 1.54759e-21)
(1.0009 -0.000577109 1.02508e-22)
(0.915016 -0.0567142 0)
(1.14497 0.0155623 0)
(1.00218 -0.00874354 -2.5184e-21)
(-0.0374338 0.0545057 1.46179e-19)
(1.00104 -0.000682632 -4.29866e-22)
(1.04332 0.114296 1.55051e-20)
(0.977832 -0.0705719 0)
(1.03614 0.0745158 -7.36144e-21)
(0.993852 -0.0300186 -4.09499e-21)
(0.988594 -0.00636101 0)
(1.12913 -0.146729 -4.17287e-20)
(-0.411753 -0.0300101 7.24023e-20)
(1.12926 0.0377482 0)
(-0.122102 0.0309619 -2.05783e-20)
(1.11438 -0.0318697 6.17695e-20)
(1.01339 -0.00819214 -3.68715e-21)
(1.0277 -0.00405688 0)
(1.14472 0.0541064 0)
(1.05523 -0.0158992 -1.25432e-20)
(1.21144 0.0531986 2.347e-20)
(1.06811 0.00497084 3.80872e-20)
(0.888611 -0.129665 1.86622e-20)
(1.01859 0.0933663 2.73787e-20)
(0.999557 -0.0055243 0)
(0.587586 0.0361994 -1.53647e-20)
(1.0001 -0.00190207 2.62901e-21)
(1.03146 0.0775019 8.51008e-21)
(-0.355481 -0.0315359 0)
(0.805733 0.0918275 8.49369e-21)
(0.884365 -0.039866 -2.70409e-20)
(0.727172 -0.24883 0)
(1.11051 -0.289409 -3.39482e-20)
(1.30478 -0.227109 -5.91453e-20)
(0.599965 0.155673 -1.3783e-19)
(1.03198 0.00184101 -1.27017e-20)
(0.713266 0.0868944 7.77415e-20)
(0.955837 -0.127134 1.27052e-20)
(1.10109 0.012424 -6.00531e-21)
(-0.181004 -0.0266529 3.88777e-23)
(1.31752 0.157068 -8.17234e-20)
(1.02504 -0.00303764 6.49382e-21)
(1.21021 0.0487359 0)
(1.0388 0.00192198 0)
(0.803962 0.0691434 0)
(-0.402498 -0.0143992 1.65478e-19)
(1.02894 -0.0358903 4.67451e-21)
(0.701364 -0.178967 3.89168e-20)
(0.994408 0.21683 5.93588e-20)
(1.00001 -0.00172668 4.15168e-21)
(1.00002 -0.00228943 0)
(1.03871 0.074486 0)
(0.563617 0.0332024 1.69465e-20)
(1.00343 0.0893253 0)
(0.975199 -0.0206037 -2.95552e-20)
(1.15771 0.123338 0)
(1.05668 0.00116755 0)
(0.987567 -0.00748122 -7.69289e-21)
(1.01847 0.0911168 -3.7464e-21)
(1.15407 0.127007 0)
(1.28995 -0.141223 4.70787e-20)
(1.01888 0.000484988 0)
(1.03886 0.091339 -6.89207e-23)
(0.928742 -0.224044 -1.28574e-20)
(1.04067 0.0711709 0)
(0.959068 -0.0243094 0)
(1.01672 -0.0646948 9.22566e-22)
(1.1869 -0.169455 -4.49656e-20)
(0.919367 -0.0573719 1.135e-20)
(1.03512 0.0905921 -2.13449e-20)
(1.10034 0.0629161 4.40058e-20)
(1.10574 0.0608632 0)
(1.12918 -0.341552 2.27833e-20)
(1.2576 -0.713398 2.4825e-20)
(1.18554 0.171239 2.47187e-20)
(1.02031 0.131821 1.41922e-22)
(1.11813 -0.0421923 -2.40206e-19)
(1.03081 0.0892287 -1.56061e-20)
(0.358841 0.0499265 1.61609e-22)
(1.05109 -0.176868 -1.57331e-20)
(1.00934 0.079887 1.92238e-21)
(1.091 0.128252 -4.20729e-20)
(1.0315 -0.0127944 0)
(1.07335 0.0409723 -4.13317e-20)
(1.1841 0.162844 -1.04913e-19)
(1.07224 -0.0729017 -2.62705e-20)
(1.00685 -0.0176573 -5.55556e-22)
(1.00724 -0.0166352 0)
(1.03251 0.0787714 1.83204e-20)
(0.516418 0.0337311 0)
(1.05534 0.0376939 -9.21261e-21)
(0.227287 0.108044 -3.45813e-20)
(1.01328 -0.00856996 4.25571e-22)
(1.00298 0.090261 0)
(1.0474 -0.39532 -2.52612e-21)
(-0.312403 -0.0013493 1.80262e-19)
(1.21331 0.0419933 -1.1998e-19)
(1.08637 -0.0215593 -3.92962e-21)
(1.06642 0.00158534 1.88805e-20)
(-0.29799 0.00465579 -1.23759e-19)
(1.29142 -0.133676 -5.68891e-20)
(1.05061 -0.169195 2.70119e-20)
(1.0269 0.117985 0)
(1.04775 -0.0236512 -3.21508e-20)
(1.30087 -0.447199 -1.39744e-19)
(1.03164 0.0784921 0)
(1.04523 0.116758 -1.55995e-20)
(1.11302 -0.00747791 -3.86535e-20)
(1.36164 -0.0857242 6.91073e-20)
(0.990119 -0.0206901 -4.99416e-21)
(1.00012 -0.00223871 -2.59827e-21)
(0.942702 -0.0274142 0)
(0.987047 -0.00829414 -7.44614e-21)
(0.795252 0.0757259 8.51345e-21)
(1.00446 -0.000812936 0)
(1.01847 0.0902384 0)
(0.728015 0.105808 1.66042e-20)
(1.2194 0.0409493 1.28493e-19)
(-0.0508433 0.0315579 2.05265e-19)
(-0.187338 0.014338 7.46719e-20)
(1.04513 0.118291 0)
(1.31599 -0.220714 1.39136e-19)
(0.887912 -0.0469769 -7.26194e-21)
(0.998588 -0.00246305 -3.60044e-22)
(0.98448 -0.0195713 -6.40197e-21)
(1.01862 -0.0032905 0)
(1.02716 -0.00434879 0)
(1.00122 -0.000630969 3.1505e-22)
(1.15268 0.0577366 3.41027e-20)
(1.22816 0.0946528 0)
(0.926411 -0.236604 0)
(1.09789 0.201539 8.1101e-20)
(1.03226 -0.0571848 1.14574e-20)
(0.591694 0.0825989 0)
(0.999957 -0.000309561 0)
(-0.178828 -0.0457487 1.48144e-19)
(1.14395 -0.0587694 1.23224e-20)
(0.999885 -0.000633204 0)
(0.997037 -0.00386936 -6.72552e-21)
(0.788885 0.0938914 5.73837e-21)
(1.0857 -0.013122 -7.03271e-21)
(1.00123 0.109141 -9.43055e-21)
(0.665131 0.163342 1.36334e-20)
(1.07921 0.0625462 -3.93378e-20)
(1.09999 0.0856888 -8.35942e-21)
(1.02425 0.0040352 -6.288e-21)
(0.686032 0.142296 -2.50579e-20)
(0.995838 -0.0823495 0)
(1.0647 0.00441558 -3.37022e-20)
(1.01832 0.0924944 -3.05345e-20)
(0.998661 -0.00293414 -2.11595e-23)
(0.978738 -0.045984 0)
(1.03183 -0.00326875 9.07106e-21)
(1.0535 0.0640334 2.53999e-20)
(0.493332 0.0344832 -5.52653e-21)
(1.10334 -0.0311805 0)
(1.11188 -0.000950548 0)
(1.34549 -0.113429 0)
(-0.125542 0.0163627 4.20088e-20)
(0.892173 -0.0693165 2.92145e-20)
(1.00141 -0.105973 2.10684e-22)
(0.840498 0.0742957 0)
(1.01821 -0.003212 0)
(0.824902 0.0734539 2.1074e-21)
(1.00049 -0.00147339 -1.17756e-23)
(1.0581 0.00377381 0)
(1.36392 0.120056 -2.29017e-20)
(1.05557 0.0892416 0)
(1.05558 0.109678 3.16804e-21)
(1.23773 -0.0428672 0)
(1.12857 0.0411935 2.81386e-20)
(0.999556 -0.00235206 -3.93526e-23)
(0.999978 -0.000298492 -6.70656e-21)
(1.16316 0.053349 0)
(1.0463 -0.0261403 0)
(0.999642 -0.00200803 8.91274e-21)
(1.05165 0.0406857 -2.01211e-20)
(1.33595 -0.168104 1.40907e-20)
(1.00543 -0.00577949 0)
(1.28964 -0.246583 0)
(1.36471 -0.49407 0)
(1.00392 0.102719 1.5657e-20)
(1.23431 -0.0371307 0)
(-0.0809914 -0.0470581 2.22358e-19)
(0.846627 -0.108733 0)
(0.998459 -0.0028668 0)
(1.28345 -0.0498144 -1.26195e-19)
(1.01287 -0.00916449 -1.6718e-21)
(1.0821 0.00326782 1.49398e-20)
(1.02505 0.130399 0)
(0.834322 0.0679674 -1.90662e-20)
(0.698044 0.0819519 1.91193e-20)
(0.88596 0.0783637 -1.74895e-20)
(1.03266 -0.0352834 2.07853e-21)
(1.02869 -0.0351468 0)
(1.01491 -0.294263 5.71224e-21)
(1.01267 -0.0628148 2.03095e-22)
(1.02299 -0.0144682 0)
(0.523138 -0.279811 2.94737e-20)
(1.0538 0.127872 3.78628e-20)
(0.475845 0.041007 0)
(1.03071 0.0773061 9.36815e-21)
(1.05615 0.0904722 0)
(0.985811 -0.0101895 -2.05388e-20)
(1.02015 -0.00892723 4.45327e-21)
(1.35901 -0.323078 0)
(1.10013 0.104251 1.61649e-20)
(1.05996 0.0049093 0)
(0.999801 -0.00111402 -1.24253e-20)
(1.05203 0.107637 -1.71715e-20)
(1.2715 0.0570961 -1.03087e-19)
(0.24605 0.111374 1.8339e-20)
(0.974862 -0.0250831 0)
(1.00119 -0.00401599 1.2777e-22)
(0.469756 0.0309526 -1.55843e-21)
(0.959955 -0.0228945 0)
(1.10376 0.0174826 -2.53028e-20)
(1.01271 -0.00690496 2.85727e-21)
(0.0474187 0.0723531 1.5658e-20)
(1.00996 -0.000406927 0)
(-0.347945 -0.0360936 -1.72798e-19)
(0.995368 -0.00915473 0)
(1.2691 -0.16701 0)
(1.09744 0.044199 -6.53274e-20)
(0.98941 -0.300676 4.32515e-21)
(1.11429 -0.00459936 5.55982e-20)
(0.996036 -0.0275447 -3.07023e-21)
(1.06968 -0.00549579 1.14489e-20)
(1.0039 -0.0043185 0)
(1.01833 0.0881385 0)
(0.964178 -0.0316039 -1.2486e-20)
(0.614439 0.0452177 8.23577e-21)
(1.04951 -0.0218875 3.52791e-20)
(1.01663 0.154734 -9.87783e-21)
(0.636049 0.11456 1.74661e-20)
(1.11004 -0.0145904 -6.76303e-21)
(1.00447 -0.00301585 0)
(-0.207868 -0.0410728 0)
(1.02141 0.088293 -1.78068e-20)
(1.08434 -0.00328457 0)
(1.05362 0.087847 -3.03178e-20)
(0.984382 -0.0187057 0)
(0.54278 0.0360943 -2.62285e-20)
(1.03239 -0.0130777 -4.60913e-21)
(1.19042 0.159864 0)
(1.0002 -0.0122245 0)
(1.00421 -0.00446388 -9.13131e-22)
(1.00373 0.108893 1.73997e-20)
(1.10025 0.0248768 8.1037e-20)
(1.0011 -0.00882862 -2.07655e-21)
(1.04775 0.0487174 4.64653e-21)
(0.376198 0.123274 0)
(0.769733 -0.857383 4.86991e-20)
(0.956215 0.214965 -4.11369e-20)
(1.01844 -0.0128108 -9.58839e-21)
(0.38471 0.0555545 0)
(0.998369 -0.0114931 0)
(1.00521 -0.00548964 0)
(0.976489 -0.027825 1.65005e-20)
(1.01536 0.000613921 -5.0586e-21)
(0.999953 -0.00321791 0)
(0.884412 0.211955 5.31304e-20)
(1.02325 0.139966 0)
(1.04325 -0.00794376 8.07406e-21)
(1.00108 -0.00093766 1.40121e-22)
(1.12478 0.0167835 -3.30486e-20)
(1.01796 -0.0201491 6.02146e-21)
(-0.172084 -0.0457891 0)
(1.2883 -0.0435247 9.51258e-20)
(0.333931 0.0423641 -2.40343e-22)
(-0.0174834 0.0394301 8.11598e-20)
(1.06986 -0.0068401 -1.22525e-20)
(1.03615 0.0914176 0)
(1.00085 -0.0117109 -3.12965e-21)
(1.09752 0.0498979 6.84913e-21)
(1.03983 -0.376048 5.52123e-21)
(1.03118 0.00213943 -9.05959e-21)
(1.00042 -0.00145599 1.63126e-23)
(1.41696 -0.308149 -4.71548e-20)
(-0.386219 -0.0117838 -9.34444e-22)
(1.09745 0.0841946 0)
(-0.450555 -0.0343784 0)
(1.07273 0.0810418 0)
(0.996042 -0.00622572 -4.15294e-21)
(1.13479 0.00425972 8.35429e-20)
(1.05188 0.0879398 4.28543e-20)
(-0.445428 -0.0284379 -1.59899e-19)
(1.08735 0.0322393 -2.72955e-20)
(1.01749 0.105279 0)
(1.10267 0.105885 1.78956e-20)
(1.00033 -0.00298733 0)
(0.292735 -0.116524 0)
(0.199472 -0.0879993 -3.21154e-20)
(0.52933 0.0410588 5.35534e-21)
(1.34607 0.163948 9.6319e-20)
(1.00758 0.0785199 1.4041e-20)
(0.988231 -0.0732377 4.06672e-21)
(0.753173 -0.392714 4.44823e-20)
(0.97266 -0.00881779 0)
(1.04962 0.158249 0)
(1.07032 -0.0696159 0)
(1.00834 -0.00141642 -1.85937e-21)
(0.907167 0.211878 -5.05487e-20)
(1.02829 -0.0572288 8.3642e-21)
(1.00438 -0.00277211 0)
(1.01766 -0.0375329 2.95139e-21)
(1.02653 -0.055794 -8.2594e-21)
(-0.00296084 0.063494 -1.75306e-20)
(1.17233 0.16386 4.07178e-20)
(1.01326 -0.0132797 -1.87128e-21)
(1.13583 0.0084757 -4.29157e-20)
(0.27965 0.0343827 0)
(1.04504 -0.0475374 0)
(-0.467774 -0.0331361 -3.29909e-20)
(0.962563 -0.0484578 0)
(1.06456 0.0905967 0)
(0.255557 0.11916 7.83474e-20)
(1.0019 -0.00813103 -5.71604e-22)
(1.01936 0.0873385 4.42697e-22)
(1.08462 -0.0836142 0)
(1.11382 -0.0144568 -2.08857e-20)
(0.725661 -0.887109 -3.94622e-20)
(1.03063 -0.0559717 -1.13882e-20)
(1.33377 0.00644782 0)
(1.03983 0.0723822 2.35626e-20)
(0.451278 0.138905 -2.36864e-20)
(1.03746 0.00781985 -6.86252e-21)
(0.574725 0.0414464 1.2992e-20)
(1.0982 0.0078269 5.31408e-21)
(0.248355 0.0545816 0)
(-0.445475 -0.0213626 -1.28043e-19)
(0.549913 0.037073 0)
(1.07481 0.0636523 -1.14175e-20)
(0.992857 -0.0265352 3.77597e-21)
(1.0323 -0.0366141 -8.57059e-21)
(0.999987 -0.00171678 1.05776e-21)
(1.04103 0.0579237 -4.42838e-21)
(0.9972 -0.00574284 -3.3796e-21)
(0.428924 0.11321 -1.64284e-20)
(1.04752 -0.109454 0)
(0.935109 -0.0963251 0)
(0.894578 -0.0656888 -6.5884e-20)
(0.990208 -0.0716299 -1.44011e-20)
(1.01797 -0.0123635 -4.40952e-23)
(1.0412 0.0380482 -1.99295e-20)
(1.07813 -0.0687369 -2.82077e-20)
(1.05467 0.0104803 3.27558e-20)
(1.05892 -0.0861456 0)
(0.531059 0.154156 -1.46961e-20)
(1.01842 0.0861809 2.79359e-20)
(1.09107 0.0158654 -4.02693e-20)
(1.15099 -0.130175 2.9176e-20)
(0.93277 0.214055 3.98672e-20)
(0.975959 -0.0457701 9.0552e-21)
(-0.173784 -0.0301025 -2.06985e-19)
(1.01781 -0.00345261 -2.18276e-23)
(1.05315 -0.135096 0)
(0.96222 -0.03048 -1.46822e-20)
(1.02546 -0.0227777 0)
(1.11208 -0.153507 0)
(1.00112 -0.0129286 1.85589e-21)
(1.01346 -0.01285 0)
(0.796077 -0.128826 -3.85563e-20)
(0.983377 -0.0127461 -1.6919e-20)
(1.33197 -0.159225 -1.06173e-21)
(1.05326 -0.0160824 3.03138e-20)
(-0.487204 -0.0188181 1.37484e-19)
(1.1047 0.192413 7.34866e-20)
(1.10382 0.152247 3.05134e-20)
(1.26181 0.117849 -6.38873e-20)
(1.0392 -0.0068671 0)