/*--------------------------------*- C++ -*----------------------------------*\
| =========                 |                                                 |
| \\      /  F ield         | OpenFOAM: The Open Source CFD Toolbox           |
|  \\    /   O peration     | Version:  v2012                                 |
|   \\  /    A nd           | Website:  www.openfoam.com                      |
|    \\/     M anipulation  |                                                 |
\*---------------------------------------------------------------------------*/
FoamFile
{
    version     2.0;
    format      ascii;
    class       pointVectorField;
    location    "750";
    object      pointDisplacement;
}
// * * * * * * * * * * * * * * * * * * * * * * * * * * * * * * * * * * * * * //

dimensions      [0 1 0 0 0 0 0];


internalField   nonuniform List<vector> 
14332
(
(0 0 0)
(0.0204041 -0.206145 0)
(0 0 0)
(0.0204041 -0.206145 0)
(0 0 0)
(0 0 0)
(0 0 0)
(0 0 0)
(0 0 0)
(0 0 0)
(0 0 0)
(0 0 0)
(0 0 0)
(0 0 0)
(0 0 0)
(0 0 0)
(0 0 0)
(0 0 0)
(0 0 0)
(0 0 0)
(0 0 0)
(0 0 0)
(0 0 0)
(0 0 0)
(0 0 0)
(0 0 0)
(0 0 0)
(0 0 0)
(0 0 0)
(0 0 0)
(0 0 0)
(0 0 0)
(0 0 0)
(0 0 0)
(0 0 0)
(0 0 0)
(0 0 0)
(0 0 0)
(0 0 0)
(0 0 0)
(0 0 0)
(0 0 0)
(0 0 0)
(0 0 0)
(0 0 0)
(0 0 0)
(0 0 0)
(0 0 0)
(0 0 0)
(0 0 0)
(0 0 0)
(0 0 0)
(0 0 0)
(0 0 0)
(0 0 0)
(0 0 0)
(0 0 0)
(0 0 0)
(0 0 0)
(0 0 0)
(0 0 0)
(0 0 0)
(0 0 0)
(0 0 0)
(0 0 0)
(0 0 0)
(0 0 0)
(0 0 0)
(0 0 0)
(0 0 0)
(0 0 0)
(0 0 0)
(0 0 0)
(0 0 0)
(0 0 0)
(0 0 0)
(0 0 0)
(0 0 0)
(0 0 0)
(0 0 0)
(0 0 0)
(0 0 0)
(0 0 0)
(0 0 0)
(0 0 0)
(0 0 0)
(0 0 0)
(0 0 0)
(0 0 0)
(0 0 0)
(0 0 0)
(0 0 0)
(0 0 0)
(0 0 0)
(0 0 0)
(0 0 0)
(0 0 0)
(0 0 0)
(0 0 0)
(0 0 0)
(0 0 0)
(0 0 0)
(0 0 0)
(0 0 0)
(0 0 0)
(0 0 0)
(0 0 0)
(0 0 0)
(0 0 0)
(0 0 0)
(0 0 0)
(0 0 0)
(0 0 0)
(0 0 0)
(0 0 0)
(0 0 0)
(0 0 0)
(0 0 0)
(0 0 0)
(0 0 0)
(0 0 0)
(0 0 0)
(0 0 0)
(0 0 0)
(0 0 0)
(0 0 0)
(0 0 0)
(0 0 0)
(0 0 0)
(0 0 0)
(0 0 0)
(0 0 0)
(0 0 0)
(0 0 0)
(-0.02583 -0.204957 0)
(-0.0232615 -0.205023 0)
(-0.0206929 -0.205089 0)
(-0.0181243 -0.205155 0)
(-0.0155558 -0.205221 0)
(-0.0129872 -0.205287 0)
(-0.0104186 -0.205353 0)
(-0.00785007 -0.205419 0)
(-0.00528151 -0.205485 0)
(-0.00271294 -0.205551 0)
(-0.000144378 -0.205617 0)
(0.00242419 -0.205683 0)
(0.00499275 -0.205749 0)
(0.00756132 -0.205815 0)
(0.0101299 -0.205881 0)
(0.0126984 -0.205947 0)
(0.015267 -0.206013 0)
(0.0178356 -0.206079 0)
(0.0204702 -0.203577 0)
(0.0205362 -0.201008 0)
(0.0206022 -0.19844 0)
(0.0206682 -0.195871 0)
(0.0207342 -0.193303 0)
(0.0208003 -0.190734 0)
(0.0208663 -0.188165 0)
(0.0209323 -0.185597 0)
(0.0209983 -0.183028 0)
(0.0210643 -0.18046 0)
(0.0211304 -0.177891 0)
(0.0211964 -0.175323 0)
(0.0212624 -0.172754 0)
(0.0213284 -0.170185 0)
(0.0213944 -0.167617 0)
(0.0214604 -0.165048 0)
(0.0215265 -0.16248 0)
(0.0215925 -0.159911 0)
(0.0216585 -0.157343 0)
(0.0217245 -0.154774 0)
(0.0217905 -0.152206 0)
(0.0218566 -0.149637 0)
(0.0219226 -0.147068 0)
(0.0219886 -0.1445 0)
(0.0220546 -0.141931 0)
(0.0221206 -0.139363 0)
(0.0221867 -0.136794 0)
(0 0 0)
(0 0 0)
(0 0 0)
(0 0 0)
(0 0 0)
(0 0 0)
(0 0 0)
(0 0 0)
(0 0 0)
(0 0 0)
(0 0 0)
(0 0 0)
(0 0 0)
(0 0 0)
(0 0 0)
(0 0 0)
(0 0 0)
(0 0 0)
(0 0 0)
(0 0 0)
(0 0 0)
(0 0 0)
(0 0 0)
(0 0 0)
(0 0 0)
(0 0 0)
(0 0 0)
(0 0 0)
(0 0 0)
(0 0 0)
(0 0 0)
(0 0 0)
(0 0 0)
(0 0 0)
(0 0 0)
(0 0 0)
(0 0 0)
(0 0 0)
(0 0 0)
(0 0 0)
(0 0 0)
(0 0 0)
(0 0 0)
(0 0 0)
(0 0 0)
(0 0 0)
(0 0 0)
(0 0 0)
(0 0 0)
(0 0 0)
(0 0 0)
(0 0 0)
(0 0 0)
(0 0 0)
(0 0 0)
(0 0 0)
(0 0 0)
(0 0 0)
(0 0 0)
(0 0 0)
(0 0 0)
(0 0 0)
(0 0 0)
(0 0 0)
(0 0 0)
(0 0 0)
(0 0 0)
(0 0 0)
(0 0 0)
(0 0 0)
(0 0 0)
(0 0 0)
(0 0 0)
(0 0 0)
(0 0 0)
(0 0 0)
(0 0 0)
(0 0 0)
(0 0 0)
(0 0 0)
(0 0 0)
(0 0 0)
(0 0 0)
(0 0 0)
(0 0 0)
(0 0 0)
(0 0 0)
(0 0 0)
(0 0 0)
(0 0 0)
(0 0 0)
(0 0 0)
(0 0 0)
(0 0 0)
(0 0 0)
(0 0 0)
(0 0 0)
(0 0 0)
(0 0 0)
(0 0 0)
(0 0 0)
(0 0 0)
(0 0 0)
(0 0 0)
(0 0 0)
(0 0 0)
(0 0 0)
(0 0 0)
(0 0 0)
(0 0 0)
(0 0 0)
(0 0 0)
(0 0 0)
(0 0 0)
(0 0 0)
(0 0 0)
(0 0 0)
(0 0 0)
(0 0 0)
(0 0 0)
(0 0 0)
(0 0 0)
(0 0 0)
(0 0 0)
(0 0 0)
(0 0 0)
(0 0 0)
(0 0 0)
(0 0 0)
(0 0 0)
(-0.02583 -0.204957 0)
(-0.0232615 -0.205023 0)
(-0.0206929 -0.205089 0)
(-0.0181243 -0.205155 0)
(-0.0155558 -0.205221 0)
(-0.0129872 -0.205287 0)
(-0.0104186 -0.205353 0)
(-0.00785007 -0.205419 0)
(-0.00528151 -0.205485 0)
(-0.00271294 -0.205551 0)
(-0.000144378 -0.205617 0)
(0.00242419 -0.205683 0)
(0.00499275 -0.205749 0)
(0.00756132 -0.205815 0)
(0.0101299 -0.205881 0)
(0.0126984 -0.205947 0)
(0.015267 -0.206013 0)
(0.0178356 -0.206079 0)
(0.0204702 -0.203577 0)
(0.0205362 -0.201008 0)
(0.0206022 -0.19844 0)
(0.0206682 -0.195871 0)
(0.0207342 -0.193303 0)
(0.0208003 -0.190734 0)
(0.0208663 -0.188165 0)
(0.0209323 -0.185597 0)
(0.0209983 -0.183028 0)
(0.0210643 -0.18046 0)
(0.0211304 -0.177891 0)
(0.0211964 -0.175323 0)
(0.0212624 -0.172754 0)
(0.0213284 -0.170185 0)
(0.0213944 -0.167617 0)
(0.0214604 -0.165048 0)
(0.0215265 -0.16248 0)
(0.0215925 -0.159911 0)
(0.0216585 -0.157343 0)
(0.0217245 -0.154774 0)
(0.0217905 -0.152206 0)
(0.0218566 -0.149637 0)
(0.0219226 -0.147068 0)
(0.0219886 -0.1445 0)
(0.0220546 -0.141931 0)
(0.0221206 -0.139363 0)
(0.0221867 -0.136794 0)
(-0.0037969 -0.205522 0)
(0.000123511 -0.00511929 0)
(0.0209651 -0.184291 0)
(0.0221511 -0.138175 0)
(0.0215524 -0.161478 0)
(0.000230372 -0.00562717 0)
(-0.0240935 -0.204987 0)
(4.53885e-05 -0.00424577 0)
(-9.12562e-06 -0.00268311 0)
(-2.31169e-05 -0.0011669 0)
(0.000500331 -0.00773032 0)
(-1.55814e-05 -0.0019116 0)
(7.61483e-06 -0.00311149 0)
(0.0138942 -0.205965 0)
(0.000625844 -0.00639592 0)
(-2.33434e-05 -0.00128885 0)
(0.000877481 -0.00550826 0)
(-1.41219e-05 -0.00128535 0)
(0.00118583 -0.00360996 0)
(0.0205596 -0.1996 0)
(-1.89934e-05 -0.00112993 0)
(-1.51211e-05 -0.00119749 0)
(-1.2085e-05 -0.000758289 0)
(-1.00851e-05 -0.000740622 0)
(-9.19544e-06 -0.000602708 0)
(8.03497e-05 -0.00478125 0)
(-1.21961e-05 -0.00204922 0)
(-0.0139534 -0.205261 0)
(0.0212315 -0.173951 0)
(0.0218242 -0.150897 0)
(-7.19115e-06 -0.000507893 0)
(-5.09448e-06 -0.000342437 0)
(0.000534788 -0.00677644 0)
(0.000426432 -0.00797612 0)
(0.000726402 -0.00596305 0)
(0.00110707 -0.0051916 0)
(0.000187908 -0.00572081 0)
(2.94494e-05 -0.00427027 0)
(-6.33989e-07 -0.00276464 0)
(-1.7072e-05 -0.00143306 0)
(-1.85514e-05 -0.00187736 0)
(-2.18563e-05 -0.00114794 0)
(-1.68669e-05 -0.000966843 0)
(-5.62602e-06 -0.000389819 0)
(0.00370737 -0.205714 0)
(0.0207707 -0.191817 0)
(-2.99745e-06 -0.000205509 0)
(-2.90368e-06 -0.000197347 0)
(0.00141031 -0.00216931 0)
(0.000301008 -0.0064537 0)
(0.000161123 -0.00570737 0)
(0.000102362 -0.00504114 0)
(5.74785e-05 -0.00420264 0)
(1.73304e-05 -0.0037468 0)
(-1.53219e-05 -0.00169316 0)
(-1.62668e-05 -0.00228447 0)
(-5.81169e-06 -0.00293559 0)
(-8.61952e-06 -0.000619162 0)
(-1.05509e-05 -0.00220906 0)
(-1.93634e-05 -0.0010416 0)
(-1.13468e-05 -0.000689318 0)
(-9.50502e-06 -0.000612735 0)
(-7.54638e-06 -0.000501004 0)
(-1.19171e-05 -0.000910332 0)
(-1.45246e-06 -9.90887e-05 0)
(-0.00456232 -0.166876 0)
(-0.00405411 -0.165858 0)
(-0.00394622 -0.167429 0)
(-0.00344462 -0.166314 0)
(-0.00329448 -0.167852 0)
(-0.00281855 -0.166636 0)
(-0.00262507 -0.168126 0)
(-0.00217482 -0.166821 0)
(-0.00194422 -0.168273 0)
(-0.00151921 -0.166862 0)
(-0.00125563 -0.16826 0)
(-0.000857831 -0.166752 0)
(-0.000566789 -0.168094 0)
(-0.000188336 -0.166489 0)
(0.000125935 -0.167782 0)
(0.0004858 -0.166086 0)
(0.000828984 -0.167295 0)
(0.00114275 -0.165583 0)
(0.00152301 -0.166614 0)
(0.00177572 -0.164859 0)
(0.00220065 -0.165758 0)
(0.00239982 -0.163817 0)
(0.00285707 -0.164717 0)
(0.00302365 -0.162627 0)
(0.0034978 -0.163467 0)
(0.0036293 -0.161344 0)
(0.00410344 -0.161986 0)
(0.00420877 -0.159881 0)
(0.00468529 -0.160464 0)
(0.00477132 -0.158293 0)
(0.0052734 -0.158814 0)
(0.00531474 -0.156567 0)
(0.00582826 -0.156867 0)
(0.00582364 -0.154602 0)
(0.00633718 -0.154703 0)
(0.00533584 -0.154332 0)
(0.00580889 -0.152318 0)
(0.0053395 -0.152065 0)
(-0.000979855 -0.0478402 0)
(-0.000955245 -0.0463308 0)
(0.00579392 -0.150002 0)
(0.00533132 -0.149774 0)
(-0.00093768 -0.0467244 0)
(-0.000914659 -0.0452825 0)
(0.00577068 -0.147659 0)
(0.00531285 -0.147448 0)
(-0.000897764 -0.0456646 0)
(-0.000875002 -0.0442163 0)
(-0.000858254 -0.0446094 0)
(-0.0008369 -0.0431461 0)
(0.00573563 -0.145287 0)
(0.00528625 -0.14509 0)
(-0.000819882 -0.0434769 0)
(-0.000800132 -0.0420564 0)
(0.0056949 -0.142883 0)
(0.0052534 -0.142703 0)
(-0.000782951 -0.0423106 0)
(-0.000764559 -0.0409337 0)
(-0.000780077 -0.0406626 0)
(0.00564412 -0.140443 0)
(0.00521256 -0.140261 0)
(0.006069 -0.140705 0)
(-0.000747299 -0.0411249 0)
(-0.00073023 -0.0397866 0)
(0.00559055 -0.137928 0)
(0.00516282 -0.13777 0)
(-0.000713152 -0.0399347 0)
(-0.000726816 -0.041194 0)
(-0.000697107 -0.0386228 0)
(-0.000972143 -0.169642 0)
(0.0063667 -0.157012 0)
(0.00687462 -0.154703 0)
(0.00691869 -0.15703 0)
(0.00740612 -0.154753 0)
(0.00748468 -0.156898 0)
(0.00794307 -0.154527 0)
(0.00806572 -0.156552 0)
(0.00850891 -0.15393 0)
(0.0086511 -0.156018 0)
(0.00908041 -0.153228 0)
(0.00923932 -0.155292 0)
(0.00964784 -0.152329 0)
(0.00982478 -0.154418 0)
(0.0102119 -0.151233 0)
(0.0104096 -0.153294 0)
(0.0107719 -0.149955 0)
(0.0109912 -0.151891 0)
(0.0113244 -0.148491 0)
(0.0115665 -0.150304 0)
(0.0118716 -0.146763 0)
(0.0121327 -0.14845 0)
(0.0124129 -0.144735 0)
(0.0126936 -0.146291 0)
(0.0129537 -0.142379 0)
(0.0126652 -0.140894 0)
(0.0131986 -0.138269 0)
(0.0134893 -0.139751 0)
(0.0137109 -0.135503 0)
(0.0140066 -0.136809 0)
(0.0141841 -0.132535 0)
(0.0145093 -0.133495 0)
(0.0146528 -0.129226 0)
(0.0150142 -0.129805 0)
(0.015107 -0.125482 0)
(0.0155003 -0.125671 0)
(0.0155772 -0.121254 0)
(0.0159522 -0.121271 0)
(0.0160533 -0.11693 0)
(0.0163977 -0.116764 0)
(0.0164866 -0.112293 0)
(0.0168452 -0.111775 0)
(0.0169032 -0.107133 0)
(0.0172735 -0.106235 0)
(0.017313 -0.101502 0)
(0.0176838 -0.100313 0)
(0.0177084 -0.0955881 0)
(0.0180855 -0.0941059 0)
(0.0180888 -0.0894284 0)
(0.0184701 -0.0876809 0)
(0.0184508 -0.083078 0)
(0.0188324 -0.0810156 0)
(0.0187933 -0.0765422 0)
(0.0191731 -0.0741973 0)
(0.0191173 -0.0698745 0)
(0.0129099 -0.136831 0)
(0.0157534 -0.116432 0)
(0.0180779 -0.0846938 0)
(0.00936338 -0.157517 0)
(-0.000680276 -0.0387264 0)
(-0.000665094 -0.0374409 0)
(0.0055179 -0.135384 0)
(0.00510344 -0.135248 0)
(0.0188513 -0.0855289 0)
(-0.000648355 -0.0374969 0)
(-0.000633953 -0.0362393 0)
(0.00542795 -0.132827 0)
(0.00503516 -0.132693 0)
(-0.000617383 -0.0362456 0)
(-0.000603691 -0.0350233 0)
(-0.00061889 -0.034989 0)
(0.00533982 -0.130226 0)
(0.0049588 -0.1301 0)
(-0.000587401 -0.0349737 0)
(-0.000574472 -0.0337957 0)
(0.0167523 -0.117198 0)
(0.00524958 -0.127609 0)
(0.00487748 -0.12746 0)
(0.00561079 -0.127558 0)
(0.0124019 -0.150094 0)
(-0.000558577 -0.0336915 0)
(-0.000569173 -0.0347497 0)
(-0.000546307 -0.0325616 0)
(0.00515303 -0.124942 0)
(0.00478728 -0.124792 0)
(-0.000530861 -0.0324235 0)
(-0.000519081 -0.0313243 0)
(-0.000504013 -0.0311589 0)
(-0.00049275 -0.0300848 0)
(0.00504845 -0.122241 0)
(0.00468737 -0.122105 0)
(-0.000478051 -0.029903 0)
(-0.000467276 -0.0288454 0)
(-0.000480897 -0.0289977 0)
(0.00493221 -0.119506 0)
(0.00458288 -0.119354 0)
(-0.000455939 -0.0277933 0)
(-0.000468639 -0.0279355 0)
(-0.000442739 -0.027606 0)
(0.00480866 -0.116734 0)
(0.00447571 -0.116587 0)
(0.00424801 -0.118976 0)
(0.00415298 -0.116306 0)
(0.00392225 -0.118588 0)
(0.00383698 -0.115955 0)
(0.00360177 -0.118238 0)
(0.00352957 -0.115498 0)
(0.00375196 -0.113134 0)
(0.00345165 -0.112672 0)
(0.00323523 -0.114871 0)
(0.00316473 -0.112139 0)
(-0.000431753 -0.0265826 0)
(-0.000419168 -0.0263754 0)
(0.00336596 -0.109781 0)
(0.00309029 -0.109261 0)
(0.00288912 -0.111558 0)
(0.00282581 -0.108665 0)
(0.000878219 -0.164453 0)
(-0.000409041 -0.0254176 0)
(-0.000396369 -0.0251555 0)
(0.00262322 -0.110873 0)
(0.00257104 -0.107978 0)
(0.0027564 -0.105711 0)
(0.00251104 -0.105041 0)
(0.00232471 -0.10724 0)
(0.00227608 -0.104296 0)
(0.00208807 -0.106413 0)
(0.00205123 -0.103468 0)
(0.00186523 -0.105491 0)
(0.00183618 -0.102566 0)
(0.00165401 -0.104504 0)
(0.00163104 -0.101601 0)
(0.00180064 -0.0995971 0)
(0.00160136 -0.0986607 0)
(0.00476325 -0.13749 0)
(-0.000386098 -0.0241502 0)
(-0.000373902 -0.0239342 0)
(0.00143544 -0.10059 0)
(0.00141184 -0.0976799 0)
(0.00156528 -0.0956763 0)
(0.00138299 -0.0947254 0)
(0.00123178 -0.0966534 0)
(0.00121025 -0.0937229 0)
(0.00106144 -0.0955756 0)
(0.00104645 -0.0926739 0)
(-0.000363266 -0.0229643 0)
(-0.000352231 -0.0227256 0)
(-0.000363352 -0.0237425 0)
(0.00118305 -0.0907526 0)
(0.00102585 -0.0897392 0)
(0.000890787 -0.0915904 0)
(0.000876928 -0.0886899 0)
(0.0007433 -0.0904704 0)
(0.000736087 -0.0875967 0)
(0.000604607 -0.0893081 0)
(0.000603137 -0.0864638 0)
(0.000474839 -0.0881054 0)
(0.000478114 -0.0852986 0)
(0.000597525 -0.0835881 0)
(0.000476321 -0.0824616 0)
(0.000360702 -0.0841121 0)
(0.000362972 -0.0813191 0)
(-0.000342219 -0.0217857 0)
(-0.000354056 -0.0220959 0)
(-0.000331222 -0.0215167 0)
(0.000469808 -0.0795926 0)
(0.000361258 -0.0784942 0)
(0.000256936 -0.0801556 0)
(0.000259821 -0.0773711 0)
(0.000157861 -0.0789606 0)
(0.000165241 -0.0762184 0)
(6.35087e-05 -0.0777843 0)
(7.66772e-05 -0.0750455 0)
(0.000168886 -0.0734566 0)
(8.4382e-05 -0.0723243 0)
(-5.40889e-06 -0.0738412 0)
(5.9314e-06 -0.0711705 0)
(-8.12097e-05 -0.0726027 0)
(-6.67506e-05 -0.0699986 0)
(1.27953e-05 -0.0684848 0)
(-5.63928e-05 -0.0673746 0)
(-0.000134127 -0.068819 0)
(-0.000120477 -0.0662527 0)
(-0.000196172 -0.0676134 0)
(-0.000179627 -0.0651104 0)
(-0.000321403 -0.0206034 0)
(-0.000310804 -0.0203218 0)
(-0.000109476 -0.0636707 0)
(-0.000165828 -0.0625923 0)
(-0.000234275 -0.0639611 0)
(-0.000218052 -0.061499 0)
(-0.000284571 -0.0628107 0)
(-0.000265898 -0.0603947 0)
(-0.000330568 -0.0616495 0)
(-0.000309744 -0.0592843 0)
(-0.000249421 -0.0579682 0)
(-0.000291093 -0.0569094 0)
(-0.000349686 -0.0581678 0)
(-0.00032899 -0.0558408 0)
(-0.000385474 -0.0570355 0)
(-0.000363203 -0.0547622 0)
(-0.000310511 -0.053518 0)
(-0.000343183 -0.0524942 0)
(0.00194766 -0.167584 0)
(-0.00876759 -0.195647 0)
(-0.00846991 -0.194767 0)
(-0.00728326 -0.195438 0)
(-0.00712232 -0.194535 0)
(-0.00584669 -0.195102 0)
(-0.00582363 -0.194077 0)
(-0.00444913 -0.194655 0)
(-0.00445967 -0.193715 0)
(-0.00315451 -0.194151 0)
(-0.00330313 -0.193197 0)
(-0.00198768 -0.19356 0)
(-0.00175249 -0.194499 0)
(-0.000662325 -0.193846 0)
(-0.000327375 -0.194756 0)
(0.000698715 -0.193963 0)
(0.00115395 -0.194894 0)
(0.00206811 -0.193959 0)
(0.00265064 -0.194837 0)
(0.00340525 -0.193822 0)
(0.00407608 -0.194606 0)
(0.0047111 -0.193483 0)
(0.00543169 -0.194246 0)
(0.00596552 -0.193005 0)
(0.00671528 -0.193726 0)
(0.00527942 -0.192251 0)
(-0.00456029 -0.192765 0)
(0.00712918 -0.192372 0)
(0.00790394 -0.193026 0)
(-0.000301245 -0.0194615 0)
(-0.000290951 -0.0191425 0)
(-0.00216094 -0.192615 0)
(0.00166826 -0.107373 0)
(-0.000293924 -0.0511974 0)
(-0.000325025 -0.050229 0)
(0.0051594 -0.116739 0)
(-0.000417477 -0.0558936 0)
(0.00820116 -0.191598 0)
(0.00898837 -0.192137 0)
(0.00115078 -0.0877433 0)
(0.00268044 -0.102709 0)
(-0.000282105 -0.0183377 0)
(-0.000271532 -0.0179742 0)
(-0.000281064 -0.0188325 0)
(0.00501182 -0.113938 0)
(0.00536248 -0.113802 0)
(0.00519177 -0.110978 0)
(0.00553862 -0.110727 0)
(0.00534804 -0.10786 0)
(0.00569253 -0.107501 0)
(0.0054799 -0.104585 0)
(0.00581887 -0.104087 0)
(0.00558288 -0.101148 0)
(0.00591162 -0.100506 0)
(-0.00922841 -0.196499 0)
(0.0091755 -0.190615 0)
(0.00997659 -0.19103 0)
(-0.000278964 -0.0488799 0)
(-0.00030843 -0.0479677 0)
(0.0100113 -0.149183 0)
(0.000465932 -0.0908871 0)
(0.0056534 -0.0975294 0)
(0.00597332 -0.0967914 0)
(0.00625116 -0.0997218 0)
(0.0062986 -0.0959083 0)
(0.00659423 -0.0987399 0)
(0.00662618 -0.0948406 0)
(0.00693897 -0.0975775 0)
(0.00695649 -0.0935969 0)
(0.0072861 -0.0962371 0)
(0.00728716 -0.0921784 0)
(0.00763434 -0.0946922 0)
(0.00761238 -0.09058 0)
(0.00797862 -0.092951 0)
(0.00793276 -0.0887771 0)
(0.00831822 -0.0910167 0)
(0.00825442 -0.0867437 0)
(0.00865363 -0.0888598 0)
(0.00857087 -0.0845001 0)
(0.00898328 -0.0864839 0)
(0.00887871 -0.0820748 0)
(0.00930597 -0.0838902 0)
(0.00917858 -0.0794382 0)
(0.00961982 -0.0810752 0)
(0.00946921 -0.0765972 0)
(0.00992355 -0.0780314 0)
(-0.000263153 -0.0171853 0)
(-0.000274599 -0.0176024 0)
(-0.00025273 -0.0168087 0)
(0.00975089 -0.0735508 0)
(0.0102184 -0.0747536 0)
(0.0100565 -0.189399 0)
(0.0108674 -0.189684 0)
(0.00920377 -0.189146 0)
(0.010021 -0.0703068 0)
(0.0105019 -0.0712519 0)
(-0.000265429 -0.0465696 0)
(-0.000293195 -0.0457149 0)
(-0.000335074 -0.0470491 0)
(-0.000318223 -0.0448508 0)
(0.0102782 -0.066883 0)
(0.0107719 -0.0675254 0)
(-0.000244626 -0.0160512 0)
(-0.000234646 -0.0156607 0)
(0.00569466 -0.0937841 0)
(0.0108708 -0.187984 0)
(0.011656 -0.188103 0)
(0.0105192 -0.063236 0)
(0.0110272 -0.0635688 0)
(0.0106812 -0.0756896 0)
(-0.000358856 -0.0461214 0)
(-0.00034052 -0.0439731 0)
(-0.000302481 -0.0426632 0)
(-0.000323539 -0.0418375 0)
(0.0107461 -0.0593573 0)
(0.0112655 -0.0594419 0)
(0.00338635 -0.19562 0)
(0.00904903 -0.0908312 0)
(-0.000287721 -0.0404895 0)
(-0.00030756 -0.0397236 0)
(0.0109606 -0.0553033 0)
(0.0114867 -0.0551797 0)
(0.0117811 -0.0593397 0)
(0.0120112 -0.0548563 0)
(0.0116924 -0.0507756 0)
(0.0122333 -0.050229 0)
(0.0118826 -0.0462254 0)
(0.0124328 -0.0453778 0)
(0.012052 -0.0415453 0)
(0.0126113 -0.0403497 0)
(0.0116065 -0.186355 0)
(0.0123506 -0.186324 0)
(0.0124176 -0.188057 0)
(0.0130941 -0.186156 0)
(0.0129633 -0.184361 0)
(0.0136705 -0.184001 0)
(0.0138661 -0.185824 0)
(0.0143819 -0.183448 0)
(0.0141662 -0.181624 0)
(0.0148219 -0.180785 0)
(0.0150705 -0.182605 0)
(0.015446 -0.179768 0)
(0.0157098 -0.181483 0)
(0.0160374 -0.178572 0)
(0.0163159 -0.18017 0)
(0.0165917 -0.177185 0)
(0.0168748 -0.178517 0)
(0.0171102 -0.175486 0)
(0.0173896 -0.176679 0)
(0.0176007 -0.173446 0)
(0.0178862 -0.174636 0)
(0.0180631 -0.171057 0)
(0.0183581 -0.171944 0)
(0.0184985 -0.168283 0)
(0.0187947 -0.168784 0)
(0.0189039 -0.165178 0)
(0.0191912 -0.165439 0)
(0.0192797 -0.161723 0)
(0.0195538 -0.161869 0)
(0.0196377 -0.157985 0)
(0.019893 -0.157978 0)
(0.0199743 -0.154024 0)
(0.0202099 -0.153804 0)
(0.020284 -0.149818 0)
(0.0205039 -0.149438 0)
(0.0205724 -0.145444 0)
(0.0207779 -0.144914 0)
(0.0208435 -0.140917 0)
(0.0210399 -0.140151 0)
(0.0210994 -0.136143 0)
(0.0212832 -0.135183 0)
(0.0213365 -0.131331 0)
(0.0215071 -0.130218 0)
(0.0215569 -0.12646 0)
(0.0217221 -0.125179 0)
(0.0217708 -0.121393 0)
(0.0215949 -0.122643 0)
(0.0203611 -0.145923 0)
(0.0186252 -0.164739 0)
(0.0168615 -0.174138 0)
(0.014617 -0.178904 0)
(0.0218779 -0.123844 0)
(0.0209743 -0.144318 0)
(0.0122008 -0.0367328 0)
(0.0127602 -0.0351786 0)
(0.0129997 -0.0442494 0)
(0.00693393 -0.0895254 0)
(-0.000226874 -0.0149501 0)
(-0.000217329 -0.0145564 0)
(0.0123261 -0.0318137 0)
(0.0128811 -0.0299782 0)
(-0.000359828 -0.0430557 0)
(-0.000881832 -0.0462283 0)
(0.0124273 -0.0268557 0)
(0.0129875 -0.0247534 0)
(0.0198174 -0.161897 0)
(-0.000273817 -0.038333 0)
(-0.00029233 -0.0376268 0)
(-0.000209739 -0.0138765 0)
(-0.000200583 -0.0134793 0)
(-0.000206992 -0.0140926 0)
(0.00813929 -0.0824318 0)
(0.0166997 -0.18148 0)
(0.00873976 -0.19362 0)
(-0.000193233 -0.0128312 0)
(-0.00020127 -0.0131761 0)
(-0.00026058 -0.0361965 0)
(-0.000277773 -0.0355463 0)
(-0.00018436 -0.0124245 0)
(0.00927663 -0.0721247 0)
(-0.00176513 -0.16546 0)
(-0.000247889 -0.0340825 0)
(-0.000263803 -0.0334904 0)
(-0.000230225 -0.034663 0)
(-0.00029312 -0.0348849 0)
(-0.000277979 -0.0328844 0)
(-0.000306644 -0.0342119 0)
(-0.000290477 -0.0322645 0)
(-0.00017735 -0.0118142 0)
(-0.000168846 -0.0114052 0)
(-0.000318424 -0.0335268 0)
(-0.000301368 -0.0316321 0)
(-0.00027485 -0.030343 0)
(-0.000284917 -0.0297642 0)
(0.00539389 -0.0944948 0)
(0.00541223 -0.0906995 0)
(0.00512355 -0.0914199 0)
(0.00512345 -0.0875375 0)
(0.00484832 -0.0882137 0)
(0.00483356 -0.0842306 0)
(0.00457956 -0.0848321 0)
(0.0102143 -0.0591816 0)
(0.00486734 -0.147233 0)
(0.0148599 -0.134184 0)
(0.00455277 -0.0807922 0)
(0.00431327 -0.0813665 0)
(-0.000259676 -0.0284493 0)
(-0.000268949 -0.0279243 0)
(-0.000293587 -0.0291737 0)
(-0.000276938 -0.0273866 0)
(0.0116436 -0.0379978 0)
(-0.000162134 -0.0108293 0)
(-0.000153965 -0.0104212 0)
(-0.000253387 -0.0261142 0)
(-0.00026074 -0.0256287 0)
(-0.000234747 -0.0474158 0)
(0.00427447 -0.0772881 0)
(0.00404561 -0.0778539 0)
(0.00449042 -0.076725 0)
(-0.000219335 -0.0325143 0)
(-0.0002013 -0.0330193 0)
(-0.000300986 -0.0285745 0)
(-0.00014748 -0.00987471 0)
(-0.000139735 -0.00947429 0)
(-0.00014499 -0.00993514 0)
(-0.000238179 -0.0243357 0)
(-0.000244924 -0.0239014 0)
(0.00399257 -0.073683 0)
(0.00377711 -0.0742582 0)
(-0.00387073 -0.169099 0)
(-0.000192214 -0.0308375 0)
(-0.000173954 -0.0312607 0)
(-0.000133494 -0.00895571 0)
(-0.000140837 -0.00932953 0)
(-0.000125776 -0.0085416 0)
(-0.000223265 -0.0225909 0)
(-0.000229427 -0.0222068 0)
(-0.00321755 -0.135871 0)
(-0.00292665 -0.134542 0)
(-0.00290055 -0.136464 0)
(-0.00261058 -0.135063 0)
(-0.00258108 -0.136955 0)
(-0.00228737 -0.135491 0)
(-0.00224418 -0.137591 0)
(-0.0019488 -0.135807 0)
(-0.00184752 -0.13767 0)
(-0.00160154 -0.135926 0)
(-0.00148213 -0.137718 0)
(-0.00124681 -0.135932 0)
(-0.00135953 -0.133971 0)
(-0.0011093 -0.137654 0)
(-0.000888983 -0.135813 0)
(-0.00072989 -0.137462 0)
(-0.000526636 -0.135504 0)
(-0.000348516 -0.13713 0)
(-0.000556882 -0.139151 0)
(-0.000160522 -0.135068 0)
(-0.000161994 -0.138766 0)
(-0.000367699 -0.140802 0)
(4.06214e-05 -0.140354 0)
(-0.000164649 -0.142405 0)
(0.00371057 -0.0699789 0)
(0.00351065 -0.0705676 0)
(0.00756506 -0.159064 0)
(0.018707 -0.172144 0)
(0.00761793 -0.0986814 0)
(-0.000118857 -0.00798105 0)
(-0.000112451 -0.0076459 0)
(-0.000166634 -0.0290513 0)
(-0.000148451 -0.0293909 0)
(-0.000208602 -0.0208826 0)
(-0.000214218 -0.020548 0)
(-0.000234601 -0.0218058 0)
(-0.000218914 -0.0201939 0)
(-0.000202046 -0.0211979 0)
(-0.00023879 -0.0213871 0)
(-0.000222713 -0.0198212 0)
(-0.000203544 -0.0186193 0)
(-0.000207011 -0.0182927 0)
(0.004603 -0.129764 0)
(-0.000242023 -0.0209512 0)
(0.0206485 -0.0983215 0)
(0.0203771 -0.0993062 0)
(0.0202989 -0.104434 0)
(0.000256828 -0.141895 0)
(5.38865e-05 -0.14396 0)
(-0.00035343 -0.063977 0)
(4.99148e-05 -0.0805053 0)
(-0.000488322 -0.0309317 0)
(-0.000890594 -0.043789 0)
(-0.000100242 -0.0610846 0)
(0.000437431 -0.139794 0)
(-0.00170688 -0.0805214 0)
(-0.00138559 -0.0664602 0)
(-0.00124076 -0.0599091 0)
(0.000459103 -0.0766983 0)
(0.0122958 -0.059057 0)
(0.00342874 -0.0661981 0)
(0.00324763 -0.0667902 0)
(0.00331205 -0.0710479 0)
(0.00306834 -0.0672801 0)
(0.00311815 -0.0714304 0)
(0.00289032 -0.0676774 0)
(0.00292814 -0.0717087 0)
(0.00271433 -0.0679566 0)
(0.00274173 -0.0718821 0)
(0.0025415 -0.0681287 0)
(0.00250306 -0.0641136 0)
(0.00234311 -0.0643069 0)
(0.00237243 -0.0682549 0)
(0.00218772 -0.0644591 0)
(0.00361065 -0.0654944 0)
(0.00831957 -0.151852 0)
(0.00299263 -0.0629326 0)
(-0.000351952 -0.133493 0)
(1.19679e-05 -0.132938 0)
(-0.00018781 -0.131364 0)
(0.00017287 -0.13072 0)
(-2.92043e-05 -0.129142 0)
(-0.000332489 -0.0166373 0)
(-0.000354885 -0.0178148 0)
(-0.000334649 -0.0169768 0)
(-0.000312649 -0.0158061 0)
(-0.000314583 -0.0161232 0)
(-0.00033597 -0.0172857 0)
(-0.000315714 -0.01641 0)
(-0.000294707 -0.0152564 0)
(-0.000295701 -0.0155233 0)
(-0.000336428 -0.0175615 0)
(-0.000275032 -0.0143777 0)
(-0.00027594 -0.0146273 0)
(-0.000255576 -0.0134891 0)
(-0.000256451 -0.0137236 0)
(-0.000276122 -0.0148462 0)
(-0.000256623 -0.0139272 0)
(-0.000254015 -0.0132262 0)
(-0.000275565 -0.0150321 0)
(-0.000256094 -0.0140985 0)
(-0.00010611 -0.00715133 0)
(-0.000237456 -0.0130048 0)
(-0.00023699 -0.0131637 0)
(-9.99988e-05 -0.00680722 0)
(-0.00010473 -0.0071919 0)
(0.00214657 -0.0604118 0)
(0.00200604 -0.0606043 0)
(0.00203665 -0.0645406 0)
(0.00186899 -0.0607264 0)
(0.0143082 -0.128127 0)
(0.0119359 -0.0239413 0)
(0.0169326 -0.102819 0)
(0.0190707 -0.0661726 0)
(0.00251309 -0.161576 0)
(0.0200256 -0.10515 0)
(0.0199417 -0.110221 0)
(-0.000188455 -0.0170835 0)
(-0.000191635 -0.0168023 0)
(-0.00360804 -0.164722 0)
(-0.000142733 -0.0271541 0)
(-0.000124977 -0.0274213 0)
(0.0202146 -0.109601 0)
(0.0198539 -0.115233 0)
(0.0195746 -0.115712 0)
(0.0194809 -0.120581 0)
(0.0191927 -0.120948 0)
(0.019081 -0.125903 0)
(0.0187935 -0.125879 0)
(0.0186524 -0.131008 0)
(0.0183787 -0.130399 0)
(0.0182125 -0.135611 0)
(0.0015866 -0.192975 0)
(0.00188963 -0.064547 0)
(0.0017349 -0.0607765 0)
(0.000489507 -0.143384 0)
(0.000291438 -0.145461 0)
(0.0017034 -0.0568791 0)
(0.00158257 -0.0569791 0)
(0.00160383 -0.0607715 0)
(0.00146437 -0.0570102 0)
(0.00147654 -0.0607023 0)
(0.00134911 -0.0569769 0)
(0.00135308 -0.0605853 0)
(0.0012371 -0.0568994 0)
(0.00122419 -0.053229 0)
(0.00112307 -0.053211 0)
(0.00112848 -0.056776 0)
(0.00102499 -0.0531416 0)
(0.0179416 -0.13471 0)
(0.0177646 -0.139771 0)
(-0.000274278 -0.0151831 0)
(-9.44456e-05 -0.00637242 0)
(-0.000100201 -0.00669363 0)
(-0.0001287 -0.0297053 0)
(-0.000105854 -0.0276636 0)
(-0.000107469 -0.0299913 0)
(-8.52895e-05 -0.0278612 0)
(-8.48257e-05 -0.0302611 0)
(-6.33808e-05 -0.0280214 0)
(-6.04152e-05 -0.0305096 0)
(-0.000218634 -0.0120809 0)
(-0.000218267 -0.0122297 0)
(-4.00736e-05 -0.0281499 0)
(-3.42027e-05 -0.0307183 0)
(0.00102344 -0.0565959 0)
(0.000929844 -0.0530137 0)
(0.000925338 -0.0495426 0)
(0.000839304 -0.0494323 0)
(0.000837715 -0.0528392 0)
(0.000755741 -0.049317 0)
(0.000749026 -0.052618 0)
(0.000675431 -0.0491627 0)
(0.000664084 -0.0523488 0)
(0.000598427 -0.0489601 0)
(0.000604027 -0.0457063 0)
(0.000534678 -0.0455754 0)
(0.000524366 -0.0487189 0)
(0.00046798 -0.0454038 0)
(0.000453273 -0.0484389 0)
(0.00040393 -0.0451911 0)
(-8.80861e-05 -0.00600115 0)
(0.000413825 -0.0421081 0)
(0.000356432 -0.0419624 0)
(0.00034265 -0.0449402 0)
(0.000301292 -0.0417771 0)
(0.000316913 -0.128451 0)
(0.000119562 -0.126887 0)
(-0.00231401 -0.133598 0)
(-1.54838e-05 -0.0282503 0)
(-0.000173644 -0.0155886 0)
(-0.000176564 -0.0153519 0)
(-0.000194058 -0.0165 0)
(-0.00017877 -0.0150922 0)
(-0.000195715 -0.0161762 0)
(-0.000180272 -0.0148104 0)
(0.000745131 -0.144801 0)
(-0.000163836 -0.0137265 0)
(-0.000165222 -0.0134858 0)
(0.00402045 -0.164095 0)
(0.000549256 -0.146906 0)
(7.4037e-05 -0.147499 0)
(-0.00559875 -0.18328 0)
(-0.00552899 -0.18195 0)
(-0.00470553 -0.182718 0)
(-0.00466351 -0.181388 0)
(-0.00385277 -0.182076 0)
(0.0201289 -0.114664 0)
(0.00154067 -0.0530174 0)
(-0.0162766 -0.203069 0)
(-0.0154709 -0.202584 0)
(-0.0138489 -0.203083 0)
(-0.0131834 -0.202664 0)
(-0.011579 -0.203089 0)
(-0.0109605 -0.202683 0)
(-0.00921296 -0.20308 0)
(-0.00872848 -0.202627 0)
(-0.00671929 -0.20301 0)
(-0.00648471 -0.202496 0)
(-0.00438 -0.202829 0)
(-0.00440453 -0.203337 0)
(-0.00212726 -0.203098 0)
(-0.00190576 -0.203583 0)
(0.000237473 -0.203294 0)
(-0.00438095 -0.202287 0)
(0.000641789 -0.20376 0)
(0.00267012 -0.203427 0)
(0.00209743 -0.202929 0)
(0.00436272 -0.203001 0)
(0.00522907 -0.203554 0)
(0.00660112 -0.202993 0)
(0.00572105 -0.202477 0)
(0.00770907 -0.202407 0)
(0.00871088 -0.202892 0)
(0.00952436 -0.202253 0)
(0.0106057 -0.202714 0)
(0.0111427 -0.201987 0)
(0.0122556 -0.202415 0)
(0.0125555 -0.201576 0)
(0.0136537 -0.201947 0)
(0.0137452 -0.200995 0)
(0.014799 -0.201286 0)
(0.0147328 -0.20022 0)
(0.015698 -0.200375 0)
(-0.0105896 -0.202212 0)
(-0.0118654 -0.203453 0)
(0.0155366 -0.199256 0)
(0.016382 -0.199204 0)
(0.0147261 -0.199088 0)
(0.0114693 -0.20118 0)
(0.00683395 -0.201872 0)
(0.0174874 -0.138661 0)
(0.0173038 -0.143527 0)
(0.000284007 -0.0446339 0)
(0.000311174 -0.0387491 0)
(-0.000120817 -0.0251797 0)
(-0.000200182 -0.011158 0)
(-0.000199947 -0.0112987 0)
(-0.000217274 -0.0123465 0)
(-0.00019911 -0.0114081 0)
(0.00430284 -0.0852096 0)
(-0.00544076 -0.180617 0)
(-8.3231e-05 -0.00562211 0)
(-7.69371e-05 -0.00524677 0)
(0.000831569 -0.0458299 0)
(0.018959 -0.131429 0)
(0.0189284 -0.121038 0)
(0.0170264 -0.142291 0)
(0.0168269 -0.146983 0)
(0.00102212 -0.146162 0)
(0.00119337 -0.143985 0)
(-0.000196629 -0.015832 0)
(-0.00460798 -0.180041 0)
(-0.000215648 -0.0124296 0)
(-0.000197671 -0.0114846 0)
(-0.000181393 -0.0104767 0)
(-0.000180171 -0.0105491 0)
(0.0161366 -0.198068 0)
(0.0169012 -0.197753 0)
(0.016558 -0.145676 0)
(0.0163331 -0.150106 0)
(0.0160777 -0.148646 0)
(0.0158231 -0.152856 0)
(0.000328084 -0.148959 0)
(-0.000160117 -0.149472 0)
(-0.00171992 -0.139508 0)
(-0.000149245 -0.0124038 0)
(-0.000150557 -0.0122036 0)
(0.000261689 -0.0386356 0)
(0.000268096 -0.035549 0)
(0.000445831 -0.126146 0)
(0.000258135 -0.124608 0)
(-6.15344e-05 -0.125312 0)
(8.59312e-05 -0.123037 0)
(-0.000215759 -0.123681 0)
(-7.30795e-05 -0.121429 0)
(-0.000355356 -0.122021 0)
(-0.00022243 -0.119772 0)
(-0.000493368 -0.120333 0)
(-0.000366849 -0.118146 0)
(-0.000615342 -0.118569 0)
(-0.000489664 -0.116479 0)
(-0.000725196 -0.116769 0)
(-0.000590136 -0.114653 0)
(-0.000827399 -0.114954 0)
(-0.00069377 -0.112822 0)
(-0.000923997 -0.113123 0)
(-0.000794045 -0.111023 0)
(0.00064741 -0.127654 0)
(-0.00101221 -0.111268 0)
(-0.000882731 -0.109196 0)
(-0.00042871 -0.112348 0)
(-0.00109209 -0.109391 0)
(-0.000964003 -0.107349 0)
(-0.000762952 -0.107073 0)
(-0.000845941 -0.105254 0)
(-0.00103694 -0.105486 0)
(-0.000920109 -0.103418 0)
(-0.00087073 -0.118906 0)
(-0.000117132 -0.117345 0)
(-0.0011013 -0.103604 0)
(-0.000986415 -0.101564 0)
(-0.000812249 -0.101314 0)
(-0.000879246 -0.0994859 0)
(-0.00104632 -0.0997001 0)
(-0.000940674 -0.0976579 0)
(-0.00109926 -0.0978296 0)
(-0.000994705 -0.0958233 0)
(-0.00114523 -0.0959537 0)
(-0.0010429 -0.0939669 0)
(-0.00118471 -0.0940622 0)
(-0.00108616 -0.0921017 0)
(-0.000946352 -0.0919418 0)
(-0.000993034 -0.0901071 0)
(-0.00112395 -0.0902476 0)
(-0.00103444 -0.0882819 0)
(-0.000907093 -0.0880661 0)
(-0.000949672 -0.0862693 0)
(-0.000776459 -0.0973715 0)
(-0.00107 -0.0864646 0)
(-0.000986299 -0.0844829 0)
(-0.000871933 -0.0842157 0)
(-0.00090902 -0.0824676 0)
(-0.00101677 -0.0826956 0)
(-0.000940524 -0.0807203 0)
(-0.00104175 -0.0809047 0)