/*--------------------------------*- C++ -*----------------------------------*\
| =========                 |                                                 |
| \\      /  F ield         | OpenFOAM: The Open Source CFD Toolbox           |
|  \\    /   O peration     | Version:  v2012                                 |
|   \\  /    A nd           | Website:  www.openfoam.com                      |
|    \\/     M anipulation  |                                                 |
\*---------------------------------------------------------------------------*/
FoamFile
{
    version     2.0;
    format      ascii;
    class       volVectorField;
    location    "950";
    object      cellDisplacement;
}
// * * * * * * * * * * * * * * * * * * * * * * * * * * * * * * * * * * * * * //

dimensions      [0 1 0 0 0 0 0];


internalField   nonuniform List<vector> 
13851
(
(0.00234818 -0.0643047 0)
(-0.000551975 -0.0866784 0)
(0.0068173 -0.0920343 0)
(0.00225223 -0.0630021 0)
(0.00912545 -0.0894105 0)
(0.000500001 -0.0669217 0)
(0.00722132 -0.0216367 0)
(0.00747094 -0.0855167 0)
(0.000331858 -0.0231386 0)
(0.00459336 -0.0920793 0)
(-9.9384e-05 -0.0121832 0)
(0.000422851 -0.0958685 0)
(0.00996058 -0.0993606 0)
(-0.00376833 -0.10287 0)
(0.00165248 -0.00630917 0)
(0.0058489 -0.0814185 0)
(0.00756563 -0.067098 0)
(0.00316991 -0.0749696 0)
(0.00913645 -0.0985586 0)
(0.000344003 -0.0228707 0)
(0.00230307 -0.0623647 0)
(0.0070666 -0.0917996 0)
(-1.82084e-06 -0.000960731 0)
(5.08515e-05 -0.00300175 0)
(-1.2878e-06 -0.000704441 0)
(0.00729415 -0.0860162 0)
(0.00904618 -0.0528927 0)
(-0.0114514 -0.104648 0)
(0.00244879 -0.0640788 0)
(0.00462839 -0.0708078 0)
(0.000400611 -0.0667265 0)
(0.00759129 -0.0680724 0)
(0.00671268 -0.09165 0)
(-0.000306316 -0.0386105 0)
(6.41219e-05 -0.00366931 0)
(0.0118796 -0.0707036 0)
(0.0119854 -0.0731127 0)
(0.00710848 -0.0974487 0)
(0.00445859 -0.0925737 0)
(-0.000291891 -0.0381242 0)
(0.00286281 -0.047822 0)
(-1.0786e-05 -0.00253163 0)
(0.00826751 -0.104875 0)
(-0.000110169 -0.0128402 0)
(-0.000110066 -0.012582 0)
(0.00569657 -0.10417 0)
(-0.00012061 -0.0131589 0)
(-0.000343152 -0.0583786 0)
(0.00912186 -0.0533678 0)
(-9.01751e-05 -0.0336597 0)
(0.0105539 -0.0801402 0)
(0.0104947 -0.0900705 0)
(-0.00355249 -0.104729 0)
(0.00112052 -0.00488165 0)
(0.000498687 -0.0066383 0)
(-1.08947e-05 -0.00250786 0)
(1.75493e-05 -0.0031287 0)
(-0.00610229 -0.104637 0)
(0.00461631 -0.0700204 0)
(0.00720915 -0.0298578 0)
(0.00685152 -0.0975523 0)
(0.00513691 -0.102317 0)
(0.00155472 -0.0776356 0)
(0.00937607 -0.0906166 0)
(0.0013475 -0.0863737 0)
(0.00196871 -0.0658553 0)
(0.0120019 -0.0732903 0)
(-0.000127966 -0.0136298 0)
(0.00974052 -0.0679884 0)
(0.00308147 -0.0746307 0)
(0.012122 -0.0745169 0)
(0.0120869 -0.0704077 0)
(-0.000756692 -0.0868312 0)
(0.00116278 -0.00478975 0)
(0.000750876 -0.0111079 0)
(0.000362103 -0.0292438 0)
(0.00719776 -0.091249 0)
(0.0118 -0.0987257 0)
(0.00908593 -0.0814166 0)
(0.0121849 -0.069715 0)
(0.00750826 -0.0400794 0)
(-9.91429e-06 -0.00110207 0)
(0.00451511 -0.0306735 0)
(0.00674857 -0.104394 0)
(0.00157315 -0.0782034 0)
(0.000612798 -0.0955984 0)
(0.000656683 -0.065323 0)
(0.00057809 -0.0906146 0)
(0.00846126 -0.0635521 0)
(-2.80165e-05 -0.0163548 0)
(0.0118385 -0.0715162 0)
(0.000449863 -0.0560204 0)
(-0.000131327 -0.0139801 0)
(0.00874034 -0.0672629 0)
(0.00855142 -0.062096 0)
(1.61589e-05 -0.00226272 0)
(0.00925911 -0.0895692 0)
(0.00967941 -0.102774 0)
(-0.000105502 -0.0336012 0)
(1.20671e-05 -0.00175479 0)
(-0.00461488 -0.103874 0)
(0.00981227 -0.0785909 0)
(0.00343998 -0.0618077 0)
(0.00997599 -0.036508 0)
(-7.39392e-07 -0.000185398 0)
(0.000548999 -0.0638625 0)
(0.0101011 -0.0787003 0)
(-5.67067e-06 -0.00132698 0)
(0.0121382 -0.0689558 0)
(0.000514657 -0.0675527 0)
(2.40804e-05 -0.00205835 0)
(-3.10286e-05 -0.0167554 0)
(0.000501472 -0.0557628 0)
(1.32755e-05 -0.000806347 0)
(3.14796e-05 -0.0025991 0)
(-0.000841486 -0.0711054 0)
(0.0096812 -0.10247 0)
(-6.48058e-06 -0.00165856 0)
(0.000146412 -0.00389274 0)
(0.000363573 -0.00534127 0)
(0.00765358 -0.104878 0)
(0.00987508 -0.0376621 0)
(0.00980969 -0.0998298 0)
(-0.000616887 -0.0556389 0)
(-0.000271308 -0.0581359 0)
(-5.49464e-05 -0.0101891 0)
(-0.000260838 -0.0574963 0)
(0.00944074 -0.0803107 0)
(0.00223212 -0.0615958 0)
(0.00868881 -0.0951763 0)
(0.00283421 -0.0467402 0)
(0.000539725 -0.0189223 0)
(0.0121164 -0.0749319 0)
(0.00447336 -0.0293015 0)
(-0.00086906 -0.0706306 0)
(0.00026534 -0.008469 0)
(-5.8975e-06 -0.00152509 0)
(0.0120463 -0.0724401 0)
(0.000240908 -0.101978 0)
(-0.00275656 -0.100347 0)
(-0.00413126 -0.10397 0)
(0.000439457 -0.00603628 0)
(0.000278826 -0.0390299 0)
(-2.5702e-05 -0.0055669 0)
(0.00669699 -0.0640048 0)
(-0.000113752 -0.0132199 0)
(-4.95868e-06 -0.00071309 0)
(0.00849747 -0.0954596 0)
(0.00706867 -0.0215376 0)
(-0.000106408 -0.0122047 0)
(0.0116051 -0.06274 0)
(0.000411687 -0.00640638 0)
(-0.00412527 -0.102991 0)
(1.59474e-05 -0.00302483 0)
(0.00800475 -0.0537908 0)
(0.0065796 -0.0640235 0)
(0.00122676 -0.0371003 0)
(0.00509947 -0.066988 0)
(0.0104038 -0.0908525 0)
(0.0104387 -0.0806758 0)
(-2.65911e-06 -0.00052048 0)
(0.00957016 -0.0597229 0)
(-0.00580099 -0.104664 0)
(0.000506268 -0.0183245 0)
(0.00463878 -0.0769648 0)
(-1.91464e-05 -0.00440412 0)
(-6.3638e-06 -0.000902379 0)
(0.00986072 -0.0675059 0)
(0.00227361 -0.0609265 0)
(0.00831858 -0.103692 0)
(0.0118103 -0.0981522 0)
(0.000103731 -0.0110836 0)
(0.00128351 -0.0377003 0)
(-0.00264156 -0.100605 0)
(0.000471004 -0.0169962 0)
(-0.000355829 -0.0590013 0)
(0.00934246 -0.0802196 0)
(0.000370525 -0.0411967 0)
(0.00932476 -0.098735 0)
(-5.9953e-06 -0.0013498 0)
(0.00747411 -0.0703155 0)
(0.0120732 -0.0715383 0)
(0.00434971 -0.0264417 0)
(0.00712763 -0.0922551 0)
(-6.70979e-07 -0.000161971 0)
(1.36559e-06 -0.00153537 0)
(0.0020279 -0.0663997 0)
(0.000506256 -0.00737394 0)
(0.00878305 -0.0917651 0)
(0.00327571 -0.0897612 0)
(-0.00012426 -0.0135224 0)
(-0.00381401 -0.104723 0)
(-3.97875e-05 -0.0171864 0)
(0.00931498 -0.0718209 0)
(0.00515379 -0.102076 0)
(0.00780529 -0.0540708 0)
(0.000297018 -0.0384542 0)
(-0.000276258 -0.03606 0)
(0.000364882 -0.0405457 0)
(0.000378441 -0.0298895 0)
(-5.61578e-05 -0.0104985 0)
(0.00563499 -0.103722 0)
(9.61792e-05 -0.00216088 0)
(0.00355715 -0.0357557 0)
(0.00412984 -0.0894682 0)
(0.00453824 -0.0275018 0)
(0.00168903 -0.100203 0)
(0.00789768 -0.0658279 0)
(0.0119488 -0.0871848 0)
(-4.04383e-06 -0.000851313 0)
(0.0118833 -0.0863693 0)
(0.00345178 -0.060843 0)
(-0.000330893 -0.0359541 0)
(-3.79932e-06 -0.00086304 0)
(-2.22524e-05 -0.00482485 0)
(-8.70863e-05 -0.011212 0)
(0.00177438 -0.0787881 0)
(0.00501856 -0.104246 0)
(0.00274653 -0.0127269 0)
(0.0119362 -0.0879343 0)
(0.00784795 -0.0670131 0)
(0.00761949 -0.0406324 0)
(0.0111219 -0.0997943 0)
(0.00973332 -0.0930421 0)
(0.0120267 -0.0795923 0)
(-1.4577e-07 -0.000946813 0)
(0.00878086 -0.0704736 0)
(-6.13244e-07 -0.000154755 0)
(-0.00115328 -0.104739 0)
(-3.56038e-06 -0.000798584 0)
(0.00716318 -0.0856736 0)
(0.000987863 -0.0836053 0)
(9.60167e-05 -0.0103064 0)
(-3.67662e-05 -0.0168034 0)
(0.0106768 -0.0760483 0)
(0.0026781 -0.0807753 0)
(0.00208004 -0.100173 0)
(0.0012016 -0.086765 0)
(-2.48226e-05 -0.00532183 0)
(0.00366762 -0.036091 0)
(0.000391428 -0.0660808 0)
(-0.000170559 -0.0321381 0)
(-4.32009e-06 -0.000751677 0)
(0.00397742 -0.0899598 0)
(-1.0911e-06 -0.000273582 0)
(0.0119952 -0.0824751 0)
(0.0097274 -0.0798363 0)
(-0.000341032 -0.0374225 0)
(0.00634743 -0.0652967 0)
(0.00649818 -0.0726959 0)
(0.000354107 -0.0490236 0)
(-0.000181314 -0.0319685 0)
(0.00638125 -0.0520566 0)
(0.00646856 -0.0652949 0)
(0.0106228 -0.0713846 0)
(0.000446714 -0.0759271 0)
(0.00327883 -0.089258 0)
(0.0120337 -0.0734905 0)
(0.0115469 -0.104447 0)
(0.00457437 -0.015393 0)
(-2.31488e-05 -0.00506463 0)
(0.00307043 -0.0733605 0)
(-0.000203449 -0.0681754 0)
(-3.95086e-05 -0.00906483 0)
(0.00854779 -0.0997075 0)
(0.00770166 -0.0548734 0)
(0.00640949 -0.0509213 0)
(0.00875953 -0.0661392 0)
(0.0110749 -0.0994017 0)
(-9.6199e-05 -0.0181983 0)
(0.000330717 -0.0485622 0)
(0.00790085 -0.0547245 0)
(0.000136531 -0.0682058 0)
(0.00908793 -0.0804055 0)
(0.00575256 -0.0810047 0)
(0.000573783 -0.0202038 0)
(-7.62065e-06 -0.000838557 0)
(-6.72754e-05 -0.00972035 0)
(0.0121512 -0.0707999 0)
(-9.60101e-05 -0.0118268 0)
(-3.18485e-06 -0.000548501 0)
(-2.52852e-06 -0.000540678 0)
(-6.10265e-07 -0.000151469 0)
(0.0106019 -0.0704998 0)
(-0.000258275 -0.0677711 0)
(-0.000431456 -0.0598528 0)
(0.000393771 -0.0271907 0)
(0.00292912 -0.00708975 0)
(8.80099e-05 -0.0677784 0)
(-3.6072e-06 -0.000410416 0)
(0.00843209 -0.0961304 0)
(0.00475018 -0.0692318 0)
(0.00723369 -0.0312893 0)
(0.00958952 -0.0720288 0)
(-6.70637e-06 -0.000764586 0)
(0.00881247 -0.0994957 0)
(0.00499839 -0.0762594 0)
(0.000520317 -0.0952388 0)
(0.000639401 -0.0220896 0)
(0.0119811 -0.0831317 0)
(0.00956667 -0.0586575 0)
(0.00740698 -0.0674846 0)
(0.0121177 -0.0730788 0)
(0.00414966 -0.0549276 0)
(0.000553293 -0.0645191 0)
(0.0116657 -0.0958454 0)
(0.000390814 -0.0263467 0)
(0.0103333 -0.0698625 0)
(0.00862523 -0.0684337 0)
(0.0047299 -0.0684105 0)
(0.000845416 -0.10197 0)
(0.00491148 -0.0768453 0)
(0.0060685 -0.0526456 0)
(0.0107262 -0.101401 0)
(-1.32453e-05 -0.00310992 0)
(0.00654573 -0.0733136 0)
(-6.07096e-05 -0.0111147 0)
(0.0121465 -0.0707579 0)
(0.0117171 -0.0700721 0)
(0.00301136 -0.0139114 0)
(0.0101603 -0.0764709 0)
(0.00310265 -0.011418 0)
(0.0115114 -0.104325 0)
(0.000299313 -0.0501229 0)
(-1.42687e-06 -0.00118635 0)
(0.00122138 -0.0434314 0)
(0.0116569 -0.0711321 0)
(0.00877952 -0.0693032 0)
(0.00817078 -0.0516496 0)
(0.00274675 -0.00616568 0)
(0.00417284 -0.0540425 0)
(0.00596323 -0.0525392 0)
(-0.000102835 -0.0123096 0)
(-0.00631598 -0.103259 0)
(0.00754315 -0.103332 0)
(0.00240503 -0.0746693 0)
(0.0121158 -0.0727889 0)
(0.00541738 -0.100252 0)
(0.00154507 -0.00626782 0)
(0.00922496 -0.07317 0)
(0.008225 -0.0964262 0)
(0.000457395 -0.0572609 0)
(0.00212519 -0.0818634 0)
(0.0106538 -0.0871229 0)
(0.00890066 -0.0989174 0)
(0.000623625 -0.051984 0)
(-0.000533321 -0.0677587 0)
(0.011833 -0.0908721 0)
(0.00142335 -0.00515065 0)
(-8.87263e-05 -0.0137637 0)
(-8.88831e-05 -0.0135358 0)
(0.00459224 -0.0973557 0)
(0.00824662 -0.0504762 0)
(0.00199284 -0.0822065 0)
(-0.0016631 -0.104722 0)
(0.00131164 -0.0388059 0)
(-0.000589761 -0.0673533 0)
(0.0011792 -0.0430301 0)
(0.00289675 -0.0103472 0)
(-1.17483e-06 -0.000292519 0)
(-5.56132e-06 -0.00128392 0)
(0.00119797 -0.0342033 0)
(0.0118196 -0.0905592 0)
(-0.000193482 -0.0240904 0)
(0.00432935 -0.042621 0)
(0.0103056 -0.0688565 0)
(-1.55307e-05 -0.00347945 0)
(0.000280018 -0.0951414 0)
(0.00494069 -0.0839537 0)
(-0.000619013 -0.0598714 0)
(0.00817733 -0.10352 0)
(0.00431711 -0.043666 0)
(0.00167778 -0.0792306 0)
(0.00835582 -0.0701688 0)
(-0.000557829 -0.0596258 0)
(0.00259265 -0.0443259 0)
(-7.05339e-06 -0.00181039 0)
(0.000432729 -0.0522113 0)
(-0.00601959 -0.103874 0)
(0.000610165 -0.00910849 0)
(0.00109519 -0.10173 0)
(0.000426916 -0.0567812 0)
(0.0107049 -0.087647 0)
(0.0079512 -0.103864 0)
(-9.79724e-05 -0.0135154 0)
(-9.8526e-05 -0.0137806 0)
(0.000305503 -0.0457105 0)
(0.000699877 -0.0204261 0)
(0.000829869 -0.00284813 0)
(0.0025032 -0.0739886 0)
(0.010252 -0.0753425 0)
(-0.00408107 -0.102673 0)
(0.0100635 -0.0653596 0)
(0.0120193 -0.0795397 0)
(0.0117315 -0.0942099 0)
(-1.61641e-05 -0.00366174 0)
(0.00478746 -0.015833 0)
(0.00767164 -0.103519 0)
(0.0121387 -0.0732468 0)
(0.00100294 -0.0831352 0)
(0.00995069 -0.102223 0)
(0.000387504 -0.0523091 0)
(0.00838057 -0.0710448 0)
(5.67821e-06 -0.00145365 0)
(0.00565165 -0.0999739 0)
(0.000190922 -0.0169835 0)
(0.00601094 -0.0810603 0)
(0.000332027 -0.045358 0)
(0.00659966 -0.0260991 0)
(-5.24115e-07 -0.000130714 0)
(0.00036773 -0.0256031 0)
(-1.84461e-05 -0.00419797 0)
(0.00950777 -0.0898766 0)
(0.0025212 -0.0824947 0)
(0.0111756 -0.104223 0)
(0.00284688 -0.07439 0)
(0.0101857 -0.0774565 0)
(0.00115652 -0.0672469 0)
(-0.000177442 -0.0313955 0)
(0.00621078 -0.0749008 0)
(0.00430065 -0.0973503 0)
(0.00737303 -0.0666221 0)
(-8.41444e-05 -0.0108491 0)
(-5.35267e-06 -0.00137066 0)
(0.000362561 -0.0247726 0)
(1.23654e-06 -0.0011779 0)
(0.00637772 -0.098175 0)
(-0.000299771 -0.032531 0)
(0.00943293 -0.0935076 0)
(0.00123893 -0.0674026 0)
(0.0112677 -0.10439 0)
(-0.00030242 -0.0390657 0)
(0.000644446 -0.0646772 0)
(0.000315031 -0.00478864 0)
(0.010776 -0.0751753 0)
(0.00255104 -0.0431486 0)
(-0.000187609 -0.0312275 0)
(-1.34394e-06 -0.000351797 0)
(0.00326159 -0.0969969 0)
(-0.000236741 -0.0308363 0)
(0.00645835 -0.0909171 0)
(0.011905 -0.0905295 0)
(0.000330113 -0.0404165 0)
(-6.22537e-05 -0.00882318 0)
(-0.000251089 -0.0310923 0)
(-0.00736712 -0.103736 0)
(-9.38758e-07 -0.000225665 0)
(0.00840653 -0.0729977 0)
(0.00920472 -0.0813799 0)
(-9.96483e-05 -0.0180848 0)
(0.000162461 -0.0141436 0)
(0.00579012 -0.0536828 0)
(0.0115739 -0.0621175 0)
(0.0105164 -0.0892237 0)
(0.00256501 -0.0763906 0)
(-0.00120397 -0.0946498 0)
(1.07661e-08 -0.00122292 0)
(0.00123282 -0.0445555 0)
(0.0063348 -0.104806 0)
(0.00445942 -0.0774987 0)
(-2.26556e-06 -0.000490803 0)
(0.000326539 -0.0906822 0)
(0.000662894 -0.0197673 0)
(0.00227607 -0.0638523 0)
(0.000246424 -0.017501 0)
(0.0036275 -0.0828431 0)
(0.0049334 -0.0651152 0)
(-3.60143e-06 -0.000768316 0)
(0.000321146 -0.0397942 0)
(0.0105768 -0.101293 0)
(0.00467616 -0.0318824 0)
(0.0100085 -0.0681245 0)
(0.000302208 -0.00940822 0)
(0.000900372 -0.0605591 0)
(-7.28031e-05 -0.00984828 0)
(1.39068e-05 -0.000738534 0)
(0.00227094 -0.0467825 0)
(2.56137e-05 -0.0015043 0)
(2.22511e-05 -0.00140553 0)
(-0.000305135 -0.0600246 0)
(0.00656259 -0.0492644 0)
(0.000572635 -0.0658108 0)
(0.00428684 -0.025044 0)
(7.04483e-06 -0.00190729 0)
(-0.00294191 -0.103614 0)
(0.0119158 -0.0898878 0)
(0.00484258 -0.0280389 0)
(0.000833536 -0.0605585 0)
(0.00634026 -0.0750472 0)
(-0.000173491 -0.0327666 0)
(0.00619256 -0.104347 0)
(0.00127673 -0.0449071 0)
(-0.000189559 -0.023635 0)
(0.00269565 -0.0449556 0)
(0.00851905 -0.0906979 0)
(0.00680064 -0.0297394 0)
(0.00151572 -0.10468 0)
(-3.75229e-06 -0.000962062 0)
(-0.0027537 -0.104745 0)
(0.00306446 -0.0886863 0)
(-1.15327e-05 -0.00272496 0)
(0.000795647 -0.0598588 0)
(0.00943461 -0.103472 0)
(0.00697821 -0.0862622 0)
(-0.000150692 -0.0165719 0)
(0.000188334 -0.00488244 0)
(-0.000449266 -0.0541658 0)
(0.0003936 -0.00510736 0)
(0.000368929 -0.0155307 0)
(0.0006017 -0.0221299 0)
(0.00672772 -0.020979 0)
(0.0121366 -0.0733775 0)
(0.0102906 -0.0801431 0)
(0.0111405 -0.0837062 0)
(0.0102771 -0.0971455 0)
(0.0017374 -0.0782389 0)
(-3.46015e-06 -0.000667916 0)
(0.0084275 -0.100954 0)
(-0.000282788 -0.0324181 0)
(0.00761074 -0.0700939 0)
(0.00948835 -0.0611345 0)
(-0.000160173 -0.0328556 0)
(-0.00055436 -0.0555211 0)
(0.0118722 -0.0859648 0)
(0.000749292 -0.00370353 0)
(0.00123204 -0.104645 0)
(0.00626895 -0.104217 0)
(0.00511097 -0.103824 0)
(0.0047599 -0.0772347 0)
(0.000733356 -0.0598842 0)
(-0.000623257 -0.057437 0)
(-6.47709e-05 -0.0091736 0)
(0.000441612 -0.0753309 0)
(-0.00029737 -0.0362324 0)
(0.00293422 -0.0976576 0)
(0.00498298 -0.0677752 0)
(0.002968 -0.0979779 0)
(0.0118244 -0.0831218 0)
(-4.27998e-06 -0.00109157 0)
(-6.47368e-05 -0.00936291 0)
(0.0104081 -0.079669 0)
(0.0119061 -0.0908216 0)
(0.00623839 -0.0664266 0)
(0.00315368 -0.0270305 0)
(0.00119997 -0.0359707 0)
(0.00326026 -0.0430378 0)
(0.00894552 -0.0910739 0)
(0.00309521 -0.081069 0)
(0.000691712 -0.0901954 0)
(-0.00108807 -0.0943612 0)
(0.000174262 -0.00787908 0)
(0.00687693 -0.104833 0)
(0.0117936 -0.0975986 0)
(0.000323791 -0.0638827 0)
(-0.000274398 -0.0318818 0)
(0.00989182 -0.0686563 0)
(-1.80508e-06 -0.000401418 0)
(0.000340465 -0.0240793 0)
(-8.02741e-06 -0.00106147 0)
(0.00855979 -0.101217 0)
(0.00809437 -0.0539792 0)
(0.0115439 -0.0689273 0)
(0.0117209 -0.0756487 0)
(-1.00851e-05 -0.00230945 0)
(0.000984293 -0.0676895 0)
(-0.000449015 -0.0558396 0)
(0.00488323 -0.0969411 0)
(0.0103065 -0.0892105 0)
(0.0121279 -0.0740176 0)
(0.01188 -0.0810611 0)
(0.00273017 -0.0461019 0)
(0.00671622 -0.0251366 0)
(-0.00053365 -0.0906372 0)
(0.0117164 -0.0950549 0)
(0.0115481 -0.0757075 0)
(0.010148 -0.0639543 0)
(0.00139293 -0.0775679 0)
(-6.19159e-06 -0.00141326 0)
(0.00237219 -0.0308866 0)
(0.00329176 -0.0973452 0)
(-9.18045e-06 -0.00213119 0)
(0.00611677 -0.0663776 0)
(-5.1678e-06 -0.00116208 0)
(0.000601225 -0.0152905 0)
(0.0118135 -0.0840482 0)
(0.00923747 -0.0905044 0)
(0.00133171 -0.0667889 0)
(-8.4836e-06 -0.00195805 0)
(0.00163892 -0.101672 0)
(-0.000268055 -0.0355158 0)
(0.000712117 -0.0227327 0)
(1.11231e-05 -0.00310905 0)
(-4.06082e-05 -0.00940649 0)
(0.00102977 -0.00375929 0)
(-0.00608104 -0.103966 0)
(-0.000329151 -0.0369098 0)
(-0.000341228 -0.0364959 0)
(0.0044476 -0.103775 0)
(-0.000488148 -0.0536947 0)
(0.0101216 -0.0619057 0)
(0.0119054 -0.090948 0)
(0.0119518 -0.0871711 0)
(0.000599025 -0.0525518 0)
(0.00964828 -0.0695225 0)
(-1.36996e-06 -0.000302872 0)
(-5.95187e-05 -0.0107886 0)
(0.00631387 -0.0821183 0)
(0.0102046 -0.101095 0)
(-0.000431203 -0.067583 0)
(0.0114773 -0.0698545 0)
(0.00780156 -0.0741087 0)
(0.000312194 -0.0212497 0)
(0.00544802 -0.0812943 0)
(0.000205319 -0.0363513 0)
(-0.000150828 -0.016838 0)
(0.0101282 -0.0836536 0)
(0.00409057 -0.0239775 0)
(0.00245602 -0.075246 0)
(0.000164857 -0.0138031 0)
(0.00894852 -0.0638996 0)
(0.00927488 -0.0941232 0)
(0.00706884 -0.0294143 0)
(0.00245312 -0.042552 0)
(0.00507075 -0.0842315 0)
(0.00639679 -0.0392851 0)
(0.00896376 -0.0901864 0)
(0.00626544 -0.0978158 0)
(0.00976969 -0.092342 0)
(0.0051395 -0.0815598 0)
(0.011612 -0.0748416 0)
(0.000303369 -0.0203897 0)
(0.00118178 -0.0823317 0)
(0.000339801 -0.0497593 0)
(0.00396743 -0.103874 0)
(0.0035576 -0.0602701 0)
(1.93121e-05 -0.00229448 0)
(0.0121185 -0.0697869 0)
(0.00389975 -0.0686086 0)
(0.00808924 -0.103989 0)
(0.0118898 -0.088683 0)
(0.00411691 -0.104411 0)
(0.000206139 -0.0903714 0)
(0.000195695 -0.016675 0)
(0.0121099 -0.069527 0)
(-3.37189e-06 -0.000569223 0)
(0.000647037 -0.0173104 0)
(-3.33382e-06 -0.000846878 0)
(0.000665664 -0.0168683 0)
(-2.18214e-06 -0.000333022 0)
(0.00270286 -0.0744824 0)
(0.00371461 -0.0821401 0)
(-7.71184e-06 -0.00180129 0)
(0.0042425 -0.099731 0)
(0.00305732 -0.0891856 0)
(0.00425309 -0.100018 0)
(0.00100769 -0.0333438 0)
(-2.21298e-06 -0.000550912 0)
(-2.72821e-06 -0.00132177 0)
(0.00803322 -0.0961964 0)
(0.00468131 -0.101742 0)
(0.0110232 -0.065929 0)
(0.00890939 -0.065049 0)
(-4.46684e-06 -0.000746715 0)
(7.56023e-06 -0.00178365 0)
(0.000125535 -0.00556937 0)
(0.0011988 -0.0391347 0)
(0.0113793 -0.0882258 0)
(-0.00105752 -0.0977602 0)
(0.00630043 -0.038638 0)
(-7.07377e-06 -0.00164319 0)
(0.00683265 -0.0198052 0)
(0.00122186 -0.0386515 0)
(0.00351194 -0.0962775 0)
(-0.00508645 -0.1047 0)
(0.00555808 -0.081599 0)
(0.00915421 -0.103009 0)
(-0.000470144 -0.0547735 0)
(0.00240804 -0.0413689 0)
(0.0110443 -0.0843784 0)
(-0.00673136 -0.103741 0)
(0.0096801 -0.0705939 0)
(0.000500371 -0.0961905 0)
(0.00738449 -0.041078 0)
(0.00315003 -0.0738159 0)
(0.0109518 -0.0662611 0)
(0.00292948 -0.0736042 0)
(-0.000309904 -0.0358219 0)
(0.00466419 -0.0270918 0)
(-0.000602346 -0.0567999 0)
(-1.14316e-06 -0.000296185 0)
(0.0107685 -0.0481733 0)
(0.0119025 -0.0903646 0)
(0.000275391 -0.0292477 0)
(0.0037172 -0.0661422 0)
(0.00137496 -0.076992 0)
(0.000397532 -0.0167978 0)
(0.00745736 -0.0693442 0)
(-2.99663e-05 -0.0677753 0)
(-0.00309783 -0.101437 0)
(0.0100069 -0.0839478 0)
(0.00839538 -0.0994049 0)
(-0.000100858 -0.0134958 0)
(-4.58862e-06 -0.00104427 0)
(0.000983023 -0.032145 0)
(-0.00211406 -0.103652 0)
(0.0117259 -0.0747728 0)
(0.00257096 -0.0813781 0)
(0.0118697 -0.0893054 0)
(0.000157318 -0.0196356 0)
(0.000405116 -0.00101337 0)
(-4.75805e-06 -0.0012267 0)
(-0.000466241 -0.0530834 0)
(0.0118605 -0.0793722 0)
(0.00513027 -0.0740249 0)
(0.00269037 -0.0572157 0)
(-7.54926e-05 -0.0102025 0)
(0.00872336 -0.0569514 0)
(-2.98228e-06 -0.00137737 0)
(0.008018 -0.104781 0)
(0.000349183 -0.0763233 0)
(0.0115531 -0.101156 0)
(-1.25306e-05 -0.00291783 0)
(0.00632614 -0.0372789 0)
(0.0118673 -0.093845 0)
(-0.00803391 -0.104676 0)
(0.0118073 -0.0714214 0)
(0.000220045 -0.0358004 0)
(0.0119578 -0.0795915 0)
(0.00460578 -0.0289924 0)
(-8.11372e-05 -0.0107064 0)
(0.00599301 -0.0955676 0)
(0.0063332 -0.0915961 0)
(0.00660121 -0.0708177 0)
(0.00488096 -0.104364 0)
(0.000319746 -0.0468525 0)
(0.000111443 -0.0344388 0)
(0.0119481 -0.0741783 0)
(2.22685e-05 -0.00251521 0)
(5.44221e-05 -0.00118737 0)
(0.00495052 -0.0660126 0)
(0.000284015 -0.019788 0)
(0.00750055 -0.104745 0)
(0.00682828 -0.0798478 0)
(0.0104466 -0.0888022 0)
(0.00140961 -0.0669815 0)
(-6.99307e-05 -0.00988435 0)
(0.00033362 -0.021921 0)
(-9.70708e-05 -0.0681915 0)
(0.000111659 -0.00408789 0)
(0.000298734 -0.0464313 0)
(-2.85987e-06 -0.000729789 0)
(0.00226777 -0.0395846 0)
(0.00044422 -0.00827673 0)
(0.0116576 -0.0965771 0)
(0.00122708 -0.035409 0)
(-9.21303e-06 -0.002387 0)
(-8.7396e-05 -0.0572685 0)
(0.00687668 -0.0256989 0)
(0.0118656 -0.0938093 0)
(-1.35367e-06 -0.000387149 0)
(0.00025347 -0.0377221 0)
(0.0109983 -0.0737062 0)
(0.00320092 -0.0962321 0)
(-0.000192033 -0.0248222 0)
(0.000123594 -0.00639319 0)
(0.000247664 -0.0681973 0)
(0.00896436 -0.102781 0)
(0.00653311 -0.0504788 0)
(0.0116261 -0.0944194 0)
(0.0106954 -0.0485621 0)
(0.000256911 -0.0183915 0)
(-1.49864e-05 -0.0355805 0)
(0.00830837 -0.104854 0)
(0.000323883 -0.0677761 0)
(0.00607596 -0.0738737 0)
(0.000158876 -0.0069931 0)
(-6.34411e-06 -0.00149055 0)
(-0.000257407 -0.0316886 0)
(0.00594944 -0.0924994 0)
(0.00320039 -0.0858962 0)
(0.00497877 -0.075578 0)
(-2.49123e-05 -0.0352526 0)
(0.000935688 -0.00445113 0)
(0.000241787 -0.0370759 0)
(0.0117082 -0.0638019 0)
(-0.000273696 -0.0337082 0)
(0.00863776 -0.0916072 0)
(-0.0003734 -0.0679761 0)
(0.00621536 -0.0365464 0)
(0.00866247 -0.0908031 0)
(0.0107387 -0.0808531 0)
(0.0121592 -0.0696879 0)
(0.00499707 -0.0738583 0)
(0.000403648 -0.0998232 0)
(0.0101408 -0.0971977 0)
(0.00700315 -0.0245678 0)
(0.00740996 -0.104184 0)
(0.00134377 -0.0819235 0)
(0.00667891 -0.102093 0)
(-0.0034468 -0.101599 0)
(0.0109986 -0.10163 0)
(-0.000155096 -0.0221219 0)
(0.00604714 -0.0847352 0)
(0.000274567 -0.018933 0)
(0.00244868 -0.0734172 0)
(-0.00550204 -0.104623 0)
(0.00732621 -0.104324 0)
(0.00099635 -0.0408073 0)
(3.06082e-06 -0.00132823 0)
(0.0106067 -0.0775805 0)
(-6.78381e-06 -0.000815489 0)
(-1.24191e-05 -0.00311011 0)
(-0.00526856 -0.104706 0)
(0.000154307 -0.0188472 0)
(0.00459803 -0.0404447 0)
(0.00664595 -0.104766 0)
(0.0118478 -0.0953106 0)
(-0.00010414 -0.0137294 0)
(0.000668607 -0.0182453 0)
(0.00286628 -0.00936442 0)
(-0.00740139 -0.104681 0)
(0.0113121 -0.088572 0)
(0.0115172 -0.0751438 0)
(0.000797661 -0.0520127 0)
(0.00787515 -0.103126 0)
(0.00513629 -0.096991 0)
(0.00508957 -0.101541 0)
(0.00997922 -0.0790805 0)
(0.0101845 -0.0695434 0)
(0.00589778 -0.0536719 0)
(0.00678306 -0.0282296 0)
(-0.00092916 -0.0864443 0)
(0.0112347 -0.05948 0)
(0.0121477 -0.0725637 0)
(0.000347413 -0.0518327 0)
(0.00995104 -0.0657569 0)
(0.00768294 -0.104672 0)
(0.0068324 -0.102313 0)
(0.0118041 -0.0977077 0)
(0.00542529 -0.0285744 0)
(0.0101591 -0.0590956 0)
(0.000676337 -0.0220875 0)
(0.0052545 -0.081877 0)
(0.00362937 -0.0657678 0)
(0.000167201 -0.096693 0)
(0.000254621 -0.00106206 0)
(0.0120979 -0.0760029 0)
(-1.20807e-05 -0.00308596 0)
(0.0109343 -0.073884 0)
(0.00252166 -0.0365807 0)
(0.00553699 -0.0962544 0)
(0.0101706 -0.0625173 0)
(0.0100449 -0.0600152 0)
(0.00947094 -0.102994 0)
(0.0105537 -0.0668154 0)
(0.00343249 -0.0831946 0)
(4.30833e-05 -0.00272986 0)
(0.0108382 -0.0753529 0)
(-0.000424091 -0.0592191 0)
(0.00142935 -0.0792685 0)
(0.00587892 -0.0673516 0)
(0.0118406 -0.0959221 0)
(-3.73407e-05 -0.00878799 0)
(-0.00398261 -0.101511 0)
(-0.000179436 -0.0234197 0)
(0.0054279 -0.0498361 0)
(0.0119046 -0.0858753 0)
(-0.00543962 -0.103836 0)
(0.011854 -0.0945099 0)
(-0.000151995 -0.0217088 0)
(0.000347642 -0.0511848 0)
(0.00115926 -0.0413344 0)
(0.0115234 -0.10181 0)
(0.000444836 -0.00197595 0)
(-0.00073138 -0.0712699 0)
(0.0119716 -0.0855144 0)
(0.00107602 -0.033451 0)
(0.00903976 -0.039398 0)
(0.00666801 -0.0980975 0)
(-0.000280612 -0.0351232 0)
(-0.000306734 -0.0996363 0)
(0.00579994 -0.0422278 0)
(2.16012e-05 -0.00380425 0)
(-0.00107494 -0.0888431 0)
(0.0119258 -0.0888148 0)
(0.0102067 -0.090221 0)
(0.00607706 -0.0729362 0)
(0.000881045 -0.0513105 0)
(-0.000176007 -0.0229964 0)
(0.0048567 -0.104662 0)
(0.0107051 -0.0818983 0)
(-9.83372e-06 -0.00255477 0)
(0.00613034 -0.0851878 0)
(0.000419199 -0.016611 0)
(0.000174727 -0.00393599 0)
(-9.19482e-05 -0.0135366 0)
(6.33371e-06 -0.00141319 0)
(0.00367502 -0.0977011 0)
(-0.000185038 -0.0306256 0)
(0.00459434 -0.041552 0)
(0.00028894 -0.0396685 0)
(0.00115297 -0.0420994 0)
(0.00507969 -0.0660988 0)
(0.0120174 -0.0824067 0)
(0.00905585 -0.103487 0)
(0.00853078 -0.0717974 0)
(0.000548706 -0.100026 0)
(0.00252045 -0.0357184 0)
(0.00827769 -0.0731251 0)
(0.00111364 -0.0403814 0)
(0.000446626 -0.0171702 0)
(0.00447007 -0.0519291 0)
(0.00446819 -0.0416004 0)
(0.0119847 -0.0848418 0)
(0.00490079 -0.0293958 0)
(0.0108447 -0.0680475 0)
(0.00546843 -0.0299106 0)
(0.0062148 -0.0739223 0)
(-9.54382e-05 -0.0137959 0)
(-0.00997978 -0.104649 0)
(0.000163463 -0.00448123 0)
(-0.000411851 -0.0909693 0)
(0.00311591 -0.0863966 0)
(0.0109005 -0.0947658 0)
(0.00693424 -0.0800567 0)
(0.0076705 -0.0787627 0)
(0.0121328 -0.0737087 0)
(0.00907476 -0.0626216 0)
(0.00284842 -0.0806775 0)
(0.000170317 -0.0964255 0)
(-0.000322342 -0.0705197 0)
(-0.000144016 -0.104776 0)
(0.00793287 -0.082675 0)
(-0.000102747 -0.0120595 0)
(0.00354738 -0.0592111 0)
(0.0105038 -0.0661594 0)
(0.00994136 -0.0781716 0)
(-0.000107568 -0.0998397 0)
(0.000102065 -0.00531023 0)
(-0.00162828 -0.100375 0)
(0.000938932 -0.0314706 0)
(0.00105349 -0.0339988 0)
(-0.00361347 -0.102547 0)
(-5.60523e-05 -0.0109367 0)
(0.00933249 -0.0992835 0)
(0.00662513 -0.0715681 0)
(0.000636315 -0.0227543 0)
(0.00106992 -0.0678327 0)
(0.000675949 -0.0228061 0)
(0.00304606 -0.00944551 0)
(-5.46921e-06 -0.000889263 0)
(0.00727488 -0.0402754 0)
(0.0119296 -0.0738169 0)
(0.00112442 -0.0341128 0)
(0.0112329 -0.0896251 0)
(0.00461568 -0.104714 0)
(0.00420858 -0.0885013 0)
(-0.00256978 -0.101507 0)
(0.00663488 -0.0276177 0)
(8.55779e-05 -0.00322581 0)
(-6.38299e-05 -0.011425 0)
(0.00323694 -0.0438729 0)
(0.000607498 -0.0207961 0)
(0.0109631 -0.0768722 0)
(0.00838619 -0.026868 0)
(0.000476495 -0.0292528 0)
(0.0027658 -0.0577711 0)
(-9.6852e-07 -0.000903245 0)
(0.0117941 -0.0985796 0)
(-0.00124928 -0.0975012 0)
(0.00142284 -0.078705 0)
(0.0101693 -0.102354 0)
(0.0115823 -0.0846676 0)
(0.00239942 -0.031931 0)
(-0.000237206 -0.0486758 0)
(0.00791809 -0.07334 0)
(0.00114624 -0.0335487 0)
(-0.000202389 -0.0224077 0)
(0.00039303 -0.0621598 0)
(-0.000277641 -0.0415248 0)
(0.00080153 -0.0114749 0)
(-0.000117161 -0.0130646 0)
(-0.000271969 -0.0345967 0)
(-0.001643 -0.104623 0)
(0.000111029 -0.00968521 0)
(0.00959715 -0.0997813 0)
(0.00684937 -0.0790208 0)
(0.00865067 -0.0562683 0)
(-5.84838e-06 -0.00093573 0)
(0.000177045 -0.0198898 0)
(0.00207707 -0.0980806 0)
(0.00132072 -0.081386 0)
(-0.000374315 -0.0602628 0)
(0.000278032 -0.0284999 0)
(0.00406974 -0.0296454 0)
(-0.000198239 -0.0572252 0)
(0.00554326 -0.0496579 0)
(0.00356111 -0.0966515 0)
(-0.000166719 -0.0227684 0)
(0.000321242 -0.0875001 0)
(0.00970881 -0.0983303 0)
(-0.000250642 -0.0285302 0)
(3.25302e-06 -0.00159022 0)
(0.0038391 -0.0437735 0)
(0.00177279 -0.0799934 0)
(0.000939392 -0.0612269 0)
(0.00973448 -0.0410855 0)
(0.00585622 -0.0960482 0)
(0.00800769 -0.0830038 0)
(0.00849412 -0.027174 0)
(0.000850054 -0.0506411 0)
(-0.00180991 -0.0971923 0)
(0.0004612 -0.0295581 0)
(0.0112359 -0.103929 0)
(0.0108388 -0.0961994 0)
(-0.000654672 -0.0709576 0)
(0.0102088 -0.0951997 0)
(0.000782463 -0.00196367 0)
(-3.10473e-05 -0.00785723 0)
(0.00261946 -0.055701 0)
(-0.000136751 -0.0164312 0)
(-0.000232296 -0.0318958 0)
(0.000111745 -0.0101131 0)
(1.97879e-05 -0.000765356 0)
(0.000263108 -0.0279017 0)
(0.0105922 -0.0809579 0)
(-1.61105e-05 -0.00416795 0)
(0.000264127 -0.0271409 0)
(0.00762585 -0.0421874 0)
(0.00907755 -0.0724866 0)
(0.01182 -0.0802316 0)
(0.00291925 -0.0812002 0)
(0.00266458 -0.0757685 0)
(0.000487359 -0.0088207 0)
(0.0112771 -0.059992 0)
(0.00798212 -0.100065 0)
(0.00903876 -0.0281598 0)
(0.00786427 -0.104121 0)
(0.00526348 -0.0991124 0)
(0.0111195 -0.0748431 0)
(-2.18934e-05 -0.00564897 0)
(0.0104236 -0.0694186 0)
(0.00322382 -0.0282739 0)
(-1.50009e-06 -0.00111514 0)
(0.00261784 -0.0547209 0)
(0.011777 -0.100196 0)
(0.0116243 -0.0726848 0)
(-0.000309425 -0.0330375 0)
(0.00983595 -0.0398483 0)
(-7.83306e-05 -0.0103513 0)
(0.0036054 -0.0272313 0)
(-8.10012e-07 -0.000205965 0)
(0.00376345 -0.0553189 0)
(-0.000199625 -0.0484087 0)
(3.8834e-05 -0.0717997 0)
(-2.97435e-06 -0.000591117 0)
(0.00896769 -0.0726822 0)
(0.00233139 -0.0825109 0)
(0.0120258 -0.0816727 0)
(2.6166e-05 -0.00143626 0)
(-4.64258e-05 -0.0874105 0)
(-4.258e-06 -0.00064907 0)
(0.00151178 -0.10064 0)
(0.00537257 -0.091599 0)
(0.0116234 -0.0930181 0)
(0.0116995 -0.0649112 0)
(0.0109145 -0.0780551 0)
(0.00595214 -0.0979255 0)
(0.0118044 -0.0967075 0)
(-0.000255051 -0.0281954 0)
(0.00557259 -0.103557 0)
(1.0104e-05 -0.00266051 0)
(0.00335127 -0.0934218 0)
(-1.5454e-05 -0.00394955 0)
(0.00600525 -0.0674002 0)
(0.00977488 -0.0531099 0)
(0.00597294 -0.0450687 0)
(0.0118586 -0.093614 0)
(0.0070082 -0.0771852 0)
(0.00847962 -0.0688023 0)
(-0.000163456 -0.0223463 0)
(0.0100729 -0.0944741 0)
(-0.000293685 -0.0593913 0)
(0.00299312 -0.0124046 0)
(0.00863429 -0.0540113 0)
(0.00512199 -0.0748526 0)
(-3.37054e-05 -0.00846268 0)
(0.00230332 -0.0735289 0)
(-0.000851109 -0.0888436 0)
(-0.000552676 -0.0527279 0)
(-0.000653476 -0.0836383 0)
(0.00101638 -0.0164501 0)
(0.00916902 -0.0625336 0)
(0.000770437 -0.052654 0)
(-0.000511597 -0.056005 0)
(0.00997361 -0.101839 0)
(0.0016939 -0.0797612 0)
(-3.05233e-05 -0.00760286 0)
(0.00825792 -0.0248142 0)
(0.00176391 -0.104603 0)
(0.00684954 -0.0859438 0)
(0.00259285 -0.097221 0)
(0.0070658 -0.101283 0)
(0.000127482 -0.0484879 0)