/*--------------------------------*- C++ -*----------------------------------*\
| =========                 |                                                 |
| \\      /  F ield         | OpenFOAM: The Open Source CFD Toolbox           |
|  \\    /   O peration     | Version:  v2012                                 |
|   \\  /    A nd           | Website:  www.openfoam.com                      |
|    \\/     M anipulation  |                                                 |
\*---------------------------------------------------------------------------*/
FoamFile
{
    version     2.0;
    format      ascii;
    class       volVectorField;
    location    "950";
    object      ddtCorrDdt0(U);
}
// * * * * * * * * * * * * * * * * * * * * * * * * * * * * * * * * * * * * * //

dimensions      [0 1 -2 0 0 0 0];


internalField   nonuniform List<vector> 
13851
(
(0.00212717 -0.000181378 2.52734e-19)
(-0.0201344 0.0263386 6.33658e-18)
(0.00571139 0.0047837 6.32392e-18)
(0.00206413 -0.000218232 -6.93009e-19)
(0.00360155 0.00678268 5.47264e-18)
(0.00500687 0.00053256 -2.93213e-19)
(0.000116827 0.000854102 1.82186e-17)
(0.00372209 0.00394235 -5.5087e-18)
(0.00037163 -0.000326876 2.3747e-19)
(0.00681036 0.000708881 9.17454e-19)
(0.00996895 0.0128893 -4.10835e-20)
(-0.00419503 0.000128663 -1.78432e-19)
(-0.0137073 0.00558621 2.494e-17)
(0.00631135 -0.00536302 1.34266e-17)
(0.000294369 0.000109071 1.3889e-18)
(0.0029317 0.00207379 -3.34124e-19)
(0.00163898 0.00235195 -8.09014e-18)
(0.00329838 0.000618749 -1.70014e-18)
(-0.0191579 0.0075564 -7.76861e-18)
(0.000385428 -0.000319886 -5.19684e-20)
(0.00202499 -0.000205093 1.49687e-20)
(0.00533805 0.00508495 7.83087e-18)
(-0.000205262 -1.65556e-05 -1.34749e-20)
(0.000308637 -2.32611e-05 -2.04557e-21)
(-0.000152375 -6.52955e-06 7.6375e-21)
(0.00388484 0.00379393 -1.72616e-18)
(0.000567623 0.00264521 9.12374e-18)
(0.000312762 0.000282255 -3.32251e-17)
(0.00211525 -0.000149489 -3.59648e-19)
(0.00238107 0.00108547 8.08119e-18)
(0.0059276 0.00024944 -1.03274e-19)
(0.00170129 0.00243535 1.65323e-17)
(0.00570821 0.00456747 -3.59474e-18)
(0.00997538 -0.00747227 -1.45282e-20)
(0.000319371 -2.96279e-05 -4.83085e-19)
(-0.0104704 0.00840555 4.82115e-18)
(-0.0081348 0.00583419 2.61162e-17)
(-0.0208367 0.00931519 -1.04219e-17)
(0.00620621 0.000761962 6.02619e-18)
(0.00838523 -0.00742228 1.3565e-19)
(0.00132125 4.86006e-05 6.51716e-19)
(-0.000572196 -0.000350909 -3.77191e-20)
(-0.000329384 -0.00472996 -1.08844e-17)
(-0.016223 0.0399754 7.19939e-19)
(-0.0185831 0.0410465 -4.42416e-19)
(-0.00219819 -0.00258487 6.40717e-18)
(-0.025727 0.0419838 -1.0414e-20)
(-0.00319793 -0.00174746 3.90454e-19)
(0.000558474 0.0027042 4.02633e-19)
(-0.000165776 0.000654715 3.20558e-20)
(0.00162111 0.00755119 1.2951e-17)
(-0.0124885 0.00981427 -2.80546e-18)
(0.000556005 -0.00264173 1.02853e-17)
(0.000346808 7.10306e-05 2.08066e-18)
(0.000818453 -5.17027e-06 3.03358e-18)
(-0.000580275 -0.000375664 2.64094e-20)
(2.7901e-05 -2.97965e-05 1.2781e-20)
(0.00206484 -0.0016816 -2.6631e-17)
(0.00233521 0.00103757 -6.27611e-18)
(0.000306661 0.00098445 7.58212e-18)
(-0.0211594 0.00938696 8.24499e-18)
(-0.0101871 0.00224403 5.74361e-18)
(0.00510151 -0.00187192 2.2433e-18)
(0.0036544 0.00722124 -1.73999e-17)
(0.00322198 0.010294 -1.74729e-18)
(0.00222843 -0.000278653 5.94497e-19)
(-0.00709444 0.00537018 1.81932e-17)
(-0.0193922 0.0252184 -1.08232e-19)
(0.00102899 0.00459118 -9.68684e-19)
(0.00328843 0.000504336 1.085e-18)
(0.00611166 -8.14361e-05 -1.63608e-17)
(-0.00439152 0.00457939 9.09996e-19)
(-0.011659 0.026435 -1.53099e-17)
(0.000323901 7.11943e-05 2.48223e-18)
(0.000815694 -5.98437e-06 9.33858e-19)
(0.000423698 -0.000471494 6.36677e-19)
(0.00516148 0.00498955 5.75439e-19)
(0.00192543 0.000376926 -1.61538e-17)
(0.00254995 0.00533287 -1.34386e-17)
(0.00692389 -0.00018123 -2.6598e-17)
(0.000536221 0.00129617 -9.26986e-18)
(0.0146509 -0.0078824 6.16307e-19)
(0.000660131 0.00046212 -9.29693e-18)
(-0.00175411 -0.00293374 -2.09197e-18)
(0.00557993 -0.00163386 1.76945e-20)
(-0.00550659 -0.000779882 4.79752e-20)
(0.00408737 -0.000705457 1.78364e-19)
(-0.031424 -0.0080477 -7.74805e-19)
(0.00124998 0.00279659 7.83348e-18)
(0.000312833 -0.000218902 -1.08796e-20)
(-0.0106434 0.00858623 -1.34715e-17)
(0.000921554 -0.00122055 -5.76739e-21)
(-0.0156359 0.013112 2.80622e-19)
(0.00136987 0.00333226 2.00544e-17)
(0.00113908 0.00277721 -4.90272e-18)
(8.85857e-05 -2.0464e-05 -1.26499e-19)
(0.00354405 0.00698028 -1.65409e-18)
(-0.0055784 0.000969999 -4.23541e-18)
(-0.000224591 0.000934947 -3.21367e-20)
(9.11401e-05 -1.34631e-05 3.52997e-21)
(0.00535328 -0.00399477 -1.73422e-17)
(0.00188468 0.00598598 6.13619e-18)
(0.00192864 0.000244047 3.69317e-18)
(-0.000312227 0.00253072 -1.77487e-17)
(-0.0005574 -2.66855e-05 1.00628e-20)
(0.00398529 -0.00183486 2.83222e-19)
(0.00173494 0.00649756 6.60426e-18)
(-0.000728006 -0.000299588 3.30431e-20)
(-0.00144928 0.00362791 -1.33973e-17)
(0.00471973 0.00119531 1.60763e-19)
(0.00019952 -1.6323e-05 -6.09403e-19)
(0.000350392 -0.000209881 -7.69091e-20)
(0.00104039 -0.00118497 5.13825e-21)
(0.000200071 -5.53066e-06 -4.50628e-21)
(0.000206862 -2.28475e-05 -2.05261e-19)
(-0.00408888 0.0188277 4.34956e-18)
(-0.00625278 0.00151037 4.60842e-18)
(-0.000615451 -0.000196727 7.38483e-20)
(0.000633272 -2.11019e-05 -6.30204e-19)
(0.0008212 -1.71317e-05 3.41869e-19)
(-0.000230348 -0.00482222 -1.01766e-17)
(-0.000227099 0.00250679 1.24723e-17)
(-0.0131348 0.00537883 -1.17653e-17)
(-0.0032396 0.00261397 1.22142e-18)
(-0.00607427 0.000158031 5.34547e-19)
(0.000678697 -0.000645326 -3.37986e-20)
(-0.00647789 0.0027074 -2.78424e-21)
(0.00224701 0.00566451 1.08351e-17)
(0.00198279 -0.000237145 2.93754e-19)
(-0.0112495 0.00871845 1.5994e-17)
(0.00128898 5.01627e-05 -4.29906e-19)
(0.00060295 -0.000190373 -4.30611e-19)
(0.00588455 5.91622e-05 -2.14167e-18)
(0.000628231 0.000452147 9.77267e-18)
(-0.00142612 0.0230239 -4.78279e-18)
(0.000601022 -6.87633e-05 1.80639e-19)
(-0.000618893 -0.000178214 -2.94115e-20)
(-0.00512957 0.00479213 6.66301e-18)
(-0.00598068 0.00263215 -3.60834e-18)
(0.0109396 0.0153083 -1.25733e-17)
(0.00495453 -0.00389117 1.31086e-17)
(0.000825392 -6.71075e-06 -1.6387e-19)
(0.00061331 -0.000946022 -1.38144e-19)
(-0.000283609 -0.000492888 1.38345e-20)
(0.00161467 0.00169141 -8.3444e-19)
(-0.0212592 0.0420326 5.77559e-20)
(-0.00335923 -0.00364412 2.42896e-20)
(-0.01288 0.00893955 5.02018e-18)
(0.000137281 0.000820087 -1.08714e-17)
(-0.0111408 0.0296204 2.72549e-19)
(-0.000816118 0.00793295 2.08738e-17)
(0.000833823 -2.14519e-05 -8.41633e-19)
(0.00644195 -0.00498936 -7.17195e-18)
(1.9226e-05 -2.75206e-05 -7.79846e-19)
(0.000901989 0.0019726 -3.03875e-18)
(0.00163201 0.00163708 -6.15627e-18)
(0.000944726 -0.000346533 1.05679e-18)
(0.00203896 0.00110123 2.70983e-18)
(-0.0134843 0.00953516 1.91543e-17)
(0.00175447 0.00741006 -1.16468e-17)
(-0.000894837 -0.00065411 5.65174e-22)
(0.000658049 0.00359514 -2.66242e-17)
(0.00179042 -0.00182876 9.04304e-18)
(0.000583167 -0.000187828 -2.05294e-18)
(0.00271386 0.00154141 -2.52861e-18)
(-0.000384201 -0.00041865 7.54964e-20)
(-0.00336042 -0.00456335 -2.4455e-20)
(0.000933652 0.00470985 5.43567e-18)
(0.00194792 -0.000224968 1.6199e-18)
(-0.00459344 -0.00100184 -1.29051e-17)
(0.0021721 0.000264349 2.0129e-17)
(0.000149668 -0.000130855 5.61071e-20)
(0.000968809 -0.000338268 -6.59909e-19)
(0.0090001 0.0134321 1.07994e-17)
(0.00057291 -0.000171614 2.86209e-18)
(-0.000705411 -0.00492496 -1.24768e-18)
(0.00229214 0.00551237 -9.25664e-18)
(0.000818984 -0.000954208 3.5343e-19)
(-0.0182948 0.0071115 1.34832e-18)
(-0.000746912 -0.000371227 1.11295e-20)
(0.00187444 0.00247989 7.8523e-18)
(-0.00399134 0.00444061 -4.53485e-20)
(0.000563551 0.000422871 -1.19816e-18)
(0.00545213 0.00534506 -6.68375e-18)
(-0.000952639 -0.000134798 -4.85078e-21)
(-7.97183e-05 -1.32227e-05 1.37451e-19)
(0.00224537 -0.000268621 -8.75127e-19)
(0.000828765 -8.90847e-06 3.2054e-18)
(0.00402875 0.00702397 -2.32e-18)
(0.00239741 -0.00123975 1.55183e-18)
(-0.0229013 0.033297 3.32696e-19)
(0.000794922 -0.00251288 -8.65053e-18)
(0.000443882 -0.000225496 2.60149e-19)
(0.00150616 0.00443162 -1.96781e-18)
(-0.0112107 0.00300982 -2.24033e-17)
(0.000961284 0.00186618 9.91548e-19)
(0.000593684 -0.000893856 -1.05709e-20)
(0.000925157 -0.00442458 -5.10141e-19)
(0.000769453 -0.000929256 -6.25679e-19)
(0.000444528 -0.00048724 7.93018e-19)
(0.000723754 -0.000522119 9.27326e-21)
(-0.00415086 -0.00157468 -1.31334e-18)
(0.00057496 -9.42891e-06 2.09525e-18)
(0.00092555 0.000304082 7.12968e-20)
(0.00392691 -8.23004e-05 3.60549e-18)
(0.000568187 0.000451699 4.32024e-18)
(-0.0116637 0.0119083 -4.78892e-18)
(0.00151538 0.00251873 1.41081e-17)
(0.00286803 0.000899582 4.36281e-17)
(-0.000836564 -0.000497466 -7.98443e-21)
(-0.000906453 0.00289916 -6.26866e-18)
(0.00187179 0.000242882 2.29368e-18)
(0.00355872 -0.00918449 1.91181e-19)
(-0.00081986 -0.000334818 -3.12401e-21)
(-0.000343986 -0.000476794 -2.97128e-20)
(0.0157553 -0.0108104 -3.40874e-20)
(0.0057713 -0.000674223 1.3775e-19)
(-0.00153636 -0.00284753 -2.50459e-20)
(0.000374907 0.000210242 2.45847e-18)
(0.00257879 0.00102648 -1.24168e-17)
(0.00159136 0.0025448 -3.96378e-18)
(0.000527195 0.0013462 -2.77127e-18)
(-0.00438288 0.00265718 8.84506e-18)
(-0.00912962 0.00806315 6.59348e-18)
(0.00160919 0.00220213 -1.47355e-17)
(-7.93419e-05 -8.56798e-06 -2.45341e-20)
(0.00159552 0.00365881 -5.18881e-18)
(-0.000436916 -1.34748e-05 -7.70841e-21)
(0.00123775 -0.00331319 1.21273e-18)
(-0.000836734 -0.000360955 1.66936e-21)
(0.00381044 0.0035795 1.16311e-18)
(0.0129947 0.00671407 6.48529e-19)
(0.000143226 -0.000120688 -2.37748e-20)
(0.00039925 -0.000240124 5.00962e-20)
(0.00117734 0.00724881 -1.37758e-17)
(0.00436059 0.0020161 -4.7625e-19)
(-0.0127729 0.0113968 1.34694e-17)
(0.000223621 0.0111989 -3.62338e-18)
(-0.000303514 -0.00049624 6.32195e-20)
(0.000922311 0.000324605 -3.2701e-18)
(0.00587891 -0.000565528 6.084e-19)
(0.00359833 0.00421656 1.69658e-19)
(-0.000939312 -0.000990782 -5.46261e-21)
(0.00398943 -0.000431304 1.83033e-18)
(-0.000683624 -4.3762e-05 -1.36498e-20)
(0.00204031 0.00179589 1.41004e-18)
(0.00206784 0.00602462 8.66448e-19)
(0.00750027 -0.0120828 -4.00901e-20)
(0.00173657 0.00157992 1.38275e-18)
(0.0021592 0.00200891 -4.81382e-18)
(0.00146547 -0.00084316 -1.04642e-19)
(0.00479543 0.0051469 -2.00124e-19)
(0.00111657 0.00115721 -5.88599e-18)
(0.00171545 0.00163603 -2.91207e-18)
(0.000761457 0.0064407 2.04028e-17)
(-0.00203408 -0.00667091 -1.36707e-18)
(0.00214808 -0.000742562 -1.17358e-18)
(-0.00472486 0.00464452 1.56934e-17)
(0.00225432 -0.00337844 -1.10639e-17)
(0.000241871 0.000388612 -4.57285e-18)
(-0.00032387 -0.000472038 -1.01279e-20)
(0.00309827 0.000363327 -1.78797e-18)
(0.010227 0.00720038 -5.08385e-19)
(9.51384e-05 -0.000450289 -5.30986e-20)
(-0.017623 0.00689049 1.35665e-17)
(0.00100642 0.00184206 -2.33227e-18)
(0.00107038 0.00114192 1.33213e-18)
(0.00130287 0.00326353 -1.5009e-17)
(-0.00515717 0.00302025 1.42053e-17)
(0.00195708 -0.00211358 1.06015e-19)
(0.00147946 -0.000899368 1.58443e-19)
(0.000967695 0.00195182 -5.47366e-18)
(0.00952045 0.00392745 -8.94344e-20)
(0.00241326 0.00518433 -1.02651e-17)
(0.00288523 0.00201738 3.75647e-18)
(0.000613768 -0.000205238 1.43024e-19)
(0.0124388 -0.0118921 -7.71051e-19)
(0.00120405 -0.00524104 3.36075e-20)
(0.00257354 0.00212446 -2.10451e-17)
(0.0151939 0.00159719 5.21841e-20)
(-0.00101096 -0.000999302 8.68893e-21)
(-0.000885207 -0.000461623 -1.1784e-20)
(-0.000611427 -2.85731e-05 2.40725e-21)
(0.000715544 0.00631686 7.90462e-18)
(0.0100998 0.00539378 2.94743e-19)
(0.00833507 -0.0111964 -6.05269e-19)
(0.000431939 -0.000409467 -6.71186e-19)
(0.000150865 0.00019243 4.74688e-18)
(0.0107293 0.00275986 -7.90021e-19)
(0.0222349 -0.0202026 2.27637e-20)
(-0.0172827 0.00917649 -2.64034e-17)
(0.00224844 0.00105523 -1.28424e-18)
(0.000341879 0.0010139 -1.70413e-19)
(0.0013938 0.00481484 1.16703e-17)
(0.0227936 -0.0147444 -3.97002e-19)
(-0.0177981 0.00694269 -1.18359e-17)
(0.00259298 0.00158531 -8.31724e-19)
(-0.00629199 -0.00414024 -2.00205e-18)
(0.000641021 -0.000224964 -4.68422e-19)
(0.00164414 0.0019546 1.06644e-17)
(0.000612267 0.00353273 -2.13145e-17)
(0.00169027 0.0022726 3.48851e-18)
(0.00212124 0.00227043 7.97482e-18)
(0.00150785 0.000452865 2.3364e-18)
(0.00427728 -0.00149894 1.68366e-19)
(-0.00135616 0.00221415 8.39361e-19)
(0.000428103 -0.000390476 -3.5657e-19)
(0.000813391 0.00571567 -6.84665e-18)
(0.00149141 0.00331213 -6.92413e-18)
(0.00220034 0.00100504 2.77193e-18)
(-0.00683106 0.00288848 -1.49993e-17)
(0.00263604 0.00159135 2.79004e-18)
(0.00118294 0.00105763 -7.63276e-18)
(-0.00493227 0.00205964 2.4939e-18)
(-0.00050733 -0.000370437 -5.32507e-20)
(0.00219531 0.00206215 8.71029e-18)
(0.000939931 -0.000273716 -1.39703e-20)
(0.00194888 0.00237392 1.85627e-17)
(-0.00257026 0.00983601 1.98078e-17)
(0.000376905 0.000235182 4.89403e-18)
(0.0014933 0.00627733 5.85767e-18)
(0.000279554 0.000227451 -5.91899e-18)
(0.00161535 -0.00193335 -1.22266e-17)
(0.00155544 -0.00071768 8.98467e-20)
(-0.000172729 -1.615e-05 -5.88864e-21)
(0.00108969 -0.000489796 6.67142e-19)
(-0.00103965 0.00975069 -1.71508e-17)
(0.00151672 0.00355375 -6.59305e-18)
(0.000781124 0.00197268 -1.32345e-18)
(0.000134388 0.000174397 -5.22696e-18)
(0.00146921 0.000457495 2.54033e-18)
(0.001196 0.00101959 2.76396e-18)
(0.00111106 0.0218508 5.49769e-20)
(0.00628267 -0.00395714 2.2176e-17)
(-0.00611484 -0.000247968 -5.43582e-18)
(0.00347798 -0.000257089 1.80814e-20)
(0.00154032 0.00249654 1.06375e-17)
(-0.0176581 0.00789874 1.28167e-17)
(0.000318299 0.00010611 -5.83959e-18)
(0.00165085 0.00446217 1.52696e-17)
(-0.0184111 0.00919343 3.27557e-17)
(0.00092149 -0.00160907 -6.60787e-20)
(0.00550342 0.00274097 -5.81978e-20)
(0.0011986 0.009228 -1.54401e-17)
(-0.0191676 0.00745468 5.30853e-18)
(0.00124041 -0.000856675 -1.72345e-21)
(-0.0116513 0.0180364 1.32338e-18)
(-8.2046e-05 0.00216685 -2.60134e-17)
(0.000273644 9.10004e-05 4.51393e-18)
(-0.000528853 0.00372885 2.91889e-21)
(0.000567018 0.00443721 1.11618e-19)
(-0.0213415 0.0101854 2.14221e-19)
(0.000723859 0.00197157 3.65728e-18)
(0.00589383 0.0030586 -1.94159e-19)
(0.00147307 -0.00316926 8.20938e-19)
(0.00099565 -0.000351151 -8.60578e-19)
(-0.00884733 0.0175391 -1.12116e-18)
(0.00107318 -0.000497637 -1.19148e-18)
(0.000264442 0.000212979 3.7297e-18)
(-0.000757179 -5.8385e-05 1.21836e-20)
(-0.000743016 -0.000320395 -3.10415e-20)
(0.000899832 -0.0002948 -7.3163e-19)
(-0.000618319 0.00243067 -6.74957e-18)
(-0.0149189 0.00961695 -3.74619e-19)
(0.00103434 0.000461774 -5.99092e-18)
(0.00075376 0.00554832 3.63987e-18)
(-0.000478959 -0.000430189 2.51218e-20)
(-0.00611155 -0.00583851 2.62112e-18)
(0.00299109 0.00163974 -2.48895e-18)
(0.0117064 -0.0202539 1.71354e-18)
(-0.00522978 -0.000620245 5.65677e-18)
(0.00106953 0.000461136 3.58748e-18)
(0.00630756 -0.000779872 2.36798e-19)
(0.00168375 0.00320185 -7.82603e-18)
(0.0117214 -0.0170259 -1.21462e-18)
(0.00122207 -1.30589e-06 1.78501e-18)
(-0.000595378 -0.00020728 -5.17702e-20)
(0.00123513 -0.000713948 1.26831e-19)
(0.00566722 -0.00287643 3.74597e-18)
(0.000824354 -1.13907e-05 -2.7003e-18)
(-0.00804942 0.00436712 1.55625e-17)
(0.00082028 -0.00144886 1.40207e-19)
(-0.00752745 0.00981554 -8.82013e-18)
(-0.00405075 -0.00146951 -2.40151e-18)
(0.0020187 0.0121226 -4.78194e-20)
(-0.000447493 0.0112294 -3.56076e-19)
(0.00125554 -0.00112469 7.76907e-20)
(0.000696975 -0.000172556 -1.53891e-18)
(0.000248011 4.52686e-05 2.84458e-18)
(0.00329097 -0.000179562 -1.43071e-18)
(0.001319 0.00628814 6.98212e-18)
(0.00769614 -0.00485272 -5.31447e-19)
(0.000702141 0.00478272 -3.94954e-18)
(0.00101335 0.00245986 4.06118e-18)
(-0.000959162 0.00224871 2.21644e-17)
(-0.000458999 -0.00042117 5.43255e-20)
(0.000230582 0.000412478 -3.2019e-18)
(-0.00538727 -0.000702502 6.55109e-18)
(0.00616446 -3.90408e-05 9.35666e-18)
(0.0134409 0.00492871 -6.8759e-19)
(-0.00615628 0.00179646 2.53193e-18)
(0.00124307 -0.000652519 -7.46931e-20)
(0.00174874 0.00330675 4.82472e-18)
(2.36823e-05 -9.15647e-06 5.25919e-19)
(-0.0184592 0.00829021 6.56412e-18)
(0.000237623 -0.000219093 5.77263e-19)
(0.00291861 0.00213384 -3.01836e-18)
(0.00119052 -0.00109934 5.14712e-20)
(0.000294987 0.000785936 6.54592e-20)
(-0.000507966 -1.48471e-05 -1.07663e-21)
(0.000405046 -0.000376236 -3.71122e-19)
(-0.00040335 -0.000423674 -2.41142e-20)
(0.00356103 0.00724271 2.58942e-17)
(0.00420271 0.00298765 -1.30306e-19)
(-2.3845e-05 -0.00196477 -2.50015e-17)
(0.00333246 0.000251111 2.15084e-18)
(0.00156515 0.00645573 5.85383e-19)
(0.00256316 1.27356e-05 -1.05047e-19)
(0.00637042 0.00343042 -5.75236e-20)
(0.0023483 0.00197669 -1.87174e-18)
(-0.0209113 0.0102725 5.49501e-18)
(0.00164378 0.00220141 -2.27348e-18)
(0.0130527 -0.0141417 1.04196e-19)
(-0.000645422 -0.000173275 -3.29724e-20)
(0.000400404 -0.000358666 1.61937e-18)
(-5.05821e-05 -7.17153e-06 -1.10651e-19)
(-0.0217394 0.00943063 6.05722e-18)
(-0.00381844 0.0179356 -2.44384e-19)
(-0.00565868 0.00827553 2.88777e-17)
(0.00244853 -4.54201e-05 6.82232e-20)
(0.000370869 -0.00243534 1.63177e-17)
(0.0103489 -0.00567653 6.56771e-20)
(0.00395642 -0.00107128 -6.94834e-20)
(0.000819646 -2.0875e-05 -1.4452e-18)
(0.000995612 0.00734836 2.42235e-17)
(0.00119065 -1.19438e-06 3.44832e-18)
(0.00752501 0.00352126 -2.46053e-20)
(-0.000502936 -2.60377e-05 -1.85356e-20)
(-0.0183217 0.00959375 -6.90724e-18)
(0.00593333 0.00685402 -1.91856e-19)
(0.00558408 0.00391071 -3.38279e-18)
(0.00250578 0.000770508 9.62986e-18)
(0.000743115 -0.000967833 -7.48944e-19)
(-0.00252119 -0.00542546 -2.51796e-20)
(0.00195501 0.0117814 4.36015e-19)
(0.00432062 -0.00181675 -1.31994e-17)
(-0.000933985 -0.00015611 1.9334e-21)
(0.00190569 0.00349938 -5.45259e-18)
(0.0024894 0.00549437 2.34958e-17)
(0.00193478 -0.00278584 -9.05535e-20)
(0.000218292 -0.00017574 -3.99624e-19)
(0.00126426 0.000984388 -2.12103e-19)
(-0.000821177 0.00771442 2.88733e-17)
(-0.00883909 0.010151 -2.03952e-17)
(0.00391682 0.000212455 -3.33461e-19)
(-0.0080405 -0.0199476 1.02604e-18)
(-9.85027e-05 -1.26968e-05 2.58997e-19)
(0.00112765 -0.000512165 1.22873e-19)
(-0.000223026 -0.00419462 7.1402e-18)
(0.0027903 0.00154772 -8.97969e-19)
(-0.000892219 -0.000434125 2.46039e-22)
(-0.0305978 -0.00971075 -3.56407e-18)
(0.000682392 -0.000170889 5.5084e-19)
(0.00210836 -0.000202278 7.58497e-19)
(0.000303872 -0.000227628 -3.86395e-19)
(0.002822 0.00208131 1.19011e-19)
(0.00195884 0.000955576 3.46691e-18)
(-0.000848367 -0.000470575 1.95705e-20)
(0.000695364 -0.000943599 1.21339e-18)
(-0.00577594 0.00241695 -5.95034e-18)
(0.00067349 0.000494196 8.96249e-19)
(0.000889658 0.0049978 1.5027e-17)
(0.000612878 -7.74885e-05 3.70312e-19)
(0.00230116 -0.00130314 -3.43138e-20)
(0.00174765 -0.0106492 -6.22737e-20)
(0.000215326 -2.41097e-06 8.61601e-19)
(0.00129902 -0.000136751 1.88862e-18)
(0.000298539 -1.01729e-05 1.02999e-19)
(0.00028026 -1.00268e-05 4.89151e-19)
(-0.000621183 -0.00789046 8.3605e-19)
(0.000985062 0.00115898 1.0743e-17)
(0.0045532 -0.000478315 -4.32218e-19)
(0.000532787 0.000408883 -2.76824e-18)
(2.25679e-06 -1.48282e-05 -4.67917e-19)
(0.00432753 -0.0048115 1.10414e-18)
(0.00276936 0.000656279 8.27311e-18)
(0.000545993 0.000499839 1.13045e-17)
(0.00229632 -0.00144712 1.09262e-20)
(0.00235177 0.00204718 -1.47027e-18)
(0.00179386 0.00516796 7.13274e-20)
(-0.00179003 -0.00286368 -5.23512e-18)
(0.00114684 -0.000500442 -6.26165e-19)
(-0.016999 0.0174004 2.48533e-19)
(0.00123885 2.34592e-05 1.05047e-18)
(0.00422062 0.00636549 8.02718e-18)
(0.000353306 0.000879708 -2.28462e-19)
(0.00116454 -0.00363564 1.65668e-17)
(-0.000699291 -0.000128828 1.96991e-20)
(0.000406126 -0.00289461 -1.56103e-17)
(0.00126195 -0.000182751 3.96202e-19)
(-0.000547252 -0.00035027 1.77244e-20)
(0.0020995 -0.00152222 1.47877e-20)
(-0.00434795 -0.000397464 -7.43187e-18)
(0.00401265 0.00343844 -8.04393e-19)
(0.0160795 -0.0337622 1.42186e-19)
(0.00067971 -2.79471e-05 8.28902e-19)
(-0.0127145 0.0136169 -3.27959e-19)
(0.000806269 -6.38709e-06 2.06675e-18)
(0.000490973 -0.000170438 6.51533e-19)
(0.000613624 -0.000237381 -4.66796e-19)
(0.00016458 0.000740612 -6.29264e-19)
(0.00582042 0.000214268 -2.42041e-17)
(0.00179179 0.00704642 -3.90775e-17)
(-0.0112055 0.00969171 -2.89112e-18)
(-0.0164438 0.00690714 -1.56006e-17)
(0.00546618 -0.000991201 2.19785e-19)
(-0.000871536 -0.000685292 -7.96389e-22)
(-0.0132024 0.00495806 -2.8011e-18)
(-0.00466189 0.0184048 3.6979e-19)
(0.00183846 0.00256482 -6.28359e-18)
(0.000751197 0.00361776 1.72836e-17)
(0.00104954 0.00382477 -2.30926e-19)
(-0.00759901 0.00570165 1.14253e-20)
(-0.00157682 0.00318751 -1.45685e-17)
(0.000398144 4.98838e-05 2.05725e-18)
(0.00129296 -0.0035691 -1.75696e-17)
(-0.00233147 -0.00253948 -4.07836e-18)
(-0.00340977 -0.00192221 -9.94279e-18)
(0.00268646 0.00159068 2.34708e-18)
(0.00207142 -0.00165305 -6.08939e-20)
(0.000595464 -0.0102536 -8.71886e-19)
(-0.001346 -0.0060961 2.34752e-20)
(-0.00293527 -0.00525739 2.52667e-19)
(0.00292074 -0.00709257 3.51208e-19)
(-0.0164096 0.010829 5.85699e-18)
(0.00210647 0.00108263 -1.11979e-18)
(-0.0164111 0.011327 -7.86006e-18)
(-0.00576911 0.00483038 -2.02551e-17)
(-0.000687304 -0.000148503 -1.91569e-20)
(7.43332e-05 -0.00496011 1.0124e-19)
(0.00166952 0.00719645 2.99714e-17)
(0.00297245 0.00039098 1.13229e-17)
(0.00181499 0.00157538 -1.08676e-18)
(0.000751384 0.000258539 5.82137e-18)
(0.000921504 -0.000331935 -2.37702e-18)
(0.00115362 0.000200264 3.15319e-18)
(0.00390823 0.00696957 2.72489e-18)
(0.00363078 0.00208479 1.32844e-19)
(-0.033568 -0.00485491 4.43444e-18)
(-0.0084901 -0.0217074 3.38532e-18)
(0.000427933 -7.58699e-05 -2.08063e-19)
(-0.000268008 -0.00434745 -1.55521e-17)
(0.00133767 0.000749215 2.18974e-17)
(0.00479218 -0.00327322 -2.55903e-19)
(-0.0032551 0.0184756 4.63737e-19)
(0.00099892 0.00488402 1.80409e-17)
(-0.000903776 -0.000374462 -6.77449e-21)
(0.000378817 -0.000345625 -1.71729e-19)
(-0.00147318 -0.00988618 1.35738e-19)
(-0.0120022 0.0043081 -6.53324e-19)
(0.000882989 0.00203989 -2.87777e-18)
(-0.000191493 0.00868828 -1.79912e-17)
(-0.011407 0.00881681 6.20827e-19)
(-0.000606262 -0.000376901 -2.30229e-20)
(0.00275735 0.000317318 -2.67939e-19)
(-0.0106593 0.00725067 2.77941e-19)
(-0.0213161 0.00993695 -3.17612e-18)
(0.00288754 0.00819842 -4.84162e-18)
(0.00562474 0.000317094 1.95524e-17)
(-0.00528907 0.00471788 -8.28571e-18)
(0.00127209 2.38871e-05 1.4065e-19)
(0.000258663 0.000797525 2.74786e-18)
(-0.0220441 -0.0119859 5.50078e-18)
(-0.00087203 0.00211798 -2.12339e-17)
(-0.00818269 0.0100778 7.08864e-18)
(0.000554834 0.00474619 -1.03215e-17)
(0.00499612 -0.00262202 -1.73789e-18)
(-0.000730389 -0.000347641 -2.011e-20)
(0.000942047 9.15488e-05 1.30934e-18)
(-0.0181668 0.0102895 -2.53055e-18)
(-0.000623295 -0.000350398 -7.45158e-21)
(0.00183118 0.00151877 4.19975e-19)
(-0.000776254 -0.000366854 -2.84763e-21)
(0.000711214 -0.000103845 -4.63244e-19)
(-0.00540917 0.00468201 1.84768e-17)
(0.00367899 0.00708321 -1.06679e-17)
(0.00243704 -0.000168618 -2.54273e-20)
(-0.000648214 -0.000353656 5.93242e-20)
(-0.00908847 0.00471539 -2.83042e-18)
(-0.00136604 -0.00115765 2.02645e-19)
(0.000681727 -0.000215244 1.14229e-18)
(-3.01622e-05 -3.01706e-05 1.79777e-19)
(0.000126218 -0.000422354 2.83023e-20)
(0.000273015 6.07846e-05 -4.54579e-18)
(0.00543616 -0.00260191 1.04638e-17)
(0.00612316 -0.0113928 3.75595e-20)
(0.00521716 -0.0117181 -6.41385e-20)
(-0.00316571 -0.00198869 -6.89567e-18)
(-0.0122078 0.0153827 -2.27083e-19)
(0.0004655 0.0045236 8.82213e-18)
(0.0031947 0.000231306 4.54167e-18)
(0.00314582 0.000695848 5.8721e-18)
(0.00122544 -0.000871358 -6.38013e-21)
(0.00117952 0.00462198 -1.58253e-17)
(-0.000923335 -0.000384407 5.52372e-21)
(0.000946287 -0.000456636 -2.73958e-20)
(0.00310507 0.00238095 -2.25879e-18)
(-0.00769863 0.00313019 -7.86307e-18)
(-0.0033101 0.0112226 5.32136e-20)
(-1.4378e-05 0.00856703 5.96367e-18)
(0.00213361 0.00301237 9.96594e-18)
(0.000357093 -0.000289745 -2.72641e-19)
(0.00286112 0.00189193 -5.50889e-18)
(0.000396525 -0.000809088 -2.93299e-19)
(0.0183697 -0.0308838 -4.10853e-20)
(0.0022861 0.00728351 8.9206e-18)
(0.000529983 0.000378902 5.27893e-18)
(0.00364591 -0.000143477 -3.96166e-19)
(0.000225825 -0.000171259 6.19445e-19)
(0.00111096 0.00329091 1.19312e-17)
(-0.00903184 0.0085172 -2.78525e-17)
(0.000313897 0.000946911 -2.16031e-17)
(0.00117548 -2.29405e-05 2.63366e-18)
(0.00306891 0.00163879 -5.14287e-18)
(0.000675557 0.000922978 3.40535e-18)
(0.00381267 0.00677515 1.25059e-17)
(-0.0217815 0.00963924 -1.35937e-17)
(-0.0028149 0.0084199 1.84654e-17)
(0.00283074 0.00179163 -3.58385e-18)
(-0.0103681 0.0100259 -1.58095e-17)
(0.000351402 -0.000275138 7.57101e-19)
(0.0104516 0.00290154 1.36418e-18)
(0.00149007 -0.000777834 5.68535e-20)
(-0.00238173 -0.00235716 -1.98621e-18)
(0.00183326 0.00028124 2.0196e-19)
(0.000118811 -1.92366e-05 -2.79595e-19)
(-0.00215339 0.00384992 2.11508e-17)
(0.00238074 0.000615513 -4.3778e-19)
(-0.00362022 -0.00172758 -6.94464e-18)
(0.000748899 0.001977 2.74371e-17)
(-0.000453285 -0.0032099 3.28986e-17)
(-0.0314891 -0.00827676 5.30002e-19)
(0.000245173 -0.000214743 -6.39261e-19)
(-0.00348607 0.00429183 -1.09462e-17)
(-0.00105758 -0.00108029 -1.5707e-21)
(0.000706728 -0.000129698 7.07953e-20)
(-0.000728102 -0.000123767 -1.00165e-20)
(0.000723417 -0.000114891 1.35353e-18)
(-0.00193976 -0.00173817 4.10749e-22)
(0.003392 9.62876e-05 -2.13288e-18)
(0.00291484 0.00201987 -2.84246e-18)
(-0.000665529 -0.000328139 -2.71174e-20)
(-0.018039 0.00967213 -1.70064e-18)
(0.0015742 -0.000772581 -3.40028e-19)
(-0.0173533 0.00914666 -3.83334e-18)
(0.00083136 -0.000344508 1.79276e-19)
(-0.000798531 -0.00010843 -5.75046e-21)
(-0.000282854 -3.15867e-05 -7.57072e-20)
(-0.0167949 0.00930516 -2.0348e-17)
(-0.0123818 0.00406794 1.625e-18)
(2.88055e-05 0.00662866 -1.71901e-17)
(0.00119156 0.00332487 -4.369e-18)
(-0.00102484 -0.00115351 3.7889e-21)
(1.9664e-05 -1.34787e-05 -1.44662e-19)
(0.000432899 -4.44483e-05 6.74839e-21)
(0.000973883 -0.000401528 -5.00702e-19)
(-0.0131989 0.0073097 1.13473e-17)
(0.00346064 0.0144338 4.08317e-18)
(0.00066835 0.000887899 -8.71964e-19)
(-0.000688144 -0.000328735 9.23528e-21)
(0.000128091 0.000744997 9.49434e-19)
(0.000972912 -0.000383567 1.13682e-18)
(-0.0193681 0.00815238 -2.39894e-18)
(0.00118232 -0.00205409 -2.56818e-17)
(0.00291236 0.00193377 1.019e-18)
(-0.00584446 0.000600763 -5.05375e-18)
(-0.0124904 0.0119061 7.46784e-20)
(0.00114785 -2.26992e-05 -3.24762e-18)
(-0.0084032 0.00947113 1.40125e-17)
(0.00510127 -0.00247609 1.92007e-17)
(0.00124288 0.00478339 3.03229e-18)
(-0.00427862 0.00295783 1.09788e-18)
(0.00058372 0.00127257 -4.53214e-18)
(0.00314155 0.000466274 -8.01751e-19)
(0.000120319 0.00655237 2.82342e-17)
(0.00316765 0.000246327 2.1358e-18)
(0.00224143 -0.00672732 4.39611e-20)
(0.000541846 0.000468599 -9.92054e-19)
(-0.00196355 -0.00520535 -9.91421e-20)
(-0.000501892 -2.06226e-05 4.28139e-20)
(-0.000564289 0.00423086 1.62099e-17)
(0.00223404 0.000978836 1.88727e-17)
(0.000357038 -0.000476827 -4.04078e-20)
(0.00220758 0.000439998 -1.45289e-18)
(0.00439606 -0.00268701 -1.97244e-19)
(0.000499906 -0.000187696 9.90736e-19)
(0.00180913 0.00241191 -3.8886e-18)
(0.0135728 0.00294419 -5.14891e-19)
(0.00873449 0.00496274 -7.20449e-18)
(0.00238727 0.00712017 -2.43902e-18)
(-0.0190013 0.00741149 -1.12776e-18)
(0.000962812 0.0169086 2.9559e-19)
(-0.000789324 -0.000338291 3.37369e-23)
(0.000812381 -0.000326851 -1.0973e-18)
(0.00332335 -0.00455245 1.2011e-19)
(-0.0113947 0.00904836 -4.09307e-18)
(0.00445844 0.002333 1.40229e-19)
(0.000329067 0.00212435 -1.93157e-17)
(0.000202971 -0.000254789 5.01145e-19)
(0.000135666 2.18631e-05 7.17064e-18)
(-0.000657329 -0.000152424 2.08983e-20)
(-0.0110501 0.0150348 2.90874e-19)
(-0.00831455 0.00573175 3.49948e-17)
(0.00244956 0.00149272 -7.84527e-18)
(0.00172008 -6.48236e-05 -1.74059e-18)
(0.00448047 -0.0106516 1.24029e-19)
(0.000836308 0.00263015 -1.73244e-17)
(-0.000303293 -3.51273e-05 3.09139e-20)
(-0.000631741 -0.00397825 -1.0836e-18)
(-0.00209439 -0.00797579 1.33337e-18)
(-0.000247279 0.000838567 -4.96082e-18)
(-0.000530696 -0.000373277 7.81951e-20)
(0.000626393 0.000875864 3.67787e-18)
(0.00270724 0.000283061 -8.6181e-18)
(0.000702271 -0.00100032 1.23989e-18)
(-0.0112848 0.00894153 -5.79656e-18)
(0.000399703 -0.000766781 1.9228e-19)
(-0.00262512 0.00391421 8.05964e-18)
(0.00060286 0.000471436 -4.17128e-18)
(0.0100235 -0.0120582 9.39519e-21)
(-0.00660135 0.00796383 1.58754e-17)
(0.00591294 0.00399015 -1.05321e-17)
(0.00201758 0.00197458 2.51495e-18)
(-0.00104781 -0.00303685 3.7426e-18)
(0.00137017 -0.00105229 -4.36448e-19)
(0.000223632 -0.000638055 -2.97376e-19)
(-0.0088832 0.0061722 2.05308e-17)
(0.000127155 -2.29272e-05 -4.6077e-19)
(0.000385078 -3.88561e-06 1.97093e-19)
(0.00201044 0.000996091 3.91605e-18)
(0.000332287 -0.000265069 -1.61933e-18)
(-0.000688309 -0.0038617 -5.8536e-18)
(0.00282413 0.00262988 7.98292e-18)
(0.000966843 0.00896481 -2.38158e-18)
(0.00236725 -0.000193009 -1.06495e-19)
(0.00185906 -0.00644148 -1.45414e-19)
(0.000377908 -0.0003016 1.23753e-18)
(0.012725 0.00503822 6.99195e-19)
(0.000517282 -2.7748e-05 -1.04546e-18)
(0.00135217 -0.00110736 -1.16731e-19)
(-0.000727842 -0.000101945 -1.20594e-20)
(0.00110818 -4.03971e-05 -1.05141e-18)
(0.000811407 -3.10813e-05 1.09958e-18)
(-0.00118049 0.00203664 -7.47773e-18)
(0.00092076 -0.00030938 8.46746e-19)
(-0.00053733 -0.000240214 1.96627e-20)
(-0.00378085 0.000808994 1.07287e-18)
(0.000251915 0.00083792 -1.37612e-17)
(0.00242947 0.000455269 -4.33341e-18)
(-0.000343051 -1.54555e-05 6.75099e-20)
(0.000510451 -0.000881854 4.13089e-19)
(0.000679069 0.00760225 -9.6458e-18)
(-0.0184804 0.00777376 6.29142e-18)
(-0.00994066 0.000562258 -5.52654e-20)
(0.000358952 -6.0515e-05 -7.03529e-19)
(0.00691694 0.00265617 -1.15913e-18)
(-0.00672522 0.00114632 5.91612e-18)
(0.00103578 0.00117638 -9.1177e-18)
(-0.00274916 0.00293129 2.13588e-18)
(-0.000479312 0.00416004 -1.879e-17)
(0.000309489 -0.000242331 1.88604e-18)
(-0.000179003 -0.000559725 -9.74951e-20)
(-0.000400247 -0.00445907 8.01647e-18)
(0.00635161 0.00179755 1.6626e-18)
(0.00229375 0.00186699 3.52275e-18)