/*--------------------------------*- C++ -*----------------------------------*\
| =========                 |                                                 |
| \\      /  F ield         | OpenFOAM: The Open Source CFD Toolbox           |
|  \\    /   O peration     | Version:  v2012                                 |
|   \\  /    A nd           | Website:  www.openfoam.com                      |
|    \\/     M anipulation  |                                                 |
\*---------------------------------------------------------------------------*/
FoamFile
{
    version     2.0;
    format      ascii;
    class       volScalarField;
    location    "950";
    object      k;
}
// * * * * * * * * * * * * * * * * * * * * * * * * * * * * * * * * * * * * * //

dimensions      [0 2 -2 0 0 0 0];


internalField   nonuniform List<scalar> 
13851
(
0.000168453
0.0310159
0.000223589
0.000167174
0.000223987
0.000197335
0.000152309
0.000201295
0.000143262
0.000233767
0.00108268
0.0531111
0.0743819
0.0305161
0.000145332
0.000189577
0.000170599
0.000182174
0.0658749
0.000143049
0.000166463
0.000222937
0.00015405
0.000153571
0.000159128
0.000201915
0.000166665
0.00247717
0.000167934
0.000170568
0.000199456
0.000171692
0.000222134
0.00531348
0.000152061
0.0478979
0.0833911
0.036672
0.000263231
0.00520707
0.000154405
0.00013167
0.00904341
0.00247462
0.0021675
0.0244913
0.00361815
0.0032954
0.000167424
0.000167581
0.000217127
0.0121854
0.00850244
0.000148036
0.000159722
0.000131722
0.000144042
0.0112622
0.000169721
0.000153452
0.0385463
0.0454325
0.000206935
0.000236984
0.00022537
0.000173344
0.0849241
0.00493523
0.000186453
0.000181862
0.0216216
0.0856385
0.0285974
0.000149345
0.00014374
0.000147647
0.000220646
0.0267367
0.000200112
0.0217836
0.000156032
0.00352378
0.000148877
0.021705
0.000207686
0.0553162
0.000191494
0.045927
0.00017123
0.000142512
0.0446495
0.000178659
0.00539007
0.000176656
0.0001705
0.000153727
0.000225222
0.0515334
0.000168964
0.000157026
0.0197716
0.00020176
0.000162397
0.000164197
0.000151268
0.000191858
0.000204938
0.000130925
0.0829155
0.000197914
0.000157027
0.000142908
0.000177342
0.000163487
0.000154471
0.0145914
0.0554894
0.000131165
0.000157932
0.000162827
0.00803567
0.000163926
0.0736399
0.0100089
0.00158351
0.00014253
0.00112448
0.000201004
0.000165564
0.00932198
0.000154083
0.000142
0.0265855
0.0001485
0.0142572
0.000143725
0.000131245
0.0853193
0.0339843
0.045473
0.0191026
0.000160193
0.000157863
0.000134886
0.000165339
0.00302483
0.000161682
0.00905431
0.000152119
0.00168263
0.000216458
0.000159064
0.0304945
0.000143647
0.000162533
0.000165105
0.000150391
0.000166026
0.0122511
0.000216881
0.00013236
0.000175393
0.0108905
0.000141789
0.000180416
0.000133191
0.000161683
0.000186909
0.000164972
0.0343428
0.0229068
0.000137889
0.000150609
0.0445185
0.000141442
0.00424362
0.00019993
0.000158648
0.0689444
0.000131051
0.00017398
0.085111
0.000147636
0.000224963
0.000131384
0.000151609
0.000173864
0.000153981
0.00023397
0.000229169
0.00428679
0.00964348
0.000143764
0.000187262
0.0480175
0.000161971
0.000156911
0.00576154
0.000157838
0.00014799
0.000142634
0.0302246
0.000162597
0.000149094
0.000221189
0.000148108
0.0492374
0.000170761
0.0428628
0.000131367
0.0696648
0.000161754
0.00926966
0.000130736
0.000134066
0.000471434
0.000206393
0.0231311
0.000144804
0.044926
0.000171388
0.000156369
0.0670935
0.007585
0.0646939
0.000157867
0.000180826
0.000156302
0.0124947
0.000130761
0.000201206
0.000244067
0.000137772
0.000143343
0.000210826
0.000200547
0.0515331
0.000114767
0.000134684
0.000149334
0.00019878
0.000252223
0.000136208
0.000225702
0.000141985
0.0586006
0.00020278
0.0090089
0.000165721
0.000174284
0.000169906
0.000334403
0.000157707
0.000165928
0.000201294
0.000245974
0.000227548
0.084932
0.0124726
0.000146869
0.000134259
0.000179754
0.00103843
0.000138359
0.0696494
0.000161949
0.000157351
0.000175444
0.0696206
0.000153957
0.000169728
0.000162601
0.000223816
0.000197981
0.000188425
0.000142306
0.00351068
0.000179975
0.0681116
0.00089708
0.000136633
0.00013108
0.000149849
0.000199746
0.00110169
0.00657955
0.000145839
0.000145369
0.000217292
0.00362278
0.0205066
0.00016849
0.000153682
0.000189638
0.00363703
0.0697657
0.00017882
0.0549941
0.000142881
0.0603778
0.000174457
0.000170396
0.0683885
0.000157291
0.000192714
0.0617872
0.000145349
0.000194876
0.000176995
0.00016761
0.0357889
0.000179282
0.0001575
0.0631714
0.000132102
0.000174893
0.000143608
0.0711645
0.000966031
0.000145036
0.000202402
0.00014517
0.0209512
0.000172737
0.000151128
0.000154024
0.000902978
0.000179392
0.000161851
0.00014534
0.000157043
0.000157279
0.00149927
0.0294173
0.0383331
0.000187387
0.0714213
0.0619862
0.000144817
0.000188341
0.0223458
0.000181858
0.000208201
6.8963e-05
0.0670752
0.000168324
0.0091756
0.0611182
0.00014562
0.000173019
0.00017257
0.046424
0.000161764
0.000209655
0.012826
0.000151314
0.00977303
0.000153895
0.000145107
0.000139958
0.000130911
0.000148553
0.0642081
0.00636184
0.000152832
0.000193691
0.000132561
0.0523889
0.000198049
0.0113096
0.0368146
0.000153175
0.000209717
0.000177573
0.0107414
0.000153037
0.000131288
0.000172995
0.0197272
0.000148749
0.0379779
0.000181827
0.00442151
0.0309789
0.000540533
0.000563511
0.000166261
0.000142671
0.000154353
0.000184955
0.000201747
0.0334892
0.000186531
0.0678303
0.0618308
0.000132676
0.000147139
0.035822
0.0263741
0.000224425
0.0585406
0.000173542
0.000179047
0.000156862
0.0632717
0.000140062
0.000188528
0.000165442
0.000152027
0.000153084
0.000144807
0.000133065
0.000235612
0.000206515
0.0271503
0.000182963
0.000204471
0.000184809
0.000290327
0.00017704
0.0490086
0.000169497
0.000406131
0.00013115
0.000144323
0.000156031
0.0504564
0.00722154
0.00481158
0.000184283
0.0225909
0.00459083
0.000190531
0.000166419
0.000211544
0.000152448
0.000377639
0.000150297
0.0535746
0.00233558
0.000218427
0.0394326
0.000158576
0.000170217
0.0032834
0.023045
0.000130745
0.00018177
0.000200964
0.000156413
0.00013904
0.000157576
0.000212273
0.00353332
0.000190048
0.0373635
0.000154688
0.000154741
0.0132023
0.000182143
0.000130922
0.0473404
0.000142549
0.000168419
0.00014048
0.000199531
0.000164283
0.000131186
0.000157925
0.0651133
0.000149389
0.000189108
0.000143079
0.000177848
0.000221535
0.000163831
0.000154395
0.000163336
0.000164364
0.00209737
0.000156972
0.000194103
0.000147199
0.000152702
0.0224884
0.0370324
0.00014887
0.000178627
0.00017709
0.000299441
0.0222126
0.000154912
0.00604239
0.000153289
0.000223839
0.000152791
0.0155579
0.000131555
0.00815909
0.000225887
0.000131796
0.000178592
0.0403773
0.000202151
0.00725237
0.00015659
0.00724031
0.000164625
0.000140749
0.000142804
0.00015155
0.0328506
0.000211807
0.0113718
0.0712035
0.000205873
0.000132675
0.0673928
0.00621637
0.000174132
0.000176063
0.000197315
0.00965422
0.0725087
0.000158237
0.0160827
0.0241637
0.0285522
0.000180972
0.000179354
0.0105596
0.000180403
0.000234363
0.00801444
0.0593326
0.000166854
0.0602065
0.0821117
0.000131167
0.000176471
0.000212658
0.0301649
0.000166521
0.000146076
0.000149681
0.000152369
0.000233539
0.000197808
0.0412924
0.0367319
0.000142089
0.012032
0.0389757
0.000198486
0.00551309
0.000188709
0.000130669
0.00014382
0.000456747
0.0660071
0.000162892
0.000233073
0.0444458
0.00013161
0.000188754
0.00769752
0.0374843
0.000374859
0.0347944
0.0826183
0.000153782
0.000152033
0.0361293
0.0603153
0.00717753
0.000186118
0.000209286
0.000131018
0.000146418
0.0560982
0.000131426
0.000166303
0.000130952
0.000141969
0.0812964
0.000233879
0.000181326
0.00013134
0.0403719
0.00566691
0.000143198
0.000141606
0.000138693
0.000153182
0.0184538
0.00915477
0.00929173
0.0284071
0.00764945
0.000183694
0.0244249
0.0386835
0.000169314
0.000187265
0.000130651
0.00014362
0.000191394
0.0680283
0.00457608
0.000231622
0.000180195
0.000142074
0.000189381
0.000156204
0.00736627
0.000217611
0.000146827
0.000188452
0.000139014
0.000174592
0.00645059
0.00015312
0.00015218
0.000197923
0.000154026
0.000224585
0.0448367
0.00307643
0.000190358
0.0126769
0.000141718
0.000220258
0.000171553
0.0268946
0.00016122
0.000152601
0.0838187
0.000168908
0.0291495
0.0590839
0.020534
0.0463105
0.000139962
0.0853469
0.000137992
0.000142183
0.00013149
0.000142167
0.000151367
0.00018433
0.000197148
0.000131195
0.0607549
0.000227044
0.0597791
0.000148373
0.000132191
0.000142326
0.017845
0.0498978
0.000201183
0.000175288
0.000137969
0.000153739
0.000147722
0.000151499
0.0724043
0.0406693
0.000153725
0.000131118
0.000151555
0.000151359
0.0426752
0.0100886
0.000190058
0.0470352
0.00775517
0.000151543
0.00843024
0.0220084
0.000188963
0.0536246
0.000156047
0.000180082
0.000200573
0.000180836
0.00853285
0.000148354
0.0104225
0.000150761
0.000178998
0.0435891
0.000148135
0.000166412
0.00020819
0.000141078
0.000172555
0.000322221
0.041527
0.000216688
0.0678284
0.000963772
0.000130833
0.000147613
0.0224894
0.0405771
0.000203122
0.0607719
0.000141538
0.000177058
0.000131273
0.00714349
0.0831183
0.000174934
0.000160143
0.000250028
0.000167691
0.000141237
0.0139691
0.000270737
0.0473911
0.000131969
0.000153492
0.0255816
0.00643087
0.0322094
0.000155312
0.0798723
0.000148676
0.000332747
0.00375732
0.000222187
0.000171919
0.021477
0.000167774
0.000156482
0.0815158
0.000153205
0.000162673
0.00016507
0.000141343
0.015097
0.000186806
0.000375501
0.000181087
0.000194278
0.000142537
0.000377875
0.000154435
0.000167688
0.000132946
0.000150605
0.000149312
0.0598512
0.000149268
0.00013155
0.000239925
0.000152326
0.0313775
0.00015533
0.000156948
0.000213852
0.0461847
0.00594566
0.00014312
0.000205476
0.0499883
0.000157339
0.0688082
0.000178502
0.000140751
0.000164867
0.0109326
0.000203107
0.000175138
0.000143306
0.000131005
0.00400942
0.000229647
0.00021208
0.000177716
0.000164829
0.000154711
0.000156242
0.000231012
0.00653529
0.000233882
0.00366313
0.00015321
0.000224762
0.000228461
0.0727525
0.000174615
0.0429272
0.0690118
0.000152345
0.0253483
0.000219126
0.0521101
0.0415151
0.0588251
0.00094153
0.000198547
0.000141037
0.000183889
0.0120906
0.0230727
0.000153009
0.000155882
0.000212399
0.00363765
0.000131939
0.00820897
0.000141062
0.000152349
0.0145138
0.0258095
0.00127997
0.000142184
0.000145179
0.00739252
0.0691848
0.000577984
0.000165596
0.0420583
0.0357911
0.0528337
0.000204804
0.000193396
0.000157729
0.000152543
0.027001
0.000197832
0.0257241
0.000174118
0.000186073
0.016815
0.0500101
0.0347311
0.000150297
0.000180988
0.000142987
0.000191106
0.000166107
0.0488738
0.000177445
0.0483983
0.000131902
0.000213236
0.000148804
0.0195447
0.000184663
0.000180578
0.047975
0.000194461
0.000201484
0.000154699
0.000213256
0.00694682
0.000212634
0.000166871
0.0220006
0.000137855
0.0406746
0.00401096
0.000155817
0.0678294
0.0200843
0.0339935
0.000777347
0.000172985
0.000153021
0.0452491
0.000179348
0.0157175
0.0430721
0.00014828
0.000160238
0.0481157
0.00674985
0.0397925
0.00015398
0.00013999
0.028819
0.042952
0.000105841
0.000173804
0.000163582
0.0037167
0.0167905
0.000231463
0.000131598
0.000199059
0.000141142
0.000160691
0.000244849
0.000158905
0.0568052
0.000325963
0.000152668
0.000158585
0.000153316
0.000165211
0.0240202
0.0392494
0.0001809
0.0429576
0.000148424
0.000181206
0.000152493
0.000141359
0.000156169
0.000152595
0.0322682
0.000149233
0.000201057
0.000150678
0.000175346
0.00027046
0.00601408
0.000156532
0.0387319
0.000213785
0.0747851
0.000187838
0.000187809
0.0212493
0.000174446
0.000198727
0.0493418
0.00628197
0.00937956
0.000196452
0.00138503
0.000160455
0.00019317
0.000202435
0.0401078
0.000145882
0.0402214
0.000147264
0.000148674
0.0335492
0.000142333
0.0718053
0.000172749
0.000143079
0.000187662
0.000143152
0.000145251
0.00014036
0.00015562
0.0780188
0.000148593
0.0681187
0.0156799
0.000215875
0.0391476
0.000152264
0.000156244
0.000144425
0.000152721
0.000142553
0.000222996
0.00015517
0.000147141
0.000160517
0.000156545
0.0324029
0.0413589
0.000210804
0.0569038
0.0745793
0.00014656
0.000311716
0.000179766
0.000148208
0.00526378
0.000194006
0.00162107
0.000144368
0.00313717
0.00654734
0.014959
0.000138129
0.0732674
0.000185317
0.00016667
0.000141458
0.000141619
0.0595442
0.000219262
0.00359554
0.000147539
0.000147804
0.000620057
0.000155872
0.0471021
0.00205712
0.0325646
0.0701242
0.00731439
0.000152308
0.000152899
0.000209033
0.000178089
0.000164613
0.0110718
0.000197887
0.000155434
0.000162937
0.0445747
0.000147348
0.0315824
0.0767343
0.0156624
0.0533182
0.000157258
0.000136153
0.000159128
0.0067596
0.00182951
0.000138124
0.000164362
0.00014721
0.000221456
0.000132638
0.000146627
0.000156754
0.000186116
0.0820077
0.000199674
0.000188058
0.000149643
0.0001997
0.0683866
0.000157229
0.0267445
0.0616789
0.000223944
0.000133814
0.000195428
0.000146247
0.000150266
0.000158552
0.0264109
0.000774209
0.00770047
0.000164709
0.000286063
0.000146648
0.000153453
0.000157734
0.000240552
0.000491426
0.000132055
0.000185586
0.000207558
0.0365046
0.000163576
0.0370413
0.000150894
0.0456289
0.000224736
0.0728337
0.000232582
0.00022326
0.0478609
0.0409565
0.00818882
0.0322137
0.000143432
0.00347533
0.000132509
0.000167097
0.000171654
0.00015489
0.0403957
0.00018257
0.000176779
0.00182004
0.0391292
0.00143938
0.000145045
0.00016517
0.000176203
0.000136912
0.000185714
0.0300258
0.00880419
0.026788
0.000142951
0.000174458
0.000166749
0.00971622
0.062454
0.000208834
0.00013595
0.000154544
0.0169618
0.000201419
0.0588592
0.061176
0.000176842
0.000133616
0.0806744
0.00018466
0.000197661
0.000178775
0.0686957
0.00702934
0.00252511
0.000221
0.000162834
0.000176478
0.000152105
0.00935213
0.000203708
0.0384836
0.000228663
0.000171419
0.0267413
0.000162144
0.0700877
0.0704473
0.000144196
0.00797393
0.0457612
0.0139055
0.0827814
0.00014994
0.00015344
0.0246236
0.0676601
0.0159024
0.000162805
0.000151805
0.000152915
0.0321858
0.0263789
0.000155594
0.000196428
0.000231394
0.0552441
0.0800511
0.00975613
0.000147213
0.080727
0.000168858
0.000154205
0.0237985
0.0475245
0.00015244
0.00014732
0.00518308
0.0702214
0.000141972
0.000142936
0.0425358
0.000140677
0.00107752
0.000142887
0.00704723
0.00015362
0.00020163
0.0252514
0.0647767
0.000160668
0.0132312
0.000416744
0.0608113
0.0726711
0.0460858
0.000176328
0.00014675
0.0600056
0.00016312
0.000145211
0.000136679
0.00154914
0.000151278
0.0823996
0.000147644
0.000157099
0.0252898
0.000217262
0.0539382
0.000163495
0.000145953
0.000142486
0.000184316
0.0832251
0.0218631
0.000143358
0.000213062
0.00345769
0.000157506
0.000141904
0.0448718
0.0001877
0.000192556
0.00997697
0.0432317
0.000707852
0.0835488
0.0837044
0.00017742
0.000561075
0.00347701
0.0308099
0.000213341
0.000134622
0.00599892
0.000146932
0.000145145
0.0441
0.0443359
0.000166969
0.0350244
0.000221165
0.0310625
0.000198012
0.000193751
0.000152006
0.00022128
0.000164542
0.000142923
0.000161161
0.0646677
0.051214
0.0356084
0.0727896
0.000197244
0.0520118
0.0658024
0.000183604
0.000151147
0.000150383
0.00354526
0.000146277
0.071839
0.000158722
0.000157633
0.000167842
0.0696877
0.0732575
0.0183811
0.000160354
0.0812341
0.000173429
0.000184118
0.000143314
0.000143255
0.0107286
0.000177925
0.0390194
0.0267384
0.00019493
0.00050599
0.000145728
0.000198772
0.000156561
0.0221358
0.000158302
0.000162838
0.000159692
0.000159697
0.0359077
0.000157803
0.000191334
0.00014304
0.000192276
0.0286019
0.0245155
0.000151222
0.000200378
0.000159834
0.000210594
0.000144314
0.0627015
0.00354631
0.000182386
0.0001652
0.000158677
0.000181264
0.000153166
0.000206913
0.000145252
0.000148268
0.000156234
0.0616147
0.000175578
0.000171926
0.000175518
0.000157761
0.000207703
0.059306
0.0678553
0.000189332
0.000151846
0.000162511
0.000134586
0.000150078
0.0491177
0.0490937
0.000152634
0.000185779
0.000229976
0.0816401
0.000155579
0.000157592
0.0458521
0.000161571
0.000165465
0.0753089
0.0755368
0.000153925
0.000145131
0.000148112
0.0627227
0.0067063
0.00019809
0.000398148
0.0192817
0.000159139
0.0762202
0.0594066
0.000158057
0.0687836
0.000224044
0.000158539
0.0110249
0.000152935
0.000153362
0.000140364
0.035344
0.000179171
0.0386281
0.000163361
0.000157608
0.000178885
0.00757638
0.079813
0.0735432
0.00228595
0.000156549
0.0100511
0.00676659
0.0116142
0.000223906
0.00357329
0.000146613
0.000175133
0.000141964
0.00026816
0.000195124
0.000147928
0.0449566
0.00384536
0.000187122
0.000161562
0.000131432
0.000155056
0.000209569
0.000190648
0.000287676
0.000213671
0.000216823
0.000214687
0.000462626
0.0595749
0.000209673
0.072422
0.000151454
0.000147227
0.0699869
0.0213355
0.0105991
0.000196347
0.000153919
0.0272003
0.00282689
0.000148479
0.000172523
0.000142153
0.000194132
0.000215766
0.000160575
0.00943056
0.0788254
0.000161269
0.0524233
0.0226201
0.000146932
0.000219858
0.0324926
0.0117175
0.000165884
0.00021792
0.000130717
0.000167145
0.000142972
0.000173471
0.0695212
0.0423232
0.00835697
0.0328085
0.000159941
0.000191368
0.000210302
0.00014541
0.000153847
0.000141709
0.0697676
0.000145973
0.0737811
0.000194641
0.000203292
0.0150151
0.0749831
0.0279671
0.0811206
0.000193856
0.000132824
0.000145208
0.0802991
0.0766063
0.000169639
0.000141932
0.000139358
0.000213204
0.000184167
0.025772
0.0598072
0.000159233
0.0001408
0.000672366
0.000161525
0.0236553
0.0219927
0.000143236
0.000217851
0.00015748
0.0665128
0.000134262
0.0544066
0.000140729
0.00015891
0.000186476
0.00015286
0.000209064
0.000181477
0.000199556
0.0133632
0.0533269
0.00017121
0.000182592
0.000151642
0.0807621
0.0157319
0.000149347
0.000134883
0.00421336
0.000130992
0.033244
0.00015534
0.000191122
0.000218662
0.000297699
0.000196516
0.000164556
0.00015156
0.000213801
0.0661473
0.000147143
0.00023914
0.0318746
0.0173776
0.0129767
0.000190531
0.0335269
0.000168878
0.0285876
0.000146281
0.00145065
0.00180592
0.0174722
0.017416
0.0578026
0.000142772
0.000177796
0.000147315
0.0192012
0.00575219
0.0620529
0.0125896
0.000177875
0.0600006
0.0124224
0.000192572
0.000165155
0.000153132
0.038363
0.000174187
0.000213074
0.000163884
0.000158025
0.000141223
0.000155321
0.0545862
0.0749808
0.000185884
0.0174717
0.0728103
0.000141898
0.000148259
0.000141731
0.000175994
0.0521739
0.0791999
0.000174398
0.00018038
0.000302078
0.000223779
0.000197223
0.00704154
0.000184392
0.0698065
0.000179263
0.000184133
0.000147108
0.000164083
0.000217023
0.00706132
0.000880251
0.0423162
0.000218269
0.0374633
0.000163953
0.000168854
0.000158757
0.00915546
0.0224493
0.00942281
0.000195106
0.000165077
0.000152188
0.000145961
0.000145285
0.000142054
0.00940104
0.000182086
0.00904094
0.000188335
0.056251
0.0526808
0.0604938
0.000173819
0.000171697
0.0154613
0.000197588
0.0192693
0.0399739
0.000140574
0.000179137
0.000176355
0.019804
0.0145377
0.000192166
0.000197338
0.0086097
0.000159073
0.000205517
0.000177525
0.0238339
0.00792002
0.000167293
0.000151787
0.00114825
0.0208281
0.00776397
0.0119933
0.00575184
0.000176511
0.000145188
0.0542487
0.046889
0.000225378
0.000181492
0.0571062
0.0313417
0.000147657
0.000148771
0.000168159
0.0649765
0.0639531
0.000146507
0.0299972
0.000156946
0.000151128
0.000156953
0.030439
0.0344132
0.000165047
0.0103352
0.000165913
0.000162799
0.000146495
0.0181231
0.000157631
0.0355614
0.000169699
0.0338277
0.000154544
0.000147341
0.00352939
0.00911345
0.00434021
0.000193148
0.0618558
0.000135204
0.000153383
0.000149307
0.000199728
0.000212584
0.000212319
0.000194494
0.0740573
0.000168093
0.00516905
0.000222582
0.0595941
0.000154871
0.03691
0.0449681
0.00016792
0.00841134
0.000210056
0.0182976
0.000154519
0.000219747
0.000150499
0.0148133
0.0210648
0.000217589
0.0684158
0.000168773
0.000197505
0.000163522
0.0323921
0.000133457
0.000142045
0.00701754
0.000233284
0.0205984
0.0826216
0.000208272
0.000180311
0.00014006
0.0214573
0.000185335
0.000143095
0.0299637
0.00014008
0.00019621
0.000152433
0.0127122
0.000160901
0.00339641
0.000504744
0.000185914
0.000223842
0.000210444
0.0664151
0.000154966
0.0238169
0.0346478
0.000141799
0.000149899
0.000164404
0.000154871
0.000195773
0.000148078
0.000183841
0.000218989
0.000271979
0.000211616
0.000157081
0.000156658
0.000140517
0.0811829
0.000153674
0.000153847
0.0679955
0.000165208
0.0336152
0.0699887
0.000230941
0.000170652
0.000189821
0.000162678
0.000156968
0.000183766
0.000135492
0.000165926
0.00860277
0.0578686
0.0748465
0.000162547
0.0153724
0.000266323
0.000154811
0.000219274
0.0707177
0.000146406
0.000164498
0.000144641
0.0825071
0.020385
0.000616964
0.000135306
0.000167865
0.000163848
0.000152122
0.00781317
0.000157046
0.000176964
0.00668534
0.0726289
0.0001408
0.00016587
0.000163248
0.0242294
0.000131436
0.0188994
0.00964692
0.000182182
0.00994564
0.0375648
0.0598582
0.000163123
0.0010481
0.000187735
0.000158644
0.000139695
0.000144313
0.0685873
0.0118491
0.0173582
0.000151846
0.0694059
0.000154627
0.021124
0.000140231
0.000166018
0.000158654
0.000140462
0.0219039
0.000158602
0.0396594
0.0311632
0.0184548
0.000202501
0.000200291
0.0199716
0.0660898
0.000151416
0.0115071
0.000140573
0.000131292
0.000147308
0.000148979
0.000142251
0.013802
0.000183739
0.000162117
0.000195647
0.00938045
0.0161562
0.000227583
0.000139962
0.000211054
0.000224762
0.0215499
0.000154848
0.000132076
0.000165379
0.0449412
0.000157975
0.000248689
0.0127757
0.000194941
0.000211982
0.00015532
0.00148576
0.000155233
0.0538449
0.000136531
0.0121913
0.000181661
0.000152642
0.0134643
0.0174246
0.000135973
0.000209012
0.000170704
0.0166736
0.00016405
0.00021835
0.00015938
0.000155935
0.000210959
0.0479628
0.000143697
0.000148541
0.00016324
0.000219135
0.000184681
0.0104656
0.0380234
0.000153171
0.0368292
0.000160156
0.000198186
0.0638585
0.0124592
0.00019371
0.0411327
0.0294086
0.000151785
0.000274078
0.00506441
0.000181877
0.000158583
0.057741
0.000136381
0.014791
0.000157894
0.000154998
0.000144736
0.000186712
0.0381173
0.000198408
0.0537466
0.000157408
0.000167043
0.000221108
0.0610092
0.00017096
0.0647415
0.0125357
0.0145302
0.000157453
0.0627297
0.061435
0.0234157
0.000146433
0.000144456
0.000155057
0.0656207
0.000162753
0.00241799
0.000319188
0.000156624
0.00013768
0.000146305
0.0231492
0.0860188
0.0207355
0.0169937
0.00014558
0.0435768
0.0705491
0.0111116
0.0129906
0.0406964
0.00019246
0.0140198
0.000163843
0.000170093
0.0832703
0.0697995
0.00014283
0.0322362
0.000159474
0.000149908
0.0540071
0.038373
0.0774005
0.0191427
0.000186362
0.000156289
0.000167427
0.0740724
0.0168743
0.000146564
0.000195727
0.00850207
0.000149458
0.000154507
0.0726851
0.0305698
0.000165176
0.000146575
0.000158178
0.000164271
0.000251757
0.000154875
0.000150795
0.000174689
0.000473448
0.0330995
0.000200293
0.0503436
0.000153473
0.000172264
0.0473934
0.069023
0.000181429
0.000222143
0.000144671
0.000190791
0.000164594
0.000143474
0.000217554
0.000150641
0.00108702
0.000189693
0.000147174
0.000171082
0.0628681
0.0345378
0.0342607
0.000150026
0.000182001
0.0701565
0.00743411
0.000166639
0.000154213
0.000147076
0.000692819
0.000154792
0.000149373
0.00017884
0.000149608
0.0468862
0.000196863
0.00015622
0.000169142
0.000134646
0.000156811
0.0278471
0.000188174
0.000216563
0.0138854
0.000206052
0.000156708
0.000144479
0.000152893
0.000154641
0.000155547
0.000170471
0.000221789
0.0614962
0.000161918
0.000772513
0.0346253
0.000159274
0.000153046
0.00014217
0.000163852
0.0579499
0.000153987
0.0435805
0.0810005
0.000202373
0.000149503
0.0225631
0.000134744
0.000178266
0.000137112
0.000135039
0.000158391
0.000146074
0.000182651
0.0725023
0.000222759
0.000195247
0.046014
0.000222146
0.000321556
0.00018398
0.0386024
0.0126699
0.000415073
0.0603542
0.0729162
0.000343869
0.000413267
0.000155221
0.000142142
0.0441953
0.000149165
0.000169309
0.0482676
0.000162567
0.0528981
0.0025344
0.000145544
0.000146668
0.000154145
0.000175868
0.000139917
0.000157809
0.0219313
0.0673027
0.0156174
0.000154642
0.000136961
0.000216584
0.0370782
0.0463754
0.000134387
0.0829685
0.000144619
0.0849152
0.0362313
0.000200179
0.000169683
0.000155003
0.000134713
0.000167757
0.000156512
0.00015529
0.000168452
0.0451147
0.000221541
0.0387709
0.000180881
0.0564658
0.04569
0.000145944
0.000141415
0.000153214
0.000137954
0.000154888
0.000191077
0.0613978
0.0112991
0.0680144
0.000163182
0.0173987
0.0125613
0.0659494
0.0415777
0.000156372
0.000146324
0.000231886
0.00015513
0.000136205
0.00878823
0.0466242
0.0829092
0.000151945
0.000153928
0.000162768
0.000195178
0.0605728
0.000140894
0.000171255
0.0706799
0.000138206
0.0065426
0.00019485
0.0489754
0.000155958
0.0775402
0.0379194
0.000193348
0.0740609
6.84787e-05
0.0386159
0.000134573
0.000173172
0.000146593
0.000183807
0.0325
0.000155583
0.00962624
0.000152447
0.000149012
0.000146297
0.0652839
0.000196661
0.000142641
0.00307143
0.000139563
0.000202317
0.0118383
0.000210858
0.00014232
0.000164148
0.000155645
0.000202791
0.000153815
0.000147809
0.0644553
0.0738738
0.0639558
0.0167552
0.0669337
0.016075
0.000213342
0.0693069
0.00492561
0.000133976
0.000146492
0.000131081
0.000157679
0.074064
0.0728179
0.000138112
0.00830718
0.0593785
0.000178182
0.000161306
0.000183509
0.0569723
0.072272
0.0446233
0.033527
0.0460717
0.000131062
0.0616538
0.000232734
0.000301789
0.0834434
0.000147378
0.00820699
0.013636
0.000189379
0.0366608
0.000159466
0.000159653
0.0148428
0.0495649
0.000217224
0.000186106
0.0259332
0.00663865
0.0482191
0.0588872
0.0471542
0.000311084
0.0652315
0.000154279
0.000170287
0.000199128
0.0318099
0.000710524
0.0377777
0.00015041
0.000132168
0.000220356
0.00015428
0.0730424
0.000146706
0.0111254
0.0316409
0.000146018
0.0557102
0.058813
0.0547468
0.0613245
0.0547489
0.000185459
0.00015209
0.0740721
0.000151883
0.000144017
0.000195765
0.000167203
0.0441223
0.0001674
0.000183785
0.000168628
0.0001462
0.0615952
0.000164598
0.000341873
0.000193527
0.000140459
0.0353179
0.000233295
0.000161494
0.0108321
0.0697891
0.000144635
0.000251495
0.000158447
0.0597103
0.00018415
0.000138296
0.000457457
0.000164795
0.0739995
0.0454073
0.000217505
0.0215079
0.000175276
0.000147382
0.0504195
0.000165964
0.000155053
0.0821715
0.000191059
0.000143957
0.000147066
0.00573432
0.000164231
0.0321548
0.063473
0.000161695
0.0177854
0.000200828
0.000213395
0.000152578
0.0739674
0.023833
0.0227269
0.000146718
0.000137371
0.000218443
0.000185483
0.00349714
0.000155338
0.00873444
0.000153233
0.00036076
0.00014862
0.000161723
0.019175
0.000429292
0.0361052
0.0262415
0.0700614
0.0439776
0.000131327
0.0809972
0.082281
0.0297166
0.000142995
0.0353822
0.0242823
0.0186165
0.000666014
0.0642628
0.000728299
0.0737694
0.000194742
0.0660442
0.000140242
0.00019919
0.00019283
0.000146262
0.00021366
0.0195923
0.000180038
0.0185488
0.0860434
0.000146107
0.000146233
0.000180994
0.000146612
0.0158686
0.000141453
0.00014621
0.0727571
0.0716802
0.000190668
0.000237667
0.000155347
0.000228725
0.0116261
0.044711
0.0124131
0.000169746
0.0451091
0.000165275
0.000138313
0.00016259
0.0387632
0.0792351
0.0595659
0.0734643
0.00015962
0.000147442
0.000146973
0.00015521
0.000173706
0.0209413
0.0839336
0.000181103
0.073068
0.0317958
0.00018518
0.0280739
0.000150588
0.000182213
0.000213114
0.000148384
0.000147704
0.000175967
0.000167339
0.0452741
0.0444424
0.000141392
0.000190787
0.000182822
0.00021887
0.0247256
0.056645
0.0725436
0.000158048
0.000223422
0.0682999
0.000223392
0.000431003
0.00018203
0.0582206
0.0769687
0.067606
0.000140711
0.0664386
0.000138139
0.000167003
0.000150402
0.000211876
0.076006
0.0219739
0.00876409
0.0187742
0.000209353
0.000135491
0.00014207
0.000154238
0.000161783
0.000197214
0.0722489
0.0626661
0.000218121
0.000373053
0.000157955
0.000209475
0.000141276
0.0527917
0.000215402
0.00015738
0.00302955
0.000242123
0.0549414
0.0353294
0.00488781
0.00909928
0.000171676
0.0239071
0.0675727
0.0817965
0.00579888
0.000164944
0.000209535
0.000153327
0.0691942
0.0105913
0.000196867
0.0341951
0.06397
0.0340092
0.000216628
0.00266765
0.000199624
0.000142595
0.00073751
0.000214124
0.000168146
0.000209674
0.000185113
0.000188433
0.0121487
0.0368069
0.00016671
0.00018498
0.000191355
0.000188552
0.00016209
0.0562335
0.000673249
0.000167201
0.020166
0.000151601
0.041913
0.000146699
0.00017191
0.000167506
0.0426153
0.00019619
0.0479726
0.0303232
0.00021217
0.00020064
0.000497232
0.0405325
0.0147328
0.0210326
0.000169405
0.000195298
0.000145125
0.0427607
0.00284577
0.000166289
0.000150592
0.000195622
0.000172551
0.000170449
0.000198227
0.000191268
0.000154768
0.000191569
0.0344684
0.0224354
0.000226898
0.000195343
0.000132237
0.041461
0.000185087
0.000209317
0.00025821
0.000192984
0.0558379
0.000136618
0.000179157
0.000171617
0.000190817
0.000150533
0.040041
0.000156419
0.0640601
0.000195819
0.0729765
0.073316
0.000171595
0.0403147
0.000210594
0.0699049
0.0191716
0.000201932
0.00016799
0.000191586
0.000216886
0.000169483
0.0721153
0.0339403
0.00500993
0.000142769
0.0764319
0.0333601
0.0426492
0.000146466
0.000197596
0.000150395
0.000185461
0.0621776
0.000182911
0.000181558
0.000144308
0.000142926
0.0367286
0.0391276
0.00015585
0.0488837
0.0660516
0.000135691
0.000155783
0.0423721
0.000361401
0.000253027
0.00014926
0.000176908
0.000244789
0.000152282
0.000151186
0.0540231
0.000181783
0.0405221
0.000225008
0.000173579
0.0771891
0.000109711
0.0204215
0.000144525
0.0033219
0.000179913
0.000175158
0.036493
0.000194703
0.000157264
0.000228873
0.000169209
0.000170976
0.000135813
0.0198726
0.00015148
0.000213541
0.0628742
0.000224276
0.000146506
0.057213
0.000182284
0.0269227
0.0165734
0.0366334
0.000139012
0.0479084
0.000141319
0.000220957
0.000170812
0.000145658
0.00417721
0.0546198
0.000168544
0.000216766
0.000155003
0.00021812
0.0360078
0.000172495
0.000182613
0.00161688
0.0335884
0.0427998
0.000639622
0.000149364
0.000145178
0.000214673
0.000193949
0.01148
0.0547516
0.0531442
0.0578268
0.0636514
0.000142708
0.00450492
0.000146192
0.00015907
0.000154666
0.00217954
0.0127674
0.000218972
0.000149905
0.0220593
0.000177244
0.0336604
0.000143907
0.00021543
0.000181494
0.00021191
0.000199448
0.00024807
0.000162441
0.0316067
0.000170381
0.000145172
0.0182558
0.0765384
0.000204266
0.000162219
0.000183297
0.000149433
0.000151486
0.000208834
0.000155232
0.0149645
0.0598062
0.000228883
0.000231962
0.000144065
0.0312491
0.000209804
0.0591605
0.000185746
0.000186833
0.00261437
0.00018782
0.000180528
0.000210358
0.0293455
0.000168488