/*--------------------------------*- C++ -*----------------------------------*\
| =========                 |                                                 |
| \\      /  F ield         | OpenFOAM: The Open Source CFD Toolbox           |
|  \\    /   O peration     | Version:  v2012                                 |
|   \\  /    A nd           | Website:  www.openfoam.com                      |
|    \\/     M anipulation  |                                                 |
\*---------------------------------------------------------------------------*/
FoamFile
{
    version     2.0;
    format      ascii;
    class       volScalarField;
    location    "950";
    object      omega_0;
}
// * * * * * * * * * * * * * * * * * * * * * * * * * * * * * * * * * * * * * //

dimensions      [0 0 -1 0 0 0 0];


internalField   nonuniform List<scalar> 
13851
(
0.0282532
1.28593
0.131424
0.027455
0.145574
0.0640533
0.0221814
0.0768116
0.0208866
0.148004
0.152723
1.76261
2.95875
3.32392
0.0215115
0.0516654
0.0319788
0.0395409
3.02469
0.0208773
0.0270454
0.132046
0.0218839
0.0223746
0.0223403
0.0771271
0.0296542
9.69686
0.0278821
0.0303515
0.0694677
0.032859
0.128895
0.443238
0.0222693
3.41014
3.41453
2.65477
0.14718
0.444924
0.0221837
0.0196791
3.07391
0.253268
0.227257
1.28238
0.274527
0.53441
0.0302617
0.0371815
0.134143
2.63161
2.70303
0.0218239
0.0235394
0.0196782
0.0211593
1.41953
0.0297522
0.0224097
2.65497
1.79402
0.069662
0.185763
0.180174
0.0317038
3.36303
0.297946
0.0532869
0.0391117
7.53289
3.2196
1.22969
0.0220315
0.0212039
0.0213122
0.127331
4.90252
0.0790444
6.5814
0.0232052
0.218281
0.0216698
1.28108
0.0719926
1.81591
0.0534447
1.82035
0.0331104
0.0208405
3.38155
0.0387731
0.305152
0.038828
0.0325298
0.0222084
0.149011
2.21098
0.0388801
0.022456
2.39617
0.0859271
0.0249834
0.0284325
0.0215734
0.05327
0.0952933
0.0195991
2.98654
0.0661404
0.0225986
0.0209116
0.0374831
0.0233184
0.0224329
0.805763
2.28948
0.0196415
0.0231807
0.0239644
3.5397
0.0281133
2.89825
0.584945
0.349101
0.020971
0.304183
0.0820423
0.0265579
2.12356
0.0221167
0.0208969
5.0764
0.0216488
0.793043
0.0211577
0.0196523
3.22975
1.61756
3.62326
2.06628
0.0235754
0.0245874
0.0199361
0.0276291
0.283939
0.0233831
2.26025
0.0221336
0.205059
0.143942
0.0233866
3.61549
0.0211341
0.0263485
0.0273902
0.0215667
0.0274412
2.62548
0.132858
0.0196557
0.038365
1.44954
0.0208785
0.0391987
0.0198092
0.0227014
0.0541337
0.0262355
1.66286
6.20478
0.0204511
0.0216092
3.48502
0.0208523
0.521186
0.0794386
0.0247075
3.04255
0.0196016
0.0349289
3.16561
0.0216016
0.136662
0.0196123
0.0217835
0.0321516
0.0226677
0.176942
0.127896
0.289609
2.01872
0.0211121
0.0536964
1.87525
0.0259234
0.0241524
0.422783
0.02434
0.021375
0.0210183
1.40351
0.0240877
0.0216189
0.107952
0.0216334
1.79377
0.0323271
2.79024
0.0196023
2.57803
0.0247037
0.434375
0.0195688
0.0198685
0.0748634
0.0705908
1.24487
0.0214406
2.68313
0.0327816
0.0233396
2.56093
2.0387
2.49382
0.022308
0.0438279
0.0220364
1.3797
0.0195647
0.0756687
0.15165
0.0204428
0.0210213
0.116334
0.0630608
1.85753
0.318374
0.0199187
0.0216427
0.066947
0.0750773
0.0199353
0.114787
0.0206749
2.4566
0.0877105
0.447327
0.0277028
0.0345372
0.0320597
0.0952896
0.0235984
0.0279293
0.088595
0.118844
0.122641
3.17696
8.59723
0.0216072
0.0198855
0.0370605
0.311763
0.020266
2.91123
0.0258967
0.0234681
0.0375643
2.61859
0.0255173
0.0319314
0.0263461
0.0997669
0.0737542
0.0497174
0.0209187
0.218367
0.0265882
2.53922
0.131375
0.0199564
0.019575
0.0214335
0.0839419
0.349073
0.635252
0.0210969
0.0215297
0.0982379
0.223486
2.5381
0.0289309
0.0224645
0.0581386
0.223091
2.95419
0.0378932
1.806
0.0209608
2.45916
0.0373592
0.0316539
2.54409
0.0230685
0.0551447
2.46049
0.0210541
0.0713374
0.0391463
0.0283528
1.58219
0.0383218
0.0234733
2.49538
0.0197185
0.0351824
0.0213365
2.59286
1.47803
0.0214562
0.0885205
0.0214829
5.26787
0.0348165
0.021656
0.0222751
1.00489
0.0420291
0.0260247
0.0215295
0.0229921
0.0233481
0.187399
5.91746
1.69197
0.0441842
2.59906
2.40416
0.0214416
0.0550972
2.56264
0.0419397
0.0773638
0.9862
2.99765
0.0297722
0.855302
2.45455
0.0215381
0.0307772
0.0306563
2.47992
0.0259702
0.0805994
1.32866
0.021685
0.84401
0.0222424
0.0214848
0.0204763
0.0195954
0.0214014
2.48556
0.364005
0.0219668
0.0681722
0.0197505
1.74631
0.0628147
0.68308
1.70633
0.0220352
0.076056
0.0395108
0.688733
0.0219158
0.019657
0.0342742
3.21352
0.021913
1.60268
0.041767
2.36313
1.54565
0.0951964
0.0983706
0.0292576
0.0209766
0.0227254
0.0419461
0.08774
3.89884
0.0539827
2.53616
2.45956
0.0197615
0.0216272
1.63733
5.18515
0.132772
2.37359
0.0349145
0.041057
0.022386
2.49396
0.020627
0.0502752
0.0286116
0.0220553
0.021734
0.0210051
0.0197977
0.185304
0.0744246
3.19986
0.0399868
0.0946273
0.0436743
0.0859991
0.0370315
2.4523
0.0309299
0.0631303
0.0196399
0.0209685
0.0221972
2.69182
0.40405
1.84023
0.0427153
3.8692
0.439468
0.0513788
0.0244332
0.118656
0.0218492
0.104658
0.0214844
2.32242
0.31779
0.115886
2.99782
0.0247904
0.0246841
0.382066
5.44932
0.019558
0.0445392
0.0809095
0.0263929
0.0205584
0.0234318
0.129453
2.45285
0.0474051
1.92372
0.0220399
0.0224471
1.49482
0.040954
0.0195653
1.73421
0.0209654
0.0282056
0.0206835
0.0627938
0.0263648
0.01959
0.0244884
2.53005
0.0217029
0.0582343
0.0210764
0.0362681
0.0340341
0.0234328
0.0221999
0.0233322
0.0233907
0.390149
0.0233586
0.0574665
0.0215767
0.0219802
2.07168
3.21635
0.0216894
0.0370935
0.037254
0.0886369
1.26019
0.0224874
0.365593
0.0219761
0.141961
0.0222211
1.18787
0.019673
3.09427
0.119034
0.0196921
0.037103
1.95669
0.0767203
0.313426
0.0230871
0.60693
0.0242252
0.0207805
0.0209451
0.0219979
3.80825
0.116558
2.76995
3.1386
0.0684005
0.0196817
2.64203
0.411736
0.0352555
0.0389811
0.0592489
0.619373
2.64493
0.0234145
1.18316
1.29483
1.35522
0.0400178
0.0378891
0.618175
0.0266335
0.1096
0.44793
2.24444
0.0279552
2.23613
3.08026
0.0196393
0.0254172
0.119324
4.21011
0.0282317
0.0214432
0.021505
0.0218518
0.176819
0.059078
1.84151
1.80585
0.0209623
1.74801
2.98482
0.0646299
0.408466
0.0574208
0.0195467
0.0209249
0.105627
2.57128
0.026587
0.188315
3.31871
0.0196662
0.0490327
0.616759
2.46802
0.871517
3.56302
3.08299
0.0220465
0.022079
1.42813
2.44696
2.62531
0.0536626
0.0740046
0.0196037
0.02139
2.32251
0.0196517
0.0279976
0.0195904
0.0209456
3.02497
0.179877
0.0395769
0.0196414
1.63114
0.425475
0.0209953
0.0208673
0.0203064
0.0225696
2.97992
0.448328
0.434746
1.34752
0.601416
0.0496745
5.73405
3.08753
0.0305068
0.0542572
0.0195419
0.0212766
0.0550607
2.601
0.68569
0.185254
0.0419436
0.0208056
0.0506286
0.0241307
0.316494
0.132725
0.0215511
0.0457053
0.0205606
0.0368612
1.988
0.0223182
0.0217933
0.062957
0.0224383
0.145903
2.64335
1.63469
0.0515378
2.9237
0.0207792
0.110507
0.0335536
1.31493
0.0244749
0.0221591
3.04547
0.0288528
1.52146
2.44782
1.19614
1.68216
0.0206262
3.16407
0.0200703
0.0209563
0.019661
0.0209638
0.0211679
0.0414005
0.059161
0.01963
2.29008
0.123529
2.24365
0.0213604
0.0197104
0.0207995
2.46618
1.92317
0.0905226
0.0375875
0.0200807
0.0221016
0.021718
0.0217284
3.28481
1.95698
0.0223571
0.0196193
0.0220207
0.0217013
2.34082
1.68499
0.0519474
2.05544
0.611206
0.0217371
2.49953
4.44012
0.0573391
1.78272
0.0231852
0.0375364
0.0885437
0.0380987
0.441723
0.0216561
0.611495
0.0215096
0.0444762
2.73704
0.0214597
0.0272086
0.0714363
0.0208016
0.0336377
0.143227
3.77864
0.129197
2.92827
0.145763
0.0195798
0.0213083
1.78275
3.31571
0.0672799
2.45382
0.0207031
0.0267635
0.0196532
0.594609
3.29644
0.0342981
0.023966
0.0389183
0.0302068
0.020701
1.61602
0.133461
2.5838
0.0197053
0.0223018
5.35555
3.40115
3.29234
0.0237412
2.88511
0.021666
0.0526239
1.66775
0.126688
0.0325215
1.21601
0.030461
0.0246851
3.41528
0.0221855
0.0241097
0.0268028
0.0207494
1.43646
0.0489301
1.02262
0.0390871
0.0283999
0.0208421
0.163493
0.0227238
0.0303717
0.0197941
0.0216414
0.0219415
2.44632
0.0214519
0.019687
0.0972445
0.0221378
3.95814
0.0219482
0.0243005
0.128228
2.31124
0.356381
0.0210974
0.0822588
2.10576
0.0234844
2.57267
0.0437812
0.0207039
0.0316763
2.34086
0.0774471
0.0350548
0.0211135
0.01961
0.380758
0.152417
0.0866048
0.0368343
0.0317983
0.0228743
0.0240165
0.185633
0.425336
0.176312
0.670122
0.0222345
0.145156
0.167898
2.62747
0.0338684
1.67176
3.12841
0.0221626
1.38207
0.102049
2.05259
4.13213
2.4576
0.160752
0.066571
0.0207276
0.0406668
1.38525
1.33889
0.0220891
0.0222073
0.119903
0.223612
0.0197198
2.58226
0.0206696
0.0219227
1.39029
5.25636
0.17579
0.0209516
0.0214976
2.68914
3.27262
1.34316
0.0275542
1.81432
2.47726
2.03271
0.0945969
0.0671546
0.0235262
0.0221658
1.21609
0.0828422
5.28589
0.0358346
0.0531429
1.38594
1.98892
3.40845
0.0217989
0.0459561
0.0209774
0.0529548
0.0269769
1.70153
0.0269511
2.61016
0.0197194
0.124836
0.0215325
2.33003
0.0511447
0.0453423
2.11409
0.0711603
0.0659209
0.0224958
0.124158
0.655303
0.0803749
0.0282814
6.6268
0.0202165
4.80892
0.330395
0.0227965
2.54075
2.89859
3.53091
0.141823
0.0347561
0.0220501
2.65352
0.027114
0.860047
2.78857
0.0213597
0.0254311
2.7024
0.42894
1.71857
0.0223552
0.0207188
1.42021
2.77598
0.904861
0.0338768
0.0262976
0.330615
1.197
0.174159
0.0196913
0.0675977
0.0208172
0.0237157
0.0465481
0.0225939
2.37053
0.0955874
0.0219808
0.0249023
0.0221163
0.026955
5.82612
1.87095
0.0436096
1.67138
0.0215093
0.0436846
0.0219343
0.0208366
0.0227646
0.0219463
3.8513
0.021709
0.0889022
0.0218337
0.0354258
0.0524327
2.8385
0.0230681
1.46617
0.0898202
3.18449
0.0506991
0.051512
6.82004
0.036861
0.0601164
1.70219
0.791487
2.42528
0.0669063
0.175336
0.0241605
0.0677946
0.0877507
1.69001
0.0214827
2.46714
0.0212706
0.0214013
3.52507
0.0209518
3.00918
0.0332253
0.0209666
0.0470743
0.0209819
0.0215048
0.0203166
0.0230334
3.4448
0.0213984
3.25692
1.21634
0.0966676
3.18436
0.022106
0.022859
0.0215987
0.0219113
0.0209402
0.155665
0.0230785
0.0212238
0.0241259
0.0221499
3.71359
2.08837
0.0769218
2.3594
3.32405
0.0213954
0.119239
0.0414153
0.0213617
0.341859
0.0559365
0.309325
0.0212968
0.265548
0.429368
1.24603
0.0204868
2.92254
0.0472206
0.0294352
0.0204625
0.0207179
2.04717
0.0968104
0.575151
0.021358
0.0215867
0.200078
0.0228387
2.35806
0.250149
1.65988
3.08392
0.385647
0.0219228
0.0219658
0.075672
0.0364934
0.0285276
2.18447
0.0700644
0.0231848
0.0259734
2.61686
0.021261
3.01943
3.11101
0.886866
3.04918
0.0231216
0.0200749
0.0235802
0.314184
0.301627
0.0204854
0.0236476
0.0212975
0.148368
0.0197879
0.021223
0.023464
0.0511888
3.32075
0.0620859
0.045353
0.022
0.0884467
2.80688
0.0240016
1.44964
2.53958
0.159587
0.0198855
0.0728802
0.0214505
0.0215861
0.0233823
4.9546
1.49592
0.403571
0.0287041
0.0448827
0.0215018
0.0217844
0.023149
0.0946517
0.199564
0.0196419
0.05048
0.0767284
3.29798
0.0234123
1.51991
0.021211
1.72067
0.124863
2.67818
0.191565
0.155477
2.63531
2.84807
0.382958
1.44892
0.0210694
1.17339
0.0197741
0.0285266
0.0347158
0.0226101
2.90634
0.0439788
0.0386925
0.242181
2.93381
0.376173
0.0214684
0.0283474
0.0354211
0.0201388
0.0426707
1.32729
0.580215
1.20772
0.0210968
0.0369196
0.0282798
0.636351
2.45789
0.075261
0.0200556
0.0228687
1.17579
0.0751872
2.20707
2.39225
0.0403983
0.0198684
3.12483
0.0414019
0.072967
0.0410428
2.56299
0.316426
1.79858
0.114336
0.0252051
0.0348793
0.0219028
2.55117
0.0690174
3.04745
0.0372712
0.0343034
3.08307
0.0258729
2.59305
3.25459
0.02094
1.68573
2.63793
1.83583
3.01
0.0221346
0.0220366
5.67732
2.75132
1.18264
0.0241655
0.0220533
0.0220057
3.76308
3.25391
0.0229957
0.0599227
0.154692
1.94923
3.1299
0.698865
0.0216219
2.93603
0.0312029
0.0221449
3.02186
1.84759
0.0222078
0.021267
3.60306
2.60473
0.0208161
0.0210877
2.72049
0.0206139
0.140292
0.0210903
0.614422
0.022059
0.0905734
1.13859
2.51831
0.02522
2.0275
0.114488
2.26549
3.04987
1.72583
0.0394967
0.0214379
2.54742
0.0234091
0.0214822
0.0201155
0.308333
0.0216927
3.44167
0.021304
0.0249658
4.7308
0.110515
2.37392
0.0264886
0.0221791
0.020924
0.0500748
3.1744
2.22601
0.0211156
0.119141
0.316522
0.023063
0.0207335
2.64793
0.0544946
0.055256
2.6514
4.16094
0.256351
3.22109
3.06524
0.0411652
0.0873378
0.383955
1.7052
0.118714
0.0199514
2.50759
0.0214407
0.0214017
2.48916
2.68459
0.0276719
5.45265
0.10014
3.68094
0.0624894
0.0562552
0.021811
0.105847
0.0337022
0.0209558
0.025502
2.49685
2.43823
1.53158
2.66374
0.0599983
2.52812
2.50954
0.0490374
0.0223181
0.0215856
0.220228
0.0213153
3.29653
0.0234463
0.0238323
0.0282207
2.82049
2.64305
1.38659
0.0240502
3.1135
0.0328789
0.042923
0.021148
0.0208572
1.4739
0.0378894
3.06053
1.2617
0.0574873
0.834928
0.0215718
0.063921
0.0228934
3.27407
0.0244717
0.0261718
0.0238053
0.023426
3.16362
0.0239581
0.0554065
0.0209961
0.0564955
2.44832
5.72747
0.0216659
0.0812331
0.0223839
0.0757878
0.0212847
2.45949
1.53674
0.0479415
0.028563
0.0234811
0.0476741
0.0219607
0.0313845
0.0215139
0.0214561
0.0238983
2.48206
0.0374373
0.030651
0.0357779
0.022198
0.114667
2.41775
2.88531
0.0574815
0.0218822
0.031428
0.0199448
0.0216902
3.00874
2.585
0.0217077
0.0447373
0.127943
3.09751
0.0230488
0.0237842
2.70494
0.0255681
0.0344434
3.29929
2.69849
0.0221281
0.0215027
0.0215664
2.47408
2.7304
0.0692664
1.22199
1.39681
0.0247227
2.7286
2.15293
0.0232032
2.7661
0.159431
0.0234608
1.52697
0.0221736
0.0221763
0.0206256
2.89552
0.0443455
3.25554
0.0263383
0.0241911
0.044042
0.373425
3.36338
2.65291
0.28512
0.0235173
2.83743
2.06504
1.63544
0.122002
0.222
0.021342
0.0355289
0.0207467
0.134919
0.0562527
0.0215519
2.61843
1.51887
0.0505398
0.0280621
0.0196017
0.021952
0.0851737
0.0543807
0.118899
0.118458
0.111496
0.0933457
0.689384
2.01373
0.0745108
2.62877
0.0217157
0.0212308
3.32517
1.3992
1.98484
0.0619776
0.0225905
2.63782
0.291851
0.0215333
0.0353122
0.0209738
0.0683841
0.130914
0.0233801
1.96872
3.38384
0.0256148
2.04583
6.26056
0.0216016
0.108789
1.65397
1.65124
0.0288766
0.143624
0.0195586
0.0247486
0.0209558
0.0334248
2.56652
1.92034
1.88147
1.5332
0.0252243
0.0524834
0.0843632
0.0210623
0.0226691
0.0207332
2.64891
0.0212741
2.67843
0.0564885
0.0648444
2.31627
3.43869
4.6549
3.05785
0.0673989
0.0197731
0.0217175
3.08255
3.13804
0.0316935
0.0209426
0.020641
0.105164
0.0459527
3.16737
2.07409
0.0249897
0.0206571
1.34486
0.0304845
5.98532
1.19094
0.0211161
0.132113
0.0230285
2.51684
0.0198949
2.48828
0.0205613
0.0248097
0.0434918
0.0225224
0.0730012
0.0447826
0.079118
1.32785
2.41524
0.0330223
0.0447625
0.0217608
3.07105
1.23899
0.021945
0.0199699
0.323639
0.0196184
3.78056
0.0219317
0.0489875
0.11438
0.159042
0.0580005
0.0260922
0.0220386
0.129828
2.52053
0.0214596
0.117097
5.7917
1.18633
1.93167
0.0511189
3.15485
0.0326353
2.31979
0.0214815
0.224206
0.230336
1.30436
1.17767
1.949
0.0210678
0.0420375
0.0212595
8.3527
0.335523
2.47003
1.34236
0.0376726
2.07176
0.796989
0.053595
0.0266061
0.0223035
3.13386
0.0343182
0.128573
0.023653
0.0232276
0.0208338
0.0225976
2.22746
3.39719
0.0474435
1.18783
2.99559
0.0208346
0.0216127
0.0207049
0.0347898
2.52064
3.46831
0.0341058
0.0266581
0.138177
0.127346
0.0736457
3.72231
0.0455965
2.5752
0.044526
0.0413605
0.021536
0.0236188
0.128841
0.428511
0.162269
2.84935
0.117484
1.55932
0.0276222
0.0307677
0.0223298
1.89559
1.40308
0.616589
0.0580241
0.0281858
0.0219378
0.0214554
0.0215141
0.0207615
2.55517
0.0431213
2.47802
0.0491111
2.19092
2.27706
2.45811
0.0362245
0.0344104
1.18935
0.0611359
1.60752
3.0491
0.020762
0.0441301
0.0380208
4.65324
1.69831
0.0539647
0.0615185
0.453246
0.0233708
0.071206
0.0267637
1.27421
0.371405
0.0295768
0.0220648
0.169847
2.08309
2.20063
0.731707
2.47589
0.0353349
0.0213791
2.01855
2.65741
0.124188
0.0462935
2.30982
2.66166
0.0212989
0.021698
0.030223
2.50566
2.51103
0.021534
4.27374
0.0236751
0.0216512
0.0229702
1.48644
2.37152
0.0331356
2.09546
0.0270275
0.0260806
0.0213088
1.45905
0.0232816
1.51766
0.0290634
1.36253
0.0228492
0.0214628
1.77957
2.68355
0.331386
0.0565425
2.39189
0.019843
0.0222102
0.021733
0.0733092
0.115043
0.115543
0.0541761
2.72394
0.0305328
1.69006
0.128161
2.04282
0.0226821
3.25013
2.6997
0.0316625
0.515546
0.118448
1.68002
0.022527
0.105361
0.0218083
1.58952
7.01096
0.103221
2.55271
0.0286798
0.0820311
0.0257457
3.80108
0.0198297
0.0209585
0.569637
0.143831
1.48603
3.17306
0.115053
0.041524
0.0206004
1.45591
0.0421419
0.0209953
3.36549
0.0202648
0.0720876
0.0219594
1.1412
0.0237438
0.281275
0.115926
0.0429035
0.108582
0.0874128
2.51494
0.0223198
1.11606
2.45079
0.020923
0.021735
0.0267546
0.0229513
0.0645089
0.0217269
0.0530913
0.144562
0.0449823
0.0774821
0.0228896
0.0233344
0.0205995
3.02708
0.0222797
0.0220658
3.19282
0.0288755
1.46067
2.58739
0.185118
0.0296859
0.0526623
0.0259584
0.0236542
0.0429631
0.0200204
0.0293237
1.67314
2.46527
3.19451
0.0258239
1.29222
0.131925
0.0229664
0.0339718
2.65521
0.0215369
0.0280604
0.0214151
3.02794
1.25264
0.196407
0.0200026
0.0297707
0.0265952
0.0221162
2.34442
0.0229201
0.0411472
2.1402
2.64022
0.0207532
0.0290662
0.0276472
1.29721
0.0195927
1.21415
1.66703
0.0497523
0.9185
1.64136
2.18658
0.0258221
0.263062
0.0587105
0.0245988
0.0205722
0.0211265
2.55817
1.65259
1.21767
0.0216959
2.56437
0.0225244
2.51112
0.0205105
0.0277386
0.0245013
0.0207299
1.29928
0.0246859
2.02035
2.8777
1.19217
0.0765039
0.0889825
1.22402
2.52153
0.0222537
2.32807
0.0206124
0.0196552
0.021553
0.0235206
0.0207571
1.28943
0.040861
0.0355649
0.056103
1.58887
1.21053
0.127855
0.0206916
0.0861413
0.120993
1.26486
0.022728
0.0196744
0.0244486
2.99134
0.023328
0.0516627
1.31795
0.0686652
0.101965
0.0228191
0.220226
0.0229313
2.49686
0.0203
1.83039
0.0472533
0.0221091
1.28269
1.16937
0.0202116
0.117782
0.0314103
1.2617
0.0322117
0.149056
0.0338763
0.0230818
0.0852023
2.02072
0.0210773
0.0233131
0.0262495
0.146578
0.0502252
1.66123
2.59424
0.0222054
3.26221
0.0249923
0.0733227
2.48956
1.35132
0.0541642
2.83342
2.36553
0.0220823
0.06912
2.78442
0.0464782
0.0246059
2.25492
0.0202444
4.10763
0.0307287
0.266581
0.02144
0.0436289
3.09514
0.0738685
2.07795
0.0238038
0.0291866
0.106709
2.3858
0.0344262
2.49522
0.827612
1.27913
0.0230809
2.4579
2.59462
1.35186
0.0215622
0.021509
0.0224154
2.50593
0.0290116
0.293277
0.0957959
0.0232627
0.0202404
0.0215395
1.31188
3.22937
2.43059
1.20693
0.0212539
1.88959
2.62435
2.79166
1.46815
2.87342
0.0516463
4.53274
0.0276026
0.0335316
3.07527
2.77395
0.0209457
5.31467
0.023718
0.0217563
1.89537
2.84976
2.76534
7.75535
0.047361
0.0232022
0.0246542
2.70766
1.17145
0.0214348
0.0771248
0.512447
0.0217516
0.022425
2.73628
1.54773
0.0272188
0.021592
0.024361
0.026125
0.100144
0.0229283
0.0219117
0.0345402
0.526378
1.50124
0.0664156
1.97924
0.0222745
0.0319292
2.57388
2.58225
0.0400125
0.117271
0.0214268
0.0580338
0.0261287
0.0211012
0.109179
0.021802
0.350485
0.0497018
0.0212499
0.0310551
2.58696
2.27767
3.47079
0.0217879
0.0271293
2.59859
0.58837
0.0295621
0.0225474
0.0216477
0.100606
0.0224995
0.0219546
0.0399923
0.0217072
2.57639
0.0612703
0.0231164
0.0304201
0.0199497
0.0228699
1.73375
0.0604439
0.130311
1.33638
0.06965
0.0233849
0.0214034
0.022142
0.0223045
0.02295
0.0251331
0.107115
2.42094
0.0254621
0.565636
3.40649
0.0319029
0.0219248
0.0209755
0.0277868
2.04983
0.0221569
2.38876
3.37946
0.0623277
0.0225891
6.44774
0.0199132
0.0427055
0.0203642
0.0199381
0.0234833
0.0211593
0.0416953
2.8624
0.102513
0.0631619
2.11389
0.0968992
0.155353
0.0491943
2.9921
1.44602
0.407701
2.20322
2.72862
0.752884
0.131352
0.023015
0.02075
1.59323
0.0214835
0.0306501
1.75921
0.0320735
1.7525
1.37906
0.0210965
0.0221212
0.0223299
0.0396955
0.0204753
0.0283931
1.61777
2.5873
0.866109
0.0224105
0.0202799
0.134018
5.39874
2.6005
0.36925
3.3359
0.0211405
3.30266
3.39126
0.071233
0.0296256
0.0225096
0.0198103
0.028074
0.0227315
0.0224158
0.0300114
2.63843
0.146453
3.0603
0.0488906
2.59443
3.42674
0.0214595
0.0208478
0.0231755
0.0204642
0.0229027
0.0636826
2.35654
0.77529
2.53931
0.0275102
1.23336
2.30019
2.51347
2.93198
0.022736
0.021168
0.0504067
0.022491
0.020227
0.526364
2.58639
3.21417
0.0219171
0.0223193
0.0268618
0.0612611
2.49401
0.0206398
0.0300019
3.17318
0.0203001
0.458411
0.0605638
1.75714
0.0231178
3.36578
4.90177
0.0551226
2.71526
0.585407
3.09964
0.0199164
0.0330581
0.0212107
0.0446157
1.4943
0.0220517
1.57186
0.0228976
0.0218816
0.0215815
2.50044
0.0732762
0.712976
0.431957
0.0206665
0.0682342
1.52797
0.0868627
0.0207889
0.0263611
0.0225845
0.065549
0.0223918
0.0213632
2.49168
2.66802
2.4829
2.03663
3.06614
1.2681
0.129813
2.56123
1.63163
0.0198694
0.0211638
0.0196297
0.0231773
2.70008
2.67084
0.020264
1.77757
2.4652
0.0427124
0.0251721
0.0278167
2.20582
2.73936
2.66377
1.97428
2.61863
0.0196255
3.04694
0.163674
0.0609546
3.0638
0.0215785
2.72371
1.36957
0.0500558
4.03951
0.0237935
0.0295438
1.31421
2.56773
0.143055
0.0478897
5.06472
2.74336
2.6234
2.4543
2.57186
0.731845
2.58343
0.0224113
0.0301497
0.079118
3.90652
0.123873
3.19887
0.0220942
0.382497
0.104555
0.0224415
2.7197
0.0215521
2.75101
3.88288
0.0215162
1.88299
2.10979
2.48186
2.39526
2.63591
0.0556281
0.0218491
2.69401
0.0227188
0.0210308
0.0689757
0.0294195
2.75802
0.0298625
0.0276333
0.0302545
0.021163
2.41727
0.0269374
1.17937
0.0632367
0.0207454
3.49054
0.162813
0.0253681
1.89387
3.22737
0.021433
0.151135
0.0240555
2.46314
0.0537426
0.0202823
0.835798
0.0271342
2.68032
2.65861
0.133868
1.07418
0.0332286
0.0216686
1.79888
0.0294473
0.0224368
3.20839
0.0661518
0.0211119
0.021226
1.93053
0.0265809
3.74319
3.08654
0.031043
1.59672
0.0904208
0.10404
0.0219767
2.67473
6.00628
1.47869
0.021582
0.0202126
0.131051
0.0460916
0.381903
0.0225186
0.498654
0.0222441
0.497824
0.021867
0.0317195
2.29687
0.800652
3.40329
1.28977
2.64554
2.71056
0.0196591
3.3091
3.28684
4.2334
0.0210751
2.59194
5.85492
1.18112
0.907637
2.95639
0.269543
2.66191
0.0750416
3.16495
0.0207103
0.0799861
0.06995
0.0215034
0.128895
1.49089
0.045809
1.17438
3.37625
0.0214051
0.0211759
0.0391861
0.0215317
0.888671
0.0206873
0.0211438
2.62806
3.38533
0.0486776
0.161202
0.0225956
0.14726
1.62194
2.71579
1.44076
0.0332299
2.68682
0.0266336
0.0205101
0.0270963
3.01037
3.51376
3.00507
3.3742
0.0247798
0.0212647
0.0215508
0.0230382
0.036322
2.10245
3.30387
0.0421969
2.70996
3.79739
0.0556622
1.40119
0.0218124
0.0447969
0.0816946
0.0216765
0.0218289
0.0374204
0.0297165
1.79974
2.73428
0.0206741
0.0650952
0.0445828
0.112804
1.36238
1.89441
2.63465
0.0233951
0.164607
2.54643
0.161286
0.803424
0.0510651
2.26398
2.74338
2.53176
0.0206409
2.64548
0.0202782
0.0273464
0.0217558
0.103265
2.7181
6.72311
0.498113
1.21898
0.0958129
0.0201637
0.0209608
0.022378
0.0237964
0.0734948
2.62223
2.47693
0.146629
0.136591
0.0232476
0.0947646
0.0208212
2.50779
0.0953889
0.0231769
1.58136
0.154442
1.96775
3.46844
1.83159
2.81121
0.0321885
1.47375
3.22986
3.02891
0.333744
0.0264046
0.093565
0.0221762
2.64476
1.90224
0.067144
1.54378
3.16452
1.6674
0.113046
1.02951
0.0610668
0.0210396
1.40506
0.0932422
0.030325
0.0925487
0.0477453
0.0508768
1.66784
3.20864
0.0277832
0.0457874
0.0591738
0.0487652
0.0256699
1.86783
0.595281
0.0461812
1.44263
0.0218666
2.8845
0.0216145
0.0305565
0.0286148
2.82371
0.0596013
2.63943
1.42184
0.100768
0.0612297
1.28966
1.99145
3.04097
1.051
0.0251427
0.0756079
0.0211725
2.86228
0.348239
0.0247319
0.0216905
0.0581628
0.0348835
0.031094
0.0829262
0.0654345
0.0225963
0.0521227
1.51894
3.34947
0.113177
0.0688032
0.0197303
2.11332
0.0504274
0.115611
0.119419
0.0703138
1.84579
0.0202613
0.0270801
0.0302644
0.0506907
0.0216864
3.0497
0.0464111
2.63916
0.0576818
2.69798
3.41107
0.0341681
1.89459
0.118644
3.3577
1.30046
0.0635678
0.0299798
0.0665823
0.11562
0.0293534
3.19225
3.66487
0.360226
0.021063
3.4647
2.3251
1.96138
0.021484
0.0736951
0.0218249
0.0465797
2.45487
0.0438235
0.0430201
0.0211364
0.0210726
2.13018
2.97217
0.0225561
2.07959
3.29687
0.0201764
0.0257503
2.88912
0.60762
0.14519
0.0217046
0.0382372
0.150033
0.0219367
0.0216585
1.92537
0.0438303
3.00996
0.165582
0.0355673
2.75397
0.340474
2.4865
0.0211757
0.350793
0.0447789
0.0368103
1.64119
0.0677605
0.0230048
0.149151
0.0312023
0.0307234
0.0201042
1.57267
0.0218497
0.0908411
2.64517
0.161716
0.0212199
2.80654
0.0466924
1.32462
2.18405
3.28271
0.268365
2.61054
0.0208501
0.143555
0.0335371
0.0213585
0.380065
2.23466
0.0319512
0.0946802
0.0252848
0.1316
3.37601
0.0349915
0.0512308
0.447028
1.48996
2.35195
0.857424
0.0222218
0.0210614
0.0936059
0.0549832
0.766317
1.8208
2.49904
1.92518
2.48148
0.0210421
1.11224
0.0215506
0.0247944
0.0225177
0.353639
2.14446
0.104917
0.0215347
1.67202
0.0387587
3.5987
0.0210322
0.0970215
0.0459008
0.127793
0.0700905
0.164874
0.0263702
2.57575
0.302501
0.0212239
1.9498
3.42007
0.0655201
0.0240214
0.0453616
0.0220742
0.0217237
0.115494
0.0268383
1.27041
3.19596
0.169024
0.107817
0.0211811
1.59607
0.115577
1.98584
0.0458075
0.0467693
0.354389
0.0476132
0.0459534
0.0781137
4.38268
0.028806
0.0233288
2.60384
0.0494567
0.0289926
0.0362076
0.0450358
0.0205576
0.0366409
2.46234
0.02162
0.0701275
2.56832
0.624079
0.129963
1.76972
1.93311
2.47801
4.11664
1.53456
0.0915247
0.797355
0.0264686
0.0314202
0.0222476
0.0213129
1.43628
0.448255
0.0482077
0.0210201
0.109549
0.148697
0.0214584
0.0239137
0.0891151
0.0217353
0.0274036
1.98643
0.0363062
0.0603647
0.0585413
0.0217577
0.121097
0.116559
0.0442335
2.14809
0.122786
2.14028
0.808705
2.65422
0.0268623
1.57308
2.42052
3.38953
0.108457
2.4786
0.139725
0.0364494
0.0839417
0.118045
0.0278707
0.107026
0.0216217
0.0214559
0.019932
0.0313196
2.99558
0.0204344
0.174315
0.0308067
0.0286429
0.0309353
2.97754
0.027691
0.0995075
0.0224565
0.0312664
0.0328219
0.0209427
0.131739
0.0284393
0.0205929
0.0243904
0.0417347
0.0211125
1.88192
0.0385867
1.33803
0.238786
1.58123
0.103249
0.105326
0.043909
0.067215
0.0260588
0.0321701
1.66724
2.78641
0.752166
0.0950108
0.0488433
0.0212502
2.12216
0.0623886
2.80023
0.0223818
1.12396
3.22233
1.58467
1.38233
0.0200694
0.0215679
0.020379
0.0419442
2.77803
0.0716319
1.1083
0.0351571
0.0421759
0.0214479
0.0231055
0.0517694
0.0287599
0.0301918
0.020959
3.19779
0.051809
3.03328
0.0271301
3.43783
0.0208912
0.0201841
0.184139
0.0236539
0.0304648
0.116014
0.0306466
0.110739
0.0215911
0.0255585
0.0221051
0.0315965
2.69819
0.0219342
0.0285909
0.0262129
0.0299241
0.626984
0.0228751
0.084431
1.98394
0.0319382
0.0447317
0.0251187
0.0236727
0.0231625
1.1331
0.0224393
0.0359954
4.64445
0.0212286
0.0435079
0.0853388
0.0839947
1.23694
0.0200473
0.0294143
0.0225191
0.0456997
0.154273
0.335194
1.74457
0.0202984
0.0391291
0.100181
0.0239183
3.32716
0.0199275
0.0222387
2.16484
0.0675428
0.0289689
0.0199706
0.133268
0.286548
1.32718
0.022195
1.63831
0.0199494
0.0206782
0.028635
0.146686
2.70782
0.0222479
0.021317
0.0530958
0.0223662
0.0274921
3.34544
5.03897
0.0225279
0.0206271
0.0222229
0.0479076
3.13179
2.79137
0.023438
0.195754
0.0213082
0.0218058
2.173
0.0264637
0.0240263
0.0461172
3.00221
2.84383
0.0278419
0.0239612
2.91971
0.0680227
0.0250194
0.721541
1.55752
0.0222086
0.0230841
0.0270202
0.0214714
0.0222891
0.0212171
0.0201805
0.0646018
0.0266872
0.0643021
0.0800649
1.7857
0.316239
0.0470149
0.0200287
0.0225214
0.0241345
0.0271606
0.0678472
0.0427985
3.27843
0.0292121
0.0991228
0.0309468
1.35722
1.345
0.0418449
0.0230324
1.44365
0.0296066
0.0331408
0.021579
0.0246905
0.0212254
0.0328384
0.0612827
0.0671434
0.212216
0.0280535
0.0311913
0.0243308
2.78268
1.78057
0.386804
0.0377687
0.119625
0.110976
2.48734
0.02349
3.39226
0.114552
0.0216218
0.0227631
1.68975
0.0224561
0.0258255
0.0273457
1.09244
0.0221453
0.0228932
0.0327335
3.45648
0.0215129
0.0844625
1.07156
0.0288129
0.0220224
0.0218707
0.0216724
0.0227945
0.0229093
0.0361277
0.0228
0.0221112
0.0229917
0.0231756
0.0421065
0.0218213
0.120601
0.0220268
0.0228296
0.0613262
0.0371847
0.0262246
1.44172
1.11152
2.77474
0.0599487
0.0212166
0.0556688
2.27598
0.0201667
0.0465039
0.0238697
1.03815
0.028213
0.0706077
0.0227177
0.0215442
0.691642
3.52763
1.67702
0.124568
2.65747
0.0227415
0.0213076
1.90077
0.0201388
0.022081
2.8096
0.0211844
1.69785
0.0217201
2.82429
0.228029
0.0291469
0.114826
0.0267448
0.138975
0.146208
0.269065
0.631988
1.72436
0.0790113
1.64388
0.0224279
1.62198
0.0223265
0.0215313
0.0215269
0.0239396
1.01055
0.0251955
1.48434
0.0225438
0.0214558
0.0219739
0.087192
0.022539
0.0202519
0.0803874
0.0321681
0.0352694
0.0325397
0.0414125
3.04727
3.03539
0.121378
0.253577
0.164548
0.0248808
3.26129
0.0215758
0.037151
0.0882597
2.18353
0.0604614
2.76556
0.0222486
0.206406
1.80258
3.18819
2.49441
0.193969
0.0279899
0.0215839
0.0302919
0.0224033
0.0214863
1.93887
2.08519
0.0215645
2.40676
0.0215578
0.243682
0.0214022
2.41503
0.0336751
0.0279635
0.0203075
0.0716333
1.19358
0.374119
0.0207779
0.0208339
0.0367389
0.0227158
0.0241773
0.226726
0.103168
0.0773563
2.69766
0.0624144
0.0228211
0.0442727
0.0890328
0.0234897
2.61313
0.0930332
0.0491085
0.0278604
0.0301975
0.0202615
0.0195933
0.0215542
0.0364515
0.0209571
1.54711
0.0578936
0.0893137
0.0218075
0.0583639
0.0225628
0.0653465
0.0589381
0.0907178
2.76641
0.0351258
0.0216449
0.0326427
0.0229885
2.43486
0.0923376
0.0600617
0.0919461
2.75859
1.26832
0.428217
0.083075
0.0216811
0.0276787
0.0272619
0.0301377
0.115402
0.0360416
0.0226467
0.475553
3.34536
0.0232045
0.0274312
0.0940078
0.0253904
0.021459
0.0569704
0.0226628
0.0232245
0.0212015
0.0281649
0.0239609
0.0646664
1.52207
0.0215901
3.45588
0.168714
0.258548
0.0211641
0.0223276
0.0292765
0.0340756
0.0215663
0.0794262
0.0218202
0.0741603
0.0227041
0.0589329
1.83847
0.0896603
0.025798
0.0971072
1.90121
1.30312
0.0215737
0.0571821
1.70171
0.0221252
0.0249855
0.14666
2.01018
3.15622
0.0290143
0.0221033
0.0287362
0.0221804
0.0244128
0.0385512
0.0232997
2.75413
0.0229599
0.196403
0.0224835
0.0215862
0.066472
0.0214561
0.0221651
0.0389223
0.146837
0.0206899
0.0406074
0.0231301
0.0220085
0.0220428
0.0406717
0.0347549
0.111985
0.0278453
0.0230317
0.0230812
0.062291
0.0249148
2.47872
0.0239053
0.269545
0.0531036
0.0231859
0.039357
0.987545
0.0221765
0.023828
0.0199457
0.0944352
0.421762
0.0224783
0.0518899
0.0213616
0.0507908
0.0215193
0.158957
1.58406
0.0289889
0.0316474
0.0369276
0.0250323
0.0222822
0.0209229
0.0799441
0.0214857
0.0241398
0.022434
0.0224506
0.0214905
0.0210718
0.0538268
0.0228706
0.0211329
0.0529678
0.363839
0.0215089
1.57879
0.0202961
0.165566
1.63092
0.0218512
0.0245362
0.0223693
0.0673919
0.02229
0.0222565
0.0215575
0.0221323
0.455867
0.0759301