/*--------------------------------*- C++ -*----------------------------------*\
| =========                 |                                                 |
| \\      /  F ield         | OpenFOAM: The Open Source CFD Toolbox           |
|  \\    /   O peration     | Version:  v2012                                 |
|   \\  /    A nd           | Website:  www.openfoam.com                      |
|    \\/     M anipulation  |                                                 |
\*---------------------------------------------------------------------------*/
FoamFile
{
    version     2.0;
    format      ascii;
    class       surfaceScalarField;
    location    "300";
    object      meshPhiCN_0;
}
// * * * * * * * * * * * * * * * * * * * * * * * * * * * * * * * * * * * * * //

dimensions      [0 3 -1 0 0 0 0];
oriented        oriented;


internalField   nonuniform List<scalar> 
20673
(
0.00142111
0.000454478
-0.001856
-0.00158311
-0.00112981
0.00276334
-0.000518237
0.000344882
0.000173556
-0.00222877
0.000413577
0.00178499
-0.00468245
0.00475435
-2.52281e-05
-0.00126073
0.00132857
-6.7146e-05
-0.000540408
2.70324e-05
0.000511695
0.000252229
-0.00031957
6.74829e-05
-0.000143776
0.000162287
-1.82272e-05
-0.00139046
5.0664e-05
0.00134944
0.00074637
-0.000224577
-0.000522832
0.000761786
-0.00119041
0.00042561
-0.0011955
-0.000242075
0.000190801
5.09024e-05
-0.00237546
0.00376324
-0.001365
0.00118038
0.00204694
-0.00319427
0.0037383
-0.00146709
-0.00222434
-0.000661351
0.000337516
0.000326682
-0.000625483
0.00138466
0.0019111
-0.0020933
0.000258854
0.000724187
-3.09893e-05
-0.000677569
-0.000130986
-0.000409489
1.05473e-05
0.00271247
-0.00265258
-3.11541e-05
0.000283526
-0.00473838
0.00453998
0.000254788
0.000633784
-0.00053504
-9.84454e-05
-0.00101542
-0.00130694
0.00232216
0.000456156
-0.00164437
0.00118625
0.000830368
-0.00146139
0.000632478
0.000325854
-0.00107902
0.000759736
0.000539184
0.00112076
-0.00164497
0.000919729
0.00121851
-0.00211069
-0.00213029
-0.000473579
0.00260499
-0.000731187
0.00336226
-0.00262888
0.00196235
0.00273467
-0.00466103
0.000111814
0.000392356
-0.000504062
0.00252276
-0.00244169
0.000222383
-5.08638e-05
-0.00016945
0.00201696
-0.00192649
0.000676635
-0.000563983
-0.000113384
0.000245199
0.0001022
-0.000225473
1.93306e-05
0.000230201
-0.000240804
-0.000575693
0.000403172
0.000152938
0.00201716
-0.00177581
-0.00024309
-0.000844164
0.00170053
-0.000823092
-0.00339456
0.00323795
0.000158678
-0.000220232
-0.000433958
4.14631e-05
0.000217622
-0.000259218
0.0010655
-0.000985176
-8.39122e-05
2.17965e-05
-0.000304462
0.000391062
-0.000181683
0.00038991
-0.000204097
-0.00323184
0.00465718
-0.00141367
0.0012003
-0.000130653
-0.00318188
0.00245221
0.0026764
0.0011065
-0.00087824
9.34137e-05
0.000804857
0.000131754
0.000613745
0.00399124
0.0011392
-0.0050714
-0.001562
0.000899903
0.00069502
0.000723986
-0.00153913
-0.000792313
0.000851379
-5.70458e-05
-0.00336818
0.00184363
-8.04355e-05
0.00233664
-0.000353177
-0.00145887
0.000197168
-0.000199106
-0.000881216
0.00108228
7.99166e-05
-0.00458898
-0.00447297
-0.000688306
0.000293295
-0.000206483
-8.60651e-05
-0.00144723
-0.000587084
0.00205308
-0.00014246
-0.00449827
9.41243e-06
-0.000153046
0.000130944
-0.000196044
6.51923e-05
-0.0049241
0.000243487
0.000982865
1.90307e-05
-0.000999933
-0.00160023
0.000506186
0.00108575
0.000128759
-5.09014e-06
-0.000123356
-0.00124067
0.000664371
0.000599709
-0.000744528
-1.66827e-05
0.000760052
6.8661e-05
0.00149644
-0.00154538
0.00197705
-0.000466682
-0.00146568
-0.00404213
0.00127515
-0.00134918
7.57451e-05
9.53105e-06
0.00021519
-0.000849949
0.000899047
-4.8368e-05
-0.000412441
-0.000809553
0.0019758
-0.00193771
2.03031e-05
0.000664736
-0.000862335
-0.000439069
0.000260153
-0.000471571
-0.000120753
-4.0214e-06
0.000119199
-0.000114981
0.000287327
-0.0015702
0.00129224
0.00280671
-0.00130661
-0.00144457
-0.00156439
0.00394641
-0.00235895
-0.000358505
0.00102454
-0.00108307
-0.00031163
0.00139265
0.000139154
0.000239312
-0.000379865
-0.000313145
0.000123981
0.000190792
0.0012959
-0.000957078
-0.000340647
0.00104103
0.00100115
-0.00204553
-0.000685229
-0.000653217
0.00141732
0.00170892
-0.00292349
0.00121679
0.00140534
0.000609991
0.000276636
0.000287088
-0.000550278
0.00162007
-0.00189442
0.000337496
-0.000114474
0.000209754
-9.48754e-05
-0.00159048
0.00154343
5.00848e-05
-0.000200196
0.000242747
-0.00382041
0.00240466
-0.00115078
-0.000470746
0.00163622
-0.000435813
0.000499817
-6.38571e-05
0.00076497
-8.89716e-05
0.00128085
-0.000367841
-0.000918492
-0.00020134
8.77958e-05
0.000638516
-0.00335171
0.00271884
0.00116324
-0.000763693
-0.00039858
-0.00303027
-0.00107795
0.00418352
5.33925e-05
0.00103609
-0.00108809
-0.000186449
-0.000213786
0.000400713
0.00336735
-0.000688488
-0.00267719
-0.000641278
0.000668013
0.000179011
0.000113654
-0.000342675
9.95495e-05
0.000243055
0.00216453
-0.00170977
-0.00014856
0.00040312
-0.000151014
0.00248771
-0.0040253
-0.00189898
0.00112257
0.000812145
0.00018398
-0.000210595
0.000207012
-0.000306599
8.60478e-05
0.000246005
0.000252078
7.72222e-05
-0.000329224
0.00401762
-0.00337203
0.00114426
0.000579413
0.000728973
4.18862e-06
0.000249449
-0.000485405
0.000236639
0.000272699
-0.000303823
0.00185843
-0.000418161
-0.000513277
0.00155383
-0.00480854
0.000228036
0.00277414
0.000594607
-0.0001827
-0.000391995
0.000575311
-0.000875661
0.00150126
-0.000591911
-0.00449433
-0.00010175
0.00461376
0.000104976
0.00147255
-0.00158085
-0.00455656
9.07696e-05
-0.000188264
4.95314e-05
0.000138903
0.000865816
-0.0015085
0.000645588
-0.00489355
0.00167446
-0.000834975
0.00124602
-0.000384843
-0.00161526
-0.000630064
0.0022727
2.78087e-05
-0.000371044
0.00035773
0.000540126
0.000623966
0.000810502
-5.67316e-05
-0.000754229
0.00240387
-0.00222409
-0.000165706
0.000324712
0.00137369
-0.00167427
-0.00125352
0.000363642
0.000890485
0.00100967
-0.00243593
-0.000324903
0.000286153
3.93541e-05
2.04652e-05
0.000108835
-0.000228004
0.000478075
-0.00309594
-0.000436949
0.00354366
0.001758
-0.00266638
0.000908989
0.00141526
-0.00160725
0.000205849
-0.000306798
0.00044764
9.88513e-05
0.00117669
0.00104241
0.000253266
0.000616182
-0.000328448
0.000413858
-0.000250725
-0.000159717
-0.00189306
0.00115169
0.00078284
0.00276294
-0.0010512
0.000902304
0.00133783
-0.00222001
1.24692e-05
0.000400867
-0.000413169
0.000506605
-0.00120513
0.000694182
-0.00379088
0.00194352
0.00188938
-0.000196744
0.000133285
6.45523e-05
-0.00216121
0.00204572
0.000128474
-0.00017789
0.000430788
0.00103268
-0.000982199
-0.000179795
-8.09787e-06
-0.00302333
-0.000111652
0.00320042
0.0013269
-0.0010314
0.00181072
-0.00125546
0.000427184
-0.00126886
0.00236672
-0.000332525
-0.000285125
0.00266435
-0.00236708
0.000225879
0.000408569
-0.000939872
0.000210286
0.000733385
-0.000279978
-0.000970734
-0.00073954
4.21936e-05
0.000722293
0.000921138
-0.000204767
-0.000721114
0.000471524
-0.000437869
-3.4514e-05
-0.000772931
-7.64113e-05
4.42661e-05
-0.000935207
0.000893614
0.000777128
-0.00361231
0.00291506
0.00171861
-0.00169697
-2.21322e-05
0.00119215
-0.00220821
2.44155e-06
8.9876e-05
0.00174985
0.00111183
0.00143283
-4.14456e-05
-0.00138723
-0.000110195
-0.000796653
0.000909022
0.00083063
-0.000984489
0.000147385
0.000296222
-0.000191198
-0.000604067
0.000314551
0.000271531
-0.000407593
0.000443968
-6.41544e-05
0.000195639
0.000325088
-0.000114608
-0.000210607
-0.00242214
0.00441561
0.00432839
-0.000282509
-9.56958e-05
-0.00021624
-0.000638626
0.00021988
0.000419045
0.000395189
-0.00486959
-0.000450315
-2.51272e-05
0.000474287
0.000215418
-0.000150203
-6.50641e-05
0.00101596
-0.000100366
-0.000353605
0.00203436
0.00108433
-0.00153872
0.000451319
-0.000309606
3.74101e-05
0.000275823
0.000447405
-0.000347741
-9.90323e-05
0.000197246
-0.00292104
0.00277971
-0.000791132
1.03917e-06
0.00105422
-0.00400153
0.000872057
-0.000667151
-0.000200216
0.000443919
-9.76358e-05
0.00020386
-6.52402e-05
-0.000138742
-0.000120118
0.000222517
-0.000102202
0.00320876
-0.00199896
0.000455293
0.00106677
-0.00151691
0.00150938
-0.00116543
0.00195405
-0.00223411
0.000474327
-0.000362659
-0.000738126
0.00124088
-0.000637047
-7.40961e-05
0.000302112
-0.000433011
0.000130968
0.000111328
0.000104038
0.000489521
0.000200163
-0.000613649
-0.00103264
0.00197484
0.000132806
-0.000136463
-0.000784082
0.00078153
3.39118e-06
0.00146883
-1.6562e-05
-0.00137528
-0.00129409
0.00275283
5.4019e-05
0.000622504
0.000332911
-3.70888e-05
-0.000295553
-7.66367e-05
5.00621e-06
8.13562e-05
-0.000367327
-0.000410857
0.000776843
0.00051571
-7.71314e-05
-0.00043361
-0.000429234
0.00218949
-0.00110778
0.00176622
-0.000641182
-0.00015627
-0.0014182
0.00109544
-0.0025736
0.00149599
5.40784e-05
-0.000155145
0.000101051
0.00119009
-0.000541792
-0.000666576
0.00128113
-4.4737e-05
-0.0012277
0.00178572
-0.00165668
-0.000131521
-0.00116059
-0.000706288
-0.00337742
0.00456884
0.000928082
-0.000268918
-0.000662976
0.00079206
-0.000609372
-0.000182656
8.22286e-05
0.000726132
-0.00217551
0.0019003
-0.00314758
0.000794905
0.000148749
-0.000156169
1.27948e-05
-0.000123532
-0.000218829
0.000436718
-0.000427025
-7.53402e-06
0.00074307
3.86002e-05
-0.000782624
-0.000105902
0.00212079
0.000216514
-0.000254249
3.77163e-05
0.000223504
-7.35287e-05
-0.000150845
-8.96875e-05
-0.000234771
-0.000161175
-0.000583434
-0.000320956
-0.00128677
0.00185215
-0.00037618
8.61977e-05
0.000428154
0.000497027
-0.000320591
-0.000171029
8.67873e-05
-0.000158099
7.22205e-05
-0.000299557
0.000256112
4.74146e-05
-0.000694586
-0.000847022
0.000121216
0.000203715
-0.000637116
0.00175
0.000110317
0.000125775
-0.000250474
-0.000214072
-0.000309192
0.000524559
0.00180798
-0.00195777
0.000220249
-0.000151666
-4.42095e-05
0.00088016
-9.07187e-05
-5.57387e-05
-1.69646e-06
-0.00352736
0.00171184
0.00184137
0.00165576
0.000762756
-0.00134137
-0.00132386
-0.000588727
0.000221015
-0.00297708
0.00093957
0.00205684
-0.000628537
5.87653e-05
0.000568353
-0.000518278
-2.63113e-05
0.000547947
0.000396946
-9.45112e-05
0.000107011
0.000332403
0.00331682
-0.00305649
-0.000288004
0.000231597
5.27009e-05
0.00300777
-0.00361685
0.000620049
-5.45994e-05
-0.000573913
0.00156386
-0.00451595
-0.000372635
0.00124056
0.000595681
-0.00027951
-0.000221419
0.000706892
0.000169533
0.000932634
-0.00202111
-0.000852233
-0.00100054
-0.000287549
-0.00031652
0.00216879
-0.00294685
0.000820481
-4.68698e-06
0.000591392
-0.00057098
-0.00173708
-0.000411088
-0.0010192
-0.000540816
-0.000651774
0.00107916
-0.000408983
-0.00463039
0.00130534
-0.000533674
0.000169628
0.000363471
-0.000223117
-6.82644e-05
0.000291335
0.00273691
-0.0037509
-0.000275997
-3.39249e-05
0.000422921
0.000419532
-0.000633231
-0.00223533
0.00375162
-0.00144982
-0.000120357
-7.57129e-05
-0.00124452
0.000622195
0.000138471
6.48063e-05
0.00145417
0.000366034
-0.00184902
0.000278441
-0.001372
0.00109891
-0.00043276
0.000361366
6.08087e-05
-0.00092719
0.000988849
-6.17455e-05
-0.0041716
0.00108727
-0.000632765
0.000404483
0.000277217
0.0008921
-0.00117251
-0.00105864
-0.00244233
0.00034636
-1.28079e-05
-0.00127534
-3.0804e-05
0.00131052
-0.00429705
0.0021229
0.00221342
0.000352149
-0.000128135
-0.000224294
0.000545137
0.00117325
0.000113042
0.00011008
0.00155392
0.00203458
-0.00358468
0.000510885
-0.000460132
-5.10789e-05
-0.00125513
0.00196132
-0.000683047
0.000640042
-5.36543e-05
-0.000585634
0.00156617
-0.00129149
-0.00227805
0.00101315
0.00127132
-0.000658364
-0.00161088
-0.000282357
-0.000235945
0.000154484
0.00177613
-0.00190518
-0.00135164
0.00227206
-0.000450232
1.45338e-05
-0.00447446
0.000857347
0.00364731
0.00188332
-0.00351799
0.0016696
0.000219106
-3.15774e-05
0.00156978
-0.000131941
-0.00289158
0.00422628
-0.00128437
0.00037528
9.64717e-05
0.00125431
-0.000423562
0.000105784
0.00124491
-0.00125683
0.000222418
-0.000408019
0.000344908
-0.000526722
0.00018152
0.00207179
-0.000190795
-0.00125676
-0.00166009
0.00299545
0.003219
-0.000212056
0.000351903
-0.00116008
-0.000514558
-1.03261e-06
0.000149323
-0.000177154
2.78029e-05
-0.00122407
0.00153964
-0.00031306
-4.44297e-05
-0.000488745
-0.00332603
0.0050607
-0.00167431
0.00122315
6.29509e-05
-0.000532378
-0.000290792
0.000823477
4.98652e-06
0.000326997
-0.000330749
-0.000424697
0.000161725
-7.23594e-05
8.95073e-05
-0.0013222
0.000846125
0.000541434
-0.000133464
0.000875427
-0.00257853
0.000783309
0.00186787
-0.000846467
5.78225e-05
0.00161194
-0.000860731
-0.000960401
3.36585e-05
0.00052535
-3.18931e-06
-0.00180395
0.00124709
0.000498656
0.00155655
0.000461831
-0.00198817
-0.000316702
0.000224091
0.00105722
0.000275392
-0.00046493
0.000201092
0.000272275
-0.000139641
0.000824041
-0.00068741
0.000176708
0.000463804
0.000146735
0.000300728
0.00239318
-0.00128334
-0.00154712
0.000166196
-0.00208989
0.000786545
-0.000312484
-0.000470952
-0.000207952
0.000542242
-0.000334005
0.00538392
-0.00220816
-0.00311931
-0.000528093
-0.000103049
0.00487745
-0.000595909
-0.00423046
0.000305729
-0.000390205
9.05232e-05
0.00172242
-0.000293555
-0.00153931
0.00172163
0.00120596
-0.00219563
0.00101686
-0.000334967
0.000789119
-0.000454163
0.00250644
-0.00126913
0.000542462
0.000249294
-0.000824086
0.0010592
-0.000234111
0.000276655
0.000170236
-0.00044723
-0.00162605
0.00127361
0.000349863
-0.00252395
-0.00173385
-0.000209892
0.00129209
-0.000736132
0.000647685
-0.00322022
0.0026557
-1.64921e-05
0.000100283
-0.00453842
-0.00477127
0.000432877
0.00437387
0.000883945
-0.000552685
0.000200027
-3.4613e-05
-0.00399949
-0.00123999
0.00528983
-0.000218709
-0.00230438
-0.000558536
4.76808e-05
0.00112402
-0.00103684
-3.76571e-05
0.000548042
0.000876287
-0.000662394
-0.000213697
0.00105617
-0.000896978
-0.000158994
0.000892027
-0.000845748
0.000708582
-0.00037033
-0.000338121
0.000395872
-0.000295652
-0.000100391
-0.000348969
0.000353925
0.00105666
-0.00432129
0.000155676
-0.000520034
0.000363088
0.000705684
0.00129587
-0.00132036
-0.000670542
0.00201655
0.00341108
-0.00256452
-3.02174e-05
-0.00033415
-0.000304634
0.000607381
0.000268504
-0.00145444
-0.00175691
0.00323712
-0.000445946
0.000281072
0.00016826
-0.00260988
0.0041696
-6.31666e-05
-0.00189084
-0.000324876
-0.000132704
-0.00328442
0.000376169
0.00294564
0.000924399
-0.000208348
-0.000717464
-0.00255017
-0.00122045
0.000346821
0.000322481
-0.000201839
8.18159e-05
0.000204622
-0.00038174
-0.000190741
0.000396521
0.00122249
-0.00133428
0.00012169
0.000236756
0.000819643
7.24815e-05
0.000280072
-0.000316686
2.45342e-05
0.000301888
9.90426e-05
3.84773e-05
-0.000137031
-0.000105517
-0.000119519
0.000244768
0.000376503
-0.00019145
-0.000182976
-0.000126796
-0.00312069
-0.00117192
-0.00324231
0.0044596
0.000148075
0.000232314
-0.000379064
0.000281891
-0.00030523
4.52541e-05
0.000174423
-0.000894105
0.000801756
9.82122e-05
-0.000172174
0.000389062
-0.000218003
0.000155309
-5.48121e-05
-9.99339e-05
-0.00207786
0.00279027
-0.00036732
0.000161617
0.000204396
-0.00102798
0.000943366
8.56922e-05
-0.0010691
0.00127709
-0.000203618
-0.000471746
0.000335937
0.000135779
0.0011082
0.00274868
0.00268906
-5.64492e-05
0.000130473
-0.0010289
0.0020554
-0.000511096
-0.000743059
-0.00028967
0.000694658
-0.00040454
6.37348e-05
-0.00128546
-0.00125564
-0.00170146
-0.000887459
0.000170062
0.000717681
-0.000892013
2.16852e-05
8.79395e-05
-0.000393336
-1.6764e-06
-0.00031841
-0.000730241
-0.000776913
0.000821789
-0.000546092
-0.000488311
0.000306363
-0.00019131
-0.000179204
0.00062929
0.000484675
-0.00110892
-0.000529887
0.000274415
0.000257195
0.000970117
-9.80395e-05
-0.000875302
0.000391887
0.000396269
-0.000789711
-0.000182285
-0.00030706
0.00120963
-0.000908241
-0.000161779
-8.84771e-05
0.000251715
0.000117248
-5.43734e-05
-1.77661e-05
-0.000340687
0.000414934
-7.16749e-05
-0.00031447
-0.000172688
0.000482037
0.000278667
-0.000919992
0.000627987
0.00129731
-0.00230496
0.000416179
-0.00110771
0.000709939
6.75813e-05
8.82833e-05
-0.000149132
-5.1606e-05
-0.00333213
0.00115901
0.000166242
-6.50936e-05
-0.000241108
0.000607791
-0.000365809
0.000131189
0.000257514
-8.26227e-06
-0.000125593
-0.000127262
-0.000344286
0.00076085
-5.21927e-05
-0.00071683
-2.75121e-05
0.000954201
-0.000923172
0.00404984
-0.00205399
-0.00192099
0.000153648
-0.000230918
7.75669e-05
-0.000125314
0.000198421
-7.30059e-05
-0.00238499
0.000796752
-5.16236e-05
-0.00156733
0.00164704
0.000264677
0.000444103
-8.06406e-05
-0.00085135
-0.000521467
-0.000255845
0.000777412
0.000184601
1.92181e-05
-0.000126513
-6.06014e-05
0.0001874
0.00102895
0.00014669
-0.000647342
0.000501437
0.000748802
-0.000474201
0.000687136
0.000212354
2.69986e-06
-0.000310598
0.000304531
0.000634654
-0.000391603
-0.0002455
-0.00266406
0.00148013
-0.00239913
-0.00109485
0.00353209
0.001232
0.000443118
-0.0001323
-0.000305044
-8.98241e-05
0.00137849
-0.00295453
0.000130121
0.000673474
-0.000713521
-0.000627241
0.000846437
0.000276954
-5.97883e-05
-0.000218358
0.000367208
0.000285642
0.000554826
0.000430107
-0.000985291
-4.79106e-05
-0.000212505
-0.00117144
0.000549121
-0.000322387
-0.000119782
0.000184205
-0.00029832
0.000114338
0.000344696
0.000670641
-0.00100246
0.0016106
-0.00042299
-0.000591758
-0.00412772
0.00409299
-0.00444755
0.000363764
0.00056639
-0.000785397
1.30634e-05
0.0015975
-0.0018428
0.000293039
-0.00419225
0.00411369
0.000100773
0.000789933
0.00104232
-7.40506e-05
-8.55664e-05
-0.000354783
0.00535958
-0.00255441
0.00290116
-0.00110016
-0.00176615
-0.00223542
4.8903e-05
0.00221554
0.000121367
-0.000279981
-0.00136086
9.04627e-05
0.000763642
-0.000304653
0.000462711
0.000289576
-1.00311e-05
-0.000275732
0.000203631
-0.0003182
-0.00137983
0.000369684
-0.00109048
-0.00267811
0.00382861
0.00016849
-0.000114203
-6.47307e-05
-0.00106478
0.00297874
0.000134657
-0.000808034
0.000685149
4.54325e-05
-0.000381877
-0.0020585
0.0016383
0.000430718
-0.000396461
0.000141759
0.000325152
-0.00112086
5.60448e-05
-0.00089618
0.000187241
0.00071481
-0.000594307
0.000958819
-0.000363956
3.7082e-05
0.000256243
-0.0031482
0.00112778
0.00202672
-0.000430135
0.000258623
-0.00131716
0.00290205
-0.000228984
0.000336686
-0.000838163
0.000308747
-8.69445e-06
-0.000299477
-0.00358671
0.00109059
0.00105481
-0.000236894
-0.000804324
-0.000385722
0.000818413
9.4538e-05
6.9017e-05
-1.21389e-05
-0.000200041
-0.000192652
0.000320314
0.0013243
-9.80085e-05
0.00348823
-0.00141051
0.000752624
0.00108634
-0.00181381
0.00338356
0.00202008
0.00210671
-0.00209847
-2.27941e-06
0.00150893
-0.0045458
-0.000328352
2.22384e-05
0.00127069
-2.22573e-05
0.000332385
-0.000804192
0.000282714
0.00310989
-0.00132746
-0.00174851
0.00044085
-0.000352126
-0.000192374
6.90915e-05
-0.00329834
0.00215555
0.00116732
0.00181308
-0.00508237
0.00328676
0.00116618
-0.00041368
-0.000753235
-6.18463e-05
0.000243502
-0.00018048
0.000179676
-0.000136361
-4.28513e-05
-0.000911627
0.000974832
-6.1492e-05
0.000258073
-4.64917e-05
-0.000121372
0.000344444
0.00172764
-7.51852e-05
-0.000227957
-0.00140075
-1.53506e-05
0.00143276
-0.00038837
0.000441506
-5.21153e-05
0.000868333
-0.00299802
-0.00103685
-3.4719e-05
-0.00058369
0.000737252
-0.000153902
-0.000181888
-0.000344847
-0.00113431
0.000195573
0.000930722
-0.000387351
0.000159194
-0.000596688
-0.000501668
0.00111351
0.000132759
-3.32231e-05
0.00140097
9.15717e-05
0.00198446
-0.000347921
-0.000101404
-0.000189804
-0.000203756
0.000140097
-0.00132718
0.00142627
-0.000103189
-0.00098104
0.000398845
-0.0022949
-0.00144832
-0.000246849
-0.00392173
-0.00158052
0.000933223
-3.34234e-06
0.000223472
0.000815785
-0.00101899
0.00179628
0.000172916
0.000647208
-0.000276167
0.00261582
0.0014908
-0.000590573
0.0010494
-0.00101236
0.00123197
0.000965737
0.000155709
-0.00112277
0.00445916
-0.0019971
-0.00239694
0.000408717
-0.000232606
-0.000173467
0.00109725
4.84145e-05
-0.000871556
0.00139671
-0.00133581
-0.000301417
-0.00174517
0.000401042
0.000664866
0.00101132
-0.000183918
-0.000734661
-0.000541478
5.16509e-05
0.000487717
0.00195006
-0.000792875
0.0020249
-0.0016706
-0.000345242
-0.000527266
-0.00286529
-0.000674017
-1.84434e-05
0.000687908
0.000707952
-0.000847954
0.000247695
0.000168746
-0.00110887
0.00130323
-0.000514192
0.000339647
0.00018219
-0.000215718
-0.00111281
0.000405848
0.00010265
-0.000509444
0.000763128
0.000411561
-0.00215984
-0.000971255
0.00313552
0.00300799
-0.00154897
0.00170886
-0.00116442
-0.000559107
0.00128469
-0.000365136
0.000262539
-0.000262413
0.00157988
-5.22723e-05
0.000958798
-0.00128657
0.00128337
-1.14098e-05
0.000335853
-0.000561382
-1.528e-05
-0.00113739
0.00116016
0.000208414
-0.000140394
-6.77108e-05
-0.00164087
0.00183388
-0.000181744
-0.00381919
0.00146469
8.45735e-05
-0.000141764
5.76294e-05
0.000207867
-0.000220315
-0.00120032
-0.00269363
0.00395031
-0.000801595
0.000939837
-0.000185111
0.00019109
-6.54309e-06
-0.000853783
-5.11921e-05
-0.00023258
-6.33748e-05
0.000214423
-0.000169115
-1.22912e-05
0.00157031
-0.00159315
-9.28842e-05
-0.00127327
-0.000720947
-0.00111774
0.000562093
-0.000349984
0.000740933
0.000184511
-0.000513904
-3.89124e-05
-6.87846e-05
-0.000505646
0.000577929
-8.84104e-05
-0.000699676
-0.000517456
0.00119497
0.00198798
-0.00185959
-0.000163581
0.000107843
0.000826714
-0.000836117
0.000111651
-0.000334671
0.000813987
-7.44613e-05
0.00194016
-0.00336741
-0.000421913
0.000434582
-0.00347778
0.00151832
0.00198998
-2.56984e-05
-0.000180932
0.00196427
-0.000567999
0.00164813
-0.00212173
0.000866844
0.00104082
-0.00221551
0.00119085
0.00414487
-0.00251242
0.000452881
-0.00117565
0.000730411
0.000648441
4.55242e-05
-0.000581119
0.00062081
0.0011558
-0.00176812
0.000103497
0.000648213
-5.01686e-05
-0.000976304
-0.00108204
0.000615917
0.000464088
0.000253246
-6.88612e-05
-1.97055e-05
0.000207963
0.00227118
-0.000956455
-0.000413786
-0.000760165
-0.000687128
0.00145887
-0.000210504
0.000188994
1.63919e-05
-0.000211403
5.89196e-05
0.000152934
-0.00014311
0.000483558
-0.00371544
0.00530583
-0.00154588
-6.25756e-05
-0.00049413
0.00129719
0.000125524
0.000121729
0.00084252
-0.000689316
2.37715e-05
-0.000394605
0.000230397
0.000167827
-0.000371575
0.000765429
-0.000393236
-6.1361e-05
-0.00157326
0.00165343
0.000710085
0.00102745
-0.000556574
8.582e-05
0.000471729
0.00138881
-0.00142618
0.000400732
-0.00054433
-0.000891776
-0.000426144
0.00131742
0.000179916
0.000508529
-0.00068497
-1.24729e-05
0.00127032
-0.00123599
-0.000487786
9.653e-05
-0.0027618
0.00172442
0.000461172
-0.000944306
0.000469955
0.000242655
0.00144195
-0.00164375
0.000508207
0.00168917
-0.00229165
-0.00301764
0.00474296
-0.00165696
-0.000219586
-0.000350188
9.12165e-05
0.000261676
-4.30843e-05
-0.000411833
0.000453504
0.000292683
0.000277811
-0.00462179
0.000940357
-0.00439349
0.000563396
0.00387385
0.000819119
4.38968e-06
-0.000331064
-0.00274125
0.00310157
0.000719136
-0.00109715
0.00034415
0.00240544
-0.00176375
-0.000611702
1.48907e-05
-0.000850633
0.000927302
-8.95296e-06
0.000162859
-0.000604216
-0.000821507
0.00142014
0.000230595
-0.00143209
0.00121141
9.14831e-05
-0.00122036
-0.000768313
0.000853839
-6.54068e-05
-0.00237634
0.000209551
0.00216793
-0.000269431
0.000908059
-0.00116947
-0.00289607
0.00407173
-0.000645583
0.000517558
0.000130032
0.000258453
-0.00149226
0.00124281
-4.32933e-05
-0.000801445
-0.00106146
-0.000438442
0.000166057
0.000276556
0.000409465
-0.000504901
0.000100365
-0.000377056
0.000713366
-0.000324236
0.000255106
-0.000782366
-3.74833e-06
0.00220447
-0.000229835
-0.00031675
0.000546738
1.94893e-05
-0.000774263
0.000105122
0.000179767
-0.000285127
0.00225472
0.000177634
-0.000840304
0.00030813
-0.00204834
0.000208295
0.00185223
-0.00100467
0.00127005
0.000650555
-0.000313483
0.000641529
-0.000566735
-9.30064e-05
3.50218e-05
-3.8255e-05
-0.00123235
-6.97921e-05
0.00440364
-0.00431422
-0.00198888
0.00441287
-0.00238665
0.000614118
-0.000520295
-9.15681e-05
-0.00133544
0.0033146
-0.00320806
0.00309234
0.000146981
0.00129654
-0.000952841
-0.000327861
0.00262722
-0.00159124
-0.000949253
-7.44418e-05
9.59503e-05
-3.09298e-07
-0.0011413
-0.00282567
-2.57847e-05
-0.000189219
0.000909504
0.00106914
-0.00195879
0.000325539
-0.00104418
-0.000252184
0.000477831
-6.75043e-05
0.000160969
0.00137451
-0.00172042
0.00427545
-0.00250485
-0.00264994
-0.000892491
-0.000129053
-0.000513921
0.000185449
-0.000194655
7.47867e-06
-0.000445103
0.000411001
3.43545e-05
-0.00161861
-0.00152283
-0.00112791
0.00112415
0.000842739
-0.000283397
-0.00013454
6.97987e-05
-0.00116974
0.000857065
0.00185933
-0.000381713
0.000344757
3.60877e-05
0.00339813
-0.0013601
0.000184684
-0.000313727
0.00133694
-0.00268873
0.00139376
0.00392093
-0.00166361
-0.0022385
-0.000244401
-0.000108288
0.000352749
0.00507757
-0.000150767
0.000113806
-0.000440299
0.0027654
0.00122555
-0.00393425
-0.000606725
0.000545602
0.000143902
-0.00169998
0.00124523
0.000947157
-0.00228932
0.000497309
0.00071502
-0.00119178
-0.000174579
0.000148793
-0.000623266
0.000167604
0.000455268
0.00128604
0.00227519
0.000848868
-0.000472904
-0.000398334
-0.000595817
0.0011485
-0.0005556
0.000308381
0.000214708
-1.29857e-05
0.000289753
-0.000133877
-0.000156115
0.000406095
0.000424952
-0.000508011
0.00163877
-0.000414165
-0.00125611
-0.000548614
-0.000108052
0.000652664
0.000234196
-0.000294301
0.00078533
-0.000479766
-0.000980853
0.000434833
-0.00134659
0.0011375
0.000225154
-0.00085296
5.69867e-06
0.000854301
-0.000390488
0.000426285
-4.36204e-05
0.0052427
-0.00369835
-0.00153135
-0.00398884
0.00180831
0.00224531
0.000380597
0.00157302
0.000616444
-0.00117062
0.000551883
-0.00107883
0.000723797
0.00034187
0.000612578
-0.000697963
0.000101322
-0.000159751
6.54212e-05
9.61836e-05
0.000150637
-0.000100395
-0.000168013
-0.000965149
0.00106654
0.000217635
0.000147385
-0.00036056
0.000637171
-4.17958e-05
-0.000580287
-0.000950219
0.00161202
-0.000625788
0.000882186
0.00235756
-0.000190256
-0.000739903
0.00136791
-0.00318162
-7.31098e-05
0.00329168
0.000906307
-0.00242929
-0.000118885
-9.23636e-05
-0.000269383
0.00042014
-0.000141318
0.000456536
-2.83674e-05
-0.000427908
-1.87706e-05
0.00285309
-0.000292756
0.000224196
0.000264822
-0.000344135
9.01698e-05
0.000724668
-0.00111261
-0.000242738
-0.000377126
0.000620003
0.00102339
4.70972e-05
-0.00106896
-0.00177089
-0.00215011
-0.000496915
-5.82703e-05
-0.000423649
0.000760004
0.000528411
-0.000811532
8.25964e-05
0.00119213
-0.000212671
-4.1284e-05
-0.000199346
0.00087771
3.15877e-05
0.000588835
-0.000376761
0.00095145
-0.00154361
0.000589199
0.000919359
-0.000943965
-0.000750926
-0.00132976
-0.000942153
0.000548418
0.000383762
0.00179837
0.00100147
-0.00279963
0.0017584
-0.00176103
5.38009e-05
0.000412315
-0.00139562
-0.00101685
0.00248209
-0.000330559
0.00319243
-0.00286176
-0.000298454
-0.000805768
1.01703e-05
0.000229318
-0.000436567
-0.000211217
0.000647962
-0.000497597
0.000354613
0.000142727
-0.00326013
0.00110486
0.000469056
-0.000124604
-0.00043376
-5.42913e-05
0.000488067
-0.00314122
-0.00143616
-0.000355931
0.000234771
0.000367074
0.000485435
9.65814e-06
-0.000443268
0.000670652
-0.000544909
-0.000125542
-6.80388e-05
-8.95873e-05
0.000507936
-0.00110116
-8.90299e-05
-0.000424901
0.00251016
-0.00356641
-0.000601244
0.000390342
-0.000130034
-0.000497264
0.000289322
0.000246396
0.000502173
-0.00249592
0.00124033
0.00226413
-0.00393289
-2.54535e-05
-0.000114917
0.000444137
-0.000325721
0.00198265
0.000985934
-0.0029642
0.000308348
-0.00014029
-0.000168199
-0.00119327
-0.00125692
5.98056e-05
0.00377464
-0.00381008
-0.000902312
0.000544486
0.000357215
0.00136713
-2.192e-06
-0.00135966
0.00218397
0.00306606
-0.00258638
-0.00136899
0.000946026
0.000440281
0.0012042
-0.000427561
-0.000755203
-0.000163836
-0.000918977
-0.000953296
-0.00163109
0.00251062
0.00132025
-0.00381703
-0.000662914
0.00161642
-0.000471898
-0.000151407
0.000171127
-0.000415401
0.00106874
-3.23095e-05
0.000319004
0.00128923
0.000861941
-0.000937273
-0.000814397
-7.58007e-05
-0.000624371
0.000623812
7.46789e-07
0.000104425
-0.000545615
-0.000788465
0.00132931
0.00176594
-0.000119733
0.000536802
0.00258487
-0.00121063
0.0004705
-0.000447135
0.00259674
-0.000194234
0.000101158
0.000232193
-0.00244156
-0.00100047
0.00094967
0.000319753
0.000565119
-0.000884859
0.000321666
-0.000200474
-0.000118375
-0.00144721
0.0014457
-0.000153972
5.9874e-05
0.000240279
-0.000310629
-0.00122853
-0.000847158
-0.00370303
0.00457619
-9.43493e-05
-9.42292e-06
0.000103912
0.000880966
-0.00169239
0.00192525
-0.0038761
0.00191809
0.000683832
-0.00260231
-0.000799486
-8.70448e-05
0.000268123
0.00262376
0.00189908
-7.05072e-05
-0.000368651
0.000438712
0.000220453
0.000248712
0.000102404
-0.00020453
0.000103434
0.000251482
2.05307e-05
-0.000269477
0.000490983
-9.92768e-05
-0.000468161
0.00260168
-0.00208008
-0.000132539
-0.00023108
0.00036403
0.00355466
-0.00437883
-0.00384943
0.00175391
0.00217462
0.00509195
-0.00326054
0.000435219
-0.000724276
-0.00035278
-9.19639e-05
0.00059518
-0.00021069
-0.000376018
-0.000415135
2.29792e-05
0.00401067
-0.00118866
-1.42003e-06
-0.00283397
0.000996055
-0.000863817
-0.000116459
0.00445152
-0.00450051
0.000986021
-0.00382276
-0.000437293
-0.000350235
-0.000604432
0.000941958
0.00157228
-0.00143152
-0.000135927
-0.000210242
0.000470488
-0.000259509
0.000953625
-0.00207155
0.000154005
-0.00155888
0.00141461
0.000752963
0.00239074
-8.36694e-05
-0.000147048
-0.000165635
0.000224383
0.000205314
0.00029449
0.000383059
-0.000160493
0.00109399
-6.79132e-05
-0.000503518
-0.000724632
0.000389771
-0.00147919
-7.98421e-05
-0.000664883
0.000776286
-0.00144924
-0.00038155
0.00184872
0.000243652
0.000340062
-0.000580142
0.000854847
-0.000895144
3.95474e-05
0.000649473
-0.00106382
0.000415697
-0.000195908
-6.92279e-05
0.000266167
0.000868777
-0.000636452
-0.000135826
0.000299033
-0.000182414
-0.000114081
0.000319411
-0.000873152
-0.00163173
-0.00111316
-0.0003054
-8.34387e-05
0.000388797
0.00295332
-0.00408434
-0.00146629
1.69139e-05
0.00157339
0.00107783
-0.00261332
0.00120025
0.000110493
-0.00128418
-0.00034341
0.000663325
-0.000565472
0.000625357
-3.4998e-05
-0.00070705
0.00349135
-0.000468764
-0.00128514
0.000264899
0.00102884
-0.000355343
0.000280276
7.64421e-05
5.39352e-05
0.00123947
-0.000441923
0.00131647
-0.000878084
-0.000248959
0.000581536
-0.000332708