/*--------------------------------*- C++ -*----------------------------------*\
| =========                 |                                                 |
| \\      /  F ield         | OpenFOAM: The Open Source CFD Toolbox           |
|  \\    /   O peration     | Version:  v2012                                 |
|   \\  /    A nd           | Website:  www.openfoam.com                      |
|    \\/     M anipulation  |                                                 |
\*---------------------------------------------------------------------------*/
FoamFile
{
    version     2.0;
    format      ascii;
    class       volScalarField;
    location    "300";
    object      p;
}
// * * * * * * * * * * * * * * * * * * * * * * * * * * * * * * * * * * * * * //

dimensions      [0 2 -2 0 0 0 0];


internalField   nonuniform List<scalar> 
13917
(
-0.0585126
0.00482253
-0.153392
-0.0418813
0.0276526
0.456931
-0.14831
-0.160007
-0.200296
-0.0991605
-0.138491
-0.102197
-0.0427002
-0.165954
0.0580417
0.0359129
0.0118223
-0.115794
-0.10065
0.0124751
0.0213214
-0.144989
0.0173421
-0.164085
0.0289234
-0.139918
0.218332
0.236304
0.132191
-0.152383
-0.0728104
-0.026637
0.175694
0.109159
0.0330869
-0.145626
0.0173195
-0.166839
-0.0509832
-0.123245
0.00204473
0.0201487
-0.0102139
0.266454
-0.0177548
0.127088
-0.11411
-0.128911
0.513791
0.00721508
-0.0642372
0.0587793
0.515609
0.113421
0.0133349
-0.0586865
-0.138739
0.0298219
-0.0436901
-0.0165469
-0.277485
0.00331515
-0.165687
0.0126217
0.449178
-0.282097
0.0277651
0.0350632
-0.159639
-0.0269084
0.0272978
-0.199541
-0.210122
0.0281982
0.504294
-0.10055
-0.195181
-0.0310731
-0.133994
0.0211678
0.0185567
0.0272389
0.437549
-0.16717
-0.293807
-0.0304423
0.0166941
-0.249212
-0.0627978
-0.0105907
-0.195993
-0.132599
-0.00312921
0.054572
-0.279272
0.447464
-0.13969
-0.125597
-0.11959
0.334772
0.000585587
0.166625
0.273767
-0.0399959
-0.00159887
-0.202677
0.101105
-0.131716
0.0101423
-0.0722282
-0.249723
-0.124089
-0.110998
-0.200943
0.0750699
0.502667
0.0200126
0.501359
-0.145126
0.113423
0.0202311
-0.159079
-0.151147
0.229626
0.00560496
0.0528797
-0.0123776
0.00583937
-0.00799467
0.455823
-0.15048
0.0726619
-0.0177161
0.0215585
-0.222099
-0.161564
-0.0555914
0.348937
0.0281745
0.112148
-0.143399
-0.00884701
0.0629321
0.29996
0.0357687
-0.196911
0.0781475
0.0570696
-0.0086026
-0.0209686
-0.111289
0.496277
-0.122272
0.0067359
-0.0456977
-0.305634
-0.0229372
-0.163478
-0.195243
-0.225296
0.0858301
0.213982
0.0191051
-0.137875
-0.110437
-0.118789
-0.0388401
-0.118585
-0.0126769
0.171795
-0.0120197
-0.261552
-0.111051
0.0158741
-0.184284
0.0153802
-0.148411
0.508621
-0.192399
0.00932926
-0.137827
-0.0777101
-0.0095357
0.0169385
0.0907107
-0.142344
-0.207379
-0.301172
-0.0875602
-0.122993
-0.154893
-0.293749
-0.20277
0.020859
0.363656
0.210485
-0.00204815
-0.00297139
0.0815534
-0.2544
-0.0607856
0.00750119
-0.112918
-0.109613
-0.209499
-0.204345
0.0326602
0.0307998
-0.123941
-0.145691
0.06098
-0.149696
-0.21005
-0.122815
-0.00116173
0.336387
-0.116534
-0.243739
0.0181707
-0.272022
0.00934929
-0.14798
0.00251903
-0.171724
-0.205881
0.0357362
-0.210379
-0.0486382
-0.000613164
-0.150552
-0.109285
-0.0867948
-0.154744
-0.210999
-0.00143309
-0.0294979
-0.196174
-0.301704
0.0195246
0.00820933
-0.118483
-0.145361
0.0105246
-0.14423
-0.150145
0.206132
-0.0569529
0.0188296
0.0469264
-0.204168
-0.0257504
-0.152898
0.352467
-0.0125217
0.0302641
-0.113043
-0.121703
-0.120708
0.0899576
0.0550226
0.0108013
-0.150573
-0.232162
-0.143104
-3.27776e-05
-0.222442
-0.168953
-0.16676
-0.130701
-0.102626
0.0189166
0.00448196
-0.115203
-0.180224
-0.154108
-0.0425672
-0.206154
-0.0790823
-0.00800946
-0.241256
0.0113662
-0.183148
-0.0588065
0.0104748
0.0320053
0.0117703
0.214749
-0.14451
0.0343566
-0.0263079
-0.214857
-0.1529
-0.228408
0.0183912
-0.1697
0.0251223
-0.0265135
0.019573
0.049459
0.00909947
-0.152227
-0.0528717
-0.0126609
-0.113993
-0.00904051
0.51667
0.0162896
-0.127818
-0.013449
0.0293684
-0.252013
-0.154573
0.0197655
0.00360612
-0.247579
0.00522935
-0.209093
-0.0127078
-0.172123
-0.0329921
-0.185599
-0.0841763
0.489571
0.0822233
-0.223396
0.363242
0.0298425
-0.146274
-0.0179887
0.0314498
-0.15597
0.358852
-0.169366
0.100715
-0.13421
-0.0355414
-0.270083
0.357718
0.0694567
0.0582236
-0.152464
0.0222201
-0.0172
-0.250054
0.043595
0.0283501
-0.166156
0.0776778
0.0106334
-0.155102
0.164163
0.00236951
-0.144761
-0.146863
0.0114777
0.0063699
0.0248954
-0.00907812
-0.210718
-0.189281
0.392749
-0.253204
0.0247492
-0.158461
-0.300952
-0.0988087
-0.148469
-0.181435
-0.204371
-0.00175228
-0.141417
0.00472815
-0.272445
-0.0155168
0.482164
-0.151695
-0.0512182
0.0225981
-0.121057
-0.142998
-0.13538
0.00188144
-0.268951
-0.244242
0.0424107
-0.0930166
0.00833087
-0.302257
-0.144712
0.0259939
-0.22315
0.0278921
-0.198395
-0.0328824
0.0221516
-0.00403933
-0.124678
-0.00220876
-0.122944
-0.29248
-0.132242
0.396047
0.0295692
0.34998
0.37981
0.0157966
0.105503
0.0420967
0.0293801
-0.150639
0.0108803
0.0303276
0.00438123
-0.206872
0.021121
-0.135008
-0.127325
-0.294129
-0.199301
-0.130224
-0.236309
-0.0970622
0.0242177
-0.179519
-0.0504703
-0.0336402
0.0209467
-0.189968
-0.14683
-0.130593
0.0467062
-0.156549
0.0971758
-0.052299
-0.133864
0.00989644
-0.125927
0.00887143
0.00917756
-0.209565
-0.148302
-0.147423
-0.139481
-0.294565
-0.155994
-0.235351
-0.185195
-0.00706098
-0.119873
0.00799645
0.0334224
-0.207104
-0.11653
-0.0105079
-0.124733
-0.0960215
-0.181063
0.0157439
-0.145775
-0.292231
-0.211543
-0.137951
0.0213976
0.0272491
-0.00238258
-0.0176391
-0.00185782
-0.138916
0.402514
0.0322293
-0.30345
-0.0583207
-0.137741
-0.235828
0.0693474
-0.130557
-0.149284
-0.146474
-0.120321
-0.174577
-0.0913746
-0.131081
0.449123
-0.091863
-0.135008
-0.00495685
-0.22175
-0.0668589
-0.0169625
-0.0135109
-0.0336658
-0.183121
-0.204659
0.0055816
-0.00787119
-0.144641
-0.236765
0.0106991
-0.13733
-0.039992
-0.187408
0.00692704
-0.216633
-0.19146
-0.0239635
-0.0123147
-0.130062
-0.199694
-0.305311
0.0110057
-0.207744
0.513145
-0.247581
-0.0169654
-0.295869
-0.228245
-0.0992225
0.0057513
0.0181376
-0.0985101
-0.20385
-0.010712
0.00653893
0.00596611
0.00569269
-0.222016
-0.205699
-0.0979162
-0.20585
0.00425796
0.000959366
-0.153896
-0.218179
-0.0758775
-0.0135902
0.029016
0.0309654
-0.244762
-0.292111
0.0152572
0.0313343
-0.126932
-0.0911257
-0.0839452
0.028229
0.000543487
-0.0108379
-0.133102
-0.00228734
-0.210421
-0.181271
-0.148096
-0.206253
-0.127332
0.0194235
-0.205241
0.0305307
0.0279
-0.0507922
-0.220179
0.0220438
0.000797294
-0.20983
-0.160807
-0.290196
-0.148664
0.132105
-0.0986103
0.022845
-0.228828
-0.196298
-0.158707
0.00898854
-0.0678036
-0.209546
-0.182138
-0.223341
-0.128414
-0.146343
0.0394675
-0.0270796
0.0294438
0.120833
0.292014
0.0491023
-0.114798
0.354295
-0.158833
-0.305408
-0.000493776
-0.136258
-0.185038
0.0281097
0.0576427
0.385051
-0.210211
-0.188775
-0.202439
-0.00778209
-0.145754
-0.0986698
0.000775964
-0.0605487
-0.125364
0.167971
-0.149357
-0.134387
-0.172088
-0.0851766
-0.228427
-0.0343396
-0.185994
0.0198391
0.0154414
-0.170004
-0.209787
0.432804
-0.035173
0.0141038
0.0309698
-0.0807628
0.511716
-0.116985
-0.029173
-0.129348
-0.119493
0.00750939
-0.197379
-0.115646
-0.123598
0.0162089
-0.169553
-0.0325713
-0.29232
-0.104392
0.0141625
-0.0683726
0.00319485
-0.014538
-0.0133841
0.0309984
0.128842
-0.20623
0.15505
-0.117634
0.00280825
-0.17259
0.428732
-0.149369
-0.025057
0.120943
0.00712572
-0.0664704
-0.0458441
-0.230665
0.0215363
-0.237291
-0.0665184
-0.137359
-0.130205
-0.213414
-0.00591837
0.0183204
-0.184423
-0.223488
0.018684
-0.0498145
-0.18798
-0.19765
-0.151854
0.0105483
-0.0136333
-0.171791
-0.0521525
-0.133628
-0.111446
-0.015131
-0.109056
-0.156255
-0.0248557
-0.0388425
0.0065877
-0.153094
0.021896
0.0461911
-0.263533
0.0363889
-0.209513
-0.0440397
0.180114
0.00629391
0.00612913
0.019858
-0.116743
0.00334676
-0.0560647
-0.0394326
-0.285015
0.239333
-0.219067
-0.00144225
0.0225353
-0.122353
-0.0866108
-0.163406
-0.211161
-0.116338
0.03153
-0.203672
0.449031
-0.125264
-0.202133
-0.112288
-0.132399
-0.0493678
-0.0775179
-0.173122
0.1001
-0.114018
0.449483
-0.112791
-0.0440044
-0.127699
0.02605
-0.019293
-0.0657358
-0.0740334
-0.0169563
0.0219351
0.00392632
-0.118823
-0.0435749
-0.13562
0.0307631
0.0285289
0.022093
0.00546073
-0.0128137
-0.0166102
0.00719072
-0.216437
-0.0993932
0.356034
-0.000581113
0.0166059
0.20054
-0.12365
0.0694622
-0.245411
-0.0966678
-0.268228
-0.0670858
-0.162879
-0.0318018
0.0196316
0.00533635
-0.0071922
-0.277653
0.0163116
-0.205904
-0.0170478
-0.301912
0.0542168
-0.103166
-0.135698
-0.00861259
0.0106079
-0.100867
0.0358429
0.0421292
-0.240602
0.015162
0.0250654
-0.0558439
0.00715713
-0.00663333
-0.0237966
0.129373
-0.16304
-0.0453068
-0.0250079
0.00162983
-0.182506
0.0400842
0.0243553
0.00785076
-0.241597
-0.18447
-0.251632
0.126191
-0.044865
-0.00098193
-0.00682307
-0.0935773
-0.0493869
-0.155562
0.104014
-0.157091
-0.00280157
0.0632353
-0.252121
0.0281459
-0.0684741
0.0191498
0.00876623
-0.067033
0.222522
-0.0265192
-0.203275
-0.125895
-0.134029
0.0191795
-0.0135992
-0.119877
-0.208337
0.0111108
-0.199391
-0.0131973
-0.070858
-0.0212356
-0.0196954
-0.199052
-0.0214354
-0.126281
-0.0785512
0.0225423
-0.00940799
0.0421304
0.00999462
-0.038162
0.289783
-0.0235137
-0.0153948
-0.186445
-0.194833
-0.087309
-0.0814189
-0.130567
-0.0536287
-0.00834879
0.12978
-0.208266
-0.0650287
0.0247395
-0.0112809
-0.208603
-0.09058
-0.254228
0.0223788
0.0717771
-0.154797
-0.0854534
-0.0288567
-0.289422
0.482187
0.00939645
-0.169322
0.00505028
-0.0204552
-0.000760694
-0.221674
-0.0125825
-0.0252969
-0.00900192
-0.12369
-0.0493792
-0.191112
0.26641
-0.0206744
0.168261
0.0146463
-0.253966
0.00997862
-0.0241846
0.0251016
-0.121113
0.0252269
-0.172289
-0.121945
-0.153637
0.117133
-0.146951
-0.265449
0.0280329
-0.146242
-0.28536
-0.264564
-0.13128
-0.185975
-0.29805
-0.16977
0.0165514
-0.134538
-0.0841436
-0.146545
-0.0162497
-0.00414164
0.023056
0.0148632
-0.0598822
0.130181
-0.156137
-0.00436879
0.0302026
-0.304467
-0.00454297
0.0417858
0.188461
-0.0626164
-0.0243651
0.18286
0.193673
0.0749875
-0.0495812
-0.125248
-0.253435
0.498314
-0.0208209
-0.196937
-0.15778
-0.286169
-0.207686
-0.107477
0.00577883
-0.0325598
-0.00135471
-0.0107298
0.00261963
-0.00704642
-0.0128156
-0.0456823
-0.302139
-0.150953
-0.0256017
-0.160088
-0.232812
-0.0639293
0.0533715
-0.18896
-0.0116516
0.0409898
0.19118
-0.303926
0.0248622
0.0169678
-0.15099
-0.149334
-0.177762
-0.151012
-0.139671
0.0118025
-0.17983
0.0544341
0.0134072
0.0562206
-0.138736
-0.251443
-0.0168873
-0.00980468
0.0194937
-0.187112
0.0061482
-0.0701804
0.0349095
0.0111091
-0.178441
-0.0213449
-0.120146
-0.103646
-0.146059
-0.0114936
-0.0409781
-0.000235232
-0.215635
-0.231193
0.0294489
-0.251515
-0.133575
0.484389
0.0252067
-0.125368
0.0236081
-0.0566379
-0.056554
-0.151208
-0.145459
-0.134826
-0.122499
-0.213795
0.00245129
-0.188133
-0.0199279
0.023135
-0.153577
0.0330463
0.0236484
-0.010012
-0.0220144
-0.30076
-0.00776131
0.0177059
-0.110753
-0.0911289
-0.110311
0.450296
-0.115476
-0.283644
-0.0935525
-0.0884856
-0.075943
-0.185723
-0.0889001
-0.288116
-0.137405
-0.0579169
-0.0218798
-0.123943
-0.134526
0.0567538
-0.158267
-0.0783519
-0.0331089
-0.0613119
-0.0229214
-0.059033
0.0114138
-0.110827
0.313502
0.00529305
-0.122193
-0.0169202
0.0546906
0.00315088
0.11517
-0.121454
-0.0447793
-0.0271017
-0.0166158
0.324203
-0.115357
-0.205784
0.0303705
-0.000375916
-0.119659
0.0200802
-0.151226
-0.11657
-0.0327871
-0.152056
-0.0165945
-0.263931
0.0550148
-0.083538
-0.166943
-0.182579
0.0134679
0.0222309
-0.12204
0.0130777
0.00817403
-0.285062
-0.222162
0.0937022
-0.11968
0.0120939
-0.027163
-0.14086
-0.00909087
-0.00823126
-0.174102
-0.0183222
-0.170923
0.0185535
-0.00768302
0.0262713
-0.116907
-0.137851
0.0417309
0.0343621
0.0120206
0.0512395
0.00863657
0.437966
-0.12095
0.0112531
-0.188434
0.0461586
-0.187711
-0.155869
0.422555
-0.016423
0.0512586
0.0212262
0.115883
0.0627329
-0.1394
-0.259545
0.0800385
-0.152591
0.499307
-0.110943
-0.118297
-0.000727044
0.437236
-0.145309
0.0478902
-0.23866
-0.166902
-0.105141
0.0435742
-0.183308
0.231301
-0.0162631
-0.0409506
-0.289593
0.000572714
0.00479796
-0.000889872
-0.155082
-0.0507238
-0.175185
0.0100984
-0.214012
-0.079855
-0.127642
-0.164942
-0.199023
-0.0605056
-0.0157866
0.0119016
-0.153369
0.0174891
0.0781034
-0.00458646
-0.0014134
-0.00711505
0.0974696
-0.128851
0.465737
0.143699
0.258956
-0.129646
-0.0158314
-0.00986976
-0.177816
-0.135909
-0.0084798
0.0075857
-0.0688061
-0.27834
0.0239005
-0.133861
-0.0896498
-0.0449868
0.0408538
-0.0420881
-0.019945
-0.15868
0.00741059
0.00690966
-0.284978
-0.133015
0.0426091
-0.201637
-0.105546
-0.26782
0.0338654
-0.0551725
-0.140539
-0.197748
-0.10909
0.282995
-0.0322475
0.0194079
-0.0234652
0.00257857
0.0352829
0.0647554
-0.0130285
0.0148315
-0.13483
0.00744668
-0.057757
-0.0191966
-0.104129
-0.127889
-0.228959
0.0272967
-0.20192
-0.0230063
-0.145364
0.0284124
0.107653
0.0246033
-0.154661
-0.214126
-0.12126
0.0141761
-0.151989
0.0140085
-0.0359798
-0.213886
-0.0186936
0.056971
-0.0878175
-0.0609393
-0.151137
0.0155682
0.0493177
-0.0397951
0.0215075
0.135595
0.0155445
-0.00247101
0.0742246
-0.203784
-0.0238399
-0.157503
-0.189008
-0.115108
-0.137556
-0.0217761
-0.00227405
0.0557277
-0.225834
-0.04281
0.0055084
-0.095814
-0.237937
0.00803448
-0.29374
-0.125795
-0.134185
-0.00867327
-0.00870527
-0.121404
0.0565685
0.0228821
0.174803
-0.0153904
0.0875094
-0.0431126
-0.114685
0.433264
-0.146616
-0.0505851
-0.121522
-0.127891
-0.119749
-0.0863415
0.205222
-0.284389
-0.0949491
-0.291897
0.0874866
-0.272123
-0.29296
-0.0176746
0.0116875
0.00949557
-0.0364796
-0.0836318
-0.0199484
0.0881943
-0.105707
-0.0340614
0.0923919
-0.197591
0.134084
-0.0490863
-0.195292
-0.0279242
-0.13865
-0.050917
0.129568
0.00669153
-0.218796
-0.258486
0.0130668
-0.037921
-0.124813
0.131266
-0.302782
0.00811375
-0.019233
-0.158225
-0.0371392
0.169202
-0.292486
0.0307641
-0.116532
-0.0384657
-0.00911406
0.00314949
-0.132586
-0.26759
-0.00872945
-0.0436013
0.0322362
-0.0155292
0.183301
-0.186888
0.0539489
0.438468
-0.169319
-0.126825
-0.198026
-0.0359325
-0.113821
0.12464
0.125696
0.0278772
-0.109041
-0.188283
0.0712
0.192097
-0.16094
0.411758
0.424425
0.106004
0.0327447
0.0239406
0.0309115
-0.259016
-0.115986
-0.0484654
-0.038969
-0.0401357
0.0186325
0.0197206
0.035612
-0.120778
-0.0779422
-0.186707
0.148674
-0.293986
-0.123568
0.0498995
-0.11235
0.000149591
0.0246098
-0.217923
0.00614344
0.00599266
-0.111448
-0.152854
0.255589
-0.125869
-0.149789
-0.0107107
-0.168368
-0.00994835
-0.0248936
0.0916378
0.0229512
-0.0255729
-0.161477
-0.223795
-0.0183637
-0.136989
0.000963309
-0.0167139
0.00537085
0.458119
-0.0300368
-0.0503199
-0.295103
-0.0115248
-0.156735
-0.13047
0.0106632
0.14422
0.00783494
-0.120537
-0.135771
0.0363658
-0.135484
-0.116886
0.254898
0.0188718
-0.256028
0.103511
0.392065
-0.0386086
0.171359
-0.22651
-0.0158352
0.349274
0.0404373
-0.123846
0.219902
0.0105212
-0.300925
0.0365217
-0.150632
-0.120113
0.339731
0.0468713
0.0924873
0.0526858
-0.1604
0.077318
-0.135595
0.0967587
-0.111103
-0.00933708
-0.0793747
0.0390216
-0.0952075
-0.149657
0.0127603
-0.00190998
0.499862
-0.0335081
-0.12311
-0.0235039
-0.139501
-0.1245
-0.0422012
0.0170112
0.0113557
0.0274898
-0.00738502
-0.155933
0.072179
0.197902
-0.0188587
0.0110223
-0.209028
-0.0447261
-0.0379141
-0.129751
0.0373259
-0.290633
-0.111891
-0.065858
0.496109
-0.190924
-0.216848
-0.145122
-0.251736
0.00720819
-0.10438
-0.281826
0.436458
0.0140377
0.0534468
-0.133075
-0.136278
-0.136209
-0.221017
-0.0311209
0.135813
-0.0971556
-0.132843
-0.29384
-0.096108
-0.145283
0.00862273
-0.110488
-0.107303
0.0142387
-0.157899
-0.242168
0.0264545
-0.172693
0.0150346
-0.019742
-0.173792
-0.188756
0.00224338
-0.0320345
-0.0155003
-0.0177909
-0.0102162
-0.164316
-0.0417869
0.0116116
0.012921
-0.0880867
-0.0397767
-0.034735
-0.213416
0.03402
-0.198071
-0.294784
-0.172786
0.139436
-0.10933
-0.176779
-0.0828807
-0.13704
-0.16186
-0.26213
0.0129719
-0.248485
-0.131986
-0.00174193
0.0207839
-0.150722
-0.263292
-0.264609
-0.0212516
0.0162352
-0.146199
-0.251199
-0.258959
-0.0175125
0.0899762
0.492992
0.0346345
-0.154417
-0.303832
-0.147578
-0.252138
0.0415092
0.0127488
0.00346963
0.110972
-0.156555
-0.0936337
-0.0579105
0.0676196
-0.0507897
-0.267051
-0.0872693
-0.203426
-0.304219
-0.143259
0.469912
0.02901
0.0134546
-0.140431
-0.00764177
-0.0159712
0.0339282
0.51553
-0.0922542
-0.302565
-0.17043
0.0241916
-0.209997
-0.077405
-0.00617291
-0.304489
0.244256
0.103578
-0.0287097
-0.292981
-0.24682
0.0250237
-0.235684
-0.163303
-0.289566
-0.252274
-0.11013
0.0121427
-0.0249452
-0.198977
-0.046527
-0.145512
-0.0819639
-0.259274
-0.175187
0.0686893
0.0859383
0.00842938
0.0575894
-0.273697
-0.139042
0.0311286
-0.304558
-0.0978106
0.0176014
0.0794916
0.0113486
-0.170151
-0.0142585
0.509134
0.115606
0.0103026
0.00264292
0.330765
-0.187741
-0.0937338
0.00554697
-0.0846685
0.0385835
-0.032425
-0.0668387
-0.260008
-0.138828
-0.255412
-0.00455716
0.00272859
0.0167157
-0.115967
0.00497623
0.015022
-0.161567
-0.116696
-0.160919
-0.01712
-0.239353
-0.137465
0.0106611
-0.271685
-0.14452
-0.0865922
0.489483
0.0149984
-0.303622
0.0975553
0.0569949
0.0855218
-0.00756244
-0.137107
-0.000927932
-0.037847
0.155268
-0.124736
-0.138829
0.0153068
0.00701505
-0.0241816
-0.0103177
-0.167632
0.0591685
-0.144788
-0.0446315
-0.187085
-0.0376591
-0.157565
-0.00493848
-0.221352
-0.0209581
-0.00838328
-0.292468
0.342964
0.353834
-0.15287
0.174762
-0.0979424
0.0347022
-0.243405
0.031357
0.00558085
0.325663
-0.0975496
-0.30322
-0.279014
-0.16195
-0.226366
-0.168878
-0.228885
-0.0103571
-0.0498421
-0.0689961
-0.208467
0.101995
-0.228837
-0.14852
-0.0306459
0.0428179
0.0208958
-0.204684
0.431875
-0.041951
0.020348
0.0380637
-0.037918
-0.0944387
-0.212495
-0.0784885
0.0104607
0.37417
-0.142598
-0.210551
-0.136494
0.00660349
-0.0327536
-0.209486
0.00343465
-0.148971
-0.149469
0.0392407
-0.0183174
-0.164016
0.331486
0.0578125
-0.157651
-0.0386037
-0.184384
-0.0803749
0.0703503
-0.0382603
-0.249286
0.00297366
0.0966789
0.502109
-0.271122
-0.109517
-0.118008
-0.0588048
0.127655
0.0237917
-0.273554
-0.0640439
-0.0235539
-0.0704684
0.0118602
0.0115431
0.516603
0.0274483
0.0099306
0.0236121
-0.143273
0.0552229
-0.0302185
-0.120898
-0.191135
-0.164272
0.0238234
0.0175241
0.249598
-0.193634
-0.140396
0.124622
-0.167455
-0.155213
-0.218026
0.0115595
-0.238271
-0.136992
0.0112657
-0.0364201
-0.00744699
0.42217
-0.153527
-0.0275185
0.486722
-0.221001
-0.000127576
0.0535047
-0.124704
-0.148228
-0.0992896
-0.00820696
-0.26787
-0.123228
0.466571
0.0205754
-0.206238
-0.104277
0.159735
-0.26685
-0.0564422
-0.00706401
-0.066423
-0.187718
-0.0803181
-0.13257
-0.237018
-0.00267781
-0.215178
0.0533784
-0.281153
-0.00529223
0.244006
0.0569678
0.0112654
-0.171781
-0.191386
-0.180263
-0.170015
0.0534006
-0.111416
0.0013032
-0.255652
-0.139925
0.0343376
-0.00982528
0.162109
-0.0225986
-0.112307
-0.163007
-0.238621
-0.114009
-0.0223478
-0.0298705
-0.181937
0.0795487
-0.115318
-0.00399028
0.031666
-0.220179
-0.194025
-0.176327
0.374384
0.0129092
-0.193702
-0.000381558
0.11704
-0.27272
-0.289979
0.0268468
0.0204429
-0.0814914
0.105043
0.0518556
-0.172756
-0.215794
-0.0125768
-0.0106123
0.0247728
0.0101917
0.332043
-0.0176519
-0.125346
-0.155722
-0.0956696
-0.00723932
-0.0472124
-0.239401
-0.0850178
0.0338014
-0.299748
0.0356154
-0.211617
0.165148
0.180969
0.0455629
-0.236799
-0.280256
-0.0994492
0.00856574
-0.091183
-0.0174524
0.105247
0.0502731
-0.127674
0.082968
-0.249393
-0.135764
-0.109151
0.0268168
-0.198699
-0.0645534
0.0118797
0.423624
-0.00837361
-0.0744136
-0.0809931
0.0485038
-0.266674
0.023132
0.428358
0.0536463
0.010784
-0.29155
-0.154909
0.0873098
0.167458
-0.0885368
-0.0913739
-0.107269
-0.0617416
0.0478017
-0.0527167
-0.146916
0.0908671
-0.130913
0.0659238
-0.136148
-0.11196
-0.0361801
-0.173703
-0.00780217
-0.150246
0.0933196
-0.251673
-0.251836
-0.258738
-0.239225
-0.196163
0.116071
-0.0266155
-0.162339
0.122605
0.0362049
-0.255084
-0.188179
0.0703538
-0.0477141
-0.0469274
-0.0498013
-0.0825593
-0.21064
0.0105452
-0.0672742
-0.0844078
0.062493
0.0136586
-0.118212
-0.0119534
-0.134059
0.0656705
-0.170191
-0.0650628
-0.0958503
-0.13687
-0.189591
-0.144622
-0.000345728
-0.0669931
-0.154406
-0.303762
-0.0334828
-0.135817
-0.067594
0.477476
0.031436
0.0491829
-0.165524
-0.0937845
-0.291706
-0.244377
0.163443
-0.217854
0.00837387
-0.0126059
-0.235634
0.280435
0.0426866
-0.188933
-0.0332346
0.109147
0.0684146
-0.122588
-0.00900838
-0.192544
-0.166585
-0.303671
-0.181885
-0.04669
-0.0948435
-0.285903
0.0425747
0.0414996
-0.111882
-0.00620666
0.244695
-0.301282
-0.141218
-0.158345
-0.109301
-0.0345167
-0.19842
-0.00956746
-0.122346
0.020541
-0.29336
0.00122335
0.062611
-0.150799
-0.162339
0.00965479
0.0562585
-0.291198
0.0438667
-0.153427
-0.00831629
-0.257419
-0.234444
-0.141364
0.315989
0.00725035
-0.125182
-0.133406
-0.0945614
-0.00764118
-0.0355413
0.00966371
-0.107572
0.0265291
-0.119732
0.0466774
-0.0119661
-0.248719
-0.00896053
-0.0353321
-0.0561771
0.0182218
-0.151636
-0.00536986
-0.0086037
-0.181631
-0.0903429
-0.126676
0.0422237
-0.25203
-0.092105
-0.1889
0.0088343
-0.137655
-0.0307801
-0.0993058
-0.131459
-0.12611
-0.198591
-0.210847
-0.194318
-0.217313
0.119004
-0.131385
0.0614447
-0.22835
0.0880897
-0.029789
0.0368986
-0.106917
0.0193711
-0.197468
-0.115245
-0.150393
-0.223436
0.332477
0.018406
-0.196065
0.214651
0.0603632
0.081286
0.0390282
-0.16327
0.0370746
-0.141748
-0.0081574
-0.0660239
-0.244423
0.0011617
0.0289749
0.0357605
-0.206409
-0.00245928
0.0453594
-0.0528937
-0.00486279
-0.0457656
0.0169772
-0.122724
0.327287
0.133097
-0.207858
-0.279459
-0.1508
-0.223481
-0.00405901
0.0269371
0.087291
-0.0341958
0.161751
-0.134329
-0.159061
-0.00810808
0.0341083
-0.129199
-0.176132
-0.00788417
-0.00077966
0.115116
-0.301929
-0.135247
-0.0408981
-0.0344541
0.0220114
-0.210553
-0.131297
0.339091
0.16162
0.0579363
0.0588215
-0.0784652
-0.198369
0.0674903
-0.0205521
-0.0342637
-0.15028
0.0727782
-0.271721
0.0176947
-0.166128
0.0120453
0.129358
-0.00136973
0.00964434
-0.186941
-0.239504
0.270353
-0.121191
-0.30192
0.0487188
-0.18999
-0.118198
-0.00414523
-0.17424
-0.153858
-0.14525
0.0238739
-0.138033
-0.284111
-0.0244529
0.0428055
-0.1411
-0.0449544
0.0249295
-0.0112143
-0.019739
-0.0477685
-0.142194
-0.190041
0.315144
-0.135192
-0.00585229
0.0318347
-0.150123
-0.00479512
-0.0647599
0.119811
-0.0291719
-0.112261
0.0224805
0.0448742
-0.20113
0.0117084
-0.244922
0.0254853
-0.245688
-0.146653
-0.151906
0.0233783
0.012091
-0.211241
-0.00794956
-0.0196353
0.0580146
-0.160754
-0.23207
-0.0787409
-0.152391
0.084326
-0.177463
0.0654216
-0.122861
-0.0202934
0.0233095
-0.30423
-0.159898
-0.241408
-0.0132037
-0.128123
-0.125546
-0.300871
-0.190286
-0.19613
-0.0757625
-0.0094374
-0.215415
-0.0169951
-0.015352
-0.186395
-0.12965
0.0989936
0.301637
0.0997856
0.0236674
-0.0437441
-0.21531
-0.0426073
0.0121599
-0.288958
0.0834374
-0.00848356
-0.12984
0.00959139
0.021244
-0.170143
-0.14208
-0.301023
-0.00742148
0.0827908
0.0115422
0.425583
-0.000677382
0.447608
-0.173102
-0.145147
-0.125611
-0.294581
0.150113
-0.224207
0.470562
0.021951
0.0759119
0.126077
0.133996
0.488955
-0.190264
-0.267942
-0.137576
0.501592
0.0351709
-0.139694
0.008702
-0.304734
-0.0657726
-0.0431239
-0.0348747
-0.0232346
0.0032471
-0.146656
-0.265732
-0.00410491
-0.0288286
0.00262625
-0.203094
-0.0283884
-0.234794
-0.124825
-0.247369
0.0278262
0.00378142
-0.173105
0.421749
0.0249805
-0.0520653
0.0202258
-0.158848
0.1958
-0.15052
-0.109672
-0.265128
-0.00463234
-0.0212672
-0.135845
-0.126118
-0.0447254
-0.0385899
0.0139709
-0.119568
0.0273705
0.00492923
-0.0210373
0.0276881
-0.291678
-0.178042
-0.170014
-0.0939659
-0.21463
-0.214021
-0.00712099
-0.0793857
-0.00731894
0.47616
-0.0246708
0.0614885
0.028752
0.00865051
-0.0171795
-0.10806
-0.0391837
0.44823
-0.0172361
0.161038
-0.0063408
0.494806
0.0193634
-0.0795343
-0.0841624
-0.0729323
-0.267768
0.00903767
-0.150694
-0.117401
0.0275952
-0.0101963
0.0161558
-0.135233
-0.265955
-0.025182
-0.0136282
-0.171847
-0.151728
0.20326
-0.167267
0.0414739
-0.150895
-0.0799769
-0.00579153
-0.186875
-0.0386908
-0.136666
0.0359104
-0.0191274
0.0210855
-0.179091
-0.145231
-0.00726674
0.394009
-0.145219
0.00926036
-0.0133095
0.00123418
0.411432
-0.183794
-0.112845
-0.049343
-0.0814139
0.0194539
0.0355701
-0.032159
0.011515
-0.167224
0.0398507
-0.106461
-0.232028
-0.0632751
-0.00740536
-0.130227
-0.12972
0.0196952
-0.123847
-0.0770728
-0.166648
0.0989482
-0.28036
-0.116229
0.0146521
-0.146037
-0.146567
-0.0439862
-0.234967
-0.104443
-0.0648577
-0.168963
0.00950835
-0.133592
0.294018
-0.124851
0.0108381
0.0205501
-0.00784533
0.165863
-0.105184
-0.106327
-0.214466
-0.291948
-0.127147
0.0199725
0.488345
-0.143168
-0.183077
0.0295466
0.0152814
-0.114071
-0.141844
0.0486027
-0.0878899
-0.288292
-0.189904
-0.276875
0.334048
-0.17289
-0.12955
-0.224705
-0.0124012
-0.22787
-0.180062
-0.0183582
-0.03146
0.0123147
-0.263663
-0.150973
-0.173227
-0.0152315
-0.259374
-0.0106675
-0.19712
-0.141558
0.0360272
-0.0865567
-0.224324
-0.151932
-0.11305
-0.0265727
0.0472651
0.0594935
-0.0478123
-0.124532
-0.253177
-0.184093
-0.00875598
-0.304696
-0.166345
-0.128794
0.00843659
0.0130961
-0.123013
0.421896
0.01817
-0.105906
0.302503
0.198612
-0.132493
-0.155876
-0.247214
-0.193623
0.0573693
-0.0136702
0.291956
-0.140506
-0.25966
-0.0214123
0.221959
0.329228
0.360092
-0.0335644
0.0194357
0.394565
-0.195125
-0.248381
0.431472
-0.123657
0.0139294
0.410494
-0.195646
0.0499694
0.279669
-0.155356
-0.00748219
-0.164505
-0.176739
0.421569
0.0207701
-0.119988
-0.154144
-0.291754
-0.0118896
-0.0471384
0.00778709
-0.0398922
0.00831105
-0.0902741
0.0553005
0.116717
0.370186
-0.0851698
-0.189162
0.0864289
-0.0632775
-0.0140778
-0.243194
0.269941
-0.275907
0.00146095
0.118103
-0.271482
0.325786
0.043151
0.100871
-0.198926
-0.172256
-0.198099
0.0145622
0.00831795
0.00442769
-0.186252
0.0264354
0.484098
0.494407
0.409962
-0.0294724
-0.200699
-0.269897
0.00984398
-0.234441
0.0499362
0.232414
0.000416773
-0.0214855
-0.115681
-0.229911
0.00978889
-0.287865
-0.155043
0.322953
-0.185221
-0.00134759
0.0138193
-0.0738739
-0.0400159
-0.294895
-0.287791
0.0741978
-0.172389
0.0112808
-0.00955783
-0.0131369
0.0238315
-0.267752
-0.0420159
-0.259329
0.305073
-0.0341717
0.436303
-0.255586
-0.135695
-0.266312
-0.0434562
-0.0206699
0.0252899
-0.0426027
0.46011
0.369212
-0.222062
0.0243081
-0.0346328
0.161552
0.010558
-0.137604
0.082197
0.205076
0.264733
0.0702939
0.0347533
-0.00800102
-0.106185
0.0313002
0.0580085
0.325115
0.0757112
0.00346577
-0.0736034
0.00519162
-0.239891
-0.137887
0.481139
0.0367512
0.323189
0.0255199
-0.111509
-0.0296259
-0.0378683
0.123351
-0.258935
-0.137428
0.316138
0.0067597
-0.0396996
-0.0789067
-0.129994
-0.221492
0.044727
-0.223413
-0.139262
-0.00551878
0.269139
-0.206784
0.335284
0.0218298
-0.112722
0.401684
-0.197705
-0.187934
-0.0231779
-0.171551
0.028101
0.0138519
-0.0880371
-0.158177
0.0124568
-0.13567
-0.274683
-0.139578
-0.28174
0.422408
-0.256648
-0.206301
-0.00733194
-0.0320815
-0.0153213
0.14853
-0.191133
-0.202795
0.0604507
0.0300337
-0.0165819
-0.248004
-0.0949085
-0.10231
-0.141391
0.349926
-0.304391
-0.240513
0.0184608
-0.294294
0.0270788
0.116397
0.158721
-0.143526
-0.139913
0.114754
-0.0405056
0.310748
-0.0511297
-0.143075
-0.292694
0.158958
-0.122524
-0.0899157
0.0235959
0.467845
-0.113276
0.0666482
-0.270714
-0.300567
-0.0727627
0.109071
-0.121315
-0.299875
0.0193112
-0.0132362
-0.00720046
-0.0045366
0.0584969
-0.305084
0.0674606
-0.178637
0.00682502
-0.0220437
0.433793
-0.0263196
-0.0104742
0.0196387
0.0301119
-0.178439
-0.0128444
-0.305237
-0.0259681
-0.0406078
-0.00443926
0.0508437
0.35656
-0.0132089
0.0139121
-0.00977703
-0.0502431
0.30847
-0.0535462
-0.14155
0.00868915
0.109061
-0.0722244
-0.223833
0.0703472
0.0179992
-0.020629
-0.011508
-0.216946
0.00855051
-0.0145546
-0.0485337
-0.246297
0.00601441
0.187283
0.0634179
0.0240617
-0.155568
-0.297791
-0.147252
-0.158762
-0.0552695
-0.122673
0.0476388
0.34816
-0.205555
-0.0323941
-0.172771
-0.113365
-0.151878
0.0661924
0.0291049
0.471814
-0.0220349
-0.184841
-0.177196
-0.0167312
0.0257951
-0.299427
-0.122399
-0.107546
0.0826694
0.0244714
-0.302614
-0.193386
-0.0121472
0.0131031
-0.0225246
0.0186075
0.0204895
0.035326
0.180804
-0.194038
0.034256
0.0483224
0.446858
0.0153208
-0.177982
0.0777575
-0.0290197
-0.0566514
0.0109169
-0.122568
0.070352
0.239249
0.0204081
-0.0156602
-0.250917
-0.270036
0.00986413
-0.104205
0.211026
0.0395728
0.087016
0.0122653
-0.0382835
-0.213814
-0.155864
-0.079192
-0.163985
-0.0357055
-0.295244
-0.148254
-0.0103155
-0.221695
0.0675202
-0.160908
-0.174428
-0.13275
-0.249263
-0.207234
-0.142451
-0.0185117
-0.0384476
0.100188
-0.0148601
-0.0183427
-0.0714001
0.309105
-0.0153508
0.11851
-0.136205
0.100932
0.409243
-0.137629
-0.0441356
-0.217926
-0.255381
0.173607
0.10078
-0.119845
-0.304323
-0.169057
0.0833194
-0.0161005
0.00176709
-0.00969508
-0.0643258
-0.157122
-0.140069
-0.0210846
-0.242679
0.0113496
-0.114889
-0.134352
0.308633
-0.151934
0.31061
0.389184
0.0640185
0.167724
0.00437396
0.155113
0.0201457
-0.0191932
-0.0835286
-0.132085
0.0185458
0.0969429
-0.202507
0.000310697
-0.014453
0.122045
-0.305219
-0.162758
-0.165892
0.203553
0.0119601
-0.121924
0.195503
-0.0264174
0.0335086
0.026554
-0.0070273
0.0361551
-0.0627379
-0.186576
0.0189908
-0.0133458
0.231586
0.00639522
0.118849
0.14219
0.0266263
0.0164349
-0.305327
-0.00790602
0.0259325
-0.00936947
0.0793152
-0.012224
-0.258869
-0.0312887
-0.186498
0.00683008
-0.0183446
-0.0290237
-0.244007
-0.0974601
0.0373252
-0.016997
-0.184097
0.104212
-0.127851
0.0036347
-0.174982
0.0259222
-0.0106165
-0.2577
-0.0217798
0.0505221
0.0234798
-0.0252093
0.0905078
0.0266221
0.014057
0.382319
0.49688
-0.304936
-0.12594
-0.286805
-0.00108398
-0.25071
0.00811525
-0.133809
-0.289796
-0.000412416
-0.282022
0.0084769
-0.124544
-0.278332
0.426269
-0.211739
-0.174931
-0.155599
-0.126081
-0.299757
-0.164315
-0.0333703
-0.0894671