/*--------------------------------*- C++ -*----------------------------------*\
| =========                 |                                                 |
| \\      /  F ield         | OpenFOAM: The Open Source CFD Toolbox           |
|  \\    /   O peration     | Version:  v2012                                 |
|   \\  /    A nd           | Website:  www.openfoam.com                      |
|    \\/     M anipulation  |                                                 |
\*---------------------------------------------------------------------------*/
FoamFile
{
    version     2.0;
    format      ascii;
    class       surfaceScalarField;
    location    "300";
    object      phi;
}
// * * * * * * * * * * * * * * * * * * * * * * * * * * * * * * * * * * * * * //

dimensions      [0 3 -1 0 0 0 0];
oriented        oriented;


internalField   nonuniform List<scalar> 
20673
(
-0.174513
0.160817
0.013682
0.377319
-0.307598
-0.0697592
0.010964
-0.0240921
0.0131275
0.160666
-0.283345
0.122709
-0.351932
-0.126984
0.47889
-0.0213315
-0.00117267
0.0225046
0.0165724
-0.0137357
-0.00283502
0.00405654
0.00931983
-0.0133773
0.00591156
-0.011185
0.00527317
-0.0526701
0.155483
-0.102822
-0.113283
0.114445
-0.00116107
0.159683
0.00611477
-0.165795
-0.096537
-0.00520918
0.000325573
0.00488395
0.208418
-0.0442586
-0.164177
0.24026
-0.246633
0.00634826
-0.113242
0.305562
-0.19236
0.148114
-0.167311
0.0191924
0.162551
-0.0028646
0.333085
0.270128
-0.603294
-0.381973
0.573955
-0.191991
0.0151694
0.0014031
-0.600639
0.329096
0.271484
0.0221479
-0.0180918
-0.300117
-0.0688262
0.3689
-0.0026108
0.0157782
-0.0131672
-0.104694
0.0788434
0.0258509
-0.0997523
0.0524339
0.0473204
-0.0629472
0.05085
0.0120959
-0.147067
0.112735
0.0343283
0.155123
-0.172798
0.017663
0.195006
-0.209595
0.0145708
-0.0941212
0.1383
-0.0441796
0.175488
-0.0533727
-0.122117
-0.392207
0.358083
0.0341001
0.0726759
-0.0876879
0.0150107
-0.373257
-0.227442
-0.000902704
0.000963287
-5.96808e-05
-0.196685
-0.0508257
-0.00347869
0.000348639
0.00313078
-0.58558
0.595067
-0.00968122
0.685141
-0.394667
-0.290473
0.369233
-0.541411
0.172158
-0.0499431
-0.017371
0.0673161
-0.172672
-0.159579
0.332228
0.10095
0.0669392
-0.16789
0.151099
-0.00299401
-0.021982
-0.113573
0.135555
-0.00132233
0.00817418
-0.00685514
-0.684753
0.440249
0.244346
0.0448183
-0.170722
0.125884
-0.278003
0.0253125
0.252682
-0.00419981
0.00288102
0.0598949
0.115592
0.164574
-0.277854
0.218553
-0.228098
0.00954137
-0.122059
0.00877607
0.265286
-0.356692
0.0913626
0.0888314
0.162133
-0.250979
-0.338355
0.16565
-0.0127033
-0.0136741
0.0263775
0.171623
0.205652
-0.00520992
-0.172434
0.505439
0.0144304
-0.0357633
-0.0710128
0.0780226
-0.0070115
-0.51601
0.333224
0.271142
-0.36078
-0.107699
0.110367
-0.00266821
-0.159381
0.18268
-0.0233134
-0.525958
0.174002
-0.00706447
0.0129757
-0.000481224
-0.00451642
0.00499736
0.152994
-0.453158
-0.00537455
-0.0070176
0.0123937
-0.0163389
0.153993
-0.137646
0.00567294
0.00099483
-0.00666808
0.0748884
0.19395
-0.268853
0.0172173
-0.0151403
-0.00207566
-0.61292
0.319249
0.29366
-0.334486
0.603653
-0.269204
-0.248461
0.00909566
0.0234541
-0.0325461
0.00059057
-0.00149197
0.00175066
0.00360247
-0.00535382
-0.216574
0.291444
0.362581
0.211786
-0.574415
-0.0812751
0.0102608
0.217953
-0.173129
0.519481
-0.150245
0.000279972
0.00300022
-0.00328036
0.1192
0.000693467
-0.1199
-0.0561696
0.37197
-0.31586
-0.259718
0.0461753
0.213523
-0.0362405
-0.0450359
0.0239498
-0.0353788
0.0114279
0.0953367
-0.133116
0.0377784
0.135274
-0.00535785
-0.129915
-0.0734493
-0.0389221
0.112374
0.0516165
-0.0638626
0.0122494
-0.457953
0.565048
-0.107196
0.120204
0.0116035
-0.131805
0.018429
-0.0683701
-0.27817
0.0746465
0.20352
-0.490644
0.092337
0.398237
0.0155755
-0.0117037
-0.00387192
-0.00201154
-0.0607875
0.0627968
0.0951149
-0.117097
0.111273
0.194245
0.163776
-0.149459
-0.0143285
0.002339
0.0049932
-0.00733287
-0.00110018
-0.00237788
-0.121537
0.142523
-0.0209818
0.0141909
0.00138485
-0.275755
0.122703
0.15305
0.00969325
-0.00942478
-0.000267867
-0.358351
0.50495
-0.146665
0.0110446
-0.0101412
-0.00090176
0.000871843
-0.000450952
-0.000421377
-0.0820723
0.166429
-0.0843586
0.505466
0.179676
-0.102687
-0.00500637
6.16203e-05
-0.000766269
0.000704679
-0.0575701
-0.0421809
-0.612928
0.123275
0.489504
-0.250901
-0.00883982
0.103238
0.220954
-0.324226
-0.539136
-0.0739669
-0.495661
0.59116
-0.0955598
0.0227776
0.00173096
-0.00294494
0.00121387
-0.0891178
-0.18664
0.14993
-0.309542
0.200201
-0.582179
-0.101467
0.0558702
0.045597
0.00375733
0.0183898
-0.0199097
-0.154617
0.0511305
0.000487106
-0.104181
0.437409
0.0974818
-0.179555
-0.0842374
0.10017
-0.0159345
0.45743
-0.194631
-0.262846
-0.209129
0.277851
-0.0687359
-0.0709924
0.0242238
0.046772
-0.0605901
0.331733
0.0222029
0.00250074
-0.0247044
0.0165747
0.0424966
-0.0590738
0.0264056
-0.304416
0.510034
-0.170371
-0.339713
0.228172
-0.214457
-0.0137361
0.164601
0.0025655
-0.167155
0.000719958
0.00897369
0.0252012
-0.124837
0.0996368
-0.084923
-0.0399578
0.124869
0.221137
-0.219326
-0.00183106
0.00127069
0.00260127
-0.00387283
-0.175821
0.0164224
0.0210492
-0.0628587
0.0418094
-0.000997211
0.00666959
-0.0585452
-0.0429214
-0.143642
0.220032
-0.076399
-0.0874614
-0.00355371
0.0910151
0.236081
0.365556
-0.601649
0.120047
-0.0247128
-0.145381
0.0238483
0.0301647
-0.10361
-0.207091
-0.0710829
-0.162836
0.161961
0.000881004
0.13766
0.222977
-0.36068
0.0219436
0.0982601
0.147899
-0.144045
-0.0038695
0.0127963
-0.00549157
-0.007305
0.117565
0.00763953
-0.125199
-0.000257855
0.234676
-0.234453
0.0320553
-0.0253227
-0.00673285
-0.0396902
-0.0721733
0.111853
0.00403518
-0.00230509
0.00235356
0.00868765
0.0298101
-0.00760832
-0.256151
0.406146
-0.150054
0.00136536
0.117829
-0.0170363
0.172148
0.301423
0.155961
-0.0977719
0.460309
0.19021
-0.0956133
-0.094606
0.0173097
-0.0199205
-0.0270488
0.122018
-0.0949666
-0.000743289
0.00201237
0.156319
-0.153155
-0.0031516
-0.117052
0.106662
0.0103906
-0.00691495
0.0636311
-0.0567163
-0.00079677
0.00254694
-0.110009
0.0944771
0.0155291
0.625363
-0.271295
-0.354136
-0.0314197
-0.0138907
0.0453122
-0.103239
-0.00145487
0.637175
-0.637377
-0.310624
0.254404
0.00528726
-0.0785607
0.0732702
-0.0831457
0.0834446
-0.00030089
0.0227346
0.183846
-0.206569
-0.34269
-0.342184
0.168676
0.000159054
-0.168838
0.162161
0.00243961
-0.00597523
0.00549383
-0.0633958
0.0842069
-0.0208124
-0.276494
-0.115734
-0.0990935
0.364339
0.0125558
0.122719
0.0083803
0.0154555
-0.0238356
-0.288416
0.0792725
0.01748
-0.0127384
-0.00474034
0.00677642
0.000658268
-0.00743502
-0.00682309
-0.110228
-0.418072
-0.0726393
-0.0564036
0.0398114
0.0165961
0.156125
-0.00895394
-0.147169
0.00768275
0.0032071
-0.0108897
-0.495161
0.298453
0.19666
0.0319131
-0.0446166
-0.402009
0.14579
-0.00446736
0.117588
-0.113123
-0.129866
-0.455873
-0.000724299
0.00107906
-0.000355362
0.0144218
-0.010828
-0.00359433
0.0583009
0.181937
-0.113811
0.0170142
0.0967933
0.0355979
0.185524
-0.462904
0.0447511
0.00453606
0.0681386
0.135479
-0.0179104
-0.00822681
0.164559
-0.0286393
0.0105385
0.0181003
0.00800351
-0.00122721
-0.59685
0.493177
0.103552
0.19726
-0.00226927
0.00237393
-0.00209432
-0.00348507
-0.00175405
0.00523828
-0.311686
0.547734
-0.46172
0.447824
0.0138066
-0.00469848
0.00013567
-0.125229
0.10311
0.0221186
0.400821
-0.602484
0.201649
-0.072773
0.0862114
-0.0134385
-0.150626
0.142528
0.00809741
-0.102902
0.0154395
-0.165642
-0.0161288
0.181759
0.583949
-0.218421
0.137212
0.00894843
-0.146174
0.0074716
-0.00794659
0.000474661
-0.294744
0.392142
-0.0973789
0.0483754
-0.130716
0.0823351
-0.0374636
-0.0101179
0.047584
-0.241029
0.344236
-0.277541
-0.0791891
-0.0269169
-0.113001
0.139923
-0.000237472
0.00450681
-0.00426936
0.113491
-0.0882871
0.125324
0.0648774
0.0184688
0.189931
0.23984
0.372739
-0.612589
0.00188645
-0.00182517
0.00145651
0.0235212
-0.0249768
0.0497251
-0.0785029
0.0287775
-0.385262
-0.0777105
-0.0021155
-0.00507798
0.00719374
0.00374711
-0.00389399
0.00014695
-0.027963
0.0490118
0.0166744
0.000543057
-0.132046
0.115716
0.249437
0.476905
-0.666864
0.18976
-0.148565
0.00606307
0.1425
-0.000586165
-0.00239412
0.00298104
0.126501
-0.138796
0.0122933
-0.172604
0.261415
-0.0842878
0.0208906
-0.150932
-0.0201653
-0.0939665
-0.456356
0.550268
-0.0507418
0.0494517
0.00129025
0.251271
0.287536
-0.538882
0.0300824
0.00197255
-0.216992
0.239711
-0.0717267
0.472521
0.089641
0.11015
-0.199813
0.046574
-0.13151
0.107066
-0.110621
0.0194314
-0.0922055
0.00085845
0.12988
-0.130756
0.383215
-0.0902812
-0.292937
0.0905658
-0.0964923
0.0059275
-0.0142974
-0.0143425
0.013581
-0.0121254
-0.234621
-0.260595
0.0505812
-0.0151394
-0.0354446
-0.492401
0.025552
0.46685
0.186931
0.196282
-0.480338
0.121919
0.0590037
-0.0424311
-0.0608495
0.523484
-0.46277
-0.109741
0.105271
-0.181942
0.0162868
-0.268069
0.405687
0.00124593
0.167441
-0.252533
0.0328575
0.219643
-0.00811931
0.00339115
0.00474203
0.0866409
-0.126342
0.1266
-0.125913
-0.279067
-0.109753
0.388788
0.0769961
-0.354577
0.000692269
-0.00713741
0.00644425
-0.0022298
0.00222659
2.88262e-06
0.284308
0.220586
-0.394775
0.630918
-0.236314
-0.0461649
-0.00457518
-0.288743
-0.0749804
0.363661
0.000233661
-0.00475023
0.104396
-0.3835
-0.000203059
-0.000522068
-0.340547
0.256889
0.0836833
0.0991442
-0.00916792
-0.0899801
0.224172
-0.147798
-0.0763768
0.015498
-0.00967829
-0.00581961
0.0687719
-0.212422
0.00665583
-0.0652039
-0.0510389
0.0113184
0.0397245
0.184417
-0.0947977
-0.0626163
-0.0626133
-0.00679455
0.0688477
-0.0620569
0.0628021
-0.28605
0.223215
-0.00131349
-0.000101809
0.00141462
-0.052174
0.0207553
-0.000355333
0.00410247
-0.191144
0.167134
0.0240073
-0.00103777
0.000188172
0.000849899
-0.158933
-0.0614846
0.2204
-0.000994039
0.00358636
-0.00259264
-0.0429625
-0.00807373
0.0726879
-0.0927515
0.0200582
0.0930976
-0.0204172
0.0168858
-0.00592171
-0.564949
0.329286
0.235645
0.145127
0.00275857
-0.00443741
0.00677593
-0.172157
0.293685
-0.121549
0.220973
0.00433792
-0.225339
0.00383817
-0.00351435
-0.0650311
0.0703144
-0.210831
-0.0601519
0.270939
-0.076945
0.0700303
-0.0358941
-0.0270533
-0.606172
0.325207
0.280842
0.00101884
-0.000147848
-0.094777
0.0272439
0.0675323
-0.273016
0.524206
0.514586
-0.359215
-0.155455
0.100535
-0.592923
0.238721
0.271266
-0.00624
0.0968057
-0.0206085
0.0301254
-0.009518
-0.0397081
0.023804
0.0159016
0.00645212
-0.00576031
-0.368594
-0.0141257
0.382668
-0.0645729
0.112946
-0.00875465
0.00924719
-0.000492624
0.131563
-0.172609
0.0410462
0.00374571
0.0012928
-0.00187719
0.00271762
0.214665
-0.48488
0.270133
0.0840535
-0.034328
0.329167
-0.500773
0.171526
-0.010677
0.0425907
-0.14782
-0.190567
0.0136828
0.00181544
-0.0342241
-0.116402
0.19136
0.0851018
-0.276473
0.45614
-0.575159
0.118997
0.147199
-0.134642
-0.0949804
0.0963418
0.131407
-0.13166
0.00025103
-0.0115668
-0.0345858
0.0461549
-0.00555833
0.00456425
0.0105652
-0.00288258
0.00259103
0.13461
0.0647003
-0.117379
0.0217997
-0.483596
-0.00595831
0.00247261
-0.00936528
-0.00491234
0.0142775
-0.0400886
0.294925
-0.254883
0.0927011
-0.0860452
-0.315876
0.503979
-0.188142
0.0325751
0.0817014
-0.114274
-0.105717
-0.234804
-0.311664
-0.253304
-0.299102
0.115361
0.18372
-0.0128107
-0.00484095
0.0176517
-0.0820606
-0.217066
-0.00723273
0.00699558
0.00407002
-0.00105531
-0.00301574
0.0882411
-0.0919276
0.00368716
0.0257082
-0.0433036
0.0175986
-0.211846
0.274616
-0.0329416
-0.023459
0.0370294
0.590545
-0.23844
-0.352182
-0.067046
-0.298091
0.125907
0.224246
-0.341699
0.117426
-0.0779094
-0.0691601
-0.367724
0.607539
-0.386029
0.465419
-0.0794272
0.392494
-0.063389
0.0961447
-0.102385
-0.336713
-0.276217
-0.000486416
-0.000550858
-0.00246571
0.0212921
-0.0188266
0.00347738
0.00279895
-0.00627652
-0.080884
-0.0291285
-0.00278427
-0.00403135
0.00681551
0.00747198
0.00194814
-0.00942077
0.172765
-0.0411993
-0.477422
0.108775
0.107247
0.0202434
-0.127494
-0.275182
0.0785228
0.210833
-0.194985
-0.0158658
0.219866
0.405438
0.00920069
0.0176628
-0.00928208
-0.0293267
0.0268614
-0.187581
0.212171
-0.0246086
0.115709
0.0224392
-0.138149
-0.161758
-0.0293907
-0.26627
0.215476
0.0102989
0.121109
0.202437
-0.245202
0.0427351
-0.0738369
0.0772759
-0.00343838
-0.172072
0.283304
-0.441182
0.380226
-0.00321958
0.00345294
0.0029259
0.00110847
0.00468973
-0.00176505
0.0402817
0.090862
-0.131149
0.00587312
-0.00239596
0.00211027
-0.0034241
0.000289788
-0.00469474
0.00441393
0.00597346
-0.000207095
-0.00576676
0.148378
0.368826
-0.517266
-0.137597
0.00513961
0.132457
0.227904
-0.0254966
0.350666
-0.259367
-0.0913321
-0.101953
0.0223928
0.0795595
0.00252997
0.486329
-0.539665
0.0533802
0.0173664
-0.1426
0.125229
-0.00671645
-0.154106
0.160825
0.00603638
-0.00391404
-0.00212259
0.350396
0.240088
0.124443
-0.00474435
-0.119699
0.00108289
0.00115622
-0.00224018
0.0989818
-0.0184807
-0.0805038
0.000398441
-0.00172775
0.00132938
0.237232
-0.258383
0.218251
0.525735
0.111271
-0.147974
-0.0278621
0.513569
-0.298994
-0.0161306
-0.00581704
0.0219472
-0.0323686
-0.00734174
-0.152825
0.153665
0.00220963
-0.00510253
0.0028928
0.0253244
0.193215
0.107561
0.0124844
0.0029801
-0.00269397
-0.00815
0.0506454
-0.0115441
0.0997867
-0.00382961
-0.0804095
0.110795
0.0136516
0.119471
-0.149294
0.0298241
0.0939426
0.0276082
-0.121552
-0.180793
0.186474
-0.00566693
0.100817
-0.118528
0.0177105
0.0235278
-0.145412
-0.0168695
0.162291
0.112376
0.000285067
-0.112662
-0.53489
0.548507
-0.013733
0.0920017
-0.0271739
-0.0648273
0.220225
-0.0145586
-0.20567
-0.434398
0.309582
0.124822
-0.162928
0.0149356
-0.270249
0.188958
0.0812684
0.000407402
0.00562871
0.00541917
0.00877188
0.0966607
-0.385465
-0.520144
0.426125
-0.0174664
-0.00551597
0.022982
0.00965457
-0.00218899
0.594616
-0.221908
8.17145e-05
0.000316549
-0.321081
0.236034
0.0850512
0.121576
-0.0963017
-0.0252767
0.000337266
0.331341
-0.331747
0.00769901
-0.00479624
-0.00290309
0.0509051
-0.0717092
0.0208037
0.0478951
0.180252
0.309622
-0.191109
-0.118537
0.00721897
-0.0100034
-0.112231
0.0851842
-0.0111174
0.0109804
0.000136902
0.239213
-0.606946
0.00031291
-0.00743434
0.00712121
-0.00576512
0.05567
-0.00727823
-0.0483911
-0.359341
-0.0750575
-0.00291743
0.00651954
0.0107714
-0.00547078
-0.00530356
-0.134253
0.17375
-0.0394931
0.131923
0.382585
-0.21502
0.269663
-0.0546737
-0.152922
-0.0707629
0.103339
-0.0426441
0.529031
-0.524541
0.165239
0.654096
-0.44304
-0.211176
0.412017
0.241959
0.00445277
-0.00656883
-0.0407143
-0.0612389
0.038514
-0.10078
0.110155
-0.00937321
0.577051
-0.100314
-0.0467441
-0.411288
-0.00545763
0.121167
-0.00451616
0.00193139
0.0025842
0.151312
-0.17182
0.0205044
-0.118432
0.341371
0.454893
-0.230686
-0.294589
-0.0825687
0.37716
0.00950653
0.000317823
-0.0011151
0.392334
0.172422
-0.564803
-0.258308
-0.150575
0.408875
0.0102168
-0.0248882
-0.155889
0.109563
0.114606
0.0336881
-0.292114
-0.155386
0.266479
-0.11112
0.188582
-0.222099
0.0334948
-0.000865832
0.113243
0.0624903
-0.0692892
0.0212391
0.102681
0.00456961
-0.154545
0.059445
0.0951011
0.0114351
0.0727706
0.011496
0.115098
0.457769
-0.289602
-0.168219
0.00718034
0.000291042
-0.452748
0.253476
-0.0325267
0.257321
0.00875038
-0.26605
0.0608799
0.031124
0.0834976
0.0180925
-0.101598
-0.0138685
0.402704
-0.388956
0.00041617
0.0985627
0.113312
-0.138692
0.0253774
0.00210924
0.00231177
-0.00442165
-0.0813015
-0.0732436
0.00792469
0.0918125
-0.0997423
0.146309
-0.153024
0.327933
0.128183
0.0210554
-0.00747499
0.0995571
-0.0101783
0.00775404
0.00242615
0.178153
-0.35027
-0.162367
0.19096
-0.0286108
0.10947
0.000685346
-0.000699257
0.00199319
0.0101702
-0.0101693
0.121054
-0.126412
-0.066204
0.106479
-0.0430159
-0.203639
0.200522
-0.23263
0.0320872
-0.2192
0.252853
-0.0763248
-0.0127123
0.0890329
-0.0525618
0.0342538
0.151382
0.00474532
0.0136694
-0.00650171
-0.00367461
-0.0029564
-0.00816103
0.0150658
-0.218147
0.203051
-0.0074514
0.115011
0.0712947
-0.0203917
0.0915556
0.088953
-0.18053
-0.294855
0.0968805
0.197963
-0.0275317
0.00203294
0.0254992
0.0268838
-0.0176989
-0.00918138
-0.023632
0.0183807
0.0052509
-0.0328273
-0.0718815
0.104706
-0.542958
0.0472456
0.00130956
-0.000291376
0.00108206
-0.471312
0.457287
0.190937
-0.185233
-0.00571995
-0.0108245
-0.117504
0.128327
-0.125861
0.03174
-0.0108356
0.123567
0.0179418
-0.0056207
-0.0123203
0.113805
-0.0198631
-0.0196996
0.200392
-0.180679
0.011257
0.0097976
0.270745
-0.201148
-0.0696123
0.00627611
-0.000303083
0.264448
-0.576154
-0.0186318
0.410928
0.0421161
0.00846475
0.0205519
0.00633358
0.0305503
-0.00569547
-0.0248552
0.0999649
0.170765
0.264282
-0.264579
-0.448531
0.190214
0.00862239
-0.159542
0.00279842
0.125331
-0.0951624
0.225881
-0.025378
0.109634
-0.121176
0.138246
-0.269455
0.269741
-0.0491124
-0.0647017
0.128506
-0.00317024
-0.0736274
0.0640213
0.0096079
-0.0561139
0.366009
-0.309955
-0.0903897
-0.0213059
0.111695
-0.0763224
0.000727729
0.00334134
0.0291967
0.126277
0.107852
-0.0243634
-0.193225
0.0308526
-0.262825
0.541428
-0.278734
0.296729
0.0849066
-0.381649
-0.0952975
0.31622
-0.0882544
-0.00833693
0.0965839
0.155492
-0.0545431
-0.0483402
0.101048
-0.0527123
-0.0356001
0.0240327
-0.147382
-0.0154485
-0.222136
-0.384151
0.0349013
-0.0945915
0.0596919
0.0221279
0.00842392
-0.0794557
0.0666081
0.0128474
0.0553747
-0.350108
-0.177171
0.149532
0.0276352
-0.127117
-0.397507
-0.168938
-0.0412485
0.210203
-0.0560495
0.218171
0.00221439
0.00855536
-0.296058
0.615287
-0.0661337
0.197779
-0.00573829
-0.192022
0.0925814
0.0218643
0.146229
-0.057141
-0.0890944
0.00483241
0.000853146
-0.0056859
-0.0194235
-0.0908558
0.110271
0.0556857
-0.270742
0.00389354
-0.00387856
-1.51664e-05
0.00807492
0.00209575
0.359308
-0.262864
-0.0964866
0.229552
0.027785
0.0768727
-0.0574846
-0.0193856
0.0869747
-0.119801
0.122541
0.0039591
-0.350018
-0.241524
0.5915
0.0324925
0.277105
-0.0998843
0.0907124
0.25109
-0.0597244
-0.120134
-0.0115282
-0.159812
0.132899
0.391927
-0.0951999
-0.154426
0.158673
-0.00424536
-0.0135535
0.406348
-0.175228
-0.231104
-0.276578
-0.0264588
0.303064
0.676578
-0.397237
-0.279468
-0.0014122
-0.00081796
-0.422784
0.622981
-0.205781
0.0181808
0.00298806
0.00980798
0.0154451
0.200167
-0.215635
0.024316
-0.00376288
-0.0312328
-0.188116
0.0644746
0.0738263
0.233426
0.119532
-0.00166356
-0.117882
-0.107752
-0.372646
0.136947
-0.000788681
-0.136164
0.326407
-0.590498
0.263929
0.108456
-0.100923
-0.00754105
-0.222521
-0.0985535
-0.0170854
0.0181668
0.0465868
-0.0408698
-0.00571547
-0.000767389
-0.00374922
-0.564512
-0.0730679
-0.245899
0.130812
-0.119322
-0.145673
0.164455
-0.0187905
-0.000316769
0.00239168
-0.00207939
0.00739599
-0.00741589
1.94567e-05
-0.135092
-0.0322225
-0.326412
-0.0233986
0.349777
0.105765
-0.00962207
-0.0249226
0.0192267
-0.0754426
0.00181659
0.062372
-0.11071
0.148384
-0.00274487
-0.145638
-0.0142032
-0.00372052
0.0179231
-0.165122
0.154433
0.0106777
0.166715
-0.186867
0.00733505
0.0920137
-0.0993504
-0.0758725
-0.00269121
-0.152595
0.0175044
-0.00313979
0.0187197
-0.0155785
0.147142
-0.1571
0.00996016
-0.28604
0.0782083
0.207886
0.102063
-0.112885
0.0757489
0.108651
-0.409498
0.324035
0.0854672
-0.191332
0.0224222
0.0181013
0.145663
-0.173411
-0.041068
-0.377578
-0.0508873
0.428407
0.182124
0.153016
-0.0121275
-0.140886
-0.0632325
0.248039
-0.184804
-0.142536
0.0224045
0.0184277
-0.344864
-0.218062
0.463089
-0.245058
0.12651
-0.5493
0.21774
-0.155052
-0.0627119
0.221332
0.228037
-0.449348
0.0227274
0.191016
-0.213768
0.629445
-0.283068
-0.346493
0.0065787
0.00112003
-0.156841
0.158081
-0.00123348
0.039771
-0.0393539
0.23729
-0.520683
0.283288
-0.348997
-0.211631
0.560611
-0.0328697
0.0853029
-0.0524337
0.153389
-0.0339188
0.252223
-0.190146
-0.062079
0.0302247
0.00917076
-0.0393957
0.133612
-0.0368908
-0.0967287
-0.0595743
0.0488964
0.00646726
0.103456
-0.126881
0.0234264
-0.0897965
0.265651
-0.17586
-0.629485
0.0166032
0.612872
0.602211
-0.190332
-0.259424
0.00686572
0.0115401
-0.0118255
0.000285212
-0.603979
0.254967
-0.0658606
0.0110531
0.0548061
-0.13309
0.155796
-0.0016811
-0.00707365
0.111641
-0.135978
0.024328
0.111766
0.0218412
-0.0115953
0.104175
-0.444619
0.103259
0.34127
0.27967
0.317349
0.0057121
-0.430191
0.267814
0.162372
-0.297748
0.0736301
0.224095
-0.0350116
-0.0123434
0.0473543
0.255957
-0.0213102
0.107681
0.440179
-0.547877
-0.0104629
0.18209
-0.171637
-0.0641592
-0.417245
0.481304
0.326878
-0.47778
0.150836
-0.16172
0.0171828
0.00291373
-0.00323465
0.165171
-0.179823
0.0146382
0.251871
0.15449
0.468923
0.125946
-0.000463285
-0.00023722
0.00483628
0.337512
-0.110182
-0.22737
-0.105669
0.283788
0.0439091
-0.0136854
-0.0635475
0.0744728
-0.0109233
-0.00917077
-0.00136539
0.0105355
-0.110068
0.117987
-0.0473353
-0.238667
-0.23821
-0.358753
0.509127
-0.182305
0.011366
-0.156767
-0.0167824
0.0179431
-0.0910131
0.0730695
0.0450763
0.122055
-0.000456824
0.000354148
-0.292249
0.0931011
0.199117
0.0277843
-0.213888
0.186088
0.00830971
-0.0102979
0.00198801
0.135481
-0.451394
0.00177237
0.218455
0.271269
-0.362466
0.0911512
0.339194
0.259737
-0.599048
0.0080506
-0.157522
0.0864075
0.0206603
0.208379
-0.282309
0.0739097
0.0225583
0.00175807
0.000566142
0.00337641
-0.00394216
0.0263215
0.223106
-0.315443
-0.117276
0.432725
-0.0995168
-0.0134149
0.112935
-0.0544271
-0.328146
0.567331
-0.0722651
0.0850607
-0.0127967
-0.440733
0.125291
-0.154707
-0.28686
0.368388
-0.0814992
0.443441
-0.153955
-0.28949
-0.111472
-0.246036
-0.104184
0.350205
0.0209444
-0.0608286
0.149073
0.0385593
-0.187643
0.402446
-0.58672
0.184274
0.378267
-0.508518
0.130215
-0.025277
-0.261089
0.286363
0.0375409
-0.326369
0.288763
-0.34601
0.0694606
-0.0300386
0.0413151
-0.0112753
0.296435
0.0484429
-0.344872
-0.110424
0.405956
-0.295551
0.00927849
-0.00355136
-0.00572549
-0.012636
0.0151367
-0.159175
0.139487
-0.162722
-0.00343202
-0.123527
0.126959
-0.0535443
-0.169899
0.22344
0.478382
-0.166497
-0.311932
0.124086
-0.057148
-0.00566265
0.112445
-0.00399566
0.281656
-0.483319
0.201633
-0.308414
0.117266
-0.00151415
0.00891001
-0.0501292
-0.0875463
0.137674
-0.00120132
0.00484903
-0.00364791
0.528946
0.163105
-0.000259061
0.00248523
-0.18659
0.160141
0.0264738
-0.283044
0.066454
0.0119829
-0.011573
-0.000410059
-0.0169608
0.0102434
0.0067192
0.359794
-0.32232
0.107332
-0.0999997
0.495964
0.106135
-0.344291
0.0982423
0.432401
-0.19519
0.000768998
-0.00584719
0.473996
-0.252637
-0.331559
0.283702
-0.0308196
-0.282766
0.0802671
0.202531
0.028503
0.0930696
-0.0920587
0.0467274
0.311024
0.07186
-0.382878
0.0958268
-0.124914
0.0290875
0.367549
0.173241
-0.540843
0.00525045
0.510838
-0.483316
-0.0275933
0.35182
0.351553
0.228399
-0.579971
0.00714562
0.459224
0.0234144
-0.00266546
0.00398785
-0.00132257
0.00848945
-0.0272323
0.0187425
0.00546151
-0.182635
-0.0373268
-0.0574507
-0.00890484
0.0101715
-0.00126666
-0.276894
0.35385
0.000114845
0.0011945
-0.0190607
0.00538662
-0.0100847
0.00117965
-0.000599766
0.00557088
-0.00497132
0.00275883
0.00652172
-0.014885
0.0169929
-0.0702558
0.105154
0.176335
0.0932965
0.00280258
-0.158715
-0.0278638
0.00322628
-0.0125915
-0.415229
0.0558847
0.0956086
0.276307
0.275034
0.0624369
0.539908
0.167658
-0.236374
0.0687158
0.117511
-0.147768
0.0302523
0.000313697
-0.00128453
0.00097039
0.378101
-0.282549
0.425959
-0.193977
-0.231991
-0.00239593
0.00947831
-0.00708304
0.00782975
-0.0754509
0.0676164
-0.273335
0.24806
0.025312
0.0262313
-0.180597
0.154357
-0.0746333
-0.209479
0.284093
0.0232541
0.0233331
0.0897235
-0.0644121
0.15775
-0.214529
0.0567679
-0.168566
-0.114164
0.00255283
-0.00198666
0.00914362
-0.000834202
0.00511873
-0.0152598
-0.366647
0.0798118
-0.0877767
-0.0244536
-0.00541863
0.118728
-0.00613439
-0.00300163
0.00913553
-0.0123426
-0.130583
0.135358
-0.00477126
0.256298
0.174035
-0.26384
-0.0817991
-0.210478
-0.511059
-0.113173
0.0623323
0.515409
-0.367081
0.170505
0.018056
-0.0617896
-0.103337
-0.00430665
0.00279374
0.00151301
-0.137772
0.0325942
0.10518
-0.0913216
-0.240216
0.125896
-0.0039588
0.00416823
-0.000218124
0.168855
0.329763
-0.239768
-0.0900129
-0.00496736
-0.000631079
0.00559832
-0.367049
0.0989368
-0.309937
0.0121636
0.0717964
-0.109115
0.0373188
0.00131795
0.000891101
0.482008
0.296638
-0.352808
-0.0109216
0.0157349
-0.00481279
-0.0966677
0.0593405
-0.0209557
0.0735981
-0.0526432
-0.142032
0.034832
0.107201
-0.037609
-0.0500794
-0.490177
0.170432
0.319695
-0.0987247
0.102362
-0.00363608
0.167368
0.16238
0.0201802
0.355752
-0.376006
-0.0887761
-0.206091
-0.023711
0.00758016
0.000959516
-0.0101309
-0.373739
0.0893001
0.284426
0.504011
-0.125761
-0.0810847
0.35231
0.0133275
0.0728245
-0.188487
-0.00283901
0.191314
-0.241108
-0.189088
-0.307457
0.0965794
0.0039575
0.36806
-0.0570257
-0.0123457
-0.0740379
-0.0126084
0.08664
-0.00338146
-0.00207959
0.00546026
-0.333005
0.0919349
0.115171
-0.0235269
-0.091652
0.184237
-0.169201
-0.00651221
0.00171574
-0.00432479
0.00036488
0.00777864
-0.00278576
-0.127346
0.123915
-0.00315824
-0.0137996
0.465724
0.00342213
-0.0162329
-0.457778
0.480929
-0.0730382
-0.155064
0.174461
-0.155757
-0.0187169
-0.0825867
-0.0222633
0.0047964
0.0389249
0.02585
-0.0647742
0.10161
0.0197301
-0.121335
-0.00700256
0.0223908
-0.015387
-0.2897
-0.274884
0.564446
-0.0678729
0.106521
-0.0386497
0.104691
0.338748
-0.0828566
0.158592
0.0137439
-0.00971582
-0.00402789
0.2262
0.124437
0.184518
-0.642315
0.218308
-0.272291
0.0539519
0.102126
-0.26
0.157851
-0.00335351
-0.00095331
0.472007
-0.103627
-0.368426
0.516966
-0.187933
0.00773449
-0.0178061
0.131082
-0.113285
0.152159
-0.153551
0.00139289
-0.0260702
0.00114621
-0.109237
-0.0110905
0.120332
0.0112306
0.000365474
-0.0115963
0.0023033
-0.143895
0.118198
-0.168325
-0.00577814
0.00368651
-0.184051
0.00334878
0.0463558
-0.0497054
0.00118957
0.0145886
0.212085
-0.00849538
-0.203573
-0.313831
-0.0550447
0.368893
0.0013555
0.00792152
-0.0092772
-0.0365161
-0.241837
0.268233
-0.148563
0.0335551
0.115008
0.158764
-0.00745086
-0.35296
0.123521
0.229442
-0.0290134
0.196674
-0.146925
0.249031
0.154538
0.283429
0.313593
0.140022
0.00836316
-0.0260128
0.0502388
-0.368935
0.140339
-0.1348
-0.00554064
0.110463
0.212811
-0.323296
0.10225
-0.0980016
-0.00425615
-0.256033
0.582279
0.157375
-0.00157853
-0.136019
-0.236904
0.173674
0.325864
-0.082158
-0.243713
-0.301532
-0.0722198
0.0362931
-0.035608
-0.000683068
-0.0932685
-0.0260293
0.119291
-0.0117212
0.0269021
-0.0151809
0.259623
0.205767
-0.327231
0.273548
0.0536473
0.00563893
-0.268318
-0.0941934
0.0137599
0.119986
-0.133749
-0.125558
0.0322813
-0.237537
-0.115416
0.023143
0.119384
-0.262514
0.372961
-0.0144186
0.037827
-0.0234097
-0.293569
0.0517237
-0.0021298
0.202538
0.00355215
0.000284632
-0.0858073
0.106288
-0.0204804
-0.101668
0.407082
-0.305483
-0.222519
0.197439
0.0250526
0.000444658
-0.00311005
0.359859
-0.339743
0.480391
-0.125141
-0.355331
-0.00889299
0.00275773
-0.00413932
0.00490805
0.0366322
-0.198393
-0.0127984
-0.095505
0.108306
0.547015
-0.276968
0.235574
-0.00640137
0.244088
-0.211264
-0.357179
-0.0875097
-0.0931484
0.0177569
0.0753912
0.311442
-0.290405
-0.0210492
0.0146517
0.0510758
-0.0657288
0.205139
0.398483
-0.451011
0.0937754
-0.30148
0.191262
0.00875296
-0.117985
0.00289406
0.000923069
-0.00381748
-0.214967
-0.0831487
0.00918223
-0.243272
0.234055
-0.355413
-0.134819
0.201558
-0.183105
0.484627
-0.145538
0.0189896
0.141194
-0.123831
-0.585126
0.256971
0.0078897
0.0222348
0.11422
-0.101513
0.0336392
0.0037182
-0.00160828
-0.0198993
-0.0076319
0.399949
-0.310659
-0.304965
0.0651793
-0.255506
0.343797
-0.0883332
-0.00822539
-0.181627
0.137352
0.000647148
0.00269999
-0.00334737
-0.00341525
-0.00706546
0.0104806
0.233462
-0.164701
0.00282251
0.00623678
-0.0132559
-0.149544
0.149651
-0.000107134
-0.107865
0.0950677
-0.112524
0.0930916
-0.00261721
-0.00680806
0.109731
-0.00748738
0.0361186
0.0512389
-0.0873617
0.00213936
-0.00154679
0.144426
0.00263352
-0.147049
0.169134
-0.00347142
-0.0231597
0.0755948
-0.404006
-0.01122
0.219777
-0.145132
0.0307443
-0.0273967
-0.125162
0.146372
-0.0212242
0.379188
-0.282586
0.123349
-0.00382724
-0.104059
0.117816
-0.000198344
-0.00281503
-0.000574055
0.00338867
0.214211
0.00384578
-0.218087
-0.0288745
0.0218737
0.0261282
0.140685
-0.1668
-0.0199999
0.0796089
-0.0596068
-0.0578022
-0.0477612
0.105567
0.117643
-0.08914
-0.1612
0.187421
-0.372957
0.204085
0.0216166
0.315524
-0.434456
0.118878
-0.0517406
0.209481
-0.507887
-0.0271292
0.184391
-0.37594
0.117079
0.258814
0.00961626
0.108227
-0.117851
-0.016696
0.117513
0.0116691
0.00409115
-0.0157594
0.0762053
0.0333062
-0.109515
-0.0311897
-0.0608712
-0.0225633
-0.00676314
0.0703156
0.263276
-0.369653
0.106334
0.00276331
0.00481206
-0.0226031
0.017791
0.328513
-0.396791
0.0682028
0.353194
-0.153076
-0.0136728
0.166744
0.00178733
0.00975259
0.328677
-0.593859
0.26517
0.129702
-0.00242439
-0.127278
0.0711172
-0.00218164
-0.0689389
0.123241
-0.151797
0.0285461
0.376994
-0.263066
-0.113947
-0.295533
0.233886
0.0616615
-0.184517
0.32759
-0.14308
-0.0782843
-0.0702787
-0.145208
0.105237
0.232099
0.00489928
-0.0219861
0.0175079
-0.0112623
-0.0062466
-0.116828
0.125764
-0.0815946
0.00932834
-0.0192107
0.163646
0.0951306
-0.0853317
-0.00980117
-0.21168
0.227102
-0.210007
0.156457
0.0067146
0.0230252
-0.0297397
-0.0536224
0.0743926
-0.0207715
0.00489957
-0.00457514
0.0383059
-0.0360889
-0.593402
-0.422354
0.316816
0.10553
-0.142965
0.314545
0.351483
-0.0799241
-0.271581
0.113091
0.164753
-0.0529099
-0.0794715
0.132368
0.377832
-0.0854364
-0.292453
0.0019444
0.106718
-0.108662
-0.50823
0.443968
-0.171672
-0.304806
0.125146
-0.0133862
-0.00548859
0.115124
-0.0558745
0.0919918
-0.359979
0.0830444
0.0298676
-0.176592
-0.245768
0.00711957
0.0237617
-0.0308811
0.267176
0.23677
-0.18625
0.132876
0.459287
-0.177663
0.0169193
0.0851994
-0.102118
-0.00168002
0.0730651
-0.111984
0.276106
-0.080918
-0.0568538
0.363915
-0.151578
-0.212375
0.149329
0.0048868
-0.00403394
0.237613
0.104357
-0.341994
0.189345
-0.278134
-0.138624
0.12081
0.172858
0.0180633
0.00299731
0.280515
0.113634
-0.1794
0.0657498
0.259464
-0.285898
0.128349
-0.505985
0.138289
-0.0207821
-0.0902112
-0.174402
-0.216097
-0.239838
0.455863
-0.159195
-0.0553449
-0.00332817
-0.00461854
-0.202901
-0.0179759
0.220858
-0.0625234
0.0804662