/*--------------------------------*- C++ -*----------------------------------*\
| =========                 |                                                 |
| \\      /  F ield         | OpenFOAM: The Open Source CFD Toolbox           |
|  \\    /   O peration     | Version:  v2012                                 |
|   \\  /    A nd           | Website:  www.openfoam.com                      |
|    \\/     M anipulation  |                                                 |
\*---------------------------------------------------------------------------*/
FoamFile
{
    version     2.0;
    format      ascii;
    class       volScalarField;
    location    "350";
    object      nut;
}
// * * * * * * * * * * * * * * * * * * * * * * * * * * * * * * * * * * * * * //

dimensions      [0 2 -1 0 0 0 0];


internalField   nonuniform List<scalar> 
13851
(
0.000838318
0.00102451
0.00109012
0.00376218
0.0067228
0.000850437
0.00144104
0.00677769
0.0193325
0.00582579
0.000314972
0.00672802
0.00267446
0.00544469
0.000667888
0.000826059
0.00185518
0.00272745
0.00620396
0.000809821
0.000588227
0.000620292
0.00204419
0.00672544
0.012413
0.00072448
0.0132082
0.0162913
0.0204588
0.00677258
0.0101074
0.00167666
0.000797659
0.023503
0.000390062
0.0207352
0.00672581
0.00820808
0.0169106
0.00223631
0.021246
0.0214416
0.000157137
0.000262252
0.0222794
0.00401018
0.00674828
0.00088572
0.00104955
0.00246094
0.00270229
0.00256209
0.000973291
0.000939473
0.0050741
0.00217994
0.000744046
0.0204219
0.0129734
0.00425874
0.00672768
0.0112601
0.00672923
0.00100442
5.23267e-05
4.39284e-05
0.0022706
7.74976e-05
0.00207418
0.00576947
0.00928401
0.000577256
0.00304633
0.00315394
0.000870052
0.000850423
0.00305151
0.00676334
0.0120967
0.00653988
0.00185145
0.000843124
0.000388986
0.00580154
0.00480973
0.0100095
0.000648104
0.00453284
0.00514575
0.00996977
0.00187566
0.00149344
0.000212578
0.00896888
0.0156634
8.80653e-05
0.00450115
0.000936172
0.00301992
0.000267144
0.000633678
0.000154592
0.000133629
0.00262148
0.00438941
0.000488211
0.00378784
0.00989871
0.00152211
0.00289317
0.00039572
0.00427751
0.000732925
0.000389451
0.000790071
0.000992469
0.0067441
0.00676627
0.00310271
0.00647649
0.000108126
0.00391789
0.00178451
0.013931
0.00218964
5.03733e-05
0.00412091
0.000267505
0.0208694
0.000578784
0.000624428
0.000577646
0.00692719
0.0232408
0.000353818
0.0154282
8.86462e-05
0.00976483
0.000203872
0.000634949
0.000573457
0.00126988
0.00515457
5.78713e-05
0.0129875
0.00101552
0.00675974
0.00907974
0.0155484
0.000253449
0.000852031
0.000660653
0.000399542
0.00111407
0.00173398
0.0035607
0.00672629
0.0159719
0.000653041
0.00143074
0.006725
0.020615
0.000564108
0.000822372
0.00537186
0.0217915
0.0222854
0.00393229
0.00041833
0.021949
0.00672729
0.00674258
0.000476536
0.00672246
0.0167423
0.0130489
0.000436751
0.00674332
0.000885243
0.000865503
0.00139476
0.000162898
0.000448416
0.000634664
0.000168459
0.0161355
0.000782467
0.000321114
0.00208355
0.0050229
0.0133442
0.00069761
0.00250572
0.000799892
0.000930217
0.000932769
0.000783165
0.0022413
0.00193673
8.63324e-05
0.00058734
0.0175008
0.0201672
0.00073469
7.16946e-05
0.0161585
0.000903946
0.000726112
0.0195804
0.000829435
0.000793913
0.00238098
0.000740116
0.00672588
0.000406064
0.000768566
0.00267017
0.00112147
0.00202204
3.22595e-05
0.00674291
0.000797965
0.00326806
0.016008
0.000346086
0.000728917
0.00672603
6.59614e-05
0.00673575
0.000392462
0.00499366
0.000346248
0.000847477
0.00672659
0.0195792
0.00661735
0.00138247
0.019678
0.000239564
0.00672528
0.000330018
0.00518144
0.0226325
0.00104969
0.000645218
4.93926e-05
0.000158614
0.000858047
0.000105032
0.0003897
0.00401092
0.000753082
0.00674975
0.000866885
0.000747236
0.0199945
0.00771921
0.00555175
5.14416e-05
0.0053264
0.000553817
0.0014366
0.000902015
0.000558276
0.000678803
0.0034798
0.000142663
0.000671071
0.0153211
0.00673099
0.00274535
0.000352287
0.0228543
0.00150816
0.000612353
0.00362
0.00201836
0.00118707
0.000671863
0.000554098
0.0222255
0.00283857
0.000808051
0.000779227
0.00702524
0.00399911
0.00672587
0.000631337
0.000320039
0.00648735
0.00672581
0.00673735
0.00672453
0.000696506
0.00672632
0.0200163
0.00059545
0.00299481
0.02007
0.0126199
0.00220163
0.000858375
0.00265166
0.00114095
0.00195559
0.00060479
0.00435751
0.0148067
0.000532445
0.00672167
0.0210631
0.00672759
0.000478434
0.00414101
0.0154066
0.00144583
0.00634176
0.00393993
0.0113852
0.000628414
0.000132765
0.0169036
0.0169138
0.0156098
0.00181914
0.00386638
0.000418473
2.97941e-05
2.96953e-05
0.000717973
0.000488931
0.000346944
0.00522609
0.000113739
0.00672666
0.00673771
0.000625451
0.0104988
2.92915e-05
0.00394024
0.0152198
0.000339333
0.000550406
0.00140059
0.00274874
0.00151591
0.000785578
0.00083108
0.000916054
0.0205571
0.00196223
0.00198547
0.000859831
0.000633478
0.000325081
0.00510377
0.00261925
0.000436176
0.000323497
0.000785516
0.005918
0.0208697
0.000822517
0.0190839
0.00279587
0.00601573
0.0167071
0.00062159
0.00436778
0.000652105
0.000694149
0.0114272
0.00992112
0.000381973
0.00553674
0.00153606
0.0143576
0.000364082
0.000689429
0.00670744
0.000651368
0.0205163
0.000773632
0.000861307
0.000713282
0.000481724
0.00357277
0.000884563
0.000295765
0.000880625
0.00380327
0.000643021
0.0243386
0.00304449
0.000619118
0.00193116
0.00100188
0.000753396
0.000736059
0.0147489
0.000714266
0.000671029
9.32853e-05
0.00229358
0.000523428
0.00535686
0.00319258
0.000322597
0.00370224
0.000444842
0.000598032
0.000684129
0.00384932
0.000184312
0.0242415
0.0112166
0.000900502
0.000771488
0.0113268
0.00174326
0.00677335
0.00214169
0.000439994
0.00147688
0.000344683
0.014625
0.00348238
0.0067231
0.00338937
0.0116132
0.00508271
0.00107001
0.00060382
0.00674126
0.0240449
0.000461101
0.000578107
0.0010961
0.00142586
0.00217634
0.00918214
0.00279023
0.00235651
0.0195829
0.0242158
0.000640843
0.00845956
0.00672819
0.00672578
0.000959176
0.000786637
0.000792139
0.0034283
0.00134524
0.000118281
0.00131566
0.0130105
0.00672762
0.00100657
0.0224865
0.000240551
0.00673839
0.00672724
0.00106255
0.00212797
0.000345101
0.0220793
0.000692729
1.70343e-05
0.000997748
0.00673165
0.0210262
0.0108613
0.000216142
0.00271804
0.0160025
0.000225022
0.000139296
0.00246439
0.000550007
0.000413991
0.000789927
0.0187182
0.012047
0.0109015
0.000760005
0.000719614
0.00348405
0.019934
0.000808911
0.000765314
0.000637443
0.000859922
0.000228779
0.000461258
0.00672213
0.00164177
0.0201106
0.011634
0.00115244
0.0200084
0.00631575
0.00222041
0.000386689
0.00672626
0.000886035
0.00595568
0.00442181
0.00031267
0.017571
0.0011058
0.00128095
0.000131492
0.000496767
0.00554901
0.0142187
0.00489981
0.0218337
0.000316295
0.0057244
0.00135789
0.000463355
0.0172007
0.00638265
0.0100235
0.00206513
0.0050098
0.0140499
0.00468821
0.00077326
0.000861984
0.0194427
0.0043891
0.0045208
0.00141874
0.00209409
0.00380805
0.0154669
0.0206516
0.000565593
0.000778279
0.00566405
0.000686269
0.0216279
0.0160906
0.00383757
0.00336675
0.00390251
0.00190726
0.000530823
0.00118011
0.00677403
0.000807267
0.0145869
0.000511924
0.0136893
0.00114558
0.0052953
0.0230821
0.00672675
0.000457593
0.00101567
0.000868598
0.000664543
0.0231263
0.00419185
0.000880066
0.001962
0.00153581
0.000424499
0.0217583
0.00853842
0.0020145
0.00377333
0.000130094
0.0140727
0.00490188
0.000677092
0.000783413
0.00110039
0.000772057
0.00476897
0.0143096
9.44517e-05
0.0213265
0.000724542
0.0214641
0.00152872
0.0140081
0.0144074
0.00673009
0.000475561
0.0206306
0.000414692
0.000631587
0.00247359
1.45192e-05
0.000202984
0.00354795
0.00311127
0.00672315
0.00045354
0.000470881
0.00672704
0.0166657
0.00672307
0.000541988
0.000755832
0.000662026
0.0025854
0.00496427
0.000282065
0.00318523
0.000510303
0.0148471
0.000574656
0.00674281
0.00459747
0.000474549
0.00137504
0.000445301
0.0010889
0.000238144
0.0127812
0.00672663
0.00529086
0.00672591
0.000754211
0.00262868
0.0226885
0.000356129
0.00327984
0.000122131
0.000303379
0.0211471
0.00330738
0.0161115
0.000349781
0.000649788
0.00153599
0.0124944
0.005554
0.000383496
0.00235891
0.0208298
0.00317619
0.00188178
7.25647e-05
0.0223918
0.00672611
0.00672617
0.000676922
0.00352384
0.0171033
0.00172489
0.000703267
0.001349
0.00460186
0.0127777
0.000764433
0.000290973
0.00676022
0.000710935
0.000154678
0.000704393
0.00125855
0.000973556
0.000209135
0.000451221
0.000711601
0.000571634
0.000591186
0.000110498
0.000103966
0.00468256
0.0225982
0.00923521
0.000995352
0.00964704
0.000259201
0.0163928
0.000849852
0.0029863
0.000736255
0.00159878
0.000608743
0.00674657
0.00674433
0.000719167
0.00393011
0.00100055
0.018612
0.00674373
0.0194466
7.50796e-05
0.0023684
0.000403969
0.000779437
0.00112456
0.00332817
0.000293147
0.00027586
0.0125015
0.00155548
0.00130779
0.000688033
0.000502846
0.000589882
0.000783187
0.00357336
0.00672591
0.000887237
0.00471361
0.0216072
0.00672398
0.0116545
0.0225091
0.00038015
0.0166268
0.00379427
0.000105777
0.000422288
0.000380002
0.00672503
0.00300966
0.00675958
0.00404471
0.00672269
0.00043418
0.000720871
0.000140523
0.0150202
0.000967207
0.0190145
0.00672644
0.00459344
0.000407976
0.00672623
0.00672612
0.0225809
0.000833078
0.0164506
0.0202222
0.000604869
0.000505634
0.00562123
0.0229985
0.000720005
0.00113495
0.0133072
0.00672527
0.00125208
0.0034858
0.000752933
0.00481484
0.000638237
0.000582397
0.000427308
0.015021
0.000323254
0.000508337
0.0218262
0.00675502
0.0215203
0.00672418
0.00142489
0.0122607
0.000596465
0.00079477
0.000310472
0.000524854
0.00672564
0.00672639
0.00043354
0.00151478
0.00672566
0.00101851
0.00042303
0.0067255
0.000252654
0.000455763
0.0167065
0.00031146
0.00899483
0.000199776
0.00672516
0.000347671
0.00674365
0.000855857
0.0216683
0.0207968
0.0174652
0.0223042
0.00181082
0.00199598
0.000125707
0.00104445
0.0040331
0.00178405
0.00039823
0.00718162
0.000654556
0.00056532
0.00415819
0.00677748
0.00251701
0.000543192
0.00120104
0.00672567
0.000747699
0.000664221
0.0190906
0.00178645
0.0067243
0.00301483
0.00140167
0.000636417
0.00673881
0.0180407
0.00677664
0.00332412
0.00673255
0.000221835
0.000637015
0.000109794
0.000603315
0.00298844
0.00103188
0.00672382
0.0109344
0.00129334
0.0105205
0.00175504
0.0200554
0.0218301
0.000608916
0.00672318
0.00253645
0.0206306
0.000807691
0.000687986
0.00304418
0.00373403
0.00284418
0.00188352
0.00673151
0.00672392
0.0155444
0.000689437
0.00672768
0.00088461
0.0199045
7.97047e-05
0.0238899
0.00566348
0.0112446
0.00673205
0.00672487
0.00183379
0.00673054
0.0067264
0.0232786
0.0230024
0.00199639
0.00672305
0.000543859
0.0041342
0.00345386
0.000376301
0.00709297
0.0172242
0.00119912
0.000743135
0.00673063
0.000636479
8.68223e-05
0.00346084
0.00672444
0.000678573
0.00340442
0.000550319
0.000422089
0.000618996
0.00672903
0.000514396
0.000656906
0.00231037
0.000699703
0.0157253
0.000515111
0.00672557
0.00378358
0.00445857
0.00787957
0.0127829
0.0148138
0.000824761
4.87385e-05
0.00231004
0.014952
0.000644785
0.00672707
0.0238004
0.00103819
0.00672293
0.00215392
0.00116536
0.0171025
0.00169508
0.00675252
0.000492601
0.00464665
0.00108353
0.000394182
0.000919856
0.000603237
0.0199418
0.00672653
0.00741303
0.000506663
0.000587491
3.31992e-05
0.00119141
0.00073874
0.000703131
0.0211949
0.00234863
0.00816778
0.000703772
0.00998687
0.00231002
0.00505739
0.000594343
0.00302152
0.00166923
0.00672621
0.000859582
0.00672755
0.0194176
0.000468981
0.000393891
0.000420043
0.000835931
0.00630379
0.0012018
0.000638938
0.00142849
0.000599353
0.0217131
0.010246
0.000735891
0.000278351
0.0228735
0.00121179
0.0113827
0.00675245
0.000356277
0.00124418
0.00278637
0.000303009
0.00673231
0.00675191
0.000129814
0.0032532
0.000454152
0.00138511
0.000401777
0.0148971
0.000240566
0.000671596
0.002292
0.0156309
0.000803273
0.00672574
0.000573635
0.00134729
0.0122203
0.00103179
0.000138983
0.0161628
0.00136275
0.000228953
0.00203497
0.0230624
0.0147813
0.0166509
0.00046185
0.00674409
0.00391766
0.000493915
0.00335474
0.00308144
0.00048412
0.00672638
0.0024986
0.000430361
0.00345268
0.0218339
0.00269197
0.000550132
0.00125993
0.022973
0.000475121
0.00672802
0.00431764
0.000516723
0.00382288
0.00472743
0.000876686
0.000842799
0.02103
0.0102821
0.000748033
0.0221385
0.000786225
0.00414851
6.4662e-05
0.00674283
0.00262903
0.00362189
0.00672343
0.000886567
0.00151331
0.0222708
0.00544384
0.00473857
0.00396379
0.0171586
0.000355254
0.0029127
0.00156069
0.000823224
0.00371319
0.00679479
0.000397935
0.0128916
0.00648594
0.00675104
0.000396101
0.000623642
0.000752
0.000360478
0.00529029
0.00677276
0.00144373
0.0102031
0.00102222
0.021375
0.000993266
0.00672426
0.00362654
0.00469398
0.000760706
0.000371019
0.0216538
0.0220281
0.000333184
0.00673217
0.000844227
0.00212128
0.0162582
0.00727231
0.000299352
0.00450425
0.0212546
0.00853692
0.000697407
0.000738546
0.0138327
0.000723931
0.000282278
0.000107266
0.000320187
0.00149359
7.65066e-05
0.00394971
0.0217622
0.0108873
0.00675187
0.00076152
0.000234054
0.0005698
0.000705351
0.00672363
0.000913932
0.000957589
0.00107837
4.40573e-05
0.00672664
0.0216773
0.00475542
0.00357856
0.000770977
0.000846469
0.00672964
0.0204072
0.000795953
0.0162459
0.0140506
0.00673235
0.000779839
0.000676874
0.00175247
0.00472897
0.000714291
0.00672585
0.000640079
0.000534003
0.0211291
0.000639554
0.00323606
0.00101579
0.00105885
0.000121185
0.000541025
0.000465336
0.00448633
0.000894613
0.0112633
0.00138682
0.0078701
0.0236048
0.0216096
0.00890813
0.00437047
0.00550809
0.00259306
0.00438119
0.000753594
0.000498564
0.00154763
0.00236858
0.00673615
0.00548974
0.00162316
0.00676185
0.000946822
0.000883493
0.0216932
0.0010973
0.00674216
0.00673075
0.00306993
0.00672332
0.000247558
0.00427363
0.00029693
0.0226741
0.00642561
0.00400674
0.0211117
0.0228254
0.0036349
0.0169491
0.000133033
0.0181135
0.00674211
0.000177099
0.00108999
0.00673193
0.00138548
0.00455381
0.00145039
0.000530001
0.00438269
0.00213497
0.00298778
0.000482025
0.000344853
0.00672608
0.0194052
0.00265694
0.00186336
0.00672668
0.00206164
0.000813257
7.65248e-05
0.0021807
0.0143106
0.00950648
0.000228583
0.0235917
0.00362275
0.00333258
0.0143261
0.00673589
0.0104302
0.0018427
0.000153714
0.00193815
0.00270247
0.00672853
0.00525212
0.00160062
0.000403573
0.000560342
0.0019491
0.00672845
8.90916e-05
0.00593984
0.01353
0.00672616
0.000635239
0.000854498
0.00632078
0.0156124
0.00672725
0.000277146
0.00673686
0.00100907
0.000208278
0.0180431
0.000657249
0.00672607
0.000705382
8.13791e-05
0.000607506
0.0140653
0.000260819
0.000624535
0.000628083
0.0005721
0.00101787
0.0038099
0.019389
0.0019363
0.000845404
0.00672852
0.000447392
0.00674656
0.00059216
0.00674088
0.000207821
0.00857293
0.00676913
0.00205789
0.000833945
0.00672432
0.000455909
0.00672618
0.000165607
0.0153156
0.000574669
0.018147
0.0067291
0.00672602
0.000144828
0.00672616
0.0067254
0.00100934
0.000722737
0.000567205
0.00021241
0.00236499
0.000400648
0.004077
0.00673094
0.00672626
0.00673536
0.00096232
0.00375786
0.000939154
0.0076837
0.00674609
0.00672852
0.0229912
0.00672561
0.000526253
0.00143812
0.0238269
0.00136209
0.000122867
0.00211519
0.000337661
6.37912e-05
0.00181952
0.0006066
0.000648282
0.00404725
0.00420894
0.000918168
0.000725959
0.00319717
0.000296673
0.00673684
0.00116214
0.000339703
0.00270303
0.000106983
0.00139052
0.000127277
0.00665226
0.00538573
0.00672673
0.00101572
8.72013e-05
0.00214314
0.000465824
0.0040909
0.0222163
0.000970993
0.00068293
0.00122514
0.000419446
0.00672638
0.000256118
0.0177439
0.00198236
0.00678099
0.0123455
0.000439534
0.00635416
0.023779
0.000690261
0.00146705
0.00673647
0.0018216
0.00610053
0.014703
0.020464
0.000347533
0.00381328
0.00870149
0.00672831
0.000651903
0.000460286
0.00157825
0.000588429
0.00673249
0.0213879
0.0174273
0.00545557
0.000552
0.00069537
0.00370762
0.000461206
0.000693792
0.00568328
0.000857558
0.00930674
0.000631031
0.00672828
0.000791969
8.07124e-05
0.0202399
0.00673316
0.0151002
0.000456024
0.000711777
0.00672611
0.0167261
0.000977446
0.000812544
0.00415655
0.000372443
0.000430369
0.000129763
0.00672584
0.00127285
0.000275304
0.000173381
0.000331958
0.0067266
0.00126081
0.000810603
0.000508042
0.00672679
0.000249569
0.00618145
0.000265207
0.0233179
0.000861777
0.00273017
0.00075522
0.00401482
0.0068441
0.00672487
0.000726144
0.000861811
0.000652576
0.000451771
0.000713509
0.000275662
0.000294243
0.000606943
0.00082064
0.00675836
8.40202e-05
0.00104506
0.000382236
0.0155891
0.000667844
0.000411558
0.00674726
0.00660756
0.000246459
0.00244533
0.00106531
0.000953781
0.00425664
0.000468164
0.000873187
0.0223499
0.0138939
0.000618224
0.000495503
0.00813213
0.00674804
3.55726e-05
0.00679563
0.000455431
0.00717687
0.0203614
0.00211801
0.00101455
0.00672748
0.002967
0.00674784
0.000629578
0.000593945
0.0168166
0.0235859
0.00134345
0.00672255
0.00109214
0.000144539
0.00673847
0.00835341
0.00673229
0.000865329
0.00103004
0.00195842
0.000584397
0.000934107
0.00380113
0.000402627
0.000645925
0.000635553
0.000337832
0.00673924
0.0039241
0.0206492
0.00672394
0.00963108
0.000638742
0.000352268
0.0215955
0.00672423
0.0012269
0.000420886
0.0105309
0.00673602
0.00672438
0.000530552
0.0161924
0.00672395
0.000345386
0.000351397
0.0148776
0.000441146
0.000534174
0.00225782
0.00673116
5.12129e-05
0.00674393
0.00349893
0.000573299
0.0062161
0.00107174
0.000364804
0.00672405
0.00219767
0.000817551
0.0222207
0.00211071
0.00401981
0.00672549
0.00674713
0.000459789
0.00673227
0.00360224
0.0208152
0.0067263
0.000610049
0.000862567
0.0128564
0.0150559
0.00391486
0.000750026
0.000398172
0.00672603
0.00315094
0.00673001
0.0151826
0.00672639
0.00792006
0.000695864
0.00678158
0.0056263
0.000634189
0.000687135
0.00901646
0.000146763
0.00034496
0.000925015
0.020185
0.000222965
0.00100928
0.000695171
0.000202664
0.000417561
0.00110473
0.000855158
0.0115542
0.0214404
0.00445646
0.00109509
0.00282974
0.00047439
0.000228655
0.00437949
0.00216322
9.45346e-05
0.00672569
0.00166443
0.00673275
0.00676517
0.00145315
0.00245107
0.00282538
0.00672258
0.0100256
0.0067261
0.000143297
0.00148174
0.000679206
0.000164751
0.00286462
0.0243459
0.000731072
0.00672624
0.000661343
0.00435308
0.000343888
0.00274997
0.0219686
0.000822856
0.000536875
5.77515e-05
0.0219592
0.00046857
0.00840464
0.0139366
0.000275683
0.00236714
0.00145008
0.000107426
0.000448964
0.00288918
0.00581747
0.00650341
0.00206395
7.10875e-05
0.0111822
0.000434767
0.0144447
0.000677779
0.000667373
0.000690923
0.0179792
0.000553187
0.00672301
0.000270855
0.000658347
0.00105401
0.00659839
0.00672382
0.0167246
0.00672631
0.000503303
0.0228209
0.000557263
0.00356735
0.000274523
0.000734068
0.0210846
0.00673849
0.0041004
0.00673877
0.000520309
0.00162488
0.00226568
0.00059311
0.0214671
0.00413887
0.00672787
0.0189618
0.00248222
0.00226739
0.00167796
0.016805
0.00415906
0.000718792
0.00673876
0.0105695
0.0238021
0.000380916
0.000107964
0.000438255
0.00327852
0.00672715
0.022135
0.00672286
0.000646805
0.00678085
0.000843918
0.00672641
0.0211847
0.00674219
0.000697229
0.00677567
0.000217493
0.00032336
0.00471076
0.000250565
0.0193874
0.000576078
0.0170594
0.0159706
0.000366881
0.000906014
0.000639353
0.000481924
0.0167464
0.0026476
0.000864004
0.000386644
0.00267803
0.00960044
0.00673053
0.000557058
0.000813707
0.000910094
0.00043205
0.0232501
0.00443831
0.00506247
0.000360478
0.0166804
0.000630016
0.00054324
0.0146186
0.00674424
0.0167558
0.0116325
0.0112911
0.00672459
0.00509973
0.00946753
0.000326213
8.79506e-05
0.0147907
0.000569652
0.000596537
0.000732977
0.000557277
0.00311331
0.00560841
0.000556054
0.00675712
0.00668089
0.00672633
0.000482979
0.000632293
0.000478365
0.0130404
0.000271937
0.00178331
0.00074195
0.000491802
0.014651
0.0201578
0.000757141
0.00163299
0.000561046
0.000431264
0.00016007
0.00673607
0.000458611
0.000122061
0.000521242
0.00329872
0.000617696
0.000771197
0.000279755
0.0201163
0.0100275
0.00101485
0.000184108
0.00668663
0.00205799
0.00118792
0.0114692
0.000504277
0.000891173
0.000968918
0.00672916
0.000199981
0.00115315
0.0215116
0.000418445
0.00139997
0.00672471
8.32238e-05
0.0004725
0.0148115
0.00381918
0.00483442
0.00673538
0.000549878
0.00672546
0.00102838
0.00112837
0.00132486
0.000526565
0.00424264
0.000744321
0.0021897
0.00070395
0.0158004
0.0067259
0.0226959
0.00124569
0.00674578
3.8025e-05
0.000219759
0.000239809
0.00115862
0.000581984
0.000830804
7.86399e-05
0.000749277
0.0012337
0.00672449
0.00289458
0.00117175
0.0183365
0.00129103
0.00454191
0.00673403
0.000198309
0.00431101
0.000573898
0.000644123
0.000156589
0.00674674
0.0128732
0.00829882
0.0123008
0.00674331
0.000403422
2.8186e-05
0.00884333
0.0116234
0.00141952
0.0016376
0.000290492
0.0149871
0.0170356
0.000627043
0.0105788
0.00672467
0.00368121
0.000288101
0.00672625
0.00249996
0.000519489
0.00672612
6.77014e-05
0.0040173
0.0209371
0.0220896
0.0201511
0.0220811
0.0106296
0.00238917
0.00672755
0.0206768
0.00528483
0.00445109
0.00675011
0.000187676
0.0232226
0.00337875
0.000433599
0.00258133
0.00108252
0.000286958
0.00475538
0.00672355
0.0167999
0.0212816
0.00672641
0.00672551
0.0104481
0.00062904
0.00163149
0.00673832
0.0222998
0.0101322
0.00264407
0.000402833
0.00672603
0.0135433
0.000160472
0.00173409
0.00418801
0.00195474
0.0209031
0.00442753
0.00252725
0.00672628
0.00672612
0.0231187
0.00383329
0.000207513
0.00891406
0.00219324
0.0013716
0.00031586
0.0137275
0.000466004
0.0195746
0.0128136
0.00673469
0.00100654
0.000935394
0.000923038
0.0235308
0.00675731
0.00520549
0.000370744
0.000676951
0.00109852
0.00672539
0.000550001
0.000453831
0.00378509
0.0067261
0.000353293
0.00166172
0.000705836
0.00111129
0.0210345
0.0137737
0.000274626
0.000662458
0.00342118
0.000785998
0.000540344
5.2348e-05
0.0227834
0.0203992
0.00672384
0.0167724
7.70708e-05
0.0188247
0.00121084
0.000439446
0.00051969
0.0021934
0.0215237
0.00673114
0.000673747
0.0128298
0.0210456
0.00225807
0.0224676
0.000491976
0.000531386
0.00560412
0.0208984
0.000516938
0.015345
0.00537222
0.0219998
0.00677017
0.00673709
0.000699638
0.000334183
0.000316219
0.00272998
0.0128238
0.000752204
0.0040056
0.000414947
0.0102801
0.000166932
0.00379556
0.013897
0.000809417
0.000861631
0.000885947
0.00673516
0.000396109
0.00673871
0.00761404
0.000146885
0.00110578
0.00574999
0.000495917
0.00055702
0.00581076
0.0205184
0.0154103
0.00136857
0.00597705
0.0148086
0.00672733
0.000279554
0.000941727
0.000163135
0.0144837
0.0113469
0.000215564
0.0226951
0.000305576
0.000479218
0.00676464
0.0236355
0.00015072
0.000420202
0.000103269
0.00672517
0.0120086
0.000324659
0.000676199
0.00666342
0.0207229
0.013194
0.00596859
0.00609216
0.000424502
0.000285706
0.00672985
0.00224488
0.00675924
0.000710114
0.000455715
0.000288634
0.0157754
0.00489767
0.00673413
0.000762745
0.000687955
0.000857679
0.00676351
0.0178572
0.000985918
0.00074695
0.00183795
0.0034509
0.000403311
0.0235217
0.000142997
0.00065121
0.000314631
0.00673049
0.00115483
0.0125977
0.000377748
0.0024049
0.00672509
0.00346884
0.0103196
0.0202889
0.00356962
0.00038714
0.0148862
0.00235614
0.00672906
0.00218138
0.022884
6.6095e-05
0.000407765
0.00113512
0.0010628
0.0214358
0.00024162
0.00199637
0.00116232
0.000640958
0.00676694
0.000173138
0.000325835
0.00431606
0.0217743
0.013435
0.0188874
0.0219257
0.0088866
0.0142567
0.0210478
0.000988418
0.00373356
0.0216696
0.0069503
0.0131155
0.0022479
0.000610822
0.00428468
0.00407698
0.0153826
0.0213934
0.000556584
0.00673784
0.0125056
0.000543982
0.000531198
0.0090003
0.0103607
0.0104601
0.00672481
0.0206261
0.0143892
0.000442999
0.000886588
0.000568673
0.00224507
0.00674982
0.000510729
0.000496685
0.000796394
0.000721191
0.000837047
0.00067361
0.00320831
0.00992068
0.000318669
0.000729069
0.0117674
0.00173035
0.00672721
2.82057e-05
8.59935e-05
0.0078983
0.000481359
0.00208507
0.000737152
0.000629945
0.000381681
0.00673704
0.000240702
0.000802337
0.000613247
0.000330091
0.00672495
0.00122904
0.0124321
0.0225151
0.0191757
0.012774
0.000686955
0.00675989
0.00492596
0.000670082
0.00590127
0.0195348
0.0048055
0.00672628
0.00676354
0.0216345
0.0017141
0.00151515
0.000593403
0.000572386
0.000274632
0.000655275
0.000220469
0.000635855
0.000483219
0.00391904
0.000887031
0.00808467
0.000446367
0.0185413
0.000637368
0.00672412
0.0067605
0.000524157
0.000791878
0.00673581
0.000243079
0.000635989
0.000371665
0.0194442
0.00398574
0.019986
0.00672629
0.0134445
0.000398015
0.000424661
0.00594489
0.000346758
0.000863593
0.011304
0.000121325
0.000372993
0.00673192
0.0224061
0.000405259
0.00838253
0.00668619
0.00319446
0.000763284
0.000578487
0.0210624
0.0138466
0.0169304
0.000401425
0.00267311
0.00042776
0.00347637
0.0117392
0.000656794
0.000544751
0.0133797
0.0175234
0.00301552
0.00324187
0.00955823
0.000455309
0.013504
0.000244288
0.00673767
0.000486597
0.00122015
0.000157106
0.0177675
0.000423645
0.0139546
0.000834756
0.00672619
0.0033563
0.000478995
0.00128298
0.000162629
0.00377555
0.00239965
0.000528981
0.00110482
0.00216571
0.00673178
0.000454115
0.0139477
0.000732974
0.000520666
0.000499041
0.000415151
0.00250567
0.000238293
0.000664141
0.000568155
8.18815e-05
0.0011147
0.000157187
0.000149436
0.00369464
0.000578063
0.00816784
0.0149677
0.00226043
0.000783689
0.00877612
0.00360964
0.00125361
8.87279e-05
0.00974587
0.000437365
0.00939429
0.00146576
0.0027353
0.00064076
0.00675475
0.000877548
0.000439957
0.00776536
5.44939e-05
0.00449578
0.0133608
0.021758
0.0157563
0.0015847
0.0145561
0.00573273
0.0146431
0.0136621
0.00672961
0.00672251
0.0136259
0.00250586
0.00673102
0.0118145
0.0239211
0.000367503
0.00102069
0.0112961
0.00672304
0.0227331
0.0115778
0.00672446
0.0140828
0.00780922
0.00934732
0.0130543
0.0127172
0.012094
0.0067504
0.000952148
0.000464047
0.000549991
0.00673202
0.00107199
0.00641989
0.0138209
0.0107089
0.000149202
0.00787515
0.0148357
0.0100911
0.00387177
8.79988e-05
0.00206958
0.000555272
0.00109186
0.00675316
0.0155875
0.000312298
0.00545139
0.0171147
0.00401232
0.0158175
0.00241041
0.0219385
0.0011997
0.00467685
0.000556314
0.000421963
0.000240877
0.0112506
0.0191739
0.000504695
0.00100504
0.000791747
0.000928305
0.000796028
0.000654954
0.000732049
0.00672547
9.7075e-05
0.000482081
0.000411195
0.00968122
0.000580544
0.000284416
0.00031243
0.00049735
0.00074435
0.00464324
0.000617095
0.00676353
0.000652778
0.0125226
0.00914117
0.00673775
0.000497652
0.00494942
0.00136281
0.000379862
0.000925774
0.000507723
0.022006
0.000513444
0.000860391
0.00286419
0.00673484
0.0222809
0.00672701
0.00138618
0.000606859
0.0207965
0.000445971
3.22825e-05
0.000133225
0.000829633
0.00193914
5.77741e-05
0.000469756
0.0160091
0.000509199
0.000594234
0.000817616
0.000864254
0.000693905
0.000166716
0.000462178
8.27963e-05
0.000522201
0.000284799
0.000915318
0.00263145
0.0014735
0.00329517
0.000655392
0.00674173
0.000606424
0.000678691
0.000542482
0.0119014
0.00106911
0.000397213
0.00673162
0.00223684
0.00672611
0.00672549
0.00113078
0.00674268
0.00060149
0.00280424
0.000572505
0.000577998
0.00118102
0.00229361
0.00865602
0.00269542
0.0210413
0.0198887
0.00517272
0.000952879
0.000436964
0.00101435
0.0067269
0.000354345
7.30806e-05
0.00041175
0.0117909
0.000588248
0.0136279
0.00102027
0.00672482
0.00673505
0.0145162
0.0034514
0.00077818
8.49638e-05
0.00103063
0.00146302
0.0219563
0.00672547
0.000695328
0.00401406
0.00126013
5.41929e-05
0.000646161
0.00183346
0.000869937
0.000222224
0.000583259
0.00062503
0.000144251
0.00010908
0.00048933
0.000855657
0.00119771
0.00120326
0.000648935
0.0208266
0.0213428
0.0226276
0.000852076
0.012898
0.000656857
0.00147584
0.0067372
0.00068985
0.00672741
0.000903944
0.00342414
0.00461768
0.00421352
0.00112798
0.0146533
0.00071962
0.00140378
0.00252316
0.00496861
0.000434366
0.0190338
0.000320071
0.00246567
0.0228668
9.24073e-05
0.00336883
0.000163628
0.00672622
0.000217114
0.000621623
0.000101659
0.0177118
0.000266165
0.0212052
0.00550293
0.0116886
0.00255756
0.000823665
0.00132245
0.000429036
0.00672403
0.000140437
0.0222115
0.000151251
0.000521085
0.00041366
8.11068e-05
0.00315615
0.00681358
0.00146338
0.0163876
0.00107225
0.0218905
0.00747688
0.000250466
0.00672629
0.000298805
0.000509271
0.000750103
0.00134881
0.00765595
0.00338825
0.00675336
0.00379856
0.00959857
0.00225556
0.00334728
0.0225946
0.00477838
0.000588807
7.6513e-05
0.00397808
0.0224452
0.0011244
0.0215642
0.00279065
0.0164474
0.0012587
8.40635e-05
0.00334684
0.00052953
0.00489497
0.00110442
0.0211572
0.000929568
0.000323475
0.000706987
0.000663984
0.000202587
0.000441712
0.00245619
0.000145902
0.000601113
0.0010317
0.000868323
0.00416269
0.00479404
0.00672418
0.000989055
0.00226303
0.000592768
0.0222748
0.00107259
6.23491e-05
0.0011259
0.00069638
0.000941707
0.0178421
0.0116035
0.0014637
0.00147069
0.010899
0.0112801
0.00539463
0.000591361
0.0199631
0.0229847
0.0024753
0.0061684
0.0220186
0.000170669
8.67256e-05
0.000376412
0.00117571
0.00618359
0.000211442
0.00672636
0.00362896
7.16942e-05
0.000116146
0.00673303
0.000577714
0.000161751
0.000914247
0.00672638
0.00672231
6.78539e-05
0.00142504
0.00211727
0.000810348
0.0143187
0.00102272
0.000256202
0.00673767
5.57431e-05
7.84661e-05
0.00210937
0.000548978
0.00674095
0.02226
0.023636
0.000782395
0.00343714
0.000359005
0.000510644
0.006727
0.000743764
0.00676845
0.00173139
0.00672617
0.0242791
0.00567841
0.000787671
0.000226493
0.000514935
0.000768494
0.0055617
0.0169197
0.000668921
0.00306366
0.00775969
0.000598603
0.00201658
0.00879353
0.00142266
0.0116371
0.00164589
6.45873e-05
0.000222328
0.00984004
0.020816
0.00673852
0.00376162
0.000199579
0.0232093
0.00673374
0.000570917
0.0178307
0.00672621
0.00419144
0.000574609
0.00369646
0.00672355
0.00280467
0.000350743
5.43648e-05
0.00109394
0.000395648
0.00422441
0.00209554
0.0125147
0.0233797
0.00688087
0.000718336
0.0025586
0.0014994
0.00672667
0.000301544
5.98362e-05
0.0237418
0.0161298
0.011325
0.000538316
0.00672561
0.0067243
0.00439114
0.00250199
0.000530663
0.000488998
0.000729438
7.68932e-05
0.00589426
0.00223123
0.00676369
0.00563291
0.00645193
0.001235
9.39458e-05
0.000427215
0.00238524
0.000421063
0.00015257
0.00772739
0.00845929
0.00672434
0.00421735
0.000848891
0.00829589
0.0190028
0.00672623
0.000290301
0.0101244
0.00675896
0.0146746
0.0229985
0.00363667
0.0067284