/*--------------------------------*- C++ -*----------------------------------*\
| =========                 |                                                 |
| \\      /  F ield         | OpenFOAM: The Open Source CFD Toolbox           |
|  \\    /   O peration     | Version:  v2012                                 |
|   \\  /    A nd           | Website:  www.openfoam.com                      |
|    \\/     M anipulation  |                                                 |
\*---------------------------------------------------------------------------*/
FoamFile
{
    version     2.0;
    format      ascii;
    class       volVectorField;
    location    "250";
    object      cellDisplacement;
}
// * * * * * * * * * * * * * * * * * * * * * * * * * * * * * * * * * * * * * //

dimensions      [0 1 0 0 0 0 0];


internalField   nonuniform List<vector> 
13851
(
(-0.0146639 -0.0156807 0)
(-0.0121948 0.0202617 0)
(-0.0121456 0.0191601 0)
(-0.0131548 0.0960174 0)
(-0.000340608 0.00315205 0)
(-0.0123195 0.0345051 0)
(-0.0121926 -0.0437086 0)
(-0.000875974 0.00299151 0)
(-0.0150989 -0.0374392 0)
(-0.000849719 0.0749405 0)
(-0.0131157 0.0615643 0)
(-0.00276984 0.0421992 0)
(-0.00222994 0.0894636 0)
(-0.0149548 -0.0273585 0)
(-0.0139219 -0.0140579 0)
(-0.0152255 -0.0668018 0)
(-0.0135861 0.0666283 0)
(-0.00946959 0.0291076 0)
(-0.0142816 0.0157754 0)
(-0.0146422 -0.0145841 0)
(-0.0139476 -0.0028936 0)
(-0.0101687 0.0824811 0)
(-0.0129329 0.107146 0)
(-0.000136703 0.00144385 0)
(-0.0138729 0.0451306 0)
(-0.0147006 -0.0609255 0)
(-0.0151359 -0.0438574 0)
(-0.0144986 0.00256251 0)
(-0.015429 -0.0602493 0)
(-0.00694273 0.0274643 0)
(-0.0134278 0.0772777 0)
(-0.0121891 -0.0419162 0)
(-0.01473 -0.0213361 0)
(-0.0147994 -0.0169672 0)
(-0.0128532 0.0580744 0)
(-0.0154891 -0.0644907 0)
(-0.000119497 0.00126854 0)
(-0.0134591 0.0722561 0)
(-0.0139342 0.0425594 0)
(-0.00668073 0.0770572 0)
(-0.0145598 -0.000437068 0)
(-0.0154265 -0.0601602 0)
(-0.0134191 0.0780669 0)
(-0.0125986 0.107182 0)
(-0.0153567 -0.055409 0)
(-0.00677669 0.0547757 0)
(-0.00165829 -0.0036138 0)
(-0.0151253 -0.055189 0)
(-0.0103103 0.0648744 0)
(-0.00203616 0.0895009 0)
(-0.014131 0.0291547 0)
(-0.000823813 0.0930419 0)
(-0.0152071 -0.06568 0)
(-0.0135007 -0.0479502 0)
(-0.0151167 -0.0385586 0)
(-0.00659851 0.0779735 0)
(-0.0147248 -0.0202951 0)
(-0.0145509 0.000191839 0)
(-0.0152823 -0.0548649 0)
(-0.0146801 -0.00867132 0)
(-0.00265144 0.0407939 0)
(-0.0151237 -0.043504 0)
(1.43565e-05 0.0606432 0)
(-0.010346 0.0659908 0)
(-0.0115429 0.11283 0)
(-0.0115655 0.113312 0)
(-0.0146723 -0.00816629 0)
(-0.00423253 0.114595 0)
(-0.00816188 0.0678003 0)
(-0.0132341 0.0905896 0)
(-0.0135131 0.0715792 0)
(-0.0140925 -0.00145903 0)
(-0.00427425 0.0812919 0)
(-0.0146955 -0.00966175 0)
(-0.0137264 -0.03919 0)
(-0.00903219 0.0837105 0)
(-0.0135825 0.0668647 0)
(-0.00626038 0.0105066 0)
(-0.0138831 0.0442537 0)
(-0.00487937 0.0592907 0)
(-0.00830258 0.0674827 0)
(-0.0136337 0.0576258 0)
(-0.0127812 0.0594038 0)
(-0.0149208 -0.0250043 0)
(-0.0147038 -0.0102452 0)
(-0.0134585 0.0752411 0)
(-0.0103203 0.0818817 0)
(-0.015424 -0.0595756 0)
(-0.00177364 0.0758385 0)
(-0.0134141 0.0781952 0)
(-0.000641419 0.0935634 0)
(-0.0122979 -0.0408933 0)
(-0.0140122 0.0373203 0)
(-0.0134469 0.0760863 0)
(-0.0140958 0.0315198 0)
(-0.0124689 0.106783 0)
(-0.00620516 0.0624022 0)
(-0.0151866 -0.0603922 0)
(-0.0143421 0.0146672 0)
(-0.0131108 0.0799472 0)
(-0.015193 -0.0592264 0)
(-0.00500655 0.112496 0)
(-0.00623558 0.11257 0)
(-0.00406661 0.085259 0)
(-0.00726674 0.0506596 0)
(-0.0138736 0.0116673 0)
(-0.00713425 0.0509369 0)
(-0.0135034 0.0722133 0)
(-0.0122949 -0.039116 0)
(-0.00935281 0.0289324 0)
(-0.0102106 0.0932238 0)
(-0.00692451 0.0546317 0)
(-0.0139451 0.0344999 0)
(-0.0135845 0.0391233 0)
(-0.0148662 -0.0317389 0)
(-0.0134368 -0.0468436 0)
(-0.00504468 0.0239713 0)
(-0.00107251 0.00345548 0)
(-0.0131468 0.0966032 0)
(-0.0132276 0.0909087 0)
(-0.0124805 0.102736 0)
(-0.0085425 0.0278449 0)
(-0.00771561 0.07195 0)
(-0.014746 -0.0132108 0)
(-0.0144244 0.00534613 0)
(-0.0061423 0.115323 0)
(-0.00623378 0.0612695 0)
(-0.012497 0.0793209 0)
(-0.0147202 -0.0114765 0)
(-0.0141691 -0.0128048 0)
(-0.0100555 0.0840318 0)
(-0.0124194 0.052875 0)
(-0.0134517 0.0722382 0)
(-0.0148142 -0.0179636 0)
(-0.0131763 0.06031 0)
(-0.0140439 0.03511 0)
(-0.00392174 0.114419 0)
(-0.0134712 0.0744011 0)
(-0.00414987 0.11116 0)
(-0.0141957 -0.0182588 0)
(-0.013611 0.058531 0)
(-0.00465095 0.0954041 0)
(-0.00171246 0.0769334 0)
(-0.00936711 0.114266 0)
(-0.0140398 0.0339516 0)
(-0.0082539 0.0881357 0)
(-0.00609366 0.00939457 0)
(-0.0134331 0.0770099 0)
(-0.0152661 -0.0489977 0)
(-0.012556 0.0792988 0)
(-0.015178 -0.0578978 0)
(-0.0139211 0.0354984 0)
(-0.0136159 0.0389865 0)
(-0.014304 0.0132934 0)
(-0.00218492 0.0942687 0)
(-0.000606552 0.08531 0)
(-0.00245231 0.0345268 0)
(-0.0139252 0.0431997 0)
(-0.0141136 -0.016842 0)
(-0.0122316 -0.0218644 0)
(-0.000308103 0.00329678 0)
(-0.0154548 -0.0620643 0)
(-0.0138686 0.010417 0)
(-0.0151089 -0.0538149 0)
(-0.0149658 -0.0281535 0)
(-0.0151559 -0.0414537 0)
(-0.0151454 -0.0407506 0)
(-0.0141213 0.0298287 0)
(-0.0101697 0.0923359 0)
(-0.0143805 0.0114211 0)
(-0.00243954 0.0391443 0)
(-0.0049154 0.022845 0)
(-0.0139091 0.0178814 0)
(-0.000290476 0.00285614 0)
(-0.0141028 0.0310232 0)
(-0.0149387 -0.0294724 0)
(-0.0151147 -0.0491594 0)
(-0.00500807 0.0220283 0)
(-0.0136978 -0.0425598 0)
(-0.0151144 -0.0501651 0)
(-0.0144324 0.00449028 0)
(-0.012581 0.106462 0)
(-0.0102506 0.0901166 0)
(-0.0141579 -0.0142244 0)
(-0.0135674 0.0678803 0)
(-0.0152778 -0.0498025 0)
(-0.0147579 -0.0230276 0)
(-0.00352024 0.108951 0)
(-0.00252118 0.0922063 0)
(-0.00706109 0.0392992 0)
(-0.0140374 0.0338963 0)
(-0.0140884 -0.0149054 0)
(-0.0149516 -0.0271098 0)
(-0.0124054 0.0321867 0)
(-0.00827672 0.0870005 0)
(-0.015199 -0.0630916 0)
(-0.0147591 -0.0238977 0)
(-0.0106823 0.00503191 0)
(-0.0100551 0.0387039 0)
(-0.00548117 0.11442 0)
(-0.0135667 0.0611233 0)
(-0.0142624 0.0200536 0)
(-0.0145003 0.00366799 0)
(-0.0139175 -0.0159168 0)
(-0.0126062 0.113583 0)
(-0.0142664 0.0197948 0)
(-0.000907141 0.103661 0)
(-0.0142673 -0.0296166 0)
(-0.0150628 -0.0349539 0)
(-0.0119746 0.0432997 0)
(-0.0152333 -0.0692718 0)
(-0.00761964 0.0716341 0)
(-0.0135901 0.0601626 0)
(-0.000866814 0.0144737 0)
(-0.0129674 0.054768 0)
(-0.00939693 0.0844855 0)
(-0.00198789 0.0885038 0)
(-0.0146559 -0.0113263 0)
(-0.0105045 0.0224248 0)
(-0.00961525 0.116542 0)
(-0.00488725 0.0208488 0)
(-0.0146032 -0.0116493 0)
(-0.014911 -0.0243302 0)
(-0.0140697 0.0333209 0)
(-0.00437704 0.10818 0)
(-0.0143011 -0.0309725 0)
(-0.000460558 0.0074944 0)
(-0.00903432 0.114171 0)
(-0.00363899 0.0557857 0)
(-0.0129033 0.0557237 0)
(-0.0131255 0.0973091 0)
(-0.00372919 0.108579 0)
(-0.0120019 0.0413126 0)
(0.000518678 0.0564994 0)
(-0.0145114 0.0029227 0)
(-0.00705558 0.0263823 0)
(-0.0129097 0.10695 0)
(-0.014475 0.00542028 0)
(-0.0130848 0.079575 0)
(-0.000288497 0.00311239 0)
(-0.013088 0.0919609 0)
(-0.0147275 -0.0119074 0)
(-0.0153676 -0.0562285 0)
(-0.0152129 -0.0682373 0)
(-0.0134536 0.0104635 0)
(-0.00957902 0.114719 0)
(-0.0146487 -0.011318 0)
(-0.0137139 -0.044429 0)
(-0.0124488 0.106089 0)
(-0.0107652 0.089881 0)
(-0.0152647 -0.0489476 0)
(-0.0143577 0.00581805 0)
(-0.000902981 0.00457454 0)
(-0.0128109 0.0080706 0)
(-0.015207 -0.0618254 0)
(-0.0154659 -0.0627945 0)
(-0.0155945 -0.0716344 0)
(-0.00694096 0.0385485 0)
(-0.00579665 0.115485 0)
(-0.00202647 0.0748501 0)
(-0.0148139 -0.0236244 0)
(-0.0143823 0.00798682 0)
(-0.0128781 0.0076243 0)
(-0.0139226 0.00803786 0)
(-0.0143492 0.00689576 0)
(-0.00476295 0.0744959 0)
(-0.00538758 0.112635 0)
(-0.0150346 -0.0515177 0)
(-0.0145776 -0.00309177 0)
(-0.00180527 0.0569407 0)
(-0.00180239 0.0883848 0)
(-0.00417221 0.108566 0)
(-0.0150264 -0.0325327 0)
(-0.013179 0.0944844 0)
(-0.0140715 -0.0056297 0)
(-0.00869622 0.0280816 0)
(-0.0144593 0.00284913 0)
(-0.0143436 0.0106189 0)
(-0.0147954 -0.0284453 0)
(-0.0139231 0.00660594 0)
(-0.0150173 -0.0318774 0)
(-0.0144484 0.00734416 0)
(-0.0128189 0.0174668 0)
(-0.0137803 -0.0148203 0)
(-0.0133654 0.0784513 0)
(-0.007501 0.0470281 0)
(-0.00243192 0.032697 0)
(-0.0147909 -0.0272538 0)
(-0.0128609 0.0679071 0)
(-0.00733872 0.0253483 0)
(-0.000889185 0.0139834 0)
(-0.0036544 0.0571694 0)
(-0.000488263 0.00392797 0)
(-0.0135798 0.000978407 0)
(-0.00252447 0.0344615 0)
(-0.0150867 -0.0366097 0)
(-0.0139927 -0.00332676 0)
(-0.00691843 0.0689205 0)
(-0.0154809 -0.0638531 0)
(-0.0147536 -0.0137334 0)
(-0.00170169 0.0928126 0)
(-0.0146271 -0.0129138 0)
(-0.0142364 0.0219015 0)
(-0.00476483 0.0960035 0)
(-0.00151565 0.093426 0)
(-0.0140114 -0.00198537 0)
(-0.0148673 -0.0213769 0)
(-0.0136385 0.0624038 0)
(-0.0140754 0.0109992 0)
(-0.000437869 0.00400012 0)
(-0.0143944 0.0104231 0)
(-0.00255774 0.040675 0)
(-0.014085 0.0128054 0)
(-0.0142269 0.0225362 0)
(-0.0146121 -0.00551674 0)
(-0.0121451 -0.0212497 0)
(-0.0133466 0.0792133 0)
(-0.013417 0.0734725 0)
(-0.0135581 0.0684094 0)
(-0.0138734 0.0383143 0)
(-0.00374231 0.113184 0)
(-0.0140418 0.0352215 0)
(-0.0147354 -0.0124887 0)
(-0.0144811 0.0036903 0)
(-0.010165 0.0389829 0)
(-0.0134561 0.0755633 0)
(-0.0154102 -0.0587252 0)
(-0.00975817 0.116149 0)
(-0.00990556 0.116026 0)
(-0.00112802 0.103894 0)
(-0.0139839 0.0160567 0)
(-0.00752027 0.104534 0)
(-0.0154341 -0.0603521 0)
(-0.00570624 0.113151 0)
(-0.00141667 0.00878875 0)
(-0.00188208 -0.00364566 0)
(-0.0113778 0.0688908 0)
(-0.0135511 0.0689333 0)
(-0.00965285 0.116513 0)
(-0.00748374 0.0456807 0)
(-0.0140806 0.0325736 0)
(-0.00713207 0.105627 0)
(-0.0124081 0.0544947 0)
(-0.0122716 -0.0235926 0)
(-0.0148757 -0.0219448 0)
(-0.0144705 0.00182596 0)
(-0.0152183 -0.0643481 0)
(-0.00922406 0.0847438 0)
(-0.0119113 0.0411762 0)
(-0.0156053 -0.0727062 0)
(-0.00273638 0.0924735 0)
(-0.0143269 0.0119945 0)
(-0.0128031 0.0159453 0)
(-0.0139893 -9.4158e-05 0)
(-0.00707226 0.106229 0)
(-0.00196128 0.0759499 0)
(-0.00698814 0.0678422 0)
(-0.0135607 0.0566468 0)
(-0.0131585 0.0788207 0)
(-0.0144002 0.00289319 0)
(-0.013427 0.0734662 0)
(-0.0155929 -0.0718937 0)
(-0.00838036 0.0882562 0)
(-0.0144873 0.00458232 0)
(-0.014798 -0.0210802 0)
(-0.00805237 0.00988284 0)
(-0.0146271 -0.00642627 0)
(-0.0145084 -0.0106335 0)
(-0.0143313 0.0154055 0)
(-0.011309 0.0682913 0)
(-0.0147188 -0.0687783 0)
(-0.0152709 -0.0547204 0)
(-0.0136351 0.0606349 0)
(-0.0134962 0.0592638 0)
(-0.0153907 -0.0572962 0)
(-0.0103758 0.049944 0)
(-0.0149298 -0.0285664 0)
(-0.0134104 0.0787731 0)
(-0.0131251 0.0211838 0)
(-0.0152664 -0.0490509 0)
(-0.0132276 0.0233772 0)
(-0.0144469 0.00732958 0)
(-0.0137303 -0.0139071 0)
(-0.0139149 -0.0612225 0)
(-0.0142996 0.00976009 0)
(-0.0133092 0.0742323 0)
(-0.000812293 0.0853925 0)
(-0.012619 0.0232516 0)
(-0.0128894 0.0685029 0)
(-0.0137481 -0.0411052 0)
(-0.00668546 0.0597643 0)
(-0.0141092 -0.0070829 0)
(-0.0147971 -0.0170555 0)
(-0.00434545 0.0805239 0)
(-0.0142573 -0.0271048 0)
(-0.0131044 0.0995176 0)
(-0.0116248 0.0410397 0)
(-0.0129127 0.10259 0)
(-0.0142583 -0.0496495 0)
(-0.0136487 0.0616232 0)
(-0.0120349 0.0440202 0)
(-0.0146508 -0.0605725 0)
(-0.0125087 0.113619 0)
(-0.0144016 0.00694218 0)
(-0.01379 0.0154961 0)
(-0.0155858 -0.0710206 0)
(-0.0147189 -0.0112794 0)
(-0.0130567 0.0925523 0)
(-0.00466763 0.075259 0)
(-0.0135687 0.0556054 0)
(-0.01314 0.029261 0)
(-0.0147095 -0.066969 0)
(-0.00837507 0.0327776 0)
(-0.0134827 0.0737012 0)
(-0.0146975 -0.0101934 0)
(-0.0137406 0.0538226 0)
(-0.0119268 0.0392091 0)
(-0.0143226 0.00869917 0)
(-0.0150626 -0.0389146 0)
(-0.0131706 0.0950366 0)
(-0.00667847 -0.00297058 0)
(-0.0134582 0.0754186 0)
(-0.0133812 0.0712272 0)
(-0.0129206 0.109244 0)
(-0.0108962 0.0895947 0)
(-0.0142973 0.0163776 0)
(-0.00229706 0.0834082 0)
(-0.000257003 0.00249741 0)
(-0.0151268 -0.039255 0)
(-0.0150317 -0.0365572 0)
(-0.000920138 0.0763508 0)
(-0.0121651 0.0219971 0)
(-0.0142815 -0.0262863 0)
(-0.00489002 0.0274036 0)
(-0.0146957 -0.0101463 0)
(-0.0140205 0.01448 0)
(-0.0144829 -0.00962563 0)
(-0.012953 -0.0142681 0)
(-0.0104307 0.04817 0)
(9.41085e-05 0.0934167 0)
(-0.0136155 0.0617068 0)
(-0.00673815 0.0693204 0)
(0.00023905 0.0928119 0)
(-0.0154342 -0.0624275 0)
(-0.0147868 -0.0163985 0)
(-0.00989832 0.0844049 0)
(-0.0152388 -0.0532288 0)
(0.000141141 0.0596266 0)
(-0.00249256 0.0325664 0)
(-0.0117242 0.0409836 0)
(-0.0143901 0.00402901 0)
(-0.0141945 -0.0543619 0)
(-0.00675859 0.0616737 0)
(-0.0111699 0.0343602 0)
(-0.0124653 0.101983 0)
(-0.0119073 0.0127951 0)
(-0.0135714 0.0667765 0)
(-0.00272175 0.03939 0)
(-0.0132156 -0.0316358 0)
(-0.0153413 -0.05437 0)
(-0.00862966 0.106574 0)
(-0.00196051 -0.000650891 0)
(-0.00216268 0.0387624 0)
(-0.0129032 -0.0124842 0)
(-0.0109661 0.00178983 0)
(-0.0129674 0.0970504 0)
(-0.015457 -0.0635812 0)
(-0.0135115 0.008918 0)
(-0.012328 0.1164 0)
(-0.0118291 0.0390603 0)
(-0.00288667 0.0529909 0)
(-0.0148395 -0.0196163 0)
(-0.0152511 -0.0533829 0)
(-0.00620607 0.110012 0)
(-0.00490914 0.0814383 0)
(-0.014749 -0.0134184 0)
(-0.00453125 0.110807 0)
(-0.0128084 0.109345 0)
(-0.00390644 0.0854568 0)
(-0.0125551 0.0489 0)
(-0.0135275 0.0583537 0)
(-0.0138934 -0.0335077 0)
(-0.0147351 -0.0124754 0)
(-0.0150788 -0.0398315 0)
(-0.0137248 0.0546367 0)
(-0.0065458 0.0974153 0)
(-0.0138995 0.0371678 0)
(-0.00505186 0.0742219 0)
(-0.0154407 -0.0610348 0)
(-0.0142375 -0.0481136 0)
(-0.014777 -0.0251977 0)
(-0.0131426 0.0276568 0)
(-0.00918867 0.0836497 0)
(-0.00868768 0.105995 0)
(-0.0139517 0.0161508 0)
(-0.00038009 0.00356959 0)
(-0.0132611 0.0889341 0)
(-0.0148296 -0.0189267 0)
(-0.0135575 0.0676302 0)
(-0.0129826 0.107968 0)
(-0.0154413 -0.0625645 0)
(-0.013786 0.0528096 0)
(-0.0143641 0.00947511 0)
(-0.00483728 0.107304 0)
(-0.000751553 0.0274822 0)
(-0.0129368 0.102931 0)
(-0.000674504 0.0746446 0)
(-0.0065861 0.0591158 0)
(-0.00555743 0.107987 0)
(-0.0141277 0.0292978 0)
(-0.0122301 0.0109434 0)
(-0.00397405 0.0964117 0)
(-0.0119931 0.101207 0)
(-0.0135313 0.0312735 0)
(0.000473052 0.077163 0)
(-0.0139355 0.0417685 0)
(-0.00593532 0.0627491 0)
(-0.0147601 -0.0142274 0)
(-0.012968 0.0962301 0)
(-0.00502094 0.0597741 0)
(-0.0121484 -0.00311 0)
(-0.0134766 0.0661157 0)
(-0.0145936 -0.00410202 0)
(-0.00724023 0.0267731 0)
(-0.0135298 0.068263 0)
(-0.0129738 0.102292 0)
(-0.00872113 -0.00979424 0)
(-0.0137265 0.0568091 0)
(-0.014296 0.0145646 0)
(-0.0145629 -0.00873107 0)
(-0.00635098 0.0975867 0)
(-0.0154156 -0.0611971 0)
(-0.0145447 0.000744433 0)
(-0.00885417 -0.00942193 0)
(-0.0140112 0.0333534 0)
(-0.00792152 0.0698449 0)
(-0.00606269 0.0630906 0)
(-0.0155537 -0.0725096 0)
(-0.0144336 0.00823362 0)
(-0.013357 0.0289415 0)
(-0.0141479 -0.0553435 0)
(-0.000358714 0.0753598 0)
(-0.0145563 -0.0502531 0)
(-0.0147333 -0.0123919 0)
(-0.0139769 0.0396866 0)
(-0.00945727 -0.00208776 0)
(-0.0136623 0.0613562 0)
(-0.00665459 0.0611891 0)
(-0.00807095 0.0693826 0)
(-0.0138374 0.0140076 0)
(-0.0131302 -0.0406936 0)
(-0.00672869 -0.00440759 0)
(-0.00888882 0.0846765 0)
(-0.0137516 0.0550747 0)
(-0.0133019 0.0737841 0)
(-0.0137381 0.0560304 0)
(-0.0121229 0.01174 0)
(-0.00219685 0.0749435 0)
(-0.0150527 -0.0343753 0)
(-0.0010402 0.0348076 0)
(-0.0136224 0.0527235 0)
(-0.0132424 -0.021299 0)
(-0.0137476 -0.0356156 0)
(-0.0133822 0.0147306 0)
(-0.0153759 -0.057025 0)
(-0.0144383 0.00803362 0)
(-0.0124663 0.027985 0)
(-0.0134098 0.0787857 0)
(-0.0120286 -0.0177891 0)
(-0.0138437 0.025104 0)
(-0.0154124 -0.0592167 0)
(-0.0151163 -0.0385472 0)
(-0.00732274 0.0747276 0)
(-0.00493889 0.0749004 0)
(-0.00665658 0.112406 0)
(-0.0137618 0.054401 0)
(-0.0153392 -0.063386 0)
(-0.0145297 -0.05124 0)
(-0.0128506 0.108569 0)
(-0.0131535 -0.0422468 0)
(-0.013702 -0.0155957 0)
(-0.013125 0.0969558 0)
(-0.0138994 0.0442565 0)
(-0.0122766 0.103252 0)
(-0.0147728 -0.0150838 0)
(-0.0149666 -0.0351431 0)
(-0.0155377 -0.0680649 0)
(-0.0100534 0.05129 0)
(-0.0152997 -0.055962 0)
(-0.0142912 0.0165625 0)
(-0.00251614 0.0502717 0)
(-0.0140044 0.03803 0)
(-0.0141392 0.0281841 0)
(-0.0102976 0.0910413 0)
(-0.0142012 -0.0166091 0)
(-0.00606183 0.0789388 0)
(-0.0121996 0.116357 0)
(-0.0125957 0.0845769 0)
(-0.0130661 0.0989967 0)
(-0.00669109 0.070397 0)
(-0.000334609 0.0033646 0)
(-0.00272814 0.107186 0)
(-0.0134808 0.0328082 0)
(-0.00267923 0.0378828 0)
(-0.0141194 0.0298803 0)
(-0.000405277 0.00404999 0)
(-0.0149482 -0.0342494 0)
(-0.00601088 0.0987336 0)
(-0.0147498 -0.0661138 0)
(-0.00413111 0.0844439 0)
(0.000468176 0.0783609 0)
(-0.0119151 0.0865648 0)
(-0.0136732 0.060589 0)
(-0.0137274 0.0192844 0)
(-0.014056 0.0342852 0)
(-0.0125273 0.0507438 0)
(-0.00514278 0.0297672 0)
(-0.00868833 0.014069 0)
(-0.0138965 0.0196261 0)
(-0.0110761 0.0361837 0)
(-0.0138325 0.0355396 0)
(-0.0123839 0.0135248 0)
(-0.00588896 0.109952 0)
(-0.0153099 -0.0572531 0)
(-0.000912675 0.0354056 0)
(-0.0156602 -0.0760102 0)
(-0.000627089 0.0101675 0)
(-0.0149872 -0.0698308 0)
(-0.0133964 0.0796712 0)
(-0.0152328 -0.0468553 0)
(-0.00084914 0.109328 0)
(-0.0130419 0.0996773 0)
(-0.0118897 0.101982 0)
(-0.0130452 0.0862947 0)
(-0.0141524 0.0273101 0)
(-0.00981537 -0.000335356 0)
(-0.0139279 0.0423936 0)
(-0.00745267 0.105201 0)
(-0.0131826 0.0212557 0)
(-0.0129921 0.107226 0)
(-0.0140141 0.0350764 0)
(-0.00816943 0.0109366 0)
(-0.0138031 0.0364333 0)
(-0.0106233 0.00342614 0)
(-0.0155411 -0.0681783 0)
(-0.0140263 0.036475 0)
(-0.0085952 0.0668564 0)
(-0.00490622 0.114599 0)
(-0.0146185 -0.0048293 0)
(-0.000420779 0.0100328 0)
(-0.000572468 0.0135294 0)
(-0.0147202 -0.0623274 0)
(-0.0156493 -0.0752777 0)
(-0.0153893 -0.059849 0)
(-0.00133516 0.0932744 0)
(-0.014256 0.0126832 0)
(-0.011804 0.013206 0)
(0.000300347 0.0802048 0)
(-0.0153419 -0.0595575 0)
(-0.0142798 0.0115106 0)
(-0.0131683 0.0767843 0)
(-0.00605908 -0.00307455 0)
(-0.0150202 -0.0501398 0)
(-0.00914575 0.109476 0)
(-0.0145554 -0.0612196 0)
(-0.00117548 0.0993964 0)
(-0.00811454 0.0869525 0)
(-0.01252 0.0853475 0)
(-0.00288836 0.106793 0)
(-0.0150809 -0.0533909 0)
(-0.0140961 -0.00325834 0)
(-0.0140519 0.00046441 0)
(-0.0121637 0.103427 0)
(-0.0127507 0.109576 0)
(-0.0142609 0.0170104 0)
(-0.015044 -0.0342077 0)
(-0.0135402 0.0673284 0)
(-0.0151577 -0.0572729 0)
(-0.0149433 -0.0265796 0)
(-0.0106453 0.0987619 0)
(-0.0155497 -0.0717091 0)
(-0.0145883 -0.0100962 0)
(-0.00905694 0.0340382 0)
(-0.0136506 -0.0149884 0)
(-0.0142509 0.0172288 0)
(-0.0108963 0.0753061 0)
(-0.00482171 0.0579145 0)
(-0.00482344 0.0555078 0)
(-0.0149978 -0.0671283 0)
(-0.0154016 -0.0579967 0)
(-0.0132737 -0.0305023 0)
(-0.0144633 0.00623905 0)
(-0.00520903 0.031115 0)
(-0.01538 -0.0588862 0)
(-0.0118207 0.108494 0)
(-0.0142128 0.0234742 0)
(-0.0137652 0.0385616 0)
(-0.0121255 0.0430011 0)
(-0.0122123 0.0166834 0)
(-0.0142036 0.0241003 0)
(-0.0131988 0.0753918 0)
(-0.010588 0.0980852 0)
(-0.0150489 -0.0376024 0)
(-0.0103462 0.046919 0)
(-0.0129723 0.100522 0)
(-0.0150139 -0.06843 0)
(-0.0149261 -0.0324599 0)
(-0.0129132 0.0369753 0)
(-0.0134607 0.0687046 0)
(-0.00243384 0.0828137 0)
(-0.000704448 0.0117869 0)
(-0.000964625 0.103056 0)
(0.000151672 0.0811296 0)
(-0.0153866 -0.0574019 0)
(-0.00055858 0.00458318 0)
(-0.0153441 -0.0603381 0)
(-0.0150425 -0.0336366 0)
(-0.0137609 0.0395919 0)
(-0.0140024 0.0379297 0)
(-0.0143523 0.0139375 0)
(-0.0149241 -0.0317286 0)
(-0.0130883 0.085371 0)
(-0.00136632 0.109159 0)
(0.000411588 0.0392573 0)
(-0.00177469 0.0873303 0)
(-0.00600648 0.0125142 0)
(-0.00856304 0.0148898 0)
(-0.000389958 0.00384814 0)
(-0.0139103 0.0214681 0)
(-0.0139815 0.0317223 0)
(-0.0093222 0.109775 0)
(-0.0145119 0.0015165 0)
(-0.00899809 0.0790711 0)
(-0.0150752 -0.0357992 0)
(-2.97568e-05 0.002832 0)
(-0.0131513 0.0961619 0)
(-0.0126124 0.062554 0)
(-5.55023e-05 0.0059861 0)
(0.000376976 0.0525167 0)
(-0.0152062 -0.0449992 0)
(-0.0123188 0.0363903 0)
(-0.0151856 -0.0449982 0)
(-0.0141679 0.0262017 0)
(-0.0141592 -0.0182912 0)
(-0.0143452 -0.00719705 0)
(-0.00860382 -0.0123287 0)
(-0.0147861 -0.0160401 0)
(-0.00746842 0.0961614 0)
(-0.0122553 0.0126403 0)
(-0.0153261 -0.0581577 0)
(0.000238984 0.0391002 0)
(-0.00440446 0.095585 0)
(-0.00946235 0.0125731 0)
(-0.0142557 -0.0447444 0)
(-0.0153195 -0.0526135 0)
(-0.0123354 0.0501704 0)
(-0.0130172 0.0329408 0)
(-0.0133693 0.0723947 0)
(-0.0139666 0.0404049 0)
(-0.00308102 0.109105 0)
(-0.00839366 0.0979576 0)
(-0.0154668 -0.0630714 0)
(-0.00580807 0.0119863 0)
(-0.0154833 -0.0641838 0)
(-0.000713705 0.00776045 0)
(-0.0119843 0.0104676 0)
(-0.0139177 0.0419018 0)
(-0.0147612 -0.038201 0)
(-0.0148419 -0.0303529 0)
(-0.0133508 0.0595672 0)
(-0.0137736 0.01772 0)
(-4.20592e-05 0.0251325 0)
(-3.9534e-05 0.00260944 0)
(-0.0138668 0.0252784 0)
(-0.0101757 0.0501083 0)
(-2.33339e-05 0.0219884 0)
(-0.0133111 -0.037402 0)
(-0.0132343 0.0791887 0)
(-0.00287458 0.0253319 0)
(-0.0129725 0.0887003 0)
(-0.0129277 0.101532 0)
(-0.0152413 -0.0492908 0)
(-0.013371 0.0580945 0)
(-0.0133287 0.0838534 0)
(-0.00420446 0.111532 0)
(0.00032677 0.0408589 0)
(-0.0134373 0.0621475 0)
(-0.00517272 0.0329313 0)
(-0.0126815 0.0208722 0)
(-0.0150522 -0.0348703 0)
(-0.0156192 -0.0737712 0)
(-0.0139133 0.0433997 0)
(-0.0154641 -0.0630118 0)
(-0.0089112 0.0644691 0)
(-0.00856385 0.0659394 0)
(-0.0110403 0.107222 0)
(-0.0077969 0.0877173 0)
(-0.00771083 0.040569 0)
(-0.0129188 0.108048 0)
(-0.0148359 -0.0248934 0)
(-0.0152199 -0.0457684 0)
(-0.0150085 -0.0710147 0)
(-0.0147732 -0.0374101 0)
(-0.000157918 0.0829938 0)
(-0.00697566 0.0289237 0)
(-0.0131306 0.091529 0)
(-0.0144551 -0.00746097 0)
(-0.0120952 0.0100515 0)
(0.000141552 0.0167563 0)
(-0.0148764 -0.0331121 0)
(-0.0138178 0.0428653 0)
(-0.0144504 0.00711499 0)
(-0.0019596 0.0939928 0)
(-0.00160829 0.0192365 0)
(-0.0153094 -0.0519368 0)
(-0.000990678 0.0990262 0)
(-0.0133058 0.0192058 0)
(-0.00469063 0.0263087 0)
(-0.0141534 0.0275183 0)
(-0.000623163 0.00320373 0)
(-0.0134206 0.0780145 0)
(-0.000755853 0.0648389 0)
(-0.0130291 0.0807911 0)
(-0.0138034 0.00147394 0)
(-0.0108252 0.108488 0)
(-0.0129862 0.0353358 0)
(-0.00409652 0.0814492 0)
(-0.012094 0.0253872 0)
(-0.00216299 0.0200477 0)
(-0.0153681 -0.0627624 0)
(-0.00216639 0.0984728 0)
(-0.0155917 -0.0714211 0)
(-0.0105445 0.0444288 0)
(-0.0148616 -0.0222295 0)
(-0.0148917 -0.0231875 0)
(-0.0127497 0.0406885 0)
(-0.00173607 0.0148084 0)
(-0.0130794 0.101157 0)
(-0.0154134 -0.0604382 0)
(-0.0125522 0.0275406 0)
(-0.014777 -0.0403551 0)
(-0.00159812 0.087137 0)
(-0.0155283 -0.0668727 0)
(-0.00917389 0.0342944 0)
(-0.0142306 0.0185067 0)
(-0.00252019 0.0549244 0)
(-0.00227156 0.0207364 0)
(-0.0151894 -0.0454878 0)
(-0.0134402 0.0128928 0)
(-0.00228687 0.0405515 0)
(-0.0135626 -0.0472746 0)
(-0.0146043 -0.00348001 0)
(-0.0124406 0.115502 0)
(-0.0146062 -0.00393584 0)
(-0.00680699 0.0393336 0)
(-0.0149541 -0.0273439 0)
(-0.001883 0.058831 0)
(-0.00273235 0.0241525 0)
(-0.00237299 0.0936917 0)
(-0.00223816 -0.00426493 0)
(-0.000688938 0.0195172 0)
(-0.0144918 0.00396301 0)
(-0.0149852 -0.0301544 0)
(-0.0105433 0.0239493 0)
(-0.00050913 0.005104 0)
(-0.0134218 0.0269021 0)
(-0.00697883 0.053552 0)
(-0.0130805 0.100962 0)
(-0.0134718 0.0610478 0)
(-0.0149446 -0.026652 0)
(-0.0140276 0.0361896 0)
(-0.0120449 0.0272125 0)
(-0.0150638 -0.0519999 0)
(-0.00263804 0.0517682 0)
(-0.0139024 -0.000687558 0)
(-0.0116998 0.10831 0)
(-0.00971542 -0.00152974 0)
(-0.000700748 0.00770901 0)
(-0.0131302 0.0897301 0)
(-0.0140363 0.0357228 0)
(-0.0143458 -0.00841736 0)
(-0.0135804 0.0670503 0)
(-0.014498 -0.025464 0)
(-9.74175e-05 0.0594549 0)
(-0.0132913 0.0353716 0)
(-0.0148039 -0.0414858 0)
(-0.0137488 0.055428 0)
(-0.0135204 0.00135496 0)
(-0.0152124 -0.0480715 0)
(-0.0144548 -0.00652174 0)
(-0.000994314 0.0153017 0)
(-0.0131198 0.0962717 0)
(-0.0131355 0.0956537 0)
(-0.0153416 -0.0540733 0)
(-0.0140183 0.0350648 0)
(-0.0155758 -0.0745774 0)
(-0.0067236 0.0966747 0)
(-0.00991873 0.114548 0)
(0.000530108 0.0930855 0)
(-0.0147878 -0.0180492 0)
(-0.0108501 0.0743337 0)
(-0.00116136 0.00725277 0)
(-0.0145637 -0.000968588 0)
(-0.00873454 0.0803508 0)
(-0.00159699 0.0136129 0)
(-0.0074508 0.0738021 0)
(-0.00860793 0.0802885 0)
(-0.0141438 0.0281892 0)
(-0.0142883 0.0146067 0)
(-0.00576846 0.0432822 0)
(-0.0133563 0.0335995 0)
(-0.0148964 -0.0233448 0)
(-0.00979669 0.0690524 0)
(-0.0135576 0.0685865 0)
(-0.0037278 0.10014 0)
(-0.0146761 -0.030765 0)
(-0.014382 0.0117982 0)
(-0.00252237 0.0361575 0)
(-0.0153563 -0.0636188 0)
(-0.011208 0.0769334 0)
(-0.0128046 0.0410609 0)
(-0.0124747 0.115829 0)
(-0.0088835 0.0790071 0)
(-0.0136707 0.054986 0)
(-0.0146096 -0.0618407 0)
(-0.0146013 -0.00329859 0)
(-0.0108567 -0.00990354 0)
(-0.0154942 -0.0645711 0)
(-0.0130498 0.0233473 0)
(-0.0147692 -0.0148091 0)
(-0.0138969 0.0452164 0)
(-0.0154948 -0.0646041 0)
(-0.0141966 -0.0221764 0)
(-0.00357459 0.0834543 0)
(-0.00887346 0.0659524 0)
(-0.000390633 0.010427 0)
(-0.0138493 -0.0605596 0)
(-0.000186811 0.0534895 0)
(-0.014721 -0.0115153 0)
(-0.0100878 0.0904476 0)
(-0.00561129 0.106168 0)
(-0.00282575 0.108919 0)
(-0.00674078 0.0959759 0)
(-0.00668998 0.0385505 0)
(-0.0128057 -0.0478602 0)
(-0.011126 0.0725858 0)
(-0.0121104 -0.00102543 0)
(-0.0103835 0.082714 0)
(-0.0142167 0.0229764 0)
(-0.0153908 -0.0651554 0)
(-0.0131534 0.0147118 0)
(-0.0122541 0.0813492 0)
(-0.0145512 -0.000142797 0)
(-0.00423439 0.0963762 0)
(-0.0135747 0.0672886 0)
(-0.00559095 0.0126262 0)
(-0.0104088 0.0938035 0)
(-0.00195612 0.098945 0)
(-0.00814161 0.0536801 0)
(-0.0116577 0.0895429 0)
(-0.00290259 0.0544545 0)
(-0.00577637 0.0421426 0)
(-0.00433022 0.113036 0)
(-0.000480315 0.0861283 0)
(-0.0132432 0.0782121 0)
(-0.0109529 0.0365238 0)
(-0.0139819 0.0394924 0)
(-0.0145198 0.000582503 0)
(-0.0145377 -0.00339609 0)
(-0.0140013 0.0335387 0)
(-0.0102105 0.0215082 0)
(-0.0139913 0.0387128 0)
(-0.0145465 -0.00592397 0)
(-0.00095198 0.0154345 0)
(-0.0110273 0.074512 0)
(-0.00390012 0.0957366 0)
(-0.0135833 0.0666554 0)
(-0.00315946 0.100779 0)
(-0.00588056 0.112389 0)
(-0.0146468 -0.00781595 0)
(-0.0131142 0.0989019 0)
(-0.0127674 0.0801623 0)
(-0.00968046 0.0440595 0)
(-0.0153638 -0.0560922 0)
(-0.0146563 -0.00863002 0)
(-0.0155723 -0.0737255 0)
(-0.0111104 0.0780665 0)
(-0.00526735 0.0294116 0)
(-0.00939953 -0.00527626 0)
(-0.0140952 0.00932662 0)
(-0.00297165 0.0834602 0)
(-0.0145551 4.5684e-05 0)
(-0.0136099 0.05394 0)
(-0.000842491 0.0305501 0)
(-0.0147754 -0.019609 0)
(-0.0132943 0.0759144 0)
(-0.0093434 0.0127607 0)
(-0.0142279 0.0221694 0)
(-0.0134335 0.0771252 0)
(-0.0148497 -0.0263167 0)
(-0.0105991 0.0453568 0)
(-0.0153912 -0.0580332 0)
(-0.0139275 0.0196714 0)
(-0.00335641 0.0379393 0)
(-0.0152197 -0.0457501 0)
(-0.00843501 0.097146 0)
(-0.00901658 0.0196805 0)
(-0.00545867 0.0643569 0)
(-0.013656 -0.0386553 0)
(-0.0139249 -0.0577061 0)
(-0.0150607 -0.0348438 0)
(-0.0134049 0.0787381 0)
(-0.014134 -0.0418616 0)
(-0.0151204 -0.03901 0)
(-0.0138058 -0.0305892 0)
(-0.00262662 0.0790207 0)
(-0.00525621 0.114942 0)
(-0.00467542 0.0551336 0)
(-0.013247 0.0841569 0)
(-0.00956116 -0.000682508 0)
(-0.00209593 0.0201881 0)
(-0.00850688 0.089118 0)
(-0.0102136 0.0479631 0)
(-0.0149731 -0.0288175 0)
(-0.0155185 -0.0662033 0)
(-0.0151564 -0.0478596 0)
(-0.014415 0.00960875 0)
(-0.0138313 0.0491648 0)
(-0.00500366 0.1077 0)
(-0.00480342 0.0807597 0)
(-0.0108685 0.0383186 0)
(-0.01366 0.0560427 0)
(-0.00950875 -0.00412838 0)
(-0.00090703 0.00110049 0)
(-0.0126546 0.063105 0)
(-0.013906 0.0428613 0)
(-0.0154638 -0.0751956 0)
(-0.00165479 -0.000820634 0)
(-0.0118824 0.0787866 0)
(-0.0130847 0.0315979 0)
(-0.0144822 -0.00294232 0)
(-0.0134321 0.0772507 0)
(-0.00872928 -0.0117413 0)
(-0.00656786 -0.00551648 0)
(-0.0121208 -0.0188145 0)
(-0.0136888 0.0569528 0)
(-0.0132554 -0.0389568 0)
(-0.0147065 -0.0105442 0)
(-0.00794347 0.0879228 0)
(-0.00147606 0.0178218 0)
(-0.00910347 0.0182289 0)
(-0.00570285 0.0636357 0)
(-0.00951057 0.0831536 0)
(-0.0148858 -0.0291024 0)
(-0.015549 -0.0689608 0)
(-0.0151975 -0.0443603 0)
(-0.00165188 0.109397 0)
(-0.00278388 0.0547277 0)
(-0.0129806 0.0995211 0)
(-0.0110182 -0.000148745 0)
(-0.0142847 0.0173629 0)
(-0.014544 0.000780469 0)
(-0.00535023 0.10846 0)
(-0.0136521 0.0620543 0)
(-0.0154007 -0.0583454 0)
(-0.0133324 0.0837296 0)
(-0.0144648 -0.0534594 0)
(-0.0135169 -0.000699015 0)
(-0.014952 -0.0272202 0)
(-0.0132161 0.0146955 0)
(-0.00911254 0.103432 0)
(-0.0111884 0.106875 0)
(-0.013022 0.0877208 0)
(-0.00990609 0.0545692 0)
(-0.0125673 0.115067 0)
(-0.00255658 0.080021 0)
(-0.0151096 -0.0389651 0)
(-0.0137065 0.0560049 0)
(-0.00558959 0.0137495 0)
(-0.00622464 0.0984705 0)
(-0.0117576 0.0892694 0)
(-0.0135052 0.0649707 0)
(-0.0135307 0.00511106 0)
(-0.00146113 0.0161701 0)
(-0.0132907 -0.0201241 0)
(-0.00130783 0.102059 0)
(-0.0128832 -0.0175049 0)
(-0.0122529 0.114165 0)
(-0.000512767 0.042322 0)
(-0.015403 -0.0595177 0)
(-0.0153435 -0.0541955 0)
(-0.00267095 0.0808928 0)
(-0.0134554 -0.000375885 0)
(-0.0139261 -0.055871 0)
(-0.00250711 0.0486425 0)
(-0.0156311 -0.0745206 0)
(-0.0154026 -0.0580196 0)
(-0.0140164 0.0369858 0)
(-0.0155776 -0.0704312 0)
(-0.00322353 0.0523416 0)
(-0.00999154 0.078353 0)
(-0.0113171 0.0654899 0)
(-0.00300507 0.0934807 0)
(-0.0152045 -0.0516755 0)
(-0.0135863 0.00271289 0)
(5.88865e-05 0.0160594 0)
(-0.0145899 -0.0394615 0)
(-0.00274944 0.106386 0)
(-0.014885 -0.0236291 0)
(-0.0138507 -0.00051498 0)
(-0.0148883 -0.0227967 0)
(-0.00101998 0.101797 0)
(-0.00960715 0.0728218 0)
(-0.00615634 0.112956 0)
(-0.0143552 -8.19054e-05 0)
(-0.0140987 0.0112352 0)
(-0.00439753 0.0745734 0)
(-0.0154236 -0.0594939 0)
(-0.0146863 -0.00908793 0)
(-0.0128875 0.109853 0)
(-0.0137807 0.0531768 0)
(-0.0150981 -0.038073 0)
(-0.0151319 -0.0397776 0)
(-0.0147813 -0.0156298 0)
(-0.00411598 0.074406 0)
(-0.0022601 0.0739009 0)
(-0.0100968 0.013636 0)
(-0.0153185 -0.061948 0)
(-0.0141927 -0.0522127 0)
(-0.0140494 0.0143429 0)
(-0.0133241 0.0845758 0)
(-0.0107485 -0.00905716 0)
(-0.00377199 0.00717101 0)
(-0.000533765 0.075829 0)
(-0.0153919 -0.0742065 0)
(-0.00618484 0.00796746 0)
(-0.0129669 -2.49311e-06 0)
(-0.008551 0.0874636 0)
(-0.0153459 -0.0561709 0)
(-0.00508236 0.096761 0)
(-0.00510058 0.0334085 0)