/*--------------------------------*- C++ -*----------------------------------*\
| =========                 |                                                 |
| \\      /  F ield         | OpenFOAM: The Open Source CFD Toolbox           |
|  \\    /   O peration     | Version:  v2012                                 |
|   \\  /    A nd           | Website:  www.openfoam.com                      |
|    \\/     M anipulation  |                                                 |
\*---------------------------------------------------------------------------*/
FoamFile
{
    version     2.0;
    format      ascii;
    class       volVectorField;
    location    "650";
    object      cellDisplacement;
}
// * * * * * * * * * * * * * * * * * * * * * * * * * * * * * * * * * * * * * //

dimensions      [0 1 0 0 0 0 0];


internalField   nonuniform List<vector> 
13851
(
(0.0128314 0.0126415 0)
(0.0115176 -0.0220219 0)
(0.0114487 -0.0210691 0)
(0.0142258 -0.0862331 0)
(0.000379759 -0.00296638 0)
(0.0119549 -0.0344792 0)
(0.0100855 0.0360645 0)
(0.000863754 -0.00305257 0)
(0.0126556 0.0337531 0)
(0.00238475 -0.0677582 0)
(0.0133358 -0.0571523 0)
(0.00344237 -0.0388975 0)
(0.00393743 -0.0808885 0)
(0.012773 0.0249084 0)
(0.012252 0.00956316 0)
(0.0120786 0.0588275 0)
(0.0138803 -0.0596543 0)
(0.00925012 -0.0296915 0)
(0.0132593 -0.0152142 0)
(0.0128399 0.0116067 0)
(0.0125347 -0.00030503 0)
(0.0110931 -0.0757917 0)
(0.0143012 -0.0963446 0)
(0.000157143 -0.00135946 0)
(0.0136153 -0.0412117 0)
(0.011795 0.0528124 0)
(0.0125448 0.0386079 0)
(0.0131212 -0.00297142 0)
(0.0123857 0.0542346 0)
(0.00692267 -0.0273276 0)
(0.014006 -0.0694685 0)
(0.010123 0.0343975 0)
(0.0127518 0.0176955 0)
(0.0128979 0.0151548 0)
(0.0130052 -0.0544706 0)
(0.0123348 0.05803 0)
(0.000137643 -0.00119541 0)
(0.013916 -0.0655111 0)
(0.0135994 -0.0383432 0)
(0.00776213 -0.0706683 0)
(0.0130928 0.000347747 0)
(0.0123859 0.0541447 0)
(0.0140142 -0.0698944 0)
(0.0139838 -0.0965946 0)
(0.0124423 0.0498036 0)
(0.00736876 -0.0512456 0)
(0.00144265 0.00259014 0)
(0.0122727 0.0482811 0)
(0.0108142 -0.0608018 0)
(0.00376087 -0.0809018 0)
(0.0134384 -0.0259366 0)
(0.00271737 -0.0839391 0)
(0.0120904 0.0577881 0)
(0.0111084 0.0401765 0)
(0.0126405 0.0349811 0)
(0.00770638 -0.0714502 0)
(0.0127721 0.0167849 0)
(0.0131 -0.000187768 0)
(0.0124029 0.0485757 0)
(0.0129918 0.00810107 0)
(0.0033037 -0.0376008 0)
(0.0125438 0.0382353 0)
(0.00128983 -0.0547626 0)
(0.0108725 -0.0617622 0)
(0.0131197 -0.101427 0)
(0.0131528 -0.101831 0)
(0.0129973 0.0076631 0)
(0.00613226 -0.103054 0)
(0.00891704 -0.0629201 0)
(0.0141615 -0.0813297 0)
(0.0139401 -0.0642854 0)
(0.0126925 -0.00130175 0)
(0.00564524 -0.0739533 0)
(0.0129803 0.00901741 0)
(0.0115039 0.0321512 0)
(0.0100703 -0.0767254 0)
(0.0138835 -0.0598999 0)
(0.00593522 -0.0120883 0)
(0.0136032 -0.0404596 0)
(0.00573508 -0.0546957 0)
(0.00903857 -0.0626731 0)
(0.0137128 -0.0526969 0)
(0.0129704 -0.0556668 0)
(0.012801 0.022775 0)
(0.0129736 0.00952389 0)
(0.0139826 -0.0676106 0)
(0.0112194 -0.0752949 0)
(0.0123927 0.0539461 0)
(0.00324704 -0.0687066 0)
(0.0140166 -0.0702983 0)
(0.00255974 -0.0843896 0)
(0.0102404 0.033452 0)
(0.0135339 -0.0332244 0)
(0.0139926 -0.0683336 0)
(0.0134685 -0.0282851 0)
(0.0138496 -0.0962926 0)
(0.00701287 -0.0577852 0)
(0.0121994 0.0530081 0)
(0.0132678 -0.0129037 0)
(0.0137879 -0.0728702 0)
(0.0122317 0.0520044 0)
(0.00685777 -0.101215 0)
(0.0080259 -0.10127 0)
(0.00553608 -0.0774075 0)
(0.00772552 -0.0477874 0)
(0.0128138 -0.01312 0)
(0.00761083 -0.0479879 0)
(0.0139474 -0.0648743 0)
(0.010278 0.0317983 0)
(0.00913991 -0.0294454 0)
(0.0113876 -0.084899 0)
(0.00750049 -0.0511626 0)
(0.0134242 -0.0323621 0)
(0.0132169 -0.0373297 0)
(0.0126162 0.0271258 0)
(0.0110801 0.0391343 0)
(0.00511942 -0.0234749 0)
(0.00105306 -0.00355352 0)
(0.0142328 -0.0867309 0)
(0.0141642 -0.0816579 0)
(0.0137598 -0.0928516 0)
(0.00838191 -0.0282845 0)
(0.00859996 -0.0664253 0)
(0.0129404 0.012019 0)
(0.0131304 -0.00593313 0)
(0.00797005 -0.103652 0)
(0.00701473 -0.0568026 0)
(0.0131932 -0.0728425 0)
(0.012962 0.0103274 0)
(0.0124908 0.00877873 0)
(0.0110247 -0.0771004 0)
(0.0124776 -0.0502887 0)
(0.013909 -0.0655065 0)
(0.0128862 0.0160638 0)
(0.0133613 -0.0559924 0)
(0.0135111 -0.0315245 0)
(0.00583666 -0.102905 0)
(0.0139728 -0.0668352 0)
(0.00604043 -0.100056 0)
(0.0123856 0.0136277 0)
(0.0137149 -0.0535345 0)
(0.0062703 -0.0863647 0)
(0.00321406 -0.0696732 0)
(0.0110572 -0.102679 0)
(0.0134877 -0.0311573 0)
(0.00944966 -0.0804287 0)
(0.00575982 -0.0110312 0)
(0.0140034 -0.0691777 0)
(0.0125176 0.0442539 0)
(0.013248 -0.0728327 0)
(0.0122509 0.0508025 0)
(0.0134277 -0.0332931 0)
(0.0132419 -0.0371374 0)
(0.0132198 -0.0131177 0)
(0.00398452 -0.0851475 0)
(0.00237501 -0.0770114 0)
(0.00298929 -0.031945 0)
(0.0136068 -0.0388898 0)
(0.0123493 0.012282 0)
(0.0106117 0.0158279 0)
(0.000355051 -0.00310212 0)
(0.012364 0.0558614 0)
(0.0127799 -0.0120441 0)
(0.0122921 0.0470242 0)
(0.0127631 0.0256462 0)
(0.0126081 0.037296 0)
(0.0126165 0.0366431 0)
(0.0134467 -0.0265696 0)
(0.0113281 -0.0841458 0)
(0.0132315 -0.010671 0)
(0.00307512 -0.0360713 0)
(0.00497719 -0.0224259 0)
(0.0129929 -0.0183779 0)
(0.000328085 -0.00268587 0)
(0.0134629 -0.0278751 0)
(0.0127249 0.0256148 0)
(0.0124056 0.0429748 0)
(0.0050439 -0.0217435 0)
(0.0114008 0.035252 0)
(0.012382 0.0438453 0)
(0.0131169 -0.00519975 0)
(0.0139487 -0.095986 0)
(0.0113508 -0.0822712 0)
(0.0124483 0.010007 0)
(0.0138941 -0.0607269 0)
(0.0125084 0.0449507 0)
(0.0127344 0.0192517 0)
(0.00543287 -0.0981239 0)
(0.00425505 -0.0833515 0)
(0.00728956 -0.037768 0)
(0.0134847 -0.0311581 0)
(0.0123738 0.0105099 0)
(0.0127758 0.0247102 0)
(0.0119796 -0.0324187 0)
(0.00944572 -0.0794584 0)
(0.0121454 0.0554483 0)
(0.012715 0.0199994 0)
(0.00982331 -0.00851643 0)
(0.0099909 -0.0382208 0)
(0.00731971 -0.10288 0)
(0.013739 -0.0558487 0)
(0.0133334 -0.0179816 0)
(0.0131411 -0.00331765 0)
(0.0122052 0.0111996 0)
(0.0141528 -0.10203 0)
(0.01333 -0.017713 0)
(0.00295877 -0.0934046 0)
(0.0121794 0.0238763 0)
(0.0126847 0.031531 0)
(0.0118425 -0.0422342 0)
(0.012026 0.0610676 0)
(0.00850533 -0.066133 0)
(0.0137362 -0.0549522 0)
(0.00110755 -0.0134083 0)
(0.013031 -0.0515409 0)
(0.010425 -0.0774267 0)
(0.00369774 -0.08001 0)
(0.0129263 0.00899068 0)
(0.0100403 -0.02402 0)
(0.0114866 -0.104611 0)
(0.0049083 -0.0206514 0)
(0.0128775 0.00894893 0)
(0.0128084 0.0222119 0)
(0.0134898 -0.0299103 0)
(0.00622553 -0.0974632 0)
(0.0121752 0.025157 0)
(0.000584864 -0.00695951 0)
(0.0107341 -0.102603 0)
(0.00452695 -0.0512576 0)
(0.0129946 -0.0524111 0)
(0.0142324 -0.0874868 0)
(0.00562439 -0.0978016 0)
(0.0118215 -0.0405148 0)
(0.000741702 -0.0509417 0)
(0.013132 -0.00261706 0)
(0.00700154 -0.0264237 0)
(0.0142744 -0.0962125 0)
(0.0131619 -0.00490319 0)
(0.0137545 -0.0725921 0)
(0.000333244 -0.0029299 0)
(0.014067 -0.0831469 0)
(0.0129547 0.0109495 0)
(0.0124322 0.0505085 0)
(0.0120345 0.060094 0)
(0.0124165 -0.0126407 0)
(0.0112717 -0.103058 0)
(0.0129205 0.00896516 0)
(0.0113706 0.0369845 0)
(0.0138131 -0.0957096 0)
(0.0118259 -0.0820954 0)
(0.0125163 0.0443475 0)
(0.0130882 -0.00674477 0)
(0.000923001 -0.00447047 0)
(0.011793 -0.0110009 0)
(0.0121819 0.0543246 0)
(0.0123554 0.0565474 0)
(0.0122492 0.0647284 0)
(0.00716398 -0.0370657 0)
(0.00765097 -0.1038 0)
(0.00345717 -0.0678682 0)
(0.0127648 0.0199996 0)
(0.0131587 -0.00835402 0)
(0.0118424 -0.0105823 0)
(0.0127704 -0.00987452 0)
(0.0131065 -0.00766797 0)
(0.00595124 -0.0680684 0)
(0.00722001 -0.101332 0)
(0.0122872 0.0448054 0)
(0.0130527 0.00204471 0)
(0.00287329 -0.0518344 0)
(0.00352588 -0.0798848 0)
(0.00603825 -0.0977961 0)
(0.0127141 0.029207 0)
(0.0142075 -0.0847142 0)
(0.0125772 0.00227143 0)
(0.00852619 -0.0285479 0)
(0.0131 -0.00369455 0)
(0.0131893 -0.010739 0)
(0.0126377 0.0239942 0)
(0.012737 -0.00863048 0)
(0.0127219 0.0286399 0)
(0.0131813 -0.00631337 0)
(0.0120146 -0.0192999 0)
(0.012113 0.0101176 0)
(0.0139846 -0.070994 0)
(0.00785883 -0.0446843 0)
(0.0029303 -0.0302853 0)
(0.0126619 0.0229683 0)
(0.0132538 -0.0628541 0)
(0.00723592 -0.0256311 0)
(0.00111798 -0.0129736 0)
(0.00457047 -0.0524907 0)
(0.000530522 -0.00371441 0)
(0.0123064 -0.00414112 0)
(0.00305214 -0.0318899 0)
(0.0126652 0.0330078 0)
(0.0125632 0.000152782 0)
(0.00780494 -0.0636385 0)
(0.0123428 0.0574847 0)
(0.0129339 0.0125122 0)
(0.00351619 -0.0838107 0)
(0.0128669 0.0101365 0)
(0.0133523 -0.0193739 0)
(0.00638642 -0.0868976 0)
(0.00335697 -0.0843396 0)
(0.0126109 -0.00100391 0)
(0.0128434 0.019516 0)
(0.0138291 -0.0563468 0)
(0.0129726 -0.0120618 0)
(0.000487011 -0.00376609 0)
(0.0132198 -0.00981888 0)
(0.0032162 -0.0374799 0)
(0.0130247 -0.0136434 0)
(0.01336 -0.01997 0)
(0.0130236 0.00421401 0)
(0.0105494 0.0152615 0)
(0.0139867 -0.0717118 0)
(0.0139086 -0.0666746 0)
(0.0139029 -0.0615057 0)
(0.0134543 -0.0358181 0)
(0.00566237 -0.101826 0)
(0.0135123 -0.0316427 0)
(0.0129496 0.0113051 0)
(0.0131339 -0.00400826 0)
(0.0100967 -0.0384832 0)
(0.0139862 -0.0677403 0)
(0.0124017 0.0532122 0)
(0.0114912 -0.104277 0)
(0.011627 -0.104167 0)
(0.00316468 -0.0936198 0)
(0.0130149 -0.0166795 0)
(0.00911271 -0.0943923 0)
(0.0123833 0.054624 0)
(0.00752703 -0.101777 0)
(0.00148451 -0.00845541 0)
(0.00164653 0.00251844 0)
(0.0118899 -0.0642946 0)
(0.0139092 -0.0619538 0)
(0.0115245 -0.104585 0)
(0.00781359 -0.0435014 0)
(0.0134808 -0.0292099 0)
(0.00876827 -0.0953165 0)
(0.0125057 -0.0516651 0)
(0.0106085 0.0174066 0)
(0.0128364 0.0200524 0)
(0.0130852 -0.0028075 0)
(0.0121307 0.0566228 0)
(0.0102709 -0.0776292 0)
(0.0117357 -0.0403842 0)
(0.0122358 0.0653828 0)
(0.00445696 -0.0836094 0)
(0.0132077 -0.0119206 0)
(0.0119656 -0.0179632 0)
(0.0126366 -0.00269863 0)
(0.00872295 -0.0958304 0)
(0.00342062 -0.0688371 0)
(0.00784532 -0.0627155 0)
(0.0136242 -0.0521806 0)
(0.0138045 -0.0718387 0)
(0.0130543 -0.00412619 0)
(0.0139174 -0.0666459 0)
(0.0122452 0.0646278 0)
(0.00956924 -0.0805448 0)
(0.0131517 -0.00411596 0)
(0.0128111 0.0178262 0)
(0.00754927 -0.0121942 0)
(0.0130141 0.00506382 0)
(0.012824 0.00774716 0)
(0.0132772 -0.0136236 0)
(0.0118121 -0.0637879 0)
(0.0116216 0.0600652 0)
(0.0123968 0.0484377 0)
(0.0137862 -0.0551074 0)
(0.0136303 -0.054554 0)
(0.0124204 0.0518241 0)
(0.0105328 -0.0479823 0)
(0.0127387 0.0248337 0)
(0.0140237 -0.0705508 0)
(0.0123747 -0.0223574 0)
(0.0125155 0.0444142 0)
(0.0125179 -0.0241921 0)
(0.0131844 -0.0066364 0)
(0.0120915 0.00924362 0)
(0.0111426 0.0526258 0)
(0.0131335 -0.0102965 0)
(0.0138299 -0.0676397 0)
(0.00256418 -0.0771084 0)
(0.0119678 -0.0245002 0)
(0.0132954 -0.0633391 0)
(0.0114773 0.0339302 0)
(0.00739364 -0.0555875 0)
(0.0125751 0.00361195 0)
(0.0128964 0.0150389 0)
(0.00569453 -0.0732901 0)
(0.0122295 0.0216359 0)
(0.0142663 -0.0892849 0)
(0.0114707 -0.0403007 0)
(0.0141681 -0.092499 0)
(0.0117007 0.0421097 0)
(0.0138193 -0.0556747 0)
(0.0119146 -0.0428329 0)
(0.0117628 0.0524411 0)
(0.0140622 -0.102064 0)
(0.0131494 -0.00736643 0)
(0.0128316 -0.0165679 0)
(0.012256 0.0642173 0)
(0.0129618 0.0104293 0)
(0.0140526 -0.0837026 0)
(0.00588011 -0.068721 0)
(0.0136059 -0.0512961 0)
(0.0125776 -0.0294057 0)
(0.0116577 0.0583808 0)
(0.00833895 -0.0325371 0)
(0.0139628 -0.0659655 0)
(0.0129775 0.00887604 0)
(0.0137122 -0.0490106 0)
(0.0117047 -0.0386831 0)
(0.0131272 -0.0092903 0)
(0.0126028 0.0340868 0)
(0.0142143 -0.0852545 0)
(0.00603055 -0.000118298 0)
(0.013984 -0.067568 0)
(0.0138214 -0.0649408 0)
(0.0143419 -0.0981376 0)
(0.0119413 -0.0818586 0)
(0.0132834 -0.0153987 0)
(0.00388045 -0.0755213 0)
(0.000289483 -0.00234844 0)
(0.0126319 0.0356329 0)
(0.012633 0.0319834 0)
(0.0024785 -0.0690322 0)
(0.01153 -0.0235412 0)
(0.0122687 0.0209397 0)
(0.00505382 -0.0264509 0)
(0.0129776 0.00879962 0)
(0.0130085 -0.0152103 0)
(0.0128269 0.00679484 0)
(0.0114114 0.00911449 0)
(0.0105422 -0.0464692 0)
(0.00188538 -0.0842015 0)
(0.0137957 -0.0561064 0)
(0.0076487 -0.0639485 0)
(0.00174292 -0.0836478 0)
(0.0123433 0.0557841 0)
(0.0129039 0.0144222 0)
(0.0108876 -0.0774044 0)
(0.0124069 0.0470058 0)
(0.0011525 -0.0538241 0)
(0.00298296 -0.0301874 0)
(0.0115601 -0.0402823 0)
(0.0130727 -0.00510819 0)
(0.0115372 0.0463861 0)
(0.00750186 -0.0572786 0)
(0.0109058 -0.0345655 0)
(0.0137266 -0.0922137 0)
(0.0110927 -0.0154776 0)
(0.0138778 -0.0603047 0)
(0.00333787 -0.0363603 0)
(0.0112443 0.0250063 0)
(0.0124546 0.0488536 0)
(0.0102011 -0.0961496 0)
(0.00178067 -0.00025816 0)
(0.00281442 -0.0356701 0)
(0.0114083 0.00747582 0)
(0.0100079 -0.00564564 0)
(0.014081 -0.0876801 0)
(0.0123338 0.0568983 0)
(0.0124314 -0.0112246 0)
(0.0139854 -0.104417 0)
(0.0116119 -0.0385874 0)
(0.00377893 -0.0485714 0)
(0.0128666 0.0176354 0)
(0.0124128 0.0472035 0)
(0.0079685 -0.0990671 0)
(0.00622965 -0.0741854 0)
(0.0129384 0.012164 0)
(0.00639699 -0.0997484 0)
(0.0142382 -0.0983563 0)
(0.00539346 -0.077559 0)
(0.0125083 -0.0468205 0)
(0.0136363 -0.0537023 0)
(0.0117756 0.0270937 0)
(0.0129501 0.0112567 0)
(0.0125939 0.0349461 0)
(0.0137186 -0.0497692 0)
(0.00806067 -0.0882519 0)
(0.0134492 -0.0347564 0)
(0.00620977 -0.0678854 0)
(0.0123764 0.0549685 0)
(0.0117204 0.0406673 0)
(0.0126987 0.0211835 0)
(0.0125422 -0.0280258 0)
(0.0102134 -0.0766919 0)
(0.0102441 -0.0956588 0)
(0.0129884 -0.0167801 0)
(0.000425068 -0.00335843 0)
(0.0141428 -0.0797088 0)
(0.0128744 0.0170453 0)
(0.0138869 -0.0610959 0)
(0.0143662 -0.0968617 0)
(0.0123455 0.0559435 0)
(0.0137177 -0.0472959 0)
(0.0131788 -0.00966576 0)
(0.00664482 -0.0967114 0)
(0.00127436 -0.0250917 0)
(0.0141996 -0.0927605 0)
(0.00221858 -0.0674664 0)
(0.00728876 -0.0549909 0)
(0.00732913 -0.0973147 0)
(0.0134428 -0.026347 0)
(0.0113404 -0.0137536 0)
(0.00566503 -0.087189 0)
(0.0132577 -0.091632 0)
(0.0129787 -0.03062 0)
(0.00122634 -0.0695624 0)
(0.0135855 -0.0379843 0)
(0.0067737 -0.0580181 0)
(0.0129298 0.0127659 0)
(0.0140611 -0.0869819 0)
(0.00587465 -0.05516 0)
(0.0109548 -0.00121243 0)
(0.013781 -0.060311 0)
(0.0130416 0.00298694 0)
(0.00717773 -0.0268427 0)
(0.0138798 -0.0618486 0)
(0.0142184 -0.0921595 0)
(0.0077354 0.00537293 0)
(0.0137665 -0.0511169 0)
(0.0132426 -0.0141552 0)
(0.0129132 0.00634349 0)
(0.00788325 -0.0883867 0)
(0.0123576 0.05465 0)
(0.0131034 -0.000357504 0)
(0.00786395 0.00498375 0)
(0.0134522 -0.0310336 0)
(0.00874219 -0.0646421 0)
(0.00689742 -0.0583513 0)
(0.0122031 0.0647425 0)
(0.0131952 -0.00745906 0)
(0.0127663 -0.0288805 0)
(0.0114755 0.0472656 0)
(0.00194556 -0.0680603 0)
(0.0119309 0.0429139 0)
(0.0129516 0.0111113 0)
(0.0135652 -0.0356807 0)
(0.00856661 -0.00186289 0)
(0.013818 -0.0549179 0)
(0.00739628 -0.0568258 0)
(0.00886867 -0.0642713 0)
(0.0128379 -0.0152032 0)
(0.0109616 0.0333725 0)
(0.00604596 0.00117293 0)
(0.0099597 -0.0775353 0)
(0.0137462 -0.0495753 0)
(0.013812 -0.0672788 0)
(0.0137573 -0.0503915 0)
(0.0112623 -0.0144877 0)
(0.00361467 -0.0679808 0)
(0.0126922 0.0308594 0)
(0.00169675 -0.0317768 0)
(0.0135835 -0.048713 0)
(0.0115024 0.0156083 0)
(0.0116048 0.0288919 0)
(0.0124531 -0.0164524 0)
(0.0124211 0.0511478 0)
(0.0131899 -0.00697011 0)
(0.0119385 -0.0287067 0)
(0.0140239 -0.0705841 0)
(0.0105236 0.0120983 0)
(0.0131095 -0.0247944 0)
(0.0123971 0.0532641 0)
(0.0126406 0.0349656 0)
(0.00830061 -0.0687584 0)
(0.00612071 -0.0684586 0)
(0.00842539 -0.101126 0)
(0.0137381 -0.0489359 0)
(0.0122492 0.0560662 0)
(0.0118858 0.043787 0)
(0.0142589 -0.0976579 0)
(0.0109455 0.034819 0)
(0.012028 0.0107347 0)
(0.0142236 -0.0872176 0)
(0.0136145 -0.0401805 0)
(0.0135782 -0.0933435 0)
(0.0129195 0.0135677 0)
(0.0126162 0.030412 0)
(0.0122908 0.0611752 0)
(0.0102709 -0.0490772 0)
(0.0123907 0.0495952 0)
(0.0132835 -0.015629 0)
(0.00338119 -0.0460407 0)
(0.0135439 -0.033881 0)
(0.0134292 -0.0256314 0)
(0.0114168 -0.0830564 0)
(0.0124288 0.0121747 0)
(0.00723439 -0.0721978 0)
(0.0138502 -0.104388 0)
(0.0134172 -0.0773006 0)
(0.0142214 -0.0891537 0)
(0.00762886 -0.0648762 0)
(0.000379771 -0.00316319 0)
(0.00467831 -0.0965667 0)
(0.0129701 -0.0320172 0)
(0.0032672 -0.0350043 0)
(0.0134495 -0.0268425 0)
(0.000459352 -0.00380772 0)
(0.0126226 0.0295733 0)
(0.00758993 -0.0893532 0)
(0.0117109 0.0576234 0)
(0.00557868 -0.0767022 0)
(0.00125562 -0.0706412 0)
(0.0128216 -0.0792363 0)
(0.0138086 -0.0542134 0)
(0.0128666 -0.0199589 0)
(0.013501 -0.0307468 0)
(0.0125264 -0.0484051 0)
(0.00533584 -0.0286441 0)
(0.00821643 -0.0161452 0)
(0.0130237 -0.0199094 0)
(0.0108616 -0.0361391 0)
(0.0133516 -0.0336758 0)
(0.0115357 -0.0160024 0)
(0.00766823 -0.099013 0)
(0.0123689 0.0507128 0)
(0.0015921 -0.0322799 0)
(0.0121983 0.0686852 0)
(0.000795284 -0.00943577 0)
(0.0118137 0.0612901 0)
(0.0140345 -0.0714207 0)
(0.0125439 0.0420977 0)
(0.00295095 -0.0984294 0)
(0.0142163 -0.0898005 0)
(0.0131794 -0.0923008 0)
(0.0138854 -0.0783907 0)
(0.013419 -0.0248147 0)
(0.00892751 -0.00353456 0)
(0.0135937 -0.0385066 0)
(0.00906187 -0.0949597 0)
(0.0124278 -0.0223706 0)
(0.0143566 -0.0962176 0)
(0.0134936 -0.0322673 0)
(0.00767806 -0.0131777 0)
(0.0133473 -0.0345241 0)
(0.00973563 -0.00706531 0)
(0.0122905 0.0613123 0)
(0.0135252 -0.0324874 0)
(0.00929182 -0.062199 0)
(0.00677192 -0.103047 0)
(0.0130407 0.00399077 0)
(0.000599986 -0.00922933 0)
(0.000813947 -0.0124416 0)
(0.0117774 0.0541198 0)
(0.0122065 0.0680521 0)
(0.0123689 0.0533583 0)
(0.00318917 -0.0841898 0)
(0.0131667 -0.0129281 0)
(0.011009 -0.0158629 0)
(0.00144632 -0.0723231 0)
(0.0123401 0.0528129 0)
(0.0131585 -0.0118362 0)
(0.0137628 -0.0700848 0)
(0.00546595 0.000221449 0)
(0.0123083 0.043548 0)
(0.0107506 -0.0986189 0)
(0.0116697 0.0529569 0)
(0.00314532 -0.0896254 0)
(0.00929472 -0.0794007 0)
(0.0133644 -0.0779996 0)
(0.00482286 -0.0962249 0)
(0.0122798 0.0465805 0)
(0.0126533 0.000270107 0)
(0.0127033 -0.00306085 0)
(0.0134752 -0.0935087 0)
(0.0141894 -0.0985828 0)
(0.0132718 -0.0163616 0)
(0.012692 0.0304676 0)
(0.0138664 -0.061043 0)
(0.0122495 0.0502042 0)
(0.0127831 0.0241259 0)
(0.0119291 -0.0895862 0)
(0.0122185 0.0640563 0)
(0.0129016 0.0076036 0)
(0.00898413 -0.0338716 0)
(0.0119982 0.0101431 0)
(0.0132691 -0.0166192 0)
(0.0115964 -0.0697528 0)
(0.00565297 -0.0534632 0)
(0.00560291 -0.0513331 0)
(0.0118876 0.0588058 0)
(0.0124117 0.0525153 0)
(0.0113199 0.0239942 0)
(0.0131713 -0.00560779 0)
(0.00542565 -0.029863 0)
(0.0123838 0.0525273 0)
(0.0132775 -0.0977869 0)
(0.0133705 -0.0207932 0)
(0.0133655 -0.0364314 0)
(0.0119741 -0.0419188 0)
(0.0114531 -0.0188657 0)
(0.0133782 -0.0213819 0)
(0.0137565 -0.0688416 0)
(0.0118589 -0.089014 0)
(0.012622 0.0329577 0)
(0.0104377 -0.0453825 0)
(0.0141724 -0.0906504 0)
(0.0118687 0.0600373 0)
(0.0126469 0.0279658 0)
(0.0125541 -0.0362796 0)
(0.0138308 -0.0625624 0)
(0.00399347 -0.0750128 0)
(0.000900773 -0.0109249 0)
(0.00300397 -0.0928695 0)
(0.00160037 -0.0731734 0)
(0.012419 0.0516323 0)
(0.000609138 -0.00433128 0)
(0.0123238 0.0534791 0)
(0.012701 0.0302186 0)
(0.0133866 -0.0373069 0)
(0.0135446 -0.0341123 0)
(0.0132589 -0.0122407 0)
(0.0126624 0.027338 0)
(0.0139029 -0.0775481 0)
(0.00342917 -0.0982846 0)
(0.000464047 -0.0353937 0)
(0.00348028 -0.0789425 0)
(0.00574718 -0.0137778 0)
(0.00812056 -0.0168329 0)
(0.000440793 -0.00361855 0)
(0.0130804 -0.0215012 0)
(0.0133889 -0.0299258 0)
(0.0109248 -0.098873 0)
(0.0131077 -0.00206662 0)
(0.00993411 -0.0727535 0)
(0.0126744 0.032325 0)
(8.6404e-05 -0.00256799 0)
(0.0142265 -0.086396 0)
(0.0128899 -0.0584691 0)
(0.000176029 -0.00542151 0)
(0.000783644 -0.0473747 0)
(0.0125661 0.0404316 0)
(0.0119978 -0.0361072 0)
(0.0125547 0.0399792 0)
(0.0134059 -0.0238534 0)
(0.0123535 0.013663 0)
(0.0127705 0.00426621 0)
(0.00757567 0.00774159 0)
(0.0129085 0.0143666 0)
(0.00889268 -0.0872363 0)
(0.0114009 -0.0152552 0)
(0.0123603 0.0515639 0)
(0.000617078 -0.035296 0)
(0.00604638 -0.0865016 0)
(0.00888567 -0.0150316 0)
(0.0118152 0.037582 0)
(0.0124739 0.0476395 0)
(0.0123357 -0.0479922 0)
(0.0125534 -0.0326884 0)
(0.0138394 -0.065949 0)
(0.0135737 -0.0363125 0)
(0.00502395 -0.0982542 0)
(0.00979477 -0.0888244 0)
(0.0123506 0.0567125 0)
(0.00555485 -0.0132236 0)
(0.0123377 0.0577212 0)
(0.000822751 -0.00727535 0)
(0.0111101 -0.0133826 0)
(0.013576 -0.0383649 0)
(0.0123813 0.0324048 0)
(0.0126298 0.0258236 0)
(0.0135045 -0.0551198 0)
(0.01287 -0.0185099 0)
(0.000572241 -0.022755 0)
(9.09674e-05 -0.00237572 0)
(0.013134 -0.0248782 0)
(0.0103552 -0.0480852 0)
(0.000487811 -0.0199113 0)
(0.0111927 0.0303608 0)
(0.013884 -0.0720264 0)
(0.00317412 -0.0238247 0)
(0.013877 -0.0805418 0)
(0.0141558 -0.0915798 0)
(0.0124989 0.04381 0)
(0.0134869 -0.0538514 0)
(0.0140808 -0.0754057 0)
(0.00609356 -0.100379 0)
(0.000575286 -0.0368624 0)
(0.0136479 -0.0571398 0)
(0.00543223 -0.0314564 0)
(0.0119694 -0.022384 0)
(0.0126834 0.0310362 0)
(0.0122224 0.066301 0)
(0.0136054 -0.0393923 0)
(0.0123505 0.0566002 0)
(0.00952726 -0.0602007 0)
(0.00924291 -0.061405 0)
(0.0125058 -0.0967195 0)
(0.00901794 -0.0800238 0)
(0.00790783 -0.0391109 0)
(0.0143105 -0.0971287 0)
(0.0127525 0.0211752 0)
(0.0125548 0.0414568 0)
(0.0118026 0.0623972 0)
(0.0124097 0.0317262 0)
(0.00191998 -0.0748843 0)
(0.00698463 -0.0286225 0)
(0.0140956 -0.0827005 0)
(0.012855 0.00485311 0)
(0.0111999 -0.0129905 0)
(0.000224753 -0.0151157 0)
(0.0125925 0.0283179 0)
(0.0135155 -0.0397725 0)
(0.0131817 -0.00640719 0)
(0.00377332 -0.0848828 0)
(0.00189002 -0.0179429 0)
(0.0124815 0.0470472 0)
(0.00297016 -0.0892852 0)
(0.0124899 -0.0204386 0)
(0.00484832 -0.0254004 0)
(0.0134218 -0.0247618 0)
(0.000637579 -0.00312489 0)
(0.0140151 -0.0699294 0)
(0.00208297 -0.0586842 0)
(0.0137325 -0.0737009 0)
(0.0125121 -0.00431607 0)
(0.0123311 -0.0977843 0)
(0.0125819 -0.0347961 0)
(0.00548581 -0.0740631 0)
(0.0115419 -0.0265682 0)
(0.00241088 -0.0188329 0)
(0.0122862 0.0556346 0)
(0.00403976 -0.0888672 0)
(0.0122522 0.0645022 0)
(0.010562 -0.043255 0)
(0.0128299 0.0194154 0)
(0.0128248 0.0208226 0)
(0.0124923 -0.0396181 0)
(0.00190669 -0.0139673 0)
(0.0142853 -0.0908123 0)
(0.0123729 0.0540486 0)
(0.0120061 -0.0282744 0)
(0.0123436 0.0343341 0)
(0.00331523 -0.0787518 0)
(0.0123064 0.0604669 0)
(0.00909567 -0.0341341 0)
(0.0132826 -0.0177708 0)
(0.0034849 -0.050209 0)
(0.00252478 -0.0194896 0)
(0.0125466 0.0403875 0)
(0.0124615 -0.01478 0)
(0.00296655 -0.037312 0)
(0.0111762 0.0395733 0)
(0.0130565 0.00314 0)
(0.0140484 -0.103651 0)
(0.0130514 0.00321772 0)
(0.0070593 -0.037707 0)
(0.0127739 0.0248131 0)
(0.00298487 -0.0535415 0)
(0.00301867 -0.0227155 0)
(0.00414631 -0.0846532 0)
(0.00195904 0.00293079 0)
(0.00104736 -0.017882 0)
(0.0131444 -0.00384144 0)
(0.0127403 0.0267891 0)
(0.0101087 -0.025376 0)
(0.000577389 -0.00479777 0)
(0.0127758 -0.0270197 0)
(0.00752628 -0.0502312 0)
(0.0142818 -0.0906741 0)
(0.0136522 -0.0561282 0)
(0.012782 0.0242199 0)
(0.013524 -0.0325431 0)
(0.0115389 -0.0282043 0)
(0.012299 0.0453081 0)
(0.00352463 -0.0474085 0)
(0.012548 -0.00233746 0)
(0.0131584 -0.0976328 0)
(0.00881176 -0.00243387 0)
(0.000811698 -0.00724166 0)
(0.0140507 -0.0811895 0)
(0.0135162 -0.0318381 0)
(0.0127422 0.00531647 0)
(0.0138851 -0.0599988 0)
(0.0124665 0.0206123 0)
(0.00136574 -0.0537137 0)
(0.0128603 -0.0345065 0)
(0.0123388 0.03539 0)
(0.0137482 -0.0495837 0)
(0.0122633 -0.00453207 0)
(0.0125054 0.0425962 0)
(0.012877 0.00404773 0)
(0.00124284 -0.0141993 0)
(0.0142025 -0.0866949 0)
(0.0142013 -0.0861182 0)
(0.0124573 0.0489338 0)
(0.0134969 -0.0322395 0)
(0.0121724 0.0665822 0)
(0.00821106 -0.0876269 0)
(0.0115959 -0.102907 0)
(0.00148208 -0.08387 0)
(0.0128713 0.0154191 0)
(0.0115306 -0.0689239 0)
(0.0012177 -0.00697313 0)
(0.0130866 0.000578416 0)
(0.00972024 -0.073815 0)
(0.00175386 -0.0128423 0)
(0.00839777 -0.0679793 0)
(0.00960242 -0.0737435 0)
(0.0134296 -0.0253393 0)
(0.0132378 -0.0142664 0)
(0.00620056 -0.0408244 0)
(0.0128768 -0.0328933 0)
(0.0128203 0.0212974 0)
(0.0104399 -0.0642967 0)
(0.013903 -0.0613853 0)
(0.00550405 -0.0904338 0)
(0.0124874 0.0256548 0)
(0.0132371 -0.0106508 0)
(0.00308752 -0.0334199 0)
(0.012257 0.0563296 0)
(0.011924 -0.0711403 0)
(0.0125515 -0.0399042 0)
(0.0140895 -0.103927 0)
(0.00982733 -0.0726813 0)
(0.0136812 -0.0503891 0)
(0.011699 0.0535698 0)
(0.0130589 0.00292918 0)
(0.00965636 0.0049416 0)
(0.0123334 0.0583871 0)
(0.0123577 -0.0243068 0)
(0.0129206 0.0135275 0)
(0.0136279 -0.0404174 0)
(0.0123329 0.0584292 0)
(0.0122939 0.0171704 0)
(0.00504937 -0.0757465 0)
(0.00952593 -0.0614707 0)
(0.00058017 -0.009575 0)
(0.0111039 0.0519828 0)
(0.00131769 -0.0483625 0)
(0.0129617 0.0103686 0)
(0.0112067 -0.0825429 0)
(0.00735164 -0.0957471 0)
(0.00478431 -0.0980878 0)
(0.00821321 -0.0870276 0)
(0.00693582 -0.0369768 0)
(0.0105196 0.039951 0)
(0.0117442 -0.0674492 0)
(0.0109673 -0.00309512 0)
(0.0112978 -0.0760075 0)
(0.0133686 -0.0208874 0)
(0.012248 0.0577878 0)
(0.0122492 -0.016626 0)
(0.0130133 -0.0747046 0)
(0.0130962 -0.000188798 0)
(0.00590412 -0.0871792 0)
(0.0138897 -0.0604846 0)
(0.00537065 -0.0136978 0)
(0.0115873 -0.0853967 0)
(0.00385448 -0.0892715 0)
(0.00858813 -0.05068 0)
(0.0126531 -0.0817938 0)
(0.00382451 -0.0498789 0)
(0.00618291 -0.0398209 0)
(0.00622003 -0.10169 0)
(0.00227585 -0.0777296 0)
(0.0138679 -0.0711786 0)
(0.0107568 -0.0364157 0)
(0.0135605 -0.0351944 0)
(0.0130927 -0.00129723 0)
(0.0130173 0.00181463 0)
(0.0134485 -0.0312564 0)
(0.00975459 -0.0231578 0)
(0.0135537 -0.0347817 0)
(0.0129658 0.00391203 0)
(0.00120648 -0.0143044 0)
(0.0116985 -0.069086 0)
(0.00558468 -0.0865914 0)
(0.0138822 -0.0599446 0)
(0.00499106 -0.0909607 0)
(0.00768672 -0.101116 0)
(0.0129973 0.00631088 0)
(0.0142592 -0.0886879 0)
(0.01347 -0.0734136 0)
(0.00977087 -0.0427602 0)
(0.012433 0.0503376 0)
(0.0129861 0.00700654 0)
(0.0121893 0.0658519 0)
(0.0118608 -0.0721055 0)
(0.00544154 -0.0283783 0)
(0.0084464 0.00103236 0)
(0.0129495 -0.0105656 0)
(0.00449808 -0.0756633 0)
(0.0130954 0.000269021 0)
(0.013602 -0.0497672 0)
(0.00142368 -0.0278853 0)
(0.0128275 0.0164871 0)
(0.0138579 -0.0690979 0)
(0.00878173 -0.0151697 0)
(0.0133591 -0.0201896 0)
(0.0140045 -0.0691237 0)
(0.0127303 0.0224244 0)
(0.0106322 -0.0440682 0)
(0.0124094 0.0520819 0)
(0.0130524 -0.0199178 0)
(0.00388678 -0.0352637 0)
(0.0125549 0.0414533 0)
(0.00981563 -0.0881366 0)
(0.00863501 -0.0212463 0)
(0.00637264 -0.059312 0)
(0.0114567 0.0316298 0)
(0.0112344 0.0493617 0)
(0.0126863 0.0313792 0)
(0.0140223 -0.0708201 0)
(0.0117822 0.0348448 0)
(0.0126371 0.0350851 0)
(0.0117693 0.0243708 0)
(0.00409216 -0.071677 0)
(0.00711152 -0.103338 0)
(0.00545987 -0.0509617 0)
(0.0140192 -0.0761788 0)
(0.0086905 -0.00315248 0)
(0.00235318 -0.018938 0)
(0.00970566 -0.0812919 0)
(0.0103412 -0.0462487 0)
(0.0127583 0.0258781 0)
(0.0123144 0.0598503 0)
(0.0124682 0.0420465 0)
(0.0132085 -0.00840616 0)
(0.0136743 -0.0445173 0)
(0.00680583 -0.0970581 0)
(0.00611881 -0.0735734 0)
(0.0107201 -0.0379732 0)
(0.0136974 -0.051292 0)
(0.00856959 -3.51905e-05 0)
(0.000852555 -0.00138727 0)
(0.0129428 -0.0589134 0)
(0.0135889 -0.0391858 0)
(0.0120696 0.0667833 0)
(0.00149697 2.96207e-05 0)
(0.0126001 -0.0726338 0)
(0.0125829 -0.0314725 0)
(0.0129839 0.00111163 0)
(0.0140054 -0.0691775 0)
(0.00770147 0.007165 0)
(0.00587655 0.00225051 0)
(0.010582 0.0130398 0)
(0.0137439 -0.0518659 0)
(0.011109 0.0317843 0)
(0.0129732 0.00946662 0)
(0.00915779 -0.0802155 0)
(0.00173875 -0.0166261 0)
(0.00868195 -0.0199668 0)
(0.0065803 -0.0587384 0)
(0.0104995 -0.0763031 0)
(0.0126937 0.0249345 0)
(0.0122791 0.0619606 0)
(0.0125737 0.0398882 0)
(0.0036951 -0.0984979 0)
(0.00372165 -0.0500925 0)
(0.0141551 -0.0897795 0)
(0.0100126 -0.00391405 0)
(0.0132961 -0.0162517 0)
(0.0131039 -0.000396766 0)
(0.00714127 -0.0977205 0)
(0.0138266 -0.0555763 0)
(0.0124078 0.0525095 0)
(0.0140806 -0.0752518 0)
(0.0117804 0.0457506 0)
(0.0122128 -0.00272658 0)
(0.0127759 0.024656 0)
(0.0123046 -0.0165645 0)
(0.0105911 -0.0934947 0)
(0.0126381 -0.0964283 0)
(0.0138992 -0.0796443 0)
(0.0102113 -0.051872 0)
(0.0141573 -0.103278 0)
(0.00404876 -0.072553 0)
(0.0126337 0.0346966 0)
(0.0137358 -0.0509765 0)
(0.00539417 -0.0146899 0)
(0.00778313 -0.0891395 0)
(0.0127406 -0.0815513 0)
(0.0137785 -0.0592567 0)
(0.0123593 -0.00783484 0)
(0.00168864 -0.0151229 0)
(0.0115707 0.0145679 0)
(0.00330621 -0.0919977 0)
(0.0112774 0.0120216 0)
(0.0138336 -0.102532 0)
(0.00137325 -0.038387 0)
(0.0123859 0.0532515 0)
(0.0124555 0.0490785 0)
(0.00417104 -0.073344 0)
(0.0121667 -0.00306706 0)
(0.011279 0.0476571 0)
(0.00333869 -0.0445888 0)
(0.0122142 0.0669905 0)
(0.0124116 0.0525497 0)
(0.0135334 -0.0332418 0)
(0.0122646 0.0635524 0)
(0.00407361 -0.0480822 0)
(0.010833 -0.0722645 0)
(0.0117533 -0.061401 0)
(0.00472161 -0.0845263 0)
(0.0124168 0.0455068 0)
(0.0123522 -0.00565962 0)
(0.000285356 -0.0145151 0)
(0.012213 0.0331948 0)
(0.0046899 -0.0958651 0)
(0.012815 0.0207456 0)
(0.0125063 -0.00249431 0)
(0.0128265 0.0208214 0)
(0.00303817 -0.0917519 0)
(0.010352 -0.0674933 0)
(0.00795432 -0.101603 0)
(0.0129471 -0.00181339 0)
(0.0129987 -0.0122507 0)
(0.00561871 -0.068064 0)
(0.012394 0.0538786 0)
(0.0129881 0.00839147 0)
(0.0143262 -0.0987192 0)
(0.0137225 -0.0476637 0)
(0.0126451 0.0339237 0)
(0.0126279 0.0358025 0)
(0.0129107 0.0142859 0)
(0.00535747 -0.0678612 0)
(0.0036505 -0.0670641 0)
(0.00948181 -0.0161196 0)
(0.0122667 0.054743 0)
(0.0115862 0.0444155 0)
(0.013031 -0.0150703 0)
(0.0140912 -0.0757866 0)
(0.00957804 0.00418473 0)
(0.00359692 -0.00806714 0)
(0.002115 -0.0685075 0)
(0.0120359 0.0657497 0)
(0.0058122 -0.00979042 0)
(0.0117473 -0.00372532 0)
(0.00970973 -0.0798829 0)
(0.01242 0.0501148 0)
(0.00669373 -0.087582 0)
(0.00537713 -0.0318522 0)
(0.00289084 -0.0506007 0)
(0.00716156 -0.0660819 0)
(0.000618091 -0.00517651 0)
(0.00952871 -0.0967258 0)
(0.0124324 0.0442526 0)
(0.0106564 -0.0928849 0)
(0.0129912 0.00764482 0)
(0.00345907 -0.0638104 0)
(0.00670342 -0.0590359 0)
(0.0129404 0.0119744 0)
(0.0128267 0.0206419 0)
(0.0124288 0.0511722 0)
(0.0124231 0.0493716 0)
(0.0096167 -0.100468 0)
(0.0123555 0.0544435 0)
(0.00517838 -0.0264566 0)
(0.0128442 -0.090293 0)
(0.0102906 -0.0685956 0)
(0.00212171 -0.057425 0)
(0.0107136 0.0182263 0)
(0.0139967 -0.0685459 0)
(0.0108513 -0.0146262 0)
(0.0129362 -0.000431947 0)
(0.0140314 -0.0762232 0)
(0.00991694 -0.00803615 0)
(0.00849601 -0.0500603 0)