/*--------------------------------*- C++ -*----------------------------------*\
| =========                 |                                                 |
| \\      /  F ield         | OpenFOAM: The Open Source CFD Toolbox           |
|  \\    /   O peration     | Version:  v2012                                 |
|   \\  /    A nd           | Website:  www.openfoam.com                      |
|    \\/     M anipulation  |                                                 |
\*---------------------------------------------------------------------------*/
FoamFile
{
    version     2.0;
    format      ascii;
    class       surfaceScalarField;
    location    "650";
    object      meshPhi;
}
// * * * * * * * * * * * * * * * * * * * * * * * * * * * * * * * * * * * * * //

dimensions      [0 3 -1 0 0 0 0];
oriented        oriented;


internalField   nonuniform List<scalar> 
20580
(
0.000222272
-0.000109859
-0.000113001
-0.000613947
0.000477083
0.000144713
-0.000276049
-0.000331444
0.00042734
-0.000481265
5.40538e-05
7.50276e-05
0.000102525
-0.000114945
-0.000233267
0.000819686
-0.000577807
0.000683155
-0.000721558
4.62508e-05
0.000114215
-0.0001041
0.000132866
3.44952e-05
-0.000167475
-0.000548917
0.00251465
-0.00195955
0.000270618
-0.000749055
0.000482001
-0.000113913
-0.00127723
0.0014137
0.00213415
-0.00050123
-0.00162793
-2.4507e-05
-7.62989e-05
0.000100839
-0.000129307
-6.99947e-05
0.000198962
0.000507783
-2.22503e-05
-0.000488861
-0.000292892
0.000273594
1.89632e-05
-0.000797163
-2.07058e-05
0.000833361
-0.00017447
5.95248e-05
0.000114808
9.60244e-05
0.000124601
-2.33638e-05
0.000175072
-0.0001516
0.000261884
0.00114308
-0.00139089
-0.000556242
0.00034275
0.000213986
8.3592e-05
-8.75202e-06
-6.3674e-05
-0.000368697
0.000112275
0.000256731
0.000639037
-0.000504788
-0.000138216
0.000320951
-0.000136296
-0.000185066
8.54521e-05
-9.65e-05
1.08472e-05
0.000332174
-0.00024207
-9.04703e-05
-0.000106126
0.000992098
-0.000856897
3.99857e-05
0.000321669
-0.000361836
-8.64896e-05
0.000756618
-1.51233e-05
-0.000155543
0.000171576
-0.000122959
2.79833e-05
9.4713e-05
-0.00033499
-0.000327001
0.000663549
-0.000275167
0.000398017
-0.000122636
6.24248e-06
8.01167e-05
-0.000498519
0.00037185
0.00012704
0.000232539
-3.01956e-05
-0.00020246
0.00221493
-0.00154975
-0.000643823
6.21151e-05
6.76345e-06
-6.87337e-05
0.000208302
0.000123689
-0.000129463
-0.000188298
-0.00090967
0.000641057
0.00027102
0.000147802
0.000134161
-0.000282276
7.02562e-06
0.00145934
-0.00143444
2.53981e-05
0.000116442
0.000252587
-0.000380518
0.000126749
0.00172419
-0.000522028
-0.00118209
0.000216484
0.00192048
-1.88364e-05
-0.000100083
0.000118734
0.00243824
-0.000636208
-0.00179886
-2.38854e-05
0.000528525
0.000673891
-0.000363812
-0.000317006
-0.00017844
0.000197103
-1.8852e-05
0.00142333
0.000806736
-0.000147019
0.000132461
7.59658e-05
-1.37571e-05
0.000421081
-0.000306902
-0.000115131
4.91981e-06
-6.28629e-05
5.83441e-05
0.00129055
-0.00138046
0.000143167
0.000177304
0.00214946
-0.00216122
1.43287e-05
0.000918439
0.000822396
0.000868179
-0.00049448
-0.000372396
0.000629217
0.000240194
5.01304e-05
-4.52484e-05
0.000216844
-0.00084106
0.000330965
0.001311
-0.0016189
-0.000409897
0.000413677
-3.92823e-06
-0.000127659
0.00030407
-0.000176518
-0.000191986
0.0001703
2.14289e-05
-0.00227706
0.00166773
0.000621782
-1.86329e-05
-4.38692e-05
-0.000392197
0.000479853
-9.26348e-05
0.000514557
0.00106271
-0.00156285
5.52794e-06
-0.000298316
-0.000783348
0.000402098
0.000407948
-5.95767e-05
-0.000308488
0.000110387
-0.00189998
0.00182155
-0.00114991
0.00150334
-0.000293171
-0.000132538
0.000425956
-0.00087779
0.000547807
-4.3279e-05
-8.68407e-05
0.000130126
-6.71572e-05
4.87678e-05
0.000304362
9.61916e-05
-0.000400652
0.00129544
-0.00102131
7.63578e-06
-0.000228267
0.000220479
0.00205184
-0.00211793
7.61488e-05
-0.0002483
0.000288152
0.000289492
0.00214986
0.000570695
-0.000668483
-1.77533e-05
-0.000133764
-1.43088e-05
0.000318646
-0.000227017
0.000111372
0.000115497
0.00048248
-0.000809005
0.000328732
-0.00263889
0.00129189
0.00137715
-0.00018167
-0.000339446
0.000519421
2.4454e-05
-8.85282e-05
6.39874e-05
-0.000729915
0.000263065
0.000468588
0.000251731
-0.000434772
-0.000532382
0.00121863
-0.000687278
-0.00119565
0.000274367
0.0009201
0.00219991
-0.0023298
0.000139812
-0.000213829
0.00133549
-0.00109391
-0.000349903
0.000213295
0.000137449
-0.00148258
0.0013017
0.000156167
-0.000283913
0.000631614
-7.22213e-05
5.20142e-05
-0.000832088
-0.00148214
0.000387006
0.00110436
-0.00161776
0.00166068
-0.000154317
-0.000127076
0.00028158
0.000433011
-0.000424961
-7.05831e-06
0.000263098
-2.86189e-05
-0.000235492
0.000280452
0.000387095
-0.00123304
0.000695271
0.000569261
-0.000114656
0.000216354
0.000320394
0.000106923
-1.04566e-05
-0.000399434
-0.00087386
0.00028122
0.000595347
0.000910135
0.000234228
-0.00111716
-0.000868905
-0.000608666
0.00149616
-9.68267e-05
6.20957e-05
3.41885e-05
-0.00014847
0.000123884
2.42224e-05
0.00078969
1.31432e-05
-0.000805165
-0.000963752
-0.00163909
0.000814324
-0.000720753
-8.82376e-05
-2.66644e-05
-6.44732e-05
9.10579e-05
-5.82412e-05
-0.000103042
0.000161941
-0.000309026
0.00146458
0.00102928
-0.000131971
-0.000885624
-0.000169675
-0.000328923
-4.29569e-06
-0.000118943
0.000624919
-0.0003518
-0.000166428
6.37019e-06
0.000159833
-0.000806642
-0.000191296
0.000287427
-0.00140246
0.000476318
0.000925745
7.20257e-05
0.000146767
-0.000220603
0.000197966
-0.000492206
0.000233839
0.00160029
-0.00182681
0.00237115
-0.000311233
2.42904e-05
0.000678413
-0.000703817
-0.000250721
0.000213302
3.75354e-05
-0.00180689
0.000781979
0.00103824
-0.000326208
-0.000430186
0.000307321
5.61787e-06
0.000186502
-0.000192021
0.000796308
2.15277e-05
0.000426541
-0.000175826
0.00020233
-0.000357397
0.000419595
1.44947e-05
-4.92941e-05
0.000168629
-0.000119594
0.00175358
-0.00235278
0.000603498
-0.00249795
0.00206449
0.000435709
-0.00157192
0.00151502
8.58179e-05
8.0467e-05
0.000152021
0.000194646
-0.000182733
-1.34635e-05
0.000346792
-0.000365822
1.48676e-05
0.00018524
-0.000150439
-1.97482e-05
-0.000315543
-3.03259e-05
0.000345161
-0.000168503
-0.000176382
0.000446107
-0.000195051
8.48691e-05
-0.000109351
0.000232023
-0.000198684
-3.38746e-05
-8.76146e-06
0.000240125
0.000114164
-0.000133297
-0.00113915
-0.000333282
-0.000124741
4.11829e-05
8.37061e-05
-5.73085e-06
0.00131593
-0.00128773
-0.000422286
-0.000769313
-6.28909e-05
0.000299014
-0.000235178
-0.0001004
0.000203977
-5.52931e-05
-8.63621e-05
-0.000139865
-6.90514e-05
0.000216759
-0.000147903
0.000204795
0.000145464
-0.000351036
-0.00110692
0.000722096
-0.000492112
-5.12041e-05
0.000536306
-0.000207465
0.000411824
-0.000102069
-4.51099e-05
-0.000424787
0.00136184
-0.000303622
-0.00104878
-0.000215142
0.000157179
-0.000165463
-0.000110768
0.000162745
-0.000156977
3.14402e-05
-0.000186376
-0.00161982
0.00146636
0.000154093
-0.00159674
0.0024064
-0.000804583
-0.00149468
0.00145319
7.4585e-05
-6.86136e-05
-0.000182877
4.06868e-05
0.000151711
3.48773e-05
-0.000111124
-0.000689434
0.000464564
-0.000523756
-0.00126954
-9.72299e-05
-0.000443957
0.000538766
-0.000120839
0.000152228
-0.000414663
0.000212821
0.000207672
0.0010664
9.47904e-05
-0.00114081
0.00113198
-0.000471924
-0.000662079
0.000195915
0.000279404
-0.000475591
8.59806e-05
3.07067e-05
-0.00011691
-7.20144e-05
7.78906e-05
-6.37137e-06
0.000111165
-0.000241843
-0.000463085
0.000488239
-2.41972e-05
0.000123306
-3.7409e-05
-0.00116004
-0.000687676
0.0018475
-0.000395404
0.000105225
0.000287319
-0.000141206
0.000184867
-4.38702e-05
-0.000869223
0.00085298
2.5407e-05
0.000583602
-0.000102956
-0.000482827
0.000643659
-0.00149648
0.000393106
8.24281e-05
-0.000680414
0.000599159
-0.000525733
-0.000151119
0.000679871
-0.000171804
-0.00118178
0.00136528
0.0022323
-0.00201244
6.94016e-05
-0.000120298
5.07303e-05
0.000921223
-0.000617464
-0.000288957
-8.86238e-05
-0.000345738
-0.000742849
-0.000326364
-0.000173889
8.65472e-05
8.61695e-05
7.4049e-05
-0.000117056
3.65661e-05
0.00013443
-0.000171527
0.0015317
-0.000386662
-0.00114425
-0.000135421
-0.000263011
-2.30129e-05
-0.000275418
0.000299861
-0.000725988
0.000749391
0.00200891
-1.9785e-05
-0.0019616
-0.000851202
-0.000558856
0.000364608
0.000194125
-0.00125092
-0.000367697
-0.000812075
-4.58391e-05
-5.68168e-05
-0.00189158
2.84791e-06
-7.52206e-05
0.000923174
-0.000997573
-0.000383933
-0.000171459
-6.40546e-05
8.04538e-05
-1.66367e-05
-0.000226724
-0.000500904
0.000168516
2.28735e-05
-0.000525678
-0.000113308
0.000640066
1.29236e-05
-7.25972e-05
5.96486e-05
0.000329207
-0.000181692
0.000557585
2.16269e-06
0.000263393
-0.000267746
-0.000675028
2.23909e-05
0.000651657
-5.13427e-05
0.0001203
-0.000573121
7.49191e-05
-0.000336366
-0.000470652
0.000506045
0.000824783
-0.00132158
0.00023681
-3.24158e-05
-0.000204378
0.000193107
-0.000109656
-8.24419e-05
-0.000191629
3.22868e-05
0.000235649
0.000205819
-0.000364627
0.000161187
-0.000438238
-2.71568e-05
-0.000288487
-0.000258714
0.000372258
-0.000113483
-0.000339738
-0.00112796
-7.78592e-05
0.00199955
-0.00209935
0.000107551
-0.000186817
2.4091e-05
0.000162328
-5.138e-05
0.000132751
-8.27246e-05
0.00026658
-5.93388e-05
-0.000294499
0.000130401
0.000136935
5.56877e-05
0.00264834
-0.000872864
-0.00175703
-0.00107843
0.000544252
0.000184855
-0.000397723
0.000211754
-0.000109397
8.15201e-05
2.68109e-05
0.000407854
-0.00209916
0.00170692
0.000172683
0.00206173
0.000281707
-8.93961e-05
-9.33678e-05
0.000183144
-0.000300437
0.000428552
-0.000128355
-0.000163633
1.85468e-05
0.000144486
-4.72855e-06
0.000936537
-0.000129307
2.83183e-05
0.000150546
-5.38691e-05
-9.70386e-05
-5.53197e-05
-0.0002113
0.000265876
-0.000144478
-0.000147381
6.96221e-05
-0.0001591
4.12229e-05
-7.1089e-05
2.97082e-05
-0.000524033
0.000228706
0.000299943
0.000214978
-3.25963e-05
-0.000184454
-0.000178615
-0.00025602
0.00043459
-0.00203341
0.00115913
0.000907114
0.00134927
-0.00143743
0.000115902
0.00013764
-0.000193713
0.000842175
-0.000573522
-0.000264787
0.000241856
0.000741443
-0.000957299
-0.000548947
0.000637667
-7.9115e-05
0.000423206
0.00161075
0.000149259
6.56825e-05
-0.000141804
-0.000103583
0.000249863
-0.000145875
-0.000192281
-3.44283e-05
0.000167161
0.000126056
-0.000151113
-0.00212041
0.000714018
0.00142912
-0.000302427
-6.35889e-05
-3.35219e-05
0.00231905
-0.0017295
-0.000584474
-7.90092e-05
-1.14094e-05
8.89765e-05
-7.79316e-05
0.0017493
-0.00150908
0.00200544
0.000316214
0.000229495
-0.000103183
-0.000133242
3.39829e-05
9.87707e-05
-0.000332892
0.000302668
3.03087e-05
-0.000209101
0.000183053
2.60315e-05
-0.000118615
0.000256631
-4.97733e-05
-7.50721e-05
0.00130548
-0.000238718
7.59189e-05
0.000163412
8.41377e-05
-9.61803e-05
-0.000115748
8.30984e-05
3.1092e-05
0.000303008
3.9251e-05
0.000223474
-0.000401835
0.000566354
-0.000393869
-0.000172254
0.000417249
-9.40801e-05
-0.000322571
8.14402e-05
-0.000340596
0.000259351
-0.001272
0.000577768
0.000692639
7.30145e-06
-0.000173743
-9.02987e-05
7.29478e-05
1.73078e-05
-4.21469e-06
8.94202e-05
9.18206e-05
0.000992969
0.000318984
-3.70279e-05
-0.000282116
0.000180705
5.98573e-05
-0.000542871
0.000598009
-5.59931e-05
6.5409e-05
-0.000609568
0.000124432
-0.00128472
-7.10253e-05
-0.000195267
0.000266696
0.00162053
-0.000468292
-0.00114796
0.000191372
-0.000183889
-0.00130906
0.000653219
0.000654214
-0.000390268
0.000471603
-1.42684e-05
-0.000125227
0.000126752
-0.00120446
0.000106238
0.0011092
0.000278941
0.000138567
-0.000482386
-0.000601316
-0.00139542
0.000147831
0.00156326
-0.00125526
-0.000304132
0.000373953
0.000662917
-0.00018366
-0.000185976
-5.30615e-05
-8.03533e-05
-9.19245e-05
-3.72273e-05
-0.000470544
-0.00172696
0.00157053
-0.000865653
6.3868e-05
0.00027754
6.41845e-05
-0.000342272
0.00059328
-0.0021852
0.000100965
-0.000321123
-0.000196492
8.1377e-05
0.0001484
0.000261893
0.00130453
-0.000110013
-0.000318806
-0.00177676
-0.000597918
0.000171203
0.000427732
0.00064139
-0.000377183
0.00016393
-0.000112035
-5.12989e-05
0.00039687
-0.000127374
0.00040452
-0.000500011
0.00129103
1.3525e-05
0.000137258
7.02991e-06
-0.000144201
0.000654244
-0.000312518
-0.000327419
-9.22595e-05
-2.3841e-05
0.00016737
-0.000133092
-3.56703e-05
9.58818e-05
-7.15078e-05
-0.000943631
-0.00024866
0.00028847
-0.000617038
0.000263569
0.00015691
-0.000102865
-0.000266419
0.000369317
0.000317793
0.000241112
-0.0005594
-0.000184427
-7.9632e-05
0.000263961
-0.000866168
-0.000140301
0.0010203
-0.000166365
9.74413e-05
-0.000369165
0.000239658
0.000417342
1.25568e-05
-0.000425998
7.01734e-05
0.000166456
-0.000411369
0.000481714
-6.63655e-05
7.29211e-05
1.65575e-05
-8.96756e-05
8.1336e-06
0.000206386
0.000718633
-0.000237676
-2.68602e-05
0.000142195
-0.000117594
-0.000689995
0.000284046
0.000406941
-0.000806821
-0.0016884
-0.000218641
0.000612503
-0.000388336
0.000388218
0.00045736
-0.000448433
-0.00124416
0.00162826
-0.000360883
-6.741e-06
-0.000158497
0.000146835
-7.7744e-05
-6.92907e-05
-0.00104908
-0.00121852
-0.000205865
0.000308177
0.000307434
0.000147504
-0.00045523
0.000782578
0.000129279
-0.000900404
0.000703583
-0.000526236
-0.000175899
0.000563425
-9.99645e-05
-0.000467825
-0.000336516
3.60226e-06
0.000453552
0.000410246
0.00022061
0.000413732
0.000258061
-0.000719593
7.21727e-05
1.23027e-05
0.00024653
-0.000260328
6.05815e-05
-0.000319254
-5.40319e-05
0.00012322
-0.000648049
0.00127203
0.00139239
-0.000102604
-0.000491796
-0.00065719
0.000257047
0.000404179
-0.000357089
0.000642543
-0.000197063
-0.000872061
0.0010925
-0.000224918
-7.48551e-05
6.06981e-05
-9.17195e-05
3.09554e-05
-0.00022049
-0.000106539
0.000326948
-0.000729813
-0.00012516
0.0001096
-0.000280885
-4.83432e-07
0.00028037
0.000130977
-0.000431623
-0.00026501
6.02565e-05
0.000206771
3.48964e-05
0.000284157
0.000499996
8.37715e-05
-0.000582968
-0.000281938
0.000556097
-0.000273889
-0.000558126
0.00107137
-0.000119716
0.000177791
-5.81591e-05
-0.0022752
0.00168049
0.000602014
3.40783e-05
-8.72933e-05
-0.000160415
-1.82179e-05
-0.000206741
0.000233312
-2.69653e-05
-0.00215664
0.00161291
7.48289e-05
0.000408322
8.8298e-05
-0.000296451
-0.00114249
0.00011601
0.00106778
8.99079e-05
-2.94841e-05
0.000148541
-0.000219555
0.00012491
4.15605e-05
0.000292346
-0.000182509
-0.000112721
-0.00105299
0.000204483
0.00148745
0.000730795
-0.00222007
0.000299758
-0.000402491
0.00239482
-0.00165394
0.00223785
-0.000752691
-0.00042607
0.000227883
0.000197702
6.38503e-05
8.27951e-05
0.00109896
-0.00139579
-0.000390647
0.000241589
0.000148381
0.00194238
0.000204499
-0.00012166
-0.00128428
-5.25699e-05
0.000846425
5.50796e-05
0.000336306
0.000245388
-0.000585372
-0.000999618
0.00167251
-0.000651794
0.000370441
-0.000954485
0.000597261
-0.000473601
-0.000398069
-0.000352738
-0.000157789
0.00051617
-0.000103257
-0.000191317
0.000294029
-0.00174553
0.00126916
0.000509861
-0.000201643
0.000453064
-0.000255181
-0.000169657
0.000303555
-0.00140628
0.000893942
0.000514941
-7.8569e-05
9.67365e-05
-1.02779e-05
-3.74101e-05
-0.00130142
0.00135927
0.00017167
0.000113869
-0.000214163
-0.000120706
0.000335915
-0.000735575
0.000270283
0.000466426
0.000283532
6.41858e-05
-0.000348162
-0.00021269
0.000215127
-6.27817e-05
0.000384887
-0.000323495
-0.00077137
0.00172974
4.43234e-05
-0.00175192
-2.04204e-05
-8.72824e-05
0.000107574
-0.00012786
0.000553955
0.000705234
-0.00125913
-0.000640859
-0.00122327
0.00187729
-2.85639e-05
-0.000330565
-0.00107217
-2.83164e-05
-0.000438329
0.000467531
0.000521338
0.00168612
0.000827539
-0.000881516
6.21624e-05
0.000490007
0.000304841
7.18116e-05
-0.000380637
9.382e-05
-2.09381e-05
-7.36817e-05
-0.000207611
0.000166777
-0.000388402
0.000824905
-0.00146479
0.000645296
0.000283408
0.00241065
-0.00202318
-0.000367202
-0.000272958
-5.38874e-05
0.000611242
7.51333e-05
-0.000196019
-0.000117386
-0.000533041
-0.00119762
-0.000591633
-0.000811167
-0.000257391
-6.04764e-05
0.000213036
-0.000235362
-0.000137525
0.00037282
-9.48086e-05
7.43e-05
-0.000375632
0.000272061
-0.000368012
0.000418971
-5.08814e-05
-0.000142971
-0.000189675
-4.66594e-05
0.00023612
7.80775e-05
0.000466919
-0.00157635
0.00111098
-8.92989e-05
0.00104115
-0.000947325
0.000420297
0.000283823
0.00217234
0.000344824
0.000522392
-0.00174072
0.00144662
-0.000372264
-0.00107316
0.000207803
-6.78959e-05
-0.000139397
-0.000301171
0.000508989
-0.000203503
-0.00132541
-0.000567351
0.0018983
0.000197876
-0.000751241
0.000556732
-9.75479e-05
0.000383688
-0.00028511
-0.000126849
-0.00180578
0.00193191
0.000275029
-0.00022416
-5.09283e-05
0.000373782
0.0013285
-0.00167671
-9.9029e-05
2.33711e-05
7.56518e-05
-3.86912e-05
-0.00069545
0.00165604
-0.00151903
0.000289409
-0.000262024
-2.52783e-05
0.000118039
0.000380872
-0.00049826
-2.77114e-05
0.00119556
-0.000411929
5.46918e-05
0.000357397
0.000580969
-0.000160317
-2.72538e-05
-0.000225637
0.000253787
6.76435e-05
0.000203329
-0.000271396
-0.000117575
-5.7108e-05
-0.000135243
8.81937e-05
4.64418e-05
0.00156007
-0.000728803
0.000383773
-0.000156331
-5.96483e-05
3.97305e-06
5.5592e-05
0.000208479
-0.000237262
-0.000276913
0.000283016
-5.84484e-06
1.79993e-05
0.00166731
-0.0016604
0.00169229
-0.000267834
-0.000188197
0.000455682
4.81281e-06
6.7964e-05
-6.13114e-05
0.000493529
-0.000429129
-0.000292904
0.000624959
-0.00216354
0.000224952
0.00194032
0.000277941
0.000162595
-0.000442198
-9.52867e-05
6.85302e-05
0.000205697
-1.57474e-05
-0.000190004
0.000323831
-0.000299924
-1.98155e-05
-0.000155979
-9.66832e-05
0.000252661
0.00065472
0.00134829
0.000226475
-0.000569277
-2.53908e-06
0.000566585
-0.000173574
-8.97642e-05
0.00164158
-0.000567671
0.000167507
0.000113108
-0.000281084
-0.000396192
-0.000292936
0.000234698
-0.000520034
0.00022597
-0.00199908
-9.11845e-05
-8.05044e-05
-0.000115552
0.000196077
0.0013257
-0.00112681
-0.000187873
0.000526192
-0.000501132
-2.2436e-05
-2.05717e-05
-0.000251215
0.000267577
-0.000348956
-8.80845e-05
0.000432422
-3.0131e-05
-0.000305559
0.000337
-0.000121484
-0.000186701
0.000307965
7.44105e-05
-3.34434e-05
0.000449807
0.00018718
-0.000629998
-6.22464e-05
-0.00030705
-0.000311523
2.58565e-05
0.000282429
0.000343904
-0.000327627
-1.43131e-05
-0.00012056
0.000328647
5.92332e-05
0.000137742
-0.0014063
-0.000268
0.00169529
0.00155338
-0.00100924
-0.000187169
-0.000103638
0.000216588
-0.000478978
0.000272715
0.00020531
0.000516717
-0.000241373
-0.000487775
0.00046039
-0.000125411
-0.000449322
0.000208923
-0.000202637
-0.000285746
-0.000272967
6.81617e-05
-0.000276214
0.00020795
-0.000664371
-0.000263833
0.000931851
-2.56733e-05
-7.33941e-05
0.000315809
-9.60008e-05
-0.000220313
-0.000348487
0.000148338
0.000199894
2.00602e-05
0.00104392
-0.00104759
2.03337e-05
-0.000328604
-0.000152415
3.25117e-05
-8.19421e-05
-0.00155771
0.00166015
0.000137137
-0.000154947
5.45894e-06
-0.000157928
0.000152247
0.000232754
-0.000143459
-0.000248386
-0.00161663
0.00188238
0.000427437
-0.000490433
-0.000440594
-0.000329459
0.000772087
-0.000341683
-0.000186306
0.000528303
0.00124128
0.00117446
9.87327e-05
-0.000148549
8.77306e-05
-0.00131831
-0.000353319
0.00167228
0.000344478
-0.000439929
-0.000161369
-0.00154987
0.000122135
-9.89596e-05
0.000234697
8.91572e-05
0.000226074
-0.00126691
-0.000403064
0.00167535
-0.00059206
0.000232432
-0.000899952
-0.00141895
0.00143381
-0.00156123
0.0010592
-0.00113135
7.94369e-05
-0.00027175
0.000115746
-1.05468e-05
0.000296742
-0.000286658
0.000140419
0.00070485
0.00123568
-0.000233469
-0.000967184
-0.00012642
0.000538251
-0.000399207
0.000257608
4.27177e-05
-0.000474415
0.000855912
-0.000254084
-0.000117416
0.000371819
0.000245575
-0.000488141
0.000247958
-0.00059611
0.00115013
-0.000384741
0.00040337
-0.00136242
0.000135673
0.00123048
-0.00017022
-0.000181948
0.000351981
0.000412103
-0.000433938
-1.90438e-05
-0.000610073
0.00062471
0.000274077
-0.000336433
-0.000133131
0.000268401
-0.000135156
-0.00139167
-0.00059737
0.000256353
-0.000612142
0.000813811
0.000315524
0.000414093
-0.000728352
-0.000119982
0.000124941
-0.000344374
0.00033709
1.35365e-05
0.000133314
0.000141689
0.000369636
0.000421684
-2.00581e-06
-0.000535147
0.000167113
0.000260982
-0.000238915
-2.18579e-05
0.000408266
0.000257129
0.00015241
-0.000405677
-0.00016815
-0.000241199
-0.000150925
-0.000197732
-0.000120292
0.000152509
-3.22736e-05
-0.00191812
0.000730344
0.00120683
0.000289261
4.62796e-05
2.95646e-05
-7.60392e-05
-0.000113449
-0.000347842
0.000462728
0.000458006
-0.000570146
-6.83589e-05
-0.000439406
0.00014776
-0.000318056
-0.000153856
-0.00022104
0.000374424
0.000588615
0.00141822
-2.85321e-05
0.000163744
-0.000136788
-0.000507776
0.0001607
-0.00148908
-0.000635114
0.00212534
0.000309773
4.93303e-05
-0.000359908
0.000111635
-0.00035471
-0.000308305
0.000664909
-5.61713e-05
-0.000168427
0.000228803
0.000339876
-0.000155846
0.000572473
-0.00116217
0.000591739
-0.000647385
0.000387304
0.000255766
0.00104641
-0.00179924
0.000753187
0.00117033
-0.00168092
0.000450434
-0.000887627
-0.000213484
-0.00110405
0.000290225
0.000154097
-4.11556e-05
-0.000151451
0.000179595
-9.37519e-06
0.000297448
-0.000958378
0.000219919
-0.000656925
-9.71493e-05
0.000156454
0.000131594
4.37508e-05
-0.000175394
-0.000441746
2.9979e-05
5.9707e-05
0.000365923
3.15909e-05
-0.000133622
0.000101855
-0.00132764
0.00113253
0.000201375
-0.000396792
0.00012844
-4.94373e-05
0.000901191
-0.000936004
5.2361e-05
-1.37077e-05
0.000221505
9.10788e-05
-0.000188333
-0.00129276
0.000375077
0.000929483
-0.00202646
0.000159239
0.000268278
0.00163784
-0.00187437
-0.000503465
-0.000126561
0.000626662
-0.000248272
6.36947e-05
0.000230895
-0.000435794
6.11528e-05
1.91096e-05
0.00108423
0.000189922
-0.00034815
0.000193798
-0.000674694
-9.52264e-05
0.000772515
-5.34028e-06
8.88468e-05
0.000495243
-0.000342017
0.00079538
-0.000333588
0.000279886
-0.000549784
-0.000109584
0.000103837
-0.00062601
0.000272628
-0.000329816
-0.000990592
-0.000207793
-0.000179513
-0.000854586
-7.67798e-05
-0.000534418
0.000612647
-0.000526192
-0.000171818
0.000260366
0.000140021
-0.000641026
0.000505813
-0.000400434
-6.49114e-05
0.000466046
-0.00120908
-0.00106025
0.000494874
-0.00202112
0.00133361
0.00104536
-0.00253395
-0.000184989
0.000305466
-0.000120672
-5.66824e-05
0.000263279
-0.000152195
0.000461752
-0.000173546
0.000176583
0.000319628
0.000186946
-1.22992e-05
-0.000174733
-7.83426e-05
-1.02583e-05
7.00658e-05
-0.000242179
0.000586736
-0.000270256
-0.000676454
-0.000715545
-0.00146331
0.00208025
-0.00190549
-0.000763852
0.000179412
0.000608355
-0.000543672
0.000432599
0.000143401
-0.00029705
8.16311e-06
0.000290186
-0.000310718
0.000328478
-1.76594e-05
-0.000535417
0.0011095
-1.49492e-05
-8.17472e-05
-0.000872012
0.00150887
-0.000625154
-0.000175862
0.000177546
-0.000185017
-0.000149782
-0.00033144
0.000817985
-0.000214081
-0.000598879
0.000256589
-7.99048e-05
-0.00185483
0.00181541
3.86352e-05
-0.000153
-9.22637e-05
0.000245739
0.000692216
0.000137249
0.000255296
-0.000262343
6.92945e-06
4.24468e-05
-0.000163075
-3.57674e-05
-6.99803e-05
0.000126208
-5.59929e-05
-2.56596e-05
0.000291407
-0.00027021
-8.01312e-05
0.000107957
-0.0017164
0.000609457
0.0011143
0.000295119
0.0002196
-0.00033619
0.00143597
-0.00146902
3.28858e-05
0.00213512
-0.000527139
-0.000422279
0.000559585
-0.000128959
0.000494969
-0.000398665
-0.000100519
-0.000113544
-0.000138331
0.000251735
0.000897075
-0.000189028
-0.000700698
0.000373151
0.000221375
-0.000592263
3.64182e-05
0.000464394
4.09963e-05
0.000164799
0.000852171
0.00061385
-0.00160277
0.000674521
0.000934997
-0.000223834
0.000356036
-0.0001327
-0.000161799
-0.000577983
0.000173747
0.000408221
-0.000350664
-3.39555e-05
0.000295997
-0.000448942
0.000301688
-0.000277966
-2.3488e-05
-0.000272073
-9.7616e-05
0.000367734
0.000271913
-9.7434e-06
-0.000501001
0.0005874
-8.41624e-05
0.000234623
0.000419737
0.000675554
-0.00109541
0.000156589
-0.000164386
6.26328e-05
0.000281358
-0.00098072
0.00101697
0.000738489
-0.000320651
6.61072e-05
0.000420048
-0.000492834
-0.000637608
0.000532454
0.000106952
-0.00082321
-0.000251476
0.00111255
0.000198899
0.00048768
-0.000684916
-0.00060157
-2.84104e-05
-0.000314734
0.000342599
-0.000552217
5.36483e-05
0.000449078
-0.000383545
-6.55601e-05
0.00125418
-0.000778325
-2.73247e-05
0.000245202
0.000337788
-0.000582613
0.000599968
-0.00130264
0.000737407
0.000246121
-0.000459883
0.000232967
-0.000101201
-0.000348221
0.000411704
0.000201438
0.000202057
0.000153812
0.0019933
-0.000515487
-0.00145194
-0.000545731
-0.00135353
-3.32382e-05
0.000801498
-0.000765548
0.00049087
0.00117876
-0.00165731
0.00144895
-0.00116808
-0.000253231
0.000530433
-0.000187168
-2.61056e-05
-0.000161289
-0.000201053
3.86579e-05
0.000162121
-0.000511607
7.69097e-05
-0.000350564
-0.00113618
-0.00100188
0.00213986
0.00105361
-3.90127e-05
-0.000400471
-0.000198418
0.000599364
5.85658e-05
6.55136e-05
-0.000218126
0.000601957
-0.000711645
0.000109014
0.0001751
-0.000204471
6.13897e-05
-0.000362899
0.000301963
7.75533e-05
-0.000460086
0.00221715
0.000102238
-0.00086113
0.000783303
0.000105992
-0.000219462
-0.000808547
0.00185534
-0.000367693
0.000406053
-3.56073e-05
-0.00114526
5.05402e-05
0.000184876
-4.76538e-05
-0.000137029
1.15587e-05
-0.000135918
2.60462e-05
-0.000333252
-0.00185925
0.00218128
-0.000316425
-0.000719962
0.000495376
-0.000146558
0.000220749
-7.44761e-05
-0.000336313
-0.000588665
0.000927365
0.000515289
-0.000221759
0.0019012
0.00040434
-0.000649186
0.000251146
0.000107768
0.000822897
-0.000880975
0.000446827
-0.000224091
-0.000223472
0.00208776
-0.000692891
-0.0013919
0.000198902
0.000173198
0.00105193
-0.000775653
-0.000260218
0.000107898
-0.000143935
3.60327e-05
0.000130166
-2.44362e-05
-0.00010583
0.000657019
-9.83551e-05
-0.000553316
-0.000722325
0.000169452
0.000600818
-0.000566615
0.000278708
0.000287969
-0.000144782
0.000350459
-0.000205907
-0.000140353
0.000595158
-0.000441555
0.000342011
0.00213355
-5.01842e-05
0.000263256
-0.00027475
1.12625e-05
-9.36077e-05
0.0010141
-6.01721e-05
0.000151263
0.00019871
-0.00187873
0.00169947
-0.000597983
0.000743234
-3.07059e-05
0.000285645
0.000232162
-0.00140067
0.00138311
0.000113379
-0.000481801
2.74439e-05
4.45309e-05
-7.20638e-05
0.000635747
-0.000394149
-0.000241147
7.68814e-05
-3.06635e-05
-0.00152291
0.00121178
0.000132938
-0.000101558
0.00191891
-0.00149744
0.000203882
-0.0009795
-0.000841182
-0.00150592
2.31246e-05
-0.000163841
-0.000748613
-6.88896e-06
0.000759023
-6.30388e-05
-1.54945e-05
7.83929e-05
-0.000165934
0.000191332
-2.56475e-05
0.000408472
0.000529646
0.000277235
-5.39479e-06
-0.000431023
0.00037266
-0.0014473
-0.000152175
-0.000273243
-0.000293177
0.000485868
-3.28061e-05
0.000176209
-0.000168981
-0.000139053
0.000549144
-0.000109342
-0.00165344
0.00159085
-4.00029e-05
0.000214526
-0.000955922
0.00028426
-5.50761e-05
-0.000286596
0.000352854
6.9048e-05
0.000587988
7.17318e-05
-0.000658761
-0.000159994
3.95756e-05
-0.000139546
6.90233e-05
0.000108084
-8.77777e-05
-0.000169419
0.000255039
-0.000367106
-0.00178709
5.48674e-05
-0.00051342
0.000462747
-0.000132754
-0.000311044
-7.46187e-05
-0.000157522
0.000232083
-0.000226321
0.000122008
0.000109992
-0.000309194
0.000198898
0.000120445
-6.22473e-05
-0.000660669
0.000121357
0.000294707
-0.000503606
0.000209084
0.000423842
-0.000128986
-0.000239602
0.00010667
0.000132897
0.000191634
-0.000208211
-0.000238187
0.000445739
-0.00163639
0.000177584
-5.41785e-05
-0.000621388
0.000134882
-0.000153489
1.82571e-05
-0.000340375
-0.000940582
-6.38878e-05
-0.000256829
6.85752e-05
-7.31809e-05
4.30698e-06
-0.00083448
-0.000665781
0.00151221
-0.000128282
-0.000544036
-0.0018744
0.000489421
0.000934396
-0.00175331
0.000117419
5.08505e-05
-0.00164822
0.000348397
0.00133048
0.000477113
-0.000418527
-3.94963e-05
0.000113805
0.00155303
-0.00111644
-0.000421484
-0.000333301
0.00022249
0.00176505
-0.000364386
-0.00139712
-0.000262523
1.99308e-05
0.000240657
-9.10971e-05
-4.73755e-07
9.1464e-05
0.00138643
-0.000286505
-0.00019375
0.000379256
0.000576229
-0.000947032
9.04455e-05
0.000572101
0.000480955
0.000155369
-0.00152533
0.000484435
-0.000471767
-1.17072e-05
-0.000431993
-4.55161e-05
7.32018e-05
0.000200687
-0.000297364
9.49238e-05
-0.000287412
0.000184887
0.000102381
-0.000453795
0.000470571
-8.76222e-05
7.29954e-05
1.46387e-05
-0.000147528
-4.48638e-05
0.000192355
-0.000191846
-9.56187e-05
-0.000235396
2.03364e-05
0.000213363
0.00219639
-0.00161798
-0.000568284
0.0013349
0.000682962
0.000396498
4.29863e-05
-0.000438684
0.000496216
0.000465553
-0.00207194
0.00161145
2.90222e-05
0.00107252
-0.00136632
0.00158969
-0.000474605
-0.00111276
0.00128793
-0.000435868
-0.00136548
-0.000262701
-0.000154155
-0.00133703
0.000708229
-0.00025491
-0.000462226
0.000754913
0.000610045
-0.00135317
5.03535e-05
0.00024066
0.00130273
3.9092e-06
-0.000150957
0.000108205
4.27391e-05
0.00046456
-0.000192894
-0.000272611
0.00030091
-0.000368117
7.01877e-05
0.000744553
-0.000901779
0.000162677
6.80621e-05
9.36913e-07
0.0008165
-0.000372513
0.000278964
0.000525578
-0.00066165
0.000348204
-0.00128159
0.000941294
0.00161599
0.000474171
-0.00136198
7.45769e-05
0.00131064
0.00073271
0.000404322
-0.00113209
0.00182783
-7.6384e-05
-0.00146998
-0.000144954
-0.000755072
-0.00051784
0.00195593
0.000110076
-3.80473e-05
-0.000597015
0.000447745
-0.000909228
2.02821e-05
-0.000154051
0.000133693
9.81342e-05
-8.91459e-05
-9.20689e-06
-1.29008e-05
9.48575e-05
-8.23081e-05
-0.000249798
-2.72536e-05
0.00057018
0.00018466
-0.0007424
0.000171112
0.000122586
-9.71088e-05
-2.62915e-05
-3.49347e-05
0.00113971
-0.00195009
0.00138854
-0.000342938
-2.9394e-05
-0.0010279
-0.000685157
0.00171568
-0.000805
-3.22702e-05
-6.03258e-05
-0.000170583
0.000477984
0.000338219
0.000546814
-0.000882323
0.00102256
-0.00114407
0.000140959
0.000207549
6.43495e-05
-9.62839e-05
-0.000396743
0.00101317
-0.000625217
-0.00116456
0.000965437
0.000237121
-0.000298252
6.22536e-05
-0.000182403
-2.67356e-05
-0.00138849
-0.000525231
0.00192191
1.90042e-06
-6.16756e-05
0.000426787
0.00102722
-0.00111255
0.000164625
-2.7269e-05
0.000510829
-0.000583325
7.33973e-05
9.42863e-05
-0.000506727
-0.000116934
-3.41139e-05
-0.000271907
0.000297774
-0.000235468
0.000208067
0.000626491
0.000437986
-0.00032096
0.000134065