/*--------------------------------*- C++ -*----------------------------------*\
| =========                 |                                                 |
| \\      /  F ield         | OpenFOAM: The Open Source CFD Toolbox           |
|  \\    /   O peration     | Version:  v2012                                 |
|   \\  /    A nd           | Website:  www.openfoam.com                      |
|    \\/     M anipulation  |                                                 |
\*---------------------------------------------------------------------------*/
FoamFile
{
    version     2.0;
    format      ascii;
    class       volScalarField;
    location    "550";
    object      ddt0(k);
}
// * * * * * * * * * * * * * * * * * * * * * * * * * * * * * * * * * * * * * //

dimensions      [0 2 -3 0 0 0 0];


internalField   nonuniform List<scalar> 
13851
(
3.5941e-07
0.000613006
2.71555e-07
3.43421e-07
3.88314e-07
-8.01135e-07
7.32811e-08
6.83985e-08
2.18566e-07
5.78318e-07
-0.000301238
-0.000142487
0.0018974
7.85639e-05
2.03791e-08
2.33458e-07
1.18764e-07
2.53103e-07
0.00326178
2.08541e-07
3.31814e-07
2.07369e-07
3.24406e-07
1.37188e-07
3.93758e-07
4.75533e-08
7.00609e-08
3.30558e-05
3.51281e-07
2.11032e-07
-8.85778e-07
1.19999e-07
1.16357e-07
-0.000276061
1.08693e-07
0.00392194
0.0017882
0.00327485
6.66683e-07
-0.000309763
2.23281e-07
4.28145e-08
0.000499203
-0.000228309
6.28917e-06
0.000655207
-1.07646e-05
0.000330285
7.21564e-08
6.02449e-07
-1.15166e-07
0.000468364
0.000199714
3.43791e-08
2.60618e-07
4.34529e-08
7.01797e-08
0.000238787
2.10862e-07
7.6426e-08
0.00380779
0.00048698
7.34057e-08
2.03639e-07
5.50097e-06
4.09922e-07
0.00148435
-1.36413e-05
3.58952e-08
2.62838e-07
-0.000260269
0.00060512
-3.65517e-05
4.8227e-08
5.01722e-08
3.12185e-07
1.3825e-07
-0.000151949
3.64132e-08
-0.000302453
8.43604e-08
0.000304062
9.76573e-08
0.000677672
4.86613e-08
-7.05659e-05
-3.33997e-07
0.00311813
8.99784e-08
1.95742e-07
0.00382633
7.96277e-07
-0.000162702
8.05415e-08
8.35473e-08
1.55057e-07
7.58817e-07
-0.000166825
4.47404e-07
2.25268e-07
0.000175138
3.48688e-08
2.59439e-07
5.75208e-08
7.06222e-07
-4.17537e-07
8.19441e-08
2.25526e-08
-7.4664e-05
-4.06539e-07
1.93778e-07
1.99377e-07
6.39345e-07
1.7306e-07
1.34681e-07
3.53386e-05
-5.77362e-05
2.73753e-08
1.78012e-07
3.23125e-07
0.000407209
6.02875e-08
0.00165866
1.98089e-05
0.000213949
1.36351e-07
0.000182289
2.74976e-08
3.23325e-07
0.000312566
2.25697e-07
1.22231e-07
-0.000300756
9.05593e-08
6.4256e-05
1.09421e-07
2.86208e-08
0.000883382
0.00017857
0.000849692
0.000223292
2.18708e-07
4.90704e-07
9.89869e-08
1.39079e-07
-0.000571244
1.75558e-07
0.000155052
6.9671e-08
0.000418958
-3.62433e-07
2.56888e-07
8.42841e-05
6.00301e-08
9.3437e-08
1.4291e-07
3.11455e-07
1.89626e-07
0.000454754
2.08659e-07
3.08204e-08
5.48409e-08
0.000232172
1.18337e-07
2.04411e-07
7.63903e-08
1.33873e-06
3.20773e-08
3.19023e-07
6.85385e-05
-0.000146099
6.34866e-08
3.05343e-07
0.00107527
1.07241e-07
2.43276e-05
5.04312e-08
4.63703e-07
0.00305208
2.30376e-08
1.22746e-07
0.000539527
7.17096e-08
2.61005e-07
-4.92136e-08
2.17272e-07
4.27438e-07
1.48816e-07
-3.1413e-07
2.38252e-06
-0.000139294
0.000233809
2.04626e-07
4.96077e-08
0.000544416
1.02378e-07
4.77434e-07
-0.000302052
4.55541e-07
3.15413e-07
1.07598e-07
0.00051932
7.7341e-08
1.39531e-07
1.13141e-06
8.00503e-08
-8.60759e-05
1.05807e-07
-0.000311904
2.1157e-08
-0.000225663
2.54874e-07
-0.000229159
1.40974e-08
8.79272e-08
0.000148586
-4.92182e-07
0.000686694
1.94428e-08
-0.00031706
1.10084e-07
8.49735e-08
0.000153171
0.000186596
-0.000439784
3.26021e-07
8.00731e-08
9.41489e-07
0.000368863
1.31874e-08
1.07559e-07
5.97739e-07
5.91427e-08
1.98597e-07
-1.05781e-07
-5.00347e-07
0.000172828
2.9242e-05
9.57162e-08
1.38722e-07
-1.32157e-06
-1.58938e-05
8.47937e-08
1.41471e-06
2.76173e-07
-0.000418366
2.58668e-09
-0.000241178
1.51007e-07
1.61558e-07
3.04404e-07
-3.37357e-05
1.20391e-07
1.48334e-07
3.29534e-08
-1.26879e-06
2.00872e-06
0.000752513
-0.000134279
5.10334e-08
8.97063e-08
3.05535e-07
0.000236554
1.41252e-07
0.00261499
1.02524e-07
1.12343e-07
7.54308e-08
0.000265325
1.25507e-07
3.03148e-07
9.54465e-08
8.17357e-06
9.56277e-09
2.34212e-07
1.3118e-07
0.000284008
-1.89633e-06
-0.000563208
0.000143823
-3.29687e-10
1.06571e-08
6.76085e-07
1.86758e-08
9.92811e-05
-0.000302141
2.85334e-07
3.02472e-08
4.84054e-06
0.000494894
0.0012759
2.02568e-07
7.55536e-08
3.71864e-08
0.000690152
0.0027322
2.00062e-07
7.90319e-05
1.47877e-07
-0.00040505
5.29098e-08
1.2199e-07
-0.000523548
1.8544e-07
-4.38795e-07
-0.000177044
2.72145e-07
-2.91183e-08
8.38887e-08
2.05612e-07
0.000151002
2.00727e-07
1.25477e-07
0.000122113
5.22497e-08
1.59276e-07
1.11995e-07
-0.000529786
0.000307146
2.40359e-08
5.80643e-08
2.47827e-08
-9.86739e-05
2.7764e-07
2.70377e-07
3.21346e-07
0.000157124
8.11185e-08
8.74987e-08
2.81987e-08
1.82786e-07
1.29568e-07
-8.32321e-05
-4.82271e-05
0.000102448
4.35818e-07
-0.000486809
0.00165238
1.63949e-08
5.56601e-08
0.00133265
7.9045e-07
-1.31565e-06
-7.99241e-05
0.00320933
4.31713e-07
-0.000211192
-0.000291109
2.14095e-08
-6.48798e-07
-1.11287e-06
0.00367443
8.62889e-08
-1.61969e-06
0.000370847
3.10529e-07
-0.000490777
3.20284e-07
2.52343e-08
1.93891e-07
2.24983e-08
2.8086e-07
-0.000256872
-0.000469208
1.49242e-07
1.86352e-09
6.35724e-08
0.000415876
3.26629e-07
4.42157e-05
2.45398e-05
1.50079e-07
-1.00614e-06
9.37786e-08
0.000132616
2.39261e-07
3.04194e-08
4.23058e-07
0.000147944
1.01406e-07
9.70532e-05
7.92275e-07
5.95965e-06
0.000249591
-3.00294e-06
-5.39222e-06
3.85897e-07
1.2513e-07
8.50168e-08
4.61942e-07
-2.99823e-08
-1.56472e-05
2.56555e-08
-0.000413446
-0.000219968
6.59425e-08
5.59808e-08
0.000132571
-0.000320826
-8.34949e-06
1.25666e-05
4.34524e-07
9.7882e-08
2.37982e-07
0.00203063
1.2446e-07
2.18703e-07
4.09261e-07
7.6023e-08
8.16121e-07
2.63382e-07
7.39588e-08
5.39685e-07
-6.91603e-07
-0.000123865
3.36716e-07
3.69236e-08
2.83223e-07
-2.38123e-05
1.69035e-07
0.00370384
1.23644e-07
0.000109765
2.70816e-08
2.47238e-07
2.79219e-07
0.00409335
-0.000153355
4.54137e-05
3.92217e-07
-2.00794e-05
-0.000254844
-3.90434e-07
3.70754e-07
-2.97822e-08
2.37854e-07
-4.38787e-05
5.68096e-07
0.00286227
-0.000141938
1.92513e-07
-0.000267168
4.81208e-07
2.90705e-06
-0.000107467
0.00013022
-1.99633e-08
9.45532e-08
7.13334e-08
1.76435e-08
9.08386e-08
1.35307e-07
1.85794e-07
-8.64296e-05
1.63086e-07
0.00065702
2.65809e-07
3.23415e-07
0.000612705
2.05144e-07
6.72061e-09
0.00301996
1.23758e-07
3.53237e-07
1.26456e-07
1.8885e-07
1.93298e-07
1.85607e-08
4.74634e-07
0.000220792
1.06798e-07
1.84152e-08
1.05079e-07
3.23881e-07
2.2056e-05
1.7485e-07
2.59198e-07
1.96957e-07
1.9538e-07
-0.000348665
1.07585e-07
-5.56494e-07
6.342e-08
1.87268e-07
0.00019181
-0.000259357
9.03667e-08
3.08844e-07
1.66943e-07
-2.51877e-05
0.000687409
3.22617e-07
-0.000640414
2.3264e-07
3.93241e-07
7.69911e-08
0.000560461
2.84835e-09
0.000208728
2.22633e-06
4.50447e-08
3.9692e-07
-0.000223754
8.41767e-08
-0.000352814
1.80975e-07
0.000226984
2.75811e-07
9.54862e-08
1.5162e-07
7.35126e-08
-0.000347222
2.31897e-07
0.000753781
0.00300479
-3.20699e-07
5.7572e-08
0.00120029
-0.000146296
1.19048e-07
6.32271e-08
-4.52607e-06
9.4294e-05
-0.000134004
1.32448e-07
0.000574496
0.000643164
0.000582775
2.06113e-07
3.89278e-07
0.000169508
3.75212e-06
2.18591e-06
-0.000285459
0.00202586
1.93696e-07
0.00191382
0.000873367
2.35869e-08
-1.97068e-06
2.77634e-07
-0.000231983
1.54177e-07
6.29188e-08
3.00659e-07
2.01879e-07
-1.06556e-07
-1.50758e-07
0.00328735
0.000744306
8.89974e-08
0.000590153
-0.000200236
-9.24842e-07
-0.000120501
2.30139e-08
4.40872e-09
2.35687e-07
4.34599e-05
0.000937737
9.4928e-08
1.1873e-06
0.00413192
4.16498e-08
3.03925e-07
0.000595445
0.00332956
-4.89065e-05
-0.000359531
0.000759066
2.30358e-07
7.65821e-08
0.00096357
-0.000218174
-0.000470087
2.39459e-08
6.39725e-07
2.39824e-08
1.14376e-07
0.00273888
3.60184e-08
1.57658e-07
2.02129e-08
8.11981e-08
0.000827418
2.23831e-07
3.36397e-07
3.37913e-08
0.000153023
-0.00032664
1.50426e-07
5.43155e-08
1.40602e-07
7.6612e-08
0.000182266
-0.00024029
-0.000233969
0.000600926
-0.000189228
3.27857e-08
-0.000217124
-0.000293254
4.44656e-07
4.01169e-08
1.16789e-09
1.38524e-07
1.96266e-07
0.000461556
0.000100928
1.24961e-06
1.18265e-07
1.76133e-07
2.58218e-07
4.82766e-07
-0.000109674
1.76353e-07
5.64451e-08
4.14189e-07
8.87627e-08
6.49097e-08
1.68538e-05
7.68148e-08
2.46995e-07
3.26369e-07
9.15753e-08
3.83308e-07
0.00379373
2.87587e-06
2.79884e-07
-0.00174729
1.64175e-07
-6.55177e-06
2.82865e-07
0.000619194
2.44398e-07
1.63801e-07
9.59891e-05
2.58821e-07
0.000300417
-0.000336598
0.00070128
0.00287272
1.19069e-07
0.00037921
1.1573e-07
9.79792e-08
-1.68044e-09
8.81046e-08
-3.13643e-07
3.7445e-07
1.41115e-07
3.05153e-08
0.00166367
2.41104e-06
0.00142022
2.96484e-07
-2.96906e-08
1.48581e-07
0.000677311
0.00066815
-1.3553e-07
6.95719e-08
1.3613e-07
1.8303e-07
1.11e-07
3.1677e-07
0.00298603
0.000715118
9.03264e-08
2.7853e-08
7.24202e-08
3.13568e-07
0.00323302
0.000216762
2.4949e-07
-0.000185395
0.000423548
2.41129e-07
0.000382183
0.000125865
2.89558e-08
-0.00031265
8.63495e-08
3.09144e-07
-5.07877e-10
3.64615e-07
-0.000259306
8.16621e-08
0.000132443
6.04143e-07
1.06129e-08
-0.000290124
3.11291e-07
2.67814e-07
7.78894e-07
1.11311e-07
1.25487e-07
4.72215e-05
0.000403341
-1.14811e-08
0.00294794
-0.000172316
1.79446e-08
2.77211e-07
0.000265249
0.00428744
-5.61706e-07
-0.000314253
1.88045e-07
2.49819e-07
2.58246e-08
-0.000296923
0.00166283
1.96271e-07
2.7696e-07
2.88537e-05
8.18108e-08
1.35723e-07
0.000694562
-1.45396e-05
-0.000168663
5.11091e-08
8.90659e-08
-0.000190425
0.000102559
0.00360036
4.62194e-07
6.62536e-05
9.00686e-08
6.73236e-05
-4.1311e-05
2.11541e-07
1.53584e-07
0.000706864
3.44605e-07
4.95161e-07
0.00203388
1.61033e-07
7.86887e-08
1.94252e-07
1.52629e-07
0.000708209
1.72105e-07
-0.000104683
4.27257e-07
-3.99856e-06
1.90127e-07
7.55179e-05
1.42058e-07
3.42135e-07
-1.47063e-08
2.39333e-07
1.33129e-07
-0.000181711
2.98313e-07
3.59661e-08
6.86264e-06
7.19438e-08
-0.000201617
4.83005e-07
4.89416e-07
4.13544e-07
0.00300376
-0.000168623
8.40074e-08
7.26819e-07
-0.000118729
1.123e-07
-3.59888e-05
1.39964e-08
1.34715e-07
6.71184e-07
0.000598717
5.27729e-07
1.75442e-07
9.58957e-08
2.60125e-08
-0.000160717
1.52321e-07
8.14434e-07
2.00628e-07
6.60397e-07
9.52763e-08
4.76887e-07
6.22095e-07
-0.000286501
-1.65375e-07
0.000291958
8.87081e-08
3.9298e-07
7.09322e-07
-0.000528454
1.99711e-07
-0.000621137
0.00319917
7.27482e-08
0.000521336
-3.65267e-06
0.000349281
-2.58181e-05
-3.3912e-05
-0.000185332
2.41288e-07
1.43012e-07
5.08739e-07
0.000270176
0.000609812
3.26113e-07
2.52917e-07
2.25843e-08
0.000603257
4.60521e-08
0.000158778
1.71923e-07
1.37845e-07
0.000674236
-0.000182008
-0.000113895
1.00248e-07
2.51855e-08
0.000126331
0.00310077
-9.43959e-05
4.24882e-07
-3.13304e-06
0.00263366
0.00071527
9.6671e-08
2.36637e-08
1.33727e-07
7.38669e-08
-2.54e-05
9.90897e-08
-0.000309996
3.80141e-07
2.60671e-08
0.000725669
0.000251055
-0.000185956
1.00144e-07
3.19676e-08
1.46462e-07
2.58411e-07
2.7057e-07
-0.000317573
2.85913e-07
-0.000446892
4.34086e-08
2.06776e-07
1.8502e-07
0.000705816
2.61381e-08
3.1844e-08
-0.000208016
-3.54674e-08
1.6832e-07
1.41312e-07
1.11301e-07
0.000171376
-6.8341e-07
1.64396e-07
-0.000182264
1.34234e-07
-0.00107859
-0.000521747
1.3322e-07
-0.000281721
0.000147576
-0.000204437
-0.000148375
3.52949e-07
3.18296e-07
-0.000174653
3.21711e-07
0.000318587
-0.000329519
2.89148e-07
7.10895e-08
0.00389985
-0.00031731
-0.000258793
1.02138e-07
3.71582e-08
0.000127765
-0.000301496
-7.85276e-05
1.7109e-07
4.05683e-07
-0.000603993
0.00069147
5.39812e-07
3.64248e-08
2.21828e-07
1.04582e-07
1.48967e-07
1.95372e-06
2.55827e-07
0.00294508
-3.11944e-05
1.3705e-07
4.99342e-07
3.19485e-07
1.8842e-07
-0.000259554
-0.000158585
8.90551e-08
-0.000491845
1.73071e-07
9.68477e-08
3.17749e-07
1.11555e-07
1.59787e-07
1.43223e-07
-0.000281607
9.76282e-08
4.90298e-08
9.78278e-08
1.71818e-07
2.17427e-06
9.12744e-05
1.78991e-07
0.00139649
9.36501e-07
0.00265618
1.65747e-07
1.31166e-07
-0.000273477
6.14336e-08
-2.99209e-07
-0.000208283
0.00182147
0.000280833
1.17155e-07
0.000410522
2.37726e-07
-1.72395e-08
6.96269e-08
-0.000380717
9.70637e-08
0.00133847
2.75205e-07
2.94637e-07
0.000256543
1.09033e-07
0.00259655
1.47007e-07
1.58664e-07
3.3648e-07
1.54667e-07
2.86769e-08
1.93821e-07
8.49956e-08
0.00242364
2.87863e-07
0.00318628
0.000659311
9.90746e-07
0.000892459
7.7378e-08
1.48943e-07
1.26582e-07
2.01891e-07
1.3609e-07
1.05427e-06
6.9257e-08
3.09142e-07
2.76593e-07
3.53213e-07
-0.000168678
0.00100576
-6.2224e-07
-5.41444e-05
0.00277589
1.17296e-07
-0.000294897
1.193e-07
2.8171e-07
-0.000110307
1.83176e-08
0.000122979
5.33506e-08
-0.000114
-0.000325028
0.000442642
6.16583e-08
0.00189388
1.70743e-07
8.2315e-08
1.47327e-07
1.8745e-07
0.000591513
-3.73482e-06
-0.000663701
3.0469e-07
8.48154e-08
0.000108156
1.30984e-07
0.00329735
-0.000370839
0.00448237
0.00301767
6.85756e-05
1.92747e-07
1.72705e-07
-1.15112e-06
2.45422e-07
6.35364e-08
0.00021443
8.56645e-08
6.77455e-08
4.0197e-07
0.00196978
3.09368e-07
-0.00022162
0.00215728
0.000511569
0.00374941
1.06144e-07
1.3191e-07
2.72197e-07
0.000405067
-0.000230216
6.26207e-08
1.51321e-07
2.99588e-07
-1.53319e-07
6.15631e-08
2.91711e-07
8.77757e-08
6.43318e-08
0.00190742
-3.31097e-07
2.82454e-07
1.41084e-07
1.07165e-07
0.00232169
6.58639e-08
0.000420274
0.00280369
-2.9689e-07
8.81417e-08
-5.92925e-08
6.6768e-08
2.66496e-07
2.68196e-07
-0.000158617
-0.000491928
-0.000201195
6.48099e-08
5.46703e-05
6.60005e-08
7.54048e-07
2.05965e-07
-0.000145579
0.000132257
2.7851e-08
6.33167e-08
-1.04983e-06
-0.000323305
1.88551e-07
0.00371912
1.00186e-07
-0.000101906
4.10948e-07
0.000120571
1.33918e-07
1.00619e-06
0.00408249
-0.000215569
2.70401e-05
0.000488501
6.66303e-08
0.000298926
5.94765e-08
1.60448e-07
5.31981e-08
1.07387e-07
-0.000242493
1.6002e-07
8.63363e-08
-0.000348339
0.00382608
-0.000188139
2.29767e-08
7.79971e-08
1.95902e-07
1.38455e-07
5.81537e-07
0.000155268
-0.000316261
-0.000266641
5.46481e-08
6.07145e-08
4.37473e-07
0.00021092
0.000176925
-1.12944e-06
1.31826e-07
6.89082e-08
0.000604052
1.30773e-07
0.00174091
0.000811199
-8.53946e-09
8.4051e-08
0.00149833
6.18263e-07
1.45757e-08
8.80291e-08
-0.000144348
-0.000127288
-8.00286e-06
-3.32107e-06
2.59336e-07
2.69461e-07
1.31543e-07
0.000311808
-6.6728e-07
-0.00022504
-5.61574e-06
4.84504e-08
0.00368744
1.10273e-07
-0.000123401
0.00315328
1.98379e-07
0.00027881
-0.000293311
0.000526313
0.00027008
7.70975e-08
1.68223e-07
-0.000228335
0.00215623
0.00062077
2.15045e-07
7.4602e-08
1.4336e-07
-0.000190046
0.00384184
8.75759e-08
1.68248e-07
-5.11988e-08
0.000460156
0.00156603
3.72234e-05
5.74815e-08
0.000259688
7.9397e-08
2.59689e-07
0.00222135
0.000598954
6.85431e-08
2.83384e-07
7.53051e-05
-1.43165e-05
1.30274e-07
6.18879e-08
0.00162267
1.24218e-07
8.81356e-05
5.04e-08
0.000733082
1.75279e-07
6.69924e-08
-0.000314875
0.00026057
9.62062e-08
0.000716899
-5.22846e-05
0.00169964
0.00261055
-0.000181667
4.96509e-08
1.04333e-07
0.00312368
1.80376e-07
2.64053e-08
1.3858e-07
0.0001075
2.4995e-07
0.00197041
2.84368e-07
5.08474e-07
-0.0001947
1.57089e-07
0.00315788
1.28292e-07
-1.14244e-08
1.41364e-07
4.12979e-08
0.00111337
0.000164041
1.07259e-07
1.77566e-07
0.000232805
2.1296e-07
1.99113e-07
-0.000230342
4.90513e-08
2.75617e-07
0.000257005
-0.000330614
0.000219081
0.00123012
0.000346543
-1.46447e-08
0.000336469
-0.000315138
0.00464547
2.97503e-09
3.33469e-08
0.00111589
1.15121e-07
5.86885e-08
0.00161579
-0.000263413
2.43375e-07
-0.000220432
-3.7007e-06
-0.000201503
-5.66142e-07
-3.37135e-07
2.14981e-07
-4.24597e-06
5.78119e-07
1.76517e-07
9.67885e-08
-0.000123541
-0.000170594
0.0039632
-1.36744e-05
2.97795e-07
-0.00048943
-0.000212872
4.30933e-08
8.52577e-08
2.85345e-07
0.000622494
1.5872e-07
0.00299505
1.73482e-07
8.83776e-08
2.43378e-07
0.0022046
-0.00043094
0.000434088
2.85213e-07
0.00122091
1.97774e-07
2.12983e-07
4.85491e-08
1.71664e-07
0.000214722
1.80252e-07
-0.000309249
0.000214581
6.10954e-07
-2.99827e-05
3.24344e-08
3.62945e-07
1.62833e-07
0.0023108
4.47287e-07
1.23231e-07
2.79542e-07
2.64328e-07
0.00401318
8.43724e-08
1.80917e-07
1.77973e-07
1.92991e-07
0.00243467
-0.000263525
3.05432e-07
4.64063e-09
1.04139e-06
1.39925e-06
1.10833e-07
0.00112251
-0.000240603
2.88037e-08
7.05667e-08
1.3732e-07
-2.10912e-08
2.25788e-07
1.17783e-05
3.05642e-08
3.14818e-07
4.67471e-07
3.00463e-05
8.7512e-08
3.8898e-07
6.07615e-07
4.15829e-07
3.71324e-07
1.31526e-05
0.00283075
4.07663e-08
1.25599e-07
5.4967e-07
-2.06559e-08
3.39374e-07
0.00380832
-0.000435981
3.86078e-07
1.93448e-07
5.08729e-07
0.00103045
8.12741e-08
9.07703e-08
-0.000433383
1.06659e-07
5.53636e-07
0.00274307
-0.000472814
1.78353e-07
2.19916e-07
1.14516e-07
-0.000436115
0.000615411
1.20487e-07
-4.08044e-05
0.00043793
7.5748e-08
-0.000291044
0.0012106
2.61055e-07
0.00187827
1.6586e-07
1.46335e-07
0.000218294
8.67996e-08
3.29717e-07
1.46475e-07
0.00330187
-1.17529e-08
0.0039293
1.32045e-07
6.40847e-08
2.03571e-08
-0.000310227
0.00229936
-0.000379796
0.000455
7.37961e-08
0.000601485
7.85017e-05
0.000420437
2.1804e-07
0.000831868
1.64918e-07
5.70842e-07
1.97197e-07
6.08672e-08
2.35187e-07
1.10898e-07
0.0018344
2.84216e-05
1.31282e-07
6.18866e-07
1.94008e-08
3.3229e-07
4.41707e-07
1.82417e-07
2.07503e-06
1.80641e-07
1.43285e-07
9.32969e-07
-3.11954e-05
7.35241e-05
2.08628e-06
-0.000349467
3.05701e-07
3.08321e-07
0.00303165
0.000451701
0.000381333
-1.11663e-06
1.34343e-07
-6.00988e-05
0.000270339
3.18757e-07
5.09006e-08
7.19195e-08
-7.42247e-09
-1.84631e-07
-1.14986e-06
0.000205232
0.00242422
9.4261e-08
0.000515461
-0.000176495
5.28308e-08
2.13153e-07
0.000238894
0.00049101
7.48728e-08
-4.57399e-07
1.01989e-08
2.58592e-07
1.89481e-07
1.74237e-07
-0.000410695
-0.000168539
0.00015051
0.000285572
7.19552e-08
2.82218e-07
7.47259e-07
2.04515e-07
1.71502e-07
1.87151e-07
0.00055947
1.6788e-07
-0.000109238
2.51709e-07
4.82617e-07
0.000588237
0.00262788
-0.000189042
0.000992004
-8.89381e-09
6.90358e-08
1.09822e-07
0.00128754
0.00227367
9.10705e-08
7.87236e-08
4.28072e-08
8.43607e-08
1.54689e-07
0.00250278
0.000712881
6.56101e-08
1.61882e-07
-7.22622e-05
5.53589e-07
-0.000257048
-0.000294618
7.28183e-08
-5.47179e-08
2.57136e-07
-0.000549958
9.37211e-08
-0.000481402
1.06097e-07
6.4148e-08
7.17155e-07
7.26356e-08
1.45381e-06
6.81966e-08
1.60677e-08
0.000332559
-0.000143668
8.74428e-08
1.26387e-07
2.14973e-07
0.00118761
0.000474356
1.19077e-07
1.07769e-07
5.57541e-05
2.36765e-08
-0.000375311
6.956e-07
1.68068e-07
1.86721e-07
-5.07874e-05
1.34441e-07
3.24671e-07
6.61414e-08
-2.76333e-07
-0.000118986
1.16656e-07
6.40087e-07
-0.00020805
-0.00134403
0.000593995
2.64312e-07
-0.000224893
4.09123e-08
0.00196578
5.73297e-08
0.000704893
0.000498406
0.000728616
0.000686974
-0.000128301
7.37008e-08
-1.04981e-07
2.88998e-07
-0.000237527
-4.53439e-05
-0.000118606
0.000301286
1.80441e-07
0.000506422
-0.000228447
2.89819e-07
2.34716e-07
7.72989e-08
-0.000339901
1.66036e-07
-3.37505e-07
1.52834e-07
2.17335e-07
1.00768e-07
1.3636e-07
-2.45609e-05
0.00270086
1.87543e-07
0.000591119
0.00238531
9.54557e-08
9.51408e-08
1.9806e-07
4.55527e-07
-0.000476441
0.00232373
1.81985e-07
7.11801e-07
5.01192e-05
4.09302e-07
7.25305e-09
0.000124283
1.89621e-07
-0.000316051
1.49904e-08
2.99933e-07
7.34503e-08
1.71032e-07
5.88106e-08
-0.000288977
0.000936563
-0.00036437
1.80441e-07
0.000445911
4.47727e-07
1.02282e-07
3.37031e-07
0.000171267
0.000452819
-2.32099e-05
-2.008e-07
8.09951e-08
1.23809e-07
1.18653e-07
2.79129e-08
1.96289e-07
0.000374914
1.73854e-07
0.000241166
2.54154e-07
0.00061703
0.00255356
-0.000377637
2.04731e-07
6.30947e-08
0.000581811
3.32003e-07
0.00315794
-0.000396722
9.52235e-08
2.71912e-07
9.81844e-08
0.000126653
0.000716465
2.67422e-07
3.58363e-07
-0.000249301
1.78874e-07
-1.10421e-06
2.96918e-07
0.000616693
-0.000500748
9.95779e-08
6.58383e-08
0.000679099
0.000791669
9.39841e-05
-0.000105386
0.000635228
4.20325e-07
9.71015e-08
0.000429639
-0.00042687
5.0819e-07
3.996e-08
2.30168e-05
0.00039897
2.90476e-07
8.51404e-08
1.00681e-07
-5.94744e-05
0.00012181
5.0273e-08
-0.000265157
7.62509e-08
2.9471e-07
1.74827e-07
0.000345716
0.00286858
6.13617e-07
0.00038584
2.37152e-07
1.28352e-07
1.81774e-07
0.000706366
1.5303e-07
0.000452599
3.65531e-07
0.00162851
7.01126e-08
1.28477e-07
2.11246e-05
0.000369991
2.37586e-05
2.53881e-07
0.00205641
8.32178e-08
9.85294e-08
9.18487e-08
4.37984e-08
3.28339e-07
-1.62485e-08
-9.49467e-08
0.000250703
8.3275e-08
0.00013117
-5.55892e-06
0.000212197
3.55061e-07
-0.000293004
-0.000347577
4.63669e-08
-0.000220787
-3.79765e-07
0.000302767
9.99808e-08
1.16837e-06
3.43852e-07
0.00197233
-0.000243921
-1.12023e-06
-0.000232987
2.68441e-07
4.16929e-09
2.23551e-07
-0.000240979
8.19475e-08
7.54938e-08
-0.00057954
8.02496e-07
0.000393815
0.00123112
2.5246e-07
1.42407e-07
1.37503e-07
0.0021015
7.25846e-07
1.83572e-07
0.00298091
6.99013e-08
-1.30354e-08
1.30366e-07
-0.00213565
2.60036e-07
-0.000315815
0.000818928
8.33254e-07
-2.94558e-06
4.71674e-07
-0.000558851
2.56322e-07
-0.000106333
0.000502931
8.71782e-08
1.12256e-07
1.56817e-07
7.03521e-08
1.3963e-07
1.37393e-07
-2.53432e-06
8.72025e-08
-2.20319e-05
2.11893e-06
2.50589e-07
9.57794e-08
1.70394e-07
0.000767383
9.91499e-08
2.2258e-07
0.00324323
6.40343e-08
0.00298803
-0.000172392
9.76708e-07
3.76769e-07
2.00693e-07
1.33536e-07
7.65225e-08
5.27867e-07
1.21277e-07
6.45241e-08
0.000151234
-0.000497235
0.00266585
1.37249e-07
0.000685518
4.72978e-06
6.81399e-08
-9.83853e-06
0.000381131
4.75031e-08
6.89685e-08
1.7339e-08
0.000420652
0.000577941
-0.000695534
1.18777e-07
1.09828e-07
4.04646e-07
6.96527e-08
0.000201234
2.05948e-07
3.88102e-07
0.000115474
-0.000246166
1.1604e-07
6.93699e-08
5.65963e-08
0.000585911
1.25479e-08
0.000593032
0.000180624
-2.33544e-07
0.0022072
0.000195755
0.00153973
3.9517e-07
-0.0010163
-6.97909e-06
6.83118e-08
1.25564e-07
1.45376e-07
-0.000190529
0.000513374
0.0007163
2.88395e-07
-0.000368228
1.0683e-07
0.000845811
1.80168e-07
1.61259e-07
7.24764e-08
1.04896e-07
0.000546967
6.16525e-08
0.00066298
0.000344536
0.000614645
1.08491e-07
-8.67403e-08
0.000607337
-5.94226e-05
1.5735e-07
0.000662457
1.67739e-07
3.17785e-08
7.59628e-08
-2.22779e-07
2.03065e-07
0.00036896
7.58753e-07
1.19154e-06
-8.66087e-08
0.000172548
0.000516792
-9.70272e-08
8.79099e-08
7.20464e-07
3.40934e-07
0.000584279
3.62706e-07
-7.42458e-08
2.38392e-07
0.00307188
3.23417e-07
7.71778e-05
0.000338323
3.23238e-08
1.21937e-07
3.57172e-07
5.90248e-05
8.06358e-08
-0.000494335
4.36634e-08
0.000616892
2.97543e-08
8.98456e-08
0.000371912
0.000642861
5.76513e-08
5.68078e-07
1.53385e-07
0.000716405
6.05446e-07
-5.069e-06
9.77813e-07
9.25154e-08
8.11616e-07
-8.99901e-05
2.10828e-07
-2.55231e-07
4.0208e-07
-8.37631e-07
5.31662e-08
0.000199982
-0.00027054
8.98028e-08
-0.000304683
9.0886e-08
3.47446e-08
0.000282873
0.000337254
9.8131e-08
-0.00020059
0.00217888
6.59709e-08
0.000198135
-0.000101678
4.88701e-08
6.70083e-08
0.000604735
6.63881e-08
0.000153541
6.69123e-07
-3.73086e-07
1.76306e-08
3.27624e-07
-0.000238894
2.90311e-08
0.000692137
7.91138e-08
1.09408e-07
-3.54129e-06
0.000662105
3.73783e-08
-0.000172831
-0.000278205
0.000401418
1.9603e-07
0.000851409
0.00304626
0.000504056
4.60289e-08
8.12962e-08
2.94802e-07
-0.000252078
6.50625e-07
0.000135354
2.0225e-05
1.02523e-07
1.49467e-07
4.55755e-08
0.000547498
0.000510023
0.000153473
0.00054818
1.51429e-07
-7.86522e-05
0.000135449
0.00141356
0.00058768
-0.000228808
-1.69616e-08
0.000141558
7.11703e-08
4.98616e-08
0.00051806
0.00161042
1.03272e-07
-0.000187928
2.71618e-07
1.01853e-07
0.000144227
-0.000231832
-0.000265011
-0.000253164
2.25267e-07
9.54129e-08
3.24976e-07
8.26012e-05
0.000651694
9.4023e-08
9.91252e-09
-0.000146361
8.90065e-08
1.20191e-07
0.000723967
0.000310227
1.56586e-07
4.68137e-08
7.05831e-08
2.26665e-07
2.00493e-05
7.18676e-08
3.53631e-07
1.78992e-07
-3.02819e-05
0.00035404
7.75239e-08
0.000413612
9.45521e-08
1.92466e-07
-0.000181813
3.86685e-05
2.00594e-07
-4.29146e-06
1.65878e-08
7.04296e-08
3.22639e-07
1.06395e-07
2.62904e-07
3.42929e-07
-0.000240403
2.76466e-07
3.06742e-07
1.89156e-07
0.00271646
0.000331493
-0.000194574
9.61677e-08
6.83215e-07
-7.21448e-05
-0.00048004
6.9361e-08
3.59146e-07
5.2581e-08
0.000611601
1.23657e-07
1.14381e-07
1.35296e-07
1.14276e-07
-0.000226221
-7.97375e-07
1.02848e-07
1.35943e-07
1.06306e-07
1.94928e-07
-0.000711797
-1.08111e-05
4.09205e-07
0.000601096
2.05007e-06
9.35805e-08
1.38877e-08
9.29135e-08
2.90775e-07
9.23323e-08
4.59908e-07
1.65005e-06
0.000202949
3.92123e-07
-2.20585e-05
-0.000176368
7.46229e-07
2.32261e-07
7.44198e-08
6.44446e-08
0.000901327
2.90057e-07
0.00344133
0.00216868
5.99625e-07
3.44196e-07
-0.000172623
9.07295e-08
2.77503e-07
3.41468e-08
9.37506e-08
3.22254e-07
2.80716e-07
5.51886e-07
0.00166299
-2.07584e-06
1.4286e-07
0.000816216
5.35896e-06
1.36015e-05
5.5417e-08
-0.00019477
0.000515062
-2.6169e-05
0.00151435
0.000576166
-3.17449e-05
4.80412e-05
7.35673e-08
1.99185e-07
0.00154858
2.59301e-07
1.27968e-07
-0.000258786
5.43795e-07
0.000694633
7.13892e-06
2.64293e-07
9.92352e-08
1.18745e-07
6.41277e-07
1.81883e-07
3.3393e-07
0.000326782
0.000504037
-5.33619e-05
1.3167e-07
8.67578e-08
8.64167e-09
-0.000551549
-0.000263591
-4.74427e-07
0.00183115
1.59347e-07
0.00133747
-0.000391336
-7.23621e-07
2.19553e-07
1.33393e-07
4.87665e-08
2.67483e-07
2.46915e-07
2.64057e-07
1.27255e-07
-0.000211817
3.17127e-07
-0.000277388
3.38542e-07
0.00357975
0.00362641
5.02173e-08
4.75839e-08
4.19301e-07
3.34819e-08
7.34486e-08
-1.65508e-05
0.00217957
-0.000286378
-0.00037046
5.85748e-08
0.000529835
0.000263236
-0.000169927
-0.000405059
1.92606e-07
2.89251e-07
-9.43966e-06
1.44087e-07
6.30389e-08
-0.000282804
-0.000245665
0.00136705
1.17962e-07
1.03988e-07
4.49135e-07
1.94569e-07
0.00288864
1.74642e-07
3.95484e-07
0.00308233
1.08268e-07
-0.000219476
2.02353e-07
-0.000506936
9.06251e-08
0.00253626
-0.000390577
2.68729e-07
0.000158683
-5.12195e-05
-0.000330096
9.86294e-08
1.79614e-07
2.68424e-07
1.94778e-07
0.000369844
3.53621e-07
0.000181964
4.02032e-07
1.28093e-07
4.33195e-08
-0.00036169
-2.48073e-08
-5.97221e-05
-0.00117922
4.47478e-08
4.19968e-07
0.000243151
5.77175e-07
1.99988e-07
4.03165e-07
1.63071e-07
-7.11701e-07
3.48878e-07
3.11866e-07
-0.00050071
-0.000283706
-0.000288158
0.000796691
0.00328263
0.000460007
3.20236e-08
-0.000446773
7.62248e-05
9.15809e-08
2.13859e-07
2.58569e-08
1.92692e-07
2.31561e-05
4.78491e-05
1.50733e-07
0.000144244
-0.000512365
3.03415e-08
3.90739e-07
4.07029e-07
0.000818386
0.000830139
-0.000247157
0.00174952
-0.000279258
2.29752e-08
0.00345501
9.94603e-06
0.000110201
0.000444543
6.91022e-08
-0.00183007
0.000326463
2.61795e-07
0.000166069
2.16089e-07
3.84001e-07
0.000390623
-0.000425588
9.21185e-07
1.86626e-07
-0.000178837
0.000552994
-0.000462082
-0.000393602
-0.000204937
-6.57128e-05
0.00147413
1.082e-07
4.35031e-07
2.64855e-08
-0.000291161
0.000722618
-0.000345891
9.52329e-08
-2.33628e-06
1.69042e-06
1.34791e-07
0.000452338
5.2209e-08
0.00133008
-0.000190245
4.1219e-08
-0.000455976
0.00112724
-0.000464363
0.00114598
0.00377694
-5.48771e-06
3.17927e-07
-3.67602e-05
3.89485e-07
2.29275e-07
2.62232e-08
1.02277e-07
-0.000382937
8.84384e-08
5.53109e-07
1.18379e-07
2.84753e-07
0.00240763
1.50079e-07
-7.74479e-05
0.00014135
9.49115e-08
-0.000394573
1.00129e-05
3.90687e-07
0.000201793
0.00315132
1.49575e-08
-3.90507e-06
1.02975e-07
-0.00049068
-3.78718e-07
1.52965e-07
-5.52457e-05
1.46939e-07
-0.000169057
-0.000306924
4.49328e-07
0.000451004
4.64672e-07
5.75576e-08
-0.000238687
6.57226e-08
3.03273e-07
0.00149951
-3.44257e-08
1.29065e-07
3.07595e-07
3.22579e-05
1.61556e-07
-0.000166601
0.00342264
5.38582e-07
0.000327691
-9.52984e-08
1.69654e-07
3.2139e-07
-0.000226343
-0.000263824
0.000398311
5.10744e-08
1.50498e-07
3.41495e-07
2.15331e-07
-0.000342124
3.02833e-07
-0.000201396
3.46662e-07
-3.20826e-05
1.05941e-07
5.31131e-07
0.000484156
1.49157e-05
-0.000378103
0.000502396
0.000464304
-0.00027734
3.20843e-08
0.00203587
0.00176984
-0.000277063
5.64689e-08
0.00343851
-0.000244847
0.000706341
-0.00033056
0.00330344
-0.000204577
-0.000332867
7.68032e-08
0.00334423
9.93614e-08
4.81685e-08
-7.8676e-08
5.01546e-08
-2.84146e-07
0.000388442
6.46236e-08
0.000667419
0.00120296
8.38677e-08
2.63544e-07
2.26645e-07
5.44306e-08
-0.000140456
1.91886e-07
2.84209e-07
-0.000484084
0.00290347
8.6884e-08
9.37544e-06
1.52301e-07
6.44232e-07
0.000396005
-0.000359831
0.000420724
4.57691e-08
-0.000333655
3.42665e-07
3.76303e-08
5.88819e-08
-0.000213589
0.00231271
0.00357316
0.00282707
8.72975e-08
3.09828e-07
6.16257e-08
7.18581e-08
5.52651e-08
0.000184384
0.00150814
1.55846e-07
0.000366325
-0.000170878
-4.03821e-06
0.000493868
1.04099e-07
1.02712e-07
3.81739e-06
7.85959e-08
1.07625e-07
1.02639e-07
9.23408e-08
0.000446549
-0.00037104
1.92855e-07
-3.05859e-08
1.3619e-07
2.68333e-07
0.000500916
-0.000438846
-0.000299721
3.32621e-07
-5.267e-08
-0.000320105
8.96867e-07
-7.17144e-05
2.6311e-07
0.000840173
-0.00040995
-0.000481435
1.62765e-07
0.00161876
1.54008e-07
3.39931e-07
1.25556e-07
5.98137e-08
-0.000351844
-0.000189134
-0.00016071
0.000725041
8.17832e-08
4.93948e-08
7.70341e-08
1.10979e-07
2.79248e-07
1.68411e-08
-0.000393048
-0.00051683
1.35467e-06
6.65792e-05
2.02637e-07
1.27097e-07
1.13236e-07
-0.000462492
-7.45244e-07
3.28399e-07
-5.80388e-05
1.04197e-05
0.000566493
-0.00033469
-1.74805e-06
0.000435038
1.57267e-07
0.000401026
0.00326018
0.000656226
2.94806e-05
3.40424e-07
1.56128e-07
1.00493e-07
0.00059674
0.000331681
1.30962e-07
0.000251902
0.00340952
0.000184599
1.45715e-07
-3.59951e-05
-3.99045e-07
6.17728e-08
-3.78208e-05
7.43414e-07
9.67935e-08
1.63806e-07
1.38318e-07
1.94786e-07
0.000241924
0.00369155
2.01037e-07
2.07411e-07
6.05885e-08
2.50016e-07
3.9211e-07
-0.000555839
-2.24352e-05
4.8902e-06
0.000652741
1.20314e-07
-0.000373819
4.78703e-08
3.98484e-07
1.71244e-07
-0.000353596
3.07513e-07
-0.000501823
0.000484537
1.39754e-07
1.49812e-06
-3.50039e-05
0.000939035
0.00077496
0.000464752
3.74404e-07
-1.14453e-07
2.50789e-07
-0.000438538
-0.000220226
2.47633e-07