/*--------------------------------*- C++ -*----------------------------------*\
| =========                 |                                                 |
| \\      /  F ield         | OpenFOAM: The Open Source CFD Toolbox           |
|  \\    /   O peration     | Version:  v2012                                 |
|   \\  /    A nd           | Website:  www.openfoam.com                      |
|    \\/     M anipulation  |                                                 |
\*---------------------------------------------------------------------------*/
FoamFile
{
    version     2.0;
    format      ascii;
    class       surfaceVectorField;
    location    "1000";
    object      ddtCorrDdt0(Uf);
}
// * * * * * * * * * * * * * * * * * * * * * * * * * * * * * * * * * * * * * //

dimensions      [0 1 -2 0 0 0 0];


internalField   nonuniform List<vector> 
20673
(
(-0.00287256 -0.00228503 3.01632e-18)
(-0.00294755 -0.0022619 5.87746e-18)
(-0.00287263 -0.00220903 1.58387e-18)
(-0.00107471 -0.000906517 -2.44872e-19)
(-0.0010453 -0.000904947 -2.32079e-19)
(-0.00106869 -0.000940915 -3.15641e-19)
(0.0105258 -0.000884552 1.45777e-17)
(0.0106278 -0.000906441 1.66932e-17)
(0.0107387 -0.000855319 7.94182e-18)
(-0.00164782 0.00163343 -2.29981e-18)
(-0.00167004 0.00156369 7.58733e-18)
(-0.00159942 0.00158241 6.72043e-18)
(-2.62232e-05 -0.0004759 -4.92034e-19)
(-2.27117e-05 -0.000477896 1.64887e-18)
(-2.68469e-05 -0.000504169 -3.94216e-18)
(-4.12922e-05 -0.00463306 1.51821e-18)
(-6.42728e-05 -0.00470649 1.19067e-16)
(-0.00011688 -0.00465337 -2.79883e-17)
(0.010648 -0.000760257 -2.96427e-18)
(0.0106351 -0.000761572 -4.90465e-18)
(0.0107173 -0.000726868 -9.367e-18)
(0.0106596 -0.00105144 1.66614e-18)
(0.0104638 -0.00105821 5.44799e-18)
(0.0105152 -0.00108335 8.29662e-18)
(0.00863251 -0.00108102 1.4611e-17)
(0.00892462 -0.00134605 1.84293e-17)
(0.00811546 -0.00168238 1.07844e-17)
(-0.00345388 -0.00277113 1.01385e-17)
(-0.00354526 -0.00279533 -3.8683e-17)
(-0.0034873 -0.00285939 -9.85164e-18)
(0.00789195 0.00373851 1.21434e-17)
(0.00896139 0.00423828 2.04257e-17)
(0.0115662 0.00452303 2.85522e-17)
(-0.00496413 0.00350074 4.24997e-18)
(-0.00506645 0.00356529 2.25786e-17)
(-0.0050212 0.00341894 3.34541e-18)
(-0.00169692 0.00166038 -1.03837e-17)
(0.00807491 -0.000623359 1.32812e-17)
(0.00991796 -0.000743818 -2.17066e-17)
(0.00787466 -0.000648701 -1.63353e-17)
(-0.00105291 -0.00214565 2.22119e-18)
(-0.00100631 -0.00216333 4.86931e-18)
(-0.00100811 -0.00209847 3.36304e-18)
(-0.00123546 -0.00194887 2.98799e-18)
(-0.00118486 -0.00193758 -1.75611e-18)
(-0.00121581 -0.00188785 7.63691e-19)
(-0.00102382 -0.00109882 -4.3414e-19)
(-0.00104405 -0.00107795 -6.37974e-20)
(-0.00100738 -0.00106615 -2.29661e-20)
(-0.00472399 -0.000611299 2.01596e-18)
(-0.00469928 -0.000683137 -1.0021e-17)
(-0.00479137 -0.000641474 8.83151e-18)
(-0.00492262 0.00363151 -3.19063e-18)
(-0.00484004 0.00347649 -2.24198e-17)
(-6.76701e-05 -0.00016314 -2.40613e-19)
(-6.60822e-05 -0.00015442 -3.70971e-19)
(-5.96067e-05 -0.000151268 -8.06029e-19)
(-2.04173e-06 -5.57187e-05 9.14277e-19)
(-3.01583e-06 -7.34012e-05 -8.73199e-19)
(-1.97962e-06 -5.41505e-05 -2.33138e-18)
(0.0106664 -0.00069683 1.02415e-17)
(0.0106315 -0.000766235 -6.9801e-19)
(-8.88191e-05 -0.000295137 -7.06921e-19)
(-9.76496e-05 -0.000311682 -8.31384e-19)
(-9.68157e-05 -0.000300242 4.52424e-19)
(0.0108446 -0.00103568 -5.9334e-18)
(0.0108841 -0.00105104 -3.91701e-18)
(-0.000195781 -0.000724417 -1.19165e-18)
(-0.000193103 -0.000735488 2.75228e-18)
(-0.000208711 -0.00074529 -4.62377e-18)
(0.0109416 -0.000481735 -2.85018e-17)
(0.0109547 -0.000493695 6.87679e-18)
(0.0109388 -0.000531047 -9.37127e-18)
(-7.77674e-05 -0.00311672 7.05783e-18)
(-8.42319e-05 -0.00316196 -3.06202e-18)
(-5.41811e-05 -0.00313954 -3.11476e-17)
(-0.000344775 -0.00338756 2.68134e-17)
(-0.000371837 -0.00342996 2.90363e-17)
(-0.000336042 -0.00345342 -9.39853e-18)
(-0.000667613 -0.00491405 3.87216e-19)
(-0.000748992 -0.00501373 4.26548e-18)
(-0.00064795 -0.00510739 -2.4641e-18)
(-0.00464525 -0.00239852 -4.50986e-18)
(-0.0046813 -0.00234116 7.26887e-18)
(-0.00474277 -0.00239869 1.53356e-17)
(-0.00321934 -0.0021536 -1.41493e-18)
(-0.00315257 -0.00218657 -4.49484e-19)
(-0.00314782 -0.00211101 -4.40431e-18)
(-0.00227518 -0.00168541 -9.53283e-19)
(-0.00222103 -0.00169889 7.79334e-18)
(-0.00222559 -0.00163889 4.57883e-18)
(-0.000278616 -0.00288133 -6.73244e-18)
(-0.000283862 -0.00292661 1.86997e-17)
(-0.000244324 -0.00290356 -1.04953e-17)
(6.23725e-05 -0.00222402 -7.07563e-18)
(8.31501e-05 -0.002191 1.98504e-17)
(5.32528e-05 -0.00218162 4.26804e-18)
(-0.000140637 -0.000794538 1.51014e-18)
(-0.000148379 -0.000819923 -1.87825e-18)
(-0.000156543 -0.000800881 -1.32264e-18)
(0.015248 0.00107407 -8.28459e-19)
(0.0153412 0.00101633 2.14283e-17)
(0.0149546 0.000749272 2.91216e-17)
(-8.11339e-05 -0.000287606 8.61441e-19)
(-8.27764e-05 -0.000278058 -1.09754e-18)
(0.00941688 -0.000960143 -2.85186e-18)
(0.00946444 -0.000929885 -1.18891e-17)
(0.00951375 -0.000939549 -7.76057e-18)
(-0.0020485 0.00194986 3.1626e-18)
(-0.00210536 0.00201018 -1.26007e-17)
(0.0124715 -0.000377158 -4.00838e-18)
(0.0126449 -0.000427936 -3.67877e-17)
(0.0124526 -0.00037828 -2.13375e-17)
(-0.000225446 -2.12145e-05 3.61601e-19)
(-0.000233797 -2.0236e-05 1.02984e-21)
(-0.000222863 -1.27611e-05 -9.74312e-19)
(-5.30154e-07 -3.42633e-05 -4.7087e-19)
(-3.06075e-07 -1.63808e-05 4.22757e-19)
(-2.48475e-08 -1.70162e-05 6.32393e-19)
(-0.000366222 0.000117867 2.48423e-19)
(-0.000369769 0.000104228 6.08653e-19)
(-0.000354408 0.000107966 -8.84564e-19)
(-0.000434897 -0.00379462 -1.19375e-17)
(-0.000479842 -0.00380574 3.35853e-17)
(-0.000447143 -0.00387987 9.4657e-18)
(-0.00128219 -0.000272759 6.76043e-19)
(-0.00131729 -0.000286267 8.1948e-19)
(-0.0013168 -0.000256578 2.80542e-18)
(-5.07007e-05 -0.0024118 3.61503e-18)
(-4.08156e-06 -0.00241741 -1.08956e-17)
(-2.72557e-05 -0.00236688 5.25451e-18)
(-0.00476592 -0.000526294 3.18823e-17)
(-0.00466109 -0.000566399 -7.55593e-18)
(-0.00564071 6.3794e-05 -6.38294e-18)
(-0.00554703 5.84316e-05 4.16294e-18)
(-0.00561278 0.000153435 7.51735e-18)
(-0.000606443 -0.00572938 1.94812e-17)
(-0.000513912 -0.00562733 -2.44741e-17)
(-0.000463246 -0.00552078 -8.04797e-18)
(-9.78597e-05 -2.04203e-05 -2.30516e-19)
(-0.000106089 -1.8583e-05 -1.03348e-19)
(-0.0001046 -2.86294e-05 1.92647e-19)
(-0.00300928 0.000239366 -1.04175e-18)
(-0.00304383 0.000195416 2.09862e-18)
(-0.00307653 0.000258452 4.69978e-18)
(-7.65924e-05 -0.00141228 2.6416e-18)
(-7.06516e-05 -0.00142447 7.98505e-18)
(-7.94865e-05 -0.00144515 1.35422e-17)
(-0.000507829 -0.00564727 -1.43931e-17)
(-0.000454628 -0.00624757 5.18471e-17)
(4.09494e-05 -0.00225622 -4.9058e-18)
(7.38992e-05 -0.00226573 1.52964e-17)
(-0.0010402 -0.00113347 3.66508e-19)
(-0.000998708 -0.00111342 -6.83455e-19)
(-0.0028622 -0.000515767 -8.3566e-18)
(-0.00282993 -0.000572942 -1.02918e-17)
(-0.00291359 -0.00057154 -2.05674e-17)
(0.00640643 0.00374479 7.57264e-18)
(-0.000968859 0.00345685 -2.74815e-17)
(-0.000478421 -0.00102715 1.18919e-18)
(-0.00045474 -0.00100114 3.23236e-19)
(-0.000479511 -0.00100109 5.78968e-19)
(-0.00240461 -0.00066921 -4.87329e-18)
(-0.00245929 -0.000690981 3.3401e-18)
(-0.00240471 -0.000740767 -6.4618e-19)
(-0.00124692 -0.000288518 1.73768e-19)
(-0.00124285 -0.0002582 2.48324e-18)
(0.0143405 0.000681241 1.04865e-17)
(0.0115906 0.000210288 -2.86106e-18)
(0.0126543 0.000422303 6.04772e-18)
(-0.00109361 -0.000879869 -1.15988e-18)
(-0.00111568 -0.000919652 1.04964e-18)
(0.00812173 -0.000533708 2.07051e-17)
(-6.96475e-05 -0.000170829 3.54946e-19)
(-7.59218e-05 -0.000174092 4.2432e-19)
(-0.00028446 -0.00478682 -4.87374e-17)
(-0.000244022 -0.00448883 3.75115e-17)
(0.0189361 0.00522945 3.11315e-17)
(0.0195005 0.0051352 -1.85151e-17)
(0.0185466 0.00506643 -1.59837e-19)
(1.49499e-05 -0.000496317 1.10837e-18)
(1.39807e-05 -0.000521735 -3.42857e-18)
(3.15822e-05 -0.000841681 -2.06375e-18)
(3.33275e-05 -0.000814711 2.32539e-18)
(-0.00775679 0.00124715 8.36463e-18)
(-0.0080512 -0.000288848 -1.05772e-17)
(0.00137395 0.000277949 3.15712e-17)
(-0.00233458 -0.00237841 -1.58809e-18)
(-0.00241333 -0.00238506 -7.09785e-18)
(-0.00235998 -0.00246326 -9.84658e-18)
(-2.21666e-05 -0.000448889 1.50111e-18)
(-2.87246e-05 -0.00047108 -3.30521e-18)
(0.00922493 -0.00118285 -2.23726e-17)
(0.00900097 -0.00124857 6.08886e-18)
(0.0060344 -0.000977895 5.90728e-18)
(0.00606953 -0.00102675 -2.22349e-18)
(0.00597576 -0.00101909 5.33671e-18)
(-0.000202417 -0.000710868 9.57196e-19)
(-0.000185626 -0.000696625 -3.83705e-19)
(-0.000533793 -0.00562249 3.73712e-18)
(-0.000503788 -0.00540995 -2.05473e-19)
(-0.000591866 -0.00556495 4.7521e-17)
(-0.00492009 0.00466652 -1.05262e-17)
(-0.0047728 0.00462698 5.18932e-18)
(-0.00485342 0.00451436 -5.66976e-18)
(0.00734953 -0.000838178 -2.05393e-17)
(0.00729337 -0.000873916 -6.1574e-18)
(0.00739758 -0.000876105 -2.91333e-17)
(-0.00180555 -0.000203065 1.05089e-18)
(-0.0018552 -0.000213812 8.60656e-19)
(-0.00182045 -0.000254423 2.34454e-18)
(0.0111384 -0.000245623 6.55986e-18)
(0.0111333 -0.000275789 -1.24929e-19)
(0.0110996 -0.000215545 -3.43767e-17)
(-6.41177e-06 -0.000105927 1.08899e-19)
(-8.01053e-06 -0.000125604 2.68575e-18)
(-7.94983e-06 -0.000122989 -6.35541e-19)
(-1.71897e-05 -0.000135302 -9.89642e-19)
(-1.83236e-05 -0.000146727 -1.28775e-20)
(-1.56922e-05 -0.000130296 1.75058e-18)
(1.11789e-05 -0.000473009 2.64155e-18)
(-0.000154155 -0.00466507 -4.36507e-17)
(-8.53984e-05 -0.00460447 1.28876e-17)
(-6.49828e-05 -0.00466478 1.44844e-17)
(0.00938866 -0.00100675 -5.93573e-18)
(0.00932352 -0.00100414 1.15506e-17)
(0.00341409 -0.00114331 3.46531e-19)
(0.00290087 -0.0011501 2.62674e-17)
(0.00312174 -0.00114372 1.96685e-17)
(-0.00175314 -0.000198635 -3.9831e-18)
(-0.0017866 -0.000159909 4.93636e-18)
(-3.15355e-05 -0.000168413 8.69332e-20)
(-3.1991e-05 -0.000162748 3.79786e-19)
(-2.62748e-05 -0.000152285 -1.86251e-18)
(0.0172529 0.00518986 2.83002e-17)
(0.0120648 0.00223711 1.38366e-17)
(-0.00295802 0.000287738 1.47354e-18)
(-0.00293288 0.000217528 -2.21448e-18)
(-0.000363233 0.000128921 5.13868e-18)
(-0.000378972 0.000125664 1.92898e-18)
(0.0071142 -0.001064 9.56298e-19)
(0.00709327 -0.00101628 -2.23124e-17)
(0.00718426 -0.00103492 -1.068e-17)
(-0.00418394 -0.00271895 -1.27169e-18)
(-0.00408808 -0.00271421 -1.91272e-18)
(-0.00411144 -0.00278286 9.23675e-19)
(-0.000857785 -0.000445929 5.6035e-19)
(-0.000855511 -0.000418817 -1.40099e-18)
(-0.00082928 -0.000430557 4.89299e-19)
(-0.000638396 -0.00165317 -5.20087e-18)
(-0.000639577 -0.00169063 2.02434e-18)
(-0.00066874 -0.00167599 6.05329e-19)
(0.0126382 0.00268308 -4.77162e-18)
(0.0187946 0.00639604 -4.00001e-17)
(-7.28158e-05 -0.00463915 7.07153e-17)
(-3.6694e-05 -0.0045439 -1.2138e-16)
(-1.35326e-06 -0.00464701 -6.56453e-17)
(-0.0066647 0.00154883 -1.00266e-17)
(-0.00660497 0.00136065 -2.02397e-18)
(-0.00658225 0.0015198 7.00645e-18)
(-0.00530995 -6.75401e-05 1.12076e-17)
(-0.00536354 -0.000135146 1.63834e-17)
(-0.00527027 -0.0001518 2.04474e-17)
(0.00148349 0.00477285 -6.51241e-18)
(0.00604276 0.00528012 2.26507e-18)
(0.00414704 0.00511698 5.31335e-18)
(-0.000182297 -0.00392716 5.16097e-19)
(-0.000179014 -0.0038563 6.71483e-18)
(-0.000197938 -0.00390228 4.15461e-17)
(-0.000304048 -0.000107403 -4.36883e-20)
(-0.000314162 -0.000106044 -8.08025e-19)
(-0.000314242 -0.000116271 -8.46513e-19)
(6.97667e-05 -0.00281176 -4.79459e-18)
(4.99605e-05 -0.00270441 -1.80592e-17)
(0.0001487 -0.00274365 -3.59976e-17)
(-0.000362778 -0.00382703 -2.41139e-17)
(-0.000385959 -0.00373286 -1.59571e-17)
(-0.00204529 3.38198e-05 5.52506e-18)
(-0.00209173 4.90417e-05 -7.66277e-19)
(-0.00204884 9.13886e-05 -3.12515e-18)
(-0.000505056 -0.000215272 2.01323e-19)
(-0.000499191 -0.000200062 2.07151e-18)
(-0.000519733 -0.000206732 2.94498e-19)
(0.00880707 -0.00140753 1.0016e-17)
(0.00871028 -0.0013869 8.60214e-18)
(0.00937063 -0.00136699 2.21289e-17)
(-0.00103512 -0.00483955 1.4805e-17)
(-0.000873419 -0.00490394 -8.79347e-18)
(-0.00107536 -0.00501886 -7.749e-19)
(-0.00571752 7.27849e-05 3.86844e-18)
(-0.00567388 -1.68704e-06 -2.98294e-18)
(-0.00106617 -0.00105388 -1.20748e-19)
(-0.00108842 -0.00109005 -8.03063e-20)
(-0.00315456 -0.00233761 5.24571e-18)
(-0.00308565 -0.00236263 8.50329e-18)
(-0.00316351 -0.00241309 -1.1719e-18)
(0.00360076 -0.000846309 -2.174e-17)
(0.00345766 -0.00084524 8.98005e-18)
(0.00355175 -0.000860434 -1.95039e-17)
(0.0123101 -0.000374752 2.03264e-17)
(0.0124634 -0.000392592 2.4324e-17)
(-0.00554387 0.00381554 3.36452e-18)
(-0.00554123 0.00388823 -3.33439e-18)
(-0.00557041 0.00382514 2.23575e-18)
(0.00882806 -0.00138634 -6.20588e-18)
(0.00832697 -0.0014087 3.4358e-18)
(-2.90107e-05 -0.00170135 -1.52676e-18)
(-4.76965e-05 -0.00173082 4.64824e-18)
(-1.57243e-05 -0.00173944 -5.37169e-18)
(0.000324983 -0.0057407 -3.03857e-17)
(0.000587896 -0.00556093 4.52473e-18)
(0.00037513 -0.00573078 -4.46153e-17)
(-0.000205578 -0.000508149 -7.31709e-19)
(-0.000221004 -0.00052652 -6.41403e-19)
(-0.000209637 -0.000528166 7.23456e-19)
(-0.000217849 -0.00526406 -4.67703e-17)
(-0.000250331 -0.00513469 3.91783e-18)
(-0.000311016 -0.00521435 -6.44575e-17)
(0.0117431 -0.0006622 -4.1968e-18)
(0.0116953 -0.000710689 2.37705e-17)
(0.0115378 -0.000616891 1.00234e-17)
(-2.9998e-05 -0.00223731 -9.51327e-19)
(-5.42782e-05 -0.00227389 -4.42275e-18)
(-6.65904e-05 -0.00222226 -1.39428e-17)
(-2.2809e-06 -5.13451e-05 -3.76531e-19)
(-1.77306e-06 -5.24721e-05 6.42079e-19)
(-0.00798757 0.000572695 -2.96943e-19)
(-0.0107181 0.000755416 1.5761e-18)
(0.0111173 -0.00065624 1.20371e-17)
(0.0110066 -0.000673105 -1.04294e-18)
(0.0109659 -0.0006901 -1.00269e-17)
(-0.000317948 -0.00335022 -2.95174e-18)
(-0.000354771 -0.00333522 -2.27167e-17)
(-0.000142648 -1.84386e-05 2.21656e-19)
(-0.000148428 -2.55584e-05 -4.36958e-19)
(-0.00015094 -1.57299e-05 -2.07177e-21)
(-0.000605942 -0.00162281 -1.42861e-18)
(-0.000637913 -0.00160565 6.6117e-18)
(-0.00120348 -0.000409693 2.67274e-18)
(-0.00123793 -0.000427559 -6.42748e-19)
(-0.0012065 -0.000443362 2.89707e-18)
(-0.000134711 -1.87425e-05 1.02368e-20)
(-0.000131851 -1.04144e-05 -6.45242e-19)
(-0.000327535 3.29599e-05 -1.22635e-18)
(-0.000321227 3.82825e-05 8.62606e-19)
(-0.000318669 2.93954e-05 4.75236e-19)
(-2.3815e-05 -0.00475244 1.33903e-16)
(0.0108685 -0.000714981 1.10138e-18)
(0.0108634 -0.000721544 2.3819e-17)
(0.0109634 -0.000707057 5.42191e-18)
(-1.00916e-05 -0.00167314 -1.37397e-18)
(-3.49109e-05 -0.00166474 8.28242e-18)
(-0.00134885 -0.000297901 -5.09147e-19)
(-0.00131805 -0.000315252 -3.65436e-18)
(-1.71856e-06 -5.65494e-05 2.75539e-18)
(-1.21427e-06 -3.74887e-05 2.5838e-18)
(0.0214763 0.000680152 6.702e-18)
(0.0217001 0.000732431 -2.20756e-17)
(0.0212415 0.000503343 3.36012e-18)
(0.0110687 -0.00100503 2.77839e-18)
(0.0107933 -0.00101937 -3.08868e-18)
(-0.002869 -0.00235455 -5.04796e-18)
(-0.00280207 -0.00230105 -6.89498e-18)
(-0.00014473 -0.00402153 -3.33606e-18)
(-0.000190584 -0.00392608 7.55067e-19)
(7.67773e-06 -0.000521941 -1.01276e-17)
(1.2226e-05 -0.000549057 -7.30349e-18)
(9.01539e-06 -0.00224894 7.11615e-18)
(-4.75167e-06 -0.00220341 -1.61947e-18)
(0.0158075 0.00140873 -1.07485e-18)
(0.0155587 0.0014717 1.9725e-17)
(0.0153312 0.00179675 1.02621e-19)
(-0.000726694 -9.68047e-05 -1.59842e-18)
(-0.00073535 -0.00011459 -2.6069e-18)
(-0.000707616 -0.000110321 1.92949e-18)
(-0.000203843 -0.0015314 2.76055e-18)
(-0.000221354 -0.00156153 3.36339e-18)
(-0.000192053 -0.00155201 -2.31436e-18)
(-0.000331227 -0.00390363 1.91426e-17)
(-0.000309438 -0.00395773 -2.54003e-19)
(-0.000360763 -0.00396075 4.61857e-17)
(2.36155e-05 -0.000843471 1.29404e-18)
(3.22283e-05 -0.000866252 -5.86167e-18)
(0.0110977 -0.00119873 -1.97381e-19)
(0.0103411 -0.00120041 4.57986e-18)
(0.0110235 -0.00122129 2.72213e-18)
(-0.0008643 -0.00519302 1.6065e-18)
(-0.000911335 -0.00514147 4.01228e-18)
(-0.000842179 -0.00505829 1.99942e-18)
(-9.7871e-05 -0.00139643 -1.08713e-17)
(-7.47726e-05 -0.00137603 -1.03861e-17)
(-0.000649604 -5.69835e-05 -2.33855e-18)
(-0.000662219 -7.34069e-05 8.86983e-20)
(-0.00063548 -7.03872e-05 -1.4646e-18)
(-0.00219566 -0.00181519 3.07423e-18)
(-0.002131 -0.00182308 -2.49771e-19)
(-0.002181 -0.00188785 -9.44465e-19)
(-0.00522586 0.00122978 -2.24583e-18)
(-0.00533133 0.00124153 1.68251e-17)
(-0.00523387 0.00113547 -1.75072e-17)
(0.000258186 -0.00573758 2.95476e-18)
(0.000178606 -0.00581257 -1.27343e-17)
(-0.00612782 0.00254891 -2.66138e-17)
(-0.00625887 0.00249094 -6.73196e-18)
(-0.00624023 0.00264818 -3.1537e-18)
(-0.00193054 -0.00293687 2.14676e-19)
(-0.00195351 -0.00289145 2.63039e-19)
(-0.00200072 -0.00290385 -1.33831e-18)
(-0.00260506 -0.00115499 -3.44245e-18)
(-0.00255376 -0.00119546 9.72695e-18)
(-0.00253737 -0.00113036 -1.93041e-18)
(0.00293772 7.40463e-05 2.0199e-17)
(0.00245931 0.000264096 9.11758e-19)
(0.00180942 5.66476e-05 -2.96155e-17)
(-0.0022596 -0.00238239 3.35856e-18)
(-0.00229431 -0.0023156 4.82966e-18)
(0.0169639 -0.000373517 -6.17342e-18)
(0.0177453 -0.000162514 -2.68893e-17)
(0.017794 -6.47916e-05 -1.90097e-17)
(0.00716688 -0.000810892 3.29116e-17)
(0.00725555 -0.000826262 5.83504e-19)
(0.0220821 0.00117025 1.54537e-18)
(0.021003 0.000715461 2.39888e-17)
(-0.000376324 -0.00196826 -8.5243e-18)
(-0.000386617 -0.0020093 -2.03263e-17)
(-0.000350994 -0.00199199 5.07401e-18)
(0.000188935 -0.00311431 2.26677e-19)
(0.000162848 -0.00311784 -2.91486e-17)
(0.000174576 -0.00316438 2.13021e-17)
(-8.5569e-06 -0.000110158 1.82325e-18)
(-8.66265e-06 -0.000104127 8.8365e-19)
(-5.12716e-06 -9.00518e-05 1.70663e-18)
(-0.00670163 0.00179694 1.47517e-17)
(-0.00686459 0.00158055 1.73104e-17)
(-0.0055527 0.00371947 -1.63596e-17)
(-0.00544917 0.00376439 -2.72348e-17)
(-0.00250163 0.0043133 2.73411e-17)
(-0.000672933 0.00463906 -1.67546e-17)
(-0.00204274 -1.33477e-05 1.48188e-18)
(-0.00200052 2.33649e-05 5.15842e-18)
(-0.00532328 0.000523643 -5.52355e-18)
(-0.0053344 0.000610557 -1.85411e-17)
(-0.00542206 0.000555967 -1.67159e-17)
(-0.00104348 -0.000231849 -1.49353e-18)
(-0.00107329 -0.000240419 -4.48237e-19)
(-0.00104824 -0.000260557 -2.94046e-18)
(0.00012165 -0.00282582 1.22083e-17)
(6.82859e-05 -0.00286857 1.20608e-17)
(-0.00226129 -0.00290288 -1.74129e-18)
(-0.00197124 -0.00287575 1.95217e-20)
(-0.0021903 -0.00264007 3.917e-19)
(0.00278273 -0.000761773 -1.59493e-17)
(0.00267449 -0.00077653 3.47154e-17)
(0.00286061 -0.000744911 1.96219e-17)
(-0.0055934 0.0042538 5.32075e-20)
(-0.00558713 0.00427153 -1.35877e-17)
(-0.00565105 0.00415147 4.57426e-18)
(-0.00110783 -0.00127446 3.33396e-19)
(-0.00112368 -0.00129139 -3.17196e-19)
(-0.00110451 -0.00128486 8.58699e-19)
(0.0122153 -0.00125698 2.92349e-17)
(0.012137 -0.00125024 9.4332e-19)
(0.0132783 -0.00114259 -2.74224e-18)
(-0.00190931 -0.00311193 2.67838e-19)
(-0.00189262 -0.00316588 -5.71498e-19)
(-0.00197163 -0.0031616 1.15295e-18)
(0.010904 -0.000711131 -1.04314e-17)
(0.0107959 -0.000734394 9.91459e-19)
(-0.000125543 -0.00541489 2.48586e-17)
(-0.000332838 -0.00542192 -1.09755e-18)
(0.0112588 -0.00128765 -5.8486e-19)
(0.0122042 -0.00114889 6.84284e-19)
(-0.000646857 -0.000650738 4.53497e-20)
(-0.000673915 -0.0006601 4.91478e-21)
(-0.000659353 -0.000677563 3.32182e-20)
(-0.00426649 -0.00273757 1.24814e-17)
(-0.00425213 -0.00266644 5.61582e-18)
(-0.00330041 -0.0021973 -4.98e-18)
(-0.00329656 -0.00212084 -2.31578e-19)
(-0.000743001 -8.15201e-05 7.34654e-19)
(-0.00071531 -7.82243e-05 -1.5997e-18)
(-3.27165e-05 -0.000175058 1.72186e-18)
(-3.79065e-05 -0.000185242 1.5679e-18)
(-0.000922534 -0.00255434 -4.45144e-18)
(-0.000873811 -0.00255168 -2.11197e-18)
(-0.000901828 -0.00250828 1.08181e-18)
(0.0109698 -0.000443829 1.45416e-18)
(0.0109547 -0.000463657 -1.13466e-17)
(-0.00449919 -0.00329424 1.94427e-17)
(-0.00467083 -0.00294609 3.41633e-17)
(-0.00506979 -0.00311653 -4.51119e-18)
(0.00346923 3.98687e-05 4.59264e-17)
(0.00514613 0.000458603 -2.97729e-18)
(-0.00375288 -0.000809531 8.51739e-18)
(-0.00371203 -0.000868534 -1.35193e-17)
(-0.0037994 -0.000862701 -2.94391e-18)
(-0.00647495 0.00376363 -7.66021e-18)
(-0.00633955 0.0037745 2.49958e-18)
(-0.00469745 0.00398995 -2.09606e-18)
(0.0170832 0.00120374 6.04474e-19)
(0.0173183 0.00100405 4.52176e-18)
(0.0175006 0.000976239 1.89266e-18)
(0.00406994 -0.00114803 3.92093e-19)
(0.00379907 -0.00114749 -2.73136e-17)
(-0.00471874 -0.00341034 2.50496e-18)
(-0.00486981 -0.00320627 -5.43748e-18)
(-0.00499927 -0.00344952 9.82205e-18)
(-8.53707e-05 -0.000364623 1.98908e-18)
(-7.7087e-05 -0.00034472 -5.74353e-20)
(-7.57801e-05 -0.000352925 2.89405e-19)
(-5.12019e-05 -0.00392845 -2.34604e-17)
(-0.000142497 -0.00394015 2.98957e-17)
(-7.92803e-05 -0.00403056 3.40158e-17)
(-6.34186e-05 -0.00306686 2.21503e-18)
(-0.00010972 -0.00307805 -1.02035e-17)
(-0.000251043 -6.64729e-06 -8.4195e-20)
(-0.000244484 -6.61528e-06 -1.22273e-18)
(-0.000858414 -0.000467623 1.51135e-19)
(-0.000885832 -0.000457004 -1.41004e-18)
(-0.00116993 -0.00482572 -3.89683e-18)
(-0.00117621 -0.00460687 -5.74426e-18)
(-0.00139354 -0.00472341 9.05065e-19)
(0.00663146 -0.000206598 1.49778e-17)
(0.00816532 0.000203774 8.62641e-18)
(0.0135995 0.00389518 -2.11286e-17)
(-0.00275119 0.00109109 5.60166e-18)
(-0.00281304 0.00113026 -2.19172e-18)
(-0.00281899 0.00105334 7.2109e-19)
(-9.28226e-05 -2.47346e-05 3.0907e-20)
(-9.21157e-05 -1.53686e-05 6.69393e-20)
(-0.00521983 0.000844486 -5.79045e-18)
(-0.00511197 0.000821784 -7.6643e-18)
(-0.00520486 0.000728272 5.37102e-19)
(-0.00523263 0.00134353 9.67953e-18)
(-0.00512914 0.0012425 -1.22376e-17)
(0.00609932 -0.0009325 -2.65842e-17)
(0.00599941 -0.000928101 -7.42586e-18)
(0.0210885 0.000905014 4.48866e-19)
(0.0210096 0.000949829 -3.14628e-17)
(0.0212084 0.00119807 -6.60185e-18)
(-0.000132551 -0.000772367 5.85663e-19)
(-0.000127909 -0.00079235 2.25602e-18)
(-0.000475173 -0.00105345 -2.71867e-19)
(-0.000501081 -0.00105177 3.01792e-18)
(-0.00525547 2.95151e-06 -1.71295e-17)
(-0.00535165 2.54214e-05 -9.2889e-18)
(0.0108962 -0.000704294 -1.19028e-17)
(0.0108822 -0.00064414 -2.94374e-18)
(0.0108782 -0.000699845 3.18138e-17)
(-0.000201699 -0.00148625 2.99104e-18)
(-0.000232436 -0.00151949 -9.91803e-19)
(0.010611 -0.000778033 -4.58088e-19)
(0.0105756 -0.000811619 2.17188e-18)
(0.0106605 -0.000774701 4.7462e-19)
(0.0059087 -0.000839139 -9.24842e-19)
(0.00597548 -0.000883075 1.26375e-18)
(0.00602239 -0.000831025 1.01121e-18)
(-0.00619187 0.00384074 -1.09131e-18)
(-0.00639563 0.00382127 1.30101e-17)
(-0.00049315 -0.000221472 -5.25223e-19)
(-0.000512287 -0.000227797 -1.44569e-18)
(-0.000412597 -0.00454962 -6.26143e-18)
(-0.000428325 -0.00458548 -3.90171e-17)
(-0.000441586 -0.00466605 -4.34621e-17)
(-0.00506779 0.000192752 -3.73153e-18)
(-0.00513419 0.000131876 -2.96049e-17)
(-0.00503516 0.000103729 -1.3765e-17)
(0.00347091 -0.000817315 -2.71647e-17)
(0.00357601 -0.000848857 2.33227e-17)
(0.00357826 -0.000832788 5.29923e-17)
(-0.000323609 -0.000591 4.81548e-20)
(-0.000337518 -0.000589618 -7.99785e-20)
(-0.00033686 -0.000612507 1.04877e-18)
(0.0163316 0.0013103 6.96848e-19)
(0.0158603 0.00118506 7.25229e-18)
(-0.000618292 -0.000640948 6.12583e-20)
(-0.000632225 -0.000627566 -4.8972e-20)
(-0.00484729 -0.00206628 -1.6496e-17)
(-0.00482633 -0.00200333 -9.84426e-18)
(-0.00477629 -0.00205953 1.54634e-17)
(-0.000220462 -2.71716e-05 5.14045e-19)
(-0.000218161 -1.95428e-05 8.83364e-20)
(0.00880859 -0.00104461 3.76995e-19)
(0.00885479 -0.000999912 1.61105e-17)
(0.00890551 -0.00101487 7.4756e-18)
(0.00862381 -0.00137511 1.03438e-18)
(0.00852746 -0.00136116 -1.86284e-17)
(0.00915795 -0.00134012 1.26708e-17)
(-0.00125543 -0.00199368 -4.69556e-18)
(-0.0012838 -0.0019516 -2.37936e-18)
(-0.00320961 -0.00595868 -1.09694e-17)
(0.00186234 -0.00285698 8.69846e-18)
(-0.00323267 -0.00594626 9.93673e-18)
(-0.00267598 -0.00117291 1.72455e-18)
(-0.00264676 -0.0011051 -5.71838e-18)
(-0.000476596 -0.000227028 -1.4088e-20)
(-0.000472225 -0.000212084 4.28171e-19)
(0.0151853 0.00134937 -4.22283e-17)
(0.0151027 0.00110888 -2.2105e-17)
(-0.00551869 0.00434877 -7.99774e-18)
(-0.00546901 0.00421946 -1.41154e-19)
(-0.00370862 -0.000754714 6.50304e-19)
(-0.00378931 -0.000750313 -8.37628e-18)
(0.010932 -0.000912257 3.12163e-18)
(0.0107576 -0.000922441 1.05302e-18)
(0.0110312 -0.000874567 -1.10459e-17)
(0.00578467 -0.000841187 -1.51818e-17)
(0.00548046 -0.00079811 4.16772e-18)
(-0.000298808 -4.79285e-05 -5.05578e-19)
(-0.000305782 -4.59828e-05 4.52495e-19)
(-0.000299401 -4.03115e-05 -3.38635e-18)
(-0.00232573 -0.0016688 -6.09946e-18)
(-0.00231756 -0.00173038 -3.79666e-18)
(0.0070585 -0.00111086 2.113e-17)
(0.00714947 -0.00111943 -1.34678e-17)
(0.00208394 -0.00107535 -4.97355e-18)
(0.00173696 -0.00103798 9.8353e-19)
(0.00192415 -0.00103972 3.25265e-17)
(-8.61897e-06 -0.000113478 9.59106e-19)
(-1.19641e-05 -0.000129327 -1.57823e-18)
(-0.00022217 -0.000238094 4.62939e-20)
(-0.000234682 -0.000240313 -2.35848e-20)
(-0.000231353 -0.000249747 6.9401e-20)
(0.0124435 -0.000314572 1.58065e-17)
(0.0122958 -0.000307016 2.85461e-17)
(-0.00760794 0.000736885 2.47905e-17)
(-0.0072335 0.00106912 1.71822e-19)
(-0.0104767 0.000855702 8.65078e-18)
(-1.78055e-06 -4.09984e-06 -4.93598e-21)
(-8.06404e-07 -3.13861e-06 -1.57135e-19)
(-1.72975e-06 -5.15671e-06 8.27742e-20)
(0.0143459 0.00176394 1.38617e-19)
(0.0140865 0.00181505 4.70009e-17)
(0.0137127 0.00208198 3.08216e-17)
(-0.00559155 -0.00112667 -5.44023e-18)
(-0.00563943 -0.00104831 -2.1375e-18)
(-0.00553671 -0.0010491 1.31042e-17)
(0.000199808 -0.00307782 4.4784e-17)
(0.000224889 -0.00311569 6.55522e-18)
(-0.00283729 -0.00201724 -5.8329e-18)
(-0.00288886 -0.002081 1.21385e-18)
(-0.00290577 -0.00200624 -4.19603e-18)
(-9.15571e-06 -0.000121804 -1.89336e-18)
(-9.21032e-06 -0.000102762 -4.69086e-19)
(-0.00166826 -0.00325021 -9.49587e-21)
(-0.00163674 -0.00314155 9.74866e-19)
(-0.00156353 -0.00321511 -3.65181e-18)
(0.00643235 -0.000862936 3.49663e-18)
(0.00649179 -0.00085892 2.64477e-18)
(0.00621433 -0.000822197 2.55109e-19)
(-0.00106599 0.000558601 -1.7546e-18)
(-0.00105938 0.000598085 5.40886e-19)
(-0.00110595 0.000585896 -2.17961e-18)
(-0.00440144 -0.0030036 -6.42957e-18)
(-0.00430166 -0.00300682 2.18017e-17)
(-0.00435326 -0.00292735 1.38217e-17)
(-0.000184517 -0.00408774 2.52412e-18)
(-0.000223519 -0.00406064 1.08127e-17)
(-0.000240423 -0.0041666 1.74341e-17)
(-0.00116923 -0.000391707 -1.20105e-18)
(-0.00119793 -0.000375537 2.68882e-19)
(-0.000434023 -0.000976656 2.97691e-19)
(-0.000432626 -0.00100277 2.33524e-18)
(-0.00555662 0.00242819 1.21537e-17)
(-0.00568648 0.00241625 -9.88469e-18)
(-0.00562583 0.0025431 8.53741e-18)
(0.0121002 -0.000289106 1.56654e-17)
(0.0122212 -0.000343394 -8.61075e-18)
(0.0122298 -0.000307756 2.00188e-18)
(-0.00600124 0.00259657 -1.25571e-17)
(-0.00603155 0.00245536 -5.05221e-18)
(-0.000961363 -0.00256921 -5.25998e-18)
(-0.000933922 -0.00261552 6.70678e-18)
(-0.00109965 -0.00213193 1.58778e-18)
(-0.00108163 -0.00218842 1.17995e-18)
(-1.69706e-06 -9.00693e-06 -3.80848e-19)
(-1.59619e-06 -7.80126e-06 2.83343e-19)
(-5.94108e-07 -5.26679e-06 8.8778e-20)
(0.0112104 -0.00062829 -3.6535e-18)
(0.0112638 -0.000629643 4.49093e-18)
(0.0109411 -0.000896145 2.36367e-17)
(0.01257 -0.000855837 2.0871e-18)
(0.012532 -0.000774156 4.55478e-18)
(0.0132658 0.00174793 -5.5769e-18)
(0.013524 0.00155682 -1.37642e-17)
(0.013359 0.00143102 -2.71054e-18)
(-0.000463387 -0.000231682 3.52246e-19)
(-0.000481595 -0.000238708 2.07709e-20)
(0.00472254 -0.000946337 2.44293e-18)
(0.00494865 -0.000965538 2.16055e-17)
(0.00467999 -0.000927226 3.10529e-17)
(0.00949868 -0.000755333 3.09361e-18)
(0.00958627 -0.000728744 5.56658e-18)
(0.0094406 -0.000710245 2.36358e-17)
(0.0159249 -0.000590327 -2.65194e-18)
(0.0161451 -0.000477385 1.44795e-17)
(0.0111693 -8.92616e-05 2.0873e-17)
(0.011177 -0.000241861 1.11994e-17)
(-0.00506297 0.00467157 3.00836e-18)
(-0.00498434 0.00479207 -8.7499e-19)
(-1.68428e-05 -0.000144677 1.49313e-18)
(-0.000176622 -1.9175e-05 4.05384e-19)
(-0.000167943 -2.07128e-05 1.6344e-19)
(-0.00017712 -2.93098e-05 -3.34846e-19)
(-0.00479563 -0.000462351 9.15898e-18)
(-0.00474067 -0.00040878 -1.36601e-17)
(-0.00483311 -0.000385626 -2.03397e-17)
(0.00832667 -0.000968366 -1.71165e-17)
(0.00839583 -0.000948413 5.4707e-18)
(0.00833617 -0.00097054 -1.70044e-17)
(-0.00640812 -0.000273254 1.24816e-18)
(-0.00637225 -0.000337156 4.43951e-17)
(-0.00663868 -0.00033743 2.00664e-17)
(-0.00233793 -0.000651398 6.11207e-19)
(-0.00239402 -0.000607701 -6.83944e-18)
(0.0211813 0.00084695 1.13604e-17)
(0.0211585 0.000636409 -8.68556e-18)
(-0.00357279 0.00344369 2.41688e-18)
(-0.00348211 0.00340664 4.23645e-18)
(-0.000305482 2.42489e-05 1.06042e-18)
(-0.000310951 2.71267e-05 -1.93894e-19)
(-0.000304598 3.12083e-05 -3.86993e-19)
(0.0185916 0.00128314 1.12443e-17)
(0.0184617 0.0010973 1.50019e-17)
(0.0171882 0.000840739 2.29745e-17)
(-7.82067e-05 -0.000152539 1.78103e-19)
(-7.64843e-05 -0.000144811 -7.98014e-19)
(-6.99783e-05 -0.000142516 -4.51293e-19)
(0.0121893 -0.00129666 9.03888e-19)
(0.0113979 -0.00133834 3.32769e-17)
(-0.00268328 0.00103666 1.33283e-18)
(-0.00267356 0.0011126 3.96694e-18)
(-1.94128e-06 -3.17204e-06 1.93292e-20)
(-2.9976e-06 -5.00254e-06 -1.94826e-20)
(-0.00144252 -0.00214223 -2.3325e-19)
(-0.00142633 -0.00221446 5.37262e-19)
(-0.00138038 -0.00214536 5.02295e-19)
(-0.00193075 -0.00298693 1.23048e-20)
(-0.0018816 -0.00294145 -1.91778e-19)
(0.000146773 -0.00316656 -6.16373e-18)
(0.000124616 -0.00311129 2.72938e-17)
(0.0145917 0.0013846 -1.44963e-17)
(0.0145907 0.00167113 -1.56277e-17)
(-0.0015774 -0.00254447 2.13681e-19)
(-0.00160411 -0.00261432 -1.67911e-19)
(-0.00152223 -0.00258288 -2.6357e-19)
(-0.00128615 0.000338298 6.51092e-19)
(-0.00132315 0.000313089 -6.03695e-19)
(-0.00127857 0.000303183 -8.5136e-19)
(0.0237622 0.00245586 -2.18671e-17)
(0.0236767 0.00255701 1.50378e-18)
(0.0244467 0.00244052 -3.60738e-18)
(0.0111302 -0.000882501 -6.57249e-18)
(0.010827 -0.000965109 2.18409e-18)
(0.00968126 -0.00103856 7.70863e-18)
(0.00977061 -0.00100776 1.11742e-17)
(-0.000312787 -0.000595119 1.3638e-18)
(-0.000307764 -0.000575167 -3.27852e-19)
(0.0160036 -0.000708455 2.52972e-17)
(0.0170027 -0.000535972 -1.19472e-17)
(0.0158821 -0.0007462 -3.95183e-17)