/*--------------------------------*- C++ -*----------------------------------*\
| =========                 |                                                 |
| \\      /  F ield         | OpenFOAM: The Open Source CFD Toolbox           |
|  \\    /   O peration     | Version:  v2012                                 |
|   \\  /    A nd           | Website:  www.openfoam.com                      |
|    \\/     M anipulation  |                                                 |
\*---------------------------------------------------------------------------*/
FoamFile
{
    version     2.0;
    format      ascii;
    class       volScalarField;
    location    "1000";
    object      nut;
}
// * * * * * * * * * * * * * * * * * * * * * * * * * * * * * * * * * * * * * //

dimensions      [0 2 -1 0 0 0 0];


internalField   nonuniform List<scalar> 
13917
(
0.000406736
0.00168781
0.0253808
0.00188814
0.00672636
3.6592e-05
0.0249263
0.0232074
0.0222797
0.000281963
0.00290576
0.00100945
0.00192025
0.000509672
0.00054907
0.000724893
0.00177314
0.000617477
0.00114132
0.00672407
0.00672602
0.0245204
0.00672661
0.0252401
0.006473
0.0248882
0.000162686
0.000110661
3.27822e-05
0.000374226
0.000437618
0.000672645
0.000219999
0.00056567
0.0049037
0.0189058
0.00672629
0.0125125
0.0016263
0.00271627
0.00675219
0.00672623
0.00676773
7.39373e-05
0.00241273
0.000478019
0.000659669
0.000705417
5.48872e-05
0.00672247
0.00106228
0.00184905
5.95106e-05
0.000508611
0.00161538
0.000950927
0.0021058
0.00275733
0.00102851
0.00238644
0.00732626
0.00192789
0.000246007
0.00672413
3.72624e-05
0.00229046
0.00672568
0.00612751
0.000662785
0.000350445
0.00672603
0.022424
0.00906793
0.00553779
4.90348e-05
0.00120296
0.00440427
0.00165103
0.0246467
0.00672569
0.00672535
0.00672523
3.65511e-05
0.0147048
0.0090062
0.0017782
0.00672527
0.00174199
0.00119929
0.00677155
0.0114676
0.000321001
0.00350701
0.00106261
0.00180578
3.7599e-05
0.000968032
0.000699073
0.00245322
5.76655e-05
0.00673708
0.000254091
7.11467e-05
0.00151671
0.00676482
0.0218363
4.43518e-05
0.000700755
0.00170094
0.000385168
0.0102785
0.00400602
0.00136801
0.0219399
0.00116027
5.22639e-05
0.00673489
4.01316e-05
0.00522
0.000516998
0.00672613
0.00046986
0.00547113
0.000130922
0.00673132
0.0011528
0.00235281
0.00673145
0.00675053
3.64103e-05
0.0138598
0.00112869
0.00237417
0.00672611
0.0121342
0.0253185
0.000404376
5.3426e-05
0.00672615
0.000541565
0.017225
0.00519023
0.0014005
5.93634e-05
0.00484989
0.0219456
4.40804e-05
0.00171744
0.00636253
0.000565211
0.000805788
5.09884e-05
0.0011023
0.000281539
0.000780662
0.00353579
0.000402758
0.0174094
0.00233938
0.011932
0.000749803
0.000159719
0.00672573
0.000979201
0.00132423
0.00134511
0.00148041
0.000799037
0.00314545
0.000255535
0.00027124
0.0029635
0.00124111
0.00135214
0.0202349
0.000243908
0.015532
4.23614e-05
0.0217689
0.00368792
0.000323606
0.000440704
0.00528634
0.00672531
0.000393783
0.0256807
0.000495562
0.00347284
0.000665659
0.000692897
0.0157131
0.00919776
0.000498992
0.00672666
5.51836e-05
0.000161864
0.00283919
0.00334452
4.88519e-05
0.000810155
0.00129773
0.00672208
0.000798869
0.000914399
0.00678538
0.0132746
0.0057898
0.00293671
0.000705926
0.0258103
0.0015157
0.0247125
0.003169
0.0007313
0.00676338
2.85835e-05
0.000750324
0.00365285
0.00565325
0.00834096
0.00397738
0.000424893
0.00674056
0.0131718
0.0216419
0.000671041
0.000166781
0.000810163
0.00675951
0.0182281
0.00127221
0.0007106
0.0255388
0.00187059
0.00673668
0.000629954
0.0135603
0.00675259
0.00672571
0.00672984
0.00476399
0.000373921
0.00672562
0.0155145
0.000629086
0.000158294
0.00045539
0.00672564
0.000208835
0.00260358
0.00328743
0.000289536
4.90725e-05
0.00245785
0.00293762
0.000967496
0.00877671
0.000974805
0.000332584
0.00060141
0.00672573
0.00309165
0.016339
0.0180896
0.00675827
0.00774616
0.00233293
0.016677
0.0239991
0.00137534
0.00672555
0.00672709
0.000673163
0.00949522
0.000625698
0.00108345
0.0135715
0.00127542
0.00675016
0.0114291
0.00672369
0.0224
0.00132871
0.00672543
0.00052901
0.000261861
0.000169014
0.0182493
0.000343912
0.00267813
0.00542101
0.0254483
0.0138333
0.00674476
0.017244
0.0067241
0.00279119
0.00673351
3.57819e-05
0.00672158
0.000435943
0.00048177
0.00323333
0.000948112
0.00122667
5.30804e-05
0.000269068
0.000325021
0.00374893
0.00317045
0.00917563
0.00484037
0.00673617
0.00673463
0.0100809
0.00342705
0.0105824
0.00417798
0.0146437
0.00261558
0.000312636
0.00103307
4.9992e-05
0.000768561
0.0103904
3.56538e-05
0.000582795
0.000787749
5.24789e-05
0.00169692
0.0126762
5.63516e-05
0.00319169
0.000620125
0.00274133
0.000580306
0.0128875
4.19082e-05
8.0371e-05
8.28124e-05
0.0249603
0.00672549
0.000288236
0.0119902
0.00211135
0.000959578
0.00281887
4.54424e-05
0.00153317
0.016075
3.25495e-05
0.00673098
0.00277248
0.0175024
0.00672384
0.00674231
0.00672411
0.00663292
0.00423716
0.0203993
3.05637e-05
0.0110813
0.00673849
0.000287221
0.00110888
0.000812069
0.0243773
0.0119861
0.0217496
0.00674406
0.0165178
0.00674417
0.00753311
0.00247261
4.87091e-05
0.000588069
0.00155409
0.00672533
0.000720075
0.000313846
0.000630156
1.4617e-05
0.0118792
0.00179337
0.000193157
0.000301074
0.00672871
0.0073162
0.0242623
0.00240397
0.00921077
0.00673541
0.00519723
0.00272102
0.00672556
0.001141
0.0243547
0.00117346
0.0114393
0.00198781
0.000888648
3.41252e-05
0.00177301
3.2343e-05
3.23573e-05
0.00672839
4.59716e-05
0.00212854
0.0059606
0.000387761
0.00672547
0.00557328
0.00674522
0.00146409
0.0067258
0.00413742
0.0265226
0.000970865
0.000505472
0.014404
0.00368058
0.000890945
0.00673665
0.000742723
0.00159954
0.000594764
0.00672718
0.022102
0.0252585
0.0270233
0.000658698
0.000638088
0.000702525
0.00160943
0.00063046
0.00117477
0.0187255
0.00172774
0.0067228
0.0127094
0.0147831
0.0162351
0.000214613
0.000518733
0.0150363
0.0133494
0.00409586
0.00674872
0.000702706
0.00117742
0.00246155
0.0121395
0.000670036
0.00681091
0.000505718
0.000847784
0.00350503
0.00672886
0.00100955
0.000685024
0.00024918
0.00645184
0.00672589
0.00266281
0.0068464
0.000376205
0.00674168
0.0262866
3.38672e-05
0.000382289
0.00645306
0.000971663
0.000979431
0.0149329
3.57647e-05
0.000732025
0.0186306
0.00100993
0.000450457
0.000757392
0.00109836
0.00630719
3.96715e-05
0.0010922
0.000756807
0.00679656
0.0118809
0.000984196
0.00579448
0.000401265
0.00180621
0.0044855
0.0220387
0.00393621
0.00675627
0.0262647
0.00209941
0.00672546
0.00373323
0.00191628
0.000423229
0.00383767
0.00594168
0.0149404
0.000638882
0.00169714
0.0167867
0.000555459
0.00142126
0.00672571
0.00339915
5.1626e-05
0.0104716
0.00583475
0.00833557
0.0191655
0.000995483
0.00674348
0.00171785
0.00135002
0.00781778
0.006804
0.00673947
0.00672355
0.00672392
0.00572047
0.0113644
0.000863505
0.000582851
0.00674689
0.0067354
0.000657467
0.0197952
0.000678454
0.0027593
0.00658657
0.00673102
0.0110798
0.00940543
0.00672498
0.0067322
0.0177654
0.00105653
0.0010104
0.00246478
0.00109278
0.000628381
0.000766875
5.35166e-05
0.000492073
0.00072774
0.000701785
0.0139543
0.000339305
0.00672606
0.00378629
0.00672994
0.000861188
0.00150076
0.0118415
0.000121774
0.00673692
0.000249365
0.000379136
0.000464182
0.000807253
0.000218192
0.000852628
0.00672508
0.0186809
0.00033879
0.0224975
0.00185285
0.000864636
0.00047112
0.0129352
0.000216015
0.000695749
0.000215545
0.000659596
0.00105598
0.00262193
0.000126758
6.89604e-05
0.00244319
0.000747154
5.09542e-05
0.0228809
0.00188721
0.000911479
0.000980994
0.0142112
0.000548127
0.00148563
2.99086e-05
0.0190707
0.0228403
0.00056397
0.00675008
0.00395351
0.00129918
0.0067508
0.000654398
0.000836228
0.000228503
0.000384856
0.0244811
0.000782331
0.00104152
0.0188916
0.00143338
0.00253087
0.00672577
0.00672496
0.0212493
0.0204083
3.5375e-05
0.00144921
0.00133799
0.00673147
0.00122082
5.42579e-05
0.000866001
0.00101092
0.000726194
0.000737477
0.00374011
0.000180253
0.000847499
0.0203409
0.00587234
0.000797556
0.00154384
0.00142919
0.000313007
0.000128339
0.000818183
0.00672742
0.00610985
0.00227454
8.1566e-05
0.000362965
0.000319374
1.4864e-05
0.000796239
0.00673013
0.000821693
3.15462e-05
0.01914
0.00320842
0.000460171
0.00673857
0.00138301
0.000979792
0.019326
0.00672562
0.000300026
0.00131269
0.00304927
0.000283002
0.00890389
0.000134087
0.00183109
0.00813593
0.000410635
0.0025497
0.00159993
0.0144901
0.000591178
0.0009353
0.00672485
0.00170787
0.000213717
0.00161219
0.000633321
0.00101202
0.0057991
0.000903512
0.0253662
0.0034692
0.00216748
0.00672304
0.00386448
0.00672598
0.000717943
0.00361054
0.000958806
0.0182884
0.000808993
0.0001985
0.00672356
0.000205055
0.00673232
0.000446394
0.006727
0.000162252
0.00186939
0.000899476
1.78212e-05
0.0196891
0.00684247
0.00672511
0.000351247
0.000404725
0.00504209
0.0211075
0.000640248
0.00594804
0.00117742
3.30343e-05
0.0204713
0.000319526
0.000689098
0.0250843
0.000397567
0.00132315
0.000651045
5.52541e-05
0.000610737
3.24982e-05
0.000583621
0.00179778
0.000863653
0.000533441
0.00447553
0.00128804
0.000390033
0.000600059
0.00673297
0.00673927
0.000771601
0.00161454
0.000561996
0.00529694
0.00673256
0.00672605
0.00112838
0.00679534
0.000807527
0.00672297
0.00544727
0.00116631
3.67542e-05
0.00673825
0.00672572
0.00013017
0.000481998
0.00127349
0.0112956
0.000224312
0.00800282
0.001327
0.000688017
0.00200579
0.00672608
0.00672431
0.00111921
0.00194667
0.00672579
0.0137154
0.000716607
0.00149831
0.000165841
0.000221935
0.00294278
0.00677755
0.00672625
0.0011295
0.00476056
0.00149361
0.0110497
0.00130253
0.00672426
0.000814801
0.00672861
0.00676102
0.00064108
0.000402199
0.00284446
0.000487316
0.00357848
0.00674494
0.0150685
9.30019e-05
0.00188029
0.00201771
0.0107655
0.0146386
0.00197131
0.000241126
0.0018141
0.00673551
0.00675822
0.00108224
0.0004423
0.0155009
0.000569736
0.0106965
0.00178525
0.000849964
0.00151214
0.00673452
0.0011042
0.00293908
0.00672269
0.00039002
0.000148179
0.00177534
0.0205817
0.00644673
0.000308602
0.00629748
0.00681804
0.000709517
0.0131862
0.00672546
0.0135918
0.00681023
0.000417192
0.00444686
0.00426701
0.00944403
0.0025692
0.0266589
0.000513922
0.00672601
0.00676681
0.00316512
0.0053112
0.00214145
2.50556e-05
0.00347814
0.00454063
0.0225688
0.0188463
0.00105437
0.00038811
0.000651199
0.00114767
0.0049554
0.000394183
0.00584724
0.00014794
0.00672613
0.00197671
0.0213547
0.000810854
0.0130635
0.00672595
0.00117045
0.00272387
0.000877639
0.0017267
0.00171622
4.03668e-05
0.00560161
0.000665861
0.0067245
0.00268231
0.0067418
0.00949487
0.00679186
0.00339514
0.00503775
0.0271206
0.00165136
0.00037671
8.85228e-05
0.0040844
0.000251329
0.00672471
0.0115793
0.00673064
0.00324943
0.00672448
0.000650986
0.00672433
0.000774667
0.00466273
0.0257033
0.000460316
0.0182019
0.00509548
0.00322414
0.00252067
0.00810228
0.00657628
0.0141106
0.0224346
0.000261449
0.000762192
0.00179204
0.0239993
0.000867202
0.0235936
0.00601082
0.00353146
0.00199554
0.00672468
0.00108067
0.000292123
0.00603127
0.00362478
0.00673028
0.00150461
5.91043e-05
0.0033135
0.000222268
0.000736896
0.00214714
2.40282e-05
0.00016456
0.000798602
0.00191374
0.00380515
0.00229599
4.01338e-05
0.00455421
0.000561124
0.000399421
0.00649194
0.0215514
0.00126536
0.00361178
0.00193901
0.00175109
0.00676114
0.00112418
0.00674672
0.000676724
0.00035694
0.00690489
0.000949999
0.003431
0.000711665
0.0139291
0.000400066
0.00176624
0.00302676
0.00323356
0.0016289
0.000190111
0.00603016
0.00672391
0.00564844
0.0244428
0.0162049
0.0141114
0.000809588
0.0195871
0.00536484
0.000719167
0.00172906
0.00673037
0.00173224
0.0259022
0.0034633
0.00445452
0.00677122
0.0027712
0.0160326
0.00135954
0.00082019
0.00534275
0.00158635
0.000734954
0.00395263
0.000449848
0.00010253
0.0168038
0.00253575
0.000149373
0.000853585
0.00781756
0.0131573
0.00555694
0.00873724
0.000656585
3.9574e-05
0.0067242
0.0236416
0.00672503
0.000865748
0.000376974
0.000792206
0.0260334
0.0190824
0.013218
0.0190504
0.00672861
0.00697322
0.00414463
0.000561436
0.0241672
0.00234095
0.00672531
0.00138684
0.00223481
0.00715045
0.00676754
0.0067269
0.000880546
0.000441553
0.000776062
3.42979e-05
0.00288
0.00193255
0.00122684
0.000772522
0.00123867
0.00670959
0.00100668
0.00602134
0.0244186
0.00133461
0.00392444
0.0152883
0.0177382
0.00177054
0.000626511
0.000654786
0.0024281
0.00110696
0.00191977
0.000372718
0.00672629
0.000710211
5.55078e-05
0.00674313
0.000505702
0.00379763
0.000152696
0.00672705
0.000504355
0.000678851
0.00156831
0.00251775
0.00421101
2.8335e-05
0.00026968
0.0183899
0.00472078
0.00196099
0.000778571
0.00306265
0.000474507
0.000273855
0.0025529
0.000613877
0.00414446
0.00793411
0.00190307
0.00117225
0.00395908
0.0066478
0.00553848
0.000953667
0.00270881
0.00672985
0.00673799
0.00774456
0.0115461
0.000716948
0.0120819
0.0067239
0.00255613
0.0260745
0.00130234
0.00677662
0.0135611
0.00413035
0.0161191
0.00672544
0.00677257
0.00197372
0.00433742
0.0107593
0.00221353
0.00171328
0.00648455
0.000583404
0.00672202
3.52922e-05
0.000520733
0.00672572
0.0221341
0.000185183
0.00896449
0.0165127
3.36775e-05
0.00471915
0.00179044
0.00253507
3.76327e-05
0.000524437
0.0105058
0.0044352
0.000799275
0.0238265
4.46389e-05
0.000740302
0.00922303
0.000145428
3.68644e-05
0.0261075
0.000122777
0.000127973
0.0162713
0.00106109
0.00067882
0.00713669
0.000102934
0.00607248
0.00152628
0.00568533
0.000317908
0.0041081
0.000192121
0.000467497
0.000436138
0.00734009
0.000968444
0.0191399
0.00121325
0.0187815
0.000643277
0.000533373
0.000772227
0.0042627
0.00139294
0.0256376
0.00673573
0.000732052
0.00678208
0.00111211
0.00345375
0.000245594
0.00487181
4.17196e-05
0.000160732
9.79782e-05
0.027154
5.51351e-05
0.00344071
0.0161728
0.0264149
0.00679613
0.00673927
0.000778062
0.00272631
0.0067254
0.000562513
8.61868e-05
0.000273961
0.00313897
0.00193192
0.00357604
0.000656844
0.000276867
0.00672322
0.00103312
0.0248712
0.000221265
0.0136983
0.00120847
0.000932874
0.00101582
0.00112518
0.0267247
0.0137833
0.0012529
2.26119e-05
0.000668755
0.00672618
0.0029854
0.0021943
0.0042536
0.00128239
0.000217508
0.00558561
0.000879799
0.00672977
0.00079217
0.00434143
0.000237323
0.000784951
0.0001696
0.0033746
0.000532471
0.00307994
0.0262517
0.00673689
0.000565349
0.0067263
0.0127723
0.00720774
0.0056284
0.0055162
0.00093244
0.00267875
0.00059373
0.0110852
0.0028074
0.00164854
0.000453229
0.00066691
0.0241032
0.00567769
0.000418825
0.0019715
0.00673151
0.000289188
0.00154587
0.00674129
0.000840254
0.0033496
0.000947544
0.0160669
0.0221348
0.000601065
0.0123442
0.00100219
0.00673924
0.000353751
0.00206834
0.00194731
0.000324859
0.000980284
0.000326474
0.0055473
0.000670184
0.000507913
0.000561535
0.00679707
0.00676333
0.0120021
0.0015684
0.00672621
0.000238212
0.00605588
0.000681081
0.000669822
0.000894554
3.86793e-05
0.0251072
0.00166791
0.00108448
0.0225521
0.00223729
0.00107432
3.70665e-05
0.00267695
0.000693171
0.00576677
0.000958593
0.000724074
0.000593276
0.00577038
0.00672553
0.00673169
0.00212566
0.000443509
0.00427618
0.000827854
0.0012575
0.00136827
0.000274518
0.00972409
0.000327779
0.00132621
0.0221871
0.00174654
0.00379706
0.00156538
0.000120299
0.00565011
0.00312014
0.00378654
0.00254599
0.00196378
0.0253885
0.000334331
0.00182145
0.00672281
0.00360245
0.023159
0.00176002
0.000145721
0.000830386
0.00673152
0.000552262
0.000635346
0.00676731
0.00673238
0.0244758
0.00452507
0.00199349
0.00130734
0.00263816
0.000636566
0.000214254
0.00355876
0.00121747
3.16121e-05
0.0168446
0.018924
0.0140328
0.00197549
0.00091378
4.95767e-05
0.000352368
0.00673192
0.000986242
0.0108165
0.000889455
0.000134262
0.0250425
3.89206e-05
3.98221e-05
0.000573937
0.00181194
0.0067252
0.00673048
0.00251345
0.000758084
0.0015468
0.00183505
0.00108411
0.00672614
0.00323405
0.00511628
0.000933429
0.00113859
0.0222271
0.000160822
0.00178244
0.0127968
0.000383299
0.000716934
0.00673754
0.000458239
0.00211709
0.00207129
0.00102715
0.000776561
0.000621874
0.000107355
0.0266371
0.0179898
0.00330689
0.0107528
0.00676753
0.00216954
0.000171591
0.00672599
0.00323811
0.000117056
0.0154533
0.0041567
0.0268621
0.00204489
0.00469129
0.0010556
3.47114e-05
0.000586713
0.00162926
0.00558298
0.00127188
0.014714
0.0181864
0.0067251
0.000134807
0.00672314
0.00461588
0.000564844
0.00521504
0.0258608
0.000711001
7.76024e-05
0.00672623
0.00321017
0.000376907
3.36165e-05
0.00204784
9.29135e-05
0.00309894
0.0044843
2.68825e-05
0.00232785
0.000488186
0.000108478
0.00672507
0.00608074
0.000920108
0.00092495
0.000536884
6.70214e-05
0.000233315
0.000186541
0.00141394
0.0251104
0.000341303
0.00275381
0.000349664
0.000999682
0.00265314
0.000452958
0.0031748
0.00125685
0.0259892
0.00139627
0.00511148
5.1933e-05
0.00168663
0.0265061
0.00173674
0.0266294
0.0208624
0.000445327
0.00673602
0.00673965
0.00672645
0.00674956
0.000566289
0.00014613
0.000181849
0.000761061
0.00672353
0.0131166
0.00151893
0.000476556
0.0222685
0.00366497
0.00100382
0.000762771
0.00132215
3.92726e-05
0.0085069
0.00509313
0.0264111
0.00848771
0.00552166
9.99115e-05
0.00545514
3.70406e-05
0.00672457
0.00202271
0.000970361
0.025572
0.00403417
0.000286514
0.0025397
0.000151944
0.000769824
0.0165355
0.00055038
0.00090906
0.000914543
0.000889793
0.000279834
0.00125219
0.00672461
0.000456994
0.0116632
0.00672547
0.0165374
0.00672568
0.00263837
0.00599259
0.0130694
0.00673234
0.00236603
0.0015815
0.00351028
0.000232675
0.000168726
0.00203096
0.00672979
0.00672422
0.00121079
0.000706199
0.000674989
0.00391045
0.00481571
0.0142404
0.0017003
0.0199891
5.49285e-05
0.00051336
0.0146826
0.00081733
0.0241189
0.0167669
0.00638231
0.00151015
0.016884
0.0127936
0.00673703
0.00673133
0.000358311
0.0125435
0.0084437
0.00404337
0.00262676
0.015352
0.000717184
0.00577927
0.00100861
0.000758474
4.21234e-05
0.0019067
0.0170469
0.00414423
0.017967
0.00115047
0.00300206
0.00568171
0.00672733
0.000504065
0.00791742
0.000942768
0.00134862
0.00133868
0.000145626
0.00264415
0.00104102
0.0187161
0.00240083
0.00436444
4.07468e-05
0.00673368
0.00672442
0.0266611
0.00676172
0.00551477
0.00107109
4.56844e-05
0.000698926
0.00399549
0.000585718
0.00673532
0.0206037
0.000517553
0.00346251
0.00220603
4.77543e-05
0.000599996
0.00254161
0.00104052
0.0141329
0.00672459
0.0129867
0.0209348
0.00981193
0.000959811
0.00023448
0.00394096
0.001681
0.000157523
0.000991492
0.0263562
0.000537299
0.00245118
0.0126796
0.00110078
0.000377917
0.00317741
0.00125385
0.0122898
0.00237959
0.00673105
0.00381085
0.000893309
0.00246863
0.000646214
0.00674161
0.000793715
0.00155895
4.61195e-05
0.00014327
0.00396242
0.00672948
7.10357e-05
0.00188567
0.000703426
0.000978765
0.000492412
0.00347505
0.00140572
0.00113028
0.00163338
0.00777297
0.0133307
0.00675095
0.00672835
0.0016339
0.000883766
0.00674733
0.00160366
7.05818e-05
0.000809296
0.0168254
0.00602423
0.0146029
0.00802546
0.00672604
0.00161065
0.00100556
0.00113399
4.2196e-05
0.00168852
0.00663215
0.000380103
0.000999073
0.000784458
0.00676032
0.0160687
0.00280352
0.00209156
0.00029683
0.0110328
0.0119516
0.00672559
0.006725
0.00115082
0.0025787
0.000688619
0.00147231
0.000474445
0.00152814
0.0099877
0.00203831
0.0227634
0.00675553
0.0197795
0.00178534
0.00676379
0.00885074
3.44905e-05
6.15573e-05
0.0179404
0.000145748
0.000753884
0.00531719
0.00565642
0.00673138
0.00674629
6.68477e-05
0.00114771
0.0043569
0.00823014
0.000675689
0.0164488
0.000502853
0.00481912
0.0068023
0.00110245
0.00107401
0.0140859
0.000645389
0.0129033
0.00620292
0.00236245
0.00325335
0.00269998
0.00017007
3.93201e-05
0.00146594
0.00672673
0.000596381
0.000712926
0.000749879
0.000179298
8.27478e-05
0.00672353
2.98872e-05
0.000402102
0.00187
0.000586194
0.0010053
0.00112658
0.0203394
0.00672714
0.000475493
0.0257196
0.00124621
0.000779726
1.50795e-07
5.08295e-05
0.00119306
0.00277681
0.00109403
0.00819822
0.0013697
0.000366556
0.00168398
0.0133314
0.00673598
9.25213e-05
4.1525e-05
0.0129917
0.00057018
0.000362991
0.00133688
0.000144162
0.00672567
0.0129419
0.00114691
0.00284565
0.000845601
0.00672396
0.00672574
4.50517e-05
0.00673078
0.00672343
0.00252272
0.000828167
0.00196085
0.000475039
0.00088976
0.000393146
0.000463985
0.00672534
6.19865e-05
3.25902e-05
0.000623077
0.000391419
0.000435787
0.000814842
0.025224
0.000265173
0.00672606
0.0111731
0.0265656
0.00672603
0.00111051
0.00675526
3.66093e-05
0.00034996
0.00258792
3.84542e-05
0.0129596
0.00673599
0.00200231
0.0259271
0.00767435
0.00114842
0.00676794
0.00748292
0.0165852
4.90984e-05
0.006732
0.014808
0.00140614
9.3374e-05
0.0110287
0.000998439
0.00675514
0.000782943
0.000435903
0.000841691
0.0259326
0.015303
0.00500408
0.0169454
3.81208e-05
0.00715834
0.0067581
0.000114844
0.0019046
0.0038289
0.0189255
0.0144898
0.00630575
0.0169952
0.00041656
0.000572709
0.00684549
0.0144656
0.00342661
0.0062718
0.00189969
0.000268742
0.00372318
0.000733858
0.0232134
0.0140633
0.000588578
0.00172379
0.0026927
0.0181195
0.000600816
0.000688747
0.00538437
0.00110024
0.00024808
0.0140925
0.0146493
2.83551e-05
0.00672426
0.00320155
0.00684481
0.000155555
0.00769279
0.00235942
0.00673001
0.00672636
0.00115698
0.000538805
0.00211861
0.0210374
0.0138081
0.0045635
0.00676652
0.00672461
0.00673006
2.47428e-05
0.00466458
0.0261776
0.000547238
0.00117442
0.00358601
0.000309934
0.015902
0.000846312
4.51145e-05
0.00765899
0.00166805
0.00271633
0.000251905
0.000209465
4.87543e-05
0.00280851
0.0068933
0.00119682
0.00548232
9.74636e-05
0.004515
0.000585544
0.00193113
0.0266539
0.000305728
0.00374203
0.0177847
0.000611605
0.00672551
0.000517928
0.000988216
0.00672579
3.93005e-05
0.00675031
0.00120692
0.000686596
0.00211228
0.00925154
0.000989274
3.55164e-05
0.00114305
0.00673909
0.00974044
0.0156955
0.000706679
0.000248871
0.00106934
0.000341308
0.000989237
0.00137386
0.000542517
0.00111998
0.0155407
0.000583396
0.0269417
0.00013491
0.0192343
0.000857415
0.0019916
0.0219401
0.00674818
0.0255829
0.000726417
0.0123719
0.00657344
0.00801893
0.0115597
0.00383283
9.24449e-05
0.00266674
0.0222163
8.67857e-05
0.00472171
0.00207961
0.0220756
0.000949454
0.00158555
0.000514616
0.000601739
0.000912674
0.0053542
0.00672599
0.00128806
0.00119764
0.000357934
0.00672435
0.00115071
0.0067971
0.0268327
0.000838225
0.000494761
0.000660534
0.000700534
0.000221796
0.0155004
0.000388139
0.00514526
8.74426e-05
0.0235133
0.00303627
0.00214543
0.0269842
0.000839379
4.32447e-05
0.00673189
0.000706987
0.0168394
0.00111287
0.00463875
0.00265748
0.00023656
0.0193259
0.00261278
0.00680362
0.0018221
9.02554e-05
0.000743075
0.022723
0.000715683
0.000160612
0.000391328
0.000355651
0.00203463
0.020111
0.0243185
0.0011443
0.00792083
0.00100219
0.000326904
0.00500761
0.000784747
0.00174519
0.000256381
0.00676161
3.60892e-05
0.0059471
0.0031263
0.00401768
0.000922876
0.00206557
0.0162269
0.00676428
0.000820295
0.0067257
0.00196743
0.000956722
0.000165345
0.0111477
0.00059236
0.00672413
0.000339457
0.0011192
0.00316746
0.000645996
0.00476121
0.00905454
0.0127683
0.00102133
7.29594e-05
0.00672734
0.0184557
0.000808436
0.000680193
0.00478943
0.00216393
0.00672311
0.000922234
0.00672574
0.00116599
0.00265639
0.00405198
0.0171018
0.00343688
0.000752383
0.00136876
0.00672613
0.0145949
0.00360078
0.000398999
0.0163686
0.00112769
0.0271367
0.00309786
0.0138605
0.00112403
0.0222592
0.000993313
0.000449835
0.00265779
0.000730558
0.000766174
0.000913479
0.000430015
0.0133528
0.000659378
0.000171582
0.000522064
0.000992129
0.000209056
0.00612284
0.000609457
0.00269692
0.00378456
0.000880258
0.000194848
0.0142282
0.000736196
0.0259719
0.0151225
6.05467e-05
0.00271571
0.0147126
4.35622e-05
0.00151607
0.000719926
0.00259596
0.0244767
0.00416675
0.00174058
0.00358642
0.00113432
0.00633451
0.000129967
0.00673524
0.00399725
0.00233969
0.00363682
0.000803508
0.00116072
0.000419203
0.000730137
0.00196679
0.0104467
6.97398e-05
0.000162649
0.000215921
0.00960543
0.0136066
0.00392547
0.00675203
0.00377258
7.44235e-05
0.0020894
0.000152885
0.0270753
0.0118665
0.006766
0.00558726
0.0185217
0.0150067
0.00677002
0.00489265
0.000473228
0.0042188
0.0254117
0.000802296
0.000465566
0.00672561
8.08873e-05
0.000733011
5.2687e-05
0.000271161
0.000190806
0.00168894
0.000565543
0.00364495
0.00124792
0.00228204
0.000788767
0.025395
0.000670755
0.00247481
0.00672625
0.015556
0.000300014
0.00039191
0.0067422
0.00673982
0.000246869
0.0118809
0.000101879
0.00698069
0.00558531
0.00131023
0.0138152
0.00764177
0.00679864
0.0178539
0.0159668
0.00100976
0.00672545
0.0148321
0.0074933
0.00297856
0.000247038
0.00707158
0.000319042
0.0025654
0.004306
0.00175358
0.00145463
0.000443083
0.00761354
7.29706e-05
0.000385842
0.00676919
0.00198841
0.0259632
0.0039582
0.000348807
0.000472025
0.00282576
0.000574152
0.00673372
0.000838673
0.00135598
0.00672798
0.0084984
0.00673731
0.000422536
0.0188308
0.00054378
0.00190573
0.0067263
0.0151894
0.00676004
0.000953283
0.00175868
0.000200444
0.00505959
0.000700354
0.0167906
0.0001919
0.0158494
0.00140111
0.00084836
0.00378294
0.00672589
0.00354626
0.0142136
0.0010873
0.00103272
0.000793498
0.000781339
0.00747078
0.0157871
0.0010698
0.00046751
0.00676159
0.0118171
0.0029854
0.00272066
0.00440263
0.000924552
0.000403147
4.34804e-05
0.000169414
0.000398001
0.000718371
0.019889
0.00110821
0.00672963
0.00244538
0.000150095
0.00679197
0.0126827
0.0067239
0.00672656
0.000635543
0.000186107
0.00316584
0.00678902
0.000634327
0.00542579
3.58708e-05
0.00382949
3.4585e-05
0.0172653
0.0173359
0.0122067
0.000517386
0.000311287
0.00848756
3.61636e-05
0.00672554
0.000360168
0.000166193
0.000311694
3.96814e-05
0.0101056
0.0115408
0.0194495
5.21012e-05
0.00196885
0.00110612
0.0067227
0.00383298
0.000875616
0.00186156
0.00110469
0.0015503
0.00411225
0.00102882
0.0119764
0.00674885
0.00114104
0.00672838
0.00722564
0.00118798
0.018445
0.026974
0.000919796
0.00672758
0.00392119
0.00711258
3.71138e-05
0.00672578
7.33256e-05
0.0067257
0.000247446
4.72928e-05
0.000637595
0.000785295
0.00770021
0.00529737
0.0037468
0.0155451
0.0147363
0.000643233
0.000253956
0.00391743
0.00245788
0.00579305
0.00672981
0.00127369
0.00355609
0.001391
0.0103313
0.01586
0.00116498
0.0150551
0.009309
0.00675693
0.000958006
0.00677169
3.91333e-05
0.00266992
0.000697946
0.00450578
0.0067385
0.00406243
0.000107462
0.00205873
3.33552e-05
0.00661248
0.000256321
0.00679395
3.92831e-05
0.0067299
0.000869816
0.00111325
0.000210152
0.0139255
0.0067413
0.00711056
0.000344317
0.000203481
0.00681464
0.00618061
0.0132748
0.000456719
0.00275583
0.00310015
0.0105876
0.0150806
0.000178231
0.01813
0.00118945
0.0184283
0.00098224
0.0067596
0.0222353
0.00210861
0.0241924
0.00414195
0.00147453
0.00672628
0.00822484
0.0159727
0.00676345
3.96566e-05
0.0152133
0.00672267
0.0032414
0.00676197
4.14786e-05
0.0157715
0.000351392
0.0016136
0.000544577
0.00673142
0.00276881
0.00118265
0.00672749
0.000308071
0.0028691
0.00104878
5.41317e-05
0.00052499
0.00674843
0.0273272
0.000793495
0.00673051
0.000284747
0.000899054
0.0161833
0.000650553
0.00694162
0.00048454
0.00273065
0.000404655
0.000427333
0.00106597
0.018726
0.00101844
0.00140022
0.0165199
0.00345653
0.000177228
6.9844e-05
0.000180858
0.00673722
0.00333549
0.00675839
0.000253083
0.000990389
0.000941083
0.0166867
0.00604715
0.0268438
0.00672603
4.30037e-05
0.0207243
0.0186416
0.00423963
0.00251089
0.000793516
0.0247705
0.000766026
0.000991429
0.000354835
0.00551563
0.000380099
5.69978e-05
0.000514992
0.0172766
0.00248383
0.00680348
0.000222872
0.00354665
0.001828
0.00211533
0.00120105
0.0135705
0.000403987
0.0230896
0.000970098
0.00648609
0.00213176
0.0137575
0.00965521
0.00195921
0.000869179
0.0106799
0.0257198
0.000466692
0.0014508
0.000862152
0.00161085
8.13549e-05
0.000814433
0.00207488
0.0175739
0.0059409
0.00292893
0.000272805
0.0195168
0.006723
0.00672422
0.0246159
3.91827e-05
0.00351516
0.00050226
7.79274e-05
0.00017309
0.0269514
0.0249085
0.0152993
0.0157792
0.00059561
0.00683146
8.46065e-05
0.00601856
0.00956464
0.00286367
3.68916e-05
5.91107e-05
3.14491e-05
0.00231723
0.00672595
2.97643e-05
0.0150009
0.00884989
3.36282e-05
0.00718936
0.0067392
4.23647e-05
0.0150994
0.00198917
9.14289e-05
0.000656769
0.00676959
0.000274422
0.0230747
3.92107e-05
0.00672588
0.00412859
0.000857863
0.00190903
0.00677655
0.00164037
0.00192284
0.0020569
0.00196392
0.000342003
0.000232033
0.000180153
3.44929e-05
0.00094579
0.00925893
0.000595339
0.00138351
0.000602317
0.00170112
0.000100485
0.00574282
0.000531366
0.000402366
0.000437432
5.86797e-05
0.00293264
0.000187769
0.0139903
0.024099
0.00538507
0.00295863
0.00375128
0.00314672
0.0142285
0.00103835
4.10833e-05
3.97354e-05
3.95552e-05
0.000499806
0.000631634
0.00417602
0.00206005
0.0130766
0.000335621
0.000121503
0.0028882
0.00294039
0.000571814
0.0145979
0.00672278
0.0051729
0.000195513
6.76746e-05
0.000491492
0.00366276
0.00672794
0.000861897
0.0019514
0.0022943
0.00159237
9.39914e-05
0.000260695
0.0030232
0.0021839
0.00202281
0.00672511
0.0134249
0.00150851
0.00822152
6.85277e-05
0.00244045
3.65013e-05
0.00145293
0.0156722
0.00185739
0.00142241
0.00401502
0.00672603
0.00185387
3.73798e-05
3.9273e-05
0.0200733
0.0067255
0.00208838
5.40715e-05
0.00672541
0.0173241
0.0008238
4.83851e-05
4.67898e-05
0.000209973
0.000247506
0.00679311
0.00058645
0.000275237
5.70416e-05
6.89098e-05
0.000212864
0.00673494
9.20995e-05
0.00422232
0.000351281
0.0211819
3.77455e-05
0.00265402
6.66181e-05
0.00267298
0.000685178
0.00142877
0.00207874
0.000371272
0.00186562
0.025164
7.35816e-05
0.000214965
7.55401e-05
0.000201064
0.0264493
0.014729
0.000415129
0.0121561
0.000148694
0.00373059
0.000110891
0.0165277
6.63378e-05
0.00672569
0.000488895
3.35588e-05
0.0109146
0.00184591
0.00209729
0.0155148
0.00672622
0.00414912
0.00112465
0.0161213
0.00672564
0.00715709
0.0128649
0.0178688
0.00742336
3.76732e-05
0.0146363
0.000228145
0.00678541
0.000936368
0.00658959
0.00015915
0.000849695
0.00896766
0.000717967
0.000237499
0.00641333
0.0130067
0.000863734
0.000513155
0.0243733
5.56337e-05
0.00519442
0.0161525
0.00331138
0.0022472
0.00672493
0.000389568
0.000137343
0.0222373
0.00263779
0.000409615
0.00195761
2.94871e-05
0.000539595
0.0255368
0.000970122
0.000278765
0.0155282
0.00111646
0.00672579
4.08527e-05
0.000366985
0.00105756
0.00175671
0.00328929
0.00085208
0.00050349
0.00174087
0.0013596
0.00398442
0.00192026
0.00676178