/*--------------------------------*- C++ -*----------------------------------*\
| =========                 |                                                 |
| \\      /  F ield         | OpenFOAM: The Open Source CFD Toolbox           |
|  \\    /   O peration     | Version:  v2012                                 |
|   \\  /    A nd           | Website:  www.openfoam.com                      |
|    \\/     M anipulation  |                                                 |
\*---------------------------------------------------------------------------*/
FoamFile
{
    version     2.0;
    format      ascii;
    class       surfaceVectorField;
    location    "1000";
    object      Uf_0;
}
// * * * * * * * * * * * * * * * * * * * * * * * * * * * * * * * * * * * * * //

dimensions      [0 1 -1 0 0 0 0];


internalField   nonuniform List<vector> 
20673
(
(1.09665 0.174783 -2.61684e-20)
(1.10153 0.173367 2.83854e-20)
(1.09722 0.169545 -2.59769e-20)
(1.028 0.0610466 -1.77582e-21)
(1.0265 0.0598979 -1.13984e-21)
(1.02663 0.0624819 -1.08158e-21)
(0.0455424 -0.0182273 -2.15826e-20)
(0.0607165 -0.0195368 5.574e-21)
(0.0721327 -0.0200273 6.61755e-21)
(1.10313 0.00100618 7.83311e-22)
(1.10253 0.00268622 1.13847e-20)
(1.10116 0.00146452 1.49617e-20)
(0.996197 0.00639798 1.09006e-21)
(0.996016 0.00596003 4.2126e-23)
(0.995684 0.00677041 -4.11017e-21)
(0.367631 0.0637587 2.4773e-20)
(0.356444 0.0369909 0)
(0.339211 0.0646717 0)
(0.0218565 -0.0161783 -1.20844e-20)
(0.0196129 -0.0165816 -2.86346e-20)
(0.0414247 -0.018296 -3.95567e-20)
(0.0725742 -0.0204468 -2.64299e-20)
(0.0517268 -0.0192982 0)
(0.0598207 -0.0192347 0)
(0.0147526 -0.0136901 1.20721e-20)
(0.00370578 -0.0125785 7.08042e-21)
(-0.00994307 -0.011407 4.10404e-20)
(1.132 0.210113 2.42347e-20)
(1.13816 0.211478 -1.29657e-20)
(1.13447 0.216656 -2.13735e-20)
(1.19636 -0.00166776 0)
(1.18428 -0.00565639 -9.15278e-21)
(1.13629 -0.0105708 0)
(1.18756 -0.0108207 -2.60334e-21)
(1.18953 -0.0117138 0)
(1.18841 -0.00924792 -2.8515e-20)
(1.10486 0.00121047 -2.23019e-20)
(-0.19924 0.0059573 0)
(-0.220633 0.0047407 -3.15206e-20)
(-0.198666 0.00447184 0)
(0.969089 0.119032 2.10211e-21)
(0.964665 0.118029 -2.40079e-22)
(0.968218 0.114145 1.22498e-20)
(0.993315 0.116307 4.02384e-21)
(0.991037 0.113121 -4.17553e-22)
(0.995232 0.112234 4.57009e-21)
(1.01898 0.0670997 0)
(1.02078 0.0669392 0)
(1.01945 0.0651272 -1.32322e-22)
(1.18366 0.0876134 -1.19801e-22)
(1.1833 0.0903804 2.26031e-20)
(1.18647 0.0883319 5.03597e-21)
(1.18695 -0.0130353 -2.54081e-21)
(1.18521 -0.0105533 -5.16615e-20)
(1.00212 0.00689558 4.10819e-22)
(1.00213 0.00659008 -1.10525e-21)
(1.00187 0.00634518 -1.17355e-21)
(0.999984 0.00128788 0)
(0.999971 0.00173025 0)
(0.999986 0.00129478 -3.32866e-21)
(0.0213424 -0.0164611 4.17605e-20)
(0.00476831 -0.0159241 -2.16902e-20)
(1.00132 0.0106628 2.95443e-21)
(1.00143 0.0113002 -2.52895e-21)
(1.00157 0.0110927 2.90106e-21)
(0.0898366 -0.0220721 1.38673e-20)
(0.0952738 -0.0225408 -2.22831e-20)
(0.995338 0.0218997 7.63432e-22)
(0.994805 0.0216916 7.29009e-22)
(0.995106 0.0227338 -2.91848e-21)
(0.0423223 -0.0183639 -3.8875e-20)
(0.02518 -0.0165606 1.84923e-20)
(0.0236104 -0.0172322 -2.31171e-20)
(0.781674 0.04818 -2.60486e-20)
(0.772397 0.0535864 -4.02579e-20)
(0.774169 0.0416215 6.00877e-20)
(0.75041 0.132524 -4.45559e-20)
(0.748354 0.145129 -4.03864e-20)
(0.739926 0.135431 1.28222e-20)
(0.685133 0.562136 4.24579e-21)
(0.714579 0.57416 -1.07372e-20)
(0.69186 0.6053 -4.07566e-21)
(1.20205 0.175657 -3.26463e-20)
(1.20314 0.171211 -1.19474e-20)
(1.20729 0.1739 3.14184e-20)
(1.11883 0.166709 -1.38332e-20)
(1.11476 0.168715 3.21558e-20)
(1.11487 0.163795 5.8668e-22)
(1.06859 0.129604 2.95646e-22)
(1.06513 0.129545 1.80575e-22)
(1.06686 0.126088 -1.36871e-20)
(0.83409 0.084951 6.93371e-21)
(0.826106 0.0874626 -4.23834e-21)
(0.827866 0.0778678 6.32035e-21)
(0.903828 0.0152906 -5.50273e-20)
(0.906701 0.0121503 -4.6203e-20)
(0.907923 0.0161183 -4.095e-20)
(0.991178 0.0183913 2.86804e-21)
(0.990606 0.0193174 3.27053e-21)
(0.991388 0.0194789 -2.04511e-22)
(0.542995 -0.0344424 0)
(0.535457 -0.0356532 0)
(0.480486 -0.035263 -2.7871e-20)
(1.00114 0.0101859 -1.60812e-22)
(1.00131 0.0100456 -1.85297e-21)
(-0.136947 -0.00387392 -3.50373e-20)
(-0.150868 -0.0027606 -5.52657e-21)
(-0.145209 -0.00312725 -4.85082e-20)
(1.11685 -0.000408619 -7.47201e-23)
(1.11906 -0.00104713 -3.09449e-20)
(-0.115494 0.00339395 -2.31882e-20)
(-0.131382 0.0047407 -4.73949e-20)
(-0.113914 0.0045787 2.18629e-20)
(1.01227 0.00143381 0)
(1.01287 0.00142043 6.98977e-22)
(1.01176 0.000831341 0)
(0.999995 0.000897537 7.7912e-21)
(1 0.000419601 -1.31594e-21)
(0.999998 0.000455943 6.2126e-21)
(1.03344 0.00561608 3.78384e-21)
(1.03281 0.0058125 -3.8863e-21)
(1.03274 0.00524811 -6.5295e-21)
(0.683254 0.206143 1.83239e-20)
(0.698987 0.214527 9.59626e-20)
(0.681725 0.227827 -1.89609e-20)
(1.05458 0.0430598 0)
(1.0557 0.0443855 -6.40294e-21)
(1.05638 0.0432559 0)
(0.885989 0.031915 -8.43293e-21)
(0.884654 0.0272116 -1.3414e-20)
(0.890117 0.0283636 2.92267e-20)
(1.18457 0.0842365 -2.54352e-21)
(1.1808 0.086189 6.74985e-21)
(1.2069 0.059475 -2.03483e-20)
(1.20424 0.0607341 -9.20113e-21)
(1.20467 0.057801 4.6767e-20)
(0.0920829 0.132656 1.03605e-19)
(0.0914252 0.167302 5.85016e-20)
(0.120269 0.145965 6.67265e-20)
(1.00456 0.00106465 -1.71242e-22)
(1.00499 0.000970765 2.14618e-22)
(1.00491 0.00149704 -1.80869e-22)
(1.12472 0.0529482 -1.20886e-20)
(1.12546 0.0546277 -9.1022e-21)
(1.12702 0.0528359 6.71424e-21)
(0.964055 0.0205529 8.21187e-21)
(0.9628 0.0192191 1.15088e-20)
(0.962381 0.0215422 -3.58407e-23)
(0.0854639 0.103244 -4.17251e-20)
(0.0529464 0.137116 3.40311e-20)
(0.900622 0.0185246 2.84727e-20)
(0.899552 0.013998 1.39506e-20)
(1.01852 0.0689787 1.45483e-22)
(1.01703 0.0669319 -6.49589e-22)
(1.11314 0.0788045 -6.47635e-21)
(1.11136 0.0808297 -1.16469e-21)
(1.11457 0.08158 -1.35443e-20)
(1.20554 -0.00048093 -3.72717e-20)
(1.22447 0.0036992 0)
(0.995915 0.0423585 1.77103e-21)
(0.995923 0.0405004 -1.7321e-21)
(0.997154 0.0417848 0)
(1.09235 0.0800252 8.35254e-21)
(1.09455 0.0820115 -6.86391e-21)
(1.09152 0.0827664 0)
(1.05281 0.0428348 0)
(1.05334 0.0417109 0)
(0.221231 0.0396946 3.63933e-20)
(0.131902 0.0259433 8.11488e-20)
(0.161355 0.0293681 -6.28266e-20)
(1.0297 0.0604456 1.06909e-21)
(1.02958 0.0629879 1.50171e-21)
(-0.200586 0.00748364 0)
(1.00211 0.00717157 2.26491e-21)
(1.00237 0.00743642 1.24444e-21)
(0.37498 0.0984787 -3.55268e-20)
(0.398729 0.0680586 3.10953e-20)
(0.8217 0.313892 0)
(0.766943 0.285599 1.467e-20)
(0.520398 0.189475 0)
(0.995364 0.00239779 3.74043e-21)
(0.994873 0.00278217 -3.08047e-21)
(0.986739 0.00462317 -8.42044e-21)
(0.987553 0.00433174 1.58437e-20)
(1.26184 0.0415722 -1.11555e-20)
(1.25992 0.0397736 -8.40382e-21)
(1.24728 0.0397517 1.02731e-19)
(1.05826 0.177392 -3.63735e-21)
(1.06383 0.178531 -2.93203e-21)
(1.05904 0.183816 -2.91378e-21)
(0.996654 0.00606963 -6.08091e-21)
(0.996364 0.0068402 -8.08501e-21)
(0.0403799 -0.0157735 -2.06339e-20)
(0.0255782 -0.0144044 -6.82463e-20)
(-0.210083 -0.00117646 0)
(-0.196717 -0.0022098 -4.3942e-20)
(-0.199761 -0.00194788 0)
(0.996076 0.0220368 -2.3717e-21)
(0.995725 0.0208093 -9.34783e-21)
(0.092221 0.201364 -1.37581e-19)
(0.125897 0.218252 -1.4463e-19)
(0.0943727 0.238741 -4.29689e-20)
(1.18955 -0.0282324 1.17586e-20)
(1.18739 -0.0281922 1.87451e-20)
(1.18811 -0.0262896 3.10513e-20)
(-0.233294 0.00174249 -3.65511e-20)
(-0.217266 3.68454e-05 -7.32396e-21)
(-0.228451 0.00234608 -7.06715e-20)
(1.07618 0.0517413 0)
(1.07785 0.0529307 -7.88176e-22)
(1.07583 0.0537487 9.50535e-21)
(0.0282301 -0.0154298 -1.40646e-20)
(0.0267802 -0.0161788 3.57106e-20)
(0.0460575 -0.0176574 -2.41372e-20)
(0.999942 0.0026011 0)
(0.999887 0.00304966 -1.23764e-22)
(0.999907 0.00309247 0)
(1.00012 0.00414951 3.0319e-23)
(1.00013 0.00457149 3.17263e-22)
(1.00015 0.00404952 2.5102e-21)
(0.995808 0.00252231 -3.90302e-21)
(0.383747 0.124367 -5.52822e-20)
(0.393284 0.154112 0)
(0.414731 0.130678 -1.28119e-19)
(-0.121566 -0.00528039 2.03963e-20)
(-0.1269 -0.00493516 2.20073e-20)
(-0.121815 0.0115055 -6.49226e-20)
(-0.144534 0.00957315 0)
(-0.139085 0.00977708 0)
(1.07439 0.0505923 0)
(1.07637 0.0499123 -1.11333e-20)
(1.00053 0.00580492 -6.30726e-22)
(1.00059 0.00569616 2.28022e-21)
(1.00044 0.00524126 2.55838e-21)
(0.862623 0.345557 0)
(1.0222 0.420547 0)
(1.12353 0.0509422 0)
(1.12203 0.0528864 0)
(1.03399 0.00552195 1.08584e-20)
(1.03405 0.00607664 2.29991e-21)
(-0.169878 -0.00320779 -1.5745e-20)
(-0.184356 -0.0024999 -1.22355e-20)
(-0.178771 -0.00263961 2.63554e-21)
(1.17861 0.201602 -1.00259e-20)
(1.17268 0.201962 -1.7682e-21)
(1.17464 0.206683 -9.90505e-21)
(1.03257 0.0379366 1.18589e-21)
(1.03318 0.0369733 -3.83535e-21)
(1.03174 0.0366684 2.60332e-21)
(0.9725 0.0691536 -6.25978e-21)
(0.970223 0.0705324 4.41319e-21)
(0.972854 0.0721358 -5.59557e-21)
(0.991587 0.404573 -2.84697e-20)
(0.765566 0.320126 9.35592e-22)
(0.370785 0.010133 0)
(0.399525 0.00303087 0)
(0.377159 -0.0242119 9.41346e-20)
(1.22559 0.0232599 -8.3362e-21)
(1.22559 0.0246027 -2.28822e-21)
(1.22246 0.0220601 -2.02554e-20)
(1.19886 0.0663331 1.7633e-20)
(1.20111 0.0680256 -5.85207e-20)
(1.19845 0.0691835 -3.36858e-21)
(1.19125 -0.0307996 0)
(1.14529 -0.0354851 0)
(1.16584 -0.0346808 0)
(0.585014 0.138528 2.42841e-20)
(0.605239 0.124686 -6.85931e-20)
(0.606068 0.150894 -4.62103e-20)
(1.01606 0.00890876 0)
(1.01676 0.00913106 0)
(1.01644 0.00969194 0)
(0.83591 0.0119458 -2.15815e-20)
(0.839099 0.0193818 -3.77112e-20)
(0.84349 0.0126191 3.84012e-20)
(0.667487 0.198822 -5.01268e-20)
(0.685679 0.190838 3.52982e-20)
(1.08924 0.0476464 8.21306e-21)
(1.09121 0.0479866 -8.17611e-21)
(1.09018 0.0457882 -1.00892e-20)
(1.02354 0.0198416 0)
(1.02365 0.0190259 2.18804e-21)
(1.02443 0.0199117 2.02461e-21)
(0.0264099 -0.0130775 -1.00044e-20)
(0.0233406 -0.0130195 2.84763e-20)
(0.0541021 -0.0132272 5.55901e-20)
(0.787644 0.507786 1.33347e-20)
(0.75993 0.523378 3.35968e-20)
(0.796289 0.533238 4.14572e-22)
(1.20939 0.058626 -2.74503e-20)
(1.20878 0.0615252 -6.76199e-21)
(1.02275 0.066745 -3.32985e-22)
(1.02249 0.0689411 0)
(1.11398 0.179094 3.46869e-20)
(1.10958 0.180795 3.34228e-20)
(1.11395 0.184323 3.15867e-20)
(-0.196465 -0.00153444 -6.11078e-20)
(-0.213024 -0.00156816 -3.72324e-21)
(-0.206593 -0.00139205 -2.94523e-20)
(-0.103141 0.00190201 1.67413e-20)
(-0.119138 0.003265 3.54644e-20)
(1.1982 -0.0155657 1.47528e-20)
(1.19781 -0.0170725 3.70499e-20)
(1.19962 -0.0162997 4.68894e-20)
(0.025707 -0.0126398 -6.23863e-20)
(0.00088204 -0.0128677 3.0943e-20)
(0.94623 0.0201355 0)
(0.944751 0.022375 8.20611e-21)
(0.944051 0.0195486 0)
(0.0864346 -0.119508 -1.01872e-19)
(0.0970743 -0.0902636 0)
(0.0597692 -0.0950083 0)
(1.00179 0.0193992 4.89104e-22)
(1.00193 0.0203349 1.91793e-22)
(1.00146 0.0198642 1.59814e-21)
(0.179979 0.104548 -6.23609e-20)
(0.209611 0.0857603 -1.08707e-19)
(0.210579 0.120429 -1.02934e-19)
(-0.163252 0.00361739 -6.83336e-21)
(-0.158991 0.00386491 -2.57121e-20)
(-0.147969 0.00114483 7.43095e-22)
(0.903053 0.0266484 -4.5283e-20)
(0.900084 0.0300303 -5.22339e-20)
(0.904787 0.0304706 -1.60403e-20)
(1.00001 0.00136102 -7.86404e-22)
(0.99999 0.00134687 6.67696e-21)
(1.2626 0.0446922 -4.68957e-20)
(1.24801 0.0428804 -6.03019e-20)
(-0.171532 0.00187555 2.87912e-20)
(-0.157611 0.000539675 1.32752e-20)
(-0.160957 0.000964438 3.09376e-20)
(0.752968 0.120582 -4.37846e-20)
(0.764111 0.129827 0)
(1.00701 0.000973255 -3.53227e-22)
(1.00734 0.00140776 -5.74441e-22)
(1.00749 0.000844304 -7.72194e-22)
(0.972537 0.066012 -3.78623e-21)
(0.975015 0.0676376 5.88498e-21)
(1.04791 0.0459296 3.49409e-21)
(1.04882 0.0473813 -2.64698e-21)
(1.0472 0.0471087 2.52648e-21)
(1.00655 0.00098272 7.24003e-23)
(1.00636 0.000495708 7.17382e-22)
(1.02805 0.00375517 -4.99908e-23)
(1.02854 0.00350088 -7.7384e-22)
(1.02795 0.00322339 -1.02824e-21)
(0.342904 0.0114292 6.28254e-20)
(-0.102188 -0.00519375 1.72659e-20)
(-0.107721 -0.00390983 4.49831e-21)
(-0.115338 -0.00275193 1.0315e-20)
(0.947834 0.0175259 -1.01664e-20)
(0.948867 0.020345 1.15643e-20)
(1.05675 0.0456154 6.0675e-21)
(1.05492 0.0454943 -1.14515e-20)
(0.999969 0.00126029 3.76145e-21)
(1 0.000853856 0)
(0.658276 0.0370201 -3.73079e-22)
(0.69868 0.0418348 4.59006e-20)
(0.604579 0.0327343 -5.95307e-20)
(0.109883 -0.0235554 2.07502e-20)
(0.084686 -0.0213377 1.27729e-20)
(1.09578 0.179745 -2.38199e-20)
(1.09185 0.175601 -2.65749e-20)
(0.568346 0.149126 6.4963e-20)
(0.569781 0.121574 5.52166e-21)
(0.994833 0.00328712 -7.64676e-21)
(0.994336 0.00311613 -1.41371e-20)
(0.90167 0.0225896 2.41909e-20)
(0.90601 0.023696 8.52162e-21)
(0.613704 -0.0328217 0)
(0.617795 -0.0316944 2.78766e-20)
(0.682369 -0.0295791 0)
(1.03716 0.0229303 -8.71946e-21)
(1.03692 0.023751 -4.31842e-21)
(1.03595 0.0228001 2.25941e-21)
(0.961062 0.0341571 -1.09589e-20)
(0.958798 0.0351437 -3.28448e-20)
(0.959582 0.0321992 -1.65675e-20)
(0.650663 0.202104 2.72593e-20)
(0.630216 0.207529 -1.695e-20)
(0.64786 0.224897 1.17085e-19)
(0.986513 0.00542531 -2.4376e-20)
(0.985882 0.00500373 4.567e-21)
(0.127418 -0.0172981 -2.42596e-20)
(0.0947229 -0.0157396 -1.42256e-20)
(0.126328 -0.0167189 -5.63995e-21)
(0.771119 0.608092 4.68524e-22)
(0.779567 0.580944 3.63564e-21)
(0.747013 0.579682 -1.49393e-20)
(0.965464 0.022194 3.5897e-22)
(0.96605 0.0197438 -5.62636e-21)
(1.03539 0.0195285 -1.65805e-21)
(1.03532 0.0203534 -8.27348e-21)
(1.03437 0.0194319 4.49983e-21)
(1.06106 0.136091 4.40002e-22)
(1.05696 0.135708 6.858e-21)
(1.05902 0.140488 -2.59294e-22)
(1.18989 0.0334101 -8.91083e-22)
(1.19233 0.0330776 -7.55335e-22)
(1.19023 0.035583 -5.88807e-20)
(0.110555 -0.141426 -9.59148e-20)
(0.0709332 -0.149691 1.0134e-19)
(1.20731 0.00876842 0)
(1.20918 0.00974592 -6.15905e-21)
(1.209 0.00740998 0)
(1.01171 0.217389 0)
(1.01565 0.212738 -9.24401e-22)
(1.01955 0.21795 0)
(1.09526 0.104914 -1.25823e-20)
(1.09223 0.10636 1.38007e-20)
(1.09227 0.102766 -1.36172e-20)
(-0.0846924 0.0253007 5.5593e-20)
(-0.094828 0.0278766 1.57578e-19)
(-0.115557 0.0241458 -6.39182e-21)
(1.05288 0.176773 0)
(1.05674 0.17242 0)
(0.395408 -0.0258241 -7.38402e-21)
(0.438485 -0.0239908 -3.68875e-20)
(0.452801 -0.0246203 -8.88413e-21)
(-0.251492 0.00181287 4.13396e-20)
(-0.235973 0.000927581 2.73061e-20)
(0.707308 0.044176 -3.53137e-20)
(0.610694 0.0319279 7.49376e-20)
(0.93773 0.059378 -1.41088e-20)
(0.934742 0.0611694 -3.02403e-20)
(0.934702 0.0572058 -3.08205e-21)
(0.784894 -0.0153672 -9.63925e-21)
(0.778934 -0.00702405 -2.58198e-20)
(0.773417 -0.0180427 8.13027e-21)
(1.00003 0.00319034 7.59728e-22)
(1.00005 0.00307434 -2.34523e-22)
(0.999996 0.00261756 2.42968e-23)
(1.22452 0.0210882 3.96604e-20)
(1.2238 0.0236372 5.5954e-20)
(1.19862 -0.0136446 -4.91312e-20)
(1.19648 -0.0144293 -1.51282e-20)
(1.2046 -0.026024 4.69779e-20)
(1.20243 -0.0265495 0)
(1.08836 0.0492664 7.88064e-21)
(1.08736 0.0472041 7.43814e-21)
(1.19476 0.0498948 -2.36557e-22)
(1.19465 0.0475537 -2.1515e-22)
(1.1974 0.0487237 -3.81434e-20)
(1.0463 0.0359175 -1.02581e-21)
(1.04733 0.0370115 -2.97767e-21)
(1.04574 0.0369876 1.04001e-20)
(0.832944 0.00560355 2.48793e-20)
(0.828116 0.0127513 0)
(1.03826 0.215628 0)
(1.03114 0.213777 0)
(1.03716 0.208615 -1.08733e-21)
(-0.26573 0.00220544 4.69172e-20)
(-0.275277 0.00300105 -2.01322e-21)
(-0.258488 0.00219183 4.54604e-20)
(1.19827 -0.0219058 0)
(1.2001 -0.0222055 0)
(1.1992 -0.0203481 2.78337e-20)
(1.01694 0.0767182 4.32784e-22)
(1.01672 0.0789579 -5.42458e-24)
(1.01466 0.0771442 -2.13354e-21)
(0.171791 -0.0197702 4.07439e-20)
(0.168262 -0.0195004 1.15711e-20)
(0.2091 -0.0193449 2.91325e-20)
(1.00143 0.234376 -1.40668e-23)
(0.997707 0.238918 -2.43507e-22)
(1.00569 0.240003 -4.63086e-22)
(-0.0973244 -0.00527731 -4.4626e-20)
(-0.0877897 -0.00630961 -2.89361e-20)
(0.149272 0.0883779 -1.80253e-20)
(0.150457 0.125269 -1.71629e-20)
(0.132955 -0.0176129 9.22076e-21)
(0.167618 -0.0172781 1.89382e-20)
(1.01718 0.0386935 2.04811e-23)
(1.01808 0.0397375 1.23908e-22)
(1.01693 0.0398194 -2.07531e-23)
(1.18414 0.202044 -3.07372e-22)
(1.18203 0.19735 2.58008e-20)
(1.12347 0.169696 -1.39737e-20)
(1.12346 0.164814 -1.42956e-20)
(1.0383 0.0229977 3.17085e-21)
(1.03727 0.0220745 -5.2742e-23)
(1.00049 0.00594872 -2.39183e-21)
(1.00062 0.00642214 -8.86529e-22)
(0.928565 0.138463 -1.2802e-20)
(0.924809 0.133892 0)
(0.931195 0.133804 0)
(0.0627216 -0.0204331 -1.29342e-20)
(0.0608101 -0.0201493 -5.92201e-22)
(1.24068 0.226066 2.6641e-20)
(1.24481 0.224955 -2.07947e-20)
(1.24377 0.230832 1.06762e-20)
(-0.0748085 0.0260261 -9.51753e-20)
(-0.0329095 0.0339742 1.6684e-20)
(1.14711 0.0964534 1.77989e-20)
(1.14546 0.0989056 4.10401e-21)
(1.14899 0.0988324 -5.12934e-20)
(1.20921 -0.0178012 -2.41108e-20)
(1.20838 -0.0189841 2.5733e-20)
(1.2116 -0.018721 -7.14456e-20)
(0.66424 -0.023696 1.97615e-20)
(0.615592 -0.0238261 8.94869e-21)
(0.616049 -0.0251642 0)
(-0.0966644 0.0130893 6.51081e-21)
(-0.103081 0.0126302 -6.31927e-20)
(1.22927 0.262406 2.8123e-20)
(1.23087 0.256898 -1.39269e-20)
(1.23368 0.260486 -4.50673e-20)
(0.999977 0.0113372 -3.42386e-21)
(1.00004 0.0107525 -1.27587e-21)
(0.999852 0.0106348 3.03594e-21)
(0.560664 0.0600137 1.2515e-21)
(0.565387 0.0800412 1.37657e-21)
(0.541098 0.0738071 -4.69887e-22)
(0.790257 0.0450133 -3.89755e-20)
(0.789067 0.0561958 -3.32715e-20)
(1.01466 0.000649123 1.64092e-22)
(1.01405 0.00063477 5.07756e-22)
(1.03188 0.0387332 -8.43542e-22)
(1.03342 0.0391795 1.551e-21)
(0.835815 0.47882 -9.2539e-21)
(0.832172 0.452073 0)
(0.857996 0.46236 0)
(1.10389 0.495016 2.50466e-20)
(1.08917 0.46909 -3.07085e-20)
(0.913171 0.389969 -1.05978e-19)
(1.12448 0.0261513 -2.73501e-20)
(1.12666 0.0257196 1.24256e-20)
(1.12605 0.0277752 -1.39849e-20)
(1.0043 0.00127275 0)
(1.00428 0.000793652 -4.17982e-23)
(1.19088 0.0423978 9.93772e-21)
(1.18805 0.0431125 1.10923e-20)
(1.1908 0.045289 -4.80189e-20)
(1.18986 0.0308983 2.99546e-20)
(1.1874 0.0331985 0)
(-0.22029 -0.00072282 0)
(-0.222926 -0.000558726 0)
(0.652253 0.0164001 -1.5105e-20)
(0.665513 0.0155709 -6.13716e-20)
(0.734467 0.0226121 -4.58209e-20)
(0.991685 0.0177408 -1.90096e-22)
(0.991164 0.0176272 -3.66784e-21)
(0.994697 0.0426641 -2.53662e-22)
(0.995882 0.0438923 1.44312e-21)
(1.1967 0.0646238 3.70038e-20)
(1.19926 0.0633549 5.85118e-21)
(0.0512984 -0.019629 -1.13313e-20)
(0.0760517 -0.0213489 -2.52919e-20)
(0.0683494 -0.020864 3.53353e-20)
(0.96305 0.0329031 7.43257e-21)
(0.962733 0.0356212 6.77472e-21)
(0.0162474 -0.0165433 2.73479e-20)
(0.0121006 -0.0163478 2.23633e-20)
(0.0351108 -0.0179587 3.79908e-20)
(-0.250869 0.000731123 5.11709e-20)
(-0.236268 0.000540673 -1.92618e-20)
(-0.248849 0.000746892 -9.15184e-20)
(1.20857 -0.0165118 2.55359e-20)
(1.21008 -0.0161902 -3.892e-21)
(1.0228 0.0196259 0)
(1.02342 0.0204916 0)
(0.477515 0.388686 2.38787e-20)
(0.495411 0.423083 -6.52327e-20)
(0.444821 0.422945 -8.01324e-20)
(1.18974 0.0599413 -5.86593e-20)
(1.19216 0.0614346 -2.64474e-20)
(1.18933 0.0626674 -5.1292e-22)
(-0.26944 9.53335e-05 -1.37287e-20)
(-0.25111 -0.00114863 2.04602e-20)
(-0.262175 0.000840844 0)
(1.00448 0.0258213 4.28163e-21)
(1.00498 0.0264424 1.49147e-22)
(1.00451 0.0269444 0)
(0.323033 0.0555741 -3.1565e-20)
(0.294549 0.0524085 2.75261e-20)
(1.01619 0.0374752 4.3228e-22)
(1.01734 0.037522 -1.04687e-22)
(1.20719 0.152251 -5.51104e-21)
(1.20475 0.149046 4.22791e-21)
(1.20307 0.152691 2.89932e-20)
(1.01201 0.00186125 0)
(1.01172 0.00129063 -1.45286e-21)
(-0.140494 -0.0046225 -5.37907e-21)
(-0.153995 -0.00434867 3.09185e-20)
(-0.14496 -0.00419025 -5.12851e-20)
(0.0206162 -0.012754 3.45708e-20)
(0.0175641 -0.0126258 1.37676e-20)
(0.0471104 -0.0125806 4.08424e-20)
(0.992411 0.119957 -7.67341e-21)
(0.996502 0.119096 -3.88565e-22)
(1.13416 0.527484 -3.39932e-20)
(1.14212 0.525322 -2.32867e-20)
(1.14706 0.513551 1.31715e-20)
(1.09842 0.106691 -4.50148e-21)
(1.09776 0.103171 -1.24708e-20)
(1.02176 0.019311 5.29517e-22)
(1.02199 0.0185346 1.63528e-21)
(0.592025 -0.0354499 3.10343e-20)
(0.537238 -0.0342467 -3.13193e-21)
(1.19734 -0.0234085 -3.60131e-20)
(1.19644 -0.0216415 0)
(1.14543 0.0940721 2.987e-20)
(1.14857 0.0940442 3.81645e-20)
(0.0997988 -0.0222601 7.00602e-20)
(0.0795154 -0.0208559 5.26244e-20)
(0.109768 -0.0222849 2.62022e-20)
(-0.253838 0.00254807 4.72871e-20)
(-0.262774 0.00202014 -1.02879e-21)
(1.01787 0.00506112 -2.56093e-21)
(1.0185 0.00517955 8.08624e-22)
(1.01818 0.00448264 -2.53264e-21)
(1.07205 0.129342 -3.10882e-22)
(1.07047 0.13316 1.58853e-20)
(-0.159074 -0.0039457 0)
(-0.153865 -0.00407146 0)
(-0.147117 0.00985666 5.50736e-20)
(-0.163146 0.00843887 -2.14388e-21)
(-0.148644 0.00973454 2.03711e-20)
(1.00001 0.00315905 6.98904e-21)
(0.999997 0.0036925 -1.71879e-21)
(1.00836 0.0129402 9.9594e-23)
(1.00895 0.013358 -2.85981e-23)
(1.00861 0.0136134 -2.66423e-23)
(-0.0972073 0.00270257 3.03737e-20)
(-0.0847004 0.00195701 6.83613e-20)
(1.2236 0.0268611 2.16315e-20)
(1.22243 0.0251059 -2.00517e-20)
(1.23315 0.0261796 4.20293e-20)
(1.00008 0.000175776 1.05274e-22)
(1.00003 0.000134092 -1.07008e-21)
(1.00007 0.000220608 0)
(0.655713 -0.0340995 -1.28241e-20)
(0.660533 -0.0343049 6.94053e-20)
(0.718144 -0.0347147 3.48522e-20)
(1.2208 0.0994708 -2.91207e-21)
(1.22138 0.0961394 -1.62715e-20)
(1.21784 0.0974175 -9.47988e-21)
(0.794184 -0.0151173 7.01145e-20)
(0.79 -0.02487 -3.93442e-20)
(1.09718 0.156295 -1.41826e-20)
(1.09967 0.16082 -5.88423e-21)
(1.10164 0.155764 5.70193e-21)
(1.00005 0.00362612 -2.39624e-22)
(1.00007 0.00304952 -3.39752e-21)
(0.965625 0.241389 0)
(0.968021 0.231741 1.44785e-21)
(0.957767 0.234776 0)
(-0.241451 0.00161428 -6.84284e-21)
(-0.241283 0.00226917 -9.74747e-21)
(-0.258063 0.00306019 1.89578e-20)
(1.06732 0.0148087 8.56498e-21)
(1.06808 0.0139555 1.4518e-21)
(1.06901 0.0150637 1.92194e-21)
(1.19487 0.220011 -1.62215e-20)
(1.18886 0.221523 2.90177e-20)
(1.19129 0.214866 0)
(0.557721 0.166461 1.46215e-20)
(0.572038 0.187467 -3.50614e-20)
(0.542503 0.19187 -3.41651e-20)
(1.047 0.0444647 1.07639e-21)
(1.04856 0.0446306 2.22646e-21)
(0.995997 0.0388442 1.29671e-21)
(0.994898 0.0393219 -9.80748e-23)
(1.19632 0.00990901 4.29583e-20)
(1.19893 0.01026 1.45547e-20)
(1.19782 0.00788292 -3.19033e-21)
(-0.0709569 -0.000846981 1.47426e-20)
(-0.0817211 0.000649313 0)
(-0.0823956 0.000458799 2.53859e-20)
(1.20524 0.00754082 0)
(1.20541 0.0102085 0)
(0.931329 0.143459 1.48018e-20)
(0.925449 0.144126 -9.97083e-21)
(0.973298 0.119314 0)
(0.970228 0.123301 6.36586e-21)
(1.00007 0.000381115 -1.23957e-21)
(1.00007 0.000331308 6.18921e-22)
(1.00002 0.000222948 -1.37383e-21)
(-0.185298 0.00269409 0)
(-0.182053 0.00268629 0)
(0.114464 -0.00598625 -2.44928e-20)
(0.156213 -0.00632437 -1.58565e-20)
(0.155904 -0.00544342 2.186e-20)
(0.599322 -0.0397446 1.20104e-20)
(0.579032 -0.0374149 -4.08386e-20)
(0.547248 -0.0348917 2.42879e-20)
(1.02095 0.0191061 4.33738e-22)
(1.02162 0.0200133 -1.22045e-21)
(-0.227399 -0.000617777 2.94143e-20)
(-0.212066 -0.00123308 -5.8167e-21)
(-0.21705 -0.000761696 -1.4881e-21)
(-0.209091 0.00221102 0)
(-0.20761 0.00271811 -3.63084e-22)
(-0.224248 0.00377286 0)
(0.341571 -0.0267045 1.71375e-20)
(0.357456 -0.0261356 4.06936e-20)
(0.027184 -0.0154773 -3.245e-21)
(0.0123326 -0.0148618 2.18928e-20)
(1.19146 -0.0278008 0)
(1.19091 -0.0296325 -6.49058e-21)
(1.00006 0.00422637 4.03195e-21)
(1.00903 0.00112361 4.81691e-22)
(1.00853 0.00119321 -1.3454e-21)
(1.00911 0.00174684 -1.05097e-21)
(1.18519 0.0818685 4.70022e-21)
(1.18278 0.0802766 1.52154e-20)
(1.18593 0.0790862 -1.97944e-21)
(-0.169555 -0.0017069 5.43697e-20)
(-0.180972 -0.000722386 1.84575e-20)
(-0.182715 -0.000408428 1.13763e-20)
(1.23125 0.0618924 -7.92815e-21)
(1.23189 0.064333 5.89051e-20)
(1.23646 0.0621322 -2.43776e-20)
(1.09007 0.0782043 -2.07784e-21)
(1.09291 0.0775216 -1.65454e-21)
(0.636001 0.0165113 6.17621e-20)
(0.568856 0.0100643 -1.90721e-20)
(1.16194 -0.0154639 -5.48387e-21)
(1.16004 -0.0154283 -1.73917e-20)
(1.028 0.00217207 4.05249e-21)
(1.02789 0.00266082 4.90119e-21)
(1.02839 0.00245376 4.1498e-21)
(0.40049 0.0358524 0)
(0.393452 0.0310183 -2.78502e-20)
(0.323871 0.02141 0)
(1.0027 0.00678203 2.29861e-22)
(1.0027 0.00648519 -1.79346e-21)
(1.00242 0.00628391 -2.50804e-23)
(0.170936 -0.0199262 -1.68133e-20)
(0.137586 -0.0195108 -1.4741e-20)
(1.12205 0.0268698 2.69746e-21)
(1.12257 0.0248484 -1.33589e-20)
(1.00008 0.000136222 -1.17408e-22)
(1.00013 0.000215548 8.81943e-22)
(0.997942 0.136278 3.67207e-21)
(0.996262 0.141229 0)
(0.993651 0.136086 -9.16399e-22)
(1.00906 0.22316 -3.11243e-22)
(1.00516 0.21691 0)
(0.773332 0.00261666 0)
(0.783578 0.0033391 4.33941e-20)
(0.599771 -0.032999 -2.29637e-20)
(0.64603 -0.0347621 -2.85725e-20)
(0.991537 0.173266 1.44716e-21)
(0.991139 0.179831 -5.78324e-22)
(0.9853 0.174709 -1.25885e-21)
(1.06895 0.0246747 -1.33322e-20)
(1.06958 0.0261213 -2.08959e-20)
(1.06789 0.0253791 -3.85945e-21)
(1.08081 0.0989848 -3.79395e-21)
(1.08666 0.10432 5.94746e-20)
(0.988354 0.0858685 2.30117e-20)
(0.116904 -0.0230722 -4.68204e-21)
(0.0880137 -0.0220351 8.18004e-21)
(0.0784632 -0.00843736 -4.98153e-20)
(0.0822695 -0.00800835 3.21442e-20)
(1.00392 0.0254456 -9.84655e-22)
(1.00433 0.0249483 2.89265e-21)
(0.328415 -0.0242552 2.07888e-20)
(0.373088 -0.022118 -2.64808e-20)
(0.319587 -0.0236197 -1.2223e-20)
(0.998376 0.00178159 -3.4626e-21)
(0.99826 0.00210194 -8.04309e-21)
(0.998051 0.00199763 -4.13374e-21)
(1.06872 0.0232955 0)
(1.07037 0.0239369 -5.13712e-21)
(1.00162 0.0184049 -4.12092e-21)
(1.00209 0.0188692 -4.04636e-21)
(0.798372 0.638492 -3.95741e-21)
(0.753231 0.641701 -2.74726e-23)
(1.00217 0.00129476 -5.25484e-24)
(1.00236 0.0011309 -6.06926e-23)
(1.00202 0.00101336 -5.4116e-23)
(1.20945 0.155124 -3.12213e-20)
(1.21108 0.15157 -2.77073e-20)
(1.09269 0.157666 2.30902e-20)
(1.09424 0.152706 -3.1789e-23)
(1.04517 0.0346537 -2.79655e-21)
(1.04678 0.0347192 -2.91151e-21)
(1.19321 0.0418018 0)
(1.19052 0.04061 5.93322e-20)
(1.04565 0.0848971 2.36391e-21)
(1.04714 0.0829758 -8.18594e-21)
(1.04852 0.0856588 4.01802e-21)
(0.118987 0.0689293 0)
(0.106556 0.0540045 0)
(0.105024 0.08503 -6.01989e-20)
(1.00582 0.229576 5.79155e-22)
(0.99829 0.228813 2.73887e-22)
(1.17114 0.195918 -1.60748e-20)
(1.16662 0.200709 -8.37114e-21)
(1.04473 0.0260619 -5.73394e-21)
(1.04568 0.0271997 2.02411e-21)
(1.04601 0.0259619 -7.27271e-22)
(0.997044 0.0383403 2.98782e-21)
(0.996047 0.0373083 5.95882e-21)
(-0.205595 -0.000600769 -5.40749e-20)
(-0.218271 -0.000532009 2.49354e-20)
(-0.220384 -0.000573502 4.67122e-20)
(-0.178821 0.00439307 -1.50119e-20)
(-0.183495 0.0039448 -3.06742e-20)
(-0.167648 0.00202554 1.50058e-20)
(1.00195 0.0212853 1.82452e-21)
(1.00234 0.0208273 -3.4651e-21)
(1.01006 0.00105728 5.37427e-22)
(1.0107 0.00141469 8.07687e-22)
(1.01009 0.00182797 -2.93685e-22)
(0.398932 0.0342107 6.61733e-20)
(0.490976 0.0452711 -3.88099e-20)
(1.0214 0.0372809 6.5918e-23)
(1.0217 0.0386651 5.6181e-22)
(1.02282 0.038169 1.85586e-21)
(-0.182786 -0.00307065 -3.24472e-20)
(-0.193094 -0.00236167 -3.04243e-20)
(1.04368 0.0252109 2.06291e-21)
(1.04343 0.0263188 3.5341e-21)
(-0.136612 -0.00464742 -2.68288e-20)
(-0.127687 -0.00493922 -1.8027e-20)
(1.08409 0.00584282 0)
(1.08373 0.00451836 -4.93621e-21)
(1.0853 0.00516484 1.42249e-20)
(1.17762 0.379659 -2.26623e-20)
(1.16634 0.377091 -6.33943e-21)
(1.16952 0.389245 -1.94031e-20)
(1.15307 0.0488069 -1.83824e-21)
(1.1515 0.0507625 2.09988e-21)
(1.15449 0.0511146 2.33806e-20)
(0.0995386 0.31142 0)
(0.0976214 0.272553 8.98056e-20)
(0.131616 0.288706 0)
(0.941063 0.0606556 3.36076e-21)
(0.940691 0.0568984 -4.25725e-21)
(0.796976 0.0577872 -3.78158e-20)
(0.727904 0.0500883 -1.53751e-20)
(0.502441 0.298347 -4.11853e-20)
(0.476379 0.307961 -1.27525e-20)
(0.502641 0.330301 -9.04948e-20)
(1.00228 0.137198 4.99525e-21)
(1.00011 0.133016 -7.73189e-22)
(1.22647 0.0286066 2.20413e-20)
(1.22256 0.027937 -8.31019e-21)
(0.914734 0.530628 0)
(0.930386 0.549214 -1.36779e-20)
(0.901995 0.552222 -6.29563e-21)
(0.997802 0.0598475 -2.06305e-21)
(0.996074 0.0591229 4.82512e-22)
(0.996523 0.0614663 0)
(-0.120186 -0.00359912 -1.8384e-20)
(-0.134543 -0.0020341 0)
(-0.129726 -0.00258728 -1.94101e-20)
(0.575991 0.0490568 0)
(0.555757 0.0398999 0)
(-0.197053 0.00192806 -2.03832e-20)
(-0.208747 0.00203542 0)
(0.919045 0.0321565 -5.83714e-21)
(0.915306 0.033559 -5.62944e-22)
(0.918141 0.036404 -2.78717e-20)
(-0.142783 0.00334754 1.01546e-21)
(-0.16011 0.00489569 5.18651e-20)
(-0.141707 0.00402854 6.89056e-20)
(1.07586 0.129287 -7.95315e-21)
(1.07788 0.133557 -2.78313e-21)
(1.07984 0.129952 -7.52672e-21)
(-0.153579 0.00286799 -2.82667e-20)
(-0.137326 0.00333696 -6.5749e-20)
(-0.132572 0.00295036 2.91816e-20)
(0.509674 0.267847 -3.66959e-20)
(0.533711 0.291392 -2.16715e-20)
(0.901567 0.375139 1.2403e-20)
(0.885635 0.371577 -1.62044e-21)
(0.89312 0.389646 1.71711e-20)
(0.918888 0.381989 0)
(0.912172 0.363082 0)
(0.0337669 -0.0181818 -3.43348e-20)
(0.0227853 -0.0176638 0)
(0.999753 0.00343179 6.38135e-21)
(0.99969 0.00385483 -2.21223e-21)
(0.99972 0.00388549 -4.34559e-21)
(1.04542 0.215775 -4.71238e-21)
(1.04139 0.222115 2.52689e-21)
(-0.1782 -0.00182337 -2.71203e-20)
(-0.184524 -0.00165692 5.16826e-20)
(0.98263 0.0418242 8.7899e-23)
(0.981633 0.0429659 -2.15374e-21)
(0.981247 0.0409288 9.77529e-21)
(1.00267 0.0969957 -1.99721e-21)
(1.00376 0.094288 -7.52502e-21)
(1.00059 0.0944634 -4.25885e-21)
(-0.202621 0.00262129 -2.72715e-20)
(-0.199279 0.00321047 3.67791e-20)
(0.812731 0.495699 -1.79975e-20)
(0.843366 0.505334 -6.09558e-21)
(1.02169 0.0733156 -1.31421e-22)
(1.0215 0.0753267 -4.7239e-22)
(1.02383 0.0750429 -8.24501e-22)
(0.716995 -0.0216946 -5.16021e-21)
(0.714876 -0.0219089 2.06888e-20)
(0.651798 0.555877 0)
(0.678028 0.529887 3.57155e-20)
(1.01303 0.00774649 8.55329e-22)
(1.01368 0.00818123 3.47382e-22)
(1.01359 0.00745211 3.43861e-22)
(-0.166827 0.00270662 0)
(-0.184178 0.0042169 -3.31962e-20)
(0.602984 -0.0306362 -2.7173e-20)
(0.55099 -0.0316482 8.8887e-21)
(0.618621 -0.0301277 8.7461e-21)
(1.00268 0.00707193 1.04618e-21)
(1.00297 0.0073011 2.00461e-21)
(1.0138 0.019499 3.54758e-22)
(1.01307 0.0188908 -4.41982e-22)
(1.01331 0.0198059 -4.15088e-22)
(0.998362 0.00146038 5.16371e-21)
(0.998623 0.00154339 5.69391e-21)