/*--------------------------------*- C++ -*----------------------------------*\
| =========                 |                                                 |
| \\      /  F ield         | OpenFOAM: The Open Source CFD Toolbox           |
|  \\    /   O peration     | Version:  v2012                                 |
|   \\  /    A nd           | Website:  www.openfoam.com                      |
|    \\/     M anipulation  |                                                 |
\*---------------------------------------------------------------------------*/
FoamFile
{
    version     2.0;
    format      ascii;
    class       surfaceVectorField;
    location    "950";
    object      Uf_0;
}
// * * * * * * * * * * * * * * * * * * * * * * * * * * * * * * * * * * * * * //

dimensions      [0 1 -1 0 0 0 0];


internalField   nonuniform List<vector> 
20642
(
(0.715714 0.01749 3.89177e-21)
(0.728154 0.0194711 -2.35244e-20)
(0.735798 0.0261419 -8.59424e-21)
(0.969541 0.0440206 -2.22089e-22)
(0.969357 0.0450852 -4.50005e-22)
(0.970659 0.0448499 -7.46465e-22)
(1.0128 0.115974 5.59995e-21)
(1.01339 0.115017 -2.39347e-21)
(1.01264 0.114764 -7.05534e-21)
(1.02898 0.0328898 7.15651e-21)
(1.02834 0.0337987 4.16841e-21)
(1.02788 0.0325881 2.88259e-21)
(0.966271 -0.0170848 2.45345e-23)
(0.96335 -0.017449 -6.89639e-22)
(0.964778 -0.0146172 -1.72525e-22)
(0.970109 0.0425308 2.39776e-23)
(0.968606 0.0427841 3.3557e-22)
(1.03963 0.0627856 3.79841e-22)
(1.03877 0.0613996 1.13572e-21)
(1.03816 0.0627854 -3.40433e-21)
(0.966006 0.0558617 -1.50006e-23)
(0.964924 0.0556921 -1.22378e-22)
(0.965506 0.0568478 2.3236e-23)
(1.06352 0.0532328 1.04355e-20)
(1.06212 0.0537068 -3.85945e-21)
(1.06334 0.0550601 -1.8226e-20)
(0.00569403 -0.0812049 6.17805e-21)
(0.0142922 -0.0895759 -9.67901e-23)
(0.967196 0.0561373 2.26443e-22)
(0.966545 0.0549399 5.72496e-23)
(1.01475 0.0248297 3.13408e-22)
(1.01468 0.0257058 3.44709e-21)
(1.01561 0.0252943 4.56061e-21)
(1.00962 0.000480642 0)
(1.01006 0.000380795 0)
(0.95197 0.0564049 -1.67224e-21)
(0.952339 0.0560536 -2.90351e-21)
(0.949478 0.0608136 -1.35517e-21)
(0.972825 0.028606 1.16728e-23)
(0.971878 0.0297024 -5.0761e-22)
(0.973596 0.0300468 -2.49834e-22)
(0.699749 0.0156457 1.77472e-20)
(0.671688 0.00723659 1.65197e-20)
(1.01507 8.93492e-05 -1.90344e-22)
(1.01508 3.35446e-05 1.95803e-22)
(1.01079 1.45155e-05 -3.08906e-22)
(0.968396 0.0565043 2.28497e-22)
(0.969667 0.0567669 2.7257e-22)
(0.969049 0.055385 1.71742e-22)
(1.02309 0.110252 1.71621e-21)
(1.02241 0.110644 7.3354e-21)
(1.02233 0.109883 2.20621e-21)
(0.706767 0.037037 -7.80771e-21)
(0.757604 0.0452276 4.40217e-21)
(0.755265 0.0454648 -1.63413e-20)
(0.991323 0.0578508 3.12935e-21)
(0.990839 0.0590775 2.78725e-23)
(0.990126 0.0579946 2.99846e-21)
(0.99008 0.00145172 -2.08552e-22)
(0.990427 0.0023749 1.61869e-21)
(0.989476 0.00209542 -1.09691e-21)
(1.03448 0.0911827 -6.75801e-21)
(1.0357 0.0912714 -7.25028e-21)
(1.03456 0.092417 -4.46374e-21)
(0.989875 0.000176159 7.54715e-22)
(0.990619 0.000641503 -5.46743e-22)
(1.01825 0.0429379 -7.61698e-21)
(1.01862 0.0439443 6.27896e-21)
(1.01751 0.0434362 0)
(0.986301 0.0583595 1.32923e-21)
(0.987518 0.0581944 -1.13517e-21)
(0.98669 0.0571023 -1.13922e-21)
(0.985083 0.0889747 0)
(0.981859 0.0893345 3.03131e-22)
(0.982157 0.0894454 -8.48403e-23)
(0.0212044 -0.0735898 2.03766e-22)
(0.97608 0.0577816 -8.93324e-22)
(0.977462 0.0579633 -1.89395e-22)
(0.976775 0.0564957 -1.38335e-21)
(0.988996 0.00967584 -1.79951e-23)
(0.98845 0.00927173 1.23635e-22)
(0.988971 0.00883795 1.53406e-24)
(-0.0166398 -0.0596304 -1.01684e-20)
(0.00453638 -0.0713188 -6.62376e-21)
(1.04274 0.111719 0)
(1.04293 0.113225 0)
(1.04134 0.112024 -2.98841e-21)
(1.01977 0.0346998 -7.05604e-21)
(1.0193 0.0337811 0)
(1.02034 0.0339597 0)
(0.753797 0.043431 0)
(0.775246 0.0493625 -5.51059e-21)
(0.770361 0.0495578 0)
(1.02044 -0.02409 -5.6643e-22)
(1.02116 -0.0236692 0)
(1.02166 -0.0249588 0)
(0.964265 0.0551452 -7.23313e-23)
(0.963975 0.0560405 9.87913e-23)
(0.996627 0.0387747 -1.79409e-21)
(0.997287 0.0397133 6.27718e-21)
(0.996032 0.0398642 3.89261e-21)
(0.998079 -7.87265e-05 1.73421e-21)
(0.999372 -0.00010049 -1.3888e-21)
(0.997814 -9.72364e-05 5.42499e-22)
(1.04037 0.0640687 1.69472e-21)
(1.04096 0.0626486 -7.5254e-21)
(0.999428 0.0690158 5.41851e-22)
(0.999244 0.0702418 0)
(1.00058 0.0696896 0)
(1.00362 7.89576e-05 -2.29087e-22)
(1.00276 9.91277e-05 -8.32541e-23)
(1.00534 0.000531802 2.74749e-22)
(1.0491 -0.00615476 4.36336e-22)
(1.05023 -0.00630566 2.30349e-22)
(1.04942 -0.00674785 -2.22e-23)
(1.05951 0.0442643 7.21046e-21)
(1.05763 0.0445132 3.32342e-21)
(1.05859 0.0427566 1.53443e-20)
(1.02557 0.115204 6.62671e-21)
(1.02609 0.116104 -2.33295e-22)
(1.02472 0.115934 -6.00388e-21)
(1.02642 0.114346 -1.06594e-20)
(1.02506 0.114073 -7.47045e-22)
(1.00548 0.11043 -1.84664e-21)
(1.00638 0.109584 0)
(1.00643 0.111341 -3.66792e-21)
(0.991966 0.0565689 -1.04591e-21)
(0.992842 0.0576474 -5.91204e-21)
(0.374995 0.0459223 7.14241e-22)
(0.549099 0.0649483 -5.3124e-21)
(0.542967 0.0654664 -2.50674e-20)
(0.965056 0.0609349 -8.45179e-23)
(0.968397 0.0600402 3.69577e-22)
(0.959812 0.0587087 2.98883e-22)
(1.0196 -0.0235389 1.19452e-21)
(1.0201 -0.0247837 -3.06033e-22)
(1.01397 0.0244925 -1.2454e-20)
(1.01476 0.024096 -5.70192e-21)
(1.01299 0.103637 8.5355e-21)
(1.01213 0.104141 -5.92733e-21)
(1.0121 0.103016 0)
(0.455483 0.00478138 0)
(0.566972 0.0126475 0)
(0.448316 0.00315643 0)
(1.00144 0.0202539 2.01128e-21)
(1.00172 0.0195178 -9.23019e-22)
(1.00085 0.0195454 -1.4169e-22)
(1.00248 0.022545 1.33844e-21)
(1.00264 0.0217709 -2.52558e-21)
(1.00338 0.0223195 7.77042e-21)
(1.01364 0.10329 -7.88491e-22)
(1.01357 0.104312 6.63659e-21)
(0.231729 -0.0232372 -1.42342e-21)
(1.03319 0.0908354 0)
(1.03449 0.0896756 0)
(1.04794 -0.00591062 -8.0948e-23)
(1.04882 -0.00558301 -2.04054e-22)
(1.00462 0.111539 3.11042e-22)
(1.00409 0.109651 -3.11028e-21)
(0.833827 0.11675 -5.9695e-21)
(0.791659 0.115619 -6.2484e-21)
(0.773122 0.109789 0)
(1.02479 -0.032275 -3.69733e-23)
(1.02643 -0.0308866 -1.99198e-23)
(1.0258 -0.0332976 1.69558e-22)
(0.995813 0.000292661 -3.12528e-22)
(0.995806 0.000310794 -5.48939e-23)
(0.995228 0.000441549 8.32195e-24)
(1.0191 0.0422917 -4.07463e-21)
(1.01795 0.0419075 -3.07987e-21)
(1.02386 0.100916 0)
(1.0249 0.101354 3.76696e-21)
(1.02549 0.0997919 1.71909e-22)
(0.973812 0.0229724 2.24389e-23)
(0.974891 0.0212767 -2.04695e-22)
(0.975831 0.0230364 5.03684e-24)
(0.97476 0.0576024 3.66557e-23)
(0.973471 0.0574278 8.08641e-22)
(0.974179 0.0561734 7.75747e-22)
(0.964277 0.0541841 1.13582e-23)
(0.963585 0.0546916 1.26578e-23)
(0.967746 0.05757 -2.69452e-22)
(0.658242 0.0218364 3.82072e-21)
(0.64532 0.0177433 1.10307e-22)
(0.63843 0.0170004 1.0758e-22)
(1.00931 0.103236 -2.18464e-23)
(1.00995 0.103876 1.88862e-21)
(1.01152 0.102054 -4.52215e-21)
(0.740165 0.0388867 1.9618e-21)
(0.735558 0.0394625 0)
(1.03108 0.0186327 -4.70529e-21)
(1.03184 0.0193145 -5.24716e-21)
(1.03063 0.0193501 -3.10229e-22)
(1.04684 -0.00566933 -2.07942e-22)
(1.04707 -0.00637617 4.45874e-22)
(0.990392 0.0603429 -2.82395e-21)
(0.991636 0.0601493 -5.8309e-21)
(1.01056 0.043946 4.06598e-21)
(1.01081 0.0450382 5.09238e-21)
(1.00963 0.0442094 1.56116e-21)
(0.974683 -0.00621876 -2.78527e-22)
(0.973346 -0.0060323 3.59882e-22)
(0.974529 -0.00433227 6.2384e-22)
(1.04564 -0.00536205 -3.79316e-22)
(1.04661 -0.00494709 6.98188e-22)
(1.01161 0.0434802 -6.43301e-21)
(1.01031 0.0428771 -2.88784e-21)
(1.01936 0.0351427 2.86864e-21)
(1.02024 0.0354215 -1.24576e-21)
(0.990769 0.0196039 2.24374e-22)
(0.990288 0.0184763 1.7077e-21)
(0.991404 0.0186307 2.46343e-21)
(1.01483 -0.000149346 0)
(1.01505 -0.000119413 0)
(1.01067 -0.000107841 4.00913e-22)
(1.03157 0.0178598 5.4051e-21)
(1.03036 0.01786 2.79051e-21)
(0.998836 0.106521 3.83007e-21)
(0.998546 0.107465 -2.87059e-21)
(0.997069 0.108438 -1.77433e-22)
(1.00615 0.00300814 2.02894e-21)
(1.00613 0.00341414 0)
(1.00573 0.00311176 5.82464e-21)
(0.965525 0.066829 -2.39081e-22)
(0.964538 0.068712 -4.18968e-22)
(0.963537 0.0665352 -4.67454e-22)
(1.04439 0.111149 -7.5512e-21)
(1.04255 0.110251 -3.50631e-22)
(1.00594 0.00167675 1.59011e-21)
(1.00558 0.0016214 2.64354e-21)
(1.00513 0.0012125 2.05558e-21)
(0.999804 0.0676522 -1.30626e-22)
(0.998407 0.0681642 5.58867e-22)
(1.01464 0.000135662 5.45818e-23)
(1.01701 0.000122146 3.45855e-22)
(1.0188 0.00049443 1.87881e-22)
(1.01842 0.000536528 5.8558e-22)
(1.01911 0.000703394 4.60353e-22)
(1.06012 0.0459629 -1.16706e-20)
(0.961053 0.0615754 4.80361e-22)
(0.963084 0.0649192 -4.27506e-21)
(1.02423 -0.0199406 -9.63421e-23)
(1.02554 -0.0205199 -3.26727e-22)
(1.02492 -0.019373 -1.20018e-22)
(0.998101 0.0262604 -2.04032e-21)
(0.997561 0.0253189 7.71905e-22)
(0.997079 0.0262709 3.56152e-21)
(0.975398 0.0591106 -2.8573e-22)
(0.978478 0.0911994 -8.65901e-22)
(0.980244 0.089711 1.01663e-21)
(0.978037 0.0900487 -3.94591e-22)
(1.0106 -0.000625396 5.55703e-22)
(1.01029 -0.00064511 -2.02418e-21)
(1.00677 -0.000330944 1.17582e-21)
(1.00622 0.00199627 1.65579e-21)
(1.00619 0.00165648 -5.65801e-21)
(0.983703 0.0852564 -8.21593e-22)
(0.984052 0.0839051 -3.06467e-21)
(0.9828 0.0843032 -1.05851e-21)
(1.00092 0.000482773 -1.9694e-22)
(1.00121 0.00048581 1.91427e-22)
(1.00062 0.000238058 6.61326e-25)
(1.00064 0.000506909 7.44789e-23)
(1.00113 0.000801728 7.031e-23)
(0.990271 0.0203873 -5.22156e-21)
(0.991329 0.0204569 -4.60651e-21)
(1.01198 -0.00120651 2.45485e-22)
(1.01148 -0.00117839 6.66198e-22)
(1.01036 -0.00086465 6.58241e-22)
(0.976385 -0.00657297 -1.68074e-23)
(0.975232 -0.0084302 1.39165e-22)
(0.985223 0.148678 -1.41632e-22)
(0.985587 0.145406 3.08787e-21)
(0.987561 0.148117 2.56067e-21)
(0.838342 0.0799049 2.21012e-21)
(0.832295 0.0761017 -6.58588e-22)
(0.819495 0.0753936 1.92035e-21)
(1.02267 -0.0345168 3.33784e-21)
(1.02401 -0.0319652 5.44542e-23)
(1.05105 -0.00596406 2.32819e-22)
(1.05148 -0.00631035 -2.45367e-22)
(0.988315 0.0887669 0)
(0.987568 0.0877715 0)
(1.01882 0.00116884 -1.02426e-21)
(1.01904 0.00138599 3.17951e-21)
(0.800374 0.0561628 -1.16054e-20)
(0.783101 0.0504598 5.26792e-23)
(0.978794 0.058107 -8.72847e-22)
(0.978099 0.0594628 5.42318e-22)
(1.02371 0.100308 -4.42237e-21)
(1.0193 0.10116 0)
(1.0067 0.0454134 1.07086e-20)
(1.00715 0.0465165 -1.40968e-21)
(1.00767 0.0451176 2.60838e-21)
(1.02377 0.109606 4.52849e-21)
(1.02394 0.110501 -6.0457e-21)
(1.01331 0.00107189 5.192e-24)
(1.01419 0.00153084 -1.84915e-22)
(1.01402 0.00120709 1.68555e-22)
(1.01634 0.11402 -1.98211e-22)
(1.01584 0.114918 0)
(1.01717 0.114768 -3.43491e-21)
(1.03231 0.012602 7.65294e-21)
(1.03209 0.0134398 3.23541e-21)
(1.03141 0.0125768 -9.51373e-22)
(1.01702 -0.000251142 0)
(1.01431 -0.000160692 4.55334e-22)
(1.04369 -0.00616463 1.66703e-22)
(1.04264 -0.00652536 -3.33555e-22)
(1.04243 -0.00573536 5.74515e-22)
(0.972208 0.0571793 3.08356e-22)
(0.972795 0.0586162 0)
(1.02124 0.10418 -4.94975e-21)
(1.02063 0.103778 -7.04129e-21)
(1.02145 0.103386 -1.53147e-20)
(0.556273 0.0158499 0)
(0.57684 0.0234324 -8.65803e-22)
(0.566032 0.0165279 -9.15543e-22)
(1.00162 0.105373 -2.7243e-21)
(1.00091 0.106367 4.17129e-21)
(1.01981 0.0417115 3.28409e-21)
(1.02053 0.0411054 0)
(1.01952 0.0407096 2.95671e-21)
(0.989152 0.0604759 0)
(0.989988 0.0615918 0)
(1.00554 -0.0149342 0)
(1.0063 -0.0151365 0)
(1.00571 -0.0142009 0)
(1.02188 0.104458 -1.11079e-21)
(1.02114 0.104737 8.03239e-21)
(1.05756 0.0790176 -2.89478e-21)
(1.05622 0.0798967 -7.68492e-21)
(1.05796 0.0804265 -9.66966e-21)
(0.991145 0.0997258 3.54129e-22)
(0.992595 0.0994665 -8.89583e-22)
(0.991641 0.100907 5.43746e-22)
(0.905274 0.122508 -9.66742e-22)
(0.871981 0.116991 -5.89444e-22)
(0.882453 0.115693 -8.0473e-22)
(1.0056 0.0458706 4.28315e-21)
(1.00603 0.0444035 1.15077e-21)
(1.03723 0.115332 6.59371e-21)
(1.03565 0.114854 4.29631e-21)
(1.03596 0.116645 -4.42184e-21)
(0.986423 0.0889491 0)
(0.988898 0.0897367 0)
(0.744806 0.119936 5.70017e-21)
(0.813176 0.119361 5.56882e-21)
(0.822559 0.121531 1.7e-21)
(0.456194 0.0211284 -3.1071e-21)
(0.44738 0.0207027 6.14881e-22)
(0.470657 0.0287578 -3.25736e-21)
(0.983794 0.0585334 -1.00611e-21)
(0.985159 0.0584689 -1.5319e-23)
(0.984181 0.0572975 -8.30241e-22)
(0.998144 -5.75128e-05 0)
(0.786577 0.0792603 -4.14235e-22)
(0.815387 0.0610276 1.22013e-21)
(0.810104 0.071808 7.08431e-23)
(1.0447 -0.00578525 -5.48251e-22)
(1.04444 -0.00501042 -3.70481e-22)
(0.986113 0.152375 -2.74049e-21)
(0.983741 0.149057 -7.8595e-22)
(0.997886 0.00261182 -1.6768e-21)
(0.998051 0.00212227 0)
(0.99766 0.00203356 -1.09594e-21)
(1.02805 0.0172539 5.17456e-22)
(1.02863 0.0179968 -2.42084e-21)
(1.02765 0.0180576 6.9057e-21)
(1.05273 -0.0058733 8.59984e-24)
(1.05326 -0.00659702 2.00321e-22)
(1.05343 -0.00570132 0)
(1.00833 0.104102 2.46991e-21)
(1.00851 0.102559 5.35077e-21)
(0.836383 -0.00708273 -1.1362e-21)
(0.574923 0.0698191 3.75433e-21)
(0.626963 0.0766739 -2.3452e-22)
(0.455485 0.0452244 0)
(1.002 0.021063 -3.04279e-21)
(1.00105 0.0211197 5.06882e-22)
(1.00013 0.0665086 1.69567e-21)
(1.00042 0.0653256 2.32394e-21)
(0.999106 0.0656401 -1.62925e-21)
(0.999241 0.000472533 1.3031e-24)
(0.999583 0.00053614 9.39303e-24)
(0.999378 0.000852875 2.92987e-23)
(1.02748 0.016575 -3.25395e-21)
(1.02837 0.0164549 -9.60992e-22)
(0.979286 0.0917686 1.28842e-22)
(0.977478 0.0923684 -3.75385e-22)
(0.987797 -0.0102328 8.75841e-22)
(0.986718 -0.0107138 2.20971e-22)
(0.987654 -0.0116644 -4.74366e-22)
(1.01251 -0.00129268 -1.51014e-21)
(1.01269 -0.00171448 -7.31268e-22)
(0.850812 0.119588 2.36655e-22)
(0.838825 0.11915 9.107e-22)
(0.815232 0.112975 5.23648e-22)
(1.00943 0.000649857 1.5182e-22)
(1.0091 0.000650244 0)
(1.00651 0.000275897 1.7665e-22)
(1.0125 0.000927043 -2.09063e-22)
(1.01175 0.00066046 -4.88646e-22)
(1.00288 0.00497471 1.87045e-21)
(1.00277 0.00536398 -1.21685e-21)
(1.00248 0.00487293 6.4431e-22)
(1.02058 0.110459 -7.52214e-21)
(1.02596 0.110275 5.35344e-21)
(1.0059 0.108017 -4.03981e-21)
(0.986954 0.0406995 -3.08144e-21)
(0.988264 0.0406502 1.52132e-21)
(0.987293 0.0394635 4.88879e-22)
(0.762888 0.0870741 0)
(0.870126 0.101939 -1.79841e-20)
(0.863785 0.101031 -3.4367e-21)
(0.893006 0.10381 -1.89284e-20)
(0.981736 0.0871888 -9.66839e-22)
(0.982701 0.0866809 1.07886e-22)
(0.981672 0.0860959 -4.27673e-23)
(0.46112 0.00313618 0)
(0.64658 0.0792581 2.00258e-21)
(0.743353 0.0914786 -1.45987e-22)
(0.665684 0.0827095 1.36416e-21)
(0.993892 0.00177104 1.37795e-22)
(0.993805 0.00197153 -1.53308e-22)
(0.993675 0.00167852 -5.29165e-24)
(0.982366 0.0583696 2.61659e-21)
(0.98328 0.059793 1.72435e-22)
(0.989139 -0.000505854 7.99347e-22)
(0.988288 -0.00116497 8.10443e-22)
(0.988257 0.00015813 -6.27021e-22)
(0.927621 0.104521 3.0074e-22)
(0.92829 0.107771 3.24217e-22)
(0.895811 0.0998509 -2.68671e-22)
(1.0639 0.0515535 0)
(0.90258 0.11885 0)
(0.871228 0.117647 -6.05493e-21)
(0.884568 0.12115 1.21546e-21)
(1.01016 0.0926857 1.4354e-21)
(1.01107 0.0924271 -3.9063e-21)
(1.01063 0.0936553 3.37854e-21)
(1.00398 0.000642981 1.73358e-22)
(1.00503 0.000982418 -6.97075e-23)
(1.0042 0.00059713 -8.33084e-23)
(1.02998 0.0333857 -3.27662e-21)
(1.02961 0.0322384 -2.43197e-21)
(1.01147 0.104712 3.84608e-21)
(1.01074 0.105448 9.66172e-21)
(1.01052 0.104284 5.59482e-21)
(1.05889 0.0777613 9.6167e-21)
(1.05714 0.0773135 5.9432e-21)
(0.986604 0.0419744 -1.87673e-22)
(0.985708 0.0407156 -9.09991e-22)
(1.05624 0.0445858 -1.16471e-20)
(1.05538 0.0431718 7.08586e-21)
(1.05439 0.0447621 1.62949e-20)
(0.989951 -0.00102622 -4.77227e-22)
(1.01333 0.0241477 -4.43796e-21)
(1.01326 0.0248743 -5.99054e-21)
(1.01549 0.108879 2.71518e-21)
(1.01593 0.108477 -2.85446e-22)
(1.0158 0.10914 1.45732e-20)
(1.01677 0.113199 -1.73398e-22)
(1.01557 0.113234 3.8076e-23)
(0.990425 0.0984505 3.84273e-22)
(0.989263 0.0998872 1.63206e-21)
(1.01332 0.0233606 5.83802e-21)
(1.01257 0.0237557 2.84946e-21)
(1.01498 0.109531 5.38298e-21)
(1.01479 0.108698 -7.24812e-21)
(0.989234 0.0105019 0)
(0.989714 0.00992495 5.21055e-24)
(0.966611 0.0653986 -4.26369e-22)
(0.967504 0.0672185 2.07606e-22)
(1.00927 0.0918112 1.75365e-21)
(1.00896 0.09314 7.76208e-21)
(1.0272 0.113541 2.99189e-22)
(1.02782 0.114498 -9.50876e-21)
(1.01696 0.107137 1.34131e-20)
(1.01726 0.106775 7.92296e-21)
(1.01672 0.106616 4.95936e-21)
(0.734022 0.0218969 -3.94111e-21)
(0.750082 0.0301683 1.12798e-20)
(0.741302 0.0256011 1.05293e-20)
(1.02382 -0.0206289 2.97872e-22)
(1.02339 -0.019549 1.3357e-22)
(0.583854 0.0190415 7.64623e-22)
(0.594694 0.024914 3.33102e-22)
(0.574481 0.0174495 -1.89968e-22)
(1.01885 0.0563613 -2.10923e-22)
(1.01788 0.0569301 -3.67684e-21)
(1.01793 0.0556319 -3.78564e-21)
(0.935112 0.126202 -1.0732e-22)
(0.927093 0.128042 8.48116e-22)
(1.02223 -0.0234241 0)
(1.02091 -0.0226484 0)
(0.98884 -0.00979602 2.5707e-22)
(0.988022 -0.00881803 6.88309e-22)
(0.993904 0.055154 0)
(0.99484 0.0560243 0)
(0.99503 0.0546544 0)
(0.654426 0.0166718 2.75422e-21)
(0.650175 0.0174631 -2.14433e-21)
(0.669653 0.0217972 -2.402e-21)
(0.461426 0.0197923 -2.5372e-21)
(0.434041 0.012892 5.85847e-23)
(0.994109 0.0342234 -9.12583e-22)
(0.993706 0.0352238 -1.98191e-21)
(0.992975 0.0341987 -3.42534e-21)
(0.980492 0.0899713 -4.83377e-22)
(0.981464 0.0908292 1.03182e-21)
(0.979597 0.0908624 -1.80914e-22)
(0.979323 0.0508855 -8.56608e-22)
(0.978539 0.0497797 1.94708e-23)
(0.979981 0.0497332 2.82587e-22)
(1.00113 0.067294 -5.79102e-22)
(1.04494 -0.00655132 -1.76412e-22)
(1.01226 0.105102 -1.2502e-20)
(0.990011 0.0173108 -1.86933e-21)
(0.989259 0.0181874 -4.26075e-22)
(1.00761 -0.0102644 1.04308e-23)
(1.00761 -0.00972133 0)
(1.00818 -0.0103689 -2.10303e-22)
(0.955832 -0.0259263 -3.68653e-22)
(0.959588 -0.026438 1.92126e-22)
(0.957915 -0.023061 0)
(0.953209 -0.0285903 -2.56401e-22)
(0.951462 -0.024836 -1.52124e-22)
(0.689784 0.0774907 2.86251e-21)
(1.0383 0.114365 3.8257e-21)
(1.03855 0.11576 1.1006e-20)
(0.985936 0.0595988 2.29743e-21)
(0.981735 0.0968316 -1.03734e-21)
(0.981042 0.097954 1.78723e-22)
(1.00319 0.10022 -8.13941e-21)
(1.00071 0.000117776 1.85458e-21)
(0.999824 0.000161837 -2.64727e-21)
(1.00132 0.000197326 3.534e-21)
(1.029 0.0041428 -1.96431e-24)
(1.02963 0.00389449 -1.7546e-22)
(1.02856 0.00363019 -5.20866e-23)
(1.02937 0.00463366 -7.04324e-22)
(1.02839 0.0044109 2.73266e-22)
(0.627036 0.0758456 1.48682e-21)
(1.01626 0.108125 -9.71234e-21)
(1.01663 0.107537 1.52266e-21)
(1.01592 0.107594 -4.23026e-21)
(1.01467 0.11019 5.34314e-21)
(1.0146 0.110899 -3.51379e-21)
(1.01379 0.110116 -3.78634e-21)
(1.01607 0.00395235 -4.68082e-21)
(1.01623 0.00442759 8.77148e-21)
(1.0166 0.00401486 -1.90017e-21)
(0.995827 0.000239436 -9.83755e-23)
(0.996891 0.000147368 -5.3311e-24)
(0.978101 0.0866247 -1.42777e-22)
(0.979957 0.0890932 0)
(0.591424 0.0200706 -8.08434e-23)
(1.0264 0.00300185 -3.0015e-22)
(1.02702 0.00328809 -2.75351e-22)
(1.02704 0.00286356 -1.98236e-22)
(1.02576 0.00270562 9.03386e-22)
(1.02573 0.00308855 -1.21174e-22)
(1.00545 0.000193886 -1.39685e-22)
(1.00254 -8.56332e-06 1.88195e-22)
(1.02978 0.00516457 -5.79055e-22)
(1.03051 0.00495037 -8.46645e-23)
(1.03014 0.00577733 0)
(1.02916 0.00545321 -1.4399e-22)
(0.724306 0.0325545 1.4442e-21)
(0.738667 0.0367418 2.09211e-21)
(0.766528 0.0875292 7.45306e-21)
(0.764611 0.0868145 -6.16768e-21)
(0.8028 0.0885118 7.80616e-21)
(0.989464 0.0101721 -9.63428e-22)
(0.990092 0.00956337 0)
(0.990194 0.0106013 -1.65714e-21)
(0.993103 0.0032434 -3.16533e-24)
(0.993029 0.00355513 8.27788e-24)
(0.993343 0.00358699 3.41667e-25)
(1.0172 0.0979095 3.12572e-21)
(1.01635 0.097347 -8.46447e-22)
(1.0173 0.0969859 9.50658e-21)
(0.701815 0.0370303 -3.40157e-22)
(0.691386 0.0316202 -4.89402e-22)
(0.708994 0.0373588 1.87732e-21)
(1.01317 0.000652426 0)
(1.01135 0.000468537 0)
(1.01107 0.000452923 -2.12375e-22)
(1.01558 0.00395433 -9.07666e-21)
(1.01589 0.00355656 1.36835e-22)
(0.981469 0.0893507 -2.8185e-22)
(0.983212 0.0889476 -2.63699e-22)
(0.98654 0.155612 6.22927e-22)
(0.987589 0.159367 2.16709e-21)
(0.984935 0.156363 2.18497e-21)
(1.01652 0.108371 -2.18853e-22)
(0.9848 0.0964456 -7.25246e-21)
(0.957716 0.0927881 -5.77902e-21)
(1.00743 0.0983008 8.06908e-23)
(1.00646 0.0976759 8.24119e-21)
(1.00636 0.0988455 4.23744e-21)
(0.998084 0.0030479 2.55389e-22)
(0.997704 0.00301146 4.12593e-22)
(0.808828 0.0939092 1.5952e-21)
(0.816861 0.0952942 -1.16223e-21)
(1.01791 0.0986095 8.50006e-21)
(1.01695 0.0989247 2.3643e-21)
(0.979926 0.0582006 -1.79951e-21)
(0.97921 0.0569571 1.21479e-21)
(1.02951 0.105207 3.0564e-21)
(1.02847 0.105472 -3.74051e-21)
(1.02929 0.106329 1.7307e-21)
(0.994475 0.0332392 -3.33415e-21)
(0.995209 0.0341783 -2.17661e-21)
(0.784353 0.0866814 1.96306e-20)
(1.03195 0.0141977 0)
(1.03123 0.0141455 0)
(1.03178 0.0149908 0)
(1.01 0.0770444 -4.69357e-21)
(1.00925 0.0775722 0)
(1.01044 0.0778823 0)
(1.01182 0.0918048 1.95295e-21)
(1.01279 0.0909541 6.79764e-21)
(1.0115 0.0906517 7.72149e-22)
(0.987948 0.0092144 -7.54217e-22)
(0.988794 0.00974865 -1.00448e-21)
(0.988542 0.00860952 4.52293e-22)
(1.00266 0.000139082 1.05347e-22)
(1.02012 0.042732 3.07991e-21)
(0.97499 -0.0241739 -1.45849e-22)
(0.976874 -0.0228266 -6.49001e-23)
(0.977253 -0.0253833 -1.50272e-22)
(1.03142 -0.02406 1.22256e-22)
(1.03054 -0.0247183 1.6977e-22)
(1.03202 -0.0253875 -1.95248e-22)
(0.61486 0.0370774 1.57315e-22)
(0.604118 0.0310276 4.1435e-22)
(0.595003 0.0305517 -1.07999e-22)
(0.907891 0.0545095 4.732e-21)
(0.937676 0.0508191 -2.77833e-22)
(0.951797 0.0525666 -2.72651e-22)
(1.04216 -0.00996747 -2.15002e-23)
(1.04093 -0.0103556 1.89097e-22)
(1.0408 -0.00939929 1.90827e-22)
(1.02563 0.00226197 2.75448e-22)
(1.02512 0.00242278 4.14277e-22)
(0.985762 -0.00968501 0)
(0.985588 -0.0111698 1.58349e-22)
(1.02614 0.0021006 -3.14747e-22)
(1.02544 0.00188482 -3.30244e-22)
(1.03285 0.0142346 6.43372e-21)
(1.01243 0.000783005 0)
(1.00892 0.000450416 0)
(1.02624 0.078706 -2.44819e-20)
(1.02622 0.0799938 -2.3819e-21)
(1.02502 0.0794154 -7.6346e-21)
(1.04339 -0.00961162 -6.62453e-22)
(1.04356 -0.0106161 -4.34236e-22)
(0.431817 0.0273601 -6.10166e-24)
(0.45265 0.0357955 1.3523e-22)
(0.843035 0.0832396 0)
(0.861727 0.0848055 0)
(1.01006 0.0187471 -1.3748e-21)
(1.0107 0.0183582 6.639e-21)
(1.00985 0.0179956 2.77401e-21)
(0.97849 -0.0176201 -2.77874e-22)
(0.976661 -0.0182072 1.74078e-22)
(0.976812 -0.0160808 -5.99492e-23)
(1.0041 0.112624 -3.96125e-22)
(1.00256 0.111953 1.3405e-21)
(1.00308 0.113918 -4.09622e-21)
(1.02408 0.0109202 -1.43031e-23)
(1.02404 0.0116271 4.23812e-23)
(1.02333 0.0108921 1.47893e-22)
(0.984421 0.0819124 1.30055e-21)
(0.984617 0.0830313 -5.64194e-22)
(0.985563 0.0820395 2.28049e-21)
(0.63593 0.0440059 -6.82519e-22)
(0.626494 0.0434492 8.74872e-22)
(1.02409 0.010293 -6.86199e-23)
(1.02489 0.0110109 -1.59391e-22)
(0.6753 0.0269423 1.37382e-21)
(0.667813 0.0263648 1.67301e-21)
(1.03223 -0.023281 5.80421e-22)
(1.03078 -0.022733 3.45371e-22)
(1.02634 0.110856 -4.29815e-21)
(1.01981 0.11101 -2.13879e-21)
(1.00362 0.00062026 7.54722e-23)
(1.00262 0.000282952 -1.35009e-22)
(0.974822 0.0265111 1.8666e-22)
(0.974272 0.0249933 -1.76638e-21)
(0.975854 0.0253089 1.16629e-21)
(0.987075 0.00892493 2.85342e-22)
(0.987377 0.0100287 -3.85311e-21)
(0.997699 -2.90059e-05 -4.24235e-22)
(0.997957 -0.000618987 -2.09582e-21)
(0.998128 -3.40399e-05 -4.85343e-22)
(1.01951 0.108278 3.00705e-24)
(1.01981 0.108248 -6.01686e-21)
(1.01961 0.108547 2.39926e-24)
(1.00252 -0.00045527 -7.1494e-22)
(1.00213 -0.000418659 1.26128e-21)
(1.00017 -0.000221383 -1.11857e-21)
(0.980804 0.0878292 -1.02848e-21)
(0.981834 0.0880485 6.63465e-22)
(1.0125 0.0613037 3.41387e-21)
(1.01146 0.0618854 -8.35793e-22)
(1.01167 0.0605004 3.1903e-21)
(1.05237 -0.00493964 5.81926e-22)
(1.05158 -0.00589554 4.51189e-22)
(0.983153 0.0925086 -4.04558e-22)
(0.98302 0.0913706 1.97033e-21)
(0.983901 0.091899 9.9349e-22)
(0.420247 0.0198474 -3.79091e-21)
(1.01468 0.00087495 5.66503e-23)
(1.0143 0.000911913 -1.76335e-22)
(1.02573 0.0916936 -5.38851e-21)
(1.02588 0.0927701 4.02488e-21)
(1.0269 0.0921177 2.59211e-21)
(0.970772 -0.0212993 0)
(0.972915 -0.022807 -9.65448e-23)
(0.972829 -0.0197877 0)
(1.0047 0.0462254 -3.83797e-21)
(1.00365 0.0464937 -1.74081e-21)
(1.00408 0.0451816 -1.73621e-21)
(0.968145 -0.0191559 1.84919e-22)
(0.968904 -0.0161837 1.98483e-22)
(1.01247 0.0430978 -7.3392e-21)
(1.01264 0.0441754 -3.3359e-21)
(1.02674 -0.0210669 2.15091e-22)
(1.02804 -0.0216229 -1.33087e-22)
(1.02744 -0.0204439 3.99687e-22)
(1.00406 -0.000745112 -4.66361e-24)
(1.00274 -0.000471988 2.41884e-22)
(1.00843 0.103729 -1.06783e-21)
(1.00876 0.104874 7.96137e-21)
(1.00952 0.103937 -6.42792e-21)
(0.98542 -0.0523172 3.86257e-22)
(0.986445 -0.0575667 2.95682e-22)
(0.988073 -0.0560771 -3.7834e-22)
(1.01098 0.0763215 -8.44424e-21)
(1.00968 0.0760669 -5.37853e-21)
(1.01339 0.042719 8.7308e-23)
(1.01228 0.0421673 6.81968e-21)
(1.0152 0.0038882 -6.06095e-22)
(1.01507 0.00345322 6.29857e-21)
(1.01476 0.00379605 5.37476e-21)
(0.862653 0.118881 9.94367e-22)
(0.88586 0.125157 -3.63562e-22)
(0.651318 0.0130422 4.09898e-21)
(0.615573 0.0107591 1.90528e-21)
(1.00852 -0.0155244 -3.41735e-22)
(1.00926 -0.0155969 7.19052e-22)
(1.00857 -0.0147624 8.1322e-22)
(1.012 0.0317986 -9.23818e-23)
(1.01148 0.0325469 -6.99242e-23)
(1.01098 0.0314751 2.82498e-23)
(1.00533 0.0471855 -1.82499e-21)
(0.892185 -0.0586504 -5.2848e-22)
(0.896997 -0.0664879 4.40348e-23)
(0.917082 -0.062402 4.46996e-23)
(1.02675 0.131128 -2.86779e-21)
(1.02518 0.131957 -1.73673e-20)
(1.02735 0.132974 -3.93674e-21)
(0.865361 0.0805089 -1.22327e-20)
(0.848242 0.0751389 -1.62087e-21)
(0.841682 0.0754027 -9.32848e-21)
(0.915553 0.118608 -5.23308e-21)
(0.931301 0.120131 1.01463e-20)
(0.973117 0.0173147 -7.00308e-24)
(0.974167 0.0193718 5.77351e-23)
(0.971927 0.0189267 -1.39233e-22)
(0.994496 0.0992207 3.15626e-21)
(0.993806 0.0978859 -1.00891e-21)
(0.980043 -0.0169265 8.25691e-23)
(0.980053 -0.0189548 -9.86729e-23)
(1.00039 0.108441 0)
(1.0001 0.106687 0)
(0.856218 -0.0494426 0)
(0.887924 -0.0509015 -1.49394e-21)
(1.01203 0.116816 6.79857e-21)
(1.01316 0.11699 -1.73916e-22)
(1.013 0.000788145 -5.05735e-21)
(1.0092 0.000268855 0)
(0.973794 0.02757 2.65898e-22)
(0.972157 0.0271504 1.33309e-21)
(0.982465 0.0896773 1.18294e-21)
(0.98715 -0.00455831 -5.55937e-22)
(0.98762 -0.00340453 7.18653e-22)
(0.986537 -0.00360201 -1.29193e-21)
(0.969416 0.0463994 2.72039e-22)
(0.96825 0.0456488 3.39277e-22)
(1.0279 0.11271 1.05638e-20)
(1.02658 0.112571 1.01744e-20)
(1.01481 0.00018128 -1.29495e-21)
(1.01406 0.00016117 1.67656e-22)
(1.01058 5.33814e-05 -1.24469e-22)
(0.948248 0.108468 0)
(0.924104 0.101841 -7.59017e-22)
(1.00618 0.00228311 -7.76269e-22)
(1.00614 0.00268358 1.00072e-21)
(1.00585 0.00239575 -1.60443e-21)
(1.06984 0.0959008 0)
(1.07052 0.0981508 -1.32429e-20)
(1.02053 0.0197996 6.51485e-23)
(1.01954 0.0195888 1.22615e-22)
(1.02019 0.0205693 2.08419e-23)
(0.569324 0.0286219 0)
(0.578369 0.0202149 3.67991e-21)
(1.0049 -0.00394014 -3.38867e-22)
(1.00519 -0.0039874 9.18015e-23)
(1.00492 -0.00362123 2.02746e-21)
(1.01184 0.075832 1.98987e-21)
(1.01161 0.0747992 3.57704e-21)
(1.01271 0.075273 8.41715e-23)
(0.978843 0.0518867 -9.60705e-22)
(0.98033 0.0517935 -2.88907e-22)
(0.972644 0.0151852 3.14086e-23)
(0.974532 0.0161102 1.36055e-23)
(1.01712 0.000562614 -9.34747e-22)
(1.01576 0.000355097 -6.47139e-22)
(1.02994 0.107046 9.776e-21)
(1.03067 0.107885 -7.71254e-21)
(1.03109 0.106773 9.85993e-21)
(0.984274 0.136728 5.45586e-22)
(0.984016 0.136081 -2.4262e-21)
(0.984407 0.133611 0)
(0.999811 0.0260421 3.19124e-21)
(0.998902 0.0261906 7.80575e-22)
(0.999388 0.02508 3.66594e-21)
(0.986754 -0.0057149 8.73059e-22)
(0.987861 -0.00545025 9.61863e-22)
(0.818162 0.0612248 -5.55481e-21)
(0.825451 0.0620052 -2.8606e-21)
(0.984741 0.142487 -2.35392e-22)
(0.984204 0.139046 3.77984e-22)
(0.983408 0.141943 -2.31832e-22)
(1.02315 0.118185 9.36616e-21)
(1.02293 0.117313 2.91492e-21)
(1.02398 0.117787 7.68739e-21)
(0.952266 0.0575262 -5.5181e-22)
(0.953818 0.0537847 -5.16278e-22)
(1.02414 0.00965868 3.42593e-22)
(1.02332 0.00961145 -2.22473e-23)
(0.991272 0.0131716 4.4968e-21)
(0.991838 0.0124875 5.17591e-23)
(0.992054 0.0134598 1.88697e-21)
(0.9881 0.162903 2.17601e-21)
(0.989193 0.16676 -1.86078e-21)
(0.986784 0.16395 -2.97916e-23)
(0.995831 0.0990734 8.68918e-22)
(0.994885 0.100639 3.176e-21)
(1.02505 0.00974509 3.36108e-22)
(1.02432 0.00900602 6.59224e-22)
(0.968075 -0.0225074 0)
(1.00794 0.02253 1.32492e-22)
(1.0079 0.0233432 -1.19385e-21)
(1.00729 0.0226923 -2.56314e-21)
(0.984787 0.0683091 2.21756e-21)
(0.983474 0.0687255 -2.85502e-22)
(0.984581 0.0697691 6.60883e-23)
(1.01209 0.0767679 -1.7806e-23)
(1.01751 0.105249 7.95019e-21)
(1.01803 0.104922 -2.07208e-22)
(1.01746 0.104561 3.79064e-21)
(1.0001 0.0945995 4.78529e-21)
(1.00031 0.0933641 2.45791e-21)
(1.00145 0.0941268 -5.09063e-22)
(0.984617 0.0806061 -1.62497e-21)
(0.9833 0.0815318 -9.75186e-22)
(1.0642 0.0945941 1.18286e-21)
(1.06248 0.094694 6.87526e-21)
(1.06317 0.0965223 8.87548e-21)
(0.779985 0.0453427 -4.75701e-22)
(0.762749 0.0387474 4.19763e-21)
(0.772883 0.0437981 4.48562e-21)
(1.00532 -0.0156603 -9.18824e-22)
(1.00477 -0.0146712 0)
(1.00024 0.0270177 -1.11564e-21)
(1.00071 0.0259119 0)
(0.962002 -0.0192308 5.9765e-22)
(0.960525 -0.0167446 -4.22752e-22)
(1.01877 0.109258 -3.78257e-21)
(1.01872 0.109665 0)
(1.01815 0.109248 0)
(1.01206 0.000352861 1.78282e-22)
(1.00859 0.000160653 2.08096e-22)
(1.0126 0.000328769 1.84608e-22)
(0.701557 0.0153338 -3.82543e-21)
(1.06595 0.094917 1.23277e-21)
(1.06497 0.0931872 1.59179e-22)
(0.996782 0.0537516 -2.57328e-23)
(0.999809 0.0458742 -4.47175e-23)
(1.00172 0.0227679 0)
(1.00247 0.0232833 0)
(0.997101 0.0971979 3.14739e-21)
(0.997004 0.0984913 2.68202e-21)
(0.998374 0.0978122 6.51152e-21)
(1.01299 0.0321388 -8.4883e-23)
(1.0125 0.0310831 -1.09771e-23)
(0.957399 0.0611756 -6.17865e-22)
(0.953425 0.0603815 -1.50082e-22)
(0.958547 0.0635062 -3.0402e-22)
(1.05051 -0.00410128 -2.75741e-22)
(1.05051 -0.00463094 -6.42367e-22)
(1.04952 -0.00418269 -2.24324e-22)
(1.01538 0.110244 9.21594e-21)
(1.00558 0.113305 8.05501e-21)
(0.977394 0.0523812 -6.57164e-22)
(0.978454 0.0533995 5.33434e-22)
(1.00945 0.0190739 -5.26827e-21)
(1.01031 0.0194908 1.80648e-22)