/*--------------------------------*- C++ -*----------------------------------*\
| =========                 |                                                 |
| \\      /  F ield         | OpenFOAM: The Open Source CFD Toolbox           |
|  \\    /   O peration     | Version:  v2012                                 |
|   \\  /    A nd           | Website:  www.openfoam.com                      |
|    \\/     M anipulation  |                                                 |
\*---------------------------------------------------------------------------*/
FoamFile
{
    version     2.0;
    format      ascii;
    class       surfaceScalarField;
    location    "800";
    object      phi;
}
// * * * * * * * * * * * * * * * * * * * * * * * * * * * * * * * * * * * * * //

dimensions      [0 3 -1 0 0 0 0];
oriented        oriented;


internalField   nonuniform List<scalar> 
20580
(
-0.119434
0.00364432
0.115784
0.12385
-0.243123
0.119297
0.252915
-0.129046
0.00595685
0.00278221
-0.00873857
0.584003
-0.619379
0.0355565
0.255948
-0.180724
-0.0751948
-0.2914
0.0379421
0.575528
-0.577796
0.00246078
-0.0271954
0.0245545
0.00263984
0.420224
-0.235629
-0.184548
0.141299
0.00389187
-0.145178
-0.518838
0.308282
0.210631
-0.197588
0.282076
-0.0844594
0.0188506
-0.00808938
-0.01076
0.185827
-0.0375571
-0.148272
-0.105087
0.0985281
0.00654559
0.0079286
0.00593617
-0.0138663
-0.171497
0.353369
-0.181821
0.0893519
-0.0990336
0.0096825
-0.110879
-0.00856356
0.056159
-0.183341
0.127179
0.232582
-0.193987
-0.0385476
0.0292486
-0.0544855
0.0252391
-0.584527
0.591799
-0.00724575
0.0739006
-0.0949612
0.0210624
0.00808824
0.107164
-0.115264
-0.00832371
-0.0675234
0.0758458
-0.0861361
0.0725633
0.0135723
-0.00670779
0.0326494
-0.0259421
0.482758
-0.320061
-0.162595
-0.00226258
-0.000664391
0.00292715
-0.225536
-0.0659071
-0.111652
0.119109
-0.00745519
0.0485095
-0.0413911
-0.00711888
-0.153283
0.143525
0.00976286
-0.025851
-0.00509027
0.0309427
-0.615174
0.0306524
0.000373002
-0.0732891
0.0729179
-0.00916332
0.021353
-0.0121895
-0.120406
-0.167142
0.287625
-0.0245304
-0.00628867
0.0308192
-0.0349228
0.0282152
0.0176836
-0.0176834
0.0892962
0.0035491
-0.0928375
0.0339641
-0.0406343
0.00666946
0.448975
-0.271633
-0.17724
-0.537058
-0.068785
-0.122393
0.0399086
0.0824804
-0.0432791
-0.211911
0.255257
-0.29705
0.0994865
-0.000107688
-0.000448419
0.000556097
0.155498
-0.286647
0.131176
-0.100075
-0.00502531
-0.0392691
-0.130122
0.169372
0.0174188
-0.000903488
-0.0165152
0.10853
-0.228877
0.0034122
-0.115064
-0.0321561
0.00762631
-0.0130757
0.0822044
-0.0691338
-0.0080393
0.0126365
-0.00459559
-0.350207
-0.168551
0.0737898
-0.0821153
-0.209097
-0.205635
0.414764
-0.188507
0.145287
-0.0377353
0.0898369
-0.0520966
-0.0799354
0.0422048
-0.0102809
0.00224171
-0.0932822
0.0614576
0.353122
-0.241687
-0.111358
0.00378745
0.00279503
-0.00658171
0.00344034
0.00066065
-0.00410185
0.15991
-0.175719
0.0158068
-0.041945
-0.214165
0.256162
0.011978
0.000659665
0.171797
-0.01057
-0.161241
0.221521
-0.208389
-0.0130823
0.0160233
-0.00809324
0.340914
-0.524399
0.183573
0.0938522
-0.0199488
0.44873
-0.222964
-0.225652
0.239336
0.11386
-0.10538
0.112117
-0.00673662
-0.027764
-0.125501
-0.0132476
0.0170854
-0.00383626
0.0129142
-0.00093545
0.00242548
-0.00151086
-0.000914142
0.0715309
0.161093
0.0216035
-0.00369974
-0.0179052
0.238047
0.137679
-0.375673
-0.00251624
0.000253731
0.268295
-0.112777
-0.296955
0.0713803
0.00711663
-0.00711724
0.00449001
-0.00206342
0.00806278
-0.0146118
0.00654876
0.0317562
0.0647391
-0.0964875
0.136845
-0.345975
0.209231
-0.0916043
0.100247
-0.00865013
-0.00595312
0.00577259
0.000180484
0.00856113
0.0989871
-0.107542
-0.104499
0.0128898
0.120644
-0.0418999
-0.0787464
0.0782081
-0.119193
0.0409829
-0.159088
-0.0894196
0.248549
-0.468101
0.135768
0.332429
0.127153
-0.16447
0.0373152
-0.169357
-0.298631
0.00394208
-0.000502104
-0.0673708
-0.229623
-0.334987
0.163544
-0.0176887
0.153467
-0.135745
0.329887
0.119203
-0.0979659
0.10799
-0.0100268
0.0191811
0.10433
-0.123505
-0.107688
0.106884
0.000800562
0.165795
-0.20508
0.164793
-0.39541
0.230745
0.464996
0.11072
-0.00356402
0.00952091
0.00411007
-0.000321662
0.0651438
-0.101253
0.0361208
0.160093
-0.415521
0.255524
-0.277651
0.284371
-0.00665935
0.0144379
0.000390728
-0.01483
0.0792048
-0.10364
0.0244359
0.0304452
-0.0668227
0.0363728
0.337575
-0.200608
0.0613841
0.0870558
-0.14842
0.0263581
0.00456481
-0.030923
0.145562
0.0120589
-0.157617
-0.198934
0.00498921
-0.125777
0.181366
-0.0555524
-0.0767703
0.0771434
0.0340184
0.0144904
0.00354272
0.137764
-0.00811957
0.0154434
-0.00732541
-0.0521434
-0.0012363
-0.000274508
-0.0183823
0.126771
-0.108389
-0.161179
0.029082
0.132091
-0.101504
-0.00388402
0.251602
-0.222605
-0.02897
-0.0568665
0.29496
-0.079467
0.00503526
0.0744289
-0.00672666
-0.0637783
0.0705059
-0.046154
0.232345
-0.186144
0.513383
-0.172379
0.00382666
0.0311273
-0.0250031
-0.0061234
-0.0583551
0.119753
-0.0479975
-0.0565056
-0.103585
0.00561301
-0.0983022
0.117488
0.0939913
-0.089573
-0.00441769
-0.207064
-0.031864
0.238951
0.117609
0.197412
-0.314994
0.30477
0.218725
-0.523402
-0.0153057
0.00614263
-0.179326
0.0840003
0.0953215
-0.0431062
0.202964
-0.159873
-0.415707
-0.164666
0.580416
0.0332528
-0.0300407
-0.00321333
0.152493
-0.0253258
-0.0332445
-0.0891541
0.00947599
0.00937583
-0.0384853
0.00481739
0.0336654
-0.0310067
-0.00748213
0.00135388
-0.00146179
0.148618
-0.166272
0.0792054
-0.0676372
-0.0115673
0.534771
-0.322547
-0.212143
0.436229
-0.271284
0.148502
-0.135249
-0.0132498
0.549569
-0.109694
-0.439739
0.0166373
-0.00857137
-0.0720865
-0.0123461
0.0844328
0.0936929
-0.0997089
0.00601395
0.252536
0.183829
0.175174
-0.165367
-0.0098275
0.103421
-0.00972951
0.0935357
-0.0143248
0.121061
0.0154519
-0.174523
0.159105
0.175002
-0.0294393
-0.0168771
0.0168754
0.0111522
0.0199759
0.0928226
0.0262874
-0.0799602
-0.0520405
0.132004
0.221497
0.0168648
-0.238333
-0.139305
-0.23529
0.374714
-0.0711896
0.0644606
-0.129584
-0.0497471
-0.0113725
0.00328442
0.126914
0.129063
-0.227071
0.180966
-0.0976535
0.105817
-0.0081748
0.111926
-0.0191042
0.201145
0.100508
-0.301634
0.129635
-0.310175
0.180609
-0.00669491
-0.073575
0.0802649
0.11284
-0.105369
-0.00747414
0.0100157
-0.0222891
0.0122729
0.0354726
-0.0254861
-0.00998752
0.0205184
0.165302
-0.00952285
-0.0480043
0.057531
-0.00507864
0.0150942
0.188109
-0.214705
0.0265973
0.109888
-0.131372
0.0214773
0.0289015
-0.00781328
-0.0210895
0.195871
-0.0069529
-0.188886
-0.0916175
0.103199
-0.0115896
-0.240421
-0.0371773
0.011331
-0.646062
0.394377
0.251687
-0.134535
0.154438
-0.0198918
-0.212262
0.175005
0.0372979
-0.236665
-0.06036
-0.00201062
0.0764575
-0.074447
-0.17197
-0.138489
0.310508
-0.00248278
0.0237914
-0.203881
0.456566
0.110434
-0.103994
-0.00644351
-0.0153086
0.00206309
0.0181724
-0.0111435
-0.00703123
0.0413675
-0.140629
0.0992647
0.136138
-0.026257
0.668376
-0.367339
-0.301032
-0.0332667
-0.046202
0.178676
-0.454969
0.27639
0.00899556
0.00656323
-0.00190301
-0.00466034
0.0787867
-0.158742
-0.0372609
0.233171
-0.480582
0.214065
0.00674051
0.0287314
0.229723
0.253144
0.0856985
-0.0564468
0.0304386
-0.0223198
-0.00811918
-0.105092
0.113661
0.143656
-0.559342
-0.04646
0.0851207
-0.0386569
-0.0123648
0.015103
-0.00273765
-0.00502195
0.0389853
0.00689543
0.171457
-0.172138
0.000676701
0.0609719
-0.061372
0.000397198
0.0788939
-0.0809054
0.01963
0.155528
0.0990163
-0.0342714
0.154554
-0.151647
-0.00287473
0.00259975
-0.0148124
0.0122132
-0.100217
0.107444
-0.00722192
-0.309828
0.645322
-0.335214
0.0551892
0.152086
-0.207266
0.00258689
0.0336565
-0.000403489
-0.0139537
-0.0040709
0.0180254
-0.347813
0.2086
0.0506434
0.193785
0.146044
-0.339787
0.0901701
-0.0916676
0.001495
0.10001
-0.0941397
-0.00587284
-0.0972404
0.152437
0.140235
0.01227
-0.119501
0.0192828
-0.0828019
0.297761
-0.21489
0.0495428
0.0710967
-0.123297
0.0324179
0.0908756
0.0902169
-0.0743022
-0.0159179
0.459829
-0.198098
-0.261663
-0.292199
0.0555566
0.120158
-0.0308282
0.037601
-0.00677088
0.0140286
-0.000187583
-0.0138427
0.144648
-0.0128958
-0.131755
0.385582
-0.225415
0.0873875
0.00615331
-0.0900168
0.0944406
-0.00442309
-0.092975
0.109414
-0.0164407
0.150834
-0.0105944
-0.0354209
0.00459297
-0.00853628
0.00818473
0.000351143
0.143437
-0.189901
0.0464813
-0.0934689
-0.0623593
0.155822
-0.0929925
0.0984136
-0.00542186
0.17494
0.171002
-0.345828
0.230984
0.29116
-0.522059
-0.105179
0.0122016
-0.0138774
0.134636
-0.120745
-0.457567
0.23126
0.226395
0.490447
0.133446
-0.623845
0.405898
-0.227132
-0.563277
0.570652
-0.00715069
-0.0140786
-0.1507
0.164784
0.535852
-0.0237445
-0.00345233
-0.0883879
0.144538
0.142329
-0.284016
0.141761
0.00780568
0.0170892
-0.0026519
0.0683604
0.205859
-0.27419
-0.000450393
-0.00333545
0.000499312
0.00283493
0.0784637
0.173162
-0.173388
0.241768
-0.205157
0.116767
0.01301
-0.0133048
0.000292994
0.0311441
0.0109379
-0.0420819
0.15048
-0.0263461
-0.124133
0.46108
0.123107
0.0750623
0.00414327
0.184641
0.135954
-0.14097
0.00501839
-0.00194682
-0.00139069
0.0822086
-0.0784255
-0.00378778
-0.249312
0.20619
-0.100178
0.00718561
0.00376866
0.0804778
-0.0842452
0.00162207
0.000296933
-0.00191759
0.103898
-0.00486207
-0.0990365
0.038354
-0.107339
0.0689801
-0.0212734
0.013154
0.0191568
-0.00200232
-0.0171542
-0.0267323
-0.0594045
0.312225
-0.182528
-0.0049392
0.0144043
-0.00946535
-0.0147528
0.0147534
0.000768935
-0.0289723
0.0281993
-0.0382669
0.0390306
0.144798
0.0433107
0.151836
-0.0267718
-0.125061
0.029653
-0.158084
0.128448
0.00958312
0.0120191
0.0468561
-0.108801
0.0619414
-0.217146
-0.2989
0.516263
-0.107198
-0.429986
-0.0541823
0.177264
-0.123047
-0.000742861
0.00236506
0.0257222
0.366765
-0.191687
0.00356048
0.0583859
0.106405
-0.164775
-0.174357
0.0486029
-0.0499345
0.252885
0.013375
-0.000364954
0.0887356
-0.00134569
0.00573022
-0.0180471
-0.194162
0.177368
-0.21459
-0.032403
0.0294905
0.00291076
0.248396
-0.0268728
0.00397522
-0.0604526
0.203913
-0.118547
-0.0866109
0.140671
-0.0822716
0.331509
0.287044
-0.144631
0.106034
-0.125888
0.01986
-0.0130772
0.112068
-0.106576
0.110471
-0.00388894
-0.0730004
-0.02584
-0.00656404
0.187052
0.0453245
0.00495199
-0.0975651
0.0901728
0.00739216
-0.192021
0.428665
-0.2366
0.0856818
-0.00347333
-0.0956185
0.117256
-0.0216391
-0.00424838
-0.00170484
0.16076
-0.214902
-0.130131
-0.00158477
-0.0821784
0.0691004
-0.0859132
0.0720196
0.0138938
0.112251
-0.115493
0.00324465
0.0206852
-0.0175182
-0.00316725
0.281685
-0.234345
-0.0472941
0.0134108
-0.0854962
0.00193772
0.0157461
0.0178742
-0.17738
0.159523
0.0148826
-0.0122834
-0.0284574
-0.146255
0.174731
-0.0366472
0.0104064
0.0262406
0.0831562
-0.176624
-0.0218489
-0.131959
0.107739
-0.106664
-0.00108385
0.0480817
-0.0866443
0.0385655
0.302977
-0.18534
0.229961
-0.149538
-0.0804033
0.0937821
-0.107647
0.00641712
-0.298063
-0.017934
0.316068
-0.00909209
0.153734
-0.04958
-0.00459414
0.0541731
-0.213152
0.171247
-0.0783588
-0.0530201
-0.0113415
0.0124436
-0.00110367
0.103468
-0.249265
0.14584
-0.0393676
0.108699
-0.0693253
-0.144939
0.147182
-0.00225443
-0.0150242
0.0461679
0.186028
-0.192946
0.131157
-0.123081
-0.0667735
0.0572565
-0.00362968
0.155076
-0.149053
-0.00603272
-0.0214411
0.00748793
0.000550635
-0.0868438
0.0403874
-0.273741
0.190999
0.110445
-0.0044002
0.147841
-0.173393
0.0255703
-0.127146
-0.0029941
0.414266
-0.208395
-0.205791
-0.017951
0.0179503
-0.00698056
0.0518685
-0.0448878
-0.0833423
0.0857528
-0.00241023
-0.0561444
0.23355
-0.011764
0.0752728
-0.0767372
0.00146076
0.0126585
0.00137
0.481297
-0.210773
-0.270527
-0.0164365
0.0114962
-0.0988691
0.102178
-0.00330691
-0.0167791
-0.0121243
0.0289047
0.16201
-0.0074299
-0.0153202
-0.0681124
0.0834333
-0.0494466
-0.230198
0.279684
0.567794
-0.0180923
0.000135293
0.0172833
0.0801166
-0.00311273
-0.0770052
0.136481
0.283785
-0.202883
-0.0402221
-0.131372
0.053008
-0.160334
0.459372
-0.298874
-0.0578706
0.0508898
0.032761
0.119076
-0.115905
0.0202862
-0.214478
0.2151
-0.000631172
0.00945494
0.272289
-0.32257
0.253758
0.0688204
-0.0707165
-0.0151961
-0.0690642
-0.214862
-0.0195513
-0.30301
0.0125773
-0.065205
0.0526258
-0.0568038
0.00722339
-0.161741
-0.037151
0.0112971
-0.0835889
0.0722896
0.224432
-0.433516
0.514672
-0.223411
0.267074
-0.163563
0.000873319
0.129296
-0.139111
0.00980505
-0.329308
0.0357265
0.293652
-0.309574
0.208473
0.10114
-0.0391259
0.104278
-0.117431
0.290868
-0.173421
-0.0621749
0.0474087
0.0147642
-0.176657
-0.374585
0.551344
-0.155298
-0.050417
0.205705
-0.0218075
-0.0188273
-0.00279141
-0.0902378
0.0930402
0.430173
-0.607164
0.176992
0.497953
-0.204283
-0.293603
-0.193282
-0.0212189
0.314798
-0.120473
-0.194322
0.0781139
-0.0967947
0.0186853
-0.060077
0.0559364
0.00413899
0.18482
-0.013361
-0.0120992
-0.036068
0.0481628
0.21097
0.272386
-0.485337
0.213026
-0.0200135
0.02887
-0.00885662
-0.070884
-0.154814
0.0866111
0.0682056
-0.301498
0.266956
0.0345936
0.0195469
-0.126754
0.108372
0.0761717
-0.0243193
-0.0518492
-0.234403
0.0753478
-0.1619
-0.00115436
0.163084
-0.013631
-0.188225
0.169213
0.0190009
-0.0253692
0.0233665
0.0840419
-0.00877086
-0.0849976
0.00165135
-0.228958
0.0754853
0.153493
0.000308093
-0.14956
-0.157247
0.306887
0.00260785
-0.135427
-0.00952946
0.0404172
0.0715083
0.172691
-0.0248234
0.203525
-0.112777
0.11
0.121734
-0.446236
-0.173
-0.0150096
0.0142465
0.000761701
0.00607093
-0.0260846
-0.0200825
-0.042093
-0.00825217
-0.000925498
0.00917823
-0.0475018
0.0025674
-0.00865167
0.00608354
0.000299706
0.151067
-0.0349077
-0.116153
0.576805
-0.301803
-0.274967
0.0568003
-0.0961657
0.156825
-0.39242
-0.371038
0.0730712
0.0250026
-0.139429
0.114432
-0.0108259
0.0203204
-0.00949222
-0.056872
-0.183074
0.23996
0.19893
-0.230215
0.0313085
-0.139165
0.0922255
0.0469513
-0.14195
0.0112176
0.130737
0.395278
-0.189099
-0.206162
-0.0478044
-0.0361626
0.0839674
0.460222
-0.280828
-0.1793
0.0322491
-0.0277352
-0.00451378
0.0874868
-0.00936749
0.171767
0.277058
-0.294
0.20521
0.0887934
0.0997938
-0.0973212
-0.00247132
0.0117873
-0.227741
0.0770929
-0.100859
0.0237672
-0.041823
0.0986239
-0.14695
0.356198
-0.209256
0.00969487
-0.00408582
-0.00561086
-0.00783733
0.0971897
0.0982217
-0.0981782
-4.44696e-05
-0.0415174
-0.187418
-0.00696536
-0.0582413
0.0105641
-0.00215737
-0.00840656
-0.337712
0.190742
-0.0103005
-0.0730732
0.0833744
0.366552
-0.170179
-0.196291
0.114343
-0.0628288
0.0662786
-0.0034505
-0.0212416
-0.0154056
0.185334
-0.163002
-0.0223156
0.137955
-0.00867054
0.221841
-0.404162
0.182349
0.121433
-0.115867
-0.00556953
0.0312982
-0.00494019
-0.00884929
0.0156569
-0.00680732
-0.257397
0.393165
-0.135763
-0.0148342
0.00800094
0.00683335
-0.347161
0.124929
-0.00939548
0.155848
-0.15918
0.00331977
0.335972
0.145319
-0.0682688
-0.14008
-0.0066063
0.0103526
-0.00374802
0.109422
-0.0613373
0.00308692
0.20128
-0.258129
-0.182107
0.328197
-0.0281998
0.0345261
-0.00632515
0.14946
0.402391
-0.551785
-0.104199
-0.0086143
0.112817
-0.179238
0.238176
-0.0589521
0.173853
-0.165393
-0.00847326
0.182261
-0.0336994
-0.148552
-0.0359233
0.0409057
-0.00498263
-0.00702744
-0.00150953
0.0872374
-0.221499
0.134287
0.0167735
-0.0148357
0.0816092
0.181787
-0.263409
0.00117441
0.121124
-0.122293
-0.0278351
-0.00708805
0.0179287
-0.0188322
0.275238
-0.315204
0.0400363
0.148259
-0.0124638
0.0906709
0.0083311
0.00202099
0.00209201
-0.081234
0.0791385
-0.0085486
0.129976
0.0974736
-0.0212985
0.182881
-0.0270479
-0.0682994
0.151453
-0.0126132
0.0191773
0.0789998
-0.0136604
-0.0653393
-0.0638094
0.122205
-0.0583824
0.0281963
0.00405279
-0.0705903
0.0881879
-0.0175987
0.00321946
0.0294233
-0.0326432
0.306783
-0.20315
-0.103578
0.07843
0.00376782
0.0682405
-0.0835602
0.515371
-0.25059
-0.264709
0.00721405
-9.79512e-05
0.0669519
-0.0215298
-0.0454221
0.164106
0.0138224
0.307621
-0.139395
-0.168157
-0.0476571
0.0355575
-0.113979
0.12155
-0.00756401
-0.0411387
0.0656146
-0.0244745
-0.256359
0.187368
0.603483
-0.0573831
-0.545989
-0.102373
0.128177
-0.025801
-0.12371
-0.018233
-0.50335
0.326804
0.00581426
0.502826
0.100764
-0.0919076
0.0213155
0.216376
-0.21587
-0.000484931
0.000547181
-0.127702
-0.25713
0.167757
0.216224
0.179069
-0.124303
-0.0120774
0.136408
-0.00683933
-0.0079953
0.164643
-0.141823
-0.0228213
0.00429815
0.0194937
-0.282021
0.481306
-0.199149
-0.416727
0.0165847
0.400182
0.00429756
-0.139543
-0.146721
-0.16282
-0.0954273
0.117586
-0.022159
-0.258432
0.172596
0.085854
-0.116807
-0.0380053
0.0772682
0.00115385
0.320252
-0.557391
0.237174
-0.0143423
0.0161613
-0.00181938
0.312296
0.356084
-0.1074
0.0886906
0.0186936
0.0130307
0.00374289
-0.0302638
-0.00404674
0.0343115
0.0111399
0.0264979
-0.0676349
-0.0571816
-0.0819692
0.0987689
-0.109315
0.0105493
0.0541464
0.0128047
0.229275
-0.37604
0.146782
-0.0769671
0.0291627
0.136075
-0.146781
0.164667
0.000203844
-0.00845441
0.00935999
0.0729264
-0.0822856
-0.348746
0.156762
-0.117232
0.0218061
-0.103288
0.304451
-0.0265627
0.029782
-0.00444866
0.00173569
0.00271256
0.00942125
0.193295
-0.202653
0.0547582
-0.050447
-0.00670597
0.0571533
0.618231
-0.334357
-0.283895
0.386078
0.232137
0.125887
-0.0187324
-0.0159457
0.00160323
-0.0621915
0.0677821
-0.00559195
-0.216013
0.0426373
0.111967
-0.102156
-0.0098178
0.158258
-0.275674
0.311768
-0.384713
0.072968
0.0702306
-0.080533
0.0102989
0.0052954
0.131212
-0.0965679
-0.0346377
0.16163
0.312844
-0.474475
-0.0563292
-0.0669696
0.0958164
0.0326103
-0.128418
0.0139303
-0.128708
0.114766
-0.260668
0.0769317
0.183744
-0.190047
-0.0369773
-0.12282
0.00885268
-0.178099
0.0757289
-0.118545
0.0852951
0.0149887
0.144919
-0.121081
-0.0546389
-0.119184
0.0553868
-0.0929727
0.0686584
-0.0291326
-0.0699009
0.0440189
-0.0571338
0.0131143
-0.0185292
0.0956235
-0.0731348
0.0251336
0.0160045
0.00123044
-0.0172351
-0.0334974
-0.0951415
0.128662
0.00422398
-0.0670541
-0.00577452
0.154323
0.184258
-0.338525
0.10487
-0.173169
-0.109379
0.0802465
-0.0202451
0.183317
-0.163031
0.212443
-0.435294
-0.45001
0.251256
0.198861
0.105276
-0.101834
-0.00345369
0.00251589
0.0181693
-0.200805
0.0454984
-0.0279269
0.0056067
0.192523
-0.474397
0.00712772
-0.0693208
-0.0443064
0.099115
-0.0547988
-0.00254053
0.00059224
-0.0787961
-0.0384355
-0.0163597
0.202418
0.0988588
0.154074
-0.00179557
-0.000745694
0.068365
0.0628521
-0.145288
0.111818
0.00337703
-0.312394
0.321913
-0.0914863
0.100045
-0.00855344
-0.00213809
-0.064546
-0.0273635
0.17908
-0.029127
-0.149932
0.102251
-0.107712
0.00546288
-0.256056
0.20664
-0.333766
-0.0397456
-0.174956
0.344251
-0.032461
0.0335124
-0.00694101
-0.0265717
-0.41231
-0.150791
0.0798724
-0.00964227
0.00940287
-0.114325
0.03553
-0.0102249
0.0186262
-0.00840124
0.00207229
0.00370018
-0.0912681
0.0267203
-0.00703456
0.105806
0.163367
-0.152228
0.130832
-0.227542
-0.0646353
0.0226491
0.336759
-0.359323
-0.00124884
-0.415426
0.39324
0.138997
-0.123452
-0.0155421
-0.0250991
-0.0790346
0.104132
0.101926
-0.0061022
-0.00682885
0.0793916
-0.24612
0.0189568
0.227205
0.00515535
0.487659
0.109324
0.0060193
-0.00323652
0.0147353
-0.141263
0.126547
0.0446055
0.443052
0.225265
0.253794
-0.479044
-0.0276879
0.0349625
-0.00727283
0.0320162
-0.212706
0.0359455
0.029054
-0.0650003
0.0573195
-0.00317429
0.113084
0.091991
-0.11815
0.0261589
-0.23645
-0.143423
0.379847
-0.000166662
-0.0412247
-0.0059127
0.160557
-0.154617
0.0558547
-0.238912
-0.0032683
0.348334
0.175473
-0.523797
0.0324175
-0.254992
-0.152773
-0.182544
0.335342
-0.00985716
0.138292
-0.128446
-0.0148862
0.015572
-0.000686333
0.0316191
-0.189601
0.158009
-0.167591
0.169794
-0.0021917
-0.11347
0.014603
-0.0140719
0.00522345
-0.169448
0.117407
0.00599097
0.14013
-0.146095
0.0331438
-0.00382556
-0.0293182
-0.35584
0.378568
0.0280536
-0.327379
-0.193524
0.520972
0.0448701
0.246011
-0.0716084
-0.0162882
0.0878979
-0.0790514
0.112489
-0.0334426
-0.00926557
-0.0984256
0.109063
-0.00702746
-0.10203
0.0155829
-0.537843
0.317469
0.220399
0.377929
0.219053
0.112941
-0.111767
0.228576
0.0782621
-0.116456
-0.421374
0.198979
-0.21501
0.0160115
0.105943
0.0025746
-0.108514
-0.401329
0.433267
-0.0318174
0.0970444
-0.103349
0.00630963
0.0172187
-0.0665604
0.0470599
0.0194983
-0.00460009
0.11367
-0.000802947
0.00611224
-0.0053088
0.00266651
0.124104
0.479179
0.119841
-0.110458
-0.00937767
-0.514041
0.232495
0.281669
0.134915
0.095063
-0.0128157
0.0568345
0.0282178
0.00127056
0.00203278
-0.0364903
0.0326649
-0.169818
0.298254
-0.128343
-0.193429
0.202913
0.120205
-0.0733935
-0.0468015
0.224912
-0.201942
-0.022926
-0.182236
-0.195712
0.378045
-0.0189041
-0.0355793
0.0916495
-0.00148268
0.000645142
0.0148129
-0.0154587
-0.0236438
-0.112493
0.0334387
-0.351727
0.30051
0.0512411
0.0106951
-0.330678
0.0988708
-0.0585171
-0.040353
-0.0795908
-0.0363147
0.246168
0.492585
0.133625
-0.6262
0.0324327
0.0744494
0.100741
-0.00432469
-0.0964174
-0.0175208
-0.255261
0.048219
-0.6281
0.359755
0.268418
-0.0164964
0.00161019
-0.256575
-0.00408356
-0.0163355
-0.153481
0.169831
0.354678
-0.514841
-0.0143932
0.0226282
-0.00823383
-0.476998
0.167409
-0.0186845
0.0038483
-0.289912
-0.112718
0.402673
0.00293718
-0.108022
0.171399
-0.150084
-0.0213177
0.13152
-0.0753657
-0.0561445
0.0114988
-0.313653
0.0995385
-0.256765
0.148449
0.108335
0.597277
-0.344072
-0.253051
-0.00908375
-0.0687998
0.0778812
0.0829733
-0.243361
0.160403
-0.0224665
0.0183955
-0.0450337
0.249438
-0.204349
-0.0899448
0.026164
0.0637811
-0.00619049
-0.0248003
0.0309907
0.018805
-0.170823
0.15204
-0.161467
0.411903
-0.250285
-0.000219892
-0.00826645
0.00848581
-0.0492237
-0.00603649
0.0552591
0.219926
-0.132671
0.0858639
0.0266204
0.0532502
-0.280765
-0.0193548
0.000544453
0.0188109
0.322493
-0.168107
-0.0581045
-0.0512735
0.473976
-0.231142
-0.242758
0.424845
0.172548
0.0677007
-0.0317567
0.0101216
0.28415
0.213869
-0.179049
0.0489158
-0.00762564
-0.0195123
0.0271378
-0.0511562
0.0665721
-0.0154147
-0.0622711
0.0118251
-0.135585
-0.212136
-0.00267139
0.0186755
0.122606
0.337283
-0.605379
0.2042
-0.232323
0.200488
-0.405241
0.297961
0.284279
-0.55049
0.266211
0.0612747
-0.0136702
-0.0476044
0.058665
-0.0104976
-0.0481689
-0.27261
0.100697
-0.433986
0.534867
0.138395
0.0469551
0.0642067
0.265737
-0.00647255
0.00625407
0.00434913
-0.00952876
-0.011969
-0.00930439
-0.175751
-0.0809992
-0.0861336
0.24323
0.272209
-0.0248005
-0.158547
0.062974
-0.107269
-0.138169
0.367446
0.18727
-0.51461
-0.0951555
0.0927675
0.00239036
-0.00222899
-0.00222008
0.115606
-0.0236164
-0.0109413
0.147626
-0.0255666
-0.122065
-0.41119
0.205597
0.152756
-0.0104127
-0.142324
0.113349
-0.0274914
0.0107047
-0.0117158
0.00100912
0.151436
-0.165513
0.0652882
0.00039959
-0.0656895
-0.111436
0.0318458
0.0597173
0.430768
0.0276392
0.010438
-0.0380762
-0.00644619
0.0340863
0.00167394
0.0165154
-0.0181893
-0.061832
-0.0571167
0.0615413
-0.00442635
-0.104036
0.179544
0.0595466
0.00142394
-0.0140537
0.0777669
-0.0637138
-0.190766
0.170563
-0.582638
0.365719
-0.05848
0.0592728
-0.000792577
-0.236647
0.218188
0.018502
-0.476234
0.314923
0.0276574
0.247652
-0.212514
-0.0240765
0.00592915
-0.0974099
0.218445
-0.379837
0.161498
0.00880099
0.143971
-0.0121281
-0.00317877
-0.116603
-0.120898
0.237555
0.00213274
0.0147401
0.0865509
-0.222046
0.13551
-0.00278684
0.103482
-0.100699
0.00657452
0.020515
-0.0270897
-0.284522
0.0723081
-0.070221
-0.215352
0.115465
0.0999164
0.17225
-0.153421
-0.0653901
0.0142342
-0.0278863
-0.0894547
-0.00970284
0.0991621
0.145073
0.0254714
-0.0330966
-0.154154
0.316173
-0.162029
0.00166447
-0.0190081
0.0173434
-0.0206757
-0.156687
0.0170894
-0.00346091
-0.0136281
-0.00830023
0.00732941
0.000970491
0.0170134
-0.0153486
-0.00572489
0.128921
-0.123198
-0.134657
-0.162328
0.29703
0.124068
-0.293804
-0.323021
0.657785
-0.334793
-0.165675
0.421056
-0.117571
-0.303449
-0.0208055
-0.154839
-0.0196496
0.0296869
-0.155706
0.126028
-0.0483862
-0.121061
0.111527
-0.215533
-0.366565
0.231086
0.0107698
-0.191038
0.180242
-0.168487
0.168794
-0.000268139
-0.144729
-0.149269
-0.116574
0.188139
0.0377382
0.0121066
-0.0498444
-0.00504347
-0.071173
0.076213
0.0222498
0.162538
-0.184775
-0.13134
-0.0103041
0.141665
-0.0510393
-0.00744052
0.231376
2.59002e-05
0.000272277
-0.556491
0.200735
0.142834
-0.00686719
-0.135937
-0.127266
0.210253
-0.194322
0.352693
-0.158308
0.115234
-0.136441
0.0212245
-0.15139
0.42385
-0.152994
0.37156
-0.0641608
0.102512
-0.0840765
0.281508
0.100679
0.00527134
-0.294951
0.148273
-0.0072139
-6.3322e-06
0.00722012
-0.0767168
0.084841
-0.00812469
0.006504
-0.0861926
0.0796887
0.0719616
-0.0822628
0.133153
-0.323612
0.190498
0.00543204
-0.104499
0.101234
0.00326483
0.527861
0.0148642
-0.031132
-0.199059
-0.00278229
0.00280882
0.204245
-0.210656
0.00642314
-0.0696515
0.0655373
0.0201444
-0.0117999
0.00045809
-0.120908
0.0935423
0.0273753
0.125935
0.184703
-0.310573
-0.0409453
-0.0144385
0.0799777
0.00916114
-0.101554
-0.113768
0.317746
0.163693
-0.259131
0.384054
-0.12493
0.0604209
0.0900598
0.248618
-0.307199
0.0586194
5.61399e-05
0.0105079
0.0062563
0.282093
0.294745
-0.0376367
-0.0599284
-0.0967733
0.0177787
0.0789975
-0.301451
0.148709
-0.0144584
0.0521969
-0.0111833
-0.00750172
0.0955711
-0.00392757
-0.210357
0.165364
0.0060035
0.034902
0.143296
-0.155367
0.475655
-0.320172
0.0142876
-0.0136423
-0.132774
0.138789
0.373335
-0.257296
-0.116009
0.423784
-0.187007
-0.236677
-0.181285
0.170699
-0.156225
0.141344
0.0148652
0.0239343
-0.0317488
0.000868388
-0.00338468
0.0114978
0.1351
-0.146607
0.0329165
-0.00371913
-0.0291995
0.0594726
-0.207452
0.147971
0.171673
0.150932
-0.322565
-0.0838603
0.0370501
0.0468056
-0.241786
-0.208118
-0.00343099
-0.0811863
0.0846189
-0.395554
0.591359
-0.247998
-0.343233
0.134902
0.0733376
-0.20821
-0.0837487
0.00989031
-0.0319235
0.0220331
-0.017037
-0.0023174
-0.0795703
0.0840172
-0.00444973
-0.0019275
0.007381
-0.00545378
-0.0187682
0.0657046
-0.0469371
0.1158
0.0352715
-0.0998728
-0.201569
-0.149315
-0.145594
0.0226626
0.134038
0.498042
0.0360389
-0.533997
0.144039
-0.129285
0.0222461
-0.0212522
-0.0577779
-0.113377
0.543524
-0.0955092
0.138607
-0.0430757
-0.00358237
-0.0946509
0.100792
-0.00614061
-0.00686349
-0.0108196
0.119744
-0.0966194
0.432573
-0.167718
0.0946615
-0.0825123
-0.0121503
0.0268721
0.172085
-0.00528381
-0.0256391
0.0349085
-0.302567
-0.325461
0.140679
0.2327
0.441037
-0.266121
-0.174823
0.218953
-0.0439033
0.0855373
-0.0885106
0.00296791
-0.00349412
0.0329166
0.00470659
-0.0323945
0.049856
0.113511
0.318965
-0.470284
0.0091264
0.0909232
0.226503
0.0882933
0.0141691
-0.0822808
-0.0120754
0.00991822
0.133666
-0.108658
0.000421667
0.00758016
0.00567694
-0.00157222
0.000769553
0.00932003
0.115107
-0.124437
-0.0202336
0.171674
-0.020487
0.0178156
0.1808
-0.15854
0.0686979
0.0930443
-0.161724
0.0842502
0.0359644
-0.0122668
0.331156
-0.146087
-0.185008
0.0477041
0.0188715
0.324427
-0.152715
-0.0470276
-0.00828915
0.0553161
0.00966035
-0.37429
-0.182126
0.174877
0.144979
-0.029724
0.0973462
0.00244831
0.1739
-0.137535
-0.0363486
-0.34183
0.551036
-0.20912
0.0220305
-0.201271
-0.167142
0.215473
-0.0483232
-0.110114
-0.118898
0.229
0.019911
0.0462938
-0.066201
0.284264
-0.458057
0.173816
0.00409976
-0.0533244
0.0171494
-0.0154756
0.186232
0.138234
-0.173695
0.153466
-0.0186525
-0.13759
-0.487171
0.236646
0.0311908
-0.0029738
-0.0122362
0.00665702
0.0199088
0.00286515
-0.022774
0.214877
0.237458
-0.452258
0.0329822
-0.208631
0.175695
0.0235597
0.166036
-0.18956
-0.213716
-0.0333313
0.247072
-0.0903287
0.0101008
0.0802247
0.0232137
0.383099
-0.598448
0.215366
-0.0063991
0.106021
-0.0996272
-0.124673
-0.0534215
-0.0780966
0.0157711
0.0623246
0.146593
0.00124674
0.0482492
-0.215384
-0.214439
0.0461373
0.168349
0.0878386
0.109037
-0.010483
-0.0985541
0.10961
-0.226345
0.368242
-0.141836
0.0110541
-0.0181709
0.00415744
0.0140132
-0.0454334
0.0286559
-0.00278806
0.00535585
-0.0553575
0.00832874
0.00190738
0.0134538
0.00363511
0.36575
-0.199304
-0.166386
-0.338055
0.155996
0.180413
0.11568
-0.296055
-0.00552475
-0.075713
-0.11149
-0.0276311
-0.108209
-0.0154255
0.0147672
0.000658185
-0.314321
0.160157
0.185657
0.335677
-0.521248
0.3787
-0.00491334
-0.0795646
0.300182
0.213272
0.132223
-0.204413
0.072197
0.103206
0.0838811
0.0741616
-0.0542395
-0.0199222
-0.117743
0.215547
-0.0977814
-0.335908
-0.17803
-0.448003
0.249973
-0.147921
0.327959
-0.179966
0.186703
-0.620581
0.117265
-0.114297
-0.00295731
-0.0802739
-0.0100584
-0.0503396
0.119054
-0.0671096
0.00780339
0.0593065
-0.192824
0.34621
-0.153339
0.160294
0.00356295
-0.0352178
0.0290263
-0.0178953
0.000376921
0.0782627
-0.0100421
-0.0682208
0.0672011
0.0364374
-0.103637
0.0608152
0.0366631
0.422821
-0.127608
0.107792
0.0198316
0.0271203
-0.241506
-0.423923
0.134058
-0.178085
0.194473
-0.0164045
0.00322046
0.108771
-0.277459
0.168704
0.107758
0.00127748
-0.0731932
0.0697633
0.292947
-0.192434
-0.302011
0.107746
-0.16052
0.119524
0.0410005
-0.00573249
0.367299
0.205095
-0.5724
0.0256766
0.048485
-0.123178
0.303617
0.0779632
-0.0834918
0.462544
-0.237267
-0.0956052
-0.176945
0.0704079
-0.0667817
-0.0234206
0.0902059
0.0494401
0.232658
0.00865487
-0.0761789
0.000970683
0.00297091
-0.085489
-0.0445373
0.0101541
0.0343825
-0.344318
0.114159
-0.000115793
0.01082
-0.0754705
0.0614165
-0.388364
0.302066
0.0863397
0.00211794
-0.0846301
0.0347052
-0.102338
0.0797837
0.0225508
-0.215426
-0.197272
-0.107357
0.304599
0.433131
-0.439348
0.00633692
0.303631
0.254052
-0.0532647
-0.200724
-0.132102
0.143512
-0.0114082
-0.108893
-0.00943913
0.118331
-0.178603
0.304605
-0.206277
0.430722
-0.100226
0.0266448
-0.241442
0.417545
-0.176086
-0.0783066
0.052587
0.0257191
-0.175225
0.0126007
1.70711e-05
0.0118301
-0.0118469
0.0648637
-0.0915958
0.255507
-0.473447
0.217989
0.00705433
0.247525
-0.531226
0.283856
0.182709
-0.0169299
0.114132
-0.122853
0.00873348
0.0844113
-0.00614907
0.122061
-0.127793
0.336854
-0.593452
0.256588
0.106522
-0.0156513
-0.0856587
0.0328084
0.0528487
0.0998464
-0.102636
0.0186827
-0.091952
0.0732695
0.1297
-0.103247
-0.0264387
0.0962414
-0.12134
-0.0837184
-0.0321536
0.125488
-0.00842287
-0.117068
0.0723657
-0.19009
0.220833
0.193515
0.063739
0.00396013
0.00417571
-0.0460892
0.212164
-0.166027
-0.422158
0.266882
-0.0136285
-0.00432358
0.288396
0.202092
-0.490344