/*--------------------------------*- C++ -*----------------------------------*\
| =========                 |                                                 |
| \\      /  F ield         | OpenFOAM: The Open Source CFD Toolbox           |
|  \\    /   O peration     | Version:  v2012                                 |
|   \\  /    A nd           | Website:  www.openfoam.com                      |
|    \\/     M anipulation  |                                                 |
\*---------------------------------------------------------------------------*/
FoamFile
{
    version     2.0;
    format      ascii;
    class       volScalarField;
    location    "300";
    object      ddt0(k);
}
// * * * * * * * * * * * * * * * * * * * * * * * * * * * * * * * * * * * * * //

dimensions      [0 2 -3 0 0 0 0];


internalField   nonuniform List<scalar> 
13917
(
-0.000526489
1.47081e-06
-0.00180865
-3.41845e-07
5.26538e-07
1.36164e-06
-7.1153e-07
3.40515e-05
-5.76314e-07
-0.000341175
-2.14869e-06
-2.67695e-07
-2.41246e-07
-0.00343587
-7.58751e-07
-0.000554296
-5.87494e-08
-3.05973e-06
-0.000244676
-0.000605113
-9.61634e-07
-1.50165e-07
-1.11163e-06
-1.47103e-07
-4.62358e-07
-9.41134e-07
0.00248349
-0.000212768
-1.00946e-06
9.34916e-08
-0.000379441
-1.56635e-06
-3.47268e-07
-0.000705402
1.8787e-07
-0.000644398
-4.31823e-07
1.86929e-06
-6.99163e-07
-1.11666e-06
6.33554e-08
4.47787e-07
-4.46789e-07
-0.000526977
-9.76746e-05
-0.000618539
-8.34531e-07
-0.000281359
0.00181351
1.86397e-07
-2.61495e-07
0.000123432
0.000438032
-2.59772e-07
-2.58705e-07
6.11904e-05
-0.000203605
-1.12413e-06
4.53966e-07
-0.000643758
-0.000735691
2.58608e-07
5.56902e-07
-4.40381e-07
-0.00125649
2.86771e-06
-1.96141e-06
-0.000454521
-3.79508e-06
-0.000226097
-0.0013785
-0.000640469
-2.37257e-07
4.51286e-07
-9.95854e-07
-4.86158e-07
-1.41579e-08
4.51804e-07
-4.63203e-07
-3.58016e-07
-3.36381e-07
-3.30554e-08
-2.23418e-07
-0.00141988
-1.16699e-07
0.00195047
-1.55929e-06
-1.1067e-07
-1.15939e-06
2.97761e-09
1.53449e-07
-4.72598e-07
0.00216943
2.2115e-07
-3.13328e-07
-1.12612e-06
0.00391828
-1.07937e-07
-1.07487e-07
0.00246224
3.73901e-07
3.04808e-07
-3.35433e-07
4.25553e-07
5.99529e-08
-0.00136374
-0.000534508
2.08913e-07
4.54482e-07
0.00223357
-5.04747e-08
-0.00074892
-1.51935e-06
-0.000254175
-0.00128901
-4.94473e-07
9.10671e-06
1.44237e-07
-0.00168968
-1.72458e-07
6.1218e-08
4.32685e-07
3.3709e-07
-2.85864e-06
-0.000315228
-0.00137248
-4.26746e-07
-1.11654e-06
3.12189e-08
2.58497e-06
-9.50263e-07
0.000271926
-0.00102549
-4.92835e-07
-2.02322e-06
0.0020734
-0.000772794
-0.00031117
-9.5323e-07
1.86555e-06
-0.00384545
4.47229e-07
-0.00141434
-1.56572e-07
-2.16296e-07
3.38934e-07
-0.00139017
0.00148647
-0.000294012
-2.56489e-07
-1.07469e-06
3.27939e-07
-2.05478e-07
-1.80127e-07
0.0035099
-1.62649e-08
3.82336e-07
-0.000980608
1.20274e-07
1.33674e-07
-1.52517e-07
-0.000969162
-3.9951e-07
-0.00519101
-0.00062197
0.00431177
-8.09903e-05
-0.000430579
6.24204e-08
-1.19864e-06
-1.36646e-07
-0.001051
-5.69045e-07
-0.000885098
-1.46712e-06
2.07318e-07
-3.43206e-07
0.000198023
-8.85771e-07
-3.69658e-07
-4.68844e-07
-1.32191e-07
-2.57292e-07
-0.000668777
-0.00168839
0.000230656
-2.57512e-07
-0.000679336
1.06781e-07
0.000292051
-1.44887e-06
5.15873e-07
-0.000216302
-0.000582771
2.12545e-07
-0.000321589
-6.49337e-07
-0.00107895
2.00212e-07
-4.10379e-08
-7.71684e-07
-0.000282396
-0.000210639
-3.95323e-07
0.00180199
-1.0245e-07
-1.0561e-06
4.33485e-07
8.89781e-05
-3.34229e-07
4.37123e-08
1.59736e-06
7.76412e-07
-0.000307183
-1.85563e-06
-1.08663e-06
-0.00101973
3.79191e-07
3.37988e-07
3.38148e-07
-0.000374164
-0.000472993
-0.000837893
-6.37385e-08
5.71868e-07
0.00161282
-0.000207198
2.83621e-07
2.7053e-07
5.71913e-08
3.46885e-07
3.47387e-07
-0.000596177
-0.000367026
-2.56947e-07
7.58316e-08
-1.67024e-06
-0.00056255
4.6128e-08
-6.67778e-08
0.00197305
-0.00137247
-0.000592007
-0.00100015
5.39727e-06
-1.58121e-07
-0.000488681
-1.91956e-06
-8.9668e-07
-1.72261e-06
-3.9333e-07
-0.000347105
-1.86037e-07
-1.11618e-06
-1.35553e-06
-2.6358e-07
7.71189e-08
-4.45795e-07
5.40865e-07
2.42133e-07
-0.000520273
0.00260835
3.92635e-07
2.53541e-07
-1.22607e-08
2.56183e-07
-1.87923e-07
-2.19813e-07
-1.00532e-06
4.00731e-07
-0.000382744
-0.000569481
-2.32848e-07
3.04809e-07
-0.000891501
3.00328e-07
0.000523994
-0.00060937
2.98152e-07
-0.000395169
2.48452e-07
-0.000996025
2.60919e-07
-7.90117e-07
-2.75053e-07
-1.31333e-07
-0.00106422
7.33825e-07
0.00430818
-7.59203e-07
0.00278901
2.7733e-07
0.00160549
-0.000243166
1.30808e-07
-1.20576e-06
6.90513e-07
-5.02541e-07
6.79637e-07
-4.6783e-07
2.36949e-07
6.93948e-07
0.000226442
-3.81271e-07
-1.08207e-06
-4.51664e-07
-6.98652e-08
-0.00100268
-0.000258959
7.11171e-08
-4.02174e-07
-5.08649e-07
3.73172e-06
-0.000234162
-0.000665982
-0.00093433
1.51911e-05
0.000608922
2.85223e-07
-0.00145612
5.12452e-05
-0.00182895
-2.33748e-07
-8.12534e-07
0.00246416
-7.90238e-08
2.10623e-06
-4.32355e-06
-5.50563e-08
-0.00107062
-1.22827e-07
-1.01286e-06
3.03397e-07
-0.000728036
-5.62378e-08
-1.02736e-06
-2.00395e-07
2.21138e-05
5.47289e-08
-1.79031e-06
-0.00145157
-3.03968e-07
-7.60348e-08
-0.000814318
-0.0014043
-0.00109446
-0.00349859
2.90855e-07
-2.69987e-07
-0.00133744
0.000637627
2.88622e-07
7.45292e-07
-2.59257e-07
-2.5379e-06
-1.03654e-06
0.000218303
-2.07474e-05
0.000148618
-1.04082e-06
-0.000668929
2.87022e-08
-3.03321e-07
8.22718e-07
-0.00133333
-1.26915e-08
-0.000541341
-1.06122e-06
0.00157623
-2.79215e-07
0.00108908
-2.5383e-07
0.00238748
4.88859e-07
-0.000819609
-0.000845533
-2.23381e-07
-2.35683e-07
-0.00138881
3.05156e-07
-0.000627459
-0.000406092
4.94538e-07
0.00254462
-2.90759e-07
-1.47381e-05
2.44019e-07
-0.000586606
-1.34449e-05
-4.29559e-07
0.00133495
1.90991e-05
-3.70725e-07
-0.000855656
-0.00284323
-4.04082e-07
-0.000955275
-2.6571e-07
4.68458e-05
-0.00176993
-1.14617e-07
-6.6406e-07
-4.56894e-07
-1.40501e-07
-1.12051e-07
8.55433e-09
-0.000667458
0.00394991
-2.8119e-07
2.41801e-08
-1.45564e-07
-1.19322e-06
-0.000355105
3.06117e-07
6.4782e-08
-0.000202514
0.000425107
-1.36662e-07
-4.17341e-07
-0.00116653
0.0010978
4.98538e-05
-0.000378294
-0.00151476
4.11999e-07
3.04967e-07
-7.18152e-07
-1.1573e-07
3.05262e-07
-2.7607e-07
3.04148e-07
4.04694e-07
-0.000424163
-2.71381e-07
-1.20411e-06
-0.000447509
-1.20567e-06
3.92441e-08
-2.09263e-07
-0.000873722
-7.36072e-07
-0.00015983
3.04527e-07
-1.3585e-07
3.07852e-07
3.52878e-07
-4.20693e-07
-2.75332e-07
-0.00118398
3.80261e-07
-0.00135538
-1.36343e-07
-1.01699e-06
4.87467e-07
-3.26346e-07
1.13995e-05
-0.0011022
-2.51293e-07
-0.000443481
2.4683e-08
-9.02583e-08
-1.33495e-07
-2.98537e-07
5.54781e-08
-8.22317e-08
-0.00098966
-0.000806852
5.42796e-08
0.00125727
-9.60239e-05
-1.03862e-07
-1.28531e-06
-1.52557e-06
-0.000719513
-6.78863e-07
-0.00137965
0.00031237
0.000103585
-2.92879e-07
9.87532e-07
2.57888e-07
-3.78762e-07
-0.00120123
1.51834e-07
-2.53203e-07
-3.13593e-07
-6.25058e-07
-9.52475e-07
-0.001635
-1.29744e-06
3.00372e-07
4.36546e-07
-3.16877e-06
-1.50826e-06
-2.86032e-07
-0.00283932
-1.02672e-06
-7.67723e-07
-0.000710874
-1.23057e-07
-1.58849e-06
-1.91888e-05
-1.0238e-07
-0.000842325
-7.64505e-08
3.5096e-07
-1.19794e-06
3.06735e-07
-7.46295e-08
3.80245e-05
-0.000900267
0.000320623
-1.49825e-07
-3.58185e-07
3.82002e-07
-0.00118241
-0.0010932
-2.76443e-07
-2.59763e-07
-1.40512e-07
-1.27979e-06
-0.0017118
6.5246e-08
3.21361e-08
-4.26467e-08
-1.43738e-07
-4.66163e-08
-7.84645e-07
1.29246e-07
-1.28646e-06
-1.02215e-07
-1.64556e-07
-4.37964e-07
-0.000742119
1.35516e-07
-4.95578e-07
2.39323e-07
-9.89492e-07
-1.46259e-06
-3.25601e-06
-1.22758e-06
0.00376547
-4.08042e-07
1.31059e-06
-0.00110669
-0.000424501
-0.000532308
1.06328e-07
-1.18175e-07
2.63548e-07
-2.33569e-07
-0.00127771
3.0368e-07
-0.000492763
-6.49673e-07
-0.00122526
0.00118381
-4.46443e-07
-0.000456766
6.60934e-08
-1.40708e-06
-3.28712e-08
2.80771e-07
-0.00117551
3.06742e-07
-0.00203512
5.83381e-07
-1.65712e-07
-1.22195e-07
-0.00157226
1.01093e-07
2.00839e-07
6.76832e-06
-1.27029e-06
0.00378958
-0.00143887
-0.00102202
-0.00067393
1.33741e-07
-0.000289158
2.23035e-07
-0.000799529
0.00196428
3.05375e-07
-8.96856e-08
3.87702e-07
-1.00868e-06
-4.67494e-07
3.07955e-07
8.80888e-08
-1.59272e-07
-0.00148801
-1.66397e-07
-1.43597e-06
-2.48232e-07
1.85841e-07
1.29513e-07
-0.000489167
-0.00116233
-0.000474533
-1.58672e-06
-7.89361e-07
-0.00126611
-0.000601843
2.5068e-07
-0.00117799
-1.6114e-07
-3.04161e-06
-2.34347e-07
-0.00140505
-1.37931e-07
-1.08743e-07
-2.13857e-07
0.00398707
-1.0128e-06
-0.00120343
1.6505e-07
-9.99564e-07
1.49175e-07
3.40528e-07
-0.000710213
0.00531165
1.80022e-07
0.000210172
-6.66067e-08
3.50211e-07
4.55806e-07
-0.000770836
-1.68153e-07
7.00081e-07
3.02472e-07
1.73916e-07
-0.00127273
3.95154e-07
0.000150087
1.69203e-08
-7.3894e-08
-0.000726831
-1.5165e-06
-2.69464e-07
0.000266629
-0.00204496
-8.19239e-05
-4.86959e-05
7.07766e-08
-7.20892e-07
-0.00068507
-0.00240052
-6.80053e-07
-4.31886e-07
-1.17375e-07
9.31093e-08
-2.70665e-08
5.95064e-05
-1.56482e-06
-5.8932e-07
-0.000641785
-1.03168e-06
-0.00262393
-0.00114077
-8.45308e-07
-1.00583e-06
-0.000107862
-0.000458197
2.25372e-07
-9.42086e-07
3.06247e-05
-7.80139e-08
1.8935e-07
1.48144e-07
4.28896e-07
-8.81491e-08
-0.000302917
-9.62919e-07
1.54309e-07
-2.62239e-06
1.52656e-07
-0.000727693
2.59832e-07
4.80615e-08
-0.000877175
-1.40335e-06
0.00144968
-2.51794e-07
3.12804e-07
1.02555e-07
-3.02719e-07
-7.63647e-07
-1.08328e-07
-0.000282302
-8.6472e-07
-0.00354099
0.00158139
-1.01462e-06
-0.0010163
-3.57649e-07
5.81512e-07
1.57141e-07
-0.00065337
0.000801572
-6.71555e-07
-0.00028903
0.000246452
-6.09274e-08
6.51215e-08
-4.22059e-07
-0.00138272
0.000843168
-1.00987e-06
-3.05545e-07
-4.98034e-07
-3.47055e-06
1.8152e-07
0.000203979
-9.74029e-07
-3.04092e-07
-3.62718e-07
3.31224e-07
-7.6921e-07
4.23572e-07
-0.00269988
-5.14529e-07
4.49763e-07
-0.000286236
-4.99042e-07
-0.000115047
-4.29967e-07
4.58032e-07
-6.42955e-07
-0.00239807
5.77505e-08
-1.33058e-06
-0.00120408
0.000368547
-2.30642e-07
-5.26569e-07
3.96857e-07
-1.88343e-07
-2.06487e-07
-2.40349e-06
2.1595e-07
-0.000354882
0.000250466
8.97253e-08
-0.00245789
-5.84094e-07
-6.25789e-07
0.000266601
-2.86481e-07
-1.40184e-06
0.00410053
1.50531e-07
-1.39406e-06
-3.89994e-07
-9.75496e-07
-1.77482e-08
3.58779e-08
-2.23795e-08
-0.000155957
-3.43799e-07
2.84191e-07
-1.03071e-06
-1.11994e-07
4.40803e-08
2.15953e-05
0.00434509
-1.52071e-06
0.000663897
-2.45376e-06
-0.0013095
-2.06428e-07
7.55091e-09
-0.00130233
3.27759e-07
6.0612e-07
9.92723e-09
1.84419e-07
-2.49152e-07
-5.32531e-07
-3.65914e-06
-1.60947e-08
2.75089e-06
-5.26584e-08
0.00257557
-4.32e-07
-6.85967e-07
3.04916e-07
-1.73876e-06
-7.34694e-07
-0.000990242
-2.40345e-06
-9.03474e-08
-0.000673361
-3.74085e-07
-0.00047382
-4.25866e-07
-4.85309e-06
1.01548e-07
1.31342e-07
-2.29439e-07
-0.00107134
-7.7866e-07
-8.08352e-05
0.000372517
-1.75555e-07
-9.78762e-07
7.08041e-08
-6.73548e-08
0.000550162
8.16096e-08
-0.000479135
-4.98398e-07
-4.33983e-06
2.56383e-06
-4.71053e-06
3.08067e-07
2.32741e-07
5.75279e-05
7.87163e-08
-2.5383e-07
-3.91289e-07
-1.02444e-07
-1.05115e-06
2.94854e-07
0.000585893
-3.07148e-07
-0.000492567
-0.000466561
1.40123e-05
-0.00131647
2.72408e-05
-0.000504973
7.84471e-05
-2.29642e-08
3.74825e-07
-2.19819e-07
-3.6929e-07
-1.4687e-07
-7.69183e-07
-1.9582e-07
-0.000500361
-2.56606e-07
-0.00161151
-3.28948e-07
-8.11732e-07
-1.10725e-05
1.34676e-07
-1.23495e-06
-3.68301e-07
2.19557e-07
-6.66249e-07
3.04886e-07
-0.00099749
-1.71724e-06
6.31286e-05
8.11426e-08
-1.20394e-07
-1.10567e-07
-5.40752e-08
-0.000702408
-3.40483e-08
0.00456664
-1.36794e-07
0.000970267
-9.01321e-07
-1.78785e-07
-1.36258e-06
3.53716e-07
-3.83096e-08
0.0014319
-0.00118671
-3.99314e-07
-1.75958e-06
1.13319e-07
0.0031453
3.30243e-07
-4.77855e-08
-0.00062822
1.60928e-07
-3.5814e-07
-2.42682e-06
-0.000574682
3.27893e-07
-0.000546261
-0.00133881
4.68897e-07
-1.57442e-07
-1.07882e-07
-0.00154262
-1.16642e-07
0.000712013
-2.49361e-07
-0.000856832
-8.50487e-07
-0.000974432
9.10854e-09
2.76021e-07
-2.53118e-05
9.93099e-08
-2.58767e-07
-0.00115058
-3.75431e-07
-9.60516e-08
-0.00112144
4.74375e-07
3.78369e-07
-1.61267e-06
-3.97041e-07
-0.00126142
-1.10894e-06
-1.62206e-06
7.11341e-05
-4.93917e-07
-0.000889533
-3.27079e-07
-1.47399e-06
-1.46652e-07
-0.000523248
0.00067337
-2.46508e-07
3.15171e-07
2.64696e-07
-2.76665e-07
3.03027e-07
4.38513e-07
3.75159e-07
-2.1871e-07
-8.12576e-07
1.49902e-07
-3.63651e-07
-1.73854e-06
-0.000545466
-0.000941026
-2.14733e-06
-1.16853e-07
-2.45065e-05
-1.8029e-07
-0.00130547
-0.000998286
-0.000120566
3.29699e-07
-3.2724e-08
-9.81415e-08
-2.42823e-07
3.2442e-07
3.08359e-07
-1.85117e-07
-1.02007e-06
-9.60183e-08
-0.00052442
-0.00112119
-7.24105e-08
-0.00111544
-1.53335e-07
-2.09037e-09
9.29951e-08
-0.000815093
-1.87935e-06
1.74507e-07
0.00145783
1.8015e-07
3.13117e-08
-0.00220599
3.55576e-07
0.00277308
-3.60967e-07
-2.88784e-05
2.39438e-08
4.15176e-07
-7.77355e-07
1.88838e-05
-4.11791e-07
-0.000676174
6.2487e-07
6.83484e-07
-1.45255e-07
-1.41818e-07
3.91523e-08
-2.61971e-06
-9.15967e-07
-5.74521e-07
-0.00071553
-0.000503217
1.22775e-05
-2.95144e-06
3.80399e-07
-0.000645783
4.243e-07
-0.00104854
-1.34148e-06
-6.58418e-07
-3.93941e-07
-0.000893788
-0.000171394
-0.00162404
5.14429e-07
0.00436612
3.06585e-07
-1.97051e-07
-9.42094e-07
-3.02476e-07
-2.47357e-07
0.000286453
-0.000475862
4.23486e-07
-6.53968e-07
-0.000558046
4.52067e-07
2.92033e-07
-0.000445329
-0.00079071
-3.56167e-07
2.73476e-07
-6.82073e-07
-2.10419e-07
5.66805e-08
-2.47773e-06
-4.14409e-07
-2.16749e-07
-0.00231751
3.81276e-07
-1.30151e-05
0.000127179
5.93616e-07
-0.00055178
-2.54217e-07
-3.23794e-07
-1.58932e-06
-0.00061694
-1.06086e-05
-6.92304e-07
-7.68661e-07
-2.58367e-07
-3.60199e-07
3.1692e-07
-0.00096443
4.86572e-07
-4.51141e-08
-1.26776e-06
-1.42917e-07
0.000312208
-1.70673e-06
1.81893e-06
-1.28471e-06
-0.000997421
0.000715291
-0.00121182
-0.000922588
1.8846e-06
-0.000970783
3.05326e-07
-1.24515e-06
-1.44256e-06
0.00104186
-5.72668e-07
2.77175e-07
-6.23668e-07
-0.00256797
-3.69937e-07
-0.000771991
-9.75237e-07
-7.97155e-07
-0.00101927
1.72577e-07
-2.17352e-06
-4.2256e-07
-2.46615e-07
3.705e-07
-7.05406e-06
2.93149e-07
1.08755e-07
-3.89142e-07
-0.00152631
-8.82053e-08
-3.72542e-07
-4.72576e-07
-3.27238e-07
-2.33855e-07
-1.86421e-05
-1.47524e-06
-5.2098e-08
9.66632e-08
-0.000128863
-1.21273e-06
8.42154e-07
-0.000930561
-2.72819e-07
-1.34631e-07
0.000514646
2.67443e-07
-3.82126e-07
-0.000957999
-0.000581268
-8.49385e-07
-1.24544e-06
-4.56804e-07
-0.00017556
0.00507742
-8.79115e-07
-0.00142088
7.6589e-08
-1.78187e-06
-0.000601928
-0.00171958
-0.000695148
0.00386534
3.91578e-07
-1.59152e-07
-1.08439e-07
-2.33036e-07
-1.66015e-07
-0.00259712
1.83076e-07
-1.11051e-06
1.70874e-07
-1.22311e-06
-0.000809302
-3.94473e-07
-0.00118892
-0.000297795
-1.53709e-07
-1.5792e-06
-3.74548e-07
-3.76555e-07
-1.9838e-07
-0.000615944
-1.60269e-06
-0.000504955
-6.92056e-07
-0.000518067
8.64847e-07
3.21726e-07
1.52046e-06
-9.83978e-07
5.5396e-07
-1.79152e-07
-0.000400048
-1.94108e-07
-5.44464e-07
-1.02596e-06
-4.0159e-07
-2.60247e-07
-1.30928e-06
-0.000868423
-1.59139e-07
8.078e-05
-3.93854e-05
-2.50302e-07
-1.71808e-07
3.51783e-07
-0.00164807
-0.00120394
1.62378e-07
-7.78207e-07
2.5872e-06
2.20249e-05
-0.000159079
-2.27816e-07
-1.08734e-07
3.89305e-07
-1.41203e-07
6.33137e-07
-4.06418e-07
-0.00159625
-4.60498e-08
-5.34825e-07
-1.02534e-05
1.25976e-06
-2.04667e-06
-0.000829928
-0.000583304
-2.5344e-07
1.00588e-07
-1.1528e-07
-3.55258e-07
-1.41701e-06
-0.00104488
7.15017e-05
-1.90146e-05
-6.9651e-07
-1.19083e-06
-4.53573e-07
-7.53038e-06
-5.16555e-07
5.45071e-06
2.01561e-07
0.00159717
1.88736e-06
2.07063e-07
-2.34832e-07
-0.000899889
-1.15072e-06
-4.34469e-06
-0.000545221
3.67403e-05
9.30754e-08
-0.000778935
3.80181e-07
-1.00852e-07
-0.00113578
-0.00481787
1.99801e-07
-5.47842e-07
7.28049e-06
-9.76849e-07
-3.47687e-07
2.92001e-07
-1.76803e-07
5.84901e-08
-1.69479e-07
-8.1148e-07
-1.31692e-06
-0.00041635
-9.96365e-07
-6.43377e-07
-8.85503e-07
9.50814e-07
1.11877e-07
-9.37552e-07
-0.000718205
-0.00262527
-0.000516815
-3.53619e-07
2.92727e-07
-0.000548825
-1.03139e-07
-5.38205e-06
-4.15981e-07
-1.21799e-06
-2.87999e-07
-9.70787e-08
-0.00188546
-6.7225e-07
-3.58896e-07
-1.17932e-07
-0.000291045
-0.00165746
-0.000599574
-5.88351e-08
-1.74501e-07
0.00402611
1.3946e-07
4.23647e-07
0.000901359
-0.00351782
-6.60118e-07
-9.70736e-07
-3.35804e-07
-0.00155391
-1.13066e-07
-5.97271e-07
-2.61276e-07
2.76303e-07
-0.00277563
-1.23854e-07
6.26256e-08
2.53243e-05
-1.35438e-06
-0.000368469
-0.00194032
-1.12435e-07
-8.43723e-07
3.17886e-08
1.13203e-07
-8.10776e-08
-1.25887e-07
-2.44901e-07
-0.00301722
-2.31127e-07
-1.51941e-06
4.27238e-07
2.40428e-07
-2.03946e-07
2.38799e-07
1.46329e-08
-0.000583209
2.94434e-07
-0.00121029
-1.59634e-06
-1.00382e-07
-1.26289e-06
-9.60829e-07
-8.66012e-07
-2.3674e-07
9.05907e-09
-4.9689e-08
2.20131e-07
0.000187045
8.64316e-07
3.69069e-07
4.29595e-07
1.66216e-07
3.51623e-07
9.70688e-07
-1.50485e-07
-0.000950844
-1.12398e-06
4.16664e-07
-7.65823e-08
2.77458e-07
-1.1169e-06
3.69987e-06
6.32501e-05
7.61694e-07
0.00064172
1.29271e-07
4.32617e-06
-4.80778e-07
-0.0011121
1.70672e-07
2.89048e-07
-5.6243e-07
-6.88609e-05
2.68928e-07
-0.000839218
-2.38533e-07
3.92209e-07
0.0011427
-0.000560217
-0.000147371
5.61305e-05
-6.32959e-07
0.0010902
1.51251e-06
4.34275e-07
-0.00108791
-1.53595e-07
2.27827e-07
-0.00082221
2.75255e-07
-0.000914398
-1.86651e-06
-1.32486e-07
-2.25988e-07
4.40851e-07
-0.00105621
1.80408e-07
2.92521e-07
-1.72523e-06
-1.26364e-07
4.58047e-08
3.41072e-07
4.30978e-07
-1.12026e-06
-2.4522e-07
1.95831e-07
-1.93183e-08
0.00184733
1.83563e-06
-2.55794e-08
-1.63094e-08
-3.51999e-07
-8.0592e-08
-4.94878e-07
-5.85524e-08
2.85528e-07
-2.4396e-07
-1.21172e-07
-3.45072e-07
-2.34858e-07
-2.73292e-07
2.825e-07
-1.77704e-06
-1.42383e-07
1.89457e-06
1.78439e-07
-2.3833e-07
-1.23802e-07
2.96996e-07
-1.05936e-06
-8.70195e-07
-5.57964e-07
-0.000430644
-1.98893e-06
-0.000961958
-0.000860324
-1.88752e-06
-0.00128628
-1.78896e-07
-2.29847e-07
0.00360509
-0.00110165
3.69551e-07
-0.000589006
2.33109e-07
-3.51153e-06
0.000549665
-4.91366e-07
-1.76547e-06
-0.00275726
-1.16295e-05
2.0778e-07
-1.14873e-06
-7.5091e-08
1.81982e-06
-5.3602e-07
-0.000982439
-0.000529982
-2.65868e-07
1.56803e-06
0.00191698
-8.76077e-08
-0.00116827
-0.000708065
-4.06064e-07
-1.23823e-07
-0.000175317
-0.000617773
4.32104e-07
-8.88179e-07
-2.8476e-07
0.0036821
0.000273273
-2.40833e-07
1.7312e-07
-0.00169108
1.29018e-07
-1.52438e-07
-3.17327e-07
1.04186e-07
-0.00112144
-1.31492e-06
-7.75531e-07
-0.00068348
-1.65604e-07
-2.82749e-06
-2.22175e-07
-0.000105292
-1.20131e-06
2.14602e-06
1.91571e-07
-7.48551e-07
2.05828e-07
3.6906e-07
-4.55251e-07
-2.37585e-07
-0.0011929
-3.67024e-07
1.0447e-07
-1.60393e-07
0.00038849
-1.20378e-07
0.00196444
-0.00121779
-0.00381454
-7.08424e-08
1.41236e-07
-1.34434e-07
-0.000703199
-2.7035e-07
-0.0014531
2.08839e-07
0.00386802
-3.85695e-07
2.22607e-07
-0.00187981
-2.4935e-07
8.89162e-09
-0.000586606
1.38553e-05
-0.000854924
2.65551e-07
-0.00124516
0.000664531
-2.32438e-07
-0.000664691
-2.53712e-07
-7.30995e-07
-0.000567972
-4.39166e-07
8.62257e-08
-0.000589013
-3.09638e-07
-1.48869e-06
-1.93174e-07
-0.00159009
-1.67621e-07
0.00201915
-1.23803e-07
-0.000413573
-1.70461e-07
-6.36052e-08
9.42578e-08
0.00340019
1.27647e-07
-1.4736e-06
-1.88991e-06
-0.00209508
-1.90224e-07
-6.71223e-07
-0.00110796
-0.000145017
-0.000943782
-1.35032e-06
1.87859e-07
1.24888e-05
0.00448438
-3.92563e-07
-0.00126487
2.82433e-07
-0.000151035
-0.000399172
1.42351e-07
-0.000183918
-7.53692e-08
-0.00129313
-0.00104173
-4.71008e-07
-6.54481e-08
0.0019105
-8.39852e-05
-1.02586e-07
-4.1227e-07
1.18353e-07
-2.44718e-07
-0.0013418
-1.30225e-06
-0.00200259
-5.82918e-08
-7.17486e-07
-0.000936774
3.88663e-07
-0.000238699
-0.00167374
-1.21505e-07
-1.20797e-07
-0.00203741
-0.00115686
-0.000886459
0.000760382
-0.00335935
-1.12132e-06
-3.97445e-06
-0.0011538
-0.000698586
-0.00218391
-1.27498e-07
-1.94092e-06
-1.10118e-06
-1.42402e-06
-2.33003e-07
-6.23789e-07
-1.27914e-06
0.00374009
-0.0022201
4.63943e-07
-0.00270176
-0.000681986
-9.15862e-07
-1.11842e-07
-1.29133e-07
-0.00513251
1.66104e-07
-0.000985775
-7.50448e-07
3.78972e-07
-0.00013238
-2.4676e-07
-1.32491e-08
-9.91225e-07
-8.12093e-07
-2.33773e-07
-0.00110952
4.36703e-07
-0.00102193
2.56887e-07
-0.00071397
-0.00165885
-0.00195369
2.98168e-07
-6.32076e-07
-3.77612e-07
0.00363306
-2.53819e-05
-1.59019e-06
-0.0013399
0.00522163
9.32679e-08
-6.13653e-07
2.47672e-07
-5.84636e-05
-0.00017288
2.19619e-07
-1.34971e-08
-3.91663e-07
-0.000790214
0.00471623
2.27176e-07
-1.2991e-06
-1.03919e-05
-1.09464e-07
-7.2156e-08
-4.09439e-07
-0.00104212
-1.0376e-06
-1.06252e-05
-0.0014218
-7.75871e-07
-3.96378e-07
-0.00129949
-1.68033e-07
-1.20953e-06
-0.000567469
-7.49553e-08
1.79187e-05
-8.28416e-07
-1.36018e-06
-0.00117723
-0.00125219
-1.96702e-07
-0.000610569
0.0059133
2.69805e-07
-0.000150231
-1.48202e-06
0.000141942
-0.00119322
0.00155586
0.000421412
4.88587e-06
-0.000551447
-6.63622e-07
-1.42509e-06
3.12567e-07
-2.36932e-07
-2.31824e-07
-5.31513e-08
-0.00191071
0.00217557
2.92903e-07
2.26661e-06
-0.00207897
-1.62023e-07
-0.00149199
-0.00122418
1.19207e-07
-2.64406e-07
4.33799e-07
-3.38797e-07
-1.11366e-06
-1.66356e-07
-0.000504313
-8.15838e-07
-1.48396e-06
-3.75713e-07
-1.35722e-06
-3.06626e-06
2.74125e-07
-0.00434725
-2.33758e-07
-3.46956e-07
2.88524e-07
2.31191e-07
-0.00113778
-2.04225e-06
-6.28586e-07
-0.000588165
-5.6175e-08
-3.06472e-07
-3.03374e-07
2.20546e-07
3.84588e-07
-3.76542e-06
-6.07048e-07
-0.000648643
-0.000136696
-0.000890548
-1.90632e-07
-0.000778243
-1.89138e-07
-0.00192046
-1.01331e-08
-0.00124933
-0.00094316
-9.27259e-08
-0.000635913
-0.000548694
-8.21792e-07
-4.91464e-08
1.33647e-07
-6.81375e-07
-0.00115398
1.12342e-07
-2.67988e-07
7.6151e-07
1.99515e-06
-0.00234042
-1.04509e-07
-6.22807e-07
-1.2045e-07
2.93235e-07
-0.00129474
-9.60465e-07
-5.20993e-07
-0.000186804
0.00135028
-0.00103769
0.000811807
1.35638e-07
-3.41179e-07
-0.00061746
-2.35016e-07
-1.47025e-06
-1.9521e-07
-0.00135463
1.24438e-07
-6.01631e-08
1.01157e-06
-0.000985299
-1.07467e-07
2.03121e-07
1.7429e-07
-0.000764962
-0.000529978
5.89878e-05
-8.88338e-08
-4.60382e-07
-8.93301e-08
-0.000654448
6.16824e-07
-0.00148491
-1.34049e-06
-5.73573e-08
-0.000530414
4.60224e-07
-1.64841e-05
-2.63476e-07
4.24411e-07
-8.23484e-07
-2.59961e-07
0.00157852
-2.45033e-07
-2.88366e-07
1.52524e-07
-0.000869285
-6.50256e-08
-1.2929e-07
-0.00126625
-3.8284e-07
5.20749e-07
-5.63931e-07
5.59522e-08
2.39333e-07
0.00106741
-4.23812e-07
-0.00261796
0.000490648
1.98792e-07
0.00223708
-2.88689e-07
1.82979e-06
-1.18856e-06
-1.2551e-07
3.00433e-07
1.85636e-07
-1.66988e-07
0.00176438
-1.13363e-06
-0.000551669
-0.000635958
-5.24187e-08
6.22639e-08
-1.15474e-06
-0.00165945
-2.06757e-07
-1.2862e-06
-0.0012354
-0.00141187
1.87986e-07
-4.29949e-07
-3.10443e-07
5.8814e-05
-0.00114662
3.66797e-07
-5.86328e-08
-8.63894e-07
-0.000433771
-2.3785e-07
-4.36411e-07
-3.74469e-07
-1.5646e-06
-0.00139971
1.42635e-07
-0.000854387
-1.27824e-06
-1.10251e-07
-0.00118823
-1.35304e-06
0.00183074
0.00262769
-8.37306e-07
-7.00861e-07
-1.55451e-07
-4.48025e-07
-3.05619e-07
-1.78697e-06
-1.76821e-06
2.69723e-07
-5.48843e-07
-0.00190963
-0.00067152
1.18063e-07
1.12287e-05
-0.000808619
0.00260862
2.88704e-07
-2.25363e-07
-0.000370437
-0.00151758
3.42302e-05
-8.91549e-08
-0.000587501
-1.43058e-06
2.44228e-07
-0.000432468
-6.78508e-07
-2.4742e-07
-0.000464614
-9.51003e-08
7.68654e-07
1.56028e-07
1.22761e-07
-7.47658e-08
1.75136e-07
-0.00127523
2.93779e-07
-1.29545e-07
-1.64809e-06
-5.5097e-07
-3.95945e-07
-0.000850063
-2.38879e-07
-1.03933e-07
-3.85592e-07
-3.48074e-07
0.000261043
0.00058775
-0.00172892
0.000574354
-1.63774e-06
0.000837645
1.34428e-06
-0.000922163
-0.000562687
-0.00122388
8.10925e-09
-2.70957e-07
-2.10525e-07
-2.26899e-07
2.43457e-07
3.23374e-07
-0.00303527
-1.3478e-06
-1.04455e-06
-1.54276e-07
-1.19093e-07
-1.21371e-06
-2.66493e-07
-2.85697e-07
-2.40304e-07
-0.00064274
-8.53069e-07
-0.000328219
-1.74831e-07
0.000672176
-2.92364e-07
-5.8594e-08
-2.59636e-07
-1.08584e-06
-1.25885e-07
-9.69393e-07
-0.00077
-1.23832e-06
-0.000541279
0.00119625
-8.22881e-08
-7.14092e-07
0.000142649
3.09515e-06
3.01658e-07
2.58748e-07
1.99976e-07
-0.000656639
1.26037e-07
1.70574e-05
2.15279e-06
-1.75911e-06
-0.00357088
-0.00533135
-1.51085e-06
-0.00109098
4.32597e-07
1.1443e-07
7.316e-06
-0.0015196
-2.31734e-07
-2.00281e-07
0.00602387
-1.2676e-07
-0.000369156
-8.00872e-08
6.13567e-07
-5.05517e-07
-2.16499e-07
-1.57824e-06
-0.000817065
-0.00066321
-5.7138e-07
2.83192e-07
-5.19611e-06
-3.78711e-07
-1.79382e-06
-4.99785e-08
-0.00102352
-2.54087e-06
-2.84837e-07
-2.38849e-07
2.27511e-07
0.000758467
-1.05217e-06
-0.0024175
-0.00115969
-7.93589e-07
-0.00144858
-1.71737e-06
-3.32649e-06
-0.00132036
-1.9703e-07
-0.000678034
-3.58586e-07
-0.000615581
-0.00186594
-0.000627997
-0.00130946
-9.03526e-08
-1.19814e-06
6.54101e-06
-7.42832e-08
-0.00053627
-2.37677e-07
-2.26793e-07
-6.2938e-07
-3.23254e-07
-8.52499e-07
-0.0023538
-0.00175168
-0.000653024
-6.34254e-07
-1.24604e-06
-3.57997e-07
-5.91077e-08
-2.13702e-07
0.000346039
-2.28067e-06
-0.0010796
-1.16349e-06
2.94879e-07
9.32687e-08
-2.37937e-07
-0.00274361
-4.00463e-07
-2.02026e-07
-5.6151e-07
-1.41048e-05
-8.82844e-07
-6.2361e-07
-1.98571e-06
-0.000770654
-7.8981e-07
-9.40115e-07
-2.03562e-07
-6.26683e-07
-0.000722465
4.27567e-06
-1.7172e-06
2.31521e-07
-0.00119121
-9.35595e-07
-8.60795e-08
-1.15499e-06
-0.000879165
-1.57734e-05
-9.02848e-07
-1.23228e-07
-0.000777858
-2.8901e-07
-1.09663e-07
2.97492e-07
-0.00067093
-0.00132984
-1.37392e-07
-0.00117144
-0.00133019
5.83779e-08
-1.38642e-06
-1.26266e-06
-0.00101409
-8.43073e-07
-0.00115099
-2.97151e-07
8.08494e-07
3.07408e-07
-0.00118464
-9.59552e-07
2.56183e-07
-0.00090722
-1.04869e-07
-3.39682e-07
-0.00132598
-0.00149591
-1.95093e-05
-0.000851567
-5.27981e-07
-3.97481e-07
-0.00145424
-1.01405e-07
-1.30664e-07
-1.88044e-07
-1.11464e-06
-1.99014e-07
4.55991e-08
-1.59184e-08
1.15456e-06
-0.00165389
-3.30461e-07
-0.000469136
-5.60262e-08
-0.000811857
-0.00056468
-2.06768e-07
-2.5494e-07
-6.12305e-07
0.00555526
-0.00287236
-1.43781e-06
-0.000833781
-0.000730559
0.00544471
2.07111e-07
-0.00155374
-0.000550361
-5.88988e-07
-0.00152224
-2.46612e-07
-7.92934e-08
-1.80861e-07
-3.37574e-07
-1.04934e-07
-9.43884e-07
-0.000619851
-9.56611e-07
0.000270176
-0.000347111
-0.00158997
-0.000966478
-0.00105984
-1.3479e-06
-0.00112127
2.16425e-05
-1.68266e-06
-7.89727e-09
-8.45368e-08
-1.55125e-06
-0.000473528
-9.70604e-09
-0.00106489
-0.000997444
1.74654e-08
-2.23011e-07
2.79627e-07
-0.00020737
-3.00177e-07
-1.57162e-06
-0.000693563
1.26343e-07
-5.35487e-08
3.89064e-09
-3.44695e-07
-3.42216e-06
-0.000723899
-8.94071e-07
-0.00148839
-1.90404e-05
-1.6642e-07
0.000938498
0.00133821
6.61577e-09
-0.00177548
-0.00166831
-0.00110647
-0.000952465
-0.000571577
-8.54957e-08
-0.00156052
-0.000718062
0.000151372
-0.00144916
2.27753e-07
-3.79753e-07
-4.68426e-07
-4.4757e-07
-0.00135336
-1.43163e-06
-2.53119e-07
-7.00148e-07
0.000501913
-0.000701681
1.97614e-07
1.82855e-07
-0.000937049
-0.00106905
-2.38851e-07
-6.77621e-07
4.97884e-06
-1.1748e-07
-9.70325e-08
-0.000879004
-1.59038e-07
-0.00259428
0.00087818
-0.00132815
-1.21664e-07
2.72497e-08
-0.00128784
-7.5271e-08
2.68878e-07
-7.683e-05
-0.00105926
-6.00761e-08
-5.91891e-08
-0.000410414
-0.00261799
-0.00107789
-0.00114776
-6.03808e-07
0.00168409
0.00141227
-9.65243e-07
-1.19608e-07
-4.72784e-08
1.61845e-07
2.88663e-07
-0.000604537
-1.13005e-06
-4.65443e-06
-5.50105e-07
-1.68956e-07
1.58269e-07
3.25083e-07
-3.2746e-07
-3.60396e-07
-0.00119736
-5.29496e-07
-0.00107762
-0.00029741
-1.13435e-06
-1.52905e-06
-0.00115473
-0.00122734
-0.0012077
3.19195e-07
-5.74593e-07
-9.78795e-07
-5.85745e-07
-0.000256814
0.00111354
-3.18548e-07
-0.00110155
-0.000636773
-6.24719e-07
-1.96122e-06
-1.6887e-06
-3.02079e-06
5.53542e-06
-4.07337e-07
-2.28967e-05
-0.000865539
-0.00191676
-0.00206373
-4.58807e-07
-1.75442e-06
5.234e-07
-1.31037e-07
-9.43204e-07
-2.46244e-06
-1.41092e-07
-0.000925949
-0.00109407
-0.000246178
-0.000954156
2.58931e-07
2.63749e-07
8.73465e-07
-0.00135829
-3.45368e-07
-3.99891e-07
-1.38833e-06
-0.000576572
0.00465655
-2.3538e-07
-7.10456e-08
-5.98031e-07
-0.000378383
0.000920897
-5.01635e-07
-0.0012433
-0.000706409
-3.65271e-06
-0.00113582
-3.19927e-06
2.00727e-07
-0.00109243
6.14897e-08
-0.0011477
-0.000722368
-3.47034e-07
-1.43786e-06
-7.75503e-06
-7.47379e-07
1.4467e-07
0.00486897
0.00169142
4.10762e-07
4.1419e-07
-0.00115256
-0.00176054
-1.74644e-06
-2.60473e-07
-0.00193373
7.25223e-05
-0.000962282
-0.000514934
-2.08758e-07
-1.04922e-07
-3.40376e-07
5.9378e-07
-0.00120386
0.00625457
-0.0011164
-2.26959e-06
-0.00183698
-0.000684291
6.73384e-07
-1.21454e-07
-0.000692363
2.40337e-07
-0.00115228
5.04912e-07
-0.00110737
-3.77448e-07
-3.32846e-07
0.00322341
-8.56981e-08
7.1735e-05
0.00200026
-2.85735e-07
-4.2438e-07
-4.00408e-07
-0.00289403
-0.000574577
0.000314053
-0.000872235
1.62022e-06
4.95834e-07
-7.42557e-07
-1.74629e-06
-0.00108337
-0.000664501
-1.86251e-05
-0.00191049
-0.000524091
-0.0014095
-2.5257e-07
2.71871e-07
1.20154e-07
-7.19402e-09
-0.00126306
-8.48345e-07
-1.03651e-05
-1.27092e-06
-0.00157647
-1.1284e-07
0.0019235
0.00439371
-0.000413874
-8.735e-08
-4.12544e-07
1.33067e-07
-0.000776735
-1.86997e-07
0.00375525
-0.00117906
1.60636e-05
-0.00184433
2.13633e-07
-1.03682e-06
0.000317437
-0.00134725
-0.00174461
-1.00503e-07
-0.000728123
-3.00121e-07
7.28132e-08
0.000855831
0.000146311
-0.000833041
-2.59548e-07
9.10609e-07
0.000808017
-0.000942247
-0.000363108
-0.00124369
-0.00131205
8.68086e-08
-1.3135e-06
-4.76242e-08
-0.00146296
2.03597e-07
4.81735e-05
-4.64414e-07
-1.15591e-06
0.00118455
0.00171635
1.82388e-06
4.08278e-05
-0.000737319
-7.96404e-06
-4.89274e-07
-0.000742585
-4.43895e-06
-1.65646e-07
-4.63174e-08
-0.00134216
-7.70693e-07
0.000496808
-0.0016033
-4.21445e-06
-0.000538352
3.59164e-07
-0.00129873
-0.000796168
0.00301309