/*--------------------------------*- C++ -*----------------------------------*\
| =========                 |                                                 |
| \\      /  F ield         | OpenFOAM: The Open Source CFD Toolbox           |
|  \\    /   O peration     | Version:  v2012                                 |
|   \\  /    A nd           | Website:  www.openfoam.com                      |
|    \\/     M anipulation  |                                                 |
\*---------------------------------------------------------------------------*/
FoamFile
{
    version     2.0;
    format      ascii;
    class       volScalarField::Internal;
    location    "300";
    object      V0;
}
// * * * * * * * * * * * * * * * * * * * * * * * * * * * * * * * * * * * * * //

dimensions      [0 3 0 0 0 0 0];


value           nonuniform List<scalar> 
13917
(
0.00162474
0.0421673
0.00431547
0.0433395
0.089983
0.0536079
0.0226461
0.0436845
0.0211227
0.00125595
0.0471715
0.0622351
0.176375
0.0444497
0.0627229
0.00135926
0.163482
0.0468939
0.00641371
0.00164825
0.0322743
0.106562
0.0117114
0.117256
0.0324777
0.0331807
0.0212266
0.00135143
0.041757
0.163312
0.0013078
0.00761607
0.0453233
0.00169829
0.141143
0.0445464
0.0502937
0.173231
0.0206075
0.0279839
0.200667
0.140473
0.0308955
0.00554495
0.00664115
0.0083439
0.0395617
0.00324254
0.0513099
0.113687
0.061836
0.00934449
0.00143018
0.0788928
0.0776168
0.00695612
0.00118709
0.0131702
0.150429
0.0103896
0.00767049
0.123421
0.161835
0.0371547
0.00246341
0.153385
0.0407407
0.0415901
0.0420134
0.00128155
0.00370101
0.00126324
0.0722887
0.149497
0.0320989
0.0383424
0.0747701
0.156853
0.0439026
0.0331567
0.0845269
0.180177
0.0773354
0.00346801
0.149394
0.0368122
0.00829632
0.169468
0.0292843
0.138089
0.151883
0.0278645
0.0605839
0.149364
0.0682594
0.0407862
0.0289577
0.175116
0.139541
0.0266887
0.170541
0.131498
0.071017
0.152002
0.0974264
0.00283006
0.00261825
0.137116
0.139468
0.0200559
0.16977
0.00195747
0.0384226
0.00329563
0.00272353
0.0380852
0.00727411
0.16774
0.00476378
0.0720976
0.172453
0.157813
0.0386462
0.00822678
0.00146956
0.00210217
0.0333614
0.0313433
0.134763
0.00658914
0.0127475
0.0119074
0.00208436
0.0426474
0.00656593
0.0211075
0.00827475
0.00138197
0.0366819
0.184195
0.0620933
0.156346
0.00308774
0.0983655
0.0681237
0.152075
0.00342599
0.1213
0.0022102
0.0892753
0.026507
0.199967
0.0698077
0.0614172
0.0243146
0.0957577
0.144458
0.00171379
0.183217
0.156643
0.138105
0.00374675
0.0545379
0.0702483
0.00454036
0.0236637
0.00122531
0.0045166
0.173354
0.0362359
0.104151
0.00230686
0.0245683
0.00790599
0.0102706
0.167734
0.0390131
0.00973631
0.0158741
0.0508998
0.0308295
0.114258
0.0513519
0.00552598
0.004603
0.0140646
0.0588859
0.00765045
0.168971
0.0384437
0.0135704
0.00657644
0.00680373
0.00149562
0.113813
0.00149927
0.0264276
0.00213308
0.139361
0.101705
0.0345877
0.00137466
0.00119484
0.0514639
0.0161708
0.042995
0.0254568
0.152903
0.00885985
0.0834835
0.143005
0.0755641
0.0735336
0.00293169
0.00653898
0.0307678
0.00290453
0.169544
0.151981
0.144346
0.00429267
0.00770918
0.00754586
0.150004
0.167964
0.0217829
0.00147241
0.130776
0.145865
0.152417
0.14698
0.151176
0.00112459
0.00298499
0.0764173
0.169115
0.0112006
0.00143285
0.159204
0.152523
0.0207829
0.00270436
0.0055223
0.00260577
0.0109628
0.0868061
0.00495209
0.00983115
0.0333412
0.00856396
0.0509295
0.00235054
0.0586175
0.0145091
0.0143032
0.0838472
0.179758
0.0317961
0.10156
0.130218
0.00144046
0.0375969
0.157944
0.14341
0.0956307
0.139068
0.0669768
0.178269
0.0159001
0.157647
0.00131747
0.00275611
0.094253
0.0957196
0.0103836
0.159021
0.0227386
0.0014684
0.154299
0.00126912
0.134915
0.00451664
0.180957
0.0662433
0.0707382
0.124386
0.0051811
0.169629
0.0222809
0.0255913
0.0390872
0.124662
0.020635
0.00132792
0.139444
0.0124091
0.101478
0.0395738
0.0970902
0.0359204
0.141614
0.172578
0.0117404
0.102025
0.017134
0.0361443
0.124763
0.00178914
0.00109806
0.135628
0.16707
0.0368625
0.0843479
0.00496965
0.00277014
0.00672825
0.188964
0.0141534
0.092475
0.00325852
0.0847502
0.003667
0.139967
0.0596113
0.0191593
0.0959405
0.0404908
0.00646842
0.178612
0.00187344
0.147281
0.0100801
0.16164
0.00165464
0.12794
0.0152146
0.0384193
0.179423
0.18777
0.00733466
0.00304833
0.0703377
0.094031
0.00187103
0.00290432
0.00541321
0.0428818
0.164486
0.0762217
0.00262274
0.0118891
0.175143
0.120318
0.0573404
0.0290002
0.0133123
0.0077409
0.0147685
0.0239485
0.00902289
0.0016532
0.124923
0.0720565
0.0645976
0.00484743
0.170645
0.00124211
0.0107264
0.118421
0.0599999
0.014526
0.166227
0.054729
0.128244
0.0067924
0.00897488
0.0434136
0.0825899
0.00361908
0.159199
0.00499506
0.0061555
0.126405
0.0523897
0.0786483
0.132516
0.135964
0.00157613
0.126518
0.0424311
0.0201573
0.0264703
0.0577468
0.00606559
0.0039878
0.0441513
0.00552844
0.076741
0.0264589
0.00453861
0.127063
0.019729
0.0300383
0.134201
0.130509
0.134808
0.00767067
0.0231517
0.0590445
0.131029
0.104145
0.0139534
0.0456758
0.165028
0.190448
0.00581196
0.0163711
0.102281
0.0510504
0.00657753
0.0291665
0.14413
0.005869
0.00304865
0.145457
0.163358
0.0368457
0.133146
0.162782
0.0652512
0.137665
0.142347
0.00406646
0.0731386
0.0214393
0.00136443
0.0123275
0.135734
0.0709566
0.00552222
0.0396005
0.00122745
0.165913
0.0861902
0.15258
0.145116
0.0484056
0.0806748
0.00818496
0.145242
0.00242655
0.094144
0.013281
0.134408
0.0718453
0.0104377
0.00666336
0.0555967
0.0234373
0.13429
0.143891
0.102272
0.0794156
0.142107
0.157587
0.00186505
0.00645735
0.141819
0.0172573
0.00489379
0.149279
0.0121866
0.00662445
0.00382699
0.0180039
0.00276398
0.131816
0.131707
0.0745132
0.156528
0.13355
0.0559418
0.00603867
0.140987
0.0754402
0.0579508
0.0201392
0.0271444
0.00428978
0.00816243
0.126423
0.0956111
0.0409066
0.0202613
0.0552693
0.0349149
0.012996
0.0250066
0.00518676
0.128174
0.0169815
0.0083115
0.133959
0.00164435
0.119801
0.132898
0.0119321
0.154953
0.169902
0.01227
0.00171123
0.0205739
0.128842
0.0310313
0.116855
0.00686458
0.00964439
0.0606532
0.0857759
0.116701
0.0144763
0.108075
0.126748
0.197773
0.104181
0.116117
0.107333
0.0172347
0.158043
0.0078285
0.137687
0.107025
0.0324383
0.00187965
0.135972
0.0260732
0.130366
0.0150964
0.0109051
0.0284208
0.0117719
0.0225043
0.0432729
0.0412334
0.00207592
0.00371534
0.00141974
0.139486
0.103524
0.120058
0.0763678
0.00284431
0.1472
0.0823381
0.0273919
0.00247099
0.0217926
0.026767
0.00142567
0.144112
0.00628465
0.17939
0.139777
0.00162856
0.167536
0.00325955
0.176461
0.138751
0.101551
0.00449428
0.106874
0.11822
0.00568323
0.0122905
0.100571
0.00332952
0.00209849
0.00370612
0.122605
0.00108469
0.160841
0.00702056
0.110719
0.129705
0.155636
0.132313
0.0137328
0.0281396
0.162714
0.13646
0.153191
0.00369342
0.0922886
0.00802001
0.0762931
0.122855
0.166865
0.00795683
0.0041005
0.00175913
0.00931739
0.0163985
0.00470662
0.00132861
0.134162
0.0062912
0.147314
0.00599741
0.0722896
0.00352163
0.116965
0.101584
0.0586474
0.0938139
0.0160358
0.0026053
0.153505
0.0151567
0.120041
0.135075
0.00157775
0.0263985
0.103141
0.00737713
0.11143
0.13475
0.177743
0.00164525
0.109634
0.0932099
0.124198
0.0997544
0.00422068
0.189219
0.00687239
0.169097
0.141024
0.00711324
0.00667581
0.0793426
0.00114632
0.00307776
0.0490232
0.00680537
0.147183
0.0545474
0.00162405
0.00291115
0.0364535
0.0407314
0.084378
0.136832
0.111654
0.155335
0.00968842
0.026687
0.00511355
0.0159697
0.0470677
0.00922468
0.0964275
0.0153622
0.00664666
0.00124449
0.136517
0.0870421
0.132489
0.134673
0.126372
0.183939
0.109958
0.150352
0.000961381
0.0136633
0.161367
0.00624226
0.122156
0.00227165
0.135209
0.127956
0.00164313
0.00916544
0.139031
0.0498991
0.157267
0.130367
0.0319303
0.0113925
0.115639
0.0011966
0.0225999
0.112359
0.138748
0.0848568
0.0015344
0.0299767
0.133469
0.109027
0.00145524
0.0174375
0.0233357
0.00136227
0.0871288
0.132874
0.132888
0.0483355
0.00257945
0.140387
0.0143264
0.0370865
0.0236239
0.00482857
0.0947754
0.00748871
0.0119041
0.0668334
0.0266039
0.132039
0.0178211
0.0963578
0.00308033
0.0404381
0.122368
0.00129311
0.168604
0.0857455
0.046253
0.0482361
0.0212208
0.00299221
0.173921
0.00765413
0.00377847
0.168992
0.081261
0.0367847
0.147178
0.0786565
0.069751
0.0611126
0.143915
0.00810448
0.00687132
0.138797
0.0033194
0.0173938
0.0163247
0.00710566
0.0759283
0.00637409
0.0225643
0.134449
0.00970386
0.0120423
0.011077
0.0960636
0.137529
0.0925892
0.00115177
0.0504804
0.142983
0.011353
0.114509
0.134673
0.00597456
0.0232674
0.0613619
0.0280843
0.0306132
0.00246591
0.0500493
0.0623107
0.00427189
0.13033
0.13243
0.152259
0.149195
0.0544063
0.0370103
0.0261855
0.0943685
0.159093
0.106051
0.0843882
0.0421833
0.0164175
0.146815
0.00678717
0.0599363
0.00446923
0.0591232
0.141691
0.00215159
0.0326772
0.00147613
0.0299828
0.0629665
0.0932229
0.132615
0.0788011
0.00158039
0.0191342
0.0472824
0.0268656
0.0852348
0.0104911
0.179095
0.115323
0.115339
0.135169
0.0044378
0.0260805
0.0575439
0.00638951
0.0844995
0.152089
0.127542
0.0146239
0.137112
0.0758042
0.0442711
0.105465
0.00973619
0.122328
0.0315362
0.0638398
0.00124018
0.00142514
0.0708888
0.00239279
0.0217487
0.00123231
0.0865722
0.14665
0.129378
0.0768208
0.0425891
0.11335
0.0175515
0.0946932
0.0340285
0.0733694
0.00309482
0.0469829
0.0145721
0.0151978
0.130939
0.0232365
0.0311639
0.134706
0.0205018
0.159598
0.00187869
0.00880002
0.149034
0.129489
0.0890758
0.102143
0.104334
0.00509325
0.141754
0.0236392
0.114049
0.160195
0.0704529
0.0982312
0.00521458
0.0925009
0.146632
0.140053
0.00536928
0.0557745
0.00677515
0.138906
0.026269
0.16124
0.102423
0.00136358
0.133059
0.0339834
0.00682246
0.00144523
0.156848
0.0841716
0.00435735
0.146863
0.0870259
0.102367
0.00302036
0.104459
0.00515313
0.0497875
0.0017196
0.0599615
0.0116843
0.118993
0.163401
0.143542
0.164117
0.169005
0.00214994
0.0517259
0.129367
0.0793614
0.13766
0.130835
0.0089066
0.0437673
0.00244848
0.021719
0.00697515
0.0080814
0.0248732
0.0012994
0.0615908
0.0094567
0.091741
0.00123429
0.136951
0.0456441
0.16318
0.134392
0.0500658
0.153671
0.139384
0.136821
0.0835004
0.01792
0.137297
0.0523912
0.00727754
0.00451272
0.00396482
0.00695873
0.0895828
0.118218
0.109701
0.0042441
0.107794
0.00112497
0.121277
0.145235
0.158603
0.0786271
0.126887
0.149253
0.109563
0.0146828
0.13034
0.00141606
0.0831208
0.123205
0.00177236
0.0873097
0.104252
0.118263
0.00168351
0.0181238
0.156646
0.137231
0.148949
0.125793
0.0029828
0.133213
0.0274221
0.037136
0.0615819
0.147327
0.139954
0.0247895
0.0865311
0.027666
0.00146086
0.0949925
0.122502
0.0803704
0.092179
0.136739
0.00546581
0.01221
0.0242793
0.00148978
0.00174334
0.0884151
0.00539575
0.140275
0.00146156
0.133839
0.00790671
0.0127949
0.0178489
0.0364289
0.0107657
0.0164536
0.00273078
0.165379
0.102084
0.159351
0.0843516
0.0124029
0.0645844
0.0487005
0.0127313
0.000789132
0.141032
0.0185276
0.00136808
0.175315
0.12338
0.0773676
0.0026481
0.0396629
0.165233
0.0162488
0.0696849
0.125308
0.0604921
0.0386751
0.0853647
0.111473
0.164501
0.143572
0.113263
0.09626
0.00142987
0.0478253
0.0473595
0.128521
0.00140107
0.139148
0.155514
0.0377548
0.0453619
0.0273358
0.1598
0.00486495
0.118911
0.0962767
0.00861065
0.097078
0.18287
0.0084282
0.00472275
0.00742194
0.00709433
0.139452
0.00749489
0.00189539
0.180774
0.00668253
0.105833
0.0136152
0.0103279
0.111863
0.0220074
0.130631
0.0239834
0.0425673
0.0538382
0.00561544
0.0154045
0.0116507
0.00580723
0.106436
0.00527665
0.041105
0.077387
0.0965054
0.135367
0.155916
0.136516
0.0278539
0.00272536
0.131652
0.0502955
0.0271667
0.06095
0.0584246
0.0143318
0.00609684
0.0880356
0.133427
0.0290088
0.113356
0.048187
0.00136109
0.0500111
0.09639
0.0234075
0.142875
0.0496882
0.00195615
0.00132089
0.0608648
0.0148199
0.0402203
0.00106772
0.0254648
0.0252464
0.00347506
0.127679
0.00794656
0.00292794
0.00431053
0.108535
0.0519692
0.145839
0.103105
0.146072
0.0668367
0.0929457
0.0028697
0.135484
0.0125609
0.142479
0.00815768
0.0044667
0.0481525
0.00673507
0.0246503
0.0911011
0.00640768
0.0529711
0.048381
0.0908746
0.00142539
0.00950369
0.00114029
0.0264468
0.00525264
0.013151
0.15337
0.0717737
0.0155488
0.146708
0.0884676
0.0104424
0.0663877
0.0357823
0.0337981
0.0404732
0.0428384
0.00908426
0.0109223
0.106494
0.0110839
0.0515712
0.0755127
0.111536
0.133594
0.00276285
0.00521294
0.14225
0.0148401
0.154499
0.0852983
0.00121544
0.0580375
0.139799
0.135054
0.0796175
0.152947
0.0476535
0.00278716
0.103204
0.0196807
0.13782
0.157059
0.00693833
0.00283896
0.0055239
0.0512811
0.175542
0.140053
0.0524625
0.00715308
0.00185614
0.148291
0.0142412
0.036075
0.0100962
0.0274911
0.153713
0.03663
0.00548096
0.0937648
0.0252356
0.150271
0.130933
0.0565939
0.00179471
0.0148206
0.143068
0.00459325
0.0108006
0.129016
0.00946534
0.127743
0.135273
0.0052791
0.104477
0.100982
0.0573518
0.00619699
0.026023
0.0430499
0.14336
0.103385
0.140887
0.0907569
0.0182857
0.0185285
0.00113574
0.0249858
0.0221345
0.0138397
0.0136369
0.132074
0.0329888
0.00719132
0.00387671
0.00254093
0.0583117
0.123264
0.00132862
0.115914
0.119508
0.0316135
0.0199329
0.0509773
0.143916
0.00326295
0.0193922
0.0536364
0.08789
0.011583
0.0033009
0.00137186
0.107186
0.0962417
0.0507597
0.149267
0.138373
0.0148845
0.108718
0.0262477
0.0135312
0.0464394
0.00288514
0.117301
0.064298
0.0444082
0.148767
0.00355323
0.113132
0.142885
0.0131165
0.00761132
0.012886
0.00409057
0.10585
0.0143573
0.123083
0.127775
0.0834911
0.164004
0.0528459
0.00383603
0.0482758
0.0125845
0.0972667
0.13492
0.06907
0.150615
0.136357
0.00143807
0.157647
0.0466694
0.00707785
0.151909
0.0094151
0.0105446
0.0138769
0.0740785
0.115665
0.121785
0.136035
0.151049
0.047777
0.109521
0.130269
0.139907
0.126389
0.0373106
0.0986462
0.00293998
0.0124612
0.141361
0.115833
0.126708
0.0129625
0.133442
0.0245813
0.10384
0.154493
0.131779
0.011494
0.0587005
0.00362258
0.128538
0.156984
0.027699
0.159229
0.148228
0.00178489
0.0814853
0.133339
0.0141177
0.00990395
0.0010266
0.155068
0.0227046
0.0145889
0.132397
0.144871
0.00433525
0.096572
0.180778
0.0117505
0.127011
0.00182418
0.157853
0.11599
0.0812854
0.131265
0.00238279
0.134008
0.146785
0.00751531
0.0888394
0.131054
0.147865
0.125617
0.00991858
0.0600908
0.0940703
0.151617
0.0179626
0.0862037
0.148622
0.146731
0.0448528
0.130752
0.0235486
0.103174
0.136339
0.058104
0.158913
0.0524089
0.0757722
0.035777
0.133826
0.00650775
0.0902005
0.0347073
0.141558
0.0435601
0.107067
0.157565
0.0246899
0.065363
0.0212956
0.0105553
0.128393
0.00151518
0.0029324
0.00632921
0.00234187
0.0925699
0.0794539
0.0213711
0.00839684
0.119739
0.00135512
0.140617
0.00471328
0.083493
0.0198372
0.00663225
0.0314243
0.0144336
0.141465
0.00955006
0.120942
0.124893
0.0181432
0.00191708
0.00160337
0.0479957
0.0879708
0.0178881
0.14188
0.00689193
0.152384
0.0411496
0.146459
0.121155
0.00142841
0.119751
0.0132793
0.07373
0.0207704
0.0115056
0.075367
0.138141
0.0028103
0.128579
0.0919994
0.0464645
0.137188
0.00693587
0.0635318
0.0175897
0.00147674
0.0935863
0.0228644
0.0662814
0.117609
0.0136042
0.126423
0.141133
0.0133502
0.125881
0.13509
0.0276493
0.0751201
0.00560083
0.0482087
0.138276
0.115399
0.152929
0.129585
0.114308
0.0077733
0.0803256
0.1014
0.128653
0.111742
0.0865031
0.0697562
0.00270224
0.140317
0.0248263
0.0485437
0.127997
0.00342529
0.0787584
0.144311
0.00146389
0.00618265
0.00178859
0.123428
0.00221076
0.0267362
0.0834812
0.00142169
0.0805717
0.0646154
0.00517912
0.0560761
0.036507
0.001466
0.04065
0.00844571
0.0740999
0.00279821
0.0922639
0.114011
0.109323
0.00143806
0.0881067
0.148579
0.0889809
0.0794982
0.13065
0.11768
0.0149613
0.0294337
0.103987
0.0346683
0.0014027
0.0494997
0.0105626
0.0107372
0.138301
0.00716656
0.0254427
0.0612028
0.00371623
0.158435
0.00759135
0.00120206
0.130182
0.00125218
0.120361
0.00238713
0.00711243
0.0382247
0.072695
0.113285
0.0823038
0.104381
0.0342208
0.140636
0.0767541
0.00153298
0.014226
0.00303148
0.106259
0.0201119
0.00178312
0.107969
0.084859
0.00271272
0.100842
0.105189
0.00404749
0.00857266
0.011361
0.0839543
0.00366149
0.0266808
0.0623117
0.00180999
0.00452681
0.108044
0.148259
0.00599979
0.0130683
0.0135076
0.0755213
0.018816
0.0144228
0.0246835
0.0797288
0.132707
0.0358018
0.00147087
0.0318219
0.101497
0.0965782
0.0481295
0.131304
0.00166995
0.0213055
0.119255
0.0103581
0.136252
0.146353
0.0153849
0.0113133
0.087992
0.00249618
0.106011
0.00177823
0.133456
0.00144512
0.00337018
0.00422336
0.154308
0.0290317
0.037127
0.0293874
0.0116779
0.00748901
0.00197602
0.0253416
0.14576
0.0272279
0.130679
0.00593818
0.00134128
0.16294
0.150283
0.0447372
0.010568
0.028603
0.156138
0.017919
0.0110473
0.139325
0.133946
0.047174
0.00162373
0.0673218
0.131935
0.00257617
0.0178676
0.0416143
0.00446554
0.110813
0.0329953
0.00257405
0.153543
0.0235439
0.0146081
0.00805717
0.0081214
0.00244737
0.0713519
0.0536976
0.0260898
0.121399
0.00446736
0.0103539
0.0143422
0.00582278
0.016818
0.0830452
0.00862434
0.00268691
0.0246766
0.00523524
0.132079
0.0545581
0.0727727
0.125025
0.00355285
0.0251342
0.153007
0.0390763
0.00390243
0.115128
0.104621
0.00195631
0.125416
0.0732537
0.151515
0.0583353
0.0099035
0.0711218
0.00507343
0.0130131
0.0109526
0.0571068
0.0134336
0.069393
0.0499639
0.0368262
0.0835766
0.058868
0.153792
0.137886
0.00170347
0.00538983
0.0353452
0.00545096
0.104434
0.069423
0.0390316
0.135458
0.133599
0.0177741
0.0233566
0.00152681
0.0131223
0.00706363
0.0737102
0.00830036
0.099194
0.00289263
0.147295
0.00399081
0.00778525
0.13975
0.0111637
0.00129799
0.0429633
0.122728
0.135899
0.0270073
0.00670139
0.138088
0.0483837
0.129284
0.160095
0.00315779
0.127204
0.0239458
0.12308
0.181935
0.00431388
0.0155144
0.0613035
0.00474206
0.0491978
0.00197721
0.0555142
0.140983
0.0489032
0.00136276
0.0725862
0.0084799
0.0441763
0.00267715
0.111981
0.103812
0.0578276
0.00378487
0.104049
0.139937
0.145693
0.00428825
0.00152309
0.0105289
0.106449
0.0562206
0.119517
0.00138545
0.139449
0.0036703
0.007617
0.1073
0.0091438
0.0479707
0.153196
0.0331984
0.114539
0.0228641
0.026153
0.0152624
0.0574963
0.0670403
0.112128
0.00178938
0.14253
0.172409
0.00247928
0.0490449
0.107656
0.023277
0.12839
0.138516
0.101804
0.0280001
0.0300487
0.152478
0.154202
0.0277249
0.0507333
0.010077
0.0159359
0.135095
0.156867
0.154396
0.0747099
0.0541242
0.00892517
0.00141706
0.00273394
0.120624
0.136237
0.0279
0.00317686
0.0856213
0.13355
0.00244816
0.00304495
0.124067
0.033531
0.0477926
0.0873616
0.00168896
0.113752
0.125212
0.0159455
0.00508674
0.0600875
0.029946
0.0530817
0.00424609
0.00376448
0.136306
0.0039912
0.0611156
0.104378
0.00597114
0.00819944
0.0268156
0.0551669
0.0259381
0.0632388
0.137925
0.0384219
0.0659275
0.0419943
0.0271189
0.135016
0.0220756
0.00340269
0.0107861
0.140384
0.0116515
0.00845035
0.0142808
0.13461
0.0560963
0.149844
0.00302826
0.0471747
0.108989
0.00919641
0.00497104
0.157375
0.00130312
0.0255191
0.0818468
0.0104125
0.100768
0.10103
0.131816
0.151983
0.100463
0.121039
0.00215901
0.153079
0.131942
0.0072124
0.0221904
0.0581214
0.00442701
0.0760751
0.104313
0.04327
0.0491181
0.146854
0.156448
0.00331849
0.0540153
0.0538686
0.112846
0.0681773
0.00294095
0.00911287
0.00276613
0.149688
0.0421857
0.0807684
0.0835067
0.134539
0.133882
0.00382235
0.00688018
0.0313392
0.111567
0.103726
0.0080663
0.0502263
0.0682077
0.076986
0.00142552
0.0193118
0.00102406
0.0854239
0.154006
0.0653678
0.104785
0.086436
0.0101502
0.115876
0.00716627
0.0016968
0.0257803
0.00126322
0.0991504
0.160254
0.0145458
0.132965
0.0111002
0.154543
0.133904
0.152753
0.00270554
0.152315
0.0468372
0.0869821
0.00741965
0.0359001
0.0379955
0.00758346
0.00227111
0.11759
0.150695
0.131583
0.00267861
0.077647
0.0734215
0.0550137
0.140951
0.00933336
0.126497
0.147507
0.0380457
0.0725472
0.0120799
0.00166817
0.00176849
0.0222366
0.170502
0.0173738
0.0359143
0.0135235
0.127407
0.00442767
0.00567912
0.0683225
0.0816938
0.155543
0.0138419
0.0700351
0.00310961
0.00640911
0.0231989
0.00338935
0.00619093
0.00496342
0.00237893
0.0962291
0.00273728
0.0415322
0.00144229
0.00330447
0.00274941
0.00220387
0.146111
0.0137951
0.13136
0.101676
0.00118055
0.076985
0.0745673
0.0163296
0.0438399
0.0144611
0.00309254
0.0027559
0.0053002
0.0225216
0.0259875
0.0488668
0.102544
0.0620393
0.0107444
0.00638011
0.00799489
0.0188588
0.15628
0.138372
0.0970137
0.00348127
0.0524254
0.0806148
0.0271997
0.0204424
0.0142966
0.0284919
0.0597122
0.00291868
0.0228799
0.0136011
0.0834017
0.0165183
0.0103575
0.12637
0.0294945
0.137818
0.00630439
0.0154711
0.11057
0.0139963
0.0017141
0.131791
0.0363553
0.141908
0.00507092
0.0670357
0.115848
0.154501
0.0117596
0.00395997
0.159619
0.0070104
0.00331703
0.140932
0.0523605
0.0131951
0.00135461
0.0215621
0.0013361
0.0676873
0.124503
0.0964061
0.00214652
0.0131098
0.135397
0.00172127
0.0797246
0.0502387
0.0268894
0.00300028
0.0496363
0.00955974
0.0227709
0.0355613
0.00339875
0.111757
0.108551
0.0719947
0.0129728
0.0870913
0.0498306
0.154883
0.131709
0.00261748
0.0443395
0.00141951
0.155091
0.00161524
0.00135639
0.0721945
0.0533885
0.0212348
0.0246897
0.00368194
0.0104397
0.00172112
0.0030782
0.0265129
0.110835
0.00273766
0.00138519
0.0688054
0.00341647
0.0749057
0.106647
0.0740527
0.0577572
0.146428
0.0132868
0.00130219
0.0450097
0.153667
0.0032102
0.00269142
0.0074046
0.00225492
0.065029
0.0020571
0.00773912
0.005553
0.147125
0.103365
0.00745264
0.00132285
0.0902039
0.00439935
0.00183772
0.0955443
0.0647362
0.125212
0.0175165
0.0676745
0.0104236
0.00263706
0.1415
0.0935667
0.1384
0.0430703
0.0049111
0.00200253
0.0340531
0.00258902
0.0115727
0.093498
0.155189
0.015567
0.152117
0.00324268
0.00300977
0.00811737
0.0107212
0.00155792
0.105274
0.0027866
0.0015084
0.00984287
0.00261044
0.155718
0.0504475
0.0375027
0.0266719
0.00246667
0.0107529
0.0514763
0.0227574
0.138053
0.00146405
0.108491
0.151458
0.00179319
0.00192383
0.0588468
0.0283992
0.0110804
0.111053
0.105891
0.0109644
0.110949
0.00284053
0.158213
0.00236483
0.115727
0.020212
0.00537073
0.111804
0.14744
0.0121355
0.0106011
0.101451
0.0498805
0.00851745
0.00365646
0.00215653
0.00718963
0.0290409
0.154472
0.139542
0.0171273
0.121594
0.0451646
0.136469
0.152209
0.00145677
0.0268596
0.00975198
0.0234682
0.0866242
0.129844
0.118441
0.0430526
0.036175
0.00639926
0.023966
0.00722423
0.000879581
0.0214343
0.00798893
0.00589463
0.00220726
0.00659362
0.154953
0.0205383
0.0169631
0.0276949
0.00716407
0.139253
0.0435245
0.00671636
0.001445
0.0274327
0.00586007
0.00755232
0.00556073
0.00527139
0.0328353
0.00485127
0.00453432
0.00427744
0.00406421
0.00474324
0.00694354
0.0906393
0.129258
0.0146181
0.00581194
0.111941
0.00727147
0.0021504
0.0106541
0.00180786
0.153839
0.132806
0.122067
0.00294699
0.0375729
0.0527402
0.00594254
0.00633218
0.0545377
0.0777258
0.0454683
0.0235618
0.00192049
0.155319
0.0233596
0.00457203
0.00149704
0.00606988
0.00198682
0.0086812
0.130867
0.00206499
0.125426
0.00209451
0.00147214
0.051024
0.0150806
0.0121124
0.0625067
0.130783
0.0253807
0.0411113
0.139644
0.130409
0.0080413
0.00308201
0.0123407
0.0603425
0.00345492
0.00781113
0.00179367
0.00157393
0.0656236
0.104395
0.041325
0.174371
0.001951
0.052974
0.00297958
0.00626679
0.00334083
0.108059
0.143029
0.142068
0.00144617
0.137408
0.0022859
0.122813
0.00214454
0.0377855
0.060144
0.083717
0.143359
0.0058872
0.113074
0.146433
0.0547648
0.0358791
0.00355169
0.00132506
0.0108429
0.00165944
0.177658
0.147336
0.0219757
0.012761
0.00197052
0.00587697
0.013041
0.00348823
0.00528467
0.00321366
0.170893
0.13298
0.139532
0.144036
0.00437471
0.0424289
0.12469
0.0250887
0.00415179
0.113665
0.105028
0.0305187
0.00139897
0.106128
0.0352048
0.151375
0.001551
0.120178
0.0720647
0.00461633
0.00575049
0.00349467
0.15126
0.0124041
0.0107052
0.00392961
0.00308706
0.113274
0.00446151
0.0719663
0.107291
0.0177883
0.0538277
0.0113644
0.077982
0.0137228
0.0148141
0.00769671
0.00142872
0.00234334
0.00232825
0.128528
0.0111918
0.107211
0.00434158
0.11105
0.0118079
0.0678383
0.0122198
0.153149
0.113167
0.1574
0.0241939
0.00149803
0.0042401
0.0641428
0.0271482
0.00506453
0.153931
0.10552
0.00244952
0.0189049
0.0112284
0.00348704
0.129742
0.0013024
0.153984
0.00282888
0.00170154
0.0526922
0.0235152
0.016296
0.00554106
0.00608893
0.00215186
0.0494791
0.0423467
0.00328871
0.0513676
0.00721461
0.0326774
0.00508171
0.0113719
0.00290393
0.0177113
0.0387472
0.0391297
0.00154913
0.0107213
0.00333179
0.00113833
0.106285
0.151922
0.00150278
0.00215653
0.0944302
0.0450187
0.0218598
0.0579426
0.00270653
0.0418062
0.00145239
0.0292616
0.00143519
0.0111154
0.0611545
0.0439773
0.00727773
0.00548407
0.157187
0.00585438
0.153039
0.023225
0.0636614
0.154763
0.0994177
0.0773905
0.00204257
0.00270859
0.148159
0.0024211
0.0441774
0.0980586
0.0915469
0.125681
0.0523877
0.00312081
0.00180712
0.139705
0.0260424
0.00741307
0.00875552
0.00399242
0.00607893
0.0278658
0.0161311
0.120064
0.155622
0.0461481
0.00195396
0.142302
0.0025335
0.00342297
0.0106553
0.00279202
0.00140846
0.132844
0.00141937
0.0117971
0.00841536
0.0711228
0.110931
0.0873974
0.00374836
0.0665379
0.0701941
0.120335
0.00242623
0.00428407
0.00788376
0.00383494
0.00388012
0.0023195
0.075467
0.0972333
0.00751007
0.040402
0.055396
0.0529104
0.0287546
0.112255
0.108311
0.04285
0.0271157
0.0379038
0.0343454
0.14857
0.0612476
0.00491419
0.0371083
0.00225725
0.0388082
0.0995422
0.00565934
0.00955903
0.126162
0.11279
0.0267755
0.0284246
0.00139753
0.0267952
0.0100355
0.0963695
0.105356
0.0253805
0.00202796
0.00724486
0.0360659
0.149131
0.00174838
0.0619833
0.10979
0.00665274
0.0196142
0.00787491
0.00148775
0.00645919
0.0262524
0.0250285
0.00140586
0.0920963
0.0608356
0.0137292
0.153401
0.00772962
0.00948548
0.00529214
0.0320551
0.0635496
0.0188008
0.00356843
0.00717902
0.0648654
0.00546275
0.00535796
0.0103153
0.0579995
0.0604472
0.00846503
0.0110097
0.0027999
0.112396
0.0628734
0.00929195
0.0555643
0.0090679
0.00734398
0.0671793
0.00887557
0.153498
0.00995202
0.0558181
0.0707657
0.098926
0.116609
0.00205289
0.0035499
0.046829
0.0248907
0.00502104
0.0588604
0.101718
0.0145971
0.00217934
0.00751801
0.00152561
0.0152036
0.0140098
0.00326381
0.00471359
0.0143334
0.0972165
0.00567344
0.0952226
0.0675719
0.00523289
0.00440306
0.0465433
0.0272159
0.0202724
0.0292955
0.0278827
0.00417384
0.114703
0.00153045
0.0229778
0.135833
0.13473
0.135508
0.0461407
0.0447514
0.128437
0.0239566
0.0669435
0.0488477
0.152739
0.00643712
0.0432034
0.0106609
0.0271247
0.15576
0.133196
0.00960282
0.0948064
0.00308188
0.0689094
0.0708598
0.0137223
0.0110341
0.0618974
0.0639632
0.0114765
0.0265475
0.0126269
0.0108049
0.105059
0.00211887
0.0254554
0.0434939
0.0182455
0.00192071
0.133712
0.0114768
0.146001
0.02429
0.108006
0.0333923
0.0917264
0.0690536
0.0898326
0.010834
0.00126924
0.0124958
0.0713552
0.0281519
0.00142382
0.0327505
0.00381077
0.00580641
0.0760629
0.0137752
0.0733118
0.00368866
0.0276972
0.0281581
0.00136873
0.136692
0.0432593
0.0582253
0.0136412
0.0425608
0.00701149
0.00180423
0.0764881
0.0887656
0.0636426
0.00184897
0.049738
0.0389947
0.00998997
0.00158116
0.116196
0.0226517
0.00829939
0.0142699
0.14668
0.0128848
0.140627
0.0354573
0.111867
0.0503489
0.00493142
0.00697099
0.113288
0.0453273
0.00480645
0.0715503
0.0559503
0.0195894
0.0554423
0.0777565
0.0247646
0.0525658
0.0532933
0.112658
0.00770283
0.00491027
0.00392588
0.115243
0.00792338
0.00139911
0.00102477
0.153503
0.0738881
0.0198281
0.00631219
0.053092
0.113394
0.0909476
0.135056
0.0540868
0.0187651
0.144726
0.00752916
0.03734
0.126055
0.047156
0.00776102
0.0132093
0.00479549
0.0447174
0.0296143
0.00137562
0.043191
0.0222767
0.00132579
0.00143834
0.00521907
0.00841724
0.00371258
0.105316
0.141592
0.04729
0.00335876
0.10181
0.119501
0.00274818
0.135875
0.152616
0.0079117
0.0446164
0.00120863
0.0164501
0.0152787
0.0362491
0.013651
0.0442809
0.0258034
0.0373075
0.12807
0.0233855
0.00143251
0.0798214
0.0973586
0.022366
0.00142788
0.045775
0.0459311
0.00188978
0.136523
0.0353869
0.00788179
0.133933
0.0018986
0.0237229
0.0516387
0.0150878
0.00688466
0.00329108
0.0266134
0.0115609
0.0138506
0.0095602
0.00826322
0.0743535
0.0142473
0.00610761
0.0424662
0.0100163
0.0511875
0.028479
0.00167519
0.136944
0.0104079
0.00988351
0.0828469
0.0147694
0.0222689
0.0383047
0.0248155
0.00561426
0.0375749
0.0145054
0.0464042
0.00791254
0.105787
0.0014222
0.0122341
0.121706
0.0470184
0.117336
0.136817
0.13369
0.0785018
0.0731913
0.0227962
0.0242269
0.0595001
0.148306
0.149232
0.147212
0.00772912
0.137648
0.0622587
0.0399606
0.0400739
0.0185447
0.102427
0.0289965
0.0256847
0.0364208
0.0496617
0.0608261
0.00486524
0.0814583
0.0116362
0.0220556
0.00556222
0.0182648
0.0817957
0.00803203
0.0136833
0.00140196
0.00173705
0.0234
0.0505548
0.0259785
0.015233
0.00977881
0.152905
0.12183
0.012187
0.153255
0.0404679
0.0548491
0.0406117
0.0476121
0.0108728
0.038782
0.0509963
0.114807
0.158506
0.00457792
0.0360079
0.0888257
0.00593572
0.00770522
0.105734
0.0187901
0.103414
0.0609862
0.0771038
0.0448215
0.0750339
0.103886
0.0863695
0.0732854
0.00383319
0.128481
0.105654
0.0817538
0.0436814
0.0037856
0.00178214
0.0422135
0.0377297
0.00138654
0.0778995
0.100941
0.0878691
0.0153316
0.139049
0.0634354
0.0669312
0.00955355
0.0810952
0.0210532
0.0633119
0.0362529
0.00148992
0.10154
0.0415142
0.010066
0.0196996
0.018458
0.118484
0.0552767
0.0222336
0.0283868
0.027432
0.0376974
0.0123828
0.00781919
0.139186
0.00892701
0.0533781
0.13135
0.0459511
0.00218225
0.104615
0.135703
0.0285555
0.0674458
0.0420639
0.102092
0.0482853
0.0271633
0.0558737
0.039161
0.0176056
0.0369888
0.15265
0.0031501
0.00323966
0.0736742
0.0997591
0.00623748
0.140742
0.0515245
0.0691415
0.00740221
0.16785
0.145615
0.0206852
0.04107
0.00271277
0.063167
0.149116
0.0267865
0.136169
0.00175793
0.0662961
0.0418684
0.046191
0.0136959
0.00935791
0.0257256
0.0528341
0.00967195
0.0746659
0.13879
0.0300825
0.0468403
0.0256201
0.0982179
0.0630909
0.0440861
0.0817598
0.0128425
0.00813508
0.00212833
0.0786029
0.0439164
0.126907
0.00298417
0.0019779
0.0678054
0.0778319
0.026172
0.0231106
0.00677136
0.066984
0.0233863
0.0217888
0.0141688
0.146493
0.00820426
0.0112016
0.048455
0.0480957
0.0591264
0.0133628
0.051995
0.151342
0.0231565
0.0126962
0.153682
0.0467119
0.00987457
0.152101
0.073363
0.0561971
0.0206193
0.00700125
0.0177998
0.0365444