/*--------------------------------*- C++ -*----------------------------------*\
| =========                 |                                                 |
| \\      /  F ield         | OpenFOAM: The Open Source CFD Toolbox           |
|  \\    /   O peration     | Version:  v2012                                 |
|   \\  /    A nd           | Website:  www.openfoam.com                      |
|    \\/     M anipulation  |                                                 |
\*---------------------------------------------------------------------------*/
FoamFile
{
    version     2.0;
    format      ascii;
    class       volVectorField;
    location    "450";
    object      cellDisplacement;
}
// * * * * * * * * * * * * * * * * * * * * * * * * * * * * * * * * * * * * * //

dimensions      [0 1 0 0 0 0 0];


internalField   nonuniform List<vector> 
13851
(
(-0.0187718 -0.0205757 0)
(-0.0155696 0.0242855 0)
(-0.0155151 0.0228639 0)
(-0.0162623 0.122281 0)
(-0.000437631 0.0040329 0)
(-0.0156376 0.042662 0)
(-0.0158948 -0.0575037 0)
(-0.00113905 0.00371134 0)
(-0.0194119 -0.0476554 0)
(-0.00101489 0.0955263 0)
(-0.0164279 0.0778039 0)
(-0.00349986 0.0537435 0)
(-0.00269225 0.113905 0)
(-0.0191726 -0.0347508 0)
(-0.0178745 -0.0192243 0)
(-0.0197478 -0.0855977 0)
(-0.0169566 0.0848663 0)
(-0.0121245 0.0357103 0)
(-0.0181128 0.0197669 0)
(-0.0187394 -0.0191967 0)
(-0.0178394 -0.00486083 0)
(-0.0126702 0.104546 0)
(-0.0159238 0.136403 0)
(-0.000174635 0.00184276 0)
(-0.0174383 0.0572631 0)
(-0.0190729 -0.0784713 0)
(-0.019505 -0.0562025 0)
(-0.0184523 0.00305164 0)
(-0.0199481 -0.0767126 0)
(-0.00891986 0.0340032 0)
(-0.0167027 0.0983481 0)
(-0.0158825 -0.0552298 0)
(-0.0188856 -0.0277715 0)
(-0.0189286 -0.0216509 0)
(-0.0161343 0.0731916 0)
(-0.0200472 -0.0821194 0)
(-0.000152584 0.0016184 0)
(-0.0167746 0.0917901 0)
(-0.0175243 0.0541476 0)
(-0.00835295 0.0978343 0)
(-0.0185399 -0.000602366 0)
(-0.0199448 -0.0766064 0)
(-0.0166869 0.099442 0)
(-0.0155079 0.136395 0)
(-0.0198332 -0.0705872 0)
(-0.00858981 0.0692489 0)
(-0.00218136 -0.00498478 0)
(-0.0195623 -0.0708526 0)
(-0.0129718 0.081777 0)
(-0.00244812 0.113963 0)
(-0.0178408 0.0371685 0)
(-0.00089679 0.118541 0)
(-0.0197195 -0.084189 0)
(-0.0175373 -0.0626075 0)
(-0.0194379 -0.0490274 0)
(-0.00824396 0.0990168 0)
(-0.0188726 -0.026426 0)
(-0.0185251 0.000207637 0)
(-0.0197469 -0.0701828 0)
(-0.0187339 -0.0109812 0)
(-0.00335081 0.0519586 0)
(-0.0194887 -0.0557723 0)
(5.43375e-05 0.0773782 0)
(-0.0130085 0.0832194 0)
(-0.0141521 0.143648 0)
(-0.0141768 0.14427 0)
(-0.0187223 -0.0103342 0)
(-0.00495183 0.145913 0)
(-0.0102722 0.0857489 0)
(-0.0163896 0.115322 0)
(-0.0168391 0.0911187 0)
(-0.0180046 -0.00288678 0)
(-0.00530197 0.103417 0)
(-0.0187566 -0.012238 0)
(-0.017773 -0.0514075 0)
(-0.0112512 0.106186 0)
(-0.0169511 0.0851618 0)
(-0.00810779 0.0123067 0)
(-0.0174562 0.0561398 0)
(-0.00615017 0.0753776 0)
(-0.0104507 0.0853202 0)
(-0.0170759 0.0730722 0)
(-0.0160384 0.0748808 0)
(-0.0191181 -0.0318137 0)
(-0.0187706 -0.0129876 0)
(-0.0167516 0.095762 0)
(-0.0128622 0.103766 0)
(-0.0199323 -0.0757559 0)
(-0.00217946 0.0966143 0)
(-0.0166808 0.0995178 0)
(-0.000662534 0.119215 0)
(-0.0160138 -0.053917 0)
(-0.0176479 0.0475772 0)
(-0.0167323 0.0968495 0)
(-0.0177856 0.0401118 0)
(-0.0153488 0.135875 0)
(-0.00782653 0.0791501 0)
(-0.0196659 -0.0774707 0)
(-0.0181825 0.0187243 0)
(-0.0163054 0.101437 0)
(-0.0196671 -0.0759639 0)
(-0.0059574 0.143232 0)
(-0.00750064 0.143326 0)
(-0.0050231 0.108464 0)
(-0.00923293 0.0638559 0)
(-0.0176598 0.0138678 0)
(-0.00906307 0.0642393 0)
(-0.0168238 0.091916 0)
(-0.016002 -0.0516624 0)
(-0.0119776 0.0355293 0)
(-0.0126447 0.118396 0)
(-0.00877868 0.0690333 0)
(-0.0175942 0.0435383 0)
(-0.0171371 0.0491153 0)
(-0.0191114 -0.0409992 0)
(-0.0174532 -0.0612288 0)
(-0.00648559 0.0299407 0)
(-0.00139397 0.00427022 0)
(-0.0162493 0.123029 0)
(-0.0163802 0.115717 0)
(-0.015389 0.130665 0)
(-0.0109576 0.0342028 0)
(-0.00968593 0.0911492 0)
(-0.0188412 -0.0167825 0)
(-0.0183493 0.00645433 0)
(-0.00734593 0.146851 0)
(-0.00786786 0.0776897 0)
(-0.0155618 0.100491 0)
(-0.0188 -0.0146141 0)
(-0.0181665 -0.0174452 0)
(-0.0125187 0.106553 0)
(-0.015643 0.0663675 0)
(-0.0167661 0.0917513 0)
(-0.0189521 -0.0229093 0)
(-0.0165091 0.0762157 0)
(-0.0177005 0.044686 0)
(-0.00456228 0.145688 0)
(-0.0167718 0.0947016 0)
(-0.00490225 0.141525 0)
(-0.0182306 -0.0244288 0)
(-0.0170433 0.0742088 0)
(-0.00568544 0.121397 0)
(-0.0020991 0.0980085 0)
(-0.0114135 0.145503 0)
(-0.0177078 0.0430218 0)
(-0.0102478 0.111932 0)
(-0.00789579 0.0109047 0)
(-0.0167103 0.0980226 0)
(-0.0196858 -0.0623613 0)
(-0.0156342 0.100464 0)
(-0.0196413 -0.0742732 0)
(-0.0175595 0.0447962 0)
(-0.0171754 0.0489635 0)
(-0.0181562 0.0165595 0)
(-0.00260426 0.120037 0)
(-0.00066837 0.108721 0)
(-0.0031061 0.0439682 0)
(-0.0175095 0.0549725 0)
(-0.018123 -0.0226626 0)
(-0.0158408 -0.0297214 0)
(-0.000393243 0.00420473 0)
(-0.0199905 -0.0790273 0)
(-0.0176619 0.0122478 0)
(-0.0195345 -0.0691087 0)
(-0.0191919 -0.0357697 0)
(-0.0195062 -0.0527951 0)
(-0.0194895 -0.0519098 0)
(-0.017825 0.0380198 0)
(-0.0126004 0.117254 0)
(-0.0182548 0.0143825 0)
(-0.00308199 0.049863 0)
(-0.00632233 0.0285166 0)
(-0.0176627 0.0219281 0)
(-0.000372908 0.00365693 0)
(-0.0177972 0.0394738 0)
(-0.0191799 -0.0378698 0)
(-0.019514 -0.0631306 0)
(-0.00644507 0.0274363 0)
(-0.0177544 -0.0557087 0)
(-0.0195197 -0.0644176 0)
(-0.0183646 0.00534383 0)
(-0.0154904 0.135469 0)
(-0.0127172 0.11439 0)
(-0.0181613 -0.0192706 0)
(-0.0169271 0.0864758 0)
(-0.0197047 -0.0633939 0)
(-0.018929 -0.0299118 0)
(-0.00414204 0.138704 0)
(-0.00304097 0.117389 0)
(-0.00902239 0.0492725 0)
(-0.0177055 0.0429331 0)
(-0.0180813 -0.0202005 0)
(-0.0191665 -0.0344319 0)
(-0.0157569 0.0396864 0)
(-0.0102849 0.110468 0)
(-0.0196959 -0.0809018 0)
(-0.018936 -0.0310383 0)
(-0.0137715 0.00461472 0)
(-0.012809 0.0480273 0)
(-0.00652711 0.145694 0)
(-0.0169741 0.0775058 0)
(-0.0180563 0.0255108 0)
(-0.0184434 0.00461621 0)
(-0.0178799 -0.0216068 0)
(-0.0154798 0.144619 0)
(-0.0180624 0.0251917 0)
(-0.00091304 0.132036 0)
(-0.0183818 -0.0389038 0)
(-0.0193535 -0.0445069 0)
(-0.0151603 0.0539623 0)
(-0.01977 -0.0887313 0)
(-0.00956707 0.090756 0)
(-0.017008 0.0762946 0)
(-0.00109688 0.018433 0)
(-0.0162941 0.0689672 0)
(-0.0116984 0.10717 0)
(-0.00239334 0.112697 0)
(-0.0187317 -0.0148578 0)
(-0.0134576 0.0270276 0)
(-0.0116711 0.14845 0)
(-0.00629305 0.0259436 0)
(-0.0186743 -0.0154416 0)
(-0.0191023 -0.0309606 0)
(-0.0177429 0.0423996 0)
(-0.00522894 0.13771 0)
(-0.0184303 -0.0406179 0)
(-0.000583313 0.00954588 0)
(-0.0109974 0.14538 0)
(-0.00458133 0.0710107 0)
(-0.0162105 0.0701755 0)
(-0.0162192 0.12389 0)
(-0.00440931 0.138227 0)
(-0.0152062 0.0513972 0)
(0.000689588 0.0721481 0)
(-0.018461 0.0036736 0)
(-0.00906853 0.0325861 0)
(-0.015896 0.136146 0)
(-0.0184019 0.00686019 0)
(-0.0162761 0.100948 0)
(-0.000368042 0.00396819 0)
(-0.0162051 0.116918 0)
(-0.0188101 -0.0150989 0)
(-0.0198514 -0.0716418 0)
(-0.0197398 -0.0874367 0)
(-0.0171622 0.0120464 0)
(-0.0116738 0.146086 0)
(-0.0187234 -0.0148638 0)
(-0.0177833 -0.0580688 0)
(-0.0153283 0.134981 0)
(-0.0133565 0.114069 0)
(-0.0196853 -0.0622656 0)
(-0.0182705 0.00687444 0)
(-0.00116824 0.0057639 0)
(-0.0163958 0.00872484 0)
(-0.0196985 -0.0792766 0)
(-0.0200083 -0.0799503 0)
(-0.0202207 -0.0911629 0)
(-0.00887213 0.0483296 0)
(-0.00690843 0.147056 0)
(-0.00250062 0.0953455 0)
(-0.0189978 -0.0305737 0)
(-0.0182826 0.00981485 0)
(-0.0164805 0.00817126 0)
(-0.0177415 0.00922413 0)
(-0.018253 0.00827386 0)
(-0.00594668 0.0947495 0)
(-0.00643417 0.14341 0)
(-0.019432 -0.0662586 0)
(-0.0185824 -0.00417673 0)
(-0.00225319 0.0725819 0)
(-0.00216046 0.112556 0)
(-0.00496692 0.138206 0)
(-0.0192957 -0.0414628 0)
(-0.0163001 0.12034 0)
(-0.0180058 -0.00830844 0)
(-0.0111519 0.0344892 0)
(-0.0184069 0.00326511 0)
(-0.01822 0.0131575 0)
(-0.0190072 -0.0368468 0)
(-0.0177511 0.00737491 0)
(-0.0192804 -0.0406146 0)
(-0.0183552 0.00941018 0)
(-0.0163506 0.0208217 0)
(-0.0177067 -0.0202712 0)
(-0.0166235 0.0996982 0)
(-0.00954791 0.0591355 0)
(-0.00308314 0.0416385 0)
(-0.0189945 -0.0353155 0)
(-0.0160787 0.0858748 0)
(-0.00943473 0.0311964 0)
(-0.00112635 0.0178116 0)
(-0.00459733 0.0727693 0)
(-0.000627863 0.00500965 0)
(-0.0173717 -9.05407e-05 0)
(-0.00319907 0.0438849 0)
(-0.0193926 -0.0466219 0)
(-0.0178965 -0.0053854 0)
(-0.00869833 0.0873711 0)
(-0.020033 -0.0812997 0)
(-0.0188535 -0.0174393 0)
(-0.00200609 0.118202 0)
(-0.0187106 -0.0170459 0)
(-0.018012 0.0279326 0)
(-0.00582287 0.12216 0)
(-0.00176769 0.118992 0)
(-0.0179107 -0.00364055 0)
(-0.0190319 -0.0271385 0)
(-0.0170491 0.0793509 0)
(-0.0179044 0.0132064 0)
(-0.000562503 0.0051153 0)
(-0.0182775 0.01312 0)
(-0.0032307 0.051809 0)
(-0.0179043 0.0155417 0)
(-0.0179974 0.0287347 0)
(-0.0186387 -0.00726116 0)
(-0.0157302 -0.0289459 0)
(-0.0165964 0.100658 0)
(-0.0167168 0.093307 0)
(-0.0169135 0.0870715 0)
(-0.0174846 0.0483877 0)
(-0.00435506 0.144113 0)
(-0.0176975 0.0448238 0)
(-0.0188242 -0.0158817 0)
(-0.0184246 0.00447844 0)
(-0.0129445 0.0483755 0)
(-0.0167458 0.0962208 0)
(-0.0199132 -0.0746755 0)
(-0.0118842 0.147937 0)
(-0.0120711 0.147779 0)
(-0.0011892 0.132326 0)
(-0.0177634 0.0196349 0)
(-0.00920181 0.133003 0)
(-0.0199516 -0.0767586 0)
(-0.00682695 0.144071 0)
(-0.00182793 0.011146 0)
(-0.00247364 -0.0050728 0)
(-0.0142607 0.0869532 0)
(-0.0169015 0.0877457 0)
(-0.0117273 0.148411 0)
(-0.00953218 0.0574065 0)
(-0.0177607 0.0414532 0)
(-0.00870649 0.13441 0)
(-0.0156185 0.0684557 0)
(-0.0158991 -0.0319194 0)
(-0.0190451 -0.0278557 0)
(-0.0184268 0.00195357 0)
(-0.0197259 -0.0824774 0)
(-0.0114817 0.107511 0)
(-0.0150953 0.0512206 0)
(-0.0202382 -0.0925901 0)
(-0.00330951 0.117721 0)
(-0.0181913 0.0149162 0)
(-0.0163403 0.0188612 0)
(-0.0178723 -0.00121804 0)
(-0.00862639 0.135181 0)
(-0.00241545 0.0967455 0)
(-0.00879216 0.0859793 0)
(-0.0169957 0.0717053 0)
(-0.0163706 0.100008 0)
(-0.0183397 0.00314143 0)
(-0.0167288 0.0933052 0)
(-0.0202184 -0.0915584 0)
(-0.0104045 0.112081 0)
(-0.0184215 0.00581045 0)
(-0.0189616 -0.0272627 0)
(-0.0104087 0.0111717 0)
(-0.0186621 -0.00841144 0)
(-0.0185563 -0.0142557 0)
(-0.0181651 0.0196585 0)
(-0.0141799 0.0861793 0)
(-0.0191322 -0.0884027 0)
(-0.0197324 -0.0700077 0)
(-0.0170578 0.0769925 0)
(-0.0169018 0.0750242 0)
(-0.0198787 -0.0728642 0)
(-0.0131477 0.0624688 0)
(-0.0191635 -0.0367102 0)
(-0.0166697 0.100319 0)
(-0.0166999 0.0257027 0)
(-0.0196876 -0.0624022 0)
(-0.01681 0.0285715 0)
(-0.018357 0.00927212 0)
(-0.0176408 -0.019129 0)
(-0.0181076 -0.0791853 0)
(-0.018176 0.0119102 0)
(-0.0165826 0.0941777 0)
(-0.000927697 0.108813 0)
(-0.0160724 0.0282111 0)
(-0.0161095 0.0866474 0)
(-0.0178092 -0.0538324 0)
(-0.00844999 0.0756805 0)
(-0.0180598 -0.0101404 0)
(-0.0189275 -0.021805 0)
(-0.00539479 0.102438 0)
(-0.0183557 -0.0357031 0)
(-0.0161809 0.126753 0)
(-0.0147437 0.0510244 0)
(-0.0159254 0.130548 0)
(-0.0184761 -0.0643905 0)
(-0.0170664 0.0783483 0)
(-0.0152298 0.0549014 0)
(-0.0190101 -0.0780469 0)
(-0.0153573 0.144666 0)
(-0.0183119 0.00849512 0)
(-0.0175359 0.0187315 0)
(-0.0202061 -0.0903717 0)
(-0.0187949 -0.0142983 0)
(-0.016163 0.117669 0)
(-0.00582334 0.0957257 0)
(-0.017012 0.0703645 0)
(-0.0166676 0.0361153 0)
(-0.0191124 -0.0861199 0)
(-0.0107234 0.0405961 0)
(-0.0167899 0.0938851 0)
(-0.0187666 -0.0130739 0)
(-0.0172265 0.0683163 0)
(-0.0151265 0.0486808 0)
(-0.0182098 0.0105765 0)
(-0.0193867 -0.0499037 0)
(-0.0162869 0.121039 0)
(-0.00869651 -0.00511754 0)
(-0.0167493 0.0960495 0)
(-0.0166883 0.0903636 0)
(-0.0158965 0.139086 0)
(-0.0135208 0.113695 0)
(-0.0181259 0.0206225 0)
(-0.00281018 0.106197 0)
(-0.000329973 0.00319707 0)
(-0.0194543 -0.0499074 0)
(-0.0193352 -0.0469068 0)
(-0.00109995 0.0973135 0)
(-0.0155227 0.0265204 0)
(-0.0183802 -0.0346392 0)
(-0.00627462 0.0344328 0)
(-0.0187643 -0.013019 0)
(-0.0178169 0.0176463 0)
(-0.0185199 -0.0129876 0)
(-0.0166932 -0.0198897 0)
(-0.0132258 0.0601847 0)
(0.00026826 0.119067 0)
(-0.017028 0.0783462 0)
(-0.00846824 0.0879123 0)
(0.000447478 0.118306 0)
(-0.0199717 -0.0796316 0)
(-0.0189116 -0.0209848 0)
(-0.0123211 0.107042 0)
(-0.0196854 -0.0681446 0)
(0.000213833 0.0760905 0)
(-0.00316159 0.0414733 0)
(-0.0148667 0.0509473 0)
(-0.0183201 0.00460978 0)
(-0.0184207 -0.0704042 0)
(-0.00853348 0.0781184 0)
(-0.0142213 0.0423795 0)
(-0.015375 0.129693 0)
(-0.0152557 0.0146657 0)
(-0.0169415 0.0849137 0)
(-0.00344381 0.0501647 0)
(-0.0171069 -0.0419835 0)
(-0.0198086 -0.0692669 0)
(-0.0105715 0.135596 0)
(-0.00256865 -0.00124972 0)
(-0.00272778 0.0493813 0)
(-0.0166225 -0.0176204 0)
(-0.0141436 0.000453715 0)
(-0.0160258 0.123438 0)
(-0.0200056 -0.0810722 0)
(-0.0172412 0.0100975 0)
(-0.0151091 0.148287 0)
(-0.0150073 0.0484764 0)
(-0.003628 0.0674865 0)
(-0.0189914 -0.0249809 0)
(-0.019701 -0.0683233 0)
(-0.00750136 0.140044 0)
(-0.00609905 0.103566 0)
(-0.0188462 -0.0170601 0)
(-0.00538745 0.141071 0)
(-0.0157562 0.139193 0)
(-0.00482132 0.108723 0)
(-0.0158335 0.0612804 0)
(-0.0169451 0.0738792 0)
(-0.0179488 -0.0441078 0)
(-0.0188238 -0.0158712 0)
(-0.0194117 -0.0510728 0)
(-0.0172028 0.0693413 0)
(-0.00803718 0.123924 0)
(-0.0175228 0.0469372 0)
(-0.00631214 0.0943779 0)
(-0.0199668 -0.0777025 0)
(-0.0184431 -0.0624621 0)
(-0.0189652 -0.0326838 0)
(-0.0166807 0.0340515 0)
(-0.0114461 0.106099 0)
(-0.0106486 0.134851 0)
(-0.0177243 0.019739 0)
(-0.000488047 0.00456597 0)
(-0.0164306 0.113257 0)
(-0.0189753 -0.0240929 0)
(-0.0169197 0.085991 0)
(-0.0159795 0.13748 0)
(-0.0199808 -0.0797967 0)
(-0.0172834 0.0672653 0)
(-0.0182513 0.0117204 0)
(-0.00581651 0.136587 0)
(-0.000941642 0.0350568 0)
(-0.0159533 0.130996 0)
(-0.000794078 0.095162 0)
(-0.00832664 0.0748665 0)
(-0.00671357 0.137453 0)
(-0.017838 0.0372738 0)
(-0.0156661 0.0123069 0)
(-0.0048294 0.122705 0)
(-0.0147959 0.128655 0)
(-0.0171251 0.038927 0)
(0.000667234 0.0984391 0)
(-0.0175329 0.0530417 0)
(-0.00748172 0.0796439 0)
(-0.0188647 -0.0181323 0)
(-0.0160315 0.122381 0)
(-0.00632871 0.0759755 0)
(-0.0156411 -0.00576129 0)
(-0.0168348 0.0838598 0)
(-0.0186076 -0.00544673 0)
(-0.00930322 0.0330521 0)
(-0.0168839 0.0867308 0)
(-0.0160029 0.130192 0)
(-0.011348 -0.0141676 0)
(-0.0171879 0.0722987 0)
(-0.0181378 0.0182131 0)
(-0.0186076 -0.0117026 0)
(-0.00779228 0.12415 0)
(-0.0199423 -0.0780813 0)
(-0.0185109 0.000999221 0)
(-0.0115168 -0.0137162 0)
(-0.0176791 0.0421647 0)
(-0.00995775 0.0884122 0)
(-0.00764222 0.080058 0)
(-0.0201766 -0.0924988 0)
(-0.0183357 0.0104181 0)
(-0.0169313 0.0357986 0)
(-0.0183681 -0.0716675 0)
(-0.000392608 0.0960919 0)
(-0.0188431 -0.0650017 0)
(-0.0188215 -0.0157927 0)
(-0.0175923 0.0505036 0)
(-0.0122559 -0.00441695 0)
(-0.0170814 0.0781527 0)
(-0.00840382 0.0775166 0)
(-0.0101483 0.0877964 0)
(-0.0176018 0.0168585 0)
(-0.0170458 -0.0535154 0)
(-0.00876699 -0.00696956 0)
(-0.0110653 0.10744 0)
(-0.0172288 0.07009 0)
(-0.0165764 0.0935959 0)
(-0.0172065 0.0713164 0)
(-0.0155289 0.0133187 0)
(-0.00271473 0.0954562 0)
(-0.0193389 -0.043805 0)
(-0.00130355 0.0443901 0)
(-0.0170947 0.0666888 0)
(-0.0170862 -0.0288021 0)
(-0.0177809 -0.0468509 0)
(-0.0170503 0.0174977 0)
(-0.019867 -0.0726823 0)
(-0.018339 0.0102886 0)
(-0.0158571 0.0342784 0)
(-0.0166695 0.100334 0)
(-0.0155681 -0.0245392 0)
(-0.0175378 0.0312066 0)
(-0.0199224 -0.0754165 0)
(-0.0194377 -0.0490148 0)
(-0.00917484 0.0947694 0)
(-0.00616688 0.0952494 0)
(-0.0080317 0.143116 0)
(-0.017245 0.0692413 0)
(-0.0198663 -0.0810923 0)
(-0.0188156 -0.0662688 0)
(-0.0158133 0.138205 0)
(-0.0170819 -0.0554775 0)
(-0.0176159 -0.0213104 0)
(-0.0162206 0.123426 0)
(-0.0174744 0.0562121 0)
(-0.0151323 0.131315 0)
(-0.0188851 -0.0192244 0)
(-0.0192509 -0.0452316 0)
(-0.0201284 -0.0866914 0)
(-0.012738 0.0642357 0)
(-0.0197741 -0.071564 0)
(-0.0181178 0.0208443 0)
(-0.00316094 0.0640475 0)
(-0.0176299 0.0484628 0)
(-0.0178605 0.0357726 0)
(-0.0127686 0.11558 0)
(-0.0182275 -0.0223026 0)
(-0.00756229 0.100302 0)
(-0.0149496 0.14823 0)
(-0.015648 0.107266 0)
(-0.0161365 0.125994 0)
(-0.0084031 0.0892966 0)
(-0.000428903 0.00430372 0)
(-0.00316675 0.136466 0)
(-0.0170551 0.0408634 0)
(-0.00339192 0.0482434 0)
(-0.0178243 0.0380237 0)
(-0.000519604 0.00518082 0)
(-0.0192238 -0.0441155 0)
(-0.00735706 0.125626 0)
(-0.0191581 -0.0850158 0)
(-0.00510789 0.107426 0)
(0.000664843 0.0999597 0)
(-0.0148012 0.109757 0)
(-0.0170995 0.0771792 0)
(-0.017437 0.0235694 0)
(-0.01772 0.0436424 0)
(-0.0157879 0.0636472 0)
(-0.00659345 0.0374271 0)
(-0.0112046 0.0164544 0)
(-0.0176363 0.0241736 0)
(-0.0140947 0.0447336 0)
(-0.017455 0.0447219 0)
(-0.0158411 0.0156502 0)
(-0.0071049 0.139968 0)
(-0.0197943 -0.0732257 0)
(-0.00114139 0.0451686 0)
(-0.0203224 -0.09671 0)
(-0.000794068 0.012949 0)
(-0.0194696 -0.0896055 0)
(-0.0166489 0.101457 0)
(-0.0196329 -0.0596933 0)
(-0.000770211 0.139215 0)
(-0.0161028 0.126851 0)
(-0.0146624 0.12965 0)
(-0.0161866 0.109595 0)
(-0.0178815 0.0346716 0)
(-0.0127037 -0.00221352 0)
(-0.0175198 0.0538465 0)
(-0.00911158 0.133857 0)
(-0.0167689 0.0258194 0)
(-0.0159957 0.136531 0)
(-0.0176703 0.0444332 0)
(-0.0105542 0.0125068 0)
(-0.0174143 0.0458451 0)
(-0.0137054 0.00255436 0)
(-0.020133 -0.0868253 0)
(-0.017667 0.0464839 0)
(-0.0108218 0.0844742 0)
(-0.00580025 0.145921 0)
(-0.0186394 -0.00627149 0)
(-0.00052975 0.0127638 0)
(-0.000720789 0.0172151 0)
(-0.0191037 -0.0802405 0)
(-0.0203053 -0.0957737 0)
(-0.0199031 -0.0763985 0)
(-0.00154111 0.118808 0)
(-0.0181055 0.0156425 0)
(-0.0151253 0.0151944 0)
(0.000458336 0.10229 0)
(-0.0198463 -0.0761457 0)
(-0.018141 0.0141583 0)
(-0.0163951 0.097393 0)
(-0.00789848 -0.00514915 0)
(-0.0194068 -0.0645137 0)
(-0.0111886 0.139331 0)
(-0.018896 -0.0789127 0)
(-0.00129366 0.126605 0)
(-0.0100831 0.110415 0)
(-0.0155506 0.108245 0)
(-0.00337291 0.135963 0)
(-0.0194984 -0.0686007 0)
(-0.0180202 -0.00521027 0)
(-0.017944 -0.000440468 0)
(-0.0149915 0.131532 0)
(-0.015683 0.139483 0)
(-0.0180805 0.0213313 0)
(-0.0193298 -0.0436818 0)
(-0.0169024 0.085528 0)
(-0.0196133 -0.0734924 0)
(-0.0191541 -0.0337531 0)
(-0.0131433 0.125503 0)
(-0.0201668 -0.0914661 0)
(-0.0186462 -0.0134279 0)
(-0.0115797 0.0421273 0)
(-0.0175501 -0.020564 0)
(-0.0180675 0.0216017 0)
(-0.0136222 0.0952467 0)
(-0.00608155 0.0736279 0)
(-0.0060922 0.0705533 0)
(-0.0194696 -0.0861687 0)
(-0.0198945 -0.0737396 0)
(-0.0171725 -0.0405232 0)
(-0.0183827 0.0079086 0)
(-0.00667432 0.0391519 0)
(-0.019886 -0.0751651 0)
(-0.0145293 0.138056 0)
(-0.0179754 0.0299357 0)
(-0.0173555 0.0485555 0)
(-0.0153472 0.0535971 0)
(-0.0156116 0.019686 0)
(-0.0179608 0.03073 0)
(-0.0164409 0.0956146 0)
(-0.0130771 0.124634 0)
(-0.0193619 -0.0482176 0)
(-0.0131277 0.0585801 0)
(-0.0160111 0.127915 0)
(-0.0194956 -0.0878058 0)
(-0.0191863 -0.0418345 0)
(-0.0163444 0.0459822 0)
(-0.0167995 0.0871882 0)
(-0.00298502 0.105436 0)
(-0.000891561 0.0150117 0)
(-0.000992008 0.131266 0)
(0.000273479 0.103455 0)
(-0.0198804 -0.0731032 0)
(-0.000717961 0.00584602 0)
(-0.0198537 -0.0771506 0)
(-0.0193218 -0.0428591 0)
(-0.0173435 0.0498835 0)
(-0.0176336 0.0482651 0)
(-0.0182 0.0177868 0)
(-0.0191792 -0.0408847 0)
(-0.016245 0.10842 0)
(-0.001425 0.138995 0)
(0.000540049 0.050147 0)
(-0.00213144 0.111216 0)
(-0.00777217 0.0149482 0)
(-0.0110415 0.0175249 0)
(-0.000500335 0.00492468 0)
(-0.0176408 0.0265648 0)
(-0.0176556 0.0399784 0)
(-0.0114059 0.139716 0)
(-0.0184749 0.00171254 0)
(-0.0112435 0.100191 0)
(-0.0193738 -0.0455937 0)
(-3.6903e-05 0.00362007 0)
(-0.0162572 0.122456 0)
(-0.0158132 0.0789001 0)
(-6.85155e-05 0.00764923 0)
(0.00050598 0.0670504 0)
(-0.0195893 -0.0573244 0)
(-0.015625 0.0450956 0)
(-0.0195691 -0.0575291 0)
(-0.0179072 0.0332519 0)
(-0.0181865 -0.0244823 0)
(-0.0183416 -0.0100275 0)
(-0.0112093 -0.0173952 0)
(-0.0189072 -0.020469 0)
(-0.00920086 0.122288 0)
(-0.0156876 0.0144931 0)
(-0.019819 -0.0743669 0)
(0.000321184 0.0499322 0)
(-0.00537528 0.121635 0)
(-0.0121947 0.0144266 0)
(-0.0184484 -0.0581698 0)
(-0.0197706 -0.0669247 0)
(-0.0155573 0.0628802 0)
(-0.0164959 0.0408134 0)
(-0.0166665 0.09186 0)
(-0.0175755 0.0514264 0)
(-0.00358707 0.138906 0)
(-0.0103443 0.124561 0)
(-0.0200118 -0.0803246 0)
(-0.00751771 0.0143089 0)
(-0.0200385 -0.081739 0)
(-0.000910222 0.00989278 0)
(-0.0153643 0.0116722 0)
(-0.0175121 0.0531447 0)
(-0.0190258 -0.0494599 0)
(-0.0190742 -0.0392482 0)
(-0.0167251 0.0753197 0)
(-0.0175021 0.0215878 0)
(-4.34283e-05 0.0320905 0)
(-4.93655e-05 0.00333289 0)
(-0.0175641 0.031456 0)
(-0.0128972 0.0627013 0)
(-2.12665e-05 0.0280766 0)
(-0.0172531 -0.0492889 0)
(-0.0164609 0.100517 0)
(-0.00367273 0.0322055 0)
(-0.0160828 0.112671 0)
(-0.0159501 0.129196 0)
(-0.0196626 -0.0630092 0)
(-0.0167587 0.0734393 0)
(-0.0165444 0.106726 0)
(-0.00496417 0.142 0)
(0.0004338 0.0521824 0)
(-0.0168129 0.0786931 0)
(-0.00662084 0.0415047 0)
(-0.016163 0.0251647 0)
(-0.0193442 -0.0445395 0)
(-0.0202617 -0.0939681 0)
(-0.0174961 0.0551301 0)
(-0.0200084 -0.0802589 0)
(-0.0112323 0.0813639 0)
(-0.010788 0.0832989 0)
(-0.0135689 0.136408 0)
(-0.00968086 0.111418 0)
(-0.0098446 0.0507721 0)
(-0.0159011 0.137553 0)
(-0.0190315 -0.0321689 0)
(-0.0196093 -0.0582203 0)
(-0.0195014 -0.0910885 0)
(-0.0190355 -0.0484343 0)
(-0.000111263 0.105804 0)
(-0.00895637 0.0358794 0)
(-0.01626 0.116385 0)
(-0.0184731 -0.0102211 0)
(-0.0155041 0.0111433 0)
(0.000185312 0.0213902 0)
(-0.0191321 -0.0427612 0)
(-0.0173896 0.0541939 0)
(-0.018362 0.00901836 0)
(-0.00232284 0.119694 0)
(-0.002047 0.0245266 0)
(-0.0197549 -0.0660606 0)
(-0.00106383 0.126142 0)
(-0.0169303 0.0232373 0)
(-0.00602082 0.033068 0)
(-0.01788 0.0350041 0)
(-0.000806459 0.00404064 0)
(-0.0166879 0.0993442 0)
(-0.000916163 0.0826858 0)
(-0.0162006 0.102494 0)
(-0.0176386 0.000681449 0)
(-0.0132909 0.138043 0)
(-0.0164432 0.0438928 0)
(-0.00507806 0.103628 0)
(-0.0154152 0.0308786 0)
(-0.00276427 0.0255187 0)
(-0.019897 -0.0802416 0)
(-0.00254805 0.125391 0)
(-0.0202152 -0.090895 0)
(-0.0133884 0.0553622 0)
(-0.0190394 -0.0285101 0)
(-0.0190749 -0.0295204 0)
(-0.0161225 0.0507269 0)
(-0.00222591 0.0188637 0)
(-0.0161413 0.12884 0)
(-0.0199344 -0.0770876 0)
(-0.0159648 0.0337232 0)
(-0.0190572 -0.0522087 0)
(-0.00191003 0.110982 0)
(-0.0201061 -0.0850719 0)
(-0.0117259 0.0424393 0)
(-0.0180353 0.0232257 0)
(-0.00315916 0.069972 0)
(-0.00290339 0.0263897 0)
(-0.019577 -0.0581687 0)
(-0.0171313 0.0151643 0)
(-0.0028838 0.0516589 0)
(-0.0176104 -0.0617259 0)
(-0.0186118 -0.00445644 0)
(-0.015261 0.147106 0)
(-0.018619 -0.0051287 0)
(-0.00869735 0.0493738 0)
(-0.0191726 -0.0347425 0)
(-0.00234885 0.0749833 0)
(-0.00349178 0.030713 0)
(-0.00284448 0.119293 0)
(-0.00294069 -0.0059406 0)
(-0.000865621 0.0248556 0)
(-0.0184331 0.00493368 0)
(-0.0192342 -0.0385243 0)
(-0.0134978 0.028989 0)
(-0.000652443 0.00652647 0)
(-0.0170219 0.0332061 0)
(-0.008853 0.0676342 0)
(-0.0161435 0.12858 0)
(-0.0168612 0.0773045 0)
(-0.0191556 -0.0338374 0)
(-0.0176746 0.0460497 0)
(-0.0153437 0.0332276 0)
(-0.01947 -0.0668427 0)
(-0.00331354 0.0659454 0)
(-0.0177714 -0.00205484 0)
(-0.0143801 0.137818 0)
(-0.0125823 -0.00373702 0)
(-0.000893058 0.00982238 0)
(-0.0162699 0.114071 0)
(-0.0176854 0.0455256 0)
(-0.0183499 -0.0116011 0)
(-0.0169464 0.0854058 0)
(-0.0186357 -0.0333823 0)
(-8.84621e-05 0.0758564 0)
(-0.0168114 0.0440605 0)
(-0.0190962 -0.0536314 0)
(-0.017221 0.0706107 0)
(-0.0172977 0.000361071 0)
(-0.0196215 -0.0615061 0)
(-0.0184666 -0.00900217 0)
(-0.00125989 0.019492 0)
(-0.0162183 0.122522 0)
(-0.0162411 0.121743 0)
(-0.0198045 -0.0687861 0)
(-0.0176753 0.0444199 0)
(-0.0202152 -0.0951262 0)
(-0.00826578 0.122971 0)
(-0.0121017 0.145867 0)
(0.000818618 0.118668 0)
(-0.0189273 -0.023265 0)
(-0.013572 0.0939902 0)
(-0.00149895 0.00920274 0)
(-0.0185493 -0.00133083 0)
(-0.0109061 0.101858 0)
(-0.00204832 0.0173463 0)
(-0.0093415 0.0935652 0)
(-0.0107488 0.101786 0)
(-0.0178643 0.0358665 0)
(-0.0181288 0.0182537 0)
(-0.00734886 0.0546917 0)
(-0.0169011 0.0418019 0)
(-0.0190776 -0.0296201 0)
(-0.0123063 0.0872095 0)
(-0.0169104 0.0873652 0)
(-0.00449065 0.12747 0)
(-0.0188802 -0.0400082 0)
(-0.0182515 0.0149631 0)
(-0.00319337 0.0460465 0)
(-0.019888 -0.0813651 0)
(-0.0139954 0.0973487 0)
(-0.0161868 0.0512206 0)
(-0.0153016 0.147534 0)
(-0.0111014 0.100116 0)
(-0.0171368 0.069703 0)
(-0.0189654 -0.079673 0)
(-0.0186073 -0.0042312 0)
(-0.0140626 -0.014501 0)
(-0.0200521 -0.0821481 0)
(-0.0165954 0.0284577 0)
(-0.0188794 -0.0188315 0)
(-0.0174621 0.0576189 0)
(-0.0200529 -0.0821873 0)
(-0.0182542 -0.029443 0)
(-0.00441483 0.106199 0)
(-0.011176 0.0832778 0)
(-0.000491155 0.0132687 0)
(-0.0180235 -0.0783682 0)
(-0.000207487 0.0682388 0)
(-0.0188012 -0.0146587 0)
(-0.0125127 0.114824 0)
(-0.00679794 0.135129 0)
(-0.00326781 0.138671 0)
(-0.00829323 0.122076 0)
(-0.00855093 0.0483902 0)
(-0.0166771 -0.0626857 0)
(-0.013925 0.0917237 0)
(-0.0155831 -0.00308866 0)
(-0.0129347 0.104838 0)
(-0.0179852 0.0291614 0)
(-0.0199383 -0.0832883 0)
(-0.0167733 0.0173916 0)
(-0.0152518 0.103065 0)
(-0.0185294 -0.000289045 0)
(-0.00515544 0.122652 0)
(-0.0169403 0.0856494 0)
(-0.00723442 0.0151786 0)
(-0.0128866 0.119134 0)
(-0.00228008 0.125999 0)
(-0.0103263 0.0675755 0)
(-0.0144635 0.113592 0)
(-0.00364553 0.0693493 0)
(-0.00736351 0.0532265 0)
(-0.00509782 0.143924 0)
(-0.000504546 0.109768 0)
(-0.0164777 0.099262 0)
(-0.0139397 0.0451793 0)
(-0.0175961 0.0503301 0)
(-0.0184908 0.00049441 0)
(-0.018541 -0.00475775 0)
(-0.0176663 0.0423867 0)
(-0.013094 0.0258566 0)
(-0.0176153 0.0492688 0)
(-0.0185688 -0.00804483 0)
(-0.00120519 0.0196588 0)
(-0.0137895 0.0942162 0)
(-0.00474241 0.121845 0)
(-0.0169548 0.0848344 0)
(-0.0037746 0.128298 0)
(-0.00705732 0.143094 0)
(-0.0186945 -0.010189 0)
(-0.0161959 0.12597 0)
(-0.015886 0.101621 0)
(-0.0123119 0.0549541 0)
(-0.0198466 -0.071487 0)
(-0.0187111 -0.0112393 0)
(-0.020206 -0.094034 0)
(-0.0138669 0.0988131 0)
(-0.00675574 0.0369342 0)
(-0.0121969 -0.00850092 0)
(-0.0179388 0.0110647 0)
(-0.00365834 0.106234 0)
(-0.0185271 0.000115997 0)
(-0.017072 0.0682486 0)
(-0.00105528 0.0389682 0)
(-0.0189255 -0.0253924 0)
(-0.016554 0.096337 0)
(-0.012043 0.0146829 0)
(-0.0180038 0.0281264 0)
(-0.016709 0.0982156 0)
(-0.0190571 -0.0339948 0)
(-0.013451 0.0565556 0)
(-0.0198911 -0.0739535 0)
(-0.017673 0.0242589 0)
(-0.004263 0.0482772 0)
(-0.0196087 -0.0581858 0)
(-0.0104023 0.123518 0)
(-0.0115976 0.0236163 0)
(-0.00686862 0.0817734 0)
(-0.0176838 -0.0507555 0)
(-0.0181045 -0.0747503 0)
(-0.0193505 -0.0443668 0)
(-0.0166667 0.100201 0)
(-0.0182855 -0.0545788 0)
(-0.0194485 -0.0496902 0)
(-0.0178259 -0.0404429 0)
(-0.00324275 0.100613 0)
(-0.00623619 0.14636 0)
(-0.00590476 0.0700977 0)
(-0.0164461 0.106949 0)
(-0.0123818 -0.0026261 0)
(-0.00267692 0.0257061 0)
(-0.0105555 0.113186 0)
(-0.0129566 0.0599349 0)
(-0.019208 -0.0367138 0)
(-0.0200904 -0.0842258 0)
(-0.019555 -0.0613651 0)
(-0.0183014 0.012326 0)
(-0.0173622 0.062486 0)
(-0.0060214 0.137092 0)
(-0.00596949 0.10271 0)
(-0.0138249 0.0474914 0)
(-0.0171173 0.0710587 0)
(-0.0123311 -0.00704592 0)
(-0.00118425 0.0012343 0)
(-0.0158607 0.079623 0)
(-0.017492 0.0543746 0)
(-0.020083 -0.0960643 0)
(-0.00216938 -0.0014046 0)
(-0.0148127 0.0997523 0)
(-0.016586 0.039107 0)
(-0.0184744 -0.00430294 0)
(-0.0167057 0.0983865 0)
(-0.0113673 -0.016664 0)
(-0.00856375 -0.00836248 0)
(-0.0156878 -0.025839 0)
(-0.0171454 0.0722853 0)
(-0.017192 -0.0512814 0)
(-0.018778 -0.0134355 0)
(-0.00986206 0.111674 0)
(-0.00187887 0.0227274 0)
(-0.0117141 0.0217431 0)
(-0.00718208 0.0808166 0)
(-0.0118495 0.105445 0)
(-0.0191174 -0.037546 0)
(-0.0201477 -0.0878344 0)
(-0.0195747 -0.0565023 0)
(-0.00178188 0.139294 0)
(-0.00349393 0.0697039 0)
(-0.0160273 0.126626 0)
(-0.0142185 -0.00201932 0)
(-0.0181045 0.0218866 0)
(-0.0185102 0.0010436 0)
(-0.0064484 0.13806 0)
(-0.0170649 0.0790354 0)
(-0.0199026 -0.0742922 0)
(-0.0165495 0.106581 0)
(-0.0187474 -0.0691222 0)
(-0.0173057 -0.00228667 0)
(-0.0191699 -0.0345978 0)
(-0.0168498 0.0173793 0)
(-0.0111992 0.131551 0)
(-0.0137555 0.135961 0)
(-0.0161495 0.111426 0)
(-0.0125354 0.0684797 0)
(-0.0154224 0.146538 0)
(-0.00315113 0.101885 0)
(-0.0194387 -0.049765 0)
(-0.0171723 0.0710888 0)
(-0.00722823 0.0166275 0)
(-0.00762656 0.125284 0)
(-0.0145885 0.113238 0)
(-0.0168762 0.0824144 0)
(-0.0172875 0.00520766 0)
(-0.00186244 0.0206118 0)
(-0.017139 -0.027286 0)
(-0.00143602 0.129986 0)
(-0.0166246 -0.0240503 0)
(-0.0150331 0.145373 0)
(-0.000629227 0.0539918 0)
(-0.0199161 -0.0759065 0)
(-0.0198072 -0.0689317 0)
(-0.00329146 0.102987 0)
(-0.0172295 -0.00190613 0)
(-0.0180979 -0.0724324 0)
(-0.00315195 0.0619691 0)
(-0.0202803 -0.0949106 0)
(-0.0198946 -0.0737634 0)
(-0.0176559 0.04707 0)
(-0.0201909 -0.0896412 0)
(-0.00405945 0.0666473 0)
(-0.0124815 0.0992214 0)
(-0.014209 0.0825652 0)
(-0.00363958 0.118997 0)
(-0.0196354 -0.0662003 0)
(-0.0173691 0.00214942 0)
(8.02837e-05 0.0205028 0)
(-0.0188264 -0.0512255 0)
(-0.00320291 0.135449 0)
(-0.0190754 -0.0302702 0)
(-0.0177077 -0.00184526 0)
(-0.0190647 -0.0289212 0)
(-0.00107533 0.129663 0)
(-0.0120449 0.0920923 0)
(-0.00739539 0.143821 0)
(-0.0183079 -0.000827359 0)
(-0.0179305 0.0135361 0)
(-0.00548552 0.0948733 0)
(-0.0199297 -0.0756421 0)
(-0.0187439 -0.0115313 0)
(-0.0158518 0.139858 0)
(-0.0172747 0.067725 0)
(-0.0194191 -0.0486147 0)
(-0.0194667 -0.0506577 0)
(-0.0189 -0.0199474 0)
(-0.00513095 0.094678 0)
(-0.00279685 0.0941296 0)
(-0.0129915 0.0157232 0)
(-0.019833 -0.0792737 0)
(-0.0184083 -0.0676796 0)
(-0.0178523 0.017484 0)
(-0.0165336 0.107715 0)
(-0.0139226 -0.0134181 0)
(-0.00489748 0.00849976 0)
(-0.000612581 0.0966756 0)
(-0.0199897 -0.0948743 0)
(-0.00801865 0.00904741 0)
(-0.0166324 -0.00160797 0)
(-0.0106233 0.11105 0)
(-0.0198287 -0.0717077 0)
(-0.00621368 0.123122 0)
(-0.00652597 0.0421367 0)
(-0.00232046 0.0708067 0)
(-0.0077048 0.0913096 0)
(-0.000696394 0.00703929 0)
(-0.00965992 0.136492 0)
(-0.0196027 -0.0644951 0)
(-0.0113124 0.130621 0)
(-0.0187345 -0.0115231 0)
(-0.00264634 0.0895268 0)
(-0.00734323 0.0811811 0)
(-0.0188438 -0.0169834 0)