/*--------------------------------*- C++ -*----------------------------------*\
| =========                 |                                                 |
| \\      /  F ield         | OpenFOAM: The Open Source CFD Toolbox           |
|  \\    /   O peration     | Version:  v2012                                 |
|   \\  /    A nd           | Website:  www.openfoam.com                      |
|    \\/     M anipulation  |                                                 |
\*---------------------------------------------------------------------------*/
FoamFile
{
    version     2.0;
    format      ascii;
    class       surfaceVectorField;
    location    "50";
    object      ddtCorrDdt0(Uf);
}
// * * * * * * * * * * * * * * * * * * * * * * * * * * * * * * * * * * * * * //

dimensions      [0 1 -2 0 0 0 0];


internalField   nonuniform List<vector> 
20673
(
(0.00316475 0.000490237 4.33325e-18)
(0.00319591 0.000415276 6.74373e-19)
(0.00310128 0.000431183 3.21085e-18)
(0.000973061 0.000119582 -1.84934e-18)
(0.00095056 0.000136933 -1.33257e-18)
(0.000977517 0.000155136 -1.34396e-18)
(0.0090393 -0.0127283 -2.77896e-18)
(0.00296999 -0.013442 7.27169e-19)
(-7.43521e-06 -0.0134879 -3.11746e-18)
(-4.54387e-05 -0.00155959 -2.88226e-19)
(2.03024e-06 -0.00156068 -4.66807e-19)
(-3.92717e-05 -0.00151681 -6.26345e-19)
(4.58729e-05 0.000629268 9.99156e-19)
(3.84063e-05 0.000632866 3.71164e-18)
(4.79717e-05 0.000622967 6.61194e-19)
(-5.08001e-05 0.00579709 7.2995e-17)
(-0.000105094 0.00580433 1.26442e-16)
(-5.07241e-05 0.00599567 7.12998e-17)
(0.024 -0.00877866 -1.3983e-18)
(0.0236778 -0.00900597 8.54727e-19)
(0.0187378 -0.00939023 -2.27623e-18)
(-0.00191384 -0.0148101 2.69379e-18)
(0.0027549 -0.0144706 -2.05481e-19)
(0.000420656 -0.0145373 2.32913e-18)
(0.00461494 -0.00994019 -6.29104e-19)
(0.00153712 -0.00925575 1.33908e-18)
(-0.00194387 -0.0094887 -1.05992e-18)
(0.00403647 0.000316646 7.73666e-19)
(0.00411868 0.000237828 7.71524e-18)
(0.00416892 0.000345473 4.09566e-18)
(-0.000992903 -0.00645092 5.69907e-19)
(-0.00123013 -0.00633097 3.72709e-18)
(-0.0011877 -0.00668462 3.07781e-18)
(-5.27569e-05 -0.00295085 -4.82021e-19)
(-0.000162012 -0.00296105 2.51705e-19)
(-4.93999e-05 -0.00305612 4.66994e-18)
(-4.31261e-05 -0.00160408 -1.09423e-19)
(-0.00274761 -0.00174129 -1.35104e-19)
(-0.00369929 -0.00259791 1.32553e-18)
(-0.00344844 -0.00166459 2.10762e-18)
(0.00139809 0.00133977 -1.80506e-18)
(0.00135892 0.00138283 5.84169e-19)
(0.00133687 0.00132257 1.02072e-17)
(0.00152565 0.00101189 -4.54146e-18)
(0.0014644 0.00102949 -1.13719e-18)
(0.00146792 0.000950895 -6.42558e-18)
(0.00100726 0.000345698 5.03686e-18)
(0.00101723 0.000303786 7.69599e-19)
(0.000980751 0.000326473 -2.84304e-19)
(0.00302121 -0.0021522 -8.46829e-19)
(0.00305829 -0.002066 -5.00433e-18)
(0.0031091 -0.00218334 -8.3382e-18)
(-3.29798e-05 -0.00285182 -1.02081e-18)
(2.75477e-05 -0.0029512 4.37218e-18)
(9.53974e-05 0.00020914 1.49839e-18)
(9.30786e-05 0.000198988 8.53134e-19)
(8.52893e-05 0.000209122 3.82993e-19)
(-2.28067e-07 4.32054e-05 1.03536e-18)
(9.58739e-07 6.92776e-05 8.40301e-18)
(3.68135e-06 4.28325e-05 3.4957e-18)
(0.0248122 -0.00804257 -4.1164e-19)
(0.0256763 -0.00777893 -3.14414e-18)
(0.000128103 0.000343902 -1.06825e-18)
(0.000137611 0.000339918 1.30531e-18)
(0.000136622 0.000326232 -1.3536e-18)
(-0.00465225 -0.0143149 1.43684e-18)
(-0.00497429 -0.0141458 1.92728e-18)
(0.0002386 0.000502206 -6.51933e-19)
(0.000236584 0.000515066 2.77689e-18)
(0.000253795 0.000531206 -4.81804e-18)
(0.0238707 -0.00406905 -3.40177e-18)
(0.0260141 -0.00389679 3.7893e-18)
(0.0261443 -0.00423481 -2.80715e-18)
(0.000151884 0.00308626 -3.48232e-17)
(0.000178363 0.00317911 -6.66415e-17)
(9.80091e-05 0.0031422 -2.33801e-17)
(0.000691045 0.00353984 2.10991e-17)
(0.000609174 0.0035506 2.44835e-17)
(0.000831438 0.00364612 1.40389e-19)
(0.00222141 0.00657725 4.38577e-18)
(0.00243753 0.00665988 -2.24827e-18)
(0.00231976 0.00692278 -1.66728e-18)
(0.00391395 -0.000931302 7.2866e-18)
(0.00388296 -0.000948283 -9.56811e-18)
(0.00389643 -0.000992314 1.01854e-18)
(0.00326697 0.000124408 -5.15956e-18)
(0.00325403 0.000203463 1.47818e-18)
(0.0031857 0.00015434 -6.35756e-19)
(0.00226027 0.000381326 -2.51532e-20)
(0.00222704 0.000414097 -2.50065e-20)
(0.00219536 0.000361468 -8.1697e-20)
(0.000528856 0.00265685 -9.40058e-18)
(0.000547027 0.0027425 1.37185e-17)
(0.000460228 0.00271098 -1.23498e-18)
(-3.44933e-05 0.00190358 -3.44653e-18)
(-6.84644e-05 0.00187955 1.19825e-17)
(-1.90925e-05 0.00187333 8.05589e-18)
(0.00017911 0.000574445 -7.02357e-18)
(0.00018897 0.000608053 -1.27066e-19)
(0.000194085 0.000583181 4.52824e-18)
(-0.00436854 -0.00764262 -1.93616e-18)
(-0.00421094 -0.00795277 1.82561e-19)
(-0.00454676 -0.00799747 -1.9405e-18)
(0.000120028 0.000358513 -7.67824e-20)
(0.000119278 0.000345657 4.05746e-18)
(0.00227906 -0.00719332 2.87844e-19)
(9.06039e-05 -0.00648699 1.20984e-18)
(0.00156024 -0.00671567 9.65062e-19)
(-2.18591e-05 -0.00192986 1.67727e-19)
(-3.00008e-05 -0.00197885 6.81696e-19)
(0.0258972 -3.67821e-05 5.24667e-18)
(0.0239983 -0.000262069 5.10684e-18)
(0.0257151 -2.68604e-05 1.1078e-17)
(0.00018682 1.49546e-05 -1.05995e-19)
(0.000192668 1.31575e-05 4.48164e-19)
(0.000179857 8.25488e-06 3.95749e-18)
(2.65489e-07 2.40024e-05 -4.55478e-19)
(1.70529e-07 9.78337e-06 8.28759e-19)
(-3.05786e-09 1.04325e-05 9.64229e-19)
(0.00011127 -0.000194265 6.55473e-19)
(0.00012337 -0.000170762 6.00633e-19)
(0.000108541 -0.000177234 1.41589e-18)
(0.00072048 0.0043149 -8.2964e-18)
(0.00107698 0.00432723 2.83652e-17)
(0.00089997 0.00446855 4.70963e-17)
(0.000807445 -0.000172268 1.75739e-19)
(0.000834613 -0.000176091 -2.48467e-19)
(0.000819577 -0.00018699 -3.60556e-19)
(0.000126294 0.00206413 1.17658e-18)
(5.6076e-05 0.00207575 2.05771e-17)
(8.72817e-05 0.00202401 -7.62897e-20)
(0.00298347 -0.00227326 -2.16242e-18)
(0.00293027 -0.0021472 1.98587e-18)
(0.00300469 -0.00369275 7.16985e-18)
(0.00294941 -0.00356302 1.18449e-18)
(0.00286014 -0.00369011 3.113e-18)
(0.00185987 0.00690986 -1.02285e-17)
(-0.000373122 0.00580602 1.73391e-17)
(2.79406e-05 0.00658747 2.83467e-17)
(0.000108513 1.17925e-05 1.42951e-18)
(0.000113324 9.72526e-06 -3.3826e-19)
(0.000110239 1.4741e-05 3.87786e-18)
(0.00144508 -0.00161432 -1.24911e-18)
(0.00148113 -0.0015953 -1.00111e-18)
(0.00146469 -0.00165162 -7.09888e-19)
(0.000122034 0.00147718 6.95886e-19)
(0.000101575 0.00149564 -1.31928e-19)
(0.000135641 0.00150402 2.01907e-18)
(0.00201325 0.00760604 -2.048e-17)
(0.00252452 0.00882333 -2.2032e-17)
(-5.16613e-06 0.00192909 -1.1298e-17)
(-5.1931e-05 0.0019349 -1.52677e-17)
(0.00101572 0.000372217 2.67901e-18)
(0.000981233 0.000375247 5.05899e-18)
(0.00186329 -0.000830089 -2.2172e-18)
(0.00188007 -0.000756233 1.34559e-18)
(0.00192753 -0.000816101 -6.08967e-19)
(-0.000747962 -0.00659077 -8.94449e-19)
(-0.000807681 -0.00627517 -5.08658e-18)
(0.000553279 0.000960338 1.68393e-19)
(0.000521193 0.000961848 -1.08014e-18)
(0.000540465 0.000934079 3.08368e-18)
(0.0017009 -0.000392571 6.8114e-19)
(0.00175217 -0.000407655 -7.31141e-19)
(0.00173989 -0.000344795 1.67078e-19)
(0.00079286 -0.000160993 -4.0382e-20)
(0.000777425 -0.000170792 1.10554e-18)
(0.00473928 -0.00397904 -4.91757e-18)
(-0.000858776 -0.00420902 1.31263e-17)
(0.00165987 -0.00518705 3.86295e-18)
(0.00098032 9.25965e-05 8.19774e-19)
(0.000999513 0.000110059 7.27526e-19)
(-0.00202499 -0.00161055 -3.08263e-18)
(9.78943e-05 0.000216863 -1.58739e-18)
(0.000105387 0.000203374 -2.72801e-18)
(0.000124025 0.00577354 -6.76936e-17)
(-1.26629e-05 0.00559438 -6.67779e-17)
(0.00955166 -0.00451415 2.89169e-17)
(0.00855597 -0.00372495 1.80616e-18)
(0.00331431 -0.00610731 -3.57529e-18)
(-1.0134e-05 0.000638682 -2.25128e-18)
(-6.13314e-06 0.000631352 1.95658e-18)
(-2.40753e-05 0.000634836 -1.51078e-18)
(-2.83735e-05 0.000608363 -1.91843e-18)
(0.00399604 -0.00646361 2.42001e-18)
(0.00377783 -0.00661302 1.36985e-17)
(0.00404634 -0.00672731 8.27798e-18)
(0.00282105 0.000962125 -1.18632e-19)
(0.00291699 0.000891819 2.43813e-19)
(0.00295646 0.00105768 5.03541e-19)
(4.29457e-05 0.000630824 -2.07937e-18)
(5.06803e-05 0.000624443 2.78613e-18)
(0.0108439 -0.010457 5.19127e-19)
(0.00758418 -0.0108619 2.54984e-19)
(-0.0203819 0.00142595 4.44299e-18)
(-0.0203816 0.00163332 2.9476e-19)
(-0.0199157 0.00192788 2.65401e-19)
(0.000242919 0.000487246 2.57472e-18)
(0.000226794 0.000471453 3.27496e-18)
(-0.000596911 0.00648995 -3.66309e-17)
(-6.65703e-06 0.0067543 -1.96236e-17)
(-0.000266106 0.00696074 1.46429e-17)
(0.000134524 -0.00186631 3.18434e-18)
(0.000280977 -0.0019449 1.00872e-18)
(0.000144652 -0.00204728 -2.46775e-18)
(-0.0240687 -0.00211131 5.48814e-19)
(-0.0231182 -0.00232327 -9.68415e-19)
(-0.0237293 -0.00225741 -1.23747e-18)
(0.00108377 -0.000426169 1.17644e-19)
(0.00111917 -0.000440322 -7.07013e-20)
(0.00111911 -0.000386527 8.6813e-20)
(0.0233237 -0.000280397 -3.27362e-18)
(0.0237749 -0.000578185 5.81093e-18)
(0.0225369 -7.11246e-05 -5.81734e-18)
(6.56272e-06 0.000120697 -6.97336e-18)
(7.88204e-06 0.00015737 2.89204e-18)
(8.53227e-06 0.0001541 9.95503e-19)
(1.91595e-05 0.000193027 3.98995e-19)
(2.27662e-05 0.000220456 -2.26638e-18)
(1.86426e-05 0.000181639 6.20077e-18)
(-9.3559e-06 0.000644502 2.75423e-18)
(0.000219877 0.0057106 -9.76277e-18)
(-7.21984e-07 0.00550889 1.80701e-17)
(-7.68609e-05 0.00571036 2.67374e-17)
(0.00473807 -0.00805624 -9.06315e-19)
(0.00331258 -0.00785578 -1.93727e-18)
(-0.0111 -5.31461e-05 -9.91284e-18)
(-0.0109122 9.18984e-05 -1.62747e-17)
(-0.0111238 -0.000169531 2.76549e-17)
(0.00104592 -0.000402111 1.15657e-19)
(0.00104713 -0.000456949 -1.36916e-19)
(4.26646e-05 0.000270228 -1.14319e-18)
(4.26618e-05 0.000261979 4.04409e-18)
(3.46503e-05 0.000240513 4.30724e-18)
(0.011649 -0.00344952 -1.20484e-17)
(0.0112968 -0.000797642 1.38823e-17)
(0.00137497 -0.00162292 1.46075e-18)
(0.00141884 -0.00154229 -1.24756e-18)
(9.89181e-05 -0.000212464 1.56521e-18)
(0.000114099 -0.000209337 1.974e-19)
(-0.0203365 -0.00315115 -3.22519e-18)
(-0.0211658 -0.00271976 -1.25611e-18)
(-0.0205798 -0.00312613 -3.42599e-18)
(0.00424628 -0.000518294 3.14931e-18)
(0.00421172 -0.000404526 -4.59603e-18)
(0.00432023 -0.000419396 -4.57685e-18)
(0.000649028 -0.000118034 -4.88396e-19)
(0.000635563 -0.000131764 -4.27793e-19)
(0.000628557 -0.000117185 3.92107e-19)
(0.000812493 0.00123196 3.08214e-18)
(0.000820745 0.00125216 -9.33137e-18)
(0.000849066 0.00121111 -2.75523e-18)
(0.0166169 0.00102797 -1.94579e-18)
(0.0110561 -0.00499402 -4.60293e-17)
(-0.000142109 0.00577795 5.49974e-18)
(-0.000324426 0.00563296 -1.89743e-17)
(-0.000375054 0.00590462 7.12922e-18)
(0.00143908 -0.0060491 -8.74677e-19)
(0.00161777 -0.00612101 7.19467e-18)
(0.00145668 -0.00625529 8.99231e-19)
(0.00295164 -0.00319133 1.96647e-18)
(0.00306663 -0.00318771 3.03217e-18)
(0.00301796 -0.00307659 8.16141e-19)
(-0.00196441 -0.00154732 -7.59458e-19)
(-0.00218941 -0.00145812 2.49746e-18)
(-0.00193094 -0.00124981 -1.74105e-18)
(0.000313432 0.00473471 5.90971e-18)
(0.000311111 0.0045632 1.08896e-17)
(0.000413303 0.00466286 4.1228e-17)
(0.000246078 3.59511e-05 -2.05051e-18)
(0.000249314 1.88494e-05 3.0153e-18)
(0.000253961 3.34755e-05 8.49044e-19)
(4.09224e-05 0.00251433 2.86509e-17)
(-5.48167e-05 0.00237773 3.91413e-17)
(-4.94526e-05 0.00239224 5.70015e-18)
(0.000642584 0.00442837 -4.26252e-17)
(0.000611942 0.00421865 -3.52644e-17)
(0.00107868 -0.000802333 -3.84035e-19)
(0.0010894 -0.000854021 8.7025e-19)
(0.00104842 -0.000864312 1.02284e-19)
(0.000374009 -7.76745e-05 1.76859e-18)
(0.00036571 -8.7827e-05 7.97153e-19)
(0.000378748 -9.7008e-05 5.24511e-19)
(0.00689785 -0.00627362 2.63579e-18)
(0.00563731 -0.0055884 -1.67356e-18)
(0.0130644 -0.00618286 4.165e-18)
(0.00269452 0.00594141 -1.37769e-17)
(0.00254539 0.00618041 1.05518e-17)
(0.00290769 0.00613586 -3.33912e-18)
(0.00305754 -0.00378898 -2.06475e-18)
(0.00313229 -0.00366408 7.11176e-18)
(0.00102307 0.000252898 -1.0408e-18)
(0.00105863 0.000269748 -1.29301e-18)
(0.00340166 0.000305033 -1.9655e-18)
(0.00338237 0.000377683 -9.16183e-21)
(0.00347166 0.000355797 3.85738e-18)
(-0.00212661 -0.000369395 1.57632e-18)
(8.5844e-05 -0.000100579 3.66851e-18)
(-0.000718371 0.000133372 -3.53958e-18)
(0.0261805 0.000205721 -1.38942e-17)
(0.0263159 -0.000145665 -9.84084e-18)
(-0.00066695 -0.00286603 5.65961e-20)
(-0.000660301 -0.00272616 3.34415e-18)
(-0.000796019 -0.0028391 -1.26585e-19)
(0.00695747 -0.00682913 -1.10641e-18)
(-0.000695114 -0.00643206 2.87599e-18)
(7.6678e-05 0.00164823 4.78213e-18)
(0.000100507 0.00165232 1.2995e-18)
(6.62575e-05 0.00166141 -2.23938e-18)
(-0.00061717 0.0072153 5.2647e-17)
(-0.000627932 0.00719209 -8.41257e-18)
(-0.000689991 0.00741388 -1.95388e-18)
(0.000238507 0.000299584 -1.53521e-18)
(0.000251398 0.000313829 -6.29112e-19)
(0.000241897 0.000316292 -2.36783e-18)
(1.93848e-05 0.00670654 1.14964e-18)
(3.31796e-05 0.00662465 -1.48882e-17)
(2.60522e-05 0.00665289 -5.9553e-18)
(0.0201878 -0.00237621 1.80661e-18)
(0.0207883 -0.00257949 -3.04608e-18)
(0.0198475 -0.00311876 -2.20479e-18)
(9.00047e-05 0.00191261 1.12494e-17)
(0.000123665 0.0019401 -1.27562e-18)
(0.000141893 0.00189797 -9.42871e-18)
(1.45508e-06 4.05983e-05 -2.32288e-19)
(1.40917e-06 4.1167e-05 -1.47926e-18)
(0.00418007 -0.00631361 -9.3353e-18)
(0.00391714 -0.00626829 -2.57578e-18)
(0.0137862 -0.00303979 -1.77286e-19)
(0.0136412 -0.0038097 1.21305e-18)
(0.0128832 -0.00376753 1.06283e-18)
(0.000594709 0.00353218 1.56525e-18)
(0.000700213 0.00348018 1.90354e-17)
(0.000130054 7.84341e-06 7.09949e-19)
(0.000130471 1.09292e-05 2.12166e-18)
(0.000134101 6.7396e-06 8.58131e-19)
(0.000772672 0.00124722 4.52199e-18)
(0.000803704 0.00120245 1.6449e-17)
(0.000819115 -0.000137924 1.25965e-18)
(0.000846118 -0.000134954 -4.97802e-19)
(0.000835306 -0.000134767 3.14724e-19)
(0.000125913 7.70067e-06 -1.4136e-18)
(0.000126381 3.71043e-06 3.96328e-20)
(0.000131732 -5.31632e-05 -8.09193e-20)
(0.000123405 -6.14987e-05 -7.41434e-19)
(0.000126489 -4.78745e-05 -1.00761e-18)
(-0.000147245 0.00589098 2.75415e-17)
(0.0190245 -0.00585261 3.78325e-19)
(0.0181955 -0.00565202 2.78897e-18)
(0.0179706 -0.0051862 1.12786e-18)
(4.86976e-05 0.00164344 5.29106e-18)
(8.34041e-05 0.00163666 2.76479e-18)
(0.000861363 -0.000177273 -5.56953e-19)
(0.000848364 -0.000164558 1.05692e-19)
(2.81017e-06 4.597e-05 -4.37622e-18)
(-1.4681e-06 2.8599e-05 -3.51131e-18)
(0.00316558 0.00175104 3.88953e-18)
(0.00372545 0.00162388 1.04884e-17)
(0.00342221 0.00229074 -2.24094e-18)
(-0.00560418 -0.0139098 -1.67243e-18)
(-0.0048331 -0.0143214 -3.22093e-18)
(0.00323393 0.000541865 3.27299e-18)
(0.00313296 0.000552812 7.48186e-20)
(0.00033325 0.00488015 -2.78933e-17)
(0.000262735 0.00478322 3.95894e-17)
(2.80365e-06 0.000634491 4.92836e-18)
(-7.36397e-06 0.000621231 4.09562e-18)
(3.70241e-05 0.00192358 1.24627e-17)
(5.56771e-05 0.0018902 -2.452e-18)
(-0.00331126 -0.00806704 1.31627e-18)
(-0.00357155 -0.0077627 2.33554e-18)
(-0.00310053 -0.00765866 -6.54693e-19)
(0.000418972 -0.000130411 -2.8109e-20)
(0.000429017 -0.000134997 -5.74872e-19)
(0.000414024 -0.000134648 -1.09053e-18)
(0.000329881 0.00151701 -8.59764e-19)
(0.000309817 0.00156174 -9.41581e-18)
(0.000254796 0.00151364 -7.38426e-18)
(0.000732774 0.00460431 -1.65458e-17)
(0.000716586 0.00474 1.16565e-17)
(0.000818218 0.00470799 -2.55149e-17)
(-1.22493e-05 0.000636497 1.50681e-19)
(-2.41635e-05 0.000663587 2.3592e-18)
(0.0161419 -0.00969437 -5.57765e-19)
(0.0166679 -0.010113 3.76164e-18)
(0.0168468 -0.00911347 -8.86064e-19)
(0.00302296 0.00666871 -3.75691e-19)
(0.00287566 0.00643667 -2.05251e-18)
(0.00270346 0.00662277 8.6308e-19)
(0.00015565 0.00146675 -9.29592e-18)
(0.00012679 0.0014409 -4.70416e-18)
(0.000355726 -0.000116252 2.63238e-19)
(0.000367714 -0.000123114 -1.0773e-18)
(0.000355393 -0.00011904 -3.6448e-19)
(0.00228975 0.000517401 -4.7209e-19)
(0.00224779 0.000548956 2.64889e-20)
(0.0023309 0.000578569 -4.44441e-19)
(0.00148717 -0.00373517 -9.65841e-19)
(0.00151969 -0.00385642 -3.76905e-18)
(0.00159861 -0.00373702 9.02014e-19)
(-0.000757922 0.00712277 -1.17929e-17)
(-0.000731126 0.00739638 1.82956e-17)
(0.000149344 -0.00459255 4.00793e-18)
(0.000195845 -0.00475071 2.08363e-18)
(1.71993e-05 -0.00466169 -1.68397e-18)
(0.00292619 0.00185515 -7.49888e-19)
(0.00289238 0.00177664 -1.42884e-18)
(0.00300354 0.00177062 -1.55555e-19)
(0.00213455 -0.0001666 1.90235e-18)
(0.00212614 -0.000107883 -3.24284e-19)
(0.00206766 -0.00014415 -8.6753e-19)
(-0.0133358 -0.00246547 -1.01964e-17)
(-0.0132004 -0.00258884 -5.80088e-17)
(-0.00934152 -0.000647219 -1.16409e-18)
(0.00277 0.00101421 -2.03054e-19)
(0.00273731 0.000930581 -9.76785e-20)
(0.00190582 -0.0113698 -3.99511e-19)
(0.00222296 -0.0111224 -7.02875e-19)
(0.00182195 -0.0110011 -2.77914e-19)
(-0.02527 -0.00192154 2.50745e-18)
(-0.0243563 -0.0019044 2.02852e-18)
(0.00315254 0.00140831 1.07855e-17)
(0.00253049 0.00186305 2.83175e-18)
(0.000547326 0.00162238 3.40805e-18)
(0.000560999 0.00164495 1.46307e-18)
(0.000512249 0.00165156 -6.39826e-18)
(-0.000340744 0.00305958 3.65617e-18)
(-0.000287381 0.00312236 3.35149e-17)
(-0.000375599 0.00317085 2.721e-17)
(8.80716e-06 0.000134415 -1.71301e-18)
(9.2195e-06 0.00012698 4.17915e-19)
(6.11452e-06 9.85068e-05 -2.31139e-18)
(0.0012201 -0.00600494 1.0516e-18)
(0.0013871 -0.00586449 -1.92456e-18)
(-0.000654263 -0.0030349 4.79563e-18)
(-0.000534354 -0.00290998 -4.40918e-20)
(-0.00178641 -0.00161696 -5.39658e-18)
(-0.00199588 -0.00181598 2.51472e-18)
(0.0011065 -0.000753258 -7.95293e-19)
(0.00106677 -0.000759079 -5.05389e-20)
(0.00226624 -0.00360993 2.82703e-18)
(0.00217559 -0.00368805 -1.73124e-18)
(0.00230085 -0.00374122 -5.09834e-18)
(0.00065014 -0.000152787 1.38208e-18)
(0.000674604 -0.000153858 9.00067e-19)
(0.000666127 -0.000149197 7.38997e-19)
(-4.66682e-05 0.00267087 -1.56281e-17)
(0.000244851 0.00254478 -8.44592e-18)
(0.00315821 0.00157084 3.57611e-19)
(0.00305102 0.0016203 7.83202e-19)
(0.00306512 0.00149042 -6.52168e-19)
(0.00125566 -0.000985824 9.89638e-18)
(0.00237339 -0.000491949 3.73814e-19)
(0.00120046 -0.00118333 6.64749e-18)
(-0.000728024 -0.00229821 3.20985e-19)
(-0.000894853 -0.00229208 2.73732e-18)
(-0.000802535 -0.00245794 -2.79992e-18)
(0.00111331 0.000418595 5.95106e-18)
(0.0011527 0.00043202 2.29387e-18)
(0.0011153 0.000470245 1.03942e-18)
(0.0100134 -0.0115112 -1.22587e-18)
(0.0107867 -0.0112473 3.07014e-18)
(0.00877828 -0.0109205 3.08517e-18)
(0.00302462 0.00214164 -2.23304e-18)
(0.00306047 0.0022333 1.04419e-18)
(0.00314198 0.00216478 -1.85526e-19)
(0.0199478 -0.00582703 -2.92399e-18)
(0.020684 -0.00632537 2.61799e-19)
(0.000172401 0.00680847 -6.26071e-18)
(-6.8776e-05 0.00679349 -1.2018e-17)
(0.0152154 -0.0102136 1.29564e-19)
(0.0134835 -0.00935165 -3.48898e-18)
(0.000617651 0.000360394 -2.12768e-18)
(0.000636909 0.000332771 -9.47085e-19)
(0.000631598 0.000380773 -4.08656e-18)
(0.00426676 -0.000619737 -3.3615e-18)
(0.004178 -0.000597258 8.4129e-18)
(0.00336208 9.18147e-05 -1.80111e-18)
(0.003284 4.14655e-05 -1.61433e-18)
(0.000415971 -0.000128248 6.76582e-19)
(0.000405234 -0.000121201 2.02625e-18)
(4.55957e-05 0.00028284 -5.41544e-18)
(5.54638e-05 0.000296659 -3.896e-18)
(0.00140988 0.00193509 -5.84557e-19)
(0.00133771 0.00195156 -2.37102e-20)
(0.00136401 0.00187362 -6.27529e-18)
(0.0199018 -0.00397606 4.74375e-18)
(0.0199908 -0.00450382 4.07305e-18)
(0.00476216 -0.0021712 -2.24023e-17)
(0.00463635 -0.00238881 5.56738e-18)
(0.00488943 -0.00243765 -6.60256e-18)
(-0.0136932 -0.00196292 4.33023e-17)
(-0.021233 -0.00593005 -1.98078e-17)
(0.00256866 -0.00124563 -4.01317e-18)
(0.002585 -0.00116935 2.3697e-18)
(0.00263093 -0.00123412 4.41725e-18)
(-0.00192606 -0.00330947 1.45023e-18)
(-0.00191928 -0.0031321 4.13137e-18)
(-0.00209907 -0.00330709 1.47701e-18)
(-0.000497102 -0.00927346 -2.30364e-19)
(-0.000887259 -0.00942435 6.12656e-19)
(-0.00046119 -0.00970019 1.26622e-18)
(-0.0108696 -0.000368581 3.19144e-18)
(-0.0110509 -0.000647161 -6.80107e-17)
(0.00605088 -0.00165822 3.67917e-18)
(0.00586005 -0.0017584 6.29437e-18)
(0.00601174 -0.00193047 1.7423e-17)
(0.000126525 0.000438406 3.05468e-18)
(0.000117894 0.000440085 -2.60599e-19)
(0.000115865 0.000456203 -1.75046e-18)
(-9.976e-05 0.00477032 1.63672e-17)
(3.4189e-05 0.00473485 -3.03405e-17)
(-1.01347e-06 0.0048924 2.84518e-18)
(0.000140295 0.00300085 3.72937e-17)
(0.000224296 0.00303369 3.94153e-17)
(0.000164843 -1.61996e-06 -5.56739e-19)
(0.000166363 -1.73619e-06 -3.37797e-19)
(0.00066092 -0.000105509 -1.50929e-18)
(0.000668906 -0.00012289 3.34387e-19)
(0.00299526 0.00564088 6.04888e-18)
(0.00292323 0.0054067 -5.70308e-18)
(0.00316857 0.00546936 -1.345e-18)
(0.0143289 0.00603699 6.43645e-18)
(0.0178527 0.00441298 2.39994e-17)
(0.00797469 0.00558788 -4.68255e-17)
(0.000786463 -0.00204381 1.61655e-19)
(0.000788964 -0.00209166 1.72628e-18)
(0.0008361 -0.00205894 -1.39244e-18)
(0.000105626 1.51251e-05 -1.37048e-18)
(0.000106163 1.03655e-05 -3.69239e-18)
(0.00188913 -0.00363318 2.25948e-19)
(0.00188049 -0.00351826 -4.07644e-18)
(0.00199951 -0.0035817 -2.6989e-19)
(0.00141185 -0.00378523 4.25739e-18)
(0.00143301 -0.00367066 5.91877e-18)
(-0.0209725 0.000945238 1.39187e-19)
(-0.0204313 0.00112273 2.50049e-18)
(0.00853755 -0.000853509 -3.57038e-18)
(0.00867113 -0.00127935 -1.97383e-18)
(0.00830919 -0.00120166 -9.27587e-18)
(0.000173264 0.000549322 -4.29355e-18)
(0.000167969 0.000568617 -4.72219e-18)
(0.000564418 0.000970631 -6.78269e-19)
(0.000565024 0.000961361 -4.41996e-18)
(0.00283953 -0.00319813 2.75371e-18)
(0.00287679 -0.00331442 3.77401e-18)
(0.0175407 -0.00811315 2.72046e-19)
(0.00821836 -0.00865003 5.38109e-19)
(0.0101636 -0.00911036 -1.44866e-19)
(0.000306537 0.00149983 3.27714e-18)
(0.000342466 0.00148979 8.22437e-18)
(0.0235436 -0.00931316 2.58996e-18)
(0.0235877 -0.00960105 -4.54258e-19)
(0.0184517 -0.0102935 -1.7295e-18)
(-0.0208717 0.000323758 1.75876e-19)
(-0.0206681 0.000806001 -3.69179e-18)
(-0.0216267 0.000259173 -2.61373e-19)
(-0.00173463 -0.00337597 3.42632e-20)
(-0.00190385 -0.00356089 -3.5424e-19)
(0.000372372 -5.50027e-05 2.36842e-18)
(0.000385472 -6.9156e-05 1.87217e-18)
(0.00104204 0.00608566 -6.33567e-18)
(0.00116959 0.0061875 -3.82986e-17)
(0.00101568 0.00632774 -4.60629e-17)
(0.0025068 -0.00316213 6.34365e-19)
(0.00261919 -0.00317282 -4.65841e-18)
(0.002572 -0.00305756 2.40776e-19)
(0.00374665 0.00151488 -6.1606e-18)
(0.00301315 0.00163007 -1.48541e-18)
(0.00335529 0.00159492 -2.25617e-17)
(0.000338182 0.000451287 -2.81003e-18)
(0.000349598 0.00046917 -3.05079e-19)
(0.000350408 0.000488898 1.08741e-18)
(0.0084011 -0.00326654 -3.74865e-17)
(0.00751626 -0.00269976 -3.62103e-17)
(0.000594143 0.00039737 1.13997e-18)
(0.000599012 0.00035089 4.66304e-18)
(0.00378252 -0.00104712 -6.50097e-18)
(0.00376891 -0.00105911 -1.04402e-18)
(0.00377079 -0.00102173 -1.41303e-18)
(0.000183938 1.98192e-05 -6.53388e-19)
(0.000180987 1.40513e-05 4.7632e-19)
(-0.0032288 -0.0075785 4.78573e-19)
(-0.00504834 -0.00693093 -1.57009e-18)
(-0.00320363 -0.00720955 1.93584e-18)
(0.00434318 -0.00492117 -7.80217e-18)
(0.00311095 -0.00367706 -1.57158e-18)
(0.0107738 -0.0043064 -2.3283e-18)
(0.00155895 0.0010514 -2.86398e-18)
(0.00156744 0.00100301 -1.15933e-17)
(0.0100076 0.00667365 9.13087e-18)
(0.0127453 0.0061959 1.19127e-17)
(0.0104409 0.00459717 -8.20353e-18)
(0.00218694 -0.000193214 9.01942e-19)
(0.00212745 -0.000223005 -2.36508e-20)
(0.000368469 -2.64461e-05 -2.44404e-18)
(0.000360457 -3.84489e-05 -1.39602e-18)
(-0.00423416 -0.00732866 -1.63642e-18)
(-0.00459982 -0.0073804 -4.40037e-18)
(-0.000636552 -0.00214664 -1.96009e-18)
(-0.000578753 -0.00231837 -2.38459e-18)
(0.00250613 -0.00125647 -5.5968e-18)
(0.00254653 -0.00132297 -5.49054e-18)
(-0.00607777 -0.0138049 2.07609e-18)
(-0.00213611 -0.0134425 3.66474e-18)
(-0.00755378 -0.0137858 3.07595e-18)
(-0.0203301 0.000371508 1.37483e-18)
(-0.021006 -0.000163987 9.49677e-19)
(0.000216538 -2.31921e-05 -4.4558e-19)
(0.000213697 -3.20149e-05 1.04268e-18)
(0.000211718 -2.49029e-05 1.41744e-18)
(0.00228811 0.000342441 2.41381e-19)
(0.00232896 0.000399424 -2.04517e-19)
(-0.020043 -0.00315912 -8.06522e-19)
(-0.0194052 -0.00383943 -8.68822e-19)
(-0.0116779 0.000792164 4.55268e-18)
(-0.0111379 0.00136454 -4.06604e-17)
(-0.0119831 0.00160083 -2.04253e-17)
(8.78924e-06 0.000137412 -2.21761e-18)
(1.21327e-05 0.00017128 1.5204e-18)
(0.000203635 0.000146297 1.2552e-18)
(0.00021353 0.000161259 -2.58387e-18)
(0.000213596 0.000160951 -3.29474e-19)
(0.0225187 0.00054527 4.48904e-18)
(0.0221883 0.000876343 3.20292e-18)
(0.0020899 -0.00644658 -2.96364e-18)
(0.00188266 -0.00644069 -1.70426e-18)
(0.00197039 -0.00666449 -8.42764e-19)
(9.75973e-07 2.82262e-06 3.73608e-19)
(3.96773e-07 1.79213e-06 -2.06496e-18)
(9.68307e-07 3.45871e-06 -3.53975e-18)
(-0.00449371 -0.00603131 -3.70598e-18)
(-0.00462811 -0.00563284 1.07888e-17)
(-0.00416814 -0.00578974 4.05371e-18)
(0.00415185 -0.00211646 -3.14361e-18)
(0.00417263 -0.00225577 1.96364e-19)
(0.00405194 -0.00220234 -9.26718e-18)
(-0.000330415 0.00297478 -1.69395e-17)
(-0.000407516 0.00302608 -1.85568e-17)
(0.00292604 0.000313382 -2.0644e-18)
(0.00300108 0.000326752 -4.46404e-18)
(0.00295061 0.000260503 -2.05742e-18)
(1.34746e-05 0.000160053 -1.37245e-18)
(8.97908e-06 0.000120333 3.58872e-18)
(0.00276577 0.00254315 7.07662e-18)
(0.0026905 0.00241534 7.6838e-19)
(0.00262881 0.00254247 -3.06168e-18)
(-0.023547 -0.000359688 -1.46223e-18)
(-0.0238526 -0.000520549 -4.91689e-19)
(-0.0245622 -0.000623867 1.36601e-18)
(0.0002709 -0.000894168 -1.08259e-20)
(0.000243042 -0.000919277 6.82204e-20)
(0.000278946 -0.000933352 2.60567e-20)
(0.00462884 -0.000794142 -1.09159e-17)
(0.00465509 -0.000670455 -2.75704e-18)
(0.00453086 -0.000730748 7.87699e-18)
(0.000393242 0.00497848 -6.66195e-18)
(0.000518417 0.00496947 2.19694e-18)
(0.000470386 0.00514864 1.37657e-19)
(0.00079221 -0.000140308 1.04981e-19)
(0.000801928 -0.000141648 8.22092e-19)
(0.00050124 0.000943213 1.10878e-18)
(0.000494057 0.000968794 -8.11757e-19)
(0.000363174 -0.0040115 -9.93295e-18)
(0.000341405 -0.00412637 3.46128e-18)
(0.000249859 -0.00403005 -5.27025e-18)
(0.0230746 0.00115999 -7.20991e-18)
(0.0233779 0.000937459 1.23708e-18)
(0.0239421 0.000876021 -3.51543e-18)
(0.000112535 -0.00445922 -2.31676e-18)
(0.000279629 -0.00453352 -9.71148e-20)
(0.00147444 0.00193463 5.75798e-18)
(0.00144054 0.00202171 2.4852e-18)
(0.0014268 0.0012826 -2.69307e-18)
(0.00145721 0.00134683 2.46358e-18)
(1.03584e-06 5.90342e-06 3.01032e-19)
(8.88111e-07 5.08974e-06 2.09693e-18)
(2.63337e-07 2.82461e-06 -4.24291e-18)
(0.0140377 -0.00233141 3.36287e-19)
(0.0147645 -0.00240437 -2.49149e-18)
(0.00674626 0.00704671 4.60809e-18)
(0.00929752 0.00607777 -1.00488e-18)
(0.00779381 0.00600776 -2.43132e-17)
(-0.00569157 -0.00328819 -2.68396e-19)
(-0.00578047 -0.00363113 -3.66443e-18)
(-0.00609714 -0.00324707 -1.01295e-18)
(0.000365063 5.95527e-07 -2.60816e-18)
(0.000377585 -1.89576e-05 -2.15142e-18)
(-0.011592 0.00335238 1.90053e-18)
(-0.0124245 0.00404042 3.04784e-18)
(-0.0113672 0.00382495 4.50358e-19)
(-0.00743115 -0.00331888 1.42628e-19)
(-0.00651803 -0.00321841 1.77103e-18)
(-0.00708807 -0.00249007 -2.84229e-19)
(0.00199164 -0.0116872 2.80277e-18)
(0.00157617 -0.0115715 -1.4236e-18)
(0.0230735 -2.22732e-05 -4.99076e-18)
(0.0235348 -0.000489242 4.56554e-19)
(-1.52583e-05 -0.00183901 2.06582e-18)
(0.00012045 -0.00170644 -1.58544e-18)
(1.898e-05 0.000201218 -3.46127e-18)
(0.000148496 1.09141e-05 -5.85495e-19)
(0.000141966 1.05376e-05 5.25485e-19)
(0.000147108 1.81812e-05 -7.27772e-19)
(0.00295619 -0.00235744 -2.09994e-18)
(0.00287049 -0.00235341 5.57509e-18)
(0.0029101 -0.00245525 5.3457e-18)
(-0.011823 -0.00590857 -1.84074e-18)
(-0.0127409 -0.00527292 2.81374e-19)
(-0.0136951 -0.00519371 6.55698e-19)
(0.00424189 -0.00432004 3.46109e-19)
(0.00435756 -0.00414412 -9.96761e-18)
(0.00445642 -0.0043882 -6.64576e-18)
(0.00164711 -0.000370979 -2.16817e-19)
(0.00165984 -0.000430973 1.14201e-18)
(0.00833722 -0.000453221 3.51232e-19)
(0.00844653 -0.00053056 4.90737e-18)
(0.000361065 -0.00286527 -1.09269e-18)
(0.000338269 -0.00287163 -2.58593e-18)
(0.000114595 -3.88004e-05 3.29231e-19)
(0.000121009 -4.31893e-05 -1.29835e-18)
(0.000111616 -4.92824e-05 6.92497e-19)
(-0.000572629 -0.0015514 1.59432e-17)
(-0.000334266 -0.00130025 2.28202e-17)
(-0.000409047 -0.00123997 2.58167e-17)
(0.000106294 0.000163873 -1.28172e-18)
(0.000103839 0.000156022 2.61939e-20)
(9.70963e-05 0.000168927 -2.55496e-18)
(0.00942659 -0.0118779 -4.37402e-18)
(0.0109909 -0.0123167 -1.46834e-18)
(0.000782264 -0.00198331 5.69725e-19)
(0.000733692 -0.00201748 2.76819e-19)
(1.00464e-06 2.20301e-06 1.98602e-18)
(1.82649e-06 4.17238e-06 3.16724e-18)
(0.00180742 0.00113688 1.14433e-18)
(0.00181842 0.00121384 3.86833e-18)
(0.00175157 0.00115777 4.50174e-20)
(0.00297089 0.00193057 -7.14299e-19)
(0.00286641 0.00190484 -2.93936e-18)
(-0.000186484 0.00315215 -1.75688e-17)
(-0.000219573 0.00302399 3.85141e-18)
(-0.00487917 -0.0061956 -6.70808e-18)
(-0.00442761 -0.00638341 -6.04025e-18)
(0.002217 0.00158448 -7.73487e-19)
(0.00228956 0.00165397 -4.82874e-18)
(0.00218726 0.00165552 1.66065e-18)
(0.00051647 -0.00076416 -6.35613e-20)
(0.000548998 -0.000748074 -1.05934e-19)
(0.000532421 -0.000716415 -2.06366e-20)
(0.00378163 0.000467202 -1.0815e-17)
(0.00349641 0.00038101 -9.65259e-19)
(0.00365088 0.000662944 2.914e-18)
(-0.00639701 -0.0134192 -8.46973e-19)
(-0.00513746 -0.0140906 -5.13433e-19)
(0.00319874 0.00716677 7.43589e-18)
(0.00242943 0.00742231 -2.00283e-18)
(0.000328231 0.000441039 2.51646e-18)
(0.000321817 0.000421126 -1.60734e-19)
(0.00343888 -0.0117508 -1.84411e-18)
(0.00365139 -0.0114493 2.15694e-18)
(0.0038622 -0.0117523 -3.35042e-18)
(3.32973e-06 0.000496997 -8.84749e-19)
(3.31139e-06 0.000507453 -4.02847e-19)
(-2.40735e-06 0.000538927 7.06367e-19)
(0.000487244 -0.000791705 2.40413e-20)
(0.000507777 -0.000820562 4.49056e-20)
(0.000225677 0.000292454 1.85592e-18)
(0.000233109 0.000286389 -1.61216e-18)
(0.00333383 0.00665448 1.53508e-20)
(0.00308934 0.00693424 1.96922e-18)
(6.85656e-05 3.71492e-05 2.12989e-18)
(7.34623e-05 3.07698e-05 -1.13135e-18)
(6.39317e-05 3.09457e-05 2.09857e-19)
(0.00379407 -0.00104482 -2.26759e-18)