/*--------------------------------*- C++ -*----------------------------------*\
| =========                 |                                                 |
| \\      /  F ield         | OpenFOAM: The Open Source CFD Toolbox           |
|  \\    /   O peration     | Version:  v2012                                 |
|   \\  /    A nd           | Website:  www.openfoam.com                      |
|    \\/     M anipulation  |                                                 |
\*---------------------------------------------------------------------------*/
FoamFile
{
    version     2.0;
    format      ascii;
    class       surfaceScalarField;
    location    "50";
    object      meshPhiCN_0;
}
// * * * * * * * * * * * * * * * * * * * * * * * * * * * * * * * * * * * * * //

dimensions      [0 3 -1 0 0 0 0];
oriented        oriented;


internalField   nonuniform List<scalar> 
20673
(
-0.000744713
-0.000233475
0.000968742
0.000871186
0.000579801
-0.00147423
0.000253276
-0.000167069
-8.64851e-05
0.0010548
-0.000170682
-0.000872868
0.00214321
-0.00224197
8.93813e-05
0.000623613
-0.000652653
2.89378e-05
0.000262878
-1.14911e-05
-0.000250704
-0.000123323
0.000155233
-3.22415e-05
7.19504e-05
-8.0197e-05
8.14324e-06
0.000715582
-2.2879e-05
-0.000697482
-0.000366789
0.000106989
0.000259892
-0.000387414
0.000587319
-0.000199197
0.000583749
0.000118573
-9.39525e-05
-2.44641e-05
0.00123102
-0.00190918
0.000668052
-0.000575386
-0.0010782
0.00163904
-0.00196815
0.000800237
0.00114555
0.000359467
-0.000169137
-0.000193082
0.000297043
-0.000683818
-0.000984539
0.00111525
-0.000166075
-0.000358705
3.40651e-05
0.000323775
6.21323e-05
0.000200714
-6.9406e-05
-0.00133359
0.00137473
1.40447e-05
-0.000137624
0.00228658
-0.00225369
-5.69685e-05
-0.000310152
0.000259728
5.03065e-05
0.000493101
0.000655111
-0.00114802
-0.000235545
0.000819862
-0.000583339
-0.000414468
0.00072041
-0.000306524
-0.00016723
0.00055361
-0.000387999
-0.000279284
-0.000586897
0.000859007
-0.000474931
-0.000647507
0.00110923
0.00104743
0.000252914
-0.00130054
0.000390381
-0.00166991
0.00127832
-0.0010384
-0.00126772
0.00229257
-5.81727e-05
-0.000189442
0.000246846
-0.00131236
0.00121486
-0.00011592
3.11914e-05
8.45159e-05
-0.000947941
0.000936798
-0.000329331
0.000276921
5.27899e-05
-0.000150471
-6.81917e-05
0.000142491
3.01159e-06
-0.000117705
0.000118956
0.000183603
-0.000211827
2.72171e-05
-0.000999867
0.000875419
0.00012541
0.000517584
-0.000980138
0.000447337
0.00169652
-0.0015931
-0.00010458
0.000101913
0.000253783
-3.69504e-05
-9.71255e-05
0.000133491
-0.000528947
0.000481103
4.83731e-05
-1.56646e-05
0.000186219
-0.000234355
0.000133946
-0.000200096
8.4639e-05
0.00152996
-0.00228964
0.000755138
-0.000588203
5.97535e-05
0.00158307
-0.00119356
-0.00138088
-0.000609003
0.000500967
-1.49295e-05
-0.000494023
-6.08725e-05
-0.0003075
-0.00197631
-0.000642936
0.00259321
0.000905635
-0.00054578
-0.000373772
-0.000389844
0.000891211
0.000392223
-0.000422966
3.12897e-05
0.00181462
-0.000970054
3.85721e-05
-0.00123312
0.000213713
0.000715353
-9.19242e-05
9.18866e-05
0.000439027
-0.000531595
-0.000116806
0.0021199
0.00214717
0.000250434
-0.000140024
0.000101172
3.86158e-05
0.000738201
0.000312398
-0.0010586
-1.30902e-05
0.00214785
-3.63329e-06
7.54961e-05
-6.4458e-05
9.70397e-05
-3.26592e-05
0.00246519
-0.000203486
-0.000483215
-7.44771e-06
0.000490999
0.000783287
-0.000259782
-0.000520377
-6.34923e-05
2.65199e-06
6.07168e-05
0.000733894
-0.000428101
-0.000317263
0.000362532
1.10744e-05
-0.000372961
-6.10373e-05
-0.000703026
0.000761851
-0.000995745
0.000267383
0.000713534
0.00177323
-0.000627596
0.000665456
-3.73152e-05
-9.87636e-06
-0.000106199
0.000417205
-0.000445064
2.75341e-05
0.000281071
0.00044282
-0.000980847
0.0010054
-4.55327e-05
-0.000332653
0.000423978
0.000237615
-9.35225e-05
0.000213835
-2.60764e-05
2.39903e-06
-5.9008e-05
5.65466e-05
-0.000146738
0.000808441
-0.000665664
-0.00157466
0.000729929
0.000815061
0.000735696
-0.00197455
0.00122785
0.000173004
-0.000506121
0.000528068
0.000157655
-0.000685632
-6.84008e-05
-0.000115743
0.000183845
0.000161805
-7.92666e-05
-8.52317e-05
-0.000630942
0.00047087
0.000160742
-0.00051179
-0.000495923
0.0010093
0.00041947
0.000378451
-0.000840844
-0.000830477
0.00144849
-0.000617933
-0.00069212
-0.000306745
-9.11497e-05
-0.000228536
0.000315185
-0.000918741
0.00109576
-0.000209945
5.55845e-05
-0.000104695
4.9104e-05
0.000778146
-0.00076272
-1.65446e-05
8.68391e-05
-0.000124522
0.00201967
-0.00124407
0.000600908
0.000241649
-0.000848965
0.000212275
-0.000246007
3.34197e-05
-0.000375318
4.62903e-05
-0.000622343
0.000172348
0.000451528
0.000100182
-4.47016e-05
-0.000374654
0.00168251
-0.00130964
-0.000571324
0.000376473
0.000194939
0.00147203
0.000620141
-0.00212544
-3.3372e-05
-0.000504285
0.000537665
9.31688e-05
0.000103051
-0.000196401
-0.00168024
0.000368496
0.00131081
0.000331614
-0.000325073
-8.97641e-05
-4.88833e-05
0.00016804
-5.00152e-05
-0.000117981
-0.00107869
0.000843795
8.56752e-05
-0.000234713
8.88212e-05
-0.00129963
0.00202285
0.0010741
-0.000647957
-0.00044558
-0.000110278
0.000125039
-0.000223274
0.000119537
9.30334e-05
-0.000124643
-0.000124804
-3.62328e-05
0.000161014
-0.00200128
0.00162462
-0.000687669
-0.000307842
-0.000344662
-1.28043e-05
-0.000125747
0.000242782
-0.000117006
-0.00013367
0.000147448
-0.000967289
0.000213496
0.000253959
-0.000765403
0.00215505
-3.11366e-05
-0.00135604
-0.00032498
9.52998e-05
0.00018986
-0.000286606
0.000483634
-0.000905364
0.000401552
0.00218166
0.000113196
-0.00230221
-5.66638e-05
-0.000724698
0.000783046
0.00212477
2.36112e-05
9.37549e-05
-2.62034e-05
-6.79753e-05
-0.000420097
0.00074197
-0.000323121
0.00241893
-0.000893776
0.000453532
-0.000767058
0.000293626
0.000857776
0.000319756
-0.00119296
-2.00046e-05
0.000190766
-0.000172683
-0.000264317
-0.000306974
-0.00040553
3.4205e-05
0.000371476
-0.00122555
0.0011255
9.3889e-05
-0.000183802
-0.000739908
0.000911582
0.000618301
-0.00018362
-0.000434959
-0.000530741
0.00125925
0.00015876
-0.000139191
-1.96809e-05
-1.01295e-05
-5.35982e-05
0.000114913
-0.000240626
0.00151411
0.000259564
-0.00177834
-0.00087541
0.00131716
-0.000441719
-0.000686254
0.000809603
-0.00012559
0.000148326
-0.000218136
-4.04602e-05
-0.00058038
-0.00051163
-0.000118775
-0.000347355
0.000251991
-0.000195126
0.000126483
6.91695e-05
0.00110763
-0.000703238
-0.000426469
-0.00136328
0.00053233
-0.000449158
-0.000690699
0.00113148
-8.81487e-06
-0.000195976
0.000204711
-0.000254547
0.000589042
-0.000332801
0.00197617
-0.00098803
-0.00100886
9.57315e-05
-6.60484e-05
-2.98694e-05
0.0010878
-0.00103778
-5.54359e-05
8.54315e-05
-0.000210624
-0.000511468
0.00047775
8.79244e-05
5.22242e-06
0.00158593
9.31429e-05
-0.00171189
-0.000681643
0.000531505
-0.000943263
0.000656148
-0.000320681
0.000784342
-0.00120319
0.000201988
0.000168968
-0.00135086
0.0011767
-0.000112908
-0.0001975
0.000472659
-0.000102599
-0.000371525
0.000142398
0.000474899
0.000398471
-6.27711e-06
-0.000395624
-0.000448783
9.55462e-05
0.000354927
-0.00024143
0.000218871
2.23949e-05
0.000383334
3.36433e-05
-2.61663e-05
0.000469529
-0.000444952
-0.000302178
0.00175472
-0.00148374
-0.000845963
0.00083578
1.06649e-05
-0.000601569
0.00109502
-1.10853e-05
-6.15307e-05
-0.000977256
-0.000624796
-0.000701807
1.13947e-05
0.000688814
4.76206e-05
0.000396914
-0.000445361
-0.000373704
0.000454294
-7.95259e-05
-0.000181917
0.000117254
0.000276009
-0.000135673
-0.000138009
0.000196526
-0.000219844
3.19777e-05
-9.65434e-05
-0.000158536
5.85493e-05
0.000100016
0.00112917
-0.00217927
-0.00221057
0.000210127
6.28104e-05
9.70033e-05
0.000312077
-0.000109396
-0.000202868
-0.000261603
0.00243473
0.000218728
1.40546e-05
-0.000232351
-0.000106309
7.36563e-05
3.25613e-05
-0.000501197
5.49973e-05
0.000212685
-0.00116311
-0.000537704
0.000759325
-0.000219812
0.0001601
-3.34349e-05
-0.000127558
-0.000216301
0.000164932
5.05483e-05
-0.000172424
0.00153581
-0.0013891
0.000396491
-4.9217e-06
-0.000594717
0.00214281
-0.000451404
0.000344257
0.00010552
-0.000276002
6.29113e-05
-0.000100812
3.30644e-05
6.76162e-05
5.89015e-05
-0.000111511
5.26015e-05
-0.00163456
0.00104626
-0.000232383
-0.000521541
0.000751959
-0.000823994
0.000630357
-0.00110701
0.00128154
-0.000234323
0.00017543
0.000352947
-0.000605962
0.000370818
2.35414e-05
-0.000146139
0.000211573
-6.56769e-05
-5.53471e-05
-5.09742e-05
-0.00030225
-0.000171014
0.0004258
0.00054969
-0.0010354
-6.53269e-05
6.75799e-05
0.0003882
-0.000383861
-4.71521e-06
-0.000736427
3.71938e-05
0.000720542
0.000723712
-0.00148544
-2.16322e-05
-0.000314263
-0.000161224
1.84462e-05
0.00014223
4.63066e-05
-3.71088e-06
-4.7435e-05
0.000184928
0.000198738
-0.000383847
-0.000264575
3.30925e-05
0.000230018
0.000203258
-0.00107934
0.000576821
-0.000924559
0.000339221
0.00010637
0.000692837
-0.000536155
0.00129414
-0.000765123
-2.70156e-05
7.66503e-05
-4.96901e-05
-0.000516996
0.000247623
0.000278423
-0.000653588
2.07521e-05
0.000629429
-0.000880861
0.000816149
6.58938e-05
0.000674505
0.000382657
0.00165757
-0.00232341
-0.000460247
0.000139251
0.000322841
-0.000394558
0.000302174
9.17835e-05
-4.65529e-05
-0.00035804
0.00111035
-0.000945578
0.00159909
-0.000378218
-8.53143e-05
9.15628e-05
-8.85198e-06
6.17239e-05
0.000106176
-0.000215775
0.000212735
2.80105e-06
-0.000370641
-1.42885e-05
0.000384481
6.45758e-05
-0.00120355
-0.000106405
0.000126025
-1.95153e-05
-0.00010956
3.54923e-05
7.42241e-05
4.44228e-05
0.00011407
7.58638e-05
0.000286732
0.000166099
0.000620505
-0.000898869
0.000218903
-5.13167e-05
-0.000248666
-0.000272194
0.000199366
6.77779e-05
-4.06475e-05
7.63888e-05
-3.5751e-05
0.000153375
-0.000124742
-3.01317e-05
0.000428279
0.000465352
-6.2196e-05
-9.6377e-05
0.000329518
-0.000859162
5.46462e-05
-0.000137872
7.41413e-05
0.000106396
0.00015656
-0.000263726
-0.000946573
0.0010546
-0.000141185
7.47574e-05
2.08603e-05
-0.000406731
3.53423e-05
3.39546e-05
2.01087e-06
0.0018125
-0.000862416
-0.000962053
-0.000834623
-0.000397429
0.000672686
0.000644104
0.000289184
-0.000104869
0.00151292
-0.000464605
-0.00105713
0.000307583
-0.000113637
-0.000194712
0.000261771
1.29123e-05
-0.000275934
-0.00019377
4.73224e-05
-5.17598e-05
-0.00016481
-0.0017231
0.0015216
0.000139716
-0.000113072
-2.64627e-05
-0.00140215
0.00162695
-0.000219723
0.000113396
0.000193579
-0.000857877
0.0022957
0.000189477
-0.000610509
-0.000353497
0.000169939
0.000128885
-0.000363741
-8.90844e-05
-0.000492961
0.00105998
0.000534221
0.000551824
0.000123682
0.000153713
-0.00116864
0.00158007
-0.000431523
8.74063e-06
-0.000288466
0.000279649
0.000885637
0.00019668
0.000526643
0.000277513
0.000478374
-0.000674263
0.000184789
0.00235978
-0.000725285
0.000260511
-8.07662e-05
-0.000179864
0.000108141
3.48672e-05
-0.000143065
-0.00133693
0.00192874
0.00016311
1.9481e-05
-0.000250643
-0.000211862
0.000317168
0.0011897
-0.00202782
0.000804478
5.94317e-05
3.7589e-05
0.000790784
-0.000329282
-6.7773e-05
-3.3092e-05
-0.000666012
-0.000198654
0.000877582
-0.000132474
0.000681246
-0.000551187
0.000211417
-0.000164657
-4.1811e-05
0.000455142
-0.000485888
3.10209e-05
0.00209229
-0.000583128
0.000318178
-0.000204392
-0.000138658
-0.000438989
0.000579528
0.000560621
0.00123985
-0.00016808
6.20093e-06
0.000624024
2.22939e-05
-0.000648204
0.00220679
-0.00113292
-0.00109299
-0.000173979
6.49173e-05
0.000108972
-0.000268439
-0.000577293
-5.59498e-05
-5.35196e-05
-0.000804429
-0.000977137
0.00177991
-0.000248659
0.000226019
2.2749e-05
0.000652985
-0.00103361
0.000364891
-0.000314849
2.36877e-05
0.000290972
-0.000772528
0.000635225
0.00113084
-0.000509384
-0.000624112
0.000333918
0.000793174
0.000136768
0.000116461
-0.000108051
-0.00081934
0.000922771
0.000698137
-0.00115453
0.00022247
-9.9502e-06
0.00220551
-0.000367713
-0.00185087
-0.000944304
0.00181587
-0.000887836
-0.000107507
1.38416e-05
-0.000776522
7.26922e-05
0.00149517
-0.00221989
0.00069885
-0.000187787
-5.49397e-05
-0.000617654
0.000203141
-6.04526e-05
-0.000730405
0.000738702
-0.000107267
0.000200065
-0.000167184
0.000260695
-9.38569e-05
-0.00110933
0.000127468
0.0007092
0.000880977
-0.00163008
-0.00142089
2.89067e-05
-0.000278991
0.000712076
0.000260651
1.37829e-07
-7.46275e-05
8.64764e-05
-1.2401e-05
0.000600737
-0.000755292
0.000153338
1.94208e-05
0.000241131
0.00158915
-0.00251508
0.000899615
-0.000624653
-3.0439e-05
0.000266164
0.000138675
-0.000404941
7.27534e-06
-0.000159622
0.000151546
0.000207802
-7.80244e-05
3.72479e-05
-4.57879e-05
0.000831095
-0.000505853
-0.000360537
6.09978e-05
-0.000432099
0.00142881
-0.000449208
-0.00101761
0.000422241
-2.68156e-05
-0.000924897
0.000519549
0.000471715
-1.64951e-05
-0.000274804
8.47828e-06
0.000864448
-0.000636824
-0.000218897
-0.00070084
-0.000263661
0.000956667
0.000163168
-0.000102611
-0.000543609
-0.000140604
0.000245516
-9.58896e-05
-0.000152641
6.4731e-05
-0.000405574
0.000342199
-8.44646e-05
-0.000230489
-7.32385e-05
-0.000145609
-0.0011986
0.000656869
0.000799361
-8.85041e-05
0.00113607
-0.000451003
0.000157831
0.000230102
0.000103383
-0.000264951
0.000161383
-0.00275943
0.00117971
0.00155306
0.000265942
5.19485e-05
-0.00244188
0.000383928
0.00203783
-0.000147888
0.000193426
-4.60006e-05
-0.000816941
0.00016303
0.000715458
-0.000828733
-0.000656554
0.00117267
-0.000529179
0.000167611
-0.000386404
0.00022009
-0.00133043
0.000658851
-0.000261905
-0.000128941
0.00040162
-0.000521566
0.000119463
-0.000142772
-8.03825e-05
0.000223594
0.000801328
-0.000626907
-0.000172913
0.00125549
0.000932343
0.000100459
-0.000636779
0.000363646
-0.000265873
0.00162463
-0.00139612
-1.79552e-08
-0.000112976
0.00230251
0.00238788
-0.000276518
-0.002126
-0.000453748
0.000285133
-0.000117336
2.32796e-05
0.00189804
0.000701604
-0.0026207
0.000132671
0.00126698
0.000283534
-2.37014e-05
-0.000554582
0.000491976
2.05548e-05
-0.000268935
-0.00042837
0.00032092
0.000107463
-0.000521907
0.000439338
8.24987e-05
-0.000449473
0.000422028
-0.000347284
0.000183988
0.000163254
-0.000187158
0.000136307
5.0855e-05
0.000168473
-0.000161241
-0.000606259
0.00216847
-8.66959e-05
0.000271301
-0.000184675
-0.000311283
-0.000627011
0.000698879
0.000343898
-0.00105309
-0.00165492
0.00132558
1.27275e-05
0.000161491
0.000150618
-0.000293488
-0.000134911
0.00071479
0.000922732
-0.00164848
0.000227158
-0.000145949
-8.16279e-05
0.00126107
-0.00206808
6.1491e-05
0.00089379
0.000185328
5.81883e-05
0.00174006
-0.000219103
-0.00153889
-0.000451228
9.81406e-05
0.000353349
0.00132793
0.0006683
-0.000209421
-0.000187131
0.000100069
-4.07679e-05
-0.00010183
0.000186895
9.15606e-05
-0.000193958
-0.000611359
0.000674883
-6.68609e-05
-0.000120529
-0.000401464
-3.74385e-05
-0.000136703
0.000155573
-8.92661e-06
-0.000146736
-4.86226e-05
-1.86114e-05
6.7057e-05
0.000196378
-5.78588e-05
-0.00015753
-0.000195991
0.000108738
8.59786e-05
8.5146e-05
0.00163727
0.000659948
0.00159036
-0.00227004
-7.56801e-05
-0.000108664
0.000184245
-0.000173603
0.000128416
-1.94718e-05
-7.24021e-05
0.000473181
-0.000421168
-5.56852e-05
6.5434e-05
-0.000178985
0.000113532
-7.59118e-05
2.69578e-05
4.87957e-05
0.00110521
-0.00140029
0.000175044
-7.31899e-05
-0.000102083
0.000503183
-0.00046687
-3.68147e-05
0.000536417
-0.000634059
9.60098e-05
0.000231499
-0.000163143
-6.82788e-05
-0.000521919
-0.00144792
-0.00133667
4.21886e-05
-0.000113314
0.000521014
-0.00105948
0.000297158
0.000496112
0.000144137
-0.000339846
0.000195438
-3.09171e-05
0.000630555
0.000623496
0.00088
0.000435488
-7.92984e-05
-0.000356218
0.000553574
-6.00367e-05
-4.58688e-05
0.000193059
-1.85886e-06
0.000157024
0.000355696
0.00038572
-0.000409141
0.000267034
0.00024268
-0.000148477
9.36119e-05
8.28122e-05
-0.00033614
-0.000250582
0.000585082
0.000259798
-0.00013448
-0.000128219
-0.000466749
3.88729e-05
0.000431939
-0.000201368
-0.000190766
0.000392273
8.78487e-05
0.00016025
-0.000591962
0.000435032
8.61919e-05
3.0443e-05
-0.0001177
-0.000127101
3.51488e-06
8.25748e-05
0.000172192
-0.000210728
3.70163e-05
0.000146019
0.000103783
-0.000247355
-0.000163614
0.000378065
-0.00020993
-0.000677955
0.00118926
-0.000204434
0.000652293
-0.000459246
-3.27573e-05
-4.33112e-05
7.54104e-05
2.47236e-05
0.00180563
-0.000647923
-4.22454e-05
8.6157e-05
0.000119823
-0.000296806
0.000176565
-6.51729e-05
-0.000121563
7.32618e-06
7.25937e-05
6.44993e-05
0.00016689
-0.000342796
4.60074e-05
0.00029889
1.73854e-05
-0.000481539
0.000463557
-0.00216848
0.00112581
0.00100537
-7.63795e-05
0.000114147
-3.78987e-05
6.35064e-05
-9.6658e-05
3.54583e-05
0.00125144
-0.000411079
2.55741e-05
0.00086693
-0.000907091
-0.000132568
-0.000214796
3.87811e-05
0.000432514
0.000260292
0.000121856
-0.000382163
-0.000106352
-1.30317e-05
6.25934e-05
3.00023e-05
-9.26657e-05
-0.000502812
-7.16304e-05
0.000323811
-0.000253329
-0.000312019
0.000148144
-0.000336821
-0.000108385
-6.46454e-07
0.000152823
-0.000152245
-0.000302192
0.00018831
0.000114764
0.00145914
-0.00078707
0.00121554
0.000602239
-0.00183656
-0.000590052
-0.0002156
6.71569e-05
0.000132737
3.53562e-05
-0.000774378
0.0016134
-6.86381e-05
-0.00039107
0.000410038
0.000365804
-0.000483859
-0.000136826
3.01375e-05
9.97171e-05
-0.000175451
-0.000133766
-0.00028177
-0.000217494
0.00050115
2.82707e-05
0.000122819
0.000704455
-0.000319173
0.000170158
5.6784e-05
-9.17718e-05
0.00014746
-5.59152e-05
-0.000205872
-0.00035775
0.000558709
-0.000935464
0.000213127
0.000377102
0.00198904
-0.00192851
0.00202825
-9.83635e-05
-0.00028467
0.000385616
-2.54252e-06
-0.000805888
0.000968797
-0.000182431
0.00191078
-0.00194088
2.80992e-05
-0.00039064
-0.000505844
4.30349e-05
5.46755e-05
0.000160064
-0.00272481
0.00125121
-0.00153779
0.000598134
0.000923218
0.00118168
-3.87173e-05
-0.00115682
-4.83349e-05
0.000133676
0.000673622
-5.17389e-05
-0.000383698
0.000155234
-0.000240786
-0.00014213
-1.86143e-06
0.000143167
-9.7415e-05
0.00015593
0.000713434
-0.000190455
0.000623045
0.00131598
-0.00196625
-8.35222e-05
5.64626e-05
-5.07618e-05
0.000579335
-0.0015378
-7.9742e-05
0.000407987
-0.000322483
-2.74922e-05
0.00019907
0.00103068
-0.000811251
-0.000223566
0.00025044
-9.60742e-05
-0.000200564
0.000556917
-2.21404e-05
0.0004562
-9.6314e-05
-0.000359189
0.000286621
-0.000471125
0.000184228
-1.06795e-05
-0.000132336
0.00157392
-0.000551912
-0.00102456
0.000197788
-0.0001327
0.000658664
-0.00136734
0.000114658
-0.000166702
0.000422603
-0.000150778
2.89409e-06
0.000148172
0.0019123
-0.000608818
-0.000585915
0.0001115
0.000464796
0.00019797
-0.000413804
-4.37733e-05
-3.43833e-05
4.76819e-06
9.95168e-05
8.60994e-05
-0.000167381
-0.000667854
5.40888e-05
-0.00178629
0.000694817
-0.000416229
-0.000592063
0.000994705
-0.00176089
-0.000984271
-0.00105567
0.00104283
1.06699e-05
-0.000748049
0.00221807
0.000152674
6.36335e-06
-0.000625869
1.24453e-05
-0.000163041
0.000396569
-0.000136235
-0.00163169
0.000681555
0.000932859
-0.000217277
0.000170967
9.39596e-05
-3.46861e-05
0.0016945
-0.00109158
-0.000614363
-0.000966752
0.00254743
-0.00158767
-0.000573227
0.000202841
0.000370699
3.61065e-05
-0.000116544
8.21942e-05
-8.76072e-05
6.71443e-05
2.01929e-05
0.000464593
-0.000499097
3.2565e-05
-0.000121026
-0.000115451
6.11526e-05
-0.000168709
-0.000845615
5.02426e-05
0.000139979
0.000746392
1.14426e-05
-0.000766695
0.000192119
-0.000214492
2.28808e-05
-0.000448701
0.00149625
0.000534463
1.75939e-05
0.000283391
-0.000361162
7.80462e-05
9.10276e-05
0.000166501
0.000546553
-0.000101157
-0.000441275
0.000192397
-7.80942e-05
0.000314319
0.000311991
-0.000635216
-6.50487e-05
1.62275e-05
-0.000673241
-6.96126e-05
-0.0010275
0.000205544
4.93216e-05
9.10388e-05
0.000101083
-6.64111e-05
0.000651851
-0.00070251
5.15971e-05
0.000573793
-0.000268112
0.00122597
0.000726642
3.45857e-05
0.00187433
0.000776916
-0.000442568
-1.76613e-06
-0.000115887
-0.000394371
0.000553732
-0.000982681
-9.13377e-05
-0.000316866
0.000127678
-0.00141796
-0.00077908
0.000285588
-0.000519295
0.000487906
-0.000602223
-0.000467969
-7.95565e-05
0.00054818
-0.00229953
0.00107696
0.00119145
-0.000201422
0.000114028
8.64181e-05
-0.000643633
-2.93432e-05
0.000430518
-0.000718727
0.00069084
0.000159616
0.000866465
-0.000206497
-0.000384791
-0.000595765
0.000107377
0.00043504
0.000142632
0.000118007
-0.00026424
-0.00110019
0.000433376
-0.0010072
0.000823828
0.000179609
0.000283928
0.00141149
0.000334639
9.85066e-06
-0.000344557
-0.000350547
0.000415234
-0.000125642
-6.90198e-05
0.000646848
-0.000756318
0.000259786
-0.000172066
-8.87194e-05
0.00010455
0.000548066
-0.000197308
-5.40964e-05
0.00025108
-0.000311784
-0.000198601
0.00104276
0.000505733
-0.00155056
-0.00162851
0.000814436
-0.000804054
0.000557163
0.000254375
-0.000740372
0.000185075
-0.000131695
0.000131125
-0.000770777
6.10993e-05
-0.000474771
0.000600839
-0.000605392
1.13987e-05
-0.000174527
0.000281589
9.87873e-06
0.00058393
-0.000597154
-0.000103084
6.90262e-05
3.39208e-05
0.000816607
-0.000920858
9.98938e-05
0.00198865
-0.000794479
-4.16549e-05
6.92561e-05
-2.77333e-05
-0.000103105
0.000108055
0.000672955
0.00136099
-0.00205841
0.000375997
-0.000453953
9.17477e-05
-9.41148e-05
3.09215e-06
0.000439772
2.76982e-05
0.000112339
3.96463e-05
-0.000127831
0.000100462
1.04808e-05
-0.000868681
0.000879407
3.98175e-05
0.000639012
0.000326581
0.000545738
-0.000302834
0.000203069
-0.000360534
-9.84479e-05
0.000250883
-0.000105816
3.89156e-05
0.000244576
-0.000284932
4.45019e-05
0.000313318
0.000224887
-0.000528995
-0.000931391
0.000897259
4.87788e-05
-5.3172e-05
-0.000476498
0.00047642
-5.59007e-05
0.000163951
-0.000400098
5.74908e-05
-0.00101459
0.00171782
0.000206723
-0.000215631
0.00178525
-0.000750851
-0.00104806
9.84968e-06
8.85302e-05
-0.00106501
0.000311686
-0.000811528
0.00106471
-0.000490838
-0.000514116
0.00111683
-0.00060931
-0.00209463
0.00120701
-0.000239827
0.000613339
-0.000377944
-0.000388659
-2.65039e-05
0.000349984
-0.000303833
-0.000586784
0.000886716
-7.65414e-05
-0.000263905
1.90332e-05
0.000483451
0.000534682
-0.000307656
-0.000226127
-0.000125221
3.32752e-05
1.85977e-05
-0.000154091
-0.00109099
0.000495778
0.000213663
0.000394144
0.000359069
-0.000759368
0.000110697
-9.78952e-05
-1.27377e-05
0.000105389
-2.87344e-05
-7.65093e-05
9.37986e-05
-0.000265632
0.00175414
-0.00259797
0.000825644
3.10097e-05
0.000251625
-0.000637568
-6.41775e-05
-5.52724e-05
-0.00041228
0.000347427
-1.40472e-05
0.000205304
-0.000143896
-6.52402e-05
0.000185186
-0.000375015
0.000189592
2.54362e-05
0.000823078
-0.000855827
-0.000369456
-0.000484805
0.00028542
-4.55767e-05
-0.000240283
-0.000690359
0.000700228
-0.000204714
0.000297943
0.000440057
0.0002085
-0.000648036
-0.000101156
-0.000258444
0.000358486
3.25078e-05
-0.00061714
0.000592219
0.00023879
-4.55991e-05
0.00142242
-0.000871571
-0.000240128
0.000379813
-0.000135145
-0.000106567
-0.000685491
0.000856163
-0.000261704
-0.000892997
0.00119866
0.00144224
-0.00236578
0.000894586
0.000130386
0.000164232
-3.00293e-05
-0.000135081
-5.08656e-05
0.000213729
-0.000162424
-0.000146873
-0.000157456
0.00226632
-0.000525046
0.00209069
-0.000189669
-0.00191698
-0.000385933
-1.27939e-05
0.000190681
0.00142725
-0.00163213
-0.000298386
0.000466419
-0.000155535
-0.00126583
0.000939267
0.000312387
1.3112e-06
0.000481273
-0.000531695
3.7012e-06
-8.01933e-05
0.000309271
0.000392678
-0.000699671
-0.000112038
0.000702004
-0.00076468
-3.61518e-05
0.000756406
0.000381731
-0.000438349
5.12121e-05
0.00117666
-9.50981e-05
-0.00108184
0.000136747
-0.000475819
0.000630673
0.00138555
-0.00201754
0.000325084
-0.00025899
-6.63786e-05
-0.000127975
0.000761352
-0.000634668
1.80234e-05
0.000403765
0.000502722
0.000221198
-8.27548e-05
-0.000135877
-0.000296658
0.000265922
2.37445e-05
0.000175209
-0.000355859
0.000179937
-0.000144021
0.000453373
-1.02431e-05
-0.00117372
0.000110229
0.000158464
-0.000268748
-2.29403e-05
0.000400748
-5.33765e-05
-8.68003e-05
0.000139997
-0.00119205
-8.65552e-05
0.000414785
-0.000148711
0.00103563
-0.000117951
-0.00092263
0.000518022
-0.00064554
-0.000325572
0.000152001
-0.000399276
0.000462729
-7.74107e-05
-1.97907e-05
2.21476e-05
0.00060703
-5.21377e-05
-0.00203476
0.00208583
0.000948318
-0.00221509
0.00125112
-0.00030968
0.000262372
4.666e-05
0.000722941
-0.00172866
0.00146702
-0.00134336
-0.000126809
-0.000718023
0.000517701
0.000193076
-0.00143836
0.000854311
0.000538569
-6.72871e-05
-6.12975e-05
0.000107645
0.000590948
0.00139816
1.82096e-05
9.24843e-05
-0.000471284
-0.000565259
0.00102695
-0.000151412
0.000472534
0.000155071
-0.000300487
3.44595e-05
-7.83136e-05
-0.000676712
0.000936116
-0.00221226
0.00125213
0.00139569
0.00049659
6.5736e-05
0.000258352
-9.07737e-05
9.75622e-05
-5.17202e-06
0.000220305
-0.000201767
-1.87557e-05
0.000795325
0.000775864
0.00056413
-0.000524949
-0.000554996
0.000208517
5.56772e-05
-0.000138661
0.000575315
-0.000411601
-0.000972935
0.000184143
-0.000165582
-1.88221e-05
-0.00167386
0.000695216
-8.9338e-05
0.000154255
-0.000732832
0.00145646
-0.000743379
-0.00196343
0.000796174
0.00115865
0.000118624
5.50424e-05
-0.000173714
-0.00245262
-7.19484e-06
-5.60973e-05
0.00021446
-0.00139158
-0.000686973
0.00205275
0.000362261
-0.000318914
-9.09651e-05
0.000885118
-0.000650677
-0.00046073
0.00113413
-0.000323393
-0.000385841
0.000697361
8.71312e-05
-7.80607e-05
0.000306008
-8.46889e-05
-0.000221073
-0.000659828
-0.00112223
-0.000329176
0.000144814
0.000190202
0.000298579
-0.000564203
0.000267064
-0.00015096
-0.000127388
1.11966e-05
-0.000142259
6.73127e-05
7.47783e-05
-0.000202321
-0.000123182
0.000262296
-0.000763165
0.000165027
0.000613749
0.000288383
-5.38799e-05
-0.000234442
-0.000116487
0.00027772
-0.00050563
0.000220442
0.000478678
-0.000207458
0.000706602
-0.000596195
-0.000117535
0.000415526
-1.47541e-05
-0.000397525
7.88619e-05
-0.000243997
0.000157359
-0.00251652
0.0017176
0.000797453
0.0021163
-0.000985336
-0.00116404
-0.000153551
-0.000763669
-0.000305017
0.000576191
-0.000270297
0.000462905
-0.000284396
-0.000173489
-0.000454217
0.000392828
5.16685e-05
7.73298e-05
-3.00963e-05
-4.75793e-05
-7.49183e-05
4.8545e-05
8.71061e-05
0.000461487
-0.000557044
-0.000126708
-6.45914e-05
0.000188839
-0.000362303
5.22748e-05
0.000306114
0.000525064
-0.000959571
0.000413534
-0.000418634
-0.00117525
9.44402e-05
0.00037889
-0.000686188
0.00156944
-3.00605e-05
-0.00155157
-0.000499449
0.00134343
6.04173e-05
4.51897e-05
0.000174542
-0.000234822
5.48186e-05
-0.000223364
1.15773e-05
0.000211839
2.89077e-05
-0.00137138
0.000143836
-0.000108998
-9.67037e-05
0.000182597
-8.59342e-05
-0.000390208
0.000661711
0.000116157
0.000188434
-0.000304612
-0.000501924
-2.41466e-05
0.000526239
0.000970305
0.00111175
0.000253033
3.16933e-05
0.000248794
-0.000438888
-0.000262378
0.00053328
-7.28954e-05
-0.000725799
0.000104802
2.11111e-05
8.85406e-05
-0.000371247
2.71802e-05
-0.000402183
0.000187562
-0.000426336
0.000727993
-0.000294275
-0.000460796
0.000477996
0.000364963
0.000655945
0.000389478
-0.000179547
-0.000205289
-0.000879353
-0.000513321
0.00139267
-0.000898557
0.000930217
-5.40355e-05
-0.000203929
0.000777932
0.000509375
-0.00132093
0.000157374
-0.00141523
0.00133785
7.25137e-05
0.00039593
5.15506e-05
-0.000112146
0.000217123
0.000100749
-0.000318156
0.00024374
-0.000172204
-7.16851e-05
0.00161922
-0.000578352
-0.000232837
6.53919e-05
0.000215437
2.41413e-05
-0.000239594
0.00154371
0.000792425
0.000174789
-0.000113709
-0.000184508
-0.000239301
-2.23273e-06
0.000217608
-0.000329574
0.000265362
6.41188e-05
3.19158e-05
4.52583e-05
-0.000254295
0.000540353
4.74271e-05
0.000210368
-0.00128418
0.00186725
0.00029496
-0.000207442
0.000111877
0.000243157
-0.000139826
-0.000175135
-0.000138262
0.00140842
-0.000705844
-0.00112458
0.00203593
4.34884e-05
1.79172e-05
-0.000218192
0.000200802
-0.00097323
-0.000513213
0.00148442
-0.000151866
6.78881e-05
8.39105e-05
0.000665001
0.00071713
4.87883e-05
-0.00180562
0.00175434
0.000442062
-0.000270145
-0.000171925
-0.000669994
-6.66953e-06
0.000674355
-0.00110048
-0.00141526
0.00127788
0.000755882
-0.000509143
-0.000254585
-0.000734223
0.000306199
0.000417527
8.42151e-05
0.00045078
0.000477551
0.000799731
-0.00122392
-0.00070109
0.0019189
0.000316344
-0.000735105
0.000229237
7.67826e-05
-8.57895e-05
0.000204329
-0.0005278
2.33061e-05
-0.000124029
-0.000624796
-0.000436293
0.000473954
0.0004165
3.90022e-05
0.000309048
-0.000305647
-3.51575e-06
-5.11388e-05
0.000274271
0.000376563
-0.000649283
-0.000936253
-1.65758e-05
-0.000286893
-0.00139165
0.000641343
-0.000203255
0.000203225
-0.00136012
0.000159224
2.25883e-05
-0.000112839
0.00128171
0.000517174
-0.000495427
-0.000153195
-0.000281549
0.000434828
-0.000154061
9.17004e-05
6.17753e-05
0.000726846
-0.000686115
7.57355e-05
-3.53946e-05
-0.000122864
0.000158444
0.000643677
0.000495266
0.00178523
-0.00229143
4.62335e-05
4.85506e-06
-5.11282e-05
-0.000485335
0.000998028
-0.00103294
0.00196501
-0.000944518
-0.00035251
0.00129741
0.000396726
3.84738e-05
-6.08145e-05
-0.00130637
-0.00102311
3.61268e-05
0.000178862
-0.000214884
-0.000105508
-0.000127207
-4.83537e-05
9.92051e-05
-5.31366e-05
-0.000122226
-1.64506e-05
0.000138019
-0.000241064
5.12278e-05
0.00019345
-0.00134357
0.00112384
6.86955e-05
0.000115569
-0.00018335
-0.00173005
0.00221559
0.00200666
-0.000877171
-0.00116551
-0.00254457
0.0015706
-0.000210149
0.000353998
0.00017309
4.69777e-05
-0.000336935
0.000238919
9.21405e-05
0.000227369
-0.000153264
-0.00208299
0.000666238
2.46624e-06
0.00149629
-0.0005398
0.00048341
4.73962e-05
-0.00214681
0.00209347
-0.000547176
0.00201491
0.000225106
0.000176288
0.000220046
-0.000492112
-0.000782582
0.0007057
7.41459e-05
0.000104622
-0.000230195
0.000125211
-0.000525773
0.00117776
-6.85427e-05
0.00077908
-0.000714481
-0.000383073
-0.00126539
4.18644e-05
7.21985e-05
8.41924e-05
-0.000119605
-0.000102568
-0.000143558
-0.000200125
7.20232e-05
-0.000538176
3.64054e-05
0.000284995
0.000355438
-0.0001873
0.000634685
6.85837e-05
0.000413987
-0.000435958
0.000758402
0.000192387
-0.000958724
-0.000124567
-0.000164164
0.000283505
-0.000420945
0.000436809
-1.56099e-05
-0.000320812
0.000519403
-0.0001979
9.24595e-05
3.77053e-05
-0.000129714
-0.000520088
0.000387377
7.70554e-05
-0.000146349
9.04429e-05
5.50948e-05
-5.52635e-05
0.00034459
0.000828643
0.000586075
0.000148038