/*--------------------------------*- C++ -*----------------------------------*\
| =========                 |                                                 |
| \\      /  F ield         | OpenFOAM: The Open Source CFD Toolbox           |
|  \\    /   O peration     | Version:  v2012                                 |
|   \\  /    A nd           | Website:  www.openfoam.com                      |
|    \\/     M anipulation  |                                                 |
\*---------------------------------------------------------------------------*/
FoamFile
{
    version     2.0;
    format      ascii;
    class       surfaceScalarField;
    location    "50";
    object      phi;
}
// * * * * * * * * * * * * * * * * * * * * * * * * * * * * * * * * * * * * * //

dimensions      [0 3 -1 0 0 0 0];
oriented        oriented;


internalField   nonuniform List<scalar> 
20673
(
-0.158929
0.15889
4.69454e-05
0.36292
-0.306178
-0.0567192
0.0327852
-0.0835753
0.0507903
0.145446
-0.267808
0.12235
-0.364425
-0.113569
0.478015
-0.0250711
0.0026701
0.0224024
0.0606458
-0.0588863
-0.00176031
0.0210341
0.0294054
-0.0504393
0.036725
-0.0651474
0.0284226
-0.0629201
0.151533
-0.0886078
-0.0965303
0.0984887
-0.00195892
0.145058
0.00137765
-0.146436
-0.095404
0.0182331
-0.00209428
-0.016139
0.195154
-0.0267854
-0.168357
0.241912
-0.233408
-0.0084871
-0.0955796
0.293555
-0.197952
0.127031
-0.151465
0.0244363
0.142907
0.00214972
0.337905
0.263607
-0.601476
-0.378324
0.57366
-0.195331
0.0617532
-0.0011075
-0.599151
0.336002
0.263179
0.0738171
-0.0527829
-0.313106
-0.0546352
0.367767
-0.000542481
0.0540243
-0.0534819
-0.108666
0.0734313
0.0352338
-0.0983231
0.0458971
0.0524249
-0.0623872
0.0454754
0.0169124
-0.136182
0.0938814
0.042303
0.153642
-0.158019
0.00438394
0.194275
-0.195895
0.00162978
-0.102965
0.136209
-0.0332435
0.172009
-0.0398093
-0.1322
-0.384769
0.365012
0.0197736
0.0842885
-0.0991101
0.0148217
-0.365196
-0.233923
-0.0125813
-0.0193454
0.0319269
-0.178473
-0.0541688
-0.0320445
0.0012596
0.0307845
-0.580812
0.591159
-0.0102831
0.685203
-0.392097
-0.293105
0.363501
-0.533475
0.169968
-0.0423515
-0.0250262
0.0673767
-0.172447
-0.14653
0.318989
0.0867876
0.0798627
-0.16665
0.138028
-0.0109908
-0.0138805
-0.104077
0.117957
0.00115533
0.00610256
-0.00725729
-0.682364
0.437752
0.244668
0.0368651
-0.156376
0.119542
-0.288281
0.041566
0.246721
-0.000989218
0.0021451
0.0469372
0.125072
0.172668
-0.268225
0.200131
-0.217058
0.016935
-0.105153
0.00862076
0.276687
-0.349509
0.0728496
0.0737239
0.162164
-0.235874
-0.326022
0.153576
-0.0425513
-0.0390164
0.0815689
0.153773
0.209174
0.0182329
-0.165374
0.503313
0.0102832
-0.0353531
-0.0909771
0.0936814
-0.00270346
-0.515381
0.320255
0.257491
-0.362361
-0.0949037
0.0941678
0.000735929
-0.16456
0.174511
-0.00994135
-0.525609
0.161203
-0.0278326
0.0645577
0.00467666
0.0133472
-0.0180237
0.137311
-0.450391
-0.00324056
-0.00722045
0.0104614
-0.0212281
0.13982
-0.118596
-0.0132762
-0.00532557
0.0186019
0.0639122
0.191864
-0.255763
0.0541618
-0.0557149
0.00155244
-0.61247
0.324009
0.288468
-0.328154
0.601769
-0.273597
-0.259392
0.0130012
0.0196028
-0.0326037
0.029132
-0.0417131
-0.00363479
-0.00242492
0.00605997
-0.212106
0.276032
0.367886
0.205869
-0.57373
-0.093487
0.00251056
0.201168
-0.164291
0.511721
-0.148229
-0.0117271
-0.0133228
0.02505
0.118005
-0.0153329
-0.102668
-0.0437428
0.35988
-0.316108
-0.263266
0.0614543
0.201823
-0.0433916
-0.0500948
0.0206519
-0.0361355
0.0154854
0.0811585
-0.114805
0.0336459
0.117851
0.001308
-0.119161
-0.0587666
-0.0385708
0.0973362
0.0559297
-0.0607051
0.00477355
-0.456639
0.558305
-0.101627
0.126805
-0.000426665
-0.126379
0.0243123
-0.0666648
-0.266213
0.0755126
0.190708
-0.479105
0.0845163
0.394621
0.0764461
-0.0625868
-0.0138591
-0.0115057
-0.0551216
0.0666285
0.0878953
-0.101776
0.0929961
0.200586
0.149455
-0.148192
-0.00125604
-0.00654429
-0.000429629
0.00697398
-0.0046793
-0.0273655
-0.102942
0.124942
-0.0220017
0.0729759
0.00347041
-0.272432
0.109715
0.16272
0.0123044
-0.0110753
-0.00122892
-0.365577
0.499126
-0.133513
0.0113248
-0.00761421
-0.00371023
-0.0266523
0.0310374
-0.0043848
-0.0682852
0.163056
-0.0947703
0.502209
0.182994
-0.0871076
-0.00779757
0.00464187
0.0234645
-0.0281065
-0.0488247
-0.0494994
-0.610547
0.123835
0.486764
-0.238649
-0.0246039
0.0918902
0.220622
-0.312488
-0.536198
-0.0742874
-0.489027
0.584007
-0.0949789
0.0233234
0.0271061
-0.0371641
0.010058
-0.0739917
-0.198437
0.151813
-0.298333
0.203731
-0.582053
-0.113202
0.0520623
0.0611398
0.0177245
0.0560928
-0.00610541
-0.152815
0.04987
0.00605892
-0.1174
0.437658
0.108269
-0.176554
-0.0909654
0.104129
-0.0131638
0.446039
-0.184929
-0.261089
-0.224345
0.275983
-0.0516292
-0.0715337
0.0303567
0.0411754
-0.0740826
0.331577
0.0653067
0.00551183
-0.0708185
0.0234151
0.0355585
-0.0589723
0.00924374
-0.297518
0.498717
-0.162375
-0.336324
0.211956
-0.211882
-6.24673e-05
0.144885
0.00380361
-0.148688
0.00206935
0.0102353
0.0232329
-0.10926
0.0860274
-0.0699807
-0.0524511
0.122438
0.214276
-0.201243
-0.0130199
0.0112396
-0.0090607
-0.0021786
-0.165691
0.00114164
0.0269064
-0.0815402
0.0546341
0.00268838
-0.0159643
-0.0696678
-0.0435345
-0.155079
0.216915
-0.0618306
-0.0798738
-0.0143676
0.094241
0.24066
0.360128
-0.600784
0.103791
-0.0226315
-0.12834
0.0253957
0.0309984
-0.0897659
-0.194112
-0.0720939
-0.146933
0.142734
0.00419885
0.125714
0.223312
-0.349
0.0331907
0.0936146
0.151283
-0.133893
-0.0173809
0.0083094
-0.00348
-0.00482932
0.106152
0.001997
-0.108151
-0.016573
0.238573
-0.221979
0.0746147
-0.0621276
-0.0124869
-0.052015
-0.0598353
0.111856
0.0389264
-0.0118198
0.00487769
0.00644753
0.082538
-0.0172312
-0.263688
0.400061
-0.136342
0.0156586
0.102349
-0.00180103
0.155451
0.29828
0.14778
-0.0908259
0.458736
0.187692
-0.0829628
-0.104724
0.0624943
-0.0630367
-0.0391731
0.121434
-0.0822622
0.0147034
-0.00346278
0.139462
-0.144606
0.00514701
-0.0988981
0.0926155
0.00628221
-0.00539609
0.0661964
-0.0608005
0.0126786
-0.0163132
-0.107858
0.0812776
0.0265811
0.626023
-0.280895
-0.345092
-0.0254414
-0.0199492
0.0453891
-0.0981697
-0.0104967
0.632433
-0.632379
-0.297885
0.254169
0.0140819
-0.0819355
0.0678553
-0.0873357
0.079448
0.00788866
0.0216176
0.170135
-0.191756
-0.340745
-0.341577
0.152693
-0.00290651
-0.149789
0.144167
0.000729619
0.0144545
-0.00977775
-0.0641099
0.0913414
-0.0272311
-0.282758
-0.101997
-0.0830191
0.359732
0.00531877
0.112531
0.0201868
0.0561977
-0.0763846
-0.285465
0.0611299
0.0683643
-0.0582447
-0.0101203
-0.0072554
-0.00301542
0.0102709
-0.00214241
-0.0967559
-0.414533
-0.0645409
-0.0548487
0.0355372
0.0193098
0.137166
-0.00272174
-0.134444
0.00231187
-0.00182297
-0.000489491
-0.491035
0.287098
0.203963
0.0606852
-0.103236
-0.393053
0.1294
0.00744004
0.102091
-0.109529
-0.127633
-0.453126
-0.0229312
-0.00858432
0.0315156
0.0746304
-0.0606227
-0.0140074
0.0724275
0.1695
-0.115041
0.0275325
0.0875104
0.0446927
0.169594
-0.450921
0.0364254
0.00790904
0.0763795
0.117124
-0.0109738
-0.0153354
0.154801
-0.0848515
0.0271097
0.0577419
-0.00876365
0.00150825
-0.590089
0.489766
0.100363
0.184476
0.00980594
-0.0342
0.0224731
0.00107548
-0.00130431
0.00022922
-0.306627
0.547302
-0.463369
0.441407
0.0220013
-0.0335762
0.0034557
-0.108227
0.0877191
0.0205073
0.400321
-0.602359
0.202043
-0.0761779
0.0852246
-0.00904713
-0.129795
0.131041
-0.00124432
-0.104159
0.0242855
-0.167721
-0.00291817
0.170646
0.583135
-0.222994
0.143025
-0.005271
-0.137746
-0.0136871
0.0136037
8.34625e-05
-0.282861
0.378228
-0.0953742
0.061326
-0.127372
0.0660489
-0.0315493
-0.0163759
0.0479238
-0.240573
0.332478
-0.286616
-0.0628684
-0.0223009
-0.100231
0.12253
0.00297727
0.0248893
-0.0278671
0.0998519
-0.0766196
0.114424
0.073273
0.00388548
0.19128
0.24059
0.371867
-0.612454
-0.0189439
0.0235859
0.00975214
0.0633799
-0.073132
0.0578785
-0.0855378
0.0276589
-0.381461
-0.0694289
0.00535258
0.00789886
-0.0132515
-0.0213107
0.021003
0.000307563
-0.0447575
0.0716641
0.0584137
-0.00425202
-0.119078
0.0978465
0.254993
0.473348
-0.663093
0.189816
-0.129736
-0.00139269
0.131128
-0.00261134
0.023492
-0.0208806
0.105883
-0.122042
0.0161603
-0.170737
0.244473
-0.0947084
0.0305989
-0.139881
-0.0119818
-0.0931853
-0.4507
0.543884
-0.0907799
0.0809423
0.00983714
0.2559
0.281299
-0.537166
0.0723335
0.00228131
-0.201723
0.223336
-0.0720047
0.472335
0.0708474
0.11682
-0.187654
0.0557904
-0.125764
0.101211
-0.115579
0.0174109
-0.0935888
-0.0147276
0.133202
-0.118465
0.368312
-0.0852719
-0.283037
0.0706679
-0.0881259
0.0174574
-0.0342933
-0.050558
0.0571056
-0.0473527
-0.222751
-0.268254
0.0777636
-0.0205327
-0.057231
-0.483884
0.0156155
0.468274
0.178797
0.189517
-0.473552
0.108012
0.0608377
-0.0374217
-0.0589062
0.5215
-0.462546
-0.0942419
0.101684
-0.169458
0.00174503
-0.266189
0.391928
0.00370731
0.148984
-0.23496
0.0175246
0.217454
-0.0082841
0.00481709
0.00346698
0.0757507
-0.12776
0.111594
-0.126923
-0.276999
-0.102069
0.379084
0.0605846
-0.347175
-0.0037676
0.00421109
-0.00044347
0.0309518
-0.0242862
-0.0066656
0.291007
0.20815
-0.393258
0.626873
-0.233557
-0.0736923
-0.0170893
-0.292919
-0.0597793
0.35273
-0.00751921
0.0208664
0.0962292
-0.373209
-0.0315488
0.00861762
-0.322858
0.248128
0.0747185
0.103637
-0.0222406
-0.0813948
0.204528
-0.138213
-0.0663108
0.0138362
-0.00754717
-0.00628891
0.0517111
-0.206785
-0.00719243
-0.0624754
-0.0517142
0.0149465
0.0367662
0.17596
-0.105098
-0.055661
-0.0525656
-0.0156938
0.0721091
-0.0564134
0.0454528
-0.274342
0.228909
-0.00949894
-0.0249354
0.0344344
-0.0502685
0.0248259
0.000329883
-0.0216407
-0.184268
0.174574
0.00969532
-0.0300655
0.00010565
0.0299596
-0.161342
-0.0470635
0.20841
0.00582447
-0.0177801
0.0119558
-0.0384755
-0.0132398
0.0611009
-0.0891604
0.0280621
0.0912725
-0.0301679
0.0652852
-0.0325001
-0.564148
0.33445
0.229707
0.13441
0.0168815
0.00705222
-0.0135961
-0.186558
0.29438
-0.107808
0.225553
-0.0113773
-0.214158
-0.0251592
0.0230646
-0.0586858
0.0727698
-0.219011
-0.0406556
0.259691
-0.0735156
0.0681184
-0.0313435
-0.0310437
-0.601782
0.326934
0.274895
-0.0310208
0.00436884
-0.100643
0.0278465
0.0727963
-0.266465
0.5224
0.506244
-0.361632
-0.144574
0.109413
-0.593299
0.23668
0.262053
-0.0168733
0.0875412
-0.05646
0.0769992
-0.0205392
-0.0423376
0.0280792
0.0142559
-0.00936048
0.00559328
-0.376793
0.00113432
0.375688
-0.0488602
0.110188
-0.00881088
0.00926849
-0.000457503
0.115727
-0.155424
0.0396987
0.0094773
-0.0307683
0.0281571
0.0120437
0.208049
-0.477574
0.269558
0.0873195
-0.0294418
0.317907
-0.493886
0.176015
-0.0297486
0.0904334
-0.13606
-0.189965
0.0117024
0.00213389
-0.0214042
-0.10839
0.175111
0.0836319
-0.258751
0.460228
-0.573335
0.11312
0.12868
-0.123362
-0.0802273
0.0958878
0.112224
-0.118924
0.00670199
-0.015157
-0.0347747
0.0499303
0.00924168
-0.00341718
0.00277741
-0.00046784
0.0159455
0.127086
0.0498829
-0.112799
0.0154493
-0.478784
0.0024295
-0.00135375
-0.0451507
-0.0113789
0.0565297
-0.0201911
0.283447
-0.263227
0.076974
-0.0841664
-0.30052
0.500439
-0.199896
0.0374458
0.063506
-0.100951
-0.096473
-0.226396
-0.31649
-0.247646
-0.285636
0.101847
0.183801
-0.0434288
-0.00782865
0.0512587
-0.0680502
-0.217573
-0.0341549
0.0371352
-0.00242311
-0.00168617
0.00410976
0.0771518
-0.0790896
0.00193796
0.020889
-0.0402876
0.0193976
-0.218751
0.264223
-0.0351909
-0.0196588
0.0358345
0.590145
-0.246916
-0.34319
-0.0701898
-0.295436
0.108895
0.209011
-0.339063
0.130069
-0.0636235
-0.0725556
-0.366638
0.607236
-0.396491
0.459444
-0.0629305
0.388291
-0.0703561
0.0773561
-0.0942287
-0.332367
-0.280098
-0.0279434
-0.00212253
0.0021162
0.0539576
-0.0560737
0.00363729
0.00293273
-0.00656995
-0.0690173
-0.0388392
-0.00888952
-0.0282653
0.0371548
3.76722e-05
-0.00234564
0.00230819
0.155834
-0.0401058
-0.472142
0.0953778
0.102822
0.00793273
-0.110754
-0.256665
0.0781849
0.195494
-0.192791
-0.00269246
0.229031
0.397023
0.0260781
0.0634841
-0.0432975
-0.0695395
0.0716554
-0.1915
0.201186
-0.0096732
0.0971176
0.0275366
-0.124652
-0.171361
-0.0129038
-0.250074
0.195898
0.00138469
0.110841
0.183136
-0.238299
0.0551809
-0.0726909
0.0815132
-0.00882281
-0.179348
0.272369
-0.439301
0.380431
0.0176896
-0.0252087
0.0339525
0.00497421
0.0405256
-0.00657257
0.0514505
0.0772334
-0.12868
0.00687574
-0.00323836
0.0331748
-0.0426736
-0.00852686
0.0191263
-0.0105996
-0.0186501
-0.0018078
0.020458
0.145752
0.365117
-0.510858
-0.120294
-0.00144998
0.121744
0.222185
-0.0390319
0.343172
-0.268349
-0.0748014
-0.0986731
0.0296192
0.0690542
0.00829424
0.480975
-0.534417
0.0533944
0.00466571
-0.123601
0.118938
-0.00218693
-0.141699
0.143886
-0.0242039
0.0159637
0.00824043
0.3429
0.247275
0.11042
-0.00765076
-0.102769
0.000149659
-0.00713944
0.00699028
0.0906377
-0.00635568
-0.0842807
0.00112224
-0.0282059
0.0270837
0.241298
-0.24566
0.225495
0.521662
0.110815
-0.150761
-0.0149208
0.507083
-0.299
-0.0565308
-0.00830981
0.0648409
-0.0311526
-0.0111825
-0.157261
0.142544
-0.00185516
0.00525904
-0.00340384
0.015222
0.184916
0.0923214
0.0114701
-0.0260604
0.0175335
-0.013241
0.0488
-0.00772315
0.0848747
-0.0075172
-0.0834479
0.0955373
0.0148805
0.120432
-0.135922
0.0154908
0.0742264
0.0321057
-0.106333
-0.161605
0.168442
-0.00684113
0.0893946
-0.101817
0.0124219
0.023285
-0.13203
-0.0116121
0.14364
0.0962416
0.00422137
-0.100463
-0.528758
0.542795
-0.0140138
0.0911408
-0.0213209
-0.0698207
0.208233
-0.0191937
-0.189035
-0.424207
0.300822
0.123382
-0.151784
0.00103486
-0.257803
0.173937
0.0838811
-0.00484605
-0.0193577
0.0282186
0.0447573
0.0830067
-0.375896
-0.51429
0.421102
-0.0607377
-0.00717414
0.0679121
-0.000321714
0.000359667
0.594394
-0.222517
-0.0257835
0.0269057
-0.304411
0.224049
0.0803602
0.118549
-0.0827419
-0.0358052
0.0154075
0.318767
-0.33414
-0.0117402
0.00671539
0.00502494
0.0569389
-0.0849145
0.0279776
0.0325456
0.179421
0.300902
-0.193352
-0.107534
0.0378366
-0.0467261
-0.110266
0.0710935
-0.0119614
0.0118724
8.90603e-05
0.240144
-0.60678
-0.00258096
0.0118447
-0.00926368
-0.00340601
0.101037
-0.021264
-0.0797737
-0.349972
-0.0742366
-0.000551836
-0.00187293
0.0748055
-0.0328491
-0.0419567
-0.123202
0.15666
-0.0334587
0.122148
0.384131
-0.221134
0.260563
-0.0394108
-0.131794
-0.0527508
0.0901974
-0.0431478
0.524072
-0.516227
0.154636
0.651577
-0.439235
-0.212298
0.408247
0.243374
-0.00281371
0.00816658
-0.0441852
-0.0544875
0.0326329
-0.0898829
0.112751
-0.0228672
0.573719
-0.100312
-0.050244
-0.406364
-0.0128811
0.11
-0.0612699
0.0286204
0.0326495
0.147065
-0.157094
0.0100336
-0.107944
0.331288
0.451103
-0.242069
-0.282625
-0.0951329
0.377762
0.0273424
-0.00902855
0.0217073
0.396605
0.16678
-0.563364
-0.269883
-0.138522
0.408416
0.0146279
-0.0207101
-0.140898
0.0980707
0.106461
0.0524817
-0.298114
-0.137959
0.25454
-0.116566
0.171082
-0.215908
0.0448412
-0.00482981
0.101072
0.056164
-0.0718557
0.0315512
0.0884716
0.0143511
-0.136425
0.0568143
0.0796118
0.0187644
0.0725774
-0.00292148
0.114519
0.451355
-0.295967
-0.15536
-0.0108112
-0.0028759
-0.452477
0.244136
-0.0185673
0.241985
0.0071244
-0.249105
0.0685708
0.02257
0.0716865
0.0283261
-0.100008
-0.0150204
0.400033
-0.384974
-0.0105996
0.101239
0.0957584
-0.129439
0.0336849
-0.00257096
-0.000179625
0.00275086
-0.0761498
-0.0602745
-0.00640075
0.0969129
-0.0905094
0.134707
-0.136893
0.32385
0.13639
0.0934753
-0.0363695
0.0930389
-0.0532475
0.0460979
0.00714922
0.159826
-0.339144
-0.144228
0.17904
-0.034803
0.099866
0.0128869
-0.00780743
-0.0229608
-0.0030902
0.00308982
0.110603
-0.109294
-0.0529175
0.10437
-0.0264493
-0.206943
0.19782
-0.218371
0.0205651
-0.204941
0.257444
-0.0665098
-0.0233259
0.0898381
-0.0472222
0.0190652
0.137711
-0.000544014
0.0183196
-0.0422253
-0.0110223
-0.0028314
-0.00913005
0.030129
-0.219164
0.189052
-0.00717427
0.0994963
0.0814962
-0.0245591
0.0733037
0.0984338
-0.171725
-0.28672
0.0779948
0.208733
-0.0254402
0.000512246
0.0249277
0.0872818
-0.0602098
-0.0270714
-0.0769583
0.0613113
0.0156469
-0.0448548
-0.0546074
0.0994624
-0.536366
0.0473446
-0.0259224
-0.00509808
0.00802138
-0.467923
0.452953
0.172146
-0.177465
0.00532716
-0.00744121
-0.104269
0.111712
-0.122022
0.0190567
-0.0230116
0.116897
0.0597903
-0.0110742
-0.0487164
0.100718
-0.0264919
-0.0202139
0.182714
-0.162504
0.0429345
0.050541
0.256697
-0.197173
-0.0595135
-0.0201685
0.00151863
0.268962
-0.575581
-0.0127848
0.409407
0.0659023
0.0118606
0.0642277
0.0230513
0.0272662
-0.00145739
-0.0258092
0.0892958
0.167412
0.249155
-0.265705
-0.448449
0.178577
0.00207057
-0.141956
0.00286247
0.111271
-0.0802746
0.211714
-0.0138815
0.0958301
-0.103554
0.125958
-0.255922
0.271356
-0.0564718
-0.0585677
0.108748
0.00252168
-0.0745675
0.0712768
0.00328998
-0.0413972
0.356475
-0.315046
-0.0732199
-0.02566
0.0988804
-0.0659246
-0.0141648
0.0117421
0.0408481
0.110689
0.106891
-0.0351995
-0.180093
0.0358698
-0.258111
0.537462
-0.279304
0.29039
0.082162
-0.372548
-0.0835989
0.304253
-0.0779591
-0.0186488
0.0966117
0.152789
-0.0660015
-0.0575427
0.0952162
-0.0376734
-0.0360277
0.0208708
-0.129629
-0.0173046
-0.224163
-0.377574
0.0210378
-0.0801133
0.0590771
0.0222107
0.0050551
-0.0932208
0.0806039
0.0126164
0.0550267
-0.337893
-0.185291
0.145004
0.0402892
-0.116694
-0.399494
-0.152164
-0.0410122
0.193171
-0.0440958
0.20627
0.0163455
0.0584597
-0.290751
0.614771
-0.0598023
0.180096
-0.00239106
-0.177711
0.0808731
0.0176152
0.141504
-0.06648
-0.0750209
-0.00954014
-0.00679484
0.0163351
-0.0299134
-0.079952
0.10987
0.0393784
-0.26049
-0.0191798
0.0245706
-0.00539069
-0.00126234
-0.00182804
0.349826
-0.269337
-0.0804596
0.214343
0.0276422
0.0940472
-0.0688688
-0.0251793
0.071257
-0.116107
0.107885
-0.00200059
-0.348998
-0.242135
0.591148
0.039249
0.261668
-0.102386
0.0801477
0.234111
-0.0590067
-0.100391
-0.0185298
-0.140482
0.11818
0.382649
-0.0922606
-0.136388
0.141109
-0.0047185
-0.0564657
0.392075
-0.170908
-0.221175
-0.257993
-0.0307707
0.28875
0.674168
-0.393303
-0.280816
0.0210172
0.00993472
-0.418808
0.622541
-0.194371
0.00288422
0.000677864
0.00763162
0.000228047
0.203686
-0.2039
0.0755447
-0.0113213
-0.0168166
-0.184414
0.0713737
0.0648347
0.234975
0.125283
-0.0150143
-0.110261
-0.0951035
-0.378417
0.134848
-0.0135622
-0.121284
0.326411
-0.586858
0.260505
0.113137
-0.0930783
-0.0200547
-0.210856
-0.0935576
-0.0410138
0.0411642
0.0455668
-0.0417706
-0.00379705
-0.0237465
-0.0375233
-0.560629
-0.0716931
-0.238871
0.115979
-0.118897
-0.146547
0.152395
-0.00584287
0.00528351
-0.0254916
0.0202081
0.0599248
-0.0530137
-0.00691062
-0.129462
-0.0220014
-0.336289
-0.00738623
0.343696
0.0967469
-0.0193905
-0.0215
0.0200424
-0.0815453
0.00697698
0.0461453
-0.103687
0.130924
0.00383109
-0.134756
-0.0517493
-0.00373198
0.0554817
-0.160865
0.139169
0.0217048
0.154943
-0.16693
-0.00336275
0.0870649
-0.0837014
-0.0710083
-0.0109256
-0.137328
0.00786582
-0.00605355
0.0181964
-0.0121431
0.140856
-0.140651
-0.000204203
-0.271036
0.0775569
0.193472
0.0907013
-0.098144
0.0605926
0.115379
-0.397933
0.314057
0.0838742
-0.176759
0.0245851
0.00483853
0.144624
-0.158999
-0.0528706
-0.384866
-0.0367494
0.421647
0.180514
0.1386
-0.0153925
-0.123207
-0.0574358
0.233799
-0.176362
-0.127511
0.0271218
0.00461432
-0.340888
-0.230207
0.463351
-0.233125
0.130372
-0.549178
0.211054
-0.164208
-0.0468326
0.220377
0.221948
-0.442343
0.0354001
0.175376
-0.210762
0.627153
-0.284562
-0.342546
-0.0116238
-0.000116324
-0.142332
0.138382
0.00394864
0.0390153
-0.0430269
0.239524
-0.516082
0.276599
-0.351886
-0.208286
0.560179
-0.043353
0.086719
-0.0433658
0.14153
-0.0210961
0.247172
-0.200137
-0.0470317
0.0509434
0.0298354
-0.0807782
0.13373
-0.0484438
-0.0852806
-0.0917712
0.0620232
0.0033295
0.0857009
-0.113956
0.0282584
-0.0822439
0.252964
-0.170719
-0.631387
0.0200844
0.611306
0.599997
-0.1917
-0.252457
0.0175105
0.0113044
-0.0118279
0.000523516
-0.603752
0.251872
-0.0836227
0.019507
0.064116
-0.11654
0.151951
-0.00140403
-0.00740677
0.100384
-0.134989
0.0346095
0.101514
0.0322219
-0.00851787
0.0893934
-0.436009
0.0989295
0.337094
0.280056
0.316957
0.000575256
-0.429515
0.28045
0.149074
-0.30216
0.0896754
0.212501
-0.0556742
-0.0285097
0.0841845
0.245035
-0.00644547
0.0986916
0.448341
-0.547018
5.59372e-05
0.166497
-0.166545
-0.0559313
-0.419842
0.475816
0.323708
-0.472378
0.148679
-0.163339
0.00560043
-0.0157191
0.0210026
0.165952
-0.167083
0.00113976
0.245051
0.147017
0.464679
0.126545
0.027971
-0.0357784
0.0133168
0.326017
-0.092169
-0.233823
-0.11456
0.274407
0.0826557
-0.0317117
-0.0748162
0.0898288
-0.015013
-0.00434024
-0.000147642
0.00448805
-0.117242
0.110844
-0.047744
-0.223297
-0.233195
-0.356856
0.503349
-0.179635
0.0068298
-0.138863
-0.00349865
0.0164502
-0.0815724
0.0651219
0.0584261
0.116149
-0.0387935
0.0138581
-0.279471
0.0789386
0.200551
0.0435157
-0.218584
0.175077
0.00409977
-0.00584144
0.00174171
0.149928
-0.450425
0.00629321
0.201948
0.277917
-0.353705
0.075816
0.33658
0.260773
-0.597312
-0.00479644
-0.143387
0.0898656
0.0113446
0.20465
-0.268966
0.0643296
0.0699945
0.00554925
0.0015386
0.0276702
-0.029209
0.0388393
0.228628
-0.30848
-0.116259
0.424731
-0.0895197
-0.00728417
0.096803
-0.064858
-0.326955
0.567107
-0.0717088
0.0895173
-0.0178084
-0.432629
0.124143
-0.153174
-0.274905
0.358417
-0.0835246
0.43016
-0.148948
-0.28121
-0.0969356
-0.242162
-0.0962427
0.338414
0.0268199
-0.091998
0.13147
0.0462934
-0.177757
0.398314
-0.586602
0.188289
0.373014
-0.500716
0.127705
-0.00880834
-0.272108
0.280923
0.0236764
-0.31696
0.293315
-0.329036
0.0710302
-0.0304715
0.0398252
-0.0093545
0.285242
0.0482522
-0.333498
-0.104212
0.394129
-0.289907
0.0581493
-0.0140114
-0.0441382
-0.0512124
0.0567244
-0.144557
0.124342
-0.148341
0.00341629
-0.113125
0.109709
-0.0440233
-0.163429
0.207461
0.466307
-0.156858
-0.309427
0.127259
-0.0473957
0.0118737
0.107097
0.00604305
0.272216
-0.482747
0.210547
-0.296061
0.102732
-0.00532423
0.0652493
-0.0534651
-0.075368
0.128834
0.006152
-0.0153627
0.00921094
0.528691
0.173182
0.00253279
-0.0268189
-0.175243
0.145487
0.0297528
-0.269104
0.0570135
0.0134034
-0.0129898
-0.000413497
-0.0146362
0.0107054
0.00393087
0.349977
-0.326267
0.0907406
-0.0941022
0.492178
0.10786
-0.332731
0.0905779
0.428906
-0.189351
-0.00615919
0.0140582
0.467414
-0.247057
-0.321766
0.281402
-0.058702
-0.263535
0.0707742
0.192754
0.0396015
0.0789501
-0.0940123
0.0410435
0.300788
0.0706971
-0.371487
0.102964
-0.120425
0.0174606
0.3723
0.167842
-0.540118
-0.00320829
0.503851
-0.483842
-0.0199754
0.340265
0.36015
0.220182
-0.580319
0.00309532
0.458854
0.0274979
-0.0249729
0.0313182
-0.00634547
0.0173686
-0.0732772
0.0559086
-0.00783923
-0.177451
-0.0362459
-0.064397
-0.00495859
0.00498806
-2.95192e-05
-0.285078
0.345688
0.000603838
-0.0265261
-0.0667197
0.0277027
-0.00389282
-0.00106573
0.00287749
0.03082
-0.0336974
0.012179
0.0459701
-0.0226487
0.0200783
-0.0669103
0.0879477
0.183598
0.0769847
0.00407489
-0.143776
-0.0314679
0.00742118
-0.052572
-0.405405
0.0554343
0.0836664
0.27624
0.279844
0.0461989
0.539107
0.160558
-0.220876
0.0603235
0.125782
-0.143032
0.0172526
-0.0174528
0.0256206
-0.00816776
0.366306
-0.282614
0.425313
-0.182832
-0.242469
-0.00213881
0.00994153
-0.0078027
0.0172827
-0.0783794
0.061099
-0.266074
0.257269
0.0145262
0.0138275
-0.164691
0.15087
-0.064895
-0.206056
0.270964
0.0253874
0.0201792
0.0852811
-0.0707548
0.166684
-0.207644
0.0409663
-0.160551
-0.102991
0.0271779
-0.0256393
0.0053331
-0.00123325
0.00783192
-0.0154455
-0.356971
0.0820537
-0.0741399
-0.0361246
-0.015725
0.111486
-0.00415557
-0.00184102
0.00599681
-0.0659464
-0.118055
0.116904
0.00114941
0.259019
0.168658
-0.250897
-0.0684752
-0.21098
-0.504974
-0.113394
0.0731078
0.509027
-0.363268
0.166962
0.00413258
-0.0665524
-0.0943076
0.00726348
-0.00582888
-0.00143468
-0.120368
0.0316251
0.0887424
-0.0933139
-0.228464
0.113239
0.02059
-0.0136675
-0.00692276
0.154102
0.324707
-0.251386
-0.0733083
0.0141295
0.00033321
-0.0144626
-0.355241
0.0890756
-0.299559
-0.00258385
0.0796917
-0.106148
0.0264555
0.0148597
-0.0167146
0.482457
0.302567
-0.343934
-0.0534233
0.0650804
-0.0116573
-0.0948021
0.0585567
-0.0240016
0.0816882
-0.0576872
-0.125787
0.0353113
0.0904759
-0.0384827
-0.0606276
-0.487278
0.177401
0.309903
-0.0942609
0.0894238
0.00483766
0.179102
0.145616
0.0087663
0.359188
-0.367918
-0.0702067
-0.216504
-0.0732887
0.016758
-0.000978955
-0.00336111
-0.362695
0.0850418
0.27766
0.496223
-0.12321
-0.065435
0.343381
0.0192304
0.0579921
-0.168878
-0.0114898
0.180376
-0.227481
-0.202024
-0.297309
0.0783244
-0.00578908
0.357173
-0.0563883
-0.00107409
-0.0642441
-0.0239063
0.0881527
-0.0344963
-0.00705156
0.0415482
-0.320792
0.0802381
0.116636
-0.0342075
-0.0824241
0.183208
-0.153062
0.0144663
-0.0077508
0.0178055
0.00278451
-0.00261843
0.00218881
-0.109577
0.112995
-0.00031623
-0.0143199
0.463966
0.00546117
-0.0488894
-0.462784
0.480329
-0.0758501
-0.141201
0.159102
-0.154074
-0.00501993
-0.068972
-0.0682174
0.00748001
0.0491268
0.0245143
-0.0736414
0.0912822
0.0120041
-0.103287
-0.0226558
0.0788289
-0.0561729
-0.285109
-0.275071
0.560229
-0.0506317
0.0904198
-0.0397874
0.10189
0.328271
-0.0894382
0.15004
0.0600296
-0.0502745
-0.00975515
0.234544
0.108648
0.179143
-0.641916
0.219937
-0.259615
0.0396962
0.10601
-0.251902
0.145907
0.0077087
-0.000445182
0.463904
-0.0992178
-0.364672
0.51348
-0.177445
0.00778638
-0.0281908
0.127737
-0.0995411
0.138493
-0.135546
-0.00294718
-0.0263127
0.00481294
-0.098445
-0.00376424
0.102207
0.0118309
0.00058135
-0.0124122
-0.00495449
-0.124625
0.104519
-0.157981
0.00202875
-0.0209877
-0.165268
0.0186262
0.06865
-0.0872759
-0.00112996
0.0551543
0.197748
-0.008598
-0.189152
-0.302797
-0.0553573
0.358148
0.00155908
0.0371446
-0.0387026
-0.0324195
-0.252791
0.262042
-0.132901
0.0374983
0.0954034
0.146455
0.000611208
-0.336447
0.115783
0.220658
-0.0218571
0.182423
-0.135382
0.241403
0.153004
0.284335
0.312676
0.129342
0.00158627
-0.0201357
0.0504911
-0.3717
0.130984
-0.114752
-0.0162276
0.103741
0.209294
-0.313023
0.106003
-0.0902574
-0.0157409
-0.251804
0.578273
0.155206
0.00491666
-0.125207
-0.222745
0.165312
0.312539
-0.0766821
-0.235854
-0.294974
-0.0677144
0.033714
-0.0354319
0.00171684
-0.0773504
-0.0378864
0.115241
-0.0294499
0.074129
-0.0446795
0.26802
0.191441
-0.322501
0.259824
0.0626971
0.00896996
-0.275224
-0.0784521
0.0245868
0.102936
-0.12752
-0.119517
0.042171
-0.227852
-0.1086
0.0292467
0.101796
-0.257657
0.361406
-0.0256027
0.0811345
-0.055531
-0.287711
0.0349272
0.000765273
0.181944
-0.0203016
-0.00485786
-0.0669238
0.0906266
-0.0237022
-0.0871766
0.397574
-0.310362
-0.224745
0.184055
0.0407074
0.00360838
-0.0285812
0.353591
-0.344793
0.472528
-0.114279
-0.358211
-0.00405209
-0.00010333
0.0126832
-0.0188423
0.0217107
-0.19307
-0.00538279
-0.0854991
0.0908805
0.545349
-0.281707
0.227271
-0.0107943
0.230101
-0.212557
-0.352951
-0.0830438
-0.0835045
0.019439
0.0640659
0.302252
-0.279397
-0.022848
0.0183183
0.0604629
-0.0787811
0.200152
0.401632
-0.44214
0.0892074
-0.292239
0.200092
0.00189445
-0.100341
0.0309447
0.0038566
-0.034801
-0.227345
-0.0680748
-0.00889852
-0.229585
0.238504
-0.344886
-0.142363
0.190351
-0.186455
0.483165
-0.146548
0.0161567
0.123649
-0.118981
-0.58499
0.258036
0.0202362
0.056763
0.116336
-0.0845575
0.0339261
0.039589
-0.00641409
-0.0191629
-0.00627762
0.388733
-0.303685
-0.298533
0.0471587
-0.261789
0.333501
-0.0716843
-0.013496
-0.171752
0.144976
0.000543569
0.0322718
-0.0328152
-0.000966196
-0.00374607
0.00471224
0.225895
-0.174177
0.00660611
0.0037738
-0.0109941
-0.13188
0.137258
-0.00537468
-0.0918537
0.0864697
-0.111883
0.0819746
-0.00670996
-0.0120195
0.105046
0.000959776
0.0211814
0.0590421
-0.0802228
0.0383884
-0.00925635
0.125232
0.00572698
-0.130963
0.174751
0.0197247
-0.0323573
0.0782537
-0.394097
-0.0113087
0.208613
-0.133095
0.0788155
-0.0601888
-0.128113
0.1351
-0.00697825
0.36905
-0.286014
0.117266
0.00802301
-0.0863201
0.110909
-0.0136368
0.0228173
-0.000352018
-0.0224652
0.216076
-0.0114919
-0.204566
-0.07651
0.0538555
0.0294972
0.123363
-0.152865
-0.0132687
0.0834098
-0.0701416
-0.042923
-0.0513751
0.0942999
0.115453
-0.0758519
-0.156952
0.170788
-0.361859
0.208525
0.0681591
0.302896
-0.430953
0.128086
-0.0362964
0.202987
-0.502808
-0.0259237
0.186505
-0.364182
0.10587
0.258337
-0.00456234
0.11204
-0.107474
-0.0111357
0.100531
0.0122944
0.00164617
-0.0139405
0.082962
0.0210256
-0.103986
-0.0393355
-0.0546764
-0.0619825
-0.00755747
0.0734489
0.261978
-0.35821
0.0962546
0.00491518
0.00591401
-0.0618108
0.0558968
0.319139
-0.388831
0.0697098
0.355872
-0.149318
-0.00354024
0.152864
0.00110393
0.0102006
0.333831
-0.593907
0.260083
0.122749
-0.0115957
-0.111152
0.0757273
-0.0115479
-0.0641776
0.109034
-0.148187
0.0391611
0.37119
-0.272714
-0.098462
-0.278481
0.222321
0.056156
-0.180573
0.317201
-0.136624
-0.0769688
-0.0559308
-0.147349
0.0949051
0.233891
6.41817e-05
-0.0410773
0.0568467
-0.0446388
-0.0122073
-0.121717
0.116453
-0.0873235
0.015615
-0.019727
0.144956
0.0880252
-0.0862116
-0.00181232
-0.215173
0.215416
-0.194254
0.150239
0.00904316
0.059467
-0.0685102
-0.0588933
0.0857456
-0.0268522
-0.000932369
-0.0080574
0.0231433
-0.038998
-0.592388
-0.406873
0.306769
0.100111
-0.153084
0.306883
0.343318
-0.0645344
-0.278768
0.1237
0.152289
-0.0656257
-0.0647762
0.130409
0.367781
-0.0706524
-0.297097
0.00213152
0.0916504
-0.0937815
-0.501308
0.445422
-0.156888
-0.296044
0.127814
-0.0262949
-0.0024073
0.0982368
-0.0625343
0.083717
-0.35203
0.0669779
0.0413131
-0.167761
-0.239106
0.00998769
0.0577851
-0.0677728
0.277534
0.222925
-0.181585
0.141776
0.458701
-0.186466
0.01523
0.0713957
-0.0866264
0.0049262
0.0608427
-0.0994147
0.280635
-0.0672501
-0.0531176
0.354868
-0.136946
-0.217898
0.148443
-0.0215114
0.0147166
0.23402
0.0958334
-0.329839
0.201886
-0.272084
-0.135323
0.107137
0.166993
0.00516266
0.00683528
0.285854
0.121681
-0.172436
0.0507638
0.242133
-0.272915
0.115901
-0.500735
0.133847
-0.00806382
-0.103652
-0.162032
-0.216676
-0.235122
0.451824
-0.16836
-0.0392764
0.00535673
0.00824696
-0.201497
-0.00529964
0.206811
-0.0615911
0.0780417
-0.0567221
0.00352727
-0.00398595
0.0349316
-0.213118
0.0116346
-0.447499
0.230851
0.0423944
0.130572
-0.172958
-0.00525241
0.000469542
0.00478287
-0.202684
0.280233