/*--------------------------------*- C++ -*----------------------------------*\
| =========                 |                                                 |
| \\      /  F ield         | OpenFOAM: The Open Source CFD Toolbox           |
|  \\    /   O peration     | Version:  v2012                                 |
|   \\  /    A nd           | Website:  www.openfoam.com                      |
|    \\/     M anipulation  |                                                 |
\*---------------------------------------------------------------------------*/
FoamFile
{
    version     2.0;
    format      ascii;
    class       volScalarField::Internal;
    location    "750";
    object      V0;
}
// * * * * * * * * * * * * * * * * * * * * * * * * * * * * * * * * * * * * * //

dimensions      [0 3 0 0 0 0 0];


value           nonuniform List<scalar> 
13851
(
0.0940611
0.0504192
0.0155639
0.0944785
0.0129778
0.0875326
0.0778175
0.0210363
0.167738
0.023471
0.173424
0.0181078
0.00515964
0.00650752
0.170309
0.0353616
0.0448818
0.0597225
0.00830141
0.167905
0.107528
0.0171657
0.165528
0.188349
0.158104
0.0242123
0.0320394
0.000977087
0.0919225
0.0645182
0.0859755
0.0426494
0.0191509
0.105221
0.207024
0.00543636
0.00435398
0.0113872
0.0197181
0.134599
0.102568
0.171106
0.00131296
0.162879
0.15946
0.00298146
0.155614
0.111603
0.0305221
0.145974
0.011387
0.00694803
0.00138414
0.151227
0.174684
0.169872
0.170131
0.00213054
0.0750221
0.0767703
0.0127816
0.00547472
0.066615
0.00945749
0.0428511
0.0827948
0.00345047
0.165867
0.0217091
0.0627017
0.0012858
0.00339918
0.0478841
0.172035
0.173239
0.119972
0.0114871
0.00167433
0.0166297
0.00138125
0.0741713
0.166364
0.123046
0.00268412
0.0626386
0.0167002
0.0890982
0.0272534
0.03938
0.183621
0.00531005
0.109596
0.128873
0.0251959
0.0419037
0.156277
0.0123181
0.00301774
0.125819
0.18531
0.00377265
0.0149743
0.0803539
0.029435
0.163095
0.0944754
0.0134059
0.183614
0.00290803
0.0846022
0.158403
0.185999
0.107438
0.195593
0.163569
0.0680414
0.00391268
0.135188
0.173324
0.155125
0.00135505
0.0365809
0.00520447
0.107884
0.103367
0.176012
0.10697
0.0132599
0.0904931
0.00807471
0.115113
0.162862
0.00133595
0.128502
0.0698766
0.167374
0.166289
0.00335124
0.00675016
0.010182
0.00336257
0.189743
0.137647
0.162639
0.0540258
0.157119
0.186975
0.0107914
0.0921599
0.160272
0.00850139
0.168236
0.00520905
0.150329
0.0391751
0.0608012
0.124025
0.0601234
0.00697112
0.0120816
0.1731
0.0200862
0.00166481
0.146846
0.0643788
0.17
0.197718
0.0206312
0.0918004
0.00299119
0.00136747
0.145163
0.120648
0.00907711
0.151476
0.105171
0.0172053
0.106658
0.00791925
0.180935
0.0357201
0.00313958
0.114608
0.0120861
0.170555
0.165692
0.0796324
0.156472
0.0120272
0.0290204
0.149807
0.00151249
0.153817
0.0190263
0.00684007
0.0489941
0.136459
0.132558
0.127334
0.120044
0.17527
0.00385045
0.170098
0.114746
0.0240746
0.116642
0.00926365
0.041228
0.00193585
0.178709
0.00251
0.0936522
0.139079
0.192687
0.178778
0.164917
0.0675362
0.00281627
0.128298
0.00193045
0.033189
0.0657872
0.00254983
0.00762919
0.00221083
0.178685
0.0272153
0.163597
0.0013826
0.178435
0.0251292
0.0450103
0.142974
0.15181
0.0108963
0.0488595
0.00851022
0.0352008
0.17742
0.102222
0.0878901
0.135121
0.194637
0.0215853
0.162309
0.00164466
0.0140858
0.127122
0.0570222
0.045679
0.121215
0.12688
0.0570042
0.0532171
0.0136658
0.0656659
0.0338159
0.00311485
0.00126915
0.123293
0.166921
0.0737616
0.0782424
0.175611
0.0067292
0.0424509
0.0564358
0.025041
0.00263694
0.142158
0.120175
0.0443933
0.0886696
0.0168572
0.0381635
0.151287
0.171698
0.154901
0.00225286
0.148312
0.14669
0.191189
0.16256
0.0135818
0.0903908
0.0975453
0.154385
0.127661
0.0898319
0.187514
0.00859298
0.0571771
0.0650074
0.020086
0.14272
0.0070055
0.0372215
0.0178551
0.142346
0.00177164
0.0193091
0.0404344
0.00229264
0.0799163
0.0939629
0.00250113
0.15284
0.0146606
0.030271
0.0619718
0.00772855
0.0296556
0.0574356
0.00293232
0.165475
0.039248
0.176144
0.00264644
0.0062061
0.124739
0.0132518
0.132755
0.00180319
0.120784
0.172912
0.110568
0.00703942
0.0271569
0.0382013
0.12903
0.0840917
0.0668341
0.195987
0.00415303
0.00388281
0.0661681
0.00267107
0.00672758
0.150023
0.0183884
0.00850367
0.0896027
0.0408123
0.0065715
0.00746604
0.10967
0.0734598
0.00205744
0.163102
0.150954
0.151124
0.0121048
0.0377806
0.0399172
0.00140684
0.11964
0.0784224
0.11096
0.141702
0.169268
0.169313
0.13459
0.00214392
0.177829
0.08767
0.0175825
0.168291
0.0162369
0.0364294
0.0926321
0.00360009
0.0853551
0.0396733
0.0288477
0.10786
0.122091
0.133714
0.0994561
0.00298695
0.186282
0.00835764
0.100927
0.0059377
0.00318004
0.15585
0.159616
0.0969799
0.140511
0.147056
0.0678775
0.0106183
0.00589026
0.0209306
0.00254194
0.00229671
0.126349
0.0982234
0.00369062
0.00135661
0.0424259
0.00366841
0.105198
0.0267934
0.168099
0.00753093
0.134029
0.027026
0.104281
0.0841001
0.167669
0.142283
0.126513
0.00845747
0.0461478
0.00162253
0.0689514
0.0119738
0.0844065
0.118052
0.0446162
0.013954
0.0409906
0.161636
0.17505
0.148383
0.164054
0.0105251
0.128585
0.00918278
0.079451
0.0015605
0.101716
0.0905049
0.176908
0.00848699
0.121473
0.122811
0.180424
0.0161395
0.141724
0.0184182
0.0015513
0.127796
0.161955
0.160011
0.00371472
0.185475
0.0252767
0.0146661
0.131754
0.140804
0.0655222
0.00874297
0.00705568
0.063511
0.0172044
0.188067
0.108979
0.00167995
0.0562448
0.181194
0.0238504
0.134397
0.0802639
0.144889
0.0462279
0.0606578
0.167769
0.12791
0.00370855
0.106164
0.0183564
0.161216
0.0769003
0.167286
0.169164
0.108666
0.180302
0.173185
0.100719
0.0649053
0.0930205
0.113787
0.176665
0.00407703
0.00137603
0.101585
0.0872563
0.0421814
0.128554
0.00277161
0.0919165
0.159661
0.116795
0.011761
0.075418
0.00169653
0.174481
0.00121397
0.0297687
0.163645
0.0878233
0.00300849
0.0210561
0.138044
0.165999
0.111227
0.18061
0.146018
0.152249
0.0848703
0.00138053
0.0116796
0.00658891
0.00411894
0.0628075
0.183269
0.00623325
0.132123
0.0325364
0.0237715
0.110793
0.110987
0.00285088
0.148995
0.00211855
0.00282397
0.00331339
0.0405246
0.0672956
0.114969
0.164065
0.0751522
0.129013
0.0150752
0.0588712
0.014984
0.00349485
0.17214
0.159459
0.0116012
0.00130093
0.0528031
0.125824
0.130101
0.0928859
0.0116818
0.0475779
0.0311105
0.0170459
0.156024
0.0018202
0.00167552
0.0945654
0.141058
0.0196537
0.128301
0.145927
0.153565
0.00580757
0.0294691
0.00722409
0.00433697
0.165715
0.0830705
0.105056
0.0145346
0.00915545
0.00132656
0.00304577
0.110524
0.0833749
0.0254863
0.00206541
0.00566795
0.0170637
0.0629789
0.167367
0.129438
0.0140907
0.175748
0.0539717
0.178414
0.150192
0.00275896
0.010573
0.0854786
0.158628
0.00757803
0.128881
0.139915
0.143288
0.165917
0.153608
0.00285947
0.122749
0.130907
0.003657
0.114142
0.0195971
0.00123292
0.00147044
0.0775276
0.0199275
0.127314
0.173774
0.0297925
0.00399202
0.0776611
0.00767929
0.0272372
0.146647
0.0391456
0.126356
0.131129
0.00968479
0.117654
0.0666035
0.138661
0.0233895
0.00743395
0.0812274
0.111668
0.0327435
0.0630236
0.0113463
0.0109114
0.00626777
0.0389421
0.00532921
0.144212
0.0524608
0.103122
0.00292114
0.100758
0.172296
0.00283302
0.0664216
0.00193683
0.00189115
0.00263549
0.0263282
0.129392
0.00304276
0.127838
0.15127
0.165918
0.149554
0.146457
0.0693511
0.0502964
0.161941
0.00990221
0.0283925
0.00829703
0.128612
0.157842
0.138926
0.0102669
0.00644294
0.0107904
0.0235208
0.130541
0.142743
0.155006
0.0933303
0.00407236
0.0136611
0.0622369
0.171755
0.081814
0.128957
0.0162724
0.00155769
0.0356879
0.00407607
0.111229
0.117287
0.00748322
0.00301664
0.0201909
0.0155824
0.0737219
0.0630309
0.0117592
0.0690442
0.135802
0.109869
0.130677
0.184361
0.0159877
0.00166305
0.130789
0.0616571
0.0644451
0.144027
0.0378842
0.0871968
0.00686639
0.0101357
0.00712706
0.144418
0.169704
0.132638
0.00444892
0.00412855
0.0472937
0.00193053
0.156808
0.136405
0.170107
0.118479
0.00354369
0.0484489
0.082972
0.156917
0.0400158
0.123156
0.00199107
0.0487864
0.00170224
0.156188
0.0670036
0.00126464
0.0012229
0.00498283
0.122036
0.00258454
0.127049
0.1629
0.0146497
0.0186321
0.0432502
0.00272894
0.08844
0.128107
0.00440133
0.172621
0.174845
0.0600368
0.132187
0.00200751
0.0243418
0.00929557
0.0732061
0.156085
0.144354
0.0842627
0.179481
0.110303
0.16216
0.111852
0.156118
0.00187206
0.130713
0.132648
0.0953836
0.0818465
0.00131439
0.15308
0.125399
0.00656297
0.0160702
0.134919
0.155781
0.078797
0.0044272
0.0578854
0.00284902
0.0176993
0.133119
0.104314
0.00118418
0.0939452
0.0434966
0.150141
0.166544
0.162178
0.0168127
0.0312511
0.0503616
0.103506
0.135184
0.123914
0.00673922
0.127452
0.01171
0.0762939
0.0780219
0.0113216
0.00656358
0.00228871
0.0530724
0.00988168
0.00443844
0.0938897
0.00259446
0.051847
0.00516518
0.00702851
0.00255277
0.129989
0.028414
0.144626
0.0662781
0.00217805
0.00224037
0.120223
0.176551
0.0119437
0.154755
0.130888
0.00130333
0.152611
0.0971799
0.00176857
0.00145701
0.117196
0.118839
0.137884
0.00108727
0.00345296
0.00630896
0.10658
0.0038522
0.0122896
0.00661888
0.0136625
0.0159646
0.0541737
0.0768739
0.0400006
0.0106258
0.000793971
0.0987181
0.0227494
0.00203495
0.0047915
0.0014361
0.0887639
0.0195425
0.142437
0.0363861
0.0599732
0.0112153
0.194415
0.00171271
0.118495
0.00751814
0.106847
0.0143053
0.016282
0.0206068
0.00300835
0.0142929
0.0431355
0.166658
0.00835435
0.0930512
0.0575845
0.0562022
0.00115909
0.169145
0.00719751
0.148435
0.0789876
0.00176245
0.00289681
0.00143761
0.138202
0.121809
0.114199
0.00169516
0.174062
0.064962
0.00159464
0.133644
0.0401332
0.00971583
0.138065
0.0107462
0.0737407
0.129224
0.0289186
0.00184226
0.00877632
0.042337
0.101583
0.151165
0.00200717
0.00731415
0.128227
0.0264376
0.145886
0.120559
0.157877
0.140957
0.0133972
0.126137
0.0916
0.122536
0.106939
0.0601585
0.0013036
0.00295209
0.028231
0.0078206
0.100018
0.0254811
0.109584
0.146809
0.0891177
0.0961964
0.00128361
0.0908832
0.0116697
0.0871561
0.0455879
0.156838
0.00121889
0.128951
0.0248714
0.0270038
0.00422202
0.0217696
0.021809
0.00122423
0.0255948
0.048386
0.0140792
0.0767525
0.00131208
0.0176926
0.178368
0.0863614
0.0176953
0.0133069
0.00903373
0.144907
0.00954413
0.132869
0.12757
0.0056569
0.163711
0.00656364
0.0357524
0.142039
0.071566
0.132177
0.125605
0.135989
0.0655652
0.00393987
0.129831
0.00383257
0.00187512
0.0286979
0.00670743
0.0788
0.178708
0.156938
0.0913975
0.128857
0.00854552
0.0489585
0.118334
0.0791228
0.175331
0.00149433
0.0132374
0.0595794
0.0033192
0.0042612
0.0907511
0.100656
0.02331
0.128441
0.13917
0.0929173
0.101322
0.153233
0.157384
0.134965
0.00199306
0.141297
0.00476907
0.0317616
0.0382047
0.16586
0.148707
0.0130414
0.0510264
0.0927666
0.132972
0.104583
0.10055
0.0727203
0.0149077
0.147049
0.0397912
0.00560831
0.128045
0.1618
0.0961064
0.0443405
0.0806909
0.0338354
0.0125577
0.0157452
0.0508603
0.103406
0.0152034
0.109025
0.00158198
0.0040425
0.0621682
0.00580711
0.127564
0.158047
0.0967546
0.120186
0.141737
0.138709
0.149138
0.137189
0.00970004
0.135087
0.137709
0.0576322
0.018894
0.00368514
0.0478436
0.0590045
0.163095
0.0103133
0.00679882
0.0498337
0.00187377
0.00961309
0.00727704
0.142162
0.00942738
0.0935925
0.138012
0.0995761
0.00133379
0.00735439
0.127155
0.0319038
0.153235
0.110953
0.147131
0.0874012
0.0965015
0.068595
0.131569
0.0170995
0.0519775
0.0012907
0.187867
0.0325315
0.134435
0.00685635
0.0190494
0.0028194
0.00631753
0.00697614
0.0108795
0.00161353
0.123334
0.00379966
0.147278
0.0206712
0.138581
0.0531552
0.0204448
0.0757581
0.00152876
0.0322171
0.031749
0.147045
0.00593315
0.0990862
0.137025
0.0373689
0.0445676
0.167387
0.0675595
0.0285691
0.11146
0.041972
0.111351
0.0249162
0.100252
0.109621
0.00391866
0.0359665
0.151486
0.0576097
0.0024286
0.0225595
0.0150226
0.00603048
0.112485
0.141428
0.00355644
0.0687133
0.0170832
0.0267431
0.00247078
0.112772
0.00794541
0.0458834
0.0583687
0.0737173
0.0963814
0.00122835
0.046231
0.00151387
0.160454
0.0228383
0.00511422
0.0403851
0.00254974
0.00364594
0.149805
0.0256329
0.00166006
0.0246889
0.00280788
0.131387
0.0932616
0.00111233
0.00696499
0.00207351
0.148275
0.0861033
0.0995736
0.00148127
0.00512667
0.0632071
0.091596
0.0156593
0.0115195
0.00346014
0.0918516
0.117271
0.0026518
0.0325935
0.107398
0.00560931
0.00617627
0.0489876
0.136858
0.00102473
0.00265421
0.151961
0.136799
0.0109546
0.148009
0.16404
0.110258
0.102657
0.0925362
0.0107528
0.0400937
0.00372584
0.0538618
0.00123829
0.0989718
0.00991749
0.00538999
0.00762525
0.109503
0.114891
0.0103667
0.128619
0.113839
0.15552
0.0878852
0.104834
0.00378534
0.134769
0.122179
0.0016346
0.0199685
0.0132273
0.0517679
0.134576
0.146004
0.0213748
0.00299879
0.00302905
0.124268
0.0113351
0.139836
0.0875086
0.145977
0.00169593
0.0188877
0.0337517
0.00677516
0.00896135
0.0665011
0.00323162
0.00281684
0.110743
0.141081
0.155655
0.0208222
0.0114152
0.154171
0.00568368
0.115019
0.163608
0.0122499
0.00161102
0.0691812
0.00535707
0.0513769
0.00185004
0.0905935
0.0791123
0.0902149
0.0507059
0.1524
0.133239
0.0506514
0.00231776
0.00216453
0.0345506
0.00270798
0.0436786
0.00185926
0.0022866
0.0211659
0.116426
0.113027
0.134539
0.114729
0.00399416
0.156279
0.0407005
0.0640745
0.0063431
0.00242221
0.0031238
0.0895546
0.00326247
0.0533213
0.0510579
0.122028
0.127656
0.00181077
0.0403054
0.00144966
0.0286106
0.0914905
0.00630896
0.145681
0.0367611
0.0842911
0.00458483
0.101243
0.0457388
0.08925
0.121496
0.00445266
0.0477034
0.0249142
0.119159
0.0228789
0.0121535
0.00120584
0.115245
0.0117672
0.115674
0.0615672
0.15022
0.00637457
0.0217656
0.0178558
0.0360928
0.137123
0.110279
0.110642
0.161312
0.135668
0.125851
0.128503
0.00210242
0.0358797
0.0769784
0.103787
0.160469
0.00908622
0.00335369
0.00686434
0.0194441
0.0911504
0.135556
0.15581
0.121104
0.00567554
0.00165577
0.164764
0.046719
0.0316591
0.00321111
0.062555
0.0432247
0.00131157
0.0404248
0.142655
0.00330164
0.00232991
0.0901787
0.147142
0.0965728
0.00156367
0.00542459
0.0248124
0.00625205
0.00350287
0.0411462
0.00233746
0.0144723
0.0938678
0.006645
0.00725094
0.146526
0.00193103
0.0785168
0.114127
0.148712
0.00565156
0.112252
0.00487805
0.0552262
0.0465077
0.0172664
0.11979
0.00376424
0.0022867
0.14535
0.0524224
0.00495519
0.0126466
0.00152132
0.0204357
0.154544
0.11303
0.0966455
0.144105
0.0843239
0.0438978
0.0998262
0.010194
0.018593
0.021377
0.120931
0.141992
0.132684
0.0262781
0.0257678
0.0947191
0.0114508
0.01901
0.0303549
0.0126201
0.0144179
0.0623192
0.00233838
0.113789
0.130257
0.00461058
0.00337204
0.00103463
0.0896466
0.166314
0.00151924
0.14563
0.126753
0.0258732
0.144429
0.0154445
0.0117907
0.148511
0.00134542
0.00375017
0.0513397
0.00713472
0.00124152
0.127779
0.0406593
0.00473418
0.00162874
0.0373703
0.00834242
0.140353
0.160524
0.140624
0.0449191
0.00221313
0.00364433
0.0015364
0.00339145
0.0380189
0.0381374
0.029476
0.12853
0.155377
0.130732
0.0038301
0.121513
0.00296525
0.039211
0.0622145
0.010785
0.00386286
0.000808193
0.00299863
0.0155766
0.1005
0.126155
0.00314465
0.00356447
0.0345015
0.143581
0.15141
0.0171705
0.0339472
0.00547791
0.012587
0.0403488
0.150281
0.00563148
0.134821
0.00124028
0.0543201
0.129212
0.00973325
0.0954599
0.00155067
0.16005
0.00175467
0.144904
0.0424315
0.0658961
0.140371
0.063361
0.01754
0.0150774
0.00194669
0.00239766
0.0318005
0.0250486
0.0842975
0.00331387
0.00198642
0.129138
0.150134
0.140742
0.166262
0.00142395
0.178898
0.0537515
0.0197152
0.0469436
0.0498297
0.0730917
0.0786526
0.00886935
0.00219458
0.110738
0.0693874
0.00491907
0.0551344
0.0210144
0.040883
0.00185092
0.0262498
0.0159291
0.114673
0.148698
0.14648
0.00196985
0.00215029
0.0129176
0.152854
0.110842
0.129814
0.000938177
0.142559
0.00237601
0.00213658
0.041613
0.0143038
0.0789518
0.0397882
0.0712904
0.0774404
0.0013091
0.0443114
0.0090135
0.157013
0.0853343
0.146126
0.0782203
0.00478331
0.00388281
0.0308651
0.00238875
0.00525787
0.165064
0.102408
0.144001
0.104655
0.00188695
0.003887
0.0452513
0.144968
0.0724726
0.0176068
0.0182428
0.00096056
0.0335753
0.00221999
0.0150922
0.0626295
0.107923
0.147725
0.0103942
0.124626
0.142888
0.00153367
0.0198975
0.0055462
0.104401
0.0323407
0.134229
0.00157113
0.00356944
0.111821
0.0877831
0.0368434
0.0890681
0.132109
0.109313
0.13531
0.00109157
0.0317724
0.000986465
0.0375668
0.00617904
0.0166375
0.00167107
0.119537
0.0264151
0.00161205
0.0408098
0.0374804
0.00129659
0.141295
0.114315
0.0298156
0.00288549
0.00132231
0.0364836
0.0903252
0.122359
0.149064
0.046156
0.19529
0.00324707
0.145153
0.0392185
0.0764354
0.14236
0.019869
0.00818346
0.0863086
0.00623507
0.101253
0.152603
0.0201111
0.00155402
0.0217382
0.0212681
0.00442466
0.00591886
0.12912
0.0979783
0.0349556
0.00261331
0.0023329
0.110342
0.00122471
0.0491975
0.112344
0.0830233
0.00363299
0.0147206
0.116189
0.000753968
0.0692558
0.0479982
0.120913
0.00195373
0.120013
0.0051992
0.067791
0.0369405
0.0567922
0.114759
0.00801537
0.000678469
0.139224
0.0313694
0.0108981
0.152708
0.0810758
0.0950039
0.015665
0.011816
0.0115029
0.0464321
0.00283219
0.0337578
0.0120504
0.0425065
0.015619
0.112104
0.00137114
0.00150963
0.0265709
0.114482
0.00928041
0.00250271
0.0670643
0.0262349
0.128422
0.035115
0.00115412
0.0379694
0.00215162
0.0689896
0.0114415
0.0703256
0.00127741
0.141164
0.144421
0.105901
0.0243618
0.00332861
0.00368764
0.00885415
0.03095
0.144657
0.0402662
0.0672275
0.12654
0.00525888
0.1352
0.0153792
0.0936196
0.043817
0.147423
0.150849
0.139852
0.0672409
0.0514054
0.0257056
0.00151888
0.0999039
0.0426337
0.024312
0.145007
0.0937656
0.0557188
0.0562782
0.0210203
0.134332
0.113699
0.00682807
0.162659
0.0610738
0.0934283
0.0594653
0.142147
0.00273387
0.0713199
0.117812
0.00516732
0.0316722
0.0377524
0.00241591
0.00751831
0.0800234
0.0293477
0.0537073
0.0523966
0.0764325
0.148516
0.0317705
0.00140521
0.00176651
0.00308421
0.0540076
0.00187346
0.0700586
0.0527197
0.157002
0.00293998
0.114051
0.0356888
0.124354
0.00268959
0.00282825
0.107495
0.162819
0.0392043
0.113924
0.0933701
0.00700691
0.0902175
0.114248
0.00141522
0.00234189
0.141965
0.0332798
0.0419318
0.00358178
0.150733
0.00255728
0.00173816
0.1097
0.0555672
0.00389718
0.0148783
0.0979724
0.104182
0.113658
0.0424039
0.146223
0.123277
0.00244984
0.00151741
0.00207947
0.137768
0.00270609
0.0770866
0.00698835
0.146084
0.0539393
0.0417321
0.141224
0.00329245
0.0442935
0.011267
0.00567815
0.00244936
0.0223187
0.0112654
0.00265429
0.00252912
0.124466
0.000964643
0.138605
0.119567
0.10778
0.114973
0.139262
0.00193663
0.0679418
0.140148
0.04483
0.00164764
0.00217608
0.0330614
0.149003
0.0289402
0.022012
0.00303886
0.116195
0.125889
0.16405
0.013853
0.0989769
0.140154
0.00158859
0.0161744
0.0177782
0.110568
0.128121
0.0636639
0.00200374
0.132371
0.00156266
0.0173221
0.0806335
0.00188225
0.00245495
0.151709
0.00885529
0.0416967
0.00195635
0.133755
0.0435322
0.139583
0.0633057
0.0295454
0.00392668
0.150723
0.114203
0.112249
0.00737775
0.0206174
0.00184931
0.00177674
0.07443
0.00141546
0.0490936
0.0173762
0.00405945
0.00134894
0.0447665
0.00162573
0.0146728
0.0733964
0.141523
0.00425237
0.0211527
0.0424869
0.00603312
0.147185
0.00232024
0.137459
0.0147387
0.138996
0.0610034
0.00146056
0.0174023
0.00693067
0.0458306
0.0399231
0.0458895
0.00512973
0.020326
0.00217652
0.0769916
0.00204139
0.0829161
0.00564547
0.00937994
0.00364705
0.111217
0.126278
0.0983292
0.00231207
0.112753
0.131439
0.137327
0.0611257
0.147304
0.11446
0.0034712
0.00319976
0.00234194
0.00233486
0.125146
0.00403587
0.00255871
0.00579739
0.00162594
0.00158165
0.0462857
0.00223437
0.03687
0.0221308
0.0026528
0.00602869
0.160179
0.00270304
0.0875561
0.0865721
0.0129747
0.00172363
0.00238996
0.000961414
0.0398674
0.0617113
0.14481
0.00271017
0.00244781
0.117233
0.0119358
0.114743
0.0906341
0.078563
0.00354924
0.00352337
0.0548917
0.10759
0.0451614
0.0675842
0.0981897
0.0571287
0.124023
0.0446911
0.026522
0.00554553
0.0896074
0.00612484
0.0752644
0.0507743
0.00172831
0.0025782
0.0506032
0.0416314
0.126916
0.0198679
0.0669879
0.149321
0.0210869
0.122782
0.0799141
0.0420373
0.115506
0.0515082
0.0087169
0.0214986
0.00153348
0.0897397
0.181717
0.00257045
0.106609
0.0336004
0.11554
0.102225
0.151834
0.0775804
0.135617
0.0321933
0.0995412
0.00170329
0.0822703
0.0618082
0.0396297
0.148334
0.0873141
0.0299041
0.105448
0.0104154
0.00174555
0.0630042
0.0542886
0.126211
0.0819274
0.110384
0.0639986
0.124783
0.0341614
0.00405085
0.106738
0.00897078
0.00144757
0.136667
0.107676
0.138959
0.034349
0.0102783
0.10371
0.0146507
0.00368245
0.061626
0.13319
0.00123258
0.15955
0.11356
0.147248
0.176126
0.0966098
0.135431
0.0783095
0.0042286
0.0523764
0.0230237
0.0192102
0.0673764
0.0667333
0.0210108
0.00159731
0.00176753
0.00869864
0.00981549
0.00340322
0.00651569
0.134772
0.0561263
0.142474
0.0201801
0.115185
0.0398364
0.0106716
0.132512
0.0195619
0.0218548
0.130979
0.118622
0.0818918
0.115261
0.144787
0.139687
0.00458183
0.0041714
0.0603121
0.0826822
0.14719
0.0114872
0.00563087
0.00164144
0.01418
0.00341123
0.121055
0.00245347
0.00132121
0.0762416
0.0701853
0.0820144
0.136861
0.0662319
0.0950564
0.101517
0.0420122
0.00167869
0.0094735
0.00151309
0.116727
0.0107842
0.0042012
0.116766
0.126608
0.122829
0.149006
0.0582702
0.105036
0.0104182
0.0833666
0.00254764
0.0337325
0.00243457
0.00846331
0.00225358
0.00109367
0.0875517
0.132346
0.128387
0.0798807
0.149752
0.114082
0.00167469
0.00322763
0.0880543
0.0741215
0.0875985
0.0221542
0.0106737
0.137949
0.0698592
0.00438676
0.126652
0.0973438
0.0243218
0.0122357
0.0616431
0.00385304
0.00561431
0.0381619
0.00277876
0.00729407
0.00130247
0.149844
0.0454165
0.130127
0.0338921
0.00348809
0.132901
0.00144244
0.127241
0.173926
0.109795
0.00193917
0.0147861
0.00830441
0.105657
0.149026
0.0311927
0.00195047
0.0266943
0.120824
0.0969648
0.0851475
0.0477025
0.12029
0.125584
0.00196754
0.00240416
0.00200389
0.0224038
0.00620206
0.0022428
0.00849821
0.00217882
0.0118803
0.154885
0.134683
0.164773
0.0696123
0.00265425
0.00272377
0.143481
0.00151568
0.00178438
0.0218926
0.107093
0.133609
0.00661555
0.0039208
0.00164369
0.0250081
0.00163208
0.159363
0.00613625
0.0100591
0.139784
0.00248765
0.117121
0.00646378
0.00199501
0.0384693
0.00557102
0.0756691
0.137816
0.00210563
0.00161173
0.00789827
0.0280567
0.00127265
0.0053208
0.00169197
0.00187139
0.00173145
0.00672285
0.00662251
0.0749944
0.0945866
0.0148569
0.00143156
0.138845
0.00133553
0.161863
0.0132731
0.0310067
0.132192
0.00309157
0.112319
0.00586255
0.00153018
0.115579
0.0120946
0.00974445
0.001753
0.00659919
0.0105329
0.111938
0.0777618
0.00263284
0.128335
0.137163
0.0171216
0.039113
0.00149882
0.0346295
0.136962
0.0395982
0.137669
0.0106148
0.0541123
0.00656045
0.142208
0.147881
0.00150823
0.00959339
0.110752
0.00192341
0.00446015
0.139378
0.0464181
0.0542671
0.00186155
0.116279
0.143852
0.00573695
0.0536632
0.00243206
0.00170212
0.0111772
0.0452269
0.0706376
0.0972591
0.0146295
0.0308738
0.0944913
0.0034462
0.0136974
0.128247
0.0878648
0.0112297
0.0559756
0.00140979
0.00510704
0.132787
0.00228624
0.00908384
0.0187033
0.117521
0.00240098
0.00110974
0.00383063
0.108379
0.150897
0.012232
0.0358773
0.130492
0.0913116
0.1153
0.121543
0.0284731
0.12701
0.131598
0.0152177
0.00638436
0.00124976
0.0409567
0.00387886
0.00159005
0.106118
0.00360457
0.0035148
0.00136494
0.157924
0.0113157
0.00116987
0.00229756
0.00644615
0.00706258
0.0810023
0.00234611
0.0117005
0.0046612
0.145002
0.0165363
0.0129797
0.115011
0.0101503
0.00337608
0.114142
0.00238141
0.00331316
0.116679
0.131146
0.0811223
0.114108
0.0579942
0.146317
0.130276
0.00278314
0.00395688
0.0514537
0.00851025
0.20082
0.0206075
0.00138185
0.0015216
0.00146246
0.0273366
0.0016541
0.0778979
0.137588
0.0338912
0.00156119
0.00360032
0.00666464
0.00395171
0.0466173
0.127187
0.115481
0.0547881
0.0352621
0.00269296
0.00320873
0.0310588
0.00277811
0.00138018
0.114787
0.00347092
0.0872996
0.022921
0.0641246
0.0975402
0.150808
0.0292555
0.0333099
0.0038557
0.00152875
0.141066
0.0141024
0.0272218
0.0195803
0.00380642
0.0143472
0.00247545
0.10163
0.00776745
0.00209769
0.00702579
0.00584424
0.116858
0.00647864
0.00234642
0.00204576
0.147684
0.00652721
0.147377
0.0689148
0.0969465
0.0167574
0.00244237
0.00118689
0.115804
0.00233627
0.017071
0.152123
0.146226
0.0755507
0.160214
0.0192173
0.00226324
0.00184735
0.00758058
0.0984727
0.0810451
0.0184234
0.144908
0.0016887
0.0391541
0.101283
0.0145206
0.00786125
0.0207452
0.00129753
0.0102162
0.00128803
0.0417006
0.00396788
0.00436461
0.00278995
0.141638
0.0798209
0.0194839
0.0792932
0.00401905
0.00120805
0.0178621
0.00767056
0.00500552
0.0065233
0.0185501
0.0219526
0.0485887
0.136738
0.00573965
0.0267416
0.0339235
0.0200856
0.0223773
0.0296569
0.00199114
0.00492039
0.0608213
0.0414494
0.0192626
0.0398549
0.109105
0.014053
0.0115867
0.135269
0.00188268
0.0881108
0.00144922
0.105749
0.0682405
0.0528096
0.00147235
0.035106
0.00151699
0.00333161
0.0189722
0.0631337
0.00619249
0.0152821
0.00583609
0.0478607
0.179652
0.0123302
0.137776
0.00143817
0.140199
0.14337
0.124864
0.0364064
0.0316647
0.0432421
0.0121474
0.0138333
0.0660028
0.04171
0.00381594
0.00284043
0.0299147
0.0166713
0.137663
0.0110285
0.0205484
0.00920592
0.0733205
0.0122905
0.0217523
0.148712
0.149398
0.0743958
0.0429337
0.104005
0.00141611
0.142224
0.00808105
0.0413481
0.00273998
0.00391655
0.0290041
0.0136076
0.0102003
0.00404602
0.00213504
0.047769
0.0385675
0.0133891
0.0186167
0.0895219
0.00442176
0.00122726
0.140439
0.135658
0.00384854
0.0164581
0.0206191
0.108293
0.0188695
0.116509
0.0368275
0.0106071
0.032876
0.0295479
0.128583
0.145448
0.0201465
0.00153949
0.0923885
0.0204542
0.00452444
0.151749
0.130821
0.00145002
0.0108403
0.00786974
0.111347
0.0359648
0.0220789
0.16859
0.114885
0.00825468
0.0222816
0.00143066
0.00645726
0.0266362
0.00240852
0.0145553
0.00787372
0.128657
0.126197
0.0193404
0.0292309
0.01939
0.0166207
0.092302
0.017839
0.039227
0.0941953
0.150792
0.0383761
0.0954451
0.0378053
0.00803791
0.0109012
0.135456
0.00778599
0.0209903
0.00372983
0.0155582
0.00134453
0.013281
0.00156128
0.146111
0.00884852
0.026928
0.123867
0.130383
0.0162611
0.025708
0.0716383
0.131295
0.00990856
0.00133048
0.0324002
0.116122
0.0662921
0.00460058
0.015007
0.0254984
0.147159
0.130427
0.037828
0.0401742
0.0842647
0.0215038
0.00168729
0.0142604
0.00175426
0.146514
0.0379694
0.110151
0.0401021
0.0809964
0.121458
0.0144467
0.03769
0.114143
0.00184834
0.0327815
0.00135969
0.128419
0.0270757
0.0213645
0.00878635
0.0226161
0.00786606
0.028384
0.0116738
0.0209089
0.12698
0.0027264
0.00383504
0.0640028
0.139464
0.0258161
0.110439
0.111639
0.00909324
0.138228
0.00180586
0.0048583
0.00536942
0.0719412
0.139351
0.0373731
0.00964649
0.0159821
0.0380213
0.0378203
0.127816
0.0395885
0.103938
0.064976
0.00141218
0.0635111
0.0806383
0.0041245
0.0214333
0.0406602
0.0740685
0.0367327
0.139204
0.0405211
0.00180086
0.133026
0.025179
0.00250381
0.00692837
0.0128175
0.0287021
0.0302519
0.00193007
0.00639566
0.0373966
0.0209754
0.0477961
0.0529282
0.0273168
0.0805935
0.124368
0.00199735
0.120899
0.0438687
0.133681
0.0684269
0.0238775
0.133127
0.141835
0.0168273
0.104524
0.0517213
0.0186444
0.0268545
0.0144014
0.0322678
0.129372
0.0292292
0.0109753
0.0356628
0.019014
0.0230559
0.0192364
0.0272921
0.00172617
0.107474
0.00391531
0.01101
0.00441699
0.0220657
0.0137698
0.00933195
0.0421773
0.0123047
0.0116695
0.0337218
0.033014
0.110421
0.112577
0.154815
0.0443191
0.00137853
0.146866
0.00768216
0.0734811
0.0324072
0.0483446
0.00706426
0.0350409
0.0217858
0.0756456
0.0472876
0.0435054
0.136608
0.039562
0.0358843
0.140194
0.0415862
0.048722
0.129423
0.0207827
0.0318829
0.00326265
0.0434575
0.00421413
0.0119516
0.0301881
0.106187
0.017909
0.132635
0.0263179
0.0197976
0.00376957
0.0419165
0.029736
0.0222611
0.138475
0.0159809
0.0409486
0.0028504
0.129638
0.0574133
0.00503111
0.0376965
0.0389565
0.150104
0.1157
0.146717
0.0206511
0.00350545
0.0333728
0.0570963
0.043503
0.0196573
0.117665
0.0552972
0.0448158
0.0379296
0.0491508
0.164201
0.00530447
0.142183
0.0028227
0.16284
0.00327195
0.139892
0.142854
0.00719168
0.0557232
0.0401227
0.0115404
0.0407046
0.0223378
0.128882
0.132897
0.0768446
0.0451453
0.00149079
0.116745
0.0372762
0.0528452
0.0503259
0.0761948
0.0591566
0.0101491
0.0212812
0.0430995
0.0315679
0.0402788
0.155367
0.0629984
0.0145574
0.0822247
0.0643529
0.00748531
0.129524
0.034654
0.014253
0.0391082
0.00256412
0.150254
0.040804
0.171013
0.0212274
0.0231726
0.0684718
0.00274038
0.145425
0.0691052
0.0394298
0.145819
0.00325151
0.152205
0.0823366
0.0170113
0.0158931
0.0383987
0.148181
0.0287126
0.0216212
0.00161343
0.0736575
0.0296745
0.145588
0.140351
0.0402542
0.0079635
0.00249125
0.0764016
0.125118
0.132496
0.0834457
0.0370314
0.00371161
0.00269227
0.0826215
0.13972
0.12257
0.0382384
0.00482009
0.00276684
0.0576714
0.00670372
0.154346
0.0974337
0.0160524
0.10883
0.0825238
0.0213744
0.00631854
0.00572011
0.0377801
0.0460574
0.00521446
0.0170243
0.0468797
0.0297773
0.00579011
0.0808649
0.066658
0.035195
0.119384
0.0825508
0.133661
0.150931
0.0230384
0.034579
0.0484206
0.013262
0.0128899
0.0825475
0.037395
0.15044
0.0970253
0.0456024
0.0368652
0.0165484
0.0338038
0.0033564
0.0515941
0.0472242
0.0540494
0.00443389
0.00193069
0.0276996
0.152635
0.0105526
0.0411442
0.097895
0.10642
0.0423946
0.132439
0.130033
0.0566994
0.0532546
0.0066943
0.0534384
0.0947686
0.0456179
0.00268401
0.00145415
0.119663
0.0615172
0.0386016
0.0373776
0.00339514
0.0553995
0.00431391
0.0116058
0.101674
0.0534514
0.00133025
0.0770298
0.0636956
0.0345484
0.0433352
0.0811425
0.0631898
0.079147
0.00988893
0.121952
0.0208238
0.0474185
0.0397288
0.0792358
0.107158
0.0979533
0.0591262
0.0641779
0.119134
0.151973
0.0804639
0.0645909
0.0657251
0.0331107
0.0920615
0.0957645
0.0822735
0.0647865
0.029867
0.115177
0.138079
0.00167164
0.0450281
0.00261965
0.0143325
0.133327
0.0568361
0.0159798
0.150153
0.0964855
0.156447
0.0492636
0.0606206
0.0126832
0.0591956
0.111022
0.00660077
0.00368406
0.0175283
0.14695
0.00251965
0.0605403
0.13216
0.0153233
0.151164
0.081194
0.00290363
0.131175
0.0109318
0.0881304
0.00691826
0.00661803
0.0368492
0.100885
0.130072
0.0088739
0.0515971
0.0502031
0.0437664
0.00418588
0.120505
0.00753591
0.0629849
0.00125764
0.083264
0.108728
0.114154
0.0609232
0.0523969
0.0513055
0.00408317
0.0759337