/*--------------------------------*- C++ -*----------------------------------*\
| =========                 |                                                 |
| \\      /  F ield         | OpenFOAM: The Open Source CFD Toolbox           |
|  \\    /   O peration     | Version:  v2012                                 |
|   \\  /    A nd           | Website:  www.openfoam.com                      |
|    \\/     M anipulation  |                                                 |
\*---------------------------------------------------------------------------*/
FoamFile
{
    version     2.0;
    format      ascii;
    class       volScalarField;
    location    "700";
    object      ddt0(k);
}
// * * * * * * * * * * * * * * * * * * * * * * * * * * * * * * * * * * * * * //

dimensions      [0 2 -3 0 0 0 0];


internalField   nonuniform List<scalar> 
13917
(
-3.44962e-08
-4.23703e-08
-7.23066e-06
7.92891e-08
-2.09889e-08
-1.02273e-07
-0.000292109
8.58975e-05
0.000468982
2.47417e-07
5.6145e-07
3.64382e-07
1.04983e-07
0.000101101
-2.71684e-08
-4.19491e-08
-4.63783e-08
2.73283e-07
3.49975e-07
-1.8312e-08
-2.37404e-09
-0.000268129
-1.93182e-08
3.43277e-05
-3.59895e-08
-8.9496e-06
8.94593e-09
-8.29456e-08
3.04725e-07
2.12739e-07
7.69609e-08
-7.50966e-10
-1.45494e-07
-2.25762e-07
-2.88588e-08
2.24907e-07
-1.96277e-08
0.000384504
1.17773e-07
6.1231e-05
-1.63508e-08
1.09917e-09
8.83557e-09
-2.72021e-07
-7.78278e-09
1.45676e-07
2.64093e-07
4.01978e-07
3.35231e-06
-2.89988e-08
2.46446e-07
-3.33018e-08
-1.78492e-05
-2.52577e-07
-4.80016e-08
-1.7035e-08
5.07359e-07
-3.49333e-08
1.03078e-08
-1.32115e-08
0.00551293
-4.33725e-08
7.42848e-05
-2.04651e-08
5.85414e-06
-0.0045847
-9.67923e-09
-2.30956e-08
6.39292e-07
-5.1176e-08
-1.76802e-08
0.000319281
0.000701282
-2.81377e-08
3.13726e-06
3.71334e-07
0.000521486
9.40308e-09
-9.88945e-05
-3.28009e-09
-9.55708e-09
-7.09617e-09
2.10624e-06
0.000473308
-0.000207751
9.21307e-09
-1.34878e-08
0.0115799
1.05894e-07
1.26228e-08
0.000637564
1.45655e-07
-1.72397e-08
-4.00094e-08
-0.0172084
1.20663e-06
5.09331e-07
3.43932e-07
5.06595e-07
-4.54172e-07
-2.08757e-08
-2.06842e-07
-3.30721e-07
2.87958e-08
-2.01621e-08
0.000373032
-5.52727e-07
3.57199e-07
-4.92801e-08
1.2512e-07
0.000333019
6.42118e-05
4.37807e-07
0.000447661
-4.32962e-08
-3.4202e-07
-2.88295e-08
-6.1412e-07
0.000158631
-2.00827e-07
7.34835e-10
6.98328e-07
0.000217972
-1.14298e-07
-2.71931e-08
-4.24943e-08
-2.29106e-08
-2.82552e-08
3.68089e-09
5.32601e-08
0.000248299
-2.48352e-08
-1.06488e-08
-3.38635e-10
-1.92905e-05
3.67221e-05
1.57243e-08
1.3098e-07
-1.3543e-08
-8.86615e-08
6.06048e-07
1.84578e-08
-3.89486e-08
-9.89904e-08
-2.20507e-08
4.72457e-05
7.30598e-07
-3.02274e-08
-1.70959e-08
2.80939e-09
3.37509e-07
8.27047e-07
4.30327e-07
-4.05326e-08
1.57082e-08
-0.000647053
-4.48996e-08
4.52977e-07
0.000459425
-3.33726e-06
-2.92877e-08
2.58284e-07
-1.43321e-09
4.64138e-07
3.80915e-07
4.9412e-07
2.75807e-08
3.57952e-07
-5.35211e-09
-1.49279e-07
4.61373e-08
-2.84586e-06
4.94188e-07
-4.82776e-08
7.9323e-05
4.78702e-08
0.000222376
9.34093e-07
5.89479e-05
-3.2002e-08
9.97767e-08
5.65375e-08
1.66954e-08
-1.46104e-08
-1.1212e-07
-7.31945e-05
4.93854e-07
-0.000444169
1.66895e-07
5.12802e-07
5.36639e-07
-0.000155481
9.31699e-07
-2.0495e-08
8.8212e-07
6.01093e-07
1.24661e-07
-2.19754e-08
-5.20364e-07
-0.00261724
1.00362e-07
-2.95763e-08
3.71648e-07
3.21831e-07
0.000643267
3.62961e-07
-2.93186e-08
-3.72981e-08
3.54873e-07
-0.000305629
-4.28436e-08
-0.000253864
0.000558677
5.15527e-07
-1.89166e-08
-3.76169e-07
3.37998e-07
0.000307913
-2.9808e-08
-0.00248106
-3.24781e-08
1.84406e-07
-2.28867e-08
0.000566724
0.000340471
-3.96701e-08
-6.1068e-07
2.58061e-08
-2.05988e-08
2.22288e-07
4.32824e-07
1.67037e-07
-1.5364e-05
0.000508548
-1.99591e-08
8.67784e-09
0.000629149
-0.000119557
-9.03314e-09
-2.62678e-08
5.38245e-05
5.72021e-07
-2.48752e-09
5.59548e-07
3.56313e-07
4.96533e-08
7.23919e-08
-6.18699e-09
-1.97122e-07
0.000485089
5.73705e-08
8.67112e-08
2.18312e-07
-2.63111e-08
-3.63979e-08
4.24281e-07
7.23195e-05
4.30578e-07
-8.88361e-08
-4.42173e-08
-1.04389e-09
0.000171777
5.01166e-05
6.62052e-07
-2.26416e-08
0.000696403
0.000213553
-8.91992e-06
-8.87933e-05
3.86524e-07
-5.63765e-09
-3.17832e-08
2.92874e-07
0.000571592
3.59268e-07
2.0136e-08
-5.23344e-06
2.559e-07
3.42929e-09
1.07576e-05
-1.94269e-08
3.67657e-05
9.65916e-08
-6.47671e-09
-5.68748e-08
-1.04346e-07
6.96401e-07
6.48315e-07
-1.83471e-07
3.6652e-08
2.11191e-06
4.38277e-05
-0.000123929
-2.98291e-08
5.3877e-06
-9.18195e-09
3.81482e-08
-2.66858e-08
-8.87506e-06
-2.40713e-08
2.2469e-07
6.66137e-08
-3.34111e-09
3.67495e-07
-3.55738e-08
-8.96096e-07
-7.8804e-08
2.03636e-07
4.76522e-08
-3.32559e-08
0.000240321
0.000207393
-2.8228e-08
-2.7749e-08
-0.000136805
-2.75737e-08
0.000735932
3.18236e-08
0.000606061
7.22436e-08
-5.73652e-07
1.79587e-07
2.96816e-06
-2.34978e-08
1.44327e-05
1.20418e-07
-5.48247e-08
5.87599e-07
9.47496e-07
-4.53632e-08
0.000235619
6.55485e-07
0.000256128
-1.0537e-07
8.89495e-05
2.89819e-08
0.000331972
2.18556e-07
1.28821e-07
-2.24928e-07
-9.09201e-05
-6.66104e-09
-5.20455e-08
0.000437127
-4.15152e-08
-4.74866e-08
0.00020512
-1.7448e-06
-4.49905e-08
4.93008e-07
5.56494e-09
-2.384e-08
0.000144898
5.92115e-07
-2.13847e-08
-2.52682e-08
-5.93054e-09
-2.28944e-08
1.89977e-06
0.000123013
-7.26135e-06
0.000334001
-2.81672e-08
2.94308e-07
-0.000117189
2.44108e-07
-0.000267858
0.000624329
0.000531422
-1.88347e-08
6.92925e-07
-2.78288e-08
0.00388765
-1.32827e-08
3.15046e-06
3.12222e-07
9.15235e-08
-9.58255e-09
3.49808e-07
1.38502e-07
2.87381e-07
-6.80031e-06
9.81632e-05
0.000177383
-2.05299e-07
1.27472e-07
-2.67747e-08
-0.000110909
-0.00012526
-4.03131e-08
1.26463e-06
-2.23234e-08
1.0798e-06
7.60781e-08
-6.83212e-09
-3.23597e-08
-8.56791e-05
-3.14415e-08
7.37603e-05
-0.000571448
5.45347e-07
3.86609e-07
-4.55027e-08
-1.15729e-06
2.21449e-07
-2.43191e-08
1.30072e-06
-4.28523e-08
-2.58959e-08
2.11156e-07
-3.9114e-09
-2.71476e-08
-2.19552e-08
6.5711e-07
-3.06361e-09
0.000101129
-0.000124829
-0.000163237
8.97938e-07
8.42106e-05
0.000409601
2.45507e-07
-2.71596e-08
5.90112e-07
1.08006e-07
1.64033e-08
-2.02555e-08
0.000139457
-0.000298081
-7.95678e-05
-4.15345e-08
3.4783e-07
-7.38842e-08
1.23395e-07
3.28001e-07
-4.67107e-08
4.94269e-07
-4.87902e-08
-2.20383e-08
0.000809509
0.000237152
0.000217084
2.86818e-07
-9.44918e-05
0.000206867
0.000910592
0.000449889
-2.43472e-09
3.13731e-07
-4.53536e-08
-3.5461e-08
1.15766e-06
2.79857e-07
5.84922e-08
1.99517e-07
2.27426e-07
0.00039021
-2.36793e-08
4.12376e-07
-0.000626314
5.49254e-08
0.000131426
-2.71072e-09
-4.33536e-08
1.35629e-07
4.90317e-08
-1.56196e-08
-1.41558e-06
-6.79439e-06
-1.69328e-07
-0.000347304
4.1606e-08
4.60726e-07
0.00115333
5.72798e-07
5.45281e-07
5.26836e-07
4.55525e-07
2.11087e-07
3.4202e-07
2.78877e-07
5.59026e-07
8.05545e-07
3.16383e-07
3.18946e-07
2.79685e-08
-1.46084e-05
7.20842e-08
2.22478e-08
6.75594e-08
5.01366e-09
0.000435319
0.000360468
-2.6927e-08
6.95336e-09
-0.00019555
0.000292504
-5.27429e-09
0.000107851
4.93256e-08
6.84423e-07
-3.2784e-08
0.000646306
-4.86233e-06
-2.90223e-09
-7.70396e-08
7.31526e-05
1.00384e-07
-8.16948e-05
-6.73253e-10
0.000559903
-3.21683e-07
0.00017614
1.93576e-08
-0.00012785
0.00163893
2.59736e-07
-2.43442e-08
-4.61969e-08
3.6482e-07
1.14468e-06
5.88362e-08
-2.56448e-08
-2.72004e-08
-2.69507e-08
0.000618746
8.33411e-07
2.47261e-07
7.87745e-07
-1.52554e-08
-2.19775e-08
3.81593e-07
0.00131762
1.04501e-07
-9.56251e-09
-2.93916e-08
-1.99975e-08
9.7629e-05
0.000348735
-1.15785e-08
-2.17088e-08
5.14668e-07
2.6935e-07
1.79374e-07
-3.96682e-08
-4.55383e-08
-1.97971e-08
3.6413e-07
1.23371e-06
5.41139e-07
5.90965e-07
3.8725e-07
1.7818e-06
1.27468e-07
-2.94155e-08
0.000557687
-1.95492e-08
-4.19295e-08
6.28806e-08
-9.09802e-06
1.05971e-07
-2.19691e-08
-8.67495e-07
1.85357e-07
1.19379e-05
3.75247e-07
-5.61734e-07
2.42381e-07
-9.83072e-09
0.000299384
-4.61439e-07
0.000218416
-4.53401e-08
4.8409e-08
4.98646e-07
0.000649104
0.000165374
3.23519e-07
3.91621e-07
-3.93616e-08
-1.80754e-08
-3.85569e-08
1.07774e-07
-2.93016e-07
-1.81989e-08
3.43517e-07
3.41686e-07
0.000281841
-8.62557e-05
-3.77077e-08
4.62181e-07
-3.64924e-06
7.22359e-08
-3.22228e-08
1.95963e-06
-9.05488e-06
6.50845e-05
7.67853e-07
1.63415e-09
0.000164173
3.71905e-07
-1.64009e-08
7.05569e-08
3.89971e-07
-1.59254e-07
1.90233e-07
-8.62313e-05
5.31975e-07
2.28809e-07
0.000374974
7.206e-09
0.000386981
-4.70058e-09
-1.25064e-08
-2.46697e-06
4.09771e-05
1.32827e-06
6.9445e-09
-5.15965e-08
-2.55525e-08
2.65448e-07
7.05434e-06
4.77523e-07
-1.31297e-08
5.01455e-07
3.61478e-07
-2.97127e-08
-2.99452e-06
4.61149e-07
6.92797e-07
-3.17334e-08
5.54239e-07
3.40268e-09
-0.000541354
1.90023e-07
1.96153e-07
7.16019e-08
-2.7069e-08
1.4865e-08
-7.87654e-08
-3.76513e-07
1.63865e-07
3.66105e-07
1.23382e-05
3.6453e-07
-2.43571e-08
2.74384e-07
6.24349e-07
3.09273e-07
5.28158e-08
3.70543e-08
-2.4004e-08
1.50395e-07
1.63899e-08
0.00176261
-6.66304e-09
0.000209117
1.49848e-07
5.2557e-07
6.20105e-08
0.000742239
-7.96844e-08
-4.84814e-08
0.000574774
0.00077958
-4.14228e-08
6.26766e-08
1.87284e-06
4.93847e-07
3.50161e-07
-8.34018e-09
-8.46399e-08
1.50945e-06
9.73298e-08
2.7428e-07
4.06993e-07
1.96861e-08
3.41299e-07
4.85108e-06
5.54605e-08
8.55594e-08
-2.61952e-08
0.000203034
-6.35676e-10
-4.32596e-08
1.56388e-05
-4.91086e-08
5.5439e-05
1.58009e-08
-1.24686e-07
-2.55115e-08
2.96458e-08
-2.62482e-08
1.53384e-07
-2.8373e-08
1.48515e-07
5.04761e-08
0.000191351
5.2832e-06
0.00131324
1.01066e-07
-8.82477e-09
1.67266e-07
5.71133e-08
0.000233659
0.00115405
2.58254e-07
-3.14486e-08
4.20244e-07
3.8693e-07
7.50164e-07
3.45666e-07
2.86734e-07
-0.000108979
6.77532e-08
2.36354e-07
4.4851e-07
6.99656e-07
2.81796e-07
-3.55058e-09
2.74512e-07
7.60151e-08
4.35652e-07
-4.15778e-08
2.91084e-08
1.73111e-07
1.10565e-07
-8.42285e-09
-2.61711e-08
-2.59037e-08
3.67328e-07
3.22545e-08
2.79416e-07
-2.72073e-08
-2.35524e-08
-4.55959e-10
-3.59114e-08
1.92277e-08
-2.26436e-08
-2.65809e-08
0.000618955
3.54003e-07
8.99401e-07
-1.89323e-08
-3.72354e-09
-1.42288e-07
1.89759e-07
-2.42599e-08
-0.0006217
1.04122e-07
-0.000836874
1.72159e-07
3.45209e-07
2.70256e-08
-8.20247e-10
-2.88443e-08
-3.24022e-08
-8.97593e-05
-2.00376e-09
3.89781e-06
-3.02093e-08
-0.000136131
-2.75046e-07
9.81947e-08
5.74207e-07
2.91473e-10
1.10572e-09
3.49928e-07
-4.43139e-08
-3.87938e-08
0.000328867
-4.51767e-08
-1.40401e-08
3.90816e-08
-2.53653e-08
4.20501e-09
-3.62073e-09
7.40882e-07
0.000182248
3.89695e-08
5.53857e-08
-2.01593e-08
0.000650759
-3.28226e-07
-4.56172e-08
-4.38539e-08
-0.000139462
-1.86864e-06
7.15105e-05
-3.35521e-07
7.25723e-08
-2.01365e-08
5.10089e-09
3.28984e-07
6.46772e-08
9.65086e-07
4.53514e-08
0.000246201
-4.24296e-08
-3.72398e-08
-2.95032e-05
-2.30311e-08
1.97865e-08
-4.10899e-08
-2.33154e-08
1.24854e-08
-2.97122e-07
-6.5416e-09
7.3907e-05
7.81952e-05
1.42902e-07
-2.94434e-08
1.93258e-08
4.81666e-07
4.76315e-06
-4.74421e-09
1.15142e-06
1.6483e-08
1.63427e-08
4.92196e-08
2.74373e-08
1.55497e-06
2.28009e-08
1.52059e-06
4.98572e-08
7.21233e-10
5.3473e-09
-5.34201e-08
-3.2969e-08
7.8959e-08
2.93318e-06
4.36499e-08
1.58687e-08
0.000260679
0.000133684
2.25341e-07
5.89392e-08
3.10818e-07
2.50331e-08
5.2667e-10
5.98852e-08
0.00061628
2.55861e-07
-1.55151e-08
-5.62173e-08
0.00105725
1.61201e-07
0.000491742
-2.55421e-09
-3.00238e-08
0.000181593
1.81965e-07
7.62276e-09
-9.926e-05
-4.51895e-08
-3.01053e-08
3.50014e-07
-2.85779e-08
2.90304e-08
-1.87395e-08
0.000791582
2.17059e-08
6.92017e-08
1.98443e-09
-9.87638e-07
9.9056e-08
6.82539e-07
-4.92795e-07
2.96153e-08
-1.37252e-07
-1.30086e-08
0.000326344
-2.49758e-08
4.71819e-08
-1.29973e-08
5.1498e-07
-1.25032e-08
4.51156e-07
5.6787e-05
-3.74694e-05
-7.62184e-08
6.13734e-07
4.18681e-05
-3.34361e-08
0.000139477
0.0028047
5.55924e-05
9.52154e-05
0.000251017
8.966e-05
3.74667e-07
-4.52312e-08
-8.15214e-05
1.78932e-07
-8.63453e-05
1.51315e-08
-1.68276e-08
-4.62676e-08
-1.56571e-08
8.50452e-08
2.46527e-07
0.000228545
-1.57044e-08
-2.21963e-08
-0.000104415
3.45835e-06
-5.77506e-08
9.18352e-07
5.68713e-08
6.12039e-09
3.18365e-06
2.05475e-07
-2.6556e-08
9.79737e-08
6.61771e-05
9.17107e-06
1.19704e-06
4.58907e-08
-2.64096e-07
1.62568e-07
-0.000116958
0.000482637
3.88321e-07
-3.53026e-08
2.31371e-08
-4.03575e-08
2.4508e-08
-3.40738e-08
-1.57116e-09
-2.0326e-08
4.96489e-08
-0.00023839
4.55686e-07
6.77699e-08
3.80607e-07
0.00100522
-3.43423e-08
-4.02309e-08
0.000458645
-4.95686e-09
-4.04576e-08
8.15541e-08
-0.000293653
-1.18051e-08
-3.20287e-08
-0.000220051
6.65338e-07
-2.15223e-06
4.24833e-07
4.42405e-07
-2.78462e-08
1.41941e-07
-3.86544e-08
-2.7673e-08
-3.40299e-08
-4.74719e-05
0.000151452
1.07537e-08
7.66897e-09
-4.16193e-08
3.90099e-06
-4.58774e-08
6.50102e-08
-4.33872e-08
-4.93639e-08
8.18366e-07
3.59712e-08
2.00079e-07
-4.14863e-07
0.000211098
-2.89663e-08
-1.06896e-07
-4.34504e-08
0.000715855
0.000910786
-2.96856e-08
0.000290432
3.31979e-07
7.58447e-08
-1.16576e-08
-6.46321e-05
-2.12074e-08
-2.16944e-08
-2.92575e-08
3.8642e-07
-0.000250372
7.68709e-07
4.9779e-07
3.52127e-05
-2.68241e-08
8.41936e-07
2.66341e-08
-3.03653e-08
-0.000193541
-3.44424e-08
-1.46237e-08
-3.30562e-08
-3.9634e-09
-0.000215884
-4.811e-10
-2.08641e-08
3.22712e-07
9.11705e-08
3.07404e-07
1.37473e-06
4.10145e-07
-0.000111825
3.44707e-07
1.60344e-07
2.36155e-07
0.00054506
2.41781e-07
0.000298613
-9.63571e-06
8.96982e-08
4.077e-08
6.15306e-05
7.53372e-07
-1.97461e-08
3.74448e-07
1.28306e-07
5.54858e-08
1.36856e-07
-9.78349e-09
2.21784e-08
2.62234e-09
2.89362e-07
1.32746e-08
-2.59663e-08
1.71065e-07
-2.67778e-08
-4.75775e-07
-2.66337e-08
-7.43993e-08
3.16551e-07
2.06976e-08
2.95918e-08
1.06461e-08
5.8776e-06
4.40672e-08
-3.19574e-06
-2.68338e-08
-3.90014e-08
3.62757e-07
-4.04401e-08
2.53044e-07
3.72181e-08
5.55469e-08
3.60503e-07
7.25297e-09
-0.000444803
-2.59187e-08
2.26728e-07
0.000240249
8.91405e-07
-3.39635e-08
-4.80955e-08
5.42602e-05
-2.36607e-08
-2.60101e-08
-0.000116605
0.000905202
8.64854e-09
6.19202e-07
-1.98972e-08
2.84207e-08
-1.78413e-05
-3.89338e-08
3.438e-10
1.65288e-06
2.83002e-08
5.808e-06
-1.05332e-08
-3.21381e-09
-4.64851e-08
4.82837e-07
0.000143665
-4.51582e-08
-5.01635e-08
-2.84196e-08
-3.95839e-08
-2.50948e-08
-8.98231e-07
2.09069e-07
-5.62344e-10
0.000128009
-2.72972e-07
6.59852e-07
0.000185505
4.47223e-06
1.51115e-08
-3.68794e-08
-4.18763e-08
3.60027e-07
-3.46957e-08
0.000153636
7.78338e-05
-3.0779e-08
-0.00019643
-8.67768e-07
3.03641e-07
5.24002e-07
-3.24167e-08
2.25732e-06
-0.00023835
-4.60958e-07
0.000256376
0.000497301
4.13039e-07
-4.50288e-08
0.000532908
5.81326e-08
1.85163e-08
3.49844e-08
0.00131906
5.90548e-08
-2.67199e-08
-1.67786e-08
2.68933e-07
8.57122e-08
0.000420045
-4.40421e-08
7.46633e-06
2.22029e-07
6.14083e-07
4.03724e-07
5.00618e-08
4.88592e-08
-2.93077e-08
-5.10631e-08
1.67903e-05
-2.75413e-08
-3.09329e-08
1.09259e-08
-4.4031e-08
-1.27831e-08
2.23934e-07
5.4658e-07
-9.07266e-07
-1.76486e-06
-7.91734e-07
-5.72899e-05
1.007e-05
-8.06673e-09
-1.7479e-06
-0.000125363
-7.63044e-09
-2.63446e-08
8.04826e-08
-0.000100346
-4.9411e-09
2.66859e-07
-4.73141e-06
5.75078e-08
-3.22806e-08
6.55811e-08
3.52786e-08
3.7687e-07
-1.83235e-07
-2.61126e-08
0.000935184
-0.000114235
-1.55271e-07
3.73479e-06
4.14011e-07
-9.44969e-06
-4.50493e-08
5.94666e-08
-1.42955e-05
-1.20347e-06
4.08436e-07
6.12338e-06
6.19085e-09
5.02829e-10
3.06455e-08
-4.11288e-08
-3.18826e-08
-3.05595e-08
-1.7793e-07
-3.10946e-08
5.8706e-07
-2.61743e-08
4.57593e-08
2.95867e-08
8.78532e-08
5.15464e-07
9.93801e-06
-3.28852e-08
-5.61884e-08
2.98328e-08
9.01747e-06
-2.27045e-08
-2.21637e-07
-1.75381e-08
7.16246e-07
0.000685626
5.36827e-07
-3.19436e-08
5.57768e-07
-4.0648e-08
9.00366e-09
0.000836246
1.7804e-08
-3.75988e-08
7.32435e-08
5.68043e-08
-0.000233285
-3.2023e-08
-1.46571e-07
6.61007e-08
-2.43884e-08
-3.89697e-07
-5.1938e-08
-1.61404e-08
-3.75631e-08
0.000515952
-1.45453e-08
8.56329e-07
8.5511e-05
2.71235e-07
0.000139632
-1.73131e-08
-1.60734e-08
-5.63922e-08
0.000443345
7.14965e-08
-1.45034e-07
2.56568e-07
-0.00155594
-2.91405e-08
-2.2177e-05
1.76753e-07
2.97719e-07
-9.31376e-09
2.88262e-09
5.13598e-07
-3.84219e-08
2.31529e-10
-6.94505e-08
2.02515e-08
-3.28986e-08
1.74632e-08
4.19349e-07
3.36978e-07
-0.000265556
1.09528e-07
4.29794e-07
5.63445e-07
4.38541e-05
2.26531e-07
2.28963e-07
-0.000115662
1.85739e-07
-0.00227964
-4.83408e-08
1.51562e-05
-6.40877e-05
2.71357e-08
-3.8174e-09
-2.63841e-08
5.33145e-08
3.75662e-08
3.32227e-08
-1.12701e-08
3.85623e-07
5.82382e-09
2.32877e-07
0.000633689
-7.3361e-08
3.5711e-09
0.000494689
8.0349e-09
0.000114541
6.37424e-08
8.1771e-07
-2.76331e-08
0.000591208
8.17232e-05
-4.11746e-08
4.98391e-08
-0.000112192
-4.3747e-08
-4.86288e-05
-2.59889e-08
2.87261e-08
0.000108511
3.61323e-08
4.87353e-07
-0.000381469
-2.22087e-08
2.27539e-07
3.36577e-08
5.9052e-09
-3.05562e-08
-9.53633e-05
1.11325e-05
-3.86585e-08
5.49828e-08
-3.4482e-08
-1.85169e-08
1.2121e-07
0.000454029
-4.05681e-08
-3.34599e-06
-7.16912e-06
6.15745e-07
-1.53842e-06
3.42358e-08
4.47908e-07
-2.26288e-08
-3.21017e-08
-2.25991e-08
3.9131e-07
0.000643412
-3.28705e-08
-4.1439e-08
8.99945e-05
1.59439e-06
-1.10076e-06
1.39176e-07
-4.22384e-08
-4.56772e-09
-1.21645e-08
3.82528e-05
3.39212e-07
2.04466e-09
5.14632e-08
7.04546e-09
1.12409e-09
-4.09322e-08
2.24923e-08
4.21096e-07
2.32601e-07
9.24503e-05
-7.53756e-07
-0.000311922
7.2464e-05
-6.13486e-08
3.02204e-07
-2.08325e-08
-1.9878e-08
0.000574262
-4.32684e-08
-4.64315e-08
3.15642e-07
4.27846e-07
-4.7291e-07
-0.000128778
7.03479e-07
-5.88264e-09
0.00035345
9.5604e-09
4.63705e-10
5.29664e-08
-7.77248e-12
5.64311e-08
6.4798e-07
-9.86567e-05
-6.28989e-09
-2.7816e-05
-4.05692e-08
1.4399e-08
-4.31585e-08
-4.55857e-06
4.67687e-09
6.90146e-08
0.00252737
-2.72342e-08
1.23606e-06
6.49709e-05
-5.14888e-09
-3.65721e-07
-2.5458e-08
5.17224e-05
2.81222e-07
-5.42943e-08
-0.000138935
3.01043e-07
-1.44526e-07
2.94891e-09
4.7332e-05
1.31246e-07
3.52322e-06
7.83371e-08
-3.2645e-08
0.000392601
2.8334e-09
-2.38885e-06
-4.2463e-08
2.00187e-07
-1.45406e-07
-5.46584e-09
-6.6293e-05
-4.58336e-08
5.50954e-07
2.15441e-07
-2.57611e-06
1.79886e-07
1.88877e-07
-4.16597e-08
6.73085e-05
-1.37448e-07
8.88145e-05
-1.53518e-07
4.00923e-07
-2.18194e-08
2.50498e-08
-3.23679e-08
3.47386e-07
2.06445e-06
-4.68016e-08
-1.88619e-08
2.63658e-06
1.18881e-08
1.4985e-06
-7.87541e-09
-2.5879e-05
6.05879e-07
3.91124e-08
-2.89963e-08
-2.92764e-08
-1.70787e-08
1.40779e-09
3.35092e-07
-1.73993e-07
9.88461e-08
-2.07761e-08
-2.09642e-08
-3.06247e-06
7.24627e-08
4.7298e-08
1.32419e-06
-3.20242e-08
-0.000466214
3.13425e-07
1.58306e-07
-5.90661e-07
0.000621087
1.77832e-06
-7.48421e-05
0.00026993
-3.06818e-08
-6.38898e-06
-0.000122945
5.59193e-07
-1.2808e-08
-3.03226e-08
5.2274e-07
-0.000148004
0.000106326
-5.13625e-07
7.99832e-08
7.29703e-07
1.87809e-07
8.27278e-05
-3.35434e-06
2.51037e-07
6.33807e-07
-3.98554e-08
6.26598e-08
3.82567e-07
-1.46347e-08
2.86344e-07
0.000298685
-1.39396e-08
1.56215e-05
-2.29295e-09
2.33101e-08
0.000373472
0.000650498
-2.32304e-08
8.20315e-08
-5.6559e-08
-1.34047e-08
6.1225e-09
6.48025e-07
6.69356e-08
-2.55432e-08
-1.79694e-08
2.51805e-07
1.00548e-08
9.97686e-09
1.6771e-06
-2.94072e-08
0.000647124
-7.82771e-05
0.000589196
-3.66376e-08
2.08312e-07
-8.93319e-07
1.39993e-07
-8.39875e-05
1.07563e-07
-0.000167066
-4.83648e-08
0.00247021
9.25847e-05
-1.82337e-08
-2.50175e-08
1.75141e-07
0.000292494
-8.08502e-05
3.66073e-08
-4.0506e-08
0.000222247
7.86381e-05
-0.000491781
-2.41719e-08
-9.95653e-10
1.51856e-06
-4.20504e-08
0.000183507
-0.000828823
6.98909e-07
-0.000212472
-3.18467e-08
-3.40999e-08
-2.67311e-08
-9.56962e-08
0.000244207
2.34915e-07
9.33661e-08
-3.37797e-08
8.69247e-08
-1.10019e-05
2.5178e-07
3.17951e-05
-0.000129777
0.000158309
-4.78871e-07
-2.38517e-08
-1.17826e-08
-2.68151e-05
-2.19183e-09
1.79135e-08
-4.96777e-08
-4.36955e-06
1.65523e-07
-0.000301733
3.16449e-07
-2.6251e-08
0.00117554
2.02752e-07
-1.28741e-08
-6.44929e-05
1.4407e-07
2.97727e-07
4.89668e-08
-7.49325e-05
0.000927745
-9.55181e-09
-0.00414323
-1.4049e-05
0.000571091
-0.000467142
5.53956e-08
-3.35543e-08
-8.38099e-09
9.76195e-06
1.5321e-08
-6.9771e-05
9.89439e-08
6.99794e-05
1.26996e-06
-2.80394e-08
-4.91248e-08
-3.12702e-08
-3.98059e-08
0.00014398
9.78113e-05
-1.46392e-08
-0.000112227
2.61973e-07
-4.27615e-08
-2.48268e-08
-2.8277e-08
8.18645e-07
-5.22047e-08
6.39231e-07
5.98734e-08
-3.09888e-08
-2.99067e-08
1.23431e-07
0.000383655
1.88625e-07
-4.35321e-08
1.37167e-07
-3.13077e-08
4.53761e-09
1.45916e-07
-4.29722e-05
0.000141522
0.000547592
-9.77122e-09
-2.70151e-08
-4.35979e-08
4.64614e-07
-2.3923e-08
-4.53705e-08
6.49006e-07
3.48338e-07
8.7171e-07
2.60351e-08
0.00107439
0.000135562
-3.02189e-09
-4.34577e-05
5.39691e-07
2.22692e-07
7.21313e-08
-4.69429e-08
-0.000259756
2.38012e-08
-4.19667e-08
-3.11704e-08
-4.99419e-10
6.13877e-07
1.24609e-07
7.03549e-08
2.23538e-07
7.51532e-05
0.000149943
-3.58474e-09
-3.0694e-08
-2.28123e-08
-2.58458e-08
4.56409e-07
-4.2873e-08
1.85899e-07
1.08408e-07
0.000631261
5.12672e-08
5.42847e-05
-8.47133e-09
0.00142921
1.6217e-08
2.99309e-09
0.000803835
2.26743e-07
-1.72898e-07
1.46974e-06
-3.63849e-08
2.16802e-07
2.20952e-08
0.000373868
-1.84451e-08
-2.24385e-08
3.63217e-07
3.57422e-07
5.75443e-05
-0.000117281
3.68971e-07
-5.49199e-05
3.16781e-07
7.77229e-07
5.75877e-08
1.2592e-07
1.78386e-07
0.000874582
1.07318e-07
0.000927199
0.000209847
4.88739e-08
-4.1862e-08
-4.26187e-08
1.09472e-06
6.86219e-07
3.97092e-08
-1.80805e-08
-3.91117e-08
1.36072e-08
1.85866e-07
-7.79443e-08
-6.66251e-06
-2.23137e-08
-8.06543e-06
2.01098e-07
0.00048223
2.68561e-07
-4.74525e-08
-4.94474e-09
0.00132285
-2.8517e-08
2.76749e-07
-0.000183377
-4.4395e-08
-1.96238e-08
6.90953e-07
2.49286e-07
-3.82943e-08
0.00018068
9.08471e-09
6.95322e-07
2.50862e-07
9.27645e-08
4.63456e-08
0.000684989
-2.44951e-08
8.48734e-08
1.67948e-06
0.000450903
2.25603e-07
1.47143e-07
9.22238e-08
-1.39951e-08
-2.01257e-09
0.000565463
1.17052e-08
2.50182e-08
5.10151e-08
-1.96995e-08
-9.60091e-10
4.65239e-06
-2.20592e-08
-1.54427e-08
-4.17407e-08
5.31035e-07
-3.46017e-08
9.11896e-09
4.18274e-07
5.76757e-07
3.74413e-07
-4.45573e-09
-2.28875e-06
-4.80939e-07
4.43998e-07
1.67843e-07
-6.90455e-07
6.20427e-07
-3.85017e-05
5.75446e-08
-9.40161e-10
-8.16502e-05
-5.18074e-05
-6.16201e-10
4.16798e-09
-1.65295e-09
6.87475e-07
1.93648e-07
4.99093e-08
-6.05464e-07
0.00101744
-2.23161e-08
-2.93481e-08
-0.000117573
0.000223225
3.57342e-07
-1.2174e-09
-0.00846817
4.91022e-05
4.67934e-06
-2.5507e-08
0.000833494
3.87076e-07
-9.3546e-08
0.000118764
-9.77558e-10
-1.67075e-09
7.3864e-08
1.85301e-07
1.30898e-07
-0.000146611
0.0011998
-1.94264e-08
6.99203e-05
4.13987e-08
-0.000127487
-6.04506e-09
7.18518e-07
-4.30999e-08
-3.28735e-08
0.000634253
4.21889e-06
1.13878e-06
8.45865e-06
-1.54108e-07
2.64773e-07
7.28546e-08
0.000957266
0.000114478
-3.68632e-08
-4.65388e-08
1.20378e-08
3.90022e-08
3.12748e-07
0.000536728
0.0442019
2.7324e-07
-5.27608e-09
4.87699e-08
0.000589786
-2.29961e-08
2.94721e-07
-1.48444e-08
-4.77979e-08
3.23616e-07
1.79334e-05
1.17132e-06
-7.30881e-06
-1.21105e-08
1.03168e-06
1.02865e-07
-8.71676e-08
-0.000885741
-0.000103834
-2.13473e-08
4.15494e-09
2.10787e-07
-2.72323e-08
-2.97693e-08
0.000548549
0.00107894
1.18149e-08
2.7791e-08
-9.82539e-09
-2.50994e-08
9.56749e-06
2.14137e-08
-0.000118916
3.53472e-07
3.57501e-07
-1.02147e-08
1.16795e-07
0.00139961
1.76527e-07
-2.08779e-06
-0.000130349
-4.36778e-08
0.000563888
-9.88562e-08
-1.39926e-07
-3.39386e-06
0.000242214
-0.000112278
3.82529e-07
-3.20069e-08
-7.29307e-07
2.13432e-08
8.59698e-09
-3.74521e-08
-0.000116292
-6.34436e-08
-1.90561e-05
8.39399e-07
2.25808e-07
-1.74805e-08
9.97066e-07
1.39685e-07
1.60731e-10
2.11832e-07
4.37711e-09
2.28067e-07
1.18289e-07
-3.59461e-08
-0.00576315
-4.89159e-08
7.24194e-06
-4.01789e-08
-2.78373e-08
0.000187384
0.000196252
-2.23918e-08
-1.98494e-07
2.4034e-07
1.06365e-07
3.84769e-07
1.01089e-07
-4.11478e-08
-3.75397e-08
4.23876e-07
-2.89389e-08
-8.79123e-05
-4.27941e-07
6.80838e-07
4.31805e-07
3.16647e-08
0.000437266
4.93322e-10
-0.000313953
2.81204e-08
0.000483384
-3.72321e-05
0.000260684
3.64213e-05
7.81208e-07
-1.58417e-07
3.9461e-08
0.000515445
-2.01938e-08
-2.87818e-08
1.70436e-05
7.41385e-05
-3.43188e-08
3.93019e-08
5.71848e-08
5.74926e-08
1.69097e-07
0.000617619
-2.61425e-09
1.56277e-07
2.06025e-07
-4.18203e-08
-1.43905e-08
4.30728e-07
1.26642e-08
-7.90641e-05
-4.03707e-08
3.53853e-07
5.69936e-08
1.952e-07
1.53028e-07
4.36344e-06
1.74881e-07
-2.22175e-08
3.95068e-06
-0.000143609
-0.00595679
3.7391e-08
-2.78535e-05
2.99581e-08
2.93961e-05
-1.48679e-09
-4.68011e-08
0.00042107
3.31446e-07
-9.30425e-05
0.000187498
-8.12042e-09
0.00140713
-3.81243e-08
1.6326e-08
0.000153881
-2.27513e-06
-4.04744e-08
0.000231772
4.67454e-10
-1.8494e-07
6.57139e-08
2.26715e-07
-2.31434e-08
5.50269e-06
-8.53195e-05
-9.33878e-05
1.03942e-06
7.70191e-09
8.54374e-08
-0.000116847
-5.00732e-08
-3.61574e-08
-2.72331e-08
5.99157e-09
1.7504e-07
0.000232213
0.000115011
0.000212777
3.55703e-07
3.69089e-08
0.000641416
7.21399e-09
4.03529e-07
-6.51875e-09
0.00080476
-4.13163e-08
-2.12258e-07
0.000252476
4.20795e-07
-2.3979e-08
2.30614e-07
-0.000665451
-3.34964e-08
4.48233e-07
-5.98724e-09
-0.000372826
0.000831526
5.10095e-07
-1.13502e-07
-2.60108e-08
6.52519e-07
4.9845e-07
1.94989e-07
-5.32865e-09
4.85884e-08
-2.0302e-08
3.61333e-07
-1.538e-08
4.21299e-07
-1.34169e-09
3.01167e-08
0.00263034
-7.49937e-09
-2.21421e-09
8.28287e-08
9.98017e-10
0.000223176
-1.64941e-08
-3.26117e-08
0.00064685
3.16755e-07
-7.55943e-05
-3.27662e-08
0.000756391
3.27671e-07
0.000249933
-4.31688e-08
5.3124e-07
6.04836e-08
2.14615e-07
4.50219e-07
4.88084e-07
4.21198e-07
0.000900492
2.26244e-07
-3.62293e-05
-9.47429e-08
5.21048e-07
5.6709e-08
8.89795e-06
-1.92333e-08
6.4305e-08
-3.20517e-08
3.43496e-07
-7.89997e-08
-1.57781e-06
3.36343e-07
2.82009e-05
-3.80415e-05
3.39599e-06
-4.23061e-08
1.37491e-05
2.26399e-07
-3.85762e-08
-2.41473e-08
-3.88676e-08
1.38721e-05
-3.30185e-08
8.92472e-05
-1.09183e-08
1.05986e-07
0.000376519
1.35527e-08
-2.96296e-08
-3.19777e-08
0.000514545
-1.99497e-08
-4.63768e-08
8.58166e-08
-1.09007e-07
1.92619e-08
-4.72587e-08
5.16559e-07
2.02705e-07
-1.43399e-07
3.95758e-07
-0.000104682
0.000245255
0.000558433
-1.2012e-08
-3.4413e-08
5.44262e-08
3.67508e-08
-8.71013e-07
-1.93081e-05
0.000249869
1.39792e-09
-1.32508e-08
5.44564e-05
1.41964e-06
-2.9441e-09
-2.01218e-08
-8.29953e-08
0.000507134
-0.000116891
8.46579e-09
5.03317e-08
-9.76652e-09
2.86533e-07
4.76172e-07
-1.13941e-07
3.06276e-08
-1.52878e-07
-3.76569e-08
2.13357e-07
5.62805e-07
-2.92952e-08
-8.55202e-09
1.60781e-09
-0.000236024
-5.03298e-08
-5.30603e-05
-1.82933e-08
0.000432104
-9.8034e-08
-4.53316e-07
-1.68559e-08
-2.6943e-08
-5.17386e-07
0.000180645
-7.43718e-07
6.62373e-05
0.000888441
-4.31153e-08
0.00063724
5.12135e-07
2.8291e-08
1.6802e-05
6.83363e-07
5.05069e-07
-2.32858e-09
0.000136984
-0.00012438
3.49445e-08
2.10656e-07
0.000156051
-4.88059e-08
-4.23734e-08
8.33699e-09
2.48423e-08
7.61774e-08
2.37151e-07
3.35109e-07
-1.02578e-06
9.56473e-08
7.594e-09
-4.40748e-08
0.000175977
-1.66606e-08
-1.57261e-07
1.10181e-07
8.11621e-08
2.48602e-07
-2.55268e-08
-4.93118e-08
2.37257e-07
-2.46634e-08
0.000429069
-2.54002e-08
0.000252059
0.00018667
2.81077e-07
-4.53627e-08
3.25628e-09
0.00102965
-7.16162e-10
-1.72976e-08
-3.45124e-08
4.92054e-07
8.65299e-06
1.31683e-07
0.00018692
-4.33094e-08
-2.33568e-06
-1.97778e-08
4.01008e-07
4.17373e-08
-1.64282e-08
-9.6488e-05
0.000251805
-1.70519e-05
-3.02671e-08
3.61839e-07
3.53845e-07
-0.000119646
0.000609617
1.08118e-06
3.80872e-08
8.33701e-09
0.000921203
-1.93443e-08
-1.67363e-09
3.21385e-07
4.90847e-07
-2.01247e-07
3.13195e-07
4.17778e-09
-1.48495e-07
1.92551e-08
0.00133373
2.66062e-08
-2.58537e-08
-0.000104385
3.89806e-07
8.65711e-11
9.41353e-05
-2.27332e-08
-1.8281e-08
6.35984e-07
3.37636e-07
0.000125244
-9.68266e-09
-1.08964e-08
-3.1005e-08
-1.22441e-05
-2.24751e-08
2.10061e-06
1.78007e-05
0.000206186
7.35662e-05
0.000310326
1.08336e-07
0.000711297
-9.63654e-07
-1.04546e-08
1.02226e-07
-5.80728e-07
-1.11983e-08
-1.15764e-06
0.000637784
6.8203e-05
9.23472e-05
1.31088e-06
-4.18357e-08
4.73962e-07
-2.38133e-08
-0.000137423
4.22925e-08
5.29852e-08
4.1382e-09
-9.87382e-09
-2.51299e-08
4.25743e-07
0.000183036
-1.26327e-08
-1.55599e-08
-2.74177e-08
0.000622346
-9.63906e-09
0.00224534
-0.000114436
-1.5566e-05
-1.78036e-08
-2.75629e-08
0.000385235
-4.39279e-07
-1.45879e-08
1.21256e-05
-5.28286e-09
-9.92713e-08
8.43576e-08
3.82527e-07
3.31025e-07
0.00438658
-1.45464e-08
1.22499e-08
5.20299e-07
6.51837e-05
1.15623e-08
-9.7397e-08
-3.4614e-08
4.47265e-05
-2.9984e-08
-2.82501e-08
-2.04689e-08
-3.32329e-08
-0.000199193
0.000556482
5.05146e-06
3.46082e-07
0.00115025
8.63203e-06
-3.27812e-09
1.33593e-07
-4.22551e-09
-6.12512e-07
3.31181e-08
-3.85558e-08
-3.32194e-08
-2.72174e-08
7.61162e-09
0.000183849
6.28315e-08
-1.41723e-06
3.23702e-08
-4.48749e-09
1.57907e-07
-1.9748e-07
-2.39006e-08
1.29945e-07
2.0765e-07
-1.33036e-07
0.00241008
-2.75346e-08
0.00023027
1.67476e-07
-1.13441e-07
6.41589e-08
-3.04503e-08
0.00012055
-5.66609e-06
3.01783e-08
-4.88158e-09
4.33047e-07
3.60853e-07
6.57048e-09
0.00054621
-4.80626e-08
5.43742e-07
1.50168e-07
-6.41441e-09
3.09898e-05
4.94893e-08
-5.74369e-05
-2.92956e-08
-2.63621e-08
-1.85595e-08
0.000524056
0.000218164
-2.57509e-09
-3.55513e-07
7.95944e-07
-2.31928e-08
-4.63894e-09
-9.51484e-09
-1.61119e-06
0.000627309
6.98449e-08
8.99284e-08
2.12934e-07
-2.49243e-08
-3.87047e-08
8.11246e-11
-2.3816e-08
6.24075e-07
-3.50517e-08
4.01202e-07
7.91155e-06
9.21982e-08
-6.67432e-10
6.08092e-06
3.97212e-07
-2.46188e-08
3.95086e-08
1.13264e-07
3.43787e-06
-9.83272e-08
0.00255645
1.9983e-07
-4.04283e-08
1.72426e-07
1.95527e-07
2.14185e-08
0.00227983
3.89224e-07
1.6184e-07
5.20146e-06
-3.42537e-08
2.65232e-07
-4.88164e-07
1.43566e-07
-2.82068e-08
-4.01942e-08
1.16387e-09
3.7527e-07
3.73866e-07
3.66764e-07
4.85611e-05
-8.65675e-05
-0.000116287
-1.64095e-09
4.74623e-06
0.000142245
0.000543815
-3.35976e-08
-4.20228e-08
3.38814e-07
-4.06183e-05