/*--------------------------------*- C++ -*----------------------------------*\
| =========                 |                                                 |
| \\      /  F ield         | OpenFOAM: The Open Source CFD Toolbox           |
|  \\    /   O peration     | Version:  v2012                                 |
|   \\  /    A nd           | Website:  www.openfoam.com                      |
|    \\/     M anipulation  |                                                 |
\*---------------------------------------------------------------------------*/
FoamFile
{
    version     2.0;
    format      ascii;
    class       volVectorField;
    location    "700";
    object      ddt0(U);
}
// * * * * * * * * * * * * * * * * * * * * * * * * * * * * * * * * * * * * * //

dimensions      [0 1 -2 0 0 0 0];


internalField   nonuniform List<vector> 
13917
(
(0.00196064 0.000812553 2.57084e-18)
(0.000413284 0.000485997 4.41528e-18)
(0.00117632 -0.00352319 1.02141e-17)
(0.000757678 -0.000749622 3.91802e-18)
(-7.48454e-05 0.00038337 -3.45957e-18)
(0.000131687 0.00396455 -1.01796e-16)
(0.00152477 -0.00311799 -1.6098e-19)
(0.000931621 -0.00272792 -1.29477e-18)
(-0.00242031 -0.00545938 -8.9267e-18)
(0.00290848 0.00101949 6.97273e-18)
(0.0010551 -0.00226174 5.6722e-18)
(0.000751245 -0.00161996 -8.93527e-18)
(0.000929019 -0.000767809 -1.00783e-17)
(-0.00263068 -0.000729433 4.67849e-18)
(0.00066277 0.00146976 1.58824e-19)
(0.00072867 0.00121815 5.33673e-18)
(0.000419791 0.000616203 5.05448e-18)
(0.00217851 -0.00118344 2.85956e-18)
(0.00071378 -0.00159501 8.22003e-18)
(-8.51945e-05 0.000108774 1.72429e-18)
(-1.57801e-05 4.81756e-05 2.87889e-18)
(0.00116371 -0.00314069 2.58906e-18)
(-7.01092e-05 0.000217293 -9.77066e-19)
(0.00150263 -0.00277727 -8.18261e-18)
(-4.22465e-05 0.000537887 -1.10472e-17)
(0.00143427 -0.00216139 -6.87959e-19)
(0.000265749 0.00254655 -3.99535e-17)
(0.000287835 0.00278818 3.37449e-17)
(0.00157343 0.00476987 -2.75184e-18)
(0.00371618 -0.000224524 2.79133e-18)
(0.00209253 0.000582014 1.19311e-18)
(0.00134043 0.000658833 9.71441e-19)
(0.000244043 0.00231401 -8.8639e-18)
(9.34675e-06 0.00169311 1.76819e-17)
(-3.93548e-06 0.00060544 2.1985e-18)
(0.000452231 -0.00254463 -4.26926e-18)
(-7.78064e-05 0.000207871 -7.17585e-18)
(-0.00260388 -0.000991714 2.52409e-18)
(0.000932011 -0.000897661 4.44958e-18)
(0.00143025 -0.00100883 7.63385e-18)
(-9.38049e-05 1.04586e-05 -1.60661e-18)
(6.52893e-06 1.7557e-05 -3.021e-18)
(0.000242919 -6.6278e-05 1.01502e-19)
(0.000449639 0.00315903 -3.60701e-17)
(0.000534955 3.06013e-05 6.81785e-20)
(9.4048e-05 0.00186185 -9.04407e-18)
(0.00198225 -0.00119193 -2.91315e-18)
(0.00208869 -0.00179842 2.66821e-18)
(0.000618234 0.0049061 7.29024e-17)
(-0.000138342 1.39576e-05 -2.6892e-19)
(0.00235167 -0.000612543 8.6666e-19)
(-2.58223e-05 0.00107429 -7.25167e-18)
(0.00184032 0.00731384 -4.24565e-17)
(6.83351e-05 0.00173114 -3.03914e-18)
(0.000420622 0.000626767 -4.39316e-18)
(0.00088674 -0.000277003 -1.56356e-18)
(0.000597266 -0.00226099 -2.04953e-18)
(0.000174061 0.000681617 -4.27432e-18)
(0.0011037 -3.32708e-05 -1.04575e-18)
(0.000481343 4.29987e-05 -9.95284e-20)
(-0.0115349 -0.00048993 -1.39877e-17)
(0.000417583 0.000470312 -2.77636e-18)
(-0.00169886 -0.000522374 -3.58872e-18)
(-9.59675e-05 0.000117926 -1.34397e-18)
(0.000138601 0.00407397 6.19201e-17)
(0.00055543 0.00248929 -1.93477e-17)
(5.71165e-06 0.000409831 -1.57166e-18)
(-6.00708e-05 0.000648691 -2.12975e-18)
(0.00150888 -0.00264036 4.83922e-18)
(0.0017374 0.00118828 -3.07745e-19)
(-5.78178e-05 0.000366869 5.69983e-18)
(-0.000936645 -0.00570532 4.10875e-18)
(-0.0100575 -0.00204542 1.8333e-18)
(2.7809e-06 0.000520605 9.04677e-18)
(7.56844e-05 0.0046285 -3.85074e-17)
(0.000755663 -0.00156672 -7.08736e-18)
(-0.00645595 -0.00146916 2.35053e-18)
(0.000825663 -0.000103188 2.14767e-18)
(0.00147682 -0.00204452 6.93939e-18)
(-1.90887e-05 9.22468e-05 6.85949e-18)
(-5.50543e-05 0.000105548 -4.76436e-18)
(7.86394e-06 0.000387409 -4.23738e-18)
(0.000425422 0.00382102 -4.28845e-18)
(-0.0024197 -0.00102656 -1.45101e-18)
(-0.0100435 0.00110616 -1.12035e-17)
(0.000801864 -0.000111177 2.377e-19)
(-6.93944e-05 0.000117105 -3.7474e-18)
(0.00643493 0.00390176 3.42378e-17)
(0.00137793 -0.000623905 -4.25911e-18)
(0.000272499 -7.28638e-05 5.14886e-19)
(-0.00666398 -0.00252039 1.3623e-18)
(0.00347447 0.000566502 1.65177e-17)
(0.000290763 0.00020526 2.3096e-19)
(0.000369242 0.0011748 -9.77693e-18)
(-0.00551485 0.00456529 -1.47413e-17)
(6.29336e-05 0.00377785 -9.54501e-17)
(0.00129639 -0.00224429 -4.54181e-18)
(0.00206022 -0.00162821 -9.22735e-18)
(0.000547889 -0.00180522 -6.57584e-18)
(-0.000680343 0.00315895 -8.57725e-17)
(1.07248e-05 6.3023e-05 5.03057e-20)
(0.000161648 0.00215596 -9.51324e-17)
(0.000456339 0.00314193 2.49225e-17)
(0.000924644 -0.000284122 3.89795e-18)
(0.00010688 0.000110693 -2.14275e-18)
(0.000206457 -0.00460082 2.90217e-18)
(0.00148066 0.00432513 1.54057e-17)
(0.00178183 -0.00185168 -8.87238e-18)
(0.000430154 0.000593986 1.29819e-18)
(0.00264554 0.000825342 8.51103e-18)
(-0.0119401 0.000659473 2.45042e-17)
(0.00136555 -0.00105527 -7.4241e-18)
(0.000897986 -0.00172759 -3.95041e-18)
(-0.00112202 -0.00498574 -1.07237e-17)
(-6.31569e-05 0.00130679 9.17723e-18)
(-0.000418624 0.00465284 -5.4799e-17)
(-3.47805e-05 0.000367752 -9.87322e-18)
(3.40815e-06 0.00450921 7.22973e-17)
(-0.000875559 -0.00125118 -5.89443e-18)
(0.000179246 0.0017294 6.66044e-18)
(4.31473e-06 3.5047e-05 -8.69824e-18)
(0.00178627 -0.00263623 7.89707e-19)
(-0.00180094 -0.00125668 -4.58763e-19)
(0.000306821 0.00275444 -5.85139e-17)
(-0.000125399 1.10398e-05 -4.46993e-18)
(0.000342693 0.001143 -9.39187e-19)
(0.000443744 0.000136959 -7.21465e-19)
(-0.000140556 9.16461e-06 -1.48559e-18)
(0.000190943 -2.19582e-05 -1.60962e-20)
(0.000218265 0.00380615 7.70475e-17)
(-0.00107129 -0.0018413 8.56944e-18)
(3.04346e-05 0.00127995 4.69149e-18)
(0.000541219 3.91444e-05 -8.15562e-20)
(-2.72147e-06 3.97392e-05 -3.82517e-18)
(0.00430852 -0.00296259 1.33197e-17)
(0.00158443 -0.00300511 7.33832e-18)
(0.00213756 0.00090393 -3.0817e-18)
(-0.000148177 0.00326369 -7.27161e-17)
(-2.91635e-05 0.00042613 3.93744e-18)
(-1.19147e-05 0.00172478 -1.93171e-17)
(0.000546294 -0.00250512 -1.4745e-18)
(0.000440954 3.05336e-05 1.90158e-18)
(6.8789e-05 0.00115463 3.65352e-18)
(0.000317044 0.00326632 1.38877e-17)
(-4.12069e-05 0.000665852 9.33898e-20)
(0.00295952 -0.00511844 -5.77821e-19)
(0.00153104 0.00474145 -6.81385e-18)
(1.5366e-05 0.00106331 -4.30946e-18)
(0.000164347 1.27752e-05 -7.80048e-19)
(0.00135575 0.00081544 5.5164e-19)
(0.00129954 -0.0016252 1.997e-17)
(-0.000336765 0.00472692 1.4174e-17)
(0.000981919 -0.00193469 6.31062e-18)
(0.0015431 0.00183495 1.78257e-18)
(0.00133467 0.000175268 -2.84377e-19)
(-0.0077796 0.000133925 -8.014e-18)
(0.00163844 0.0012004 2.52844e-19)
(0.00078559 -0.00261574 6.69874e-18)
(-0.00661131 -0.0012353 -1.79497e-18)
(0.00448495 -0.00290133 -9.64568e-19)
(0.000242612 0.00148891 -4.0586e-18)
(-0.000251203 0.00251739 5.7502e-17)
(-7.25781e-06 7.81124e-05 -1.11388e-18)
(0.00115588 -0.00220733 -3.27298e-19)
(0.000556374 -0.00172749 -5.30382e-19)
(0.000528185 -0.00180852 4.31207e-18)
(0.000918252 -0.000261681 -2.33379e-18)
(0.00172254 -0.00166189 -7.364e-20)
(0.00038886 5.69082e-05 1.79414e-19)
(-6.219e-06 0.00221075 8.27108e-17)
(0.00162589 0.00167895 4.6036e-19)
(-0.00836561 0.000646671 5.19655e-18)
(0.00111324 -0.00171965 6.32961e-18)
(0.000498601 0.000748591 4.58387e-18)
(0.00167148 -0.00362621 5.567e-18)
(0.00151238 0.00205062 -4.86192e-18)
(-0.000968053 -0.00198924 -4.64976e-18)
(-1.54783e-05 0.00476122 -3.5854e-17)
(0.00276929 -0.00483469 4.22669e-19)
(0.000171516 0.000389088 1.04394e-18)
(0.00355025 0.000458494 1.08036e-18)
(0.0021904 0.000527584 -3.46315e-18)
(0.000426657 1.85667e-05 -1.81219e-18)
(-7.95283e-05 0.000131952 8.24844e-18)
(0.000668237 0.00185023 -8.20889e-18)
(0.00137901 -0.00223639 1.4379e-18)
(0.0056693 0.000526508 4.01286e-17)
(-0.0129929 -0.000648725 -4.06911e-18)
(0.00205631 -0.0005332 3.83502e-18)
(0.000797006 -0.00191536 1.12548e-17)
(0.00102335 -0.00254062 -3.3628e-18)
(-0.0132162 0.000964549 -5.88362e-17)
(0.00481751 0.00119299 -3.59283e-17)
(-7.8537e-05 0.000263051 -2.31909e-18)
(-0.000102623 0.00337523 -7.64729e-18)
(8.9643e-05 0.00249917 -6.86269e-19)
(-8.05339e-05 3.34677e-06 -1.43827e-18)
(0.000269274 0.000216829 -5.01618e-20)
(0.00141722 0.00391917 -1.42552e-17)
(0.00317657 0.00357039 1.28103e-17)
(0.00106526 -0.00080961 9.76056e-19)
(-0.00014588 1.26403e-05 2.8186e-19)
(0.00168329 -0.0015713 -1.08124e-18)
(0.00117257 -0.00160932 -1.89101e-17)
(-0.0101041 -0.00172903 7.85476e-18)
(0.00338588 -0.00386608 -1.10918e-19)
(-1.71863e-05 0.000593035 -5.03997e-18)
(0.000172225 0.000711165 6.106e-18)
(0.00201136 -0.00162686 -6.09563e-18)
(0.00166781 -0.00296762 -3.79929e-18)
(5.59215e-05 0.00113315 1.51471e-18)
(0.00139758 -0.00323704 -3.50841e-18)
(-0.0102239 -0.0012424 -2.45915e-18)
(0.00082907 -0.00192207 -8.39202e-18)
(0.000117046 0.000118008 -3.1036e-19)
(0.00158633 0.00463824 8.89828e-17)
(0.00186936 -0.00150953 2.83026e-18)
(-0.0117921 0.000226581 2.13392e-17)
(3.17001e-05 0.00040457 4.54406e-18)
(-0.00465712 -0.000941555 2.81357e-17)
(0.000163213 0.000382141 -4.46817e-19)
(0.00339115 -0.000647288 7.18691e-18)
(-9.51353e-05 1.32357e-05 7.40984e-19)
(-0.00251464 -0.00119257 8.10076e-18)
(9.97434e-05 -0.00427747 4.91484e-18)
(0.000772826 0.00123508 8.19708e-18)
(0.00328959 0.00421736 2.17954e-18)
(0.00141118 0.000135885 1.90875e-18)
(8.99185e-05 0.000121236 1.71202e-18)
(0.000453254 -0.00249469 -1.56166e-18)
(0.000825975 -0.00169454 -7.80979e-18)
(0.00201561 -0.000560733 7.15285e-21)
(0.00146318 -0.00343102 -1.68816e-18)
(-0.010212 -0.00103412 3.58472e-19)
(1.17473e-05 2.51603e-05 -1.42037e-18)
(0.00142337 0.000651583 -8.10365e-20)
(-0.00674778 -0.0028746 -1.74279e-18)
(-0.00609837 0.000190402 -6.41143e-17)
(-5.6938e-05 8.94019e-05 -2.78667e-18)
(-5.04659e-05 0.000157221 -8.51438e-19)
(0.00145124 -0.0010465 -6.30572e-18)
(0.00129735 -0.00234825 -1.02474e-18)
(-1.57961e-05 2.83985e-06 4.47256e-18)
(0.000474409 -0.0023039 2.65914e-18)
(0.00276235 -0.00178033 1.04633e-17)
(-0.000260619 0.00248654 -3.09663e-17)
(0.00194314 0.000639972 -3.45275e-18)
(-3.78178e-05 8.28869e-05 -6.98111e-19)
(0.00129648 0.00223482 7.6276e-18)
(-0.00888578 -0.00120028 7.71713e-18)
(0.000612515 -0.000341712 -1.46223e-18)
(0.00388186 0.000685431 -2.03455e-17)
(0.000133718 0.00335336 -4.49751e-17)
(0.00038927 0.000120639 -6.19465e-20)
(0.000175198 0.000678269 -5.12427e-18)
(0.00113144 -0.0017617 -4.36429e-18)
(0.00136498 -0.00113588 -7.92555e-18)
(0.00107337 -0.00189494 -3.63043e-18)
(0.000711483 0.00187303 6.57317e-18)
(0.000686493 0.00145509 -6.69455e-18)
(-6.3531e-06 5.04257e-06 -7.51087e-19)
(-0.00180778 -0.0011276 2.97468e-18)
(0.00680334 -0.00390007 1.35924e-17)
(0.000223776 -0.00213588 -6.98125e-18)
(7.86839e-05 0.00012688 -1.31079e-18)
(-0.0123628 -0.00121841 7.94418e-18)
(-0.00279993 -0.000792275 -7.07368e-18)
(0.000623899 -0.00259969 2.91836e-18)
(0.00139376 -0.00198678 -3.95699e-18)
(0.000765763 -0.00158419 -2.86601e-18)
(-3.15447e-05 0.000101409 3.49466e-18)
(-0.000126249 1.22186e-05 2.2191e-18)
(0.00204877 -0.00125898 -1.12667e-17)
(-0.00325963 -0.00144046 5.96987e-20)
(0.00200666 -0.002387 1.656e-18)
(0.00115164 -4.64998e-05 4.09992e-18)
(0.0033683 -0.00397272 -2.6771e-18)
(0.000953861 -0.00132232 2.97598e-18)
(0.000190173 -1.78653e-05 -3.60622e-19)
(0.0109171 -0.00153042 -1.3186e-17)
(-8.66689e-05 0.000100955 1.57909e-18)
(0.00150637 -0.00358369 -2.68785e-18)
(0.00105724 -0.000786539 -3.91542e-18)
(-4.17477e-05 2.87914e-06 -3.06297e-18)
(0.00089246 0.00136993 -2.28133e-19)
(0.00143548 0.00186069 -1.84042e-18)
(-0.000243008 0.00250595 3.53542e-17)
(0.000366999 -0.00234926 4.45986e-18)
(0.00108243 0.00166505 -2.76728e-18)
(0.000617802 -0.000252631 2.20338e-19)
(0.00513342 -0.00228303 1.73328e-18)
(0.00148854 -0.00329811 3.39642e-18)
(0.00462232 -0.00414821 7.55331e-18)
(2.14891e-05 0.000400156 8.27752e-18)
(0.000602987 -0.00284338 -1.18357e-18)
(-2.43283e-05 0.000251487 -1.60329e-17)
(0.000608481 -0.000269901 -2.36588e-19)
(-3.91498e-05 0.00034968 1.0465e-17)
(0.00210199 0.00519603 3.63223e-18)
(-0.000130638 1.66674e-05 2.96492e-18)
(0.00358616 -0.000675676 -2.7247e-18)
(0.00189099 0.000667712 1.97352e-18)
(0.000389057 4.72734e-05 -1.25299e-18)
(0.00163702 -0.00160353 1.25679e-18)
(0.00074281 0.000479039 1.74744e-19)
(-0.000518584 0.00504845 -5.69145e-17)
(0.00150935 0.00201708 2.73487e-18)
(0.00335732 0.00054301 -3.85957e-18)
(0.000673693 -2.71722e-05 2.66196e-19)
(0.000156593 0.000674962 3.67502e-18)
(-0.0114944 0.000566179 -1.74655e-17)
(-0.00227934 -0.00113881 -7.56826e-19)
(-2.24794e-05 0.000372674 6.40999e-18)
(-0.000111661 1.20321e-05 2.44284e-18)
(0.0114753 -0.00113499 8.90652e-18)
(0.000202374 0.000325332 -1.26238e-18)
(-0.00970505 -0.00229417 2.76237e-18)
(0.000567779 -1.5562e-05 -3.65214e-20)
(-0.00242966 -0.0012817 -7.28006e-18)
(0.000701584 -0.000567248 -2.52426e-18)
(0.0039311 0.00317771 1.01907e-17)
(0.00150578 -0.0010004 6.29204e-19)
(0.000629912 0.00503109 -1.07361e-17)
(0.000267867 0.00145239 1.52179e-18)
(0.00484806 -0.00268569 -5.82638e-18)
(0.00160271 0.00422204 1.90083e-17)
(0.000910827 0.00128317 4.73252e-18)
(0.00132284 -0.00235422 4.34803e-18)
(0.00198617 0.00447663 -1.42624e-18)
(0.00030156 0.000829047 -3.60538e-18)
(-0.00227295 -0.00154337 -4.31459e-20)
(-0.000100156 0.00338793 -3.53351e-17)
(-0.00288468 -0.000835098 6.65959e-18)
(0.000125686 0.00162347 -2.24563e-17)
(0.000556015 -0.00104812 -5.65369e-18)
(0.00153601 0.000582459 5.4475e-19)
(-0.0146264 0.000501714 4.64034e-19)
(0.00132328 0.00396043 1.18341e-17)
(0.00133344 0.00332011 -1.63056e-17)
(0.00131993 0.0032524 -7.14615e-18)
(0.00109863 -0.00334583 -3.46317e-18)
(-3.7971e-05 0.000129419 6.31008e-18)
(0.00178731 0.0016897 3.29351e-19)
(-0.0128596 0.000568187 1.55731e-17)
(0.000138869 0.000896077 3.88872e-18)
(0.000606576 0.00100925 -7.0599e-18)
(-0.00275476 -0.0008252 -3.2121e-18)
(0.00125434 0.0040148 9.01441e-18)
(0.000508462 0.000652088 -5.02741e-18)
(0.000938691 -0.0025219 1.00099e-19)
(0.00175628 0.00471855 -1.03428e-17)
(-2.97787e-05 6.42917e-05 -2.68257e-18)
(-0.000949483 -0.00113844 7.89449e-18)
(0.000733478 -0.00257758 -5.65792e-18)
(-9.59149e-05 0.000109076 4.61872e-18)
(2.3986e-05 0.000198148 -1.84487e-18)
(-1.47673e-05 0.000233108 1.44856e-17)
(0.000121284 1.64799e-06 1.37018e-18)
(0.00485542 -0.00233433 -4.45141e-18)
(0.00243765 -0.00430167 3.98614e-18)
(-0.000724822 0.00405513 -8.86493e-17)
(-0.01191 0.000667368 1.04554e-17)
(-1.61911e-05 0.00045775 3.4597e-18)
(0.00412327 0.000669311 1.55564e-17)
(-0.00083034 0.000821997 6.3019e-17)
(0.00146645 -0.00130811 3.15339e-18)
(0.00127119 -0.00320612 7.95268e-19)
(-0.00318502 -0.00165536 1.12878e-18)
(-0.00125086 -0.00459585 5.73247e-18)
(3.93582e-05 4.38872e-05 1.11694e-18)
(0.000121828 -0.00211842 5.96761e-18)
(1.24815e-05 0.00017735 -2.42245e-18)
(0.00271915 0.0015987 -1.85474e-17)
(0.000472592 5.88075e-05 5.15042e-19)
(0.000953733 0.00572938 1.85151e-17)
(0.00282527 -0.00176694 -2.23741e-17)
(0.000920829 -0.000788853 3.52389e-18)
(-5.12801e-05 0.00015914 -1.47065e-18)
(0.00196688 -0.00156824 -3.14599e-18)
(0.00372273 0.000462588 -3.86238e-18)
(0.00216215 -0.00164038 7.36356e-18)
(-0.0124029 -0.00218567 -1.76005e-17)
(-0.012237 0.000615342 3.74318e-17)
(-0.011966 1.03295e-05 6.8705e-18)
(0.0014095 0.00228252 6.30866e-19)
(0.00268841 0.000987306 -6.48994e-18)
(-6.108e-05 0.000151544 -1.1981e-18)
(-0.0070196 0.000160238 5.23848e-17)
(0.00110852 -0.00271144 -1.9529e-18)
(0.000202822 0.000672925 9.13695e-19)
(0.00519469 -0.00256764 1.86602e-17)
(-1.47097e-05 0.000476429 2.46676e-18)
(0.00379848 -0.00317537 1.61075e-17)
(0.000742172 -0.000556035 1.4882e-18)
(-4.14296e-05 0.00011125 5.04974e-19)
(0.000767451 0.000571547 1.93913e-18)
(0.00150642 -0.00155138 -1.39691e-18)
(0.000767119 0.000588545 1.00636e-18)
(0.00138799 -0.00119237 -3.49145e-18)
(-0.00653308 -0.00107556 -1.61651e-17)
(0.000986855 -0.00213665 -1.913e-18)
(0.000364267 0.00353208 -3.4568e-17)
(0.000304481 0.000802861 -7.85729e-18)
(0.000292475 0.00378853 -4.84067e-17)
(0.000792363 0.00364129 3.94046e-18)
(-6.5728e-05 0.000246385 -4.89777e-18)
(0.00124769 0.00404351 -2.89332e-18)
(0.000129259 0.000875842 -2.70518e-18)
(-1.11105e-05 0.000534378 1.97367e-18)
(0.00370744 -0.000126135 -1.48754e-17)
(-2.46882e-05 7.60055e-06 3.3187e-18)
(2.64542e-05 0.000565521 7.71374e-18)
(5.09646e-05 0.000171145 2.43611e-18)
(0.00458092 -0.00222685 1.7278e-17)
(-1.87715e-05 7.4278e-05 -2.37633e-18)
(0.000457445 -0.00112146 3.33981e-18)
(0.00145959 -0.00181338 -1.071e-17)
(-0.000754508 -0.000127694 1.8957e-18)
(0.00474236 0.0013028 4.73109e-18)
(0.000970041 -0.00143001 -5.21475e-18)
(-0.0124868 -0.000470225 1.51738e-17)
(0.00146692 -0.00129532 -5.08258e-18)
(-1.7931e-05 0.000437151 -2.65716e-18)
(0.00431224 -0.0021571 2.78361e-18)
(0.000883689 -0.000876224 -6.95931e-18)
(0.00149748 0.000682569 -2.94592e-19)
(-6.9784e-05 0.00027699 -1.36535e-17)
(0.00261998 -0.00468451 -9.554e-19)
(0.00154287 -0.00298122 -2.5859e-18)
(0.000905331 -0.00189531 -1.37523e-18)
(0.00064395 0.00133396 1.00632e-17)
(0.00270177 -0.00203624 -3.47424e-18)
(1.87348e-05 0.00160867 6.28677e-18)
(0.000947539 -0.000916586 3.7232e-18)
(0.00226994 -0.00163792 -1.12206e-17)
(0.000613572 0.000726019 -3.94214e-18)
(0.000361547 -0.00207755 7.55766e-18)
(0.000413894 0.000571329 -3.79033e-19)
(-0.000120418 1.97153e-05 -2.6045e-18)
(-0.00954974 -0.00261657 -8.85189e-18)
(-0.000868749 -0.00189252 3.00316e-18)
(-0.000716378 -0.00199912 -3.01651e-18)
(0.00354278 0.00175623 2.66852e-17)
(-0.000148082 -0.000142161 7.43335e-17)
(-0.00223101 -0.00168041 -7.97974e-18)
(-0.0136801 -0.000454712 7.18584e-18)
(-0.00429414 -0.0012037 -3.15932e-19)
(0.00015196 -1.3411e-05 3.54639e-19)
(0.00206826 -0.0014545 -3.97618e-18)
(0.000626209 0.000710429 2.06345e-18)
(0.000194362 0.000764856 3.30858e-18)
(0.00383987 -0.00365407 3.35166e-17)
(0.00199355 -0.00126306 1.3148e-17)
(0.000279775 -1.67073e-05 1.70901e-20)
(0.00272395 -0.000815789 1.1279e-17)
(0.0015534 -0.00121324 3.69839e-18)
(-0.00377872 -0.00103593 4.21597e-18)
(-5.43645e-05 0.000252336 -7.23652e-18)
(0.00165684 -0.00231047 1.97442e-17)
(-0.00924736 -0.00304546 -1.80215e-18)
(0.00433153 0.00339153 3.6342e-17)
(0.000103508 -0.00124192 -5.59705e-18)
(-1.73017e-05 6.76507e-05 -1.0213e-18)
(0.000181622 0.000693693 -1.6732e-18)
(-1.22121e-05 4.01261e-06 1.08299e-18)
(0.00160051 0.00125672 3.01999e-19)
(5.81444e-05 3.95623e-05 3.82468e-19)
(0.00105371 -0.00209599 1.29032e-17)
(-0.000630238 0.00398241 9.20868e-17)
(0.00111046 0.00159741 -8.57792e-18)
(-0.00917344 0.000180864 8.8468e-18)
(0.00124297 -0.000297252 2.49266e-18)
(0.00110961 -0.0022091 2.95785e-18)
(-0.0145364 -0.000622437 4.85188e-18)
(0.00178358 0.00472142 5.058e-18)
(0.000973648 -0.00210592 1.69928e-18)
(0.000561285 -0.00254775 4.99495e-18)
(0.00183992 -0.00232367 -2.50337e-17)
(0.0030356 -0.000466922 4.40464e-18)
(0.00236005 -0.00245395 1.44043e-17)
(0.00119226 -0.00138841 -2.68039e-20)
(0.000578852 -0.00209327 -5.10727e-18)
(0.000321764 0.00422366 1.51991e-17)
(0.00102762 -0.001447 -2.30144e-18)
(0.00137564 -0.00199324 6.64091e-18)
(8.21243e-05 1.7025e-06 2.02864e-18)
(0.00431065 -0.00331111 1.53909e-17)
(0.00118808 -0.000627841 5.10978e-18)
(0.000386888 -0.000204505 1.9406e-19)
(0.00145995 0.00123734 2.55246e-19)
(0.000792762 -0.000153969 2.73605e-20)
(-0.00389533 -0.00115099 -3.06851e-18)
(-0.000764938 -0.00517133 1.71023e-18)
(0.00018894 0.000320709 1.28484e-18)
(0.000184831 -1.42704e-05 -3.82686e-19)
(0.000943348 -0.00265559 8.53401e-18)
(-0.0125818 -0.000492465 -7.33321e-18)
(-3.38644e-05 5.70732e-06 2.60628e-18)
(0.000107478 -0.00112151 7.82179e-18)
(0.000821932 -0.000491734 -2.91592e-18)
(0.00436614 0.000956309 -2.45323e-17)
(0.000173833 0.000357099 -2.51582e-18)
(-0.011414 -0.00148065 -2.63095e-18)
(0.00127654 -0.00348466 -1.89861e-17)
(0.00133818 0.000762645 -1.84808e-18)
(0.000236377 0.000233745 2.61375e-19)
(0.00102443 -0.00151637 5.34518e-18)
(0.00563713 0.000527366 -2.11124e-17)
(-0.00185841 0.00078073 1.14968e-17)
(-3.75937e-06 6.89231e-06 5.62226e-19)
(-0.00970948 -0.00132814 7.45033e-18)
(-0.000351981 0.00478143 -1.01128e-16)
(0.0107943 8.37898e-06 9.04371e-19)
(0.000371081 -0.00019654 -3.52142e-19)
(-0.00747699 0.00105108 3.85019e-17)
(-0.00759205 -0.00316652 2.92856e-18)
(0.00145659 -0.00133601 1.17513e-17)
(3.57102e-05 0.000194469 3.90359e-18)
(0.000403003 0.000691168 -1.14582e-18)
(0.000761978 -0.0015357 9.32341e-18)
(0.00368925 -0.00330299 -1.87209e-18)
(0.000319889 -2.22173e-05 -1.21811e-19)
(1.10418e-05 0.000190183 -1.19718e-18)
(-0.000103472 3.99889e-05 -2.8645e-18)
(-9.75204e-05 4.06462e-05 3.56909e-18)
(-0.0124983 -0.00111061 -5.01186e-18)
(0.00392907 -0.00354646 2.89713e-18)
(0.00142492 -0.00130889 -5.65357e-18)
(0.00537946 0.000262111 -3.1203e-18)
(-0.000109804 9.4463e-06 -3.08572e-18)
(-1.83022e-06 6.16345e-05 1.00427e-18)
(0.00265479 -0.00202644 3.30585e-18)
(-0.00955101 -0.00488588 -1.01895e-17)
(0.0017933 -0.000273722 3.83931e-19)
(0.000384404 4.75641e-05 4.69411e-19)
(-1.21266e-05 0.000531296 2.7314e-18)
(-2.80631e-05 0.000521645 -4.81198e-20)
(0.011428 -0.000683394 -2.49938e-17)
(-0.0162599 0.000589816 8.21138e-18)
(-6.14701e-05 0.000102208 -2.64773e-18)
(-4.14758e-05 0.000521759 -2.55307e-18)
(7.34369e-05 -0.00208418 -6.47163e-18)
(0.00119858 -0.001372 -3.52434e-19)
(0.00146109 -0.00101434 -2.64247e-18)
(0.000196271 0.000697152 -4.87268e-18)
(0.000683252 0.000646052 5.03717e-18)
(0.00114114 0.000863364 2.2516e-19)
(0.00178445 -0.00196712 4.27602e-18)
(0.0017754 0.00423804 -2.38744e-18)
(0.00533591 0.000410405 9.05615e-18)
(0.00481687 -0.0022747 -3.14768e-18)
(0.0021735 -0.00213276 9.48812e-18)
(0.00320686 -0.00392812 4.86532e-18)
(0.00331686 0.000430878 6.87368e-18)
(1.23559e-05 0.000407619 1.09351e-18)
(-0.00917343 -0.00140217 -9.59779e-18)
(-3.29331e-05 0.000515762 -6.85556e-19)
(0.000655133 0.00103864 9.57998e-18)
(0.000871405 -0.000684992 -3.54123e-18)
(0.00431595 -0.0033533 1.73974e-18)
(0.00160415 0.00282477 -1.74653e-18)
(-4.84706e-05 1.45322e-05 -3.74276e-19)
(0.00440431 0.00336393 -3.69958e-17)
(0.00383563 -0.00040867 1.1452e-17)
(-0.00607851 -0.00357076 -4.59471e-17)
(0.00222277 -0.00211194 5.88661e-18)
(0.000622812 0.00225552 2.91094e-17)
(0.00156249 -0.00125203 5.06262e-18)
(-4.99683e-05 0.000179815 -3.80913e-18)
(0.000594503 -0.00368558 -3.05828e-18)
(0.00414113 0.00313156 2.11027e-17)
(-0.00110001 -0.00227776 4.53268e-18)
(0.000411428 0.000557301 -3.91056e-19)
(0.00134841 -0.000337193 -5.16352e-18)
(0.00516844 0.000160323 5.28597e-18)
(-0.00333713 -0.00188329 -3.28717e-18)
(-0.0102141 -0.000577568 2.96304e-17)
(0.00198853 -0.00169153 1.05145e-17)
(0.00374383 0.0017804 -1.25618e-17)
(0.000697453 0.00123751 -7.51774e-18)
(0.000985813 0.000274622 1.02032e-20)
(0.000219277 0.000714971 2.57474e-18)
(0.000944896 0.00274126 2.29632e-17)
(0.000455881 0.00323876 -1.94018e-17)
(-1.99592e-05 0.000945205 -4.91606e-18)
(0.00184102 -0.00150227 -4.72417e-18)
(0.000102265 0.00339272 9.27329e-17)
(-0.0010429 -0.00221679 -2.26793e-18)
(-0.00215633 0.000812724 5.83626e-18)
(0.000845853 0.00072358 1.43034e-18)
(0.00115701 -0.00217686 -2.13049e-18)
(0.00122552 -0.00340004 2.65683e-17)
(0.00093047 0.00139385 -3.6438e-18)
(0.000129898 0.00109098 -4.34906e-18)
(0.00953854 0.00984734 -4.80503e-17)
(0.0042053 -0.00597389 7.58327e-18)
(0.0011036 -0.00438393 -6.54632e-19)
(0.00500534 -7.15477e-05 1.15031e-19)
(0.000175595 -2.18136e-05 -4.10952e-19)
(-0.00109116 -0.00120378 -4.46506e-18)
(0.000787973 -0.00154518 -4.90349e-18)
(-7.39212e-05 1.10448e-05 -6.69583e-19)
(0.001801 0.000180331 -1.10205e-17)
(0.00132274 -0.00191846 -8.76594e-18)
(0.000339425 0.00227089 1.05152e-17)
(0.00361863 -0.000300653 -1.34075e-18)
(0.00135728 -0.00202993 1.52934e-18)
(0.0028157 -0.00242035 -1.50713e-17)
(0.00115034 -0.00128958 5.15236e-19)
(0.000770084 -0.00416602 -1.18592e-18)
(0.000900021 -8.899e-05 1.99434e-18)
(-0.00445731 -0.00107889 7.64414e-19)
(-2.91421e-05 8.28054e-05 1.76344e-18)
(-6.63717e-05 0.000110225 5.3061e-18)
(0.000713475 -0.00278324 1.03667e-17)
(0.00397669 -0.00600664 6.69202e-18)
(0.000445806 0.00404174 -6.79614e-17)
(0.000883163 -0.000116974 -1.50763e-19)
(0.000480043 0.000701759 -1.20152e-18)
(-7.6036e-05 0.000508541 -2.04065e-18)
(0.000971665 -0.00133914 -3.40794e-19)
(0.000335057 0.00444116 6.02455e-18)
(0.000557227 -0.00178812 9.02038e-18)
(0.00103124 0.000256667 -8.56397e-19)
(0.00082429 -0.0020776 -2.52991e-19)
(0.00193675 -0.00156679 2.19377e-18)
(0.000203869 0.000368904 -2.06793e-18)
(0.00335636 0.00435162 -2.57997e-17)
(0.000555953 -0.00175994 7.75966e-18)
(0.000249464 -0.0018848 1.10386e-17)
(4.07691e-05 0.000397529 -2.09771e-18)
(0.00280785 -0.00246813 -4.59232e-18)
(0.000798318 -0.000118746 -2.55895e-18)
(-0.0102135 -0.00266179 2.08273e-17)
(0.00296923 0.000946802 1.04552e-17)
(0.00166197 0.00274996 -1.57345e-18)
(0.00153368 -0.000313041 5.4649e-18)
(-7.39909e-05 3.89701e-05 1.08519e-18)
(0.000362574 -0.000125322 -3.60615e-21)
(7.4561e-05 0.000119597 9.0399e-19)
(0.00155903 0.00328557 -1.87626e-18)
(0.000243413 0.00188218 3.23133e-17)
(0.00496056 -0.00143381 6.9301e-18)
(0.00535669 0.0141623 -1.54425e-17)
(0.00180107 -0.00162423 -2.2808e-18)
(-3.82134e-05 6.60839e-05 7.27954e-19)
(0.00278163 -0.0022864 5.30676e-18)
(-1.11409e-05 0.00378386 -1.38146e-17)
(0.000707608 -0.0026643 -8.03698e-19)
(0.000583663 -0.000323698 2.21416e-18)
(0.000588741 0.00180896 -1.07923e-17)
(1.54856e-05 0.000194625 1.25007e-18)
(0.00106662 -0.00103603 -1.67912e-18)
(0.00117206 -5.65882e-05 -8.18102e-19)
(-0.00804645 -0.00357493 -9.48576e-18)
(-3.99977e-05 0.00010472 -3.36487e-18)
(0.00622516 0.00499166 4.16906e-17)
(0.00112086 -0.00100619 -2.26314e-18)
(0.00102552 -0.00224117 -1.69613e-18)
(0.00349113 0.000783507 1.57481e-17)
(-0.0108075 -0.00190226 -4.02216e-18)
(0.00185464 0.00270337 6.50088e-20)
(0.000359697 0.000677103 3.6593e-18)
(-0.00403494 -0.00158747 4.29894e-18)
(-0.011462 -0.000941442 -1.26443e-17)
(0.000240441 0.000591854 -9.54322e-18)
(0.000850979 -0.000687767 6.0064e-19)
(0.00189249 -0.00374864 9.46448e-18)
(0.00501476 -1.40355e-06 -4.17261e-19)
(0.00196179 -0.00235108 3.37816e-18)
(-5.23813e-05 8.21399e-06 1.75878e-18)
(0.000205157 0.000215271 8.87143e-19)
(0.00381488 0.00306749 -4.0168e-18)
(0.000945745 -0.000809171 -1.44438e-18)
(0.00216371 -0.00156775 2.91526e-18)
(0.00109118 -0.00172754 3.99049e-18)
(0.000397802 -0.000135795 -1.53635e-20)
(0.00121826 -0.00162114 9.46147e-19)
(0.0011374 -0.0034566 -4.72415e-18)
(0.000585889 -0.000347684 3.51764e-19)
(0.000850949 -0.000661161 -8.16737e-19)
(-0.000103439 4.40432e-05 3.8087e-20)
(-0.00219761 -0.00110221 3.03105e-18)
(-4.45301e-06 5.14529e-05 -4.09385e-19)
(0.000634016 0.00129112 -2.16707e-17)
(-0.00828364 0.000640851 3.62579e-17)
(0.000519917 0.00106608 4.51286e-18)
(0.00402568 -0.00560161 6.2238e-18)
(0.00134401 0.000221427 4.08445e-18)
(0.000153834 0.00235021 -2.15149e-17)
(-9.37398e-05 4.47548e-05 -1.31931e-18)
(0.00158189 0.00215116 3.68398e-18)
(-4.18535e-05 0.000343635 -2.623e-18)
(0.0028562 -0.000310602 -2.31678e-18)
(-8.77047e-05 2.36406e-05 -2.7342e-18)
(0.00246143 0.0024636 1.00366e-17)
(0.000831351 -0.000475687 1.08732e-18)
(-0.0137157 -0.00459804 -1.24848e-18)
(-0.000809355 0.010658 1.90311e-18)
(-0.00955937 -0.00478103 1.2125e-17)
(-3.11752e-05 4.15902e-06 6.19909e-19)
(-4.6725e-05 0.000145755 2.02067e-18)
(0.00320773 0.000405757 3.92382e-18)
(0.00248127 0.000536754 6.83468e-19)
(-0.0027834 -0.000929502 4.02244e-18)
(-0.00476873 -0.00469561 7.02695e-18)
(0.0022316 -0.00111877 7.19947e-19)
(-3.77189e-05 0.00056337 -1.26992e-18)
(0.00441202 -0.00226847 -8.66053e-18)
(0.000441493 0.00392822 1.14981e-16)
(0.000272928 -0.00190601 -7.13644e-18)
(0.0047387 -0.00133163 1.02467e-17)
(0.00200179 -0.00127516 -1.12457e-17)
(0.00147942 -0.00195308 -4.45434e-18)
(0.00208741 0.00101363 -3.16006e-18)
(0.000926545 -0.00130186 2.58181e-18)
(0.00376734 -0.00178742 2.43126e-17)
(0.00112899 0.00374127 -2.71647e-17)
(0.00238415 -0.00106453 -5.8564e-19)
(0.00072822 0.00397185 -7.63272e-17)
(0.0024128 -0.000955599 1.57269e-18)
(0.00083378 -0.000686052 -4.58806e-19)
(0.00153068 -0.00195845 2.09416e-18)
(0.000931262 0.00125761 -3.75802e-19)
(0.000457878 -0.000222507 5.01657e-20)
(0.00124609 -0.00101939 2.04178e-18)
(0.00238458 0.000719522 -4.64195e-18)
(0.00127358 0.000823655 1.7759e-20)
(-4.08275e-05 0.00037577 -2.71545e-19)
(-9.85158e-05 7.02372e-06 -2.35606e-18)
(0.00189512 -0.00160422 8.79734e-18)
(0.000819167 -0.000450811 4.85274e-20)
(0.00245009 -0.0015668 1.632e-18)
(-1.62473e-05 0.000543288 -7.20962e-18)
(-4.20076e-05 0.000465237 -2.34832e-18)
(-3.46915e-06 4.28947e-05 -1.92946e-18)
(0.000740113 0.000692046 -1.65523e-18)
(0.000303555 -0.000140874 -4.71552e-20)
(0.00111934 0.000668937 -1.59213e-19)
(-0.000112418 4.82207e-05 8.01145e-19)
(-0.011726 -0.00142157 1.07369e-17)
(0.000776853 -0.00157085 2.12893e-18)
(-0.000727225 0.00391261 -4.08431e-17)
(2.91979e-05 4.80758e-05 -4.11503e-19)
(-2.39721e-05 4.86522e-05 -1.48209e-18)
(0.000377918 0.002665 9.2758e-18)
(0.00292493 -0.000533573 -7.22752e-18)
(-9.88757e-06 0.00124209 1.28346e-17)
(0.00958697 -0.00277108 -5.98885e-18)
(0.00294012 0.00166276 -2.70891e-18)
(0.00787246 0.000672302 3.76693e-17)
(0.00125426 -0.00102066 7.31662e-19)
(0.00285188 -0.00217137 4.3433e-18)
(0.000773723 -0.000251198 -2.61302e-18)
(-8.70822e-06 4.04738e-05 -7.03599e-18)
(-0.000108851 3.56865e-05 8.52616e-19)
(0.000764997 0.000513794 -3.6124e-19)
(-0.006175 0.000619855 -3.01665e-17)
(-1.30722e-05 4.06977e-05 1.50734e-18)
(0.0026425 -0.0040918 -1.16788e-18)
(0.00107576 0.000682283 9.33147e-21)
(-0.00128068 0.00084285 -5.03657e-17)
(0.00128366 0.0024269 -6.6479e-18)
(0.00309502 0.00163095 8.08017e-18)
(0.00122706 -0.00221753 1.18943e-18)
(0.000226217 -2.56803e-05 3.33115e-19)
(7.33132e-06 9.59008e-07 -1.86309e-19)
(0.000700654 -0.00159446 2.4314e-18)
(-0.000158679 0.000647568 -1.04127e-17)
(0.000305457 0.000957997 3.47215e-18)