/*--------------------------------*- C++ -*----------------------------------*\
| =========                 |                                                 |
| \\      /  F ield         | OpenFOAM: The Open Source CFD Toolbox           |
|  \\    /   O peration     | Version:  v2012                                 |
|   \\  /    A nd           | Website:  www.openfoam.com                      |
|    \\/     M anipulation  |                                                 |
\*---------------------------------------------------------------------------*/
FoamFile
{
    version     2.0;
    format      ascii;
    class       volScalarField;
    location    "700";
    object      k;
}
// * * * * * * * * * * * * * * * * * * * * * * * * * * * * * * * * * * * * * //

dimensions      [0 2 -2 0 0 0 0];


internalField   nonuniform List<scalar> 
13917
(
0.000163077
0.000148359
0.00193564
0.000149781
0.0001487
0.000195757
0.00959983
0.00100879
0.00548211
0.000170642
0.000186445
0.000169889
0.000149882
0.00873148
0.000154679
0.000153414
0.000148857
0.000167915
0.000169368
0.000148632
0.000149755
0.0104954
0.000148473
0.000425533
0.000148111
0.011408
0.000162299
0.000165001
0.000200596
0.000178299
0.00016419
0.000155502
0.00016061
0.000155254
0.000148386
0.000199045
0.000148537
0.0300486
0.000151829
0.0107608
0.000147154
0.000149896
0.000144775
0.000168794
0.000147507
0.00015657
0.000167385
0.000173321
0.000382617
0.000147954
0.000153709
0.000150213
0.00058086
0.000155592
0.000148942
0.000153983
0.000186424
0.000148328
0.000152317
0.000147375
0.0201438
0.000148353
0.00799873
0.000148548
0.000194163
0.00131055
0.000148768
0.00014883
0.000188938
0.000161292
0.000148737
0.0036593
0.0433067
0.000148115
0.000378563
0.000172623
0.0275628
0.000149069
0.0129467
0.000149533
0.0001493
0.000148797
0.000191165
0.0315728
0.0598062
0.000148843
0.000149118
0.000818303
0.000153405
0.000144704
0.0408861
0.000175298
0.000146803
0.000151029
0.000764991
0.000191856
0.000182109
0.000171532
0.000182366
0.000171287
0.000146478
0.000159488
0.000168797
0.000149632
0.000146272
0.00267625
0.000190111
0.000174209
0.00014886
0.000165601
0.0627444
0.011053
0.000174433
0.00383489
0.000151684
0.000401908
0.000147894
0.000268819
0.0154195
0.000155447
0.000149807
0.00018888
0.0183002
0.000164378
0.000147682
0.000150748
0.00014751
0.000147741
0.000144976
0.000194086
0.0244264
0.00015151
0.000147609
0.00014981
0.000224454
0.000433197
0.000163264
0.000171912
0.00014873
0.000155303
0.000196877
0.000145964
0.000150628
0.000170749
0.000148858
0.000100942
0.000203629
0.000150038
0.00014581
0.000156017
0.000167884
0.000404591
0.000175764
0.000162919
0.000154455
0.031478
0.000160569
0.000213925
0.024124
0.000223671
0.000153215
0.000162736
0.000149534
0.000181211
0.000174156
0.000182024
0.000149602
0.000169534
0.000146821
0.000159983
0.000163316
0.0375164
0.000175871
0.000149715
0.00012226
0.000164072
0.0247924
0.000301338
0.000131114
0.000147244
0.000176083
0.00016488
0.000145918
0.00014905
0.000157821
0.00640784
0.000197596
0.0421287
0.000160341
0.000181076
0.000198829
0.0651607
0.000195392
0.000148557
0.000173129
0.000162017
0.000151762
0.000146863
0.00017986
0.000426176
0.000152808
0.000148065
0.000167744
0.00016742
0.0385765
0.000213222
0.000148383
0.000148423
0.000170949
0.00288478
0.000150372
0.0102039
0.0291117
0.00018114
0.000146326
0.000197223
0.000168126
0.0390842
0.000147582
0.00477409
0.000147194
0.000177205
0.000147071
0.0334507
0.00402596
0.00015371
0.000262668
0.000154713
0.000146363
0.000198842
0.000175289
0.000160081
0.000149929
0.0241905
0.000146169
0.000155865
0.0433131
0.0440912
0.000149476
0.000147427
0.011018
0.000184325
0.000149757
0.000194936
0.000178868
0.000162538
0.000161273
0.000149476
0.000163669
0.025923
0.000146347
0.000179473
0.000174303
0.000147392
0.000148296
0.000171519
0.0146492
0.000174832
0.000158003
0.000154819
0.000149789
0.0142999
0.000196082
0.00019505
0.000146416
0.0460781
0.0170315
0.000223833
0.0137173
0.000173683
0.000149376
0.000147355
0.000167413
0.0322192
0.000182503
0.000151954
0.000216363
0.000161275
0.00014493
0.000195696
0.000148461
0.000119459
0.000152387
0.000149722
0.000155469
0.000162852
0.000162735
0.00019556
0.000159207
0.000147035
0.000205653
0.000329757
0.000257688
0.000147591
0.000226158
0.000149124
0.000147021
0.000147936
0.000218046
0.000148569
0.000178505
0.000160814
0.0001467
0.000167815
0.000150307
0.000366678
0.000163753
0.00017409
0.000146095
0.00014822
0.0600067
0.0172
0.000147846
0.000147211
0.000200979
0.000147062
0.0454277
0.000146073
0.0344547
0.00014773
0.000200583
0.000157949
0.000403462
0.000152786
0.000217019
0.000184648
0.000155477
0.000184211
0.000194793
0.00014914
0.0261215
0.000173414
0.0199593
0.000154256
0.0123634
0.00015634
0.0757834
0.000181483
0.000171957
0.00017159
0.00541441
0.000149387
0.000163832
0.0676446
0.0001492
0.000151434
0.0177077
0.000182539
0.000149438
0.000197757
0.000198487
0.000146788
0.0142766
0.000197785
0.000148413
0.000146999
0.000149176
0.000145762
0.000204909
0.000115314
0.000214495
0.0657717
0.000147997
0.000181268
0.0100705
0.000162302
0.0111812
0.0349649
0.0047345
0.000146112
0.000194654
0.00014685
0.00274698
0.000147371
0.000441863
0.000178952
0.000151153
0.000149254
0.000169883
0.000177439
0.000174119
0.000688439
0.0712176
0.031355
0.000164116
0.000169762
0.000147486
0.0482981
0.0130675
0.000148302
0.000213878
0.000148243
0.000200468
0.000147731
0.00014946
0.000150454
0.0129549
0.000150409
0.0159324
0.0222956
0.000184148
0.000194004
0.000149052
0.000193647
0.000191046
0.000148072
0.00018405
0.000149098
0.000148212
0.000178239
0.00014972
0.000148191
0.000146821
0.000200704
0.000149615
0.0129392
0.00534349
0.00843521
0.000195204
0.0189326
0.0375621
0.000162023
0.000148015
0.000189016
0.000151605
0.000156793
0.000148499
9.11443e-05
0.00721968
0.00173635
0.000153429
0.000180911
0.000153893
0.000152273
0.000173916
0.000150255
0.000194713
0.000148773
0.000148523
0.0486596
0.0243867
0.0244821
0.000178887
0.00555218
0.027554
0.0635834
0.0244269
0.000145185
0.00016914
0.000150307
0.000148598
0.000208568
0.000167873
0.000147072
0.000171336
0.000161229
0.0229473
0.000148041
0.000181915
0.0268993
0.000214912
0.0160619
0.000149669
0.000148363
0.000151535
0.000160623
0.000146125
0.00371035
0.00020356
0.000159113
0.0480869
0.000153882
0.000181577
0.0650844
0.000204412
0.00018333
0.00019738
0.000181909
0.000170961
0.000188026
0.000161768
0.000185909
0.000199423
0.000163722
0.00017579
0.000146986
0.000217391
0.000154358
0.000145057
0.00015985
0.000149234
0.0239992
0.00281886
0.000147014
0.00014507
0.00176502
0.031312
0.000149721
0.0131411
0.000148858
0.000190035
0.000147149
0.0384768
0.000212208
0.000155997
0.000148456
0.0196302
0.000193471
0.0151323
0.000149776
0.0296445
0.000369014
0.000238969
0.000145121
0.053587
0.0190295
0.000162224
0.000146947
0.000148959
0.000172627
0.000202745
0.000146582
0.000147049
0.000147517
0.000147475
0.0408977
0.000208969
0.000161971
0.00019678
0.000147612
0.000146531
0.000180493
0.034668
0.000158729
0.000146891
0.000148165
0.000148677
0.000191462
0.0690866
0.000149077
0.000148599
0.000194198
0.000161541
0.000157959
0.000148359
0.000150636
0.000154822
0.000175321
0.000189981
0.000197705
0.000189209
0.000179439
0.000213085
0.000173943
0.000147671
0.0300509
0.000148685
0.000151775
0.000150816
0.000217831
0.000168977
0.000146597
0.000215448
0.000180392
0.010075
0.000179441
0.000160332
0.000162064
0.000149191
0.00384407
0.00020277
0.0198235
0.00014855
0.000156108
0.000197482
0.0363104
0.0114243
0.00017256
0.000181098
0.000153321
0.000151575
0.000148433
0.000165139
0.000169464
0.000149754
0.000167706
0.000173473
0.0179901
0.0178896
0.000151829
0.000180908
0.00020922
0.000156357
0.000150111
0.000442973
0.000223339
0.000145823
0.000195714
0.000145076
0.0149825
0.000172194
0.000146863
0.000157768
0.00017407
0.000160026
0.000178138
0.0131192
0.000187405
0.000159722
0.00297622
0.000149822
0.0212044
0.000149539
0.000149027
0.000227078
0.000128953
0.000204002
0.000149797
0.000149532
0.00014858
0.000161639
0.00041784
0.000180969
0.00015178
0.000182195
0.000169326
0.000147185
0.000267171
0.000180422
0.000194535
0.000147441
0.000186854
0.000149214
0.0277531
0.00017102
0.000168981
0.000156373
0.00014695
0.000145263
0.00014761
0.00017291
0.000156787
0.000198772
0.000501533
0.000169232
0.000146856
0.000186752
0.000204699
0.000202012
0.00014625
0.000156239
0.000147108
0.00015472
0.000152492
0.019871
0.000149474
0.000372701
0.00015457
0.000186414
0.000175173
0.0443636
0.000169616
0.000148835
0.0316689
0.0217137
0.000148066
0.000150719
0.000215286
0.000192483
0.000182355
0.000149544
0.000148522
0.000194086
0.000151289
0.000173865
0.000170514
0.000145267
0.000167297
0.00223089
0.000146115
0.000148903
0.00014766
0.0167051
0.000149746
0.000153086
0.0400756
0.000151346
0.000128377
0.000154542
0.000160863
0.000147606
0.000165394
0.000147998
0.000170444
0.000146993
0.000171504
0.000148861
0.0189807
0.000308859
0.0346512
0.000150475
0.000149311
0.00017316
0.000166782
0.0209887
0.0187591
0.000167663
0.000148331
0.000200147
0.000205484
0.000194255
0.000196334
0.000166453
0.0112309
0.000162797
0.000160591
0.000185627
0.000177181
0.000167395
0.00022949
0.000167228
0.000149804
0.000174944
0.000155551
0.000145465
0.000154588
0.000165597
0.000155592
0.000148069
0.000147311
0.000169311
0.00014978
0.000174194
0.000148301
0.000148354
0.000149803
0.000150538
0.000144391
0.00015368
0.000147807
0.0381759
0.000169299
0.000190459
0.000146297
0.000149613
0.000163731
0.000171216
0.000151224
6.09234e-05
0.000172233
0.00024488
0.000154646
0.000183112
0.000148214
0.00014977
0.00014735
0.000150343
0.0281457
0.000149671
0.000223624
0.000153978
0.01222
0.000164556
0.000172627
0.00018592
0.000145406
0.000149934
0.000169766
0.000148729
0.000149676
0.000150525
0.000149875
0.000149163
0.000155058
0.000147385
0.000145488
0.000155558
0.000157719
0.0160457
0.000160271
0.000146097
0.000146958
0.03754
0.000172715
0.000148763
0.000148515
0.000132028
0.000212519
0.0329186
0.000160304
0.000149841
0.000146247
0.000145356
0.000164217
0.000160803
0.000196986
0.000154597
0.0249625
0.000148586
0.000152072
0.0287937
0.000148289
0.000154431
0.000147875
0.000148405
0.000165029
0.000162804
0.00014858
0.000151537
0.0137775
0.000175485
0.000147643
0.00014472
0.000180608
0.000223666
0.000149717
0.000209606
0.000144736
0.000164329
0.000145165
0.00014571
0.000204042
0.000146985
0.000225257
0.000162663
0.000149802
0.000144998
0.000149145
0.000147108
0.000148772
0.000421173
0.000146011
0.00014579
0.0125977
0.000242616
0.000160384
0.000166211
0.000172989
0.000152173
0.000146061
0.000156989
0.0360539
0.000172071
0.000148774
0.000148317
0.0155278
0.000159891
0.0720382
0.00014975
0.000151416
0.0151297
0.000158307
0.000148711
0.0248404
0.000292511
0.00014708
0.000184147
0.000147331
0.000146895
0.000146209
0.049392
0.000144344
0.000145986
0.000146018
0.000151424
0.00015116
0.000190034
0.000167251
0.000145607
0.000159509
0.000149078
0.0677874
0.000147535
0.000146075
0.000149163
0.000181295
0.000149113
0.000187533
0.0109742
7.92615e-05
0.000155841
0.000198083
0.0459354
0.000148157
0.013168
0.0364816
0.0511647
0.0192217
0.0149456
0.00660034
0.000185747
0.000149018
0.0140801
0.000158284
0.0158927
0.000145116
0.000146754
0.000148793
0.000149028
0.000152941
0.000158476
0.0206616
0.000146683
0.00014855
0.0138768
0.000184141
0.00014916
0.000161868
0.000156354
0.000147797
0.000301443
0.000162191
0.000152447
0.000151108
0.0112563
0.0347875
0.00025541
0.000145106
0.000193389
0.000180326
0.0469697
0.00592036
0.000175218
0.000147113
0.000148369
0.000148591
0.000144236
0.000150667
0.00014513
0.000154909
0.000162319
0.053488
0.000184235
0.000146079
0.000182577
0.0630678
0.000163815
0.000149819
0.0234523
0.000146603
0.000149502
0.000161313
0.0548928
0.00014914
0.000147468
0.0108983
0.000196945
0.000206571
0.000180832
0.000199391
0.000147231
0.00018921
0.000149885
0.00014779
0.000149962
0.00538541
0.039378
0.000145699
0.000144961
0.000147964
0.000215733
0.000150373
0.000156188
0.000148696
0.000149203
0.000188977
0.000145663
0.00017083
0.000190339
0.0241008
0.000147297
0.000170876
0.000152082
0.0428375
0.0615989
0.000148165
0.0579549
0.00017405
0.000268736
0.000149121
0.0145409
0.000149613
0.000153833
0.000164449
0.000180753
0.00217611
0.000195249
0.000186775
0.000407142
0.000146817
0.000198948
0.000145645
0.000155485
0.0119771
0.000148626
0.000149668
0.000149671
0.000147777
0.0508085
0.000145393
0.000148406
0.000167801
0.000166125
0.000166127
0.000203144
0.000181975
0.0271321
0.000169511
0.000159466
0.000160229
0.0295746
0.000160741
0.000531249
0.0122044
0.000152139
0.000145633
0.0176575
0.000194617
0.000150014
0.000181273
0.00015892
0.000147673
0.000153258
0.000147872
0.000164482
0.000149942
0.000165999
0.000171497
0.000146906
0.000171133
0.000146
0.000166432
0.000146961
0.000155685
0.000169696
0.00015
0.00014727
0.000145767
0.000280643
0.000173498
0.000102926
0.000148182
0.000148106
0.000169767
0.000147878
0.000177953
0.000173444
0.000147678
0.000179094
0.000145909
0.00172542
0.000149871
0.000159457
0.0198704
0.000198054
0.000147293
0.000151478
0.0100784
0.000147804
0.000147195
0.052383
0.0535327
0.000153542
0.000185758
0.000148563
0.000147252
0.00486176
0.000150072
0.000145476
0.000200224
0.000145976
0.000209529
0.000149251
0.000145509
0.000148856
0.000182514
0.0192897
0.000149
0.000149209
0.000147238
0.000154301
0.000148373
0.000223422
0.00017037
0.000149772
0.000100025
0.000164656
0.000200286
0.0274188
0.000431664
0.000145626
0.000149611
0.00014815
0.000201035
0.000154892
0.0194252
0.0443534
0.000152709
0.0141824
0.000333735
0.000166093
0.000184384
0.000168547
0.000191061
0.0020158
0.000166941
0.00023252
0.0314146
0.000169636
0.000153618
0.029846
0.000164948
0.000145189
0.000149879
0.0109537
0.000161962
0.000146959
0.000165656
0.000179256
0.000162432
0.0272816
0.000151551
0.00012878
0.000160312
0.000193773
0.000183262
0.000194161
0.000155815
0.000145875
0.00014955
0.0012427
0.000147771
0.000152876
0.000146436
0.000150653
0.000146661
0.000160312
0.000185255
0.000299038
0.000163038
0.000166492
0.00120372
0.000187765
0.000146565
0.000213397
0.00365254
0.000145711
0.000147127
0.000157019
0.0325988
0.000149671
0.000173565
0.000201637
0.00016563
0.000148821
0.000149242
0.000146021
0.000181262
0.000162431
0.000147742
0.0115841
0.0117454
0.000163119
0.000211479
0.000169881
0.000338436
0.000151146
0.00015249
3.74676e-05
0.000212997
0.000175597
0.000257902
0.000155789
0.000149826
0.000146651
0.000148286
0.000148482
0.000150741
0.000165921
0.000147371
0.000182219
0.000147379
0.0001555
0.000145537
0.000172739
0.000181547
0.000218794
0.000148076
0.000194143
0.000146657
4.59519e-05
0.000148228
0.000155197
0.000148729
0.000194933
0.041214
0.000183652
0.000147319
0.000184238
0.000147931
0.000156833
0.0486698
0.000146804
0.000150034
0.000165374
0.00015774
0.012658
0.000147388
0.000157592
0.000149149
0.00014812
0.00015895
0.000149371
0.000145982
0.000152316
0.0274962
0.000151991
0.000198248
0.000211993
0.000167465
0.0200079
0.000151736
0.000146023
0.000158378
0.0307012
0.000149505
0.000161263
0.000161842
0.000292668
0.000146997
0.00404654
0.000171687
0.000173757
0.000145638
0.00014511
0.000186102
0.000150151
0.000149896
0.000159917
0.000145205
0.000153382
0.000155787
0.000172234
0.0001855
0.00870403
0.000151612
0.000173559
0.000220913
0.00920079
0.000159715
0.000180965
0.0312005
0.000161471
0.00446977
0.000153009
0.00139659
0.00519715
0.000145003
0.000149723
0.000147468
0.000148328
0.000165264
0.000145506
0.0001533
0.000175194
0.000150084
0.000160242
0.0387676
0.000158038
0.000150962
0.00707037
0.000148723
0.0134067
0.000150872
0.000165299
0.000146916
0.0316698
0.0408261
0.00014793
0.000148585
0.0101769
0.000157671
0.0193408
0.000147974
0.000145934
0.0168457
0.000148678
0.0001629
0.0146527
0.00014854
0.000168801
0.000156368
0.000145071
0.000147117
0.0130262
0.0432877
0.000148177
0.000150136
0.000148482
0.00015439
0.000161344
0.0240862
0.000150445
0.000335752
0.000227001
0.00019395
0.000215779
0.00014861
0.000180707
0.000177656
0.000157365
0.000148364
0.000168896
0.0367213
0.000151902
0.000163053
0.000738305
0.00046019
0.000184703
0.000154793
0.000149126
0.000149615
0.000148666
0.035572
0.000168123
0.000150403
0.000148814
0.000151631
0.00014978
0.000147801
0.00014866
0.000173293
0.000159628
0.000110821
0.000163741
0.0159243
0.0167447
0.000158005
0.000166555
0.000146426
0.000156346
0.0271542
0.000148221
0.000151254
0.000166532
0.000182463
0.000165693
0.00503873
0.000196886
0.000146653
0.0287473
0.000144846
0.000147921
0.000163793
0.000149805
0.000146292
0.000189214
0.000108618
0.000146013
0.000613664
0.000148051
0.000145556
0.000151078
0.000364283
0.000156426
0.000150844
0.0105173
0.000149857
0.000196475
0.0194906
0.000149607
0.000163999
0.000147889
0.0106139
0.000173783
0.000148772
0.00695663
0.000168017
0.000168486
0.000149842
0.0391543
0.000157341
0.000194629
0.000148819
0.000167468
0.0351984
0.000145731
0.000244819
0.000148918
0.00017159
0.00016459
0.0001496
0.0397452
0.000151658
0.000182045
0.000169943
0.000170536
0.00016239
0.000163089
0.000150319
0.000485592
0.000158813
0.0119036
0.000157765
0.000170191
0.000147227
0.000164749
0.000148688
0.000170559
0.000635543
0.000149958
0.000146438
0.000426461
0.000149161
0.000219463
0.000148637
0.000911412
0.000194319
0.000160336
0.00014774
0.000147346
0.000148718
0.00014513
0.000179995
0.000165625
0.000161927
0.000153596
0.000148415
0.000216703
0.000150236
0.000159704
0.000211027
0.000148581
0.0303016
0.000166559
0.000155233
0.000254511
0.0348945
0.000206565
0.000163901
0.00016198
0.000146942
0.000190641
0.0438786
0.000188287
0.000149074
0.000149758
0.000181097
0.00907845
0.0133156
0.000210661
0.000147429
0.000164682
0.000161786
0.0199043
0.00372886
0.000161905
0.000183487
0.000151755
0.00017313
0.000175439
0.000149014
0.000179847
0.000109484
0.00014882
0.000218894
0.000149658
0.000146917
0.0253868
0.0392769
0.000146713
0.000147658
0.000148802
0.000146036
0.000165256
0.00018974
0.000149207
0.000147712
0.000148529
0.000160794
0.000155281
0.000155122
0.000205661
0.00014842
0.0440316
0.0229296
0.0307902
0.000175147
0.000168018
0.000204978
0.000158343
0.0142134
0.000206753
0.000201814
0.000149189
0.0365171
0.0183989
0.000146129
0.000148083
0.000178626
0.0725085
0.000640412
0.000145578
0.000147997
0.0241448
0.00033912
0.000219504
0.000151518
0.000153096
0.000308771
0.000149009
0.0268982
0.0406956
0.000202219
0.000252071
0.000148842
0.000147241
0.000146995
0.000155428
0.0229446
0.000161107
0.000152165
0.000151028
0.000171387
0.0348195
0.000160844
0.000159303
0.0180125
0.0154502
0.000318914
0.000148344
0.000149067
0.000913386
0.000145328
0.000145198
0.000150832
0.000416839
0.000160493
0.0503629
0.000183873
0.000148056
0.0258124
0.00016228
0.000146709
0.0207849
0.000176217
0.000154854
0.000147167
0.00779703
0.0707688
0.000149148
0.000177469
0.000226879
0.071114
0.000255317
0.000173123
0.00014731
0.000148805
0.000257007
0.000152959
0.00019536
0.000163613
0.000262113
0.000199667
0.000151236
0.000157149
0.000147254
0.00015063
0.0738482
0.0117142
0.000148626
0.027204
0.000162354
0.000148068
0.000153665
0.000147308
0.000188231
0.000148772
0.00030881
0.000164587
0.000147219
0.000146902
0.000170146
0.0198821
0.000161357
0.000151872
0.000164085
0.000148652
0.000149854
0.000154042
0.029215
0.0173448
0.0729476
0.000145756
0.00014685
0.000149118
0.00018094
0.000146856
0.000149211
0.000189284
0.000169253
0.000201462
0.00014493
0.066768
0.0172252
0.000149885
0.0264512
0.000181823
0.000159525
0.000315411
0.00014892
0.046562
0.0001575
0.000151183
0.000152893
0.000145305
0.000194417
0.000151639
0.000148603
0.000158727
0.0163133
0.020121
0.000149607
0.000147983
0.000150698
0.000147319
0.00018453
0.000150272
0.000176544
0.000150186
0.0352583
0.000148505
0.0189654
0.000145756
0.0310123
0.00014851
0.000145186
0.0696771
0.000184534
0.000172237
0.000201219
0.000162975
0.00016187
0.000148646
0.0467485
0.000148656
0.000146906
0.000170044
0.000169157
0.0549622
0.0552971
0.000182997
0.000192574
0.000183509
0.000216982
0.000147072
0.000152095
0.000154454
0.0491315
0.000154491
0.0593087
0.018595
0.000147402
0.000149106
0.000148039
0.000253481
0.000425542
0.000149946
0.0001486
0.000154157
0.000155507
0.000160823
0.00020174
0.000186524
0.000148278
0.000213184
0.000176206
0.0252368
0.000174055
0.000150763
0.000151115
0.0294507
0.000146974
0.000177528
0.0028214
0.000150307
0.000153234
0.000189894
0.000174519
0.000150717
0.015625
0.000151662
0.000199025
0.000160621
0.000157903
0.000148788
0.0704723
0.000146777
0.000170625
0.000266443
0.0761608
0.000166757
0.000171869
0.000152347
0.000163776
0.000149751
0.0769834
0.000153429
0.000146863
0.000156352
0.000148479
0.000149775
0.000430882
0.000148403
0.000149117
0.00014823
0.000183765
0.000149937
0.000159201
0.000173373
0.000190602
0.000181749
0.000149669
0.000181045
0.000190955
0.000191689
0.000176012
0.000156888
0.000187596
0.000155486
0.000210981
0.000149887
0.000169419
0.00285322
0.000149883
0.00015138
0.000145248
0.000214206
0.000178918
0.000147003
0.000255984
0.0550472
0.000146455
0.000149776
0.00844664
0.0198617
0.000169674
0.000145313
0.000318586
0.0177616
0.000454121
0.000148021
0.0482793
0.000173932
0.000167377
0.066382
0.000153376
0.000145329
0.000156622
0.00018871
0.00015751
0.00750424
0.0655876
0.000146394
0.000152083
0.000193424
0.050546
0.000145736
0.000165162
0.00015019
0.000147284
0.0321833
0.00021819
0.000197154
0.000221502
0.000157213
0.000167057
0.000149588
0.074828
0.0130031
0.000148702
0.000148318
0.000159119
0.000145753
0.000166547
0.0159282
0.000573988
0.000167312
0.000148669
0.00014727
0.0363237
0.000153862
0.000167495
0.000146244
0.000150643
0.000215257
0.00022247
0.000201697
0.000353255
0.000149057
0.00019882
0.000150413
0.000163836
0.00411734
0.0283816
0.000148418
0.000149954
0.000158679
0.000154961
0.000149627
0.026147
0.0529048
0.000145981
0.00014441
0.00014922
0.000147571
0.000319624
0.00014552
0.00638108
0.000180067
0.000169044
0.000146586
0.000165649
0.0666419
0.00015843
0.000190612
0.0612213
0.000149203
0.0292908
0.000159617
0.000160808
0.000186589
0.0358955
0.0497671
0.000168245
0.000147021
0.000184181
0.000145596
0.000154765
0.000149537
0.00450445
0.000158811
0.000244131
0.000195356
0.000166062
0.00014879
0.000194783
0.000153801
0.000149783
0.000183858
0.000144936
0.000159606
0.000159134
0.000149365
0.00083543
0.000151213
0.000203678
0.000150738
0.000147327
0.069338
0.0271238
0.000153156
0.000159501
0.000160538
0.000169239
0.00016831
0.000152891
0.000154374
0.000152358
0.000195062
0.000154184
0.00193503
0.000166247
0.000196569
0.000180037
0.000148665
0.0222989
0.000145014
0.00376106
0.000153472
0.0690805
0.000241917
0.000169718
0.000234781
0.000200094
0.000168312
0.000146877
0.0209647
0.000169254
0.000148718
0.0325777
0.000137262
0.000151798
0.000150363
0.000157459
0.000157467
0.000157526
0.0355231
0.000149883
0.000155381
0.00015862
0.000159073
0.000149011
0.000175195
0.000144917
0.00210876
0.000152203
0.000183864
0.000157991
0.000161732
0.000178779
0.000220293
0.00017643
0.000146521
0.000183094
0.0155254
0.0272732
0.000148023
0.000498973
0.000155655
0.000299373
0.000148637
0.000152964
0.0307648
0.000165316
0.0378397
0.035919
0.000159664
0.0400009
0.000147575
0.000144828
0.0305925
0.000166002
0.000152829
0.0079373
0.000154579
0.000163437
0.000157454
0.00017294
0.000148052
0.000174888
5.38297e-05
0.0115907
0.000198291
0.000152944
0.000169206
0.0409486
0.000152406
0.000149482
0.000173386
0.00014564
0.000182634
0.0602507
0.0126208
0.0178615
0.000167669
0.000148181
0.0444724
0.000144892
0.000173874
0.000149524
0.0263158
0.000151561
0.000164102
0.0233747
0.00018247
0.00014801
0.000159009
0.0202243
0.000149184
0.000186057
0.000146131
0.000279045
0.0621097
0.000181595
0.00016839
0.000147457
0.000192467
0.000183984
0.000161678
0.00014617
0.000148174
0.000148888
0.000167184
0.000148769
0.000175593
0.000149555
0.00014612
0.040321
0.000146617
0.000154479
0.000151838
0.000149815
0.0256754
0.000146635
0.000159977
0.0371029
0.000164018
0.00138584
0.000148922
0.0728291
0.000164911
0.0153316
0.000151294
0.000182936
0.000147307
0.000162168
0.000181891
0.000180313
0.000194791
0.0497856
0.000192529
0.000258987
0.000156246
0.000180453
0.000162726
0.000218659
0.000154019
0.000147102
0.00014856
0.000166271
0.000164252
0.000212346
0.000167633
0.000661126
0.000166087
0.000171633
0.00014796
0.000228367
0.000178034
0.000150324
0.00015293
0.000148775
0.000131935
0.000148608
0.0104698
0.000146537
0.000153815
0.0487876
0.000169572
0.000148297
0.00014849
0.0258408
0.000146754
0.000152414
0.000152414
0.000159216
0.000155085
0.000148567
0.000185458
0.000168846
0.000162789
0.000197901
0.0612123
0.0250037
0.0355049
0.000145867
0.000148009
0.000171069
0.00014823
0.000163582
0.000340641
0.0268413
0.000145289
0.000148592
0.0191903
0.000202428
0.000145399
0.000146526
0.000155762
0.0530154
0.00943609
0.00015416
0.000159795
0.000149261
0.00020088
0.000182424
0.00017455
0.000159101
0.000163275
0.000150442
0.000161473
0.000200416
0.000151041
0.000147737
0.00015403
0.00433869
0.000154038
0.0326008
0.000148583
0.0310494
0.000161243
0.000157343
0.000146195
0.000147247
0.000215359
0.000131114
0.000165585
0.0132407
0.0605532
0.000150131
0.0401499
0.00018385
0.000147188
0.000227163
0.000197937
0.000181729
0.000149665
0.021252
0.0516711
0.000146684
0.000162229
0.017305
0.000164879
0.000148295
0.000146086
0.00014854
0.000150695
0.000175993
0.000200136
0.000168913
0.000174825
0.000145869
0.000148956
4.26732e-05
0.000146517
0.000166325
0.000156041
0.000146973
0.000167175
0.000148044
0.000152007
0.000199438
0.000147801
0.0557249
0.00014808
0.000969919
0.0240342
0.000178763
0.000148908
0.000149947
0.0508841
0.000145226
0.000151783
0.000150099
0.000192811
0.000220079
0.000158954
0.0261948
0.000162558
0.00020628
0.000150857
0.000172863
0.000145828
0.000148832
0.0266701
0.0284429
0.000230437
0.000151309
0.000173306
0.000173076
0.0493417
0.040885
0.000198051
0.000162403
0.000144862
0.0502782
0.000146735
0.000147131
0.000197698
0.000180721
0.000156811
0.000177828
0.000163938
0.000158665
0.000155116
0.0337349
0.000151596
0.000147753
0.0292212
0.000164014
0.000145654
0.0186454
0.000148056
0.000148621
0.000188359
0.00018121
0.0525015
0.000145776
0.0001537
0.000147176
0.000304263
0.000146728
0.000199857
0.000225188
0.0236794
0.0169728
0.00719427
0.000158389
0.0479499
0.00022766
0.000149338
0.000158149
0.000162873
0.000158218
0.000254353
0.0367426
0.0689817
0.0212247
0.000338962
0.000148912
0.000180444
0.000148114
0.0264791
0.000155525
0.00014942
0.000151403
0.000149194
0.000146866
0.000180685
0.0704574
0.000145791
0.000150858
0.00014684
0.0377974
0.000150616
0.0438572
0.0033197
0.000229229
0.000148607
0.000146919
0.026494
0.000190838
0.000148845
0.000185959
0.000149472
0.000181909
0.000177282
0.000179047
0.000166455
0.000313318
0.000146234
0.000145797
0.00019334
0.018068
0.000156528
0.000165288
0.000147394
0.0091769
0.000148072
0.000147494
0.00015017
0.000148078
0.0116359
0.0323334
0.000207177
0.000168019
0.0526741
0.000208624
0.000145348
0.000156862
0.000145575
0.000255825
0.000146966
0.00015347
0.000148074
0.00014721
0.000145859
0.000329696
0.000148781
0.000270794
0.00014458
0.000159709
0.000154514
0.000281984
0.000148154
0.000157313
0.000158638
0.00017014
0.0616613
0.000147179
0.0199168
0.000172347
0.000164016
0.000147731
0.00014745
0.0197786
0.0139136
0.000147002
0.000146661
0.00019772
0.000195758
0.000161515
0.0311881
0.000150451
0.000199063
0.000156922
0.000145656
0.000115245
0.00014901
0.0138859
0.000148528
0.000149306
0.000148687
0.0305093
0.0238268
0.000145435
0.000180917
0.000193797
0.000148255
0.000146541
0.000147142
0.000182671
0.0380173
0.000171327
0.000150797
0.000162409
0.00014804
0.000148557
0.000150859
0.000147843
0.000190478
0.000148771
0.000169595
0.000213381
0.000160515
0.00014508
0.0001367
0.000174431
0.000148106
0.000174113
0.000156699
0.000205174
0.000154038
0.0323467
0.000169879
0.000147812
0.000176811
0.000176842
0.000151957
0.0340579
0.000168505
0.000155306
0.000207028
0.000147402
0.00018043
0.000169515
0.000177965
0.000147362
0.000147806
0.000145205
0.000160038
0.000167302
0.00016703
0.00013974
0.0434521
0.00383479
0.000149755
0.000309884
0.0217989
0.0358156
0.000148123
0.000147999
0.000167567
0.0114209
0.000152609
0.000159036
0.0117163
0.0285863
0.00099113
0.000172891
0.000189034
0.0193503
0.000209732
0.000144899
0.000702295
0.00019599
0.000148377
0.00014803
0.000150096
0.0759655
0.000178348
9.44931e-05
0.000151584
0.000229678
0.000147904
0.000209279
0.0196003
0.000149114
0.000158553
0.0530231
0.000110896
0.000169451
0.00014951
0.000152014
0.000150218
0.000181623
0.000181313
0.000266933
0.0376608
0.00014586
0.0229132
0.000184498
0.000199037
0.00014803
0.000149014
0.000209171
0.000184758
0.000147665
0.000167297
0.000168203
0.000161748
0.00170389
0.00627971
0.0713741
0.0422778
0.00015408
0.000145204
0.000167395
0.0162447
0.000320865
0.000146783
0.000181823
0.000169801
0.000197719
0.000147957
0.000149679
0.000234019
0.000224535
0.000215461
0.000262564
0.0135988
0.000147502
0.000183143
0.0432635
0.000149565
0.00016682
0.000180788
0.000145485
0.000188649
0.0126361
0.000181838
0.000149671
0.0110737
0.000182477
0.0145029
0.000144239
0.00015018
0.000148362
0.00014923
0.00014827
0.000168391
0.000162359
0.000162571
0.000190262
0.000158402
0.0351044
0.000154206
0.000154804
0.00015581
0.0303126
0.000166103
0.0461219
0.000155947
0.000156627
0.0157468
0.000171385
0.000148967
0.000162836
0.000227451
0.000501321
0.0002012
0.000147721
0.00014714
0.000147283
0.000206045
0.000150921
0.000346248
0.000257277
0.000182235
0.000158429
0.000194339
0.0402912
0.000148287
0.000130874
0.00015972
0.000164537
0.000147285
0.000146592
0.000168393
0.0613369
0.000148397
0.0412799
0.00020099
0.000171353
0.000188586
0.00014679
0.000147978
0.000156357
0.00014893
0.0158498
0.0224473
0.000169433
0.000215623
0.000147572
0.000147783
0.000148012
0.000149614
0.0508595
0.000149757
0.0572934
0.000169683
0.00014802
0.000190056
0.000261506
0.0207933
0.0308413
0.0001503
0.000145694
0.000148785
0.000149753
0.00022298
0.000180998
0.0226727
0.000148949