/*--------------------------------*- C++ -*----------------------------------*\
| =========                 |                                                 |
| \\      /  F ield         | OpenFOAM: The Open Source CFD Toolbox           |
|  \\    /   O peration     | Version:  v2012                                 |
|   \\  /    A nd           | Website:  www.openfoam.com                      |
|    \\/     M anipulation  |                                                 |
\*---------------------------------------------------------------------------*/
FoamFile
{
    version     2.0;
    format      ascii;
    class       volScalarField;
    location    "700";
    object      omega_0;
}
// * * * * * * * * * * * * * * * * * * * * * * * * * * * * * * * * * * * * * //

dimensions      [0 0 -1 0 0 0 0];


internalField   nonuniform List<scalar> 
13917
(
0.0338957
0.021993
2.73464
0.0221404
0.022111
0.454055
3.91466
2.28617
4.37593
0.0514397
0.0875195
0.0399007
0.0221642
18.1505
0.0253606
0.0241977
0.0220965
0.0368925
0.0391003
0.0221118
0.0222664
3.94455
0.022089
1.42098
0.0220075
3.85338
0.0414142
0.0535186
0.620118
0.0698306
0.0350488
0.0253349
0.0357294
0.0259656
0.0220307
0.169455
0.0220981
5.01255
0.0227153
6.73034
0.0218828
0.0222857
0.0215566
0.080022
0.0218253
0.0276299
0.0361678
0.045105
2.9926
0.0220178
0.0236039
0.0224122
4.05265
0.026356
0.0221136
0.0238905
0.0869316
0.0219987
0.0231729
0.0218093
9.41223
0.0219911
24.0945
0.0221001
0.422212
5.55271
0.0221124
0.0220713
0.0952054
0.0321278
0.0221182
3.6203
6.19737
0.022013
2.93708
0.0458355
6.73828
0.022088
3.75964
0.022236
0.0222036
0.0221191
0.385653
5.10753
8.80117
0.0220335
0.0221786
4.14718
0.0234666
0.0215452
5.91836
0.0649205
0.0217943
0.0228315
5.12273
0.390977
0.0686905
0.0420166
0.0755034
0.108007
0.0218062
0.0330469
0.0811445
0.0222012
0.0217665
3.44843
0.379501
0.0469702
0.0220934
0.0378044
7.3805
6.42854
0.0495174
3.54964
0.0230959
2.99038
0.0220018
1.47859
5.7541
0.0262574
0.0222735
0.0943931
5.15247
0.0502867
0.0219739
0.0226961
0.0218379
0.0219813
0.0215895
0.432903
4.39914
0.0229996
0.0218378
0.022274
0.314544
1.23787
0.0343167
0.113195
0.0221057
0.026083
0.151906
0.0217005
0.0226091
0.0978906
0.0220718
0.647669
0.653162
0.0223494
0.0216865
0.0258371
0.0359096
3.10266
0.0511034
0.0375371
0.0243664
10.2019
0.0311754
0.236173
7.57527
0.311612
0.0241427
0.0426071
0.0222359
0.0658398
0.048687
0.0741555
0.0221933
0.0384118
0.0217611
0.034108
0.0374472
8.13543
0.0533491
0.0223237
0.321586
0.041251
4.42535
1.96955
0.548227
0.0218656
0.0661923
0.0359377
0.0216919
0.0221693
0.029114
3.48167
0.193298
14.1179
0.0283849
0.0693168
0.161326
10.1895
0.192282
0.0221001
0.121437
0.0405637
0.0222286
0.0217997
0.200106
2.58987
0.0231351
0.0220335
0.0358556
0.0353401
6.25095
0.239078
0.022033
0.0220099
0.0409903
2.98592
0.0225027
3.98856
7.63374
0.0695522
0.0217756
0.534492
0.0365011
7.60397
0.0219505
7.00092
0.0218665
0.0625221
0.0218802
5.27265
3.66602
0.0244239
1.11899
0.0244887
0.0217804
0.168629
0.0521725
0.0281594
1.04037
9.08305
0.0217631
0.0256267
6.13257
7.27723
0.022228
0.0219424
5.52595
0.076561
0.0222667
0.138778
0.0616565
0.0417629
0.0309387
0.0222279
0.0415046
8.14421
0.0216462
0.0836934
0.138673
0.0218243
0.0219942
0.0420573
3.89005
0.0487985
0.0293476
0.0254034
0.0222712
7.5866
1.34924
0.147393
0.0217898
6.43056
8.06211
0.257279
3.76738
0.0482832
0.0222142
0.0219314
0.0360504
5.3827
0.0706462
0.0230187
0.258653
0.0284323
0.0215845
0.678061
0.0220882
0.32854
0.0229703
0.022262
0.025883
0.0373234
0.0428565
0.143273
0.0304178
0.0217262
0.20863
1.12288
2.46773
0.0219527
0.276997
0.0221754
0.0217198
0.0220094
0.945433
0.0221054
0.066413
0.0305047
0.0217503
0.0358611
0.0224924
2.54129
0.0402114
0.0595975
0.0216914
0.021986
7.20658
6.24104
0.0219948
0.0219066
0.631962
0.0218434
6.25993
0.0216938
5.36522
0.0217614
0.313391
0.0259609
3.0423
0.0238533
0.278909
0.291172
0.0258866
0.0763224
0.443797
0.0221573
4.64016
0.125635
6.80228
0.0249599
7.01016
0.025929
9.31332
0.23637
0.0961102
0.0942285
3.36275
0.0222159
0.0384152
7.80885
0.022153
0.0230043
7.11501
0.242408
0.0222424
0.147588
0.583914
0.021852
6.35461
0.159377
0.0220815
0.0218774
0.022183
0.0216803
0.202031
0.418999
0.718569
7.60856
0.0220083
0.0921284
7.70416
0.0294879
4.03866
5.43615
3.99854
0.0217521
0.143197
0.0218562
4.55996
0.021813
3.76502
0.0618968
0.0225257
0.0221975
0.0391925
0.0713463
0.0477334
10.1761
8.51319
9.98295
0.0432681
0.0490673
0.0219509
7.90347
4.05902
0.0219913
0.251265
0.0220404
0.162679
0.0217618
0.022226
0.0225636
3.503
0.0225496
3.68539
13.0839
0.0787263
0.455774
0.0221403
0.449943
0.405415
0.0220327
0.257854
0.0221316
0.0220252
0.0701364
0.0222616
0.0220139
0.0218517
0.176062
0.0222473
6.21061
3.05289
6.5597
0.192814
3.79326
7.44088
0.029228
0.0220149
0.103653
0.0226461
0.0263421
0.0220918
0.49456
3.57661
2.38208
0.0242551
0.0672672
0.0246877
0.0228659
0.0473124
0.0225046
0.145562
0.0220758
0.0220962
6.53098
4.37749
4.39306
0.0960729
7.68034
4.70714
7.80184
6.79984
0.0216204
0.0383326
0.0225353
0.022038
0.215984
0.0366739
0.0217092
0.044244
0.0285294
6.48659
0.0220282
0.0679873
21.5203
0.470099
4.70489
0.0222547
0.0220007
0.0221829
0.0314091
0.0217544
2.81535
0.559207
0.030195
9.37652
0.0238432
0.0671369
8.25231
0.658302
0.0759177
0.155492
0.0678203
0.0443221
0.0960734
0.0288684
0.0875483
0.507377
0.0309814
0.0505508
0.0217837
0.270227
0.0239469
0.0215568
0.0302666
0.0221197
6.74808
3.5744
0.0218428
0.0215959
2.00133
9.10954
0.0222618
6.4932
0.0219848
0.148738
0.0218544
6.46159
0.226286
0.0258083
0.021992
3.8123
0.162723
8.36218
0.0222693
7.31394
2.59157
0.845556
0.0215663
7.72911
6.54287
0.0293952
0.0218699
0.0221207
0.0459403
0.176883
0.0216675
0.0218858
0.0219567
0.0219507
6.61015
0.217725
0.0291567
0.186449
0.0219511
0.0218144
0.0661681
7.09121
0.0272491
0.0217632
0.0220206
0.0220794
0.747059
11.2216
0.022173
0.0220741
0.140926
0.0286857
0.0259587
0.0220012
0.022644
0.0249767
0.0494047
0.332109
0.19245
0.103917
0.0609264
0.240409
0.0588451
0.0219645
7.063
0.0220834
0.0231859
0.0224543
0.266492
0.0665998
0.0218175
0.462009
0.0771721
25.0294
0.061207
0.0345832
0.0293103
0.022189
3.83221
0.328958
4.80304
0.0220302
0.0251555
0.186094
5.5235
26.3526
0.0439617
0.108584
0.0241836
0.0229417
0.0220066
0.0511211
0.0851751
0.0222421
0.0359962
0.133879
4.7275
7.76909
0.0231534
0.0650205
0.21213
0.0266985
0.0224028
3.67343
1.12732
0.926633
0.170196
0.0216032
6.44787
0.0449492
0.0218432
0.0267679
0.0463294
0.0342454
0.0681752
3.80353
0.0932374
0.0271004
3.89072
0.0222796
7.85761
0.0222367
0.0221661
0.277433
1.09648
0.60986
0.022266
0.0222743
0.0220754
0.0287429
3.25062
0.0701754
0.0230248
0.0714294
0.0383695
0.0218566
1.16124
0.0683311
0.149575
0.0219284
0.0903107
0.0221203
17.7562
0.0525853
0.0664007
0.0253281
0.021876
0.0215968
0.0218509
0.103002
0.0280281
0.170853
7.64435
0.0380417
0.0218619
0.0917868
0.632809
0.184794
0.0216416
0.0272009
0.0218945
0.0239086
0.0232519
6.5916
0.0222279
2.008
0.0238522
0.0872333
0.0659202
6.29764
0.0683911
0.0220897
5.57467
13.3498
0.0219548
0.0224218
0.23725
0.147268
0.0703035
0.0222376
0.0220074
0.244662
0.0225689
0.0474719
0.0402401
0.0215948
0.0351643
2.45259
0.021624
0.0219601
0.0219768
5.91593
0.0222653
0.0240063
7.68893
0.0229647
0.823829
0.0244246
0.0364497
0.0219692
0.0451546
0.0220188
0.0439868
0.0218818
0.0719104
0.0219862
28.7165
3.02912
7.1343
0.0221049
0.0222057
0.0549689
0.0391246
5.48778
6.00815
0.036722
0.0220339
0.170916
0.674546
0.148319
0.158375
0.0344925
3.56963
0.0339165
0.0277975
0.0901562
0.162359
0.0363263
1.06922
0.0363041
0.0221644
0.0484089
0.0259081
0.0215932
0.0238456
0.0376129
0.0255213
0.0220267
0.0219175
0.0382533
0.0222119
0.0481783
0.0220348
0.0220565
0.0222731
0.0226075
0.0214952
0.024129
0.0219973
6.55388
0.0390677
0.379516
0.0217806
0.0222468
0.0468128
0.0449103
0.0228319
1.0104
0.0638677
1.3728
0.0238821
0.0755778
0.0218972
0.0222685
0.0219331
0.0225187
9.56684
0.0222547
0.286103
0.0242999
7.2351
0.0454127
0.0644973
0.0856897
0.0216416
0.0222909
0.0398083
0.0220644
0.0222995
0.549018
0.0223773
0.0221823
0.0246095
0.0219368
0.0216454
0.0254462
0.0291668
8.56065
0.0300127
0.0216216
0.0218622
5.71662
0.100937
0.0220757
0.0220245
0.742933
0.227623
9.84502
0.0345518
0.0221771
0.0217744
0.0216333
0.0315301
0.03053
0.137199
0.0253419
4.64174
0.0220323
0.0233922
10.4556
0.0220468
0.0239636
0.0219351
0.02208
0.036968
0.0433087
0.0219896
0.965136
4.5411
0.0660369
0.0219593
0.021534
0.0679314
0.277507
0.0222612
0.218355
0.0215387
0.0353746
0.0215325
0.0216192
0.186899
0.0217441
0.229403
0.0320106
0.022273
0.0215879
0.0221094
0.0218789
0.0219348
4.27742
0.0216266
0.0216531
4.9462
1.19368
0.0276178
0.0382873
0.0450223
0.0230155
0.0217134
0.0279258
6.3054
0.0748041
0.0221288
0.0219684
5.60535
0.0276708
8.38248
0.0222659
0.0229365
7.18808
0.0263232
0.0220116
9.81287
1.75995
0.0218768
0.0834078
0.0219303
0.0217379
0.0217669
6.52812
0.02149
0.0215884
0.0217056
0.217592
0.0225141
0.147509
0.066244
0.0216022
0.0330561
0.0221732
7.8254
0.0219572
0.0216279
0.0221827
0.0703049
0.0221754
0.0930504
6.1887
0.799808
0.0266883
0.159534
7.2817
0.0219781
7.37915
11.5821
7.04681
3.82506
5.2453
35.2235
0.0868532
0.0221317
3.82336
0.0263383
4.25148
0.021568
0.0217871
0.0220798
0.0221663
0.0233009
0.0305811
5.40236
0.0217806
0.0220775
7.74643
0.24056
0.0221107
0.0394259
0.0254881
0.0218504
2.85657
0.0414053
0.0236017
0.0224987
6.24903
8.81743
1.34639
0.0215312
0.164514
0.0764083
6.84211
4.41989
0.0521839
0.0218475
0.0219244
0.0220344
0.0214677
0.022646
0.0216151
0.0250403
0.0332638
10.1783
0.076109
0.0215987
0.0733953
7.89996
0.0348731
0.0223155
7.46742
0.0217463
0.0222384
0.0379595
11.6774
0.0221772
0.021928
4.08211
0.142435
0.198921
0.0653092
0.170861
0.0219008
0.103067
0.0223378
0.0219925
0.0223424
3.29593
7.91067
0.0216351
0.0215812
0.0219445
0.238118
0.0225375
0.0251575
0.0220634
0.0221813
0.102253
0.0216027
0.0443192
0.264077
4.36138
0.0218131
0.0712025
0.0232711
6.35488
7.65249
0.0220153
7.10969
0.0473182
1.45004
0.0221751
3.59327
0.0222462
0.0238443
0.0364651
0.0653174
2.69743
0.15661
0.0954673
1.52866
0.0218568
0.148212
0.0216117
0.0258032
4.2073
0.0220417
0.0222537
0.0222912
0.0218531
9.10981
0.0216428
0.0220797
0.0358072
0.0373128
0.0338118
0.579612
0.0749146
9.44304
0.0396577
0.0273446
0.0274481
5.73785
0.0279606
5.47155
3.86461
0.0229045
0.021594
3.60463
0.148985
0.0223504
0.069127
0.0273375
0.0217709
0.0234248
0.0218647
0.0364228
0.0222921
0.0339082
0.104559
0.0218643
0.0442703
0.0216659
0.0541471
0.0218765
0.0264602
0.0392148
0.0222667
0.0217547
0.0216441
2.06255
0.0625237
0.578893
0.02201
0.021946
0.0388085
0.0219383
0.0627123
0.0627058
0.0217723
0.0618522
0.0216587
3.78687
0.0223033
0.026895
6.57871
0.142954
0.0219077
0.0230239
6.88118
0.0219944
0.0219065
6.98437
6.82073
0.0243369
0.0914716
0.0221024
0.0217482
3.05406
0.022424
0.021651
0.152374
0.0216563
0.20998
0.0221969
0.0216578
0.0220911
0.0764046
4.08412
0.0221074
0.0221719
0.0219027
0.024955
0.0220769
0.955524
0.0421194
0.0222688
0.383153
0.0457229
0.155827
4.74015
3.77233
0.021629
0.0222483
0.0219676
0.630949
0.0255042
4.14204
7.50432
0.0237986
4.36441
2.30881
0.0339316
0.0849712
0.0610963
0.388802
2.16709
0.0571116
0.672165
5.17639
0.0392521
0.0243894
5.59905
0.0534482
0.0215784
0.0222641
11.7618
0.0346596
0.0218375
0.0466317
0.0672455
0.0331797
5.42544
0.0230404
0.579377
0.0275516
0.145617
0.0776401
0.17559
0.0250822
0.0216597
0.0222709
1.79612
0.021986
0.0239373
0.0217463
0.0226428
0.0217689
0.0338399
0.0853637
1.93726
0.043221
0.061284
1.78283
0.292948
0.0217503
0.229376
2.94716
0.0216764
0.021897
0.0258285
8.45196
0.0222547
0.047467
0.49497
0.0416843
0.0220688
0.0220497
0.0216527
0.0694367
0.0359824
0.0219882
29.5056
3.6328
0.0395259
0.230335
0.0397382
1.46783
0.0228813
0.0231341
0.662475
0.238586
0.0528188
1.70484
0.0254993
0.0222761
0.0216982
0.0219775
0.0220315
0.02266
0.0465368
0.0219182
0.0704001
0.0219363
0.0249224
0.0216022
0.0636738
0.0697878
0.482316
0.0219702
0.173904
0.0217015
0.331914
0.0220348
0.0258384
0.0221226
0.124279
6.30257
0.080334
0.0219087
0.0763155
0.0219327
0.0263802
6.46473
0.0217354
0.022369
0.0359806
0.0267593
4.20733
0.0219184
0.0283487
0.0220064
0.0220353
0.0317098
0.0222203
0.0217356
0.0235306
7.50008
0.0231466
0.149553
0.960511
0.0366036
4.03076
0.0230387
0.0217416
0.0295445
7.88831
0.0220953
0.0333391
0.0289838
1.59891
0.0218653
7.6804
0.0450151
0.0475006
0.0216651
0.0216046
0.0926918
0.0224236
0.0222858
0.0339316
0.0215853
0.0242767
0.0253527
0.0432959
0.295776
3.7692
0.0226527
0.045618
0.241516
7.92295
0.0271103
0.236394
8.35183
0.0292394
8.74256
0.0239095
12.1871
6.85851
0.0215458
0.022262
0.0219478
0.02188
0.0362162
0.0215931
0.0241064
0.0522378
0.0223592
0.0337687
5.83591
0.0299353
0.0225567
4.32282
0.0220158
6.41692
0.0224635
0.0514734
0.0218541
7.62415
7.69212
0.0219313
0.021931
3.36213
0.0293206
8.32473
0.0220208
0.0216497
4.61717
0.0219638
0.0430899
15.2606
0.0220722
0.0392252
0.0259283
0.0215978
0.0218949
3.69022
7.4095
0.0219462
0.0223245
0.0220179
0.0245922
0.0377004
7.21634
0.0225655
2.58692
0.274851
0.147563
0.25666
0.021955
0.0698885
0.17604
0.0288157
0.0220606
0.0375819
5.62727
0.0232657
0.0444088
1.65707
3.54746
0.280894
0.0254987
0.0221571
0.0222468
0.0220813
9.03209
0.0364142
0.0223634
0.0219698
0.022894
0.0222697
0.0219308
0.022057
0.0450339
0.0269846
0.339791
0.0452596
9.36901
3.6554
0.0289645
0.0345046
0.0217987
0.0266837
8.68403
0.0219674
0.0228938
0.0342403
0.0702934
0.0569961
2.94976
0.143858
0.0217536
4.99386
0.021566
0.0218676
0.0433617
0.0222733
0.0216396
0.0963021
0.697534
0.0216613
1.5764
0.0219374
0.0216197
0.0228251
2.74132
0.0260992
0.0224503
12.1545
0.0223491
0.135059
3.81531
0.0222462
0.04642
0.0220089
6.57761
0.0479618
0.0220656
3.33496
0.0365914
0.0763845
0.0222783
7.93542
0.0286509
0.436478
0.0219492
0.0670542
7.12391
0.0216442
1.41868
0.0220913
0.0452672
0.0513326
0.0222453
6.74937
0.0231322
0.0689107
0.0412776
0.0977598
0.0376383
0.0414378
0.0225092
1.6901
0.0304606
7.49335
0.0291018
0.0396868
0.0218115
0.0356038
0.0220487
0.0416881
1.65214
0.0223998
0.021776
3.44316
0.0221019
0.228807
0.022008
1.90726
0.149522
0.0301453
0.0219815
0.0219265
0.0221119
0.0216111
0.0660126
0.0516198
0.0395114
0.0240478
0.0220817
0.257034
0.022348
0.0294691
0.223796
0.0220368
20.3675
0.034338
0.0241482
1.29184
5.67319
0.217147
1.02211
0.514762
0.0218557
0.274331
6.97175
0.350628
0.0221727
0.0222702
0.066332
3.53398
6.07142
0.380429
0.0217206
0.0487562
0.0294812
3.85045
6.65534
0.0290623
0.0734302
0.0231385
0.0627357
0.0526087
0.0221642
0.0696942
0.630722
0.0221323
0.247166
0.022253
0.0217442
5.56939
5.76851
0.0218408
0.0217469
0.0220662
0.0216676
0.0434401
0.0989975
0.0220431
0.0219822
0.0220971
0.0279995
0.0249957
0.024958
0.209099
0.0220301
6.27335
9.41102
5.69733
0.137427
0.0388618
0.190317
0.0265002
3.78638
0.20527
0.567797
0.0221804
8.40005
3.80899
0.0217572
0.0220305
0.0728381
8.53704
2.28909
0.0215936
0.0219431
4.34495
1.49129
0.563036
0.0229548
0.0240241
1.93812
0.0221239
4.7076
11.9641
0.183384
0.704333
0.0220714
0.0218979
0.0218821
0.0262038
4.80744
0.0283047
0.0229032
0.0227475
0.0730219
8.83818
0.0280197
0.334449
6.70833
5.37287
2.18406
0.0220519
0.0221717
1.50376
0.021636
0.0215809
0.0227384
3.11163
0.0282328
15.216
0.0846859
0.0220211
6.49608
0.0314909
0.0217757
7.64171
0.159044
0.0254676
0.021723
7.44431
8.54433
0.0221812
0.992484
0.275716
11.5126
0.713979
0.0649815
0.0218841
0.0220455
0.983103
0.0234773
0.900618
0.0333241
0.611526
0.15183
0.0228994
0.0281471
0.0218646
0.0226455
9.08551
8.02237
0.0220791
6.58753
0.0294827
0.0219545
0.024505
0.0219201
0.09503
0.022059
2.0719
0.0483358
0.0218722
0.0218681
0.0916843
9.71595
0.0292241
0.0231858
0.0337361
0.0220451
0.0222932
0.02373
10.0994
4.45861
8.59711
0.0216995
0.0218615
0.0221574
0.0704073
0.0218555
0.0221802
0.096482
0.0379824
0.176586
0.0215412
8.29297
4.40907
0.0222843
10.7462
0.0676734
0.0269753
2.05984
0.0221132
8.52579
0.0287882
0.0228962
0.0239177
0.0216329
0.135793
0.0222432
0.0219076
0.0312793
3.75478
4.08237
0.0222459
0.0220204
0.0226068
0.0218204
0.0829443
0.022472
0.0571681
0.0223304
5.56637
0.0219099
4.71388
0.021698
7.05977
0.021988
0.021615
12.2783
0.29634
0.111224
0.177487
0.0435574
0.0293927
0.022059
6.90913
0.0220774
0.0218626
0.0900372
0.0388849
15.7368
7.08349
0.0756624
1.02947
0.0844702
0.291186
0.0217207
0.0230184
0.023934
6.72461
0.0252066
7.42037
4.90517
0.0217415
0.0221042
0.0219539
0.891448
3.26609
0.0222759
0.0221063
0.0247911
0.0252056
0.0285368
0.197332
0.235051
0.0220628
0.703519
0.0611534
9.12408
0.0482566
0.0226982
0.0227252
6.64796
0.0218794
0.0611654
2.61778
0.0225264
0.0238361
0.0990557
0.139136
0.0226792
7.5501
0.0229207
0.147361
0.0278317
0.029059
0.0219822
8.3263
0.021849
0.08608
1.43113
9.50906
0.0360597
0.0504032
0.0229691
0.0453373
0.0222659
9.92035
0.0234414
0.0217186
0.025265
0.0220906
0.0222692
3.32013
0.022068
0.0221793
0.0219798
0.0747256
0.0223147
0.0289671
0.0450795
0.155618
0.0766284
0.0222542
0.199856
0.421385
0.140045
0.0617694
0.0278444
0.0919756
0.817941
0.391329
0.0222845
0.456499
2.56717
0.0222839
0.022811
0.0216268
0.706439
0.074516
0.0217131
1.3031
7.07501
0.0217995
0.0222677
3.23369
4.66729
0.0397554
0.0216314
1.55793
3.59316
3.30226
0.0220219
6.73573
0.0488511
0.0657213
7.76551
0.0235801
0.0216379
0.0256188
0.122975
0.0258656
3.3218
8.35317
0.021768
0.638884
0.432688
6.93075
0.0216939
0.0539089
0.0223892
0.0218781
5.68313
0.249534
0.137801
0.258801
0.0279537
0.0362801
0.022043
9.14729
7.19128
0.0220652
0.0219715
0.0320339
0.0216036
0.0344036
4.74247
1.32368
0.0365736
0.0220205
0.021728
5.94028
0.0246417
0.0360293
0.0217501
0.0226609
0.452372
0.259975
0.168153
2.94903
0.0221704
0.152479
0.0220937
0.0454221
6.83172
8.60849
0.0220722
0.0222937
0.026293
0.0257109
0.022231
5.54368
6.98857
0.021686
0.0214815
0.0221917
0.0219628
2.67555
0.0216105
3.12078
0.0654986
0.0387452
0.0217618
0.0417276
8.64284
0.0264705
0.380424
10.9889
0.0221687
7.74902
0.0332887
0.0363124
0.298596
7.94255
6.93715
0.037192
0.0218667
0.195892
0.0216199
0.0254622
0.0222271
2.84135
0.0305353
0.544169
0.148464
0.0345512
0.0221271
0.185481
0.0236739
0.0222703
0.261829
0.0215838
0.0269487
0.0274764
0.0221791
3.43434
0.0229014
0.56468
0.022698
0.0219243
10.77
4.67202
0.0240896
0.0330235
0.0277731
0.0470023
0.0367324
0.0231657
0.0249924
0.0230975
0.133309
0.0248334
2.43635
0.0544969
0.149993
0.0675676
0.0219669
5.42246
0.0215972
3.25102
0.0243322
8.01498
0.481315
0.5844
0.414078
0.161512
0.0709189
0.0217025
4.98439
0.0777799
0.0220604
9.3667
0.803635
0.0232043
0.0223473
0.0267477
0.0267374
0.0256991
6.45469
0.0222841
0.0242114
0.0263036
0.0307985
0.022164
0.0503911
0.0215675
2.23599
0.0234586
0.0870689
0.026881
0.0295169
0.0932147
0.252527
0.0622665
0.0217891
0.193164
4.4854
22.5541
0.0218458
1.21163
0.0247922
1.74566
0.0220772
0.02395
5.14018
0.032964
6.95386
8.34989
0.0333503
7.29203
0.021887
0.0215532
9.21999
0.0600935
0.0238283
4.63742
0.0245838
0.0434788
0.0283289
0.0538024
0.0219259
0.299789
0.650729
8.23825
0.142307
0.0234733
0.0467778
6.97214
0.0235508
0.022239
0.0644397
0.0216649
0.266199
13.4909
8.05614
6.27856
0.0356486
0.0218707
6.56508
0.0215739
0.0460578
0.0222346
26.204
0.0230287
0.0442066
4.46253
0.0745581
0.0220254
0.0305042
14.9452
0.0221154
0.0833976
0.0217202
1.50573
7.55771
0.0668638
0.07877
0.0219469
0.132292
0.0779992
0.0295594
0.0217266
0.0218548
0.0221469
0.0350212
0.0221252
0.0510672
0.0221899
0.0217025
8.57524
0.0217574
0.0244989
0.0227945
0.0222745
4.52253
0.0217738
0.0306642
5.78984
0.0313593
2.22677
0.0220844
8.63986
0.0324824
5.2387
0.0229268
0.0723535
0.021723
0.0296993
0.0700565
0.0652122
0.144174
6.69608
0.129937
1.02543
0.0271878
0.0643912
0.0388984
0.296209
0.0248531
0.0217032
0.0220363
0.0337678
0.0420986
0.238182
0.0359844
1.40496
0.388533
0.103803
0.0219424
0.284496
0.184625
0.0224829
0.0239443
0.0220638
0.277687
0.0220442
10.4828
0.0217551
0.0236161
6.86907
0.0683224
0.0220437
0.0220293
8.20263
0.0217942
0.0235687
0.0231388
0.0295852
0.024808
0.0220323
0.0890014
0.0832412
0.0420118
0.175268
7.52072
4.46647
7.09863
0.0217149
0.0219687
0.0911289
0.021884
0.0457125
1.24087
4.73806
0.0216288
0.0220569
3.78312
0.174085
0.0216428
0.0217875
0.0265698
18.0731
3.58084
0.0242271
0.0296833
0.0221984
0.188277
0.0718183
0.136543
0.0318848
0.0412245
0.0224997
0.0302814
0.164752
0.0227973
0.0218519
0.024199
3.34415
0.0248025
9.1641
0.0221044
5.08813
0.033582
0.0285661
0.0217644
0.021913
0.55543
0.479072
0.0587075
4.47659
15.2463
0.0224485
5.89124
0.0823631
0.0218081
0.280769
0.153218
0.0672968
0.022254
4.0284
6.96823
0.0216981
0.036886
4.68421
0.0390039
0.0219893
0.0217023
0.0219986
0.0224743
0.0571849
0.155559
0.080498
0.0564587
0.0216835
0.0221102
0.544858
0.021767
0.0410513
0.0269823
0.0216688
0.036569
0.0220213
0.023328
0.164525
0.0219951
6.95484
0.0220183
8.13099
4.44928
0.061998
0.0221052
0.0222927
7.02931
0.0216219
0.0230706
0.0223839
0.239293
0.314159
0.0273309
4.60932
0.0395992
0.197951
0.0226633
0.0439322
0.0216293
0.0221383
6.72672
4.79811
0.508406
0.022877
0.0449509
0.0443849
7.94877
6.12918
0.151164
0.0318243
0.0215704
6.6109
0.0217363
0.0217835
0.142588
0.0658031
0.027748
0.187098
0.0448125
0.0294331
0.0248413
6.98287
0.0228667
0.0219885
8.57113
0.0442841
0.0216702
3.8335
0.0220319
0.0221091
0.0949504
0.113923
18.7593
0.021689
0.0245198
0.0218879
2.20216
0.0217997
0.533102
0.269615
4.3259
3.74002
29.6417
0.0304193
6.47347
0.890327
0.0222092
0.0294361
0.0418248
0.0302059
1.2714
5.6634
8.17381
4.1007
2.20488
0.0220975
0.0630278
0.0220403
6.51597
0.0247577
0.0220968
0.0228334
0.0221433
0.0218258
0.0641484
8.27318
0.0217052
0.0226453
0.0218601
6.01059
0.0225593
8.03976
2.61769
0.527841
0.0220975
0.0218307
5.35238
0.381989
0.0221389
0.233586
0.0222276
0.103517
0.173364
0.0612196
0.0340456
1.05194
0.0217476
0.0216196
0.123293
3.67077
0.0259756
0.0412831
0.021895
9.85958
0.0220086
0.0219475
0.0224259
0.0219738
8.5733
5.32967
0.201346
0.0370411
7.17693
0.221007
0.02164
0.0252886
0.0216667
1.2517
0.021726
0.0243287
0.0219902
0.0219088
0.0216508
2.37457
0.0219505
1.67606
0.0214912
0.0333487
0.0224873
1.60154
0.0220427
0.0257337
0.0263138
0.0581955
10.372
0.021903
4.83712
0.0529698
0.0418532
0.0217881
0.0219319
3.94746
19.1455
0.0217285
0.0217441
0.137604
0.130849
0.0387682
5.32084
0.0225732
0.162014
0.0252897
0.0216825
0.318181
0.0219752
3.8771
0.0220361
0.0221767
0.0221185
5.39511
4.31172
0.0216502
0.237163
0.122009
0.0220599
0.0217334
0.021871
0.255616
5.82995
0.0498063
0.0224236
0.0314593
0.0220257
0.02203
0.0226332
0.0220012
0.102702
0.0220608
0.0390739
0.376161
0.0296887
0.0216063
0.870958
0.0471112
0.0220352
0.062093
0.0253038
0.193929
0.0248238
11.5167
0.0419689
0.0219212
0.0623398
0.0611139
0.0230081
7.67169
0.0372938
0.0241717
0.201594
0.0218764
0.115014
0.085964
0.0982142
0.0219303
0.0219353
0.0216195
0.0344011
0.0353158
0.0348456
0.352708
6.7804
2.72585
0.0222665
1.93432
4.33606
6.00017
0.0219909
0.0219423
0.0357088
3.88786
0.0236863
0.0267083
29.7387
6.16162
10.5601
0.118469
0.0984123
3.77996
0.259211
0.0215627
7.32477
0.13121
0.0219671
0.0218625
0.0224446
9.19996
0.0673147
0.902484
0.0229974
0.521356
0.0218995
0.216639
4.24997
0.0221433
0.0264218
6.74463
0.648973
0.041738
0.0222135
0.0233378
0.0224302
0.18563
0.0697923
0.666494
6.01028
0.02169
6.83605
0.119083
0.175855
0.0220285
0.0221645
0.218624
0.282764
0.0219198
0.0379582
0.0752873
0.0394856
2.0674
3.72881
8.97283
6.2693
0.0247454
0.0215941
0.0684768
4.85164
1.89613
0.0217218
0.249519
0.0916047
0.484272
0.0217877
0.0222559
1.17155
0.266591
0.437241
1.62536
4.40616
0.0219476
0.255959
6.2896
0.0222366
0.0640663
0.0674145
0.0216551
0.0943245
4.71612
0.247383
0.0222549
5.44276
0.0708326
26.7138
0.0214794
0.0222934
0.0219951
0.0220188
0.0219786
0.0438217
0.03771
0.0406469
0.365627
0.0263462
5.62103
0.0250299
0.0239152
0.0257163
9.6989
0.0595242
7.06335
0.0260279
0.0277133
23.2153
0.10126
0.0220883
0.0405087
0.274499
1.60417
0.169129
0.0219128
0.0218609
0.0218527
0.199896
0.0227724
2.49249
1.33175
0.25242
0.0281134
0.151854
7.39119
0.0219819
0.773797
0.0316839
0.0514869
0.0218424
0.0217026
0.0385205
7.85759
0.0220795
6.90387
0.367902
0.100831
0.123463
0.0218003
0.0220199
0.0251651
0.0219802
24.8758
27.4445
0.0773764
0.556026
0.0218931
0.021882
0.0219132
0.0222465
10.2345
0.0222195
7.10582
0.0867342
0.021797
0.376745
0.692842
3.95776
10.1559
0.022375
0.0216114
0.0221298
0.0221373
0.790281
0.234151
6.63494
0.0221544
0.021843
0.145991
0.0222603
0.137617
0.0236833
0.142054
0.162012
0.0389337
0.0368942
0.0216787
0.0344424
0.0355044
0.181836
0.0834339
0.0399842
0.0218584
0.190465
0.0218383
1.19775
4.12423
0.934522
0.0220519
0.107445
0.0219737
0.0345518
0.0222519
0.02191
0.0281514
10.3516
3.67185
0.0806642
0.0428049
0.188137
0.0644555
3.08
7.46246
0.0294617
6.99844
0.257943
0.0217674
0.0579358
7.01238
0.100806
0.0222355
0.0405625
2.19657
0.186996
9.11808
0.0218352
0.182794
0.0221078
0.0218943
0.0287402
0.160737
0.0222639
4.47202
10.0655
0.140867
9.27861
0.360486
9.24635
0.174397
0.0216846
0.0232883
0.021569
0.0411336
0.138119
0.192347
0.0239529
0.0385742
0.0215427
8.12583
0.0282905
0.0361686
3.93627
0.101898
11.7898
8.69346
0.0219242
8.54247
0.0221244
0.0280944
0.0459738
4.31461
0.0874345
0.0277126
0.0220495
0.562121
0.0291143
3.54317
8.85407
0.0335005
3.57215
0.0299191
0.0222734
1.14256
0.0491029
0.0229502
11.1362
19.029
0.0252738
0.0260835
0.0752432
7.09293
0.0219268
0.0219394
0.0216468
0.0217253
0.0224283
7.46213
0.0302328
5.39179
0.0219526
0.0217138
0.844568
0.0218315
0.0231022
0.022053
0.0220329
0.210839
0.0216719
6.43063
0.0217079
0.0221629
0.0374404
0.0222456
0.150116
0.0216778
0.022265
0.0217109
0.024769
0.0880483
0.0226181
4.25989
0.0218714
0.0415967
0.0251738
7.40259
0.0228681
0.0222686
0.0215397
0.0216298
0.205463
0.0218609
0.0217466
0.0228886
0.486609
0.0219309
0.0416526
0.0311086
0.0219663
0.718734
12.1503
0.150388
0.400311
0.0227428
0.0647018
0.0221673
0.103279
0.170602
0.0218233
0.210873
0.0754931
0.260057
0.0294645
0.022032
1.51471
0.0385765
0.524295
4.09307
0.0214862
0.0219638
9.26344
3.56454
0.037461
0.0519589
0.0226835
15.9408
0.315295
0.0214813
0.0219558
0.0218175
0.0221718
0.0222477
0.0220493
0.0359972
6.46036
0.0293006
0.0221923
0.497013
0.0219785
0.57876
0.0433434
0.021665
0.0244786
0.0218882
0.270137
0.0244944
0.0537649
0.0219319
0.0219495
7.02495
6.92837
0.022177
0.0335567
0.0444944
0.0292831
0.0239493
0.0222712
0.0219265
0.838324
0.382412
0.027925
0.283946
0.0218701
22.1924
0.0644692
0.0242985
15.9653
0.0230075
4.8698
0.507678
3.86722
0.454168
6.56081
4.28211
0.0215244
0.0247014
0.0250435
0.0215641
0.0216105
0.0248107
0.0761215
0.0216675
0.02906
0.0702419
0.0704239
0.337769
0.132615
0.0288013
0.937798
0.703814
0.0342959
0.0252678
0.0740052
14.5549
5.19165
0.0251747
0.0215388
0.0218137
0.021705
0.0269046
4.69677
0.265342
0.0215751
6.86867
0.0219736
0.0810956
2.79046
0.0863312
0.14254
0.0960345
0.319232
0.0227894
0.0336662
0.021835
0.214135
0.0219301
0.0223482
0.0264109
0.0870037
0.0221753
0.0246676
5.14578
0.0218093
0.0218307
0.0288956
9.33273
0.0766373
0.170603
0.0389903
0.022149
3.63176
0.0375084
0.0224749
0.0220246
0.0287466
0.0248414
0.0220403
0.023634
5.66321
0.0229976
0.0215902
0.0468884
0.0218552
0.0310043
0.0301099
0.0220659
0.0219883
6.69667
0.021677
0.0220286
0.021622
0.0252837
0.0214502
7.07728
0.023996
0.14126
0.0219571
0.021724
0.0216902
7.18274
0.0396584
0.0220588
0.0215143
0.566386
0.025362
0.0439134
0.021838
0.0925037
0.0229016
0.0215334
0.697759
0.0215843
0.0222523
0.0221452
0.0217171
0.0242071
0.022133
0.0220309
1.59786
1.57724
6.55793
0.14838
12.4741
0.021794
8.9609
0.0219622
3.29629
12.602
0.0217886
12.0707
0.0219746
4.3866
7.3855
0.288705
6.50002
5.18606
0.576713
0.211828
11.3107
1.01183
0.0380064
0.0288838
5.84443
0.0234475
0.021626
0.227909
0.0227453
0.0279302
2.3294
0.0226539
0.165078
4.51168
1.53018
0.195989
0.0685405
0.0222516
0.0276664
0.0491876
0.0219613
0.91143
0.263752
0.1117
0.021856
0.0220679
13.5723
0.0216427
0.423037
0.0217305
11.0552
8.11579
0.0345194
0.0250513
0.021957
7.97725
1.91298
0.0247769
0.0299997
0.0222857
0.0222856
0.0365919
0.0231343
0.0323442
0.0595911
0.0238144
0.0257596
0.0220419
0.0314004
18.4269
0.0218996
3.26196
0.0217758
0.246374
0.0560344
0.0220348
0.742987
0.0721642
0.0218109
0.146886
0.0220477
0.167995
0.0221798
0.0220047
3.0317
0.0221449
0.0664948
0.022554
0.079108
0.0217424
0.0222929
0.021841
0.0296476
0.0240158
0.0222414
0.0225316
0.025572
0.0223955
0.0709424
0.0579001
0.0241677
0.023605
0.0215183
2.29845
0.637995
0.0227479
0.0224941
0.0226253
0.0348582
0.022067
0.0308229
0.021542
0.0222853
0.134048
0.0233241
0.0222847
0.0218781
6.98406
15.7845
0.0215773
0.062381
0.0608679
0.148608
0.128473
7.96178
8.00164
0.378868
0.0221651
0.0783715
0.0219225
0.0318452
12.5491
7.16875
0.123388
0.0239992
19.6452
0.0220358
0.039998
0.216154
0.022173
0.0772759
0.0229116
0.0227906
0.058313
0.0855327
1.57913
3.69258
0.0217601
0.0215479
6.73787
4.52733
0.0221747
0.028178
0.0696891
0.0220963
0.0220106
0.0233256
0.203064
0.0217385
6.00337
0.0288932
0.0219269
0.14367
0.0445234
0.0415473
0.0842617
5.84841
0.0244299
0.0275113
0.0279895
0.0236099
12.6509
0.0255879
0.55394
7.01831
0.0593575
3.55708
0.039656
0.0429768
0.251232
0.0216902
8.02635
0.0620141
0.0318118
0.0286167
0.0221766
0.0215916
2.65388
0.0381098
2.70733
0.309586
0.022117
6.27922
0.0218163
0.0219222
0.0283636
10.6775
0.0454985
0.0215311
0.972889
0.0219644
0.023413
3.95683
0.0230314
3.78363
0.0222725
8.30171
0.299689
0.0705316
0.525251
0.0232763
3.90619
0.0215194
7.17804
6.82919
7.26945
9.79231
0.0219405
0.0216903
0.171581
4.13938
3.99716
4.04316
4.09982
0.0219999
9.71055
3.85624
0.0223505
0.487561
0.032132
0.0292185
3.2753
0.0359265
3.26877
0.0218448
0.0353496
0.0272583
0.134953
11.6789
0.0342992
3.9828
1.83808
0.0221707
0.0244108
0.023424
0.0230132
4.03229
0.0220061
0.0217311
0.0368821
4.39228
4.3039
0.0251511
4.17782
3.96833
0.0219242
11.6362
6.46064
0.0978558
4.2678
0.0518816
0.0239726
0.0221718
0.117554
0.0243417
0.0600761
10.1324
6.84233
0.0280418
0.0448528
0.0258584
0.0275749
0.0216392
0.0285608
0.0247346
0.066057
1.26462