/*--------------------------------*- C++ -*----------------------------------*\
| =========                 |                                                 |
| \\      /  F ield         | OpenFOAM: The Open Source CFD Toolbox           |
|  \\    /   O peration     | Version:  v2012                                 |
|   \\  /    A nd           | Website:  www.openfoam.com                      |
|    \\/     M anipulation  |                                                 |
\*---------------------------------------------------------------------------*/
FoamFile
{
    version     2.0;
    format      ascii;
    class       volScalarField::Internal;
    location    "700";
    object      V0;
}
// * * * * * * * * * * * * * * * * * * * * * * * * * * * * * * * * * * * * * //

dimensions      [0 3 0 0 0 0 0];


value           nonuniform List<scalar> 
13917
(
0.0120497
0.0430318
0.00275443
0.0345871
0.120613
0.0022472
0.0022796
0.00146449
0.00177473
0.00795872
0.00439316
0.00914184
0.0248048
0.00135283
0.0217767
0.0264984
0.0408244
0.00910272
0.0104373
0.158134
0.136663
0.00191979
0.124051
0.00200146
0.0722637
0.00214522
0.0073905
0.00497687
0.0020881
0.00599265
0.0112268
0.0179877
0.0111485
0.0171225
0.0710911
0.00311853
0.122
0.0014513
0.0267606
0.00123058
0.173975
0.172406
0.132239
0.00481951
0.0437792
0.0172214
0.0103078
0.00766586
0.00167496
0.170322
0.0158293
0.039136
0.00147155
0.0159082
0.0384249
0.0197024
0.00562539
0.0666637
0.0272307
0.0424984
0.00238109
0.0486032
0.00124849
0.136787
0.00319385
0.00243819
0.113773
0.0676589
0.00368888
0.0126253
0.128976
0.00179939
0.00141636
0.0959388
0.00149396
0.00889901
0.00124696
0.037277
0.00232676
0.146863
0.153449
0.109266
0.00262316
0.00171519
0.00193799
0.0384995
0.141849
0.00192622
0.0209722
0.106367
0.00145163
0.00762117
0.0696703
0.0311523
0.00154834
0.00296466
0.00507222
0.00778499
0.00480747
0.00521151
0.126702
0.0119294
0.00417522
0.0273576
0.0901566
0.00226223
0.00352028
0.00664982
0.0436647
0.00987638
0.00166483
0.0015545
0.00627178
0.00196178
0.0264438
0.00132666
0.103579
0.00174249
0.00140294
0.0157269
0.164081
0.00418749
0.00125186
0.00674105
0.150295
0.0343816
0.0429629
0.17044
0.172468
0.00224725
0.00129583
0.0330737
0.0441587
0.140575
0.00326186
0.00206121
0.0113189
0.00359281
0.101377
0.0171972
0.00418005
0.0762264
0.0410244
0.00434641
0.0567203
0.00259703
0.00233698
0.0470402
0.0880154
0.0193297
0.00930084
0.00118018
0.00732413
0.00909076
0.0211653
0.00190109
0.0147137
0.00313252
0.00125534
0.00319713
0.023438
0.00817882
0.16228
0.00560179
0.00794672
0.00459294
0.0265662
0.0087827
0.0625725
0.00953341
0.0106996
0.0013212
0.0060735
0.0353476
0.00272398
0.00742917
0.00162011
0.00163874
0.00278063
0.0661092
0.00656058
0.0123351
0.0772786
0.126764
0.0151213
0.00234467
0.00423066
0.00208206
0.0101458
0.0035182
0.00311602
0.00194555
0.00351534
0.143161
0.00369298
0.00782231
0.188142
0.0557976
0.00378068
0.00203427
0.0215327
0.129689
0.011223
0.0102049
0.00134578
0.0029868
0.0608445
0.0588541
0.00808636
0.00270128
0.0444061
0.00225093
0.00138499
0.00541737
0.0919541
0.00268063
0.00949981
0.00154526
0.0703878
0.00271819
0.0785195
0.00562841
0.142993
0.00137498
0.00201794
0.023517
0.00355001
0.0187062
0.104085
0.00271486
0.00639862
0.0108703
0.00256811
0.00105127
0.141124
0.016148
0.00172974
0.00120605
0.139011
0.116301
0.00131687
0.00435483
0.162479
0.00393192
0.00714319
0.00733639
0.0128043
0.164006
0.0114501
0.00128543
0.0562875
0.00651879
0.00386101
0.0467099
0.0592882
0.00805263
0.00133748
0.0066711
0.0119805
0.0200468
0.177302
0.00112783
0.00261987
0.00341701
0.0834562
0.00153439
0.00126427
0.0028775
0.0019202
0.00765365
0.160147
0.185637
0.00888436
0.00140246
0.00583703
0.0271773
0.00297174
0.0115201
0.161343
0.00230492
0.138787
0.00243326
0.0248945
0.133641
0.0181746
0.00810746
0.00990327
0.00324458
0.0125807
0.0494018
0.00338197
0.0021958
0.00195137
0.0804391
0.002959
0.124138
0.0520131
0.110274
0.00203274
0.183899
0.00520222
0.0147796
0.0679249
0.00928165
0.0320447
0.00103693
0.00810706
0.00813131
0.0659635
0.0611381
0.00153605
0.0013542
0.0883336
0.155639
0.0026856
0.0716772
0.00150779
0.0772089
0.00126354
0.0393448
0.0038838
0.0160374
0.00142422
0.0255833
0.00308382
0.00260819
0.0184818
0.00370615
0.00271172
0.0407214
0.00158872
0.00324861
0.00103813
0.0201571
0.00128049
0.0167764
0.00184931
0.00359652
0.00445688
0.00506443
0.00220748
0.123985
0.0108419
0.00186626
0.0408471
0.0281737
0.00139482
0.00338293
0.0436863
0.00351258
0.00198973
0.144716
0.00146212
0.00358388
0.133374
0.105203
0.138922
0.0790612
0.00330848
0.00244724
0.00242195
0.00183801
0.0892778
0.0055134
0.00127678
0.011427
0.00193272
0.00166306
0.00193239
0.108877
0.00378225
0.0904049
0.00250268
0.0413518
0.00133794
0.00654016
0.031181
0.109754
0.00883795
0.00525318
0.00610662
0.00121825
0.00163914
0.00122908
0.0100642
0.00648143
0.099616
0.00124851
0.00195779
0.058962
0.00383465
0.104623
0.00397301
0.0367841
0.135581
0.0232329
0.00167868
0.0279414
0.0016802
0.00148709
0.00245952
0.00246324
0.0395976
0.00259748
0.00238587
0.125642
0.00379446
0.0471895
0.0660332
0.00489803
0.177517
0.0981685
0.0822661
0.00362801
0.142055
0.00144979
0.00213165
0.0013467
0.00329171
0.00158015
0.00128627
0.012314
0.0944537
0.00522599
0.0233886
0.0166698
0.125316
0.00259438
0.00240101
0.00258313
0.0211009
0.00573444
0.0233345
0.0280959
0.00727358
0.029382
0.00298788
0.0408943
0.153005
0.001571
0.0014797
0.00154106
0.005491
0.00119573
0.00178675
0.00151029
0.00150317
0.142922
0.00791386
0.0290996
0.0539438
0.00325784
0.00767452
0.159706
0.00834267
0.012332
0.00135035
0.100222
0.00561673
0.0016536
0.00307763
0.00121005
0.133952
0.0505836
0.161069
0.0115043
0.131212
0.00229885
0.00270728
0.0146949
0.00170592
0.0207016
0.00474589
0.0015847
0.00149378
0.00453888
0.00334549
0.00484693
0.00928841
0.00463676
0.0113453
0.00444161
0.0023221
0.00950992
0.00534213
0.154718
0.00278006
0.0214322
0.079534
0.0125121
0.0337141
0.00150361
0.00164315
0.0697969
0.152843
0.00240662
0.00112529
0.180819
0.00124369
0.0295007
0.00414922
0.0729859
0.00108044
0.00311631
0.0189322
0.0307614
0.00184831
0.00405515
0.00127978
0.176989
0.001358
0.00186332
0.00295227
0.0679337
0.00170665
0.00210912
0.0113047
0.100032
0.0353716
0.0092249
0.00375832
0.135421
0.111105
0.138171
0.136956
0.00124945
0.00306365
0.0121736
0.00422214
0.166804
0.0984919
0.00575183
0.00217095
0.0121708
0.0514483
0.0880202
0.070059
0.00257616
0.00185174
0.141401
0.0729159
0.00353651
0.0118293
0.0118613
0.0571007
0.0248846
0.018931
0.00595594
0.00282687
0.00349926
0.00442051
0.00528115
0.00300606
0.0069175
0.078092
0.00147845
0.0793778
0.0251976
0.0269905
0.00267584
0.00536881
0.116431
0.00319843
0.00518512
0.00145122
0.00484499
0.0096498
0.0117446
0.104356
0.00192089
0.00326825
0.00158296
0.0476285
0.0151547
0.00368292
0.00150923
0.00136009
0.00722122
0.00439989
0.0256977
0.0217347
0.0499122
0.00605016
0.00413433
0.0424474
0.00970086
0.0033153
0.00171244
0.00108553
0.0263137
0.00509205
0.00359384
0.0164387
0.04328
0.00155343
0.00258106
0.00225985
0.0041581
0.139411
0.00124392
0.00977554
0.136804
0.014107
0.0072463
0.0113758
0.00637627
0.00215992
0.0050099
0.0153102
0.00233678
0.0266368
0.00138362
0.141146
0.107934
0.00244738
0.00215501
0.00243282
0.0248828
0.0397304
0.0782273
0.0102017
0.00136028
0.00494193
0.0209451
0.00553482
0.00889935
0.0594083
0.00244642
0.00604682
0.00339912
0.0768521
0.00403188
0.0327343
0.00156273
0.00820982
0.00594165
0.0128176
0.136763
0.0774976
0.041953
0.00500633
0.014948
0.00375904
0.0012619
0.00854729
0.135106
0.00382636
0.00178437
0.00335066
0.0554069
0.0154712
0.11097
0.016675
0.0205228
0.00187866
0.145881
0.0023093
0.0174058
0.00404973
0.0064901
0.0013364
0.00558629
0.0388264
0.00135718
0.00136323
0.0546264
0.0283634
0.00332616
0.00464069
0.00557718
0.168047
0.0307747
0.00404225
0.0245019
0.00747313
0.00921901
0.0703818
0.0103455
0.00243473
0.0528217
0.0415514
0.154879
0.00138341
0.153751
0.0220343
0.00135539
0.0251487
0.00240033
0.0209215
0.00848388
0.13753
0.00828875
0.10073
0.00904168
0.163024
0.00574389
0.0288711
0.00175826
0.00134112
0.00166278
0.188848
0.135652
0.00723573
0.00955757
0.00119787
0.00156553
0.00878624
0.075769
0.00372134
0.00237508
0.00297014
0.00414816
0.0090447
0.00207898
0.0101407
0.012774
0.0040061
0.00377833
0.00943171
0.00168865
0.0104243
0.0303498
0.00639999
0.0146234
0.0686021
0.0180287
0.0101165
0.0183027
0.102277
0.152852
0.00901369
0.0258328
0.00665145
0.0672737
0.0901816
0.141094
0.0263298
0.0997293
0.0207043
0.1423
0.0011068
0.00982626
0.00282837
0.139655
0.138331
0.00676226
0.00789016
0.0300433
0.00241653
0.00634562
0.00263045
0.01356
0.00490306
0.031108
0.158383
0.145458
0.0260917
0.00123958
0.145246
0.00268105
0.0152902
0.0010677
0.00801599
0.00554594
0.00435313
0.0959591
0.182477
0.00874389
0.0711381
0.0401967
0.00269053
0.0318386
0.130287
0.0153923
0.128821
0.131547
0.0178127
0.0135319
0.00105168
0.0136139
0.0440399
0.178775
0.00157676
0.00411099
0.0482272
0.0383307
0.00254214
0.00324669
0.00130761
0.0113758
0.0294405
0.13023
0.124315
0.00932318
0.0128854
0.00320305
0.0147552
0.00156459
0.0342402
0.0254497
0.000928463
0.103344
0.0182767
0.0574446
0.160388
0.0101394
0.00749828
0.0322495
0.00205277
0.00121307
0.00751466
0.0635349
0.0805306
0.00552646
0.00274068
0.158771
0.00280638
0.0837895
0.0107601
0.0531608
0.0694856
0.0034478
0.0506619
0.00292821
0.0108071
0.151683
0.109349
0.050938
0.0721757
0.0441662
0.00151327
0.0557992
0.0706252
0.00165207
0.00200322
0.0120478
0.0117178
0.0066192
0.0211583
0.0795254
0.0107844
0.00136572
0.00460694
0.0982576
0.0410256
0.00181565
0.00997634
0.001571
0.136249
0.0284691
0.00134048
0.0132243
0.0346237
0.0012423
0.00162061
0.0798549
0.00435508
0.118908
0.0544419
0.106853
0.00137807
0.098064
0.0471453
0.0800751
0.00251142
0.0214434
0.00424677
0.00590676
0.0621976
0.0103412
0.144032
0.0015107
0.0987212
0.055272
0.131179
0.00381506
0.110461
0.00396575
0.00127221
0.0025556
0.0184418
0.00302503
0.00134735
0.0604699
0.00123458
0.0016623
0.00127843
0.00156381
0.00157719
0.00153143
0.00405267
0.0351378
0.0018877
0.0140926
0.00178088
0.0800996
0.0624918
0.0483526
0.141914
0.0184069
0.0130179
0.00104585
0.0641161
0.0733442
0.00109403
0.00320585
0.0479346
0.00712875
0.0153392
0.041593
0.00108112
0.00697753
0.0237045
0.0213337
0.00121396
0.00100352
0.00174849
0.0564324
0.00401021
0.00494714
0.00135469
0.00172903
0.00694504
0.0624922
0.0306567
0.0317488
0.158768
0.0241122
0.132315
0.0165445
0.00598976
0.00164849
0.00551831
0.0442139
0.00517985
0.00152528
0.010937
0.0474343
0.00122141
0.060238
0.0415782
0.00858319
0.00175695
0.112556
0.0743398
0.00208205
0.00317117
0.00305847
0.00500305
0.00246175
0.066762
0.00350402
0.0432057
0.102982
0.0438662
0.00257228
0.00114464
0.0626234
0.1069
0.0554961
0.00296946
0.026331
0.0175092
0.0754471
0.0456686
0.00418078
0.057338
0.00766206
0.0035888
0.00174366
0.050488
0.00535102
0.0224573
0.00139373
0.001204
0.086405
0.00122865
0.00660577
0.00163759
0.121857
0.0015348
0.120002
0.0159547
0.0109258
0.00444749
0.00235068
0.00285611
0.00446764
0.00225742
0.141034
0.00373696
0.0724441
0.0119369
0.00185784
0.0482732
0.155005
0.0336909
0.0393401
0.00130478
0.11441
0.123479
0.00897983
0.00764638
0.00958025
0.00226542
0.00539337
0.00120188
0.00902734
0.0123166
0.0140841
0.00135049
0.0122617
0.00265526
0.00150749
0.0212629
0.0643718
0.00160245
0.00333552
0.0414872
0.00595866
0.00944055
0.035481
0.0188347
0.0361995
0.0112739
0.173307
0.00917079
0.0033384
0.101779
0.00853576
0.0613683
0.0064124
0.166114
0.0148585
0.00769007
0.0240701
0.0410128
0.0649953
0.00163428
0.00615573
0.00257997
0.0728442
0.0385279
0.00825007
0.0583244
0.00680995
0.00569725
0.0344088
0.00650872
0.0697483
0.00240134
0.0437719
0.0161967
0.00103174
0.00360574
0.0808193
0.0271346
0.0012724
0.0992285
0.102657
0.00143052
0.00149015
0.0219189
0.00432952
0.145695
0.0403328
0.00253552
0.0319021
0.0903819
0.00330016
0.0559608
0.0029842
0.115615
0.0980528
0.0440418
0.00517515
0.00143293
0.0435735
0.0408745
0.0734222
0.0194646
0.13473
0.00163769
0.00840168
0.158954
0.00232109
0.00851208
0.00284314
0.0015811
0.00150104
0.0677155
0.0482931
0.0535504
0.00198878
0.0196405
0.00149728
0.0014092
0.0274221
0.00180334
0.00154996
0.00927549
0.00438631
0.00576953
0.00238441
0.00224094
0.00479618
0.00279573
0.0015606
0.00908958
0.0223381
0.00133947
0.00542284
0.0709248
0.0238028
0.00247857
0.0102502
0.0676241
0.00726158
0.00602187
0.0116613
0.00122808
0.0268974
0.00223868
0.012631
0.00377318
0.00447716
0.00399908
0.0159116
0.0658204
0.0403138
0.0023841
0.0820681
0.0227218
0.153108
0.0249622
0.0593971
0.0104508
0.00503235
0.00142812
0.00808618
0.00646176
0.00236941
0.00291192
0.0590468
0.00302189
0.00220409
0.056992
0.100999
0.0125892
0.00132586
0.141239
0.00745556
0.00257856
0.00841841
0.0574762
0.0277806
0.0573854
0.00527793
0.00949008
0.134221
0.00173238
0.00207665
0.00963822
0.00277203
0.00764451
0.00214577
0.0264478
0.0194106
0.00228901
0.00277215
0.00680855
0.00184944
0.0179177
0.147823
0.0617222
0.0495196
0.0587869
0.0272937
0.00893338
0.0760177
0.00458943
0.133543
0.0144713
0.0670082
0.00649067
0.00524917
0.002959
0.0619402
0.00400554
0.0594669
0.00225857
0.0924539
0.0176163
0.0939905
0.00360511
0.00124401
0.00398582
0.0728374
0.00527424
0.0463792
0.0143687
0.00149355
0.0531797
0.0425087
0.00812409
0.0157409
0.00191361
0.073871
0.0146587
0.0381403
0.105834
0.0122533
0.0329519
0.101279
0.0244908
0.00100081
0.0223316
0.0030524
0.00227336
0.00907379
0.00142911
0.0222711
0.109545
0.0144326
0.00116912
0.0338302
0.0103346
0.0107369
0.0016096
0.0752116
0.00113581
0.0071998
0.0073611
0.0670314
0.114027
0.00502632
0.0391732
0.144498
0.00999572
0.0809144
0.0159354
0.0157767
0.00538366
0.00333678
0.00207843
0.0219355
0.00552235
0.00245867
0.0011046
0.0138744
0.00279854
0.00132914
0.0117824
0.00201265
0.0202122
0.00180344
0.00119764
0.0730215
0.164496
0.107372
0.0383789
0.00989204
0.0655445
0.01894
0.00653613
0.0257116
0.0109797
0.00106215
0.00973261
0.0225728
0.00157045
0.0329347
0.00122343
0.0254757
0.0042525
0.0772644
0.00106419
0.00130573
0.046353
0.0367482
0.00181015
0.0106482
0.00126745
0.133679
0.0479115
0.00168315
0.0309431
0.00627993
0.00157084
0.0764509
0.00841643
0.0124395
0.111125
0.133238
0.00184938
0.00131388
0.0403078
0.0227358
0.0547591
0.014056
0.00873719
0.00145572
0.0271501
0.00169409
0.00279263
0.00337566
0.00270681
0.0314501
0.00569045
0.00349891
0.0142303
0.0910019
0.00880657
0.00146532
0.025146
0.00727362
0.0018508
0.00132449
0.002722
0.0195491
0.048253
0.130938
0.0794509
0.00130043
0.00896145
0.0248728
0.0283199
0.0240757
0.135842
0.0593558
0.0760616
0.00619223
0.0153595
0.00236965
0.00572544
0.00120109
0.00148686
0.0135453
0.00926031
0.114655
0.0172195
0.00105529
0.0368103
0.0247859
0.0091155
0.00454128
0.00605409
0.00221105
0.0020188
0.0586556
0.00106762
0.120818
0.0384795
0.00800173
0.145022
0.0468966
0.00433176
0.00238294
0.0541325
0.0023314
0.0374711
0.0673009
0.0207445
0.00168304
0.0161202
0.0272638
0.00200535
0.0318492
0.00338742
0.00164758
0.16945
0.00503508
0.130347
0.00119993
0.00640087
0.067055
0.00196117
0.00872226
0.0046218
0.12899
0.00105111
0.0138179
0.00285044
0.0404691
0.00424466
0.00129436
0.0691767
0.00173293
0.0462383
0.00763732
0.00632019
0.159663
0.00103045
0.0241796
0.00432878
0.00817188
0.00474066
0.00965394
0.00929214
0.0283301
0.00188009
0.0107623
0.00116918
0.0134024
0.00986081
0.0494115
0.0114297
0.0555728
0.00910881
0.00223608
0.0359946
0.070674
0.00134154
0.0288121
0.00226526
0.032768
0.00228819
0.00256525
0.0128994
0.0728686
0.101046
0.0856838
0.120185
0.00577067
0.00657558
0.00729997
0.0191641
0.136386
0.00303228
0.024942
0.0138849
0.00273803
0.0563372
0.00181745
0.00959461
0.0174407
0.00173201
0.0013294
0.00313998
0.00230512
0.00270336
0.0719877
0.00257553
0.00148697
0.00260609
0.148738
0.0441883
0.00473348
0.00210555
0.0012847
0.00300375
0.0496517
0.00718936
0.0110722
0.00186037
0.00127056
0.0121166
0.00335518
0.0219043
0.00650793
0.0063699
0.144871
0.00549744
0.00246579
0.106829
0.00282189
0.14267
0.046308
0.00103052
0.00152949
0.12768
0.0388342
0.0231141
0.0459493
0.0098281
0.004318
0.0258838
0.10062
0.102697
0.00876329
0.0164772
0.0207286
0.00326953
0.0704434
0.00176456
0.0012258
0.00148385
0.00348311
0.00966118
0.00304974
0.0133539
0.00184226
0.00268814
0.00270731
0.0406917
0.00187989
0.00113008
0.115418
0.0969404
0.00536178
0.00149792
0.0023078
0.0629242
0.0498958
0.00151158
0.00185134
0.00271019
0.0245338
0.0209728
0.00184964
0.0493126
0.0014875
0.00173637
0.00313315
0.00248273
0.0513258
0.0779
0.131344
0.0154838
0.00115708
0.0110607
0.022384
0.0297817
0.00456214
0.00107989
0.010011
0.00278135
0.0011063
0.00103493
0.00171531
0.0803202
0.152564
0.00226147
0.114274
0.0691572
0.0284239
0.00112605
0.011619
0.00197563
0.00443965
0.0879357
0.0014646
0.0119361
0.0597131
0.00134569
0.00302924
0.0182167
0.0412126
0.00119172
0.00156629
0.118914
0.00229014
0.00230207
0.00183068
0.00209136
0.00541422
0.0639637
0.0318533
0.00350544
0.0202734
0.00217266
0.00841
0.00281521
0.0032571
0.0267172
0.0164987
0.0549372
0.0343581
0.00168264
0.00113798
0.081035
0.00126906
0.0100265
0.0475103
0.0203758
0.0933237
0.00415123
0.0263333
0.00168744
0.0064971
0.0658277
0.134328
0.00490846
0.000988267
0.01085
0.0229231
0.00961823
0.0641918
0.0248239
0.0175094
0.00093747
0.0013673
0.00155922
0.109447
0.13128
0.0247493
0.00652841
0.0988386
0.0343195
0.00384397
0.00716549
0.00273031
0.071321
0.00161845
0.00132765
0.163961
0.00100867
0.00520129
0.0104529
0.00153256
0.036111
0.00144253
0.0147012
0.0241338
0.0226319
0.122029
0.0035572
0.166884
0.036147
0.011424
0.00150112
0.00150234
0.140399
0.161415
0.0241391
0.0491397
0.00413294
0.0381592
0.00617841
0.0291008
0.00145129
0.0352161
0.00156816
0.102994
0.00162487
0.0351331
0.113096
0.00181492
0.00259374
0.00391053
0.00299083
0.00566153
0.0101443
0.0726044
0.00142858
0.0656587
0.0996994
0.00450824
0.00902624
0.00180037
0.00143907
0.00488093
0.00276527
0.00477604
0.0028179
0.139881
0.0222498
0.0165566
0.00155051
0.0202774
0.00138122
0.0010289
0.0365631
0.0463548
0.0520802
0.00263756
0.00106045
0.0236269
0.124203
0.020954
0.0184746
0.0109058
0.00347128
0.00307729
0.126658
0.00203102
0.00628355
0.00096697
0.00648984
0.0245359
0.0245056
0.00138579
0.142019
0.00603946
0.00219688
0.0285768
0.0197167
0.00378832
0.00421494
0.033169
0.00125805
0.0245264
0.00332793
0.00957967
0.0137934
0.0304438
0.00166524
0.101478
0.005027
0.00178462
0.00154802
0.00910492
0.00718413
0.0211263
0.00958358
0.138311
0.00172548
0.0190714
0.0495476
0.0148112
0.139282
0.164459
0.000881545
0.0931027
0.147068
0.0536955
0.00394498
0.0462808
0.0130709
0.00613273
0.00354045
0.00535525
0.137534
0.00313257
0.00199344
0.00414217
0.00748885
0.0121078
0.0041922
0.00265287
0.00268259
0.166797
0.00247413
0.00216709
0.168756
0.0250293
0.119248
0.00223453
0.00518507
0.0343411
0.00169449
0.00149289
0.13647
0.0425877
0.00208455
0.00111481
0.00834481
0.107578
0.00265052
0.00159673
0.00130811
0.100534
0.00151811
0.00672391
0.00403285
0.00128927
0.0210459
0.118703
0.0135369
0.00425964
0.0129368
0.00204682
0.00150191
0.0688461
0.00231773
0.00154695
0.00133966
0.0864725
0.00623412
0.0288218
0.0635462
0.00122149
0.00306602
0.00335778
0.0029345
0.0146358
0.0100176
0.158198
0.0016241
0.00118489
0.0718261
0.037789
0.0111152
0.0606295
0.00917608
0.00167703
0.00192283
0.0090564
0.0342726
0.0366921
0.0016253
0.0196331
0.00898571
0.0755905
0.0290944
0.00333377
0.00280697
0.00311115
0.00154996
0.142544
0.00365801
0.153446
0.00782481
0.00177617
0.00136616
0.095744
0.144769
0.0144729
0.0165005
0.0444984
0.00138685
0.0015232
0.0760884
0.140173
0.118116
0.0957055
0.00144159
0.065841
0.00150464
0.00513113
0.008478
0.0616562
0.00920278
0.00162887
0.014082
0.00265441
0.00162388
0.0322508
0.00102566
0.00988148
0.00636165
0.00319552
0.00122625
0.00136182
0.00923588
0.0722661
0.00386954
0.065278
0.0155812
0.0439688
0.00232324
0.0104054
0.00278838
0.00345095
0.0100048
0.114597
0.00343343
0.0180772
0.161652
0.00269382
0.108893
0.0145307
0.0105491
0.0439567
0.00215009
0.0280376
0.0022979
0.0270995
0.0941872
0.00179749
0.00151506
0.0211631
0.0109092
0.0123461
0.00663479
0.00882872
0.0148255
0.0149097
0.0223018
0.00367355
0.0182198
0.00218715
0.00561018
0.00262844
0.00567824
0.0297968
0.00160052
0.155478
0.00234416
0.0206965
0.00195325
0.00268965
0.00269522
0.0027002
0.0039875
0.00465433
0.03301
0.00166471
0.00443658
0.0730057
0.00106341
0.0023026
0.0253259
0.0276658
0.0121615
0.0118045
0.0148288
0.00137349
0.184699
0.0153029
0.0110577
0.0111401
0.140797
0.00584341
0.0933391
0.00212438
0.0193378
0.00448416
0.0131151
0.0110036
0.00505444
0.00283498
0.00695259
0.0697138
0.00374428
0.00177982
0.0017435
0.0380859
0.00231211
0.0168236
0.00143161
0.0638488
0.0222737
0.00145852
0.00995815
0.00123059
0.00123086
0.0101754
0.00123105
0.048885
0.0930244
0.00103098
0.00567443
0.0241004
0.00171577
0.0183196
0.00723789
0.0148826
0.00709635
0.0417921
0.00253664
0.00180446
0.00123326
0.00323406
0.0169882
0.00848282
0.00124412
0.0239167
0.0426459
0.00528936
0.113228
0.00209416
0.00179959
0.00121456
0.00132016
0.00884076
0.0346071
0.00158314
0.123805
0.00506652
0.147387
0.00166419
0.0275589
0.00654011
0.00125569
0.00470506
0.124682
0.0125544
0.00183802
0.0473611
0.0053664
0.0681211
0.00214826
0.00131917
0.00547468
0.00430949
0.124178
0.00402514
0.00496012
0.010305
0.0682586
0.0379987
0.166023
0.00958437
0.100031
0.00563821
0.0433373
0.0633551
0.00182957
0.0586928
0.0184242
0.0219527
0.134916
0.00146834
0.0623746
0.0118493
0.00159435
0.0100238
0.00261005
0.0491656
0.00173354
0.0100863
0.00176362
0.0261323
0.00394694
0.043411
0.00947785
0.00511296
0.00539363
0.00388791
0.00153482
0.00428346
0.00287464
0.0157136
0.00523506
0.00912355
0.00266315
0.0185663
0.0414448
0.059695
0.00966755
0.0068822
0.00287768
0.0089765
0.00220796
0.00237474
0.00386262
0.0539894
0.00277179
0.00259201
0.0396975
0.0252121
0.0508576
0.00218381
0.0585906
0.000884154
0.0621694
0.0180009
0.00142996
0.00523805
0.0873087
0.0594784
0.0012232
0.0741064
0.0234574
0.0168596
0.0123017
0.0202317
0.0401633
0.00314874
0.00436627
0.00918197
0.00366259
0.00146223
0.00137295
0.00111279
0.116476
0.0636756
0.00420552
0.0352885
0.00555076
0.0022375
0.00127816
0.112014
0.0713693
0.00153109
0.00304967
0.107942
0.0714381
0.0148751
0.00185713
0.0020009
0.0185415
0.0126673
0.130605
0.0035576
0.00546782
0.0032434
0.011456
0.0101805
0.0269283
0.0110046
0.00331799
0.0233834
0.0401353
0.0186577
0.00209262
0.0178306
0.00122332
0.0908879
0.00151537
0.0112348
0.0124248
0.0867929
0.0935491
0.00280403
0.00235588
0.00598877
0.00118485
0.00190234
0.0349405
0.00148549
0.004737
0.144734
0.00260784
0.00285594
0.00339528
0.139249
0.00146322
0.00144117
0.0641219
0.00973732
0.00128407
0.0101524
0.0490304
0.0692566
0.035065
0.0242592
0.00663871
0.00371249
0.00447949
0.00675611
0.120679
0.0517135
0.00228559
0.0638696
0.00845444
0.0137992
0.0474995
0.00877044
0.0803528
0.0240199
0.00358349
0.103063
0.00135114
0.0985723
0.00183199
0.00166556
0.00588074
0.0426818
0.162464
0.00156969
0.120055
0.0229711
0.0355658
0.00370829
0.00298306
0.0113918
0.00156896
0.00980579
0.00282249
0.0300288
0.00695324
0.0587907
0.0967638
0.00122467
0.00134931
0.00302507
0.0238134
0.00761536
0.00664343
0.00107008
0.00150886
0.00352654
0.00770316
0.118908
0.00157638
0.0515681
0.0468557
0.0041427
0.00529153
0.0139343
0.00297427
0.00698072
0.0124311
0.017596
0.00142131
0.0235152
0.0910235
0.000990765
0.00557205
0.0903002
0.0011025
0.127831
0.10753
0.00399622
0.00503724
0.0019005
0.0994187
0.0195027
0.0618365
0.00180831
0.0668575
0.00227764
0.00258433
0.00152467
0.0014351
0.00158702
0.0116158
0.0014846
0.001985
0.13355
0.0127438
0.00942812
0.0114783
0.00177882
0.00128233
0.00127276
0.00156414
0.00169979
0.0438765
0.00584369
0.144663
0.00142843
0.0165669
0.0254299
0.0234605
0.0278484
0.066389
0.00477803
0.00133713
0.10789
0.025179
0.144563
0.00149418
0.0266734
0.00169006
0.00216025
0.00293047
0.0864218
0.0662742
0.00115404
0.0026103
0.103117
0.0032163
0.137197
0.00467761
0.00294895
0.00584368
0.00977433
0.00263133
0.0578508
0.0605183
0.00361789
0.00147965
0.0149664
0.00692986
0.0632475
0.00110176
0.0814533
0.142294
0.0310946
0.0624539
0.0017481
0.00142819
0.00287806
0.00865737
0.00149949
0.00337489
0.119447
0.0139718
0.0855535
0.00174767
0.0365529
0.0196436
0.0615664
0.0971151
0.064635
0.00204605
0.0392444
0.00154046
0.0773356
0.0116054
0.155241
0.00182028
0.100182
0.013825
0.0105561
0.00589419
0.00178357
0.0928231
0.00117303
0.00729034
0.00845863
0.141768
0.0799659
0.00142296
0.00101472
0.0407405
0.0650381
0.00342856
0.00362412
0.00889763
0.00155921
0.027794
0.00214407
0.0168775
0.0926429
0.00178831
0.0357118
0.00188146
0.0593346
0.0280444
0.109918
0.000986494
0.00145883
0.11095
0.00278019
0.00367242
0.13922
0.0570905
0.144622
0.00281563
0.00153862
0.00753651
0.0280612
0.0102546
0.0997793
0.0508853
0.0246198
0.106983
0.00394802
0.0463161
0.00781828
0.00287923
0.0106066
0.130732
0.00237181
0.00569332
0.0963232
0.00543757
0.0146679
0.0028866
0.0200702
0.00230797
0.00842599
0.0527757
0.00612406
0.00613979
0.0256416
0.00170331
0.00811932
0.0182104
0.00292787
0.0568702
0.00451668
0.00388193
0.00479571
0.0963854
0.0605363
0.120698
0.0105527
0.00890081
0.00878319
0.00237214
0.00129888
0.00223561
0.133187
0.00159472
0.00163086
0.00158321
0.0602451
0.0466013
0.00887199
0.0018891
0.0231889
0.0107435
0.00151795
0.00130017
0.00169354
0.00379163
0.0040363
0.00154125
0.00289888
0.0881424
0.00181486
0.00362903
0.0365893
0.0380289
0.0278705
0.00143288
0.00596879
0.00181688
0.0229573
0.00272992
0.0423548
0.0025433
0.00133835
0.0358968
0.00876443
0.00146533
0.00234662
0.00841841
0.0287
0.0238163
0.0332616
0.0036317
0.00543989
0.00249674
0.00155162
0.0782748
0.00105018
0.00432616
0.00270853
0.144464
0.137429
0.00354665
0.00294615
0.0615456
0.00906811
0.00489629
0.00614324
0.00209168
0.00192132
0.00159089
0.0014924
0.0193851
0.0768737
0.00519801
0.0012707
0.00225009
0.0495012
0.00188001
0.00427879
0.00210956
0.0318856
0.146283
0.00175285
0.0026634
0.00249014
0.00181917
0.00133005
0.0858204
0.0028351
0.00158303
0.046091
0.00542212
0.0065047
0.0997875
0.00388611
0.00185539
0.00283174
0.142164
0.00112168
0.00492844
0.00161798
0.107196
0.0254437
0.0321752
0.0360515
0.0360029
0.00736384
0.00947807
0.00801568
0.00290728
0.0104026
0.00136084
0.0186911
0.0184318
0.0145615
0.0010565
0.00581596
0.00145368
0.0145039
0.0139313
0.00103169
0.00362549
0.0481169
0.00838776
0.00284742
0.00228283
0.00368864
0.0545363
0.0804938
0.0496096
0.00311586
0.0283347
0.00148955
0.00181744
0.00261587
0.0133829
0.00384201
0.0013249
0.0473949
0.00249668
0.0111269
0.00510788
0.0479252
0.0512647
0.00785165
0.00148047
0.140235
0.00152993
0.0031913
0.00446976
0.00427065
0.0744488
0.113508
0.0148431
0.0376178
0.00168308
0.00169883
0.00513677
0.00286693
0.0561519
0.0435334
0.0407597
0.132084
0.00182165
0.0300133
0.00136143
0.00439891
0.0283848
0.00247342
0.00214285
0.00146856
0.00108145
0.0239221
0.0668103
0.104236
0.0241005
0.00212965
0.00344391
0.00162494
0.113218
0.0362126
0.00333289
0.149482
0.00339826
0.0230238
0.0033215
0.00291833
0.00851638
0.00949062
0.0754672
0.0091818
0.00987242
0.00346716
0.00442726
0.00922099
0.0975847
0.00380207
0.0688497
0.00251194
0.00161039
0.00187789
0.0504972
0.00563049
0.0562513
0.0107352
0.0272776
0.0355758
0.0126749
0.0013957
0.00188691
0.00465483
0.00779016
0.00346243
0.00572121
0.00209605
0.00151971
0.0153105
0.00146406
0.00348816
0.063945
0.00581395
0.00152957
0.00474993
0.142501
0.00811751
0.00162166
0.00324549
0.00103347
0.0415982
0.00300792
0.0745721
0.06385
0.0108289
0.00186939
0.159426
0.00147412
0.00163087
0.00334412
0.0026086
0.00263167
0.00157379
0.00370826
0.108407
0.0200815
0.0812221
0.00727809
0.00373847
0.00222361
0.0190988
0.0106311
0.074504
0.00158596
0.011133
0.00919871
0.00174551
0.00336237
0.00167732
0.00157721
0.059374
0.00104353
0.104105
0.0147733
0.00533805
0.00166069
0.00435883
0.0143358
0.0315539
0.00200034
0.0145817
0.00201498
0.00100595
0.00998777
0.00153834
0.0104804
0.144047
0.00188846
0.0073511
0.0276537
0.000988348
0.00189004
0.0148626
0.0150054
0.00498194
0.00130957
0.0635687
0.0483218
0.111163
0.0894943
0.0285126
0.00151186
0.0107853
0.00165248
0.120561
0.0470934
0.0020103
0.036464
0.165629
0.111185
0.0504588
0.00270662
0.0677324
0.00158407
0.0362207
0.0272724
0.00770852
0.0387184
0.00267729
0.0698571
0.149423
0.0649373
0.012753
0.00503948
0.0219241
0.00144609
0.0472285
0.00778266
0.0159745
0.00151633
0.033393
0.104959
0.0600051
0.0750034
0.0033957
0.0685563
0.0571062
0.0255612
0.00280403
0.142384
0.00803322
0.00882271
0.0538992
0.00166494
0.00161263
0.00305409
0.00259871
0.0221895
0.0053738
0.0442514
0.00350531
0.00360991
0.0369787
0.00292424
0.00506025
0.00241989
0.0133365
0.0628606
0.00163831
0.00879399
0.0029697
0.00187401
0.0784773
0.0626838
0.00122187
0.00153445
0.00861857
0.00603722
0.0277941
0.0018295
0.00248626
0.110977
0.0918464
0.0402384
0.0990975
0.13419
0.0600154
0.00960265
0.00152372
0.0146479
0.043219
0.00230673
0.0844107
0.00302869
0.00507272
0.0446648
0.0164456
0.0624067
0.00305584
0.0176908
0.00650914
0.0630269
0.038398
0.00118017
0.00147462
0.132125
0.0089433
0.00760102
0.015335
0.0212328
0.160293
0.0353455
0.00292735
0.00298114
0.0110114
0.00211989
0.0371269
0.00163908
0.00458303
0.025038
0.0012558
0.0264905
0.00179861
0.00240421
0.00142414
0.00269656
0.00151277
0.00151753
0.0707078
0.0175425
0.022539
0.0772398
0.0653853
0.0150828
0.00462894
0.0597706
0.0133778
0.00419484
0.00492418
0.00266201
0.00360128
0.013062
0.00256648
0.00213181
0.0103353
0.018429
0.00385632
0.00175635
0.00181723
0.0188829
0.077165
0.0664785
0.0673178
0.0128738
0.00127827
0.00334141
0.0618024
0.00128088
0.106995
0.00456064
0.00209939
0.00462044
0.00388493
0.00398513
0.00323332
0.0285248
0.0108089
0.0774907
0.00358714
0.0623168
0.0271693
0.0132541
0.00312933
0.0960468
0.0242926
0.0011807
0.116044
0.0413148
0.0162111
0.00158554
0.00486953
0.00302757
0.00920654
0.138468
0.00164908
0.0083077
0.0267686
0.0673593
0.010401
0.0151229
0.0565574
0.0219983
0.00125364
0.0236699
0.080417
0.00653775
0.0804438
0.0113924
0.0098154
0.0915243