/*--------------------------------*- C++ -*----------------------------------*\
| =========                 |                                                 |
| \\      /  F ield         | OpenFOAM: The Open Source CFD Toolbox           |
|  \\    /   O peration     | Version:  v2012                                 |
|   \\  /    A nd           | Website:  www.openfoam.com                      |
|    \\/     M anipulation  |                                                 |
\*---------------------------------------------------------------------------*/
FoamFile
{
    version     2.0;
    format      ascii;
    class       surfaceScalarField;
    location    "600";
    object      meshPhi;
}
// * * * * * * * * * * * * * * * * * * * * * * * * * * * * * * * * * * * * * //

dimensions      [0 3 -1 0 0 0 0];
oriented        oriented;


internalField   nonuniform List<scalar> 
20642
(
-0.000773159
-0.000247644
0.00102099
0.00224566
-0.00405705
0.00179698
0.000675359
0.000580256
-0.00126129
0.000710384
-0.00219058
0.0014455
0.00307147
-0.00463406
0.00153898
0.00416506
-0.00193717
-0.000658666
0.00209721
-0.00146304
0.00507468
-0.00295736
-0.00212804
0.00101775
0.000258959
-0.00129421
0.00095933
6.65145e-05
0.00230319
0.002758
0.00266928
-0.00267496
-4.01978e-05
-0.000108114
-2.73406e-05
0.00296228
-0.00454618
0.00157702
0.00316723
-0.00446142
0.00126909
3.14024e-05
-0.000804711
-9.1649e-05
-6.92997e-05
0.000106653
-0.00498047
0.00229339
0.00267331
0.00185147
-0.0011462
-0.000714443
-0.0010677
0.000489423
0.000578392
0.00343426
-0.00205327
-0.00139813
0.000417554
0.00269225
-0.00315596
0.000615006
0.00101564
-0.00164179
-0.00301454
0.00338101
0.00308341
-0.00135811
-0.00175356
-0.00368386
0.0016243
0.00204306
-0.00334743
0.00194571
0.00139767
0.000872825
-0.00442701
0.00176139
0.00265002
-4.73278e-06
-7.36157e-05
7.60295e-05
0.000856712
1.67382e-05
0.00184094
-0.000486155
-0.0013646
-0.00283773
0.00155795
0.00124414
-0.000964568
0.000379764
0.000583981
-9.76199e-05
0.00265305
-0.00260139
0.000270583
-0.00323737
0.00262073
0.000637458
-0.00328827
8.12893e-05
-0.000331396
8.3757e-05
-0.00193472
0.00125503
0.00193989
-0.00327683
0.00131999
1.03911e-06
2.48445e-05
-6.03712e-05
0.00154983
-0.00235117
0.000775792
-0.0013928
-0.000192631
0.00157098
0.000515124
0.000763958
-0.00128544
0.00151515
-0.00100929
-0.000730791
0.00176253
-0.00103403
0.00281766
0.000594087
-0.00141422
0.000946935
0.000469857
-0.00209996
-0.00184526
0.00394085
0.00205724
-0.00219176
-9.3429e-05
0.00272018
0.000856436
-0.0021198
0.00125638
-0.000582955
0.000789931
-0.000206987
-0.00272338
0.00354371
-0.000872655
-0.00371377
0.00248807
0.00117386
0.00183282
-0.000981704
0.000761364
-0.00114357
0.00174507
0.00240454
-0.000880935
-0.00203148
0.00129779
0.00228896
-0.0012766
-0.00101017
-0.00133484
-0.00191112
0.00322613
1.0304e-05
6.50392e-07
-1.56705e-05
0.00139785
0.00165435
0.00105986
-2.74961e-05
-0.00103557
-0.000143114
9.2709e-05
4.95859e-05
0.00196928
-0.00434943
0.00236604
0.00301244
-0.0027509
-0.00268965
0.000887029
-0.000624037
-0.000263122
0.000478444
0.000697437
-0.00118036
-0.000785305
-0.000179926
0.00215943
-0.00141469
-0.000790495
0.00177807
0.000594558
-0.00352667
0.00145611
0.00397592
-0.00180411
-0.00220352
0.00268723
-0.00425417
0.00154335
0.00241912
-0.000673019
0.00180144
0.00213764
-0.0020288
-0.00083649
-0.00242296
-0.00158109
0.00395758
-0.000102958
-0.00010799
0.00013556
0.00075154
0.00136761
-0.00132922
0.000645942
0.000679341
0.00154327
-0.00123188
-0.000445658
0.00456114
-0.00185731
-0.00271338
0.00117468
0.000653538
-0.000326963
-0.000441986
0.000607652
0.00310952
-0.0011877
5.66255e-05
-0.000195209
6.57855e-05
0.000202725
-0.000316258
-0.00135243
0.00250008
-0.0046059
0.000355446
-0.00272609
0.00232285
0.000984526
0.00255714
-0.00358369
-0.00247195
-0.00432761
0.00238851
0.00193198
-0.000174442
-0.000115393
0.0001857
-0.000801939
0.000348407
-0.00210347
0.00361215
-0.00151751
-3.08315e-05
-2.24935e-05
3.5669e-05
9.02905e-06
-5.26333e-05
-0.00375383
0.00129232
-0.000401543
-4.13351e-05
0.00034829
0.00452679
-0.00187138
0.000921117
-8.48345e-05
-0.000837945
0.00077755
0.000316659
-0.00109351
0.00240589
-0.00376371
-0.000727978
-0.00164811
-0.00162843
-0.00172259
6.9984e-07
-0.000358262
0.00106277
-0.000684291
0.00419193
-0.00244459
-0.000154681
0.00121057
-0.000611347
-0.00190012
0.00248658
0.000859438
0.000982534
0.000166065
-0.00020233
-2.88761e-06
-0.00102086
-0.000444872
0.0014589
0.000286978
-0.00116646
0.000857411
-0.000282425
0.000107409
-0.00238493
0.000884606
0.00146581
-0.00182881
-0.00253384
-0.000874469
-0.000905502
0.00177136
-0.000408183
0.000816622
-0.000408878
-0.000680371
-0.000651539
-0.00273189
0.00121912
0.00148459
-0.00133696
-0.00220617
-0.00258921
-0.000752048
0.00328389
0.000808288
-0.00169019
0.00181581
-0.000772068
-0.00106017
-0.000998628
0.00218457
-0.00118896
0.000905146
-0.000454703
-0.000450736
-0.00272856
0.0020894
0.00170799
-0.000668682
-0.00105017
-0.00349488
0.00186204
-0.00222674
0.00122084
0.00100681
-0.000487126
-0.000172982
0.000659874
-0.00421205
0.00179292
0.00240127
-9.43231e-05
-0.00398526
0.00407561
-9.34389e-05
0.000858124
0.00152914
-0.000128024
0.00104626
-0.000424902
0.0026513
-0.00228916
0.00187826
-0.0012925
-0.000623697
-0.00197478
-0.00043442
0.00238878
0.00116507
-0.00069082
0.004546
0.000171984
0.000717673
-0.00088709
0.000975892
-0.00375713
-0.00208311
0.00318026
-0.00111477
3.13335e-05
9.5034e-06
-5.70142e-05
0.00115689
0.00068318
-0.00163419
-0.0026989
0.00391096
-0.00303254
-0.000914398
5.65934e-05
-0.00054729
0.000439317
0.000324899
-0.00076481
-4.47667e-05
-5.82551e-05
6.61326e-05
1.20946e-05
0.000121237
0.00297947
-0.00213754
-0.00094642
0.000342854
0.000896376
-0.00123938
-0.00453745
0.00183963
0.00266799
6.64703e-05
-0.000866137
-0.000759758
0.00162774
-0.00361068
0.00194401
0.00165977
9.06506e-05
-0.000783898
0.00173155
-0.000945452
2.3059e-05
-2.29121e-05
-8.07404e-07
-0.00169149
-0.00253709
0.00532878
-0.00328415
-0.00209357
0.000147044
0.000716428
-0.000864547
0.00159079
0.00241289
-0.00151259
-0.000899215
-0.000782357
0.00197554
-0.00120103
3.55924e-05
-9.30949e-05
3.42282e-05
-0.00137344
0.00205188
0.00114855
-0.00210573
0.000951572
0.000857173
0.00094312
-0.0023617
-0.00220295
-0.00125777
0.00174664
-0.000510322
0.00226104
0.00222403
-0.00235272
-0.000604529
0.00145549
-0.000854137
0.000289616
-0.00131691
0.00134773
-0.00235072
0.00267989
-0.000497703
-0.00181683
0.00120776
-0.00011136
0.000104263
0.00233246
0.00221809
0.00149948
-0.00229203
0.000649583
0.000857397
-0.00194556
0.00106903
0.000870717
-0.000524079
0.00101041
-0.000487662
-0.00187031
0.00218952
-0.00048748
0.00083163
-0.000344582
0.00102871
-0.0026214
0.0015699
0.000425306
0.000478954
-0.000699213
0.00330742
0.00306896
0.000801813
-0.0016768
-0.00165145
0.00330744
-0.000797605
-0.000130236
0.00092757
5.28027e-05
-0.000539973
0.00384222
-0.00264831
-0.00122442
-0.00225974
0.00282602
-0.000568658
-0.00257346
-0.00113055
0.00368562
0.0010098
-0.00155804
-0.000976903
0.00260431
-0.00423106
-0.00218343
0.00274379
-0.000633449
-0.00491949
0.00206404
0.00283841
-0.00338593
-0.00154833
0.00112105
0.00115102
0.000548787
-0.00190562
-0.000395892
-0.000775586
0.00116954
-0.000193698
0.0004469
-0.000424703
-7.37965e-05
-0.00088156
0.000922883
-0.000894682
0.000789969
0.000889757
-0.0020758
0.00123727
0.000832452
0.000957703
-0.00195192
0.00099079
0.000907179
-0.0011161
0.000125933
-1.87181e-06
8.57642e-06
-0.00178342
-0.00171461
0.000302276
0.00125192
-0.000822006
-0.000464397
0.000736787
0.000478092
-4.17354e-05
1.6567e-05
-5.10357e-05
-0.000874016
-0.000927745
0.000845472
-0.000514694
-0.000271245
-0.000517006
-0.000760876
0.00127997
-0.00409042
0.00226803
0.00178318
2.92164e-05
-4.4844e-05
1.30239e-05
-0.00139115
-0.0010272
0.0024074
0.000506728
-0.000888699
0.000382058
-0.000153944
5.38627e-05
6.11567e-05
-0.000186504
0.00100233
0.00103731
-0.00330065
-0.000682352
-0.000223212
0.000903666
-0.000624789
0.000697813
-0.00109516
0.00113084
0.00117019
-0.00230811
0.00192535
-0.00240487
0.000867781
0.000865817
0.000536602
-0.00193731
0.00170185
0.00247622
0.00194335
-0.00153125
-0.000424168
0.00252889
0.00128162
0.00060568
0.000387879
0.000708812
-0.00111866
0.00276246
-0.00218453
-0.000588896
-0.00250067
0.00170579
0.000782782
-0.00457535
0.00201029
0.00252143
-4.25269e-06
-0.00136165
-0.00363437
0.00473778
-0.00113006
0.00205924
0.000770478
-0.00286593
0.00080734
-0.000418372
-0.000389204
-0.0038445
0.000914914
0.00292579
-0.00258378
0.000854244
0.00169045
-0.000129863
0.000828259
0.000981582
-0.00405033
-0.000869724
0.000702547
-0.000802811
-0.000288464
4.06967e-05
0.00228773
-0.00140066
-0.000902433
-0.00109734
-0.00152019
-0.000641443
0.000322588
-0.000507661
0.00128575
-0.00366519
0.00152381
0.00207406
0.00321099
-0.00473362
0.00149444
0.00103818
0.00111702
-0.00215742
0.000111846
-0.000785912
0.000649154
0.00102035
-0.00275744
0.00172987
0.000376311
0.000430774
0.000763674
-0.000675966
0.000354482
0.000532715
-0.000797529
0.0028197
0.00138213
-0.0010397
-3.33703e-05
4.41826e-05
-0.00283726
-0.00130408
0.00411519
-0.00293609
-0.00167324
-0.00271813
-0.000854371
0.00349838
-0.00132066
0.00154122
-0.000227388
-0.000261792
-0.000146279
0.000263636
-0.00195503
-0.00166182
0.00111152
-0.00262861
0.00149885
2.67417e-05
-0.00201972
-0.00141624
-0.00148946
0.00290141
-0.000363152
-0.000100191
-8.7803e-05
0.00109382
-0.00223814
0.00113104
-0.00405085
-0.000459099
0.00448066
0.000861436
-0.00290897
0.00202154
-0.00125038
0.0042967
0.00339126
-0.00162016
0.000760266
-0.0028324
0.00202934
-0.00059738
0.000189506
0.0010981
-0.00230142
0.00119713
0.00103657
-0.00375899
0.00270753
0.00164788
0.00110042
0.00116323
0.00219795
-0.000649206
0.00086085
-0.000294233
-0.000353152
0.000792326
-0.000154693
-0.000643526
-0.00238938
-0.000780686
0.00311263
0.000236027
-0.00080285
0.000558568
-0.00189132
-0.00335128
-0.000944973
0.00428568
0.000913222
-0.00116929
0.000251504
0.00118562
-1.14455e-05
-0.00117485
0.000733853
0.00167978
6.69341e-05
3.35496e-05
-0.000101303
0.000469333
0.00171041
0.00446065
-0.0012769
0.00127032
-0.000628554
-0.00412551
0.000763547
-0.000548923
0.00121904
-0.000189039
5.72564e-05
0.00401212
-0.000869026
0.00297994
-0.00078128
0.00359728
-0.00285475
-0.000359551
-0.00371102
0.00147953
-0.000838152
-0.000132979
-3.93972e-05
0.000117072
0.000732711
-0.000586526
0.00108046
-0.000912355
-0.000315943
0.000394678
-0.00129932
0.000200571
0.000670602
-0.000889365
-0.000877087
-0.000190902
-0.00130224
-0.000321845
0.00153525
-0.00262855
0.00105316
0.00156237
-0.0038836
0.00129272
-7.05751e-06
7.31151e-05
-0.000217909
2.64412e-05
-0.00107602
-0.000604354
0.00167036
-0.000667647
0.00107659
-0.000410087
0.00098668
-0.00319554
0.00216543
-0.00358847
0.00276881
0.000608731
0.000452724
-0.000771461
-0.000213855
0.000985409
-0.000477974
0.00144894
-0.000970625
0.00401506
-0.00105973
-7.1158e-05
0.000804832
-0.00399069
0.00225345
0.00169541
-0.000565299
-0.000279127
0.000843097
0.00195576
-0.0014907
-0.000915195
0.000811928
-0.00533422
0.00293982
-0.00202552
-0.000954349
0.00373729
-0.00236824
-0.00138172
-0.000993075
-0.00198233
0.00109727
0.000877819
-0.00275204
0.00143342
0.00131041
0.00270756
-0.00169644
0.00127381
-0.000164981
-0.00111875
0.000452509
-0.00104469
0.000590748
-0.00328122
0.00063551
-0.00228823
0.00323089
-0.00284696
-0.00180185
0.000330003
0.000978742
-0.00131452
-8.00482e-05
7.75982e-05
-4.14911e-05
-0.000771658
-0.00015199
0.00141184
-0.000310237
0.00123716
-0.00190866
-0.00185093
0.00116373
-0.0026037
0.00143365
-0.000591679
0.000819605
0.00152731
0.00270935
-0.00424243
-0.000754705
-0.00130342
0.00203582
-0.000862317
-0.000994849
-0.00266668
-0.00123437
-0.00192156
-0.0018034
0.000698363
0.000625463
-0.0013278
-0.000702752
-0.000218248
0.000905401
0.000878075
-0.00174261
-0.000713874
-0.00199326
0.00121643
0.00402223
0.000432015
-0.00335406
0.00288784
-0.00104807
0.000754504
0.00028983
-0.00218454
0.000823289
0.00130974
-0.000444737
0.000934037
-0.000974876
-7.78603e-05
0.00406044
-0.00254099
-0.0015478
-0.00340086
0.00161389
-0.00175367
-0.00129989
0.00304488
-0.00404005
0.00153096
0.00247357
0.0011783
-0.00197417
0.000796921
-0.00110239
0.000464968
0.00200664
-0.00350111
0.00146251
-0.00170238
0.000375323
-0.00235529
0.00383823
-0.00152806
0.00156148
-0.00332405
0.00138064
-0.000806721
0.000162453
-0.000717095
0.00186534
-0.00116874
0.00289923
-0.00176165
0.00328678
-0.002286
-0.0010832
0.0022903
-0.00146638
-0.000925887
-0.00318016
9.26655e-05
0.0030293
0.00364091
-0.00170371
0.00067607
-0.00263119
0.00191992
0.000831202
0.00249499
-0.00337758
0.00281839
0.00108306
-0.00395727
-0.00137864
0.00247128
-0.00110672
0.000220928
-0.00364268
0.00341195
0.000117144
-0.000777005
0.00063864
2.5658e-06
1.75839e-05
-0.000519916
0.00142737
0.00267547
-0.00151928
0.000183207
-0.00296531
0.00160578
0.00241783
0.000909361
0.000931888
-0.00184121
-0.00217242
-0.00151021
0.00367839
-0.000108271
-3.60753e-05
-0.00151664
0.000362188
0.000611003
0.000655522
0.0016692
-0.000343525
-0.00135151
-0.000765905
-1.18568e-05
0.000754515
0.0035627
-0.00242132
-0.00116133
0.00130989
0.000873945
-0.00066962
-0.00211528
-0.000677283
0.000645707
0.000386426
0.00125766
0.000831463
0.000768129
-0.00159777
-0.00373517
0.00133707
0.00301835
-0.00165833
-0.00137386
0.000654526
-0.000331925
0.0019464
-0.000865708
0.000463082
-0.00271808
-0.000740306
0.00185668
0.00172061
-0.000541548
0.00223408
-0.0039341
0.00025258
-0.000660604
0.000148275
-0.00083848
0.000670555
0.000327479
-0.00142746
0.00104325
0.000230117
-0.000948623
7.06168e-05
-0.00102872
-0.000824019
0.00341465
0.000785139
-0.00359201
0.00277316
0.00204173
-0.00113241
-0.00170083
-0.000442724
0.00212694
-0.000812515
0.00147893
-0.00121423
0.00214438
-0.000713674
-0.00144695
-0.00164463
-0.000336423
0.00196556
0.00369495
-0.00112947
-0.00111004
0.00223376
0.00115091
-0.00162843
0.00213205
0.000769053
0.00139989
0.00189056
-0.00329377
0.00256397
-0.00265782
2.26408e-05
3.51978e-05
-0.000737154
0.000567618
-0.00097701
0.00374449
-0.00294328
0.0033407
0.00193564
0.000576815
-0.00258811
0.000370502
0.000137146
-0.000672058
-0.000807883
0.000776829
-0.000464983
0.00232641
0.00128701
-0.00270782
0.0013431
-0.000669486
-0.000679991
0.000223664
-0.000373908
5.83019e-05
0.00115166
-0.00202337
0.000858417
-0.000512897
0.00107564
-0.00164024
0.00153422
0.000107359
0.000955185
0.000668175
-0.00163985
-0.00085791
0.00114968
-0.000939929
-0.000214257
0.000294813
0.000851603
-0.00259965
0.000125598
-0.00208224
0.000422496
-0.00154494
-0.0019667
0.00109905
0.000865709
-0.00021222
0.000233921
0.00235893
0.00113363
-0.00224728
-0.00129208
-0.000490749
0.00176334
0.00303261
-0.000958132
-0.00209022
0.00157747
-0.00113388
-0.000449853
-0.0010704
0.0017226
-0.000662967
-0.00276468
0.00175217
0.000991523
-0.00153852
-0.00322044
0.00444839
-0.00216611
-0.00323211
0.00169901
0.00152093
0.00239217
-0.00175129
-0.00180241
-0.00274772
0.00224509
-0.000516148
-0.00174379
0.0025473
-0.00145415
-0.00174404
0.000859607
0.000885911
0.000502578
-0.00186413
-0.00137948
-0.00116504
-0.0009457
0.0017386
-0.00113088
-0.000713012
0.000468379
0.000193466
-0.000662056
-0.000581225
0.000504707
-0.000838079
0.000880908
-0.00210338
0.000712837
0.000796752
-0.000666767
0.000310439
-0.000675229
-0.00121708
0.00230778
-0.000739524
0.000404237
0.00201744
-0.00330744
0.00128704
0.00186491
0.00101203
-0.000814276
0.00173307
-0.000942893
-0.00248159
0.00160082
0.000861639
-0.000938676
-0.00096153
0.00189861
-0.00107847
-0.00118997
0.00226674
0.00298954
-0.000450476
-0.00257772
0.00340816
-0.00241393
0.00160974
0.000709608
-0.00268345
0.00126225
0.00140871
-0.00105708
-0.0026108
0.00366356
0.000808922
0.00238304
-0.00324373
-0.000185091
5.74416e-05
-0.00111991
0.00414787
0.00222627
0.000984279
-0.00304699
-0.000846703
0.00387324
0.00106656
0.00110678
-0.00218981
-6.3217e-05
-0.00166998
0.000589771
0.000943832
0.000684693
0.00276318
-0.00451254
0.0016936
0.00202253
0.000850536
-0.0010842
0.000302249
0.000780725
0.000528294
-0.000676076
9.36391e-05
-0.00116375
-0.000729809
0.0018698
0.00284892
-0.00211414
0.000978861
0.0011479
-0.00196316
0.0009387
0.00101445
-0.00231322
0.0032149
-0.000912325
-0.000534001
0.00152932
0.00290446
-0.0022537
-0.000683825
0.00260539
0.000890214
-0.000465575
-0.000699524
0.00153313
0.000301574
0.000352809
-0.00220593
-0.000801767
0.00295022
-0.00274953
-0.00102834
0.0037258
-0.00143834
-0.00134064
-0.00110306
0.00242598
-0.00137585
-0.00092445
0.00126838
-0.000348016
-3.32848e-06
-0.000807492
-0.00298371
-0.00125915
0.00423972
0.00248484
-0.00148016
-0.00107615
0.000572849
0.000501529
0.000846952
-0.00146313
0.00103598
-0.000936163
-9.82676e-05
0.0018977
-0.00243824
4.90121e-05
0.000853906
-0.00090927
0.000132903
-0.000409948
-0.00289529
0.000950621
0.00191646
-0.000423652
-0.000653446
0.0001004
0.000675169
0.00120414
-0.000986602
-0.000221619
-1.17123e-05
-1.1021e-05
1.48211e-05
-6.11397e-05
0.000190347
-0.00377722
0.00108911
0.000482209
-0.00370919
0.000641805
0.000566929
0.000231195
-0.000832935
-0.00152194
0.000683798
0.000830802
-0.0011159
0.00225404
0.00216345
0.00194032
0.00152886
-0.000368193
0.000229427
0.000554278
-0.000784284
-0.00108996
-0.000549359
-3.49581e-05
0.00051293
-2.04538e-05
0.000531754
-0.00051125
2.16012e-05
2.34049e-05
-5.39609e-05
-0.0006934
0.00191614
0.00184752
0.00269395
-0.00092369
-0.00199686
-0.000235783
0.000872074
-0.000644645
3.66422e-05
-4.03863e-05
0.00167356
0.000556953
0.00077935
0.000942186
-0.000697125
-0.00033584
0.000136721
5.77962e-05
-0.000267287
7.24822e-05
0.000654121
0.000869324
0.00201657
0.000222675
-0.00230753
-0.00166464
0.000754822
0.000900578
0.00336772
-0.00105909
-0.000241526
0.000772523
5.55826e-05
-0.000134284
0.00223713
-0.000478343
0.00160951
-0.00122168
-0.00038909
0.000725178
0.000312696
0.000818711
0.00111245
-0.0010517
0.00210199
0.00169239
-0.00130262
-0.000393654
0.00085899
-0.000352178
-0.00075523
-0.00147855
0.00122204
-0.00191717
0.000693993
9.74001e-05
-0.000164731
-0.000749452
0.0012343
-0.00048958
-0.00241045
0.00125815
0.00134122
-0.000647294
0.00306134
-0.000911252
-0.0041786
0.00331161
0.000364339
-0.00168535
0.003787
-0.00159645
-0.000671239
0.00225238
0.000520284
0.000550466
-0.00107306
-0.000112443
0.000202515
-0.000144622
0.00118123
0.00109073
-0.00386087
0.00229957
0.0015196
-5.08711e-07
2.48734e-05
0.000990391
-0.000539606
0.00166759
0.00177055
-0.00344551
0.00338893
-0.0022053
-0.00121589
-0.000912424
-0.00107689
-0.000902459
-0.000879139
-0.00184837
0.00270022
2.6623e-05
-8.76848e-06
0.000417727
0.000570921
0.00298263
-0.00104951
-0.00412042
-0.000663893
0.000639487
0.00164399
0.00171387
-0.00083526
0.00116033
-4.35921e-05
3.75775e-05
-0.000931398
0.00174948
-0.000825441
-9.24986e-05
-0.000128701
0.000142193
0.000327783
0.00122717
-0.00165339
-0.00196836
-0.000501609
-0.00081889
-0.00038053
0.000577366
-0.000196876
0.00107242
0.000128102
-0.00309404
-0.00104342
0.00412714
0.000621824
-0.00179065
-0.000602292
0.00242262
-0.00184221
-0.00263994
-0.000326046
-0.000759448
0.00100018
-0.000925593
-7.70542e-05
0.00126202
0.00227992
0.00277904
-0.00216554
-0.00137059
-0.00283112
-0.000261541
0.000103955
6.13435e-05
-0.00279953
0.00268673
-4.63426e-05
-5.5343e-05
-0.00203228
0.00112472
0.000897501
0.00190782
-0.00285682
0.000926725
-0.000902379
-0.000839808
-0.00220888
0.000595052
0.000888841
0.00297234
-0.00386973
0.00112171
-0.00220165
-0.00270317
0.00372571
-0.00248323
0.0010454
0.00142408
0.00195201
-0.000889343
-0.000533677
-0.00200629
0.00128667
0.00213985
-0.00344385
-5.54596e-05
9.17654e-06
0.00150812
-0.00127551
-9.67042e-05
-0.000238716
5.00959e-05
-0.000144514
-0.000828296
-0.00167088
0.000386526
4.17313e-05
-0.000584372
0.000455072
-0.000475436
-0.00112221
0.00160744
-0.00049981
0.000131825
0.000409256
-0.000652922
0.000599801
0.000871258
-0.000267513
0.000112563
0.000270357
0.0009149
-0.00279273
0.00195817
-0.00318458
0.00237782
-0.000378449
-0.000361541
0.000896768
-0.0017924
0.000886702
0.0013936
0.000474318
-0.00130787
0.00183344
-0.000557776
0.000240434
-0.000835682
0.000583745
0.000820983
0.00222346
-0.00309648
0.00124437
-0.0016293
0.000365059
0.00115647
-0.00146572
0.000298607
-0.00245162
-0.000897541
0.00328259
0.000721656
-0.000494419
-0.000227262
0.00282369
-0.000676603
-0.00216499
-0.00283082
-0.0010183
0.00384526
-0.000452606
0.00184445
0.00334689
-0.00207677
0.000657049
-0.000428067
-0.00177931
0.000942171
3.01991e-05
-0.000320454
0.000204327
-0.00225324
0.000792296
-0.000416234
-0.00138556
-0.000750493
-0.00189158
-0.000508103
0.000760785
0.00130194
-0.00427409
0.00296856
0.000414638
-0.00180901
-0.00317213
0.000725811
0.00266357
-0.00351776
-0.000881403
0.000499767
-0.00186089
0.00135721
-0.00208508
0.00184867
-0.000629723
0.000612017
-0.0017973
-0.000952839
0.00113757
0.00329238
-0.000815344
0.00190495
0.000251656
-0.00138788
-0.00101545
0.00353097
-0.000373616
-0.00167681
0.000234285
-0.000288723
-0.000830459
0.00196977
0.00317333
-0.000616539
0.000917197
-0.00310648
0.0021632
-0.00296849
0.00191108
0.00103697
-0.00060595
0.000763708
-0.000157509
0.000111389
-0.00017087
5.71763e-05
-0.00295568
0.00425443
0.00016784
0.00258285
-0.00422351
0.00279781
0.00140678
-0.00233536
0.00151443
0.000801604
0.000987527
9.83431e-06
0.00010656
-0.000286611
-0.00134385
0.000769106
0.000565716
0.000428039
0.00117992
8.35181e-05
-6.26478e-05
-2.12279e-05
0.00246593
-0.00141355
-0.00110637
-0.0020157
-8.8656e-05
0.000319501
0.00234405
-0.00147817
-0.000921487
0.000389824
-0.00170114
0.00127616
-0.00139011
0.00380672
-0.00243346
-0.0020542
0.00187583
0.000357415
-0.00175356
-0.00169401
-0.000568868
0.00219128
0.00105019
-0.000545438
-0.000506998
0.0011679
-0.000924952
2.93872e-05
-0.00133634
0.00103287
-0.00151318
-0.00251735
0.00093937
-0.000897035
0.00356977
-0.00118552
0.000624561
-0.000757546
8.71489e-05
-0.000891856
0.00177896
-0.00119923
-0.00114597
0.00233748
-0.00108706
0.00132544
0.00050759
0.00176453
-0.002321
0.00193175
0.000736706
-0.00222317
0.0022415
-0.000754594
0.00278708
-0.00126882
0.000765783
0.002051
-0.00285222
-0.00109001
0.00147191
0.000720464
-0.00323667
0.000715857
0.00207404
-0.00285378
0.00182166
5.7306e-06
0.0016084
-0.00278908
-0.0009344
0.00370802
-0.00337406
0.00119722
0.00198419
0.00173882
-0.000481006
0.00126919
-0.000904614
-0.000505976
-0.00377106
-0.00152384
0.000796721
0.000722687
0.00193313
-0.00288252
0.000595012
-0.00338788
0.00277402
0.000129808
-0.000150843
-0.000151123
-0.000168077
0.000257995
0.00140958
0.000680597
-0.00212488
0.00103122
0.00213802
-0.00319373
-0.00316321
0.000839926
-0.00172545
0.00218506
-0.00022667
0.000797182
-0.000575265
-0.00298697
0.00390956
-0.000963638
-0.00145738
0.0033017
-0.0023997
-0.000636793
0.00157591
-0.00065448
-7.83958e-05
-0.00146174
0.00115011
-0.000653931
-0.00091061
0.00156441
-0.00374861
0.000944365
-3.01297e-05
0.000115218
-0.000921134
0.000909246
-0.00180066
0.0026979
-0.000922716
0.000413189
-0.00160979
0.000843172
-0.00264027
0.00394654
-0.00131797
-0.00444474
0.00303794
0.00137611
-0.000839512
-0.00194072
0.00272573
0.00108379
0.00132946
0.000902877
-0.00016797
-0.0007358
-0.00114483
-0.00105489
0.00217974
-0.00391699
0.000812206
0.00193637
-0.00345092
0.00132785
0.000958389
-0.00140656
0.000307712
-3.82982e-06
3.16491e-05
-0.00235732
-0.000912423
0.00324928
0.00111079
-0.0036985
0.00258282
-2.11725e-05
-2.51079e-05
0.00163833
-0.000953641
0.0018791
-0.000948787
-0.00386694
0.00121581
-0.00086896
0.00171941
0.00437775
-0.00323514
-0.00115327
0.00129282
0.000195901
-0.00153461
0.000321563
-5.9479e-05
-0.000324199
-0.00151041
-0.00124934
-0.00236859
-0.00250334
-0.000923455
0.00337811
-0.00331866
0.00215473
0.00113184
-0.00266133
-0.00100181
0.00361159
-0.00125424
0.000182409
0.00107402
0.00392402
-0.00184961
-0.00208226
0.00240729
-0.00346237
-0.000743788
0.000854338
-0.000111183
0.000427014
0.000933931
0.00294751
-0.00389086
-0.000789957
-0.00175265
0.00314989
-0.000712487
-0.00432402
0.00336798
-0.00151473
-0.000199965
0.00161986
-0.000837594
-0.00173204
0.00254342
0.00278517
-0.00150608
-0.00133106
0.00274503
-0.00185599
-0.000920304
-0.000641587
-0.00199242
0.000745193
0.00179311
-0.00260018
0.00279654
-0.00258279
-0.00342434
-0.00125767
0.000677292
0.00057636
0.00167511
0.00107615
0.00139547
-0.000640425
-0.000768315
-0.0013756
0.00258449
-0.00121639
0.000827765
0.00206168
-0.0029414
-0.00106087
-0.00223072
0.000368692
-0.00219227
-0.00105221
0.00314213
-0.00211724
0.00238502
-0.000902951
-0.00150249
-0.000892837
0.000659001
0.000723664
-0.000435227
-0.0012661
-0.000775649
0.000190827
-0.000681518
0.000485847
-0.00305021
0.00221434
-0.000892206
0.000669102
0.00046099
0.00309285
0.00103498
-0.00406315
0.00173944
-0.00155943
-0.000211968
0.00167831
0.00332134
0.00202713
0.000958307
0.00134112
-0.000462434
-0.000880914
0.00146979
-0.00426855
0.00277235
-0.00334636
0.0021068
0.00117496
-0.000495725
0.00116374
-0.00308914
-0.00198227
0.00032627
0.00134161
-0.000746272
0.00244761
-0.00396983
0.00149157
-0.00150905
0.000582545
0.00166796
-0.00231895
0.0017956
-0.000846449
0.000209314
0.000623822
-0.00298477
0.00397959
-0.000439994
-0.000606717
1.78403e-06
0.000258742
-0.00143766
-0.000782085
0.00150907
-0.00091838
0.000579641
-0.000239087
-0.000618693
0.000983504
0.00320838
-0.00420091
-0.000940092
-0.000588168
-0.000907192
-0.00147852
0.00236129
-0.00463136
0.00338065
0.00121566
-0.00374103
-0.000650694
0.00111641
-0.000638997
-0.000517598
-0.000588658
-0.000940596
0.00102339
0.00117009
-0.0022291
-0.00029183
0.000759887
0.00249413
-0.00382146
0.00130894
-0.00262652
0.00131547
-0.00239584
-0.000536688
0.000687599
-0.00016719
-0.0004269
-0.000552799
0.000400205
-0.000204521
-2.67924e-05
0.000135839
0.000437544
0.000451962
0.00360078
-0.00131485
-0.00232062
0.000391467
-0.00193922
0.00145775
0.00329156
0.00101792
-0.00431764
-0.0022338
-0.00260548
0.00174066
-0.000848483
-0.00128304
0.0032589
-0.00108263
0.00141527
0.00158857
-0.000602901
0.00123189
-0.000634847
-0.00168418
-0.00139933
0.00198775
0.000713094
-0.000364117
-0.000349167
0.00125596
-0.00364827
0.00235427
-0.00086312
-0.00145542
-0.000417013
0.00181987
0.000360416
-0.000665372
0.000304951
0.000397951
0.00137076
-0.00166955
0.000275235
0.000867567
-0.000671679
0.003015
-0.00220195
-0.000843142
0.000223141
0.000630473
-0.000704268
0.00165699
-0.000980164
-0.000766185
-0.00154132
0.00227439
-0.00236534
0.00136195
0.000949522
-0.00115552
0.00225435
-0.00111543
-8.32621e-05
0.000663055
0.00222892
0.00133674
0.00155762
-0.000751436
-0.000815732
0.00179805
-0.000880874
-0.000914913
0.000830821
-0.00148471
0.000546089
0.000954014
-0.00286129
0.000444442
-0.000876448
-0.000608751
-0.00223739
0.00276625
0.00151567
-0.000723862
0.00255542
-0.00361704
0.000180335
0.00130117
-0.000409469
-0.000916792
-0.00182202
0.000644272
-0.000401391
-0.00037511
-0.00233898
-0.00125211
0.00354264
0.000965031
0.000312056
-0.000727236
0.000942028
-0.00165459
0.00253791
-0.00096169
-0.00108148
-0.00141485
0.00185099
-0.00154954
0.000499195
0.000385179
-0.000883217
-0.000842618
-0.0019542
-0.000687614
0.00256392
0.000712976
0.000188788
0.000249628
-0.00175268
-0.00242006
0.00246778
0.00326755
-0.000881513
0.00101782
-0.00060236
-0.0028901
0.00101522
9.21459e-05
-3.20741e-05
-8.74565e-05
0.00188665
-0.00235135
0.00299884
-0.000700393
-0.000837239
0.0010432
-0.000542071
-0.000503235
-0.00263809
0.00348216
-0.00172506
-0.00176197
-0.00215177
0.000684651
-0.00200046
-0.00187705
0.00294899
-0.00101831
-0.00117221
0.00216246
-0.00309109
0.00142416
0.00321091
0.00115421
0.00215365
0.00072765
0.000379907
0.000479044
0.00313833
0.000113974
-0.00327057
-0.000111273
-0.000335695
-0.00177617
-0.00288265
0.000541582
0.00047599
-0.00104809
0.00243576
-0.00131654
0.000907141
0.000402887
-0.00138372
0.000496022
-0.000582284
0.00247034
0.000396804
0.000395438
-0.000516767
0.00101722
0.00430065
-0.00110245
-0.000393533
-0.000930143
-0.0014644
0.00228538
-0.000720646
0.000344071
0.00037673
-0.00113119
0.00198851
0.00119561
-0.00204444
0.000849201
-0.000989946
-0.00159316
0.000858575
-0.00103893
-0.00137164
0.00238199
0.000138959
0.00188487
-0.0020248
-0.000926009
0.000527067
0.000397595
0.000199654
-0.000845309
0.000635215
0.00392142
0.000137243
-0.000683992
-0.00163905
0.00232824
-0.00090728
-0.00115565
0.00352281
0.00205011
-0.00106104
-0.00135316
0.0024082
-0.00105862
0.000799147
-0.000601694
-0.000197867
-0.00217786
-0.000783408
0.000528594
-0.000880862
9.29957e-06
-2.82805e-05
-0.00100449
0.000140048
0.000840963
0.00131566
0.000576294
0.000652338
-0.00122899
0.0020064
0.000708433
3.18647e-05
-1.925e-05
0.00164631
0.000434782
-0.00116853
0.00188023
-0.000752218
-0.00242673
0.00244035
-0.00384769
0.00397951
-0.00289355
-0.00110827
0.00161937
0.00110951
0.00396101
-0.000668677
0.000858066
0.0015521
-0.00198921
0.000425074
0.00366182
0.00342282
-0.000301877
0.000410564
-0.000760663
0.000350334
0.000483299
-0.00182119
0.00268867
-0.00105022
0.000825315
2.69875e-05
-0.00085885
0.000402047
0.000906993
-0.000157589
-0.000835724
0.00113973
-0.00358146
-0.000972654
0.00146191
-0.000511189
-0.000170816
-0.00200139
0.000594287
-0.000844983
0.00081011
-0.00108184
-0.00190466
0.000804046
-0.00383697
0.00299444
-0.00181021
0.00117843
0.000619655
0.00064737
-0.00299208
7.5337e-07
8.18322e-05
-0.00135277
0.00194568
-0.000603276
0.000661342
0.000676085
0.00131287
-0.000552031
0.000955284
-0.0019206
0.000962636
0.0019105
-0.00141446
0.00102511
0.00101617
0.00055316
-0.000893433
0.000340136
7.65376e-05
-0.000340422
-0.000999638
-0.000745318
-0.000279965
0.00239835
-0.00114717
0.00109012
-0.00212662
-0.00103885
-0.00266308
0.00210671
-0.000765955
-0.00136153
-0.00186531
0.00279014
-0.000975166
-0.00146875
0.00242238
-0.002761
-0.00220236
0.00370015
-0.00107922
-0.000893453
-0.00117134
0.00230557
-0.00114961
-0.00232082
0.001114
0.000712312
0.00104558
-0.00175759
-0.000292306
0.0011511
-0.000658665
-0.00049801
-0.00192548
0.00124705
-0.00363353
0.00307793
-0.00339481
0.000297211
-0.000259653
0.00179939
0.000178392
0.000534063