/*--------------------------------*- C++ -*----------------------------------*\
| =========                 |                                                 |
| \\      /  F ield         | OpenFOAM: The Open Source CFD Toolbox           |
|  \\    /   O peration     | Version:  v2012                                 |
|   \\  /    A nd           | Website:  www.openfoam.com                      |
|    \\/     M anipulation  |                                                 |
\*---------------------------------------------------------------------------*/
FoamFile
{
    version     2.0;
    format      ascii;
    class       volScalarField;
    location    "150";
    object      ddt0(omega);
}
// * * * * * * * * * * * * * * * * * * * * * * * * * * * * * * * * * * * * * //

dimensions      [0 0 -2 0 0 0 0];


internalField   nonuniform List<scalar> 
13851
(
5.00888e-05
-0.0325822
0.00163249
2.58768e-05
0.00231916
0.0138219
1.28546e-05
0.000894502
-2.51376e-06
0.00146798
0.000628572
-0.482236
0.00425571
-0.0494161
1.08269e-05
0.000397556
0.000127212
-2.76316e-05
0.00919773
-1.96533e-06
2.48505e-05
0.00172328
0.000143881
-0.000120033
0.000157552
0.000864557
0.00012232
0.30262
4.56204e-05
4.94712e-05
0.007958
0.000137644
0.00163113
-0.00465444
-9.82231e-05
0.00432472
0.003307
0.00475382
0.00164241
-0.0177188
1.14294e-05
-8.12746e-06
-0.0600495
0.000732676
-0.00330733
0.463695
0.00719812
-0.000285511
0.000131375
-0.0992093
0.0024826
0.00449799
0.021447
1.61365e-05
-2.12357e-06
-9.08948e-06
-3.32302e-05
0.00316493
4.85629e-05
1.90089e-05
0.00483304
-0.25242
-0.00357317
0.00305167
0.0283829
9.33071e-05
0.0023434
0.0137961
0.000575043
-9.92587e-06
-0.0204219
0.00254232
-0.18492
1.73855e-05
1.27067e-05
-7.87217e-06
0.001674
0.0281225
0.00112731
-0.00477965
2.80596e-05
0.0189614
1.36463e-05
0.461869
-0.00217779
-0.665777
-0.00185275
-0.110585
0.000159721
-9.44828e-05
0.00445733
-0.0197218
0.008418
0.000252785
0.000153553
-0.00011034
0.00258322
0.000568172
-0.183398
-0.000130656
-0.00763553
0.00140884
2.9599e-05
0.000115781
0.000261519
-0.00494234
0.0016618
-9.4903e-06
0.00252022
0.0214555
-0.000179278
-9.46391e-05
-0.00267091
-0.000337275
-0.000146174
-0.0360777
0.0016366
-1.00671e-05
-8.9835e-05
-5.82829e-05
-0.0844107
0.000108148
-0.00842442
-0.378042
-0.0378628
5.12688e-05
-0.0538915
0.00124912
1.53057e-05
0.00437158
1.15853e-05
3.92203e-06
-0.0201869
1.32875e-05
-0.0265226
3.8658e-06
-1.10409e-05
0.00204941
-0.290276
-0.0491428
-0.0113623
2.04816e-05
-0.000231903
-2.69052e-05
6.33853e-05
0.00499133
0.000444611
0.00436028
1.46846e-05
-0.00670527
0.00274677
-1.91287e-05
-0.0430789
-3.1337e-05
6.58262e-05
6.09367e-05
-2.55648e-07
4.73704e-05
0.00447182
0.00240198
-1.06957e-05
0.000277427
-0.000631866
4.10209e-06
8.11628e-05
-1.10539e-05
0.000441278
0.000594658
1.34854e-05
-0.213867
0.031989
5.22225e-06
-1.12714e-07
-0.0664788
4.36361e-06
0.0426272
0.00117249
-0.000222348
0.00943707
-1.17467e-05
0.000163891
0.00222319
1.26327e-05
0.00183601
-2.51317e-06
1.19064e-07
0.000125139
1.70104e-05
0.00273573
0.00265143
0.0107615
-0.00175538
-0.000110242
0.00055019
-0.137506
5.78308e-05
-0.000203025
0.0139779
-0.000179051
-9.73511e-06
0.000159367
0.435775
-0.000237981
1.46111e-05
0.001809
1.28899e-05
0.123843
0.000137196
0.017248
-1.31031e-05
-0.0563633
2.69583e-05
0.0915632
-9.58138e-06
-1.48577e-05
-0.00369809
-0.00216922
0.333904
1.1164e-05
0.0179138
0.000143146
2.94643e-05
-0.00798826
0.00433297
-0.00922369
6.03047e-05
0.000331852
0.00029032
-0.0196679
-9.87312e-06
0.000855408
-0.0058657
5.82226e-06
-0.000128872
0.00216899
-0.000685467
0.333014
0.0633539
-2.15938e-05
1.46514e-05
-0.0069282
0.0120363
-8.40983e-05
0.00204008
0.000196766
0.0148494
0.00141616
-0.00750586
6.11671e-05
0.000136227
0.00148354
0.00984697
2.94097e-05
6.29347e-05
0.00160048
-0.235627
0.00209027
0.00185483
0.0366717
9.22164e-06
-2.26367e-05
3.17399e-05
0.411802
-5.23209e-05
0.00937541
5.7308e-05
2.94127e-05
0.00023163
-0.0345158
0.0320478
0.00108463
6.47852e-05
0.23627
0.00099226
0.000342999
3.80973e-06
0.00791977
0.0339787
-0.00724764
-0.00274214
-6.47346e-05
-9.87449e-06
0.000266298
0.00148667
0.351346
0.195124
-6.60696e-06
7.65527e-06
0.187223
0.0376945
0.00474353
4.97785e-05
2.04596e-05
0.000662006
0.0448982
0.00881578
9.28134e-05
-0.409302
2.62705e-06
0.0047695
0.000261
0.00012004
-0.0221508
1.96167e-05
-0.00866779
-0.00128852
-4.86384e-06
0.00111614
0.000254024
4.69219e-05
-0.31724
9.64039e-05
2.78653e-05
0.0022211
-7.13205e-06
0.000142896
0.000112056
-0.0175799
0.00407
1.07921e-05
0.0015183
9.58646e-06
-0.0158472
0.00800163
8.3991e-05
-1.65246e-06
0.0040387
0.000303241
6.33498e-05
6.50744e-06
1.9292e-05
2.61228e-05
-0.00129559
-0.00705477
-0.170997
4.93968e-05
-0.0341542
0.0422839
1.04549e-05
0.000561022
0.00461485
-0.0408779
-0.0015728
0.00402679
0.0114085
0.000581843
0.123064
-0.00202066
1.08769e-05
-0.031713
-0.0456537
0.00643201
6.36038e-05
-0.00161146
-0.0181682
-2.58451e-07
0.102946
-1.69264e-06
8.93584e-06
0.000162361
-1.04478e-05
6.77705e-07
-0.0180679
0.0119111
1.58424e-05
0.00100059
-6.15503e-06
-0.170321
0.000610776
0.267235
-0.12074
1.57408e-05
-0.00274981
0.000250593
0.347989
9.89108e-06
-1.00297e-05
0.00117738
0.0176572
1.37061e-05
-0.408431
-0.0391763
0.00423173
-0.42978
-0.0181657
-0.0247295
-0.00161609
3.5931e-06
2.35692e-05
9.31458e-05
0.00151516
-0.0501156
0.000612817
-0.0290268
-0.00447098
-8.00924e-06
9.43559e-06
-0.28995
-0.0130092
0.00156988
0.00375096
0.00652434
0.000275765
-8.00138e-05
0.0512669
1.93578e-06
0.000368445
-0.000793529
1.44538e-05
0.000299558
-3.90514e-06
-1.01294e-05
0.00296027
-0.0006143
-0.0329089
1.52316e-05
0.00164658
0.000150078
0.00828838
0.00015639
0.00531778
0.000110607
-0.00568455
-1.12865e-05
-3.04493e-06
5.837e-06
0.00575111
-0.111467
0.00421614
0.000289726
-0.0555898
0.00678654
-0.00785179
-4.15314e-05
0.0022387
9.90735e-06
0.00548998
0.000252316
0.077412
0.0119023
0.00141988
0.0109015
-0.000364037
0.0515081
-0.0111695
0.0410724
-1.1073e-05
0.000326289
0.00118131
0.0405957
3.33654e-06
2.69549e-05
0.00252068
0.00431629
-0.000228884
0.187712
4.10814e-05
-1.30691e-06
-0.00268554
6.58846e-05
-9.12397e-06
-0.0876834
3.79245e-06
3.89632e-05
3.01985e-06
0.000198301
3.95177e-05
-1.08388e-05
-0.000292816
0.00141222
1.43104e-05
0.000712544
6.0627e-06
-0.00134495
0.0326778
-0.00038222
5.74455e-06
-0.000350985
-0.000353673
0.0700277
2.86293e-05
-0.00138072
1.22999e-05
-6.09386e-05
-0.0357205
0.00890018
1.26286e-05
-0.00303023
0.000165148
0.00983424
0.373079
-1.24532e-06
-0.00484463
1.02772e-05
0.00218748
1.66246e-05
-0.0234886
-1.01664e-05
0.0304771
0.0025874
-7.24018e-06
-0.00386481
-0.00436843
0.000849744
0.0392958
-5.70662e-05
-0.0283329
-6.58943e-06
4.73102e-06
2.09005e-06
1.23156e-05
0.00934559
0.00208512
0.00442285
0.00561769
-0.00262067
-1.64387e-05
0.000571658
-0.0819269
0.000169857
0.000280231
-0.00328295
-0.230406
-0.106532
2.87149e-05
-0.0244352
0.520108
0.534771
9.83424e-05
-0.000855439
0.105943
0.0483484
-0.18071
0.0400116
0.165702
4.80769e-05
0.212798
0.00785322
-1.35836e-05
0.038806
0.0021723
0.00692571
6.27843e-05
1.37172e-05
-1.69193e-07
1.33362e-05
0.00265269
-0.000308516
-0.0851318
0.188994
3.62419e-06
-0.023022
0.0138579
-0.00446048
-0.0549777
0.000679564
-7.94047e-06
-2.45149e-06
0.0194247
-0.000520084
6.80707e-05
0.00322287
0.0048402
-9.97026e-06
0.000724234
-0.114183
0.00272363
0.00399983
0.00813634
0.0045847
1.07062e-05
1.4164e-05
-0.057004
-0.00285161
0.00427558
0.000620974
-0.00257145
-1.10012e-05
1.1744e-05
0.0429126
-1.01724e-05
6.06866e-05
-1.13379e-05
7.13256e-06
0.00528806
0.0027743
0.000127569
-1.00153e-05
-0.366114
0.0797798
2.57842e-06
-2.68786e-05
-6.27238e-05
2.25386e-05
0.0224442
0.00375558
0.0446153
0.423899
-0.0243918
0.000521053
0.00667951
0.0101176
0.000399089
0.000577815
-7.47232e-06
0.000215233
0.000451958
-0.0105614
0.0818097
0.00319129
0.000270306
2.21615e-07
0.000350545
7.61844e-05
0.0582812
0.00239387
1.24256e-05
-7.76255e-05
4.00096e-06
0.000227685
0.00431421
1.79526e-05
9.179e-06
0.000613943
2.02875e-05
0.0024223
0.00412554
0.00419478
0.000353495
0.00441214
1.05292e-06
-0.00131246
0.00245029
0.33545
2.60508e-05
-9.98989e-05
0.00276466
4.79778e-05
-0.230008
0.00688405
0.096452
-0.136833
2.47872e-06
0.00286693
-9.55603e-05
6.05031e-06
-1.12065e-05
6.6666e-06
7.07483e-05
4.65383e-06
0.000174532
-9.99681e-06
0.0957064
0.00325448
0.0667146
-6.74328e-07
4.67394e-06
5.98305e-05
0.00425983
-0.0928793
0.0016992
0.000240081
-0.000116848
-7.64138e-05
-3.17461e-05
-2.14708e-06
0.00614727
0.220353
1.91794e-05
-9.73149e-06
1.2178e-05
-8.18886e-07
0.0100719
-0.00515942
0.000389084
-0.00142331
-0.0535229
8.88825e-06
0.00430148
0.0276003
0.000655905
-0.634494
2.79101e-05
1.48253e-05
0.00165267
5.67438e-05
0.112269
1.27731e-05
-0.082544
0.000269329
0.00046297
0.0156893
-2.20599e-07
4.40218e-05
-0.00263969
3.93411e-06
0.000146614
0.150966
-0.0628965
0.00227067
0.00971704
0.00321589
-1.06509e-05
-5.50968e-07
-0.0456964
0.00472936
-0.00081105
-0.00414663
-4.96231e-06
5.97722e-05
-1.3128e-05
0.00170319
0.00671733
7.9377e-05
1.40801e-05
0.0119963
0.000124299
4.72525e-05
0.0322749
-0.177648
0.0119694
-6.30477e-06
1.86757e-05
0.0161103
0.0227464
0.00435618
4.84737e-05
-0.0108164
1.33329e-05
-0.00523316
0.00293128
0.00152467
0.00011327
0.234606
-0.00016895
0.000511659
0.00290244
-0.000131407
-0.00023471
4.24074e-05
1.50622e-06
0.059629
0.000357004
0.00407667
0.000252418
0.0354231
-4.63492e-07
0.348692
-8.27692e-05
-0.000391489
1.92641e-05
8.18748e-06
8.05479e-06
0.0016815
5.72149e-07
-8.28155e-06
-0.0196447
1.54182e-05
0.0119508
0.000265756
-0.000199393
0.0024702
-0.00449592
0.0605814
-2.18635e-06
0.145009
0.00052124
2.98093e-05
-0.0430828
0.000445227
2.1938e-06
0.0366622
-0.0230986
0.0710969
0.000127326
1.42238e-06
-9.64619e-06
-0.0316824
0.00169888
0.00126833
8.68823e-05
0.0332354
2.52858e-05
-8.85866e-05
0.00317948
-0.0300918
0.00261523
0.276598
1.74779e-05
0.00235154
0.00297339
-0.027468
6.94873e-05
-0.539495
0.00242259
1.50025e-05
0.198367
-0.0032547
-0.00128138
-0.0572869
0.00647665
0.0171561
0.000689711
1.42215e-06
0.000175531
0.000887842
0.497943
-3.43128e-06
-3.50044e-05
0.0022275
0.0504893
-1.04718e-05
0.00412422
-4.34087e-06
1.60042e-05
0.024552
0.0219983
0.00653955
6.18291e-06
8.84689e-06
0.00925779
0.00595807
0.00415877
0.000218417
-0.0309353
0.00404204
0.0114556
0.00160131
0.000954522
2.70545e-05
1.61657e-05
-0.0514979
0.00158803
-0.0181193
0.0128955
0.000593309
0.14715
-0.00661268
0.0159629
1.34763e-05
0.000451643
2.4027e-06
0.000392819
4.13892e-05
-0.20936
4.60094e-05
0.0355817
-9.55723e-06
0.00236383
1.03907e-05
0.0034302
0.000561865
0.000433696
-0.000107653
0.00114363
0.000253819
-0.000143946
0.00234577
0.136065
-0.00471411
5.97145e-05
0.0300343
-5.46451e-05
-0.0506404
0.011023
2.08094e-05
-0.0307186
0.00573713
0.0123443
0.0141979
0.00898006
-1.64065e-06
0.0117699
4.9034e-05
0.0203932
0.0199425
-6.42212e-09
5.87282e-05
0.00439495
0.0942609
-0.499977
1.866e-05
-1.23167e-05
-0.0574656
0.0165062
0.00401347
0.000115321
9.30735e-05
0.0070705
0.0309795
0.00304884
-8.17308e-06
0.000678302
4.2889e-06
-0.000138307
-0.0630911
-0.000110978
0.0755373
0.0042174
1.62081e-05
-0.000301355
-1.90636e-06
4.4332e-05
-0.0247555
-0.0132983
0.000318924
-0.562121
1.14473e-05
0.000310518
-2.55755e-06
4.08915e-06
1.95079e-05
1.60747e-05
-0.00311154
1.32715e-05
0.00162993
1.38953e-05
0.000136969
-0.0612361
0.01054
-7.02226e-05
-0.0387859
0.00146375
0.0058752
0.00038737
0.000413539
-0.0080276
0.000231611
-0.000515852
-0.0710503
-0.0569626
-0.0372654
0.000693642
-0.00591026
2.37548e-05
0.00101838
0.00146292
-0.558794
-1.99763e-05
-0.238899
-5.25787e-07
-6.70108e-07
-0.0564814
4.01563e-05
0.00923333
0.000124472
2.15557e-06
0.000636377
2.51238e-06
7.91812e-06
-0.000236664
2.64237e-05
0.00490286
-4.63783e-08
0.00612078
0.0088679
0.00163455
-0.0888433
1.52909e-05
-0.000135501
0.000103341
1.32516e-05
3.7418e-06
0.00284152
2.5953e-05
-8.19848e-06
1.57233e-05
0.000107403
0.0202862
0.218064
-0.00793289
0.00296437
0.00645412
1.24597e-05
-0.106935
0.000264326
6.03795e-07
-0.0177169
-0.0183051
-0.0168778
1.26825e-05
0.00249038
0.0641594
-0.0200898
6.91522e-06
-0.000787642
0.000330316
0.000113066
-0.000190889
-3.73233e-06
0.0794588
-0.00528799
0.0517778
-2.88234e-06
1.36197e-05
-0.0351621
2.08956e-05
-0.000115325
0.0145985
0.309357
0.00908436
-0.00942397
-3.46996e-05
1.47422e-05
-0.00289364
-0.000818308
0.000112841
0.00308121
0.000769099
2.5696e-05
9.42301e-05
0.157064
-9.39571e-06
0.0122364
0.0074383
0.0266961
0.00633399
2.60973e-05
-3.81111e-05
1.15039e-05
0.0080122
-0.0210302
6.45032e-06
-0.000340269
-4.4581e-06
0.00269681
-1.97564e-05
-5.72557e-06
3.12414e-05
0.000473456
0.0077202
-0.00038263
-0.000153883
5.7117e-06
0.00171503
0.00852604
4.42575e-05
0.031377
0.0592594
0.00286551
-2.86077e-05
0.00118693
1.40228e-05
9.78447e-05
1.0403e-05
0.030578
0.00416524
-0.149742
0.000115771
-0.00370125
1.36214e-05
0.000278457
1.86107e-05
-0.142265
-0.0139699
-1.50935e-05
0.000457536
-0.00124584
0.0083332
-0.000397792
0.0169488
-3.39588e-05
-0.440733
0.00147551
-0.117177
0.00323905
0.00283598
0.00610662
0.0129982
-0.0138512
0.163483
-3.46882e-05
0.000764947
-1.32828e-05
6.18535e-05
0.000223896
2.13718e-05
0.0122568
0.000281386
0.000242072
0.0113999
0.00537833
0.0580801
1.01028e-05
9.82323e-05
8.57406e-05
-4.78826e-05
0.000191624
-0.115645
-0.0287658
-0.0309496
1.0706e-05
0.000238743
0.00030936
-0.25769
0.00335375
-0.00276241
-4.37299e-05
2.34552e-05
-0.0222281
0.000836846
0.0991574
0.00681438
0.00250978
-1.462e-05
0.00670648
0.000256382
0.00094845
0.00028531
-0.0452607
0.0293637
0.00397128
-0.0014128
3.11539e-05
-0.000564818
1.59447e-05
-0.0888144
-0.00076765
0.0117479
0.0036129
0.000213192
0.00451331
5.51635e-05
-0.063472
0.00606621
0.00012731
-0.02235
0.0162233
-0.0558478
-0.00474683
1.62283e-05
1.50996e-05
-0.0103394
0.0114796
-0.012493
1.83662e-05
1.34424e-05
1.59816e-05
0.0168911
0.0043281
2.60326e-05
-0.205226
0.00159272
0.76201
0.00323408
0.217484
1.0176e-05
-0.0109069
0.000139578
5.50934e-06
0.00450482
-0.179597
1.57228e-05
-1.34883e-06
0.0276229
-0.0649399
-0.000294235
9.71764e-06
-0.179387
9.98515e-05
0.0212417
1.13361e-05
-0.0591089
1.48616e-05
0.00167404
0.149354
0.00347639
5.22204e-05
0.111472
0.00399857
0.111168
0.0121066
-0.477959
0.0222131
1.32379e-05
0.00574093
-0.000395337
9.65134e-06
-4.86106e-05
-0.03151
8.33406e-06
0.00586551
-1.3548e-06
0.000578076
0.0268361
0.00126449
0.0466592
5.65022e-05
-0.000556753
2.88203e-06
0.000515615
0.00719862
-0.0298684
4.47338e-06
0.00213844
0.019368
1.6959e-05
-5.08632e-06
0.013407
0.000565951
0.000446826
0.00429447
-0.0168832
-0.0617983
0.00654159
-0.00514914
0.0342669
-0.00262148
-0.0425587
0.439033
0.00207048
5.46632e-05
0.00425104
1.29582e-05
1.32111e-05
0.0985852
0.014498
4.29032e-05
-0.0419755
-0.0139822
0.0183381
0.00268638
-0.00122734
1.19177e-05
-0.0098225
-0.115555
-0.000161513
5.32473e-05
-0.0118176
0.00662173
0.26793
-0.114647
0.000405908
0.0357329
-0.0244957
0.000491003
1.74465e-05
2.30697e-06
0.033394
7.96893e-06
0.00605123
1.33419e-05
3.45857e-05
4.51631e-05
0.000610022
-0.0652162
-0.0260747
1.16901e-05
0.00983772
6.61373e-05
6.7506e-05
1.20629e-05
0.000116271
0.0119716
0.000162299
0.0131741
0.0273444
-0.329416
0.00394796
5.74893e-06
0.000647297
2.01771e-05
0.00450644
-0.000162808
5.46835e-05
1.02616e-05
-9.11535e-06
0.00464503
3.78941e-05
0.000459625
-0.000285657
0.000480548
0.00372148
-0.0271836
6.61915e-07
0.00124874
0.000290327
0.00406967
-0.00170318
0.013261
-0.0027105
0.000496577
0.000105515
2.81969e-05
-0.017696
1.0785e-05
0.0449308
7.45228e-06
-9.62278e-06
-0.000160451
0.00450305
0.000221168
6.99395e-05
-0.00146998
0.000209543
0.00224109
0.00422805
0.0098778
0.000639738
1.5791e-05
-0.060043
6.49456e-05
-1.94333e-05
0.00619593
0.0348828
0.000260275
6.54622e-05
0.00543868
0.00908048
2.67965e-05
3.42904e-05
0.0344904
5.35125e-05
-0.0470079
0.00635224
0.00122266
1.46882e-05
-0.00260273
1.34896e-05
-0.00495708
0.00436937
0.000727546
0.0040183
-0.0313341
4.91566e-05
-0.0445885
0.142152
1.13233e-05
0.00190856
0.00286704
2.47648e-05
0.0214854
1.72715e-05
-2.70432e-06
-2.02387e-06
0.00540556
-0.022225
0.00473224
5.48016e-05
4.93728e-05
0.000440527
0.0667751
0.00534346
-0.0854614
0.00632759
3.32144e-05
0.00433027
0.00392185
-0.0339617
0.00138045
0.0552137
8.06189e-06
-0.00200401
-4.30072e-06
-0.110495
0.000170083
1.34345e-05
0.0621182
-0.000814343
0.000391918
0.00774571
-1.15261e-05
0.000219003
0.00123791
0.000445372
-0.0118625
0.0020052
0.00129048
0.00147217
0.00352736
-0.0423475
-0.00292861
-0.0773957
-1.1781e-07
-6.72787e-06
0.00497396
-0.0410657
-0.0514939
-0.0094066
-6.95458e-05
-0.0305727
0.012275
-2.72821e-06
0.000225296
8.8819e-06
0.000975384
0.00243625
0.0164978
-0.00659374
0.00468659
5.57368e-05
-0.00427654
0.0374102
9.91202e-06
0.00194982
-0.228551
-0.0338894
0.000106577
0.00269448
-9.49729e-06
1.74519e-05
-0.000125695
0.000105365
-0.0408039
-0.00737052
0.0452261
-0.512439
5.41071e-05
0.000331558
0.00132682
0.000147904
1.36076e-05
-2.83025e-06
-0.0234281
6.33742e-06
-0.139214
0.000315881
-0.00207528
0.00388348
0.00455697
0.0267915
0.00974076
0.000930489
-7.93681e-06
0.00124654
0.00450974
0.00682393
0.000139353
7.66252e-06
-1.79736e-06
0.00134956
0.000307929
0.00449739
0.152305
5.51638e-05
-2.79016e-06
0.00411731
-0.0616246
-0.0169218
0.0451546
9.68208e-06
0.00234455
1.04208e-05
-0.00546677
-3.06413e-05
0.0329162
-0.000282658
5.50902e-05
0.000299842
2.15614e-05
0.00663194
0.000354627
0.00120041
-0.00780863
0.00636031
0.000155941
0.000308324
1.21832e-05
0.00713276
-0.023186
-4.44462e-05
-4.65181e-05
0.0162481
-1.14072e-05
0.0128943
0.000288631
-0.000305352
0.00138763
-0.110808
6.09455e-05
-3.43975e-05
1.23734e-05
0.00249188
-0.0231243
1.30638e-05
-0.0935607
-0.0239545
0.0577437
-0.000454674
0.000254973
0.0155791
0.000200575
0.00205615
1.34406e-05
-0.0052961
-0.00118177
0.172233
0.0245653
0.356764
0.000104242
0.0130012
-1.97251e-06
-0.0243068
-0.0342038
-0.0015069
-0.00556818
0.000152737
0.0151662
0.0733806
0.000303202
3.81762e-05
1.78521e-05
0.0143967
0.000129051
0.00249766
-0.000344439
1.80947e-05
4.46032e-06
1.98205e-05
0.00108589
0.0037565
0.000323436
-0.0246686
0.00701098
0.000149219
1.37967e-05
-7.37864e-06
-0.00206179
0.0366745
0.00603257
0.000102993
-9.98337e-05
0.483886
0.00149997
0.00106121
-0.0104112
0.000293262
-0.044271
0.000454755
-4.59713e-05
1.35379e-05
-0.000353922
0.00219367
0.023234
-0.0106163
0.024248
0.00148714
0.0345862
-0.000618397
0.000119676
0.000141353
0.0582027
-0.0441959
-0.138604
-0.0205407
9.46195e-05
1.60454e-05
5.70968e-06
8.1893e-06
-3.21398e-06
-0.0755808
0.000264327
0.0124397
0.000303151
0.00369487
0.0495422
0.00453382
0.0107929
0.000203725
-0.0195219
0.000475266
1.38805
0.0261097
4.59419e-06
-0.32687
0.000223748
0.0523277
0.0922495
0.000378067
-0.370785
-0.00929339
-9.0657e-05
-0.00157527
5.18905e-05
0.0836246
0.00530113
0.000104832
1.42174e-05
-0.00775499
-0.008634
0.00440396
-0.0461598
0.00435677
-0.00204202
-1.37789e-05
-1.12348
0.0335715
0.0014472
0.000446535
0.00210725
-0.0821093
-2.04401e-06
1.23174e-05
0.000113908
-0.0121907
0.000287003
1.22991e-05
-0.00663017
3.59623e-05
2.23763e-06
1.98125e-05
-0.189552
0.00280519
0.0198801
-0.055374
4.05318e-05
5.32297e-05
6.19909e-06
0.329886
1.50617e-05
0.0646731
4.87497e-05
-0.0489613
2.27824e-05
1.25603e-05
0.00410015
-0.0716036
-0.00145313
0.000482047
0.123537
-3.47534e-05
1.74671e-05
1.2873e-05
0.000807619
0.00192203
0.00198062
-0.000335505
-0.161467
0.000126738
0.00401594
-0.00174057
-0.108703
-2.77146e-06
0.00921166
0.0213974
0.000177683
0.222898
0.002277
-0.0167587
2.09807e-05
0.00183488
-2.64724e-05
1.10056
-0.0333955
0.000735359
-0.0401183
4.84754e-05
0.00155997
3.40155e-05
0.00613676
-1.0841e-05
8.18961e-06
0.0162276
0.0012868
-0.0381874
0.00781311
0.00222752
0.000255967
-1.92347e-06
0.218736
0.000450265
-0.000207036
0.00439441
-0.00016224
0.00103517
1.61837e-05
0.0646617
-2.98439e-06
0.00457258
-0.0114481
0.000598514
-0.00975472
0.00122967
-0.00654212
6.40259e-06
0.108182
-0.0467626
5.23236e-06
1.42772e-05
5.08852e-05
2.41512e-05
0.00062202
3.40021e-06
-0.0560257
0.00267518
-0.00209819
-0.0101973
1.11868e-05
2.94586e-05
-8.05646e-06
0.00930225
1.87772e-05
1.1363e-05
0.00628801
0.000117467
0.571092
-0.0588736
0.00320846
6.04524e-05
0.000414102
5.05839e-05
3.45766e-05
-0.000736613
-4.26266e-05
0.000121994
0.0179851
0.0235963
0.00468132
4.88648e-05
0.0353955
-0.0723362
2.31254e-05
0.0165798
-0.0469595
1.16925e-05
9.85556e-05
1.20075e-05
0.00125438
-0.0256944
-0.0537612
-5.75446e-05
0.000102211
0.000161447
1.4549e-05
0.00440816
1.67427e-05
-0.16902
0.00211053
-0.099102
3.74096e-06
0.000113892
0.000101965
0.042661
-8.55001e-06
-0.0252574
0.0364446
0.0289408
-0.06945
-0.348621
0.212354
2.252e-05
-0.062506
-0.0191526
4.13246e-05
-7.77843e-07
4.99428e-06
-0.0431819
-0.0309836
0.0914122
0.000148013
-0.0400035
2.03019e-05
0.00438528
-4.11446e-05
5.68466e-05
4.31895e-05
4.32373e-06
-0.0276688
5.41601e-05
-0.292223
-0.0685999
-0.0215657
0.000839446
0.00169503
-0.0200129
-0.0168814
-2.59288e-05
0.0265489
-6.19195e-06
-8.82205e-06
1.34311e-05
0.000832918
-4.96804e-05
-0.0132523
0.000526049
0.0920046
-0.000269351
0.0216401
-0.0256457
0.00333377
5.46079e-06
0.00135436
0.0014174
-0.0173722
-1.01806e-05
5.70139e-06
1.46321e-05
0.118187
-5.19512e-06
-0.00921306
-0.013231
0.000920972
0.00123758
7.22036e-07
-0.018407
2.55032e-05
0.0349397
6.47253e-06
-0.0116292
0.000495307
1.63051e-05
-0.0152786
-0.0111214
-1.25656e-06
0.00229971
9.85643e-05
0.0803549
0.014732
0.0178192
0.0774986
2.67351e-05
0.00144414
-0.00355322
-7.19672e-05
0.00024447
0.000172981
0.00279182
0.000502649
0.037104
0.00869456
1.78332e-05
0.00862027
5.01037e-05
0.000916906
0.00505955
-0.0154359
1.18595e-05
0.0132931
0.00231724
1.38376e-05
-0.00944238
0.00434417
0.000435834
4.12715e-05
0.00734631
-1.89949e-06
0.108992
0.0409386
0.00223617
1.0527e-05
-4.55834e-05
0.0106997
0.000956039
0.00576096
3.67932e-05
9.46588e-05
-0.00388333
0.00504047
0.000228344
-0.0181849
0.0864263
-0.0157703
1.91293e-05
0.00703656
0.016808
-0.0330982
1.0066e-05
0.000852142
1.67198e-08
-0.0234791
0.0134279
-0.0125772
-0.0219047
2.78996e-05
-2.10973e-05
1.09731e-05
-0.0175323
0.00310249
-0.0115107
-0.0271744
7.01128e-06
-0.011829
-0.0626389
0.00424466
-0.0148717
0.0124623
-0.000259973
0.139054
9.08724e-05
0.000203348
-0.00149791
-0.00927596
-0.000869507
-0.0287945
1.26242e-05
1.38207e-05
1.06522
0.0116876
0.0275402
-0.0170356
0.000304999
2.76444e-05
-1.00808e-05
-0.156955
-0.00549334
1.34661e-05
0.00141005
0.22856
1.28063e-05
1.89187e-05
-0.163114
-0.125723
5.47238e-05
8.40807e-06
3.86435e-05
3.61504e-05
-0.0519793
2.42917e-05
-3.07962e-05
0.000113063
-0.000526742
-0.0923114
-0.370863
-0.01014
1.76792e-05
6.67054e-05
0.012406
-0.0417762
4.40844e-05
-0.0022429
1.14534e-05
0.000571129
-3.38199e-05
-0.00167481
0.00125544
-2.23513e-05
-0.14911
0.000208637
-8.76568e-06
6.11511e-05
0.0329855
-0.0545133
0.0147538
1.31118e-05
-6.06216e-05
-0.0649625
0.00598178
0.000119821
-9.6833e-06
7.26211e-06
-0.00664043
1.9649e-05
-4.20931e-05
0.000233364
1.44826e-05
0.0128258
0.00641826
2.64131e-05
9.76331e-05
-4.837e-05
1.7427e-05
-0.0659795
-0.0595306
0.00234139
-0.00651172
-0.00346051
2.99145e-05
1.23513e-05
1.67217e-05
8.78838e-07
2.52282e-05
-9.67064e-05
0.00224649
0.00393343
7.32151e-05
0.00376334
0.0175623
0.0466032
1.03165e-05
8.00331e-06
9.86889e-05
0.35552
1.09506e-06
0.00380512
0.00375148
-0.00202451
-0.000566976
0.0358913
-6.14837e-06
-0.0493022
-4.74828e-06
-1.87491e-05
-6.43954e-06
-1.00415e-05
0.00105028
-0.0124564
-0.0001439
0.000603946
-0.239036
-0.18408
-0.0729463
0.000478244
0.0148716
-0.0242743
0.00356803
0.116677
-0.142523
0.00398491
-0.0263858
2.64669e-05
-8.29289e-05
0.204036
4.08402e-06
0.000104968
-0.150616
-0.108266
-0.0994319
-0.00253202
-3.82671e-06
0.00238796
1.80164e-05
-0.212055
-4.51345e-05
-0.0618063
-0.0452291
-0.00603729
0.0836941
1.82822e-05
-4.32963e-06
0.0025342
-0.0504241
0.0143565
0.00239939
0.00498202
4.51007e-06
0.00212582
0.0223638
0.0552744
4.82154e-05
1.93784e-05
-3.00543e-05
4.54803e-05
1.04634e-05
5.25016e-06
9.73386e-05
0.0128393
0.00260688
0.011331
-0.0184485
0.0108372
0.00425437
1.33748e-05
-2.67748e-05
0.000172774
-8.63225e-06
2.49647e-05
-0.100194
0.179874
-0.0371271
-0.035375
9.76652e-05
-0.0279569
0.00396895
-0.0237086
0.0285921
1.64196e-05
-6.55974e-06
-0.000337769
1.82603e-05
-1.76218e-06
0.0119228
0.0134791
0.00765858
1.58578e-05
1.90794e-05
-0.00053481
0.00057673
0.0658067
-6.56259e-06
9.13555e-05
0.00301774
0.00016235
0.0268951
0.000547321
0.167623
2.70115e-05
0.00611072
-0.05234
0.00035497
-0.15921
0.00395336
0.0149551
-3.2718e-05
9.3866e-05
-1.63458e-06
0.000274691
-0.199952
0.000134078
0.00673385
0.00013143
-2.21942e-05
8.03063e-06
-0.0178211
0.00108686
0.0038508
-0.0372783
-2.80762e-06
0.000673719
0.0190914
0.00128275
-8.14642e-05
3.53328e-05
1.76215e-05
-0.00137339
-7.10348e-06
-1.00781e-05
-0.00520868
-0.124953
-0.0163051
-0.00106408
0.00916309
-0.0229231
0.00249708
-0.036518
0.003816
-2.50967e-05
0.000145404
-1.13786e-05
1.98004e-05
-0.155147
-0.116275
5.55159e-06
0.00844648
0.0189989
0.000400687
7.87962e-05
3.43647e-05
0.0149298
-0.120178
0.0138764
-0.674278
0.0152882
-1.26558e-05
0.00670913
0.00316869
-0.0101873
-0.00474897
1.28551e-05
0.00433008
-0.00364196
0.000285165
-0.0555678
2.25833e-05
-0.0838038
-0.0134028
0.0343116
0.00271358
0.000337739
0.0309926
0.00430256
0.0364575
0.0104127
0.0125982
0.00399764
0.0200263
1.93729e-05
-0.000233657
0.0012305
-0.00904645
-0.0128776
0.0151426
-5.3454e-05
0.00253846
0.00243391
-0.000140105
-0.186882
1.22622e-05
0.00437246
0.0146644
1.09173e-05
0.771726
0.194776
0.0289198
0.00843544
0.00938774
-0.0912998
-2.54529e-06
-0.153052
0.000103768
-3.19036e-05
0.000867902
0.000100545
0.0255564
0.000115725
-2.50939e-05
0.000104833
-9.13379e-06
0.13374
5.48587e-05
0.00411228
0.0149867
4.41905e-06
0.0160963
0.00333367
0.000115483
0.0598266
0.00584116
1.12446e-05
-0.00935318
3.52981e-05
0.012977
-0.0115458
3.37671e-07
0.00393974
5.69077e-05
-0.14851
0.0171953
0.0024431
0.0384667
0.000163944
6.71587e-06
0.289383
0.000126065
-1.08461e-06
0.0076956
0.00107057
5.85723e-06
-9.46704e-06
0.00383459
4.87333e-05
0.0215559
0.00592959
-0.113983
-0.0164906
0.00172373
0.00127944
-2.70352e-06
-0.14207
-0.0245391
-0.0498858
1.00275e-05
-2.33186e-05
0.00224908
0.000274364
0.0252287
-7.65947e-07
0.226742
-7.66848e-06
-0.00178172
-2.95799e-05
-0.0486216
0.00326309
0.0039431
0.0195103
0.104343
-0.0310609
0.0152233
-8.17826e-06
0.00942435
0.00799848
-0.0127783
-2.38383e-05
0.00439236
-0.0154288
0.0594249
0.00406079
0.00998095
-0.247047
-0.106366
0.00136832
0.00655553
4.24796e-06
0.0012932
0.0011901
1.24356e-05
0.00242758
-0.0313033
-0.226986
0.00232958
0.00669384
1.32834e-05
-1.48045e-06
-0.000185244
1.25446e-05
0.112259
-5.97037e-06
-4.73972e-06
-0.0413851
0.00381956
-0.00031237
0.0034441
-0.000143369
0.00136027
-0.0335316
0.0228173
-0.0260636
0.000204965
0.0195407
-7.45633e-05
-3.28234e-06
9.10084e-05
0.0127979
0.00711899
0.00736554
0.00433042
4.78026e-05
-8.41963e-06
1.28091e-05
2.63852e-05
0.000235947
-0.023882
0.0040814
0.000259194
-0.13911
0.0227215
-0.0140808
0.140273
1.38577e-05
0.000320842
-0.179447
1.20403e-05
0.00171429
0.000210344
0.000111695
-0.200943
0.0246637
-7.15194e-06
0.00102256
0.000297028
0.00138958
-0.0224401
0.166242
-0.0888155
-4.75628e-06
0.00298472
-0.0413572
0.0029374
0.0039008
-0.0110812
0.0101126
0.0506133
-0.0188581
-3.91308e-06
0.0122294
-2.59282e-05
3.6553e-05
1.47648e-05
0.00131097
-0.0325318
0.0240035
0.198963
0.200203
0.0012381
-1.17424e-06
7.5323e-06
1.90542e-05
-6.18971e-05
0.0010339
-0.0646653
0.00360905
0.00277042
-0.0455361
1.93293e-05
0.00119205
3.78805e-06
0.0344238
-3.65967e-05
-3.71667e-06
0.0024416
0.00347474
-1.11378
0.00939627
0.00361337
-0.0785502
0.000105142
-0.0550644
0.00558346
0.00673704
-0.0200572
-5.68327e-05
0.0011418
1.77647e-05
-0.0115417
-0.035788
0.000691376
-0.198913
0.00610126
-0.317809
0.00135707
0.000155784
-0.000704175
9.67434e-06
0.00404404
0.00141519
0.000117135
0.00111582
0.000343876
0.000386947
0.0310029
0.00464426
4.66114e-05
0.000285117
0.000600363
0.000237687
0.000137067
-0.0459595
0.00354944
0.0404612
0.458261
1.55456e-05
0.025765
7.65647e-06
0.000104516
5.89695e-05
0.0227121
0.000497493
0.041334
0.14315
0.00117088
0.00237856
0.00408312
0.264152
0.00439742
0.0160948
-0.000172795
0.00135273
-4.72437e-05
0.032649
-0.0251594
-0.000196873
7.45528e-06
0.000404742
0.000203991
9.24489e-05
0.00155531
0.00100817
2.12434e-05
0.000196041
-0.21578
-0.00192013
0.00529786
0.000894869
-6.68904e-06
0.148847
0.000490037
0.00218804
0.644742
0.00121946
-0.571834
-2.33808e-06
1.73775e-05
9.45132e-05
0.000164927
1.26543e-05
0.0320564
0.0827763
0.0242549
0.000260294
-0.124653
0.00381715
0.000196814
0.277296
0.00225265
0.00449728
0.328081
-0.00137069
0.000106578
0.00106186
0.00145843
-0.000235626
0.00397785
0.0113312
-0.0152131
9.35707e-06
0.00569244
0.00247604
-0.799571
1.36422e-05
0.00102465
-2.34965e-05
0.000299041
0.0942269
0.000267641
0.000274999
5.52864e-06
8.8676e-06
-0.0433609
0.014521
5.91291e-06
-0.596669
0.00555952
-2.16007e-06
-0.00622168
0.033474
0.0033632
0.00352668
1.33532e-05
0.000217715
0.00175431
-4.8118e-05
1.41605e-06
0.885001
0.000297257
0.0320406
0.00297453
0.000204412
0.0424628
0.00218009
0.00438303
7.07072e-06
0.0257194
0.000434081
0.000208901
0.185535
0.000881975
1.75176e-05
0.0015052
0.000129332
-0.000323933
-7.15393e-06
1.1016
1.55569e-05
0.000373652
0.0145772
0.00308252
-7.68571e-06
0.00618456
0.000426087
0.166278
0.0020881
0.00805129
0.00248691
0.0321317
4.77361e-06
0.00255964
0.000189158
1.22399e-05
0.0585766
0.0230303
0.000174757
0.50943
-0.00522316
0.00229051
0.0105599
0.000208645
-0.0303327
-0.0975139
-0.00577014
0.208074
-0.00397186
0.00189787
-3.32491e-06
0.000546492
0.000261701
-0.0546634
-0.171069
0.0317229
0.0604917
-0.0116079
9.1339e-06
0.303912
9.51135e-06
3.83149e-05
2.01754e-05
-0.0388786
0.00286798
0.00235881
3.77927e-06
0.0817976
0.000227477
0.00954157
-1.29968e-05
0.00152818
0.000416465
0.00245654
0.000701769
0.00366744
6.74824e-05
0.00392164
0.00161152
7.05321e-06
-0.00687152
0.003963
0.00612087