/*--------------------------------*- C++ -*----------------------------------*\
| =========                 |                                                 |
| \\      /  F ield         | OpenFOAM: The Open Source CFD Toolbox           |
|  \\    /   O peration     | Version:  v2012                                 |
|   \\  /    A nd           | Website:  www.openfoam.com                      |
|    \\/     M anipulation  |                                                 |
\*---------------------------------------------------------------------------*/
FoamFile
{
    version     2.0;
    format      ascii;
    class       volScalarField;
    location    "150";
    object      k;
}
// * * * * * * * * * * * * * * * * * * * * * * * * * * * * * * * * * * * * * //

dimensions      [0 2 -2 0 0 0 0];


internalField   nonuniform List<scalar> 
13851
(
0.000149654
0.0147742
0.000180928
0.00014883
0.000180842
0.000213987
0.000144736
0.000169202
0.000140133
0.00018557
0.00445154
0.0131474
0.000135741
0.0315619
0.000143483
0.000160802
0.000152627
0.000157649
0.000211786
0.000139948
0.000148385
0.000180217
0.000189135
0.000169705
0.000198084
0.000169652
0.000151797
0.00143771
0.000149348
0.000151533
0.000228847
0.000153106
0.000180009
0.00510688
0.000163046
0.000202104
0.000218198
0.000196914
0.000188067
0.00501088
0.000141877
0.000138517
0.00553529
0.00465508
0.00473909
0.016885
0.00487026
0.00300809
0.000152191
0.000588569
0.000180468
0.000192464
0.00694425
0.000144662
0.00015028
0.000139025
0.000155923
0.0107896
0.000151132
0.000144825
0.000196682
0.0117782
0.000187366
0.000183814
0.000220987
0.000152097
0.000230992
0.00523916
0.000161893
0.000157505
0.00985584
0.000249856
0.0149502
0.00014535
0.000140756
0.000142529
0.00017953
0.00916526
0.000169863
0.0111317
0.000145994
0.00279182
0.00014277
0.0139567
0.00018703
0.0117463
0.000182003
0.0351592
0.000153422
0.000148046
0.000201941
0.000140876
0.00537201
0.000156178
0.000153156
0.000182821
0.000181461
0.0123436
0.000973187
0.000186084
0.0232789
0.000171975
0.000146422
0.000151493
0.000174448
0.000209605
0.000174526
0.000136337
0.000185906
0.000230378
0.000182134
0.000148173
0.000175941
0.000187937
0.000178597
0.0148709
0.0113287
0.000134659
0.000161118
0.000153933
0.00526449
0.000151298
0.000142236
0.00123956
0.00520912
0.000155594
0.00620631
0.000170903
0.000147839
0.000190697
0.00014178
0.000139259
0.0110902
0.0001428
0.0156073
0.000140529
0.000134599
0.000251264
0.0300855
0.0408317
0.0220113
0.000149822
0.000155494
0.000146572
0.000149831
0.00465845
0.000180681
0.000190972
0.000144621
0.00483692
0.000183154
0.000151061
0.0312864
0.000155054
0.000149285
0.000149674
0.000140729
0.000149494
0.000192263
0.000179973
0.000144572
0.000156285
0.010035
0.000139195
0.000156045
0.000142658
0.00018473
0.000162298
0.000147489
0.0101053
0.0086355
0.00013771
0.000140789
0.0392479
0.000139129
0.00296309
0.000170035
0.000150168
0.000213117
0.000137862
0.000154093
0.000252745
0.000142839
0.000181463
0.000138124
0.000184557
0.000152445
0.000145686
0.000183119
0.000185142
0.00497064
0.00799567
0.000149873
0.000161859
0.0113784
0.000148927
0.000153331
0.00487346
0.000149836
0.000142692
0.000155347
0.0258724
0.00017021
0.000141938
0.000179787
0.000142898
0.0298457
0.000152885
0.0150224
0.000140696
0.00494623
0.000145976
0.00381286
0.000136841
0.000145368
0.0041936
0.000181307
0.0155129
0.000142953
0.0152496
0.000153115
0.00014625
0.0067907
0.000190777
0.0108346
0.000194987
0.000158148
0.000179281
0.0103712
0.000137301
0.000168906
0.00022759
0.000137568
0.000149757
0.000178284
0.000167615
0.0252051
0.000234732
0.000146534
0.000142019
0.000221086
0.00689008
0.000151543
0.000181641
0.000164638
0.0147062
0.000172437
0.00549966
0.000149839
0.000153771
0.00016295
0.00678035
0.000145766
0.000149986
0.00017325
0.0118575
0.000183147
0.000251077
0.00495426
0.000143545
0.000145431
0.000156397
0.00160267
0.000148462
0.000193182
0.000148892
0.000145606
0.000155615
0.00417574
0.00118045
0.000160671
0.000149278
0.000758085
0.00016852
0.000160185
0.000139312
0.00275847
0.00104618
0.00833951
0.0044825
0.000151645
0.000139635
0.000171657
0.000172117
0.00136688
0.00415027
0.000141076
0.00014367
0.000626327
0.00203389
0.000193099
0.000150578
0.000144848
0.000163617
0.00217438
0.000192897
0.000155345
0.0162678
0.000139429
0.0134829
0.000155849
0.000152435
0.00712408
0.000143709
0.000201554
0.0113485
0.000140836
0.000168183
0.000156307
0.000150158
0.0325174
0.000155577
0.000145386
0.00895089
0.000139627
0.000154095
0.000156747
0.00409961
0.000193555
0.000142954
0.000172934
0.000143201
0.00728614
0.00019716
0.000184949
0.000142409
0.000192791
0.000157502
0.000149125
0.000143699
0.000143585
0.000145145
0.00454629
0.0310203
0.0104477
0.00016201
0.00364226
0.00376154
0.000143191
0.00016233
0.000193131
0.000210018
0.000175601
0.000190007
0.000212839
0.000162386
0.00347455
0.0120437
0.000143635
0.000565664
0.000633236
0.000211691
0.000149112
0.000176946
0.0108517
0.000140937
0.00418046
0.00014239
0.000143286
0.000159533
0.000136709
0.000140375
0.00976139
0.00431657
0.000142526
0.000167217
0.000141653
0.0238583
0.000164766
0.00494823
0.0102156
0.000142559
0.000185145
0.000156385
0.00424384
0.000141421
0.000134786
0.000178827
0.0236361
0.000143083
0.0356646
0.000141391
0.000191559
0.0107162
0.00323624
0.00309202
0.000154749
0.000139471
0.000147958
0.000160406
0.000172706
0.0336481
0.000162385
0.00744888
0.0112946
0.000141751
0.000143598
0.0103908
0.0117259
0.000222456
0.0103677
0.000210847
0.000157033
0.000194381
0.00118104
0.000138981
0.000160392
0.000153493
0.000144214
0.000176365
0.000140696
0.000142597
0.000183295
0.000171006
0.00863651
0.000158465
0.000174204
0.000158478
0.00679501
0.000154931
0.000216241
0.000152038
0.00419697
0.00013458
0.000140485
0.000196569
0.000204363
0.00420708
0.000189977
0.000157529
0.00759289
0.00518221
0.000180749
0.000156398
0.000178825
0.000141325
0.00658005
0.000176322
0.000195906
0.00621989
0.000178961
0.0136664
0.000152486
0.000834213
0.0066197
0.0256359
0.000135926
0.000158363
0.000170578
0.00153755
0.000138397
0.000145172
0.000181746
0.000191198
0.000163022
0.0393575
0.00019342
0.000142853
0.00835487
0.000156815
0.000138932
0.0438597
0.00013943
0.000149502
0.00013896
0.000164415
0.000148578
0.000139893
0.000152017
0.00720033
0.000142822
0.000163899
0.000139869
0.000165251
0.00250893
0.000186225
0.00014171
0.00018906
0.000191681
0.00472868
0.000145529
0.000189298
0.000142859
0.000182589
0.0245837
0.013122
0.000143058
0.000170381
0.000155063
0.00673955
0.0142103
0.000142864
0.00450605
0.000141544
0.000180749
0.000144394
0.0121776
0.000136881
0.0066229
0.000182419
0.000138695
0.000176249
0.0117567
0.000169569
0.00388933
0.000156589
0.00900636
0.000152878
0.000138913
0.000139409
0.000144351
0.014183
0.000177917
0.000193516
0.000215329
0.000179085
0.000145355
0.00171656
0.00536754
0.000154278
0.000156484
0.00664725
0.00469287
0.00183706
0.000149554
0.012754
0.0170558
0.0245389
0.000156305
0.000185858
0.00108455
0.000990961
0.0128722
0.00439088
0.00133356
0.000149864
0.00143928
0.000239857
0.000134986
0.000873065
0.000178544
0.0109343
0.000150155
0.000141997
0.000140602
0.000141747
0.000182704
0.000164693
0.0293477
0.0397344
0.000139955
0.00749731
0.0127803
0.000221788
0.00635846
0.000163417
0.000137592
0.00014035
0.000378355
0.00199276
0.00014949
0.000186628
0.000200955
0.000138883
0.000164966
0.00721707
0.000204903
0.000189152
0.0145569
0.000238119
0.000141646
0.000144309
0.0353405
0.0118013
0.000194271
0.000162255
0.000198938
0.000137473
0.000141079
0.000194957
0.000138056
0.000150003
0.000137769
0.000139463
0.000215216
0.00018285
0.000155131
0.000137956
0.0387419
0.00457695
0.000139513
0.000151196
0.000148511
0.000147281
0.0224589
0.00496852
0.0045783
0.0234845
0.00913418
0.000160895
0.0092513
0.0138788
0.000165757
0.000162224
0.000137608
0.000156698
0.000162044
0.00392057
0.00189314
0.000186104
0.000157258
0.000139614
0.000160474
0.000157465
0.00462233
0.000179909
0.000142813
0.000162691
0.000138341
0.000155369
0.000190315
0.000144648
0.000141219
0.000164859
0.000144258
0.000181154
0.000203995
0.000189816
0.000160751
0.000195313
0.000139466
0.000207316
0.000171349
0.0210537
0.000145676
0.000179943
0.000193497
0.000150615
0.0114976
0.0136291
0.0139903
0.043355
0.000138856
0.000251744
0.000153303
0.000139455
0.000136796
0.000139509
0.000164162
0.000159623
0.000163361
0.000137294
0.00517137
0.000184272
0.00657504
0.000140379
0.000139988
0.000166267
0.000192572
0.0115651
0.000174248
0.000155691
0.000153498
0.000184373
0.000148279
0.000141118
0.000206767
0.0343037
0.000144114
0.000137226
0.000144444
0.000141043
0.000225148
0.00867529
0.000160877
0.012224
0.00862171
0.000141139
0.000192966
0.0254485
0.000163282
0.0107445
0.000145859
0.00015664
0.000173694
0.000157302
0.00356245
0.000142997
0.000666362
0.000178421
0.000159436
0.0147765
0.000143922
0.000149212
0.000199739
0.000138992
0.000153464
0.000757926
0.0384042
0.000179266
0.000195863
0.00412903
0.000136959
0.000140262
0.0234938
0.000200601
0.000169192
0.0124676
0.000140415
0.000160564
0.00013504
0.00911186
0.000230577
0.000153619
0.000144626
0.0027897
0.000151999
0.000164135
0.00767359
0.0168614
0.0137319
0.000139432
0.000144092
0.00926003
0.00514133
0.000198758
0.000154526
7.49196e-05
0.000142885
0.00374989
0.000191749
0.000180119
0.00015276
0.0140687
0.000156188
0.000158378
0.000216708
0.000176416
0.000168388
0.000148976
0.000139339
0.00843673
0.000159961
0.000189741
0.000154939
0.00157685
0.000139757
0.00120508
0.00016021
0.000155862
0.000142107
0.000140978
0.000143269
0.0118401
0.000140469
0.000135985
0.00973772
0.000144437
0.0110337
0.000185215
0.000156437
0.000180414
0.000231133
0.00529477
0.000141126
0.000486944
0.0120187
0.000145699
0.0051476
0.000159136
0.000139093
0.00036592
0.00634022
0.000332627
0.000153984
0.000140819
0.000136454
0.00654383
0.000182492
0.00017111
0.000154851
0.000340532
0.000147858
0.000155782
0.000186847
0.00259911
0.000182565
0.0020988
0.000143973
0.000181129
0.000183561
0.00270666
0.000153446
0.0333924
0.000210207
0.000144543
0.01891
0.000202288
0.0110996
0.039073
0.0115473
0.00534886
0.000166126
0.000139205
0.000159711
0.0117146
0.0164138
0.000142323
0.000190671
0.000178814
0.00128439
0.000138044
0.00678037
0.000140105
0.000142696
0.00877219
0.00912824
0.00447812
0.000139433
0.000143396
0.0060986
0.000205983
0.000192657
0.000155878
0.0113975
0.000202696
0.0109379
0.000174057
0.000166639
0.000145364
0.000144363
0.0164868
0.000172731
0.0114096
0.000227086
0.000161948
0.00912476
0.0112559
0.011693
0.00014339
0.000159615
0.000139461
0.000161215
0.000149022
0.0167381
0.000160612
0.0177372
0.000137516
0.000179795
0.000141095
0.000195414
0.000161437
0.000159218
0.0123717
0.000168433
0.000165411
0.000174224
0.000179622
0.00289834
0.000195536
0.000150166
0.00879283
0.000148024
0.0415953
0.00496096
0.00014404
0.00705672
0.0239771
0.0116575
0.00533644
0.000207899
0.000141944
0.0134475
0.000161058
0.0158677
0.0153263
0.000140326
0.000149033
0.000204387
0.0033514
0.0306952
0.000143784
0.000143517
0.0338818
0.0148775
0.000189266
0.000153389
0.000152082
0.00498052
0.0111084
0.000184102
0.00013601
0.000166495
0.000139025
0.000163426
0.00159985
0.000195429
0.000123707
0.00646378
0.000142713
0.000156154
0.000142115
0.000149104
0.0096231
0.0114508
0.000158018
0.0345351
0.0001411
0.000158006
0.000141737
0.000139092
0.00014344
0.000142615
0.0121327
0.000143054
0.00017358
0.000143391
0.000154167
0.0016443
0.00473915
0.00015805
0.0381753
0.000172623
0.00021733
0.000160508
0.000160871
0.0102306
0.0001554
0.000165982
0.0174637
0.00888185
0.00752785
0.000165896
0.00478202
0.000145188
0.000167269
0.000172583
0.0317522
0.000147395
0.0333867
0.000140186
0.000140452
0.0336755
0.000152611
0.000210316
0.000153135
0.000139471
0.000161902
0.000139488
0.000143437
0.000155858
0.000145573
0.000209806
0.000140398
0.000205338
0.010632
0.000176466
0.0357107
0.00014424
0.000166238
0.000158195
0.000141776
0.000139369
0.000182912
0.000146544
0.00014127
0.000144869
0.000196778
0.0108015
0.0360283
0.000197526
0.0112874
0.000208511
0.000141014
0.00509733
0.000157093
0.0001403
0.00597888
0.000126167
0.00684042
0.000141103
0.00477123
0.00293976
0.0132548
0.00013765
0.000138564
0.000159226
0.000151536
0.000156644
0.000140237
0.00609702
0.000200276
0.00468683
0.000143399
0.000142516
0.00766952
0.000144161
0.000225455
0.00526444
0.0157418
0.000216444
0.00526523
0.000187582
0.000142195
0.000182977
0.000165333
0.000151472
0.000193374
0.000166956
0.000146763
0.000151252
0.0391704
0.000141537
0.0102611
0.00023523
0.0158007
0.000200232
0.000149591
0.000145656
0.00014403
0.00612456
0.0059094
0.000137652
0.000181578
0.00014326
0.000181885
0.000139388
0.000142846
0.000146431
0.000160985
0.000227186
0.000166099
0.000161773
0.000143712
0.000174107
0.000139261
0.000147872
0.0177035
0.000124233
0.000183512
0.000142172
0.000168941
0.000141928
0.000187528
0.000143706
0.00916599
0.000193241
0.00238967
0.000151582
0.00353612
0.000142319
0.000178096
0.00014367
0.00460647
0.0133835
0.00014378
0.000160641
0.000173369
0.0140665
0.000188535
0.0228762
0.000163521
0.0376752
0.000181703
0.00115103
0.000187119
0.000182824
0.000204433
0.0133498
0.00537105
0.0277975
0.000156443
0.000201079
0.000139211
0.000150321
0.000154766
0.000144136
0.0135855
0.000157942
0.000156061
0.00523654
0.000197077
0.00409629
0.000143073
0.000150886
0.000154189
0.000146411
0.000161392
0.0291941
0.00905113
0.00349923
0.00014023
0.00015552
0.000158425
0.00438486
0.00823191
0.000182409
0.000145687
0.000146174
0.0131607
0.000168859
0.00102985
0.00548436
0.000253373
0.000142037
0.000238256
0.000160642
0.000168041
0.000157089
0.00557596
0.00584205
0.000189412
0.000200838
0.000146759
0.000161643
0.000142788
0.00735413
0.000169331
0.0130206
0.00279404
0.000154544
0.000196503
0.000148776
0.0042662
0.00020641
0.000170073
0.000215535
0.0150057
0.00028738
0.000210806
0.000144638
0.00014231
0.00952302
8.42676e-05
0.0116249
0.00015135
0.000144382
0.000142632
0.0110112
0.000197852
0.000145421
0.00032385
0.000183569
0.0140612
0.000239682
0.00526531
0.000143439
8.55982e-05
0.000152525
0.000141613
0.000195293
0.0122649
0.000144751
0.000140233
0.00377426
0.00382309
0.000155746
0.000140136
0.0352416
0.000165501
0.000397865
0.000140247
0.00830617
0.000142233
0.000173983
0.00656131
0.0067687
0.000148338
0.00697124
0.00616593
0.00497231
0.000219448
0.0371435
0.000243586
0.000141416
0.000126822
0.000186633
0.000143183
0.000146481
0.00660223
0.000141054
0.000216088
0.000140306
0.000161381
0.00888009
0.000178134
0.000124294
0.000149048
0.000169202
0.000139342
0.000160936
0.000247593
0.0244813
0.000140233
0.000178351
0.00570504
0.000143435
0.000140559
0.0141734
0.00016221
0.000162112
0.000192974
0.0445622
0.0169112
0.000247953
0.000209736
0.00028838
0.00432741
0.00585409
0.0159126
0.000178144
0.000147361
0.000193287
0.000141315
0.000141456
0.0371618
0.0144977
0.000149643
0.0355299
0.000217931
0.0101801
0.000170777
0.000215001
0.000141512
0.000214117
0.000299978
0.000152226
0.000148616
0.00925543
0.0132416
0.0169111
0.0014436
0.000163535
0.0181015
0.00845336
0.000160449
0.000145317
0.000140675
0.00252237
0.000140428
0.000207124
0.000149145
0.000146941
0.000150095
0.000162941
0.00236479
0.0177781
0.00014474
0.000238285
0.000152914
0.000157647
0.00014055
0.000169493
0.0106548
0.000155324
0.0142226
0.0231388
0.000214754
0.00019166
0.000143991
0.000165086
0.000143653
0.000197771
0.000148778
0.000148869
0.000144361
0.000150386
0.000198031
0.000147238
0.000162152
0.000153125
0.000162584
0.000196443
0.0099588
0.000140852
0.000170668
0.000182162
0.000197973
0.000174096
0.00404751
0.000206693
0.000160308
0.000151164
0.000149878
0.000234537
0.000141597
0.00177305
0.000143555
0.000143645
0.000153096
0.0107048
0.000155492
0.000151254
0.000180648
0.000193129
0.000179386
0.0106655
0.000197709
0.000163248
0.000142875
0.000254673
0.000147713
0.000143014
0.000199454
0.0174624
0.000185386
0.00015838
0.000187284
0.00023528
0.000145768
0.00014682
0.0177446
0.000148506
0.000431493
0.000208764
0.000656953
0.000142277
0.000183793
0.00014199
0.0116501
0.000195941
0.000166753
0.000191753
0.0184752
0.000148252
0.000353277
0.00123144
0.00014342
9.8948e-05
0.000183549
0.000149433
0.0115439
0.00014394
0.000142447
0.000139544
0.000196499
0.000231194
0.000199414
0.000148911
0.000148073
0.000159113
0.00474952
0.000213679
0.00204555
0.00513903
0.000146937
0.000196127
0.000190614
0.0089092
0.00018074
0.001664
0.000140496
0.000175983
0.000140376
0.0184728
0.000162384
0.000141954
0.0374155
0.000202943
0.000160481
0.000217231
0.000141115
0.0001935
0.000172623
0.000161747
0.00811608
0.000178025
0.000178007
0.000175377
0.000188151
0.00500034
0.000151751
0.00254633
0.000140976
0.000140858
0.000206001
0.0197149
0.00812701
0.000204765
0.000166485
0.00861533
0.00532575
0.000144046
0.000154971
0.000139607
0.000167114
0.000179953
0.000351318
0.00794996
0.000213196
0.000148757
0.0108481
0.00828709
0.000143418
0.000179941
0.028757
0.00849605
0.00015124
0.000182314
0.000137302
0.000153756
0.000150915
0.000153182
0.00578828
0.0117787
0.00875729
0.0114773
0.000148853
0.000161057
0.000172165
0.000176794
0.000146272
0.000140101
0.00283127
0.00014025
0.00179513
0.000162314
0.000181028
0.000192559
0.000208998
0.00974424
0.000238129
0.000166571
0.000142324
0.000165576
0.000240989
0.000234033
0.000152724
0.000139462
0.000139476
0.000176714
0.000158677
0.000197188
0.00600135
0.000148836
0.000139814
0.000194284
0.000199862
0.00939858
0.0203343
0.000140187
0.000179698
0.000143124
0.00946769
0.000144895
0.0173039
0.000153641
0.000148637
0.000162395
0.000147228
0.000199794
0.000158575
0.000170136
0.0126479
0.0130533
0.000153361
0.000158338
0.000141493
0.000239621
0.0138502
0.000151021
0.000143995
0.00609227
0.000134615
0.0150363
0.000183805
0.000163598
0.000179089
0.0213992
0.000163191
0.00014791
0.00014461
0.000180951
0.00757215
0.000141395
0.0186573
0.0333551
0.0210603
0.000224483
0.000160513
0.010532
0.000153998
0.000205779
0.000142345
0.00506423
0.00507735
0.00985833
0.011882
0.00829917
0.000152784
0.000274184
0.000140288
0.00853005
0.00606166
0.01069
0.0118118
0.000155212
0.00379444
0.010085
0.00016143
0.000148694
0.000144557
0.0148311
0.000153656
0.000180778
0.000182249
0.000143713
0.000139066
0.000143533
0.0111546
0.000208194
0.000159245
0.0139359
0.000203362
0.000152381
0.000142495
0.000140997
0.000172652
0.0177348
0.000210697
0.000153507
0.000164244
0.00890223
0.000181141
0.000168724
0.0056833
0.000158531
0.0055385
0.000159312
0.000159129
0.000142372
0.000183682
0.000179093
0.00237393
0.0052379
0.015962
0.000178905
0.0362694
0.00015281
0.000152105
0.000195713
0.0101103
0.0203297
0.00695588
0.000189587
0.000150739
0.000142885
0.000141404
0.000143526
0.000140247
0.00695317
0.000157624
0.00738427
0.000159782
0.00952864
0.000194364
0.0132937
0.000201847
0.000154439
0.0117149
0.00016387
0.00190367
0.0166117
0.000138856
0.000648862
0.000155698
0.0237157
0.00764594
0.000161536
0.00166078
0.00549168
0.000162144
0.000174077
0.000159726
0.0182822
0.00356655
0.00015143
0.000144551
0.00517845
0.000230707
0.000190777
0.0124685
0.000192958
0.000170786
0.000144191
0.00147052
0.0175225
0.000182139
0.00015964
0.0104853
0.031377
0.000140362
0.00014326
0.000151821
0.00864676
0.00829885
0.000142837
0.0113291
0.000147076
0.000140785
0.000143634
0.0130428
0.000209871
0.000368666
0.00781732
0.000149117
0.00014877
0.000140308
0.00978126
0.000148448
0.0337861
0.00015018
0.0172783
0.000146039
0.000141293
0.000189584
0.00662671
0.00598152
0.000162563
0.00161264
0.000149895
0.000143607
0.000143313
0.000168173
0.000177395
0.000177518
0.000163357
0.000884085
0.000152144
0.000189572
0.000211384
0.00340696
0.000143888
0.0136333
0.0158714
0.000153427
0.00337457
0.000179439
0.0198931
0.000144146
0.000178492
0.000143794
0.00106924
0.00922347
0.000179227
0.00608487
0.000150499
0.000172231
0.000147756
0.01158
0.000143515
0.000139535
0.00835516
0.00018482
0.0202298
0.000245336
0.000179219
0.000157061
0.000139412
0.000562033
0.000161339
0.000151838
0.00019859
0.000155428
0.000168042
0.000142801
0.0223864
0.000150815
0.00476804
0.00532906
0.000162044
0.000234854
0.000173528
0.00886077
0.00014189
0.011412
0.0385401
0.000139591
0.000142811
0.000149063
0.000146197
0.000165322
0.000142562
0.00666906
0.000182325
0.00352775
0.000163798
0.000142897
0.000145851
0.000140578
0.000231083
0.000143728
0.000141747
0.000205146
0.000151605
0.0111564
0.00462875
0.000186354
0.000150793
0.000161214
0.000148592
0.000147018
0.00013162
0.00014489
0.000151799
0.00822609
0.0159787
0.000218228
0.000148462
0.00955124
0.0196526
0.000146373
0.00256371
0.00246052
0.000142955
0.000150854
0.000142725
0.000226314
0.0167815
0.00452699
0.000144904
0.000151473
0.000152401
0.000144522
0.000191393
0.000143246
0.000560641
0.00588564
0.00215524
0.000138914
0.000151502
0.000150926
0.0191271
0.000141478
0.0153005
0.0102686
0.000354732
0.0101865
0.0106611
0.00142461
0.00015076
0.00540726
0.00716394
0.000148308
0.000139151
0.000139864
0.00585716
0.00825426
0.0108295
0.000189753
0.00618201
0.000143984
0.000193241
0.000144254
0.000149773
0.000148065
0.000138823
0.0183668
0.000148555
0.0313638
0.0316116
0.0144804
0.000169591
0.000174034
0.0159061
0.00785458
0.000148773
0.00645904
0.000140343
0.000135358
0.00014246
0.000218111
0.00014568
0.0126527
0.000160138
0.00154817
0.000163574
0.00934869
0.0136615
0.000182971
0.000138622
0.000173082
0.000181039
0.0174493
0.000144091
0.000140403
0.000152725
0.0419977
0.000144226
0.00513436
0.0112971
0.000166943
0.000175764
0.000144019
0.00540984
0.00014554
0.0177381
0.000136546
0.00712093
0.000160191
0.000143814
0.0119839
0.0129076
0.000137337
0.000179867
0.000152146
0.0100303
0.000271458
0.000212397
0.00124135
0.000145434
0.00017258
0.0119197
0.000148316
0.000209165
0.000151468
0.000182777
0.000160888
0.0114346
0.01185
0.000143864
0.0137845
0.000148164
0.000168111
0.00665783
0.0107367
0.000161936
0.0132196
0.000202926
0.000144645
0.0050823
0.000194912
0.000159604
0.000148359
0.00856524
0.00013778
0.0185663
0.000724243
0.000187761
0.000143004
0.000161083
0.0130966
0.000168484
0.0104955
0.000147111
0.000151094
0.000198517
0.00603792
0.000154831
0.00909976
0.00887994
0.0133257
0.000143644
0.0043328
0.000116602
0.0200089
0.000143285
0.000159629
0.000142249
0.00878465
0.000259051
0.00577647
0.00361048
0.000145489
0.000144838
0.000143071
0.019103
0.000253051
0.024045
0.0141744
0.000140252
0.0116218
0.00332275
0.000194327
0.00872396
0.013466
0.000162253
0.0176019
0.00015053
0.000154347
0.000225452
0.000134786
0.000162369
0.0332768
0.000144239
0.00014313
0.0150836
0.0119514
0.0003698
0.00857666
0.000159148
0.000145604
0.000154492
0.00105817
0.0121457
0.000141519
0.000170872
0.00264065
0.000143414
0.000143574
0.000571243
0.026968
0.000149427
0.00014357
0.000148054
0.000148233
0.00893757
0.000146055
0.000144286
0.000153694
0.00021626
0.0297918
0.00275821
0.0111519
0.000143907
0.000152404
0.0139345
0.00477178
0.000156514
0.000209806
0.000142859
0.000163166
0.000147803
0.000163999
0.000178161
0.000143399
0.000812077
0.000160048
0.000141936
0.000151871
0.000113384
0.037956
0.0115082
0.000143481
0.000163216
0.00404271
0.00913427
0.000151722
0.000143695
0.000143924
0.00457821
0.000143635
0.000154793
0.00015641
0.000142712
0.0142966
0.000222179
0.000145225
0.000151669
0.000143898
0.000143249
0.0414842
0.0065055
0.000179547
0.00946557
0.000174589
0.00014603
0.000142718
0.000143745
0.000141991
0.000145197
0.000160333
0.000179648
0.00814467
0.000149699
0.000187573
0.0114646
0.000894199
0.000141511
0.000139607
0.000150803
0.00932096
0.000141709
0.000221399
0.000214909
0.000178949
0.00015522
0.00844765
0.000147104
0.000154321
0.0001385
0.000147341
0.000144408
0.000143208
0.00018074
0.000147234
0.000241923
0.000164889
0.000228199
0.00701199
0.0204537
0.000160404
0.0121039
0.00926454
0.000186935
0.00584686
0.000644537
0.000190783
0.00454619
0.000146086
0.000146179
0.0456358
0.000140519
0.000151861
0.0322142
0.000724674
0.031411
0.00020945
0.000140266
0.000188685
0.000143421
0.000461612
0.000144217
0.0016048
0.0221241
0.00363679
0.00583212
0.000143303
0.000138803
0.000180706
0.037612
0.0146668
0.000188921
0.000228061
0.000139879
0.000237124
0.0160571
0.0002975
0.000151081
0.000143468
0.000149188
0.000149987
0.000142648
0.000142072
0.000151483
0.0140083
0.000181355
0.0137447
0.00762138
0.000207168
0.000202261
0.000142311
0.000150738
0.000150031
0.000140069
0.000145864
0.00559521
0.00155125
0.0106724
0.00693822
0.000150786
0.0149782
0.000191704
0.00818959
0.0168469
0.000143038
0.00014271
0.00497541
0.00014319
0.00013761
0.00591949
0.014479
0.000245787
0.000142971
0.00014367
0.000151772
0.000164354
0.00012785
0.000140482
0.000151727
0.000209791
0.000156387
0.00640342
0.000164089
0.0263343
0.000145587
0.00021201
0.0376841
0.000161895
0.000962029
0.000189115
0.0146706
0.000145818
0.000152965
0.000140162
0.000158162
0.0149308
0.000193746
0.00888872
0.000148738
0.000147085
0.000143659
0.00975292
0.000168695
0.000188384
0.00624813
0.000139952
0.000166125
0.0125612
0.000173394
0.000146751
0.000152137
0.000143107
0.000172053
0.000143374
0.000142898
0.0111967
0.00160528
0.0101687
0.000220826
0.000214098
0.0145956
0.000181249
0.00614279
0.00018961
0.000144654
0.00017697
0.00013462
0.000143831
0.00117603
0.0012881
0.000146209
0.00747362
0.0152178
0.000158519
0.000149077
0.000163008
0.00918358
0.000507583
0.0143368
0.00311149
0.0148395
0.000134843
0.000203176
0.00018564
0.00538284
0.000215644
0.000142741
0.000194848
0.0134321
0.000160131
0.0356345
0.000144738
0.00163464
0.0140907
0.0171893
0.000182563
0.000159471
0.00896221
0.000195533
0.0182013
0.0142481
0.0141199
0.00019041
0.00108163
0.000143742
0.000159253
0.00017022
0.0119767
0.00533751
0.0148281
0.000160987
0.00018844
0.000178345
0.000171533
0.000729002
0.000142931
0.000193876
0.0109657
0.000143036
0.0094878
0.00815266
0.0169155
0.004953
0.000204682
0.00584978
0.000141586
0.00128773
0.000148106
0.000146483
0.000166844
0.000151301
0.0164809
0.000151725
0.000163489
0.000151687
0.00014295
0.0010959
0.000149264
0.000191328
0.00442817
0.00013882
0.015744
0.000185772
0.000149014
0.0125963
0.000205918
0.000142999
0.000235224
0.000146944
0.0147715
0.00781613
0.000146605
0.00019323
0.000149409
0.00127026
0.0151619
0.000180225
0.0199158
0.000153372
0.00014397
0.0263394
0.000151884
0.000142386
0.000243157
0.000167405
0.000139866
0.000141703
0.00019055
0.00014893
0.0107208
0.000203947
0.000614246
0.0189789
0.000174306
0.000176708
0.000141895
0.00139781
0.00995705
0.0214089
0.000143319
0.000144713
0.000179522
0.000158673
0.00390394
0.000142544
0.00180785
0.000143016
0.000235443
0.000152822
0.00185596
0.00019703
0.000191226
0.0157158
0.0240496
0.00331233
0.0146398
0.000135553
0.000225053
0.000227983
0.0113937
0.000148338
0.000196763
0.0094723
0.0124581
0.000192189
0.000211106
0.000383309
0.001747
0.000170292
0.000204386
0.000138747
0.000170628
0.000168512
0.000142676
0.000180583
0.0196345
0.000690987
0.0134652
0.000235257
0.000141481
0.000140096
0.00015656
0.000142715
0.00775703
0.000140619
0.000140443
0.00312196
0.000207418
0.000162716
0.000186085
0.000173251
0.000183681
0.00907801
0.0160589
0.00977875
0.000154212
0.0156506
0.000149646
0.000139551
0.000150471
0.0129133
0.000211716
0.000202268
0.000207465
0.000148037
0.000141108
0.000142691
0.000146224
0.000155339
0.0235201
0.000233226
0.000157308
0.000802571
0.0105537
0.00758417
0.0224651
0.000143302
0.000158414
0.000843406
0.000143275
0.000218114
0.000155412
0.000151598
0.0114009
0.0162651
0.000140855
0.000166816
0.000158222
0.000179173
0.020812
0.00842163
0.00235117
0.000144531
0.000184959
0.00641774
0.000184173
0.000192866
0.00789426
0.00823103
0.00054254
0.00799838
0.000139967
0.000972105
0.000145603
0.000148817
0.00014261
0.000175807
0.000434917
0.00872404
0.00141165
0.0115218
0.000174483
0.000136984
0.000139537
0.000143627
0.000157973
0.000168351
0.00281413
0.0128005
0.000183302
0.00847613
0.000143865
0.000174398
0.000139062
0.0173675
0.000177319
0.000144056
0.000193333
0.000186376
0.00542836
0.0142249
0.000190598
0.00601601
0.000152573
0.0219851
0.000205113
0.000228351
0.00643989
0.000149
0.000174283
0.000143499
0.00261211
0.00846657
0.000166008
0.0309507
0.000203489
0.0298399
0.000177977
0.000203265
0.000167495
0.000139951
0.00019392
0.000175416
0.000151916
0.000174211
0.000159361
0.000160594
0.0135945
0.000198592
0.000149745
0.000158576
0.000163678
0.000159666
0.000149684
0.00829208
0.000187307
0.00232168
0.012575
0.000142967
0.0161567
0.00014379
0.000152067
0.000150368
0.0157756
0.000163467
0.0191902
0.0253175
0.000175737
0.000187191
0.000192207
0.0370275
0.000196017
0.0199547
0.000165242
0.00017024
0.000146631
0.0179408
0.00426553
0.000167
0.000186583
0.000163025
0.000154552
0.000151958
0.000172261
0.000166738
0.000144209
0.00016088
0.0166913
0.0261394
0.000203972
0.000166881
0.000140203
0.0348237
0.00016087
0.000178846
0.00613176
0.000168947
0.0146725
0.000138083
0.000160768
0.000151886
0.000160464
0.00014156
0.0176506
0.00325139
9.4513e-05
0.000162721
0.000895367
0.000208214
0.000154273
0.0354274
0.000179231
0.000206675
0.0109782
0.000171941
0.00015162
0.000167356
0.000178088
0.000155885
0.000210858
0.0148881
0.00496446
0.000139976
0.000209847
0.000213752
0.00648562
0.000142235
0.00016861
0.000144229
0.000158873
0.00126893
0.000157865
0.000157619
0.000139917
0.000139863
0.000257845
0.0126678
0.000142288
0.000413639
0.000205135
0.000137263
0.000161719
0.0180972
0.000187997
0.000186719
0.000142964
0.000155729
0.000190571
0.000186017
0.000140809
0.0163124
0.000157985
0.0174374
0.000184567
0.000154761
0.000450649
0.000189503
0.00019301
0.000140099
0.00535314
0.000159131
0.000155186
0.0409012
0.00016643
0.000143427
0.000183218
0.00015241
0.000159823
0.000141531
0.00124627
0.000142691
0.000174209
9.75915e-05
0.000185457
0.000143078
0.000207155
0.000159588
0.0211949
0.000200043
0.0138782
0.000187297
0.0170295
0.000139111
0.000180993
0.000154022
0.000141248
0.00398615
0.000166098
0.000153451
0.0043255
0.00015853
0.000179576
0.0142262
0.00015465
0.00722709
0.0175118
0.0307915
0.0383599
0.000224844
0.000253063
0.000140197
0.000174464
0.00016189
0.0106244
0.0266968