/*--------------------------------*- C++ -*----------------------------------*\
| =========                 |                                                 |
| \\      /  F ield         | OpenFOAM: The Open Source CFD Toolbox           |
|  \\    /   O peration     | Version:  v2012                                 |
|   \\  /    A nd           | Website:  www.openfoam.com                      |
|    \\/     M anipulation  |                                                 |
\*---------------------------------------------------------------------------*/
FoamFile
{
    version     2.0;
    format      ascii;
    class       surfaceVectorField;
    location    "150";
    object      Uf_0;
}
// * * * * * * * * * * * * * * * * * * * * * * * * * * * * * * * * * * * * * //

dimensions      [0 1 -1 0 0 0 0];


internalField   nonuniform List<vector> 
20537
(
(0.997922 0.00319173 0)
(0.998016 0.00380063 2.2163e-23)
(0.997307 0.00355686 1.44972e-22)
(0.572883 -0.0418935 9.59221e-23)
(0.655028 -0.0587933 -1.07156e-21)
(0.657896 -0.0927165 -4.48043e-22)
(1.01471 -0.0663244 -7.57074e-21)
(1.01282 -0.0664031 -3.55288e-22)
(1.01349 -0.0682505 -9.59237e-21)
(0.999 0.00434167 -1.80268e-23)
(0.998351 0.00419877 4.68387e-22)
(0.998699 0.00486523 -8.86517e-23)
(1.03111 -0.0578698 7.29824e-21)
(1.03035 -0.0585529 7.90494e-21)
(1.03029 -0.0574864 -6.46126e-21)
(0.978558 -0.0243906 3.14526e-21)
(0.986625 -0.0228156 9.20459e-24)
(0.982786 -0.0172231 -3.22112e-21)
(1.02162 -0.00526992 -4.88593e-21)
(1.02195 -0.00559965 -4.24614e-21)
(1.02206 -0.00516708 2.53844e-21)
(1.01408 -0.0513248 -5.3085e-21)
(1.01508 -0.0502975 7.56667e-21)
(1.01542 -0.0518971 -1.4626e-20)
(1.02828 0.00885763 0)
(1.0288 0.00929505 2.13602e-22)
(1.02888 0.00882743 0)
(0.981175 -0.0656377 -1.49052e-21)
(0.981539 -0.062255 0)
(0.984915 -0.064431 -3.329e-21)
(1.03608 0.0100377 9.22622e-22)
(1.01955 0.0197091 -2.33698e-21)
(1.04553 0.0276912 3.11445e-21)
(0.644041 -0.142045 3.4824e-21)
(0.635696 -0.157391 -3.50172e-21)
(0.559817 -0.156668 2.9098e-21)
(1.04096 -0.059511 -3.0784e-21)
(1.04 -0.0599228 1.72742e-20)
(1.04021 -0.0587359 1.34966e-20)
(0.0280888 0.0589411 -1.99096e-20)
(0.031624 0.0608219 9.72074e-21)
(0.0131864 0.0600408 8.85444e-21)
(1.01465 -0.000795657 4.88859e-21)
(1.01477 -0.000742526 1.28858e-23)
(1.01478 -0.000906629 3.62468e-23)
(1.003 -0.035661 2.61777e-21)
(1.00383 -0.0363515 4.19907e-21)
(1.00256 -0.0368318 -6.59716e-22)
(1.01723 -0.0281482 3.45117e-22)
(1.0167 -0.0274419 -2.03556e-21)
(1.01771 -0.0273905 -4.36835e-21)
(0.986489 -0.014017 8.63819e-24)
(0.987742 -0.0148195 -9.97374e-23)
(0.986131 -0.0154899 -7.40809e-22)
(1.04281 -0.0631203 -1.73327e-21)
(1.0427 -0.0640456 8.06065e-21)
(1.04221 -0.0634097 1.1589e-20)
(1.02776 0.00843173 -1.19693e-22)
(1.02767 0.00889366 0)
(0.999574 0.00467619 -1.55705e-23)
(0.999344 0.0038364 -3.67036e-25)
(1.01636 -0.0645724 -6.3775e-21)
(1.01707 -0.0663803 8.5068e-21)
(1.02315 -0.000670411 0)
(1.02479 -0.000563618 -2.12083e-22)
(1.02708 -0.00051849 0)
(1.02192 0.000620759 3.15374e-22)
(1.01785 0.000387444 2.19833e-22)
(1.02282 0.000610535 3.34278e-23)
(1.02132 -0.000352804 5.07766e-23)
(1.01728 -0.000575517 0)
(1.0126 -0.0510417 6.96045e-23)
(1.01309 -0.0527157 5.46784e-21)
(1.02884 -0.0249995 -7.79443e-21)
(1.02883 -0.0242189 -5.52772e-22)
(1.02812 -0.02465 -8.17634e-21)
(0.00284841 -0.0511252 1.14392e-20)
(0.00681056 -0.0471375 -1.05546e-20)
(0.99842 0.00281613 0)
(0.997693 0.00246255 0)
(1.00026 -0.0170227 2.23585e-21)
(1.00056 -0.0178518 8.65197e-22)
(0.999531 -0.0174183 7.79101e-22)
(0.96993 -0.0240688 -7.18086e-24)
(0.974035 -0.0316328 -4.39395e-21)
(1.01663 -0.0289536 2.12328e-21)
(1.01776 -0.0289452 -1.61628e-21)
(1.01186 -0.064739 -4.8191e-23)
(1.01054 -0.0667101 6.3267e-21)
(0.812425 -0.0467221 4.89386e-21)
(0.809969 -0.0275012 6.50338e-22)
(0.816162 -0.0362992 1.80307e-21)
(1.02128 0.000656435 -5.83855e-22)
(1.02375 0.000983514 -4.72287e-22)
(1.03628 -0.0534178 0)
(1.03615 -0.0537131 -6.21605e-21)
(1.03564 -0.0533543 7.30671e-21)
(1.03536 -0.0515918 1.15246e-20)
(1.03582 -0.0517105 1.96769e-20)
(1.03545 -0.0521061 1.02965e-21)
(1.03534 -0.0768529 4.94785e-21)
(1.03698 -0.0753136 6.30284e-21)
(1.0343 -0.0752081 -9.88154e-21)
(0.977978 -0.0667498 -1.08239e-21)
(0.981532 -0.0695843 5.96604e-23)
(0.82172 -0.0607749 -5.32715e-22)
(0.819383 -0.0607125 -8.12682e-22)
(1.00731 0.00065485 -1.65927e-21)
(1.00708 0.000899573 -1.02755e-21)
(1.00706 0.000419812 -2.19885e-22)
(1.0288 -0.00754115 4.50647e-23)
(1.02905 -0.00733339 0)
(1.02838 -0.00705627 0)
(-0.0120765 0.037274 2.37e-22)
(-0.0142502 0.0337475 -8.99589e-21)
(-0.0136355 0.0413928 0)
(0.945654 0.0316461 0)
(0.963591 0.0534604 -3.36203e-21)
(0.980908 0.042189 0)
(0.926494 0.00857993 -4.2264e-21)
(0.90963 0.0199783 1.23087e-21)
(0.0161317 -0.00361347 1.26901e-20)
(0.0534776 -0.0115197 2.55175e-20)
(0.0672643 -0.0167393 -4.01943e-21)
(0.870724 0.0472006 1.6756e-21)
(0.880486 0.0391288 -1.27225e-21)
(0.852604 0.0245583 0)
(0.816807 0.172909 1.15829e-20)
(0.829768 0.170147 -8.19416e-21)
(0.841554 0.180816 3.23687e-22)
(1.02882 -0.025793 0)
(1.02955 -0.0253281 8.86135e-21)
(1.01029 0.0195633 0)
(1.0192 0.022418 0)
(1.01558 0.0106494 1.77192e-22)
(1.03581 -0.0521145 -6.5737e-21)
(1.0361 -0.0523511 7.56246e-21)
(1.03616 -0.0518467 1.43904e-20)
(1.03787 -0.0557111 6.04819e-21)
(1.03773 -0.0554486 5.19196e-21)
(1.0381 -0.0552914 1.74615e-20)
(-0.0135157 -0.0357726 -6.33809e-21)
(-0.0118105 -0.0354421 0)
(-0.0104593 -0.0409642 1.24992e-20)
(1.01435 -0.000661483 -4.18129e-24)
(1.01396 -0.000432761 1.73117e-21)
(1.01438 -0.000732103 0)
(1.00989 -0.000139555 -1.36122e-21)
(1.0096 -0.000193982 4.08077e-22)
(1.01055 -4.55688e-05 1.08864e-21)
(1.02853 -0.00775494 1.27005e-22)
(1.02926 -0.00804776 -1.22243e-22)
(1.03119 0.000292425 4.605e-22)
(1.03184 0.000496695 -1.28376e-21)
(1.03027 0.000259887 3.28193e-22)
(-0.0118941 -0.0246435 -1.09235e-20)
(-0.0125895 -0.0197675 2.34404e-21)
(-0.00690173 -0.0222651 1.10308e-20)
(1.00105 -0.0164542 -4.34797e-22)
(0.999951 -0.016096 -1.47461e-22)
(1.02103 -0.00791937 5.40852e-21)
(1.02085 -0.00752783 -1.39158e-21)
(1.02137 -0.00758853 -1.26233e-20)
(1.0373 -0.0788141 2.17311e-21)
(1.03375 -0.0785857 -4.03833e-21)
(0.778334 -0.0488781 -5.88386e-21)
(0.770182 -0.0497544 -3.10827e-20)
(0.698821 -0.0481252 -7.14707e-21)
(0.95176 -0.00572652 -4.56635e-22)
(0.950217 0.000111581 1.13184e-21)
(0.955984 -0.00207392 3.24416e-21)
(1.03311 -0.0580883 9.23771e-21)
(1.03258 -0.0586475 -6.31243e-22)
(1.03329 -0.0588652 4.31407e-23)
(1.02885 -0.0647065 1.36813e-21)
(1.01808 -0.0680878 -1.28523e-21)
(1.01815 -0.0573306 3.17778e-22)
(0.996156 0.00559739 4.05665e-22)
(0.996655 0.00560996 -1.1605e-22)
(0.996354 0.00605994 -6.19813e-23)
(1.0343 -0.0513182 -1.07082e-21)
(1.03422 -0.0515887 3.44513e-21)
(0.865131 0.0592887 -5.33473e-22)
(0.865963 0.0530201 6.52644e-21)
(1.0326 -0.0405049 -4.3177e-22)
(1.03176 -0.0406654 7.1334e-21)
(1.03211 -0.0397642 7.12482e-21)
(0.987093 -0.012615 2.41836e-23)
(0.985361 -0.0129321 2.41003e-23)
(0.637323 -0.0219388 2.10802e-21)
(0.623563 -0.0228388 1.07504e-20)
(0.578568 -0.0179743 5.25117e-21)
(1.02691 -0.0513848 -7.7032e-21)
(1.02636 -0.0517892 -7.04219e-21)
(1.0301 -0.0520611 -7.39065e-21)
(0.514582 -0.0207683 2.60201e-21)
(0.492986 0.0115512 1.1444e-21)
(1.01452 -0.00070678 5.14477e-21)
(1.01431 -0.00064075 -4.7988e-22)
(1.01136 0.000187311 -1.77585e-21)
(1.01127 0.000160916 -1.01124e-21)
(1.01135 0.000280667 1.29506e-21)
(1.03089 0.0135567 -1.69598e-22)
(1.0315 0.0135303 -4.23593e-23)
(1.03087 0.0130106 -8.37337e-23)
(1.01757 -0.0638508 3.04793e-21)
(1.01611 -0.0637096 1.11055e-20)
(0.678775 -0.0287833 -7.78297e-22)
(0.70725 -0.0306964 9.44893e-21)
(0.678923 -0.0274914 1.58318e-20)
(1.02725 -0.0490374 -4.65385e-21)
(1.0278 -0.0497326 -4.33395e-21)
(1.02685 -0.0500213 5.45586e-22)
(0.625295 -0.0242419 1.51412e-21)
(0.582358 -0.0220115 -6.46439e-21)
(1.02133 -0.0120627 0)
(1.02074 -0.0118053 0)
(1.02121 -0.0114037 0)
(0.971223 -0.086872 -2.92165e-21)
(0.987193 -0.0866501 1.50978e-22)
(0.973185 -0.0915739 2.97291e-21)
(1.01378 -0.00435933 -1.50133e-21)
(1.01373 -0.0045976 -4.837e-21)
(1.01351 -0.00434267 -7.50832e-21)
(0.0253582 -0.00744766 7.96389e-21)
(0.059916 -0.0123167 1.2945e-20)
(0.00924898 -0.00337966 3.83791e-21)
(0.953803 -0.01049 -2.42989e-22)
(0.947282 -0.00934741 -4.35165e-21)
(0.646558 -0.12692 -2.16276e-21)
(0.712235 -0.13272 -7.01041e-21)
(0.977023 -0.00176277 1.41076e-21)
(0.978113 -0.00641645 8.49818e-22)
(0.981695 -0.00293485 0)
(0.731524 0.0710289 0)
(0.819652 0.0629679 7.27666e-23)
(0.794465 0.0587083 -4.2823e-21)
(1.02384 -0.0287593 -2.83393e-21)
(1.02294 -0.0289765 0)
(1.02365 -0.0298216 -4.16894e-21)
(1.05312 0.00250777 2.5678e-22)
(1.05193 0.0023918 6.13614e-22)
(1.05286 0.00200907 -1.25704e-22)
(1.03658 -0.0534304 0)
(1.03632 -0.0531556 0)
(1.01656 0.0511894 -1.50313e-21)
(1.01475 0.0569608 2.63986e-21)
(1.02272 0.0550839 1.74449e-22)
(0.879216 0.0757356 6.03408e-21)
(1.0252 -0.0333952 4.20667e-23)
(1.02465 -0.0339776 6.06021e-21)
(1.02552 -0.034228 -2.08134e-21)
(1.02422 -0.028056 -1.00963e-20)
(1.02487 -0.0286778 2.76438e-21)
(1.02607 0.00029683 2.40724e-23)
(1.02608 0.000199194 0)
(1.0288 0.000219881 0)
(1.03184 -0.0584317 6.56942e-21)
(1.03185 -0.0574208 -4.29537e-21)
(0.890396 -0.056997 -1.55746e-20)
(0.862662 -0.0560857 -2.38537e-20)
(0.869484 -0.0559561 -4.32413e-21)
(0.998684 0.0165984 0)
(1.00555 0.0293791 2.07351e-23)
(1.02024 0.000215719 -1.95828e-22)
(1.0259 0.000223863 2.03079e-23)
(0.0011614 0.0295647 1.89671e-22)
(0.0162911 0.0312622 -1.2285e-20)
(0.00538181 0.0331218 -3.62032e-20)
(1.03183 -0.0494657 0)
(1.03254 -0.0491833 0)
(1.03197 -0.0487033 0)
(1.00159 -0.00358635 1.05004e-21)
(1.00118 -0.00403809 1.55436e-22)
(1.00101 -0.00331803 1.06983e-22)
(1.03646 -0.0200097 -2.84858e-22)
(1.03706 -0.0205775 -1.80038e-20)
(1.0135 -0.000518635 4.62978e-23)
(1.01628 -0.000797366 1.2924e-23)
(1.0137 -0.000548751 -1.03036e-23)
(0.967613 0.00241722 -2.01424e-21)
(0.963646 0.00621248 2.43393e-21)
(0.96963 0.00816119 -1.0346e-21)
(1.03403 -0.0498338 -1.6555e-21)
(1.03348 -0.0500678 2.74949e-22)
(1.03392 -0.0505359 -1.92282e-21)
(1.02445 -0.00621405 1.92049e-22)
(1.02477 -0.00605309 1.30114e-22)
(1.02416 -0.00571872 8.52567e-23)
(1.02268 -0.0512488 -8.75049e-21)
(1.02805 -0.0509857 -2.58881e-20)
(0.992996 -0.0287793 0)
(0.993981 -0.0205101 3.08706e-22)
(1.02325 0.000433752 1.90469e-22)
(1.01818 0.000180104 -6.9445e-23)
(1.02331 0.000372981 1.54185e-22)
(1.05442 0.00266911 -2.26234e-22)
(1.05338 0.00306803 -2.36035e-22)
(1.01774 0.0470636 2.02266e-22)
(1.01156 0.0477487 -5.65364e-22)
(1.01204 0.000353288 0)
(1.01227 0.000152512 0)
(1.02559 0.00061087 5.27118e-22)
(1.02263 0.000408737 1.77754e-22)
(0.801376 0.0999443 1.31847e-21)
(0.775899 0.115424 -3.77906e-21)
(0.922058 -0.0582257 7.08192e-21)
(0.916799 -0.0591312 -1.20535e-20)
(1.02585 -0.00408527 -2.86222e-22)
(1.02614 -0.0043146 3.47313e-22)
(1.02577 -0.00440224 -3.00035e-22)
(1.01302 0.000497842 -5.11734e-22)
(1.01325 0.000457129 3.15177e-22)
(1.00977 0.000255985 -4.79701e-22)
(1.0101 7.44297e-05 -1.32498e-21)
(1.00904 -4.83444e-05 -2.41809e-21)
(1.00831 -2.83216e-05 9.28168e-22)
(-0.0116808 0.0338307 -1.59366e-20)
(-0.00836322 0.0439366 -2.02627e-20)
(1.0356 -0.0206866 -2.01299e-21)
(1.03559 -0.0195784 1.19326e-20)
(1.0415 -0.0605566 4.27108e-21)
(1.04843 -0.0601601 -1.0751e-20)
(0.910801 0.0900851 -1.52091e-21)
(0.808824 0.174502 -1.49639e-22)
(0.795306 0.161965 8.0225e-22)
(1.05967 -0.00943758 6.45921e-22)
(1.05867 -0.0100745 3.30954e-22)
(1.06044 -0.0102821 2.16043e-22)
(0.805231 0.173069 8.44672e-21)
(0.815284 0.177145 7.14334e-21)
(1.02947 -0.0492317 0)
(1.03015 -0.049155 -7.16285e-21)
(1.02975 -0.050022 -8.16412e-21)
(1.00009 0.00489399 1.94932e-22)
(0.99975 0.00538169 -1.3042e-23)
(1.03481 -0.0651141 -8.78134e-21)
(1.03469 -0.0642995 -2.164e-21)
(1.03556 -0.0644893 -9.64083e-21)
(1.00755 0.000892568 0)
(1.00754 0.000435822 0)
(1.01895 0.00479459 -3.79929e-22)
(1.01871 0.00502863 3.18988e-23)
(1.01848 0.00463214 -3.93483e-22)
(0.648349 -0.0251467 -5.35444e-21)
(0.663343 -0.0288371 -1.60413e-20)
(1.01404 -0.00432035 4.30855e-21)
(1.01379 -0.0040715 -1.1055e-21)
(0.78846 0.0807202 1.34806e-20)
(1.01795 0.00175847 4.73893e-23)
(1.01828 0.00174174 -6.77733e-22)
(1.01784 0.00139765 1.61015e-22)
(1.02558 -0.00380537 -1.43564e-22)
(1.02599 -0.00370631 -5.20495e-23)
(1.02771 -0.0511207 -8.89383e-22)
(1.0286 -0.0508855 6.76193e-21)
(1.0313 -0.0514726 6.89731e-21)
(0.0822392 0.0486303 -9.67303e-23)
(0.0416326 0.0557119 -1.26497e-20)
(0.0564755 0.055767 8.44084e-21)
(0.0276549 0.0507434 -8.9565e-21)
(0.0471745 0.0469528 1.01398e-20)
(0.0281982 0.0397411 1.12625e-20)
(-0.00375974 0.0258259 1.84854e-20)
(-0.0114289 0.0273548 1.80185e-20)
(1.01047 -0.000154831 1.41652e-21)
(1.00874 1.18295e-05 -1.14186e-21)
(1.0339 0.0269296 0)
(1.03309 0.0282017 0)
(1.03498 0.0286646 -5.01333e-23)
(1.03951 -0.010772 -1.76042e-22)
(1.03945 -0.0103095 -5.83466e-23)
(1.04037 -0.0108929 5.37513e-22)
(1.01266 -0.0208485 4.99874e-21)
(1.01279 -0.0216965 2.3942e-21)
(1.01341 -0.0209147 -9.79334e-22)
(0.944555 0.0629081 -1.71189e-21)
(0.97568 0.0695059 -2.48575e-21)
(1.04161 -0.0278626 -2.39163e-24)
(1.0399 -0.0274564 1.16314e-22)
(1.04045 -0.0265095 -1.78751e-24)
(1.03522 -0.0663071 1.0175e-20)
(1.034 -0.066025 1.90668e-20)
(1.02127 -0.00486373 -2.10646e-22)
(1.02111 -0.00528021 -2.15809e-22)
(0.946165 -0.00283361 -5.31695e-21)
(0.909723 -0.0145988 -7.8677e-21)
(1.04127 -0.0518021 1.69434e-20)
(1.04078 -0.0520506 -1.26867e-20)
(1.00963 -7.00571e-05 -1.03555e-21)
(1.01025 7.84086e-05 1.31994e-21)
(1.01084 0.000206557 -2.67727e-22)
(0.0195592 0.0559555 -4.26949e-21)
(0.0426482 0.0570489 -1.1113e-20)
(1.03041 0.000287356 -2.28024e-22)
(1.0319 0.000292733 2.27681e-22)
(1.02145 -0.0201775 0)
(1.02205 -0.0205307 -1.99353e-21)
(1.02197 -0.0196333 -5.62863e-21)
(1.01187 -0.0208984 3.43952e-21)
(1.01238 -0.0201116 2.19909e-21)
(1.01407 0.00882438 -2.47289e-22)
(1.01444 0.0087629 -3.18403e-22)
(1.01453 0.00922305 -1.14767e-22)
(1.00381 -0.0162571 7.01613e-22)
(1.0044 -0.0158 4.48594e-23)
(1.00455 -0.0165575 -2.03081e-23)
(1.03822 -0.0560515 4.8003e-21)
(1.03768 -0.0560838 -1.25524e-20)
(1.03547 -0.0518387 -1.52303e-20)
(1.03541 -0.0523951 -6.32187e-21)
(1.02657 -0.012404 -1.28165e-23)
(1.02592 -0.0118444 -1.39482e-23)
(1.02575 -0.0121887 1.07748e-23)
(1.03184 -0.0322868 2.6305e-22)
(1.03142 -0.0328931 -3.93486e-21)
(1.03224 -0.0329836 -3.57282e-21)
(-0.0105589 -0.0292822 2.14101e-20)
(-0.0144725 -0.0263459 1.56366e-20)
(1.01914 0.00455895 1.59776e-24)
(1.01939 0.0049567 -2.02829e-22)
(0.997052 -0.0256033 8.47257e-22)
(0.998262 -0.025897 2.14494e-21)
(0.997906 -0.0247475 2.07692e-21)
(1.03466 -0.00912657 -1.76015e-23)
(1.03546 -0.00927866 6.18576e-23)
(1.03483 -0.00879608 -3.96188e-23)
(1.04331 -0.0282675 -7.32962e-23)
(1.04259 -0.029445 -4.27142e-23)
(1.03311 -0.041243 -2.48583e-20)
(1.03341 -0.0403115 -7.92012e-21)
(1.00036 0.00444449 3.6139e-23)
(1.00054 0.00515837 1.05756e-22)
(0.741626 -0.0580669 -2.8238e-21)
(0.682637 -0.0574216 -7.7999e-22)
(0.745311 -0.0566274 -1.01691e-20)
(0.629425 -0.0261317 -1.76162e-20)
(0.67721 -0.0290082 3.40475e-21)
(1.03075 0.00312663 1.31668e-22)
(1.03068 0.00336234 -2.33045e-22)
(1.0311 0.00336918 -2.92463e-22)
(1.01369 0.00888206 5.25553e-22)
(1.01368 0.00844882 -2.33292e-22)
(0.0170414 0.0547119 -1.47066e-20)
(0.0317512 0.0589382 -1.81277e-20)
(1.01933 0.00431323 1.88471e-22)
(1.0189 0.00416933 -2.60935e-23)
(0.84281 0.161953 9.18847e-21)
(0.809207 0.146301 1.05896e-20)
(1.02852 -0.049531 0)
(1.02895 -0.0485427 0)
(1.02781 0.0257624 -1.6591e-22)
(1.02696 0.0253827 -4.81201e-22)
(1.02695 0.0267012 2.05978e-22)
(1.04159 -0.0627804 -1.21242e-20)
(1.0433 -0.0621577 -1.23385e-20)
(1.025 -0.00708634 -1.47369e-23)
(1.02465 -0.00723709 3.35465e-23)
(1.02535 -0.00760699 0)
(1.01657 -0.030419 7.60505e-21)
(1.01612 -0.0297045 8.13792e-21)
(1.01561 -0.0304872 5.18888e-21)
(1.02473 -0.0507562 8.10194e-22)
(1.01429 -0.0039606 -7.97492e-23)
(1.01429 -0.00372347 -1.99856e-21)
(1.01406 -0.00378146 1.72191e-21)
(1.01753 -0.0679017 1.15091e-20)
(1.01873 -0.0664894 8.43241e-21)
(1.01986 -0.00284976 -3.90893e-22)
(1.01944 -0.00240976 -1.10048e-22)
(1.01927 -0.00267813 2.1751e-24)
(1.02724 -0.00062502 5.18952e-23)
(1.02839 -0.000491113 -3.46884e-22)
(1.03022 -0.000227813 0)
(0.995599 0.00558936 7.39142e-22)
(0.995934 0.00504484 -1.06434e-22)
(1.01111 4.02963e-05 0)
(1.01081 -3.89208e-05 2.05521e-21)
(1.03063 -0.0605584 -7.64826e-21)
(1.02989 -0.0612821 -5.59099e-23)
(1.03089 -0.0616906 -8.7974e-21)
(0.978591 -0.030312 1.3853e-23)
(0.974794 -0.0293574 0)
(0.976795 -0.0331955 -2.83673e-22)
(0.887825 0.0669169 2.64645e-21)
(-0.0137971 -0.0364643 1.50938e-21)
(-0.0167816 -0.0314253 -5.6581e-21)
(1.05555 0.00280546 0)
(1.05579 0.00347766 -1.88361e-22)
(1.05681 0.00308864 0)
(1.02846 -0.0415659 -2.03915e-21)
(1.02926 -0.0412685 8.08107e-21)
(1.02871 -0.0406498 -6.75075e-21)
(0.787322 -0.0475494 1.46288e-20)
(0.826892 -0.0530247 1.67844e-20)
(1.02025 -0.0193406 -4.55116e-21)
(1.02078 -0.019816 0)
(1.02078 -0.0189955 3.7043e-21)
(1.03477 0.025795 1.92141e-23)
(1.03311 0.025503 2.68861e-23)
(0.846739 -0.0312794 2.13294e-22)
(0.850763 -0.0201839 1.1275e-21)
(0.843745 -0.0461238 3.68946e-22)
(1.02901 0.0264451 -1.22732e-22)
(1.02862 0.0249177 -6.42211e-23)
(1.03027 0.0135668 -2.28955e-22)
(1.03088 0.0141079 -1.68204e-22)
(1.06076 -0.00883968 -3.70481e-22)
(1.05884 -0.00882209 -1.78404e-22)
(0.17875 -0.0359818 -3.25704e-21)
(0.28642 -0.0494263 8.9184e-21)
(0.287879 -0.0476407 -7.59109e-22)
(1.00525 0.000117852 0)
(1.00891 0.00026949 -5.42887e-22)
(1.00486 6.17873e-05 7.48977e-22)
(1.0107 -0.0032127 2.62609e-21)
(1.01066 -0.00296126 1.61186e-23)
(1.01049 -0.00308745 1.64909e-21)
(0.98082 -0.0426587 9.22511e-23)
(0.982949 -0.0413109 1.11346e-21)
(0.983481 -0.0436164 2.65985e-22)
(1.01456 -0.00413704 -3.24346e-22)
(1.0143 -0.00422785 2.0561e-21)
(0.649714 -0.0750812 9.3339e-21)
(0.516687 -0.0570471 8.80137e-21)
(0.582705 -0.0764047 8.94137e-21)
(1.01921 -0.0286634 3.34802e-21)
(1.01923 -0.0277772 7.4159e-21)
(1.02016 -0.0282472 0)
(0.763091 -0.0347284 -6.48801e-21)
(0.741708 -0.0326361 2.02119e-20)
(0.763509 -0.0350352 1.16544e-20)
(1.02447 -0.00919993 2.36611e-23)
(1.02476 -0.00967013 -1.72576e-23)
(1.02521 -0.00952054 1.41998e-23)
(1.02194 -0.0467848 6.24079e-21)
(0.996411 -0.0462302 8.23121e-21)
(1.00232 -0.0459581 -9.17609e-21)
(1.0022 -0.00370338 3.12363e-22)
(1.00201 -0.00304392 -4.16292e-22)
(0.890105 -0.00407736 5.26586e-22)
(0.881982 0.00478466 -2.55977e-21)
(0.908235 0.0238589 -2.21515e-22)
(1.023 -0.00676323 1.39346e-23)
(1.02337 -0.0065802 -1.18024e-22)
(1.0227 -0.00627974 1.39834e-23)
(1.03767 -0.0104142 -2.71007e-22)
(1.03759 -0.0108595 -2.8745e-22)
(1.0368 -0.0102428 -2.90381e-22)
(1.0735 -0.0195583 0)
(1.06791 -0.0127668 0)
(1.08092 -0.00592982 -8.06742e-22)
(0.954281 -0.0191227 -6.8722e-22)
(0.956042 -0.0146273 -2.01418e-21)
(0.960318 -0.0185965 -1.84262e-21)
(-0.0136269 0.00182971 2.12895e-21)
(-0.00733195 -0.000591715 1.52089e-20)
(1.01449 -0.00171347 0)
(1.01448 -0.00153058 -1.57818e-21)
(1.01432 -0.00160212 -1.77232e-21)
(0.764734 -0.0348323 -8.14055e-21)
(0.7868 -0.0365879 -9.7565e-21)
(1.01849 -0.0290151 -2.80572e-22)
(1.01919 -0.0293439 2.78301e-21)
(1.02145 -0.012596 3.37091e-21)
(1.02191 -0.0121764 6.75564e-21)
(1.00939 -0.0517315 -4.10019e-23)
(0.987203 -0.0519676 -8.36112e-21)
(0.987734 -0.0513137 1.18449e-20)
(1.03653 -0.0587583 7.75246e-21)
(1.0367 -0.059396 9.33638e-21)
(1.03727 -0.0588073 -1.07263e-20)
(0.962302 -0.044652 -8.70215e-21)
(0.93391 -0.0438287 -4.0058e-21)
(0.936597 -0.0446191 -1.93035e-22)
(1.02503 -0.000301601 1.76393e-22)
(1.02508 -0.000366296 9.94376e-24)
(1.01868 -0.000182211 2.7614e-22)
(1.02502 -0.0364668 4.72464e-21)
(1.0255 -0.0373153 -1.88866e-21)
(1.02445 -0.0373539 -2.27411e-21)
(1.01326 -0.000452424 4.20986e-22)
(1.00983 -0.000313602 6.5693e-24)
(-0.0295071 -0.0145447 2.55105e-22)
(-0.0299456 -0.0124795 1.94808e-20)
(-0.0270188 -0.0165034 -2.8689e-21)
(1.0227 -0.00697005 2.74571e-23)
(1.02338 -0.00729145 4.69282e-23)
(1.01114 -0.050933 4.70534e-21)
(1.01205 -0.04969 -2.16475e-23)
(0.949914 -0.0826957 -9.6148e-22)
(0.959801 -0.0833367 -1.16096e-21)
(0.952363 -0.0938026 -1.03055e-21)
(1.03044 0.0028981 1.58282e-22)
(1.03084 0.00290941 7.33141e-22)
(1.05523 0.00220636 -4.09673e-22)
(1.03689 -0.050655 1.22207e-20)
(1.03644 -0.0508825 1.90186e-21)
(1.03654 -0.0503652 0)
(0.980873 -0.0330456 -8.2986e-23)
(0.982033 -0.0312505 1.98436e-22)
(0.979702 -0.0307357 5.98416e-23)
(0.754563 -0.0844856 0)
(0.70039 -0.0698412 2.93293e-20)
(1.04067 -0.0707984 4.98379e-21)
(1.03824 -0.0577925 1.45128e-21)
(1.03856 -0.0106065 0)
(1.03943 -0.0112243 -8.31891e-23)
(1.01086 -0.00334288 -2.61591e-21)
(1.01068 -0.00344903 0)
(0.968223 -0.0164182 -4.11711e-22)
(0.961715 -0.0226975 0)
(0.953791 0.100521 1.75326e-22)
(0.950869 0.0877194 -1.35338e-21)
(0.969609 0.0948823 1.98653e-23)
(1.03134 -0.0171335 -3.97696e-24)
(1.03081 -0.0164184 3.15711e-23)
(1.03199 -0.0170146 1.91749e-23)
(0.978903 -0.0444567 -7.91622e-23)
(0.978286 -0.0415452 -9.02255e-22)
(1.01846 -0.00120129 1.31635e-23)
(1.0185 -0.00111123 1.08675e-22)
(0.890794 -0.0425444 7.02539e-21)
(0.864876 -0.0413706 6.74737e-21)
(0.888302 -0.0423182 5.76697e-21)
(1.03121 -0.0498028 0)
(1.03178 -0.050302 0)
(0.856995 -0.0412061 3.5559e-21)
(0.844698 -0.0481064 -6.58334e-21)
(0.87167 -0.0378795 5.15605e-22)
(1.01119 -0.0208879 1.14398e-21)
(1.0104 -0.0208113 -2.68221e-21)
(1.01096 -0.0200852 2.3662e-21)
(1.00976 -0.0285628 0)
(1.01027 -0.0276378 -2.23613e-21)
(1.00914 -0.0278374 0)
(1.02281 0.0183794 1.28255e-22)
(1.02457 0.0177591 0)
(1.02354 0.0199884 0)
(0.956858 0.107407 7.52762e-22)
(0.937884 0.106773 1.44942e-22)
(1.01459 -0.0129339 -2.17455e-21)
(1.01451 -0.0134187 -4.64792e-21)
(1.0141 -0.0130153 -1.34069e-21)
(1.0114 -0.0216224 -6.11727e-22)
(1.037 -0.0477033 -9.00424e-23)
(1.03734 -0.0481086 5.63573e-21)
(1.03661 -0.0482306 -2.76234e-21)
(0.897084 0.0857622 1.77619e-21)
(0.86885 0.0817606 4.89801e-21)
(0.912682 0.0769881 1.52642e-20)
(0.980825 -0.0276704 1.36938e-23)
(0.98195 -0.0312502 -2.34328e-22)
(1.02593 -0.0502312 0)
(1.02918 -0.0505477 1.23376e-20)
(0.615061 -0.0257266 -1.1693e-20)
(0.496097 -0.0138899 3.78975e-20)
(0.448442 -0.0126706 2.01717e-20)
(1.01669 -0.00249488 1.49045e-21)
(1.01652 -0.00225629 0)
(1.0164 -0.00245411 -9.57574e-22)
(1.0377 -0.01001 1.81746e-22)
(0.987696 -0.0113757 0)
(0.987083 -0.00998801 -6.11537e-23)
(0.988715 -0.00988713 -4.91995e-23)
(0.930799 -0.102598 0)
(0.947865 -0.102099 -6.91044e-23)
(0.925653 -0.101691 2.75194e-23)
(1.04948 -0.00831764 0)
(1.0485 -0.00842362 -1.29729e-22)
(1.0496 -0.00885059 1.53985e-22)
(1.04058 -0.0655064 3.19602e-21)
(1.04055 -0.0663888 -8.04334e-21)
(1.04297 -0.0657594 -7.59087e-21)
(1.01983 -0.0198398 -3.9354e-21)
(1.01973 -0.0190007 1.03003e-21)
(1.01505 -0.0128404 2.43572e-21)
(1.01465 -0.0124335 4.75174e-21)
(1.02585 -0.0329263 -7.78772e-21)
(1.02501 -0.0327967 4.98343e-21)
(1.0301 -0.0530456 0)
(1.02963 -0.0521046 -7.67365e-23)
(1.08989 0.000516383 -2.24514e-21)
(1.08638 0.00131215 2.73275e-21)
(1.08902 0.00597904 -1.82124e-23)
(1.02118 0.0168651 -1.96867e-21)
(1.02166 0.0192049 3.2453e-22)
(1.02086 -0.0207077 0)
(0.975726 -0.0732833 -2.29586e-22)
(0.986508 -0.0624342 4.16002e-22)
(0.987582 -0.0818064 1.43158e-22)
(1.02667 -0.048357 -8.62814e-21)
(1.02761 -0.0480823 0)
(1.00206 -0.0351735 7.55487e-22)
(1.00311 -0.0346532 1.46751e-21)
(1.01849 0.00525105 -5.84501e-22)
(1.01896 0.00542763 9.93495e-22)
(0.967272 -0.0801467 -8.04029e-22)
(0.951885 -0.0860786 3.26474e-22)
(1.08205 -0.026885 3.42381e-22)
(1.08599 -0.0260651 4.0829e-22)
(1.08321 -0.0227515 -2.77515e-22)
(0.992805 -0.0481547 -2.42056e-21)
(0.96783 -0.0464461 1.31142e-20)
(0.968611 -0.0478488 3.84869e-21)
(1.05114 0.00347527 2.59262e-21)
(1.02975 -0.00702628 -1.19082e-20)
(1.03175 -0.0177207 -1.25801e-23)
(1.03074 -0.0172065 1.13473e-22)
(1.02307 -0.00851184 0)
(1.02379 -0.00886173 1.31644e-23)
(1.02326 -0.00897141 0)
(1.01369 -0.000648769 -1.02868e-23)
(1.01393 -0.000655007 1.03714e-23)
(1.01625 -0.000842501 0)
(1.0374 -0.0472235 1.45435e-21)
(1.0367 -0.0473096 -4.57078e-21)
(0.908556 -0.100279 -4.72158e-22)
(0.930051 -0.0962205 0)
(0.855476 0.147269 -1.70995e-21)
(0.832487 0.107654 -1.99597e-21)
(0.869294 0.125522 0)
(1.02848 0.0110451 -2.12583e-24)
(1.02913 0.0114455 6.53985e-23)
(1.02847 0.0115553 1.37673e-23)
(1.01575 -0.000820766 -1.16107e-22)
(1.01569 -0.000943794 -4.80361e-21)
(1.01587 -0.000923823 -3.65663e-21)
(0.963628 -0.0822609 5.73124e-21)
(0.965661 -0.0635921 -2.07428e-22)
(1.00128 -0.0778196 -2.0922e-22)
(0.993577 -0.0720074 9.97628e-21)
(1.00531 -0.0688996 -1.19744e-22)
(1.0356 -0.0671741 -5.69881e-21)
(1.03628 -0.0662105 3.2914e-21)
(1.00165 -0.0160013 8.05497e-22)
(1.00184 -0.016777 -4.07675e-21)
(1.02126 -0.00831672 1.04888e-20)
(1.02073 -0.00818631 2.03271e-21)
(1.03113 -0.0424144 -8.10602e-21)
(1.03033 -0.0426086 -7.74249e-21)
(1.03085 -0.0433631 2.71237e-21)
(0.998791 -0.082847 -3.74319e-21)
(1.01198 -0.0776994 -1.70427e-21)
(1.04151 -0.0646905 8.30154e-21)
(1.04052 -0.0644462 1.25093e-20)
(0.9999 -0.0258813 6.12891e-21)
(1.0002 -0.0254154 7.664e-22)
(1.00069 -0.0259645 1.8804e-21)
(0.60549 -0.121877 -7.55852e-21)
(0.682554 -0.105989 6.5929e-21)
(1.01862 0.00592001 3.03367e-22)
(1.01819 0.00577205 -6.89851e-23)
(1.01834 0.0054945 -8.78896e-22)
(0.894535 -0.0426717 0)
(0.91827 -0.0435785 0)
(1.03158 -0.0317584 -4.32794e-24)
(1.03237 -0.0317845 8.0893e-21)
(1.01623 -0.0267911 0)
(1.01575 -0.0274863 -2.20868e-21)
(0.998981 -0.0486358 0)
(0.970172 -0.0482021 2.04492e-21)
(0.976738 -0.047632 0)
(1.00666 -0.00579036 1.18615e-22)
(1.00625 -0.00557762 -1.52056e-21)
(1.00633 -0.00609923 -2.53314e-21)
(0.972674 -0.000123988 -1.6436e-21)
(0.967122 -0.00338017 -1.40928e-21)
(0.925164 -0.0448787 2.0692e-20)
(0.922512 -0.043707 -1.02275e-20)
(0.948876 -0.0453995 1.06745e-20)
(1.02852 0.0105767 -1.98955e-22)
(1.02787 0.0106198 1.83866e-22)
(1.03565 -0.0449443 1.34172e-20)
(1.03612 -0.0454523 -1.32125e-20)
(1.03529 -0.0457078 1.16564e-20)
(1.0236 -0.0339763 -6.92507e-21)
(1.02411 -0.0348979 -5.23709e-21)
(1.00228 -0.0155315 -1.21794e-21)
(1.00151 -0.0151645 -8.42248e-22)
(0.138511 0.0372872 -1.99448e-21)
(0.118663 0.0373306 0)
(0.999101 -0.026044 4.16201e-21)
(0.999744 -0.0266379 2.27928e-21)
(1.01292 -0.0121279 5.77919e-22)
(1.01334 -0.012265 5.37597e-22)
(1.01301 -0.0126505 -2.48582e-22)
(0.972283 -0.0551918 -5.34882e-21)
(0.967349 -0.0534046 2.77058e-21)
(0.943475 -0.0535058 -4.67494e-21)
(1.03035 -0.00784425 0)
(1.031 -0.00807272 -7.86841e-23)
(1.03056 -0.00756898 7.34826e-23)
(1.0095 -0.0292486 0)
(1.01046 -0.0290027 0)
(1.06179 -0.0080956 -7.17107e-22)
(1.0623 -0.00723813 -3.80999e-22)
(1.06066 -0.00763413 -1.09143e-22)
(1.01921 -0.0494735 -2.4879e-21)
(1.01813 -0.0487637 7.72093e-21)
(1.03778 -0.0533515 2.60215e-21)
(1.03757 -0.0535058 6.46548e-21)
(1.03789 -0.0535411 8.83514e-21)
(1.01466 -0.00181828 -1.99351e-21)
(1.0145 -0.00189569 0)
(1.03449 -0.0486181 0)
(1.03422 -0.0492661 -7.75362e-21)
(1.03386 -0.0486778 0)
(1.01521 -0.00144495 0)
(1.01512 -0.00157285 4.70972e-21)
(1.01535 -0.00155457 0)
(0.671073 -0.0351103 -4.71012e-21)
(0.686432 -0.0302099 -1.31973e-20)
(1.0272 0.0167149 0)
(1.02745 0.0131576 1.04558e-22)
(1.03079 0.0152688 0)
(1.02562 -0.000783041 -1.8221e-24)
(1.02673 -0.000730664 0)
(1.02881 -0.000577816 0)
(1.01427 0.012775 -8.68769e-23)
(1.01381 0.0129654 1.4466e-22)
(1.01391 0.0122905 1.23807e-22)
(1.0377 -0.0531493 -1.39738e-20)
(1.03798 -0.0531735 -6.91576e-21)
(1.02461 -0.0356344 1.67221e-21)
(1.02555 -0.0357008 1.18185e-20)
(1.02331 -0.0193242 -2.67296e-21)
(1.02303 -0.0199408 3.74332e-21)
(1.02267 -0.0193097 -8.19573e-21)
(1.01568 -0.000732395 3.76944e-21)
(1.00701 -0.00604339 -1.92947e-21)
(1.00692 -0.00554642 3.26153e-21)
(1.01238 -0.0120786 0)
(1.01272 -0.0116272 -4.63137e-21)
(0.984508 0.00785342 7.44516e-24)
(1.00013 0.0309816 0)
(0.0750236 0.0477246 -6.20561e-21)
(0.0744494 0.0439288 1.45828e-20)
(0.739746 -0.0588531 0)
(0.775419 -0.0590266 -1.50878e-20)
(0.740482 -0.0587494 0)
(0.980841 -0.00521044 -6.7497e-23)
(0.979047 -0.0066171 3.56258e-22)
(0.978646 -0.00422665 3.54565e-22)
(1.02405 -0.0483382 -1.24519e-21)
(1.02002 -0.0485012 0)
(1.03479 -0.0782549 -6.91213e-21)
(1.01579 -0.0752916 -2.11208e-21)
(1.0147 -0.0776519 -7.69568e-21)
(1.01455 -0.000874674 4.20812e-21)
(1.02819 -0.0424578 8.2831e-21)
(1.02765 -0.0417952 5.71081e-21)
(1.03507 -0.0683743 -1.40743e-20)
(1.03619 -0.0681423 -1.05245e-20)
(1.00843 0.0597434 -9.87058e-22)
(1.00309 0.0614499 -6.66844e-21)
(1.00384 0.0534772 1.2039e-22)
(0.973487 -0.042433 -1.98486e-21)
(0.972377 -0.039229 1.0483e-22)
(0.976047 -0.0403649 -6.7069e-22)
(1.03742 -0.0544813 8.76808e-21)
(1.03713 -0.0546117 0)
(1.0372 -0.0542835 8.61424e-22)
(1.04275 -0.0648559 -1.54648e-21)
(1.02089 0.0299157 -3.46089e-23)
(1.0214 0.0281474 -1.32037e-22)
(1.01942 0.028557 -1.02487e-22)
(0.840827 -0.0761301 6.26075e-21)
(0.864296 -0.0854896 1.12413e-21)
(0.827383 -0.0603503 -1.4924e-21)
(0.937094 -0.0442515 -1.14158e-20)
(0.909921 -0.0431908 1.82336e-21)
(0.912964 -0.0433758 -8.28677e-22)
(1.01466 -0.000590764 -3.07432e-21)
(1.0149 -0.000700947 0)
(1.05603 0.00371583 -1.3651e-22)
(1.05704 -0.000228518 3.77777e-22)
(1.05378 0.000269475 4.31455e-22)
(1.05778 0.0088084 1.67522e-21)
(1.06014 0.00558559 -3.99692e-22)
(1.0177 -0.11166 4.07126e-21)
(1.0188 -0.105967 6.85583e-21)
(1.0225 -0.109227 -2.69649e-21)
(1.02363 -0.0188019 0)
(1.02398 -0.0194738 0)
(0.974379 -0.0457579 -1.48619e-21)
(0.970141 -0.0446185 -2.01337e-21)
(-0.0284011 -0.016531 -6.17018e-21)
(-0.0314942 -0.0128384 1.80803e-20)
(1.0133 0.00892825 -1.3222e-22)
(1.0137 0.00932499 3.67391e-22)
(0.825321 -0.0678986 1.36994e-21)
(0.84906 -0.0862483 -1.07732e-21)
(1.01472 0.0127309 -1.68108e-22)
(1.01461 0.0134026 4.57985e-22)
(1.01528 -0.00133222 2.74654e-23)
(1.0151 -0.0013528 2.1048e-21)
(1.01979 -0.00154822 -4.43488e-23)
(1.01835 -0.00123681 0)