/*--------------------------------*- C++ -*----------------------------------*\
| =========                 |                                                 |
| \\      /  F ield         | OpenFOAM: The Open Source CFD Toolbox           |
|  \\    /   O peration     | Version:  v2012                                 |
|   \\  /    A nd           | Website:  www.openfoam.com                      |
|    \\/     M anipulation  |                                                 |
\*---------------------------------------------------------------------------*/
FoamFile
{
    version     2.0;
    format      ascii;
    class       surfaceScalarField;
    location    "850";
    object      meshPhiCN_0;
}
// * * * * * * * * * * * * * * * * * * * * * * * * * * * * * * * * * * * * * //

dimensions      [0 3 -1 0 0 0 0];
oriented        oriented;


internalField   nonuniform List<scalar> 
20537
(
0.00184892
3.11038e-05
-0.00189937
-0.00259149
0.00188322
0.000707168
0.000347005
0.000940093
-0.00129348
0.00298686
-0.00159724
-0.00140756
-0.000652382
-0.00056593
0.00121058
-0.00165491
-0.000597031
0.00224461
0.000554057
-0.000639689
7.61018e-05
-0.000825914
0.00147683
-0.000662023
0.00090595
-0.00118352
0.000244808
-0.00178763
0.000735298
0.0010465
0.000246783
-0.000636003
0.000387317
0.0012631
7.05696e-05
-0.00133412
-0.000687173
0.000789119
-0.000105366
-0.000379731
-0.000496565
0.000875641
-1.20315e-05
0.000214076
-0.00024602
0.000853087
0.000768103
-0.00163453
-0.00175364
0.000385648
0.00134694
0.000193359
0.00149231
-0.00169775
-0.000437007
-0.000517554
0.000950615
0.00114404
-0.000272382
0.00131094
0.00164968
0.00151878
-0.00117917
3.86042e-05
-7.50862e-06
-4.41594e-05
-9.14515e-05
9.92248e-05
-5.99043e-05
4.95535e-06
2.07701e-05
0.000639087
-0.00147688
-0.000992326
0.000932006
4.49019e-05
0.000318301
0.000200396
0.00240495
-0.000576096
0.00219167
-0.000239453
-0.00197233
0.000554973
-0.0022165
-0.00107451
-0.000699815
0.00159288
-0.000660062
0.000805088
0.000447208
-0.00125347
7.02668e-05
-0.000216037
0.000327082
0.000190306
-0.000518798
-0.000588754
0.000224958
0.000361887
-0.000689785
-0.0004677
0.00115485
-0.00135525
-0.000437237
0.00169844
-0.000894692
0.00208915
-0.00123672
-0.000885395
-8.16816e-05
-3.11596e-05
0.000108276
-0.000416768
9.75891e-05
0.000316618
-0.00043075
-0.000181379
0.000611043
0.000158454
-0.000590134
-0.000698804
0.000446606
0.000254625
-0.000185425
0.000597293
-0.000411991
0.00208199
-0.000643044
-0.001441
-0.000924751
-8.19109e-05
-0.00153994
0.00134932
0.000182915
0.000442355
-0.000974783
0.000519341
-0.000567331
0.000986123
-0.000424272
-0.00016215
0.000418449
-0.00025675
2.50926e-05
0.00011093
-0.000182081
4.64437e-05
0.000195421
-0.00033074
2.74269e-05
-0.000113417
3.31673e-05
-0.000157351
9.55827e-05
0.000215768
0.000327386
-0.000543934
0.00187851
0.000290503
-0.000912129
0.00087467
1.76514e-05
-0.00117463
0.000482074
0.000613078
0.000215392
-0.000827705
-0.000808024
-0.00142519
0.00222456
0.000531516
0.000504571
-0.00104159
-0.00204513
0.000395123
0.00164556
-0.000562404
0.0020914
-0.00154266
-0.000378914
-0.0002107
-0.00012277
0.000609158
-0.000411474
-0.000688669
0.00108693
0.00175013
-0.00157033
0.000253786
3.72129e-05
-0.000291126
-0.000272358
-0.000185003
0.000456464
-0.00155959
-0.00103219
-0.000174212
0.000148595
0.000493068
-6.82161e-05
-0.000506602
-0.000397712
-0.00073157
0.00110823
0.000452254
0.00106063
-0.000311768
0.000500026
-0.000188282
0.00124263
-0.00062479
-0.000628109
1.34909e-05
-0.000284052
-0.00110099
0.000143745
0.000934201
-3.36745e-05
5.1363e-05
-1.80527e-05
0.00099581
-0.00121527
0.000178766
-0.000442342
0.000695925
-0.0002522
0.00127202
-0.00208846
-0.000102444
0.00136505
0.000612189
-0.00216674
0.0015461
-0.00163478
0.00126272
0.000370538
0.00126225
-7.36079e-05
-0.00120925
-0.000939111
0.000712869
0.000211618
0.000607509
-0.000282517
0.00264895
-0.00153489
-0.00112438
0.000399792
0.00135601
-0.000836969
-0.000533654
0.00167702
-0.000436894
7.4256e-05
1.22622e-05
-0.000115747
-0.00109818
0.000438421
0.000757993
-0.000662417
-9.67416e-05
-0.00124328
-0.000303579
6.17689e-05
-2.23029e-05
0.000663776
-0.000706825
4.35451e-05
-0.000787491
-0.000311337
0.00108887
0.00219677
-0.000877108
-0.00134217
0.000259179
-0.000606887
6.81666e-06
-1.09138e-05
1.40295e-06
-0.000619923
-0.00145764
0.00206956
0.000639037
0.000314971
-0.000962172
-4.72299e-05
-1.39058e-05
5.78902e-05
0.000184355
-0.000406028
-0.00218943
0.0015854
-6.84423e-05
6.49691e-05
-3.34786e-05
-0.000683874
-0.000269968
0.00146897
0.00116952
-2.50591e-05
-2.50015e-05
-0.000156125
4.83672e-05
-0.00085832
0.00195877
0.000512749
0.000243654
8.31182e-05
-5.9876e-05
-2.80811e-05
-0.000119562
-8.21689e-05
0.000130364
-0.000283825
4.88245e-05
0.000156572
-0.000453389
3.31713e-05
-0.000523312
0.000770349
0.000174319
-0.000864489
0.00207103
0.000667229
0.00141152
-0.000103528
0.000414671
-0.000317946
0.00211744
-0.00145333
0.000827845
0.000105105
-0.000941495
0.00263311
-0.00134365
-0.000508518
0.000980984
-0.000476578
0.000797289
0.00125408
0.000277961
-0.000983201
0.000655335
-4.7042e-05
0.000300863
-6.30662e-05
0.00101656
0.00112682
-0.000221729
-0.000169227
0.000331567
3.55731e-05
4.11847e-05
-0.00018118
-0.000309872
0.00048998
0.00109923
-0.00067454
-0.000424214
0.000579445
-0.00117024
0.000590447
9.16096e-05
0.000571157
-0.000276354
0.000225247
0.00172536
-0.000753395
-0.000988306
2.83187e-05
0.000188236
-0.000222357
0.000601714
-0.00145915
0.00083776
-0.000605532
0.000423065
-4.40222e-05
2.60416e-06
3.96128e-05
-0.00111968
0.000605899
0.000622204
-8.51812e-05
0.000558397
-0.000400818
0.000672011
-0.000412778
0.000221581
1.05558e-05
-0.000316617
0.00040922
-0.000789621
0.000107319
-9.90371e-05
-0.000210564
-0.000778076
0.000971507
-0.00104964
0.00162949
-0.000231288
0.00152094
-0.0013228
-0.00160584
0.0018258
-0.000239907
-0.000767455
0.000194783
0.000969277
-0.000538614
-2.78485e-05
2.6788e-05
1.50199e-07
0.00106225
-0.000704995
-0.000368567
-0.000249573
0.000464729
0.000807734
-0.000574921
-0.00178628
-0.000460618
0.00222722
2.92004e-05
-0.000203913
0.00016834
-1.02953e-05
-3.51026e-05
-0.00103935
0.000615792
0.00149231
0.00111953
0.000362911
-0.000660508
0.000298098
-0.000390407
7.86575e-05
0.000496104
-0.000111371
-0.000413536
-0.00154501
0.00128159
0.00118361
-0.000603935
0.000221059
0.000539708
-0.0020614
0.00141613
-0.000449404
0.00126686
0.000898729
0.000447455
-0.00135912
-0.00100366
0.000562906
4.72978e-05
1.52023e-05
-6.50883e-05
-0.000442472
0.00155112
-0.00112622
-0.0004544
-0.00097632
0.000793458
0.000146309
-0.00114043
-4.38199e-05
-9.18606e-06
7.9157e-06
3.65993e-07
5.24546e-05
3.53218e-06
-7.63991e-05
-0.00209143
0.00151544
-0.000327037
-3.90165e-05
0.000627256
0.00047823
-0.00111153
0.00123445
-0.00174231
0.000501685
0.00042361
-0.000435421
0.000273391
0.000855399
-0.000155519
-0.000711419
-0.000746895
-0.000333711
0.00106854
-0.000448995
0.00106301
-0.000229793
-0.000924236
0.00113594
0.000547878
0.00116114
-0.0015327
0.000528565
0.00100234
-0.000769087
0.00165194
0.000748257
-0.00116717
-0.000433176
0.000322522
-0.000828691
0.000360885
0.000469124
4.59761e-05
-0.000156323
3.29165e-05
-0.000453425
0.00126253
-0.000851427
-0.00166081
0.000723861
0.000931515
-7.64253e-05
-0.000936868
0.0012688
-0.00084484
-0.0004233
-0.00162484
0.00134826
0.000256104
0.000210464
-0.000455347
0.00024471
4.3458e-05
-3.18715e-05
-1.34431e-05
0.000543712
-0.000357177
-0.000187447
0.00162534
0.000546374
-0.000578056
0.00158846
-0.00101055
-3.39941e-05
-1.1456e-05
4.29516e-05
-5.64605e-05
-0.000158802
0.000209287
0.000180309
-0.000544196
0.000361202
-0.00240839
0.000816499
0.0015813
-0.000271967
-0.000424459
-0.000493815
0.000371506
8.42064e-05
-0.000221335
0.000431622
-0.00056667
-0.00107474
-0.00112136
-8.97752e-07
0.000644991
-0.000413415
-0.000233646
0.00100582
-0.000442576
-0.000568603
0.000486802
-0.000328468
-0.000158607
-3.16362e-05
-1.87528e-05
3.10523e-05
0.00138456
-0.000813917
-0.000585624
-2.04651e-06
5.548e-06
-0.00031879
0.000439022
-0.000120983
2.42416e-06
-3.79069e-05
-0.000953861
0.00158075
0.000636928
0.00118043
-0.001821
0.000390874
7.67483e-05
0.000159843
-0.000234273
-0.000650099
0.000875761
-0.00210728
0.00162968
0.000469164
0.000962918
0.000306187
-0.00166027
-0.000387879
0.000216689
-0.000194771
0.000655764
-0.00114637
0.00218253
-0.001634
-0.00140455
5.61503e-05
0.00134528
-2.34206e-05
3.64806e-05
-1.36579e-05
-0.000687082
-0.000978517
-1.11941e-05
-2.86714e-06
0.000236371
-0.000397341
0.000160609
0.000163165
-0.000959221
0.000498115
0.000954702
-0.00145281
-0.000424224
-0.00117351
0.00157717
-0.00158907
0.00146995
0.000100059
-0.000369735
-0.00122378
0.00158222
-0.000180295
-0.00122525
0.00133262
-0.00129313
-6.0423e-05
-0.00149238
0.00114918
-0.00057752
-0.000581791
0.000447356
-0.00208722
0.00163506
-0.000704514
0.00193306
-0.000442344
0.00013146
0.000542029
-0.00017842
-0.000365031
-0.000489463
0.000491316
-2.7231e-05
0.000154474
-0.000215478
-0.00174643
0.00194787
-0.00125813
0.00213155
-0.000875865
-0.000182945
0.000462172
-0.000287906
0.000432815
0.000470955
-0.000905927
-0.00102222
0.000776359
0.000162047
0.00114855
0.00017898
0.00116326
0.000233365
0.000409518
-0.000656511
0.000773383
-0.000121868
-0.00157498
0.0011938
-0.00115394
-0.000965504
0.00207925
-0.00111783
0.000531922
0.000700095
-0.000991581
0.00183074
-0.000398451
-0.000632189
4.8738e-06
-3.90125e-05
0.000143364
-0.000454872
0.000308146
0.000444373
-0.000324376
-0.000120669
0.00050424
-0.000259144
-2.58281e-05
2.66811e-06
2.96708e-05
-1.48688e-05
-1.71049e-05
5.96312e-06
5.12599e-07
-8.48098e-06
0.000585952
0.00055406
-0.00206905
0.000808434
0.000562323
0.0015922
-0.00215543
0.00138815
-0.000783876
-0.000633982
0.000303582
-6.78988e-05
-0.00023322
-0.00206583
0.00109609
5.3863e-06
-1.5915e-05
1.06054e-05
-0.000645792
-0.000478135
0.0018693
-1.00762e-05
-0.000710149
-0.000221333
0.000727331
0.000336789
-0.00107581
-2.37222e-05
2.90673e-05
0.000972627
-0.000542515
-0.00195496
0.00167779
0.000264994
-0.00150195
0.00139888
-0.000622152
-0.000335655
0.000916599
-0.000181359
0.000417363
0.000851645
0.000198706
0.00161811
-0.00125239
0.000460434
-0.000287581
-0.000173308
0.00215302
-0.000771151
-0.00140722
0.00150665
-0.00213479
-0.000109676
-0.000500612
0.000608654
0.000541615
0.000812597
0.0010627
-0.000555499
-0.000516897
0.00054706
-0.001401
0.00168275
0.000167915
0.000694038
0.000405302
-0.0010606
-0.000904602
0.000712192
0.000543359
-0.00127635
0.000440084
0.000171677
-0.000613869
4.47985e-05
-0.000149212
9.91814e-05
-0.00166113
5.73727e-05
6.25234e-05
-0.000471162
0.000402446
0.000243328
0.000200521
0.000190737
-0.000595699
0.000402235
-9.8163e-05
-0.000431531
0.000489043
-0.000985505
0.000487411
0.000532822
-0.000242879
-0.000323168
8.45527e-05
0.000456839
0.00212542
-0.00128533
-0.000851261
3.713e-05
7.77344e-06
-6.08124e-05
5.97789e-07
-0.00125787
0.00123441
-0.00046704
0.000654115
0.000540074
0.000828971
0.000754474
-0.00112322
0.000352699
0.000236146
0.000559882
0.00156577
-0.000812673
0.00150185
-0.000448835
-0.000189049
0.000448741
0.00040359
-0.00035589
0.000762026
-0.000405555
0.00219024
-0.00077942
-0.00142265
0.000218049
0.000241839
0.00106068
-0.000433087
-0.000627751
-0.000225625
-0.00108541
0.000327308
0.000372964
-0.00102238
-0.000203647
-0.00137037
0.00156511
-0.00223478
0.000928789
0.00129853
-0.000826021
0.000223893
0.000596899
0.000451969
-0.00191194
0.000321365
0.00157727
-0.0014251
0.00208372
-0.00065983
0.000509707
-0.000266872
-0.00024358
0.000177458
-4.70516e-06
-0.000291082
0.000540411
-0.000253459
-0.000580346
0.000284969
-0.000694526
0.00120684
-0.00051356
0.0011461
-0.000408066
-0.00131892
-0.000920955
-0.000427518
0.000107766
-0.000245019
-0.00133075
-0.00206325
0.000636879
0.00122129
-0.00124393
0.000186279
0.000314537
-1.66578e-05
2.79351e-06
-6.51624e-05
1.50183e-05
-0.00147109
0.000405916
0.00102727
0.000277878
0.000230998
0.000152301
-0.00103328
0.000879306
-0.00123432
-0.000114561
0.00131762
0.000388955
0.000662846
-1.99448e-05
-0.000131822
0.000146487
-0.000139462
-0.00136292
-0.000155565
-0.00150349
0.00164833
0.00226772
-0.000259785
-0.00039075
0.00075395
-0.00136912
0.000104832
-0.000669562
-0.00174331
-0.00147188
0.00105641
0.000400129
0.00161611
0.000650594
0.00201092
-0.000762738
-0.00128736
-6.41195e-05
-7.49305e-07
-0.00221534
0.00170026
0.000505135
0.000142181
-0.000526814
0.000383696
7.37486e-05
0.00122169
-0.000526913
-0.00174881
-0.00020975
-0.000621233
-0.000209153
-0.000450592
0.000263642
-0.000558781
0.000292034
0.000579312
-0.000318856
0.00202207
-0.00120614
-0.000826178
0.000320958
-0.000822658
0.000459214
-0.000108455
-1.49408e-05
8.43971e-05
0.000672273
0.00150551
0.000891877
-0.000410033
0.000401652
-0.000898571
0.000437473
0.000479851
-0.000929296
0.000284993
0.000201097
-0.000374773
0.000584202
-0.000210601
-0.000128474
0.000104571
-0.00055471
5.06658e-05
-0.00074582
0.000288194
5.15529e-06
-0.000293467
0.0017712
-0.00113801
-0.000284695
0.000795562
-0.000552257
-0.00167274
-0.000544438
-0.000942979
-6.7295e-05
-1.58965e-05
5.5909e-05
0.000598822
0.000461521
0.000520726
0.000197836
-0.000745788
0.00150096
-0.000743228
0.000740102
0.00127036
-1.34023e-05
-0.000711636
0.000706559
4.6884e-06
0.00128209
-0.000771428
0.000143353
-0.000118863
-0.000417222
0.000943428
-0.00163664
0.00209897
-0.00047008
-0.000492546
0.00055582
-6.40632e-05
-0.0015585
0.00225417
-0.000709737
-0.000354638
0.00148718
-0.00209646
0.000599802
-0.00126994
0.0010888
-0.000409443
0.0017088
-0.00131749
0.000532509
-0.00122853
0.00038551
0.00121425
0.000496382
-0.000318686
7.32181e-05
-4.37705e-05
0.000451372
0.000798418
4.23393e-05
-1.02949e-05
0.00051319
0.000623976
-0.00113918
0.00135884
-0.000479499
-0.000879851
-0.000642398
-0.000507226
0.00114349
0.00206152
-0.000583278
-0.00040907
-0.000997219
0.00144329
0.00211057
0.000180727
-0.000761455
0.000520777
0.000719888
0.00125124
2.81886e-05
-0.00130146
3.06629e-06
1.10423e-05
-1.9309e-05
-0.00055527
0.00136964
-0.00081554
-0.00145663
0.000243611
0.00121027
-0.00151494
0.00075712
0.000751
-0.000228813
0.000436544
-0.000207959
0.000795439
-0.00158025
-0.000127106
0.000401902
-0.000277568
-0.000319101
-0.00113899
0.000609245
0.000153283
-9.16305e-06
-1.56401e-06
0.000826412
0.000474568
-0.00131462
-0.0010827
5.60328e-05
-0.000716415
0.000463962
0.000120016
-0.000612495
-0.00037434
0.00144178
-0.001091
0.000253097
0.0010144
-3.41784e-05
0.0023001
-0.000918537
-0.0013935
0.000601718
0.000777353
-0.00137907
2.34329e-05
-7.51733e-05
0.000197948
-0.00147768
0.000296831
0.000213104
-0.000509539
-0.00206052
0.000258683
1.78452e-05
1.07087e-05
-0.000724461
-0.000911362
-0.000437438
0.000717479
-0.00158275
-0.000842262
0.000573601
0.000237161
0.00210944
-0.00183266
-0.000287717
-0.00179356
0.00147438
0.000299861
2.64499e-05
-0.000754501
0.00153446
0.000798215
-0.000360682
-0.000813517
-0.000436452
0.000400924
0.000589793
-0.00100194
-0.000481485
0.000201372
-0.00203518
0.000140515
0.00188534
-0.000138306
0.000455161
-0.000319256
-3.16123e-05
-1.94851e-05
0.000351274
-0.00166688
0.00128681
2.45891e-05
-9.2057e-05
2.10982e-05
-0.00217836
0.000703081
0.0014726
-0.00132924
0.00133433
-2.97521e-05
-0.001561
-0.000613678
0.000903404
-0.000145325
-9.68635e-05
3.40103e-06
0.000827433
-0.000473264
-0.000355449
-0.000393628
0.000164632
0.000938881
-0.000857862
-0.000111222
9.12942e-05
-0.00213661
0.00116273
-0.00158922
0.00136003
-0.0013068
0.00021794
-0.000657985
-0.00103855
0.00121804
0.000901108
-0.000750476
-0.00198849
0.00118862
-0.000484646
0.00113566
-0.000657437
0.000745561
-0.000845956
8.14263e-05
-0.000221827
0.000469922
-0.000242196
-5.87659e-05
2.09423e-05
3.22852e-05
0.000415601
2.58522e-06
-0.000924123
-0.000828448
0.00174751
-0.000121965
8.6335e-05
-0.00203333
0.00211435
-0.000274339
0.000713736
-0.000439941
0.000420501
-0.00138377
0.000522584
0.000198804
-0.000721557
8.58965e-05
-0.000273415
-0.00125593
-0.000734367
0.00198924
-8.01183e-05
0.000183635
-0.000698941
0.000210512
0.000446076
-0.000322192
0.000986451
-0.000706922
6.72657e-05
-0.000618301
0.000538468
9.48349e-05
0.000193349
-0.000399683
-0.000570025
0.000962876
0.000270965
-0.000751474
0.000476161
0.000274368
0.000434303
-0.000711648
0.00207932
-2.40715e-05
-5.01709e-06
-0.000611967
0.000903396
-0.000292919
0.000470357
0.000887008
-0.00143979
0.000981597
-0.00103682
0.000318713
0.000392557
0.000963511
0.00136917
0.000701672
0.000269946
0.000272792
-9.43861e-05
0.000112488
-7.39755e-05
0.000279441
-0.000500578
0.000666597
-0.00053069
-0.000296875
-0.00153365
-0.00162147
-0.000419559
0.000583498
0.00144211
0.000291791
-0.00042173
-0.0018167
0.00225868
-0.00107876
-0.00045396
-0.000564389
0.0012535
-0.000690012
0.000246908
-0.00187164
0.000754015
-0.00131889
-0.000486301
0.000641796
-0.000157147
-2.64517e-05
-3.81697e-05
0.000431864
0.000561564
-0.000416429
0.000202677
0.000213489
0.000359645
-0.00155172
-0.00101365
0.00101567
-5.00482e-05
0.00108586
0.000400094
-0.0012466
0.00138249
-0.000167193
0.00108135
-0.000460377
-0.00162582
0.00208918
-0.000472821
0.00199119
-0.000729695
-0.000773806
0.00137549
0.000256684
5.77649e-05
-0.000360375
0.000532847
-0.000239358
-0.00050282
0.000278747
0.000223534
0.000588107
0.00148231
-0.00207707
0.00145421
-0.000985044
-0.000650533
-9.30441e-06
-7.13457e-06
1.58446e-05
-0.000763658
-3.29307e-05
4.88646e-05
-1.62796e-05
0.00024028
-0.000853833
0.000342092
-0.00113202
0.000368283
0.000314016
-0.000685327
0.000597028
-8.84931e-05
-0.000510791
9.62945e-05
-7.30448e-05
0.00159002
0.000488056
-0.00208656
-0.00207263
0.000650695
0.00142082
0.000465239
0.000739442
-0.000313638
-0.000620083
0.000926479
0.000269497
-0.000174696
0.000546553
-0.000349791
-0.000197934
-0.00122731
-0.000680253
0.000649648
0.000865743
0.000878298
-0.00174627
-0.000485647
-0.00028629
0.000690036
-0.000407277
0.000871537
-0.000443775
0.000723842
-0.00215678
-2.10094e-05
-0.00118319
0.00122371
-9.00252e-05
0.00069711
2.11552e-05
7.13688e-05
-0.00122705
0.00156744
5.15129e-05
-3.88503e-05
-0.000724018
0.000512389
0.000154309
-2.80051e-05
-0.000459566
-0.000600002
0.00119595
0.00085463
7.67562e-05
-5.9021e-05
0.000635165
0.00058704
-0.000906541
0.00143323
0.000341629
-0.000918974
0.000537039
9.8574e-05
2.2869e-05
-0.000143365
-0.000435342
0.00024419
2.38411e-05
-0.000410613
0.00054991
-0.000911055
0.00140913
-0.00148963
-0.000754579
0.000224899
0.000748562
-0.00200556
-0.000994796
0.000596676
0.000387144
-0.000225727
-0.000190735
-0.000142361
-0.000313188
-0.00152008
-0.000402824
-0.00110338
0.000402598
-1.26242e-05
2.93773e-06
-0.000376845
-0.000876379
0.00171429
-0.000850196
-0.000791772
0.000444425
0.000344915
0.00137437
0.00070739
0.000730717
-0.000365862
0.000656298
-0.001264
0.000594102
0.00107941
-0.000423371
-0.000689432
-0.000596878
-0.00115572
0.00173985
0.00150874
-0.00051994
-0.00100287
0.000703178
-0.000180711
0.000420843
0.000526218
-0.00095235
0.000762823
0.00010272
0.00144069
-0.00223202
0.00057808
-0.000143752
-0.00128142
0.000355747
0.000912558
0.000312717
-0.000959627
8.4175e-05
0.000769547
0.00181217
-0.00112931
-0.00153092
0.00136589
0.00122013
-0.000238774
-0.00100176
0.00050906
-0.000685979
0.00119689
0.000806234
0.000195069
-0.000512434
0.00178066
-0.00128033
-0.00064126
0.000351914
0.000397088
0.000649457
0.0021605
-0.000877687
-0.00128865
0.000891773
-0.000663646
-9.00757e-05
0.00205778
-0.000460697
-2.03145e-05
8.19686e-05
-9.74194e-05
0.000420032
-0.000236364
0.00170133
-3.36538e-05
-0.00168578
-0.000462799
0.000254394
0.000301686
0.000170558
-0.000472761
0.000685131
-0.000426476
-0.000256119
-0.00172939
0.00100348
0.000665647
-0.000170902
0.000234251
-2.38875e-05
-2.63074e-06
-0.000817871
4.90394e-05
0.000714106
4.24162e-05
-2.65461e-05
-0.000664912
-0.000115419
-2.45964e-06
1.07421e-05
-8.86976e-06
-0.0022196
0.000648576
0.00156634
0.000531644
1.67652e-05
5.68472e-05
-0.00072487
0.00122643
-0.000501955
-0.00163347
-0.0010237
0.000298171
0.00132487
-0.000368718
-0.000990447
2.51735e-05
-1.11283e-05
-1.75265e-05
-2.42418e-05
4.25414e-05
-2.90164e-05
0.00130099
-0.000932686
0.000979316
-0.000498902
-0.000479591
0.00073546
4.20937e-05
-0.000783708
-0.00111549
-2.41706e-05
-7.28445e-07
5.25745e-05
-9.19235e-05
-0.000262715
0.000177974
3.74258e-05
0.00157709
-0.000384774
-0.00121423
0.000543641
0.00022083
-0.000767301
-0.000655967
-0.000585018
0.00124103
0.00091674
0.000283211
6.67858e-05
-5.31986e-05
-0.000474604
0.000530954
-0.000189963
0.00173413
-0.000869681
-0.000584985
0.00145269
0.00018799
-0.00045357
0.000265042
-0.00160007
0.000471915
0.000285651
-0.000758435
0.00129919
-0.00203479
0.000562511
0.00121124
-0.000527538
0.000793157
8.08225e-05
-0.000388664
-0.00111821
0.00118829
0.00108769
-0.000967936
0.00152228
-0.000129505
0.000857394
0.000493675
0.00050934
0.000828463
0.0021589
-1.28823e-05
1.06905e-05
0.000564165
-0.000659415
0.00022557
0.000210715
0.00119687
-0.000356644
-0.000860186
0.000225506
-0.00172033
0.00147811
-0.00145885
0.00217488
-0.000221894
-0.000518348
0.000459472
-0.00228361
0.000212989
-0.000542255
0.00104055
-0.000498123
0.00100901
-0.000595153
-0.000504192
0.000972813
-0.000568887
7.48215e-06
3.77847e-05
0.000359105
0.000930365
0.000439259
0.000386536
9.5973e-05
0.000498633
-0.000486901
-0.00162853
0.000462306
-0.000160951
0.00089734
-0.000301718
-0.000620951
-5.4453e-05
2.10847e-05
6.54153e-06
4.07877e-05
-0.00127609
0.00202387
0.000287057
-0.000580141
0.000292199
0.000263566
-0.00176108
0.00148228
-0.000548936
0.00189485
-0.0013672
-0.000453338
0.000312501
0.00124629
-0.00110492
-0.000161082
2.22514e-05
-5.54861e-05
-0.000313091
0.000590716
-0.00027937
-0.00204
-5.01164e-05
-0.000311906
-0.000168181
0.0004788
-8.21167e-05
0.00116496
-0.000269288
0.000410168
-0.000247298
-0.000162976
0.000418868
-1.59887e-05
-0.000403057
0.00063813
-3.22845e-05
0.000952408
0.000541012
0.000191905
0.000280277
-0.000473135
-0.00104119
0.000145169
0.000348992
-0.00143015
0.000642864
0.000783295
-0.000746892
-0.000774481
-0.00168701
0.000414446
0.00125569
0.000415664
-0.00035463
0.00129142
-0.000945207
-0.000363169
-0.000962994
0.0013145
0.000564726
-0.000341743
-0.000130885
7.47649e-05
-3.47103e-05
-0.000244849
-0.0015684
0.000957125
-0.000590637
-0.000536547
0.000222914
-0.000686137
0.00162941
-0.000954515
0.000693485
-0.000753182
0.00194026
-0.000311162
-0.000146752
0.000687339
-0.000156217
9.81741e-05
-0.000247581
8.65803e-05
-0.00157202
2.33534e-05
1.43779e-05
-0.00158978
0.0011063
0.000446726
-5.73362e-05
0.000296499
-0.000310912
-0.00044071
-6.10911e-05
-0.00042155
-8.34148e-05
9.89227e-05
-2.07371e-05
-0.00207466
0.000553133
0.00151699
6.29997e-07
-0.00069816
0.000178218
0.000231753
-1.24101e-05
1.21875e-05
-6.48683e-06
0.000534282
0.00104655
-0.00159597
0.000633491
-0.000650069
1.20925e-05
-0.00144874
0.000577458
-0.00102964
0.000177501
0.000850203
0.000288294
-0.000247701
-8.6728e-05
0.0023766
-0.000302658
0.000910796
-0.000439975
-0.00118978
0.000345041
-0.000634933
0.000288263
-0.000134964
0.000691066
-0.000291306
-0.000580529
-0.000409592
-0.000743806
0.00114643
0.000346329
-0.000250487
0.00170671
0.00066255
0.00161561
-0.000276131
-0.00135613
-5.22148e-05
4.98094e-05
0.00113332
-0.0006298
0.00144736
-0.000822885
-0.00165458
5.08081e-05
0.00159753
0.00161763
4.47257e-05
0.000712413
-0.00112905
6.32186e-05
-0.000203656
-0.00100127
0.00152086
-0.00065271
0.000584141
-0.000506532
-0.000855126
0.00135999
0.00112038
-0.000648456
-0.000696453
0.000940066
0.00020129
0.000629454
-0.00074349
0.000121283
0.000619596
0.000411154
0.00189685
-0.00165054
0.000221707
-0.000996302
0.000775143
0.000754975
-0.000483883
0.000729085
-0.00074748
-0.000388784
0.000672937
-0.000283184
0.00062199
0.0015323
-0.000362883
-0.000522511
0.000885783
-0.00108545
0.000542986
0.000689728
-0.000385743
-0.000306188
0.000200129
-0.000855649
0.00065281
-0.000879021
0.0016716
-0.000803417
0.000633959
-0.00145609
0.00211626
0.000603184
-0.000276892
0.000308082
-0.000502649
0.0015765
-0.00109821
-3.05862e-05
-3.62581e-05
4.22303e-05
-0.00101951
0.000360715
-4.01568e-05
8.41227e-07
3.84197e-05
9.45374e-05
3.01217e-05
-0.000129652
0.000247356
0.000200594
-0.000448238
0.000629884
0.000241995
-0.00127984
-9.23476e-05
0.00133772
-0.000324124
-0.000336425
0.000471967
-0.000135727
-0.000545092
-2.66314e-05
-0.000181222
-0.000680559
-0.000174807
0.000331415
0.000111454
0.000307255
-6.83987e-05
0.000609638
0.000290567
0.000396228
-0.00198639
0.00151549
0.000456065
0.000409135
0.000353194
0.00113662
-0.00067337
0.000499829
0.000480077
0.000997254
-0.000691022
-0.000616797
0.000995236
-0.00120536
0.000789978
-6.31609e-05
-0.0018983
0.000339343
-0.000699369
0.00019616
0.000496457
0.000169994
-0.000164883
0.00120622
-0.00176765
0.00108156
-0.000333526
0.000556024
-0.000844362
0.00048195
-0.00028658
-0.000216732
-0.000855817
0.000867207
-3.73376e-05
0.000323468
-0.000943032
0.000608072
-0.000537462
0.000838893
-0.00167927
-0.00143326
0.00164229
0.000136057
0.000787509
-0.000923591
-4.61366e-05
-1.93569e-05
-0.000240445
0.000384911
-0.000144513
-2.17491e-05
0.000111293
-0.000143202
0.000771681
0.00104456
0.000101467
-0.00118137
0.000991433
-0.00138329
0.000388284
-0.000133597
-0.000654782
0.000966028
-0.000377604
0.00100152
-0.000239438
-0.000771308
-0.00157151
-0.000270106
-8.20299e-05
-5.20027e-05
-0.000910111
-0.00150009
0.000682643
-0.0020168
0.00132787
-0.000375287
0.00170696
-0.00135164
-0.000361118
2.44898e-05
0.000348499
0.000104621
0.000166711
0.000732967
-0.000472627
0.00154009
-0.00109276
1.09587e-05
-0.000368804
-0.00032307
0.0004472
-0.000269263
-0.000661907
0.000859387
0.00221905
-0.00102432
-0.00189957
0.000669732
0.00120324
-0.000479235
0.000166135
-0.000127448
2.05337e-05
0.00196235
-4.08294e-06
-0.000413484
0.000236797
0.00017649
-0.000985037
-0.000411081
0.00135965
0.000894639
-0.000760451
-0.00016072
-0.000552971
0.000586251
-0.00149515
0.000483194
-0.00109276
0.000609803
0.00101722
0.000264714
-0.00130625
-0.000139812
-4.18533e-05
0.0018107
-0.000938657
-0.000870667
-0.000447982
0.00022645
0.000373348
-0.00100003
0.000292533
0.0013073
0.000429738
-0.00187385
0.00142881
0.000886934
-0.000721559
-0.000208157
-0.000357054
0.000569511
-0.000823645
8.17568e-05
1.41653e-05
-0.000103162
-0.00147276
0.000583612
-0.000230229
-0.000521261
0.000707601
-7.38632e-05
-0.000135893
-0.000639452
5.46887e-05
4.99278e-05
-2.11331e-05
0.000563295
0.000728454
-0.00129291
-0.00127948
0.00130424
6.17083e-06
-0.00131842
-0.0015229
-0.000701607
0.00156136
-6.88302e-05
-0.000321031
0.000389644
0.000378385
-0.000652963
0.00143659
-0.000625842
0.000840503
-0.000618554
0.00115745
-0.000148553
-0.000890876
0.0013512
0.00164504
-0.00100056
0.000517834
-0.000792404
-0.00183507
0.000404108
0.00140073
-0.0013771
0.00134872
-0.000194276
0.000391139
-0.000196883
-0.00085223
-3.36962e-05
-0.000950843
0.000813844
3.42107e-05
-0.000915772
0.00141577
-6.48279e-05
-0.000424459
0.000138924
0.00028539
-0.000218493
8.25278e-05
0.00172004
-0.000855515
-0.00128832
-0.000371706
-0.000634756
0.000103016
0.000528558
0.000532012
-0.00122813
0.000548697
-0.00139669
0.000836789
-0.000256371
-0.000796807
0.0011379
-0.00042685
0.00204781
-0.000982571
-0.00217517
0.000521386
0.00165128
0.000210263
0.00025229
-0.000463954
-0.00108909
-0.000307288
0.00138716
0.000107996
0.000398407
0.00163481
0.000313948
0.000676609
0.000676965
-0.000512274
0.000169261
8.02643e-05
-0.00091505
0.00108916
-0.000173577
-0.000920607
0.00124437
-0.00138782
0.00090226
-0.00050075
-0.000541424
0.000184597
0.000349088
-0.000152773
-0.00085449
-0.000234371
-0.000983878
-0.000514689
-0.000911052
0.000151908
-0.00034934
-4.50421e-05
2.1772e-05
2.20167e-05
0.000135789
0.000930859
0.000260882
0.000302666
0.000935826
-0.001382
-0.000721803
0.000650722
0.000340099
-0.000545566
0.000857219
-0.00178279
0.000918994
0.000543772
0.000496762
5.93211e-05
0.000107753
-6.9461e-05
-0.000499797
2.31001e-05
0.000188571
-0.00146572
0.000477557
-0.000661102
-0.000247601
0.000902842
-0.0005629
0.000539667
1.22884e-05
-0.000940771
-0.00019981
0.00111662
-0.00185499
0.0012859
3.42628e-05
-1.4034e-05
0.000212941
0.000617562
-0.00127345
-0.00141224
0.00041525
-0.000701521
0.000717877
-0.000221415
-0.000498967
-0.000224193
-0.000995894
0.00180983
-0.00129513
-0.000517467
0.00122045
-0.000575627
0.00130601
-0.000962059
0.000287396
0.000674402
-0.00155429
-0.000522437
0.00207012
0.000556797
0.000827824
-0.00138651
0.000384172
-0.000524158
0.000411705
0.000185057
-0.000841366
0.00142534
0.000225342
-0.000566016
0.000339233
-0.000385749
0.000420001
-6.58591e-05
0.000804475
-0.000632838
0.00120183
0.000413765
0.00106045
0.000168637
-1.8052e-05
-2.85297e-05
-0.000569759
-0.00031495
0.00085946
0.000130881
-0.00100637
0.000874979
-0.0014628
0.00207873
-0.000587518
0.000349778
0.000826123
-0.000881569
0.00100137
-0.000156614
0.00149009
0.000623443
0.000952615
-0.00144773
0.000782837
0.000154736
0.00073048
0.0013794
-0.0020764
0.00069505
-0.000887881
0.000357665
0.000526778
-0.000982324
-0.000292328
0.00127433
3.20222e-05
-8.4775e-05
-0.00153011
0.000229507
0.00126803
-0.000830457
0.00187382
-0.00104863
0.00212882
-0.00199805
-0.000124584
0.000713951
-0.000600132
-0.000442454
8.5744e-06
-0.00110658
1.44236e-05
-0.000588446
-0.00143451
0.0018488
-0.00138663
0.00068747
0.000699226
-0.00111588
0.000153476
0.000300013
0.000254734
0.000337602
0.000310309
-0.000650988
0.00196886
-6.75642e-06
0.000383126
0.000377038
-0.000763714
-6.5941e-05
-1.08224e-05
7.53167e-05
-0.000333611
0.000250822
0.00206405
-0.00144079
-0.000648329
-0.00049321
0.000685882
-0.000193471
-0.00156184
0.000884315
0.000674826
5.71775e-05
-0.000472343
-2.56229e-05
-2.45494e-05
0.00118461
-0.000856322
-0.000683014
-0.000300341
2.89895e-05
-0.000172285
0.000137179
0.000326812
0.000835252
-0.000330167
-0.000811003
0.000290359
0.000759615
-0.00106131
0.000589902
-0.000303916
-0.00206127
0.000790794
0.00149694
-0.000414199
0.000281682
-0.000517807
-0.000187372
-0.000508546
0.000960617
-0.00045364
-0.000584232
-4.76813e-05
0.000210904
0.000514819
0.000642513
-0.00115824
-0.000504218
0.000758412
-0.000258747
4.8076e-05
-0.000244451
0.000189492