/*--------------------------------*- C++ -*----------------------------------*\
| =========                 |                                                 |
| \\      /  F ield         | OpenFOAM: The Open Source CFD Toolbox           |
|  \\    /   O peration     | Version:  v2012                                 |
|   \\  /    A nd           | Website:  www.openfoam.com                      |
|    \\/     M anipulation  |                                                 |
\*---------------------------------------------------------------------------*/
FoamFile
{
    version     2.0;
    format      ascii;
    class       surfaceVectorField;
    location    "600";
    object      ddtCorrDdt0(Uf);
}
// * * * * * * * * * * * * * * * * * * * * * * * * * * * * * * * * * * * * * //

dimensions      [0 1 -2 0 0 0 0];


internalField   nonuniform List<vector> 
20642
(
(0.0126512 -0.00250465 -2.54517e-19)
(0.0126022 -0.00257183 -1.16267e-17)
(0.0125007 -0.00253679 -9.87161e-18)
(-0.0117539 0.00639397 -1.64009e-19)
(-0.0124756 0.00701915 3.11333e-19)
(-0.011229 0.00741473 -6.21155e-19)
(0.000856493 0.00508107 -1.08793e-18)
(0.000841291 0.00508422 2.86845e-18)
(0.000828087 0.00510103 -2.78823e-18)
(0.000604627 0.00252439 1.58127e-18)
(0.000578921 0.00259629 1.06911e-18)
(0.000536752 0.00253096 -1.01223e-18)
(-0.0113988 -0.00551511 -1.8596e-19)
(-0.0139258 -0.0057053 -1.67742e-19)
(-0.012381 -0.00388834 1.59722e-19)
(-0.0107541 0.0056268 -1.18686e-19)
(-0.011772 0.00487734 4.70876e-19)
(0.00150061 0.00358156 1.08689e-18)
(0.00146837 0.00355191 6.53135e-18)
(0.00146087 0.00359867 -1.16546e-18)
(-0.014173 0.0266589 3.70904e-19)
(-0.0164952 0.0289406 -3.66409e-19)
(-0.0122095 0.0293837 1.03958e-18)
(0.00233982 0.00306253 -9.49241e-19)
(0.00228249 0.00309005 1.02001e-18)
(0.00233455 0.00314185 -1.02272e-17)
(-0.000155016 -0.00352958 -1.54873e-18)
(0.00011941 -0.00386057 -1.2992e-17)
(-0.0118007 0.0249647 -8.46226e-19)
(-0.015251 0.0241533 1.16191e-18)
(-0.000513007 0.00234282 1.35688e-18)
(-0.000513738 0.00242163 -4.30352e-18)
(-0.000438533 0.00235711 -2.60386e-18)
(-0.00017581 4.10523e-05 3.38241e-19)
(-0.000137034 3.59409e-05 9.17492e-19)
(0.126898 0.0128464 2.56119e-18)
(0.129082 0.0125713 3.87911e-18)
(0.129106 0.00647125 1.70578e-18)
(-0.0057104 0.00362083 -1.78793e-20)
(-0.0058983 0.00354468 1.68041e-19)
(-0.00586495 0.00378416 -1.04539e-20)
(0.0126967 -0.00237235 1.03524e-18)
(0.0128795 -0.00251457 1.03339e-17)
(0.0010178 -5.08929e-05 -1.73045e-19)
(0.000991032 -5.72e-05 -1.30038e-19)
(0.000743698 -2.781e-05 -1.20238e-19)
(-0.00963579 0.0233497 -1.79103e-18)
(-0.00777707 0.0218852 5.30061e-19)
(-0.0105099 0.0212644 -4.64154e-19)
(0.000712049 0.00523371 -1.69485e-18)
(0.000745351 0.00524749 -1.64783e-19)
(0.000711085 0.00527867 4.53236e-18)
(0.0118282 -0.00266477 -5.97997e-18)
(0.011172 -0.00296206 -2.01046e-18)
(0.011309 -0.00270911 -1.16296e-17)
(0.000543782 0.00843167 2.30025e-19)
(0.000894379 0.00865246 -1.24919e-18)
(0.000502553 0.00885966 8.93992e-19)
(-0.00409766 0.000923854 -1.65e-19)
(-0.00401214 0.0010155 5.71631e-20)
(-0.00417883 0.00102385 -4.97856e-19)
(0.0010931 0.00427746 -2.07808e-18)
(0.00114361 0.00429683 -8.90348e-19)
(0.00106261 0.00432117 3.27976e-18)
(-0.00416855 0.000792466 -3.87726e-19)
(-0.00403003 0.000807548 1.74754e-19)
(0.000223946 0.00358379 -5.38737e-18)
(0.000288066 0.00361695 -8.56999e-19)
(0.000205828 0.00365513 2.20625e-18)
(0.000198249 0.0103447 5.19052e-19)
(0.000315037 0.00982892 1.32273e-19)
(-0.000247701 0.00999565 2.60962e-19)
(0.0323665 -0.0100234 -9.38392e-19)
(0.029262 -0.010819 -1.07491e-18)
(0.0300963 -0.00704934 5.3837e-19)
(0.00126444 -0.00325629 1.79578e-17)
(-0.00269512 0.0160285 -2.14414e-19)
(-0.00198181 0.0151337 2.01026e-19)
(-0.00337226 0.0150018 2.44183e-19)
(-0.00280239 0.00437304 -1.27385e-19)
(-0.00321477 0.00442928 -9.19132e-19)
(-0.00295755 0.00400998 -6.38589e-20)
(-0.00145139 -0.00263452 -3.31709e-18)
(-0.000357977 -0.00370111 8.8438e-18)
(0.00118867 0.00511892 -1.51899e-18)
(0.00117384 0.0051665 -4.69394e-19)
(0.00112842 0.00511845 -4.3328e-18)
(4.55022e-05 0.00296144 -2.2523e-18)
(-1.12367e-05 0.00290393 2.48095e-19)
(7.00699e-05 0.00287878 -1.83665e-18)
(0.0115175 -0.000933951 3.57223e-18)
(0.0115499 -0.000723328 7.20736e-19)
(0.0109485 -0.000187689 4.63367e-18)
(-0.0010559 -0.00270962 -1.56576e-19)
(-0.00103002 -0.00255545 -4.90553e-20)
(-0.000860348 -0.00265696 7.94908e-20)
(-0.0201906 0.0301697 -1.56298e-18)
(-0.0178368 0.0337895 -1.53796e-19)
(-0.00204003 0.00495955 9.60994e-19)
(-0.0018757 0.00500141 -8.61923e-20)
(-0.00203491 0.00516492 -7.48743e-19)
(-0.00131704 -2.13083e-07 -2.67191e-19)
(-0.00167817 -1.06171e-05 -1.05177e-19)
(-0.00125838 -2.09323e-06 -6.74141e-19)
(0.00152134 0.0036092 -2.11634e-18)
(0.0015372 0.0035613 -1.86087e-18)
(0.00304339 0.00563097 2.0644e-19)
(0.00331315 0.00548633 1.5344e-18)
(0.0029785 0.00533184 5.14078e-19)
(0.000590981 -8.0325e-06 1.2536e-20)
(0.000477655 -1.50257e-06 -1.85345e-19)
(0.000871095 3.91287e-05 -1.76978e-21)
(0.00474396 -0.00369893 1.94716e-19)
(0.00512344 -0.00403678 -2.2259e-19)
(0.00464463 -0.00416938 -1.13131e-19)
(0.00215557 0.00268535 -4.5877e-18)
(0.00207124 0.00270169 2.30277e-18)
(0.0021122 0.00261714 5.20176e-18)
(0.000778901 0.00515436 2.46034e-18)
(0.000781221 0.00516004 -1.27616e-18)
(0.000780555 0.00515965 -7.57987e-18)
(0.000782397 0.00515105 4.15941e-18)
(0.000773949 0.00515486 -7.80998e-19)
(-0.00969287 0.00471439 4.7545e-19)
(-0.00857748 0.00490144 -1.20403e-18)
(-0.00980899 0.00592012 4.11328e-18)
(0.00020479 0.00812614 3.46148e-19)
(0.000572 0.00796803 9.19649e-20)
(0.00875558 -0.0191496 1.26397e-17)
(0.00779379 -0.0153578 5.9329e-18)
(0.0114646 -0.0168233 -2.45534e-18)
(-0.0276988 0.0311852 -1.2417e-19)
(-0.0196934 0.0490493 2.03398e-18)
(-0.0245783 0.0312045 2.35748e-19)
(-0.00117906 -0.00275077 3.27807e-19)
(-0.00104628 -0.00288031 -1.47933e-19)
(-0.000586645 0.0023364 8.82734e-18)
(-0.000516911 0.00227267 2.42109e-18)
(-0.00249571 0.00480889 -2.28664e-18)
(-0.00295845 0.00475486 4.15121e-18)
(-0.00264075 0.00437471 2.05742e-19)
(0.00556632 -0.00185862 3.41164e-18)
(0.00493229 -0.00151333 1.26435e-18)
(0.00511474 -0.00195773 -2.9828e-18)
(-0.00200406 0.00242534 -4.18169e-19)
(-0.00197486 0.00233022 1.75908e-19)
(-0.00208834 0.00237493 -4.7827e-19)
(-0.00184886 0.00262563 -1.35087e-18)
(-0.00183747 0.00253165 5.7226e-20)
(-0.00173657 0.0025569 1.60749e-18)
(-0.00222067 0.00481342 4.96334e-18)
(-0.00238012 0.00521251 1.98541e-18)
(0.00215603 -0.00313596 -1.65373e-17)
(0.0010525 0.00424549 -4.17125e-18)
(0.00111244 0.00422474 -1.76882e-18)
(0.00442381 -0.00339204 1.18814e-19)
(0.00479799 -0.00321289 1.77869e-19)
(-0.010782 0.0044023 3.77182e-18)
(-0.0098892 0.00342911 -1.72315e-18)
(0.0455441 0.0405799 -2.96768e-18)
(0.0552631 0.043539 5.44578e-19)
(0.0618529 0.04232 -7.59648e-19)
(0.0128158 0.00865911 -4.56964e-19)
(0.0160092 0.00619994 -8.33105e-19)
(0.0109136 0.00400037 -3.13791e-19)
(-0.000485833 9.34132e-05 4.35947e-20)
(-0.000460676 0.000105102 -2.03475e-20)
(-0.000590103 0.000150641 -2.59731e-20)
(0.000248215 0.00350002 -4.75062e-18)
(0.000164253 0.00353723 -2.8945e-18)
(0.0033467 0.000550639 -2.66237e-18)
(0.00420801 0.000117576 -9.34462e-18)
(0.00659043 -0.000438089 -1.61939e-17)
(0.016528 0.0247967 4.17428e-20)
(0.0126853 0.0249878 2.13747e-19)
(0.0147931 0.0204287 -1.81057e-19)
(-0.00349571 0.0169992 -2.46208e-19)
(-0.00439978 0.0180731 -4.63588e-19)
(-0.00511192 0.0167902 1.3498e-19)
(-0.022125 0.0266724 -9.97671e-19)
(-0.0241082 0.0315752 -7.58871e-19)
(-0.0084446 0.0256365 -5.01416e-19)
(0.00973938 -0.00115351 -3.31441e-18)
(0.0104128 -0.00154303 3.06363e-18)
(0.00989661 -0.00149296 -1.92571e-18)
(0.000307119 0.00327331 8.99441e-18)
(0.00107568 0.00312255 -1.33857e-19)
(-0.000610494 0.0027287 9.56349e-18)
(0.0118381 -0.00126857 3.38312e-18)
(0.0113897 -0.000990722 5.59637e-18)
(0.000656731 0.00151947 -1.01056e-18)
(0.000689216 0.00155922 4.7549e-18)
(0.000624966 0.00157121 -6.83255e-19)
(0.00410805 -0.00314797 1.38088e-19)
(0.00402726 -0.0035327 -3.22687e-19)
(0.00131307 0.00885068 -1.00948e-18)
(0.00129666 0.00842168 -1.58772e-18)
(-0.00020573 0.00418247 -6.29085e-18)
(-0.00011415 0.0042227 -4.1446e-19)
(-0.000240609 0.00427388 3.062e-18)
(-0.00752098 -8.57264e-05 -1.33241e-20)
(-0.00795228 7.35706e-06 1.00818e-21)
(-0.00748638 0.000436464 1.16594e-19)
(0.00383151 -0.00293769 1.07939e-19)
(0.00414836 -0.00276614 8.8072e-20)
(-0.000160711 0.00406899 2.02243e-18)
(-0.000300149 0.00412022 5.49637e-19)
(3.32753e-05 0.00301211 6.50731e-19)
(0.000104662 0.0029912 -4.8203e-19)
(-0.00350512 0.00288869 -2.1325e-20)
(-0.00358985 0.00278863 -4.75009e-19)
(-0.00342557 0.0027537 7.38332e-19)
(0.000686002 -9.04731e-05 1.76979e-19)
(0.000737838 -8.60901e-05 3.34014e-19)
(0.000508803 -4.71509e-05 2.92212e-19)
(0.000692481 0.00146446 -3.68761e-18)
(0.000625895 0.00147274 -2.16734e-18)
(0.000887591 0.00682508 -6.93915e-18)
(0.000762408 0.00641287 3.52483e-18)
(0.00113166 0.00665074 -7.32088e-18)
(-0.00117952 0.00033146 2.69216e-19)
(-0.00118387 0.000375792 -1.76507e-18)
(-0.00122823 0.000349989 -3.40448e-18)
(0.00731275 0.0294548 1.30416e-18)
(0.00997893 0.0295403 2.50367e-19)
(0.00773384 0.0319397 7.44089e-19)
(0.00124758 0.00511806 -3.79574e-19)
(0.00119888 0.00506998 5.51431e-18)
(-0.00119762 0.000173474 -2.43203e-19)
(-0.00124002 0.000168876 -1.56222e-18)
(-0.00122214 0.000123725 6.59029e-20)
(0.00274642 0.00575216 6.82714e-19)
(0.00303435 0.00597751 -6.48748e-19)
(0.00102417 -4.32746e-05 2.54876e-19)
(0.00114158 -7.75129e-05 -5.38475e-20)
(0.00136568 -0.000101764 7.66448e-20)
(0.0013797 -8.45657e-05 9.15462e-20)
(0.00140612 -0.000111001 1.01833e-19)
(0.00218642 0.00275722 1.97198e-18)
(-0.0346234 0.0109382 -7.1809e-19)
(-0.0276431 0.0254443 -2.30042e-19)
(-0.00102509 -0.00221056 -1.41802e-19)
(-0.00102472 -0.00223499 2.16007e-19)
(-0.000996118 -0.00221183 -7.7066e-20)
(-0.00235616 0.00326438 1.11437e-18)
(-0.00244418 0.0031888 1.28279e-19)
(-0.00249884 0.00332168 2.00138e-18)
(-0.00196865 0.0171727 -6.54599e-19)
(0.028222 0.00670024 8.86845e-20)
(0.026687 0.00509832 -1.25076e-19)
(0.0264253 0.00785565 1.47024e-19)
(-0.000397866 -0.000128109 -2.62339e-19)
(-0.000455825 -0.000125376 2.86229e-19)
(-0.000481743 -6.95715e-05 -1.7557e-19)
(-0.00117499 0.000210567 8.27381e-19)
(-0.00116424 0.000168996 1.8389e-19)
(0.0166639 0.00230198 2.69068e-19)
(0.015308 0.00356502 -2.10083e-20)
(0.0167443 0.00424723 -2.03988e-19)
(0.000523268 6.76939e-05 -6.34599e-20)
(0.000562205 6.3077e-05 -1.14268e-20)
(0.000406076 3.28314e-05 -1.05587e-20)
(0.000490747 7.37911e-05 -2.72857e-20)
(0.000570349 0.000106626 8.77182e-21)
(-0.00357063 0.00299998 8.97246e-19)
(-0.00341139 0.00295777 1.19829e-18)
(-0.00061715 -0.000220331 1.97417e-20)
(-0.00067685 -0.000207958 2.22053e-19)
(-0.000676579 -0.000159473 4.67184e-19)
(-0.00701994 -0.000177194 1.1073e-19)
(-0.00735312 -0.000716862 4.53523e-19)
(-0.000566681 -8.23549e-05 -1.55022e-19)
(0.000158806 -0.000116999 -4.83211e-18)
(-0.000938863 -0.000929554 -8.02001e-19)
(0.0129716 -0.00406601 1.52379e-19)
(0.0123646 -0.00416991 8.46449e-18)
(0.0120759 -0.00467694 -3.70382e-18)
(0.00803269 0.0102311 -2.30713e-19)
(0.0137473 0.0130598 -2.46692e-19)
(0.00559652 -0.00378043 6.37762e-20)
(0.00554031 -0.00437026 2.96922e-19)
(0.0353698 -0.00806732 -9.82861e-19)
(0.0343157 -0.0136332 8.55385e-19)
(0.000157762 0.00012175 -5.71398e-18)
(0.000175009 0.000149599 -1.8184e-18)
(0.0115272 -0.000493189 4.40113e-18)
(0.0121086 -0.00117328 -2.76287e-19)
(-0.00139119 0.0143445 -3.45361e-20)
(-0.00082892 0.0152076 1.65129e-19)
(0.00292308 0.000796937 -4.33534e-18)
(0.00083214 0.00112509 8.40621e-18)
(-0.000380792 0.00462502 1.45234e-18)
(-0.000254432 0.00465338 -2.11041e-18)
(-0.000332228 0.00449658 1.33567e-18)
(0.000674946 0.00521315 8.4321e-19)
(0.000711439 0.00519456 4.1013e-18)
(0.0014806 2.42436e-05 -1.1919e-20)
(0.00155831 3.76007e-05 1.57279e-21)
(0.00151557 2.5844e-05 -7.38247e-21)
(0.000823316 0.0051044 6.42384e-18)
(0.000807993 0.00509119 3.51869e-18)
(0.000774822 0.00511631 6.19975e-18)
(0.000779482 0.00112083 -1.67196e-18)
(0.000761958 0.00117227 -1.94664e-19)
(0.000728118 0.00111807 -2.41915e-18)
(0.000754526 -0.000135233 -1.00774e-19)
(0.000616944 -8.68382e-05 9.85976e-20)
(0.00320868 -0.00309464 -5.6057e-20)
(0.00289638 -0.00310002 2.63771e-19)
(0.00301075 -0.00284125 7.07253e-20)
(-0.00537454 0.0192321 -1.38004e-18)
(-0.00349178 0.0194468 -1.32191e-19)
(2.49531e-05 0.00517974 -3.7789e-19)
(-0.000103113 0.00515913 -3.37958e-18)
(1.32394e-05 0.00503709 -7.8658e-18)
(0.000375041 -0.00127525 -1.91891e-18)
(-0.000703817 -0.000737633 3.71976e-18)
(0.001047 -0.00116268 2.25467e-18)
(0.000140242 0.00703772 -1.15758e-18)
(0.000844274 0.00735958 -7.23047e-18)
(0.000268038 0.00342635 -1.78773e-19)
(0.000288513 0.0033522 -3.85252e-18)
(0.000212459 0.00337777 5.86796e-19)
(0.00132762 0.00934457 1.27606e-18)
(0.00176242 0.00904443 -1.99365e-19)
(-0.00291193 -0.00149605 2.85968e-19)
(-0.0028085 -0.0015707 5.33987e-19)
(-0.00279374 -0.00142944 -1.58408e-19)
(0.000143344 0.00516654 6.04655e-18)
(6.33126e-05 0.00527689 6.06228e-18)
(0.00204685 0.00409357 8.3895e-18)
(0.00198651 0.00411472 -4.64544e-18)
(0.00204815 0.00415217 5.38631e-18)
(-0.00238841 -0.0104331 -8.93017e-19)
(-0.00235097 -0.00889547 -1.68049e-18)
(-0.0037418 -0.00995131 1.22343e-18)
(5.29481e-05 -0.00306428 4.09575e-18)
(-0.000446453 -0.00330371 1.82585e-18)
(-0.000511281 -0.00243075 -8.28481e-18)
(-0.000429941 0.00476694 3.84516e-19)
(-0.000508749 0.00461217 2.29338e-19)
(0.000974183 0.00518742 -1.24563e-18)
(0.000966659 0.00515473 -1.15081e-17)
(0.000936616 0.0051854 3.19349e-18)
(0.0380447 -0.00538714 -8.28421e-19)
(0.0350845 -0.00330373 -1.68231e-19)
(0.0614754 0.0466083 2.18051e-18)
(0.0457815 0.0443994 6.9725e-21)
(0.0405485 0.0437168 6.27427e-20)
(-0.00309911 -0.00240852 -1.43335e-18)
(-0.00289505 -0.0024652 -1.16611e-18)
(-0.00326304 -0.00260884 5.01379e-19)
(-0.000213077 0.0114514 6.22471e-21)
(7.52952e-05 0.0108801 -1.146e-19)
(-0.000637749 0.0110364 2.19261e-20)
(-0.0013143 -5.83735e-06 -5.51616e-19)
(-0.053107 0.201124 8.76347e-20)
(-0.0527456 0.201345 -9.17604e-20)
(-0.052863 0.217118 -2.07739e-19)
(0.00351561 -0.00303099 1.77457e-19)
(0.00356321 -0.00271803 -1.24321e-19)
(-0.00129937 -0.00012958 -2.39349e-20)
(-0.00122443 0.000524564 5.30746e-18)
(-0.00269112 0.000682597 7.44236e-19)
(-0.00266861 0.00061774 2.72498e-19)
(-0.00275035 0.000631854 -8.04149e-19)
(0.000491578 0.00144963 3.53421e-19)
(0.000524019 0.00149696 7.40404e-19)
(0.000462875 0.00151035 -1.90888e-18)
(0.00982355 -0.00253396 2.77309e-19)
(0.00924745 -0.00177504 -1.20948e-19)
(0.0088648 -0.00265476 -1.21332e-19)
(0.00064688 0.00383309 -2.00328e-18)
(-0.000544282 0.00335805 1.40334e-18)
(0.00956524 -0.0434228 4.72145e-19)
(0.00784596 -0.0127696 -7.13232e-18)
(0.00925885 -0.0113946 -1.22847e-17)
(0.00467813 -0.0125292 1.50104e-17)
(-0.00192417 0.00248323 1.69097e-18)
(-0.00204523 0.0025356 -1.20733e-18)
(0.00247753 0.00582375 7.36745e-19)
(0.00224453 0.00588862 -6.9045e-19)
(0.00243025 0.00612752 5.58511e-19)
(0.000274488 8.19617e-05 -1.94143e-20)
(0.000336318 9.03719e-05 2.76401e-20)
(0.000311632 0.000147569 -2.43249e-20)
(0.000457349 0.00140498 1.00628e-18)
(0.000515008 0.00139021 -1.93482e-18)
(0.0298209 0.00520385 -8.53525e-20)
(0.0295169 0.00813052 -1.85221e-19)
(-0.00466355 -0.000265216 -3.24131e-19)
(-0.00477913 -0.000351856 -4.29427e-20)
(-0.00465871 -0.000383727 -2.89975e-20)
(-0.000556488 -0.000236302 -5.32886e-19)
(-0.000577618 -0.000282149 -4.31774e-19)
(-0.000390158 -0.00450717 -8.81528e-19)
(-0.000344775 -0.00490719 -6.34236e-19)
(-0.000428372 -0.00457866 -3.59245e-18)
(0.00119639 2.60675e-05 -4.31208e-20)
(0.0011847 2.73661e-05 -1.70454e-20)
(0.000859141 1.10076e-05 1.32839e-22)
(0.00142929 2.33761e-05 -2.24324e-20)
(0.00133007 1.20531e-05 -1.99514e-20)
(-0.00169839 0.000670541 -1.17102e-19)
(-0.00172701 0.000719805 2.70843e-19)
(-0.00176384 0.000676098 1.21702e-18)
(0.0205002 0.0086022 -6.13709e-18)
(0.0190313 0.00737979 1.18448e-18)
(0.0213821 0.00699006 3.68688e-18)
(-0.00369338 0.00618148 3.76023e-19)
(-0.00335332 0.00609424 -2.89001e-19)
(-0.00362595 0.00588105 -9.98077e-20)
(-0.0381126 0.145102 -3.86951e-19)
(0.0428024 0.0127885 5.87379e-18)
(0.0417993 0.00953625 -7.45439e-18)
(0.0390323 0.0124585 2.78198e-18)
(0.0210527 0.00230567 -8.6625e-19)
(0.0192132 0.00164507 6.26221e-19)
(0.0195415 0.00366883 -4.64598e-19)
(0.00611613 -0.0019224 -9.62182e-18)
(0.0482284 -0.00741642 1.65559e-18)
(0.0523671 0.00201354 3.42421e-18)
(0.0547523 0.000774784 -5.99785e-18)
(-0.00116863 0.000668133 6.52393e-21)
(-0.00120045 0.000743546 1.53495e-20)
(-0.00125273 0.000678212 -2.79427e-21)
(-0.000377662 0.0123839 -9.13278e-20)
(0.00056658 0.0118429 -2.85284e-20)
(-0.00432014 0.000739957 1.34091e-20)
(-0.00447873 0.000682306 1.76732e-19)
(-0.00443869 0.000839182 -6.76382e-20)
(-0.000311766 0.00530346 -6.00799e-20)
(-0.000421651 0.00419261 -1.44432e-18)
(-0.000566809 0.00439484 -6.34435e-18)
(0.00235819 0.00298862 -7.71961e-18)
(0.0307652 0.034034 2.42386e-18)
(0.035865 0.0385224 -2.58562e-18)
(0.0286659 0.0376273 -2.14054e-19)
(-0.000132535 0.00212302 -1.83584e-20)
(-0.000114973 0.00234223 -3.61638e-18)
(-0.000322464 0.00226577 2.12257e-18)
(0.000854967 5.44787e-05 1.41716e-19)
(0.00100311 8.23491e-05 3.31861e-20)
(0.000860918 4.96492e-05 6.38748e-20)
(0.000671741 0.00252579 -9.71869e-20)
(0.000633212 0.00246379 7.78377e-19)
(-0.0034157 0.00482949 4.08567e-18)
(-0.00406023 0.00487109 -9.72514e-18)
(-0.0036764 0.00434007 -5.4641e-18)
(0.00210817 0.00405216 -3.69963e-18)
(0.00204468 0.00402479 -2.72948e-18)
(-0.00369552 0.00653847 -1.98646e-19)
(-0.00401524 0.00627199 3.19647e-19)
(0.00201305 0.00271405 -2.2765e-18)
(0.00197201 0.00265632 -2.32822e-19)
(0.00193534 0.00273306 -9.9904e-19)
(-0.00420391 0.000661977 -3.10969e-19)
(-0.000649145 0.00232783 2.27422e-18)
(-0.000647477 0.00239987 7.03445e-19)
(-0.00170959 0.00840566 -2.8104e-18)
(-0.00139672 0.00801758 -1.26752e-18)
(-0.00129877 0.00868329 2.20658e-18)
(0.000862953 0.00508867 -8.37021e-18)
(0.000868999 0.00505633 -3.44319e-18)
(-0.000611562 -0.0109951 -1.22704e-18)
(-0.00203192 -0.0127418 -2.6187e-18)
(-0.000655971 0.00225529 -6.70942e-18)
(-0.000722371 0.00231718 3.08851e-19)
(-0.00226675 0.00886525 -6.48718e-18)
(-0.00222077 0.00816065 -2.89458e-18)
(-0.00248927 0.00470364 -5.54754e-20)
(-0.00238612 0.00422769 -4.73135e-20)
(0.00496616 0.0287232 -2.18425e-19)
(0.00734367 0.0268069 -1.3935e-18)
(7.88108e-05 0.00193697 1.3967e-18)
(-0.000246761 0.00182458 2.82507e-18)
(0.000780778 0.00513787 5.81176e-18)
(0.000794215 0.00514027 -5.67877e-18)
(-0.000852209 0.00688864 5.34483e-18)
(-0.000696943 0.00660802 -5.55206e-19)
(-0.00104356 0.00660155 2.71904e-18)
(0.0124877 -0.00261941 -8.19688e-18)
(0.0122749 -0.00271272 -3.84541e-18)
(0.012382 -0.0026121 2.99707e-18)
(-0.00104554 -0.00222014 9.00505e-20)
(-0.00104037 -0.0021924 5.67356e-20)
(0.00246143 -0.000975273 -3.8e-18)
(0.000733451 -0.000395648 5.73973e-18)
(0.00171361 -0.00104458 1.33891e-18)
(0.000909818 0.00408014 -1.02055e-18)
(0.000920244 0.00414993 2.22198e-19)
(0.000854092 0.00412662 -3.53849e-19)
(0.000933766 -0.00274301 9.55591e-19)
(0.000883488 -0.00356827 3.13374e-18)
(-0.000964491 -0.00244023 -6.60591e-20)
(-0.00111031 -0.00247064 3.17602e-19)
(-0.00455593 -0.000203466 -2.16434e-20)
(-0.00465177 -0.000126657 -9.83018e-20)
(-2.14638e-06 0.00749035 1.63893e-18)
(0.000264107 0.0072993 -2.86685e-19)
(-6.62587e-06 0.00714634 -4.13594e-19)
(0.0113882 -0.00173324 8.53342e-19)
(0.0108771 -0.00164981 1.91563e-18)
(0.0108373 -0.00142261 -8.09279e-19)
(-0.00310865 -0.00228376 1.90733e-18)
(-0.00146644 -0.0021831 3.127e-18)
(-0.00269079 0.00450948 -6.74082e-19)
(-0.00269887 0.00468594 -7.50766e-19)
(-0.00286646 0.00458633 6.70841e-20)
(0.0254223 -0.0196995 -2.11701e-19)
(0.0230866 -0.0175901 -1.102e-18)
(0.0224189 -0.0231914 2.98175e-18)
(-0.00490086 0.0110129 1.21947e-19)
(-0.00556939 0.0106012 1.50226e-19)
(-0.00484318 0.0102182 -2.248e-20)
(0.00249819 0.00555849 7.76333e-19)
(0.00340041 -0.00336958 8.38195e-20)
(-0.00316874 0.00527948 5.01901e-18)
(-0.00365192 0.00267892 -5.78712e-19)
(-0.00374734 0.00280618 -2.62506e-19)
(-0.00202063 -0.00111593 3.15838e-19)
(-0.00196023 -0.00106168 -3.62615e-19)
(-0.00194593 -0.00114945 -1.9007e-19)
(-0.0212157 -0.0156263 2.51452e-19)
(-0.0159804 -0.0158509 -1.33973e-18)
(-0.0183113 -0.012024 -1.7435e-18)
(-0.0277555 -0.0187077 -6.483e-19)
(-0.0286168 -0.013011 4.5604e-19)
(0.0146247 -0.0126943 -3.12793e-18)
(0.001005 0.0051671 -7.04372e-18)
(0.00100253 0.00521117 -2.04617e-18)
(0.00070752 0.0106959 -2.25332e-19)
(0.0160086 -0.00214205 3.86295e-20)
(0.0165335 -0.00162929 6.16492e-18)
(0.0156627 -0.00140788 9.53545e-18)
(-0.00176625 1.83557e-05 -1.55742e-18)
(-0.00171309 2.11746e-06 -8.15876e-19)
(-0.00174773 4.27021e-05 4.281e-19)
(0.00214672 -0.000578167 2.38211e-20)
(0.00217306 -0.000622928 -2.42729e-20)
(0.00208948 -0.000603562 -9.57377e-21)
(0.00219587 -0.000552481 1.17395e-20)
(0.00212242 -0.00053038 1.83724e-19)
(0.0404067 -0.0129082 -3.69768e-18)
(-0.00126752 0.00767008 -9.42372e-19)
(-0.00104193 0.00722779 3.58434e-18)
(-0.00155216 0.00729172 3.94425e-18)
(-0.00280426 0.00951317 -3.55405e-18)
(-0.00354242 0.0101333 -2.72025e-18)
(-0.00355713 0.00917731 -3.12123e-18)
(-0.000157724 0.000380254 1.37094e-18)
(-0.000150239 0.000426553 -4.78349e-19)
(-0.000109323 0.000386949 -3.16601e-19)
(-0.00051428 8.14133e-05 5.01334e-21)
(-0.000361281 4.85878e-05 3.09012e-22)
(0.040253 -0.0082783 -1.23504e-18)
(0.040483 -0.00289314 -6.34085e-19)
(0.00324568 -0.000867086 -2.85645e-19)
(0.00191265 -0.000560982 -1.71145e-19)
(0.00197047 -0.000558551 2.76794e-19)
(0.0019363 -0.000599477 -1.44504e-19)
(0.00184786 -0.000556665 -2.2966e-20)
(0.00188665 -0.000524504 2.54486e-19)
(0.000839706 -8.58471e-06 -7.12462e-20)
(0.000420253 -8.42535e-06 -1.44372e-20)
(0.00224732 -0.000524999 -5.36817e-21)
(0.00228214 -0.000565021 -1.13101e-19)
(0.00229328 -0.000490349 -3.92284e-20)
(0.00222243 -0.000478628 -1.28679e-19)
(0.0119989 -0.00158398 2.82956e-18)
(0.0121622 -0.00160094 3.55412e-18)
(0.0200618 -0.0105726 1.17252e-18)
(0.0230491 -0.0114643 2.1493e-18)
(0.0227275 -0.00806377 5.94175e-18)
(-0.00392322 0.00192388 6.86893e-20)
(-0.00385037 0.00182918 1.40625e-20)
(-0.00380235 0.0019304 3.37385e-19)
(-0.0014199 0.00122317 4.31473e-20)
(-0.00144081 0.00132312 2.29631e-20)
(-0.00132601 0.00127477 -1.07936e-20)
(-0.000542929 0.00399672 1.43632e-18)
(-0.000527777 0.00376781 1.97278e-18)
(-0.000363307 0.00390334 3.97971e-18)
(0.00858078 0.000247996 1.84597e-18)
(0.00951185 -0.000471688 -3.28596e-18)
(0.00932814 -2.10091e-06 -6.52352e-18)
(0.0013463 7.43358e-06 -1.27135e-20)
(0.00116201 1.12989e-05 3.17805e-19)
(0.00116163 1.06163e-05 4.53987e-20)
(-0.000201032 0.000374704 -9.29645e-19)
(-0.000163197 0.000343055 -7.20353e-20)
(0.028092 -0.0151261 -4.88661e-19)
(0.0299147 -0.0204315 -9.67979e-19)
(-0.00204393 -4.63831e-05 -2.85301e-18)
(-0.00274639 0.000195427 -4.74678e-20)
(-0.00269755 0.000705467 2.92349e-18)
(-0.000887063 0.00788953 -4.61339e-18)
(0.0155296 -0.0024225 -5.44818e-18)
(0.0159153 -0.00275928 -1.3207e-17)
(-0.00203351 0.00156074 -4.20468e-18)
(-0.00185948 0.00111883 -8.02693e-19)
(-0.00240621 0.00118734 -6.06003e-19)
(-0.00264334 0.000720542 -5.63773e-21)
(-0.00271636 0.000740918 -1.3982e-19)
(0.0497274 0.00174968 6.00241e-18)
(0.0528055 0.00734522 1.67881e-18)
(-0.000474979 0.00416395 -1.89131e-18)
(-0.000649176 0.00413616 -1.7426e-18)
(-0.00100109 0.0136732 -1.65297e-20)
(-0.0020905 0.0137498 1.36554e-20)
(0.000715289 0.00489816 1.62262e-18)
(0.000673976 0.00492417 -3.30013e-18)
(0.000720147 0.00494467 1.7523e-18)
(-0.00268043 0.00434815 2.57743e-19)
(-0.00252467 0.0044257 -2.27602e-19)
(0.0190662 -0.00970199 -1.23858e-17)
(0.000749525 0.0012227 8.93516e-19)
(0.000706984 0.00122304 2.84532e-18)
(0.000737338 0.00127652 3.31391e-20)
(0.0020702 0.003558 -2.50274e-18)
(0.00212372 0.003478 3.54528e-19)
(0.00198473 0.00347133 -3.12624e-18)
(9.12158e-05 0.00249273 -1.02921e-18)
(0.000277043 0.00270195 1.035e-18)
(0.000351922 0.00248915 -3.5372e-18)
(-0.00418538 0.0019014 2.75508e-19)
(-0.00404293 0.00190914 3.66121e-19)
(-0.00412718 0.00180403 -2.32955e-19)
(0.000477543 9.30782e-06 -8.94218e-21)
(0.000323878 0.00346874 2.19223e-18)
(-0.00411384 -0.00641204 -8.19859e-20)
(-0.00390012 -0.00484186 -7.57932e-20)
(-0.00257034 -0.00536819 -1.94841e-20)
(-0.00131557 -0.00225802 -3.08776e-19)
(-0.00125527 -0.00213822 -7.15824e-20)
(-0.00142777 -0.00212265 -2.59098e-19)
(-0.00186966 0.000500553 -1.79815e-18)
(-0.000732252 7.78475e-05 3.43841e-18)
(-0.00139243 -0.000118134 5.86918e-19)
(-0.00996955 0.113015 -3.32473e-19)
(0.00913567 0.106122 -1.44966e-18)
(0.00469276 0.102589 1.67242e-18)
(0.00188543 -0.00387975 -2.44492e-20)
(0.00159119 -0.00374756 1.65648e-19)
(0.00185298 -0.00357717 -4.04341e-20)
(0.00180575 -0.00058207 1.65206e-20)
(0.00179108 -0.000536105 -4.22557e-19)
(-0.00492249 -0.00028009 -1.9633e-19)
(-0.00488357 -0.000456074 -1.30994e-19)
(0.00181998 -0.000626518 9.7945e-20)
(0.00176199 -0.000601134 3.28516e-19)
(0.000797412 0.00122049 -2.64935e-18)
(-0.000269774 7.20439e-05 1.66562e-18)
(-0.000204016 3.74347e-05 3.7921e-19)
(0.00123696 0.00382634 5.89358e-18)
(0.00122028 0.0038173 1.47718e-18)
(0.00123692 0.00379822 -1.68484e-18)
(0.00218664 -0.00402448 -2.14066e-20)
(0.00188515 -0.00425996 -5.79491e-21)
(-0.00206412 -0.00274182 -2.05927e-18)
(-0.00184865 -0.00302114 -1.07708e-18)
(0.0137105 -0.00399736 3.72955e-18)
(0.0141227 -0.00339209 5.06588e-18)
(-0.000993075 0.00191595 -2.84773e-18)
(-0.000923066 0.00185846 -1.00577e-18)
(-0.00101171 0.00184527 -1.08104e-18)
(-0.00523079 -0.00269127 -7.20026e-21)
(-0.00561161 -0.00333997 1.43289e-20)
(-0.00607846 -0.00267468 4.91605e-22)
(-0.0115458 0.00416211 2.13339e-18)
(-0.0117702 0.00254206 -6.1451e-18)
(-0.0133097 0.00378363 -1.59464e-18)
(0.00225828 3.51407e-05 -2.96666e-21)
(0.00228678 6.90888e-05 -2.33408e-20)
(0.00223332 6.96718e-05 1.35862e-19)
(0.0134635 0.00512456 -4.51254e-19)
(0.0139614 0.00417731 -5.69283e-19)
(0.0126144 0.00421938 -7.79056e-20)
(-0.00224417 0.001144 -1.74772e-18)
(-0.00283569 0.000781801 2.77518e-18)
(0.00223115 5.06686e-06 -1.00705e-20)
(0.00228706 4.93627e-06 -6.12398e-20)
(0.00964893 -0.000783363 -2.69546e-18)
(0.00901874 -0.000637372 -4.05666e-18)
(-0.0013295 -0.002424 2.6291e-19)
(-0.00121942 -0.00235384 -2.02879e-19)
(0.0170368 0.0102487 9.54445e-18)
(0.0215569 0.0101953 -1.21923e-18)
(0.000822901 5.52898e-05 2.16124e-20)
(0.000618208 2.40102e-05 -1.15667e-20)
(-0.00544245 0.0037192 6.54522e-20)
(-0.00540533 0.00365656 -6.05821e-20)
(-0.00532526 0.00371591 1.27864e-19)
(-0.00432332 0.00190662 3.73959e-19)
(-0.00423419 0.00201584 -3.54322e-19)
(-0.00283138 0.000412486 -8.21106e-19)
(-0.00281429 0.000336991 2.23261e-19)
(-0.00274946 0.000386232 -4.04301e-19)
(0.000870085 0.00590602 1.64805e-18)
(0.000790508 0.00580901 7.52207e-18)
(0.000931784 0.00575814 2.49005e-18)
(-0.00158791 -5.78612e-05 -2.30969e-19)
(-0.00160906 -4.90006e-05 -2.40799e-19)
(-0.00149849 -2.73808e-05 -1.91692e-19)
(0.022856 0.00311825 -6.0754e-19)
(0.0225166 0.000762617 -1.8369e-19)
(0.0011952 0.00454126 3.21516e-19)
(0.00125745 0.00461783 1.75066e-18)
(0.00114653 0.00462659 2.21099e-19)
(0.01025 -0.00343784 -5.74004e-21)
(0.0105452 -0.00229357 4.88677e-19)
(0.0166058 -0.0187359 -6.10254e-19)
(0.0196762 -0.0164112 1.7007e-18)
(0.0163003 -0.0145319 3.98814e-18)
(-0.00225459 -0.00253583 2.39105e-18)
(0.00146774 3.47286e-06 5.83072e-20)
(0.00146475 1.11008e-05 7.49154e-20)
(0.000716637 0.0040384 -2.38378e-19)
(0.000663954 0.00408857 7.27874e-18)
(0.000753492 0.00411262 -1.13514e-18)
(-0.00760638 -0.00707764 3.45207e-19)
(-0.00576339 -0.00682105 4.19864e-20)
(-0.00682112 -0.00539874 5.77441e-20)
(-0.000474668 0.00489592 -9.84844e-19)
(-0.00052694 0.00503865 9.40734e-20)
(-0.000618005 0.00489016 -1.09647e-18)
(-0.00985218 -0.00653287 2.97063e-20)
(-0.00982305 -0.00443326 1.24394e-19)
(-0.000124614 0.00397388 3.06827e-18)
(-4.80893e-05 0.00402626 -2.90561e-18)
(-0.00102917 -0.00226034 7.49225e-20)
(-0.00107115 -0.00228092 -5.32717e-19)
(-0.00101527 -0.00229675 4.80817e-21)
(-0.00155447 -8.51032e-05 -1.03108e-20)
(-0.00155476 -5.75837e-05 -5.83874e-20)
(-0.00414664 0.00326938 2.06894e-18)
(-0.00463326 0.00368999 -4.1747e-20)
(-0.00389975 0.00380574 2.98728e-19)
(-0.0322588 0.0198432 1.30055e-18)
(-0.0333498 0.0189102 2.46668e-19)
(-0.0384443 0.0115299 2.21662e-18)
(0.00197659 0.00364372 2.48905e-18)
(0.00212446 0.00367767 -1.16077e-18)
(-8.69913e-05 0.00388114 1.12832e-18)
(-0.000198693 0.0039152 -2.02911e-19)
(-0.000236922 0.000369351 -1.35926e-19)
(-0.000243636 0.000329247 1.20411e-19)
(-0.000275754 0.000361583 4.79762e-18)
(-0.000414654 -0.00397712 3.49671e-18)
(1.99356e-05 -0.00441678 1.06898e-18)
(0.0117701 -0.00196087 1.85024e-18)
(0.0117879 -0.00203078 8.07803e-19)
(-0.00246269 -0.00173621 1.91214e-19)
(-0.00234638 -0.00177378 3.4309e-19)
(-0.00236818 -0.00164439 -3.35958e-19)
(0.00421792 0.00189775 6.47385e-20)
(0.00439464 0.00203865 1.54751e-20)
(0.00414237 0.00209845 4.67683e-20)
(-0.000339713 0.00490834 -1.58485e-19)
(-0.059079 -0.0569878 -8.44589e-19)
(-0.0609389 -0.0811025 7.96222e-19)
(-0.0645575 -0.0624463 -1.04664e-18)
(0.000529842 0.00521601 -1.7282e-18)
(0.00049714 0.00519288 -1.58914e-18)
(0.000506991 0.00522859 3.62233e-18)
(0.013826 -0.00372485 -1.81793e-18)
(0.0130541 -0.00389354 9.89927e-18)
(0.0127297 -0.00395234 2.248e-18)
(0.0329544 0.03188 -1.73464e-19)
(0.0285175 0.0316602 -5.82293e-19)
(0.00595912 0.0329907 5.9507e-19)
(0.00991222 0.029334 1.95532e-19)
(0.010975 0.0347478 -1.61481e-19)
(-0.00235993 -0.00693134 -1.62439e-18)
(-0.000807171 -0.00729817 -1.41688e-18)
(-0.00500084 -0.00207033 6.8539e-22)
(-0.00456239 -0.00243169 1.02789e-19)
(0.000729802 0.00604292 7.35629e-18)
(0.000501948 0.00604059 4.18319e-18)
(-0.0462249 -0.0532678 8.05307e-19)
(-0.055754 -0.0312126 5.21325e-19)
(0.000849811 0.0051553 -4.03208e-18)
(0.000850864 0.00513247 -9.81559e-19)