/*--------------------------------*- C++ -*----------------------------------*\
| =========                 |                                                 |
| \\      /  F ield         | OpenFOAM: The Open Source CFD Toolbox           |
|  \\    /   O peration     | Version:  v2012                                 |
|   \\  /    A nd           | Website:  www.openfoam.com                      |
|    \\/     M anipulation  |                                                 |
\*---------------------------------------------------------------------------*/
FoamFile
{
    version     2.0;
    format      ascii;
    class       pointVectorField;
    location    "600";
    object      pointDisplacement;
}
// * * * * * * * * * * * * * * * * * * * * * * * * * * * * * * * * * * * * * //

dimensions      [0 1 0 0 0 0 0];


internalField   nonuniform List<vector> 
14386
(
(0 0 0)
(0.0206902 0.210085 0)
(0 0 0)
(0.0206902 0.210085 0)
(0 0 0)
(0 0 0)
(0 0 0)
(0 0 0)
(0 0 0)
(0 0 0)
(0 0 0)
(0 0 0)
(0 0 0)
(0 0 0)
(0 0 0)
(0 0 0)
(0 0 0)
(0 0 0)
(0 0 0)
(0 0 0)
(0 0 0)
(0 0 0)
(0 0 0)
(0 0 0)
(0 0 0)
(0 0 0)
(0 0 0)
(0 0 0)
(0 0 0)
(0 0 0)
(0 0 0)
(0 0 0)
(0 0 0)
(0 0 0)
(0 0 0)
(0 0 0)
(0 0 0)
(0 0 0)
(0 0 0)
(0 0 0)
(0 0 0)
(0 0 0)
(0 0 0)
(0 0 0)
(0 0 0)
(0 0 0)
(0 0 0)
(0 0 0)
(0 0 0)
(0 0 0)
(0 0 0)
(0 0 0)
(0 0 0)
(0 0 0)
(0 0 0)
(0 0 0)
(0 0 0)
(0 0 0)
(0 0 0)
(0 0 0)
(0 0 0)
(0 0 0)
(0 0 0)
(0 0 0)
(0 0 0)
(0 0 0)
(0 0 0)
(0 0 0)
(0 0 0)
(0 0 0)
(0 0 0)
(0 0 0)
(0 0 0)
(0 0 0)
(0 0 0)
(0 0 0)
(0 0 0)
(0 0 0)
(0 0 0)
(0 0 0)
(0 0 0)
(0 0 0)
(0 0 0)
(0 0 0)
(0 0 0)
(0 0 0)
(0 0 0)
(0 0 0)
(0 0 0)
(0 0 0)
(0 0 0)
(0 0 0)
(0 0 0)
(0 0 0)
(0 0 0)
(0 0 0)
(0 0 0)
(0 0 0)
(0 0 0)
(0 0 0)
(0 0 0)
(0 0 0)
(0 0 0)
(0 0 0)
(0 0 0)
(0 0 0)
(0 0 0)
(0 0 0)
(0 0 0)
(0 0 0)
(0 0 0)
(0 0 0)
(0 0 0)
(0 0 0)
(0 0 0)
(0 0 0)
(0 0 0)
(0 0 0)
(0 0 0)
(0 0 0)
(0 0 0)
(0 0 0)
(0 0 0)
(0 0 0)
(0 0 0)
(0 0 0)
(0 0 0)
(0 0 0)
(0 0 0)
(0 0 0)
(0 0 0)
(0 0 0)
(0 0 0)
(0.0225413 0.139413 0)
(0.0224727 0.14203 0)
(0.0224041 0.144648 0)
(0.0223356 0.147265 0)
(0.022267 0.149883 0)
(0.0221985 0.1525 0)
(0.0221299 0.155118 0)
(0.0220613 0.157735 0)
(0.0219928 0.160353 0)
(0.0219242 0.16297 0)
(0.0218557 0.165588 0)
(0.0217871 0.168205 0)
(0.0217185 0.170823 0)
(0.02165 0.17344 0)
(0.0215814 0.176058 0)
(0.0215129 0.178675 0)
(0.0214443 0.181293 0)
(0.0213757 0.18391 0)
(0.0213072 0.186528 0)
(0.0212386 0.189145 0)
(0.0211701 0.191763 0)
(0.0211015 0.19438 0)
(0.0210329 0.196998 0)
(0.0209644 0.199615 0)
(0.0208958 0.202233 0)
(0.0208273 0.20485 0)
(0.0207587 0.207468 0)
(0.0180727 0.210016 0)
(0.0154552 0.209948 0)
(0 0 0)
(0 0 0)
(0 0 0)
(0 0 0)
(0 0 0)
(0 0 0)
(0 0 0)
(0 0 0)
(0 0 0)
(0 0 0)
(0 0 0)
(0 0 0)
(0 0 0)
(0 0 0)
(0 0 0)
(0 0 0)
(0 0 0)
(0 0 0)
(0 0 0)
(0 0 0)
(0 0 0)
(0 0 0)
(0 0 0)
(0 0 0)
(0 0 0)
(0 0 0)
(0 0 0)
(0 0 0)
(0 0 0)
(0 0 0)
(0 0 0)
(0 0 0)
(0 0 0)
(0 0 0)
(0 0 0)
(0 0 0)
(0 0 0)
(0 0 0)
(0 0 0)
(0 0 0)
(0 0 0)
(0 0 0)
(0 0 0)
(0 0 0)
(0 0 0)
(0 0 0)
(0 0 0)
(0 0 0)
(0 0 0)
(0 0 0)
(0 0 0)
(0 0 0)
(0 0 0)
(0 0 0)
(0 0 0)
(0 0 0)
(0 0 0)
(0 0 0)
(0 0 0)
(0 0 0)
(0 0 0)
(0 0 0)
(0 0 0)
(0 0 0)
(0 0 0)
(0 0 0)
(0 0 0)
(0 0 0)
(0 0 0)
(0 0 0)
(0 0 0)
(0 0 0)
(0 0 0)
(0 0 0)
(0 0 0)
(0 0 0)
(0 0 0)
(0 0 0)
(0 0 0)
(0 0 0)
(0 0 0)
(0 0 0)
(0 0 0)
(0 0 0)
(0 0 0)
(0 0 0)
(0 0 0)
(0 0 0)
(0 0 0)
(0 0 0)
(0 0 0)
(0 0 0)
(0 0 0)
(0 0 0)
(0 0 0)
(0 0 0)
(0 0 0)
(0 0 0)
(0 0 0)
(0 0 0)
(0 0 0)
(0 0 0)
(0 0 0)
(0 0 0)
(0 0 0)
(0 0 0)
(0 0 0)
(0 0 0)
(0 0 0)
(0 0 0)
(0 0 0)
(0 0 0)
(0 0 0)
(0 0 0)
(0 0 0)
(0 0 0)
(0 0 0)
(0 0 0)
(0 0 0)
(0 0 0)
(0 0 0)
(0 0 0)
(0 0 0)
(0 0 0)
(0 0 0)
(0 0 0)
(0 0 0)
(0 0 0)
(0 0 0)
(0.0225413 0.139413 0)
(0.0224727 0.14203 0)
(0.0224041 0.144648 0)
(0.0223356 0.147265 0)
(0.022267 0.149883 0)
(0.0221985 0.1525 0)
(0.0221299 0.155118 0)
(0.0220613 0.157735 0)
(0.0219928 0.160353 0)
(0.0219242 0.16297 0)
(0.0218557 0.165588 0)
(0.0217871 0.168205 0)
(0.0217185 0.170823 0)
(0.02165 0.17344 0)
(0.0215814 0.176058 0)
(0.0215129 0.178675 0)
(0.0214443 0.181293 0)
(0.0213757 0.18391 0)
(0.0213072 0.186528 0)
(0.0212386 0.189145 0)
(0.0211701 0.191763 0)
(0.0211015 0.19438 0)
(0.0210329 0.196998 0)
(0.0209644 0.199615 0)
(0.0208958 0.202233 0)
(0.0208273 0.20485 0)
(0.0207587 0.207468 0)
(0.0180727 0.210016 0)
(0.0154552 0.209948 0)
(0.000112843 0.00532627 0)
(0.0212651 0.18811 0)
(0.0225081 0.140675 0)
(0.0219009 0.163857 0)
(0.000236902 0.0063859 0)
(-3.68989e-06 0.0030828 0)
(-1.53846e-05 0.00225017 0)
(2.85331e-05 0.00396204 0)
(0.000453662 0.00762182 0)
(-1.67381e-05 0.00160418 0)
(0.000658787 0.00730853 0)
(-2.13346e-05 0.00111615 0)
(0.000886695 0.00621773 0)
(0.00118251 0.00427778 0)
(-1.40047e-05 0.00109582 0)
(0.0208631 0.203068 0)
(-1.73229e-05 0.000972548 0)
(-1.22134e-05 0.000857759 0)
(-1.39304e-05 0.000824162 0)
(-9.62282e-06 0.000641546 0)
(-9.33942e-06 0.000575467 0)
(6.85538e-05 0.00480044 0)
(1.01566e-05 0.00394954 0)
(-1.14264e-05 0.00263508 0)
(0.0215532 0.17712 0)
(0.0221663 0.153726 0)
(-5.74753e-06 0.000373426 0)
(-5.78693e-06 0.000365143 0)
(0.000622793 0.00846989 0)
(0.0010567 0.00551679 0)
(0.000777549 0.00691668 0)
(0.000365979 0.00739052 0)
(0.000161656 0.00548463 0)
(-1.77956e-05 0.00149259 0)
(-1.64121e-05 0.0019074 0)
(-1.97359e-05 0.00107138 0)
(-2.07491e-05 0.00104831 0)
(-1.38037e-05 0.00101367 0)
(0.0210676 0.195581 0)
(-3.7081e-06 0.000238293 0)
(-3.05676e-06 0.000194894 0)
(0.00116335 0.00294866 0)
(0.000286833 0.00671827 0)
(0.000143198 0.00567884 0)
(8.89864e-05 0.00505987 0)
(5.84116e-05 0.0052051 0)
(1.77047e-05 0.00368529 0)
(1.90138e-06 0.00309455 0)
(-8.25138e-06 0.00290506 0)
(-1.43134e-05 0.00252757 0)
(-7.27504e-06 0.000477827 0)
(-1.81895e-05 0.00104413 0)
(-1.69117e-05 0.00177162 0)
(-2.45706e-05 0.00121183 0)
(-7.79768e-06 0.000487287 0)
(-9.57542e-06 0.000581764 0)
(-1.12183e-05 0.000769507 0)
(-1.7021e-05 0.00151615 0)
(-1.24365e-06 7.96582e-05 0)
(0.0189095 0.058886 0)
(0.0186422 0.0578941 0)
(0.0185229 0.0638132 0)
(0.0182635 0.0626348 0)
(0.0181347 0.0684557 0)
(0.0183827 0.0698018 0)
(0.0179853 0.0742843 0)
(0.017747 0.0727902 0)
(0.0175934 0.0784098 0)
(0.0178192 0.0800459 0)
(0.017423 0.0839571 0)
(0.0172018 0.0822411 0)
(0.017024 0.0876285 0)
(0.0168089 0.0858244 0)
(0.0166271 0.0910274 0)
(0.0168333 0.0928435 0)
(0.0164351 0.0961 0)
(0.0162363 0.0941262 0)
(0.0160389 0.0990575 0)
(0.0162414 0.101479 0)
(0.0158205 0.103914 0)
(0.0156485 0.101656 0)
(0.0154318 0.106247 0)
(0.0155873 0.108532 0)
(0.0152029 0.110666 0)
(0.0153479 0.11296 0)
(0.0149607 0.114927 0)
(0.0148223 0.11261 0)
(0.0145809 0.116682 0)
(0.0147048 0.119039 0)
(0.0143238 0.120617 0)
(0.0144342 0.123021 0)
(0.0140502 0.124413 0)
(0.0141491 0.12685 0)
(0.0137617 0.128074 0)
(0.0136703 0.125611 0)
(0.0133779 0.129135 0)
(0.013457 0.131631 0)
(0.0130721 0.132532 0)
(0.0131359 0.13508 0)
(0.0127519 0.135787 0)
(0.012801 0.138423 0)
(0.0124135 0.138907 0)
(0.0124442 0.141517 0)
(0.0120565 0.141879 0)
(0.0120667 0.144369 0)
(0.0116951 0.144659 0)
(0.0116754 0.147082 0)
(0.0113176 0.147194 0)
(0.0112715 0.149657 0)
(0.0109104 0.14956 0)
(0.0108478 0.152113 0)
(0.0104812 0.151869 0)
(0.0104042 0.154384 0)
(0.0100348 0.154045 0)
(0.00994342 0.15648 0)
(0.00957341 0.156042 0)
(0.0094625 0.158427 0)
(0.00909194 0.157882 0)
(0.00895226 0.160264 0)
(0.00858769 0.15957 0)
(0.00841614 0.161941 0)
(0.00806402 0.161073 0)
(0.00786138 0.163437 0)
(0.00751436 0.162434 0)
(0.00728698 0.164783 0)
(0.00693985 0.163694 0)
(0.00669522 0.165969 0)
(0.00636114 0.164826 0)
(0.00608946 0.167017 0)
(0.00578656 0.165802 0)
(0.00547376 0.167929 0)
(0.00519893 0.166604 0)
(0.0048442 0.168624 0)
(0.00459796 0.167229 0)
(0.00420739 0.16913 0)
(0.00399573 0.167704 0)
(0.00357259 0.169539 0)
(0.00339215 0.168046 0)
(0.00294897 0.169808 0)
(0.00279141 0.168243 0)
(0.00233045 0.169929 0)
(0.00219367 0.168339 0)
(0.00170772 0.169944 0)
(0.00160528 0.168318 0)
(0.00109482 0.169795 0)
(0.00102889 0.16817 0)
(0.000505078 0.169495 0)
(0.000475314 0.16786 0)
(-6.80158e-05 0.169108 0)
(-6.49423e-05 0.167431 0)
(-0.000626651 0.168612 0)
(-0.000593765 0.166927 0)
(-0.00115654 0.167991 0)
(-0.00109161 0.166294 0)
(-0.000557375 0.165225 0)
(-0.00103641 0.164594 0)
(0.00319784 0.166395 0)
(0.00717536 0.161275 0)
(0.0110132 0.146873 0)
(0.0132908 0.126665 0)
(-0.000510013 0.163499 0)
(-0.000991155 0.162877 0)
(-0.00164398 0.167251 0)
(-0.000476617 0.161755 0)
(-0.000950487 0.161132 0)
(-0.00046587 0.159994 0)
(-0.000914102 0.159362 0)
(-0.000449428 0.158195 0)
(-0.000879869 0.157563 0)
(-0.000428857 0.156365 0)
(-0.000846449 0.15573 0)
(-0.000411933 0.154511 0)
(-0.000814203 0.153866 0)
(-0.00125376 0.155013 0)
(-0.00120175 0.153127 0)
(-0.00164478 0.154189 0)
(-0.00157335 0.152291 0)
(-0.00115241 0.151233 0)
(-0.00150685 0.150384 0)
(-0.00201264 0.153251 0)
(-0.00110574 0.149322 0)
(-0.0014457 0.148455 0)
(-0.00106087 0.147381 0)
(-0.00139071 0.146501 0)
(-0.00101181 0.145392 0)
(-0.00133756 0.144519 0)
(-0.000972649 0.143357 0)
(-0.00128912 0.142513 0)
(-0.000943519 0.141315 0)
(-0.00124786 0.140479 0)
(-0.000912334 0.139256 0)
(-0.00120648 0.138422 0)
(-0.00153827 0.139557 0)
(-0.00148558 0.137498 0)
(-0.00182112 0.138577 0)
(-0.00175053 0.136479 0)
(-0.00208694 0.137462 0)
(-0.00200366 0.135374 0)
(-0.00167958 0.134411 0)
(-0.00192996 0.133303 0)
(-0.00161367 0.1323 0)
(-0.00185539 0.131193 0)
(-0.00233525 0.13625 0)
(-0.00154943 0.13016 0)
(-0.00178209 0.129062 0)
(-0.00149332 0.128 0)
(-0.00171723 0.126919 0)
(-0.00144552 0.125825 0)
(-0.00165686 0.124752 0)
(-0.00139991 0.123635 0)
(-0.00159953 0.122569 0)
(-0.00185419 0.123601 0)
(-0.00178588 0.121418 0)
(-0.00203646 0.122363 0)
(-0.00195802 0.120192 0)
(-0.00172002 0.119228 0)
(-0.00187964 0.11801 0)
(-0.00166048 0.117011 0)
(-0.0018381 0.115709 0)
(-0.00160443 0.114791 0)
(-0.00175292 0.113565 0)
(-0.00212784 0.118813 0)
(-0.0015477 0.112599 0)
(-0.00169437 0.11143 0)
(-0.00149549 0.110378 0)
(-0.00163677 0.109223 0)
(-0.00144612 0.108141 0)
(-0.00158195 0.106999 0)
(-0.00174743 0.168937 0)
(-0.00140088 0.105892 0)
(-0.00152976 0.104768 0)
(-0.0017082 0.105789 0)
(-0.00164938 0.10357 0)
(-0.00182743 0.104498 0)
(-0.00176408 0.102304 0)
(-0.00159331 0.10136 0)
(-0.00170286 0.100134 0)
(-0.00154003 0.0991556 0)
(-0.00164546 0.0979723 0)
(-0.00187329 0.101001 0)
(-0.00148881 0.0969506 0)
(-0.00158649 0.0957803 0)
(-0.00143939 0.0947368 0)
(-0.00152948 0.0935672 0)
(-0.00139298 0.0925275 0)
(-0.00147745 0.0913733 0)
(-0.00134865 0.0903263 0)
(-0.00142894 0.089197 0)
(-0.00130683 0.0881354 0)
(-0.00138285 0.0870384 0)
(-0.00150225 0.0880102 0)
(-0.00145153 0.085878 0)
(-0.00156819 0.0867608 0)
(-0.00151347 0.0846566 0)
(-0.00140289 0.0837645 0)
(-0.00146123 0.0825675 0)
(-0.00156878 0.0833818 0)
(-0.0015131 0.0813211 0)
(-0.00141123 0.080494 0)
(-0.0014601 0.0792793 0)
(-0.00136344 0.0784362 0)
(-0.00140944 0.0772528 0)
(-0.00131782 0.0763943 0)
(-0.00136084 0.075243 0)
(-0.00144942 0.0760211 0)
(-0.0013982 0.0740436 0)
(-0.0013143 0.0732532 0)
(-0.00134912 0.0720857 0)
(-0.00126956 0.0712847 0)
(-0.00130202 0.0701477 0)
(-0.00122659 0.0693357 0)
(-0.00125692 0.0682309 0)
(-0.00132961 0.0689664 0)
(-0.00128248 0.0670817 0)
(-0.00121357 0.0663347 0)
(-0.00123723 0.0652178 0)
(-0.00117182 0.0644606 0)
(-0.00119374 0.063375 0)
(-0.00113157 0.0626079 0)
(-0.00115187 0.0615543 0)
(-0.00121162 0.062249 0)
(-0.00116823 0.0604595 0)
(-0.0011115 0.0597561 0)
(-0.00112649 0.0586932 0)
(-0.00107257 0.0579811 0)
(-0.00108632 0.0569502 0)
(-0.00103507 0.0562298 0)
(-0.00104754 0.0552289 0)
(-0.00109655 0.0558827 0)
(-0.00105662 0.0541878 0)
(-0.00101002 0.0535303 0)
(-0.00101808 0.0525184 0)
(-0.000973697 0.051853 0)
(-0.000980923 0.0508732 0)
(-0.0022225 0.168089 0)
(-0.00235998 0.169746 0)
(-0.00283186 0.168817 0)
(-0.0030013 0.170457 0)
(-0.00093862 0.0502006 0)
(-0.000944919 0.0492573 0)
(-0.00098535 0.0498602 0)
(-0.000948356 0.0482812 0)
(-0.000909352 0.0476745 0)
(-0.000986519 0.0487947 0)
(-0.000948586 0.0472569 0)
(-0.00098302 0.0476584 0)
(-0.000946299 0.0461892 0)
(0.0124215 0.144275 0)
(-0.000603105 0.140003 0)
(-0.00122428 0.0891794 0)
(-0.00126169 0.10695 0)
(0.00312121 0.171272 0)
(0.010327 0.156844 0)
(0.00643484 0.168107 0)
(-0.00118506 0.124625 0)
(0.0213998 0.10819 0)
(0.0213026 0.112815 0)
(0.0211131 0.113013 0)
(0.0210099 0.11763 0)
(0.0208184 0.117641 0)
(0.020712 0.122165 0)
(0.0209008 0.122243 0)
(0.0205968 0.12668 0)
(0.0204051 0.126504 0)
(0.0202836 0.130948 0)
(0.020087 0.130673 0)
(0.0199551 0.135087 0)
(0.020772 0.126833 0)
(0.0197563 0.13464 0)
(0.0196138 0.139007 0)
(0.0194144 0.138358 0)
(0.0192622 0.142653 0)
(0.0190611 0.141848 0)
(0.0189013 0.146018 0)
(0.0191048 0.146881 0)
(0.018736 0.150104 0)
(0.0189424 0.151004 0)
(0.0185643 0.154085 0)
(0.0187713 0.155048 0)
(0.0183846 0.157961 0)
(0.0181758 0.156908 0)
(0.0179878 0.160614 0)
(0.0185957 0.158985 0)
(0.017779 0.159428 0)
(0.0175752 0.163019 0)
(0.0192212 0.137545 0)
(0.0173746 0.161646 0)
(0.0171493 0.165149 0)
(0.0169597 0.163617 0)
(0.0167171 0.166986 0)
(0.016901 0.168603 0)
(0.0164542 0.17025 0)
(0.0166335 0.171889 0)
(0.016172 0.173341 0)
(0.0163494 0.174957 0)
(0.0158717 0.176209 0)
(0.0160452 0.177824 0)
(0.0155514 0.178881 0)
(0.0157101 0.180594 0)
(0.0151996 0.181401 0)
(0.0153517 0.183186 0)
(0.0148222 0.183768 0)
(0.0149714 0.185512 0)
(0.0144202 0.185896 0)
(0.0145323 0.187624 0)
(0.0138802 0.187809 0)
(0.0140363 0.189548 0)
(0.013401 0.1897 0)
(0.0134986 0.191319 0)
(0.0128417 0.191246 0)
(0.0128806 0.192892 0)
(0.0122051 0.192671 0)
(0.0121874 0.194247 0)
(0.011482 0.193923 0)
(0.0114225 0.195429 0)
(0.0107055 0.19502 0)
(0.0105795 0.19644 0)
(0.00987644 0.195951 0)
(0.00965349 0.197284 0)
(0.00895394 0.196707 0)
(0.00863813 0.197968 0)
(0.00794463 0.197324 0)
(0.00752405 0.198513 0)
(0.00684611 0.197815 0)
(0.00630956 0.198928 0)
(0.00566578 0.198189 0)
(0.00502189 0.199202 0)
(0.00444852 0.198436 0)
(0.00368364 0.19934 0)
(0.00321108 0.198532 0)
(0.00230439 0.199357 0)
(0.00193396 0.198479 0)
(0.00089118 0.199256 0)
(0.000618985 0.19833 0)
(-0.000532662 0.199061 0)
(0.0128119 0.18954 0)
(0.00927992 0.195313 0)
(-0.000676675 0.19812 0)
(0.00297252 0.197703 0)
(0.0150648 0.179542 0)
(0.0155159 0.184995 0)
(0.0165413 0.165309 0)
(4.56579e-06 0.15506 0)
(0.00131915 0.200153 0)
(0.00921922 0.155563 0)
(0.0136327 0.193105 0)
(0.0070239 0.19965 0)
(0.0167795 0.162023 0)
(0.0163566 0.163711 0)
(0.0166062 0.160371 0)
(0.0161682 0.162167 0)
(0.0164308 0.158682 0)
(0.0159958 0.160496 0)
(0.0162608 0.156998 0)
(0.015831 0.158766 0)
(0.0161019 0.155286 0)
(0.0156762 0.156993 0)
(0.015958 0.153536 0)
(0.0153864 0.160354 0)
(0.0152382 0.158526 0)
(0.0149299 0.161792 0)
(0.0147908 0.159904 0)
(0.014465 0.163033 0)
(0.0143418 0.161068 0)
(0.0139977 0.164048 0)
(-0.00243568 0.138285 0)
(-0.00267631 0.137018 0)
(0.0138879 0.162052 0)
(0.0135281 0.164885 0)
(0.0142316 0.159054 0)
(0.0113072 0.196892 0)
(0.00879934 0.162643 0)
(0.0145379 0.125452 0)
(0.00115195 0.171635 0)
(0.00147004 0.166664 0)
(-0.00126902 0.0774959 0)
(-0.00092949 0.0511127 0)
(-0.000908521 0.0446673 0)
(-0.00101888 0.0571918 0)
(-0.00110745 0.06362 0)
(-0.001617 0.0820545 0)
(-0.00135253 0.0677509 0)
(-0.00122533 0.0610832 0)
(-0.00134304 0.0958448 0)
(-0.000587661 0.137927 0)
(-0.000274242 0.138574 0)
(-0.000277312 0.136472 0)
(4.0044e-05 0.137015 0)
(2.08448e-05 0.134894 0)
(0.000339347 0.135332 0)
(0.000306578 0.133168 0)
(0.000623656 0.133536 0)
(0.000580116 0.131391 0)
(0.000888188 0.131598 0)
(0.000816016 0.129456 0)
(0.00113061 0.129516 0)
(0.00103745 0.127293 0)
(0.00136749 0.127374 0)
(0.00126965 0.1251 0)
(0.00164571 0.125163 0)
(0.00147755 0.122769 0)
(0.00180647 0.122444 0)
(0.0016493 0.120308 0)
(0.00195234 0.119958 0)
(0.00180811 0.117781 0)
(0.00210253 0.1174 0)
(0.00196415 0.115181 0)
(0.00225307 0.119503 0)
(0.00239593 0.116865 0)
(0.00256169 0.118931 0)
(0.002692 0.116171 0)
(0.00287284 0.118245 0)
(0.00298643 0.115383 0)
(0.00318135 0.117389 0)
(0.00327566 0.114414 0)
(0.00348969 0.116366 0)
(0.00356727 0.113279 0)
(0.0033414 0.111031 0)
(0.00379916 0.115202 0)
(0.00385209 0.112 0)
(0.00410496 0.113831 0)
(0.00412962 0.110499 0)
(0.00439713 0.112261 0)
(0.00440654 0.108882 0)
(0.00468069 0.110577 0)
(0.00467438 0.107111 0)
(0.00495853 0.108744 0)
(0.00493018 0.105184 0)
(0.0052272 0.106758 0)
(0.00464204 0.103559 0)
(0.0046816 0.113946 0)
(0.00517597 0.103103 0)
(0.00548453 0.104593 0)
(0.00541032 0.100851 0)
(0.00572862 0.102257 0)
(0.00580404 0.105975 0)
(0.00605665 0.103549 0)
(0.00613512 0.107204 0)
(0.00639451 0.104706 0)
(0.00629113 0.101031 0)
(0.00663723 0.102088 0)
(0.00647446 0.108309 0)
(0.00650815 0.0983796 0)
(0.00686214 0.0993189 0)
(0.00670674 0.0955573 0)
(0.00706909 0.0963848 0)
(0.00688756 0.0925578 0)
(0.00725686 0.0933014 0)
(0.0074421 0.0970824 0)
(0.007634 0.0939083 0)
(0.007824 0.0976178 0)
(0.00801796 0.0943398 0)
(0.00780345 0.0906232 0)
(0.00819095 0.0909233 0)
(0.00821312 0.0979472 0)
(0.0079508 0.0872121 0)
(0.00834524 0.0873562 0)
(0.00338905 0.119378 0)
(0.00167606 0.115515 0)
(0.00182691 0.11291 0)
(0.00155086 0.113268 0)
(0.00168685 0.110623 0)
(0.00807154 0.0836385 0)
(0.00847528 0.0836478 0)
(0.00142925 0.110996 0)
(0.00155317 0.108317 0)
(0.00131265 0.108679 0)
(0.00142855 0.105991 0)
(0.00120002 0.106345 0)
(0.0013104 0.103642 0)
(0.00109335 0.103992 0)
(0.00119766 0.101282 0)
(0.00140682 0.100821 0)
(0.00128694 0.0984565 0)
(0.00148817 0.0978797 0)
(0.00136058 0.095509 0)
(0.00155235 0.0948113 0)
(0.00141918 0.092434 0)
(0.00123939 0.0931381 0)
(0.00129414 0.0900445 0)
(0.00112431 0.0907501 0)
(0.00117906 0.0875891 0)
(0.00101543 0.0883477 0)
(0.0010675 0.0851585 0)
(0.000911996 0.0859532 0)
(0.000959562 0.0827796 0)
(0.000813881 0.0835557 0)
(0.000857765 0.0803852 0)
(0.000720916 0.0811598 0)
(0.000761846 0.0779937 0)
(0.00063277 0.0787672 0)
(0.000671491 0.0756159 0)
(0.000549755 0.0763809 0)
(0.000586924 0.0732501 0)
(0.000472746 0.0740217 0)
(0.00160044 0.0915693 0)
(0.000507991 0.0708906 0)
(0.000401616 0.0716586 0)
(0.000434526 0.0685535 0)
(0.000338948 0.0692092 0)
(0.000365946 0.066256 0)
(0.000278593 0.0669139 0)
(0.0011136 0.0818151 0)
(0.000301839 0.0639993 0)
(0.000219966 0.0647378 0)
(0.000243464 0.061736 0)
(0.000163136 0.0625468 0)
(0.000188919 0.0595149 0)
(0.000113437 0.0603074 0)
(0.000139131 0.0573076 0)
(6.92458e-05 0.0581048 0)
(9.35105e-05 0.0551357 0)
(2.88065e-05 0.0559335 0)
(0.000701974 0.072311 0)
(5.12341e-05 0.0529842 0)
(-7.94514e-06 0.0537966 0)
(-3.64523e-05 0.0565926 0)
(-6.7925e-05 0.0544596 0)
(-4.04368e-05 0.0517087 0)
(-9.63395e-05 0.0523723 0)
(-6.92376e-05 0.0496543 0)
(-0.000121684 0.0503251 0)
(-0.000152585 0.0529332 0)
(-0.000174267 0.0508978 0)
(-0.000144198 0.048322 0)
(-0.000193334 0.0489031 0)
(-0.000163925 0.0463587 0)
(-0.000209673 0.0469433 0)
(-0.000181006 0.0444333 0)
(-0.000223519 0.0450215 0)
(-0.00019562 0.0425465 0)
(-0.000235185 0.0431425 0)
(-0.000265471 0.0455169 0)
(-0.000274285 0.0436477 0)
(-0.00024482 0.0413079 0)
(-0.000281302 0.0418223 0)
(-0.000252523 0.0395185 0)
(-0.000286583 0.0400426 0)
(-0.000258429 0.037777 0)
(-0.000290245 0.0383091 0)
(-0.00032 0.0404778 0)
(-0.000321308 0.0387483 0)
(-0.000292411 0.0366231 0)
(-0.000321352 0.0370662 0)
(-0.000293173 0.0349817 0)
(-0.000320259 0.0354316 0)
(-0.00029263 0.0333837 0)
(-0.000317966 0.0338396 0)
(-0.000346643 0.0357934 0)
(-0.000342415 0.0342019 0)
(-0.000314604 0.0322911 0)
(-0.000337539 0.0326703 0)
(-0.000310135 0.0307942 0)
(-0.00033121 0.031152 0)
(-0.000359407 0.0329593 0)
(-0.000351733 0.0314474 0)
(-0.000320531 0.0293893 0)
(-0.000344047 0.0299876 0)
(-0.000371161 0.0316833 0)
(-0.0003627 0.0302626 0)
(-0.000337742 0.0286906 0)
(-0.00035326 0.0288695 0)
(-0.000378946 0.030342 0)
(-0.000368572 0.0289964 0)
(-0.000343009 0.0274992 0)
(-0.00035752 0.0276549 0)
(-0.00038339 0.0290951 0)
(-0.000371204 0.0277582 0)
(-0.000396794 0.0291119 0)
(-0.000383615 0.0277861 0)
(-0.000358527 0.0264297 0)
(-0.000370063 0.0264711 0)
(-0.000394744 0.0277512 0)
(-0.000380382 0.0264489 0)
(-0.00040427 0.0276406 0)
(-0.000389389 0.0263606 0)
(-0.000365677 0.025161 0)
(-0.000373985 0.0250856 0)
(-0.000397384 0.0262227 0)
(-0.000381127 0.0249549 0)
(-0.000404318 0.0260411 0)
(-0.000387066 0.0247687 0)
(-0.00036427 0.0236948 0)
(-0.000369499 0.0235101 0)
(-0.000391888 0.0245348 0)
(-0.000373883 0.0232868 0)
(-0.000351831 0.0222683 0)
(-0.000395628 0.024256 0)
(-0.000377103 0.0230177 0)
(-0.000398222 0.0239339 0)
(-0.00037923 0.0227089 0)
(-0.000399589 0.0235689 0)
(-0.000379982 0.0223484 0)
(-0.000399708 0.0231598 0)
(-0.000379333 0.0219311 0)
(-0.00039907 0.0227288 0)
(-0.000377233 0.021459 0)
(-0.00035822 0.0206851 0)
(-0.000396833 0.0222345 0)
(-0.000374336 0.0209644 0)
(-0.00039304 0.0216857 0)
(-0.000370693 0.0204496 0)
(-0.000388334 0.0211118 0)
(-0.000365453 0.019876 0)
(-0.000382284 0.0204936 0)
(-0.000415918 0.0229429 0)
(-0.000419419 0.0248151 0)
(-0.000358627 0.0192442 0)
(-0.00037507 0.0198404 0)
(-0.000342253 0.0186321 0)
(-0.000208332 0.0534007 0)
(0.000386527 0.0630832 0)
(-0.000351079 0.0185963 0)
(-0.000366967 0.0191649 0)
(-0.000391201 0.0203993 0)
(-0.00038238 0.0196904 0)
(-0.000407099 0.0209236 0)
(-0.000397506 0.0201804 0)
(0.000131033 0.0659148 0)
(-0.000372576 0.0189566 0)
(-0.000386922 0.0194134 0)
(0.00816648 0.0799142 0)
(0.00857419 0.0798252 0)
(0.00888971 0.083465 0)
(0.00898641 0.0795705 0)
(0.00931372 0.0830582 0)
(0.00940349 0.0791213 0)
(0.00973658 0.0824678 0)
(0.00982582 0.0784241 0)
(0.010156 0.0817275 0)
(0.0102508 0.077459 0)
(0.00988511 0.0743019 0)
(0.0103163 0.0730849 0)
(0.0106579 0.076205 0)
(0.0107478 0.0716968 0)
(0.0103606 0.0686559 0)
(0.0107953 0.0671075 0)
(0.0111982 0.0699951 0)
(0.0112353 0.0653239 0)
(0.0108074 0.0625329 0)
(0.011244 0.0606361 0)
(0.0116762 0.0632947 0)
(0.0116818 0.0584799 0)
(0.0121159 0.0610037 0)
(0.0121201 0.0560212 0)
(0.0116576 0.053651 0)
(0.012094 0.0510361 0)
(0.0125618 0.0532278 0)
(0.0125336 0.0481024 0)
(0.0120349 0.0461049 0)
(0.0124717 0.0430577 0)
(0.0129753 0.0448386 0)
(0.0129068 0.039697 0)
(0.0134132 0.0412728 0)
(0.013338 0.0360196 0)
(0.0128052 0.0346613 0)
(0.0132282 0.0308921 0)
(0.0137766 0.0320137 0)
(0.0136529 0.026793 0)
(0.0130866 0.0259571 0)
(-0.000361761 0.0181962 0)
(-0.000375371 0.0186234 0)
(0.000508625 0.0793466 0)
(0.00823623 0.0760794 0)
(0.00783236 0.0761027 0)
(0.000156014 0.0541336 0)
(-0.000422775 0.0214144 0)
(0.000953352 0.133744 0)
(-0.000349995 0.0174117 0)
(-0.000362884 0.0178117 0)
(-0.000155778 0.0418594 0)
(0.00787296 0.0722029 0)
(0.00747327 0.0721883 0)
(-0.000337324 0.0166056 0)
(-0.000349525 0.0169809 0)
(-0.000375472 0.0181826 0)
(-0.000324851 0.0162035 0)
(0.00652713 0.0917107 0)
(0.00748246 0.0682165 0)
(0.00708723 0.0681354 0)
(0.000861948 0.0889743 0)
(0.000975027 0.106582 0)
(0.00706613 0.064099 0)
(0.00667241 0.0639279 0)
(0.000290612 0.0721263 0)
(-0.000266678 0.0328433 0)
(-0.000352371 0.0408246 0)
(-0.00139541 0.113701 0)
(0.012376 0.136456 0)
(0.0137803 0.160068 0)
(0.0141263 0.157005 0)
(0.00547897 0.164536 0)
(0.018373 0.0568424 0)
(0.0189778 0.155978 0)
(0.0188076 0.159942 0)
(0.0191805 0.156906 0)
(0.0190191 0.160863 0)
(0.0193812 0.157795 0)
(0.0192325 0.161677 0)
(0.0195797 0.158598 0)
(0.019443 0.162386 0)
(0.0197777 0.159284 0)
(0.0196489 0.163054 0)
(0.0199762 0.159837 0)
(0.0198601 0.16352 0)
(0.0201732 0.160233 0)
(0.0200696 0.163836 0)
(0.0203635 0.160543 0)
(0.0202715 0.164081 0)
(0.020549 0.160749 0)
(0.0204669 0.164224 0)
(0.0207303 0.160781 0)
(0.0208086 0.157274 0)
(0.0209792 0.157127 0)
(0.0210501 0.153658 0)
(0.021208 0.15331 0)
(0.0212776 0.149908 0)
(0.0214218 0.1495 0)
(0.0214929 0.146049 0)
(0.0216277 0.145623 0)
(0.0216952 0.142098 0)
(0.0218228 0.141572 0)
(0.0218859 0.138073 0)
(0.0220072 0.137446 0)
(0.0220693 0.133923 0)
(0.0221836 0.133215 0)
(0.0222454 0.129705 0)
(0.0223533 0.128916 0)
(0.0206567 0.164201 0)
(0.0203892 0.167605 0)
(0.0221242 0.136657 0)
(0.0205808 0.167639 0)
(0.0203223 0.170843 0)
(0.0204998 0.171068 0)
(0.0202373 0.174016 0)
(0.0204213 0.174356 0)
(0.0201418 0.1772 0)
(0.0203443 0.177542 0)
(0.0200577 0.180394 0)
(0.0206056 0.174487 0)
(0.0205363 0.177655 0)
(0.0207777 0.174506 0)
(0.019841 0.179874 0)
(0.019747 0.183042 0)
(0.020717 0.177615 0)
(0.0209378 0.174396 0)
(0.0195165 0.182458 0)
(0.0194066 0.185449 0)
(0.0208861 0.17744 0)
(0.0210853 0.174123 0)
(0.0193109 0.166214 0)
(0.0215679 0.142532 0)
(0.0209225 0.113064 0)
(0.0163658 0.151623 0)
(0.0162124 0.149956 0)
(0.0166178 0.147798 0)
(0.0164564 0.146136 0)
(0.0168528 0.143822 0)
(0.0166945 0.142209 0)
(0.0170749 0.139722 0)
(0.016909 0.138276 0)
(0.0172903 0.135478 0)
(0.0170949 0.134196 0)
(0.0174939 0.131104 0)
(0.0172866 0.129866 0)
(0.0176875 0.126601 0)
(0.0167177 0.137349 0)
(0.0174802 0.125406 0)
(0.0178763 0.121942 0)
(0.0176618 0.120861 0)
(0.0180536 0.117201 0)
(0.0182726 0.118131 0)
(0.0184409 0.113266 0)
(0.0191683 0.184711 0)
(0.0190398 0.187503 0)
(0.0192824 0.188319 0)
(0.0189033 0.190154 0)
(0.0191471 0.191104 0)
(0.0187499 0.192677 0)
(0.0189923 0.193773 0)
(0.0185712 0.195051 0)
(0.0188187 0.196219 0)
(0.018365 0.197229 0)
(0.00618885 0.197117 0)
(0.0210441 0.177006 0)
(0.02122 0.173679 0)
(0.0212613 0.170847 0)
(0.0213803 0.170317 0)
(0.0186639 0.113996 0)
(0.0188213 0.109067 0)
(0.018339 0.193753 0)
(0.00661893 0.0598915 0)
(0.00623239 0.0596394 0)
(0.00701499 0.0599697 0)
(0.000943678 0.124971 0)
(0.0190484 0.109625 0)
(0.0191957 0.104592 0)
(0.0194267 0.105043 0)
(0.019563 0.0998642 0)
(0.0193256 0.0995265 0)
(0.019687 0.094654 0)
(0.0182149 0.112394 0)
(0.019923 0.0948873 0)
(0.0200422 0.0895196 0)
(0.0202777 0.0896475 0)
(0.0203895 0.0841608 0)
(0.0214221 0.167506 0)
(0.0215292 0.166868 0)
(0.0186017 0.198396 0)
(0.0181161 0.19919 0)
(0.0215714 0.164092 0)
(0.0216676 0.163393 0)
(0.021626 0.16607 0)
(0.0217529 0.162597 0)
(0.0217963 0.159949 0)
(0.0218717 0.159154 0)
(0.0219173 0.156521 0)
(0.0219864 0.155675 0)
(0.0220331 0.1531 0)
(0.0220981 0.152155 0)
(0.0221444 0.149659 0)
(0.0222075 0.148604 0)
(0.0222531 0.146159 0)
(0.022314 0.145039 0)
(0.0223591 0.142676 0)
(0.0224163 0.141528 0)
(0.0224624 0.139196 0)
(0.0225163 0.138055 0)
(0.0225645 0.135696 0)
(0.0211818 0.17647 0)
(0.0200844 0.156233 0)
(0.019446 0.0943926 0)
(0.0172697 0.12417 0)
(0.00174531 0.0939844 0)
(0.00178286 0.0906236 0)
(0.0100377 0.085809 0)
(0.0190809 0.19756 0)
(0.0136284 0.166887 0)
(0.0131392 0.167583 0)
(0.0132275 0.169583 0)
(0.0127196 0.170145 0)
(0.0126491 0.168137 0)
(0.0122146 0.17057 0)
(0.0122663 0.172585 0)
(0.0117489 0.172865 0)
(0.011774 0.174898 0)
(0.0112498 0.174988 0)
(0.0112451 0.177009 0)
(0.0107174 0.176932 0)
(0.0106815 0.178906 0)
(0.0101462 0.178715 0)
(0.010078 0.180637 0)
(0.00953577 0.180327 0)
(0.00942818 0.182201 0)
(0.0088806 0.181786 0)
(0.009014 0.17992 0)
(0.0083559 0.181291 0)
(0.0081676 0.183118 0)
(0.00765773 0.182514 0)
(0.0074164 0.184294 0)
(0.00692005 0.183589 0)
(0.00663442 0.185303 0)
(0.00614676 0.18451 0)
(0.0058101 0.186147 0)
(0.00534293 0.185267 0)
(0.0049511 0.186831 0)
(0.0045023 0.185886 0)
(0.00490813 0.184331 0)
(0.00408251 0.184897 0)
(0.00361665 0.186389 0)
(0.00322731 0.185322 0)
(0.00270445 0.186766 0)
(0.00235424 0.185612 0)
(0.00178236 0.187039 0)
(0.00147414 0.185804 0)
(0.000851186 0.187144 0)
(0.000599674 0.185853 0)
(-7.37285e-05 0.187027 0)
(-0.00025459 0.185751 0)
(-0.00099833 0.186835 0)
(-0.00109004 0.185516 0)
(-0.00190597 0.186508 0)
(-0.00193419 0.185138 0)
(0.0107465 0.174938 0)
(0.0044982 0.183339 0)
(-0.00277643 0.18467 0)
(0.00851261 0.179437 0)
(0.0187951 0.186614 0)
(0.0183389 0.200327 0)
(0.0178102 0.20093 0)
(0.0175718 0.199774 0)
(0.017207 0.201321 0)
(0.0174382 0.20247 0)
(0.0167586 0.202665 0)
(0.0169679 0.203774 0)
(0.0162029 0.203811 0)
(0.0163586 0.204833 0)
(0.0155307 0.204753 0)
(0.0155686 0.205662 0)
(0.0146791 0.205451 0)
(0.0145681 0.206261 0)
(0.0135894 0.205933 0)
(0.013336 0.206684 0)
(0.0122959 0.206311 0)
(0.0118297 0.206992 0)
(0.010797 0.206568 0)
(0.0100182 0.207205 0)
(0.00901729 0.206732 0)
(0.00767113 0.207383 0)
(0.00698029 0.206818 0)
(0.01267 0.205448 0)
(0.00809915 0.20619 0)
(0.0153893 0.203889 0)
(0.00193691 0.0930186 0)
(0.00196092 0.089589 0)
(0.00212635 0.0919021 0)
(0.00213298 0.0883493 0)
(0.00231252 0.0906329 0)
(0.00230288 0.0869533 0)
(0.00212175 0.0846659 0)
(0.00227692 0.0831426 0)
(0.00209404 0.0808457 0)
(0.00223358 0.0791898 0)
(0.00204957 0.0768936 0)
(0.00217275 0.0751029 0)
(0.00198948 0.072816 0)
(0.00236724 0.0773738 0)
(0.00228861 0.0731646 0)
(0.00249126 0.0753923 0)
(0.00239435 0.071074 0)
(0.00260393 0.0732477 0)
(0.0024859 0.0687899 0)
(0.00270318 0.0709217 0)
(0.00256139 0.0662969 0)
(0.00278792 0.0684099 0)
(0.0023511 0.0641555 0)
(0.00262235 0.0636393 0)
(0.00285666 0.065723 0)
(0.00266659 0.0608079 0)
(0.00290677 0.0628648 0)
(0.00310475 0.0677605 0)
(0.00316044 0.0648809 0)
(0.00628524 0.0635847 0)
(0.0058522 0.0591197 0)
(0.00590267 0.062996 0)
(0.0054754 0.0583038 0)
(0.00551674 0.0619543 0)
(0.00510859 0.0573233 0)
(0.00515547 0.0609266 0)
(0.00475475 0.0562585 0)
(0.0136734 0.158082 0)
(0.0140138 0.154999 0)
(0.0169678 0.200161 0)
(0.00652908 0.0557385 0)
(0.00692966 0.0557485 0)
(0.0121624 0.168559 0)
(0.000348154 0.184639 0)
(0.00293692 0.0598644 0)
(-0.00197983 0.18377 0)
(0.00282699 0.0754066 0)
(0.00336614 0.0697408 0)
(-0.00118872 0.0869682 0)
(-0.00110391 0.0879249 0)
(-0.00107483 0.085694 0)
(-0.00098764 0.0865549 0)
(-0.000965525 0.0843128 0)
(-0.000875716 0.0850623 0)
(-0.000861094 0.0828268 0)
(-0.000769483 0.0834637 0)
(-0.000761891 0.0812371 0)
(-0.000774768 0.0857054 0)
(-0.000669924 0.0817787 0)
(-0.000668122 0.0795409 0)
(-0.000576632 0.0800001 0)
(-0.000579787 0.0777462 0)
(-0.00066508 0.0773122 0)
(-0.000581701 0.0755021 0)
(-0.000661721 0.075101 0)
(-0.00058221 0.0732702 0)
(-0.000657427 0.0729054 0)
(-0.000581261 0.0710373 0)
(-0.00065204 0.0707234 0)
(-0.00278923 0.183292 0)
(0.000880323 0.104226 0)
(0.00075404 0.106698 0)
(0.000671872 0.104344 0)
(0.000538152 0.106701 0)