/*--------------------------------*- C++ -*----------------------------------*\
| =========                 |                                                 |
| \\      /  F ield         | OpenFOAM: The Open Source CFD Toolbox           |
|  \\    /   O peration     | Version:  v2012                                 |
|   \\  /    A nd           | Website:  www.openfoam.com                      |
|    \\/     M anipulation  |                                                 |
\*---------------------------------------------------------------------------*/
FoamFile
{
    version     2.0;
    format      ascii;
    class       volScalarField;
    location    "300";
    object      omega_0;
}
// * * * * * * * * * * * * * * * * * * * * * * * * * * * * * * * * * * * * * //

dimensions      [0 0 -1 0 0 0 0];


internalField   nonuniform List<scalar> 
13851
(
0.0252643
1.08332
0.0876476
0.0248714
0.0827099
0.113507
0.021721
0.0469064
0.0211766
0.13719
0.132272
1.32539
2.65874
3.29421
0.0214808
0.0345942
0.0250898
0.0307103
2.63849
0.0211339
0.0245987
0.0835013
0.0222177
0.0244642
0.0225125
0.0479772
0.0241214
9.05754
0.0249497
0.0251433
0.244603
0.0254076
0.0824148
0.48099
0.0245048
0.165919
3.18262
2.37719
0.223743
0.473795
0.021715
0.0199924
2.89059
0.242851
0.260617
3.18418
0.289272
0.636342
0.0243178
0.0413863
0.0714486
0.16245
2.30909
0.0216963
0.0237435
0.0200032
0.0223398
1.31575
0.024887
0.0217841
2.37524
1.96846
0.0582418
0.101239
1.55972
0.0276758
3.25811
0.294801
0.0324969
0.0305146
6.4297
3.38562
1.16581
0.0218532
0.0211271
0.0218151
0.0790167
4.70861
0.0458951
5.83516
0.0220388
0.230542
0.0214721
3.37588
0.0665437
1.3567
0.0557916
1.34335
0.025362
0.0224254
0.170156
0.0377727
0.296645
0.0273692
0.0251418
0.0233648
0.085897
2.08236
0.0433913
0.0233187
2.4649
0.0482132
0.023051
0.0237172
0.0222342
0.0577878
0.0535475
0.0198094
3.40844
0.150234
0.0242552
0.0225954
0.0363479
0.0256306
0.0242954
0.938415
2.08905
0.0198482
0.0257912
0.0250207
3.21631
0.0236191
2.59665
0.637586
0.679742
0.0237984
0.683892
0.0472402
0.0243546
0.498305
0.0216773
0.0209219
5.03475
0.0214659
0.942265
0.021225
0.0198631
3.34283
1.47267
3.22754
2.09395
0.023511
0.0256154
0.0207182
0.0236152
0.233278
0.0255799
0.534878
0.0217063
0.262315
0.0706911
0.0239112
3.65484
0.0224332
0.023066
0.0235357
0.0215113
0.0237811
0.159217
0.0697832
0.0200934
0.0270272
1.32595
0.0209059
0.0292256
0.0203298
0.0263584
0.0329396
0.0241517
2.7901
5.89486
0.0206429
0.0215325
3.11993
0.020876
0.642748
0.0457695
0.025455
2.65657
0.0198468
0.0261853
3.37765
0.0214529
0.0914868
0.019824
0.0222986
0.0278654
0.022425
0.0998192
0.13876
0.291262
1.75654
0.0231044
0.0328687
1.93898
0.0229345
0.0251322
0.423233
0.0250919
0.0218825
0.023906
2.90406
0.0292815
0.0214088
0.0816612
0.0214674
1.53854
0.0251664
2.50772
0.0199135
2.61495
0.0229143
0.457545
0.0197672
0.0205369
0.069007
0.0558422
2.67324
0.0214118
2.42974
0.0253335
0.0220822
2.34169
0.162574
2.53857
0.0223802
0.0291316
0.0227407
1.23462
0.0197716
0.0466201
1.41492
0.0206152
0.0229133
0.0614603
0.0483325
1.60312
1.56709
0.020675
0.021423
0.186883
0.100347
0.0208803
0.090408
0.0214253
2.38671
0.0498496
0.46062
0.0236822
0.0263356
0.0324466
0.165815
0.0221822
0.0237583
0.0487366
1.11607
0.11366
3.33665
20.3632
0.0215058
0.0205787
0.0293872
0.895309
0.0215746
2.53623
0.0229267
0.0221335
0.0269132
2.41731
0.0308374
0.0323379
0.0230658
0.867908
0.0436049
0.0336333
0.020944
0.230098
0.0315922
2.76091
0.135789
0.0208859
0.0198414
0.022154
0.0466137
0.867369
0.64005
0.0214405
0.0214961
0.865279
0.219897
1.74485
0.0244827
0.0218001
0.0349905
0.214817
2.57708
0.028409
1.34289
0.020986
2.40663
0.0267068
0.025001
2.7385
0.0220658
0.0651885
2.30072
0.0213783
0.0407147
0.0275128
0.0242356
1.48996
0.0286381
0.0221435
2.21752
0.020084
0.0265725
0.0247013
2.87613
0.126988
0.0214132
0.0495792
0.0214424
8.80668
0.0352226
0.0220831
0.0221458
0.123819
0.0285175
0.0229489
0.0214973
0.0220311
0.0221013
0.196628
5.70719
2.37725
0.0347497
2.8578
2.07102
0.0214288
0.0336253
1.80956
0.0422454
0.0625422
0.133279
2.61154
0.0291629
0.757172
2.3464
0.0215029
0.0332912
0.0335581
2.18496
0.0229335
0.0648205
1.19038
0.0215959
0.762653
0.0221367
0.0214509
0.0211591
0.0198087
0.0213539
2.41085
0.205387
0.0215716
0.0393131
0.0201948
1.30478
0.0425099
0.694872
2.52446
0.0216
0.0563773
0.0277143
0.666003
0.0215769
0.019872
0.0339866
3.50282
0.0217594
1.49845
0.0411914
0.144524
3.45359
0.04256
0.0422749
0.0299066
0.0209655
0.0223376
0.0331442
0.0487497
3.78199
0.0328075
2.63015
2.32569
0.0202189
0.0215161
2.58024
4.34749
1.42943
2.12193
0.0347431
0.0283112
0.0228954
2.14131
0.0208921
0.0337074
0.0292244
0.0216654
0.022527
0.0213287
0.020303
0.0962243
0.0587703
5.22473
0.0313563
0.0523824
0.0383976
0.175446
0.0273691
2.14155
0.0247357
0.061191
0.0198451
0.021275
0.0225258
2.36785
0.400022
0.149555
0.0372827
7.49398
0.484648
0.0502642
0.0253565
0.0630167
0.0215375
0.231218
0.0220717
1.96416
0.412614
0.0764768
2.67553
0.0256731
0.0324358
0.416429
5.85029
0.0197293
0.029625
0.0471314
0.0320675
0.020767
0.022138
0.065796
0.146739
0.0366533
1.82191
0.022383
0.0222938
1.5154
0.0302431
0.0198073
1.26118
0.0209562
0.025252
0.0208883
0.0452255
0.0233661
0.0198699
0.0253674
2.25348
0.0214872
0.0348328
0.0210502
0.0332854
0.0397417
0.0262831
0.0217885
0.0257639
0.0255906
0.677452
0.0220917
0.0671964
0.0214469
0.0226974
1.96231
2.85798
0.0214966
0.0343804
0.027528
0.10761
3.08376
0.0223006
0.212394
0.0216054
0.0844262
0.021717
1.19551
0.0199175
2.71294
0.111936
0.0200145
0.0345259
2.29608
0.0482064
0.27166
0.0250322
0.592405
0.0244539
0.0208265
0.0209859
0.0216596
3.40124
0.0626305
0.154516
2.7708
0.052521
0.0201713
2.31489
0.418403
0.0263089
0.0272578
0.0665192
0.608377
2.72553
0.0229216
1.20643
3.49775
2.83982
0.0295406
0.0353268
0.668833
0.0331472
1.11412
0.463629
1.85462
0.0240088
1.84682
3.16303
0.0198487
0.0309961
0.064668
3.66915
0.0239035
0.0213377
0.0214572
0.0215163
0.0957285
0.0437368
1.38376
1.71193
0.0211266
1.73075
2.6435
0.216164
0.41727
0.0341713
0.0197433
0.0212307
0.034088
2.26684
0.0231413
0.0877764
0.235249
0.0199828
0.0443162
0.599902
2.22369
0.13453
3.17235
3.20325
0.0216467
0.0216773
1.20737
2.29389
0.151109
0.0325408
0.0869809
0.0198378
0.0212589
1.95302
0.0199331
0.0238288
0.019824
0.0208998
3.13172
0.0950495
0.0344272
0.0199163
1.55863
0.427419
0.021006
0.021857
0.0216879
0.0222367
3.24713
0.462111
0.455016
2.56812
0.588432
0.0310266
5.05696
2.71698
0.0298509
0.0330696
0.019736
0.024627
0.0357751
2.32065
0.775564
0.0864002
0.0288291
0.0210443
0.0344055
0.0255045
0.270606
0.0722346
0.0214333
0.0357608
0.0207579
0.0266128
0.188282
0.0217525
0.02151
0.0424956
0.021773
0.0855423
2.35313
0.139413
0.0351767
0.155714
0.0210061
1.04233
0.0338694
2.40078
0.0227927
0.0236412
3.40794
0.0247211
3.88341
2.33579
1.93146
1.22105
0.0208671
3.41505
0.0211563
0.0209316
0.0199022
0.0209336
0.0231312
0.0325026
0.0425204
0.0198765
1.95181
0.137756
1.92751
0.0213712
0.0200013
0.021443
1.80911
1.89583
0.0493739
0.0268695
0.0212318
0.0228974
0.0227711
0.0216706
2.86348
1.77634
0.0217449
0.0198578
0.0216712
0.0216425
2.04541
1.49832
0.0350434
2.08069
0.594025
0.0214757
0.152273
4.90736
0.0342293
1.34672
0.0220288
0.0296506
0.0485005
0.0301787
0.461136
0.0214818
0.650751
0.022283
0.0290293
2.44836
0.0221821
0.0240223
0.0708893
0.0208618
0.0257403
0.910498
3.41931
0.0695477
2.54272
0.0482669
0.0197909
0.0213201
1.64772
0.148647
0.0524815
2.35581
0.0211575
0.0251255
0.0198689
0.585341
3.17193
0.026687
0.0227344
0.0416342
0.024327
0.0213783
1.82604
1.15562
2.26067
0.0200581
0.0217266
4.76175
2.9933
0.169258
0.0250308
3.12761
0.0214779
0.0505581
1.44718
0.0828216
0.0254964
2.31107
0.0310802
0.0266513
3.10906
0.0235651
0.0291082
0.0235497
0.0209737
1.70424
0.0324402
0.135398
0.0338109
0.0331608
0.0210843
0.928907
0.0252795
0.0310255
0.0201451
0.0214204
0.0218565
2.26888
0.0213979
0.0199248
0.712307
0.0216971
3.47563
0.0224244
0.0254493
0.0665118
1.98693
0.183184
0.0214616
0.681506
2.05668
0.022139
2.48755
0.0287972
0.0209167
0.0351565
2.30675
0.476243
0.0266526
0.0213414
0.0198277
0.419667
0.0978566
0.0666255
0.027902
0.0352028
0.0224753
0.0252128
0.0853563
0.44254
0.0960803
0.797844
0.0217038
0.0865281
0.0842097
2.96307
0.0265666
1.39232
2.74581
0.0217097
4.36074
0.578495
1.98523
3.7111
2.1713
0.0806833
0.0429991
0.020942
0.0324145
1.28022
4.26144
0.022105
0.0225612
0.0643707
0.111325
0.0200335
2.22009
0.021097
0.0215593
1.52335
4.69752
0.0501376
0.0209304
0.0214646
2.36751
2.80277
0.128319
0.0268299
2.1559
2.24707
1.91481
0.0526014
0.0385751
0.0221682
0.0217002
1.30741
0.0458088
4.93747
0.035974
0.0323526
2.07392
1.98997
3.00069
0.0215506
0.0297043
0.0209896
0.0358992
0.0239327
1.31817
0.0256811
2.44409
0.020016
0.0653075
0.0213439
2.18903
0.0315847
0.029344
2.09236
0.0407747
0.0480046
0.0247092
0.0653062
0.628828
0.134262
0.0239771
5.87307
0.0214197
4.11116
0.15194
0.0219022
2.55533
3.08239
3.13087
0.0729097
0.034903
0.021983
2.31284
0.0257747
0.853914
2.51174
0.0213445
0.0227524
2.39117
0.442253
1.45068
0.0217359
0.021779
1.49779
2.47494
0.135378
0.0261697
0.0256752
0.151845
1.47737
0.0885637
0.0199343
0.0434492
0.0208625
0.0268308
0.0362207
0.0230013
2.00833
0.256478
0.0215818
0.0259201
0.0220409
0.0235817
5.16064
2.32621
0.0291477
1.4034
0.0213288
0.029291
0.021911
0.0208743
0.0219147
0.0215658
3.36629
0.021502
0.0487495
0.0215623
0.0267921
0.0371687
2.58769
0.0251905
1.19066
0.0713992
2.86819
0.033133
0.0330833
6.61799
0.0265737
0.0453988
1.31196
0.833245
2.17882
0.0404942
0.22685
0.0226398
0.0390351
0.0495406
1.42482
0.0224724
2.19664
0.0212909
0.0213995
3.37694
0.023646
2.64298
0.0257834
0.0210053
0.0415903
0.0210057
0.0214692
0.0217104
0.0219803
2.95407
0.0213728
2.79348
1.36395
0.0710997
2.87933
0.0216807
0.025551
0.0253747
0.0215486
0.0209631
0.0787879
0.0220157
0.0215367
0.0227926
0.022437
3.39889
1.92373
0.0991835
2.11597
2.92248
0.0212593
0.593269
0.0286032
0.0213272
0.35216
0.0887364
0.511417
0.021212
0.278954
0.445033
1.15222
0.0206144
2.60165
0.0316067
0.0240713
0.0219756
0.0211377
1.64986
0.43603
0.648878
0.0220359
0.0214262
0.710455
0.0219164
2.04103
0.11173
1.24878
2.7046
0.382298
0.0225432
0.0215684
0.0654985
0.033438
0.0237482
2.15688
0.0423394
0.0220509
0.0254991
2.40556
0.0216093
3.2421
2.85579
0.821741
2.52539
0.0225917
0.0209596
0.022542
0.159773
0.402716
0.0206163
0.0277014
0.0219728
0.0777
0.0201775
0.0218575
0.0221268
0.0320902
3.12661
0.0468244
0.035107
0.0219752
0.0481448
2.43667
0.0223084
4.48181
2.1753
0.0796089
0.0204326
0.0418664
0.0213357
0.022147
0.0224277
4.59972
0.128398
0.409045
0.0238005
0.0470615
0.0213815
0.0223816
0.022136
0.51614
0.99909
0.0200509
0.0317124
0.0612215
2.94108
0.0261768
1.12016
0.0231605
1.5082
0.0905068
2.6493
0.0872522
0.0791804
2.32755
2.53428
0.375154
2.6911
0.0222522
1.99292
0.0201526
0.0240507
0.0257699
0.0218305
2.5795
0.0300072
0.0273816
0.102734
1.85435
0.674331
0.0214269
0.0237054
0.027195
0.0211451
0.0340229
1.31301
0.587799
1.04787
0.0210359
0.0266164
0.0274786
0.602463
2.18094
0.0604911
0.0209155
0.021949
1.27126
0.046876
1.80644
2.11361
0.0426107
0.0203906
3.04847
0.0332421
0.0429327
0.0282216
2.52899
0.169118
0.146519
0.86332
0.0231468
0.0316712
0.0215552
2.31847
0.053573
2.69865
0.0383961
0.0256426
0.167742
0.022933
2.58788
2.82109
0.0215412
1.73973
2.37917
1.73198
3.30532
0.0219966
0.0215998
4.94687
2.38673
1.27798
0.0238583
0.021675
0.0215895
3.29614
0.168967
0.0219667
0.172489
0.10588
1.64226
3.0135
0.647775
0.021504
3.15284
0.0246574
0.0217655
0.157075
1.91105
0.02173
0.0213112
3.25866
2.54886
0.0233339
0.0210268
2.44702
0.0212998
0.0366729
0.0210287
0.59905
0.0216104
0.0495925
1.14169
2.23446
0.0226977
2.64976
0.299691
1.91432
2.69725
1.48884
0.0411952
0.021298
2.18877
0.0264359
0.0214418
0.0210906
0.513309
0.0214531
3.13433
0.0213405
0.0268842
4.66087
0.0728931
2.02514
0.0231924
0.0266437
0.0209628
0.031299
3.20132
2.16696
0.0211508
0.0651548
0.340972
0.0221128
0.0211989
2.36412
0.0332712
0.0367938
0.154915
3.54836
1.00324
3.206
3.33523
0.0436856
0.0857383
0.423735
1.30198
0.0655203
0.0204014
0.150266
0.0212953
0.0213018
2.29305
2.40049
0.0241309
4.95855
0.706826
3.49235
0.173006
0.0748884
0.0215016
0.756889
0.0375171
0.0229454
0.0227904
2.35719
2.1553
1.1231
2.69237
0.0418566
2.42077
2.44196
0.0307661
0.0221583
0.0214519
0.227432
0.0212028
2.85068
0.0232903
0.0222446
0.0243799
2.46132
2.91876
1.31724
0.0228253
3.08325
0.0261176
0.0312935
0.021078
0.0214965
1.40705
0.0279118
2.72186
1.44829
0.129339
0.123088
0.0215351
0.0435376
0.0219697
0.171137
0.0251333
0.0230621
0.0226831
0.0237052
0.177245
0.0222827
0.0356779
0.0230815
0.0365627
2.25508
5.0199
0.0215551
0.0465282
0.0228956
0.121996
0.0247069
2.1505
1.98418
0.0303008
0.0237625
0.022958
0.0582512
0.0215889
0.0364695
0.0214813
0.0221078
0.0249335
2.20657
0.0269198
0.0269527
0.0348088
0.0224336
0.0592489
2.14402
2.50299
0.0344109
0.0215515
0.0350552
0.0203972
0.022112
2.52701
2.42112
0.0223211
0.0324533
0.873925
3.11578
0.021987
0.022227
2.49496
0.0228305
0.0381595
2.926
3.08583
0.0216468
0.0252953
0.0213877
2.48711
0.143232
0.0424788
0.129823
1.34304
0.0225252
3.02314
1.73844
0.0223155
2.41067
0.0800313
0.0230548
1.50206
0.021684
0.0221672
0.0209902
1.85966
0.0506213
0.191934
0.0231515
0.0223661
0.0288761
0.217617
3.05422
2.90165
0.336647
0.022147
0.146521
0.670762
1.48306
0.0852454
0.129839
0.0212212
0.0346072
0.0211757
1.10277
0.0399665
0.0213798
2.40038
1.99193
0.0326033
0.0307023
0.0199181
0.0223857
0.0580526
0.0350412
0.727389
0.0660853
0.0722745
0.0673999
0.137789
1.58149
0.1315
2.81428
0.021606
0.0214611
2.78174
1.39586
1.78433
0.113939
0.0252558
4.58213
0.338913
0.0222506
0.0259912
0.0209128
0.0395327
0.0679619
0.0282682
1.72995
3.0224
0.0228225
1.96156
5.9
0.0214943
0.247824
1.49021
1.54532
0.0238801
0.0717322
0.0197602
0.0244281
0.0228765
0.0260404
2.70323
2.19436
1.91692
2.98593
0.0226872
0.0361242
0.059472
0.021704
0.0226034
0.0211214
2.38122
0.0211805
2.78677
0.0394622
0.0535346
2.0113
2.81243
4.2043
3.08723
0.0388215
0.0202547
0.0251966
3.02061
2.87634
0.0248587
0.0208933
0.0212654
0.0667133
0.0308274
0.166387
1.68382
0.0226218
0.0210435
0.125071
0.0342902
5.4841
0.920733
0.0210524
0.0727252
0.0222176
2.67896
0.0205688
2.40474
0.0225906
0.0225616
0.0350677
0.0221874
0.0927103
0.0295402
0.0455425
1.20822
2.13809
0.0253397
0.0300453
0.0214722
3.0538
1.16835
0.0232839
0.0206687
0.342309
0.0198143
3.29235
0.0226553
0.0377718
0.0769178
1.13555
0.041904
0.0244154
0.0216841
0.0666106
2.41035
0.0213096
1.09143
5.38075
0.893051
1.93291
0.0356434
3.15213
0.0250565
2.13605
0.0213771
0.326953
0.325589
1.94282
1.48884
1.54136
0.0239856
0.045144
0.0213297
7.19352
0.352959
2.28281
1.22013
0.0277722
1.64805
0.850697
0.0372349
0.0236292
0.0217442
2.8064
0.0262702
0.065699
0.0278507
0.0221934
0.0208647
0.0218298
2.06669
2.88085
0.0319725
1.27804
2.65152
0.0233629
0.0214355
0.021247
0.0324707
2.40671
2.98177
0.0264059
0.028808
0.994661
0.0883391
0.0431108
3.13018
0.0310721
2.66617
0.0290535
0.0321808
0.0213977
0.027614
0.0700962
0.447214
0.299747
2.57778
0.0761059
1.79821
0.0283198
0.0245871
0.022445
1.97099
1.43118
0.597198
0.112827
0.0236607
0.0215719
0.0214201
0.0214801
0.0211593
2.32567
0.0297286
2.23136
0.0337947
2.00264
1.90995
2.39129
0.0369261
0.0256888
1.22083
0.042516
1.33766
2.74853
0.0208173
0.0504055
0.0272088
5.23376
2.16403
0.0368967
0.261832
0.465429
0.0261028
0.0573231
0.0253644
1.81391
0.26786
0.0241685
0.0216869
0.298277
1.92473
0.168265
0.826267
0.151845
0.0328408
0.0220406
1.54648
2.45818
0.0926703
0.0298813
2.09257
2.44043
0.0213612
0.0215121
0.0243926
2.34466
2.24819
0.0214313
3.69439
0.0221949
0.0215015
0.0220084
3.3976
2.14021
0.0368504
1.8876
0.0238192
0.0230389
0.0212056
3.40574
0.0230801
1.81062
0.0258473
1.06555
0.0219391
0.0213073
0.152461
2.37825
0.348361
0.0376548
2.03434
0.0206008
0.0216846
0.021526
0.044902
0.0637622
0.0632849
0.0402302
2.69028
0.0244382
0.30741
1.41509
1.60454
0.0227867
2.85512
2.45095
0.0247463
0.484227
0.0616901
1.5998
0.0218009
0.0778507
0.0223108
1.34454
6.38921
0.153844
2.55906
0.0246841
0.0452878
0.0232299
3.4083
0.0203909
0.0209029
0.565716
0.118988
1.41322
3.16348
0.0596246
0.0288282
0.0209576
1.09847
0.0341699
0.0229974
0.169198
0.0215631
0.0417208
0.0215765
0.916896
0.0239323
0.270877
0.225224
0.0352081
0.922436
0.059873
2.7016
0.0218644
1.26863
2.24761
0.0210523
0.0214971
0.0233765
0.021971
0.0400794
0.0217211
0.166473
0.0744727
0.0419718
0.182299
0.0221287
0.0220809
0.0211162
3.1128
0.0217091
0.0216458
2.78067
0.0238575
1.07675
2.60343
0.0855688
0.0262484
0.034588
0.0230146
0.0221887
0.0414472
0.0208043
0.024002
1.60209
2.43692
2.87619
0.0229778
1.4785
1.06229
0.0219798
0.0365706
2.44648
0.0214415
0.0235972
0.0213822
3.24258
1.42551
0.622048
0.0207677
0.0242739
0.0260989
0.0216958
0.148722
0.0220385
0.0453438
2.1342
2.7753
0.0208586
0.0239283
0.0234645
1.70757
0.0199061
1.35618
1.69235
0.0665718
0.798554
2.39183
1.78507
0.024987
0.613128
0.295091
0.0224898
0.0209089
0.0210736
2.54611
1.55798
1.64939
0.0221674
2.67225
0.0217981
2.00343
0.0215105
0.0237645
0.0224544
0.0208275
1.47072
0.0225247
1.78806
2.70267
1.36189
0.0486062
0.048477
1.4476
2.3841
0.0231046
2.59749
0.0210951
0.0198769
0.0214103
0.0286503
0.0220627
1.16897
0.0335374
0.0441506
0.0414274
1.54856
1.1808
0.611892
0.0207761
0.0607952
0.0865088
1.51409
0.0228986
0.0199325
0.0242306
2.68134
0.0227579
0.0779525
1.18254
0.0399775
0.0636452
0.0228696
0.130379
0.0219492
2.41447
0.0204931
1.84186
0.0300357
0.021662
1.15765
1.3592
0.020544
0.0610632
0.025093
1.63657
0.0359177
1.55609
0.0417173
0.0219942
0.0610014
2.05588
0.0229582
0.028352
0.0258996
0.074819
0.0314346
1.71757
2.56632
0.0216905
2.88337
0.0226198
0.0434335
2.20777
1.20637
0.0390764
2.50515
2.17313
0.0216969
0.0994157
0.142097
0.0300024
0.0224938
2.03761
0.0206075
4.78993
0.0370385
0.301971
0.0214147
0.0340498
2.7312
0.0439487
1.94109
0.0222345
0.0240711
0.753817
2.12212
0.0256561
2.38688
0.817644
1.16746
0.0220868
2.16287
2.23174
1.49252
0.0214737
0.0247316
0.0220719
2.45686
0.0318203
0.177645
0.0856341
0.0220562
0.0211748
0.0214515
1.54521
3.42496
2.47673
1.22313
0.0211612
2.13568
2.51182
0.153509
1.44825
2.55672
0.0382695
5.45968
0.0234476
0.0253566
3.27346
2.4315
0.0237498
5.11029
0.0225922
0.0215222
1.57855
2.6245
3.09241
7.58841
0.0323539
0.0220355
0.0249127
2.73583
1.35613
0.0213027
0.0432803
0.475709
0.0215381
0.021758
2.50799
1.50527
0.0235537
0.021505
0.0224141
0.0234007
0.69332
0.0219598
0.0224657
0.0265317
1.76539
1.60679
0.457539
1.96727
0.0217134
0.0256653
2.27092
2.47173
0.0298461
1.02808
0.0213978
0.0352926
0.0244193
0.024201
0.0731805
0.0222402
0.832855
0.0348981
0.0216772
0.0252932
2.21983
2.13249
3.10977
0.021553
0.0281184
2.56885
0.580934
0.0240957
0.0227136
0.0215459
0.11675
0.0217878
0.02359
0.0282148
0.0214824
2.3066
0.118248
0.0220073
0.0246157
0.020618
0.0219992
1.81524
0.294001
0.0694152
1.35386
0.0861433
0.0220976
0.0213787
0.0216686
0.0219826
0.0219506
0.0267434
0.0849739
2.15713
0.025044
0.131316
3.04112
0.0385319
0.0215727
0.0209169
0.0235029
1.71909
0.0218766
2.09915
3.09283
0.0507827
0.0249488
5.73775
0.0206978
0.0466955
0.0209804
0.0207641
0.0228304
0.0219127
0.0394295
2.54087
0.929608
0.039423
1.70276
0.898333
1.07255
0.0309023
2.6426
1.36315
0.133316
1.85457
2.533
0.125525
0.114571
0.021984
0.0221133
1.25599
0.0213536
0.0246629
1.48319
0.0360133
1.29606
1.95147
0.0212771
0.0259603
0.0217223
0.0423665
0.0214424
0.0340742
1.50796
2.29926
1.0833
0.0217541
0.0207168
0.0706836
4.70633
2.3403
0.457963
3.1664
0.0210918
3.26539
2.99846
0.243758
0.0248648
0.0217939
0.0205099
0.0243976
0.0220463
0.0219386
0.0244263
2.34398
0.0773976
2.71112
0.131888
2.25068
0.173249
0.0213664
0.0219354
0.0247647
0.0212441
0.0219483
0.286496
1.99266
0.785722
2.61437
0.0234163
1.23494
1.83173
2.42538
2.66522
0.0219375
0.0218015
0.0443815
0.0217912
0.0205825
0.521169
2.32405
3.16849
0.0215682
0.0217206
0.0276164
0.039549
2.13151
0.0211342
0.0259659
2.79998
0.020955
0.472438
0.0390469
1.44414
0.0220074
2.98844
4.46751
0.0380411
2.71304
0.129987
2.76769
0.0206448
0.0259624
0.0212786
0.0306826
2.91928
0.0223455
1.45453
0.0243838
0.022701
0.021509
2.50933
0.0426512
0.13168
0.577222
0.0212994
0.0482745
1.49517
0.0603929
0.0222395
0.0254289
0.0218424
0.0517999
0.0225379
0.0219199
2.57325
2.86256
2.42296
1.96668
2.67802
1.19142
0.0663645
2.71865
0.440248
0.0205074
0.0217462
0.0198332
0.0221227
2.75702
2.67169
0.0213579
1.64749
2.46791
0.0284766
0.0248794
0.0267987
1.98732
2.48136
2.38212
1.58883
2.35976
0.0198278
2.65475
0.119509
0.0908519
3.30348
0.0214391
0.151661
1.25913
0.0346452
3.80116
0.0224321
0.0347795
1.20315
2.40261
0.0711595
0.0321009
4.70068
0.143769
2.44519
2.3751
2.28728
0.127604
2.24219
0.0217554
0.0283756
0.0452459
3.50469
0.241262
2.87603
0.0243789
0.320672
0.0829958
0.0246687
2.5603
0.0214425
0.153538
3.43791
0.0214423
1.4875
1.78143
2.39283
2.10085
2.29628
0.194316
0.0218458
2.77925
0.0242193
0.022471
0.0405479
0.0241313
2.5178
0.0242316
0.0280033
0.0244807
0.021855
2.05364
0.0234179
0.130749
0.0851547
0.0208169
3.12687
0.118571
0.0251922
2.09724
2.81342
0.0214125
1.41096
0.0223222
2.45478
0.225602
0.0214401
0.118532
0.0234722
2.82375
2.39776
0.0720563
1.38805
0.0286054
0.021554
1.4954
0.0240378
0.0221237
3.13121
0.0379656
0.0210568
0.0216196
0.754599
0.0233308
3.38261
2.68635
0.0351453
1.50599
0.0492456
0.0670529
0.0219637
2.84318
5.32064
1.44506
0.0214829
0.0211076
0.0743902
0.0317953
0.398676
0.0221781
0.464705
0.0223873
1.72272
0.0234666
0.0359183
2.18588
0.124276
2.98961
1.54103
2.4013
2.42431
0.0198842
3.08768
3.1326
3.89455
0.0222224
2.33725
5.12592
1.68123
0.123141
2.57216
0.833017
2.88445
0.0422312
2.74896
0.0208143
0.0454829
0.039821
0.0214087
0.0663315
1.40565
0.0568651
1.49273
3.32803
0.0212868
0.0212504
0.0344869
0.0214212
1.11541
0.0211777
0.0213341
2.92738
2.74524
0.0371651
0.11868
0.0249792
0.103917
1.46283
2.47111
1.30796
0.0252503
2.43197
0.0250077
0.0211756
0.0232826
2.67467
2.91324
2.62137
2.84921
0.0225465
0.0215266
0.0214248
0.0219948
0.0263732
2.04082
3.21118
0.0292177
2.58784
3.41596
0.268241
3.61304
0.0215499
0.0298209
0.436184
0.0215068
0.0259699
0.0270328
0.024194
1.9915
2.49178
0.021202
0.0371824
0.0301226
0.0771139
1.55037
1.47811
2.7943
0.0228679
0.0786032
2.60387
0.0787565
0.119499
0.177714
2.02551
3.13761
2.66962
0.0210594
2.29579
0.0212858
0.0246733
0.0214945
0.0634636
3.04295
5.98516
0.46512
1.98334
0.0590228
0.0204795
0.0209083
0.0217411
0.0258276
0.0426694
2.8334
2.53667
0.0737387
0.68909
0.022169
0.0591271
0.0208742
2.39509
0.109433
0.0227007
1.72134
0.11796
1.48268
3.08639
0.930856
2.6191
0.0254087
1.46575
2.78062
3.16932
0.342169
0.0248007
0.0591388
0.0216698
2.36089
1.70572
0.0409469
1.53208
2.72737
1.47857
0.0720075
1.96189
0.0470941
0.020983
0.126022
0.065858
0.0244121
0.0592596
0.0313368
0.033539
1.69858
0.179489
0.0239735
0.0314183
0.036082
0.0340345
0.0253681
1.43746
0.137304
0.057792
4.63199
0.0215505
2.60973
0.0215272
0.0262239
0.0241516
2.54892
0.0409135
2.49181
3.07742
0.0638095
0.0536534
0.129125
1.843
0.157776
1.35533
0.0291527
0.0425264
0.0224926
2.5979
0.459339
0.0294363
0.0223399
0.0401258
0.0258828
0.0250043
0.0457809
0.037372
0.0218255
0.0367055
2.5895
3.5513
1.5647
0.0402443
0.0201162
1.93372
0.0316025
0.0604026
0.987587
0.0402438
1.36549
0.0206449
0.0265267
0.0262507
0.0358883
0.021432
2.74493
0.0567897
2.27023
0.0408122
2.60864
2.77922
0.0256068
1.72139
0.0621137
2.71481
2.65635
0.0512275
0.0243302
0.0381919
0.0723226
0.0273608
2.83234
3.23207
0.285579
0.0210037
2.84368
2.09662
1.51135
0.0213688
0.043334
0.0223968
0.0317607
2.09413
0.0301623
0.029473
0.0210761
0.0209872
1.79204
2.62549
0.0220171
1.64063
2.66502
0.0205202
0.029006
2.63342
0.15087
0.117371
0.0214961
0.0274013
0.561547
0.0225725
0.0215266
1.64343
0.0295579
2.70645
0.0809816
0.0261868
3.1142
0.593693
1.93142
0.0210994
0.327175
0.0291211
0.0267398
1.5219
0.0393013
0.0220674
0.101654
0.0247006
0.0287337
0.0207268
1.27569
0.0215333
0.076609
2.27779
0.11976
0.0219167
2.45071
0.0301467
2.02168
2.13777
2.9344
0.215169
2.41545
0.0208671
0.0773293
0.0253796
0.0212512
0.389457
1.84696
0.0248333
0.8293
0.0285552
0.0734208
2.99213
0.0259068
0.167402
0.954045
1.71243
2.18833
1.78323
0.0266686
0.0212463
0.0869703
0.0386319
0.769636
1.3374
2.38204
1.4961
2.45777
0.0209505
1.41968
0.0214736
0.0225504
0.0217941
0.403901
2.16655
0.149199
0.0213921
6.80837
0.0275589
3.15655
0.0225494
0.0699033
0.029626
0.0647185
0.0439888
0.117165
0.0230639
2.33666
1.57845
0.0211376
1.96285
2.91815
0.0601661
0.0235002
0.0304248
0.0219409
0.0216396
0.06003
0.0317117
1.37738
2.58538
0.084952
0.999097
0.0232182
1.19354
0.0608396
1.53919
0.0321359
0.0328865
0.33672
0.0336496
0.0536551
0.325412
3.79284
0.0245323
0.0222269
2.34354
0.0310839
0.0240209
0.0311197
0.0315205
0.0216304
0.0275187
2.42403
0.0230072
0.0436314
2.51105
0.128826
0.0727358
1.62678
1.52055
2.52364
3.77541
1.13645
0.0593858
1.13585
0.0232421
0.0246593
0.0216949
0.021204
1.35488
0.467394
0.0343547
0.0211963
0.996747
0.139165
0.0234283
0.0292479
0.0536637
0.0214573
0.0236016
1.88886
0.0263529
0.0351723
0.0397406
0.0236018
0.152549
0.0620414
0.0309069
1.96011
0.093707
1.84718
1.7412
2.46837
0.0265129
2.40412
2.07544
0.171927
0.0740429
2.29153
0.0728367
0.0274585
0.0465108
0.0666919
0.0235316
0.0837893
0.0214266
0.021356
0.0207809
0.0248355
2.69262
0.0213335
0.116407
0.0265067
0.0237854
0.0250929
2.59635
0.0234725
0.0680615
0.0217715
0.0251884
0.0257213
0.0220043
1.28681
0.0237286
0.0217504
0.0224266
0.0309063
0.0227577
1.39294
0.0276327
1.39335
1.53078
1.49587
0.0594481
0.0848362
0.0489832
0.0384957
0.0295744
0.0249104
1.24693
2.5482
1.48454
0.0724357
0.0306163
0.0235481
1.69499
0.0440108
2.8152
0.02392
0.875176
0.166298
1.19827
1.05135
0.0206872
0.0214854
0.0211473
0.0281428
2.57058
0.0538218
0.859204
0.0268995
0.0282345
0.0213314
0.0220107
0.0370122
0.0238561
0.0247819
0.0226663
2.76399
0.0638306
3.20813
0.0284817
3.25032
0.0219981
0.0211909
0.115583
0.0221898
0.0245338
0.062935
0.0247744
0.0786429
0.0214956
0.0290393
0.0216709
0.0252644
2.50957
0.0225627
0.0238107
0.0231257
0.024703
0.776191
0.0219368
0.0471596
1.89781
0.0253604
0.0304907
0.0226535
0.028051
0.0220214
1.52895
0.021772
0.0292009
3.91351
0.0214996
0.030403
0.047615
0.0694263
1.28709
0.0206238
0.0241988
0.0248688
0.029508
0.336614
0.965142
2.68697
0.0207502
0.0320271
0.109247
0.0290911
3.34071
0.0204336
0.0217142
1.81957
0.0390272
0.0239543
0.0205961
1.65119
1.37045
1.30761
0.0217044
1.53843
0.0205318
0.0208315
0.0238753
0.0742814
3.0652
0.021701
0.02127
0.0730587
0.0217362
0.0234152
3.01779
4.84146
0.0218214
0.0211571
0.0243884
0.0332626
2.70063
2.84049
0.0221172
0.114664
0.0227199
0.0215167
1.76112
0.0262455
0.0226002
0.0297632
2.61821
0.154005
0.0235373
0.0222927
2.56202
0.0399128
0.0226278
1.69876
1.70239
0.0216783
0.0219959
0.023255
0.0214278
0.0217052
0.0221124
0.0210149
0.0404658
0.023152
0.0500904
0.0453659
1.37181
0.782621
0.0325331
0.0205807
0.0219406
0.0223433
0.0233031
0.0395826
0.0298924
3.09488
0.0244188
0.356692
0.0255184
2.09293
1.21086
0.0285283
0.02592
0.451545
0.0242478
0.0309827
0.0214731
0.0225148
0.0211843
0.03704
0.0488701
0.053789
0.114151
0.0239264
0.0293952
0.0224026
2.86435
1.74109
0.403464
0.0285076
1.10273
0.479298
2.20583
0.022134
3.13596
0.0642875
0.0214876
0.0219169
1.51747
0.0217707
0.023165
0.023359
1.3468
0.0216625
0.0219358
0.0284666
3.09322
0.0216134
0.053458
1.20437
0.0239201
0.0216389
0.0216056
0.0215127
0.0219148
0.0219365
0.0420958
0.0253429
0.0216546
0.0219636
0.0220294
0.0294373
0.0215314
0.132628
0.0216619
0.021911
0.0398904
0.0395052
0.0310292
1.34271
1.14937
2.88645
0.0349807
0.0219772
0.0444179
1.89667
0.0209349
0.0509198
0.0289922
1.25266
0.0241978
0.0403984
0.0218949
0.0214623
0.128359
2.47148
1.44154
0.0845461
2.71265
0.0218915
0.0222662
1.45752
0.0208587
0.0216487
2.79053
0.021116
1.37576
0.0215359
2.11681
0.113578
0.0240015
0.674783
0.0299125
0.0790719
1.28963
1.27932
1.26713
1.60132
0.461543
1.45667
0.0217623
1.44933
0.021719
0.0214119
0.0221765
0.0223374
1.2711
0.0226923
2.42487
0.0218103
0.0214347
0.0216565
0.685069
0.0240802
0.0218215
0.0625744
0.0281914
0.0288272
0.0250264
0.0290157
2.65343
2.7024
1.19996
0.968433
0.113198
0.0225764
2.97319
0.0215092
0.0328309
0.136646
2.01708
0.0487838
2.90829
0.0216908
0.825939
1.46147
0.167514
2.56146
0.244787
0.0235719
0.0214328
0.0252056
0.0217533
0.0213977
1.59537
1.7341
0.0213881
2.09646
0.0214851
0.112977
0.0212967
2.20598
0.0317671
0.0235713
0.0219757
0.565646
1.34975
0.256993
0.0209051
0.0208338
0.0271676
0.023323
0.0223595
1.33651
0.977485
0.043466
2.33367
0.0492966
0.0219262
0.0361447
0.202324
0.0221338
2.37187
0.0569924
0.0543987
0.0243196
0.0243178
0.0211223
0.0199001
0.0214522
0.0278023
0.0208952
1.41238
0.04419
0.609766
0.021496
0.0477432
0.0218462
0.467575
0.0457457
0.057031
2.59525
0.0271831
0.0214569
0.0258433
0.0219728
2.65655
0.333625
0.0472687
0.057056
2.93236
1.21752
0.127028
0.0516486
0.0215009
0.0239766
0.0233339
0.034231
1.1703
0.0271519
0.0218472
0.466693
2.95464
0.0220396
0.0233881
0.0568648
0.0229277
0.0214284
0.0460175
0.0220152
0.0220489
0.0211201
0.0236281
0.0222859
0.0539285
1.4429
0.0215211
3.17083
0.114855
0.112538
0.0210892
0.0237383
0.0350037
0.0255707
0.021497
0.289639
0.0215179
0.0570417
0.0218667
0.0484881
1.67634
0.0571125
0.0229274
0.0642693
1.5361
0.99547
0.0214971
0.034025
2.24355
0.0222434
0.023826
0.0732699
5.71386
2.7864
0.0239176
0.0216313
0.0327002
0.0219248
0.022437
0.0313297
0.0220787
2.95901
0.0219611
1.38593
0.0217949
0.0215218
0.0592921
0.021429
0.0216894
0.0311823
0.868517
0.0207558
0.0409864
0.0220213
0.0221268
0.0228446
0.0285942
0.0267877
0.0780819
0.0238715
0.0219776
0.0220001
0.0360742
0.0225868
2.5131
0.0222703
0.112398
0.0325185
0.0259526
0.0278662
1.26554
0.0216763
0.0222419
0.0204862
0.247719
0.436271
0.0238822
0.0418737
0.0213088
0.0403839
0.0214955
0.0738747
1.41975
0.0243495
0.028468
0.0302678
0.0298713
0.0242599
0.0209159
0.0456749
0.0214625
0.0224155
0.0218787
0.0217717
0.0214083
0.0210113
0.0434254
0.0219256
0.0212057
0.043277
0.273347
0.0214422
1.63895
0.0212199
0.112321
1.46276