/*--------------------------------*- C++ -*----------------------------------*\
| =========                 |                                                 |
| \\      /  F ield         | OpenFOAM: The Open Source CFD Toolbox           |
|  \\    /   O peration     | Version:  v2012                                 |
|   \\  /    A nd           | Website:  www.openfoam.com                      |
|    \\/     M anipulation  |                                                 |
\*---------------------------------------------------------------------------*/
FoamFile
{
    version     2.0;
    format      ascii;
    class       volScalarField::Internal;
    location    "300";
    object      V0;
}
// * * * * * * * * * * * * * * * * * * * * * * * * * * * * * * * * * * * * * //

dimensions      [0 3 0 0 0 0 0];


value           nonuniform List<scalar> 
13851
(
0.0933843
0.0503678
0.0153638
0.0938516
0.0127233
0.087274
0.0774066
0.0206915
0.166573
0.0232858
0.173358
0.0180903
0.0050725
0.00647488
0.168485
0.0349222
0.044173
0.0593047
0.00819853
0.166685
0.106594
0.0169327
0.165051
0.186391
0.157625
0.0238451
0.0315008
0.000970721
0.0912194
0.0638135
0.0857444
0.0419565
0.018923
0.105165
0.204992
0.00538971
0.0042897
0.0113158
0.0195652
0.134534
0.101383
0.170931
0.00132676
0.162847
0.159434
0.00302031
0.155611
0.111529
0.0300256
0.145701
0.0111333
0.00677881
0.00137701
0.149347
0.17136
0.169713
0.169061
0.0021211
0.0742277
0.0760187
0.0127065
0.00549592
0.0663151
0.00927222
0.0426896
0.0823144
0.00343115
0.16587
0.0212693
0.0622305
0.00128351
0.00337292
0.0478601
0.169962
0.170232
0.119208
0.0112996
0.00167649
0.0162914
0.00137834
0.0733097
0.166363
0.121533
0.00273345
0.0623484
0.0166811
0.0887981
0.0271942
0.0386842
0.1831
0.00523979
0.109219
0.128875
0.0247098
0.0411564
0.155189
0.0120739
0.00300942
0.125576
0.184027
0.00374399
0.0146382
0.0795589
0.0290881
0.163003
0.0941909
0.0131285
0.183493
0.00289032
0.0843555
0.15704
0.185462
0.107055
0.193712
0.162113
0.0680467
0.00390067
0.135023
0.170684
0.152203
0.00136046
0.036196
0.00513559
0.107915
0.103253
0.175782
0.106859
0.0129743
0.0897291
0.00795772
0.113754
0.161057
0.00133911
0.12692
0.0698729
0.16522
0.166075
0.00332024
0.00676286
0.010171
0.00335549
0.186111
0.137047
0.16244
0.053345
0.157084
0.186924
0.0106407
0.0914148
0.160248
0.00836706
0.165102
0.00516909
0.149398
0.0385681
0.0600396
0.122838
0.0594264
0.00680963
0.0117961
0.173074
0.0197067
0.0016613
0.145217
0.0637148
0.169776
0.197682
0.0202293
0.0910471
0.00302303
0.00137042
0.144135
0.119499
0.00907991
0.149788
0.105086
0.0168584
0.106174
0.00782589
0.180837
0.0351371
0.00311455
0.11324
0.011927
0.170527
0.164949
0.0791556
0.153459
0.0118329
0.0288165
0.149802
0.00152463
0.1534
0.0186249
0.00687067
0.0483476
0.135866
0.132481
0.126744
0.119275
0.175031
0.00388522
0.167228
0.113171
0.0238925
0.115257
0.00927758
0.0405369
0.00193276
0.178653
0.0024819
0.0927652
0.139061
0.192597
0.178571
0.164824
0.0671632
0.00285565
0.126771
0.00192746
0.0326278
0.0649965
0.00249007
0.00746851
0.00220512
0.177989
0.0267231
0.163481
0.00138263
0.178382
0.0247502
0.044888
0.141958
0.151386
0.0106425
0.0485634
0.00851317
0.0350896
0.177201
0.100838
0.087664
0.135002
0.194623
0.0214311
0.162202
0.00163481
0.0137983
0.127105
0.0563008
0.0450189
0.120808
0.126841
0.0562808
0.0525679
0.0133345
0.0655023
0.0336176
0.00308519
0.00122509
0.122253
0.166723
0.0732764
0.0781652
0.175312
0.00667683
0.041877
0.0556738
0.0245802
0.00257659
0.141958
0.119762
0.0437157
0.0885306
0.0165079
0.0377001
0.149561
0.171692
0.154785
0.00223984
0.148254
0.146706
0.191114
0.162493
0.0132832
0.0903149
0.0975023
0.153326
0.126709
0.0896881
0.187531
0.00847307
0.056501
0.0642805
0.0196975
0.142729
0.00694089
0.0368026
0.0178319
0.140841
0.00176192
0.0189026
0.0397665
0.00228367
0.0790136
0.0936716
0.00245043
0.151639
0.014339
0.0297065
0.0613157
0.00772675
0.0293101
0.0567169
0.00288306
0.165281
0.0387422
0.175935
0.00263844
0.00611277
0.123312
0.0129521
0.131411
0.00179128
0.120376
0.172337
0.109733
0.00691537
0.0266443
0.03763
0.128186
0.0831118
0.0660326
0.195928
0.00411851
0.00392013
0.0657539
0.00265944
0.00672243
0.148397
0.0180158
0.00840304
0.0892885
0.0405542
0.00641279
0.00738895
0.109198
0.0734379
0.00203551
0.161363
0.15082
0.150983
0.012071
0.0371967
0.0397447
0.0014038
0.118535
0.0783977
0.110108
0.140376
0.169178
0.169205
0.13324
0.002119
0.177765
0.0865627
0.0172238
0.1681
0.0162189
0.0360658
0.0926349
0.00363232
0.0842917
0.0395162
0.02834
0.10781
0.120677
0.133545
0.0990836
0.00296028
0.182907
0.00837916
0.100561
0.00578481
0.00322026
0.155749
0.159513
0.0965975
0.138983
0.145413
0.0674405
0.0103804
0.00586854
0.0205362
0.00252251
0.00226111
0.126205
0.0974085
0.00372755
0.00135462
0.0423008
0.00363717
0.104843
0.026283
0.167102
0.00752034
0.133053
0.0266844
0.103847
0.0833542
0.167578
0.141184
0.126348
0.00828266
0.045877
0.00161876
0.0684581
0.0116948
0.0840697
0.118019
0.0439976
0.0139074
0.0403706
0.161545
0.174845
0.147235
0.163301
0.010468
0.128579
0.00899785
0.0791331
0.00155136
0.101662
0.0902106
0.173568
0.00829123
0.120038
0.122679
0.180243
0.0160984
0.141619
0.0181988
0.00154664
0.127209
0.161853
0.159959
0.00366977
0.185425
0.0248385
0.0143862
0.1316
0.139795
0.064703
0.00860042
0.00687285
0.0630958
0.0172048
0.187346
0.108181
0.0016989
0.0557215
0.181157
0.0238162
0.132928
0.0796807
0.143747
0.0458522
0.0599737
0.167698
0.127336
0.00364535
0.104853
0.0179857
0.159109
0.0765659
0.167197
0.167277
0.10763
0.178444
0.171456
0.100614
0.0640463
0.0927403
0.112454
0.17571
0.00406854
0.00137222
0.10045
0.0868883
0.0415996
0.128445
0.00281034
0.0912429
0.159598
0.115455
0.0115538
0.0746789
0.00170383
0.174296
0.00121209
0.0295968
0.163474
0.087452
0.00302551
0.020765
0.13803
0.163488
0.11118
0.177143
0.144486
0.150691
0.0842587
0.00138063
0.0114126
0.00644804
0.00403285
0.0624819
0.183236
0.006208
0.132079
0.032013
0.0233316
0.110648
0.110972
0.00282169
0.146746
0.00213347
0.00286844
0.00334215
0.0401023
0.0670163
0.114966
0.16396
0.0749708
0.128997
0.0150378
0.0582098
0.0149583
0.00344017
0.171944
0.159346
0.0113522
0.0012942
0.0521525
0.124045
0.128849
0.0917387
0.0114751
0.0472517
0.0310555
0.0170447
0.154322
0.00183933
0.00166135
0.0943325
0.141024
0.0192504
0.128281
0.14481
0.153559
0.00577725
0.0290483
0.00711911
0.00426189
0.165561
0.0827729
0.105013
0.014473
0.00893603
0.00132617
0.00300837
0.109227
0.082675
0.0254634
0.00202754
0.00555004
0.0167436
0.0627134
0.167243
0.127634
0.0140483
0.175603
0.053296
0.178319
0.148132
0.00271653
0.0103579
0.0850892
0.158496
0.00759044
0.128807
0.138455
0.142483
0.16563
0.151726
0.00282479
0.122732
0.130874
0.00368756
0.114095
0.019234
0.00123429
0.00146572
0.0771398
0.0195242
0.127303
0.173566
0.0293872
0.00393906
0.0776034
0.007562
0.0267939
0.145448
0.0387177
0.125856
0.131119
0.00946478
0.116227
0.0661872
0.137609
0.0229493
0.00730102
0.0804253
0.110334
0.0324251
0.0622669
0.0111384
0.0108445
0.00613315
0.0385305
0.00522697
0.143022
0.052266
0.102765
0.00294695
0.099756
0.170974
0.00281445
0.0657951
0.00197717
0.00187707
0.0026669
0.0262793
0.128452
0.00302019
0.127822
0.149313
0.165748
0.147531
0.146445
0.0689135
0.0498982
0.161819
0.00989612
0.0282297
0.00828081
0.127383
0.157725
0.138545
0.0101315
0.00646776
0.0105953
0.0230834
0.130515
0.141885
0.153253
0.0925511
0.00398113
0.0136668
0.0614876
0.171629
0.081252
0.127777
0.0162094
0.00154857
0.0353002
0.00408555
0.111177
0.115909
0.00731163
0.00298551
0.0197704
0.0155639
0.0728294
0.0626038
0.0115119
0.0685537
0.135777
0.108588
0.130684
0.184178
0.015722
0.00165731
0.130063
0.0610717
0.0641784
0.142534
0.0373112
0.0870329
0.0068614
0.00989182
0.00706591
0.144329
0.169621
0.131364
0.0044356
0.0040466
0.0470069
0.00192287
0.15588
0.135188
0.169906
0.118443
0.0035009
0.0479218
0.0822181
0.156826
0.0393293
0.122836
0.00202616
0.0486876
0.00166386
0.156006
0.0662187
0.00126322
0.00122059
0.00492752
0.1215
0.00255528
0.125508
0.162819
0.0145302
0.0184276
0.0426724
0.00275794
0.0881298
0.127684
0.00434054
0.171295
0.171845
0.0593442
0.131085
0.00203336
0.0239737
0.00907705
0.0728905
0.15598
0.14315
0.0841194
0.177154
0.109885
0.162003
0.110535
0.15345
0.00183457
0.129415
0.13247
0.0952301
0.0811354
0.00130981
0.15284
0.124865
0.00641277
0.0160112
0.134847
0.154054
0.0786121
0.00442921
0.0571032
0.00279944
0.0174081
0.13205
0.104069
0.00118883
0.0936862
0.0429216
0.148446
0.16643
0.162116
0.0166447
0.0310466
0.049829
0.103259
0.133317
0.123393
0.00663858
0.1274
0.0115071
0.0762437
0.0771357
0.0111187
0.00640564
0.00228115
0.0524762
0.00989751
0.00434316
0.0931029
0.00264214
0.0516447
0.00518333
0.00701216
0.00249475
0.129887
0.0280582
0.143472
0.0658528
0.00216585
0.002274
0.119337
0.175643
0.0116752
0.154737
0.130712
0.0012985
0.151684
0.0959516
0.00179364
0.00145304
0.1171
0.117258
0.136632
0.00108579
0.00337515
0.00620025
0.106056
0.00388071
0.0122335
0.00663521
0.0133612
0.0156151
0.0535372
0.0761337
0.0400195
0.0104217
0.000793513
0.0983803
0.0222806
0.00207329
0.00481061
0.00142303
0.0878028
0.0191707
0.140976
0.0360087
0.0593958
0.0112143
0.191745
0.0017134
0.118321
0.00735785
0.10555
0.0141976
0.015945
0.0201968
0.00301397
0.0139876
0.0428298
0.165083
0.00818093
0.0930063
0.0573766
0.0555063
0.00115365
0.168838
0.00719149
0.148376
0.0780845
0.00174144
0.00287478
0.0014305
0.138103
0.121389
0.113243
0.00166071
0.171582
0.0649574
0.00159039
0.132339
0.0396508
0.00965226
0.137977
0.0107548
0.072844
0.128319
0.0289319
0.00183833
0.00858133
0.0417902
0.101041
0.15111
0.00203241
0.0071228
0.128037
0.0261078
0.144304
0.118584
0.157735
0.140088
0.013355
0.126001
0.0904435
0.121986
0.106089
0.0594692
0.00129842
0.00297319
0.0277208
0.00782501
0.098704
0.0250223
0.108682
0.145215
0.0880318
0.0949679
0.00128539
0.0898341
0.011428
0.0862035
0.0450035
0.156686
0.0012166
0.126959
0.0248554
0.0268242
0.00413168
0.0214459
0.0214403
0.00122215
0.0251012
0.0480829
0.0140649
0.0766751
0.00131303
0.017398
0.178321
0.0854906
0.0173343
0.0130084
0.00906092
0.143456
0.00956007
0.131598
0.126348
0.00564306
0.16345
0.00646943
0.0351533
0.140592
0.0712746
0.130791
0.124588
0.135958
0.0647762
0.00389382
0.128575
0.00374825
0.00189241
0.028471
0.00669556
0.0780482
0.176461
0.156746
0.0902801
0.127377
0.00834081
0.0485191
0.11747
0.0784074
0.174719
0.00148014
0.0132447
0.0593664
0.0032965
0.00417777
0.0893989
0.100559
0.0229362
0.127166
0.139157
0.0926706
0.101249
0.15059
0.157365
0.134885
0.00198862
0.140182
0.00470349
0.0313072
0.037599
0.165826
0.14779
0.0130151
0.0508292
0.0927104
0.132214
0.103227
0.100414
0.0719208
0.0148479
0.146977
0.0397212
0.00551875
0.128026
0.160984
0.0949208
0.04416
0.0803431
0.0334434
0.0124433
0.0154586
0.0504202
0.102856
0.0152108
0.108241
0.00156786
0.00395752
0.0621769
0.00570294
0.126484
0.157788
0.0958654
0.120142
0.141634
0.137674
0.147205
0.136412
0.00949626
0.134873
0.136909
0.0569057
0.0185189
0.00364304
0.0475452
0.0585741
0.160307
0.0101255
0.0067615
0.0493656
0.00190684
0.00958624
0.00712019
0.141918
0.00919767
0.0922522
0.137552
0.0986606
0.00132596
0.00722698
0.127146
0.0315637
0.153157
0.109466
0.147024
0.0864493
0.096374
0.0684834
0.131543
0.0167521
0.0516858
0.00128749
0.185774
0.0324763
0.134425
0.00685878
0.0188811
0.0027701
0.00620954
0.0068149
0.010821
0.00159982
0.123341
0.00384114
0.146433
0.0205687
0.138363
0.0525211
0.0201507
0.0748072
0.00152372
0.0317395
0.0311191
0.146976
0.00582236
0.0989862
0.135556
0.0367811
0.0440551
0.167105
0.0671429
0.0285544
0.111493
0.0419472
0.109541
0.0244572
0.0997682
0.109599
0.00388505
0.0358149
0.151236
0.0571423
0.00244358
0.0222354
0.0149899
0.00602671
0.112178
0.141187
0.0035061
0.068289
0.0167217
0.0262131
0.0024358
0.112734
0.00781584
0.0456863
0.0578076
0.0733787
0.0951677
0.00123058
0.0459502
0.00150784
0.16034
0.0224502
0.00502237
0.0398333
0.00251506
0.00355656
0.149501
0.0255489
0.00165389
0.0246058
0.00278069
0.129093
0.0921091
0.00111013
0.00693543
0.00208779
0.145392
0.0854279
0.0983222
0.00147332
0.00504413
0.062429
0.091351
0.015503
0.0115222
0.00338892
0.0918237
0.116211
0.00262064
0.0320032
0.10635
0.00548528
0.00619625
0.0485913
0.135604
0.00101492
0.00260315
0.151777
0.134708
0.0109533
0.147692
0.164025
0.108407
0.102618
0.0914013
0.0105154
0.0400993
0.00367676
0.0530549
0.00126001
0.0988984
0.0099062
0.00529907
0.00762701
0.109192
0.113282
0.0103338
0.127158
0.112695
0.155257
0.0878431
0.103587
0.0037293
0.13353
0.121769
0.00159447
0.0197605
0.013187
0.0510307
0.134428
0.144444
0.0209563
0.00294731
0.00301917
0.12269
0.0110852
0.13983
0.0865834
0.145101
0.00167986
0.0184996
0.0334037
0.00662313
0.00896038
0.0663878
0.00318323
0.00279001
0.110424
0.141038
0.155599
0.0207874
0.0111694
0.154065
0.00556045
0.113405
0.160712
0.0122501
0.00160101
0.0684922
0.00533346
0.0511928
0.00182496
0.090357
0.0788692
0.089118
0.0505164
0.152079
0.132937
0.0499719
0.00226731
0.0021383
0.0344998
0.00266774
0.0432849
0.00185808
0.00225662
0.0207222
0.114302
0.111856
0.134536
0.113227
0.0038993
0.153281
0.0401791
0.0634235
0.0063018
0.0024087
0.00311416
0.0887848
0.00321963
0.052741
0.0505598
0.119972
0.12738
0.00180356
0.0397899
0.00144303
0.0286236
0.0912463
0.00618721
0.144894
0.0364126
0.0832721
0.00452487
0.10079
0.0451224
0.0884617
0.119229
0.00435035
0.0470962
0.0245608
0.118903
0.0225624
0.0120806
0.00120331
0.114118
0.0115173
0.115576
0.0613257
0.15006
0.00636925
0.0216586
0.0175197
0.035538
0.135232
0.110034
0.109396
0.161206
0.134649
0.125118
0.127945
0.0020579
0.0352456
0.0764842
0.103398
0.160068
0.00892438
0.00331653
0.00681605
0.019046
0.0900048
0.135245
0.155708
0.120322
0.00556501
0.00165712
0.164498
0.0462933
0.0315087
0.00317548
0.0618236
0.0426504
0.00130939
0.0398191
0.142352
0.00324004
0.00231324
0.0890961
0.146994
0.095328
0.00155508
0.00534822
0.0244208
0.00612162
0.00349916
0.0406251
0.00232454
0.0144376
0.0929783
0.00660887
0.00709367
0.14415
0.00190714
0.0776301
0.113296
0.147768
0.00554295
0.111976
0.00479923
0.0544126
0.0461031
0.0169845
0.119735
0.00370832
0.00227362
0.145327
0.0518268
0.0048798
0.0124884
0.00152404
0.0202468
0.154542
0.111555
0.0962802
0.14321
0.0841191
0.0435219
0.0985379
0.010198
0.0185024
0.0210197
0.120561
0.141984
0.132357
0.0260355
0.0253917
0.0945891
0.0112108
0.0187862
0.0301186
0.0124329
0.014394
0.0620929
0.00232219
0.112736
0.129243
0.00452408
0.00337188
0.00103865
0.0893795
0.16444
0.00152316
0.145603
0.126043
0.0254313
0.142274
0.0151169
0.0115136
0.148387
0.00135563
0.00369383
0.0506552
0.00715962
0.00123315
0.126605
0.0404623
0.00474095
0.00164042
0.0367548
0.0081672
0.140312
0.157404
0.140264
0.0443252
0.0021951
0.00366821
0.00151666
0.00342961
0.0375578
0.0377458
0.0292329
0.128241
0.152393
0.1299
0.00376527
0.11998
0.00293603
0.0388502
0.061915
0.0106677
0.00381391
0.000806913
0.00296735
0.0152343
0.100379
0.125954
0.00309774
0.00347726
0.0339128
0.141564
0.150282
0.0169347
0.0334315
0.00537855
0.0125776
0.0399349
0.149343
0.00555282
0.134519
0.00123722
0.0542998
0.127244
0.0095148
0.094545
0.00154039
0.159816
0.0017495
0.144699
0.0419533
0.0655075
0.138869
0.0631157
0.0171744
0.0147301
0.0019369
0.00236152
0.0312329
0.024648
0.0832486
0.00327221
0.00198899
0.127576
0.149873
0.140733
0.166101
0.00142336
0.178697
0.0534025
0.0194994
0.046839
0.0494304
0.0725862
0.0781282
0.008699
0.00215154
0.109199
0.0692216
0.00487193
0.0550799
0.0209324
0.0404985
0.00181705
0.0258642
0.0158586
0.113135
0.148657
0.146436
0.00199867
0.00216878
0.0129073
0.152622
0.110533
0.128633
0.000935541
0.142566
0.00232222
0.00212454
0.0410699
0.0142862
0.0789562
0.039394
0.0705692
0.0766477
0.00130776
0.0436954
0.00883103
0.154951
0.0844319
0.144505
0.0772618
0.00477948
0.00382584
0.0304269
0.0023928
0.00518899
0.164793
0.101087
0.143212
0.104199
0.00188303
0.00384213
0.0446905
0.142027
0.0723264
0.0174265
0.0178568
0.000958105
0.0331308
0.00220154
0.0148113
0.0621214
0.106503
0.145906
0.0101519
0.124566
0.142831
0.00153223
0.0196567
0.00557397
0.10398
0.0318049
0.133821
0.00154971
0.0035795
0.111817
0.0875313
0.0362468
0.087966
0.130059
0.108407
0.134442
0.00109058
0.0312986
0.000982269
0.037158
0.00619026
0.0165942
0.00166722
0.119137
0.0259939
0.00162305
0.0404495
0.037398
0.001294
0.139826
0.114052
0.029307
0.00284604
0.00134451
0.0361205
0.0900988
0.122343
0.146779
0.0459075
0.192736
0.00328
0.145104
0.0386091
0.0758019
0.1423
0.0197943
0.00802179
0.0863277
0.00610184
0.100812
0.150969
0.0200692
0.00155515
0.0215489
0.020864
0.00440581
0.00591243
0.127948
0.0969346
0.0343848
0.00256238
0.00228416
0.109004
0.00122668
0.0485841
0.111203
0.0820483
0.00367897
0.0146525
0.115908
0.000758406
0.0685389
0.0473417
0.119419
0.00198742
0.117713
0.00522134
0.0673252
0.0369457
0.0563311
0.113188
0.00786909
0.0006787
0.139215
0.0310372
0.0108824
0.15267
0.0801052
0.09398
0.0153971
0.0115582
0.0112455
0.0460847
0.00277704
0.0332065
0.0118718
0.0423844
0.015599
0.111364
0.00136629
0.0015045
0.0262279
0.114482
0.00910059
0.00249214
0.0662228
0.0260319
0.127634
0.0350385
0.00114932
0.0377863
0.00212658
0.0683328
0.0112046
0.0696061
0.0012686
0.140958
0.142348
0.105899
0.0241699
0.00333061
0.00362818
0.00868728
0.0304495
0.143745
0.0401991
0.0668324
0.126253
0.00517738
0.135177
0.0150269
0.0924514
0.0437245
0.144592
0.150825
0.139782
0.0668704
0.0512332
0.0254725
0.00150902
0.0989107
0.0426354
0.0243245
0.143417
0.0926193
0.0550153
0.0558018
0.020693
0.132205
0.113492
0.00669701
0.162567
0.0608507
0.0925041
0.0586839
0.141388
0.00269213
0.0704385
0.116455
0.00505296
0.0312307
0.0377099
0.00238275
0.00739529
0.0794737
0.0289569
0.0529918
0.0517276
0.0761638
0.148271
0.031317
0.00138733
0.00176116
0.00301798
0.0532698
0.00189031
0.0699082
0.0523226
0.156892
0.00286491
0.112736
0.0351323
0.122771
0.0026629
0.00283618
0.107406
0.162557
0.038576
0.113345
0.0926084
0.0068504
0.08924
0.11396
0.00139621
0.002322
0.140636
0.0327495
0.0414119
0.00359918
0.150726
0.00256562
0.00171315
0.109451
0.0555034
0.00393536
0.0148363
0.0974098
0.104102
0.113458
0.0419303
0.145294
0.121742
0.00241845
0.00152825
0.00210411
0.137368
0.00268418
0.0761472
0.006906
0.145598
0.0532416
0.0412097
0.139871
0.00329921
0.0438113
0.0112641
0.00565623
0.00246452
0.0220161
0.0110567
0.00267229
0.00247305
0.12265
0.000965867
0.137833
0.119432
0.106384
0.114829
0.138808
0.0019267
0.0675526
0.13994
0.0444941
0.00163319
0.00217778
0.0329133
0.147584
0.0286973
0.0218258
0.00305808
0.115459
0.12586
0.160782
0.0138727
0.0982216
0.140046
0.00158222
0.0158312
0.0175275
0.109833
0.128029
0.062921
0.00200158
0.131579
0.00157774
0.0170247
0.0797319
0.00188199
0.00246849
0.151013
0.00869634
0.0411265
0.00198729
0.133439
0.0433701
0.139381
0.0625094
0.0293121
0.00393964
0.150298
0.114068
0.111685
0.00721942
0.0202069
0.00182736
0.00176284
0.0735599
0.00141046
0.048372
0.0170438
0.00402365
0.00134485
0.0444065
0.00161093
0.0145987
0.0727984
0.141419
0.00415363
0.0207548
0.0420289
0.00603814
0.146502
0.00228416
0.137245
0.0146077
0.137427
0.0605881
0.00145708
0.0170649
0.00694764
0.0451981
0.03931
0.0456844
0.00512759
0.0199847
0.00214451
0.0770011
0.00203686
0.0819828
0.00563777
0.00934706
0.00365398
0.110125
0.12607
0.0974598
0.00228726
0.112405
0.131346
0.137176
0.0603341
0.146937
0.11322
0.00348989
0.00317526
0.00231868
0.00233946
0.123528
0.00405884
0.00250128
0.00567766
0.00164499
0.00157343
0.0459402
0.00218946
0.036328
0.0218092
0.00262775
0.00599135
0.159989
0.00268008
0.0867652
0.0855623
0.0129691
0.00169893
0.00237773
0.000958762
0.0393843
0.0609409
0.141996
0.00266764
0.00246976
0.115583
0.0117235
0.114748
0.0896857
0.0775976
0.00348529
0.0035325
0.0541499
0.106743
0.0446535
0.0668575
0.098045
0.0566132
0.123313
0.0441419
0.0264172
0.00555767
0.0894049
0.0061526
0.0744161
0.0501817
0.00169347
0.00253133
0.0501192
0.0414574
0.125357
0.0194926
0.0665444
0.149147
0.0208705
0.122013
0.0798275
0.0416393
0.114766
0.0509297
0.00868877
0.0215184
0.00152728
0.0887952
0.178023
0.00253014
0.106585
0.0330187
0.114778
0.101627
0.151768
0.0766299
0.134181
0.0316734
0.0982952
0.00168395
0.0820565
0.0610259
0.0390518
0.148076
0.0863323
0.0299268
0.105283
0.0101665
0.00175718
0.0627553
0.0536008
0.124539
0.080985
0.109377
0.0632245
0.122472
0.0339338
0.0040311
0.106152
0.00877278
0.00143489
0.136449
0.106468
0.136965
0.0338521
0.0102695
0.102752
0.01459
0.00363162
0.0613379
0.132775
0.00123048
0.159354
0.113285
0.146469
0.175904
0.095873
0.134708
0.0780211
0.0041839
0.0522029
0.0226595
0.019164
0.067189
0.0665811
0.0205739
0.00156528
0.00177439
0.00852798
0.00980247
0.00333644
0.00636733
0.134653
0.0555516
0.142043
0.0201736
0.113908
0.0392194
0.0106709
0.132229
0.0195345
0.0217517
0.129889
0.118434
0.0808894
0.114976
0.14431
0.13948
0.00458193
0.0041312
0.0603308
0.0816775
0.146541
0.011236
0.00560028
0.00162958
0.0140566
0.00336493
0.119589
0.00242647
0.00132171
0.0760375
0.0694488
0.0810205
0.136847
0.0656426
0.0941102
0.10056
0.041394
0.00165803
0.00925357
0.00150792
0.116505
0.0107421
0.00416482
0.11518
0.125902
0.122333
0.148181
0.057685
0.104868
0.0103988
0.0833653
0.00252483
0.0332987
0.00243424
0.00837721
0.00221957
0.00109076
0.0865727
0.131583
0.128242
0.0789065
0.149064
0.114102
0.00166003
0.00317204
0.0869681
0.0731927
0.0872318
0.0218802
0.0106427
0.137172
0.0693396
0.00428496
0.126605
0.0973152
0.024013
0.0122332
0.0608904
0.00379089
0.00559686
0.0377951
0.00272959
0.0071082
0.00130121
0.14962
0.0448631
0.128922
0.0334449
0.0035263
0.132481
0.00142917
0.126715
0.171691
0.108968
0.00192913
0.014466
0.00810188
0.105607
0.14791
0.0309288
0.00193015
0.0264614
0.120506
0.0964258
0.0841425
0.04744
0.119473
0.124812
0.00195726
0.00238571
0.00199094
0.0223227
0.00610423
0.00223557
0.00833862
0.0021669
0.0117266
0.15466
0.134381
0.16461
0.068834
0.00261416
0.00268088
0.143158
0.00150358
0.00177893
0.021496
0.106505
0.131367
0.00662241
0.00385865
0.00163083
0.0249294
0.00162288
0.159216
0.0060388
0.00988218
0.139673
0.00246794
0.115687
0.00634524
0.00197763
0.0380812
0.00554804
0.0748635
0.137607
0.00209446
0.00160863
0.00773561
0.027674
0.00126175
0.00522678
0.00169167
0.00186334
0.00170446
0.00656543
0.00660802
0.0740645
0.0941226
0.0145269
0.00143361
0.138771
0.00133448
0.160142
0.0131481
0.0308026
0.130988
0.00302458
0.110976
0.00574338
0.00152298
0.114314
0.01208
0.00973996
0.00174697
0.0065972
0.0104875
0.111728
0.0770854
0.00260017
0.127808
0.136685
0.0167642
0.0384968
0.00149626
0.0340633
0.134172
0.0389668
0.136904
0.0105944
0.0533807
0.00641449
0.142108
0.1464
0.00150496
0.00941928
0.110164
0.00189485
0.00435888
0.137706
0.0462882
0.053549
0.00185483
0.116065
0.143548
0.00565317
0.0529445
0.00240838
0.00169625
0.0109244
0.0452388
0.0701922
0.0967596
0.0146386
0.0304454
0.0937255
0.00339146
0.0134577
0.126584
0.0872746
0.0110992
0.0552641
0.00139683
0.00501579
0.132509
0.00226951
0.008921
0.0184595
0.116544
0.0023834
0.00110557
0.00382688
0.107348
0.150525
0.0119761
0.0354207
0.130418
0.0905546
0.115307
0.1207
0.0283699
0.125661
0.131335
0.0151212
0.0062519
0.00125203
0.0409774
0.00380131
0.00158272
0.105983
0.00355187
0.00347132
0.00136509
0.156778
0.0112348
0.00116847
0.00232772
0.006334
0.00699266
0.0809184
0.00233187
0.011483
0.00455547
0.14362
0.0161837
0.0127264
0.113574
0.00994894
0.00336755
0.113874
0.00240439
0.00328516
0.114994
0.129933
0.0807649
0.112698
0.0580067
0.145482
0.129214
0.00277281
0.0038926
0.0510949
0.00834253
0.198805
0.0204335
0.00138396
0.00151742
0.00146378
0.0269209
0.00165029
0.0774259
0.136702
0.0334458
0.00155072
0.00356299
0.00656858
0.00388746
0.0459762
0.126251
0.114037
0.0542514
0.0346103
0.00266246
0.00317026
0.0305625
0.00271645
0.00136275
0.114591
0.00352036
0.0863262
0.0225299
0.0639165
0.0965187
0.150665
0.0287525
0.0327564
0.00388201
0.00152882
0.140297
0.0138495
0.0267755
0.0193904
0.00382532
0.0143295
0.00245691
0.100879
0.00761619
0.00208096
0.00688556
0.00576888
0.116649
0.00648428
0.00232945
0.00203573
0.146794
0.00650646
0.147015
0.0683589
0.0957239
0.0165102
0.00242873
0.00118548
0.115818
0.00237235
0.0168168
0.151459
0.144172
0.0745937
0.157366
0.0188043
0.00225116
0.00183797
0.00743411
0.0983323
0.0801706
0.0181642
0.143394
0.00168376
0.0389537
0.100523
0.0144212
0.0076964
0.0206954
0.00129543
0.0101093
0.00129288
0.0411496
0.00397956
0.00425621
0.00275162
0.141644
0.0793354
0.0192284
0.0783203
0.00396483
0.00120743
0.0176055
0.00768384
0.00488313
0.00651939
0.0183125
0.021851
0.0482864
0.134613
0.00566214
0.0265206
0.0333903
0.0198361
0.0220152
0.0292302
0.00196468
0.00482331
0.0601279
0.0409247
0.018906
0.0394472
0.108523
0.0140352
0.0113924
0.1351
0.00191871
0.0870163
0.00144743
0.105039
0.0677363
0.0521472
0.00147013
0.0347705
0.00151466
0.00337359
0.0187301
0.0628543
0.00607214
0.0152771
0.00572808
0.0478755
0.17624
0.0120983
0.137243
0.00143892
0.140091
0.140741
0.124303
0.0360535
0.0311109
0.0426381
0.011871
0.0135664
0.0651786
0.0413415
0.00385383
0.00282056
0.0298029
0.0163136
0.137481
0.0110077
0.0201414
0.00902015
0.0731778
0.0120675
0.0217183
0.148032
0.146607
0.0738623
0.0425453
0.102678
0.00141391
0.14211
0.00804702
0.0409995
0.00268388
0.00385947
0.0285155
0.0136195
0.0100024
0.00397604
0.00217355
0.0475037
0.0379646
0.0131483
0.0183646
0.0890326
0.00430838
0.00122802
0.140376
0.1336
0.00380542
0.0163872
0.0205628
0.106825
0.0184877
0.115839
0.0363767
0.01059
0.0324072
0.0290868
0.126958
0.143279
0.0200793
0.0015228
0.091491
0.0203958
0.00443285
0.151087
0.130471
0.00144766
0.0106927
0.00769802
0.110039
0.0353576
0.0219487
0.167708
0.113745
0.00826242
0.0218796
0.00143026
0.00632749
0.0261318
0.00239406
0.0144386
0.00778704
0.126937
0.126109
0.018962
0.0286978
0.0193815
0.0162501
0.0913054
0.0176846
0.0385668
0.093734
0.150377
0.0382915
0.0942439
0.0375982
0.00800827
0.0107293
0.134695
0.00773009
0.0205838
0.00374447
0.0154743
0.00134205
0.0131537
0.0015571
0.144426
0.00863723
0.026504
0.122072
0.130304
0.0162166
0.0253156
0.0714612
0.130949
0.00969267
0.00133023
0.0318634
0.115896
0.0661961
0.00462189
0.0150188
0.0253927
0.147023
0.129345
0.037624
0.0398017
0.0842682
0.0214691
0.00168128
0.0142493
0.0017453
0.144327
0.0378713
0.109108
0.0396374
0.0799943
0.121369
0.0143555
0.0374968
0.112899
0.00188324
0.0322441
0.00135668
0.128014
0.0268418
0.0209356
0.00863081
0.0222986
0.00769218
0.0279621
0.0115871
0.0207948
0.125313
0.00271506
0.00378526
0.0637356
0.137097
0.0253985
0.108503
0.110619
0.00891411
0.137965
0.00182306
0.00474167
0.00523772
0.0717861
0.13897
0.0373073
0.00944858
0.0159563
0.0376161
0.0374392
0.127737
0.0392047
0.103657
0.0647682
0.00141549
0.0628502
0.0797896
0.004061
0.0209933
0.0400207
0.0736752
0.0363131
0.138749
0.0400389
0.00179431
0.131777
0.0248104
0.00246289
0.00675853
0.0125421
0.0286126
0.0301697
0.00192065
0.00637696
0.0373352
0.0207317
0.0477091
0.0522321
0.0269422
0.0796221
0.122814
0.00197564
0.120845
0.0434733
0.132564
0.0682646
0.0237042
0.132719
0.141724
0.016538
0.103204
0.0510458
0.0186372
0.0263668
0.0141341
0.0319306
0.128918
0.0290604
0.0107201
0.0352308
0.0189326
0.0228705
0.0191808
0.0271832
0.0016971
0.106945
0.00395307
0.0109106
0.00435823
0.021859
0.0137935
0.00913576
0.0416657
0.0120291
0.0114275
0.0332598
0.0327876
0.109199
0.111043
0.15464
0.0435861
0.00137888
0.146374
0.00751366
0.0729574
0.0318913
0.0477408
0.00698038
0.0345195
0.0215683
0.074732
0.0467044
0.0429178
0.136034
0.0394123
0.0353204
0.139751
0.0411374
0.0482843
0.129017
0.0207596
0.0313297
0.00327161
0.0433182
0.00421359
0.0117065
0.0299932
0.105906
0.0175365
0.132299
0.0259323
0.0197697
0.00369372
0.0418041
0.0295188
0.0218162
0.138153
0.0159465
0.0406121
0.00279907
0.129113
0.0573726
0.00494484
0.0376295
0.0389153
0.149717
0.114635
0.146199
0.0202625
0.00343093
0.0331637
0.0570607
0.0429948
0.0192967
0.116357
0.0547029
0.0444304
0.0373396
0.0485524
0.163721
0.00517564
0.142065
0.00279212
0.159507
0.00324076
0.139346
0.142558
0.0070318
0.0549857
0.0395002
0.011275
0.0401188
0.0221394
0.127757
0.132565
0.0760369
0.0445439
0.00148814
0.116073
0.0366867
0.0521392
0.0497037
0.076139
0.0585387
0.00992395
0.0212821
0.0425334
0.0311285
0.0397117
0.153267
0.0621904
0.0144484
0.0812001
0.0638932
0.00747631
0.128574
0.0342012
0.0138938
0.0388839
0.00257373
0.149866
0.0401761
0.169085
0.0208112
0.0230452
0.0683681
0.00276747
0.144777
0.0686892
0.0392231
0.143483
0.0032233
0.151883
0.0814556
0.0169496
0.0155418
0.0377756
0.147879
0.0285884
0.0214941
0.00162415
0.0729043
0.0295834
0.145293
0.139158
0.0396189
0.00780778
0.00247512
0.0755231
0.123794
0.132352
0.0824148
0.03647
0.00365093
0.00267749
0.0816304
0.138968
0.121409
0.0378198
0.0047065
0.00272036
0.0569126
0.0065531
0.153177
0.0962028
0.016022
0.108293
0.0816867
0.0209415
0.00620933
0.00560717
0.0371913
0.0456233
0.00516319
0.0166663
0.0462077
0.0296649
0.00581185
0.0798713
0.0657943
0.0347087
0.118051
0.0815205
0.132996
0.150555
0.0226991
0.0341508
0.0481404
0.0129646
0.0128831
0.0824781
0.0369569
0.150055
0.0960487
0.0451148
0.0363302
0.0161755
0.0333426
0.00330432
0.0509775
0.0470481
0.0534865
0.00447228
0.00192391
0.0272006
0.150592
0.0104274
0.0405224
0.0974491
0.105333
0.041839
0.130183
0.129769
0.0563995
0.0529577
0.00654745
0.0527875
0.0943217
0.045087
0.00264152
0.00143752
0.119678
0.0608905
0.0384521
0.037208
0.00335392
0.0547867
0.00425482
0.0113567
0.100625
0.053023
0.00132185
0.0760619
0.0629914
0.0340513
0.0433324
0.0801721
0.0624274
0.078694
0.00988762
0.120941
0.0205502
0.0474162
0.0391152
0.0783967
0.106041
0.0969861
0.0585572
0.063381
0.118853
0.149923
0.079517
0.0637787
0.0648916
0.0326477
0.0909331
0.0957272
0.0816019
0.0640068
0.0295039
0.114862
0.13782
0.00167796
0.0450213
0.00258287
0.0140779
0.132612
0.0565224
0.0159384
0.149761
0.0963587
0.154026
0.0492666
0.0599673
0.0124417
0.0586601
0.109896
0.0064419
0.00364466
0.0175174
0.146891
0.00248622
0.0599017
0.131518
0.0153131
0.150769
0.0802612
0.00284669
0.129114
0.0109371
0.0872895
0.00681144
0.00647739
0.036272
0.100749
0.129721
0.00867411
0.0514635
0.0500896
0.0436731
0.00418522
0.120334
0.00755198
0.0621648
0.00125464
0.0822301
0.107348
0.113475
0.0601438
0.0524025
0.0505133
0.0041229