/*--------------------------------*- C++ -*----------------------------------*\
| =========                 |                                                 |
| \\      /  F ield         | OpenFOAM: The Open Source CFD Toolbox           |
|  \\    /   O peration     | Version:  v2012                                 |
|   \\  /    A nd           | Website:  www.openfoam.com                      |
|    \\/     M anipulation  |                                                 |
\*---------------------------------------------------------------------------*/
FoamFile
{
    version     2.0;
    format      ascii;
    class       pointVectorField;
    location    "550";
    object      pointDisplacement;
}
// * * * * * * * * * * * * * * * * * * * * * * * * * * * * * * * * * * * * * //

dimensions      [0 1 0 0 0 0 0];


internalField   nonuniform List<vector> 
14386
(
(0 0 0)
(-0.0313606 -0.207037 0)
(0 0 0)
(-0.0313606 -0.207037 0)
(0 0 0)
(0 0 0)
(0 0 0)
(0 0 0)
(0 0 0)
(0 0 0)
(0 0 0)
(0 0 0)
(0 0 0)
(0 0 0)
(0 0 0)
(0 0 0)
(0 0 0)
(0 0 0)
(0 0 0)
(0 0 0)
(0 0 0)
(0 0 0)
(0 0 0)
(0 0 0)
(0 0 0)
(0 0 0)
(0 0 0)
(0 0 0)
(0 0 0)
(0 0 0)
(0 0 0)
(0 0 0)
(0 0 0)
(0 0 0)
(0 0 0)
(0 0 0)
(0 0 0)
(0 0 0)
(0 0 0)
(0 0 0)
(0 0 0)
(0 0 0)
(0 0 0)
(0 0 0)
(0 0 0)
(0 0 0)
(0 0 0)
(0 0 0)
(0 0 0)
(0 0 0)
(0 0 0)
(0 0 0)
(0 0 0)
(0 0 0)
(0 0 0)
(0 0 0)
(0 0 0)
(0 0 0)
(0 0 0)
(0 0 0)
(0 0 0)
(0 0 0)
(0 0 0)
(0 0 0)
(0 0 0)
(0 0 0)
(0 0 0)
(0 0 0)
(0 0 0)
(0 0 0)
(0 0 0)
(0 0 0)
(0 0 0)
(0 0 0)
(0 0 0)
(0 0 0)
(0 0 0)
(0 0 0)
(0 0 0)
(0 0 0)
(0 0 0)
(0 0 0)
(0 0 0)
(0 0 0)
(0 0 0)
(0 0 0)
(0 0 0)
(0 0 0)
(0 0 0)
(0 0 0)
(0 0 0)
(0 0 0)
(0 0 0)
(0 0 0)
(0 0 0)
(0 0 0)
(0 0 0)
(0 0 0)
(0 0 0)
(0 0 0)
(0 0 0)
(0 0 0)
(0 0 0)
(0 0 0)
(0 0 0)
(0 0 0)
(0 0 0)
(0 0 0)
(0 0 0)
(0 0 0)
(0 0 0)
(0 0 0)
(0 0 0)
(0 0 0)
(0 0 0)
(0 0 0)
(0 0 0)
(0 0 0)
(0 0 0)
(0 0 0)
(0 0 0)
(0 0 0)
(0 0 0)
(0 0 0)
(0 0 0)
(0 0 0)
(0 0 0)
(0 0 0)
(0 0 0)
(0 0 0)
(0 0 0)
(0 0 0)
(0 0 0)
(-0.0295393 -0.136934 0)
(-0.0296067 -0.139531 0)
(-0.0296742 -0.142127 0)
(-0.0297416 -0.144724 0)
(-0.0298091 -0.14732 0)
(-0.0298765 -0.149916 0)
(-0.029944 -0.152513 0)
(-0.0300115 -0.155109 0)
(-0.0300789 -0.157706 0)
(-0.0301464 -0.160302 0)
(-0.0302138 -0.162898 0)
(-0.0302813 -0.165495 0)
(-0.0303488 -0.168091 0)
(-0.0304162 -0.170688 0)
(-0.0304837 -0.173284 0)
(-0.0305511 -0.17588 0)
(-0.0306186 -0.178477 0)
(-0.030686 -0.181073 0)
(-0.0307535 -0.18367 0)
(-0.030821 -0.186266 0)
(-0.0308884 -0.188862 0)
(-0.0309559 -0.191459 0)
(-0.0310233 -0.194055 0)
(-0.0310908 -0.196652 0)
(-0.0311582 -0.199248 0)
(-0.0312257 -0.201844 0)
(-0.0312932 -0.204441 0)
(-0.0287642 -0.207105 0)
(-0.0261678 -0.207172 0)
(0 0 0)
(0 0 0)
(0 0 0)
(0 0 0)
(0 0 0)
(0 0 0)
(0 0 0)
(0 0 0)
(0 0 0)
(0 0 0)
(0 0 0)
(0 0 0)
(0 0 0)
(0 0 0)
(0 0 0)
(0 0 0)
(0 0 0)
(0 0 0)
(0 0 0)
(0 0 0)
(0 0 0)
(0 0 0)
(0 0 0)
(0 0 0)
(0 0 0)
(0 0 0)
(0 0 0)
(0 0 0)
(0 0 0)
(0 0 0)
(0 0 0)
(0 0 0)
(0 0 0)
(0 0 0)
(0 0 0)
(0 0 0)
(0 0 0)
(0 0 0)
(0 0 0)
(0 0 0)
(0 0 0)
(0 0 0)
(0 0 0)
(0 0 0)
(0 0 0)
(0 0 0)
(0 0 0)
(0 0 0)
(0 0 0)
(0 0 0)
(0 0 0)
(0 0 0)
(0 0 0)
(0 0 0)
(0 0 0)
(0 0 0)
(0 0 0)
(0 0 0)
(0 0 0)
(0 0 0)
(0 0 0)
(0 0 0)
(0 0 0)
(0 0 0)
(0 0 0)
(0 0 0)
(0 0 0)
(0 0 0)
(0 0 0)
(0 0 0)
(0 0 0)
(0 0 0)
(0 0 0)
(0 0 0)
(0 0 0)
(0 0 0)
(0 0 0)
(0 0 0)
(0 0 0)
(0 0 0)
(0 0 0)
(0 0 0)
(0 0 0)
(0 0 0)
(0 0 0)
(0 0 0)
(0 0 0)
(0 0 0)
(0 0 0)
(0 0 0)
(0 0 0)
(0 0 0)
(0 0 0)
(0 0 0)
(0 0 0)
(0 0 0)
(0 0 0)
(0 0 0)
(0 0 0)
(0 0 0)
(0 0 0)
(0 0 0)
(0 0 0)
(0 0 0)
(0 0 0)
(0 0 0)
(0 0 0)
(0 0 0)
(0 0 0)
(0 0 0)
(0 0 0)
(0 0 0)
(0 0 0)
(0 0 0)
(0 0 0)
(0 0 0)
(0 0 0)
(0 0 0)
(0 0 0)
(0 0 0)
(0 0 0)
(0 0 0)
(0 0 0)
(0 0 0)
(0 0 0)
(0 0 0)
(0 0 0)
(0 0 0)
(0 0 0)
(-0.0295393 -0.136934 0)
(-0.0296067 -0.139531 0)
(-0.0296742 -0.142127 0)
(-0.0297416 -0.144724 0)
(-0.0298091 -0.14732 0)
(-0.0298765 -0.149916 0)
(-0.029944 -0.152513 0)
(-0.0300115 -0.155109 0)
(-0.0300789 -0.157706 0)
(-0.0301464 -0.160302 0)
(-0.0302138 -0.162898 0)
(-0.0302813 -0.165495 0)
(-0.0303488 -0.168091 0)
(-0.0304162 -0.170688 0)
(-0.0304837 -0.173284 0)
(-0.0305511 -0.17588 0)
(-0.0306186 -0.178477 0)
(-0.030686 -0.181073 0)
(-0.0307535 -0.18367 0)
(-0.030821 -0.186266 0)
(-0.0308884 -0.188862 0)
(-0.0309559 -0.191459 0)
(-0.0310233 -0.194055 0)
(-0.0310908 -0.196652 0)
(-0.0311582 -0.199248 0)
(-0.0312257 -0.201844 0)
(-0.0312932 -0.204441 0)
(-0.0287642 -0.207105 0)
(-0.0261678 -0.207172 0)
(-0.000328438 -0.00532456 0)
(-0.0307974 -0.185382 0)
(-0.0295765 -0.138369 0)
(-0.0301727 -0.16132 0)
(-0.000496179 -0.00644667 0)
(-0.000121042 -0.0030538 0)
(-7.57474e-05 -0.00222697 0)
(-0.000188827 -0.00393582 0)
(-0.000765227 -0.00782333 0)
(-4.82546e-05 -0.00158702 0)
(-0.000961289 -0.00770805 0)
(-2.39847e-05 -0.001108 0)
(-0.00115068 -0.00690671 0)
(-0.00137392 -0.00538519 0)
(-3.04086e-05 -0.00108437 0)
(-0.0311727 -0.200233 0)
(-2.21644e-05 -0.000965771 0)
(-2.25588e-05 -0.000849155 0)
(-1.95258e-05 -0.000818367 0)
(-1.6397e-05 -0.000635629 0)
(-1.40167e-05 -0.000571357 0)
(-0.000262756 -0.00478221 0)
(-0.000169947 -0.00391705 0)
(-9.52514e-05 -0.00260902 0)
(-0.0305145 -0.174482 0)
(-0.0299123 -0.151292 0)
(-9.40393e-06 -0.000370231 0)
(-9.03397e-06 -0.000362466 0)
(-0.000971205 -0.00880047 0)
(-0.00129625 -0.00642848 0)
(-0.00106675 -0.00745369 0)
(-0.00066705 -0.00752666 0)
(-0.000383937 -0.00550927 0)
(-4.26953e-05 -0.00147682 0)
(-6.08549e-05 -0.00188734 0)
(-2.37654e-05 -0.0010637 0)
(-2.18178e-05 -0.00104035 0)
(-2.72804e-05 -0.00100324 0)
(-0.0309892 -0.192836 0)
(-5.96254e-06 -0.000236404 0)
(-4.85473e-06 -0.000193476 0)
(-0.00129947 -0.00409112 0)
(-0.000559948 -0.00680779 0)
(-0.000373133 -0.00568901 0)
(-0.000293758 -0.0050493 0)
(-0.000269036 -0.00517969 0)
(-0.000166779 -0.00365718 0)
(-0.000127098 -0.00306703 0)
(-0.000109317 -0.0028769 0)
(-8.80425e-05 -0.00250213 0)
(-1.21086e-05 -0.000473577 0)
(-2.41975e-05 -0.00103677 0)
(-5.48642e-05 -0.00175295 0)
(-2.46362e-05 -0.00120239 0)
(-1.19812e-05 -0.000483828 0)
(-1.40415e-05 -0.000577789 0)
(-1.99842e-05 -0.000762073 0)
(-4.44156e-05 -0.00150005 0)
(-1.98985e-06 -7.90598e-05 0)
(-0.0217717 -0.0735884 0)
(-0.0214501 -0.0726213 0)
(-0.0215976 -0.078118 0)
(-0.0212754 -0.0769588 0)
(-0.0214082 -0.0823171 0)
(-0.0217273 -0.0836204 0)
(-0.0215206 -0.0876339 0)
(-0.0212046 -0.0861816 0)
(-0.0213029 -0.0912876 0)
(-0.0216135 -0.0928658 0)
(-0.0213814 -0.0962985 0)
(-0.0210722 -0.0946334 0)
(-0.0211358 -0.0994654 0)
(-0.0208289 -0.0977128 0)
(-0.0208792 -0.102367 0)
(-0.0211783 -0.104121 0)
(-0.020913 -0.106889 0)
(-0.0206142 -0.104993 0)
(-0.0206352 -0.109381 0)
(-0.0209593 -0.111676 0)
(-0.0206307 -0.113684 0)
(-0.0203461 -0.111553 0)
(-0.0203303 -0.115623 0)
(-0.0205994 -0.117762 0)
(-0.0202938 -0.119531 0)
(-0.0205529 -0.121674 0)
(-0.0202357 -0.123293 0)
(-0.0199829 -0.121124 0)
(-0.0199163 -0.124719 0)
(-0.0201561 -0.126916 0)
(-0.0198267 -0.128184 0)
(-0.0200547 -0.130416 0)
(-0.0197129 -0.131519 0)
(-0.0199305 -0.133773 0)
(-0.0195768 -0.134726 0)
(-0.0193664 -0.132444 0)
(-0.0192194 -0.135531 0)
(-0.0194185 -0.137836 0)
(-0.0190522 -0.138502 0)
(-0.0192375 -0.140847 0)
(-0.0188628 -0.141342 0)
(-0.0190366 -0.14376 0)
(-0.0186477 -0.144057 0)
(-0.0188008 -0.146446 0)
(-0.0184058 -0.146636 0)
(-0.0185314 -0.148911 0)
(-0.0181504 -0.149046 0)
(-0.0182409 -0.151251 0)
(-0.0178665 -0.151232 0)
(-0.0179305 -0.153467 0)
(-0.0175431 -0.153262 0)
(-0.0175934 -0.155577 0)
(-0.0171936 -0.155239 0)
(-0.0172265 -0.157519 0)
(-0.0168198 -0.157097 0)
(-0.0168334 -0.159305 0)
(-0.0164219 -0.158794 0)
(-0.0164121 -0.160956 0)
(-0.0159957 -0.160349 0)
(-0.0159549 -0.162507 0)
(-0.0155389 -0.161766 0)
(-0.0154634 -0.163912 0)
(-0.0150535 -0.163014 0)
(-0.0149446 -0.165154 0)
(-0.0145352 -0.164132 0)
(-0.014399 -0.166259 0)
(-0.0139867 -0.165154 0)
(-0.0138288 -0.167218 0)
(-0.0134289 -0.166064 0)
(-0.0132387 -0.168051 0)
(-0.0128695 -0.166836 0)
(-0.0126332 -0.16876 0)
(-0.0122898 -0.167444 0)
(-0.0120052 -0.169267 0)
(-0.0116898 -0.167888 0)
(-0.0113627 -0.169598 0)
(-0.0110832 -0.168193 0)
(-0.0107198 -0.169841 0)
(-0.0104709 -0.168372 0)
(-0.0100841 -0.169953 0)
(-0.00985686 -0.168416 0)
(-0.00944911 -0.169927 0)
(-0.00924312 -0.168364 0)
(-0.008807 -0.169798 0)
(-0.00863563 -0.168201 0)
(-0.00816986 -0.169512 0)
(-0.00803679 -0.167919 0)
(-0.00755196 -0.169084 0)
(-0.00745601 -0.167483 0)
(-0.00694904 -0.168571 0)
(-0.00688538 -0.166932 0)
(-0.00635801 -0.167954 0)
(-0.00632468 -0.166308 0)
(-0.0057926 -0.167216 0)
(-0.00579158 -0.165562 0)
(-0.00629369 -0.164645 0)
(-0.0057798 -0.163901 0)
(-0.0102011 -0.166743 0)
(-0.0141281 -0.162957 0)
(-0.0175293 -0.150834 0)
(-0.0190138 -0.133239 0)
(-0.00627234 -0.16296 0)
(-0.00575667 -0.162218 0)
(-0.00526694 -0.166369 0)
(-0.00623546 -0.161252 0)
(-0.00572727 -0.160508 0)
(-0.0061743 -0.15952 0)
(-0.00569187 -0.15877 0)
(-0.00611696 -0.15775 0)
(-0.00565267 -0.157001 0)
(-0.00606219 -0.155949 0)
(-0.00561092 -0.155197 0)
(-0.00600239 -0.154122 0)
(-0.00556637 -0.153361 0)
(-0.0051674 -0.154366 0)
(-0.00514199 -0.152511 0)
(-0.00473658 -0.153432 0)
(-0.00473033 -0.151568 0)
(-0.00511321 -0.150645 0)
(-0.00471839 -0.149692 0)
(-0.00432469 -0.152389 0)
(-0.00508078 -0.148762 0)
(-0.00469985 -0.147793 0)
(-0.00504496 -0.146847 0)
(-0.00467377 -0.145866 0)
(-0.0050112 -0.144885 0)
(-0.00464446 -0.143909 0)
(-0.00496526 -0.142872 0)
(-0.00460913 -0.141926 0)
(-0.00490865 -0.140847 0)
(-0.00456522 -0.139913 0)
(-0.00485333 -0.138806 0)
(-0.00452037 -0.137875 0)
(-0.00423211 -0.138897 0)
(-0.00419864 -0.13686 0)
(-0.00390347 -0.137826 0)
(-0.00388646 -0.135754 0)
(-0.00358704 -0.136624 0)
(-0.0035832 -0.134567 0)
(-0.00387096 -0.133712 0)
(-0.00357031 -0.132522 0)
(-0.0038485 -0.131626 0)
(-0.00355658 -0.130438 0)
(-0.00328558 -0.135333 0)
(-0.00382307 -0.129508 0)
(-0.00354068 -0.128332 0)
(-0.00378856 -0.127366 0)
(-0.0035157 -0.126211 0)
(-0.00374503 -0.125208 0)
(-0.00348519 -0.124065 0)
(-0.00369863 -0.123035 0)
(-0.00345087 -0.121902 0)
(-0.00323696 -0.122849 0)
(-0.00321364 -0.12069 0)
(-0.00300092 -0.121551 0)
(-0.00298826 -0.119408 0)
(-0.0031876 -0.118522 0)
(-0.0029751 -0.117253 0)
(-0.0031541 -0.116325 0)
(-0.00291996 -0.114967 0)
(-0.00311708 -0.114124 0)
(-0.00291549 -0.112852 0)
(-0.00275947 -0.117975 0)
(-0.00308194 -0.11195 0)
(-0.00288461 -0.110735 0)
(-0.00304112 -0.109746 0)
(-0.00284981 -0.108546 0)
(-0.00299684 -0.107524 0)
(-0.00281161 -0.10634 0)
(-0.00522768 -0.168008 0)
(-0.00294794 -0.105289 0)
(-0.00277049 -0.104125 0)
(-0.0026335 -0.105091 0)
(-0.00259966 -0.102893 0)
(-0.00245978 -0.103766 0)
(-0.00243151 -0.101594 0)
(-0.00256345 -0.100701 0)
(-0.00240221 -0.0994456 0)
(-0.00252484 -0.0985146 0)
(-0.00236951 -0.0973032 0)
(-0.0022684 -0.100262 0)
(-0.00248426 -0.0963262 0)
(-0.00233719 -0.0951295 0)
(-0.00244153 -0.0941277 0)
(-0.0023021 -0.0929342 0)
(-0.00239602 -0.0919326 0)
(-0.00226294 -0.0907573 0)
(-0.00234885 -0.0897446 0)
(-0.00222106 -0.0885957 0)
(-0.00229965 -0.0875652 0)
(-0.00217754 -0.0864495 0)
(-0.00209831 -0.0873907 0)
(-0.00206054 -0.0852732 0)
(-0.00198095 -0.0861269 0)
(-0.00194835 -0.0840393 0)
(-0.00202154 -0.083174 0)
(-0.00191398 -0.0819662 0)
(-0.00184079 -0.0827549 0)
(-0.00181106 -0.0807116 0)
(-0.00187811 -0.0799079 0)
(-0.00177951 -0.0786862 0)
(-0.00184074 -0.0778648 0)
(-0.00174633 -0.0766754 0)
(-0.00180194 -0.0758369 0)
(-0.00171185 -0.0746808 0)
(-0.00165594 -0.07544 0)
(-0.00162543 -0.0734786 0)
(-0.0016762 -0.0727055 0)
(-0.00159366 -0.071536 0)
(-0.00163969 -0.0707509 0)
(-0.00156079 -0.0696129 0)
(-0.00160229 -0.0688155 0)
(-0.00152686 -0.0677103 0)
(-0.00148493 -0.068432 0)
(-0.00145436 -0.0665623 0)
(-0.00149208 -0.0658281 0)
(-0.00142284 -0.064713 0)
(-0.00145667 -0.0639676 0)
(-0.00139048 -0.0628845 0)
(-0.00142071 -0.0621286 0)
(-0.00135747 -0.0610778 0)
(-0.00132666 -0.061762 0)
(-0.00129646 -0.0599868 0)
(-0.00132393 -0.0592932 0)
(-0.00126561 -0.0582343 0)
(-0.00128995 -0.0575312 0)
(-0.0012342 -0.0565045 0)
(-0.00125555 -0.0557924 0)
(-0.00120233 -0.0547961 0)
(-0.00118046 -0.0554422 0)
(-0.00115084 -0.0537606 0)
(-0.00117017 -0.05311 0)
(-0.0011209 -0.0521038 0)
(-0.00113772 -0.051445 0)
(-0.00109062 -0.0504712 0)
(-0.00471158 -0.167059 0)
(-0.00463597 -0.168666 0)
(-0.00412168 -0.167637 0)
(-0.00401316 -0.169225 0)
(-0.00110509 -0.0498047 0)
(-0.00106042 -0.0488676 0)
(-0.00104495 -0.0494649 0)
(-0.00101726 -0.0478982 0)
(-0.00103117 -0.0472968 0)
(-0.00100039 -0.0484068 0)
(-0.00097533 -0.0468814 0)
(-0.000957587 -0.047279 0)
(-0.000934141 -0.0458218 0)
(-0.0189041 -0.148946 0)
(-0.00519832 -0.139657 0)
(-0.00242634 -0.0886303 0)
(-0.0031334 -0.10639 0)
(-0.0103223 -0.171391 0)
(-0.0172567 -0.159746 0)
(-0.0136476 -0.169151 0)
(-0.00395826 -0.124097 0)
(-0.026802 -0.116867 0)
(-0.0269327 -0.121018 0)
(-0.0267349 -0.121426 0)
(-0.0268581 -0.125583 0)
(-0.0266474 -0.125819 0)
(-0.0267617 -0.129906 0)
(-0.0269746 -0.129751 0)
(-0.0268664 -0.13398 0)
(-0.0266455 -0.133994 0)
(-0.0267399 -0.13796 0)
(-0.0265088 -0.13784 0)
(-0.0265903 -0.141758 0)
(-0.0270686 -0.133929 0)
(-0.0263476 -0.141469 0)
(-0.026414 -0.145347 0)
(-0.0261597 -0.144869 0)
(-0.0262114 -0.148677 0)
(-0.025948 -0.148034 0)
(-0.0259863 -0.151699 0)
(-0.0262549 -0.152412 0)
(-0.0260156 -0.15527 0)
(-0.026289 -0.15603 0)
(-0.0260334 -0.158732 0)
(-0.0263106 -0.159554 0)
(-0.0260368 -0.162096 0)
(-0.0257527 -0.161186 0)
(-0.0257374 -0.164397 0)
(-0.0263219 -0.162974 0)
(-0.0254465 -0.163367 0)
(-0.0254071 -0.166473 0)
(-0.0259046 -0.144231 0)
(-0.0251155 -0.165276 0)
(-0.0250471 -0.168303 0)
(-0.0247595 -0.16696 0)
(-0.0246644 -0.169871 0)
(-0.0249503 -0.171285 0)
(-0.0245408 -0.17269 0)
(-0.024823 -0.174121 0)
(-0.0243864 -0.175356 0)
(-0.0246655 -0.176767 0)
(-0.0241997 -0.177829 0)
(-0.0244745 -0.179238 0)
(-0.0239799 -0.180131 0)
(-0.0242432 -0.181625 0)
(-0.0237163 -0.182303 0)
(-0.0239755 -0.18386 0)
(-0.0234147 -0.184344 0)
(-0.0236679 -0.185867 0)
(-0.0230722 -0.186184 0)
(-0.0232819 -0.187695 0)
(-0.022567 -0.187833 0)
(-0.0228243 -0.189357 0)
(-0.0221277 -0.189468 0)
(-0.0223134 -0.190888 0)
(-0.0215817 -0.190805 0)
(-0.021702 -0.192252 0)
(-0.0209433 -0.19204 0)
(-0.0209957 -0.193428 0)
(-0.0202002 -0.193126 0)
(-0.0202009 -0.194458 0)
(-0.019391 -0.19408 0)
(-0.0193116 -0.195342 0)
(-0.0185164 -0.194893 0)
(-0.0183238 -0.196082 0)
(-0.0175323 -0.195554 0)
(-0.0172323 -0.196684 0)
(-0.0164493 -0.196092 0)
(-0.0160297 -0.197164 0)
(-0.0152671 -0.196519 0)
(-0.0147171 -0.19753 0)
(-0.0139967 -0.196842 0)
(-0.0133265 -0.197768 0)
(-0.0126884 -0.19705 0)
(-0.0118854 -0.197882 0)
(-0.0113612 -0.197117 0)
(-0.0104071 -0.19788 0)
(-0.00999677 -0.197043 0)
(-0.00890139 -0.197764 0)
(-0.00859992 -0.196873 0)
(-0.00740011 -0.197553 0)
(-0.0214686 -0.189305 0)
(-0.0178356 -0.194309 0)
(-0.00723691 -0.196639 0)
(-0.0110878 -0.196334 0)
(-0.0234733 -0.180682 0)
(-0.0242501 -0.185436 0)
(-0.0243849 -0.168401 0)
(-0.00644958 -0.154791 0)
(-0.00936785 -0.198626 0)
(-0.0160261 -0.158246 0)
(-0.0225476 -0.192455 0)
(-0.0155184 -0.198196 0)
(-0.0244798 -0.165557 0)
(-0.0241004 -0.166993 0)
(-0.0242057 -0.164101 0)
(-0.0238156 -0.165629 0)
(-0.0239283 -0.162613 0)
(-0.023543 -0.16415 0)
(-0.0236576 -0.161125 0)
(-0.0232763 -0.162618 0)
(-0.0233985 -0.159608 0)
(-0.0230192 -0.161045 0)
(-0.0231545 -0.158054 0)
(-0.0228699 -0.163949 0)
(-0.0226178 -0.162326 0)
(-0.0224429 -0.165148 0)
(-0.0221984 -0.16347 0)
(-0.021997 -0.166173 0)
(-0.0217668 -0.164425 0)
(-0.0215376 -0.166999 0)
(-0.0032699 -0.137332 0)
(-0.00297557 -0.135988 0)
(-0.0213214 -0.16522 0)
(-0.0210677 -0.167667 0)
(-0.0215489 -0.162629 0)
(-0.0201365 -0.195752 0)
(-0.0158996 -0.164658 0)
(-0.0202777 -0.132663 0)
(-0.00830197 -0.171307 0)
(-0.00842927 -0.166566 0)
(-0.00189594 -0.0769455 0)
(-0.00115131 -0.0507112 0)
(-0.000909626 -0.0443122 0)
(-0.00131092 -0.0567513 0)
(-0.00148606 -0.0631385 0)
(-0.00173815 -0.0814205 0)
(-0.00141234 -0.0672186 0)
(-0.00126537 -0.0606009 0)
(-0.00258494 -0.0952625 0)
(-0.00512615 -0.137593 0)
(-0.00547145 -0.138347 0)
(-0.00537922 -0.136251 0)
(-0.0057244 -0.136906 0)
(-0.00561483 -0.134785 0)
(-0.00595701 -0.135339 0)
(-0.00583161 -0.13317 0)
(-0.00616963 -0.133656 0)
(-0.00603394 -0.131501 0)
(-0.00635616 -0.131827 0)
(-0.00619133 -0.129662 0)
(-0.00651408 -0.129847 0)
(-0.0063243 -0.127592 0)
(-0.00666389 -0.127808 0)
(-0.00646711 -0.1255 0)
(-0.00685297 -0.12572 0)
(-0.0065793 -0.123261 0)
(-0.00690065 -0.123079 0)
(-0.00664916 -0.120879 0)
(-0.00694317 -0.120664 0)
(-0.00670313 -0.118426 0)
(-0.00698716 -0.118181 0)
(-0.00675131 -0.115901 0)
(-0.00723071 -0.120348 0)
(-0.00726388 -0.117786 0)
(-0.00752161 -0.119924 0)
(-0.00753683 -0.117238 0)
(-0.00781051 -0.119391 0)
(-0.00780436 -0.116599 0)
(-0.0080898 -0.118693 0)
(-0.00805915 -0.115783 0)
(-0.0083621 -0.117835 0)
(-0.0083095 -0.114809 0)
(-0.007982 -0.112453 0)
(-0.00862973 -0.116843 0)
(-0.008547 -0.113693 0)
(-0.00888496 -0.115649 0)
(-0.00876784 -0.112362 0)
(-0.00911828 -0.114267 0)
(-0.00898352 -0.110927 0)
(-0.00933817 -0.112774 0)
(-0.00918347 -0.10934 0)
(-0.00954588 -0.111134 0)
(-0.00936459 -0.107597 0)
(-0.00973782 -0.109345 0)
(-0.00899873 -0.105804 0)
(-0.00948334 -0.116105 0)
(-0.00952901 -0.105704 0)
(-0.00991066 -0.10738 0)
(-0.00967455 -0.103641 0)
(-0.0100628 -0.105248 0)
(-0.0102994 -0.108957 0)
(-0.0104565 -0.106747 0)
(-0.0106939 -0.110389 0)
(-0.0108551 -0.10812 0)
(-0.0105912 -0.104444 0)
(-0.010994 -0.105731 0)
(-0.0110921 -0.111703 0)
(-0.0107024 -0.102007 0)
(-0.0111083 -0.103191 0)
(-0.0107875 -0.0993973 0)
(-0.0111971 -0.100485 0)
(-0.0108468 -0.0966097 0)
(-0.0112599 -0.0976287 0)
(-0.0116125 -0.101454 0)
(-0.0116756 -0.0985205 0)
(-0.0120304 -0.102271 0)
(-0.0120911 -0.0992469 0)
(-0.011711 -0.0954696 0)
(-0.0121244 -0.0960796 0)
(-0.0124473 -0.102894 0)
(-0.0117183 -0.0922871 0)
(-0.012132 -0.0927609 0)
(-0.00838795 -0.120775 0)
(-0.00647193 -0.116102 0)
(-0.00651464 -0.113568 0)
(-0.00624873 -0.113799 0)
(-0.00627463 -0.111216 0)
(-0.0116915 -0.0889326 0)
(-0.0121088 -0.0892933 0)
(-0.00602835 -0.111472 0)
(-0.00604058 -0.108847 0)
(-0.00581132 -0.109099 0)
(-0.00581507 -0.10646 0)
(-0.00559788 -0.106712 0)
(-0.00559544 -0.104053 0)
(-0.00538984 -0.104306 0)
(-0.00538104 -0.101636 0)
(-0.00557399 -0.10127 0)
(-0.00535227 -0.0988443 0)
(-0.0055323 -0.0983609 0)
(-0.00530261 -0.0959238 0)
(-0.00546798 -0.0953168 0)
(-0.00523249 -0.0928691 0)
(-0.00507966 -0.0934896 0)
(-0.00500503 -0.0904133 0)
(-0.00486245 -0.0910411 0)
(-0.00478511 -0.0878962 0)
(-0.00465115 -0.0885814 0)
(-0.00457009 -0.0854064 0)
(-0.00444595 -0.0861329 0)
(-0.00436118 -0.0829714 0)
(-0.00424625 -0.0836846 0)
(-0.00415807 -0.0805246 0)
(-0.00405208 -0.0812413 0)
(-0.00396128 -0.0780845 0)
(-0.00386314 -0.0788046 0)
(-0.0037709 -0.0756618 0)
(-0.00367987 -0.0763774 0)
(-0.00358708 -0.0732546 0)
(-0.00350398 -0.0739808 0)
(-0.0053802 -0.0920914 0)
(-0.0034094 -0.0708573 0)
(-0.00333405 -0.071584 0)
(-0.00323835 -0.0684858 0)
(-0.00316926 -0.0691054 0)
(-0.00307403 -0.066157 0)
(-0.00301332 -0.066782 0)
(-0.00447676 -0.0820751 0)
(-0.00291606 -0.0638714 0)
(-0.00286419 -0.064579 0)
(-0.00276375 -0.0615828 0)
(-0.00271643 -0.0623641 0)
(-0.00261719 -0.0593393 0)
(-0.002574 -0.0601051 0)
(-0.00247611 -0.0571127 0)
(-0.00243876 -0.0578859 0)
(-0.0023408 -0.0549242 0)
(-0.00230868 -0.0557003 0)
(-0.00366414 -0.0723625 0)
(-0.00220981 -0.0527584 0)
(-0.00218382 -0.0535514 0)
(-0.00227029 -0.0563381 0)
(-0.0021509 -0.0541953 0)
(-0.00206537 -0.0514539 0)
(-0.00203656 -0.0521001 0)
(-0.0019521 -0.0493922 0)
(-0.00192704 -0.0500468 0)
(-0.00200318 -0.052644 0)
(-0.00189781 -0.0506038 0)
(-0.00182226 -0.0480393 0)
(-0.00179683 -0.048606 0)
(-0.00172198 -0.0460733 0)
(-0.00170008 -0.0466444 0)
(-0.00162598 -0.0441466 0)
(-0.00160747 -0.0447224 0)
(-0.00153411 -0.0422598 0)
(-0.00151887 -0.0428445 0)
(-0.00158573 -0.0452062 0)
(-0.00150038 -0.043339 0)
(-0.00143418 -0.0410121 0)
(-0.00141869 -0.0415167 0)
(-0.00135334 -0.0392263 0)
(-0.00134065 -0.0397413 0)
(-0.00127631 -0.0374893 0)
(-0.00126618 -0.0380128 0)
(-0.00132498 -0.040168 0)
(-0.00125302 -0.0384442 0)
(-0.0011952 -0.0363326 0)
(-0.00118432 -0.0367685 0)
(-0.00112748 -0.0346977 0)
(-0.00111873 -0.0351409 0)
(-0.00106288 -0.0331069 0)
(-0.00105612 -0.0335564 0)
(-0.0011071 -0.0354966 0)
(-0.00104644 -0.0339133 0)
(-0.000996396 -0.032016 0)
(-0.000988914 -0.0323901 0)
(-0.000939906 -0.0305277 0)
(-0.000933406 -0.0308808 0)
(-0.00097883 -0.0326748 0)
(-0.000924922 -0.0311723 0)
(-0.000872319 -0.0291293 0)
(-0.000873181 -0.0297222 0)
(-0.000915111 -0.031405 0)
(-0.000865735 -0.029994 0)
(-0.000826718 -0.0284346 0)
(-0.00081848 -0.0286109 0)
(-0.000852734 -0.0300718 0)
(-0.000808342 -0.0287359 0)
(-0.00077298 -0.0272505 0)
(-0.000764817 -0.0274043 0)
(-0.000797554 -0.028833 0)
(-0.000755352 -0.0275063 0)
(-0.000784847 -0.0288491 0)
(-0.000744091 -0.0275337 0)
(-0.000713998 -0.0261883 0)
(-0.000704159 -0.0262292 0)
(-0.000731555 -0.0274988 0)
(-0.000692953 -0.0262073 0)
(-0.000717553 -0.0273899 0)
(-0.000680376 -0.0261206 0)
(-0.00065529 -0.0249302 0)
(-0.000643945 -0.0248566 0)
(-0.000666826 -0.025987 0)
(-0.000631543 -0.0247301 0)
(-0.000652575 -0.0258108 0)
(-0.000618095 -0.024549 0)
(-0.000597181 -0.0234808 0)
(-0.000584503 -0.023301 0)
(-0.000603819 -0.0243201 0)
(-0.000571101 -0.0230826 0)
(-0.000551716 -0.0220702 0)
(-0.000588825 -0.0240463 0)
(-0.000557025 -0.0228181 0)
(-0.000573238 -0.0237287 0)
(-0.000542457 -0.022514 0)
(-0.000557133 -0.0233683 0)
(-0.000527152 -0.0221583 0)
(-0.00054048 -0.0229642 0)
(-0.000510932 -0.0217461 0)
(-0.000523694 -0.0225384 0)
(-0.000493931 -0.0212793 0)
(-0.000481424 -0.0205107 0)
(-0.00050593 -0.0220497 0)
(-0.000476811 -0.0207902 0)
(-0.000487504 -0.021507 0)
(-0.000459615 -0.0202812 0)
(-0.000468974 -0.0209395 0)
(-0.000441637 -0.0197143 0)
(-0.00044998 -0.020328 0)
(-0.000515729 -0.0227536 0)
(-0.000587956 -0.0246042 0)
(-0.000422866 -0.0190893 0)
(-0.000430717 -0.0196813 0)
(-0.000414299 -0.0184813 0)
(-0.00196648 -0.0530952 0)
(-0.00296344 -0.0629875 0)
(-0.000404149 -0.0184478 0)
(-0.000411429 -0.0190121 0)
(-0.000437373 -0.0202362 0)
(-0.000417437 -0.0195337 0)
(-0.000442855 -0.0207566 0)
(-0.00042229 -0.0200199 0)
(-0.00282338 -0.065724 0)
(-0.000397463 -0.0188062 0)
(-0.00040174 -0.0192593 0)
(-0.0116318 -0.0854175 0)
(-0.0120487 -0.0856961 0)
(-0.0125289 -0.0894785 0)
(-0.0124632 -0.0858197 0)
(-0.0129493 -0.0894574 0)
(-0.0128743 -0.0857616 0)
(-0.0133606 -0.0892589 0)
(-0.0132801 -0.085471 0)
(-0.0137617 -0.0889126 0)
(-0.013677 -0.0849287 0)
(-0.0131655 -0.0815879 0)
(-0.0135578 -0.0808231 0)
(-0.0140431 -0.0841033 0)
(-0.0139428 -0.0798996 0)
(-0.0134144 -0.0766452 0)
(-0.0137953 -0.0755791 0)
(-0.0143333 -0.0786976 0)
(-0.0141709 -0.0742957 0)
(-0.0136121 -0.071239 0)
(-0.0139789 -0.0698506 0)
(-0.0145365 -0.0727795 0)
(-0.0143351 -0.0682167 0)
(-0.0148889 -0.0710136 0)
(-0.0146783 -0.066296 0)
(-0.0141029 -0.0636103 0)
(-0.0144368 -0.061544 0)
(-0.0150097 -0.0640602 0)
(-0.0147592 -0.0591768 0)
(-0.014164 -0.0568067 0)
(-0.0144781 -0.0543316 0)
(-0.0150686 -0.056497 0)
(-0.0147761 -0.0515554 0)
(-0.0153601 -0.0535264 0)
(-0.0150557 -0.0484576 0)
(-0.0144545 -0.0466613 0)
(-0.0147218 -0.0434295 0)
(-0.0153281 -0.0449969 0)
(-0.0149765 -0.0398425 0)
(-0.0143646 -0.0385281 0)
(-0.000377412 -0.0180521 0)
(-0.000381218 -0.0184759 0)
(-0.00376196 -0.0793336 0)
(-0.0115417 -0.0817805 0)
(-0.0111263 -0.0814337 0)
(-0.00236232 -0.0539438 0)
(-0.000447202 -0.0212438 0)
(-0.00651401 -0.133988 0)
(-0.000357329 -0.017274 0)
(-0.000360745 -0.0176708 0)
(-0.00154591 -0.0415848 0)
(-0.011004 -0.0777049 0)
(-0.0105917 -0.0773177 0)
(-0.000337266 -0.0164744 0)
(-0.000340362 -0.0168466 0)
(-0.000363282 -0.0180387 0)
(-0.000333359 -0.0160756 0)
(-0.0104387 -0.0954961 0)
(-0.0104347 -0.0734875 0)
(-0.0100244 -0.0730334 0)
(-0.00452203 -0.0891413 0)
(-0.00537945 -0.10685 0)
(-0.00983422 -0.0691097 0)
(-0.00942202 -0.0685631 0)
(-0.00324163 -0.0720096 0)
(-0.00106682 -0.0325736 0)
(-0.00130675 -0.0405072 0)
(-0.00328258 -0.113101 0)
(-0.0184952 -0.141804 0)
(-0.0211088 -0.163447 0)
(-0.0213356 -0.160798 0)
(-0.0124939 -0.165562 0)
(-0.0211246 -0.0715756 0)
(-0.0265858 -0.160336 0)
(-0.026605 -0.163792 0)
(-0.0268586 -0.161109 0)
(-0.0268862 -0.164566 0)
(-0.0271279 -0.161824 0)
(-0.0271653 -0.165228 0)
(-0.0273911 -0.162447 0)
(-0.0274372 -0.165784 0)
(-0.0276484 -0.162961 0)
(-0.0277026 -0.166293 0)
(-0.0279001 -0.163333 0)
(-0.0279636 -0.166609 0)
(-0.0281429 -0.163545 0)
(-0.028216 -0.166765 0)
(-0.028374 -0.163667 0)
(-0.0284568 -0.166836 0)
(-0.0285939 -0.163683 0)
(-0.028685 -0.166799 0)
(-0.0287993 -0.16353 0)
(-0.028702 -0.160387 0)
(-0.0288853 -0.16004 0)
(-0.0287813 -0.156932 0)
(-0.0289389 -0.156372 0)
(-0.0288368 -0.15332 0)
(-0.0289751 -0.152693 0)
(-0.0288717 -0.149581 0)
(-0.0289977 -0.148914 0)
(-0.0288865 -0.145724 0)
(-0.0289979 -0.14493 0)
(-0.0288834 -0.14175 0)
(-0.028981 -0.140843 0)
(-0.0288644 -0.137668 0)
(-0.028949 -0.13668 0)
(-0.028833 -0.133531 0)
(-0.028905 -0.132451 0)
(-0.0288975 -0.166598 0)
(-0.0287759 -0.169831 0)
(-0.0290643 -0.139768 0)
(-0.0289938 -0.169691 0)
(-0.0288722 -0.172722 0)
(-0.0290842 -0.172772 0)
(-0.0289449 -0.175542 0)
(-0.0291699 -0.175705 0)
(-0.0290063 -0.178371 0)
(-0.0292526 -0.178542 0)
(-0.0290818 -0.1812 0)
(-0.0293846 -0.175656 0)
(-0.0294751 -0.178486 0)
(-0.0295796 -0.175479 0)
(-0.0288098 -0.180843 0)
(-0.0288729 -0.183632 0)
(-0.029676 -0.178259 0)
(-0.0297527 -0.175162 0)
(-0.0285826 -0.18319 0)
(-0.0286198 -0.185803 0)
(-0.0298558 -0.177881 0)
(-0.0299017 -0.174674 0)
(-0.027491 -0.169144 0)
(-0.0287696 -0.146397 0)
(-0.0265283 -0.12169 0)
(-0.0235033 -0.156438 0)
(-0.0232535 -0.154954 0)
(-0.0235868 -0.153123 0)
(-0.0233289 -0.151637 0)
(-0.0236439 -0.149674 0)
(-0.0233925 -0.148225 0)
(-0.0236809 -0.146102 0)
(-0.0234299 -0.144801 0)
(-0.0237033 -0.142401 0)
(-0.0234292 -0.14124 0)
(-0.0237064 -0.138584 0)
(-0.0234224 -0.137456 0)
(-0.0236924 -0.134646 0)
(-0.0231777 -0.143949 0)
(-0.0234115 -0.133552 0)
(-0.023666 -0.130562 0)
(-0.0233837 -0.129565 0)
(-0.0236235 -0.126397 0)
(-0.023903 -0.12725 0)
(-0.0238453 -0.12295 0)
(-0.0283143 -0.185195 0)
(-0.0283214 -0.187618 0)
(-0.0286356 -0.188296 0)
(-0.0283121 -0.189909 0)
(-0.0286354 -0.190699 0)
(-0.0282765 -0.19208 0)
(-0.0286069 -0.192995 0)
(-0.0282039 -0.194123 0)
(-0.0285446 -0.195114 0)
(-0.0280887 -0.196004 0)
(-0.0145311 -0.195868 0)
(-0.0300082 -0.177246 0)
(-0.030026 -0.174003 0)
(-0.0299224 -0.171472 0)
(-0.0300232 -0.170698 0)
(-0.0241199 -0.123598 0)
(-0.0240482 -0.119207 0)
(-0.0278733 -0.193017 0)
(-0.00919923 -0.0646058 0)
(-0.00879138 -0.0639823 0)
(-0.00960966 -0.0650727 0)
(-0.00612985 -0.125237 0)
(-0.0243194 -0.119678 0)
(-0.0242316 -0.115181 0)
(-0.0245012 -0.115544 0)
(-0.0243942 -0.1109 0)
(-0.024124 -0.110639 0)
(-0.0242732 -0.106206 0)
(-0.0235615 -0.122155 0)
(-0.024537 -0.106339 0)
(-0.0244035 -0.101481 0)
(-0.024661 -0.101495 0)
(-0.0245138 -0.0965207 0)
(-0.0299214 -0.168184 0)
(-0.030002 -0.167294 0)
(-0.0284182 -0.196999 0)
(-0.0279121 -0.197701 0)
(-0.0299027 -0.164816 0)
(-0.0299668 -0.163853 0)
(-0.030061 -0.166236 0)
(-0.0300121 -0.162783 0)
(-0.0299219 -0.160435 0)
(-0.0299557 -0.159367 0)
(-0.0298689 -0.157034 0)
(-0.0298925 -0.155917 0)
(-0.0298101 -0.153642 0)
(-0.0298232 -0.152421 0)
(-0.0297451 -0.150235 0)
(-0.0297492 -0.148869 0)
(-0.0296729 -0.146725 0)
(-0.0296703 -0.145273 0)
(-0.0295976 -0.143188 0)
(-0.0295896 -0.141724 0)
(-0.02952 -0.139672 0)
(-0.029509 -0.138236 0)
(-0.0294401 -0.136156 0)
(-0.0301308 -0.17649 0)
(-0.0278328 -0.160121 0)
(-0.0240037 -0.106022 0)
(-0.0231258 -0.132414 0)
(-0.00562927 -0.0945841 0)
(-0.00552581 -0.0912365 0)
(-0.0138146 -0.0927101 0)
(-0.0289111 -0.196263 0)
(-0.0212735 -0.16945 0)
(-0.0207758 -0.169994 0)
(-0.0209679 -0.171775 0)
(-0.0204434 -0.172201 0)
(-0.0202712 -0.17041 0)
(-0.0199166 -0.172505 0)
(-0.020068 -0.174302 0)
(-0.0195209 -0.174479 0)
(-0.0196436 -0.176292 0)
(-0.0190806 -0.176303 0)
(-0.0191694 -0.178105 0)
(-0.0185953 -0.177971 0)
(-0.018647 -0.179731 0)
(-0.0180604 -0.179497 0)
(-0.0180734 -0.181213 0)
(-0.0174751 -0.180874 0)
(-0.0174422 -0.182548 0)
(-0.0168349 -0.182115 0)
(-0.0168965 -0.180445 0)
(-0.0162508 -0.181607 0)
(-0.0161272 -0.183244 0)
(-0.0155561 -0.182638 0)
(-0.0153725 -0.184235 0)
(-0.0148138 -0.183537 0)
(-0.0145788 -0.185076 0)
(-0.0140283 -0.184297 0)
(-0.0137349 -0.185769 0)
(-0.0132053 -0.184908 0)
(-0.0128497 -0.186316 0)
(-0.01234 -0.185393 0)
(-0.0127095 -0.183992 0)
(-0.0118607 -0.184422 0)
(-0.0114254 -0.185768 0)
(-0.0109781 -0.184722 0)
(-0.0104814 -0.186024 0)
(-0.0100747 -0.184894 0)
(-0.00952621 -0.186184 0)
(-0.00916329 -0.184973 0)
(-0.00855948 -0.186183 0)
(-0.00825619 -0.184916 0)
(-0.00759622 -0.185968 0)
(-0.00736835 -0.184715 0)
(-0.0066348 -0.185679 0)
(-0.006499 -0.184385 0)
(-0.00569071 -0.185254 0)
(-0.00561954 -0.183909 0)
(-0.0185351 -0.17619 0)
(-0.0122392 -0.183018 0)
(-0.00474407 -0.183341 0)
(-0.0163382 -0.179944 0)
(-0.0280011 -0.186862 0)
(-0.0282247 -0.198672 0)
(-0.0276573 -0.199212 0)
(-0.0273261 -0.198221 0)
(-0.0269918 -0.199568 0)
(-0.0273143 -0.200556 0)
(-0.0265482 -0.200751 0)
(-0.0268437 -0.201706 0)
(-0.0259739 -0.201765 0)
(-0.0262062 -0.202649 0)
(-0.0252605 -0.202606 0)
(-0.0253528 -0.203398 0)
(-0.0243275 -0.203245 0)
(-0.024244 -0.203961 0)
(-0.0231097 -0.20371 0)
(-0.0228602 -0.204385 0)
(-0.0216543 -0.204097 0)
(-0.0211597 -0.204725 0)
(-0.0199635 -0.204389 0)
(-0.0191153 -0.205 0)
(-0.0179591 -0.204613 0)
(-0.0165002 -0.205268 0)
(-0.0156848 -0.204777 0)
(-0.022039 -0.203315 0)
(-0.0169025 -0.204154 0)
(-0.0250534 -0.201858 0)
(-0.0057835 -0.0937153 0)
(-0.00566347 -0.0902942 0)
(-0.00592937 -0.0926984 0)
(-0.00578657 -0.0891473 0)
(-0.00606564 -0.091531 0)
(-0.00590102 -0.0878465 0)
(-0.00562045 -0.0854571 0)
(-0.00571462 -0.0840222 0)
(-0.00543223 -0.0816226 0)
(-0.00550494 -0.0800461 0)
(-0.00522169 -0.0776456 0)
(-0.0052722 -0.0759258 0)
(-0.00499037 -0.0735336 0)
(-0.00556508 -0.0783096 0)