/*--------------------------------*- C++ -*----------------------------------*\
| =========                 |                                                 |
| \\      /  F ield         | OpenFOAM: The Open Source CFD Toolbox           |
|  \\    /   O peration     | Version:  v2012                                 |
|   \\  /    A nd           | Website:  www.openfoam.com                      |
|    \\/     M anipulation  |                                                 |
\*---------------------------------------------------------------------------*/
FoamFile
{
    version     2.0;
    format      ascii;
    class       volScalarField;
    location    "400";
    object      p;
}
// * * * * * * * * * * * * * * * * * * * * * * * * * * * * * * * * * * * * * //

dimensions      [0 2 -2 0 0 0 0];


internalField   nonuniform List<scalar> 
13851
(
-0.00415402
0.00456554
-0.0411973
-0.00396456
-0.0519912
0.00252289
-0.0256255
-0.039132
-0.000253715
-0.0291581
0.00146502
-0.0290571
-0.0666249
-0.0732031
-0.0178452
-0.0257735
-0.0319418
-0.00868062
-0.0618516
-0.000353947
-0.00420686
-0.0424397
1.77443e-05
-0.000829838
0.000277258
-0.0381749
-0.0399756
-0.0923792
-0.00470765
-0.01552
0.00268163
-0.0322939
-0.040191
2.6626e-05
-0.000929416
-0.0617575
-0.0602428
-0.0517043
-0.0293996
0.000605592
-0.00871354
0.000215813
-0.0908487
0.000245613
0.00100559
-0.0881802
0.000752011
0.0118061
-0.0406774
0.000387529
-0.0574209
-0.0598029
-0.0897704
-0.0176023
-0.00999749
0.000213618
0.000285783
-0.0907082
-0.0153192
-0.0260364
-0.0509241
-0.0654891
-0.00128342
-0.0542452
-0.00317786
-0.00233044
-0.0599402
0.000792616
-0.0493726
-0.0081313
-0.0552562
-0.0588725
0.00132237
-0.0177249
-0.0088968
0.000220203
-0.042672
-0.0714075
-0.0479688
-0.0540562
-0.0277765
0.000427046
-0.0180876
-0.0872665
-0.00156282
-0.029956
0.00241699
0.00530344
-0.037442
0.00097224
-0.0618567
0.00374462
0.00202904
-0.0407574
-0.0378691
0.000424048
-0.0527891
-0.076268
0.000485957
0.000356782
-0.0836686
-0.0522625
-0.00940507
-0.0454842
4.26201e-06
0.00267473
-0.0542665
0.000121901
-0.0576113
0.00315386
-0.000298932
0.000989995
0.00347513
-0.000750263
-0.000253096
0.00534526
-0.0760273
0.000236244
-0.00410513
-0.00904798
-0.0903425
-0.044679
-0.0677817
-0.00235289
0.0102047
0.000540882
0.0107195
-0.0499954
-0.00402991
-0.0548547
-0.00879696
-0.00252637
-0.057369
-0.0181656
0.00487932
-0.00305941
0.000230678
-0.0591719
-0.0615312
-0.053403
-0.0848217
-0.00949283
0.00163218
0.000346709
-0.0254736
0.000844091
0.000153187
-0.0542495
-0.0250908
0.000379987
-0.0639603
-0.00850061
-0.0728184
0.000417675
-0.032064
-0.0248703
-0.00308774
-0.0173904
-0.0596381
-0.0568313
4.20711e-05
-0.0461137
-0.0909502
-0.0023759
-0.0166712
0.000315428
0.000105117
-0.0503298
-0.00429421
-0.0812125
-0.0705447
0.000113614
-0.0032743
-0.0551084
-0.00240217
0.0107855
-0.0492837
0.00135745
-0.06287
0.000115029
-0.0321312
-0.0591913
-0.0183396
-0.043345
-3.12721e-05
0.000450587
-0.00258371
-0.00904096
-0.051867
-0.0168366
0.00128247
-0.0900898
0.00103626
-0.0466626
-0.06449
-0.0308316
0.00149415
0.000541728
0.00134496
0.0002096
0.000504563
-0.0827307
-0.00539381
-0.0141299
-0.0220577
-0.0186231
-0.0447467
-0.0337796
-0.0626511
5.73913e-05
-0.0632016
-0.00951118
0.00338445
7.47451e-05
0.000316772
0.00126198
-0.00326225
-0.0876032
-0.0178777
-0.062962
-0.0338652
-0.0284396
-0.0702735
-0.0578254
-0.0586723
0.00058227
-0.0419075
1.4255e-05
-0.0898818
6.00717e-05
-0.0371062
-0.00338749
0.000112886
0.000997719
-0.0576411
-0.00818637
-0.0433221
-0.00222987
0.000288483
-0.014412
0.0024426
0.00325713
6.26916e-06
-0.0218231
6.75123e-05
-0.0603474
-0.0519296
0.00212584
-0.023881
-0.0263621
0.0021497
0.00397053
-0.0229144
-0.0245714
-0.0570125
0.00832083
-0.0162448
-0.0592634
-0.0827575
-0.0198053
0.000313181
-0.00787494
9.20656e-05
0.000542361
-0.0628663
-0.0302998
-0.0229899
-0.0406423
-0.0700853
0.00183355
0.00210017
-0.0315226
0.000621538
-0.0476262
-0.0250709
-0.0024925
0.000762074
0.000643243
-0.0558869
0.00188136
3.35139e-06
3.29289e-05
-0.000238527
-0.0568025
-0.00211869
0.0107849
-0.000158612
-0.018503
1.2764e-05
1.68678e-05
-0.0550084
-0.0159063
-0.0261712
-0.04895
0.000555373
-0.0625075
-0.0188088
-0.0129811
-0.00255147
-0.0599548
-0.0459103
-0.0309766
-0.0575595
-0.0131179
0.00259026
-0.0686447
-0.000226893
-0.0545901
-0.0400474
-0.0156421
-0.0614933
-0.0185307
-0.0213696
-0.074546
0.000257096
-0.0269476
0.00056127
-0.0572813
-0.0624059
-0.0180366
-0.0541545
-0.0185051
-0.0799263
0.00260161
0.000313613
-0.00199085
-0.0621842
-0.0415839
-0.0329009
-0.0183973
-0.0133283
-0.0209034
0.00085208
-0.0783258
-0.0770954
-0.00476146
-0.0562491
-0.0546707
-0.0177295
-0.046345
-0.0545516
0.00400219
-0.00617469
-0.0594443
-0.0616708
0.00187942
0.00199973
-0.0649255
-0.0178599
-0.00062483
-0.0007014
-0.0425622
-0.0332917
-0.00583142
-0.0898743
-0.00321323
0.00187656
-0.00189306
-0.0184243
1.39698e-05
0.000115124
-0.00350145
-0.0644231
7.77938e-05
-0.0154787
-0.0542738
0.000215117
-0.0093126
-0.0217266
0.00476436
-0.0791508
-0.015267
-0.0032736
-0.0385627
0.00841301
-0.00821788
0.000216817
0.00291133
-0.0839323
-0.00881
-0.0592639
0.00425202
-0.0598559
-0.0831385
-6.11845e-05
-0.000909459
0.00203171
-0.00346964
-0.0177943
-0.00515818
-0.0547134
-0.0728802
-0.0514731
-0.0601455
-0.0659491
0.000257822
-0.0201158
-0.0791444
-0.0556853
-0.00366479
-0.07464
0.00306304
-0.039041
0.00042294
-0.0546468
1.32965e-06
-0.0267289
0.00193422
-0.0238007
-0.000104819
-0.000181503
0.000301243
-0.054522
-0.00809785
-0.080009
-0.00698513
-0.054629
0.00142108
0.00431091
-0.0253353
-0.0415397
-0.0305085
0.00298578
0.000210159
-0.000247671
0.000670483
-0.0509553
0.00293458
-0.0567072
0.00110874
-0.0724552
0.00104458
0.002342
-0.0086166
-0.0582567
-0.00828144
0.00414602
-5.45726e-05
-0.0376506
0.00348675
-0.0380047
-0.0641691
0.00150793
0.000324735
0.00143823
-0.0825448
1.76632e-07
-0.0398219
-0.0487316
0.0018141
-8.32124e-05
-0.0202233
-0.0639582
-0.0595596
-0.00615627
-0.0158842
0.000540102
-0.00181385
-0.0905536
-0.0160515
4.34104e-05
0.00589176
-0.00335034
-0.00392082
-0.000344064
-0.0137037
-0.0163941
6.33178e-05
0.00151787
-0.0729121
-0.0182729
-0.0517145
-0.00317015
0.00161888
0.00143072
-0.00105199
-0.0062679
-0.000771239
-0.000912194
0.0107399
-0.0236943
0.00245117
-0.0184248
0.000354772
-0.0796452
-0.063707
-0.0192552
0.00188518
-0.0261
0.000800115
-0.0903888
-0.00198653
-0.00136371
-0.00855639
-0.04949
-0.024514
-0.0891083
0.00017637
-0.0894015
-0.0143387
0.000236777
0.00205782
-0.0781697
-0.036504
0.00141146
-0.00428664
0.00206766
-0.0101815
-0.00178013
-0.00225558
-0.024072
-0.0561268
-0.0558354
-0.0607125
-0.0642515
-0.00241179
5.29848e-05
-0.0672251
0.00286191
-0.0330175
-0.0455021
0.000991103
0.00173366
-0.0614606
-0.0169196
-0.0889523
-0.0877646
-0.0841265
-0.0175247
0.00235371
0.00261163
0.000223071
0.00941947
0.000632539
-0.0397884
-0.0168928
-0.0432571
-0.0615875
0.000184735
0.0007916
-0.0564916
-0.0633017
-0.0234144
-0.0150235
-0.00316391
-0.0113192
-0.0522098
-0.0102839
-0.00111065
-0.0157281
-0.00159064
-0.0904474
-0.069195
0.00309605
0.00170638
-0.0508316
-1.7877e-05
-0.000207525
0.000493239
-0.0674699
-0.0328795
-0.0624396
-0.0614402
0.000199473
0.00215434
0.00599438
-0.0419846
-0.0584845
-0.0563501
-0.0608637
-0.0084713
-0.0241371
0.00345163
-0.067096
-0.0615271
-0.0521379
-0.000356842
0.000122843
-0.0106417
-0.0395394
0.000185884
-0.022726
0.00010367
-0.00436489
-0.0617905
-0.0533953
0.00067401
0.000177536
-0.0586803
-0.000459117
-0.00295546
0.000528413
0.000506258
-0.0177977
-0.0851685
0.00195611
0.00363135
-0.0841737
0.0026403
-0.0516258
-0.0634493
-0.0618072
0.00211478
-0.0489133
-2.17067e-05
0.000588475
-0.0292603
-0.0712949
-7.98869e-05
-0.0621097
-0.0355371
-0.000346852
-0.0234798
0.00162764
0.000935349
-0.0556445
-0.0181842
-0.00513878
-0.000134582
-0.0416979
-0.0565239
-0.0254461
-0.00795669
-0.022788
-0.0230101
-0.051663
-0.0496726
-0.0575553
-0.0217048
-0.0616363
-0.000393201
-0.00357473
0.00248164
-0.0848538
-0.00999535
0.000238204
-0.0577315
-0.0114942
-0.087876
-0.0632897
-0.0881892
0.00566333
-6.72371e-05
-0.058178
9.90767e-05
-0.00402416
0.000161738
-0.00438958
1.47555e-05
-0.00620371
-0.0138546
0.000173954
-0.0505739
-0.0148317
-0.0526038
-0.00261786
0.000115838
0.000387283
-0.0534118
-0.0603324
-0.0598983
-0.0416681
9.33019e-05
0.000436695
-0.00167284
-0.00259302
-0.0624607
-0.0354295
-0.022657
0.000141626
-0.0242953
-0.00279987
-0.0356748
-0.0905028
-0.0242491
-0.0770233
0.0039336
-0.00801036
-0.0604857
-0.0818341
-0.0494239
-0.0225664
-0.0272392
-0.00841601
-0.0593847
-0.00727893
0.00263124
-0.0189696
1.53689e-07
0.00032677
-0.0566929
-0.064126
0.000628126
-0.0105818
0.000284741
-0.00174955
-0.0317335
-0.00305872
-0.0615942
-0.0549785
-0.0612965
-0.0024339
0.00010036
-0.00270853
-0.0803316
-0.0615041
-0.00795044
-0.0630962
0.000424796
-0.0176602
0.000215433
0.00122478
-0.0609351
-0.0188071
-0.00650795
0.000862707
-0.038095
0.00036836
-0.0896926
0.00875584
-0.0733585
0.000222805
-0.0228064
-0.0662105
-0.0915702
-0.0618885
0.00149962
-0.0601078
-0.0185447
0.00180755
-0.0432243
-0.0381502
-0.0265537
-0.0886973
0.00206759
0.00164944
-0.0605825
1.16986e-05
-0.00546368
-0.0165403
-0.0003351
-0.0906159
-0.0314666
-0.058995
0.000351903
0.00125311
-0.00040778
9.58816e-05
-0.00238752
0.00205544
0.000129749
-0.00775956
-0.00673616
-0.0669075
-0.00341357
0.000297926
0.00868364
-0.0246818
-0.0663342
0.000180929
0.0016076
-0.0595764
-0.0344011
-0.000338114
-0.00115028
0.00370108
-0.0752318
-0.023563
-0.0665055
-0.0558688
-0.000312326
0.00140718
-0.0909467
0.00336038
-0.0242638
-0.00165543
0.000146747
0.00320599
-0.0373604
-0.0128874
-0.0182751
0.00131179
-0.0171471
0.0015816
-0.0638827
0.00132297
-0.0509299
0.000117885
-0.0224692
-0.0503961
-0.0585505
-0.0561651
-0.0180401
-0.0471652
-0.0637217
-0.0250616
-0.0839877
-0.00364072
-0.0668306
-0.0630066
-0.0733232
-0.000632821
-0.0292725
-0.000370867
-0.00473502
-0.090526
-0.0894301
-0.00136175
0.000424713
-0.0574135
0.00053577
0.00029416
-0.0904381
0.000388075
-0.0167725
-0.0902316
-0.067285
-0.00282205
-0.00390978
-0.0183862
-0.0914213
-0.0624158
-0.0615222
0.00116466
-0.0754821
-0.0431669
-0.0600841
-0.0535327
-0.0534488
-0.0206532
-0.0244366
0.00177394
-0.0619959
-0.0559915
0.00283763
-0.0506767
-0.0906988
-0.0690153
-0.0694512
-0.0205973
-0.0516419
-0.00283864
-0.0225813
-0.0101579
-0.0316567
-0.0178268
-0.0574847
0.000300659
-0.0592184
-0.00969091
-0.0428568
-0.0522961
-0.0506467
-0.0758295
-0.0562252
-0.012744
-0.000909003
-0.0586987
0.0103086
-0.00150667
-0.0215794
-0.0679144
0.000532753
-0.0629318
-0.00151219
-0.0187697
-0.0646333
-0.0828919
-0.0668801
0.000880447
0.00261479
-0.00204105
-0.0741646
-0.0177377
0.00457655
-0.0614179
-0.00298043
-0.0375091
-0.0518345
0.0012332
-0.0466751
-0.0206784
0.000421095
0.00254995
-0.0625779
-0.0584577
-0.0239959
0.000687404
-0.00218162
-0.0895086
-0.0585381
0.0002999
-0.0299997
-0.00200214
-0.00532826
-0.00142657
0.000445098
-0.0416718
0.0038685
-0.0165914
0.00166149
-0.00193102
-0.0172069
-0.0588968
-0.0787726
-0.0404407
-0.045976
-0.00992057
-0.0388915
-0.00195794
-0.00212394
-0.0147181
-0.0161358
-0.0599776
-0.01923
-0.0586185
-0.0206054
-0.0250781
-0.000603816
-0.0920347
-0.00398145
0.00279241
-0.0127676
-0.0641691
-0.0321056
-0.0367067
-0.056007
-0.0422902
-0.00894672
-0.0305855
0.00410899
-0.0887741
-0.0404335
0.00149269
-0.0100868
-0.0556888
-0.0530756
-0.0458183
-0.00112983
-0.0525193
-0.00258391
-0.00275423
-0.0706591
0.000554005
-0.0643575
-0.026971
-0.00238184
0.00188135
-0.00266061
-0.0185104
8.07779e-05
-0.0267238
-0.0607252
-0.0031138
-0.0626491
-0.0897612
-0.0213611
-0.061571
-0.0239468
-0.00230187
0.000499717
-0.0110625
-0.0026214
-0.0594089
-0.0313723
-0.000352024
-0.00677021
0.000530146
-0.0709974
-0.0337544
-0.00112035
-0.0747962
-0.0619394
-0.0104594
-0.00193565
-0.0362003
-0.00334236
0.00261354
0.00371435
0.00747585
-0.00922216
0.00102606
0.000317808
-0.08923
-0.000124407
-0.0660983
-0.0311482
-0.0374564
5.2864e-05
0.000334008
-0.0374969
-0.00324884
0.0111633
0.00054782
-0.0170764
0.00902073
-0.0192469
-0.0375964
-0.00186287
0.00703194
-0.0635669
-0.00159204
0.000456393
-0.0134768
-0.00364993
0.00144268
-0.0439795
-0.0437941
-0.0411268
-0.0320388
0.000731233
-0.0324385
-0.000242999
-0.0793478
-0.0652788
0.00645292
-0.0617937
-0.0176841
0.000491763
-0.00640279
0.000254227
0.00308906
-7.90628e-05
-0.00220009
0.000560968
-0.0577533
0.000354545
0.000488636
-0.0285664
-0.0449732
-0.0611716
-0.00946957
-0.00652435
-0.00704657
-0.0623034
-0.0618605
-0.0358505
-0.08502
-0.0504403
-0.0601705
0.000419332
-0.0552915
-0.0149075
0.000599272
-0.00653967
-0.0713859
-0.0618944
0.00390492
-0.0446586
0.00144653
-0.0163292
-0.000156609
-0.0114281
1.83688e-05
0.01113
1.1974e-05
-0.0441348
-0.00723913
-0.0593888
-0.00101601
0.0015371
7.1988e-05
-0.0518488
-0.0327346
-0.0654426
-0.0635708
-0.0591988
-0.0488093
-0.0685512
-0.00129556
-0.079473
0.000558476
-0.0249784
0.000346674
-0.022275
-0.0465036
-0.0211733
-0.0662476
-0.0314316
-0.0390403
-0.00150183
-0.0605194
0.0123464
-0.0181961
-0.0368473
-0.0189701
0.000506757
-0.00399898
0.00378582
0.000504123
-0.00152569
-0.00807502
-0.0430643
0.00141932
0.00219434
-0.0732802
-0.00321604
0.000480089
-0.0304263
-0.0887797
-0.0354306
-0.0357837
-0.0641695
0.00237321
0.000406076
-0.0631764
-0.003613
-0.0466647
-0.0406238
-0.0645186
0.000694839
-0.054673
-0.00398342
-0.00967716
0.00116201
-0.0173891
-0.0887448
-0.00839984
-0.0668702
0.00124449
-0.0458361
-0.0611888
-0.0287242
-0.0636242
-0.0629658
0.000478453
-0.00804277
-0.0647313
-0.00888864
-0.0589557
-0.0131658
-0.013601
-0.0619054
-0.0611789
-0.0894843
-0.0137917
-0.0243092
-0.0159436
-0.0676009
-0.0620257
-0.0261863
0.0039228
-0.038536
-0.0449994
-0.0636347
0.00770829
-0.0199551
-0.060541
-0.038202
-0.00602823
-0.0609659
-0.0630405
-0.0259818
-0.00226458
-0.0920962
-0.065926
0.00056304
-0.0073737
-0.0511731
0.000566398
-2.93147e-05
-0.00815636
0.00443712
-0.0128859
-0.058427
-0.00153258
-0.0726773
-0.0303876
-0.0893136
0.0045078
-0.0473098
-0.0646581
-0.0510161
0.00246928
-0.0122271
-0.0492765
-0.0010086
-0.018367
0.000500975
0.00913686
-0.0077147
-0.0602667
-0.0023804
0.00172827
-0.078008
-0.0346285
-0.0389809
-0.0256924
0.000566849
-0.0023037
-0.0502466
-0.0610971
-0.0806737
-0.00289176
-0.0555577
0.00112906
-0.0106022
0.000405202
-0.0684723
-0.0475305
-0.024237
-0.0605097
-0.0532709
0.0104425
-0.0608367
-0.0587662
0.00275004
0.000458782
0.00202425
0.0124436
-0.0545561
8.19088e-05
-0.0609733
-0.0116638
-0.00942268
-0.0376115
-0.0661784
-0.0120537
-0.0742505
-0.00224013
-0.0776151
0.00343384
0.00278342
-0.0100997
-0.00272342
0.00196265
0.000953118
-0.0309888
-0.0694077
-0.0755159
0.00222948
-0.0633965
-0.0171473
-0.0573646
-0.0648781
-0.0493554
-0.0138166
-0.0045703
0.000105182
-0.00715875
-0.0623021
-0.0122385
-0.0289779
-0.0121125
-0.064209
-0.0573967
-0.0858036
-0.00581841
-0.0627052
-0.0178961
-0.0160158
-0.00872555
0.000227104
-0.0909387
-0.0248308
-0.0612069
0.000123986
0.0044033
-0.0613338
-0.0179352
-0.0209468
-0.0149092
-0.0626976
0.00137235
-0.026706
-0.00596861
-0.00810708
-0.0612968
-0.030426
-0.0310356
0.000957472
-0.0300287
-0.0436455
-0.0585025
-0.00363511
-0.0506535
-5.74109e-07
0.0012113
0.000492317
-0.0622457
-0.0237349
-0.0521397
-0.0393003
-0.0176889
0.00232514
-0.00922292
0.000455079
-0.0184556
0.000526925
0.00148754
-0.0718289
-0.0384955
-0.00266055
0.00303432
0.000338992
-0.0638405
-0.0739877
-0.0609273
-0.0480474
-0.0179696
0.00157138
6.74102e-05
4.02584e-05
-0.0612986
-0.0580017
0.000259679
-0.0153569
-0.00553133
-0.0617693
-0.0277432
-0.0284164
-0.0588102
-0.0283794
0.00155075
-0.0622329
-0.0564263
-0.0125942
0.000535686
-0.0146316
-0.0578153
-0.0632623
-0.0373049
-0.0608297
-0.0854186
-0.0342401
-0.0582538
-0.0350057
-0.00693542
-0.0632513
-0.0598866
-0.0158662
-0.0902648
-0.0224837
-0.0014141
0.000287978
-0.0600339
0.00246243
-0.0615022
-0.024973
-0.0366473
-0.0551395
-0.000216857
-0.0611533
-0.0582962
0.000690958
-0.0311904
-0.0628724
-0.0525961
-0.08933
-0.0315044
-0.000379364
-0.00739261
0.00310734
0.000311277
0.0106153
-0.0148199
-0.0144225
-0.0382848
-0.0264584
-0.0358039
0.00200003
4.85705e-05
0.000216711
-0.0240618
-0.0313519
0.010452
-0.0535364
-0.0367958
-0.0203877
-0.0524547
-0.0348059
0.00321918
-0.0591575
-0.00339274
-0.000738051
-0.0618242
-0.0834049
-0.0890999
0.00265164
-0.00128787
-0.0794541
0.00155074
0.00061796
-0.0450255
-0.00532792
-0.0530057
-0.057713
0.000424715
-0.0904999
-0.0610823
-0.0317305
-0.0645586
-0.0725214
-0.0197162
-0.00664074
-0.0653395
-0.0896246
-0.0375705
-0.0611034
5.03084e-05
-0.0140769
0.000977129
-0.023161
-0.0591332
-0.0780109
-0.090486
-0.0791039
-0.0368762
-0.0199541
-0.019946
0.000444109
-0.00939605
0.000241848
-0.070833
-0.00621504
-0.0623612
-0.0172923
-0.00178546
-0.0495463
-0.0609435
-0.0668474
-0.0627155
-0.0521219
0.000305286
0.000628818
-0.0637896
-0.0648937
-0.0375223
-0.00454937
0.000149667
-0.0406719
-0.0317118
-0.0616013
-0.038797
-0.038495
0.000323939
-0.0634857
0.0018869
-0.059536
0.0109487
-0.00737576
-0.054704
-0.00702433
-0.0596413
0.000363848
-0.0574421
0.000482446
-0.037869
-0.00288654
-0.0178448
0.00176632
-0.0427016
-0.0509033
-0.0899936
-0.0763354
-0.0366069
-0.0356288
-0.0103536
-0.0632272
-0.0888948
-0.00175615
0.000456457
0.00199031
0.00015165
-0.053157
6.99166e-05
-0.0064681
-0.0357805
0.0107575
-0.0131099
-0.0022312
-0.0247896
-0.06091
-0.0669182
-0.0120043
0.0105177
-0.0752897
0.0163421
-0.0205486
-0.0182813
-0.0788727
-0.0503336
-0.0361919
-0.0164706
0.000815935
0.00181041
-0.0908334
-0.0894194
-0.0482049
0.00058252
0.00254019
-0.00196702
-0.0584308
0.00298097
-0.0692304
-0.0901712
-0.0239445
-0.0363899
0.00557467
-0.0182028
-0.0125472
-0.0249866
-0.0588711
-0.025474
-0.0613282
-0.00232108
-0.0105643
-0.00227061
-0.0171857
-0.073131
-0.0611283
-0.0286504
-0.0883548
-0.0649177
0.000553183
-0.0169389
0.000559298
0.00204019
-0.0563584
-0.0605595
-0.021779
-0.0106591
0.00854516
-0.0371291
-0.0503885
-0.0901266
-0.0282969
-0.0601838
-0.0550922
-0.00754733
-0.0165323
-0.00200064
-0.0540098
0.00194754
0.001757
-0.0589444
-0.040036
-0.0669444
0.00193235
-0.034342
0.000823493
-0.0905507
-0.0823625
-0.000234142
0.00327381
-0.0360432
-0.017814
-0.00504793
-0.0185618
0.000220776
-0.0894073
-0.0304907
-0.0893949
-0.0216869
-0.0635649
-0.0348057
-0.0613433
0.00262879
-0.0442844
-0.08963
-0.018145
-0.00132079
-0.0566031
-0.00167913
0.00321429
-0.0371085
-0.083981
-0.0905156
-0.020808
0.00475945
0.000718339
-0.0044932
-0.00613545
-0.017606
-0.0837611
0.000168698
-0.0339347
-0.0248318
0.00235837
-0.0218893
-0.0574648
0.0072199
-0.0607259
0.00186661
-0.001459
-0.0169898
-0.0574785
-0.030377
-0.0502385
-0.0735917
-0.069143
-0.00207082
-0.0199352
-0.0345853
-0.0678298
-0.0708619
-0.0182339
-0.0606642
-0.0313286
-0.00450456
-0.0137963
-0.0790251
-0.0376252
0.00158516
-0.0893458
-0.0125998
-0.0260161
-0.00618131
-0.0914724
-0.0118382
-0.0696386
-0.00353782
0.00360985
-0.0300502
-0.0114335
-0.0556569
-0.0897219
0.00196209
-0.025084
-0.049514
1.0051e-05
-0.0205591
-0.0202507
-0.0391827
-0.0527806
-0.0538474
-0.010003
-0.0658337
-0.0378522
-0.0531448
-0.00387141
-0.031705
-0.000384746
-0.061154
-0.0607797
-0.0493304
0.00557196
-0.0611512
-0.0856135
-0.0218158
-0.0209962
0.000302089
0.000489537
-0.0590539
-0.006513
-0.0629796
-0.0108826
-0.0611625
-0.012982
-0.0633122
0.00033634
-0.00493385
0.00229731
-0.02766
-0.0835194
-0.0616523
-0.0626765
-0.033434
0.000315553
-0.00585834
-0.00253614
0.000962927
-0.0623947
-2.64206e-05
-0.0508547
-0.0172239
0.0128814
-0.0104963
0.000314909
0.00261371
-0.00154597
-0.00155446
-0.0250433
-0.054032
-0.0061868
0.00151236
-0.0123366
-0.00144594
-0.0181365
-0.0214763
-0.0303109
-0.0371335
-0.00518472
0.00447907
-0.0600491
0.00235422
0.00270035
-0.00739896
-0.0260477
0.000607713
-0.0616708
-0.0208607
-0.00915648
-0.0634191
-0.0432474
0.00015147
-0.0636345
-0.0629628
-0.00324772
-0.0291904
-0.0246345
-0.0307842
0.00346562
0.000488601
-0.0424452
-0.0912392
-0.0573865
-0.0640703
-0.0239308
-0.0902004
0.0114133
-0.0310801
0.00170293
-0.0700237
-0.0185502
-0.0392904
-0.0173875
-0.059967
-0.0859803
-0.0027906
0.000453817
-0.0320103
0.000968729
-0.0248554
-0.0585205
-0.0109982
0.00298431
-0.0917565
-0.0604855
-0.00111161
-0.040058
-0.0439362
-0.0834866
3.77925e-05
-0.0873503
-0.0904899
0.00214557
0.00597334
-0.0763584
-0.0372911
2.12063e-05
-0.00169904
0.00445573
-0.0359772
0.000285089
-0.00476374
-0.0629867
-0.0899817
-0.0898289
0.000616693
-0.0600311
-0.0207677
-0.0521408
0.000862959
-0.0213733
-0.0341636
-0.00114218
-0.0843816
-0.0376231
-0.045465
-0.0706492
-0.0879009
-0.0347022
-0.0610284
-0.086791
-0.0677958
-0.00362073
-0.0914961
0.00054889
0.000234539
-0.0168702
0.000421791
0.000962635
-0.089728
-0.00201588
0.000438201
-0.0105317
-0.0912351
-0.0887667
-0.00586348
-0.00107423
-0.020819
-0.0290569
-0.0851366
-0.000151696
-8.48467e-06
-0.012406
-0.0313976
-0.00252745
0.00327186
-0.0901901
-0.0503901
-0.039589
-0.000437631
-0.000664953
-0.0271797
-0.0572105
0.000432359
-0.0910349
-0.0533479
-0.0220896
-0.0901002
-0.0888308
0.000623821
-0.063296
-0.025495
-0.0901889
0.00137404
-0.00342224
0.000539106
-0.025606
-0.0187716
-0.0754083
0.00103464
0.000530627
0.000996223
-0.0607824
-0.0488814
-0.0904993
-0.0784703
-0.0219975
-0.0602152
-0.0304527
-0.0452097
-0.0718939
-0.0901525
-0.0134128
-0.0698204
-0.0386952
-0.025086
0.00261758
-0.0623552
-0.0488377
-0.0365642
-0.0646867
0.000635611
-0.0867544
0.000332718
-0.0404228
-0.0179201
-0.00589128
-0.0658027
-0.0461381
-0.0612761
-0.0303445
-0.0314692
-0.00403334
-0.0659825
-0.0496374
-0.0656043
0.00377863
-0.0895314
-0.0122012
-0.0652052
-0.0509114
-0.0822757
-0.0192402
0.000672276
-0.00358978
-0.0635011
0.00204373
-0.000291068
-0.000710295
-0.0243551
0.000684103
-0.0188125
-0.0833119
-0.0582058
-0.082157
-0.088431
-0.00646673
-0.0761784
-0.0680178
-0.0611361
-0.0901403
-0.0673647
-0.0102653
-0.0868109
-0.0385072
-0.0491605
-0.0599052
-0.0655861
0.000446351
-0.072434
-0.00666788
-0.0195632
-0.0445984
-0.0770722
-0.0583485
-0.0583791
-0.0250332
-0.0255484
-0.010681
-0.0641184
-0.0891415
-0.0127942
-0.0608111
0.00407493
-0.0205653
-0.0188922
-0.0693974
-0.0691023
-0.0217901
-0.0196996
-0.035208
-0.0130556
0.00847424
-0.0298559
0.00041891
-0.0225908
-0.00860854
-0.0698455
0.00525027
-0.0673713
-0.0218925
-0.0184837
-0.0718171
-0.066982
-0.0154594
-0.00357482
-0.0176679
-0.0427241
-0.00242872
0.000500872
-0.0325211
0.000136162
-0.00348018
-0.0174442
1.6378e-05
-0.018305
-0.0526509
-0.0108468
-0.067681
-0.0209146
-0.0123853
-0.064927
0.00202716
-0.039164
-0.000291705
-0.0201579
-0.000536702
-0.0186641
-0.00133445
-0.0330346
-0.0177919
-0.0690015
0.00287155
-0.0238911
-0.0279287
0.000446592
-0.0118347
-0.000492124
0.00402435
-0.0559422
-0.0901211
0.00244223
-0.0265882
-0.0172452
-0.0216296
-0.00395766
-0.0251181
-0.00914214
-0.0170285
-0.0720503
0.000503839
-0.0561097
-0.0703641
0.000515206
-0.00889907
-0.0051389
-0.0408296
-0.0457346
-0.00408009
-0.0382406
-0.0608321
-0.00112433
0.0014741
-0.0702676
0.000310226
0.00272261
0.000511104
0.000321953
-0.0026565
0.000683518
0.00320813
-0.0663727
-0.000813269
-0.0362154
-0.0193342
0.00783666
0.011634
-0.0479156
-0.0755059
-0.0898647
-0.0540445
-0.0460318
-0.0690523
-0.0605947
-0.000119467
-0.0295914
0.000952303
-0.010146
-0.00534149
-0.0295994
-0.0540113
0.00182711
-0.0196783
-0.0209857
-0.00101133
0.000816722
-0.0186396
0.00333516
0.000849058
0.00136546
-0.0815245
-0.071047
0.00775462
-0.0172169
0.00068134
-0.058212
-0.0706371
-0.066761
-0.0416644
-0.0607846
-0.0045621
-0.0599668
-0.0541365
0.00300654
-0.0144623
-0.0174366
4.18917e-05
-0.010969
-0.00748038
-0.00586026
-0.0292082
-0.0698276
-0.0568382
-0.0632327
0.00496278
-0.0486535
-0.0618844
-0.0162869
0.000633752
0.00140854
0.00052275
-0.0289689
0.00292448
-0.0474438
0.00577266
-0.0593278
-0.0430414
-0.0879364
-0.05123
-0.0658651
-0.057451
-0.0117961
0.000502872
0.00083156
-0.0157176
0.000636678
0.00601476
-0.0678425
-0.0613174
-0.0183814
-0.0202261
0.00179088
-0.0310404
-0.0485248
0.000535621
-0.00552771
-0.0639366
0.000172935
0.000248008
-0.0300571
-0.043389
-0.0261692
-0.061366
-0.069166
-0.0190596
-0.0651061
-0.059005
-0.0593635
0.000379522
-0.0215546
-0.00204676
-0.0273301
-0.0793533
0.000761436
-0.0912569
0.00133367
-0.00238356
-0.0194443
-0.0613486
-0.0517146
-0.0577766
0.000328511
8.03891e-05
-0.0164981
-0.0901813
-0.0228994
0.000959031
0.000249237
-0.0141528
-0.00571524
-0.000486398
0.000322347
-0.0574561
-0.0595887
-0.0625825
-0.0233783
-0.0627791
-0.0884632
-0.0618695
-0.0580159
-0.0513564
0.000336663
0.000368683
0.000172917
-0.0125775
-0.0635585
-0.0645718
0.000636793
-0.0916525
-0.0571173
-0.0528198
0.000535245
-0.016287
-0.0609253
-0.0695799
-0.0673545
-0.00557914
-0.0655981
0.000151729
-0.0619072
-0.0533471
0.00317015
-0.0594786
-0.0180086
-0.0618507
-0.0895329
-0.0199949
-0.0692827
-0.0113485
0.000878322
-0.0890807
-0.0585076
-0.0619883
-0.0295834
-0.0726024
-0.0627235
-0.0558973
-0.0610089
-0.0704447
-0.060235
-0.0613226
-0.0200638
0.00116516
-0.0521437
-0.0595504
0.00301628
-0.0581541
-0.000846073
-0.0436955
-0.0165006
-0.00067722
-0.0685726
-0.0185344
-0.0609148
-0.0672408
-0.0185659
-0.0471421
-0.0455451
-0.0583725
-0.0612764
-0.0494032
0.00361524
-0.00209878
-0.0624738
0.0013059
0.00104614
-0.0477173
-0.0330746
-0.0587057
-0.036382
-0.0134763
-0.0308723
0.000597016
-0.0485546
-0.0228798
-0.0605065
0.00247279
-0.00146095
-0.0541647
-0.0545298
0.000774848
-0.089754
-0.0631862
-0.0177815
-0.00333926
-0.0268621
-0.0579287
0.00507225
0.000629854
-0.0632911
-0.023633
-0.0610279
-0.063477
-0.0565697
0.00563066
-0.00225884
-0.0204431
-0.0502774
-0.0432219
-0.00311384
-0.0616779
-0.0611714
-0.00518263
-6.57311e-05
-0.0508209
-0.0207742
-0.070956
-0.0626556
0.00229564
-0.0865039
-0.060623
-0.0387784
-0.00177607
-0.0601503
-0.0575437
-0.0812705
-0.019506
0.000664571
-0.0526565
-0.0241982
-0.000768784
-0.00322608
0.00497203
-0.000618309
-0.00665176
-0.00121759
0.002661
-0.0407063
-0.0609545
-0.0553342
0.00181971
-0.0708011
-0.0650252
0.000236114
-0.0615464
-0.061292
-0.059891
0.000123506
-0.0490685
-0.0606675
-0.0891097
-0.0617389
-0.0604572
-0.00333542
-0.0588572
-0.0613346
-0.0632241
-0.00105623
-0.0530089
-0.0601184
-0.0176326
-0.0603217
-0.0845203
0.00275611
-0.0884393
-0.0594355
-0.0126853
-0.00193815
0.000833583
-0.0178604
0.00976208
0.000504417
-0.000945633
-0.0573701
-0.0612863
-0.00755648
-0.055514
-0.000965598
-0.0305017
-0.0893922
-0.0602216
-0.089546
-0.0491667
-0.0614859
-0.001264
0.000417336
-0.0421356
-0.0678677
-0.060576
-0.0609831
-0.0613539
-0.0311417
-0.000604735
-0.0177705
-0.030047
-0.0439601
-0.0820856
-0.0605156
-0.0319687
-0.067736
-0.0728497
0.00527766
-0.0861717
-0.0202516
-0.0384025
0.00558254
-0.0199276
0.000526072
-0.036138
-0.0355512
-0.0639332
-0.059243
0.000572299
-0.0602133
-0.0333421
-0.0336046
-0.0809521
-0.0291514
-0.0595454
-0.00209746
-0.0633699
-0.060435
-0.0616885
-0.0627251
0.00535515
-0.0619223
-0.0570948
-0.0575612
0.000408426
-0.062548
0.000692185
-0.00504265
-0.0170755
-0.0414443
-0.0574746
-0.0666175
0.00295002
-0.0891916
-0.041152
0.000630611
-0.00475333
-0.0196003
-0.00705494
-0.0494502
-0.058122
-0.0570062
-0.062486
0.00641704
-0.0118152
-0.0392784
-0.00186474
-0.0579435
-0.00706986
-0.00227407
-0.0389543
-0.0564392
-0.0144627
-0.0573561
-0.0491712
-0.0902315
-0.0257189
-0.0799039
-0.0628817
-0.0611822
0.00235868
-0.00149942
-0.0373649
-0.0200926
-0.0704084
-0.0892342
-0.0390272
-0.0659919
-0.0629989
-0.0616871
-0.0390057
-0.0225651
-0.00770062
-0.00666382
-0.0629108
-0.0226299
-0.0353584
-0.0354029
-0.034675
-0.0297799
-0.0895175
-0.0613692
-0.0161965
-0.0256574
-0.0436497
-0.0191256
0.000767555
-0.032662
-0.0527555
-0.000375879
-0.0890583
-0.0185205
-0.0582138
-0.0197932
-0.0058071
-0.0203863
-0.0596098
-0.0200691
-0.0541997
-0.0839174
-0.0375618
0.000909859
-0.0611603
-0.0308135
-0.0619557
0.00415496
-0.00821118
-0.0599761
0.0010918
-0.0546981
0.00239073
-0.00712599
0.000684368
-0.0190842
-0.0422246
-0.0247083
-0.0597804
-0.058805
-0.0216942
-0.0165864
-0.0766649
-0.0810775
-0.00397526
-0.0490701
0.000267873
-0.0368142
-0.0474775
-0.0605707
0.00808747
-0.0609934
-0.0156697
0.000647172
-0.0158408
-0.00469364
-0.0158267
-0.0114472
-0.0543475
0.00159012
-0.054976
-0.0156238
-0.0670781
-0.0610919
-0.0434032
-0.0313864
-0.0601269
-0.0614779
-0.0897114
-0.00526217
-0.03283
-0.059715
-0.0408041
0.000350748
-0.0640638
-0.0550594
0.00112955
-0.00668188
-0.060774
-0.0351245
-0.00361702
-0.0160032
-0.0490095
0.000444277
-0.0266188
-0.0504747
-0.0289462
-0.0328901
-0.00516977
-0.00529862
-0.0195726
-0.0708031
-0.00578045
-0.017465
-0.061881
0.000640002
0.00185773
-0.0544836
-0.0508304
-0.0572765
-0.0188931
-0.0347996
-0.0248619
0.000531865
-0.00406682
-0.0488506
-0.0360596
-0.05441
-0.0613363
-0.0399066
-0.0577659
-0.0395418
-0.0530968
-0.00626023
-0.00149869
-0.0520339
-0.0375149
-0.0102245
-0.0495184
-0.0114451
-0.03295
-0.0358167
0.00107625
0.00064422
-0.00346606
-0.0171306
-0.0080076
-0.0532925
-0.0520859
0.000586766
-0.0551229
-0.0474056
-0.0829983
-0.0358398
-0.0598867
-0.0424813
-0.0587932
-0.00255613
-0.055997
-0.0443999
-0.011699
-0.000947373
-0.0334283
-0.0474711
0.00781561
0.00195227
-0.0537416
-0.0581384
-0.0431562
0.00452213
0.0142561
-0.0703798
-0.0300304
-0.00929554
0.000553146
-0.000931512
-0.00827747
-0.0164988
0.00470754
-0.0107457
-0.0585496
-0.0330098
-0.0618495
-0.00506437
-0.00114067
-0.0191897
-0.0361371
-0.0202996
-3.25695e-06
-0.0393283
-0.00807309
-0.00528736
-0.0898895
-0.0357255
-0.0657235
0.00103831
-0.0237293
-0.0478489
-0.0633866
-0.035054
-0.0579731
-0.0333453
-0.0495795
-0.0229802
-0.00648748
-0.0841263
-0.0609187
0.00155589
-0.0160718
-0.0343151
-0.0134493
-0.00298065
-0.0615907
0.0011159
-0.0899497
-0.0622345
-0.0588735
0.00901246
0.0010307
-0.000123948
-0.0595284
-0.0313183
-0.0207568
-0.019152
-0.00235395
-0.017488
0.00309626
0.00585777
-0.0589333
-0.0144502
-0.0109607
-0.0705468
-0.0465274
-0.030651
-0.000732574
-0.0223438
0.000884948
-0.0222334
-0.058303
-0.000544351
-0.0367698
-0.0654242