/*--------------------------------*- C++ -*----------------------------------*\
| =========                 |                                                 |
| \\      /  F ield         | OpenFOAM: The Open Source CFD Toolbox           |
|  \\    /   O peration     | Version:  v2012                                 |
|   \\  /    A nd           | Website:  www.openfoam.com                      |
|    \\/     M anipulation  |                                                 |
\*---------------------------------------------------------------------------*/
FoamFile
{
    version     2.0;
    format      ascii;
    class       volVectorField;
    location    "200";
    object      ddt0(U);
}
// * * * * * * * * * * * * * * * * * * * * * * * * * * * * * * * * * * * * * //

dimensions      [0 1 -2 0 0 0 0];


internalField   nonuniform List<vector> 
13917
(
(0.00372271 0.000766633 -1.48214e-17)
(0.000468947 0.000545755 -2.50303e-19)
(0.00364828 -0.00754512 -1.62171e-18)
(0.000715452 -0.00242538 1.80216e-18)
(-8.12532e-05 0.000746316 5.00105e-18)
(-0.000128759 0.00803738 1.6185e-17)
(0.00909174 -0.00542861 2.96863e-18)
(0.00169725 -0.0088858 -1.19915e-18)
(-0.00338226 -0.0128764 5.63308e-18)
(0.00594045 0.0010884 3.0861e-17)
(8.57584e-05 -0.0065816 -1.92778e-17)
(0.00043734 -0.00499211 1.06771e-18)
(0.000939247 -0.00247336 1.83076e-18)
(1.08009e-05 -0.0019395 -5.56529e-18)
(0.00131875 0.00243311 8.88206e-18)
(0.00133567 0.00194248 3.22714e-18)
(0.000494679 0.000811465 3.13267e-18)
(0.00371872 -0.00410383 2.05306e-17)
(0.000373202 -0.00493612 -2.5011e-18)
(-0.000302966 0.000210475 -1.89515e-18)
(-1.16292e-05 0.000106717 9.96469e-19)
(0.00910242 -0.0053056 -2.91661e-18)
(-0.000188849 0.000410116 1.27615e-18)
(-0.000481998 -0.00891298 7.02999e-18)
(-0.000153973 0.000976879 5.48575e-19)
(0.00892587 -0.0040642 9.30121e-19)
(0.000422966 0.00464167 5.42448e-18)
(0.0012836 0.00517947 1.84043e-17)
(0.00228834 0.00844676 -9.91838e-19)
(0.00747555 -0.00187399 1.5824e-17)
(0.00427271 0.000269577 1.404e-17)
(0.00224571 0.000579885 4.25526e-18)
(0.000777395 0.00417384 4.25657e-18)
(8.60561e-05 0.00303098 -5.98952e-18)
(2.98429e-05 0.00111157 -5.23623e-18)
(-0.00150741 -0.0064476 -5.80872e-18)
(-0.000210475 0.000399828 4.76626e-19)
(0.000697067 -0.00472771 -2.12707e-18)
(0.00101838 -0.00290471 1.66765e-18)
(0.00853255 -0.00223721 1.6877e-17)
(-0.00055161 1.48777e-05 -9.05028e-19)
(4.54145e-05 3.88755e-05 -2.35257e-18)
(0.000140468 -0.00028563 -4.23444e-19)
(0.00158713 0.0061054 -1.66351e-17)
(0.000630611 -0.000459228 5.03104e-19)
(0.000268177 0.00332738 -3.26746e-17)
(0.00311271 -0.00410859 -2.40282e-17)
(0.00315459 -0.00574665 1.36599e-18)
(6.81181e-05 0.00989703 -4.5682e-17)
(-0.00058265 2.32504e-05 -3.38307e-20)
(0.00111054 -0.00245583 4.34696e-18)
(0.000120331 0.00197748 1.50305e-17)
(-0.00150573 0.0108732 6.46979e-17)
(0.000121701 0.00310071 -2.70583e-17)
(0.000507115 0.000852626 2.13093e-19)
(0.00220785 -0.00154071 -1.26044e-18)
(0.000127663 -0.00661044 1.42917e-17)
(0.000197667 0.00120893 -9.21546e-20)
(0.00174921 -0.000909642 1.60315e-18)
(0.000507736 -0.000416064 -4.15151e-19)
(-0.0345154 -0.00363447 3.28957e-17)
(0.000462772 0.00050063 7.64748e-19)
(0.000211568 -0.00129955 4.31994e-18)
(-0.000339384 0.000224825 -5.20985e-19)
(0.000211106 0.00744399 -1.45742e-18)
(-0.00832262 0.00269684 2.65094e-17)
(5.89903e-05 0.000822656 -1.95053e-18)
(8.10646e-05 0.00121254 9.73239e-18)
(0.00205463 -0.00820986 -5.74908e-18)
(0.0033893 0.00168175 -6.35434e-18)
(-4.38618e-05 0.000719148 -4.43802e-18)
(-0.00188579 -0.0135488 8.99836e-19)
(-0.0195696 -0.00342655 -1.86417e-17)
(-4.22099e-05 0.0009458 3.71569e-18)
(0.000702986 0.0101309 -4.74882e-17)
(0.00059644 -0.00491591 6.04416e-18)
(-0.013341 -0.00262362 -6.88199e-18)
(0.00132844 -0.00090683 9.99141e-19)
(0.00955221 -0.0035532 -3.00269e-18)
(-1.03023e-05 0.000205956 -9.47389e-20)
(-4.21792e-05 0.000233847 -4.26707e-18)
(8.22968e-05 0.000759854 4.25477e-18)
(0.000561388 0.00781357 -7.83978e-17)
(0.00134695 -0.00528183 2.60267e-18)
(-0.0178898 0.00273275 6.89306e-17)
(0.00115216 -0.000912203 5.80313e-18)
(-0.000111604 0.000253711 3.95105e-18)
(0.00435256 0.00682222 -4.07326e-17)
(0.00177814 -0.00239853 -1.84765e-18)
(0.000213867 -0.000312154 6.20074e-19)
(-0.0122812 -0.00476303 1.1198e-17)
(0.00704977 -8.14539e-06 -4.99391e-18)
(0.000189717 6.48424e-05 1.08982e-19)
(0.000735566 0.00198883 -3.05931e-18)
(-7.92092e-05 0.00575796 4.93099e-17)
(-8.39443e-05 0.0080615 2.01156e-17)
(0.00130649 -0.00695214 7.65601e-18)
(0.00338857 -0.00528879 1.0587e-18)
(2.70345e-05 -0.00509737 -5.81913e-18)
(0.000920678 0.00629952 -2.81866e-17)
(-0.000304965 4.7169e-05 7.30323e-19)
(6.69048e-05 0.00404281 1.22043e-17)
(0.00148827 0.00601964 -1.75714e-17)
(0.00140271 -0.00138765 -9.10552e-19)
(-0.000143286 1.70539e-05 -6.11553e-19)
(-0.00305491 -0.0145428 -4.94832e-18)
(0.00267505 0.00799416 -2.13338e-17)
(0.00317625 -0.00588858 4.42954e-18)
(0.000571014 0.00076525 4.77738e-20)
(0.00454012 0.000700339 -5.95018e-18)
(-0.0245578 0.00348381 2.87609e-17)
(0.00867019 -0.00230382 -1.4011e-17)
(0.000653582 -0.00518054 -6.42624e-18)
(-0.00393823 -0.0140798 -6.00581e-18)
(0.000215296 0.00234685 -1.63041e-17)
(-0.000756778 0.0104258 8.97343e-17)
(-0.000189101 0.000652016 5.0336e-19)
(0.000126844 0.00942689 -2.72127e-17)
(0.00771276 -0.0024698 8.85022e-18)
(0.000307259 0.00307876 -1.05439e-17)
(4.50461e-05 7.7984e-05 -8.72569e-19)
(0.00290988 -0.00820244 1.19183e-17)
(0.00615858 -0.00280126 8.89562e-18)
(0.00110202 0.0050784 -1.80345e-17)
(-0.000576178 1.74889e-05 9.64297e-19)
(0.000670784 0.00194173 3.22406e-18)
(0.000493606 -0.000222917 -1.22527e-18)
(-0.000619567 1.50153e-05 6.88978e-19)
(7.52673e-05 -0.000118722 -5.74852e-20)
(-6.11869e-05 0.00805148 3.09591e-20)
(0.00760184 -0.00368798 -5.63212e-18)
(0.000201367 0.00230992 7.0921e-18)
(0.000663303 -0.000444999 -3.29216e-18)
(1.60341e-05 8.74999e-05 -1.2216e-18)
(0.00965371 -0.00843187 3.02463e-18)
(-0.00114524 -0.00867637 -6.28722e-18)
(0.00372601 0.000931756 1.62073e-17)
(0.000614581 0.00654166 5.20516e-17)
(7.90388e-05 0.000815936 5.75913e-18)
(0.000257545 0.00306045 -1.85807e-17)
(-0.00132223 -0.00663757 -5.59934e-18)
(0.000222354 -0.000249473 4.91453e-19)
(0.000257987 0.00207532 7.57522e-18)
(0.00155691 0.00647826 -2.59083e-18)
(8.5588e-05 0.00123037 -1.10414e-17)
(0.00250127 -0.0136013 -7.74031e-18)
(0.00224206 0.00841442 -1.24462e-18)
(0.000159606 0.00194435 -5.32877e-18)
(0.000219311 -0.000246708 -1.03978e-20)
(0.00233217 0.000907597 3.6818e-18)
(0.00180049 -0.00521182 -2.44284e-17)
(-0.000173074 0.0105118 5.19191e-17)
(0.00070894 -0.00585385 -4.16859e-18)
(0.00306834 0.0030126 -3.57493e-19)
(0.00218919 -0.000496338 -3.93772e-18)
(-0.0119061 2.46881e-05 -1.00575e-16)
(0.00318882 0.00167551 6.65272e-18)
(-0.000515025 -0.0090855 8.85141e-18)
(-0.0138446 -0.00221342 3.74731e-18)
(0.0101 -0.00810065 4.13595e-18)
(0.000601926 0.00260104 4.38246e-18)
(-0.000158913 0.00456137 -7.42532e-18)
(5.58119e-05 0.000176625 2.27685e-20)
(0.000849372 -0.00680727 -1.10949e-17)
(0.00051731 -0.00519068 -3.66025e-18)
(-1.28758e-05 -0.00512316 5.40018e-18)
(0.00141784 -0.00133013 -1.05293e-19)
(0.00253242 -0.00534498 -7.64004e-18)
(0.000406981 -0.000314497 1.10354e-18)
(-9.12655e-06 0.00407661 3.14161e-17)
(0.00320778 0.00265521 1.11531e-18)
(-0.0173984 0.00245951 -4.43601e-17)
(0.000552878 -0.00512869 -1.65508e-17)
(0.000738546 0.00102421 -1.59101e-19)
(0.00140079 -0.0114927 4.81857e-18)
(0.00303175 0.00344342 7.80211e-20)
(0.00768181 -0.00388687 2.27556e-18)
(0.000147972 0.00942563 1.88285e-17)
(0.00257539 -0.0133819 5.30439e-18)
(1.49067e-05 0.000531972 -7.92833e-20)
(0.00720538 -0.000265757 8.60441e-18)
(0.00444015 0.000111426 4.30818e-18)
(0.000221576 -0.000277988 -1.68165e-19)
(-0.000124933 0.000276997 -7.8899e-19)
(0.00146329 0.00319846 6.46958e-18)
(0.0080392 -0.0042899 1.16793e-18)
(0.0110309 -0.000362375 1.19497e-17)
(-0.0212724 -0.00203926 3.51763e-17)
(0.00331728 -0.00236124 5.212e-18)
(0.000287944 -0.00544287 -1.61306e-19)
(-0.000476168 -0.00774742 3.9831e-18)
(-0.0228397 0.00243957 -1.96808e-16)
(0.0102649 0.00103611 2.12557e-17)
(-0.000216573 0.000506092 -4.33217e-18)
(0.000449103 0.00644552 5.13583e-17)
(0.000478097 0.00452698 -2.34066e-17)
(-0.000456719 1.87924e-06 1.41136e-19)
(7.93275e-05 8.06648e-05 3.99992e-19)
(0.00292083 0.00727757 8.09595e-19)
(0.00875882 0.00940691 -3.25292e-18)
(0.00149176 -0.00282741 8.86863e-19)
(-0.000599201 2.1202e-05 -6.67658e-19)
(0.0025835 -0.00509738 1.21051e-17)
(0.00174982 -0.00513642 2.13737e-17)
(-0.0199025 -0.00270569 2.346e-18)
(0.0067876 -0.011026 2.36402e-17)
(2.16014e-07 0.00109072 5.45107e-18)
(0.000192086 0.00124224 -2.9976e-18)
(0.0032541 -0.00528051 -4.8226e-18)
(0.0061388 -0.005265 -8.40171e-18)
(0.000250352 0.00204232 -1.07729e-17)
(0.00900712 -0.00580578 3.03375e-18)
(-0.020501 -0.00163261 -3.92229e-18)
(0.000191347 -0.00547455 -6.10932e-20)
(-8.75811e-05 4.05306e-05 -3.84939e-19)
(0.00197216 0.00861204 -1.03594e-17)
(0.00276131 -0.00493536 -5.1098e-19)
(-0.0258965 0.00151373 1.55228e-17)
(-9.37275e-05 0.000709196 -2.4841e-18)
(-0.0228404 -0.00303674 5.8658e-17)
(2.41745e-05 0.000529192 6.92256e-19)
(0.00699984 -0.00283872 -1.13932e-17)
(-0.000558154 1.76636e-05 -1.90269e-19)
(-0.00171851 -0.0050548 1.10298e-18)
(-0.00421712 -0.014519 1.33308e-17)
(0.00143303 0.00195987 2.30303e-18)
(0.00716413 0.00823797 2.78924e-17)
(0.00237449 -0.000605916 -3.56086e-18)
(-0.000141418 5.27686e-05 -1.83287e-19)
(-0.0014306 -0.00634869 4.34764e-18)
(0.000442221 -0.00508701 1.82996e-17)
(0.00318882 -0.00242393 -1.70937e-18)
(-0.00116702 -0.0080029 1.85573e-18)
(-0.0205065 -0.00112932 -3.83671e-18)
(-0.000303891 -2.43482e-06 9.39165e-19)
(0.0024009 0.000549195 -9.67669e-19)
(-0.0118261 -0.00552651 -5.50334e-18)
(-0.00899146 0.00229032 1.15846e-17)
(-9.58628e-05 0.000204651 2.91437e-19)
(-0.000340982 0.00025763 1.7582e-18)
(0.00850297 -0.0023558 7.91795e-18)
(0.0012442 -0.0073145 1.64453e-17)
(-5.91379e-05 6.40485e-06 -2.1698e-19)
(-0.000987299 -0.00594321 2.55591e-18)
(0.00538617 -0.00569422 -1.98949e-17)
(-0.000303797 0.00455593 1.33414e-17)
(0.00362175 0.000419375 1.79212e-18)
(-1.17699e-05 0.000181779 -3.29765e-20)
(0.00266095 0.0037856 4.24828e-18)
(-0.0181433 -0.00172221 -7.00411e-18)
(0.000629215 -0.00127295 -3.24049e-18)
(0.00799149 0.000182566 -1.16509e-18)
(0.00110613 0.00662871 -1.13662e-17)
(0.000557192 -0.000234483 -3.09242e-19)
(0.000162168 0.00120954 7.64616e-18)
(0.00147814 -0.00544102 -8.47651e-19)
(0.0083092 -0.00244092 -6.6185e-19)
(0.00103074 -0.00577575 -1.09651e-17)
(0.00154163 0.00324026 -1.25449e-18)
(0.00134339 0.00241879 -9.98378e-18)
(-2.81704e-05 1.1336e-05 8.83742e-19)
(0.00633873 -0.00241407 -1.01558e-17)
(0.0092081 -0.0127169 2.76539e-17)
(-0.00112591 -0.00527324 -1.41491e-18)
(-0.000211159 7.6884e-05 9.29364e-19)
(-0.0247664 -0.00237151 -6.87279e-20)
(-0.00174188 -0.00235768 5.39602e-18)
(-0.000803171 -0.00912509 -9.87264e-18)
(0.00928301 -0.0034259 3.01856e-18)
(0.000692045 -0.00495348 -4.33803e-18)
(-2.26016e-06 0.000222436 3.99953e-18)
(-0.00060678 1.86208e-05 -6.97364e-20)
(0.0033127 -0.00431284 -4.19027e-18)
(-0.00580735 -0.00405723 1.58082e-17)
(0.00337088 -0.00737237 3.66745e-18)
(0.00179719 -0.000928705 4.83315e-18)
(0.0066201 -0.0112268 9.24877e-19)
(0.00092328 -0.00429044 -4.36878e-19)
(7.7225e-05 -8.78629e-05 -3.9145e-19)
(0.018813 -0.00500814 4.75623e-18)
(-0.000330621 0.000187651 -4.15724e-19)
(0.00123948 -0.0114383 -1.38944e-17)
(0.00145244 -0.00275536 2.93716e-18)
(-0.000162846 6.51785e-06 -4.95424e-19)
(0.00165924 0.00213762 2.36279e-18)
(0.00279696 0.0030531 2.44846e-19)
(-0.000159087 0.00455745 -1.37444e-18)
(-0.00126434 -0.00601971 -2.29222e-18)
(0.00209813 0.00274063 -2.64097e-18)
(0.000705255 -0.00112937 -6.02314e-18)
(0.0116474 -0.00706395 2.46032e-17)
(-0.0015213 -0.00810606 4.19404e-19)
(-0.00138979 -0.0124425 -2.3628e-18)
(-0.000110024 0.000703255 2.61341e-18)
(-0.000210907 -0.0095998 2.16103e-18)
(5.49528e-05 0.000527352 -1.08876e-19)
(0.0006847 -0.00116752 5.29621e-18)
(-0.000191129 0.000620635 -4.47705e-18)
(0.00221916 0.00872777 -1.83342e-19)
(-0.000532176 3.21099e-05 -3.63512e-18)
(0.00722089 -0.00292449 1.40847e-17)
(0.00353556 0.000492997 5.63109e-18)
(0.000407422 -0.000325543 -1.53292e-19)
(0.00252008 -0.00519021 -1.30178e-17)
(0.00100066 0.00037836 -3.10371e-19)
(-0.000217289 0.00964276 7.13305e-18)
(0.00302083 0.00338925 3.54937e-19)
(0.00673635 -5.38583e-05 1.77558e-17)
(0.000386617 -0.000432925 6.86263e-19)
(0.000151546 0.00117333 -3.08316e-18)
(-0.0219237 0.00326611 -1.10883e-16)
(0.00469444 -0.00276975 2.61764e-18)
(-0.000164327 0.00066095 -3.04717e-18)
(-0.000565905 1.71844e-05 1.95475e-18)
(0.0217208 -0.00456539 1.82563e-18)
(8.08035e-05 0.000375994 7.20428e-19)
(-0.0186949 -0.00402949 1.27852e-17)
(0.000359215 -0.000407748 6.12781e-19)
(-0.0013783 -0.00543023 1.07926e-18)
(0.000763206 -0.00186863 4.17809e-19)
(0.00814681 0.00558157 2.79763e-17)
(0.00233582 -0.00348886 -1.09364e-17)
(0.00110332 0.00977986 4.89231e-17)
(0.000612908 0.00253665 -1.23464e-17)
(0.00946634 -0.00781593 2.36703e-17)
(0.00202649 0.00785042 6.0475e-18)
(0.00166564 0.00204961 6.63889e-19)
(0.00141373 -0.00734411 -9.19706e-18)
(0.00340304 0.00786341 1.01289e-17)
(0.000463582 0.00134675 -2.2261e-18)
(0.00512398 -0.00420889 -1.80088e-18)
(0.000215117 0.00635803 -1.091e-17)
(-0.0022551 -0.00260341 -4.32543e-18)
(0.000345568 0.00284506 -6.22754e-18)
(0.00881682 -0.00219527 6.40468e-18)
(0.00247646 0.000369237 -5.31691e-19)
(-0.0264334 0.00210446 -3.67848e-17)
(0.00151517 0.00748895 -1.00898e-16)
(0.00282628 0.00612156 -8.5028e-18)
(0.00271506 0.00594821 -3.229e-18)
(0.00639929 -0.00722072 3.50223e-18)
(-6.11219e-05 0.000287399 4.73046e-18)
(0.00357255 0.00268065 -3.06215e-18)
(-0.0249491 0.00306427 -4.36439e-17)
(0.000270901 0.00159137 -4.74643e-18)
(0.0010019 0.0015238 -5.35195e-18)
(-0.000323238 -0.00254288 8.42739e-19)
(0.00254247 0.00753931 -8.7738e-18)
(0.000711229 0.000837625 -2.37348e-19)
(-0.000462352 -0.00766596 1.65686e-17)
(0.00241629 0.00847789 6.63154e-19)
(-0.00037056 7.72695e-05 -8.59619e-19)
(0.0074662 -0.00228516 -9.67493e-18)
(-0.00104451 -0.00701194 -5.96629e-18)
(-0.000359094 0.000200362 -6.2033e-19)
(-0.000231815 0.000292753 8.39875e-19)
(0.000125823 0.000499911 7.69619e-19)
(0.000174421 -0.000279131 6.32636e-19)
(0.0111981 -0.0072083 1.07664e-17)
(0.00232842 -0.0128043 -1.6915e-17)
(-0.00140891 0.00819635 -4.93537e-18)
(-0.0232084 0.00361796 -1.54768e-17)
(-0.000116404 0.000823878 -3.13572e-18)
(0.00870892 0.000144203 1.50365e-17)
(-0.00185937 0.00152474 9.94686e-17)
(0.00209378 -0.00435004 -4.89873e-19)
(0.0096415 -0.00557523 -4.05736e-18)
(-0.00512152 -0.00469988 -2.01821e-18)
(-0.00531033 -0.0143003 1.13879e-17)
(-0.000367238 -1.36193e-05 8.4988e-19)
(-0.000916962 -0.00525954 -3.25973e-18)
(-0.000312963 0.000236794 -9.65016e-19)
(-0.00662601 -0.00201749 -8.96304e-18)
(0.000530272 -0.000368686 1.66624e-18)
(0.00146416 0.0101947 -3.29316e-17)
(0.00551755 -0.00565717 1.31289e-17)
(0.00103244 -0.00266138 5.2543e-18)
(-0.000109829 0.000350142 -3.15029e-18)
(0.00303193 -0.00512105 -1.33745e-17)
(0.0076329 -0.000272098 2.56271e-17)
(0.0037236 -0.00530976 -1.12991e-17)
(0.00400361 0.0132238 1.13683e-17)
(-0.0215511 0.00236346 -6.60544e-17)
(-0.0263484 0.00139022 -4.08114e-17)
(0.00285756 0.00393957 -2.14681e-19)
(0.00563118 0.00104327 -2.31896e-17)
(-0.000361796 0.000249349 -1.62521e-18)
(-0.011113 0.00236845 -2.13722e-17)
(0.00917559 -0.00464295 8.08958e-18)
(0.000212441 0.00111904 5.63287e-18)
(0.0109911 -0.00781987 -2.11034e-17)
(-3.73077e-05 0.000868381 -1.04572e-20)
(0.00730033 -0.00930406 -1.94788e-17)
(0.000783589 -0.00184319 -3.96885e-20)
(-7.12013e-05 0.000249307 3.318e-18)
(0.00110313 0.000568266 8.874e-20)
(0.00866435 -0.00306023 3.0634e-18)
(0.00114014 0.000601521 -3.01672e-21)
(0.00849745 -0.00249532 2.45503e-18)
(-0.0108639 -0.00107392 6.23398e-17)
(-4.45757e-05 -0.0061067 -2.57322e-18)
(0.00148751 0.00807557 1.50878e-16)
(0.000456045 0.00129297 -3.94951e-18)
(0.001635 0.00832974 6.80644e-18)
(0.00148681 0.00809137 1.47734e-17)
(-0.000247446 0.000435992 6.53505e-19)
(0.00251855 0.00766992 1.06952e-17)
(0.000236034 0.00156919 8.65399e-18)
(-2.98455e-05 0.000976756 4.14135e-18)
(0.00745605 -0.00163345 1.51868e-17)
(-9.86779e-05 1.71838e-05 -2.88273e-18)
(3.33047e-05 0.00103218 8.3416e-20)
(-0.000207813 0.000224265 2.22624e-18)
(0.0100877 -0.00688468 -1.16138e-17)
(-7.89831e-06 0.000165897 -1.37255e-18)
(0.00898399 -0.002294 -3.49908e-18)
(0.00768362 -0.00346042 -5.20931e-18)
(-0.000249289 -6.29559e-05 8.21946e-19)
(0.0101419 0.00127154 -3.67473e-17)
(0.0088357 -0.00262705 6.48727e-19)
(-0.0273869 0.000480351 1.88849e-17)
(0.00217664 -0.00430446 5.56889e-18)
(-0.000127467 0.000785958 2.88315e-18)
(0.00765061 -0.00668584 -7.04726e-18)
(0.000997702 -0.00283872 -2.21937e-18)
(0.00253859 0.000591285 5.24207e-18)
(-0.00019541 0.00052498 1.00007e-17)
(0.00216347 -0.013327 7.40358e-18)
(0.00831079 -0.00499103 4.24793e-19)
(0.00642202 -0.00358598 -1.12222e-17)
(0.00126692 0.00209634 -4.73215e-18)
(0.00533399 -0.00639338 5.7505e-18)
(0.000252605 0.00277774 -7.43625e-18)
(0.00101989 -0.00296336 2.99835e-18)
(0.00404798 -0.00531361 7.01104e-18)
(0.000919446 0.000934136 -1.71767e-18)
(-0.000773945 -0.00511825 -9.09909e-18)
(0.000521584 0.000706504 7.95209e-20)
(-0.000497993 3.7972e-05 3.29921e-21)
(-0.0182787 -0.00483637 3.25985e-18)
(0.0076833 -0.00369093 5.47436e-18)
(0.00780902 -0.00381871 -3.49621e-18)
(0.00763475 0.00258693 1.95578e-17)
(0.000696934 -0.000286288 1.33381e-17)
(0.00554965 -0.00467251 -3.81403e-18)
(-0.0281653 -0.000437502 -1.59041e-17)
(-0.00903019 -0.00259681 1.69735e-18)
(-6.64343e-06 -9.66896e-05 -4.1658e-20)
(0.00337054 -0.00480038 8.10844e-18)
(0.000922646 0.000908935 1.87216e-18)
(0.000274703 0.00133097 1.55503e-18)
(0.00795092 -0.0105972 2.625e-17)
(0.00311768 -0.00428637 1.58597e-17)
(0.000300825 -5.45731e-05 -5.25985e-19)
(0.00521406 -0.00319187 8.93538e-18)
(0.00240193 -0.0040864 -9.10632e-19)
(-0.00774665 -0.0025406 -5.30354e-18)
(-0.000219481 0.000442297 -4.36931e-18)
(0.00250474 -0.00721643 -4.13593e-18)
(-0.0172542 -0.00750197 -2.6207e-17)
(0.00861088 0.00625381 -3.01705e-17)
(0.00873624 -0.00243211 -5.81457e-18)
(-1.33213e-05 0.000150694 -1.88154e-18)
(0.00014706 0.00117209 1.1848e-18)
(-0.000335474 -4.59619e-08 -3.44404e-21)
(0.00307339 0.00182857 -6.69361e-18)
(-0.000197162 -1.7084e-05 -7.22096e-19)
(0.00651976 -0.00422559 1.59813e-17)
(-0.00118728 0.007968 -7.08457e-17)
(0.00216559 0.00261512 -6.51536e-19)
(-0.0138443 0.00102881 -1.70265e-17)
(0.00222525 -0.00160983 1.53674e-17)
(0.000628951 -0.00678623 9.75624e-18)
(-0.0295464 -0.000927017 -1.47924e-17)
(0.00254622 0.00876765 3.78256e-18)
(5.92148e-05 -0.00602462 -2.7456e-18)
(-0.0013414 -0.0067515 4.08153e-18)
(0.00290819 -0.00727642 4.09375e-18)
(0.00597507 -0.00234565 2.72277e-18)
(0.00630928 -0.00747229 -5.95886e-18)
(0.00122581 -0.00445879 -7.41656e-19)
(-0.000342001 -0.00574384 -8.07754e-18)
(0.000232361 0.0075803 3.58774e-17)
(0.00115059 -0.0046005 -2.81444e-18)
(0.00288979 -0.00629003 -6.67363e-18)
(-0.000127793 -1.41014e-05 2.54116e-19)
(0.00944374 -0.00965027 1.34416e-17)
(0.00238803 -0.00243932 -1.32733e-18)
(0.000293761 -0.000780594 2.14546e-19)
(0.00274005 0.00180131 2.291e-18)
(0.00126543 -0.00105351 4.70783e-18)
(-0.00802637 -0.00271993 5.0446e-18)
(-0.00335534 -0.0140781 -1.17422e-18)
(7.13386e-05 0.000383736 1.37998e-18)
(6.80203e-05 -7.05916e-05 6.68886e-21)
(0.00316364 -0.00522473 -8.97666e-19)
(-0.0276047 5.21794e-05 -1.70722e-17)
(-0.00013684 1.28993e-05 -8.24007e-20)
(0.00879957 -0.0022837 -6.33703e-18)
(0.00106043 -0.00182806 5.48701e-19)
(0.00986594 0.000675577 6.91473e-19)
(7.23726e-06 0.000449731 -8.63393e-19)
(-0.0224711 -0.00222318 2.26541e-18)
(0.00189462 -0.0105632 -2.07714e-17)
(0.00224502 0.000791781 8.13341e-19)
(0.000791369 -4.93591e-05 -9.99342e-19)
(0.00890691 -0.00274437 -8.42232e-18)
(0.0103303 -0.000384965 2.71063e-17)
(-0.00290269 0.00134208 4.80351e-17)
(-1.91156e-05 1.55084e-05 2.51836e-18)
(-0.0195407 -0.00191888 -1.52559e-17)
(-0.000113057 0.00890694 -1.18232e-16)
(0.0190265 -0.00380344 4.49351e-18)
(0.000245119 -0.000770789 -8.42513e-19)
(-0.013666 0.00309195 -8.47361e-17)
(-0.0202808 -0.00940916 -1.9954e-17)
(0.00216678 -0.00440324 3.71302e-18)
(-0.000200606 0.000276895 1.06255e-19)
(0.00062628 0.00100358 3.76466e-18)
(0.000701282 -0.00489885 2.3591e-18)
(0.00756242 -0.00965795 -5.39237e-18)
(0.000396778 -7.16863e-05 8.97325e-19)
(-0.000254349 0.000286892 -1.16963e-18)
(-0.000494893 6.36476e-05 -5.42421e-19)
(-0.000487353 6.47748e-05 1.42605e-18)
(-0.0246023 -0.00214063 -1.8045e-17)
(0.00824685 -0.010348 1.14816e-17)
(0.00206008 -0.004333 -7.46725e-18)
(0.0113061 -0.00087705 2.07751e-17)
(-0.000536383 1.46677e-05 1.60973e-20)
(-0.000321824 5.27803e-05 -7.60333e-19)
(0.00529162 -0.00636997 -1.57944e-18)
(-0.020279 -0.0105412 -2.88148e-18)
(0.00315221 -0.00167233 -1.30704e-18)
(0.000360111 -0.000340003 -1.64653e-18)
(-4.26108e-05 0.000968386 -8.28664e-19)
(9.68538e-05 0.000976694 -2.48085e-18)
(0.0177733 -0.00420779 4.22921e-17)
(-0.0301623 0.00219375 1.38448e-16)
(-0.000186948 0.000221887 4.70003e-19)
(1.05387e-05 0.000972666 3.5991e-18)
(-0.000915364 -0.00517251 6.54007e-18)
(0.0013243 -0.00442368 9.93914e-18)
(0.00221925 -0.00351852 -5.88142e-18)
(0.000198914 0.00118513 -8.39549e-18)
(0.000949236 0.000736015 -1.65551e-19)
(0.00194713 0.0010393 5.70064e-19)
(0.00270381 -0.00621864 -1.3483e-17)
(0.00317525 0.00765423 -2.61458e-18)
(0.0113488 -0.000537387 -2.75153e-17)
(0.00790818 -0.00699271 8.33166e-18)
(0.00391408 -0.00666903 2.15105e-17)
(0.00626424 -0.0111921 -2.0751e-17)
(0.00664822 -0.000294717 2.58621e-18)
(-0.000110259 0.000720559 -2.89081e-18)
(-0.0185089 -0.00212136 1.00177e-17)
(9.94153e-05 0.000962766 -5.53228e-19)
(0.00115694 0.00155907 5.12151e-18)
(0.00101929 -0.00242722 1.02703e-18)
(0.00924816 -0.00982239 6.52412e-18)
(0.00315306 0.00501643 4.0506e-19)
(-0.00043689 1.3485e-05 1.04753e-18)
(0.00923932 0.00584369 5.40395e-17)
(0.00786598 -0.00230492 1.96864e-20)
(-0.0115128 -0.00803209 -3.52785e-19)
(0.00405402 -0.00660801 -2.48305e-18)
(0.00146939 0.00399435 -3.60774e-17)
(0.00239102 -0.00420907 4.47325e-18)
(-0.000112016 0.000387386 8.60189e-19)
(-0.00675074 -0.0123641 -1.06111e-17)
(0.00855904 0.00540195 -1.53034e-17)
(0.00835522 -0.00676072 8.16195e-18)
(0.000566577 0.000693507 1.10891e-18)
(0.00209393 -0.00178606 -1.48185e-17)
(0.0109851 -0.00107498 -1.31404e-17)
(-0.00525146 -0.00502083 -2.50129e-18)
(-0.0201469 0.00206157 -9.8487e-18)
(0.00334617 -0.00545675 -4.60842e-18)
(0.008245 0.00263215 -2.44618e-17)
(0.00129656 0.00200978 -7.15401e-18)
(0.00141094 -0.000156114 -2.77661e-18)
(0.000264487 0.00121883 1.89292e-18)
(0.00217396 0.00497237 1.70903e-17)
(0.00128972 0.00619802 -3.53958e-17)
(5.19293e-05 0.00176217 -1.13863e-17)
(0.00263511 -0.00491118 3.42505e-18)
(0.00110344 0.00658207 -8.30326e-17)
(0.0081004 -0.00708828 -3.61987e-18)
(-0.00343391 0.00138909 8.33471e-18)
(0.00134644 0.000871738 -1.0082e-20)
(0.000812901 -0.00667021 -1.50493e-17)
(0.00154762 -0.010354 1.59322e-17)
(0.00179623 0.0021693 4.65094e-18)
(0.000372918 0.0019659 -2.938e-18)
(0.00188796 0.0099565 -3.42726e-18)
(0.00822048 -0.0153743 1.27364e-18)
(0.00119074 -0.012314 -9.78087e-18)
(0.0106202 -0.00160054 -1.80618e-17)
(3.59991e-05 -0.00012521 1.38305e-20)
(0.00729313 -0.0024332 1.67919e-17)
(0.000730724 -0.00488688 -2.85903e-18)
(-0.000521032 1.13819e-05 -9.30602e-19)
(0.0028147 -0.000597167 -1.81022e-17)
(0.00162895 -0.00600778 -8.7447e-18)
(0.00086609 0.00408139 -3.07511e-17)
(0.00724064 -0.00203226 -1.98307e-17)
(0.00933651 -0.00360848 -3.58747e-19)
(0.00599929 -0.00739636 -3.16671e-18)
(0.00148288 -0.00419154 4.95574e-18)
(-0.00657441 -0.012529 3.39493e-18)
(0.00144354 -0.000919623 -3.35715e-18)
(-0.00952303 -0.00221203 -2.34383e-18)
(-3.08081e-05 0.000184114 -6.82417e-19)
(-0.000183864 0.000237389 -1.8067e-18)
(-2.04924e-05 -0.00957039 -1.15786e-17)
(0.00702157 -0.0156505 -8.80812e-18)
(0.00092615 0.00820327 1.32283e-16)
(0.00139249 -0.000986696 6.94484e-18)
(0.000701743 0.000958006 -1.65226e-18)
(1.24372e-05 0.000948938 -1.31986e-18)
(0.000936213 -0.00433693 1.68658e-18)
(0.000971691 0.0103925 -7.20142e-17)
(0.000305332 -0.00512014 4.54855e-18)
(0.00151711 -0.000206755 1.54934e-18)
(0.000207677 -0.00599104 -8.13501e-18)
(0.00285947 -0.00510528 1.05913e-17)
(7.64205e-05 0.000466363 1.84271e-18)
(0.00638328 0.00811182 -5.97103e-17)
(0.00031226 -0.00508972 1.27741e-18)
(-0.000327659 -0.0047174 1.24113e-18)
(-0.000119822 0.000689056 -4.76915e-18)
(0.00556394 -0.00750686 -1.62678e-18)
(0.00129601 -0.000960469 -4.62897e-18)
(-0.0162202 -0.00373899 -2.58729e-17)
(0.00609635 0.000918241 -3.00348e-17)
(0.00324792 0.00485642 -9.98709e-20)
(0.00258667 -0.00173431 1.70523e-17)
(-0.000466518 5.34902e-05 -7.38154e-19)
(0.000278422 -0.000587795 -4.18342e-19)
(0.000529895 -0.000235058 -7.52268e-20)
(0.00307547 0.00595158 3.3459e-19)
(0.000346205 0.00336651 3.01313e-17)
(0.0107031 -0.00481123 3.57079e-17)
(0.00204314 0.00950914 9.97191e-18)
(0.00259089 -0.00524244 7.40374e-18)
(-0.000380705 8.55833e-05 -3.40717e-19)
(0.00631389 -0.00701591 -2.04533e-17)
(0.0011791 0.0084562 -8.91014e-17)
(-0.0011054 -0.00692839 -1.35726e-17)
(0.000569072 -0.00122523 4.40342e-18)
(0.000411534 0.0032213 -1.01424e-17)
(-0.00022777 0.000301635 2.55673e-20)
(0.00128368 -0.00341265 3.11724e-18)
(0.00190704 -0.000978208 -2.07122e-18)
(-0.021082 -0.00944603 -5.58239e-18)
(-6.67947e-05 0.000233633 -1.11968e-18)
(0.0123831 0.0111468 1.19175e-17)
(0.00143223 -0.00335284 -5.34015e-18)
(5.54474e-05 -0.00646642 5.05728e-18)
(0.00710035 0.000470073 -4.13771e-17)
(-0.021148 -0.00311505 1.7646e-17)
(0.00358436 0.00473587 -4.96711e-18)
(0.000494694 0.000983916 -3.36065e-18)
(-0.00802873 -0.00366828 4.56355e-18)
(-0.0272012 0.000414268 -3.76737e-18)
(0.00025429 0.000916162 -6.32376e-18)
(0.00095179 -0.00242079 4.93578e-18)
(0.00316142 -0.0110241 -4.99397e-18)
(0.0104141 -0.00143468 1.00059e-17)
(0.00312613 -0.0072753 8.02513e-20)
(-0.000201802 1.86837e-05 -3.18116e-18)
(0.000794471 -9.05081e-05 -1.06663e-18)
(0.00783138 0.00535678 3.37944e-17)
(0.00108921 -0.00271783 -2.96462e-18)
(0.00379236 -0.00511534 1.0763e-17)
(0.00124123 -0.00535021 1.29544e-17)
(0.000393328 -0.000620729 -1.09465e-18)
(0.00165894 -0.0051359 -5.11288e-18)
(0.00299869 -0.00775727 -8.1396e-19)
(0.000569136 -0.00126343 2.24792e-18)
(0.000909755 -0.00217406 8.9457e-19)
(-0.000481523 7.1272e-05 -5.79903e-19)
(0.00501091 -0.00264623 -5.56022e-18)
(1.64976e-05 0.000113675 8.60986e-20)
(0.00113378 0.00204513 -1.90559e-18)
(-0.0170524 0.00246115 2.65718e-17)
(0.000910918 0.00168812 -2.73878e-18)
(0.00907404 -0.0150011 1.8539e-17)
(0.00217717 -0.000396121 7.72105e-18)
(0.000908913 0.00425307 5.61799e-17)
(-0.000461579 7.15838e-05 -1.29892e-18)
(0.00308953 0.00362287 -1.94187e-18)
(-0.000181233 0.000611484 -1.42702e-18)
(0.00559803 -0.0019548 -4.6997e-18)
(-0.000497032 3.26911e-05 -3.51537e-19)
(0.00497556 0.00423368 1.30183e-17)
(0.00108765 -0.00178847 1.31459e-18)
(-0.0273974 -0.0106077 3.72931e-17)
(0.00239085 0.0100881 -5.84156e-17)
(-0.0208099 -0.0102588 -5.54131e-18)
(-0.000389308 3.14918e-07 -9.71102e-19)
(-9.39649e-05 0.000323168 -4.78431e-18)
(0.00641899 -0.000331634 -3.49154e-17)
(0.005009 7.44233e-05 -1.45422e-17)
(0.00103776 -0.00305335 5.35509e-18)
(-0.0107167 -0.0124648 3.14775e-18)
(0.00385486 -0.00393523 8.47739e-18)
(-8.3445e-05 0.00103257 -5.69157e-18)
(0.00974854 -0.00697953 1.41549e-17)
(0.000930143 0.00822262 -2.15768e-17)
(-0.000342647 -0.00477516 -3.20204e-18)
(0.00999516 -0.00458535 -3.69249e-17)
(0.0031826 -0.00432276 -1.83431e-17)
(0.00868673 -0.00335015 -9.66445e-19)
(0.00368956 0.00117875 -1.22337e-18)
(0.000769756 -0.00422072 3.43478e-18)
(0.00769536 -0.00573743 -2.55436e-17)
(0.00279415 0.00706643 -3.94432e-18)
(0.0043162 -0.00379525 -7.87208e-18)
(0.00155728 0.00860044 6.30325e-17)
(0.00445784 -0.00351292 -7.08918e-18)
(0.000941831 -0.00232896 7.63561e-19)
(0.00223903 -0.00614329 -3.56319e-18)
(0.00174584 0.00198635 -5.00079e-18)
(0.000408006 -0.000895068 -4.24519e-20)
(0.00170772 -0.00338607 -2.32858e-18)
(0.0044577 0.0005101 2.09783e-17)
(0.00216205 0.000938183 2.87793e-18)
(-0.000171869 0.00067452 -2.21902e-18)
(-0.000506832 1.02045e-05 -1.13734e-18)
(0.00264186 -0.00519619 -2.10152e-18)
(0.0014179 -0.00180121 -5.41824e-19)
(0.00452299 -0.00513532 -7.49424e-18)
(-2.41185e-05 0.000994316 1.51312e-18)
(-7.608e-05 0.000857568 -1.72333e-18)
(9.50847e-06 9.41798e-05 3.7408e-19)
(0.00115073 0.000840492 -5.52549e-19)
(0.000208443 -0.000489313 3.92613e-19)
(0.00180005 0.000656885 2.74977e-18)
(-0.000501415 7.89726e-05 -7.64465e-19)
(-0.0229337 -0.00189428 -6.54873e-18)
(0.000531246 -0.00489867 2.50317e-18)
(-0.00152862 0.00770236 -1.86028e-17)
(-0.000272077 1.11062e-05 4.39208e-19)
(9.29323e-05 0.000110599 1.55092e-18)
(0.00130803 0.0049795 -2.80495e-17)
(0.00565704 -0.00251143 9.88238e-20)
(0.000154781 0.00224939 -1.23731e-17)
(0.0117423 -0.00462281 -2.8323e-17)
(0.00612236 0.00248449 4.30124e-18)
(0.0141987 -0.0003664 9.63164e-18)
(0.00172598 -0.00340191 6.51118e-18)
(0.00582419 -0.00673863 1.16351e-18)
(0.00100966 -0.00121537 4.03116e-19)
(1.79309e-05 8.84748e-05 -1.93129e-18)
(-0.000539485 5.60886e-05 -1.12342e-18)
(0.00110225 0.000443406 -9.62589e-19)
(-0.0125889 0.00198328 -2.3109e-17)
(0.000153756 9.19235e-05 -1.7018e-18)
(0.00484166 -0.0117811 6.22866e-18)
(0.00166015 0.000672379 -3.5825e-18)
(-0.00258337 0.00152403 -3.76345e-17)
(0.00262392 0.00428836 2.27533e-18)
(0.00646609 0.00239852 -6.12534e-18)
(-0.000402618 -0.0063845 -3.88524e-18)
(6.98742e-05 -0.000254498 5.20603e-19)
(2.90088e-05 2.1424e-06 -1.51481e-18)
(0.000334083 -0.00493585 -2.68844e-18)
(8.45268e-05 0.00119949 -7.09639e-18)
(0.000520118 0.00161915 -1.16796e-17)
(0.021621 -0.0052498 3.7853e-18)
(0.000877661 0.00103727 -1.7139e-18)
(-6.40266e-05 0.000492889 -4.08988e-18)
(0.00241012 -0.00103289 -9.62998e-18)
(-0.000353242 0.000210559 6.61974e-19)