/*--------------------------------*- C++ -*----------------------------------*\
| =========                 |                                                 |
| \\      /  F ield         | OpenFOAM: The Open Source CFD Toolbox           |
|  \\    /   O peration     | Version:  v2012                                 |
|   \\  /    A nd           | Website:  www.openfoam.com                      |
|    \\/     M anipulation  |                                                 |
\*---------------------------------------------------------------------------*/
FoamFile
{
    version     2.0;
    format      ascii;
    class       volVectorField;
    location    "200";
    object      U;
}
// * * * * * * * * * * * * * * * * * * * * * * * * * * * * * * * * * * * * * //

dimensions      [0 1 -1 0 0 0 0];


internalField   nonuniform List<vector> 
13917
(
(1.06877 0.0809196 0)
(1.0088 0.027298 -6.29202e-22)
(1.02347 -0.0287764 0)
(1.02929 -0.00325579 0)
(0.995881 -0.00176551 3.34066e-21)
(0.359533 0.0347713 3.43571e-19)
(0.947696 -0.0248253 5.16721e-22)
(1.03496 -0.0334128 -1.15536e-20)
(1.00347 -0.0803391 0)
(1.11039 0.0970394 -3.13989e-20)
(1.0411 -0.0278494 1.24879e-21)
(1.04084 -0.0203386 1.39798e-21)
(1.02944 -0.00365932 6.80977e-21)
(0.374228 -0.00480135 -1.34365e-20)
(0.964006 0.0674097 1.60318e-20)
(0.984632 0.0630023 8.1105e-21)
(1.00402 0.0307989 2.0766e-21)
(1.07743 -0.00250634 1.8184e-21)
(1.04057 -0.0201328 3.93897e-21)
(1.00095 0.00324425 6.96324e-22)
(0.99996 0.000615858 -9.53311e-21)
(0.927014 -0.0260654 0)
(1.00009 0.00480085 -8.98123e-21)
(1.04723 -0.0322456 -8.99826e-21)
(0.992865 0.00661385 2.93791e-21)
(0.91836 -0.0227945 1.77225e-20)
(0.78161 0.0064412 -4.82816e-20)
(0.75772 0.0931808 -1.45325e-19)
(0.753327 0.540085 7.95097e-21)
(1.13969 0.0303025 0)
(1.07869 0.0701842 -2.10216e-20)
(1.0373 0.060373 -4.83881e-21)
(0.835654 0.0410057 0)
(0.908908 -0.0234828 -2.20717e-20)
(0.98974 0.00286065 0)
(1.037 -0.0266016 0)
(1.0001 0.00454301 0)
(0.549849 -0.0277297 0)
(1.03179 -0.00653459 -3.73753e-21)
(0.560128 -0.0134186 1.11701e-21)
(1.00598 0.000547184 2.04353e-21)
(0.999988 0.000300518 1.44346e-20)
(1.01425 0.00245265 -4.48674e-22)
(0.705892 0.175816 0)
(1.02222 0.0161955 0)
(0.889782 -0.0108665 2.52756e-20)
(1.07529 -0.00287105 -3.1578e-21)
(1.06627 -0.020327 0)
(0.105962 0.122611 0)
(1.0025 0.000551876 2.72971e-21)
(1.04683 0.00707261 -4.6883e-23)
(0.963669 -0.00747238 -2.05524e-20)
(0.0773774 0.102261 -3.86123e-20)
(0.904219 -0.0225284 -4.93119e-20)
(1.00296 0.0314415 2.72447e-21)
(1.04988 0.0214591 -7.45061e-21)
(1.04157 -0.0280824 -8.11512e-21)
(0.990609 0.0167608 0)
(1.04195 0.0272944 -8.37549e-21)
(1.02144 0.0159187 -3.05574e-21)
(1.04903 0.0293342 -9.94308e-20)
(1.00993 0.0273977 1.62348e-21)
(0.255298 -0.00577865 1.46494e-20)
(1.00099 0.00348844 0)
(0.386035 0.0462233 -2.64621e-19)
(1.28353 0.366566 0)
(0.995346 -0.00609952 8.7683e-21)
(0.987807 -0.0111662 -2.6248e-20)
(1.05518 -0.0402655 -2.20873e-20)
(1.04345 0.0974981 1.70265e-20)
(0.996277 -0.00133301 6.39074e-21)
(1.03221 -0.0811816 1.6181e-20)
(0.256594 -0.0415194 -1.86241e-20)
(0.993505 0.00654476 0)
(0.108731 0.195844 1.49054e-19)
(1.03868 -0.0219995 -4.55261e-21)
(0.280554 -0.0189531 -1.90524e-20)
(1.03082 0.0172124 0)
(0.891473 -0.0214592 -9.93991e-21)
(0.999843 0.00119825 5.49204e-22)
(0.999958 0.00204437 0)
(0.995904 -0.00557029 -1.80767e-21)
(0.406901 0.108538 0)
(0.588439 -0.0309721 0)
(0.00498727 0.0236645 0)
(1.03018 0.0165543 -3.74966e-21)
(1.00013 0.00269524 -3.76727e-21)
(1.33232 0.403314 -1.41885e-19)
(1.04576 0.00723903 -1.35527e-20)
(1.01453 0.00252748 1.89181e-21)
(0.397065 -0.0434102 3.79606e-22)
(1.13687 0.070242 1.47039e-20)
(1.01284 0.0153599 2.22983e-22)
(0.967717 0.0325101 0)
(1.30344 0.412545 1.33194e-19)
(0.38462 -0.0276099 6.15173e-20)
(1.04918 -0.0302271 -3.8321e-20)
(1.06999 -0.0157777 0)
(1.03934 -0.0228894 -1.76419e-20)
(0.610537 0.104541 -1.28455e-20)
(1.00754 0.00390288 1.14817e-21)
(0.842964 -0.0265075 5.37338e-20)
(0.695151 0.161519 0)
(1.03468 0.0127287 0)
(1.01015 0.00820492 5.27809e-22)
(1.05035 -0.0930149 -2.35465e-20)
(0.830569 0.473309 -1.91324e-20)
(1.06702 -0.0216341 3.69702e-20)
(1.00537 0.0312188 -2.17222e-22)
(1.08153 0.0821711 2.56466e-20)
(-0.00731717 -0.040438 0)
(0.576185 -0.013309 3.67073e-21)
(1.04047 -0.0219238 0)
(1.02889 -0.0909476 0)
(0.946425 -0.0118442 9.77778e-21)
(0.0836555 -0.132192 -2.46335e-19)
(0.998705 0.00794282 0)
(0.199758 0.0777508 1.22515e-19)
(0.533139 -0.0100017 0)
(0.905124 -0.00987995 -1.2341e-20)
(0.999979 0.000566146 -7.55598e-21)
(1.05643 -0.0402181 3.96465e-20)
(0.516859 -0.0126091 3.43498e-21)
(0.766335 0.086418 0)
(1.00368 0.000478156 -1.81155e-21)
(0.969236 0.030455 2.07066e-20)
(1.01931 0.0184268 -9.64524e-22)
(1.00343 0.000394939 0)
(1.01261 0.00149743 0)
(0.360204 -0.0128212 5.31516e-21)
(0.627551 -0.0198339 -6.30144e-21)
(0.948964 -0.0124059 -2.20532e-20)
(1.02237 0.016792 -3.87805e-21)
(0.99997 0.000478808 9.26981e-21)
(1.13437 -0.0805661 -3.96597e-20)
(1.04867 -0.0314488 -8.74186e-21)
(1.06737 0.085008 0)
(0.586689 0.106111 -7.8132e-20)
(0.994997 -0.00591569 -2.53008e-22)
(0.906229 -0.0140275 0)
(1.03668 -0.0276051 5.01576e-21)
(1.01499 0.0090641 0)
(0.959528 0.00331898 1.06203e-20)
(0.65813 0.173731 5.30711e-20)
(0.987101 -0.0110718 3.9982e-20)
(1.06726 -0.0768411 1.49599e-22)
(0.825401 0.541378 7.31994e-21)
(0.965568 -0.00662837 3.39439e-20)
(1.01444 0.00776025 4.04729e-22)
(1.03393 0.0680127 0)
(1.05309 -0.0171984 4.31969e-20)
(0.0918993 -0.164798 -8.96467e-20)
(1.04534 -0.0236555 0)
(1.01473 0.139559 3.14513e-23)
(1.04709 0.0394009 -1.2925e-20)
(0.0229207 0.0769394 9.07565e-20)
(1.03915 0.0958944 -9.43372e-21)
(1.03709 -0.0415435 -1.37825e-20)
(0.250602 -0.0127962 1.5987e-20)
(1.13926 -0.0795065 4.52815e-21)
(0.936153 0.0209331 2.38301e-20)
(0.78152 -0.0539058 3.59974e-20)
(0.999964 0.00143156 0)
(1.049 -0.0293804 2.69262e-20)
(1.04067 -0.0218472 5.27988e-21)
(1.03935 -0.0229203 9.19804e-21)
(1.03419 0.0132986 -6.52886e-21)
(1.05987 -0.0171774 2.39724e-20)
(1.01858 0.0140213 1.37358e-21)
(0.836053 -0.0309255 -5.87854e-20)
(1.03155 0.131298 0)
(-0.261404 -0.00191425 -1.27332e-19)
(1.03982 -0.0222392 1.07201e-22)
(1.00117 0.0373718 7.50033e-22)
(1.03812 -0.0615892 -1.23537e-20)
(1.00681 0.159177 5.91208e-22)
(0.655565 -0.0226174 0)
(0.162608 0.080681 -1.33012e-19)
(1.05831 -0.0733612 0)
(1.00514 0.0170273 0)
(1.1401 0.0641478 1.80375e-20)
(1.08277 0.0678195 1.9943e-20)
(1.01534 0.00881391 6.9333e-22)
(1.00009 0.00289763 -2.17744e-21)
(0.930886 0.0843074 -3.58066e-20)
(0.967185 -0.0220882 -8.25949e-24)
(1.21377 0.0479047 -3.92275e-20)
(0.124467 0.080006 -2.9673e-19)
(1.06899 0.017726 0)
(1.04 -0.0232911 0)
(1.03732 -0.0332398 -1.40414e-20)
(0.0952879 0.0282563 4.17396e-20)
(1.22041 0.0907835 -9.71057e-20)
(0.998992 0.00418653 -4.54609e-21)
(0.563576 0.0396128 0)
(0.792168 0.00820357 1.07808e-20)
(1.00518 0.000211181 -1.05214e-21)
(1.01285 0.0160227 5.04539e-22)
(0.887446 0.403618 -2.00052e-20)
(1.25299 0.408586 5.69062e-20)
(1.0399 -0.0010913 2.93532e-21)
(1.00229 0.00049299 -1.24954e-21)
(1.05692 -0.0154717 3.73447e-20)
(1.05239 -0.0167766 -3.87408e-20)
(0.214828 -0.0324671 1.03751e-20)
(1.09003 -0.0763839 0)
(0.990191 0.00229828 -7.5602e-21)
(0.989737 0.0173774 -3.79523e-21)
(1.06817 -0.0158206 0)
(1.00767 -0.024454 7.16528e-21)
(0.961748 0.00404701 0)
(0.941947 -0.0272178 -7.89952e-21)
(0.146829 -0.0184426 0)
(1.04012 -0.0233834 0)
(1.00987 0.00834194 -2.87618e-22)
(0.503801 0.387972 0)
(1.06495 -0.0127968 -2.30426e-20)
(-0.129567 -0.019986 1.02772e-19)
(0.999497 0.0108413 0)
(1.21346 0.0514156 0)
(1.00508 0.0164106 2.10036e-21)
(1.12526 0.0144303 -4.14198e-20)
(1.00584 0.000680189 -2.81807e-21)
(0.540335 -0.0337762 0)
(1.04153 -0.0974908 0)
(0.98532 0.0658737 2.20221e-22)
(1.20429 0.407972 0)
(1.04904 0.0382728 -3.84853e-22)
(1.00949 0.0080364 -2.42825e-21)
(1.03713 -0.0262982 3.68608e-21)
(1.0397 -0.0221406 -1.60481e-21)
(1.06767 0.0164187 1.52697e-20)
(1.047 -0.0300166 0)
(0.116284 -0.0122173 0)
(1.00843 0.00209248 -4.09217e-22)
(1.03984 0.060916 0)
(0.445648 -0.0498994 -7.43694e-23)
(-0.0842941 0.0373964 -1.58977e-20)
(0.999916 0.00156554 8.81363e-21)
(1.00378 0.00598194 0)
(0.602525 -0.0112046 4.44451e-21)
(1.04968 -0.0327814 1.66848e-20)
(1.00003 0.000104916 -2.33013e-21)
(1.03683 -0.025006 -2.17651e-20)
(1.09287 -0.0212946 2.38257e-20)
(0.791273 -0.0590861 -8.28003e-20)
(1.0649 0.0695764 9.60145e-22)
(0.999963 0.00155879 9.06658e-22)
(0.973464 0.166063 3.96364e-21)
(0.180762 -0.0161582 -1.18397e-21)
(1.02391 0.0042428 5.07811e-23)
(1.15896 0.0739775 -4.122e-20)
(0.573004 0.150654 -7.02948e-20)
(1.01924 0.0176256 0)
(0.990348 0.0154623 1.06689e-20)
(1.0456 -0.0209598 0)
(0.629352 -0.015212 -1.67793e-20)
(1.04551 -0.0231281 0)
(0.931628 0.0885208 2.1602e-20)
(0.966939 0.0697255 -1.6306e-20)
(1.00003 0.000183921 0)
(0.490423 -0.0089686 -2.77774e-20)
(1.16477 -0.118449 0)
(1.03803 -0.022921 6.14743e-21)
(1.00916 0.00815517 3.43951e-21)
(0.126859 -0.0379105 0)
(0.394516 -0.0100984 -1.25829e-20)
(1.03226 -0.0415183 -7.43407e-21)
(0.871309 -0.0220262 -2.54629e-21)
(1.0388 -0.0222414 5.28487e-21)
(0.999919 0.00189057 6.56958e-21)
(1.00445 0.000574771 0)
(1.07316 -0.00526634 -1.42864e-20)
(0.441726 -0.0282366 1.02691e-20)
(1.07045 -0.0355186 -5.0002e-20)
(1.04082 0.0260503 2.46077e-20)
(1.09094 -0.0797062 -1.38886e-20)
(1.03672 -0.0170818 -1.20895e-20)
(1.01264 0.00100516 -6.44809e-22)
(1.25986 -0.06503 7.50558e-20)
(1.00125 0.00319801 -1.18049e-20)
(1.04132 -0.0607135 1.82303e-20)
(1.03908 -0.000728403 -2.53997e-21)
(1.00006 0.000106127 -7.28214e-22)
(0.988447 0.0801223 -1.05666e-20)
(1.00983 0.141537 0)
(0.782002 -0.0414297 7.09393e-21)
(1.03685 -0.0252246 2.35239e-20)
(0.987068 0.110853 6.12905e-21)
(1.02524 0.00755538 -3.38484e-21)
(1.15095 -0.0601975 0)
(1.04598 -0.0304599 1.6027e-20)
(1.14367 -0.124109 2.92963e-20)
(0.999393 0.010528 0)
(1.03092 -0.0469504 0)
(0.998306 -0.00257428 0)
(1.02525 0.00706735 1.42413e-21)
(0.998982 0.00764417 -5.56774e-21)
(0.840802 0.581577 -1.00425e-20)
(1.00118 0.000603028 0)
(1.12905 0.0124956 -3.61989e-20)
(1.06136 0.070164 0)
(1.01843 0.0134433 -2.59238e-21)
(1.05622 -0.0163778 -4.13601e-20)
(1.02005 0.0379954 -2.43626e-21)
(0.110499 0.0408779 0)
(1.00562 0.154553 5.00539e-22)
(1.13116 0.069592 -1.37776e-20)
(1.01808 0.00977133 0)
(0.991162 0.0149283 -7.03258e-21)
(-0.056501 -0.0328444 0)
(0.492717 -0.0116429 -1.94144e-20)
(0.99879 0.00833688 -1.37486e-20)
(1.00504 0.00059652 1.47737e-21)
(1.26001 -0.0593255 -6.68677e-20)
(1.00775 0.0163034 3.4294e-21)
(0.297565 -0.0469461 2.61196e-20)
(1.01757 0.00971068 -2.49365e-22)
(0.56547 -0.0341136 2.82252e-21)
(1.02623 0.000253438 1.0109e-20)
(1.20763 0.25047 -4.6958e-20)
(1.05279 -0.00161995 1.12441e-20)
(0.1146 0.268618 3.47782e-20)
(0.939901 0.0210257 -4.33155e-20)
(1.14768 -0.0740779 4.34384e-20)
(0.517005 0.279855 -5.93655e-21)
(0.991077 0.0781552 0)
(1.05073 -0.0330785 1.29094e-20)
(0.973014 0.475972 -2.62277e-20)
(0.98864 0.0271337 1.08445e-20)
(0.588658 -0.0226424 0)
(0.571248 0.0189155 0)
(0.409204 -0.0115178 1.34655e-20)
(0.91954 -0.00398713 3.32472e-20)
(0.535085 -0.0120166 0)
(1.04434 0.058773 0)
(0.113036 -0.0184097 0)
(0.534815 0.258174 0)
(0.927959 0.310632 1.90073e-20)
(0.943205 0.304626 0)
(0.987994 -0.0298551 0)
(0.999635 0.00126884 0)
(1.03744 0.133374 1.01827e-20)
(0.0554074 -0.0466022 9.8016e-20)
(0.978575 0.0143165 0)
(0.991217 0.049295 -1.26172e-20)
(0.41923 -0.0104424 0)
(0.876431 0.438638 2.24192e-20)
(1.00525 0.0351929 0)
(1.03743 -0.0330237 0)
(0.720737 0.51439 0)
(1.00631 0.00340474 -2.64845e-21)
(0.509206 -0.00730483 0)
(1.03677 -0.0290415 2.29162e-20)
(1.00132 0.0034264 6.27959e-21)
(1.00552 0.00843189 -5.4624e-21)
(0.99852 -0.00252636 2.58598e-21)
(1.01472 0.00756722 -5.72831e-22)
(1.14472 -0.059302 0)
(1.05039 -0.0694118 -2.94464e-20)
(0.379241 -0.29632 1.35192e-19)
(0.00667929 -0.039546 0)
(0.995892 0.00737639 0)
(1.16523 0.0713943 7.31374e-20)
(-0.195079 0.0348514 -1.34489e-19)
(1.05546 -0.00916287 -4.69045e-20)
(0.920832 -0.0275052 0)
(0.484584 -0.033894 2.99354e-20)
(1.02125 -0.0955658 2.6482e-20)
(1.00904 0.00380537 9.1118e-23)
(1.03785 -0.022863 0)
(1.00639 0.00818653 1.33423e-21)
(1.29331 0.0521715 -4.94178e-20)
(1.02088 0.0163543 2.9206e-21)
(0.0882391 0.315813 3.65339e-20)
(1.09583 -0.0212395 -3.75626e-20)
(1.03393 -0.00287992 -7.84166e-21)
(0.999436 0.00139941 0)
(1.06745 -0.0143359 0)
(1.14557 0.0634504 4.69272e-20)
(1.08147 -0.0159883 1.45323e-21)
(0.337989 1.09323 5.35188e-22)
(0.0248827 -0.0162818 -7.67926e-20)
(-0.168513 -0.0130166 -1.15098e-19)
(0.978613 0.173158 -9.2518e-21)
(1.10438 0.0956058 5.2288e-20)
(1.00362 0.00570751 0)
(-0.0433229 0.0374513 6.17215e-20)
(0.90064 -0.0249079 0)
(0.993447 0.0201413 0)
(1.1493 -0.0699206 0)
(0.994316 0.00387125 0)
(1.09908 -0.0637077 0)
(1.0263 0.000486108 -3.62434e-21)
(0.999731 0.00109664 0)
(1.01665 0.0403879 -7.65825e-22)
(0.871721 -0.0223434 -9.41249e-21)
(1.0153 0.0406424 0)
(0.65366 -0.016423 0)
(0.00779876 0.0464251 5.97164e-20)
(1.04088 -0.0256864 -2.2871e-21)
(0.447777 0.262068 -3.13704e-19)
(0.990205 0.0270648 0)
(0.504586 0.344822 -4.91085e-20)
(0.475202 0.28595 -2.35192e-21)
(1.00065 0.00626132 -4.16241e-21)
(0.841382 0.441624 4.63871e-21)
(0.980025 0.0143415 0)
(0.992788 0.00468459 -1.61019e-21)
(1.14031 0.0348787 0)
(1.00005 0.000273533 0)
(0.991782 0.00569577 0)
(1.00658 0.00807396 -8.8498e-22)
(1.1421 -0.0537754 1.68512e-20)
(0.999906 0.000978069 -5.67084e-22)
(0.553193 -0.0125147 7.26167e-21)
(0.974473 -0.0203318 -1.00402e-20)
(-0.134634 0.0296469 0)
(1.2179 0.0985283 0)
(0.673539 -0.0186627 0)
(-0.0635762 -0.0245645 -2.45521e-20)
(1.05435 -0.00901051 3.95036e-20)
(0.996355 0.00713295 3.82517e-21)
(1.11339 -0.0379345 6.6152e-20)
(1.03178 -0.00589442 0)
(1.04384 0.0646532 1.46067e-20)
(0.998887 0.0044591 -1.02811e-20)
(1.06024 -0.0725707 2.75345e-20)
(0.963804 -0.025664 -2.449e-20)
(1.01322 -0.0197698 1.69762e-20)
(0.9749 0.0618012 -1.3715e-20)
(1.09051 -0.0284981 0)
(0.923013 -0.00650763 -8.18466e-21)
(1.03232 -0.00686662 0)
(1.07956 -0.0159404 -1.69674e-20)
(1.0059 0.0418076 -3.9699e-21)
(1.03838 -0.0225032 -3.1013e-20)
(1.00633 0.0304061 -1.85059e-21)
(1.00116 0.000709742 -9.4483e-21)
(0.351319 -0.0560196 -2.46242e-20)
(0.643864 -0.0215091 -2.33685e-20)
(0.668506 -0.0224611 2.5355e-20)
(1.15896 0.14336 2.09219e-21)
(-0.153983 0.0286054 3.65073e-20)
(0.626615 -0.025203 1.83873e-20)
(0.203619 -0.0680638 -5.89365e-20)
(0.337253 -0.0158868 -2.4068e-20)
(1.01198 0.00151614 0)
(1.07113 -0.0108677 -3.15028e-20)
(1.00755 0.0417029 4.35403e-21)
(0.987527 0.0173389 0)
(1.09771 -0.0752275 -1.32662e-20)
(1.07476 -0.00502175 0)
(1.01405 9.98599e-05 1.33636e-21)
(1.09728 0.0103687 -2.43157e-21)
(1.05612 -0.00654529 -4.79883e-20)
(0.348154 -0.0158948 6.17772e-21)
(1.0007 0.00647583 -5.12442e-21)
(1.05789 -0.0326198 0)
(0.0882819 0.0737246 -2.17217e-19)
(1.23338 0.263183 1.60593e-19)
(0.571216 -0.0132347 1.01202e-21)
(0.999919 0.000839961 4.88288e-21)
(0.992412 0.0202997 7.79867e-21)
(1.00792 0.000294303 0)
(1.03517 0.0996118 -8.36298e-21)
(1.00903 0.00353234 3.31699e-22)
(1.00149 -0.0216427 4.43264e-21)
(0.391321 -0.257705 -5.90111e-20)
(0.989563 0.105973 0)
(0.016594 0.0481367 0)
(1.04922 0.0200113 0)
(1.04789 -0.029217 2.26708e-20)
(0.288338 -0.0766419 1.86688e-20)
(0.846825 0.540221 -1.10374e-20)
(1.04091 -0.0253456 -2.43131e-21)
(1.03673 -0.0279874 6.18282e-21)
(1.05673 -0.0328825 5.5691e-21)
(1.10166 0.0232587 8.90944e-21)
(1.09736 -0.0422128 -2.26971e-20)
(1.04403 -0.0143207 1.22632e-20)
(1.03938 -0.0244022 1.90583e-20)
(0.376969 0.0897703 0)
(1.04128 -0.0169517 -1.8553e-20)
(1.0631 -0.0251601 -2.19262e-20)
(1.01032 0.000514982 -2.40179e-22)
(1.12275 -0.0793891 -3.78659e-20)
(1.0488 0.0082914 -1.83485e-20)
(1.01888 0.0041062 -3.1166e-21)
(1.03118 0.0971439 0)
(1.03214 0.016032 -8.81252e-21)
(0.352849 -0.0174017 -8.43668e-21)
(1.0439 -0.0891843 1.47735e-20)
(1.00741 0.0156246 -3.50848e-21)
(1.01258 0.000811606 1.14609e-21)
(1.03195 -0.0228064 8.20191e-21)
(-0.0950833 -0.0163436 0)
(1.00005 0.000208052 0)
(0.543723 -0.0118138 -1.02965e-21)
(1.0315 0.00440066 -1.69214e-20)
(1.19994 0.0817565 5.64271e-20)
(1.00667 0.0168227 1.33462e-21)
(0.145484 -0.0303764 -1.45307e-20)
(1.051 -0.0585048 0)
(1.03607 0.0659573 0)
(1.02042 0.0246154 8.60779e-22)
(0.7047 -0.0196746 -1.09728e-20)
(1.2058 0.0499083 1.21378e-19)
(-0.266087 0.0255064 8.29461e-21)
(1.00003 0.000247781 0)
(0.170184 -0.0195283 1.93251e-20)
(0.133365 0.0415488 0)
(1.27391 -0.0494265 9.57848e-20)
(1.01891 0.00435128 -9.07409e-22)
(-0.0547214 0.0268953 -1.1535e-19)
(0.940536 -0.121231 -7.24742e-20)
(1.05327 -0.0103732 -2.50434e-20)
(1.00588 0.00847601 2.65651e-21)
(0.999215 0.0307747 3.50254e-21)
(1.0382 -0.022337 -9.10227e-23)
(1.09874 -0.0672212 1.18287e-20)
(1.01449 0.00016674 -1.76482e-21)
(1.0053 0.00799464 2.28401e-23)
(1.00355 0.00166953 0)
(1.00377 0.00173994 0)
(0.0916571 -0.0313472 3.18029e-20)
(1.10108 -0.0745357 1.39251e-20)
(1.05349 -0.00969867 2.36785e-20)
(1.20783 0.0355642 -7.94301e-20)
(1.0045 0.000449269 0)
(1.00727 0.00370602 -8.42346e-22)
(1.0879 -0.0278572 -3.36483e-20)
(0.759209 -0.100415 3.13814e-20)
(1.06494 0.0267529 0)
(1.01923 0.0141604 -2.12489e-21)
(0.993002 0.00511811 2.41763e-21)
(0.992132 -0.0076147 0)
(1.27733 -0.0574526 0)
(0.193543 0.0296798 -4.30444e-20)
(1.00027 0.00262419 8.97045e-21)
(0.992073 -0.00449199 6.11906e-21)
(1.03797 -0.022724 2.39372e-20)
(1.0445 -0.0137914 0)
(1.05199 -0.00213083 0)
(0.991749 0.019063 0)
(1.01317 0.0428231 -4.83223e-22)
(1.02484 0.0659889 3.90872e-21)
(1.06193 -0.0245872 1.96161e-20)
(0.967225 0.449739 1.45149e-20)
(1.21453 0.0419415 0)
(1.11172 -0.0409196 -4.36918e-20)
(1.07455 -0.0293139 -2.4549e-20)
(1.0863 -0.0769388 2.55999e-20)
(1.12902 0.0638424 -3.12971e-20)
(0.998828 0.0100338 -7.67203e-21)
(0.193585 -0.0207446 -1.7321e-20)
(0.992535 -0.00789446 0)
(0.991562 0.0515973 1.1579e-20)
(1.03566 0.000716817 -3.97618e-21)
(1.11902 -0.0789267 5.54553e-20)
(0.992573 0.24446 0)
(1.00697 0.000831212 -1.69174e-22)
(1.23208 0.251457 -1.23155e-19)
(1.14414 0.0210997 2.26908e-20)
(-0.0325605 0.0511881 0)
(1.07634 -0.0289156 5.39921e-20)
(0.884753 0.104917 2.12348e-20)
(1.057 -0.00739135 -1.74224e-20)
(0.999287 0.00144822 0)
(1.09471 -0.125039 0)
(1.21847 0.242527 -5.55446e-20)
(0.843004 -0.0336561 0)
(1.00606 0.0288255 0)
(1.0567 0.0217339 -5.69946e-21)
(1.20883 0.0302721 1.00269e-19)
(0.500088 -0.0371505 -1.05277e-20)
(-0.0342312 -0.0024226 0)
(1.07064 -0.0174395 0)
(1.16756 0.143059 -6.05644e-20)
(0.981337 0.0622225 -2.48097e-21)
(1.03288 0.0364592 7.16192e-21)
(0.990683 0.0192714 8.56961e-21)
(0.889626 0.196039 -2.11808e-21)
(0.673319 0.155375 -8.65568e-22)
(0.973051 -0.0186355 -8.43229e-21)
(1.06336 -0.0127925 0)
(0.571491 0.125597 -2.30238e-22)
(0.863524 -0.0340058 0)
(-0.255501 0.0276041 0)
(1.01513 0.0501897 2.12956e-23)
(1.04762 -0.0285021 -2.85112e-20)
(1.05121 -0.0567077 0)
(0.992465 0.0868395 0)
(0.964989 0.00647523 -2.72544e-20)
(0.182314 0.532405 1.78651e-19)
(1.09978 -0.102319 -4.07538e-20)
(1.06031 -0.0682463 -4.69003e-21)
(1.19764 0.0208134 7.69972e-20)
(1.01248 0.00165893 0)
(0.520417 -0.0103073 1.48212e-20)
(1.03837 -0.0220008 1.44424e-20)
(1.00695 0.000624229 -2.08365e-21)
(1.06005 0.0443482 6.21431e-21)
(1.05306 -0.0234319 0)
(0.844934 0.0426855 0)
(1.13559 0.0275781 0)
(0.888353 -0.0227892 -4.52967e-21)
(1.095 -0.0407558 3.44955e-20)
(1.04323 -0.012464 2.04037e-20)
(1.09804 -0.123422 -4.13056e-20)
(1.03357 0.0196867 6.2923e-21)
(0.308935 -0.0122447 2.42275e-20)
(0.99992 0.00137521 -8.66306e-21)
(1.00024 0.00279884 -8.53631e-21)
(1.02874 -0.0460482 0)
(1.09774 -0.101738 -1.46111e-20)
(0.38107 0.221493 3.14344e-20)
(1.03383 0.0187706 -3.33751e-21)
(1.00238 0.0359883 -1.29527e-21)
(0.992479 -0.00380494 7.00478e-22)
(1.03719 -0.0171866 6.91893e-21)
(0.0798984 0.160188 0)
(1.03939 -0.02284 8.30927e-21)
(1.03442 0.036552 -7.42589e-21)
(1.0413 -0.0251209 1.80304e-20)
(1.06573 -0.01436 -1.64983e-21)
(1.00639 0.0172764 6.07312e-22)
(1.18681 0.420301 0)
(1.03934 -0.0228058 0)
(1.04017 -0.0219033 2.58468e-20)
(1.00062 0.0119952 -6.769e-21)
(1.09019 -0.040821 5.9236e-20)
(1.03172 0.0170299 -5.98318e-22)
(0.0849405 0.0711836 0)
(1.11458 0.0928818 -3.40173e-20)
(1.00224 0.236877 0)
(1.05778 0.02276 -1.70805e-21)
(1.00544 0.00194375 3.1749e-21)
(1.0176 0.00528814 -1.22127e-21)
(1.02002 0.0187851 0)
(0.973565 0.307623 0)
(0.888113 -0.00594276 2.83273e-20)
(1.16496 -0.0326538 0)
(0.501887 0.797606 1.20363e-20)
(1.0607 -0.0161898 -2.53432e-20)
(1.006 0.00337759 0)
(1.10238 -0.0383327 0)
(0.378759 0.251927 -1.88115e-19)
(1.03669 -0.0283559 1.21464e-20)
(1.02357 0.00450291 0)
(0.89746 0.0073584 7.66768e-20)
(1.00495 0.00792798 -2.74871e-21)
(1.03794 -0.00823147 -1.14373e-20)
(1.04342 0.0267697 0)
(0.916965 -0.119268 7.79698e-20)
(0.999791 0.00124156 -2.80794e-22)
(1.23402 0.417974 0)
(1.0389 -0.00698256 0)
(1.04088 -0.0273339 -2.65961e-20)
(1.13765 0.0821247 -3.3055e-20)
(0.226223 -0.0410935 2.21042e-20)
(1.02382 0.232738 7.96488e-21)
(0.999124 0.0295518 0)
(0.399646 -0.0272066 2.33714e-22)
(-0.0224525 -0.00961075 -1.73988e-20)
(0.998851 0.0219499 -1.26123e-20)
(1.03508 0.000420424 0)
(1.05633 -0.0637103 -4.22016e-20)
(1.19217 0.0259615 -1.34757e-19)
(1.06908 -0.0344443 4.76958e-20)
(1.00013 0.000296192 0)
(1.02126 0.024562 -8.60563e-22)
(1.19408 0.24324 0)
(1.03409 -0.00339137 1.0615e-20)
(1.08273 -0.0139243 -9.72246e-21)
(1.0458 -0.0203078 -1.93684e-20)
(1.01796 0.00525676 1.47593e-21)
(1.0509 -0.0171854 5.80587e-22)
(1.02574 -0.0294735 1.46904e-20)
(1.02333 0.00376553 1.45286e-22)
(1.02862 -0.00120191 3.78972e-21)
(1.00318 0.00178112 -3.81519e-21)
(0.486916 -0.012215 0)
(0.999941 0.000551702 -9.72639e-21)
(0.975292 0.0585272 2.66794e-20)
(-0.256181 -0.00559427 4.18894e-20)
(0.984085 0.0462696 0)
(1.09393 -0.0976071 1.04601e-20)
(1.04657 0.0414333 0)
(0.829935 0.0465798 -6.6385e-20)
(1.0034 0.00185923 0)
(1.01463 0.171712 0)
(0.998885 0.00716855 6.07326e-21)
(1.10266 0.0299111 -9.23016e-21)
(1.00525 0.00116436 -2.63991e-21)
(1.07714 0.207356 0)
(1.03139 0.00479768 1.50688e-22)
(0.463327 0.244217 8.99884e-20)
(0.452743 0.671098 4.93072e-20)
(0.75644 -0.101379 0)
(1.00758 0.000279225 7.68369e-22)
(0.999543 0.00126516 0)
(1.12352 0.0627936 0)
(1.09104 0.0687429 -1.50079e-20)
(0.461785 -0.0138179 4.31408e-23)
(0.90432 -0.0959805 -8.2843e-21)
(1.07905 -0.000414392 -3.20379e-20)
(0.991233 0.00312565 1.19113e-20)
(1.13729 -0.052731 -1.55767e-20)
(0.346926 0.197344 1.52843e-19)
(1.0397 -0.0220004 -3.19585e-20)
(1.16422 -0.0275276 -3.32134e-20)
(1.06968 -0.00597241 -2.67053e-20)
(0.905833 -0.0222009 -1.99608e-20)
(1.06213 0.0899173 4.60009e-21)
(1.03663 -0.0165238 0)
(1.11862 -0.0271028 0)
(0.868368 0.384173 -1.46638e-20)
(1.07881 0.0012054 3.57603e-20)
(0.308615 0.275043 -2.133e-19)
(1.08094 0.00490663 1.30111e-20)
(1.03141 -0.00100564 0)
(1.05307 -0.0243515 -1.62924e-20)
(0.994627 0.0792464 1.30137e-22)
(1.02042 0.00493651 -5.35978e-21)
(1.03803 -0.00777001 1.79318e-20)
(1.08211 0.0776548 9.54631e-22)
(1.03058 0.0671625 -3.23669e-21)
(0.997851 0.00671579 6.47968e-21)
(1.00479 0.000354764 0)
(1.06312 -0.0155077 2.82996e-20)
(1.03482 0.00731174 0)
(1.08502 -0.0140475 0)
(0.991986 0.00315674 -1.33449e-20)
(0.994234 0.00218732 1.15485e-20)
(0.999958 0.000427717 9.434e-21)
(1.00993 0.0429497 -3.0499e-21)
(1.01609 0.00234802 7.52943e-22)
(1.02861 0.0562833 0)
(1.00281 0.00189464 1.07359e-21)
(0.131219 -0.0289315 0)
(1.03994 -0.0203068 0)
(0.462248 -0.305083 4.87311e-21)
(1.00822 0.00355418 -2.94349e-23)
(1.00003 0.0011911 -7.71743e-21)
(0.802518 0.115023 -1.19006e-20)
(1.10333 0.0207951 0)
(0.952136 -0.0160157 1.62329e-20)
(1.2592 -0.0836127 3.58627e-20)
(1.11509 0.140029 0)
(1.35882 0.0641014 8.84256e-20)
(1.03875 -0.00744856 -4.52738e-21)
(1.09306 -0.0328778 0)
(1.02923 0.0104276 -8.82688e-21)
(0.999919 0.000710695 -7.18334e-21)
(1.00395 0.00155278 -1.77002e-21)
(1.01876 0.0387795 2.41924e-21)
(-0.332022 0.00711689 -1.17289e-19)
(1.00002 0.00102544 3.72673e-21)
(1.07659 -0.0805255 -1.33878e-20)
(1.02969 0.0580108 -7.54938e-21)
(-0.189032 0.0386166 7.85846e-20)
(0.963728 0.185125 8.10837e-21)
(1.12137 0.136871 0)
(1.04095 -0.0269854 1.27929e-20)
(1.01366 0.00478346 0)
(1 3.58195e-05 0)
(1.04024 -0.0204495 -4.61464e-21)
(0.987457 -0.00612102 -1.44015e-20)
(0.979577 0.0254078 7.23696e-21)
(1.22218 -0.0843579 1.46795e-20)
(1.00182 0.0388141 0)
(0.998552 -0.00181637 1.3902e-21)
(1.05213 0.0317984 0)
(1.00403 0.00516763 -4.80617e-21)
(1.01172 0.000690699 0)
(1.03541 0.062694 4.88357e-21)
(0.8836 -0.0496253 0)
(0.434576 -0.00946042 0)
(1.05581 0.0742829 0)
(1.02332 0.00356197 -4.37749e-21)
(1.00642 0.000650632 -3.05056e-21)
(0.549109 -0.0424776 1.01101e-20)
(0.959998 0.316284 0)
(0.994374 0.0266025 1.45455e-22)
(1.00694 0.0284281 0)
(1.24371 -0.0805161 0)
(1.05417 -0.0605052 3.74861e-20)
(-0.224414 -0.0100276 -9.20223e-20)
(0.89222 0.105221 1.61813e-20)
(1.03193 -0.000700194 0)
(1.00816 0.00216745 -7.30988e-23)
(1.01188 0.00081912 5.03371e-23)
(1.04177 -0.0171186 1.68635e-20)
(1.05961 0.0743882 8.58011e-22)
(1.0391 -0.0352667 -1.37598e-20)
(0.915615 -0.00429981 1.18442e-22)
(0.559653 -0.0195029 2.61946e-21)
(1.01443 0.0282118 -2.04795e-22)
(0.959383 0.0368794 0)
(-0.25383 -0.00281353 1.98817e-20)
(0.994253 0.00338118 8.11067e-21)
(1.04906 0.00721064 1.68331e-20)
(0.998573 0.0194388 1.00517e-20)
(1.00148 0.000905185 5.44358e-21)
(1.07714 0.0835479 0)
(0.771941 -0.0354172 -7.1751e-20)
(1.0281 0.0177787 0)
(1.09133 -0.0971801 4.72805e-22)
(0.599206 -0.0139498 1.77098e-20)
(1.13998 0.0765276 3.13226e-20)
(0.998952 0.0104243 -4.62055e-21)
(1.01664 0.0033009 -1.05828e-21)
(1.03985 -0.0230689 0)
(1.08114 -0.0805155 -1.38947e-20)
(1.00005 0.000338393 -5.44711e-21)
(1.07993 -0.0721695 -5.09953e-20)
(1.01637 0.00330991 -9.42814e-22)
(1.07834 0.0741293 2.25201e-20)
(1.02096 0.00222146 7.41304e-22)
(1.02089 0.0057955 2.17234e-21)
(1.10183 -0.0705004 0)
(1.02328 0.0109676 7.62494e-21)
(1.03324 -0.0213878 7.45762e-21)
(1.07748 0.0517157 0)
(0.999951 0.000354447 0)
(1.01378 0.00296556 3.45751e-22)
(0.980635 -0.0111503 2.32738e-20)
(1.00434 0.0127922 5.65071e-21)
(1.02852 -0.000690739 0)
(0.286794 0.678104 -7.26957e-20)
(1.02277 0.00464986 0)
(1.01874 0.00775437 -4.16135e-24)
(0.941938 -0.0647038 0)
(1.06997 -0.0791055 2.36855e-20)
(1.04356 -0.0131534 0)
(1.08702 0.0709074 1.44389e-21)
(1.07543 -0.015861 -1.98911e-20)
(1.04331 0.013559 -1.80594e-20)
(1.01482 0.0097969 -4.4544e-22)
(0.886054 -0.0132434 -8.06443e-20)
(0.208149 -0.0286621 9.80664e-21)
(1.08658 0.20755 0)
(0.997853 0.00164402 4.62816e-22)
(1.01962 0.0241084 9.67411e-22)
(0.937096 -0.0963849 0)
(1.0626 0.00474199 0)
(0.0979255 -0.0468703 6.13525e-20)
(0.999938 0.000479219 0)
(0.949637 -0.0155991 -1.70664e-20)
(0.46638 -0.00907324 1.02228e-20)
(1.0572 0.00303107 -7.23547e-21)
(1.02928 0.016817 0)
(-0.336114 0.0115005 0)
(0.215286 0.222242 -1.22819e-19)
(1.00463 0.0124866 3.90343e-21)
(1.11652 -0.024289 -4.49614e-20)
(1.00417 0.00162156 4.36543e-21)
(1.02267 0.0109612 -6.30334e-21)
(1.00843 0.00373482 7.75231e-23)
(0.174803 -0.045803 1.3969e-20)
(1.01594 0.00222526 -6.16165e-23)
(1.02279 0.00129836 -4.20636e-21)
(1.01517 0.00954271 -6.423e-22)
(1.03794 -0.0206627 0)
(1.03196 -0.00477449 0)
(1.20211 0.0739109 -5.44442e-20)
(0.697628 -0.1206 0)
(1.02122 0.00492234 -3.8045e-21)
(0.84298 0.000434113 1.13837e-20)
(1.00031 0.00252438 3.37673e-21)
(0.023549 -0.0396806 0)
(1.00312 0.00673335 0)
(1.02309 0.00439804 0)
(0.998572 -0.00125608 1.38604e-21)
(1.03985 -0.0231895 0)
(0.998409 -0.00161344 4.1893e-22)
(1.0923 -0.0423242 -4.01354e-20)
(0.584979 -0.0109713 -2.68255e-20)
(1.04883 -0.0276974 5.60036e-23)
(0.902241 0.0081277 -4.31467e-20)
(1.03679 -0.0296259 0)
(-0.223102 -0.00778842 6.5143e-20)
(0.992176 0.0152886 0)
(0.495126 -0.00838544 -7.81067e-21)
(0.891059 0.0294983 7.53299e-20)
(-0.184805 -0.0114623 0)
(0.666437 -0.0175124 6.77672e-24)
(0.921489 -0.06327 0)
(0.216493 0.243032 5.52215e-20)
(1.1009 -0.0363308 2.18895e-20)
(1.00042 0.0315834 -3.52431e-21)
(0.869441 -0.0234045 8.95633e-21)
(1.05732 0.00425022 0)
(0.870117 -0.0251412 5.06917e-21)
(1.01856 0.00448749 2.86118e-21)
(1.01343 0.0150912 -3.19834e-22)
(0.995422 0.0274093 1.60922e-22)
(1.00031 0.00269641 0)
(1.0454 0.0103319 -1.48219e-20)
(0.888426 0.0636917 6.57479e-20)
(0.502692 -0.0157313 7.52591e-21)
(1.01345 0.0144868 7.05839e-23)
(0.993289 -0.00256444 -2.32847e-20)
(-0.227115 0.0330117 0)
(0.986075 0.405496 0)
(0.980899 -0.0123898 -1.22317e-20)
(0.809517 -0.0808999 4.36719e-20)
(1.05722 0.0319963 -1.13528e-20)
(1.02583 0.0142113 0)
(0.51966 0.707271 -2.12909e-20)
(0.803252 -0.0755325 4.78188e-20)
(0.947489 0.0288571 5.04826e-22)
(1.03225 -0.00448771 -1.82066e-20)
(0.571378 -0.0128815 1.32193e-22)
(-0.232394 -0.00536776 0)
(0.221899 0.0426881 9.11497e-20)
(1.02078 0.00239601 -1.35343e-21)
(1.20497 0.0582998 0)
(1.14017 0.0193035 2.28935e-20)
(-0.196499 0.00951167 -5.22931e-20)
(1.01277 -0.0990784 0)
(1.03934 -0.0222145 0)
(1.00742 0.0169155 -2.1281e-21)
(1.02978 0.0108028 -9.63448e-21)
(1.01342 0.0284523 2.19609e-22)
(1.01486 0.000532748 1.35527e-21)
(1.01188 0.0437391 5.66134e-22)
(1.01198 0.0013399 0)
(1.02665 0.0646435 -5.62525e-21)
(1.05867 0.090418 2.52284e-20)
(0.0517753 0.0487283 0)
(1.05711 -0.0356248 -2.00188e-20)
(1.02301 0.00148064 2.29813e-21)
(1.09075 -0.0317015 1.52063e-20)
(0.243206 -0.0706047 -3.48642e-20)
(1.07355 0.0798511 0)
(0.969398 0.00737425 0)
(0.294281 -0.014127 1.89494e-21)
(1.01776 0.0131966 0)
(0.980589 0.0238829 0)
(0.81631 0.0361066 7.14992e-20)
(0.116904 0.0580733 4.80256e-20)
(0.998375 -0.003077 -3.99417e-21)
(1.00019 0.0121179 -3.68595e-21)
(0.932159 -0.0283958 1.6657e-20)
(1.03662 -0.0298516 0)
(1.04906 -0.0537296 6.70131e-20)
(1.07288 -0.0322677 1.29572e-20)
(1.037 -0.0270183 0)
(1.0032 0.0118815 5.52715e-24)
(1.10612 -0.0423014 8.08605e-22)
(0.968288 0.00882134 -1.76001e-20)
(1.00166 0.00690737 0)
(0.966523 0.00470299 9.00458e-21)
(0.976467 -0.022541 0)
(-0.189876 -0.0148004 7.82446e-20)
(1.01947 0.00692418 -5.98891e-21)
(1.01407 0.00304489 0)