/*--------------------------------*- C++ -*----------------------------------*\
| =========                 |                                                 |
| \\      /  F ield         | OpenFOAM: The Open Source CFD Toolbox           |
|  \\    /   O peration     | Version:  v2012                                 |
|   \\  /    A nd           | Website:  www.openfoam.com                      |
|    \\/     M anipulation  |                                                 |
\*---------------------------------------------------------------------------*/
FoamFile
{
    version     2.0;
    format      ascii;
    class       surfaceScalarField;
    location    "700";
    object      phi;
}
// * * * * * * * * * * * * * * * * * * * * * * * * * * * * * * * * * * * * * //

dimensions      [0 3 -1 0 0 0 0];
oriented        oriented;


internalField   nonuniform List<scalar> 
20580
(
-0.153053
0.0126105
0.140444
0.139029
-0.262389
0.123361
0.270079
-0.13105
0.00702974
0.0025562
-0.00958598
0.580284
-0.615971
0.035662
0.275446
-0.205026
-0.0704275
-0.312338
0.0511302
0.575135
-0.578436
0.00327565
0.00412472
-0.00569344
0.00156866
0.423066
-0.249822
-0.173247
0.146705
0.0252555
-0.171954
-0.516866
0.311901
0.204957
-0.213785
0.286157
-0.0723743
-0.0179611
0.00884489
0.00911631
0.205005
-0.037993
-0.167012
-0.130503
0.104942
0.0255623
0.0104416
0.0062377
-0.0166785
-0.167175
0.360723
-0.193553
0.099978
-0.107079
0.00710154
-0.134415
-0.0186357
0.065392
-0.208264
0.142872
0.235836
-0.214367
-0.021474
0.0178019
-0.0201229
0.00232083
-0.582689
0.590986
-0.00830163
0.04072
-0.0441006
0.00338115
-0.0102811
0.128592
-0.118309
-0.0253845
-0.0523485
0.0777332
-0.0496375
0.0406485
0.00898911
-0.00555202
0.00699396
-0.00144178
0.486817
-0.330317
-0.156511
0.0120876
-0.00611059
-0.00597685
-0.233004
-0.0793296
-0.125721
0.14464
-0.0189192
-0.00287448
0.00527714
-0.00240253
-0.158404
0.164102
-0.00569764
-0.00129046
-0.00673212
0.00802254
-0.614775
0.0320855
0.00990348
-0.0354111
0.025507
0.00830062
-0.0123662
0.00406567
-0.139848
-0.155349
0.29519
0.00931745
-0.00017326
-0.00914413
-0.00960007
0.00404814
0.0155165
-0.0155164
0.112065
-0.0138767
-0.0981888
0.00408238
-0.0092386
0.0051563
0.451369
-0.284005
-0.167375
-0.540836
-0.0695228
-0.142788
0.0593643
0.0834244
-0.0653516
-0.21191
0.277254
-0.299174
0.0853883
0.022577
-0.0225319
-4.5e-05
0.136454
-0.281548
0.145092
-0.105169
-0.0253335
-0.055139
-0.12987
0.185011
-0.0125491
-0.000538359
0.0130879
0.0972534
-0.237107
0.0139091
-0.13963
0.0113005
-0.00198306
-0.0327946
0.0883975
-0.0556025
0.0142496
-0.0193496
0.00509985
-0.35322
-0.163655
0.0648527
-0.0902369
-0.217691
-0.196705
0.414395
-0.205044
0.139686
-0.0538697
0.0969479
-0.0430786
-0.089346
0.0354759
0.0184686
-0.00421898
-0.0948775
0.0718759
0.355168
-0.257498
-0.0976782
0.00585617
0.00399104
-0.00984713
0.0133321
-0.000776006
-0.0125562
0.183609
-0.202513
0.018904
-0.025541
-0.226596
0.252133
-0.0187242
-0.00062553
0.191735
-0.0220916
-0.169642
0.220056
-0.224191
0.00413038
0.0203456
-0.00990434
0.349822
-0.531103
0.181272
0.044688
-0.0039677
0.448112
-0.211359
-0.236764
0.25331
0.101851
-0.106151
0.132111
-0.0259622
-0.0107951
-0.147614
0.0144929
-0.0167384
0.00224565
-0.0187618
3.75623e-05
0.00821674
-0.0128376
0.00462145
0.0560305
0.179801
-0.00648578
0.00186025
0.00462561
0.225448
0.150139
-0.375591
0.0080094
0.00407836
0.266001
-0.129547
-0.317468
0.0844679
0.0204825
-0.0204825
0.0138568
-0.00563984
-0.0102436
0.015403
-0.00515926
0.0183996
0.084886
-0.103286
0.156871
-0.356788
0.199906
-0.0901373
0.120438
-0.0303001
0.0206674
-0.0219803
0.00131296
0.0334149
0.0963457
-0.129761
-0.122391
0.0322542
0.126647
-0.0571918
-0.0694545
0.093612
-0.121802
0.0281904
-0.176087
-0.0721746
0.248258
-0.469847
0.125876
0.343961
0.149288
-0.189694
0.0404052
-0.158959
-0.3109
0.0121324
0.00119993
-0.0797054
-0.237758
-0.341518
0.174338
0.0030528
0.151428
-0.154484
0.344659
0.106698
-0.109464
0.132974
-0.0235101
0.00858831
0.129585
-0.138175
-0.135734
0.121861
0.0138736
0.168693
-0.223829
0.173607
-0.400837
0.227217
0.466017
0.109092
-0.00339562
0.0104254
0.010594
-0.00473782
0.0882067
-0.108315
0.0201077
0.153799
-0.422837
0.269029
-0.273088
0.293099
-0.0200176
-0.00992589
-0.00199955
0.0119257
0.0973043
-0.126918
0.0296143
0.0182028
-0.0653982
0.0471961
0.345835
-0.188976
0.0452897
0.108947
-0.154241
-0.00819514
0.000452096
0.00774313
0.160368
0.0183289
-0.178698
-0.200018
-0.0143532
-0.152564
0.195469
-0.0429088
-0.0409117
0.050814
-0.00352565
0.000651316
-0.0148357
0.161536
0.00376797
-0.0159767
0.0122089
-0.0407242
-0.00995083
-0.00288628
-0.00134566
0.120456
-0.11911
-0.178905
0.0261376
0.152768
-0.124644
0.0184916
0.250587
-0.237949
-0.0126406
-0.0711807
0.296625
-0.0778316
-0.00605211
0.0838842
0.00141402
-0.0291973
0.0277833
-0.0276112
0.227594
-0.199987
0.519152
-0.16934
0.00774646
-0.00643982
0.00321828
0.00322149
-0.0810964
0.126387
-0.0696102
-0.0527803
-0.130817
0.0213529
-0.123705
0.132293
0.115349
-0.113627
-0.00172166
-0.2215
-0.0127844
0.234283
0.134531
0.18329
-0.317822
0.308344
0.21354
-0.521894
0.0125475
-0.0042468
-0.20288
0.0980386
0.104842
-0.0503674
0.217285
-0.166915
-0.413495
-0.165825
0.579314
0.00898644
-0.00368507
-0.0053011
0.173823
-0.0245359
-0.0549313
-0.0878563
-0.00900796
-0.00895311
-0.00206812
0.00265416
-0.000585759
0.00227629
-0.00434445
0.0207078
0.00186929
0.168376
-0.165327
0.0121721
-0.0113883
-0.000783842
0.533217
-0.325157
-0.208068
0.439662
-0.266072
0.171126
-0.161629
-0.00949832
0.546674
-0.109334
-0.43736
-0.013148
0.00290414
-0.0577172
-0.0255475
0.0832649
0.0919713
-0.11585
0.0238788
0.260828
0.178819
0.197234
-0.174971
-0.0222608
0.121585
-0.0296139
0.115361
-0.0180572
0.130463
-0.00367121
-0.174563
0.178231
0.199534
-0.0391667
-0.0171245
0.0171237
-0.00349266
-0.00294722
0.103667
0.0409735
-0.0616427
-0.0685133
0.130156
0.234655
-0.00230142
-0.232355
-0.128428
-0.248165
0.376582
-0.0364455
0.0378599
-0.142528
-0.0603516
0.0124982
-0.00365333
0.145434
0.130005
-0.224906
0.19729
-0.0998353
0.12986
-0.0300236
0.134
-0.0303325
0.211024
0.101261
-0.312286
0.121586
-0.318629
0.197038
-0.0220334
-0.0660334
0.0880675
0.118793
-0.1316
0.0128062
-0.0048098
0.0132873
-0.00847735
-0.013089
0.0116927
0.00139649
0.0181765
0.186829
0.00438936
-0.0585153
0.0541256
0.00752686
-0.0123366
0.199275
-0.208144
0.00886904
0.132208
-0.146588
0.0143822
-0.00540378
-0.00130462
0.00670853
0.21963
-0.0204045
-0.199219
-0.117775
0.111324
0.00645203
-0.248853
-0.0242398
-0.00585168
-0.645311
0.390358
0.254954
-0.134666
0.172108
-0.0374361
-0.214694
0.192974
0.0217158
-0.253511
-0.0456641
-0.00944231
0.0993954
-0.089953
-0.186213
-0.136001
0.322207
0.00024057
0.0279568
-0.1989
0.459713
0.140113
-0.125303
-0.0148061
0.0165778
-0.00208503
-0.0160357
0.0137398
0.00229611
0.0239986
-0.13628
0.112281
0.152392
-0.0201829
0.667873
-0.373381
-0.294491
-0.0211247
-0.0567066
0.16806
-0.453856
0.285786
0.0294412
0.000470116
-0.00697109
0.00650106
0.0928522
-0.154495
-0.0270946
0.246727
-0.480264
0.220501
-0.00163198
-0.0114569
0.223663
0.263141
0.0482814
-0.0304798
-0.0127245
0.011417
0.00130757
-0.104128
0.137541
0.145097
-0.558594
-0.0296275
0.0866296
-0.0570025
0.0183808
-0.0206172
0.00223639
-0.007147
0.0112295
-0.012832
0.188881
-0.194319
0.00543883
0.070167
-0.059737
-0.0104296
0.0957243
-0.105166
0.0340758
0.163161
0.106722
-0.0218363
0.150999
-0.168605
0.0176028
-0.00212636
0.00895019
-0.00682384
-0.124695
0.132433
-0.00773873
-0.307842
0.643493
-0.335684
0.0561599
0.167389
-0.22355
0.0206034
0.00574674
0.00323975
0.00121808
-0.00155918
0.000341089
-0.347154
0.218716
0.0503223
0.181838
0.158371
-0.340212
0.116949
-0.107577
-0.00937195
0.12308
-0.11734
-0.00573915
-0.107888
0.164047
0.162194
0.0116267
-0.148514
0.0238194
-0.101463
0.304618
-0.203161
0.0631927
0.0634547
-0.141312
0.0515754
0.0897368
0.0597553
-0.0442403
-0.0155146
0.457156
-0.189382
-0.26778
-0.293957
0.0404452
0.116851
0.00505554
-0.00146088
-0.00359478
0.0130679
-6.41589e-05
-0.0130036
0.166899
-0.0167335
-0.150166
0.391117
-0.237325
0.106867
0.00849332
-0.11306
0.116086
-0.0030258
-0.102006
0.134426
-0.0324195
0.172388
-0.010195
0.00300934
0.00204623
0.0209675
-0.0210335
6.60915e-05
0.160816
-0.206485
0.0456678
-0.107727
-0.0658794
0.173607
-0.0366376
0.0440043
-0.00736699
0.192871
0.162781
-0.355664
0.226406
0.294162
-0.520578
-0.126809
0.0248028
-0.0371303
0.160149
-0.123028
-0.463224
0.226869
0.236344
0.486815
0.136697
-0.623516
0.4028
-0.234748
-0.560195
0.566815
-0.00665038
-0.0149332
-0.168439
0.183372
0.534738
0.00620451
-0.00207973
-0.100171
0.165563
0.16063
-0.291561
0.130924
0.00445634
-0.0132801
0.00335434
0.0501092
0.219558
-0.269669
0.00569928
0.0213782
-2.01019e-05
-0.0213579
0.0625493
0.188035
-0.189315
0.239423
-0.234251
0.13408
-0.0149825
0.0162598
-0.00127709
0.000452826
-0.00252
0.00206702
0.178418
-0.0344757
-0.143943
0.458408
0.12185
0.012168
4.19158e-06
0.17999
0.16278
-0.16508
0.00229903
0.0207224
0.000656002
0.0566515
-0.0494596
-0.00719127
-0.264165
0.213802
-0.049618
0.0129802
-0.0121834
0.076341
-0.0641577
0.00832036
-0.0125898
0.00427047
0.118451
0.00825584
-0.126708
0.054318
-0.113892
0.0595747
0.0127676
-0.00899958
-0.0100298
-0.00115118
0.011181
-0.0182134
-0.0314239
0.319506
-0.197924
-0.00613008
0.017132
-0.0110018
0.00772112
-0.00772113
0.0107999
-0.0377813
0.0269819
-0.0368994
0.0477
0.143693
0.0555826
0.176497
-0.0260059
-0.150492
0.0100109
-0.153396
0.143383
-0.00313001
-0.00335569
0.0638764
-0.116382
0.0525066
-0.214052
-0.300124
0.514148
-0.107468
-0.433362
-0.038174
0.183625
-0.145456
-0.0043826
0.0127032
0.0330555
0.374515
-0.181657
-0.000632642
0.0397187
0.122134
-0.161854
-0.192372
0.0398047
-0.0490489
0.266335
-0.0159996
0.00101714
0.110628
-0.00376145
0.024692
0.00170943
-0.216409
0.199173
-0.22626
-0.0151572
0.0100695
0.00508794
0.244124
-0.00947064
0.00228924
-0.0597875
0.2206
-0.134963
-0.0992891
0.137964
-0.0982463
0.331975
0.291805
-0.131184
0.142253
-0.147951
0.005698
-0.0366655
0.133011
-0.131291
0.136405
-0.00511357
-0.0530962
-0.00690978
-0.00824725
0.195511
0.0320794
-0.00103167
-0.121988
0.102663
0.0193259
-0.200415
0.436407
-0.235974
0.054129
0.0025226
-0.120034
0.140873
-0.0208387
0.0191281
0.00153938
0.182114
-0.220293
-0.144296
0.0160996
-0.0926078
0.0598134
-0.0411898
0.0422102
-0.00102064
0.113702
-0.138913
0.0252114
-0.00651108
0.00679521
-0.000284083
0.29977
-0.239463
-0.0603104
0.0207192
-0.0784363
0.00205721
0.0134593
0.0119632
-0.192238
0.180274
-0.0069987
0.0048724
-0.0231904
-0.16854
0.191729
0.0115494
-0.00273151
-0.00881774
0.0885361
-0.196262
-0.0390597
-0.133459
0.132414
-0.134076
0.00166242
0.0783776
-0.104226
0.0258477
0.308487
-0.173957
0.248685
-0.169302
-0.0793827
0.0906615
-0.127783
0.0167658
-0.290485
-0.0299433
0.320421
-0.00867625
0.175576
-0.0115224
0.00277844
0.00874403
-0.206024
0.18048
-0.0786541
-0.0679321
-0.0108042
0.0126971
-0.00189276
0.09712
-0.262298
0.165143
-0.0502682
0.111654
-0.0613862
-0.170069
0.159753
0.010317
0.00215855
-0.00170575
0.189451
-0.209856
0.132683
-0.142962
-0.0688558
0.0732447
-0.00383855
0.17481
-0.174079
-0.00073055
0.00133345
-0.000115399
-0.000381007
-0.0958851
0.0662573
-0.283053
0.181584
0.127386
0.0148674
0.173046
-0.193405
0.0203581
-0.122598
-0.0216966
0.421335
-0.203128
-0.218215
-0.016735
0.0167349
-0.00373644
0.00646259
-0.00272609
-0.0350181
0.0412867
-0.00626828
-0.0484288
0.2476
-0.0161
0.0871726
-0.0723642
-0.014808
0.0120809
0.000987023
0.487389
-0.212425
-0.274965
-0.01741
0.01128
-0.12917
0.108992
0.0201794
-0.00206789
-0.00249027
0.00455808
0.176002
-0.0250054
-0.00767097
-0.0334274
0.0410985
-0.0341005
-0.24153
0.275628
0.564721
-0.0180652
0.000311024
-0.0128597
0.0869571
-0.0169835
-0.0699734
0.148965
0.274099
-0.214243
-0.0481462
-0.146623
0.0679704
-0.15274
0.458772
-0.306049
-0.0105911
0.00685485
0.033958
0.142539
-0.13873
0.0186972
-0.233316
0.230736
0.00258091
0.0217182
0.278048
-0.334032
0.248013
0.0860188
-0.0419173
0.000727487
-0.0884804
-0.203089
-0.0366761
-0.297355
0.0187866
-0.0446033
0.0258169
-0.00918016
-0.00234209
-0.179642
-0.0203814
0.0311891
-0.0992057
0.0680169
0.216746
-0.434435
0.513157
-0.219007
0.280842
-0.183727
0.00114151
0.128458
-0.153858
0.0254015
-0.323645
0.0230098
0.300629
-0.325563
0.227912
0.0976566
-0.0270357
0.115242
-0.118454
0.306606
-0.18815
0.000199231
0.00208451
-0.00228417
-0.170289
-0.377457
0.547733
-0.159394
-0.0625054
0.2219
-0.00034345
-0.0088951
0.0162488
-0.102671
0.0864217
0.433432
-0.610864
0.177425
0.496455
-0.200585
-0.295877
-0.208986
-0.0243275
0.327336
-0.123226
-0.204112
0.106645
-0.109945
0.00329867
-0.0399156
0.0294019
0.0105139
0.206569
-0.017688
-0.0072697
-0.0406278
0.0478981
0.232398
0.264104
-0.484191
0.220079
0.00728139
-0.00697639
-0.000304922
-0.0614183
-0.161485
0.0775338
0.0839514
-0.297544
0.277143
0.0203958
-0.0120291
-0.122479
0.121133
0.0588882
-0.00835562
-0.0505329
-0.238787
0.0626969
-0.188583
0.0150015
0.17358
-0.0342471
-0.209593
0.179481
0.0301142
0.00957629
-0.0107274
0.0830887
0.00408413
-0.0453737
0.010356
-0.239376
0.0912463
0.148127
-0.0123664
-0.167141
-0.143152
0.310286
0.00330911
-0.14396
-0.0261069
0.0414628
0.092537
0.189772
-0.0167278
0.22176
-0.10538
0.121628
0.14512
-0.443707
-0.172284
-0.0140978
0.0134752
0.000622644
-0.000322165
0.00760361
0.00195672
-0.0017573
-0.00927337
-0.00071683
0.00999018
-0.0211288
0.0107726
-0.0212048
0.0104324
-0.0012543
0.145952
-0.0172389
-0.128713
0.576204
-0.298667
-0.277538
0.0269775
-0.0772459
0.144408
-0.394231
-0.376927
0.0864332
0.00804581
-0.135277
0.127231
0.0103433
-0.0132482
0.00290474
-0.0560627
-0.199423
0.255486
0.21144
-0.225899
0.0144576
-0.144829
0.110011
0.0348171
-0.156033
0.00286374
0.153168
0.395854
-0.178688
-0.217166
-0.00649571
-0.00300895
0.00950479
0.459424
-0.291249
-0.168184
-0.00659968
0.00797191
-0.00137218
0.0930061
0.0136388
0.161496
0.286607
-0.311417
0.217648
0.0937681
0.106378
-0.125101
0.01872
0.0102962
-0.239574
0.0292989
-0.0300434
0.000744695
-0.0260158
0.0529932
-0.148728
0.362721
-0.213994
-0.0140981
0.0104743
0.00362409
-0.00563584
0.105614
0.123527
-0.118292
-0.00523392
-0.0581377
-0.18124
-0.0162318
-0.0283712
-0.020007
0.00203564
0.0179714
-0.344579
0.19585
0.000641767
-0.0948301
0.0941884
0.37153
-0.187428
-0.18411
0.102627
-0.0372781
0.0538815
-0.0166032
0.00484487
0.00670457
0.205611
-0.190321
-0.0152906
0.153131
-0.0246722
0.234101
-0.405305
0.171203
0.121446
-0.128993
0.00754767
-0.00703002
-0.00116503
0.0113049
-0.0136136
0.00230872
-0.265392
0.402974
-0.137585
-0.0206192
0.0122092
0.00841015
-0.353598
0.114026
-0.0148844
0.174695
-0.16721
-0.00748304
0.340646
0.146742
-0.0880544
-0.136141
0.0105249
-0.0121356
0.00161097
0.13361
-0.0552324
-0.00357302
0.217569
-0.273629
-0.170213
0.328581
0.00341869
0.00056248
-0.00398114
0.148708
0.402008
-0.550719
-0.137933
0.0094688
0.128476
-0.189566
0.258075
-0.068507
0.193627
-0.174485
-0.01914
0.200605
-0.0318895
-0.168716
-0.00813561
0.0161905
-0.0080548
0.0198428
0.00112478
0.0857479
-0.238082
0.152334
0.0172249
-0.0151676
0.0900795
0.188093
-0.278171
-0.00776209
0.146549
-0.138787
-0.00286954
-0.00673043
-0.0106942
0.0101565
0.290326
-0.315874
0.0255415
0.137472
0.00119194
0.0924203
-0.0116648
-0.000470696
0.0244379
-0.0987713
0.0743338
-0.0244407
0.145888
0.078797
-0.0199092
0.194385
-0.0196881
-0.0802115
0.168749
0.00392545
-0.00345536
0.00599772
0.000877281
-0.00687483
-0.0481137
0.129026
-0.0809132
-0.0073511
0.000751468
-0.0982635
0.104819
-0.00655536
0.00585329
0.0079925
-0.0138457
0.314998
-0.220147
-0.0948552
0.0704079
0.0179901
0.04367
-0.0513408
0.514407
-0.244197
-0.270218
0.0181763
0.00230623
0.000291576
-0.000255406
-3.60463e-05
0.164701
0.0206292
0.31144
-0.127183
-0.184262
-0.0515761
0.0443065
-0.108634
0.136978
-0.0283447
-0.00790641
0.0148347
-0.0069284
-0.267832
0.179344
0.601137
-0.0575788
-0.543573
-0.0884788
0.13194
-0.0434611
-0.146048
-0.00998554
-0.500789
0.330488
-0.00280498
0.500665
0.100456
-0.109122
0.010859
0.231188
-0.213411
-0.0177795
0.0183732
-0.140971
-0.25089
0.178711
0.2077
0.188155
-0.150508
0.0102349
0.14027
-0.00905434
-0.0115648
0.186
-0.166507
-0.0194921
-0.00223673
0.00688376
-0.290679
0.483541
-0.192876
-0.421392
0.0117115
0.409649
-0.00181464
-0.159815
-0.146037
-0.179525
-0.101376
0.140366
-0.0389901
-0.276326
0.189024
0.087302
-0.109266
-0.0522187
0.0880645
-0.017656
0.320468
-0.556998
0.236529
7.78398e-05
0.0011308
-0.00120857
0.316987
0.350886
-0.112359
0.112154
0.000207294
0.0127684
0.00445663
0.000715519
-0.00520306
0.00448806
0.0263263
0.0176715
-0.0255781
-0.0445146
-0.100316
0.0926937
-0.127897
0.0352026
0.00070279
-0.000411003
0.237465
-0.386901
0.149434
-0.00712651
0.000630898
0.132144
-0.167469
0.179431
-0.00034125
-0.00893209
-0.000202106
0.0535421
-0.05334
-0.356659
0.156282
-0.140201
0.0388244
-0.104134
0.315156
-0.0049894
0.0108428
-0.0231989
0.00438257
0.0188164
0.0279007
0.189414
-0.217321
0.0498431
-0.00442632
-0.00371396
0.00814037
0.616423
-0.341914
-0.274509
0.390662
0.225762
0.135112
-0.00651841
-0.000339142
0.000417018
-0.0325919
0.0495694
-0.0169773
-0.220784
0.0314681
0.137335
-0.128826
-0.0085091
0.171596
-0.290053
0.32086
-0.380553
0.0596931
0.0502792
-0.0753932
0.0251143
0.00326023
0.153028
-0.092588
-0.0604393
0.162854
0.316886
-0.479742
-0.075188
-0.0661233
0.0869282
0.0496506
-0.136579
0.033044
-0.147361
0.114318
-0.269864
0.0926826
0.177181
-0.204886
-0.0200242
-0.139829
0.0311941
-0.175889
0.08741
-0.14072
0.0857893
0.0160862
0.167523
-0.139889
-0.0626239
-0.126279
0.0781639
-0.0977267
0.0893706
-0.0296907
-0.0773886
0.0067972
-0.0146648
0.00786766
0.000157582
0.0291424
-0.0810517
0.0114418
-0.0123766
0.000131462
0.0122453
-0.0128125
-0.115003
0.127813
0.0135504
-0.0508283
-0.00177093
0.14829
0.196307
-0.344603
0.112178
-0.19239
-0.132909
0.103218
-0.00257933
0.184751
-0.182177
0.224602
-0.435973
-0.451289
0.241424
0.209854
0.127107
-0.102951
-0.0241548
-0.000536931
-0.00597408
-0.216953
0.0575602
0.013054
-0.00163687
0.185181
-0.475875
0.0150626
-0.0476543
-0.0295662
0.0999074
-0.0703421
0.0228985
-0.00217586
-0.107977
-0.0322247
-0.0300343
0.219484
0.100458
0.169621
0.0031906
0.0197081
0.0950978
0.0579299
-0.14262
0.129805
0.0145932
-0.319026
0.34074
-0.0752981
0.0931519
-0.0178543
0.0147486
-0.0624554
-0.0466663
0.191556
-0.0196666
-0.171889
0.128916
-0.114883
-0.0140333
-0.248098
0.213995
-0.328323
-0.0208023
-0.187342
0.337471
-0.0166113
0.00757966
-0.00594145
-0.00163812
-0.409425
-0.150793
0.0812185
-0.0309392
0.00195772
-0.137288
0.029311
0.0106419
-0.0134605
0.00281872
-0.00870338
-0.0132769
-0.10828
0.0458251
-0.0279002
0.120593
0.170494
-0.144168
0.13166
-0.24282
-0.0511382
0.0293128
0.337127
-0.36645
0.00376488
-0.425157
0.391317
0.16732
-0.140905
-0.0264157
-0.017224
-0.107163
0.124387
0.109579
-0.0226511
-0.00692793
0.0475766
-0.242233
0.00312521
0.239103
0.000800836
0.500795
0.0962254
0.0084559
-0.00589969
-0.00242189
-0.146565
0.148981
0.0601438
0.440653
0.23078
0.248325
-0.479104
0.00214896
0.00268575
-0.00483444
0.0222681
-0.2273
0.00873389
0.0239184
-0.0326526
0.000337664
0.0003654
0.124176
0.104802
-0.138536
0.0337344
-0.239479
-0.147735
0.387214
0.00235389
0.00292335
0.0127014
0.155588
-0.168292
0.0549972
-0.254419
0.0126716
0.347506
0.176258
-0.523763
0.0133841
-0.251335
-0.151538
-0.191545
0.343079
-0.0238063
0.159211
-0.135404
0.00779092
-0.00703208
-0.00075877
0.0179842
-0.198633
0.180647
-0.18985
0.180402
0.0094478
-0.125413
-0.0037573
0.015215
-0.00391006
-0.17892
0.110407
0.0253072
0.133736
-0.159046
0.0120218
-0.00683481
-0.00518679
-0.356201
0.385504
0.00528991
-0.325376
-0.193961
0.519328
0.0434581
0.263154
-0.0401848
-0.0028229
0.0430079
-0.0759586
0.127642
-0.0516887
-0.0250578
-0.110676
0.136798
-0.0271795
-0.109619
0.0119217
-0.535346
0.320168
0.21518
0.390354
0.206666
0.128402
-0.136167
0.245612
0.0693814
-0.111226
-0.424118
0.208892
-0.235656
0.0267663
0.13688
-0.017727
-0.119153
-0.396075
0.432709
-0.0366493
0.0942178
-0.122607
0.0283884
0.0363553
-0.0369701
0.0390652
-0.00209505
0.0127805
0.124016
-0.00407662
-0.0035992
0.00767587
-0.0126552
0.133111
0.479167
0.12455
-0.135256
0.0107066
-0.518306
0.241225
0.277068
0.139884
0.108801
-0.0117185
0.0185157
0.0152983
-0.00522854
-0.00112868
-0.0150701
0.0082354
-0.192273
0.308666
-0.116401
-0.191128
0.219023
0.120694
-0.0879353
-0.03276
0.22285
-0.216544
-0.00631051
-0.195868
-0.187879
0.383737
-0.00774672
-0.0123764
0.107484
0.00946524
0.000429335
-0.00749093
0.00706153
-0.00788417
-0.127539
0.0515714
-0.344353
0.306809
0.0375429
0.00204312
-0.33237
0.0797887
-0.0418994
-0.0378894
-0.0915816
-0.0471476
0.261029
0.498475
0.126252
-0.624724
0.0274268
0.0944351
0.114745
0.0106104
-0.125352
0.0103225
-0.251909
0.030408
-0.626398
0.359376
0.267013
0.00832064
-0.000529731
-0.249729
-0.020135
-0.011034
-0.175284
0.186317
0.362386
-0.515146
0.0108496
-0.0128165
0.00196681
-0.475363
0.167492
-0.020249
0.0050815
-0.281229
-0.122622
0.40385
0.0260014
-0.130131
0.193519
-0.170362
-0.0231575
0.137121
-0.0649693
-0.0721529
0.00170663
-0.312523
0.0859226
-0.275977
0.165225
0.11075
0.594305
-0.345408
-0.248916
-0.0294071
-0.0549839
0.0843913
0.0647211
-0.23752
0.172798
-0.00185291
0.000293721
-0.0586635
0.265453
-0.206792
-0.0446542
0.0174374
0.0272169
-0.00184445
0.00691039
-0.00506586
0.00756914
-0.181718
0.174148
-0.157772
0.408728
-0.250975
-0.0011398
-0.00841366
0.00955346
-0.0204805
-0.0127753
0.0332559
0.236883
-0.151131
0.111762
0.0158753
0.0377906
-0.280611
0.00248655
0.000338322
-0.00282482
0.328874
-0.180591
-0.0683396
-0.0645695
0.472075
-0.222891
-0.249191
0.425244
0.169046
0.039397
-0.0306631
0.00628587
0.287215
0.209232
-0.19154
0.0616716
0.000921127
0.00955383
-0.0104749
-0.0624484
0.0698002
-0.00735185
-0.00734652
0.0029202
-0.124531
-0.222633
0.000113596
-0.0124901
0.11414
0.343011
-0.603752
0.207659
-0.225691
0.212904
-0.408116
0.300651
0.279658
-0.550167
0.270509
0.00415661
-0.00257581
-0.00158072
0.0181901
-0.00923326
-0.00895674
-0.283837
0.097617
-0.432203
0.532645
0.161862
0.0437488
0.0759268
0.268726
-0.0093793
0.00823946
-0.0143621
0.00924784
0.0099907
0.00277697
-0.182899
-0.0930807
-0.0891437
0.249203
0.265197
-0.0278106
-0.180454
0.0822762
-0.111843
-0.14011
0.377573
0.187933
-0.513315
-0.109025
0.0833774
0.0256475
-0.00884487
-0.014354
0.136699
-0.031896
-0.0108871
0.166843
-0.0217277
-0.145118
-0.409037
0.21233
0.166726
0.00014839
-0.166875
0.129527
-0.0177647
0.017855
-0.0186789
0.000824024
0.168439
-0.183372
0.0439101
0.0140242
-0.0579342
-0.133702
0.0421211
0.0563532
0.430459
-0.000579407
0.00499794
-0.00441857
-0.0017139
0.00113446
0.000388616
-0.00571021
0.00532163
-0.0366472
-0.0367633
0.053848
-0.0170844
-0.0881858
0.17943
0.0583827
0.0117845
-0.0204395
0.0648857
-0.0444461
-0.192739
0.190155
-0.579638
0.365557
-0.00591231
0.00450991
0.00140245
-0.232289
0.229639
0.00264601
-0.473154
0.315362
0.0445226
0.245797
-0.225837
-0.00645787
-0.00239865
-0.119263
0.230207
-0.382751
0.152533
-0.00154565
0.168271
0.0145965
0.00198129
-0.137216
-0.111431
0.248642
0.00275641
0.0143663
0.0700641
-0.219184
0.149119
0.00801035
0.114244
-0.122245
-0.00370947
-0.00774604
0.0114556
-0.287261
0.0872575
-0.0628192
-0.229644
0.11093
0.118711
0.184119
-0.176551
-0.0700275
0.0075789
-0.0125982
-0.123559
0.0110248
0.11253
0.165729
-0.00767497
0.00859613
-0.160815
0.328369
-0.167553
0.000762407
0.00158551
-0.00234786
-0.0144382
-0.177802
-0.0158789
0.00181197
0.014067
-0.0200237
0.0189238
0.00109995
-0.00300876
0.0037712
0.00187554
0.1398
-0.141675
-0.150642
-0.15096
0.301599
0.113144
-0.305425
-0.314404
0.658338
-0.343933
-0.185282
0.419095
-0.111321
-0.307775
0.0100286
-0.173217
-0.00134959
0.0117216
-0.150798
0.139076
-0.0626381
-0.116282
0.126439
-0.214628
-0.367037
0.242493
-0.00101612
-0.195003
0.196022
-0.186318
0.166521
0.0197926
-0.151549
-0.159869
-0.137818
0.193844
-0.00144548
-0.000625978
0.0020715
-0.025891
-0.0601815
0.0860729
0.0188858
0.18193
-0.200818
-0.154186
0.00888816
0.145295
-0.00310249
-0.00280976
0.224822
-0.008228
-0.00436074
-0.563548
0.207335
0.140769
0.0121845
-0.152956
-0.141497
0.206217
-0.184865
0.356582
-0.171725
0.105268
-0.149208
0.0439386
-0.158956
0.423052
-0.142973
0.373168
-0.0539613
0.10828
-0.097417
0.280706
0.108736
0.028143
-0.310207
0.164143
-0.0181763
0.00194859
0.0162277
-0.0533715
0.0628376
-0.00946599
0.0118791
-0.110595
0.0987161
0.0982486
-0.0976066
0.130507
-0.333568
0.203058
-0.00297164
-0.131593
0.123079
0.00851282
0.527052
-0.00157094
-0.0141124
-0.211789
0.00385237
-0.0120811
0.2144
-0.204746
-0.00965532
-0.0586089
0.0379595
0.0161697
-0.011432
0.000627806
-0.13732
0.0842683
0.0530507
0.118181
0.200429
-0.318616
-0.0152825
-0.0166221
0.0545815
0.0171184
-0.121126
-0.108521
0.326469
0.157058
-0.266162
0.393584
-0.127423
0.0733364
0.105082
0.258516
-0.303778
0.0452594
0.000790973
-0.0207979
-0.0105466
0.283334
0.292869
-0.0566264
-0.0653619
-0.123919
0.0410831
0.0828357
-0.307618
0.156076
-4.08101e-05
-0.00140459
-0.0122469
-0.008002
0.126057
-0.0185724
-0.22399
0.165327
0.00748902
0.00870156
0.165505
-0.162183
0.476329
-0.314159
-0.00867885
0.00910812
-0.127319
0.152624
0.380357
-0.267762
-0.112596
0.423969
-0.175006
-0.248972
-0.201832
0.179742
-0.175197
0.143355
0.0318448
-0.00462356
0.00331903
0.0018977
0.0061118
0.0264239
0.139572
-0.165995
0.000243244
-0.00324506
0.00300173
0.0726483
-0.228132
0.155485
0.159902
0.163094
-0.322999
-0.0902166
0.0483895
0.0418277
-0.232474
-0.218827
-0.0149438
-0.06167
0.0766136
-0.405505
0.588979
-0.244548
-0.344447
0.122923
0.0877627
-0.210689
-0.0734189
-0.00388451
0.00523554
-0.00135102
0.0034767
-0.000990062
-0.0796724
0.103
-0.0233269
0.00234879
-0.0197684
0.0174197
0.00107962
-0.000502923
-0.000576527
0.128403
0.0175484
-0.0845077
-0.213041
-0.148244
-0.161985
0.0085509
0.13681
0.499695
0.036722
-0.536432
0.14959
-0.152022
0.00450352
-0.045941
-0.0426484
-0.113606
0.547034
-0.123995
0.151069
-0.0270762
-0.0130044
-0.11543
0.125911
-0.0104851
-0.00624684
-0.00926959
0.123241
-0.0975619
0.438207
-0.174083
0.0432115
-0.0463387
0.00312725
0.0182023
0.190693
-0.000882134
0.00862533
0.0179598
-0.301946
-0.324461
0.137695
0.24266
0.440817
-0.277123
-0.163703
0.2211
-0.0281309
0.113552
-0.10395
-0.00960175
-0.00757771
0.0155704
0.00291472
-0.000765405
0.0645279
0.105967
0.311504
-0.470467
0.0257678
0.0673837
0.237221
0.0901153
0.00507494
-0.0385023
0.0171542
-0.0151185
0.128782
-0.120737
0.00220533
0.0100039
0.0047102
-0.00996634
0.00588979
0.0254489
0.116222
-0.141669
-0.0216431
0.190082
0.010601
-0.0104873
0.197549
-0.178663
0.0885531
0.0851025
-0.173657
0.0964254
0.0242682
-0.0336797
0.341121
-0.138223
-0.202903
0.05952
0.0102799
0.325073
-0.165174
-0.0119442
-0.010558
0.0225023
-0.00216187
-0.37463
-0.188929
0.173049
0.154751
-0.0494852
0.124213
-0.0178379
0.19263
-0.155473
-0.0371588
-0.341235
0.549159
-0.207936
0.028564
-0.218128
-0.179775
0.21037
-0.0305956
-0.121876
-0.124149
0.246026
0.00970961
0.0590826
-0.0687925
0.282246
-0.457858
0.175612
0.00987828
-0.0303586
-0.00704395
0.0074326
0.174053
0.151017
-0.191273
0.16963
-0.0349426
-0.140253
-0.486254
0.242049
0.0124634
0.00283495
0.00718419
-0.00346975
0.00111613
0.00223217
-0.00334822
0.206732
0.244552
-0.451292
0.0157511
-0.209372
0.193616
0.00749989
0.18667
-0.194175
-0.22705
-0.0164209
0.243469
-0.111315
0.0305765
0.0807387
0.02419
0.389638
-0.598136
0.208499
-0.0203576
0.126069
-0.105725
-0.139496
-0.0363939
-0.033594
0.0113012
0.022293
0.165709
-0.001403
0.0307128
-0.210488
-0.232471
0.0642319
0.168234
0.0920671
0.132462
-0.014109
-0.118353
0.128304
-0.236783
0.365812
-0.129034
-0.00586092
0.016109
-0.00283199
-0.0132769
-0.0210016
0.0189336
-0.00455213
0.0153248
-0.0207029
0.00875878
0.00251949
-0.0131053
-0.0027735
0.365489
-0.187544
-0.17795
-0.336644
0.166427
0.191028
0.114654
-0.305686
-0.0271781
-0.0715929
-0.108386
-0.0454708
-0.131122
-0.0146797
0.0141613
0.000518426
-0.32605
0.165235
0.183429
0.340092
-0.523534
0.378508
-0.0260686
-0.0740526
0.306916
0.212229
0.144261
-0.221317
0.0770553
0.0919666
0.103541
0.0426359
-0.0383125
-0.00432336
-0.102946
0.214183
-0.111239
-0.332922
-0.185395
-0.446594
0.257206
-0.135937
0.32973
-0.1938
0.185889
-0.618108
0.130875
-0.109782
-0.0210934
-0.0810424
-0.0302721
-0.0364015
0.124953
-0.0162855
0.00475563
0.01153
-0.20283
0.345437
-0.142611
0.14956
0.000941965
0.00229178
-0.00413608
0.00647617
0.000319092
0.0438714
0.00566615
-0.0495374
0.0571644
0.0513645
-0.108529
0.0333378
0.0305603
0.428201
-0.126501
0.123252
0.00324735
0.0121538
-0.24463
-0.424257
0.143025
-0.192661
0.20583
-0.0131674
0.00488529
0.109727
-0.291364
0.181631
0.129168
0.00329386
-0.0492068
0.0342628
0.303874
-0.202615
-0.304711
0.119838
-0.155897
0.132468
0.0234291
0.0052719
0.373045
0.198968
-0.572011
0.0205756
0.0220603
-0.12207
0.313095
0.0749529
-0.102131
0.4631
-0.232319
-0.108252
-0.175594
0.0675831
-0.0580045
-0.0385638
0.0965681
0.0617082
0.224448
0.0216698
-0.0740182
0.00678338
0.00534924
-0.099813
0.000688724
0.00187466
-0.00256323
-0.342943
0.10141
0.00166364
0.0161914
-0.0693803
0.0489409
-0.394916
0.298602
0.09631
-0.00609051
-0.0402483
0.0170719
-0.107567
0.0722875
0.0352804
-0.227994
-0.198519
-0.115827
0.314349
0.427671
-0.440456
0.0127707
0.309844
0.252617
-0.0378694
-0.214754
-0.143068
0.138165
0.00490337
-0.123034
-0.0173397
0.140374
-0.194823
0.312999
-0.215415
0.432162
-0.106754
0.040721
-0.248943
0.425187
-0.176249
-0.0065696
0.00711258
-0.000542951
-0.190662
0.0239873
0.00104959
-0.0162357
0.0151862
0.0433458
-0.0615592
0.252237
-0.472924
0.220685
0.0221076
0.241615
-0.531702
0.290069
0.198931
-0.0302356
0.109709
-0.139905
0.0301957
0.0618092
-0.0179376
0.143211
-0.141334
0.342191
-0.593056
0.250867
0.125499
-0.0357616
-0.0899047
0.0470548
0.0428503
0.121777
-0.113759
0.0169533
-0.0777243
0.0607711
0.14048
-0.0960871
-0.0443936
0.124946
-0.14217
-0.0792691
-0.0497237
0.140238
-0.0012988
-0.13894
0.0879959
-0.190944
0.233112
0.188214
0.0481652
-0.00876816
0.00428355
-0.0312541
0.214643
-0.183394
-0.424725
0.262531
-0.0126176
-0.00411749
0.298959
0.194821