/*--------------------------------*- C++ -*----------------------------------*\
| =========                 |                                                 |
| \\      /  F ield         | OpenFOAM: The Open Source CFD Toolbox           |
|  \\    /   O peration     | Version:  v2012                                 |
|   \\  /    A nd           | Website:  www.openfoam.com                      |
|    \\/     M anipulation  |                                                 |
\*---------------------------------------------------------------------------*/
FoamFile
{
    version     2.0;
    format      ascii;
    class       volScalarField;
    location    "350";
    object      k;
}
// * * * * * * * * * * * * * * * * * * * * * * * * * * * * * * * * * * * * * //

dimensions      [0 2 -2 0 0 0 0];


internalField   nonuniform List<scalar> 
13917
(
0.00880066
0.000164031
0.000188195
0.000146214
0.00015944
0.000163406
0.000152411
0.000186074
0.000151429
0.00253069
0.00018357
0.000144249
0.000161436
0.016264
0.000154922
0.00820091
0.000188967
0.000178153
0.000178508
0.00784728
0.000158974
0.000144097
0.000161767
0.000144118
0.000148359
0.000160751
0.000596018
0.00176618
0.000167746
0.000148215
0.0019573
0.000168724
0.00014609
0.0134293
0.000145147
0.000195122
0.000149605
0.000180805
0.000152506
0.00016088
0.000207936
0.000147679
0.000149845
0.000177387
0.000177169
0.000191494
0.000157872
0.0208772
0.018505
0.000145161
0.000144111
0.000180347
0.00589999
0.000143689
0.00014401
0.000179992
0.000804456
0.000161709
0.000147277
0.000190979
0.0233665
0.00016986
0.000179811
0.000148031
0.000977976
0.000208455
0.000170449
0.000195863
0.00018151
0.00894765
0.000169463
0.012816
0.000144655
0.000146742
0.000159669
0.000149146
0.000151405
0.000146403
0.000148785
0.000146309
0.000145573
0.00018706
0.000144612
0.000197697
0.000141785
0.000198252
0.000168067
0.00014494
0.000160592
0.000181366
0.0001456
0.000150088
0.0191042
0.000143953
0.000145559
0.000170082
0.000127797
0.000175591
0.000144261
0.000184366
0.000197402
0.000191885
0.000145712
0.000149893
0.000151229
0.000205455
0.0110588
0.000171356
0.000148274
0.00389876
0.000144392
0.0135516
0.000167505
0.0202811
0.000566985
0.000149834
0.000177395
0.00015436
0.000185702
0.000144511
0.000173888
0.000145192
0.000172894
0.000175582
0.0098517
9.8689e-05
0.000147707
0.000160707
0.000142487
0.000175849
0.000156115
0.000187159
0.00810269
0.000149798
0.000171712
0.00424279
0.0283296
0.0104506
0.000162361
0.000180395
0.0142991
0.00014587
0.000215646
0.000141693
0.000144328
0.000153687
0.000166092
0.0102145
0.018681
0.000143847
0.000159047
0.000187813
0.000144254
0.000144566
0.000269723
0.000146422
0.000149162
0.0107481
0.000192352
0.000166071
0.000141514
0.00745402
0.000152579
0.014119
0.010575
0.000190104
0.00563108
0.0274331
0.000135581
0.000163718
0.000144615
0.00787388
0.00015139
0.0115386
0.000171167
0.000191384
0.000146232
0.000182272
0.000155747
0.000153214
0.000149678
0.000144275
0.000144084
0.000187694
0.000186101
0.000186964
0.000143966
0.000187594
0.0001482
0.000193824
0.000171423
0.000175914
0.00018337
0.00885024
0.000143897
0.00988155
0.000151812
0.00503107
0.000145003
0.000145807
0.000156114
0.00889072
0.00988972
0.000148777
0.000711323
0.000161118
0.000159398
0.000145746
0.00018166
0.00014557
0.000140785
0.000168004
0.000169288
0.0205794
0.000171219
0.000161774
0.00947627
0.000156469
0.000140307
0.000140268
0.0284394
0.000185405
0.00018999
0.000143181
0.000181515
0.0112743
0.00913643
0.000139181
0.000138921
0.000205606
0.000140847
0.000140806
0.0120605
0.0119935
0.000144522
0.000137644
0.000171948
0.012297
0.000191733
0.000143173
0.000767226
0.000210364
0.000186312
0.0100214
0.00017757
0.000141722
0.0162901
0.000172796
0.000165773
0.000171342
0.0001483
0.0135698
0.000144518
0.000161389
0.00016925
0.0001449
0.000206158
0.000147978
0.000155953
0.000146086
0.0124048
0.0244244
0.000144898
0.000138547
0.000146757
0.000138616
0.000144548
0.000161578
0.000158578
0.000145434
0.0127035
0.0114483
0.000143163
0.000152484
0.000203165
0.000141296
0.000180667
0.013773
0.000141284
0.0101998
0.000145721
0.00680938
0.000194643
0.000152845
0.000145133
0.000141597
0.000183456
0.000166445
0.000201489
0.000154099
0.0234388
0.000155097
0.000146836
0.0104823
0.000164488
0.000164335
0.000157342
0.000150317
0.000158564
0.000148686
0.000144504
0.000158146
0.000182182
0.000167291
0.00016091
0.000148401
0.000143059
0.00875758
0.00809609
0.000142278
0.000160655
0.000150341
0.00433019
0.000179829
0.0121792
0.0102526
0.000188153
0.000185052
0.000151687
0.000200424
0.00596939
0.000188052
0.00016022
0.000154393
0.000650628
0.000145513
0.000165754
0.000175657
0.000191142
0.00752159
0.000142117
0.000160091
0.000146493
0.00558388
0.000139899
0.00015979
0.000161624
0.000182036
0.00017566
0.000171288
0.000216339
0.000145259
0.000145512
0.0138009
0.000216146
0.00439257
0.0159335
0.00014065
0.000144345
0.000205298
0.000184851
0.000140662
0.000158728
0.000143834
0.000169688
0.000160226
0.000179256
0.000177315
0.00018064
0.000159849
0.0118231
0.00014267
0.000145275
0.000161289
0.000186016
0.0001963
0.00848604
0.000159739
0.00549535
0.000144187
0.000182018
0.000160047
0.016003
0.000148044
0.000190167
0.000198732
0.00016337
0.000143236
0.000205425
0.000148815
0.0107608
0.000184565
0.000148311
0.0150786
0.000146181
0.00126311
0.000140919
0.00787699
0.0012353
0.000148718
0.0163524
0.000177768
0.000147534
0.0100859
0.000188773
0.000147914
0.000184212
0.000143965
0.000178977
0.000187815
0.000142287
0.000151937
0.000148355
0.00014151
0.00014054
0.000142813
0.0385523
0.000188202
0.000144687
0.000143232
0.000143496
0.000164031
0.000195821
0.000143684
0.000135663
0.000179396
0.000181369
0.000141708
0.000148416
0.00788092
0.00339662
0.000249481
0.000179445
0.000212751
0.000145049
0.0001428
0.000157028
0.000140498
0.000143678
0.000144757
0.000142827
0.000144713
0.016585
0.000144157
0.000162028
0.013706
0.000164225
0.000140885
0.000144168
0.00976755
0.000156345
0.00904888
0.000145516
0.00014288
0.00014961
0.000141429
0.000149319
0.000146711
0.00687915
0.000156181
0.000211872
0.000142846
0.000157427
0.000149571
0.000145365
0.000176823
0.00475625
0.00014371
0.0201946
0.000141018
0.000143763
0.000143311
0.000146211
0.000140515
0.000149103
0.00979937
0.013815
0.000140404
0.00011619
0.000179123
0.00014646
0.000166023
0.00017031
0.0109206
0.000152631
0.000217327
0.00359323
0.0033539
0.000146736
0.000192976
0.000142501
0.000147962
0.000124522
0.000149146
0.000143491
0.000145563
0.00015168
0.00015818
0.000184329
0.000164568
0.000150969
0.000154115
0.000176859
0.000167301
0.000144684
0.0256413
0.000158153
0.00015402
0.0107575
0.000141854
0.00016809
0.000184207
0.000140083
0.0155508
0.000144635
0.000141443
0.00016455
0.000145481
0.000152787
0.000181663
0.0118814
0.0315283
0.000141514
0.000147
0.000150282
0.000153478
0.000215989
0.00014432
0.000143862
0.000141437
0.000167483
0.00959484
0.00014304
0.000190231
0.000145545
0.00014142
0.00015333
0.00015396
0.000157212
0.000164942
0.000140109
0.000143611
0.000148092
0.0124599
0.000137854
0.000149378
0.00014604
0.000156946
0.00016931
0.000172234
0.000170152
0.000186091
0.00014754
0.00017379
0.00353127
0.0133282
0.0152405
0.000142076
0.000143176
0.000154094
0.000143005
0.000842311
0.000141993
0.0122373
0.000151753
0.000534441
0.000182855
0.000149867
0.00930655
0.000140399
0.000167505
0.000168453
0.00014941
0.00137586
0.000144571
0.000187456
0.000187547
0.000152026
0.000143357
0.000183846
0.000154008
0.000137664
0.000177506
0.000165572
0.0110094
0.000212912
0.00711782
0.0108359
0.000137908
0.00926845
0.000160784
0.0225277
0.0101169
0.000150306
0.000162086
0.000195329
0.000157913
0.000149432
0.000144571
0.000168007
0.000160557
0.000210538
0.000141742
0.00016678
0.000143347
0.000137467
0.000189417
0.0001878
0.000756056
0.0108067
0.00017023
0.000153777
0.000202343
0.0128214
0.000141266
0.000568755
0.000159063
0.000175628
0.000142955
0.000205457
0.000141337
0.000153359
0.000144422
0.0108552
0.000158614
0.00296268
0.000153616
0.000157938
0.000144505
0.000197729
0.0122512
0.000190946
0.00014544
0.000180685
0.000143054
0.000148581
0.000190598
0.0130032
0.00014177
0.000157226
0.000142034
0.000145059
0.000185911
0.000187943
0.000179242
0.000186551
0.00013997
0.0297676
0.000167345
0.000144092
0.0058518
0.000187091
0.000182676
0.000184462
0.000140291
0.000155769
0.0118132
0.000189166
0.000156092
0.000149589
0.00015376
0.000174763
0.000142496
0.000176592
0.000170893
0.00015092
0.0134348
0.000158889
0.000467604
0.000291155
0.000162626
0.00015873
0.000182592
0.0110214
0.000144466
0.000156832
0.000180178
0.000140022
0.00015365
0.00019089
0.000151557
0.000151635
0.00919873
0.000157167
0.000144289
0.000174535
0.000152186
0.012314
0.000145757
0.000142578
0.0139919
0.000167959
0.00706748
0.000144773
0.0001501
0.000142827
0.000146044
0.000153679
0.000141609
0.00962944
0.000155593
0.00941533
0.00761259
0.000156312
0.00658567
0.000147024
0.000159682
0.000144772
0.0142577
0.026586
0.000152179
0.00961117
0.0118785
0.000139961
0.000142467
0.000149393
0.000218505
0.00852238
0.000158856
0.000145891
0.000149389
0.000176221
0.000150422
0.000179059
0.000157312
0.00014534
0.000146355
0.000162416
0.000153541
0.000154187
0.000190151
0.000150893
0.000151979
0.00951206
0.000154655
0.0120746
0.000149054
0.000159791
0.000151579
0.000188333
0.000173126
0.000166362
0.000158842
0.00404014
0.000143133
0.000150862
0.000160694
0.0001427
0.000144418
0.000160593
0.000155469
0.000187499
0.000179427
0.000140166
0.000191673
0.000151372
0.000151707
0.000181308
0.000144625
0.000167475
0.000114017
0.000137165
0.000167858
0.000174413
0.000157086
0.0001415
0.000140622
0.000142497
0.00841462
0.000145913
0.000146526
0.000159803
0.000141709
0.000141217
0.000179204
0.000204102
0.000167735
0.00542198
0.000167624
0.000201833
0.000144469
0.000152409
0.000193259
0.000150432
0.000105035
0.000180606
0.000153073
0.000144596
0.000151535
0.000173209
0.000141497
0.0013569
0.00014515
0.0102617
0.000149106
0.000152519
0.000146475
0.000171571
0.000153364
0.00654642
0.000168775
0.000198666
0.0121225
0.000146563
0.0117037
0.000149178
0.00018055
0.000149322
0.000141835
0.000143088
0.00726986
0.000153483
0.000185084
0.00447969
0.00014268
0.00015727
0.000137269
0.00015821
0.00956138
0.000138254
0.0135718
0.000149498
0.000182478
0.00017696
0.00234226
0.000139356
0.000150825
0.000178567
0.000140291
0.000143534
0.000147486
0.000143046
0.0001599
0.000139173
0.000189182
0.000145353
0.00857272
0.0116415
0.000808818
0.000208316
0.0168235
0.00817999
0.00489763
0.000139672
0.000148294
0.000143659
0.000146444
0.00014144
0.000153651
0.000141842
0.000189052
0.000143688
0.000198198
0.00014567
0.000155197
0.000176462
0.000142613
0.000162114
0.000146552
0.000149851
0.000151782
0.000148812
0.00615903
0.000172172
0.00180981
0.00014237
0.000143985
0.000144953
0.000145396
0.0106019
0.00013979
0.000189356
0.000141269
0.00473249
0.000152635
0.000141715
0.000166987
0.000171599
0.000139868
0.00662204
0.000288031
0.000149514
0.000171467
0.000140337
0.000186099
0.000150322
0.000145342
0.0108315
0.000161102
0.000146432
0.000174157
0.0102077
0.000152229
0.0110428
0.000203379
0.000148149
0.000147879
0.000143221
0.000211176
0.000143814
0.00017865
0.000143991
0.0153596
0.000153057
0.00383697
0.000143142
0.000143694
0.00163559
0.000156022
0.000153281
0.00109511
0.000147248
0.000140503
0.0134229
0.000148392
0.000148386
0.000170522
0.00014764
0.000999139
0.00016099
0.000170221
0.000183948
0.000149267
0.0146824
0.000145942
0.000169147
0.000143119
0.0134973
0.00440797
0.00014505
0.000150683
0.000148404
0.000144331
0.000149757
0.000144306
0.00014503
0.000143107
0.000154324
0.000137159
0.000146881
0.000169965
0.0105214
0.00816032
0.000172943
0.000144954
0.00194045
0.00014168
0.000192902
0.00937843
0.00538166
0.000141552
0.000139735
0.00014539
0.000143296
0.000141305
0.000149352
0.000142082
0.000159275
0.000140532
0.00831429
0.0113437
0.000140741
0.00585214
0.000143166
0.000142775
0.000168972
0.0130954
0.000169493
0.000181837
0.007738
0.000144212
0.000143034
0.000192871
0.000148671
0.000573386
0.000146686
0.0001881
0.000140883
0.000145257
0.000156397
0.000203488
0.000147348
0.013723
0.000176602
0.000161613
0.000148574
0.000143936
0.00014051
0.000174144
0.000156795
0.00015068
0.015087
0.0082303
0.000181078
0.000174976
0.000144817
0.0152793
0.000145098
0.00995823
0.000168305
0.00015205
0.000146939
0.00831368
0.0364611
0.00020246
0.000156558
0.010308
0.000149824
0.000141872
0.00015733
0.000145133
0.000143879
0.00019709
0.0103863
0.000145347
0.000152868
0.0122636
0.00018672
0.00014039
0.012296
0.0118778
0.000146166
0.00016534
0.000152114
0.000144032
0.000142931
0.000161069
0.00015193
0.000143605
0.00848347
0.000157591
0.000273557
0.00974442
0.000174272
0.0135337
0.000144895
0.000145471
0.000217072
0.0100077
0.000822239
0.000160942
0.000157604
0.000145781
0.000146742
0.000151628
0.00774064
0.000155182
0.000146071
0.000164012
0.000141577
0.00406473
0.000171085
0.0001781
0.000166031
0.000196542
0.00805802
0.00360272
0.0130953
0.000183149
0.000195109
0.000140696
0.00016688
0.00017249
0.00930806
0.000150295
0.000149324
0.000151219
7.76015e-05
0.000147492
0.0105061
0.000157557
0.00017535
0.00975445
0.000153188
0.00017543
0.000148282
0.000143461
0.000157192
0.000191642
0.00014521
0.00013991
0.000147041
0.000216519
0.000140509
0.000147292
0.000149388
0.000145915
0.000143222
0.000176411
0.000168925
0.000146052
0.000142259
0.000185243
0.000186258
0.000161413
0.0132807
0.000144819
0.000143568
0.0254154
0.000146502
0.000147716
0.012096
0.0141607
0.000157793
0.000167034
0.00015272
0.00843854
0.000190868
0.000157355
0.000176306
0.000142829
0.000172519
0.0106466
0.000186392
0.00870079
0.0123255
0.000144645
0.000143441
0.000162069
0.000143306
0.000143811
0.000190523
0.000159848
0.00016155
0.000138647
0.000165307
0.0104796
0.000147725
0.000132793
0.0138226
0.000143521
0.000170663
0.000152513
0.000147043
0.000142661
0.0153174
0.000169737
0.010683
0.000153259
0.0315419
0.000175089
0.000150515
0.000966923
0.0001576
0.000162541
0.000141774
0.000190119
0.000142704
0.000151449
0.000160287
0.000151626
0.00014594
0.000164702
0.00259837
0.000141576
0.000186276
0.000187942
0.00014353
0.000141573
0.000153564
0.0002043
0.000193022
0.000141599
0.000154749
0.000186075
0.00353533
0.00953184
0.000143744
0.000140808
0.000144689
0.000143979
0.000172574
0.000149065
0.000204461
0.000145605
0.000150031
0.000160377
0.000183358
0.000172656
0.0113962
0.0279746
0.000144926
0.000147532
0.000140437
0.00014663
0.000169115
0.00257685
0.00156283
0.00017731
0.000155878
0.00016288
0.000149241
0.000131386
0.000151123
0.000176875
0.00014371
0.000185694
0.000194607
0.000141169
0.000144808
0.0135022
0.000163187
0.000142085
0.0106292
0.000181273
0.000142728
0.000202432
0.000164504
0.000142373
0.00159858
0.00909969
0.000143807
0.000158274
0.000176889
0.000157818
0.000146049
0.000139093
0.00014163
0.000140794
0.000142733
0.000154596
0.000165408
0.0113049
0.000158135
0.000151444
0.000155375
0.000174283
0.000142162
0.000158417
0.000189177
0.000187856
0.0109584
0.000146966
0.000139077
0.0140245
0.000141629
0.000630292
0.000147599
0.000162221
0.000144553
0.000142034
0.000191449
0.00015187
0.00014675
0.000143934
0.0141846
0.000192483
0.012759
0.000144677
0.00014327
0.0116937
0.000165236
0.000145042
0.000181163
0.00913306
0.000152619
0.000156505
0.000145862
0.000213471
0.000142314
0.000149963
0.000145962
0.000138835
0.000187688
0.000142255
0.000140692
0.000198232
0.000165662
0.0069496
0.000187201
0.000141954
0.000154646
0.000141204
0.000142628
0.000148827
0.000150182
0.000143576
0.000186238
0.000143684
0.000170734
0.000157058
0.000158989
0.000144115
0.000153525
0.000142566
0.015814
0.000144732
0.000281918
0.000169043
0.00015266
0.000163602
0.00015642
0.000154822
0.000143084
0.000159919
0.000140704
0.000141241
0.00565134
0.000161026
0.000158526
0.000147802
0.000144353
0.000148984
0.000177738
0.000141574
0.0103676
0.000161884
0.000145542
0.000142839
0.000140358
0.00016186
5.98462e-05
0.0285734
0.000111991
0.00393952
0.000156744
0.000176598
0.000148836
0.00234381
0.000138633
0.000144228
0.000150568
0.00386768
0.000140535
0.0138821
0.000143311
0.000150123
0.000182143
0.000190416
0.00851882
0.00191993
0.000151336
0.000183644
7.10614e-05
0.000144211
0.00301629
0.000143243
0.000192176
0.000347056
0.000139708
0.0132692
0.000192329
0.000141191
0.000143143
0.000144301
0.00474634
0.000201456
0.000139122
0.000170508
0.000141998
0.000141101
0.00015209
0.000144623
0.000161133
0.000144334
0.000150403
0.000139445
0.000104429
0.000127092
0.000139555
0.000139609
0.000145977
0.000142737
0.000149533
0.000144807
0.000145499
0.000144483
0.000143827
0.000146301
0.000143189
0.000174572
0.000140404
0.000171752
0.000143786
0.000167675
0.000141459
0.000143507
0.000141584
0.000144815
0.000159358
0.000152478
0.000150912
0.00880509
0.000154688
0.0120647
0.0117267
0.000171576
0.0002019
0.000143504
0.000143113
0.000113817
0.0090499
0.00014914
0.0127189
0.000140854
0.000178304
0.0115391
0.000149275
0.000172368
0.0195196
0.0447975
0.000152716
0.000161759
0.000140824
0.000647092
0.00014987
0.0116861
0.00776889
0.000143952
0.000139147
0.000192636
0.000195056
0.000144409
0.00344325
0.000147815
0.000140673
0.000414071
0.0141969
0.000144231
0.00015562
0.000144434
0.000201944
0.000182263
0.000143193
0.000141682
0.000197925
0.000142516
0.000143575
0.00014581
0.000140037
0.000202825
0.000155666
0.000153617
0.0155989
0.000142763
0.000170328
0.000144664
0.000229163
0.00016582
0.000759263
0.000141316
0.000152887
0.000169531
0.000156264
0.000149596
0.000142968
0.000138613
0.000146715
0.000140337
0.000141633
0.00542589
0.000140575
0.00918448
0.00228663
0.0128615
0.0001436
0.000141933
0.000142261
0.0100337
0.000144106
0.000218256
0.000153897
0.00013335
0.000147477
0.000149959
0.000190395
0.00014338
0.000179849
0.0137467
0.000177238
0.0136888
0.00014769
0.00043662
0.00265817
0.000143155
0.013801
0.000143719
0.000151392
0.0159916
0.000148236
0.000163678
0.0106949
0.000155966
0.000168693
0.000144113
0.000208681
0.000143387
0.00915007
0.000142316
0.0100962
0.000143524
0.000144612
0.000148781
0.0102262
0.000142046
0.000156807
0.00017062
0.0272164
0.000142182
0.000155076
0.00488794
0.000189955
0.000153779
0.000171915
0.000141534
0.000177909
0.00014323
0.000149222
0.000201715
0.000144152
0.000182472
0.00848601
0.000142401
0.00969124
0.000142845
5.16823e-05
0.000201198
0.000148975
0.000149516
0.00924924
0.0121066
0.000143824
0.000147389
0.000140209
0.00014323
0.000115263
0.000168902
0.000190937
0.000144284
0.000152951
0.012956
0.0001585
0.0084622
0.000202307
0.000141772
0.000143186
0.000185471
0.00780716
0.00035785
0.0120344
0.000186333
0.000160653
0.00017356
0.00290907
0.0107292
0.0092446
0.000140674
0.000172228
0.000161535
0.000171183
0.000142921
0.000151735
0.000167518
0.000187109
0.0124341
0.000148495
6.65424e-05
0.015219
0.000164059
0.000143499
0.000143504
0.000184566
0.000142382
0.00973265
0.000153508
0.00015285
0.000186789
5.04376e-05
0.000139488
0.000157893
0.000154342
0.000143051
0.00162134
0.00015338
0.00541517
0.000143563
0.0139714
0.000191745
0.000185915
0.000145034
0.00015219
0.000156506
0.000197069
0.000179616
0.000168558
0.000107354
0.000211957
0.000140129
0.000151458
0.000148944
0.00017963
0.009035
0.000167196
0.000139347
0.000146972
0.000201705
0.000199444
0.000143629
0.000164869
0.000186562
0.000140511
7.00726e-05
0.000149123
0.00481817
0.000153653
0.0083852
0.000220041
0.000153419
0.000150039
0.000202234
0.000141526
0.000165722
0.0113219
0.000163502
0.000178088
0.000155446
0.000165532
0.0065974
0.000435972
0.000143978
0.0185944
0.000209924
0.000139703
0.000179644
0.000168764
0.000179679
0.000128619
0.000194397
0.0117956
0.000178056
0.0113272
0.000152554
0.000168066
0.000163159
0.00014466
0.000143227
0.000140619
0.000190689
0.000188181
0.000145032
0.000166375
0.000184294
0.000141466
0.008684
0.00245609
0.00014843
0.000143928
0.000167096
0.000146282
0.00016091
0.000143363
0.0279234
0.000154215
0.000170207
0.000151918
0.000170575
0.000173915
0.000158498
0.000378361
0.000143023
0.000146572
0.00014474
0.000142876
0.00296319
0.000174528
0.000154622
0.0322036
0.000144505
0.000144987
0.000157521
0.000141016
0.000145104
0.000173473
0.000151005
0.0119194
0.00880031
0.0123929
0.000144418
0.0297576
0.000142205
0.000192337
0.000139373
0.000180968
0.00770173
0.000144964
0.000200187
0.0122405
0.000157365
0.000150968
0.000163238
0.000153468
0.00310356
0.000139908
0.000144692
0.000160249
0.000180676
0.000185691
0.000152441
0.000151312
0.000141574
0.000168012
0.000202343
0.000156975
0.000149146
0.000179619
0.000182235
0.00976972
0.0160544
0.000158172
0.000146075
0.0114433
0.000142955
0.000168151
0.000144439
6.4293e-05
0.000146611
0.000145056
0.000162743
0.00675115
0.000143247
0.000141394
0.00013849
0.000181313
0.00749503
0.00017992
0.000143899
0.000148788
0.000140534
0.0157438
0.000181271
0.000209513
0.000165182
0.000144453
0.000188081
0.000158989
0.00348837
0.000146162
0.000145001
0.00015508
0.000163424
0.000182105
0.000144448
0.000144635
0.000146388
0.0132352
0.000146218
0.000149653
0.000403814
0.00014752
0.00015797
0.000150159
0.000142378
0.000145065
0.0100195
0.000149026
0.0208524
0.00540845
0.000139927
0.000416754
0.000144554
0.000177521
0.000163902
0.000150839
0.000145274
0.000139693
0.000143281
0.0177156
0.000161933
0.0158062
0.0119454
0.000140796
0.000160602
0.000160382
0.000198058
0.000143137
0.00618004
0.000472438
0.000190043
0.000145673
0.000147672
0.000145252
0.00358386
0.0030771
0.000152836
0.000144441
0.000154778
0.0303218
0.000144235
0.000147866
0.000147202
0.000177823
0.000194328
0.000138658
0.00995596
0.000155384
0.000143439
0.000569762
0.000165079
0.000491859
0.015376
0.000157056
0.000151871
0.000150165
0.000152838
0.000145165
0.000176393
0.000164947
0.000145443
0.000150012
0.000189295
0.00641733
0.000139779
0.000178698
0.0242366
0.00063546
0.000146118
0.000143556
0.00574735
0.000214534
0.000186216
0.000141774
0.0428953
0.000168154
0.000141404
0.0111623
0.000152973
0.000143861
0.000189995
0.000143072
0.000176069
0.000141811
0.000137398
0.00014381
0.000138467
0.000562541
0.000144525
0.000142086
0.000171441
0.000150738
0.000149907
0.000180362
0.000143056
0.000143889
0.000147233
0.00014617
0.0039809
0.00399321
0.000193055
0.0176857
0.000159487
0.00876583
0.000178746
0.00991962
0.013289
0.00186317
0.000140733
0.000156143
0.000143258
0.000143157
0.000143431
0.000149045
0.000185608
0.000165941
0.000161079
0.000141359
0.000143247
0.000164829
0.000144516
0.00014448
0.00014305
0.0167855
0.000155713
0.0081526
0.00014438
0.00567343
0.000144844
0.000144865
0.000145393
0.000160287
0.000141168
0.000173627
0.0134331
0.000162046
0.0135238
0.010292
0.00019575
0.000152887
0.00673618
0.000179083
0.00014607
0.000143255
0.000140129
0.0121315
0.000137884
0.000183177
0.000182062
0.000171916
0.00376347
0.00367437
0.000167799
0.00199894
0.000144573
0.000138101
0.000312477
0.000215107
0.000142853
0.000144165
0.0079661
0.000140774
0.000186785
0.000153075
0.000181167
0.000151229
0.000143592
0.000170421
0.0129159
0.0124208
0.000150362
0.000150159
0.000174533
0.000146744
0.000173045
0.000140535
0.000180565
0.000173676
0.000144452
0.000143658
0.000140595
0.000181211
0.000174898
0.000185899
0.000202114
0.00015477
0.000193957
0.000170127
0.000176986
5.68651e-05
0.000142294
0.0118505
0.00014615
0.0168636
0.000191128
0.011742
0.000180028
0.000192392
0.000165302
0.00035211
0.000143327
0.0106876
0.000142932
0.000143394
0.000151551
0.000145631
0.000154882
0.000192051
0.00019791
0.0156105
0.000151454
0.000161412
0.000146478
0.00014494
0.000144473
0.000182037
0.000173063
0.00979492
0.000162301
0.00014538
0.000140162
0.000145122
0.000188302
0.000149346
0.000146144
0.000150695
0.00017823
0.000155312
0.000163709
0.000161342
0.0115904
0.00015443
0.000155969
0.000143192
0.000151638
0.000201828
0.000371853
0.000164941
0.000141082
0.000539518
0.000156222
0.000141664
0.000162831
0.0134957
0.0107564
0.000157726
0.0001409
0.0105361
0.000144661
0.000140549
0.000145876
0.000324795
0.000203241
0.000198214
0.000133414
0.000105352
0.00016515
0.000160956
0.000167508
0.00604974
0.000155339
0.00306389
0.000144757
2.14796e-05
0.000154854
0.000879932
0.0001564
0.000142541
0.0135084
0.000145193
0.000145935
0.0165894
0.000216621
0.000172289
0.000202908
0.0001501
0.000147138
0.000209634
0.000141607
0.000141938
0.000144108
0.000161799
0.000143067
0.000157047
0.000164447
0.00554389
0.000201996
0.000146
0.0108186
0.000162965
0.0142418
0.0136512
0.000143899
0.000144385
0.000151112
0.000205968
0.000185831
0.000169113
0.013616
0.011088
0.000216306
0.000149652
0.000213805
0.010626
0.000174249
0.000197269
0.000143377
0.000142759
0.000144301
0.000146104
0.000142812
0.000156181
0.0126937
0.000157122
0.00574385
0.0157143
0.000206946
0.0112176
0.00872503
0.000154991
0.00319406
0.000177715
0.000170374
0.000139251
0.000143468
0.000168832
0.011909
0.000146722
0.0034528
0.0113434
0.000141031
0.000143942
0.000147159
0.000176252
0.000144948
0.000170777
0.0120483
0.000139642
0.000143515
0.000140822
0.00014593
0.000175225
0.013289
0.000159956
0.000218278
0.000178904
0.000141684
0.00525428
0.00018217
0.000186112
0.000192792
0.000199268
0.00882305
0.000150637
0.0124584
0.000142929
0.000214418
0.0138581
0.000184557
0.000201885
0.000143153
0.000147778
0.000149029
0.000148819
7.11221e-05
0.000169046
0.00014424
0.000152684
0.00561234
0.0141144
0.000149327
0.000154822
0.0121871
0.00844864
0.000144558
0.000153654
0.000178103
0.000142805
0.000143444
0.00623908
0.00014142
0.000189711
0.00541546
6.89838e-05
0.00014109
0.000173447
0.000182231
0.000141556
0.000143136
0.0344818
0.000358984
0.000145182
0.000158675
0.000185336
0.000187243
0.00655493
0.000144137
0.000151378
0.0048069
0.00857291
0.000157452
0.000141568
0.000181872
0.000138073
0.000144439
0.0118529
0.000160072
0.000176032
0.00014995
0.000151499
0.000142285
0.000139759
0.000145814
0.000146424
0.000463736
0.000149708
0.000203333
0.00987874
0.000161988
0.000170018
0.00412883
0.000631814
0.000436838
0.000149581
0.000150412
0.000157796
0.000151087
0.000186269
0.00933143
0.000145805
0.000200337
0.0142788
0.000152319
0.000174029
0.00017094
0.000175514
0.000176971
0.000147332
0.000178768
0.000180259
0.00018189
0.000183587
0.000177468
0.000172765
0.00015514
0.000141547
0.000156118
0.000173917
0.000141237
0.000195758
0.00402111
0.000187089
0.0126921
0.000142276
0.000141351
6.04999e-05
0.000111793
0.000146226
0.000148859
0.000167557
0.0380238
0.0117727
0.000142947
0.00015692
0.000150777
0.0096977
0.00526495
0.000149852
0.000192536
0.0140302
0.000176002
0.00484836
0.000176106
0.00721638
0.00445002
0.000135496
0.0012369
0.015437
0.00014627
0.000170683
0.000177342
0.000151489
0.000141702
0.000207585
0.0217364
0.00014426
0.000144519
0.00739462
0.000193829
0.000173179
0.000143961
0.000188771
0.000181106
0.0123506
0.0135471
0.000143868
0.000143184
0.000146029
0.000159839
0.00165379
0.0079999
0.0057814
0.000172639
0.000190869
0.00890216
0.000160748
0.000141438
0.0141751
0.000142986
0.0026894
0.00017964
0.00625566
0.000146856
0.000145832
0.0111761
0.000145754
0.000177639
0.00932431
0.000160354
0.000148193
0.000147118
0.000185115
0.0122789
0.000184349
0.0139907
0.00017613
0.000171385
0.000152938
0.000172346
0.00172655
0.0270318
0.000177282
0.000187348
0.000179234
0.000181102
0.000152887
0.000143066
0.000139775
0.000139264
0.000190199
0.000176993
0.00689596
0.000161741
0.000182193
0.000141476
0.00535219
0.000227493
0.00868483
0.000143835
0.000147423
0.000137766
0.0143301
0.00015899
0.0102791
0.000189947
0.000178869
0.000190034
0.000140356
0.000158177
0.000183869
0.000190503
0.00019345
0.000144941
0.000180411
0.000144788
0.000145747
0.000179603
0.0173035
0.000157084
0.00014412
0.000175093
0.000186207
0.0126154
0.00973937
0.000363795
7.21426e-05
0.00014216
0.000167464
0.000144125
0.000181147
0.000144179
0.000179518
0.000147589
0.000163172
0.00366197
0.00942028
0.000182964
0.000182292
0.0153267
0.000178076
0.000148142
0.0128191
0.000176618
0.000178201
0.000146221
7.47568e-05
0.000153855
0.000181848
0.000192279
0.00787564
0.0102033
0.000194845
0.00034224
0.0132698
0.0150837
0.000203375
0.000155509
0.000177054
0.00017541
0.000328797
0.000173595
0.000145816
0.000197372
0.000164788
0.000194329
0.000153434
0.0136303
0.000201007
0.000200414
0.000151794
0.00475131
0.000149466
0.0123588
0.00018407
0.00020869
0.00878348
0.000140604
0.000138282
0.013761
0.00106049
0.000174528
0.000145441
0.000162325
0.00015634
0.000128861
0.000179727
0.0155273
0.000151741
0.0156693
0.000181032
0.0199697
0.000145629
0.000189563
0.0133955
0.000180348
0.000172785
0.000141164
0.000149877
0.000144081
0.00444529
0.000141678
0.00014431
0.00395549
0.000216083
0.00013916
0.00169206
0.000146129
0.000143389
0.000142477
0.000142163
0.000144627
0.000193238
0.00818777
0.000140546
0.000138545
0.000168943
0.000162336
0.000204123
0.000173199
0.000151207
0.000155627
0.000142737
0.00413061
0.000156243
0.00133209
0.000169111
0.000188274
0.000196248
0.000170628
0.000200685
0.0157644
0.00013985
0.0119272
0.000165889
0.000168602
0.00016896
0.000141717
0.000179012
0.000185973
0.000143912
6.29157e-05
0.00014359
5.51032e-05
0.000181664
0.00341401
0.000184775
0.000184113
0.00356916
0.000143349
0.000144236
0.000167414
0.00014734
0.000144413
0.000144537
0.000152968
0.000141374
0.000141993
0.000146777
0.000162989
0.000147919
0.000153184
0.000153884
0.000160617
0.000175797
0.000148549
5.21146e-05
0.000148112
0.000142203
0.000174654
0.000160248
0.000158137
0.0001414
0.000150666
0.000148988
0.0138167
0.000149278
0.000179219
0.000142618
0.000143175
0.00018274
0.0055319
0.000169772
0.000159302
0.000138436
0.0126909
0.00014418
0.000141767
0.000171344
0.000149538
0.00018324
0.0151978
0.000175867
0.000194159
0.000161928
0.0102023
0.000142982
0.000143761
0.000169215
0.00510329
0.000166544
0.000177196
0.010536
0.000153286
0.000143565
0.000153135
0.000188471
0.000165674
0.000144
0.000176126
0.000175175
0.000168618
0.000144704
0.000144384
0.000186893
0.000168476
0.000199097
0.00913527
0.000148491
0.000170148
0.00014452
0.000161066
0.0001341
0.000143799
0.000184922
0.000251579
0.000174043
0.0210979
0.000143769
0.000142589
0.000142377