/*--------------------------------*- C++ -*----------------------------------*\
| =========                 |                                                 |
| \\      /  F ield         | OpenFOAM: The Open Source CFD Toolbox           |
|  \\    /   O peration     | Version:  v2012                                 |
|   \\  /    A nd           | Website:  www.openfoam.com                      |
|    \\/     M anipulation  |                                                 |
\*---------------------------------------------------------------------------*/
FoamFile
{
    version     2.0;
    format      ascii;
    class       volScalarField;
    location    "350";
    object      p;
}
// * * * * * * * * * * * * * * * * * * * * * * * * * * * * * * * * * * * * * //

dimensions      [0 2 -2 0 0 0 0];


internalField   nonuniform List<scalar> 
13917
(
-0.0970338
0.0124481
-0.0655631
-0.00956545
0.00806994
0.0120369
-0.0214904
0.0212767
-0.0245489
-0.114783
0.0198332
-0.00417614
-0.000409842
0.0383928
0.00871734
-0.0955531
0.000220614
0.0181212
-0.0554794
-0.104288
0.0021639
0.00397679
-0.035197
0.00399308
-0.00871963
0.00482296
-0.00297189
-0.115361
0.0121007
9.31296e-05
-0.115554
-0.0459178
-0.00722245
-0.0879032
0.00166966
0.0216323
0.000533233
0.00191183
-0.022153
-0.00684357
0.00140983
-0.000482234
-0.0206912
-0.0547753
-0.054364
-0.0419697
0.00142956
-0.112141
0.0161731
0.00167279
-0.00396076
-0.0424802
-0.0776143
0.000273771
-0.000346807
-0.0438174
-0.111757
-0.0345535
-0.000462132
-0.0399583
-0.0768106
0.000551016
0.00015297
-0.00857595
-0.0847764
0.00107409
0.0140912
0.0212107
0.0193613
-0.0819573
-0.078866
-0.0873389
-0.00694047
-0.000373544
0.00178017
-0.00592942
0.00686902
-0.000352982
-0.00592584
-0.00745532
0.00331978
0.000414827
-0.00664505
-0.0734162
0.000331896
0.0243058
-0.0451677
0.000399632
-0.00592396
0.000152766
0.000318849
-0.0213242
0.0183259
0.00115167
0.00101528
0.013254
0.00781642
0.00100395
0.000365273
0.00162966
-0.000135165
-0.000235956
0.00329764
0.0012083
0.00659388
-0.0627423
-0.105259
0.000533991
-0.000562723
-0.00416845
0.000581155
-0.088702
0.0111874
-0.116397
-0.0837247
-0.00464839
-0.0543618
0.000137829
-0.0633605
-0.00535767
0.000574114
-0.000194333
0.0152241
-0.0475823
-0.0731254
-0.0742754
-0.00882311
0.00238693
0.00264479
-0.0485191
-0.0319863
-0.0199985
-0.0669772
-0.0041851
-0.0489943
-0.00219369
-0.0598733
-0.0649095
0.00652563
0.00162862
0.0141761
-0.000292311
-0.062161
0.00233323
-0.00585334
-0.000986388
-0.0778696
0.00545383
-0.117659
0.000172093
-0.0057224
0.000124787
-0.00557433
-0.00538313
0.00782477
0.00496563
0.00115753
-0.0668538
-0.000128478
3.7114e-05
0.00095419
-0.0934471
0.0044604
0.0140532
-0.100087
0.00243864
-0.078315
-0.107785
2.79743e-06
0.00734632
0.00452584
-0.0731101
-0.0244623
-0.0654323
-0.0290709
8.89995e-05
-0.00989643
-0.0426879
-0.0314478
0.00495509
-0.020039
0.00434677
-0.0036891
-0.056775
-0.0640519
-0.0184927
-0.00347297
-0.0557608
9.61629e-05
0.0223179
-0.0278753
-0.0531201
-0.0537538
-0.0994455
0.00120604
-0.0749577
-0.0122473
-0.0664119
0.00173921
0.00479674
0.000256688
-0.0844971
-0.0657279
0.0020027
-0.00702157
0.00936406
-0.00645103
-0.000254699
-0.0436881
0.00366063
0.00210038
0.00879737
0.00915818
-0.115855
-0.0484029
0.00550798
-0.0947416
0.00132317
1.09115e-05
6.63062e-06
-0.111396
-0.0549403
-0.0567483
-0.000640473
-0.000117072
-0.00238919
-0.0768708
0.000131902
0.000135524
-0.000165079
-1.26167e-05
-1.4829e-05
-0.0883532
-0.109993
0.00381007
4.97476e-05
-0.0375634
-0.0830258
0.000122453
-0.000579668
-0.00735549
-0.061108
-0.0565996
-0.095901
-0.0313598
0.00226726
-0.102609
-0.0388499
0.0103023
-0.046763
0.00166008
-0.115694
-0.00574566
-0.01735
-0.0283393
0.00417899
0.00117776
-0.00898032
0.0064827
0.000801027
-0.0734985
0.0255531
-1.05793e-05
0.000142438
0.00517643
0.000157886
-0.00577008
-0.000650881
-0.0257359
-9.5344e-05
-0.0624668
-0.103802
-0.00193009
0.00641331
-0.0387422
-4.11342e-05
0.00133974
-0.0733446
-3.35775e-05
-0.0822868
0.000778186
-0.0894183
-8.01783e-05
0.00781732
0.00440823
0.00255733
-0.0597719
0.00168263
0.00273954
-0.0110239
0.0251179
-0.000846592
-0.00749691
-0.0624306
0.000148192
-0.0347566
0.00702156
-0.0034832
0.00747771
-0.00649786
0.00101171
0.00157617
-0.0394345
0.0044708
-0.0168068
-0.00649579
-0.000567167
-0.0655359
-0.0844926
0.0023665
0.000759359
-0.00403046
0.00719118
-0.0554227
-0.103005
-0.0649797
0.000565805
-0.0203144
0.00608816
-0.0732566
0.0101535
-0.0649921
6.95921e-05
0.00850362
-0.00570752
0.00481056
0.0132764
-0.0526363
-0.000171475
-0.0740474
0.000369085
-0.0385396
-8.65519e-05
-0.102985
0.00186578
-0.0172709
0.00941002
0.000127154
0.000336849
-0.0472684
-0.0644685
0.000466301
0.00486612
-0.0875999
-0.0634604
-0.0736621
0.0394838
-2.38932e-05
0.00327046
-0.0601614
-0.0220728
-3.57663e-05
0.0073435
-0.00181607
0.00551987
-0.0176328
-0.049758
-0.0225655
0.00280009
-0.0379064
-0.0949677
0.00277491
0.000155279
0.0085065
-0.0639613
-8.20907e-05
-0.0983526
-0.0376084
-0.00358268
-0.000224201
-0.0229517
0.000550069
0.0139197
-0.000581434
-0.0576115
-0.0407545
0.0105461
-0.00196565
-0.0754212
-9.77559e-05
-0.0970718
-0.0553086
-0.000608602
0.0140576
0.00514137
0.00247411
0.000950679
-0.108175
0.00179366
-0.00131707
-0.00526765
0.00282477
0.00151018
-0.0888655
-0.056029
-0.00217856
-0.0602701
0.00260236
0.00441641
-0.0650499
0.000357889
-0.0231732
-0.00698823
0.002327
0.00181106
0.00282401
-0.0639822
0.00033245
-7.3052e-05
0.00288769
0.00377545
-0.0308652
0.0201946
-7.90556e-05
1.58571e-05
-0.0551123
-0.0212213
0.00257609
-0.00145566
-0.0620842
0.0167365
0.00111915
-0.0563928
-0.0719991
-0.000153307
-6.3735e-05
0.00287216
0.0017799
-6.48115e-05
0.00402036
-6.39362e-05
-0.000151085
-0.107918
0.00258186
-0.00876927
-0.0627981
-0.0337074
0.00217165
-0.00525262
-0.0896318
0.0011279
-0.0718375
-9.37532e-05
-0.00141127
-0.000148096
-1.78469e-05
0.000633268
0.00549373
-0.0559364
-0.00150365
-0.0618051
-0.00132631
-0.0319967
-0.00145438
0.00358539
-0.0325152
-0.0714584
-0.00188825
0.0152553
0.00224141
0.00162313
0.00364295
0.00504357
0.00197757
0.000811545
-0.0659224
-0.0719667
0.00192557
-0.0088516
-0.0554427
-0.000157527
-0.0352594
-0.0469441
-0.0951026
-0.0249991
-0.0637384
-0.0014136
-0.00269668
0.00542163
0.000598356
-0.00151376
0.00181706
-0.069636
0.000234458
0.000120221
0.000682185
-0.0237503
-0.000949136
-0.0626503
-0.0400319
-0.000741425
0.00655589
0.017341
-0.0108152
0.00014071
0.0365366
-0.0281164
-0.0116522
-0.0912089
0.000308697
-0.0108889
-0.0437228
0.00186704
-0.0644431
0.00156893
-2.86065e-05
-0.0319395
-0.000104811
0.00141733
-0.0373118
-0.0612303
-0.00755713
0.000896449
-0.0123813
-0.000699425
-0.0634444
-0.0308975
0.000251584
-0.000164418
0.000900832
-0.0285201
0.00236084
0.0025723
-0.000102408
0.00463232
0.00223937
0.00366631
-0.0176509
0.000267773
-0.0400603
0.00183927
0.00371265
-0.00704141
-0.100314
0.000536668
-0.0173818
0.00091982
-0.0313162
-0.0396994
0.010515
-0.029377
-0.000232351
-0.00560866
0.0160017
-0.0666994
-0.10778
-0.0627407
0.00208134
0.00360411
-0.000801882
-0.00215071
-0.0827934
-4.07368e-05
0.00805451
-0.0127513
-0.0706964
0.000359073
-0.0205781
-0.11669
0.00188078
-0.0450874
0.00092905
-4.37222e-05
-0.0714235
-9.45737e-05
-0.0620404
-6.51224e-05
-0.000201594
0.00370039
-0.0617383
0.00359851
0.000221715
-0.0547555
-0.0342607
0.00717516
-0.0760882
-0.065134
-0.0945351
0.000551363
-0.0772587
4.52696e-05
-0.0693166
0.00491231
-0.000170558
0.00069657
0.000406189
-0.0274627
-0.0195512
-9.50262e-05
0.00130424
0.000523198
-0.0746277
0.000632017
-0.0441767
0.000253155
0.000215829
8.73083e-05
-0.0427488
-0.0829758
-0.113537
-0.0455631
-0.0180565
-0.0714888
-0.0817569
0.000924226
-0.0720392
-0.000388725
-0.0504932
-0.00202436
-0.0747215
0.00221516
0.00382325
-0.00616341
0.00642744
-0.0269377
-0.087065
0.000361609
-0.0252859
0.00223394
0.000214836
-0.0958807
0.00637582
0.00212484
-0.0510469
-0.000620901
-0.00010873
1.26239e-05
-0.0947778
0.000545893
0.00675558
-5.82477e-05
0.00211091
-0.0634369
-0.000376817
-0.0517607
0.000669082
0.00188127
-0.0747561
-0.0449128
0.000346392
-0.0632222
-0.0612939
0.0174921
-0.0427988
0.00184128
0.00922445
-0.101635
-0.058832
0.00223588
6.30336e-05
0.00391614
0.000936045
0.00300314
0.000820542
-0.0403886
-0.00931943
-0.0954976
-0.0277862
0.0205068
-0.0334386
0.00472287
-0.0193332
-0.0541773
-0.0832195
0.00110637
0.00448099
0.000587071
0.00186776
0.000605751
-0.000168627
-0.000759501
0.00126106
-0.079494
-0.0345776
0.0014362
-0.0514966
0.000408782
-0.1016
0.000680992
0.00259063
-0.06207
-0.0391133
-0.00333787
-0.00737198
0.000161409
0.00225167
-0.0104548
-0.0236341
0.00270855
-0.0675598
-0.0116424
0.00310047
-0.00175115
0.00455284
-0.0629319
-0.0122972
0.00129179
0.00222646
-0.0737513
-0.00564032
-0.0123484
-0.0707651
0.00614441
0.00190028
0.00245505
0.00127038
-0.0642666
-0.00258694
-0.0266169
-0.0100514
-0.0173065
-0.0506811
0.00598196
-0.0500771
-0.0346369
0.0010905
-0.0072953
0.00121507
-0.02303
0.00638958
-0.0564394
-0.00260688
-0.000765911
-0.0688344
0.000205985
0.00813862
-0.000299391
0.0104839
-0.0148737
-0.0586472
0.000346073
-0.0442293
-0.0804768
3.74396e-06
-0.00249822
-0.00319848
0.00109992
-0.0014128
-0.00592007
0.0102673
-0.00172298
-0.0414004
-0.0516056
0.00173598
-0.0574516
-0.0240944
-0.0238403
-0.0528054
0.00347576
-0.0450487
0.00515722
0.000343181
-0.0393984
-0.0277751
-0.0340243
0.00252955
0.0020832
0.00294767
-0.0829249
-0.00672139
0.000451605
-0.0379809
0.00277284
0.00224628
-0.0438415
0.00502495
0.011301
0.0175867
0.00476957
-0.0592243
-0.00605807
0.00729869
-0.0715649
-0.000285511
0.000109419
0.000168046
0.00062713
-0.00683049
-0.00165585
0.0105633
0.00249731
0.000645786
0.00422582
0.00472182
-0.000748029
-0.0250639
-0.000115216
-0.047161
0.00804154
-0.0857649
0.011699
0.000710459
-0.10152
-0.00697038
-0.0743463
-0.0190646
0.0131777
0.00594676
0.00181077
-0.00239565
-0.0776428
-0.0222206
0.0189429
0.0228962
-0.00132384
-0.0342077
7.77455e-05
0.000538466
-6.43678e-05
1.48371e-05
-0.105356
-0.0181791
0.0131586
-0.0533626
0.00379303
0.0002562
0.00084805
-0.0226915
0.00179326
0.000670327
-0.00283705
0.00354542
-0.0381346
0.00027743
0.0193502
0.00146082
-0.0907131
-0.0727013
0.0121656
-0.0609086
0.0114036
-0.091346
0.007239
0.00178601
-0.000153178
-0.00406062
-0.00483406
0.000951018
-0.0229095
0.00104892
0.0212088
0.000571574
-0.0707057
-0.0066297
-0.0318478
-0.0183211
0.0019495
-0.00671862
-0.00670413
0.00018361
-0.0177567
-8.13677e-05
-0.0612393
-0.0414498
-0.000570094
0.00230713
-0.00166996
0.0045167
0.00439704
-0.0922104
0.0018343
0.0044013
0.00212034
-0.00413517
0.00797887
0.00198947
-0.0447754
0.000664297
0.00187116
-0.00215024
-0.0719816
0.00339413
-0.047559
0.00165023
0.00375589
4.64291e-06
0.00442535
-0.0956425
0.000741988
-0.00984584
-0.0509354
-0.0947807
6.17958e-05
0.00589542
-0.0736491
-0.000577254
0.00602154
0.00367204
-0.071895
-0.00153105
-0.0557861
-0.00444047
-0.0633961
0.00807495
-0.0233738
0.00290753
5.31069e-05
0.00132733
0.000670543
0.000206931
-0.0658947
-0.000333933
0.00192283
0.0101298
-0.000610008
-0.000255361
-0.0408055
-0.00181814
-0.0835793
-0.00890181
-0.0471012
-0.0407622
-0.0166809
-0.0666963
0.0016568
-0.0400844
-0.00179885
-0.0664954
-0.00531135
-0.00814131
-2.50389e-05
0.000285423
5.0487e-05
-6.5782e-05
-0.000193063
8.93855e-05
-0.0023903
-0.0167713
0.000338549
-0.000556972
-0.0469886
-0.100326
-0.089273
-0.0497533
0.00455268
-0.000389087
0.00101298
-0.0709745
0.000999347
-0.0632544
-3.53957e-05
0.00181676
-0.000167652
0.0020059
-2.75338e-05
-0.000141974
-4.56848e-05
-0.019694
0.00189302
-0.114684
0.00950711
0.00223203
-0.0776773
-0.00194032
0.00286588
0.000415987
-0.095302
-0.00945295
-3.49235e-05
-0.00264743
0.0016769
0.0028104
-0.0585533
-0.000191967
0.0148579
-0.0103274
0.0141804
0.00219922
-0.000127203
-0.000444227
0.00585949
-0.00572233
-0.0814829
0.00168208
0.00188143
0.00626117
-0.00204542
0.00201063
-0.0509904
-0.0344101
-0.00882033
-0.073402
-0.113411
0.00509621
-0.0517646
4.49684e-05
-0.0678001
-0.00013975
-0.0579181
-0.0292182
-0.0237149
-0.00506572
-0.0229614
-0.0040855
-0.0605792
0.000441024
0.0022909
-6.16553e-05
0.000934588
-0.03509
0.0015299
-0.00415476
-0.0153098
-0.0852321
-0.0001739
-0.0278338
-0.0809777
-0.000141886
2.22522e-05
0.00696322
-0.0987928
-0.00490145
-5.05836e-06
-0.0210523
-0.00491386
0.00262158
0.0103779
0.00505331
-0.00388066
0.00180767
0.000247682
-0.00288457
0.00163579
0.00152653
-0.0686315
-0.00773012
-0.00620645
-0.000200372
-0.0977886
0.00217295
0.000855081
0.00264942
-0.0101093
-0.0105171
0.000116687
-0.0857656
-0.000923987
0.00501182
-0.0399801
0.00237794
0.0011869
-0.0456419
-0.0546043
-0.044007
-0.0569299
-0.00294603
-0.0550491
-0.0786996
0.00136109
-0.0582678
3.05105e-05
-0.0271174
-0.0369402
0.00148531
-0.0157759
6.45384e-05
-0.0131212
0.0207827
0.00104923
-0.0922138
-0.0229352
-0.0293185
-0.0720465
0.000514977
-0.0508146
-0.00203624
0.001976
0.0032549
-0.00232169
3.84922e-05
0.00155985
-0.00545546
-0.0611054
0.00199661
0.00013818
-0.0196361
0.00130453
-0.00134171
-0.0210403
-0.0460759
0.00503483
0.00216732
0.0175407
3.98292e-05
0.0114388
-0.0664381
-0.00715524
-0.00191959
0.000932411
0.000589398
0.000396723
-0.0798895
-0.0678312
0.00918332
-0.0251557
0.0033198
-0.069034
0.00785429
-0.00148581
-0.0769654
0.00247973
-0.0399369
-0.0981215
-0.0639143
0.00121749
0.0123259
-0.000230149
0.00363228
-0.000300102
-0.00141117
0.00391424
-0.0570428
0.000837314
-0.0289269
0.000801179
-0.0433852
-0.0935744
-0.00132693
-0.0624803
0.0177972
-0.00217054
-0.0473688
0.00592228
-0.00175962
-0.0012907
-0.0654796
-0.0446824
-0.0852239
-0.00604509
-0.100475
-0.0265757
0.000112447
0.0117872
-0.0243206
0.000595248
0.00208067
-0.0340479
-0.0014004
-0.00227958
0.00381438
0.0048728
-0.0105014
-0.0407574
-0.0214082
0.000907313
-0.0317959
0.0139582
0.000947553
0.00117278
-0.000901098
-0.059044
-0.069253
0.00154882
-0.0311815
0.000822358
0.00580186
-0.0633953
-0.00397596
0.00176067
-0.000244511
-0.00194688
0.00112157
0.00140231
-0.0596486
0.00460917
-0.0178998
-0.00183933
0.000697981
-0.04904
-0.0970977
-0.0968039
-0.00778571
0.00165204
0.00177042
-0.000333194
-0.0463164
-0.0605385
-0.000417358
-0.019597
0.00137839
-0.0390916
-0.018875
0.000808221
-0.00140009
-0.054245
0.00139575
0.00832826
0.000712568
0.00120499
-0.00732136
-0.0855493
-0.0302492
-0.00131686
-0.10235
-0.0342929
0.00231718
-0.0365795
0.00172733
-0.000133346
-0.0731953
0.00249474
0.00127231
0.00925074
-0.0525818
-0.00532345
-0.00754694
0.000197405
0.00114492
0.00205317
-0.00134659
-0.0175613
-0.0119681
-0.0678132
-0.00608287
-0.0173254
-0.0300597
-0.0250656
0.00201061
7.18387e-05
-0.0540949
-0.0575169
-0.104623
0.00213152
0.000250406
-0.0657022
0.00167858
0.00178367
-0.00992128
-0.00774883
-0.00186935
0.00165827
-0.0654385
-0.0150728
0.00289844
-0.0015221
-0.0143878
-0.0699033
-0.080282
0.00411956
0.00341867
0.0115986
-2.10589e-05
-0.000285196
-0.0153655
0.00152012
-0.00698914
-0.0270131
-0.00738294
-0.063724
-0.000490504
0.00691332
-0.0105248
0.000246822
-0.0569069
-0.000440684
0.00198583
-0.0162614
-0.043288
-0.0143638
-0.0621208
-9.48579e-06
-0.0255003
0.0022709
0.00217572
0.00628609
-0.000193143
-0.00170536
-0.0563652
-0.00373645
-0.0367758
0.00309117
-0.00118925
-0.00522097
0.00024308
0.0028002
-0.0632424
-3.14525e-06
0.0189892
-0.0460777
-0.00024199
-0.0398786
-0.0273527
-0.0257632
-0.000223214
0.000584272
0.00225255
0.00114667
-0.00613468
0.0111054
-0.00101651
0.00128656
0.0018125
-0.000275555
0.0172211
0.00232326
-0.0944102
-0.0299497
-0.00014027
-0.000606483
0.000785831
-0.0285221
-0.00250985
0.00669482
0.000320511
0.000672562
-0.00112485
-0.0297021
0.00538649
-0.0852496
0.000758394
1.23346e-05
-0.00782665
-0.00227314
0.000823383
-0.0864054
0.00221948
0.00132469
-0.016761
-0.0363677
-0.0686675
0.000415471
-0.0142202
-0.0165563
-0.0023535
-0.000165407
-0.0865653
-0.00200599
-0.000175003
-0.02226
0.000674418
-0.0874938
0.00129256
0.00209972
-0.00250071
-0.000211654
-0.0652703
0.000344301
0.00018378
-0.0476537
-5.58765e-05
0.00218647
0.000173618
-0.000284475
-0.0380866
-0.00598973
0.00609338
0.00167004
-0.00654204
0.00567354
0.00173024
0.00175952
-0.00456058
-0.000528847
-0.0180238
0.0043098
0.000553526
-0.0064667
0.000471716
-0.000538665
-0.0021492
0.0157973
0.000724597
-0.046556
0.00396879
0.0139193
0.00142751
-0.00179374
0.00262143
-3.53687e-05
-0.00462652
0.00779802
-0.0226601
-0.014901
-0.00198961
-0.0665523
-0.0981561
-0.0479604
-0.0599101
0.00360076
-0.00210043
0.000814391
-0.0530851
-0.000269488
-0.0785732
0.0010118
-0.0538512
0.00540631
-0.0166661
-0.045646
0.0398258
-0.00660731
0.000678319
-0.0387999
0.00227569
0.00078312
-0.0173743
-0.0803832
-0.103956
-0.00266026
0.00559797
-0.00729235
0.000225851
-0.0588933
0.00159344
-0.00267911
0.00157575
0.00130171
-0.0707872
-0.000210511
-0.0306751
0.00280159
0.00064413
-0.0361039
0.000126139
0.00147815
-0.0633178
0.00201427
-0.00211846
-0.00894168
0.00160447
-0.0574301
0.00923273
-0.0219328
-0.0684871
-0.00144742
0.00686794
-0.00672058
0.00113387
-0.0266786
-0.000664387
0.00131543
-0.0229092
5.87262e-05
0.0011849
-0.0202426
-8.58982e-05
-0.0660879
-0.0019225
0.00169635
0.000788782
-0.005841
0.00165256
0.000479298
-0.0514865
0.0089594
0.00377006
0.00174428
-0.00046787
0.00572752
0.000660835
-0.0607057
0.000758897
0.0134389
-0.00105761
7.0665e-05
-0.0658021
0.00102414
0.000379549
-0.0712068
-0.0535789
-0.0883331
0.000397068
-0.0700544
0.0254084
0.0022261
-0.0783104
0.00239156
0.00712135
-0.0974015
0.0047493
0.0114744
-0.0931963
0.0061704
-0.0436923
-0.00496374
-0.0639692
-0.002244
0.00194452
-0.000519226
-0.0850718
-0.00236519
0.000236553
0.00568009
0.00378021
0.0018878
-0.00114437
-0.00985513
0.0362322
-0.00015757
0.00084669
-0.0721355
0.0193178
-0.02952
-0.0354773
0.00135957
-0.0504713
0.0147724
0.00348373
-0.0723672
4.49237e-05
-0.0518864
-0.0874176
0.001886
-0.0643611
-0.0006755
-0.0692753
-0.0544095
-0.00461594
0.00649183
6.04404e-05
0.00643945
-0.00130317
-0.00942201
0.00160256
0.00133942
-0.0752255
-0.0268134
-0.0629294
0.00379952
-0.0122419
-0.0860335
-0.0011558
0.00389289
-0.0599327
0.000278348
-0.00161104
-0.0605301
-0.0516647
-0.0233837
0.00813723
-0.0551769
-0.00297711
0.0124891
-0.0744452
-0.0976465
0.00174355
0.00158926
-0.0411708
-0.0274026
-0.0255247
-0.00128484
-0.0243939
-0.024339
0.00680479
0.00733046
-0.000600287
0.0303382
-0.0705558
0.00849629
-0.00159759
-0.00178267
0.0167371
0.00166432
-0.0655451
-0.0116962
-0.000484486
-0.0338277
-0.00140565
0.00170061
-0.0238906
-0.0246932
-0.00167315
-0.0638617
-0.000890371
-0.0617104
0.000906104
-0.082387
-0.0695314
-0.0612973
-4.23529e-05
-0.00548826
0.0062
0.0205828
-0.030531
-0.0454424
-0.0757146
0.0134944
-1.00619e-05
-0.00871738
0.00029669
-0.0532174
-0.0742326
1.4939e-05
0.00160765
-0.00476877
-0.0298589
0.0225201
0.00114069
-0.0107937
-0.0300696
0.0018081
-0.00160778
0.00191588
-0.0624534
0.00840344
0.000333699
-0.0597482
-0.021184
0.00376011
-0.0727919
0.00129775
0.00927632
-0.103766
-0.000193518
0.00547776
-0.0324268
-0.0429582
-0.0483229
-0.0711455
-0.00465395
0.0169169
0.0152669
0.000720205
-0.0557496
-0.0383585
-0.0211916
-0.06692
-0.0081576
0.00700249
-0.04216
-0.103799
-0.00758495
-0.0456037
2.6225e-05
-0.00709893
-0.00173999
0.00220203
-0.0651592
0.0102881
1.82661e-05
0.0133081
-0.0596796
0.00132091
0.00159854
-0.0860981
8.13637e-06
0.000762224
-1.06624e-05
0.0019158
-0.0380026
-0.00227569
-0.101565
-0.0241763
-0.0353619
0.00581059
-0.0240409
0.0122362
0.0101003
0.0308832
-0.00144415
0.00183715
4.67978e-05
0.00112445
-0.070459
-0.0501842
0.00116072
-0.092607
0.00394076
0.00331847
0.00689742
0.0011123
1.96139e-05
-0.00715277
-0.0140539
-0.0920933
-0.0119021
-0.0663248
-0.00503014
-0.0417577
-0.000288888
-0.0636551
0.0016356
-0.0588291
-0.0244458
0.0015355
-0.0279425
-0.0795659
0.00165922
0.00069635
-0.000137256
-0.00349904
-0.0711122
0.0015141
-0.0069377
0.00183996
0.00167674
-0.059119
-0.000369507
-0.0126524
0.000588515
0.00135332
-0.0732936
-0.0224994
0.00661586
-0.0534463
0.0158399
-0.0793767
0.0152797
0.00113642
0.00356979
-0.103169
-0.00103761
-0.0427736
-0.0058951
-0.0731148
0.00282933
0.0044892
0.00828856
-0.0886506
-0.00144556
0.00124844
0.000746976
-0.0531825
-0.110672
-0.0368066
-0.00092623
0.0051177
0.00197366
-0.0659563
0.000124306
-0.0743965
-0.042774
0.00397401
-0.0465926
0.0101319
-0.00190056
-0.0109316
-0.000276191
-0.0117161
0.0101908
-0.0138104
-0.00634742
0.00135449
0.00268962
-0.0940302
0.00152805
-0.0005777
-0.0732862
-0.000574969
-0.000969581
-0.014836
0.00250007
0.000952248
0.00323086
-0.018348
0.0386171
-0.00681546
4.28218e-05
0.0246744
-0.00217293
-0.0404331
-0.0170704
-0.00034775
-4.78253e-05
4.90055e-05
-0.0021594
0.0146401
-0.0393233
-0.0618989
-0.1017
0.00231036
-0.00180226
-0.00413574
-0.0697737
-0.00235654
-0.00225417
-0.0724615
-0.0721916
0.00145383
-0.00920675
-0.00610531
0.00567866
-0.074327
-0.000458174
0.000116394
-0.0246354
-0.106762
-0.00577196
-0.0100811
0.00318212
-0.0533482
-0.0728177
0.000885177
-0.092739
0.00915496
-0.00147704
-0.0683418
-0.0423806
0.0237516
0.0131965
-0.000324707
0.0073367
-4.62136e-05
0.00386483
0.00184794
0.0172486
0.00123282
0.00066733
-0.0155196
-0.0647688
-0.0170738
0.00147347
-0.0288228
-0.03587
0.0127448
0.00048346
-0.00353773
-0.00443446
-0.0710295
0.0169538
0.00288673
-0.0340189
-0.0456067
3.30888e-05
-0.0699073
-0.00565224
0.00302941
-0.0380993
0.00358768
0.00236725
0.00162723
5.28895e-05
0.00390434
0.000700046
-0.0837697
-1.2967e-05
0.00105251
-0.0446602
-0.0220371
0.0043271
-0.0579477
0.000493012
-0.00116218
-0.00251678
-0.00177936
0.000249893
0.000285185
-0.0686418
0.0165656
0.0107218
0.00202008
0.00874835
-0.0945682
-0.0175142
-0.0868248
0.00215872
0.00677651
-0.00262358
0.00242175
0.00099792
-0.000131045
-0.0564144
-0.0437955
0.00346636
0.0014459
-0.00159591
-0.0429821
-0.00607565
0.00200474
0.00118289
-0.0630186
-0.0108226
-0.0852776
-0.00467527
-0.00660762
0.0012864
0.00429971
0.00462501
-0.0372801
0.00216841
-0.0416416
-0.0906704
-0.0012471
-0.067426
0.00518492
0.00147156
-0.0128008
0.00106541
-0.0348413
-4.38555e-05
0.000884186
4.02336e-05
-0.100646
5.92866e-05
0.015942
0.00564343
-0.0398694
0.0354802
0.0333117
-0.0445692
-0.0633704
-0.000279283
0.000769994
0.000335424
-0.0627555
-0.00130115
-0.00495531
0.0125073
0.00155756
-0.0456321
8.02143e-05
-1.11121e-05
-0.000763952
-0.00381088
-0.0371632
-0.0970424
-0.0909441
-0.0154502
0.00136448
-0.00815231
-0.00582505
-0.0247713
0.00215951
-0.0575853
-0.0505454
0.00172444
0.00299114
2.65676e-05
-0.0183428
0.0119878
-0.0586494
-0.0616732
-0.0103055
-0.0721732
-0.0471643
-0.0527025
-0.0718855
-0.000409353
-0.100544
-0.00530896
-0.0617927
-0.0659439
-0.101511
-0.0781357
0.000283772
-0.0254385
-0.000910836
0.00365049
-0.0923419
0.000596808
-0.00315303
-0.0221356
-0.00749364
-0.0280994
-0.0581046
-0.0625772
-0.092931
-0.013752
-0.00070417
-0.0016308
0.00403731
-0.00623072
-0.0328246
-0.0500512
-0.0494785
-0.015852
8.66988e-07
0.00169248
0.00452249
-0.0568274
0.00290326
0.00523196
-0.00725179
0.00168481
-0.0287016
0.00941816
0.0112129
-0.0985151
-0.00966076
-0.0292749
-0.00242033
-0.0226574
-0.0321097
-0.00227009
0.00320364
0.00104855
-0.0680814
-0.0224968
0.00280471
-0.0305985
-0.0904784
-0.000642747
0.000509909
0.00157211
-0.0903851
0.00166641
0.00179222
-2.09007e-05
-0.019809
-0.0743291
0.00138467
-0.0571667
-0.0817369
0.000147079
0.0111719
-0.026352
-0.0618361
-0.0101816
-0.0741226
0.00223294
-0.00162548
-0.000889002
-0.0667174
-0.026081
0.000903461
-0.0826692
-0.000284482
-0.00152521
0.0299065
-0.0617211
0.0137153
-0.0343475
-0.0200998
-0.00926209
-0.0754645
0.0027556
4.72214e-05
-0.00464636
-0.0269117
-0.00215874
0.00919555
-0.000146817
-0.00389668
-0.0674417
-0.00887702
-0.0849663
-0.000173237
-0.0824508
-0.0698644
-0.00437499
-0.00589023
-0.0208901
0.0112488
-0.0569959
-0.0363417
-0.0898471
-0.0946846
0.017709
0.00160379
-0.062125
-0.103943
0.0113459
-0.0729317
0.00127893
0.00338892
-0.00437109
0.00265575
-6.54193e-05
-0.0299945
-0.0852397
0.00989744
-0.00558824
-0.108158
-0.0587226
-0.0609719
-0.0783136
0.00893343
-0.0682018
-0.0487393
-0.0474363
0.00154346
0.00374814
-0.0450465
-0.0699619
0.00518812
-0.0823904
-0.0822556
0.00225266
-0.00488263
0.000388311
-0.0103042
0.00190265
-0.0385492
-0.100672
0.00138424
-0.00018894
0.00225805
-0.00529898
-0.0522143
-0.0898796
0.00511732
-0.0654575
-0.0318059
0.000743346
-0.00838782
-0.0197092
0.000191209
-0.0677722
-0.068969
-0.0448962
-0.0272391
-0.0769695
0.00350858
-0.0701482
-0.0839058
-0.0350395
-0.071126
0.00114066
0.000874327
-0.00410877
-0.0166712
-0.0717669
-0.0345628
-0.00537721
-0.0116944
-0.0100712
-0.079017
0.00150514
0.0005001
-0.0641672
-0.0800893
-0.00674615
-0.00275582
-0.0397831
-0.00115586
-0.00130566
-0.0236694
0.00142978
-0.057274
-0.00795528
-0.0693953
0.00213757
-0.00483503
-0.0590623
0.00274844
4.72192e-05
-0.0161502
-0.0286107
0.00418214
0.0103576
-0.0522159
-0.0576102
-0.0706877
-0.0538805
-0.00755815
-0.00930287
-0.00203851
-0.0170678
0.000534844
0.0193881
0.000630474
1.23964e-05
-0.0917206
-0.00240423
-0.0371973
-0.0158575
0.00468854
0.00173676
0.00031591
-0.00842853
-0.00898287
-0.0642382
-0.0155819
-0.0527896
-0.0663042
-0.0148527
-0.0437679
-0.0679398
-0.0689532
-0.0618082
3.92218e-05
-0.0166409
-0.0179932
-0.00712649
-0.0434067
0.00144013
-0.00884685
-0.0586092
-0.0721424
-0.00479459
-0.051264
-0.0447223
-0.0527761
-0.0542731
-0.0100034
-0.0556899
-0.0570406
-0.0583122
-0.0595185
-0.0542545
-0.0456292
0.00692991
0.00108117
-0.0252767
-0.0510467
0.0019597
-0.0531021
-0.0663748
-0.0375511
-0.0879352
3.06026e-05
0.000856042
-0.00182469
-0.080454
-0.0088124
0.00250913
-0.0451364
-0.0874542
0.012754
0.000143206
0.00830795
-0.0134254
-0.118054
-0.00932023
-0.019597
-0.0702139
-0.0806577
-0.0527693
-0.0777278
-0.0395656
-0.00244684
-0.0675244
1.57093e-05
-0.0647095
-0.0711144
-0.00095706
-0.0265915
-0.02847
0.00734924
0.00168736
0.00955277
0.0205117
-6.33172e-05
-6.72979e-05
-0.0447567
-0.067128
-0.0273876
-0.00125752
-0.0639947
-0.0505933
-0.0818617
-0.0652094
-0.00467433
-0.00132532
-0.00837202
0.00127282
-0.0761178
0.010739
-0.0904264
-0.0497285
-0.0666912
0.00225389
0.00163241
0.00153565
-0.0774642
0.00104049
-0.0708277
-5.56464e-05
-0.0764152
-0.00934788
0.0026887
0.00181307
0.0015288
-0.055064
-0.000973183
0.000193818
0.0044638
-0.00955105
-0.0569588
-0.0847257
-0.0315509
-0.0819347
0.00119708
0.00155726
-0.0219445
-0.0259303
-0.0611461
-0.0890058
-0.0255938
-0.0629841
-0.0567648
-0.0777101
0.000166749
0.000779284
0.00142331
0.00157031
-0.0691913
0.0177651
0.000633364
-0.00240661
-0.0597831
0.0026045
-0.0045956
0.026847
-0.116472
-0.000853484
-0.00906379
4.97064e-05
-0.0818948
-0.000178454
0.00210593
-0.0683911
-0.0560842
-0.0664198
3.90342e-05
-0.0308555
-0.0331553
-0.0698948
-0.0679188
-0.000225179
-0.0579696
0.00328876
0.00298703
-0.00720757
0.0154647
-0.025356
0.00324576
-0.0238091
-0.0146336
-0.0538284
-0.0772659
-0.0740674
-0.0683016
0.00222189
-0.0324652
0.00362597
-0.0586976
0.00132617
-0.0275055
0.00554227
-0.031816
-0.00573231
0.000493906
0.00160984
0.00398705
-0.0724016
-0.0529914
0.00537835
0.0240556
-0.0522217
0.000993347
0.00355728
-0.0706916
-0.0164833
-0.0294559
-0.0704278
-0.00100319
-0.0922552
0.00160408
-0.0832197
-0.0932884
0.0126775
0.00727479
-0.0224174
-0.0544048
-0.051944
-0.0736507
0.0140343
-0.00818611
-0.0720864
0.0122882
-0.0542881
-0.00158225
-0.101021
-0.0257991
-0.0690519
-0.0243954
0.0335921
-0.0039637
-0.093355
-0.0364855
-0.0749895
-0.0681023
0.0016134
5.65175e-05
-0.0799426
-0.0656036
0.00204318
-0.00706605
-0.00304665
0.00945919
-0.0803707
0.0179503
-0.069728
-0.0057138
-0.0671769
-0.0309204
0.0188691
-0.00774333
-0.05298
-0.0892118
0.00165841
-0.0497784
2.33132e-05
-0.0145937
-0.00529148
-0.00929523
0.00177364
-0.00520032
-0.0688569
-0.07012
0.00147753
-0.0640185
-0.00602754
0.00372696
-0.000898225
0.00161815
-0.00692698
-0.0669842
-0.0702241
0.000772639
0.0173292
-0.0456134
-0.0399048
-0.0742695
-0.0503165
-0.0065393
-0.0314404
-0.000599148
-0.00839201
0.0080631
-0.0622371
0.000703128
-0.0711313
-0.0724005
-0.0347327
-0.0608221
-0.065134
0.00185985
-0.0769787
-0.0305244
-0.0427742
0.0109325
0.00273235
0.0055198
-0.0557961
-0.00475345
0.0103173
-9.50237e-05
-0.0703892
-0.0585522
-0.0480873
-0.0575189
-0.0585991
-0.07006
-0.00104864
0.00133261
-0.0443712
-0.00426981
-0.00604742
-0.00641566
-0.00380883
0.00258637
-3.04344e-05
-0.00399688
0.00113823
-0.00453297
-0.000527595
0.000573562
0.0109334
-0.0512569
-0.00476666
-0.0681178
-0.00595253
-0.000297382
-0.0518271
-0.0376953
0.00145335
0.00266765
0.0194335
-0.0184182
-0.0768292
-0.0187996
-0.0406432
-0.00105773
0.00352901
0.00723403
-0.0653247
-0.0465181
0.00310998
3.50629e-05
-0.0797127
-0.00562595
0.000336031
-0.0481061
-0.0163298
-0.0513133
-0.0738749
-0.0521826
0.01377
-0.0042999
-0.0859091
0.00312124
-0.00363164
-0.0237055
-0.00913513
-0.0435198
-0.038016
-0.0875159
-0.00234499
-0.00325523
-0.0217365
-0.0645925
-0.0436102
-0.00505965
-0.0532954
-0.0513451
-0.0368138
-0.0071561
-0.00548922
-0.0535685
-0.0331804
-0.0623655
0.000418767
0.00551457
-0.0448116
-0.00666596
-0.0385543
-0.0520542
-0.000788775
-0.0527388
0.000431386
-0.0347699
0.018259
-0.00424445
0.00322379
-0.000524435
-0.0696192
-0.0628162
-0.000482287
0.00520438
-0.054747
-0.00631113
0.0034514
-0.0130346
-0.0653168
-0.052709
-0.0717923
-0.0194861
-0.0301633
-0.0692895
-0.0560985
-0.0288516
0.00645382
-0.050682
0.00679064
-0.00292928
-0.0510791
-0.0573883
-0.00300271
0.0222646
-0.00989822
0.0161553
-0.00449462
-0.0585937
0.00254019
-0.0648176
-0.0208678
0.00180771
0.000565096
0.00173195
-0.00235697
-0.00371887
0.00181449
-0.0197055
-0.000710843
-0.00231539
-0.00755756
-0.048774
-0.00907424
-0.0350473
-0.0079032
0.000396435
0.000306523
-0.038261
0.00437689
-0.0709832
-0.0045322
-0.0045989
-0.0229661
-0.0281424
-0.00334308
-0.00299352
-0.0337184
-0.0181949
-0.0268735
-0.0342712
0.00370528
-0.112791
-0.0186026
-0.00416914
-0.00574897
-0.0613464
0.00158531
-0.0311894
-0.000113241
-0.0227137
0.00183152
-0.00125138
0.000972637
-0.00486485
0.00810485
-0.0360338
-0.116973
-0.0286784
-0.00269612
-0.00237365
-0.0623278
0.00551491
-0.0575339
-0.0532941