/*--------------------------------*- C++ -*----------------------------------*\
| =========                 |                                                 |
| \\      /  F ield         | OpenFOAM: The Open Source CFD Toolbox           |
|  \\    /   O peration     | Version:  v2012                                 |
|   \\  /    A nd           | Website:  www.openfoam.com                      |
|    \\/     M anipulation  |                                                 |
\*---------------------------------------------------------------------------*/
FoamFile
{
    version     2.0;
    format      ascii;
    class       surfaceVectorField;
    location    "350";
    object      Uf;
}
// * * * * * * * * * * * * * * * * * * * * * * * * * * * * * * * * * * * * * //

dimensions      [0 1 -1 0 0 0 0];


internalField   nonuniform List<vector> 
20642
(
(0.715304 -0.00440479 3.52958e-21)
(0.724277 -0.00419898 1.45029e-20)
(0.745801 -0.0014379 0)
(0.999241 -0.00825722 -1.36455e-22)
(0.998297 -0.00853429 1.02759e-21)
(0.998577 -0.00734101 -1.27889e-21)
(1.0603 0.014195 -5.44956e-21)
(1.0605 0.0150125 5.26097e-21)
(1.06112 0.0144087 -1.3295e-20)
(1.02348 0.00213079 -1.46955e-21)
(1.02339 0.00243177 -7.87121e-22)
(1.02317 0.00214478 -4.66093e-23)
(1.0197 -0.0255969 6.19563e-22)
(1.01876 -0.0266698 -3.31784e-21)
(1.01829 -0.0252113 -1.22649e-21)
(1.00036 -0.00791557 -2.4919e-21)
(1.00003 -0.00898561 -2.51601e-21)
(1.03086 0.00913656 -2.17594e-22)
(1.03035 0.00890381 4.75433e-21)
(1.03042 0.00950894 8.1767e-22)
(0.979344 -0.0108475 8.55727e-22)
(0.977891 -0.013648 -3.23996e-23)
(0.975536 -0.0103737 3.10363e-21)
(1.03483 0.00183339 -4.58636e-23)
(1.03459 0.00216939 6.72383e-21)
(1.03506 0.00223643 3.41471e-21)
(-0.001493 -0.0614799 1.40807e-20)
(0.0055227 -0.0637215 2.24247e-20)
(0.980321 -0.00787493 -2.8567e-21)
(0.982495 -0.0107032 1.88966e-21)
(1.0196 0.00078638 1.0959e-22)
(1.01958 0.0009577 1.29753e-21)
(1.01977 0.000911961 1.105e-22)
(1.01195 -3.71958e-05 8.41893e-23)
(1.0119 -5.93645e-05 8.02791e-23)
(0.782743 0.0135476 1.17041e-20)
(0.712351 0.026577 9.88731e-21)
(0.808129 0.0181054 2.33509e-20)
(1.00749 -0.00896792 9.72354e-23)
(1.00683 -0.00904919 3.10034e-21)
(1.00715 -0.00835039 -2.11161e-21)
(0.698766 -0.00468887 -8.24301e-22)
(0.649458 -0.00836244 -8.24686e-21)
(1.03211 0.000288735 -6.89363e-25)
(1.03213 0.0002553 -9.37377e-23)
(1.02628 0.000200184 7.11531e-23)
(0.981055 -0.00510632 -2.63273e-21)
(0.982166 -0.00270758 2.95349e-21)
(0.983936 -0.00538079 -2.63198e-21)
(1.05258 0.0217538 1.94067e-21)
(1.05345 0.0216308 -1.25531e-21)
(1.05305 0.0226349 8.00092e-21)
(0.628351 0.00368348 2.53266e-20)
(0.718666 0.00785399 -1.24718e-20)
(0.726649 0.0113512 2.1963e-20)
(1.00447 0.0128869 -4.16252e-22)
(1.00379 0.0138489 3.1381e-22)
(1.0034 0.0127342 -8.6669e-22)
(1.02075 -0.0104347 6.52488e-23)
(1.02051 -0.00996719 9.33844e-22)
(1.02037 -0.0105596 -2.39242e-22)
(1.03864 0.01766 1.08052e-20)
(1.03892 0.0170578 2.46023e-21)
(1.03925 0.0178924 7.50803e-22)
(1.02108 -0.0110147 -2.47692e-22)
(1.02109 -0.010381 -3.17709e-23)
(1.02094 0.00596401 -2.8299e-21)
(1.02112 0.00630244 -1.71808e-21)
(1.02071 0.00616452 1.11159e-21)
(0.999668 0.0120457 4.83122e-22)
(1.00093 0.0122593 1.64384e-21)
(1.00054 0.0110416 8.58006e-22)
(0.984486 0.0663857 7.91453e-22)
(1.00802 0.0635788 -2.02946e-21)
(1.0071 0.0658174 -8.65936e-22)
(0.0144387 -0.0594367 -4.43123e-20)
(0.989066 0.00584273 0)
(0.990532 0.00709405 2.22348e-21)
(0.991049 0.00500526 -1.937e-21)
(1.03773 0.012535 0)
(1.03772 0.0128285 -2.78337e-24)
(1.03695 0.0123635 5.71839e-25)
(-0.0198735 -0.0411112 -4.95318e-21)
(0.00596159 -0.0489798 -2.97703e-22)
(1.04668 0.0130517 1.15961e-20)
(1.04707 0.01267 1.44044e-20)
(1.04709 0.0133524 -1.07032e-20)
(1.02113 0.00324911 5.03269e-22)
(1.02094 0.00300831 6.27758e-22)
(1.02123 0.00302122 -2.32007e-23)
(0.795039 0.00133538 0)
(0.815064 0.00303456 -1.91679e-21)
(0.814282 0.00268539 0)
(1.04149 -0.0136802 5.02326e-22)
(1.0418 -0.0132429 8.65679e-23)
(1.04242 -0.0139384 4.24369e-22)
(0.978905 -0.0171793 5.22762e-22)
(0.974971 -0.0173298 -3.78258e-21)
(1.0125 0.00267696 8.94383e-23)
(1.0126 0.00322798 5.07772e-23)
(1.01198 0.00300893 -1.59079e-22)
(1.0151 -0.000201931 0)
(1.02065 -0.00019396 -2.55599e-22)
(1.01402 -0.000172524 0)
(1.03139 0.00935021 -8.26296e-22)
(1.03122 0.00877028 -5.56186e-21)
(1.01141 0.0223871 -9.84131e-22)
(1.01148 0.0234508 1.82799e-22)
(1.01253 0.0226739 4.7964e-22)
(1.01656 -0.000182931 4.97641e-23)
(1.01391 -0.000116582 0)
(1.02307 0.000846444 0)
(1.05484 -0.0044021 0)
(1.05549 -0.0046852 0)
(1.05482 -0.00475352 0)
(1.0326 0.00047251 -6.58876e-22)
(1.03221 0.000854063 -6.03594e-22)
(1.03214 0.000242506 9.48271e-22)
(1.05265 0.016911 9.93776e-21)
(1.05252 0.0162615 1.17364e-20)
(1.05324 0.0166161 1.31295e-20)
(1.05196 0.0172769 9.48752e-23)
(1.05266 0.017801 -1.32951e-20)
(1.03675 0.0535467 7.32427e-21)
(1.03743 0.0521661 -4.95691e-21)
(1.03843 0.0544124 8.91802e-21)
(1.00533 0.0119867 -2.42326e-22)
(1.00583 0.012972 -5.5964e-23)
(0.171358 0.0139508 1.63518e-20)
(0.298022 0.0204979 1.2891e-20)
(0.286117 0.0231485 2.46463e-20)
(0.788903 -0.0326388 1.78556e-21)
(0.770996 -0.0332718 -2.32928e-22)
(0.85554 -0.0329162 2.79381e-21)
(1.04093 -0.0135576 5.50147e-22)
(1.04146 -0.0142276 2.41629e-22)
(1.01942 0.000710143 -1.21724e-21)
(1.01956 0.000637136 -8.48267e-22)
(1.04095 0.0399371 0)
(1.04047 0.041368 8.38844e-21)
(1.0395 0.04023 3.30405e-21)
(0.49909 -0.00392767 0)
(0.63918 -0.00601672 0)
(0.494861 -0.00452867 1.39563e-20)
(1.01742 -0.00185329 1.84097e-26)
(1.01757 -0.0019217 2.67684e-24)
(1.01743 -0.00213353 -6.95898e-23)
(1.01731 -0.00115021 -9.39618e-23)
(1.01744 -0.00126629 -1.93644e-26)
(1.0175 -0.0010056 0)
(1.04144 0.0389647 3.26013e-21)
(1.04213 0.0399974 -7.63884e-21)
(0.193921 -0.0161142 1.94945e-20)
(1.0383 0.0182582 -5.7565e-21)
(1.03804 0.0174527 -3.82524e-21)
(1.05411 -0.00409352 -3.7385e-23)
(1.05483 -0.00400931 -5.44552e-23)
(1.03506 0.0554328 -8.69918e-21)
(1.03504 0.0530401 1.69059e-21)
(0.641141 0.0887455 0)
(0.532238 0.0909324 0)
(0.499953 0.0857282 0)
(1.05444 -0.0231923 9.70702e-23)
(1.05381 -0.0244451 -3.5776e-23)
(1.05368 -0.0232031 6.78466e-23)
(1.01726 0.000483305 1.07885e-21)
(1.01838 0.000757617 -1.09031e-26)
(1.02003 0.00104457 -3.5527e-24)
(1.0212 0.00568988 2.88004e-22)
(1.02077 0.00561747 -8.76698e-22)
(1.07875 0.0186454 -4.88329e-21)
(1.07856 0.0199788 -2.40476e-20)
(1.06874 0.0190933 -4.01405e-20)
(1.04604 0.0126245 0)
(1.04695 0.0132023 -5.98179e-23)
(1.04575 0.0144908 2.03038e-22)
(0.987694 0.00441954 -1.31658e-21)
(0.986327 0.00296324 3.12798e-22)
(0.988529 0.0022514 -1.229e-21)
(0.982049 -0.0172358 8.63005e-22)
(0.980133 -0.0210648 -2.13251e-21)
(0.97818 -0.00471514 0)
(0.710005 -0.00460868 1.21196e-20)
(0.686902 -0.00423328 7.24268e-21)
(0.68432 -0.0045911 -4.77111e-22)
(1.06578 0.0173298 8.26454e-22)
(1.06496 0.018974 -7.88643e-21)
(1.07005 0.0174215 5.82943e-21)
(0.778825 9.37124e-05 6.85553e-21)
(0.778216 0.000586021 0)
(1.02209 -0.00141328 -7.55536e-22)
(1.02241 -0.00137763 -5.33976e-22)
(1.02214 -0.00120022 -6.68625e-22)
(1.05339 -0.00383803 -1.76282e-23)
(1.0534 -0.00420942 -5.44665e-23)
(1.00311 0.0149049 -7.38251e-23)
(1.00433 0.0149008 4.50376e-22)
(1.01794 0.00649794 -2.24345e-21)
(1.01802 0.00696384 6.71432e-22)
(1.01755 0.00657122 -8.37181e-22)
(1.01892 -0.0188688 7.72806e-22)
(1.01835 -0.019315 6.20819e-22)
(1.01823 -0.0182725 1.88705e-21)
(1.05268 -0.00358153 4.316e-23)
(1.05335 -0.00343617 2.09006e-23)
(1.01838 0.00631418 1.22166e-21)
(1.01786 0.00606891 -4.78392e-22)
(1.02105 0.00337833 -6.14862e-22)
(1.02129 0.00342661 1.15027e-21)
(1.01535 -0.00515658 -2.79138e-22)
(1.01551 -0.00560823 -3.91015e-22)
(1.01574 -0.00518521 -2.84961e-22)
(1.03215 0.000171318 0)
(1.03234 0.000169976 5.49824e-23)
(1.0269 0.000119018 0)
(1.02205 -0.00162548 0)
(1.02181 -0.00145538 1.60098e-21)
(1.06074 0.00890429 -6.2585e-21)
(1.0605 0.00994697 -8.03359e-21)
(1.0598 0.00898445 8.86193e-21)
(1.01885 -0.000737533 1.77939e-23)
(1.01881 -0.000828428 4.12308e-23)
(1.01894 -0.000839717 -1.87194e-24)
(0.961966 0.0121785 -5.19507e-21)
(0.958838 0.0160271 -4.66266e-21)
(0.957727 0.0104596 1.52171e-21)
(1.04634 0.0126302 -4.1661e-21)
(1.04624 0.0132868 3.48718e-22)
(1.01905 -0.000335295 -3.35704e-23)
(1.01917 -0.000347185 -8.6947e-23)
(1.01867 -0.000235259 6.5479e-23)
(1.01155 0.0211545 0)
(1.01039 0.0218447 -1.06459e-21)
(1.03167 0.000336156 0)
(1.03427 0.000293356 0)
(1.0362 0.00040876 -5.46446e-23)
(1.03599 0.00046959 0)
(1.03652 0.000506094 0)
(1.03299 0.00084197 -2.27246e-21)
(0.81118 -0.0301579 -1.0078e-20)
(0.727988 -0.0340203 -1.67793e-22)
(1.04237 -0.0103928 4.65943e-22)
(1.04316 -0.0104927 1.19982e-22)
(1.04258 -0.0099696 -1.15229e-22)
(1.01564 -0.00123722 7.94352e-23)
(1.01568 -0.00162964 0)
(1.01535 -0.00148996 1.88098e-22)
(0.987103 0.00687353 0)
(0.993181 0.0707283 3.29045e-21)
(0.992512 0.0663095 7.55405e-22)
(0.986546 0.0668757 8.4483e-22)
(1.0303 -0.000273205 -5.48831e-27)
(1.03016 -0.00028959 1.58668e-22)
(1.0257 -0.000140451 -2.25665e-27)
(1.01903 -0.000424278 -1.56678e-23)
(1.01895 -0.000292196 -8.06353e-23)
(0.99925 0.049775 2.13882e-22)
(0.998697 0.0468558 0)
(0.99642 0.0487867 0)
(1.02224 0.000656849 -5.112e-24)
(1.02249 0.000576898 2.86855e-25)
(1.01708 0.000377601 3.919e-24)
(1.02235 0.00067744 -7.89465e-22)
(1.02507 0.000629812 -4.51482e-24)
(1.01498 -0.00514309 1.0004e-21)
(1.01525 -0.00475551 0)
(1.03203 -0.000609281 2.57814e-22)
(1.03176 -0.00063109 -4.78469e-22)
(1.03081 -0.000478567 -4.65578e-23)
(1.01958 -0.0183063 0)
(1.01975 -0.0193578 1.01198e-21)
(1.05018 0.000218734 -2.75803e-21)
(1.0506 0.00041963 -1.65872e-20)
(1.05029 -0.000220921 -1.37868e-20)
(0.818468 0.0250088 0)
(0.813855 0.0224634 3.04677e-20)
(0.797922 0.0228753 -2.13122e-20)
(1.05501 -0.021982 2.98107e-22)
(1.05608 -0.0232195 1.86467e-22)
(1.05615 -0.00464123 0)
(1.05609 -0.0049921 -6.54165e-23)
(0.953619 0.0679154 -8.23129e-23)
(0.950714 0.0636185 -1.42643e-21)
(1.01602 -0.000433351 2.27905e-23)
(1.01599 -0.000590371 -2.82437e-23)
(0.83809 0.00495843 2.00755e-22)
(0.818569 0.00388991 -6.18454e-21)
(0.991917 0.00819137 1.93261e-21)
(0.99021 0.00927924 -5.04488e-22)
(1.07846 0.0173078 5.88049e-21)
(1.07815 0.0186289 2.59798e-20)
(1.01614 0.00700176 -9.67719e-22)
(1.01629 0.00753659 8.76572e-22)
(1.01662 0.00692431 -6.34663e-22)
(1.05169 0.0219659 -4.88698e-21)
(1.05205 0.0210656 5.92009e-22)
(1.03369 0.000699698 5.23656e-24)
(1.03482 0.000969939 3.87732e-24)
(1.03428 0.000817093 2.02404e-23)
(1.05933 0.0172138 -4.53139e-21)
(1.05927 0.016293 -9.083e-21)
(1.05855 0.0169612 -1.56116e-20)
(1.02122 -0.00282145 -7.74695e-22)
(1.02135 -0.00261638 -1.53917e-21)
(1.02104 -0.00265918 -6.62683e-22)
(1.03431 0.000114442 0)
(1.03168 0.000171914 0)
(1.05138 -0.00379982 1.35024e-22)
(1.05071 -0.00387754 -3.81296e-23)
(1.05066 -0.00352451 -7.52837e-23)
(0.98503 0.00119241 2.45854e-21)
(0.984111 0.00373372 -3.1596e-21)
(1.04681 0.0286332 -1.10896e-20)
(1.04616 0.0295033 -9.93154e-21)
(1.04581 0.028314 -1.63712e-20)
(0.666693 -0.00903559 -2.40455e-21)
(0.693115 -0.00682121 -9.3536e-21)
(0.671241 -0.00840301 -1.04675e-20)
(1.06417 0.00874611 -4.80931e-21)
(1.06377 0.00789947 0)
(1.02142 0.00544564 1.01894e-21)
(1.02163 0.00520128 -9.7987e-22)
(1.02128 0.00512713 8.6318e-22)
(1.00188 0.0147959 -5.05783e-22)
(1.00248 0.0160064 1.48587e-22)
(1.03162 -0.0114801 -2.41666e-22)
(1.03204 -0.0113667 1.50439e-21)
(1.03148 -0.0109815 4.36473e-22)
(1.04711 0.0277511 -5.59243e-21)
(1.04768 0.0287934 7.52684e-21)
(1.03849 0.00784354 -3.06707e-21)
(1.0385 0.00834217 1.23522e-21)
(1.03893 0.0079364 3.21786e-21)
(1.02042 0.0498665 3.16291e-21)
(1.02086 0.049148 3.17177e-21)
(1.02124 0.0501729 -3.26668e-22)
(1.01504 -0.000801112 -6.13109e-21)
(0.987849 -0.000659494 -4.41463e-21)
(0.992037 -0.000632387 -8.3212e-21)
(1.01559 0.00716828 0)
(1.01589 0.0065184 -3.55998e-22)
(1.04858 0.0137831 -3.28404e-21)
(1.04883 0.0143058 -1.21859e-20)
(1.0492 0.0136292 -2.41352e-21)
(0.900197 0.0701517 -3.54386e-22)
(0.955616 0.0713146 -5.59917e-22)
(0.446566 0.0910164 -9.9551e-21)
(0.562264 0.088991 7.02744e-21)
(0.573119 0.0881317 3.14114e-21)
(0.644849 -0.00586675 7.89324e-21)
(0.642863 -0.00635064 -8.57146e-21)
(0.670022 -0.00541957 -2.03915e-21)
(0.997054 0.0112411 1.47131e-21)
(0.998495 0.0117161 -6.62209e-22)
(0.998069 0.0102155 -6.47251e-22)
(1.01527 -0.00014538 0)
(0.705271 0.00515855 -8.83735e-22)
(0.724166 0.00360443 -7.32645e-22)
(0.709965 0.0108772 -4.94239e-21)
(1.05203 -0.0037028 8.32494e-23)
(1.05196 -0.00332882 -2.53686e-23)
(1.04915 -4.22345e-05 6.11698e-22)
(1.0527 0.000600903 2.36861e-20)
(1.02139 -0.00603899 6.11596e-22)
(1.02158 -0.00601612 3.9789e-22)
(1.02161 -0.00635016 2.79444e-22)
(1.02125 -0.00127552 0)
(1.02148 -0.00120927 -8.48068e-22)
(1.02131 -0.00107937 0)
(1.06036 -0.00616232 -1.18068e-22)
(1.06073 -0.00574589 -1.04255e-22)
(1.05997 -0.00558304 0)
(1.06489 0.0166964 -5.72793e-21)
(1.06617 0.0160451 6.80824e-21)
(0.755435 0.00971894 -6.78393e-22)
(0.338374 0.0268636 -7.29787e-21)
(0.391456 0.0314959 1.35093e-20)
(0.243011 0.0170885 0)
(1.01741 -0.00154737 5.7748e-25)
(1.01722 -0.00175289 2.54223e-23)
(1.01172 0.0201775 -3.43074e-22)
(1.01183 0.0191978 -1.05449e-21)
(1.0108 0.0196079 3.14462e-23)
(1.02105 0.000516837 -1.26624e-21)
(1.02213 0.000636134 1.9083e-23)
(1.02466 0.00103008 1.61198e-23)
(1.02103 -0.00132213 -7.97321e-22)
(1.02118 -0.00145792 0)
(0.995766 0.0736132 2.43773e-22)
(0.9888 0.0746679 -8.22658e-22)
(1.0241 -0.0155291 -2.14356e-21)
(1.02394 -0.0160897 3.51352e-22)
(1.02452 -0.0161014 -1.81439e-21)
(1.03236 -0.000630557 4.42183e-22)
(1.03242 -0.00092559 3.33006e-22)
(0.978853 -0.000409069 9.26525e-21)
(0.973499 -0.00122899 -2.72758e-20)
(0.951319 -0.000558532 -8.13339e-21)
(1.02897 0.000551775 -2.32213e-23)
(1.02877 0.00052517 4.76669e-23)
(1.02236 0.000259165 -2.30736e-23)
(1.03283 0.000639244 5.37128e-24)
(1.03136 0.000451511 3.84661e-22)
(1.01971 -0.00245188 -4.78632e-24)
(1.01969 -0.00255348 -1.12353e-23)
(1.01985 -0.00264498 -5.01419e-23)
(1.00623 0.0437432 1.61107e-20)
(1.01833 0.0421811 -2.7424e-21)
(0.982195 0.0417586 -1.36597e-21)
(1.00747 0.000597325 2.00017e-22)
(1.00811 0.0010454 3.32517e-22)
(1.00811 0.000207498 -5.68313e-22)
(0.704794 -0.00039086 0)
(0.811069 0.0600274 -2.35325e-20)
(0.807558 0.0577928 -4.29355e-21)
(0.840885 0.0581059 -1.81511e-20)
(0.997549 0.0566052 -5.76763e-22)
(0.999177 0.0541323 -1.64499e-22)
(0.995715 0.053918 -2.47697e-22)
(0.499998 -0.00563489 0)
(0.371974 0.0502283 2.03708e-20)
(0.521269 0.0609419 4.38911e-20)
(0.390915 0.0554643 3.0664e-20)
(1.02397 0.00381192 0)
(1.02422 0.00419367 4.30183e-24)
(1.02369 0.003986 0)
(0.995601 0.0104722 1.40991e-21)
(0.996011 0.0123621 -6.92314e-22)
(1.02116 -0.011521 6.90004e-25)
(1.02118 -0.0119833 -1.02028e-21)
(1.02067 -0.0116048 9.08867e-22)
(1.00501 0.00123248 -7.44955e-21)
(1.00944 0.00139646 6.30046e-21)
(0.978636 0.000732702 -1.16774e-20)
(1.03465 0.00136239 -5.55156e-21)
(0.801068 0.0807112 0)
(0.736088 0.083528 0)
(0.759269 0.0853123 0)
(1.02996 0.0343606 4.42038e-21)
(1.03054 0.033589 0)
(1.03085 0.034674 0)
(1.02492 0.00062212 -6.65017e-24)
(1.02825 0.000890818 -8.1313e-23)
(1.02454 0.0006228 -6.02726e-24)
(1.02381 0.00215825 1.14797e-21)
(1.02359 0.00189139 2.23003e-22)
(1.0402 0.0427013 9.18717e-21)
(1.03996 0.0442709 -1.00744e-20)
(1.03879 0.0431245 -5.51259e-21)
(1.03842 0.00734383 3.30357e-21)
(1.03805 0.00773482 -3.243e-21)
(1.00676 0.00106423 -3.33492e-22)
(1.00686 6.82756e-05 6.1661e-22)
(1.0319 0.00111497 1.40463e-21)
(1.03148 0.000917 7.13535e-21)
(1.03151 0.00145509 1.12274e-21)
(1.02157 -0.0114301 0)
(1.01931 0.000605654 -8.24655e-22)
(1.01927 0.000739723 -1.16951e-21)
(1.05114 0.0435277 2.17823e-21)
(1.05151 0.0422033 3.95913e-21)
(1.05224 0.0433345 -1.60458e-21)
(1.0594 0.0180371 9.82599e-21)
(1.06016 0.0174278 1.05168e-20)
(1.01958 0.0496951 1.37907e-22)
(1.01968 0.0507313 0)
(1.01928 0.000442647 -4.6937e-23)
(1.01914 0.000490307 -4.22687e-22)
(1.05109 0.0454653 4.4025e-21)
(1.04954 0.0441878 1.86772e-21)
(1.03852 0.0126684 7.38008e-24)
(1.03754 0.0121591 0)
(0.96556 0.00973014 -2.18761e-21)
(0.96618 0.0142726 7.02241e-22)
(1.02884 0.0343413 -2.93007e-21)
(1.02932 0.0354842 6.88795e-21)
(1.05136 0.0175018 3.3172e-21)
(1.05135 0.0167879 -4.91963e-21)
(1.05043 0.038134 6.12161e-21)
(1.05006 0.0368421 1.55073e-21)
(1.04908 0.0378522 1.81651e-21)
(0.727809 -0.00315361 1.14278e-21)
(0.751085 0.000662521 -1.20148e-20)
(0.729943 -0.000786234 -1.28327e-20)
(1.04233 -0.0108546 5.13961e-22)
(1.04188 -0.0103416 5.24777e-22)
(0.678918 -0.00593816 -2.36255e-21)
(0.700226 -0.00570339 9.42406e-21)
(0.674635 -0.00750439 -3.66479e-21)
(1.02213 0.0112992 3.30285e-21)
(1.02175 0.0116867 -5.98559e-22)
(1.02164 0.0111092 -4.25089e-21)
(1.03978 -0.00143067 -1.73589e-22)
(1.03676 -0.0017168 2.56728e-22)
(1.04235 -0.0128868 -2.79292e-22)
(1.04134 -0.0126644 6.10402e-23)
(1.02425 -0.014976 -4.22547e-22)
(1.0237 -0.0149189 -2.1081e-21)
(1.00717 0.0112661 8.48517e-23)
(1.00773 0.0120604 9.26929e-24)
(1.00807 0.0110932 4.49704e-24)
(0.685948 -0.00474124 3.0978e-21)
(0.687769 -0.00434967 -5.87154e-21)
(0.712595 -0.00412455 -1.77726e-20)
(0.643387 -0.00598774 5.91736e-21)
(0.59716 -0.00588668 2.75228e-20)
(1.01257 0.000302384 1.018e-22)
(1.01215 0.000554512 0)
(1.01214 -2.89253e-05 0)
(1.01102 0.0587358 0)
(1.01461 0.0568146 2.4871e-21)
(1.01212 0.0561374 1.51686e-21)
(0.997645 0.0021832 2.45761e-22)
(0.99782 0.0008919 1.98142e-21)
(0.998886 0.00190257 1.43213e-21)
(1.01267 0.0206249 0)
(1.05207 -0.00407781 6.32373e-23)
(1.0416 0.0422961 5.26924e-21)
(1.01576 -0.00602615 -2.50797e-23)
(1.01535 -0.00603047 -3.1878e-22)
(1.03105 -0.00776667 -1.57032e-23)
(1.03087 -0.00737275 -3.32203e-22)
(1.03139 -0.00765151 2.16139e-22)
(1.01919 -0.0324758 3.20456e-24)
(1.02086 -0.0314559 -2.01182e-21)
(1.01891 -0.0308852 2.55565e-21)
(1.01957 -0.0342918 -2.55738e-21)
(1.01713 -0.0336342 5.04899e-21)
(0.486721 0.0309404 1.97674e-21)
(1.04804 0.0138409 1.32377e-21)
(1.04839 0.0133365 1.23581e-20)
(0.998849 0.0131408 -1.30206e-21)
(0.973781 0.0265149 -1.14952e-20)
(0.969845 0.0280463 6.40369e-22)
(0.999879 0.027591 -1.15714e-20)
(1.0212 -0.000256174 -2.38347e-22)
(1.01979 1.95157e-05 2.44839e-22)
(1.0214 -0.000497004 -8.27093e-23)
(1.04355 0.000691287 1.25262e-23)
(1.04386 0.000578308 -2.00062e-25)
(1.04315 0.000579625 -1.86807e-25)
(1.04392 0.000790107 8.47339e-24)
(1.04325 0.000831929 1.32118e-22)
(0.356067 0.0446163 -4.61787e-20)
(1.05116 0.04115 9.8445e-21)
(1.05069 0.0394115 9.95103e-21)
(1.04954 0.0407968 -6.22734e-21)
(1.05126 0.0471526 -4.39352e-21)
(1.05165 0.0490296 -1.15851e-20)
(1.04939 0.0479195 -2.20537e-21)
(1.01717 -0.000649683 0)
(1.01725 -0.000723687 -5.00924e-23)
(1.01712 -0.000708905 -1.11309e-22)
(1.01623 0.000405227 3.42089e-24)
(1.01267 0.000180084 5.77384e-23)
(0.827918 0.0667278 2.18272e-22)
(0.832569 0.0713933 -5.18642e-23)
(0.681227 -0.00527046 1.01047e-20)
(1.04165 0.000569669 2.06751e-23)
(1.04211 0.000636356 0)
(1.042 0.000494436 0)
(1.04116 0.000517477 2.16819e-23)
(1.04127 0.000630931 -1.63658e-22)
(1.0221 -0.000367504 7.49168e-23)
(1.0125 -6.27782e-05 -2.40701e-21)
(1.04431 0.000890413 -3.16445e-24)
(1.04467 0.000787489 -2.20006e-24)
(1.0447 0.00101331 8.33695e-23)
(1.04403 0.0010298 -6.45706e-24)
(0.760098 -0.00167946 1.26137e-20)
(0.773689 -0.00014562 1.23659e-20)
(0.613255 0.0412366 1.10251e-20)
(0.602023 0.0419014 1.73678e-21)
(0.709559 0.0400951 0)
(1.0177 -0.0081108 1.00077e-21)
(1.01804 -0.00803717 -3.33306e-22)
(1.01773 -0.00771164 0)
(1.0264 0.00635385 5.65158e-24)
(1.02698 0.00670879 -8.58085e-23)
(1.02689 0.00635133 -5.93348e-24)
(1.03849 0.0315461 1.8022e-21)
(1.03744 0.0321528 6.25582e-21)
(1.03759 0.0310315 0)
(0.762491 -0.00109627 -1.10387e-21)
(0.747267 -0.00225123 -3.27809e-21)
(0.765559 -0.000743717 1.91148e-22)
(1.03203 0.000538483 5.12962e-23)
(1.02898 0.00051629 -1.6931e-23)
(1.02885 0.000477845 2.37415e-23)
(1.01722 -0.000602459 -1.83984e-22)
(1.01711 -0.000591327 0)
(1.00932 0.061476 8.47508e-22)
(0.983347 0.0609015 -1.49463e-21)
(1.04855 -0.000265863 -6.2515e-21)
(1.04769 -0.000539297 6.12039e-21)
(1.05113 -1.79033e-05 8.6686e-21)
(1.05241 0.0409981 -1.03719e-20)
(0.979815 0.0253864 2.00873e-21)
(0.949118 0.0248471 0)
(1.03146 0.0402499 -2.71704e-21)
(1.03026 0.0404314 -4.02704e-21)
(1.03091 0.0413966 -4.86701e-21)
(1.02123 -0.00579786 -1.40201e-22)
(1.02122 -0.00610233 5.20105e-22)
(0.656067 0.0604444 1.9083e-20)
(0.664968 0.0629494 -1.8562e-20)
(1.03944 0.0312868 -7.31903e-22)
(1.0391 0.0324109 -2.89821e-21)
(0.993072 0.00900074 -2.3554e-21)
(0.993224 0.00725215 1.25484e-21)
(1.04634 0.02027 -3.45159e-21)
(1.04686 0.0207583 5.35952e-21)
(1.0471 0.0199578 -4.30005e-21)
(1.01295 4.20293e-05 -3.59625e-22)
(1.01299 0.000568101 -1.98651e-22)
(0.651576 0.0388833 3.28124e-20)
(1.02145 -0.00245596 0)
(1.0213 -0.00232281 0)
(1.02155 -0.00226211 -2.03175e-23)
(1.02185 0.0248646 0)
(1.02166 0.0254724 2.28187e-21)
(1.0225 0.0251609 0)
(1.03047 0.0327161 -3.02911e-21)
(1.03056 0.0314974 -3.16586e-21)
(1.0295 0.0321204 -2.27006e-23)
(1.01768 -0.00899423 3.28308e-22)
(1.0177 -0.00850045 4.5888e-22)
(1.01803 -0.00892635 -9.90139e-22)
(1.01398 0.000194029 0)
(1.02158 0.0057762 2.16895e-21)
(1.02485 -0.0246891 -5.93961e-22)
(1.02501 -0.0236237 1.11059e-22)
(1.02597 -0.0242542 5.94754e-22)
(1.04677 -0.011292 -4.26982e-23)
(1.04661 -0.0117693 -1.80824e-22)
(1.04741 -0.0118131 -2.72303e-22)
(0.733129 -0.00391726 1.50095e-22)
(0.716901 -0.00462738 1.39289e-20)
(0.713185 -0.00497782 2.31363e-21)
(0.586151 -0.026549 4.98078e-21)
(0.608108 -0.0201474 2.08923e-21)
(0.624332 -0.0259606 1.94345e-21)
(1.05012 -0.0052232 2.23153e-23)
(1.04946 -0.00530595 -1.58532e-23)
(1.04944 -0.00493214 -1.83176e-24)
(1.04096 0.000406423 0)
(1.04069 0.000488583 0)
(1.02334 -0.0160465 2.48949e-22)
(1.02379 -0.0166612 1.18476e-21)
(1.04123 0.00031669 1.70558e-23)
(1.04075 0.000305493 3.40654e-23)
(1.02164 -0.00256472 0)
(1.01555 -9.73236e-05 -1.23111e-22)
(1.01162 -1.42441e-05 -5.99551e-23)
(1.03101 0.0185267 2.74341e-21)
(1.03149 0.0190421 2.66532e-21)
(1.03079 0.0193372 -6.95154e-21)
(1.0508 -0.00517903 -5.24047e-23)
(1.05081 -0.00556124 2.97185e-23)
(0.659071 -0.00673476 0)
(0.680684 -0.00542396 -2.0445e-21)
(0.821019 0.0276454 0)
(0.842252 0.0277281 0)
(1.01874 -0.000561525 6.72179e-22)
(1.01882 -0.000547824 2.53971e-22)
(1.01872 -0.000671305 1.07708e-22)
(1.02374 -0.02135 -4.92284e-22)
(1.02343 -0.0221574 4.27631e-23)
(1.02275 -0.0213865 0)
(1.03347 0.0569084 -7.39055e-21)
(1.0318 0.0563921 4.55846e-21)
(1.0307 0.058706 -2.20606e-21)
(1.04413 0.0027782 -3.01389e-24)
(1.04452 0.00294755 -8.77202e-23)
(1.04377 0.00289431 1.15144e-22)
(0.997603 0.0430875 -1.57171e-22)
(0.998803 0.0450093 0)
(0.999685 0.0423408 1.6127e-22)
(0.753611 -0.00258931 -1.12399e-20)
(0.749641 -0.00305126 -2.21661e-21)
(1.04377 0.00263619 9.43138e-24)
(1.04451 0.00268777 1.47817e-23)
(0.729913 -0.00335118 -4.88013e-22)
(0.726174 -0.00374269 2.39868e-20)
(1.04691 -0.0108073 1.04598e-22)
(1.04614 -0.0107778 1.76823e-22)
(1.03344 0.0444486 -5.51824e-22)
(1.00182 0.0457289 -7.95834e-21)
(1.02459 0.000590794 1.13537e-23)
(1.01895 0.000311746 0)
(1.00874 -0.00874825 1.03982e-21)
(1.00908 -0.00931426 0)
(1.00941 -0.00869199 2.57654e-21)
(1.01755 -0.00933677 -4.02936e-22)
(1.01726 -0.00892588 1.3626e-21)
(1.02256 -0.00696029 8.4686e-22)
(1.02286 -0.00701335 6.28516e-22)
(1.02261 -0.00668558 -6.50541e-23)
(1.05587 0.0292553 0)
(1.05511 0.0285708 9.12425e-21)
(1.05631 0.0281108 7.52358e-21)
(1.02506 -0.000421836 0)
(1.02457 -0.000437281 -2.46606e-22)
(1.02129 -0.000208359 -3.47525e-22)
(0.995728 0.0595062 5.62543e-22)
(0.999557 0.0590567 3.78991e-22)
(1.01962 0.0147013 0)
(1.01908 0.0152566 0)
(1.01899 0.0144164 8.9886e-22)
(1.05986 -0.00632317 -8.54705e-23)
(1.05984 -0.00657291 -2.66574e-22)
(1.01545 0.0546596 -1.31481e-21)
(1.01433 0.055904 3.10437e-21)
(1.01409 0.0539906 1.98292e-21)
(0.635663 -0.00665108 0)
(1.03399 0.00061496 -9.73331e-23)
(1.03379 0.000664267 -4.93192e-22)
(1.03699 0.0228184 -2.45566e-21)
(1.03777 0.0230636 6.0924e-21)
(1.03756 0.0221134 -1.82075e-21)
(1.02255 -0.0253024 9.78655e-22)
(1.02382 -0.0250058 -3.72072e-23)
(1.0228 -0.0240691 -1.65439e-21)
(1.01512 0.0072619 0)
(1.01456 0.00731425 6.86065e-22)
(1.01491 0.00671712 3.41753e-22)
(1.02103 -0.0255261 2.76562e-21)
(1.02035 -0.0242373 1.24524e-21)
(1.01874 0.00616932 2.53624e-21)
(1.01879 0.00659508 1.73169e-21)
(1.04388 -0.0105812 1.05876e-22)
(1.04462 -0.0106654 -1.10394e-22)
(1.04405 -0.0101403 -1.09761e-22)
(1.02658 -0.000705547 0)
(1.02529 -0.000430869 0)
(1.03599 0.0442925 6.38298e-22)
(1.03726 0.0453521 1.0168e-20)
(1.03736 0.0435896 -6.74488e-21)
(1.02649 -0.0241459 7.05375e-22)
(1.02617 -0.0253601 -1.24812e-21)
(1.02703 -0.0254027 0)
(1.02222 0.0239594 2.71619e-21)
(1.02123 0.0243186 0)
(1.01911 0.00602522 5.45735e-22)
(1.01869 0.00581929 -5.99753e-22)
(1.01726 -0.000564753 -1.89919e-23)
(1.01722 -0.000502646 1.45012e-22)
(1.0173 -0.000528169 1.4036e-22)
(0.984323 -0.000410159 2.66396e-20)
(1.00685 -0.00106304 2.16939e-20)
(0.674179 -0.00598645 1.76551e-20)
(0.623697 -0.00363865 1.2597e-20)
(1.03318 -0.0109746 -2.56844e-22)
(1.03357 -0.0108184 1.90703e-23)
(1.03298 -0.0104807 2.05629e-23)
(1.05178 0.00456578 9.10996e-22)
(1.05196 0.00275132 -7.60485e-22)
(1.05329 0.00376507 -1.47231e-21)
(1.01534 0.00776122 0)
(0.986779 -0.0585641 -8.36399e-21)
(0.996738 -0.0572837 -4.32717e-21)
(1.01738 -0.0564272 -2.11699e-21)
(1.05295 0.00992375 -2.71137e-21)
(1.05334 0.00967317 -6.18793e-21)
(1.05278 0.0094251 -7.41191e-21)
(0.852812 0.0231273 -5.61765e-21)
(0.837469 0.020491 -2.08132e-20)
(0.827016 0.0210156 3.53981e-20)
(0.826497 0.078294 0)
(0.841719 0.0767997 -8.90055e-21)
(1.04996 0.012062 8.87937e-22)
(1.04818 0.0124887 -1.40686e-22)
(1.04943 0.0107186 7.2522e-23)
(1.02165 0.04824 -3.4683e-21)
(1.02068 0.0478044 -5.44414e-22)
(1.02399 -0.0205778 -2.21972e-23)
(1.02463 -0.0212296 -1.47475e-21)
(1.06299 0.0107222 0)
(1.06129 0.0108508 1.02746e-20)
(0.935877 -0.0556071 1.49437e-21)
(0.973856 -0.057777 1.4441e-21)
(1.06031 0.0133938 9.11589e-23)
(1.05965 0.0139677 2.19246e-20)
(1.01482 0.000100188 4.24001e-23)
(1.0106 -2.66149e-05 0)
(1.00812 -0.00884552 2.05241e-21)
(1.0078 -0.0095318 1.62021e-21)
(1.01221 0.0614951 2.70898e-21)
(1.02202 -0.0137015 0)
(1.02177 -0.0131126 -1.24905e-21)
(1.02153 -0.013627 0)
(0.997135 -0.00826267 -2.47677e-21)
(0.997782 -0.00925457 0)
(1.05074 0.0177667 -6.82707e-21)
(1.05138 0.0183333 0)
(1.03216 0.000262568 -1.84467e-21)
(1.03123 0.000184426 -6.99385e-23)
(1.02606 0.000187758 -1.29296e-23)
(1.02384 0.00235168 -6.4319e-21)
(0.998402 0.0016433 1.94581e-21)
(1.01901 -0.000522897 4.58723e-23)
(1.01892 -0.000642603 -8.02308e-23)
(1.01907 -0.000615736 -9.82843e-23)
(1.04316 0.00663867 6.68514e-21)
(1.04352 0.00658495 8.57794e-21)
(1.04931 0.0058739 -3.87243e-23)
(1.04879 0.00601862 -2.18333e-23)
(1.04982 0.00622185 2.54229e-23)
(0.4637 0.00524679 0)
(0.490188 0.000222696 2.2527e-20)
(1.02725 -0.00382929 -1.14064e-22)
(1.02748 -0.00374735 -6.28219e-22)
(1.02716 -0.00353126 9.97534e-25)
(1.02262 0.0233158 2.57401e-21)
(1.02212 0.0227673 3.33207e-21)
(1.02298 0.0226323 -2.09746e-21)
(0.996447 0.00253829 -1.68157e-21)
(0.997779 0.00344641 -1.20003e-21)
(1.05125 0.0126521 2.09049e-22)
(1.04992 0.0135971 6.8065e-22)
(1.03485 0.000654629 2.25303e-24)
(1.03321 0.000576602 7.1032e-22)
(1.04731 0.0192579 -5.99806e-21)
(1.04756 0.0186065 0)
(1.0469 0.0187614 5.05577e-21)
(1.05337 0.00164409 2.55101e-21)
(1.05644 0.00221675 8.92234e-21)
(1.05423 0.00205501 2.8536e-21)
(1.01614 -0.000890091 -6.13382e-23)
(1.01587 -0.00105584 2.79898e-23)
(1.01618 -0.00124237 2.73665e-23)
(1.0223 -0.0142683 8.90898e-22)
(1.0225 -0.0137442 0)
(0.857792 0.00556436 -1.2318e-22)
(0.860952 0.00642045 2.08507e-21)
(1.05159 0.0010391 -4.07995e-21)
(1.05266 0.00134586 -1.44722e-21)
(1.05501 0.00139415 -8.6226e-21)
(1.0145 0.0652596 -7.62709e-21)
(1.03467 0.0626237 7.58015e-21)
(1.0009 0.0653006 -8.74416e-21)
(0.851248 -0.000292911 -1.14235e-21)
(0.769557 0.00783042 -1.78743e-20)
(1.04343 0.0024895 1.21754e-23)
(1.04304 0.00258356 1.75296e-23)
(1.01721 -0.00662279 -6.76098e-22)
(1.0175 -0.00658774 3.32782e-22)
(1.01726 -0.00626663 -3.1533e-22)
(1.04712 -0.000757566 0)
(1.04633 -0.000978626 1.26701e-21)
(1.04962 -0.000501865 0)
(1.02274 0.0474531 2.32475e-21)
(1.02236 0.0489791 -5.27735e-21)
(1.04385 0.00239637 1.72396e-24)
(1.04317 0.00230603 -5.27989e-25)
(1.02226 -0.0266551 -4.05126e-22)
(1.01832 -0.000191041 -2.41533e-22)
(1.01826 -4.12091e-05 -1.0358e-22)
(1.01819 -0.000251127 1.66296e-23)
(0.995409 0.0228434 1.61749e-21)
(0.993594 0.0232944 -7.74252e-22)
(0.995 0.0247744 1.33069e-21)
(1.02312 0.0237679 -5.64144e-22)
(1.0475 0.0349187 -1.12441e-20)
(1.04729 0.0337474 -5.22126e-21)
(1.04632 0.0345384 4.72508e-22)
(1.02345 0.0422092 2.73897e-21)
(1.02289 0.0412292 -5.42012e-21)
(1.02418 0.0410706 5.40221e-22)
(0.997198 0.0408079 4.09476e-22)
(0.99542 0.0432545 5.16939e-22)
(1.04261 0.00782468 -9.53433e-22)
(1.04246 0.00821056 -8.2306e-22)
(1.04283 0.00805247 1.11104e-20)
(0.795874 0.00536066 0)
(0.777296 0.00299767 0)
(0.79295 0.00430507 1.40117e-21)
(1.03174 -0.01195 -1.31289e-21)
(1.03121 -0.0115482 -8.50824e-22)
(1.01609 -0.00052409 1.17129e-23)
(1.01639 -0.000711232 0)
(1.01905 -0.027653 3.4909e-22)
(1.01764 -0.0273425 -4.83366e-22)
(1.05919 0.0256064 -1.07294e-22)
(1.0591 0.0245752 0)
(1.0602 0.0252343 0)
(1.02952 0.000301955 -4.81437e-22)
(1.02329 0.000244847 7.82485e-24)
(1.03021 0.000325977 -9.20893e-22)
(0.674432 -0.0033712 3.39185e-20)
(1.04276 0.00740917 -6.85316e-21)
(1.04231 0.00757474 0)
(0.827438 0.0631035 5.6128e-23)
(0.836587 0.0659924 3.3067e-22)
(1.0171 -0.00124727 -8.31195e-23)
(1.01718 -0.000972012 -1.32791e-22)
(1.02266 0.045662 5.344e-22)
(1.02332 0.0465932 6.1696e-21)
(1.02386 0.045343 8.63008e-22)
(1.05066 0.00565475 5.68276e-23)
(1.05193 0.00616437 5.71779e-23)
(0.829367 -0.0258208 -8.37171e-21)
(0.851571 -0.0206724 -1.83528e-21)
(0.772595 -0.0257046 2.46973e-21)