/*--------------------------------*- C++ -*----------------------------------*\
| =========                 |                                                 |
| \\      /  F ield         | OpenFOAM: The Open Source CFD Toolbox           |
|  \\    /   O peration     | Version:  v2012                                 |
|   \\  /    A nd           | Website:  www.openfoam.com                      |
|    \\/     M anipulation  |                                                 |
\*---------------------------------------------------------------------------*/
FoamFile
{
    version     2.0;
    format      ascii;
    class       surfaceVectorField;
    location    "400";
    object      Uf_0;
}
// * * * * * * * * * * * * * * * * * * * * * * * * * * * * * * * * * * * * * //

dimensions      [0 1 -1 0 0 0 0];


internalField   nonuniform List<vector> 
20642
(
(0.652343 -0.0261214 -5.83625e-22)
(0.661024 -0.0260878 1.03086e-20)
(0.679403 -0.023517 1.04938e-20)
(1.02876 -0.016529 -1.48139e-21)
(1.02815 -0.0168479 -1.83513e-21)
(1.02816 -0.015991 -7.89342e-22)
(1.06573 -0.0135114 3.21312e-21)
(1.06602 -0.0126296 1.00675e-20)
(1.06696 -0.0134047 -1.47603e-21)
(1.02944 -0.00863726 1.07129e-21)
(1.02962 -0.00853558 2.16564e-22)
(1.02935 -0.00849356 7.68043e-22)
(1.04276 -0.0159951 -6.37272e-22)
(1.04264 -0.0164821 -1.39244e-21)
(1.04219 -0.0159768 -2.7342e-22)
(1.02941 -0.0160911 1.78826e-21)
(1.02946 -0.0169197 2.67981e-22)
(1.03661 -0.00885649 0)
(1.03625 -0.00880881 1.16861e-22)
(1.0365 -0.00852301 -2.80242e-22)
(1.01782 -0.0183084 2.88573e-21)
(1.017 -0.0195043 2.06689e-22)
(1.01612 -0.0179429 1.7482e-22)
(1.03586 -0.0144387 2.93836e-22)
(1.03587 -0.0141349 -1.47931e-22)
(1.0362 -0.0143383 -4.64906e-23)
(-0.00466518 -0.066042 3.99473e-21)
(0.00109646 -0.0680722 -1.35577e-21)
(1.01822 -0.0167709 -3.79022e-21)
(1.01924 -0.0183453 2.7477e-21)
(1.02819 -0.00685545 0)
(1.02838 -0.0069106 -1.73808e-21)
(1.02819 -0.00692532 1.60489e-21)
(1.01483 -0.000216114 -4.04009e-22)
(1.01461 -0.000216056 1.04392e-21)
(0.704904 0.00723908 4.4752e-21)
(0.642841 0.00993296 1.95546e-21)
(0.716574 0.00973366 -6.98698e-22)
(1.03356 -0.0139942 -2.04377e-23)
(1.03339 -0.0143178 1.46655e-21)
(1.03312 -0.0138677 -2.56267e-21)
(0.637666 -0.0262214 5.8282e-22)
(0.5965 -0.02892 -1.81581e-21)
(1.02703 0.00055247 3.96461e-23)
(1.02718 0.000535201 2.08509e-22)
(1.02171 0.000344547 0)
(1.01856 -0.0154219 -4.35939e-21)
(1.01919 -0.01425 7.41745e-22)
(1.02005 -0.0155766 2.67907e-21)
(1.05835 -0.00448021 2.43814e-21)
(1.05924 -0.00470158 -6.93278e-22)
(1.05893 -0.00365428 -1.2176e-21)
(0.573041 -0.0157953 1.93817e-20)
(0.656522 -0.0125678 6.02781e-22)
(0.665045 -0.0100405 0)
(1.02758 -0.00568229 2.67606e-21)
(1.02729 -0.0053639 -1.26524e-21)
(1.02722 -0.00584009 4.15647e-22)
(1.03614 -0.00856477 1.89433e-21)
(1.03578 -0.00841769 4.57876e-22)
(1.03612 -0.00881749 -5.15911e-23)
(1.04449 -0.00560693 -7.05205e-22)
(1.04458 -0.00610289 2.63982e-22)
(1.045 -0.00555001 -2.1459e-21)
(1.03656 -0.00872387 4.24503e-22)
(1.03619 -0.00832665 6.09665e-23)
(1.03125 -0.00718398 -1.59021e-21)
(1.03142 -0.00715446 5.19682e-22)
(1.03132 -0.00711502 -7.90754e-22)
(1.0259 -0.0064506 3.02619e-21)
(1.02636 -0.00625823 -1.32285e-21)
(1.02631 -0.00678152 -2.58566e-21)
(0.865098 0.0124869 -7.00933e-21)
(0.925085 0.010972 -1.80753e-21)
(0.926601 0.0112183 5.8477e-21)
(0.00984955 -0.0647455 0)
(1.02202 -0.00996096 8.25782e-21)
(1.02258 -0.00930442 2.08851e-21)
(1.02295 -0.0102222 1.85961e-22)
(1.02691 0.0117244 -1.7836e-23)
(1.02691 0.0119833 1.28682e-24)
(1.02618 0.0115483 0)
(-0.0235501 -0.0486816 -2.04777e-21)
(-0.000125038 -0.055627 0)
(1.05053 -0.0117222 -4.36633e-22)
(1.05083 -0.0122096 3.16875e-21)
(1.05103 -0.0115228 -3.71368e-22)
(1.02989 -0.00753751 1.6047e-21)
(1.02969 -0.00750187 0)
(1.02971 -0.00759226 0)
(0.722559 -0.0205363 -3.8694e-21)
(0.741393 -0.0190287 1.38098e-21)
(0.740195 -0.0193262 5.73159e-21)
(1.04655 -0.00342264 -6.62206e-23)
(1.04646 -0.00317687 -4.94544e-23)
(1.04722 -0.00333839 4.29757e-23)
(1.01705 -0.0211753 0)
(1.01509 -0.0209318 2.46283e-21)
(1.0305 -0.00813206 -6.38215e-22)
(1.03045 -0.00797335 1.09835e-21)
(1.0304 -0.00814876 1.76261e-22)
(1.02009 -0.000101965 -7.67862e-22)
(1.02654 3.58677e-06 0)
(1.01895 -7.38188e-05 1.13419e-21)
(1.03699 -0.00889607 0)
(1.03668 -0.00915854 0)
(1.02974 -0.00146672 -1.10536e-21)
(1.0297 -0.00103192 -2.51144e-21)
(1.03017 -0.001278 -2.37024e-21)
(1.0114 -9.24201e-05 2.40466e-23)
(1.00944 -3.51102e-05 3.24671e-23)
(1.01616 0.000688879 -1.43043e-21)
(1.05139 0.00298828 -3.70014e-25)
(1.05218 0.00293626 -4.10522e-23)
(1.05161 0.00276087 -8.90613e-24)
(1.03367 -0.0141193 -8.72693e-23)
(1.03358 -0.0137181 -1.85435e-22)
(1.03323 -0.0140611 4.18377e-22)
(1.05774 -0.00939919 1.14603e-21)
(1.05751 -0.010051 4.45996e-21)
(1.05832 -0.00981577 5.04015e-21)
(1.05707 -0.00890109 -3.42971e-21)
(1.05789 -0.00849103 -1.77601e-22)
(1.04012 0.025913 3.0412e-21)
(1.04245 0.0246482 2.51315e-21)
(1.04086 0.0271955 1.01845e-21)
(1.02794 -0.0059466 -8.35808e-22)
(1.02805 -0.00553654 0)
(0.140625 -0.00194493 -1.15558e-20)
(0.249694 0.00392343 5.8286e-21)
(0.239766 0.00652563 -6.57837e-22)
(0.748101 -0.0193044 -1.29652e-21)
(0.734811 -0.0173848 -3.12992e-21)
(0.809322 -0.0212011 3.28458e-21)
(1.04621 -0.00350955 3.21222e-22)
(1.04685 -0.00367542 -5.76806e-23)
(1.0282 -0.00678714 0)
(1.02799 -0.006793 -1.95971e-21)
(1.04755 0.0129706 5.99175e-21)
(1.04697 0.0142574 3.16938e-21)
(1.04613 0.0130701 3.88241e-21)
(0.451559 -0.0201809 -2.60459e-21)
(0.575766 -0.0249623 1.01095e-21)
(0.447549 -0.0207184 5.03726e-21)
(1.03005 -0.0069804 -6.39466e-22)
(1.02992 -0.00685018 -8.19345e-22)
(1.03016 -0.0069885 -8.50335e-22)
(1.02996 -0.0070788 -6.81088e-22)
(1.02986 -0.00697998 -1.50662e-22)
(1.02974 -0.0069552 2.30416e-21)
(1.04808 0.0120554 -1.5846e-21)
(1.04873 0.0131596 2.01445e-21)
(0.174797 -0.0283251 -1.9332e-21)
(1.04435 -0.00507631 6.52348e-22)
(1.04397 -0.00561849 5.07967e-22)
(1.05056 0.00304256 4.32539e-24)
(1.05113 0.00322742 -1.31591e-24)
(1.03788 0.0275829 -2.82014e-21)
(1.03839 0.0248356 -1.08146e-22)
(0.54739 0.0797894 0)
(0.450639 0.0831476 0)
(0.424723 0.0788941 8.38945e-21)
(1.05747 -0.00479949 -5.92007e-23)
(1.05744 -0.0052395 -1.84537e-22)
(1.05701 -0.00498104 5.57804e-23)
(1.00965 0.000430228 1.43247e-24)
(1.01043 0.000609723 0)
(1.01144 0.000858096 -6.20598e-24)
(1.03117 -0.00728599 -1.2678e-21)
(1.03107 -0.0072177 -3.69739e-22)
(1.03879 -0.00843214 -4.08755e-22)
(1.03684 -0.00661919 2.39423e-22)
(1.0146 -0.00572528 -1.9526e-21)
(1.04789 0.0159061 -2.32597e-22)
(1.04468 0.0165567 -6.60784e-22)
(1.045 0.0155251 -1.45268e-22)
(1.02149 -0.010688 7.71583e-23)
(1.02095 -0.0114366 -2.83836e-21)
(1.02199 -0.0116661 -1.0324e-21)
(1.01836 -0.0214363 0)
(1.01801 -0.0234994 0)
(1.01719 -0.0152276 1.05503e-22)
(0.641397 -0.0252221 7.53774e-21)
(0.621201 -0.0247726 -4.56574e-21)
(0.618376 -0.0250047 0)
(1.0801 -0.0117702 5.52887e-21)
(1.08047 -0.0105356 6.00498e-21)
(1.07946 -0.0109082 8.32039e-21)
(0.707729 -0.0216221 1.42034e-21)
(0.706662 -0.0211674 3.25028e-21)
(1.02516 -0.008825 -1.75559e-21)
(1.02547 -0.00902861 4.05426e-22)
(1.02544 -0.0087444 -8.10916e-22)
(1.04975 0.00307584 0)
(1.04999 0.00285864 1.76524e-23)
(1.02698 -0.00500748 -6.22348e-21)
(1.02742 -0.00491514 -2.57271e-21)
(1.03103 -0.0068034 -3.12981e-22)
(1.03113 -0.00671137 -1.11309e-21)
(1.03102 -0.00678984 2.27893e-21)
(1.0405 -0.0133176 -1.45385e-22)
(1.04044 -0.0136231 1.0747e-21)
(1.04005 -0.0132253 4.61854e-22)
(1.04897 0.00309807 -3.52234e-23)
(1.04948 0.0032958 -1.51989e-23)
(1.03104 -0.00685999 1.70004e-21)
(1.03092 -0.00687947 -1.91328e-22)
(1.03002 -0.00751763 -6.38016e-22)
(1.03004 -0.00759367 1.24173e-21)
(1.0326 -0.00905967 6.05194e-22)
(1.03281 -0.00910719 -2.97459e-21)
(1.03255 -0.00884634 -3.17373e-21)
(1.0284 0.000558014 1.15582e-22)
(1.02842 0.000552608 1.73105e-22)
(1.02343 0.000350944 3.33981e-22)
(1.02487 -0.00890241 -8.01981e-22)
(1.02486 -0.00860733 -2.07751e-21)
(1.07918 -0.0204392 1.42331e-20)
(1.07291 -0.0193358 -2.51473e-21)
(1.07325 -0.0204339 -2.56849e-21)
(1.02536 -0.00143062 3.03531e-21)
(1.02537 -0.00162798 -2.10267e-21)
(1.02558 -0.00153211 1.41848e-21)
(1.01015 -0.00756441 0)
(1.0089 -0.00597097 0)
(1.00839 -0.00823699 0)
(1.05005 -0.0120018 -9.03783e-22)
(1.05018 -0.0113641 1.86173e-21)
(1.02551 -0.000714465 1.32255e-21)
(1.02571 -0.000692877 -1.5979e-21)
(1.02518 -0.000509067 -1.71665e-21)
(1.02984 -0.00196044 1.68008e-21)
(1.02935 -0.00175652 3.29693e-22)
(1.02647 0.000571212 -1.17981e-22)
(1.02908 0.000680508 5.09377e-24)
(1.03057 0.000970501 0)
(1.03021 0.000968446 6.40456e-23)
(1.03084 0.00114951 -2.00069e-22)
(1.03407 -0.0140597 -1.6219e-22)
(0.763963 -0.0211492 1.13063e-21)
(0.695935 -0.0203118 2.04874e-21)
(1.04496 -0.00179691 0)
(1.04549 -0.00170808 0)
(1.04482 -0.00158476 0)
(1.03086 -0.00796404 1.67721e-21)
(1.03096 -0.0080029 3.83696e-22)
(1.03101 -0.00812556 -4.6201e-22)
(1.02111 -0.00959088 -9.06718e-22)
(0.960287 0.0113796 -2.76992e-21)
(1.00551 0.0112433 -4.79014e-21)
(0.998137 0.0113787 -8.66959e-22)
(1.03017 0.000203303 0)
(1.03023 0.000181009 0)
(1.02593 0.000137703 -4.63673e-22)
(1.02545 -0.000873198 0)
(1.02534 -0.000669652 1.07133e-23)
(1.02286 0.00672647 1.97469e-21)
(1.02284 0.00593046 0)
(1.02219 0.00630111 -1.13251e-21)
(1.0144 0.000556295 1.37308e-21)
(1.01464 0.000502709 -4.21509e-22)
(1.01088 0.000309731 3.72672e-23)
(1.01441 0.00057676 -5.1477e-22)
(1.01649 0.000620817 -3.83122e-23)
(1.03261 -0.00923504 5.30867e-21)
(1.03239 -0.00898514 6.87559e-22)
(1.03288 0.000225551 -2.27253e-22)
(1.0328 0.000159402 3.19458e-22)
(1.03175 0.000151245 1.92282e-22)
(1.04052 -0.0128832 -9.28449e-22)
(1.04098 -0.0133104 -1.06455e-21)
(1.05893 -0.0289562 -1.28713e-21)
(1.0601 -0.028917 2.31721e-21)
(1.06589 -0.0303247 -4.49246e-21)
(0.747586 0.00330371 -8.15656e-21)
(0.743491 0.000821305 -1.05682e-20)
(0.727443 0.00174938 -2.40007e-21)
(1.05757 -0.00440254 -4.00716e-24)
(1.05709 -0.00452387 1.61497e-23)
(1.05276 0.00312587 -6.31922e-23)
(1.05296 0.00286739 -8.29759e-24)
(0.804128 0.0136698 -7.01772e-21)
(0.801208 0.0123345 -3.58492e-21)
(1.01774 -0.00107718 -1.70742e-21)
(1.01764 -0.00139701 -1.39196e-21)
(0.763073 -0.0173334 4.35936e-22)
(0.74511 -0.0182743 -5.43313e-21)
(1.02308 -0.00872007 -4.40441e-21)
(1.0223 -0.00835898 -4.5482e-21)
(1.03719 -0.00883765 1.82334e-21)
(1.05806 -0.00881359 -1.09366e-20)
(1.03085 -0.00670979 1.35323e-21)
(1.03093 -0.00658109 1.13709e-22)
(1.03092 -0.00671307 1.00799e-21)
(1.05745 -0.00415017 5.89007e-22)
(1.05771 -0.0050965 5.46706e-21)
(1.02601 0.000901727 2.28506e-23)
(1.02717 0.0012599 4.72831e-23)
(1.0267 0.00105077 -1.8729e-23)
(1.06506 -0.0100993 2.99585e-21)
(1.0649 -0.011081 -6.23097e-22)
(1.06422 -0.0102749 6.13264e-21)
(1.02286 -0.00895904 -3.30382e-21)
(1.0232 -0.00892277 -1.49025e-21)
(1.02287 -0.00867218 -1.67694e-22)
(1.03061 0.000659917 -1.73798e-22)
(1.02813 0.000537958 -2.33256e-22)
(1.04798 0.0027579 -6.50853e-23)
(1.04744 0.00261114 -1.05367e-22)
(1.04719 0.00280254 -4.16598e-24)
(1.02042 -0.0123207 -4.4318e-21)
(1.01991 -0.0111517 0)
(1.05324 0.00268705 -1.9808e-21)
(1.05266 0.00351521 1.40392e-22)
(1.05228 0.00242885 6.69306e-22)
(0.596764 -0.0277547 8.40154e-22)
(0.620657 -0.0260093 -5.15784e-21)
(0.601306 -0.0273003 -6.3303e-21)
(1.07964 -0.0200977 -6.7835e-22)
(1.07981 -0.0207084 1.67687e-20)
(1.0311 -0.00737371 5.73342e-22)
(1.03102 -0.00746493 5.68003e-24)
(1.03092 -0.007395 -1.57141e-23)
(1.02652 -0.00516123 -2.5942e-21)
(1.02667 -0.004622 2.59521e-22)
(1.04043 -0.00485792 2.07403e-22)
(1.04052 -0.0046611 -3.12078e-23)
(1.03998 -0.00461161 1.99444e-22)
(1.05346 0.00183232 4.49925e-22)
(1.05409 0.00278321 0)
(1.04122 -0.0124665 6.93172e-22)
(1.04144 -0.012133 -1.20988e-21)
(1.04162 -0.0125665 8.8237e-22)
(1.02579 0.0143595 4.69524e-22)
(1.02702 0.0143537 -9.78755e-22)
(1.02599 0.0153432 -5.97801e-22)
(0.934629 -0.0241074 3.02505e-21)
(0.903462 -0.0232241 -4.56865e-21)
(0.908314 -0.0233828 6.55825e-21)
(1.03077 -0.00668833 0)
(1.03077 -0.00682643 0)
(1.05273 -0.0116142 -2.67873e-21)
(1.05315 -0.0111642 5.60885e-21)
(1.05337 -0.0119349 -3.0059e-21)
(0.732132 0.0147982 -3.75575e-21)
(0.806534 0.0147883 -6.7812e-22)
(0.371926 0.0825018 -1.58752e-21)
(0.472866 0.0796564 4.38911e-21)
(0.479943 0.077813 5.89877e-21)
(0.571899 -0.0235032 2.812e-21)
(0.569696 -0.0238568 -5.05965e-21)
(0.594268 -0.0233097 -3.73854e-21)
(1.02496 -0.00699696 2.87152e-21)
(1.02546 -0.00668926 2.07647e-21)
(1.02542 -0.00733826 -1.26974e-21)
(1.02017 -4.10905e-05 7.54945e-22)
(0.681697 -0.00188046 3.59454e-21)
(0.70926 -0.00219377 2.19001e-21)
(0.686312 -0.000992966 3.53329e-21)
(1.04848 0.0029192 -9.52432e-23)
(1.0482 0.00311703 -9.16884e-24)
(1.05897 -0.029481 0)
(1.05499 -0.0285066 0)
(1.03227 -0.00532147 -1.229e-21)
(1.03228 -0.0051741 2.50532e-22)
(1.03258 -0.005419 -8.39938e-22)
(1.02466 -0.00803471 -7.44201e-22)
(1.02491 -0.00821603 -2.2778e-22)
(1.02498 -0.00800462 1.98545e-23)
(1.05781 0.0035703 -7.38722e-22)
(1.05744 0.00394822 1.66152e-22)
(1.05672 0.00363186 1.83414e-22)
(1.07658 -0.0118469 4.99537e-21)
(1.08196 -0.0132828 5.57613e-21)
(0.719328 -0.00310746 -4.79423e-23)
(0.28577 0.00992636 7.58043e-21)
(0.332243 0.0139501 -7.5135e-21)
(0.202552 0.00149333 -1.74543e-20)
(1.02995 -0.00698494 5.13874e-23)
(1.03018 -0.00712608 -1.06408e-21)
(1.02993 -0.00234672 5.15599e-22)
(1.03 -0.00273667 5.10572e-22)
(1.02958 -0.0026335 5.43414e-22)
(1.01318 0.000464596 6.21241e-22)
(1.01402 0.000554428 -7.72856e-23)
(1.0158 0.000903936 2.60699e-22)
(1.02443 -0.00785977 -1.98363e-21)
(1.02438 -0.00805732 -1.86176e-21)
(0.924228 0.0125735 -1.21975e-21)
(0.91399 0.0119164 5.88701e-22)
(1.04063 -0.0100927 -7.14379e-22)
(1.04092 -0.0104686 3.36102e-23)
(1.04116 -0.0102862 5.54889e-22)
(1.03302 0.00025305 -9.43758e-22)
(1.03323 0.000105768 -3.91783e-22)
(0.892962 -0.0227326 0)
(0.886894 -0.0235744 0)
(0.863888 -0.0226018 0)
(1.02133 0.00059439 -2.31275e-22)
(1.02108 0.000572217 -5.22886e-23)
(1.01606 0.000267161 -8.34826e-23)
(1.02511 0.000790068 1.21465e-23)
(1.02381 0.000571017 -3.98618e-22)
(1.0279 -0.00324665 -8.17306e-22)
(1.02803 -0.00343826 1.74578e-21)
(1.0282 -0.00335694 -1.84991e-21)
(0.9245 0.0204581 0)
(0.937953 0.0184683 7.79681e-21)
(0.899285 0.0187775 0)
(1.02999 -0.00994479 -2.59761e-21)
(1.03007 -0.00962262 -1.0045e-21)
(1.03027 -0.00994185 -3.55387e-21)
(0.678073 -0.00220376 -2.68766e-21)
(0.727211 0.0445177 -5.10461e-23)
(0.725053 0.0414842 -3.53544e-21)
(0.758976 0.040882 2.45759e-20)
(1.02181 0.00827376 -2.64146e-21)
(1.02203 0.00776225 -2.04943e-21)
(1.02124 0.00762935 -1.33552e-21)
(0.45304 -0.0216528 -6.23602e-21)
(0.317519 0.0363647 0)
(0.450755 0.046982 1.20257e-20)
(0.334465 0.0427665 1.21222e-20)
(1.01435 0.00346458 5.12751e-24)
(1.01458 0.00382166 -5.84235e-23)
(1.01409 0.00360897 3.54416e-23)
(1.02444 -0.00742884 5.53345e-22)
(1.02447 -0.00661917 1.00497e-22)
(1.03699 -0.0089666 0)
(1.0374 -0.00917792 -1.33643e-21)
(1.03697 -0.00918623 -3.79743e-22)
(0.924733 -0.0219463 3.2456e-21)
(0.929425 -0.0219446 3.24967e-21)
(0.895892 -0.0219606 -7.25177e-21)
(1.03549 -0.0146386 1.73502e-22)
(0.697293 0.0675123 -6.81378e-21)
(0.632633 0.0735226 3.09722e-21)
(0.652322 0.0735948 -3.27416e-22)
(1.03883 0.0068101 6.94498e-22)
(1.03933 0.00631381 -4.70828e-22)
(1.03946 0.00718079 4.48693e-22)
(1.017 0.000583228 2.44961e-23)
(1.01965 0.000860309 8.34046e-24)
(1.01679 0.000568759 7.8496e-23)
(1.02959 -0.00879841 7.75279e-22)
(1.0293 -0.0087487 -1.71277e-21)
(1.0466 0.0155001 -7.34797e-22)
(1.04611 0.016964 4.61966e-21)
(1.04518 0.0157018 -2.55803e-21)
(1.04095 -0.0127604 -9.82986e-25)
(1.04083 -0.0123367 7.55644e-22)
(1.02972 -0.00990607 7.11027e-22)
(1.02994 -0.0102784 6.5829e-22)
(1.03354 -0.0133987 -6.98213e-23)
(1.03316 -0.0133134 0)
(1.03348 -0.0130348 0)
(1.03697 -0.00876833 6.02957e-22)
(1.02821 -0.00673463 -9.34515e-22)
(1.02838 -0.00679775 2.56068e-21)
(1.05792 0.0172911 1.21457e-20)
(1.05796 0.0159118 2.02807e-21)
(1.05939 0.0171525 1.13821e-20)
(1.06524 -0.00922597 0)
(1.06593 -0.00998085 0)
(1.02547 0.0133759 1.14857e-21)
(1.02407 0.0142288 6.36687e-22)
(1.02803 -0.00665409 -3.77038e-23)
(1.02824 -0.00667786 1.15328e-21)
(1.05805 0.0193254 6.0931e-21)
(1.05609 0.0179123 4.27641e-22)
(1.02766 0.0118619 2.22491e-25)
(1.02673 0.0113952 3.75794e-22)
(1.01203 -0.00865974 1.98806e-21)
(1.01242 -0.00676549 0)
(1.03801 0.00663518 1.19744e-21)
(1.03821 0.00754409 1.35804e-21)
(1.05649 -0.00854918 -1.61718e-21)
(1.05634 -0.00926937 -4.82221e-22)
(1.05708 0.0118041 7.16618e-21)
(1.05671 0.0105194 2.98604e-21)
(1.05571 0.0114997 5.71829e-21)
(0.664734 -0.0251244 4.58735e-22)
(0.685534 -0.0214683 -1.75631e-20)
(0.667524 -0.0230078 -7.50695e-21)
(1.0452 -0.00201155 -4.30111e-22)
(1.04465 -0.00187336 -1.05063e-22)
(0.608975 -0.0252159 -1.10603e-22)
(0.627888 -0.0251439 1.59924e-22)
(0.604732 -0.0265438 5.28589e-21)
(1.03319 -0.00588983 -7.48194e-23)
(1.03313 -0.00571013 3.92791e-22)
(1.03296 -0.00589332 -4.25875e-22)
(0.965595 -0.0253149 1.58233e-21)
(0.961462 -0.0255888 -5.97604e-21)
(1.04655 -0.0029435 1.58318e-22)
(1.04572 -0.00302489 -7.14155e-23)
(1.04032 -0.0097145 -5.46748e-22)
(1.04009 -0.00988262 -1.19897e-21)
(1.02861 -0.00605625 8.80256e-22)
(1.02876 -0.00570719 -5.13651e-23)
(1.02891 -0.00602701 0)
(0.6216 -0.0254643 2.00744e-21)
(0.622475 -0.0249441 -1.46999e-21)
(0.644655 -0.0249794 3.77875e-21)
(0.571041 -0.0236426 2.52818e-21)
(0.531515 -0.0228876 2.46572e-21)
(1.03089 -0.00871158 -6.47128e-22)
(1.03082 -0.00876296 0)
(1.03094 -0.0089257 3.18741e-21)
(0.926579 0.011957 -1.42035e-21)
(0.967673 0.00852264 0)
(0.924885 0.00943003 0)
(1.0261 -0.0109493 0)
(1.02634 -0.011533 0)
(1.02667 -0.0109183 0)
(1.03029 -0.00211569 -1.16897e-21)
(1.04873 0.00271444 3.77621e-23)
(1.04799 0.0152871 1.4823e-21)
(1.03301 -0.00912211 1.40674e-21)
(1.03307 -0.00934403 -1.85662e-21)
(1.0372 -0.00288997 4.68914e-22)
(1.03681 -0.00271146 -5.88918e-22)
(1.03727 -0.00273879 -1.0008e-21)
(1.04366 -0.0186489 0)
(1.04388 -0.0182623 -1.10855e-21)
(1.04307 -0.0180495 -2.4691e-22)
(1.04392 -0.0191827 0)
(1.0432 -0.0189454 -1.85063e-21)
(0.418948 0.0137823 8.87362e-21)
(1.05217 -0.0114299 8.42049e-22)
(1.05241 -0.0120089 -6.00217e-21)
(1.0255 -0.00606377 2.88454e-21)
(0.893894 0.00283951 0)
(0.8895 0.00442854 0)
(0.920975 0.00361419 -9.2123e-21)
(1.028 -5.51597e-05 2.25155e-21)
(1.02657 0.000171678 6.45792e-22)
(1.02822 -0.000353817 1.07009e-21)
(1.0378 0.00391586 -8.91178e-23)
(1.0382 0.00391484 -4.13973e-23)
(1.0375 0.0037461 7.51543e-23)
(1.03808 0.00406886 -1.10612e-22)
(1.0374 0.00394491 -8.99396e-23)
(0.303316 0.029793 1.82631e-20)
(1.05742 0.0149092 -9.05777e-21)
(1.05725 0.0131172 3.16281e-21)
(1.05596 0.0144925 3.19583e-21)
(1.0582 0.0210635 5.21348e-21)
(1.05666 0.0232484 -4.28413e-22)
(1.05644 0.021719 1.57866e-21)
(1.02055 -0.0022153 -1.39843e-22)
(1.02066 -0.00247977 0)
(1.02031 -0.00233995 2.12082e-21)
(1.00895 0.000364782 3.81496e-23)
(1.00691 0.000170141 -3.0619e-24)
(0.65244 0.0148791 0)
(0.654923 0.0158772 0)
(0.611571 -0.0246325 -4.21738e-21)
(1.03604 0.00337972 8.99421e-23)
(1.03645 0.00352212 -2.007e-23)
(1.03649 0.00341474 5.82856e-23)
(1.03561 0.00322838 1.53057e-22)
(1.03557 0.00332725 -5.20136e-23)
(1.01552 -0.000154926 3.80981e-23)
(1.00848 -5.43901e-05 -1.47436e-21)
(1.03837 0.00422753 4.63684e-24)
(1.03882 0.0042357 9.88229e-23)
(1.03867 0.00440716 6.78766e-23)
(1.038 0.00426153 0)
(0.690442 -0.0232562 8.29202e-21)
(0.703273 -0.0218448 9.28491e-21)
(0.534724 0.0225453 -5.3564e-22)
(0.522837 0.0234454 -2.20016e-21)
(0.629696 0.0209996 1.08711e-20)
(1.0342 -0.00890502 1.1445e-21)
(1.03415 -0.0087018 1.6242e-21)
(1.03393 -0.0087127 7.73976e-22)
(1.01655 0.00585279 1.01473e-22)
(1.01708 0.0061953 1.16972e-23)
(1.017 0.00588526 2.66305e-23)
(1.04576 0.0053522 -1.42529e-21)
(1.04487 0.00581195 -3.11861e-21)
(1.045 0.00490139 -8.50343e-22)
(0.690009 -0.022307 -7.72327e-21)
(0.676108 -0.023377 -2.09985e-21)
(0.693303 -0.0220761 1.2919e-20)
(1.02487 0.000688894 9.18993e-23)
(1.0222 0.000578807 7.18866e-22)
(1.02196 0.00053659 1.84468e-22)
(1.02077 -0.00212827 -5.1309e-21)
(1.02048 -0.00200795 -1.37154e-22)
(0.925235 0.011664 1.26314e-21)
(0.863569 0.0124199 2.01454e-21)
(1.05887 -0.0298236 0)
(1.0589 -0.0301961 4.96695e-21)
(1.05435 -0.0292772 4.27473e-21)
(1.05876 0.0147427 -6.2256e-21)
(0.900146 0.00161198 1.37902e-21)
(0.869743 0.0015262 -8.22564e-21)
(1.03906 0.011671 0)
(1.03803 0.011549 6.66977e-22)
(1.03834 0.0125001 -1.04238e-21)
(1.03203 -0.00524908 -1.13108e-21)
(1.03228 -0.00548017 -5.91742e-22)
(0.573031 0.0458437 1.19218e-20)
(0.580843 0.0493806 4.63264e-21)
(1.04658 0.00515846 9.8592e-22)
(1.04627 0.0061022 2.58295e-21)
(1.02352 -0.00825686 -1.58063e-21)
(1.02373 -0.00905477 -1.35146e-21)
(1.05185 -0.00493684 -2.19392e-21)
(1.05244 -0.00455407 3.83416e-21)
(1.05255 -0.00535031 -4.7668e-21)
(1.03096 -0.008669 -6.73926e-22)
(1.03085 -0.00852721 5.41409e-23)
(0.571046 0.0199738 1.33879e-21)
(1.02347 -0.00892079 1.1627e-21)
(1.02345 -0.00867144 -2.23408e-23)
(1.02374 -0.00888444 4.4605e-22)
(1.03439 0.000209085 -4.3657e-22)
(1.03427 0.000512103 -9.5661e-23)
(1.03471 0.000389221 6.36445e-23)
(1.03938 0.00568569 0)
(1.03952 0.00483223 1.02859e-21)
(1.03872 0.00518533 5.14059e-22)
(1.0348 -0.00933474 5.13415e-23)
(1.03447 -0.00909489 -1.14873e-21)
(1.03479 -0.00914384 -1.87161e-22)
(1.00944 0.000167212 9.16382e-22)
(1.03128 -0.00734981 6.41838e-22)
(1.04495 -0.0151767 -4.7543e-22)
(1.04478 -0.0145676 0)
(1.04551 -0.0148688 0)
(1.04824 -0.00151212 4.02756e-22)
(1.04839 -0.00174196 6.68107e-22)
(1.04893 -0.00164874 1.62779e-22)
(0.657877 -0.0236525 -4.91731e-21)
(0.643131 -0.024249 -5.29234e-21)
(0.639303 -0.0244708 1.34468e-21)
(0.583806 -0.0153138 -4.70377e-21)
(0.599069 -0.0104647 -3.14886e-21)
(0.613633 -0.0123585 -9.25444e-22)
(1.04768 0.00176848 -5.19894e-23)
(1.04715 0.00163392 -3.85136e-23)
(1.04693 0.0018336 -9.09588e-23)
(1.03553 0.00309258 2.66238e-22)
(1.03517 0.00304753 -3.64826e-22)
(1.04066 -0.0106391 -8.93634e-22)
(1.0412 -0.0108515 -9.17542e-22)
(1.03589 0.00312551 -1.02934e-22)
(1.03543 0.00296459 -1.19237e-22)
(1.02349 -0.0091418 1.72928e-21)
(1.01923 -0.000399053 9.59713e-22)
(1.01457 -0.000169795 -4.54661e-21)
(1.03919 -0.00368332 2.07004e-21)
(1.03957 -0.00342491 -2.44675e-22)
(1.03917 -0.00316567 7.89611e-24)
(1.04823 0.00188393 4.89568e-23)
(1.04844 0.00167134 1.95877e-23)
(0.582942 -0.0240722 -4.1335e-21)
(0.603047 -0.0231272 -4.191e-21)
(0.749699 0.00591742 2.10949e-21)
(0.769288 0.00564043 4.98091e-21)
(1.02762 -0.00601533 2.84827e-21)
(1.02738 -0.00594755 1.18846e-21)
(1.02749 -0.00589507 -2.16219e-22)
(1.04343 -0.013477 -9.45516e-22)
(1.04354 -0.0139607 9.43975e-22)
(1.04296 -0.0136722 -9.78842e-22)
(1.03646 0.0288331 -7.47382e-22)
(1.0344 0.027685 1.38652e-21)
(1.03658 0.0300797 6.11953e-22)
(1.03648 0.00554577 0)
(1.03675 0.00576365 7.39258e-25)
(1.03604 0.0055339 0)
(1.0228 0.00483366 -1.19092e-21)
(1.02298 0.00543619 0)
(1.02345 0.0047891 -1.67619e-21)
(0.676987 -0.0225715 -1.00727e-20)
(0.672896 -0.0228973 1.63242e-22)
(1.03624 0.00535655 0)
(1.03695 0.00559002 5.57119e-23)
(0.659891 -0.0242305 -3.11363e-22)
(0.656041 -0.0245094 1.11063e-20)
(1.04807 -0.00128586 -2.20536e-22)
(1.04754 -0.00137789 -1.32468e-22)
(0.957625 0.0209629 0)
(0.918853 0.0227547 0)
(1.01669 0.000557301 0)
(1.01265 0.000277125 1.83125e-23)
(1.03377 -0.0133101 1.77595e-21)
(1.03413 -0.0133579 -2.33997e-21)
(1.03388 -0.0129737 6.01586e-23)
(1.03507 -0.00952014 1.43867e-22)
(1.03477 -0.00948489 -9.47084e-22)
(1.03338 -0.00533715 6.8723e-22)
(1.03349 -0.00521754 7.04666e-22)
(1.03312 -0.00511307 7.25837e-22)
(1.06246 0.0027692 -6.16062e-22)
(1.06162 0.00212407 -4.86831e-21)
(1.06285 0.00158067 -4.1831e-21)
(1.02974 -4.62805e-05 6.25986e-22)
(1.02942 -9.57247e-05 -1.29497e-21)
(1.02607 2.21556e-06 -7.28942e-22)
(1.02116 0.00881772 0)
(1.02179 0.00862142 0)
(1.03282 -0.00441539 -2.42734e-23)
(1.03265 -0.0041783 -2.08015e-22)
(1.03255 -0.00449825 -5.03414e-22)
(1.05799 0.00329922 -3.30684e-22)
(1.05792 0.00374272 -3.61916e-22)
(1.00829 0.0108245 -6.54869e-21)
(1.00552 0.00926014 2.69477e-21)
(1.01845 0.00843 2.59792e-21)
(0.562167 -0.0237837 0)
(1.02678 0.000853751 2.04412e-23)
(1.02648 0.00087875 0)
(1.04405 -0.00149484 -3.0411e-21)
(1.04471 -0.00138008 -2.7449e-21)
(1.04442 -0.00209248 6.04416e-22)
(1.0439 -0.0156334 -7.04146e-22)
(1.04445 -0.0154194 -4.75173e-22)
(1.04375 -0.015023 -1.59291e-21)
(1.03071 -0.0066891 0)
(1.03062 -0.00670766 -7.83164e-22)
(1.03066 -0.00683629 0)
(1.04327 -0.0158601 4.32412e-22)
(1.04272 -0.0153679 -2.54431e-22)
(1.03104 -0.00689761 7.51524e-24)
(1.03115 -0.00682571 5.7454e-22)
(1.04599 -0.0016285 -1.46106e-22)
(1.0465 -0.00155359 2.81798e-22)
(1.04584 -0.00140667 1.12922e-23)
(1.03111 -0.000176023 1.41709e-21)
(1.02978 -5.4778e-05 2.29221e-22)
(1.04238 0.0163011 -1.09068e-21)
(1.04332 0.0174731 -3.78241e-22)
(1.04377 0.0159007 4.47446e-22)
(1.05215 -0.010466 2.90435e-22)
(1.05444 -0.0108344 2.41213e-22)
(1.05159 -0.0102692 1.29731e-21)
(1.03459 -0.000240618 -2.80252e-22)
(1.03408 -8.03823e-05 -4.99043e-22)
(1.03104 -0.00694814 -5.75276e-22)
(1.03093 -0.00695289 -6.45797e-22)
(1.02093 -0.00203497 -3.64719e-21)
(1.02088 -0.00180745 2.36658e-21)
(1.02112 -0.00193448 -2.38413e-23)
(0.899375 -0.0228448 -6.51619e-21)
(0.924606 -0.0240599 5.75624e-21)
(0.612021 -0.0267154 -1.01149e-20)
(0.569041 -0.0235859 -1.0078e-21)
(1.04068 -0.00409893 -1.36257e-22)
(1.04073 -0.00390552 -3.37749e-22)
(1.04021 -0.00388343 -5.06744e-23)
(1.05112 0.0102893 0)
(1.05201 0.0105859 0)
(1.05104 0.011045 0)
(1.0308 -0.00655722 1.84774e-21)
(1.02238 -0.0266207 4.88011e-22)
(1.02876 -0.0273957 4.88645e-21)
(1.04565 -0.026583 1.64747e-21)
(1.05686 -0.017025 -4.35468e-22)
(1.0573 -0.0174181 -6.15702e-21)
(1.05657 -0.0175818 6.01674e-23)
(0.779197 0.000877197 5.75116e-21)
(0.765344 -0.00157049 3.08382e-20)
(0.755692 -0.000851437 1.01716e-20)
(0.726469 0.064113 -1.67368e-22)
(0.739654 0.0613746 1.82211e-21)
(1.04344 0.0188105 6.07278e-22)
(1.04409 0.0176622 1.40374e-22)
(1.04644 0.0186911 8.49124e-23)
(1.0286 0.0142582 2.34202e-22)
(1.02818 0.0132434 -1.11883e-21)
(1.04325 -0.0129996 -9.92782e-22)
(1.04384 -0.0132512 3.67611e-22)
(1.06848 -0.0182768 5.82082e-21)
(1.07305 -0.01828 -6.40933e-21)
(0.975001 -0.021544 1.23948e-21)
(1.01221 -0.0242414 0)
(1.06567 -0.0143889 -4.60163e-21)
(1.065 -0.0136815 9.16301e-21)
(1.01794 -0.000114376 2.44317e-21)
(1.01296 -0.000124639 2.26662e-21)
(1.03368 -0.0136409 2.49173e-21)
(1.03395 -0.0140679 -1.70449e-21)
(0.973395 0.00986175 -1.47197e-21)
(1.03873 -0.00980144 -1.00582e-21)
(1.03827 -0.00957748 -2.74641e-21)
(1.03853 -0.00995519 1.19405e-22)
(1.02738 -0.0168031 4.14365e-21)
(1.02794 -0.0173864 2.62125e-21)
(1.05587 -0.00816609 -3.15499e-21)
(1.05662 -0.00770764 -1.51643e-21)
(1.02631 0.000484009 0)
(1.02531 0.000387962 -1.47494e-22)
(1.02075 0.000284242 -6.90093e-23)
(0.947689 -0.021026 -1.22289e-20)
(0.916911 -0.0214059 -7.42527e-23)
(1.02547 -0.0010335 -7.97462e-22)
(1.02541 -0.00125355 1.70846e-22)
(1.02562 -0.00113486 -5.67853e-24)
(1.04442 -0.0155812 2.23033e-21)
(1.04472 -0.0158591 -2.46259e-21)
(1.03987 0.00825759 0)
(1.03939 0.00824197 -1.10554e-24)
(1.04028 0.00848303 0)
(0.419686 -0.0111368 2.74256e-21)
(0.447822 -0.0171372 1.60912e-20)
(1.03277 -0.00160637 -2.61832e-22)
(1.03282 -0.00152254 9.38493e-22)
(1.03256 -0.00146959 7.12605e-22)
(1.03479 -0.000561936 1.00329e-23)
(1.03451 -0.00084638 -2.66676e-23)
(1.03496 -0.000912837 -1.856e-23)
(1.02554 -0.0109056 0)
(1.02601 -0.0103646 -3.93761e-22)
(1.04245 0.0194753 -5.79675e-23)
(1.04201 0.0181672 -8.76056e-23)
(1.02895 0.00100402 7.09631e-23)
(1.02745 0.000813258 0)
(1.05265 -0.00604056 -2.72458e-21)
(1.05276 -0.00670444 3.04634e-21)
(1.05213 -0.00642395 0)
(1.05898 -0.0275397 -3.46199e-21)
(1.05701 -0.0268859 -6.98895e-21)
(1.05938 -0.0270772 7.21939e-21)
(1.0306 -0.00769079 8.78896e-22)
(1.03073 -0.00782947 7.97697e-22)
(1.03066 -0.00770168 1.84495e-21)
(1.03918 -0.0100098 0)
(1.03889 -0.00963627 4.88558e-22)
(0.781269 -0.0168679 5.43042e-21)
(0.784654 -0.0160945 -4.16202e-22)
(1.0589 -0.0284931 3.50015e-21)
(1.05891 -0.0280866 -1.35294e-21)
(1.05565 -0.0277551 0)
(0.928551 0.0433415 8.82807e-21)
(0.955061 0.039174 3.65913e-21)
(0.91261 0.0445149 0)
(0.777414 0.00263164 2.16116e-21)
(0.700024 0.00526889 5.52906e-21)
(1.03602 0.0051738 4.70096e-23)
(1.03553 0.0051372 0)
(1.03323 -0.00853938 1.94175e-23)
(1.03316 -0.00834192 -2.25703e-21)
(1.03296 -0.00834729 -1.50905e-21)
(1.05899 -0.0305142 1.71693e-21)
(1.05903 -0.0308214 1.80335e-21)
(1.05376 -0.0299082 3.32301e-23)
(1.02954 0.0142085 3.6918e-22)
(1.02899 0.0153954 -3.6281e-22)
(1.03654 0.00522197 7.77217e-23)
(1.03589 0.00497877 -2.93411e-22)
(1.04399 -0.0162763 2.94948e-22)
(1.02881 -0.00660598 -3.04176e-21)
(1.02895 -0.00669955 -1.79276e-21)
(1.02896 -0.00666166 -1.67301e-21)
(1.02357 -0.00247235 -3.68547e-21)
(1.02283 -0.00239219 1.80723e-21)
(1.02329 -0.00174019 -1.00451e-21)
(1.03505 -0.000316191 2.95475e-23)
(1.0541 0.00859879 0)
(1.05388 0.00747953 -6.6409e-22)
(1.05294 0.00822733 2.51261e-21)
(1.03251 0.0107499 -4.18265e-22)
(1.0325 0.00990871 -3.34096e-22)
(1.0334 0.0102276 -3.21687e-22)
(1.02289 0.00409277 -5.28047e-21)
(1.02212 0.00469248 -1.04936e-21)
(1.04452 -0.0143451 -1.16756e-21)
(1.04457 -0.0140166 2.6284e-21)
(1.04485 -0.0143455 -2.36527e-22)
(0.726254 -0.0169784 6.013e-21)
(0.709008 -0.0192142 1.67147e-20)
(0.723079 -0.0179787 7.73853e-21)
(1.04087 -0.00507664 -6.65637e-22)
(1.04033 -0.00501949 -2.1018e-22)
(1.03055 -0.00768472 1.1432e-21)
(1.03045 -0.00755259 1.37822e-21)
(1.0429 -0.0168046 4.43949e-22)
(1.04239 -0.0168017 2.03639e-21)
(1.06561 -0.00121046 -2.66979e-21)
(1.06548 -0.00228406 -2.92321e-21)
(1.06654 -0.00168329 -1.64449e-20)
(1.02291 0.000426051 -4.75077e-23)
(1.01769 0.000272567 2.71448e-23)
(1.02361 0.000446202 -7.67264e-22)
(0.619846 -0.0249501 7.06958e-21)
(1.04447 -0.0147626 -1.98299e-21)
(1.04413 -0.0144174 -2.5568e-21)
(0.848146 0.0072806 2.24551e-24)
(0.854426 0.00465938 8.57532e-23)