/*--------------------------------*- C++ -*----------------------------------*\
| =========                 |                                                 |
| \\      /  F ield         | OpenFOAM: The Open Source CFD Toolbox           |
|  \\    /   O peration     | Version:  v2012                                 |
|   \\  /    A nd           | Website:  www.openfoam.com                      |
|    \\/     M anipulation  |                                                 |
\*---------------------------------------------------------------------------*/
FoamFile
{
    version     2.0;
    format      ascii;
    class       surfaceScalarField;
    location    "350";
    object      meshPhiCN_0;
}
// * * * * * * * * * * * * * * * * * * * * * * * * * * * * * * * * * * * * * //

dimensions      [0 3 -1 0 0 0 0];
oriented        oriented;


internalField   nonuniform List<scalar> 
20673
(
0.00525399
0.00130878
-0.00652861
-0.00653898
-0.00369664
0.0103784
-0.00142711
0.000909275
0.000512859
-0.00496631
0.000946916
0.00396549
-0.0134567
0.0144088
-0.000926357
-0.00378325
0.00398155
-0.000199164
-0.00147785
1.64072e-05
0.00145388
0.000705075
-0.000872145
0.000167213
-0.000465648
0.000504064
-3.31128e-05
-0.00458601
-0.000118409
0.00472615
0.00192736
-0.000563947
-0.00136715
0.00202733
-0.00302983
0.000989852
-0.00266383
-0.000692195
0.000567769
0.000123455
-0.00827566
0.0121129
-0.00380443
0.00313717
0.00746611
-0.0105489
0.0136454
-0.00592916
-0.00759889
-0.00280746
0.00116538
0.00164911
-0.00148583
0.00350496
0.00698626
-0.00811177
0.00135858
0.00245979
-0.000302245
-0.00218104
-0.000300104
-0.00118063
0.000779643
0.00902884
-0.00965536
-5.77476e-05
0.000761695
-0.0144549
0.0146231
-6.51178e-05
0.00183146
-0.00146002
-0.000374279
-0.00278385
-0.00418594
0.00696733
0.00171014
-0.0051694
0.0034515
0.0027487
-0.0044749
0.00172715
0.00126539
-0.00377777
0.00253011
0.00169559
0.00422112
-0.00589182
0.00301007
0.00475125
-0.00769478
-0.00618748
-0.0019029
0.00808435
-0.00276146
0.0102963
-0.00754254
0.0070699
0.00759666
-0.014624
0.000381345
0.00100324
-0.00137823
0.00924762
-0.008315
0.000675902
-0.000198053
-0.00047879
0.00461011
-0.00449097
0.00188882
-0.00168137
-0.000210278
0.0011184
0.00049359
-0.00104917
-5.78177e-05
0.000813982
-0.000809483
-0.000273811
0.00155953
-0.00113369
0.00625752
-0.0052951
-0.000970833
-0.00417549
0.00773012
-0.00342122
-0.0106113
0.00958634
0.00101804
-0.000594831
-0.00218696
0.000796361
0.000283865
-0.00108139
0.00322677
-0.00292091
-0.000310157
0.000128679
-0.00138318
0.00172628
-0.00242275
0.00201611
0.000460632
-0.00889154
0.0139544
-0.005063
0.0035797
-0.000357367
-0.00979648
0.0070271
0.00919343
0.00455837
-0.00405211
-0.000136342
0.00425002
0.000335212
0.00158741
0.0125138
0.00472918
-0.017138
-0.00724711
0.00445633
0.00287819
0.00296465
-0.00701207
-0.00237409
0.00271785
-0.00034337
-0.0129439
0.0065744
-0.00020481
0.00890193
-0.00168882
-0.00436301
0.00057968
-0.000334502
-0.00290602
0.00324278
0.00106977
-0.0136132
-0.0134513
-0.00116408
0.000732923
-0.000632744
-9.50353e-05
-0.00446399
-0.00241708
0.00691813
0.0004375
-0.0138792
7.52057e-06
-0.00047258
0.000383581
-0.00061096
0.000225496
-0.0161758
0.00182352
0.0029405
5.27716e-05
-0.00299942
-0.00428228
0.00154523
0.00271572
0.000396048
-2.13927e-05
-0.000375317
-0.00634068
0.00403551
0.00241358
-0.0020594
-0.000165313
0.0022165
0.000532284
0.00468221
-0.00523406
0.00696027
-0.00202247
-0.00486893
-0.0110749
0.00383333
-0.00409332
0.000254955
7.0679e-05
0.000603344
-0.00251983
0.00283254
-0.000313818
-0.00274055
-0.00349673
0.00674134
-0.00711359
0.000486639
0.0022575
-0.00259007
-0.0020749
-0.000331268
-0.00128321
0.00111072
-2.7559e-05
0.000376469
-0.000348801
0.000797632
-0.00532784
0.00454975
0.0115251
-0.00552524
-0.00578256
-0.00413447
0.0124213
-0.00825208
-0.000937842
0.0031972
-0.00324055
-0.000950426
0.0041887
0.000151871
0.000687318
-0.000847141
-0.00129901
0.00104104
0.000261719
0.00337733
-0.00259928
-0.000784331
0.00303261
0.00316636
-0.00621215
-0.00305499
-0.00285875
0.00623271
0.00479035
-0.00886751
0.00406873
0.0041769
0.00207192
5.26694e-06
0.00282288
-0.00277578
0.00685854
-0.00806373
0.00144338
-0.000344147
0.000675706
-0.000331952
-0.00460238
0.00479022
-0.000185259
-0.000161368
0.000957619
-0.0140981
0.00830193
-0.00427412
-0.00137202
0.00567323
-0.00128306
0.00156286
-0.00027953
0.00226553
-0.000379701
0.00322984
-0.000849098
-0.00239452
-0.000645649
0.000301111
0.00280782
-0.0105351
0.00771817
0.00348384
-0.00231115
-0.00117288
-0.00964467
-0.00462101
0.0144271
0.000226883
0.00307381
-0.00329391
-0.000625866
-0.000553666
0.00117933
0.0104668
-0.00262826
-0.00784468
-0.00231452
0.00220518
0.000575513
0.000129567
-0.00101004
0.00034492
0.000663903
0.00675923
-0.00505512
-0.000615735
0.001727
-0.000667285
0.00875358
-0.0128462
-0.0081734
0.00489052
0.00342632
0.000824075
-0.000919003
0.00181469
-0.000684284
-0.000982545
0.000739855
0.000792112
0.000158183
-0.000951389
0.0123896
-0.00959154
0.00552547
0.00233505
0.00230457
0.000120761
0.000894072
-0.00163587
0.000734529
0.000756209
-0.000814945
0.00644042
-0.00115201
-0.00164451
0.004675
-0.0135822
-0.000118541
0.00807818
0.00237993
-0.000577064
-0.00100288
0.00157788
-0.00362228
0.0069801
-0.00319111
-0.0130979
-0.00122222
0.0143343
0.000539683
0.00437332
-0.00492726
-0.0129851
-0.000510544
-0.000621019
0.000204402
0.000408612
0.0023794
-0.00455119
0.00217563
-0.0148757
0.00597962
-0.00338259
0.006013
-0.00248317
-0.00616655
-0.0017825
0.00801439
-0.000425614
-0.000543689
0.000984557
0.00160387
0.00187998
0.00191511
-8.29017e-05
-0.00184236
0.00793815
-0.00698558
-0.000925243
0.00126159
0.00553949
-0.00671777
-0.00391074
0.00131381
0.00259651
0.00382649
-0.00824378
-0.000814882
0.000759416
5.4616e-05
6.44086e-05
0.000332174
-0.000700354
0.0015873
-0.00907047
-0.00211095
0.0111882
0.00552062
-0.00802744
0.00250651
0.00467536
-0.0056631
0.000970393
-0.000795929
0.000947796
0.000161847
0.00305851
0.00280275
0.000568762
0.00294268
-0.00290082
0.000847142
-0.00103637
0.000183758
-0.00862792
0.00556447
0.00324787
0.00825972
-0.00346935
0.00248169
0.00474452
-0.00718732
0.000156474
0.00115699
-0.00131383
0.00143311
-0.00315428
0.0017097
-0.0133498
0.00627205
0.00717232
-0.000566366
0.000410634
0.000161802
-0.00668447
0.00667642
3.11775e-05
-0.000447534
0.00124026
0.00311408
-0.00288879
-0.000523646
-0.000104779
-0.0108333
-0.00104929
0.0120822
0.0044792
-0.00366475
0.00642024
-0.004698
0.00269164
-0.00614922
0.00841981
-0.0015658
-0.00158098
0.00863518
-0.00703791
0.000747702
0.00108153
-0.00299006
0.00046108
0.0025232
-0.00105991
-0.00284652
-0.00313803
-8.78904e-05
0.00323372
0.00234322
-0.000461378
-0.0018884
0.00122883
-0.00115291
-8.582e-05
-0.0024681
-5.1889e-05
0.000357112
-0.00316632
0.00281289
0.00165147
-0.0116872
0.0101858
0.00521113
-0.00510164
-0.000113677
0.00390996
-0.00669719
8.82244e-05
0.00045423
0.00728222
0.00443835
0.00415691
0.000256496
-0.00440742
-4.71501e-05
-0.00262974
0.00268052
0.000813641
-0.00172779
0.00090327
0.00135419
-0.000862699
-0.0010765
3.65782e-05
0.00102688
-0.00103403
0.000602165
-0.0002175
0.000601398
0.00108454
-0.000376708
-0.000709344
-0.00686139
0.0139702
0.0145451
-0.00193252
-0.00100367
-0.000310855
-0.00180194
0.000690167
0.00110836
0.00214781
-0.0152267
-0.00121421
-0.000128876
0.00133723
0.0006617
-0.000436382
-0.000221519
0.00266912
-0.000335644
-0.00143418
0.00852494
0.00345948
-0.00473716
0.00126586
-0.00136402
0.000880775
0.000487614
0.00139874
-0.00102243
-0.00037658
0.00165232
-0.0107191
0.00919827
-0.00257636
0.000203952
0.00454151
-0.0151448
0.00300918
-0.00239587
-0.000618313
0.00203551
-0.000454233
0.000581294
-0.000193322
-0.000388948
-0.000377244
0.000715901
-0.000337165
0.010306
-0.00712163
0.00174089
0.00309429
-0.00482535
0.006079
-0.00474989
0.00821918
-0.00937487
0.00132412
-0.000933476
-0.00180659
0.00322959
-0.0031375
8.16915e-06
0.00079202
-0.00118098
0.000388158
0.0003617
0.000304198
0.00225197
0.00128915
-0.00318284
-0.00408545
0.00715361
0.00040358
-0.00043061
-0.00247406
0.00232871
0.000146256
0.00512007
-0.000390255
-0.0049859
-0.00537926
0.0106367
1.40584e-05
0.00186706
0.000863887
-0.000243203
-0.000625442
-0.000358197
2.88831e-05
0.000367697
-0.00107817
-0.00104392
0.00211811
0.00188413
-0.00014666
-0.00173957
-0.00101758
0.00654136
-0.00372238
0.00633827
-0.00257544
-0.000872653
-0.00475325
0.00289582
-0.00804016
0.00517342
0.000180376
-0.000487715
0.000306681
0.00204274
-0.00161988
-0.000428572
0.00416949
7.02628e-05
-0.00422312
0.00546669
-0.00497662
-0.000497903
-0.00510215
-0.00293786
-0.0104123
0.0152328
0.00213964
-0.00055491
-0.00160431
0.00236753
-0.00171301
-0.000655988
0.000157902
0.00174193
-0.0072331
0.00566575
-0.0101432
0.00190261
0.000657827
-0.000707423
6.87554e-05
-0.000413881
-0.000596159
0.00138701
-0.00141165
2.46641e-05
0.0020993
5.26495e-06
-0.00210816
-0.000344459
0.00880109
0.000640909
-0.000805041
0.000162458
0.000643846
-0.000195302
-0.00045042
-0.000183103
-0.000627968
-0.000340317
-0.00172403
-0.00100985
-0.00329162
0.00611991
-0.00163618
0.000399001
0.00183776
0.00206525
-0.00174772
-0.000304598
0.000231958
-0.000448704
0.000215218
-0.00120807
0.000736073
0.000475948
-0.00351404
-0.00362677
0.000410268
0.000673013
-0.00175796
0.00444969
-0.000576336
0.00107165
-0.000372867
-0.000558818
-0.00108781
0.00164801
0.00679025
-0.00772152
0.0011534
-0.000459541
-9.5959e-05
0.00163398
-0.000819128
-0.000262058
-1.49206e-05
-0.0117598
0.00521195
0.00659745
0.00511437
0.00285356
-0.00434414
-0.00368119
-0.00160265
0.000521262
-0.00952714
0.00257339
0.00699185
-0.00211895
0.00211627
3.94941e-05
-0.00178483
-3.05262e-05
0.00181069
0.0010776
-0.000286334
0.00030544
0.0010851
0.011877
-0.010077
-0.000765648
0.00056149
0.000193976
0.00926445
-0.0105147
0.00120962
-0.00226719
0.00017699
0.00618788
-0.0156648
-0.00138199
0.00376365
0.00264207
-0.00127764
-0.000956102
0.00249653
0.000503635
0.0036274
-0.0073059
-0.00424306
-0.00419526
-9.62157e-05
-0.000978925
0.00845989
-0.011105
0.00276388
-4.38779e-05
0.00175235
-0.00171218
-0.00578787
-0.000873181
-0.00366009
-0.00164965
-0.00421838
0.00554758
-0.00115206
-0.0155594
0.00523972
-0.00159294
0.000426747
0.00116574
-0.000601186
-0.000252902
0.000853343
0.00874864
-0.0132325
-0.00120087
-0.000159021
0.00186169
0.00143774
-0.00199813
-0.00820287
0.0144378
-0.00601883
-0.000360329
-0.000251964
-0.00643487
0.00240618
0.000392219
0.000187818
0.00318041
0.000673124
-0.00392059
0.00057152
-0.00417804
0.00361746
-0.00143808
0.000248792
0.00121491
-0.00276715
0.00294967
-0.000184661
-0.013153
0.00408927
-0.00207317
0.00136823
0.000991823
0.00265556
-0.00365947
-0.00401656
-0.00769199
0.00076387
9.62457e-05
-0.0036882
-0.000394812
0.00409235
-0.0146302
0.007919
0.00679232
0.00102594
-0.000420124
-0.000607223
0.00170457
0.00350351
0.000336829
0.000305484
0.00534931
0.00562977
-0.0109846
0.00142383
-0.00137509
-5.03739e-05
-0.00440663
0.00729552
-0.00282649
0.00190835
-3.14096e-05
-0.00187309
0.0048256
-0.00384246
-0.00708457
0.00341529
0.00368027
-0.00234233
-0.00472646
-0.000745671
-0.000686471
0.000878725
0.00538324
-0.00626676
-0.00480145
0.00731751
-0.00143484
0.000151528
-0.0137149
0.00182549
0.0119347
0.00572218
-0.0118985
0.00624468
0.000625184
-5.96016e-05
0.00488753
-0.000722494
-0.00991356
0.0152188
-0.00518726
0.000976563
0.000247764
0.0038141
-0.00106749
0.000519213
0.00536098
-0.00549741
0.000578707
-0.00120375
0.000888294
-0.00143053
0.000539382
0.00809025
-0.00106465
-0.00534383
-0.00611478
0.0117286
0.00914932
3.22319e-05
0.00244991
-0.0056904
-0.00173943
-4.74857e-05
0.000510377
-0.000507388
-9.39742e-06
-0.00359888
0.00455254
-0.00094641
-3.79745e-05
-0.0015553
-0.0101054
0.016538
-0.00631608
0.00415249
2.54994e-05
-0.00178815
-0.000683409
0.00247124
-0.000966926
0.00107309
-0.000114227
-0.00120422
0.000456802
-0.000226473
0.000299815
-0.00625679
0.00380288
0.00271994
-0.000259439
0.00235442
-0.0104521
0.00346766
0.00724786
-0.00259061
1.29784e-05
0.00719092
-0.00410521
-0.00287092
9.247e-05
0.00200397
-0.000117496
-0.00373088
0.00241311
0.00126957
0.00450117
0.00195921
-0.00643993
-0.00135667
0.000342761
0.00370162
0.000790423
-0.00188088
0.00058102
0.00131318
-0.000263127
0.00250271
-0.0022487
0.000413811
0.00149544
0.000514851
0.000883142
0.00739109
-0.00447336
-0.00535248
0.000787092
-0.00818262
0.00342996
-0.00112576
-0.00134871
-0.000666359
0.0015466
-0.000881864
0.01833
-0.00827194
-0.00993465
-0.00179871
-0.000282987
0.0161284
-0.00300219
-0.0130502
0.00105393
-0.00135759
0.000297345
0.00361022
-0.000481345
-0.00473637
0.00561155
0.00493918
-0.00825965
0.00339393
-0.00109747
0.0022765
-0.0011817
0.00923765
-0.00421499
0.00148316
0.000881011
-0.00233541
0.00323522
-0.000898049
0.00076132
0.000413629
-0.00118011
-0.00496187
0.00391829
0.00103407
-0.00793142
-0.00661602
-0.000491812
0.00394208
-0.00231494
0.00148033
-0.0111532
0.00988533
0.000290786
0.00121868
-0.0148748
-0.0156427
0.00215667
0.0135424
0.00309399
-0.00181539
0.000902586
-0.00018003
-0.0117574
-0.00507722
0.0169127
-0.00113251
-0.009114
-0.00194583
0.000205973
0.00381106
-0.00330194
-0.000204361
0.00162589
0.00253339
-0.00179289
-0.000743326
0.00331244
-0.00264377
-0.000670204
0.00300401
-0.00264343
0.00207733
-0.00119451
-0.000885137
0.00115317
-0.000780875
-0.000363483
-0.00102688
5.35462e-05
0.00446163
-0.014444
0.000575005
-0.00186321
0.00128915
0.00158609
0.00298357
-0.00514115
-0.00210264
0.0073009
0.0109626
-0.00918213
-2.12176e-05
-0.000878875
-0.000926919
0.00160526
0.000923602
-0.00411547
-0.00637064
0.0105231
-0.00165554
0.00115023
0.000503388
-0.00739085
0.012737
-0.000172123
-0.00437736
-0.00164423
-0.000232988
-0.0120786
0.00188158
0.0102816
0.00242727
-0.000465387
-0.001966
-0.00896241
-0.00500646
0.00157464
0.00138593
-0.000634939
0.000273237
0.000667396
-0.00111434
-0.000478291
0.00114775
0.00380984
-0.00449248
0.00069837
0.000898292
0.00240095
0.00025879
0.000765768
-0.000948683
-4.36857e-06
0.000946922
0.000294619
0.000105258
-0.000400367
-0.00165198
0.000729326
0.00111359
0.00157972
-0.0013141
-0.000239855
-0.000945031
-0.011046
-0.00484349
-0.00991469
0.0148336
0.000507215
0.000759224
-0.00126872
0.00148844
-0.000743476
0.000112178
0.00045053
-0.00342142
0.00302721
0.000403338
0.000603665
0.000607367
-0.00122606
0.000450328
-0.000161382
-0.00028928
-0.0078939
0.00954007
-0.000856047
0.000167703
0.000668453
-0.00304728
0.00303032
3.30051e-05
-0.00353878
0.00393126
-0.00038526
-0.00140062
0.000916892
0.000482614
0.00348777
0.00994023
0.00850207
-0.000307089
0.000845942
-0.00304735
0.00691081
-0.00223238
-0.00373336
-0.000926496
0.00198341
-0.00105889
0.000225873
-0.00381842
-0.00353065
-0.00595536
-0.00261464
0.000314187
0.00229917
-0.00485353
0.000852841
8.02043e-05
-0.000876048
6.8697e-05
-0.00101867
-0.00205694
-0.00249244
0.00214514
-0.001393
-0.00136493
0.0007862
-0.000629515
-0.000229195
0.00230272
0.00184539
-0.00416476
-0.00192739
0.00105715
0.000884231
0.00219471
-0.000361739
-0.00186981
0.00110651
0.000977003
-0.00208907
-0.000531067
-0.000736201
0.00287049
-0.00215774
-0.000823077
0.000238057
0.000582865
0.000895629
6.42764e-06
-0.000595004
-0.00119632
0.00144494
-0.00024556
0.000236064
-0.00241495
0.00221031
0.00153401
-0.00162459
8.66952e-05
0.00474136
-0.00774198
0.00139509
-0.0056595
0.00437189
0.000188057
0.000261831
-0.000502154
-0.000142605
-0.0129088
0.00491175
0.000185104
-0.000647495
-0.000763535
0.00171867
-0.000957026
0.000450461
0.000708805
-5.67117e-05
-0.000561515
-0.000462028
-0.000939073
0.00170776
-0.00107772
-0.000610231
-0.000307286
0.00326672
-0.00295484
0.0152541
-0.00824173
-0.00678148
0.000500051
-0.000718357
0.000219463
-0.000505469
0.000633505
-0.000103863
-0.00860017
0.00250257
-0.000343576
-0.00630175
0.00674077
0.000897408
0.00117807
-8.58718e-05
-0.00290683
-0.00174033
-0.000594837
0.00233474
0.000815937
0.00010049
-0.000377762
-0.000202544
0.000582333
0.0030719
0.000322289
-0.00202724
0.00170269
0.00137548
0.000193099
0.00201565
0.000815772
-4.5619e-05
-0.000959472
0.00100402
0.000939444
-0.00104534
9.8256e-05
-0.0105372
0.00544324
-0.00788576
-0.00448595
0.0124589
0.00309811
0.00149607
-0.00044347
-0.000720732
-0.000185072
0.00580353
-0.0116359
0.000450377
0.00292213
-0.00300611
-0.0027304
0.00354611
0.000856398
-0.000214377
-0.00070074
0.0012059
-9.4129e-05
0.00194852
0.00120654
-0.00316796
-0.000221306
-0.000910791
-0.00521043
0.00240791
-0.00136025
-0.000298774
0.000611166
-0.00095005
0.000339423
0.00169198
0.00274711
-0.00441951
0.00729869
-0.00155571
-0.00295074
-0.012606
0.0121856
-0.0125402
0.000279907
0.00175715
-0.00233488
-0.000134892
0.00560092
-0.00692584
0.0014347
-0.0118137
0.012359
-0.000572027
0.00216443
0.0021455
1.89191e-05
-0.00105568
-0.000362698
0.0178577
-0.00780907
0.0106945
-0.00448164
-0.00612439
-0.00823839
0.000662142
0.0076432
-0.000208019
-0.000620815
-0.00425431
0.000576333
0.00240035
-0.00107165
0.00164066
0.000891203
0.000256241
-0.00113916
0.000686674
-0.00106427
-0.00475425
0.00111089
-0.00464981
-0.00860677
0.0133906
0.000529588
-0.000349089
0.000686214
-0.00428967
0.0100707
-0.000558104
-0.00102775
0.00159769
0.000179699
-0.00137313
-0.00657652
0.00489891
0.00169555
-0.00186325
0.000708996
0.00149535
-0.00342888
-0.000102299
-0.00308328
0.000774226
0.00231477
-0.00154402
0.00287176
-0.00132864
-0.000148139
0.00104703
-0.0096957
0.00311249
0.0065897
-0.000551136
0.00116892
-0.0045205
0.00904137
-0.000789054
0.00109519
-0.00284931
0.00084501
8.64885e-06
-0.000856689
-0.0134787
0.00466441
0.00474069
-0.000706113
-0.00397689
-0.00141024
0.00261382
0.000242542
0.000212919
1.76445e-05
-0.000652875
-0.0003066
0.00134691
0.00437898
-0.000559993
0.0115045
-0.00399137
0.00291067
0.00446323
-0.00728722
0.011878
0.00606828
0.0067043
-0.00632747
-0.000371163
0.00470893
-0.0134317
-0.000618349
-0.000747975
0.00381581
-9.48921e-05
0.000937404
-0.00246719
0.000726186
0.0109566
-0.00422815
-0.00664228
0.000971938
-0.000892611
-0.000562548
7.25866e-05
-0.0110163
0.00671987
0.00434584
0.00653392
-0.0160117
0.0094857
0.00349891
-0.00123179
-0.00227073
-0.000217841
0.000791246
-0.000576656
0.00052104
-0.00043244
-8.24854e-05
-0.00291034
0.00325212
-0.000346361
0.000756631
0.00120298
-0.000429807
0.0010092
0.00461692
-0.000368723
-0.00104764
-0.00557487
2.58817e-05
0.0055976
-0.000618669
0.000983755
-0.00035624
0.0030698
-0.00926491
-0.00354511
-0.000235942
-0.00158061
0.00212615
-0.000550037
-0.000593619
-0.00131182
-0.00229802
0.000211448
0.00205969
-0.00126958
0.000481758
-0.00238785
-0.00288118
0.00535517
0.000390831
-9.5932e-05
0.00454976
0.000582279
0.00726607
-0.0015754
-0.000316251
-0.000458919
-0.000670911
0.000448699
-0.0040276
0.00430947
-0.000286231
-0.00490597
0.00259949
-0.00873347
-0.00451037
0.000189904
-0.0120224
-0.00402464
0.0022339
8.72128e-06
0.000724769
0.00206766
-0.00419601
0.00719196
0.000488595
0.00164461
-0.000494682
0.0102035
0.00522644
-0.00157455
0.00332195
-0.00255352
0.00326549
0.0025567
0.000553773
-0.00311759
0.0157495
-0.00772985
-0.00785013
0.00148644
-0.000930415
-0.000550406
0.00553468
0.000390361
-0.00272205
0.00464822
-0.00474415
-0.00131562
-0.00524069
0.00153751
0.00323654
0.00442859
-0.000829966
-0.00320144
2.40399e-06
-0.00182706
0.0018538
0.00836228
-0.0033289
0.00639473
-0.00496071
-0.00141762
-0.00209707
-0.00851985
-0.00215009
-0.000148293
0.00229579
0.00222803
-0.00249158
0.00105434
-0.000214721
-0.00476301
0.0056414
-0.00185563
0.0011774
0.000668365
-0.000666702
-0.00336494
0.00106149
0.000343715
-0.00140557
0.000546513
0.00149359
-0.00597338
-0.0034673
0.00943969
0.0116803
-0.00561059
0.00366346
-0.00238838
-0.00130451
0.00591037
-0.00137387
0.000832569
-0.000879861
0.00526702
-0.000577238
0.00305069
-0.00272728
0.00247711
0.000232546
0.000914057
-0.00148177
-0.000291456
-0.00373547
0.0040407
0.00064649
-0.000411886
-0.000236057
-0.0049717
0.00593834
-0.000946602
-0.0135565
0.00577226
0.000256447
-0.000410135
0.000153511
0.000665029
-0.00064854
-0.00504522
-0.00886035
0.0140369
-0.00166694
0.00111212
-0.000503432
0.000645757
-0.000153412
-0.002922
-1.19666e-06
-0.000628535
-0.000577547
0.000984295
-0.00077359
-7.96256e-05
0.00643201
-0.00667857
8.05253e-06
-0.00417482
-0.0016504
-0.00212197
0.002309
-0.0017116
0.00176958
0.000354248
-0.00168146
0.00179763
0.000223107
-0.00120517
0.000972528
-0.000276283
-0.00179996
-0.00033581
0.00213141
0.00427268
-0.00388146
-0.00044972
0.000329676
0.003553
-0.00349186
0.000375537
-0.000977287
0.00272162
-0.00046635
0.00693649
-0.011011
-0.00123991
0.00139596
-0.011637
0.00445321
0.00723606
-7.61906e-05
-0.000599613
0.00776945
-0.00214635
0.00481181
-0.00672199
0.00359536
0.00286652
-0.0069666
0.00412909
0.0142116
-0.00788021
0.00162245
-0.00435517
0.00274512
0.00285594
0.000220796
-0.00259246
0.00159811
0.00392721
-0.00550727
0.00130964
0.000419573
9.21826e-05
-0.00313244
-0.00337018
0.00203304
0.0013306
0.000808822
-0.00019708
-0.000139597
0.00114871
0.00735343
-0.00347313
-0.00126424
-0.00247006
-0.00264594
0.00513799
-0.000662697
0.000561662
9.98738e-05
-0.000679379
0.000188996
0.000492414
-0.000951211
0.00212403
-0.0108562
0.0166094
-0.00568392
-0.000250275
-0.00169539
0.00392191
0.000383483
0.000207246
0.0023417
-0.00233053
0.000184775
-0.00166154
0.00147421
0.000188486
-0.00120473
0.0022202
-0.00101689
0.000136252
-0.00572018
0.00561536
0.00197493
0.00243928
-0.00196197
0.000297569
0.00167413
0.00444085
-0.00417925
0.00149244
-0.00245091
-0.00268724
-0.00128069
0.00397295
0.00094016
0.00191116
-0.00285771
0.000329255
0.00226986
-0.00261357
-0.00108027
0.000447863
-0.0092817
0.00530688
0.00185025
-0.00138264
-0.000434483
0.000672657
0.00294181
-0.00579126
0.00154586
0.0062783
-0.00799747
-0.00933165
0.0158117
-0.00634389
-0.000968417
-0.000686185
-0.000493968
0.00117465
0.0018159
-0.00172292
-6.09347e-05
0.00100841
0.00130811
-0.0145582
0.00374661
-0.0133143
0.000766994
0.0126037
0.00256699
0.00011872
-0.001644
-0.00939775
0.0111122
0.00115148
-0.00217226
0.000983644
0.00860656
-0.00672297
-0.00180772
-7.01241e-05
-0.00353258
0.00396186
5.76687e-06
0.000494934
-0.00166748
-0.00199008
0.00364075
0.000600291
-0.00419035
0.00569433
0.000298982
-0.00565628
-0.00264938
0.00310958
-0.000448216
-0.00709641
0.000318795
0.00677506
-0.00102279
0.00333142
-0.00430255
-0.00810306
0.0123891
-0.00210909
0.00160137
0.000510993
0.000519285
-0.00475785
0.00425759
4.22335e-05
-0.00263258
-0.00208625
-0.00160678
0.000526398
0.00108441
0.00334402
-0.00207177
-0.00122595
-0.00116246
0.00244423
-0.00130712
0.0010179
-0.00333143
0.000405005
0.00814367
-0.000568435
-0.0010744
0.00164232
0.000225161
-0.00287198
0.000340111
0.000609141
-0.000950489
0.00830788
0.000364053
-0.00258286
0.00079458
-0.00672714
0.0011534
0.00559373
-0.00354491
0.00407934
0.00170244
-0.000788756
0.00306789
-0.0039828
0.00105305
0.000154114
-0.000172532
-0.00316095
0.000810719
0.0123032
-0.0131492
-0.00555389
0.0140771
-0.00846908
0.00202178
-0.0016372
-0.000382351
-0.00529673
0.0116436
-0.00950682
0.00848894
0.00103037
0.00554725
-0.00400239
-0.00150063
0.0104146
-0.00605039
-0.0040565
0.000612673
0.000391734
-0.000809666
-0.0037836
-0.00853244
-0.000131471
-0.000531919
0.0029389
0.00409856
-0.00699638
0.000119977
-0.00192547
-0.00115494
0.00222094
-0.000217235
0.000457559
0.00406768
-0.00678685
0.0149081
-0.00800795
-0.00955223
-0.0038085
-0.000504316
-0.00160089
0.000620602
-0.000488553
-0.000136339
-0.0014085
0.00122362
0.000185332
-0.00456517
-0.00512414
-0.00198334
0.00230446
0.00413342
-0.0015489
-0.000314775
0.00108505
-0.00279276
0.00203133
0.0066031
-0.000947433
0.000891098
5.40279e-05
0.0101625
-0.00453479
0.000485932
-0.000907513
0.00547522
-0.010401
0.00504207
0.0123066
-0.00455242
-0.00773218
-0.000668268
-0.000405937
0.00107395
0.0157133
0.000482885
0.00193041
-0.00170706
0.00905071
0.00511504
-0.0140321
-0.00270715
0.00236325
0.000696248
-0.00592341
0.00458268
0.00263369
-0.00698213
0.00290291
0.00297259
-0.00577057
-0.000566083
0.000488801
-0.00185236
0.000603889
0.00124631
0.00427495
0.007335
0.00132933
-6.84149e-05
-0.00120835
-0.00164814
0.00301037
-0.00136927
0.00102579
0.000974062
-8.71653e-05
0.000968696
-0.000420819
-0.000548648
0.00145222
-4.35044e-05
-0.00154715
0.00360337
-0.000965832
-0.00270666
-0.00222794
0.0017558
0.000512518
0.000795956
-0.00307071
0.00451626
-0.00135443
-0.00273491
0.00103696
-0.00513934
0.00417989
0.000990363
-0.00279872
0.000133046
0.00261356
-0.000171486
0.0017583
-0.00158557
0.0153807
-0.0101598
-0.00524949
-0.0148792
0.00717167
0.00791356
0.00100003
0.0032208
0.00192926
-0.00355485
0.00161967
-0.00183612
0.000386323
0.00146273
0.00404297
-0.00295894
-0.00099248
-0.000446914
0.00013351
0.000311045
0.000482155
-0.000280421
-0.000170926
-0.00213276
0.00398139
0.00126106
0.000233763
-0.00150556
0.00377899
-0.00118794
-0.00254612
-0.00394005
0.00731348
-0.00320239
0.00228105
0.00730124
-0.00059475
-0.00266115
0.00427455
-0.0104484
0.000484095
0.0100094
0.00384455
-0.010007
-0.000386088
-0.000292321
-0.00218965
0.00217324
2.25835e-05
0.00135618
1.38834e-05
-0.00137055
-0.000260841
0.00806917
-0.000868495
0.00061474
-0.000108642
-0.0015194
0.00162893
0.00301714
-0.00565242
-0.000587742
-0.00126774
0.00185463
0.00306666
0.000141577
-0.00320483
-0.00711469
-0.0075506
-0.00176139
-0.000194882
-0.00187335
0.00323207
0.00181529
-0.00476306
0.000530015
0.005418
-0.000641847
-0.000162847
-0.000651986
0.00173806
4.89082e-05
0.00321774
-0.00120396
0.00211381
-0.00338517
0.00123566
0.00294715
-0.00324972
-0.00202228
-0.00407521
-0.00146643
-0.000215469
0.00173286
0.00515988
0.00342642
-0.00859075
0.00630894
-0.00668524
0.000507977
0.00131745
-0.00578855
-0.00337433
0.00938002
-0.0012643
0.00897977
-0.00873445
-0.00024015
-0.00211693
-0.000541437
0.00090865
-0.0014111
-0.00049456
0.00190487
-0.00136582
0.000936373
0.000425785
-0.00995845
0.00398232
0.00125219
-0.000365552
-0.00140528
-5.08908e-05
0.00145492
-0.00974816
-0.00571356
-0.00106169
0.000631378
0.00128783
0.00143069
-8.25453e-05
-0.00132347
0.00200237
-0.00152338
-0.000478548
-0.000148245
-0.000299205
0.00172869
-0.00327127
-0.00034453
-0.00150861
0.00842636
-0.0128243
-0.0017516
0.00176263
-0.00187857
-0.00143085
0.000762187
0.00206242
-0.00066639
-0.0104229
0.00509477
0.007087
-0.0137535
-0.000456328
0.00100903
0.00143812
-0.00241664
0.00565995
0.00356635
-0.00922384
0.000890217
-0.000371152
-0.000519653
-0.00506066
-0.00516501
-0.000702912
0.011624
-0.0109301
-0.00274592
0.00179737
0.000947939
0.00397892
0.000320808
-0.00428872
0.00705006
0.00829077
-0.00783408
-0.00585722
0.0039047
0.00200782
0.00634432
-0.00293743
-0.00331032
-0.000635934
-0.00273704
-0.00310909
-0.00472344
0.00727753
0.00485243
-0.0121167
-0.00125779
0.00333862
-0.00129615
-0.000557329
0.000588346
-0.00125637
0.00322058
-0.000146348
0.000811778
0.00277829
0.00296304
-0.00305029
-0.00273098
-0.000373849
-0.00197906
0.00183557
0.000142173
0.000332079
-0.0015661
-0.00193226
0.00349314
0.00640987
0.00115638
0.00224076
0.00988743
-0.00430813
0.00106783
-0.00104022
0.00911627
-0.00116823
-0.000326722
0.00046763
-0.00864454
-0.00330664
0.0034602
0.000778435
0.00185833
-0.00263899
0.000863976
-0.000325113
-0.000524344
-0.00326377
0.00327319
-0.00045668
0.000164552
0.000802963
-0.000977559
-0.00458762
-0.00368064
-0.0107036
0.014408
-0.000278289
-3.66865e-05
0.000314514
0.00369973
-0.00775744
0.00719681
-0.0126929
0.00561327
0.00242173
-0.00804296
-0.00255021
-6.44407e-05
0.000184463
0.00859381
0.00731331
-0.000249881
-0.000985883
0.00123208
0.000559752
0.000690212
0.000220303
-0.000583096
0.000361604
0.000714131
0.00036217
-0.00107465
0.00132881
-0.00032231
-0.000928563
0.00920278
-0.00811244
-0.000457625
-0.000797357
0.00126005
0.0104694
-0.0141296
-0.0141012
0.00593161
0.00838707
0.0159222
-0.00937976
0.00113863
-0.00206718
-0.00105322
-0.000355297
0.00252931
-0.00248885
9.49256e-05
-0.00166289
0.00154434
0.014159
-0.00497618
0.000109584
-0.0102615
0.00443027
-0.00428531
-9.05315e-05
0.0136114
-0.0128385
0.00419523
-0.0139753
-0.00154082
-0.00141521
-5.42029e-05
0.00345732
0.0049857
-0.00426086
-0.000712146
-0.000686948
0.00136623
-0.000678403
0.00403038
-0.00897171
0.000102627
-0.00476842
0.00468465
0.00226589
0.00877144
-0.000286364
-0.000431801
-0.000570072
0.000732388
0.000703949
0.000858331
0.00155184
-0.000290037
0.00328578
-0.000222611
-0.00204706
-0.00210266
0.00100269
-0.00407542
-0.000546616
-0.00357944
0.00349727
-0.0053031
-0.000975178
0.00631295
0.00097111
0.000886734
-0.00165112
0.00244627
-0.0024497
-4.57006e-06
0.00188043
-0.00286522
0.000977857
-0.000627301
-0.000241687
0.000868409
0.00386528
-0.00285297
-0.000598081
0.00104081
-0.000569707
-0.000469725
-0.00102541
-0.00115869
-0.00512282
-0.00412591
-0.000812646
-0.000279996
0.00108972
0.00907004
-0.0138447
-0.00438161
0.000340106
0.00576845
0.00444819
-0.010099
0.00618728
7.36299e-05
-0.0061438
-0.00121127
0.00198827
-0.00262576
0.0042601
-0.00147874
-0.00315727
0.0123465
-0.000814855
-0.00462114
0.000826729
0.00380557
-0.000661698
0.00127311
-0.000610663
0.000189956
0.0037257
-0.00133115
0.003529
-0.00221339
-0.00062144
0.00174796
-0.00112755
-0.0046201
0.00299001
-0.00208485
-9.15906e-05
0.00513489
0.000360347
0.00195521
0.00345405
-0.00291003
-0.000545058
-0.00125876
-0.000202604
-0.00130828
0.000110932
0.00118645
0.00204162
-0.000918923
-0.00113074
-0.00223932
0.000986062
0.00125079
0.00264411
-0.00965741
-0.00521652
0.000816522
0.00113582
-0.00195223
-0.00178459
0.00347905
0.0022041
-0.00205189
-0.000149296
0.00272718
-0.00168793
0.00590158
0.000376464
0.00117483
0.00034739
-0.000387863
-0.00022077
-0.00143986
0.00500654
-0.000643836
-0.00679189
-0.000281712
0.00373109
-0.00342756
-0.00429019
0.00191192
0.0025016
0.00121301
0.00499091
-0.00618711
0.00381467
-0.000472763
-0.0017233
0.00136768
0.000228513
0.00186843
-1.16529e-05
-0.00214148
0.00254527
-0.000353587
-0.000467493
0.00314614
-0.00372885
0.00221558
0.00150586
0.00512231
-0.0045587
-0.000545933
-0.000405862
-0.000405679
0.00081041
0.00928805
-0.014308
-0.00160117
-0.00729875
0.00902957
0.000358992
-0.00923034
0.0144779
0.00277709