/*--------------------------------*- C++ -*----------------------------------*\
| =========                 |                                                 |
| \\      /  F ield         | OpenFOAM: The Open Source CFD Toolbox           |
|  \\    /   O peration     | Version:  v2012                                 |
|   \\  /    A nd           | Website:  www.openfoam.com                      |
|    \\/     M anipulation  |                                                 |
\*---------------------------------------------------------------------------*/
FoamFile
{
    version     2.0;
    format      ascii;
    class       volVectorField;
    location    "900";
    object      ddtCorrDdt0(U);
}
// * * * * * * * * * * * * * * * * * * * * * * * * * * * * * * * * * * * * * //

dimensions      [0 1 -2 0 0 0 0];


internalField   nonuniform List<vector> 
13917
(
(-0.019768 0.0061923 2.29819e-18)
(-0.00349751 0.00051453 2.41872e-19)
(-0.0225565 -0.0542497 4.44738e-17)
(-0.000385921 0.00060278 1.69258e-18)
(-0.000132103 -0.00164244 1.40579e-18)
(0.0011726 -0.00402527 -3.68345e-17)
(-0.0200326 -0.0372486 -8.55528e-18)
(-0.0159666 -0.0766909 -2.05725e-17)
(-0.200137 0.140906 5.81626e-18)
(-0.0363267 0.00434606 -1.03399e-17)
(0.00684738 -0.0327205 -1.1111e-17)
(0.000819909 -0.0132394 -2.67124e-18)
(-0.000478304 0.0004767 7.41382e-19)
(-0.257408 -0.036394 -2.13433e-17)
(-0.00552657 -0.00471002 -9.23319e-19)
(-0.00643076 -0.00291518 -3.60791e-18)
(-0.00387476 -0.000340104 5.72113e-18)
(0.0149171 0.0230263 5.0012e-18)
(0.000539685 -0.0127423 3.53685e-18)
(-0.000111695 -0.000283367 1.4514e-18)
(-1.00323e-05 -0.000142641 -1.16276e-18)
(-0.0191807 -0.0356344 2.02983e-18)
(-0.000268133 -0.000910255 8.35958e-19)
(-0.0158826 -0.0733404 7.68278e-19)
(-0.000997647 -0.00349433 1.57609e-17)
(-0.0176229 -0.0254181 4.92532e-18)
(3.91832e-05 -0.00773144 5.26783e-17)
(-0.000262236 -0.00866817 -9.26558e-18)
(0.0129902 -0.0157094 -1.14367e-17)
(-0.0400653 0.050862 -3.26231e-17)
(-0.0203978 0.0107997 -3.57561e-18)
(-0.0101364 0.00446806 7.71841e-19)
(-0.000927416 -0.00764633 8.9587e-18)
(2.55973e-05 -0.0064973 5.2156e-17)
(-0.000803796 -0.00395184 -9.34715e-18)
(-0.00859173 -0.0381833 1.27655e-17)
(-0.000233173 -0.00075838 -5.3964e-18)
(-0.169983 -0.0964965 -2.73179e-17)
(-0.000654088 -0.000649029 4.31537e-19)
(0.0124577 -0.0187744 5.4409e-18)
(-0.000694282 -5.46548e-05 9.03335e-19)
(-1.96925e-06 -3.77089e-05 8.42883e-18)
(8.30172e-05 0.000762395 4.05195e-18)
(0.00120737 -0.00941499 3.77433e-18)
(-0.00162031 0.00283995 -3.11785e-18)
(-0.000433175 -0.00677373 -2.41487e-17)
(0.0148589 0.0215031 -4.59448e-18)
(0.0304483 0.00680048 -2.03434e-18)
(0.00511455 0.000189078 -7.87791e-17)
(-0.000219523 -9.21535e-05 -2.26178e-18)
(0.00282311 0.00571008 1.67714e-18)
(-0.000597579 -0.00525036 -5.16602e-18)
(0.0105522 0.00146758 5.66855e-17)
(-6.98274e-07 -0.00654897 -1.65764e-17)
(-0.00397209 -0.000499196 1.15016e-18)
(-0.000914286 0.00883795 6.9927e-19)
(0.00857219 -0.0327558 1.01e-17)
(-0.0022026 -0.00312615 -3.56674e-20)
(-0.00293303 0.00698187 2.16315e-18)
(-0.00162848 0.00272137 9.15255e-19)
(0.0582863 0.0515806 -6.09909e-17)
(-0.00352497 0.000774874 -1.51478e-18)
(-0.166346 -0.0228376 2.02564e-17)
(-0.000133606 -0.000359373 1.42671e-18)
(0.0010147 -0.00386352 -1.8042e-17)
(0.208345 0.0896152 1.54878e-18)
(-2.63202e-06 -0.00192123 -8.54107e-18)
(4.66623e-05 -0.00432943 7.7931e-18)
(0.0605024 -0.0279339 2.37097e-19)
(-0.0163841 -0.000649165 -2.36766e-18)
(-0.000133793 -0.00146875 -4.99824e-18)
(-0.188755 0.137145 9.40482e-18)
(-0.11641 0.0502301 2.9671e-18)
(-0.000963373 -0.0034407 -1.00969e-17)
(0.00142037 -0.000875188 1.38957e-17)
(-0.00381278 -0.013077 2.73858e-18)
(-0.291818 0.0290778 6.50828e-18)
(-0.0013287 0.00402082 -1.13538e-18)
(-0.0169522 -0.0216551 6.88164e-18)
(-2.40092e-05 -0.00028479 6.17736e-18)
(-4.88556e-05 -0.000247413 1.03194e-18)
(-4.54476e-06 -0.00163088 -7.36858e-19)
(0.00177717 -0.00443128 2.61589e-17)
(-0.151144 -0.107227 -1.70298e-17)
(0.0787712 -0.0208441 1.11967e-17)
(-0.00122811 0.00388256 -1.74239e-18)
(-7.29991e-05 -0.000179349 1.63684e-17)
(0.158693 0.0490014 1.12421e-17)
(0.00257712 0.00549184 -1.50927e-18)
(0.000113291 0.000809416 -4.88443e-18)
(-0.257164 0.0709388 -5.65398e-18)
(-0.0488282 0.0206012 1.75796e-18)
(-0.00200665 0.00116593 2.64377e-18)
(-0.00338176 -0.00441619 5.80012e-18)
(0.142761 0.0608419 -1.46962e-17)
(-0.000516241 -0.00434595 2.31433e-17)
(0.027176 -0.0268542 1.37378e-18)
(0.0269074 0.0131712 -8.78727e-18)
(-0.006376 -0.018754 -1.41017e-18)
(0.00210457 -0.00719197 8.67038e-19)
(-0.000895207 -0.000125559 2.73076e-18)
(0.000148685 -0.00722549 -5.07364e-18)
(0.00126149 -0.00869348 6.77061e-17)
(-0.000200883 0.00415671 -5.89169e-19)
(-0.00126216 0.000407876 -4.80189e-18)
(-0.178091 0.152203 -2.79394e-18)
(0.0082637 -0.0185376 -1.65777e-17)
(0.0327393 0.00704956 -9.30476e-18)
(-0.00396532 -7.90055e-06 -7.31962e-18)
(-0.0236091 0.00770932 8.62091e-19)
(0.10041 0.0481931 6.12372e-17)
(0.00585893 -0.0194253 -1.09234e-18)
(-0.000958631 -0.0163053 -2.30275e-18)
(-0.182433 0.148392 -1.15059e-17)
(-0.00041682 -0.00580794 1.3752e-17)
(0.000825351 -2.39033e-06 2.70005e-17)
(-0.000894337 -0.00251161 3.97612e-18)
(0.00102437 -0.00199881 1.34267e-16)
(-0.0355335 -0.0230551 6.44744e-18)
(-0.000524549 -0.00655779 -2.31204e-17)
(-4.38268e-06 -9.6769e-05 1.1353e-18)
(0.0614178 -0.0251914 1.18423e-18)
(-0.0735316 -0.0302423 -6.25228e-18)
(-0.000227233 -0.00860883 -6.19296e-18)
(-0.000413154 -7.83288e-05 3.13628e-18)
(-0.00323878 -0.00437235 4.80615e-18)
(-0.00210757 0.00255679 1.13855e-18)
(-0.000363602 -6.1685e-05 -5.65287e-19)
(-8.08226e-05 0.000383069 -4.66204e-18)
(-0.000706801 -0.00366785 -1.0666e-18)
(-0.0415315 -0.0352324 -1.13033e-17)
(-0.00037789 -0.00579404 -1.70548e-17)
(-0.00172703 0.00289428 3.82958e-18)
(-1.35959e-05 -0.0001093 -3.01019e-18)
(-0.0825555 0.131594 1.14442e-16)
(-0.0185206 -0.0687392 1.62952e-17)
(-0.0200919 0.00491156 -6.20716e-19)
(0.00222147 -0.0070461 8.57563e-18)
(-1.60567e-05 -0.00208865 1.06471e-17)
(-0.00033946 -0.00651963 2.86741e-18)
(-0.00430406 -0.0399508 1.60199e-18)
(-0.00102623 0.00154795 2.3944e-18)
(-0.0012602 -0.00536769 5.66219e-18)
(0.00211633 -0.00869085 9.41083e-17)
(5.66831e-06 -0.00437122 -1.02853e-17)
(-0.123753 0.109711 -2.879e-19)
(0.012062 -0.0192746 -7.88159e-18)
(-0.000636992 -0.00515983 9.75559e-18)
(-0.000873601 0.00138582 2.82419e-18)
(-0.0109596 0.00301822 1.96294e-18)
(0.0165627 -0.00474345 -1.91129e-18)
(-0.000788739 0.0016374 -8.24632e-17)
(0.010832 -0.0192761 -1.27756e-18)
(-0.0134859 -0.00843338 -7.22744e-18)
(-0.00615999 0.0082962 2.20543e-18)
(0.09983 0.170218 -3.78097e-17)
(-0.0154699 -0.000599432 3.90675e-18)
(0.0184423 -0.0812604 1.97154e-18)
(-0.296644 0.0173881 -7.33103e-18)
(-0.0805164 0.129569 6.8996e-17)
(-0.00208232 -0.00588393 -5.66506e-18)
(0.000379586 -0.00769592 -2.46071e-18)
(-2.20849e-05 -0.000232254 -3.48723e-19)
(0.025108 -0.0253901 -4.8218e-19)
(-0.000257216 -0.0161369 2.37649e-18)
(-0.00584983 -0.0189339 -8.14481e-19)
(-0.000352832 0.00419992 4.40427e-19)
(0.0227539 0.00107365 -4.2642e-18)
(-0.00153227 0.00228586 -2.77956e-18)
(0.000220179 -0.00728926 -1.3834e-17)
(-0.0159206 -0.00701561 -1.24947e-17)
(0.199399 0.0352139 -1.21627e-17)
(-0.00259205 -0.0162572 -2.02641e-18)
(-0.00461973 -0.000545461 -7.00143e-18)
(0.0957965 -0.104643 -9.70347e-19)
(-0.0126334 -0.0109508 6.33308e-18)
(-0.0372298 -0.0357718 1.60935e-17)
(0.00202359 -6.46713e-05 -4.01445e-17)
(-0.079312 0.0764917 2.59049e-18)
(-0.00232593 -0.000967349 -2.16083e-18)
(-0.0505167 0.0252785 6.24648e-18)
(-0.0212764 0.0125179 2.70087e-18)
(-0.000965239 0.00156414 -7.2115e-19)
(-8.28185e-05 -0.000194856 -1.66297e-17)
(-0.00467136 -0.00676068 -1.84046e-17)
(-0.0177936 -0.0255277 -3.03783e-18)
(-0.135609 0.0313215 -2.75382e-17)
(0.110481 0.167543 2.55492e-17)
(0.00109874 0.0170726 -2.85538e-18)
(-0.00226634 -0.0212086 -4.66131e-19)
(0.00541932 -0.0543992 -1.83503e-18)
(0.0444757 -0.0351949 2.01789e-17)
(-0.117587 -0.0189445 3.32763e-17)
(-0.000249519 -0.00100131 3.99401e-18)
(0.000894157 -0.00665801 -1.83483e-18)
(-6.34591e-05 -0.00771579 -1.33861e-17)
(-0.000521866 -1.26115e-05 -3.32845e-18)
(-0.00206974 0.00117627 3.0883e-18)
(0.0036285 -0.0198859 7.2644e-18)
(0.0383106 -0.0160019 3.32273e-18)
(0.00233959 0.0016835 1.51561e-20)
(-0.000179966 -7.86849e-05 1.68232e-18)
(0.0190682 -0.000441207 1.07012e-22)
(0.0155249 -0.00485363 1.49729e-18)
(-0.116298 0.0409314 1.55918e-17)
(-0.0820582 0.144644 2.19494e-17)
(-0.00073289 -0.00393195 1.233e-17)
(-0.00226575 -0.00318936 -5.18849e-18)
(0.0262038 0.0111253 3.99359e-18)
(-0.0214639 -0.0341769 -1.89782e-17)
(-0.00125295 -0.00532081 1.97017e-18)
(-0.0209253 -0.0410437 -1.8094e-18)
(-0.109294 0.0243441 -2.22905e-17)
(-0.00159591 -0.021433 1.87902e-18)
(-0.0012782 0.000309919 1.50548e-18)
(0.00777525 -0.00538316 -1.84481e-17)
(0.0215436 0.00876704 7.97541e-19)
(0.109809 0.0309912 -4.01233e-17)
(-0.00140632 -0.00222403 1.04433e-18)
(0.0517173 0.0447739 1.92935e-17)
(-0.00223341 -0.00101377 2.05332e-18)
(-0.019623 0.0565365 4.04708e-17)
(-0.00070061 -6.73837e-05 2.21506e-18)
(-0.248652 -0.100228 -1.35096e-17)
(-0.16937 0.14656 4.07372e-17)
(-0.00667177 -0.00299214 -4.37801e-18)
(-0.00104665 -0.0334028 -5.71859e-19)
(-0.00603515 0.00878309 -2.11788e-18)
(-0.00125094 0.00017235 -1.61251e-18)
(-0.00777091 -0.0367671 -3.65288e-18)
(-0.00286188 -0.015662 2.08392e-18)
(0.00178154 0.0163352 -3.31713e-18)
(-0.0218174 -0.0573666 -4.42506e-18)
(-0.106108 0.0220805 3.48839e-17)
(-0.000770125 7.43664e-05 -4.11527e-18)
(-0.0105047 0.00483029 -1.20166e-18)
(-0.248087 0.0831226 5.87699e-18)
(0.126022 -0.364135 -1.43983e-17)
(-2.73051e-05 -0.000259151 1.40402e-18)
(-0.000778742 -0.000955571 -7.26256e-18)
(0.0119709 -0.020163 -5.19977e-18)
(0.0329709 -0.0291963 1.73175e-18)
(-1.81346e-06 -6.69922e-06 -4.98975e-18)
(-0.0072558 -0.0313054 8.97021e-18)
(0.0333066 0.0463451 1.39912e-17)
(0.00037242 -0.00768426 1.67344e-18)
(-0.0166864 0.00794995 -2.37133e-18)
(-2.82022e-05 -0.000237256 7.5593e-20)
(-0.00903992 -0.0113943 3.02765e-17)
(-0.1654 0.0177127 6.17422e-18)
(4.9061e-05 0.00206077 3.05908e-18)
(-0.0652017 0.0179523 -1.30613e-17)
(0.00277722 -0.00703713 2.72076e-17)
(-0.00198463 0.00252164 4.54407e-19)
(-0.00209562 -0.00320194 -1.6714e-18)
(0.00918048 -0.0142712 -3.45866e-18)
(-0.00476832 -0.0221405 2.68907e-18)
(0.0105842 -0.0179819 1.28784e-18)
(-0.00490011 -0.00691426 1.01911e-17)
(-0.00584483 -0.00456217 -1.76528e-17)
(-1.64867e-06 -1.1541e-05 -1.36179e-19)
(-0.0682489 -0.0248631 -1.27608e-17)
(-0.073713 0.108195 -5.45198e-17)
(-0.010121 -0.025917 2.74053e-18)
(-0.00127194 7.84636e-05 -9.90609e-20)
(-0.0167217 0.0411368 8.68409e-18)
(-0.297411 -0.0466526 -1.71364e-17)
(0.0173707 -0.0869573 2.79579e-18)
(-0.0173441 -0.021678 -9.71922e-18)
(-0.004136 -0.0133601 3.31049e-18)
(-4.19289e-05 -0.000252862 -4.95289e-18)
(-0.000539079 -7.7503e-05 -1.88867e-18)
(0.0168056 0.0189202 -3.35597e-18)
(-0.355968 -0.0380539 -2.18206e-17)
(0.0575874 0.0092812 3.60541e-18)
(-0.00263588 0.00669256 -2.04153e-19)
(-0.120143 0.155911 1.8275e-17)
(-0.0014087 -0.00746208 1.93822e-19)
(-1.32611e-05 0.00028532 3.37133e-18)
(-0.00505572 0.0991122 7.2824e-17)
(-0.000132384 -0.000364895 7.03828e-18)
(0.090702 -0.117404 -1.31164e-17)
(0.00206966 0.00173162 6.58579e-20)
(-3.29408e-06 -7.35569e-06 3.95538e-18)
(-0.00794988 -0.00337287 2.9625e-18)
(-0.0128778 -0.00889635 -9.88838e-20)
(0.000256462 -0.00761248 3.13942e-17)
(-0.00769115 -0.0325006 -6.41286e-18)
(-0.00960984 -0.00598064 -7.6512e-18)
(-0.000289106 0.00255932 2.52059e-18)
(-0.0912798 0.138504 -6.4728e-17)
(-0.0206641 -0.0605585 -1.30076e-17)
(-0.0725629 0.103705 1.76244e-16)
(-0.00134596 -0.0022812 9.23752e-18)
(0.0581177 -0.107789 -1.65488e-17)
(-2.22184e-05 -0.000633654 -4.96477e-18)
(-0.000238106 0.00252079 -2.49013e-18)
(-0.000814653 -0.00240014 1.43183e-18)
(0.0138237 -0.020268 1.33873e-17)
(-4.18701e-05 -3.28877e-05 -6.64072e-18)
(-0.0219908 0.0601141 -2.79843e-17)
(-0.0161099 0.00732815 1.05211e-19)
(-0.00144755 0.00221709 -1.92782e-20)
(0.0191134 -0.00170773 -2.19006e-18)
(-0.00503227 0.00283072 -6.6598e-19)
(-0.00183691 -0.00131926 2.14167e-16)
(-0.012396 -0.0104183 -3.99957e-19)
(-0.0450851 0.020538 1.46027e-17)
(-0.000927586 0.00191465 3.33017e-18)
(-0.00203263 -0.0031375 1.15704e-18)
(0.120732 0.0468023 2.35935e-17)
(-0.0994143 -0.0346749 -1.15658e-17)
(-0.000969191 -0.00251518 -2.98338e-18)
(-0.000616949 -7.10882e-05 7.47425e-18)
(-0.00644158 0.0975071 4.93268e-17)
(-0.00223102 -0.000329788 -1.75647e-18)
(-0.129501 0.0569278 5.16559e-18)
(-0.000948414 0.00185084 4.80601e-19)
(-0.238106 -0.104005 6.0069e-18)
(-3.77522e-06 0.00135807 2.87745e-18)
(-0.00753575 -0.0523899 1.6958e-18)
(0.00773849 0.00490063 8.13067e-18)
(0.00270789 -0.000391306 1.11955e-17)
(-0.00213106 -0.00579771 5.60945e-18)
(-0.0834999 0.132613 -6.27143e-17)
(0.00532621 -0.00612139 -2.07596e-17)
(-0.00804112 -0.00300486 -2.56516e-18)
(0.0350182 -0.0279995 2.36358e-18)
(0.00462326 -0.0253696 1.98099e-17)
(-0.00329449 -0.00291938 -1.55004e-17)
(-0.0720471 -0.0509748 1.81384e-18)
(0.00059396 -0.00665041 -1.59193e-17)
(-0.300443 -0.0563728 8.12106e-18)
(-0.000805665 -0.00630231 -5.07087e-18)
(0.00064769 -0.0156655 6.72797e-18)
(-0.0105921 0.00605898 1.47282e-19)
(0.135839 0.0657387 -1.567e-16)
(0.00505945 -0.00660224 4.22003e-18)
(-0.00136045 -0.0188606 -1.73291e-17)
(-0.00247466 -0.0188907 -7.84624e-18)
(-0.0223651 -0.0531657 7.25278e-19)
(-4.09689e-05 -0.000366515 -1.7909e-18)
(-0.0169559 -0.00742354 8.60949e-18)
(0.0881609 0.0518527 -4.87474e-17)
(-0.0020162 -0.00418535 -9.97075e-19)
(-0.00551694 -0.0018791 3.50252e-18)
(-0.244304 -0.0486628 7.30732e-18)
(0.00540155 -0.0205456 -1.88947e-17)
(-0.0044282 6.40125e-05 3.73865e-19)
(0.00824511 -0.0525302 -9.88831e-19)
(0.0116737 -0.0136722 1.26111e-17)
(-0.000804724 -0.00026984 -4.24373e-18)
(-0.0327465 -0.0204197 -1.04058e-17)
(-0.00451398 -0.0447057 1.12107e-17)
(-0.000153338 -0.000440641 -8.16998e-18)
(-0.00120986 -0.000862077 -3.44711e-19)
(-8.60458e-06 -0.00060863 6.86469e-19)
(-0.000811399 0.00139977 3.29683e-18)
(-0.0916429 0.142116 -2.07966e-17)
(-0.0104633 0.00743607 2.76934e-18)
(-0.00423846 -0.00388778 1.08684e-17)
(0.104582 0.0509142 3.65396e-17)
(-0.000956229 -0.00308334 -6.90119e-18)
(-0.0704602 0.0189152 1.46056e-17)
(-0.0193827 0.0808045 -4.8562e-18)
(0.0128525 0.00273954 5.32072e-18)
(-0.0200482 -0.0390655 1.17788e-17)
(-0.334939 -0.0429511 -1.61341e-17)
(-0.173651 0.145905 1.13887e-17)
(-0.000856745 0.000212312 -6.52641e-18)
(-0.00985356 -0.0255602 -9.14338e-18)
(-0.00123131 -0.000681018 -2.71552e-18)
(0.0461396 0.0494061 5.48779e-17)
(-0.00172042 0.00268814 1.79081e-18)
(0.00163898 -0.000711949 3.54487e-17)
(0.0312107 0.0498186 -1.45756e-18)
(0.000553142 0.000638122 2.55321e-18)
(-6.2443e-05 -0.000395235 4.17227e-18)
(0.0240661 0.010707 8.3286e-18)
(-0.0544394 0.0260256 -6.37375e-18)
(0.0288939 0.0279575 2.86149e-17)
(0.00805026 0.00494266 5.66074e-18)
(0.153 0.0636491 3.34166e-17)
(0.12169 0.0280302 -1.08669e-17)
(-0.00939403 -0.012119 -8.85967e-18)
(-0.0339431 0.00502732 1.44121e-17)
(-0.000727974 -0.000960601 4.59689e-18)
(0.196077 -0.397687 1.46163e-17)
(-0.0175012 -0.0308222 -1.20585e-17)
(-0.00260165 -0.0027258 1.22468e-17)
(-0.088931 0.136833 -4.12416e-17)
(-0.000639879 -0.00317972 1.92108e-17)
(0.063515 0.110062 -9.03056e-18)
(3.56446e-05 0.00143405 -1.29135e-18)
(-2.77344e-05 -0.000343834 4.33417e-18)
(-0.00530861 0.00216789 -3.07597e-18)
(-0.0188868 -0.0230446 -4.95898e-18)
(-0.0053278 0.0019488 -8.23547e-18)
(-0.00992364 -0.0232367 3.93914e-19)
(0.0668947 0.0350189 -8.19328e-18)
(0.00354768 -0.0278008 -2.46431e-18)
(0.00473106 -0.00406398 -2.21216e-18)
(-0.00328525 -0.00274934 1.77085e-17)
(0.00704701 -0.00553687 3.03897e-17)
(0.00549197 -0.0053479 -7.76401e-17)
(-0.000517191 -0.00159845 1.79119e-18)
(0.00654562 -0.0189452 4.74859e-17)
(-0.00200795 -0.00411661 -2.00548e-18)
(-0.00080028 -0.00358589 -1.04502e-17)
(-0.0429371 0.0470463 3.70898e-17)
(-3.32738e-06 -1.93828e-05 -4.64525e-19)
(-0.000978215 -0.003659 1.91196e-18)
(-0.00122305 -0.000632525 4.30488e-18)
(-0.0789952 0.142482 2.3628e-17)
(-9.76313e-06 -0.000239008 1.56291e-17)
(-0.00539573 -0.0173291 -1.36946e-17)
(-0.0164743 -0.022117 -2.72189e-19)
(0.0353242 0.0338282 1.50255e-17)
(-0.106991 -0.0239959 -2.38555e-17)
(-0.0152856 -0.0221972 6.86816e-18)
(0.0723481 0.0262763 1.49727e-17)
(0.0120256 0.00227657 -2.42767e-18)
(-0.00089605 -0.00297488 2.72063e-18)
(0.0405371 0.088979 -3.7337e-17)
(-0.000496951 -0.000423029 -9.24445e-19)
(-0.0118128 0.00501864 2.49781e-19)
(-0.000315731 -0.00120676 5.7236e-19)
(-0.0700345 0.0553441 -6.84299e-18)
(-0.01931 -0.0330517 2.15041e-17)
(-0.0158525 -0.0219623 2.06037e-18)
(-0.00579129 -0.00369815 -8.01487e-18)
(0.0450388 0.0443472 9.13752e-18)
(-0.000721701 -0.00628294 -9.56008e-18)
(-0.000611359 -0.000841146 -3.34621e-18)
(0.0287008 0.0253578 -2.97634e-17)
(-0.00520879 0.000372411 1.08337e-17)
(-0.01051 -0.0242102 -6.95201e-18)
(-0.00386787 0.000121411 1.93081e-18)
(-4.44596e-05 -3.89638e-05 -8.4023e-18)
(-0.129758 0.0665886 3.73898e-18)
(-0.0372945 -0.0343307 -9.38423e-18)
(-0.0341346 -0.0343736 7.94818e-18)
(-0.050984 -0.0240877 6.6497e-18)
(0.0275138 0.0325326 -2.08501e-18)
(-0.061398 -0.0548698 -5.99697e-18)
(0.018183 0.0512817 4.73136e-18)
(-0.391519 -0.0028367 -2.81848e-18)
(-0.000215041 0.0003521 1.11012e-18)
(0.0218258 0.0157356 1.27094e-17)
(-0.00523022 0.000566629 -1.25571e-17)
(-0.00228764 -0.0034251 -4.62221e-18)
(-0.0913286 0.150294 1.82789e-17)
(0.0165207 0.0205008 -8.2134e-19)
(0.000555011 0.000106088 3.39955e-18)
(0.000393543 0.0381013 -2.80266e-18)
(0.0116828 0.00448295 2.80435e-18)
(-0.408234 -0.019044 6.43303e-17)
(-0.000572236 -0.0017061 -2.12988e-18)
(0.0437343 -0.0141091 -3.89224e-18)
(0.0853325 0.0456645 -4.21601e-18)
(0.000534914 -0.0595156 5.75784e-18)
(-0.015806 -0.0178633 6.99863e-19)
(-7.85536e-06 -0.000209652 -1.09663e-17)
(-0.00260455 -0.00283734 1.39145e-18)
(-0.000758847 -7.40317e-06 3.7064e-18)
(-0.0150324 -0.00167965 -1.56669e-18)
(-0.000837101 0.000217943 1.55204e-18)
(-0.0174546 -0.0238308 7.35004e-18)
(-0.00367109 -0.00444654 -3.36806e-17)
(-0.00966206 -0.00544188 -4.72605e-18)
(0.139946 -0.150616 1.75761e-17)
(-0.000505897 0.00852831 -3.85761e-19)
(0.0230073 -0.026561 -9.88268e-19)
(0.00855973 0.0570709 2.7163e-17)
(0.0120518 -0.0209472 -2.40278e-17)
(0.00312665 -0.0268613 3.87227e-18)
(-0.00406487 -0.0412778 4.70155e-18)
(0.0431993 -0.0159842 5.52955e-18)
(-0.00902104 0.035821 1.56101e-18)
(0.0618575 0.0670398 -5.04606e-17)
(0.00562229 -0.00614166 7.96861e-19)
(-0.00258786 -0.0260342 -1.96246e-18)
(0.00204097 -0.00364381 5.38901e-19)
(0.00254942 -0.00879236 -2.31616e-18)
(0.0348996 -0.000549376 -1.17582e-17)
(-0.000540349 7.26493e-05 1.85964e-18)
(-0.106292 0.144983 -5.96057e-17)
(0.00303352 0.00658732 2.44206e-19)
(0.000120779 0.00157071 6.93057e-19)
(-0.0141903 -0.00147559 -4.7985e-18)
(-0.00103956 0.00412962 1.8448e-18)
(-0.400978 -0.0196639 1.58824e-17)
(-0.182909 0.149736 3.17923e-17)
(-0.00216648 -0.000467891 8.36508e-19)
(-1.58851e-05 0.000233131 -3.88683e-18)
(-0.0214581 -0.0305832 -2.4657e-17)
(0.084705 0.0240979 -1.27328e-17)
(-2.9214e-06 -1.45788e-05 -1.25736e-18)
(-0.00756729 -0.0161343 -3.5899e-18)
(0.000351914 0.00259958 -4.7488e-19)
(-0.100373 -0.00010789 1.1203e-17)
(-0.00229838 -0.000604718 8.08762e-18)
(-0.0605575 0.0417849 -1.31538e-18)
(0.159039 -0.0850492 6.2765e-18)
(-0.0108365 0.00351282 -1.9361e-18)
(-0.0030026 0.00291134 3.41039e-18)
(-0.0172104 -0.0224701 -5.25926e-18)
(-0.11982 0.0354393 -3.43299e-17)
(-0.276163 0.0306626 -5.21403e-18)
(-2.20528e-06 -1.59457e-05 -1.42259e-18)
(-0.132531 0.0225897 -2.19047e-17)
(-0.00300841 -0.000632992 1.06449e-16)
(0.00494332 0.0899358 3.35626e-17)
(6.7821e-05 0.00162076 -1.71465e-19)
(0.158708 -0.0620505 -3.55802e-18)
(-0.0563924 0.0898769 1.95329e-16)
(0.0121485 0.00044338 -4.84424e-18)
(-0.00123716 -0.000804202 -3.98891e-18)
(-0.00383628 -0.00121828 -8.15999e-18)
(-0.0046182 -0.0125742 2.92149e-19)
(0.0144019 0.120991 -1.10338e-18)
(0.000610497 0.000126411 -1.44158e-18)
(-0.00114447 -0.000864144 7.37834e-18)
(-0.000433757 -0.000282951 -7.85524e-18)
(-0.000468296 -0.00028124 -1.99067e-19)
(-0.0136328 0.0371793 -2.02455e-17)
(-0.0864983 0.149242 9.42252e-18)
(0.0118982 0.00106734 1.81962e-18)
(-0.133904 0.0491231 3.00122e-17)
(-0.00052198 -5.57677e-05 3.20327e-18)
(-0.000880614 -0.000154433 -1.7711e-18)
(0.0445177 0.0400255 2.26424e-18)
(-0.10415 0.102813 -4.9533e-17)
(-0.00318877 0.0148683 -7.64827e-18)
(-0.00151571 0.00236498 4.12628e-18)
(-0.000869965 -0.00356388 1.01071e-17)
(-2.54169e-05 -0.00334362 -9.29469e-18)
(-0.00108355 0.0987556 -1.20738e-16)
(0.0291846 -0.00677289 -2.06111e-17)
(-6.79613e-05 -0.000137219 3.73664e-18)
(-0.000156022 -0.00334259 1.92993e-19)
(-0.0101348 -0.0246353 7.00905e-18)
(0.00596141 -0.00564729 -2.64561e-19)
(0.00763465 0.00438192 -1.35673e-18)
(-0.00249685 -0.00297629 1.26562e-17)
(-0.00549874 0.00150046 -7.42634e-18)
(-0.00961215 0.00191167 -1.06874e-18)
(0.0339519 -0.00184687 6.70203e-18)
(0.00370225 -0.024674 -1.27885e-17)
(-0.125016 0.0434251 1.32805e-17)
(0.0466521 0.0887999 5.38761e-17)
(0.0486176 0.0179128 8.23715e-18)
(-0.0887201 0.146119 -5.05734e-17)
(-0.0423961 0.0237457 4.18431e-18)
(-0.00127292 -0.00244149 3.76346e-18)
(-0.153756 0.0241288 -2.79944e-18)
(-2.89519e-06 -0.00319424 3.76856e-18)
(-0.0057119 -0.00187023 8.97192e-18)
(0.00109486 0.00191028 1.99012e-19)
(-0.107095 0.146808 4.49817e-17)
(-0.0076374 -0.0183646 -9.37681e-18)
(-0.000778922 -6.74975e-05 3.94514e-18)
(-0.00307032 -0.0633355 -6.55709e-18)
(-0.0410469 0.0612019 2.10741e-17)
(0.0642138 0.0706534 8.25516e-18)
(0.047949 0.0209098 -1.80414e-17)
(-0.00314671 -0.0086369 8.27149e-18)
(0.012695 0.00454461 -4.23174e-18)
(-6.95324e-05 -0.000415513 -3.34341e-18)
(-0.070332 0.101258 -1.48034e-16)
(-0.00789475 -0.0586879 -1.27582e-18)
(-0.0283619 -0.0692438 -7.3632e-18)
(-0.00371209 -2.68602e-05 2.17045e-19)
(-0.000794524 0.0114361 -2.06846e-18)
(-0.115261 0.0621001 -8.65468e-18)
(-0.328174 -0.0310349 1.4645e-17)
(0.0122989 0.0122846 8.56928e-17)
(0.0289897 0.013786 1.43497e-17)
(-0.0541471 -0.0274802 -2.01032e-17)
(-0.00612446 -0.00313726 -3.01564e-18)
(-0.00496564 0.00516564 2.08203e-18)
(-0.00250925 -0.00303739 -2.11355e-19)
(-0.0032713 -0.0122549 -4.79645e-17)
(0.00164389 -0.00862874 -2.32657e-17)
(0.000198264 -0.00487642 7.69052e-19)
(0.0207245 0.0073723 1.82279e-18)
(0.00269315 -0.00676519 -2.29356e-17)
(-0.0283675 -0.0747942 8.25102e-18)
(-0.255732 0.00161939 5.05752e-18)
(-0.0066962 0.00161626 1.9333e-19)
(0.0211603 -0.0256323 1.05776e-18)
(0.140286 -0.0795358 -3.26021e-18)
(-0.00874062 -0.00344674 -4.72453e-18)
(-0.0015528 -0.00507484 -1.55827e-17)
(0.00677075 0.00304658 -2.70359e-17)
(-0.143836 0.144698 4.14802e-17)
(-0.0395499 -0.0172231 -1.20234e-19)
(-0.114106 0.0712596 -5.35464e-17)
(-0.000136419 0.000414368 5.84736e-18)
(-0.0408556 -0.0224613 2.62684e-17)
(-0.00402651 -0.0126327 -2.32145e-18)
(-0.000780986 -5.45455e-05 1.86337e-18)
(-0.00891889 0.0115804 -4.89264e-18)
(0.0227874 -0.011684 -1.34849e-18)
(-0.00100729 -0.00760745 -1.57262e-17)
(-0.0354929 0.0511721 5.16768e-18)
(-0.0172683 -0.0218277 -4.0485e-18)
(0.0627353 0.0606298 4.65793e-17)
(0.00467636 -0.00449613 1.62923e-19)
(-0.0732809 0.104469 1.66156e-17)
(-0.00158935 0.00467867 -1.03301e-18)
(-0.395719 -0.00277393 -2.2293e-18)
(-2.27393e-05 -0.000249127 -4.07002e-19)
(-7.37082e-05 -0.000144068 -4.91893e-18)
(0.0499419 -0.107848 8.57802e-18)
(-0.146064 0.144811 -2.40982e-18)
(0.00462113 -0.00452336 -1.99768e-17)
(-0.00138811 0.00465007 -7.84629e-20)
(-0.00449237 -0.00043927 -2.2263e-18)
(-0.000183378 -0.00318832 5.43896e-18)
(-0.00116647 -0.00774322 -1.52105e-19)
(-0.000690392 0.000184365 1.05611e-16)
(-0.00540673 -0.0181656 -1.31737e-18)
(-0.00502081 0.00549636 -1.39302e-18)
(0.00382474 -0.0258469 -1.62763e-18)
(0.0233287 0.00900678 -6.10954e-18)
(-0.0023567 -0.000632183 -1.15213e-19)
(-0.000689332 -0.0301003 3.38951e-18)
(-0.00566949 -0.0175516 1.21761e-18)
(-0.0119272 -0.0207623 1.85474e-17)
(-0.00157118 -0.00196652 1.02915e-17)
(0.0665939 0.0507817 -2.7472e-18)
(-0.00123393 0.00413074 3.36254e-19)
(0.0710458 0.0341724 1.30733e-17)
(-0.0379754 0.00647767 -2.42348e-17)
(-0.00879532 -0.0182809 -5.99138e-18)
(-0.00126042 0.011878 4.87101e-18)
(-0.000674384 -0.000199019 4.21762e-18)
(-0.000196036 0.0015659 -1.03345e-19)
(-0.00212725 0.00270346 -3.74294e-18)
(-0.00334364 -0.0205021 -3.74319e-18)
(-0.000593849 -0.00674311 5.44543e-17)
(-0.0688765 0.130128 2.82959e-17)
(0.0279576 -0.000316075 5.08353e-18)
(0.0223995 0.00278731 3.24792e-18)
(-0.000779055 -0.000297673 -5.59545e-18)
(0.0529423 0.070516 6.50625e-18)
(0.00498953 -0.00393967 2.30537e-18)
(-0.00810473 -0.0445139 -5.57e-18)
(2.54617e-05 0.00207964 -3.24907e-18)
(-0.00100687 -0.00676308 1.18421e-17)
(-0.00111526 -0.000919463 -3.88121e-18)
(0.0013541 -0.00180225 2.21155e-19)
(-0.00278135 0.00725297 -2.8223e-18)
(-0.0573269 0.0910534 1.8401e-17)
(-3.2029e-05 -0.000316587 -3.34435e-19)
(-0.00122282 -0.0344148 -5.10461e-18)
(0.00195037 -0.00110871 2.62155e-19)
(0.00534831 -0.0320139 2.4722e-18)
(-0.0499638 0.0124896 3.07242e-17)
(-0.0886163 0.0518286 -2.62869e-17)
(-0.0107208 -0.01931 -5.59135e-18)
(-0.00369807 -0.00130509 6.96419e-18)
(-0.375909 -0.00187705 -4.49669e-17)
(0.0264901 0.0167686 2.77795e-18)
(-0.00285867 -0.00188334 -1.92964e-18)
(0.000967813 0.0017943 -3.97214e-19)
(0.158456 -0.0401589 7.99169e-18)
(-0.103256 0.0686895 -5.21391e-18)
(0.0547462 0.00621925 -3.98658e-18)
(-8.43336e-06 -2.00194e-05 -2.36833e-18)
(-0.00295077 0.00305349 9.66903e-19)
(-0.0139563 -0.0509129 -9.76111e-18)
(0.000516842 0.00043866 -2.7105e-18)
(0.0262879 0.0294433 9.81333e-18)
(0.00916864 -0.0132051 1.51994e-18)
(-0.000167391 0.00160979 -4.78656e-18)
(0.0142289 -0.00652379 6.40571e-19)
(-0.0219535 -0.0574379 -5.49254e-17)
(0.000104765 0.00192165 -1.34179e-18)
(-0.00010248 0.00111589 -1.32587e-19)
(-0.000371606 -0.000325111 -3.10267e-18)
(-0.0957593 -0.0310248 1.18541e-17)
(-1.22083e-05 -0.000154805 1.09402e-17)
(-0.00557616 -0.00359987 -7.86227e-18)
(0.203888 0.0381578 3.47219e-17)
(-0.004958 -0.00272678 -3.78009e-18)
(-0.152663 0.151926 4.88917e-18)
(-0.00674634 0.00813575 -2.98095e-18)
(-0.000958922 -0.00772204 -4.86561e-18)
(-0.000412547 -0.000329633 2.38224e-18)
(-0.0132346 -0.0126752 9.14521e-18)
(-0.000735266 -0.0023471 -3.0397e-18)
(-0.0155658 0.0338232 1.77084e-18)
(-0.00064555 -0.000130955 -1.86849e-18)
(-0.0182916 -0.0216689 -7.84442e-18)
(0.000325114 0.00268371 -1.82483e-19)
(0.190078 0.102547 -2.10581e-17)
(0.0158234 -0.000980112 4.89016e-17)
(-0.0998116 0.0971559 6.54365e-18)
(-0.000762524 -1.55222e-05 8.47688e-18)
(-5.32423e-05 -0.000395296 6.95653e-19)
(-0.0389269 0.0236158 1.01227e-17)
(-0.0242955 0.0137239 -9.48275e-18)
(-0.185114 -0.0524073 -3.94205e-17)
(-0.15839 0.129963 -1.7352e-17)
(0.0133334 0.0242076 2.61941e-18)
(-0.000744157 -0.00377691 -2.01398e-18)
(-0.0536803 0.14113 -2.13223e-17)
(0.00296198 -0.0031831 -3.50606e-18)
(-0.0115528 -0.0208448 -1.85053e-17)
(-0.056682 0.130206 -1.25271e-17)
(0.0168929 0.0153631 -7.89417e-18)
(-0.0169969 -0.0222161 5.39902e-18)
(-0.0192812 0.00283449 9.1852e-19)
(-0.00125749 -0.00701724 -1.30932e-18)
(0.0226969 0.0848815 -8.70713e-18)
(0.00330084 -0.018382 8.01538e-18)
(0.0117256 0.023993 3.84459e-18)
(0.00335468 -0.00202289 1.2414e-17)
(0.00863953 0.025711 -1.44775e-17)
(0.000214105 0.00121946 -5.96638e-19)
(0.0240972 -0.0128168 2.46232e-20)
(-0.00847039 -0.00273654 -1.68352e-17)
(-2.08325e-05 0.00186567 3.19002e-18)
(0.00149266 -0.00153069 1.09962e-19)
(-0.0229657 0.00922138 -1.11929e-18)
(-0.010496 0.00264509 8.08707e-19)
(-0.000731615 -0.00253631 -6.7594e-18)
(-0.000569703 -4.15605e-05 -9.42764e-18)
(0.0231481 0.00561825 -4.7777e-20)
(0.000522907 0.00344583 2.23151e-19)
(0.025913 0.0317928 -1.13563e-17)
(-0.000698832 -0.00366405 1.90016e-19)
(-0.000472918 -0.00295117 -9.23428e-18)
(-1.23708e-05 -0.000120642 -8.47728e-18)
(-0.00554374 0.000993116 1.27822e-18)
(0.000415139 0.000819806 -4.62804e-18)
(-0.00842541 0.00347548 -1.07816e-18)
(-0.000307669 -0.000357323 -7.19488e-18)
(-0.0496833 0.0386704 -7.2967e-18)
(-0.000450324 -0.012448 3.99492e-18)
(-0.00468897 -0.00568539 -1.20191e-17)
(-0.000872792 4.78765e-05 -3.56365e-18)
(-1.02536e-05 -0.00014396 -2.24066e-19)
(-0.000785809 -0.00914372 7.37026e-17)
(-0.00902232 0.0387223 -9.81446e-18)
(-0.000181173 -0.00571199 -2.32147e-17)
(-0.00849027 0.0988456 5.0703e-17)
(-0.0357483 -0.0126747 -7.97814e-19)
(0.0364657 0.043099 -3.39629e-19)
(0.00183547 -0.00137581 -8.9314e-19)
(0.0506174 0.0508991 -9.65471e-18)
(-0.00039285 0.00321227 -7.88898e-20)
(-1.06769e-06 -0.000114998 -5.51225e-19)
(-0.000493696 -0.000236143 -2.85545e-18)
(-0.00516841 0.00260853 -4.93205e-19)
(0.298804 0.064166 3.06184e-18)
(-6.78006e-06 -0.000118974 9.00823e-20)
(-0.120566 0.155454 -3.49286e-17)
(-0.00895667 0.00347565 7.30317e-19)
(-0.021664 0.0949281 -3.60355e-18)
(-0.00782764 -0.0128299 -1.63248e-17)
(-0.0383464 -0.0125229 -4.51597e-18)
(0.00486919 -0.0310879 -1.26463e-18)
(-0.000463625 0.00100455 -1.20262e-18)
(-4.31888e-08 -1.52061e-06 -2.23236e-18)
(-0.000123917 -0.0129436 -7.33623e-18)
(-0.000245316 -0.00430493 5.03674e-18)
(-0.00300345 -0.00380211 4.67427e-18)
(-0.0267096 0.105757 -2.82488e-17)
(-0.00480131 -0.00044279 1.13379e-17)
(-2.51571e-05 -0.000596717 2.47779e-18)
(-0.00423905 0.0100089 -1.7503e-19)
(-0.000719851 -0.000782373 -6.06853e-20)
(-0.000230715 0.000171032 -3.25408e-18)
(-0.0103201 0.00377974 -2.80637e-18)
(0.000736976 -0.00680414 -2.97582e-18)
(-0.199276 -0.0445175 4.75629e-18)
(-0.0156156 0.00553586 5.4805e-19)
(0.000124579 0.00185962 -1.73272e-18)
(-0.000750943 -6.27969e-05 -8.34705e-18)
(-0.305997 -0.0314718 9.90526e-18)
(-0.00236156 -0.0201027 2.63503e-18)
(-0.0033117 -0.00226476 8.71138e-19)
(-0.00363355 0.000150955 -3.975e-18)
(-0.0165205 0.102234 -3.42784e-17)
(0.162463 -0.0694658 5.56921e-18)
(0.158612 0.0318789 -7.83741e-18)
(-0.00350692 -0.00858803 2.53066e-17)