/*--------------------------------*- C++ -*----------------------------------*\
| =========                 |                                                 |
| \\      /  F ield         | OpenFOAM: The Open Source CFD Toolbox           |
|  \\    /   O peration     | Version:  v2012                                 |
|   \\  /    A nd           | Website:  www.openfoam.com                      |
|    \\/     M anipulation  |                                                 |
\*---------------------------------------------------------------------------*/
FoamFile
{
    version     2.0;
    format      ascii;
    class       volScalarField;
    location    "100";
    object      k_0;
}
// * * * * * * * * * * * * * * * * * * * * * * * * * * * * * * * * * * * * * //

dimensions      [0 2 -2 0 0 0 0];


internalField   nonuniform List<scalar> 
13851
(
0.000180148
0.000150959
0.000150774
0.025131
0.000148405
0.000152877
0.000150383
0.000146461
0.0283185
0.000148592
0.000170792
0.000148361
0.000149196
0.0169321
0.000158655
0.00017946
0.0243971
0.000146778
0.000194603
0.00018016
0.000160751
0.000153821
0.00480917
0.000149734
0.000225787
0.000168379
0.000191657
0.000210424
0.0242394
0.000145957
0.0579748
0.000150387
0.000179583
0.0240509
0.000163608
0.0235613
0.00014981
0.000248096
0.0570488
0.000148339
0.0355823
0.0238752
0.0083413
0.000198312
0.0235274
0.000146879
0.000145009
0.000178857
0.000150593
0.000149164
0.0266064
0.000149606
0.000179376
0.00015545
0.0151245
0.000148391
0.000180041
0.0377724
0.00019141
0.0202572
0.000148418
0.000190719
0.000148731
0.000150838
0.000178327
0.00017843
0.0157109
0.000167031
0.000148188
0.0375779
0.052625
0.000164182
0.000148377
0.0175641
0.000156301
0.00015144
0.0306202
0.000145344
0.000222125
0.000147412
0.000148212
0.000195782
0.0001634
0.0181277
0.0204454
0.0571503
0.000153927
0.0124154
0.000148438
0.0581876
0.000149738
0.000150516
0.00863059
0.0516699
0.0534197
0.00018781
0.000147197
0.000179746
0.0227629
0.000183191
0.000180386
0.000162368
0.000163284
0.000148698
0.000146733
0.000163807
0.000146748
0.0557649
0.0001505
0.000146661
0.000157815
0.00014686
0.000184815
0.000170028
0.000179023
0.000155024
0.000146104
0.000146215
0.0215973
0.0421075
0.000181781
0.000146145
0.000148245
0.0313205
0.000190384
0.000172361
0.000147164
0.000168392
0.0342662
0.000162596
0.00015377
0.00015695
0.000237884
0.0259017
0.00017109
0.0547987
0.000166629
0.0551731
0.000160259
0.00016218
0.000195017
0.000150455
0.000148479
0.000170708
0.000226815
0.000151307
0.000145305
0.05278
0.0236535
0.000168984
0.000180185
0.000184425
0.000171014
0.000190267
0.000149797
0.000148955
0.00014853
0.0589665
0.000160919
0.000149858
0.000149583
0.0239694
0.000163251
0.000178824
0.0172606
0.0267856
0.0266789
0.0306757
0.000157366
7.93519e-05
0.000148533
0.000146133
0.000167864
0.00014882
0.0531221
0.000193064
0.00018168
0.000146034
0.000156284
0.000181134
0.000189628
0.000197854
0.000156672
0.000162232
0.00935688
0.0238165
0.000179682
0.000157592
0.000149533
0.000146335
0.000215694
0.000160897
0.0132544
0.000152982
0.000151048
0.000179553
0.000179079
0.000147355
0.000147851
0.000167383
0.00019502
0.0480992
0.0389905
0.000158523
0.000340671
0.0476736
0.000152712
0.000161768
0.0288186
0.000152506
0.00017934
0.000148199
0.00019541
0.000149514
0.000163913
0.000152291
0.000149079
0.000187805
0.00014766
0.000503112
0.000146024
0.000180268
0.0160146
0.0541325
0.000157246
0.00016199
0.000149733
0.000169572
0.000147878
0.000163665
0.0433015
0.000157347
0.000152419
0.000148877
0.0392052
0.000145914
0.0024541
0.0404113
0.000181215
0.000149643
0.000215349
0.0199501
0.0219782
0.000179223
0.000157174
0.000173306
0.000186353
0.000156438
0.000186841
0.000158909
0.0122714
0.000181237
0.00014658
0.000152522
0.000180038
0.023878
0.013791
0.000146312
0.000172984
0.000148372
0.000184896
0.000190195
0.000152822
0.000163538
0.00018194
0.000147905
0.000162871
0.000176489
0.00020449
0.000148461
0.000149066
0.000157459
0.0268231
0.0154205
0.000162503
0.000146216
0.0001898
0.000190175
0.000177396
0.000163164
0.0284592
0.0210952
0.000153301
0.000157047
0.000223152
0.00014662
0.000148526
0.000177998
0.000168662
0.000145871
0.000149495
0.00014785
0.000147788
0.000156924
0.000148475
0.0285227
0.000161413
0.000147684
0.0237383
0.0299261
0.000149591
0.000180545
0.0245995
0.000150625
0.000149698
0.000162274
0.0173538
0.0323209
0.000169549
0.000148331
0.000107154
0.000148473
0.000171144
0.0282232
0.000202663
0.000149656
0.000224873
0.000210957
0.0601817
0.000184219
0.000163335
0.0549759
0.0341575
0.000210369
0.000148005
0.0331411
0.0060989
0.000200922
0.000200039
0.00015283
0.000169515
0.000157393
0.0128352
0.000163638
0.000146848
0.000144557
0.000154678
0.0564365
0.000364339
0.000146572
0.0535159
0.000157515
0.000157251
0.000149951
0.0162619
0.000189353
0.000179736
0.000152023
0.000151985
0.0221908
0.000149535
0.000190874
0.000153162
0.000162271
0.000158048
0.000148406
0.000147631
0.000183508
0.000184789
0.000181224
0.00023123
0.0220982
0.000151389
0.0406934
0.000187722
0.000145489
0.000204628
0.000174501
0.0266902
0.00015426
0.000169551
0.000190035
0.000232296
0.00018273
0.014066
0.000149035
0.000193994
0.00939992
0.000155842
0.0152986
0.000157235
0.0389387
0.000156824
0.000159666
0.000181514
0.000190849
0.000148973
0.000152968
0.000169793
0.000156488
0.000147069
0.000162653
0.0018077
0.000148328
0.000161918
0.0151413
0.000151034
0.000247914
0.000161177
0.0228736
0.000152978
0.000167459
0.0002447
0.000190432
0.000163515
0.0119094
0.0174814
0.000211272
0.000147984
0.000183195
0.000157573
0.000169201
0.000146264
0.00945868
0.00244599
0.000225207
0.00015188
0.000181787
0.000191328
0.0168854
0.000144861
0.0255879
0.000193286
0.0132895
0.000159472
0.000217525
0.000148676
0.000148734
0.0139397
0.000191654
0.000148597
0.000151006
0.000162265
0.000146378
0.000325782
0.000169629
0.000174249
0.000152107
0.000149051
0.00014976
0.000227966
0.000147669
0.000149696
0.000110376
0.000756782
0.00015345
0.00018866
0.000148781
0.000148469
0.000151409
0.000181707
0.00016105
0.000147164
0.000149285
0.000181263
0.000149776
0.0177376
0.00014833
0.000153311
0.0229009
0.000160344
0.000144873
0.000148664
0.000152059
0.000147705
0.000209858
0.00252993
0.000157309
0.00069405
0.000151434
0.000148201
0.0322168
0.000189801
0.0001601
0.000148388
0.0330165
0.000159872
0.000154598
0.000148714
0.000157033
0.000183095
0.000157404
0.0348264
0.000191333
0.000224288
0.00015215
0.000184566
0.000147867
0.0241188
0.000161101
0.00017903
0.000157282
0.000151736
0.000160268
0.00016816
0.000148491
0.0184331
0.0329155
0.0170028
0.00860623
0.00211543
0.0408854
0.000190679
0.000156695
0.000149319
0.000224127
0.000148595
0.00014706
0.000157782
0.0520836
0.000150561
0.000150525
0.000170827
0.000164161
0.000148797
0.000243898
0.00014723
0.0320003
0.000209844
0.000147376
0.000149782
0.000193902
0.000205177
0.000145917
0.000216794
0.00085735
0.00014524
0.0626859
0.000193759
0.00018032
0.000152123
0.000218151
0.022564
0.000145313
0.000194073
0.000148199
0.000147226
0.000155772
0.0378224
0.00016012
0.000160736
0.000148654
0.000165417
0.0327639
0.0573042
0.000145815
0.0309321
0.000147156
0.000148231
0.000163681
0.000153293
0.000144828
0.000151471
0.0627734
0.000189526
0.0621199
0.000150236
0.000148343
0.0257807
0.000149111
0.000183426
0.000153355
0.000156345
0.000157159
0.0165947
0.0242393
0.00015276
0.0235559
0.000149382
0.000169961
0.0236578
0.0191584
0.00014832
0.000147914
0.000163383
0.0622222
0.00018665
0.000165043
0.000336205
0.000153397
0.00015635
0.0418682
0.000421325
0.000176937
0.0326777
0.000183832
0.0220017
0.000148672
0.000191655
0.000206079
0.00014836
0.0160376
0.00555257
0.000157329
0.000162325
0.00014835
0.000470978
0.000171665
0.00882336
0.000147744
0.000149015
0.000155634
0.000163785
0.000148398
0.0528423
0.000148973
0.000183604
0.000152266
0.00016964
0.000148657
0.000148827
0.000165188
0.0314104
0.000163579
0.0541743
0.000157149
0.000146432
0.000145783
0.000168302
0.000149281
0.000176987
0.000151156
0.000159904
0.000190806
0.000149131
0.0114928
0.000149656
0.000174016
0.026542
0.0246023
0.000157075
0.00203633
0.000170436
0.000188579
0.00602055
0.000146152
0.000304815
0.000157564
0.000156348
0.0114525
0.000206086
0.000145543
0.000176669
0.00014723
0.0229512
0.0276517
0.000148369
0.000167393
0.000633885
0.000149728
0.000149643
0.000168603
0.00971323
0.000150314
0.000149714
0.000181583
0.00014951
0.000148853
0.00019094
0.000181902
0.000182403
0.000144784
0.00017646
0.000163281
0.000166122
0.00015095
0.000150835
0.000170745
0.000155435
0.000177677
0.000163864
0.000163986
0.000174654
0.000313382
0.000194138
0.0013109
0.000219652
0.000179562
0.0228514
0.000162217
0.000137468
0.000180831
0.000146662
0.000156009
0.00019164
0.000154326
0.000147419
0.000147385
0.000173999
0.0128582
0.00015349
0.0416476
0.000146456
0.00014227
0.000174976
0.0239266
0.00017659
0.000153097
0.000150779
0.027478
0.000182316
0.000161766
0.000191716
0.000148734
0.000264378
0.000174149
0.000183753
0.000157268
0.000198738
0.00014863
0.000149594
0.00015237
0.000148863
0.0242579
0.00014779
0.000190396
0.0275594
0.000176985
0.0562102
0.0242965
0.000184428
0.0001898
0.000157186
0.000149223
0.000148987
0.000145403
0.000145783
0.000148833
0.000170003
0.000184061
0.000164046
0.00020774
0.000150404
0.0285745
0.000149953
0.0295007
0.000162288
0.000149881
0.000148943
0.0251765
0.000153098
0.000202535
0.00413798
0.000161489
0.00016968
0.000145142
0.0273874
0.000152657
0.000150674
0.000191364
0.00014923
0.000150416
0.000146176
0.000161121
0.0134501
0.000155604
0.000157365
0.000193459
0.0574466
0.000157446
0.00015494
0.0225607
0.0001454
0.022954
0.000149283
0.000149785
0.000219482
0.000171549
0.000178811
0.00017545
0.000163732
0.000149492
0.000149953
0.000171163
0.000148756
0.000149548
0.000153815
0.000191934
0.000147652
0.000186894
0.00024883
0.000214442
0.000175339
0.0575656
0.000160562
0.00014919
0.000182229
0.000146556
0.000153029
0.000952438
0.0218049
0.00090234
0.0206554
0.000148497
0.00014833
0.000167763
0.000150641
0.000146401
0.0073954
0.000185199
0.016558
0.000174208
0.000171946
0.000148903
0.000145995
0.000276224
0.000174446
0.000150123
0.000149683
0.000178727
0.000186058
0.0416556
0.000149779
0.000148905
0.0114685
0.000150912
0.000157204
0.000146419
0.0508112
0.000146926
0.0297801
0.000148561
0.0001797
0.000159631
0.000167551
0.000157356
0.000148386
0.00015107
0.000147944
0.00018974
0.000150782
0.0164426
0.000148859
0.00023161
0.030588
0.000156488
0.000147808
0.0169074
0.0028723
0.000153108
0.000171411
0.000148981
0.0117442
0.000146758
0.00019156
0.000148287
0.000147919
0.000209965
0.000157274
0.000148589
0.000155752
0.0373524
0.000381936
0.000751106
0.000146351
0.0242387
0.000148414
0.000147708
0.000149763
0.000144315
0.000149503
0.00253523
0.000987431
0.000147738
0.000148946
0.000160369
0.00014686
0.0218569
0.000182644
0.020366
0.0548218
0.000151039
0.000177595
0.000148309
0.000160638
0.00017277
0.000146036
0.000149342
0.000221576
0.0295516
0.000169023
0.0119562
0.000167129
0.000148736
0.000161258
0.000171655
0.0268854
0.000156353
0.000207542
0.000174872
0.000149435
0.0205186
0.0255201
0.0166554
0.000213491
0.000128765
0.000152032
0.000173082
0.000149743
0.000197327
0.000153861
0.000146861
0.00210069
0.000150284
0.000147819
0.000148301
0.000150084
0.0519076
0.000191055
0.000146726
0.000161563
0.0175835
0.000150227
0.0110387
0.000151664
0.000171103
0.0420807
0.000148495
0.000187777
0.000156206
0.000157235
0.000407049
0.00015024
0.000195596
0.000167082
0.0353452
0.000147335
0.0153022
0.000155624
0.0264048
0.0256877
0.0123679
0.000161439
0.00014856
0.00014854
0.000149728
0.000159066
0.000148842
0.035113
0.00015614
0.00015641
0.000157301
0.000151867
0.000146344
0.000152569
0.000154603
0.000149765
0.000154528
0.0135497
0.000189204
0.000155125
0.000166496
0.00107995
0.00015059
0.0592395
0.000145491
0.000159144
0.000150837
0.000147137
0.000164488
0.000148168
0.000146691
0.00016326
0.000149018
0.000192063
0.00014903
0.0143581
0.000200645
0.000187116
0.000191868
0.000147258
0.0569199
0.00018292
0.000149451
0.000154554
0.000150332
0.0620753
0.000151738
0.000162828
0.00020328
0.0125095
0.000172755
0.000147735
0.0189802
0.000201766
9.96472e-05
0.000156166
0.000146368
0.000145716
0.000169551
0.000148608
0.0197879
0.000183751
0.00014925
0.000187544
0.000192687
0.000146106
0.00955817
0.0273105
0.00018473
0.00014905
0.0181249
0.000169667
0.000147917
0.0132773
0.000154726
0.00014611
0.000147358
0.00015578
0.000159192
0.0288825
0.0605067
0.00015971
0.0272611
0.000156696
0.000148414
0.00016814
0.000147434
0.000227252
0.000145917
0.000148127
0.000151908
0.000148649
0.0290793
0.0122631
0.000186882
0.0241845
0.0114275
0.000157157
0.000148327
0.000149036
0.00019586
0.000145808
0.000146838
0.000163251
0.00022471
0.00018737
0.000145282
0.000161797
0.000157429
0.000180667
0.010215
0.000145198
0.000144752
0.00014957
0.000224779
0.000153731
0.0336363
0.000150843
0.000148991
0.000146108
0.000147292
0.000152218
0.000184434
0.0209344
0.0263919
0.000157337
0.000148214
0.000273239
0.000147714
0.00022267
0.0275049
0.000158132
0.0352563
0.0243687
0.0534135
0.000164175
0.000156129
0.0269168
0.000155616
0.000159544
0.000168061
0.000188498
0.000148743
0.000369829
0.000148461
0.000530652
0.000227004
0.000145517
0.000152288
0.00016475
0.000194805
0.000157016
0.000148842
0.000153552
0.000151978
0.000151833
0.00021165
0.000149042
0.00397989
0.0134073
0.000148493
0.000155655
0.000158968
0.000148397
0.0218707
0.00668333
0.0559989
0.019287
0.000148066
0.000152251
0.000153701
0.000149715
0.000186741
0.000157198
0.000149703
0.000166617
0.000155037
0.000181725
0.000159785
0.0148668
0.000151862
0.00015039
0.000163838
0.000174712
0.000170946
0.000147959
0.00597052
0.029989
0.0040757
0.0461145
0.000665715
0.0275705
0.0250655
0.000147979
0.000148312
0.000146845
0.00018631
0.000160812
0.000170934
0.0187732
0.000147187
0.000145336
0.000148648
0.000184525
0.000145237
0.000152749
0.000151508
0.00017616
0.000150977
0.000146615
0.000148476
0.000147755
0.000148995
0.000159712
0.000186496
0.00015956
2.76236e-05
0.000148276
0.000147291
0.033524
0.0281783
0.0120806
0.000182308
0.000163595
0.000145661
0.00014634
0.000167351
0.000150399
0.000148567
0.000150311
0.034819
0.000149146
0.000174973
0.00029746
0.000147515
0.000147057
0.000155319
0.000184548
0.000149792
0.00013033
0.000146726
0.000185032
0.000148898
0.000147734
0.000153185
0.000169962
0.000149216
0.000192387
0.053829
0.000183321
0.0236202
0.000148682
0.0313648
0.000195884
0.000148283
0.000227431
0.000149713
0.00016204
0.000149564
0.000146777
0.000147469
0.00014889
0.000149062
0.000156143
0.00016851
0.000147886
0.000148765
0.000166134
0.000145397
0.00147673
0.000148922
0.000156545
0.000156549
0.0236757
0.000202353
0.00014892
0.000184838
0.000146389
0.000154791
0.000169852
0.000185888
0.000162164
0.000149795
0.000175864
0.000167583
0.000171931
0.000199075
0.000160202
0.000182547
0.000165067
0.000168562
0.000150844
0.000146245
0.000214177
0.0142948
0.000151825
0.000147892
0.012058
0.000146475
0.000160652
0.000147455
0.000172425
0.000237692
0.000144447
0.020949
0.000152685
0.000149045
0.000181272
0.000146868
0.000161761
0.020111
0.000160285
0.000205396
0.000147427
0.00014974
0.000162682
0.000149457
0.000149641
0.000153418
0.000155155
0.000168781
0.000173281
0.00014879
0.000161844
0.000146207
0.000148255
0.000149377
0.000148304
0.000220637
0.000146136
0.000151759
0.0001883
0.00014644
0.000147801
0.0264626
0.000149659
0.014875
0.000149355
0.021273
0.000188695
0.000164189
0.000271641
0.000170448
0.000245979
0.000148161
0.000186575
0.000154085
0.000146165
0.000146926
0.000151783
0.000155813
0.000147672
0.000167419
0.000147021
0.000150258
0.00963418
0.0264785
0.000293156
0.000150248
0.000163265
0.0295308
0.0399808
0.000149073
0.000152502
0.000242952
0.000147536
0.000161268
0.000246869
0.025716
0.000152904
0.000160355
0.000149944
0.000192672
0.000149892
0.000160286
0.00021568
0.00014908
0.000146538
0.00199883
0.000162716
0.000187694
0.0216519
0.000174067
0.00015
0.000147056
0.000147838
0.0408129
0.000205124
0.000179632
0.000168197
0.000148862
0.0369775
0.000148771
0.000184418
0.000155862
0.000149225
0.000160968
0.000148246
0.00571476
0.00874418
0.000144956
0.000169346
0.000161239
0.00024499
0.000162787
0.000164893
0.000187259
0.000156588
0.000188603
0.000165725
0.000148782
0.000157246
0.000168069
0.000223978
0.000148042
0.000202648
0.00016379
0.000165866
0.000149797
0.017726
0.000152331
0.000151687
0.000146483
0.000161453
0.000160657
0.000165339
0.000148742
0.000149804
0.0001682
0.00854496
0.000169337
0.000149012
0.000150823
0.00015716
0.000188568
0.000149059
0.000174174
0.000219219
0.000165311
0.022077
0.000158875
0.0228127
0.000195443
0.000147991
0.000210435
0.00014955
0.000152643
0.000156022
0.000157384
0.00017668
0.000161209
0.000163736
0.000164542
0.000156294
0.000152048
0.000145201
0.000168708
0.000151772
0.000156844
0.000201209
0.000153565
0.000157326
0.000147361
0.0149385
0.00017309
0.000148785
0.000151141
0.000152208
0.0178633
0.000183562
0.000156022
0.0228712
0.000197955
0.00020827
0.000175182
0.000188154
0.000146911
0.000183045
0.000146784
0.000155997
0.000236128
0.0218819
0.000195826
0.000221766
0.000148844
0.0156423
0.000146886
0.000171218
0.000153345
0.000153246
0.0028256
0.000151764
0.000147961
0.000195328
0.000162298
0.000147998
0.0484208
0.000148726
0.000151855
0.0001518
0.000149605
0.000156326
0.000152296
0.000148848
0.000159396
0.000198734
0.000159671
0.000169293
0.00014799
0.0262622
0.021244
0.000147814
0.000189658
0.000153285
0.000157292
7.42736e-05
0.000147788
0.000150374
0.000156243
0.0402313
0.000148053
0.000149137
0.000160447
8.77155e-05
0.00014769
0.000158752
0.000159746
0.000200498
0.000163702
0.000160397
0.000187107
0.000148726
0.000171512
0.000145646
0.0190188
0.000156037
0.000148636
0.000152659
0.000176275
0.000148898
0.000147397
0.000181354
0.014409
0.00014765
0.0193897
0.000149167
0.000145563
0.000169173
0.000148023
0.000146122
0.000741503
0.000149803
0.000160007
0.000180823
0.0629876
0.000199858
0.000145708
0.000153219
0.000156473
0.000148327
0.000148605
0.00014854
0.000201638
0.00014922
0.000187787
0.000176995
0.000146482
0.000145453
0.000155736
0.000177045
0.000189218
0.000165431
0.000169584
0.00015161
0.0282384
0.00017172
0.00015472
0.000159502
0.000168998
0.000175611
0.0208933
0.000158425
0.0172085
0.000226869
0.0314937
0.00015102
0.00014745
0.00016012
0.000159731
0.000145921
0.000147651
0.000174238
0.000149582
0.000148432
0.000148188
0.000144789
0.000149561
0.000147066
0.0293045
0.000147936
0.000248228
0.000148381
0.000170862
0.000148804
0.000177587
0.000170387
0.000148595
0.00141469
0.00015314
0.000149448
0.000159272
0.000146137
0.000157983
0.000146783
0.0188079
0.000151823
0.000160973
0.000170543
0.000701209
0.000155848
0.000188433
0.000201252
0.000166481
0.000147225
0.000149132
0.000172594
0.000169371
0.0282705
0.000145882
0.0430725
0.000148249
0.000168912
0.0139581
0.000159506
0.000164891
0.000152982
0.00015654
0.00015291
0.00889156
0.000156727
0.000148842
0.000165931
0.000181607
0.000150365
0.000148316
0.000148846
0.0575059
0.000149644
0.000155296
0.0278854
0.000154206
0.00014797
0.000168021
0.000152531
9.97002e-05
0.000145327
0.000148374
0.000146737
0.000155324
0.000148096
0.00014733
0.000167116
0.0313809
0.000147748
0.000148796
0.000191211
0.000147205
0.0214755
0.000149475
0.0271512
0.000146525
0.000152527
0.000146369
0.0180301
0.0221501
0.000157413
0.000167734
0.000156051
0.000147448
0.000148853
0.0176318
0.000148804
0.000171073
0.00014617
0.000159768
0.000149198
4.55535e-05
0.000146534
0.000160778
0.000146587
0.000195895
0.000209403
0.000146036
0.000164164
0.00599111
0.000168271
8.42329e-05
0.000164517
0.000187922
0.000152287
0.000157513
0.00017562
0.000206698
0.000146921
0.000158231
0.000156546
0.000147538
0.0161389
0.0486158
0.000169079
0.000182473
0.000195199
0.000158455
0.0246491
0.000145873
0.000146015
0.000176564
0.00228862
0.000188055
0.000183905
0.000200258
0.000146341
0.0140328
0.0207746
0.00574885
0.000149285
0.0361376
0.0582545
0.000210646
0.000336683
0.0280153
0.000171747
0.000156051
0.000185052
0.00015485
0.000147725
0.000211051
0.000173991
0.000145103
0.0243955
0.000149172
0.000156743
0.000160333
0.000155439
0.000204936
0.000159982
0.0151871
0.000160517
0.00015546
0.000224304
0.0416314
0.000180895
0.000150367
0.000154913
0.000171297
0.000166764
0.000146511
0.000163865
0.000166371
0.000182308
0.00014781
0.000186533
0.000152267
0.000165891
0.000304738
0.00018895
0.000151862
0.00017763
0.0428164
0.000149083
0.00014999
0.0204757
0.000194324
0.000151521
0.000151426
0.00014846
0.000170766
0.000151529
0.0234295
0.000176666
0.000150194
0.000149438
0.000166327
0.00015654
0.000196512
0.030315
0.000146764
0.000148076
0.000154735
0.000149218
0.000150989
0.000150136
0.000149084
0.000154879
0.000147351
0.000152915
0.000149587
0.000161388
0.000206656
0.000149736
0.000364395
0.0223363
0.000145638
0.000178425
0.00017867
0.000173563
0.00015049
0.000173791
0.00015324
0.000168167
0.000154902
0.000150175
0.000149335
0.0289474
0.000153217
0.000186829
0.000150514
0.000148631
0.000147937
0.000169879
0.000147644
0.000163415
0.000165964
0.000232078
0.000147121
0.00019492
0.000234461
0.0312628
0.000146294
0.000181547
0.000205695
0.000231479
0.000207965
0.000150813
0.00014872
0.00018234
0.000199286
0.00021741
0.00015992
0.000190145
0.000149498
0.000146217
0.000162567
0.000149225
0.000149574
0.000183906
0.000149743
0.000169141
0.000146446
0.0358711
0.00140426
0.000178349
0.000394002
0.0296659
0.000149329
0.000148875
0.000559901
0.000145952
0.000146099
0.000145551
0.000176761
0.025282
0.0301387
0.000156079
0.000146878
0.000150208
0.000161311
0.0179453
0.000148058
0.000160801
0.0347566
0.000149184
0.000149192
0.0205976
0.000170308
0.000149108
0.000148273
0.000884085
0.0357602
0.000146912
0.000185483
0.000149655
0.0315587
0.000277799
0.000149256
0.0363962
0.0215201
0.000160868
0.000146365
0.000146914
0.000149591
0.000149904
0.0266364
0.000147085
0.000185361
0.000188555
0.02608
0.000148884
0.00016859
0.000197362
0.000164284
0.000304916
0.0619091
0.000145154
0.000151962
0.000152129
0.000178808
0.0198474
0.000144725
0.0139415
0.000158511
0.000160108
0.000150545
0.00014739
0.000192429
0.000160992
0.0246459
0.000149223
0.000167633
0.000148741
0.000177857
0.00015062
0.0315766
0.000212328
0.000187164
0.000173205
0.000147739
0.000151714
0.000172909
0.000178504
0.0266889
0.00168622
0.000148892
0.000151711
0.000169567
0.0478037
0.000152307
0.000162407
0.000160373
0.000147513
4.01183e-05
0.000148317
0.000156495
0.0179186
0.0368119
0.00021024
0.0301238
0.000155724
0.000163007
0.00014568
0.0376931
0.000154932
0.000226385
0.000145592
0.000100838
0.000144491
0.000147775
0.000156233
0.000158396
0.000158973
0.000147738
0.021856
0.000160243
0.000147127
0.000160332
0.018371
0.000199482
0.000148641
0.0635072
0.000151991
0.00015663
0.000155628
0.000145544
0.000169592
0.000147743
0.000251483
0.000170207
0.000152429
0.000148305
0.000194356
0.000159986
0.000145587
9.74987e-05
0.000206327
0.000188956
0.000144886
0.000199694
0.000148885
0.000180791
0.000153163
0.000175526
0.000211952
0.021479
0.000159925
0.0289806
0.000166136
0.000156084
0.000146394
6.55609e-05
0.000174531
0.00017722
0.000165988
0.000149586
0.000166599
0.00017459
0.000195189
0.000187696
0.00807211
0.0217545
0.00024039
0.0400487
0.000156452
0.000158538
0.000148557
0.000147412
0.000144841
0.000183476
0.000156282
0.000159343
0.0613493
0.000147336
0.000146703
0.000159394
0.000181612
0.000153712
0.000146294
0.0483251
0.000151087
0.000161299
0.00014894
0.0310995
0.000156766
0.00192004
0.000165563
0.000157423
0.000166974
0.000148513
0.0132592
0.000196129
0.00017096
0.000148203
0.000147116
0.0133951
0.0576707
0.0234615
0.000146198
0.000171455
0.000197721
0.00014719
0.000147819
0.000148021
0.0279692
0.000170345
0.000159176
0.000152718
0.000152082
0.000717665
0.000173788
0.000189594
0.000152105
0.000156529
0.000144738
0.000176593
0.000167725
0.000148328
0.0163605
0.0624999
0.0381051
0.0120588
0.0536304
0.00715619
0.000385309
0.00015192
0.000145919
3.60019e-05
0.0357819
0.00022617
0.000148364
0.000159736
0.000148912
0.000147695
0.000174335
0.0345579
0.000167619
0.000147824
0.000192509
0.000174667
0.000163627
0.0233285
0.000209428
0.0001902
0.000147156
0.0322788
0.000202719
0.000193989
0.000155659
0.000160814
0.00014966
0.000146787
0.000160002
0.000162696
0.000152074
0.000159178
0.000153634
0.000153167
0.000185539
0.0207116
0.000158456
0.000159808
0.0313777
0.000184338
0.000148835
0.000189683
0.000205595
0.015734
0.000161131
0.000147641
0.000154926
0.000154006
0.00015753
0.000145526
0.0001594
0.000155379
0.000161161
0.000186831
0.00014949
0.000149907
0.0218756
0.0195814
0.0461047
0.000196732
0.000175607
0.00014441
0.000148803
0.000155611
0.000145654
0.00889609
0.000148649
0.000149801
0.000145682
0.0174813
0.0011858
0.000150001
0.000166845
0.000155159
0.000160412
0.000155553
0.000160146
0.000159512
0.000159731
0.0269996
0.000152431
0.0338896
0.000160711
0.0489657
0.000155366
0.000147309
0.000146364
0.000174567
0.000181547
0.000146464
0.000161894
0.00015542
0.000168458
0.000287371
0.0330511
0.000134453
0.000149799
0.000203321
0.000156994
0.000160046
0.00014827
0.000170957
0.000151437
0.0168458
0.000241093
0.000161906
0.000148508
0.0189372
0.000156123
0.020631
0.0322224
0.000185817
0.000152061
0.000180264
6.48896e-05
0.00020212
0.0298174
0.000168634
0.000147044
0.000161002
0.000146109
0.0013017
0.00015267
0.000156919
0.000192727
0.0534788
0.000146838
0.000147614
0.0525281
0.00016143
0.0159946
0.000159305
0.000148257
0.000161541
0.000186732
0.000162604
0.000186993
0.000159694
0.000201155
0.000152121
0.000149588
0.000147427
0.000191213
0.000150778
0.000176045
0.000148916
0.000147512
0.00018955
0.000152149
0.000147577
0.00014805
0.000159103
0.000200123
0.000159984
0.000160016
0.000155106
0.00016864
0.000148321
0.000180754
0.000155813
0.000161151
0.000166617
0.000153097
0.00017121
0.000162994
0.000146022
0.000168324
0.0551339
0.0195947
0.000147363
0.000234605
0.0201322
0.000147721
0.000150913
0.000202105
0.025611
0.00015666
0.0198626
0.000195675
0.000146713
0.000171831
0.000144838
0.000152432
0.000168513
0.000239374
0.000190072
0.000186448
0.000196153
0.0129442
0.0336854
0.000149264
0.0267802
0.000148505
0.00020421
0.034248
0.00014856
0.000148407
0.0191984
0.000149387
0.000148546
0.00019311
0.018707
0.000187985
0.000152119
0.0314005
0.000148565
0.016447
0.0230724
0.000149191
0.000193875
0.000237383
0.0406071
0.0206706
0.0234105
0.0186852
0.000146821
0.000151883
0.000168365
0.000167892
0.000148538
0.000184288
0.000148362
0.0237097
0.000191454
0.000163906
0.000188768
0.0239453
0.000190829
0.000186274
0.00016585
0.0260138
0.000198373
0.000151474
0.000145112
0.000199843
0.000160042
0.000145942
0.0211152
0.000147843
0.000196126
0.000149507
0.0323566
0.000151502
0.000147832
0.000261255
0.000156268
0.00016022
0.0173948
9.95839e-05
0.00024414
0.000153112
0.000160646
0.000151527
0.000158839
0.000179287
0.000159201
0.000149396
0.000230201
0.000167719
0.000158439
0.01812
0.000160166
0.000161118
0.000184556
0.000171459
0.000160602
0.000147789
0.000186301
0.000146354
0.000178873
0.00019022
0.0292462
0.000146796
0.00016028
0.0329906
0.000149391
0.000169927
0.000155126
0.000161219
0.000249545
0.00016731
0.000152235
0.000648635
0.000146883
0.018293
0.000148701
0.000149249
0.00017837
0.0232671
0.000157938
0.000186423
0.000197221
0.00015533
0.000147813
0.000174808
0.000162621
0.0600467
0.000155629
0.000530342
0.000181141
0.000155217
0.000155127
0.000173521
0.000159857
0.000167338
0.000167108
0.00016152
0.000151401
0.000146874
0.000223093
0.000148282
0.000154944
0.000145006
0.000175752
0.000155057
0.000166701
0.0265479
0.000151805
0.00018839
0.00014441
0.000149449
0.000149173
0.000149365
0.000152218
0.000147313
0.000172002
0.0206639
0.000166263
0.000161707
0.00015117
0.000147629
0.000188282
0.000148247
0.000133647
0.000223776
0.0370105
0.000179794
0.00015903
0.000152805
0.0001491
0.000157501
0.00016982
0.000162447
0.0378767
0.000165862
0.0631177
0.000179835
0.000149338
0.000146585
0.0194188
0.000147539
0.000154874
0.000166061
0.000195332
0.000149328
0.0316131
0.000149164
0.00015322
0.000148954
0.000150338
0.000175107
0.000175132
0.000148273
0.000155843
0.000160088
0.000161714
0.000165164
0.000194258
0.000187782
0.000190311
0.000178335
0.000151806
0.000149779
0.00016484
0.0225869
9.14268e-05
0.0211753
0.000155696
0.00021992
0.000174736
0.000148898
0.000147726
0.000166261
0.000148851
0.00015572
0.0294246
0.000147651
0.000146069
0.00019954
0.000179813
0.000161408
0.000210632
0.000149309
0.0155074
0.000162023
0.0468013
0.000157483
0.00014821
0.0171725
0.000165556
0.000148563
0.000169422
0.000149652
0.000180222
0.00015523
0.000164563
0.0121498
0.000159476
7.16613e-05
0.000147246
0.061619
0.000149196
0.000152962
0.000149143
0.000163637
0.000148849
0.000165267
0.0200217
0.000217368
0.000163889
0.000157783
0.000167885
0.000146888
0.000147089
0.000149102
0.000199116
0.000151597
0.0325885
0.0215905
0.000179562
0.000149376
0.000181223
0.000186226
0.000182103
0.000151647
0.0314924
0.000147842
0.000144455
0.000147659
0.000223251
0.000147479
0.000148348
0.0202905
0.00014775
0.000184089
0.000170375
0.000145718
0.0278025
0.000153298
0.0340688
0.000146977
0.000200017
0.000149628
0.000166851
0.0354971
0.000168558
0.000147427
0.000152762
9.83181e-05
0.000155608
0.000181746
0.000155841
0.000153562
0.00017868
0.000156379
0.00014721
0.00891143
0.000155503
0.000153385
0.000179389
0.000147793
0.000146636
0.000149184
0.000154947
0.000149127
0.000154006
4.27564e-05
0.0165088
0.000170379
0.012033
0.000165973
0.000156616
0.052691
0.0622963
0.000150216
0.0228293
0.000234331
0.020625
0.000211265
0.000156365
0.000127365
0.0214544
0.0184786
0.000210942
0.000725502
0.00016243
0.000168658
0.000157188
0.000151902
0.000148587
0.000223472
0.00014989
0.0233812
0.000172428
0.000186528
0.00014491
0.000169977
0.000163167
0.000152654
0.000149954
0.000148669
0.000172039
0.00014971
0.000147544
0.000159137
0.0602142
0.000150804
0.000181424
0.000146489
0.000172127
0.000168465
0.000149237
0.000154525
0.000147335
0.0307665
0.0233247
0.000183483
0.00030581