/*--------------------------------*- C++ -*----------------------------------*\
| =========                 |                                                 |
| \\      /  F ield         | OpenFOAM: The Open Source CFD Toolbox           |
|  \\    /   O peration     | Version:  v2012                                 |
|   \\  /    A nd           | Website:  www.openfoam.com                      |
|    \\/     M anipulation  |                                                 |
\*---------------------------------------------------------------------------*/
FoamFile
{
    version     2.0;
    format      ascii;
    class       volScalarField;
    location    "100";
    object      omega;
}
// * * * * * * * * * * * * * * * * * * * * * * * * * * * * * * * * * * * * * //

dimensions      [0 0 -1 0 0 0 0];


internalField   nonuniform List<scalar> 
13851
(
0.0675572
0.0225472
0.0224893
6.94196
0.0220807
0.0233358
0.0222962
0.0217663
4.3866
0.0220559
0.0460557
0.0220745
0.0221305
6.2729
0.026453
0.0727558
8.67523
0.0217442
0.135869
0.0675151
0.0282033
0.0242326
18.1192
0.0222638
0.343267
0.0384518
0.146279
0.243128
3.91109
0.0217171
9.7678
0.0222989
0.0665062
5.29363
0.0326747
3.84978
0.022274
0.541229
8.67154
0.0219883
6.16672
3.99267
22.2306
0.402245
4.1364
0.0218376
0.0215275
0.0684982
0.0225551
0.0221231
7.17102
0.0222156
0.0724485
0.0243161
6.02772
0.021997
0.0675785
6.18853
0.156725
6.4018
0.0220826
0.131329
0.0221059
0.0226303
0.177574
0.186081
8.25025
0.0681972
0.0219534
7.72795
7.92443
0.0317232
0.0220029
7.23679
0.0248244
0.0229571
7.30644
0.0216308
0.312738
0.0219317
0.0219561
0.167526
0.0325215
5.82266
6.19549
9.30913
0.0242735
6.94396
0.0220361
10.1124
0.0222575
0.0223328
23.1041
8.11909
7.51305
0.249305
0.0218778
0.0735409
7.61142
0.113543
0.0757741
0.0416144
0.0450786
0.0220477
0.0218088
0.0314137
0.0218147
8.51927
0.0223314
0.0217378
0.0278643
0.0218308
0.0880936
0.0412176
0.0658968
0.0240874
0.0217528
0.0217444
6.84115
9.02131
0.157704
0.0217076
0.0219683
4.82405
0.111126
0.118271
0.0218752
0.0440538
5.61513
0.0299293
0.0242019
0.0258839
0.442331
5.31286
0.0462272
7.76527
0.0640719
8.71751
0.0347612
0.0295611
0.162282
0.0225563
0.0220376
0.0979947
0.310269
0.0229109
0.0216267
8.4963
3.94738
0.0460235
0.0751104
0.0868241
0.0433736
0.111527
0.0222926
0.0220798
0.0220983
8.59143
0.0283721
0.0221701
0.0222429
3.87612
0.0308624
0.0685347
5.87631
4.47841
4.52753
6.47647
0.0274279
0.627296
0.0220984
0.0217574
0.0368702
0.0221388
7.75745
0.143319
0.0800268
0.0217427
0.0248077
0.0781882
0.108156
0.370321
0.0265915
0.0296363
24.0126
3.91629
0.0667204
0.029089
0.0222179
0.0217678
0.285996
0.0283569
8.39387
0.023348
0.0228031
0.0730304
0.0649264
0.0217541
0.0218624
0.0692242
0.165935
7.11181
6.35562
0.026386
2.16353
6.81918
0.0237862
0.0291856
4.49082
0.0231989
0.0726385
0.0219603
0.167988
0.0222335
0.0329401
0.0233567
0.0221055
0.101004
0.0218136
3.99131
0.0217413
0.0676006
6.52557
7.77348
0.0287034
0.0294153
0.0222634
0.0864346
0.0220025
0.0325745
14.9955
0.028908
0.0231708
0.0221282
6.27487
0.0217097
9.14801
6.43899
0.100937
0.0222512
0.468563
6.25383
4.10781
0.0719384
0.0255343
0.127059
0.0931417
0.024876
0.232227
0.0288764
6.79001
0.070094
0.0218162
0.023078
0.0746094
3.84434
4.94962
0.0217675
0.126157
0.0220317
0.0892051
0.110352
0.0232033
0.0310857
0.0724886
0.0219566
0.0436146
0.0590646
0.215158
0.0220807
0.0221021
0.0289129
4.81413
8.228
0.0298962
0.0217105
0.108485
0.110661
0.0597434
0.0307231
4.83626
7.40705
0.0234321
0.0253368
0.83453
0.0217916
0.0220979
0.0613429
0.0419405
0.0216988
0.0222309
0.0219945
0.0219948
0.025318
0.0220909
4.47328
0.0288772
0.0219013
3.80857
4.79517
0.0222257
0.0684195
7.39484
0.0226237
0.022252
0.0296768
6.24617
9.67204
0.0391925
0.0220714
0.633379
0.0220902
0.042082
6.54292
0.207829
0.0221253
0.633016
0.356505
9.117
0.0866512
0.0457537
8.14755
5.09984
0.237376
0.021887
7.19237
19.3874
0.67249
0.637544
0.0238111
0.0393462
0.0284168
6.25868
0.0472699
0.0218645
0.0214969
0.0245909
8.35893
3.31611
0.0217865
7.54364
0.0287363
0.0260736
0.0221982
7.25852
0.107219
0.0736009
0.0232534
0.0229799
3.70893
0.0222224
0.11455
0.0233741
0.0296726
0.0292491
0.0220313
0.0218953
0.0910817
0.121037
0.0699899
0.417005
3.74114
0.0229512
6.36494
0.103008
0.0216277
0.214038
0.0497847
6.55251
0.0242695
0.0406751
0.137033
0.377906
0.0889341
5.56998
0.0220905
0.148159
16.774
0.0247421
5.22225
0.0256889
6.59372
0.0251959
0.0272389
0.0711846
0.153486
0.0220835
0.0233207
0.0446567
0.0249108
0.0218562
0.0300129
2.56478
0.0219952
0.0293221
7.35772
0.0226318
1.20426
0.0286351
8.97702
0.0234116
0.0367879
1.58664
0.112401
0.0312166
5.66017
7.05408
0.417845
0.0219647
0.0898743
0.0259355
0.0400451
0.021727
23.1112
3.18178
0.35743
0.0229361
0.0720858
0.133323
7.79941
0.0215503
8.48782
0.168268
23.4635
0.0295318
0.267792
0.0220448
0.0221258
6.88903
0.135012
0.0220534
0.0225731
0.0296287
0.0217943
1.66132
0.0393693
0.0490822
0.0228766
0.0220928
0.0222544
0.375645
0.021903
0.022232
1.0158
2.20775
0.0240229
0.122531
0.022113
0.0220901
0.022769
0.0715942
0.0284974
0.0218621
0.0221208
0.147062
0.0222023
9.08391
0.02207
0.0233231
4.17246
0.0335139
0.0215585
0.0221165
0.0228665
0.0217884
0.444574
2.53707
0.0255982
10.7822
0.0227676
0.0220491
5.24335
0.136787
0.0341796
0.0220017
4.9449
0.03406
2.58497
0.0220512
0.025882
0.0910802
0.0255139
5.30037
0.136164
0.35307
0.0234003
0.0875841
0.0219481
3.86148
0.0285842
0.0647622
0.0257714
0.0230929
0.0333951
0.0370782
0.0220932
8.15692
5.18669
8.88952
7.5346
2.31112
6.46915
0.113462
0.0276554
0.0222063
1.86059
0.0220584
0.021858
0.0294569
7.76095
0.022421
0.0225773
0.0700178
0.0321729
0.0220731
1.41562
0.021887
5.5246
0.430385
0.0219251
0.022178
0.16444
0.217561
0.0217076
0.683748
4.49675
0.0215638
9.09971
0.132306
0.0674324
0.0233886
1.01247
6.32866
0.0215692
0.139107
0.0219589
0.021885
0.630556
6.64984
0.0280489
0.0282104
0.0220625
0.0336754
5.6048
8.26368
0.0216232
7.35712
0.0218631
0.0219617
0.0313326
0.0232972
0.0215453
0.0229764
9.18124
0.141128
8.77352
0.0223245
0.0220264
4.74994
0.0221773
0.0893704
0.0233578
0.0248589
0.0255544
3.96514
6.54224
0.0232341
8.56181
0.0220656
0.0402153
4.02358
4.6296
0.0219831
0.0219535
0.0454835
8.8794
0.11411
0.0331962
5.24732
0.023336
0.0249011
16.4815
1.92898
0.11531
5.47296
0.0874389
3.83968
0.0220194
0.157703
0.22362
0.0220721
13.5068
4.53335
0.027318
0.029688
0.0219931
7.50733
0.0568664
11.33
0.0219094
0.0221655
0.0264979
0.0319321
0.02208
7.63688
0.0221597
0.0856006
0.023482
0.0408391
0.0220424
0.0220747
0.0385556
7.55301
0.0313513
7.47141
0.0259424
0.0218006
0.021655
0.0373585
0.022123
0.058334
0.0225942
0.0337308
0.154548
0.0221798
5.92951
0.022253
0.0521021
7.73331
4.36568
0.0284794
7.77843
0.0682223
0.164673
4.66685
0.0216498
2.1225
0.0286836
0.0250955
7.61053
0.230421
0.021633
0.0572264
0.0217394
3.79452
7.51409
0.02198
0.0701644
1.72826
0.0222628
0.0222512
0.0388424
7.46034
0.306327
0.022257
0.0716227
0.0221374
0.0220731
0.155393
0.0723922
0.104608
0.0215444
0.0590843
0.042713
0.0347126
0.0227296
0.0227099
0.0549065
0.0263043
0.063669
0.0314147
0.0315829
0.0981726
1.80099
0.134778
2.68013
0.622466
0.0718974
4.5661
0.035435
0.691924
0.0691021
0.0217484
0.0246995
0.118876
0.0244504
0.0219343
0.0219316
0.0520566
5.83684
0.0233906
6.41518
0.0218043
0.326749
0.113912
7.49179
0.0575102
0.0234689
0.0224806
6.84893
0.103238
0.0340844
0.136927
0.0220232
1.2931
0.0524278
0.0860828
0.0258457
0.206671
0.02204
0.0222445
0.023495
0.0220721
4.05558
0.0219954
0.150742
4.77978
0.0587001
8.24118
6.99879
0.0886259
0.169857
0.0287026
0.0221857
0.0220884
0.0216417
0.0216568
0.0221407
0.0401218
0.0843479
0.0460569
0.228717
0.0225297
4.40652
0.0222935
7.55927
0.0312536
0.0222836
0.0221414
4.41411
0.0234186
0.193335
4.33758
0.0288783
0.0393144
0.0215503
5.42259
0.0236854
0.0224457
0.156163
0.0221883
0.0225407
0.0216733
0.0286082
6.04246
0.0248696
0.0258494
0.172427
8.01027
0.0290314
0.0253543
3.94966
0.021642
3.91467
0.0222019
0.0222001
0.301548
0.0442782
0.0648824
0.0589726
0.0314358
0.0222282
0.0222936
0.0426229
0.0220318
0.0222362
0.0235275
0.173323
0.0219772
0.156992
1.17384
0.209038
0.0583868
11.6767
0.0357504
0.0221815
0.0886314
0.0218184
0.023325
1.73227
3.70811
2.41237
3.94811
0.0220038
0.0219736
0.0592975
0.0226334
0.0217613
17.1897
0.0908274
4.98388
0.0527212
0.045082
0.0220739
0.0217225
0.779129
0.0494086
0.0222962
0.0222545
0.0648986
0.0982569
6.50149
0.0222852
0.02215
7.36241
0.0227115
0.0256259
0.0218006
7.70535
0.0218499
7.1249
0.0220804
0.0929786
0.0273567
0.0601563
0.0258833
0.0220057
0.0226046
0.0220176
0.145675
0.0226714
3.89253
0.0220433
0.249897
5.14359
0.0253447
0.0219992
6.84406
2.52646
0.0234022
0.0441028
0.0220865
6.65404
0.0217546
0.119276
0.0220592
0.0220142
0.210187
0.0256006
0.022106
0.0244725
5.93523
4.39485
2.34623
0.0217753
4.45963
0.0220728
0.021985
0.0222847
0.0214762
0.022232
3.03125
2.17157
0.0218247
0.0221558
0.0281855
0.0218301
7.33674
0.0900478
4.83461
8.20612
0.0225968
0.0634624
0.0220645
0.0282016
0.0952161
0.0216398
0.0222101
0.500234
6.95747
0.0383317
19.0334
0.0358106
0.0221086
0.0291401
0.0446913
8.49536
0.0249432
0.21636
0.0504188
0.0222227
15.0199
15.2892
4.52479
0.269002
0.507527
0.0233261
0.122983
0.0222392
0.17745
0.0241093
0.021866
2.92267
0.0224916
0.0220005
0.02198
0.022419
7.66311
0.115643
0.0218388
0.029466
6.38589
0.0224502
17.3489
0.0231227
0.0429124
6.85192
0.0220936
0.125122
0.0258127
0.0258932
5.37258
0.0224708
0.162832
0.0362905
6.04085
0.0217328
4.55893
0.0246605
4.81381
8.20179
6.14881
0.0288271
0.0220282
0.0220104
0.0222629
0.026691
0.0221294
5.44487
0.0261787
0.0273091
0.0288153
0.0232355
0.0217758
0.0230048
0.0245601
0.022181
0.0246865
5.8975
0.141972
0.0242983
0.0402699
2.71845
0.0226114
8.63472
0.0216581
0.0295659
0.0226911
0.0218217
0.0372676
0.0220438
0.0218341
0.0461027
0.0220878
0.173613
0.0220661
15.3616
0.18701
0.0955206
0.124776
0.0217681
8.09016
0.0767994
0.022225
0.0245578
0.0225008
9.31943
0.023159
0.0436737
0.210419
7.89029
0.0585216
0.0218561
4.06249
0.201553
0.628311
0.0258198
0.0217911
0.0216102
0.039214
0.0220363
7.31746
0.0905749
0.0221966
0.102349
0.173618
0.0216711
5.13278
7.51022
0.0890992
0.0220853
3.99921
0.0397271
0.0220135
6.69446
0.0251977
0.0216857
0.0219086
0.0244997
0.0268072
4.63823
11.1481
0.0273003
4.57853
0.0250629
0.0220202
0.0786171
0.0219394
0.512002
0.0216314
0.0220429
0.023218
0.0220102
4.94409
6.16664
0.10967
6.64142
6.30039
0.0284861
0.0219951
0.0220716
0.165589
0.0216177
0.0217476
0.0325823
0.326402
0.129709
0.021586
0.03168
0.0258986
0.0681429
18.2365
0.0215562
0.0215334
0.0221116
0.358513
0.0234939
5.68171
0.0227194
0.0221618
0.0216823
0.0218976
0.0233339
0.0881289
3.8223
4.41199
0.0289193
0.02205
1.31222
0.0217877
0.286158
5.37689
0.0297682
6.97151
4.01936
10.1734
0.0319829
0.0248275
4.40898
0.0245976
0.0313352
0.0609131
0.164642
0.0220391
4.16029
0.0220246
1.35738
0.358339
0.0216619
0.0234817
0.0382187
0.170259
0.0254009
0.0221415
0.0234385
0.0233114
0.0227786
0.848199
0.0221644
3.07148
6.03244
0.022026
0.0245262
0.0266554
0.0220779
3.67738
17.0293
8.14094
3.58129
0.0220309
0.023294
0.0239143
0.0222754
0.109623
0.0254873
0.0222578
0.03529
0.0257441
0.225857
0.0274164
7.44565
0.0232047
0.0225075
0.0482281
0.0499611
0.0417257
0.0219665
17.6068
4.91326
20.3749
6.60816
2.00003
4.52792
4.83209
0.0219733
0.0220266
0.0217222
0.111999
0.0282868
0.0418186
8.58039
0.0217188
0.0216411
0.0220594
0.104032
0.0216149
0.0231503
0.0229924
0.601088
0.0227888
0.0218274
0.0220842
0.0219208
0.0221624
0.0325694
0.108337
0.0313866
0.508021
0.0220338
0.021895
5.54209
5.16933
6.52222
0.213008
0.0453416
0.286754
0.0217881
0.0506718
0.0225169
0.0220844
0.0222909
7.00806
0.0220545
0.0504898
0.610532
0.0217709
0.0218184
0.0261342
0.089465
0.0222715
0.433891
0.021712
0.10285
0.0221345
0.0218283
0.0234067
0.0830498
0.0221368
0.151279
8.20554
0.0954624
5.18768
0.0220474
7.52765
0.156819
0.0220477
0.367497
0.0222747
0.0405504
0.0222243
0.0216606
0.0219512
0.0220764
0.0221213
0.027132
0.0376704
0.0218771
0.0221086
0.0608147
0.0216079
3.91231
0.0221363
0.0252054
0.0249542
5.54064
0.200155
0.0221479
0.0899684
0.0217966
0.0239807
0.0531046
0.216477
0.0295324
0.0222719
0.0571911
0.0698039
0.0447744
0.165351
0.0329998
0.0772689
0.0331958
0.0379564
0.0227323
0.0217217
0.210018
6.97611
0.0230242
0.0220096
17.5044
0.0218057
0.028245
0.0219434
0.058482
0.421736
0.021486
7.79054
0.0232329
0.0221694
0.0787156
0.0218676
0.0399778
3.5413
0.0280589
0.209693
0.0219454
0.0222644
0.0429111
0.0222253
0.0222488
0.0233755
0.0243621
0.0380269
0.0607522
0.0220638
0.0318106
0.0217243
0.0220571
0.0222143
0.0220506
0.487005
0.0216628
0.023177
0.121375
0.0218011
0.0219973
4.93211
0.0222517
14.7316
0.0221027
4.62089
0.104244
0.048422
0.782305
0.0439141
1.48092
0.0218979
0.0992462
0.0241864
0.0217135
0.0218414
0.0231858
0.0246707
0.0219147
0.0410127
0.0218865
0.0224597
18.1838
7.33947
2.48954
0.0222767
0.0453907
5.65899
12.2586
0.0221718
0.023047
1.33384
0.0218006
0.029795
0.504863
4.37392
0.0231798
0.0278651
0.0223769
0.175012
0.0222851
0.0329645
0.262831
0.0221252
0.0217642
3.67799
0.0310819
0.113328
5.14287
0.0521939
0.0223775
0.0218917
0.0218435
6.64076
0.216057
0.237424
0.0396346
0.0220694
5.78135
0.0221167
0.0887501
0.0268351
0.0220355
0.0284469
0.022053
4.53024
5.5758
0.0215139
0.0388012
0.0286848
0.532022
0.0309179
0.0329875
0.111768
0.0249864
0.137866
0.0341258
0.0221189
0.0254411
0.0775061
1.16388
0.0220267
0.205408
0.0321895
0.0344065
0.0222722
7.6575
0.0230055
0.0231312
0.0217738
0.030836
0.029711
0.0493134
0.0221247
0.0223347
0.0432502
25.4007
0.0422784
0.0221597
0.0226786
0.0253778
0.103871
0.0221702
0.0611594
0.738529
0.0388538
4.35781
0.0265698
7.62048
0.159441
0.0219719
0.328521
0.0222385
0.0235088
0.0246846
0.0256267
0.0565843
0.0286926
0.0364154
0.0370982
0.0252848
0.0232841
0.0216111
0.0730938
0.0227969
0.027582
0.19118
0.0239934
0.0274222
0.0219269
4.71956
0.0561668
0.0220631
0.0226003
0.0234254
6.28458
0.0886639
0.0246817
4.08845
0.158336
0.359406
0.051303
0.127308
0.0218666
0.281382
0.0217358
0.0269541
0.671165
3.65578
0.151223
0.518855
0.0221287
7.39865
0.0218632
0.0438119
0.0240993
0.232262
3.46962
0.0227179
0.0220201
0.147462
0.0418271
0.0220122
6.8986
0.0220866
0.0232292
0.0227952
0.0222297
0.0254073
0.0234739
0.022068
0.0289891
0.20624
0.0273062
0.0422053
0.0220085
6.7938
3.66527
0.0219997
0.126935
0.0240572
0.028507
0.314594
0.0219959
0.0225335
0.0269266
5.85805
0.0220233
0.0221819
0.0283129
0.562332
0.0219825
0.0298992
0.0302454
0.186693
0.0323803
0.0283487
0.100909
0.022091
0.106729
0.0216856
6.825
0.025324
0.0220636
0.0230451
0.057741
0.0221492
0.0217833
0.0704055
3.68468
0.0217766
5.94925
0.022186
0.0216716
0.0386169
0.0220257
0.0216585
2.2101
0.0222732
0.027649
0.0771606
9.48143
0.181469
0.0216048
0.0241333
0.0275181
0.0220704
0.0220346
0.0220941
0.198279
0.0221932
0.132332
0.05928
0.0217527
0.0216146
0.024862
0.0594404
0.125221
0.0484302
0.0418937
0.0230471
4.43687
0.0567596
0.0239393
0.0271225
0.0511848
0.0533587
24.8987
0.0261916
3.85218
0.249276
10.5041
0.0225599
0.0218706
0.0285495
0.033958
0.0216671
0.021776
0.0987623
0.0222428
0.0219911
0.0220457
0.0215431
0.0221239
0.0217598
7.89105
0.0220169
0.413341
0.0220779
0.0680338
0.0220459
0.0603915
0.0609654
0.0220334
2.37503
0.0241008
0.0222245
0.026959
0.0217174
0.0288528
0.0217427
3.79881
0.0231111
0.0287178
0.0984014
2.16213
0.0259934
0.137821
0.189964
0.0401744
0.02177
0.0220832
0.0856621
0.0393385
7.5938
0.0216981
10.0406
0.0219728
0.080571
8.49171
0.0284086
0.201992
0.0237351
0.0251658
0.0238001
6.37958
0.0258304
0.0221414
0.0395747
0.0722696
0.0224851
0.0220399
0.022142
8.6201
0.0222513
0.0255065
5.2716
0.0247674
0.0219649
0.0437597
0.0234596
0.251278
0.0216393
0.0220158
0.0218459
0.0261286
0.021893
0.0217863
0.035815
5.19402
0.0219457
0.0221139
0.25029
0.0217137
7.41783
0.022076
8.64976
0.0217786
0.0235984
0.0217929
3.92223
5.07987
0.0276662
0.0605546
0.0269697
0.0218853
0.0221263
3.78772
0.0221363
0.0436125
0.0216794
0.0273379
0.0221891
0.513592
0.0218158
0.0282453
0.0217965
0.294972
0.411245
0.0217098
0.0372526
4.50472
0.0375418
0.230803
0.212608
0.142455
0.0234679
0.0258534
0.0523074
0.2267
0.0216743
0.0260807
0.0275095
0.021878
4.10505
12.7489
0.0384976
0.0750468
0.15116
0.0278369
4.68046
0.021662
0.0217107
0.0586583
4.15617
0.102041
0.087563
0.193911
0.021787
6.97105
4.08588
7.54382
0.0222022
6.50492
11.0892
0.428481
3.37252
4.45483
0.0449617
0.0252279
0.0883658
0.025615
0.021913
0.324581
0.0486703
0.0215962
5.25852
0.0221866
0.0269351
0.0279102
0.0261503
0.216934
0.0330033
7.68795
0.0280055
0.026245
0.258441
7.15366
0.0688069
0.0224566
0.0257473
0.0427032
0.0491315
0.0218144
0.0321618
0.0541927
0.0787493
0.0219343
0.0933466
0.0233993
0.0394726
1.31555
0.140843
0.0232057
0.0883338
6.68081
0.0221268
0.0223967
9.59625
0.163858
0.0228952
0.0227692
0.0220869
0.0553142
0.0226618
3.95704
0.0569347
0.0224547
0.0222231
0.063171
0.0264814
0.159931
6.59117
0.0218237
0.0220266
0.0246536
0.022193
0.0226304
0.0224436
0.0220991
0.0255781
0.0219048
0.0238112
0.0222159
0.0288603
0.224661
0.0222638
1.42072
11.2207
0.0216833
0.189294
0.0861157
0.0604078
0.0225715
0.0483888
0.0234262
0.0721922
0.0241935
0.0224198
0.022209
7.49628
0.0232501
0.212581
0.0225845
0.0220504
0.0220125
0.0536894
0.0219391
0.0309294
0.034338
1.06134
0.0218958
0.142572
0.409101
4.96343
0.0217813
0.0799336
0.79097
0.396519
0.254726
0.022649
0.022053
0.0991953
0.188577
0.223127
0.027548
0.128783
0.0222314
0.0217079
0.0345932
0.0221939
0.0221939
0.0899612
0.0222648
0.0825535
0.0217671
6.63487
2.36442
0.23762
1.2471
4.97749
0.0221545
0.0221437
1.85175
0.0217034
0.0217165
0.0216686
0.0816559
5.48375
7.22092
0.0268645
0.0216887
0.0224485
0.0329626
5.52098
0.0220336
0.226925
6.65068
0.0221877
0.0221823
4.42073
0.0418977
0.022007
0.0220403
2.00693
5.51696
0.0217483
0.0913344
0.0222528
4.88524
1.71642
0.0220232
14.1922
8.14369
0.245574
0.0217613
0.0216767
0.0222441
0.0222868
5.18891
0.0218636
0.150821
0.129059
8.1767
0.0220479
0.0417919
0.154959
0.0324283
1.46313
8.8175
0.0216142
0.022865
0.0229371
0.0705401
4.28476
0.0215366
5.56797
0.0286921
0.0276579
0.0225957
0.0219407
0.137836
0.0295375
7.66187
0.0221938
0.0390828
0.0220243
0.0608342
0.0224454
5.1305
0.243195
0.160091
0.0495731
0.0219294
0.0231014
0.0461053
0.176167
4.72155
3.27975
0.0221484
0.270287
0.083263
8.13803
0.022902
0.0309311
0.028407
0.0218267
0.601259
0.0220648
0.025072
3.63365
6.46672
0.360121
5.68884
0.0258579
0.0305019
0.0216567
6.79301
0.0252111
0.307734
0.021643
0.811733
0.0214935
0.0219894
0.0249561
0.030214
0.0301873
0.021913
4.06792
0.0277792
0.021868
0.0294389
4.11408
0.354405
0.0220432
9.50958
0.0231752
0.0250493
0.0244434
0.021673
0.0411692
0.0219821
0.58503
0.0636774
0.0229647
0.0220293
0.170569
0.0278664
0.021641
0.298739
0.223628
0.10535
0.0215064
0.181067
0.0221423
0.0889685
0.0232768
0.0831915
0.258562
4.23252
0.0341248
5.59488
0.0386273
0.0263273
0.0217863
0.819332
0.080864
0.058471
0.0601184
0.0222433
0.446577
0.0548756
0.169676
0.118139
5.00523
4.0147
0.451433
6.4326
0.0267369
0.0303921
0.0220952
0.0218148
0.0215539
0.0822896
0.0263014
0.0311984
9.17787
0.0219091
0.0218425
0.027041
0.0719853
0.0235946
0.0217607
7.21298
0.0226791
0.0287392
0.0221034
7.24413
0.0276146
2.87426
0.0493205
0.0257586
0.039199
0.0220881
9.44133
0.150085
0.0436147
0.0219703
0.0219027
7.27738
9.08176
3.7934
0.0216946
0.0446807
0.167709
0.0217716
0.0219996
0.0219291
5.50183
0.087501
0.0287125
0.023059
0.0228832
1.53385
0.0612517
0.107736
0.0228406
0.0251263
0.0215341
0.0859896
0.0395567
0.0220124
3.67652
8.98935
5.86141
3.55612
9.70718
7.09488
1.84754
0.0232259
0.0216368
0.425682
5.90372
0.307035
0.0219938
0.0274893
0.0220764
0.02194
0.194837
6.48513
0.036257
0.0219923
0.13988
0.0498753
0.0314882
4.81522
0.280587
0.129585
0.0219083
5.16441
0.198873
0.172004
0.0244648
0.0284626
0.0222288
0.0218486
0.0281589
0.0307236
0.0232247
0.0268778
0.0235608
0.023952
0.108637
4.46299
0.0295745
0.0274052
5.00456
0.0993154
0.022122
0.40957
0.618319
4.82904
0.0293929
0.0218435
0.0242512
0.0241912
0.0282585
0.0216698
0.0330054
0.0243353
0.0285736
0.140141
0.0222303
0.0223382
4.10774
3.95191
7.36938
0.153148
0.0565143
0.0214857
0.0220696
0.0247237
0.0216573
5.97886
0.0220521
0.0222728
0.0216826
3.69721
7.54907
0.0223816
0.0353799
0.0250195
0.0319586
0.0247721
0.0346418
0.0272316
0.0283118
6.84848
0.0230579
5.59096
0.0295422
7.62954
0.024799
0.0219297
0.021784
0.0499728
0.0710332
0.0218079
0.0351379
0.0247807
0.0394199
1.07446
14.4835
0.237306
0.0222726
0.199717
0.0271987
0.0294034
0.0220295
0.0438888
0.0229825
3.76233
1.37736
0.031644
0.0220808
3.89867
0.0271542
4.73275
5.84337
0.110458
0.0232551
0.0669763
0.568025
0.18965
4.55363
0.0390537
0.0218017
0.0297993
0.0216745
4.2081
0.0236454
0.0258925
0.141245
8.09122
0.0217878
0.0219074
7.24902
0.0297166
8.63192
0.0326572
0.02204
0.0295262
0.0966811
0.0419254
0.202806
0.0290417
0.181123
0.0230928
0.0222437
0.0218869
0.142711
0.0226662
0.0881332
0.0220751
0.0218572
0.140299
0.0228968
0.0218393
0.0220294
0.0281929
0.172911
0.0275464
0.0280925
0.0258652
0.0386106
0.0219916
0.0954362
0.0248283
0.0287255
0.0637779
0.0232075
0.0651929
0.0424722
0.0216687
0.0374718
13.2846
3.50193
0.0217844
0.657597
4.716
0.0219312
0.0227182
0.529649
4.73008
0.027874
4.40167
0.153113
0.0216805
0.0447038
0.0215557
0.0230751
0.0380667
0.879743
0.34266
0.118902
0.148521
3.55946
5.03552
0.0220362
4.33156
0.0220437
0.197868
5.1388
0.0220978
0.0220816
3.62385
0.0221582
0.0220875
0.134319
4.39381
0.0992894
0.022875
5.05473
0.0221024
3.87028
4.30166
0.0221893
0.158956
0.429139
5.9241
3.83132
4.19046
3.78353
0.0218531
0.0232342
0.0375539
0.0366711
0.0220831
0.0996541
0.0220431
4.09651
0.127736
0.0456783
0.117416
4.02147
0.125252
0.107773
0.0588753
8.85209
0.20704
0.0226663
0.0215995
0.198355
0.0313327
0.0217049
8.13322
0.0219533
0.199241
0.0221895
5.99118
0.0226673
0.0219636
9.32893
0.0273222
0.0333685
3.85243
0.504978
0.73486
0.0232504
0.0281153
0.0230621
0.0265526
0.0632149
0.026865
0.0222127
1.02111
0.0363554
0.028134
4.21746
0.0278567
0.0331801
0.118816
0.0430147
0.0281089
0.0219582
0.10069
0.0217808
0.0623169
0.150416
5.16118
0.0218546
0.0284988
7.12477
0.0221042
0.0416473
0.0241505
0.0292242
1.44532
0.0357186
0.0234491
4.25634
0.0218677
3.84415
0.0221217
0.0221083
0.0613275
3.81869
0.0274899
0.342935
0.358961
0.0242885
0.0218627
0.129338
0.0307517
8.83218
0.0265047
3.57837
0.0697984
0.0242136
0.0244043
0.0734459
0.0285186
0.0675102
0.0354221
0.0342593
0.0228115
0.021693
0.517914
0.0219961
0.0244365
0.0215719
0.055008
0.0244291
0.0348927
4.54368
0.023166
0.101925
0.0214986
0.0221854
0.0221869
0.0222092
0.0228954
0.0219237
0.0452074
7.70328
0.0343684
0.0291173
0.0225559
0.0218693
0.135853
0.021981
0.209379
0.238301
6.88805
0.0715163
0.0281776
0.0231205
0.0221761
0.028378
0.0866356
0.0312499
5.55868
0.0339109
10.0642
0.0730481
0.0222095
0.0218254
3.54064
0.021903
0.0241591
0.061019
0.149821
0.0220678
5.45443
0.0221784
0.0237437
0.0220803
0.0225132
0.13694
0.0542212
0.0219579
0.0245416
0.034216
0.0291098
0.0331526
0.30986
0.231866
0.142765
0.0672
0.0227291
0.0223063
0.0327792
3.76311
1.17697
4.05743
0.0244971
0.268307
0.0535995
0.0220291
0.0219824
0.0349151
0.0221416
0.0244633
7.20914
0.0219428
0.0217
0.205449
0.175769
0.0288409
0.364614
0.0221498
5.98905
0.0308148
7.52392
0.0290294
0.0219725
3.93221
0.0580542
0.0220314
0.0570849
0.0222524
0.0983907
0.0247578
0.0533619
7.01074
0.0322875
0.38091
0.0219078
10.5723
0.0221375
0.0234167
0.022144
0.0324764
0.0221423
0.0490148
3.89814
0.589871
0.0316706
0.0273914
0.06922
0.021804
0.0218425
0.0220528
0.20013
0.0227287
6.25343
5.06618
0.0875763
0.0222144
0.0876764
0.118604
0.0732341
0.0226767
5.61843
0.021941
0.0214958
0.0219284
0.360287
0.0218273
0.0220017
4.00519
0.0219575
0.0871279
0.084743
0.0216171
4.88903
0.023285
6.07904
0.0217989
0.193889
0.0222578
0.0657252
18.3109
0.0376082
0.0219199
0.0230987
0.236967
0.0244243
0.0880353
0.0247129
0.0238698
0.0908446
0.0265629
0.0217131
25.8375
0.0248563
0.0233363
0.0727504
0.0219473
0.0218049
0.0221884
0.0240448
0.0221221
0.0245904
0.428787
20.4011
0.0892501
8.72645
0.0345547
0.0249797
8.14459
9.85941
0.0224437
9.79241
0.446534
4.16007
0.343541
0.0253659
0.249135
4.19027
18.2758
0.33713
1.96281
0.0393315
0.0722861
0.02802
0.0227754
0.0220678
0.607984
0.0222849
6.97539
0.10175
0.216163
0.0215772
0.0403363
0.0416791
0.0237219
0.0222933
0.0221178
0.101167
0.0221565
0.0217706
0.0268073
8.43162
0.0225031
0.0963725
0.0218111
0.105056
0.0722795
0.0221509
0.0248925
0.0219276
5.89499
4.78491
0.078479
0.936643
0.0291055
0.0478475
0.0221376
0.0271195
0.0220222
0.0220017
0.0222328
2.41387
0.021723
0.0284153
0.382773
0.0253862
0.0244529
0.021988
8.99148
0.0993231
18.5957
5.09057
0.0894241
0.128559
4.54867
0.142693
0.146546
9.64175
0.101907
0.033893
0.290612
7.01357
0.0220476
9.46678
0.095871
3.09919
0.0215949
0.035642
8.71073
0.0222726
6.90119
0.0254677
6.68096
0.0220898
0.0221589
0.0437496
0.167883
0.0229702
0.040321
0.0216874
0.0218291
3.80074
0.65999
13.8508
0.0314813
0.0217
0.0224712
0.0221327
0.0321117
0.76192
4.70416
0.248217
0.264173
0.0260494
0.0219458
0.0219778
6.78409
11.3659
0.139616
0.0263257
0.0234294
0.073054
9.37255
10.6169
0.0214814
0.0219384
6.29304
0.0222966
0.169174
0.0269389
0.0220013
0.0281973
0.0427619
5.25603
6.34178
0.0222018
0.0216949
0.0230703
0.134887
8.13679
0.0222647
0.0789426
5.92106
0.0214927
0.188615
3.89038
16.974
0.0221161
10.6584
6.20021
0.0336996
0.218835
0.0223728
0.272567
0.143036
0.0228624
0.0219153
12.7104
0.209085
0.021718
0.0693771
0.0771483
0.0242649
0.113264
6.16587
3.25874
7.46222
0.023376
0.0236483
0.0220474
5.75496
5.99225
5.92418
7.16125
5.33519
0.02165
0.0282185
0.0220649
0.0221126
0.0239278
0.021952
0.0220579
0.021871
4.149
6.07699
7.76946
0.0489223
0.0904889
0.0360539
0.0218054
0.0219825
5.04308
0.0221374
6.17894
4.04392
0.0221804
0.0217636
4.02958
0.0222557
0.315482
0.0233679
0.0217263
0.0216432
5.32112
0.0216413
8.38525
5.03671
0.0215392
0.0301329
0.0217934
0.022025
0.0216545
0.0774276
0.198408
0.0219559
5.98945
0.302907
0.0232905
0.0217467
0.0224781
0.0225745
0.0222255
0.205908
5.95232
7.28847
0.0269788
13.7769
0.0222723
0.0229248
0.0216957
0.10692
0.0231086
0.829275
0.0218467
4.03331
0.137478
7.01379
0.0775152
0.0218437
0.0312591
0.0218273
5.24404
0.0217631
0.0257631
0.0238534
0.0230495
0.0219709
0.0222505
0.0305136
5.72621
0.022224
0.0222407
0.0224493
0.0304748
0.0834953
0.0221869
8.64956
3.84912
0.0225557
4.88618
7.21012
0.21493
0.789726
0.0215203
0.0226408
0.344062
4.49051
0.0797909
3.74293
4.23038
0.0280926
0.0318031
0.0243699
4.42226
0.0220319
0.0219591
0.600431
0.0641894
8.04474
0.022612
0.0216374
0.0220412
6.80573
0.0396239
0.022874
0.138347
0.0216962
0.0351727
0.0247048
0.0247798
0.0216418
0.0221869
0.0218989
0.0227141
0.794538
2.92315
0.021548
0.0217832
7.63333
0.0219573
0.0538032
0.0261035
0.025596
0.0263668
0.0222855
4.36844
0.0241862
0.0254439
20.3323
0.0464801
0.0228179
0.0246846
0.0220337
0.0222044
13.7726
0.245783
3.70017
0.021888
0.0221521
0.042184
0.0265966
0.022025
0.026656
8.59537
0.024084
0.0309634
0.0242475
0.0608253
0.022121
0.0215801
7.88578
0.234798
0.234651
0.0219446
0.0746417
0.0215028
0.0220157
0.0388842
4.67903
0.0388911
0.0244104
0.0758145
0.0220054
0.0241069
0.0491805
0.608261
0.0219488
0.0216119
0.0225574
0.0230142
0.0231346
0.0219395
0.681288
16.9371
0.0218146
0.0300515
0.022494
0.0215499
4.33884
1.48488
12.1429
0.0422077
0.0224592
0.0333796
7.03275
0.0578083
0.0527784
0.0315502
0.0280582
6.64606
0.100714
0.345224
0.0217423
0.0287451
0.0221574
0.0253475
7.61655
0.021608
0.034464
0.0255251
0.0270075
0.0227164
0.0216566
0.0218624
4.54565
0.0296473
0.0244068
0.0387465
0.0312862
0.284305
0.0288782
0.375374
0.0218877
9.70653
5.54986
0.980976
0.0222645
0.025058
0.0220824
0.0218983
12.1676
0.0299517
10.0225
0.0219824
0.0419077
0.0712615
5.1038
0.0271363
0.021555
2.45036
0.0222851
0.0222844
0.0222949
0.0220295
13.0711
0.0217548
0.0218299
0.0321621
0.0264769
0.103158
0.0876005
0.0319619
5.24302
0.0216369
0.10064
0.0216304
9.92868
0.0287389
0.290756
0.074988
1.39865
0.0560115
9.20405
0.0221658
3.5222
0.0304402
6.92695
0.115101
0.0278959
0.117272
0.022075
13.6562
0.0221915
0.0295945
0.0262826
2.34208
0.0719281
8.56132
0.0292153
0.0220115
6.72846
0.128851
0.0331997
0.0791435
5.9769
9.15232
0.0337613
0.139545
0.0290389
0.0218288
0.0376712
0.142357
0.0545506
22.8123
0.0799611
0.0217221
0.0217245
0.0904023
0.0220838
0.261279
0.058363
0.0220918
3.74935
0.210674
0.190506
0.0750832
0.0217566
0.0280734
0.0255464
8.21996
3.86383
0.0253855
7.02518
0.021759
0.0304764
0.348112
0.0219934
0.0298319
0.0219096
0.0240244
0.022251
0.126163
0.172882
0.029145
0.0275905
0.0216503
0.0858872
0.0217821
0.0217852
0.0311988
0.0219012
0.116451
8.59114
0.442077
5.68385
0.0217333
10.7807
0.0221901
0.036188
0.083979
0.0217248
2.88269
0.0544304
0.0219643
0.0215422
0.0296605
0.0329549
0.122978
0.112434
0.0257546
0.0231467
5.21367
0.0361339
0.118318
0.347032
4.74098
2.31681
10.2503
0.363406
0.0221967
0.0221121
0.0372717
0.0221068
0.038277
0.026283
7.63055
10.2419
6.8521
0.0215793
0.0216857
0.0795448
0.14445
8.91765
0.35263
3.78061
0.0525411
0.0314516
0.354886
0.139877
0.0230297
8.03409
0.0315071
0.0248045
6.77714
0.02769
0.0216693
0.684275
0.430238
0.0225015
0.0863951
0.0225847
2.08658
3.1162
0.252396
0.0220115
0.0216558
0.0673756
0.022013
0.0217321
0.0220164
0.0216874
0.0220214
0.0220285
9.70017
0.0254981
0.0427635
7.47621
0.021877
0.0220367
0.0252231
0.0228354
0.0231313
0.0220454
0.0498266
0.0268647
0.0259653
0.0725528
5.58705
0.0220567
0.0286237
0.022069
0.0220386
0.0215293
0.0220817
7.27223
0.0217753
0.0220287
0.0220952
0.0359764
6.66121
7.08674
9.67005
0.338748
0.0295251
6.03193
2.91151
0.0219382
0.0392825
0.389556
0.122821
0.0221097
0.0235074
0.0283187
0.0371592
0.0220555
0.0274748
0.0551834
0.0417857
0.0216037
0.0388075
0.228042
0.0215505
0.333561
7.29292
0.038875
0.568387
0.0289008
0.0220936
0.0229906
0.0220079
0.149351
9.23028
0.0215947
0.0387356
0.0219544
0.0219745
0.0221352
0.0222857
0.0331124
0.0221727
0.0822849
0.0870857
0.0239079
0.0234651
0.0308377
0.0220495
0.0416678
0.024875