/*--------------------------------*- C++ -*----------------------------------*\
| =========                 |                                                 |
| \\      /  F ield         | OpenFOAM: The Open Source CFD Toolbox           |
|  \\    /   O peration     | Version:  v2012                                 |
|   \\  /    A nd           | Website:  www.openfoam.com                      |
|    \\/     M anipulation  |                                                 |
\*---------------------------------------------------------------------------*/
FoamFile
{
    version     2.0;
    format      ascii;
    class       surfaceVectorField;
    location    "550";
    object      Uf_0;
}
// * * * * * * * * * * * * * * * * * * * * * * * * * * * * * * * * * * * * * //

dimensions      [0 1 -1 0 0 0 0];


internalField   nonuniform List<vector> 
20642
(
(0.195149 -0.0377118 2.50292e-20)
(0.205659 -0.0379912 -3.68491e-20)
(0.223129 -0.0315827 -3.24076e-20)
(1.02112 -0.056391 -1.96733e-21)
(1.02213 -0.0647419 -5.09078e-22)
(1.01117 -0.060753 9.06888e-22)
(1.13358 0.133446 1.21294e-20)
(1.14073 0.146117 4.33362e-20)
(1.09981 0.135648 1.29702e-20)
(1.02615 0.0211262 5.17756e-22)
(1.02554 0.0220133 -7.70859e-22)
(1.02511 0.0208722 1.59607e-21)
(1.0653 0.00144725 -3.96439e-22)
(1.07098 -0.000697689 6.99163e-22)
(1.06543 -0.00451126 1.19947e-21)
(1.01879 -0.0466136 -7.66863e-22)
(1.02672 -0.0467898 -2.52778e-22)
(1.04679 0.0538149 -5.19998e-21)
(1.04478 0.0524482 1.00609e-22)
(1.04483 0.0549095 2.96561e-21)
(0.864832 -0.255127 -1.53051e-21)
(0.857165 -0.294602 -2.31606e-20)
(0.817134 -0.257074 7.72684e-21)
(1.06315 0.0302181 2.73815e-21)
(1.06246 0.0312168 4.14652e-21)
(1.06402 0.0314246 1.22915e-20)
(0.0489776 -0.235844 -2.34871e-20)
(0.124484 -0.289628 -7.56646e-20)
(0.859615 -0.210098 0)
(0.905806 -0.238662 -4.41671e-22)
(1.01519 0.013467 1.03275e-21)
(1.01494 0.0140424 -3.47993e-22)
(1.01571 0.0139168 1.69406e-21)
(1.0089 0.000232093 3.4444e-21)
(1.00909 0.000154203 -8.68331e-22)
(0.632466 -0.213524 3.0629e-21)
(0.650658 -0.174375 5.40765e-21)
(0.634613 -0.10922 -1.0753e-20)
(1.00987 -0.0188742 -2.39978e-22)
(1.01013 -0.0197182 -1.12161e-21)
(1.00897 -0.0190747 -2.99138e-22)
(0.181449 -0.0408075 5.11581e-20)
(0.159977 -0.0468838 3.44439e-20)
(1.00766 -0.000141371 -2.03298e-25)
(1.00758 -0.000172212 -2.54104e-23)
(1.00532 -9.16626e-05 1.88866e-23)
(0.855845 -0.171058 -5.45638e-22)
(0.857794 -0.138447 1.00049e-20)
(0.890125 -0.16363 -2.04007e-20)
(1.2058 0.206964 2.76001e-20)
(1.2171 0.211785 -7.04936e-21)
(1.20607 0.219762 3.86511e-20)
(0.220287 -0.0978118 1.7515e-20)
(0.286141 -0.0758841 6.92537e-21)
(0.261984 -0.0672584 2.51201e-20)
(0.946106 0.0276142 2.02129e-21)
(0.941749 0.0303323 -1.55145e-21)
(0.94217 0.0248755 0)
(1.01794 -0.00159004 2.77542e-22)
(1.01734 -0.00155985 -1.22562e-22)
(1.0182 -0.00197703 1.21971e-22)
(1.08324 0.109481 -1.43469e-21)
(1.08589 0.105861 2.55737e-21)
(1.08731 0.112081 -3.6343e-21)
(1.01848 -0.00150977 2.19762e-22)
(1.01768 -0.00124769 4.98829e-22)
(1.01319 0.0309786 0)
(1.01336 0.0323363 0)
(1.01206 0.0314525 -3.28204e-22)
(0.928377 0.0147218 -3.2017e-21)
(0.933307 0.0180916 -5.50528e-21)
(0.934357 0.0120277 -2.33368e-21)
(1.03507 0.178942 -4.93214e-21)
(1.01182 0.160759 -6.0651e-21)
(0.998913 0.181817 -8.23607e-21)
(0.0410403 -0.193879 6.85189e-20)
(0.888023 -0.043728 4.76935e-21)
(0.893892 -0.032262 -1.13212e-21)
(0.903561 -0.0440539 3.25746e-21)
(1.02246 0.00734051 -3.02916e-23)
(1.02204 0.00828149 -8.23676e-22)
(1.02149 0.00736169 -2.20833e-23)
(0.0356525 -0.159856 1.07949e-20)
(0.0684 -0.205537 3.4783e-20)
(1.15934 0.082827 2.06076e-20)
(1.16367 0.0790974 6.95447e-21)
(1.16358 0.0863423 -1.01389e-20)
(1.01715 0.022347 9.70341e-22)
(1.01692 0.0214395 -1.76146e-22)
(1.01786 0.0217411 -1.32923e-21)
(0.271707 -0.015669 -1.73914e-20)
(0.296759 -0.00886789 -1.34607e-20)
(0.29277 -0.01095 -1.22316e-20)
(1.01691 7.03458e-05 4.94362e-23)
(1.0168 0.000577931 3.81312e-22)
(1.01768 0.000408021 4.5622e-23)
(0.877595 -0.338854 -1.22672e-21)
(0.826403 -0.348628 -1.16488e-21)
(0.992802 0.00984506 2.32638e-22)
(0.992105 0.0114489 0)
(0.990851 0.00975322 0)
(1.00213 -1.91834e-05 1.1541e-22)
(1.0047 5.20485e-05 2.52823e-22)
(1.00173 -3.67676e-05 2.52643e-22)
(1.04881 0.0551107 -1.73916e-22)
(1.04847 0.0526424 -2.09201e-21)
(0.955995 0.0747932 1.00824e-21)
(0.954484 0.0786298 2.13423e-21)
(0.95936 0.0776627 3.85842e-21)
(1.00373 -0.000101719 -9.17389e-24)
(1.00305 -5.00423e-05 -3.8428e-24)
(1.00568 0.000111139 5.32649e-22)
(1.01947 -0.00706145 0)
(1.02016 -0.00700374 -1.84161e-22)
(1.0197 -0.00706202 0)
(1.05587 0.0256516 1.72869e-21)
(1.05453 0.0263805 2.36736e-21)
(1.05455 0.0247841 6.36933e-21)
(1.23371 0.149269 2.17793e-20)
(1.23494 0.140129 1.48859e-20)
(1.24301 0.148731 6.07262e-20)
(1.223 0.150138 -1.25643e-20)
(1.23027 0.160716 -1.38189e-20)
(0.866812 0.281474 0)
(0.881276 0.284984 0)
(0.865959 0.299532 8.12035e-25)
(0.951009 0.0257602 5.83862e-22)
(0.951011 0.0304428 2.15494e-21)
(0.432489 0.260975 -7.19137e-22)
(0.456137 0.245051 -2.1881e-21)
(0.446455 0.272465 5.76864e-20)
(0.672046 0.0354148 -2.24191e-20)
(0.632432 -0.085277 -1.02668e-20)
(0.711477 0.00557464 2.52935e-21)
(1.01653 -0.000201983 8.92737e-23)
(1.01717 -0.000431036 4.8425e-23)
(1.01475 0.0131035 8.21715e-23)
(1.01537 0.0130157 1.53955e-21)
(0.997381 0.2625 5.34182e-21)
(0.984987 0.266621 2.61329e-21)
(0.988014 0.252852 -1.73569e-21)
(0.068867 -0.0425286 3.48272e-21)
(0.105941 -0.0416255 -2.2371e-20)
(0.0690094 -0.0423452 1.45246e-21)
(1.00972 0.00691345 7.37005e-23)
(1.01003 0.00686274 2.45691e-22)
(1.00981 0.00644519 -1.68465e-22)
(1.00919 0.00812457 3.95661e-22)
(1.00957 0.00797185 2.10626e-22)
(1.00959 0.00851004 -5.03588e-23)
(1.00579 0.259412 2.84336e-21)
(1.00421 0.272843 5.26567e-21)
(0.0636588 -0.114213 1.56197e-21)
(1.08017 0.112651 4.46166e-21)
(1.0794 0.106776 3.78702e-21)
(1.01893 -0.00713612 0)
(1.01931 -0.00722387 0)
(0.846525 0.277084 4.01333e-21)
(0.865739 0.263112 -5.81953e-22)
(0.49054 0.540044 -8.95294e-21)
(0.455716 0.537751 -1.4296e-21)
(0.446849 0.545169 -9.3831e-21)
(1.07706 0.0228977 -1.80127e-21)
(1.08215 0.00995595 -8.66669e-22)
(1.06603 0.0109084 -3.23012e-22)
(1.0083 2.22736e-05 4.87624e-22)
(1.00877 0.000105354 8.58124e-23)
(1.0098 0.000166909 7.61328e-25)
(1.01445 0.0303837 -2.03305e-21)
(1.01316 0.0296784 -5.99469e-22)
(0.706468 0.141237 -9.76137e-21)
(0.711361 0.150862 -7.51789e-20)
(0.678653 0.136385 -4.44947e-20)
(1.0321 0.0582973 -8.21783e-23)
(1.03796 0.0533666 -3.93838e-21)
(1.04102 0.0557664 -2.2259e-21)
(0.882777 -0.0577603 1.12622e-20)
(0.876568 -0.0723754 2.81455e-21)
(0.895821 -0.0717941 -5.60766e-21)
(0.930329 -0.322075 -1.72941e-20)
(0.892858 -0.378601 -1.07087e-21)
(0.822766 -0.174548 0)
(0.164535 -0.0368945 -2.57765e-20)
(0.145578 -0.0393442 6.49417e-21)
(0.141112 -0.0397863 -5.75237e-20)
(0.814528 0.14769 0)
(0.835305 0.16054 -1.98988e-20)
(0.78866 0.146717 0)
(0.253078 -0.0196448 -3.06101e-20)
(0.249667 -0.0204226 -4.77122e-21)
(1.02719 0.00966934 0)
(1.02783 0.0101329 -1.12758e-21)
(1.02694 0.0101434 3.68138e-21)
(1.01852 -0.00706902 0)
(1.01853 -0.00696201 0)
(0.937179 0.0333746 -3.26666e-21)
(0.941783 0.0354712 1.1505e-21)
(1.00263 0.0289679 4.50722e-22)
(1.00227 0.0306477 1.95219e-22)
(1.00104 0.0288301 -2.23811e-22)
(1.03951 -0.00648211 1.51953e-22)
(1.04108 -0.0079476 -2.22259e-21)
(1.03784 -0.00840034 -2.48127e-22)
(1.01822 -0.00701 -1.92239e-22)
(1.01857 -0.00727462 -2.53338e-22)
(1.00433 0.0290398 -2.42302e-22)
(1.00318 0.0275496 -3.90222e-22)
(1.0166 0.0227219 -2.37851e-22)
(1.01742 0.0231441 2.98239e-21)
(1.00972 -0.000758925 -1.2316e-22)
(1.01041 -0.00120081 6.30066e-23)
(1.01011 -0.000222794 2.59998e-23)
(1.00684 -0.000157778 2.82563e-24)
(1.007 -0.000164973 7.80129e-24)
(1.00476 -0.00010186 1.34856e-23)
(1.02749 0.0091628 0)
(1.02659 0.00913462 -2.31707e-22)
(0.747913 0.0643168 5.3854e-21)
(0.78781 0.0733421 1.33712e-20)
(0.77799 0.0635184 1.45906e-20)
(1.0109 0.00172564 1.04827e-21)
(1.01092 0.00195677 -1.5474e-22)
(1.01067 0.00180474 -9.14137e-22)
(0.694985 0.0166641 -3.60771e-21)
(0.686411 0.05335 -2.8522e-22)
(0.670261 0.00764937 0)
(1.1547 0.0783499 2.31074e-20)
(1.15411 0.0852179 -9.76995e-22)
(1.01088 0.000971163 -5.14025e-22)
(1.01066 0.000957652 3.78452e-22)
(1.0102 0.000686104 -9.72994e-22)
(0.958224 0.070696 -2.04696e-21)
(0.9533 0.0712514 -3.6055e-22)
(1.00751 -0.000106481 1.3742e-23)
(1.00889 -0.000223642 0)
(1.01067 -0.000231306 0)
(1.01051 -0.00017424 -2.25588e-24)
(1.01106 -0.000195947 0)
(1.05706 0.0267582 -5.8722e-21)
(0.715389 0.145225 6.17973e-21)
(0.659817 0.0650114 0)
(1.01478 0.00187204 8.75955e-24)
(1.0149 0.00209396 -4.15589e-23)
(1.01447 0.00190222 2.55123e-23)
(1.00582 0.0063769 6.44477e-23)
(1.00629 0.00569902 9.32785e-23)
(1.00553 0.005545 2.07897e-22)
(0.872763 -0.0410868 5.74766e-22)
(0.915379 0.231797 -1.2996e-21)
(0.919827 0.212581 -1.4671e-21)
(0.89725 0.221656 -9.23177e-22)
(1.00605 7.85161e-06 -9.98951e-23)
(1.00607 1.50456e-06 1.8565e-23)
(1.00386 -8.76573e-06 4.79843e-23)
(1.01101 0.00114304 -5.14812e-22)
(1.01102 0.000949147 8.1636e-23)
(0.916073 0.147664 -5.37716e-21)
(0.911095 0.140915 3.61039e-21)
(0.90702 0.148798 3.33923e-21)
(1.00727 -6.97189e-05 4.9478e-25)
(1.00719 -9.6136e-05 0)
(1.00525 -2.55772e-05 0)
(1.00749 -8.62771e-05 -1.17856e-23)
(1.0086 -0.000272901 -8.54439e-24)
(1.00929 -0.00122367 -3.25324e-22)
(1.0091 -0.000236873 4.03371e-22)
(1.00823 0.000180382 -6.36006e-24)
(1.00817 0.00015006 2.95202e-23)
(1.00724 0.000104156 -8.13457e-23)
(1.03748 -0.00461787 1.44738e-21)
(1.04031 -0.00355923 6.48143e-22)
(0.747466 -0.0471792 1.22613e-20)
(0.74358 -0.0424122 -8.87236e-21)
(0.713918 -0.0445433 -3.86028e-20)
(0.492054 0.102004 -1.73849e-21)
(0.474624 0.0779875 -1.87715e-20)
(0.474705 0.0794378 2.99243e-21)
(1.06443 0.0317761 1.8919e-20)
(1.08248 0.0369016 -1.91165e-21)
(1.02054 -0.00676453 1.77234e-22)
(1.021 -0.00678189 1.68558e-22)
(1.05456 0.209315 1.91144e-22)
(1.07215 0.174421 2.18581e-22)
(1.01644 0.000506357 -1.23525e-21)
(1.01663 0.000556388 -3.26829e-21)
(0.325297 -0.00128045 -1.60469e-20)
(0.30453 -0.00621008 4.84971e-22)
(0.899088 -0.0218802 7.81791e-24)
(0.886958 -0.0190095 -4.3424e-21)
(0.696183 0.130833 6.91394e-20)
(0.736277 0.146429 4.97682e-20)
(0.996255 0.0281749 -8.28001e-23)
(0.995991 0.0301428 3.60483e-24)
(0.997865 0.0286818 -1.48491e-23)
(1.1951 0.202939 1.47777e-21)
(1.20461 0.195593 1.36568e-21)
(1.00939 0.000219446 5.73392e-24)
(1.01008 0.000361058 1.0666e-22)
(1.00972 0.000267403 1.11228e-23)
(1.21724 0.181541 -1.96453e-21)
(1.21161 0.167558 2.17688e-20)
(1.24376 0.178248 3.72183e-20)
(1.02752 0.00589678 0)
(1.02743 0.00639119 -9.1106e-22)
(1.02685 0.00583973 0)
(1.00805 -0.000231286 6.29555e-23)
(1.00652 -0.000143625 0)
(1.01741 -0.00648474 -1.89036e-22)
(1.01695 -0.00617008 9.72473e-23)
(1.0171 -0.00631345 -1.70296e-22)
(0.871244 -0.0910302 -2.28649e-22)
(0.857376 -0.0711114 -5.2362e-21)
(1.10873 0.23107 -6.47396e-21)
(1.09882 0.233441 2.25187e-20)
(1.1027 0.221578 1.07291e-20)
(0.126728 -0.0406691 5.50234e-21)
(0.150763 -0.0393415 2.16677e-20)
(0.128511 -0.0407364 -3.09821e-20)
(0.725794 0.0659837 5.78629e-21)
(0.717088 0.0593519 1.5512e-20)
(1.01547 0.0298278 -1.9318e-21)
(1.01649 0.0292421 2.95937e-21)
(1.0154 0.0286243 8.38377e-22)
(0.932509 0.0306973 -3.44742e-21)
(0.93288 0.0368243 3.82302e-21)
(1.01309 -0.000534811 -8.55283e-23)
(1.01305 -0.00054704 -3.63683e-22)
(1.01299 -0.00054753 -4.23122e-22)
(1.11726 0.225797 -1.33577e-20)
(1.11639 0.23797 -3.31325e-21)
(1.08235 0.0516419 -1.98136e-21)
(1.08293 0.0538997 6.50908e-22)
(1.08477 0.0519102 -4.35698e-21)
(0.89255 0.127256 -2.09362e-21)
(0.895313 0.135911 -1.4742e-22)
(0.885536 0.132419 9.15553e-21)
(0.492522 -0.0405955 5.90339e-20)
(0.463715 -0.0417953 -5.02724e-21)
(0.466789 -0.0394211 2.25631e-20)
(0.994355 0.0278526 -1.10121e-22)
(0.996173 0.0263121 -2.22436e-22)
(1.18449 0.0934022 -9.76461e-21)
(1.18709 0.0998614 -1.86324e-20)
(1.19264 0.0927917 3.79543e-21)
(1.06595 0.244349 2.65474e-21)
(1.02432 0.234271 -7.28419e-23)
(0.424692 0.477323 -3.67641e-21)
(0.46285 0.492755 7.27181e-22)
(0.464602 0.454695 0)
(0.139183 -0.0388762 0)
(0.141209 -0.0393318 0)
(0.164708 -0.0401155 0)
(0.918385 0.00571943 0)
(0.923821 0.010892 2.20074e-21)
(0.92547 0.00289197 -1.75233e-21)
(1.00213 2.42923e-05 -7.43676e-22)
(0.998502 -0.314165 -1.22064e-20)
(1.02242 -0.32801 1.62406e-20)
(1.01535 -0.367952 1.5488e-20)
(1.01784 -0.00675285 -3.77948e-22)
(1.01795 -0.0068994 1.00852e-22)
(0.743931 -0.0506368 -3.86236e-21)
(0.780035 -0.0476408 7.86325e-21)
(1.01198 0.000802637 -2.61692e-23)
(1.01186 0.000712961 1.03052e-24)
(1.01215 0.000630746 2.85507e-24)
(1.02489 0.00870134 -3.64211e-22)
(1.02535 0.00921236 -9.59934e-23)
(1.02466 0.00924995 2.93361e-21)
(1.02213 -0.000254591 -1.42202e-22)
(1.01974 -0.00155238 2.98864e-22)
(1.02117 -0.00259367 -1.60707e-22)
(0.833374 0.144512 -2.02905e-20)
(0.791157 0.134692 -1.57695e-20)
(0.973638 0.201986 -7.86397e-22)
(0.46619 0.217533 9.2808e-21)
(0.471937 0.193682 1.64347e-20)
(0.46066 0.202268 1.70396e-20)
(1.00959 0.00745759 0)
(1.00931 0.00700521 2.42146e-22)
(0.96019 0.0674039 2.5536e-22)
(0.962067 0.0640288 9.39686e-22)
(0.957722 0.0638283 2.41989e-21)
(1.00784 -0.000143248 -8.82399e-25)
(1.00813 -0.000146796 -9.117e-25)
(1.00953 -0.000172293 -1.86927e-22)
(1.02444 0.00824679 0)
(1.02506 0.00817333 0)
(0.934947 0.237594 -1.90915e-21)
(0.911777 0.249263 -3.4839e-22)
(1.02415 0.00219469 -5.65243e-22)
(1.02556 0.0025559 6.73496e-22)
(1.0247 0.00317405 -5.6769e-22)
(1.00829 0.000169782 -2.1282e-23)
(1.0086 0.000127009 0)
(0.457777 -0.0456407 1.34868e-20)
(0.454069 -0.0481989 2.63917e-20)
(0.430997 -0.0464435 2.03831e-20)
(1.0073 0.000131157 -4.68623e-24)
(1.00724 0.000119966 8.79278e-24)
(1.0052 4.22725e-05 0)
(1.00896 0.000173959 -1.13409e-23)
(1.00824 9.03931e-05 2.24301e-23)
(1.01034 0.00266923 8.77179e-22)
(1.01044 0.00282979 -8.1548e-22)
(1.01029 0.00256788 2.01362e-22)
(0.721488 0.327999 -2.62635e-20)
(0.726194 0.312062 0)
(0.693723 0.309084 0)
(0.985289 -0.00660787 2.25989e-21)
(0.985578 -0.00383098 -9.78566e-22)
(0.987996 -0.00583519 1.89582e-21)
(0.973229 -0.242734 -5.6556e-21)
(0.556611 0.436957 -7.08444e-21)
(0.551117 0.415094 -6.79625e-21)
(0.584043 0.426645 -2.16055e-22)
(0.921451 0.170805 6.69693e-21)
(0.921975 0.160913 2.28352e-21)
(0.911113 0.164898 4.56974e-22)
(0.0707559 -0.0442689 1.53142e-21)
(0.433429 0.414092 5.80584e-20)
(0.462353 0.426108 3.00913e-21)
(0.435221 0.437631 5.52614e-21)
(1.01287 0.000925721 -8.70472e-26)
(1.01303 0.00104395 -1.03883e-24)
(1.01281 0.00102101 -9.55675e-24)
(0.91331 -0.000881759 -2.56226e-21)
(0.911701 0.00908125 -2.18134e-21)
(1.01947 -0.00162063 -6.20818e-22)
(1.02049 -0.00168583 -1.57304e-22)
(1.01994 -0.00207741 -1.44988e-22)
(0.477866 -0.0170275 1.0532e-20)
(0.483152 -0.0198391 2.42531e-20)
(0.449523 -0.0210536 -3.75361e-20)
(1.06244 0.0288982 3.66919e-21)
(0.568601 0.524246 1.05415e-20)
(0.526326 0.5356 -9.08155e-21)
(0.539915 0.513736 -7.06672e-22)
(0.985086 0.167187 1.4716e-22)
(0.990075 0.166347 3.05943e-22)
(0.98729 0.173022 2.4935e-22)
(1.00684 -3.05919e-05 1.47151e-23)
(1.00806 -3.56869e-05 -5.66841e-23)
(1.00656 -8.73149e-06 2.33541e-22)
(1.02707 0.0215667 -6.18809e-21)
(1.02672 0.0205216 3.52565e-21)
(0.97455 0.270827 5.11344e-21)
(0.961009 0.275505 1.84269e-21)
(0.965715 0.261745 -3.06209e-21)
(1.08151 0.0493821 -6.27325e-23)
(1.07987 0.0512728 3.80373e-21)
(0.982526 -0.00736909 9.61299e-22)
(0.985305 -0.0094174 1.07372e-21)
(1.05351 0.026919 2.53447e-21)
(1.05229 0.0260733 3.26718e-21)
(1.05214 0.02759 9.56603e-21)
(1.01894 -0.00132466 2.84606e-22)
(1.01441 0.0127548 1.6467e-22)
(1.01416 0.0131936 3.44523e-22)
(1.02726 0.377283 -8.6469e-21)
(1.0386 0.369333 -4.68548e-21)
(1.04035 0.393663 1.28167e-20)
(1.21878 0.19461 -4.00309e-20)
(1.18466 0.183685 -2.42282e-20)
(0.900082 0.121611 -3.19609e-21)
(0.890486 0.11579 1.19824e-21)
(1.01457 0.0122681 -9.6061e-23)
(1.01399 0.0123519 1.56496e-21)
(1.00908 0.389564 -3.12657e-21)
(1.00832 0.363232 -4.97226e-21)
(1.02352 0.00719934 -5.87749e-24)
(1.02255 0.00630996 -8.69538e-22)
(0.711281 -0.0109528 -9.20337e-21)
(0.728084 0.0245786 -3.18537e-21)
(0.980967 0.161969 -2.02367e-21)
(0.978174 0.168756 -3.8728e-22)
(1.21312 0.149698 5.68262e-21)
(1.21598 0.140437 0)
(1.06555 0.330986 8.63787e-21)
(1.07356 0.319562 0)
(1.05818 0.317441 1.33213e-21)
(0.212259 -0.0384101 -2.99036e-20)
(0.23972 -0.032494 -1.93184e-20)
(0.21821 -0.0417234 1.34341e-21)
(1.01509 0.00183889 -3.19449e-24)
(1.0147 0.00170735 1.65047e-22)
(0.133057 -0.0394155 1.61432e-20)
(0.15462 -0.038456 4.30465e-20)
(0.130307 -0.0401553 -1.37911e-20)
(1.01064 0.0514107 -2.49972e-21)
(1.00871 0.0523935 0)
(1.00909 0.0500321 -5.03736e-22)
(0.522397 -0.0388942 -1.99338e-21)
(0.519253 -0.0422004 4.69356e-20)
(1.01683 0.00104849 -3.23711e-23)
(1.01611 0.000721759 1.1971e-23)
(1.02283 0.00191761 0)
(1.02351 0.00137845 0)
(0.959129 0.02639 -1.45509e-21)
(0.959621 0.0306102 3.4851e-21)
(0.962637 0.0278329 2.09928e-21)
(0.149205 -0.0399749 -1.74552e-20)
(0.148026 -0.0394208 5.44261e-20)
(0.171276 -0.0361491 2.9045e-21)
(0.135281 -0.0396165 0)
(0.109678 -0.0377186 3.07931e-20)
(0.997277 0.00456291 3.70244e-22)
(0.99587 0.00426593 -4.00202e-22)
(0.996911 0.00303515 2.16127e-22)
(1.01453 0.106303 -2.51449e-21)
(0.99721 0.108563 -2.62e-21)
(1.00845 0.0835881 -9.12612e-22)
(0.949249 -0.036235 1.30592e-21)
(0.955234 -0.0406114 1.64334e-21)
(0.955473 -0.0319354 2.85189e-21)
(0.962739 0.0705222 0)
(1.01774 -0.00661614 2.88944e-22)
(0.982831 0.280127 1.05405e-20)
(1.01114 -0.00153921 0)
(1.01089 -0.00211325 4.03275e-22)
(1.01184 -0.000274842 0)
(1.01165 -0.000241659 0)
(1.01182 -0.000184129 0)
(1.10434 0.0130531 -6.01656e-22)
(1.09052 0.0163264 -1.31388e-21)
(1.09187 0.00660361 -2.66068e-22)
(1.11845 0.0204849 -5.26272e-23)
(1.12112 0.00751855 0)
(0.475837 0.232101 -1.2072e-20)
(1.17719 0.0931894 1.11103e-20)
(1.18256 0.0876829 1.28753e-20)
(0.922789 0.018304 -2.58606e-22)
(0.604426 0.153897 -2.10748e-20)
(0.610792 0.167692 -2.27411e-20)
(0.636248 0.172714 -2.17154e-20)
(1.00716 0.000224342 6.16252e-22)
(1.0061 0.000276495 -9.50219e-22)
(1.00777 0.000218085 1.39262e-22)
(1.01649 -0.00129977 0)
(1.01665 -0.00163596 0)
(1.0161 -0.00148889 0)
(1.01685 -0.00111751 0)
(1.0163 -0.000960606 0)
(0.433248 0.390698 -2.02861e-20)
(1.04545 0.358244 2.63455e-21)
(1.05707 0.343221 1.6868e-20)
(1.03687 0.341798 -1.39356e-21)
(0.995151 0.400069 -1.00927e-21)
(0.976982 0.410007 2.81412e-21)
(0.977199 0.383751 -1.5551e-21)
(1.01585 0.00160393 1.06017e-22)
(1.01596 0.00180637 0)
(1.01608 0.00159291 0)
(1.00789 2.00856e-05 6.19578e-23)
(1.00601 -2.91175e-05 -3.47884e-24)
(1.10667 0.25041 2.59229e-21)
(1.07345 0.288658 9.36186e-21)
(0.134844 -0.0393512 -4.69053e-20)
(1.01491 -0.00128296 -2.71878e-23)
(1.01528 -0.00124122 2.34337e-22)
(1.0151 -0.001507 -2.449e-23)
(1.01452 -0.00130726 1.41145e-23)
(1.0147 -0.00109033 1.26742e-24)
(1.00526 -0.000130199 4.83158e-22)
(1.00263 -7.33554e-05 1.12998e-23)
(1.01723 -0.000898579 -1.5125e-24)
(1.01746 -0.00124339 0)
(1.01761 -0.000620999 -2.14629e-22)
(1.01703 -0.000524919 6.66629e-25)
(0.230456 -0.0252311 5.73308e-22)
(0.248298 -0.0207127 -1.85655e-20)
(0.486517 0.243166 0)
(0.483784 0.269133 0)
(0.502374 0.255787 -2.65583e-20)
(1.01486 -0.00220696 -4.48753e-22)
(1.01481 -0.00181771 2.86134e-22)
(1.01431 -0.00168144 0)
(1.01424 0.00186764 4.21926e-25)
(1.01457 0.00200186 3.46017e-23)
(1.01447 0.0017529 -2.69533e-25)
(1.03594 0.198574 9.51223e-22)
(1.02782 0.195821 1.56535e-21)
(1.03394 0.191119 4.80966e-21)
(0.223875 -0.0269157 -2.52995e-20)
(0.206398 -0.0297798 7.19364e-20)
(0.228505 -0.0254975 2.15351e-20)
(1.00855 0.000116239 -1.5178e-23)
(1.00724 0.000106019 0)
(1.00719 9.48237e-05 0)
(1.01564 0.00165215 2.5689e-21)
(1.01574 0.00144839 1.97629e-21)
(1.01667 0.134561 7.66422e-22)
(1.04942 0.113857 -1.41594e-21)
(0.742192 -0.0545179 -1.02253e-20)
(0.739556 -0.0585585 2.49698e-21)
(0.774118 -0.0563595 0)
(1.05919 0.371414 -1.73224e-20)
(0.599191 0.142891 3.04462e-20)
(0.574572 0.13507 -2.03964e-20)
(0.959121 0.197166 7.83078e-23)
(0.954726 0.190541 -1.1657e-22)
(0.950395 0.197738 -1.16929e-22)
(1.01185 0.00094478 1.87599e-24)
(1.01209 0.00084169 -1.18151e-22)
(0.492047 0.413727 -2.5488e-20)
(0.49435 0.437079 -2.63449e-20)
(1.04321 0.202576 -3.19431e-21)
(1.03561 0.207856 -5.01878e-21)
(0.903521 -0.0142576 5.51284e-21)
(0.909132 -0.0245702 -1.29226e-21)
(1.14372 0.154184 -6.91593e-21)
(1.14671 0.16103 -5.86775e-21)
(1.15228 0.154628 3.1348e-21)
(0.998549 0.00469068 -7.93422e-22)
(0.997707 0.00591321 7.90475e-22)
(0.490736 0.219461 0)
(1.02741 0.00684369 -1.82152e-21)
(1.02687 0.00677222 -9.39416e-22)
(1.02735 0.0073194 7.05752e-22)
(0.986657 0.103204 -5.12802e-22)
(0.984251 0.104998 -5.02106e-22)
(0.988204 0.105953 4.09918e-22)
(0.9943 0.162866 0)
(0.999553 0.158494 1.20376e-21)
(0.992831 0.156986 8.33739e-22)
(1.0162 -0.00333738 5.81026e-23)
(1.01542 -0.00272844 -3.02318e-22)
(1.01615 -0.00291266 3.52034e-22)
(1.00309 2.05834e-05 -3.26076e-22)
(1.01559 0.0311245 -8.26897e-22)
(1.05122 0.0201613 3.76177e-22)
(1.04632 0.0176708 7.27264e-22)
(1.0466 0.0227274 1.28544e-21)
(1.01544 0.00335224 -9.54622e-23)
(1.01604 0.00354978 -2.54123e-22)
(1.01586 0.00390346 2.77984e-22)
(0.193704 -0.036757 -1.91277e-20)
(0.174558 -0.0374181 2.56732e-21)
(0.172284 -0.037766 0)
(0.630724 -0.408915 -4.83601e-21)
(0.624917 -0.440023 8.52063e-22)
(0.604299 -0.412654 -4.68174e-21)
(1.01575 -0.00523695 -1.12783e-22)
(1.01528 -0.00477986 0)
(1.01552 -0.00502914 -5.29586e-23)
(1.0143 -0.00148964 -2.0456e-23)
(1.01416 -0.00125111 1.04625e-22)
(1.02643 0.00179101 4.19174e-22)
(1.02715 0.00284932 1.42432e-21)
(1.01442 -0.00172254 -7.30334e-24)
(1.01407 -0.00162369 -2.93177e-23)
(1.02807 0.00688679 9.54213e-22)
(1.01221 0.000336861 -2.0977e-23)
(1.00839 0.000224033 -2.18534e-21)
(1.03725 0.0973722 -2.26947e-21)
(1.03885 0.10095 -4.82369e-22)
(1.03493 0.100863 3.67739e-21)
(1.01625 -0.00566547 -1.67335e-22)
(1.01597 -0.00547975 -9.60676e-23)
(0.168633 -0.039976 -8.78837e-21)
(0.190575 -0.041123 -9.9877e-21)
(0.507318 0.127351 2.35105e-20)
(0.514544 0.123185 2.43098e-20)
(1.01345 0.009071 -1.35973e-22)
(1.01382 0.00897772 9.05576e-22)
(1.01345 0.00868336 4.00308e-22)
(1.04062 0.00943257 -1.36e-21)
(1.0445 0.00983608 -2.03888e-21)
(1.04301 0.00681329 -1.06424e-21)
(0.829964 0.272408 -2.90628e-21)
(0.830237 0.252381 8.40867e-23)
(0.808939 0.264573 -6.41358e-21)
(1.01555 0.00356086 6.6661e-23)
(1.01553 0.00391832 -5.89946e-23)
(1.01515 0.00353243 1.18591e-23)
(0.904608 0.131015 0)
(0.908853 0.136029 1.45951e-21)
(0.909902 0.128085 -2.16417e-21)
(0.216089 -0.0351405 -1.92379e-20)
(0.213455 -0.0362429 5.25247e-21)
(1.01552 0.00324652 1.22634e-23)
(1.01598 0.00360495 4.11632e-23)
(0.18626 -0.0331785 4.96702e-20)
(0.181033 -0.0342835 -2.52697e-20)
(1.01493 0.00297243 -1.29488e-22)
(1.01503 0.00285176 0)
(0.758214 0.348512 -4.31461e-20)
(0.723571 0.347628 -2.31307e-22)
(1.00686 -4.92582e-05 -2.27218e-23)
(1.00492 -1.97596e-05 -1.53992e-23)
(1.00991 -0.0170067 2.11337e-22)
(1.01104 -0.0171763 2.11355e-22)
(1.01023 -0.0159439 -5.64145e-22)
(1.01683 -0.00385198 -2.30143e-22)
(1.01603 -0.00370538 5.52651e-22)
(1.01242 0.000193292 -4.834e-24)
(1.01236 0.000112306 -4.13478e-23)
(1.01211 0.000230474 -7.82652e-23)
(1.19622 0.317006 -7.11213e-21)
(1.19218 0.301872 3.00721e-20)
(1.20995 0.308795 1.24816e-23)
(1.00652 1.90494e-05 0)
(1.00636 -9.11005e-06 3.32004e-23)
(1.00407 1.38183e-06 4.67427e-23)
(0.920278 0.183254 -9.49331e-22)
(0.932605 0.175014 2.2171e-22)
(0.996455 0.060428 -1.47687e-22)
(0.993798 0.0614544 -5.07296e-22)
(0.994874 0.0583994 -3.34185e-22)
(1.02485 0.00013418 -1.01707e-21)
(1.02279 0.00266392 0)
(0.966017 0.0921076 -1.55056e-21)
(0.974997 0.10766 -3.50266e-21)
(0.959795 0.108072 -4.42876e-21)
(0.144633 -0.0388502 2.00385e-20)
(1.00955 0.000155381 -1.3095e-22)
(1.00944 0.000184918 -2.73761e-22)
(1.06156 0.137968 -6.57253e-21)
(1.06573 0.141991 -6.08386e-21)
(1.06723 0.135785 -6.68382e-22)
(1.05907 0.0129531 4.96286e-22)
(1.05546 0.0168639 3.76072e-22)
(1.05352 0.0110586 0)
(0.992759 0.0274232 -6.12478e-23)
(0.990902 0.0267146 3.73334e-22)
(0.992898 0.0253352 1.71357e-23)
(1.0633 0.007232 4.84338e-22)
(1.05908 0.0023139 4.08269e-22)
(1.00569 0.0290321 1.3573e-23)
(1.00531 0.0305469 -5.25434e-23)
(1.01503 0.00229163 1.13275e-22)
(1.01507 0.00248971 -1.25635e-22)
(1.01466 0.00221854 -4.14166e-24)
(1.00778 -2.95652e-05 -3.4234e-23)
(1.00646 1.10756e-05 -2.73983e-24)
(0.946892 0.245089 0)
(0.943336 0.257556 0)
(0.956957 0.252855 -2.07679e-21)
(0.949807 0.0298991 -1.9718e-21)
(0.93949 0.0293303 -1.4693e-21)
(0.946852 0.0201445 -2.38276e-21)
(0.989985 0.100909 -7.74277e-23)
(0.985775 0.100086 -9.66473e-23)
(1.00712 0.0290224 7.10538e-22)
(1.00606 0.0278606 7.48824e-23)
(1.01548 0.0016494 5.20593e-22)
(1.0154 0.00145457 -3.75106e-21)
(1.01527 0.00163175 -9.9919e-22)
(0.461564 -0.0438369 -2.5364e-20)
(0.486051 -0.0456197 -2.24823e-20)
(0.144951 -0.0417858 -2.94958e-20)
(0.11986 -0.042564 -5.42916e-20)
(1.01307 -0.000470212 0)
(1.01309 -0.000408451 0)
(1.01295 -0.000404099 0)
(1.00807 -0.019026 -2.32655e-23)
(1.00895 -0.0207166 -1.43049e-21)
(1.00948 -0.0194333 -8.4408e-23)
(0.992753 0.0293189 -2.87408e-22)
(1.14393 0.131896 1.04605e-20)
(1.13534 0.159651 8.44583e-21)
(1.15134 0.12645 6.34641e-21)
(1.26682 0.0465728 -3.32721e-21)
(1.27711 0.0433226 -4.56522e-20)
(1.26477 0.0372498 -2.80532e-20)
(0.490318 0.0893626 4.87972e-21)
(0.46174 0.0637764 2.10666e-20)
(0.470916 0.0714548 2.98748e-20)
(0.591154 0.534548 1.54418e-20)
(0.607479 0.516999 1.27251e-21)
(1.02944 0.0457524 4.47658e-23)
(1.03418 0.049908 1.56825e-21)
(1.0278 0.0511652 4.64291e-23)
(0.899203 0.145156 4.47669e-21)
(0.904387 0.139181 0)
(1.03758 0.00861698 1.0791e-21)
(1.0383 0.0115421 7.31717e-22)
(0.825642 0.0828796 1.94776e-20)
(0.796835 0.0836257 -6.86263e-21)
(1.1285 0.138261 -3.29244e-23)
(1.15064 0.0914538 -1.3978e-21)
(1.11973 0.121595 -1.91365e-20)
(1.1585 0.129425 -1.37782e-20)
(1.01211 0.000448278 -1.75653e-21)
(1.008 8.3019e-05 -1.60358e-21)
(1.00987 -0.0180258 -2.34674e-22)
(1.01076 -0.0190102 1.20739e-21)
(0.995292 0.147334 5.24438e-22)
(1.02298 -0.000858515 0)
(1.02204 -0.00122172 0)
(1.02321 -0.0014896 0)
(1.0204 -0.076729 -6.08459e-22)
(1.03311 -0.0714736 -1.98042e-22)
(1.20409 0.149244 -3.10574e-22)
(1.21003 0.15934 5.33445e-21)
(1.00812 -0.000112 4.733e-24)
(1.0078 -0.000104052 1.26896e-23)
(1.00574 -8.81626e-05 5.05436e-23)
(0.501666 -0.012738 2.02568e-20)
(0.469425 -0.014632 -2.48885e-22)
(1.01092 0.00130663 -2.80275e-22)
(1.01087 0.00154831 1.19914e-21)
(1.01071 0.00139235 8.23388e-22)
(1.10642 0.0386284 1.35614e-22)
(1.10899 0.0370288 -1.57966e-21)
(1.01206 0.00460913 -1.70915e-22)
(1.01177 0.00366841 4.50032e-23)
(1.01153 0.00431205 6.09341e-23)
(0.163734 -0.133611 -4.22021e-21)
(0.137739 -0.105635 1.62175e-20)
(1.00982 -0.000359695 -4.58039e-24)
(1.00981 -0.000312947 1.34204e-23)
(1.0097 -0.00032559 -2.31739e-23)
(0.99268 0.0992396 -2.28379e-22)
(0.991939 0.0961036 3.14936e-22)
(0.995371 0.0974084 -1.87699e-22)
(0.941798 -0.0387287 8.34708e-23)
(0.9446 -0.0300872 -4.77425e-21)
(1.02549 0.0414447 -6.03871e-24)
(1.02893 0.0408423 0)
(1.00958 -4.28333e-05 -2.01319e-22)
(1.00858 -6.21677e-05 2.06876e-22)
(1.15677 0.149019 1.60387e-20)
(1.16162 0.143324 -1.24906e-20)
(1.15379 0.142102 7.99284e-21)
(0.764642 -0.028061 1.0956e-20)
(0.799424 -0.0244969 2.82113e-20)
(0.768399 -0.0222712 -4.35009e-21)
(1.00648 0.00763155 6.4963e-23)
(1.00609 0.00700775 9.81638e-23)
(1.00686 0.0070159 2.51564e-22)
(1.02383 -0.000440645 0)
(1.02253 -0.000323899 -6.56258e-22)
(0.346227 0.0026755 -4.42097e-22)
(0.354094 0.00646458 -1.5537e-20)
(0.755241 -0.0363181 -2.0664e-20)
(0.761046 -0.0324038 -3.70926e-21)
(0.791779 -0.0354159 -1.57312e-21)
(0.78767 0.520858 -1.59964e-20)
(0.811392 0.51336 -1.4323e-20)
(0.771283 0.514947 1.08494e-20)
(0.61939 -0.242057 4.40905e-21)
(0.627795 -0.306234 -1.23456e-20)
(1.01551 0.002911 3.48307e-23)
(1.01509 0.0029285 -4.36116e-23)
(1.0128 -0.000713984 1.03424e-22)
(1.01284 -0.000380132 1.04806e-22)
(1.01236 -0.000123878 -5.77311e-23)
(0.737146 -0.0618676 4.51398e-21)
(0.73531 -0.0649902 2.03043e-21)
(0.768802 -0.0639314 -1.76585e-20)
(0.90191 0.152563 7.81854e-21)
(0.89293 0.150073 4.74432e-22)
(1.01598 0.00289508 2.04349e-23)
(1.01554 0.00255352 1.82446e-23)
(1.06601 0.0136938 2.55512e-21)
(1.01158 0.0104299 -7.72565e-22)
(1.01132 0.0108024 7.52899e-23)
(1.0112 0.0102843 2.97723e-23)
(0.895774 0.0580244 7.76073e-21)
(0.887932 0.0591186 3.94912e-22)
(0.893155 0.0662758 2.71848e-21)
(0.993574 0.102196 0)
(1.07136 0.28343 -6.73933e-21)
(1.07899 0.273348 0)
(1.06662 0.271813 5.08041e-21)
(0.934075 0.156186 1.65341e-21)
(0.938604 0.152484 1.30652e-21)
(0.940377 0.158186 -7.92992e-22)
(0.902244 0.124909 7.50927e-23)
(0.89826 0.133315 -2.34888e-21)
(1.10629 0.0466079 0)
(1.10631 0.0489944 -1.01396e-20)
(1.10902 0.0471552 0)
(0.296244 -0.0106828 2.10822e-21)
(0.270133 -0.018939 -9.50137e-22)
(0.2873 -0.0121222 2.08784e-21)
(1.01317 -0.000506419 4.98389e-22)
(1.01313 -0.000523606 2.93258e-22)
(1.00606 0.0082777 3.48069e-23)
(1.00688 0.00825547 0)
(1.07614 0.0017876 -8.0628e-22)
(1.07629 -0.00513597 1.25988e-21)
(1.22258 0.297125 -2.79319e-20)
(1.23063 0.284518 6.07537e-20)
(1.20561 0.290835 -4.42301e-21)
(1.00744 1.88262e-05 -7.4881e-25)
(1.00529 9.90311e-06 -2.99351e-23)
(1.00766 5.2454e-06 1.06589e-23)
(0.177846 -0.0453556 -5.91593e-21)
(1.10628 0.0438381 -1.08909e-21)
(1.10373 0.0457052 6.54493e-21)
(0.920457 -0.0330674 5.93188e-21)
(0.951791 -0.0284476 1.2226e-21)
(1.00879 0.00783656 1.98404e-23)
(1.00882 0.00840674 1.97053e-22)
(0.916026 0.153413 -1.71117e-21)
(0.909087 0.156216 3.2848e-21)
(0.916919 0.160838 -3.86596e-21)
(1.0057 -0.0192262 -5.44832e-22)
(1.00818 -0.0173161 8.49996e-23)
(0.75771 0.214782 5.88792e-21)
(0.790731 0.254412 7.07644e-21)
(0.751679 0.215914 0)
(1.01923 -0.0082637 3.30477e-22)
(1.01933 -0.00771178 1.63851e-22)
(1.01918 -0.00797824 -2.03487e-22)
(1.01293 0.416184 -5.04508e-21)