/*--------------------------------*- C++ -*----------------------------------*\
| =========                 |                                                 |
| \\      /  F ield         | OpenFOAM: The Open Source CFD Toolbox           |
|  \\    /   O peration     | Version:  v2012                                 |
|   \\  /    A nd           | Website:  www.openfoam.com                      |
|    \\/     M anipulation  |                                                 |
\*---------------------------------------------------------------------------*/
FoamFile
{
    version     2.0;
    format      ascii;
    class       volScalarField;
    location    "350";
    object      omega;
}
// * * * * * * * * * * * * * * * * * * * * * * * * * * * * * * * * * * * * * //

dimensions      [0 0 -1 0 0 0 0];


internalField   nonuniform List<scalar> 
13917
(
0.0326172
0.0220014
4.31276
0.0223391
0.0221138
0.446826
4.36813
4.30236
5.54195
0.0484041
0.0856609
0.0405489
0.022369
16.1603
0.025178
0.024133
0.022105
0.0352764
0.0398316
0.022111
0.0222663
4.3548
0.0220882
3.96575
0.0220097
4.10449
0.0415988
0.0524421
0.54274
0.0630191
0.0335302
0.0250877
0.0352923
0.0259134
0.0220339
0.203441
0.0220972
4.34589
0.0230091
6.14987
0.021877
0.0222856
0.0215743
0.0778438
0.0218499
0.027561
0.0345906
0.043014
2.80866
0.0220169
0.0236452
0.0224043
4.53718
0.0262079
0.0221229
0.0238367
0.0847852
0.0220034
0.0231515
0.0218323
7.58898
0.0219997
22.7843
0.0220993
0.41741
3.46734
0.0221163
0.022075
0.0890485
0.0311769
0.022121
5.02614
5.34564
0.0220149
2.83355
0.0471201
6.0324
0.0221248
3.86051
0.0222359
0.0222032
0.0221229
0.37501
4.41428
9.47977
0.0220756
0.022178
2.84312
0.0235224
0.021565
5.08069
0.0589537
0.0218017
0.0228198
3.26697
0.389184
0.0657906
0.0401718
0.076838
0.108055
0.0218052
0.0328197
0.0795426
0.0222575
0.0217677
4.98997
0.340372
0.0445697
0.0221022
0.0361076
6.67684
5.7486
0.0500138
5.09706
0.0230643
2.97546
0.022002
1.58476
5.27479
0.0261428
0.0222734
0.0878463
4.73508
0.0494292
0.021971
0.0226905
0.0218563
0.0219781
0.0216009
0.426407
3.8491
0.0229726
0.0218631
0.0222739
0.298656
3.92624
0.032944
0.11184
0.0221099
0.0259698
0.169125
0.0217106
0.0226032
0.094914
0.0220755
2.06241
0.567817
0.0223477
0.0216958
0.0255235
0.0353152
3.06931
0.0502818
0.0365781
0.0242158
11.8403
0.0303076
0.237426
6.93846
0.294633
0.0240963
0.0423692
0.0222356
0.0631631
0.0491531
0.0753425
0.0222481
0.0373026
0.0217777
0.0338119
0.0364481
7.2707
0.0542269
0.0223269
0.737927
0.040051
3.87471
1.93662
1.63496
0.0218696
0.0609436
0.0342101
0.0217035
0.0221687
0.0288587
4.07723
0.166684
15.5338
0.0278104
0.0695009
0.178169
10.9682
0.165909
0.0220999
0.119417
0.0402752
0.0221606
0.0218069
0.173925
1.90318
0.0232981
0.0220327
0.0350075
0.0348046
5.4619
0.230687
0.0220362
0.0220161
0.0392643
4.16643
0.0224968
4.42748
6.86502
0.069722
0.0217766
0.497748
0.0353295
6.79708
0.0219513
4.57566
0.0218699
0.0569928
0.0218759
4.54878
5.11624
0.0242985
0.886205
0.0243364
0.0217806
0.200878
0.0530732
0.0276095
3.8622
8.2833
0.021763
0.0253409
5.24834
7.70985
0.0222277
0.0219407
5.06255
0.0728053
0.0222667
0.150821
0.0566813
0.0413538
0.0299253
0.0222276
0.0403732
7.41028
0.0217119
0.0751428
0.136339
0.0218416
0.0219993
0.0417236
3.57931
0.0480872
0.0290749
0.0252332
0.0222712
6.81466
1.91101
0.17991
0.0217901
5.59737
7.37671
0.232093
3.82361
0.0495522
0.0222138
0.0219294
0.0345629
4.68344
0.0656592
0.0230106
0.254601
0.0292861
0.0215962
0.530871
0.0220874
1.03692
0.0231342
0.022262
0.0256354
0.036385
0.0428778
0.155833
0.029976
0.0217774
0.182846
3.69918
3.50553
0.0219537
0.23455
0.0221783
0.0217734
0.0220093
0.856695
0.0221051
0.0604662
0.0295541
0.0217674
0.0351257
0.0224911
2.52141
0.0391064
0.0549609
0.021709
0.0219904
6.5341
5.69344
0.021995
0.0219041
0.472976
0.0218465
5.37586
0.0217102
4.62701
0.021885
0.265527
0.0259249
2.98654
0.0238089
0.262373
0.272492
0.02564
0.0723918
0.388923
0.0221636
4.04666
0.12501
6.12804
0.0248681
6.41903
0.0256028
9.2928
0.23214
0.0898803
0.0882995
4.46723
0.022216
0.0373086
7.14049
0.0221579
0.0229826
6.57983
0.234898
0.0222492
0.148303
0.524767
0.0218505
5.89741
0.181429
0.0220806
0.0218762
0.0221858
0.0216897
0.178009
1.21076
0.710688
6.96505
0.0220094
0.0824551
7.34791
0.0292202
4.41504
4.67769
5.40089
0.0217525
0.16771
0.0218549
3.08831
0.0218341
3.69452
0.0568755
0.0227293
0.0221977
0.0376853
0.064535
0.0448423
10.5786
8.41648
8.75132
0.04201
0.0463581
0.0219492
8.53246
4.26854
0.021997
0.221533
0.0220428
0.1473
0.0218838
0.0222261
0.0225564
3.51306
0.0225438
3.3466
15.7691
0.0773372
0.451739
0.0221474
0.419224
0.393514
0.0220318
0.23091
0.0221352
0.0220272
0.063275
0.0222616
0.0220168
0.0218505
0.15567
0.0222471
5.57683
3.64224
6.73396
0.166228
3.37679
6.64084
0.0289884
0.0220158
0.092013
0.0229247
0.0259638
0.0220916
1.74731
4.26341
3.56864
0.0241685
0.0618027
0.0246422
0.0231706
0.0443918
0.0225022
0.173625
0.0220838
0.0220958
5.59076
3.83018
3.85006
0.086602
7.88964
4.09287
6.91811
6.10725
0.0216286
0.0366856
0.0225265
0.0220434
0.200161
0.0351481
0.0217899
0.0414523
0.0282891
5.91433
0.0220272
0.0641201
23.3783
0.389796
4.34769
0.0222546
0.0220056
0.0220621
0.0305728
0.0217548
3.91674
0.558567
0.0297256
10.6372
0.023782
0.0646048
7.42882
0.571746
0.0746354
0.175023
0.0640165
0.041519
0.086229
0.0291857
0.0877107
0.455723
0.031553
0.0481385
0.0217757
0.256184
0.0239463
0.0215966
0.0295204
0.0221618
6.0681
5.13904
0.0218457
0.0216075
3.91866
8.0521
0.0222618
5.87163
0.0220802
0.129232
0.0218585
5.67968
0.249494
0.025497
0.0220099
3.38642
0.140912
7.86732
0.0222693
6.56056
2.60685
0.634289
0.0216034
8.04902
6.79353
0.0292022
0.0218687
0.0221266
0.0474463
0.160155
0.0217427
0.0218844
0.0219554
0.0219494
5.84387
0.202083
0.0289697
0.161022
0.021944
0.0218133
0.0607368
7.05759
0.0267755
0.0217829
0.022023
0.0220836
0.564231
11.7805
0.0221724
0.0220776
0.166628
0.0289304
0.0259222
0.022006
0.0226323
0.024774
0.0470923
0.282498
0.166006
0.0927183
0.056733
0.232906
0.0541894
0.0219653
6.32706
0.0220878
0.0231481
0.0226012
0.249506
0.0629245
0.0218158
0.382109
0.0692088
26.6689
0.0569265
0.0341818
0.0289916
0.0221896
4.70345
0.275866
4.72243
0.0220383
0.024951
0.160703
4.74931
24.1616
0.0418301
0.096636
0.0240715
0.0229239
0.0220125
0.0499555
0.0828478
0.0222358
0.0348388
0.135269
4.77154
7.35243
0.0231156
0.0626309
0.223232
0.0263886
0.022396
3.7356
2.26332
3.24442
0.147427
0.0216133
5.85397
0.0462438
0.0218387
0.026332
0.0448108
0.0338215
0.0617147
3.90843
0.0840492
0.0274318
4.84383
0.0223142
7.1548
0.0222364
0.0221655
0.228958
2.26325
0.570782
0.022304
0.0222773
0.0220787
0.02965
3.10403
0.0715012
0.0229963
0.0704441
0.0369159
0.0218608
0.929998
0.0696031
0.186589
0.021929
0.0817014
0.0221607
20.0868
0.0493126
0.0627211
0.0251065
0.0218743
0.0216219
0.0218702
0.0959945
0.0279755
0.149733
7.38403
0.0368402
0.0218602
0.0826643
0.593375
0.214282
0.0217033
0.0270281
0.021893
0.0242293
0.0232252
6.82331
0.0222278
1.58437
0.0241326
0.0854956
0.0604457
5.43803
0.0645274
0.0220993
4.88262
12.8543
0.0219612
0.0225701
0.248375
0.127813
0.0653422
0.0222376
0.0220244
0.210417
0.0227783
0.0444574
0.0400964
0.021622
0.0347494
4.25639
0.0216918
0.022114
0.0219756
5.46837
0.0222653
0.0239409
6.93384
0.0229508
1.98919
0.024275
0.035983
0.0219679
0.0435886
0.0220186
0.0412431
0.0218801
0.0671849
0.0220808
26.3441
2.96251
7.10825
0.0219896
0.0222061
0.0510688
0.0371548
5.02831
6.41295
0.0350505
0.022037
0.151461
0.612451
0.186411
0.138708
0.0333309
3.76278
0.0326505
0.0286273
0.0807364
0.154225
0.0347134
1.00975
0.0346359
0.0223229
0.0467867
0.0256599
0.0216353
0.0241566
0.0358736
0.025248
0.022027
0.0219142
0.0369214
0.0222938
0.0451795
0.0220376
0.0220584
0.0222731
0.0225977
0.0215268
0.0240002
0.0219962
5.77993
0.0399506
0.398568
0.0217802
0.0222465
0.0457193
0.0420111
0.022813
0.833584
0.0596735
0.793338
0.0241749
0.0688443
0.0219517
0.0222683
0.0219317
0.0225162
8.67727
0.0222545
0.282708
0.0241554
7.02846
0.0440392
0.0600978
0.0843119
0.0216518
0.0222909
0.0406148
0.0220677
0.0223017
0.456204
0.0223776
0.0221847
0.0244539
0.0219352
0.0216527
0.0251845
0.02881
7.73046
0.0291418
0.0216904
0.0218581
4.91554
0.0940429
0.0220811
0.0220334
0.623388
0.244131
8.73881
0.0340788
0.0223327
0.021774
0.0216412
0.0320804
0.0295952
0.133938
0.0252785
4.0752
0.022044
0.0233566
9.36214
0.0220487
0.0239838
0.0219406
0.0220795
0.03537
0.0435487
0.0220239
2.04865
4.19975
0.0607178
0.02196
0.021564
0.0683347
0.279114
0.0222612
0.210239
0.0215664
0.0337711
0.0216068
0.0216589
0.168003
0.0217778
0.842106
0.0308309
0.022273
0.0216019
0.0221097
0.0218795
0.022081
4.23228
0.0216825
0.0216763
5.61525
3.6084
0.0279465
0.0364061
0.0426125
0.0230497
0.0217223
0.0278081
5.54146
0.0695839
0.0221298
0.0219859
6.19164
0.0272948
7.8365
0.0222659
0.022916
6.65136
0.0261599
0.0220493
9.07687
1.80528
0.0218773
0.0749986
0.0219289
0.0217686
0.0217667
5.64541
0.0215215
0.0216853
0.0217159
1.95535
0.0227617
0.128177
0.065376
0.0216477
0.0329032
0.0221726
7.22469
0.0219557
0.0216883
0.0221848
0.0706729
0.0221777
0.0839455
5.69653
3.6621
0.026566
0.176961
6.63816
0.0219824
6.81464
10.6218
6.45053
3.40795
5.6806
31.7155
0.0783612
0.0221409
3.86604
0.0261609
4.28197
0.0216036
0.0217948
0.0220867
0.0221657
0.0233343
0.0303201
4.8587
0.0217881
0.0220808
7.40588
0.202834
0.0221121
0.0384467
0.0252085
0.0218863
2.80384
0.0409231
0.0235637
0.0227355
5.69125
7.86664
1.32807
0.0216
0.142381
0.068671
6.59207
5.63422
0.0532926
0.0218513
0.021979
0.0220457
0.0215007
0.0226371
0.0216239
0.0248251
0.0321308
11.3596
0.0714571
0.0216932
0.0671666
6.99198
0.0333815
0.0223138
6.75833
0.0217615
0.0222453
0.0375724
12.9598
0.0221804
0.0219296
4.49126
0.144643
0.211037
0.0606834
0.202427
0.0219009
0.0921503
0.0223361
0.0219915
0.0223472
4.0045
7.10408
0.0216639
0.0215967
0.0219502
0.254082
0.0225369
0.0249648
0.0220671
0.0221902
0.0909144
0.0216519
0.0415165
0.226225
3.8287
0.0218296
0.0667176
0.0232271
5.52038
6.73327
0.0220182
6.39157
0.0445098
1.43015
0.0221779
3.49305
0.0222476
0.0237765
0.0350659
0.0605726
4.06047
0.194407
0.098949
2.62745
0.0218552
0.136643
0.0216524
0.0255663
4.55523
0.0220477
0.022255
0.0223022
0.021885
10.2285
0.0216516
0.022079
0.0353304
0.0353767
0.0329372
0.560508
0.0770157
8.68289
0.041103
0.0270056
0.0282536
5.07563
0.0282344
3.08802
4.09018
0.0230317
0.0216484
3.2196
0.186045
0.0223487
0.0632191
0.0268608
0.0218635
0.023467
0.0218971
0.0349649
0.022292
0.0327909
0.101452
0.021863
0.041444
0.021692
0.0521222
0.0218748
0.0263143
0.0374951
0.0223504
0.0218053
0.0216711
2.00789
0.0579404
1.41806
0.022013
0.021957
0.0375627
0.0219433
0.0572369
0.058265
0.0218642
0.0568874
0.0216848
2.58822
0.0223001
0.0272407
5.98133
0.132325
0.0219078
0.0229968
6.39029
0.021993
0.0219051
6.842
5.87313
0.0242893
0.0954524
0.0221016
0.0218014
3.99562
0.0224279
0.0216603
0.143744
0.0216872
0.238266
0.0221964
0.0216661
0.0220989
0.0784726
3.65807
0.0221147
0.022179
0.0219028
0.0248081
0.0220763
0.9142
0.039669
0.0222688
1.35917
0.0443195
0.143204
4.13106
3.82543
0.0216567
0.0222474
0.0219737
0.550751
0.025344
3.71263
6.75138
0.0237452
4.52981
2.24724
0.0328835
0.0885358
0.0580668
0.3725
3.99341
0.0546145
0.516378
4.48963
0.0396318
0.0242908
4.93724
0.0523647
0.0216117
0.0223213
8.78553
0.0338529
0.0218402
0.044881
0.0609328
0.0320326
4.79378
0.0230097
1.1603
0.0282288
0.18353
0.0702609
0.151765
0.0248666
0.0216837
0.0222723
4.02193
0.0219855
0.0238955
0.0217418
0.0226318
0.0217787
0.0333501
0.0854071
1.91156
0.0425652
0.0610721
3.5184
0.276587
0.0217629
0.244458
3.82984
0.0216854
0.0218955
0.025555
7.70576
0.0222556
0.0443582
0.431878
0.0401931
0.0220723
0.0221766
0.0216881
0.0634274
0.0351388
0.021987
26.1819
3.80256
0.0385102
0.222485
0.0402096
1.1127
0.0228641
0.023162
3.41312
0.238844
0.0539082
1.63571
0.0252304
0.0222759
0.0217414
0.0219873
0.022035
0.0226542
0.0447574
0.0219186
0.0683384
0.0219348
0.0247196
0.0216426
0.0595795
0.0690251
0.38976
0.0219745
0.150394
0.0217425
2.89001
0.022037
0.0258142
0.0221235
0.120411
5.48613
0.0819954
0.0219091
0.0715834
0.0219394
0.025996
5.5528
0.0217626
0.0223612
0.0342109
0.026317
4.47144
0.0219192
0.0280245
0.0221673
0.0220354
0.0315893
0.0222273
0.0217361
0.0235006
6.78179
0.0231046
0.150924
2.72936
0.0348972
3.59178
0.0230039
0.0217423
0.0291512
7.28296
0.0222501
0.0326429
0.0289518
1.31519
0.0218657
8.43021
0.0421338
0.0444744
0.0216754
0.0216164
0.096265
0.0224184
0.0222859
0.0335168
0.0216141
0.0242264
0.025092
0.0428057
0.312576
4.25922
0.0229245
0.0445547
0.258748
7.38259
0.0273729
0.219705
7.7241
0.0285869
5.33094
0.0238962
8.7452
7.05618
0.0215902
0.0222619
0.0219463
0.0219753
0.0344259
0.0216385
0.0240434
0.0535549
0.0223888
0.0332609
5.03447
0.0297215
0.0226262
5.49024
0.0220527
5.82511
0.022625
0.050289
0.0218543
6.88124
6.98966
0.0219388
0.0220255
3.5613
0.029154
7.74361
0.0220198
0.0216821
4.71006
0.0220378
0.0425296
18.486
0.0220755
0.0370822
0.0256025
0.0216109
0.0218923
3.76496
6.76023
0.0219619
0.0223855
0.0220242
0.0244236
0.0376887
6.48046
0.0225658
2.56951
0.228893
0.186345
0.266098
0.0220257
0.0719289
0.154482
0.0286334
0.0220625
0.0374882
4.84724
0.0232406
0.0432795
4.09233
3.55509
0.268699
0.0254945
0.0221635
0.0222479
0.022085
8.07256
0.0353429
0.0224655
0.022071
0.0228922
0.0222695
0.0219357
0.0220598
0.0439726
0.0276453
1.14836
0.04433
10.8068
3.2925
0.0285906
0.0334159
0.0217978
0.026368
7.92473
0.0219777
0.022874
0.0334155
0.065462
0.0564429
3.53686
0.147803
0.0217679
4.34948
0.0215828
0.0219045
0.0423612
0.0222735
0.0217071
0.0894207
1.01313
0.0216906
3.66145
0.0219476
0.0216497
0.0228053
2.76231
0.0257524
0.0226147
9.20202
0.022358
0.132444
3.39829
0.0222461
0.045383
0.0220078
6.04163
0.0448147
0.0220687
3.87904
0.0352264
0.0736798
0.0222781
7.15706
0.0284457
0.46604
0.0220902
0.0644732
6.40193
0.0216698
1.3765
0.0220948
0.0423301
0.0501934
0.0222453
6.88066
0.0230967
0.0642749
0.0388823
0.0954125
0.0368152
0.0404259
0.0225084
4.10101
0.0301869
6.87114
0.0288594
0.0394757
0.0218254
0.033965
0.0220532
0.0430501
3.96604
0.0224051
0.0217791
3.31698
0.0221473
0.8429
0.0220372
3.77613
0.186806
0.0292782
0.021981
0.0219254
0.0221144
0.0216204
0.0602985
0.0500117
0.0393344
0.023927
0.0220809
0.248523
0.022416
0.028696
0.174396
0.0220409
22.0709
0.0334221
0.024545
1.27493
4.9265
0.188878
3.65974
0.417753
0.0218562
0.233146
6.54677
0.329157
0.0221722
0.0222698
0.0645773
3.86805
5.52296
0.319579
0.0218443
0.0476268
0.0288486
3.41752
6.78903
0.0289557
0.0697886
0.0231009
0.0583535
0.0539149
0.0221637
0.0630961
0.523417
0.0221345
0.239695
0.0222527
0.021774
4.97391
4.94467
0.0218394
0.0218757
0.0220841
0.0216946
0.0419801
0.0916622
0.0221643
0.0219807
0.0220963
0.0283403
0.0247744
0.0247397
0.183051
0.0220333
5.37804
8.76326
5.24857
0.130015
0.0367059
0.200391
0.0262396
3.79637
0.227592
0.476232
0.0221888
8.15328
3.40766
0.0217574
0.0220305
0.0665087
8.2329
1.50616
0.021644
0.0219498
3.80528
1.12391
0.472727
0.0229242
0.0239795
1.94303
0.0221294
4.11979
13.6463
0.214304
0.585786
0.0220747
0.0218985
0.0218805
0.0261023
4.29103
0.0283256
0.0230471
0.0227287
0.0681777
8.03856
0.0283883
0.440373
6.50329
4.98475
2.17414
0.0220544
0.0221712
3.69632
0.0216446
0.0216128
0.0227283
3.14863
0.0277727
16.2741
0.0758287
0.0220219
6.6829
0.030358
0.021785
7.16916
0.152167
0.0255031
0.0217897
8.06067
7.89128
0.022183
1.12278
0.231691
11.8605
0.594303
0.0604509
0.0218871
0.022075
0.809242
0.0234266
3.46594
0.0318917
0.513182
0.143917
0.0229146
0.0279222
0.0218682
0.0226381
9.14593
7.22472
0.022083
6.44784
0.0293439
0.0219607
0.0244253
0.0219192
0.0861976
0.0220771
2.10649
0.0468459
0.0218746
0.0218664
0.0894028
8.7611
0.0285411
0.0231458
0.0322819
0.0220492
0.0223242
0.0237967
9.10018
4.06803
8.10237
0.0217028
0.02186
0.0221647
0.0721126
0.0218547
0.0221899
0.0899074
0.0369008
0.202677
0.0215829
7.52971
4.02031
0.0222843
9.7014
0.0640164
0.027202
2.06093
0.022122
9.52439
0.0285303
0.0228818
0.0238692
0.0216418
0.147236
0.0221944
0.0220393
0.0312556
3.40782
3.64058
0.0222456
0.022019
0.0226068
0.0218354
0.0746726
0.0224711
0.0527321
0.0223988
4.80487
0.0220088
4.6692
0.0217017
7.11091
0.0220147
0.0216259
12.6382
0.275486
0.107124
0.21412
0.0431811
0.0288384
0.0220618
6.14172
0.0220812
0.0218615
0.0889838
0.0399272
16.4964
6.84977
0.0688679
1.47603
0.0753086
0.254584
0.0217939
0.0230311
0.0239863
5.78637
0.0251648
6.47179
4.48605
0.0218202
0.0221057
0.0219596
0.726048
3.2701
0.0223371
0.0221058
0.0246539
0.0249645
0.0280346
0.171502
0.199372
0.0220619
0.699398
0.0559226
8.3025
0.0451309
0.0226804
0.0227259
6.71851
0.0218778
0.0559207
4.18026
0.0225245
0.0237372
0.0920359
0.141016
0.0226719
6.95034
0.0229135
0.136127
0.0285305
0.0287544
0.0220612
7.67416
0.0218475
0.080946
1.36173
9.50117
0.034337
0.0471294
0.0231135
0.0440939
0.0222664
10.0048
0.0235329
0.0217605
0.0250677
0.0220898
0.0222691
3.29234
0.0220698
0.0221793
0.0219861
0.0711224
0.0223089
0.0282834
0.0439565
0.13508
0.0689131
0.0222553
0.181265
0.3818
0.121719
0.0564045
0.0278252
0.0837223
3.37692
0.326764
0.0222845
0.373832
3.80052
0.0222839
0.0228101
0.0216354
0.660949
0.0674042
0.021772
1.31885
6.10664
0.0217984
0.0222659
3.54921
4.21186
0.0407162
0.0216411
0.943568
3.20567
3.29524
0.0220219
5.81631
0.0501117
0.0630355
7.41615
0.0235522
0.0216458
0.0253364
0.107344
0.025677
3.76677
7.63606
0.0217719
1.187
0.383923
6.63371
0.0216977
0.0541782
0.0223818
0.0218813
5.14112
0.25941
0.127862
0.240013
0.0276555
0.0345643
0.0219923
8.72935
6.44122
0.0220691
0.0219874
0.0318683
0.0216586
0.0334006
4.91327
1.5293
0.0348276
0.022047
0.0218041
5.2736
0.0245543
0.0346149
0.0217542
0.0226512
0.376019
0.269008
0.164178
2.88311
0.0221699
0.13774
0.0220035
0.0442777
4.84631
7.99688
0.0220738
0.0222937
0.026666
0.0256258
0.0222297
5.32401
6.02456
0.0217023
0.0215164
0.0221934
0.0219615
2.60506
0.0216441
3.63506
0.0599949
0.039946
0.0217716
0.0402018
8.02253
0.0262514
0.347512
11.9907
0.0221759
6.98537
0.0330156
0.0364085
0.258491
7.04461
6.60136
0.0379785
0.0218674
0.17191
0.0216516
0.0254395
0.0222295
3.58211
0.0302255
0.462906
0.17864
0.033158
0.0221297
0.159897
0.0236955
0.0222703
0.267422
0.0215959
0.027746
0.026991
0.0221806
2.20816
0.0228773
0.529885
0.0226904
0.0219232
11.3579
4.06889
0.0240345
0.0329758
0.0280272
0.0445359
0.0366836
0.0233336
0.0248299
0.0231183
0.13548
0.0247583
3.60979
0.0522897
0.166316
0.0694992
0.022035
5.38134
0.0216079
4.26537
0.0242719
7.38187
0.430084
0.459291
0.347976
0.14542
0.0681859
0.0217589
4.8855
0.0740191
0.0220632
8.54643
2.48271
0.0231839
0.0224529
0.0263136
0.0263046
0.0256428
5.70231
0.0222841
0.0246143
0.0264886
0.0303937
0.0221635
0.0500409
0.0215887
3.67975
0.0234213
0.0776782
0.0264282
0.0288459
0.0839715
0.263015
0.0568896
0.0217915
0.171793
4.58337
20.294
0.0219171
3.50883
0.0246599
1.74359
0.0220811
0.02388
4.47943
0.0336642
6.61851
7.44983
0.0330935
7.06557
0.0218927
0.0215776
8.17302
0.0595473
0.023768
5.50844
0.024402
0.0424382
0.0280352
0.0498153
0.0219413
0.51221
3.34428
7.82991
0.131995
0.0234255
0.044126
6.59719
0.0235079
0.0222408
0.0601231
0.0216702
0.249561
14.3066
7.23416
5.71829
0.0352961
0.0219441
5.70571
0.021589
0.0447435
0.0222344
23.7649
0.0229985
0.0429799
3.93567
0.067582
0.0220243
0.0300704
18.5239
0.022116
0.0781153
0.0217293
0.994534
6.66698
0.0635215
0.0758337
0.0219451
0.15815
0.0764538
0.0288505
0.021735
0.0219453
0.0221467
0.0347268
0.0221275
0.0506003
0.0221851
0.0217168
8.32627
0.0217694
0.0243265
0.0229296
0.0222743
3.94766
0.0217817
0.0299474
5.03104
0.0321201
3.51111
0.0220876
8.07078
0.033209
5.76831
0.022903
0.0699205
0.0218102
0.0291113
0.0685972
0.0645835
0.126525
5.74644
0.113698
0.816639
0.027086
0.0627172
0.0379605
0.258666
0.0247701
0.0217875
0.0220401
0.0334616
0.0407886
0.248202
0.0347375
3.80303
0.356324
0.103389
0.0219484
0.275497
0.173296
0.022487
0.0239037
0.0220668
1.4191
0.0220473
9.453
0.0217654
0.0236897
6.12173
0.0644015
0.0220453
0.0220329
7.46853
0.0218003
0.0235255
0.0231508
0.0289473
0.024601
0.0220404
0.0918361
0.0822716
0.0410869
0.152901
7.44064
3.90347
6.38981
0.0217175
0.0219724
0.0855448
0.0219533
0.0448206
3.53375
4.12944
0.0216387
0.0220601
3.37667
0.170987
0.0216516
0.0217902
0.0264252
17.8532
3.91971
0.02409
0.0289043
0.0221983
0.164363
0.0705413
0.130628
0.0317167
0.0401539
0.0224813
0.0293444
0.148215
0.0227984
0.0218808
0.0240677
4.32903
0.0247036
8.27983
0.0221036
4.40531
0.0328754
0.0284892
0.0217644
0.0219118
0.4651
0.385697
0.058263
4.13129
15.5041
0.0224498
5.04247
0.0850996
0.0217951
0.236811
0.164471
0.0637087
0.0222547
3.55785
6.76153
0.0217434
0.0360793
4.27738
0.037697
0.0219947
0.0217162
0.0220226
0.0225496
0.0526989
0.142065
0.0800466
0.0521743
0.0216872
0.0221166
3.34709
0.0217739
0.0394129
0.0268363
0.0217846
0.0347877
0.0220219
0.0232968
0.146105
0.0219938
6.20267
0.0220199
6.14424
3.95348
0.0568898
0.0221114
0.0222927
6.09798
0.0216317
0.0230323
0.022379
0.205588
0.274733
0.0268623
4.03244
0.0387127
0.213258
0.0226467
0.0426157
0.0216685
0.0221387
6.49719
4.16403
0.419499
0.0228528
0.043002
0.0427558
8.54304
5.29194
0.135592
0.0306409
0.0215856
5.67278
0.0217603
0.0218042
0.130448
0.0646123
0.027568
0.177715
0.0436625
0.02895
0.0246346
6.94984
0.0228739
0.0219871
7.95816
0.0429332
0.0216794
3.42403
0.0220309
0.0221089
0.086136
0.101422
19.5974
0.0216961
0.0244472
0.0218884
2.13974
0.0218042
0.509637
0.239956
3.80786
3.371
25.2414
0.0301476
5.62426
0.909074
0.0222092
0.0291258
0.040934
0.0300428
1.28654
4.88272
8.01134
3.68168
2.15038
0.0221038
0.0601304
0.0220394
6.40575
0.0246178
0.0222075
0.022828
0.0221671
0.0218285
0.0602111
7.98802
0.021708
0.0226486
0.0218585
5.22667
0.0225691
7.86663
3.48849
0.427159
0.0221001
0.0218341
4.73589
0.350087
0.0221401
0.208015
0.0222274
0.0920275
0.16198
0.0564594
0.0334239
0.676441
0.021752
0.0216647
0.125318
3.27693
0.0256442
0.039865
0.0218981
8.93151
0.0220103
0.0219449
0.0224385
0.0219777
10.2309
4.61357
0.225956
0.038283
6.25156
0.19541
0.0216479
0.0252405
0.0216741
1.25688
0.0217695
0.0242373
0.0219929
0.0219074
0.0216789
2.06445
0.0220708
1.6085
0.0215467
0.0330262
0.0224099
1.51611
0.0220422
0.0255565
0.0265079
0.0548891
10.0738
0.0219019
4.37393
0.0492623
0.0406034
0.0218552
0.0219319
3.51116
17.367
0.0217746
0.021762
0.129615
0.128571
0.0380775
4.68575
0.0225711
0.179135
0.0252747
0.0216875
0.849752
0.0221437
3.95009
0.0220402
0.0221961
0.0221182
4.71597
3.78287
0.0216578
0.22968
0.120885
0.0220591
0.0217513
0.0218637
0.243145
5.03977
0.046702
0.0226184
0.0303406
0.0220254
0.0220349
0.0226417
0.0219999
0.0948093
0.0220657
0.0393388
0.30774
0.0288374
0.021616
3.36413
0.0451188
0.0220349
0.0572278
0.0251754
0.217026
0.0247591
10.2875
0.0394865
0.021927
0.0569138
0.055808
0.0230038
7.61387
0.0376318
0.0246087
0.233253
0.0218811
0.102777
0.0832657
0.0888755
0.0219291
0.0219396
0.0216294
0.0341326
0.0353362
0.0346711
0.366699
6.57128
3.53543
0.0222663
1.93688
3.97417
5.3981
0.0219942
0.0219494
0.0346834
4.15841
0.0236446
0.0266778
26.2149
5.50339
8.12245
0.119106
0.0888519
3.36356
0.21799
0.0215858
5.86
0.120739
0.0219916
0.0219191
0.0224456
8.98292
0.0612108
3.34506
0.022963
0.454651
0.0219162
0.208871
3.82095
0.022152
0.0263183
5.8219
3.14165
0.0392801
0.0222404
0.0233068
0.0224263
0.162354
0.0696499
0.571799
5.28628
0.0216999
6.5707
0.104798
0.185174
0.0220275
0.022164
0.172079
0.274963
0.0219234
0.0358521
0.0750493
0.0391202
3.62243
4.49809
8.42277
5.4304
0.0246237
0.0216171
0.0661404
4.49316
1.1684
0.0217568
0.233589
0.0900202
0.502252
0.0219262
0.0222557
1.13776
0.268879
0.38234
1.53519
4.08578
0.0219468
0.2442
5.41647
0.022234
0.063346
0.0618487
0.0216632
0.0868788
5.33565
0.244541
0.0222548
5.05219
0.0657184
23.5975
0.0215098
0.0224086
0.0220017
0.0221937
0.0219881
0.0416024
0.0368617
0.0398849
0.377438
0.02622
4.86929
0.0249405
0.0243361
0.0254279
8.68346
0.0586664
6.56239
0.0257392
0.027567
21.4172
0.0999128
0.02209
0.039699
0.275689
4.05125
0.152394
0.0219183
0.021864
0.0218585
0.203177
0.0227568
2.50167
1.31069
0.241924
0.0275143
0.132181
6.81867
0.0219908
0.908187
0.0312094
0.0507146
0.0218504
0.0217389
0.0364224
6.93431
0.0220789
6.55624
0.307974
0.0972835
0.10776
0.0218062
0.0220188
0.0250065
0.0221074
21.0237
25.153
0.0737248
0.46489
0.0218983
0.0218978
0.0219322
0.0222477
9.8352
0.0222872
6.51637
0.0842377
0.0219385
0.347382
0.578855
3.50086
9.18475
0.0224349
0.0216559
0.022131
0.0223299
0.828554
0.223079
6.85667
0.0221552
0.0219259
0.136937
0.0222602
0.148193
0.0236395
0.134108
0.153968
0.0380325
0.0360951
0.0216871
0.0329832
0.034761
0.171263
0.08307
0.0391156
0.0218568
0.168769
0.0218409
0.977104
3.80106
0.93086
0.0220572
0.103918
0.0219801
0.0332629
0.0222805
0.0220258
0.0280246
9.20382
3.96816
0.0791311
0.0414376
0.163151
0.0602683
3.68219
6.51171
0.0290791
6.03733
0.221672
0.0217753
0.0576536
6.15906
0.100477
0.0222355
0.0381955
2.20105
0.172973
8.28774
0.0218693
0.191627
0.0221122
0.0218969
0.0292396
0.180696
0.0222638
4.12198
10.1415
0.152767
6.36723
0.338209
8.87334
0.151724
0.0216919
0.0232388
0.0215994
0.0407115
0.124753
0.172967
0.0238788
0.037674
0.0215826
7.42963
0.0280272
0.0343552
4.1284
0.0997365
13.1586
8.12232
0.0219286
7.96543
0.0221283
0.0279034
0.0450355
4.09867
0.0851658
0.0276311
0.0222211
0.532882
0.0283488
4.13271
10.1768
0.0324226
3.19103
0.0305097
0.0222741
1.14577
0.0458033
0.0229347
10.1066
19.1874
0.025092
0.0260176
0.0761403
6.90301
0.0219296
0.021959
0.0216546
0.021729
0.0224191
8.31729
0.0298877
4.63808
0.0219511
0.0217515
0.835958
0.0218735
0.0232876
0.0220525
0.0220352
0.231627
0.0216888
6.37821
0.0217605
0.0222294
0.0364097
0.02224
0.149457
0.0216958
0.0222649
0.0217226
0.0245751
0.0853093
0.0227437
3.86612
0.021876
0.0406805
0.0249958
6.43655
0.0228496
0.0222684
0.0216027
0.0216457
0.178071
0.0218633
0.0217664
0.0229126
0.410726
0.0219293
0.0407478
0.0306772
0.0219722
3.1119
12.8837
0.163856
2.95166
0.0228654
0.0646512
0.0221704
0.102183
0.151651
0.0218917
0.234628
0.0782263
2.16731
0.029164
0.0220347
1.50632
0.0374419
0.436736
5.10702
0.0215391
0.0219674
8.65608
3.18239
0.0375125
0.049902
0.0226738
16.342
0.532293
0.0215122
0.0219547
0.0218505
0.0221713
0.0222475
0.0220527
0.0358837
5.71711
0.0289109
0.0221962
0.558808
0.0219778
0.493179
0.0421531
0.0217704
0.02433
0.0218885
0.231377
0.0243988
0.0536147
0.0219352
0.0219718
6.33822
6.42359
0.0221767
0.0334697
0.0437983
0.0288736
0.023881
0.0222711
0.0220535
0.679365
0.320771
0.0286783
1.24007
0.0219566
17.3881
0.0602997
0.0241662
14.9846
0.0229897
4.82378
2.99252
3.43765
0.399253
5.6214
3.94409
0.021579
0.0245086
0.024915
0.0215939
0.0216466
0.0247076
0.0746808
0.0216897
0.028804
0.0679457
0.0675208
0.321944
0.143461
0.0280899
0.750686
0.50688
0.0341554
0.0251398
0.0750182
15.7932
4.48675
0.0250679
0.0215766
0.0218167
0.0217159
0.0264549
4.12049
0.227926
0.0216315
6.09052
0.021972
0.0845753
3.7665
0.0818483
0.125746
0.0935515
0.312325
0.0227778
0.0336933
0.0218352
0.192431
0.0219342
0.0223599
0.0261892
0.0868153
0.0221748
0.0245628
5.87617
0.0218078
0.0218508
0.0287995
10.7381
0.0687597
0.175068
0.0383744
0.0221485
3.26964
0.0372424
0.0224905
0.022028
0.0282735
0.0246526
0.022044
0.0239698
4.96211
0.0229707
0.021613
0.0467696
0.021855
0.0306897
0.0298749
0.0220675
0.0219876
7.03493
0.021685
0.02203
0.0216344
0.025158
0.0214854
6.44101
0.0238797
0.122806
0.0219556
0.0217519
0.02177
6.40343
0.0407765
0.0220619
0.0215612
2.47158
0.0253038
0.0418933
0.021837
0.0826736
0.0228794
0.0215542
0.577757
0.0216402
0.0222546
0.0221458
0.0217649
0.0241856
0.0221368
0.0220298
1.55602
1.53409
6.7048
0.184229
12.2976
0.021798
8.46051
0.0219608
3.82407
12.6693
0.0217878
10.8983
0.0219731
4.06311
5.27475
0.271266
5.57073
4.49698
0.492134
0.186902
12.2821
3.58649
0.0368325
0.029312
5.1645
0.0234243
0.0216383
0.219466
0.0227422
0.0277526
1.38478
0.0226442
0.183351
3.94233
2.90308
0.170642
0.0655503
0.0222515
0.0274731
0.0482524
0.021981
1.39241
0.226617
0.107855
0.0218584
0.0220672
15.1245
0.0216561
0.343944
0.0217462
10.2291
8.17868
0.0353312
0.0248953
0.021962
6.35708
3.56864
0.0246503
0.0292016
0.0222859
0.0222859
0.036684
0.0231069
0.0322761
0.0567458
0.0237504
0.0258099
0.0220442
0.0310781
18.1493
0.0219763
2.05731
0.0217967
0.43463
0.0564391
0.022036
0.534651
0.070563
0.0218123
0.140531
0.0220509
0.16394
0.0221852
0.0220064
3.58012
0.0221458
0.0612105
0.0225567
0.076957
0.021755
0.022297
0.0218399
0.0293819
0.0239522
0.022246
0.0225261
0.0255488
0.022397
0.0702581
0.0552004
0.0246452
0.0235502
0.0215704
2.30765
0.513539
0.0227378
0.0224915
0.0226176
0.0341504
0.0220756
0.0299399
0.0215623
0.0222853
0.131305
0.023305
0.0222846
0.0218779
6.52891
15.8501
0.0215911
0.0589328
0.0606481
0.128958
0.130044
7.76333
7.54379
0.310405
0.0222089
0.0765497
0.0219208
0.0317949
13.0007
6.61267
0.114003
0.023954
20.1742
0.0220357
0.038554
0.186326
0.0221778
0.0768207
0.0228894
0.0227756
0.0538975
0.0882536
3.41908
3.32524
0.0217546
0.0215744
6.45234
3.99593
0.0221801
0.027967
0.0692274
0.0220975
0.0220094
0.0232763
0.166706
0.0217412
5.17258
0.0286481
0.0219484
0.18125
0.0456121
0.0427269
0.0756392
5.19275
0.0243585
0.0270758
0.0280105
0.0235677
12.154
0.0255102
3.10135
6.06683
0.0565044
3.98267
0.0382158
0.0415782
0.216677
0.0216965
7.24762
0.0565372
0.0313481
0.0284023
0.0221768
0.0216164
3.71066
0.0369457
3.85921
2.24841
0.0221192
5.40329
0.0218157
0.0219251
0.0281731
8.31345
0.0454428
0.021594
3.37698
0.0219685
0.0233834
3.99054
0.0230013
3.41187
0.0222723
7.93752
0.287699
0.0694379
0.448702
0.023248
3.47237
0.0215688
6.77569
6.53118
7.2037
10.335
0.0219389
0.0217138
0.150262
3.86662
3.53493
3.71539
3.71236
0.0220082
9.87334
3.43856
0.0223518
0.420133
0.0320091
0.0285165
1.82111
0.0352242
4.12192
0.021824
0.0346563
0.026892
0.117478
12.4896
0.0336232
3.56242
3.84623
0.0221701
0.0243464
0.0233888
0.0230254
3.56114
0.0220057
0.0217341
0.0361592
3.99673
4.16139
0.0249116
3.81048
4.21394
0.0219278
11.2201
5.63991
0.0922288
3.90151
0.0484643
0.0239023
0.0221727
0.104681
0.0241899
0.0551901
8.63443
6.6267
0.0277924
0.0445497
0.025803
0.0280384
0.0216459
0.0289863
0.0246975
0.0607236
3.69946
0.397275
3.90446
0.0215977
0.0767442
0.0392254
5.96746
0.0234534