/*--------------------------------*- C++ -*----------------------------------*\
| =========                 |                                                 |
| \\      /  F ield         | OpenFOAM: The Open Source CFD Toolbox           |
|  \\    /   O peration     | Version:  v2012                                 |
|   \\  /    A nd           | Website:  www.openfoam.com                      |
|    \\/     M anipulation  |                                                 |
\*---------------------------------------------------------------------------*/
FoamFile
{
    version     2.0;
    format      ascii;
    class       volScalarField;
    location    "200";
    object      ddt0(k);
}
// * * * * * * * * * * * * * * * * * * * * * * * * * * * * * * * * * * * * * //

dimensions      [0 2 -3 0 0 0 0];


internalField   nonuniform List<scalar> 
13917
(
1.62056e-07
5.51446e-08
0.00416343
4.37766e-07
6.78383e-09
5.66396e-07
0.00310836
0.00395193
-0.000593871
4.06206e-07
8.04214e-06
1.07825e-06
4.35605e-07
-0.000393269
2.32633e-08
6.59499e-08
4.84648e-08
3.71957e-07
8.53881e-07
-1.57486e-08
3.11821e-09
0.00284455
-7.40943e-09
0.00461707
1.06574e-08
0.00283744
-4.63849e-08
-2.426e-07
-1.30909e-05
9.43997e-07
9.65278e-08
1.32962e-07
-2.60236e-07
6.08323e-08
1.6867e-08
0.00200404
-8.47464e-09
-0.000153273
4.26785e-07
0.000767295
-1.28943e-08
5.52841e-09
3.99651e-08
-2.03156e-08
1.08077e-07
1.0851e-07
3.9847e-07
6.10282e-07
2.46455e-08
-3.27882e-08
3.40424e-07
2.45739e-08
-3.3019e-08
1.25226e-07
4.76248e-08
2.77396e-07
7.20847e-06
2.83033e-08
1.49373e-07
9.99864e-08
-0.00143576
5.60967e-08
-3.16278e-05
-1.74787e-08
9.65393e-07
-0.00287098
1.50193e-08
2.07379e-08
-4.37042e-07
3.27363e-08
8.16119e-09
-0.000278694
-0.000945888
1.55258e-08
4.00707e-07
1.60752e-06
-0.000675028
1.55792e-07
0.0023859
4.07342e-09
-1.97882e-09
1.49449e-08
3.99674e-06
-0.000102746
-0.000946084
1.61515e-07
-7.67998e-09
0.0075977
3.6588e-07
5.2162e-08
-0.000821099
-1.62104e-07
5.16494e-08
3.90078e-08
0.0594254
2.21318e-06
1.25762e-06
4.82293e-07
3.0277e-06
-2.73118e-07
-1.10437e-08
-1.66658e-07
-1.68374e-08
2.22936e-07
2.37567e-08
-0.00052234
1.75885e-06
6.34713e-07
5.04512e-08
1.34664e-07
-0.00100861
0.00100134
1.40292e-06
-0.000640373
2.72515e-08
9.92848e-06
1.5957e-09
-4.04679e-06
0.000401127
-1.3448e-07
5.85249e-09
1.98808e-06
4.81626e-05
-8.35569e-08
-2.12374e-08
4.57554e-08
8.52517e-08
-2.38173e-08
7.65125e-09
1.59155e-06
0.000550018
2.68202e-08
1.01536e-07
4.60302e-09
0.00490049
0.00487565
1.63244e-07
6.67233e-06
1.66017e-08
6.84974e-08
0.000261382
7.03828e-08
2.95797e-08
-1.79822e-07
2.04015e-08
0.00142312
-2.0808e-05
2.70776e-08
7.48314e-08
1.14551e-07
6.29879e-07
3.99533e-06
1.10993e-06
1.20804e-07
1.85913e-07
-0.000455244
5.41069e-08
0.00827224
-0.000643241
0.00505525
5.10365e-08
2.6902e-07
6.01369e-09
1.54288e-06
1.40009e-06
2.17415e-06
2.18668e-07
5.64174e-07
8.30482e-08
1.07909e-08
-2.35024e-08
-0.000551954
1.72808e-06
5.34722e-08
0.00397481
-2.29515e-07
0.000661487
9.58448e-08
0.00226718
2.97999e-08
-6.39511e-07
9.95756e-08
7.30822e-08
-8.06335e-09
4.03001e-08
0.00352778
0.000260658
-0.000566388
2.96995e-07
2.2878e-06
0.00170569
-0.00104989
-3.99868e-07
-4.85185e-09
2.99644e-06
1.36535e-07
5.45122e-08
4.62362e-08
6.49523e-07
-0.0214321
4.45996e-07
-3.40364e-08
5.81745e-07
5.95575e-07
-0.000878315
0.00683609
1.59122e-08
2.84998e-08
4.569e-07
0.00427972
2.80134e-08
0.00303667
-0.000764241
2.27041e-06
2.48005e-08
1.40398e-05
5.14303e-07
-0.000644861
1.60017e-08
-0.00121677
2.822e-08
6.12943e-07
-2.08262e-08
-0.000373699
-0.000750135
6.89797e-08
0.000293409
1.99847e-07
2.10875e-08
0.00177736
1.72403e-06
2.87694e-07
0.00517595
-0.000637319
-1.75087e-08
1.30197e-07
-0.000880036
-0.00077994
-1.19674e-09
-1.48903e-08
0.000972379
2.07146e-06
-2.87942e-09
0.000117387
1.21039e-06
-1.55027e-06
1.41611e-07
7.63419e-10
2.91586e-07
-0.000694245
1.97212e-07
-1.09411e-09
-1.65105e-06
8.9853e-08
2.65907e-08
9.32884e-07
0.00116806
1.19616e-06
4.29105e-08
4.9593e-08
-9.50928e-10
-0.000151267
-0.000600349
-0.000177014
1.47564e-08
-0.000891488
-0.000351265
0.00800111
0.00223431
1.6862e-06
1.90746e-09
-3.11244e-08
4.64209e-07
-0.000539667
2.01356e-06
1.41658e-07
0.00647358
1.00574e-06
6.74913e-09
0.000523613
-1.74291e-08
0.00364845
4.33242e-07
-7.88322e-09
1.56786e-07
1.87938e-07
-2.01541e-07
7.74726e-05
1.52183e-08
1.65916e-07
0.00451329
0.00524045
-0.00110409
1.28414e-08
0.00720254
2.89501e-08
1.65781e-07
9.39983e-10
4.52733e-06
-2.80892e-08
1.29442e-07
1.47256e-07
8.51707e-08
6.29533e-07
8.7927e-08
5.25413e-07
-7.06981e-08
5.08755e-08
9.41879e-08
2.58489e-08
-0.00094556
3.95004e-05
5.23097e-09
-2.37648e-08
0.000782957
3.4447e-08
-0.000987565
8.79133e-08
-0.000352391
2.81606e-07
8.83996e-06
5.14156e-07
-3.74093e-06
6.41642e-08
0.00645058
8.39276e-06
9.88811e-08
2.15963e-06
4.67001e-05
3.64227e-08
0.000242384
-7.70942e-07
-0.000499187
-1.12124e-07
0.000883299
1.35062e-07
-0.00111597
-1.21853e-05
7.77154e-09
-1.92703e-08
0.00341006
2.69655e-09
1.86204e-07
-0.00109906
2.89527e-08
5.88532e-08
-0.0003399
2.12196e-07
5.80073e-08
-0.000158046
1.14241e-05
-1.89346e-08
-3.56793e-05
0.00115556
-1.8917e-08
2.38482e-09
1.48924e-08
7.53208e-08
-0.000943246
0.00293601
-1.92464e-05
-0.0010468
9.84778e-09
6.00926e-07
-0.000175751
5.17595e-07
0.00267508
-0.000522255
-0.000836691
-3.97125e-09
-0.000222174
-5.08177e-10
-0.000701743
9.87893e-08
-1.86225e-06
1.2981e-06
4.77696e-07
1.26896e-09
4.84401e-07
-5.2705e-07
4.59652e-07
-2.01505e-05
-0.00104434
-0.00049527
1.6109e-07
4.34758e-07
-1.65306e-08
-0.000845152
0.00271019
3.01317e-08
0.00662368
1.5494e-08
-0.0231446
2.33343e-07
1.92968e-09
8.93974e-08
0.00209196
9.03792e-08
0.00132605
-9.30038e-05
4.73835e-06
-2.66665e-05
3.84651e-08
1.8223e-06
-1.54935e-05
-8.68219e-09
-9.98394e-07
2.79171e-08
1.62594e-08
9.33445e-07
-4.42414e-09
1.89223e-08
6.95044e-09
0.0152782
4.13085e-09
0.000929328
0.00269964
-4.24536e-05
6.2871e-06
0.00138632
-0.000661446
5.24794e-07
8.95733e-09
1.0133e-05
5.21015e-07
1.36491e-07
-3.50579e-09
0.00198192
0.00342322
0.003019
7.1908e-08
8.83218e-07
-1.91879e-07
5.09971e-07
5.54933e-07
6.61928e-08
-4.27331e-05
5.19658e-08
-2.62795e-08
-0.00106557
0.000674725
0.000768456
7.19327e-07
-1.59055e-05
0.000333542
-0.00115281
-0.000630119
2.14195e-09
4.46016e-07
6.76258e-08
3.19309e-08
0.00850356
4.7782e-07
8.11536e-08
3.46939e-07
4.99008e-07
-0.000646734
-7.21595e-09
2.00401e-06
4.31449e-05
-0.000879098
0.000870969
3.3478e-09
2.63016e-08
6.60328e-08
5.17562e-08
-6.59658e-09
0.00404306
1.5274e-05
2.68678e-08
-0.000816723
2.8022e-07
1.66334e-06
-0.00125324
-1.23968e-05
3.99384e-06
0.000414195
1.81695e-06
3.0547e-07
2.07453e-06
7.47586e-07
1.04132e-05
-1.37121e-06
8.94953e-07
8.91e-07
2.42254e-08
0.00602466
3.76712e-07
1.25648e-07
1.46829e-07
1.4862e-07
-0.000636827
-0.000454283
3.30259e-08
7.89687e-09
0.00501396
-0.000540285
-6.25688e-09
0.000904253
2.68258e-07
2.526e-06
3.00026e-08
-0.000847951
0.00758698
1.08192e-07
9.30258e-08
0.00148035
-6.07029e-06
-0.000295996
-4.00016e-10
-0.000760046
-1.25249e-07
0.000609574
9.68865e-08
-0.000864612
-0.00154416
5.57895e-07
5.22617e-09
4.51855e-08
1.61354e-06
-0.00332332
9.12045e-08
-1.41449e-09
-2.90927e-08
-2.86016e-08
-0.00083053
0.00282238
5.52311e-07
-0.000101837
-8.74375e-09
-1.3647e-08
6.0338e-07
-0.00137034
2.61678e-07
8.60205e-08
1.6019e-08
1.92406e-08
0.000373891
-0.00115279
-7.40996e-09
1.38313e-08
-0.000208482
7.18728e-07
4.91862e-07
2.84087e-08
7.79727e-08
1.03884e-07
9.61891e-07
-2.07545e-05
-5.77586e-05
1.97776e-05
1.11322e-06
0.00679959
1.15934e-07
1.16887e-08
-0.000763161
1.97376e-08
6.53182e-08
3.70246e-07
0.00624137
3.37809e-07
-2.2306e-08
0.00168454
2.12424e-07
-1.4051e-05
1.1707e-06
1.92739e-07
5.00969e-07
2.22023e-09
-0.00125987
-7.38935e-06
0.00147443
5.00362e-08
2.71676e-07
-8.84608e-05
-0.000551592
-0.000238237
4.96356e-07
9.59054e-07
6.48767e-08
1.40131e-07
3.10248e-08
8.18367e-08
-3.23534e-07
2.39761e-08
5.14332e-07
7.35215e-07
0.00159573
-0.000347153
9.27113e-08
1.88481e-06
0.00761317
-1.10528e-07
3.27086e-08
-2.46722e-06
0.000162521
0.00154858
-7.95554e-06
7.16076e-09
0.000155618
1.64235e-06
-1.67526e-08
1.68138e-07
8.58193e-07
-1.11384e-07
3.80674e-07
0.00238427
2.59034e-06
7.33766e-07
-0.00121886
1.80094e-07
-0.000608238
2.78549e-09
-7.68941e-09
0.00719268
2.56189e-06
-2.91745e-05
1.87201e-07
5.47852e-08
1.42139e-08
1.00196e-06
-7.87006e-07
2.07249e-06
1.48167e-07
2.70227e-06
5.05286e-07
3.27774e-08
0.000655702
2.26185e-06
-4.6344e-05
1.8189e-08
3.28361e-06
1.46633e-07
-6.37282e-05
3.02159e-07
2.34911e-07
3.09682e-07
-2.73747e-08
1.2918e-07
8.9022e-08
3.6785e-07
1.44816e-07
-9.44275e-05
1.04022e-05
5.5847e-07
-2.02039e-08
4.84329e-07
8.6297e-06
0.00368158
1.83517e-07
2.11316e-08
6.29108e-11
6.28197e-07
2.18265e-07
-0.00151305
2.07095e-09
0.0035078
6.04267e-07
6.37907e-06
5.46745e-07
-0.000949391
1.99989e-07
4.18049e-08
-0.000621666
-0.00027434
3.40457e-08
3.67579e-07
0.00775801
2.57545e-07
1.88069e-06
-1.00721e-08
9.80136e-08
1.38035e-06
5.15468e-07
4.74707e-07
8.99531e-07
1.42656e-07
6.02068e-07
0.0041441
1.90115e-07
3.91657e-07
-2.83168e-08
-9.10197e-05
4.9114e-09
6.84249e-08
-0.000598798
5.14861e-08
0.000503792
1.88454e-07
-2.13953e-07
-2.6987e-08
1.13425e-07
4.72197e-10
2.24464e-07
-2.88007e-08
2.07752e-07
2.66502e-07
0.000806856
1.3639e-05
-0.00138571
5.40898e-08
1.96972e-09
3.49572e-07
1.98841e-07
-0.000232528
-0.00124661
3.28075e-07
1.22265e-08
-0.00449987
-9.08591e-06
-3.38993e-05
4.72731e-05
4.39617e-07
0.00230294
1.192e-07
9.63301e-07
-1.03852e-07
-1.62842e-07
3.16617e-07
1.25623e-05
3.08027e-07
3.70763e-07
8.77283e-07
5.9436e-08
1.40858e-07
6.4301e-07
5.39455e-08
1.00236e-07
2.28035e-09
-1.42876e-08
5.7087e-07
2.75239e-07
4.81981e-07
1.56113e-08
7.30282e-09
4.46182e-09
7.89812e-08
6.01111e-08
1.25911e-07
-2.86742e-08
-0.000827901
1.04309e-06
-2.357e-06
-1.10583e-08
-8.66855e-11
-2.26242e-08
3.30214e-07
2.1225e-08
-0.00011498
-8.92561e-08
0.000190593
6.27164e-07
1.56573e-06
1.18726e-07
6.10494e-09
-3.06798e-08
9.24799e-08
-0.000390307
7.39253e-10
0.00537735
1.10229e-07
-0.000216739
-9.18246e-08
-7.30493e-07
2.0454e-06
3.78147e-08
1.59851e-09
8.41502e-07
2.03266e-08
3.61978e-08
0.000838264
6.17357e-08
9.49845e-09
2.55407e-07
-1.67035e-08
4.24339e-09
1.16215e-07
-2.24082e-06
-0.000312241
9.3718e-08
1.93044e-07
-1.86354e-08
-0.000533696
-6.62921e-08
3.84735e-08
5.14855e-08
0.000366875
0.00770455
-0.000502362
2.1646e-07
3.60385e-07
-1.76863e-08
4.96846e-09
8.73923e-07
1.43169e-07
-0.000102157
3.76272e-07
0.000157221
6.80905e-08
4.57194e-08
-0.000419849
1.34276e-08
4.02376e-07
2.99175e-08
-2.73218e-08
2.01337e-07
-3.00593e-07
1.38245e-07
0.000341413
0.00107
-2.23133e-07
1.25313e-08
1.0232e-07
2.3672e-06
0.00573592
-5.33478e-09
0.0076741
7.83132e-08
8.37561e-08
2.10079e-07
1.37168e-07
0.00227651
1.30103e-07
0.00241177
1.69548e-07
5.76089e-09
3.00501e-08
2.04918e-08
2.06308e-08
3.06128e-07
7.19507e-06
1.69757e-07
1.01004e-07
-7.23093e-05
0.00071673
7.17717e-07
9.15707e-08
5.50858e-07
2.71689e-07
6.73084e-08
2.85431e-07
-0.000844639
3.49715e-07
4.23672e-09
8.34825e-08
-0.00115928
3.94164e-07
-0.00116313
2.92103e-09
2.4567e-08
-5.10021e-05
4.60409e-07
1.47373e-07
-0.000345092
-1.48942e-06
2.18946e-08
-3.65248e-07
-3.05059e-08
1.23281e-07
-4.14681e-09
-0.000958385
6.64553e-08
2.7078e-07
6.86554e-08
0.00243893
5.68618e-07
2.21818e-07
1.20959e-06
1.45309e-07
1.24722e-07
-9.93013e-09
-0.00107367
-1.04452e-08
1.77781e-07
6.99096e-09
2.2813e-06
9.45763e-09
2.21434e-06
0.000974524
0.00568513
-7.01047e-08
0.000853591
-0.000694486
2.63528e-08
-8.48165e-05
-0.00147412
-0.000779004
0.00133144
-8.97384e-05
6.33282e-05
2.39835e-06
4.73848e-08
0.00224368
4.36187e-07
0.00232269
1.08197e-07
5.36687e-08
3.66169e-08
-1.23196e-08
3.26084e-07
2.205e-07
-2.75577e-05
5.41993e-08
1.47523e-08
-0.000268464
-3.89197e-06
2.36684e-08
-3.71475e-06
2.5984e-07
1.427e-07
1.50476e-06
-2.61442e-06
3.49443e-08
4.97435e-07
0.000913421
-0.000517214
-1.15755e-06
2.0315e-07
1.49298e-05
-2.84481e-08
-0.00067015
-0.00101127
1.71543e-06
2.87106e-08
1.89962e-07
6.89586e-08
4.03649e-08
8.56331e-08
2.72021e-09
1.04747e-07
9.37121e-08
-0.000897952
2.21096e-06
2.37849e-07
7.17054e-07
-0.00119144
1.70148e-07
2.79621e-08
-0.000641644
7.73549e-08
3.49637e-08
7.9701e-08
-0.000903652
1.60808e-08
1.79644e-08
0.002834
2.72418e-05
0.00758018
1.85666e-06
0.0019434
1.99818e-08
2.36649e-06
3.01349e-08
-1.11399e-08
3.04951e-08
0.00361434
-0.000622607
1.13495e-07
3.85787e-08
3.11762e-08
0.00752842
7.11944e-08
3.09066e-07
1.93696e-08
5.12614e-08
6.70244e-06
1.51748e-07
2.56632e-07
-1.06751e-05
0.000869877
8.04888e-08
-1.71864e-07
8.26194e-08
-0.000912482
-0.00113374
1.67917e-08
-0.000924392
6.41222e-07
2.43826e-06
1.34926e-08
0.0020484
-4.99815e-08
2.66647e-07
1.20592e-07
1.91052e-06
0.00451444
-2.63472e-05
7.69658e-06
-0.000210418
-2.73669e-08
0.000708329
1.38957e-07
4.93433e-08
0.00255749
3.2739e-08
-8.04019e-09
9.55278e-08
1.4544e-07
-0.000869194
2.77254e-08
-6.99631e-09
5.88782e-07
2.11804e-07
5.31456e-07
-4.9019e-06
2.95615e-06
-0.000370646
1.37739e-06
3.82833e-07
9.77339e-07
-0.000617227
7.09289e-07
-0.000344862
0.0026442
3.93281e-07
1.5544e-07
0.00152138
0.000105436
2.48295e-08
1.73654e-06
2.81737e-07
2.45455e-07
3.43983e-07
1.27485e-07
1.91126e-07
3.84856e-09
4.14484e-07
1.27349e-06
1.31992e-09
2.93256e-07
1.05848e-07
2.38936e-07
-2.82805e-08
-7.1342e-08
4.97319e-07
2.75076e-07
1.66167e-07
1.11686e-07
-6.64998e-05
5.39244e-07
0.00120814
2.0598e-08
5.89197e-08
5.96942e-07
2.94587e-08
1.0744e-06
6.31918e-07
2.46564e-07
1.13323e-06
1.11843e-07
-0.000579784
2.72707e-08
7.46074e-07
-0.000302964
0.00185785
1.71095e-08
6.55988e-08
0.000771433
-8.33318e-09
-2.09917e-09
-0.000745361
-0.00103054
1.51132e-07
5.01712e-06
-1.74136e-08
1.64299e-07
0.00394915
9.0674e-08
3.96704e-08
0.00136876
1.15266e-07
0.00832857
-3.02278e-09
3.08239e-08
3.68386e-08
3.03322e-06
0.000972563
2.43888e-08
3.29278e-08
1.91453e-08
1.37412e-07
-2.91613e-08
1.62735e-05
3.3072e-07
-1.41403e-10
0.00267723
-9.54142e-09
0.00113194
0.000466818
1.16637e-06
1.16949e-07
2.9962e-08
3.30853e-08
-2.81268e-05
9.83092e-08
0.000911235
-0.000677667
4.94681e-08
0.00233824
1.37816e-05
4.20094e-07
3.6279e-06
5.03623e-09
7.42929e-07
0.00492449
-1.70807e-07
-7.74659e-06
8.28708e-06
9.75359e-07
7.25255e-08
-0.000609998
9.52145e-08
1.35698e-07
2.28324e-07
-0.00107576
-1.01327e-07
3.31255e-08
3.37126e-07
1.11982e-06
9.94122e-08
-0.000458902
7.59308e-08
0.00042997
8.72126e-07
-3.86504e-05
2.63368e-06
1.93374e-05
2.64707e-07
1.04573e-07
5.50606e-08
0.00493478
2.6066e-09
6.6414e-08
1.05124e-08
7.76715e-08
6.10274e-08
-5.19573e-07
8.22044e-06
1.59893e-05
1.02507e-07
2.05888e-06
0.0032647
2.65339e-05
7.06844e-08
0.00776764
0.00353183
5.60823e-08
-1.82869e-09
2.92473e-07
-0.000457628
1.04283e-08
5.24636e-07
-8.37971e-05
-2.27662e-07
2.15348e-08
3.30976e-07
1.29642e-07
1.78297e-06
4.22583e-08
-2.79479e-08
0.00158324
0.00233862
-8.41169e-08
0.00736815
1.03684e-06
-0.0358205
5.5069e-08
2.79111e-07
0.00577679
0.00786259
1.72181e-06
-3.57509e-05
1.4081e-07
6.53271e-09
1.46909e-07
6.1261e-08
1.81526e-08
3.16504e-08
3.54456e-07
1.78729e-08
1.29836e-06
-1.52694e-08
2.61897e-07
1.39591e-07
-8.67449e-07
2.63214e-06
0.000240834
2.52832e-08
3.70672e-05
1.45256e-07
0.00672404
1.70256e-08
-6.06584e-08
2.7397e-09
-0.000149156
-0.000895514
3.32987e-06
1.73127e-08
2.05126e-06
3.59275e-08
1.17982e-07
-0.00102021
1.06625e-07
2.924e-08
2.41385e-07
1.73361e-07
0.00251782
1.67993e-08
4.97299e-08
2.58087e-07
1.09535e-09
5.43126e-07
5.14395e-08
-1.12697e-08
5.12561e-08
-0.000718274
1.35047e-07
-0.00017173
0.00163318
2.91482e-07
0.00105241
1.29825e-07
-1.13563e-08
5.51818e-09
-0.000585763
3.80315e-07
3.16772e-08
6.03189e-07
0.00908321
2.35201e-08
-6.24623e-06
3.73068e-07
5.71525e-07
5.9276e-08
2.63991e-08
5.86805e-06
2.82202e-08
5.03642e-09
1.19362e-07
1.46782e-07
3.80509e-08
1.72379e-07
9.03193e-07
-6.81554e-07
0.00312868
5.22345e-07
9.09415e-07
0.00140647
0.000796447
6.92431e-07
9.91614e-06
-0.000433571
3.6278e-07
-0.000846214
2.89309e-08
0.0316947
-5.12307e-06
1.95724e-07
-3.72921e-09
-9.61778e-09
2.67476e-07
2.21808e-07
1.47639e-07
1.42154e-08
1.85335e-06
1.71256e-07
-4.51095e-07
-0.000790692
-1.63293e-08
2.7582e-07
-0.000652431
1.45191e-07
0.000788547
3.83182e-07
1.04409e-07
2.41229e-08
-0.000719249
-0.000627963
3.74598e-08
2.67115e-07
0.00221939
-2.05304e-07
-0.000359165
-2.77038e-08
1.19818e-07
0.00180739
2.32244e-07
1.85336e-07
1.3564e-05
1.56897e-08
3.56825e-07
1.40488e-07
3.17589e-08
-2.54728e-08
0.00220171
-0.000647597
7.7219e-08
2.52654e-07
3.07638e-08
1.16542e-07
7.40013e-07
-0.000647133
3.9102e-08
-1.91846e-06
0.00742053
-2.75693e-05
0.00686922
2.23033e-07
2.71538e-06
1.21884e-07
-1.26104e-07
9.6059e-09
8.64266e-07
-0.000671386
3.65572e-08
1.6516e-07
0.0041509
4.08923e-07
6.2923e-06
2.71505e-08
3.67089e-08
1.2715e-08
1.62027e-08
-0.00053116
5.48596e-07
3.12667e-07
2.74427e-07
8.73577e-08
7.83194e-09
2.72097e-08
1.8067e-08
7.9333e-07
8.704e-07
0.00323039
-3.39937e-07
-7.89326e-05
0.00140034
3.47787e-08
4.19575e-07
-1.09818e-08
-1.19422e-08
-0.000645864
5.2609e-08
7.55731e-08
5.14366e-07
2.03048e-06
-3.44623e-07
0.00245314
0.000395105
7.61575e-08
-0.000201237
3.53276e-08
1.37282e-07
3.78597e-08
5.2192e-09
1.90452e-07
4.79607e-06
0.000302888
1.14835e-07
0.0045207
5.40929e-08
1.17955e-07
8.22663e-08
-2.65433e-06
1.11742e-07
3.94675e-07
-0.00137493
1.03871e-07
0.000148737
0.00157718
-6.02659e-09
-4.05881e-07
-2.68317e-08
0.00100078
5.46855e-07
2.00597e-08
0.00302205
4.29757e-07
-8.52248e-09
9.27359e-09
-0.000588064
-4.85817e-08
1.17419e-05
3.57486e-07
2.19731e-07
-0.000664154
1.0335e-07
-5.96905e-05
2.60899e-08
3.65195e-07
-8.04046e-08
-6.57621e-09
-0.000703715
5.5018e-08
9.21523e-07
3.55744e-07
-9.73634e-07
-1.70752e-07
-3.58922e-07
3.58274e-08
0.00422778
5.15248e-08
0.00100612
6.54925e-08
8.58927e-07
7.34564e-08
1.20455e-07
2.56757e-08
1.48577e-06
0.00525187
6.17366e-08
4.1476e-08
-1.38453e-07
2.07847e-07
0.00218724
1.26606e-07
0.00476261
-1.90815e-05
1.00884e-07
4.37652e-11
7.63936e-10
1.02e-08
5.2578e-09
8.15745e-07
4.40524e-07
-1.72564e-06
1.24494e-07
-1.93232e-08
0.00695101
2.55138e-07
1.12403e-07
0.000807835
2.18094e-08
-0.000105222
5.11346e-07
6.91469e-07
5.0362e-06
-0.000696882
0.001954
0.00578216
0.00114664
2.26586e-08
7.13258e-06
-0.000621099
3.51133e-06
-1.02254e-08
2.51916e-08
1.70857e-06
0.00278278
0.000908919
-2.33751e-05
2.36853e-07
-3.35452e-07
3.78489e-07
0.00143816
-7.63874e-07
5.78314e-07
1.97057e-06
8.22704e-08
5.15477e-08
1.78773e-06
-1.14587e-08
1.16342e-06
0.000103453
8.72192e-09
0.00786168
5.32396e-10
1.2207e-07
-0.000460226
-0.000688243
-1.67537e-08
3.82049e-07
1.0162e-07
1.11527e-07
3.2041e-07
1.28888e-05
3.30029e-07
-1.159e-08
-1.44914e-08
7.41345e-07
1.7518e-07
1.60015e-07
0.00394579
1.8533e-08
-0.00092814
-0.000341186
-2.95775e-05
1.40686e-07
2.55536e-07
0.00680341
3.60763e-07
0.0021405
0.00751602
0.00213763
5.03709e-08
-0.00155842
0.00131129
-1.5276e-08
1.1649e-09
5.58721e-07
-0.00111973
-0.000459678
1.48501e-07
3.55083e-08
0.000742044
-0.0175586
0.00402553
1.16346e-07
9.1151e-08
-6.00445e-07
3.47147e-08
0.000562833
-0.000612638
0.00372156
0.00255047
2.41316e-08
1.72979e-08
-2.65274e-08
-1.40422e-07
1.43159e-05
5.97943e-07
4.13602e-07
2.60609e-08
1.0456e-07
-0.000513063
7.52497e-07
0.00209264
-0.000346353
0.000184367
4.80557e-06
1.05199e-08
-9.4791e-09
0.00513605
2.13044e-08
1.37883e-07
4.89151e-08
-1.39995e-06
3.59683e-07
-0.000743551
1.66609e-06
7.831e-09
-0.00133899
1.69244e-07
5.99823e-08
-0.0003926
1.13251e-06
-2.78109e-09
2.00936e-07
-9.88853e-06
-0.00123619
7.06711e-09
-9.81964e-05
0.00752762
-0.00121879
0.00300815
-1.13288e-06
2.71956e-08
1.35238e-07
-0.000151171
2.22561e-07
0.00612844
1.70952e-07
0.00478984
0.00158485
4.98953e-08
-4.78177e-10
3.11348e-08
3.44731e-08
-0.00105528
0.000718213
1.56366e-08
-0.000512857
5.755e-07
3.4149e-08
6.26769e-08
5.58011e-09
5.3479e-06
9.86301e-08
3.7731e-06
-5.24284e-07
2.85769e-08
-2.90137e-08
-4.19481e-06
-0.000602017
3.45797e-07
8.25747e-08
1.58812e-07
2.42884e-08
1.70276e-07
4.04666e-07
-0.00041239
0.000847384
-0.00118287
4.63206e-09
-2.64231e-08
5.0885e-08
2.47409e-06
1.0278e-08
5.35535e-08
8.79484e-06
5.3575e-07
0.00695958
1.88748e-07
-0.00124047
0.000916876
-3.56341e-09
-0.000368788
1.67312e-06
6.75603e-07
-1.052e-05
4.59695e-08
-0.000810054
5.73862e-08
4.03482e-08
6.09474e-08
1.80304e-08
0.000147021
5.35627e-08
3.44915e-07
-2.69086e-07
0.00131067
0.000984708
-6.78131e-10
-3.29878e-08
1.28074e-07
7.81695e-08
2.74681e-06
2.63746e-08
4.93631e-07
2.56403e-07
-0.000645995
2.75469e-07
0.00162049
1.35258e-08
-0.00144047
1.18672e-07
2.3681e-08
-0.0012591
7.62252e-06
5.59936e-06
0.00348074
2.20479e-07
4.01523e-07
1.73703e-08
-0.000764934
1.73714e-08
9.95677e-09
-7.13654e-07
1.00286e-06
-0.000912203
-0.000786451
1.86285e-06
-0.000102138
6.55955e-07
0.00366604
7.9148e-08
2.42584e-07
4.22e-07
-0.00111134
5.77495e-08
-0.00110424
0.000205024
2.19458e-07
2.43489e-08
2.96552e-08
0.00223053
7.53895e-08
2.39192e-07
-3.04291e-09
6.18632e-08
1.6293e-07
3.83189e-07
0.013398
-7.13435e-06
-2.08048e-08
-1.6783e-05
-3.7629e-07
-0.000639762
5.0775e-07
7.20147e-08
1.57481e-07
-0.00131421
-2.8839e-08
6.7143e-07
0.00444408
4.33451e-08
1.26389e-07
-1.61503e-05
1.60219e-06
3.8354e-08
-0.00016319
5.48555e-08
0.000362723
8.83746e-07
1.52214e-07
2.48745e-07
-0.00118218
-1.07105e-08
-6.37604e-08
3.42161e-06
-0.00112166
3.25409e-07
3.88943e-07
4.10787e-07
-3.1099e-07
9.45122e-09
-0.00112927
3.9683e-07
1.40873e-07
2.87205e-07
-1.70622e-08
-4.39354e-10
-1.23764e-06
8.00315e-09
-1.89199e-08
3.12216e-08
1.758e-06
2.61356e-08
1.18269e-07
7.6959e-07
5.37409e-06
1.42942e-06
9.7881e-09
6.55138e-06
2.96574e-07
6.09046e-07
4.06532e-07
1.191e-06
2.4807e-06
0.00588294
8.92232e-06
-5.00606e-10
0.00127933
0.00388319
-2.82375e-10
1.4713e-07
1.29035e-08
-1.30912e-07
9.50355e-07
1.86135e-07
-1.21703e-07
-0.00108828
-2.3285e-08
2.82022e-08
0.00229022
0.000305782
7.9601e-07
2.60472e-08
0.000487852
0.00160644
-4.62139e-07
1.24803e-10
-0.0011139
1.68725e-06
1.82159e-07
-0.00101025
2.7671e-07
1.12262e-08
2.89406e-07
3.24662e-06
3.98854e-07
0.00270933
-0.00128002
4.28402e-08
0.000696765
1.1759e-06
-0.000716291
1.63602e-08
-7.51951e-07
2.60952e-08
2.79603e-08
-0.000127929
0.00749754
-0.00449264
0.00771328
6.16918e-08
3.80435e-07
4.43276e-08
-0.00126457
0.00059169
1.86402e-08
8.2204e-08
2.02132e-08
1.55004e-07
4.57772e-07
0.00155037
-0.000749141
3.48795e-07
1.25857e-07
2.09429e-07
-0.000430485
9.61511e-08
4.45916e-07
4.73197e-08
5.06917e-08
-1.07326e-05
0.00707187
0.00465673
-9.55859e-06
-1.0588e-08
-0.0167783
5.2149e-08
-4.59272e-08
-0.00108033
-0.000405163
7.74913e-09
7.8471e-09
7.37376e-07
1.4136e-07
2.77362e-08
0.000190879
-0.00111786
8.80183e-08
4.86227e-08
6.33286e-09
-1.02119e-08
2.60296e-06
1.24704e-07
0.00255434
1.42508e-06
1.16368e-06
6.43607e-08
-1.25295e-07
-0.00134173
4.33403e-07
-3.94379e-06
-0.0010178
3.70168e-08
-0.000724401
2.90565e-07
7.5234e-07
3.06546e-06
-0.000593544
-0.000708301
1.29339e-06
2.25347e-08
5.13733e-07
1.22859e-07
1.87947e-07
2.69266e-08
0.0026263
1.57459e-07
0.00623643
8.07254e-05
2.93134e-07
7.55737e-09
-3.53001e-05
3.46617e-07
1.16197e-09
-1.0805e-06
9.62023e-09
9.67892e-07
2.85155e-07
2.76807e-08
-0.00068843
6.33075e-08
3.62318e-06
3.93414e-08
1.3992e-09
-0.00111196
0.000434129
6.86425e-08
1.12408e-07
6.97764e-07
3.12919e-07
8.43349e-07
4.54006e-07
1.01436e-07
2.59925e-07
6.14697e-05
1.76003e-08
0.00316727
2.9956e-07
7.70745e-05
2.60503e-06
1.39515e-07
0.000373652
4.00393e-09
0.00399679
9.90235e-08
-0.00112069
0.00275366
0.00152417
0.00172617
0.00598428
9.25901e-08
1.72609e-07
0.00116422
-3.67165e-08
1.92234e-08
-0.000481446
0.00240721
2.4146e-08
3.17551e-07
1.42326e-07
1.44001e-07
4.983e-07
-0.000834267
-3.07682e-09
6.83142e-07
6.40542e-07
3.17465e-08
-1.18363e-08
1.1893e-06
6.09948e-08
0.0036983
5.15706e-08
1.61966e-06
2.00969e-07
3.63506e-07
8.43895e-07
0.00702317
2.74853e-07
3.60699e-08
8.4947e-07
0.00203412
-0.0012812
2.20144e-07
0.00470799
3.23734e-07
1.20499e-06
1.8204e-08
5.2697e-08
0.000132846
1.05336e-06
-0.000560808
-0.000564246
3.46142e-07
-0.00135296
3.61423e-08
7.05434e-08
-0.00049847
-8.3437e-07
6.30713e-08
-4.52875e-05
1.59571e-07
-6.35361e-09
2.05685e-07
4.98083e-07
8.07148e-08
0.00317417
0.00413577
-0.000224736
-0.0164758
1.81876e-07
3.80493e-07
-0.000580585
5.87032e-08
3.40361e-08
-6.19948e-07
5.88269e-09
-6.09727e-06
-0.00102394
0.000387452
-0.000132876
6.36414e-07
2.30094e-07
-0.000987625
3.17246e-08
9.6354e-07
7.75116e-10
-0.000803257
8.14118e-08
3.85931e-08
0.00034023
1.7764e-06
-2.12525e-08
7.95182e-08
-1.3796e-05
2.32964e-08
6.23922e-06
6.26366e-08
-0.000119273
-0.00111585
1.14318e-06
2.62392e-06
-1.94757e-08
-1.87264e-06
4.37992e-06
3.34289e-07
6.20647e-08
2.56698e-07
-2.45076e-08
6.9981e-07
7.6238e-09
1.14391e-06
2.30421e-08
8.65216e-08
-0.00154683
7.00982e-08
1.59625e-07
3.89345e-07
5.4717e-09
0.000462443
5.43753e-08
1.97074e-07
-0.000477161
9.73219e-07
0.00289113
2.24546e-08
-0.00121533
1.10004e-06
-0.000294895
7.68143e-08
2.72215e-06
2.22244e-07
3.97398e-07
1.19359e-06
1.46162e-06
-1.71325e-05
-0.00109613
4.65808e-06
0.008228
-5.21004e-08
1.80205e-06
1.50596e-08
0.00557384
5.62878e-08
1.9301e-07
2.0303e-08
6.35757e-07
-1.55201e-07
0.00760355
4.57399e-07
0.00556718
0.00106387
-5.15268e-07
3.17241e-08
0.00592936
-7.3548e-07
2.99596e-08
5.4092e-08
2.56059e-08
0.00604781
1.81657e-08
8.80962e-05
6.46554e-08
4.05831e-07
-0.000794474
1.23067e-07
6.65119e-09
1.85275e-08
-0.000696333
4.68606e-08
5.42131e-08
2.59978e-07
1.59314e-07
1.88039e-07
3.93834e-08
7.00235e-06
-7.43642e-07
2.96221e-07
-0.00011681
-0.000863086
0.000444067
-0.000743895
9.39303e-09
2.3914e-08
-6.68377e-08
2.22832e-07
-2.72092e-08
0.00420081
8.61743e-05
2.6837e-08
1.78579e-08
0.0016308
0.00679609
2.75481e-08
4.03771e-08
-8.80136e-08
-0.00106769
0.00285737
1.72872e-07
1.02845e-07
5.96601e-10
-0.00220105
2.00591e-06
2.14661e-06
-1.99031e-07
6.54555e-07
2.70078e-08
2.02745e-07
-0.000707278
3.64944e-08
1.32257e-07
1.60806e-07
0.00388265
3.89133e-08
-0.000463481
-6.46959e-09
2.11134e-05
7.09622e-08
3.18022e-07
-3.17739e-09
2.37404e-09
1.01099e-05
0.000516684
-8.44612e-07
0.00106789
-0.00112974
3.6791e-08
-0.00072009
3.90865e-06
2.26387e-08
0.0067528
0.000835863
1.53497e-06
9.64418e-09
0.00114247
-0.000729844
1.57416e-07
-6.37743e-07
0.000655925
5.44839e-09
3.19166e-08
7.83477e-08
1.18593e-07
2.67267e-07
7.31868e-07
0.00064164
-5.8278e-07
3.80128e-07
8.67006e-09
3.5029e-08
0.00631417
5.12729e-08
1.5757e-07
-6.91499e-08
2.69697e-07
3.73627e-07
4.71663e-09
5.29142e-08
0.0185986
-1.32945e-08
-0.000907921
1.11597e-08
-0.0938398
0.00107232
8.99449e-07
4.30716e-08
4.85485e-09
-0.00116932
2.0438e-08
1.30401e-07
2.84719e-08
1.28326e-06
0.00456155
2.90241e-07
0.000612032
-4.85659e-07
0.00876296
2.34496e-08
7.2364e-07
1.45285e-07
4.12119e-10
-0.000500629
0.000194755
0.00112528
1.0603e-07
6.6153e-07
7.06942e-07
-0.00086029
-0.000743087
0.000437807
1.7119e-07
2.61172e-08
-0.00104687
1.00374e-07
1.01142e-07
-0.000109778
1.51055e-06
-1.30216e-08
-6.0929e-07
-1.44573e-08
2.32876e-07
1.88319e-07
-0.00136768
2.97631e-07
-1.19407e-08
-0.000410434
6.61183e-07
5.83379e-08
0.00127064
-2.07495e-08
-2.35741e-09
5.49711e-06
7.95393e-07
-0.000653612
5.19353e-08
3.79535e-08
1.93979e-08
-3.86004e-06
4.11864e-08
-4.86476e-07
0.00727311
0.000984202
0.00137033
0.000554895
2.9872e-07
-0.000904872
-2.98666e-06
-5.90582e-11
2.43987e-07
-1.38518e-07
3.4071e-08
2.19652e-06
-0.00069963
-0.00102603
0.00148615
-7.33783e-07
3.35232e-08
1.02464e-06
-2.51217e-08
-0.000499627
2.81563e-07
3.04154e-07
1.73624e-07
1.29999e-07
3.51934e-08
6.11641e-07
-0.00107273
1.97795e-09
1.39136e-07
-2.71293e-08
-0.000847241
1.51828e-07
-0.00154927
0.00251248
0.00313581
9.83012e-09
3.32001e-08
-0.000425597
1.83806e-06
5.11468e-09
1.36261e-06
3.34799e-09
4.8531e-07
2.35363e-07
4.26733e-07
5.67114e-07
0.000758095
4.80925e-08
1.47708e-07
-6.80056e-05
0.00150409
1.5476e-07
-2.99639e-07
2.61578e-08
0.000798877
1.36513e-08
-2.73286e-08
1.2696e-07
2.40918e-08
-3.17672e-05
-0.000493307
0.0075813
9.64942e-07
-0.00117129
0.00619927
1.50075e-08
4.62155e-07
3.1691e-08
4.97612e-07
1.55352e-07
5.67091e-08
2.00278e-08
-1.65519e-09
1.11229e-07
0.000278972
3.15438e-07
-5.60908e-06
1.8862e-07
-6.35225e-07
1.49094e-07
-7.11542e-07
-2.47632e-09
4.27009e-07
6.44482e-07
3.83379e-07
-0.00134152
2.12705e-09
0.000153106
5.01602e-07
-1.30564e-07
9.67929e-08
1.47538e-08
0.00117091
-0.000194471
1.56758e-07
8.48397e-08
0.00022214
-0.000383153
1.79446e-07
0.00012802
4.18384e-08
0.00216043
4.84829e-07
1.74905e-08
0.00399886
3.68201e-07
0.00239335
2.03807e-08
1.08201e-07
-3.49019e-09
-0.000530595
0.00084893
2.37986e-08
1.45241e-05
-4.94774e-06
-2.44741e-08
8.79285e-08
-8.6338e-09
8.99267e-06
-0.000562177
3.18158e-07
4.60197e-07
2.12046e-07
-5.90977e-10
2.81477e-08
1.79805e-07
-1.36227e-08
4.12919e-05
2.6735e-08
9.38728e-07
-6.51475e-05
1.54859e-07
2.78513e-09
0.00354103
8.1442e-07
-1.61874e-09
5.30835e-07
4.10735e-07
0.00699616
3.14056e-09
-0.0016203
2.72319e-07
3.27841e-08
-5.06539e-08
8.43819e-07
1.69424e-07
-0.00157855
9.51861e-07
7.17502e-07
0.00828764
3.36883e-08
4.45506e-07
-3.58567e-07
-8.01724e-08
-7.2633e-10
2.67426e-08
1.63424e-08
1.77628e-07
7.90447e-07
7.69418e-07
0.00160046
-0.000652952
0.0025619
4.39673e-09
6.29526e-07
0.00147143
-0.000455995
2.16532e-08
3.60861e-08
5.31088e-07
0.00290125
5.75188e-08
5.28892e-07
0.000166085
-0.000640595
-0.0265103
1.01014e-06
9.76976e-06
0.00154517
0.00208602
7.60109e-08
0.0210076
-0.000126792
1.06936e-07
2.0419e-07
6.2766e-08
-0.0011961
-2.45879e-08
0.00380331
1.17519e-07
0.00268712
8.35042e-08
0.00874635
0.000736923
3.44868e-08
4.61181e-07
-0.000992047
0.0063077
2.80136e-07
1.39675e-07
5.22149e-08
3.15998e-08
6.98649e-07
2.07383e-06
0.00382735
-0.000531409
7.57986e-08
-0.000439256
6.75626e-07
-4.7338e-06
-2.42347e-08
-1.19406e-08
0.000756851
-8.12767e-07
2.5505e-08
2.99189e-07
-4.64249e-08
1.85818e-07
0.00357891
0.00318484
-0.00132065
-0.000845411
7.45945e-08
1.13658e-07
7.26626e-07
0.000678894
-0.000177267
1.29016e-07
7.17148e-06
-3.64665e-06
2.92547e-07
3.74994e-07
4.10391e-09