/*--------------------------------*- C++ -*----------------------------------*\
| =========                 |                                                 |
| \\      /  F ield         | OpenFOAM: The Open Source CFD Toolbox           |
|  \\    /   O peration     | Version:  v2012                                 |
|   \\  /    A nd           | Website:  www.openfoam.com                      |
|    \\/     M anipulation  |                                                 |
\*---------------------------------------------------------------------------*/
FoamFile
{
    version     2.0;
    format      ascii;
    class       surfaceScalarField;
    location    "200";
    object      meshPhiCN_0;
}
// * * * * * * * * * * * * * * * * * * * * * * * * * * * * * * * * * * * * * //

dimensions      [0 3 -1 0 0 0 0];
oriented        oriented;


internalField   nonuniform List<scalar> 
20673
(
-0.000494194
-0.000115911
0.000605689
0.000604773
0.000323101
-0.000939642
0.000136467
-8.57602e-05
-5.06332e-05
0.000480452
-8.88356e-05
-0.00038076
0.00128804
-0.00139641
0.000104077
0.000359623
-0.000377994
1.84732e-05
0.000138896
-9.9742e-07
-0.000137407
-6.75306e-05
8.27595e-05
-1.53155e-05
4.81191e-05
-4.88671e-05
8.10052e-07
0.000423603
1.71515e-05
-0.000445235
-0.000177954
5.30015e-05
0.000125791
-0.000207296
0.000299593
-9.19839e-05
0.000260488
6.53442e-05
-5.38488e-05
-1.14074e-05
0.00077689
-0.00112867
0.000347581
-0.00027997
-0.000699245
0.000972652
-0.00123636
0.000546872
0.000678389
0.000283725
-0.000113543
-0.000171741
0.000144798
-0.000364305
-0.000637936
0.000747897
-0.000131423
-0.000234918
3.27375e-05
0.000203559
2.75222e-05
0.00011149
-8.39572e-05
-0.000830995
0.000899595
4.55353e-06
-7.20147e-05
0.001345
-0.00137275
1.70424e-05
-0.000173897
0.000137513
3.6501e-05
0.000262685
0.000395678
-0.00065818
-0.000162399
0.00048948
-0.00032633
-0.000262817
0.000424988
-0.000162218
-0.000123161
0.000363956
-0.000241425
-0.000152584
-0.000398081
0.00054726
-0.00026884
-0.00044397
0.000706492
0.000581645
0.000181529
-0.000763
0.00026479
-0.000973547
0.000708893
-0.000677973
-0.00070403
0.00137693
-3.58275e-05
-9.33042e-05
0.000129028
-0.000865917
0.000766708
-6.40354e-05
1.90233e-05
4.50587e-05
-0.000444757
0.000413295
-0.000177938
0.000159546
1.86018e-05
-0.000107396
-4.80011e-05
0.000101092
8.11418e-06
-7.59062e-05
7.35716e-05
-4.82371e-05
-0.000166141
0.000210167
-0.000593506
0.000501426
9.28017e-05
0.000418803
-0.000764894
0.000336386
0.00100265
-0.000902989
-9.9553e-05
5.42956e-05
0.000228974
-9.1607e-05
-1.81651e-05
0.000110396
-0.000305626
0.000278002
2.77264e-05
-1.38625e-05
0.000126093
-0.00015501
0.000261174
-0.000204831
-5.96072e-05
0.000830072
-0.00131566
0.000484657
-0.000339955
3.43592e-05
0.000925736
-0.000660721
-0.000823887
-0.000423039
0.000390541
1.14369e-05
-0.00040465
-3.22397e-05
-0.000144708
-0.00113878
-0.000446462
0.00157378
0.000676345
-0.000418351
-0.000273217
-0.000289613
0.000698839
0.000225358
-0.000259345
3.44355e-05
0.00117869
-0.000587655
1.90762e-05
-0.000819962
0.000161378
0.000413856
-5.41677e-05
2.88356e-05
0.000278268
-0.000307397
-0.000125315
0.00134893
0.00131823
9.72237e-05
-6.05957e-05
6.10816e-05
-1.26732e-07
0.000409236
0.000231161
-0.000644545
-5.70844e-05
0.00134192
2.7521e-06
4.54769e-05
-3.81646e-05
5.93661e-05
-2.11081e-05
0.00151847
-0.000184218
-0.000278949
-4.59088e-06
0.000283714
0.000403538
-0.000145805
-0.000251442
-3.76892e-05
2.03775e-06
3.57199e-05
0.000649699
-0.000420883
-0.000237966
0.000194194
1.69184e-05
-0.000210275
-5.58498e-05
-0.000438468
0.00049539
-0.000658852
0.00019644
0.000456432
0.0010804
-0.000364791
0.000388134
-2.29488e-05
-7.07314e-06
-5.6873e-05
0.000238516
-0.000270114
3.16025e-05
0.000291058
0.000351215
-0.00062458
0.000664274
-5.13477e-05
-0.000216792
0.000245381
0.000213003
4.82468e-05
0.000126037
-0.000170361
3.02897e-06
-3.60546e-05
3.31516e-05
-6.86407e-05
0.000490751
-0.000426866
-0.0010923
0.000526595
0.000548607
0.000371994
-0.00114532
0.000769061
8.73429e-05
-0.000304354
0.000307435
9.05819e-05
-0.000397776
-9.52421e-06
-6.57599e-05
7.59488e-05
0.000133931
-0.000114702
-1.90849e-05
-0.00032464
0.000253079
7.25574e-05
-0.000287827
-0.000300699
0.000589456
0.000304031
0.000277444
-0.000612012
-0.000451092
0.000837148
-0.000385839
-0.000395653
-0.000197154
1.56203e-05
-0.000307756
0.000289477
-0.000670073
0.00080059
-0.000151805
3.18313e-05
-6.63059e-05
3.45255e-05
0.000433961
-0.000455249
2.10839e-05
5.84868e-06
-9.73328e-05
0.00127595
-0.000741367
0.000403653
0.000122755
-0.000529554
0.000121761
-0.000149193
2.7472e-05
-0.000214979
3.72566e-05
-0.000310354
7.85011e-05
0.000231678
6.25534e-05
-3.06781e-05
-0.000272523
0.000994693
-0.000722194
-0.000330775
0.000219588
0.000111215
0.000883971
0.000440911
-0.0013414
-2.0156e-05
-0.000291961
0.000312406
6.01114e-05
5.1673e-05
-0.000111759
-0.00098853
0.000251427
0.000737335
0.000216844
-0.000203475
-6.07165e-05
1.20693e-06
9.58098e-05
-3.32736e-05
-6.24136e-05
-0.000639442
0.000477644
5.59665e-05
-0.000159292
6.21663e-05
-0.000817358
0.00118432
0.000789929
-0.000471845
-0.000328806
-7.64923e-05
8.42953e-05
-0.000237591
5.3681e-05
0.000162934
-7.04272e-05
-7.55823e-05
-1.42701e-05
8.99791e-05
-0.00117032
0.000897777
-0.000549353
-0.000226712
-0.000217875
-1.39764e-05
-8.74073e-05
0.000164325
-7.67952e-05
-7.23977e-05
7.69976e-05
-0.000600171
0.000101738
0.000155736
-0.000443366
0.00132449
2.91519e-05
-0.00075971
-0.000228484
5.26594e-05
9.31307e-05
-0.000146014
0.00036884
-0.000739558
0.000355695
0.00122126
0.000122107
-0.00134575
-5.16372e-05
-0.000415038
0.00046774
0.00125627
6.41489e-05
6.14041e-05
-2.34632e-05
-3.77721e-05
-0.000223046
0.000431129
-0.000208507
0.00140335
-0.000573882
0.000344505
-0.000650529
0.000291661
0.00057584
0.000156382
-0.000738876
5.51121e-05
3.85377e-05
-9.36945e-05
-0.000152156
-0.000178602
-0.000169879
3.71044e-06
0.000167649
-0.000744678
0.000650571
9.12006e-05
-0.000107239
-0.00051497
0.000614942
0.00037296
-0.000127098
-0.000245827
-0.00036199
0.00076627
7.69217e-05
-7.1456e-05
-5.41552e-06
-6.11788e-06
-3.1621e-05
7.31549e-05
-0.000160394
0.00084383
0.000203176
-0.00104852
-0.000522825
0.000758421
-0.000235592
-0.000437249
0.000536732
-9.59126e-05
7.45558e-05
-8.39197e-05
-1.18627e-05
-0.000297368
-0.000271674
-5.2082e-05
-0.000299129
0.000311962
-7.53866e-05
0.000103713
-2.78154e-05
0.000870995
-0.000567206
-0.000318027
-0.000779743
0.000328489
-0.000226285
-0.000448213
0.000670408
-1.61191e-05
-0.000109358
0.00012551
-0.000139169
0.000301359
-0.000160771
0.00120886
-0.000558523
-0.000659978
5.05827e-05
-4.34119e-05
-7.1107e-06
0.000623824
-0.000627924
1.55742e-06
4.16322e-05
-0.000117335
-0.000295241
0.000275163
4.93312e-05
1.21782e-05
0.000981172
0.0001068
-0.00110452
-0.000416722
0.000342765
-0.0005993
0.000443033
-0.000312231
0.000666113
-0.000787591
0.000151658
0.000154248
-0.00081206
0.000655927
-7.2316e-05
-0.000101523
0.000281101
-4.06214e-05
-0.000240588
0.000102962
0.000269594
0.000298692
5.15431e-06
-0.000305508
-0.000221904
4.21415e-05
0.000180587
-0.000116084
0.00010833
8.18537e-06
0.000235599
2.97499e-06
-3.68008e-05
0.000300789
-0.000264586
-0.000141081
0.00109002
-0.000964812
-0.0004942
0.000483919
1.05637e-05
-0.000369533
0.000632483
-1.00225e-05
-4.60001e-05
-0.000689157
-0.000418459
-0.000391615
-2.83169e-05
0.000419384
1.33027e-06
0.000251665
-0.000253386
-2.57393e-05
0.000132557
-0.000104874
-0.000122928
7.61838e-05
9.47823e-05
8.6068e-06
-0.000101421
9.59381e-05
-4.28135e-05
2.05096e-05
-5.86286e-05
-0.000107814
3.48652e-05
7.3311e-05
0.000637839
-0.00132025
-0.00133931
0.000189924
0.000114621
1.95749e-05
0.000170694
-6.65821e-05
-0.000104132
-0.000209113
0.00142752
0.000113313
1.27591e-05
-0.000126867
-6.39996e-05
4.30089e-05
2.10388e-05
-0.00025425
3.35674e-05
0.000147203
-0.000837538
-0.000327945
0.00045032
-0.000121241
0.000139938
-0.00010049
-3.9623e-05
-0.000133379
9.68774e-05
3.65937e-05
-0.000165368
0.00099411
-0.000841586
0.000246985
-2.16122e-05
-0.000425036
0.00138699
-0.000292187
0.000232792
5.87753e-05
-0.000195237
4.33676e-05
-5.50277e-05
1.84441e-05
3.66697e-05
3.52743e-05
-7.01424e-05
3.48114e-05
-0.000951083
0.000665334
-0.000168821
-0.000291599
0.000459409
-0.000555323
0.000441633
-0.000797094
0.000920361
-0.000122964
8.70712e-05
0.000169546
-0.000307263
0.000294976
1.51803e-06
-7.4418e-05
0.000112935
-3.84451e-05
-3.4694e-05
-2.92463e-05
-0.000224133
-0.000138184
0.000325524
0.000381972
-0.000656229
-3.83191e-05
4.14203e-05
0.000235977
-0.000220755
-1.53323e-05
-0.000483494
4.20554e-05
0.000457389
0.000503352
-0.000985972
2.5631e-07
-0.000177723
-8.0452e-05
2.62899e-05
5.4638e-05
3.1872e-05
-3.01306e-06
-3.20185e-05
0.000102608
9.7847e-05
-0.000200126
-0.000188119
9.60145e-06
0.00017797
9.47562e-05
-0.0006179
0.00033673
-0.000584681
0.000244017
8.74115e-05
0.000446806
-0.00026602
0.000754026
-0.000491152
-1.72985e-05
4.65807e-05
-2.91795e-05
-0.000102709
0.000178691
-7.51316e-05
-0.000389206
-1.06281e-05
0.000397752
-0.000518715
0.000472936
4.64451e-05
0.000495887
0.000283778
0.00094861
-0.00140514
-0.000189673
4.50514e-05
0.000146657
-0.00022518
0.000161621
6.35417e-05
-1.10033e-05
-0.000157117
0.000681516
-0.000528812
0.000942852
-0.000170294
-5.73321e-05
6.30374e-05
-6.92712e-06
3.9816e-05
5.597e-05
-0.000136567
0.000138704
-1.32646e-06
-0.000205464
2.1659e-06
0.000203576
3.7337e-05
-0.000854947
-6.08529e-05
7.70257e-05
-1.59279e-05
-6.08438e-05
1.8283e-05
4.27368e-05
1.75822e-05
5.93131e-05
3.08244e-05
0.000163664
9.78328e-05
0.000309434
-0.000573384
0.000153158
-3.7718e-05
-0.000171325
-0.00021107
0.000187302
2.4351e-05
-2.19097e-05
4.24139e-05
-2.03725e-05
0.00012223
-6.9345e-05
-5.29884e-05
0.000314923
0.000345243
-3.8443e-05
-6.90354e-05
0.000162591
-0.000409665
0.000116232
-0.000145022
8.91362e-06
5.2857e-05
0.000105547
-0.000158196
-0.000619773
0.000710848
-0.000111548
4.61503e-05
4.47068e-06
-0.000128995
0.000106024
2.2855e-05
2.00124e-06
0.00109542
-0.000480548
-0.000620295
-0.000476103
-0.000271659
0.00041154
0.000346702
0.000150907
-4.82887e-05
0.000888674
-0.000235314
-0.000657352
0.000218802
-0.000286489
6.26382e-05
0.000177317
4.65333e-06
-0.000181729
-0.000102492
2.80799e-05
-3.02294e-05
-0.000105887
-0.0011014
0.000921563
7.12975e-05
-5.1362e-05
-1.98064e-05
-0.000901494
0.00102518
-0.000104529
0.000304797
-9.12121e-05
-0.000585616
0.00145239
0.000133767
-0.000357049
-0.00023642
0.000116241
8.36649e-05
-0.000243626
-4.90476e-05
-0.00034138
0.000673544
0.000438265
0.000418548
2.11501e-06
9.43548e-05
-0.000783055
0.0010201
-0.000247466
3.14521e-06
-0.00016618
0.000163166
0.000544581
7.66601e-05
0.000336721
0.000143744
0.000486031
-0.000600342
0.000103802
0.00143266
-0.000494214
0.000151479
-3.97705e-05
-0.000111605
5.63141e-05
2.39875e-05
-8.0333e-05
-0.000802265
0.00122916
0.000112666
1.53046e-05
-0.000175392
-0.000138884
0.000192203
0.000747189
-0.00132569
0.000560771
3.56861e-05
2.38261e-05
0.00071544
-0.000242265
-3.70166e-05
-1.78903e-05
-0.000217125
1.66906e-06
0.000215688
-5.08779e-05
0.000395409
-0.000345539
0.000142339
-1.03115e-06
-0.000140573
0.000262779
-0.00028117
1.86767e-05
0.0012301
-0.000387798
0.000209672
-0.000136755
-9.32034e-05
-0.000253341
0.000347494
0.000379725
0.000710213
-6.7721e-05
-1.23758e-05
0.000346878
4.0976e-05
-0.000388678
0.00133418
-0.000733011
-0.000609534
-9.72326e-05
4.01708e-05
5.70016e-05
-0.000161781
-0.000332261
-3.19549e-05
-2.87504e-05
-0.000507867
-0.000526129
0.00103397
-0.000134102
0.000130513
3.709e-06
0.000397661
-0.000671001
0.000267429
-0.000181665
1.83294e-06
0.000179866
-0.000458011
0.000365542
0.000671203
-0.000326369
-0.000345929
0.000225079
0.000444549
7.02931e-05
6.62524e-05
-9.10463e-05
-0.000509143
0.00059855
0.000453971
-0.000683927
0.000137356
-1.54475e-05
0.00126474
-0.000159501
-0.00111049
-0.000513839
0.00108743
-0.000580886
-5.90006e-05
5.35028e-06
-0.000464332
7.19729e-05
0.000887257
-0.00137902
0.000479584
-9.19838e-05
-2.37364e-05
-0.000362211
9.96805e-05
-4.88799e-05
-0.000515068
0.000527978
-5.40521e-05
0.000114095
-8.29701e-05
0.000132929
-4.98069e-05
-0.000745152
0.000103916
0.00050282
0.000567199
-0.00109355
-0.000876055
-1.62492e-05
-0.000289856
0.000620248
0.000174501
2.84044e-06
-4.97395e-05
4.79825e-05
1.87057e-06
0.000340637
-0.000431462
9.01317e-05
2.6887e-06
0.000148884
0.000932215
-0.00154409
0.000599792
-0.000391354
1.19208e-06
0.000171795
6.29023e-05
-0.000234668
0.000109438
-0.00010498
-4.19439e-06
0.000112615
-4.32027e-05
2.13945e-05
-3.09762e-05
0.000639475
-0.000380601
-0.000285739
2.22256e-05
-0.000227134
0.000983962
-0.000327899
-0.000678918
0.000246494
3.9369e-07
-0.000708507
0.000409523
0.000271902
-8.86592e-06
-0.000203964
1.52354e-05
0.000279037
-0.000137783
-0.000129661
-0.000422304
-0.000195779
0.000614608
0.00014
-2.5458e-05
-0.000348066
-7.05668e-05
0.000189448
-5.47783e-05
-0.000135677
2.34851e-05
-0.000237938
0.000215338
-3.82342e-05
-0.000143421
-4.96652e-05
-8.36452e-05
-0.000693499
0.000425036
0.000498636
-7.76105e-05
0.000758072
-0.0003224
0.000108784
0.000127164
6.39298e-05
-0.000146483
8.26437e-05
-0.00167204
0.000764034
0.000895942
0.000179452
3.03838e-05
-0.0015263
0.000296985
0.00122121
-0.000107247
0.000134741
-2.73103e-05
-0.000154054
-7.36166e-05
0.000447189
-0.000540055
-0.000461483
0.000760087
-0.000305401
0.000107439
-0.000220273
0.00011209
-0.000848309
0.000379131
-0.000139737
-8.54298e-05
0.000218886
-0.000306264
8.7228e-05
-7.00911e-05
-3.87818e-05
0.00010929
0.000471656
-0.000371277
-9.97225e-05
0.000713328
0.00061259
4.75359e-05
-0.000374788
0.000218908
-0.000124861
0.00102465
-0.000919791
-3.08821e-05
-0.000122452
0.00138071
0.00147524
-0.00021278
-0.0012683
-0.000294593
0.000170903
-8.04475e-05
1.78538e-05
0.0010912
0.000490158
-0.00158966
0.000107953
0.000858362
0.000193154
-1.88809e-05
-0.000361696
0.000307418
2.03549e-05
-0.000154261
-0.000243144
0.00017022
7.3023e-05
-0.000313881
0.000248313
6.56227e-05
-0.000285491
0.000248144
-0.0001964
0.000113867
8.26053e-05
-0.000112926
7.79153e-05
3.50926e-05
9.90816e-05
1.11819e-05
-0.00042971
0.00134945
-6.31344e-05
0.000190387
-0.000127471
-0.000154044
-0.000285823
0.000479591
0.000185452
-0.000671017
-0.0010241
0.000869308
-2.92203e-07
8.23808e-05
8.85506e-05
-0.000151721
-9.10446e-05
0.00037301
0.000597579
-0.000975376
0.000167584
-0.00012176
-4.61101e-05
0.000691691
-0.0012
9.04507e-06
0.000403033
0.000170255
1.88769e-05
0.00110759
-0.000180575
-0.000935676
-0.000233348
4.2328e-05
0.00019154
0.000801715
0.000462362
-0.000142834
-0.000122061
6.15759e-05
-2.58048e-05
-6.40048e-05
0.000105519
4.4476e-05
-0.000108696
-0.000357255
0.00042566
-7.00647e-05
-8.68754e-05
-0.000226977
-2.51279e-05
-7.19753e-05
9.00216e-05
8.16964e-07
-9.07005e-05
-2.79551e-05
-9.90533e-06
3.79223e-05
0.000218676
-0.000119173
-0.000122714
-0.000158129
0.000139776
1.83671e-05
9.42465e-05
0.00100471
0.000457107
0.000902531
-0.00136808
-4.82444e-05
-7.75577e-05
0.00012611
-0.000156166
4.80572e-08
-2.84295e-05
1.47185e-05
0.000330191
-0.000293005
-3.85474e-05
-7.64908e-05
-4.93756e-05
0.000126601
-4.26059e-05
1.52769e-05
2.73589e-05
0.000734773
-0.000875272
7.13092e-05
-8.01459e-07
-6.96417e-05
0.000283163
-0.00028367
3.47394e-07
0.000338205
-0.000372761
3.38119e-05
0.000132832
-8.61137e-05
-4.65958e-05
-0.000327993
-0.000916329
-0.000767008
3.18099e-05
-8.86711e-05
0.000278208
-0.000644137
0.000221114
0.000388626
8.98178e-05
-0.000190357
9.99644e-05
-2.21508e-05
0.000362177
0.000323612
0.000560858
0.000247561
-2.77066e-05
-0.000219743
0.000469241
-8.10158e-05
-3.68189e-06
7.83764e-05
-7.4198e-06
9.75293e-05
0.000193311
0.000237669
-0.000198983
0.000129787
0.00012571
-7.31667e-05
6.12627e-05
1.15226e-05
-0.000217953
-0.000177665
0.000395274
0.000191434
-0.000105518
-8.60834e-05
-0.000198973
3.89776e-05
0.000162505
-0.00010704
-9.13364e-05
0.000199256
4.91853e-05
6.46966e-05
-0.000260675
0.000199214
8.54285e-05
-3.21728e-05
-5.29056e-05
-0.00010065
-5.81118e-06
7.05695e-05
0.000117647
-0.000143935
2.63653e-05
-3.2677e-05
0.000250773
-0.000217815
-0.00016799
0.000140413
-2.44313e-08
-0.000446744
0.000720085
-0.000133654
0.000572766
-0.00045141
-1.77346e-05
-2.48259e-05
4.99716e-05
1.26303e-05
0.0011894
-0.000459212
-2.17036e-06
9.81075e-05
7.35681e-05
-0.000163304
8.97508e-05
-4.35097e-05
-6.93386e-05
6.54629e-06
4.89684e-05
4.46942e-05
8.81991e-05
-0.000147974
0.000156991
-9.32797e-06
3.25327e-05
-0.00030966
0.000276435
-0.00139376
0.000762292
0.000612355
-4.79903e-05
6.91324e-05
-2.1107e-05
5.18773e-05
-6.01276e-05
8.43795e-06
0.000792146
-0.000223378
3.69159e-05
0.000582787
-0.000627558
-8.61549e-05
-0.000110165
4.85892e-06
0.000275655
0.000167092
5.46712e-05
-0.000221725
-7.10602e-05
-9.99252e-06
3.67707e-05
1.93613e-05
-5.60543e-05
-0.000291922
-2.91975e-05
0.000194125
-0.000163766
-0.000114539
-8.21021e-05
-0.000190737
-7.93081e-05
4.53348e-06
9.24989e-05
-9.66331e-05
-7.24601e-05
9.8942e-05
-2.52039e-05
0.000986285
-0.000505164
0.000706396
0.000417091
-0.00113211
-0.000288486
-0.000149161
4.20296e-05
-2.70871e-05
3.20512e-05
-0.000545342
0.00108768
-3.94419e-05
-0.000271426
0.000276924
0.000254282
-0.000327516
-8.16273e-05
2.0723e-05
7.17047e-05
-0.000119645
2.74257e-05
-0.000187122
-0.000112862
0.000300165
2.10231e-05
8.49372e-05
0.000512456
-0.000232455
0.0001424
2.5203e-05
-5.89331e-05
9.30327e-05
-3.39539e-05
-0.000152958
-0.000259342
0.000410364
-0.000728522
0.000149462
0.000290436
0.00117579
-0.00121201
0.00122569
-1.09105e-05
-0.000167333
0.000220901
1.47406e-05
-0.000513687
0.000641754
-0.000138773
0.00113049
-0.00120139
7.02679e-05
-0.000210658
-0.000187176
-9.37421e-06
0.000121362
2.13483e-05
-0.0016308
0.000703088
-0.000983658
0.000418749
0.000556516
0.000765503
-6.88152e-05
-0.0007034
3.03577e-05
5.55839e-05
0.000404014
-5.80942e-05
-0.000227654
0.000107384
-0.00017023
-8.52114e-05
-3.25058e-05
0.000117655
-7.06761e-05
0.000105875
0.000433228
-9.80729e-05
0.000441497
0.000786946
-0.0012418
-5.06566e-05
3.34593e-05
-8.70402e-05
0.000403909
-0.000924065
0.00010543
3.95114e-05
-0.000143887
-1.92547e-05
0.000136995
0.000622016
-0.000460024
-0.000163905
0.000183665
-7.13702e-05
-0.00014604
0.000324623
1.27918e-05
0.000302392
-7.61996e-05
-0.000226974
0.000143975
-0.000272642
0.000128586
2.22823e-05
-0.000107576
0.000911753
-0.00029013
-0.000622448
4.28616e-05
-0.000118925
0.000436227
-0.000861597
7.64168e-05
-0.000106252
0.000272923
-7.96018e-05
-1.38639e-06
8.11965e-05
0.00122287
-0.000434287
-0.00044631
7.03367e-05
0.000370738
0.000136561
-0.000249756
-2.29174e-05
-2.01929e-05
-2.24069e-06
6.25502e-05
2.1434e-05
-0.000136483
-0.000414487
5.6182e-05
-0.00106478
0.000359657
-0.000262602
-0.000417605
0.000673376
-0.00109466
-0.000545122
-0.000634361
0.000595185
3.84762e-05
-0.000446775
0.00128391
5.25238e-05
8.73959e-05
-0.000362401
9.48178e-06
-8.8932e-05
0.000234821
-6.76706e-05
-0.00100509
0.000380608
0.000616076
-8.62136e-05
8.30064e-05
5.3207e-05
-1.53856e-06
0.00102754
-0.000622075
-0.00041071
-0.000619333
0.00149921
-0.000881801
-0.000332266
0.000117411
0.00021547
1.88096e-05
-7.79271e-05
5.92667e-05
-4.84077e-05
4.35737e-05
4.93672e-06
0.000277151
-0.000312634
3.46487e-05
-7.22162e-05
-0.000184607
4.1484e-05
-9.55897e-05
-0.00042821
3.68877e-05
0.00010274
0.000518161
-9.04134e-06
-0.000514684
5.33989e-05
-8.99054e-05
3.8113e-05
-0.000291493
0.000873566
0.000338937
2.40943e-05
0.000148435
-0.000200983
5.31969e-05
5.69547e-05
0.000134336
0.000199336
-9.63955e-06
-0.000186656
0.000123891
-4.70534e-05
0.000234478
0.000289341
-0.000529078
-3.70386e-05
9.07385e-06
-0.000424276
-5.93473e-05
-0.000672926
0.000150529
3.03569e-05
4.10939e-05
6.61174e-05
-4.72983e-05
0.000381812
-0.000410349
2.89574e-05
0.000507357
-0.000276635
0.000800806
0.000397075
-3.44247e-05
0.00116419
0.000375175
-0.000207216
-8.42999e-07
-7.34164e-05
-0.000196861
0.000393011
-0.000661798
-4.51094e-05
-0.000152628
3.93899e-05
-0.000938271
-0.000470009
0.000146452
-0.000315934
0.0002429
-0.000314657
-0.000243861
-5.57608e-05
0.000300258
-0.00144536
0.000717851
0.000711947
-0.000149452
9.72264e-05
5.22076e-05
-0.000566547
-3.9709e-05
0.000258476
-0.00043131
0.000443494
0.000128367
0.000491499
-0.000148152
-0.000300554
-0.000419811
7.89226e-05
0.000303448
-9.75743e-05
0.00030692
-0.000217009
-0.000803185
0.000320897
-0.000606763
0.000466988
0.000138109
0.000200742
0.000801983
0.000194976
1.34492e-05
-0.00021181
-0.000212403
0.000236
-0.000106404
3.15519e-05
0.000453187
-0.000535771
0.000189631
-0.000118825
-7.14838e-05
6.18669e-05
0.000320241
-9.87753e-05
-3.12609e-05
0.000130316
7.28361e-05
-0.00017686
0.000558088
0.000329591
-0.000888236
-0.00108763
0.000518815
-0.000321611
0.000202162
0.000122954
-0.000555146
0.000132961
-7.99943e-05
8.50368e-05
-0.00050199
6.18146e-05
-0.000290664
0.000240925
-0.00020393
-3.33371e-05
-8.26441e-05
0.000136453
3.222e-05
0.000346901
-0.000381674
-6.2815e-05
4.06279e-05
2.22481e-05
0.000466518
-0.00056232
9.36787e-05
0.00123024
-0.0005338
-2.43846e-05
3.8808e-05
-1.43912e-05
-6.3583e-05
6.14591e-05
0.000470867
0.000794132
-0.0012772
0.000141181
-3.47901e-05
4.65401e-05
-6.3606e-05
1.77254e-05
0.000278991
-2.58632e-06
5.87232e-05
6.35484e-05
-8.74351e-05
6.70039e-05
9.1185e-06
-0.000597195
0.000626161
-4.01596e-06
0.000398316
0.000151075
0.000141618
-0.000232607
0.000176536
-0.000161238
-2.66818e-05
0.000173412
-0.000274968
-3.55008e-05
0.000108738
-7.45583e-05
2.73077e-05
0.000177376
-6.08592e-05
-0.000118022
-0.000281701
0.000228229
6.96649e-05
-2.73439e-05
-0.000328352
0.000319621
-3.63179e-05
9.25861e-05
-0.0002642
4.97003e-05
-0.000649029
0.00101695
0.000117446
-0.000133526
0.00106469
-0.000399145
-0.00067156
4.02303e-06
6.16968e-05
-0.000711654
0.000189714
-0.000452948
0.00063486
-0.000330488
-0.000263834
0.000652354
-0.000391667
-0.00132187
0.000721451
-0.000148945
0.000407571
-0.00026057
-0.000270947
-2.12416e-05
0.000246421
-0.000146192
-0.000373555
0.000517805
-0.000174611
2.64045e-05
-1.19209e-05
0.0002948
0.000320947
-0.000194154
-0.000126005
-7.86921e-05
1.98535e-05
1.48e-05
-0.000117462
-0.000707937
0.000325563
0.000107319
0.000226056
0.000252373
-0.000480894
6.27285e-05
-5.28814e-05
-9.72769e-06
6.63373e-05
-1.70401e-05
-4.926e-05
9.87395e-05
-0.000213795
0.00101174
-0.00156456
0.000545372
2.29775e-05
0.000169972
-0.000371439
-3.85194e-05
-1.7242e-05
-0.000226042
0.00022403
-2.33155e-05
0.000168956
-0.000157819
-1.08339e-05
0.000116095
-0.000211275
9.51974e-05
-1.83973e-05
0.000537059
-0.000522499
-0.000178968
-0.000224999
0.000195574
-3.11956e-05
-0.000164897
-0.000422894
0.000394092
-0.000145335
0.000241812
0.000256362
0.000121514
-0.00037752
-9.15824e-05
-0.00018633
0.000276472
-8.09076e-05
-0.000106171
0.000190328
9.88599e-05
-4.44157e-05
0.000864318
-0.000489072
-0.000216637
6.15351e-05
0.000148784
-6.89219e-05
-0.000246263
0.000539749
-0.000139326
-0.000584909
0.000734791
0.000860031
-0.00147615
0.000602081
9.12407e-05
5.94361e-05
6.13665e-05
-0.000120702
-0.000226402
0.000180822
4.50652e-05
-9.84151e-05
-0.000134398
0.00136956
-0.000363
0.00125161
-5.88273e-05
-0.00119927
-0.0002472
-1.40655e-05
0.000157731
0.000852888
-0.00101761
7.54674e-05
4.9473e-05
-0.000132861
-0.000789914
0.000623789
0.000158757
1.00773e-05
0.000321314
-0.000364383
-7.01199e-07
-4.72423e-05
0.000195456
0.000199924
-0.000400537
-5.5655e-05
0.000396453
-0.00057958
-2.36696e-05
0.000569659
0.000247919
-0.000294247
4.48358e-05
0.000669677
-2.87787e-05
-0.000640728
9.97683e-05
-0.000318885
0.00041381
0.000759003
-0.00117269
0.000204718
-0.000154698
-4.98625e-05
-4.4332e-05
0.00044624
-0.000403869
-5.95041e-06
0.000252312
0.000176445
0.000163279
-4.91027e-05
-0.000114156
-0.000365341
0.000207086
0.000140946
0.000104982
-0.000225918
0.00012591
-9.29808e-05
0.000308641
-4.46406e-05
-0.000746363
5.27018e-05
0.000103339
-0.000155974
-2.30697e-05
0.000270562
-3.14138e-05
-6.27523e-05
9.45041e-05
-0.000768268
-2.80238e-05
0.000245877
-7.40731e-05
0.00063617
-0.000113861
-0.000524423
0.000336884
-0.000382739
-0.000155816
7.33622e-05
-0.000332316
0.000473805
-0.000156614
-1.34618e-05
1.53656e-05
0.000327855
-9.42866e-05
-0.0011726
0.00126707
0.000498856
-0.00129096
0.000785658
-0.000198327
0.000160908
3.69869e-05
0.00049095
-0.0010577
0.000935802
-0.000819894
-0.000112653
-0.000514277
0.000377363
0.000134248
-0.000967537
0.00055848
0.000380789
-9.36636e-05
-4.10267e-05
0.000110782
0.000341872
0.000807766
1.27125e-05
5.00923e-05
-0.000265238
-0.000385133
0.000645692
5.39608e-05
0.00012305
0.000112066
-0.000215707
2.05166e-05
-4.33107e-05
-0.000383207
0.000629069
-0.00135814
0.000718273
0.000858267
0.000354241
4.91516e-05
0.000155769
-5.9908e-05
4.60558e-05
1.44992e-05
0.000134508
-0.00011607
-1.84606e-05
0.000425795
0.000485176
0.000100207
-0.000179951
-0.000418331
0.000160154
2.74254e-05
-0.000141531
0.000254361
-0.000186483
-0.000610574
8.95325e-05
-8.39632e-05
-5.13705e-06
-0.000956014
0.000429671
-4.54407e-05
8.56702e-05
-0.000509703
0.000957752
-0.000458129
-0.00113928
0.000413783
0.00072218
6.27737e-05
3.93958e-05
-0.000102128
-0.00147532
-5.85928e-05
-0.00020058
0.000169432
-0.000812105
-0.000477526
0.00127713
0.000244409
-0.000210433
-6.56163e-05
0.000551467
-0.000432203
-0.000248088
0.000660018
-0.000300884
-0.000292381
0.000585435
5.48113e-05
-5.05894e-05
0.000175786
-5.84886e-05
-0.000117165
-0.000397804
-0.000670776
-0.000112275
-5.33118e-06
0.000119032
0.000160356
-0.000288528
0.000129186
-0.000101755
-8.67387e-05
9.98063e-06
-9.65699e-05
3.89258e-05
5.79411e-05
-0.000149441
3.06316e-05
0.000138332
-0.00020259
0.00012446
8.5209e-05
0.000257324
-0.00028242
1.81457e-05
-7.74015e-05
0.000375719
-0.00050657
0.000123361
0.000263129
-9.66461e-05
0.000479616
-0.000385614
-9.79395e-05
0.000276234
-1.61136e-05
-0.000255643
-6.71608e-05
-0.000196266
0.000252829
-0.00147671
0.000963103
0.000513906
0.00136467
-0.000663907
-0.00071795
-0.000145475
-0.000140902
-0.000183513
0.000337919
-0.000153655
9.3159e-05
8.68381e-05
-0.000183002
-0.000515743
0.000331842
0.000172582
4.20656e-05
-1.17056e-05
-3.02704e-05
-4.82796e-05
2.49441e-05
8.13126e-06
0.000192522
-0.000376511
-0.000131638
-1.922e-05
0.000150324
-0.000383879
0.000126452
0.000254192
0.000396866
-0.000761839
0.000349956
-0.000212798
-0.000690207
5.73112e-05
0.000254741
-0.000402553
0.0010028
-5.74002e-05
-0.000950265
-0.000362502
0.000933175
3.94338e-05
2.70173e-05
0.000212779
-0.000210258
-2.81486e-06
-0.000128893
-2.30169e-06
0.000131314
3.01134e-05
-0.000756068
8.19763e-05
-5.7569e-05
1.59867e-05
0.000149657
-0.000163905
-0.00029974
0.000582142
5.42927e-05
0.000121776
-0.000176009
-0.00029031
-1.43387e-05
0.000304997
0.000660365
0.000686189
0.00017429
2.05635e-05
0.000175531
-0.000300167
-0.000177456
0.000545172
-6.09125e-05
-0.000543869
6.12975e-05
1.58108e-05
0.000136505
-6.1739e-05
-5.51427e-05
-0.000358371
0.000118846
-0.000181184
0.000265384
-6.79968e-05
-0.000275587
0.000307408
0.000188347
0.000387223
7.49048e-05
0.000130506
-0.000211902
-0.000485918
-0.000324537
0.000810717
-0.000578303
0.000618016
-5.2437e-05
-0.000126104
0.000541654
0.000305702
-0.000867063
0.000163297
-0.000873922
0.000862864
1.15924e-05
0.000203439
6.39164e-05
-9.2585e-05
0.000135099
4.55219e-05
-0.00018059
0.000131475
-8.87981e-05
-4.24789e-05
0.000936603
-0.000378951
-0.000116924
3.41018e-05
0.000134532
3.63418e-06
-0.000138047
0.000886294
0.000535841
0.000100753
-5.92064e-05
-0.000124008
-0.000135205
9.03064e-06
0.000125567
-0.000189662
0.000143319
4.64145e-05
1.38651e-05
2.82985e-05
-0.000166194
0.000309921
3.86526e-05
0.000150749
-0.000756067
0.00116429
0.000166037
-0.000172798
0.000190569
0.000135465
-7.13826e-05
-0.000250103
0.000102941
0.000996634
-0.000485792
-0.00063236
0.00125014
4.82849e-05
-0.000114484
-0.00013952
0.000253006
-0.000528909
-0.000338679
0.000867114
-8.40423e-05
3.4725e-05
4.93547e-05
0.000484712
0.000496384
8.19926e-05
-0.00112543
0.00104236
0.000261268
-0.000172452
-8.87536e-05
-0.0003744
-3.42143e-05
0.000407567
-0.000689441
-0.000785644
0.000741047
0.000543806
-0.000365985
-0.000181071
-0.000666086
0.000322006
0.000337501
6.16361e-05
0.000259716
0.000295737
0.000445128
-0.000673161
-0.00045838
0.00112938
1.81854e-05
-0.000191526
0.000121856
5.39956e-05
-5.66552e-05
0.000119432
-0.000305854
1.41268e-05
-0.00013078
-6.53894e-05
-0.000280782
0.000285059
0.000265238
3.64696e-05
0.000188785
-0.000173709
-1.50188e-05
-3.11722e-05
0.000152454
0.000181368
-0.00033215
-0.000580977
-0.0001398
-0.000228889
-0.000905276
0.000386759
-3.48963e-05
-1.69189e-05
-0.000832445
0.000140783
5.83339e-05
-3.70184e-05
0.00079638
0.000305129
-0.00032564
-7.18676e-05
-0.000178055
0.000250101
-7.60309e-05
1.87288e-05
5.77909e-05
0.000169719
-0.000221115
4.15691e-05
-1.58806e-05
-7.76515e-05
9.34284e-05
0.000431787
0.00035291
0.000993505
-0.0013502
2.63762e-05
3.56218e-06
-2.98909e-05
-0.000364182
0.000788559
-0.000672892
0.00116499
-0.000529326
-0.000229477
0.000759179
0.000243566
4.00407e-06
-5.07713e-06
-0.000779395
-0.000680926
2.54879e-05
9.322e-05
-0.00011829
-5.23733e-05
-6.43714e-05
-1.24171e-05
5.38581e-05
-4.13724e-05
-6.67848e-05
-4.23306e-05
0.000109313
-0.000122744
2.94978e-05
7.39202e-05
-0.000838246
0.00075064
5.33403e-05
7.85702e-05
-0.000131694
-0.000972975
0.00132258
0.00129762
-0.000539096
-0.000778636
-0.00149389
0.000872469
-0.000106894
0.000196654
9.99468e-05
3.45771e-05
-0.000296694
0.000379402
-9.1447e-05
0.000183303
-0.000258195
-0.00128883
0.000464458
-1.26542e-05
0.000939237
-0.000418529
0.000402048
1.16835e-05
-0.00132106
0.00122699
-0.000391185
0.00126536
0.000161093
0.000176516
-0.000106761
-0.000327101
-0.000473087
0.000401127
7.07065e-05
6.58626e-05
-0.00012935
6.34186e-05
-0.000387631
0.000870668
-5.07993e-06
0.000447534
-0.000444475
-0.000201993
-0.000811264
2.73886e-05
4.18357e-05
5.48957e-05
-7.07323e-05
-6.78178e-05
-8.1275e-05
-0.000155897
2.40644e-05
-0.000312094
2.2106e-05
0.000211313
0.000201807
-9.44058e-05
0.000362496
6.09228e-05
0.000344144
-0.000334988
0.000500074
8.56432e-05
-0.000589616
-9.90732e-05
-8.31356e-05
0.000156634
-0.000237478
0.000235119
2.80036e-06
-0.000185713
0.000278055