/*--------------------------------*- C++ -*----------------------------------*\
| =========                 |                                                 |
| \\      /  F ield         | OpenFOAM: The Open Source CFD Toolbox           |
|  \\    /   O peration     | Version:  v2012                                 |
|   \\  /    A nd           | Website:  www.openfoam.com                      |
|    \\/     M anipulation  |                                                 |
\*---------------------------------------------------------------------------*/
FoamFile
{
    version     2.0;
    format      ascii;
    class       surfaceScalarField;
    location    "100";
    object      meshPhi;
}
// * * * * * * * * * * * * * * * * * * * * * * * * * * * * * * * * * * * * * //

dimensions      [0 3 -1 0 0 0 0];
oriented        oriented;


internalField   nonuniform List<scalar> 
20537
(
-0.00786213
0.000173069
0.0077544
0.0103013
-0.00767045
-0.00262988
-0.00152031
-0.00364444
0.00518633
-0.0123602
0.00642325
0.00600234
0.00250755
0.00239684
-0.00487689
0.00691005
0.00217333
-0.00905705
-0.00300841
0.00330461
-0.000244284
0.00349532
-0.00602444
0.00256603
-0.00367913
0.00463287
-0.000827502
0.00711537
-0.00279284
-0.00430231
-0.000784741
0.00223317
-0.00144256
-0.00489386
-0.000424282
0.00531786
0.00281028
-0.00312503
0.00032385
0.00147784
0.00196357
-0.00343682
4.91081e-05
-0.00109138
0.00126578
-0.00328065
-0.00330901
0.0066357
0.00728128
-0.00145525
-0.00574954
-0.00050229
-0.00626776
0.00681233
0.00163053
0.00216867
-0.00378844
-0.00448765
0.000940875
-0.00522006
-0.00704122
-0.00613601
0.00464086
-0.000155309
3.47066e-05
0.000168374
0.000374216
-0.000423277
0.000269432
-2.36905e-05
-8.32411e-05
-0.00243312
0.00596765
0.00428157
-0.00411063
-0.000112812
-0.00126105
-0.00079
-0.00994249
0.00214856
-0.00890596
0.000771914
0.00820797
-0.00200605
0.00893915
0.00459214
0.00276418
-0.00639143
0.00277156
-0.00292312
-0.00194129
0.0048718
-0.00031207
0.000914941
-0.00125107
-0.000867939
0.00212397
0.00237802
-0.000839669
-0.00153158
0.00288246
0.00177714
-0.00465198
0.00550578
0.00162833
-0.00655387
0.00363913
-0.0087706
0.00535527
0.00354461
0.000302364
8.48071e-05
-0.000370064
0.0016579
-0.000404546
-0.0012546
0.00159525
0.000543694
-0.00213605
-0.00046885
0.00206638
0.00277695
-0.00173735
-0.00104367
0.000558031
-0.00209291
0.00153482
-0.00832037
0.00232177
0.0060083
0.00405249
0.0002824
0.00601456
-0.00508577
-0.000900496
-0.00168155
0.00391642
-0.00220679
0.00240984
-0.00403626
0.00164443
0.000641678
-0.00164842
0.00100643
-0.000123451
-0.000546387
0.000899659
-0.000177078
-0.000895975
0.00145917
-7.54578e-05
0.000393165
-0.000110555
0.000605098
-0.000383613
-0.000846013
-0.00129726
0.00214529
-0.00787368
-0.000948453
0.00437378
-0.00423094
-5.81597e-05
0.00470761
-0.00181728
-0.00240759
-0.000884606
0.00329035
0.00301053
0.00598742
-0.00896888
-0.0022474
-0.00192608
0.0041936
0.00811533
-0.00137018
-0.00673214
0.00204545
-0.00851618
0.00652043
0.00158619
0.000793275
0.000327033
-0.00213163
0.00160935
0.00297665
-0.00453888
-0.007034
0.00657996
-0.000962185
-0.000198779
0.00116094
0.00116914
0.000682575
-0.0018492
0.00637053
0.00392869
0.000878357
-0.000747333
-0.00212139
0.000241592
0.00222594
0.00139622
0.00300933
-0.00432283
-0.00190641
-0.00420941
0.00116172
-0.00197301
0.000810756
-0.00506065
0.00242455
0.00267329
-4.50406e-06
0.00111757
0.00496833
-0.000572337
-0.00430424
0.000122763
-0.000175776
5.17175e-05
-0.00457473
0.00545126
-0.000703019
0.00170856
-0.00276529
0.00105141
-0.00538512
0.0084237
0.000535454
-0.00542924
-0.00223001
0.0087495
-0.00648872
0.00655377
-0.00489516
-0.0016551
-0.00544131
0.000461922
0.00505586
0.0032841
-0.00260038
-0.000630711
-0.0024621
0.00121853
-0.0107937
0.00606312
0.00476955
-0.00147795
-0.00571411
0.00362008
0.00214807
-0.00710355
0.00174401
-0.000293732
-5.86625e-05
0.0004694
0.00443244
-0.00189844
-0.0029988
0.00266826
0.000331346
0.00469824
0.00134132
-0.000255633
9.88308e-05
-0.00256805
0.00278103
-0.000209345
0.00333246
0.00116291
-0.00445794
-0.00910152
0.00342899
0.00575721
-0.00131059
0.00294017
-2.52885e-05
3.78639e-05
-3.67626e-06
0.00225075
0.0061514
-0.00837236
-0.00273314
-0.00117232
0.00393593
0.000169928
3.39705e-05
-0.000192125
-0.000682654
0.00164031
0.00884159
-0.00664304
0.000268289
-0.000267274
0.000147283
0.00250493
0.000833033
-0.00579754
-0.00495646
0.000103213
0.000111966
0.000633813
-0.000206218
0.0037264
-0.00801801
-0.00209591
-0.000901752
-0.000281249
0.000192583
0.000104729
0.000498678
0.000378653
-0.000569134
0.00125106
-0.000196496
-0.000715024
0.00178099
-0.000123191
0.00244801
-0.00371849
-0.000611511
0.00342894
-0.00828824
-0.00243633
-0.0058734
0.000260549
-0.00141372
0.0011758
-0.00846148
0.00603572
-0.00327078
-0.000553198
0.00385547
-0.0108605
0.00572764
0.00216206
-0.00398329
0.00183375
-0.00316342
-0.00545641
-0.00104928
0.00404093
-0.00278923
0.000239653
-0.00120241
0.000187846
-0.00458083
-0.00439485
0.000894246
0.000764599
-0.00141312
-0.000109941
-0.000150747
0.000670266
0.00132201
-0.00198941
-0.00434578
0.00264472
0.00170019
-0.00235375
0.00460142
-0.00224691
-0.00030729
-0.00225944
0.0012455
-0.00100211
-0.00676149
0.00275571
0.00407129
-4.61157e-05
-0.000683163
0.000748365
-0.0023
0.00604849
-0.00367413
0.00212254
-0.00157548
0.000143157
-4.34844e-06
-0.000135376
0.00450007
-0.00232178
-0.00322807
0.000308187
-0.0019605
0.00149373
-0.00279487
0.00178378
-0.000996282
-1.64379e-05
0.00137664
-0.00160983
0.00309287
-0.000408976
0.000394804
0.00104014
0.00327772
-0.00425401
0.00454222
-0.00675975
0.00077434
-0.00625735
0.00561309
0.00679582
-0.00750558
0.000783924
0.00309709
-0.000669733
-0.00395691
0.002307
9.34617e-05
-9.44563e-05
2.50996e-06
-0.00455806
0.00308458
0.00151511
0.000987488
-0.00183228
-0.00332072
0.00245359
0.00746939
0.00163972
-0.00904182
-6.52425e-05
0.000696868
-0.000609938
2.39668e-05
0.000121119
0.00433331
-0.00268087
-0.00635347
-0.00442257
-0.00142416
0.00262994
-0.00120919
0.00154222
-0.000381014
-0.00186815
0.000361292
0.00161626
0.00635831
-0.00545819
-0.00467633
0.00232197
-0.000826794
-0.00230564
0.00822172
-0.00588801
0.00195541
-0.00518754
-0.00334802
-0.00199937
0.00540029
0.00397381
-0.00233358
-0.000173043
-4.07322e-05
0.000223287
0.00168115
-0.00640017
0.00478192
0.00184172
0.00444588
-0.00369338
-0.000594355
0.00459609
6.19137e-05
2.94778e-05
-2.68675e-05
-1.86202e-07
-0.000210788
-4.81917e-06
0.000291695
0.00849123
-0.00639675
0.00145796
0.000140023
-0.0026438
-0.00179575
0.00446065
-0.00478008
0.00697741
-0.00217822
-0.00157317
0.00172556
-0.00108606
-0.00300249
0.000439781
0.00260386
0.0031884
0.00126233
-0.00440639
0.00181548
-0.00422595
0.00114292
0.00391403
-0.00498863
-0.00195085
-0.0047474
0.00584688
-0.00182843
-0.00400863
0.00324889
-0.00653212
-0.00308717
0.00456685
0.00148183
-0.001198
0.00329438
-0.00144217
-0.00185568
-0.000209153
0.00068226
-0.000136208
0.00180114
-0.00543007
0.00380871
0.00664015
-0.00275156
-0.00387097
0.000277647
0.004328
-0.00505263
0.00330548
0.00174541
0.00686761
-0.00557435
-0.00121844
-0.000763445
0.00179351
-0.00102982
-0.000147021
0.000113423
3.82754e-05
-0.00218501
0.00136762
0.000820025
-0.00697281
-0.00203309
0.00202663
-0.00606427
0.00404039
0.000119176
2.98529e-05
-0.000140498
0.000149928
0.000583963
-0.000714162
-0.00055172
0.00189833
-0.0013379
0.00967277
-0.0030442
-0.00659179
0.00113343
0.00163933
0.00238896
-0.00181679
-0.000388305
0.000947239
-0.00171038
0.00250436
0.0044242
0.00510213
-5.04792e-05
-0.00256311
0.00171107
0.000858536
-0.00408818
0.00189318
0.00221226
-0.0019347
0.00136155
0.000573423
0.000113704
7.75613e-05
-0.000121366
-0.00577671
0.00327288
0.00255825
6.14215e-06
-2.0112e-05
0.0012288
-0.00173334
0.000504633
-1.32158e-06
0.000125174
0.00399244
-0.00638514
-0.00232396
-0.00495658
0.00728999
-0.00152507
-0.000236871
-0.000457232
0.000855767
0.00275538
-0.00358287
0.00849085
-0.00677479
-0.0016871
-0.00378285
-0.0012703
0.00675037
0.00137356
-0.000736545
0.000711176
-0.00298626
0.00494569
-0.00882103
0.00683744
0.00548875
-0.000390479
-0.00508539
8.52854e-05
-0.000123481
3.8462e-05
0.00261491
0.00403991
4.04522e-05
7.75039e-06
-0.000885694
0.00158206
-0.000695452
-0.000537445
0.00390156
-0.0017206
-0.00387399
0.00559854
0.00155449
0.00504542
-0.00652298
0.00640488
-0.00612743
-0.000204267
0.00179937
0.00475169
-0.00650973
0.000861231
0.00463133
-0.00583858
0.00550533
0.000410011
0.00616602
-0.00476937
0.00231807
0.00248871
-0.00154887
0.00835066
-0.00678764
0.00300494
-0.00776636
0.00178646
-0.000461778
-0.00212848
0.00064165
0.00149212
0.00257858
-0.00252629
7.24557e-05
-0.00056781
0.000593541
0.0073744
-0.00791741
0.00537506
-0.00873869
0.00337021
0.00055997
-0.00158504
0.00105469
-0.00181366
-0.00179758
0.00361668
0.0044609
-0.00325735
-0.000846226
-0.004911
-0.000849871
-0.00481293
-0.000857935
-0.00169865
0.00245724
-0.00274755
0.000312861
0.00648052
-0.00463915
0.00502545
0.00423263
-0.00855804
0.0043388
-0.00204972
-0.00297247
0.00419412
-0.00742621
0.00154143
0.00269395
-1.08227e-05
0.000132781
-0.000432022
0.00158289
-0.00113982
-0.00177276
0.00134183
0.000432075
-0.0017754
0.000995912
8.88322e-05
-6.14171e-06
-0.000100391
4.55052e-05
6.14209e-05
-2.15114e-05
-6.37768e-07
2.85638e-05
-0.00251216
-0.00222363
0.00840762
-0.00302668
-0.00203302
-0.00658436
0.00862531
-0.00546488
0.00322074
0.00235736
-0.00154171
0.000280672
0.00138261
0.00848843
-0.00424197
-2.47951e-05
5.61199e-05
-3.50422e-05
0.00268401
0.00182888
-0.00764309
-0.000157633
0.00339716
0.00105748
-0.00312985
-0.00126706
0.00443912
7.56471e-05
-0.000102711
-0.00389557
0.00208862
0.00803473
-0.00675467
-0.00123639
0.00603742
-0.00550163
0.00267671
0.00126559
-0.00377213
0.000782291
-0.00166714
-0.00360058
-0.000913272
-0.00670142
0.00531824
-0.0018533
0.00110516
0.000748881
-0.00914315
0.00342943
0.00581192
-0.00634207
0.00862309
0.000361886
0.00205428
-0.00241066
-0.00200039
-0.00333547
-0.0044216
0.00222699
0.00223027
-0.00216029
0.00584293
-0.00710184
-0.000472395
-0.00271456
-0.00163034
0.00447544
0.00359474
-0.00288399
-0.00248716
0.00544784
-0.00167599
-0.000767684
0.00244885
-0.000129681
0.000509065
-0.000360501
0.00686031
-0.000401857
-0.000115089
0.00160303
-0.00146753
-0.001029
-0.000743146
-0.000696639
0.00243033
-0.0017234
0.000468212
0.00209076
-0.00212642
0.00407038
-0.00191067
-0.00274821
0.00121382
0.00169791
-0.000265199
-0.00186212
-0.00856982
0.00539358
0.00321773
-0.000145138
-2.1671e-05
0.000224289
0.000261919
0.00507623
-0.00524805
0.00199855
-0.00268154
-0.00214021
-0.00357982
-0.00338341
0.00489309
-0.00145011
-0.0011771
-0.00254324
-0.00649455
0.00362156
-0.00641995
0.00167058
0.000567681
-0.00175295
-0.00158527
0.00139862
-0.00303352
0.00163098
-0.0088858
0.00292677
0.00600159
-0.000819185
-0.00103314
-0.00420703
0.00166493
0.00254285
0.00112639
0.00445816
-0.00122856
-0.00139531
0.00409015
0.00111509
0.00538256
-0.00646574
0.00906194
-0.0036063
-0.00543053
0.00333833
-0.000811205
-0.00250967
-0.00171885
0.00762521
-0.001042
-0.00653603
0.00598401
-0.00845754
0.00247427
-0.00203382
0.000998518
0.00103753
-0.000924003
4.78702e-05
0.00114654
-0.00192871
0.000795143
0.00208663
-0.000926202
0.00287374
-0.00482526
0.00195461
-0.00504002
0.00171736
0.00518357
0.00389461
0.00168603
-0.000456789
0.000823799
0.00565537
0.00834388
-0.0023587
-0.0048757
0.00522974
-0.000940629
-0.00164419
5.65198e-05
-7.46699e-06
0.000221607
-4.12147e-05
0.00607065
-0.0015045
-0.00441669
-0.00104154
-0.000989803
-0.00036367
0.00372869
-0.00335766
0.0054289
0.000333297
-0.00563935
-0.00152131
-0.00286017
3.89806e-05
0.000480967
-0.000501473
0.000673458
0.00536381
0.000425808
0.00623463
-0.00662309
-0.00905022
0.000848594
0.00157381
-0.00300136
0.00583411
-0.000287372
0.00254813
0.00713937
0.00608637
-0.00449625
-0.00153427
-0.00666983
-0.00237602
-0.0084358
0.00301814
0.00557482
0.000222591
-1.36715e-05
0.00906164
-0.00677045
-0.00225291
-0.000521003
0.00206147
-0.00153713
-0.00027525
-0.00483633
0.00211983
0.00721554
0.000759891
0.00259487
0.000829121
0.00179661
-0.00105503
0.00200898
-0.000945416
-0.00208378
0.00103747
-0.00811968
0.00469027
0.00347007
-0.00121488
0.00340821
-0.00202063
0.000558141
9.38957e-05
-0.000445724
-0.00249047
-0.00635012
-0.00372085
0.00162079
-0.00156324
0.00353009
-0.0019546
-0.00191341
0.0039106
-0.00119783
-0.000735211
0.00156526
-0.00233472
0.000773216
0.000431122
-0.000378261
0.00286216
-0.00018472
0.00296857
-0.00112857
-7.15512e-05
0.00120005
-0.0070699
0.00475675
0.00106285
-0.00315554
0.00245131
0.00664669
0.00213714
0.00400524
0.000261434
5.14692e-05
-0.000209214
-0.00243893
-0.0017666
-0.00210476
-0.000676435
0.00288518
-0.00617318
0.00290005
-0.00280251
-0.00527145
0.000110028
0.00345593
-0.00347906
-1.63486e-05
-0.00502602
0.00314259
-0.00048313
0.000433846
0.00158264
-0.00381103
0.00677826
-0.00844235
0.00169097
0.00192008
-0.00222692
0.000307125
0.00659833
-0.00921281
0.00266539
0.0013679
-0.00635361
0.00859482
-0.00220713
0.00494305
-0.00407858
0.00147808
-0.00695625
0.00554474
-0.00200268
0.00488074
-0.0014536
-0.00518095
-0.00173622
0.00119291
-0.000247362
0.000157218
-0.00164686
-0.00325506
-0.000167697
3.48641e-05
-0.00195089
-0.00258377
0.00454068
-0.00515266
0.00165149
0.00349987
0.00267509
0.00193315
-0.00458841
-0.00847668
0.00215572
0.0016556
0.00377658
-0.00571095
-0.00854162
-0.000804676
0.00307529
-0.00219771
-0.00284859
-0.0054273
5.26519e-05
0.00490527
-8.35885e-06
-4.19352e-05
6.80059e-05
0.00208142
-0.00542316
0.00334508
0.0054482
-0.000751198
-0.0046855
0.00606794
-0.00290909
-0.00313516
0.000848777
-0.00173318
0.000884688
-0.00291247
0.00622617
0.000374161
-0.00138986
0.00102568
0.00101464
0.00443872
-0.00238901
-0.000599602
3.13515e-05
2.57903e-06
-0.00354398
-0.00182743
0.0054193
0.00441096
-8.062e-05
0.00255553
-0.0018774
-0.000386872
0.00237077
0.00141498
-0.00611077
0.00478342
-0.000983741
-0.00406749
5.09812e-05
-0.00933071
0.00350288
0.00586979
-0.00223441
-0.00319149
0.00542334
-9.55931e-05
0.000282056
-0.00106649
0.00622858
-0.00106876
-0.000947909
0.0020147
0.00835118
-0.000829305
-6.40302e-05
-3.33148e-05
0.00305192
0.00350251
0.00192071
-0.00296962
0.00665269
0.00328133
-0.00232393
-0.000834031
-0.00845948
0.00754127
0.000955877
0.00738253
-0.00627442
-0.00103549
-9.51839e-05
0.0031826
-0.00603164
-0.00318025
0.00151091
0.00372699
0.00187396
-0.00156505
-0.0025593
0.00416458
0.00203138
-0.000896069
0.00845126
-0.000786017
-0.00764101
0.000408282
-0.00158495
0.00118523
0.000136525
7.58118e-05
-0.00124209
0.00691875
-0.00556098
-0.000108997
0.000397388
-8.76078e-05
0.00872284
-0.00258631
-0.00612367
0.00585682
-0.00575759
-7.50527e-06
0.00655367
0.00222419
-0.00415099
0.000612248
0.000360425
-3.44921e-07
-0.00325509
0.00187836
0.00137829
0.00155906
-0.000709865
-0.00429179
0.00397579
0.000447447
-0.000149825
0.00862812
-0.00494569
0.00648658
-0.00529918
0.00492025
-0.000909305
0.00261374
0.00412066
-0.00511444
-0.00324327
0.00288668
0.00834032
-0.00517291
0.00182854
-0.00455351
0.00274735
-0.00358662
0.00404888
-0.000377844
0.00077552
-0.00180098
0.0010245
0.000199321
-6.52197e-05
-0.000116343
-0.00164348
-5.49305e-06
0.00353603
0.00349233
-0.00701246
0.000416607
-0.000315115
0.00840291
-0.00852513
0.00113334
-0.00285366
0.00171845
-0.00155565
0.00557908
-0.0019899
-0.00061476
0.00260652
-0.000391776
0.00118387
0.00523973
0.00271607
-0.00795072
0.000337254
-0.000829736
0.0028847
-0.0007992
-0.00191591
0.00120655
-0.00404554
0.00301387
-0.000208092
0.00311834
-0.0028378
-0.000318383
-0.000809998
0.00152994
0.00243679
-0.00393697
-0.000988229
0.00302185
-0.00201859
-0.00100825
-0.00181122
0.00282854
-0.0083972
8.56098e-05
9.83932e-06
0.00236454
-0.00359816
0.00123624
-0.00161179
-0.00353751
0.00593054
-0.00419292
0.00439277
-0.00125971
-0.00168156
-0.00360218
-0.00569701
-0.00258929
-0.00116032
-0.00102195
0.000457262
-0.000553151
0.000366971
-0.00118984
0.00196357
-0.0026514
0.00208936
0.00120218
0.00615782
0.00651997
0.00190726
-0.00208231
-0.00599043
-0.00108278
0.00146728
0.00756568
-0.00909877
0.00429682
0.00155323
0.00211209
-0.00494999
0.00284095
-0.000814389
0.0076807
-0.0030806
0.00519457
0.00202229
-0.00257853
0.000561579
8.16261e-05
0.000136508
-0.0015039
-0.00239914
0.00165025
-0.000855822
-0.000793505
-0.00128524
0.00639973
0.00453891
-0.00444889
0.000115229
-0.00465043
-0.00146912
0.0054343
-0.00583419
0.000528645
-0.00434955
0.00172812
0.00675507
-0.00842873
0.00170597
-0.0079721
0.00307989
0.00317428
-0.00541106
-0.00112067
-0.000210641
0.00152417
-0.00211292
0.00104223
0.00199157
-0.00116878
-0.00082125
-0.00212517
-0.0062546
0.00840283
-0.00549124
0.00388171
0.00281214
3.40202e-05
2.04798e-05
-5.29818e-05
0.0031066
0.000118031
-0.000164364
4.56885e-05
-0.00102841
0.00339612
-0.00155529
0.00487724
-0.00143883
-0.00136908
0.00281918
-0.00249385
0.000439569
0.00206218
-0.000332191
0.000271675
-0.00672867
-0.00173728
0.00849522
0.00829332
-0.00239194
-0.00589736
-0.00198348
-0.00283562
0.00114672
0.0026219
-0.00374479
-0.00106117
0.000743031
-0.00219755
0.00147369
0.000727465
0.00532013
0.00340187
-0.00320975
-0.00359319
-0.00336097
0.00695254
0.00193123
0.00109467
-0.00282053
0.0017392
-0.00372738
0.00180722
-0.00267857
0.00869137
6.10174e-05
0.00513669
-0.00516406
0.00023378
-0.00286491
-5.53904e-05
-0.000262783
0.00525587
-0.00646951
-0.000172089
0.000140439
0.00306873
-0.00224973
-0.000582367
0.000191411
0.00183506
0.00252965
-0.00517994
-0.00325645
-0.000260247
0.000217828
-0.00248462
-0.00235273
0.00364318
-0.00546229
-0.00127952
0.00378165
-0.00233756
-0.000383708
-6.84185e-05
0.000535135
0.00150772
-0.000919114
-0.000131043
0.00161691
-0.00213375
0.00368311
-0.00540015
0.00571484
0.00300621
-0.000919801
-0.00276879
0.00801385
0.00419048
-0.00260067
-0.00155044
0.000843735
0.000806776
0.000510761
0.00128312
0.00623092
0.00143418
0.00458817
-0.00156815
4.27722e-05
-8.0849e-06
0.00138706
0.00339925
-0.00694899
0.00359235
0.00314774
-0.00184499
-0.00129728
-0.00579856
-0.00265426
-0.00300817
0.00158253
-0.00286788
0.00521797
-0.00230191
-0.00422595
0.00155495
0.00280139
0.00221245
0.00484915
-0.00701713
-0.00586076
0.00183656
0.00407641
-0.00253926
0.000550697
-0.00162244
-0.00225039
0.00389711
-0.00357333
-0.000412308
-0.00608114
0.00905058
-0.00225259
0.00048626
0.00545221
-0.00160031
-0.00380307
-0.00115734
0.00384668
-0.000411026
-0.00372871
-0.0075987
0.00489855
0.0061048
-0.00564625
-0.00546644
0.00100164
0.00454854
-0.00193028
0.00282456
-0.00476853
-0.00320119
-0.000872506
0.00187543
-0.00717858
0.00534569
0.00262146
-0.00151542
-0.001459
-0.00263726
-0.0086482
0.00329048
0.00537132
-0.00378199
0.00261902
0.000384701
-0.00851129
0.00164665
7.40543e-05
-0.000343846
0.000411147
-0.00169298
0.00101204
-0.00715646
0.00039438
0.00682701
0.00184958
-0.00102484
-0.00113682
-0.000740554
0.00187874
-0.0027179
0.00162792
0.00108659
0.00691774
-0.0038638
-0.00257979
0.000575573
-0.00100825
7.75793e-05
1.18257e-05
0.00351528
-0.000297818
-0.00299463
-0.000145131
9.62362e-05
0.00289306
0.000407497
3.79785e-06
-3.47091e-05
3.08481e-05
0.00904552
-0.00240214
-0.00649949
-0.00191997
-4.18561e-05
-0.000206426
0.00280995
-0.00487103
0.00206172
0.00655614
0.00406256
-0.00125081
-0.0054489
0.00134645
0.00423807
-8.57205e-05
3.3762e-05
6.31937e-05
0.000100639
-0.000164572
0.000101722
-0.00518689
0.0038061
-0.00389189
0.00194764
0.00194196
-0.00300415
-0.000253409
0.00327931
0.00465109
8.38187e-05
-4.62646e-06
-0.00020752
0.000348286
0.00112539
-0.000788441
-0.000138005
-0.00663768
0.00176097
0.00496123
-0.00212516
-0.000966566
0.00310148
0.00270167
0.00219104
-0.00489512
-0.00418994
-0.00119276
-0.000223784
0.000194424
0.00261744
-0.00275851
0.000603305
-0.00711266
0.00355973
0.00220777
-0.00576196
-0.000746504
0.00178546
-0.00103768
0.00644693
-0.0018316
-0.00119707
0.00302754
-0.00541709
0.00813879
-0.00219039
-0.00525441
0.0022471
-0.00321685
-0.00032381
0.00150338
0.00437891
-0.004803
-0.00489988
0.00442239
-0.00639656
0.000619284
-0.00359583
-0.00178708
-0.00176345
-0.0038661
-0.00863973
4.78761e-05
-3.83338e-05
-0.00263714
0.00302312
-0.000832637
-0.000900038
-0.00462417
0.00122153
0.00348087
-0.000702494
0.0070521
-0.00628933
0.00611883
-0.00877192
0.000833167
0.00221648
-0.00174618
0.00912652
-0.000622323
0.00208885
-0.00408858
0.00200055
-0.00411609
0.00252048
0.00209118
-0.00388224
0.00194699
6.95006e-05
-0.000134333
-0.00131156
-0.00399537
-0.00171633
-0.0015366
-0.000464365
-0.00202064
0.00176147
0.00675766
-0.0018452
0.000709047
-0.00340759
0.00103622
0.00247008
0.000327994
-0.000120298
-4.44472e-05
-0.000146424
0.00531905
-0.00808395
-0.00108486
0.00233667
-0.00124759
-0.000866533
0.00714962
-0.00622808
0.00205534
-0.00783279
0.0058586
0.00157926
-0.00116233
-0.00531497
0.00480309
0.000586095
-7.83867e-05
0.000210625
0.00119077
-0.00234311
0.00114898
0.00833907
1.95006e-05
0.00130555
0.000595191
-0.00189638
0.000304636
-0.00525415
0.00115193
-0.00162323
0.00103448
0.000589145
-0.00165906
6.46056e-05
0.00159513
-0.00265758
0.000201412
-0.00388065
-0.00192389
-0.00070649
-0.00119238
0.00190168
0.00469321
-0.000431244
-0.00129733
0.00567901
-0.00244496
-0.00322153
0.0031171
0.00297279
0.00688129
-0.00152122
-0.0052977
-0.00158751
0.00168424
-0.00529702
0.0036445
0.00119308
0.00387428
-0.00502274
-0.00229745
0.0014643
0.000536193
-0.000320147
0.000143372
0.000807904
0.00664838
-0.00373705
0.00239706
0.00212831
-0.000939961
0.00266258
-0.0066165
0.00399306
-0.002897
0.00287649
-0.0080233
0.00115155
0.000441446
-0.00280015
0.000401786
-0.000426728
0.00108855
-0.000394177
0.00641768
-8.49846e-05
-4.50343e-05
0.00666119
-0.00480932
-0.00170422
0.000216969
-0.0013111
0.00140497
0.00174038
0.000317964
0.00156382
0.000265495
-0.000335491
8.72383e-05
0.00830261
-0.00200165
-0.00628701
6.7982e-05
0.00341689
-0.000647618
-0.000974874
4.19346e-05
-4.46687e-05
2.65676e-05
-0.00190012
-0.00428122
0.00623727
-0.00254629
0.00269142
-0.000128518
0.00574115
-0.00217637
0.00374813
-0.000495387
-0.00324451
-0.00119938
0.0010587
0.000335608
-0.00955156
0.00101225
-0.00362402
0.00179216
0.00509412
-0.00145125
0.00252891
-0.00107233
0.000623552
-0.0032291
0.00104523
0.0023512
0.00179828
0.00271807
-0.00449104
-0.00136969
0.000965084
-0.00710438
-0.00242075
-0.00657503
0.000931572
0.00570614
0.000195898
-0.000178756
-0.00447054
0.00239804
-0.00579092
0.0034107
0.00656271
-2.18638e-05
-0.00652192
-0.00675
5.07701e-05
-0.00259014
0.0044141
-0.000313205
0.000995724
0.00408738
-0.00593272
0.00275397
-0.00240461
0.00175123
0.00342757
-0.00517429
-0.00448505
0.00271124
0.002613
-0.0043301
-0.00082428
-0.00263457
0.00308049
-0.000593407
-0.00246974
-0.00165281
-0.00771858
0.00691418
-0.000968403
0.00396723
-0.00300102
-0.00300529
0.00200706
-0.0036482
0.00380861
0.00156853
-0.00267858
0.00110491
-0.00227727
-0.00635519
0.00140734
0.00211095
-0.00352008
0.00425828
-0.00216726
-0.00276553
0.00148035
0.00129136
-0.00057819
0.0030747
-0.00248515
0.00339961
-0.00676359
0.00340125
-0.00256778
0.00614079
-0.0085872
-0.00237529
0.00108014
-0.00120028
0.00183925
-0.00640306
0.00466018
0.000130379
0.000135472
-0.000172263
0.00415619
-0.00137084
0.000136038
1.5322e-06
-0.000137372
-0.000340587
-7.94444e-05
0.000437176
-0.000978176
-0.000786365
0.00176531
-0.00249758
-0.000812247
0.00567069
0.000251127
-0.00578442
0.00117762
0.00138879
-0.00186705
0.000479263
0.00194509
1.04932e-05
0.000848865
0.00284649
0.000999109
-0.00178509
-0.000444506
-0.00121323
0.000355314
-0.00247195
-0.00110401
-0.00170471
0.00798089
-0.0063216
-0.00160617
-0.00165821
-0.00137835
-0.00457857
0.00260073
-0.00202926
-0.00186401
-0.0040724
0.00293322
0.00265267
-0.00413492
0.00510458
-0.00383315
0.000331735
0.00751178
-0.00114739
0.00294096
-0.000763836
-0.00215448
-0.000701879
0.000630205
-0.00463178
0.00711764
-0.0045438
0.00127147
-0.00221545
0.00335355
-0.00194813
0.00119017
0.000802763
0.00400237
-0.00401671
0.000126398
-0.00131083
0.00402254
-0.00267096
0.00234003
-0.00345419
0.00676365
0.00609858
-0.00674161
-0.000401835
-0.00319014
0.00359061
0.000228953
9.74118e-05
0.000908554
-0.00153858
0.00062974
5.03427e-05
-0.000374055
0.000668688
-0.00319693
-0.004587
-0.000243175
0.00497822
-0.00402411
0.00546456
-0.0014296
0.000498967
0.00285857
-0.00412478
0.00147051
-0.00416275
0.000919803
0.00327639
0.00624554
0.00132597
0.000341334
0.000234054
0.00376346
0.00619736
-0.00251298
0.00813278
-0.00560185
0.00134498
-0.00702209
0.00575056
0.00142546
-3.5916e-05
-0.00125738
-0.000298085
-0.000430654
-0.00280559
0.00184691
-0.00654998
0.00480321
-0.000112415
0.00148198
0.00124674
-0.00177209
0.00112544
0.0025326
-0.00309978
-0.00891779
0.00432896
0.00783038
-0.0025961
-0.00513352
0.00189537
-0.000586031
0.000631609
-9.99889e-05
-0.00782793
-0.00019182
0.0016344
-0.00099344
-0.000640669
0.0042254
0.00151975
-0.00560046
-0.00407043
0.00342195
0.000699238
0.00213048
-0.00204358
0.00569731
-0.00200611
0.00433033
-0.00232587
-0.00456941
-0.00103644
0.00570612
0.000553259
0.00014503
-0.00724187
0.00391023
0.00332597
0.00178344
-0.000835794
-0.00140427
0.00404729
-0.00100538
-0.00551103
-0.00150962
0.0075551
-0.00598977
-0.00318895
0.0027649
0.00093662
0.00132354
-0.00226317
0.0033373
-0.000235873
-6.73459e-05
0.000351216
0.00596584
-0.00253179
0.000867199
0.00222867
-0.00292047
0.000334634
0.00057929
0.00219476
-9.41208e-05
-0.000190651
7.4332e-05
-0.00213133
-0.0029864
0.00512152
0.00492705
-0.00485907
0.00013077
0.0056686
0.00599867
0.0030469
-0.0066245
0.000222645
0.00130036
-0.00152285
-0.00147212
0.00260313
-0.00595347
0.00246523
-0.00336326
0.00239409
-0.0049033
0.000466386
0.00379143
-0.00556888
-0.00680748
0.00430701
-0.00221591
0.00325996
0.00770005
-0.00151305
-0.00606727
0.00607016
-0.00580291
0.000817267
-0.0015473
0.000730072
0.00386331
0.000233321
0.00400308
-0.00335675
-9.11286e-05
0.00420414
-0.00596024
0.000125649
0.00167526
-0.000540229
-0.00113492
0.000960914
-0.000349672
-0.00685543
0.00325992
0.00526186
0.00131737
0.00256942
-0.000518385
-0.00204145
-0.00232561
0.00502264
-0.00211115
0.0056903
-0.0035392
0.00100134
0.00327761
-0.00482313
0.00151296
-0.00825812
0.00397677
0.00875066
-0.00187551
-0.0068692
-0.000861134
-0.00096544
0.0018274
0.00431999
0.00136427
-0.00565248
-0.000285849
-0.00143262
-0.00698445
-0.00121108
-0.00291159
-0.00287627
0.00195767
-0.00071958
-0.00031641
0.00367697
-0.00429057
0.000611368
0.00394981
-0.0051198
0.00570687
-0.00354486
0.00198384
0.00187446
-0.000562782
-0.00128612
0.000521682
0.00346193
0.000819204
0.00404649
0.00189511
0.00376239
-0.00076588
0.00189234
0.000150966
-6.86715e-05
-8.0436e-05
-0.000536049
-0.00427894
-0.000995172
-0.00129747
-0.0040385
0.00569767
0.00295629
-0.00259171
-0.00123636
0.00217085
-0.00327577
0.00713826
-0.00384002
-0.00209795
-0.00198897
-0.000290315
-0.000488904
0.000322995
0.00179271
-0.000170661
-0.000618336
0.00617797
-0.002063
0.00279013
0.000933072
-0.00370073
0.00292973
-0.00272256
-0.000160152
0.00384781
0.000634664
-0.0043889
0.00766212
-0.00552944
-0.000130658
4.69251e-05
-0.000781257
-0.00233285
0.00503186
0.00592943
-0.00172246
0.00278759
-0.00289956
0.00081838
0.00208975
0.0010876
0.00420411
-0.00719071
0.00533271
0.00186744
-0.00509627
0.00226904
-0.00540133
0.00351173
-0.000914567
-0.00259558
0.00651078
0.00186703
-0.00835233
-0.00240421
-0.00308125
0.00549372
-0.0017121
0.00225789
-0.00153342
-0.000557533
0.00338797
-0.00542285
-0.00093215
0.00222974
-0.00129694
0.00154287
-0.0016354
0.000208935
-0.00318587
0.00258119
-0.00504434
-0.00152363
-0.0046315
-0.000617841
5.17291e-05
0.000100931
0.00228778
0.00109193
-0.00328162
-0.000649546
0.00402994
-0.00337845
0.00608322
-0.00834631
0.00214638
-0.00119524
-0.00334781
0.00401125
-0.00446223
0.000606107
-0.00617237
-0.00227624
-0.00422769
0.00616333
-0.00321007
-0.00039408
-0.00278622
-0.00569369
0.00828845
-0.00259107
0.00352807
-0.00133733
-0.00218138
0.00381187
0.000949125
-0.00475823
-0.000126381
0.000340633
0.00650844
-0.000810836
-0.00556539
0.00361983
-0.00771041
0.00410653
-0.00881241
0.00805152
0.000590713
-0.00331759
0.00276802
0.00166663
-0.000163368
0.00451437
5.88769e-05
0.002918
0.00600335
-0.00745653
0.00546969
-0.002596
-0.00287668
0.00439035
-0.000457172
-0.00125906
-0.0009666
-0.00144945
-0.00115102
0.00260933
-0.0080559
0.000224566
-0.00141953
-0.00161361
0.00304395
0.00037903
9.03224e-05
-0.000193076
0.00113667
-0.000918534
-0.00853057
0.00616561
0.00246046
0.00185261
-0.00244464
0.000597545
0.00592746
-0.00351439
-0.0024016
-0.000171071
0.0018231
0.00011391
0.000114472
-0.0045621
0.00344969
0.00284555
0.00109324
-6.77631e-05
0.00058372
-0.00049503
-0.00111121
-0.00336664
0.00156205
0.00361676
-0.00107877
-0.0032517
0.00437029
-0.00238177
0.00130104
0.00829737
-0.00300685
-0.0062802
0.00181719
-0.00127621
0.00223679
0.000725102
0.00209968
-0.00383394
0.00173834
0.00306337
0.000123947
-0.0008325
-0.00196624
-0.00262993
0.00459899
0.00215559
-0.00312535
0.000987157
-0.000122527
0.0008323
-0.000685605
-0.000684356
0.00293646
0.001256
0.00343722
-0.000123155
0.00014724
-0.00646848
-0.00196336
0.0010064
0.000738705
-0.0017445
0.00309779
-0.00108532
0.00521885
-0.00356824
0.0030746
0.00115544
-0.00373873
0.00429697
-0.000386579
-2.45986e-05
4.12404e-05
0.00254023
-0.00796053
0.0055235
-0.00528161
-0.00189819
0.00213945
-0.00894137
0.00681244
-4.31491e-05
-4.94328e-05
0.00290222
-0.00394387
-0.00262537
0.00943235
-0.000905649
-0.000582906
0.00148824
0.000474669
-0.000101837
-0.00232923
-0.00500459
0.00733688
-8.56207e-05
8.93332e-05
-0.000217247
0.00300966
-0.00279264
-0.00232082
0.00595577
-0.0036176
0.00240107
-0.00106601
-0.0013298
0.000539367
0.00222621
0.00279593
1.18868e-05
0.00473446
-0.00190383
-0.00193477
0.000767591
-0.00062104
0.00443282
-0.00308793
0.00164158
6.41268e-05
0.00331484
0.00211754
-0.00542291
-0.000535073
0.000488732
0.00666798
-0.00139449
0.00316376
-0.00173744
-0.00584949
-0.00050771
0.00646209
0.000998403
-0.00179738
0.000799565
0.00637979
-0.00129301
-0.00503535
-0.00658705
0.00268876
0.00303974
-0.0011219
-0.0019063
-0.00846158
0.000736081
0.0018483
-0.00240585
0.00477515