/*--------------------------------*- C++ -*----------------------------------*\
| =========                 |                                                 |
| \\      /  F ield         | OpenFOAM: The Open Source CFD Toolbox           |
|  \\    /   O peration     | Version:  v2012                                 |
|   \\  /    A nd           | Website:  www.openfoam.com                      |
|    \\/     M anipulation  |                                                 |
\*---------------------------------------------------------------------------*/
FoamFile
{
    version     2.0;
    format      ascii;
    class       surfaceScalarField;
    location    "100";
    object      phi;
}
// * * * * * * * * * * * * * * * * * * * * * * * * * * * * * * * * * * * * * //

dimensions      [0 3 -1 0 0 0 0];
oriented        oriented;


internalField   nonuniform List<scalar> 
20537
(
-0.38647
0.526027
-0.139611
-0.156785
-0.0868494
0.24363
-0.181155
0.175665
0.00546868
-0.0147671
-0.315908
0.330619
-0.153966
0.157836
-0.00389585
0.293293
-0.456274
0.162957
0.205383
0.194767
-0.4002
0.236668
-0.0730968
-0.163604
-0.45237
-0.0934224
0.545667
-0.0606735
0.223779
-0.163125
0.546596
-0.269822
-0.276781
0.0953955
-0.076952
-0.0184465
0.0718795
0.0145383
-0.0864261
-0.0224645
0.0180956
0.00436574
0.678792
-0.54554
-0.133534
0.291491
-0.283649
-0.00788223
-0.0650465
0.289143
-0.224166
0.462505
-0.245329
-0.217215
-0.127542
0.128399
-0.000866974
0.0822131
-0.534713
0.360006
-0.374862
-0.0624666
-0.118713
-0.365096
0.586936
-0.221876
-0.688607
0.0985431
0.589861
-0.551263
0.186132
0.225169
0.0114655
-0.0983058
-0.170902
0.269159
-0.00339675
-0.00170574
0.0137062
-0.400236
0.252359
-0.362727
0.110299
0.453001
-0.159727
0.221964
-0.287072
-0.0024265
0.178067
0.468278
-0.519924
0.0516353
-0.600523
-0.0882969
0.120374
-0.126471
0.00609156
-0.0121495
0.0957136
-0.0835712
0.192739
-0.123043
-0.0697025
0.120139
-0.180834
-0.0101364
0.478403
0.054108
0.337627
-0.391843
0.494351
-0.668848
0.174489
-0.00445066
0.00249242
0.00195945
0.255562
-0.555795
0.30023
0.533021
-0.277461
-0.00208034
-0.00526128
0.00734634
-0.593822
0.286519
0.307302
0.121373
-0.497029
0.375645
0.162958
-0.26131
0.30522
0.214096
-0.519344
0.169007
-0.029527
-0.139507
0.143379
-0.0671928
-0.0762053
-0.00185781
0.000791378
0.00106644
-0.737399
0.376806
0.360303
0.662125
-0.540482
-0.122063
0.667477
-0.173133
0.649175
-0.294764
-0.354502
0.00348727
-0.00541156
0.0019222
-0.171255
0.423537
0.275669
0.105341
-0.381088
0.0409009
0.151831
0.0333596
-0.0485979
0.0152415
-0.463753
0.312475
0.151249
-0.138154
0.133277
0.00485894
-0.0935306
0.242461
-0.148945
-0.46682
0.153122
0.31365
0.0629956
-0.0751468
-0.63577
0.323091
-0.21812
0.208006
0.0100738
0.222329
0.240131
0.0167113
-0.0201332
0.00342219
0.0813848
-0.0800611
-0.00132657
0.102424
-0.25921
-0.294834
-0.442889
0.285904
-0.590661
0.304391
-0.522782
0.429903
0.0928003
-0.130528
0.0680424
-0.0212112
0.00143433
0.0197773
0.0115883
-0.181071
0.169449
0.0206968
-0.00203707
-0.183437
0.435685
-0.252328
0.587997
-0.0284589
-0.559537
-0.429523
-0.0607416
0.490089
0.00298664
0.00207524
-0.00505623
-0.332621
-0.131158
0.0744762
0.0209159
0.476827
-0.151659
-0.325199
0.0549566
0.0904361
-0.145401
-0.250037
0.323956
-0.0739852
-0.370415
-0.234458
0.604824
0.0310783
0.0892874
-0.100017
-0.310909
0.410887
-0.217863
-0.0766925
0.243354
-0.166715
-0.0111327
-0.238981
0.560865
-0.548776
-0.0121867
0.0195023
-0.173493
0.00851434
0.0272885
-0.0358033
-0.167108
0.472301
-0.0243224
0.585074
0.00805739
-0.00277998
-0.00528005
0.16726
-0.176496
0.00920198
0.0897258
-0.39767
0.307866
0.270418
-0.0257132
-0.458668
-0.0993669
0.558028
-0.498163
0.392545
0.105588
-0.1742
0.18137
-0.00719764
0.528148
-0.685403
0.157249
0.0690316
0.00399634
-0.140743
-0.315554
-0.538806
-0.0191604
0.557833
0.2585
-0.628962
0.305467
-0.405522
-0.650956
0.650761
-0.0721128
-0.466836
0.361042
-0.12251
-0.0420379
0.0505516
0.0721977
-0.474473
0.402261
-0.576696
0.577907
-0.00153928
-0.195702
0.567972
-0.372633
-0.00402884
-0.000422438
0.229234
0.0411511
0.0784345
-0.00656134
0.172263
0.472877
-0.351515
-0.810609
0.378415
0.432175
0.140945
0.331921
0.167208
-0.186969
0.0197321
0.0373762
0.322544
0.167115
-0.0749486
-0.0921776
0.434722
-0.380763
0.556807
-0.162954
-0.394055
0.0212669
-0.00455432
-0.556072
0.126365
0.256239
-0.573584
0.607414
-0.0340853
0.558449
-0.48627
-0.07304
0.0817545
-0.00871762
-0.0240319
0.0089318
0.0151014
-0.0848154
-0.00125595
0.0860707
0.00917911
-0.00112212
0.379076
0.282592
0.156861
-0.553464
0.39654
0.730731
-0.389938
-0.340807
0.421826
-0.0987017
-0.323195
-0.26925
-0.286549
-0.426583
0.614139
-0.18756
0.0337849
0.133315
-0.26104
0.466341
0.234683
0.298335
0.00774587
0.12346
-0.425688
0.621384
-0.196082
-0.00470952
-0.0177593
0.308737
0.340358
0.363987
-0.21668
-0.147363
0.298228
0.123518
-0.500293
0.190774
0.309393
0.224877
0.146345
-0.37129
0.00770606
0.135654
0.0140202
0.154957
-0.347623
-0.252847
0.600469
-0.0646125
0.2178
-0.153222
0.00370691
-0.000220884
0.165322
0.391301
0.260157
-0.38315
0.122935
0.648611
-0.232052
-0.416575
-0.682061
0.255477
-0.00694107
-0.211213
-0.32436
0.361654
0.0334261
0.000493255
-0.0339155
5.18601e-06
-0.0212156
0.239954
-0.54115
0.301093
-0.177245
-0.32317
-0.0267966
-0.058018
0.566206
-0.401073
-0.14531
-0.351735
0.17918
-0.0120064
0.526832
-0.506857
-0.0200251
-0.0231863
-0.104365
-0.523824
0.669698
-0.145878
-0.276911
0.0716005
0.205257
0.0083423
-0.13865
-0.358127
0.496613
0.0384177
-0.157147
-0.363006
-0.236817
0.599821
-0.447877
0.614286
-0.166467
-0.18252
-0.284346
0.358347
-0.554417
-0.162757
0.163639
-0.000901851
0.25477
-0.00558913
-0.2492
-0.270731
0.00017931
-0.00203516
0.277797
-0.537889
0.260055
0.178422
-0.214151
0.0356919
0.049886
-0.0165222
0.401191
-0.188731
-0.212518
0.532105
-0.375302
-0.0876626
0.498243
-0.410593
0.45826
0.0685099
-0.425502
-0.0973604
-0.340105
-0.470524
0.00207437
0.0181074
-0.0201774
-0.58333
0.0842396
0.498723
-0.548324
0.155957
0.392177
-0.0433143
0.234017
-0.190719
-0.49603
0.357216
-0.0333217
0.00522419
0.0280991
0.133688
0.154731
-0.288485
0.0287229
-0.00294936
-0.0257734
0.124569
0.44738
-0.571954
-0.0101609
-0.0343597
0.0445181
-0.35425
0.443887
-0.506101
0.0854387
0.420655
0.455649
-0.637397
0.181743
-0.73033
0.438478
0.291838
0.585334
-0.288264
-0.297078
-0.217621
0.456434
-0.238848
-0.00291225
0.000836673
-0.113483
-0.408775
0.52205
0.0291737
-0.000450501
0.261555
-0.12792
0.184031
-0.36754
-0.000149448
0.0388752
-0.0387322
-0.0580032
0.141757
-0.0837702
0.00376258
0.0320781
-0.0358408
-0.599575
0.580672
0.0188498
-0.0324608
-0.200253
0.232666
-0.527677
0.0689994
-0.00369324
0.00123155
0.00246143
0.675098
-0.219451
0.210552
0.0145835
0.26526
-0.197414
-0.0678563
-0.281745
0.521601
0.536264
-0.158207
0.139013
0.0191694
-0.0924682
-0.233591
0.326032
-0.00158238
-0.0317385
0.0957982
-0.189339
0.28381
0.446906
-0.456077
-0.0924136
0.12845
0.324528
0.33805
-0.44484
0.106774
0.582395
0.0483511
-0.630746
-0.211703
0.168377
0.458634
-0.558009
0.0292706
0.00209649
-0.0313679
0.195952
-0.0287208
0.507698
-0.477587
-0.0301209
-0.404712
0.287191
0.117446
-0.24149
-0.110991
0.352412
0.658262
-0.382075
-0.27623
0.435527
-0.0974825
-0.236743
-0.119521
0.356195
-0.10655
-0.0173658
-0.126861
0.144195
0.443998
-0.179914
-0.264098
0.264389
-0.00963788
0.0024782
0.0792734
0.00623704
-0.0118781
0.00563584
-0.195211
-0.343252
0.538326
-0.446535
-0.468809
0.349578
0.119182
0.41564
-0.102906
-0.312741
-0.648637
0.223392
0.425221
-0.10821
0.0915206
0.0166851
0.179741
0.221399
-0.369374
0.132558
-0.205641
0.128899
0.0430325
-0.0431883
0.390099
0.173428
-0.563546
0.298877
0.35934
0.175194
0.515034
-0.15539
-0.359655
0.182541
-0.170989
0.249319
0.0421291
-0.535554
0.372409
0.676717
-0.0887179
0.650831
-0.202123
-0.448718
0.00325393
0.0342186
-0.0374734
0.181816
0.364775
0.0333486
0.549049
0.0764599
-0.558322
0.481857
-0.504467
0.600927
-0.0964652
-0.14378
0.126386
-0.0200412
0.435675
0.435194
-0.332992
-0.102214
0.0327554
0.450902
-0.483772
-0.380756
0.498623
-0.118013
0.130808
0.384213
-0.739851
0.344368
0.395486
0.139915
-0.106142
0.16904
-0.340364
-0.112608
0.388202
-0.210844
0.220364
-0.0095591
-0.445887
-0.293962
-0.0277178
-0.0804988
0.0528559
0.190086
-0.242982
0.0159172
0.0585551
0.434375
-0.571457
0.136908
0.0332182
-0.00394846
0.115985
-0.180637
0.0960816
0.192992
-0.00904434
-0.03141
0.0404539
-0.130926
0.368547
-0.23771
-0.361989
-0.136205
-0.0366209
0.0312571
0.00535822
0.477379
-0.444756
-0.00277647
-0.151709
0.154456
0.233295
0.00999998
-0.214418
0.383394
-0.00526529
-0.0187666
0.216408
-0.163584
0.396532
-0.361196
-0.035406
0.0414494
-0.0485818
0.00712751
0.656762
-0.258698
-0.398074
0.0403925
-0.281935
0.768613
-0.413142
-0.355488
-0.045004
0.0482574
0.128404
-0.024517
-0.103897
-0.511514
0.397842
-0.185348
0.0356074
0.149713
-0.257945
0.490253
-0.232498
0.0213611
-0.0151253
-0.00257795
0.451039
-0.448503
-0.455707
0.645354
-0.189691
0.614065
-0.251864
-0.362291
0.118939
0.00945055
0.205707
-0.238215
-0.317385
0.0622752
0.255059
0.111013
-0.372469
0.241441
0.324608
0.0718466
0.31011
-0.579937
0.0363803
-0.0215089
-0.0350393
-0.00572386
0.0407677
0.107513
-0.416407
0.308854
0.04269
-0.0517352
-0.000348952
-0.0567595
0.0571085
0.383706
-0.0311265
0.209512
0.126911
0.0129951
0.551259
-0.332982
-0.21831
-0.003027
0.242738
-0.239736
-0.00826823
0.117078
-0.108828
0.100674
-0.232516
0.516965
-0.284493
0.297262
0.0389381
-0.336204
-0.00329019
-0.0312769
0.0345648
0.0412896
-0.587101
0.591594
-0.019401
-0.572206
0.0856255
0.505955
0.129943
-0.0274665
-0.102479
-0.098398
-0.219039
-0.234576
0.231532
-0.000184261
-0.00350977
-0.497481
0.320121
-0.0953449
0.392603
0.360676
0.253296
-0.501386
0.24324
-0.112916
0.571543
-0.0527348
0.580877
-0.186359
0.55629
-0.370074
0.0351273
-0.0384199
0.654281
-0.256361
-0.397928
0.311113
-0.448643
0.137407
0.182647
-0.185459
-0.66128
0.364893
0.296375
0.0725822
-0.056668
-0.308161
0.225632
0.0824936
0.140243
-0.359474
0.0382165
-0.00478656
-0.130229
0.441223
-0.281601
0.0639658
-0.0465947
-0.186775
0.233319
-0.304936
0.445171
0.0958007
-0.456629
0.360672
0.160807
-0.635294
0.209252
0.210728
-0.420018
-0.000366868
-0.0021257
0.00248999
0.643844
-0.0283305
0.0230678
0.240311
-0.106072
0.0977871
-0.0288632
0.0293612
-0.583941
0.0507755
0.533157
-0.0719302
-0.51202
-0.0233605
-0.331708
0.355025
0.634327
-0.156452
-0.478053
0.515922
-0.530937
0.0147448
0.419575
-0.312103
-0.0764294
-0.108941
0.0245139
-0.00642041
-0.249963
0.221742
0.0281856
-0.0407033
0.0444642
0.0371053
-0.00553998
-0.0315693
-0.400719
-0.26057
0.227855
-0.423177
0.00318161
0.00589647
-0.0213459
0.0154488
0.106626
0.158623
-0.0431711
0.00113051
0.446305
-0.237087
-0.22201
0.175368
0.499005
-0.532787
0.0336987
-0.0718245
0.0714749
-0.431734
0.512029
-0.0803954
-0.0951933
-0.188488
0.362534
-0.385941
-0.449688
0.335475
0.114128
0.0535531
0.0932954
0.383964
0.32136
0.32724
-0.126589
-0.011583
0.213512
0.0941448
-0.307684
-0.0131911
-0.00744924
0.0206401
0.352805
0.033092
-0.385946
-0.138619
-0.470056
0.0357927
0.434229
0.276704
0.158818
-0.338481
0.109346
0.229075
0.130148
-0.00020915
0.292919
-0.196907
0.222162
0.363164
0.12227
0.436161
0.491739
-0.398569
0.0935019
-0.541438
0.125893
-0.138617
0.0127198
0.0365266
-0.451221
0.414694
0.123327
-0.123698
0.000351994
-0.0633413
-0.406751
0.00816926
-0.229775
-0.290159
0.114806
0.14187
-0.069263
-0.088964
0.453078
-0.357438
0.395206
-0.118519
0.66244
-0.501743
-0.160711
-0.109659
0.0210135
0.0886413
-0.230911
0.410286
-0.179388
-0.011243
0.185435
-0.174216
-0.0211342
-0.0023253
0.0234598
0.581634
-0.123437
-0.674546
0.201958
0.47258
-0.474951
0.244032
0.0214235
-0.0171038
0.307918
-0.670928
-0.220199
0.230317
-0.0101606
-0.00191849
0.556315
-0.16623
-0.482794
0.539274
-0.0565829
-0.410835
0.118346
0.292411
0.134523
0.0366991
-0.103913
0.107129
-0.393074
0.285905
0.13543
-0.0847451
-0.0506854
-0.5463
-0.0533321
-0.56724
0.315284
0.00123246
0.00284894
-0.0040795
-0.0974423
0.357553
-0.46097
0.537429
0.131419
-0.0764664
0.464778
0.169378
0.210073
-0.156251
-0.373664
0.529795
0.137112
0.173296
-0.310443
-0.143044
-0.237182
0.380159
-0.433757
0.457821
0.123751
-0.00742411
0.0488672
0.376138
-0.437028
0.207875
-0.190311
-0.0176005
-0.0801367
-0.493698
0.27205
-0.387319
0.11525
-0.647659
0.206825
0.440827
0.5625
-0.562701
0.525897
-0.163559
-0.362454
-0.552606
0.133831
0.516751
-0.0973081
0.468637
-0.371344
0.250834
0.121575
-0.372493
0.341052
-0.492742
0.124055
-0.482343
-0.166123
0.665049
0.00130415
0.00507808
-0.00638294
0.0011978
-0.0223315
0.149765
0.316559
-0.466461
0.405834
-0.133801
-0.27907
-0.059467
-0.268413
-0.176441
0.00635032
-0.00335914
-0.367253
-0.200063
0.228885
0.425388
-0.0845147
-0.372265
-0.158567
0.0144529
0.144093
-0.327262
-0.0741483
0.401329
-0.00555672
0.00410411
0.00145381
-0.133156
0.547649
-0.414509
4.26171e-05
0.000749138
-0.252446
0.249717
0.00271362
-0.213697
-0.455159
0.227435
0.17838
0.0384768
-0.012584
-0.0258905
0.215828
-0.00530238
-0.475247
0.505847
-0.0306033
-0.521298
-0.0557104
0.315952
-0.492382
0.176423
-0.577936
0.0370128
-0.169469
0.5771
-0.407795
-0.579439
0.188504
0.390758
-0.449624
0.332436
0.117116
0.0254973
-0.0196006
-0.16193
0.150048
0.0118543
0.132315
-0.0279215
-0.10441
0.0920602
-0.0818575
-0.0102114
0.123781
0.33232
-0.679945
-0.0689599
-0.00885738
0.0778154
0.441749
-0.405228
-0.072319
-0.204642
-0.00651127
0.22427
-0.464447
0.196017
-0.294148
0.466407
-0.0557843
0.0456207
-0.519556
-0.00903142
0.528249
-0.00258861
-0.00296584
0.00109432
0.0103502
-0.00827227
-0.166779
-0.138377
0.365794
0.482159
-0.319523
-0.510807
-0.163746
0.357226
0.086757
0.399513
-0.487181
-0.0925551
0.0214582
0.0710921
0.36383
-0.139018
-0.0699085
-0.0226501
0.0630387
0.0011658
-0.0642098
-0.540092
0.406919
0.140014
-0.147935
0.00209482
-0.0195199
0.0174239
0.387256
-0.100132
0.329955
0.179575
-0.509748
-0.355179
0.545815
0.335099
0.129249
-0.464483
-0.00415899
-0.158619
0.231273
0.0840088
-0.315313
-0.0552775
0.145705
0.0864399
0.0489894
-0.436222
0.594712
-0.158675
0.00436115
-0.00312627
0.000421517
-0.0233424
0.0229194
0.49647
-0.407589
-0.0889066
0.102889
0.338856
0.200893
0.5822
-0.478842
-0.103358
0.398194
0.484101
0.0532806
-0.53738
-0.0764118
0.00744939
-0.223018
0.00630018
0.125206
-0.115017
-0.0101994
-0.077767
0.102512
-0.0247535
0.211199
0.456271
-0.404566
0.45216
-0.0476281
-0.144906
0.441555
-0.296653
-0.172155
0.144683
-0.146285
0.141663
0.00459764
0.00332172
0.0221759
0.00131
0.0634404
-0.064754
0.350065
-0.115142
-0.334627
-0.126463
0.0812938
0.0451679
0.000480239
-0.102317
2.12329e-05
0.102281
-0.108141
-0.141849
0.452503
-0.140053
-0.576565
0.311877
0.203262
-0.51536
-0.0882057
0.698537
-0.487344
0.278779
0.108408
0.180407
0.489286
-0.163029
-0.39601
0.558793
0.070034
-0.00699959
0.152757
-0.492506
0.429129
0.295137
0.403396
0.000756533
-0.0290852
0.43196
0.0662699
0.632758
-0.185366
-0.447559
-0.412631
0.56138
-0.148816
-0.106964
-0.541696
0.556909
-0.00422524
0.00385525
0.453125
0.0545634
-0.0529872
2.63016e-05
0.0103279
0.520897
-0.204953
-0.0612031
-0.156289
0.217467
-0.0150375
0.0171309
-0.0203714
0.0174221
0.153615
-0.386168
0.00925896
0.198712
0.0629845
0.519216
0.42849
-0.247538
0.0349004
0.212601
0.00337743
-0.056125
0.0527426
-0.329101
0.368032
0.0108919
0.114301
-0.270157
0.0228268
0.247288
0.0807726
-0.474544
0.393642
-0.325961
0.235313
0.0906083
0.12298
-0.515227
0.392198
0.00830794
-0.483557
0.139359
-0.137946
-0.00143536
-0.367556
0.491438
-0.309827
-0.10662
0.0232278
-0.506129
0.1333
-0.223184
0.0898395
0.119538
0.00377506
0.413372
-0.308116
0.112013
0.340916
-0.132115
-0.176077
0.0734206
-0.321618
0.248117
0.153656
0.130181
-0.00429449
0.0487651
-0.106783
-0.313537
0.0896325
0.223866
0.00204085
-0.10437
0.467294
-0.38665
0.13361
-0.308576
0.174953
-0.38469
0.00313919
-0.00310964
0.148908
-0.503261
-0.629409
0.289281
0.340006
0.00461319
0.0644165
-0.201372
0.437263
-0.235951
-0.00743597
-0.0214225
0.0312705
-0.0322275
0.000955543
0.0033791
-0.00292653
-0.000448781
0.0542947
0.0771184
0.0808861
-0.512716
-0.0754503
-0.454615
0.487962
0.339292
-0.539124
0.199603
0.122969
0.424666
0.381034
-0.544303
-0.611792
0.261829
0.349963
-0.0525814
0.405344
-0.215757
0.352831
0.705909
-0.410777
-0.054919
-0.0102294
0.0651481
0.0119282
0.0117418
-0.066662
0.162085
-0.545919
0.383702
0.137964
-0.560338
0.422365
0.629419
-0.145683
-0.483766
0.0119058
0.114992
-0.0149865
-0.0348537
0.0498437
0.118881
-0.149661
0.0307643
-0.072387
0.136413
-0.591029
-0.44999
-0.0828678
-0.135644
-0.452845
0.588296
-0.255986
0.427713
-0.171809
0.0680089
-0.0839644
0.0159426
0.0782216
-0.130449
0.0522279
-0.246556
0.319895
0.240166
0.465738
-0.143023
-0.306668
-0.473544
0.217434
0.101458
-0.123907
0.0224427
0.00183781
0.00155111
-0.00339004
-0.0766779
0.0386221
-0.050423
0.0118025
-0.311574
-0.180816
0.464953
-0.353094
0.129737
0.00255916
0.0192948
-0.201625
-0.0576911
-0.019264
0.127677
0.307923
-0.246521
0.148717
-0.0298575
0.38262
0.484944
-0.346417
0.131536
0.389912
0.272513
0.138037
0.0434556
0.0244016
-0.0267271
0.148912
-0.537448
0.388463
0.40401
-0.128946
-0.275122
0.320263
0.132215
-0.567069
0.397442
0.293515
-0.286511
0.417305
-0.0450295
-0.00522373
0.0502533
0.00746975
0.131863
0.105469
-0.0139541
-0.454026
0.504793
-0.456995
0.562415
-0.400467
0.0099988
-0.008696
-0.0987647
0.0209884
-0.31295
0.220454
-0.00340484
0.0346747
0.164968
-0.578981
0.413919
-0.00930115
-0.483628
0.492694
-0.417839
0.340382
0.180508
0.0800839
-0.00166217
-0.0784259
0.350997
-0.13205
-0.218996
-0.429716
0.104823
0.324818
-0.227297
-0.420369
0.0854265
0.208667
-0.29415
0.411937
0.217458
0.00054638
0.00333045
-0.00387313
0.0992051
-0.279127
0.0263566
-0.0275339
0.00117316
0.443055
0.0991919
-0.345833
-0.000491433
0.0178668
-0.017376
-0.0033187
0.000583241
0.00273524
-0.064445
0.0955169
-0.37889
0.501816
0.0560204
-0.0595566
0.00353337
-0.199036
0.607016
-0.384861
-0.0374787
0.173361
-0.135895
0.175612
-0.186877
-0.151592
0.330052
-0.17851
0.000470354
0.570002
-0.231556
-0.33848
-0.575347
0.367145
0.208158
-0.00278559
0.0984926
-0.147527
-0.482004
-0.583717
-0.371994
0.228884
0.119221
0.347955
-0.00391395
0.00446288
-0.217263
0.0615632
0.155665
-0.10961
-0.364474
-0.128066
0.443813
-0.645945
-0.39246
-0.38943
0.566756
-0.0605133
-0.506512
0.238249
-0.408952
0.531907
-0.13177
-0.352983
0.484603
-0.621182
0.247052
0.373797
-0.00476365
0.0360165
-0.54168
-0.522603
0.0162528
0.506335
-0.123781
0.441902
-0.318137
-0.442013
0.326793
0.0196411
-0.0201337
-0.548519
0.00346129
0.54504
0.515255
-0.377624
-0.137684
0.0897502
0.0330627
-0.122828
-0.0204078
0.12186
-0.159271
0.503115
-0.343853
0.188062
0.338606
-0.52685
0.222799
-0.378209
-0.00637058
0.0449934
-0.118615
-0.0445949
0.000477643
0.0441118
0.188178
-0.0501704
-0.496754
0.340392
0.560747
-0.389083
-0.171689
0.00298265
-0.000489847
-0.263178
0.485958
0.111807
-0.337084
0.225222
-0.572054
-0.445243
-0.37207
-0.17721
0.0113437
0.165848
-0.145221
0.267011
-0.121808
-0.184173
0.374209
0.396067
0.164654
-0.500417
-0.019419
0.384879
0.130323
0.0847075
0.0322095
-0.458595
0.420426
0.0381622
0.0186747
0.144943
-0.349148
-0.293262
0.392357
-0.139913
0.0974268
-0.134397
0.0369552
-0.00343519
0.138324
0.212617
-0.0205606
0.0187411
0.00182084
0.00941887
0.0826316
-0.359695
-0.0824048
-0.00759948
-0.00580677
0.0134118
0.322975
-0.189381
-0.0450753
0.0503844
-0.00530598
-0.00509913
-0.0399315
-0.0156899
-0.024165
0.0398488
0.520033
-0.224563
-0.295482
-0.23775
0.00967282
0.228043
-0.377652
0.308496
0.111037
-0.00143186
-0.00398261
-0.00552044
-0.53246
0.14179
0.390577
0.585105
-0.593779
0.00860131
-0.0154782
0.154464
-0.344892
0.584361
-0.23947
-0.418709
0.566733
-0.148037
-0.00201787
0.000549588
0.00146759
-0.392437
0.557312
0.337563
-0.458133
0.120431
-0.00106215
0.0181574
-0.000356969
-0.0178014
-0.0322597
-0.421775
0.48156
-0.142456
-0.501189
-0.000387482
-0.00200986
-0.00131025
0.0862618
-0.0182649
0.11394
-0.11393
-0.182966
-0.307155
0.490071
-0.0434262
0.0377059
-0.0711309
-0.101029
-0.057682
0.042698
0.0213872
0.159954
0.168266
0.0143458
-0.0862876
0.0770455
-0.404389
-0.190025
0.292453
-0.0163207
0.149442
-0.13314
-0.0119637
-0.00938242
0.491502
-0.0452308
0.0104874
0.000788304
0.00367885
0.00326413
-0.0483362
0.0188369
-0.0184167
0.314018
0.123022
-0.437157
0.204514
-0.032961
-0.171584
0.474714
0.157876
-0.0782587
0.276578
0.127374
0.0796126
-0.013953
-0.0656601
0.655618
-0.656031
-0.0224855
-0.00554849
0.028034
-0.543617
0.124895
0.122208
-0.032475
-0.431225
0.541567
-0.110503
-0.106391
-0.0677815
0.174162
-0.169373
0.187765
0.0167101
-0.0231334
0.0478746
-0.163448
0.115546
-0.167038
0.340305
-0.481362
0.615031
0.0529268
0.28987
0.423855
-0.113803
-0.310069
-0.380503
0.126916
0.253517
-0.000543796
0.0187008
-0.3704
0.593768
0.601104
-0.372227
-0.447459
0.165913
0.281452
-0.0421669
0.00780537
-0.000292053
-0.00105276
0.0206924
0.319903
0.200119
0.0880834
0.403376
0.0204377
0.391164
-0.411701
-0.00145847
0.0278114
0.123894
0.53134
0.17389
-0.296401
-0.000245968
-0.0242096
0.0244554
0.38555
-0.562266
0.176575
0.0963017
0.187498
-0.283834
-0.097722
0.500425
-0.0684794
-0.0289812
0.009733
0.0192486
-0.264394
0.398483
-0.134186
0.215104
-0.50995
-0.0364317
0.194851
-0.158417
0.00437976
0.0247939
0.125227
0.0164154
0.329894
-0.218139
0.480799
-0.148696
-0.332155
0.224995
0.376102
-0.00115611
-0.00265894
0.00381815
-0.0240927
0.121501
-0.535417
0.0127978
0.0200435
-0.257824
-0.564117
0.393179
0.170767
0.41414
-0.330152
-0.473004
0.558616
0.021348
-0.471411
0.10072
-0.0923383
-0.00838591
0.163919
0.23127
0.456016
-0.118582
-0.0957022
0.381022
-0.225714
-0.0170723
0.0129415
0.00413064
0.0330095
0.00547004
0.00640233
-0.226652
-0.0229328
0.00237243
0.051266
-0.482652
0.19849
0.0317828
-0.0772815
0.46835
-0.40363
-0.16066
-0.165994
0.439921
-0.274043
0.331556
0.124322
0.0185793
-0.00103613
-0.0175432
-0.155738
0.472173
0.0956598
0.0530368
0.436791
-0.122889
-0.227794
-0.54495
0.0040388
-0.00165935
-0.00237989
0.20762
0.370041
-0.0410926
-0.0853703
0.115578
-0.260814
0.0297553
-0.104299
0.0745347
-0.240895
0.0236021
0.207238
-0.0195299
-0.187745
-0.00468389
-0.209352
-0.0138817
-0.32576
0.0921405
0.0219195
-0.121899
0.38227
-0.260379
-0.000111338
0.00232284
-0.0022129
-0.15254
0.174543
-0.0220292
0.544789
0.431444
-0.282629
0.202803
-0.154963
-0.155138
-0.0102374
-0.314124
0.502032
0.061511
-0.0111582
-0.0503511
0.410548
0.15173
-0.1605
0.00180641
0.0227063
-0.224641
0.637856
-0.413238
-0.0925785
0.0693829
-0.262654
-0.145228
-0.368804
-0.0969037
-0.491386
-0.00995932
-0.111154
0.503146
-0.391994
0.387178
-0.259579
0.0849538
-0.0877445
-0.40971
-0.152691
0.0585574
0.0276913
0.00241265
-0.00356647
0.256537
-0.0437452
-0.212813
0.0267585
-0.0319831
0.412435
-0.0214101
0.587908
0.194706
-0.607865
0.452632
-0.117663
-0.398812
0.128184
-0.115023
-0.0131819
-0.106546
-0.224702
0.331208
0.336702
-0.510959
0.174161
-0.101152
-0.328634
0.107862
-0.563616
0.0202698
0.123098
-0.0448758
0.292678
-0.0451646
0.00199163
-0.00119727
-0.0841923
0.0853812
0.437342
-0.125628
0.0622927
0.388227
-0.450535
-0.0893307
-0.180861
0.146444
-0.162733
0.56879
-0.406061
0.364822
-0.477782
0.112935
-0.506615
0.393107
0.113497
-0.422951
-0.16803
-0.289989
0.576506
0.435262
0.0651507
-0.00498852
-0.000792977
0.00578137
0.402727
0.0943112
-0.497149
0.0145042
0.063924
-0.204151
0.265671
-0.196063
0.281431
-0.570486
0.459328
0.417805
-0.586671
0.168773
-0.0640765
0.0150041
0.0490686
0.190616
0.132345
-0.430312
0.546792
-0.397956
0.348182
0.133834
-0.482175
-0.312485
0.453415
-0.287346
-0.160196
-0.102899
0.570736
-0.34575
-0.142714
0.0129531
0.129755
-0.00814741
0.0979693
-0.0898309
0.219757
-0.403786
0.184025
0.481832
0.103209
-0.10399
0.453374
-0.349518
0.373542
-0.127252
-0.246306
-0.203522
-0.183816
-0.301467
0.0782328
0.223201
-0.143881
-0.192722
0.0401554
-0.342521
0.235936
0.338531
0.142216
-0.0459586
0.152331
-0.106371
-0.14464
0.481256
-0.0241797
0.0167292
-0.0937913
0.0834679
0.0103157
-0.117037
0.290929
0.127953
-0.116352
-0.0116129
0.454115
-0.46361
0.684632
-0.255421
-0.429231
0.134349
0.322776
-0.457215
0.379665
0.0621931
-0.441863
-0.0524728
-0.344126
0.396585
0.496451
-0.0938275
-0.496317
0.496093
0.165233
0.381481
0.112321
-0.141868
0.576387
-0.146913
-0.42949
0.547722
-0.38257
0.377471
-0.193504
0.214004
-0.192496
-0.021545
-0.00288834
0.082968
-0.0945152
0.362449
-0.255361
-0.14607
-0.475458
0.128942
-0.14528
0.0947957
-0.0169388
-0.0778603
-0.0964249
0.326027
-0.0132389
0.088395
-0.0909722
0.00257517
0.129912
-0.0198076
-0.110121
0.58743
-0.177129
-0.41032
-0.149111
-0.00261814
0.476732
-0.14694
0.354213
0.291106
-0.327271
0.461527
0.018371
-0.0188483
0.000476378
0.00298223
0.115943
-0.0258232
-0.425399
-0.0722611
0.379713
-0.361597
-0.140904
0.502319
-0.381084
-0.146601
-0.446699
0.137099
0.309501
-0.365216
0.427495
-0.359466
0.0595251
0.299933
-0.543611
0.290763
0.189146
0.0248267
0.326991
-0.113507
-0.0195006
0.0191433
0.000357441
0.00947948
0.5528
0.130713
-0.108046
-0.0226718
-0.361825
-0.249967
0.0196864
0.00606369
-0.0257496
0.200084
-0.0220799
-0.178022
0.00294701
0.0480729
-0.0510254
0.116414
-0.0317181
-0.00236197
0.13053
0.00429985
0.125876
-0.00122132
-0.0221228
0.414359
-0.194605
-0.00643192
0.0245443
-0.578823
0.183174
-0.227046
0.0438614
0.166832
0.409538
-0.10179
0.225553
0.019061
-0.244643
0.227352
-0.374215
0.146766
0.0231499
-0.00172932
-0.0214212
-0.0872399
0.276358
-0.189166
0.0464571
0.346165
-0.0193447
0.130917
-0.111585
0.116887
-0.521209
0.390126
0.130879
-0.0928583
0.291582
-0.198781
-0.316271
0.668385
-0.273502
-0.394904
0.426199
-0.117742
0.126943
-0.163375
0.11803
-0.452702
-0.166806
0.284417
-0.117613
-0.223831
0.491465
-0.267856
-0.240312
0.0309113
0.27758
-0.460591
-0.439058
-0.0485417
0.0496693
0.0919277
0.27484
0.409773
0.36669
-0.120953
-0.245781
-0.00586612
0.00327956
0.200485
0.0153144
0.0630095
-0.0784833
0.0154693
0.0579948
0.00871167
-0.0667054
-0.50766
0.387691
0.119937
0.401127
0.186285
0.0754082
-0.0666623
-0.00875106
0.306232
0.119926
0.16696
0.0155437
0.215656
-0.0435541
0.00243194
0.0411184
-0.0434363
0.423097
0.0440088
-0.11897
-0.040328
0.306576
-0.266269
-0.388433
-0.00929615
-0.407252
0.203691
-0.459715
0.342228
0.117348
-0.00242044
-0.00112645
0.00354696
-0.218832
0.0220962
-0.227027
0.63574
-0.408722
0.0954131
0.130104
-0.0112264
0.100724
-0.0895125
0.137371
-0.312878
0.175462
-0.00313862
-0.040419
-0.0265485
0.0850966
-0.504812
0.566101
-0.061312
-0.18257
0.0119633
0.170597
0.0259341
-0.00153271
-0.167041
-0.015538
-0.0681543
0.0649821
0.00316938
-0.508507
0.0452504
0.462958
0.338868
-0.442985
-0.0156415
-0.000106939
0.0157475
0.0141225
0.080671
-0.00233461
-0.00115559
0.00349236
0.120345
-0.560061
0.439339
-0.106563
0.438919
-0.117225
0.00306574
-0.0214835
-0.12394
0.0594856
0.269481
0.117621
0.457061
-0.0922628
-0.0122705
-0.164956
0.0424104
-0.00902634
-0.0333837
-0.0676884
-0.00450511
0.0721859
-0.407156
0.0723863
0.386459
-0.458986
-0.0027739
0.0587914
0.203527
0.00726314
-0.210841
0.209911
0.315868
0.082278
-0.110214
0.0150353
-0.147152
0.341883
-0.571172
0.412187
0.158851
6.81743e-05
0.00396826
-0.0416535
-0.209859
0.588259
-0.116893
0.565119
-0.448483
-0.000741185
0.0622523
-0.529491
0.0246539
0.629165
-0.145063
-0.476618
0.252561
0.129976
0.326956
-0.453756
0.126674
0.14499
-0.049353
0.105646
-0.272452
-0.0451689
-0.118752
-0.227915
0.3466
0.000532542
-0.0032577
0.00272733
0.362303
-0.198394
0.062333
-0.00528237
-0.0570519
0.0780808
-0.0862373
0.024911
-0.500072
0.399383
0.100655
0.366453
0.139431
-0.506081
-0.00456417
0.092956
-0.204684
-0.358173
-0.0311165
0.412943
-0.168786
-0.337836
0.333046
-0.000439583
-0.0831378
-0.160757
-0.204984
-0.370405
0.00303512
-0.0181645
-0.197784
0.190895
0.00686598
0.01251
0.373771
-0.211353
-0.162485
0.599544
-0.111394
-0.488162
0.560746
0.207836
-0.197386
-0.0669032
0.0682081
0.00790356
-0.00282646
0.20622
0.401008
-0.00622225
0.156245
0.209899
-0.58265
0.372748
-0.116504
-0.329154
0.445562
-0.161264
0.0247652
-0.0259883
-0.0329133
-0.181271
-0.30553
0.22882
0.114566
0.0151529
-0.0410435
-0.31843
-0.0685701
-0.065679
-0.103929
-0.396177
0.189327
-0.477594
-0.424551
-0.0380902
-0.104627
0.156457
-0.149012
0.540452
-0.402497
0.00509487
-0.104895
0.099789
-0.497436
0.356618
0.140621
0.175706
-0.599014
-0.146818
0.0787162
0.0681026
0.024097
-0.0258273
-0.182178
-0.225077
0.407179
-0.0326387
0.0437522
-0.315919
0.19466
0.121243
0.023239
-0.0202063
0.161507
0.334938
-0.0180699
0.41059
-0.342406
0.462697
-0.120417
-0.125317
0.168305
-0.588642
0.420304
0.312509
-0.495841
0.183306
-0.331324
-0.0320388
0.0373915
0.0332416
0.00370559
-0.0369497
0.0298525
0.100856
0.0468271
-0.0499699
0.101221
-0.330673
0.229414
0.0323717
-0.00418905
-0.0281825
0.0375561
0.197087
0.0107063
0.433409
-0.313338
-0.144399
-0.353806
0.498074
-0.474345
-0.507639
0.37574
0.13172
-0.0619041
-0.0220743
0.613113
-0.441634
-0.171869
0.266198
0.011794
-0.278036
-0.383614
0.0936773
-0.0769962
-0.00385801
0.0465469
-0.0102699
0.00800707
0.00226257
0.124752
-0.454026
0.3292
-0.0627543
0.0717584
-0.00900849
-0.217069
0.355339
0.242627
-0.340114
-0.209105
0.513246
-0.312342
-0.21717
-0.00229984
0.00422032
0.319876
-0.0908496
0.0205826
-0.020829
0.0432433
-0.233265
0.36094
0.0960963
0.108832
0.00509562
0.398516
0.225606
0.267941
-0.0423433
-0.395146
0.229046
0.00182066
0.0918361
-0.0936632
-0.279969
-0.226935
0.337856
-0.19413
-0.14378
0.447448
0.339273
0.281833
-0.0880039
0.076762
-0.223976
-0.106219
0.330143
0.230764
-0.112823
-0.117973
-0.157305
0.46979
-0.0168037
-0.138919
0.0163651
-0.0153295
-0.00103462
0.327133
-0.487697
0.160443
-0.121715
-0.0652786
-0.470256
0.0891641
0.440443
-0.120203
-0.192506
-0.432773
0.625265
-0.0121421
0.0701375
-0.0173108
0.200473
-0.189275
-0.189391
-0.0971923
0.286531
0.107333
-0.49164
0.384284
-0.151393
0.497517
-0.346268
0.65063
0.322193
0.176272
0.39268
-0.525538
0.132784
0.154424
0.0196365
-0.0353312
0.252986
-0.206595
-0.285078
0.43815
0.550784
-0.245357
0.564181
-0.0316571
-0.532553
0.126136
0.0106342
-0.00369438
-0.0414737