/*--------------------------------*- C++ -*----------------------------------*\
| =========                 |                                                 |
| \\      /  F ield         | OpenFOAM: The Open Source CFD Toolbox           |
|  \\    /   O peration     | Version:  v2012                                 |
|   \\  /    A nd           | Website:  www.openfoam.com                      |
|    \\/     M anipulation  |                                                 |
\*---------------------------------------------------------------------------*/
FoamFile
{
    version     2.0;
    format      ascii;
    class       volVectorField;
    location    "500";
    object      cellDisplacement;
}
// * * * * * * * * * * * * * * * * * * * * * * * * * * * * * * * * * * * * * //

dimensions      [0 1 0 0 0 0 0];


internalField   nonuniform List<vector> 
13851
(
(0.0253896 0.0236139 0)
(0.0237204 -0.0483688 0)
(0.0235611 -0.046504 0)
(0.0307155 -0.172233 0)
(0.000834442 -0.00612957 0)
(0.0248824 -0.0727869 0)
(0.0195073 0.0681245 0)
(0.00181923 -0.00656442 0)
(0.0244343 0.0675222 0)
(0.00619747 -0.136029 0)
(0.0282032 -0.116231 0)
(0.00777195 -0.0790988 0)
(0.00959542 -0.16236 0)
(0.0248929 0.0500782 0)
(0.0243857 0.0156377 0)
(0.0226812 0.116234 0)
(0.029323 -0.118975 0)
(0.0193431 -0.0634785 0)
(0.026956 -0.0315361 0)
(0.0254351 0.0214952 0)
(0.0251886 -0.00386517 0)
(0.0240622 -0.153445 0)
(0.0311307 -0.192585 0)
(0.000348689 -0.00280701 0)
(0.0283369 -0.0830882 0)
(0.0223265 0.103345 0)
(0.0241161 0.0762192 0)
(0.0263484 -0.00665753 0)
(0.0233589 0.108439 0)
(0.0146078 -0.0578785 0)
(0.0298382 -0.138867 0)
(0.019623 0.0647348 0)
(0.0251004 0.0336736 0)
(0.0254112 0.0301575 0)
(0.027469 -0.111363 0)
(0.0231583 0.116022 0)
(0.000305646 -0.00246907 0)
(0.0295683 -0.131507 0)
(0.0282123 -0.0767007 0)
(0.0171638 -0.143093 0)
(0.026187 0.000619451 0)
(0.023362 0.108247 0)
(0.0298587 -0.139416 0)
(0.0304853 -0.193313 0)
(0.0235914 0.0994763 0)
(0.0159907 -0.105052 0)
(0.00287837 0.00439015 0)
(0.0233462 0.0949609 0)
(0.0231708 -0.124455 0)
(0.00923823 -0.16236 0)
(0.0275568 -0.0515749 0)
(0.00718853 -0.168231 0)
(0.0227333 0.114115 0)
(0.0213794 0.0768059 0)
(0.0243653 0.070211 0)
(0.0170656 -0.144604 0)
(0.025163 0.0318986 0)
(0.0262147 -0.000420147 0)
(0.0235696 0.0962354 0)
(0.0257743 0.0164475 0)
(0.00746422 -0.0764606 0)
(0.0241259 0.0754156 0)
(0.00372209 -0.109872 0)
(0.0233096 -0.126319 0)
(0.0288172 -0.202731 0)
(0.0288951 -0.203509 0)
(0.0257962 0.0156108 0)
(0.0144056 -0.206038 0)
(0.0193615 -0.128254 0)
(0.030458 -0.162463 0)
(0.029568 -0.128413 0)
(0.0255182 -0.00555633 0)
(0.0129227 -0.149035 0)
(0.0257255 0.0183071 0)
(0.022354 0.0606604 0)
(0.021993 -0.155195 0)
(0.0293356 -0.119463 0)
(0.012292 -0.027328 0)
(0.0282942 -0.0816293 0)
(0.0127363 -0.111239 0)
(0.0196036 -0.127798 0)
(0.0288386 -0.106354 0)
(0.0274269 -0.113749 0)
(0.0250054 0.0457825 0)
(0.0256994 0.019304 0)
(0.0297417 -0.135124 0)
(0.0243091 -0.152488 0)
(0.0233702 0.108181 0)
(0.00795957 -0.138115 0)
(0.0298814 -0.14053 0)
(0.00687927 -0.169105 0)
(0.019876 0.0628195 0)
(0.0279372 -0.0660913 0)
(0.0297801 -0.13654 0)
(0.0276852 -0.0565215 0)
(0.0302008 -0.192763 0)
(0.0153943 -0.117743 0)
(0.0230741 0.104507 0)
(0.0268731 -0.0254853 0)
(0.0295039 -0.146723 0)
(0.0231627 0.102531 0)
(0.0158696 -0.202427 0)
(0.0182735 -0.202524 0)
(0.012769 -0.155788 0)
(0.0166458 -0.098407 0)
(0.0260614 -0.0291562 0)
(0.0164174 -0.0987581 0)
(0.0295988 -0.129619 0)
(0.0199915 0.0594548 0)
(0.0191167 -0.0629619 0)
(0.0248647 -0.170978 0)
(0.0162561 -0.104934 0)
(0.0277442 -0.066203 0)
(0.0274721 -0.0769289 0)
(0.0245834 0.0525588 0)
(0.0213532 0.0746593 0)
(0.0108776 -0.0493912 0)
(0.00221423 -0.00766908 0)
(0.0307421 -0.173204 0)
(0.0304731 -0.163158 0)
(0.0299315 -0.186083 0)
(0.0175682 -0.0604036 0)
(0.0187863 -0.135013 0)
(0.0255714 0.0241788 0)
(0.026458 -0.0130672 0)
(0.0181993 -0.207166 0)
(0.0153796 -0.115824 0)
(0.0282881 -0.147283 0)
(0.0256633 0.0206189 0)
(0.0248647 0.0144254 0)
(0.0239511 -0.155968 0)
(0.0263018 -0.103584 0)
(0.0295542 -0.131513 0)
(0.0253637 0.0319864 0)
(0.0282262 -0.113868 0)
(0.0278546 -0.0629897 0)
(0.0137986 -0.205752 0)
(0.0297013 -0.13355 0)
(0.0141858 -0.200164 0)
(0.0245345 0.0240573 0)
(0.0288653 -0.108067 0)
(0.014431 -0.173446 0)
(0.00791207 -0.140023 0)
(0.0245664 -0.205201 0)
(0.0278193 -0.0630128 0)
(0.0207999 -0.162291 0)
(0.0119162 -0.0251538 0)
(0.029824 -0.138235 0)
(0.0238818 0.0886348 0)
(0.0284005 -0.147256 0)
(0.0232328 0.100108 0)
(0.0277763 -0.0681056 0)
(0.0275163 -0.0764719 0)
(0.0268262 -0.0274836 0)
(0.00977372 -0.170781 0)
(0.00636114 -0.154418 0)
(0.0067196 -0.065138 0)
(0.0282405 -0.0777523 0)
(0.0245003 0.0213003 0)
(0.0210372 0.027162 0)
(0.000788094 -0.00640021 0)
(0.0232733 0.111679 0)
(0.0259681 -0.0270714 0)
(0.0234183 0.0924242 0)
(0.0248541 0.0515573 0)
(0.0242483 0.0745553 0)
(0.0242834 0.0732024 0)
(0.0275907 -0.0528689 0)
(0.0247262 -0.16953 0)
(0.0267625 -0.0217689 0)
(0.00697046 -0.0733411 0)
(0.0105678 -0.0472444 0)
(0.0265438 -0.0392684 0)
(0.000724037 -0.00554728 0)
(0.0276641 -0.0557308 0)
(0.0248175 0.0501683 0)
(0.0237421 0.0844845 0)
(0.0106889 -0.0459297 0)
(0.0220732 0.0669137 0)
(0.0236738 0.0861952 0)
(0.0264132 -0.0116457 0)
(0.0303982 -0.192138 0)
(0.0247314 -0.165924 0)
(0.0247504 0.0168448 0)
(0.0293783 -0.121085 0)
(0.023846 0.0899926 0)
(0.0250237 0.0368256 0)
(0.0129275 -0.196374 0)
(0.0102866 -0.167271 0)
(0.0155648 -0.0785968 0)
(0.0278145 -0.0630509 0)
(0.0245945 0.0177436 0)
(0.0249026 0.0497062 0)
(0.0248842 -0.0687135 0)
(0.0207723 -0.160415 0)
(0.0229036 0.109404 0)
(0.024967 0.0382789 0)
(0.020035 -0.021734 0)
(0.0210164 -0.0803757 0)
(0.0168361 -0.205675 0)
(0.0289732 -0.112683 0)
(0.0271458 -0.0359386 0)
(0.0263777 -0.00664147 0)
(0.0242535 0.0188531 0)
(0.0309712 -0.203828 0)
(0.0271309 -0.0353554 0)
(0.00784357 -0.186993 0)
(0.0238652 0.0445682 0)
(0.024551 0.0630704 0)
(0.0248341 -0.0881496 0)
(0.0225188 0.120733 0)
(0.018588 -0.134422 0)
(0.0289437 -0.110858 0)
(0.00252311 -0.0273469 0)
(0.0274509 -0.105527 0)
(0.0227325 -0.156577 0)
(0.00909304 -0.160586 0)
(0.0256628 0.0166729 0)
(0.0208089 -0.0524975 0)
(0.0256406 -0.208943 0)
(0.0103917 -0.0437017 0)
(0.0255797 0.0161773 0)
(0.0250341 0.0446872 0)
(0.027771 -0.0598017 0)
(0.0145365 -0.1951 0)
(0.0238222 0.0471728 0)
(0.00133129 -0.0142181 0)
(0.0238948 -0.205062 0)
(0.0102135 -0.103991 0)
(0.0273982 -0.107295 0)
(0.0307649 -0.174877 0)
(0.0133142 -0.195747 0)
(0.0247524 -0.0847902 0)
(0.00253928 -0.102084 0)
(0.0263402 -0.00520227 0)
(0.0147478 -0.0561354 0)
(0.0310735 -0.192361 0)
(0.0264611 -0.00981746 0)
(0.0294293 -0.146235 0)
(0.000740241 -0.00604528 0)
(0.0303258 -0.166688 0)
(0.0256247 0.0221533 0)
(0.0235534 0.100861 0)
(0.0225631 0.118732 0)
(0.0252744 -0.0289053 0)
(0.02502 -0.20593 0)
(0.0256541 0.0165552 0)
(0.0219682 0.0704393 0)
(0.0301112 -0.191641 0)
(0.0257004 -0.165576 0)
(0.0238733 0.0889887 0)
(0.0264092 -0.0151718 0)
(0.00197001 -0.00941796 0)
(0.0240072 -0.0262218 0)
(0.023004 0.107171 0)
(0.0232374 0.113079 0)
(0.0228078 0.129643 0)
(0.0152968 -0.0771635 0)
(0.0175565 -0.20746 0)
(0.00836804 -0.136505 0)
(0.0250557 0.0385855 0)
(0.0265793 -0.017951 0)
(0.0240948 -0.0253572 0)
(0.0258935 -0.0227275 0)
(0.0264683 -0.0169701 0)
(0.0134304 -0.137566 0)
(0.016615 -0.202653 0)
(0.0234737 0.0878161 0)
(0.026082 0.00330415 0)
(0.00686412 -0.104531 0)
(0.0087429 -0.160311 0)
(0.0141585 -0.195745 0)
(0.0246737 0.05831 0)
(0.0306367 -0.169115 0)
(0.0252036 0.00139879 0)
(0.0178642 -0.0609803 0)
(0.0263392 -0.00860823 0)
(0.0267033 -0.0227322 0)
(0.024713 0.0461565 0)
(0.0257964 -0.0202791 0)
(0.0247033 0.0572054 0)
(0.0265286 -0.0123382 0)
(0.0246452 -0.042639 0)
(0.024104 0.016545 0)
(0.0298464 -0.142382 0)
(0.0168539 -0.0923782 0)
(0.00656715 -0.0618115 0)
(0.0247859 0.0441605 0)
(0.0281751 -0.127604 0)
(0.0152037 -0.0546839 0)
(0.00253705 -0.0264925 0)
(0.0103252 -0.10644 0)
(0.00115519 -0.00769106 0)
(0.0248453 -0.0119774 0)
(0.0068448 -0.0650397 0)
(0.0244736 0.0660144 0)
(0.0252316 -0.00289215 0)
(0.0171146 -0.129389 0)
(0.0231878 0.114957 0)
(0.0255453 0.0251759 0)
(0.00880005 -0.168079 0)
(0.0255261 0.0185919 0)
(0.0272121 -0.038423 0)
(0.0146767 -0.174502 0)
(0.00848853 -0.169105 0)
(0.0253539 -0.0051396 0)
(0.0251758 0.0392835 0)
(0.0291483 -0.112889 0)
(0.0263395 -0.0265784 0)
(0.00106909 -0.0077826 0)
(0.0267177 -0.0200995 0)
(0.00728476 -0.076198 0)
(0.0264823 -0.0296777 0)
(0.0272441 -0.0396415 0)
(0.0259675 0.00762819 0)
(0.0209282 0.0260094 0)
(0.0298701 -0.143854 0)
(0.0295854 -0.133931 0)
(0.0294247 -0.122989 0)
(0.0278953 -0.0731601 0)
(0.0134226 -0.203637 0)
(0.0278615 -0.0632759 0)
(0.0256099 0.0226948 0)
(0.0264017 -0.00876097 0)
(0.0212342 -0.0809075 0)
(0.029748 -0.135211 0)
(0.023408 0.106745 0)
(0.0255173 -0.20829 0)
(0.025793 -0.208072 0)
(0.00826297 -0.187431 0)
(0.0265431 -0.0358289 0)
(0.0203922 -0.189212 0)
(0.0233348 0.109535 0)
(0.0172514 -0.203517 0)
(0.00319522 -0.0176672 0)
(0.00329482 0.00412931 0)
(0.0254284 -0.131181 0)
(0.0294476 -0.123832 0)
(0.0256862 -0.20889 0)
(0.0167389 -0.0900472 0)
(0.0277337 -0.0583703 0)
(0.019703 -0.19099 0)
(0.0263905 -0.106258 0)
(0.0209927 0.0303499 0)
(0.025147 0.0403799 0)
(0.0262874 -0.00686787 0)
(0.0228415 0.111817 0)
(0.0224217 -0.156957 0)
(0.0245769 -0.0845339 0)
(0.0227683 0.130727 0)
(0.0107008 -0.167807 0)
(0.0267697 -0.0250528 0)
(0.0245159 -0.0400165 0)
(0.0254479 -0.00850975 0)
(0.0196196 -0.191982 0)
(0.00831343 -0.138415 0)
(0.0171788 -0.127599 0)
(0.0286551 -0.10571 0)
(0.0295118 -0.14464 0)
(0.0262734 -0.0099489 0)
(0.0296014 -0.133826 0)
(0.0228081 0.129175 0)
(0.0210467 -0.162527 0)
(0.0264194 -0.0082186 0)
(0.0252003 0.0343793 0)
(0.0155464 -0.028298 0)
(0.0259253 0.00935449 0)
(0.0255165 0.0134047 0)
(0.0269118 -0.0269621 0)
(0.0252581 -0.130207 0)
(0.0217922 0.11804 0)
(0.0235627 0.0959149 0)
(0.0290402 -0.110813 0)
(0.0287286 -0.110486 0)
(0.0234824 0.103899 0)
(0.0223212 -0.0995132 0)
(0.0248643 0.048648 0)
(0.0298933 -0.140741 0)
(0.0254315 -0.0483701 0)
(0.0238705 0.0890963 0)
(0.0257606 -0.051891 0)
(0.0265522 -0.0133136 0)
(0.0240852 0.0147534 0)
(0.0211001 0.102361 0)
(0.0265925 -0.0222805 0)
(0.0294569 -0.136185 0)
(0.00674487 -0.154643 0)
(0.0246751 -0.0530137 0)
(0.0282713 -0.128514 0)
(0.0222557 0.0642626 0)
(0.0161246 -0.113552 0)
(0.0251635 0.00413275 0)
(0.0254172 0.0297053 0)
(0.0130098 -0.147745 0)
(0.0240202 0.0401171 0)
(0.0308763 -0.178304 0)
(0.0240418 -0.0844502 0)
(0.0307652 -0.185166 0)
(0.0224522 0.0812698 0)
(0.0291118 -0.111573 0)
(0.024993 -0.0892866 0)
(0.0222768 0.102544 0)
(0.0307853 -0.203906 0)
(0.0265336 -0.01593 0)
(0.0261848 -0.0360506 0)
(0.0228343 0.128634 0)
(0.0256514 0.0211367 0)
(0.0303107 -0.167828 0)
(0.0132985 -0.138827 0)
(0.0285969 -0.104005 0)
(0.0260061 -0.0621952 0)
(0.0219083 0.114632 0)
(0.0175724 -0.0687345 0)
(0.0296528 -0.131559 0)
(0.0257404 0.0174115 0)
(0.0287344 -0.0986725 0)
(0.0244759 -0.0812153 0)
(0.0265523 -0.0202211 0)
(0.0243533 0.0670803 0)
(0.0306657 -0.170239 0)
(0.0122308 -0.00356209 0)
(0.0297382 -0.134826 0)
(0.0293714 -0.130803 0)
(0.0312574 -0.19609 0)
(0.0259313 -0.165115 0)
(0.0269985 -0.031516 0)
(0.00937613 -0.151745 0)
(0.000638234 -0.00485031 0)
(0.0243305 0.0715419 0)
(0.024468 0.0628959 0)
(0.00641203 -0.138582 0)
(0.0237804 -0.05138 0)
(0.0241133 0.0387702 0)
(0.0108067 -0.0552504 0)
(0.0257438 0.0172102 0)
(0.0264915 -0.0328471 0)
(0.0255487 0.011456 0)
(0.0227676 0.0138825 0)
(0.0223067 -0.0965755 0)
(0.00551511 -0.168647 0)
(0.0290861 -0.112849 0)
(0.016803 -0.129955 0)
(0.00521754 -0.167526 0)
(0.0232472 0.111092 0)
(0.0254491 0.028445 0)
(0.0236776 -0.156552 0)
(0.0236241 0.0929415 0)
(0.00342588 -0.107959 0)
(0.00667163 -0.0616329 0)
(0.0242216 -0.0844303 0)
(0.0263342 -0.0118626 0)
(0.0220241 0.0898509 0)
(0.0163767 -0.116891 0)
(0.0227772 -0.0733289 0)
(0.0298474 -0.184852 0)
(0.0227222 -0.035515 0)
(0.0293495 -0.120826 0)
(0.00751143 -0.074026 0)
(0.0220411 0.0459743 0)
(0.0236415 0.0975596 0)
(0.022667 -0.192607 0)
(0.00362649 -0.00153446 0)
(0.00643217 -0.0724444 0)
(0.0228023 0.0105636 0)
(0.0203386 -0.0160075 0)
(0.0304678 -0.175696 0)
(0.0231958 0.113422 0)
(0.0252683 -0.0260449 0)
(0.0307078 -0.208488 0)
(0.0242872 -0.0810735 0)
(0.00863901 -0.0983795 0)
(0.0252807 0.0352133 0)
(0.023628 0.0934081 0)
(0.0181286 -0.198242 0)
(0.0141142 -0.149621 0)
(0.0255644 0.0244361 0)
(0.0149134 -0.199564 0)
(0.0310529 -0.196644 0)
(0.0124828 -0.156059 0)
(0.0262829 -0.0967473 0)
(0.0287182 -0.108739 0)
(0.0230093 0.0506003 0)
(0.0256132 0.0225566 0)
(0.0243116 0.0688452 0)
(0.0287676 -0.100222 0)
(0.0181134 -0.177304 0)
(0.0278567 -0.0710025 0)
(0.0139522 -0.137279 0)
(0.02332 0.109945 0)
(0.0225304 0.0783202 0)
(0.0249033 0.0406628 0)
(0.0259025 -0.059513 0)
(0.0222846 -0.155143 0)
(0.0227454 -0.191661 0)
(0.026493 -0.0360419 0)
(0.000934893 -0.00693817 0)
(0.0303733 -0.159065 0)
(0.0253109 0.034074 0)
(0.0293893 -0.122446 0)
(0.0312701 -0.193396 0)
(0.0232455 0.111469 0)
(0.0286775 -0.0943504 0)
(0.0266528 -0.0205344 0)
(0.0153815 -0.193645 0)
(0.00308514 -0.0506882 0)
(0.0308355 -0.18564 0)
(0.00585639 -0.135413 0)
(0.0159002 -0.112351 0)
(0.0167913 -0.194833 0)
(0.0275845 -0.0526957 0)
(0.0231753 -0.0320027 0)
(0.013217 -0.174991 0)
(0.0288675 -0.183823 0)
(0.0268312 -0.0639625 0)
(0.00389953 -0.139376 0)
(0.0281868 -0.0764115 0)
(0.0149124 -0.118121 0)
(0.0255357 0.0254689 0)
(0.0304098 -0.174336 0)
(0.0130289 -0.112203 0)
(0.0221183 -0.00707801 0)
(0.0291715 -0.121558 0)
(0.0260341 0.00522239 0)
(0.015112 -0.0570422 0)
(0.0293994 -0.124137 0)
(0.0308588 -0.184405 0)
(0.0155476 0.00663201 0)
(0.0288807 -0.102214 0)
(0.0268959 -0.0294507 0)
(0.0257179 0.0110025 0)
(0.0177536 -0.177551 0)
(0.0233061 0.108803 0)
(0.0262187 -0.000514855 0)
(0.0158138 0.0058019 0)
(0.0277572 -0.0632201 0)
(0.0190402 -0.13157 0)
(0.0151702 -0.118814 0)
(0.0227352 0.128943 0)
(0.0265955 -0.014968 0)
(0.0263673 -0.0608672 0)
(0.0218827 0.0915977 0)
(0.00531781 -0.136535 0)
(0.0228641 0.0831998 0)
(0.0256223 0.0221686 0)
(0.0280728 -0.0713409 0)
(0.0173732 -0.00814276 0)
(0.0290757 -0.109542 0)
(0.0161537 -0.115972 0)
(0.0192901 -0.130876 0)
(0.0261618 -0.0332896 0)
(0.0212789 0.0628243 0)
(0.0122342 -0.000991247 0)
(0.0217838 -0.156749 0)
(0.0288 -0.0991415 0)
(0.0294121 -0.135507 0)
(0.0288424 -0.100732 0)
(0.0230372 -0.0334993 0)
(0.00868898 -0.136766 0)
(0.0245874 0.0615842 0)
(0.00407589 -0.0641832 0)
(0.0284867 -0.0988948 0)
(0.0227819 0.027086 0)
(0.0226339 0.0541198 0)
(0.0254418 -0.0365191 0)
(0.0235166 0.102067 0)
(0.0265639 -0.0136866 0)
(0.0247153 -0.0613943 0)
(0.0298964 -0.140865 0)
(0.0209531 0.01962 0)
(0.0269395 -0.0519915 0)
(0.0234087 0.106446 0)
(0.024367 0.0701435 0)
(0.0182228 -0.13949 0)
(0.0137823 -0.138377 0)
(0.0190953 -0.202238 0)
(0.0287667 -0.0978467 0)
(0.0230747 0.111045 0)
(0.0227546 0.0849269 0)
(0.0310778 -0.195236 0)
(0.0212094 0.0657733 0)
(0.0239249 0.0176695 0)
(0.0307411 -0.174382 0)
(0.0283015 -0.0807726 0)
(0.0295667 -0.187101 0)
(0.0254939 0.0270739 0)
(0.0244865 0.0594323 0)
(0.0229897 0.122259 0)
(0.0218163 -0.101598 0)
(0.0235171 0.0983229 0)
(0.0270064 -0.0320417 0)
(0.00778093 -0.0932108 0)
(0.0279719 -0.0674202 0)
(0.0275474 -0.0515856 0)
(0.0248838 -0.167434 0)
(0.0246552 0.0212092 0)
(0.016119 -0.145961 0)
(0.0304171 -0.208439 0)
(0.0288537 -0.155878 0)
(0.0307887 -0.178363 0)
(0.0167806 -0.13176 0)
(0.000839257 -0.00653045 0)
(0.0113726 -0.1933 0)
(0.0268493 -0.0667766 0)
(0.0073423 -0.0713131 0)
(0.0276099 -0.0536539 0)
(0.00101468 -0.00786142 0)
(0.0245228 0.0577142 0)
(0.0171735 -0.179403 0)
(0.02203 0.11314 0)
(0.0128415 -0.154413 0)
(0.00397996 -0.141531 0)
(0.0276751 -0.159923 0)
(0.0290388 -0.108133 0)
(0.0263406 -0.0428278 0)
(0.0278138 -0.0614245 0)
(0.0263565 -0.0998435 0)
(0.0114233 -0.0597257 0)
(0.0169769 -0.0364057 0)
(0.0266435 -0.0422794 0)
(0.0227227 -0.0764129 0)
(0.0276417 -0.0692286 0)
(0.0236166 -0.0364189 0)
(0.0175116 -0.198135 0)
(0.023446 0.100514 0)
(0.00387318 -0.0651456 0)
(0.0225984 0.137634 0)
(0.00180911 -0.0192684 0)
(0.0221162 0.120828 0)
(0.0299408 -0.142561 0)
(0.023997 0.0840674 0)
(0.00788988 -0.196925 0)
(0.0307952 -0.179678 0)
(0.0287224 -0.185127 0)
(0.0298387 -0.157527 0)
(0.0275046 -0.0499175 0)
(0.0181348 -0.0116131 0)
(0.0282156 -0.0774064 0)
(0.0202989 -0.190306 0)
(0.0255378 -0.0483816 0)
(0.0312346 -0.192129 0)
(0.0278639 -0.0653655 0)
(0.0158278 -0.0303048 0)
(0.0276561 -0.0709706 0)
(0.0198278 -0.0188253 0)
(0.0229842 0.122582 0)
(0.027899 -0.0646377 0)
(0.0201087 -0.126938 0)
(0.0157159 -0.206012 0)
(0.0259958 0.00759851 0)
(0.0014022 -0.0187274 0)
(0.00190074 -0.0252398 0)
(0.0222557 0.106014 0)
(0.0226314 0.136378 0)
(0.0233653 0.106134 0)
(0.00814651 -0.168788 0)
(0.0267278 -0.0275591 0)
(0.0225638 -0.0362859 0)
(0.00439721 -0.14492 0)
(0.0233326 0.104743 0)
(0.0266815 -0.0253231 0)
(0.029384 -0.141227 0)
(0.0110835 -0.00259054 0)
(0.0235486 0.0852951 0)
(0.02385 -0.197364 0)
(0.022087 0.103494 0)
(0.0081599 -0.179536 0)
(0.0204625 -0.160289 0)
(0.0287618 -0.157281 0)
(0.0116614 -0.192635 0)
(0.0234087 0.0914619 0)
(0.0254019 -0.00248207 0)
(0.0255852 -0.00908656 0)
(0.0293591 -0.187431 0)
(0.0309584 -0.197123 0)
(0.027012 -0.0338611 0)
(0.0246052 0.0605275 0)
(0.0293526 -0.122575 0)
(0.0232476 0.0988656 0)
(0.0249344 0.0484889 0)
(0.0260812 -0.179973 0)
(0.0227825 0.127605 0)
(0.025661 0.0135522 0)
(0.0188989 -0.0715933 0)
(0.0238825 0.0164424 0)
(0.0270152 -0.0344446 0)
(0.0249546 -0.141781 0)
(0.0125461 -0.108784 0)
(0.0124042 -0.104575 0)
(0.0223258 0.115837 0)
(0.0234454 0.105312 0)
(0.0222134 0.0439545 0)
(0.0264974 -0.0111923 0)
(0.0116302 -0.0621777 0)
(0.0234157 0.104503 0)
(0.0290568 -0.195713 0)
(0.0272866 -0.0412637 0)
(0.027741 -0.0747577 0)
(0.0250921 -0.0874649 0)
(0.0235189 -0.0421393 0)
(0.0273186 -0.0424855 0)
(0.02934 -0.138751 0)
(0.025924 -0.178875 0)
(0.0244195 0.0648775 0)
(0.0220717 -0.0944421 0)
(0.0307279 -0.181478 0)
(0.0222546 0.118348 0)
(0.0246134 0.0544891 0)
(0.0261251 -0.0758843 0)
(0.0293273 -0.125933 0)
(0.00959515 -0.150764 0)
(0.00205291 -0.02229 0)
(0.00792722 -0.185938 0)
(0.00472397 -0.146642 0)
(0.0234953 0.103184 0)
(0.00132793 -0.00896465 0)
(0.0232839 0.106043 0)
(0.0246207 0.0603426 0)
(0.0278046 -0.0764458 0)
(0.0279908 -0.0682177 0)
(0.0268389 -0.0241809 0)
(0.0246595 0.0532654 0)
(0.029853 -0.155814 0)
(0.00885666 -0.196649 0)
(0.00165663 -0.070942 0)
(0.00863233 -0.158437 0)
(0.0119481 -0.0305758 0)
(0.0167983 -0.0377431 0)
(0.000972933 -0.00747256 0)
(0.026797 -0.045419 0)
(0.0276116 -0.0613996 0)
(0.024215 -0.197853 0)
(0.0262987 -0.00488152 0)
(0.021633 -0.147504 0)
(0.024509 0.0646795 0)
(0.000225688 -0.00517438 0)
(0.030722 -0.172589 0)
(0.0273297 -0.119334 0)
(0.000463496 -0.0109135 0)
(0.00254832 -0.0949695 0)
(0.0240839 0.0807725 0)
(0.0250059 -0.0759588 0)
(0.0240877 0.0793477 0)
(0.0274542 -0.0480326 0)
(0.024471 0.024124 0)
(0.0255145 0.00602294 0)
(0.0151757 0.0114423 0)
(0.0254519 0.0286313 0)
(0.0197959 -0.175399 0)
(0.023331 -0.0349854 0)
(0.0234051 0.102257 0)
(0.00196144 -0.0707971 0)
(0.0139787 -0.173688 0)
(0.0182984 -0.0344696 0)
(0.0227967 0.0720822 0)
(0.0237018 0.095532 0)
(0.0259615 -0.0991476 0)
(0.0260371 -0.0687361 0)
(0.0294324 -0.132767 0)
(0.0281053 -0.0725643 0)
(0.0120957 -0.196622 0)
(0.0216787 -0.178509 0)
(0.023226 0.113327 0)
(0.0115475 -0.0293778 0)
(0.0231732 0.115367 0)
(0.00182485 -0.0149769 0)
(0.0227085 -0.0313376 0)
(0.0281859 -0.0774701 0)
(0.0240028 0.0625526 0)
(0.0246458 0.0499121 0)
(0.0284925 -0.111892 0)
(0.0263096 -0.0398823 0)
(0.00161353 -0.0457398 0)
(0.000231323 -0.00479477 0)
(0.0269891 -0.0520893 0)
(0.0219647 -0.0996831 0)
(0.00138443 -0.0400089 0)
(0.0218039 0.0567831 0)
(0.0296766 -0.144852 0)
(0.00693702 -0.0491024 0)
(0.0298749 -0.16181 0)
(0.0307172 -0.183366 0)
(0.0238776 0.0869513 0)
(0.0284257 -0.10941 0)
(0.0301449 -0.150764 0)
(0.0142961 -0.200797 0)
(0.00191025 -0.0739112 0)
(0.0288294 -0.115634 0)
(0.0116754 -0.0653275 0)
(0.0246285 -0.0488163 0)
(0.0245741 0.0616312 0)
(0.0227185 0.132524 0)
(0.0282618 -0.0791623 0)
(0.0232303 0.113047 0)
(0.020546 -0.1231 0)
(0.0199932 -0.125387 0)
(0.0274368 -0.193676 0)
(0.0199094 -0.161465 0)
(0.0168406 -0.0814746 0)
(0.031169 -0.194131 0)
(0.0249995 0.040962 0)
(0.0240268 0.0831303 0)
(0.0220636 0.123087 0)
(0.0240748 0.0612325 0)
(0.00540156 -0.150105 0)
(0.0147602 -0.0604573 0)
(0.0303718 -0.165725 0)
(0.0256554 0.00756887 0)
(0.022878 -0.0305196 0)
(0.000757156 -0.0303234 0)
(0.0245064 0.054905 0)
(0.0281179 -0.0809386 0)
(0.0265396 -0.0128102 0)
(0.00934124 -0.170232 0)
(0.00421125 -0.0367959 0)
(0.0237323 0.0943681 0)
(0.00780044 -0.178848 0)
(0.025613 -0.04445 0)
(0.0103688 -0.0530701 0)
(0.027502 -0.0495519 0)
(0.00136123 -0.00657738 0)
(0.0298626 -0.139583 0)
(0.00540373 -0.117909 0)
(0.0294121 -0.148471 0)
(0.0252486 -0.0119874 0)
(0.0271 -0.195731 0)
(0.0261449 -0.0729046 0)
(0.0126013 -0.149216 0)
(0.0238741 -0.0574016 0)
(0.00528618 -0.0388003 0)
(0.0231536 0.110333 0)
(0.00995429 -0.178122 0)
(0.0228211 0.129121 0)
(0.0222759 -0.0903148 0)
(0.0251781 0.0381528 0)
(0.0251146 0.041534 0)
(0.0260811 -0.0825357 0)
(0.00416366 -0.0288577 0)
(0.0309548 -0.181362 0)
(0.0233494 0.107693 0)
(0.0248402 -0.0604877 0)
(0.0238782 0.0664107 0)
(0.00829488 -0.158032 0)
(0.0230267 0.121293 0)
(0.0191287 -0.0721458 0)
(0.0270725 -0.0367516 0)
(0.00807372 -0.101526 0)
(0.00553086 -0.0401636 0)
(0.0240622 0.0801187 0)
(0.0254165 -0.0331438 0)
(0.00677387 -0.0757746 0)
(0.0215257 0.0756077 0)
(0.0260397 0.00626452 0)
(0.0307949 -0.206985 0)
(0.026037 0.00607079 0)
(0.0150979 -0.0783807 0)
(0.0248993 0.0498268 0)
(0.00712409 -0.107956 0)
(0.0065988 -0.0468201 0)
(0.0100917 -0.169826 0)
(0.00392278 0.0047822 0)
(0.00248192 -0.036205 0)
(0.0264063 -0.00799206 0)
(0.0247986 0.053151 0)
(0.0209751 -0.0551736 0)
(0.00127549 -0.00990319 0)
(0.0263396 -0.0571276 0)
(0.0162901 -0.103119 0)
(0.0309448 -0.181121 0)
(0.0288121 -0.113585 0)
(0.0249294 0.048682 0)
(0.0279089 -0.065096 0)
(0.0239054 -0.0606367 0)
(0.0234807 0.0888991 0)
(0.00809885 -0.0959745 0)
(0.0252673 -0.0079461 0)
(0.0288072 -0.195419 0)
(0.017878 -0.00936673 0)
(0.00180296 -0.0149149 0)
(0.0302437 -0.162825 0)
(0.0278654 -0.0633548 0)
(0.0254329 0.00807424 0)
(0.0293405 -0.119642 0)
(0.0244936 0.0385763 0)
(0.00385301 -0.107799 0)
(0.026693 -0.0719272 0)
(0.0238393 0.0685653 0)
(0.028795 -0.0988279 0)
(0.0247715 -0.0128163 0)
(0.0239268 0.0843867 0)
(0.0257185 0.00600551 0)
(0.00281614 -0.0290024 0)
(0.0306869 -0.173435 0)
(0.0306689 -0.172259 0)
(0.023635 0.0980778 0)
(0.0278681 -0.0652485 0)
(0.0226257 0.132623 0)
(0.0184087 -0.176104 0)
(0.0256894 -0.205629 0)
(0.00469631 -0.167935 0)
(0.0253727 0.0299191 0)
(0.0248023 -0.140179 0)
(0.00262171 -0.0145671 0)
(0.0261757 0.000819965 0)
(0.0212184 -0.149534 0)
(0.00383034 -0.0265392 0)
(0.0184052 -0.137994 0)
(0.0209767 -0.149381 0)
(0.0275316 -0.0506675 0)
(0.0268915 -0.0297549 0)
(0.0134188 -0.084145 0)
(0.0266858 -0.0686852 0)
(0.0250826 0.0428396 0)
(0.0224859 -0.131195 0)
(0.0294135 -0.122431 0)
(0.0129492 -0.18133 0)
(0.0243918 0.0489497 0)
(0.026763 -0.0213512 0)
(0.00694669 -0.068097 0)
(0.0230811 0.111627 0)
(0.0256524 -0.144443 0)
(0.0262067 -0.0830493 0)
(0.0308873 -0.207524 0)
(0.0214138 -0.14735 0)
(0.0287173 -0.101822 0)
(0.0221244 0.10479 0)
(0.0260516 0.00578956 0)
(0.0194025 0.00517679 0)
(0.0231386 0.117016 0)
(0.0254455 -0.052292 0)
(0.0254913 0.027242 0)
(0.0283148 -0.0805 0)
(0.0231358 0.117129 0)
(0.0242634 0.0311399 0)
(0.0117494 -0.152429 0)
(0.0205694 -0.125566 0)
(0.00136854 -0.0194122 0)
(0.0210442 0.101014 0)
(0.00364439 -0.0971072 0)
(0.0256607 0.0207396 0)
(0.0244421 -0.166447 0)
(0.0168095 -0.191792 0)
(0.0116062 -0.19629 0)
(0.0184016 -0.174943 0)
(0.0148335 -0.0768924 0)
(0.020251 0.0761238 0)
(0.0252029 -0.137319 0)
(0.0221871 -0.010844 0)
(0.0244847 -0.153863 0)
(0.0273002 -0.0420303 0)
(0.0230216 0.114634 0)
(0.025044 -0.0370831 0)
(0.0279631 -0.151049 0)
(0.0262154 -0.000731824 0)
(0.0137022 -0.174999 0)
(0.0293706 -0.120903 0)
(0.0111847 -0.0302182 0)
(0.0252854 -0.171932 0)
(0.00958688 -0.178901 0)
(0.0184483 -0.104327 0)
(0.0273874 -0.164917 0)
(0.00875668 -0.100984 0)
(0.0133636 -0.0821635 0)
(0.0145633 -0.203364 0)
(0.00617518 -0.155828 0)
(0.0296233 -0.143214 0)
(0.0225178 -0.0769391 0)
(0.028041 -0.0700565 0)
(0.026251 -0.00342931 0)
(0.0260335 0.00229357 0)
(0.0277571 -0.0637196 0)
(0.0202174 -0.0507545 0)
(0.0280255 -0.0695238 0)
(0.0258828 0.00625068 0)
(0.00274286 -0.0291859 0)
(0.025147 -0.140487 0)
(0.0130429 -0.173811 0)
(0.0293415 -0.119829 0)
(0.0119181 -0.182321 0)
(0.0175737 -0.202226 0)
(0.0258595 0.0118371 0)
(0.0308448 -0.177063 0)
(0.0288688 -0.148198 0)
(0.0206719 -0.0891912 0)
(0.0235608 0.100469 0)
(0.02582 0.0131917 0)
(0.0226776 0.13119 0)
(0.0255457 -0.146314 0)
(0.0116323 -0.0592515 0)
(0.0170688 -0.00231139 0)
(0.0262556 -0.0236225 0)
(0.01063 -0.15215 0)
(0.0261841 0.00080715 0)
(0.0285498 -0.100945 0)
(0.00344394 -0.0563198 0)
(0.0252689 0.0316798 0)
(0.0295502 -0.139056 0)
(0.0180929 -0.0347 0)
(0.0272634 -0.0406605 0)
(0.0298201 -0.137956 0)
(0.024924 0.0434164 0)
(0.0224354 -0.0919164 0)
(0.0234679 0.103956 0)
(0.0267012 -0.042296 0)
(0.00860939 -0.0721183 0)
(0.0240265 0.0831426 0)
(0.0217071 -0.177187 0)
(0.0179283 -0.0466417 0)
(0.0141208 -0.120528 0)
(0.0222777 0.0595656 0)
(0.0213665 0.0957071 0)
(0.0245595 0.0627185 0)
(0.0299074 -0.141609 0)
(0.0228107 0.0664385 0)
(0.0243652 0.0700916 0)
(0.0230705 0.0450384 0)
(0.0097293 -0.144191 0)
(0.0164214 -0.206576 0)
(0.0121065 -0.103789 0)
(0.0300513 -0.152807 0)
(0.0176501 -0.0107717 0)
(0.00517144 -0.0389849 0)
(0.0213412 -0.16398 0)
(0.0218963 -0.0961067 0)
(0.024849 0.0516499 0)
(0.0230607 0.119994 0)
(0.0238804 0.0828998 0)
(0.0266388 -0.0165442 0)
(0.0285317 -0.0893311 0)
(0.0157162 -0.194324 0)
(0.0138772 -0.148398 0)
(0.0224783 -0.0799706 0)
(0.0287719 -0.103571 0)
(0.0173393 -0.00448459 0)
(0.0017613 -0.00325372 0)
(0.0274478 -0.12016 0)
(0.0282318 -0.0790643 0)
(0.0224335 0.132624 0)
(0.00304555 -0.000798524 0)
(0.0270671 -0.147199 0)
(0.0260667 -0.066288 0)
(0.0259965 0.000508993 0)
(0.0298214 -0.137996 0)
(0.0154408 0.0102285 0)
(0.0118692 0.00125086 0)
(0.0210455 0.0215294 0)
(0.028873 -0.104412 0)
(0.0216051 0.0596454 0)
(0.0257089 0.01887 0)
(0.020199 -0.161851 0)
(0.00387709 -0.034097 0)
(0.0179957 -0.044122 0)
(0.0145325 -0.119471 0)
(0.0228612 -0.154414 0)
(0.0247861 0.0484165 0)
(0.0229464 0.123811 0)
(0.0241125 0.0797145 0)
(0.00939719 -0.197076 0)
(0.00855172 -0.10137 0)
(0.0306712 -0.179776 0)
(0.0203095 -0.0125526 0)
(0.0270452 -0.0331859 0)
(0.0262215 -0.000624682 0)
(0.0164132 -0.195618 0)
(0.0291108 -0.110883 0)
(0.0234493 0.104957 0)
(0.0301392 -0.150409 0)
(0.0225009 0.0888148 0)
(0.0246272 -0.00924402 0)
(0.0249087 0.0494613 0)
(0.0251521 -0.0369005 0)
(0.0234135 -0.187498 0)
(0.0277034 -0.193112 0)
(0.0298978 -0.159999 0)
(0.0217564 -0.107028 0)
(0.0310098 -0.206249 0)
(0.00965868 -0.145911 0)
(0.0243794 0.0689325 0)
(0.028833 -0.102606 0)
(0.0112532 -0.0321916 0)
(0.0175637 -0.179003 0)
(0.0275616 -0.164429 0)
(0.0291387 -0.119418 0)
(0.0250423 -0.0193477 0)
(0.0037452 -0.0310726 0)
(0.0229409 0.0250226 0)
(0.00852481 -0.184235 0)
(0.0224333 0.0197043 0)
(0.0303239 -0.20483 0)
(0.00355141 -0.0772277 0)
(0.0233954 0.106127 0)
(0.0236264 0.0984065 0)
(0.00992161 -0.147499 0)
(0.0245459 -0.00998298 0)
(0.0214994 0.0922337 0)
(0.00766719 -0.0903235 0)
(0.0226838 0.133912 0)
(0.0234435 0.105388 0)
(0.0279451 -0.0664626 0)
(0.0228712 0.127177 0)
(0.00923034 -0.097534 0)
(0.0234556 -0.146634 0)
(0.0250855 -0.125584 0)
(0.0112548 -0.169649 0)
(0.0236862 0.0898617 0)
(0.0249732 -0.0149776 0)
(0.000866483 -0.0291408 0)
(0.0236675 0.0637534 0)
(0.0113866 -0.191924 0)
(0.0251115 0.0408857 0)
(0.0251899 -0.00830959 0)
(0.0251068 0.0419162 0)
(0.00797897 -0.18373 0)
(0.0223746 -0.137375 0)
(0.01813 -0.203173 0)
(0.0260135 -0.0057994 0)
(0.0263956 -0.0269425 0)
(0.0127548 -0.137466 0)
(0.0233738 0.108048 0)
(0.0257631 0.0168664 0)
(0.0312408 -0.197281 0)
(0.0286976 -0.0951226 0)
(0.0244216 0.0674149 0)
(0.0243275 0.0715469 0)
(0.0254511 0.0287761 0)
(0.0122201 -0.136995 0)
(0.008743 -0.134961 0)
(0.0195187 -0.0367852 0)
(0.0231451 0.108375 0)
(0.0221718 0.0858604 0)
(0.0265324 -0.0325542 0)
(0.030168 -0.151224 0)
(0.0192636 0.00365802 0)
(0.00747389 -0.0180942 0)
(0.00566824 -0.137461 0)
(0.0224018 0.130393 0)
(0.0119964 -0.0227244 0)
(0.0237417 -0.0117201 0)
(0.0213208 -0.16126 0)
(0.0235501 0.0997107 0)
(0.0153141 -0.175871 0)
(0.0115716 -0.0660834 0)
(0.0068753 -0.102088 0)
(0.0158536 -0.134 0)
(0.00136615 -0.0106819 0)
(0.0212937 -0.193719 0)
(0.0237511 0.0873255 0)
(0.0235347 -0.186325 0)
(0.0258031 0.0148335 0)
(0.0082897 -0.128466 0)
(0.0147885 -0.120093 0)
(0.0255763 0.0239329 0)
(0.0251244 0.0411283 0)
(0.0235163 0.102607 0)
(0.0235784 0.0981504 0)
(0.0215435 -0.200949 0)
(0.0233092 0.108331 0)
(0.0110593 -0.0553234 0)
(0.0279824 -0.181291 0)
(0.0222729 -0.139502 0)
(0.00545597 -0.115412 0)
(0.0211787 0.0320361 0)
(0.0297904 -0.136835 0)
(0.0222211 -0.0338528 0)
(0.0259543 -0.00298814 0)
(0.0300765 -0.152846 0)
(0.020211 -0.0207868 0)
(0.0182496 -0.103091 0)
(0.0127882 -0.192129 0)
(0.0247391 0.0504561 0)
(0.00105247 -0.0106828 0)
(0.0235062 0.101318 0)
(0.0193304 -0.0342913 0)
(0.0231378 0.107761 0)
(0.00282713 -0.0971742 0)
(0.0209608 -0.0591582 0)
(0.0248208 -0.0562075 0)
(0.0266613 -0.201958 0)
(0.00982773 -0.163502 0)
(0.024171 0.074461 0)
(0.0296356 -0.131012 0)
(0.0223816 0.129749 0)
(0.0252747 0.0353618 0)
(0.00901642 -0.151257 0)
(0.0288328 -0.100272 0)
(0.0253708 0.0297358 0)
(0.00795336 -0.118988 0)
(0.0289373 -0.106735 0)
(0.0108297 -0.169331 0)
(0.0130127 -0.202816 0)
(0.00998036 -0.168241 0)
(0.017861 0.0309529 0)
(0.00878841 -0.0629637 0)
(0.0037539 -0.143137 0)
(0.0204089 -0.137718 0)
(0.00989982 -0.19476 0)
(0.0250669 0.0206622 0)
(0.0208985 -0.0897838 0)
(0.0032946 -0.110679 0)
(0.0168966 -0.205192 0)