/*--------------------------------*- C++ -*----------------------------------*\
| =========                 |                                                 |
| \\      /  F ield         | OpenFOAM: The Open Source CFD Toolbox           |
|  \\    /   O peration     | Version:  v2012                                 |
|   \\  /    A nd           | Website:  www.openfoam.com                      |
|    \\/     M anipulation  |                                                 |
\*---------------------------------------------------------------------------*/
FoamFile
{
    version     2.0;
    format      ascii;
    class       pointVectorField;
    location    "500";
    object      pointDisplacement;
}
// * * * * * * * * * * * * * * * * * * * * * * * * * * * * * * * * * * * * * //

dimensions      [0 1 0 0 0 0 0];


internalField   nonuniform List<vector> 
14246
(
(0 0 0)
(0.0316776 -0.208814 0)
(0 0 0)
(0.0316776 -0.208814 0)
(0 0 0)
(0 0 0)
(0 0 0)
(0 0 0)
(0 0 0)
(0 0 0)
(0 0 0)
(0 0 0)
(0 0 0)
(0 0 0)
(0 0 0)
(0 0 0)
(0 0 0)
(0 0 0)
(0 0 0)
(0 0 0)
(0 0 0)
(0 0 0)
(0 0 0)
(0 0 0)
(0 0 0)
(0 0 0)
(0 0 0)
(0 0 0)
(0 0 0)
(0 0 0)
(0 0 0)
(0 0 0)
(0 0 0)
(0 0 0)
(0 0 0)
(0 0 0)
(0 0 0)
(0 0 0)
(0 0 0)
(0 0 0)
(0 0 0)
(0 0 0)
(0 0 0)
(0 0 0)
(0 0 0)
(0 0 0)
(0 0 0)
(0 0 0)
(0 0 0)
(0 0 0)
(0 0 0)
(0 0 0)
(0 0 0)
(0 0 0)
(0 0 0)
(0 0 0)
(0 0 0)
(0 0 0)
(0 0 0)
(0 0 0)
(0 0 0)
(0 0 0)
(0 0 0)
(0 0 0)
(0 0 0)
(0 0 0)
(0 0 0)
(0 0 0)
(0 0 0)
(0 0 0)
(0 0 0)
(0 0 0)
(0 0 0)
(0 0 0)
(0 0 0)
(0.0316089 -0.206195 0)
(0.0315403 -0.203576 0)
(0.0314717 -0.200958 0)
(0.0314031 -0.198339 0)
(0.0313344 -0.19572 0)
(0.0312658 -0.193101 0)
(0.0311972 -0.190483 0)
(0.0311286 -0.187864 0)
(0.0310599 -0.185245 0)
(0.0309913 -0.182626 0)
(0.0309227 -0.180008 0)
(0.0308541 -0.177389 0)
(0.0307854 -0.17477 0)
(0.0307168 -0.172151 0)
(0.0306482 -0.169533 0)
(0.0305796 -0.166914 0)
(0.0305109 -0.164295 0)
(0.0304423 -0.161676 0)
(0.0303737 -0.159058 0)
(0.030305 -0.156439 0)
(0.0302364 -0.15382 0)
(0.0301678 -0.151201 0)
(0.0300992 -0.148583 0)
(0.0300305 -0.145964 0)
(0.0299619 -0.143345 0)
(0.0298933 -0.140726 0)
(0.0298247 -0.138108 0)
(0.029756 -0.135489 0)
(0.0296874 -0.13287 0)
(0.0296188 -0.130251 0)
(0.0295502 -0.127633 0)
(0.0294815 -0.125014 0)
(0.0294129 -0.122395 0)
(0.0293443 -0.119776 0)
(0.0292757 -0.117158 0)
(0.029207 -0.114539 0)
(0.0291384 -0.11192 0)
(0.0290698 -0.109301 0)
(0.0290012 -0.106683 0)
(0.0289325 -0.104064 0)
(0.0288639 -0.101445 0)
(0.0287953 -0.0988263 0)
(0.0287267 -0.0962075 0)
(0.028658 -0.0935888 0)
(0.0285894 -0.09097 0)
(0.0285208 -0.0883513 0)
(0.0284522 -0.0857325 0)
(0.0283835 -0.0831138 0)
(0.0283149 -0.080495 0)
(0.0282463 -0.0778763 0)
(0.0281777 -0.0752575 0)
(0.028109 -0.0726388 0)
(0.0280404 -0.07002 0)
(0.0279718 -0.0674013 0)
(0.0279032 -0.0647825 0)
(0.0278345 -0.0621638 0)
(0.0277659 -0.059545 0)
(0.0276973 -0.0569263 0)
(0.0276286 -0.0543075 0)
(0.02756 -0.0516888 0)
(0.0274914 -0.04907 0)
(0.0274228 -0.0464513 0)
(0.0273541 -0.0438325 0)
(0.0272855 -0.0412138 0)
(0.0272169 -0.038595 0)
(0.0271483 -0.0359763 0)
(0.0270796 -0.0333575 0)
(0.027011 -0.0307388 0)
(0.0269424 -0.02812 0)
(0.0268738 -0.0255013 0)
(0.0268051 -0.0228825 0)
(0.0267365 -0.0202638 0)
(0.0266679 -0.017645 0)
(0.0265993 -0.0150262 0)
(0.0265306 -0.0124075 0)
(0.026462 -0.00978875 0)
(0.0263934 -0.00717 0)
(0.0263248 -0.00455125 0)
(0.0262561 -0.00193249 0)
(0.0261875 0.000686257 0)
(0.0261189 0.00330501 0)
(0.0260503 0.00592376 0)
(0.0259816 0.00854251 0)
(0.025913 0.0111613 0)
(0.0258444 0.01378 0)
(0.0257758 0.0163988 0)
(0.0257071 0.0190175 0)
(0.0256385 0.0216363 0)
(0.0255699 0.024255 0)
(0.0255013 0.0268738 0)
(0.0254326 0.0294925 0)
(0.025364 0.0321113 0)
(0.0252954 0.03473 0)
(0.0252268 0.0373488 0)
(0.0251581 0.0399675 0)
(0.0250895 0.0425863 0)
(0.0250209 0.045205 0)
(0.0249522 0.0478238 0)
(0.0248836 0.0504425 0)
(0.024815 0.0530613 0)
(0.0247464 0.05568 0)
(0.0246777 0.0582988 0)
(0.0246091 0.0609175 0)
(0.0245405 0.0635363 0)
(0.0244719 0.066155 0)
(0.0244032 0.0687738 0)
(0.0243346 0.0713925 0)
(0.024266 0.0740113 0)
(0.0241974 0.07663 0)
(0.0241287 0.0792488 0)
(0.0240601 0.0818675 0)
(0.0239915 0.0844863 0)
(0.0239229 0.087105 0)
(0.0238542 0.0897238 0)
(0.0237856 0.0923425 0)
(0.023717 0.0949613 0)
(0.0236484 0.09758 0)
(0.0235797 0.100199 0)
(0.0235111 0.102818 0)
(0.0234425 0.105436 0)
(0.0233739 0.108055 0)
(0.0233052 0.110674 0)
(0.0232366 0.113293 0)
(0.023168 0.115911 0)
(0.0230994 0.11853 0)
(0.0230307 0.121149 0)
(0.0229621 0.123768 0)
(0.0228935 0.126386 0)
(0.0228249 0.129005 0)
(0.0227562 0.131624 0)
(0.0226876 0.134243 0)
(0.022619 0.136861 0)
(0.0225503 0.13948 0)
(0.0264401 -0.208951 0)
(0.0290588 -0.208882 0)
(0 0 0)
(0 0 0)
(0 0 0)
(0 0 0)
(0 0 0)
(0 0 0)
(0 0 0)
(0 0 0)
(0 0 0)
(0 0 0)
(0 0 0)
(0 0 0)
(0 0 0)
(0 0 0)
(0 0 0)
(0 0 0)
(0 0 0)
(0 0 0)
(0 0 0)
(0 0 0)
(0 0 0)
(0 0 0)
(0 0 0)
(0 0 0)
(0 0 0)
(0 0 0)
(0 0 0)
(0 0 0)
(0 0 0)
(0 0 0)
(0 0 0)
(0 0 0)
(0 0 0)
(0 0 0)
(0 0 0)
(0 0 0)
(0 0 0)
(0 0 0)
(0 0 0)
(0 0 0)
(0 0 0)
(0 0 0)
(0 0 0)
(0 0 0)
(0 0 0)
(0 0 0)
(0 0 0)
(0 0 0)
(0 0 0)
(0 0 0)
(0 0 0)
(0 0 0)
(0 0 0)
(0 0 0)
(0 0 0)
(0 0 0)
(0 0 0)
(0 0 0)
(0 0 0)
(0 0 0)
(0 0 0)
(0 0 0)
(0 0 0)
(0 0 0)
(0 0 0)
(0 0 0)
(0 0 0)
(0 0 0)
(0 0 0)
(0 0 0)
(0 0 0)
(0.0316089 -0.206195 0)
(0.0315403 -0.203576 0)
(0.0314717 -0.200958 0)
(0.0314031 -0.198339 0)
(0.0313344 -0.19572 0)
(0.0312658 -0.193101 0)
(0.0311972 -0.190483 0)
(0.0311286 -0.187864 0)
(0.0310599 -0.185245 0)
(0.0309913 -0.182626 0)
(0.0309227 -0.180008 0)
(0.0308541 -0.177389 0)
(0.0307854 -0.17477 0)
(0.0307168 -0.172151 0)
(0.0306482 -0.169533 0)
(0.0305796 -0.166914 0)
(0.0305109 -0.164295 0)
(0.0304423 -0.161676 0)
(0.0303737 -0.159058 0)
(0.030305 -0.156439 0)
(0.0302364 -0.15382 0)
(0.0301678 -0.151201 0)
(0.0300992 -0.148583 0)
(0.0300305 -0.145964 0)
(0.0299619 -0.143345 0)
(0.0298933 -0.140726 0)
(0.0298247 -0.138108 0)
(0.029756 -0.135489 0)
(0.0296874 -0.13287 0)
(0.0296188 -0.130251 0)
(0.0295502 -0.127633 0)
(0.0294815 -0.125014 0)
(0.0294129 -0.122395 0)
(0.0293443 -0.119776 0)
(0.0292757 -0.117158 0)
(0.029207 -0.114539 0)
(0.0291384 -0.11192 0)
(0.0290698 -0.109301 0)
(0.0290012 -0.106683 0)
(0.0289325 -0.104064 0)
(0.0288639 -0.101445 0)
(0.0287953 -0.0988263 0)
(0.0287267 -0.0962075 0)
(0.028658 -0.0935888 0)
(0.0285894 -0.09097 0)
(0.0285208 -0.0883513 0)
(0.0284522 -0.0857325 0)
(0.0283835 -0.0831138 0)
(0.0283149 -0.080495 0)
(0.0282463 -0.0778763 0)
(0.0281777 -0.0752575 0)
(0.028109 -0.0726388 0)
(0.0280404 -0.07002 0)
(0.0279718 -0.0674013 0)
(0.0279032 -0.0647825 0)
(0.0278345 -0.0621638 0)
(0.0277659 -0.059545 0)
(0.0276973 -0.0569263 0)
(0.0276286 -0.0543075 0)
(0.02756 -0.0516888 0)
(0.0274914 -0.04907 0)
(0.0274228 -0.0464513 0)
(0.0273541 -0.0438325 0)
(0.0272855 -0.0412138 0)
(0.0272169 -0.038595 0)
(0.0271483 -0.0359763 0)
(0.0270796 -0.0333575 0)
(0.027011 -0.0307388 0)
(0.0269424 -0.02812 0)
(0.0268738 -0.0255013 0)
(0.0268051 -0.0228825 0)
(0.0267365 -0.0202638 0)
(0.0266679 -0.017645 0)
(0.0265993 -0.0150262 0)
(0.0265306 -0.0124075 0)
(0.026462 -0.00978875 0)
(0.0263934 -0.00717 0)
(0.0263248 -0.00455125 0)
(0.0262561 -0.00193249 0)
(0.0261875 0.000686257 0)
(0.0261189 0.00330501 0)
(0.0260503 0.00592376 0)
(0.0259816 0.00854251 0)
(0.025913 0.0111613 0)
(0.0258444 0.01378 0)
(0.0257758 0.0163988 0)
(0.0257071 0.0190175 0)
(0.0256385 0.0216363 0)
(0.0255699 0.024255 0)
(0.0255013 0.0268738 0)
(0.0254326 0.0294925 0)
(0.025364 0.0321113 0)
(0.0252954 0.03473 0)
(0.0252268 0.0373488 0)
(0.0251581 0.0399675 0)
(0.0250895 0.0425863 0)
(0.0250209 0.045205 0)
(0.0249522 0.0478238 0)
(0.0248836 0.0504425 0)
(0.024815 0.0530613 0)
(0.0247464 0.05568 0)
(0.0246777 0.0582988 0)
(0.0246091 0.0609175 0)
(0.0245405 0.0635363 0)
(0.0244719 0.066155 0)
(0.0244032 0.0687738 0)
(0.0243346 0.0713925 0)
(0.024266 0.0740113 0)
(0.0241974 0.07663 0)
(0.0241287 0.0792488 0)
(0.0240601 0.0818675 0)
(0.0239915 0.0844863 0)
(0.0239229 0.087105 0)
(0.0238542 0.0897238 0)
(0.0237856 0.0923425 0)
(0.023717 0.0949613 0)
(0.0236484 0.09758 0)
(0.0235797 0.100199 0)
(0.0235111 0.102818 0)
(0.0234425 0.105436 0)
(0.0233739 0.108055 0)
(0.0233052 0.110674 0)
(0.0232366 0.113293 0)
(0.023168 0.115911 0)
(0.0230994 0.11853 0)
(0.0230307 0.121149 0)
(0.0229621 0.123768 0)
(0.0228935 0.126386 0)
(0.0228249 0.129005 0)
(0.0227562 0.131624 0)
(0.0226876 0.134243 0)
(0.022619 0.136861 0)
(0.0225503 0.13948 0)
(0.0264401 -0.208951 0)
(0.0290588 -0.208882 0)
(0.022517 0.140741 0)
(0.0237627 0.0932101 0)
(0.0249867 0.0464993 0)
(0.0262211 -0.000603944 0)
(0.0274581 -0.0478084 0)
(0.0286925 -0.0949131 0)
(0.0299324 -0.142233 0)
(0.0311633 -0.189246 0)
(0.0280769 -0.0714255 0)
(0.0268395 -0.024202 0)
(0.0231347 0.117171 0)
(0.0305442 -0.165581 0)
(0.024368 0.0701096 0)
(0.0256042 0.0229381 0)
(0.0293062 -0.118333 0)
(0.0253809 -0.208968 0)
(0.00104316 -0.00568447 0)
(0.000830141 -0.00964317 0)
(0.00130799 -0.00490951 0)
(0.00160764 -0.00197717 0)
(0.000760105 -0.012292 0)
(0.000577395 -0.0150277 0)
(0.00129391 0.00137744 0)
(0.0314932 -0.202249 0)
(0.000874237 -0.00573555 0)
(0.000746582 -0.00725117 0)
(0.000584002 -0.00514322 0)
(0.0302726 -0.155215 0)
(0.025327 0.033515 0)
(0.0295849 -0.128971 0)
(0.0240955 0.0805084 0)
(0.0277337 -0.0583275 0)
(0.0284232 -0.0846382 0)
(0.0271163 -0.0347679 0)
(0.0264959 -0.011092 0)
(0.0234794 0.104015 0)
(0.0308925 -0.178885 0)
(0.0247127 0.0569548 0)
(0.025948 0.00981575 0)
(0.0228561 0.127805 0)
(0.0289685 -0.105445 0)
(0.000643892 -0.00468095 0)
(0.000837312 -0.0112247 0)
(0.00130299 -0.00605968 0)
(0.00125239 -0.00296879 0)
(0.000370357 -0.00306043 0)
(0.000439021 -0.00335901 0)
(0.000241329 -0.00190615 0)
(0.00071378 -0.0133944 0)
(0.000400779 -0.0136442 0)
(0.000808953 -0.0086636 0)
(0.00130892 -0.00409077 0)
(0.00130084 0.00013641 0)
(0.00100585 -0.0059545 0)
(0.000669434 -0.00616632 0)
(0.000828247 -0.00574943 0)
(0.000484105 -0.00411097 0)
(0.000252602 -0.00204849 0)
(0.000116027 -0.000929972 0)
(0.000734363 -0.012759 0)
(0.00144494 -0.0241062 0)
(0.0014998 -0.0233861 0)
(0.00213552 -0.0342532 0)
(0.00221412 -0.0333106 0)
(0.00280601 -0.0433063 0)
(0.00289998 -0.0421652 0)
(0.00346886 -0.0515725 0)
(0.00356452 -0.050183 0)
(0.00411367 -0.0589061 0)
(0.00420353 -0.0572508 0)
(0.00472791 -0.0652181 0)
(0.00481358 -0.063333 0)
(0.00532025 -0.070814 0)
(0.00540253 -0.0687011 0)
(0.00589595 -0.075776 0)
(0.00580036 -0.0780188 0)
(0.00636109 -0.0825502 0)
(0.00624541 -0.0848225 0)
(0.00679585 -0.0889755 0)
(0.00665644 -0.0912222 0)
(0.00720213 -0.0950567 0)
(0.00703985 -0.0972877 0)
(0.00757947 -0.100809 0)
(0.00740315 -0.103122 0)
(0.00793422 -0.106245 0)
(0.00776363 -0.108612 0)
(0.00827228 -0.111388 0)
(0.00808144 -0.113651 0)
(0.00858349 -0.116218 0)
(0.00836812 -0.118439 0)
(0.00887662 -0.120802 0)
(0.00864078 -0.122925 0)
(0.00915063 -0.125209 0)
(0.0088853 -0.127196 0)
(0.00940154 -0.129342 0)
(0.00912053 -0.131316 0)
(0.00964318 -0.133237 0)
(0.00934494 -0.135196 0)
(0.00987591 -0.136922 0)
(0.00956452 -0.138874 0)
(0.0101073 -0.140446 0)
(0.00978141 -0.142409 0)
(0.010402 -0.138398 0)
(0.0106488 -0.141758 0)
(0.0109277 -0.139618 0)
(0.0111874 -0.142836 0)
(0.0114523 -0.140601 0)
(0.0117263 -0.143697 0)
(0.011979 -0.141355 0)
(0.0122769 -0.144345 0)
(0.0125019 -0.14187 0)
(0.0128151 -0.144609 0)
(0.0130158 -0.142211 0)
(0.0133308 -0.144709 0)
(0.0135229 -0.142292 0)
(0.0138621 -0.144849 0)
(0.0140236 -0.142112 0)
(0.014396 -0.144671 0)
(0.0145233 -0.141761 0)
(0.0149108 -0.144146 0)
(0.0126604 -0.147419 0)
(0.015012 -0.14115 0)
(0.0154099 -0.143402 0)
(0.0154839 -0.140283 0)
(0.0158934 -0.142413 0)
(0.0159428 -0.13918 0)
(0.0163662 -0.141188 0)
(0.0163853 -0.137839 0)
(0.0168176 -0.139666 0)
(0.0159769 -0.135835 0)
(0.0168029 -0.136305 0)
(0.0172347 -0.137856 0)
(0.017186 -0.134469 0)
(0.0176307 -0.135799 0)
(0.0175425 -0.132291 0)
(0.0179913 -0.13336 0)
(0.0178815 -0.12987 0)
(0.0183232 -0.130813 0)
(0.0181974 -0.127183 0)
(0.0186455 -0.128004 0)
(0.0184815 -0.124202 0)
(0.0189367 -0.124765 0)
(0.018035 -0.123638 0)
(0.0153025 -0.146383 0)
(0.018733 -0.120937 0)
(0.0191862 -0.121236 0)
(0.0189562 -0.117414 0)
(0.0193965 -0.117445 0)
(0.0196343 -0.121097 0)
(0.0198314 -0.117255 0)
(0.019585 -0.11346 0)
(0.0200066 -0.113112 0)
(0.0202636 -0.116865 0)
(0.0204215 -0.112476 0)
(0.0201497 -0.108704 0)
(0.0205488 -0.10783 0)
(0.020829 -0.111571 0)
(0.0209404 -0.106678 0)
(0.0206462 -0.102951 0)
(0.0210238 -0.101509 0)
(0.0207173 -0.0978136 0)
(0.0210814 -0.0960597 0)
(0.0213855 -0.0998093 0)
(0.0214348 -0.0941378 0)
(0.0211166 -0.0902877 0)
(0.0214546 -0.0880836 0)
(0.0218368 -0.0922764 0)
(0.0217759 -0.085478 0)
(0.0214469 -0.0817369 0)
(0.0217357 -0.0790193 0)
(0.0220888 -0.0822275 0)
(0.0219998 -0.0754346 0)
(0.0216234 -0.0721386 0)
(0.0219255 -0.0689889 0)
(0.0222583 -0.071722 0)
(0.0221736 -0.0652782 0)
(0.0218325 -0.0624614 0)
(0.0220555 -0.0585245 0)
(0.021707 -0.0559108 0)
(0.0219125 -0.0516728 0)
(0.0222589 -0.0541153 0)
(0.0220974 -0.0470743 0)
(0.0217481 -0.0447753 0)
(0.0219147 -0.039984 0)
(0.0215643 -0.0378971 0)
(0.0217132 -0.0329302 0)
(0.0220601 -0.0348895 0)
(0.0218388 -0.0276652 0)
(0.0214954 -0.0260113 0)
(0.0216037 -0.0206763 0)
(0.0219403 -0.022133 0)
(0.0216877 -0.015072 0)
(0.0213539 -0.013839 0)
(0.0214217 -0.00814479 0)
(0.0210899 -0.00709995 0)
(0.0211446 -0.00136912 0)
(0.0214638 -0.00216417 0)
(0.0211734 0.00459731 0)
(0.0208583 0.0052113 0)
(0.0208701 0.011229 0)
(0.0211788 0.0107704 0)
(0.0208582 0.0175297 0)
(0.0205531 0.0177065 0)
(0.0205263 0.0240408 0)
(0.0202259 0.0238926 0)
(0.0201883 0.0301108 0)
(0.0198908 0.0297931 0)
(0.0198424 0.0359057 0)
(0.0201284 0.0364397 0)
(0.0197724 0.0421233 0)
(0.0194881 0.0415321 0)
(0.0194104 0.0476173 0)
(0.0196856 0.0483355 0)
(0.0193154 0.0537023 0)
(0.0190424 0.0528751 0)
(0.0189359 0.0588588 0)
(0.0186691 0.0578654 0)
(0.0185497 0.0637897 0)
(0.00691202 -0.0866011 0)
(0.0176661 -0.139318 0)
(0.00922082 -0.140708 0)
(0.00940904 -0.144225 0)
(0.00884356 -0.142421 0)
(0.00901254 -0.145976 0)
(0.00844295 -0.144035 0)
(0.0136104 -0.139525 0)
(0.00567968 -0.189941 0)
(0.00610023 -0.191311 0)
(0.0068663 -0.190194 0)
(0.00740081 -0.191492 0)
(0.00808088 -0.190248 0)
(0.008694 -0.19151 0)
(0.00930113 -0.190142 0)
(0.00997642 -0.191373 0)
(0.00783967 -0.115859 0)
(0.0104761 -0.189905 0)
(0.0112162 -0.191036 0)
(0.00547952 -0.188617 0)
(0.0115985 -0.189502 0)
(0.0123749 -0.190505 0)
(0.00934081 -0.192756 0)
(0.0126622 -0.188928 0)
(0.0134569 -0.189839 0)
(0.0109095 -0.188408 0)
(0.0136573 -0.188201 0)
(0.0144558 -0.18902 0)
(0.0143054 -0.190654 0)
(0.0153008 -0.189736 0)
(0.0153747 -0.188045 0)
(0.0162153 -0.188646 0)
(0.0162146 -0.186897 0)
(0.0170391 -0.187381 0)
(0.017086 -0.189138 0)
(0.0178801 -0.187761 0)
(0.0084536 -0.109046 0)
(0.0179723 -0.189524 0)
(0.018732 -0.188021 0)
(0.0185839 -0.18622 0)
(0.0194045 -0.186326 0)
(0.0196001 -0.188118 0)
(0.0202337 -0.186262 0)
(0.0199879 -0.184461 0)
(0.0207677 -0.184258 0)
(0.0210607 -0.186025 0)
(0.0215321 -0.183881 0)
(0.0218643 -0.185605 0)
(0.0222741 -0.183295 0)
(0.0219355 -0.18158 0)
(0.0226263 -0.180827 0)
(0.0229809 -0.182475 0)
(0.0232783 -0.179862 0)
(0.0236495 -0.18143 0)
(0.0238779 -0.178747 0)
(0.0242732 -0.180114 0)
(0.0244248 -0.177339 0)
(0.0248379 -0.178529 0)
(0.024933 -0.175531 0)
(0.0253503 -0.176638 0)
(0.0254049 -0.173373 0)
(0.0258095 -0.174383 0)
(0.0258229 -0.170956 0)
(0.0262108 -0.171836 0)
(0.0261845 -0.168345 0)
(0.0265584 -0.16897 0)
(0.0265026 -0.165392 0)
(0.0268596 -0.165679 0)
(0.0267822 -0.162046 0)
(0.0271233 -0.162053 0)
(0.0270283 -0.158353 0)
(0.027351 -0.158069 0)
(0.0272379 -0.154446 0)
(0.0275321 -0.153782 0)
(0.0273977 -0.150203 0)
(0.02767 -0.149274 0)
(0.0275245 -0.145589 0)
(0.0277712 -0.144445 0)
(0.0276182 -0.140736 0)
(0.0278409 -0.139325 0)
(0.0276773 -0.135598 0)
(0.0278819 -0.134032 0)
(0.0277164 -0.130264 0)
(0.027899 -0.128556 0)
(0.0277299 -0.124794 0)
(0.0278933 -0.12292 0)
(0.0277204 -0.119161 0)
(0.0278675 -0.117182 0)
(0.0276919 -0.113447 0)
(0.027822 -0.111328 0)
(0.0276511 -0.10771 0)
(0.0277591 -0.105378 0)
(0.0275925 -0.101916 0)
(0.0276826 -0.099315 0)
(0.0275156 -0.0959656 0)
(0.0275935 -0.0931248 0)
(0.0274273 -0.0898105 0)
(0.0274941 -0.0868651 0)
(0.0273288 -0.0835707 0)
(0.027385 -0.0805495 0)
(0.0272232 -0.0773418 0)
(0.0272674 -0.0742478 0)
(0.0271072 -0.0710729 0)
(0.0271436 -0.0679904 0)
(0.0269838 -0.064804 0)
(0.0270136 -0.0617089 0)
(0.0268554 -0.0586023 0)
(0.0268775 -0.0553899 0)
(0.0267213 -0.0524048 0)
(0.0267348 -0.0489462 0)
(0.0265811 -0.0461033 0)
(0.0265898 -0.0425457 0)
(0.0264354 -0.0397792 0)
(0.0264396 -0.0362496 0)
(0.0262872 -0.0335362 0)
(0.0262816 -0.0298796 0)
(0.0261317 -0.0272616 0)
(0.0261176 -0.0234625 0)
(0.02597 -0.0209508 0)
(0.0259511 -0.0171148 0)
(0.0258057 -0.0146915 0)
(0.0257825 -0.0107674 0)
(0.0256322 -0.00842477 0)
(0.0256083 -0.00436784 0)
(0.0254548 -0.00199145 0)
(0.0254318 0.00203238 0)
(0.0252824 0.00436358 0)
(0.0252519 0.00841462 0)
(0.0251054 0.0105987 0)
(0.0250662 0.0147964 0)
(0.0249192 0.0168843 0)
(0.0248775 0.0211326 0)
(0.0247299 0.0231247 0)
(0.0246852 0.0274279 0)
(0.0245353 0.0293999 0)
(0.024488 0.0337687 0)
(0.024339 0.0356301 0)
(0.0242857 0.0400218 0)
(0.024137 0.0417065 0)
(0.02408 0.0461196 0)
(0.0239293 0.0477836 0)
(0.0238706 0.0521954 0)
(0.0237189 0.0537815 0)
(0.0236553 0.0582382 0)
(0.0234998 0.0596488 0)
(0.0234336 0.0642247 0)
(0.0232718 0.0655443 0)
(0.0232046 0.0701876 0)
(0.023038 0.0713717 0)
(0.022967 0.0760449 0)
(0.0227998 0.0771144 0)
(0.0227244 0.0817589 0)
(0.0225583 0.0827218 0)
(0.0224763 0.0873975 0)
(0.0223103 0.0880868 0)
(0.0222214 0.0928609 0)
(0.0220525 0.0933311 0)
(0.0219612 0.0981203 0)
(0.0217856 0.0985278 0)
(0.0216924 0.103242 0)
(0.0218737 0.102788 0)
(0.0216015 0.107856 0)
(0.0214148 0.108218 0)
(0.0213173 0.112846 0)
(0.0231219 0.0754193 0)
(0.0242171 0.0445998 0)
(0.0250177 0.019083 0)
(0.0257502 -0.00689774 0)
(0.0264378 -0.0327885 0)
(0.0270288 -0.058475 0)
(0.0265595 -0.0494947 0)
(0.0271595 -0.0801586 0)
(0.0275144 -0.109088 0)
(0.027442 -0.137256 0)
(0.0267126 -0.158432 0)
(0.0275424 -0.0837112 0)
(0.0252804 0.000945286 0)
(0.0233399 0.0608578 0)
(0.0243731 0.0317227 0)
(0.0249884 -0.172368 0)
(0.0279318 -0.109028 0)
(0.022164 0.088107 0)
(0.022323 -0.179127 0)
(0.028063 -0.132438 0)
(0.0278302 -0.152864 0)
(0.00857061 -0.147584 0)
(0.00802489 -0.145492 0)
(0.0259935 -0.0253737 0)
(0.0269128 -0.169348 0)
(0.0247104 -0.181309 0)
(0.00807696 -0.148949 0)
(0.00748408 -0.14635 0)
(0.00755731 -0.150203 0)
(0.00699268 -0.14796 0)
(0.00703889 -0.151422 0)
(0.00646756 -0.149007 0)
(0.00644694 -0.145493 0)
(0.00591966 -0.146162 0)
(0.00593997 -0.142576 0)
(0.00539967 -0.143177 0)
(0.00545659 -0.139172 0)
(0.00488548 -0.139901 0)
(0.00581226 -0.149846 0)
(0.00811093 -0.152186 0)
(0.00496583 -0.135643 0)
(0.00440232 -0.136315 0)
(0.00448054 -0.13197 0)
(0.00393804 -0.132507 0)
(0.00381304 -0.136785 0)
(0.00337418 -0.13284 0)
(0.00321017 -0.137035 0)
(0.00347271 -0.128345 0)
(0.00334048 -0.0529128 0)
(0.0103591 -0.204539 0)
(0.010098 -0.203731 0)
(0.0121865 -0.203869 0)
(0.0125886 -0.204678 0)
(0.0142469 -0.203925 0)
(0.0148321 -0.204731 0)
(0.0162432 -0.203876 0)
(0.0170381 -0.204651 0)
(0.0181293 -0.203746 0)
(0.0190987 -0.204447 0)
(0.0198835 -0.203525 0)
(0.0209303 -0.204119 0)
(0.0214583 -0.203121 0)
(0.0225188 -0.203632 0)
(0.0228274 -0.20255 0)
(0.0238678 -0.202973 0)
(0.0156145 -0.203028 0)
(0.0239713 -0.201788 0)
(0.0249715 -0.202119 0)
(0.0218778 -0.202059 0)
(0.0116965 -0.138277 0)
(0.0249017 -0.200812 0)
(0.025841 -0.201005 0)
(0.0187614 -0.132524 0)
(0.00683775 -0.0993075 0)
(0.025651 -0.199618 0)
(0.0264977 -0.199641 0)
(0.0180071 -0.20529 0)
(0.0132553 0.0308472 0)
(0.0138042 0.0319678 0)
(0.01368 0.0267432 0)
(0.013113 0.0259087 0)
(0.0135315 0.0217855 0)
(0.0140997 0.0223547 0)
(0.0139394 0.0174153 0)
(0.0145025 0.0177596 0)
(0.0143323 0.0127841 0)
(0.0137464 0.0126905 0)
(0.0141301 0.00804159 0)
(0.0147121 0.00784503 0)
(0.0145045 0.00310976 0)
(0.0138928 0.00359523 0)
(0.0142579 -0.0012554 0)
(0.0148665 -0.00201966 0)
(0.0146065 -0.00628454 0)
(0.0152108 -0.00729047 0)
(0.0149368 -0.0114564 0)
(0.0143166 -0.0102336 0)
(0.0146325 -0.0153251 0)
(0.0152501 -0.0166958 0)
(0.0149325 -0.0205224 0)
(0.0142963 -0.0188535 0)
(0.0145843 -0.0239612 0)
(0.0152256 -0.0258114 0)
(0.0148614 -0.0291984 0)
(0.0142106 -0.026966 0)
(0.0144675 -0.0320152 0)
(0.0151082 -0.0346216 0)
(0.0147021 -0.0371444 0)
(0.014059 -0.0344463 0)
(0.0142841 -0.0393351 0)
(0.0149099 -0.0422546 0)
(0.0144821 -0.0441826 0)
(0.0150923 -0.0472899 0)
(0.0146599 -0.0489972 0)
(0.0140362 -0.0457693 0)
(0.0142063 -0.050343 0)
(0.0148418 -0.0539643 0)
(0.0143605 -0.0549806 0)
(0.0137332 -0.0513363 0)
(0.0138573 -0.0555665 0)
(0.0144285 -0.0592833 0)
(0.0139438 -0.0596921 0)
(0.0133556 -0.0559502 0)
(0.0134444 -0.0598815 0)
(0.0140097 -0.0637396 0)
(0.0135048 -0.0636888 0)
(0.0140504 -0.0676512 0)
(0.0135357 -0.0673631 0)
(0.0129819 -0.0633173 0)
(0.0130073 -0.0667839 0)
(0.0135352 -0.0709094 0)
(0.0130015 -0.0700974 0)
(0.0135033 -0.0742949 0)
(0.0129657 -0.0732336 0)
(0.0134334 -0.0773994 0)
(0.01289 -0.0760947 0)
(0.0133029 -0.0800755 0)
(0.0127657 -0.07867 0)
(0.0123348 -0.0744805 0)
(0.0122215 -0.0769003 0)
(0.0126263 -0.0811309 0)
(0.0120751 -0.0790671 0)
(0.0124509 -0.083249 0)
(0.0118995 -0.0810012 0)
(0.0122563 -0.0852166 0)
(0.0117032 -0.0827376 0)
(0.0120432 -0.0870589 0)
(0.0114731 -0.0841845 0)
(0.0111338 -0.0799017 0)
(0.010897 -0.0810592 0)
(0.0105548 -0.0768097 0)
(0.0103117 -0.0777097 0)
(0.00996518 -0.0734735 0)
(0.00971979 -0.0741516 0)
(0.00936491 -0.0698797 0)
(0.00912256 -0.0703934 0)
(0.0124388 -0.0626746 0)
(0.0117878 -0.0884963 0)
(0.00875607 -0.0661126 0)
(0.00851692 -0.0664308 0)
(0.00897896 -0.0653111 0)
(0.00814872 -0.0622326 0)
(0.00791024 -0.0622978 0)
(0.00824704 -0.0663834 0)
(0.00754275 -0.0581897 0)
(0.00763936 -0.0619962 0)
(0.0079504 -0.066009 0)
(0.0139459 -0.0783476 0)
(0.012643 -0.0897408 0)
(0.00733333 -0.061277 0)
(0.00760771 -0.0651099 0)
(0.0195843 0.0544994 0)
(0.0211642 0.0170997 0)
(0.01992 0.0237599 0)
(0.0184004 0.0568123 0)
(0.022256 0.129758 0)
(0.0223637 0.128969 0)
(0.0224225 0.125622 0)
(0.0225261 0.124669 0)
(0.0225807 0.121461 0)
(0.0226816 0.120372 0)
(0.0227356 0.117165 0)
(0.0228327 0.116035 0)
(0.0228889 0.112797 0)
(0.0229814 0.111628 0)
(0.0230392 0.108368 0)
(0.0231285 0.10713 0)
(0.0231857 0.103937 0)
(0.0232713 0.102652 0)
(0.0233288 0.0995075 0)
(0.0234096 0.0982241 0)
(0.0234687 0.0950653 0)
(0.0235461 0.0937674 0)
(0.0236059 0.0906211 0)
(0.0236815 0.0892824 0)
(0.0237414 0.086157 0)
(0.0238143 0.0848149 0)
(0.0238747 0.0817046 0)
(0.0239441 0.0803616 0)
(0.0240058 0.0772479 0)
(0.0240735 0.0758672 0)
(0.0241367 0.0727467 0)
(0.0242039 0.0713141 0)
(0.0242664 0.0682413 0)
(0.0243334 0.0667384 0)
(0.0243927 0.0638352 0)
(0.0244581 0.0622917 0)
(0.0245167 0.0594337 0)
(0.0245806 0.0578971 0)
(0.0246412 0.0549833 0)
(0.0247035 0.0534626 0)
(0.0247639 0.0505813 0)
(0.0248265 0.0489994 0)
(0.0248862 0.0461375 0)
(0.024949 0.0445175 0)
(0.0250101 0.0416158 0)
(0.025071 0.0400348 0)
(0.0251346 0.0370356 0)
(0.0251922 0.0355657 0)
(0.0252591 0.0324845 0)
(0.0253138 0.0310713 0)
(0.0253786 0.0281487 0)
(0.0254349 0.0265969 0)
(0.0254952 0.0238525 0)
(0.0255543 0.0221586 0)
(0.0256137 0.0194354 0)
(0.0256734 0.0177118 0)
(0.0257343 0.0149277 0)
(0.0257921 0.0132685 0)
(0.0258535 0.0104662 0)
(0.0259101 0.0088406 0)
(0.0259721 0.0060125 0)
(0.0260285 0.00438905 0)
(0.0260905 0.00155941 0)
(0.0261449 3.28511e-06 0)
(0.0262069 -0.00282866 0)
(0.0262598 -0.00433923 0)
(0.0263223 -0.00719282 0)
(0.0263766 -0.00875648 0)
(0.0264377 -0.0115534 0)
(0.0264945 -0.0132281 0)
(0.0265531 -0.0159262 0)
(0.0266102 -0.0176301 0)
(0.0266673 -0.0202847 0)
(0.0267253 -0.0220046 0)
(0.0267817 -0.0246544 0)
(0.0268398 -0.0263674 0)
(0.0268976 -0.0291001 0)
(0.0269545 -0.0307477 0)
(0.0270129 -0.0335029 0)
(0.0270697 -0.0351478 0)
(0.0271257 -0.0377883 0)
(0.0271836 -0.0395062 0)
(0.0272372 -0.042044 0)
(0.0272968 -0.043845 0)
(0.0273509 -0.0464029 0)
(0.0274109 -0.0482179 0)
(0.027466 -0.050842 0)
(0.0275247 -0.0525953 0)
(0.0275792 -0.0552257 0)
(0.027637 -0.0569279 0)
(0.0276922 -0.0596067 0)
(0.0277493 -0.061263 0)
(0.0278058 -0.0640137 0)
(0.0278629 -0.0656668 0)
(0.0279164 -0.0682924 0)
(0.0279752 -0.0700192 0)
(0.028023 -0.0724461 0)
(0.0229213 0.114903 0)
(0.0280838 -0.0742331 0)
(0.0281304 -0.0766727 0)
(0.0281926 -0.0784736 0)
(0.0282405 -0.0810146 0)
(0.0283031 -0.0827864 0)
(0.0283504 -0.0853588 0)
(0.0236206 0.0923891 0)
(0.0284131 -0.0871057 0)
(0.0284601 -0.0897144 0)
(0.0285229 -0.091448 0)
(0.0285691 -0.0940579 0)
(0.028633 -0.0957982 0)
(0.0286766 -0.0983639 0)
(0.024276 0.0696733 0)
(0.0287422 -0.100154 0)
(0.0287823 -0.102604 0)
(0.0288507 -0.104506 0)
(0.0288862 -0.106831 0)
(0.028957 -0.108782 0)
(0.0289878 -0.111015 0)
(0.0247598 0.0520664 0)
(0.0290611 -0.11299 0)
(0.029089 -0.115217 0)
(0.029165 -0.117203 0)
(0.0291897 -0.119454 0)
(0.0252511 0.0338814 0)
(0.0292673 -0.121409 0)
(0.0292891 -0.123724 0)
(0.0293667 -0.125577 0)
(0.0293866 -0.127955 0)
(0.0294649 -0.12974 0)
(0.0294826 -0.132125 0)
(0.0258449 0.0117385 0)
(0.0295647 -0.134024 0)
(0.0295762 -0.136309 0)
(0.0296621 -0.138308 0)
(0.0296646 -0.140421 0)
(0.0297525 -0.14238 0)
(0.0297485 -0.14446 0)
(0.0240671 0.0741699 0)
(0.0256689 0.0168363 0)
(0.0229348 0.109745 0)
(0.0278689 -0.0670844 0)
(0.0271768 -0.040266 0)
(0.0263923 -0.0104063 0)
(0.0264366 -0.0105628 0)
(0.0249383 0.0434657 0)
(0.0298401 -0.146419 0)
(0.0298286 -0.148488 0)
(0.0286112 -0.0967129 0)
(0.0299249 -0.150522 0)
(0.0299032 -0.152512 0)
(0.030004 -0.154638 0)
(0.0299706 -0.156533 0)
(0.0292012 -0.121615 0)
(0.0298066 -0.150414 0)
(0.0268941 -0.0280191 0)
(0.0300772 -0.158696 0)
(0.0300293 -0.160541 0)
(0.0235262 0.0918712 0)
(0.0223294 0.126011 0)
(0.0273524 -0.0455785 0)
(0.0301435 -0.162787 0)
(0.0300774 -0.164558 0)
(0.0301944 -0.166861 0)
(0.0301117 -0.16855 0)
(0.0276938 -0.0586547 0)
(0.0302316 -0.170808 0)
(0.0301293 -0.172467 0)
(0.0280306 -0.0716602 0)
(0.0299809 -0.166185 0)
(0.0302622 -0.174773 0)
(0.0301252 -0.176296 0)
(0.0283604 -0.0843639 0)
(0.0302681 -0.17872 0)
(0.0300892 -0.180028 0)
(0.0286988 -0.0976565 0)
(0.0302368 -0.182466 0)
(0.0291333 -0.11499 0)
(0.0294387 -0.127376 0)
(0.00699005 -0.0600952 0)
(0.00672672 -0.0565056 0)
(0.0170589 -0.131251 0)
(0.0245735 0.0564833 0)
(0.00721443 -0.0635764 0)
(0.00784012 -0.0688657 0)
(0.0253413 0.0289132 0)
(0.0297439 -0.140276 0)
(0.0260336 0.00314835 0)
(0.0268334 -0.0272807 0)
(0.027519 -0.0534713 0)
(0.0281665 -0.0788361 0)
(0.0294911 -0.134585 0)
(0.0289042 -0.108735 0)
(0.0262534 -0.198181 0)
(0.0254489 -0.198207 0)
(0.0202981 0.0896536 0)
(0.0204103 0.0841624 0)
(0.0206448 0.0841763 0)
(0.0207515 0.0785961 0)
(0.0209812 0.0785042 0)
(0.0210797 0.0729907 0)
(0.0213093 0.0726437 0)
(0.0213871 0.0672017 0)
(0.021634 0.0662998 0)
(0.0216895 0.0608305 0)
(0.0219463 0.0597166 0)
(0.0219962 0.0542643 0)
(0.0222442 0.0531654 0)
(0.022295 0.047781 0)
(0.0225302 0.0465606 0)
(0.0225745 0.041397 0)
(0.0228058 0.0398025 0)
(0.0228334 0.0348109 0)
(0.0230714 0.0328796 0)
(0.0230832 0.0278621 0)
(0.0233233 0.0257429 0)
(0.0233299 0.0208425 0)
(0.0235714 0.0183933 0)
(0.0235665 0.0137615 0)
(0.0238117 0.0111805 0)
(0.0237925 0.00662394 0)
(0.0240352 0.00406462 0)
(0.0240093 -0.000575907 0)
(0.0237598 0.00209154 0)
(0.0239692 -0.00504838 0)
(0.0242177 -0.00786302 0)
(0.0241729 -0.0122722 0)
(0.0244169 -0.0152474 0)
(0.0243611 -0.0195408 0)
(0.024602 -0.0226164 0)
(0.0245263 -0.0267802 0)
(0.0247735 -0.0299714 0)
(0.0246867 -0.034095 0)
(0.024933 -0.0373537 0)
(0.0248404 -0.0413091 0)
(0.025078 -0.0447441 0)
(0.0249639 -0.0484296 0)
(0.0252077 -0.0521552 0)
(0.0250775 -0.0556584 0)
(0.0253217 -0.0594634 0)
(0.0251878 -0.0627571 0)
(0.0254177 -0.066609 0)
(0.0252614 -0.0695916 0)
(0.0254927 -0.0736485 0)
(0.0253104 -0.0764669 0)
(0.0255462 -0.0805547 0)
(0.0253552 -0.0831796 0)
(0.0255797 -0.0872985 0)
(0.025375 -0.0896492 0)
(0.0255917 -0.0938893 0)
(0.0253742 -0.0959731 0)
(0.0255786 -0.100289 0)
(0.0253406 -0.102057 0)
(0.0255361 -0.106448 0)
(0.0252679 -0.107922 0)
(0.0254649 -0.112332 0)
(0.0251782 -0.113616 0)
(0.0249857 -0.10935 0)
(0.0248811 -0.114692 0)
(0.0250631 -0.119062 0)
(0.0247508 -0.119925 0)
(0.0249176 -0.124337 0)
(0.0245884 -0.124882 0)
(0.0247374 -0.129359 0)
(0.0243957 -0.129527 0)
(0.0245254 -0.133996 0)
(0.0241733 -0.133844 0)
(0.0242821 -0.138231 0)
(0.023921 -0.137803 0)
(0.0240066 -0.142095 0)
(0.0236361 -0.141437 0)
(0.0250395 -0.0718456 0)
(0.0236956 -0.145684 0)
(0.0233151 -0.144837 0)
(0.0247573 -0.0448917 0)
(0.0240596 -0.12945 0)
(0.0230971 0.0226019 0)
(0.0223753 0.0419775 0)
(0.0214017 0.0628522 0)
(0.0232659 -0.140598 0)
(0.0229405 -0.143781 0)
(0.0229647 -0.147918 0)
(0.0225874 -0.146668 0)
(0.0225872 -0.150676 0)
(0.0222058 -0.149228 0)
(0.0221687 -0.153145 0)
(0.0217909 -0.151456 0)
(0.0217052 -0.155064 0)
(0.0213454 -0.153382 0)
(0.0212243 -0.156795 0)
(0.0251395 -0.0917677 0)
(0.0242852 -0.0231909 0)
(0.0237115 -0.00229396 0)
(0.0245918 -0.115606 0)
(0.0299464 -0.177392 0)
(0.0298687 -0.180901 0)
(0.0297279 -0.178248 0)
(0.0296156 -0.181618 0)
(0.0300187 -0.152667 0)
(0.0208717 -0.155084 0)
(0.0207122 -0.15857 0)
(0.0294766 -0.178882 0)
(0.0293337 -0.182127 0)
(0.0203726 -0.156589 0)
(0.0201697 -0.159977 0)
(0.0225255 0.138119 0)
(0.0225737 0.135758 0)
(0.0226243 0.134645 0)
(0.0226743 0.132278 0)
(0.0227221 0.131169 0)
(0.0227731 0.128814 0)
(0.0228189 0.127697 0)
(0.0228705 0.125354 0)
(0.0229143 0.124244 0)
(0.0229669 0.121894 0)
(0.0230093 0.120783 0)
(0.0230603 0.118527 0)
(0.0231029 0.117343 0)
(0.023151 0.115212 0)
(0.0231962 0.113897 0)
(0.0232465 0.1117 0)
(0.0232901 0.110419 0)
(0.0233443 0.108113 0)
(0.0233831 0.106965 0)
(0.0234382 0.104644 0)
(0.0198522 -0.157803 0)
(0.019622 -0.160964 0)
(0.0193171 -0.158732 0)
(0.0190651 -0.161662 0)