/*--------------------------------*- C++ -*----------------------------------*\
| =========                 |                                                 |
| \\      /  F ield         | OpenFOAM: The Open Source CFD Toolbox           |
|  \\    /   O peration     | Version:  v2012                                 |
|   \\  /    A nd           | Website:  www.openfoam.com                      |
|    \\/     M anipulation  |                                                 |
\*---------------------------------------------------------------------------*/
FoamFile
{
    version     2.0;
    format      ascii;
    class       volVectorField;
    location    "450";
    object      ddtCorrDdt0(U);
}
// * * * * * * * * * * * * * * * * * * * * * * * * * * * * * * * * * * * * * //

dimensions      [0 1 -2 0 0 0 0];


internalField   nonuniform List<vector> 
13917
(
(-0.00149339 -0.0018475 6.31126e-18)
(-0.000615729 -0.000756735 2.76979e-18)
(0.0259234 0.00255643 4.98565e-18)
(-0.001404 -1.25012e-05 1.89603e-18)
(-1.6887e-05 -0.00030897 -1.29728e-19)
(0.00020681 -0.00224759 -1.69737e-16)
(0.0225714 0.00213688 -5.74731e-18)
(0.0270513 0.00246522 -1.04869e-18)
(0.0289979 0.000992672 -7.85406e-18)
(-0.00175236 -0.00230194 4.13074e-18)
(-0.00280325 0.00108017 8.72287e-18)
(-0.00212887 0.000474765 -7.91946e-19)
(-0.00142369 -6.98478e-06 -3.47813e-18)
(0.0128733 0.000656347 7.92439e-18)
(-0.000446817 -0.00141322 1.42188e-17)
(-0.000587928 -0.00131668 7.72446e-18)
(-0.000581958 -0.000838155 1.61328e-18)
(-0.00269372 -0.000969252 1.33568e-18)
(-0.00210712 0.000457298 1.36709e-18)
(-4.16008e-05 -0.000105689 -3.87301e-18)
(-1.16638e-06 -3.89326e-05 9.45917e-18)
(0.0220593 0.00195212 1.79495e-18)
(-5.75835e-05 -0.000197435 1.01195e-18)
(0.0273442 0.00266976 -1.06607e-18)
(-0.000113464 -0.000478472 -4.52533e-18)
(0.0210482 0.00169078 2.60443e-18)
(4.79608e-05 -0.00167378 1.07596e-17)
(3.70541e-05 -0.00183093 -3.03441e-18)
(0.000281346 -0.00245352 -6.98202e-18)
(-0.00266847 -0.00224007 1.96274e-18)
(-0.00168143 -0.0018312 5.73945e-18)
(-0.00119131 -0.00140583 2.64804e-19)
(-2.62358e-05 -0.00161759 -7.32927e-18)
(1.8476e-05 -0.00128882 -4.03023e-17)
(-8.68792e-05 -0.000517568 -1.73062e-18)
(-0.00374638 0.00205443 -6.01977e-19)
(-5.27226e-05 -0.000187395 -1.92062e-18)
(0.0164377 0.000810359 -3.84385e-18)
(-0.00156501 9.18953e-06 1.17753e-19)
(0.014451 0.000872735 -7.40355e-18)
(-0.000173039 -1.73226e-05 1.84419e-18)
(3.47133e-08 -1.50582e-05 -4.59988e-18)
(-0.000426101 -4.46684e-05 8.25623e-20)
(0.000119178 -0.00198802 4.39777e-17)
(-0.000854884 -0.000496508 -2.07925e-19)
(-7.28493e-06 -0.00138125 -1.20337e-17)
(-0.00267265 -0.000922804 -5.4574e-19)
(-0.00306411 -0.000413465 7.62108e-18)
(-0.000181333 -0.00263022 2.06711e-16)
(-7.11579e-05 -1.54915e-05 -5.41314e-20)
(-0.00177341 -0.000524417 5.24554e-18)
(-4.57231e-05 -0.000891278 1.21987e-17)
(-0.00191261 -0.00400935 -2.19116e-16)
(1.72765e-05 -0.00131102 -3.33637e-17)
(-0.000572229 -0.000866993 -2.91488e-18)
(-0.00166208 -0.000875782 2.58065e-18)
(-0.00277904 0.00105642 -1.08436e-17)
(-0.000285293 -0.000697084 -6.5433e-18)
(-0.00141083 -0.000902826 2.61016e-18)
(-0.000825465 -0.000486744 -7.44961e-19)
(0.0285111 0.00118454 1.78359e-17)
(-0.000635789 -0.000757581 -6.86608e-20)
(0.00949747 0.000144436 -2.54821e-18)
(-4.54025e-05 -0.000114452 3.58035e-18)
(0.000138258 -0.00219691 1.23542e-16)
(0.00972654 -0.000123851 -1.25944e-17)
(4.68415e-07 -0.000326114 5.36924e-18)
(8.85124e-06 -0.000532289 -4.00833e-18)
(-0.00378538 0.000265352 -4.64831e-18)
(-0.00115546 -0.0018385 3.99701e-19)
(-1.80857e-05 -0.000296148 8.16899e-19)
(0.0302496 0.00110133 1.80114e-17)
(0.0126172 -0.000523487 1.10689e-17)
(-0.000110274 -0.000465336 2.88166e-18)
(1.78578e-05 -0.00255456 3.11829e-17)
(-0.00192519 0.000558213 -5.40778e-19)
(0.0134125 -2.10081e-05 -2.16333e-17)
(-0.00114431 -0.000579468 2.42366e-19)
(0.0202786 0.00160183 -4.05755e-18)
(-7.52386e-06 -7.64951e-05 4.54923e-18)
(-1.0668e-05 -9.21942e-05 9.39491e-18)
(1.87425e-06 -0.000306397 9.0437e-19)
(5.78717e-05 -0.00218078 -1.36731e-17)
(0.0171196 0.000879189 9.10992e-18)
(0.00659584 0.000736342 6.19558e-18)
(-0.00112602 -0.000557569 -2.56564e-19)
(-1.73639e-05 -0.000106692 -4.46361e-18)
(0.00315858 -0.00117649 1.96142e-17)
(-0.00174036 -0.000514348 2.17622e-18)
(-0.000436876 -4.50201e-05 -3.67121e-19)
(0.0149918 7.43058e-05 1.68375e-17)
(-0.00215267 -0.00240632 4.32777e-18)
(-0.000549635 -0.000455308 1.25447e-18)
(-0.000309999 -0.00109178 -3.51306e-18)
(0.00659577 -0.00106769 -2.39028e-17)
(0.000167437 -0.00218054 5.62962e-17)
(-0.00324091 0.000516927 -1.80054e-19)
(-0.00295943 -0.000596107 -1.34974e-17)
(-0.00200613 0.000835934 1.03505e-17)
(0.000160885 -0.00191359 1.52971e-17)
(-0.000237522 -0.000116538 -2.35205e-18)
(4.13566e-05 -0.00152033 3.06504e-17)
(0.000128005 -0.00198213 1.38635e-17)
(-0.00130206 -0.000501675 -7.15667e-19)
(-0.000366326 -0.000245051 -1.06667e-18)
(0.030856 0.000347724 -7.64471e-18)
(0.000204956 -0.00251682 -1.11274e-17)
(-0.00311851 -0.000423165 4.77605e-18)
(-0.000599455 -0.00083779 -3.04332e-18)
(-0.00161493 -0.00196595 -4.89236e-18)
(0.00768267 -0.00063962 -4.98148e-18)
(0.0147018 0.000899951 7.12373e-18)
(-0.00215366 0.000630553 6.1229e-18)
(0.0303197 0.000502455 6.02537e-18)
(-2.62417e-05 -0.00105102 -8.75359e-18)
(0.000465023 -0.00278674 -1.281e-16)
(-0.000125295 -0.0003493 2.53206e-18)
(0.000116376 -0.00256457 -1.19539e-16)
(0.0149352 0.000817408 7.95927e-19)
(-1.98536e-05 -0.00131223 -7.77603e-18)
(-4.22435e-07 -2.97536e-05 3.60481e-18)
(-0.00378345 0.000197669 6.45678e-18)
(0.0148645 0.000728323 -8.44464e-19)
(3.23269e-05 -0.00181082 -1.04076e-17)
(-0.000104873 -1.35995e-05 -3.18787e-18)
(-0.000305453 -0.00106474 -9.83268e-18)
(-0.000773205 -0.000545789 5.2815e-19)
(-9.7026e-05 -1.09725e-05 4.10392e-18)
(-0.000360427 -3.30947e-05 6.06045e-19)
(0.00012346 -0.00218133 -3.98763e-17)
(0.0166255 0.000937791 -5.49687e-18)
(-2.30457e-05 -0.00103243 -1.21262e-17)
(-0.000862603 -0.00051358 2.9405e-20)
(-7.74305e-07 -3.23148e-05 -9.57368e-18)
(-0.00936024 -0.00106531 1.78393e-17)
(0.0273164 0.00280719 -2.78203e-20)
(-0.00145523 -0.00187987 -2.91753e-18)
(0.000172076 -0.00194236 -4.43992e-17)
(-2.6308e-06 -0.000338577 -4.34849e-18)
(-6.15293e-06 -0.00130485 -3.18632e-18)
(-0.00584972 0.00154918 1.76502e-18)
(-0.000541991 -0.000268538 2.02194e-18)
(-0.000113175 -0.000985884 4.34532e-18)
(0.000107467 -0.00200343 -5.64072e-17)
(4.69509e-06 -0.000542289 1.15918e-17)
(0.0301527 0.00157649 6.07789e-18)
(0.000247489 -0.00251991 1.44093e-17)
(-5.53405e-05 -0.000867982 -8.60745e-18)
(-0.000508058 -0.000226729 1.46139e-18)
(-0.00112662 -0.00147895 1.06966e-18)
(-0.00263487 -2.43283e-05 -8.22733e-18)
(0.000374639 -0.00273791 -1.49326e-16)
(-0.00265173 0.000552128 5.86074e-18)
(-0.000829375 -0.00204552 1.13109e-17)
(-0.00144812 -0.00116455 1.76699e-18)
(0.00597866 -0.00252911 6.23345e-17)
(-0.00112157 -0.00179962 8.81778e-19)
(0.00340422 0.00174686 9.63221e-18)
(0.0130837 -9.85195e-05 1.3298e-17)
(-0.00946376 -0.00178839 2.24298e-18)
(-0.000159372 -0.00121857 -1.05219e-17)
(7.71423e-05 -0.00164834 5.93846e-17)
(-4.45825e-06 -6.70145e-05 2.45671e-18)
(-0.00316891 0.000514867 4.67439e-18)
(-0.00216817 0.000620399 -6.9885e-18)
(-0.0020426 0.000834026 -1.00537e-17)
(-0.00128118 -0.000512013 -8.91433e-19)
(-0.0028076 -0.000258185 -1.09517e-18)
(-0.000716655 -0.000423158 1.05912e-18)
(5.19154e-05 -0.00153696 -3.75837e-17)
(-0.000963898 -0.00204711 -1.34887e-18)
(0.00333784 -0.000371666 -7.80331e-18)
(-0.00209573 0.000673499 1.27523e-18)
(-0.000600062 -0.000964542 2.73023e-19)
(0.027432 0.00290654 1.24225e-17)
(-0.000751732 -0.00214149 1.01018e-18)
(0.0171073 0.000972724 3.62055e-18)
(0.000103974 -0.00272141 -5.77139e-17)
(0.0293145 0.00206818 -1.11908e-17)
(-0.000400367 -0.000530075 6.60372e-19)
(-0.00223789 -0.00241189 -1.7157e-17)
(-0.00173993 -0.00185195 -7.08805e-19)
(-0.000551606 -0.000259889 2.62788e-18)
(-1.99966e-05 -0.000115887 7.20623e-18)
(-0.000323001 -0.00158252 1.36546e-17)
(0.0219882 0.0018779 1.24274e-18)
(-0.00272034 -0.00332323 -2.10865e-18)
(0.0146251 -0.00226729 -5.99067e-17)
(-0.00213228 -0.00109097 -4.4594e-18)
(-0.00223424 0.000844477 -8.1464e-18)
(-0.00769619 0.00107628 3.58093e-18)
(0.0093198 0.00122711 5.89535e-17)
(-0.00196612 -0.00338023 -1.23151e-17)
(-4.86415e-05 -0.000229021 8.02975e-18)
(0.000152173 -0.00193763 -4.40918e-17)
(3.75514e-05 -0.00166027 -5.69627e-17)
(-0.000156016 -6.63358e-06 -2.52187e-18)
(-0.000557896 -0.000473 2.24003e-18)
(0.000141012 -0.00259129 2.78741e-18)
(-0.00226324 -0.00639392 6.28982e-19)
(-0.00170371 -0.000221462 -2.88454e-18)
(-6.50669e-05 -1.38918e-05 4.73414e-19)
(-0.00268605 -0.00019149 2.58693e-17)
(-0.00259112 -1.42662e-05 8.79791e-18)
(0.0120572 -0.000356241 -2.31717e-17)
(-0.0085157 -0.00235167 -4.52234e-18)
(-7.99557e-05 -0.000503943 -5.9525e-19)
(-0.000276001 -0.000733388 8.32932e-18)
(-0.00292447 -0.000543691 1.89559e-17)
(0.0237672 0.00236581 9.3568e-19)
(-0.000126981 -0.000934814 -8.05086e-18)
(0.022762 0.00206369 -4.18549e-18)
(0.0112781 -0.000114238 1.13094e-17)
(-0.00226262 0.000845245 6.20414e-18)
(-0.000359364 -0.000249502 1.0094e-18)
(9.37805e-05 -0.00219801 3.71469e-17)
(-0.00277864 -0.000496968 4.47506e-18)
(0.00587765 -0.000384822 -1.40859e-17)
(-0.00019721 -0.00042273 5.7217e-19)
(0.029659 0.000958193 2.09686e-17)
(-0.000385666 -0.000513606 1.21442e-18)
(-0.00289106 -0.00201075 -1.58498e-17)
(-0.00017004 -2.08767e-05 1.44478e-18)
(0.016601 0.000865633 3.82737e-18)
(0.0305982 0.000106073 7.24557e-18)
(-0.000588662 -0.00135288 1.08197e-17)
(-0.00202161 -0.00580599 -1.73947e-17)
(-0.00149358 -0.0011651 2.53251e-18)
(-0.000343513 -0.000242108 5.9622e-18)
(-0.0061189 0.00172228 -1.63521e-18)
(-0.0020693 0.000651473 -2.05841e-18)
(-0.00212898 -0.00104555 8.70754e-18)
(0.026998 0.00289737 -1.06532e-18)
(0.0109642 8.19523e-06 -7.7057e-18)
(-0.000249493 -6.09898e-05 4.54509e-18)
(-0.00122722 -0.00142633 1.40228e-19)
(0.0157645 3.27328e-05 -7.96714e-18)
(0.00489306 0.000988914 -1.06987e-17)
(-5.5351e-06 -7.66872e-05 -2.46319e-18)
(-0.000151241 -0.000189321 -2.84968e-19)
(0.0148609 0.00104228 -5.00649e-19)
(-0.00346198 0.000498472 -2.27237e-18)
(-8.47064e-07 -2.72486e-06 1.70137e-18)
(-0.00368578 0.00161754 -4.44255e-18)
(-0.00330176 -0.00122202 -3.70567e-18)
(7.67205e-05 -0.00163216 -3.68694e-17)
(-0.00153877 -0.00170992 2.27037e-18)
(-6.06256e-06 -7.15587e-05 1.07698e-18)
(-0.000578214 -0.00207305 -6.18902e-18)
(0.01238 5.80892e-05 -5.11409e-18)
(-0.000951285 -0.000128257 1.04235e-18)
(-0.00222262 -0.00265512 1.14878e-17)
(0.000150161 -0.00201944 5.10409e-19)
(-0.000764091 -0.000524653 2.0966e-19)
(-0.000245511 -0.000677525 5.13087e-18)
(-0.00249834 0.000401745 -2.5048e-18)
(0.0152485 0.00103765 -9.15298e-19)
(-0.00260698 0.000522687 -1.44971e-19)
(-0.000334069 -0.00160342 2.63568e-18)
(-0.000473156 -0.00142812 -7.0381e-18)
(-7.56727e-07 -4.80939e-06 6.36451e-18)
(0.0143611 0.000704303 2.40629e-19)
(0.0297276 0.000867819 -9.87363e-18)
(-0.00615859 0.000704363 -4.68425e-18)
(-0.000335806 -0.000245976 -7.5488e-18)
(0.00987805 -0.000601006 1.31859e-17)
(0.0138068 0.000696779 -6.8969e-18)
(0.0134979 0.00267841 -1.48319e-18)
(0.0199187 0.00153873 3.72583e-18)
(-0.00192954 0.000585026 -5.48595e-18)
(-8.63701e-06 -8.78259e-05 1.44645e-18)
(-0.00012844 -1.65314e-05 9.99661e-19)
(-0.00270459 -0.000834783 5.97615e-18)
(0.0152484 0.000782984 3.16393e-18)
(-0.00370854 -0.00049563 -9.77062e-19)
(-0.00139135 -0.000868182 -2.21538e-18)
(-0.010291 -0.00268086 9.23171e-18)
(-0.00186969 0.000234543 -5.29779e-19)
(-0.000355152 -2.26497e-05 2.14836e-18)
(0.0193093 0.000294169 2.2835e-18)
(-4.87573e-05 -0.000100186 -2.73886e-18)
(0.0279203 0.00297483 -1.67902e-17)
(-0.00166812 -0.000220801 3.01134e-18)
(-1.46566e-06 -2.77315e-06 -1.94121e-18)
(-0.000650775 -0.00150445 3.46746e-18)
(-0.000793573 -0.00204595 -9.77362e-18)
(6.26383e-05 -0.00163712 -3.88372e-17)
(-0.00511491 0.00166017 3.05605e-18)
(-0.000673018 -0.00176747 7.53843e-18)
(-0.000974214 -0.000259642 -4.20955e-19)
(-0.00235246 -0.0019551 -1.16663e-17)
(0.0271455 0.00284423 -5.90542e-18)
(0.0315808 0.000848206 -1.50675e-17)
(-0.000186992 -0.00041358 -4.545e-18)
(0.0165617 0.00304562 1.55171e-17)
(-3.50308e-06 -0.0001997 -3.02738e-18)
(-0.000979283 -0.000242988 5.30091e-19)
(-0.000117705 -0.000330079 -2.62337e-18)
(0.000219386 -0.00260405 -1.24201e-17)
(-3.34324e-05 -1.71209e-05 1.9264e-18)
(-0.00286241 -0.00200891 5.53203e-18)
(-0.00147685 -0.0016863 -3.63749e-18)
(-0.00070609 -0.000405327 -1.00601e-18)
(-0.00270064 -0.000143531 -2.73679e-17)
(-0.000902854 -0.000974324 2.01414e-18)
(0.00016648 -0.00294021 2.36295e-17)
(-0.000746892 -0.00211851 -7.8718e-18)
(-0.00212853 -0.00234606 8.872e-19)
(-0.000665782 -0.000294536 1.51656e-19)
(-0.000224873 -0.00065938 -7.79274e-18)
(0.00674129 -0.00058002 2.39389e-17)
(0.0146876 0.000729428 1.02202e-17)
(-0.000136819 -0.000360084 -1.15708e-18)
(-0.000146512 -1.76792e-05 -2.1822e-18)
(0.0157756 -0.000442153 -2.18829e-17)
(-0.000436938 -0.000496008 5.29464e-19)
(0.013249 -0.000540127 -5.64995e-18)
(-0.000648854 -0.000284727 -1.04113e-20)
(0.0170417 0.0009418 -7.69834e-18)
(-0.0011796 -3.25313e-05 1.10446e-19)
(-0.00180815 -0.00288028 6.6396e-18)
(-0.00213084 -0.0004271 -2.96929e-18)
(2.04834e-05 -0.00266857 -3.19656e-17)
(-0.000166797 -0.0011979 5.71226e-18)
(-0.00881653 -0.00225831 -1.27163e-17)
(0.000143889 -0.00216189 -2.83247e-17)
(-0.000668017 -0.00148894 1.55982e-17)
(-0.00349972 0.000442473 -4.61133e-18)
(0.000291453 -0.00276147 8.35406e-19)
(-0.000377728 -0.000872424 1.09968e-17)
(0.016424 0.000855048 3.76926e-18)
(0.000138382 -0.00193314 3.0013e-18)
(0.0142384 0.000805054 3.97582e-18)
(-4.65218e-05 -0.00124675 -1.9789e-17)
(0.014626 0.000780791 -1.94917e-18)
(-0.00130053 -0.00143447 -7.92699e-19)
(0.0101229 -0.000248346 9.09881e-18)
(0.000167554 -0.00214536 5.94067e-18)
(-0.000128218 -0.00256966 -1.8592e-17)
(-0.000189795 -0.00259401 -4.38482e-19)
(0.0247326 0.00226577 -5.50976e-19)
(-1.01684e-05 -0.000105839 -3.07069e-18)
(-0.00100123 -0.00208679 3.66276e-18)
(0.00887082 -0.000649652 -2.45462e-17)
(-0.000201684 -0.00081771 9.92467e-19)
(-0.000576381 -0.0011656 -3.19113e-18)
(0.0140325 0.000620205 -2.28602e-18)
(0.000191774 -0.00259808 1.56149e-18)
(-0.000649451 -0.000901337 4.09766e-18)
(-0.00340793 0.00132567 -1.06323e-17)
(0.000253009 -0.00239284 1.03425e-18)
(-0.000195579 -0.000101914 -3.64055e-18)
(0.0145282 0.000844729 7.80743e-19)
(-0.00774499 0.00147182 -4.99761e-18)
(-5.29204e-05 -0.000108217 5.82435e-18)
(-0.000237662 -0.000267646 -1.3328e-18)
(-1.10469e-06 -0.000187873 2.85101e-18)
(-0.000516272 -0.00022148 2.79667e-18)
(-0.00288508 -0.00185075 2.46376e-17)
(0.0284956 0.00270474 8.69088e-18)
(0.000274521 -0.00209196 5.95734e-17)
(0.00788284 -0.000587687 -4.95899e-17)
(-0.000118965 -0.00041783 -4.89049e-19)
(-0.00226261 -0.00270965 -9.54287e-18)
(-0.00222018 -0.000848301 1.87984e-17)
(-0.00242132 -0.000299123 -1.04722e-17)
(0.022175 0.00192275 1.1943e-17)
(0.0159466 0.000796383 2.95431e-19)
(0.0300499 0.000113479 5.51505e-18)
(-0.000280869 -0.000110817 -2.48099e-19)
(-0.00537155 0.00056244 6.45816e-18)
(-0.000257347 -0.000256165 -3.9229e-18)
(0.0252675 0.000388677 1.23457e-17)
(-0.000807905 -0.000495269 -2.45163e-19)
(-0.000111552 -0.00284024 5.96117e-18)
(-0.00329906 -0.00128428 1.15576e-19)
(-0.00154183 -9.73433e-05 -1.97107e-18)
(-1.20733e-05 -0.000132396 2.11846e-18)
(-0.00286726 -0.00054316 3.5107e-18)
(-0.00228345 -0.00246965 7.05867e-18)
(-0.00312762 -0.00093861 -5.7942e-18)
(-0.000576296 -0.00219425 2.69174e-17)
(0.00819123 -0.000395892 -1.1342e-17)
(0.00539831 -0.000320952 -8.30358e-18)
(-0.00057429 -0.00214243 1.90142e-17)
(-0.00170533 -0.00223899 -6.95481e-18)
(-0.000142637 -0.000180155 -1.93404e-18)
(0.0060485 0.00125506 4.67733e-17)
(0.0211723 0.00170696 1.88945e-18)
(-0.000321834 -0.000715104 6.08658e-18)
(-0.00354307 -0.00187906 1.93167e-18)
(-7.9022e-05 -0.000406827 -7.01532e-18)
(-0.00428636 -0.00173458 4.64703e-18)
(-0.00117301 -3.99286e-05 1.29789e-20)
(-7.75681e-06 -9.05034e-05 -7.41535e-19)
(-0.000850927 -0.00100828 -4.07582e-18)
(0.0193334 0.00178674 -2.45535e-18)
(-0.00082983 -0.00101008 2.41102e-18)
(0.0155977 0.00111091 -2.0652e-18)
(0.00540827 0.00527969 2.19275e-17)
(-0.00254408 0.00100941 -3.30345e-18)
(0.000114204 -0.00215735 -1.84934e-16)
(-0.000387749 -0.000859113 1.19283e-17)
(0.0001493 -0.00215203 -8.37126e-17)
(0.000166074 -0.00218047 7.23823e-17)
(-9.33958e-05 -0.000237259 -3.54464e-18)
(0.000194712 -0.00251965 1.85636e-18)
(-0.00020418 -0.000803516 -3.30525e-19)
(-9.23231e-05 -0.000463068 -2.6753e-18)
(-0.0026084 -0.00226799 1.91069e-18)
(-1.44693e-06 -7.26275e-06 -4.65079e-18)
(-0.000107567 -0.000498247 1.74719e-18)
(-0.000259618 -0.000250892 3.02253e-18)
(-0.00419091 -0.00198982 -4.01747e-17)
(-5.41935e-06 -6.48564e-05 -8.59525e-18)
(0.0148542 0.000796038 2.45173e-18)
(0.0215021 0.00217104 -9.73798e-18)
(-0.000982517 0.00114713 -4.38899e-17)
(-0.00188101 -0.0032884 8.76416e-18)
(0.0164137 0.00108676 3.69373e-18)
(0.00701947 -0.000297291 1.51081e-17)
(-0.00238027 -0.000283724 2.95574e-18)
(-0.000114616 -0.000398458 6.44974e-19)
(-0.00369773 -0.00166006 4.88346e-19)
(-0.00154562 -7.20172e-06 1.60157e-19)
(-0.00127223 -0.00149338 -4.8597e-20)
(-5.50632e-05 -0.000241547 -8.2476e-19)
(0.0297047 0.00242494 1.96383e-18)
(0.0226038 0.00205853 -4.14881e-18)
(0.0223023 0.00233568 2.33047e-18)
(-0.000507997 -0.00132885 -1.12383e-17)
(-0.00348932 -0.00114347 3.83606e-18)
(-4.03308e-05 -0.00122289 -6.32185e-18)
(-0.0015925 5.39146e-06 -2.10259e-18)
(-0.0030876 -0.000860234 -3.98707e-18)
(-0.000695139 -0.00101949 8.70144e-19)
(-0.00531791 0.000600792 -8.37122e-18)
(-0.000604583 -0.000825746 6.16339e-18)
(-3.32102e-05 -2.02339e-05 -6.97926e-18)
(0.0140513 -0.000658038 -3.18434e-18)
(0.0168225 0.000945796 -2.80611e-18)
(0.01723 0.00100742 4.78663e-18)
(-0.00162834 -0.00276852 -7.88331e-18)
(-0.00173458 0.00122469 5.24816e-17)
(0.0171625 0.000948233 -3.70687e-18)
(0.0113271 -0.000563495 3.02129e-17)
(0.0140868 0.00058369 3.87435e-19)
(-0.000345496 -3.77445e-05 -8.78849e-19)
(-0.00282229 -0.000701728 -2.63787e-18)
(-0.000712955 -0.0010176 -5.26164e-19)
(-0.000268741 -0.000742838 -5.92602e-18)
(-0.00454707 -0.00207609 -2.20328e-18)
(-0.00272276 -0.000878693 -5.76768e-18)
(-0.000373085 3.16376e-06 6.79966e-19)
(-0.00265972 -0.00149372 -5.55455e-18)
(-0.00235729 -0.000381698 1.82392e-18)
(0.0139389 0.00071962 -9.30965e-19)
(-0.000101556 -0.000245165 1.25498e-17)
(-0.0035031 6.16622e-05 1.43003e-17)
(0.0022623 0.00149022 6.03258e-17)
(-0.00216585 -0.00274029 2.65217e-17)
(0.0152345 0.000808863 -4.45567e-18)
(-1.23898e-06 -5.90497e-05 -2.4691e-18)
(-0.000315391 -0.000731939 -5.93327e-18)
(-0.000238413 -9.59939e-06 2.46668e-18)
(-0.00107233 -0.00181722 -2.0315e-18)
(-0.000278276 -0.000102905 3.91659e-18)
(0.0225235 0.00189824 6.31482e-18)
(0.000244299 -0.00209866 -1.61162e-17)
(-0.000685562 -0.00173176 7.25296e-18)
(0.00803603 0.000890827 -7.05545e-17)
(-0.00166229 -0.000840122 -4.12296e-18)
(-0.00314505 0.000573507 -3.70133e-18)
(0.0129338 -0.000528927 -2.39791e-18)
(0.000307772 -0.00252787 5.41447e-18)
(-0.0025251 0.000984952 4.88618e-18)
(-0.00732269 0.0015297 -4.31713e-18)
(-0.00351151 0.000113161 -1.91994e-17)
(-0.00249892 -0.00165742 -7.76125e-18)
(-0.00384709 -0.00139118 -1.64013e-17)
(-0.0021642 0.000116568 8.01822e-19)
(-0.00232537 0.00104249 -9.32177e-18)
(0.000125546 -0.00223074 5.17667e-17)
(-0.00208724 0.00025842 -3.84824e-18)
(-0.00321044 -0.000243761 -6.34289e-18)
(-0.000301478 -1.48872e-05 7.41162e-19)
(-0.00763274 -0.00242439 1.16499e-17)
(-0.00181643 -0.000585111 3.35776e-18)
(-0.000676034 -8.08092e-05 2.06316e-20)
(-0.0010403 -0.00177589 1.65572e-18)
(-0.00119269 -0.000562835 -4.76846e-19)
(0.0139856 0.00053309 -2.96765e-18)
(0.0306231 0.000724315 -1.25008e-17)
(-0.000418763 -0.000480096 -1.60853e-19)
(-0.000353077 -1.85166e-05 -1.2483e-18)
(0.0240628 0.00245252 -3.42647e-18)
(0.00663064 -0.000221535 -1.28844e-17)
(-1.28995e-06 -5.47126e-06 -2.83745e-18)
(0.0148146 0.000750431 -7.77228e-18)
(-0.00129224 -0.00024122 5.37107e-19)
(-0.00222183 -0.00315636 -5.48313e-18)
(-0.000422711 -0.000516017 -6.15583e-18)
(0.0106928 -0.000526561 2.04528e-17)
(-0.00972492 0.00022368 7.76497e-18)
(-0.00116151 -0.00146677 -9.04151e-19)
(-0.000847592 -0.000699878 -1.83511e-18)
(0.0169344 0.00115856 -6.81166e-18)
(-0.0026452 -0.00317199 1.04868e-17)
(0.000682192 -0.000479636 5.198e-17)
(-9.47214e-07 -6.55843e-06 3.55886e-18)
(0.0117649 -0.000155455 -9.79645e-18)
(-3.12791e-05 -0.00282179 -2.49574e-17)
(0.0163356 0.000875907 1.11567e-17)
(-0.00067734 -9.24008e-05 -3.80664e-19)
(0.00498471 0.000772732 2.36806e-18)
(0.0292861 0.000475646 -1.28116e-17)
(-0.00240288 -0.000211227 -8.6057e-18)
(-0.000248485 -0.000268571 -3.29132e-18)
(-0.000507569 -0.000860727 4.7958e-18)
(-0.00186067 0.000535483 4.04459e-19)
(-0.00272534 -0.001531 -2.38896e-17)
(-0.00037683 4.7369e-06 2.19052e-19)
(-0.000225222 -0.000253977 3.73781e-18)
(-0.000104536 -4.93182e-05 -6.07517e-18)
(-0.000111447 -5.13858e-05 -4.47593e-18)
(0.00958276 -0.000458542 -2.04845e-17)
(-0.00399887 -0.00189568 7.12282e-18)
(-0.00237606 -0.000232957 6.92113e-18)
(-0.00289731 -0.00315056 -1.23819e-17)
(-0.000128622 -1.27253e-05 -1.05169e-18)
(-0.000227767 -0.000110686 2.27335e-18)
(-0.00346779 -0.00107662 -7.50266e-19)
(0.0223685 -0.000746477 -3.17839e-17)
(-0.00192301 -0.00116474 -3.83926e-18)
(-0.000740822 -0.00042989 -3.19151e-19)
(-0.000102105 -0.000463256 -8.59949e-19)
(1.11901e-06 -0.000422332 -9.10232e-18)
(0.0222704 0.00106361 2.80955e-17)
(0.0125048 0.00162264 -3.59333e-17)
(-1.94154e-05 -9.48462e-05 -3.239e-18)
(-1.84849e-05 -0.0004212 6.0952e-19)
(-0.00581019 0.000498932 6.47569e-18)
(-0.00216795 8.84929e-05 -3.20414e-18)
(-0.00212679 -0.000402535 8.36562e-18)
(-0.000285386 -0.000712152 7.8661e-18)
(-0.000801938 -0.00104438 -4.20684e-18)
(-0.00101189 -0.00141471 -3.34076e-20)
(-0.00316208 -0.000201143 9.78165e-18)
(0.000253982 -0.00284417 2.25486e-18)
(-0.00289941 -0.0033417 1.25011e-17)
(-0.00374644 -0.00162962 -1.6526e-17)
(-0.0035002 -0.000667039 8.98917e-19)
(-0.0095732 -0.00204103 -2.60656e-18)
(-0.00217945 -0.00229131 -7.27735e-18)
(-0.000174296 -0.000411552 5.9937e-18)
(0.0121985 -0.000104508 9.83965e-19)
(3.14521e-06 -0.000410403 1.01475e-17)
(-0.000589973 -0.00118967 2.65529e-19)
(-0.00152064 -0.000209727 7.31255e-19)
(-0.00736258 -0.00241858 2.87917e-18)
(-0.000502132 -0.00254855 8.66594e-18)
(-0.000203584 -2.64769e-05 -3.29184e-19)
(-0.00215566 -0.00265372 -2.39923e-17)
(-0.00281255 -0.00226104 -2.11047e-18)
(0.00603446 0.00276223 -1.24788e-16)
(-0.00348698 -0.000726649 1.71434e-17)
(-0.000221759 -0.00172966 9.30257e-18)
(-0.00241096 -0.000379859 -2.8735e-18)
(-9.70873e-06 -0.000147343 -4.21381e-18)
(0.0314496 0.000629268 9.06551e-18)
(-0.00185823 -0.00271049 -8.65016e-18)
(0.0213436 0.00148067 -1.31421e-17)
(-0.000588567 -0.000801766 -1.25432e-18)
(-0.00182336 -0.000974784 3.17642e-18)
(-0.00306235 -0.00310233 2.1451e-18)
(0.0162489 0.000773211 -7.22423e-18)
(0.00528637 3.388e-06 -6.09444e-19)
(-0.00304023 -0.000611522 -3.90529e-18)
(-0.00164695 -0.00280823 -7.05575e-18)
(-0.000575048 -0.00131773 -8.88351e-18)
(-0.00116526 -0.00100482 -9.25577e-20)
(-0.000282963 -0.00073095 4.00837e-18)
(-0.000205166 -0.00210158 1.66011e-17)
(9.55309e-05 -0.00197271 -3.14308e-17)
(2.4626e-05 -0.000784566 -6.70703e-18)
(-0.00274242 -0.000454785 -1.07354e-17)
(0.000167927 -0.00198062 3.19743e-17)
(0.0219476 0.00153827 1.70903e-17)
(0.00113428 -0.000504956 -4.89248e-17)
(-0.000861935 -0.00116788 -4.10712e-20)
(-0.00307852 0.000575892 -1.44225e-19)
(-0.0114486 0.000104844 -1.06263e-17)
(-0.000691575 -0.00157672 -2.05147e-18)
(-0.000131708 -0.000933308 -8.20908e-18)
(-0.000226775 -0.00244121 3.79112e-17)
(0.0304921 0.000618661 8.29056e-18)
(0.0303882 0.00236056 7.36848e-18)
(-0.00300172 -0.0028793 -2.13537e-17)
(-0.000359672 -3.84079e-05 -9.25451e-19)
(0.0147103 0.000771918 -1.75579e-18)
(-0.00189783 0.00053528 -8.27045e-19)
(-0.000201214 -2.00994e-05 2.85334e-18)
(-0.0016466 -0.00136347 -3.08125e-18)
(-0.00291614 0.000161503 -3.46997e-18)
(-3.95955e-05 -0.00160462 8.74347e-18)
(-0.00266985 -0.00218045 -9.57611e-18)
(0.0202875 0.00151908 -1.44817e-18)
(-0.00381155 -0.00132694 1.34934e-17)
(-0.00206827 5.8108e-05 1.56022e-18)
(0.0315988 0.000640528 -1.65475e-17)
(-0.00122089 -0.000662446 -5.35455e-19)
(0.0136473 0.000913977 -5.89557e-18)
(-4.80931e-06 -7.04727e-05 3.12108e-18)
(-2.08129e-05 -0.000102947 5.52024e-18)
(0.0194227 0.00334807 -1.25853e-17)
(0.0307976 0.000431374 -2.17428e-17)
(0.000174514 -0.00225591 -2.51564e-17)
(-0.00123355 -0.000643319 5.64877e-19)
(-0.000611045 -0.000932403 2.52224e-18)
(-2.11112e-05 -0.00040955 -8.81086e-19)
(-0.00188951 0.000249529 -1.40494e-18)
(-7.09403e-05 -0.00230657 -8.67371e-17)
(-0.00207458 0.000802216 8.03909e-18)
(-0.00119811 -0.00101711 -1.18666e-19)
(-0.00255698 0.000923149 -2.74525e-19)
(-0.00283587 -0.000495289 -6.7852e-18)
(-0.000427747 -0.000529602 -4.51785e-18)
(-0.000906266 -0.00568385 4.06532e-18)
(-0.00205109 0.000784998 -4.61291e-18)
(-0.00284248 0.00108825 3.4965e-18)
(-0.000230018 -0.000436929 -3.39561e-18)
(-0.00383932 -0.00120057 -1.03241e-17)
(-0.00117372 -0.000583555 -2.01649e-19)
(0.00920601 0.00442807 -3.02763e-17)
(-0.00180587 -0.00231766 -1.51673e-18)
(-0.000564498 -0.00254096 -4.88245e-18)
(-0.00182952 -0.00100644 -4.38824e-18)
(-0.000161762 -5.809e-05 5.33822e-19)
(-0.000615701 -0.00013345 -7.63559e-19)
(-0.000797486 -0.000557308 -4.80796e-19)
(-0.000259635 -0.0027182 3.60546e-18)
(-2.03151e-05 -0.00139602 3.03029e-17)
(-0.00404053 -0.00245493 3.74222e-17)
(0.000173397 -0.00211493 -3.36052e-17)
(-0.00279905 -0.000306245 3.13014e-18)
(-0.000185988 -0.00010097 -6.91158e-19)
(-0.00367556 -0.0014561 8.62515e-18)
(9.56506e-05 -0.00232237 -2.15143e-17)
(-0.00190647 0.00226672 -3.77761e-18)
(-0.000929962 -0.000133924 -1.227e-18)
(-5.11499e-05 -0.00136805 -5.52826e-18)
(-0.000215523 -0.000253144 9.87946e-20)
(-0.0017904 -1.91893e-05 -2.09528e-18)
(-0.00145072 -0.00090493 -2.09001e-18)
(0.0286615 0.000385517 1.16817e-17)
(-9.99365e-06 -9.16329e-05 -4.73364e-18)
(-0.00576258 -0.00884873 -4.03574e-17)
(-0.00179531 -6.10082e-05 -1.7126e-18)
(-0.00270696 0.00111016 7.94493e-20)
(-0.00203465 -0.0024502 1.39725e-17)
(0.0119856 -0.000599475 2.16378e-17)
(-0.000681279 -0.00259591 -3.92057e-18)
(-0.000495388 -0.000841485 -3.22883e-18)
(0.0147944 0.000597486 1.36357e-17)
(0.0082834 -0.0001497 2.86145e-17)
(-0.000396288 -0.000696175 -1.26718e-17)
(-0.00150551 -0.000192485 7.00466e-20)
(-0.0101003 -0.000540787 -5.79552e-18)
(-0.0029627 -0.00286829 1.32337e-17)
(-0.00365571 -0.00043852 3.43375e-18)
(-3.34751e-06 -7.9721e-06 -4.74011e-18)
(-0.000868366 -0.000701258 -4.40726e-19)
(-0.00171973 -0.00290896 -2.68064e-17)
(-0.00156152 -8.81474e-05 9.4364e-19)
(-0.00305615 -0.000991048 4.34787e-18)
(-0.00247211 0.000359184 1.15086e-17)
(-0.000632657 -0.000132829 2.72717e-19)
(-0.00255248 5.10664e-05 -3.29198e-18)
(0.0261864 0.0026176 9.48985e-20)
(-0.000929062 -0.000102622 -5.30311e-19)
(-0.00131937 -4.57313e-05 4.8437e-19)
(-9.43996e-05 -5.22133e-05 -7.10334e-19)
(0.014539 0.000615241 -1.39282e-17)
(-1.8795e-06 -4.24817e-05 -2.34141e-18)
(-0.000492359 -0.00129844 -7.2923e-18)
(0.00338852 -0.000400267 -4.00541e-17)
(-0.000495847 -0.00115006 8.91165e-18)
(0.0300865 0.00043864 1.71311e-17)
(-0.00142482 -0.00119269 -2.5224e-18)
(-2.80742e-05 -0.0016375 2.73102e-17)
(-0.000101229 -5.4867e-05 6.02886e-18)
(-0.000766521 -0.00224624 2.24143e-18)
(-0.000111901 -0.000319363 7.19884e-18)
(-0.00241291 -0.00172947 -1.39989e-17)
(-0.000154148 -3.5061e-05 -6.99453e-19)
(-0.00103565 -0.00265892 -1.08977e-19)
(-0.00127826 -0.00024827 1.53509e-18)
(0.00989749 0.000857731 -3.61264e-17)
(0.000115363 -0.00221739 1.83735e-17)
(0.0224828 -0.000531404 -1.32934e-17)
(-0.000227192 -9.26027e-06 2.77298e-18)
(-1.11525e-05 -0.00012127 -2.83209e-18)
(-0.00215132 -0.00222271 -7.66311e-18)
(-0.00181629 -0.00193145 -6.63105e-18)
(0.0146468 0.000708811 5.02508e-18)
(0.0264566 -0.000309453 -5.87524e-19)
(-0.00267729 -0.00102282 1.76314e-18)
(-7.88673e-05 -0.000480897 3.44925e-18)
(-0.00433382 -0.00197422 3.37942e-17)
(8.84594e-05 -0.00221633 3.75613e-17)
(-0.00518033 0.000662403 -3.0687e-18)
(-0.00331687 -0.00231032 -2.20282e-17)
(-0.00266128 -0.000736682 -4.54692e-19)
(0.0204109 0.00172331 4.21333e-18)
(-0.0013752 -0.0018811 -7.79886e-19)
(-0.00186521 0.000219603 -4.9257e-18)
(-0.0034317 -0.00166197 -7.06029e-18)
(0.000116788 -0.00253087 -2.73405e-18)
(-0.00263053 -0.00103751 -4.55053e-19)
(-2.58735e-05 -0.00236877 2.11662e-17)
(-0.00257935 -0.00112903 -1.34409e-18)
(-0.00141032 -0.000102068 -5.43032e-19)
(-0.00296506 0.000184172 -1.19372e-17)
(-0.000703844 -0.00150215 -1.48362e-17)
(-0.000758656 -0.000123431 1.30747e-19)
(-0.00178242 -3.17644e-05 2.89178e-18)
(-0.00165247 -0.00193007 -4.0804e-18)
(-0.00108563 -0.00145433 1.55471e-19)
(-0.000102388 -0.000340396 -6.27136e-18)
(-0.000138018 -1.02413e-05 1.88835e-18)
(-0.00283051 -0.000394738 3.92453e-18)
(-0.00137154 -0.000365396 -3.15007e-18)
(-0.00305627 -0.00103987 -3.62908e-18)
(-7.73562e-05 -0.000464458 -9.50855e-19)
(-5.82094e-05 -0.000387315 2.56182e-18)
(-8.58254e-07 -3.51947e-05 2.42348e-18)
(-0.000754353 -0.001044 -3.815e-18)
(-0.000494655 -1.01514e-05 -1.37924e-19)
(-0.00107024 -0.0013057 -1.70664e-18)
(-8.39394e-05 -5.53772e-05 -3.9231e-18)
(0.0104133 -0.000500718 -9.73198e-18)
(-0.00205644 0.000462139 -9.06914e-19)
(0.000163186 -0.00207912 -4.55152e-17)
(-0.000255048 -0.000104554 4.12058e-18)
(-4.02914e-06 -4.42809e-05 -4.68912e-18)
(-1.74701e-05 -0.00184246 -3.45505e-18)
(-0.00255214 -0.001657 6.13479e-18)
(-6.59613e-06 -0.00100444 1.5568e-17)
(0.0288016 0.00064055 -1.62294e-17)
(-0.00148092 -0.00251135 1.85427e-17)
(0.0128279 -0.00417382 -6.95943e-19)
(-0.00180085 -4.75123e-05 8.61243e-19)
(-0.00359846 -0.00122247 -9.0378e-18)
(-0.0011223 -0.00038563 1.11614e-18)
(1.86917e-06 -3.31409e-05 -4.3717e-18)
(-0.00011645 -4.59305e-05 -4.25825e-19)