/*--------------------------------*- C++ -*----------------------------------*\
| =========                 |                                                 |
| \\      /  F ield         | OpenFOAM: The Open Source CFD Toolbox           |
|  \\    /   O peration     | Version:  v2012                                 |
|   \\  /    A nd           | Website:  www.openfoam.com                      |
|    \\/     M anipulation  |                                                 |
\*---------------------------------------------------------------------------*/
FoamFile
{
    version     2.0;
    format      ascii;
    class       volVectorField;
    location    "500";
    object      ddt0(U);
}
// * * * * * * * * * * * * * * * * * * * * * * * * * * * * * * * * * * * * * //

dimensions      [0 1 -2 0 0 0 0];


internalField   nonuniform List<vector> 
13851
(
(0.00964976 -0.0305854 4.41837e-17)
(0.00111684 -0.004338 1.41666e-17)
(0.000567635 -0.00421608 -4.1731e-18)
(0.00519343 0.00239018 -5.11363e-17)
(0.00153745 8.96768e-06 2.0788e-21)
(-0.000348008 -0.00494949 -1.31137e-17)
(0.00285052 -0.00234239 8.89743e-18)
(0.00147721 -3.44257e-05 9.62689e-19)
(-0.0312691 -0.0165654 1.23251e-17)
(0.000152087 0.000889529 8.10985e-19)
(-0.00912293 -0.00568602 1.39605e-17)
(0.000688296 0.000298407 1.26579e-18)
(-0.00011323 0.00114296 8.35359e-18)
(-0.00231959 -0.00182587 1.69447e-17)
(0.00395229 -0.00997348 -4.15602e-18)
(0.0236848 0.00221995 -1.44176e-17)
(0.0224441 0.00372728 1.94299e-17)
(0.000966728 -0.00150582 -2.50937e-18)
(-0.0281534 -0.0261653 5.44668e-17)
(0.00794175 -0.0299331 -5.08638e-17)
(0.00203053 -0.0119593 3.30538e-19)
(-0.00118674 -0.00109313 1.45672e-18)
(0.0229047 -0.00920042 7.3231e-17)
(0.000280737 4.8868e-06 1.72756e-19)
(0.00821586 -0.00382838 -3.75132e-17)
(0.0136857 -0.00339629 -1.18595e-17)
(-0.0024915 -0.0320933 1.12133e-17)
(-0.0360946 -0.0235797 4.47674e-17)
(-0.0813508 -0.017643 8.59754e-18)
(0.000992709 -0.00063235 -6.44765e-19)
(0.010731 0.00475208 1.0953e-17)
(0.00255813 -0.00241091 -5.69228e-18)
(0.01533 -0.0283004 -3.15762e-17)
(-0.00764086 -0.0182633 9.76409e-18)
(-0.00736026 -0.00552136 6.27166e-18)
(-0.0876641 -0.0158774 1.02782e-18)
(9.62927e-05 4.40254e-06 -1.21186e-19)
(0.0270482 -0.00542898 -4.70277e-17)
(0.0195047 0.00513327 -1.19226e-17)
(0.000606792 2.10081e-05 -4.23312e-19)
(0.0175547 -0.0058499 3.55931e-17)
(-0.0845891 -0.0195673 2.79188e-18)
(0.00933165 0.00206892 1.81776e-17)
(-0.0060931 0.00774298 9.54006e-18)
(-0.0795653 -0.0229116 3.82916e-18)
(0.00111784 -0.000318383 4.35545e-19)
(-0.000269835 -6.69022e-05 -7.63523e-18)
(0.0277854 -0.00650564 4.06364e-18)
(0.000259368 -0.00203286 -8.80334e-18)
(-0.000290425 0.00116099 -1.71068e-18)
(0.0416469 0.00406467 5.50899e-18)
(-7.74177e-05 0.00131112 2.05752e-18)
(0.0240683 0.00154898 1.82508e-17)
(0.00447179 -0.00399477 9.68441e-18)
(-0.0260104 -0.00364851 -2.12642e-19)
(0.00054174 6.25764e-05 1.62784e-19)
(0.0146717 -0.0294971 3.35026e-17)
(0.019916 -0.00449128 -3.15375e-17)
(0.0346839 -0.00843819 1.54635e-18)
(0.0288931 0.000477566 1.45048e-19)
(0.000711378 0.000290352 -7.51273e-19)
(0.0273029 -0.0255014 -2.35242e-17)
(1.28672e-05 0.000672842 -1.22037e-19)
(0.000448925 -0.00206312 1.07498e-17)
(-0.00396347 0.00766644 2.43847e-18)
(-0.00383569 0.0079948 2.69668e-18)
(0.0313979 0.00130009 -3.49107e-17)
(-0.0018109 0.00632367 -3.36834e-17)
(0.000498989 -0.000693904 1.80483e-18)
(0.00637392 0.00372851 -2.45248e-17)
(0.0144217 0.00443036 3.6506e-17)
(0.00168564 -0.0145121 5.62009e-18)
(0.000343234 0.000683944 4.79062e-19)
(0.0285501 0.000674814 2.05404e-16)
(0.00479812 -0.00559235 -8.97474e-18)
(-0.00030786 -0.000572812 1.28182e-18)
(0.0213707 0.00405079 -2.49086e-17)
(0.00074827 -0.000535387 -4.32213e-18)
(0.0069955 -0.00516076 9.89647e-19)
(0.000907161 0.000228496 -9.47212e-20)
(0.000605227 -0.000763271 2.19764e-18)
(-0.0193504 -0.00679373 -2.28227e-17)
(-0.00593868 -0.00537269 -1.41794e-17)
(0.00199805 -0.00233042 3.66957e-17)
(0.0267451 -9.33962e-06 -1.78587e-16)
(0.011909 0.00460075 5.84263e-18)
(-0.00143284 -0.00118415 1.50342e-18)
(-0.0694876 -0.00609942 -3.78518e-18)
(0.000386966 0.000849031 -2.18081e-18)
(0.0103981 0.00480148 1.07756e-17)
(-0.00018149 0.00135231 -7.56165e-18)
(0.00266683 -0.00257989 -8.67207e-18)
(0.0272927 0.00299515 4.30758e-17)
(0.0122909 0.00449219 6.94533e-17)
(0.0268837 0.00475609 -5.87302e-17)
(-0.00681605 0.00695947 1.23299e-17)
(0.000903413 -6.0967e-05 4.73371e-20)
(0.0277275 -0.00204451 -4.40393e-18)
(0.0445914 0.00357893 3.47071e-17)
(-0.0136273 0.000165303 4.69321e-17)
(0.0294733 -0.00271074 2.90285e-18)
(-0.00188112 0.00473976 -5.5461e-19)
(-0.0022194 0.00498165 -4.74549e-17)
(7.73423e-05 0.000806013 -1.61501e-18)
(0.000858655 -0.000534707 -3.16825e-18)
(-0.00153224 -0.0132055 3.40873e-17)
(0.00101401 -0.000480053 -3.2298e-19)
(0.0134994 0.00432858 -2.48438e-17)
(0.00252563 -0.00263918 2.35288e-18)
(0.00125516 -0.00144775 -2.49221e-18)
(-0.00222226 0.00015281 1.00143e-18)
(0.00110032 -0.000370213 1.82466e-18)
(-0.0153763 -0.0168494 -6.74799e-18)
(-0.0080036 -0.0110923 -1.34506e-17)
(0.0213892 -0.0239459 3.91547e-17)
(0.0046041 -0.00397967 -9.17644e-19)
(0.00108394 -0.000289354 3.07443e-18)
(0.00139563 -4.62212e-05 -1.71799e-18)
(0.00533362 0.00235643 1.04657e-16)
(0.00577257 0.00381895 1.19567e-18)
(-0.00725231 0.00546731 5.30101e-17)
(0.00110048 -0.00109897 -4.29718e-18)
(0.000695017 -0.000450634 -1.90305e-19)
(0.0191047 -0.00554095 -1.23518e-17)
(-0.0179336 -0.0358826 -4.6271e-18)
(-0.00234824 0.00792435 8.17472e-18)
(0.00134697 -8.28206e-05 -4.01877e-20)
(-0.00698214 -0.00178612 1.21499e-17)
(0.0100477 -0.0105772 2.27959e-17)
(0.00519036 -0.0130495 -2.56183e-18)
(-0.00124293 -0.000929616 8.95498e-19)
(-0.00196342 -0.005098 -4.18997e-18)
(0.0275311 -0.00793035 5.11029e-18)
(-0.00707478 -0.0179658 1.87019e-17)
(-0.00983677 -0.00599198 -4.67732e-18)
(0.0256861 0.00484511 -6.32715e-17)
(-0.00168025 0.00610973 -4.76659e-17)
(0.012531 0.00447446 -2.6848e-18)
(-0.00126044 0.00387639 1.72551e-17)
(0.00538493 -0.0121742 -3.18333e-17)
(-0.0222527 -0.00591407 3.30939e-17)
(-0.000422098 0.00112464 -2.26993e-18)
(0.000326791 0.000873463 4.49137e-19)
(-0.00358383 0.00750886 1.13127e-17)
(-0.00133923 -0.00509708 -3.60395e-17)
(-0.000549058 -3.49218e-05 8.4209e-19)
(0.000811725 -0.000511652 2.78606e-18)
(0.0117402 0.00456519 3.52602e-17)
(-0.0510012 -0.0125908 4.49816e-18)
(-0.00779703 -0.00168511 -1.74101e-17)
(0.0297995 -0.00392293 -2.35688e-17)
(-0.0161609 -0.0162101 -1.21496e-17)
(-0.00860825 -0.0113953 8.16053e-18)
(-0.0152876 -0.0304429 -5.73989e-17)
(-0.000244271 0.00128911 5.11022e-18)
(-3.73546e-05 0.00111401 6.73155e-18)
(0.000723062 0.000226461 -2.14415e-19)
(0.0207794 0.00525729 3.24787e-17)
(0.00467329 -0.011479 1.0526e-17)
(0.0017952 -0.00311832 6.93991e-18)
(0.000389731 1.1396e-05 -6.71505e-19)
(-0.0841525 -0.0170365 4.31526e-18)
(0.000896085 -0.0130104 -4.13593e-17)
(0.0276507 -0.0076867 2.2446e-17)
(-0.00335337 -0.00190659 -4.67658e-17)
(-0.0470434 -0.0217323 3.84458e-18)
(-0.047182 -0.0229096 -7.82698e-18)
(0.0400665 0.00412821 3.27595e-17)
(-0.00215965 2.09333e-05 7.82078e-18)
(-0.00992409 -0.00684333 -1.80461e-17)
(0.000702338 0.000284767 -1.42608e-18)
(0.00124222 -0.00028245 3.24452e-18)
(-0.0047755 -0.0147742 -3.48074e-17)
(0.00127261 9.09274e-06 -9.57292e-20)
(0.0251859 0.00460476 5.04554e-17)
(-0.0454397 -0.0493154 2.49898e-17)
(0.0336101 -0.0116229 -5.16201e-18)
(0.00131345 -0.000307832 2.88564e-19)
(0.00467174 -0.00513847 1.5107e-17)
(0.0325882 -0.01054 -2.43609e-18)
(-0.00822005 -0.0355263 -1.61735e-17)
(-0.0073832 0.00716958 -2.37773e-18)
(-0.00216419 -0.000265263 -2.36983e-18)
(0.00509071 -0.0125352 3.04988e-19)
(0.0140162 0.00234649 -3.35878e-17)
(-0.0523974 -0.0129048 -9.71214e-18)
(0.0164122 -0.0281044 4.78557e-18)
(-0.000955565 0.00300312 -9.72627e-18)
(-0.000257787 0.0012111 4.16321e-18)
(0.00111793 -0.000575954 -4.34608e-19)
(-0.00331877 -0.00689461 3.03668e-17)
(0.00426742 -0.0115479 2.0348e-17)
(-0.00197829 -0.000214088 -3.57462e-17)
(-0.000201181 -0.00513364 -2.00003e-17)
(-0.000334852 -0.000128313 -4.56587e-20)
(0.0260626 -1.90006e-05 -1.45383e-17)
(0.0165329 -0.0272149 5.15494e-18)
(0.00119516 -0.00205531 -4.53808e-18)
(0.00101113 -0.00192584 8.51541e-18)
(-0.00207683 0.00646846 -4.87419e-17)
(-0.0212809 -0.00554822 2.94308e-18)
(0.0284323 0.00297895 5.0227e-17)
(0.0226103 -0.00318472 -2.5406e-17)
(0.00377805 -0.00966611 -6.36523e-18)
(-0.00220746 0.00693891 6.38122e-18)
(0.0307143 0.00299314 -4.3309e-17)
(-0.000513646 0.0019991 1.17943e-17)
(0.007611 -0.0103193 -1.81843e-17)
(-0.0267787 -0.0168586 1.12751e-18)
(-0.000319002 -0.00426662 -1.45053e-17)
(0.0234758 0.00393857 1.08443e-17)
(0.000619017 -0.000412509 4.534e-19)
(-0.0209647 -0.00576439 -3.17197e-17)
(0.000157737 8.1701e-05 1.85419e-18)
(-0.00663956 -0.00629866 3.15991e-17)
(-0.000696123 -0.000630239 1.75969e-18)
(-0.000220067 0.00111953 -1.11116e-18)
(0.0124153 -0.0401883 -1.44286e-17)
(0.00118191 -0.00215069 7.10607e-18)
(-0.00436153 0.0143476 -5.59122e-17)
(0.00109425 -0.000299646 7.13294e-19)
(0.00643766 -0.0301943 6.98922e-18)
(0.00314124 -0.00107681 -3.10657e-17)
(0.025741 0.00486218 1.36607e-17)
(-0.00118094 0.00285516 -9.73851e-19)
(0.0078441 -0.0102634 1.17582e-17)
(0.000139489 4.01126e-05 -2.42007e-18)
(-0.0031634 0.00726438 2.5895e-17)
(0.000750231 0.000380698 2.36099e-18)
(-0.00728874 -0.00599679 -1.6425e-17)
(0.00597052 0.00156907 3.11206e-17)
(-0.000952691 0.00292372 -1.16748e-17)
(-0.000287453 -0.00429851 7.09578e-18)
(7.42894e-05 0.00061879 -2.65758e-18)
(0.0237403 -0.00323922 -9.25669e-19)
(0.00101916 -0.000664805 1.12105e-18)
(0.023159 -0.00696391 -3.78747e-17)
(0.024286 -0.00207894 3.03808e-18)
(-0.0127437 -0.000219305 -1.69642e-17)
(0.000194664 1.10128e-05 6.88934e-19)
(-0.0116572 0.00169146 8.54516e-18)
(0.025265 -0.00036077 3.41958e-17)
(-0.0825353 -0.0242996 -3.90427e-18)
(0.0223044 0.00306914 -1.26433e-17)
(-0.000510407 -0.00880441 -4.97024e-18)
(-0.00373002 0.00841525 2.99014e-17)
(0.00863184 -0.0367362 -1.01958e-17)
(0.00504737 -0.00491976 -1.09899e-17)
(-0.00680233 0.00664237 -2.16688e-17)
(-0.0025947 -0.000383381 4.96789e-18)
(-0.0513008 -0.00258628 -2.89275e-18)
(-0.00294586 -0.0278921 -1.85937e-18)
(0.00182369 -2.13754e-05 -4.93952e-19)
(0.0010179 -0.00560624 -4.99035e-18)
(0.0278426 -0.000746093 1.54684e-17)
(-0.0838443 -0.0159226 -4.83118e-18)
(-0.0882856 -0.00403869 -4.09909e-19)
(0.000910987 -0.000546018 8.4445e-19)
(-0.00196463 0.00806682 -1.479e-17)
(0.000269814 0.000818432 1.11581e-18)
(0.0177578 -0.0335108 1.59606e-17)
(-0.0151142 -0.0337968 9.66014e-18)
(0.0010892 -0.00580358 -6.07835e-18)
(0.00153926 -0.0135184 3.4929e-17)
(-0.00563745 -0.0281624 -3.685e-18)
(0.000559512 0.000463498 -1.6625e-18)
(-0.00217464 0.00494986 2.99091e-17)
(0.0251123 -0.00891202 1.35521e-17)
(-0.0436193 -0.0311061 -5.64512e-17)
(0.000531813 0.000564678 3.87331e-19)
(-0.000261248 0.0011344 -1.08541e-19)
(-0.00101979 0.00296967 8.21042e-19)
(-0.0320859 -0.0229687 -3.09943e-17)
(0.00592496 0.0024742 1.45513e-17)
(0.00258288 -0.0131799 1.06053e-17)
(0.00102967 -0.00116079 3.35257e-18)
(-0.0125143 -0.036948 -4.39475e-17)
(-0.0145924 -0.0320897 -4.21984e-19)
(0.0177681 -0.0236882 -3.22523e-17)
(0.000762507 -0.0131428 -3.30082e-17)
(-0.027227 -0.021012 1.97559e-17)
(0.0438949 0.00291162 2.05936e-17)
(0.000694537 -0.00602872 -3.26307e-18)
(0.00333833 -0.00860903 2.51476e-17)
(0.0300987 -0.00531717 -5.28803e-17)
(0.00119028 -0.000652224 1.35941e-18)
(0.000764809 0.000204661 -5.03131e-19)
(0.0172799 -0.0248688 1.03228e-17)
(-0.00843145 -0.00411672 -1.38547e-17)
(0.000971418 -0.000735688 -8.8882e-18)
(0.00024332 7.56394e-05 -1.36645e-18)
(0.000864432 0.000394069 -1.20715e-18)
(0.00184628 6.85205e-06 -2.19649e-19)
(0.00176091 -0.00890751 3.12345e-17)
(0.000795124 0.000220753 1.10547e-19)
(-0.0309211 -0.0177925 -1.18495e-17)
(0.00142723 -0.0124222 1.34514e-17)
(0.00104063 -0.000199516 -1.38638e-19)
(-0.0843112 -0.0148983 3.44466e-19)
(0.019415 -0.00480166 1.98552e-17)
(-0.000159438 0.00125809 7.17218e-18)
(0.00749504 -0.0310189 -1.35154e-17)
(0.0446399 0.00384468 -6.19032e-17)
(-0.000520171 0.00114558 3.2245e-18)
(-0.000294073 0.00137666 -1.25659e-17)
(0.00202388 -0.013006 -2.505e-17)
(0.00915045 -0.000976302 9.50424e-17)
(0.0116659 0.00409322 5.27059e-17)
(-0.00307979 -0.017165 9.71474e-18)
(0.00159188 1.09246e-05 -1.00488e-19)
(-0.0128733 -0.00820429 -5.6024e-18)
(0.000670994 0.000296384 1.25896e-18)
(-0.00402392 -0.0178931 3.1262e-17)
(0.0432296 0.00380691 4.82674e-17)
(-0.0464096 -0.0332515 3.16589e-17)
(0.00177958 -0.00308052 2.17504e-17)
(0.0316078 -0.00727978 3.21588e-17)
(0.0206664 -0.00918226 2.95311e-17)
(0.0137237 0.00456891 1.85655e-17)
(-0.0155384 -0.0149512 -4.27368e-17)
(-0.00157196 0.0049801 -4.76212e-17)
(0.0231114 0.00493568 -3.90437e-18)
(0.0167309 -0.00751401 4.04439e-17)
(-0.0354366 -0.0233015 -8.07403e-17)
(0.000945237 -0.00200841 -8.18998e-18)
(0.0162028 0.00387207 3.8328e-17)
(-0.0540742 -0.00648781 7.32168e-19)
(-0.00373422 0.0114895 5.27782e-17)
(-0.00400408 0.01139 -4.39149e-17)
(-0.000601173 0.00200385 -7.62921e-18)
(-0.00492942 -0.0160264 1.18099e-17)
(-0.00174518 0.00216378 -3.47196e-18)
(-0.0712284 -0.00474179 1.27914e-18)
(-0.00225933 0.00543563 1.63479e-17)
(0.00168273 -1.75474e-05 -1.51725e-18)
(-0.000230082 -7.99198e-05 6.05584e-18)
(-0.00157961 -0.00278167 1.51074e-17)
(0.0144304 0.0045245 -4.05383e-17)
(-0.00434138 0.0143856 3.35784e-17)
(0.000985375 -0.000650856 -5.02465e-19)
(0.0270067 0.00480831 3.44999e-18)
(-0.00168869 0.00241517 1.00265e-17)
(-0.00258532 -0.00499983 9.52745e-18)
(0.00198216 -0.00313374 -4.92845e-18)
(0.00830321 0.00018 -1.17087e-16)
(-0.00672606 -0.0366629 5.42157e-17)
(0.0256252 0.000777585 7.55325e-18)
(-0.000546332 -0.000578644 4.02629e-18)
(3.42556e-05 -0.00413935 6.02046e-18)
(-0.0949471 -0.00898152 -1.38663e-18)
(-0.000313877 0.00121118 -9.20628e-18)
(-0.0190861 -0.0312736 -4.2679e-18)
(0.00111982 -0.00592382 1.02539e-17)
(0.00157121 -0.0130371 1.81973e-17)
(-0.00184995 0.00247155 1.21927e-17)
(0.000309734 0.000840376 -1.96604e-18)
(0.000857839 -0.000223301 2.38442e-19)
(-0.0145209 -0.00785048 -6.46707e-17)
(-0.0144967 8.5572e-06 -5.98971e-17)
(-0.00178456 -0.0286944 -5.16532e-17)
(0.0287714 -0.00968722 -5.44059e-17)
(-0.0950029 -0.00981755 1.41607e-18)
(-0.000575725 -7.13477e-05 -9.71936e-19)
(0.0255291 -0.00218191 4.6367e-18)
(0.0244511 -0.0387176 -5.55754e-17)
(0.000723026 -0.000890782 -3.23678e-18)
(-0.0459329 -0.0329154 -4.93185e-17)
(0.0054415 -0.0237845 2.78674e-17)
(0.0432047 0.00342851 -3.7972e-17)
(-0.00151273 -0.00273285 -1.11431e-17)
(0.013736 -0.000301183 1.09541e-17)
(0.056204 -0.00369156 -1.9731e-18)
(0.0177467 -0.00548853 7.24731e-17)
(-0.0156638 -0.00661746 -1.42348e-17)
(-0.0631641 -0.00485525 8.70037e-18)
(0.000724272 -0.00218988 -3.32776e-18)
(-0.0577919 -0.0511033 -2.71314e-17)
(0.0138254 0.00316835 -2.77325e-17)
(-0.000219594 -0.00750407 -3.43163e-18)
(-0.0504613 -0.00416928 1.76933e-17)
(-0.000674798 -0.00817069 7.55227e-18)
(0.0221609 -0.00156435 -5.49894e-17)
(0.00356544 -0.00852427 -4.5664e-17)
(0.00626875 -0.00288344 1.17958e-17)
(-0.00852845 -0.0265249 -5.26457e-17)
(-0.01676 -0.000910518 3.16657e-17)
(-2.81755e-05 0.00110873 -3.69364e-18)
(0.000222082 -0.00555561 -2.7921e-18)
(-0.00834748 -0.00408015 7.11238e-18)
(0.00492698 -0.00544233 1.4725e-17)
(0.000910093 -0.000231412 6.23997e-19)
(0.00261687 -0.0134373 -2.53219e-19)
(-0.0331622 -0.0276004 5.28711e-17)
(0.000311217 0.00065485 2.236e-18)
(0.00715761 -0.0108846 -2.47356e-17)
(0.00465111 0.00215825 -3.34152e-17)
(0.000345428 -0.00363984 -3.88199e-18)
(0.0061857 0.00042337 3.37167e-17)
(0.00839576 -0.0058225 -9.40034e-18)
(0.0117198 0.00391189 -3.15906e-17)
(-0.000352142 -0.0044072 -3.31859e-18)
(0.0128886 -0.00350288 -4.04981e-18)
(-0.00327452 0.0117731 -1.10649e-17)
(-0.0178764 -0.0340809 -1.03472e-17)
(-0.00318201 -0.0125719 -2.1713e-17)
(-0.0886623 -0.0034715 -8.24506e-19)
(0.0266624 0.000799209 -3.42286e-17)
(-0.0177549 0.00575832 -3.56591e-17)
(0.000515268 0.000492877 3.69429e-18)
(-0.0119332 -0.00840946 5.49589e-17)
(-0.0015397 -0.00789464 3.72925e-18)
(0.0138729 -0.0010578 -1.03382e-17)
(0.00100259 -0.00103321 -2.71503e-18)
(0.0113619 0.0021912 -1.86118e-17)
(-0.0205511 -0.020638 2.61082e-17)
(0.01285 -0.00419744 6.58279e-17)
(9.45154e-05 -0.00415176 1.60268e-18)
(-0.0066786 -0.0272756 6.5917e-17)
(0.00477049 -0.0361093 -1.91346e-18)
(0.0059534 0.00242992 -1.56848e-18)
(0.000403116 -0.00052708 -2.17921e-18)
(0.0172718 0.00353464 -6.29299e-17)
(-0.0192482 -0.00213464 -4.84815e-17)
(0.0150789 -0.00626506 3.20265e-17)
(-0.00298719 -0.000397196 -5.96819e-18)
(-0.0211443 -0.0128794 2.08082e-17)
(0.0001439 0.000961082 1.26443e-18)
(0.00130426 7.76561e-06 7.64683e-20)
(-0.0279453 -0.00256411 2.59344e-17)
(-0.00636209 -0.0402944 -1.04994e-17)
(0.000113921 0.00090785 -2.32212e-18)
(0.000908647 -0.00430782 -4.72569e-18)
(0.00733642 -0.0112107 1.79216e-17)
(0.0012095 -0.000216232 -5.2674e-19)
(-0.0268257 -0.0228039 4.13543e-19)
(-0.00460707 -0.0165542 7.66673e-18)
(0.0050308 -0.0233491 -2.24432e-17)
(0.00189488 -0.00494088 2.80424e-18)
(0.000888286 -0.00225115 3.91666e-18)
(-0.000266482 0.00136129 2.98752e-17)
(0.0188861 -0.00667402 -3.56115e-17)
(0.000977179 -0.000127072 9.48788e-21)
(-0.000255599 0.00134665 -1.94807e-17)
(-0.0798071 -0.0253822 -2.04981e-18)
(-0.0350301 -0.028046 -4.96445e-17)
(-0.000977159 -0.000853601 2.77863e-19)
(0.0568722 -0.00420025 -1.17555e-17)
(-0.000102908 0.000661906 2.95107e-18)
(0.000862245 0.000199283 1.09774e-18)
(0.000145216 -0.00378507 -5.59445e-18)
(-0.00236322 -0.0289778 4.40965e-17)
(0.0084252 -0.00464725 -1.47222e-17)
(0.000731243 -0.000224963 -1.00121e-18)
(0.00086536 -0.00293339 -1.90072e-18)
(-0.00779036 0.00543618 -6.47916e-18)
(0.000816598 -0.00360388 -1.66451e-17)
(0.0118556 0.0032181 -7.8374e-18)
(0.000754554 0.000266125 5.45465e-19)
(0.0034896 -0.00469809 1.7511e-17)
(-0.0784436 -0.0238297 6.50284e-19)
(-0.0026543 0.0029594 -1.6144e-17)
(0.000370463 -0.000105059 3.66185e-18)
(0.000650154 0.00029757 -2.90039e-18)
(0.00105516 -0.00492024 -5.21195e-19)
(0.00106006 -0.00223793 2.13812e-18)
(-0.013729 0.00741534 -1.1196e-17)
(-0.0886116 -0.0245409 4.37157e-19)
(0.000288256 -0.00904044 1.1647e-17)
(-0.00719219 0.0199238 -1.69363e-17)
(0.000202949 -0.00394906 4.42392e-18)
(0.00071542 0.000427606 7.68606e-19)
(-0.000527021 -0.0147929 1.66857e-17)
(0.0536723 -0.00572836 6.53228e-18)
(-0.00205768 0.00367326 1.28843e-18)
(0.000290544 0.000568484 -7.22759e-19)
(0.0167422 -0.0071133 -3.86224e-17)
(-0.00146137 0.00382689 -2.12533e-17)
(0.00586053 0.0053388 4.43587e-17)
(0.000134521 0.000832402 4.83937e-19)
(-0.00252029 -0.00544966 2.33989e-17)
(-0.0145315 -0.0071519 1.37766e-17)
(0.00545123 -0.00699283 1.77135e-18)
(0.0142103 -0.00898514 -2.00005e-17)
(-0.00289476 -0.036396 -4.98955e-18)
(0.0121022 -0.00520565 -5.53936e-17)
(-0.000942448 0.00106742 -6.27772e-18)
(-0.0163893 -0.015442 5.59586e-17)
(0.000558448 0.000403458 -2.60186e-18)
(-0.0813282 -0.0167618 -6.99746e-18)
(0.00803275 -0.00606718 4.83667e-18)
(0.0175159 -0.0268296 -3.40062e-18)
(-0.000671117 -0.00789076 -1.07594e-17)
(-0.000542646 -0.000642939 -3.52663e-18)
(-0.00266041 0.00266545 -9.66134e-19)
(-0.0047112 -0.0153776 4.21034e-17)
(0.00145468 1.09873e-05 -2.95373e-20)
(0.00854068 0.00304489 8.95979e-17)
(0.00293181 -0.0130344 -6.57803e-19)
(0.012306 0.00345698 3.62102e-17)
(0.00203524 0.00209673 4.03397e-18)
(-0.0865346 -0.0259551 -8.28601e-18)
(0.0265424 0.00428724 -6.13205e-18)
(-0.0196096 -0.0326857 -1.63808e-18)
(-0.00121465 0.00264264 1.54257e-18)
(0.000216467 0.000210987 3.04119e-18)
(0.017377 -0.00158645 -2.59795e-17)
(2.6942e-05 0.000893811 4.46704e-19)
(0.00070541 -0.000198169 -4.9149e-19)
(-0.00156672 0.00287735 1.88241e-19)
(0.024813 0.00448553 -4.05854e-18)
(0.000775492 -0.004177 1.90627e-19)
(-0.000414319 0.00125853 -4.3862e-18)
(-0.0062752 0.00364182 1.56238e-17)
(-0.00588064 -0.0106707 -3.03485e-18)
(-8.09219e-05 0.000965649 -3.78907e-18)
(0.00784077 0.0022245 -2.85363e-17)
(0.000671041 3.71344e-05 -2.73619e-20)
(0.00429352 -0.0134943 3.0556e-17)
(-0.0177255 0.00748077 -9.775e-18)
(0.000858833 0.000207354 -7.90161e-19)
(0.00141334 -0.00361345 2.01926e-17)
(-0.0197888 -0.00362144 -4.66225e-17)
(-0.0447334 -0.031091 6.19653e-17)
(0.000951501 -0.000703971 -1.62864e-18)
(0.0233566 -0.00299828 6.82502e-17)
(0.025403 -0.00959786 3.30362e-17)
(0.000758978 -0.000901028 3.40268e-18)
(0.0168625 0.00494127 -5.80442e-17)
(-0.0269209 -0.0283754 -3.49988e-17)
(0.00474956 -0.0301721 6.91849e-18)
(-0.000857178 0.00109782 1.28634e-18)
(-0.0774506 -0.0266893 7.67612e-18)
(0.0388853 0.00181298 2.31951e-17)
(0.000598153 -0.000942607 -3.372e-18)
(-0.0177021 -0.019287 -2.35796e-18)
(0.000492068 -0.000554623 -5.41373e-19)
(0.000708031 7.4764e-06 2.42105e-20)
(-0.0339813 0.00380391 -3.44625e-18)
(0.0219958 -0.00121864 1.5476e-17)
(-0.00271534 -0.00923576 3.73347e-17)
(0.00802833 -0.0043813 8.86204e-18)
(-6.66153e-06 0.000912866 7.07368e-18)
(0.0124444 -0.00684021 -1.0808e-18)
(0.00689624 -0.0116063 -2.55914e-17)
(0.0222719 0.00505229 2.51272e-18)
(0.000887432 -0.00125892 2.6819e-18)
(0.0242994 0.00384401 -1.13058e-16)
(0.00107346 -0.000204731 6.81583e-19)
(0.000385863 -0.000615798 -6.56569e-19)
(-0.00207292 -0.0129521 3.01544e-17)
(0.00364264 -0.00385458 -9.5658e-18)
(0.000439808 -0.000523264 3.44339e-18)
(-0.000259616 -0.000477157 1.85589e-19)
(0.0170276 0.0050414 -2.95869e-17)
(-0.0164474 -0.00139943 4.30378e-17)
(0.01775 0.00494546 9.75824e-17)
(0.00111192 -0.00397536 3.80547e-18)
(0.000329775 0.000806326 3.73591e-18)
(-0.0387987 -0.0242173 1.91475e-17)
(0.000473112 0.000284295 -3.51514e-18)
(-0.0135662 -0.00919504 2.86434e-17)
(0.00256236 -0.00548734 -1.09947e-17)
(0.00472002 -0.0060789 -1.39136e-17)
(-7.83138e-05 -0.0086383 -8.62916e-18)
(-0.0872151 -0.0270521 1.14466e-19)
(0.0427368 0.00267443 -7.85708e-17)
(0.000181405 -0.00522114 9.54103e-18)
(0.0151677 0.00354482 5.09813e-17)
(0.00167662 -0.00300435 1.04216e-18)
(-0.0062522 -0.0144839 -2.48662e-17)
(-0.0843457 -0.0206649 -6.46118e-19)
(-0.0262625 -0.0061628 -4.32458e-18)
(0.000591694 -0.000246856 -1.35635e-20)
(0.000553798 0.000441662 -6.64979e-19)
(-0.00224908 0.00496491 6.18292e-17)
(0.0178869 0.00494701 3.23889e-18)
(0.0350073 0.00397582 4.39463e-18)
(0.0118776 -0.00649126 1.6857e-19)
(0.0137432 -0.00127745 -7.42157e-18)
(0.00355152 -0.00379261 3.28598e-18)
(0.00313816 -0.00802513 1.28207e-17)
(0.0084309 0.000262073 -1.67972e-17)
(0.00907397 0.00258032 -3.59257e-17)
(-0.00679362 0.00513066 -1.7646e-17)
(0.00500452 -0.0131668 -3.75326e-17)
(0.0269878 -0.0266687 1.15552e-17)
(-0.0940161 -0.0145691 -2.24823e-20)
(0.000656941 -0.00192638 -4.20218e-18)
(0.030591 -0.00764736 3.39063e-18)
(-0.0221262 -0.0150231 9.38119e-18)
(0.000686931 0.00042677 1.60567e-20)
(0.0398486 0.00426163 -9.2346e-17)
(0.00817357 0.00262003 5.38417e-18)
(-0.00198284 -0.000178267 -8.87646e-18)
(0.00547966 -0.0125866 3.89543e-17)
(0.000449763 0.000247608 -3.84109e-19)
(-0.00465085 0.0127178 1.35246e-17)
(-0.00938696 -1.22145e-06 4.12871e-18)
(0.0248621 -0.00658023 2.64879e-17)
(0.000758118 -0.000105259 5.3337e-19)
(0.000944118 1.08911e-05 -6.8374e-20)
(-0.000817225 0.00260647 6.06542e-18)
(-0.00574307 -0.0102421 7.84129e-18)
(0.00089473 0.000249888 2.68598e-19)
(0.0262748 0.00453788 1.19027e-17)
(0.000973458 1.32138e-05 5.91831e-20)
(0.0245006 -0.0269517 1.32607e-18)
(-0.0010346 0.00125483 -5.88253e-18)
(0.0145876 -0.00126662 -4.32292e-18)
(0.000239403 0.000759132 -1.75154e-18)
(-7.79646e-05 0.000978517 6.32954e-18)
(-0.00527431 -0.000609462 2.26433e-18)
(0.0245175 0.00395004 4.78204e-17)
(-0.00350228 -0.0121386 -8.60749e-18)
(0.027047 0.00479759 5.95014e-18)
(-0.00206133 -0.00542247 -1.94487e-17)
(0.00113345 -0.000230468 4.93675e-19)
(0.000857663 -0.00110082 -3.03263e-18)
(-0.00538292 -0.0147989 7.01788e-18)
(0.000792311 -0.00283716 9.77913e-18)
(-0.0120878 -0.0144586 -7.13669e-18)
(0.000886186 -0.00458397 -1.15032e-17)
(-0.00192686 0.00361819 1.54606e-19)
(0.0450535 -0.00230614 -1.80885e-17)
(0.000113004 0.000297978 -2.33514e-18)
(-0.0915191 -0.00249684 -8.57459e-18)
(0.000135898 5.4164e-05 -3.54061e-19)
(0.0163206 0.00133748 -1.07994e-17)
(0.0146684 0.00353708 1.75308e-17)
(-0.0641255 -0.0256118 1.28401e-17)
(-0.000656241 0.00305107 1.89071e-17)
(0.0290309 -0.00901135 -2.81929e-17)
(-0.00588616 0.00368 9.75346e-18)
(-0.0134103 0.00265394 -6.1284e-17)
(0.00893828 0.00274365 -7.02222e-18)
(0.00109278 -0.0014381 -3.73577e-18)
(0.00867995 0.00298415 5.61697e-18)
(-0.0016419 0.00229453 -1.049e-17)
(-0.000631802 -0.00778597 6.51796e-18)
(0.00273891 0.00229377 -3.06415e-17)
(-0.00335637 -0.00953737 -2.73603e-17)
(0.000599944 -0.000918779 -2.05771e-18)
(-0.0114745 -0.0140476 -7.75891e-18)
(0.00120831 -0.00198975 -7.87602e-18)
(-0.0921271 -0.0133211 -1.58071e-19)
(0.0382301 0.004464 -1.28115e-17)
(0.000785684 -0.000930979 2.19626e-18)
(-0.00196655 0.00649137 3.84301e-17)
(-0.0201115 -0.0181174 9.59175e-18)
(0.000239142 5.72807e-05 1.48654e-19)
(0.000255225 8.62266e-05 3.304e-19)
(0.0138988 -0.0029153 1.21408e-17)
(-0.0916105 -0.00210149 9.37617e-18)
(-0.0656123 -0.0252242 -6.33396e-18)
(-0.000240174 0.00134459 7.38187e-18)
(-0.00957983 -0.025438 -3.11099e-17)
(0.00086653 -0.00345146 -6.14687e-19)
(2.26529e-05 0.00101128 -1.81795e-18)
(0.0501494 0.00270878 -3.40702e-18)
(-0.00982837 -0.0262884 2.53956e-17)
(-0.0137643 -0.000761161 2.71471e-17)
(0.000463286 -0.000439124 -2.37604e-18)
(0.0249326 -0.00987896 -2.07977e-17)
(-0.00290558 0.00413619 -2.61517e-17)
(0.0116913 -0.00331012 7.05116e-18)
(-0.000401097 0.0016222 1.65811e-18)
(-0.000227236 -7.97499e-05 1.87486e-20)
(-0.0083488 -9.02988e-05 -7.30871e-18)
(-0.000786718 0.00255596 -1.67966e-17)
(0.0263186 -0.00793731 5.8745e-18)
(0.0020993 -0.0141637 -3.01046e-17)
(0.00112545 -0.014177 3.91951e-17)
(-0.00692712 0.00496165 8.04766e-18)
(-0.00585033 0.0108471 -1.54142e-17)
(-0.0257857 -0.026473 7.28942e-19)
(-0.060947 -0.0369569 1.22177e-17)
(0.0231141 -0.00423802 -5.31381e-17)
(0.0284571 -0.00442049 1.62922e-17)
(-0.00133296 -0.00505858 -1.80957e-17)
(-0.00344825 0.00135975 -8.29001e-19)
(-0.048996 -0.00180156 3.91108e-18)
(0.00512275 -0.0310478 1.54221e-17)
(0.00133216 -0.00132619 6.23421e-18)
(0.00315376 -0.00779547 5.48583e-18)
(-0.0200788 -0.0278201 1.58169e-17)
(-0.0012294 -0.00202239 2.53295e-17)
(0.00089924 0.000221336 -1.09588e-18)
(0.000923185 0.0001907 -1.39924e-19)
(0.0179702 0.000230863 -3.27526e-18)
(-0.0681339 -0.00393241 5.39054e-18)
(0.00346687 -0.00493059 -1.4947e-18)
(0.0268542 -0.00120844 -3.12539e-17)
(0.00110816 -0.000223588 -9.33522e-19)
(-0.0742108 -0.0290871 6.58524e-18)
(-0.00477404 0.00584957 3.04076e-18)
(0.0449327 0.00391149 1.13102e-17)
(-0.0116069 -0.0132621 8.02777e-18)
(-0.000712736 -0.00453842 1.18588e-18)
(0.000748352 -0.00429231 -5.38917e-18)
(0.0434687 0.0038823 -3.7566e-17)
(-0.014202 -0.00114533 -1.88874e-17)
(-0.00310609 0.00114963 2.79157e-18)
(-0.0168862 -0.0417496 1.07754e-17)
(0.000862484 -0.00218169 1.81982e-18)
(0.0134458 -0.00355249 -3.61444e-17)
(0.0172746 0.000743066 -1.68992e-18)
(0.0234628 -0.0285961 1.75721e-17)
(-0.00233953 -0.00689288 7.59167e-18)
(-0.0167799 -0.00404994 1.16264e-18)
(7.69226e-05 0.000940523 -1.09501e-17)
(0.000141888 6.55841e-05 -4.44548e-19)
(-0.000458427 0.00193147 6.16115e-19)
(-3.6966e-05 0.00103134 -1.37108e-18)
(-0.0806597 -0.0205675 2.58505e-18)
(0.00183716 8.55045e-06 -2.83429e-19)
(0.0560386 0.00617905 -1.30189e-18)
(-0.033075 -0.022173 -2.90984e-17)
(-0.0118396 -0.0131247 2.11306e-17)
(0.0222629 0.00499543 -5.38319e-17)
(0.0437238 0.00338602 8.7524e-17)
(0.0224759 -0.0299456 -2.40108e-17)
(-0.0145962 0.00252268 6.37234e-17)
(-0.000683574 0.00299852 -5.65365e-18)
(0.00014678 0.000357087 4.20353e-18)
(-0.000234851 0.00110395 6.75167e-18)
(0.000810584 -0.000498562 5.57205e-18)
(0.000929336 -0.00106982 2.59538e-18)
(0.00106621 1.21704e-05 -6.67724e-20)
(-0.00618975 -0.015399 -7.74252e-18)
(-0.0145405 -0.0181015 -2.85396e-17)
(-0.00301047 0.00433837 1.78071e-17)
(-0.0377096 -0.0259404 2.50103e-17)
(-0.000487771 -0.000776475 3.61033e-18)
(-0.0276749 -0.0160236 2.66755e-18)
(3.34971e-05 1.86131e-05 -1.29044e-18)
(0.0048463 0.00227402 -1.66085e-17)
(-0.00550088 -0.00470137 5.27311e-18)
(0.000119145 3.99206e-05 1.69349e-18)
(5.34848e-05 0.000564358 6.97475e-19)
(-0.0583631 -0.024726 -8.76477e-19)
(-0.000199258 -0.00500541 4.7218e-18)
(-0.0783679 -0.0438581 2.94803e-18)
(0.00715815 0.00228116 -3.05645e-17)
(0.00602677 -0.0117033 4.74415e-18)
(0.00379298 -0.0189652 2.47634e-18)
(0.000540713 -0.00084161 2.80603e-18)
(-0.00344605 -0.0161856 -4.81053e-17)
(-0.000880805 0.000799965 3.52343e-18)
(0.000809738 -0.00427244 9.88067e-20)
(0.0430655 -0.0014647 1.69687e-17)
(0.00023149 0.000360182 -1.17888e-19)
(-0.000430835 0.00116628 3.86159e-18)
(0.000869826 -0.00140019 -8.45527e-18)
(0.00809898 -0.00687656 -1.25068e-17)
(-0.0584495 -0.00309233 -7.05406e-18)
(-0.00217276 -0.00499657 7.78296e-19)
(-0.00264601 -0.00730445 2.27443e-17)
(-0.0196354 -0.00115516 4.11202e-17)
(0.0234836 0.00501022 -3.98933e-17)
(-0.00112336 0.00304442 -1.20367e-18)
(-0.00141322 0.000966946 1.36277e-18)
(-0.090281 -0.0191216 -4.00131e-19)
(0.00081111 -0.000479478 -2.02559e-18)
(-0.0905112 -0.0177619 5.14954e-19)
(0.0006143 2.9371e-05 -2.55446e-19)
(0.000947445 -0.00368043 3.42261e-17)
(0.00480023 -0.00573915 -6.27683e-17)
(0.0156207 -0.0143743 -5.79484e-18)
(0.0202244 -0.0242816 -3.92578e-17)
(-0.0120922 -0.00647131 1.73943e-17)
(-0.0038905 -0.0125497 -1.36476e-18)
(-9.39126e-06 0.000198209 -1.82463e-18)
(1.09032e-05 1.6611e-05 1.22566e-18)
(-0.00765647 -0.0148622 7.59062e-17)
(0.000691812 -0.002031 6.14415e-18)
(-4.61308e-05 0.000169816 7.09449e-19)
(0.0035716 -0.00452234 -1.47347e-17)
(-0.0169293 0.000915631 -2.19328e-17)
(0.00121225 6.27103e-05 5.89319e-19)
(-0.0119064 0.00297993 -2.55523e-17)
(-0.00305122 -0.00346803 -3.69929e-17)
(-0.0717473 -0.0405022 -1.99739e-17)
(-0.0116486 -0.00690786 1.24329e-17)
(0.00804262 0.00479321 -4.0134e-17)
(-0.00148564 0.00405026 2.12798e-17)