/*--------------------------------*- C++ -*----------------------------------*\
| =========                 |                                                 |
| \\      /  F ield         | OpenFOAM: The Open Source CFD Toolbox           |
|  \\    /   O peration     | Version:  v2012                                 |
|   \\  /    A nd           | Website:  www.openfoam.com                      |
|    \\/     M anipulation  |                                                 |
\*---------------------------------------------------------------------------*/
FoamFile
{
    version     2.0;
    format      ascii;
    class       surfaceVectorField;
    location    "500";
    object      Uf;
}
// * * * * * * * * * * * * * * * * * * * * * * * * * * * * * * * * * * * * * //

dimensions      [0 1 -1 0 0 0 0];


internalField   nonuniform List<vector> 
20580
(
(1.26071 0.112844 0)
(1.26435 0.11817 0)
(1.25618 0.116773 0)
(1.09707 -0.0213519 0)
(1.09785 -0.0230104 -3.84502e-21)
(1.09983 -0.0211824 -5.55076e-22)
(1.096 -0.0189283 0)
(1.09407 -0.0208618 0)
(-0.196557 0.0182349 -2.74732e-20)
(-0.178192 0.0160056 5.55194e-20)
(-0.195711 0.0173147 0)
(1.00253 -0.000650372 1.37361e-22)
(1.00227 -0.000600209 -5.85117e-24)
(1.00237 -0.000357683 -1.08806e-22)
(1.11358 -0.0417297 -1.27053e-20)
(1.11311 -0.0449035 3.58809e-21)
(1.11014 -0.042974 0)
(1.06991 0.0349482 -6.87197e-22)
(1.07024 0.0367759 5.23049e-21)
(1.01621 -0.000961229 1.23139e-21)
(1.01587 -0.000993923 -5.21356e-22)
(1.01509 -0.000617777 2.59388e-21)
(-0.00555738 0.0589319 -1.89271e-20)
(0.00368002 0.060643 0)
(-0.0333427 0.0533762 0)
(0.991216 -0.0145201 -1.18297e-20)
(0.99158 -0.0136385 4.78721e-21)
(0.992034 -0.0141622 -1.1925e-20)
(1.20584 -0.145884 1.45781e-20)
(1.19968 -0.143953 1.56872e-20)
(1.20153 -0.150815 -1.36664e-20)
(1.00186 -0.0104497 1.14623e-22)
(1.00209 -0.0108624 -1.33773e-22)
(1.00193 -0.0109924 1.2105e-21)
(0.981879 -0.0296682 2.09885e-21)
(0.981572 -0.0307625 -2.97543e-21)
(0.982782 -0.0301447 -3.12222e-21)
(-0.289536 0.00674289 8.01762e-20)
(-0.307756 0.00458228 -1.94992e-20)
(-0.280272 0.00967642 2.20203e-20)
(1.14845 0.0383791 -6.64034e-21)
(1.15206 0.0385946 2.09193e-20)
(1.14961 0.0351909 -2.07945e-20)
(1.0884 0.173275 3.20274e-21)
(1.08506 0.171269 5.07936e-22)
(1.08538 0.176607 2.80826e-21)
(-0.321011 0.0103475 0)
(-0.332635 0.0130507 -1.08761e-19)
(-0.32959 0.0143716 7.8898e-20)
(1.04545 -0.0200267 8.61324e-21)
(1.04662 -0.0198863 3.80132e-21)
(1.04633 -0.0211731 -3.44346e-21)
(1.26328 0.00736114 3.34063e-20)
(1.26023 0.00263929 -7.45426e-20)
(1.17818 0.00902454 3.70462e-20)
(1.26496 0.10769 3.84038e-20)
(1.25688 0.108049 3.26192e-20)
(1.17468 0.0249752 -5.09624e-20)
(1.17252 0.0213508 -1.5802e-20)
(1.16984 0.0255185 1.78971e-20)
(1.05483 -0.112903 6.99237e-21)
(1.05082 -0.11319 5.39133e-21)
(1.05294 -0.109104 4.14621e-21)
(0.4748 -0.240403 -9.62222e-20)
(0.341581 -0.177037 -4.22273e-20)
(0.210556 -0.118161 -4.40986e-20)
(1.00006 -0.000230356 4.05435e-23)
(1.0001 -0.000305687 -7.96654e-22)
(1.00007 -0.000193784 0)
(0.646827 -0.0375916 -2.69152e-21)
(0.633962 -0.0377476 3.99386e-20)
(0.54661 -0.0319432 -2.26453e-21)
(1.10551 0.119828 -2.58041e-22)
(1.10398 0.122229 2.20536e-21)
(1.10727 0.122394 -1.03575e-21)
(1.18454 0.246026 -3.24648e-20)
(1.1659 0.24456 1.21377e-20)
(1.169 0.247564 -2.5245e-20)
(0.725124 0.0508906 -1.52146e-20)
(0.739476 0.0545363 5.47786e-21)
(0.660955 0.0494082 -8.13843e-20)
(0.316674 0.100361 8.50495e-23)
(0.284589 0.0926306 4.43465e-21)
(0.265219 0.0896732 -2.46757e-21)
(1.02652 -0.0133971 2.61741e-21)
(1.02613 -0.0139964 -2.3234e-21)
(1.02569 -0.013201 -3.74981e-22)
(-0.128039 0.00192461 4.76042e-20)
(-0.149254 0.00236736 4.80058e-23)
(-0.117983 0.000497766 2.97587e-20)
(1.07134 0.0344266 1.16174e-20)
(1.06947 0.0335923 1.18918e-20)
(1.24437 0.129819 3.01558e-21)
(1.23989 0.134138 -2.91781e-20)
(1.23825 0.126271 -3.37484e-20)
(0.0290918 0.0437064 0)
(0.0189225 0.0415489 2.80291e-21)
(0.0717033 0.0475487 0)
(1.16672 -0.117447 1.07802e-20)
(1.16932 -0.113359 -7.37411e-21)
(1.1708 -0.119446 3.15991e-20)
(0.344858 0.0996701 0)
(0.395706 0.110273 2.52984e-21)
(0.366045 0.100756 0)
(1.00002 -0.00014965 4.42939e-22)
(1.00006 -0.000275732 -5.71353e-22)
(0.753276 -0.126307 -4.52556e-20)
(0.661828 -0.106217 2.08046e-20)
(0.634683 -0.102145 5.97421e-21)
(-0.144056 -0.000855238 -2.63632e-21)
(-0.135051 -0.00120984 0)
(-0.111609 -0.00176865 2.85809e-20)
(1.01173 -0.0487244 1.62352e-22)
(1.0125 -0.0475876 -1.53258e-21)
(1.01312 -0.0490911 -1.15944e-21)
(-0.11715 0.00820329 0)
(-0.0785902 0.0109989 5.46566e-20)
(-0.110212 0.0103298 -7.87251e-20)
(0.347679 0.109318 2.89677e-21)
(0.368698 0.11188 2.69905e-22)
(-0.261431 0.0183261 1.03589e-21)
(-0.264961 0.0177597 -8.00292e-21)
(1.0723 -0.508448 1.70368e-20)
(1.06047 -0.513049 0)
(1.05972 -0.521628 -2.08976e-20)
(0.353594 0.118854 9.05085e-22)
(0.333564 0.114068 2.83516e-21)
(0.298996 0.105144 5.36669e-21)
(1.02057 -0.0284023 7.23136e-22)
(1.01967 -0.0285458 5.47683e-22)
(1.01989 -0.0274481 -4.78544e-22)
(1.02034 0.000716029 -2.72832e-21)
(1.02009 0.000580555 1.53157e-21)
(1.12638 0.179631 -1.34539e-20)
(1.123 0.182964 -9.80895e-22)
(1.12327 0.17738 2.42132e-21)
(1.06282 -0.0713937 -2.26651e-21)
(1.06044 -0.0690363 -1.84229e-21)
(1.06376 -0.0688408 4.17132e-21)
(0.982193 -0.0283621 0)
(0.980731 -0.0289489 0)
(-0.387865 0.00461906 4.18673e-20)
(-0.389643 0.00370637 6.37432e-20)
(-0.420667 0.00634241 2.60064e-19)
(0.973504 -0.0235361 -1.84829e-20)
(0.974728 -0.0234277 -7.88823e-21)
(0.974004 -0.0248407 1.03799e-20)
(1.09172 0.175515 0)
(1.09138 0.170546 0)
(1.09449 0.0588309 -2.14524e-20)
(1.09623 0.0603028 5.73771e-21)
(1.09385 0.0610133 -2.44511e-20)
(-0.204878 0.00839473 -1.50826e-20)
(-0.181829 0.015619 5.42186e-20)
(-0.214612 0.00828179 3.21917e-20)
(1.01115 -0.0498817 5.52505e-22)
(1.01048 -0.0482931 1.51707e-21)
(1.24931 0.134772 2.30239e-20)
(1.24913 0.126258 0)
(-0.127016 0.00748619 2.56915e-20)
(-0.153436 0.00478955 0)
(1.13306 0.247123 7.80319e-22)
(1.12769 0.249818 4.8561e-21)
(1.13161 0.251714 -3.11406e-20)
(-0.401446 0.00471489 -2.14878e-20)
(-0.391347 0.0040624 -5.31053e-20)
(-0.368029 0.00475879 3.62276e-20)
(1.00166 -0.0100299 -2.58568e-21)
(1.00179 -0.00991878 -4.56464e-25)
(1.19257 0.241017 4.39842e-21)
(1.19726 0.241318 -2.92267e-20)
(0.995658 -0.00626761 6.42364e-22)
(0.995777 -0.00670888 -3.44755e-21)
(0.995254 -0.00694237 2.40815e-21)
(1.06161 -0.0732811 9.71216e-21)
(1.0647 -0.0728977 -6.2634e-21)
(0.843737 -0.47857 8.2267e-21)
(0.868221 -0.475476 0)
(0.853213 -0.457382 -1.12207e-20)
(0.817476 -0.481298 -5.71697e-21)
(0.834957 -0.506922 6.78405e-21)
(-0.412338 0.000824182 1.07902e-20)
(-0.430267 0.00094869 -7.81133e-21)
(0.69496 -0.134147 -2.53872e-20)
(0.688191 -0.150304 -2.24167e-20)
(1.03017 -0.0493429 8.0844e-22)
(1.02869 -0.049736 7.06684e-22)
(1.02915 -0.0480362 -3.24209e-21)
(-0.155584 0.0118622 2.23934e-20)
(-0.17802 0.0147829 -1.30019e-19)
(-0.169452 0.0130363 2.0465e-21)
(-0.180969 0.00482018 0)
(-0.206725 0.0072205 0)
(-0.18357 0.00328691 0)
(1.19094 0.0291398 -1.7371e-20)
(1.19275 0.0253264 -2.09905e-20)
(1.19597 0.0292324 -2.39872e-20)
(0.997046 -0.0356281 -1.69432e-21)
(0.996109 -0.035331 -1.93601e-21)
(0.996455 -0.0366816 5.33093e-21)
(-0.386974 0.00425363 -5.75303e-21)
(-0.424335 0.0013841 -7.85765e-20)
(1.1089 0.0586856 9.2743e-21)
(1.10858 0.056136 -1.81202e-20)
(1.11106 0.0573113 -5.14272e-21)
(1.03224 -0.0923321 -3.8693e-22)
(1.02945 -0.0908567 -3.04454e-22)
(1.03195 -0.0889947 -1.71378e-21)
(-0.30532 0.00954183 2.31903e-20)
(-0.293746 0.00917133 1.70464e-20)
(1.02567 -0.00526642 0)
(1.02558 -0.00578578 -3.47928e-21)
(1.02638 -0.00555075 3.4778e-21)
(0.655071 -0.037055 -2.33219e-20)
(0.75258 -0.0465155 3.72094e-20)
(1.008 -0.023629 1.08881e-22)
(1.00766 -0.0227837 1.11657e-22)
(1.00732 -0.0232894 3.65037e-22)
(1.03177 -0.0492723 -1.99366e-21)
(1.03103 -0.0510328 1.89213e-21)
(1.32618 -0.18401 -9.56793e-21)
(1.32698 -0.179408 -5.90512e-20)
(1.3224 -0.185026 5.04612e-21)
(1.16188 -0.116221 2.00583e-20)
(1.16306 -0.122027 -7.87174e-21)
(-0.317419 0.00513143 1.33076e-20)
(-0.303568 0.004614 1.14879e-20)
(-0.283386 0.0119136 -3.29122e-20)
(-0.385021 0.00319599 7.47301e-20)
(-0.355083 0.00511307 3.91556e-20)
(-0.162417 0.00380345 3.38747e-20)
(-0.157786 0.00290385 -9.06876e-21)
(-0.134377 0.000767431 1.20789e-20)
(1.05717 -0.116123 5.7724e-21)
(1.05855 -0.111999 -5.26511e-21)
(0.0434459 0.00835188 4.04008e-21)
(0.0149592 -0.00106868 1.37714e-21)
(0.0384095 0.0109288 6.84993e-21)
(0.992343 -0.0188289 2.79317e-21)
(0.992857 -0.0192056 -9.44352e-22)
(0.992855 -0.0181797 3.01351e-21)
(-0.11563 0.00113992 4.23024e-20)
(-0.142698 0.0043972 -2.97251e-20)
(0.971445 -0.0237588 -5.44157e-21)
(0.972766 -0.0217681 2.63232e-20)
(1.07281 0.0338306 -3.26905e-21)
(1.07302 0.0355166 9.6818e-21)
(-0.361429 0.00689703 4.14698e-20)
(-0.365477 0.00509794 4.97352e-20)
(-0.168985 0.00460441 -6.82057e-23)
(-0.188977 0.00612338 4.76349e-20)
(-0.1852 -0.00050718 0)
(-0.196095 -0.00194323 0)
(-0.216004 -0.00256997 0)
(1.06711 -0.486714 3.59964e-20)
(1.06078 -0.468705 -1.60805e-20)
(1.04733 -0.47955 1.72866e-20)
(1.01465 -0.0305225 -8.37734e-23)
(1.01381 -0.030597 1.70673e-22)
(1.01474 -0.0315512 1.13175e-22)
(1.10766 0.183106 0)
(1.10326 0.181537 -6.97212e-21)
(1.10665 0.178616 2.3489e-20)
(-0.404492 0.00162007 -5.22852e-21)
(-0.406611 0.000865012 0)
(-0.439302 0.00141082 -6.77179e-20)
(1.22651 -0.261448 -3.34363e-20)
(1.23389 -0.263806 1.46326e-21)
(1.22763 -0.269479 0)
(1.11203 0.185415 0)
(1.10818 0.188622 0)
(0.803911 -0.139754 4.66643e-20)
(0.802492 -0.128977 0)
(0.813416 -0.134035 0)
(0.810353 -0.173546 2.07513e-20)
(0.808738 -0.161628 -7.11884e-22)
(0.797255 -0.169729 9.48785e-21)
(0.991843 -0.0378942 -3.90099e-21)
(0.992917 -0.0381228 4.60097e-21)
(0.992173 -0.039524 4.27401e-21)
(1.02404 -0.0272472 0)
(1.02482 -0.0281546 -2.86186e-21)
(1.02477 -0.0269926 0)
(1.19503 -0.00203792 -1.32116e-20)
(1.19674 -0.00576265 -6.27983e-20)
(1.19981 -0.000787342 9.04148e-21)
(1.02322 -0.0262742 0)
(1.02304 -0.0275227 0)
(-0.178837 0.00448615 -3.11536e-20)
(-0.155512 0.00177836 9.5914e-20)
(1.07225 0.0321342 -7.1835e-21)
(1.0743 0.0330393 3.828e-21)
(1.04437 -0.0202301 8.35368e-21)
(1.04463 -0.0190835 -2.5197e-21)
(1.0368 -0.153735 -9.05422e-23)
(1.0389 -0.158849 -1.95848e-21)
(1.03305 -0.157205 -2.88908e-21)
(1.02149 -0.0283743 -1.18163e-22)
(1.02148 -0.0294818 -3.06367e-23)
(1.30955 -0.0783569 4.71658e-21)
(1.31125 -0.0739679 2.78381e-20)
(1.31432 -0.0795852 -3.63877e-20)
(1.2289 -0.0781288 2.53638e-20)
(1.22492 -0.0750048 2.16811e-20)
(1.22391 -0.0802208 0)
(1.21036 0.15464 -6.06972e-22)
(1.20555 0.15731 -2.34232e-20)
(1.21055 0.160503 -2.45467e-20)
(1.09281 0.0571943 6.53325e-21)
(1.09498 0.056443 2.02797e-20)
(1.01793 -0.00926347 -5.38232e-22)
(1.01772 -0.00959154 -3.68471e-23)
(1.01841 -0.00963462 2.1182e-21)
(1.0166 -0.000835895 0)
(1.01665 -0.00127518 -1.30346e-21)
(-0.214338 0.0202419 2.26088e-20)
(-0.199651 0.0178801 -8.19584e-21)
(-0.137063 0.0105543 4.28151e-20)
(-0.128348 0.00878675 3.86009e-20)
(1.09722 -0.402385 -1.73333e-20)
(1.08712 -0.411173 0)
(1.1023 -0.414694 0)
(1.03765 -0.0171451 0)
(1.03635 -0.0172761 5.23728e-21)
(1.03671 -0.0163046 0)
(1.02299 -0.0497216 -3.17608e-22)
(1.0243 -0.050481 7.28328e-22)
(1.02312 -0.0514488 -5.97184e-24)
(-0.2578 0.0115423 -1.47282e-20)
(-0.232682 0.0142951 5.69979e-20)
(-0.25944 0.0114476 7.1739e-21)
(1.34817 0.0480879 -3.45122e-21)
(1.34224 0.0436789 -5.56699e-20)
(1.31539 0.0502564 -4.34299e-20)
(0.595943 -0.210631 -9.53339e-21)
(0.619317 -0.204448 1.50735e-19)
(0.61437 -0.233893 1.88829e-20)
(1.01566 -0.0306994 1.84597e-22)
(1.01475 -0.0295168 8.93258e-22)
(1.15329 -0.198697 0)
(1.15252 -0.191554 1.9229e-20)
(1.14749 -0.196825 0)
(-0.0884853 0.0260132 -2.5907e-20)
(-0.125452 0.0226117 -2.9319e-20)
(-0.0951916 0.0243219 -2.68509e-20)
(1.17241 0.0472615 2.96112e-21)
(1.17575 0.0498274 -2.45898e-21)
(1.17489 0.0444735 2.9257e-20)
(1.04693 -0.112601 9.11837e-22)
(1.04845 -0.116548 -7.65998e-21)
(1.13235 -0.0870109 0)
(1.13464 -0.0828951 0)
(1.12962 -0.0839527 0)
(0.885352 -0.157758 -5.75716e-20)
(0.857688 -0.143916 -8.70803e-21)
(0.0475164 0.046634 2.30242e-20)
(-0.00373531 0.0413277 0)
(1.21118 -0.148489 0)
(1.20921 -0.142249 -3.30498e-20)
(-0.175666 -0.000824477 3.28507e-20)
(-0.200759 0.000430373 2.50656e-20)
(-0.206441 0.000681992 -2.32805e-20)
(0.71216 -0.132931 -2.78527e-20)
(-0.156443 0.00270177 5.88667e-20)
(-0.179335 0.00532639 -1.0141e-19)
(0.850874 -0.109424 1.34888e-20)
(0.841329 -0.107838 -1.20414e-20)
(0.846561 -0.100555 -8.33626e-21)
(1.16699 0.0542285 0)
(1.1629 0.0534482 0)
(1.16474 0.0577403 0)
(1.32326 -0.190428 4.93605e-20)
(1.31679 -0.182276 1.10038e-19)
(0.977212 -0.0599276 9.64612e-21)
(0.977209 -0.0575946 2.39261e-21)
(0.979178 -0.0583569 9.75149e-21)
(0.991773 -0.0185328 0)
(0.991764 -0.0196321 -1.10089e-22)
(0.733386 -0.31576 0)
(0.715789 -0.329412 0)
(0.739029 -0.334179 0)
(0.638972 -0.0202927 4.61594e-20)
(0.568688 -0.0177441 5.06907e-21)
(0.566039 -0.01619 4.26819e-20)
(1.01659 -0.0876569 1.50715e-21)
(1.01629 -0.0900554 7.6283e-22)
(1.01375 -0.0887325 -8.60136e-22)
(1.0257 -0.00475396 6.04603e-23)
(1.025 -0.00504158 0)
(-0.177158 0.00587945 -2.55464e-20)
(0.0359366 0.0499788 4.21511e-21)
(0.0348407 0.052826 7.31381e-21)
(0.00306436 0.0410066 -2.25464e-20)
(1.15575 -0.204134 -2.01004e-20)
(1.15965 -0.198739 -6.18276e-21)
(1.11548 0.183181 7.40789e-21)
(1.11568 0.188609 0)
(1.30768 -0.0843997 -5.39277e-20)
(1.30377 -0.0785625 7.12706e-20)
(1.23251 -0.0813095 -3.11809e-21)
(1.23359 -0.0760671 -1.41075e-20)
(1.35167 0.0128708 -3.13221e-20)
(1.35179 0.00608596 -3.8497e-21)
(1.34762 0.00929038 0)
(0.973758 -0.0337166 4.56523e-21)
(0.974556 -0.0351826 4.11214e-21)
(0.972695 -0.0355145 8.59102e-21)
(0.98421 -0.0181633 0)
(0.983526 -0.0175703 3.75242e-21)
(0.984531 -0.0170434 0)
(1.00189 -0.00838401 8.56944e-22)
(1.0018 -0.00856843 -1.98121e-21)
(1.00165 -0.00797069 -1.51564e-21)
(-0.152012 -4.59736e-05 -5.28422e-20)
(-0.172294 -0.00116374 -2.25846e-21)
(1.16117 0.0470321 -3.09873e-20)
(1.16094 0.0507808 -3.05457e-21)
(1.15858 0.0483779 2.0956e-20)
(1.0779 0.0180405 0)
(1.07863 0.0191748 0)
(1.07971 0.0178131 1.10761e-20)
(1.00014 -0.000559717 0)
(1.00014 -0.000490754 0)
(1.00021 -0.000668771 4.29499e-22)
(0.313102 0.0935623 -1.51257e-22)
(0.296824 0.0934454 9.81547e-22)
(0.352686 0.104181 3.20448e-21)
(1.19382 0.00269745 3.73283e-21)
(1.19027 -0.00240407 -7.05709e-22)
(1.13015 0.175852 -3.16664e-20)
(1.13102 0.18157 -1.65768e-20)
(-0.270913 0.0085651 4.25062e-21)
(-0.299255 0.00154176 2.65222e-20)
(0.120016 0.0835836 0)
(0.0849902 0.0769582 7.10992e-22)
(0.130659 0.0833006 0)
(0.102766 0.0810084 0)
(0.159146 0.0904812 0)
(-0.388536 0.00538738 -8.13971e-20)
(-0.358118 0.00309523 -8.90101e-20)
(1.04056 -0.150123 2.90484e-21)
(1.0351 -0.148682 2.45465e-21)
(0.279725 0.0157181 0)
(0.286839 0.0150521 4.91903e-20)
(0.231667 0.0121288 -1.94964e-20)
(1.00146 -0.00964069 -2.70216e-21)
(1.00129 -0.00923491 1.29133e-21)
(1.00139 -0.00910827 -1.47698e-21)
(1.01822 -0.00888548 -3.68613e-21)
(1.01749 -0.00880143 -9.64589e-22)
(1.22202 -0.0137427 0)
(1.22244 -0.0188779 -1.81844e-20)
(1.21763 -0.0166231 -1.73195e-20)
(1.00137 -0.000464217 -1.04685e-22)
(1.00124 -0.0005935 -2.18506e-22)
(1.00116 -0.000389235 -3.65649e-23)
(-0.179455 -0.00107414 8.91259e-20)
(-0.154792 -0.00131683 3.3513e-20)
(1.15407 0.200958 -1.02274e-20)
(1.20915 0.207757 1.03233e-23)
(1.16843 0.207456 -1.08385e-20)
(1.14619 0.193397 8.2637e-21)
(1.15192 0.194387 1.89032e-20)
(1.14747 0.199468 0)
(1.01851 -0.00855617 -3.43677e-21)
(1.01893 -0.0089626 -2.91082e-21)
(1.10471 0.0609629 5.46025e-21)
(1.10691 0.0598113 2.91193e-21)
(1.10434 0.0586156 -9.67666e-21)
(1.14023 0.192888 -5.20839e-21)
(1.14326 0.187949 8.89266e-21)
(1.34758 0.0554784 -1.22792e-20)
(1.34049 0.0487404 1.05051e-19)
(1.08822 -0.496015 -4.56073e-20)
(1.04389 -0.146209 -4.65345e-21)
(1.04206 -0.141481 -2.2862e-22)
(1.04687 -0.14234 1.28744e-21)
(1.16928 0.0512309 6.50161e-21)
(1.16772 0.0460316 4.21841e-20)
(-0.297101 0.0137732 -1.42039e-19)
(-0.292816 0.0148764 5.16442e-21)
(0.0628214 0.0583462 -1.18836e-20)
(0.0316347 0.0466641 1.19784e-20)
(1.23498 0.136742 1.2621e-20)
(1.24039 0.140715 -6.37285e-20)
(0.891685 -0.0837838 -1.74109e-20)
(0.887316 -0.0796028 -3.29599e-20)
(0.886037 -0.0863937 -1.39602e-20)
(0.97836 -0.035917 0)
(0.977763 -0.0346482 -1.28633e-20)
(0.979246 -0.0344442 -2.82829e-22)
(1.02444 -0.0192918 1.05395e-21)
(1.02458 -0.0201376 -1.392e-21)
(1.02545 -0.0196028 6.62075e-21)
(0.710578 -0.0246849 -4.64104e-20)
(0.708815 -0.0206249 4.81392e-20)
(1.16383 0.0450102 -4.92887e-21)
(1.16014 0.0432089 -5.54105e-20)
(-0.321161 0.00109977 -2.47625e-20)
(-0.339262 0.00147904 -3.78078e-20)
(1.11313 -0.038198 4.28901e-21)
(1.11635 -0.0399824 -2.12686e-22)
(1.01676 -0.0849027 -6.01403e-23)
(1.0194 -0.0864781 5.4247e-22)
(1.09946 0.179899 -1.33526e-21)
(1.09532 0.177531 5.7216e-21)
(1.09891 0.174566 6.10616e-21)
(1.23071 0.137904 1.08513e-20)
(1.23032 0.13197 8.95619e-21)
(1.05778 -0.00515379 2.26471e-21)
(1.05925 -0.00555479 -1.0607e-20)
(1.05813 -0.0065302 4.11238e-22)
(1.05594 -0.0313667 -7.87372e-21)
(1.05414 -0.0315516 -4.76661e-21)
(1.05487 -0.0300271 -8.06309e-21)
(0.693972 -0.164454 0)
(0.714748 -0.169206 -1.39301e-20)
(0.702753 -0.182312 3.08147e-20)
(1.32122 -0.195365 0)
(1.31807 -0.201497 -2.23571e-21)
(1.31027 -0.193608 3.02951e-20)
(-0.200549 -0.000401405 8.61019e-21)
(-0.179947 -0.00142722 -4.86239e-20)
(-0.170864 -0.00116503 -3.00102e-20)
(-0.144889 0.00694507 -1.15506e-20)
(-0.153368 0.00647449 2.3268e-20)
(-0.111227 0.00730615 -2.61247e-20)
(1.14489 0.0380816 8.28335e-21)
(1.14688 0.0416423 3.10428e-20)
(0.893347 -0.732332 3.48089e-20)
(0.885249 -0.778171 1.89789e-20)
(0.934324 -0.777968 8.32721e-20)
(-0.227123 0.00039618 3.66659e-21)
(-0.217217 6.74223e-05 3.19953e-20)
(0.936784 -0.037073 2.02409e-21)
(0.939222 -0.0357081 -6.97752e-21)
(0.936454 -0.0339296 -8.23154e-22)
(1.14794 0.0721825 -6.5671e-21)
(1.15009 0.0695911 2.03757e-20)
(1.14647 0.0700385 3.65843e-20)
(-0.0287313 0.055081 1.75756e-20)
(-0.00352029 0.0594741 1.82423e-20)
(-0.044296 0.0522917 6.77382e-21)
(1.10391 -0.0530421 -1.3205e-20)
(1.10543 -0.0550007 -4.10994e-20)
(1.10216 -0.0553227 -9.79028e-21)
(1.08199 0.169198 -2.84382e-21)
(1.07843 0.167944 3.45069e-23)
(1.07888 0.172724 -1.49828e-22)
(1.022 -0.0493669 8.06668e-23)
(1.02277 -0.0486527 -3.20594e-22)
(1.32302 -0.196691 0)
(1.00012 -0.00232898 1.65867e-21)
(1.00018 -0.00272671 -3.82123e-22)
(1.00016 -0.00280587 1.60024e-21)
(1.17315 -0.108928 -3.38769e-21)
(1.17677 -0.106128 -2.91691e-21)
(1.177 -0.112447 -1.67952e-20)
(1.03454 -0.0989361 -3.76778e-21)
(1.03748 -0.0994183 8.29006e-23)
(1.0357 -0.102058 8.76875e-22)
(0.982769 -0.0270951 0)
(0.983555 -0.0278195 0)
(1.30604 0.12026 -3.09597e-20)
(1.31753 0.126289 9.29535e-22)
(1.3222 0.120816 2.87582e-20)
(1.05974 -0.0193318 -9.5261e-21)
(1.0582 -0.0185689 6.41092e-21)
(1.05983 -0.0176132 -5.27124e-21)
(0.168503 -0.529633 -5.65922e-20)
(0.125438 -0.573306 -4.42082e-20)
(1.01814 -0.00807217 -4.44755e-22)
(1.01888 -0.00820641 9.13443e-23)
(1.26837 0.103449 5.74558e-21)
(1.27179 0.0982261 -2.90909e-20)
(1.26445 0.0986311 -3.15734e-20)
(-0.326709 0.00668353 7.98535e-21)
(-0.359406 0.00212518 2.67601e-20)
(-0.194353 -0.00183982 0)
(-0.197876 -0.000231225 1.02096e-20)
(-0.165403 -0.00207556 -3.232e-20)
(0.897717 -0.0930012 0)
(0.903124 -0.0914384 1.37881e-20)
(0.901407 -0.097522 -3.04399e-20)
(1.1455 0.0748085 -1.95319e-20)
(1.14927 0.0746526 -5.66076e-21)
(1.00006 -0.00153198 3.12309e-21)
(1.00003 -0.0011445 1.6284e-21)
(1.00003 -0.00116393 -3.07739e-22)
(0.744058 -0.302364 0)
(0.724421 -0.295325 0)
(1.00297 -0.0177688 7.27082e-22)
(1.00289 -0.0169523 1.76179e-21)
(1.00331 -0.0175285 -3.92239e-22)
(1.16861 -0.106936 -5.06376e-22)
(-0.0633227 0.000703672 1.0944e-22)
(-0.104065 0.00510842 -1.83957e-20)
(-0.0894076 0.00333185 -1.86306e-20)
(0.894807 -0.0890819 0)
(0.896766 -0.0824364 -2.19505e-20)
(1.10182 -0.050427 1.62377e-20)
(1.10535 -0.0498391 1.10029e-20)
(0.996502 -0.00388535 3.62197e-21)
(0.996142 -0.00438312 -6.59904e-22)
(-0.176016 0.00667824 2.30668e-22)
(-0.139593 0.00616217 -2.84416e-20)
(1.02745 -0.0134761 -4.23233e-23)
(1.02683 -0.0126824 2.60021e-21)
(0.650493 -0.329572 -5.82488e-21)
(0.80522 -0.424238 -4.04827e-20)
(-0.157944 0.00549628 3.22862e-20)
(-0.164314 0.00451154 0)
(-0.12631 0.0049914 0)
(1.21867 -0.258697 3.08997e-21)
(1.22522 -0.253118 1.03966e-21)
(1.00013 -0.000624758 0)
(1.00008 -0.000448512 2.58987e-22)
(1.28164 -0.403933 0)
(1.26266 -0.385123 -1.12555e-19)
(1.25338 -0.393151 0)
(-0.382059 0.0013313 -1.02634e-20)
(-0.373874 -0.000551961 -4.19575e-20)
(-0.347528 0.0049209 -8.06772e-20)
(0.411959 0.131403 -1.64412e-20)
(0.373173 0.121317 4.10781e-21)
(1.08453 0.166873 -2.71352e-21)
(1.15332 -0.00503396 -3.16037e-21)
(1.15356 -0.00915181 5.03584e-21)
(1.14966 -0.00624576 1.39763e-20)
(0.703873 -0.363273 -8.54766e-21)
(0.69814 -0.343632 -5.41229e-20)
(0.679287 -0.35755 -5.427e-20)
(1.2908 0.120366 5.07004e-20)
(1.29447 0.1149 -3.26539e-21)
(1.1048 0.0633298 -3.05138e-21)
(1.10235 0.0620611 -2.02921e-21)
(1.07256 -0.458952 -3.41342e-20)
(1.05679 -0.453936 -3.16064e-20)
(1.06041 -0.16247 6.45567e-21)
(1.05493 -0.161901 -7.94508e-21)
(1.05825 -0.157668 -4.8475e-21)
(-0.0865564 0.00862755 -1.5042e-20)
(-0.112113 0.00221473 1.72501e-20)
(-0.105033 0.000759803 -7.96295e-21)
(1.2988 0.0337867 9.91044e-22)
(1.29721 0.0405674 3.10669e-21)
(1.29216 0.0335489 2.8887e-20)
(1.01215 -0.000702271 1.41345e-21)
(1.01282 -0.000986604 -1.15934e-21)
(1.01226 -0.00146639 -2.47057e-21)
(1.11476 -0.00638291 -2.43663e-20)
(1.11179 -0.00596594 -1.43773e-20)
(1.11277 -0.00880072 -5.59391e-21)
(1.10028 0.184818 -7.21076e-21)
(0.319391 0.0915232 -1.45232e-22)
(0.278569 0.0853769 3.69993e-21)
(0.206686 0.0121043 -2.14342e-21)
(0.230885 0.0218567 -1.45613e-21)
(0.224197 0.0140594 -3.64142e-21)
(1.0236 -0.0189524 -2.50043e-21)
(1.02434 -0.0185862 0)
(0.576742 -0.223394 -5.82997e-20)
(0.993325 -0.0195273 -3.43147e-21)
(0.993822 -0.0198382 4.92744e-23)
(0.993842 -0.0188869 6.62899e-25)
(1.25204 0.16477 3.48788e-22)
(1.2564 0.160553 3.58446e-20)
(1.25335 0.158789 0)
(1.34636 0.0370745 -2.73918e-20)
(1.34767 0.0307405 1.47531e-20)
(1.34379 0.0342857 -2.47734e-20)
(1.117 -0.00735298 -1.56019e-21)
(1.11616 -0.00505137 -1.49359e-21)
(1.19304 0.00648063 4.45352e-21)
(1.19725 0.00693514 -4.11997e-22)
(1.30113 0.0287932 1.89203e-20)
(1.30539 0.0355204 -7.42594e-21)
(1.00214 -0.0327622 1.67538e-21)
(1.003 -0.0335745 -9.77654e-22)
(1.00278 -0.0320644 3.73396e-21)
(0.806236 -0.149887 3.5086e-20)
(0.794421 -0.145105 4.45164e-20)
(1.13904 0.165108 0)
(1.13568 0.169146 1.95933e-20)
(1.13447 0.163477 0)
(0.80009 0.0761238 0)
(0.783128 0.0709825 -3.99689e-20)
(0.864588 0.0776288 0)
(0.998217 -0.0124382 1.75974e-21)
(0.998469 -0.0119592 0)
(0.998229 -0.0116574 0)
(0.983275 -0.0259683 0)
(0.981879 -0.0264371 0)
(0.892542 -0.0946861 -2.08083e-20)
(0.0627122 0.0704021 1.18753e-20)
(0.0772473 0.0730304 6.70946e-21)
(0.112572 0.0778497 2.5717e-20)
(-0.232298 0.0221638 -8.30954e-21)
(-0.248017 0.0239071 -2.15116e-20)
(-0.234423 0.0210985 -8.12653e-20)
(1.18046 0.0344122 3.37613e-21)
(1.17816 0.0320768 -3.70388e-20)
(1.18207 0.0309092 -5.82088e-20)
(1.03879 -0.0170736 3.99839e-21)
(1.03846 -0.0181063 0)
(1.34675 0.0605382 -1.30635e-20)
(1.32273 0.0625676 -9.40463e-20)
(1.35051 0.0190099 -1.0162e-21)
(1.34977 0.0252127 6.26413e-20)
(1.34667 0.0217507 2.91704e-20)
(1.21645 0.139637 -1.15258e-20)
(1.2105 0.142961 -1.76466e-20)
(1.21057 0.136496 -4.65294e-20)
(1.19185 0.0111424 0)
(1.18859 0.00643083 2.44954e-20)
(0.048414 0.0651849 -1.7137e-20)
(0.0198062 0.060299 -2.0376e-21)
(-0.408353 0.00181988 5.23086e-21)
(-0.40893 0.00116392 -3.61442e-20)
(-0.444364 0.00221413 -2.28544e-22)
(1.12024 -0.0185439 -1.78858e-21)
(1.12072 -0.0211792 1.79974e-20)
(1.12305 -0.0186235 -2.5804e-20)
(1.13881 0.0322662 0)
(1.14158 0.0330736 -1.85089e-20)
(1.13846 0.0351369 0)
(0.718006 -0.137277 -1.0978e-20)
(0.684224 -0.127239 5.26611e-20)
(0.556262 -0.0952802 4.85038e-20)
(1.02694 -0.0253238 -1.8836e-22)
(1.02764 -0.0263104 -2.71439e-21)
(1.02612 -0.0258896 -3.60241e-21)
(1.00195 -0.00813212 1.45306e-21)
(1.002 -0.00790854 3.98853e-24)
(1.00176 -0.00755868 -5.37934e-24)
(1.22102 0.137586 -1.84287e-20)
(1.22064 0.143904 2.49858e-20)
(1.18207 -0.162966 -2.84287e-20)
(1.18131 -0.157179 -2.64533e-20)
(1.17632 -0.160994 -9.19143e-21)
(1.02838 -0.0133792 -2.61663e-21)
(1.02919 -0.0133325 -3.82172e-22)
(1.02853 -0.0127006 -4.06577e-22)
(1.00023 -0.00271 5.91426e-22)
(1.0002 -0.00271467 -2.06671e-21)
(1.00014 -0.0023041 -1.54203e-21)
(1.00302 -0.0183714 7.46045e-22)
(1.00266 -0.0178197 9.34658e-22)
(1.00493 -0.000866876 6.08493e-22)
(1.0053 -0.000895365 -4.7911e-22)
(1.00491 -0.000515851 0)
(1.14595 0.00819153 3.92157e-22)
(1.14946 0.00776724 1.18952e-20)
(1.14821 0.0113732 -2.90168e-21)
(1.00214 -0.00876646 1.46237e-21)
(-0.0155324 0.0573304 -2.04593e-20)
(0.0237963 0.0642432 -3.71919e-20)
(1.17896 0.0249029 3.94076e-20)
(1.17584 0.0285329 -4.37801e-20)
(1.01808 -0.0405086 3.19086e-22)
(1.0171 -0.0405481 1.27485e-22)
(1.01804 -0.0415246 2.54718e-22)
(0.302254 0.0827822 0)
(-0.262426 0.0126487 -2.18462e-20)
(-0.28294 0.0107693 5.81851e-20)
(0.97499 -0.0291683 -2.42531e-21)
(0.975624 -0.0305221 -2.45796e-21)
(0.976495 -0.0291092 0)
(1.27198 0.108421 6.32376e-21)
(-0.399091 0.00289938 1.31702e-20)
(-0.432777 0.0046194 1.17395e-20)
(-0.400796 0.00262379 -5.76267e-20)
(0.975348 -0.0614665 5.82496e-21)
(0.977789 -0.062208 1.1307e-21)
(0.974086 -0.0277952 -1.75545e-21)
(0.973026 -0.0296389 3.65714e-22)
(1.18226 0.0227021 5.92746e-20)
(1.18292 0.0272875 2.92384e-20)
(-0.34296 0.00236797 3.89305e-20)
(-0.346802 0.0029131 -5.76527e-20)
(-0.314539 0.0066723 -6.67945e-20)
(0.0411087 -0.00940065 4.96279e-20)
(0.00754708 -0.00740374 -5.38683e-20)
(0.0355786 -0.00956638 6.34775e-20)
(1.22863 0.0061124 0)
(1.23341 0.00390771 -4.95496e-20)
(1.22857 0.00172535 0)
(1.00284 -0.000631704 -1.84411e-22)
(1.00271 -0.000900156 2.00434e-22)
(0.27736 0.016358 0)
(0.335859 0.0187987 0)
(1.00153 -0.0101897 2.09118e-22)
(1.23788 0.00203802 -1.12469e-20)
(1.23874 -0.00318531 5.02413e-20)
(1.24337 0.00035162 3.68991e-20)
(-0.399968 0.0037679 0)
(-0.368494 0.00284466 4.99298e-20)
(0.819628 0.0819814 -1.6052e-20)
(0.811318 0.0799698 6.00037e-20)
(0.887128 0.086596 6.19517e-20)
(1.07711 0.0162929 6.95329e-21)
(1.07596 0.0176908 5.60828e-21)
(0.75994 -0.15406 -5.06927e-20)
(0.883372 -0.190894 -1.136e-19)
(1.02455 -0.192779 0)
(1.14153 -0.21571 5.61437e-20)
(1.1696 -0.231459 -1.11862e-20)
(-0.169839 0.0023776 0)
(-0.164343 0.00215407 2.03875e-20)
(-0.141092 0.000430782 0)
(1.30614 -0.0892437 -1.25771e-20)
(1.30052 -0.0897357 5.02691e-21)
(1.30437 -0.0945283 9.48521e-20)
(0.780791 -0.117866 -4.12302e-20)
(0.781394 -0.1063 -3.87375e-20)
(0.768806 -0.110685 -1.96147e-20)
(-0.151995 -0.0015562 5.04463e-20)
(-0.145686 -0.0017716 -1.61281e-20)
(-0.207155 0.0173486 2.7496e-20)
(-0.181886 0.0189303 -7.21002e-21)
(-0.211446 0.0157042 -5.86894e-20)
(0.779244 0.0499188 1.40539e-20)
(0.70165 0.0477007 4.33077e-20)
(1.05767 -0.0313422 -7.30901e-23)
(1.05687 -0.0330439 1.09012e-20)
(-0.280861 0.0135213 4.70735e-20)
(-0.259967 0.0113715 -3.44467e-21)
(-0.253939 0.0109407 4.87991e-20)
(-0.0260194 -0.00426044 -7.718e-21)
(-0.0160116 -0.00745593 2.51405e-22)
(0.461759 -0.456158 -7.03611e-22)
(0.43081 -0.428641 -1.8183e-21)
(0.429736 -0.475465 5.0753e-20)
(0.491425 -0.437734 2.28451e-22)
(0.499069 -0.478818 1.32173e-21)
(0.934752 -0.0386335 0)
(0.936236 -0.0395932 0)
(1.23073 -0.00847799 2.24489e-20)
(1.22642 -0.0109708 3.55654e-20)
(1.23153 -0.0133247 -2.86233e-20)
(0.945927 -0.139661 1.92238e-20)
(0.949663 -0.134867 -7.80708e-21)
(0.952339 -0.141152 1.17465e-20)
(0.0635459 0.0160303 -4.49427e-21)
(0.0416546 0.00455031 -4.53552e-21)
(0.785614 -0.1661 -1.76989e-20)
(0.784206 -0.152691 -1.86029e-20)
(0.770557 -0.161589 -3.2816e-21)
(1.00975 -0.00213773 0)
(1.00972 -0.00254046 0)
(1.01018 -0.00237831 9.7051e-22)
(1.02047 0.000745302 2.14267e-22)
(1.02048 0.000586298 3.02439e-21)
(1.09079 -0.100064 0)
(1.09449 -0.101131 0)
(1.09095 -0.103532 0)
(-0.196036 0.00259068 0)
(-0.175856 0.00301402 4.07575e-20)
(0.230988 -0.559135 -2.74448e-20)
(1.02765 -0.0247263 6.12916e-21)
(1.02626 -0.0244602 2.40104e-21)
(-0.222044 0.000697499 0)
(0.934342 -0.136296 9.82589e-21)
(0.940613 -0.138418 1.19042e-20)
(0.938283 -0.13203 9.14879e-21)
(1.13056 -0.0903043 2.91528e-20)
(1.1351 -0.0890828 0)
(1.07999 0.0204575 1.11408e-20)
(1.07816 0.0205856 0)
(-0.343608 0.00401289 8.47183e-20)
(-0.372354 0.00167656 8.10634e-20)
(1.34635 0.0678549 -2.22969e-20)
(1.33647 0.0618168 -1.93775e-21)
(1.09227 0.180919 -8.03365e-21)
(1.03343 -0.0954377 -2.79393e-21)
(1.0313 -0.0977344 -1.0799e-21)
(1.09985 -0.0484851 2.97097e-21)
(1.09867 -0.0510203 -6.53245e-22)
(0.5033 0.112911 4.30981e-22)
(0.516317 0.112261 -1.74554e-21)
(0.472071 0.103549 6.44094e-22)
(0.977636 -0.0376039 0)
(0.979257 -0.0371758 1.09091e-20)
(1.31468 0.0177997 2.99132e-20)
(1.11733 -0.0179716 2.46062e-21)
(1.11974 -0.0152867 2.91842e-23)
(1.18162 0.0187969 1.68799e-20)
(1.18593 0.021378 -4.0219e-20)
(0.931234 -0.141638 7.19331e-21)
(0.927845 -0.134788 1.29592e-20)
(0.992808 -0.0202034 -7.12838e-21)
(1.01953 -0.040686 1.91632e-22)
(1.01839 -0.0393826 -5.58584e-22)
(1.27949 -0.159303 5.05452e-21)
(1.2781 -0.164897 7.82449e-20)
(1.28476 -0.161573 3.48057e-20)
(1.24066 -0.26693 -1.98216e-22)
(1.23946 -0.25897 1.34918e-21)
(1.29604 0.0454742 8.68891e-21)
(1.29439 0.0511711 4.05598e-20)
(1.28968 0.0452201 4.27228e-22)
(0.913358 -0.171054 0)
(0.482901 0.110632 -1.06715e-22)
(0.533981 0.120792 2.8117e-22)
(1.01853 -0.0913695 4.32275e-23)
(1.01599 -0.0926111 -1.16107e-21)
(-0.189276 0.00510383 -5.00756e-20)
(1.29169 0.161727 1.9167e-20)
(1.28528 0.165936 -6.04456e-21)
(1.29142 0.171165 -2.61964e-20)
(1.03435 -0.00702391 -3.58566e-21)
(1.03412 -0.00617307 -3.83667e-21)
(1.03335 -0.00670133 -1.35188e-21)