/*--------------------------------*- C++ -*----------------------------------*\
| =========                 |                                                 |
| \\      /  F ield         | OpenFOAM: The Open Source CFD Toolbox           |
|  \\    /   O peration     | Version:  v2012                                 |
|   \\  /    A nd           | Website:  www.openfoam.com                      |
|    \\/     M anipulation  |                                                 |
\*---------------------------------------------------------------------------*/
FoamFile
{
    version     2.0;
    format      ascii;
    class       volScalarField;
    location    "100";
    object      nut;
}
// * * * * * * * * * * * * * * * * * * * * * * * * * * * * * * * * * * * * * //

dimensions      [0 2 -1 0 0 0 0];


internalField   nonuniform List<scalar> 
13851
(
0.000302833
0.00177783
0.00183982
0.0030516
0.00672253
0.00163127
0.00164735
0.00673905
0.0153424
0.00672895
0.000309093
0.00672361
0.00328401
0.00351086
0.00139053
0.000634964
0.00325745
0.00443555
0.000293822
0.000326429
0.00186844
0.000739533
0.00178507
0.00672548
0.000253717
0.000350044
0.0151449
0.000504839
0.0195353
0.00673709
0.00689054
0.00205719
0.000322451
0.0133427
0.000538066
0.0196398
0.00672579
0.00050739
0.00135535
0.00290868
0.00839102
0.020836
0.000184508
0.000207989
0.0215073
0.00594059
0.00676059
0.000359765
0.00155185
0.00284767
0.00295192
0.00269259
0.000794483
0.000917104
0.00406589
0.00297765
0.000292743
0.00809934
0.0194968
0.00264064
0.00672392
0.0131603
0.00672451
0.00131569
4.35181e-05
3.7122e-05
0.0015497
7.46204e-05
0.00281206
0.0046394
0.00741594
0.00182344
0.00403485
0.00199257
0.000935843
0.0010145
0.00432918
0.00673569
0.000278739
0.0067233
0.00254839
0.000168244
0.000547431
0.00380799
0.00283458
0.00653993
0.000775335
0.00402225
0.00672808
0.00793597
0.00199432
0.00177373
0.000376853
0.0073985
0.00318876
6.04266e-05
0.00671378
0.000912353
0.00155578
0.00011956
0.000760642
0.000150418
0.000122311
0.00317224
0.00674334
0.00438619
0.00558059
0.0070375
0.00186966
0.00464148
0.000414921
0.00673822
0.000236427
0.000597773
0.00027773
0.000997467
0.006722
0.00673298
0.00251949
0.00528379
7.52494e-05
0.00647883
0.00233103
0.00744038
0.000307092
4.77343e-05
0.00628228
0.000221649
0.0105347
0.00116257
0.000759032
0.000921891
0.000196941
0.013541
0.000326662
0.00250224
8.69721e-05
0.00773196
0.000200933
0.000986329
0.000209394
0.00146412
0.00672967
5.2e-05
0.000320872
0.00120745
0.00673447
0.00699468
0.0134189
0.00021437
0.00100356
0.00027074
0.000560847
0.000312968
0.00195148
0.00408988
0.00672422
0.00163875
0.00106236
0.00206124
0.00672503
0.0198387
0.00444978
0.000466693
0.00376741
0.01867
0.0190559
0.00375938
0.000455059
0.000344013
0.00672455
0.00672025
0.00182528
0.00672249
0.00281847
0.00626712
0.00085125
0.00672136
0.000903918
0.000943121
0.000322754
0.000108896
0.000488564
0.00112852
0.000204642
0.0140523
0.000302714
0.000320582
0.00242815
0.0067372
0.000299767
0.001203
0.00205481
0.00146194
0.00112846
0.000906861
0.000293295
0.00363642
0.0030791
7.97399e-05
0.000199484
0.00523296
0.00751522
0.00126225
6.24829e-05
0.00537013
0.000957702
0.000731865
0.0150921
0.00135647
0.000846085
0.00330727
0.000178676
0.00672599
0.000586186
0.000936478
0.00314683
0.000334789
0.00326183
2.90449e-05
0.00672064
0.000331337
0.00262427
0.00276307
0.000340278
0.000761705
0.00672616
6.0909e-05
0.00672116
0.000534987
0.00448147
0.000338192
0.00145171
0.00672458
0.00755581
0.00673876
0.00111439
0.00719014
0.000114562
0.00672527
0.000251319
0.00283777
0.021141
0.000542225
0.00190879
4.48059e-05
0.000323358
0.000870446
7.11997e-05
0.000405952
0.0033733
0.000394179
0.00672806
0.00161534
0.000757032
0.0191059
0.00709421
0.00673543
4.9051e-05
0.00672688
0.000327114
0.000336673
0.00176645
0.0044137
0.000341975
0.00480954
0.00013781
0.00024031
0.000510918
0.00672342
0.00330903
0.000347842
0.0174557
0.00138124
0.0014437
0.00581165
0.00033703
0.000318531
0.000298775
0.00445007
0.0166934
0.00160037
0.0015871
0.001371
0.00132487
0.00621211
0.00672404
0.000280519
0.000280783
0.00674381
0.00672589
0.00672099
0.0067225
0.00186806
0.00672394
0.0158294
0.00177964
0.00405885
0.01922
0.00688845
0.00252925
0.000315259
0.00189642
0.00127391
0.00214591
0.00194182
0.00319664
0.00551741
0.00126789
0.00672144
0.000222345
0.00672425
0.000993798
0.00246085
0.000548789
0.00203518
0.000721666
0.000289289
0.00691266
0.000243794
0.00012807
0.0017663
0.00880338
0.000536852
0.00279566
0.00454608
0.000394816
2.85361e-05
2.83916e-05
0.000721775
0.00134944
0.000348457
0.00460288
0.000108911
0.0067181
0.00674373
0.000847721
0.00628602
2.74021e-05
0.0060453
0.0032128
0.000344362
0.000803654
0.00198704
0.00237758
0.000332405
0.000695184
0.00101988
0.0015661
0.0201286
0.00225287
0.000326453
0.00170796
0.00271098
0.000326284
0.00672837
0.00355163
0.000147078
0.000120642
0.000385892
0.000216482
0.0189434
0.00095064
0.00719725
0.000529854
0.00676292
0.000663361
0.00043712
0.00223253
0.000884266
0.000311882
0.0179147
0.000246481
0.000180315
0.0048615
0.00245552
0.00694467
0.000668812
0.00179836
0.00559844
0.00185908
0.00679591
0.00133172
0.0006111
0.000400714
0.000139241
0.00440287
0.00177323
0.000265239
0.000949039
0.00567281
0.00168552
0.0134856
0.00393749
0.000825212
0.00150885
0.00161674
0.000384903
0.000598094
0.00445028
0.00116602
0.000351336
8.86626e-05
0.00031964
0.00441933
0.00490621
0.00203939
0.000268233
0.00519742
0.000175509
0.00137293
0.000334246
0.00631981
0.000207457
0.0104992
0.000243635
0.00156667
0.000358396
0.010634
0.00146413
0.00674697
0.00289116
0.000178296
0.00149227
0.00036933
0.000502047
0.00440369
0.00672303
0.00276403
0.00948477
0.0067301
0.0020174
0.000779197
0.00671971
0.00991982
0.00133064
0.000542079
0.0017472
0.0021538
0.00234488
0.000294251
0.00387265
0.00256001
0.0254931
0.012989
0.000766016
0.0150914
0.00672464
0.00672375
0.00158228
0.000364429
0.000578877
0.00523797
0.00216959
8.19811e-05
0.00218967
0.00598769
0.00672329
0.00127846
0.0217021
0.000234298
0.00673335
0.0067254
0.00170587
0.00343783
0.000234963
0.0253423
0.00235991
1.60512e-05
0.00172549
0.00672231
0.0125928
0.0170741
0.000206333
0.00361699
0.00842586
0.000217368
0.000114458
0.00316072
0.000926601
0.000150152
0.00092539
0.00965541
0.0118508
0.000339423
0.000841845
0.000233915
0.00473775
0.0189437
0.000596927
0.000267497
0.00158926
0.00104748
0.000222361
0.00170976
0.00672204
0.00159468
0.0118556
0.00584027
0.000940072
0.0248199
0.0050436
0.00033721
0.000387933
0.00672651
0.000454988
0.00672868
0.00673609
0.000313741
0.00285799
0.00190778
0.0014411
0.000101841
0.00128004
0.00641971
0.000418432
0.00673142
0.0116806
0.000240359
0.00672416
0.00215033
0.000180495
0.000551229
0.00674218
0.000412459
0.00130209
0.00679428
0.00415344
0.000318136
0.000347231
0.000957083
0.0254594
0.00229321
0.00680031
0.000240235
0.00294497
0.00566327
0.0232586
0.00659833
0.00179482
0.000558095
0.00673006
0.000449684
0.011116
0.00162801
0.00665414
0.00505719
0.00566368
0.00262342
0.00439862
0.00132105
0.00674825
0.000977199
0.00322986
0.000145925
0.00476717
0.00196043
0.00672724
0.0183277
0.00672669
0.000177442
0.00153653
0.00100454
0.00215488
0.0233852
0.00207368
0.00169223
0.00252762
0.00225909
0.00101003
0.021209
0.00661548
0.00271259
0.00550478
0.000123882
0.00458373
0.0149104
0.000439597
0.000565873
0.00122977
0.00136374
0.00461024
0.000426412
7.06033e-05
0.0116392
0.000847119
0.0210606
0.00227392
0.0202856
0.000359956
0.00672334
0.00119837
0.000231508
0.000449412
0.0010195
0.00317777
1.33082e-05
0.000154378
0.00358211
0.00430197
0.00672317
0.00044275
0.00122845
0.00672369
0.00338509
0.00672312
0.000562182
0.000808593
0.000299449
0.00322436
0.00569882
0.000267779
0.00466736
0.00440088
0.00310592
0.000944204
0.0067203
0.00677955
0.00140539
0.00221313
0.000358788
0.00195513
0.000231465
0.0196665
0.00672667
0.00468128
0.00672604
0.00028503
0.0031983
0.0204222
0.000351174
0.00302263
9.73144e-05
0.000130093
0.000195341
0.00548126
0.00042053
0.000346013
0.00172521
0.00121073
0.000304887
0.00676584
0.00039966
0.00382753
0.0190583
0.0034296
0.00247594
6.96447e-05
0.00700986
0.00672648
0.00672653
0.000340847
0.00296848
0.025104
0.00194103
0.000384782
0.00221707
0.00554439
0.02061
0.000374872
0.000132236
0.00674089
0.000266967
0.000143579
0.000385299
0.00135085
0.00116472
0.000158089
0.000456833
0.000254297
0.00175267
0.00194091
8.11338e-05
0.000101586
0.000317087
0.0205733
0.000379814
0.000848323
0.00624111
0.000242611
0.022892
0.000334618
0.00495505
0.00127106
0.00031125
0.000758145
0.00672299
0.00672271
0.000282692
0.00344753
0.00129666
0.00690941
0.00672072
0.0252358
5.9018e-05
0.00182825
0.000359222
0.00134341
0.00200304
0.00241909
0.000122864
0.000265535
0.0108974
0.00247896
0.000500705
0.000280543
0.000661329
0.00128779
0.000197333
0.00449965
0.00672605
0.000895153
0.00562309
0.0207911
0.00672188
0.0197574
0.0175469
0.000356271
0.00164659
0.00181655
0.000656597
0.000152715
0.000388115
0.00672518
0.00359943
0.00673307
0.00643903
0.00672266
0.00113156
0.000281029
0.000130705
0.000533434
0.00119668
0.0147652
0.00672659
0.00357765
0.000528272
0.00672647
0.0067249
0.0202422
0.0015017
0.0227353
0.000220396
0.00105263
0.000767091
0.00679302
0.0127897
0.000786153
0.00198468
0.0203289
0.00672543
0.00139477
0.00582393
0.000599528
0.00413787
0.000979173
0.00131854
0.000160597
0.00188615
0.000324386
0.000547168
0.0217216
0.00673078
0.0212967
0.00672422
0.00241409
0.000283467
0.000351721
0.000267614
0.000217544
0.00438814
0.00672598
0.00672647
0.00087615
0.00228201
0.00672599
0.00120703
0.000147188
0.00672063
0.000118665
0.000309037
0.0233624
0.000240481
0.00613112
0.000194089
0.00672527
0.000165465
0.00672111
0.00171044
0.0207935
0.0174584
0.000425483
0.0220018
0.00258612
0.0030366
0.000101904
0.00124623
0.00640585
0.00153472
0.000401468
0.00590533
0.000278942
0.000336245
0.00475408
0.00673715
0.00051072
0.000522888
0.00205414
0.00672598
0.000270732
0.000214102
0.00688231
0.00198538
0.00672413
0.00261066
0.00153489
0.0019252
0.00671932
0.003117
0.0067463
0.00389575
0.00672415
0.000115672
0.00238895
9.3856e-05
0.00137857
0.00403196
0.00188019
0.00672131
0.0194368
0.00140066
0.0096886
0.00289044
0.0119242
0.0140761
0.00117868
0.00672078
0.00194364
0.0250532
0.00155472
0.000316442
0.00373375
0.00324753
0.00467867
0.000297378
0.00672244
0.00672124
0.0221649
0.00235821
0.00672507
0.000855152
0.00861627
7.34841e-05
0.00755566
0.00673273
0.00737162
0.00672331
0.00672073
0.00211894
0.00673301
0.00672663
0.00503361
0.0190462
0.00321444
0.00672309
0.001917
0.00561462
0.0028527
0.000153562
0.00465237
0.00163569
0.0022949
0.000298334
0.00672296
0.00231275
7.02801e-05
0.0056463
0.00672443
0.000308545
0.0038309
0.000793267
0.000717972
0.000585784
0.00672473
0.00127537
0.000320088
0.00409569
0.00179306
0.0211241
0.000510581
0.00672566
0.00391201
0.00413841
0.00686496
0.000315306
0.0223098
0.000915375
4.41204e-05
0.00247322
0.00289011
0.000829685
0.00671846
0.00671579
0.00124674
0.00672068
0.00293838
0.00145191
0.00362829
0.000327865
0.00672353
0.00135022
0.00329762
0.00151482
0.00066857
0.00097205
0.000395598
0.00610666
0.00672417
0.0168437
0.000626343
0.00113572
3.06496e-05
0.0015496
0.000198478
0.000376404
0.0089519
0.00381402
0.00734659
0.00173187
0.0056626
0.00393213
0.00449191
0.000910021
0.00379449
0.00236343
0.00672641
0.000633712
0.0067251
0.0098466
0.000520201
0.000397886
0.000429275
0.000961393
0.006731
0.00126467
0.000764109
0.00236852
0.000718899
0.00017176
0.0191307
0.00184483
0.0002588
0.00596092
0.00136484
0.00644011
0.00672849
0.000371731
0.00135858
0.0041497
0.000262987
0.00672199
0.00672324
0.000125958
0.0035197
0.000177671
0.00217178
0.00133336
0.000597578
0.000326017
0.000235662
0.00367403
0.00182339
0.000334502
0.00672586
0.000704738
0.00151829
0.00651444
0.0011103
0.00013744
0.000913672
0.00112996
0.000157692
0.00318253
0.0219368
0.000612962
0.0237467
0.000601177
0.00672053
0.00669332
0.00129121
0.00447037
0.00174053
0.0001893
0.00672656
0.000382631
0.000161478
0.00570153
0.000130951
0.00331393
0.000347124
0.0018424
0.0221164
0.00117491
0.00672154
0.00360061
0.000556504
0.00641656
0.00672944
0.000965382
0.000640507
0.016409
0.00588474
0.000698237
0.0184885
0.000986761
0.00578096
6.08997e-05
0.00672221
0.00031377
0.00615496
0.00672178
0.00103793
0.00223571
0.0159852
0.00478217
0.00955236
0.00202036
0.000507823
0.000356102
0.00398663
0.00250023
0.000169699
0.00626249
0.00676313
0.000498429
0.000255315
0.0165446
0.00674958
0.000435809
0.0015663
0.00037013
0.000516123
0.00679674
0.0067473
0.00208729
0.000306603
0.00117094
0.0105593
0.0011832
0.00672423
0.00601053
0.00673053
0.000922313
0.000397387
0.0203472
0.0194363
0.000330226
0.00672235
0.000417951
0.00340725
0.000405084
0.00348684
0.000300671
0.00496135
0.0204067
0.00620884
0.00044221
0.00178463
0.00913222
0.00191611
0.000283417
9.14247e-05
0.000130286
0.00223591
6.42661e-05
0.00537084
0.0220586
0.000265028
0.00672816
0.0008368
0.000220412
0.0001767
0.00202972
0.00672356
0.00136823
0.000991397
0.00163291
3.83537e-05
0.00672635
0.0249682
0.00414817
0.00474198
0.00181088
0.000655881
0.00672375
0.0199154
0.00068935
0.00177498
0.0130166
0.00672173
0.000986179
0.00094158
0.00200482
0.0114947
0.00206338
0.00672626
0.00046585
0.000552685
0.0141912
0.00224379
0.00219215
0.00105508
0.00144546
0.000114029
0.000589108
0.00106109
0.00673274
0.000773384
0.00584109
0.00120402
0.00387431
0.0218222
0.018081
0.00529394
0.00643233
0.00672607
0.00419117
0.013896
0.000562745
0.00110265
0.00170906
0.00377824
0.00672241
0.00673086
0.0109705
0.00673613
0.00172828
0.00111392
0.0251545
0.00121436
0.00672077
0.00672387
0.00432637
0.00672329
0.000240279
0.0100997
0.000298435
0.00833965
0.00672357
0.00587225
0.011073
0.0147822
0.00317384
0.0245715
0.000124469
0.0252718
0.00672019
0.000146386
0.0014814
0.00672393
0.00196235
0.00523201
0.00237743
0.000534072
0.000358643
0.00343192
0.00448518
0.000481549
0.000573406
0.00672617
0.0252299
0.00427974
0.0115789
0.00672468
0.00322811
0.0015526
6.82639e-05
0.00260871
0.0156977
0.00685444
0.00839638
0.0143746
0.0048133
0.00460396
0.00170171
0.00672252
0.000257687
0.00210393
0.000147141
0.00225931
0.00409482
0.0067205
0.00632574
0.00208679
0.000405879
0.00067651
0.00303197
0.00672452
8.47362e-05
0.00677022
0.00056405
0.00672469
0.00166527
0.000939602
0.00334034
0.00054786
0.00672625
0.000470086
0.00671883
0.00100197
0.000161385
0.02437
0.000917298
0.00672612
0.000264459
7.5092e-05
0.000375946
0.00045257
0.000254416
0.000295895
0.000451081
0.000554841
0.00111193
0.00630315
0.0227072
0.00151296
0.00116307
0.00672146
0.000687883
0.0067217
0.00378518
0.00672203
0.000154566
0.000258333
0.00674791
0.00194441
0.00153891
0.00672425
0.000868179
0.00671792
0.000161606
0.0142311
0.00248249
0.0232597
0.00672045
0.00672612
0.000140189
0.00672648
0.00672574
0.00141689
0.00171547
0.000736301
0.000161042
0.00303372
0.000396074
0.0067344
0.00672256
0.0067265
0.00672294
0.000327116
0.00658515
0.000987666
0.0139847
0.00672126
0.00672125
0.0164459
0.00672606
0.000722572
0.00235589
0.0197612
0.000324327
0.000115869
0.000459221
0.000362892
5.82037e-05
0.00291539
0.000209073
0.000883708
0.00667915
0.00653784
0.00100093
0.00194643
0.00454421
0.000263764
0.00672069
0.00159931
0.000579182
0.00283533
6.20988e-05
0.00199897
0.000120024
0.00310417
0.00485128
0.00672668
0.0019051
7.40979e-05
0.0034501
0.000626768
8.78632e-05
0.019992
0.00147872
0.000833417
0.00153901
0.000162988
0.00672673
0.000248332
0.000484823
0.00248975
0.0067415
0.000861171
0.000731861
0.0105357
0.0141648
0.000271903
0.00170119
0.00672029
0.0028264
0.00583583
0.000509983
0.00632999
0.000389381
0.00434973
0.00426123
0.00672464
0.000216559
0.000457938
0.00230012
0.00345577
0.00672224
0.00020474
0.000403415
0.00680285
0.00101911
0.000530764
0.000346985
0.000955541
0.000420893
0.0112164
0.00103324
0.0186612
0.00040714
0.00672486
0.00100211
7.96918e-05
0.0254502
0.00672147
0.0208764
0.000911415
0.000406592
0.00672622
0.00115016
0.00186234
0.000894106
0.00668337
0.000433651
0.000526506
0.000115793
0.00672586
0.00159287
0.000247194
0.000342126
0.000330094
0.00672622
0.00133351
0.000917921
0.000284091
0.00672666
0.000174448
0.00115073
0.000250585
0.0216687
0.000647836
0.00151926
0.000198371
0.00584863
0.000263248
0.00672487
0.000897625
0.00141401
0.00198526
0.000440593
0.000617884
0.000248741
0.000275745
0.00112877
0.000956795
0.00673493
7.3843e-05
0.00190407
0.000391721
0.00057951
0.000855143
0.000444233
0.00672317
0.00585519
0.000180448
0.00325901
0.00190067
0.000969686
0.00313814
0.000192758
0.0012334
0.0218959
0.000479032
0.000312678
0.000641805
0.0175587
0.00672257
3.33369e-05
0.00676678
0.000455421
0.000769137
0.0177257
0.000215963
0.000301869
0.00672503
0.0023129
0.00672273
0.000310264
0.000665388
0.0250538
0.00563728
0.00148101
0.00672101
0.000241436
0.000139845
0.00672182
0.00587865
0.0067272
0.00094133
0.00186544
0.00220846
0.000927342
0.000956036
0.00453812
0.000445123
0.000216082
0.00176449
0.000371133
0.00672182
0.00208353
0.017351
0.0067209
0.0123555
0.000692349
0.000348701
0.0110584
0.00672089
0.00141933
0.0004321
0.00482153
0.00672133
0.00672442
0.0014209
0.0234002
0.00672038
0.000336777
0.000363648
0.000573716
0.000719166
0.00128415
0.000432573
0.00672608
4.63254e-05
0.00672311
0.00214058
0.000828887
0.006729
0.00127122
0.000305649
0.00672391
0.00352233
0.000363903
0.0231046
0.00335264
0.00274864
0.00672553
0.00672538
0.00144579
0.00672144
0.00634397
0.000366345
0.00672655
0.00339804
0.000948416
0.00636297
0.000587891
0.00671617
0.000748169
0.000400598
0.00672314
0.00416394
0.0067244
0.024048
0.00672643
0.0176945
0.000253959
0.00674277
0.00677217
0.00116826
0.000268183
0.0130307
0.000130025
0.000386129
0.00112502
0.0162945
0.00016142
0.000956332
0.000997462
0.000161557
0.000480063
0.00101804
0.000684376
0.0106749
0.011127
0.00391458
0.00192509
0.00409482
0.000717576
0.00022523
0.00678563
0.00353396
7.15113e-05
0.0067258
0.00235991
0.00672177
0.00674283
0.00227103
0.00395232
0.003998
0.006721
0.000271419
0.00672339
0.000111115
0.00221681
0.000280678
0.000126395
0.00352999
0.0194521
0.00072555
0.00672646
0.00124408
0.00676333
0.000347471
0.00447787
0.0213576
0.00102096
0.00250942
5.56979e-05
0.0198561
0.000494551
0.0181712
0.000616561
0.000248301
0.0038
0.00232731
8.18105e-05
0.00109639
0.00364112
0.00674705
0.00555457
0.00273665
6.37396e-05
0.00506075
0.000534541
0.0226238
0.000820279
0.00189994
0.000775676
0.000394938
0.000785405
0.00672295
0.000253667
0.000372717
0.00144549
0.0067237
0.00672373
0.00142123
0.00672654
0.000548296
0.0139051
0.000600924
0.00533265
0.00025123
0.000923601
0.0176188
0.00672352
0.00575277
0.00672041
0.000516831
0.00256517
0.00360572
0.000572859
0.0133374
0.00615249
0.00672445
0.00618106
0.00384312
0.0020381
0.00207035
0.00157275
0.00650107
0.000812268
0.00671896
0.00950148
0.0151654
0.000408925
9.33681e-05
0.000434512
0.00473186
0.00672461
0.0219925
0.00672287
0.000308679
0.0067578
0.000617535
0.00672658
0.00724994
0.00672043
0.000654647
0.00673931
0.000170204
0.000253087
0.00675748
0.00023383
0.000398941
0.000546849
0.0233417
0.0245321
0.000138378
0.000931897
0.00188263
0.000582532
0.000512866
0.00409614
0.000704148
0.000390032
0.00383403
0.00876332
0.00544694
0.000670142
0.00033626
0.000216349
0.000487264
0.019094
0.00678363
0.00675377
0.00029783
0.000377316
0.000280686
0.000216867
0.000729483
0.0067205
0.000806386
0.00970402
0.00574226
0.00672463
0.00443823
0.00594789
0.000243402
7.82298e-05
0.00966583
0.000321059
0.0009707
0.000268161
0.000560723
0.00436965
0.000336643
0.000465374
0.00673546
0.00385182
0.00672641
0.000525924
0.00177602
0.00048774
0.000329823
0.000257873
0.00141216
0.000627215
0.000491235
0.00967484
0.00484612
0.000373395
0.00170442
0.000553834
0.0010709
0.000134115
0.00671889
0.00105788
0.000107772
0.000238757
0.00465586
0.000291577
0.000889783
0.000252381
0.0249177
0.0192379
0.00103253
0.00010877
0.00557879
0.00258269
0.00146675
0.00667982
0.000181547
0.00124487
0.00165622
0.00672422
0.000153704
0.00176561
0.0211079
0.000425095
0.00159978
0.00672475
7.897e-05
0.000519804
0.000722546
0.00386856
0.00673568
0.00672138
0.000718415
0.00672543
0.00165611
0.00137817
0.00194539
0.000533071
0.0061953
0.000865911
0.00239189
0.000647507
0.00052355
0.00672604
0.0088541
0.0021462
0.0067241
3.26917e-05
0.000122165
0.000164162
0.00131403
0.00043417
0.00166139
7.14397e-05
0.00182865
0.00182268
0.00672448
0.00423665
0.0011889
0.0238335
0.00152191
0.00572286
0.00672107
0.000155444
0.00635357
0.003587
0.000488695
0.000140217
0.00672262
0.000655096
0.000305376
0.00609259
0.00672045
0.000182429
2.59573e-05
0.000331212
0.000256701
0.00148446
0.00213594
0.000129998
0.00108989
0.0227605
0.00269935
0.0138169
0.00672468
0.00633577
0.000279805
0.00672626
0.00264785
0.000189173
0.00672628
6.24701e-05
0.00634966
0.00615034
0.0124161
0.0133476
0.025298
0.00533183
0.00272805
0.00672652
0.00040062
0.00675207
0.00675957
0.0067266
0.000114661
0.012098
0.00415169
0.0004403
0.00411838
0.00142553
0.000284818
0.00356815
0.00672158
0.0247939
0.00598711
0.0067265
0.0067256
0.00811746
0.000316261
0.00232583
0.00672287
0.00622616
0.00448717
0.00423928
0.000378242
0.00672618
0.00713053
8.35722e-05
0.00218976
0.00393023
0.00208843
0.00553366
0.00674837
0.00384477
0.00672662
0.00672633
0.0146924
0.00560091
0.000107627
0.0177871
0.00380633
0.00213423
0.000318526
0.000536032
0.00105761
0.000362973
0.00523596
0.00672366
0.00189112
0.00176941
0.000532741
0.0222729
0.0067399
0.0045438
0.000383418
0.000936132
0.00124069
0.0067197
0.000179288
0.000689739
0.00310781
0.00672611
0.000387871
0.00261159
0.000279823
0.00194358
0.0133195
0.00890488
0.000116126
0.000271115
0.00490547
0.000932367
0.000462961
4.31947e-05
0.0183414
0.000399061
0.00672373
0.0250924
6.79364e-05
0.000909315
0.00131499
0.000724648
0.0011258
0.00344924
0.00656887
0.00672293
0.00196903
0.0117898
0.00713829
0.000346476
0.0110137
0.000541378
0.00320184
0.00676111
0.00528737
0.000572867
0.000282739
0.00676264
0.0181885
0.00674781
0.00672121
0.00198863
0.000319627
0.000314112
0.00388273
0.0106711
0.00065373
0.00576575
0.000517119
0.00908223
0.000139289
0.0049344
0.0054732
0.00101615
0.00115607
0.00101357
0.00672022
0.00052912
0.00672131
0.000659664
0.000114583
0.00131854
0.00672516
0.000173124
0.00210298
0.00676436
0.0110488
0.000498984
0.00032246
0.00679886
0.000553746
0.00672607
0.000136448
0.00145822
0.000106974
0.000384885
0.00899967
0.000209761
0.0115998
0.000285872
0.000510588
0.00672776
0.0135901
0.000100674
0.000393355
9.91474e-05
0.00672521
0.0163706
0.000264375
0.000177591
0.0140602
0.000240236
0.011128
0.000168465
0.00442811
0.000443132
0.000284425
0.00672429
0.00352136
0.00673952
0.000310757
0.000497264
0.000288017
0.00253032
0.00672759
0.00671896
0.000728724
0.000377581
0.00187997
0.00673175
0.00496215
0.00155215
0.000611025
0.00230253
0.00451885
0.000412003
0.00548006
0.000127133
0.00197253
0.000312249
0.0067239
0.001035
0.000538622
0.000488649
0.00333655
0.0067186
0.00275359
0.00602834
0.0195678
0.00579425
0.000441432
0.000599563
0.00377466
0.00672125
0.00315298
0.0122101
5.86937e-05
0.000451836
0.00119928
0.00172245
0.0214469
0.000157395
0.000335057
0.00141412
0.0018213
0.00674465
0.000109139
0.00034437
0.00612567
0.0218848
0.00476371
0.00817448
0.0236199
0.00581354
0.0021201
0.000335738
0.00101413
0.00647492
0.00178269
0.00440218
0.000335241
0.00308775
0.00343593
0.00491166
0.00595366
0.0237964
0.00687184
0.000857352
0.00672094
0.00736532
0.000568186
0.0026317
0.00583252
0.000245098
0.0116954
0.00671874
0.0125894
0.0235437
0.000170056
0.00108234
0.00462678
0.00244164
0.006723
0.00105729
0.00126531
0.000990725
0.000970631
0.00171107
0.000765792
0.0131588
0.00759279
0.000323712
0.000823343
0.0057751
0.0101496
0.00672445
2.61904e-05
6.96065e-05
0.00704819
0.000820128
0.00324399
0.00176085
0.000863062
0.000389608
0.00672112
0.000235074
0.00136402
0.00076925
0.000119958
0.00672494
0.00173657
0.0101894
0.0220822
0.00430966
0.00050859
0.000268482
0.00674317
0.00542477
0.00148164
0.0067559
0.000370011
0.00628775
0.0067265
0.00673254
0.0218774
0.00128125
0.00173768
0.000586221
0.000720793
0.000269797
0.00125333
0.000215207
0.00195294
0.000709202
0.00326854
0.00169262
0.00386905
0.000586098
0.00327301
0.00100828
0.00671916
0.00672632
0.000433315
0.000362102
0.00671856
0.000230413
0.00109674
0.000440327
0.0254072
0.0038067
0.0185893
0.00672651
0.000397852
0.000404663
0.000492309
0.00672434
0.000480857
0.00106536
0.0103567
0.00010584
0.000381176
0.0067236
0.0221449
0.000395444
0.00613703
0.00332586
0.0139321
0.000918215
0.000400985
0.0206259
0.000438078
0.0111592
0.000555104
0.0040743
0.00053614
0.00579131
0.002084
0.000757517
0.000783773
0.00898878
0.00176619
0.00470949
0.00467921
0.00569779
0.000738464
0.00508393
0.000239142
0.00672289
0.00108641
0.000342095
0.00015308
0.0246669
0.000482706
0.000447594
0.00116784
0.00672661
0.00487018
0.000156666
0.00139803
0.000100314
0.00433963
0.0035341
0.000156773
0.00178504
0.0033341
0.00672172
0.000560983
0.000484185
0.00076245
0.00121064
0.000513313
0.000707368
0.00320225
0.000115541
0.00141917
0.00433525
7.59798e-05
0.00115781
0.000118058
0.00014016
0.00622034
0.000618125
0.00614568
0.0138164
0.00361839
0.000259278
0.0065581
0.00518921
0.00127855
6.99153e-05
0.00587932
0.000431981
0.00742892
0.000206787
0.004416
0.00035761
0.0067374
0.00167298
0.000943254
0.00137002
4.18693e-05
0.0149762
0.000614962
0.0226358
0.00815939
0.00228013
0.0101892
0.0067284
0.0232388
0.00641167
0.00672464
0.00672211
0.0125884
0.00279191
0.00672373
0.00140314
0.0215124
0.000309883
0.00156165
0.00543175
0.00672289
0.0230387
0.00859668
0.00672443
0.011187
0.000272588
0.00510438
0.0116371
0.00977761
0.0110073
0.00672315
0.00100041
0.00130426
0.000800333
0.00672367
0.0107617
0.00672451
0.0110585
0.00391516
0.000136402
0.00904179
0.0122875
0.00483052
0.0116829
8.40313e-05
0.00318739
0.000209309
0.0018379
0.0067332
0.0243192
0.000308736
0.00674818
0.00097778
0.0059511
0.0246297
0.00272797
0.00929445
0.00190032
0.00672862
0.000380719
0.000420391
0.000233942
0.0103563
0.000525128
0.000268157
0.00143469
0.000543402
0.00103042
0.000770797
0.000379072
0.000875523
0.00672569
8.17518e-05
0.00176861
0.000447703
0.00848009
0.00365887
0.000283948
0.000125484
0.000856369
0.000718382
0.00672884
0.000185271
0.00672792
0.000358023
0.0203341
0.00436239
0.00672026
0.000875815
0.0042487
0.00221832
0.000457836
0.0010299
0.00106689
0.00322354
0.00140858
0.000898939
0.00216094
0.00671983
0.0217857
0.00672548
0.00225301
0.000360372
0.0194819
0.000516327
2.94834e-05
0.000106104
0.00117559
0.00304525
4.83479e-05
0.00103476
0.00192972
0.00050039
0.000344079
0.000354548
0.00109201
0.00148331
0.00011783
0.000629545
7.58192e-05
0.00127504
0.000270782
0.00143108
0.00421097
0.000310714
0.00443888
0.00113542
0.00673561
0.000303353
0.00129491
0.000932429
0.00748791
0.00109248
0.000299019
0.00673027
0.00253878
0.00672621
0.00672573
0.00145499
0.00672229
0.000326908
0.00142723
0.000770791
0.00365546
0.00186208
0.00335372
0.0182628
0.00358567
0.020096
0.00987213
0.00519116
0.000493568
0.000508376
0.00144913
0.00672683
0.000356444
6.58998e-05
0.000534496
0.00499696
0.000670932
0.00655757
0.000939318
0.00672481
0.00671873
0.0134385
0.00504111
0.00187764
7.89978e-05
0.000227909
0.00227427
0.0122288
0.00672558
0.000903197
0.00462871
0.00147406
4.53074e-05
0.000266165
0.00266254
0.00102731
0.000218077
0.00167741
0.000539029
9.24985e-05
6.90932e-05
0.000147549
0.000397192
0.00128779
0.00169077
0.000493029
0.0196691
0.000267779
0.0214253
0.00146152
0.000427871
0.000252913
0.00236514
0.00672108
0.000388872
0.00672641
0.000933368
0.00382953
0.00672908
0.00677199
0.000196709
0.0232752
0.000624421
0.000340924
0.00289913
0.00390058
0.000577176
0.00347214
0.000315432
0.00327979
0.0230356
8.78402e-05
0.00439747
0.000130072
0.00672658
0.000111473
0.000960725
9.7292e-05
0.000390533
0.00026397
0.00896907
0.00672436
0.00819933
0.003265
0.0013701
0.00170592
0.000625603
0.00672391
0.00012557
0.021851
0.000119275
0.00274174
0.000470211
7.42281e-05
0.0047964
0.00676305
0.00239674
0.0147518
0.00189945
0.00792484
0.0048489
0.000121899
0.00672658
0.000143822
0.000136681
0.000365105
0.00152556
0.00345869
0.00472264
0.00674013
0.00550716
0.000295176
0.00352281
0.00457855
0.0214438
0.0067276
0.000229796
6.59529e-05
0.0068067
0.0166089
0.00118009
0.00882023
0.00413688
0.00161339
0.00176114
8.00627e-05
0.00276181
0.00110658
0.00672797
0.00141188
0.0185336
0.00100333
0.000152323
0.0019394
0.000911912
0.000111995
0.000468995
0.00382686
0.000196666
0.000978801
0.00119814
0.000468567
0.00626873
0.00673919
0.00672416
0.000943647
0.00274343
0.000654911
0.00922488
0.00076822
5.38518e-05
0.000947859
0.000403432
0.000789909
0.00160578
0.00663399
0.00164496
0.00275482
0.000259253
0.00926454
0.000267439
0.00100254
0.0177294
0.020172
0.00270718
0.000252267
0.000178019
0.000161431
7.58536e-05
0.000384778
0.00154637
0.00645772
0.000210543
0.00672656
0.00293913
6.10524e-05
8.05158e-05
0.00672574
0.000510162
0.000150371
0.000922435
0.00672644
0.0067223
5.80143e-05
0.00227219
0.00338538
0.000676938
0.00308234
0.00175649
0.000121885
0.00671905
4.80459e-05
6.97127e-05
0.00249887
0.000609477
0.00672199
0.00978577
0.0182864
0.000346724
0.000655841
0.000373931
0.000662186
0.00672539
0.00074896
0.0067592
0.00244047
0.0067265
0.0201726
0.00673919
0.000558676
0.000181359
0.000575872
0.00184668
0.00672402
0.00167547
0.000203725
0.00298242
0.00528463
0.000208222
0.000277301
0.00727024
0.000248381
0.0200087
0.00234693
5.5245e-05
0.00021847
0.000249037
0.0042892
0.00672387
0.00320207
0.000110209
0.011419
0.00672464
0.000719224
0.00115361
0.00672635
0.0034922
0.000574839
0.00319132
0.00672275
0.00298435
0.000429889
4.46675e-05
0.00142343
0.000654876
0.00677285
0.00326112
0.0113446
0.0066231
0.00535708
0.000464193
0.00413688
0.00164096
0.00672572
0.000305028
5.11759e-05
0.0190403
0.0116683
0.000254376
0.000839981
0.00671988
0.00672042
0.0027955
0.00224793
0.000182496
0.00049216
0.00089159
7.05619e-05
0.00501667
0.00191763
0.00674488
0.00672488
0.0044419
0.0017863
6.72917e-05
0.000438029
0.00316393
0.000457131
0.000140708
0.00402276
0.00399499