/*--------------------------------*- C++ -*----------------------------------*\
| =========                 |                                                 |
| \\      /  F ield         | OpenFOAM: The Open Source CFD Toolbox           |
|  \\    /   O peration     | Version:  v2012                                 |
|   \\  /    A nd           | Website:  www.openfoam.com                      |
|    \\/     M anipulation  |                                                 |
\*---------------------------------------------------------------------------*/
FoamFile
{
    version     2.0;
    format      ascii;
    class       volScalarField;
    location    "100";
    object      omega_0;
}
// * * * * * * * * * * * * * * * * * * * * * * * * * * * * * * * * * * * * * //

dimensions      [0 0 -1 0 0 0 0];


internalField   nonuniform List<scalar> 
13851
(
0.1252
0.0241845
0.0240968
8.52044
0.0220846
0.0255768
0.0253545
0.0218051
3.90986
0.0220322
0.0668086
0.0220814
0.0220899
7.04535
0.0347599
1.00041
12.4045
0.0219547
0.284375
0.120568
0.0355389
0.0262592
25.7625
0.0222638
0.737327
0.0949939
3.3847
0.711536
3.5172
0.0217603
10.5967
0.0253095
0.131254
3.73497
0.0423118
3.47383
0.0222741
4.22231
7.44582
0.0220453
3.74786
3.49581
30.0915
0.886019
3.52316
0.0218646
0.0216054
0.301658
0.0234815
0.0220849
5.38146
0.0221505
0.846321
0.0360015
7.02955
0.0220415
0.130293
3.73907
3.24091
6.45793
0.0220898
3.39036
0.0220962
0.0236348
0.273054
0.296248
8.08635
0.0716127
0.0221206
8.73867
11.1009
0.0397332
0.0219912
7.42347
0.0359948
0.0238498
11.252
0.0216744
0.699754
0.0219372
0.0221428
0.405851
0.0421299
6.62308
6.40506
10.9998
0.0263759
7.1041
0.0220138
10.3722
0.0221957
0.0254155
22.8399
10.4316
8.4044
0.500049
0.0218933
0.881083
6.02305
0.239541
1.30369
0.0446971
0.0483454
0.0220369
0.0218557
0.0384364
0.0218565
11.1606
0.0253815
0.0219266
0.0314098
0.021863
0.161853
0.0555618
0.157667
0.0345553
0.0217653
0.0217705
8.70394
8.50212
0.295213
0.0218203
0.022097
4.4982
0.238146
0.135638
0.0218918
0.0590877
3.85193
0.0400293
0.0261653
0.0301824
2.26389
3.75473
0.0672232
8.82518
0.0689043
10.9585
0.0363752
0.040879
0.393399
0.0225832
0.0220138
0.119126
0.673006
0.0235527
0.0216681
10.3473
4.00142
0.0616331
1.05667
0.160989
0.0595228
0.224286
0.0222381
0.0220436
0.0221057
8.65898
0.0383246
0.0240294
0.022243
3.4944
0.0377853
0.3281
6.84771
3.68703
3.67733
5.1447
0.0308651
2.20509
0.0221064
0.0217676
0.0453945
0.0221398
8.20699
3.68592
1.23986
0.0217555
0.0366919
0.945232
0.217808
0.824621
0.0300187
0.0397674
34.2211
3.92441
0.131592
0.0298476
0.0221742
0.0218081
0.573138
0.0381131
9.01994
0.0256981
0.023414
0.898874
0.130554
0.0221862
0.022216
0.0770328
0.408353
6.06981
3.83845
0.0347965
3.46581
5.43742
0.0237206
0.0446186
3.93189
0.0251735
0.968166
0.0220761
0.413656
0.0222369
0.0427882
0.0245782
0.0220646
0.244133
0.0222287
3.80758
0.021753
0.1167
7.6552
8.57715
0.0294524
0.0452442
0.0222651
0.101565
0.0220029
0.0422282
7.77504
0.029449
0.0251172
0.0221189
3.78814
0.0217557
22.6908
3.9017
0.201869
0.0222514
1.81831
6.58235
3.51253
0.749617
0.0304692
0.164902
0.220342
0.0375687
0.463256
0.033324
7.82406
0.110381
0.0218354
0.0258227
1.219
3.50055
4.89753
0.0218043
0.141798
0.0220102
0.253614
0.227027
0.026246
0.0381703
0.118472
0.0219543
0.0463189
0.172977
0.807444
0.0220792
0.022065
0.0296041
3.75982
10.8317
0.0382766
0.0218402
0.23444
0.224564
0.119446
0.037808
3.80306
6.46682
0.0262646
0.0325114
8.84258
0.0218499
0.0221049
0.121592
0.0578223
0.0217556
0.022234
0.021993
0.0220028
0.0307365
0.0220981
3.87448
0.0365515
0.0219465
3.49288
4.6683
0.0221656
0.123528
5.16586
0.0227256
0.022197
0.0373719
6.82921
10.7493
0.0478781
0.022074
1.87365
0.0220979
0.0519788
4.63258
1.05109
0.0238764
8.05674
1.23284
11.65
0.162405
0.0471561
8.09492
4.1785
0.653126
0.0222883
11.0294
24.3038
0.995512
0.849685
0.0237432
0.0485079
0.030156
6.62185
0.0515614
0.021869
0.021546
0.0273151
11.5634
3.21305
0.0218434
8.53959
0.0304486
0.0305544
0.0242168
7.79529
0.220364
1.11277
0.0243119
0.0247402
3.41357
0.0221793
0.232653
0.0262091
0.037382
0.0307544
0.0220088
0.0219435
0.181194
0.262638
0.111263
2.15436
3.41874
0.0236518
3.82198
0.404929
0.0217221
1.69793
0.0679196
4.9142
0.0268333
0.114551
3.22241
1.03632
0.175055
6.61149
0.0226764
3.73864
22.2091
0.0286437
6.01488
0.0301397
4.28664
0.0322002
0.0541375
0.114033
0.368043
0.02204
0.025859
0.0629376
0.0368273
0.0218827
0.0389566
3.68251
0.0219876
0.0434997
8.9551
0.0239844
7.53566
0.0534434
10.4452
0.0255777
0.0885553
2.81162
0.232282
0.0381254
6.03464
7.47127
1.54275
0.0219556
0.180157
0.0304676
0.110563
0.0218331
32.3337
3.88682
0.881784
0.0246795
0.116125
3.49005
10.5365
0.0216166
12.9565
0.426144
24.5897
0.034319
0.681703
0.0220141
0.022128
8.56039
3.53547
0.0220295
0.0242015
0.0438903
0.0218028
4.01521
0.0484394
0.0662394
0.0262969
0.0226874
0.0221794
1.05981
0.0219412
0.0221631
3.35852
3.71282
0.025799
3.22089
0.0221036
0.0220968
0.0242738
0.117004
0.0560962
0.0218909
0.0229049
0.278085
0.023431
11.2847
0.0220762
0.0292028
3.53119
0.0365151
0.0215926
0.0221255
0.0261073
0.0223438
1.54558
3.37503
0.0306144
7.51602
0.0243053
0.0220514
3.9308
3.23377
0.0359985
0.0219988
4.29815
0.0351981
11.8976
0.0220374
0.0302008
0.181788
0.0368018
4.03307
3.47195
0.854329
0.0238584
0.163112
0.0219495
3.52116
0.0528861
0.128855
0.0301706
0.0241033
0.0363766
0.045497
0.0220958
12.2694
3.99664
11.405
7.45925
3.37893
10.1428
0.232202
0.0284094
0.0222123
13.0573
0.0220369
0.0218826
0.0306106
7.96892
0.0240779
0.0225943
0.100957
0.0401808
0.0220478
1.1251
0.0218994
3.82686
1.43901
0.0219322
0.023645
0.411356
1.28255
0.0217607
5.70743
17.933
0.021717
11.138
0.265985
0.112455
0.023828
3.36216
5.95433
0.0217332
0.289126
0.0221059
0.0218996
3.24509
4.48277
0.0337436
0.0552792
0.0220393
0.0681686
3.81646
8.32965
0.0218318
10.2265
0.0218889
0.0221258
0.0383152
0.0300834
0.0216112
0.0238513
11.1497
0.33108
11.1062
0.0237659
0.0220054
3.7209
0.0221856
0.177816
0.0283398
0.0352893
0.0302353
3.4881
5.60416
0.0255732
12.9791
0.0235765
0.0512635
3.49967
5.5579
0.0220823
0.0219534
0.0485604
11.0893
3.0663
0.0677672
17.7839
0.0303416
0.0318459
9.37459
1.3184
0.195658
3.86817
0.591634
3.43705
0.0224931
3.23644
0.487749
0.0220763
13.5838
1.26583
0.0308307
0.0407004
0.0220257
6.95499
0.0839317
18.0674
0.0219432
0.0221662
0.0267091
0.0399211
0.022087
8.12439
0.0221608
0.395888
0.023943
0.111194
0.0220264
0.0220474
0.0475806
10.9956
0.0383469
8.77524
0.0303095
0.0218107
0.0217771
0.0462437
0.022899
0.089627
0.0244471
0.0353839
3.20956
0.0221873
6.09624
0.022255
0.173521
11.6767
3.5977
0.029337
19.1127
0.0969734
0.381011
1.39173
0.0218972
1.24496
0.0304286
0.0291201
7.25026
0.492991
0.0217343
0.088069
0.0221659
3.44538
7.21005
0.0222366
0.0766726
4.53161
0.0222654
0.0222547
0.0980543
8.04789
3.34028
0.0222046
0.115282
0.0232362
0.0220451
3.19537
0.116841
0.217404
0.0215992
0.173413
0.0482055
0.0820972
0.0226434
0.0232535
0.0789029
0.0265279
0.211245
0.039544
0.0393105
0.157064
4.21101
0.269643
3.57391
3.92575
0.678928
5.4517
0.040975
3.27432
0.121893
0.0219139
0.0311723
0.240305
0.0268814
0.0219407
0.021938
0.167845
8.0534
0.0292856
3.87158
0.0218151
3.36402
0.179168
5.15528
0.0892675
0.0256741
0.0241067
4.92025
0.214089
0.0392001
3.5216
0.0225509
9.86353
0.172563
0.422089
0.0302304
0.54677
0.0220098
0.0222471
0.0234498
0.0220418
3.51921
0.0220021
3.17119
3.75852
0.0926448
7.93895
5.561
0.419409
0.40756
0.0289074
0.0221837
0.0220482
0.0216814
0.0217767
0.0221419
0.0504625
0.150128
0.0523161
0.65022
0.0231714
3.95893
0.0222942
8.11112
0.0398933
0.0222848
0.0221356
3.62552
0.0257697
3.44927
1.20743
0.0400149
0.0494844
0.0217013
3.76746
0.0244876
0.0240964
3.20648
0.0221874
0.0225982
0.0218724
0.0505584
7.10452
0.0283167
0.0302759
0.433695
9.18861
0.0294237
0.0271248
3.46477
0.021679
3.46157
0.0222026
0.0234659
0.661342
0.0803426
0.143255
0.0974265
0.0384689
0.0222306
0.022294
0.0548658
0.0225362
0.0222375
0.0305734
0.433204
0.0219827
0.347829
5.53766
3.40194
0.0953567
9.61678
0.0372131
0.0221794
0.175093
0.0218295
0.0259331
3.5603
3.41081
1.33182
3.45876
0.0223104
0.0221897
0.0757243
0.0230757
0.021829
26.2184
0.317291
5.88829
0.179553
0.081836
0.0220405
0.0217655
8.12508
0.0660824
0.0237542
0.0222548
0.151811
0.192856
3.97041
0.0222256
0.022154
9.17224
0.0226218
0.0301701
0.021808
7.7566
0.0219067
11.249
0.0220697
0.175785
0.0336862
0.0761667
0.0302644
0.0219915
0.0241855
0.0220227
3.13647
0.0226253
4.19199
0.0226147
3.82374
3.88142
0.029258
0.0220044
7.85847
3.4072
0.025876
0.0832521
0.0220503
7.93821
0.0219351
0.238624
0.0220596
0.0220194
3.43478
0.0304053
0.0221147
0.0363282
3.74868
5.85999
4.5269
0.0218067
5.09805
0.0220715
0.0219905
0.0222355
0.0215127
0.022237
5.42997
3.58527
0.0222391
0.0221569
0.0338878
0.0218637
7.3343
0.180231
6.21668
7.59661
0.0241592
0.215803
0.0220679
0.0351265
0.13824
0.0218825
0.0222108
2.17289
6.65483
0.048295
29.469
0.0525772
0.0221012
0.036087
0.0858712
10.3994
0.0300039
3.36476
0.0675136
0.0222257
15.0417
13.2752
5.46974
0.55984
3.21259
0.0238048
0.15905
0.0221683
3.91387
0.0263948
0.0218706
4.82939
0.0230531
0.0220052
0.0220847
0.0228873
7.88034
0.233884
0.0218528
0.0361749
6.93569
0.023195
28.7073
0.0232129
0.0691584
4.87106
0.0221011
3.08655
0.0294365
0.0302687
6.5105
0.0230211
0.385516
0.0888174
3.72044
0.0222744
5.04684
0.0283293
5.07938
8.49846
6.60957
0.0411923
0.0220094
0.0223241
0.0222649
0.0509537
0.0221268
3.95798
0.0291967
0.0281966
0.0291613
0.0237395
0.0218042
0.0293593
0.0272959
0.0236324
0.0271659
3.25569
3.10134
0.0281133
0.0511704
4.99045
0.0226366
11.7638
0.021687
0.0334883
0.0226359
0.0219311
0.0459004
0.0220449
0.0218469
0.0466204
0.0220509
0.434185
0.0227484
13.0851
0.566919
0.204892
0.257254
0.0220842
8.84341
0.142778
0.0222284
0.027208
0.0225007
11.7539
0.023201
0.045635
2.15808
9.75788
0.0893084
0.0221531
3.50269
2.05424
3.24326
0.0294369
0.0218018
0.0218168
0.0478258
0.0220103
6.96229
0.180045
0.0222033
0.318746
0.437426
0.0218539
2.73585
12.0213
0.277336
0.0227256
3.48788
0.0496335
0.022019
7.59849
0.0269567
0.0218358
0.0219153
0.0347796
0.0501877
3.8327
10.6226
0.0448762
3.71121
0.0348112
0.0219963
0.0880848
0.0219451
3.36128
0.0218483
0.0220477
0.0240922
0.0225043
3.82437
6.37622
3.26682
5.5703
3.22733
0.0293982
0.0219887
0.0227517
0.39793
0.0218318
0.021823
0.042026
0.69339
2.94638
0.0216443
0.0388887
0.0303401
0.109855
31.717
0.0217144
0.0216007
0.0237814
0.908662
0.0306296
3.80207
0.0232271
0.0221651
0.021838
0.0219071
0.0245281
0.305907
3.4269
3.65406
0.0291919
0.0220515
7.21774
0.0223492
0.708739
4.95088
0.0307993
10.4022
3.51684
9.46198
0.0658192
0.0299341
4.66335
0.0285453
0.0342879
0.0782441
0.384152
0.022507
6.05058
0.0219987
3.53071
0.906987
0.0216906
0.0239509
0.0468405
0.426012
0.0305325
0.0221445
0.0284383
0.0231817
0.0261649
1.5579
0.0221694
3.42716
7.14278
0.0220008
0.0293999
0.0491495
0.0220836
3.40633
17.4656
8.44241
3.7374
0.0220331
0.024661
0.0261982
0.0222378
3.2186
0.0309367
0.0222589
0.0612484
0.0259568
3.69401
0.0340661
8.1589
0.0231322
0.0232323
0.0527075
0.065361
0.0512056
0.0219581
17.6908
4.66217
29.4112
11.0563
3.54497
3.72552
5.26233
0.0219641
0.0220068
0.0220089
3.07253
0.0537922
0.0517076
13.515
0.0222031
0.0216597
0.0220362
2.84902
0.0216598
0.0264103
0.0237419
3.39331
0.0229162
0.0218372
0.022086
0.0219389
0.0221635
0.0350204
3.22132
0.0343817
4.33645
0.0220184
0.0219073
3.8659
3.80823
8.28511
3.3669
0.0500628
3.33979
0.0217974
0.0651808
0.0232392
0.0220762
0.0246658
10.4926
0.023019
0.0666162
6.01678
0.0222541
0.0219178
0.0265561
0.416367
0.0222727
3.38676
0.0219948
3.04681
0.0221283
0.0222353
0.0259892
0.106747
0.0220947
3.40681
11.0284
2.79032
3.73999
0.0220154
10.4044
2.91701
0.0220389
0.963111
0.0222334
0.0426706
0.022178
0.0221606
0.0219575
0.0220459
0.0224245
0.0273202
0.0495325
0.0222129
0.0220963
0.0645221
0.0217162
4.83436
0.0221283
0.0293158
0.0361483
5.64696
0.619005
0.0221539
0.362847
0.0218037
0.0343871
0.0740781
3.34094
0.0424098
0.0222729
0.16973
0.0811223
0.0728582
0.438259
0.0363767
0.133587
0.0649155
0.0545285
0.0228867
0.0218325
3.41526
8.4829
0.0244675
0.0220147
27.1941
0.0218174
0.0344847
0.0219491
0.0880705
1.65923
0.0215522
11.9376
0.0254846
0.0221724
1.28258
0.021872
0.0413966
3.61677
0.0337034
3.41646
0.021952
0.0222658
0.0446801
0.0222301
0.0222484
0.0285702
0.0279111
0.0488253
0.092887
0.0220531
0.0389868
0.0218203
0.02206
0.0222198
0.0220439
2.3118
0.0218756
0.0232518
3.23387
0.021812
0.0220029
3.77642
0.0222521
15.6938
0.0231802
3.65648
0.225647
0.0540978
6.2157
0.0626677
2.55552
0.0223643
0.195933
0.0265926
0.0218209
0.021868
0.0232364
0.028891
0.0219321
0.0543108
0.0218952
0.0231927
28.3406
5.82284
5.70318
0.0245415
0.0479293
4.57782
7.57118
0.0221799
0.026255
2.62057
0.0221649
0.0377302
3.49904
3.62
0.0275073
0.0406496
0.0227754
0.441137
0.0222867
0.0364406
0.682988
0.0221192
0.021813
5.12734
0.0394997
3.30686
3.72164
0.163489
0.0223688
0.0218997
0.0222718
10.8175
0.481431
4.68092
0.0538978
0.0220388
4.09391
0.0221113
0.16954
0.0269019
0.0235276
0.0350526
0.0220528
1.39921
2.4287
0.0216835
0.0477663
0.0548687
4.17618
0.0388252
0.0699211
3.26416
0.0354307
3.06505
0.0663283
0.0221146
0.0361646
0.0860715
3.38629
0.022028
3.34374
0.0408493
0.0796849
0.0222735
5.87227
0.0257537
0.0236277
0.0218357
0.0386962
0.0371558
0.058974
0.0221328
0.0226668
0.0580264
25.3596
0.059258
0.0221641
0.0226116
0.0368357
0.199228
0.0221787
0.0966943
8.82244
0.0485763
3.58016
0.0501373
5.81849
0.371829
0.0219644
0.903143
0.0222386
0.0249841
0.0324079
0.0308629
0.0831194
0.0489288
0.0437394
0.0453685
0.0290109
0.0242121
0.0216539
0.0913598
0.025223
0.0290498
0.616732
0.0260229
0.0306153
0.0219339
5.81596
0.0868776
0.0220547
0.0244278
0.0233075
6.7841
0.17476
0.0325089
3.50751
0.476148
1.35889
0.0683517
3.07972
0.0218775
0.343215
0.0218148
0.0270618
8.40583
3.40389
0.323652
2.78299
0.0221252
7.80754
0.0218742
0.0880629
0.0253562
3.28643
5.24474
0.0276701
0.0220246
0.323037
0.044441
0.0220071
11.4881
0.0220682
0.0237219
0.0252473
0.0221731
0.0292321
0.0233641
0.0220332
0.0345249
0.542455
0.0343999
0.0591311
0.0220011
5.03152
3.39383
0.0220048
3.36388
0.0252748
0.029472
3.92592
0.0220011
0.0226545
0.0281614
4.19002
0.02202
0.0221844
0.0341413
3.2119
0.0219873
0.0324983
0.0345444
0.634567
0.0416094
0.0342756
0.342715
0.0220734
0.131934
0.021703
6.84272
0.0289944
0.0220425
0.0285266
0.0922729
0.0221527
0.0221438
0.116718
3.39457
0.0223382
6.57154
0.0221912
0.0216941
0.0472628
0.022028
0.0218753
0.958227
0.0222753
0.0336619
1.03666
11.6982
0.572949
0.0218164
0.0240544
0.0283279
0.0220767
0.0220096
0.022097
3.20012
0.0222003
2.99544
0.133771
0.0218001
0.0217276
0.0283878
0.134429
3.31673
0.0590191
0.0584977
0.0238654
3.83717
0.0835118
0.0347362
0.0382951
0.069563
0.0769922
16.4761
0.04641
4.03588
3.88569
7.22194
0.024429
0.0219321
0.0351766
0.0347644
0.0218043
0.0223491
0.157158
0.0222448
0.0223053
0.0220453
0.0216013
0.0235909
0.0220302
11.9358
0.0220217
1.22621
0.0220844
0.0975811
0.0225352
0.123855
0.0861419
0.0220145
3.58561
0.0240341
0.0222294
0.0355067
0.0218098
0.031127
0.0219549
3.41343
0.0242398
0.0347427
0.110467
3.57486
0.0286469
2.99217
0.578639
0.0517144
0.022082
0.0228822
0.126409
0.0495214
8.23475
0.0217607
8.19779
0.0220531
0.0958591
11.0604
0.034961
3.23805
0.0252856
0.0293944
0.0249321
2.31873
0.0300175
0.022143
0.0496293
0.117366
0.0233301
0.0220242
0.0221454
7.79698
0.0222552
0.0279083
3.80263
0.0262644
0.0219579
0.0578482
0.0249053
3.57949
0.0216593
0.0219933
0.0218551
0.0262021
0.0223465
0.0220983
0.0527861
3.90457
0.0219456
0.022103
4.65771
0.0222454
11.0618
0.0242356
7.76011
0.0218437
0.0244017
0.021801
4.50295
3.73079
0.0307451
0.0771922
0.0271737
0.0219132
0.0221187
3.41305
0.022138
0.0922291
0.0217402
0.0532045
0.022196
4.5235
0.0218254
0.0459276
0.0218356
0.715811
1.46875
0.0217911
0.0452906
1.3352
0.0542302
3.38984
3.23163
0.323149
0.0234263
0.0304177
0.0703471
0.972918
0.0221928
0.0456068
0.028376
0.0219496
4.52597
8.19788
0.050495
0.130557
0.337415
0.0332089
3.68732
0.021797
0.0217852
0.0946832
2.13219
0.188577
0.168123
2.67754
0.0217976
4.37849
4.60315
11.6838
0.0222039
9.30205
10.1199
1.55262
4.47584
4.53699
0.0891906
0.0288108
0.163074
0.0256754
0.0219378
0.908573
0.0670062
0.0216401
5.42118
0.0221939
0.0296333
0.035233
0.0268619
0.460089
0.03557
9.80252
0.0487508
0.026276
3.99288
6.43801
0.109591
0.0223704
0.0259252
0.0542971
0.0625357
0.0218214
0.0405784
0.0666677
0.141787
0.0219425
0.170493
0.0243928
0.049975
3.40775
3.06088
0.0230888
0.157524
10.8727
0.0221172
0.0227875
11.5399
0.405505
0.0241859
0.024329
0.0220934
0.0797284
0.0256479
3.47886
0.0852353
0.0224672
0.0222238
0.0694198
0.0298314
1.58309
5.45153
0.0218529
0.0220233
0.027447
0.0221974
0.0239481
0.0229118
0.0227157
0.0258924
0.0219146
0.0249453
0.022166
0.0475395
0.715923
0.0222651
4.15951
17.5698
0.0217023
0.300683
0.156098
0.0934127
0.0226825
0.0683021
0.0261523
0.0862181
0.0278849
0.0232159
0.02221
8.95035
0.0307519
3.40663
0.0226505
0.0220232
0.0220137
0.0754167
0.0219416
0.0381902
0.0595443
2.27194
0.0219054
0.914937
1.44058
4.54583
0.0217908
0.150825
1.22563
1.24004
0.57131
0.0225504
0.0222574
0.20584
3.3436
3.38251
0.0338391
3.34146
0.0222316
0.0218404
0.0405615
0.0222005
0.0221308
0.177569
0.0222667
0.0970383
0.0218351
4.94176
3.73944
3.73851
3.40822
4.72862
0.0221034
0.0221525
0.90521
0.0217746
0.0218016
0.0216956
0.141893
3.72445
8.55134
0.0277442
0.0221128
0.0231497
0.0378047
6.83164
0.0220386
3.25736
5.15995
0.0221948
0.0221824
5.03699
0.0866381
0.0234908
0.0220283
4.73949
3.92847
0.0219871
0.285882
0.0222553
4.47335
4.48806
0.0239123
7.4524
13.0152
4.81002
0.02182
0.0221893
0.022248
0.0222868
3.78571
0.0218864
0.319911
3.11459
7.31075
0.0226267
0.0571733
0.501515
0.0408021
0.884909
11.6293
0.0216352
0.0252828
0.025356
0.637664
3.56119
0.0215893
6.80192
0.0325153
0.0392129
0.0226808
0.0219461
0.314787
0.037182
7.48653
0.0222
0.0531076
0.0225515
0.118444
0.0240484
3.93687
4.01397
0.363377
0.146711
0.0219372
0.0239242
0.0647372
0.271091
3.7209
1.03106
0.0221514
3.31481
0.0992353
5.856
0.0286605
0.039418
0.0344687
0.0220882
4.72007
0.0220673
0.0296445
3.80458
4.15568
1.36387
3.73696
0.0285791
0.0378418
0.0217466
5.1681
0.027535
0.667144
0.0217373
3.57788
0.0215594
0.021991
0.029258
0.0318634
0.0330047
0.0219436
4.42393
0.0466843
0.0218888
0.0365707
4.72215
0.845373
0.0220125
11.3714
0.0244247
0.0343953
0.0340981
0.021686
0.0565943
0.0219822
5.29123
0.0891921
0.0283149
0.022011
0.42812
0.03341
0.021736
3.92675
0.477338
0.22201
0.0216679
0.681634
0.0221477
0.172483
0.0277195
0.138
0.527253
4.81521
0.0351895
3.74746
0.0492878
0.0288171
0.0218084
3.70319
0.130392
0.0897184
0.0636135
0.0222438
3.27826
0.0865111
0.422466
3.19191
1.40494
4.327
2.56378
10.2429
0.029273
0.0321279
0.0220971
0.0220763
0.021606
0.220767
0.029342
0.0333567
9.83901
0.0219174
0.0218492
0.0447498
0.116377
0.026879
0.0217863
6.45086
0.0239888
0.0521704
0.0221636
10.8431
0.0290585
5.22419
0.0591801
0.0303582
0.0513381
0.0220885
11.8697
0.445912
0.0607934
0.0219979
0.0219076
8.51358
11.3995
3.47005
0.0218485
0.0626352
0.796613
0.0220495
0.0220049
0.0220709
3.75659
0.111141
0.0342094
0.0293888
0.0259908
3.54597
0.0957175
0.23769
0.0275518
0.0294971
0.0215956
0.147952
0.0530789
0.0219916
3.37741
11.3451
3.77444
3.37533
9.85292
9.29876
0.952626
0.0231395
0.0218465
4.52738
4.42351
0.660298
0.022029
0.0332632
0.0220442
0.0219413
3.1696
4.38661
0.046255
0.0219911
3.63357
0.0656079
0.0386652
5.38878
0.656254
3.42042
0.0219131
3.96655
3.16946
0.433117
0.0334694
0.0344531
0.0221662
0.0218603
0.0341227
0.0381154
0.0244721
0.038178
0.0268093
0.0251477
2.9904
5.19517
0.0319592
0.0412834
4.52823
2.99553
0.0221122
0.523186
1.26971
5.25378
0.0367918
0.0221387
0.027656
0.026509
0.030465
0.0216842
0.0337103
0.0305761
0.0435497
0.313859
0.022231
0.0230194
4.53963
3.4635
6.97139
0.427706
0.172016
0.0215433
0.0220444
0.0282174
0.021738
1.48692
0.0220267
0.0222749
0.0217181
3.37607
23.1682
0.0223721
0.0504494
0.0279961
0.0359352
0.0281495
0.0357034
0.0339417
0.0347554
8.97706
0.025711
4.00546
0.0371628
7.55272
0.0279942
0.0219345
0.0218038
0.0696989
0.116793
0.0218143
0.0402879
0.0280409
0.0535019
3.38728
7.24817
3.54889
0.0222746
0.425017
0.0300932
0.0358748
0.0220128
0.0617717
0.0237771
4.03057
2.67236
0.0392236
0.022075
3.44554
0.0275122
5.60442
4.15789
2.98639
0.0243475
0.105911
3.53293
0.406477
4.29093
0.0523016
0.0219461
0.0376935
0.021849
9.78135
0.0247194
0.0302054
3.62209
7.87858
0.0219109
0.0219269
11.8351
0.0373234
10.9722
0.0331937
0.022031
0.0364644
0.266243
0.0447369
3.3388
0.0352391
0.394677
0.0248077
0.022248
0.0219124
0.338527
0.0226368
0.148756
0.0220376
0.0220008
0.333545
0.0261533
0.0220959
0.0220324
0.0343433
0.40039
0.0425585
0.0339027
0.0265672
0.0505622
0.0220018
0.187711
0.0284614
0.0349591
0.0734548
0.0304476
0.0944021
0.0469495
0.0218294
0.0507533
9.35063
3.60427
0.0221036
3.36164
5.5186
0.021937
0.0226423
1.12031
5.13129
0.0280905
5.25947
0.337176
0.0220547
0.0769997
0.0216035
0.0254334
0.048712
8.50818
0.671231
2.92385
0.588459
3.35721
4.24682
0.0235441
4.51382
0.0220223
3.13508
4.23985
0.0221024
0.022085
3.82188
0.022105
0.0220832
2.1905
3.59339
0.197356
0.0263129
4.52907
0.0221055
3.45111
4.88624
0.0221914
3.61635
1.82887
4.74385
4.20118
4.63893
4.14528
0.0218656
0.0232001
0.0469446
0.0473224
0.0220755
2.95689
0.022027
4.39526
3.38458
0.0511876
3.40944
4.19827
3.48109
3.17386
0.0629769
13.2434
0.547237
0.0251996
0.0216384
3.23027
0.0351384
0.0217697
5.87198
0.0219517
3.2897
0.0221296
3.72166
0.0256248
0.021958
25.5886
0.0276141
0.0362961
4.15293
0.812129
3.49676
0.0282861
0.0565595
0.023329
0.0428564
0.101667
0.039989
0.0222127
2.17868
0.0442919
0.032786
4.89569
0.0335559
0.037686
0.259606
0.0543994
0.0444208
0.0219539
0.204549
0.0218025
0.103569
3.16201
4.76126
0.0218631
0.0348636
8.93675
0.0232138
0.0575217
0.0335644
0.0363185
5.43437
0.0439247
0.0234516
18.507
0.0218756
3.43015
0.0221307
0.0229149
0.107199
3.45807
0.0322199
0.439048
0.805012
0.031584
0.022204
0.187723
0.0384532
8.89215
0.0267023
18.5685
0.117461
0.0325749
0.0277623
0.116404
0.0352272
0.0788941
0.0440255
0.0389236
0.024119
0.0221097
2.97996
0.0219836
0.0275423
0.0216092
0.110659
0.0276417
0.0447565
4.8792
0.0230381
0.196969
0.0215329
0.0221339
0.0221937
0.0222105
0.027487
0.0219312
0.0793535
6.62863
0.0462318
0.0361325
0.0251635
0.0220369
3.03223
0.0219872
3.5243
4.05046
10.3417
0.353461
0.0342423
0.0277791
0.0221844
0.0301192
0.104357
0.0400226
3.85692
0.0486209
11.4968
0.779441
0.0222112
0.0218319
3.66305
0.0219199
0.028033
0.0683996
0.330368
0.0233667
3.83733
0.0221783
0.0256582
0.0220469
0.022577
0.189147
0.131643
0.0222233
0.0341785
0.035428
0.0371997
0.0532597
0.686829
0.463025
0.336917
0.330297
0.027852
0.0229678
0.0573982
3.4312
0.950632
3.49732
0.0310588
0.696317
0.147879
0.0227272
0.021985
0.0795758
0.0221512
0.0353773
11.0663
0.0219436
0.0218102
0.539847
3.13686
0.0505848
1.44528
0.0220986
7.1247
0.0394036
7.3429
0.0296614
0.0219924
3.46943
0.0612672
0.0220057
0.0780479
0.0222558
0.190806
0.0278816
0.0558747
3.05906
0.0340184
4.17123
0.0219165
11.1832
0.022094
0.0255232
0.0224968
0.0419338
0.0221461
0.0583105
3.4437
1.38752
0.0388664
0.031941
0.0829107
0.0218945
0.0219286
0.0229932
3.56917
0.0251573
3.96052
5.77889
0.164345
0.0222202
0.170302
0.267313
0.118996
0.0274649
4.35797
0.0219457
0.021548
0.0219348
0.959513
0.0220821
0.0219865
3.48109
0.0219543
0.165457
0.109975
0.0218025
3.80474
0.0306014
3.73192
0.0219282
3.26471
0.0228371
0.0751768
9.02017
0.0462443
0.0219249
0.0283096
3.55986
0.0347328
0.173354
0.0287619
0.0260502
0.167138
0.0293015
0.0222467
37.5601
0.0282267
0.0300397
0.850328
0.0219453
0.0218422
0.0221899
0.0349508
0.0220926
0.0260843
4.1696
13.2627
0.111417
10.9221
0.0768046
0.0412741
7.28278
11.7315
0.0223999
13.7735
1.29625
4.72868
1.04907
0.0292158
3.57051
3.53578
17.6057
0.973291
1.72461
0.0440013
0.090194
0.0297481
0.0268052
0.0222291
2.15367
0.0222861
7.97382
0.139653
0.433967
0.0216037
0.0576483
0.0473877
0.023609
0.0222935
0.0221196
0.137436
0.0236505
0.0222679
0.0468999
10.514
0.0240423
0.194214
0.0218185
0.139186
0.0899685
0.0221247
0.0269462
0.0219352
3.71652
3.7082
0.140983
11.4607
0.0334036
0.0615716
0.0221365
0.0433658
0.0220971
0.02232
0.0222371
3.57826
0.0217703
0.0575896
1.03275
0.0280734
0.0290528
0.0219791
8.09991
0.198686
13.2045
5.93833
0.172896
0.258817
5.27889
0.300935
3.12902
15.0622
0.140373
0.0340819
0.686064
6.46669
0.0220327
7.0545
0.180458
3.79652
0.0216187
0.0477593
6.24224
0.0222742
8.61213
0.0255093
4.9969
0.0220941
0.0221012
0.0619782
0.266606
0.0276601
0.0536426
0.0217994
0.022136
4.13494
4.73985
8.57762
0.0657892
0.0222327
0.0224123
0.0221416
0.0363946
1.46604
3.68334
3.82195
0.605673
0.0304573
0.0219514
0.0219831
6.7776
7.01423
0.323937
0.0264372
0.0247789
0.0894635
8.00994
6.90028
0.0215417
0.0219413
9.19878
0.0230083
0.30822
0.0281614
0.0220238
0.0323952
0.047903
5.2987
9.59205
0.0222029
0.0218106
0.024573
2.97849
4.96079
0.0222674
0.147674
4.59837
0.0215503
3.1369
3.47169
11.8863
0.022112
7.29663
7.16411
0.039124
0.383892
0.0253086
0.339036
0.302615
0.0252472
0.0219227
7.08465
0.440356
0.0217948
0.119612
0.138502
0.0282561
0.226118
6.86046
3.74238
7.12355
0.0290376
0.0235072
0.0231765
3.78489
5.22679
5.0577
7.85847
4.70993
0.0217281
0.0417531
0.0220696
0.0221185
0.0249365
0.021957
0.0220518
0.0221359
3.54616
16.8082
10.2596
0.0594553
0.158939
0.0362801
0.0218377
0.0219873
5.04969
0.022146
5.97557
3.49235
0.0221857
0.0218978
3.69835
0.0225363
0.742557
0.0253145
0.0217397
0.021726
4.29234
0.0216816
10.2764
4.71823
0.0215873
0.0368922
0.0219135
0.0229737
0.0218992
0.127416
3.45778
0.0219613
3.81859
0.595445
0.0240256
0.0218926
0.022599
0.0235163
0.0222306
0.540097
4.32245
9.66358
0.0481702
8.17573
0.0222745
0.0257232
0.0222375
0.212181
0.0233646
3.57388
0.0218535
4.3607
0.728971
10.7063
1.29548
0.0218498
0.0400716
0.0218973
4.26863
0.0218932
0.0286368
0.0259973
0.025122
0.0221239
0.0222519
0.0329253
3.74191
0.0221683
0.0228392
0.0238373
0.0337791
0.651797
0.0221944
6.90367
3.42962
0.023733
3.70354
8.67115
3.26164
1.05133
0.0215575
0.0230616
3.36666
3.62793
0.152478
3.41409
3.56336
0.03243
0.0391989
0.0295995
4.595
0.0220234
0.0219645
4.52088
0.100844
7.47138
0.0248054
0.0216848
0.0220355
8.51854
0.0551207
0.0234599
0.296812
0.0218421
0.0640397
0.0282799
0.0285717
0.0220419
0.0221941
0.0219086
0.0244808
1.8053
6.34979
0.0215945
0.0219124
7.66636
0.0220284
0.0663188
0.0260248
0.0256511
0.0447276
0.0222865
4.69571
0.0286011
0.0253528
33.65
0.0637257
0.0232211
0.039509
0.0220048
0.0224631
8.99583
0.318095
3.84848
0.0222956
0.0221616
0.0588182
0.0273006
0.0220164
0.0418973
11.3241
0.0258716
0.0394089
0.0254511
0.109882
0.0221186
0.0217388
8.1302
4.50713
4.33311
0.0219443
0.133282
0.0216484
0.0220066
0.0997405
3.67838
0.049929
0.0273734
0.130135
0.0228428
0.0290618
0.0531956
0.881725
0.0223182
0.0216444
0.0225174
0.0236426
0.0294856
0.0219427
1.67228
9.63249
0.0221213
0.0324636
0.0223947
0.0216893
4.35432
5.41925
7.90235
0.0830535
0.0223747
0.0514997
6.12768
0.0914549
0.168725
0.0343711
0.0299996
10.7946
0.279273
1.01144
0.0217515
0.0307695
0.0220993
0.0290158
4.27677
0.02163
0.0404532
0.0255409
0.0300638
0.0230321
0.0218199
0.0218698
3.63976
0.0366191
0.029305
0.04817
0.035068
0.598177
0.0314657
0.5646
0.0219008
11.0842
4.52146
0.889801
0.0222649
0.029227
0.0220867
0.0219289
9.81148
0.0366928
11.5188
0.0219746
0.0464285
0.617633
3.76982
0.0282108
0.0216787
0.98179
0.0222864
0.0222851
0.0225648
0.0220231
8.57765
0.0218142
0.0218539
0.0364574
0.0274091
0.163831
0.14668
0.0335457
3.82413
0.02207
0.212092
0.0218173
11.4986
0.0337448
0.630726
0.127085
3.62315
0.0997668
10.6658
0.0230813
1.36704
0.0328794
10.2051
0.23791
0.0280822
0.265119
0.0221019
9.44891
0.0231099
0.0367529
0.0272927
9.84275
0.25317
11.8393
0.0312469
0.0219907
10.6343
0.290876
0.0752156
0.144502
9.13494
8.97107
0.0391638
0.331564
0.0358572
0.021857
0.0475097
0.326686
0.0725004
19.7894
0.135472
0.0217551
0.0219724
0.157854
0.0220883
4.87652
0.0752127
0.0220822
3.39768
0.446954
3.20523
0.11954
0.0220302
0.0291717
0.0258026
8.7852
3.43991
0.0258211
10.5408
0.0218806
0.0319096
1.27318
0.021982
0.0378407
0.0219181
0.0261609
0.0222517
0.185764
1.01283
0.0304064
0.0294956
0.021721
0.16198
0.0218903
0.0218094
0.0333579
0.0219106
0.261614
6.50465
2.47058
3.8361
0.0217772
10.9736
0.0221952
0.0377452
0.151114
0.022105
1.77171
0.0733099
0.0219994
0.0216754
0.0370558
0.0377749
0.210176
3.0268
0.0258975
0.023953
4.13754
0.0492635
0.235074
1.10787
17.6997
3.36161
11.5527
1.4255
0.0221376
0.0221176
0.0463052
0.0221673
0.0496914
0.0456176
11.705
11.4416
6.06906
0.0217233
0.0217874
0.133326
3.67779
11.7894
1.30874
3.41275
0.0560374
0.033105
1.33913
1.24601
0.0275015
7.23772
0.033686
0.0285054
11.6372
0.041544
0.0220309
3.54618
1.2687
0.0250806
0.162235
0.023047
5.08866
4.67881
0.561964
0.0219928
0.0216802
0.109909
0.0219957
0.0219498
0.0220013
0.0217245
0.0220087
0.0220174
11.3969
0.028085
0.0477592
11.9175
0.0218872
0.0220287
0.0291174
0.0274824
0.0262154
0.02204
0.0672893
0.0306681
0.0265292
0.0919957
3.92214
0.0220541
0.0348873
0.0220696
0.0220195
0.0215963
0.0220853
6.82408
0.0219055
0.022002
0.0221014
0.04334
5.87611
11.616
10.807
1.05804
0.0361746
4.91237
1.13413
0.0219449
0.0431504
4.57992
3.04895
0.0221177
0.0302487
0.0433696
0.0386746
0.02206
0.0547717
0.0597472
0.0457881
0.0216365
0.0517432
0.482971
0.0215924
0.981988
6.91861
0.0433785
0.771798
0.0348596
0.02209
0.0252976
0.0219885
0.276169
9.83967
0.0217027
0.0444859
0.0219512
0.0219825
0.0221515
0.0222865
0.0377015
0.0221795
0.142807
0.166303
0.0257797
0.0246485
0.0384726
0.0220362
0.0454124
0.0345417
0.0223725
0.0221052
0.0221474
6.15927
0.0219892
0.225564
0.0480749
0.0222563
0.0219993
0.0217878
4.04168
0.0254304
0.0437024
0.0507601
7.9758
0.028292
3.90689
0.831522
0.0439797
0.0219561
0.191013
0.0369618
4.48387
0.0729457
11.5301
0.0216932
0.0486848
0.0480471
3.7705
0.02198
0.037634
6.78768
0.0218385
3.17469
9.4804
3.44597
0.0219541
0.0218061
3.87369
0.0220379
11.1318
0.139055
11.8851
4.30297
0.0218738
0.162634
0.186099
5.22527