/*--------------------------------*- C++ -*----------------------------------*\
| =========                 |                                                 |
| \\      /  F ield         | OpenFOAM: The Open Source CFD Toolbox           |
|  \\    /   O peration     | Version:  v2012                                 |
|   \\  /    A nd           | Website:  www.openfoam.com                      |
|    \\/     M anipulation  |                                                 |
\*---------------------------------------------------------------------------*/
FoamFile
{
    version     2.0;
    format      ascii;
    class       volScalarField::Internal;
    location    "100";
    object      V0;
}
// * * * * * * * * * * * * * * * * * * * * * * * * * * * * * * * * * * * * * //

dimensions      [0 3 0 0 0 0 0];


value           nonuniform List<scalar> 
13851
(
0.0053444
0.0199442
0.0263994
0.00133739
0.170856
0.0234191
0.0285044
0.151019
0.00141949
0.0770123
0.0090752
0.0975612
0.0346859
0.00115649
0.0128307
0.00437362
0.00119239
0.049105
0.0036946
0.0060661
0.0136594
0.0218866
0.00164016
0.181605
0.00300367
0.00748026
0.0031413
0.00283103
0.00184285
0.0850552
0.0018596
0.0295022
0.00589224
0.00225577
0.00890041
0.00211809
0.183542
0.00232433
0.00186755
0.042237
0.00187467
0.00185712
0.00138075
0.0032501
0.00199277
0.0684629
0.165871
0.00400099
0.0327914
0.040644
0.00138589
0.0399818
0.00492906
0.014535
0.00157311
0.0310275
0.00514851
0.0015941
0.00336734
0.00144842
0.103009
0.0034215
0.0938404
0.0241217
0.00376325
0.00304378
0.00113173
0.00500051
0.0456813
0.00138909
0.00148161
0.0107533
0.0413043
0.00130129
0.0141022
0.0237557
0.00162307
0.122014
0.00342693
0.0820813
0.0414314
0.00405408
0.0111203
0.00151156
0.00141888
0.00185644
0.0196304
0.00137957
0.0631857
0.00148084
0.0408677
0.0264481
0.00135518
0.00164393
0.00178946
0.00310389
0.0692175
0.00496108
0.00132696
0.00473482
0.00429752
0.00840745
0.00817593
0.0403472
0.0663961
0.0106644
0.0749333
0.00136377
0.0276229
0.0479262
0.0139808
0.0776312
0.00422947
0.00688517
0.00494981
0.0174588
0.0880778
0.154544
0.00109176
0.00173306
0.00384779
0.076254
0.0335387
0.00130309
0.00418914
0.00458468
0.0709122
0.00783633
0.00172013
0.0100873
0.0197605
0.0165081
0.00257162
0.00214319
0.00751209
0.00177938
0.00664297
0.0013729
0.0110806
0.0115359
0.00436651
0.029411
0.0543641
0.0040071
0.00265213
0.0259804
0.126459
0.00162569
0.00168255
0.0064732
0.00342694
0.00514709
0.00651064
0.00401673
0.0359039
0.053376
0.135242
0.00146707
0.00799782
0.0224381
0.176609
0.00201464
0.0109123
0.00527735
0.00123578
0.00176092
0.00209736
0.00150392
0.0152613
0.00217079
0.106563
0.109139
0.00895317
0.160791
0.00173268
0.00347254
0.00418158
0.0962311
0.014501
0.00493774
0.00425084
0.00379551
0.0150248
0.0145066
0.00135502
0.001388
0.00494256
0.0127738
0.0373521
0.0792029
0.00265334
0.0116724
0.000858933
0.0226587
0.0260464
0.00516233
0.00398453
0.0435217
0.0459181
0.00649169
0.0042688
0.00169077
0.0020759
0.0136752
0.00156879
0.00145392
0.0236652
0.00943431
0.00160047
0.0190991
0.004448
0.0313099
0.0035196
0.159084
0.00964665
0.0194027
0.0427807
0.00327051
0.0471017
0.00116862
0.1071
0.00540853
0.0013482
0.001939
0.0124256
0.00901716
0.169486
0.00433319
0.094911
0.0113381
0.00188055
0.0142217
0.0235663
0.102413
0.00177299
0.0938602
0.00192271
0.00178976
0.00505963
0.16174
0.00266627
0.00147195
0.00221612
0.00491644
0.0162185
0.00311384
0.0034617
0.0137789
0.00313399
0.0130801
0.00126117
0.00559317
0.172433
0.0205572
0.00421604
0.00183969
0.0014084
0.0682921
0.00388755
0.0567283
0.00402441
0.0046185
0.0135186
0.00956504
0.00535255
0.0565639
0.00706718
0.0050863
0.00342869
0.0961839
0.0425751
0.0108899
0.00210385
0.00146124
0.00930257
0.0640893
0.00356812
0.00396728
0.00576029
0.0110975
0.0018213
0.00129923
0.0165439
0.0121325
0.00241943
0.0665554
0.127918
0.00427652
0.00817568
0.0812266
0.155163
0.077265
0.158357
0.0147721
0.133607
0.00143454
0.0107943
0.0425953
0.00184175
0.00101967
0.0396245
0.00490751
0.00130118
0.027004
0.0360436
0.0110387
0.00134953
0.00171187
0.00793636
0.165439
0.00250212
0.09982
0.00769643
0.00136692
0.00328217
0.0296659
0.00223283
0.00311322
0.00185069
0.00461699
0.00797116
0.00173499
0.00162931
0.00259643
0.0426828
0.00145227
0.00135534
0.00195529
0.0023451
0.0120147
0.00859847
0.0148501
0.00112611
0.00781249
0.14342
0.155891
0.0165143
0.00163169
0.00134335
0.0777056
0.00174492
0.0147297
0.0129316
0.020173
0.00108689
0.00418375
0.00446219
0.0250849
0.0218703
0.0015948
0.0353032
0.00373826
0.0194288
0.010574
0.0126945
0.0554287
0.04784
0.00514259
0.00431032
0.00516693
0.00280506
0.00178149
0.0176045
0.00163281
0.00391994
0.0842275
0.00300552
0.00608946
0.0014772
0.0196319
0.00719632
0.00338437
0.00246299
0.00551367
0.00143894
0.0260241
0.00274691
0.00153564
0.0156425
0.00112678
0.0143453
0.00187918
0.0132224
0.0105681
0.00555063
0.00310266
0.0482067
0.0205129
0.00649416
0.0124065
0.048666
0.00873001
0.00192037
0.0326257
0.00960547
0.00151023
0.0260722
0.0027428
0.00912014
0.00190207
0.0191512
0.00846945
0.00211853
0.00411895
0.0112859
0.00148381
0.00139376
0.00277887
0.0489936
0.00492492
0.0126961
0.00768936
0.0650879
0.00140681
0.00187283
0.00256812
0.0228061
0.00530193
0.00335246
0.00141994
0.0959949
0.00132129
0.00411505
0.00151848
0.0108089
0.00331667
0.0446536
0.152635
0.0012974
0.0030073
0.0672392
0.0159921
0.00908354
0.105803
0.00193109
0.00748747
0.00651763
0.0201223
0.0320847
0.0412407
0.00261982
0.0524703
0.0468351
0.00276966
0.00211466
0.0182842
0.00335505
0.0930495
0.126149
0.0266303
0.00463778
0.00931879
0.047839
0.0322902
0.00353406
0.0353445
0.00176287
0.133074
0.0195149
0.00192281
0.0079885
0.149332
0.102923
0.0206251
0.041209
0.00263161
0.00236717
0.0137912
0.00115225
0.0255678
0.0945713
0.00152571
0.00327514
0.0100432
0.0395525
0.0014986
0.0110043
0.00165445
0.030606
0.0152122
0.00513932
0.0138186
0.00190709
0.0027551
0.0030061
0.0173978
0.00400263
0.0541813
0.00161981
0.0114477
0.00329489
0.0160435
0.0257774
0.00954318
0.00842936
0.146567
0.00131106
0.00134843
0.00222941
0.00129883
0.00270675
0.00154606
0.00345442
0.0139087
0.13336
0.00270409
0.0748054
0.0603179
0.0119565
0.00186936
0.0265366
0.0268374
0.00494981
0.0083052
0.0603844
0.00242635
0.065974
0.00172909
0.00319758
0.069527
0.0293021
0.00370786
0.00290106
0.0947901
0.00249731
0.00250129
0.0702312
0.00178778
0.00388046
0.00469469
0.0203356
0.00268699
0.00142384
0.0592333
0.0034974
0.0502623
0.0669897
0.00287769
0.00146498
0.013386
0.00990527
0.0677838
0.00657525
0.00172838
0.00172574
0.0631648
0.00110381
0.0530772
0.0405457
0.0103473
0.0154557
0.0903441
0.0184165
0.00169583
0.0038279
0.00157346
0.0288076
0.0550479
0.00187182
0.12156
0.00542427
0.0209808
0.0146334
0.0155571
0.00192918
0.00143476
0.019722
0.0015808
0.0311424
0.00797237
0.00187875
0.00153227
0.0404197
0.0464765
0.0063437
0.00135821
0.00360332
0.0082297
0.00168281
0.014085
0.0120739
0.00191067
0.00238567
0.005382
0.00155025
0.00373534
0.00167738
0.0336694
0.00278467
0.0031804
0.0998053
0.00134439
0.00217755
0.014136
0.0109242
0.0399549
0.00151553
0.00579267
0.00205056
0.0441209
0.169218
0.012833
0.00910412
0.12891
0.00158387
0.162412
0.00403848
0.022713
0.00699669
0.0367556
0.0473279
0.00979677
0.00117304
0.0110488
0.00155683
0.0133059
0.0982969
0.0660565
0.00843524
0.0278367
0.00574129
0.0247274
0.00995629
0.00333332
0.122855
0.00119686
0.153599
0.00585647
0.00137691
0.00198927
0.0117073
0.0019858
0.00547238
0.00442197
0.00179954
0.057919
0.00179867
0.0129656
0.0144253
0.00147578
0.00307278
0.0584082
0.00616763
0.0418995
0.00164593
0.00126879
0.0323154
0.00508047
0.00212473
0.170371
0.139665
0.00567637
0.00109343
0.00261303
0.0220226
0.00546249
0.0346011
0.0599644
0.00284374
0.00482525
0.00494648
0.111094
0.00389759
0.00817442
0.00797625
0.0247751
0.0247851
0.00665093
0.0132238
0.00492373
0.0108126
0.0104005
0.00551459
0.00233546
0.00321675
0.00191928
0.00283245
0.00298261
0.0014193
0.00991323
0.00254798
0.00447486
0.0479831
0.0135524
0.00378404
0.0170923
0.0856003
0.0831506
0.00587668
0.00133557
0.0185073
0.00161341
0.0988945
0.0024849
0.00405032
0.00129017
0.00595372
0.018207
0.024744
0.00153176
0.00391293
0.011027
0.00257234
0.0368276
0.00275592
0.00504927
0.00416189
0.0149253
0.00357435
0.0383805
0.155656
0.0255978
0.0647459
0.00176429
0.126029
0.00352293
0.00178458
0.00551453
0.00170004
0.00100951
0.00387511
0.00355772
0.0138934
0.117678
0.0403085
0.100766
0.069206
0.151981
0.00770562
0.00514358
0.00679852
0.00284094
0.0257116
0.00155891
0.170801
0.00130456
0.0095161
0.150308
0.105196
0.00191523
0.0207113
0.00222485
0.00207291
0.00803387
0.00571463
0.0678058
0.00209816
0.0173648
0.0251218
0.00280891
0.122252
0.033874
0.0510441
0.00966286
0.00127309
0.0170644
0.0150277
0.00365055
0.00167694
0.0129202
0.0143781
0.00189172
0.106162
0.00202411
0.14937
0.0314327
0.00300031
0.00646129
0.00556669
0.00521812
0.00975142
0.123008
0.159958
0.00736944
0.0330173
0.102105
0.0186593
0.00364101
0.104272
0.0038925
0.00271214
0.00268432
0.00550962
0.00170764
0.010279
0.111642
0.00553371
0.093812
0.0184888
0.00239198
0.00184737
0.00183785
0.00193136
0.043699
0.0321956
0.00550975
0.0246148
0.0674994
0.00156247
0.00376111
0.00108662
0.00513224
0.00613928
0.052074
0.0642778
0.00225641
0.00616979
0.027644
0.156153
0.00369245
0.00428429
0.00161536
0.0357852
0.151147
0.00116439
0.030614
0.0143406
0.124968
0.00185569
0.143364
0.0016956
0.081353
0.00485026
0.0122768
0.0061291
0.0126472
0.0420199
0.0198474
0.147563
0.0031344
0.0286443
0.0015758
0.0264256
0.00277529
0.00174926
0.0136801
0.108331
0.00147891
0.00232011
0.0188086
0.00640093
0.0420401
0.00130394
0.0464029
0.00309243
0.0937993
0.112386
0.00241447
0.0128957
0.100454
0.0112978
0.00153513
0.00172059
0.00200899
0.0700594
0.00140954
0.0853828
0.133643
0.0342046
0.114534
0.125445
0.00202698
0.00220413
0.0362904
0.157939
0.012791
0.0406452
0.00168385
0.00477833
0.000940619
0.00169769
0.0183391
0.00449816
0.096159
0.0130001
0.00496977
0.0658424
0.136925
0.00331685
0.00111951
0.00762018
0.00108471
0.0073965
0.0849426
0.010913
0.005993
0.00123965
0.0147819
0.00252244
0.005622
0.116049
0.00167568
0.00152114
0.00120248
0.00263033
0.00249631
0.0175469
0.00283196
0.0369501
0.00296945
0.0179167
0.149016
0.00173088
0.0245429
0.128617
0.0379016
0.0287578
0.00163022
0.00388151
0.073947
0.0105655
0.00135387
0.025681
0.0015505
0.0226006
0.00570972
0.00182532
0.121142
0.00320776
0.0121417
0.01374
0.00175132
0.0258738
0.00423346
0.00902131
0.00164788
0.0421639
0.00123474
0.0157327
0.00129338
0.00126673
0.00120195
0.0102251
0.041658
0.0407082
0.179313
0.0114101
0.0975213
0.00159575
0.0150962
0.0144075
0.0111562
0.0206611
0.0780034
0.0188959
0.0175283
0.0231693
0.0168329
0.00168068
0.00313082
0.0157015
0.00843815
0.00218836
0.0301997
0.00164957
0.105691
0.0113559
0.0255616
0.0493422
0.00926703
0.0836127
0.0780695
0.00763165
0.0406002
0.00376684
0.0284164
0.00116319
0.00319621
0.00354976
0.00341408
0.0449588
0.00161342
0.00463495
0.137124
0.0151124
0.0280044
0.0018707
0.0223878
0.00774312
0.00295314
0.00142264
0.00646889
0.0404342
0.00208451
0.00333376
0.00233586
0.0127352
0.0949888
0.0596883
0.00618158
0.0405047
0.0012503
0.00444404
0.121814
0.00367004
0.00308866
0.045679
0.00184961
0.00152107
0.00455572
0.0225795
0.00192814
0.00865029
0.112851
0.00110059
0.0135245
0.0459382
0.0690017
0.0148854
0.0113265
0.001656
0.00144845
0.0114818
0.00162055
0.0145046
0.0458508
0.00421263
0.0823528
0.00254722
0.0682869
0.133138
0.0170379
0.0381091
0.00161773
0.0014874
0.0034618
0.00129681
0.00212473
0.0135309
0.0422646
0.0286047
0.00380098
0.0598341
0.140905
0.00962859
0.00285273
0.00343648
0.150873
0.0101088
0.0125424
0.00481639
0.00106257
0.0551817
0.0995489
0.0285941
0.00334441
0.0187486
0.00171094
0.0240937
0.152815
0.0568086
0.0644935
0.0209625
0.00409294
0.00181848
0.00164309
0.0116861
0.0886538
0.00258703
0.0328665
0.00274743
0.00139291
0.0115496
0.000957936
0.00175479
0.00161474
0.00771491
0.0144992
0.00139476
0.0152522
0.0106218
0.00449705
0.00360337
0.0380725
0.00152374
0.046246
0.00199944
0.00267922
0.101165
0.0180778
0.00824838
0.0034584
0.0143394
0.136901
0.0181825
0.0244991
0.0244133
0.00201291
0.0942293
0.00221461
0.00123923
0.0456968
0.0146619
0.0113193
0.0955347
0.0015434
0.00127763
0.001653
0.00142462
0.0853032
0.0210868
0.0174062
0.0329193
0.0036595
0.0124633
0.140319
0.00662904
0.0175894
0.00225082
0.0120706
0.00108639
0.0242903
0.0213346
0.00664951
0.00597403
0.00673046
0.0521644
0.00120141
0.00148593
0.00136974
0.00124942
0.00196321
0.00155033
0.001364
0.0523846
0.0527645
0.0413145
0.00347099
0.0104158
0.00696392
0.00124029
0.0416669
0.120189
0.0678003
0.00364163
0.0996227
0.0194874
0.0182008
0.00186509
0.0209076
0.0752753
0.099779
0.0447722
0.177199
0.00982116
0.00365767
0.00868254
0.00226626
0.0586556
0.0594934
0.00174721
0.00175779
0.00126564
0.00266762
0.0064048
0.00258008
0.0754244
0.00603676
0.0248795
0.0822047
0.0173088
0.00139107
0.0324142
0.00562603
0.00211208
0.0407342
0.0426306
0.0152478
0.00346092
0.15478
0.00178715
0.0464161
0.00357172
0.0989884
0.0389068
0.0213754
0.00459173
0.0294161
0.00278731
0.00108383
0.00369643
0.00199966
0.0459601
0.00133544
0.00293886
0.0633251
0.00270276
0.0342702
0.00648015
0.0364359
0.0452275
0.101776
0.0518581
0.0309268
0.0134514
0.00723631
0.0394374
0.0943266
0.00676869
0.0696835
0.00189213
0.102814
0.0142133
0.0134548
0.00137885
0.00297181
0.0953886
0.00406181
0.118528
0.0155273
0.00645182
0.00302831
0.0102396
0.155789
0.00546298
0.00513618
0.00565497
0.00359688
0.00897389
0.00587656
0.00727493
0.00672956
0.01997
0.0668688
0.00228456
0.0013171
0.0215307
0.0884435
0.00124436
0.102938
0.0106121
0.0851559
0.00620868
0.00305736
0.0822804
0.00104281
0.0199719
0.145109
0.00426181
0.137677
0.00598465
0.00140852
0.0101817
0.00270073
0.0854
0.160625
0.00731178
0.130849
0.119852
0.0198068
0.0161566
0.00704751
0.00523278
0.0332232
0.00950994
0.0631863
0.0916669
0.127374
0.0621985
0.00279943
0.0488408
0.0141827
0.00337127
0.104627
0.112647
0.00135536
0.130396
0.0011469
0.0317049
0.00191743
0.00347275
0.005945
0.00224057
0.00638979
0.00185469
0.0331551
0.00411434
0.0168948
0.0659455
0.0471579
0.0146301
0.0164972
0.0454852
0.00751026
0.0842522
0.0204503
0.00130945
0.00123895
0.00214522
0.01894
0.00724641
0.00133416
0.00158479
0.108786
0.0215708
0.00216841
0.0453057
0.0115024
0.00209466
0.00172574
0.0185671
0.0112077
0.027059
0.00307075
0.137444
0.00843744
0.00246846
0.0299499
0.137544
0.00173939
0.00960947
0.00345861
0.00196398
0.00538626
0.0292312
0.0788511
0.0299887
0.00133039
0.00291096
0.00239173
0.00804349
0.0484859
0.00104824
0.0888991
0.0044417
0.0156804
0.0309235
0.0105044
0.0787713
0.00165775
0.00218488
0.0747769
0.0069304
0.00880101
0.00237847
0.00949932
0.0077977
0.00333779
0.0132774
0.00307692
0.00591094
0.0885811
0.0121645
0.0044072
0.00247085
0.082736
0.00251858
0.0093116
0.00770196
0.159179
0.00192489
0.0214964
0.0218938
0.0630372
0.00962886
0.0116395
0.00596699
0.160273
0.0280779
0.00636692
0.00122745
0.00861363
0.0917949
0.0291576
0.0135732
0.00393952
0.0894566
0.00557994
0.00207964
0.0080764
0.00190934
0.0121043
0.00123446
0.003568
0.0455385
0.00274208
0.132331
0.02078
0.0111322
0.0131167
0.00548461
0.00972178
0.0095526
0.00996205
0.0144776
0.0169951
0.102692
0.00553231
0.0227217
0.0143237
0.00297753
0.0179586
0.0140596
0.087362
0.00144505
0.00574352
0.0321134
0.0243243
0.0219257
0.00121574
0.00453568
0.0106654
0.00191186
0.00307198
0.00284445
0.00547428
0.00294436
0.0717204
0.00263819
0.116334
0.014413
0.00278537
0.00147856
0.00277313
0.00213069
0.0728626
0.00112421
0.0748225
0.00649343
0.0139589
0.00247945
0.00187553
0.0165596
0.149646
0.00364675
0.00748268
0.0658749
0.0015225
0.0733135
0.0176933
0.0219727
0.0358131
0.0145959
0.0227243
0.0588897
0.0119047
0.00372736
0.0120658
0.0089049
0.0567108
0.00124492
0.00185582
0.117295
0.00329844
0.0183024
0.0121673
0.00237276
0.113113
0.0287823
0.0141402
0.0011497
0.0688527
0.145355
0.0138965
0.00237839
0.118589
0.0129985
0.0109185
0.00294773
0.00935167
0.0116384
0.00445455
0.0720153
0.00324761
0.110836
0.0012511
0.0136577
0.0657291
0.019466
0.00573997
0.134382
0.0438422
0.00449663
0.00194074
0.0351928
0.00128338
0.112568
0.109592
0.00804331
0.0866926
0.0463369
0.00211467
0.152153
0.0114276
0.00534371
0.0016425
0.00303876
0.0559561
0.0141517
0.0140471
0.125878
0.033253
0.0867159
0.00268386
0.125067
0.00318796
0.00408778
0.10291
0.0680164
0.0152857
0.00394969
0.00333981
0.00639187
0.00727174
0.0195151
0.00140066
0.00614172
0.0153695
0.0115743
0.00649983
0.00563357
0.00131665
0.0119373
0.00150606
0.00219657
0.00159345
0.0235651
0.0406648
0.0113176
0.00960859
0.0654518
0.0309154
0.0049594
0.161415
0.03601
0.059643
0.0916554
0.028739
0.0447399
0.00123058
0.131965
0.00199856
0.125217
0.00489087
0.0337621
0.00573595
0.00540726
0.0342887
0.0019763
0.014973
0.115544
0.00892342
0.0691411
0.0127609
0.0386234
0.00191384
0.021748
0.00975572
0.00371835
0.00223833
0.0145579
0.00247629
0.00331707
0.00779729
0.0447958
0.0310041
0.00509984
0.00791266
0.00098292
0.0709461
0.00189659
0.03984
0.00505309
0.00197199
0.0120912
0.00273586
0.0217137
0.0138858
0.0163659
0.00206426
0.0132452
0.131052
0.00886765
0.00470685
0.0219466
0.0602248
0.134732
0.00157305
0.162343
0.0145953
0.0018197
0.0136761
0.0465172
0.00819446
0.0195695
0.0022282
0.11657
0.0447202
0.08734
0.0161429
0.0305544
0.0446473
0.00601225
0.00167332
0.0556471
0.105925
0.00237807
0.0422016
0.00126877
0.0282942
0.00188348
0.0611809
0.0168737
0.137454
0.00145678
0.00193852
0.0109259
0.00485539
0.0151083
0.0503181
0.096718
0.00189065
0.138428
0.00594031
0.122131
0.0109167
0.119702
0.00218628
0.101071
0.00982543
0.134513
0.00360474
0.0024947
0.0644712
0.00789691
0.00191002
0.0058954
0.00236888
0.00265572
0.00400198
0.0258688
0.01235
0.00530116
0.00287317
0.0419017
0.0121093
0.0139105
0.0423471
0.00133704
0.00176821
0.00684789
0.00478946
0.00347506
0.0120301
0.00180174
0.0547277
0.0698109
0.00546913
0.002143
0.00409699
0.00465789
0.00277519
0.0610581
0.00205909
0.00142951
0.00193077
0.149563
0.00121372
0.00150857
0.00288097
0.00158635
0.0014055
0.00519062
0.0134764
0.00392306
0.0166242
0.0486675
0.00289875
0.00617771
0.0977531
0.00129804
0.120539
0.0140759
0.0112477
0.0146808
0.00286013
0.00931833
0.0012813
0.00935623
0.0159113
0.00248864
0.0015205
0.00511681
0.0291295
0.0188495
0.0066064
0.00583104
0.113192
0.00988544
0.00577814
0.00470167
0.0467075
0.00411035
0.0148022
0.0084528
0.00223878
0.00292614
0.0247556
0.00501104
0.00128048
0.0283098
0.0260481
0.00197537
0.00378905
0.0208207
0.01923
0.0967273
0.00615348
0.0264464
0.00184434
0.006081
0.0297371
0.141634
0.00573091
0.014372
0.00285156
0.00128737
0.0639831
0.0660562
0.0121568
0.107053
0.0230062
0.0259427
0.023963
0.0151586
0.0593727
0.0181538
0.0389814
0.00967581
0.00305965
0.145648
0.00206487
0.0008226
0.0973314
0.00243704
0.00494799
0.00617677
0.0199347
0.00567988
0.0166614
0.00497979
0.0156312
0.0213807
0.148743
0.00116359
0.0171121
0.00189751
0.0214335
0.0414881
0.0875422
0.005997
0.0556097
0.00849486
0.00706693
0.00227438
0.0830121
0.00299898
0.0028046
0.00144188
0.0718333
0.00519257
0.00199991
0.00286347
0.0029936
0.0270202
0.0343403
0.0040101
0.00276637
0.00285925
0.0117377
0.00314044
0.123232
0.0505491
0.00835349
0.125542
0.0428447
0.00419552
0.153431
0.00464264
0.0592059
0.00138469
0.00214977
0.00215976
0.00137628
0.00141766
0.0381964
0.0968305
0.00237369
0.0738355
0.0651742
0.0947927
0.00525236
0.00188945
0.00139333
0.0145071
0.0461804
0.0213876
0.00963714
0.00102785
0.130118
0.00254903
0.00157642
0.132134
0.108682
0.00151041
0.0060494
0.0301195
0.0669331
0.00222908
0.00133652
0.0455901
0.00451743
0.150835
0.00142349
0.00220567
0.0283774
0.0016108
0.00101288
0.00232014
0.0632382
0.0452277
0.139601
0.15332
0.00183438
0.0682961
0.00369532
0.00315213
0.00109511
0.0178666
0.00882734
0.00316568
0.00930856
0.0021539
0.00156162
0.121396
0.0215012
0.0216436
0.00438533
0.00185738
0.10747
0.00130073
0.012218
0.010736
0.017008
0.128667
0.00359572
0.0110702
0.00149299
0.130714
0.00830853
0.0300134
0.00334098
0.0249871
0.00152952
0.00244177
0.00363312
0.00527024
0.0475856
0.0139821
0.00579036
0.00332133
0.00169182
0.00198957
0.132419
0.00255087
0.00467628
0.0018327
0.0153298
0.010248
0.0113854
0.0454023
0.00216506
0.091402
0.0143226
0.00129661
0.00181317
0.00250503
0.00177701
0.0154118
0.00811004
0.068403
0.00151856
0.0157934
0.00192479
0.067939
0.00218033
0.0803522
0.0975516
0.0136468
0.00871163
0.00954734
0.0399752
0.00144667
0.0103798
0.0560776
0.0112487
0.00136726
0.00325594
0.0523759
0.00159118
0.0206735
0.0120007
0.0155952
0.117408
0.00783674
0.0858636
0.00234822
0.00563132
0.0198046
0.0565354
0.00358841
0.0110334
0.0566153
0.00238729
0.00319447
0.00370144
0.0871915
0.00321474
0.0913543
0.00426101
0.0140844
0.00503178
0.00293286
0.00120362
0.0100107
0.00187012
0.00828924
0.0133275
0.0799089
0.00210779
0.00527138
0.00492768
0.00741839
0.156318
0.00151667
0.00527827
0.00350134
0.00334895
0.00202472
0.001298
0.00299666
0.00151963
0.0127603
0.00816174
0.0876163
0.0463975
0.0999432
0.00401251
0.0162431
0.0100725
0.0016636
0.0662052
0.111889
0.0112189
0.00497541
0.0187145
0.127964
0.00172409
0.024771
0.00877464
0.030411
0.001418
0.0137406
0.00198669
0.00618721
0.0130145
0.00755769
0.0832829
0.0011607
0.00316775
0.00718159
0.0430026
0.10262
0.0012407
0.00111334
0.00160388
0.0504049
0.0053393
0.00297457
0.044934
0.100443
0.0447786
0.00186658
0.00339136
0.0119415
0.019824
0.0201671
0.00209867
0.00489872
0.0033585
0.0199212
0.0142232
0.0985518
0.00468854
0.00847533
0.0449968
0.00189594
0.00166878
0.00145074
0.00194194
0.00145198
0.00168562
0.00243407
0.0254208
0.0651743
0.00217369
0.00122334
0.00268142
0.0298444
0.0113953
0.0544424
0.053185
0.00264066
0.00213111
0.00770414
0.0550805
0.00325919
0.00629896
0.010029
0.00141244
0.00274266
0.0035846
0.11502
0.00169388
0.00264306
0.00344311
0.0143577
0.0106979
0.0411094
0.0817261
0.0115414
0.00988004
0.0201783
0.0113434
0.0170593
0.0150365
0.00332987
0.0013664
0.0140069
0.0106641
0.00145041
0.00352593
0.0957255
0.00252449
0.0024228
0.00109469
0.0107435
0.0421466
0.0155581
0.0208024
0.0128511
0.115532
0.0100159
0.0141996
0.00885521
0.00412608
0.154915
0.0231302
0.00126675
0.00189455
0.00171346
0.00307722
0.00499959
0.103583
0.0569013
0.0147553
0.0696929
0.00183772
0.0387794
0.156328
0.0839851
0.00188368
0.00207355
0.0283328
0.00854035
0.0154296
0.00959028
0.0153712
0.00768751
0.0116779
0.0112392
0.00127134
0.0192848
0.00142387
0.010828
0.00161426
0.0164117
0.144348
0.0790109
0.00515241
0.00460628
0.116772
0.00897501
0.0155155
0.00780026
0.00249267
0.00162085
0.00227686
0.148078
0.00265848
0.01113
0.0108197
0.0591079
0.00723793
0.0191715
0.00133504
0.00239829
0.0103955
0.0796882
0.00189596
0.0114513
0.0011658
0.00127838
0.00330643
0.022578
0.00478587
0.00216051
0.00305204
0.00144133
0.00767728
0.044654
0.010781
0.0463338
0.0024966
0.0140688
0.0144803
0.00296896
0.00183524
0.0555817
0.0481965
0.00148176
0.0107733
0.00168063
0.00995373
0.0532993
0.0109108
0.00309785
0.00815859
0.00273601
0.0107471
0.00283557
0.0183283
0.102424
0.0486698
0.00370525
0.0269379
0.00368993
0.0591015
0.0429476
0.00394268
0.0171456
0.0430497
0.0913096
0.0121373
0.0026912
0.0105229
0.0114933
0.0148201
0.00769678
0.0392062
0.00543988
0.0145771
0.0108318
0.00510754
0.0183141
0.00524179
0.0071047
0.0525791
0.00717829
0.00158296
0.00141386
0.0455944
0.00235497
0.00118498
0.0490155
0.0246374
0.00256279
0.00134582
0.0136974
0.00137248
0.00330698
0.0464852
0.00635611
0.103238
0.0197479
0.00714068
0.0021208
0.0026726
0.00346349
0.00309446
0.00194167
0.00146389
0.0301189
0.00119044
0.0583568
0.0026051
0.00138186
0.0864823
0.12724
0.00140032
0.0415826
0.0819226
0.00313036
0.0019173
0.00447514
0.0191454
0.00126392
0.143104
0.00195097
0.00127693
0.146453
0.00257715
0.00314641
0.00131296
0.00134338
0.00141067
0.00132215
0.073489
0.0226049
0.00862178
0.00717892
0.0772484
0.00354559
0.061137
0.00137448
0.00361785
0.0070444
0.00411907
0.00135816
0.00325151
0.00360536
0.00574794
0.00153621
0.00360582
0.02038
0.100282
0.0025742
0.010084
0.074044
0.001956
0.0500101
0.0025295
0.0397714
0.00173591
0.0252731
0.0518608
0.00144433
0.0103711
0.00813886
0.00121845
0.00227275
0.00247707
0.0172438
0.00904069
0.0212462
0.0111801
0.00478255
0.0110958
0.116496
0.00233234
0.00835397
0.0110775
0.00131162
0.0110165
0.0105151
0.00403036
0.00515274
0.00993632
0.0519044
0.00417853
0.0805863
0.00522845
0.00272537
0.00114446
0.0716808
0.0111806
0.000981937
0.0314349
0.00790137
0.0155498
0.0107821
0.00212561
0.00736514
0.021133
0.001909
0.114174
0.00184651
0.109529
0.0289551
0.00517829
0.00178966
0.0121955
0.00261987
0.00349656
0.0149794
0.042211
0.00387349
0.0102456
0.00153029
0.015489
0.00221139
0.00461011
0.0145949
0.0153696
0.00592107
0.0113948
0.00504766
0.00766749
0.0100397
0.0212602
0.0439166
0.00269208
0.0487443
0.0160985
0.0858556
0.00511085
0.0157346
0.00786147
0.00134548
0.0249837
0.00460755
0.109195
0.0388494
0.124028
0.0783706
0.0197652
0.08214
0.00508469
0.00121744
0.00777906
0.00996723
0.0224912
0.0420385
0.00301867
0.0380256
0.00228629
0.00240233
0.00140125
0.0048204
0.0119151
0.0183681
0.126621
0.0127763
0.00452948
0.0106979
0.00134179
0.00900132
0.0016373
0.00279396
0.145464
0.109656
0.00146505
0.0509274
0.0154464
0.00555095
0.00341859
0.0275244
0.00167963
0.109645
0.0182915
0.0555804
0.0303793
0.00421995
0.00467229
0.0359597
0.0145451
0.00918761
0.00956788
0.0068932
0.00302131
0.00326807
0.00425544
0.00502415
0.0172855
0.0250907
0.00781386
0.00179776
0.00208685
0.00195114
0.0121831
0.00194242
0.00518029
0.0304744
0.0831532
0.00781106
0.0959331
0.0152077
0.00112014
0.0554738
0.0740523
0.00335631
0.00254813
0.00905238
0.00325198
0.0389112
0.00123713
0.00961323
0.00166875
0.0119021
0.0373622
0.00188157
0.00706859
0.0429456
0.00570306
0.135067
0.00480475
0.0153327
0.00640651
0.00200479
0.0093559
0.00225512
0.059924
0.00185208
0.0274429
0.0159512
0.0254693
0.0100873
0.134864
0.00591268
0.00186471
0.00244559
0.00931547
0.0126444
0.00504644
0.0498017
0.12035
0.0319801
0.00270289
0.0219279
0.0017869
0.00130477
0.00594636
0.129964
0.00471531
0.00385246
0.00458168
0.012435
0.00125517
0.0489175
0.107246
0.0504324
0.00258945
0.0430199
0.0451732
0.00180773
0.0548529
0.00471813
0.00460616
0.0626711
0.00161837
0.0191424
0.0017547
0.0472731
0.00262517
0.0292355
0.00522643
0.00165962
0.00649611
0.0601549
0.0184527
0.00227033
0.0161656
0.00475936
0.0149392
0.0184858
0.00474716
0.0149244
0.037783
0.00122965
0.0151927
0.0152764
0.00398642
0.0475855
0.0662593
0.13444
0.0152401
0.0352001
0.0148593
0.00233094
0.000937422
0.00359457
0.00103274
0.00761207
0.0131428
0.00173775
0.00166777
0.0279109
0.000837206
0.00226772
0.00137666
0.00285151
0.0142542
0.00218522
0.00139769
0.00177263
0.00279423
0.00190958
0.00767568
0.00498364
0.0132152
0.020238
0.152114
0.00267907
0.153304
0.00169701
0.00415345
0.00354047
0.109006
0.0063949
0.00730757
0.0238496
0.149285
0.144984
0.00408905
0.0272322
0.0394113
0.0105735
0.00118996
0.0224679
0.00376124
0.111314
0.00389862
0.00587128
0.0337478
0.0160748
0.0839532
0.00169271
0.00192526
0.00432943
0.00186671
0.0118967
0.00530295
0.106575
0.0106753
0.153459
0.0337922
0.125857
0.0019082
0.0630288
0.00880184
0.0033751
0.0149832
0.0147308
0.0563947
0.00155533
0.00448059
0.00172826
0.00115098
0.00448257
0.00276123
0.00117731
0.00355472
0.00287377
0.00127171
0.00392288
0.00992687
0.00299004
0.00155857
0.0627485
0.00157277
0.00459632
0.0021126
0.124517
0.00743753
0.00201007
0.148684
0.00146656
0.0168603
0.000964996
0.131007
0.0436856
0.00679067
0.00342216
0.0189619
0.00708274
0.0615251
0.0444731
0.00131178
0.00222816
0.0016936
0.00814477
0.0426231
0.0289616
0.115974
0.00987471
0.00231716
0.00192117
0.00277391
0.00336595
0.0116784
0.117431
0.128858
0.001269
0.00140291
0.00416027
0.0152913
0.0193725
0.00548439
0.00151235
0.00155224
0.0825342
0.0637889
0.00146001
0.0249254
0.00337604
0.0140676
0.0370273
0.0145648
0.0084176
0.00136634
0.0012257
0.140613
0.0691538
0.019093
0.00250878
0.00179348
0.141003
0.0048388
0.0013473
0.114431
0.00266212
0.00191627
0.00177917
0.0714377
0.00157428
0.0014563
0.00871598
0.00296547
0.0209294
0.00265048
0.00331209
0.021327
0.057959
0.00147176
0.00274188
0.127008
0.00436507
0.00474898
0.0157962
0.00423442
0.00127122
0.00161127
0.0017175
0.0160213
0.0241019
0.0315889
0.00159709
0.00146347
0.00141332
0.00122188
0.00126855
0.0745075
0.00840367
0.125981
0.123631
0.0157002
0.0807989
0.0538978
0.152652
0.0018555
0.00161352
0.000996093
0.00647804
0.00414276
0.00925028
0.0662437
0.117054
0.00124202
0.0929806
0.000908932
0.00190361
0.106042
0.0522961
0.00142563
0.0286656
0.00367498
0.0193003
0.0959714
0.0858825
0.00119725
0.0889116
0.00123392
0.00134182
0.106205
0.0101661
0.0498141
0.0312153
0.0453819
0.00522115
0.0024829
0.081696
0.00175516
0.00282934
0.0219028
0.0529507
0.0256746
0.0250499
0.134472
0.00350065
0.00132392
0.00113917
0.0104339
0.00160654
0.142814
0.0212266
0.0319961
0.00437749
0.0208911
0.00223044
0.113984
0.00133103
0.00309491
0.00157789
0.00430183
0.115136
0.0105292
0.0428236
0.00131509
0.162519
0.0147401
0.0170487
0.0209357
0.0303019
0.144084
0.0101614
0.00172667
0.0214353
0.0292183
0.0289911
0.0104711
0.00367274
0.137078
0.00152416
0.00186761
0.0246986
0.00185858
0.00146033
0.00245783
0.00205529
0.115235
0.0238323
0.00240512
0.0017583
0.00497167
0.00190817
0.0018532
0.0143911
0.00876209
0.0146116
0.00123653
0.0634428
0.121559
0.00204869
0.00509915
0.00181327
0.022285
0.149277
0.0681919
0.00131731
0.00634417
0.161345
0.00456756
0.0448697
0.00711671
0.0152343
0.0162417
0.0462829
0.119909
0.0870538
0.019057
0.00242144
0.00173501
0.104957
0.0576456
0.00152594
0.0412224
0.00577568
0.0160446
0.0165009
0.0111095
0.148933
0.00124602
0.0154527
0.0169369
0.000952331
0.00652385
0.0222698
0.0136012
0.0366518
0.0292996
0.0016574
0.00275192
0.00139748
0.0332679
0.102758
0.00858047
0.0142895
0.0671077
0.0112865
0.00153453
0.0167421
0.00984076
0.0154912
0.00502098
0.0673534
0.0731741
0.00140421
0.00244593
0.00234502
0.0506112
0.00450829
0.0754919
0.0538753
0.0052796
0.00184802
0.0065258
0.0155854
0.00447789
0.0329513