/*--------------------------------*- C++ -*----------------------------------*\
| =========                 |                                                 |
| \\      /  F ield         | OpenFOAM: The Open Source CFD Toolbox           |
|  \\    /   O peration     | Version:  v2012                                 |
|   \\  /    A nd           | Website:  www.openfoam.com                      |
|    \\/     M anipulation  |                                                 |
\*---------------------------------------------------------------------------*/
FoamFile
{
    version     2.0;
    format      ascii;
    class       volScalarField;
    location    "600";
    object      p;
}
// * * * * * * * * * * * * * * * * * * * * * * * * * * * * * * * * * * * * * //

dimensions      [0 2 -2 0 0 0 0];


internalField   nonuniform List<scalar> 
13917
(
-0.0625356
0.0137903
-0.0360717
0.00607754
0.00672289
0.0133923
-0.00125995
0.0190694
-0.00162489
-0.0811916
0.0183199
0.00785627
0.0113979
0.0239388
0.0105681
-0.061015
0.000957146
0.0174064
-0.0279268
-0.0718677
0.0104424
0.00693038
-0.0111085
0.00681635
0.00541137
0.0116054
0.0230414
-0.0817364
0.0147432
0.000164329
-0.0820643
-0.0185902
0.00653349
-0.054655
0.00225305
0.0194504
0.00872927
0.00562211
-0.00162213
0.00694357
0.00134835
0.000184501
0.0010879
-0.0266391
-0.0263975
-0.014655
0.0100368
-0.0771561
0.0193829
0.00227753
0.00794464
-0.0166466
-0.0417851
0.00817478
0.00816622
-0.0179834
-0.0790087
-0.010701
0.00021813
-0.0125527
-0.0505289
0.000657379
0.000182742
0.0055254
-0.0535026
0.00112261
0.0156013
0.0193273
0.018073
-0.0475958
-0.0480839
-0.0539297
0.00891423
0.000306006
0.0103958
0.00641032
0.00703246
0.000340211
0.00643628
0.0063705
0.0083873
0.00129058
0.00916596
-0.0430347
0.00852851
0.0202544
-0.0179931
0.00838947
0.00728736
0.000860947
0.000982832
0.000735792
0.0205106
0.00196019
0.00839518
0.0153224
0.0188051
0.00247724
0.00853027
0.015714
0.000185503
0.000105775
0.00847436
0.00282401
0.00683479
-0.0302402
-0.0720729
0.000549339
9.1947e-05
0.0240268
0.0141399
-0.0556731
0.0144546
-0.0805216
-0.0536929
0.0068697
-0.0269316
0.000659776
-0.0343792
0.0106546
0.00144903
0.000520739
0.0161676
-0.0215608
-0.0379835
-0.0433744
0.00551759
0.0107653
0.0040483
-0.022312
-0.00754617
0.00781637
-0.0335538
0.00707944
-0.0212604
0.0234102
-0.0334903
-0.0291469
0.0123848
0.00518318
0.00778837
0.000410938
-0.0295191
0.00678297
0.00933533
-0.000446576
-0.0478559
0.00203703
-0.0812506
0.00817392
0.00718074
0.000317464
0.0095846
0.0107864
0.0203897
0.00596406
0.00272727
-0.0332262
0.000414287
0.000563499
0.00771877
-0.0634472
0.0102069
0.00945888
-0.0688162
0.0174684
-0.0425642
-0.074668
2.96664e-05
0.0128016
0.0068679
-0.0403425
-0.00141292
-0.0393572
-0.00589467
0.000437635
0.00595156
-0.0165816
-0.00713977
0.0104701
0.00125067
0.00682175
0.00796439
-0.0299754
-0.0351084
0.0094943
0.00803838
-0.0290197
0.000197251
0.0194946
-0.00486557
-0.0252871
-0.0271318
-0.065746
0.00202218
-0.0398183
0.00343677
-0.0332585
0.00227074
0.00601186
0.00934084
-0.0500795
-0.0297738
0.00900487
0.0266942
0.0129918
0.00690828
0.000452073
-0.0176123
0.00837921
0.00394552
0.00664366
0.0067309
-0.0801039
-0.02073
0.0119923
-0.0638396
0.00642395
0.000648631
0.000635128
-0.0771902
-0.0282501
-0.029902
0.0117537
1.63314e-05
0.0243183
-0.0414532
0.000747243
0.000760208
0.000335275
0.000604103
0.000594352
-0.0547901
-0.0747742
0.00776048
8.00181e-05
-0.0130802
-0.0491422
0.000665722
0.0117024
0.0237139
-0.0283895
-0.0298553
-0.0647254
-0.00658521
0.0068577
-0.0705458
-0.0141296
0.0139896
-0.0203568
0.0088692
-0.0794154
0.0102133
0.00114964
-0.00566547
0.00773602
0.00124492
0.00539208
0.00583829
0.00142745
-0.0386641
0.020058
0.000738583
0.000812101
0.00608547
0.000841042
0.0103257
0.0109777
-0.00462391
0.000653507
-0.0268088
-0.0708339
0.00845304
0.00612304
-0.0103425
0.000459917
0.0143312
-0.0386962
0.000471917
-0.0480531
0.00144211
-0.0595255
0.000316062
0.00991915
0.00779667
0.00641265
-0.0323155
0.00461176
0.0180851
0.00405638
0.0201678
-0.000439821
0.0215072
-0.0265896
0.000685743
-0.0110934
0.00618321
0.0073669
0.0065353
0.00621963
0.00174031
0.0043703
-0.0133768
0.00163206
0.00138559
0.00624717
0.0114293
-0.0316609
-0.050067
0.00367117
0.000452665
0.00715361
0.00625923
-0.0258513
-0.0703868
-0.0386509
0.000856719
0.00644172
0.0059477
-0.0426662
0.00846079
-0.0354411
0.012186
0.0103052
0.0208147
0.00658126
0.0143529
-0.0249747
0.00058918
-0.0416862
0.00846172
-0.0115809
0.000386891
-0.0710547
0.00461432
0.000956884
0.0130946
0.000375814
0.00102576
-0.0206197
-0.0322115
0.00827916
0.00644701
-0.0548541
-0.0307152
-0.0460452
0.0242305
0.00047993
0.00795412
-0.0272782
0.00473786
0.000488485
0.00634783
0.00809881
0.0130557
0.000813019
-0.0235176
0.00113115
0.0144865
-0.0115444
-0.0617359
0.00412727
0.00823138
0.00676357
-0.0358289
0.000557146
-0.0642224
-0.0112372
-0.000692748
0.00816946
0.00257219
0.000467982
0.0168688
9.85892e-05
-0.0308545
-0.0124349
0.0136732
0.00838362
-0.0466967
0.000387351
-0.0662858
-0.0285758
6.27504e-05
0.0175764
0.00775623
0.00532311
0.00197693
-0.0748682
0.00400975
0.0080859
0.0241793
0.0138424
0.00873277
-0.0596271
-0.024519
0.00777354
-0.032833
0.0080097
0.0145794
-0.035716
0.00855848
-0.00176225
0.00605572
0.00656952
0.00610698
0.00426222
-0.0363864
0.0168047
0.00819292
0.00407318
0.00680055
-0.00817613
0.019246
0.000388238
4.59344e-05
-0.0256762
0.00390776
0.00646554
0.00802167
-0.0349051
0.0191139
0.000918574
-0.02867
-0.0414869
0.000378288
0.000407719
0.0104324
0.00610049
0.000403162
0.00780674
0.000417666
0.000383087
-0.0740345
0.00808088
0.00615588
-0.0272557
-0.0103082
0.0039997
0.00965951
-0.0600898
0.00971845
-0.0365154
0.000374055
0.0101204
0.000385792
0.000570607
0.00871297
0.00767594
-0.0282793
-0.000517361
-0.0290585
0.0100431
-0.00819298
-0.000718903
0.00828036
-0.00777313
-0.0447828
0.0081316
0.0225658
0.00416747
0.00572303
0.00670925
0.00785028
0.00381945
0.00757008
-0.0323071
-0.046335
0.00377418
0.0188174
-0.0262358
0.0122233
-0.0114739
-0.0179043
-0.0640194
-0.00288376
-0.0300454
0.00407214
0.00418364
0.00776341
0.000803559
-0.00110972
0.00884969
-0.0429778
0.000913275
0.0081742
0.00834398
-0.0017245
0.00914436
-0.033983
-0.0146776
-0.000169285
0.00608726
0.0171195
0.00616114
0.00821668
0.0238636
-0.00612924
0.00372226
-0.0621496
0.00858616
0.0064076
-0.0174055
0.00522452
-0.0301302
0.00581179
0.000556742
-0.00898366
0.00035932
0.00629857
-0.0113866
-0.027143
0.0218259
0.00776297
0.00520027
4.83901e-05
-0.0371456
-0.000533153
0.00820906
0.00816779
0.00772581
-0.00606372
0.000322053
0.00367429
0.000496092
0.00591355
0.00661225
0.00235691
0.000467983
0.00091661
-0.014762
0.0052179
0.00703058
0.00607686
-0.0678182
0.00144193
0.00197675
0.00153387
-0.00766683
-0.0149752
0.0147885
-0.0063336
0.0160097
0.00663584
0.0164302
-0.0333615
-0.0734819
-0.02739
0.00331832
0.00649514
-0.000303868
0.00908463
-0.052181
0.000440273
0.00656504
0.00319927
-0.0394828
0.0148531
0.000943836
-0.0821353
0.00364695
-0.0168393
0.00233172
0.000642035
-0.0397791
0.000370491
-0.0318029
0.000103108
0.0121114
0.00658905
-0.0331256
0.0022027
0.000929012
-0.026383
-0.0107031
0.00181059
-0.0457416
-0.0319752
-0.0631822
0.00148268
-0.0423824
0.000200209
-0.0426385
0.00112053
0.000528637
0.000679762
0.000531873
-0.00568235
0.00163489
0.000365925
0.00277788
0.0116379
-0.0446732
0.00800246
-0.0170783
0.00816013
0.000912201
0.000582323
-0.0155407
-0.0518656
-0.079547
-0.0193418
0.000251637
-0.0437422
-0.0479555
0.00191698
-0.0464872
0.0106084
-0.020726
0.00900399
-0.0458843
0.00652143
0.00258233
0.00923206
0.00113339
-0.00542524
-0.0572427
0.00111018
-0.00432046
0.0028591
0.000413366
-0.0628527
0.0176057
0.0025742
-0.0246673
0.0114874
0.00063343
0.0002532
-0.0619884
0.00808306
0.00598731
0.000427586
0.00264383
-0.0354434
-1.75115e-05
-0.0252685
0.00169093
0.00484433
-0.0481503
-0.0176715
0.00820081
-0.0270705
-0.031072
0.0175395
-0.0164107
0.00360719
0.0107503
-0.0689808
-0.0277267
0.0100918
0.00858295
0.00255259
0.00195075
0.00482588
0.000797747
-0.01553
0.00488063
-0.0662033
-0.00600239
0.0200937
-0.0035807
0.00196389
-0.000449844
-0.0274961
-0.0491052
0.00185244
0.00298319
0.000553204
0.00494226
0.00145999
0.000343306
-3.75481e-05
0.00693222
-0.0445528
-0.00886442
0.00341775
-0.0239735
0.00117006
-0.0692106
0.00135726
0.00388744
-0.0278709
-0.0144965
-0.001092
0.00817268
0.000519804
0.00331391
0.00641285
-0.00274373
0.0060739
-0.0322707
0.00382017
0.000210806
0.000418452
0.00284993
-0.0289685
0.00513554
0.00300313
0.00278119
-0.0392812
0.0242339
0.00338522
-0.0354086
0.00471973
0.00467114
0.00371798
0.00890561
-0.0322166
0.00167116
-0.0052183
0.00660194
0.00192331
-0.0207503
0.00601651
-0.0237829
-0.00902378
0.00837093
0.00636155
0.00299433
-0.00238777
0.00589843
-0.0247984
0.00773387
0.000160486
-0.0336068
0.000478389
0.00638338
0.00841811
0.0127068
0.00216557
-0.0276604
0.00118707
-0.0160262
-0.0495278
-0.000735944
0.00914566
0.00749597
0.00665785
0.00938023
0.00959129
0.00852603
-0.000813757
-0.014424
-0.0251417
0.00342989
-0.0257149
-0.00138893
-0.00189258
-0.026249
0.00799334
-0.0169617
0.0192661
0.00110971
-0.014692
-0.00407488
-0.00868704
0.00465353
0.00401531
0.00469876
-0.0484779
0.00671753
0.00113025
-0.0112851
0.00614416
0.00396159
-0.0180685
0.0183343
0.00799507
0.0216572
0.0125805
-0.0262025
0.0096484
0.00708922
-0.0432973
0.000456335
0.00029024
0.000871857
0.00153574
0.00811995
0.00813767
0.0149539
0.00456743
-0.00135493
0.00536428
0.00104774
0.00826986
-0.00283105
0.000354437
-0.0207665
0.0101693
-0.056751
0.00805335
0.0012968
-0.0689296
0.00640459
-0.0394806
0.00216604
0.00781845
0.00624525
0.00299167
0.00925684
-0.0465886
-0.00197007
0.0184087
0.0220645
0.00943875
-0.00890444
9.04638e-05
0.000698723
0.000112088
4.943e-05
-0.0722902
0.00164488
0.00811051
-0.0261122
0.00585701
0.00103776
0.00189431
0.00160447
0.00347985
0.00815016
0.00756688
0.00627271
-0.01152
0.00105395
0.0185626
0.00840539
-0.0568219
-0.037816
0.00840736
-0.0278983
0.0225998
-0.057473
0.00719973
0.00411201
0.00060138
0.00885277
0.00703996
0.00767753
-0.00237749
0.00777009
0.0197074
0.00817205
-0.0407235
0.00683424
-0.00670826
0.00424854
0.00298585
0.00718284
0.00646345
0.000765422
0.000702723
0.000419201
-0.0273311
-0.0163988
-0.00135655
0.00352876
0.0128111
0.00657235
0.00547259
-0.0627227
0.00427839
0.0170463
0.00655408
0.00173823
0.00948831
0.0071504
-0.0164381
0.000763572
0.0043312
-0.000224027
-0.045412
0.00940507
-0.0209545
0.00314721
0.0162601
0.00049067
0.00562812
-0.0622262
0.00177251
0.00587956
-0.0235926
-0.0609176
0.000499956
0.00757553
-0.0452385
8.55082e-05
0.00718077
0.00637119
-0.0417053
0.0125742
-0.027294
0.00816034
-0.0290054
0.00985334
0.00913576
0.00418077
0.000420557
0.00285562
0.00728313
0.000378568
-0.0329578
0.00827831
0.00571025
0.00773923
4.02942e-05
0.000515745
-0.0158725
0.00787641
-0.0530294
0.00593921
-0.0182573
-0.0144748
0.00225499
-0.0327158
0.00851785
-0.0152727
0.0104808
-0.031317
0.0016453
0.00800958
0.000448591
0.000909238
0.00818044
0.000444548
0.000497719
0.000855106
0.00948373
0.00094338
0.00109888
0.00820161
-0.0198913
-0.0676778
-0.0598268
-0.0225709
0.0067009
0.00250861
0.00772585
-0.0426664
-9.79381e-05
-0.0272232
0.00047967
0.00415835
0.00982076
0.00793297
0.000494528
0.00036376
0.00847605
-0.000625047
0.0058141
-0.0805521
0.00769549
0.00540093
-0.0464496
0.0104701
0.00437927
0.000502698
-0.0627554
0.00732488
0.000396417
-0.000638913
0.00245079
0.00403236
-0.0267499
0.000571353
0.0161822
0.00560727
0.00778302
0.00411773
0.000615888
0.00911614
0.00624856
0.00662725
-0.0478912
0.00117637
0.00560357
0.00718195
0.0123782
0.00394507
-0.0223874
-0.00849964
0.00511336
-0.0391463
-0.0792988
0.00567551
-0.0230149
0.000803944
-0.0330754
0.000591841
-0.0305702
-0.00646785
-0.00207111
0.00690613
0.00896914
0.0226602
-0.0284355
0.000626704
-0.000846913
0.000422243
0.0078352
-0.00900196
0.00836771
0.00823401
0.0134552
-0.0517282
0.000559664
-0.00370229
-0.0469778
2.66385e-05
0.000539492
0.00512777
-0.0668338
0.00707037
0.000154453
-0.000945175
0.00957246
0.00379917
0.00831327
0.0101695
0.00901403
-0.000360646
0.000566677
0.000467886
0.000636023
0.00108977
-0.0337132
0.0080385
0.00700449
0.00143509
-0.064406
0.00288232
0.000715299
0.0104333
0.00768858
0.00544868
0.000540427
-0.056891
9.01057e-05
0.00627832
-0.0144425
0.00667101
-0.000196693
-0.0195794
-0.0255078
-0.0157241
-0.0302364
0.0022351
-0.0274898
-0.0459932
0.00476642
-0.0315085
0.000538646
-0.00500912
-0.0125089
0.000296357
0.00203058
0.000726142
0.00306833
0.0200121
0.00862456
-0.0624363
-0.00280264
-0.00525742
-0.0452847
0.00140376
-0.021221
0.00782868
0.00799424
0.00190509
0.000510314
0.000426627
0.00312439
0.00677079
-0.0286538
0.00556224
0.00840323
0.00173465
0.00846816
0.00830863
0.00216066
-0.0173365
0.00641058
0.00336501
0.0178326
0.00155436
0.0130547
-0.0326577
0.00765146
0.0116093
0.025239
0.00124973
0.00850013
-0.0474304
-0.0329541
0.00800505
-0.00347862
0.00993612
-0.0338978
0.0171817
0.00882674
-0.0483343
0.00363014
-0.0150821
-0.0655449
-0.0347423
-0.00128312
0.0147899
0.000308987
0.00690296
0.00988033
0.00826431
0.00705272
-0.0254342
0.00184054
-0.00682446
0.0018836
-0.0152386
-0.0631932
0.00802917
-0.035244
0.022221
0.0112333
-0.0183685
0.0103679
0.00788761
0.00912805
-0.0305321
-0.0186967
-0.0518129
0.00642597
-0.0702998
-0.0029224
0.000503215
0.00713751
-0.00368725
0.000785372
0.00713151
-0.00635307
0.00920611
0.00789073
0.0112022
0.0100367
0.00752844
-0.0150786
0.0116294
0.00777305
-0.00466603
0.00838452
0.00813785
0.00758471
-0.000529035
-0.0267342
-0.041513
0.00268899
-0.00620015
0.000215229
0.0071796
-0.0274146
0.00837161
0.00551522
0.000279542
0.0125599
0.00750611
0.00889411
-0.02738
0.00574984
0.00129607
0.000813911
0.000362676
-0.0220459
-0.0654516
-0.0676796
0.00816971
0.00442278
0.00552219
0.00823969
-0.0174328
-0.0270173
-0.00154638
0.00354312
0.00974812
-0.0136464
0.00196961
-0.000106081
0.00820191
-0.0260594
0.00225462
0.0164442
0.000115297
0.00229438
0.00877227
-0.0530747
-0.00776002
0.000779235
-0.069998
-0.0084442
0.00344234
-0.0083187
0.0069987
0.00937215
-0.0474883
-0.00111222
0.0021384
0.00784507
-0.0255934
0.00719264
0.00646918
0.000983602
0.00763983
0.00379471
0.00952008
0.000487359
0.00511943
-0.0326332
0.00690399
0.000995415
-0.00642435
-0.00182753
0.00317833
0.00958133
-0.0273777
-0.0263903
-0.0713589
0.00874105
0.000966381
-0.0305921
0.00557381
0.00327856
0.00518836
0.00675815
0.00797389
0.00567715
-0.0350045
0.00201827
0.00877724
0.0128537
0.0199706
-0.0403164
-0.0463147
0.00543271
0.0071353
0.0154657
0.000470609
0.000303278
0.0084224
-0.000367767
0.00596393
-0.00527149
0.00660874
-0.0318411
0.00943146
0.00835409
0.00768863
0.000957444
-0.0257426
0.00922786
0.00374041
0.013347
-0.0162336
0.0203708
-0.0321691
0.00897073
-0.00401609
0.004078
0.00327895
0.00701933
0.00980568
0.00817284
-0.0253265
0.0084638
-0.0125126
0.00192139
-0.000760221
0.0094865
0.000372523
0.00424413
-0.0280087
0.000415543
0.0186823
-0.0191155
0.00993136
-0.0142911
-0.00544567
-0.00423572
0.00820334
0.000693983
0.00503459
0.00220342
-0.00596593
0.0130237
-6.89476e-05
0.0028022
0.00249886
0.000176724
0.0171887
0.00675633
-0.0631542
-0.00755697
0.000608362
0.0108333
0.00177541
-0.0065303
-0.00024076
0.0266851
0.000546983
-0.000149616
-0.000739903
-0.00523526
0.00925579
-0.0568699
0.00182109
0.000415251
0.00556229
-0.00243376
0.00184824
-0.0536988
0.00789206
0.00297868
0.00785392
-0.00861482
-0.0334901
-0.00130125
0.00251916
0.0089019
-0.000165991
0.000504474
-0.056395
0.010641
0.000219526
0.00999816
0.00165106
-0.055177
-0.00017398
0.00647816
0.00936199
0.000474356
-0.0309749
0.000645446
0.000944316
-0.0203701
0.00898477
0.00391044
0.000521945
0.000358749
-0.0124415
0.00828859
0.0062054
0.00377462
0.0245742
0.00557733
0.0039427
0.0039869
0.00719986
0.0105933
0.00163263
0.00583547
0.001264
0.0082455
0.00826518
0.00817727
0.00849811
0.0164982
0.00169234
-0.0203022
0.00680434
0.0148512
0.00255084
0.00820957
0.00630599
0.00040088
0.00774633
0.00959401
-0.000802347
0.0190419
0.000356877
-0.0328595
-0.0663962
-0.0211165
-0.0267882
0.0071358
0.0085775
0.0200404
-0.0255503
0.000133233
-0.0444944
0.00206267
-0.0243201
0.00458515
0.00217118
-0.0197864
0.0245927
0.0263114
0.0017638
-0.0130117
0.00546362
-0.00112553
0.00158507
-0.0479949
-0.0715923
0.00804391
0.00527867
0.0168278
0.000932834
-0.0323094
-0.000294363
0.00761214
0.00637905
0.000172391
-0.0360862
0.000451283
-0.00679118
0.00811979
0.0188022
-0.0100106
0.00816762
0.00257645
-0.0317561
0.00309748
0.011446
0.00659627
0.00316849
-0.0304649
0.00977423
-0.00187248
-0.0338766
0.00961752
0.0136113
0.00932353
8.06076e-05
-0.00482047
-0.00172187
0.00242363
-0.00211119
0.000399847
0.0026746
0.00142553
0.00819949
-0.0394657
0.00784089
0.00325653
0.0078973
-0.0043121
0.00614801
-0.00154607
-0.0235522
0.00708176
0.0057249
0.00287123
0.00916787
0.0062311
0.00821035
-0.0283401
0.00187312
0.0181931
0.00809596
0.000688607
-0.0357102
0.00811001
0.00110741
-0.0364885
-0.0264001
-0.0557823
0.0010113
-0.0380987
0.0216777
0.00781913
-0.0444038
0.00797974
0.00954466
-0.0674164
0.00915319
0.0140695
-0.0595604
0.0112747
-0.0178523
0.00989951
-0.0322769
0.0108339
-0.00035386
0.00935988
-0.0508128
0.0110707
0.013415
0.00609663
-0.000741
0.00303647
0.0006456
0.00745125
0.0246108
0.00851862
0.00945635
-0.039088
0.0185309
0.000397183
-0.0112928
0.00245073
-0.0241531
0.0191427
0.00933013
-0.0442335
0.000423235
-0.0254227
-0.0528022
0.00295741
-0.0284637
0.0108991
-0.0373343
-0.0273494
0.00693921
0.00702646
-0.00102527
0.00490878
0.0127683
0.0054226
0.00310674
0.00804534
-0.0443834
-0.00447161
-0.0321366
0.00509363
0.00340444
-0.0537589
-8.78128e-05
0.00619111
-0.0277772
0.00858613
0.0108792
-0.0307014
-0.0241461
0.0092415
0.00500606
-0.0239351
0.00865955
0.00806482
-0.0436698
-0.066781
-0.000575815
0.0062965
-0.0161646
-0.00573855
-0.00300118
0.00845916
-0.00197046
-0.00275783
0.0165733
0.00658388
3.8336e-05
0.0232111
-0.0360443
0.0132177
0.0117275
0.0115591
0.0173187
0.00268141
-0.0318868
0.0036964
-4.4321e-05
-0.00662858
-0.00150968
0.00382074
-0.00342247
-0.00345509
0.00846608
-0.0295993
4.52919e-05
-0.0278991
0.00173322
-0.0489634
-0.0401134
-0.0314703
0.000397932
0.00661001
0.0113971
0.0192254
-0.00527711
-0.0186823
-0.0452106
0.0176509
2.42497e-05
0.00514588
0.000876469
-0.0265554
-0.038979
0.000310281
0.00360954
0.0069751
-0.000706417
0.0197719
0.00194809
0.00567955
-0.00263649
0.00585552
-0.000962597
0.0090384
-0.0292642
0.00960313
-0.00376733
-0.0272639
-0.00141899
0.009582
-0.0445992
0.00747459
0.0136578
-0.0707495
0.00982265
0.0145165
-0.00701249
-0.0161914
-0.0202005
-0.0394762
0.0097955
0.0143733
0.0182571
0.00172111
-0.0263711
-0.013886
0.00316068
-0.0397565
0.0173942
0.00555109
-0.0166329
-0.0705762
0.0056817
-0.0170044
6.45331e-05
0.00842244
0.00834186
0.00508488
-0.0348615
0.0169549
0.000413935
0.0144398
-0.0299226
0.00741113
0.000196825
-0.0563279
0.000109784
0.0081862
3.75309e-05
0.00859703
-0.0122673
0.0106631
-0.0707551
-0.00317404
-0.0113642
0.0101995
-0.00194366
0.00798148
0.0120455
0.0246567
0.00842114
0.00864414
0.000422709
0.00201081
-0.0372547
-0.0207168
0.00951069
-0.0643151
0.00518396
0.00822323
0.0117478
0.00218025
0.000781061
0.00964657
0.00264983
-0.0588741
0.0227404
-0.0396021
0.0108195
-0.0132972
0.0086162
-0.0327378
0.00365533
-0.0307153
0.00724541
0.00624616
0.00116508
-0.045398
0.0100344
0.00768648
0.000361926
0.00755713
-0.0434631
0.00301986
0.0078382
0.00485427
0.00563329
-0.0287654
0.0104806
0.00328324
0.00811859
0.00338407
-0.045244
-0.00252416
0.00831379
-0.026721
0.016311
-0.0473569
0.0138176
0.00751038
0.00857851
-0.0703814
0.00836673
-0.0171508
0.00989297
-0.0417898
0.00291095
0.00595969
0.00661865
-0.0595157
0.0112071
0.00232277
0.00179106
-0.022557
-0.0774206
-0.011241
0.013229
0.00926803
0.00566187
-0.0311251
0.000133034
-0.0450926
-0.0159286
0.00533986
-0.0197251
0.0123678
-0.00284164
0.0075053
0.000334275
0.00373747
0.013632
0.0098958
0.00815749
0.00828621
0.00287788
-0.061712
0.0061189
0.0110426
-0.0419577
0.00823337
3.9951e-05
0.00247661
0.00384692
0.00164367
-0.00102084
0.00237045
0.0244862
-0.00370363
0.000417343
0.0207345
0.0079293
-0.0150739
0.00174443
0.0103255
0.00040174
0.000408204
0.0106249
0.0163161
-0.0132262
-0.0266203
-0.06897
0.00510511
-0.000522912
0.00809701
-0.0396719
0.00973528
-0.00426779
-0.0408484
-0.0410811
0.00349477
0.00539418
0.0071228
0.00646456
-0.0427849
4.84632e-05
0.0131994
-0.00355333
-0.0744953
0.00848286
0.00504495
0.00888001
-0.0237501
-0.0441048
0.00202215
-0.0625412
0.00996007
0.0116766
-0.041167
-0.0158251
0.021626
0.013544
0.00924086
0.00977108
0.0121338
0.0101148
0.00839286
0.0169951
0.0109446
0.00136843
0.00223459
-0.0347964
0.0160469
0.00297808
-0.0038825
-0.00741482
0.0128207
0.00117216
0.00852147
-0.00570085
-0.040448
0.0169784
0.0057871
-0.00435584
-0.0171444
0.000422078
-0.0346905
0.00658309
0.00782288
-0.0107416
0.00614756
0.00128176
0.00273373
0.000386349
0.00582471
0.00172387
-0.0562668
0.000407066
0.0073685
-0.0189377
-0.000462651
0.00959246
-0.0298982
0.00813149
0.0130377
0.00766672
0.00788554
-0.000833046
-0.000691752
-0.0385512
0.0151049
0.0105485
-0.000384517
0.0066407
-0.0634642
0.0146917
-0.0565333
0.00430793
0.0114654
0.00985315
0.00776541
0.00183118
0.000599546
-0.0255374
-0.0161825
0.0112002
0.00724592
0.0110656
-0.0150479
0.00780702
0.0082457
0.00803922
-0.027971
0.00426698
-0.0508168
0.0110708
-0.00536713
0.00831679
0.00568659
0.00761264
-0.0116969
0.00636588
-0.0165233
-0.0578173
0.00958518
-0.0324095
0.000666774
0.00352628
0.00312721
0.00264156
-0.0094904
0.000403021
0.00173052
0.000408224
-0.0681484
0.000365536
0.0161035
0.00535507
-0.0150638
0.023981
0.0237825
-0.0179481
-0.0308815
0.000391104
0.00184137
0.00174229
-0.0306936
0.00852053
0.010079
0.0128665
0.00633937
-0.0189311
0.0091242
5.04254e-05
0.00844197
0.00927696
-0.0128647
-0.0646056
-0.0575892
0.00214274
0.00328028
0.00951609
0.0066945
-0.00193918
0.00502209
-0.0286097
-0.0219028
0.00824886
0.007736
0.000424483
0.00626529
0.00748811
-0.0281872
-0.0351457
0.00446598
-0.041623
-0.0198699
-0.0232516
-0.0404949
0.00865355
-0.0680859
0.00697065
-0.026676
-0.0356821
-0.0687938
-0.0482342
0.0011079
-0.00393852
0.00116587
0.00576662
-0.0581635
0.00810553
0.00884179
-0.00118488
0.00672607
-0.00536543
-0.0264308
-0.0310049
-0.0643616
0.00273417
0.00968748
0.00791864
0.00511773
0.00933713
-0.0068492
-0.0226264
-0.0218095
0.0022214
0.000414779
0.0033204
0.00750913
-0.0255048
0.00928687
0.00730987
0.0058183
0.0137449
-0.00582105
0.0134264
0.0103588
-0.0666144
0.0047705
-0.00634646
0.00986653
-0.00141519
-0.00341145
3.21363e-05
0.011618
0.00208879
-0.0399006
-0.00249722
0.00570414
-0.00801507
-0.0580678
-0.00487681
0.00965515
0.00625754
-0.0611092
0.00829486
0.00597481
0.000415174
0.0130024
-0.0459744
0.00336923
-0.0305139
-0.0520035
0.00920381
0.0106234
-0.00432621
-0.0278903
0.00456687
-0.0422956
0.00829062
-0.000415971
-0.000498562
-0.0339768
-0.00469127
0.00180397
-0.0500198
0.0100421
0.00794861
0.0243502
-0.029455
0.0135593
-0.00579054
0.000616216
0.00556628
-0.0463853
0.00595202
0.00869969
0.0103234
-0.00537412
0.00974233
0.0117596
0.00945301
-0.00378796
-0.0365725
0.00630991
-0.0510379
0.00963336
-0.0494321
-0.0350566
0.00986284
0.00797484
-0.000394812
0.0178002
-0.0261487
-0.0122599
-0.0572368
-0.0633792
0.0188948
0.00169085
-0.0298135
-0.0709558
0.00746179
-0.0434797
0.0080869
0.00584028
0.0111666
0.00861696
0.00930719
-0.00679252
-0.0517092
0.0108866
-0.00496722
-0.0732498
-0.0263316
-0.0339649
-0.0462422
0.00950364
-0.0352783
-0.0226012
-0.0199746
0.00344793
0.00599566
-0.0186441
-0.0349551
0.00623407
-0.0536814
-0.0500764
0.00425184
0.00887995
0.00103315
0.00915498
0.00834186
-0.0139922
-0.0681986
0.00283368
0.0129747
0.00440339
0.00702045
-0.0237272
-0.0567824
0.0116031
-0.0335134
-0.00663945
0.00794472
-0.00279495
0.00563879
0.000824941
-0.0376656
-0.0386405
-0.0165255
0.0033151
-0.0428359
0.0059434
-0.0393114
-0.0506354
-0.00846384
-0.0399819
0.00201503
0.00862587
0.00710684
0.00264661
-0.0407179
-0.0107988
0.00805027
0.00368469
-6.21296e-05
-0.0452927
0.00167473
0.00048471
-0.0301567
-0.0483398
0.00855831
0.00788587
-0.0143787
0.0102003
0.011837
0.00877362
0.00730688
-0.0258337
-0.00414704
-0.0379687
0.00628731
0.0105992
-0.0314771
0.00550485
0.000419389
0.0181208
0.00243317
0.00520509
0.0120245
-0.0256364
-0.0266667
-0.0377447
-0.0269483
0.00566197
-0.00156456
0.00125479
0.000863502
0.00818842
0.0180293
0.00159912
0.000412655
-0.057893
0.00879653
-0.0122809
0.00212025
0.00418037
0.00279496
0.00113598
0.0065135
0.00598908
-0.0369485
0.00233723
-0.0256937
-0.0305349
0.00275889
-0.0181479
-0.0408586
-0.0368973
-0.0353044
0.000472593
0.00160649
0.000319511
0.00586881
-0.0167522
0.00108424
0.00650322
-0.031795
-0.0375671
0.00692146
-0.0234499
-0.018961
-0.0246621
-0.025845
0.00527013
-0.0269622
-0.0280113
-0.0289939
-0.0298953
-0.0253401
-0.0198117
0.00625583
0.00734372
-0.00416741
-0.0234831
0.00669608
-0.0262189
-0.033521
-0.0104434
-0.0558247
0.000412478
0.00182821
-0.000310983
-0.0512248
0.0061525
0.0091267
-0.0166435
-0.0588106
0.0128652
0.00817188
0.0118734
0.00298637
-0.0828206
-0.000159988
0.000992561
-0.0420935
-0.0470994
-0.0253934
-0.0457431
-0.0144588
-0.00353874
-0.0345835
4.50514e-05
-0.0313061
-0.0367682
0.0080804
-0.00396084
-0.00399054
0.00947347
0.00283855
0.018698
0.017548
0.000676474
0.000663938
-0.0164141
-0.0366225
-0.00409754
0.00810919
-0.0339586
-0.0242551
-0.0494489
-0.029858
0.00906261
0.0111556
0.00635323
0.00598231
-0.0452872
0.0136109
-0.0602604
-0.0222522
-0.0366653
-0.000198361
0.00559949
0.00628364
-0.0435752
0.0019154
-0.038229
5.65128e-05
-0.0439493
0.00565019
0.00855158
0.00410655
0.00640535
-0.027112
-0.00104465
0.0131919
0.00915169
0.00549474
-0.026267
-0.0510126
-0.00494651
-0.0491281
0.00586007
0.00381308
-0.00166353
-0.00302061
-0.0276002
-0.0613731
-0.00145196
-0.0330667
-0.0285307
-0.0484362
0.000275308
0.00163267
0.00287263
0.00349326
-0.0409083
0.0172014
-0.00347882
0.00905247
-0.0311169
0.0061112
0.000178968
0.0213193
-0.081845
0.0131357
0.00551627
0.000391093
-0.048698
0.000942991
-0.00194444
-0.0403183
-0.0280133
-0.0365817
0.000421542
-0.00783841
-0.00673035
-0.041409
-0.0376087
0.0101919
-0.0295978
0.00813618
0.00329967
0.0118493
0.01331
0.00511968
0.00785104
-0.000591748
0.0120024
-0.0266795
-0.0420602
-0.0421343
-0.0367636
0.00348581
-0.00921544
0.00485279
-0.0301417
0.00212423
-0.00247711
0.00849521
-0.00888922
0.001407
-0.00025797
0.00494102
0.0153406
-0.0381763
-0.0232209
0.00891567
0.0223276
-0.0227356
0.00234742
0.00377292
-0.0395332
0.00111726
-0.00360021
-0.0411026
-0.00408469
-0.0583196
0.00383173
-0.0544641
-0.0605671
0.0144347
0.0185276
-0.00240281
-0.0266331
-0.024754
-0.0427637
0.0139989
0.00652282
-0.0425462
0.010686
-0.0274999
0.00833573
-0.0698218
0.00375446
-0.0385256
-0.00205962
0.0248878
0.0071701
-0.0602082
-0.0100613
-0.0456114
-0.0327867
0.00624355
0.00037088
-0.0462031
-0.0324774
0.00122207
0.00690232
0.00889235
0.0106545
-0.0503262
0.0172592
-0.0352504
0.00649312
-0.0324649
-0.0052031
0.0188748
0.00670874
-0.0262452
-0.0614849
0.0057596
-0.0212772
0.000419433
0.00266645
0.00888819
-0.000922488
0.00726205
0.0101628
-0.0361271
-0.0392522
0.00329172
-0.0305853
0.00679647
0.0061176
0.00904278
0.00266266
0.00821703
-0.0366633
-0.0372427
0.00177812
0.0206301
-0.0189314
-0.0135934
-0.0456653
-0.0226388
0.00612794
-0.00700721
0.0106531
0.00027963
0.0116231
-0.0288972
0.00822259
-0.0397306
-0.0431136
-0.0107909
-0.0288402
-0.0301651
0.00450685
-0.0423725
-0.00780223
-0.0172277
0.00747997
0.00626551
0.00500423
-0.0247321
0.00917419
0.00701065
0.0130471
-0.0388918
-0.0294563
-0.019966
-0.027086
-0.0285693
-0.0373735
0.00821592
0.0020304
-0.0176792
0.00711382
0.00803084
0.00790451
0.00738381
0.00590678
0.00873956
0.00724155
0.0106162
0.00698956
0.00871789
0.00846652
0.0100331
-0.0217073
0.00687955
-0.0361217
0.00646108
0.00867786
-0.0238294
-0.0117161
0.00694175
0.00554945
0.0194036
0.00247829
-0.0428079
0.00187699
-0.0149935
0.00966537
0.00553875
0.0157888
-0.0319349
-0.0196973
0.0108234
0.000571647
-0.0471106
0.00878536
0.008348
-0.0209519
0.00215155
-0.0248842
-0.0397786
-0.025058
0.0180917
0.00827845
-0.0518983
0.00723678
0.00821858
-0.0019507
-0.00267565
-0.0169691
-0.0128337
-0.0593106
0.00801589
0.00839997
-0.00162638
-0.0347857
-0.0159077
0.00908919
-0.0249956
-0.022162
-0.0126564
0.00856684
0.0101646
-0.0268698
-0.00970029
-0.0305952
-0.000902101
0.00906886
-0.0188904
0.00844465
-0.0124881
-0.0245288
0.00815006
-0.0261808
-0.000406656
-0.0103709
0.0170814
0.00944254
0.0066567
0.00965522
-0.0369712
-0.0330633
0.00830257
0.0152355
-0.0261398
0.00857047
0.00652245
0.0137392
-0.0326049
-0.0260329
-0.0374215
0.00656316
-0.00614621
-0.0394685
-0.0271934
-0.00561692
-0.000642502
-0.0222646
0.000169504
0.00858544
-0.0217016
-0.0281844
0.00758394
0.0202994
0.00535163
0.017142
0.00707873
-0.0291067
0.00602548
-0.029291
0.000306003
0.00477615
0.00138033
0.00349042
0.00772335
0.00737499
0.00306547
0.0010412
0.00818206
0.00776852
0.000605817
-0.0214304
0.00631022
-0.0112232
0.00554634
0.000548935
0.00110526
-0.0128906
0.00349164
-0.0403996
0.00936909
0.010514
-0.00096803
0.000215573
0.00830284
0.00847645
-0.00828798
0.00219859
-0.00276908
-0.0106592
0.0051523
-0.0786047
0.00174737
0.00729293
0.010494
-0.0281168
0.00377887
-0.00823333
0.000613826
-0.00124932
0.0024006
0.00842497
0.00776638
0.0104484
0.00648984
-0.0120677
-0.0832878
-0.00650105
0.00863119
0.00809617
-0.0273351
0.0126804
-0.0268787
-0.0256538
0.00973692
-0.00331816
0.00807417
-0.0347515
0.0220819
0.00620101
-0.0297242
0.000544853
0.011443
0.00821338
0.000177174
0.00693976
-0.0159411
-0.0512544
0.00812811
0.00257282
0.0081214
-0.0621682
0.0145168
0.00652813
-0.0132282
-0.0505236
-0.00314166
0.00245427
-0.0180989
-0.00350591
0.00314225
0.024692
0.0019824
0.0108199
0.00728236
0.00984397
-0.0583105
-0.0201675
0.00037976
0.0113325
-0.0393236
0.00822136
0.00808961
0.00153219
0.0100162
0.0085986
0.00281299
0.00965998
0.00806754
0.00666379
-0.0174554
-0.0232448
-0.0314344
0.00711925
-0.0165312