/*--------------------------------*- C++ -*----------------------------------*\
| =========                 |                                                 |
| \\      /  F ield         | OpenFOAM: The Open Source CFD Toolbox           |
|  \\    /   O peration     | Version:  v2012                                 |
|   \\  /    A nd           | Website:  www.openfoam.com                      |
|    \\/     M anipulation  |                                                 |
\*---------------------------------------------------------------------------*/
FoamFile
{
    version     2.0;
    format      ascii;
    class       pointVectorField;
    location    "300";
    object      pointDisplacement;
}
// * * * * * * * * * * * * * * * * * * * * * * * * * * * * * * * * * * * * * //

dimensions      [0 1 0 0 0 0 0];


internalField   nonuniform List<vector> 
14324
(
(0 0 0)
(-0.0117259 -0.104961 0)
(0 0 0)
(-0.0117259 -0.104961 0)
(0 0 0)
(0 0 0)
(0 0 0)
(0 0 0)
(0 0 0)
(0 0 0)
(0 0 0)
(0 0 0)
(0 0 0)
(0 0 0)
(0 0 0)
(0 0 0)
(0 0 0)
(0 0 0)
(0 0 0)
(0 0 0)
(0 0 0)
(0 0 0)
(0 0 0)
(0 0 0)
(0 0 0)
(0 0 0)
(0 0 0)
(0 0 0)
(0 0 0)
(0 0 0)
(0 0 0)
(0 0 0)
(0 0 0)
(0 0 0)
(0 0 0)
(0 0 0)
(0 0 0)
(0 0 0)
(0 0 0)
(0 0 0)
(0 0 0)
(0 0 0)
(0 0 0)
(0 0 0)
(0 0 0)
(0 0 0)
(0 0 0)
(0 0 0)
(0 0 0)
(0 0 0)
(0 0 0)
(0 0 0)
(0 0 0)
(0 0 0)
(0 0 0)
(0 0 0)
(0 0 0)
(0 0 0)
(0 0 0)
(0 0 0)
(0 0 0)
(0 0 0)
(0 0 0)
(0 0 0)
(0 0 0)
(0 0 0)
(0 0 0)
(0 0 0)
(0 0 0)
(0 0 0)
(0 0 0)
(0 0 0)
(0 0 0)
(0 0 0)
(0 0 0)
(0 0 0)
(-0.0140082 0.0692516 0)
(-0.0139911 0.0679417 0)
(-0.0139739 0.0666319 0)
(-0.0139567 0.065322 0)
(-0.0139396 0.0640121 0)
(-0.0139224 0.0627022 0)
(-0.0139053 0.0613924 0)
(-0.0138881 0.0600825 0)
(-0.0138709 0.0587726 0)
(-0.0138538 0.0574628 0)
(-0.0138366 0.0561529 0)
(-0.0138195 0.054843 0)
(-0.0138023 0.0535331 0)
(-0.0137851 0.0522233 0)
(-0.013768 0.0509134 0)
(-0.0137508 0.0496035 0)
(-0.0137337 0.0482937 0)
(-0.0137165 0.0469838 0)
(-0.0136993 0.0456739 0)
(-0.0136822 0.044364 0)
(-0.013665 0.0430542 0)
(-0.0136479 0.0417443 0)
(-0.0136307 0.0404344 0)
(-0.0136135 0.0391246 0)
(-0.0135964 0.0378147 0)
(-0.0135792 0.0365048 0)
(-0.0135621 0.0351949 0)
(-0.0135449 0.0338851 0)
(-0.0135277 0.0325752 0)
(-0.0135106 0.0312653 0)
(-0.0134934 0.0299554 0)
(-0.0134763 0.0286456 0)
(-0.0134591 0.0273357 0)
(-0.0134419 0.0260258 0)
(-0.0134248 0.024716 0)
(-0.0134076 0.0234061 0)
(-0.0133904 0.0220962 0)
(-0.0133733 0.0207863 0)
(-0.0133561 0.0194765 0)
(-0.013339 0.0181666 0)
(-0.0133218 0.0168567 0)
(-0.0133046 0.0155469 0)
(-0.0132875 0.014237 0)
(-0.0132703 0.0129271 0)
(-0.0132532 0.0116172 0)
(-0.013236 0.0103074 0)
(-0.0132188 0.0089975 0)
(-0.0132017 0.00768763 0)
(-0.0131845 0.00637775 0)
(-0.0131674 0.00506788 0)
(-0.0131502 0.00375801 0)
(-0.013133 0.00244814 0)
(-0.0131159 0.00113827 0)
(-0.0130987 -0.000171606 0)
(-0.0130816 -0.00148148 0)
(-0.0130644 -0.00279135 0)
(-0.0130472 -0.00410122 0)
(-0.0130301 -0.00541109 0)
(-0.0130129 -0.00672097 0)
(-0.0129958 -0.00803084 0)
(-0.0129786 -0.00934071 0)
(-0.0129614 -0.0106506 0)
(-0.0129443 -0.0119605 0)
(-0.0129271 -0.0132703 0)
(-0.01291 -0.0145802 0)
(-0.0128928 -0.0158901 0)
(-0.0128756 -0.0171999 0)
(-0.0128585 -0.0185098 0)
(-0.0128413 -0.0198197 0)
(-0.0128241 -0.0211296 0)
(-0.012807 -0.0224394 0)
(-0.0127898 -0.0237493 0)
(-0.0127727 -0.0250592 0)
(-0.0127555 -0.026369 0)
(-0.0127383 -0.0276789 0)
(-0.0127212 -0.0289888 0)
(-0.012704 -0.0302987 0)
(-0.0126869 -0.0316085 0)
(-0.0126697 -0.0329184 0)
(-0.0126525 -0.0342283 0)
(-0.0126354 -0.0355381 0)
(-0.0126182 -0.036848 0)
(-0.0126011 -0.0381579 0)
(-0.0125839 -0.0394678 0)
(-0.0125667 -0.0407776 0)
(-0.0125496 -0.0420875 0)
(-0.0125324 -0.0433974 0)
(-0.0125153 -0.0447073 0)
(-0.0124981 -0.0460171 0)
(-0.0124809 -0.047327 0)
(-0.0124638 -0.0486369 0)
(-0.0124466 -0.0499467 0)
(-0.0124295 -0.0512566 0)
(-0.0124123 -0.0525665 0)
(-0.0123951 -0.0538764 0)
(-0.012378 -0.0551862 0)
(-0.0123608 -0.0564961 0)
(-0.0123437 -0.057806 0)
(-0.0123265 -0.0591158 0)
(-0.0123093 -0.0604257 0)
(-0.0122922 -0.0617356 0)
(-0.012275 -0.0630455 0)
(-0.0122579 -0.0643553 0)
(-0.0122407 -0.0656652 0)
(-0.0122235 -0.0669751 0)
(-0.0122064 -0.0682849 0)
(-0.0121892 -0.0695948 0)
(-0.012172 -0.0709047 0)
(-0.0121549 -0.0722146 0)
(-0.0121377 -0.0735244 0)
(-0.0121206 -0.0748343 0)
(-0.0121034 -0.0761442 0)
(-0.0120862 -0.077454 0)
(-0.0120691 -0.0787639 0)
(-0.0120519 -0.0800738 0)
(-0.0120348 -0.0813837 0)
(-0.0120176 -0.0826935 0)
(-0.0120004 -0.0840034 0)
(-0.0119833 -0.0853133 0)
(-0.0119661 -0.0866232 0)
(-0.011949 -0.087933 0)
(-0.0119318 -0.0892429 0)
(-0.0119146 -0.0905528 0)
(-0.0118975 -0.0918626 0)
(-0.0118803 -0.0931725 0)
(-0.0118632 -0.0944824 0)
(-0.011846 -0.0957923 0)
(-0.0118288 -0.0971021 0)
(-0.0118117 -0.098412 0)
(-0.0117945 -0.0997219 0)
(-0.0117774 -0.101032 0)
(-0.0117602 -0.102342 0)
(-0.011743 -0.103651 0)
(-0.010416 -0.104944 0)
(-0.00910613 -0.104927 0)
(-0.00779626 -0.10491 0)
(-0.00648638 -0.104893 0)
(-0.00517651 -0.104876 0)
(-0.00386664 -0.104858 0)
(-0.00255677 -0.104841 0)
(-0.0012469 -0.104824 0)
(6.29752e-05 -0.104807 0)
(0.00137285 -0.10479 0)
(0.00268272 -0.104773 0)
(0.00399259 -0.104755 0)
(0.00530246 -0.104738 0)
(0.00661233 -0.104721 0)
(0.00792221 -0.104704 0)
(0.00923208 -0.104687 0)
(0.010542 -0.10467 0)
(0.0118518 -0.104652 0)
(0 0 0)
(0 0 0)
(0 0 0)
(0 0 0)
(0 0 0)
(0 0 0)
(0 0 0)
(0 0 0)
(0 0 0)
(0 0 0)
(0 0 0)
(0 0 0)
(0 0 0)
(0 0 0)
(0 0 0)
(0 0 0)
(0 0 0)
(0 0 0)
(0 0 0)
(0 0 0)
(0 0 0)
(0 0 0)
(0 0 0)
(0 0 0)
(0 0 0)
(0 0 0)
(0 0 0)
(0 0 0)
(0 0 0)
(0 0 0)
(0 0 0)
(0 0 0)
(0 0 0)
(0 0 0)
(0 0 0)
(0 0 0)
(0 0 0)
(0 0 0)
(0 0 0)
(0 0 0)
(0 0 0)
(0 0 0)
(0 0 0)
(0 0 0)
(0 0 0)
(0 0 0)
(0 0 0)
(0 0 0)
(0 0 0)
(0 0 0)
(0 0 0)
(0 0 0)
(0 0 0)
(0 0 0)
(0 0 0)
(0 0 0)
(0 0 0)
(0 0 0)
(0 0 0)
(0 0 0)
(0 0 0)
(0 0 0)
(0 0 0)
(0 0 0)
(0 0 0)
(0 0 0)
(0 0 0)
(0 0 0)
(0 0 0)
(0 0 0)
(0 0 0)
(0 0 0)
(-0.0140082 0.0692516 0)
(-0.0139911 0.0679417 0)
(-0.0139739 0.0666319 0)
(-0.0139567 0.065322 0)
(-0.0139396 0.0640121 0)
(-0.0139224 0.0627022 0)
(-0.0139053 0.0613924 0)
(-0.0138881 0.0600825 0)
(-0.0138709 0.0587726 0)
(-0.0138538 0.0574628 0)
(-0.0138366 0.0561529 0)
(-0.0138195 0.054843 0)
(-0.0138023 0.0535331 0)
(-0.0137851 0.0522233 0)
(-0.013768 0.0509134 0)
(-0.0137508 0.0496035 0)
(-0.0137337 0.0482937 0)
(-0.0137165 0.0469838 0)
(-0.0136993 0.0456739 0)
(-0.0136822 0.044364 0)
(-0.013665 0.0430542 0)
(-0.0136479 0.0417443 0)
(-0.0136307 0.0404344 0)
(-0.0136135 0.0391246 0)
(-0.0135964 0.0378147 0)
(-0.0135792 0.0365048 0)
(-0.0135621 0.0351949 0)
(-0.0135449 0.0338851 0)
(-0.0135277 0.0325752 0)
(-0.0135106 0.0312653 0)
(-0.0134934 0.0299554 0)
(-0.0134763 0.0286456 0)
(-0.0134591 0.0273357 0)
(-0.0134419 0.0260258 0)
(-0.0134248 0.024716 0)
(-0.0134076 0.0234061 0)
(-0.0133904 0.0220962 0)
(-0.0133733 0.0207863 0)
(-0.0133561 0.0194765 0)
(-0.013339 0.0181666 0)
(-0.0133218 0.0168567 0)
(-0.0133046 0.0155469 0)
(-0.0132875 0.014237 0)
(-0.0132703 0.0129271 0)
(-0.0132532 0.0116172 0)
(-0.013236 0.0103074 0)
(-0.0132188 0.0089975 0)
(-0.0132017 0.00768763 0)
(-0.0131845 0.00637775 0)
(-0.0131674 0.00506788 0)
(-0.0131502 0.00375801 0)
(-0.013133 0.00244814 0)
(-0.0131159 0.00113827 0)
(-0.0130987 -0.000171606 0)
(-0.0130816 -0.00148148 0)
(-0.0130644 -0.00279135 0)
(-0.0130472 -0.00410122 0)
(-0.0130301 -0.00541109 0)
(-0.0130129 -0.00672097 0)
(-0.0129958 -0.00803084 0)
(-0.0129786 -0.00934071 0)
(-0.0129614 -0.0106506 0)
(-0.0129443 -0.0119605 0)
(-0.0129271 -0.0132703 0)
(-0.01291 -0.0145802 0)
(-0.0128928 -0.0158901 0)
(-0.0128756 -0.0171999 0)
(-0.0128585 -0.0185098 0)
(-0.0128413 -0.0198197 0)
(-0.0128241 -0.0211296 0)
(-0.012807 -0.0224394 0)
(-0.0127898 -0.0237493 0)
(-0.0127727 -0.0250592 0)
(-0.0127555 -0.026369 0)
(-0.0127383 -0.0276789 0)
(-0.0127212 -0.0289888 0)
(-0.012704 -0.0302987 0)
(-0.0126869 -0.0316085 0)
(-0.0126697 -0.0329184 0)
(-0.0126525 -0.0342283 0)
(-0.0126354 -0.0355381 0)
(-0.0126182 -0.036848 0)
(-0.0126011 -0.0381579 0)
(-0.0125839 -0.0394678 0)
(-0.0125667 -0.0407776 0)
(-0.0125496 -0.0420875 0)
(-0.0125324 -0.0433974 0)
(-0.0125153 -0.0447073 0)
(-0.0124981 -0.0460171 0)
(-0.0124809 -0.047327 0)
(-0.0124638 -0.0486369 0)
(-0.0124466 -0.0499467 0)
(-0.0124295 -0.0512566 0)
(-0.0124123 -0.0525665 0)
(-0.0123951 -0.0538764 0)
(-0.012378 -0.0551862 0)
(-0.0123608 -0.0564961 0)
(-0.0123437 -0.057806 0)
(-0.0123265 -0.0591158 0)
(-0.0123093 -0.0604257 0)
(-0.0122922 -0.0617356 0)
(-0.012275 -0.0630455 0)
(-0.0122579 -0.0643553 0)
(-0.0122407 -0.0656652 0)
(-0.0122235 -0.0669751 0)
(-0.0122064 -0.0682849 0)
(-0.0121892 -0.0695948 0)
(-0.012172 -0.0709047 0)
(-0.0121549 -0.0722146 0)
(-0.0121377 -0.0735244 0)
(-0.0121206 -0.0748343 0)
(-0.0121034 -0.0761442 0)
(-0.0120862 -0.077454 0)
(-0.0120691 -0.0787639 0)
(-0.0120519 -0.0800738 0)
(-0.0120348 -0.0813837 0)
(-0.0120176 -0.0826935 0)
(-0.0120004 -0.0840034 0)
(-0.0119833 -0.0853133 0)
(-0.0119661 -0.0866232 0)
(-0.011949 -0.087933 0)
(-0.0119318 -0.0892429 0)
(-0.0119146 -0.0905528 0)
(-0.0118975 -0.0918626 0)
(-0.0118803 -0.0931725 0)
(-0.0118632 -0.0944824 0)
(-0.011846 -0.0957923 0)
(-0.0118288 -0.0971021 0)
(-0.0118117 -0.098412 0)
(-0.0117945 -0.0997219 0)
(-0.0117774 -0.101032 0)
(-0.0117602 -0.102342 0)
(-0.011743 -0.103651 0)
(-0.010416 -0.104944 0)
(-0.00910613 -0.104927 0)
(-0.00779626 -0.10491 0)
(-0.00648638 -0.104893 0)
(-0.00517651 -0.104876 0)
(-0.00386664 -0.104858 0)
(-0.00255677 -0.104841 0)
(-0.0012469 -0.104824 0)
(6.29752e-05 -0.104807 0)
(0.00137285 -0.10479 0)
(0.00268272 -0.104773 0)
(0.00399259 -0.104755 0)
(0.00530246 -0.104738 0)
(0.00661233 -0.104721 0)
(0.00792221 -0.104704 0)
(0.00923208 -0.104687 0)
(0.010542 -0.10467 0)
(0.0118518 -0.104652 0)
(-0.0137082 0.046334 0)
(-0.0133994 0.0227721 0)
(-0.0130927 -0.000659721 0)
(-0.0127813 -0.0243838 0)
(-0.0124715 -0.0480878 0)
(-0.0121641 -0.0715261 0)
(-0.0118526 -0.0952432 0)
(-0.0126265 -0.0362397 0)
(-0.0138627 0.0581257 0)
(-0.0129351 -0.0126817 0)
(-0.0135531 0.0345113 0)
(-0.0120085 -0.0833948 0)
(-0.0132449 0.0109768 0)
(-0.0123184 -0.059732 0)
(0.00218199 -0.104784 0)
(-0.00839952 -0.104916 0)
(0.0113427 -0.104664 0)
(-0.000466922 -0.00275645 0)
(-0.000282363 -0.00498066 0)
(-0.000586767 -0.00203048 0)
(-0.000641612 -0.000281218 0)
(-0.000184129 -0.00583472 0)
(-6.39901e-05 -0.00663287 0)
(-0.0117646 -0.101572 0)
(-0.000315279 -0.00241748 0)
(-0.000252442 -0.00337337 0)
(6.59015e-05 -0.00697713 0)
(-0.000645209 0.000860878 0)
(-0.00021058 -0.00243892 0)
(-0.0120768 -0.0782083 0)
(-0.0133138 0.0162656 0)
(-0.0122496 -0.0649846 0)
(-0.0136255 0.0399806 0)
(-0.0127136 -0.0295831 0)
(-0.0125391 -0.042918 0)
(-0.0128684 -0.0177465 0)
(-0.0137942 0.0528946 0)
(-0.0130207 -0.00613683 0)
(-0.0134704 0.0281573 0)
(-0.0119227 -0.0899039 0)
(-0.0139315 0.0634038 0)
(-0.0131618 0.00458986 0)
(-0.0124032 -0.053255 0)
(-0.00326744 -0.104847 0)
(-0.000241022 -0.00212756 0)
(-0.000247909 -0.00548473 0)
(-0.000517245 -0.00243878 0)
(-0.000604301 -0.00105628 0)
(-0.000149791 -0.00158421 0)
(-0.000175536 -0.00166893 0)
(0.0072553 -0.104714 0)
(-8.70171e-05 -0.000864449 0)
(-0.000144501 -0.00626711 0)
(-1.45324e-06 -0.00675359 0)
(-0.000257215 -0.00398232 0)
(-0.000627778 -0.0016336 0)
(-0.000601027 0.000287111 0)
(-0.000758552 0.00169585 0)
(-0.000325103 -0.00215683 0)
(-0.000350946 -0.00290877 0)
(-0.000233909 -0.00288979 0)
(-0.000187743 -0.0020645 0)
(-9.61666e-05 -0.000989305 0)
(-3.58282e-05 -0.000361202 0)
(-0.0111299 0.0433357 0)
(-0.0110215 0.0412677 0)
(-0.0111714 0.0400987 0)
(-0.011058 0.0380696 0)
(-0.0112213 0.0366306 0)
(-0.0110643 0.0343738 0)
(-0.0112205 0.0327239 0)
(-0.0110949 0.0306151 0)
(-0.0112281 0.028965 0)
(-0.011094 0.0270238 0)
(-0.01122 0.0252719 0)
(-0.011091 0.0234878 0)
(-0.0112024 0.0216056 0)
(-0.0110741 0.0199841 0)
(-0.0111754 0.0178014 0)
(-0.0110398 0.0163819 0)
(-0.0111369 0.0139773 0)
(-0.0110006 0.0126394 0)
(-0.0110861 0.0101577 0)
(-0.0109417 0.00888473 0)
(-0.011026 0.00634656 0)
(-0.0108738 0.00517325 0)
(-0.0109523 0.00257738 0)
(-0.0108059 0.00152571 0)
(-0.0108671 -0.00113334 0)
(-0.0107217 -0.00201297 0)
(-0.010776 -0.00478616 0)
(-0.0106286 -0.00553025 0)
(-0.0106767 -0.00832732 0)
(-0.0105298 -0.00892937 0)
(-0.010566 -0.0118286 0)
(-0.0104161 -0.0122155 0)
(-0.0104413 -0.0151919 0)
(-0.0102934 -0.0154747 0)
(-0.0103114 -0.0183948 0)
(-0.0101634 -0.018675 0)
(-0.0101781 -0.0216041 0)
(-0.0100227 -0.0217772 0)
(-0.0100329 -0.0248963 0)
(-0.00987396 -0.0248194 0)
(-0.0098758 -0.0279876 0)
(-0.00972294 -0.0277244 0)
(-0.00971546 -0.0307744 0)
(-0.010964 0.0285293 0)
(-0.010773 0.00768232 0)
(-0.0102689 -0.0125378 0)
(-0.00956279 -0.0303656 0)
(-0.00954776 -0.0333646 0)
(-0.00939439 -0.0328946 0)
(-0.00937202 -0.0358443 0)
(-0.00940276 -0.0298268 0)
(-0.00922092 -0.0352869 0)
(-0.00918884 -0.0381933 0)
(-0.00903896 -0.037412 0)
(-0.00899868 -0.0403745 0)
(-0.0088509 -0.0393774 0)
(-0.0087998 -0.0424196 0)
(-0.00865168 -0.0412929 0)
(-0.00859171 -0.0443526 0)
(-0.010209 -0.0246993 0)
(-0.0108256 -0.00770876 0)
(-0.00934226 -0.0389626 0)
(-0.00844138 -0.043167 0)
(-0.00837764 -0.0460954 0)
(-0.00822758 -0.0448391 0)
(-0.00816054 -0.0476051 0)
(-0.00830549 -0.0489288 0)
(-0.00808203 -0.0503099 0)
(-0.00822063 -0.0516984 0)
(-0.0079892 -0.0530046 0)
(-0.00785642 -0.0514993 0)
(-0.00775472 -0.0540877 0)
(-0.00762957 -0.0525517 0)
(-0.00752226 -0.0549953 0)
(-0.00762873 -0.056581 0)
(-0.00740068 -0.057336 0)
(-0.00749713 -0.0589806 0)
(-0.0072936 -0.0558749 0)
(-0.0112216 0.0115342 0)
(-0.00726636 -0.05959 0)
(-0.00734986 -0.0612868 0)
(-0.00711905 -0.0617455 0)
(-0.00719464 -0.0634435 0)
(-0.0069601 -0.063786 0)
(-0.00703132 -0.0655737 0)
(-0.00678483 -0.0657235 0)
(-0.0068399 -0.0675258 0)
(-0.0113673 0.0309123 0)
(-0.00658931 -0.0675245 0)
(-0.00663227 -0.0693091 0)
(-0.00637722 -0.0691736 0)
(-0.00635236 -0.0672506 0)
(-0.00640763 -0.0709739 0)
(-0.00615003 -0.0707134 0)
(-0.00616705 -0.0725499 0)
(-0.0071016 -0.0673639 0)
(-0.005908 -0.0721312 0)
(-0.00590552 -0.0739596 0)
(-0.00565101 -0.07339 0)
(-0.00562837 -0.0751593 0)
(-0.00537814 -0.0744948 0)
(-0.00533489 -0.0762744 0)
(-0.00850161 -0.0400784 0)
(-0.00509526 -0.0754849 0)
(-0.00501912 -0.0772431 0)
(-0.00511819 -0.0738179 0)
(-0.00480021 -0.0762789 0)
(-0.00469184 -0.0780162 0)
(-0.00447808 -0.0769363 0)
(-0.0058835 -0.0757305 0)
(-0.00435193 -0.0786608 0)
(-0.0041341 -0.077534 0)
(-0.00457357 -0.0797082 0)
(-0.00421238 -0.0803073 0)
(-0.00444415 -0.0813363 0)
(-0.00406588 -0.0818874 0)
(-0.00428765 -0.0829059 0)
(-0.00391728 -0.0833478 0)
(-0.00409365 -0.0843413 0)
(-0.00372556 -0.084678 0)
(-0.00389546 -0.0856773 0)
(-0.00349855 -0.0859564 0)
(-0.00333467 -0.0847651 0)
(-0.00368583 -0.0869868 0)
(-0.00325568 -0.0871788 0)
(-0.00343123 -0.0881996 0)
(-0.00299251 -0.0882823 0)
(-0.00316174 -0.0892911 0)
(-0.0036113 -0.0891764 0)
(-0.00333592 -0.0902487 0)
(-0.00380111 -0.0900949 0)
(-0.00287399 -0.0902956 0)
(-0.00303055 -0.0912312 0)
(-0.00255562 -0.0912222 0)
(-0.00269485 -0.092124 0)
(-0.0022021 -0.0920496 0)
(-0.00231889 -0.0929317 0)
(-0.00181027 -0.092786 0)
(-0.00190713 -0.0936584 0)
(-0.00138315 -0.0934482 0)
(-0.00132098 -0.0925515 0)
(-0.000875142 -0.0931459 0)
(-0.00243684 -0.093787 0)
(-0.000917385 -0.0940352 0)
(-0.000393136 -0.0936801 0)
(-0.000400869 -0.0945506 0)
(0.000122413 -0.0941265 0)
(0.000182836 -0.0949561 0)
(0.000749782 -0.0943818 0)
(0.000801413 -0.0952701 0)
(0.0013037 -0.0947919 0)
(0.00143065 -0.0955325 0)
(0.00187382 -0.0950146 0)
(0.0020778 -0.0956963 0)
(-0.000866843 -0.0922211 0)
(0.000942372 -0.0960509 0)
(0.00177955 -0.0943548 0)
(-0.013534 0.0661451 0)
(-0.0134833 0.0643756 0)
(-0.0135441 0.0635935 0)
(-0.0134943 0.0618289 0)
(-0.0135485 0.0610087 0)
(-0.013499 0.0592695 0)
(-0.0135476 0.0583431 0)
(-0.0134984 0.0566338 0)
(-0.0135399 0.0556427 0)
(-0.0134931 0.0539649 0)
(-0.0135291 0.053061 0)
(-0.013484 0.0513422 0)
(-0.0134454 0.0521341 0)
(-0.0134378 0.0496156 0)
(-0.0134103 0.0651234 0)
(-0.0134718 0.0486437 0)
(-0.013428 0.0469758 0)
(-0.0134567 0.0458555 0)
(-0.0134143 0.0442682 0)
(-0.0134389 0.043122 0)
(-0.0133954 0.0415117 0)
(-0.0134184 0.0403923 0)
(-0.0133753 0.03872 0)
(-0.013396 0.0376391 0)
(-0.013354 0.0359646 0)
(-0.0133719 0.0348667 0)
(-0.0133324 0.0332673 0)
(-0.0133464 0.0320893 0)
(-0.0133079 0.0305785 0)
(-0.0133194 0.0293312 0)
(-0.0132801 0.0278331 0)
(-0.0132911 0.0266056 0)
(-0.0132516 0.0250675 0)
(-0.0132621 0.0239344 0)
(-0.0132225 0.0223438 0)
(-0.0132331 0.0212991 0)
(-0.0131926 0.0195995 0)
(-0.0131826 0.0208503 0)
(-0.0131533 0.0180861 0)
(-0.0133114 0.0340056 0)
(-0.0133871 0.047858 0)
(-0.0131618 0.0167736 0)
(-0.0131221 0.01524 0)
(-0.0131288 0.0138764 0)
(-0.0130888 0.012377 0)
(-0.0130941 0.0109669 0)
(-0.0130546 0.00950791 0)
(-0.0130586 0.00807403 0)
(-0.0130201 0.00664426 0)
(-0.013023 0.00520417 0)
(-0.0129852 0.00379381 0)
(-0.0129881 0.00240145 0)
(-0.0129495 0.000976322 0)
(-0.0129523 -0.000384869 0)
(-0.012913 -0.00180269 0)
(-0.0129162 -0.00312322 0)
(-0.0128763 -0.00453428 0)
(-0.0128801 -0.00580621 0)
(-0.0128389 -0.00731174 0)
(-0.0128351 -0.0058664 0)
(-0.0127956 -0.00875525 0)
(-0.0130144 0.00804447 0)
(-0.012801 -0.0103477 0)
(-0.0127551 -0.0116578 0)
(-0.0127563 -0.0132258 0)
(-0.012713 -0.0145448 0)
(-0.0127162 -0.0159881 0)
(-0.0126709 -0.0173849 0)
(-0.0126748 -0.0188183 0)
(-0.0126295 -0.0201642 0)
(-0.0126328 -0.021667 0)
(-0.0125862 -0.0229423 0)
(-0.0125878 -0.0245385 0)
(-0.0125402 -0.0257421 0)
(-0.012541 -0.0274087 0)
(-0.0124931 -0.0285838 0)
(-0.0124942 -0.0302571 0)
(-0.0124445 -0.0314284 0)
(-0.0124464 -0.0330832 0)
(-0.012394 -0.0342806 0)
(-0.0123908 -0.0325676 0)
(-0.0123364 -0.0354828 0)
(-0.0126197 -0.0189689 0)
(-0.0123407 -0.0371961 0)
(-0.0122798 -0.0384182 0)
(-0.0122846 -0.040144 0)
(-0.0122228 -0.041295 0)
(-0.012226 -0.0430879 0)
(-0.0121622 -0.0441478 0)
(-0.0122111 -0.0397686 0)
(-0.0121644 -0.0460165 0)
(-0.0120973 -0.0469756 0)
(-0.0121003 -0.0489005 0)
(-0.0120289 -0.0498409 0)
(-0.0120324 -0.051771 0)
(-0.0119558 -0.0527073 0)
(-0.0119601 -0.0546219 0)
(-0.0118783 -0.0555352 0)
(-0.0118739 -0.053561 0)
(-0.0117907 -0.0563767 0)
(-0.0117949 -0.0583725 0)
(-0.0117022 -0.0591637 0)
(-0.0117046 -0.0611971 0)
(-0.0116061 -0.0618997 0)
(-0.0116073 -0.0639516 0)
(-0.0115016 -0.064569 0)
(-0.0115068 -0.0623994 0)
(-0.0113916 -0.0649579 0)
(-0.0113877 -0.0671864 0)
(-0.0112666 -0.067583 0)
(-0.0112629 -0.0697345 0)
(-0.011136 -0.0700739 0)
(-0.0111307 -0.0722315 0)
(-0.0109953 -0.0724984 0)
(-0.0109867 -0.0746385 0)
(-0.0112697 -0.0652307 0)
(-0.0108436 -0.0747882 0)
(-0.010829 -0.0768777 0)
(-0.0106853 -0.0769026 0)
(-0.0106594 -0.0790025 0)
(-0.0105117 -0.078848 0)
(-0.0104709 -0.0809517 0)
(-0.0105494 -0.0768548 0)
(-0.0103205 -0.0806397 0)
(-0.0102685 -0.0826663 0)
(-0.0101166 -0.0822564 0)
(-0.0100545 -0.0842498 0)
(-0.00989814 -0.0837219 0)
(-0.0126795 -0.0201869 0)
(-0.0124945 -0.0318914 0)
(-0.00982136 -0.0856907 0)
(-0.00966166 -0.0850408 0)
(-0.0129548 -0.00159053 0)
(-0.0130966 0.00940462 0)
(-0.0121674 -0.0478433 0)
(-0.0131428 0.0194262 0)
(-0.0127923 -0.00716582 0)
(-0.0111271 -0.0744198 0)
(-0.0133012 0.0255941 0)
(-0.0134122 0.0364566 0)
(-0.0095683 -0.0869307 0)
(-0.00940885 -0.0861899 0)
(-0.00950828 -0.0843076 0)
(-0.00925214 -0.0854224 0)
(-0.00935794 -0.0835422 0)
(-0.0104146 -0.0830422 0)
(-0.0135664 0.0545904 0)
(-0.00930087 -0.0879784 0)
(-0.0135935 0.0653467 0)
(-0.0094655 -0.0887351 0)
(-0.00909395 -0.084645 0)
(-0.00921016 -0.082742 0)
(-0.00917617 -0.089662 0)
(-0.00934087 -0.0904522 0)
(-0.0090334 -0.0912243 0)
(-0.00709429 0.0202771 0)
(-0.00919464 -0.0920342 0)
(-0.00887119 -0.0926617 0)
(-0.00903087 -0.093486 0)
(-0.008944 -0.083778 0)
(-0.00906769 -0.0818869 0)
(-0.0068101 0.0185526 0)
(-0.00706471 0.0176894 0)
(-0.00868583 -0.0939823 0)
(-0.00883593 -0.0948164 0)
(-0.00919485 -0.0942951 0)
(-0.00677285 0.0160822 0)
(-0.00702562 0.0150997 0)
(-0.00731066 0.0166468 0)
(-0.00726693 0.0139356 0)
(-0.00697532 0.0125157 0)
(-0.00721206 0.0112268 0)
(-0.00691419 0.00995083 0)
(-0.00714396 0.00853037 0)
(-0.0068402 0.00742311 0)
(-0.00706275 0.00585864 0)
(-0.00675257 0.00492389 0)
(-0.00696956 0.0032144 0)
(-0.00854022 -0.0931757 0)
(-0.00846913 -0.0951799 0)
(-0.00861307 -0.0960072 0)
(-0.00821548 -0.0962351 0)
(-0.00834739 -0.0970572 0)
(-0.0075444 0.0154263 0)
(-0.00792305 -0.0971656 0)
(-0.00803034 -0.0979588 0)
(-0.00665298 0.00242648 0)
(-0.0068644 0.000619211 0)
(-0.00758334 -0.0979823 0)
(-0.00766334 -0.09875 0)
(-0.0071882 -0.0986814 0)
(-0.00722071 -0.099413 0)
(-0.00715001 -0.097955 0)
(-0.00727023 0.00415179 0)
(-0.00654185 -1.40133e-05 0)
(-0.0067484 -0.0018917 0)
(-0.00880983 -0.0828351 0)
(-0.0089279 -0.0809896 0)
(-0.00672661 -0.0992569 0)
(-0.00672487 -0.0999252 0)
(0.00100142 -0.0664722 0)
(0.000897963 -0.0685799 0)
(0.000715116 -0.0665412 0)
(0.000597932 -0.0685277 0)
(0.00043444 -0.0665688 0)
(0.000301907 -0.0684839 0)
(0.00015688 -0.0664711 0)
(-0.00642009 -0.00235467 0)
(-0.0066212 -0.00430473 0)
(-0.0062881 -0.00460539 0)
(-0.00648365 -0.00659848 0)
(-0.00680334 -0.00639831 0)
(-0.00666041 -0.00871712 0)
(-0.00633784 -0.00877153 0)
(-0.00650941 -0.0109111 0)
(-0.006184 -0.0108264 0)
(-0.00635125 -0.0129617 0)
(-0.00602301 -0.0127478 0)
(-0.00618951 -0.0149078 0)
(-2.89628e-06 -0.0684335 0)
(-0.000125681 -0.0662216 0)
(-0.00585704 -0.0145304 0)
(-0.00601335 -0.0167298 0)
(-0.00847554 -0.0978654 0)
(-0.00620095 -0.0997399 0)
(-0.0061693 -0.100434 0)
(-0.00568272 -0.0161201 0)
(-0.00582588 -0.0183332 0)
(-0.00866835 -0.0819759 0)
(-0.00878678 -0.0801017 0)
(-0.00904106 -0.0789478 0)
(-0.00889988 -0.0781064 0)
(-0.00913307 -0.0768281 0)
(-0.00900142 -0.0760032 0)
(-0.00922615 -0.0746493 0)
(-0.00909342 -0.0738143 0)
(-0.00932839 -0.0722869 0)
(-0.000312034 -0.0681579 0)
(-0.00041096 -0.0658808 0)
(6.3127e-05 -0.0642721 0)
(-0.00549968 -0.0175109 0)
(-0.00563836 -0.0197269 0)
(-0.00681367 -0.0108858 0)
(-0.00595018 -0.0206701 0)
(-0.00575846 -0.0220283 0)
(-0.00544894 -0.0209544 0)
(-0.00556385 -0.0232148 0)
(-0.00525676 -0.0220148 0)
(-0.00536621 -0.0242228 0)
(-0.00565862 -0.0254888 0)
(-0.00545701 -0.0264499 0)
(-0.00516557 -0.0250652 0)
(-0.00525297 -0.0272714 0)
(-0.00496142 -0.0257385 0)
(-0.00504057 -0.0279017 0)
(-0.00475505 -0.0262563 0)
(-0.00482781 -0.0283423 0)
(-0.00508544 -0.0300583 0)
(-0.00487861 -0.0304263 0)
(-0.00461752 -0.0286323 0)
(-0.00466821 -0.0306315 0)
(-0.00490884 -0.0324431 0)
(-0.00470211 -0.0325759 0)
(-0.00491114 -0.0340452 0)
(-0.0047611 -0.0347633 0)
(-0.00448615 -0.0325378 0)
(-0.00449273 -0.0343855 0)
(-0.00472268 -0.0366621 0)
(-0.00447343 -0.0361244 0)
(-0.00425595 -0.0339486 0)
(-0.00423951 -0.0355899 0)
(-0.00444369 -0.0378385 0)
(-0.00420583 -0.0371479 0)
(-0.0043904 -0.0393887 0)
(-0.00415232 -0.0385774 0)
(-0.00398024 -0.0363513 0)
(-0.00431759 -0.0408047 0)
(-0.00408262 -0.0398984 0)
(-0.00423078 -0.0421396 0)
(-0.00399201 -0.0410789 0)
(-0.00412792 -0.0433688 0)
(-0.00388791 -0.0421754 0)
(-0.00401001 -0.0444675 0)
(-0.00377519 -0.0431668 0)
(-0.00387751 -0.0454178 0)
(-0.00364468 -0.0409308 0)
(-0.00364847 -0.0440013 0)
(-0.00373277 -0.0462333 0)
(-0.00351238 -0.044714 0)
(-0.00357878 -0.0469506 0)
(-0.00335762 -0.0451645 0)
(-0.00340846 -0.0474723 0)
(-0.00318546 -0.045429 0)
(-0.00322576 -0.0477828 0)
(-0.00313659 -0.0429066 0)
(-0.00917644 -0.0715596 0)
(-0.00940909 -0.069825 0)
(-0.00559319 -0.100132 0)
(-0.0054231 -0.100733 0)
(-0.00061098 -0.0677574 0)
(-0.000688531 -0.0654029 0)
(-0.000199078 -0.0703689 0)
(-0.0043687 -0.0443824 0)
(-0.000896511 -0.067221 0)
(-0.000955264 -0.0648054 0)
(-0.00117106 -0.0665819 0)
(-0.00121271 -0.0641203 0)
(-0.0010017 -0.0622672 0)
(-0.00124274 -0.0615212 0)
(-0.00146595 -0.0633883 0)
(-0.00148411 -0.0607404 0)
(-0.00852242 -0.0811207 0)
(-0.00837951 -0.0831119 0)
(-0.00300731 -0.0456029 0)
(-0.00380025 -0.0484238 0)
(-0.00652557 0.00653544 0)
(-0.00490283 -0.100421 0)
(-0.00465754 -0.100985 0)
(-0.00171009 -0.062612 0)
(-0.0092522 -0.0692109 0)
(-0.0094739 -0.0673579 0)
(-0.00125991 -0.0587653 0)
(-0.00148778 -0.0579724 0)
(-0.00522955 -0.101319 0)
(-0.00432864 -0.101487 0)
(-0.00383104 -0.10116 0)
(-0.00341482 -0.101626 0)
(-0.00393477 -0.101981 0)
(-0.00289857 -0.102044 0)
(-0.00246103 -0.101714 0)
(-0.00186475 -0.102084 0)
(-0.00229818 -0.102432 0)
(-0.00115671 -0.102397 0)
(-0.00078712 -0.102061 0)
(-3.59723e-05 -0.10235 0)
(-0.000383503 -0.102715 0)
(0.000912424 -0.102594 0)
(0.00100681 -0.102223 0)
(0.0020428 -0.102425 0)
(-0.00720634 -0.100111 0)
(0.00198624 -0.102795 0)
(0.00312157 -0.102589 0)
(0.00307726 -0.102202 0)
(0.00414676 -0.102322 0)
(0.00402068 -0.101915 0)
(0.00504742 -0.10199 0)
(0.00524321 -0.1024 0)
(-0.00509573 -0.0998256 0)
(-0.00824526 -0.0819708 0)
(-0.00894786 -0.0731174 0)
(-0.00807498 -0.08372 0)
(-0.00932115 -0.0667712 0)
(-0.00953333 -0.0648447 0)
(-0.00968935 -0.0652982 0)
(-0.00973898 -0.0627186 0)
(-0.0098957 -0.0630405 0)
(-0.00993707 -0.0604023 0)
(-0.0100916 -0.0606157 0)
(-0.0101253 -0.057929 0)
(-0.0102777 -0.0580148 0)
(-0.0103035 -0.0553091 0)
(-0.0104543 -0.0552771 0)
(-0.0104722 -0.05257 0)
(-0.0106232 -0.0523922 0)
(-0.0106303 -0.049684 0)
(-0.0107792 -0.0492678 0)
(-0.0107779 -0.0466294 0)
(-0.0109204 -0.0460791 0)
(-0.010916 -0.0434702 0)
(-0.0110558 -0.0428142 0)
(-0.011048 -0.0401614 0)
(-0.0111856 -0.0394185 0)
(-0.011173 -0.0368477 0)
(-0.0113076 -0.0359385 0)
(-0.0112814 -0.033501 0)
(-0.0114163 -0.0324142 0)
(-0.0113831 -0.0299759 0)
(-0.011517 -0.0288068 0)
(-0.0114858 -0.0264177 0)
(-0.0116125 -0.0251554 0)
(-0.0115777 -0.0228659 0)
(-0.0116994 -0.0215235 0)
(-0.0116615 -0.019243 0)
(-0.0117794 -0.0178655 0)
(-0.0118168 -0.0200954 0)
(-0.0118928 -0.0164077 0)
(-0.0118532 -0.0142069 0)
(-0.0119626 -0.0127005 0)
(-0.0119207 -0.0105431 0)
(-0.012027 -0.00895212 0)
(-0.011983 -0.00685864 0)
(-0.012087 -0.00515844 0)
(-0.0120388 -0.00314662 0)
(-0.0121429 -0.00131536 0)
(-0.0120873 0.000595841 0)
(-0.0121902 0.0025062 0)
(-0.0060759 -0.00272668 0)
(-0.0121301 0.00432043 0)
(-0.0122295 0.00623173 0)
(-0.0122863 0.00458578 0)
(-0.0123228 0.00820857 0)
(-0.0122644 0.00992797 0)
(-0.0123539 0.0118982 0)
(-0.00126381 -0.0558272 0)
(-0.00146917 -0.0549829 0)
(-0.00958948 -0.0622231 0)
(-0.0120621 -0.0111818 0)
(-0.0122934 0.0136248 0)
(-0.012379 0.0156269 0)
(-0.00567427 -0.0125734 0)
(-0.0106403 -0.047104 0)
(-0.011707 -0.0632133 0)
(-0.0124055 0.0102086 0)
(-0.0123159 0.017294 0)
(-0.0124023 0.0193355 0)
(-0.00112064 -0.0689036 0)
(-0.0113211 -0.0385772 0)
(-0.00795735 -0.0826473 0)
(-0.00776755 -0.0844092 0)
(-0.0123322 0.0209241 0)
(-0.0124207 0.0230103 0)
(-0.0124936 0.0212856 0)
(-0.0125035 0.0251141 0)
(-0.0124295 0.0266269 0)
(-0.0125148 0.0287727 0)
(-0.0124317 0.0301606 0)
(-0.0125153 0.0324021 0)
(-0.0124251 0.0336317 0)
(-0.0125063 0.0359238 0)
(-0.0125943 0.0270174 0)
(-0.0124097 0.0370478 0)
(-0.0124888 0.0393318 0)
(-0.0125849 0.0382452 0)
(-0.0125653 0.041602 0)
(-0.0124635 0.0426422 0)
(-0.0125375 0.0448872 0)
(-0.0124289 0.0458834 0)
(-0.0125014 0.0481768 0)
(-0.0123835 0.0490512 0)
(-0.0124521 0.0514039 0)
(-0.0123271 0.0521067 0)
(-0.0123893 0.0544876 0)
(-0.0122589 0.0550382 0)
(-0.00466112 -0.0241671 0)
(-0.0117863 -0.0543523 0)
(-0.010158 -0.0551847 0)
(-0.00125758 -0.0527146 0)
(-0.00144506 -0.0518513 0)
(-0.0118767 -0.00833788 0)
(-0.00986273 -0.0219047 0)
(-0.00426603 -0.0758015 0)
(-0.00392332 -0.0763353 0)
(-0.00405241 -0.0746146 0)
(-0.0125863 0.0506628 0)
(-0.00650987 0.0169121 0)
(-0.0123169 0.0467441 0)
(-0.0105626 -0.0027363 0)
(-0.0109298 0.0394921 0)
(-0.0109291 0.0187815 0)
(-0.0110365 -0.0373146 0)
(-0.0113531 -0.0274565 0)
(-0.00689351 -0.0619859 0)
(-0.00573753 -0.0276721 0)
(-0.0044928 -0.0840537 0)
(-0.00765967 -0.0832021 0)
(-0.00744385 -0.0849077 0)
(-0.0126605 0.0405173 0)
(-0.0016647 -0.0540499 0)
(-0.00162035 -0.0508941 0)
(-0.0109277 -0.0485406 0)
(-0.00372044 -0.0750392 0)
(-0.00384749 -0.0733127 0)
(-0.00106009 -0.0535084 0)
(-0.00106271 -0.0502267 0)
(-0.00087315 -0.0509625 0)
(-0.00736112 -0.0835867 0)
(-0.0075779 -0.0819458 0)
(-0.0122411 0.0188404 0)
(-0.0120266 0.00244407 0)
(-0.00712332 -0.0851733 0)
(-0.00718835 -0.0865512 0)
(-0.0104313 -0.0580335 0)
(-0.000881397 -0.0474843 0)
(-0.000698591 -0.0481707 0)
(-0.00761503 -0.0609088 0)
(0.00147541 -0.0867048 0)
(0.00133542 -0.0855159 0)
(0.00103784 -0.0863496 0)
(0.000923202 -0.0851265 0)
(0.000598281 -0.0859332 0)
(0.000512347 -0.0846494 0)
(0.000170159 -0.0854494 0)
(0.000115624 -0.0840781 0)
(0.000449025 -0.0832619 0)
(-0.00705711 -0.0838637 0)
(-0.0134809 0.0446544 0)
(-0.00184384 -0.0530009 0)
(-0.00178229 -0.0498576 0)
(-0.0123283 0.0347646 0)
(-0.00353117 -0.0736289 0)
(-0.00365437 -0.0718962 0)
(-0.00338831 -0.0752981 0)
(-0.00947477 -0.0733342 0)
(-0.0139749 0.0697759 0)
(-0.0139503 0.0686252 0)
(-0.0139554 0.0678793 0)
(-0.0139329 0.0667555 0)
(-0.0139354 0.0659953 0)
(-0.0139139 0.064886 0)
(-0.0139145 0.0640934 0)
(-0.0138935 0.0629882 0)
(-0.0138924 0.06215 0)
(-0.0138724 0.0610718 0)
(-0.0138718 0.0618711 0)
(-0.0138513 0.0599609 0)
(-0.0138509 0.0591746 0)
(-0.0138305 0.0580578 0)
(-0.0138292 0.0572906 0)
(-0.0138092 0.0561646 0)
(-0.0138072 0.0554142 0)
(-0.0137877 0.0542882 0)
(-0.0137849 0.0535416 0)
(-0.0137659 0.0524152 0)
(-0.0137622 0.0516573 0)
(-0.0137436 0.050538 0)
(-0.0137391 0.0497689 0)
(-0.0137209 0.0486529 0)
(-0.0137245 0.0494276 0)
(-0.0137021 0.0475326 0)
(-0.0136977 0.0467427 0)
(-0.0136793 0.0456278 0)
(-0.0136745 0.0448484 0)
(-0.0136564 0.043736 0)
(-0.0136514 0.0429751 0)
(-0.0136332 0.041832 0)
(-0.0136375 0.0425955 0)
(-0.0136142 0.0406601 0)
(-0.0136094 0.0398941 0)
(-0.0135907 0.0387315 0)
(-0.0135856 0.0379698 0)
(-0.0135674 0.0368249 0)
(-0.0135619 0.0360684 0)
(-0.013544 0.0349213 0)
(-0.0135382 0.0341713 0)
(-0.0135204 0.0330203 0)
(-0.0135142 0.0322678 0)
(-0.0134964 0.0311046 0)
(-0.0135021 0.0318679 0)
(-0.0134782 0.0299386 0)
(-0.013472 0.0291538 0)
(-0.0134544 0.0280234 0)
(-0.0134477 0.0272394 0)