/*--------------------------------*- C++ -*----------------------------------*\
| =========                 |                                                 |
| \\      /  F ield         | OpenFOAM: The Open Source CFD Toolbox           |
|  \\    /   O peration     | Version:  v2012                                 |
|   \\  /    A nd           | Website:  www.openfoam.com                      |
|    \\/     M anipulation  |                                                 |
\*---------------------------------------------------------------------------*/
FoamFile
{
    version     2.0;
    format      ascii;
    class       volVectorField;
    location    "550";
    object      cellDisplacement;
}
// * * * * * * * * * * * * * * * * * * * * * * * * * * * * * * * * * * * * * //

dimensions      [0 1 0 0 0 0 0];


internalField   nonuniform List<vector> 
13851
(
(-0.00594812 0.0913901 0)
(-0.00254055 0.122507 0)
(-0.0133816 0.13062 0)
(-0.00575928 0.0895245 0)
(-0.0167013 0.127303 0)
(-0.00339624 0.0948199 0)
(-0.0111548 0.0351431 0)
(-0.0141036 0.121944 0)
(-0.00141276 0.032872 0)
(-0.0101152 0.130519 0)
(-0.000371526 0.0178051 0)
(-0.00412555 0.135526 0)
(-0.0183687 0.140442 0)
(0.00172455 0.145487 0)
(-0.00259746 0.00987204 0)
(-0.0115985 0.116133 0)
(-0.0135266 0.097117 0)
(-0.00752588 0.106592 0)
(-0.0170914 0.139392 0)
(-0.00141846 0.0324766 0)
(-0.00580706 0.0886329 0)
(-0.0137422 0.130322 0)
(-3.77164e-05 0.00139153 0)
(-0.000192249 0.0042155 0)
(-2.76979e-05 0.00101944 0)
(-0.0138632 0.122589 0)
(-0.0150602 0.0785917 0)
(0.0115371 0.148442 0)
(-0.00608371 0.0910922 0)
(-0.00946478 0.10118 0)
(-0.00324586 0.094533 0)
(-0.0136027 0.0984505 0)
(-0.0132132 0.130095 0)
(-0.00113349 0.0552259 0)
(-0.000237839 0.00515595 0)
(-0.0199627 0.101614 0)
(-0.0202224 0.104473 0)
(-0.0140051 0.137898 0)
(-0.00993176 0.131186 0)
(-0.00113522 0.0545479 0)
(-0.00601624 0.0682095 0)
(-9.22972e-05 0.00370802 0)
(-0.0162805 0.14783 0)
(-0.000383267 0.0187611 0)
(-0.000372605 0.0183861 0)
(-0.0120758 0.146998 0)
(-0.000381262 0.0192229 0)
(-0.00185252 0.0827357 0)
(-0.015189 0.079264 0)
(-0.00124933 0.0482456 0)
(-0.0184173 0.115144 0)
(-0.0187679 0.128243 0)
(0.000463093 0.14813 0)
(-0.00178248 0.00749809 0)
(-0.000968113 0.00941308 0)
(-9.11143e-05 0.00367276 0)
(-0.000153298 0.00446516 0)
(0.00441962 0.148137 0)
(-0.00941782 0.100077 0)
(-0.0114765 0.0463127 0)
(-0.0136238 0.138034 0)
(-0.0111543 0.144486 0)
(-0.00530096 0.110045 0)
(-0.0171255 0.128913 0)
(-0.00527483 0.122284 0)
(-0.00546392 0.0935055 0)
(-0.0202538 0.104638 0)
(-0.000390112 0.0199047 0)
(-0.0167039 0.0989998 0)
(-0.00738675 0.106098 0)
(-0.0204607 0.104816 0)
(-0.0202461 0.100442 0)
(-0.00224886 0.1227 0)
(-0.0018394 0.00741154 0)
(-0.00150477 0.0157422 0)
(-0.00170704 0.04162 0)
(-0.0139153 0.129593 0)
(-0.0210883 0.139111 0)
(-0.0163113 0.116711 0)
(-0.0203358 0.0980811 0)
(-0.012329 0.0604027 0)
(-3.2598e-05 0.00161797 0)
(-0.00766964 0.0453286 0)
(-0.0137109 0.147254 0)
(-0.00534636 0.110846 0)
(-0.00439749 0.135155 0)
(-0.0035601 0.092583 0)
(-0.00426605 0.12816 0)
(-0.0146685 0.0926782 0)
(-0.000642933 0.0236869 0)
(-0.0199389 0.102797 0)
(-0.00289974 0.079458 0)
(-0.000399788 0.0204117 0)
(-0.0152242 0.0977753 0)
(-0.0147374 0.0907494 0)
(-0.000115402 0.00321994 0)
(-0.016907 0.127523 0)
(-0.0180738 0.144958 0)
(-0.0012251 0.0481707 0)
(-8.88623e-05 0.00249751 0)
(0.00279166 0.146969 0)
(-0.0172583 0.113057 0)
(-0.00741458 0.0881604 0)
(-0.0157044 0.0568013 0)
(-6.84355e-06 0.000271779 0)
(-0.0033486 0.090509 0)
(-0.017687 0.113232 0)
(-4.84528e-05 0.00194647 0)
(-0.0202527 0.098204 0)
(-0.00344144 0.0957118 0)
(-0.000117235 0.00290347 0)
(-0.000655297 0.0242697 0)
(-0.0029635 0.0790953 0)
(-5.10731e-05 0.00113116 0)
(-0.000149528 0.00366623 0)
(-0.00162202 0.100544 0)
(-0.0180644 0.144555 0)
(-6.13939e-05 0.00243152 0)
(-0.000362003 0.00547185 0)
(-0.000725503 0.00755372 0)
(-0.015413 0.147864 0)
(-0.0156077 0.0583578 0)
(-0.0181595 0.141063 0)
(-0.00135258 0.0788844 0)
(-0.00194633 0.0824002 0)
(-0.000352136 0.0148849 0)
(-0.00193672 0.0815039 0)
(-0.0167863 0.115296 0)
(-0.00567483 0.0875323 0)
(-0.0162846 0.134912 0)
(-0.0059306 0.0666714 0)
(-0.00152682 0.0267328 0)
(-0.020471 0.105407 0)
(-0.00755321 0.043417 0)
(-0.00156462 0.099871 0)
(-0.000714471 0.0119287 0)
(-5.65408e-05 0.00223581 0)
(-0.0202789 0.103319 0)
(-0.00390268 0.144129 0)
(0.000353599 0.141831 0)
(0.00210924 0.147091 0)
(-0.000860495 0.00855249 0)
(-0.00198653 0.055585 0)
(-0.000199613 0.00814643 0)
(-0.0121559 0.0925305 0)
(-0.000393885 0.0193119 0)
(-2.32779e-05 0.00104804 0)
(-0.0160091 0.135282 0)
(-0.0109339 0.0348945 0)
(-0.000362147 0.0178374 0)
(-0.0192065 0.0914148 0)
(-0.00083639 0.00905661 0)
(0.00221049 0.14567 0)
(-0.000146792 0.00431717 0)
(-0.0136061 0.079283 0)
(-0.0119884 0.0925039 0)
(-0.00324455 0.0526083 0)
(-0.00999102 0.0960145 0)
(-0.018668 0.12927 0)
(-0.0182706 0.115859 0)
(-1.83508e-05 0.000762965 0)
(-0.0161048 0.0879487 0)
(0.00394254 0.148159 0)
(-0.00145531 0.0258845 0)
(-0.00970514 0.109718 0)
(-0.000159761 0.00644622 0)
(-2.9333e-05 0.00132661 0)
(-0.0168575 0.0983838 0)
(-0.00570791 0.0865963 0)
(-0.016032 0.146235 0)
(-0.0210763 0.138262 0)
(-0.000599849 0.0157777 0)
(-0.00334956 0.0534649 0)
(0.000191118 0.142203 0)
(-0.00135131 0.0240001 0)
(-0.00185828 0.0836074 0)
(-0.0166383 0.11516 0)
(-0.00220238 0.0586046 0)
(-0.0173826 0.139625 0)
(-4.89154e-05 0.00197862 0)
(-0.013524 0.101452 0)
(-0.0202768 0.101993 0)
(-0.00725914 0.0394115 0)
(-0.013849 0.130938 0)
(-5.95912e-06 0.000238002 0)
(-6.56017e-05 0.0022055 0)
(-0.00556994 0.0942857 0)
(-0.0010086 0.0104401 0)
(-0.0162882 0.130394 0)
(-0.00814228 0.127213 0)
(-0.000391077 0.0197494 0)
(0.00088846 0.148136 0)
(-0.000660906 0.0249015 0)
(-0.0162471 0.104004 0)
(-0.0111796 0.144156 0)
(-0.013333 0.0795582 0)
(-0.00198916 0.0547645 0)
(-0.00107672 0.0516653 0)
(-0.0021685 0.0576901 0)
(-0.00175641 0.0425342 0)
(-0.000363353 0.0153348 0)
(-0.0119221 0.146392 0)
(-0.000221689 0.00303742 0)
(-0.00650981 0.0516531 0)
(-0.0093702 0.126897 0)
(-0.00757229 0.0410119 0)
(-0.00601435 0.141624 0)
(-0.013952 0.0955275 0)
(-0.0207825 0.122955 0)
(-3.04688e-05 0.00124816 0)
(-0.0206617 0.122438 0)
(-0.00739283 0.0868045 0)
(-0.000993576 0.0515167 0)
(-3.13745e-05 0.00126678 0)
(-0.0001731 0.00706043 0)
(-0.000348715 0.0163902 0)
(-0.00565468 0.111699 0)
(-0.0110772 0.147129 0)
(-0.00440856 0.0194343 0)
(-0.0207992 0.124067 0)
(-0.0139287 0.0971131 0)
(-0.0125105 0.0612277 0)
(-0.0201341 0.140998 0)
(-0.0177619 0.132131 0)
(-0.0205627 0.112718 0)
(-3.91986e-05 0.00136358 0)
(-0.015416 0.102089 0)
(-5.71332e-06 0.000226685 0)
(-0.00269308 0.148053 0)
(-2.89608e-05 0.00117203 0)
(-0.0136592 0.122111 0)
(-0.00467776 0.118344 0)
(-0.00055705 0.0146684 0)
(-0.000649381 0.0243472 0)
(-0.0184194 0.109722 0)
(-0.00701684 0.114622 0)
(-0.00658975 0.14158 0)
(-0.00507507 0.122817 0)
(-0.000190476 0.00778751 0)
(-0.00668159 0.0521895 0)
(-0.00320783 0.0936207 0)
(-0.00107414 0.0461456 0)
(-2.58261e-05 0.00110293 0)
(-0.0091626 0.127557 0)
(-1.00992e-05 0.000401088 0)
(-0.0206441 0.116651 0)
(-0.0171869 0.114698 0)
(-0.00103663 0.0535665 0)
(-0.0117073 0.0941534 0)
(-0.0122157 0.10437 0)
(-0.00248827 0.0696096 0)
(-0.00105202 0.0459121 0)
(-0.0112186 0.0760243 0)
(-0.0118807 0.0942043 0)
(-0.0181354 0.103544 0)
(-0.00365258 0.107491 0)
(-0.00813361 0.126518 0)
(-0.0203076 0.104773 0)
(-0.0209707 0.147011 0)
(-0.00713409 0.0245832 0)
(-0.000181992 0.00741164 0)
(-0.00732522 0.104313 0)
(-0.00243111 0.0965062 0)
(-0.000327082 0.013244 0)
(-0.0162435 0.140916 0)
(-0.0132182 0.0805905 0)
(-0.0112124 0.0744863 0)
(-0.0152051 0.0962722 0)
(-0.0200461 0.140484 0)
(-0.000623714 0.0264357 0)
(-0.00243672 0.0689615 0)
(-0.0134968 0.0804946 0)
(-0.00292211 0.0965901 0)
(-0.0162724 0.115372 0)
(-0.0114451 0.115545 0)
(-0.00162729 0.0285516 0)
(-2.4679e-05 0.0012306 0)
(-0.000314751 0.0142122 0)
(-0.0203476 0.100331 0)
(-0.000361513 0.0172866 0)
(-1.87874e-05 0.000804352 0)
(-1.94174e-05 0.00079297 0)
(-5.58877e-06 0.000222262 0)
(-0.0180663 0.102373 0)
(-0.00233649 0.0959293 0)
(-0.00178242 0.084793 0)
(-0.00166649 0.0386503 0)
(-0.00445066 0.0119746 0)
(-0.00283594 0.0959815 0)
(-1.22693e-05 0.000602659 0)
(-0.0159369 0.136169 0)
(-0.00957911 0.099019 0)
(-0.0115709 0.0482762 0)
(-0.0166553 0.104332 0)
(-2.28835e-05 0.00112304 0)
(-0.016637 0.140633 0)
(-0.0101963 0.108834 0)
(-0.00425787 0.134645 0)
(-0.00179683 0.0312262 0)
(-0.0206542 0.117627 0)
(-0.0160544 0.0865247 0)
(-0.0133142 0.0975802 0)
(-0.0204021 0.103568 0)
(-0.00814968 0.0787587 0)
(-0.00338035 0.0914365 0)
(-0.0207667 0.135561 0)
(-0.00162746 0.0374398 0)
(-0.0176453 0.101549 0)
(-0.0151064 0.0993096 0)
(-0.00951844 0.0978685 0)
(-0.00477477 0.144107 0)
(-0.0100923 0.109622 0)
(-0.0107972 0.0766512 0)
(-0.0196108 0.143114 0)
(-0.000113348 0.00455457 0)
(-0.0123072 0.105231 0)
(-0.000382617 0.0162324 0)
(-0.0203401 0.100345 0)
(-0.0196956 0.101049 0)
(-0.00483662 0.0212714 0)
(-0.0176775 0.11029 0)
(-0.00487245 0.0179961 0)
(-0.0209069 0.146875 0)
(-0.00245334 0.0711642 0)
(-4.75981e-05 0.00171516 0)
(-0.00349669 0.0616173 0)
(-0.0196538 0.10257 0)
(-0.0153656 0.100523 0)
(-0.0137542 0.0764798 0)
(-0.00415297 0.0105692 0)
(-0.00814601 0.0775249 0)
(-0.0106428 0.0764447 0)
(-0.000371776 0.0179894 0)
(0.00515307 0.146129 0)
(-0.0148291 0.145782 0)
(-0.00641763 0.106014 0)
(-0.0203877 0.10324 0)
(-0.0115545 0.141664 0)
(-0.00244203 0.00972333 0)
(-0.0161722 0.105781 0)
(-0.0156378 0.136556 0)
(-0.00295893 0.0812049 0)
(-0.00625782 0.116058 0)
(-0.0188726 0.124362 0)
(-0.0167485 0.139867 0)
(-0.00298936 0.0737647 0)
(-0.00193958 0.0958766 0)
(-0.0207888 0.128603 0)
(-0.00222499 0.00811672 0)
(-0.000452675 0.0200817 0)
(-0.000443 0.0197529 0)
(-0.0102621 0.137715 0)
(-0.0138131 0.0749339 0)
(-0.00607838 0.11652 0)
(-0.00192068 0.148052 0)
(-0.00343497 0.0550408 0)
(-0.00184261 0.0952981 0)
(-0.00342035 0.0610446 0)
(-0.00453507 0.0163735 0)
(-1.0793e-05 0.000429072 0)
(-4.67647e-05 0.00188308 0)
(-0.00308401 0.0484775 0)
(-0.0207559 0.128228 0)
(-0.000721926 0.0348547 0)
(-0.00789668 0.0616697 0)
(-0.0175619 0.100218 0)
(-0.000125702 0.00509318 0)
(-0.00390791 0.134497 0)
(-0.0103741 0.119429 0)
(-0.00151339 0.0848005 0)
(-0.0158076 0.14601 0)
(-0.00792169 0.0631066 0)
(-0.0055306 0.112304 0)
(-0.0147881 0.101549 0)
(-0.00159197 0.0844628 0)
(-0.0054857 0.063169 0)
(-6.70335e-05 0.00265389 0)
(-0.00272582 0.0740909 0)
(0.00470058 0.147022 0)
(-0.00122508 0.012896 0)
(-0.0051375 0.143766 0)
(-0.00289655 0.080528 0)
(-0.0189712 0.125053 0)
(-0.0154781 0.146482 0)
(-0.000429138 0.0197328 0)
(-0.000439345 0.0201159 0)
(-0.00228891 0.0649665 0)
(-0.00181283 0.028852 0)
(-0.00129016 0.00452112 0)
(-0.00653373 0.105076 0)
(-0.0177629 0.108803 0)
(0.00215986 0.145209 0)
(-0.0170597 0.0955808 0)
(-0.0205508 0.112718 0)
(-0.0207902 0.133268 0)
(-0.000132549 0.00536042 0)
(-0.00745531 0.0253498 0)
(-0.0150331 0.146029 0)
(-0.020429 0.103062 0)
(-0.00468521 0.117684 0)
(-0.0184656 0.14422 0)
(-0.00266513 0.0742316 0)
(-0.0148594 0.102737 0)
(-6.79298e-05 0.00207994 0)
(-0.0118997 0.141284 0)
(-0.000963198 0.0241452 0)
(-0.0118199 0.115677 0)
(-0.0023127 0.0644652 0)
(-0.0104557 0.0407597 0)
(-4.82348e-06 0.000191699 0)
(-0.00156461 0.0363886 0)
(-0.000152014 0.00614437 0)
(-0.0172907 0.127944 0)
(-0.0068467 0.117001 0)
(-0.0203943 0.146786 0)
(-0.00704159 0.105711 0)
(-0.0177574 0.111593 0)
(-0.0043524 0.095357 0)
(-0.00103496 0.0451074 0)
(-0.0118858 0.107302 0)
(-0.00982947 0.137702 0)
(-0.0132308 0.0963932 0)
(-0.000337745 0.0158612 0)
(-5.07531e-05 0.00200974 0)
(-0.00152305 0.0351986 0)
(-5.05539e-05 0.00169065 0)
(-0.0129358 0.138861 0)
(-0.000903602 0.0467265 0)
(-0.0173319 0.132735 0)
(-0.00447678 0.0955873 0)
(-0.0205411 0.146995 0)
(-0.00115702 0.0558598 0)
(-0.00351745 0.0916699 0)
(-0.000635125 0.0067689 0)
(-0.0185274 0.108546 0)
(-0.00537762 0.0614908 0)
(-0.00101375 0.0448761 0)
(-1.30418e-05 0.000514811 0)
(-0.00828724 0.137191 0)
(-0.000927759 0.0443444 0)
(-0.0128123 0.129087 0)
(-0.0208708 0.127693 0)
(-0.0021142 0.0575179 0)
(-0.000284266 0.0129054 0)
(-0.000917171 0.0447059 0)
(0.0065275 0.146869 0)
(-8.29577e-06 0.000331567 0)
(-0.014976 0.105367 0)
(-0.0164842 0.116679 0)
(-0.000614159 0.0262757 0)
(-0.000806383 0.0200921 0)
(-0.0104422 0.0779153 0)
(-0.019133 0.090631 0)
(-0.0187624 0.12713 0)
(-0.00670801 0.108464 0)
(-0.00176733 0.133724 0)
(-5.08933e-05 0.00176096 0)
(-0.00355857 0.0632124 0)
(-0.0133742 0.147826 0)
(-0.00946613 0.110414 0)
(-1.76766e-05 0.000720036 0)
(-0.00390349 0.128233 0)
(-0.00173385 0.0279181 0)
(-0.00582686 0.0907341 0)
(-0.00106048 0.0248226 0)
(-0.00844929 0.117663 0)
(-0.00968033 0.0933484 0)
(-2.75728e-05 0.00112656 0)
(-0.00207675 0.0566461 0)
(-0.0193803 0.142974 0)
(-0.00794992 0.0471119 0)
(-0.0170983 0.0992245 0)
(-0.00080446 0.0132568 0)
(-0.00372342 0.0858781 0)
(-0.000312132 0.0144008 0)
(-4.92309e-05 0.00103736 0)
(-0.00512722 0.0665256 0)
(-9.65176e-05 0.00211247 0)
(-8.78231e-05 0.00197325 0)
(-0.00197042 0.0850447 0)
(-0.0113624 0.0723105 0)
(-0.00345806 0.0932609 0)
(-0.00711186 0.0374544 0)
(-8.86226e-05 0.00273098 0)
(0.000530981 0.146536 0)
(-0.0208558 0.126716 0)
(-0.00802991 0.0419945 0)
(-0.00362748 0.0858745 0)
(-0.0120773 0.107541 0)
(-0.00109475 0.0470279 0)
(-0.0128623 0.147215 0)
(-0.00363531 0.0637157 0)
(-0.00070931 0.0342084 0)
(-0.00565881 0.0640978 0)
(-0.0158514 0.128962 0)
(-0.0108916 0.0458575 0)
(-0.00625535 0.147863 0)
(-3.56297e-05 0.00141049 0)
(-0.000682112 0.148133 0)
(-0.00780912 0.125704 0)
(-9.94518e-05 0.0039913 0)
(-0.00354549 0.0848821 0)
(-0.0177287 0.145894 0)
(-0.0134101 0.122875 0)
(-0.000478752 0.0241428 0)
(-0.000460803 0.00686616 0)
(-0.0015363 0.0768381 0)
(-0.000758321 0.00724186 0)
(-0.00114767 0.0219141 0)
(-0.00174574 0.0312881 0)
(-0.0104267 0.0338837 0)
(-0.0204325 0.103311 0)
(-0.018029 0.115154 0)
(-0.019444 0.119743 0)
(-0.0187529 0.13753 0)
(-0.00558326 0.110922 0)
(-2.34826e-05 0.000979253 0)
(-0.0161062 0.142574 0)
(-0.000923732 0.0465666 0)
(-0.0137118 0.101198 0)
(-0.0160471 0.0898106 0)
(-0.00111734 0.0471472 0)
(-0.00143799 0.0787247 0)
(-0.0206283 0.121948 0)
(-0.00120599 0.00559096 0)
(-0.00580145 0.147827 0)
(-0.012945 0.147036 0)
(-0.0111407 0.146551 0)
(-0.00988827 0.110122 0)
(-0.00345729 0.0849179 0)
(-0.00141306 0.0813951 0)
(-0.000295381 0.0134164 0)
(-0.00362411 0.106653 0)
(-0.00105301 0.0519064 0)
(-0.00781809 0.138096 0)
(-0.0098553 0.0970683 0)
(-0.00787334 0.13854 0)
(-0.0204338 0.118298 0)
(-4.04e-05 0.0016006 0)
(-0.000303389 0.0136914 0)
(-0.0181813 0.114534 0)
(-0.0208826 0.127973 0)
(-0.0115964 0.0956652 0)
(-0.00557328 0.0393076 0)
(-0.00316 0.0509981 0)
(-0.00638585 0.0616372 0)
(-0.0165021 0.129489 0)
(-0.00762597 0.115101 0)
(-0.00442106 0.127582 0)
(-0.00192648 0.133321 0)
(-0.00056218 0.0110799 0)
(-0.0142052 0.147839 0)
(-0.0210317 0.137679 0)
(-0.00302534 0.0905135 0)
(-0.000914678 0.0458147 0)
(-0.0169516 0.0999127 0)
(-1.45446e-05 0.000589487 0)
(-0.00146368 0.0342186 0)
(-3.37087e-05 0.0015607 0)
(-0.0163154 0.142922 0)
(-0.013742 0.0795849 0)
(-0.019389 0.0997715 0)
(-0.0199496 0.10849 0)
(-8.38369e-05 0.00338219 0)
(-0.00412187 0.0959592 0)
(-0.00160199 0.0791756 0)
(-0.0106818 0.137159 0)
(-0.0184513 0.127106 0)
(-0.0204488 0.104237 0)
(-0.0204234 0.115408 0)
(-0.00575553 0.0657305 0)
(-0.0105816 0.0395354 0)
(-0.00265983 0.128092 0)
(-0.0208059 0.134424 0)
(-0.0196953 0.10882 0)
(-0.0171219 0.0937197 0)
(-0.0050666 0.109924 0)
(-5.13457e-05 0.00207183 0)
(-0.00461757 0.0441781 0)
(-0.00833882 0.137672 0)
(-7.7578e-05 0.00312199 0)
(-0.0114201 0.0955478 0)
(-4.21212e-05 0.00170404 0)
(-0.00146271 0.0215537 0)
(-0.0204589 0.119542 0)
(-0.016914 0.128756 0)
(-0.00458622 0.0947343 0)
(-7.12101e-05 0.00286837 0)
(-0.00593744 0.143675 0)
(-0.00106714 0.0509034 0)
(-0.00192526 0.0321343 0)
(-0.000144028 0.00445373 0)
(-0.000339808 0.0137401 0)
(-0.00161026 0.00591512 0)
(0.00477015 0.14716 0)
(-0.00103368 0.0528514 0)
(-0.000999882 0.0522723 0)
(-0.0101391 0.146511 0)
(-0.00146191 0.0761785 0)
(-0.0169958 0.090989 0)
(-0.0208863 0.128102 0)
(-0.0207858 0.122924 0)
(-0.00297667 0.0745674 0)
(-0.0166349 0.101018 0)
(-1.09575e-05 0.000444596 0)
(-0.000370669 0.0157578 0)
(-0.0122958 0.117179 0)
(-0.0188085 0.142722 0)
(-0.00207995 0.0956423 0)
(-0.0193315 0.101093 0)
(-0.0141457 0.106682 0)
(-0.00130711 0.0301673 0)
(-0.0110162 0.115877 0)
(-0.00177586 0.0518511 0)
(-0.000489514 0.0245247 0)
(-0.0179433 0.119776 0)
(-0.00678733 0.0358391 0)
(-0.00651138 0.106835 0)
(-0.000795357 0.0195948 0)
(-0.0153843 0.0933295 0)
(-0.0171204 0.133541 0)
(-0.0112589 0.0456089 0)
(-0.00521313 0.06061 0)
(-0.0105708 0.119833 0)
(-0.0107128 0.0585556 0)
(-0.0164924 0.128317 0)
(-0.0127569 0.138378 0)
(-0.0177865 0.131211 0)
(-0.0105811 0.116176 0)
(-0.0197521 0.107592 0)
(-0.00125915 0.0289356 0)
(-0.00491724 0.116579 0)
(-0.00249678 0.0706473 0)
(-0.00943234 0.146665 0)
(-0.0075212 0.0860335 0)
(-0.000120877 0.00325836 0)
(-0.0202622 0.0994298 0)
(-0.00833894 0.0978708 0)
(-0.0156941 0.146645 0)
(-0.020772 0.125459 0)
(-0.0097924 0.14739 0)
(-0.00372265 0.127785 0)
(-0.000956836 0.0236932 0)
(-0.0202393 0.0991556 0)
(-1.94314e-05 0.000836132 0)
(-0.00161005 0.0244197 0)
(-3.13233e-05 0.00124168 0)
(-0.00161779 0.023789 0)
(-1.10649e-05 0.000489291 0)
(-0.00683808 0.105811 0)
(-0.00855191 0.1167 0)
(-6.56798e-05 0.00263995 0)
(-0.0097934 0.140961 0)
(-0.00781182 0.126395 0)
(-0.0098129 0.141354 0)
(-0.00277992 0.0472516 0)
(-2.03229e-05 0.000808004 0)
(-5.16444e-05 0.00191665 0)
(-0.0153424 0.136246 0)
(-0.0104684 0.143709 0)
(-0.0184856 0.0962016 0)
(-0.0153761 0.0948608 0)
(-2.54159e-05 0.00109642 0)
(-8.4125e-05 0.00255019 0)
(-0.000400296 0.0078235 0)
(-0.00328863 0.0555026 0)
(-0.0199997 0.125633 0)
(-0.00201913 0.138147 0)
(-0.0105487 0.0576045 0)
(-5.98703e-05 0.00240856 0)
(-0.0105277 0.0323654 0)
(-0.00330143 0.0548157 0)
(-0.00864074 0.136208 0)
(0.00276737 0.148167 0)
(-0.0111852 0.116318 0)
(-0.0172819 0.145289 0)
(-0.00153002 0.0776857 0)
(-0.0050997 0.0589206 0)
(-0.0193307 0.120665 0)
(0.00567928 0.146852 0)
(-0.0167263 0.102444 0)
(-0.00424222 0.135982 0)
(-0.0121942 0.0616774 0)
(-0.00745595 0.104971 0)
(-0.0183953 0.0966656 0)
(-0.00713157 0.104624 0)
(-0.00101874 0.0513325 0)
(-0.00773573 0.0405569 0)
(-0.00141854 0.0805068 0)
(-1.09663e-05 0.0004335 0)
(-0.0173474 0.0725418 0)
(-0.0208611 0.127524 0)
(-0.00158624 0.0416867 0)
(-0.00798234 0.0943521 0)
(-0.00502125 0.109111 0)
(-0.00123991 0.023715 0)
(-0.0134611 0.100128 0)
(-0.00266585 0.0959633 0)
(0.000818155 0.143403 0)
(-0.0177766 0.120157 0)
(-0.0160021 0.140514 0)
(-0.000424151 0.0197063 0)
(-3.79553e-05 0.00153212 0)
(-0.0026955 0.045541 0)
(-0.000627825 0.146564 0)
(-0.0199179 0.107327 0)
(-0.0068825 0.115448 0)
(-0.0207714 0.126374 0)
(-0.00102763 0.028016 0)
(-0.000613494 0.00169302 0)
(-4.54629e-05 0.00179842 0)
(-0.00146952 0.075326 0)
(-0.0203203 0.113204 0)
(-0.010304 0.10578 0)
(-0.00615528 0.0814312 0)
(-0.000323131 0.0149173 0)
(-0.0147688 0.0838901 0)
(-5.36628e-05 0.00199851 0)
(-0.0158194 0.147716 0)
(-0.0035264 0.108035 0)
(-0.0208378 0.142738 0)
(-0.000106194 0.00427285 0)
(-0.0105288 0.0557688 0)
(-0.0209638 0.132182 0)
(0.00673706 0.148278 0)
(-0.0198885 0.10273 0)
(-0.00177448 0.0510615 0)
(-0.0204693 0.113175 0)
(-0.00772996 0.0431012 0)
(-0.00033612 0.0156525 0)
(-0.0122818 0.135339 0)
(-0.0126515 0.129994 0)
(-0.0122907 0.101834 0)
(-0.010908 0.147293 0)
(-0.00235405 0.0665662 0)
(-0.00156654 0.0492074 0)
(-0.0202164 0.106031 0)
(-0.000133943 0.00356892 0)
(-0.000123884 0.00166752 0)
(-0.00974008 0.0946046 0)
(-0.0012074 0.0280847 0)
(-0.0150132 0.147691 0)
(-0.0129585 0.114209 0)
(-0.0186408 0.126572 0)
(-0.00470555 0.0950164 0)
(-0.000317803 0.0144519 0)
(-0.0013646 0.0311163 0)
(-0.00258502 0.096542 0)
(-0.000321054 0.00574063 0)
(-0.00230757 0.0659786 0)
(-2.70015e-05 0.00106966 0)
(-0.00482551 0.0563444 0)
(-0.00095563 0.0116504 0)
(-0.0207877 0.136537 0)
(-0.00317503 0.0501973 0)
(-8.84671e-05 0.00349836 0)
(-0.00217708 0.0811945 0)
(-0.0108327 0.0404181 0)
(-0.0209603 0.132161 0)
(-1.44895e-05 0.000565327 0)
(-0.00189855 0.053755 0)
(-0.0187921 0.106534 0)
(-0.00818278 0.136135 0)
(-0.000753389 0.03589 0)
(-0.00043135 0.00899347 0)
(-0.00308181 0.0965903 0)
(-0.016984 0.144991 0)
(-0.0113701 0.0739547 0)
(-0.0206436 0.133698 0)
(-0.0172578 0.0730739 0)
(-0.00111195 0.026096 0)
(-0.0014327 0.0509042 0)
(-0.016344 0.147798 0)
(-0.00317551 0.0960048 0)
(-0.0116537 0.105853 0)
(-0.000504645 0.00982895 0)
(-5.44444e-05 0.00218585 0)
(-0.000931585 0.0455413 0)
(-0.0121167 0.131189 0)
(-0.0079277 0.121847 0)
(-0.0101436 0.107887 0)
(-0.00140551 0.0504478 0)
(-0.00150086 0.00675568 0)
(-0.00185622 0.0528495 0)
(-0.0194046 0.0927122 0)
(-0.00098779 0.0483717 0)
(-0.016065 0.130176 0)
(-0.00217843 0.0962038 0)
(-0.0103406 0.0546888 0)
(-0.0160691 0.129111 0)
(-0.0187226 0.116066 0)
(-0.0203107 0.0988724 0)
(-0.0101069 0.105512 0)
(-0.00413133 0.141093 0)
(-0.0185502 0.137601 0)
(-0.0109656 0.0389712 0)
(-0.0146702 0.146942 0)
(-0.00513707 0.116029 0)
(-0.0134846 0.144139 0)
(0.00130015 0.143642 0)
(-0.0200309 0.143403 0)
(-0.000698291 0.0320542 0)
(-0.0120013 0.120682 0)
(-0.00115879 0.0268607 0)
(-0.00643474 0.104261 0)
(0.00360945 0.148089 0)
(-0.0145623 0.147134 0)
(-0.00307007 0.0578806 0)
(-5.92148e-05 0.00190322 0)
(-0.0183832 0.111762 0)
(-2.49362e-05 0.001197 0)
(-0.000114587 0.00455624 0)
(0.00287568 0.148177 0)
(-0.000990903 0.0268863 0)
(-0.00819033 0.0588274 0)
(-0.01377 0.147758 0)
(-0.021003 0.134273 0)
(-0.000429105 0.0200455 0)
(-0.00167887 0.0257483 0)
(-0.00445194 0.0150135 0)
(0.00593406 0.148253 0)
(-0.0199149 0.126124 0)
(-0.0196244 0.108104 0)
(-0.00323838 0.0737904 0)
(-0.0153306 0.145493 0)
(-0.0110564 0.137234 0)
(-0.0110802 0.143425 0)
(-0.0175243 0.113724 0)
(-0.0174151 0.101121 0)
(-0.0105955 0.0779653 0)
(-0.0108041 0.0437918 0)
(-0.00199103 0.122135 0)
(-0.0185173 0.0874577 0)
(-0.0204104 0.102058 0)
(-0.00258915 0.0735638 0)
(-0.0169137 0.0960834 0)
(-0.0152348 0.147585 0)
(-0.0137213 0.144432 0)
(-0.02105 0.137761 0)
(-0.00888385 0.0431965 0)
(-0.0169301 0.0872446 0)
(-0.00184847 0.0312192 0)
(-0.0107572 0.116637 0)
(-0.00784187 0.0937978 0)
(-0.003764 0.136677 0)
(-0.000402864 0.00163961 0)
(-0.0204982 0.107287 0)
(-0.000114047 0.00452093 0)
(-0.0187049 0.106794 0)
(-0.00506487 0.0522302 0)
(-0.0116266 0.136253 0)
(-0.0170932 0.0918096 0)
(-0.0168034 0.0884663 0)
(-0.0177645 0.145257 0)
(-0.017836 0.0975017 0)
(-0.00818013 0.11812 0)
(-0.000170472 0.00383472 0)
(-0.018627 0.10877 0)
(-0.00176854 0.0839062 0)
(-0.00517518 0.112319 0)
(-0.0111184 0.0967976 0)
(-0.02102 0.135108 0)
(-0.000318549 0.0128402 0)
(0.00203174 0.143523 0)
(-0.000715336 0.0339017 0)
(-0.00976601 0.0723608 0)
(-0.0206698 0.121687 0)
(0.00392086 0.146945 0)
(-0.020976 0.133179 0)
(-0.000686074 0.0314653 0)
(-0.00256403 0.0726522 0)
(-0.00332291 0.058635 0)
(-0.0208211 0.143607 0)
(-0.000708619 0.00302634 0)
(-0.0017869 0.100793 0)
(-0.02074 0.120608 0)
(-0.00288081 0.0474055 0)
(-0.0144805 0.0604249 0)
(-0.0133662 0.138763 0)
(-0.00103357 0.0503544 0)
(-0.00310346 0.140825 0)
(-0.00998325 0.0621539 0)
(-0.000186808 0.00543124 0)
(-0.00184123 0.125502 0)
(-0.0208237 0.125291 0)
(-0.0183475 0.128433 0)
(-0.0116201 0.104566 0)
(-0.00332933 0.0727965 0)
(-0.000703275 0.0333005 0)
(-0.0110447 0.147695 0)
(-0.0187192 0.117451 0)
(-9.47094e-05 0.00374398 0)
(-0.0121377 0.121308 0)
(-0.00126271 0.0234507 0)
(-0.000403301 0.00553439 0)
(-0.000438701 0.0197595 0)
(-6.70906e-05 0.00201915 0)
(-0.00891198 0.13817 0)
(-0.000993689 0.0440324 0)
(-0.00823046 0.0603531 0)
(-0.00202622 0.0564793 0)
(-0.00334516 0.0597214 0)
(-0.00992777 0.0947719 0)
(-0.0206613 0.116004 0)
(-0.0171505 0.145929 0)
(-0.0151074 0.103791 0)
(-0.00434267 0.141379 0)
(-0.00502768 0.051019 0)
(-0.0147943 0.105502 0)
(-0.00321908 0.0572767 0)
(-0.00132422 0.0242459 0)
(-0.00848307 0.0747137 0)
(-0.00805309 0.0603466 0)
(-0.0207255 0.119536 0)
(-0.00816868 0.0438913 0)
(-0.0183158 0.0990734 0)
(-0.00900032 0.0450525 0)
(-0.011855 0.105963 0)
(-0.000444416 0.0201354 0)
(0.00954751 0.148341 0)
(-0.000409725 0.00630062 0)
(-0.00284222 0.128572 0)
(-0.00782011 0.122532 0)
(-0.0195776 0.134398 0)
(-0.0131197 0.114515 0)
(-0.0141374 0.112925 0)
(-0.0204414 0.103695 0)
(-0.0155128 0.0916597 0)
(-0.00725835 0.114514 0)
(-0.00376595 0.1363 0)
(-0.0023487 0.0997937 0)
(-0.00434084 0.148051 0)
(-0.0146715 0.118214 0)
(-0.000361421 0.0176261 0)
(-0.0074638 0.0845366 0)
(-0.0177351 0.096636 0)
(-0.0174296 0.112516 0)
(-0.00339049 0.141115 0)
(-0.000357325 0.00746711 0)
(-0.00122961 0.141872 0)
(-0.00260532 0.0445766 0)
(-0.00287164 0.0481858 0)
(0.0015188 0.145015 0)
(-0.000381827 0.0159707 0)
(-0.0174154 0.14035 0)
(-0.0123541 0.10287 0)
(-0.00181995 0.0321727 0)
(-0.00425054 0.0961716 0)
(-0.00187763 0.0322429 0)
(-0.00471237 0.0152721 0)
(-3.00475e-05 0.00130568 0)
(-0.0120046 0.0605142 0)
(-0.0201739 0.105618 0)
(-0.0029765 0.0483489 0)
(-0.0198433 0.127558 0)
(-0.0107428 0.147776 0)
(-0.00945689 0.125577 0)
(8.37825e-05 0.143499 0)
(-0.0105685 0.042852 0)
(-0.000249635 0.00452642 0)
(-0.000391098 0.0166839 0)
(-0.00638701 0.0627989 0)
(-0.00169887 0.02939 0)
(-0.0188791 0.110747 0)
(-0.013028 0.0430565 0)
(-0.00186707 0.0415601 0)
(-0.00628583 0.0822376 0)
(-3.63808e-05 0.00130516 0)
(-0.0210737 0.138923 0)
(-0.00174354 0.137771 0)
(-0.00514732 0.111526 0)
(-0.0188034 0.144383 0)
(-0.0201445 0.12074 0)
(-0.00469953 0.0456552 0)
(-0.00162713 0.0691935 0)
(-0.0142834 0.105681 0)
(-0.00298384 0.0475434 0)
(-0.000641195 0.0324687 0)
(-0.00305767 0.0880946 0)
(-0.00128928 0.0592751 0)
(-0.00159104 0.016274 0)
(-0.00038239 0.0190866 0)
(-0.0010253 0.0496158 0)
(-0.00171903 0.14792 0)
(-0.000550904 0.0137333 0)
(-0.0178357 0.141003 0)
(-0.0129585 0.113092 0)
(-0.0146355 0.0829424 0)
(-3.14885e-05 0.00137423 0)
(-0.00106496 0.0283516 0)
(-0.00656336 0.138668 0)
(-0.00508705 0.115272 0)
(-0.0018802 0.0853721 0)
(-0.00155926 0.0406144 0)
(-0.00698962 0.0435711 0)
(-0.00201618 0.0811277 0)
(-0.0099254 0.0722379 0)
(-0.00872127 0.136724 0)
(-0.000707548 0.0329754 0)
(-0.00382313 0.123757 0)
(-0.0179466 0.13909 0)
(-0.000816247 0.0411172 0)
(-7.03473e-05 0.00227931 0)
(-0.00724201 0.0629603 0)
(-0.00569183 0.113389 0)
(-0.00380586 0.0868267 0)
(-0.0155489 0.0629947 0)
(-0.0120932 0.135984 0)
(-0.0147933 0.118665 0)
(-0.0131946 0.0435313 0)
(-0.00325854 0.0718479 0)
(-0.000947643 0.137312 0)
(-0.00185828 0.0420063 0)
(-0.0204766 0.146394 0)
(-0.0195505 0.136281 0)
(-0.00188581 0.100364 0)
(-0.0185663 0.134981 0)
(-0.00118547 0.00327883 0)
(-0.000288375 0.0114816 0)
(-0.00599209 0.0792686 0)
(-0.000493352 0.0239419 0)
(-0.000975945 0.0458255 0)
(-0.000569829 0.0143533 0)
(-5.84717e-05 0.0010732 0)
(-0.00151396 0.0397698 0)
(-0.0185103 0.116225 0)
(-0.000154137 0.00610206 0)
(-0.00148411 0.038678 0)
(-0.0125844 0.0633409 0)
(-0.0159293 0.104845 0)
(-0.0202992 0.114447 0)
(-0.00737719 0.115255 0)
(-0.00682898 0.107609 0)
(-0.00103868 0.0124282 0)
(-0.0186019 0.0881043 0)
(-0.0154002 0.141396 0)
(-0.0140126 0.0451111 0)
(-0.0153604 0.146834 0)
(-0.0113019 0.140117 0)
(-0.0190211 0.107989 0)
(-0.000208454 0.00826309 0)
(-0.0177581 0.100956 0)
(-0.00572449 0.0410722 0)
(-4.45451e-05 0.00161297 0)
(-0.00594973 0.0778812 0)
(-0.0211223 0.141208 0)
(-0.0196746 0.104693 0)
(-0.000909592 0.047436 0)
(-0.0156433 0.0613279 0)
(-0.00032526 0.0151346 0)
(-0.00622555 0.0398992 0)
(-7.60871e-06 0.000301564 0)
(-0.00761381 0.079135 0)
(-0.00167084 0.0688211 0)
(-0.00291669 0.10164 0)
(-2.09086e-05 0.000866555 0)
(-0.0157776 0.105084 0)
(-0.00657429 0.116995 0)
(-0.0206425 0.115041 0)
(-9.45227e-05 0.00201707 0)
(-0.00328892 0.123593 0)
(-2.1563e-05 0.000953865 0)
(-0.0057538 0.142235 0)
(-0.0112406 0.129925 0)
(-0.0205775 0.131825 0)
(-0.0194408 0.0941763 0)
(-0.0188596 0.112325 0)
(-0.0122946 0.138518 0)
(-0.0210073 0.136483 0)
(-0.000796517 0.0406471 0)
(-0.0118203 0.146168 0)
(-0.000123997 0.00380886 0)
(-0.00833767 0.132276 0)
(-0.000145829 0.00578305 0)
(-0.0113012 0.096915 0)
(-0.0161179 0.0791803 0)
(-0.0103487 0.0661811 0)
(-0.020944 0.132028 0)
(-0.0131193 0.110638 0)
(-0.0149112 0.0997555 0)
(-0.000695248 0.0323748 0)
(-0.0183314 0.13402 0)
(-0.00196248 0.0841583 0)
(-0.0047559 0.0192444 0)
(-0.0145168 0.0798999 0)
(-0.0103225 0.106922 0)
(-0.000310019 0.0123637 0)
(-0.00623034 0.104389 0)
(-0.00216076 0.125527 0)
(-0.00133113 0.0748255 0)
(-0.0023142 0.118201 0)
(-0.00209655 0.0233056 0)
(-0.0156451 0.0915786 0)
(-0.00322495 0.0746985 0)
(-0.00151832 0.0794029 0)
(-0.0184861 0.143711 0)
(-0.00557102 0.113051 0)
(-0.000278447 0.0111116 0)
(-0.0127607 0.0401759 0)
(-0.00651113 0.147747 0)
(-0.0132108 0.122429 0)
(-0.00730832 0.137484 0)
(-0.0140529 0.143037 0)
(-0.00214372 0.0688893 0)
(-0.000198941 0.00790197 0)
(-0.0203274 0.126516 0)
(-0.00613511 0.103579 0)
(-0.0160809 0.115542 0)
(-0.0151752 0.100734 0)
(-0.0206994 0.128869 0)
(-0.000483044 0.0235963 0)
(-0.0164122 0.134116 0)
(-0.00519334 0.118119 0)
(-0.00753853 0.0889529 0)
(-0.0038962 0.0866279 0)
(-0.00832882 0.0572441 0)
(-0.00657437 0.148011 0)
(-0.00699193 0.116202 0)
(-0.020967 0.133139 0)
(-0.000343022 0.0157343 0)
(-0.0160111 0.0802254 0)
(-0.0196973 0.116469 0)
(-0.0128693 0.0826411 0)
(-0.0206798 0.127413 0)
(-0.0198553 0.12861 0)
(-3.35289e-05 0.00128612 0)
(-0.00598142 0.128636 0)
(-0.0208731 0.128557 0)
(-0.00595769 0.12925 0)
(-0.0203627 0.106362 0)
(-0.00142026 0.0107501 0)
(-0.00741858 0.0646776 0)
(-0.0207863 0.12269 0)
(-0.0149387 0.141572 0)
(-0.0084808 0.147807 0)
(-0.00109881 0.00794189 0)
(-0.0105713 0.0360303 0)
(-0.0080801 0.0618225 0)
(-0.0210384 0.13663 0)
(-0.019847 0.101577 0)
(-0.0118683 0.06159 0)
(-0.00294481 0.087779 0)
(-0.0122952 0.131694 0)
(-0.00694888 0.140876 0)
(-0.0202497 0.128731 0)
(-0.00169604 0.0851033 0)
(-0.00755348 0.0287524 0)
(-0.020466 0.114381 0)
(-0.0148005 0.0871612 0)
(-0.00499701 0.0657738 0)
(-0.0195373 0.120349 0)