/*--------------------------------*- C++ -*----------------------------------*\
| =========                 |                                                 |
| \\      /  F ield         | OpenFOAM: The Open Source CFD Toolbox           |
|  \\    /   O peration     | Version:  v2012                                 |
|   \\  /    A nd           | Website:  www.openfoam.com                      |
|    \\/     M anipulation  |                                                 |
\*---------------------------------------------------------------------------*/
FoamFile
{
    version     2.0;
    format      ascii;
    class       volVectorField;
    location    "550";
    object      ddt0(U);
}
// * * * * * * * * * * * * * * * * * * * * * * * * * * * * * * * * * * * * * //

dimensions      [0 1 -2 0 0 0 0];


internalField   nonuniform List<vector> 
13851
(
(0.00530579 -0.00548374 -7.90996e-20)
(-0.0107593 0.474451 -9.36991e-18)
(0.0111629 0.00500626 5.20357e-19)
(0.00361243 -0.00526535 -1.43243e-18)
(-0.0265482 -0.00166056 1.39927e-22)
(-0.111037 -0.122952 9.69085e-19)
(0.00126743 0.000304473 -1.90458e-19)
(-0.00725378 -0.00481068 -8.47777e-19)
(0.00166709 0.000607629 6.52586e-19)
(-0.0111802 -0.0769147 -7.41533e-19)
(-0.0477859 0.0149004 2.25049e-18)
(0.332822 -0.749081 6.0095e-18)
(-0.0741433 -0.0873908 -2.8095e-18)
(0.141495 -0.195658 -2.77796e-17)
(0.00297188 4.00704e-05 2.48379e-19)
(-0.0166077 0.00464385 1.19791e-18)
(-0.00346577 -0.000250277 -4.41655e-19)
(0.0189129 0.00790292 -1.6899e-19)
(-0.113223 -0.0417713 -2.79505e-18)
(0.00168422 0.000523257 -7.74827e-19)
(0.00389634 -0.00479675 4.96529e-19)
(0.00562895 0.0082633 -6.21339e-19)
(0.000704304 5.27309e-05 1.01144e-20)
(0.00295074 2.32168e-05 -6.19916e-19)
(0.000718368 2.48414e-05 -1.76963e-20)
(-0.00715879 -0.00566069 1.4761e-18)
(-7.17877e-05 -0.00267039 -8.61999e-19)
(0.00123258 -0.123775 3.91808e-17)
(0.0057351 -0.00466301 -4.7614e-19)
(0.00542825 0.00794045 1.37489e-18)
(-0.118978 -0.1132 -6.00008e-19)
(-0.00385154 -0.000468778 -8.51839e-20)
(0.0106139 0.000310227 -5.53699e-19)
(0.0943068 -0.093152 -9.17664e-19)
(0.00275465 3.37218e-05 5.79347e-19)
(-0.012859 -0.0423683 3.37017e-18)
(-0.0133312 -0.045107 -1.42542e-17)
(-0.0562751 0.10801 -5.1874e-19)
(-0.00198774 -0.0868976 3.86839e-18)
(0.103256 -0.111394 1.36054e-18)
(0.003514 8.22337e-05 -4.28917e-19)
(0.000346596 -0.00107139 2.24996e-20)
(0.0653175 0.202533 1.46172e-17)
(-0.030567 -0.0178297 3.7971e-18)
(-0.0345777 -0.0270129 1.71253e-18)
(-0.1997 -0.590677 3.59087e-18)
(0.0166931 -0.0645712 9.5345e-18)
(-0.13409 -0.180713 -2.67679e-18)
(-0.00028519 -0.00291835 2.25708e-18)
(-0.0459525 0.067417 2.9382e-18)
(-0.0163477 -0.0217066 4.82895e-18)
(-0.033169 -0.0323452 4.90094e-19)
(-0.0324682 -0.00800454 8.82277e-18)
(0.00342875 3.03163e-05 1.75083e-19)
(0.00480252 2.13698e-05 1.81918e-19)
(0.000226148 -0.00118246 7.97579e-21)
(0.00182794 -8.82377e-05 2.62994e-19)
(-0.14678 -0.279441 -2.11092e-17)
(0.00563525 0.00720706 -5.72613e-20)
(0.00184613 3.84619e-05 -5.80618e-19)
(-0.0397481 0.125621 1.13576e-19)
(-0.242891 -0.323 -3.16839e-19)
(0.0350695 -0.0121327 -5.46315e-18)
(-0.0345459 -0.00554574 -5.21881e-19)
(-0.0832429 0.308326 2.17335e-17)
(0.00443905 -0.0103371 -1.39021e-18)
(-0.0159289 -0.0451722 3.83105e-18)
(0.0343028 -0.0706491 7.25223e-18)
(-0.00439953 -0.00854647 -2.22676e-19)
(0.0193065 0.00640788 1.37199e-18)
(-0.0206537 -0.0349026 8.97236e-18)
(-0.0176856 -0.0460793 3.83674e-18)
(-0.00569583 0.498611 2.88636e-17)
(0.00330805 3.30725e-05 -8.62913e-20)
(0.00440678 2.60457e-05 -7.74133e-19)
(0.00163043 0.000608996 1.51345e-19)
(0.00279968 0.00639943 4.19442e-19)
(0.0274796 -0.0442908 6.15845e-19)
(-0.0110384 -0.00628168 1.87019e-19)
(-0.0344578 -0.0353737 -2.26821e-18)
(0.0015164 -0.000237457 -7.63382e-19)
(0.00950711 -0.0250796 -4.22675e-20)
(0.00279583 2.44061e-06 -2.72063e-19)
(0.0237605 -0.269835 -3.12959e-18)
(0.0377949 -0.0119903 5.13308e-18)
(0.352593 -0.852515 1.82589e-18)
(-0.11336 -0.0165765 1.21567e-18)
(-0.113533 0.0471174 -1.78571e-18)
(-0.00252048 -0.00254353 5.06775e-19)
(-0.00192833 -0.00113816 1.41643e-19)
(-0.0123548 -0.0416678 -2.41991e-18)
(0.019829 -0.0338397 -6.45939e-19)
(0.0359984 -0.0656024 4.34107e-19)
(-0.003512 -0.00408918 -7.13629e-19)
(-0.00206419 -0.00261652 3.80685e-19)
(0.00212111 -2.03343e-05 -1.45933e-19)
(-0.0288625 -0.00342196 -2.1165e-19)
(-0.0188303 -0.220272 -1.07385e-18)
(-0.0367181 0.0842922 -3.90948e-18)
(0.00206796 -2.04016e-05 7.30084e-20)
(0.0233292 -0.268984 -1.94931e-17)
(-0.0114041 -0.0113337 -1.17036e-18)
(0.00615981 0.000185896 -9.937e-19)
(0.00115363 -0.00250582 1.94566e-18)
(-8.58423e-05 -5.02491e-05 -9.9747e-21)
(-0.0960202 0.0917001 1.73207e-18)
(-0.0132625 -0.0143934 1.33069e-18)
(-0.000205294 -0.000686874 1.83001e-20)
(-0.0209471 -0.046582 -4.20015e-18)
(-0.0744235 -0.160206 -2.47055e-19)
(0.0026233 1.79393e-05 9.08883e-20)
(-0.00220502 -0.00119075 -1.61409e-19)
(0.0166549 -0.0295862 1.15356e-19)
(0.00277428 9.78358e-06 2.50087e-20)
(0.00272616 3.19723e-05 -3.20503e-19)
(0.0915435 -0.224575 3.20799e-17)
(-0.0481402 -0.207464 -3.36598e-18)
(0.000307569 -0.000502884 -1.30717e-21)
(0.00404052 -4.05937e-05 1.61624e-19)
(0.00480463 3.14767e-06 -7.58612e-20)
(-0.003161 0.217403 -6.64947e-19)
(0.000722884 -0.00245313 6.24365e-19)
(-0.0834891 -0.096628 3.52334e-18)
(0.045471 -0.0741899 1.97314e-18)
(-0.115506 -0.190134 3.12682e-18)
(0.00502177 0.00840328 5.16808e-20)
(-0.118211 -0.24283 2.43603e-18)
(-0.0116276 -0.00837761 -1.3825e-18)
(0.00300675 -0.00451837 -5.45828e-19)
(-0.061689 0.0144616 -5.88155e-19)
(0.00348902 0.000127811 -8.97376e-19)
(0.00268576 -0.000272791 6.49399e-19)
(-0.0273091 -0.0362712 -5.46087e-18)
(0.00281395 -3.01504e-05 2.57567e-19)
(0.0851458 -0.298946 -3.65849e-17)
(0.00313985 -0.000101723 -1.25118e-19)
(0.000327399 -0.000449478 2.31596e-20)
(-0.016749 -0.0454306 5.25665e-18)
(0.162832 0.112174 1.49343e-17)
(0.0154439 0.593407 -1.16454e-18)
(0.000282108 -0.281231 1.61764e-17)
(0.00484835 1.53982e-05 -1.78794e-19)
(0.00617212 -8.79824e-05 4.82793e-19)
(0.00222847 -0.000833935 -5.61079e-20)
(-0.00117528 0.00218456 -2.97105e-21)
(-0.013145 -0.0247211 -2.4719e-18)
(-0.00298917 -0.00132621 -1.67566e-20)
(-0.0623691 0.0230757 7.07452e-19)
(0.00177666 0.000301203 2.45389e-19)
(-0.0502454 -0.0189918 5.63112e-19)
(-0.00269183 -0.0303859 -5.74219e-18)
(0.00480243 1.13494e-05 1.9593e-19)
(0.11317 -0.214288 2.83525e-17)
(0.00176335 -9.45692e-05 -1.12152e-19)
(1.58675e-05 -0.000813519 -8.68519e-19)
(-0.0008696 0.00243079 -1.83174e-19)
(0.00209325 -0.000751379 9.03132e-19)
(0.00342634 0.00526954 -3.69814e-19)
(-0.0361984 -0.0316618 9.53496e-19)
(-0.0162623 -0.0201862 -2.032e-18)
(-0.00180015 -0.000517283 -1.25079e-21)
(-0.00112761 -0.00562574 -4.98525e-18)
(-0.117709 -0.197257 1.51164e-17)
(0.00264694 -0.000250085 4.38895e-19)
(0.000535608 0.0169206 1.08712e-18)
(0.00130711 -0.00102146 -5.41323e-20)
(-0.00149188 0.00149504 3.2287e-20)
(-0.0043435 -0.00907139 2.86905e-19)
(0.00310848 -0.00394485 8.00699e-19)
(0.213563 -0.39996 -1.05271e-17)
(0.0345883 -0.0402942 -4.51412e-18)
(0.00215269 0.000192654 -3.08465e-19)
(0.00210954 -0.000707089 -3.23678e-20)
(0.0704222 0.581752 -4.68557e-19)
(0.00265063 -0.000227538 -2.12392e-19)
(-0.134589 -0.121928 1.14945e-18)
(-0.011335 -0.00786967 1.24304e-18)
(0.00459313 0.00378487 -8.34524e-19)
(-0.107173 -0.0549761 2.99461e-18)
(-0.000426991 -0.00081973 4.78572e-21)
(-0.00486032 -0.000270738 -2.05597e-19)
(-0.0179927 -0.045638 -1.3939e-18)
(0.00280912 -7.17162e-05 1.25092e-19)
(0.00504842 0.012865 1.38545e-18)
(-0.000460981 -0.000116038 -7.20551e-21)
(0.000852971 -2.45164e-05 -1.5879e-20)
(0.00599002 -0.0102326 -5.53969e-19)
(0.00481662 1.75656e-05 -1.42863e-20)
(-0.0323212 0.00731433 -3.24562e-19)
(-0.134704 0.00155077 -1.34948e-18)
(0.0268608 -0.0658369 -8.86297e-18)
(-0.0397925 -0.0236007 -4.47462e-18)
(-0.00289648 -0.000624942 8.9147e-20)
(-0.00590977 -0.00715578 -2.75043e-18)
(-0.337107 -0.237161 1.0159e-17)
(-0.000247458 -0.00049075 -7.96709e-19)
(0.00511207 -9.15151e-05 -5.74429e-19)
(0.0639213 -0.0817724 -3.45898e-18)
(0.0046559 0.00286933 3.47009e-19)
(0.00165973 0.000525524 1.32096e-18)
(0.00413887 0.00932686 5.7658e-20)
(0.0201161 -0.618462 6.27548e-18)
(0.00428435 -1.36387e-05 2.37349e-19)
(0.00343973 0.00010848 -4.75811e-20)
(-0.0763404 -0.0275004 4.18168e-18)
(0.00277093 -6.41384e-05 -9.34535e-20)
(-0.555789 1.33807 -6.57207e-18)
(-0.0031707 -0.00120796 -5.89019e-19)
(-0.0141067 -0.0424177 1.01156e-18)
(-0.00102271 -0.00069756 2.07162e-21)
(-0.0111078 -0.0460168 9.0679e-18)
(0.00567857 0.000217168 5.7016e-19)
(0.0926541 -0.14229 -9.84391e-19)
(-0.000513473 -0.000549853 1.30287e-20)
(0.00167098 -0.00139214 -1.2686e-20)
(-0.0460977 0.0182251 -1.03444e-18)
(0.0428441 -0.00683956 -9.1389e-20)
(-0.312821 -0.56422 7.73485e-19)
(0.00315476 -3.47426e-05 1.41157e-19)
(-0.00993294 -0.0432375 1.25711e-18)
(-0.0034757 -0.00114302 1.81707e-19)
(0.00150371 -0.000261682 -1.75468e-19)
(-0.0048335 -0.0839783 9.11948e-18)
(-0.0480125 -0.018618 -4.44995e-19)
(-0.0123622 -0.0429055 -4.87626e-18)
(0.000700081 5.51586e-06 -5.52425e-20)
(-0.0050242 -0.00487763 -9.40181e-20)
(-4.70584e-06 -3.1641e-05 6.87857e-21)
(-0.060865 -0.0641561 -4.41509e-18)
(-0.00063685 -0.000545456 -8.42457e-21)
(-0.00791885 -0.00635776 -9.16649e-19)
(0.170903 -0.0572229 -1.07672e-18)
(0.00216529 0.000169477 -4.99815e-19)
(-0.00242916 -0.000672631 -8.34013e-21)
(-0.0118969 -0.02112 1.40116e-18)
(0.0386069 0.0297724 1.66175e-19)
(-0.498208 1.3183 -8.93424e-18)
(-0.131516 0.346378 3.33133e-18)
(0.00210987 -0.00115884 1.55988e-21)
(0.00339978 0.000112158 -2.55088e-20)
(-0.142196 -0.0379152 -2.08906e-18)
(-0.0498788 0.103756 4.59656e-18)
(-0.00383083 -0.00101792 -4.08574e-20)
(-0.0849291 -0.0372405 -4.31614e-18)
(-9.37799e-05 -8.59072e-05 1.30224e-20)
(-0.00813662 -0.0426217 -4.26668e-18)
(-0.0127302 -0.0106984 4.91376e-19)
(0.109467 -0.122636 -1.08527e-18)
(-0.000656673 0.00325107 2.78167e-19)
(-0.00523893 0.00393198 -1.08244e-19)
(-0.0263701 0.0126942 -5.86506e-19)
(-0.061994 0.0948381 -4.46449e-18)
(0.00150368 0.000852612 -4.11988e-19)
(-0.00108066 0.00297155 1.2822e-19)
(-0.00694127 -0.0177542 8.90767e-19)
(0.0200652 0.00524366 -9.1795e-19)
(-0.125134 0.0208728 6.2001e-19)
(-0.016677 -0.0451842 7.3472e-19)
(0.0966187 -0.0205702 3.18814e-17)
(0.00228122 0.000119044 1.84838e-19)
(0.00183137 -0.00113404 3.24389e-20)
(0.0174423 0.00400535 6.06128e-19)
(0.0643038 -0.255766 -9.49642e-18)
(0.00211873 0.00334341 8.55684e-20)
(-0.164263 -0.040137 -6.78953e-18)
(-0.000271739 -0.00032766 -9.87217e-19)
(0.00169829 0.000717149 3.29887e-19)
(-0.00326653 -0.00399903 4.91597e-20)
(-0.0102407 -0.0820449 1.60589e-18)
(0.0251796 0.00696297 -1.00748e-18)
(-0.022629 0.0187726 -6.84365e-20)
(-0.000156043 -0.000644717 2.73235e-20)
(-0.00912577 -0.25685 -2.43093e-19)
(-0.0100962 -0.00642696 -1.1818e-18)
(-0.0158394 0.00640492 -1.44863e-18)
(0.00276968 -0.00030234 9.98516e-20)
(0.00439491 -0.021567 1.40311e-19)
(0.01711 -0.0100018 -1.62717e-19)
(-0.0127946 -0.0449286 1.59642e-18)
(-0.0552287 0.0152267 -9.90779e-19)
(-0.00409519 -0.0007004 4.7427e-20)
(-0.000928673 -0.000448092 -6.43194e-21)
(-0.000175981 -4.79065e-05 -1.86012e-21)
(-0.00646556 -0.0169851 -1.06169e-18)
(0.05514 -0.204793 6.04207e-18)
(-0.147022 -0.0416517 -5.84511e-19)
(0.00163437 0.0004732 -3.70469e-19)
(0.00219005 0.000181929 1.02888e-19)
(-0.0121655 -0.21532 3.82239e-19)
(0.032476 -0.0259568 5.35872e-20)
(-0.0719162 0.025562 1.12477e-18)
(0.00511268 0.00659512 -2.02565e-19)
(0.00208212 5.41271e-06 8.75808e-19)
(-0.00650415 -0.00856934 -5.99842e-19)
(0.0307741 -0.029832 6.40296e-20)
(-0.143014 -0.0479863 4.45508e-18)
(-0.0017701 0.0142532 -2.09099e-18)
(0.17668 -1.16171 6.02976e-18)
(0.00256802 -0.000346027 -1.01916e-19)
(-0.00825026 -0.0430719 7.03403e-19)
(-0.000840572 -0.00541911 1.09884e-18)
(-0.00331994 0.000270341 -3.16343e-20)
(-0.0136134 -0.0438151 6.63898e-18)
(0.00405732 0.000882058 -1.08894e-18)
(-0.121602 0.0616805 -5.30893e-19)
(-0.000360517 -0.0571443 -1.18306e-19)
(0.00184519 0.000458703 -3.02519e-19)
(-0.00567341 -0.0137022 -4.39276e-18)
(-0.0040749 -0.00386837 1.32679e-18)
(0.00497829 0.00594453 -1.09904e-18)
(0.132942 0.0560757 2.0675e-17)
(-0.00195171 0.0152056 1.17107e-18)
(0.00181593 0.00110675 -9.64087e-20)
(-0.010117 -0.114557 -2.77731e-18)
(0.000630061 -0.00114087 -2.95577e-20)
(-0.00605349 0.00372026 2.61379e-20)
(0.00270513 0.0124459 -2.88702e-19)
(-0.0142124 -0.0446674 1.6646e-19)
(-0.00949066 -0.0381323 1.56319e-18)
(0.00301137 -4.46043e-05 -2.07143e-19)
(-0.0108512 -0.014188 -4.0551e-18)
(0.00276172 5.42175e-05 7.43943e-20)
(0.0840025 -0.0323301 2.17338e-17)
(-0.0455222 0.00862815 1.31352e-18)
(0.000666458 5.73614e-05 -3.87283e-22)
(0.00128235 -0.00115672 8.84738e-19)
(-0.00997772 -0.0372193 8.98038e-19)
(-0.00446743 -0.00462569 -1.39851e-18)
(0.000225984 -0.000891922 -1.3155e-18)
(0.00199557 0.00018312 -5.16215e-20)
(0.00402286 0.000786043 4.9191e-19)
(0.00186006 0.00109751 1.41384e-19)
(-0.0495795 0.00287481 -1.84649e-18)
(0.081827 -0.238172 1.72597e-17)
(0.221136 -0.342305 -2.74502e-18)
(0.0238381 -0.00147678 1.33633e-19)
(-0.0144644 -0.0437716 -4.63476e-18)
(-0.443061 0.456656 3.96425e-18)
(0.00299392 3.6654e-05 -5.19562e-20)
(-0.00653282 -0.00694982 6.66056e-19)
(-0.0740363 0.035886 -1.20596e-18)
(0.0377707 -0.0277956 1.41673e-19)
(0.0621391 0.0280413 2.58148e-20)
(-0.0267816 -0.030967 -1.13504e-19)
(-0.128615 -0.0361797 -2.89736e-18)
(-0.00538711 -0.0132326 2.08805e-20)
(0.087751 -0.265729 5.36539e-18)
(-0.00359097 -0.0482908 2.36509e-18)
(0.00299544 5.23296e-05 -1.11303e-19)
(-0.0248766 0.0186015 3.82173e-21)
(-0.0215173 0.030061 -1.29475e-18)
(0.208614 0.0527429 2.25172e-18)
(0.000470042 -0.000994147 2.34988e-18)
(0.0703515 0.0283135 8.14527e-19)
(-0.0732931 -0.111335 -1.68925e-17)
(0.0019866 -0.000732026 -8.25696e-19)
(0.0662314 -0.215923 4.7713e-18)
(0.00126519 -0.00118946 -2.26613e-19)
(0.00261989 4.28463e-05 -8.7393e-20)
(-0.000178458 -0.000105931 -1.27889e-20)
(-0.000291072 -0.000707848 -5.90785e-21)
(0.00229421 -0.000634262 9.93763e-22)
(-0.00563871 -0.0484407 -4.58842e-18)
(0.0470074 0.0769085 -8.28233e-18)
(0.00301913 0.000266145 5.59936e-19)
(-0.00502116 -0.0129819 3.22898e-18)
(0.000698099 -0.00148637 3.01501e-20)
(0.0950052 -1.24132 3.14178e-18)
(-0.0282588 0.013409 1.77096e-18)
(-0.110503 -0.0370941 -1.36715e-18)
(0.0687557 -0.438758 -1.69112e-18)
(0.00304746 0.000295825 -4.29374e-19)
(0.0468967 -0.00909877 6.28168e-19)
(-0.00486056 -0.00342318 -2.3765e-19)
(-0.126815 -0.0571635 1.6957e-18)
(0.00328503 2.401e-05 1.24932e-18)
(0.000363968 -0.000531508 1.83693e-21)
(-0.0211062 -0.0248193 1.73693e-19)
(0.0369387 -0.247083 -1.89487e-17)
(0.00457277 1.63952e-05 1.44516e-20)
(0.102189 0.185928 3.27331e-18)
(0.0332874 -0.0343981 1.02439e-18)
(-0.0271204 -0.0327464 8.75498e-19)
(0.693674 -0.333893 1.90767e-18)
(-2.52197e-05 0.0452164 1.05997e-19)
(-0.000504215 0.0367096 7.45178e-19)
(0.000442256 0.0185559 -6.45456e-20)
(0.00264468 -0.000380142 -1.762e-19)
(0.00310695 4.10245e-05 -1.7026e-19)
(0.0217155 -0.00124978 -2.50193e-18)
(-0.0100042 -0.0148815 4.93809e-18)
(0.148381 -0.160255 -8.55017e-21)
(-0.0038892 -0.00976096 1.3928e-18)
(-0.0131122 -0.0431355 4.21154e-18)
(-0.00250544 -0.0532338 -1.48115e-17)
(0.000825669 -0.00138003 6.11679e-21)
(0.00224059 0.000145657 -5.15084e-20)
(0.281442 -0.308233 6.64702e-18)
(-0.0354302 -0.0381125 -4.84598e-18)
(0.14469 -0.0539953 1.83866e-18)
(-0.037339 -0.16869 2.34377e-18)
(-0.0249338 -0.0287295 -5.97433e-19)
(-0.00491598 -0.00368575 6.29138e-19)
(0.0015645 -3.75359e-05 2.23943e-19)
(-0.252002 0.423734 1.03352e-18)
(0.00207984 0.000505723 1.847e-19)
(-0.0153725 0.00338318 6.65632e-19)
(0.00134858 0.0158105 -2.91316e-19)
(0.00190105 0.000104332 4.47699e-19)
(-9.76129e-05 -3.3474e-05 7.53979e-21)
(0.00184936 0.000550033 -1.90701e-19)
(0.0011922 -0.00119563 4.39773e-20)
(-0.0325794 -0.00831806 5.10175e-19)
(0.0467835 0.0498465 -7.56044e-20)
(0.101452 -0.0258065 -1.93182e-17)
(0.0207159 0.00353364 2.02402e-19)
(-0.0117137 -0.0149212 1.90586e-19)
(-0.00794841 -0.0351052 -8.10065e-19)
(-0.0622153 0.0705891 8.34119e-19)
(-0.00673231 0.00559589 -1.66495e-19)
(0.226539 0.0171352 -4.8216e-19)
(-0.00313591 0.0004264 -2.49304e-19)
(-0.0468779 0.00827134 7.53172e-20)
(0.000240188 -0.000436079 -1.24014e-20)
(0.00184491 0.000541642 -5.91867e-19)
(0.000951786 -1.83257e-05 -3.8704e-20)
(-0.0277417 0.185179 1.66832e-18)
(-0.0732373 0.0154686 -1.17875e-18)
(-0.0510472 -0.0102303 1.16095e-19)
(-0.0039015 -0.0308461 1.06995e-18)
(0.105264 -0.0192798 2.1703e-17)
(0.0830419 -0.0759605 -8.17502e-19)
(-0.108339 0.0169652 7.65111e-20)
(0.00483189 -1.42369e-06 5.1207e-20)
(-0.0107354 -0.0221784 4.35339e-20)
(0.00332668 5.40246e-05 -1.88171e-19)
(-0.0746631 0.0576711 2.57743e-19)
(0.000179167 -6.54136e-05 -1.73184e-20)
(0.243517 -0.117641 -3.60236e-19)
(-0.0946659 0.0228654 -7.16393e-19)
(0.00763319 -0.0101633 -2.74271e-18)
(-0.00731442 -0.0443526 2.16379e-18)
(0.00592502 0.00238667 1.44891e-18)
(0.00881608 -0.0163388 7.81522e-20)
(-0.0930487 0.0279114 4.77052e-19)
(0.0626423 -0.242088 6.66416e-18)
(-0.000447746 -0.000149304 -3.92523e-21)
(-0.00600773 -0.00417106 -4.4904e-19)
(-0.0119 -0.00685065 -6.79614e-19)
(0.0296804 -0.00373386 4.85381e-19)
(0.00201784 0.000368462 2.79441e-19)
(0.00218457 0.00130643 5.03748e-20)
(-0.00184721 -0.0290675 1.33636e-18)
(-0.0308053 -0.0312274 -1.18293e-18)
(0.0274145 0.00407951 -1.08409e-18)
(0.183628 -0.972547 -1.03679e-16)
(0.000670931 5.91691e-06 1.28552e-20)
(0.00119653 -0.00123163 -5.62207e-19)
(-0.11764 0.164984 1.74637e-17)
(0.0016679 0.0189704 -1.45348e-18)
(-0.000888283 -0.000399045 4.44399e-21)
(-0.0757656 0.038155 3.1048e-18)
(0.00264443 -0.000362455 1.33429e-19)
(0.00452386 -0.00576914 2.12855e-18)
(0.00202653 0.000514626 -2.73253e-19)
(-0.00294791 0.047043 -1.08322e-19)
(0.00413295 0.00414644 -7.25147e-19)
(-0.000912301 -0.000617073 1.97032e-20)
(0.00574054 0.00155711 -9.56546e-19)
(-0.0200198 -0.117251 3.8864e-18)
(0.00279851 -5.30448e-06 -7.39615e-20)
(-0.00453218 -0.0104268 -4.88981e-18)
(0.00322238 -0.00011638 -3.44434e-19)
(-0.00486564 0.021913 5.35003e-19)
(-0.0111468 -0.0143935 3.52317e-22)
(0.00293065 4.51452e-07 3.0037e-19)
(0.00269644 -0.000387179 -2.99613e-19)
(0.00296135 1.66889e-05 -6.97706e-20)
(0.00295785 1.21981e-05 2.42648e-19)
(-0.12142 -0.0199985 -9.6588e-19)
(0.00163305 0.000459458 -1.04654e-19)
(-0.130938 -0.0404862 -1.57967e-18)
(0.00278533 -8.79879e-05 -9.88424e-20)
(0.00138772 -5.75121e-05 -2.21675e-19)
(0.0475608 -0.309479 1.63286e-17)
(-0.00802776 -0.0430144 -5.13201e-18)
(0.00258387 -9.6442e-05 4.36366e-20)
(-0.000454737 0.0287549 -5.89407e-19)
(-0.00728062 0.00471545 6.72816e-20)
(-0.0473701 0.118599 -5.6974e-18)
(-0.165967 -0.377195 9.1192e-18)
(0.00126164 -0.00117401 -1.49559e-19)
(0.0570769 0.0969135 1.01544e-17)
(0.00333248 8.31192e-05 -2.77137e-19)
(-0.0219313 0.00788678 -2.91527e-19)
(0.00197173 1.03296e-05 1.67042e-19)
(-0.141686 -0.259521 6.06589e-18)
(0.000151019 -0.000306819 2.93688e-20)
(-0.0273092 0.00707491 -1.39108e-18)
(-0.124669 0.0584906 2.80493e-18)
(0.000455968 -0.00107272 -3.64157e-20)
(0.00963184 0.0247193 -1.11622e-20)
(0.0461095 -0.26409 -1.30762e-18)
(-0.00801735 -0.00762462 1.30834e-18)
(0.0241313 -0.0239385 6.3935e-19)
(0.00405899 -4.71749e-05 3.04698e-19)
(0.0692668 0.0186994 4.98251e-18)
(0.00490936 1.05434e-05 -1.50076e-19)
(0.00243447 -0.000125488 -8.12628e-19)
(0.00245236 -0.000311435 5.43221e-19)
(0.001688 0.000302602 -3.07928e-19)
(-0.0353219 -0.0395236 2.09724e-18)
(-0.0151989 -0.0175847 4.6767e-19)
(-0.021551 -0.0366404 -2.47001e-19)
(-0.0563546 -0.0635411 2.14025e-19)
(0.0391276 -0.00818002 -4.76416e-18)
(-0.00194238 -0.000695084 7.96139e-21)
(-0.203226 -0.112483 -5.08289e-19)
(-0.0834646 0.0312305 -5.19889e-19)
(-0.00489348 -0.000775535 6.20067e-20)
(-0.00174778 -0.00555741 1.41659e-18)
(-0.0370704 0.122152 6.12721e-18)
(0.0433364 -0.087338 -1.93697e-18)
(-0.0136909 -0.0461813 -7.95194e-19)
(0.00399777 2.74251e-06 -9.15214e-20)
(-0.149754 -0.319806 -1.64882e-17)
(-0.012917 -0.485557 7.12101e-19)
(-0.0984913 -0.647126 2.16271e-18)
(-0.0012361 0.0169308 -1.07928e-18)
(0.0171536 0.0294882 -1.08198e-18)
(-0.0102656 -0.107591 -4.54048e-20)
(0.00992081 -0.0175306 -8.32178e-20)
(0.0275063 0.00798438 1.17845e-18)
(0.082609 -0.110713 -6.77378e-19)
(0.293655 -0.126695 -1.60298e-18)
(0.00382919 0.00572649 -3.58255e-19)
(0.350581 -0.147432 2.5154e-18)
(-0.0157977 -0.0460625 -3.598e-18)
(0.000166618 -0.000360086 -2.52476e-20)
(0.0160069 -0.0135608 1.23282e-19)
(-0.0152895 -0.0189971 1.59468e-18)
(-0.00244574 -0.0408057 -2.67717e-18)
(-0.00080477 0.00385217 -2.06507e-19)
(0.00330293 -1.50371e-05 3.04417e-19)
(0.00214011 -0.000734806 -2.04811e-18)
(0.003406 0.000396363 -1.31662e-19)
(-0.0313119 0.00292923 1.17479e-20)
(0.024216 0.0375448 -7.29618e-21)
(-0.157704 0.124088 -4.92981e-18)
(0.228198 -0.717287 1.29729e-17)
(0.00271636 -1.74539e-05 -1.01248e-19)
(-0.0480364 0.202552 3.134e-18)
(0.0077614 -0.0496943 -4.52396e-18)
(-0.110647 0.221803 -4.2084e-18)
(-0.0906261 0.0363407 1.4134e-18)
(-0.00457525 -0.00971988 -4.76655e-19)
(-0.000772053 -0.000324876 -6.33019e-21)
(0.0018422 0.000608027 2.96659e-19)
(0.0195858 -0.00817032 1.63307e-19)
(-0.19318 -0.137868 3.14221e-18)
(-0.000253462 -0.000975141 2.85059e-18)
(-0.00829649 -0.0330849 -6.31637e-18)
(-0.0129719 -0.0410161 9.3875e-18)
(0.000118208 -0.00115498 -1.65873e-20)
(-0.0101751 -0.05077 -3.45335e-18)
(0.00899192 -0.153324 1.7047e-18)
(0.165021 0.0445423 -3.94493e-19)
(-0.0329146 -0.0264513 4.93951e-19)
(-0.0333076 -0.0397038 -3.29751e-18)
(-0.0157407 -0.0453959 -5.31608e-18)
(0.00341529 6.15153e-05 6.94909e-19)
(0.00183216 0.000149335 -6.81964e-19)
(0.0382375 0.0360485 -1.15605e-17)
(-0.000579263 -0.0541186 1.17822e-17)
(-0.0122904 -0.0374831 -2.03076e-18)
(-0.00353395 -0.00994361 5.57366e-18)
(0.0330371 -0.0148064 6.27828e-18)
(-0.000279803 -0.000804807 -6.02763e-21)
(0.00347343 0.000295367 6.96064e-19)
(0.262401 -0.0920148 7.25168e-19)
(8.13112e-05 -0.00102695 -2.59259e-21)
(-0.000351458 0.00409023 -2.74525e-19)
(-0.000484671 -0.000729886 4.56877e-21)
(0.00350584 -0.000226215 7.0426e-20)
(-0.0150858 -0.0462472 2.21506e-18)
(-0.0322398 -0.00294561 3.47086e-19)
(-0.00480408 -0.0247777 -1.51393e-18)
(-3.18981e-06 -0.000995757 9.50923e-21)
(0.00305951 0.185753 8.15745e-17)
(0.0376565 -0.0500372 8.28126e-18)
(0.00252366 -0.000410704 2.29415e-20)
(0.00139662 -0.000132262 -1.09289e-19)
(0.00179168 0.00369111 8.03206e-21)
(0.00339954 3.54108e-05 1.04992e-19)
(0.0343435 -0.244731 4.25742e-18)
(0.109455 -0.135077 6.51996e-18)
(0.10738 -0.146643 -1.60431e-18)
(-0.133483 -0.590163 -2.08772e-19)
(0.0916154 0.0952806 -1.19897e-18)
(-0.0015322 -0.00925148 1.22976e-18)
(0.00843903 -0.0378949 -2.95689e-18)
(-0.0166154 -0.0418949 -7.02111e-18)
(-0.00379531 -0.01577 -1.16281e-19)
(-0.0052843 -0.00834165 -3.15837e-19)
(-0.000823731 -0.000251702 1.05895e-20)
(0.00456165 0.0118119 -1.56061e-19)
(-0.0149885 -0.00114159 -1.57452e-18)
(-0.0448221 -0.127319 -4.997e-19)
(0.0643278 -0.206846 -3.87733e-19)
(-0.00863167 -0.0320744 4.9242e-18)
(-0.00668356 -0.00247265 2.76242e-19)
(0.00193909 0.000558408 -1.40145e-19)
(-0.0170357 0.0100804 -5.80186e-19)
(0.0027831 -0.00287596 -6.56004e-19)
(0.0258749 -0.0249446 7.92944e-20)
(-0.0200367 -0.016798 -2.15141e-18)
(0.00292187 -7.64384e-05 -4.71842e-20)
(0.0251012 5.87618e-05 -4.1516e-18)
(0.00211322 0.000364662 -2.34591e-19)
(-0.00260034 -0.00419353 5.60584e-19)
(-0.0554577 -0.00644537 -3.68422e-19)
(0.00191998 2.41041e-05 -1.20688e-18)
(0.00329245 3.09332e-06 3.81881e-19)
(-0.0288607 0.00962458 -1.5889e-18)
(0.00211628 -2.81058e-05 8.08003e-21)
(-0.0273714 0.00162806 8.04216e-20)
(0.0051029 0.164951 -9.81435e-19)
(-0.044258 -0.0177398 4.19163e-19)
(-0.0174825 0.0146781 1.71679e-19)
(-0.0123778 -0.0383215 5.64805e-18)
(0.00198799 0.000537052 -1.62099e-19)
(0.0916142 -0.0220256 6.14675e-20)
(-0.0333884 0.00977102 -1.51726e-19)
(-0.122928 -0.600054 8.38682e-20)
(0.00551807 0.000432192 -5.076e-19)
(0.00231384 1.50175e-06 -4.06829e-19)
(-0.0205329 -0.046183 1.1399e-19)
(0.00884475 0.00393474 1.12665e-18)
(0.632182 -0.245008 -3.86117e-18)
(-0.00478211 -0.0457686 -1.06054e-17)
(-0.328604 -0.465441 1.57646e-18)
(-0.0784296 0.106282 7.30493e-19)
(0.00205425 0.000493524 4.37784e-20)
(-0.0186266 -0.0464655 1.41695e-18)
(-0.00449808 -0.000778725 4.98246e-21)
(0.00320545 -0.000280188 1.92426e-19)
(8.22623e-05 -0.000284338 -7.15259e-21)
(0.00343642 -0.00024694 3.04974e-19)
(-0.00526066 -0.00143088 -1.9053e-21)
(0.0217225 0.00193187 -5.78259e-19)
(1.21639e-05 0.0423094 -3.98512e-19)
(-3.80342e-05 -0.000885318 5.31215e-20)
(-0.249081 0.788776 3.48718e-17)
(-0.14069 0.0423224 -2.31507e-18)
(-0.543811 0.917141 -4.53871e-17)
(0.00207664 -0.000726642 1.07654e-19)
(-0.000127933 -0.00021284 -2.51458e-21)
(0.000724337 8.39621e-05 7.88087e-21)
(-0.0628256 0.0456354 1.77397e-19)
(-0.465739 -0.0718458 1.42435e-18)
(-0.00356209 -0.0205736 -5.28658e-18)
(-0.00298369 -0.0042202 5.13897e-20)
(-0.00460361 -0.00108714 -2.94935e-21)
(0.00161311 -5.29528e-05 4.11054e-20)
(0.00284753 -1.58919e-05 -2.69904e-19)
(0.00162283 -0.0008874 4.47441e-19)
(-0.0205341 -0.0472128 -2.83052e-18)
(-0.0533621 0.258145 1.20899e-17)
(0.00222565 -3.67413e-05 -3.6423e-19)
(-0.000113376 -0.000844193 -1.50785e-20)
(0.00160961 0.000345332 2.85882e-20)
(0.0018795 -0.000851159 -3.72633e-19)
(0.184671 -0.133774 -1.1575e-19)
(-0.0709591 -0.0776158 8.49457e-18)
(-0.0178761 0.00812572 3.65661e-21)
(-0.0370864 -0.2728 -7.62047e-18)
(0.0551522 -0.0444232 3.14253e-18)
(0.00325358 2.65761e-05 2.75426e-19)
(-0.0225143 -0.0353033 -1.38536e-18)
(0.0586089 -0.244731 2.84966e-18)
(-0.00552371 -0.00882245 2.48412e-18)
(0.420574 -0.348292 -3.09794e-17)
(0.00157002 -0.000204761 1.19772e-19)
(0.0175648 0.00543748 -1.12982e-18)
(-0.00472464 -0.0198703 5.93982e-18)
(0.0186874 0.002928 -6.75771e-19)
(0.07404 -0.116389 -9.44784e-18)
(0.00273158 -8.64542e-05 2.37456e-19)
(0.0116322 -0.115426 3.25764e-19)
(0.00014552 -5.67353e-05 -9.15872e-21)
(0.00285728 -0.00906546 -5.47892e-18)
(-0.00681416 -0.0453002 5.07957e-19)
(0.00141913 0.000936152 1.17777e-18)
(0.00799002 0.00188573 1.43718e-18)
(0.030809 -0.0142225 -3.06489e-19)
(0.00239745 -0.000137515 1.93615e-20)
(-0.00454591 -9.66106e-05 5.8515e-19)
(0.0201285 -0.206885 1.55719e-17)
(0.203242 0.344258 -3.47446e-18)
(-0.0196953 -0.0150516 2.64287e-18)
(-0.163157 -0.0174891 3.09876e-19)
(0.00394362 0.0427791 1.68358e-18)
(-0.000463797 -0.000638986 1.75168e-20)
(0.0021535 -0.000689258 5.53702e-19)
(0.0332076 -0.333939 -1.02588e-17)
(-0.0120302 -0.0408701 -1.18901e-17)
(0.0436118 0.0349166 4.93086e-19)
(-0.00576775 -0.0465112 6.44261e-18)
(0.00208213 0.000589324 -4.04157e-19)
(0.00236203 2.16651e-05 -3.49387e-19)
(0.00024496 -0.000377709 1.7331e-20)
(0.100382 0.1572 -1.94828e-17)
(-0.0154004 -0.0450332 -3.28829e-18)
(-0.00013936 0.0110614 6.69568e-19)
(0.00378573 -0.00134798 -1.28788e-19)
(-0.0139215 -0.00639575 -2.90306e-19)
(-0.000886574 -0.00244245 4.60291e-18)
(0.000715801 9.30082e-05 -1.38949e-20)
(0.0839608 0.216142 -1.94766e-17)
(0.0113247 0.00771274 9.54528e-19)
(0.019098 -0.0647502 -6.77763e-18)
(0.000507535 -0.0011793 -1.13972e-21)
(0.00218755 -6.60144e-05 2.53161e-19)
(0.0148686 -0.0400364 -1.41173e-17)
(-0.0433683 -0.0893004 2.98517e-17)
(-0.0119522 -0.0408881 -2.58382e-18)
(0.00231319 -0.00214897 3.38444e-19)
(-0.0153275 -0.0445523 -3.17083e-18)
(0.00280031 -5.56411e-05 6.01144e-20)
(-0.0321182 0.00750846 -9.99217e-20)
(0.0606665 0.044494 1.09335e-18)
(0.0130914 -0.00972653 -1.91393e-18)
(-0.00420168 0.00333605 -3.62604e-19)
(-0.334193 -0.499353 7.0256e-18)
(-0.00653068 0.0216188 -4.53235e-19)
(-0.0037591 -0.00346753 9.5887e-19)
(-0.0134318 -0.0446989 2.89145e-18)
(0.00232484 1.10929e-05 7.74683e-21)
(0.0042845 -1.41746e-05 -3.8873e-19)
(0.00410769 0.00461426 3.69966e-19)
(0.00202577 0.000562489 4.22909e-19)
(0.0290659 0.19616 -2.80531e-17)
(-0.0110381 -0.00113997 -1.82492e-19)
(-0.0313815 -0.0293402 -1.41685e-18)
(-0.00180988 -0.0228601 2.01877e-18)
(0.010649 -0.00925632 3.15165e-19)
(0.00196398 0.000508619 6.43977e-19)
(0.0586497 -0.254538 -1.40143e-17)
(0.00340942 -2.41926e-05 3.61687e-19)
(-0.00265615 0.0225635 4.31199e-19)
(7.24358e-05 -0.000232078 7.83279e-21)
(0.00319571 1.28249e-05 4.34557e-19)
(0.00455993 -6.67145e-06 9.66093e-19)
(-0.000383723 -0.0584112 -1.22823e-18)
(0.00223213 -0.000662983 1.52591e-18)
(0.000552432 -0.000577698 4.88949e-21)
(-0.0289537 -0.178768 4.14754e-19)
(0.00184106 0.000164338 -1.68648e-19)
(0.00470303 -0.0428282 3.73573e-18)
(0.000486146 -3.16855e-05 -8.28797e-21)
(0.00481379 -0.0015643 1.80136e-20)
(-0.00940779 -0.0249547 2.76955e-18)
(0.187672 -0.162385 -6.37735e-19)
(0.0100983 0.0218854 1.7777e-18)
(0.00292827 4.40532e-05 -2.86151e-19)
(-0.0229605 -0.236021 -1.23967e-19)
(-0.0793397 -0.26755 -4.37742e-20)
(0.00160408 0.000592352 -5.88423e-20)
(-0.00679349 -0.0561038 6.05997e-18)
(0.00338071 -0.00864657 5.00264e-18)
(0.00203854 0.000547032 1.56409e-21)
(-0.0326594 -0.0242566 -2.54564e-19)
(0.088657 0.218707 -2.58545e-17)
(-0.0571736 -0.207087 3.56037e-19)
(-0.00522636 0.00638268 4.20307e-19)
(0.00273477 -2.87552e-05 3.13424e-20)
(-0.000141081 -0.000741714 -7.05686e-21)
(-0.0918707 0.0403257 -1.61157e-19)
(0.0239718 -0.0166158 4.49725e-19)
(-0.0365963 0.0810301 4.67758e-19)
(-0.000724136 0.0135215 8.45056e-19)
(-0.0397165 -0.0205317 3.78015e-19)
(0.00376609 1.99435e-05 1.69935e-20)
(0.00399679 -0.00186444 -2.59961e-19)
(-0.00326422 -0.0341564 -4.02383e-18)
(-0.0462238 0.00857766 7.54612e-18)
(-0.0284867 0.0091347 3.07969e-19)
(0.0836674 -0.264317 -1.51023e-18)
(0.00222036 -6.64361e-05 -4.1608e-19)
(-0.0248929 0.00700152 -7.93432e-20)
(-0.0166433 -0.0252993 9.09398e-19)
(-0.0155207 -0.0451606 3.02908e-18)
(0.00112713 0.0112121 -7.14692e-19)
(-0.539456 1.03202 5.42591e-18)
(-0.0608837 -0.0591979 2.64714e-19)
(0.00179733 0.000208808 -4.47847e-19)
(0.624034 -0.20702 2.56432e-18)
(0.0813316 -0.013278 -1.13564e-19)
(-0.255058 -0.159304 2.17642e-17)