/*--------------------------------*- C++ -*----------------------------------*\
| =========                 |                                                 |
| \\      /  F ield         | OpenFOAM: The Open Source CFD Toolbox           |
|  \\    /   O peration     | Version:  v2012                                 |
|   \\  /    A nd           | Website:  www.openfoam.com                      |
|    \\/     M anipulation  |                                                 |
\*---------------------------------------------------------------------------*/
FoamFile
{
    version     2.0;
    format      ascii;
    class       volScalarField;
    location    "50";
    object      ddt0(omega);
}
// * * * * * * * * * * * * * * * * * * * * * * * * * * * * * * * * * * * * * //

dimensions      [0 0 -2 0 0 0 0];


internalField   nonuniform List<scalar> 
13851
(
-0.000116689
-0.453059
0.00233905
-0.000123792
0.00123444
-0.489719
8.01271e-06
0.000777617
-0.00015299
0.00472734
0.00192864
-1.01969
0.0258089
0.806667
1.0365e-05
-0.000300975
4.52064e-05
0.000603357
0.00438589
-0.000155114
-0.000108001
0.00200312
0.00025641
-0.000495896
0.000309887
0.000657371
6.32606e-05
-3.12793
-7.88623e-05
7.4124e-05
-0.296265
5.01281e-05
0.00219409
0.0615682
-0.000400628
0.00703737
0.0121092
-0.00443984
0.00499155
0.0445466
5.80829e-06
6.06251e-05
0.372993
-0.0122912
-0.0150428
-1.83131
-0.0447984
0.300075
6.65993e-05
0.0531974
0.000808078
0.00256522
-0.125821
1.26872e-05
-1.07944e-05
4.73685e-05
3.40425e-06
-0.0080673
6.79132e-05
1.34138e-05
-0.00278499
-0.144509
0.313537
0.000946046
-0.039328
-0.000509592
0.0195944
-0.0517633
0.000298132
0.000624354
0.0894292
0.0323879
-0.393762
1.26354e-05
1.18566e-05
-0.000200005
0.00184211
0.0879824
0.000675663
0.0393299
1.82244e-05
0.000382268
1.01984e-05
-1.34333
-0.0747499
-1.08293
-0.474375
0.675298
7.70712e-05
0.000362539
0.00705022
0.239949
-0.0439254
0.000131789
7.59782e-05
0.000179285
0.000884136
0.0945011
0.0466459
0.000201444
0.379954
0.000613303
2.79716e-05
5.41698e-05
0.000111948
-0.11861
0.000684254
6.45705e-05
-0.0194456
-0.677709
-0.000180231
0.000407592
0.0963745
-0.000706543
-0.000177103
-0.354639
0.12461
0.000152697
-8.06374e-05
-4.27492e-05
0.342826
5.00035e-05
0.0376941
-0.108244
0.424936
-0.000249625
0.289581
0.000672923
-0.000115005
0.000977528
6.40065e-06
5.78149e-06
0.086974
1.0007e-05
-0.330135
5.45776e-06
0.000122228
0.0362938
0.84482
-0.0399253
0.304996
-5.3544e-06
0.000337085
-4.2082e-05
2.64475e-05
-0.0208037
4.31267e-05
0.000676337
1.05928e-05
-0.00965553
0.0014954
-2.0722e-05
0.720434
-5.3499e-06
3.63196e-05
2.77676e-05
5.21462e-06
4.70951e-05
0.00236463
0.000963781
-6.85115e-06
0.000143901
-0.0170717
4.98874e-06
-4.03641e-05
-5.42498e-05
8.03678e-05
0.000301511
-0.00010321
1.10738
0.166378
-3.79181e-06
5.19765e-06
0.0368059
1.27714e-05
0.32444
0.000657812
3.31741e-05
0.00136244
-1.9749e-05
4.77859e-05
0.0366416
9.64957e-06
0.00222315
-3.70898e-05
0.000244486
-0.000477627
4.34093e-06
0.000993207
0.00170455
-0.0479241
-0.0810079
0.000325022
0.000315727
-0.181826
2.96351e-05
0.000186783
-0.0146348
5.60483e-05
-0.000183645
-0.000259074
-1.58651
-0.000234874
9.49456e-06
-0.00105312
9.66849e-06
0.115198
5.55288e-05
-0.0435277
-3.49089e-05
0.129995
2.28333e-05
-0.00548447
-7.53646e-05
-0.000143935
0.0442682
-0.178836
-1.53305
1.04651e-05
-0.0512489
5.81604e-05
1.96729e-05
0.199209
0.00173674
-0.00501609
0.000338413
0.000184531
0.000153767
-0.119689
-0.00010747
0.000706379
-0.54129
-9.1151e-06
0.000278023
0.00081259
-0.00658203
-0.468425
-0.0289042
-9.10283e-05
9.83148e-06
-0.164541
-0.00669868
2.39092e-05
-0.00112967
9.69545e-05
-0.0524861
0.00070744
0.0233461
3.13372e-05
1.85007e-06
-0.00211533
-0.0082231
1.79515e-05
2.87685e-05
0.000639492
0.093579
-0.00328741
0.0355673
-0.224747
8.80813e-06
-0.000142926
0.000661458
-0.183592
-0.000138458
-0.00997048
2.91132e-05
1.77154e-05
0.000117933
0.351438
0.00201365
-0.00011207
3.46579e-05
-0.367941
0.000573371
-0.000318924
4.2765e-06
0.000421885
0.000810395
-0.0217318
0.0708539
1.01314e-05
-6.46223e-05
7.13908e-05
0.000598928
-0.0847224
0.262073
-0.000100553
7.64031e-06
-0.249642
0.000443433
8.15135e-05
5.99732e-05
1.48768e-05
0.000360691
0.000381131
-0.00239807
-3.0021e-05
-0.77468
7.96316e-06
-0.0331922
0.000132792
4.01108e-05
-0.00164274
6.69485e-06
-0.183843
0.048706
-0.000121336
0.000469079
0.000133537
5.30901e-05
-0.233967
-4.18462e-05
1.81739e-05
0.149189
5.84696e-05
-5.21266e-07
-0.000136824
-0.017181
0.00374979
1.01283e-05
0.000661074
9.86859e-06
0.13905
-0.00163712
0.000202437
1.00708e-05
0.00371473
0.000163713
3.6218e-05
6.49683e-06
6.87609e-06
1.73513e-05
-0.00568728
0.392862
0.896182
0.00264358
0.00468554
-0.511799
1.00644e-05
0.000327249
-0.000141589
0.371277
-0.00646315
0.00214557
0.00109986
0.00102174
-0.0134759
0.0224403
1.05678e-05
0.00253202
0.00246458
-0.050014
3.63915e-05
0.0737489
-0.112569
5.40569e-06
0.347372
9.71753e-06
9.32554e-06
4.90342e-05
5.13507e-05
4.60291e-06
0.052788
-0.00611917
1.05011e-05
0.000437656
4.35559e-05
-0.790737
-0.00111549
0.17194
0.508739
9.75335e-06
-0.305224
0.000124404
0.199356
3.32257e-06
6.46555e-05
0.00157628
0.297712
7.84494e-06
-0.281213
0.390851
0.00274537
1.20906
0.00797265
0.00689073
-1.89444e-05
8.7975e-06
1.48242e-05
0.00191765
0.000630447
0.683452
0.000296358
0.0258288
0.0391138
5.827e-05
8.71482e-06
1.09278
0.0472221
-0.361057
0.141922
0.0037421
0.00013676
0.00017711
-0.168193
6.73257e-05
-0.000243028
9.60156e-05
1.09895e-05
0.00013292
-0.00015777
-3.44461e-05
0.000980988
-0.0116306
0.247811
0.00108628
0.000741907
-0.00715607
-0.00830747
-2.89276e-05
-0.266314
3.7005e-05
0.0396127
0.000142367
-0.000167462
0.000290039
-0.0162257
-0.0126561
0.00138053
-0.00778812
0.340286
0.0688059
-0.348711
-3.79455e-05
0.000854935
3.44933e-06
-0.0106472
0.000178487
-1.24009
-0.016845
0.00202941
-0.00902157
0.000194296
0.000817159
-0.0168837
0.225427
-3.79217e-05
0.000173891
0.000692447
0.00245785
8.16977e-05
1.87087e-05
0.00129906
0.00253843
0.00199364
-0.0903821
0.000351476
1.26135e-05
-0.159614
-9.87929e-05
-7.98282e-05
0.970173
8.63419e-06
-0.000124813
-6.60397e-05
-0.0023072
3.63365e-05
-7.12371e-05
0.00026625
0.225024
1.03174e-05
0.0003442
8.52635e-06
-0.0360059
0.00892109
-0.000598938
1.3751e-06
-0.00070027
-0.000714651
0.00114548
1.67916e-05
-0.398991
9.53164e-06
0.00013213
0.468311
0.0129424
9.35495e-06
-0.0349851
-3.33202e-05
-0.012387
-1.26321
1.30884e-05
-0.0054125
4.11422e-06
0.0013794
1.25257e-05
-0.351375
0.000148986
0.331541
0.000648556
6.07628e-05
-0.0114134
0.0985934
0.000584044
0.0987811
-5.92932e-05
-0.0467057
-1.68373e-05
6.18946e-06
2.23227e-06
8.25705e-06
-0.00195287
0.000803577
0.00349015
0.00908657
-0.0470571
5.93591e-06
0.318579
-0.0147384
4.99775e-05
0.000145369
0.00197326
-0.128637
0.217974
1.46001e-05
-0.355977
-1.90759
-2.93829
-9.7282e-05
0.0292377
-0.135515
0.00116224
0.821137
-0.00557763
-0.720801
5.08134e-05
-0.964752
0.0276766
0.000149949
0.000417434
0.000833431
0.0883007
3.24658e-05
1.23053e-05
5.26812e-06
1.02607e-05
0.00104724
-0.0019506
0.276548
-0.147152
-0.000114742
0.0239864
0.0137895
0.0356496
-0.014968
0.000345302
-8.88471e-05
-0.000162503
0.00013829
0.471472
3.70972e-05
0.00195733
0.00676738
3.05319e-05
0.0045315
-0.19588
-0.0345671
0.00182783
1.3371e-05
0.0197187
4.24603e-06
1.06131e-05
1.04389
0.0391353
0.00417383
0.00029338
0.130774
1.92606e-05
1.13884e-05
-1.32725
7.18963e-05
3.62622e-05
-2.96137e-05
1.01512e-05
0.045271
0.00096654
-0.00462831
5.18854e-05
-1.0105
-0.0287281
1.05088e-05
-3.31992e-05
-0.000250437
1.4662e-05
0.258663
0.0106476
0.0032392
-3.43426
-0.0424372
0.000248358
0.126277
-0.00650366
0.0018539
0.000308664
-7.70295e-05
-0.000220278
-5.47434e-05
0.404735
0.0544691
0.00191034
0.000104237
-0.0001363
-0.00046769
-0.000941724
0.0904331
0.000735664
9.77368e-06
0.00303339
9.07495e-05
0.000117287
0.00118469
1.32187e-05
3.68259e-06
-0.00108584
1.27167e-05
0.00104563
-0.0125712
0.00148064
-0.000578937
0.00443082
-0.00013345
-0.475481
-0.00168406
-3.35086
2.18881e-05
0.000231148
-0.0142847
7.27623e-05
0.381071
-0.0210326
-1.02867
0.675831
7.3725e-05
0.033864
-1.30333e-05
1.10459e-05
0.000150834
8.38566e-06
-3.02197e-05
0.00158767
-0.00181274
7.46553e-05
-1.46634
-0.00684295
-1.38169
5.3175e-06
9.81525e-05
0.000165881
-4.68479e-05
-0.238533
0.000693532
0.000124818
1.60283e-06
0.000119353
-0.000109025
5.35389e-06
0.0119181
-0.326907
1.22699e-05
6.46979e-05
7.99742e-06
5.8652e-06
-0.621349
-0.0354918
-0.00044867
0.0931839
-0.0853497
3.40532e-06
0.00333572
0.254097
0.000351448
-0.783698
1.83725e-05
0.000673465
0.00065565
0.000899854
-0.00894462
9.56948e-06
-0.168537
0.000211466
0.000202858
-0.044174
-0.000548984
4.84129e-05
0.604991
9.11958e-06
4.07809e-05
-0.117039
0.322124
0.000953906
-0.00887378
0.00555714
-5.02014e-05
6.53792e-06
0.347715
0.00648407
-0.00982292
-0.000871261
-0.000255105
2.52139e-05
0.000145592
0.0831714
0.0186261
3.05377e-05
-7.23569e-06
0.0108082
6.2249e-05
0.000240647
0.0228918
-0.0636788
-0.00806422
4.99467e-05
1.20566e-05
0.122483
-0.441952
0.0060402
-0.000970561
0.0633966
9.79114e-06
0.0238215
-0.000381934
0.00226827
1.75486e-05
-1.1013
-0.00134488
-0.00514844
0.0132239
0.000195387
-0.000234318
3.93721e-05
-0.000103364
-0.149672
2.81697e-05
0.00192026
-0.00316628
0.00212289
-0.000154764
-0.2082
-1.96811e-05
-0.000329586
0.000155105
4.11031e-06
5.97804e-06
0.0451292
5.28395e-06
-3.7712e-05
0.771469
1.13012e-05
0.0780653
0.000137569
-0.000245
0.000988059
-0.617304
-0.00222603
-0.000182695
-0.434712
0.112162
1.77e-05
0.188626
0.000197228
-6.81405e-05
-0.0465269
0.284992
-0.418191
-4.35149e-06
-7.66536e-05
7.2379e-05
-0.0179126
0.00280604
-0.00597398
-8.62181e-06
-0.0377045
1.50977e-05
-0.00051268
0.00212084
-0.021022
0.00113772
-0.0950143
1.14061e-05
0.00116462
0.00121719
-0.0118482
5.03433e-05
0.523864
0.0213192
1.1022e-05
-1.73001
-0.556576
0.0323371
0.356272
0.0884699
0.103659
-2.3217e-05
-9.60494e-05
0.00156768
-0.00463716
-1.58294
3.27807e-06
0.000212302
0.000838106
0.000278625
1.28456e-05
-0.227374
-0.000249577
1.24344e-05
-0.253683
0.120421
0.00344107
1.21891e-05
9.2908e-06
-0.179084
0.0114906
0.00327952
0.000451267
0.162696
-0.0208034
-0.219485
0.000759351
0.000434336
1.83336e-05
1.22687e-05
-0.252527
0.000643174
0.0602645
0.00522516
0.000293634
-0.297939
0.0561237
0.0452613
1.00555e-05
0.000214789
1.14484e-05
-0.000583118
4.72876e-05
-0.294158
1.07021e-05
-0.0802805
-2.74926e-05
0.00090923
8.5276e-06
-0.000543093
0.000262216
0.000206626
0.0906209
0.000475382
-0.0028824
-0.000522644
0.000869131
0.2729
-0.234735
4.22403e-05
0.150062
9.67539e-05
0.283905
0.00713359
1.43523e-05
0.0609463
0.342093
0.0508453
0.125213
0.00615445
6.51369e-06
-0.0051547
1.32686e-05
-0.440001
-0.0508016
5.48646e-06
3.17083e-05
-0.0044712
-0.0222968
0.226708
1.17633e-05
-3.61708e-05
-0.657052
-0.0443622
0.00168599
4.97461e-06
0.00022035
0.0181334
-0.625621
0.00119175
-4.0063e-05
8.63183e-05
1.16789e-05
-0.000103153
0.00394782
0.00018869
-1.43675
-0.0122171
1.23875e-05
0.000363136
7.6175e-06
4.35133e-05
0.148487
0.140118
0.000172244
0.602439
9.85797e-06
0.000159327
5.64513e-06
1.09209e-05
8.30415e-06
1.1854e-05
0.0490783
9.50664e-06
0.000649354
9.93406e-06
-1.42409e-05
0.00457762
-0.301907
-6.43147e-05
1.09674
-0.00631425
0.0135861
5.39908e-05
0.000187334
0.0691236
0.000120463
-0.00415244
-0.369804
-0.525519
0.0397035
0.000513206
-0.00531504
1.95128e-05
0.000427882
0.000675528
0.395236
-0.000234952
0.0961465
5.66384e-06
5.98571e-06
0.787471
-0.000300768
-0.00841881
1.75128e-05
5.28049e-06
-0.00351852
1.02217e-05
8.21469e-06
5.88603e-06
1.72461e-05
0.0126387
5.35409e-06
0.0106235
-0.485876
-0.00135447
0.464546
1.17908e-05
-2.38499e-05
-0.000109569
1.06084e-05
6.42166e-06
0.00118185
1.50008e-05
2.72314e-05
-3.92961e-06
0.000289802
0.0780667
-0.344986
-0.130459
0.116079
0.0126114
1.20526e-05
-0.198371
0.000109364
4.59459e-06
-0.00725312
-0.0376837
-0.00770548
1.19739e-05
-0.0330345
-0.0243928
-0.110818
4.36652e-05
0.0154252
-1.24762e-05
5.72921e-05
6.21216e-06
-2.57712e-05
-0.123077
-0.387031
0.0770836
-0.000453983
1.13889e-05
0.459432
1.40554e-05
-0.898751
0.0511675
-0.490388
0.00500283
0.0187703
0.000176871
7.13017e-06
-0.479179
-0.0417235
5.24922e-05
-0.00163563
0.000608449
1.51209e-05
0.000164014
-0.399432
1.23018e-05
0.113357
-0.0037999
-0.40055
0.0039656
1.46884e-05
0.000139916
-1.21225e-05
0.0352723
-0.0190795
3.14821e-05
-0.000294326
-0.000452981
0.000997259
-4.7606e-05
-0.000351052
2.05652e-05
0.000275348
0.0177268
-0.00401527
0.00210357
3.69469e-06
0.000732491
-0.0071555
2.03216e-05
-1.14984
-0.15507
0.00130412
-4.78e-05
0.000509147
1.1999e-05
0.000205151
-1.11265e-05
0.125057
0.00351712
-0.0151234
5.29355e-05
0.0204812
1.20002e-05
0.000157456
1.24431e-05
-0.141613
0.0222728
-6.26611e-06
0.000275861
-0.0110427
-0.0002461
-0.000618288
-1.63518
-7.82627e-06
0.0130468
0.00241816
0.407088
0.00221204
0.0011474
-0.0192524
-0.00689321
0.0122266
-0.352166
-1.55595e-05
0.0272273
-4.1821e-05
3.73251e-05
0.000106441
1.3441e-05
-0.0119902
3.24532e-05
0.000120807
0.0784138
0.00338096
0.13152
1.00345e-05
5.156e-05
1.79747e-05
7.42987e-05
0.00220369
-0.0400334
0.26412
-0.101464
1.02029e-05
0.000123772
0.000713727
-0.176167
0.196075
-0.473556
0.000176142
1.29588e-05
-0.465934
0.000669545
-0.312462
0.117424
-0.119438
-5.53265e-05
0.0210541
0.00172817
0.000656177
0.000146711
0.141597
0.0627339
0.000765836
-1.34688
3.04252e-05
-0.0042549
1.2371e-05
0.113492
-0.00854657
0.00995961
0.00933161
0.00010485
0.00517363
2.57745e-05
0.18536
0.0122895
0.000138191
0.0612878
-0.0516758
0.137566
0.0183115
9.4386e-06
7.44545e-06
0.14221
-0.0147072
-0.462262
3.76595e-06
9.56565e-06
1.12954e-05
0.0702402
0.00564631
1.68293e-05
-0.0526314
0.00287444
-0.473728
0.0164875
0.232561
9.23022e-06
0.0114917
7.04957e-05
2.72326e-06
0.00421417
-0.252622
1.07605e-05
4.14099e-06
-0.732571
0.249957
-0.000167042
1.20333e-05
-0.0328979
7.47911e-05
0.0001336
1.09567e-05
-0.135027
8.05695e-06
0.000671798
-0.108649
0.244792
2.8568e-05
0.232572
-0.0149883
-1.29098
-0.00700855
0.276913
-0.204181
9.27052e-06
-0.056285
-0.000567079
9.7013e-06
0.000142549
-0.0328754
4.24528e-06
0.011525
4.94658e-06
-0.00695882
0.199818
0.0017562
-1.85456
2.61519e-05
0.000181644
1.54314e-06
0.000255389
0.0176527
0.475386
5.96993e-06
0.000834411
0.00294392
1.33452e-05
-0.000152381
-0.0327832
0.000316008
-0.000509179
0.00314163
-0.0641531
0.242233
0.0207216
0.0166814
-0.168121
0.0603476
-0.0200262
-0.0339886
0.000855904
3.71574e-05
0.00376862
1.00737e-05
1.25542e-05
-0.356606
-0.0399198
4.47028e-05
0.500588
-0.170003
0.110015
0.0264708
-0.055145
1.0116e-05
-0.221871
0.266768
-3.46778e-05
2.90095e-05
0.0931403
0.0197268
-1.20537
0.316915
-0.00151061
-0.0798765
0.0878592
0.000251301
1.07233e-05
7.12302e-06
0.000357107
7.89883e-06
0.0123457
-1.6467e-06
2.24158e-05
5.5238e-05
0.0119459
0.0364848
-0.118518
-3.28794e-05
0.0213518
5.58972e-05
-0.000164689
1.08857e-05
9.31203e-05
0.00437016
-5.36198e-05
-0.0153552
-0.256302
-0.0661991
0.00322096
5.45275e-06
-0.00140433
9.06159e-06
0.00545486
-2.61804e-05
2.39652e-05
-2.48661e-05
-1.62499e-05
0.00575705
2.37846e-05
3.6137e-05
-1.73079e-05
-2.07823e-05
-0.00107853
0.129804
5.80218e-06
0.000640234
0.000201705
0.562793
-0.000370585
0.144151
0.185721
0.000233722
5.51785e-05
1.48181e-05
-0.0185905
6.51081e-06
0.00406635
7.64047e-06
-0.000429221
8.61482e-05
0.111768
0.00010752
-0.000416299
0.0490418
0.000375748
0.00109335
0.125333
-0.0132544
0.00035822
1.1793e-05
0.295814
1.74669e-05
2.56287e-06
0.00508132
-0.0819469
0.000138012
-0.000287991
-0.023405
0.0404024
1.76911e-05
2.23773e-05
-0.0737993
2.60534e-05
0.200292
0.0134629
-0.0496213
8.27075e-06
-0.000465484
9.90801e-06
-0.0131637
0.00457029
0.000447871
0.00297145
-0.16328
2.79173e-05
0.0656987
-0.258177
-6.67552e-06
-0.00345926
0.0012898
9.58769e-06
0.0159274
1.14041e-05
4.72233e-06
-3.14852e-05
0.00304957
-0.0337418
0.00611319
2.82225e-05
2.03751e-05
0.000197124
-0.00815433
0.0151396
0.0656222
0.00509336
2.02001e-05
0.00478643
-9.04668e-05
-0.129507
0.00251011
0.000270938
7.11787e-06
0.0354387
4.27203e-05
1.40294
-0.00115867
9.5748e-06
-0.335683
0.11411
0.000175683
-0.111747
-1.90609e-05
0.000370254
-0.00103599
1.83023e-05
0.672734
0.000905074
0.00182628
-0.00204506
0.00083701
-0.241395
1.13877
0.0743402
5.43436e-06
-1.08068e-05
0.0109932
-0.391573
-0.0409303
-0.221712
-0.000220374
0.275508
0.0468633
-0.0005341
0.000113234
1.03955e-05
0.000448402
0.000951564
-0.000110592
-0.0578963
0.0140709
3.07772e-05
-0.0571547
0.177676
9.33958e-06
-0.0188088
0.925476
-0.0854696
5.53528e-05
0.00126582
-0.000122021
-4.09414e-07
-3.80333e-05
1.32098e-05
0.0418505
0.116515
0.109772
2.38184
3.05529e-05
-0.00071573
-0.00211177
0.000167993
1.33381e-06
7.30003e-05
0.516201
9.70912e-06
0.279276
-0.00121492
0.236541
-0.000306197
0.0120695
0.107928
0.0205376
0.000453253
4.44434e-05
0.000518099
0.0118718
0.000401368
6.67034e-05
8.36759e-06
5.77724e-06
0.00174499
4.49162e-05
0.00527205
-0.192417
2.79854e-05
-6.55491e-05
0.00398971
0.252191
0.145882
-0.340608
1.08868e-05
0.000712817
-6.92066e-06
-0.0208831
-6.24285e-05
-0.077596
-7.52726e-05
2.76468e-05
0.00248133
1.39448e-05
0.717142
0.000198935
0.000635081
-0.0189968
0.0405874
7.42994e-05
0.000117804
1.06251e-05
0.0149349
-0.141098
-4.43626e-05
8.80629e-05
0.0242822
0.000146583
-0.0123554
0.00018343
0.00159603
0.00197574
-0.0783852
-0.00162177
-4.56279e-05
7.68894e-06
0.0010803
0.129833
9.75255e-06
1.30725
0.465493
-0.177589
0.912825
-0.000730408
0.0972723
9.11777e-05
-0.0547744
1.17747e-05
-0.000996301
0.0378255
-0.499271
-0.682962
0.0415825
-0.000134436
-0.158928
2.10309e-06
0.192542
-0.00653564
0.080835
-0.0208683
-4.5162e-05
-0.176069
0.685672
-0.000923447
2.63574e-05
1.33498e-05
-0.0253489
4.56362e-06
0.00107506
-0.000220001
1.40646e-05
1.25758e-05
1.34148e-05
0.131393
0.0122874
-8.66977e-05
-0.462389
-0.00381023
-0.000273161
1.15345e-05
-0.000148495
0.0125957
-0.0823444
0.0126171
1.20135e-05
-0.000115723
0.0115441
0.00267405
0.000547964
-0.525407
-7.22969e-05
0.0699154
0.000203736
0.00118302
1.18042e-05
-0.000250194
0.00104842
-0.0198315
-0.0162558
-0.0525541
0.0020088
0.359725
5.79542e-06
5.32481e-05
0.000271169
0.0826826
-0.446145
-0.0866916
-0.0182355
4.99139e-05
1.20473e-05
6.35052e-06
8.5432e-06
6.71027e-05
0.169383
-4.38305e-06
0.174025
-0.000470087
-0.022546
-0.519424
-0.0216645
-0.0418448
0.000102084
-0.374679
-0.00152939
-1.97103
-0.0436769
3.53276e-06
-0.0600423
0.0001012
0.203228
0.0821788
-0.000761528
-0.0900904
0.0355522
-8.885e-05
-0.00377925
1.88168e-05
-2.0502
-0.0135309
4.84297e-05
9.34595e-06
0.0140305
1.05173
0.00129909
-0.521606
0.00356131
0.0146495
-0.000166578
0.263013
-0.0775406
0.00249288
0.000219267
0.145791
1.02379
3.22056e-06
9.64139e-06
5.20027e-05
0.119721
0.173898
9.82432e-06
0.0825288
2.21354e-05
7.07882e-06
6.69535e-06
0.434731
-0.0996938
0.0134026
0.00128907
3.10636e-05
2.48571e-05
9.50458e-06
-0.599967
1.15423e-06
1.42636
-0.00023419
-0.868631
1.28638e-05
1.05111e-05
0.000965932
0.13357
0.0190099
-0.000471012
-0.904825
-1.75978e-05
1.13048e-05
9.99274e-06
0.000575516
0.000829426
0.00079071
-0.000747737
0.553204
6.32061e-05
0.000665386
-0.867544
-0.312548
-4.32105e-06
0.000202356
-0.0561465
8.22548e-05
0.021602
0.00095951
0.157759
1.31392e-05
-0.000233338
1.5047e-05
-1.54967
0.176387
-0.0206484
0.0948809
7.27722e-05
0.00063859
1.7171e-05
0.0614288
-7.68416e-05
9.21046e-06
0.203818
0.0026758
-0.0997184
0.0162237
0.0010389
5.98137e-05
-0.000144589
-0.0192574
0.00185925
-0.000107537
0.00580841
-1.16483e-05
0.000520687
1.25851e-05
-0.119173
-1.34845e-05
-0.0317082
-0.0294379
0.00181107
-0.0943737
-0.0008687
-0.0189915
8.42823e-08
-0.122207
0.139399
-0.000130323
1.05619e-05
3.59929e-05
1.3918e-05
0.000371785
4.10392e-06
-0.103128
0.00112005
0.0182386
0.890943
-1.73244e-06
1.80547e-05
8.85595e-05
0.0408236
1.19294e-05
7.30423e-06
0.00950778
5.78709e-05
-0.470037
0.152898
0.00199638
-0.000235088
-7.62044e-05
2.60934e-05
2.23184e-05
0.158654
0.000139892
6.1532e-05
0.0112567
-0.0647102
0.0179483
2.85604e-05
-0.398098
0.838585
1.277e-05
0.00730261
0.527747
9.73386e-06
5.22216e-05
1.02859e-05
0.0219283
-0.730957
-0.21757
0.000148082
4.32123e-05
0.00020849
1.06055e-05
0.00172612
1.23555e-05
-0.0413222
0.0281199
0.141693
-1.69468e-05
5.92058e-05
4.82719e-05
-1.8099
-5.66416e-05
-0.579409
0.0388743
-0.0163953
-0.490582
1.09121
-0.411504
0.00023431
-0.278543
-0.0987765
2.5047e-05
-6.7827e-05
6.77243e-06
0.118932
-0.0843571
-0.659285
0.000303035
0.0502809
1.30254e-05
-0.000709927
0.000174714
4.10231e-05
2.61434e-05
-1.26436e-05
-0.892154
2.62592e-05
-0.110371
0.960148
-0.588998
0.000521605
0.000703999
-0.727483
0.144053
-2.00678e-05
0.353354
2.25641e-05
0.00013334
1.13578e-05
0.000854321
0.000329042
-0.0519981
0.000970935
0.0788362
-0.00151304
0.0138918
-0.240087
-0.016057
-0.000117838
-0.00251427
0.00112384
-0.918266
-4.65097e-05
-3.6213e-05
-6.2649e-06
-0.410807
1.97329e-05
0.00844344
-0.0651855
0.000471563
0.0015885
-4.71571e-06
0.00867306
1.69937e-05
-0.0777176
-0.000101184
0.130653
0.000225361
1.0965e-05
-0.0723559
-0.590317
-8.62151e-05
0.00109192
2.28549e-05
-0.53909
0.204133
0.12643
0.0668055
1.66751e-05
-0.00273171
0.108164
0.000430899
0.000711834
0.00012816
0.00120302
0.000260033
0.027312
0.052007
1.1474e-05
0.00339733
2.84049e-05
0.000680746
0.254028
-0.0762855
-0.00113923
-0.00468368
-0.043077
9.20352e-06
-0.0332386
0.00432577
0.000222413
2.52383e-05
0.0238336
-9.54402e-05
0.151887
0.041691
0.00254195
1.02245e-05
0.0018839
0.00972297
0.00058057
-0.199135
2.41144e-05
4.07354e-05
-1.10566
0.163955
0.000109686
0.0850489
0.129012
-0.0555402
8.99648e-06
0.302314
-0.0363069
-0.82286
9.63605e-06
0.000443172
9.39231e-06
0.0708861
-0.181494
0.00602196
0.014172
1.64173e-05
2.13859e-05
9.67418e-06
-1.03919
0.0349877
0.429385
-0.316474
9.94148e-06
0.135633
0.354248
0.00405986
-0.179593
-0.0103066
-0.000611635
0.191699
4.82144e-05
9.9791e-05
0.0230746
0.0302935
-0.000223574
0.50813
-7.55653e-06
9.81457e-06
-0.0616066
0.0464775
0.0544147
0.143318
-0.000251598
1.67432e-05
-2.29108e-05
0.471785
-0.584355
8.91334e-06
0.000552076
0.0193818
1.01207e-05
1.35845e-05
0.671665
0.425341
3.85168e-05
8.20148e-06
2.39987e-05
2.1679e-05
-0.104058
1.44159e-05
4.55459e-05
-5.00133e-06
0.0176155
0.00272613
-0.105985
-0.0126571
1.08592e-05
5.83937e-05
-0.0178809
0.22261
-3.13517e-05
-0.64045
1.04788e-05
0.000376563
-5.70446e-05
-0.000262396
0.00147617
-2.42895e-05
0.612725
-0.000618252
-0.000119964
5.95846e-05
-0.0617689
0.168947
0.0533487
1.04448e-05
-7.47185e-05
0.216728
0.36007
6.18843e-05
-2.91921e-05
5.85447e-06
0.074576
1.43038e-05
-0.000250363
5.61232e-05
1.0896e-05
-0.0348795
-0.00278326
1.55651e-05
2.88965e-05
8.1912e-05
1.04161e-05
-0.274345
-0.0742783
0.000966229
-0.270116
0.804506
1.8321e-05
1.07246e-05
1.10222e-05
8.92537e-06
1.54356e-05
-6.16381e-05
-2.12142e-05
0.20341
9.92461e-05
0.00126824
0.049362
0.0551513
5.93608e-06
8.29022e-06
5.02686e-05
-0.95588
8.51169e-06
-0.387392
0.0147728
0.173842
0.000195921
0.165085
-0.000130556
-0.0415082
-0.000104291
-0.000140846
2.06059e-05
-0.0002123
0.245527
0.0415675
-0.103465
0.00032096
0.874918
1.37872
1.22368
0.000256452
0.0384115
-0.20178
0.000873714
-1.28656
0.719432
0.00288643
0.00870698
1.63567e-05
0.000366295
0.0224406
8.53864e-06
3.27118e-05
0.399305
0.238732
-0.40452
0.140124
1.87387e-06
0.000552861
1.33321e-05
0.00763823
0.000120835
0.00498498
0.105483
0.363309
0.504166
1.27855e-05
-1.69128e-05
0.00087349
0.511364
-0.0451719
0.00180679
0.0183258
5.65113e-06
0.0231043
-0.0333099
-0.607935
6.88154e-05
1.30502e-05
-1.24604e-05
6.33435e-05
-2.28879e-06
5.72829e-07
3.20659e-05
-0.0275661
0.000895854
-0.0109062
0.252643
-0.0117184
0.00710287
1.20485e-05
-3.35547e-05
-0.000565347
-9.44868e-05
1.57857e-05
-0.049342
-1.91297
-0.624563
0.0447374
4.6826e-05
-0.292656
0.00021846
0.100799
-0.0511455
1.06791e-05
-0.000318701
0.0805995
1.005e-05
-7.58677e-05
-0.146013
-0.0405717
0.0162752
1.1416e-05
1.26502e-05
4.68158e-05
-3.29452e-06
-0.376165
-8.76202e-05
3.1846e-05
0.0218483
1.86755e-05
0.069402
-6.86749e-06
0.449314
1.69918e-05
0.0137891
0.523127
-0.000977602
0.52383
0.00201648
-0.0239948
-6.45462e-05
2.17606e-05
1.30882e-06
-9.82168e-05
0.995652
0.000218978
-0.0132681
-0.000500168
-4.53918e-06
7.79572e-06
0.0242853
0.000530032
0.00166038
-0.264851
8.61333e-06
-0.00243796
0.022434
-0.00156147
0.000396172
0.000306585
6.98195e-06
0.00100633
-9.1922e-06
-0.000250159
-0.0140652
0.145062
0.0345033
0.875235
0.0125841
-0.112256
0.00115288
0.0261709
0.000680211
-8.93541e-05
0.000337414
0.000155477
7.84496e-06
0.420491
0.362911
-0.00016943
-0.00640197
-0.0586417
0.000186064
8.06014e-05
-8.34237e-06
-0.172275
0.620169
-0.0367233
0.722641
-0.0484671
0.000147442
0.00392935
0.000853041
0.0197077
0.0163753
9.96032e-06
0.0044541
0.00786185
-0.000583736
0.630693
1.40092e-05
0.00728299
-0.0232467
-0.082431
0.00135536
-5.60482e-05
0.135767
0.00449046
-0.0770941
-0.0373754
-0.0271628
0.00262182
0.0301387
1.29694e-05
0.00174916
0.000609252
0.0646274
-0.0156309
-0.0211371
-0.000408924
0.0010337
-0.00495841
-0.000497164
0.737322
9.91937e-06
0.0038289
0.0768023
9.58467e-06
0.156946
-1.27506
-0.0762299
0.066331
-0.000118794
-0.0938407
5.75887e-06
0.347694
-0.000433824
-0.000194426
0.00051179
4.57261e-05
-0.0569285
5.69863e-05
-5.82794e-05
3.79846e-05
-0.000265168
-0.907549
3.37529e-05
0.00274386
-0.0420471
-1.23795e-06
-0.0174229
0.000994831
-3.21208e-05
0.0479759
0.0113232
1.07265e-05
-0.157752
2.0047e-05
-0.0535446
0.181317
-0.000578044
0.00385495
3.14447e-05
0.250354
-0.0521625
0.000792304
1.01794
-0.000504225
5.22501e-06
0.364322
6.19013e-05
9.48245e-06
0.01646
0.000437551
8.46796e-06
-7.20529e-05
0.000487601
3.802e-05
0.0803182
0.00490144
0.180723
0.132787
0.000705195
0.00170515
5.34366e-06
0.201304
0.123773
-0.0871266
9.4429e-06
3.07806e-05
0.00076855
-0.000247469
-0.0289417
1.07305e-05
6.69813e-05
-1.01433e-05
0.0202932
-0.000253418
0.0898532
-0.0121681
0.00308216
-0.0278029
-0.238977
0.481813
-0.0426649
0.000108822
0.0180421
0.0167823
0.0852036
7.73366e-05
-0.00621425
0.142959
-0.826534
0.00342418
-0.0028236
0.453839
0.101531
0.000559717
0.0100917
-5.75121e-05
0.000571691
0.000485495
9.99602e-06
0.00104051
-0.006393
-0.0447118
-0.749727
0.0210028
9.39543e-06
5.06305e-07
-0.00114599
9.88818e-06
0.597907
-0.000211333
-4.16397e-06
0.00684034
0.0116397
0.000100733
0.00102784
-0.00046244
0.00359191
-0.126599
-0.0573478
-0.172448
9.6935e-05
-0.0532769
1.0273e-05
-7.8434e-05
4.43723e-05
0.0121395
0.0117121
0.003451
0.0119993
2.79244e-05
-1.9343e-06
1.01534e-05
1.60418e-05
0.000120799
0.429848
0.0219918
3.28725e-05
0.717862
0.0877715
-0.0526334
-1.25761
9.84581e-06
0.00016105
1.14564
9.78492e-06
-0.000409955
8.46755e-05
5.39602e-05
-0.0907292
-0.0579585
-8.69736e-05
0.00041052
6.84485e-05
0.00181783
-0.750464
-0.0315089
0.102648
2.51378e-05
0.0017768
0.0650444
0.00151031
0.00375565
0.0199853
-0.132362
-0.0328556
0.00132714
-0.000244925
0.0674504
-2.02847e-05
-8.16954e-05
1.18238e-05
0.00150938
0.0285353
0.158857
-0.0271268
-0.828973
0.00134088
-7.83699e-05
7.52715e-06
1.30761e-05
-6.84182e-05
0.000581422
0.0488888
-0.0365025
0.00143069
-0.316403
1.16631e-05
0.0012881
9.54743e-06
-0.0827792
-0.0161985
2.32694e-05
-0.00135927
0.00117364
0.199
-0.0035213
0.000354672
0.282057
1.85612e-05
-0.0407075
0.0125986
0.0270392
-0.00805363
1.68332e-05
0.00119807
1.14882e-05
0.502531
-0.0561657
0.000459524
-0.368505
0.0138358
0.991092
0.00186635
0.130229
-0.00621091
1.27261e-05
0.00389965
-0.00135135
5.50502e-05
0.00110107
0.000109216
-5.04458e-05
0.037759
0.00584722
4.77914e-05
-0.000181791
0.000400059
-0.000518015
7.94463e-05
-0.221054
0.00101997
0.0465475
-1.26046
1.11767e-05
-0.0523425
6.81864e-06
6.79398e-05
4.92037e-05
-0.0535785
-0.00120013
-0.0726021
-0.787028
0.00149633
0.240074
0.00314516
-0.31956
0.0048057
0.965327
-0.000172043
0.00054739
-2.38764e-05
-0.0637278
0.0371898
-0.000201984
0.000255837
-0.00123771
0.000102777
2.71673e-05
0.000623634
0.000403868
1.30649e-05
-0.000852761
1.545
0.419047
-0.0564168
0.000492223
5.63693e-05
-0.336602
0.000264201
0.000917312
-0.724701
0.000485598
-0.2178
-7.6428e-05
-2.006e-05
-3.57629e-05
-0.000750041
1.00481e-05
-0.0526744
-0.0223484
-0.0345622
-0.00135017
0.614484
0.0119689
9.82991e-05
-0.313827
0.00092096
0.0113792
-0.777178
0.0050387
4.59328e-05
0.000429401
0.00178057
0.000621399
0.0244378
-0.008256
0.00105052
1.30139e-05
0.0120058
-0.17116
1.48225
1.22957e-05
0.000561179
3.57248e-05
-0.000155225
-0.451152
-4.05238e-05
5.96963e-05
8.45565e-06
1.00305e-05
2.00109
0.0165552
-1.55372e-06
0.678175
0.0109286
-5.53398e-05
0.0186043
-0.0612056
0.000833751
0.00124961
9.6067e-06
8.0277e-05
0.0110166
0.000157323
6.28188e-06
-0.646766
0.000123797
-0.0527734
0.00150084
0.000102943
0.0123137
0.00165948
-0.000297394
1.03496e-05
-0.0348604
0.000200008
9.72486e-05
-0.367601
0.00049532
1.20832e-05
0.00305493
6.03083e-05
0.000125028
0.000150951
-0.987238
1.21795e-05
-0.0135419
-0.0228936
0.00099173
-0.0002941
-0.00699599
0.000226967
-2.81924
-0.00636332
0.00314707
0.00182963
-0.0785422
1.25936e-05
0.000838799
9.2679e-05
1.08549e-05
-0.0305056
-0.242887
8.36201e-05
0.148619
0.0119002
0.000752499
-0.00421622
0.000106357
0.0411663
0.381536
0.394194
-0.368879
0.0200039
-0.000517579
6.79976e-06
-0.0134051
-0.00112796
-0.416122
0.145694
-0.0809683
-0.184265
0.0115482
9.7516e-06
-1.87209
9.5128e-06
2.69741e-05
1.31359e-05
0.0125273
-0.00808878
-0.0145592
8.16222e-06
-1.01083
9.17509e-05
0.0503248
-9.94314e-05
-0.00074033
0.000216282
0.0012184
0.00041408
0.00135004
3.84044e-05
-0.0023158
0.0217411
1.01171e-05
0.275418
0.012583
0.51945
9.78209e-06
9.6357e-05
1.04113e-05
5.80334e-06
0.000965742
0.0118871
-0.403273
0.00913877
0.00125691
0.167165
0.000413621
-1.41584
0.000889707
-0.481714
-0.000348119
-0.000417836
-0.0349385
-0.000489549
-0.251712
0.824141
0.084806
5.91039e-05
1.42443e-05
0.377591
0.000262315
3.86623e-05
-0.00150967
-0.000281321
0.000233037
-3.27224e-05
-0.0613179
-0.000290183
0.000480896
0.165526
0.00219583
0.00115675
-0.00690858
0.284035
-0.0244556
0.514391
-0.535337
0.000834463
-0.00925126
3.25692e-05
7.88904e-05
1.16853e-05