/*--------------------------------*- C++ -*----------------------------------*\
| =========                 |                                                 |
| \\      /  F ield         | OpenFOAM: The Open Source CFD Toolbox           |
|  \\    /   O peration     | Version:  v2012                                 |
|   \\  /    A nd           | Website:  www.openfoam.com                      |
|    \\/     M anipulation  |                                                 |
\*---------------------------------------------------------------------------*/
FoamFile
{
    version     2.0;
    format      ascii;
    class       surfaceScalarField;
    location    "50";
    object      meshPhiCN_0;
}
// * * * * * * * * * * * * * * * * * * * * * * * * * * * * * * * * * * * * * //

dimensions      [0 3 -1 0 0 0 0];
oriented        oriented;


internalField   nonuniform List<scalar> 
20537
(
-0.00306091
4.69078e-05
0.00304468
0.00419437
-0.00309642
-0.00109545
-0.000602979
-0.00151584
0.00212803
-0.00482091
0.00251964
0.00232944
0.00104465
0.000969242
-0.00200223
0.00269763
0.00086017
-0.00354667
-0.00112847
0.0012674
-0.00011775
0.00140519
-0.00245522
0.00106622
-0.00140638
0.00177588
-0.000320138
0.00292667
-0.00117457
-0.00174344
-0.00032005
0.000906027
-0.000579915
-0.00204713
-0.00014093
0.00218887
0.00115096
-0.00129075
0.000143656
0.000623767
0.000803732
-0.00142588
2.99933e-05
-0.000412067
0.000465201
-0.00136109
-0.0013159
0.0026973
0.00294588
-0.000606051
-0.00230752
-0.000233595
-0.00248565
0.00273834
0.000686192
0.000879926
-0.00156154
-0.00171801
0.000363469
-0.00204672
-0.00273221
-0.0025107
0.00191843
-5.42475e-05
1.31414e-05
5.94025e-05
0.000125504
-0.000145212
9.58139e-05
-8.91019e-06
-2.75303e-05
-0.00101837
0.00244084
0.00173501
-0.00165558
-5.55996e-05
-0.000520319
-0.000325848
-0.0038877
0.000858686
-0.00356806
0.000332136
0.00326817
-0.000792623
0.00350024
0.00184116
0.00113629
-0.00262142
0.00111607
-0.00112928
-0.000748752
0.00187925
-0.000111702
0.000317534
-0.000517618
-0.000349336
0.000869251
0.000976502
-0.000349283
-0.00062424
0.0011639
0.000746604
-0.00190722
0.00224231
0.000691573
-0.00253231
0.00140435
-0.00338411
0.00205876
0.00137852
0.000124148
3.60875e-05
-0.000154703
0.000684174
-0.000167501
-0.000517275
0.000644766
0.000224054
-0.000868537
-0.000192885
0.000836856
0.00114561
-0.000713332
-0.000434068
0.000227168
-0.000843137
0.000612937
-0.0032344
0.000904261
0.00233254
0.00163342
0.00012338
0.00232475
-0.00196839
-0.000345907
-0.000703173
0.00160996
-0.000895197
0.000979652
-0.0016555
0.000683488
0.000265055
-0.000681337
0.000416561
-5.39525e-05
-0.000199658
0.000338945
-6.21511e-05
-0.000331269
0.00053819
-3.10949e-05
0.000160539
-3.70903e-05
0.000212695
-0.000137077
-0.000349195
-0.000536499
0.00088611
-0.00312644
-0.000405372
0.00169717
-0.00162839
-3.42841e-05
0.00193407
-0.000766689
-0.00100342
-0.000354695
0.00135716
0.00123293
0.00237328
-0.00359284
-0.000910393
-0.000804199
0.00172304
0.00330774
-0.000588612
-0.00271197
0.000820866
-0.00334307
0.00254332
0.000647978
0.000329583
0.000134177
-0.000854787
0.000667985
0.00119948
-0.00184767
-0.00282158
0.0026094
-0.000399978
-7.85166e-05
0.00047856
0.000475892
0.000284506
-0.00075906
0.00256985
0.00162586
0.000320792
-0.000281124
-0.00078812
8.82753e-05
0.000832163
0.000543062
0.00115612
-0.00166747
-0.000767792
-0.0017343
0.000484518
-0.000814823
0.000330231
-0.00206771
0.00100565
0.00107804
-5.15113e-06
0.000461844
0.00195114
-0.0002252
-0.00168711
5.11032e-05
-7.40111e-05
2.24053e-05
-0.00175944
0.00209617
-0.000268203
0.000701961
-0.00113996
0.000435615
-0.00213159
0.00337761
0.000190618
-0.00223693
-0.000880497
0.00342156
-0.002528
0.00267404
-0.00202808
-0.000643585
-0.00219029
0.000168562
0.00205329
0.00130357
-0.00102765
-0.00025481
-0.00100891
0.000494656
-0.00417514
0.00235153
0.00183965
-0.000590572
-0.00231461
0.00145419
0.000882305
-0.00287598
0.000719505
-9.75132e-05
-2.19937e-05
0.00016008
0.0018192
-0.000763411
-0.00123939
0.00109708
0.000142618
0.00181756
0.000516792
-8.53043e-05
3.59467e-05
-0.00105891
0.00115152
-9.12432e-05
0.00135053
0.000489514
-0.00182396
-0.0035727
0.00136338
0.00224544
-0.000519233
0.00117398
-1.02494e-05
1.56299e-05
-1.56179e-06
0.000887458
0.00239213
-0.00326731
-0.00110684
-0.000494527
0.00161448
7.19081e-05
1.52342e-05
-8.31653e-05
-0.000284458
0.000674032
0.00346554
-0.00259477
9.35081e-05
-9.35275e-05
5.34841e-05
0.000990384
0.000334334
-0.0022469
-0.00191219
3.3879e-05
3.95072e-05
0.000224706
-7.4383e-05
0.00146559
-0.00315674
-0.000858755
-0.000380194
-0.000119883
8.25795e-05
4.41748e-05
0.000176674
0.000136895
-0.000203093
0.000456572
-6.91445e-05
-0.000260708
0.000734794
-5.08377e-05
0.000980805
-0.00148339
-0.000261789
0.00141576
-0.00320409
-0.000948527
-0.00228152
0.000107329
-0.000566809
0.000468367
-0.00328564
0.00234122
-0.0013496
-0.000211254
0.00157441
-0.00423449
0.00222212
0.000872468
-0.00163144
0.000764285
-0.00122872
-0.00209437
-0.000389361
0.00150127
-0.00103544
9.53072e-05
-0.000495446
6.80903e-05
-0.0017559
-0.00173027
0.000322427
0.000279679
-0.00051146
-4.73953e-05
-6.33908e-05
0.000279483
0.000538776
-0.000816673
-0.00179643
0.00110471
0.000691284
-0.000956523
0.00191109
-0.000953911
-0.00012328
-0.000935244
0.000459653
-0.000363183
-0.00260267
0.00106434
0.00156226
-2.06662e-05
-0.000279359
0.000307372
-0.00094765
0.00243346
-0.00145468
0.000861288
-0.00063672
6.19843e-05
-2.21469e-06
-5.81044e-05
0.00184885
-0.000969556
-0.00123498
0.000142648
-0.00079575
0.000601948
-0.00113104
0.000718933
-0.000366719
-4.10078e-06
0.000506707
-0.000659974
0.00128565
-0.00014508
0.000141607
0.000403513
0.00132389
-0.00170003
0.00180242
-0.00271528
0.000295241
-0.00235399
0.00211025
0.00269192
-0.00299491
0.000334835
0.00127441
-0.000287454
-0.00162479
0.000934538
3.93259e-05
-3.9616e-05
9.58387e-07
-0.00184602
0.00124145
0.000621411
0.000408133
-0.000757189
-0.00122983
0.000909773
0.00298327
0.000693385
-0.0036459
-2.79431e-05
0.000287052
-0.000250903
1.12139e-05
5.17763e-05
0.00176515
-0.00107918
-0.00246513
-0.00173637
-0.000593402
0.00108524
-0.000493353
0.000637007
-0.000152592
-0.00070974
0.000136904
0.000614572
0.0023995
-0.00205423
-0.0019358
0.000979336
-0.000304413
-0.000853456
0.00319638
-0.00228913
0.000784147
-0.00211734
-0.00129457
-0.000764314
0.00207839
0.00164137
-0.00095104
-7.20546e-05
-1.77142e-05
9.28722e-05
0.000699746
-0.00259317
0.00191996
0.000756646
0.00170173
-0.00141709
-0.000222417
0.0018825
4.32631e-05
1.30569e-05
-1.17516e-05
-1.75763e-07
-7.32033e-05
-3.96581e-07
0.000100878
0.00334107
-0.00249921
0.000540165
4.90236e-05
-0.00107044
-0.000754811
0.00183407
-0.00198706
0.00285588
-0.000859305
-0.000630426
0.000713075
-0.000448603
-0.00119307
0.000178189
0.00103144
0.00128664
0.000528724
-0.00179719
0.000738462
-0.00174324
0.000442293
0.00157457
-0.00198764
-0.000755507
-0.00182336
0.00225615
-0.000706312
-0.00154756
0.00124599
-0.00251658
-0.00118363
0.00175859
0.000595364
-0.000478768
0.00136038
-0.000600433
-0.000761434
-7.60928e-05
0.000246942
-4.91021e-05
0.000696137
-0.00208678
0.00146057
0.00272183
-0.00115413
-0.00155912
0.000101012
0.00166356
-0.00208137
0.00137943
0.000701404
0.00276901
-0.00226206
-0.000475436
-0.000320402
0.000742278
-0.000421775
-6.25399e-05
4.80772e-05
1.66639e-05
-0.000900817
0.00056859
0.000333578
-0.00271808
-0.000814254
0.000779575
-0.00233639
0.00155677
5.14014e-05
1.3589e-05
-6.19122e-05
6.26826e-05
0.000237452
-0.000292515
-0.000224743
0.000766306
-0.000536186
0.00388744
-0.00124897
-0.00262183
0.000470246
0.000673563
0.000898716
-0.000691309
-0.000137566
0.000386826
-0.000707131
0.000996019
0.00179863
0.00200656
-1.98001e-05
-0.0010587
0.000701101
0.000360264
-0.0016767
0.000765697
0.000918343
-0.000798741
0.000558355
0.000240588
4.05994e-05
2.8866e-05
-4.2427e-05
-0.00234417
0.00134283
0.00102358
2.41958e-06
-7.91881e-06
0.000508356
-0.000716836
0.000208448
-1.14396e-06
5.41665e-05
0.00161044
-0.00261099
-0.00097108
-0.00197508
0.0029517
-0.000579591
-8.91897e-05
-0.000185853
0.000361764
0.00112003
-0.00146974
0.00342945
-0.00270737
-0.000708684
-0.00157369
-0.000507713
0.00272565
0.000586944
-0.000302188
0.00028966
-0.00114498
0.00190264
-0.00344946
0.00266661
0.00211905
-0.000149998
-0.00196507
3.58705e-05
-5.27771e-05
1.69418e-05
0.00109747
0.00163171
1.68493e-05
3.23434e-06
-0.000369313
0.000653135
-0.00028315
-0.000235521
0.00159979
-0.000661906
-0.0014927
0.0021542
0.000648487
0.00200346
-0.00261901
0.00260443
-0.00246433
-0.000109901
0.000687789
0.00183364
-0.00250394
0.000331875
0.00178786
-0.00229613
0.00217796
0.000151172
0.00248059
-0.00194664
0.000954303
0.00100824
-0.000637056
0.00333658
-0.00269205
0.00119483
-0.00317266
0.000734703
-0.000194433
-0.000880564
0.000269408
0.000613161
0.000964132
-0.000963089
4.70046e-05
-0.000232196
0.000268563
0.00291543
-0.00316199
0.00210125
-0.00342217
0.00132441
0.000229872
-0.000643551
0.000425017
-0.000734769
-0.000752588
0.00148965
0.00177819
-0.00130993
-0.000324109
-0.00193736
-0.000332854
-0.00196098
-0.000360123
-0.000695848
0.000965403
-0.00108562
0.000126668
0.00249394
-0.00178852
0.00200864
0.00164952
-0.00334917
0.0017056
-0.000851807
-0.00119963
0.00167774
-0.00301737
0.000573272
0.00100075
-4.82815e-06
5.55841e-05
-0.000172401
0.000625733
-0.000448881
-0.000730253
0.000549656
0.000181152
-0.000717582
0.000401867
3.75526e-05
-2.73791e-06
-4.29044e-05
1.97081e-05
2.60066e-05
-9.02089e-06
-3.45352e-07
1.22002e-05
-0.00101666
-0.000915364
0.00329519
-0.00119049
-0.000790691
-0.00256118
0.00335302
-0.00209915
0.00123423
0.000909674
-0.000573098
0.000123141
0.000495173
0.00332197
-0.0016663
-1.00215e-05
2.34592e-05
-1.46969e-05
0.00109016
0.000764165
-0.00305457
-4.11849e-05
0.0013121
0.00041799
-0.00126218
-0.000531735
0.00181155
3.22201e-05
-4.29996e-05
-0.00160309
0.000871172
0.00323003
-0.00273362
-0.000477325
0.00247161
-0.00227996
0.000994405
0.000470285
-0.00140155
0.000319221
-0.000688025
-0.00146523
-0.000362951
-0.00270941
0.00213379
-0.00076275
0.000458262
0.000304889
-0.00356731
0.00132743
0.00228094
-0.00246824
0.00336833
0.000154672
0.000846381
-0.000996725
-0.000771718
-0.00127617
-0.00179666
0.000913592
0.000899949
-0.000891918
0.0023716
-0.00281323
-0.000211493
-0.00113534
-0.000660866
0.00178325
0.00146283
-0.00114771
-0.000968989
0.00214946
-0.000698323
-0.000309679
0.00101017
-5.46561e-05
0.000211213
-0.000150036
0.00276803
-0.000140448
-4.95224e-05
0.00064629
-0.000588581
-0.00042004
-0.000309911
-0.000290404
0.000993773
-0.000698921
0.000165977
0.000798035
-0.000857132
0.00166457
-0.000793229
-0.00102832
0.00046736
0.000622991
-0.000114498
-0.000765558
-0.00330258
0.00207528
0.00124412
-5.31279e-05
-7.07199e-06
8.22244e-05
9.31093e-05
0.00193142
-0.00198863
0.000811528
-0.00109608
-0.000882431
-0.00143869
-0.00134708
0.00196228
-0.000589473
-0.000417001
-0.000981027
-0.00254185
0.00141582
-0.00252692
0.000675877
0.00023355
-0.000731807
-0.000651483
0.000583357
-0.00125143
0.000666341
-0.00354933
0.00119518
0.00237279
-0.000341061
-0.000421223
-0.00173748
0.000699663
0.00103806
0.000424744
0.00181897
-0.00051545
-0.000588142
0.00168288
0.000424051
0.00209175
-0.0025021
0.00365038
-0.00147323
-0.00216544
0.00137397
-0.000343286
-0.00102337
-0.000719747
0.0029452
-0.000408973
-0.00251569
0.00234477
-0.00331603
0.000972404
-0.000838991
0.000416559
0.000423506
-0.000338184
6.13938e-06
0.000459227
-0.000777663
0.000324817
0.000842161
-0.000376635
0.00116042
-0.00198372
0.000824958
-0.00201665
0.000695804
0.00211124
0.00154707
0.000697241
-0.000188759
0.000315935
0.00213187
0.00327305
-0.000927037
-0.00185406
0.00198369
-0.000364716
-0.000601895
2.39014e-05
-3.29692e-06
9.38812e-05
-1.82897e-05
0.00227983
-0.000566844
-0.00165435
-0.000434129
-0.000403844
-0.000145626
0.00145657
-0.00130917
0.00209922
0.000136204
-0.00218507
-0.000629276
-0.00115124
1.65663e-05
0.000195816
-0.000205705
0.000249815
0.0022226
0.000206838
0.00251049
-0.00270064
-0.0035142
0.000328203
0.000643234
-0.00123816
0.00226654
-0.000118963
0.00104079
0.00285349
0.00247454
-0.00181271
-0.000638905
-0.00259181
-0.00092082
-0.00324077
0.00116944
0.00213463
9.4612e-05
-4.92401e-06
0.00349212
-0.00261256
-0.00086391
-0.000211311
0.000852067
-0.000639489
-9.96108e-05
-0.00199893
0.000862691
0.00279153
0.000321093
0.00105973
0.00034734
0.000736019
-0.000422725
0.000812121
-0.000384952
-0.000842286
0.000424508
-0.00312202
0.00180579
0.00133185
-0.000449626
0.00126259
-0.000746702
0.00021048
2.6899e-05
-0.000161947
-0.00101935
-0.00251043
-0.00151714
0.000671321
-0.000658086
0.00146293
-0.000782303
-0.000789952
0.00158984
-0.00049009
-0.000307878
0.000638344
-0.000959117
0.000321313
0.000176988
-0.000155425
0.0010897
-8.78778e-05
0.0012249
-0.000466456
-2.6053e-05
0.000492554
-0.00286344
0.0018981
0.000445636
-0.00130306
0.000940457
0.00256656
0.000883219
0.00161439
9.65505e-05
1.80205e-05
-7.71573e-05
-0.000993594
-0.000743403
-0.000798234
-0.000256658
0.00109538
-0.0024971
0.00119698
-0.00108047
-0.00202365
2.49912e-05
0.00133534
-0.00132602
-6.74627e-06
-0.00192887
0.00120396
-0.000199338
0.000177513
0.000661803
-0.00156421
0.00271417
-0.00341586
0.000713727
0.00079552
-0.000918119
0.000122745
0.00260768
-0.00367533
0.00109003
0.000570983
-0.00247409
0.00336444
-0.000875394
0.00190993
-0.00157754
0.000625233
-0.00281832
0.00222151
-0.000850512
0.00201318
-0.000604647
-0.00207647
-0.000697136
0.000478482
-0.000105185
6.66241e-05
-0.000635025
-0.00124498
-5.61739e-05
9.93432e-06
-0.000821119
-0.00104623
0.00187002
-0.00198826
0.000637263
0.00135168
0.00108874
0.000807274
-0.00188761
-0.00331661
0.000856538
0.000681398
0.00145704
-0.0022046
-0.00333605
-0.00029114
0.00126576
-0.000894623
-0.00110045
-0.00207633
1.94034e-05
0.00189515
-3.26965e-06
-1.66831e-05
2.73649e-05
0.00088711
-0.00224075
0.00135563
0.00210394
-0.000290729
-0.00180913
0.00248982
-0.00121454
-0.00126523
0.000354693
-0.000716067
0.000361543
-0.00112607
0.00239562
0.000149442
-0.000548769
0.000402942
0.000391605
0.00171439
-0.000992363
-0.000244337
1.37125e-05
1.36922e-06
-0.00142451
-0.00075949
0.00220391
0.00180308
-3.47819e-05
0.00100499
-0.000709714
-0.000145347
0.000897187
0.000570924
-0.00240787
0.00187408
-0.000401889
-0.0016768
2.9611e-05
-0.00373521
0.00142872
0.0023254
-0.000954696
-0.00129149
0.00224652
-3.5683e-05
0.000104322
-0.000399252
0.00236484
-0.000440608
-0.000390921
0.000830669
0.00337206
-0.000364541
-2.72814e-05
-1.45216e-05
0.00121792
0.00145764
0.000710974
-0.00109708
0.00259304
0.00124561
-0.000881115
-0.000316656
-0.00343661
0.00303419
0.000419634
0.00294015
-0.00247699
-0.000432023
-4.02428e-05
0.0012197
-0.00232275
-0.00131215
0.000616616
0.00143557
0.000719563
-0.000649841
-0.00103116
0.00169749
0.000738161
-0.00032674
0.00327756
-0.000297133
-0.0029653
0.000163744
-0.000627218
0.00046809
4.96587e-05
2.69187e-05
-0.000484634
0.00265365
-0.00212352
-3.86842e-05
0.000135514
-2.86525e-05
0.00339674
-0.00100945
-0.00238343
0.00230218
-0.0022682
5.19254e-06
0.00255414
0.000879706
-0.00158413
0.000227678
0.000131513
6.886e-07
-0.00134616
0.000781452
0.000565154
0.000644305
-0.00028947
-0.00164479
0.00153048
0.000166008
-6.63964e-05
0.00336026
-0.00197619
0.00262814
-0.00204577
0.00189937
-0.000378159
0.00107821
0.001572
-0.00194223
-0.00126731
0.00112344
0.00321134
-0.00198199
0.00076739
-0.00187183
0.00111395
-0.00138882
0.00155808
-0.000135512
0.000319976
-0.00074391
0.000423556
8.4265e-05
-2.7715e-05
-4.86613e-05
-0.000678725
-2.57976e-06
0.00147676
0.00139517
-0.00286395
0.000173319
-0.000131858
0.00325987
-0.00330984
0.000461406
-0.00117589
0.000713616
-0.000659179
0.00228327
-0.000784544
-0.000245926
0.00102952
-0.000141962
0.000424191
0.0020263
0.00104853
-0.00307374
0.000121069
-0.000301711
0.00105343
-0.000286899
-0.000701767
0.000448104
-0.00150231
0.00111938
-0.000105574
0.0011989
-0.00106694
-0.000135233
-0.000331216
0.000640349
0.000987939
-0.00161613
-0.000416395
0.00124596
-0.000823343
-0.000424599
-0.000738802
0.00116724
-0.00336595
3.59445e-05
4.51446e-06
0.000986042
-0.00148343
0.000498469
-0.000621633
-0.00136452
0.0024067
-0.00168309
0.00178319
-0.000522122
-0.000648375
-0.001392
-0.00220584
-0.000998484
-0.000473142
-0.000426369
0.000164322
-0.000203978
0.000140165
-0.000491801
0.000811048
-0.00109357
0.000859281
0.000499889
0.00249619
0.00253832
0.000733655
-0.000803323
-0.00232349
-0.000426093
0.000579252
0.00299547
-0.00362429
0.00165673
0.000598983
0.000902352
-0.00204895
0.00114839
-0.000346298
0.00306845
-0.00125086
0.00215449
0.000828331
-0.00106205
0.000236153
3.50718e-05
5.76474e-05
-0.000594191
-0.000973048
0.000681876
-0.000350113
-0.000331467
-0.000540237
0.00257341
0.00173919
-0.00170355
4.38687e-05
-0.00174489
-0.000554808
0.00208684
-0.00224667
0.000211058
-0.00178692
0.00072589
0.00270217
-0.00340654
0.000719209
-0.00325391
0.00122782
0.00128493
-0.00223929
-0.000398227
-6.96579e-05
0.000536642
-0.000871225
0.000429763
0.000822028
-0.000478066
-0.000343404
-0.000836849
-0.00243371
0.00328093
-0.00211863
0.00149868
0.00113351
1.46001e-05
9.23696e-06
-2.33306e-05
0.00118868
4.97658e-05
-7.03227e-05
2.01514e-05
-0.000413361
0.00140071
-0.000616483
0.00195938
-0.000591286
-0.000552563
0.00114936
-0.00101798
0.000174693
0.000846752
-0.000135824
0.000109857
-0.00262457
-0.000691913
0.00332994
0.00320981
-0.000924585
-0.00228415
-0.000790206
-0.00119056
0.000484214
0.00106592
-0.00153972
-0.000438345
0.000303127
-0.000904872
0.000602301
0.000304262
0.002041
0.00129546
-0.00123827
-0.00144375
-0.00140057
0.00284569
0.000795981
0.000454314
-0.00115684
0.00070787
-0.00151022
0.000742055
-0.00109719
0.00348236
2.58389e-05
0.00196334
-0.00197723
9.39574e-05
-0.00115981
-2.301e-05
-0.000108392
0.00208707
-0.00259644
-7.3745e-05
5.91358e-05
0.00111749
-0.000819269
-0.00020929
7.33555e-05
0.00075687
0.00102483
-0.00201304
-0.00128644
-0.000107622
8.85421e-05
-0.00103907
-0.000960331
0.00140539
-0.0021093
-0.000475337
0.00140478
-0.000867224
-0.00014058
-2.37388e-05
0.000193882
0.000610229
-0.000369699
-4.17598e-05
0.000671158
-0.000880855
0.00141892
-0.00208122
0.00219903
0.00124273
-0.00038472
-0.00106741
0.00309478
0.00170557
-0.00104947
-0.000639909
0.000351979
0.000329818
0.000214819
0.000527641
0.00240234
0.000559755
0.00186905
-0.000651377
1.84625e-05
-3.67582e-06
0.000553994
0.00140785
-0.00282914
0.00144008
0.00129912
-0.000753961
-0.000542857
-0.00227
-0.00104341
-0.00122538
0.000640154
-0.00114408
0.00211797
-0.000953794
-0.00161653
0.000597865
0.00106926
0.000931089
0.00194411
-0.00285539
-0.00226467
0.000713647
0.00157144
-0.00100471
0.00021931
-0.000677343
-0.000912083
0.00159911
-0.00136825
-0.000151093
-0.00240575
0.00361967
-0.000848029
0.000182386
0.00220562
-0.000637333
-0.0015485
-0.000487983
0.00158275
-0.000147135
-0.00144447
-0.00291234
0.00187143
0.00249934
-0.0022779
-0.00212676
0.000389725
0.00177129
-0.000808145
0.00114579
-0.0019638
-0.00132125
-0.00034916
0.000793045
-0.00291951
0.00214546
0.00107426
-0.00061526
-0.000559533
-0.00100722
-0.0034952
0.00136056
0.00214369
-0.00145374
0.00107929
0.000162342
-0.00333858
0.000666198
2.17362e-05
-0.0001106
0.000139503
-0.000695769
0.000412226
-0.00282752
0.000130623
0.00272546
0.00076415
-0.000418726
-0.000474014
-0.000301766
0.000776404
-0.00112168
0.000670121
0.000450041
0.0028241
-0.00160398
-0.000976894
0.000217324
-0.000410109
3.31458e-05
4.83411e-06
0.00129144
-0.00011073
-0.00109568
-6.07328e-05
4.02858e-05
0.001059
0.000146175
2.06947e-06
-1.52698e-05
1.32839e-05
0.00361241
-0.000984963
-0.00260654
-0.000811952
-1.79128e-05
-8.60504e-05
0.00117687
-0.00201053
0.000834003
0.00267916
0.00167741
-0.000499796
-0.00203849
0.000506186
0.00158497
-3.60555e-05
1.43747e-05
2.6678e-05
3.82055e-05
-5.97702e-05
3.67949e-05
-0.00213614
0.00155415
-0.0016058
0.000814888
0.000789827
-0.00122833
-9.65921e-05
0.00133341
0.00189248
3.55159e-05
-1.52029e-06
-7.57481e-05
0.000125891
0.000390748
-0.000275213
-4.41805e-05
-0.00250155
0.000660884
0.00187478
-0.00088031
-0.000392166
0.00127662
0.00109174
0.000938773
-0.00203042
-0.00162866
-0.000464036
-9.46677e-05
8.03973e-05
0.000978157
-0.00105905
0.000231432
-0.0026814
0.00144439
0.000936418
-0.00237776
-0.000308189
0.000738306
-0.000429743
0.00262676
-0.000762448
-0.000485887
0.00124782
-0.00209646
0.00314637
-0.000845077
-0.00200593
0.000914988
-0.00132378
-0.000138831
0.000625986
0.00182153
-0.00196164
-0.0019203
0.00173529
-0.00253355
0.000244893
-0.00146185
-0.000737631
-0.00067935
-0.0014857
-0.00334477
1.92174e-05
-1.49637e-05
-0.00106594
0.00121988
-0.000348264
-0.000367578
-0.00178482
0.000475364
0.00133913
-0.00029868
0.00279601
-0.00247032
0.00242505
-0.00351029
0.000302346
0.000814307
-0.000725914
0.00357851
-0.000249107
0.000881087
-0.00169725
0.0008166
-0.00168967
0.00102304
0.000849269
-0.00159915
0.000792044
2.46261e-05
-5.74018e-05
-0.000491837
-0.00149263
-0.000704815
-0.000640678
-0.000185282
-0.000828856
0.000740239
0.00270205
-0.000761822
0.00028816
-0.0013059
0.00039678
0.000946561
0.000114516
-4.49358e-05
-1.2746e-05
-6.1556e-05
0.00205526
-0.00312213
-0.000451183
0.000961421
-0.000508327
-0.000375215
0.00288353
-0.00248416
0.000814961
-0.00304907
0.00226809
0.000629009
-0.000460426
-0.00215255
0.00193331
0.000249888
-2.84794e-05
7.93616e-05
0.000490158
-0.000965858
0.000474059
0.00331836
2.27001e-05
0.00053413
0.000250885
-0.000783345
0.000124941
-0.00203868
0.000445591
-0.000670613
0.000423462
0.000247189
-0.000684188
2.65508e-05
0.000657728
-0.00108408
7.77899e-05
-0.00149421
-0.000748299
-0.000295452
-0.000486702
0.000783496
0.00180143
-0.000174396
-0.000517685
0.00234112
-0.00102783
-0.00130772
0.00125735
0.00124189
0.00278672
-0.000637911
-0.00212239
-0.000652849
0.000643782
-0.00203555
0.00140442
0.0004661
0.00149481
-0.00194464
-0.000942437
0.000595942
0.000181657
-0.00010923
5.11784e-05
0.000342719
0.00262897
-0.00142522
0.000912158
0.000877532
-0.000388586
0.00110157
-0.00269268
0.00160803
-0.00118229
0.00113871
-0.0031379
0.000453977
0.000176425
-0.0010698
0.000162607
-0.000139193
0.00037274
-0.000138107
0.00246678
-3.5219e-05
-1.88672e-05
0.00254705
-0.00183163
-0.00065693
7.36003e-05
-0.00046755
0.000508654
0.000722637
0.000125867
0.000591453
0.000114461
-0.000143293
3.62395e-05
0.00322502
-0.000779954
-0.00243843
7.35208e-06
0.00132123
-0.000271485
-0.000398937
1.63911e-05
-1.73469e-05
1.05051e-05
-0.000736401
-0.00164452
0.00240299
-0.00105045
0.00110315
-4.4523e-05
0.00237089
-0.000923741
0.00146562
-0.000197005
-0.00126633
-0.000428129
0.000379156
0.000117391
-0.00374462
0.000403455
-0.00149517
0.000732547
0.00201364
-0.000593097
0.00104336
-0.000448711
0.000248738
-0.00130181
0.000399115
0.000891374
0.000692562
0.00105581
-0.00173883
-0.000565541
0.000397842
-0.00277715
-0.000956307
-0.00266115
0.000403223
0.00228436
6.23602e-05
-7.56829e-05
-0.00172455
0.00100609
-0.00237722
0.00137894
0.00268635
-3.9641e-05
-0.00263709
-0.00269896
-1.0265e-05
-0.00100653
0.00170876
-0.000120481
0.000369052
0.00157256
-0.0022875
0.0011156
-0.000976608
0.000674574
0.00132131
-0.00199357
-0.00184518
0.00109959
0.0010275
-0.00168022
-0.000318419
-0.0010685
0.00125825
-0.000233718
-0.00101732
-0.000679914
-0.00310556
0.0027577
-0.000374783
0.00163552
-0.00126129
-0.00123963
0.000819276
-0.00140729
0.00145124
0.000649063
-0.00110294
0.000451619
-0.000946834
-0.00253899
0.000589736
0.000862175
-0.00145277
0.00176881
-0.000886802
-0.00113984
0.000615395
0.000527001
-0.000229377
0.00120352
-0.000970702
0.00141223
-0.00275773
0.00136198
-0.000977694
0.0024258
-0.00342614
-0.000981945
0.000446001
-0.000492545
0.000703102
-0.0024306
0.00176518
4.44566e-05
4.36455e-05
-5.50548e-05
0.00170628
-0.000573688
5.61641e-05
5.24466e-07
-5.63097e-05
-0.00014365
-3.49953e-05
0.000185518
-0.000404408
-0.000325561
0.000730186
-0.000955579
-0.000312487
0.00219342
0.000102688
-0.00224036
0.000485443
0.000569321
-0.000770955
0.000201801
0.000789269
7.52642e-06
0.000312875
0.00104678
0.000350225
-0.000656771
-0.000183165
-0.000500936
0.000140078
-0.00101683
-0.000459548
-0.000692374
0.00307837
-0.00242903
-0.000626198
-0.000677265
-0.000575493
-0.00187518
0.00108767
-0.000825406
-0.000781109
-0.00166943
0.00118922
0.00107075
-0.00168321
0.00201575
-0.00146882
0.000114037
0.0030633
-0.000494136
0.00119129
-0.000314272
-0.000868277
-0.000287621
0.000261559
-0.00179051
0.0027453
-0.00184821
0.000523099
-0.000913504
0.00138464
-0.000795814
0.00048751
0.000335124
0.00154369
-0.00154096
4.12376e-05
-0.000540202
0.00163376
-0.00107705
0.00086869
-0.00128221
0.00275455
0.00239399
-0.00266602
-0.000199613
-0.00130153
0.00150121
8.74766e-05
3.36955e-05
0.000378114
-0.000634363
0.000256191
2.2696e-05
-0.000159424
0.000265967
-0.0013085
-0.00175087
-9.98719e-05
0.0019078
-0.00164212
0.00225897
-0.000611817
0.000210349
0.00115251
-0.00167464
0.000610854
-0.00169146
0.000381746
0.00132413
0.00254723
0.000500933
0.000113961
8.29966e-05
0.00154024
0.00240684
-0.00103455
0.00326508
-0.00222117
0.000564214
-0.00281789
0.0022855
0.000588539
-1.89505e-05
-0.000508438
-0.000123291
-0.000171785
-0.00109417
0.00073504
-0.00256912
0.00187494
-4.1688e-05
0.000611362
0.000513082
-0.000731941
0.00046076
0.000986615
-0.00121261
-0.00343811
0.00166528
0.00296988
-0.000987455
-0.00194129
0.000782888
-0.000247259
0.000234738
-3.51717e-05
-0.00308328
-7.27549e-05
0.000676316
-0.000407209
-0.000268971
0.00158097
0.000572009
-0.00209697
-0.00162254
0.00136653
0.000277608
0.000890818
-0.000788254
0.00219694
-0.000804732
0.00179096
-0.000986503
-0.00177696
-0.000408038
0.00222559
0.000196567
4.90183e-05
-0.00295469
0.00157097
0.00138351
0.000736577
-0.000349606
-0.000588449
0.0016637
-0.000430991
-0.00220512
-0.000587955
0.00290961
-0.00229789
-0.00124728
0.00107669
0.000386722
0.000545801
-0.000933765
0.00137332
-0.000106353
-2.75755e-05
0.000149875
0.00243263
-0.00100504
0.000316999
0.000820645
-0.00107039
0.000121929
0.000208669
0.000889856
-4.15449e-05
-6.8949e-05
2.58949e-05
-0.000903718
-0.00121068
0.00211645
0.00190589
-0.00188175
4.43952e-05
0.00220138
0.00230631
0.00115233
-0.00262078
9.57438e-05
0.000536998
-0.000632501
-0.000613095
0.00107345
-0.00241882
0.00101746
-0.00138085
0.00100594
-0.00187735
0.000184372
0.00152616
-0.00226479
-0.00257613
0.00162753
-0.000818237
0.00120314
0.00301423
-0.000603915
-0.00236134
0.00234831
-0.0022483
0.000334797
-0.000640349
0.000305449
0.00148428
9.37321e-05
0.00162724
-0.00137122
-2.99502e-05
0.00161715
-0.00238822
5.47609e-05
0.000691156
-0.000223387
-0.000467675
0.000343622
-0.000123339
-0.00280518
0.00136247
0.0021277
0.000567133
0.0010569
-0.000204467
-0.000848323
-0.000923346
0.00203981
-0.000876727
0.00231781
-0.00142432
0.000414096
0.00134142
-0.00195653
0.000640812
-0.0033344
0.00162264
0.00343984
-0.000740769
-0.00269524
-0.000356366
-0.000399636
0.00075601
0.00177815
0.000540517
-0.00230485
-0.000118944
-0.000576764
-0.00272223
-0.000500658
-0.00117574
-0.00116564
0.000829798
-0.000260153
-0.000110285
0.00150587
-0.00178074
0.00027426
0.00147463
-0.00191248
0.00213948
-0.00146985
0.000812524
0.000754875
-0.000228879
-0.000515428
0.000225794
0.00141975
0.000349664
0.00150287
0.000752943
0.00139729
-0.000300388
0.000698285
6.48253e-05
-2.9718e-05
-3.395e-05
-0.000210501
-0.00167432
-0.000412626
-0.000527718
-0.00151156
0.0021376
0.00121384
-0.00106992
-0.000510135
0.000896039
-0.00136888
0.00292176
-0.00154232
-0.000884427
-0.000812071
-9.91325e-05
-0.000161347
0.000112471
0.000719521
-6.56731e-05
-0.000245707
0.00238257
-0.000766084
0.00113719
0.000391584
-0.00151941
0.00113246
-0.00106469
-4.82627e-05
0.00147029
0.000247446
-0.00168131
0.00298849
-0.00214139
-4.60696e-05
1.63395e-05
-0.000326663
-0.000994028
0.00208575
0.00235269
-0.000704114
0.0011507
-0.0011929
0.000342217
0.000854431
0.000411885
0.00161118
-0.0027691
0.00205391
0.000719069
-0.00206248
0.000935385
-0.00202321
0.00136736
-0.000358011
-0.00100905
0.00253106
0.000735524
-0.00325592
-0.000925984
-0.00118699
0.00211516
-0.000639752
0.000844433
-0.000617232
-0.000228187
0.00130607
-0.00209116
-0.000385407
0.000921842
-0.000536216
0.000579567
-0.000609055
7.60133e-05
-0.00131593
0.00105703
-0.00202962
-0.000642241
-0.00186321
-0.000262214
2.30343e-05
4.32596e-05
0.000873575
0.000416036
-0.00125244
-0.000236232
0.0016554
-0.00141792
0.00242686
-0.00336447
0.000837379
-0.000465217
-0.00128839
0.00154046
-0.00170944
0.000230439
-0.00239463
-0.000885418
-0.00164759
0.00241878
-0.00130147
-0.000157725
-0.00108771
-0.00228773
0.00337318
-0.00108227
0.00145577
-0.000561651
-0.000890146
0.00147784
0.000369176
-0.00184666
-3.79172e-05
0.000112046
0.00251756
-0.000320574
-0.00214362
0.00142311
-0.00308121
0.00166628
-0.00341864
0.00313722
0.000234811
-0.00132907
0.00110871
0.000704294
-4.90213e-05
0.0018405
6.87393e-06
0.00114503
0.0023025
-0.00286645
0.00226984
-0.001106
-0.00116389
0.00168275
-0.000179604
-0.000514969
-0.000402546
-0.000588925
-0.000482767
0.00107556
-0.00316927
8.60769e-05
-0.000596495
-0.000654213
0.00125528
0.00014176
2.35845e-05
-8.09591e-05
0.00046256
-0.000372195
-0.00331348
0.00238289
0.000970561
0.000738025
-0.000978351
0.000240535
0.00228566
-0.00135512
-0.000926688
-6.32945e-05
0.000685932
3.58434e-05
3.8862e-05
-0.00176051
0.00132739
0.00115951
0.000459848
-2.99417e-05
0.000244671
-0.000206435
-0.000431627
-0.00129523
0.000612509
0.00142684
-0.000453665
-0.0013104
0.00178104
-0.000979336
0.000530027
0.00335648
-0.00122544
-0.00249028
0.000659113
-0.000465269
0.000902029
0.000297323
0.000852993
-0.00157906
0.000727703
0.00119405
6.10393e-05
-0.000340366
-0.000828287
-0.00106863
0.00189816
0.000877392
-0.0012852
0.00041433
-5.2559e-05
0.000343624
-0.000282125
-0.000270522
0.00119691
0.000480638
0.00131812
-4.34546e-05
5.40592e-05
-0.00249839
-0.000774199
0.000411187
0.000309216
-0.000720064
0.00126771
-0.000450183
0.00201497
-0.00137692
0.00122916
0.000459539
-0.00143109
0.00164369
-0.000145895
-9.66633e-06
1.64847e-05
0.00100653
-0.00310815
0.00214497
-0.00203268
-0.000731174
0.000851868
-0.00352337
0.00267632
-1.80138e-05
-2.0946e-05
0.00116727