/*--------------------------------*- C++ -*----------------------------------*\
| =========                 |                                                 |
| \\      /  F ield         | OpenFOAM: The Open Source CFD Toolbox           |
|  \\    /   O peration     | Version:  v2012                                 |
|   \\  /    A nd           | Website:  www.openfoam.com                      |
|    \\/     M anipulation  |                                                 |
\*---------------------------------------------------------------------------*/
FoamFile
{
    version     2.0;
    format      ascii;
    class       volScalarField;
    location    "50";
    object      omega;
}
// * * * * * * * * * * * * * * * * * * * * * * * * * * * * * * * * * * * * * //

dimensions      [0 0 -1 0 0 0 0];


internalField   nonuniform List<scalar> 
13851
(
0.0219035
1.08363
0.0536794
0.0217993
0.0534972
0.611327
0.0214512
0.0316688
0.0207916
0.0677753
0.224828
2.21992
0.184955
2.533
0.0213602
0.0258064
0.0224714
0.0252866
0.177444
0.0207349
0.0217255
0.0517543
0.024073
0.0243889
0.0247471
0.0320871
0.0222856
8.43168
0.0217941
0.0222551
0.760149
0.0225834
0.05083
0.553929
0.0237044
0.112239
0.200294
0.128768
0.0782399
0.53573
0.021074
0.0209988
5.06774
0.220599
0.217916
5.00395
0.175527
0.564038
0.0223717
0.571428
0.0491036
0.0881812
3.58302
0.0214169
0.0219187
0.0209714
0.022938
2.02484
0.0221509
0.0214316
0.13231
2.44301
0.670122
0.0617594
0.138544
0.0228192
0.24643
0.142772
0.0261932
0.0250821
7.7104
0.241286
1.08206
0.021482
0.0209796
0.0208848
0.0494782
5.56476
0.0325528
6.97498
0.0214711
0.0226662
0.021256
4.30122
0.762604
2.42972
0.507524
0.40132
0.0226797
0.0219667
0.112416
0.166778
0.129204
0.0235352
0.0226002
0.0261375
0.0546522
2.76242
0.54475
0.0267063
2.65434
0.0346449
0.0214016
0.0222533
0.0222038
0.768351
0.0380816
0.020797
0.297844
0.45978
0.0271011
0.022159
0.0793541
0.0278592
0.0263405
0.627587
2.68487
0.021033
0.0231522
0.0224004
5.59882
0.0221989
0.191671
0.649886
0.632556
0.0224046
0.512232
0.0336214
0.0216824
0.0896528
0.0210674
0.0207159
6.39403
0.0212637
0.669422
0.0208362
0.0210653
0.236592
3.44987
1.78975
2.66929
0.0218315
0.0221622
0.0212591
0.0218762
0.216461
0.0214699
0.0913867
0.0214443
0.220116
0.0511953
0.0219994
2.52733
0.0228152
0.021788
0.0218376
0.0208743
0.0217863
0.0879103
0.0482767
0.0208394
0.0235964
2.08215
0.0207058
0.024125
0.021087
0.0215953
0.0264273
0.0216194
4.0596
6.54448
0.0205946
0.020884
1.79721
0.0207016
0.664436
0.0326955
0.0222685
0.186388
0.0208349
0.0228667
0.235535
0.0212734
0.0559348
0.0207366
0.0249704
0.0228552
0.0214158
0.0605424
0.0664326
0.161461
2.8105
0.0223675
0.0261734
2.40725
0.0217302
0.0219245
0.499494
0.0220672
0.0208681
0.0223599
8.10881
0.0248143
0.0211438
0.0499358
0.0212777
3.20192
0.0225283
3.29386
0.0208902
2.86079
0.0213673
0.478494
0.0207748
0.021226
0.0973991
0.463174
4.4551
0.0213094
3.26409
0.0225887
0.0214874
2.57874
0.0859298
3.29265
0.0252931
0.0243013
0.0225702
2.32601
0.0208209
0.0312459
1.21009
0.0205993
0.0222133
0.0439616
0.0445356
3.25365
0.141629
0.0212718
0.0211531
0.807029
0.548451
0.0210497
0.0546178
0.0215831
3.33575
0.0354261
0.499858
0.0218696
0.0228411
0.0292845
0.549845
0.0214172
0.0219086
0.0357374
1.35084
0.0634543
0.234454
24.3549
0.0213772
0.0211997
0.0241757
0.900415
0.0224781
0.195605
0.021724
0.0214091
0.0233394
2.3307
0.0288579
0.0284188
0.0217816
0.789647
0.0311948
0.0255158
0.0207205
0.022538
0.0256584
3.36621
0.20987
0.0210403
0.0209116
0.0220491
0.0343822
0.921736
0.696257
0.0207308
0.0214098
0.850437
0.0225845
0.102022
0.0220056
0.0214285
0.0272783
0.0226958
0.192538
0.0237096
2.52033
0.0207319
3.30321
0.0234394
0.0224189
3.26835
0.0212332
0.730705
3.00665
0.020725
0.0305951
0.0235805
0.0219161
3.64952
0.0238184
0.0213862
2.66069
0.0210351
0.0229313
0.0222691
3.18899
0.0807224
0.0213086
0.0357087
0.0213438
10.7933
0.0299876
0.0240639
0.0209663
0.0790084
0.0240326
0.0217691
0.0214146
0.0212269
0.0213699
0.227634
2.70304
3.29325
0.0289492
3.11887
0.930387
0.0213332
0.0264467
0.102994
0.381908
0.0691116
0.0770652
0.18427
0.0244385
0.903395
3.12608
0.0213693
0.0313541
0.0311129
0.236992
0.0217672
0.0570152
2.26382
0.0208962
0.884979
0.0209586
0.021356
0.0213965
0.020784
0.0208563
3.04363
0.469946
0.0211881
0.029854
0.0210139
2.45141
0.0290963
0.579929
3.54761
0.0211878
0.70053
0.0236029
0.571892
0.021036
0.0210971
0.0315353
2.52519
0.0211827
3.54506
0.331617
0.0825686
9.46577
0.0775985
0.0779251
0.0248733
0.0207715
0.0216917
0.026926
0.0353532
2.38287
0.026466
3.16975
3.03628
0.0210431
0.021382
3.70404
5.26378
1.28319
2.63077
0.033429
0.023839
0.0267287
0.399848
0.020748
0.0254861
0.0248277
0.0214017
0.0223134
0.0207502
0.0210835
0.0598066
0.0555345
6.60827
0.0256273
0.0375371
0.0366985
0.550374
0.0232209
0.354639
0.0223258
0.0832258
0.0210031
0.0207534
0.0259915
0.168966
0.47735
0.0840427
0.033833
8.91895
0.578185
0.61611
0.0225515
0.0449436
0.0210309
0.553063
0.0223741
2.22492
0.529117
0.0474452
3.37596
0.0223585
0.0253099
0.513261
2.68494
0.0206888
0.0243774
0.033336
0.0305899
0.0206977
0.0213652
0.0482252
0.0822195
0.032076
2.0741
0.0252796
0.0209967
2.83539
0.0246723
0.020913
0.59841
0.0207644
0.021903
0.020813
0.0335729
0.0216351
0.0208927
0.0221922
2.46261
0.0212572
0.0274321
0.0207823
0.0594617
0.0355993
0.0274974
0.0210378
0.0279146
0.0284046
0.789967
0.0214103
0.641255
0.0212785
0.0255689
3.03399
3.48561
0.0212939
0.133864
0.0232906
0.550078
4.22783
0.0210073
0.46894
0.0210485
0.0536961
0.0214029
2.65252
0.0210016
4.22197
0.0650231
0.0210268
0.128912
2.89471
0.0319119
0.267446
0.0226137
0.694676
0.0221819
0.0206474
0.0207186
0.0214287
4.13355
0.0441087
0.0867685
0.185503
0.345212
0.0208533
0.888542
0.483831
0.0229248
0.0236653
0.541665
0.658409
2.63287
0.0218384
2.69888
5.32854
6.59153
0.024256
0.21897
0.532817
0.0258066
1.18723
0.487768
3.00383
0.0218613
2.85255
0.201297
0.0209541
0.0250463
0.0452774
4.2942
0.0219429
0.0211689
0.0208647
0.0210969
0.0590083
0.0354205
0.277165
2.05441
0.0208148
3.11912
3.24638
0.787391
0.484064
0.0271168
0.0208963
0.0207856
0.021894
1.11367
0.0218206
0.0602265
0.110433
0.0209484
0.0449784
0.626292
0.190642
0.0767651
4.05103
0.210266
0.0210546
0.0214122
1.02004
3.03839
0.0856174
0.026402
1.00862
0.0208268
0.0210429
2.06872
0.0209424
0.0219028
0.0208346
0.0207967
0.230588
0.0590176
0.029936
0.020918
3.4602
0.506243
0.0207588
0.0224826
0.0224358
0.0216338
2.47834
0.489123
0.4844
6.45448
0.700076
0.0256412
6.31896
3.44182
0.0253795
0.0263908
0.0209039
0.0222985
0.0262194
2.04786
0.915849
0.0594179
0.0239198
0.0207755
0.0258957
0.0227029
0.296434
0.0489466
0.0212754
0.0306365
0.0207189
0.0232611
0.0857937
0.021422
0.0210186
0.029075
0.0213592
0.0541624
0.154022
0.0816996
0.0263146
0.0888012
0.02078
1.2442
0.0297547
5.88067
0.0213466
0.0259738
0.294207
0.0219904
10.435
3.21574
3.75726
0.467429
0.0207584
0.238968
0.0210224
0.0207871
0.0209339
0.0208018
0.0210901
0.0265222
0.0320016
0.0208966
1.73526
0.0672126
1.80366
0.0208248
0.0208285
0.0226283
0.100852
2.3965
0.0365929
0.0233726
0.0210267
0.0258763
0.0216254
0.0208865
0.154739
1.88578
0.021352
0.0208661
0.0214391
0.020888
0.875123
2.39668
0.0260291
2.74948
0.687218
0.0210143
0.0857849
2.59437
0.0270358
2.19478
0.0214605
0.0244403
0.0359651
0.0246149
0.481101
0.0212893
0.575533
0.0224156
0.0249123
3.22538
0.0214214
0.0217219
0.910073
0.020659
0.0226955
0.898026
1.92293
0.047649
0.191804
0.120311
0.0207734
0.0208162
3.3295
0.107878
0.050352
3.16879
0.020947
0.0228852
0.0210234
0.688327
0.228787
0.0229572
0.0212437
0.0386414
0.0223176
0.0225289
3.19191
1.325
3.02958
0.0210095
0.0213534
5.6315
4.45758
0.10151
0.0224021
0.683476
0.0212727
0.0583815
0.102806
0.0506871
0.0225426
3.99794
0.0278934
0.0231911
0.195026
0.0259812
0.0246796
0.0216926
0.0208021
3.0249
0.0250726
0.0772292
0.0283952
0.0277678
0.0207439
0.877002
0.0229502
0.0265372
0.0210373
0.0209987
0.0211704
3.00447
0.0208641
0.0211374
0.677019
0.0214185
4.02
0.0229359
0.0220404
0.0474435
1.78233
0.490586
0.0211232
0.714133
2.66901
0.0214184
2.68758
0.0247791
0.0208133
0.570306
4.05732
0.711303
0.0229455
0.0208649
0.0208289
0.508949
0.0582988
0.0478732
0.0234883
0.573164
0.0216885
0.0220333
0.0597791
0.496484
0.0589216
0.911927
0.0213477
0.054364
0.0562422
3.04428
0.0228922
2.31192
0.177553
0.0214302
9.24199
1.17273
2.33686
1.97233
2.84554
0.385309
0.0288939
0.0208032
0.0260098
2.03944
5.41377
0.0209175
0.026017
0.0453789
0.0224804
0.0211521
3.3939
0.0208695
0.0212157
2.86715
5.59149
0.136022
0.0207759
0.0213709
3.57141
0.149936
0.0796094
0.0226502
2.68547
0.169219
2.2988
0.0374646
0.0294145
0.0213792
0.0214049
1.13246
0.0345918
6.18505
0.0340806
0.0262234
3.20582
2.43052
3.5187
0.0213247
0.024986
0.0207476
0.026459
0.02168
1.95487
0.0229306
3.4197
0.0211579
0.0464752
0.0210303
0.129973
0.0259135
0.0247986
2.76564
0.0307717
0.0361836
0.0252182
0.0463921
0.603493
1.14824
0.0219351
6.61753
0.0223207
1.99415
0.479643
0.0212968
3.02561
2.58717
3.72965
0.347137
0.031649
0.0209257
3.03289
0.0229511
0.558576
3.30673
0.0208351
0.0217855
0.155124
0.49409
1.94335
0.0213121
0.0216971
0.687183
3.25593
0.0769442
0.0227674
0.0219968
0.472272
3.0419
0.0581146
0.0211367
0.0291036
0.0206729
0.0235163
0.0420645
0.027301
1.3065
0.555145
0.0212139
0.0223627
0.020936
0.0217218
6.47627
2.87202
0.0242355
2.46975
0.0210329
0.0242218
0.0209059
0.0206847
0.0212271
0.0212019
4.13985
0.0212895
0.0359664
0.0213207
0.0230084
0.0463294
4.09687
0.0227801
1.16077
0.0493484
0.195877
0.0253568
0.0255439
8.43925
0.0232754
0.038996
1.96319
0.591615
3.53582
0.0288533
0.2262
0.0213073
0.0298454
0.0354448
2.0623
0.0216903
1.7932
0.0208058
0.020835
2.3668
0.0222509
0.195643
0.0226445
0.02073
0.0422498
0.0207441
0.021377
0.021007
0.0214442
0.163642
0.0208457
0.148254
2.84106
0.0438983
1.96581
0.0213989
0.0236414
0.0223225
0.0210961
0.02073
0.0537967
0.0215432
0.020749
0.0212642
0.024999
3.87968
1.9201
1.21266
2.73661
0.162731
0.0210314
0.474958
0.0238594
0.0208457
0.422923
0.799816
0.757029
0.0210149
0.195415
0.501281
2.37075
0.0206737
0.188578
0.0247682
0.0222185
0.0210098
0.0208229
3.0519
1.2632
0.790974
0.0213412
0.0212301
0.520039
0.0213066
1.15238
0.458823
0.231709
0.187543
0.440092
0.0254692
0.0211493
0.488523
0.0643065
0.0222312
0.112071
0.029711
0.0215562
0.0218471
1.9776
0.0207573
3.55832
0.198185
0.613779
0.12394
0.0218306
0.021653
0.0212008
0.276464
0.54463
0.0206545
0.02657
0.0213958
0.0524339
0.0211373
0.0213363
0.0214925
0.025678
0.222161
0.0395079
0.0299321
0.0212241
0.0362279
0.192667
0.021658
11.6534
0.249227
0.0545652
0.0210012
0.0312698
0.0211583
0.0241549
0.0211795
5.19361
0.0805311
0.477988
0.0222664
0.051592
0.0212097
0.0224196
0.0212192
0.491579
0.0679335
0.0208387
0.0254886
0.0648878
3.64349
0.027565
0.582498
0.0211073
3.23782
0.0538773
2.20509
0.0608156
0.0537576
0.174509
3.20577
0.42101
7.78961
0.0229489
0.179077
0.0211471
0.0219771
0.0230974
0.0213294
3.27025
0.0242182
0.0234826
0.436328
0.108609
0.782203
0.0213258
0.0220828
0.0231724
0.0219426
0.0275126
0.50745
0.660157
1.20288
0.0209329
0.0233183
0.0231591
0.624232
2.47871
0.483255
0.0216221
0.0215252
2.8858
0.0311227
3.08646
1.4846
0.333418
0.0210069
0.198935
0.0265087
0.0307401
0.0238689
2.81685
0.26554
0.0839598
0.679306
0.0214328
0.0299225
0.0212303
3.88565
0.0494445
3.31724
0.0397472
0.0230115
0.0965451
0.021699
2.71657
0.154182
0.0222043
0.165731
3.20043
0.185053
0.251818
0.0213671
0.0211555
6.17726
0.175111
2.79447
0.0220248
0.0214259
0.0212003
3.7963
0.0968999
0.0214321
0.788828
0.062449
3.22076
0.194994
0.653399
0.0213569
0.573085
0.0224438
0.021028
0.0941557
2.43756
0.0214486
0.0207957
5.09385
2.56388
0.0225191
0.0209179
1.76298
0.0218921
0.0218902
0.0209354
0.664373
0.0211447
0.0364965
1.21583
2.3577
0.0216527
4.36666
0.558191
2.03937
0.1949
3.13866
0.184152
0.0210886
0.233818
0.0272286
0.02134
0.0219109
0.75852
0.021003
0.190852
0.0208052
0.024226
5.09408
0.0447907
1.15378
0.0217392
0.0226268
0.0207166
0.0256649
0.227754
2.89183
0.0208077
0.0453042
0.39444
0.0211955
0.0209281
3.12256
0.0263827
0.0266683
0.0860765
1.83415
0.104736
0.229221
0.261908
0.165659
0.128314
0.524418
0.212842
0.0452566
0.0209883
0.0843357
0.0210741
0.0210382
1.87967
3.17198
0.0217996
2.48017
1.35336
3.8763
0.787831
0.790592
0.0210658
1.33002
0.474834
0.0222364
0.0216876
2.90679
2.9463
0.852156
2.42672
0.030149
3.45765
2.95381
0.0253936
0.0214312
0.0209143
0.0227089
0.0209424
0.156157
0.0217894
0.0215228
0.0218815
0.210894
2.91301
2.90712
0.0212591
0.200119
0.0227076
0.0252044
0.0209625
0.0221754
2.00367
0.0234339
3.45911
1.13433
0.800743
0.07727
0.0214379
0.0298594
0.0212406
0.0955134
0.0220632
0.0217124
0.0212294
0.0219112
0.102094
0.021555
0.0262371
0.0223615
0.0265104
0.139641
6.36321
0.0209039
0.0333337
0.0228775
1.11182
0.0227878
1.1709
0.208543
0.0253155
0.0221485
0.0218721
0.488511
0.0210599
0.0295823
0.0213943
0.0211186
0.0217988
2.7998
0.0232971
0.0225664
0.0516956
0.0238503
0.0440395
2.70411
0.196511
0.0270146
0.0212442
0.340222
0.0209764
0.0208982
0.122913
3.39567
0.022778
0.0258946
0.094599
0.207574
0.0214634
0.0215146
3.42716
0.0216652
0.555139
0.163818
2.65094
0.0211449
0.0228239
0.0211567
3.29326
0.0877847
0.0294077
0.0785872
3.08654
0.0216738
2.34976
3.05909
0.0211604
0.184272
0.0545734
0.0218224
1.98991
0.0213492
0.0209331
0.0207266
0.108275
0.452817
0.105307
0.0217136
0.021679
0.0247659
0.472952
0.183656
2.83763
0.364525
0.0215456
0.0884616
0.0909583
2.70892
0.0512626
0.0226667
0.0209528
0.0448649
0.0208616
1.06102
0.0299549
0.0211523
1.85666
0.195063
0.025321
0.235354
0.0208752
0.0235964
0.0358426
0.0260115
0.675276
0.0453182
0.0449441
0.0416207
0.0794796
2.76661
0.870677
2.90864
0.020906
0.020759
0.146166
3.60357
3.11835
0.763489
0.0233061
5.47873
0.38009
0.021315
0.0231478
0.0208264
0.0298191
0.0476392
0.0238287
2.74586
0.18069
0.0217123
2.28216
6.60953
0.0213583
0.0842506
3.39174
2.82612
0.0221533
0.0507668
0.0208382
0.0222358
0.0221188
0.0227094
3.10247
2.80365
2.3041
8.17608
0.0217604
0.0268735
0.037613
0.0224426
0.0214896
0.0208441
1.79779
0.0209106
2.47809
0.0289053
0.329334
0.103243
0.158905
4.98695
0.192593
0.0294004
0.0210524
0.0228978
0.191825
0.197118
0.0224878
0.020799
0.0212652
0.0427654
0.0245022
0.0966007
3.11352
0.0217713
0.020758
0.0815951
0.257551
7.17877
1.19068
0.0209249
0.0488952
0.0211413
3.3808
0.0211382
3.42956
0.0226045
0.0217457
0.0282341
0.0216376
0.959087
0.0244861
0.0327299
2.14173
2.90913
0.0226525
0.0243569
0.0210669
0.191988
2.49305
0.0218678
0.0212069
0.408662
0.0208851
4.04385
0.0228243
0.0337539
0.0473594
1.31432
0.0320837
0.021849
0.0214574
0.0477714
2.81979
0.0210841
0.747131
2.61076
1.28698
0.558563
0.0269376
3.69006
0.0228847
0.224805
0.0212158
0.32125
0.332082
3.16323
3.1276
2.69597
0.0222112
0.298421
0.0207861
9.22663
0.413546
2.91966
2.08644
0.0233728
2.96983
0.783831
0.0276261
0.0216453
0.0214117
3.53997
0.0228102
0.0475354
0.0264452
0.0212138
0.0206889
0.0212549
2.61221
0.156396
0.0248539
2.93442
0.194429
0.0223542
0.021224
0.0212329
0.0637329
3.42985
0.167044
0.0228453
0.0236736
0.0519151
0.0533388
0.0313041
4.72015
0.0245419
3.00979
0.024854
0.0264817
0.0212145
0.0266468
0.0476977
0.490246
0.267212
3.38454
0.0476698
3.53214
0.0242543
0.0223364
0.0246792
2.12869
3.89759
0.678899
0.794033
0.0220471
0.0212422
0.0209652
0.0213894
0.0208846
3.94641
0.0240999
3.56022
0.025766
2.10666
2.75054
3.27276
0.0468413
0.0229873
2.67775
0.0301603
0.380467
3.57469
0.0206388
0.499964
0.0233596
2.56058
3.5608
0.0270301
0.794742
0.511589
0.0232706
0.059156
0.0228217
4.70712
0.452867
0.0221862
0.021445
0.27272
0.743724
0.0862115
0.369795
0.0844184
0.0805486
0.0212893
2.65446
3.40331
0.0544165
0.0249955
2.58141
2.55853
0.0207954
0.0213207
0.0222706
2.8296
2.62352
0.0212808
4.46175
0.0215554
0.020924
0.0212332
9.39568
0.293394
0.591549
3.259
0.0217036
0.0216938
0.0209149
4.52495
0.0217123
4.1041
0.0221292
0.973766
0.0215149
0.0210694
0.0836726
4.00111
0.41707
0.0269199
0.748254
0.0209974
0.021306
0.0213238
0.0306252
0.0439758
0.0439699
0.0328441
1.75644
0.0223546
0.085689
1.06729
2.83325
0.0210077
3.54328
3.29849
0.0227313
0.680619
0.0448919
2.72626
0.0213379
0.0474724
0.0209518
0.745745
8.35597
0.0834068
2.93452
0.0219519
0.034218
0.0215308
4.12669
0.0210925
0.0208127
0.357169
0.06498
3.29985
0.225795
0.043994
0.023852
0.0207171
1.20582
0.027076
0.0222454
0.0989533
0.0210046
0.0306515
0.0212282
1.30293
0.0219893
0.196782
0.214503
0.0277527
1.34007
0.0371873
3.36741
0.021051
1.24979
2.1139
0.0207963
0.0212535
0.0217364
0.0215188
0.0283379
0.0210803
0.556968
0.0515943
0.0551799
1.08418
0.0211276
0.0214451
0.0211405
0.19376
0.0213118
0.0210696
0.150207
0.0222543
1.11314
2.79499
0.0594252
0.0222212
0.0257979
0.0216696
0.0215446
0.639438
0.0214176
0.0222919
2.26728
3.44615
0.193925
0.0216451
2.8657
0.359398
0.021537
0.0355659
1.99961
0.0212977
0.0220853
0.0212786
0.214383
3.50738
0.395482
0.0213746
0.0221885
0.0220988
0.0214332
0.0865289
0.0211888
0.441335
3.24067
2.77976
0.0206191
0.0222175
0.0221314
4.80046
0.0208715
3.20354
2.04443
0.483437
0.578434
3.18238
3.0734
0.0218907
0.471967
0.582179
0.0216922
0.020689
0.0208414
2.88092
2.84368
3.1384
0.0238999
3.07657
0.0213197
0.10709
0.0213414
0.0218629
0.0216518
0.0206185
3.88079
0.0217355
1.78439
2.53146
3.16024
0.0318396
0.0362295
3.4572
2.78734
0.0217194
4.45043
0.021137
0.0210886
0.0212252
0.0239777
0.0221076
2.20382
0.0261312
0.250718
0.033548
2.08944
2.61153
0.0901474
0.0206256
0.0384907
0.0521078
3.80543
0.0210243
0.0207858
0.022131
1.98808
0.0211835
0.0903942
2.16856
0.0297551
0.0407961
0.0210306
0.529208
0.0214502
3.45425
0.0207024
3.28193
0.025251
0.0213429
2.20293
3.03195
0.0211507
0.0450424
0.0223887
3.03709
0.557219
0.122233
0.198662
0.0214253
0.0393339
2.66252
0.022525
0.0237116
0.0219327
0.0520919
0.0256404
1.99727
3.09656
0.021336
3.58231
0.021634
0.0308151
2.26715
2.21743
0.0302156
3.17287
0.184184
0.0214561
0.11857
0.0855506
0.024977
0.0217051
1.97183
0.0211445
2.27188
0.103502
0.0807986
0.0213176
0.0283017
3.36082
0.031163
2.21704
0.021545
0.0221126
0.881493
1.76475
0.0231296
2.93852
0.893124
2.28455
0.0212241
1.3385
0.217116
4.395
0.0213438
0.0225741
0.0210264
3.00984
0.349501
0.530816
0.497299
0.0214143
0.0215994
0.0213146
4.3025
0.239792
2.73009
2.78098
0.0209143
2.71716
2.36937
0.0873879
2.75624
3.237
0.031206
2.25221
0.0220247
0.0229811
0.230477
0.212384
0.0226392
2.57414
0.0212169
0.0212948
3.14253
3.14462
1.96508
9.9225
0.0250361
0.0214313
0.0223507
2.0533
2.98133
0.0211029
0.0327944
0.667189
0.0213353
0.0212789
1.22928
4.23623
0.0217952
0.0213833
0.0216644
0.0215798
0.357289
0.0215076
0.0209772
0.022901
0.131177
4.26763
0.761035
2.38054
0.0213354
0.0225209
3.05176
2.60593
0.0244975
1.15273
0.0212973
0.02693
0.0218527
0.0226267
0.0446369
0.0209336
0.802321
0.0267598
0.0208047
0.0223756
0.214937
2.02624
3.7255
0.0213396
0.0234112
2.642
0.634414
0.0222613
0.020992
0.0214283
0.146215
0.0212782
0.0222918
0.023619
0.0212419
3.10189
0.810277
0.0213995
0.0222498
0.0211518
0.0211967
1.06296
0.533524
0.0478159
2.69432
0.438317
0.0214579
0.0212786
0.0213303
0.0210121
0.0214118
0.023082
0.0535362
2.4019
0.0216637
0.0739086
3.55188
0.133613
0.0210495
0.0208257
0.0220874
3.08792
0.020992
0.417457
0.188909
0.219514
0.0233198
6.40164
0.0213534
0.464824
0.021358
0.0213182
0.0212163
0.0217922
0.50729
0.210307
1.3566
0.0279585
2.58622
0.892961
0.55131
0.0253703
3.1752
2.62236
0.0734007
2.44078
1.42026
0.076509
0.531312
0.0215013
0.021988
2.42251
0.020919
0.0222843
2.94775
0.247655
2.57652
0.181935
0.0207271
0.0237977
0.0212702
0.441054
0.0212847
0.0482028
3.43353
1.89539
0.547694
0.0212457
0.0211944
0.0490263
2.3335
3.15006
0.0870212
0.22771
0.0208391
0.243186
3.78217
0.526887
0.0221181
0.0212559
0.0209593
0.0218586
0.0211116
0.0210616
0.0222007
3.09831
0.0519416
3.41063
0.528328
0.233602
0.11283
0.0212131
0.0224365
0.023166
0.0214733
0.0214886
0.521759
1.04469
0.531841
3.10256
0.0220948
2.81912
0.0972836
2.89834
3.53373
0.0211821
0.0213553
0.185999
0.0212231
0.0211611
0.655389
3.12607
0.226624
0.021256
0.0213008
0.0238395
0.0276455
0.319991
0.0211545
0.0220962
0.178072
0.0212445
0.595511
0.0274161
2.64033
0.0214373
0.175494
2.24233
0.0277971
1.90899
0.075444
3.50173
0.0212058
0.0226759
0.0207766
0.0244061
8.47013
0.0245083
2.1715
0.0231617
0.0214949
0.0213988
3.17159
0.0312296
0.0749508
0.528018
0.0213222
0.0334898
2.01301
0.0377602
0.0220062
0.0221519
0.0212047
0.0529498
0.0209613
0.020976
3.36351
2.68046
3.09483
0.738369
0.175219
2.52128
0.0479271
3.15463
0.0871654
0.021121
0.0226349
0.0209483
0.0212372
2.19102
2.3167
0.0214912
2.47091
3.45718
0.0244966
0.0215674
0.023192
1.99314
1.04535
3.14723
0.354628
3.17542
0.0208874
0.144227
0.0693484
0.105857
0.247367
0.0212617
0.0867123
2.15586
0.0262735
2.24446
0.0212868
0.0566737
2.3067
3.37202
0.0507716
0.0249091
5.28723
0.0871528
3.43478
3.30281
3.07696
0.0763974
0.479419
0.0213012
0.0261547
0.0327623
4.46525
0.215169
3.62634
0.0235004
0.0845103
0.0516023
0.0250993
1.61046
0.0212921
0.0868852
3.93388
0.021312
2.56398
2.85158
3.4049
1.22796
0.222136
0.538603
0.0208942
2.3058
0.0231444
0.0225445
0.0297125
0.0221557
3.37956
0.0222541
0.0233995
0.0222412
0.021582
0.553713
0.0217679
0.0781992
0.118802
0.020629
4.01228
0.0691177
0.0216247
2.01718
0.15339
0.0213176
1.33491
0.0215069
3.42367
0.506155
0.0215846
0.0786596
0.0217999
2.49983
3.22666
0.0491448
0.771157
0.023101
0.0214311
2.92514
0.0223206
0.0210225
0.224187
0.0298204
0.0208521
0.0207641
0.0919396
0.0217056
3.84398
0.146018
0.182894
2.68441
0.0366366
0.0424928
0.0209076
2.59358
6.79719
3.86496
0.0213464
0.0215937
0.0490723
0.0248523
0.533235
0.0210374
0.667612
0.0209376
0.127079
0.0221066
0.141236
0.14285
0.0768857
3.76753
1.2172
1.99665
3.19802
0.0211001
0.216417
0.224575
4.77871
0.0223433
0.134597
6.60639
3.39441
0.0780196
0.179903
0.689553
2.75481
0.0321948
0.146631
0.0206234
0.0330843
0.0307324
0.0212609
0.0475882
3.08643
0.484773
3.29053
0.252648
0.0210998
0.020768
0.03444
0.0212635
0.704956
0.0211248
0.0207397
3.01838
0.151679
0.0320769
0.0693518
0.0246097
0.0609146
2.67701
3.32273
2.49337
0.0229392
3.27795
0.0222191
0.0212754
0.0220369
3.28155
0.169491
0.142111
0.152918
0.0216247
0.020772
0.0212583
0.0215126
0.0232626
2.86033
0.233151
0.0239539
1.769
3.86386
0.5927
8.88355
0.0213106
0.0243885
0.584439
0.0213262
0.0230866
0.0232565
0.0222212
2.45442
3.34998
0.0212457
0.029359
0.0242989
0.0470621
4.971
2.44891
2.84783
0.0211928
0.0555778
3.03104
0.0548404
0.0783171
0.474204
1.82369
2.20417
3.26317
0.0209093
0.495312
0.0215248
0.0217278
0.0212233
0.0411152
2.46007
6.87715
0.667167
3.441
0.0385778
0.0211902
0.0208111
0.0212905
0.0228103
0.0309984
2.97243
3.42457
0.0522168
0.461117
0.0212339
0.0382552
0.0206694
3.40863
0.0772068
0.021146
0.114689
0.0690366
2.62607
3.76612
0.0936756
4.54407
0.0225
4.19983
0.14781
0.200953
0.411445
0.0220462
0.0378911
0.0212943
1.61195
2.93192
0.0288656
3.90324
0.143277
3.09195
0.04526
0.186097
0.0452143
0.0208868
0.0811303
0.0404315
0.0222957
0.037591
0.0247832
0.0254351
2.03927
0.103099
0.0218276
0.024671
0.0273017
0.0261508
0.021716
2.29988
0.0757663
0.391826
5.91174
0.0212582
3.4165
0.0214137
0.0221949
0.0219763
3.35344
0.0288486
3.51426
8.48852
0.0404557
0.148506
0.0790956
1.96832
0.0903022
0.60236
0.0240131
0.0322144
0.0221881
3.50882
0.539617
0.0243342
0.0249036
0.0286933
0.0230064
0.0223455
0.0343441
0.0293282
0.0213382
0.0277897
7.07064
2.62183
0.117313
0.0297302
0.0210255
1.86898
0.0256287
0.0439356
0.122284
0.030993
2.63414
0.0211589
0.0230092
0.0221611
0.0275889
0.021087
3.59874
0.0800358
0.197505
0.030154
1.93029
0.155484
0.0229252
1.93156
0.0448966
0.14824
3.53807
0.0468427
0.0222246
0.0298075
0.045828
0.0245362
0.18271
4.01111
0.453877
0.0208909
0.162454
0.459526
0.765544
0.0211995
0.0312508
0.0209544
0.024783
0.443849
0.0242286
0.0240693
0.0208551
0.0208407
1.97763
3.21236
0.0210772
2.60647
0.141819
0.0211836
0.0375203
3.54775
0.0799171
0.0692541
0.0212794
0.0233609
0.0868014
0.0255212
0.020914
3.21549
0.0241981
3.56116
0.0557877
0.0230582
2.09127
0.0902831
0.104335
0.0208965
0.52338
0.0247578
0.023187
2.18403
0.0293523
0.0212032
0.0598035
0.0224085
0.027378
0.0216002
0.996763
0.0212252
0.0669488
0.205503
0.0693962
0.0215687
0.17611
0.0249663
5.93441
0.177035
3.63694
0.0788887
3.35567
0.0207072
0.0515658
0.0228537
0.0210707
0.522619
2.89151
0.0227181
0.0707829
0.0326683
0.0489337
3.67997
0.0230455
0.58326
0.160982
4.2738
1.99774
0.137722
0.0231528
0.0207158
0.0673018
0.0287844
0.653114
2.56266
3.38575
2.50395
3.1992
0.0208193
0.556388
0.0213503
0.0217111
0.0213114
0.529862
0.130373
0.0747875
0.0209258
14.1149
0.0234521
3.77112
0.0226984
0.0426231
0.0247898
0.0475582
0.0297203
0.0696122
0.0218062
0.123148
0.124892
0.0209109
2.60935
0.160046
0.360675
0.0219957
0.0244439
0.0213525
0.0208977
0.0439774
0.0410455
2.78851
0.131757
0.0566786
0.0724757
0.022524
0.786347
0.0439189
2.66585
0.0251832
0.0256449
0.533933
0.0261704
0.207174
0.387508
4.61266
0.0219918
0.0212299
2.19174
0.0253671
0.0220788
0.0250931
0.0248367
0.021457
0.0232933
3.4154
0.022858
0.0297762
2.75058
0.0754767
0.0485412
0.164453
0.234646
3.3791
2.10244
1.1251
0.037333
0.853328
0.0217104
0.0226711
0.0212941
0.0209289
2.04482
0.514325
0.0267685
0.020701
0.192835
0.0685268
0.0231522
0.0241114
0.0360472
0.0210922
0.0218265
2.06165
0.023272
0.028224
0.0280255
0.0227897
0.0680521
0.0440344
0.024537
0.871078
0.0547825
1.9139
0.13327
3.06884
0.0222151
5.31803
0.110575
0.0996508
0.0448068
1.93897
0.0504777
0.0232691
0.0343996
0.0453891
0.0221215
0.0517191
0.0209673
0.0211954
0.0213874
0.0223868
3.54475
0.0212264
0.0698892
0.022251
0.0221818
0.0223347
0.170308
0.0220573
0.0415625
0.0212899
0.0223848
0.0226016
0.0217676
0.116158
0.0221157
0.0214641
0.0216841
0.0251278
0.0228268
2.5977
0.0234068
3.58283
0.125552
4.00279
0.0405881
0.0551447
0.269022
0.0295174
0.0346699
0.0227754
2.48757
0.860144
0.15739
0.0461241
0.0254127
0.0224958
2.99164
0.0315052
1.08769
0.0233421
1.14554
0.0964816
1.00854
1.15285
0.0214067
0.021362
0.0211951
0.024375
1.0047
0.042788
1.01946
0.0230459
0.0243541
0.0209074
0.0214952
0.0285096
0.0221167
0.0222197
0.0223138
0.149973
0.0898846
0.205229
0.0235435
0.208384
0.0218934
0.021753
0.0701638
0.0214722
0.0222739
0.0440251
0.0222781
0.0475064
0.0213673
0.0305959
0.0213744
0.0224261
3.4994
0.0209765
0.0220818
0.0216894
0.0221727
0.83916
0.0214775
0.0343379
2.02502
0.022472
0.0243571
0.0216872
0.0262592
0.0214185
0.10091
0.021213
0.0236604
1.91353
0.0207593
0.0243227
0.0344871
0.0605274
3.02553
0.0213473
0.0221243
0.0235096
0.0248073
0.0820856
0.134168
3.6076
0.0211979
0.0249914
0.0746317
0.0251485
0.251669
0.0209591
0.0213808
2.35994
0.0293649
0.0221143
0.0211368
0.106372
0.117636
2.63218
0.0213918
0.162977
0.0210436
0.0207734
0.0220441
0.0521486
2.55738
0.0213243
0.0208496
0.481793
0.0212346
0.0219941
0.179099
2.54108
0.0211946
0.0211836
0.0248923
0.0256564
0.13934
1.24351
0.0214413
0.0703666
0.0229462
0.0212282
3.04621
0.0220536
0.0212867
0.0247777
0.140651
0.0879033
0.0220206
0.0216421
0.196372
0.0293223
0.0216464
0.126837
3.53274
0.0212825
0.0213882
0.0220096
0.0213216
0.0212586
0.0221588
0.0216351
0.0283448
0.0219848
0.0512065
0.033173
2.0702
0.584779
0.0252294
0.0212548
0.0210878
0.0216446
0.021971
0.0293294
0.0241313
0.220238
0.0220696
0.622201
0.0223824
6.43822
2.11507
0.0239722
0.0238175
0.0867321
0.0221556
0.0416558
0.0213288
0.0216572
0.0210829
0.186131
0.0534639
0.0873969
0.0707213
0.0218981
0.0292433
0.0216495
1.40786
2.40002
0.493414
0.0237912
0.110023
0.0981035
2.55612
0.0215163
0.194553
0.0439931
0.0213257
0.0215214
2.36349
0.0212663
0.0215586
0.022032
1.18037
0.0213069
0.021439
0.0233738
1.7789
0.0208222
0.0345774
0.549897
0.0220772
0.0213579
0.0209857
0.0213427
0.021485
0.0214005
0.447273
0.0229296
0.0213192
0.0213933
0.0213827
0.0239763
0.0212543
0.183667
0.021415
0.0214082
0.0277164
0.306543
0.0358437
2.5907
0.971544
1.59186
0.0282369
0.0217841
0.0412496
2.65677
0.0216699
0.550187
0.0253406
0.382869
0.0218848
0.0309357
0.021493
0.0213322
0.0759353
0.151812
1.93954
0.0703706
2.52136
0.0214551
0.0223328
2.4011
0.0216625
0.0213321
0.938181
0.0209841
2.14816
0.0213551
0.107399
0.0710773
0.0221485
0.539129
0.0889188
0.0514899
1.05455
0.951967
1.14551
3.58254
0.660423
3.07274
0.0213193
2.59403
0.0212462
0.0212466
0.0210729
0.0213963
0.736834
0.0216417
6.76026
0.0212438
0.021342
0.0214414
0.136529
0.0233748
0.0214609
0.0522047
0.0233249
0.0233447
0.0227702
0.0238463
0.143614
0.193555
1.27822
0.313152
0.0657249
0.0216624
0.198191
0.0214051
0.0313833
0.570602
2.21324
0.10131
1.74527
0.0212707
0.597934
2.64156
0.0980743
3.32399
0.203048
0.0221549
0.0212463
0.0222518
0.0212234
0.02125
3.13879
3.16354
0.0209609
0.581666
0.0213681
0.0714318
0.0209015
0.16723
0.0485867
0.0220522
0.0214845
0.263323
1.18123
0.456229
0.020618
0.0207022
0.0231495
0.0217696
0.0216606
1.11614
1.37352
0.0327434
0.217744
0.052182
0.0214959
0.0289984
1.0814
0.0214547
2.31085
0.0372382
0.532543
0.0218143
0.0223324
0.0216325
0.0208865
0.0213088
0.0234454
0.020797
2.16905
0.040363
1.39347
0.0211338
0.101798
0.021186
0.833175
0.0451772
0.0364847
1.14776
0.0231715
0.0212455
0.0226176
0.0214818
2.14684
1.29121
0.0467388
0.0368794
1.88478
2.67284
0.074994
0.0337719
0.0213098
0.0218082
0.022
0.0980373
1.24599
0.0231438
0.0212767
0.684507
0.170023
0.0213945
0.022061
0.0375451
0.0215287
0.0208543
0.0644026
0.0211004
0.0215015
0.0208997
0.0221167
0.0215204
0.0560349
2.06153
0.0214169
0.196176
0.065946
0.0718561
0.0209008
0.0230247
0.0696663
0.0231342
0.0213865
0.878391
0.0212131
0.0484061
0.0213047
0.0388702
1.97464
0.0361531
0.0216711
0.0396061
0.202817
1.19132
0.0213805
0.0271378
2.91024
0.0209169
0.0215896
0.0523231
10.8524
3.41711
0.0221858
0.0211556
0.0858168
0.0209862
0.0216995
0.0246584
0.0213804
1.97345
0.0214703
1.29663
0.0212037
0.0214234
0.460058
0.0213302
0.0213726
0.0249138
0.619362
0.0206171
0.152766
0.0215072
0.0208977
0.0215741
0.0237237
0.0229958
0.0473614
0.0218604
0.0214055
0.0214759
0.028602
0.0216796
3.32773
0.0215052
0.0724373
0.0260965
0.0235745
0.0235267
0.98342
0.021318
0.021556
0.0209979
0.910677
0.48685
0.023046
0.0422239
0.020856
0.0360339