/*--------------------------------*- C++ -*----------------------------------*\
| =========                 |                                                 |
| \\      /  F ield         | OpenFOAM: The Open Source CFD Toolbox           |
|  \\    /   O peration     | Version:  v2012                                 |
|   \\  /    A nd           | Website:  www.openfoam.com                      |
|    \\/     M anipulation  |                                                 |
\*---------------------------------------------------------------------------*/
FoamFile
{
    version     2.0;
    format      ascii;
    class       surfaceVectorField;
    location    "50";
    object      Uf;
}
// * * * * * * * * * * * * * * * * * * * * * * * * * * * * * * * * * * * * * //

dimensions      [0 1 -1 0 0 0 0];


internalField   nonuniform List<vector> 
20537
(
(1.00912 0.00867623 -5.52077e-23)
(1.0088 0.00864608 1.12336e-21)
(1.00911 0.00826106 1.32531e-21)
(0.80102 -0.22099 -3.06569e-21)
(0.797537 -0.217457 -2.61581e-21)
(0.793115 -0.213977 -2.60087e-21)
(0.991459 -0.0308987 2.96116e-23)
(0.992168 -0.0286328 3.11609e-23)
(0.989245 -0.0285408 -3.06977e-22)
(1.00866 0.00954874 -7.18086e-22)
(1.00857 0.00907467 1.02835e-21)
(1.00815 0.00962604 -9.57216e-23)
(1.0106 -0.054305 -1.0759e-21)
(1.00844 -0.0538845 -8.10153e-22)
(1.01005 -0.0522777 2.35493e-22)
(0.871902 -0.0046625 0)
(0.884237 -0.0250847 -4.18882e-22)
(0.887894 -0.00340108 -4.9132e-22)
(1.01682 -0.00181126 0)
(1.01704 -0.00200458 -1.98e-21)
(1.01709 -0.00174012 1.22587e-21)
(1.00584 -0.03081 3.4058e-22)
(1.00664 -0.0309604 1.5907e-21)
(1.00591 -0.0317483 1.68042e-21)
(1.0354 0.00771288 7.5407e-24)
(1.03596 0.00812991 5.86339e-23)
(1.03601 0.00761839 0)
(1.02662 -0.00971836 -2.81739e-23)
(1.02713 -0.0153048 1.38858e-21)
(1.0212 -0.012472 -2.79255e-22)
(1.05111 -0.00139166 4.64155e-21)
(1.04231 0.0109036 1.72655e-21)
(1.04597 0.00896345 -4.31198e-21)
(0.467792 0.291963 2.89512e-21)
(0.424105 0.305996 4.79943e-21)
(0.376246 0.318725 -7.99367e-21)
(1.04075 -0.10751 -1.23714e-20)
(1.03877 -0.104053 -2.46216e-20)
(1.04281 -0.102941 -1.54323e-20)
(-0.0362401 -0.129781 7.84692e-22)
(-0.00472415 -0.137632 -1.19126e-20)
(-0.0557056 -0.161732 -1.68261e-20)
(1.01279 -0.000204636 1.24531e-21)
(1.0128 -0.0002051 8.54377e-22)
(1.01282 -0.00021864 7.76152e-22)
(1.00089 -0.0261067 1.18415e-22)
(1.00193 -0.0261927 6.13166e-22)
(1.00138 -0.0272608 3.49502e-25)
(1.01163 -0.0178825 -2.74863e-21)
(1.01123 -0.0172254 -1.60701e-21)
(1.01207 -0.0172957 -1.87994e-21)
(0.992258 0.0193168 -1.55001e-21)
(0.991594 0.0164608 -6.36446e-22)
(0.989247 0.0194227 -5.37748e-22)
(1.02088 -0.108499 1.73162e-21)
(1.01555 -0.110809 -1.16201e-20)
(1.01619 -0.103671 -1.09146e-20)
(1.03486 0.00731861 2.89166e-23)
(1.0348 0.00785386 -6.80425e-23)
(1.00879 0.0100472 5.91909e-22)
(1.00906 0.00942585 1.96102e-22)
(0.993492 -0.0334876 0)
(0.99039 -0.034106 2.99125e-22)
(1.01943 -0.000775207 1.27114e-23)
(1.02053 -0.000719229 0)
(1.02235 -0.000792759 -4.68246e-23)
(1.02849 0.00017679 4.51198e-22)
(1.02458 7.73603e-05 1.48683e-23)
(1.02924 0.000162728 8.02308e-23)
(1.01811 -0.000450987 -4.69175e-22)
(1.01475 -0.000576036 5.51086e-23)
(1.00573 -0.0301297 -1.85688e-21)
(1.00493 -0.0306368 -1.4991e-21)
(1.02109 -0.0160642 5.09848e-21)
(1.02112 -0.0154468 2.25221e-21)
(1.02054 -0.0157724 0)
(0.00519654 -0.0255329 3.61417e-22)
(0.0123827 -0.0263374 0)
(1.00925 0.00888637 3.59114e-23)
(1.00939 0.00868882 -4.82141e-23)
(0.998883 -0.00120733 6.40934e-22)
(0.99851 -0.00230041 1.39949e-21)
(0.997745 -0.00102217 -7.03596e-22)
(0.862979 0.0270405 0)
(0.859131 -0.00122524 0)
(1.01109 -0.0184841 1.56287e-21)
(1.01201 -0.0185758 -8.26178e-22)
(0.994692 -0.0284532 0)
(0.993338 -0.0258298 0)
(0.80632 0.0464388 0)
(0.818231 0.0487484 0)
(0.804883 0.0324896 2.30623e-21)
(1.02807 0.000255354 -4.9497e-23)
(1.03018 0.000375935 -5.38676e-23)
(1.04643 -0.04201 1.23003e-21)
(1.04635 -0.0412435 -9.57507e-21)
(1.04709 -0.0417055 -2.28662e-20)
(1.05441 -0.0400748 1.12699e-20)
(1.05386 -0.0409371 5.27441e-22)
(1.05332 -0.0399548 1.08733e-20)
(0.952461 -0.0744372 -2.24892e-22)
(0.955137 -0.0825709 3.13877e-21)
(0.959751 -0.0727053 -2.80106e-21)
(1.03132 -0.00662456 9.53422e-22)
(1.02424 -0.00316907 -1.91679e-22)
(0.80906 0.0565737 0)
(0.788453 0.0398713 1.52533e-21)
(1.01292 0.00594226 -1.20323e-22)
(1.0129 0.00624953 -2.17135e-22)
(1.01265 0.00594436 1.31635e-22)
(1.01546 -0.00638762 2.64496e-24)
(1.01578 -0.00630946 0)
(1.01566 -0.00604746 -8.92273e-24)
(0.0187194 0.0985325 4.21934e-20)
(0.0291503 0.0876595 -4.46001e-21)
(0.0181543 0.0856192 -4.69952e-22)
(0.998409 0.0434873 1.85984e-21)
(0.998775 0.0496707 8.12056e-22)
(1.01425 0.0393788 1.14215e-21)
(0.997084 0.0315941 -2.81587e-21)
(0.978805 0.0467921 2.95308e-22)
(0.208232 0.0867767 0)
(0.258548 0.0626633 3.62971e-21)
(0.297624 0.0476385 0)
(0.939393 0.0653058 2.20919e-22)
(0.948984 0.0634738 7.08926e-22)
(0.932301 0.0615724 -2.76769e-21)
(0.826692 -0.24385 3.04728e-21)
(0.798527 -0.216109 -1.66066e-21)
(0.803894 -0.234376 -1.01056e-20)
(1.02104 -0.0166939 -1.80096e-21)
(1.02164 -0.0163325 -3.22817e-22)
(1.08924 -0.00104759 7.46158e-21)
(1.10676 0.00271909 -8.65507e-21)
(1.10407 0.0249805 -2.59665e-21)
(1.02835 -0.047588 -3.47798e-21)
(1.02939 -0.0483329 -7.54843e-21)
(1.02941 -0.0468416 3.1184e-21)
(1.03205 -0.0654714 -6.30848e-21)
(1.03266 -0.0637903 0)
(1.03423 -0.0649712 3.17821e-21)
(-0.0320187 0.0183389 -1.96228e-21)
(-0.0259452 0.0237445 2.41136e-21)
(-0.0229496 0.0102556 -3.79484e-21)
(1.01263 -0.000242029 -1.07495e-21)
(1.01233 -9.84943e-05 -4.51751e-22)
(1.01278 -0.000220721 2.24501e-22)
(1.01383 0.000305838 7.80385e-24)
(1.01338 0.000207801 -1.66609e-23)
(1.01434 0.0005514 -7.81882e-23)
(1.01513 -0.00645893 2.60285e-24)
(1.01526 -0.00674053 -1.71364e-23)
(1.0349 -0.000820708 -1.19199e-22)
(1.03544 -0.000749113 5.16839e-22)
(1.03454 -0.000649456 4.44135e-23)
(-0.0505394 0.0135175 -1.67418e-20)
(-0.0589773 0.019624 1.92364e-20)
(-0.0452162 0.00932233 1.89183e-20)
(1.00005 -0.0013885 -5.09373e-22)
(0.999362 -0.000261533 -5.69498e-22)
(1.01647 -0.00344739 -2.75909e-23)
(1.01637 -0.00320371 -3.96567e-21)
(1.01668 -0.00324518 -2.79855e-21)
(0.943927 -0.0770356 -5.26231e-22)
(0.948559 -0.0670877 -5.60979e-24)
(0.765302 -0.273952 -5.4901e-21)
(0.785157 -0.276718 0)
(0.734479 -0.299001 1.68531e-20)
(1.01843 0.123585 -3.12948e-21)
(1.03915 0.127408 -6.23076e-21)
(1.03477 0.104824 -1.27767e-21)
(1.01374 -0.0591335 -8.14791e-22)
(1.01148 -0.0589603 7.028e-21)
(1.01236 -0.0610421 -8.42827e-22)
(0.863723 -0.111949 -6.20184e-21)
(0.856835 -0.0974858 3.11949e-21)
(0.874523 -0.0991875 5.84156e-22)
(1.00768 0.00556577 1.11146e-21)
(1.00707 0.00659383 -1.14228e-22)
(1.00623 0.00524369 -1.88483e-22)
(1.05421 -0.0404368 0)
(1.054 -0.0392889 2.14425e-21)
(0.931914 0.0624803 -1.44642e-21)
(0.934613 0.0645012 -2.13992e-21)
(1.02335 -0.0296093 2.92068e-22)
(1.02249 -0.0296999 2.86807e-22)
(1.02292 -0.0288305 4.99442e-21)
(0.994998 0.0190729 5.83209e-22)
(0.99401 0.0226665 -2.03949e-21)
(0.61669 -0.0141962 5.76724e-21)
(0.603007 -0.0150878 -8.42061e-24)
(0.558041 -0.011074 -1.62765e-20)
(1.04818 -0.0365356 8.878e-21)
(1.04751 -0.0356428 0)
(1.05023 -0.0366087 0)
(0.813016 -0.217377 1.03836e-21)
(0.807271 -0.224134 -6.35874e-22)
(1.01274 -0.000193228 1.16365e-22)
(1.01246 -0.000290036 8.35603e-23)
(1.01574 0.000921575 -6.38174e-23)
(1.01554 0.000992085 4.48455e-23)
(1.01578 0.00115141 0)
(1.03815 0.0128901 -5.3594e-23)
(1.03884 0.0128196 4.55718e-23)
(1.03818 0.0122339 -6.65295e-23)
(0.994344 -0.0349319 0)
(0.995192 -0.0329647 2.91947e-21)
(0.687247 -0.025941 -2.84511e-21)
(0.714472 -0.029271 6.36529e-22)
(0.689722 -0.0246907 -2.45968e-21)
(1.01514 -0.0373402 -5.50511e-21)
(1.01531 -0.0384857 3.79186e-22)
(1.01409 -0.0381723 1.05323e-21)
(0.607535 -0.0156352 -1.91482e-20)
(0.563408 -0.0144516 0)
(1.01643 -0.00613645 0)
(1.01605 -0.00592449 3.19847e-21)
(1.01639 -0.00569402 -2.8909e-21)
(0.997543 -0.0130958 -3.14952e-24)
(0.997928 -0.0133491 -9.73299e-24)
(0.997404 -0.0135536 -9.65601e-23)
(1.01277 -0.000791698 -5.0854e-22)
(1.01274 -0.00083313 -1.06711e-21)
(1.01269 -0.000681961 -2.32137e-21)
(0.188527 0.070338 2.44638e-20)
(0.21381 0.0501777 -1.0668e-20)
(0.153765 0.073106 -6.90535e-21)
(1.00147 0.118446 -1.91551e-21)
(0.991593 0.142902 4.32175e-21)
(0.52209 0.254761 7.23744e-22)
(0.571751 0.249142 5.4892e-21)
(0.915506 0.048107 -1.61271e-22)
(0.904199 0.0348988 6.41781e-21)
(0.922929 0.0314064 -6.72996e-21)
(0.935442 -0.276337 5.66978e-22)
(0.93998 -0.248782 1.22603e-20)
(0.960576 -0.267868 1.2152e-21)
(1.01688 -0.018872 1.85031e-21)
(1.01614 -0.0189907 -1.4289e-21)
(1.01664 -0.01972 -3.48436e-21)
(1.03778 -0.0174629 -8.67657e-23)
(1.03773 -0.0164445 -7.21582e-23)
(1.03673 -0.0170881 2.28968e-22)
(1.04592 -0.0423799 7.96645e-21)
(1.04663 -0.0430318 3.04664e-20)
(1.06683 -0.00344059 -3.86099e-21)
(1.08239 -0.00695216 7.76333e-22)
(1.06784 -0.0158019 2.65023e-21)
(0.935829 0.0622293 -1.60987e-21)
(1.0176 -0.0226637 0)
(1.01708 -0.0230957 0)
(1.01776 -0.0233904 0)
(1.01725 -0.0183317 2.65948e-21)
(1.0177 -0.0188684 4.24613e-21)
(1.032 -9.55023e-05 0)
(1.03215 -0.000194434 -8.42851e-23)
(1.03432 -0.000304291 0)
(1.01086 -0.0568207 -4.08601e-21)
(1.01275 -0.0550397 -1.09227e-20)
(0.95269 -0.106932 0)
(0.930013 -0.10394 0)
(0.931066 -0.0987207 2.13921e-20)
(1.06298 -0.00270393 4.88601e-21)
(1.07285 -0.0204038 4.52957e-21)
(1.02625 9.25425e-06 0)
(1.03163 -0.000147745 -1.33628e-22)
(-0.154307 -0.00576096 0)
(-0.120928 -0.0107431 0)
(-0.152361 -0.0219321 0)
(1.0207 -0.0405251 4.74087e-22)
(1.02188 -0.0403694 1.69419e-21)
(1.02121 -0.0393876 -8.17032e-21)
(1.00863 0.00654481 -2.07578e-22)
(1.00824 0.00655934 0)
(1.00854 0.00698579 -4.12625e-22)
(1.02711 -0.0122074 -2.44112e-21)
(1.02756 -0.0126345 -1.40721e-20)
(1.0098 -0.000258031 9.09868e-24)
(1.01154 -0.000370094 0)
(1.00998 -0.000260622 0)
(0.924318 0.101007 -1.53251e-21)
(0.940771 0.134525 -6.15351e-21)
(0.943068 0.104965 -2.55578e-21)
(1.02434 -0.0420194 5.56427e-21)
(1.02325 -0.0422547 -1.03896e-20)
(1.02399 -0.0433002 -6.28392e-21)
(1.01383 -0.00462105 -6.31948e-23)
(1.01417 -0.00465539 -2.98544e-24)
(1.01395 -0.0042569 -6.38368e-24)
(1.05089 -0.0335873 6.99747e-22)
(1.05938 -0.0325173 -8.59803e-21)
(0.886269 -0.0461633 -7.93872e-21)
(0.902943 -0.0345318 -4.00955e-22)
(1.0299 0.000650484 5.58705e-23)
(1.02462 0.000290411 8.67046e-23)
(1.03005 0.000559815 3.59974e-22)
(1.03769 -0.018628 0)
(1.03879 -0.0177821 2.58087e-22)
(1.05473 -0.00263585 -9.80105e-21)
(1.064 0.00515018 -1.73671e-22)
(1.01789 0.000192156 -1.0164e-22)
(1.01799 1.44681e-06 -1.40522e-21)
(1.03202 0.000911212 -7.6595e-23)
(1.02917 0.000595166 -1.64018e-23)
(0.942109 -0.132841 1.01269e-21)
(0.925928 -0.148085 7.30244e-22)
(0.978273 -0.108922 -9.80881e-21)
(0.977509 -0.115468 -2.03028e-20)
(1.01636 -0.00376159 -7.54859e-23)
(1.01643 -0.00398431 2.92448e-22)
(1.01609 -0.00396003 -2.01612e-23)
(1.01996 0.000698247 0)
(1.02026 0.00064578 -7.57413e-23)
(1.01663 0.000381008 1.26457e-22)
(1.01448 0.000497769 4.13918e-22)
(1.01361 0.000235045 -5.22854e-22)
(1.0127 0.000211987 5.84403e-22)
(0.013726 0.106139 -1.99416e-21)
(0.00903447 0.113723 1.9705e-20)
(1.02645 -0.0127375 7.12718e-21)
(1.02644 -0.0118856 4.19244e-22)
(1.03789 -0.112188 1.3507e-20)
(1.04953 -0.112286 6.56202e-21)
(0.935492 -0.1153 -2.73527e-21)
(0.851082 -0.252862 8.96231e-22)
(0.861563 -0.241618 5.65868e-22)
(1.02296 -0.01576 7.98462e-23)
(1.02266 -0.0157263 6.72807e-24)
(1.02285 -0.0160903 1.03845e-23)
(0.871982 -0.253747 -3.22617e-23)
(0.844274 -0.250191 -9.94274e-21)
(1.01754 -0.0388899 0)
(1.0185 -0.0391348 0)
(1.01748 -0.0400611 2.17365e-22)
(1.00904 0.0105149 6.55891e-23)
(1.00853 0.0107349 -1.94376e-22)
(0.996605 -0.0750538 -2.31642e-21)
(0.999293 -0.073085 -3.46519e-21)
(0.999354 -0.0776801 1.2875e-21)
(1.01316 0.00594564 -2.80778e-22)
(1.01293 0.00564636 -2.46575e-22)
(1.02602 0.00508077 0)
(1.02578 0.00536085 -1.54268e-22)
(1.02553 0.00496877 -7.03102e-23)
(0.627694 -0.0172579 1.41264e-20)
(0.644253 -0.0203762 -1.8615e-21)
(1.01285 -0.000878498 8.28371e-22)
(1.01278 -0.000722019 2.13532e-21)
(0.95309 -0.118455 3.77632e-21)
(1.02485 0.00200355 -1.8984e-22)
(1.0252 0.0019574 -2.36171e-22)
(1.0248 0.00160031 -2.16851e-22)
(1.01629 -0.00344825 1.04231e-23)
(1.01667 -0.00349247 -6.61243e-23)
(1.04879 -0.0374895 -1.00931e-21)
(1.04957 -0.0384494 -1.8559e-21)
(1.05142 -0.0384101 -7.80191e-21)
(0.193987 -0.299964 -1.49271e-21)
(0.135786 -0.298399 3.20629e-22)
(0.153598 -0.282654 5.88939e-22)
(0.282794 -0.0633665 7.15467e-21)
(0.325336 -0.0385335 -1.15668e-20)
(0.296626 -0.0424087 -8.80989e-21)
(-0.156551 0.0045504 0)
(-0.177457 -0.00370091 0)
(1.01453 0.000367312 -5.27601e-22)
(1.01284 0.000373183 3.56924e-22)
(1.03861 0.0260318 -1.50004e-22)
(1.03799 0.0268616 -1.03739e-22)
(1.03915 0.0271131 1.86815e-22)
(1.01776 -0.0110009 0)
(1.01816 -0.0108211 4.94178e-24)
(1.01803 -0.0113368 -1.93687e-25)
(1.00862 -0.0107531 -1.71864e-21)
(1.00857 -0.011523 -2.1043e-21)
(1.00925 -0.011024 1.62113e-21)
(0.982298 0.0580383 -2.07104e-22)
(0.996282 0.0507906 0)
(1.00537 -0.0122099 0)
(1.00528 -0.0118234 0)
(1.00575 -0.0120411 -8.14079e-24)
(0.992575 -0.0779493 1.11284e-20)
(0.992515 -0.0725622 -1.33694e-21)
(1.01659 -0.00157175 0)
(1.01651 -0.00182636 -7.56514e-22)
(1.01434 0.0144076 -7.74983e-22)
(0.994726 0.0137638 -7.99394e-22)
(1.03871 -0.0385012 9.92977e-21)
(1.03882 -0.0390766 0)
(1.01439 0.000240287 -6.74584e-24)
(1.01516 0.000450222 1.71192e-23)
(1.01556 0.000703386 -4.02034e-22)
(-0.0726742 -0.122521 -5.15173e-22)
(-0.0114282 -0.107028 7.34231e-21)
(1.0342 -0.000691338 1.25466e-23)
(1.0351 -0.00102743 0)
(1.01572 -0.0119752 7.24759e-22)
(1.01616 -0.0123086 2.16319e-21)
(1.01616 -0.0116082 -2.85124e-21)
(1.00792 -0.0105564 -1.92866e-21)
(1.00854 -0.0100288 -4.71399e-23)
(1.02179 0.0102426 8.709e-22)
(1.02209 0.0101039 6.11776e-22)
(1.02227 0.0105275 4.17336e-22)
(1.00262 -0.00300065 8.06595e-23)
(1.00337 -0.00295564 5.41445e-24)
(1.00307 -0.00367865 -3.08317e-23)
(1.03248 -0.0680622 -5.49898e-21)
(1.03014 -0.0664049 1.36323e-20)
(1.0274 -0.0467217 -1.28969e-20)
(1.02719 -0.0482417 8.81191e-22)
(1.01029 -0.00732522 4.27656e-26)
(1.01051 -0.00705496 -2.52896e-24)
(1.01011 -0.00710245 7.5314e-24)
(1.02318 -0.0220591 -1.42375e-22)
(1.02278 -0.0225672 2.47364e-21)
(1.02348 -0.0226743 8.45441e-21)
(-0.0423637 0.00735767 1.58223e-20)
(-0.0515183 0.0176856 0)
(1.0262 0.00480523 -6.15913e-23)
(1.02646 0.0051925 1.7029e-22)
(0.987796 -0.0107294 4.01629e-22)
(0.98972 -0.012061 -6.79364e-22)
(0.989825 -0.00977575 2.77252e-22)
(1.0173 -0.00887528 6.08143e-24)
(1.01754 -0.00921569 0)
(1.01773 -0.00878989 4.96884e-24)
(1.00541 -0.0126742 6.44715e-24)
(1.00492 -0.0123757 -2.08975e-25)
(1.02382 -0.0303888 0)
(1.02418 -0.029455 0)
(1.00942 0.0102385 -1.85367e-21)
(1.00935 0.0109174 1.14291e-22)
(0.856508 -0.0985341 2.61441e-20)
(0.80243 -0.0843554 2.15906e-20)
(0.849398 -0.0861316 -2.31108e-20)
(0.643888 -0.0216087 1.42808e-22)
(0.683566 -0.0257772 -1.31134e-20)
(1.03636 0.00189663 3.0159e-23)
(1.03646 0.00218461 -2.16836e-22)
(1.03671 0.00193069 2.07398e-23)
(1.02149 0.0103906 -1.75908e-23)
(1.02136 0.00997937 3.40103e-22)
(0.248645 -0.0876633 5.50283e-21)
(0.271866 -0.0791782 -2.03583e-23)
(1.02639 0.0045228 -2.4561e-23)
(1.02594 0.00442142 3.73092e-23)
(0.775904 -0.182127 -1.79778e-21)
(0.800173 -0.181815 4.40168e-21)
(1.01627 -0.0387294 5.51966e-23)
(1.01728 -0.0377975 5.13134e-21)
(1.03373 0.0255819 8.65098e-23)
(1.03283 0.0253726 -2.36315e-23)
(1.03313 0.0266207 -3.19843e-23)
(1.02502 -0.111809 3.13839e-20)
(1.02601 -0.104846 2.1279e-20)
(1.01355 -0.005221 -3.11871e-24)
(1.01322 -0.00518507 0)
(1.01339 -0.00555375 2.79366e-25)
(1.01097 -0.0196696 -1.04199e-21)
(1.01064 -0.0190569 9.64107e-22)
(1.01019 -0.0196569 1.16919e-21)
(1.04936 -0.0363337 -1.04833e-21)
(1.01295 -0.00085409 -1.32665e-21)
(1.01295 -0.000799105 -3.1691e-22)
(1.01287 -0.000741191 -2.81538e-21)
(0.987797 -0.0341113 5.38892e-22)
(0.98996 -0.0363781 2.43391e-21)
(1.01234 -0.00176746 1.78082e-22)
(1.01245 -0.00149994 -5.66563e-24)
(1.01213 -0.00170716 -3.44564e-24)
(1.02712 -0.00106596 1.11806e-23)
(1.02786 -0.00102323 3.70317e-22)
(1.02942 -0.000935757 1.11247e-22)
(1.00873 0.00467996 7.21032e-22)
(1.00879 0.00598288 -6.13476e-22)
(1.01546 0.000607817 4.51537e-22)
(1.01501 0.000504346 1.85405e-22)
(1.00478 -0.0573143 3.3246e-21)
(1.00228 -0.0564512 2.75768e-21)
(1.00246 -0.0593989 7.89725e-21)
(1.01707 -0.0762376 8.05525e-22)
(1.02497 -0.0809701 6.39074e-22)
(1.02354 -0.0707724 -7.26972e-22)
(0.944494 0.0653637 -3.62323e-23)
(-0.0352342 0.0128844 -2.01887e-20)
(-0.04146 0.0256368 6.61458e-21)
(1.03768 -0.0196174 0)
(1.0388 -0.0199752 0)
(1.03761 -0.0207304 1.56296e-22)
(1.01915 -0.0301092 -3.58936e-21)
(1.01996 -0.0299746 5.20679e-21)
(1.01956 -0.0292919 -5.27767e-21)
(0.74633 -0.268284 3.89703e-22)
(0.798561 -0.254514 -6.46703e-21)
(1.01492 -0.0112065 1.74857e-21)
(1.01525 -0.0116348 -3.84599e-22)
(1.01537 -0.0110237 1.91477e-21)
(1.03931 0.0252832 1.38355e-22)
(1.03811 0.0249425 -1.23713e-22)
(0.745641 0.0141817 1.37629e-21)
(0.752228 0.0141053 -1.00348e-21)
(0.7666 0.0262784 2.04493e-21)
(1.03486 0.0259455 2.27214e-22)
(1.0344 0.0246689 1.25026e-22)
(1.03746 0.0129595 -1.15243e-24)
(1.03807 0.013552 -9.41717e-24)
(1.0232 -0.0157941 -3.95233e-22)
(1.02304 -0.0155339 1.07954e-23)
(0.478269 -0.0661894 -3.21198e-20)
(0.597928 -0.126275 0)
(0.561995 -0.0864338 2.81995e-20)
(1.0105 0.000210311 1.69114e-22)
(1.01538 0.000422555 2.73582e-22)
(1.00999 0.000125296 9.49182e-22)
(1.01224 0.000831863 4.8853e-22)
(1.01231 0.000913264 5.32714e-22)
(1.01224 0.00100426 -2.943e-22)
(1.02327 -0.0480361 -2.14456e-22)
(1.01841 -0.0488958 -7.34138e-23)
(1.01943 -0.0445047 -2.45363e-22)
(1.01304 -0.000976877 0)
(1.01295 -0.000932242 2.76959e-22)
(0.41226 -0.125668 -8.76821e-21)
(0.354335 -0.14297 -7.51751e-21)
(0.365524 -0.118989 1.08942e-20)
(1.0132 -0.0184797 2.64634e-21)
(1.01327 -0.0177611 -2.06119e-21)
(1.01399 -0.0182246 3.90922e-22)
(0.751956 -0.0318873 -1.84336e-20)
(0.729126 -0.0290448 1.85552e-20)
(0.751588 -0.0316814 9.70486e-22)
(1.01183 -0.0058732 3.36355e-24)
(1.01164 -0.00610625 -8.39972e-25)
(1.01198 -0.00617698 -3.88164e-24)
(1.02105 -0.0504529 6.70524e-21)
(0.990753 -0.0488494 1.00965e-20)
(0.998823 -0.0500764 -1.32312e-23)
(1.00877 0.00618318 3.18966e-22)
(1.009 0.00662038 -8.55937e-22)
(0.72923 -0.0136184 0)
(0.721327 -0.00940572 -1.96791e-21)
(0.721833 -0.0187535 -2.206e-21)
(1.01244 -0.00451403 1.5911e-24)
(1.01281 -0.00451022 -3.12114e-23)
(1.01255 -0.004189 1.02295e-24)
(1.01734 -0.0103198 1.94923e-25)
(1.01691 -0.0104466 1.04212e-22)
(1.01714 -0.00998399 3.65145e-25)
(1.04656 -0.0284886 -2.94036e-22)
(1.05019 -0.0251655 -1.31316e-22)
(1.04677 -0.0213104 -2.4614e-21)
(0.963141 0.117027 -5.18092e-21)
(0.986043 0.108163 4.62281e-21)
(0.971535 0.0936946 4.26789e-21)
(0.135399 0.110157 -2.7808e-20)
(0.160047 0.0995677 0)
(1.01284 -0.000380284 5.42387e-22)
(1.01281 -0.0003374 1.41499e-21)
(1.01278 -0.000347105 -3.10297e-22)
(0.754526 -0.0324985 5.4105e-21)
(0.777008 -0.034578 2.43504e-21)
(1.01261 -0.0186972 4.36422e-21)
(1.01311 -0.0190271 1.87168e-22)
(1.01647 -0.00649556 -8.43262e-22)
(1.01681 -0.00625057 0)
(1.03344 -0.0812413 1.50564e-20)
(1.01377 -0.0806939 1.14335e-20)
(1.01194 -0.0780675 1.28093e-20)
(1.01969 -0.0697656 -6.54161e-21)
(1.01816 -0.0720566 -5.50672e-21)
(1.02128 -0.0723395 4.67392e-21)
(0.947508 -0.0380229 -7.51736e-21)
(0.91858 -0.0373836 -6.85868e-21)
(0.920527 -0.0371395 2.18865e-22)
(1.02368 -0.000775657 -5.73988e-24)
(1.02347 -0.000813628 -1.83412e-22)
(1.01801 -0.000419202 -2.72434e-23)
(1.01708 -0.0251677 -1.16551e-22)
(1.01735 -0.0259007 6.58816e-22)
(1.0165 -0.0258186 3.02813e-21)
(1.00957 -0.000241741 3.11861e-22)
(1.00729 -0.000168111 1.28489e-23)
(-0.0691065 0.0643319 1.2082e-20)
(-0.0644561 0.0713694 -4.32419e-20)
(-0.0609869 0.0615374 1.80012e-20)
(1.01213 -0.00455525 2.45633e-23)
(1.01237 -0.00486539 9.64106e-24)
(1.00568 -0.0295404 0)
(1.00624 -0.0297823 0)
(0.753597 -0.00320752 1.29875e-21)
(0.773301 -0.0200012 -1.64295e-21)
(0.747116 -0.0328825 1.69987e-21)
(1.03599 0.00185133 1.63713e-22)
(1.03625 0.00161845 2.35018e-22)
(1.03662 -0.0191067 3.27424e-22)
(1.03066 -0.0434697 -1.52241e-20)
(1.02972 -0.0442317 -6.07831e-21)
(1.02968 -0.0430129 0)
(0.937808 0.0116433 -1.86908e-21)
(0.945585 0.00992557 -1.23841e-21)
(0.943699 0.017605 5.55005e-22)
(0.469222 -0.108442 -1.74435e-21)
(0.46035 -0.131569 -2.77353e-20)
(0.857605 -0.12163 -4.40381e-21)
(0.872441 -0.122646 -4.75266e-21)
(1.01753 -0.0106526 -4.1267e-24)
(1.01734 -0.011143 1.31177e-24)
(1.01225 0.000677277 0)
(1.01216 0.000766654 3.65493e-22)
(0.874592 0.0550283 0)
(0.8701 0.0759595 4.89931e-22)
(0.94356 -0.0348893 7.78188e-23)
(0.948807 -0.0373364 -2.26216e-21)
(0.97828 -0.0377748 4.83951e-21)
(1.00886 -0.00939449 -3.34886e-22)
(1.00911 -0.00917049 -1.11647e-23)
(1.00918 -0.00966604 -9.68818e-24)
(1.02775 -0.0457932 1.14495e-22)
(1.02695 -0.0518816 0)
(1.01279 -0.000593641 4.50457e-24)
(1.0128 -0.000564496 0)
(0.877731 -0.0384072 1.1306e-21)
(0.851531 -0.0365788 -2.29095e-23)
(0.874455 -0.0372543 1.74041e-20)
(1.01959 -0.0407314 0)
(1.02027 -0.0418383 0)
(0.751274 -0.00112275 -1.649e-21)
(0.764797 0.00554197 -9.98928e-22)
(0.764386 -0.0117195 2.7667e-21)
(1.00735 -0.0103286 -1.1381e-21)
(1.00664 -0.0100132 1.20178e-21)
(1.00734 -0.00950903 1.54927e-22)
(1.00508 -0.0175454 1.53547e-22)
(1.00557 -0.0166634 -3.13832e-21)
(1.00448 -0.0167595 -3.01797e-21)
(1.01178 0.0212567 -5.55064e-22)
(1.01047 0.0176804 -6.28199e-22)
(1.01391 0.0187122 -4.92332e-22)
(0.93718 -0.0315385 -2.70778e-21)
(0.905877 -0.0322171 4.64681e-22)
(1.01183 -0.00525096 -1.0028e-22)
(1.01167 -0.00553685 -2.14496e-21)
(1.01149 -0.00513131 3.7772e-23)
(1.00737 -0.0110229 5.71825e-22)
(1.02915 -0.0381749 -1.5914e-20)
(1.02994 -0.0386842 2.60959e-22)
(1.02876 -0.0391537 -9.56512e-21)
(1.09854 -0.11542 1.35855e-20)
(1.06746 -0.0517267 8.23014e-21)
(1.10698 -0.0467815 1.02102e-21)
(1.00976 -0.0814423 -1.73485e-21)
(1.00974 -0.0718028 -1.50091e-22)
(1.05013 -0.038295 2.90132e-20)
(1.05003 -0.0392687 -8.36994e-22)
(0.652151 -0.0208794 0)
(0.529785 -0.00948017 2.0838e-20)
(0.47902 -0.00871033 1.49628e-21)
(1.01381 -0.000535513 1.22889e-21)
(1.01369 -0.000441335 -6.24609e-22)
(1.01366 -0.000541369 2.84043e-21)
(1.01774 -0.0101872 -7.96679e-23)
(0.997537 0.0181961 1.34e-21)
(0.999484 0.020068 1.17576e-21)
(0.999937 0.0171915 -5.97638e-22)
(0.899831 0.0203591 2.44606e-21)
(0.884065 -0.0163841 1.13418e-20)
(0.891299 -0.0437754 6.92676e-21)
(1.02283 -0.0135276 -2.39123e-22)
(1.02257 -0.0132146 9.80912e-24)
(1.02243 -0.0135773 -6.16964e-23)
(1.00849 -0.124345 0)
(1.00167 -0.125252 0)
(1.00583 -0.13179 -1.74547e-20)
(1.01454 -0.0115426 -5.48687e-23)
(1.01453 -0.0108667 0)
(1.01213 -0.0053481 9.15298e-22)
(1.01196 -0.00495041 1.61567e-21)
(1.01816 -0.0223341 -6.67769e-21)
(1.01752 -0.0221862 0)
(1.05306 -0.0848455 4.69042e-22)
(1.05106 -0.0817039 -1.25708e-20)
(1.02278 -0.0404578 -2.22931e-23)
(1.02502 -0.0380448 -7.06585e-22)
(1.02583 -0.041366 -2.56227e-22)
(1.01047 0.0249084 3.61334e-22)
(1.01429 0.0244068 0)
(1.01521 -0.0123201 -2.08268e-21)
(0.852159 -0.0520061 0)
(0.856316 -0.0686804 7.70981e-22)
(0.856291 -0.0944443 1.2051e-21)
(1.01493 -0.0363073 -5.93442e-21)
(1.01606 -0.0364834 -6.94473e-22)
(0.999639 -0.0263629 -1.62181e-22)
(1.00022 -0.0251187 -2.18694e-22)
(1.02556 0.00563302 -5.6018e-23)
(1.02605 0.00574413 -2.16326e-22)
(0.997584 -0.0126584 5.34181e-23)
(0.997068 -0.0128616 -3.59805e-23)
(1.02462 -0.0245282 -1.49205e-22)
(1.02639 -0.0249227 9.99155e-23)
(1.02562 -0.0232792 -6.51077e-23)
(0.976133 -0.0310258 -1.00254e-20)
(0.948478 -0.0298753 1.87557e-23)
(0.949256 -0.0302374 -1.41069e-21)
(1.05338 -0.0116559 -1.11056e-21)
(1.05377 -0.0148624 -7.15631e-22)
(1.00861 -0.00958146 2.30202e-23)
(1.00866 -0.00921799 1.33588e-23)
(1.01149 -0.00529049 -7.61751e-25)
(1.01168 -0.00559078 2.42406e-24)
(1.01132 -0.00551566 -2.10004e-24)
(1.01003 -0.000327642 0)
(1.01022 -0.000327394 1.05672e-24)
(1.01155 -0.000382955 -5.3827e-24)
(1.02952 -0.037376 -3.43136e-21)
(1.02851 -0.0377093 8.25776e-21)
(0.916055 0.0530911 0)
(0.902788 0.0999983 1.99187e-21)
(0.755887 -0.135804 7.08796e-21)
(0.751689 -0.0780735 0)
(0.743024 -0.0842099 -3.65466e-21)
(1.03568 0.0101945 1.83974e-23)
(1.03636 0.0105674 -9.96697e-26)
(1.03566 0.0108064 -7.22066e-24)
(1.01298 3.63568e-07 -6.46189e-22)
(1.013 -5.70038e-05 -3.65445e-22)
(1.01306 -7.08047e-06 -1.75591e-21)
(0.860009 -0.0153279 -8.74784e-21)
(0.857233 0.00376419 -5.08573e-21)
(0.998633 -0.0129207 -5.55878e-24)
(0.998465 -0.0123917 -6.17401e-24)
(0.998943 -0.0124124 2.37906e-23)
(0.989309 -0.0806456 5.77174e-22)
(0.993609 -0.0827186 7.80687e-21)
(1.0009 -0.00141931 0)
(1.00047 -0.00227002 4.07437e-22)
(1.0166 -0.00370238 1.67769e-21)
(1.01627 -0.0036012 5.68093e-21)
(1.02162 -0.031427 7.62019e-23)
(1.02075 -0.0314966 5.05252e-21)
(1.02116 -0.032388 4.73346e-21)
(0.998386 -0.0132442 -3.15684e-24)
(0.9989 -0.0132472 -8.35909e-25)
(1.01242 -0.116882 0)
(1.01548 -0.122719 3.05019e-21)
(0.99259 -0.0127134 1.32969e-22)
(0.993284 -0.0120455 -9.34518e-22)
(0.99387 -0.0132117 -3.90685e-22)
(0.51361 0.233817 1.27956e-20)
(0.611143 0.208058 -1.57208e-20)
(1.02572 0.00631907 -1.66024e-22)
(1.02528 0.00623694 0)
(1.02542 0.00591183 8.96218e-23)
(0.882338 -0.0394101 4.82236e-22)
(0.9057 -0.0401376 -1.40194e-20)
(1.02299 -0.0216193 -2.12421e-21)
(1.02364 -0.02164 -2.30411e-21)
(1.01089 -0.016621 -1.741e-21)
(1.01044 -0.0171554 2.04983e-21)
(0.983435 -0.0341071 0)
(0.951292 -0.0335464 -3.75653e-21)
(0.958791 -0.0341368 1.49117e-20)
(1.00972 0.00226661 6.50823e-23)
(1.00964 0.002627 5.91004e-23)
(1.00941 0.00221997 -1.94261e-22)
(0.917912 0.0735004 0)
(0.905163 0.0930169 -5.87169e-22)
(0.933443 -0.0566019 -3.23178e-21)
(0.932832 -0.0565701 -4.34152e-21)
(0.958914 -0.059256 4.79308e-22)
(1.03573 0.00962871 5.23786e-24)
(1.03506 0.00981415 1.11349e-25)
(1.02671 -0.0346266 -1.1512e-20)
(1.02739 -0.0352574 -3.87433e-21)
(1.0263 -0.0356654 3.56951e-22)
(1.01623 -0.0230065 -1.00334e-21)
(1.01654 -0.0237977 -5.63254e-21)
(1.00177 -0.00147659 -7.29443e-23)
(1.00135 -0.000658506 -3.00121e-22)
(0.251269 -0.28872 -4.16966e-21)
(0.24924 -0.30805 -5.97215e-21)
(0.991213 -0.0128312 2.32116e-23)
(0.992194 -0.0140595 1.01166e-21)
(1.01094 -0.00409924 4.55857e-22)
(1.01119 -0.00434948 1.38703e-22)
(1.01086 -0.00444813 1.03215e-21)
(1.00903 -0.0918908 -3.10719e-20)
(1.00185 -0.0868695 -3.25964e-20)
(0.981935 -0.0870555 -3.31045e-20)
(1.01607 -0.00685402 1.15781e-23)
(1.01627 -0.00713688 -3.80771e-24)
(1.01647 -0.0067437 6.93517e-24)
(1.00485 -0.0182052 2.08887e-21)
(1.00575 -0.0180128 9.16537e-22)
(1.02346 -0.0157396 1.86428e-23)
(1.02353 -0.01562 -4.31561e-23)
(1.02342 -0.015581 2.5512e-22)
(1.00783 -0.0314876 6.32014e-21)
(1.0067 -0.0321447 -9.35849e-21)
(1.04252 -0.042835 8.14997e-21)
(1.04319 -0.0425707 1.99195e-20)
(1.04252 -0.0421131 6.98481e-21)
(1.0129 -0.000412305 -2.92676e-22)
(1.01287 -0.00042261 -2.96839e-22)
(1.02523 -0.0399495 0)
(1.02472 -0.041001 5.69909e-21)
(1.02414 -0.0399378 -5.2885e-22)
(1.013 -0.000285697 2.6639e-22)
(1.01301 -0.000330251 0)
(1.01308 -0.000300309 0)
(0.705266 -0.031085 2.93524e-20)
(0.715916 -0.0274591 0)
(1.00697 0.0155903 -1.11296e-21)
(1.00182 0.0170232 4.00587e-21)
(1.00302 0.010978 -1.10409e-21)
(1.02235 -0.00112837 -1.38248e-21)
(1.02297 -0.00110357 8.10498e-23)
(1.02464 -0.0011858 8.50273e-23)
(1.02307 0.0136063 0)
(1.02284 0.0138399 -8.86531e-23)
(1.02269 0.0133188 1.64919e-22)
(1.04234 -0.043693 6.51401e-21)
(1.04175 -0.0431079 0)
(1.01686 -0.0244319 -5.4151e-21)
(1.01762 -0.0245851 2.39142e-21)
(1.01721 -0.011478 3.15172e-22)
(1.01694 -0.0119277 -5.94085e-21)
(1.01673 -0.0114048 -9.63847e-21)
(1.01292 -1.66679e-06 0)
(1.00977 0.00187642 -1.31754e-22)
(1.00995 0.00228444 2.20957e-23)
(1.01061 -0.00387361 -4.77653e-23)
(1.01094 -0.00372843 4.14672e-22)
(1.03163 0.0121176 -1.25154e-23)
(1.02989 0.0256227 9.43866e-23)
(0.022672 -0.0454797 1.73479e-20)
(0.0129412 -0.03539 -1.85944e-20)
(0.872952 -0.133487 -7.70329e-21)
(0.891511 -0.148214 1.88764e-20)
(0.877194 -0.15743 1.056e-21)
(1.00948 0.0315258 1.80116e-22)
(1.00706 0.0358834 4.0138e-22)
(1.01231 0.036284 2.20571e-22)
(1.01485 -0.0342822 0)
(1.00938 -0.0331553 0)
(0.888335 -0.134503 -8.00716e-22)
(0.887881 -0.149928 1.29416e-21)
(0.873523 -0.139345 -7.07296e-22)
(1.01281 -0.000211879 -1.25035e-21)
(1.01868 -0.0309017 -5.52395e-23)
(1.01834 -0.0301706 5.81864e-21)
(0.985034 -0.0785554 -6.92252e-21)
(0.985601 -0.0839586 -1.84458e-21)
(1.0961 0.00361825 2.84678e-22)
(1.1047 0.0160694 -2.92521e-21)
(1.08845 0.017976 -1.9641e-21)
(0.902119 0.0215393 8.1874e-21)
(0.910699 0.0297338 6.26257e-21)
(0.9108 0.0167291 4.33573e-21)
(1.03417 -0.0596773 -8.4406e-21)
(1.03241 -0.0592532 0)
(1.03363 -0.0581672 0)
(1.00981 -0.111456 -1.51206e-21)
(1.03052 0.00945973 2.14263e-22)
(1.02822 0.0106467 3.42851e-22)
(1.02988 0.0117827 2.44772e-22)
(0.964797 0.128739 2.21025e-21)
(0.950112 0.107417 0)
(0.961872 0.0636826 5.55871e-21)
(0.935994 -0.0503658 -7.28283e-22)
(0.90775 -0.0479096 1.96145e-20)
(0.912394 -0.0491816 -3.4119e-20)
(1.01262 -0.000178376 9.85028e-22)
(1.01281 -0.000187577 2.64845e-22)
(1.0195 -0.00914056 1.39683e-21)
(1.0193 -0.0113036 4.83678e-22)
(1.01777 -0.00943916 7.88725e-22)
(1.02095 -0.00719584 -1.70513e-22)
(1.02125 -0.00926638 -1.89191e-22)
(0.906985 0.0230826 3.65631e-22)
(0.91596 0.0124185 6.60472e-21)
(0.89992 0.00981722 5.82774e-21)
(1.0175 -0.0110998 4.35748e-21)
(1.01771 -0.0116427 6.06503e-21)
(0.890853 0.014647 1.47023e-21)
(0.890173 0.0283108 6.30858e-21)
(-0.0717785 0.0569737 1.59643e-20)
(-0.0767661 0.0671844 1.76629e-20)
(1.02119 0.0105447 -2.28271e-22)
(1.02163 0.0108038 1.92559e-22)
(0.982344 0.145774 -1.45551e-21)
(0.966854 0.189237 8.66156e-21)
(1.02335 0.0134789 -4.14851e-23)
(1.02343 0.0139959 1.25294e-22)
(1.01298 -0.000252984 5.94638e-22)
(1.01294 -0.000282093 -1.15648e-21)
(1.01338 -0.000767666 4.41066e-24)