/*--------------------------------*- C++ -*----------------------------------*\
| =========                 |                                                 |
| \\      /  F ield         | OpenFOAM: The Open Source CFD Toolbox           |
|  \\    /   O peration     | Version:  v2012                                 |
|   \\  /    A nd           | Website:  www.openfoam.com                      |
|    \\/     M anipulation  |                                                 |
\*---------------------------------------------------------------------------*/
FoamFile
{
    version     2.0;
    format      ascii;
    class       volScalarField;
    location    "100";
    object      ddt0(omega);
}
// * * * * * * * * * * * * * * * * * * * * * * * * * * * * * * * * * * * * * //

dimensions      [0 0 -2 0 0 0 0];


internalField   nonuniform List<scalar> 
13917
(
0.0496841
0.00134363
-0.000337768
9.80817e-05
0.000721839
0.00104029
0.000564071
0.00407346
0.000415813
-0.091815
0.0057036
5.19678e-05
9.48405e-05
-0.244087
0.000156476
0.252971
-0.000178023
0.00377429
0.00162501
0.413623
0.000935143
4.14702e-05
0.00191479
4.05456e-05
0.000199655
0.00110282
0.0841361
-0.358014
0.00202702
-1.51347e-05
1.43762
0.00232166
0.000102746
0.0670965
-8.24693e-06
0.00718403
0.000238751
4.10371e-06
0.000562673
0.00100315
-3.57931e-05
0.000592486
0.00026482
0.00207425
0.00206548
-0.00118222
0.000814788
0.0129649
0.791407
1.00168e-05
4.861e-05
0.004878
-0.169663
4.48169e-05
5.05971e-05
0.00473595
-4.30953
0.00192684
0.000358572
-0.000526272
-0.422061
0.0114974
0.000184844
0.000183944
0.117261
0.00569043
0.00244584
0.00574119
0.00396475
0.0793605
-0.0123263
0.0673951
3.64685e-05
0.00012896
0.000916965
0.000233139
0.000245099
4.40873e-05
0.000215054
0.000110578
7.84784e-05
-0.000244374
3.39876e-05
0.0516385
6.17181e-06
-0.0101758
0.00225422
1.63149e-05
0.000942526
-0.000151175
-2.37173e-05
0.000279833
1.18366
-4.85677e-05
8.36009e-05
0.00209981
-0.0127429
-0.000174821
1.42071e-05
-0.000152963
0.000103278
9.61877e-05
8.18896e-05
-4.7972e-05
0.000201497
0.470807
0.108698
0.00466688
0.000487297
0.577183
5.14342e-06
0.0691258
0.00191638
-0.782255
0.180706
0.000268022
0.00201829
-3.53937e-05
-0.00041365
2.15445e-05
-0.000151236
7.27135e-05
0.00252344
0.00341913
0.0456165
0.177292
0.00016901
0.00101075
1.37916e-05
0.00306776
0.00108281
0.0105308
0.158301
0.000263562
0.00244291
0.538347
-0.970788
0.0733584
0.0012814
8.75105e-06
0.00565463
2.353e-05
0.46549
1.66608e-05
3.01806e-05
0.00413319
0.0117558
-0.0411767
0.292904
4.80294e-05
0.000867046
0.000123239
2.7737e-05
2.16658e-05
-0.0201709
5.5391e-06
-4.48282e-05
0.107656
-6.54941e-05
-5.07776e-05
1.01875e-05
-0.00603219
0.000385439
-0.0311428
0.00274666
-0.00164823
0.631017
0.432528
-4.95262e-06
0.0014589
4.6461e-05
0.14239
0.000412867
-0.106051
0.00328323
1.58453e-05
9.80407e-05
0.00434323
0.00101204
0.000431391
0.000256128
3.82517e-05
4.84921e-05
0.00515319
-0.000717674
0.0114312
4.56212e-05
0.00576855
-1.4093e-05
-0.00466859
0.00331737
0.00207158
0.0045729
0.0748518
-4.66487e-05
0.0507716
0.000430483
0.204175
-2.25072e-05
1.86351e-05
0.000714694
0.09777
0.243587
0.000187568
0.2446
0.00133281
0.00089413
4.00364e-05
0.00427564
7.81258e-05
1.47697e-06
0.0018743
0.00337397
0.501704
0.00239521
0.00115784
0.0345127
-4.88544e-06
-5.03018e-06
-3.73312e-06
0.823423
0.00478582
0.00515638
4.16373e-06
0.000190662
0.935737
0.206734
-2.09536e-06
-1.36363e-06
-4.53103e-05
-5.31416e-06
-5.37735e-06
0.0640322
0.580078
5.7337e-05
-2.56474e-06
0.00346829
0.0587231
-0.000135175
4.02397e-06
0.243143
0.499704
0.0038857
0.0420012
0.0042235
1.70085e-05
0.056761
0.00351924
0.00166674
0.00245616
0.00017154
0.980774
2.44758e-05
0.00152447
0.00280417
6.3534e-05
-3.37525e-05
0.000182576
-0.000198011
-0.000255054
0.038593
-0.149654
7.99483e-05
-1.18765e-06
2.66302e-05
-1.62443e-06
2.44091e-05
9.47313e-05
0.00145223
0.000142673
0.0462851
0.104683
2.71197e-05
7.21361e-06
-0.00826193
-1.90672e-05
-8.65792e-06
0.0363298
-1.9161e-05
0.0547618
-0.000197131
-0.0238471
2.99857e-05
0.000144216
6.76953e-05
1.53129e-05
0.000517622
-4.51283e-05
0.0108659
0.000600566
-0.252827
0.0136543
0.0165152
0.0416546
-6.07664e-05
0.00231021
0.000146226
0.000291507
0.000486326
0.000212855
-7.9612e-05
-5.26693e-05
0.00434216
-0.465687
0.00143254
0.000197965
4.12647e-06
0.149709
0.29416
1.07018e-05
0.000409079
0.000294189
0.389467
0.00283416
0.103705
-0.0953084
0.0010233
0.00738939
-0.000159934
0.0192773
0.362796
-0.000231638
9.3499e-05
0.000123912
0.1257
4.16247e-05
0.00169793
0.00213668
-0.000176272
0.140179
7.10757e-06
0.00152859
-3.65407e-05
-0.238694
-3.29603e-07
0.00132545
0.00140462
0.000469374
-0.000125405
0.00239322
0.212201
7.74243e-05
4.12783e-05
0.0670336
0.289457
-0.210944
-0.15619
-1.34755e-05
5.61195e-05
0.509847
0.00730869
-1.25934e-05
0.000461158
4.46994e-05
0.000586188
0.00140096
0.00386857
0.00451131
-0.000363229
0.00152194
0.0779811
1.57394e-05
7.8167e-05
0.000832242
-0.00114356
-0.000166607
0.216001
0.00148325
0.0354715
5.36328e-05
0.0054916
0.000775735
0.669456
-0.000276175
0.00502988
-0.0108009
0.00169233
2.96791e-05
-0.020361
-5.74021e-06
-0.0165157
0.00477479
-0.000206592
0.876671
8.89084e-05
0.0507719
-1.5864e-05
0.146837
0.0106407
0.000201021
1.22185
-0.000464073
0.000143004
-0.0249433
0.0108966
0.000169138
0.00103584
5.10541e-05
-0.000418642
-0.000718053
7.3563e-06
0.000500288
0.000197582
1.46424e-05
5.02034e-06
1.60398e-05
-1.04471
0.00169445
6.46674e-05
1.88203e-05
3.28033e-05
0.00226348
0.000689131
-3.55358e-05
-5.13223e-06
0.00316505
0.00634118
1.64014e-05
0.000189949
-0.381072
0.0384219
-0.000506607
0.00140454
-0.0281873
1.8369e-05
-2.8953e-05
0.000829295
4.49806e-06
-3.53998e-05
6.1532e-05
-2.9459e-05
1.64108e-05
0.272589
5.41534e-05
0.00109809
0.0231084
0.00231556
2.1513e-06
2.59138e-05
-0.0193554
0.000716156
0.177907
-3.46089e-05
8.96351e-06
-2.57371e-05
-5.07921e-06
0.000224153
0.000102708
-0.60024
-0.109008
0.619626
8.85251e-06
0.00130659
-0.0681053
7.3848e-05
0.00400298
-0.370279
4.2026e-05
0.417136
3.63435e-06
2.06997e-06
3.0317e-05
8.91544e-05
-6.39665e-07
2.49223e-05
0.126866
-0.126023
-1.31869e-06
0.0206993
0.00295963
2.07515e-05
0.00254339
0.00280027
0.0220105
0.000573354
0.461521
-0.023511
-0.0213754
0.000102708
0.00295289
-0.0749441
0.000156519
0.01283
-3.56883e-05
4.13774e-05
8.43907e-05
0.000454396
0.000821042
-0.000150564
0.00213487
0.0129469
4.95959e-06
0.00308969
0.00160284
6.50874e-05
-0.1105
0.00143246
0.000603591
-0.0488451
6.17958e-06
0.0018493
0.00517707
1.34584e-06
0.00521424
1.87679e-06
-4.41565e-06
0.00235143
-3.88498e-05
1.44447e-06
0.00375793
0.0799834
1.1685
9.5594e-06
0.000114266
0.00175266
0.0102141
-0.0475547
5.70127e-05
4.74496e-05
8.42049e-06
0.00262568
-0.101628
2.02981e-05
-0.000138297
9.09376e-06
1.34542e-05
0.00350635
0.000684764
-6.05075e-05
0.00216562
1.06764e-06
3.67667e-05
0.000184828
0.0976261
-3.51913e-06
0.000247516
-0.000168979
0.00120961
0.00288173
0.000838136
0.00290989
0.000243924
0.000160197
0.00313721
0.247892
0.339965
0.00975378
4.60493e-06
2.65891e-05
0.0386882
1.85447e-05
0.227229
-2.57503e-05
-0.112216
0.000430988
0.421089
-4.30579e-05
0.000263235
-0.837895
-2.06562e-06
0.00233836
-0.00013927
-0.00165417
0.313215
-2.39322e-05
0.00287016
0.000167108
5.04907e-05
2.83007e-05
0.000483411
0.00237498
2.10194e-07
0.00217014
0.00250551
-0.359295
-0.0330122
0.186326
0.0173027
-3.65777e-06
0.128811
6.19891e-05
-0.584648
-0.0344332
3.1021e-05
0.00150749
0.00011355
0.0013646
0.000227447
-2.80082e-05
-0.00012353
7.79304e-05
-0.0305399
1.11743e-05
0.00214715
3.87776e-05
1.04251e-06
-7.48331e-05
0.00385487
-0.118709
-0.765587
0.00242057
0.000681048
-0.00569979
0.0522039
-1.79011e-05
-0.0578774
7.34533e-05
0.00356733
1.86366e-05
-0.0247829
1.2648e-05
0.00324976
3.21867e-05
-0.262544
0.00148574
-0.0573923
-5.22614e-05
0.00133293
3.70347e-05
0.000120674
0.0794839
-0.0035595
5.32832e-05
0.00432653
4.14576e-06
-0.00110526
0.000134336
0.0840842
1.11594e-05
8.5699e-05
-2.69264e-05
4.02394e-05
-0.00102401
0.000110116
0.00342298
-0.000243793
3.64772e-07
-0.900105
0.00221123
5.25505e-05
-0.396021
0.0032765
0.00388082
0.0044307
-2.78197e-06
0.00011647
0.0931424
0.00982077
0.000717272
0.000240677
-0.000426358
-0.000158292
1.21594e-05
-0.000535342
0.003134
0.000348763
-0.0437797
0.00152493
0.118317
-0.0927343
-0.447218
0.00127892
0.00422035
0.050645
-7.66993e-05
-0.0146695
-0.00222916
7.24644e-07
-5.83849e-05
-6.37345e-05
0.023783
1.42271e-05
0.057136
0.00121861
-2.06275e-05
0.00216737
-4.8452e-05
0.103928
-0.000224211
1.49484e-05
0.0438314
0.00275917
-0.0154793
4.67722e-05
0.000184817
1.36273e-05
7.95454e-05
0.000715629
1.41833e-05
0.0695566
0.000729084
-0.0103555
-0.016787
-0.00727136
0.187203
0.000115712
-8.88405e-05
4.45693e-05
0.0325803
1.25019
0.000459204
0.00313336
0.464688
4.41052e-08
1.29559e-05
0.000223439
0.299927
-0.0547729
0.00149733
7.78938e-05
0.000247514
0.00358295
7.04422e-05
0.00391176
0.00123365
7.8607e-05
0.000112656
-9.08983e-05
0.000706001
4.06673e-06
0.0154693
0.000320885
0.0103217
0.0881604
0.000215531
0.315345
0.000215435
0.00087233
0.000429578
0.00677014
-0.000137601
0.00219402
-0.0711639
0.00507294
1.99164e-05
0.000322231
2.51319e-06
1.19156e-05
2.84805e-05
0.000738844
-0.166818
0.00377394
0.00339298
-4.22892e-06
0.0146336
0.000412284
0.000462804
0.00369101
6.05408e-05
0.00236632
-0.00313056
4.89478e-07
0.00274099
0.00373545
0.0012161
7.67796e-06
7.52305e-07
1.20946e-05
0.268809
9.7889e-05
-0.000161482
0.0015267
1.51974e-05
4.09278e-06
0.00467289
0.00210872
0.00195676
0.0566411
0.000777305
0.592662
2.75211e-05
0.000286433
0.000174913
0.000621709
0.0769104
-0.000143549
-5.81002e-05
4.63173e-05
0.000358771
0.000444829
7.50054e-06
-0.0312307
-8.61504e-06
-0.0496193
0.000220568
0.000569801
-4.04153e-05
0.00258253
0.000145627
-0.0708042
0.00201375
-0.00021025
0.100743
0.000119919
0.0556205
0.000203155
-0.0281996
5.63305e-05
-2.08458e-06
1.84011e-05
0.0998307
0.000696105
0.000178577
-0.0414855
1.14071e-05
0.00123808
-3.97118e-06
-3.68126e-05
0.217583
-2.11739e-06
0.132765
0.000254879
-0.00485938
0.00211753
0.220675
-7.5266e-06
-4.18026e-05
0.00456034
-3.55448e-06
4.26917e-05
0.000153227
2.3598e-05
0.00150637
-7.45748e-06
-0.00492664
7.82558e-05
0.0733375
0.0564635
0.37558
0.706078
0.452455
0.289194
0.52094
-2.15805e-06
-0.0005605
2.9577e-05
0.0001158
9.04734e-06
0.000706076
1.53619e-05
0.0125325
4.55274e-05
-0.0157776
8.95764e-05
0.000910786
0.00431293
5.03717e-06
0.00103225
0.000119447
-0.00104138
0.000472062
-7.04924e-06
0.182169
0.00333986
-0.0143313
1.02467e-05
7.38497e-06
4.32891e-05
-4.95013e-06
-0.0350792
-1.45331e-06
0.000683054
1.15582e-05
-0.0112488
0.000130881
1.67027e-05
0.00222716
0.0182559
-1.13167e-06
0.0322875
-0.0194952
0.000205894
0.00242372
-6.32487e-06
-0.00098866
0.000452152
2.3106e-06
0.073485
-9.6654e-05
0.000106516
0.00228267
0.0817914
0.000400146
0.60559
-0.0108676
2.45034e-05
0.00012562
2.50873e-05
-0.0279173
7.44553e-06
0.00180481
4.31962e-05
0.0166284
0.000129224
-0.444076
1.74527e-05
-1.10908e-05
-0.0250053
1.61954e-05
8.6482e-05
0.309381
0.000139705
4.59618e-06
0.000923179
-0.000134768
5.32466e-05
0.00315447
0.000159253
0.173602
0.00108237
0.00271569
0.00415095
0.000240618
0.0277478
9.19599e-05
0.00290871
9.89739e-06
0.0407237
-0.0215264
4.92089e-05
0.000434042
-0.000585341
5.71697e-05
2.26986e-05
-7.70578e-05
8.23155e-05
1.67811e-05
0.00072034
6.47987e-07
0.000126505
0.00240059
0.04574
-0.0127762
0.00235794
4.42244e-05
0.00768597
1.2896e-05
-0.00292988
-0.0472709
0.478741
-9.14939e-06
-1.90499e-06
1.71929e-05
4.00509e-05
-7.27719e-06
-2.51724e-05
1.2228e-05
0.00137044
4.77439e-06
0.151439
0.18529
5.52388e-06
0.133903
1.05099e-05
1.43503e-05
-0.000718289
0.0866138
0.00171877
-3.02745e-05
-0.0228756
-8.90004e-06
2.01233e-05
0.0094125
-8.32006e-05
-0.0172442
0.000115009
0.0195583
2.83236e-06
0.000113042
0.000706051
0.0749452
0.000152931
0.0531644
0.0724596
-3.354e-05
0.000150913
8.64266e-06
9.59801e-08
0.00250007
0.00114338
0.000333109
0.0281999
0.116005
0.0370564
0.0026726
7.83536e-05
0.0153196
7.76776e-05
-0.149522
0.00274841
0.000504768
0.000134665
-0.202744
1.03341
-0.0156441
0.000336476
-0.0798367
4.84399e-05
1.54714e-05
0.00122004
7.39476e-05
4.04861e-05
0.0134081
0.127808
0.000111835
0.000585992
0.0588985
0.000186741
-8.9408e-06
-0.163431
0.0924921
0.000105711
9.17507e-05
0.00051531
2.55954e-05
1.86448e-05
0.000831602
0.000289456
2.70893e-05
0.170328
0.000326779
0.00878857
0.0203386
0.0388415
0.0375075
4.84905e-05
8.43506e-05
0.0270414
0.0849292
0.077144
0.00108293
0.000826969
5.84465e-05
0.000118673
0.000372059
-0.0542414
0.045264
3.58552e-05
0.00202473
1.51538e-05
0.00291631
0.00269713
0.0028154
0.00219721
-0.00111108
-0.0475215
-0.756001
0.0385955
1.08019e-06
0.000544903
-8.92769e-06
0.00250506
0.0034563
0.271804
0.000334844
-0.00141285
0.000394821
0.121095
0.0001434
-0.0242033
0.00124262
0.00387313
-0.14593
-5.98008e-05
0.00334929
0.000186019
4.30117e-05
-0.00423967
0.014309
1.02498e-06
-6.76075e-06
0.000137851
0.113765
4.34485e-06
0.000139365
0.00022742
9.22968e-05
3.09725e-05
0.00433114
0.00260204
3.84181e-05
6.82134e-06
-0.00266055
0.0275652
0.000915693
0.0481095
5.64187e-05
8.95952e-06
0.975844
-0.000185266
0.000155695
0.0412923
0.0257533
0.000703775
0.00245422
0.000423807
0.20278
-0.000863628
0.000759459
-0.0185131
1.69075e-05
0.00351715
0.0366114
-0.000421365
-0.236297
0.268948
1.64726e-05
3.40489e-05
7.01693e-05
3.30699e-05
3.99764e-05
0.0185447
-7.7648e-05
0.00190763
-6.40606e-06
0.00211125
0.0146757
0.000159898
0.0156687
0.187766
1.03095e-05
0.00273865
0.000307669
0.000135519
1.2938e-05
0.0114067
0.00254472
0.0570306
0.000491699
-0.269338
0.00382341
0.000238562
0.237366
0.00128097
0.000160879
1.73926e-05
0.000179054
1.28939e-05
0.000360343
0.0010257
0.000273726
5.96255e-05
0.00211418
-0.475868
1.05386e-05
0.00272108
0.0317628
4.33692e-05
1.21658e-05
0.0015493
0.000657307
0.00228012
-1.262e-05
0.000840802
0.00835193
0.355579
0.208052
3.59335e-05
2.34455e-06
1.87142e-05
8.58529e-06
1.40341e-05
0.000206086
-0.00343663
6.63651e-06
0.000303486
0.00964585
0.00680228
0.00238915
0.0879956
-0.191363
4.83541e-05
-2.15948e-05
2.51063e-06
0.000117661
0.00255259
0.208972
-0.0265286
0.00444746
0.000715108
0.00191175
0.000219882
0.00245382
0.00033767
0.00221796
-3.18202e-05
-0.00314603
0.00974197
-1.71707e-05
3.97646e-05
0.0525328
0.00211903
0.0110558
0.0188612
0.00375291
1.41164e-05
-0.0119812
-1.33264e-05
5.71001e-06
-0.268799
0.079186
-3.66238e-05
0.000817629
0.0023718
0.000784283
0.000101455
-7.06017e-06
1.26152e-05
5.74748e-07
1.07599e-05
0.000753219
0.00156524
0.0621604
0.000810133
0.000432693
0.000981622
0.00374635
3.27414e-06
0.000828117
0.00589593
0.00712338
0.111337
0.000118499
-6.76032e-06
0.0238662
2.31968e-06
0.073307
0.000162382
0.00108668
6.07223e-05
2.2514e-06
0.0144589
0.000462339
0.000108645
7.2979e-06
-0.12962
0.00622
0.0493916
5.2276e-06
3.39384e-05
0.378124
-4.64738e-05
4.77335e-06
0.00696292
-0.174385
0.000446937
0.00114173
9.45137e-05
0.000677263
6.55452e-06
0.000184522
5.97447e-05
-5.76155e-06
0.0080249
7.35157e-06
1.92195e-08
0.0166499
0.00208744
0.106191
0.00230774
6.29901e-06
0.00085794
4.73247e-06
1.04121e-05
0.000151245
3.70262e-05
3.8643e-05
0.00513884
3.5198e-05
0.00318308
-0.00192733
0.0297191
2.73085e-05
-0.000934193
1.42043e-05
0.00152328
-3.62921e-06
0.0650561
0.00234554
4.16213e-05
0.00200922
0.00114544
0.000905463
3.26462e-05
-6.7339e-05
4.37089e-06
-1.70605e-05
0.000593509
0.000969195
0.112432
-3.67898e-05
5.79582e-06
1.28408e-05
0.00238253
1.53486e-05
0.0566372
0.00196011
0.000152997
4.44464e-06
-1.13872e-05
0.00194193
-0.00272664
0.993852
0.113592
0.0121985
0.0298731
0.00397334
0.000137094
-0.229057
-6.31495e-06
-2.89507e-06
0.000320899
-0.00157077
-1.28991e-05
0.0628473
4.01932e-05
-4.82628e-05
0.00687064
-7.03806e-05
0.184565
-0.0252947
0.000410935
0.00880348
-0.0127487
-4.46617e-05
-0.256303
1.06939e-05
3.05471e-05
-0.127653
-8.44738e-06
0.0551577
-0.0467469
1.0923e-05
1.8257e-05
-6.3401e-05
0.219035
-3.52363e-05
-7.1463e-06
0.00225569
6.06203e-06
3.12192e-06
0.000207422
-3.10493e-05
0.00173353
4.27721e-05
5.53087e-05
-3.64513e-06
0.000284408
0.00128486
-2.89901e-06
-2.68546e-06
0.000100045
4.56793e-06
0.000254371
1.17279e-05
-0.000148448
4.49009e-05
1.32196e-05
0.000106248
2.69192e-05
0.0023955
-1.12179e-05
0.00261492
3.69925e-05
0.0024077
-1.52142e-05
3.66075e-05
1.4718e-05
-9.65617e-06
0.000859988
0.000135279
0.000372702
0.0394978
0.0384616
0.0760632
0.0806174
0.00236711
0.818567
3.6954e-05
2.48404e-05
-0.0115729
-0.156544
6.94778e-05
0.0455343
-1.53246e-05
0.00307376
0.540629
0.000243788
0.0029784
-0.600251
-0.230448
-5.56099e-05
0.00179596
6.23388e-06
0.124718
0.000296253
0.0401827
0.226174
4.6565e-05
0.000432083
0.0164787
-0.000200788
0.0108293
0.000994865
0.000167973
4.88849e-06
-0.0021556
0.0287619
-4.26225e-05
0.00100577
5.90338e-05
0.00876064
0.00401616
3.58624e-05
-1.30914e-05
-0.0180385
6.2626e-06
9.9431e-06
8.52686e-05
-6.28141e-06
0.00497041
7.34985e-05
0.000696867
0.0121861
1.08467e-05
0.000648534
3.31306e-05
-0.00433943
0.00235316
0.193017
-1.68566e-05
0.000611643
2.80876e-06
-7.32671e-05
0.000236471
3.06665e-05
0.0133134
0.000122435
-5.43961e-06
1.06122e-05
0.0102491
4.80686e-06
0.234585
-0.439997
-0.00802463
1.53755e-05
-2.46676e-06
8.00289e-06
0.531966
5.28794e-05
0.197636
-6.38394e-05
-0.00544471
0.000150413
-0.0020752
0.00464562
4.07418e-05
-0.000136551
0.0351245
0.00211047
0.0682635
-0.000449786
0.565408
-0.0654875
3.74477e-05
0.0456822
4.65737e-05
0.000144655
-0.032821
0.000131483
0.00170089
0.059594
0.000707513
0.00251236
2.35774e-05
-0.000611801
1.15953e-05
0.269413
7.17771e-06
0.060786
1.16297e-05
8.00254e-06
1.87283e-05
-0.0626783
3.19034e-07
0.0346716
0.00181472
-0.200189
1.24589e-05
0.000629745
0.191714
0.00452475
0.0132285
0.00343606
-1.6034e-05
0.00359333
0.00453381
0.000185747
-0.00172071
-6.55774e-06
0.00496339
0.00659172
-2.67563e-07
0.218691
4.54523e-06
0.769612
-0.00426716
0.000224026
0.000174308
0.271889
-0.0318581
6.61969e-06
0.000153907
-6.97218e-06
3.88227e-05
0.281908
0.00273484
0.014782
5.45699e-06
0.000523093
0.0458223
-0.0505214
0.495775
0.00103223
6.16457e-06
8.69301e-06
0.00247412
-0.41294
-0.204168
0.497894
0.00645227
0.000895625
-0.00278995
0.221526
0.00735744
-0.148977
4.99582e-06
0.00341298
0.00187586
0.00317667
2.40479e-05
0.000458799
0.00250274
-0.00333496
0.318047
0.00024456
-0.64512
0.0206847
0.00156433
7.82938e-06
8.57262e-06
0.00186524
-1.09107e-05
0.130628
0.000562042
-0.0012012
0.00377212
-0.165931
-3.45688e-06
0.00129669
0.000810486
2.54845e-05
0.247719
0.0725942
0.197553
-4.92664e-05
0.0543217
-0.000593535
0.00186886
-9.45872e-06
0.000418384
0.000774255
-0.00832765
0.00440928
0.00232653
0.258503
-0.00713289
-2.43461e-06
0.000380486
-0.000633901
0.00283287
0.1949
3.60028e-05
-4.40696e-06
0.000134477
0.000194314
-0.0160309
-4.75687e-05
0.00143879
0.00416224
4.85875e-06
-0.172013
0.000204466
0.215771
0.000131565
-0.0705312
0.319821
0.000679359
0.000225414
-0.00465518
1.19133e-05
0.00153994
0.104208
6.70955e-05
-0.000578023
0.000929906
0.00207466
-0.614082
0.572611
2.34126e-05
0.837904
-0.00318882
-8.85855e-06
0.0026512
0.00293536
0.00531847
0.0125847
0.0259765
0.565053
0.00440021
0.106188
0.000450202
0.0024819
0.00011653
4.10285e-05
2.96548e-05
3.83368e-06
0.00638774
-0.00385202
2.8153e-06
0.00208709
0.00278884
1.14281e-05
-0.0720026
-0.0575315
-1.5354e-05
5.04597e-05
0.000139252
0.000100228
0.00168041
1.1719e-05
-0.0250828
0.000801562
0.00319814
0.000256637
0.00295346
-0.00282002
0.0004511
-0.429816
2.56454e-05
0.000108821
-1.49727e-06
-3.49444e-05
0.244506
0.00315857
0.000615564
-0.452004
3.29484e-06
6.76032e-05
0.000879202
-1.61571e-05
8.63033e-05
0.00179662
0.000380638
0.0760078
0.208622
-0.126874
2.00206e-05
-0.86043
1.22409e-05
0.00959659
-4.24495e-06
0.000844716
-0.193439
4.77598e-06
-0.00879631
0.059708
0.000828231
1.81056e-05
-4.40805e-05
0.000505626
-0.102455
-7.51999e-06
5.17232e-05
-4.08654e-05
8.49257e-06
0.00299797
4.40515e-05
0.000394576
6.39409e-06
-9.24202e-05
-0.00481436
0.00114014
0.000161353
0.00286043
0.00430873
0.0500793
0.284559
1.43695e-05
8.83276e-05
0.0994413
2.61698e-05
0.00249987
2.62463e-05
0.327424
0.00016442
1.91062e-05
0.000863912
-0.0357657
7.6383e-06
-1.73489e-05
-5.66602e-06
0.00479121
0.209889
0.00429613
5.59966e-06
0.000138065
4.74008e-06
0.00564971
0.000199229
-0.0237727
0.00207747
4.19626e-06
0.00510983
0.000691718
-0.00617041
6.21251e-05
-6.27987e-06
0.000695125
0.0016517
0.00681433
4.53852e-05
6.42021e-05
0.000136619
0.0841789
2.6719e-06
3.65952e-05
0.513635
0.00014998
-0.0881551
0.000321597
1.26927e-05
-0.000109421
-0.0214972
0.000197706
-1.06473
0.00941393
-5.77729e-06
-0.0305343
6.09014e-05
0.00434173
0.00176712
4.21596e-05
-1.92333e-05
-9.08981e-06
1.15131e-05
0.861766
0.00179443
0.00179101
0.102462
5.01761e-06
-0.110108
0.000900768
-0.0161849
1.53487e-05
-0.0104315
0.551587
0.111774
-2.51973e-05
0.000168052
7.70617e-05
0.383017
0.245889
-0.00102199
7.26422e-06
0.000891668
0.0344418
3.96293e-05
0.000177248
0.000117923
0.00316185
-0.00136412
-6.90057e-06
0.012436
6.39162e-05
7.51425e-06
-0.0513916
0.00207712
-0.0349789
0.193327
0.000745928
0.000149122
3.99255e-05
0.000422584
7.38804e-05
0.00422607
0.000926288
-0.000187813
0.000305507
0.00207913
0.00691056
-7.89386e-06
0.00413508
-0.854234
-0.0288625
-0.000103934
3.08432e-05
0.00240846
-0.0222712
0.00965474
1.37261e-05
-0.250437
0.00249582
-3.98667e-06
0.061
0.000475189
4.75422e-05
-8.64358e-05
2.2306e-05
0.13514
-1.03268e-05
-1.05545e-05
1.81294e-05
-5.5131e-06
0.10894
-3.77102e-06
8.10188e-06
0.00284966
0.000361692
0.000196546
0.00122237
3.4457e-05
6.42195e-06
0.000144155
0.000103187
0.0106278
0.00219888
-0.00402055
0.590431
-0.000677972
0.0332868
0.00277665
0.0510599
-0.355089
-0.195669
2.72802e-06
0.000709285
1.62093e-05
3.73086e-05
-4.66942e-05
-0.00114866
0.00526285
0.00212348
0.00103864
1.07231e-05
8.37193e-06
0.00208182
5.25489e-05
6.05977e-05
3.60016e-05
-0.00949523
0.000727462
0.273292
1.83092e-05
0.00284897
6.81053e-05
1.00974e-05
7.24346e-05
0.00159357
1.05461e-05
0.00363894
0.075369
0.000913729
0.0397088
-0.0151462
-2.20254e-05
0.00052369
-0.0479394
0.00395391
-1.78847e-05
-4.39981e-05
-5.88768e-06
0.104852
-1.22094e-05
0.00613214
-0.0019128
0.00338348
-0.616034
-0.250314
0.00227888
0.234489
-3.63914e-05
-4.40604e-06
0.00913922
0.0286507
2.24007e-05
2.23598e-05
0.0433738
4.86293e-06
0.00495938
3.99091e-05
0.000195204
0.000336959
2.45215e-05
0.00324006
0.0911535
0.0698422
0.000334906
-4.09708e-05
0.00194376
0.000126384
0.00348294
3.28736e-06
0.00187677
0.0027355
6.05726e-05
4.39374e-05
-2.06779e-06
0.00690362
-0.00528953
0.0032095
0.00665537
0.000644339
0.0605785
0.00241367
0.00309199
0.624795
1.27398e-05
0.0974029
0.000105918
-0.012375
0.00757803
0.0958799
0.369738
-0.000264605
0.00225624
0.00250408
1.80159e-05
0.0604148
3.24201e-05
2.60839e-05
0.000451515
8.60502e-05
0.000898053
0.0194113
-0.0169365
-0.0787576
0.0004123
0.000931415
0.000114468
-6.63782e-06
3.08779e-05
0.00390687
0.00232434
-0.1656
0.00156131
8.1671e-06
-4.94897e-06
6.56282e-05
0.00820872
0.000203768
8.29138e-05
0.000325035
-0.000237866
0.000984523
0.00170075
-2.5664e-05
0.0907923
0.00061226
0.00107475
1.53516e-05
0.000459524
-0.0128314
0.00423139
0.000979305
-1.64563e-05
-0.0622446
0.00103668
1.27267e-05
0.00209306
0.0733147
-0.00248974
0.000816889
4.69787e-06
-0.0339637
6.42417e-05
5.0443e-06
1.07106e-05
-0.0768233
-0.0087129
-6.01477e-05
0.0186277
0.0761357
5.19352e-05
6.60254e-05
0.00255204
0.188325
0.000686007
0.241563
6.57719e-05
0.00635943
0.0270211
0.406445
0.00111339
-2.87354e-05
0.0444307
1.64444e-05
9.69199e-05
0.239669
0.0948667
-0.00276744
-0.00453609
0.000305815
0.000140738
-0.026715
1.35867e-05
7.58326e-06
2.04028e-05
0.00190368
1.44737e-05
0.000425277
6.07891e-05
-0.000499398
-0.016113
9.36401e-05
0.0422495
6.44936e-05
0.052423
0.0373036
2.22625e-05
4.81237e-05
0.000409348
0.00137501
0.00454002
0.00299696
0.0733287
0.04743
-0.0124714
4.2574e-05
0.0440242
0.100347
-0.00309185
-0.0146467
4.14214e-05
1.82091e-05
1.71261e-05
9.28893e-05
7.64271e-06
0.00110081
0.0588864
8.52681e-05
0.00641104
1.00102
0.00780786
-0.128173
0.0623339
0.000134702
0.257609
0.00394121
0.00230738
-5.15767e-06
2.06823e-05
0.00239732
0.0287116
2.98455e-05
-0.223713
0.0341002
4.36524e-06
3.21008e-05
-0.000316227
0.00279483
6.97705e-05
0.0031716
0.10032
-8.71257e-06
3.32612e-06
3.2808e-06
9.87468e-05
0.00245092
0.0724421
0.00107877
0.131331
0.00398459
1.12362e-05
0.0088873
0.00651994
-0.000155196
0.00369336
-0.0127235
-0.14012
0.0258748
0.0394543
1.93323e-05
-0.01142
0.0590332
0.0042496
0.10087
-3.51389e-05
0.000155805
0.00022395
0.000200834
0.421015
0.00298201
4.66154e-05
0.000494132
-0.0313403
0.0454545
-5.09137e-05
-0.000806488
0.0759387
0.0500763
4.07118e-05
0.000509804
0.00454306
7.77952e-06
6.75626e-06
-0.0329779
1.11548e-05
0.0120556
0.00713444
0.518318
9.9425e-06
0.00130052
0.000692685
1.10239e-05
-9.63261e-06
-0.193405
-0.131019
-1.11691e-05
0.000379022
0.00523548
0.006485
0.168477
0.0103526
0.000370404
0.0177003
-0.0482012
0.00106064
6.39317e-06
0.00702398
-4.32016e-06
-3.80996e-06
0.0697494
0.000884697
0.00411462
0.000305629
-0.00068235
-9.07632e-06
-7.41223e-06
8.99554e-05
0.000111566
-0.049611
0.000279714
0.00103573
0.0717666
0.00142786
0.00265708
-0.378587
0.507137
-0.0520217
0.000240207
0.000346283
0.0011197
0.000350819
0.00422893
-0.000784149
8.5412e-05
0.000710879
0.0301374
0.000417731
0.00228042
0.00282732
0.0022419
0.00233212
0.000147839
0.00212009
0.00221948
0.00247292
0.00233608
0.00267453
0.00301036
0.000107533
6.75668e-06
0.00108554
0.00226554
1.08679e-05
-0.00323303
0.235117
0.0032324
0.0478074
-3.05095e-06
-1.74639e-05
-0.00297985
0.0381153
0.000102964
0.00018697
0.00234957
-1.58117
0.07702
3.13505e-05
0.000700913
0.00036405
-0.646981
-0.0353683
0.000274664
-0.00155247
0.0494235
0.00205142
0.126968
0.0041814
0.00512545
0.213036
-5.26509e-06
0.341955
0.0187356
0.000106568
0.00308837
0.00426254
0.000144616
-6.47993e-06
-0.00194622
-0.110894
2.14609e-05
3.41814e-05
-0.472087
-0.00547859
0.00355996
4.82217e-05
0.00234887
0.00420922
0.0405347
0.0227794
2.92444e-05
7.19949e-06
9.81047e-05
-1.20938e-05
0.353369
0.116548
-0.0609603
0.00238509
0.0064427
-0.185715
-2.70527e-05
5.0565e-06
0.0416055
-3.49709e-05
0.274411
0.000179615
0.100353
0.000127127
8.68355e-05
0.276251
4.49491e-06
0.00202439
0.228643
9.88758e-05
0.000133576
0.000140608
0.00410029
0.0620524
0.00466165
0.0466714
9.57324e-06
-7.48265e-05
0.000626087
0.00343162
0.244453
-0.318862
0.00430789
0.00163219
0.00146109
-0.0269414
7.69394e-05
-3.78844e-05
-8.54466e-06
-5.02678e-06
-0.0012313
0.00443268
-0.101474
0.000926353
0.00120921
1.32771e-05
0.0258874
-0.0315883
-0.553262
5.43643e-06
0.00015505
-9.70749e-06
0.052636
0.0157736
-0.0971288
5.79644e-05
0.00157923
0.00375627
-3.19764e-06
0.00144246
0.00312742
-0.000681094
-0.00346796
1.52567e-05
0.00133487
6.42853e-05
9.66844e-05
0.0024106
0.464077
0.0301908
5.19313e-05
0.00386291
0.0131306
-0.227233
0.026538
0.542621
0.542404
7.89892e-06
0.00274736
9.31944e-06
0.00108445
-4.13058e-05
0.00469513
0.000117265
0.00213821
-0.00315167
0.291665
1.34167e-05
-0.000411806
0.0230716
0.00354108
0.000121482
0.0908492
0.00323012
-0.000201458
4.99607e-05
0.43263
0.000657339
0.00408765
-0.00114802
-0.0264874
0.0825861
-3.05231e-05
0.0698985
0.0815753
0.356471
0.00625163
0.000947781
0.00199369
0.00222811
0.521422
0.000579107
9.01387e-05
-0.0101245
0.00055739
-8.01219e-05
0.000494024
0.00989092
0.00776532
-0.0132687
0.00046614
-0.178035
0.000247912
0.0742963
0.00286388
-0.0285439
0.197512
4.92736e-06
-1.2968e-05
0.0494002
0.364766
0.0836603
8.16535e-05
0.000925135
5.08736e-05
0.123167
0.00644112
0.0154407
0.000383337
0.00845935
0.00393241
1.06873
8.59632e-05
0.006119
-0.0800562
1.73894e-05
0.00258945
-3.89361e-06
0.000294028
3.31842e-05
0.0102681
1.56797e-05
2.28788e-05
0.217019
-0.0137754
-5.92352e-06
0.301899
0.000104986
2.13803e-05
1.16347e-05
-1.38735e-05
4.58283e-05
0.00386107
0.148774
-1.27193e-05
-0.00371575
0.00236533
0.00178795
-0.0160775
0.00235103
0.00035478
0.000997832
4.546e-06
0.00855161
0.000574243
0.27679
2.70193e-05
0.178728
-0.00594199
0.00318641
-0.0160042
0.00358666
-6.97554e-07
0.0439442
0.00248465
0.00258164
0.00252823
1.57299e-05
-0.00272167
0.00610876
2.8491e-05
0.150253
3.15073e-06
0.724377
0.00201345
-0.868909
0.00438192
0.00324783
0.21762
3.52825e-05
-4.49455e-05
0.00224153
0.000149747
4.79702e-05
4.99757e-05
0.000463955
1.18234e-05
7.70699e-06
0.000126087
0.000951394
0.000173428
0.000478067
3.0089e-05
-0.000717669
0.00316224
0.000201695
0.69482
0.000185448
1.1057e-05
0.00220143
0.00160311
-1.63664e-06
1.04441e-05
-0.00672121
0.000198297
0.0429338
0.000219149
0.00453555
8.74556e-06
1.56248e-05
-0.00110929
0.202113
0.00240513
0.000948113
-6.00601e-06
0.0403246
3.54683e-05
8.18679e-06
0.00237342
0.000264314
0.00509207
0.0276378
0.00214344
-0.00753318
0.00094654
0.0821103
3.18482e-05
3.88495e-05
0.00272236
0.0134486
0.00217239
0.00427925
-0.0700509
0.000494364
3.3422e-05
0.000636796
0.00104892
0.00212683
3.04127e-05
0.00218247
0.00295074
0.00294533
4.0931e-05
2.41627e-05
0.00634993
0.00288372
-0.0298578
0.0425589
0.000126641
0.00253805
4.10576e-05
0.00167482
0.0149249
4.54785e-05
0.00550946
-0.0273287
0.00378679
0.450596
2.465e-05
2.44629e-05
5.69475e-06
0.26832
0.000458086
0.000179793
-0.00121255
0.00236935
3.97363e-05
2.53284e-05
0.0137043
0.278024
0.00568712
0.0242759
0.00791174
0.000891929
-0.0048644
0.00208179
0.00088767
0.129006
0.00262277
0.143562
2.81093e-05
0.00313869
0.00224818
0.00010173
-0.0161556
0.00108982
-0.00101926
0.000462795
0.00274294
1.24269e-05
0.0515218
0.0003166
-1.36229e-07
-3.20365e-05
-4.11614e-06
0.000122495
0.000108736
-4.20702e-06
0.000274621
3.9248e-05
9.52397e-05
-0.00579911
0.00235614
9.36901e-05
0.00292341
0.000296836
-4.86251e-05
-7.33401e-06
0.00182232
-0.00167821
-0.0210605
2.60174e-05
1.95758e-05
0.00303533
0.00438567
3.61563e-05
3.09484e-05
0.00430413
0.000213406
0.00398649
0.0027994
1.02383e-05
-0.850735
0.000238473
9.97793e-05
0.00144875
0.216798
-6.72167e-05
0.00262144
1.41661e-05
0.000438158
8.11319e-06
0.000476776