/*--------------------------------*- C++ -*----------------------------------*\
| =========                 |                                                 |
| \\      /  F ield         | OpenFOAM: The Open Source CFD Toolbox           |
|  \\    /   O peration     | Version:  v2012                                 |
|   \\  /    A nd           | Website:  www.openfoam.com                      |
|    \\/     M anipulation  |                                                 |
\*---------------------------------------------------------------------------*/
FoamFile
{
    version     2.0;
    format      ascii;
    class       volScalarField;
    location    "650";
    object      p;
}
// * * * * * * * * * * * * * * * * * * * * * * * * * * * * * * * * * * * * * //

dimensions      [0 2 -2 0 0 0 0];


internalField   nonuniform List<scalar> 
13851
(
-0.00278289
0.00316965
-0.0280826
-0.00257825
-0.0414394
0.00329354
-0.011665
-0.0272522
7.43207e-05
-0.0151708
0.000578676
-0.0100304
-0.0577911
-0.0500504
-0.00646549
-0.0159137
-0.0204327
-0.00475463
-0.0530357
1.18372e-05
-0.00271079
-0.0295698
0.000550403
-0.000212164
0.000468533
-0.0262444
-0.0258226
-0.0767883
-0.00306048
-0.00889141
0.00337326
-0.0207311
-0.027129
-0.00839261
-0.000304595
-0.058479
-0.0607147
-0.0350442
-0.0148009
-0.00806828
-0.0044505
0.000271257
-0.078469
0.0019723
0.000975657
-0.0743447
0.00234929
-0.00199739
-0.0265039
0.00243365
-0.0483205
-0.0529787
-0.073907
-0.00673424
-0.00468284
0.000262002
0.000387162
-0.0758188
-0.0087703
-0.0128148
-0.0351153
-0.0489646
-2.20421e-05
-0.0444343
-0.00523411
-0.00202847
-0.0586205
0.0031598
-0.0364497
-0.00448966
-0.05788
-0.0603958
0.00200752
-0.00665942
-0.00407789
0.000308356
-0.0300411
-0.0644997
-0.0364204
-0.0578958
-0.0149922
0.00058986
-0.00829524
-0.0779131
0.000262211
-0.00906716
0.00278433
-0.00167493
-0.0247795
0.000851648
-0.0578112
0.000296525
0.00226671
-0.0280216
-0.0249963
0.000464431
-0.0425125
-0.0657564
0.00213357
0.000473445
-0.0677007
-0.0411442
-0.0052376
-0.0286375
0.000157185
0.0042722
-0.0436819
0.000179708
-0.0609882
0.00156456
3.92538e-05
0.000879107
0.000306661
-0.000223741
5.90011e-05
0.00134891
-0.0653272
0.000228659
-0.0018384
-0.00413269
-0.07859
-0.0280735
-0.0583079
0.0041333
-0.00283749
0.000747767
-0.0061628
-0.0385602
-0.0025506
-0.0442046
-0.00450579
-0.00110233
-0.0585114
-0.00824712
3.55117e-06
-0.00135009
0.000238863
-0.0592639
-0.0413405
-0.0262061
-0.0692296
-0.00430606
0.00106773
0.000501814
-0.0153677
0.002237
1.82702e-05
-0.0431998
-0.0112848
0.000981499
-0.0553383
-0.00404887
-0.0481877
0.000440177
-0.0194837
-0.0148659
-0.0015006
-0.0100176
-0.0524466
-0.0475331
4.03245e-05
-0.0321678
-0.0758208
-0.00102023
-0.00959294
0.000394279
7.88135e-05
-0.037354
-0.00265992
-0.06822
-0.0641483
0.000279795
-0.00159278
-0.0290926
-0.00103022
0.000931287
-0.0377404
0.00107295
-0.05691
0.00017063
-0.0208131
-0.0581222
-0.00810309
-0.0305012
4.182e-05
0.000564449
-0.00217284
-0.0040768
-0.041137
-0.00722134
0.00285937
-0.0744653
0.00088142
-0.034112
-0.0472261
-0.0186027
0.000988293
0.000344945
0.000998441
0.000297946
0.000758309
-0.066565
-0.00271894
-0.00676633
-0.0110962
-0.00830689
-0.0266856
-0.0219071
-0.0608649
8.66017e-05
-0.0613262
-0.00532404
-0.00088334
0.000110759
0.000420723
0.000550879
-0.000391859
-0.0748754
-0.00693328
-0.0609905
-0.0220368
-0.0155079
-0.064554
-0.0492531
-0.0597076
0.000547075
-0.0292708
0.000166393
-0.0761376
0.000105661
-0.0252143
0.00165062
0.00027431
0.000872903
-0.0480295
-0.00347822
-0.0265945
-0.00687983
0.000466121
-0.00694383
0.00502839
0.00600278
8.11908e-05
-0.0105942
0.000137546
-0.0606414
-0.0409101
-0.00367356
-0.014283
-0.0163842
0.00136173
0.00550512
-0.0127079
-0.0147519
-0.0460043
-0.00490738
-0.00717551
-0.060762
-0.0729433
-0.00755701
0.000436027
-0.00450534
0.00378083
0.000648275
-0.0522145
-0.0182264
-0.0126781
-0.0277124
-0.0647687
0.000941099
0.00153518
-0.0192138
0.00688355
-0.0359784
-0.0153955
-0.00108794
0.000211451
0.000745069
-0.0601075
0.000180787
5.56098e-05
5.41826e-05
0.000213625
-0.0455715
0.00501366
0.00360604
0.00013622
-0.00598575
0.00863181
0.00168552
-0.0439939
-0.00913113
-0.013066
-0.0365328
0.00131256
-0.0533468
-0.0110124
-0.00377518
-0.00112338
-0.060225
-0.0317605
-0.0197036
-0.0604693
-0.00705187
0.00396936
-0.0644941
6.54914e-05
-0.0425351
-0.0274842
-0.00897449
-0.0411971
-0.0108523
-0.0117087
-0.0666666
0.00031495
-0.0168154
0.000846951
-0.0615748
-0.0571554
-0.00704211
-0.0432728
-0.00679018
-0.0715068
0.000755766
0.000559047
-0.00102167
-0.0566751
-0.0289518
-0.019983
-0.00579012
-0.00713682
-0.0114117
0.00131323
-0.0590086
-0.0627747
-0.00279385
-0.0593691
-0.0383101
-0.00652528
-0.0339322
-0.0436245
0.000340199
-0.00164964
-0.0523943
-0.0493592
0.000299825
-0.000745708
-0.0624407
-0.006329
0.00113682
0.00116897
-0.0229335
-0.0202063
-0.00122471
-0.0761557
-0.00157453
-0.000916437
-0.000928868
-0.00666224
0.000146771
0.000148021
-0.00166554
-0.0622808
0.00147425
-0.00771459
-0.0420792
0.000351704
-0.0012731
-0.0126396
0.00564248
-0.065883
-0.00765041
4.70284e-05
-0.0262222
0.00682422
-0.00415991
0.000274492
-0.000196506
-0.0701711
-0.0040336
-0.0398658
-0.000152879
-0.0531303
-0.0700794
0.00185567
0.00171864
0.00157402
-0.00154453
-0.00616924
-0.00306981
-0.0438167
-0.0481812
-0.038391
-0.0612084
-0.0625484
0.000396256
-0.00773216
-0.0654979
-0.0580907
0.000624083
-0.0649243
-0.0001831
-0.0267134
0.000459502
-0.0387767
0.000217426
-0.016698
0.00143208
-0.0109516
0.000173294
7.95434e-05
0.000373955
-0.0448514
-0.00309942
-0.0712324
-0.00394016
-0.0440064
-0.000459262
0.00484401
-0.0156898
-0.0236764
-0.01927
0.000306091
0.000227816
5.55277e-05
0.000538757
-0.0361531
0.00204039
-0.0475856
-0.00064227
-0.0702597
-0.00808543
0.00322113
-0.00394345
-0.0487318
-0.00416894
0.00435141
0.000293778
-0.0183538
0.00368393
-0.0250482
-0.0612047
0.00109609
0.000768419
0.00317056
-0.068779
7.34171e-05
-0.027619
-0.0372659
0.000962185
0.000186461
-0.0110851
-0.0548659
-0.0525342
-0.00307914
-0.00111089
0.000534219
-0.000991762
-0.0791477
-0.00914629
6.01738e-05
-0.000200379
-0.00148851
-0.00256949
2.92174e-05
-0.00718536
-0.00934356
7.72804e-05
0.00103083
-0.06487
-0.00842685
-0.0389719
-0.00138422
0.00142423
0.00061008
-0.000315643
-0.00323522
-0.000253799
-0.000499395
0.00307297
-0.013007
0.00329468
-0.00803325
0.000483237
-0.0621054
-0.0609124
-0.00863067
0.00161947
-0.016324
0.00474621
-0.0783299
-0.00104891
0.00343556
-0.00434582
-0.0382191
-0.0117764
-0.0769699
0.00019962
-0.0739353
-0.00643901
0.000286317
0.00162316
-0.0676159
-0.0245931
-0.00248245
-0.00194543
-0.00315332
-0.0046894
-0.000709251
-0.000961949
-0.0106063
-0.0589933
-0.0459793
-0.0549886
-0.058602
-0.000574086
6.69004e-05
-0.0543599
0.00472609
-0.0215443
-0.0317517
0.00569688
0.0030436
-0.0599987
-0.00635955
-0.0766419
-0.0759558
-0.0683289
-0.0101457
0.00184942
0.00764105
0.000738384
-0.000497873
-0.00110396
-0.0190655
-0.00972903
-0.0223536
-0.058409
0.000208739
0.000702271
-0.0468757
-0.06022
-0.0140219
-0.00683116
-0.00151416
-0.00565493
-0.0416459
-0.00495064
-0.00197268
-0.00187417
-0.000630302
-0.0788187
-0.0642776
0.00637446
0.00340385
-0.0380595
4.81837e-05
9.10323e-05
6.7557e-05
-0.056725
-0.0200718
-0.0552918
-0.0576019
0.000251669
-0.000140565
-0.00227463
-0.0229559
-0.0507559
-0.0591438
-0.0599384
-0.0043432
-0.0110552
0.00140256
-0.0634186
-0.0563447
-0.0389073
0.000473447
0.000153113
-0.00505627
-0.0194652
0.000245373
-0.0135302
0.000152941
-0.00197785
-0.0568435
-0.0432743
-0.000704284
0.000239599
-0.0394637
0.00307602
-0.0012956
0.000480666
0.00069159
-0.00632211
-0.0710645
-0.00324009
-0.00116253
-0.0673842
-0.000608641
-0.0379048
-0.0599725
-0.0598726
0.000237051
-0.0361795
3.50313e-05
0.000804104
-0.0185759
-0.0634818
0.00127924
-0.0547549
-0.0239058
7.92613e-06
-0.0141745
0.000897346
-0.00331816
-0.0461824
-0.00785976
-0.00286032
0.000137387
-0.0285532
-0.0471345
-0.0123633
-0.00399524
-0.0133395
-0.0117209
-0.0410027
-0.0364261
-0.0490743
-0.0128415
-0.0567737
-1.47557e-05
0.0035312
0.000649136
-0.0687794
-0.00556013
0.000344518
-0.0621484
-0.00652302
-0.0718477
-0.0616559
-0.0766231
-0.000111728
0.00018617
-0.0627883
5.29263e-05
-0.00182947
0.000186481
-0.00201007
4.28298e-05
-0.00353392
-0.00733307
0.00022858
-0.0317534
-0.0062979
-0.0344453
-0.00121976
0.000152576
0.000479708
-0.0419794
-0.0436014
-0.0487642
-0.028604
7.28041e-05
0.000469809
-0.000680492
-0.00129171
-0.0591504
-0.0136775
-0.011463
0.000205806
-0.0105996
-0.00136699
-0.0159775
-0.0749352
-0.0147678
-0.0647525
-0.00154015
-0.00399997
-0.0543311
-0.0660846
-0.0368506
-0.00705483
-0.0147393
-0.00470681
-0.0480723
-0.00415721
0.000449838
-0.00842184
0.00525367
0.000128527
-0.0407643
-0.0613493
0.000520903
-0.00602656
7.47636e-05
-0.000701765
-0.0204318
-0.00046828
-0.0342178
-0.0452465
-0.0513314
0.000830665
0.000142218
-0.00124897
-0.0626841
-0.0583274
-0.00316206
-0.0613317
0.000459554
-0.00532243
0.000214591
-0.00186128
-0.0598357
-0.0110739
-0.00363975
0.000722912
-0.0246649
0.00045215
-0.0784682
-0.00385533
-0.0674177
0.000292512
-0.011407
-0.0614
-0.0752084
-0.0576695
0.00088961
-0.0602276
-0.008373
0.000626881
-0.0293755
-0.0249218
-0.0164882
-0.077041
0.00178361
0.000887703
-0.0589452
0.000222929
-0.00263148
-0.0094665
2.20262e-05
-0.0795277
-0.020502
-0.0515721
-0.000914191
0.000673426
-1.7826e-05
-0.00277434
-0.00101557
0.00194685
0.000186647
-0.00383718
-0.00306787
-0.0630374
-0.00164024
0.000315357
-0.00700747
-0.0114756
-0.061831
0.000335159
0.000980842
-0.0504508
-0.0145464
-0.00186273
-0.000422718
0.00264679
-0.0630219
-0.0130216
-0.0635957
-0.0400063
4.41212e-05
0.000876319
-0.0785729
8.18064e-05
-0.0148876
-0.000642781
0.000201007
0.00550768
-0.0236233
-0.0063509
-0.010677
0.000750181
-0.00643856
0.000914198
-0.0567301
0.00499584
-0.0399296
0.00076052
-0.0111254
-0.0393454
-0.0503914
-0.0605624
-0.0105605
-0.0254098
-0.0569312
-0.0116198
-0.0743561
-0.000273236
-0.0513207
-0.0349299
-0.0660419
0.00236516
-0.0183443
3.61965e-06
-0.00299963
-0.0758204
-0.0773383
-0.00065266
0.000536721
-0.0479186
-0.000455871
0.00033194
-0.0742471
0.000434916
-0.0082653
-0.0792427
-0.0621128
0.00077284
-0.00179875
-0.00645872
-0.0751693
-0.0599633
-0.0559468
0.000134081
-0.0618289
-0.0233338
-0.0432926
-0.0427338
-0.0411952
-0.0113577
-0.01158
0.00481043
-0.0499916
-0.0585174
0.000355469
-0.0374795
-0.0793571
-0.0537099
-0.064059
-0.00933833
-0.037487
-0.00124452
-0.0134696
-0.00579469
-0.0105408
-0.00690088
-0.0597263
0.000331436
-0.0498896
-0.00470258
-0.0310206
-0.0386929
-0.0366255
-0.0644928
-0.0440426
-0.0065202
-0.000407577
-0.0494854
0.00039872
0.000898696
-0.01278
-0.0622328
0.000607341
-0.0337548
0.0026414
-0.00995508
-0.0639571
-0.0683911
-0.0623748
0.00313398
0.000608285
-0.00105001
-0.0678217
-0.00693248
0.00362506
-0.0602453
-0.00139415
-0.0223583
-0.0350063
0.00391328
-0.0236737
-0.010552
0.000427695
0.00311604
-0.0604779
-0.0506857
-0.0146689
3.21111e-06
0.00415229
-0.0789119
-0.0504357
0.000331816
-0.0189113
-0.000832995
-0.00262657
0.000768867
0.000465012
-0.0219726
0.00289131
-0.00823452
0.00111124
-0.000976491
-0.00987679
-0.0583916
-0.0677508
-0.0280937
-0.0257936
-0.00481023
-0.0267602
-0.000993576
-0.000891115
-0.00775634
-0.00799892
-0.0590016
-0.00873806
-0.0476151
-0.00945866
-0.0155143
0.000870739
-0.07648
-0.00184944
0.0011136
-0.00618523
-0.0585725
-0.0210937
-0.0250707
-0.0576822
-0.0288141
-0.00402738
-0.0101921
-0.00233082
-0.0755195
-0.0285621
0.000256135
-0.00556844
-0.0432325
-0.0420354
-0.0245753
-0.000405556
-0.028038
-0.00118155
-0.00128497
-0.0459039
0.000725352
-0.0560067
-0.0168028
-0.00102013
-0.000428586
-0.00118295
-0.00644689
7.41443e-05
-0.0142788
-0.0584426
-0.00147714
-0.0556155
-0.0789583
-0.0111171
-0.0346298
-0.0111974
-0.000999905
0.000802104
-0.00554932
-0.00115366
-0.0511013
-0.0163262
-1.42369e-06
-0.0037973
0.000501139
-0.0647083
-0.0126447
0.000991239
-0.0653333
-0.0581219
-0.00500491
0.00935515
-0.024465
-0.00158899
0.0039258
0.00537921
-0.00508597
-0.00422758
0.00227516
0.00444677
-0.0756297
0.000132381
-0.0581685
-0.0202939
-0.0240525
6.65527e-05
0.000413018
-0.0175736
0.00246238
0.00228532
0.000486394
-0.00778331
-0.00707256
-0.0102229
-0.0178239
0.00278468
0.00441748
-0.055932
-0.00334671
0.000482
-0.00675835
-0.000192992
0.00131034
-0.0279364
-0.0290537
-0.0291994
-0.0168631
-3.54738e-07
-0.0121868
6.35182e-05
-0.0709907
-0.0616464
0.0044381
-0.0560336
-0.00538489
0.000604836
-0.00352464
-0.00174977
0.00461755
0.000167234
-0.00101654
0.000493562
-0.048986
0.00039894
0.000463008
-0.0157827
-0.0324869
-0.0587263
-0.00436274
-0.00339781
-0.00324268
-0.0506403
-0.0491633
-0.0198504
-0.0731065
-0.0333719
-0.0520937
0.000474647
-0.0433001
-0.00684199
0.000504439
-0.00356699
-0.0652113
-0.0565564
0.00266378
-0.0284045
0.000479125
-0.00735113
0.000249049
-0.00614326
0.00963926
-0.00563898
5.07457e-05
-0.0316818
-0.00243378
-0.0591492
-0.000463494
0.000444275
6.74708e-05
-0.031537
-0.0192075
-0.0627462
-0.0567096
-0.0509586
-0.0331235
-0.0639727
-0.00433429
-0.0631375
0.000498701
-0.00684227
0.000387927
-0.013273
-0.0318297
-0.0110399
-0.0623717
-0.0205191
-0.0265383
0.00403403
-0.0554889
0.000210272
-0.00687922
-0.0233142
-0.0111565
0.000619696
-0.00266925
0.00213206
-0.000405728
0.00154028
-0.00375765
-0.0295284
0.000131366
0.000738159
-0.0640861
2.64998e-05
0.000598428
-0.0154107
-0.0768195
-0.02362
-0.0157619
-0.0494306
0.00287585
0.000460053
-0.0602101
-0.00262673
-0.0349284
-0.0280729
-0.0624657
-0.00109614
-0.0443031
0.000325768
-0.00540052
0.00112585
-0.00850893
-0.0762162
-0.00347953
-0.0626336
0.000790868
-0.0310924
-0.0561759
-0.0171548
-0.0619122
-0.0554533
0.000387133
-0.00319199
-0.0618757
-0.00257758
-0.0591054
-0.00575986
-0.00686743
-0.0591974
-0.0481754
-0.0781425
-0.00602716
-0.0109174
-0.00795456
-0.062857
-0.0576074
-0.0139817
0.00536462
-0.0247365
-0.025949
-0.0614851
0.00282908
-0.00796258
-0.0599962
-0.0249433
-0.00308703
-0.0556308
-0.0456642
-0.0120644
-0.00101425
-0.0765868
-0.0631778
0.000663564
-0.00341335
-0.02487
0.000360435
5.23768e-05
-0.00380257
-0.0040009
-0.00652007
-0.0476712
-0.000350974
-0.0641854
-0.0179946
-0.0776462
0.00283209
-0.0287212
-0.0559465
-0.0303763
0.00189957
-0.00577941
-0.0318507
-0.000146836
-0.00688284
0.000609541
-0.00386042
-0.00383834
-0.0601701
-0.00107794
0.000902514
-0.0704548
-0.0217164
-0.0194167
-0.0153178
0.000864186
-0.000979158
-0.0368975
-0.0602164
-0.0639022
-0.00127461
-0.0457779
0.00298888
-0.0056709
0.000449847
-0.0640647
-0.0349393
-0.01462
-0.0541771
-0.0253957
-0.00557519
-0.0600266
-0.0602079
0.0011934
0.000491406
0.00584198
0.00524934
-0.0445839
0.000157656
-0.0552891
-0.00554294
-0.00428664
-0.015354
-0.0625833
-0.00683021
-0.0512056
0.00366808
-0.0699726
0.00676587
0.00487507
-0.00503671
0.000743024
0.00224439
0.000857721
-0.0185172
-0.0656122
-0.068019
-9.17781e-05
-0.0616659
-0.00953434
-0.0604463
-0.0626246
-0.0360411
-0.00605888
-0.00224414
0.000214283
-0.00342988
-0.0606636
-0.00563071
-0.0162704
-0.00685337
-0.0517144
-0.0603353
-0.0719549
-0.00327363
-0.06022
-0.0104609
-0.00906459
-0.00402629
0.000401023
-0.0762771
-0.0153209
-0.059837
0.00249979
0.0050162
-0.0554191
-0.00529496
-0.0120097
-0.00791777
-0.0588049
0.000947724
-0.0159142
-0.00331668
-0.0038118
-0.0565548
-0.0172133
-0.0201047
0.000833067
-0.019192
-0.0297252
-0.0581891
-0.00179281
-0.0393183
0.00020561
0.000315136
0.000675538
-0.0471038
-0.00449493
-0.0381303
-0.0249917
-0.00691869
0.0052107
-0.00466257
0.000738859
-0.006139
0.000460564
0.000915175
-0.0650437
-0.0260335
-0.00211441
6.54036e-05
0.000461426
-0.0538173
-0.0655487
-0.0486218
-0.0355924
-0.00872427
0.00170984
0.000130051
0.000189321
-0.055533
-0.0598308
0.000312819
-0.00860029
-0.00166574
-0.0611135
-0.0148087
-0.0158705
-0.060867
-0.0168455
0.00188853
-0.0617783
-0.0606478
-0.00640404
0.00068338
-0.00683715
-0.0586936
-0.0588433
-0.0255871
-0.0548231
-0.0709179
-0.0199045
-0.0600887
-0.0148448
-0.00375234
-0.0509858
-0.0518868
-0.0064808
-0.076197
-0.0110155
-0.000698423
0.000381354
-0.0525567
0.00428528
-0.0566886
-0.0148412
-0.0204985
-0.0397362
-0.00322478
-0.0584922
-0.0602012
0.00257653
-0.0171215
-0.0586324
-0.0420074
-0.0774615
-0.0182137
-0.000103367
-0.00354792
-0.000187874
0.000396212
-0.00115295
-0.00802502
-0.00672034
-0.0135822
-0.013334
-0.024264
0.00075779
8.43241e-05
0.000436402
-0.0135215
-0.0204159
-0.00619358
-0.0433545
-0.0239019
-0.0106206
-0.0413437
-0.0138254
-0.000399821
-0.0605034
-0.00166692
-0.000212223
-0.0589042
-0.0683893
-0.0772699
0.00389386
-0.00040584
-0.0721152
0.00373728
0.000514182
-0.0307718
-0.00243608
-0.0409542
-0.0484958
0.000698438
-0.0746912
-0.058507
-0.0189504
-0.0477958
-0.0657001
-0.00779894
-0.0031448
-0.0440123
-0.0782399
-0.0239923
-0.0525962
9.29262e-05
-0.00618818
0.000852879
-0.0140782
-0.0605213
-0.0653689
-0.0773417
-0.066873
-0.0217706
-0.0115894
-0.0107066
0.000348834
-0.00429142
0.00035874
-0.0634492
-0.0029624
-0.0610738
-0.00969233
-0.000429978
-0.036169
-0.0586914
-0.0622998
-0.0606539
-0.0399896
0.000360699
0.000818896
-0.0605203
-0.0600982
-0.0245179
-0.00207221
0.000285108
-0.0282485
-0.0207671
-0.0569647
-0.0178485
-0.0224229
0.000398686
-0.0585868
0.00184816
-0.0583756
0.00240535
-0.00343432
-0.0449717
-0.00376915
-0.0634663
0.00044829
-0.059942
0.00070138
-0.0219151
-0.00234272
-0.00602989
-1.51706e-05
-0.0300011
-0.0394389
-0.0754467
-0.0682033
-0.0240744
-0.0240478
-0.00514738
-0.0606804
-0.0753095
-0.000730739
0.000532727
0.0036159
0.000224246
-0.0582496
0.000252863
-0.00316857
-0.0227346
0.00124685
-0.00687251
-0.00139472
-0.0106558
-0.0520326
-0.0638051
-0.00570306
-0.00247274
-0.052494
0.00273166
-0.00668019
-0.0104658
-0.0706433
-0.0334287
-0.0177603
-0.00734379
0.00166857
0.00219428
-0.0800015
-0.0786189
-0.0203377
0.000744947
0.0021877
-0.000863256
-0.0580932
0.00219106
-0.0650903
-0.0756509
-0.0146833
-0.0160864
-0.00519269
-0.0103593
-0.00708351
-0.0121621
-0.0591413
-0.0158339
-0.0522229
-0.00109137
-0.00569492
-0.000964739
-0.00900423
-0.061833
-0.0583492
-0.0182371
-0.0761797
-0.056344
0.000684935
-0.00779437
0.000542821
0.00104849
-0.0592906
-0.0596618
-0.0131124
-0.00478194
-0.00490983
-0.023686
-0.0387609
-0.0733502
-0.0179698
-0.0601973
-0.0399165
-0.00408149
-0.0074999
-0.000857167
-0.0440419
0.00515426
0.000378697
-0.0594229
-0.0272365
-0.0482771
0.00147822
-0.0220515
0.000429267
-0.0775301
-0.0667068
0.00070503
0.00496466
-0.0227463
-0.0087198
-0.00228398
-0.00631176
0.000347045
-0.0780274
-0.0197376
-0.0743967
-0.0129153
-0.0479768
-0.015119
-0.0610318
0.00104424
-0.0300197
-0.0777026
-0.0101498
0.00255065
-0.0596283
-0.000664075
0.00489609
-0.0249507
-0.0705754
-0.0785063
-0.0121679
0.00411331
-0.00604748
-0.00204616
-0.00181394
-0.00632542
-0.0693814
-5.38226e-05
-0.0215739
-0.0109511
0.00095682
-0.00491967
-0.0489355
-0.0071462
-0.054794
0.00118944
-0.000556656
-0.00469051
-0.0596982
-0.01699
-0.036471
-0.0626908
-0.045193
-0.000923641
-0.00873712
-0.0221431
-0.0638748
-0.0636748
-0.00778442
-0.059107
-0.0173834
-0.0022286
-0.00727191
-0.0693488
-0.0193684
0.00137606
-0.0777676
-0.00712874
-0.0154662
-0.00296323
-0.0791187
-0.00539965
-0.050499
-0.00243479
0.000773933
-0.0152981
-0.00545806
-0.0458048
-0.078514
0.00378245
-0.0152247
-0.0306921
3.86932e-05
-0.0102932
-0.00896902
-0.0273307
-0.0423858
-0.0436568
-0.00489009
-0.0625612
-0.0246798
-0.0423398
0.00341029
-0.012799
-0.000196639
-0.0595499
-0.0600592
-0.0324848
0.00128336
-0.0516682
-0.070395
-0.0113086
-0.0105726
0.00032082
-0.000842049
-0.0581889
-0.00129093
-0.0622042
-0.00626098
-0.0491521
-0.00729588
-0.0604157
0.000399662
-0.00225059
-0.00150662
-0.0141871
-0.068106
-0.0601065
-0.0528281
-0.0221116
0.000398967
0.00271023
-0.00234365
0.000858438
-0.0587405
8.3167e-05
-0.0391229
-0.00849526
0.00291278
-0.00483474
0.00298323
-0.000480918
-0.00212768
0.00242108
-0.014132
-0.0577319
-0.00322493
0.00088277
0.00113378
-0.000537371
-0.00848151
-0.012571
-0.0156509
-0.0254499
-0.00231464
0.00609378
-0.0515936
0.000551543
-0.000196369
-0.00394439
-0.0143036
0.000571034
-0.0645372
-0.0105402
-0.00465533
-0.0571216
-0.0276582
0.000203291
-0.0624982
-0.055557
-0.00235338
-0.0186037
-0.0145319
-0.0170938
0.00229207
0.000576287
-0.027341
-0.0767378
-0.0600051
-0.0580194
-0.0140422
-0.0795029
-0.00534481
-0.0159333
0.000626671
-0.0643321
-0.00776444
-0.024829
-0.00697242
-0.0601411
-0.0727863
0.00647795
0.000548796
-0.0202574
0.000111909
-0.011338
-0.0508088
-0.00586053
0.00413548
-0.0774936
-0.0606115
-0.000376342
-0.0256978
-0.0274091
-0.0686501
5.07878e-05
-0.0747588
-0.0769063
0.00449269
-0.00211641
-0.0617007
-0.0150613
-0.000224715
0.00701795
0.00474091
-0.0207079
0.000382592
-0.00222438
-0.0617167
-0.0787088
-0.0793971
0.000434293
-0.0604182
-0.0107392
-0.0406144
0.0007638
-0.0125983
-0.0196802
-0.00038988
-0.070257
-0.0215615
-0.0212079
-0.0462148
-0.0756483
-0.0228815
-0.0496426
-0.073864
-0.0638205
-0.00158515
-0.0783615
0.000533691
0.000277445
-0.00763088
0.00081478
0.000821337
-0.0754997
-0.00224394
0.000225372
-0.00520974
-0.0768676
-0.0756978
-0.0012184
-0.000357241
-0.0111463
-0.0160129
-0.071325
-3.89141e-05
3.74505e-05
-0.00557725
-0.0120162
-0.00140327
0.000142029
-0.0756235
-0.0384925
-0.0271423
-0.000240416
-0.00308257
-0.0143554
-0.0601304
0.00043169
-0.078765
-0.0389552
-0.0106981
-0.0756167
-0.0773563
0.000585245
-0.0535864
-0.0156882
-0.0794871
0.00176031
0.0017588
0.000302716
-0.0137918
-0.00984968
-0.0625721
0.000869061
0.000822836
0.000111166
-0.0524266
-0.0357932
-0.0767323
-0.070306
-0.0109049
-0.0592701
-0.0179234
-0.0334445
-0.0621039
-0.0756916
-0.00714578
-0.0647595
-0.0214746
-0.0109971
-0.00018705
-0.0575485
-0.0353589
-0.0209766
-0.049246
0.000594809
-0.0758977
0.000707233
-0.026214
-0.00681878
-0.00326793
-0.0619317
-0.0344324
-0.0447808
-0.0170233
-0.0197571
0.000910292
-0.0521298
-0.0335933
-0.0625346
-0.00376744
-0.0752894
-0.00648249
-0.0506465
-0.0340903
-0.0668328
-0.00758965
0.000806774
-0.00183368
-0.0619119
0.000635397
-0.00459905
-0.00143747
-0.0133064
0.000688627
-0.00769678
-0.0684123
-0.0603256
-0.0663263
-0.075572
-0.0030808
-0.0629064
-0.0640724
-0.055755
-0.0788472
-0.0630942
-0.0051626
-0.074093
-0.0241159
-0.0331044
-0.0598105
-0.0528795
0.000684852
-0.0464811
-0.00368657
-0.00896296
-0.0248798
-0.0696112
-0.059918
-0.0579743
-0.0154366
-0.0138866
-0.00483343
-0.0617718
-0.0779389
-0.00601055
-0.0484624
0.0010145
-0.00906644
-0.00974627
-0.0632174
-0.0495408
-0.0128297
-0.007345
-0.0200631
-0.00735797
-0.0101076
-0.0154444
0.00040053
-0.0136905
-0.00271955
-0.0507391
0.00663174
-0.0514875
-0.0109697
-0.0108444
-0.0663745
-0.0633464
-0.0087647
-0.00176413
-0.0069213
-0.0307028
-0.00152779
0.000691207
-0.0196854
0.000234801
0.00482242
-0.00991645
0.000203905
-0.0107196
-0.0367838
0.000629238
-0.0630207
-0.00931942
-0.00557752
-0.062442
-0.000404474
-0.0252423
-9.90506e-05
-0.00703518
0.000200873
-0.00969464
-0.000519035
-0.0217549
-0.00833639
-0.0644767
0.00620895
-0.0129281
-0.0173658
0.000519375
-0.00628254
0.00367229
0.00810507
-0.0464505
-0.0790038
-0.000737634
-0.0146262
-0.00687395
-0.0106135
-0.0020307
-0.0133936
-0.00390491
-0.00797179
-0.0619253
-3.38346e-05
-0.0470097
-0.0648905
0.000523857
-0.00448885
-0.00234023
-0.0256395
-0.0256281
-0.00209437
-0.0192211
-0.058769
-0.000705138
0.00101386
-0.0642347
0.000393566
0.00451333
0.000486967
0.000403029
-0.00148088
0.000583338
0.00217005
-0.0572023
0.00428103
-0.0245927
-0.00524691
-0.00232785
-0.00275292
-0.0348553
-0.0686165
-0.0783736
-0.0437965
-0.027277
-0.0637764
-0.054286
-0.00295989
-0.0155471
0.000820587
-0.00157865
-0.00260228
-0.0186054
-0.0297422
0.00188578
-0.00436282
-0.00544453
-0.000340158
0.000843341
-0.00953014
0.00379828
0.000757342
0.00135126
-0.0650792
-0.0617187
0.00737672
-0.00888615
0.00062733
-0.0492984
-0.0437372
-0.0630652
-0.0275925
-0.0596251
-0.00212712
-0.0582624
-0.0586619
0.00171653
-0.00830839
-0.0090823
1.01304e-05
-0.00626292
-0.0039617
-0.00306556
-0.0182473
-0.0649022
-0.0477713
-0.0606356
0.00259019
-0.0318277
-0.0590188
-0.00720858
0.000496457
0.000847849
0.000501626
-0.0150499
0.00753706
-0.0288455
-0.0036613
-0.0594825
-0.0268041
-0.0748223
-0.0386594
-0.0632997
-0.0599226
-0.00620235
0.000470925
0.00178039
-0.00817441
0.000594763
-0.00340868
-0.0637831
-0.0590111
-0.00892744
-0.0103129
0.00131352
-0.0199484
-0.0306055
0.000528275
-0.00354415
-0.0590753
1.57855e-05
-0.00987144
-0.0192168
-0.0237722
-0.0141009
-0.0586175
-0.0423338
-0.0109223
-0.0624307
-0.0516066
-0.0591258
0.000455238
-0.0129411
-0.000896798
-0.0172172
-0.0657797
0.000429083
-0.076218
0.000843134
-0.00103905
-0.00690902
-0.0612763
-0.0400461
-0.0496147
0.00403047
0.000240008
-0.00889998
-0.0760036
-0.0125667
0.0008248
-0.00014512
-0.00740581
-0.00184873
-0.00019892
0.000367774
-0.0600927
-0.06035
-0.0611768
-0.00901037
-0.0534856
-0.0748086
-0.0529537
-0.06014
-0.039811
0.000416355
0.000406817
0.000243996
-0.00671596
-0.0618391
-0.0621882
0.000678645
-0.0765104
-0.0600072
-0.0378346
-1.66432e-05
-0.00639151
-0.0448927
-0.0623839
-0.0633121
-0.00317987
-0.0623649
0.000217404
-0.052988
-0.0429502
0.000576707
-0.059186
-0.00799467
-0.0568428
-0.075168
-0.0116787
-0.0429808
-0.00620158
0.00125431
-0.0749296
-0.0599037
-0.0534737
-0.0190113
-0.0664316
-0.0581514
-0.0591741
-0.0608729
-0.0654273
-0.0536983
-0.0472731
-0.0103109
0.000404574
-0.040693
-0.0589281
-1.90133e-05
-0.0589755
-0.000377023
-0.0296363
-0.00793727
-0.000157643
-0.0641661
-0.00786332
-0.0553065
-0.0625064
-0.00753194
-0.022465
-0.0273298
-0.0601131
-0.046122
-0.0336268
0.0058886
-0.00105769
-0.0614303
0.000849168
0.000829921
-0.0358587
-0.0209543
-0.0594662
-0.0234009
-0.00582949
-0.0194776
0.000529569
-0.0304062
-0.0135279
-0.0542566
-0.000465715
-0.000551648
-0.0592528
-0.0446358
0.000119764
-0.0770764
-0.060899
-0.00672413
0.00461542
-0.0152654
-0.0601732
0.00117433
0.000684263
-0.0580766
-0.0140497
-0.0604516
-0.0612282
-0.0473561
-0.00220739
-0.00211589
-0.00722633
-0.0274459
-0.0278685
-0.00162691
-0.0600406
-0.0474763
-0.00241544
0.000130885
-0.039228
-0.0121193
-0.0653776
-0.0550327
0.00196365
-0.0714418
-0.0495431
-0.0261857
-0.000848244
-0.0603846
-0.0579795
-0.0650705
-0.0077793
0.000678653
-0.0423389
-0.0147735
0.00662206
-0.00167798
0.00261032
-0.000255644
-0.00232371
-0.000424514
0.00196048
-0.0222836
-0.0548704
-0.0587475
0.00401474
-0.0638823
-0.0618895
0.000274405
-0.0591992
-0.0586174
-0.0590734
0.000252218
-0.0357383
-0.0587846
-0.0782095
-0.0560718
-0.0501855
0.00427632
-0.0603007
-0.0486572
-0.0584925
-0.000348184
-0.0417252
-0.047135
-0.0076001
-0.0512668
-0.0695038
0.00495373
-0.0769586
-0.0594071
-0.00592329
-0.000835436
1.77572e-05
-0.00776197
0.00751988
0.000504956
-0.000312202
-0.06057
-0.0582805
-0.00372331
-0.0461806
-0.000292591
-0.0166358
-0.0769643
-0.0599031
-0.0770052
-0.0329238
-0.0602243
-0.000801435
0.000462025
-0.0259825
-0.0632972
-0.0596365
-0.0528802
-0.0584712
-0.0182059
-0.000133355
-0.00781386
-0.0157546
-0.030172
-0.0653757
-0.0594259
-0.0209463
-0.0636665
-0.0666454
0.00461168
-0.0723761
-0.0093282
-0.0264097
-0.00239106
-0.00860877
0.000691843
-0.0241519
-0.0228006
-0.0484101
-0.0595325
0.000548659
-0.0465832
-0.0220917
-0.0205783
-0.0648806
-0.0126439
-0.0603116
-0.00118791
-0.0555022
-0.0601324
-0.0537422
-0.0573571
0.000524301
-0.0461344
-0.0601416
-0.0603974
0.000449875
-0.048671
0.000701862
-0.00315396
-0.00814092
-0.029163
-0.060244
-0.0615122
0.00242554
-0.07894
-0.0289926
0.000587309
-0.00216261
-0.0100502
-0.00327158
-0.0377812
-0.0600315
-0.0600194
-0.054159
-0.0104536
-0.00634172
-0.0269771
-0.000757088
-0.0599021
-0.0017335
-0.00125795
-0.024314
-0.0475151
-0.00349407
-0.0586272
-0.0365553
-0.0786744
-0.015918
-0.0631204
-0.0605652
-0.0590151
0.00231894
-0.00095694
-0.0250156
-0.0100585
-0.0618058
-0.0761809
-0.0272082
-0.0458076
-0.0576828
-0.0394109
-0.0262339
-0.00725533
-0.00318557
-0.00307029
-0.0578382
-0.0121346
-0.022747
-0.0230633
-0.0232314
-0.0191354
-0.076049
-0.0569143
-0.00929288
-0.0159394
-0.0316206
-0.0110856
8.09435e-05
-0.0120879
-0.0420477
-0.000454109
-0.0784305
-0.00891394
-0.0592164
-0.00696592
-0.00367881
-0.0120182
-0.0595299
-0.0115024
-0.0598806
-0.0681109
-0.0250251
-0.00102694
-0.0553287
-0.00988738
-0.0573207
-0.00258577
-0.00412813
-0.0476194
0.000827755
-0.0590589
-0.00818298
-0.00333082
0.000555432
-0.0108539
-0.0285774
-0.0151041
-0.0480604
-0.0455364
-0.0113425
-0.00929598
-0.0619272
-0.0658014
0.000974295
-0.0372189
0.000319656
-0.0131838
-0.0346052
-0.0509079
-0.0039421
-0.0479945
-0.00344338
0.000606934
-0.00697919
-0.00315668
-0.00880521
-0.00561804
-0.0595066
-3.56448e-05
-0.0407185
-0.00853048
-0.0633661
-0.0587534
-0.0293196
-0.0105738
-0.0506669
-0.058306
-0.0793192
-0.0016427
-0.020878
-0.0464281
-0.0281835
0.000128494
-0.0591405
-0.0587801
0.00435998
-0.00309554
-0.0587252
-0.0161537
-0.00319529
-0.00722817
-0.0374207
0.000413018
-0.0166415
-0.0324171
-0.0184926
-0.0217059
-0.00242141
-0.00241034
-0.00464352
-0.0652621
-0.00305232
-0.00429416
-0.0588471
0.000597371
0.00137373
-0.0595334
-0.0388217
-0.0488414
-0.00861716
-0.0231451
-0.0113781
0.000524528
-0.00200976
-0.0283323
-0.0244152
-0.0590808
-0.0535499
-0.0269639
-0.0604348
-0.025629
-0.0408992
-0.00294567
0.00384249
-0.037629
-0.0251933
3.51941e-05
-0.0375612
-0.00611982
-0.0189831
-0.0232604
0.000483119
0.000638921
0.000135551
-0.00830653
-0.00295745
-0.0375578
-0.0411702
0.000517008
-0.0421253
-0.0342143
-0.0664054
-0.0179145
-0.0592898
-0.0284192
-0.0597423
-0.00110746
-0.0467549
-0.0299294
-0.00547438
0.0058023
-0.0130998
-0.0314629
-0.00509873
0.00133401
-0.0437441
-0.0586631
-0.0293074
0.00314245
-0.00606732
-0.0517933
-0.00904263
-0.00323797
0.000701414
-0.000298773
-0.00335283
-0.00917097
-0.00326783
-0.00271823
-0.0601027
-0.0134582
-0.061731
-0.00229531
-0.000231708
-0.00743596
-0.0210085
-0.0105395
-0.00625459
-0.0224837
-0.00374029
-0.00259357
-0.0779026
-0.0238755
-0.0615949
0.000869168
-0.0127682
-0.0344498
-0.054106
-0.0233772
-0.0499558
-0.0203144
-0.0395656
-0.00970003
-0.00307641