/*--------------------------------*- C++ -*----------------------------------*\
| =========                 |                                                 |
| \\      /  F ield         | OpenFOAM: The Open Source CFD Toolbox           |
|  \\    /   O peration     | Version:  v2012                                 |
|   \\  /    A nd           | Website:  www.openfoam.com                      |
|    \\/     M anipulation  |                                                 |
\*---------------------------------------------------------------------------*/
FoamFile
{
    version     2.0;
    format      ascii;
    class       volScalarField;
    location    "550";
    object      k;
}
// * * * * * * * * * * * * * * * * * * * * * * * * * * * * * * * * * * * * * //

dimensions      [0 2 -2 0 0 0 0];


internalField   nonuniform List<scalar> 
13851
(
0.000215039
0.000155091
0.000154872
0.0194154
0.000148472
0.000157732
0.000157124
0.000147195
0.0247761
0.000148369
0.000178654
0.000148608
0.000148771
0.00906999
0.000164627
0.000291656
0.0467069
0.000148636
0.00029487
0.000214718
0.000168954
0.000156657
0.0557653
0.000149734
0.000529214
0.0001845
0.000762811
0.000418204
0.0468954
0.000146395
0.10628
0.000156996
0.000215221
0.0189497
0.000171167
0.050846
0.000149811
0.0730957
0.0450236
0.000148511
0.00703906
0.0488986
0.020161
0.000269564
0.0454197
0.000147393
0.000145731
0.000240935
0.000152921
0.000148738
0.0233788
0.000149155
0.000269532
0.000164405
0.0122644
0.000148517
0.000215517
0.00839892
0.0171925
0.00871223
0.000148655
0.000526333
0.000148742
0.000153256
0.000186537
0.000187832
0.00666011
0.00016696
0.000148771
0.0475462
0.106065
0.000174482
0.000148119
0.00755231
0.000163618
0.000152837
0.0600908
0.000145731
0.000540214
0.000147609
0.000148853
0.000304764
0.000170642
0.00909041
0.00852857
0.108279
0.000157003
0.0192679
0.000148243
0.104265
0.000149299
0.000157085
0.0148588
0.101811
0.0126388
0.000217421
0.00014755
0.000260748
0.0147258
0.00021448
0.000274796
0.000162348
0.00016328
0.000148419
0.00014733
0.000174493
0.000147336
0.108601
0.000156974
0.000148424
0.000160102
0.000147386
0.000227395
0.000181668
0.000218296
0.000163674
0.000146304
0.000146725
0.0159287
0.0513426
0.000199234
0.000147427
0.000148665
0.0155936
0.000263834
0.000173573
0.000147537
0.000172575
0.0188618
0.000171154
0.000156565
0.000163903
0.0532504
0.0196884
0.000179574
0.0182406
0.000166565
0.107283
0.000160191
0.000170013
0.000300759
0.000150342
0.000148238
0.000172486
0.000515953
0.00015223
0.000145669
0.101934
0.030314
0.000173259
0.000264147
0.000224484
0.000183382
0.00026453
0.000149397
0.000148524
0.000148714
0.0535674
0.000168022
0.000154831
0.000149585
0.0487774
0.000174004
0.000238842
0.00944621
0.0301553
0.0298261
0.0237489
0.000159955
0.00069439
0.000148751
0.000146301
0.000180588
0.000148834
0.00858719
0.000351187
0.000261452
0.000146207
0.00016412
0.000256218
0.000260209
0.000254191
0.000159553
0.00017038
0.02427
0.0313787
0.00021533
0.000157686
0.000149145
0.000146855
0.000455219
0.000168055
0.00684578
0.000157856
0.000151958
0.00026505
0.000213982
0.000150173
0.000149878
0.000167807
0.000305615
0.00288749
0.00547655
0.000164333
0.000294715
0.00404868
0.000152413
0.000168485
0.0233658
0.000156965
0.000304876
0.000148609
0.000304237
0.000149572
0.00017191
0.000154132
0.000148635
0.000255324
0.000150191
0.000454465
0.000146177
0.000214249
0.00785406
0.0137326
0.000157222
0.000168841
0.000149755
0.000170613
0.000148108
0.000171615
0.0338538
0.000157163
0.000156914
0.000148823
0.00658564
0.000146378
0.0469258
0.00431877
0.000205948
0.000149647
0.00559098
0.00816036
0.04701
0.000274088
0.000164062
0.00017673
0.000243441
0.000164673
0.000217395
0.000161621
0.0148156
0.000214137
0.00014712
0.000157444
0.000279769
0.0481939
0.029138
0.000146815
0.000173976
0.000148206
0.000244602
0.000263011
0.000157861
0.000174035
0.000216726
0.000147836
0.000162733
0.000217713
0.000392752
0.000148681
0.000148634
0.000157272
0.0243396
0.0134093
0.000171758
0.000147654
0.000260628
0.000263417
0.000209177
0.000173661
0.0235715
0.0121927
0.00015845
0.000162813
0.0808287
0.000147302
0.000148696
0.000210354
0.000174825
0.000146448
0.00014955
0.000148023
0.000147973
0.000163337
0.000148667
0.0247354
0.000170218
0.000148
0.0488497
0.0147971
0.000149157
0.00021531
0.0182953
0.000150583
0.000149266
0.000171787
0.00772559
0.108684
0.000183283
0.000148377
0.000693543
0.000148706
0.000185827
0.0188687
0.000387371
0.000154521
0.0769497
0.0122811
0.116351
0.000223281
0.000162839
0.0164482
0.0179744
0.000412691
0.000150165
0.064752
0.00722781
0.000228037
0.000217459
0.000152433
0.000183106
0.000157949
0.0206906
0.000163682
0.00014699
0.000145018
0.000159205
0.112183
0.000386829
0.000147222
0.0131996
0.000158045
0.000164137
0.000155082
0.00742967
0.000259408
0.00028564
0.000153668
0.000156224
0.0570021
0.000149151
0.000267194
0.000158304
0.000171798
0.000158582
0.000148201
0.00014797
0.000214906
0.00022424
0.0002144
0.0372741
0.0575055
0.000152408
0.00625418
0.000267326
0.000146567
0.00039618
0.000194857
0.0162367
0.000158616
0.000190351
0.0108585
0.0114212
0.000211176
0.0218804
0.000151323
0.000372892
0.0195566
0.000162219
0.0189361
0.000164551
0.00164783
0.000162607
0.000172253
0.0002151
0.00026503
0.000148518
0.000157996
0.000176026
0.000164127
0.000147536
0.000171704
0.00340265
0.00014811
0.000168816
0.0098252
0.000154774
0.0187665
0.000170217
0.105389
0.000157645
0.000182065
0.000375048
0.000265225
0.000174371
0.0242022
0.0075185
0.00257158
0.000147847
0.000214986
0.000165014
0.000188864
0.000147383
0.023353
0.000646596
0.00162133
0.000156128
0.000216075
0.00040715
0.012969
0.000145568
0.0467134
0.000308145
0.037943
0.000162277
0.000439793
0.000148264
0.000148769
0.0113074
0.000384801
0.000148355
0.000155135
0.000169502
0.00014659
0.000600197
0.000183261
0.000194204
0.000157478
0.000151371
0.000149291
0.0125337
0.000147959
0.000149239
0.0530864
0.00168969
0.000155927
0.00270243
0.000148768
0.000148645
0.000155336
0.000216049
0.000171708
0.000147602
0.000152339
0.000199184
0.000153551
0.107199
0.000148558
0.000159956
0.0446994
0.000160838
0.000145091
0.000148872
0.000157323
0.000150769
0.00260709
0.0558824
0.00016411
0.000659117
0.000155425
0.000148481
0.0199982
0.00621417
0.000160276
0.000148237
0.0169458
0.00015969
0.00792698
0.000148412
0.000164154
0.000214195
0.000163794
0.0188694
0.000435075
0.00180725
0.000152572
0.000225887
0.000147844
0.04646
0.000170023
0.000213403
0.000164737
0.000153316
0.000160873
0.000180937
0.000148532
0.0221555
0.0194649
0.106463
0.00600989
0.0544355
0.0688564
0.000266133
0.00015664
0.000149442
0.0355946
0.000148401
0.000147513
0.000157911
0.00577735
0.000154716
0.000150344
0.00017529
0.00017491
0.000148471
0.00138747
0.000147557
0.019456
0.00171697
0.000147589
0.000153952
0.000303253
0.000397986
0.000146455
0.0825363
0.0562539
0.000147224
0.10814
0.000290758
0.000213481
0.000152521
0.0509748
0.0113389
0.000147457
0.000286551
0.000148703
0.000147567
0.062027
0.00166938
0.000169626
0.00017166
0.000148416
0.000175806
0.018924
0.033791
0.000148287
0.0629237
0.000147583
0.000148775
0.000174568
0.000160997
0.000145558
0.000152817
0.104646
0.000253149
0.105164
0.000154243
0.000148164
0.0255873
0.000149266
0.000216732
0.000159251
0.000163188
0.000164176
0.0489569
0.0134003
0.000157605
0.0421002
0.000153964
0.000182968
0.0485692
0.0160727
0.000148634
0.000147864
0.000163423
0.101466
0.0123514
0.000175428
0.0270335
0.000161156
0.000162049
0.0381132
0.00420904
0.000186878
0.0196318
0.00025345
0.0562324
0.00015062
0.0207763
0.000398079
0.000148635
0.0194737
0.000933481
0.000159997
0.000170277
0.000148419
0.000531946
0.000177171
0.0563528
0.000148012
0.000149028
0.000155466
0.000174399
0.000148617
0.00770968
0.000148989
0.000249112
0.000152564
0.000189769
0.000148389
0.000148476
0.000167905
0.0622227
0.000174516
0.0182456
0.000164179
0.000146667
0.000147278
0.000180995
0.000152284
0.00019703
0.000155476
0.000159978
0.0209539
0.000149277
0.0260572
0.000149688
0.000212624
0.0457382
0.0362597
0.000156835
0.064329
0.000174533
0.000239642
0.000926964
0.000148775
0.00243953
0.000158078
0.000163103
0.00717537
0.000392885
0.0001467
0.000195905
0.000150061
0.0542684
0.0311492
0.000149257
0.000167713
0.000609561
0.000149759
0.000149694
0.000185592
0.0219499
0.0464372
0.000149277
0.000215134
0.000153166
0.00014848
0.0265597
0.000215947
0.000211134
0.000145339
0.000216211
0.000164016
0.000179638
0.000150555
0.000151628
0.000175673
0.000155271
0.000227527
0.000174066
0.000174499
0.000181953
0.000947972
0.000292883
0.0240362
0.0674519
0.000256114
0.0125991
0.00016366
0.0621045
0.000215447
0.000148143
0.000161741
0.0002713
0.000158133
0.000147634
0.000147613
0.000211195
0.0197071
0.000160007
0.00576314
0.000146705
0.0464019
0.000181221
0.0191012
0.000195566
0.000157835
0.000154922
0.0194064
0.000210663
0.000163267
0.000419312
0.00015099
0.0344999
0.000213147
0.000248373
0.000164679
0.000508941
0.00014824
0.000149638
0.000151969
0.000148479
0.0463833
0.000147952
0.0248226
0.0247256
0.000196216
0.0246542
0.0150998
0.00025126
0.000265092
0.000156844
0.000149214
0.000148538
0.00014574
0.000147217
0.000148855
0.000183328
0.000224849
0.000164883
0.000403019
0.000151641
0.0234701
0.000149958
0.0244089
0.00016912
0.000149889
0.000148918
0.0341651
0.000157988
0.0264498
0.000900427
0.000168738
0.000183489
0.000147109
0.019047
0.000153482
0.000154855
0.0233838
0.000149247
0.000150308
0.000148353
0.000169143
0.0184223
0.000161694
0.000164776
0.000305267
0.0413201
0.000157159
0.000156372
0.0527049
0.000145688
0.0527243
0.000149296
0.00015362
0.000523808
0.000189927
0.000215434
0.000188552
0.000174721
0.000149546
0.000149955
0.000185029
0.000150821
0.000149587
0.000161036
0.000300983
0.000147829
0.00023362
0.0123597
0.0296994
0.00018856
0.0887618
0.000160476
0.000149187
0.000209319
0.000146826
0.000158044
0.0237092
0.0588308
0.00389316
0.0540168
0.000149468
0.000149074
0.000169939
0.000151272
0.000147129
0.0506838
0.000248473
0.0182041
0.000215522
0.000190788
0.000148491
0.000146446
0.0549267
0.000194286
0.000154125
0.000149688
0.000216609
0.000233002
0.00378796
0.000149364
0.000148972
0.0149634
0.000150502
0.000164403
0.000146614
0.00407031
0.000148235
0.055306
0.000148635
0.000198604
0.000167427
0.000169506
0.000164806
0.000148111
0.00015514
0.000148083
0.0271027
0.000150433
0.0344432
0.000151303
0.000531466
0.0208194
0.000163374
0.000147948
0.0102371
0.0521641
0.000158152
0.000189874
0.000148547
0.0210508
0.000148317
0.000272114
0.000148551
0.000148063
0.025043
0.000164253
0.000148813
0.000164537
0.0149312
0.000463142
0.000616992
0.000146812
0.0138464
0.00014864
0.000147877
0.000149375
0.000144697
0.000149594
0.000731296
0.0196976
0.000150265
0.000148963
0.000169913
0.000147392
0.0148613
0.000211305
0.0110826
0.0172439
0.000155103
0.000225328
0.000148588
0.000169017
0.000177443
0.000148656
0.000149357
0.0123952
0.0303182
0.00018221
0.0254089
0.000178349
0.000148774
0.000171359
0.000190733
0.0514676
0.000162521
0.0181824
0.000195438
0.000149493
0.0492266
0.0469882
0.0241961
0.000455751
0.0635007
0.000152492
0.0001764
0.000149284
0.000363549
0.000157557
0.000147014
0.000648031
0.000151359
0.000147946
0.000148632
0.000150979
0.00519221
0.000268026
0.000147071
0.000171759
0.00840513
0.000152055
0.0236314
0.000151565
0.000187982
0.00159805
0.000148698
0.0193117
0.00016064
0.000164631
0.000512532
0.00015135
0.0002937
0.000181809
0.0109567
0.00015067
0.0281992
0.000161994
0.0122301
0.0407629
0.0226147
0.000168293
0.000148226
0.000149541
0.000149762
0.000171322
0.000148902
0.0190318
0.000158851
0.000156568
0.000157003
0.000152381
0.000146771
0.000160892
0.000158902
0.000153889
0.00015779
0.000941174
0.0296265
0.000161036
0.000169942
0.000655748
0.000150424
0.115015
0.000145705
0.000161271
0.000150489
0.000147854
0.000166969
0.000148443
0.000147027
0.000162779
0.000148593
0.000297571
0.000151864
0.0181803
0.00036553
0.000244352
0.000268862
0.000149589
0.0320091
0.000223543
0.000149515
0.000158639
0.00015012
0.118366
0.000151551
0.000162695
0.000394827
0.00941617
0.000179477
0.000149404
0.0476281
0.0003832
0.0636063
0.000160561
0.000146591
0.000148235
0.000183317
0.000148219
0.0103502
0.000216721
0.000149383
0.000260696
0.000302925
0.000148211
0.000896132
0.0512653
0.000246688
0.000151569
0.0499147
0.000183205
0.000148144
0.0140894
0.000156255
0.000147851
0.000147586
0.000163142
0.000170464
0.0243574
0.105154
0.00016684
0.0282304
0.000162951
0.000148102
0.000169041
0.000147656
0.0409908
0.000148476
0.000148245
0.000153074
0.000150758
0.0223993
0.0239371
0.000379995
0.0138888
0.0444048
0.000157232
0.000148166
0.000151845
0.000306862
0.000148411
0.000147413
0.00016986
0.000537234
0.0382943
0.000145621
0.000165799
0.0001649
0.000213178
0.0212627
0.000147271
0.000145486
0.000154285
0.00340184
0.000161059
0.0183121
0.000151581
0.000149048
0.000147949
0.000147572
0.000154126
0.000247692
0.0578814
0.0329597
0.000157045
0.000148493
0.0249537
0.000150815
0.000454533
0.0143311
0.000158294
0.0747404
0.0466461
0.0869552
0.000174309
0.000162195
0.0157363
0.000161845
0.000160404
0.000170318
0.000250277
0.000150555
0.000536711
0.000148128
0.026519
0.00260833
0.00014573
0.000152733
0.000167305
0.000304155
0.00016365
0.000148894
0.00015937
0.000151585
0.000157292
0.000270091
0.000149152
0.0515112
0.0192417
0.000148145
0.000161516
0.000169587
0.000148672
0.0579511
0.00966094
0.0236773
0.0405413
0.00014834
0.00015459
0.000157889
0.000149373
0.000613068
0.000163714
0.000149718
0.000177352
0.000154998
0.000580671
0.000167458
0.00705221
0.00015147
0.000151989
0.000163929
0.000194617
0.000185591
0.000147833
0.00788886
0.0147018
0.0470668
0.0769504
0.0265884
0.0283965
0.0115365
0.000147852
0.000148172
0.000149236
0.0068162
0.0001707
0.000185536
0.028335
0.000150407
0.000145413
0.0001484
0.0201373
0.000145638
0.000157865
0.000152577
0.0436409
0.000150987
0.000146875
0.000148725
0.000147935
0.000149012
0.000160022
0.000428555
0.000160466
0.000605983
0.000148266
0.000147589
0.0192967
0.0213862
0.017647
0.0391918
0.000163905
0.0488626
0.000146553
0.000169885
0.000151965
0.000148672
0.000155677
0.0716435
0.000152667
0.000195042
0.0710113
0.00015041
0.000147781
0.000155291
0.000251175
0.000149806
0.0446981
0.000149142
0.00302542
0.000148884
0.000150192
0.00015824
0.000172038
0.000148786
0.00111693
0.106938
0.0126022
0.0202672
0.000148275
0.0596617
0.000342553
0.000148444
0.0059848
0.00014935
0.000161946
0.000149161
0.000150485
0.000147675
0.000148488
0.000149892
0.000155902
0.000181169
0.000149655
0.000148723
0.000166024
0.00014667
0.0741072
0.000148874
0.000163406
0.000163651
0.0109706
0.000381363
0.000149061
0.000249293
0.000146568
0.000163552
0.000174056
0.0389412
0.000169565
0.000149807
0.000213894
0.000168302
0.000190084
0.000344246
0.000161034
0.000216306
0.000174962
0.000181221
0.000150884
0.000147451
0.0257666
0.0094039
0.000154998
0.000148116
0.0234815
0.000146749
0.000169664
0.000147682
0.00017865
0.0457163
0.000145251
0.0241039
0.000157504
0.000149097
0.000263062
0.000147003
0.000161478
0.0432476
0.000169687
0.0281455
0.00014764
0.00014976
0.000162433
0.000149555
0.000149646
0.000159436
0.000161169
0.000181701
0.0001804
0.000148543
0.000165841
0.000147248
0.000148535
0.000149492
0.000148471
0.0178482
0.000148485
0.000151676
0.00117901
0.0001467
0.000148025
0.0230512
0.000149676
0.0206855
0.000152978
0.0272377
0.00025676
0.000164582
0.0547632
0.000179652
0.000349415
0.000150674
0.000234762
0.000158471
0.000147345
0.000147418
0.00015162
0.000162007
0.000147869
0.000171694
0.000147272
0.000152011
0.0209498
0.0247331
0.00184438
0.000155515
0.000163201
0.0160307
0.0326656
0.000149225
0.000157632
0.00035597
0.00014994
0.000169406
0.0562823
0.0349462
0.000158561
0.000166326
0.000150682
0.000313327
0.000149903
0.000161346
0.000430037
0.000148868
0.000147281
0.0746215
0.000171963
0.000426761
0.0195147
0.000210224
0.000149755
0.000147293
0.000150349
0.0823726
0.00039345
0.000644351
0.000175545
0.000148466
0.0172409
0.000148821
0.000222871
0.000155533
0.000153814
0.000170036
0.000148512
0.000896874
0.0293081
0.000147253
0.000183061
0.000170849
0.0514343
0.000172857
0.000175791
0.000501917
0.000163246
0.0319292
0.000176101
0.000148842
0.000163444
0.000168812
0.0506628
0.000148308
0.0176375
0.000173805
0.000178715
0.000149812
0.0748016
0.000157263
0.000152201
0.000147174
0.00016701
0.000166591
0.000166695
0.000148864
0.000150407
0.000172692
0.0145717
0.000176922
0.000149115
0.000150452
0.000163722
0.000252118
0.000149218
0.000182997
0.0774236
0.000168001
0.0366249
0.000170487
0.0153279
0.000293552
0.000147858
0.00305843
0.000149551
0.000155
0.000161908
0.000164115
0.000197001
0.000168539
0.000166002
0.000167464
0.000163039
0.000153272
0.000145578
0.000170407
0.000156492
0.000157387
0.000372439
0.000156969
0.000159353
0.000147589
0.0236018
0.000181213
0.000148539
0.000155448
0.000151778
0.00779806
0.000218056
0.000161939
0.047663
0.000335246
0.00545114
0.000194687
0.0239663
0.000147213
0.000186924
0.000147329
0.000155655
0.0800132
0.0583583
0.000295074
0.0195624
0.000148878
0.00711553
0.000147197
0.000189806
0.000154721
0.0535418
0.000713078
0.00015951
0.000148069
0.000291275
0.000162338
0.000148163
0.0964716
0.000148556
0.000152363
0.000156552
0.000149168
0.000162815
0.000151893
0.00014843
0.000163495
0.000491766
0.00016694
0.000177124
0.000148111
0.0165767
0.0602163
0.000147961
0.000435103
0.000154635
0.00015731
0.000534682
0.00014794
0.000150427
0.000156726
0.0141163
0.000148268
0.000149181
0.000170044
0.064972
0.000147833
0.000159665
0.000161859
0.000368445
0.000172861
0.000169916
0.000259492
0.000148583
0.00017395
0.000145764
0.00828532
0.000162033
0.000148433
0.000159759
0.000193333
0.000148958
0.000149827
0.000215531
0.0598499
0.000150776
0.00818203
0.000149259
0.00014572
0.000182609
0.000148298
0.000148501
0.000784651
0.000149829
0.000168403
0.000258895
0.118845
0.000359475
0.000148349
0.000152881
0.000156568
0.000148519
0.000148217
0.000148783
0.0528274
0.000149355
0.0368326
0.000210657
0.000147168
0.000146779
0.000162079
0.000210767
0.000531794
0.000166979
0.000178411
0.000152859
0.0259689
0.000177445
0.000164045
0.000165125
0.000172643
0.000193969
0.02189
0.00016902
0.0359795
0.000534834
0.0228086
0.000155344
0.000147891
0.000168416
0.000159503
0.000147601
0.000150849
0.000181146
0.000149617
0.000149531
0.000148454
0.000145398
0.000153818
0.000149192
0.0585052
0.000148055
0.0198963
0.000148571
0.000174979
0.000150709
0.000210017
0.000174681
0.000148246
0.0212489
0.000152784
0.000149548
0.000165418
0.000147133
0.000158853
0.00014867
0.0593249
0.000153716
0.000170928
0.000171182
0.021684
0.000158165
0.0396916
0.000368836
0.000169933
0.000149502
0.000152265
0.000177808
0.000182551
0.0421797
0.000146532
0.0486757
0.000148523
0.000169982
0.105173
0.000165835
0.057871
0.000155412
0.000163316
0.000154223
0.027828
0.00016297
0.000148868
0.000168987
0.000214625
0.000152526
0.000148318
0.000148905
0.0423001
0.000149705
0.000157465
0.0207941
0.000155592
0.000147841
0.000172013
0.000154985
0.0077814
0.000145424
0.000148077
0.000146987
0.000155025
0.000150526
0.000149521
0.000178302
0.0203917
0.000147748
0.000148753
0.00063668
0.000150632
0.0219618
0.000155534
0.0858721
0.000147253
0.000153405
0.000146554
0.0307094
0.0209423
0.000159315
0.000169806
0.000155794
0.000147785
0.000148838
0.0590529
0.000148833
0.000189959
0.000146556
0.000171371
0.000149334
0.000623658
0.000146785
0.000167409
0.000147495
0.000228346
0.00282363
0.000146912
0.000166436
0.0016758
0.000180641
0.0415656
0.0556342
0.000237574
0.000151948
0.000164896
0.000195407
0.000404827
0.000150613
0.000168197
0.000156668
0.000147972
0.032033
0.050984
0.000182297
0.0002213
0.00029267
0.000163023
0.0269984
0.000147516
0.000146812
0.000194734
0.0335295
0.00024987
0.000220402
0.000374818
0.000146563
0.0600886
0.0242045
0.103067
0.000149316
0.0549914
0.0968711
0.00292373
0.00044507
0.01617
0.000191349
0.000162425
0.000227198
0.000154595
0.000147957
0.00407547
0.000193542
0.000145493
0.0110671
0.000149308
0.00015855
0.00016811
0.000155654
0.000379708
0.000160331
0.0102432
0.000168301
0.000155104
0.000550115
0.00136893
0.000213503
0.000149908
0.000154663
0.000185623
0.000169037
0.000146701
0.000174226
0.000167793
0.000213879
0.000147885
0.000237609
0.00015361
0.000168993
0.0483397
0.0357264
0.000151437
0.000191449
0.0877188
0.000148857
0.000150701
0.107594
0.000301015
0.000154539
0.000155444
0.000148726
0.000175677
0.000156815
0.0509383
0.00019663
0.000150015
0.00014945
0.000166685
0.000159551
0.00034286
0.0253271
0.000147284
0.000148292
0.000159105
0.0001493
0.000154642
0.000151011
0.000151509
0.000154766
0.000147596
0.000154223
0.000149149
0.000168339
0.000401078
0.000149752
0.000590871
0.043618
0.000145765
0.000187668
0.000194276
0.000181268
0.000150505
0.000193373
0.000158375
0.000169138
0.000160752
0.000152259
0.000149353
0.0468055
0.000162136
0.0320473
0.00015046
0.000148324
0.000148195
0.000174156
0.000147719
0.000173724
0.000175876
0.000383416
0.000147397
0.000321439
0.030047
0.0155105
0.000146503
0.000207617
0.000234862
0.023282
0.000508352
0.000150365
0.000149265
0.000211237
0.000370375
0.0269385
0.000167977
0.000705357
0.0001495
0.000147695
0.000164773
0.000149347
0.000149125
0.000218193
0.000149768
0.000170123
0.0001472
0.00132855
0.00182932
0.000521996
0.0467524
0.0146212
0.000148862
0.000149054
0.00076328
0.000146715
0.000147019
0.000145742
0.000188528
0.0167114
0.0465768
0.000156303
0.000150042
0.000151802
0.000163151
0.00907844
0.000148189
0.0534383
0.00120095
0.000149324
0.000149221
0.0181026
0.000187717
0.000153811
0.00014835
0.000629641
0.0162177
0.000148937
0.000247383
0.000149693
0.0156911
0.000589535
0.000155035
0.0247668
0.0314124
0.000656543
0.000147051
0.000150537
0.00014966
0.000149901
0.0212861
0.000147522
0.000219405
0.0205652
0.0338598
0.000151356
0.000174739
0.000331391
0.000174795
0.000738037
0.112347
0.000145255
0.000156703
0.000156873
0.00029584
0.0378079
0.000145259
0.0207056
0.000160814
0.000166056
0.000150522
0.000147558
0.000268654
0.000169315
0.0167564
0.000149339
0.000174709
0.000151012
0.000209685
0.00015473
0.0202329
0.000531161
0.000240044
0.000205128
0.000147828
0.000152917
0.00019116
0.000186815
0.0260579
0.000874023
0.000148944
0.0488593
0.00017109
0.00847011
0.000160596
0.000171424
0.000169787
0.000149124
0.000648324
0.000148597
0.000163011
0.039526
0.00149939
0.0132028
0.016033
0.000158155
0.000173153
0.000146704
0.00138883
0.000157281
0.000498281
0.000146666
0.0133761
0.000145287
0.00014801
0.000162729
0.000158576
0.000159904
0.000147983
0.0249751
0.000167419
0.000147534
0.000166569
0.0286627
0.000117078
0.000148249
0.114829
0.000154145
0.000162736
0.000162687
0.00014559
0.000180372
0.000147938
0.0746502
0.000174306
0.0001596
0.000148207
0.000303031
0.000169291
0.000146684
0.000528538
0.00039787
0.000257643
0.000147093
0.000363892
0.000149024
0.000202371
0.000158812
0.000185052
0.000421564
0.0203389
0.000159686
0.017091
0.000170127
0.000157832
0.000146773
0.00137346
0.000182722
0.000197783
0.000165851
0.000149594
0.059513
0.000187265
0.000306069
0.00176077
0.00103858
0.0263937
0.055073
0.0674704
0.000158151
0.000158736
0.000148777
0.000149066
0.000145352
0.000235648
0.000158865
0.000159916
0.0881803
0.000147564
0.000146902
0.000166729
0.000214919
0.00015902
0.00014685
0.00294307
0.000154655
0.000169647
0.000149026
0.0631801
0.00015725
0.000694449
0.000167014
0.000164717
0.000171919
0.000148735
0.0100815
0.000322001
0.00018276
0.000148309
0.000147262
0.0100351
0.111225
0.0508398
0.000147969
0.000183215
0.000348759
0.000149287
0.000148039
0.000148565
0.018043
0.00017231
0.000163519
0.000160966
0.000157237
0.0250849
0.000181609
0.0002601
0.000159004
0.000163189
0.000145402
0.000187977
0.000173789
0.000148053
0.0623041
0.11069
0.015778
0.0609804
0.0930734
0.0962236
0.0007611
0.000151501
0.000148329
0.000717176
0.0182581
0.000495334
0.000148457
0.00016817
0.000148509
0.000147735
0.0592913
0.00131655
0.000179742
0.000148011
0.000357844
0.00019475
0.000174577
0.011429
0.000550353
0.000405351
0.000147303
0.0198131
0.0522165
0.00030389
0.000162287
0.000170376
0.000149206
0.000147116
0.000169175
0.000173208
0.000154144
0.000164769
0.000158937
0.000154561
0.0131692
0.017001
0.000159272
0.000165754
0.0157176
0.00192819
0.000148798
0.000196773
0.00027237
0.0262952
0.000170354
0.000149345
0.00016087
0.000158104
0.000158586
0.000145585
0.000159114
0.000161098
0.000167522
0.000233427
0.000149504
0.000151745
0.0235002
0.0535214
0.00181446
0.000325003
0.000214034
0.0001451
0.00014846
0.000161998
0.000146544
0.00250662
0.000148335
0.000149825
0.000146005
0.0624733
0.0504956
0.000149758
0.000177909
0.000159382
0.000161721
0.000161866
0.000159893
0.000166912
0.00016761
0.0256614
0.000157312
0.0166867
0.000167995
0.00298537
0.000161244
0.000147454
0.00014671
0.000195373
0.000215797
0.000146641
0.000163228
0.000161486
0.000177251
0.048565
0.0224719
0.00990297
0.000149824
0.000369057
0.000158834
0.00016496
0.00014822
0.000181947
0.000152598
0.0364301
0.000397507
0.000166468
0.000148668
0.0554831
0.000155881
0.0129112
0.0174379
0.0179691
0.000153664
0.000208654
0.0202584
0.000364887
0.0176757
0.000178849
0.000148029
0.000167998
0.000148111
0.0965969
0.000154059
0.000163554
0.000391845
0.0102506
0.00014778
0.000147848
0.101984
0.000170585
0.106141
0.000158988
0.00014838
0.000171576
0.000251863
0.000162671
0.0413475
0.000164866
0.000360554
0.000155998
0.000149657
0.000147759
0.000264038
0.000150499
0.000186676
0.000148481
0.000148244
0.000258938
0.00015737
0.00014905
0.000148323
0.000165104
0.000352498
0.000166148
0.000169326
0.000155376
0.000179901
0.000148281
0.00020222
0.000162262
0.000171086
0.000167187
0.000161652
0.000176073
0.000163371
0.000147943
0.000180792
0.0771993
0.0436031
0.00014962
0.0225974
0.0145038
0.000147797
0.000150569
0.000265492
0.0120345
0.000156364
0.018008
0.000300396
0.000149724
0.000190118
0.000145292
0.000157218
0.00018055
0.0823834
0.000219343
0.0326252
0.000325247
0.0631771
0.0173563
0.00015397
0.0173766
0.000148305
0.0563698
0.0173898
0.000148798
0.00014847
0.0391471
0.000148929
0.00014871
0.000319811
0.0318001
0.000248141
0.000157559
0.015847
0.000148617
0.0541898
0.0168739
0.000149229
0.000442691
0.0392669
0.0134238
0.0324426
0.0194632
0.0343444
0.00014715
0.000151583
0.000180883
0.000180182
0.000148669
0.00656747
0.000148338
0.0225338
0.000325324
0.000164469
0.000368065
0.0259111
0.000327964
0.000828076
0.000165837
0.0511734
0.00052223
0.000156317
0.000145438
0.0506349
0.000161566
0.000146617
0.0733263
0.000147799
0.0460585
0.000149053
0.00970731
0.00015671
0.000147785
0.0280585
0.000156107
0.000160593
0.0351138
0.000670847
0.0098635
0.000159214
0.000172616
0.000151686
0.000166181
0.000208554
0.000165065
0.000149427
0.000367234
0.000180452
0.000162018
0.0270582
0.000169154
0.00016246
0.000220074
0.00018597
0.000166926
0.000147759
0.000231397
0.000146714
0.000208518
0.0287779
0.0148273
0.000147041
0.00016927
0.0395971
0.000153097
0.000180355
0.000162638
0.000171098
0.000737219
0.00017967
0.000151995
0.0634861
0.000147111
0.0573072
0.000148894
0.000152384
0.000208455
0.0527138
0.000162283
0.000192823
0.00027158
0.000161366
0.00014972
0.000179397
0.00017286
0.0694707
0.000155384
0.0247003
0.000215242
0.000161845
0.00016116
0.00018069
0.000167207
0.000168152
0.000179194
0.000162808
0.000154691
0.000149968
0.0275669
0.000148027
0.000160698
0.000145227
0.000204417
0.000161009
0.000178169
0.0135806
0.000151346
0.000250919
0.000144737
0.000149006
0.000149297
0.000149415
0.000158694
0.000147555
0.000190943
0.0121795
0.000177022
0.000171431
0.000156214
0.000148393
0.0345105
0.000148195
0.0160117
0.000577986
0.0736036
0.000241777
0.000164417
0.000158824
0.000149261
0.000158105
0.000171109
0.000169884
0.0158292
0.000175915
0.120253
0.000254277
0.000149371
0.000146776
0.0420441
0.000147788
0.000160661
0.000166476
0.000292087
0.000153451
0.0199151
0.000149188
0.000156474
0.000148535
0.000150266
0.000179206
0.000206767
0.000149261
0.000162732
0.000159958
0.000170504
0.000174334
0.000259695
0.000217556
0.00025843
0.000248271
0.000159785
0.000151634
0.000173664
0.0556542
0.000725256
0.0492645
0.000161455
0.000446798
0.000209048
0.000151889
0.000147958
0.000179009
0.000149039
0.000163599
0.0531018
0.000147714
0.000147324
0.000439253
0.0627643
0.000169092
0.0124537
0.000148854
0.0117857
0.000169819
0.00230282
0.000157472
0.00014827
0.0520838
0.000165441
0.00014818
0.000172949
0.000149709
0.000200375
0.00016089
0.000164657
0.0435829
0.000159683
0.000590463
0.000147501
0.115994
0.000148765
0.000157547
0.000149998
0.000172276
0.000148915
0.000166612
0.0558702
0.000923459
0.000174899
0.000161609
0.000168936
0.000147641
0.00014896
0.000152543
0.00060177
0.000156322
0.00176664
0.0101928
0.00019727
0.000149495
0.000204204
0.000232992
0.000216312
0.000159292
0.0161771
0.000147865
0.000145043
0.000147762
0.00649804
0.00014898
0.000148057
0.0514596
0.000147747
0.000222038
0.000172736
0.000148047
0.0233716
0.000161776
0.00850701
0.000147921
0.000382494
0.000151219
0.000167382
0.0251391
0.000181732
0.000147607
0.000159349
0.0108237
0.000163211
0.000206772
0.000162142
0.00015746
0.00019477
0.000158492
0.000150676
0.0232199
0.000161395
0.000160767
0.000299538
0.000147772
0.000147197
0.000149211
0.000164185
0.000148749
0.000155437
0.000589448
0.0149831
0.00017203
0.00974456
0.000178156
0.00016762
0.0112699
0.117495
0.000149887
0.0425107
0.0239232
0.0226763
0.00833501
0.000163013
0.00683279
0.0434425
0.0393163
0.00576731
0.000755893
0.000163161
0.000170419
0.000157847
0.000158166
0.000151052
0.00304975
0.0001499
0.0165516
0.000175687
0.000217503
0.000145074
0.000184417
0.000164016
0.000152257
0.000149953
0.000148695
0.000174841
0.000153973
0.000150509
0.000167956
0.0839671
0.000154841
0.000205765
0.00014669
0.000174619
0.000170033
0.000148896
0.000156627
0.000147582
0.0112509
0.0248003
0.000224164
0.0732313
0.000161533
0.000192094
0.000148946
0.000166207
0.000149688
0.000149604
0.000149599
0.0229721
0.000146504
0.000172675
0.000608226
0.000157931
0.000161378
0.000147932
0.0675538
0.000231556
0.0316264
0.011616
0.000221442
0.000282258