/*--------------------------------*- C++ -*----------------------------------*\
| =========                 |                                                 |
| \\      /  F ield         | OpenFOAM: The Open Source CFD Toolbox           |
|  \\    /   O peration     | Version:  v2012                                 |
|   \\  /    A nd           | Website:  www.openfoam.com                      |
|    \\/     M anipulation  |                                                 |
\*---------------------------------------------------------------------------*/
FoamFile
{
    version     2.0;
    format      ascii;
    class       volScalarField;
    location    "450";
    object      k;
}
// * * * * * * * * * * * * * * * * * * * * * * * * * * * * * * * * * * * * * //

dimensions      [0 2 -2 0 0 0 0];


internalField   nonuniform List<scalar> 
13851
(
0.000159365
0.00842876
0.000205366
0.000158386
0.000199503
0.000177851
0.000149212
0.000189517
0.000139363
0.000215255
0.000492312
0.0438295
0.0532714
0.021735
0.000144426
0.000179967
0.000163355
0.000171654
0.039562
0.000139157
0.000157872
0.000203843
0.000158051
0.000150057
0.000160698
0.000190601
0.000160042
0.00140308
0.000159011
0.000162826
0.000180792
0.000164175
0.000204423
0.00780167
0.000149874
0.000283267
0.041819
0.0130724
0.000218219
0.00750102
0.000148357
0.000136908
0.00422135
0.00136156
0.00212665
0.0165109
0.00454222
0.000215938
0.000160576
0.00132603
0.000193326
0.000182459
0.00629502
0.000146645
0.000153664
0.000137156
0.000150673
0.00807727
0.000162109
0.000150056
0.0131185
0.0387355
0.000188489
0.000202261
0.00024608
0.000162815
0.0474192
0.00529461
0.000174441
0.00017129
0.0189258
0.0554697
0.016739
0.000147668
0.000141941
0.000142461
0.000202663
0.0238525
0.000186735
0.0208359
0.000151962
0.000424235
0.000145396
0.0127206
0.000189812
0.0439227
0.000173334
0.0030456
0.000163665
0.000161819
0.000308039
0.00018031
0.00529276
0.000167753
0.000163055
0.000156623
0.000199733
0.0459556
0.00289743
0.000156963
0.0156816
0.000186573
0.000155305
0.000158107
0.000142281
0.000175569
0.00018853
0.000134419
0.0604143
0.000179284
0.00015326
0.000162537
0.000178477
0.00015251
0.000153024
0.0204207
0.048705
0.000134524
0.000150605
0.000156102
0.0041117
0.000157921
0.0542975
0.00538443
0.000223407
0.000173478
0.000217733
0.000186775
0.000157189
0.00015426
0.000147995
0.000138878
0.0233203
0.000145239
0.0198071
0.000140664
0.000134609
0.0543319
0.0305239
0.0182524
0.0152436
0.000153527
0.000164806
0.00014622
0.00015909
0.00161345
0.000202109
4.07466e-05
0.000148922
0.00198078
0.000190381
0.000152759
0.0217129
0.000152016
0.000156915
0.000158857
0.00014334
0.000159206
0.000177398
0.00019322
0.000139069
0.000166366
0.00782026
0.000138728
0.000171817
0.000141525
0.000199309
0.000174773
0.000156752
0.0268222
0.0202679
0.000137531
0.000143665
0.0192784
0.000138635
0.000225634
0.000186219
0.000163982
0.0431237
0.000135076
0.000166151
0.0569425
0.000144888
0.000205483
0.000133582
0.000162188
0.000163205
0.000149007
0.00020329
0.000218449
0.00450483
0.00711565
0.000168883
0.000175437
0.0406565
0.000156468
0.000161255
0.00634976
0.000162483
0.000142743
0.000174692
0.0232779
0.000154771
0.000144873
0.000209116
0.000145145
0.0495452
0.000163434
0.0390577
0.000136162
0.0583406
0.000154819
0.00591921
0.000133905
0.000144245
0.000242405
0.000190764
0.0160898
0.000143711
0.040897
0.000163886
0.00015223
0.0562053
0.000174094
0.0556199
0.000164043
0.000170843
0.000143686
0.00933521
0.00013397
0.000189713
0.000243286
0.000137411
0.000167548
0.000190416
0.000190805
0.0516542
0.000250587
0.000145825
0.000145066
0.000179475
0.00757671
0.000150188
0.000212332
0.000140509
0.0516017
0.000187584
0.00756206
0.000159334
0.000166561
0.000185477
0.00743986
0.000152928
0.00015955
0.000185211
0.000204708
0.000216656
0.0558422
0.00594109
0.000145046
0.000144633
0.000169323
0.00140027
0.000156719
0.0487705
0.000156448
0.000152682
0.00016687
0.0572621
0.00120175
0.000185867
0.00015696
0.000210415
0.000185158
0.000178886
0.000139004
0.000264319
0.000178986
0.0574268
0.000451621
0.00015081
0.000135018
0.000141254
0.000184235
0.00141554
0.000246873
0.000140536
0.000144488
0.00020546
0.000215909
0.00146648
0.000161134
0.000150213
0.000177309
0.000331964
0.0474984
0.000170454
0.0429451
0.000139253
0.0528722
0.000165762
0.000163196
0.0575728
0.000151754
0.00017572
0.0539294
0.000140234
0.000181101
0.000168103
0.000160386
0.0343636
0.000170862
0.000152703
0.0537901
0.000138119
0.000167097
0.000183576
0.0589765
0.000202445
0.000143821
0.000186586
0.000144064
0.0163705
0.000189621
0.00015964
0.000147723
0.00020228
0.000169785
0.000156398
0.000144484
0.000151574
0.000152476
0.000745683
0.0180294
0.0305355
0.000174552
0.0590924
0.0485132
0.00014398
0.000176443
0.00146328
0.000182221
0.000201001
0.000204547
0.0418759
0.000169252
0.0114305
0.053615
0.000144723
0.000393013
0.000370893
0.0239284
0.000156335
0.000203849
0.00957953
0.000144186
0.0111584
0.000147559
0.000144088
0.000139174
0.000134456
0.000142287
0.0555272
0.000763674
0.000147628
0.000180059
0.000139811
0.041667
0.00018817
0.000375093
0.0295738
0.000148014
0.000194507
0.000168692
0.000433898
0.0001467
0.000134687
0.00018058
0.0148712
0.000145355
0.0376298
0.000182939
0.000181629
0.021945
0.000548643
0.000600948
0.000184214
0.000139584
0.00015177
0.000172586
0.000185977
0.0209338
0.000174302
0.0573789
0.0540607
0.000140102
0.000145211
0.0280024
0.0246248
0.000240645
0.0508639
0.000181891
0.000169817
0.000161698
0.0484301
0.000138511
0.00017889
0.000181038
0.00014854
0.000142418
0.000140027
0.000141212
0.000201122
0.000199944
0.0224764
0.000171795
0.000187893
0.000169951
0.00720632
0.000168985
0.0266647
0.000162476
0.000223035
0.000134478
0.000139773
0.000164933
0.0271029
0.00174761
0.000157114
0.000169921
0.0166479
0.00797726
0.0001729
0.000158028
0.000190537
0.000146265
0.00702729
0.000144378
0.0325848
0.00676616
0.000203352
0.0360804
0.000165016
0.000171999
0.00666064
0.0168896
0.000133123
0.000171913
0.000187112
0.00170641
0.000137949
0.000152655
0.000189076
0.000181067
0.000177614
0.0260798
0.000163995
0.000148732
0.00773619
0.00017324
0.000134471
0.00880777
0.000139461
0.000159295
0.000138255
0.000190305
0.000157681
0.000135481
0.000163978
0.0547703
0.00014567
0.000176546
0.000140169
0.000168031
0.000184411
0.000152852
0.000148076
0.000152573
0.000152708
0.000247994
0.000152444
0.000174849
0.000144708
0.000159901
0.0181735
0.0338505
0.000145594
0.000169075
0.000169025
0.00784805
0.0137643
0.000148867
0.000563483
0.000147121
0.00020112
0.000149362
0.0114867
0.000135406
0.00610965
0.000217271
0.000137177
0.000170155
0.0358763
0.000191127
0.00321715
0.000150638
0.00130215
0.000156934
0.000138201
0.000139108
0.000148176
0.0298683
0.000191656
0.000178597
0.041471
0.000189404
0.000140277
0.0534438
0.00392489
0.000166249
0.0001669
0.00785628
0.0034581
0.0594445
0.000154372
0.0119849
0.0154612
0.0222312
0.000172363
0.000171213
0.00374598
0.000174428
0.000202357
0.00599941
0.0426931
0.000159878
0.0450159
0.0566009
0.00013461
0.000175619
0.000191922
0.0276685
0.000160002
0.000143595
0.000142912
0.000146552
0.000202299
0.000188232
0.00160883
0.0261588
0.000139865
0.00671771
0.0357801
0.000184965
0.00502746
0.000176169
0.000133539
0.000139614
0.000255135
0.0536049
0.000157201
0.000194833
0.000828217
0.000136892
0.000172441
0.00106325
0.0135259
0.000201655
0.0315949
0.0569386
0.000147557
0.000148626
0.0241098
0.0530565
0.00018917
0.000173905
0.000189222
0.000134919
0.000143142
0.0365361
0.000136194
0.000159777
0.000134742
0.000139723
0.0574451
0.000201542
0.000167827
0.000135985
0.0418924
0.00634199
0.000139549
0.000148855
0.000157598
0.000150794
0.0138018
0.00689495
0.00665278
0.0233235
0.00213425
0.000172084
0.0224163
0.0354658
0.000170344
0.000175222
0.000133411
0.000181432
0.000181286
0.0558558
0.0055094
0.000194747
0.000171018
0.000138824
0.000179844
0.000160044
0.00322283
0.000194491
0.000144501
0.000175513
0.000137855
0.000166129
0.000157546
0.000149747
0.000145855
0.000188075
0.000150207
0.000200297
0.021365
0.000202386
0.0001808
0.000187117
0.00013867
0.000222031
0.000187193
0.0221291
0.000154464
0.000155566
0.0596529
0.000160865
0.0199308
0.0521709
0.0145293
0.0075754
0.000138345
0.0573496
0.000154303
0.000139623
0.000135299
0.000139776
0.000175201
0.000172526
0.000187743
0.000135404
0.0479521
0.000218777
0.0482019
0.000141777
0.000135864
0.00015183
0.000620528
0.0428592
0.000184653
0.000166634
0.000154692
0.00016067
0.000144776
0.000144324
0.0322669
0.0258617
0.000149931
0.000135134
0.000148285
0.000144174
0.0186635
0.00731504
0.00018051
0.0419407
0.00168368
0.00014546
0.000185206
0.0164586
0.000176552
0.0441962
0.00015194
0.000169647
0.000184288
0.000169934
0.00543056
0.000145333
0.00398378
0.000144463
0.00016833
0.0398414
0.000144312
0.000158656
0.000187885
0.000138287
0.000164988
0.00032453
0.017468
0.000194113
0.0454814
0.000597359
0.000134237
0.000141432
0.0182964
6.95511e-05
0.000194428
0.0533633
0.000140413
0.000169356
0.000134759
0.00192436
0.0481059
0.000166981
0.000153246
0.000189154
0.000160854
0.000151539
0.0067585
0.000210253
0.0427756
0.000137774
0.00014978
0.0233179
0.00439979
0.000203178
0.000157195
0.060258
0.000145388
0.00020493
0.000162618
0.000205323
0.000164538
0.0146494
0.000186862
0.000157732
0.0382037
0.000154534
0.000154975
0.000158326
0.000138576
0.0078158
0.000176978
0.000201265
0.000167873
0.000181499
0.000138955
0.000373205
0.000149655
0.00018711
0.000137003
0.000144748
0.000145437
0.0527079
0.000142637
0.000135358
0.00021922
0.000149029
0.0287353
0.00014885
0.000161711
0.000190983
0.0217783
0.00132607
0.000141578
0.000189527
0.0441476
0.000152686
0.0577252
0.000167997
0.000138376
0.000203124
0.00506714
0.000186186
0.000167301
0.000140867
0.000134653
0.0064416
0.000209223
0.000205136
0.00016946
0.000200247
0.000151759
0.000160414
0.000193806
0.0050016
0.00020304
0.00561967
0.000149428
0.000201174
0.000196282
0.0596923
0.000166612
0.0363275
0.038748
0.000149072
0.015415
0.000214865
0.0433033
0.0164423
0.0511835
0.00222801
0.000188176
0.000138444
0.000171713
0.00876462
0.0131604
0.000146501
0.000162772
0.000191367
0.000383825
0.000137111
0.0058757
0.000140044
0.000147376
0.00825478
0.0235026
0.000751072
0.000139505
0.000144203
0.0051252
0.0289575
0.000203239
0.00016304
0.0352262
0.0134987
0.0440525
0.000188385
0.000179847
0.000152821
0.000149178
0.0212033
0.0001822
0.0232917
0.000186063
0.000173977
0.00851743
0.0417006
0.031899
0.000146522
0.00017014
0.000139414
0.000181541
0.00015837
0.0393167
0.000169675
0.0434512
0.000136786
0.000190751
0.000144096
0.00158693
0.000172814
0.000169831
0.0430703
0.000180761
0.000192645
0.000151261
0.000191093
0.000212968
0.000195068
0.000160203
0.0204099
0.000154603
0.0140168
0.000937728
0.000151207
0.0574433
0.0156368
0.0311328
0.00205305
0.000185356
0.000146349
0.040898
0.000170918
0.0202973
0.0391975
0.000141875
0.000155233
0.0243151
0.00541585
0.0298638
0.000149913
0.00014547
0.0203448
0.0392661
0.000202692
0.000166148
0.000160096
0.000672821
0.0109837
0.000197209
0.000135476
0.000188509
0.000138381
0.000153247
0.000407871
0.000161319
0.0376594
0.00679367
0.000147734
0.000166094
0.000146754
0.000158528
0.0216414
0.0340056
0.000171074
0.0376729
0.000143939
0.000171492
0.000145534
0.000138497
0.000151045
0.000147507
0.0295319
0.000145754
0.000184763
0.000146815
0.000167539
0.000505457
0.00386354
0.000150592
0.0243606
0.000206939
0.0431098
0.000177808
0.000177364
0.0201456
0.000165917
0.000189057
0.0401046
0.00533866
0.00709754
0.000184585
0.00113478
0.00015388
0.00017949
0.000187001
0.0312379
0.000144091
0.0258869
0.000141162
0.00014207
0.0213729
0.000176971
0.0486528
0.00016524
0.000139247
0.000172097
0.000139404
0.000144264
0.000158976
0.000151619
0.030835
0.000142158
0.0281984
0.0103531
0.000205164
0.0206838
0.000148785
0.000149982
0.000190878
0.000146914
0.000139149
0.000194419
0.000151501
0.000141011
0.000153556
0.000162968
0.0295205
0.0256588
0.000192765
0.0498741
0.0330304
0.000143161
0.00591939
0.000170616
0.000141993
0.00026365
0.000183481
0.00828157
0.000142418
0.00329639
0.00550413
0.0113301
0.00013735
0.0532164
0.000175751
0.000160087
0.000160622
0.000140055
0.0497129
0.000210522
0.000259904
0.000143601
0.000144726
0.00021931
0.000151289
0.0238051
0.00142224
0.000210404
0.0431107
0.00328894
0.000163238
0.000147443
0.000196018
0.000167413
0.000158431
0.000367003
0.000185915
0.000151718
0.00015991
0.0248963
0.000141382
0.0284469
0.0497504
0.0199044
0.0180052
0.000154118
0.000149229
0.000152447
0.00388152
0.00696614
0.000137363
0.000153051
0.000143401
0.000195124
0.000138784
0.000142842
0.000152505
0.000174831
0.0449525
0.000190283
0.00017579
0.000145666
0.000183275
0.0500874
0.000153035
0.0167535
0.0443278
0.000194247
0.000142367
0.000181694
0.000143642
0.000160347
0.000151997
0.0237707
0.000203044
0.00192619
0.000158484
0.000196804
0.000144057
0.000143573
0.000151895
0.00530918
0.00019013
0.000138322
0.000174416
0.000201375
0.033195
0.00015282
0.000707199
0.000175362
0.045726
0.00020889
0.0591097
0.000194171
0.000194761
0.0245326
0.0375678
0.00236678
0.0259276
0.000152577
0.00022205
0.000138484
0.000160437
0.000163611
0.000150709
0.0370488
0.000173353
0.00016796
0.00110966
0.00541903
0.000241882
0.000143927
0.000158932
0.000168111
0.00015153
0.000172796
0.0183613
0.00511767
0.023973
0.000141157
0.00016595
0.00016431
0.00185645
0.0531362
0.000195252
0.000148922
0.000151045
0.012598
0.000190235
0.0413495
0.0499244
0.000233747
0.000141934
0.0537151
0.000171955
0.000184869
0.000169442
0.0578444
0.00367918
0.000173047
0.000226631
0.000155681
0.000166196
0.000147259
0.0069629
0.000195777
0.0353133
0.000197727
0.000163462
0.000186623
0.000156562
0.0584645
0.0312032
0.000148742
0.000157767
0.0417339
0.000136274
0.059533
0.000147139
0.000147966
0.0225329
0.0505129
0.0112618
0.000156982
0.00014847
0.000147871
0.0296716
0.00015979
0.000151563
0.00018872
0.000210238
0.0520093
0.0528746
0.000242098
0.000145152
0.0596707
0.000161735
0.000147792
0.000148752
0.0414125
0.000149347
0.000141054
0.0031906
0.05835
0.000169011
0.000141049
0.0247834
0.00014877
0.000299938
0.000141156
0.000806187
0.000148055
0.000185174
0.026468
0.0544464
0.000155443
0.00508937
0.00672305
0.048004
0.0480999
0.0458416
0.000226877
0.000143515
0.0414044
0.000152814
0.000144054
0.000151124
0.0080734
0.000145121
0.0381253
0.000141315
0.000158772
0.0223664
0.000203193
0.0332298
0.000157588
0.000209171
0.000138993
0.000172754
0.0540977
0.0176335
0.000140366
0.00019254
0.00086515
0.000151606
0.000140474
0.0410341
0.000175752
0.000182698
0.000180697
0.0153518
0.000200173
0.0524209
0.0587475
0.000218972
0.000273836
0.00672879
0.000206216
0.000193132
0.000137326
0.000190278
0.000143521
0.000143006
0.0250497
0.0405586
0.000159389
0.0174613
0.000209214
0.0277568
0.00018506
0.000178597
0.000146151
0.000213968
0.000758952
0.00017401
0.000155855
0.0555847
0.0456917
0.000348308
0.0593722
0.000187468
0.046388
0.0564089
0.000172202
0.000148132
0.000143846
0.000411306
0.000142424
0.0305988
0.000153239
0.000153171
0.00016012
0.0517155
0.0598287
0.0146507
0.000153355
0.054599
0.000165586
0.000175023
0.000141605
0.000149513
0.00759756
0.000169782
0.0356212
0.0232788
0.000189162
0.000203375
0.000144935
0.000189033
0.000151395
0.000191368
0.000162243
0.000157082
0.000152858
0.000152801
0.000229591
0.000153318
0.000181097
0.000176925
0.000182103
0.00563837
0.0223362
0.000144176
0.000186159
0.000145065
0.000188831
0.00016848
0.050372
0.000201535
0.000171049
0.000158929
0.000154811
0.000170611
0.000147088
0.000180604
0.000144348
0.000143956
0.00016005
0.0530267
0.000167087
0.000161756
0.000177301
0.000156044
0.000187457
0.0514034
0.0468174
0.000177029
0.000147131
0.000465734
0.000137344
0.000144327
0.0145545
0.0440586
0.000149011
0.000176454
0.000230027
0.0555888
0.000151629
0.000153105
0.0412639
0.000156102
0.00085136
0.0353073
0.0607028
0.000148383
0.000171182
0.000144497
0.0544423
0.000202175
0.000186703
0.000203559
0.0154561
0.000154383
0.0606666
0.0434098
0.000151636
0.0519631
0.000194625
0.000154238
0.00779611
0.000149185
0.000147081
0.000139355
0.00372883
0.000204471
0.000361053
0.000157445
0.00015332
0.000168335
0.0010195
0.0386379
0.0599118
0.00173896
0.000152463
0.000202122
7.6891e-05
0.00837439
0.000208279
0.000394455
0.000142614
0.000177763
0.00014012
0.000209744
0.000185382
0.000144384
0.0246737
0.000219285
0.000176782
0.000166864
0.000136252
0.000155832
0.000198928
0.000180459
0.000222954
0.000193809
0.000202333
0.00020378
0.000212418
0.0480287
0.000188031
0.059492
0.000144463
0.000140781
0.0259094
0.0173958
0.00762667
0.000177306
0.000150246
0.0222764
0.000944851
0.000144564
0.00016437
0.000140116
0.000180604
0.000192252
0.000168922
0.00687283
0.035705
0.000155943
0.0431056
0.0200387
0.000144987
0.000221433
0.0283778
0.00791338
0.000159479
0.000191712
0.000133803
0.000160045
0.000170595
0.00016582
0.0582379
0.0371531
0.00567968
0.0243266
0.000154996
0.000181794
0.000200267
0.000152037
0.000149113
0.000139766
0.0565504
0.000142021
0.0597877
0.000185073
0.000185683
0.0010009
0.0265522
0.025664
0.056474
0.000180397
0.000140638
0.000221598
0.0549013
0.0482269
0.000162403
0.000139739
0.000141008
0.000199079
0.00017467
0.000194657
0.0499173
0.000154514
0.000139664
0.000201147
0.000395312
0.0213703
0.00661853
0.000141165
0.000195124
0.000151157
0.0564924
0.000144467
0.0483137
0.0001634
0.000154272
0.000173052
0.000150591
0.000187652
0.000171366
0.000185633
0.00989493
0.047257
0.000163659
0.000173017
0.000145831
0.0557361
0.0119975
0.000146474
0.000145513
0.000235206
0.000134249
0.0304295
0.000146348
0.000178719
0.000204202
0.000216673
0.000186906
0.000156626
0.00014843
0.000190471
0.0564762
0.000143654
0.000205289
0.017685
0.00163876
0.00039807
0.000181029
0.0300436
0.000161401
0.00712942
0.000143915
0.0022856
0.00171957
0.00951544
0.0118333
0.0505094
0.000181578
0.000234741
0.000140938
0.0170298
0.000294923
0.05388
0.00923689
0.000169732
0.0474674
0.0128484
0.000182879
0.000157947
0.00014975
0.0348532
0.000166441
0.000189927
0.000152889
0.000152024
0.000138507
0.000150638
0.0478146
0.0288551
0.000176459
0.0132147
0.0499868
0.000173732
0.000144913
0.000141312
0.000168983
0.0465877
0.0315029
0.000166614
0.000170669
0.000201937
0.000207004
0.000184
0.0050163
0.000175153
0.0584077
0.000168604
0.000172821
0.000144319
0.000152942
0.000194775
0.0044748
0.00223096
0.0383635
0.000202537
0.0390637
0.000177644
0.000161882
0.000160569
0.0063
0.0184892
0.00297002
0.000183223
0.000158873
0.000147495
0.000142628
0.000144349
0.00013985
0.00638528
0.00017302
0.00679086
0.000178977
0.0462943
0.0306285
0.0529883
0.000197698
0.000163741
0.0111813
0.000188063
0.00028524
0.0362343
0.000138109
0.000362287
0.000167814
0.0143858
0.00631504
0.000182592
0.000194621
0.00761487
0.000151544
0.000196212
0.00016943
0.019588
0.000572916
0.000160646
0.000148608
0.0019535
0.000571791
0.000151679
0.00291779
0.000195026
0.000168756
0.000143211
0.0258188
0.0421996
0.000209981
0.00017064
0.049697
0.0225348
0.000141202
0.000145704
0.000161326
0.0556359
0.0543823
0.000144375
0.027494
0.000152741
0.000144303
0.000151574
0.0215295
0.0100581
0.000244191
0.00729907
0.00015856
0.000157014
0.000142259
0.00837952
0.00015241
0.0365502
0.000160195
0.00333193
0.000151032
0.000143662
0.000161582
0.00602209
0.000199411
0.000183375
0.047206
0.000146887
0.000149273
0.000145978
0.000188382
0.000193534
0.000192875
0.000184323
0.0591301
0.000161168
6.57313e-05
0.000237507
0.0460438
0.000150222
0.0338331
0.0408314
0.000160719
0.00613522
0.000188969
0.0146469
0.00015047
0.000208066
0.000145431
0.000296455
0.0191503
0.000218758
0.0577637
0.000160648
0.000182072
0.000156674
0.0295605
0.000142374
0.000139933
0.00508919
0.000214591
0.0166831
0.0536799
0.000187938
0.000171309
0.000139301
0.00197797
0.0001722
0.000173677
0.000150716
0.000158601
0.000182828
0.000147618
0.000686952
0.000154687
0.00238797
0.00271383
0.000172441
0.000211707
0.000199704
0.0565297
0.000148701
0.0256945
0.0270809
0.000139607
0.000145922
0.000158159
0.00015126
0.000184583
0.000144176
0.00651031
0.000192896
0.000205106
0.000189037
0.000150868
0.00015233
0.000141205
0.0575634
0.00014967
0.000147743
0.0323821
0.000158877
0.000446404
0.0584688
0.000194236
0.000160891
0.000179874
0.000156888
0.000152751
0.000178414
0.000147305
0.000159421
0.00588409
0.0509105
0.0422927
0.000156744
0.00919179
0.000221372
0.000151261
0.000189896
0.0574895
0.000144418
0.000158387
0.00014347
0.0586501
0.0161848
0.00496507
0.000147011
0.000161129
0.000161551
0.000148895
0.0001897
0.000151286
0.000323829
0.00423955
0.059567
0.000138098
0.000159422
0.000157429
0.0203908
0.000136058
0.0146151
0.0066804
0.000227788
0.00830818
0.0297215
0.0446518
0.000157955
0.00596225
0.00764115
0.000154067
0.000139017
0.000140815
0.0578469
0.00762868
0.0107385
0.000158013
0.0581828
0.000150457
0.00119907
0.000150272
0.000159491
0.000154028
0.000138001
0.0178918
0.000154068
0.0270141
0.02221
0.014007
0.000191734
0.000183905
0.015573
0.0562913
0.000146686
0.00453797
0.000140754
0.000134851
0.000144457
0.000261452
0.000153963
0.0103152
0.000170801
0.00407101
0.000185673
0.00649982
0.0122987
0.000225973
0.000137835
0.000200862
0.000209417
0.0173335
0.000150629
0.000134318
0.000158157
0.0231595
0.000151715
0.00503412
0.00948764
0.00018167
0.000198093
0.000150764
0.0037171
0.000151369
0.0478575
0.00013666
0.00616646
0.000170422
0.000148775
0.010051
0.012651
0.000137817
0.000188038
0.000163515
0.00980225
0.000179339
0.000243931
0.00427895
0.000151775
0.000201291
0.0418859
0.000164153
0.000247578
0.000161382
0.00019267
0.000173192
0.00731673
0.0346087
0.00014934
0.0336731
0.000155071
0.000185628
0.0537972
0.00926699
0.000184024
0.0377517
0.00778419
0.000148651
0.00491663
0.000206037
0.000171062
0.000154029
0.0476082
0.000138438
0.0108857
0.00295483
0.000220131
0.000143707
0.000174578
0.0349832
0.000185819
0.0441799
0.000153048
0.000160478
0.000220613
0.0504398
0.000162961
0.055788
0.0138752
0.010952
0.000151765
0.0510287
0.0430359
0.0196398
0.000144667
0.000209407
0.000148681
0.0563267
0.000176144
0.00289584
0.00513821
0.000152219
0.000151654
0.000144457
0.019254
0.0558389
0.0165371
0.0129844
0.000141941
0.0373392
0.0581364
0.00018838
0.00814787
0.0373166
0.000182112
0.010831
0.000157901
0.000162358
0.0578803
0.0531756
0.000166008
0.017728
0.000152741
0.000146139
0.0515095
0.0347862
0.0608409
0.0177409
0.000177092
0.000152041
0.000159168
0.0595066
0.0119285
0.000143505
0.000181133
0.00511807
0.000146148
0.00015017
0.0574507
0.0277257
0.000158801
0.00014494
0.000153704
0.000157267
0.000215833
0.000151241
0.000146225
0.00016693
0.000246851
0.0327898
0.000199565
0.0416503
0.000149598
0.0001646
0.0429844
0.0576778
0.000172562
0.000227531
0.000143581
0.000179094
0.000156583
0.000168631
0.000203851
0.000145171
0.00115107
0.00018015
0.000141696
0.000163573
0.0455832
0.0264885
0.0313812
0.000146444
0.000171526
0.0584248
0.00324045
0.000160039
0.000149552
0.000145395
0.000317636
0.000150372
0.000146878
0.000170139
0.000145687
0.0427554
0.000180505
0.000151896
0.000162215
0.000145029
0.000151197
0.0216725
0.00710622
0.00019358
0.00898691
0.000186216
0.0001524
0.000143394
0.000148946
0.000148212
0.000151482
0.000162595
0.000211692
0.0524103
0.000158602
0.000204378
0.0318118
0.00289375
0.000146832
0.000140083
0.000157893
0.0513529
0.000147454
0.0201367
0.0395399
0.000184363
0.00015722
0.0202032
0.000145987
0.000159509
0.000139321
0.000146649
0.000152065
0.000143579
0.00017712
0.0539991
0.00020682
0.000184152
0.0153821
0.00019784
0.000218496
0.000172662
0.0350201
0.00872046
0.000207805
0.0489695
0.0578563
0.000203894
0.0048231
0.000151465
0.000155857
0.0354074
0.000143291
0.000162337
0.0470444
0.00104034
0.0401317
0.000210405
0.000139929
0.000245171
0.000149736
0.000239432
0.000150206
0.0032894
0.0178142
0.0552992
0.012569
0.000150007
0.000139983
0.000192654
0.0161952
0.0423201
0.000218754
0.0456491
0.000140849
0.0498827
0.0330377
0.00018198
0.000161965
0.000150415
0.000145643
0.000159815
0.000150353
0.000149014
0.000161643
0.041233
0.000195553
0.0354649
0.00675831
0.0360153
0.000365631
0.000143739
0.000149469
0.000153483
0.000141279
0.000151217
0.00608342
0.0465614
0.00213086
0.0575144
0.000157385
0.0134592
0.000381069
0.0564405
0.0376232
0.000150785
0.000142691
0.00485242
0.000150244
0.000138215
0.0080322
0.0425373
0.0519166
0.00014738
0.000149841
0.000174626
0.000184758
0.0428917
0.000140805
0.000161739
0.038244
0.000137994
0.00904427
0.000184498
0.0456246
0.000151833
0.0348673
0.0170823
0.000183732
0.0593324
0.000205243
0.0351648
0.000145448
0.000165553
0.000140634
0.000174697
0.0244124
0.000160651
0.00675879
0.000152217
0.000145389
0.000144871
0.056017
0.000183276
0.00020278
0.00634482
0.000141225
0.000193008
0.00846494
0.000200316
0.00015771
0.000159051
0.000150481
0.000191126
0.000148585
0.000142944
0.0553347
0.059984
0.0553732
0.00095666
0.039023
0.0123523
0.000189994
0.0580908
8.48517e-05
0.000143857
0.000152134
0.000134423
0.000152007
0.0596521
0.0592622
0.000155011
0.00569197
0.0519727
0.000167981
0.000158306
0.00017387
0.0465048
0.0569486
0.0408157
0.000540349
0.0420425
0.000134402
0.0320795
0.00020594
0.00470386
0.0585172
0.000144702
0.000186815
0.0101034
0.000179967
0.0196293
0.000153265
0.00349522
0.0112307
0.0444927
0.000191206
0.000176553
0.0233931
0.000202275
0.0433895
0.0518545
0.0429258
0.000204047
0.0511128
0.000150083
0.000164092
0.000184817
0.028911
0.00227706
0.0342809
0.000150104
0.000218973
0.00021071
0.000151432
0.0582089
0.00014453
0.000187465
0.0289365
0.000144288
0.0501687
0.0504389
0.0486018
0.0494524
0.0333729
0.00553092
0.000144999
0.0597747
0.000151798
0.000152226
0.000182859
0.000160596
0.0399108
0.000160678
0.000173204
0.00016177
0.000143115
0.0457637
0.000158372
0.000203858
0.00509586
0.000138035
0.0320613
0.00020509
0.000159545
0.00759373
0.03322
0.000143678
0.000243
0.000153677
0.0522357
0.00749063
0.000156152
0.000200657
0.000158578
0.059958
0.041389
0.000193941
0.0215076
0.000164308
0.000145552
0.0487645
0.000159429
0.000148738
0.0512656
0.000177343
0.000140785
0.000141418
7.72041e-05
0.000157959
0.0294111
0.0327559
0.000863264
0.0141138
0.000184288
0.000199774
0.000145802
0.0599858
0.021618
0.0187194
0.000144826
0.000151022
0.000196681
0.000176342
0.00658192
0.000149103
0.00429189
0.000147613
0.000245101
0.000147435
0.00131775
0.001258
0.000203572
0.032935
0.0240119
0.0569708
0.0402224
0.000134933
0.044086
0.047358
0.0267385
0.000146966
0.0113863
0.022156
0.0126157
0.000202938
0.0394418
0.000816217
0.0599795
0.00018044
0.0314731
0.000137922
0.00018485
0.000178993
0.000144126
0.000190585
0.0158195
0.000477834
0.0134684
0.0483173
0.000143278
0.000140403
0.000167278
0.000144335
0.00875877
0.000140816
0.000140198
0.0596543
0.0245415
0.00017895
0.000204269
0.000150663
0.000212483
0.008532
0.0405389
0.00915057
0.00016207
0.0410315
0.000157543
0.000140752
0.000156952
0.0355884
0.0292701
0.031016
0.027927
0.000154685
0.000141073
0.000144477
0.000151481
0.000165316
0.0168912
0.0488726
0.00017207
0.0584998
0.0290587
0.00799558
0.0189222
0.000146624
0.000172418
0.0001913
0.000145533
0.000170715
0.000167601
0.000160649
0.0381245
0.0402497
0.000141262
0.000177048
0.000173411
0.000204868
0.0212016
0.0491124
0.059547
0.000151953
0.000192667
0.0576882
0.0001934
0.000200831
0.00710025
0.047428
0.0609674
0.0571798
0.000139994
0.0515383
0.000153506
0.000158341
0.000146054
0.000197464
0.0606796
0.0199382
0.00341019
0.0115262
0.000195867
0.000137334
0.00013991
0.000150026
0.00015454
0.000183878
0.0594358
0.0541942
0.0001917
0.000216282
0.000152129
0.000196454
0.000138383
0.0470792
0.000214527
0.000151316
0.000195675
0.000203682
0.0278007
0.0320832
0.000105534
0.00511718
0.000164331
0.0199318
0.029103
0.0578523
0.000290693
0.000157207
0.000196948
0.000149134
0.0560325
0.00791746
0.000185211
0.0333335
0.0279345
0.0294709
0.000201566
0.000207988
0.000189419
0.000140739
0.000201739
0.00020271
0.000161305
0.000197481
0.000175134
0.000178578
0.00869142
0.000257554
0.000159668
0.000175795
0.000179554
0.0001792
0.000159817
0.0478252
0.000204317
0.00538426
0.00969945
0.000147025
0.0379833
0.000145132
0.000162277
0.000160674
0.0387046
0.000186596
0.0429805
0.0223572
0.000198728
0.000182666
0.000203334
0.0257297
0.000184373
0.0207348
0.000162522
0.000180975
0.000149292
0.03874
0.00717194
0.000159402
0.000163262
0.000185869
0.000164507
0.000163291
0.000182703
0.000177524
0.000150661
0.000182063
0.027408
0.0175247
0.0002389
0.000182243
0.000138569
0.025738
0.00017367
0.000188922
0.000197308
0.000179174
0.0390143
0.000138886
0.000170246
0.000161887
0.000181127
0.000145315
0.0362712
0.00516972
0.0466743
0.000186293
0.0587364
0.0256101
0.000163684
0.0259626
0.000189494
0.0235414
0.0104043
0.000189252
0.000161213
0.000177847
0.000200991
0.000161689
0.038786
0.0309846
0.000317195
0.000140786
0.0273859
0.00848362
0.00331058
0.000143922
0.000184546
0.000145765
0.000176197
0.0467732
0.000173823
0.000172369
0.000140962
0.000140651
0.00540816
0.0359463
0.000149602
0.0164158
0.0219243
0.000137743
0.000180687
0.0382977
0.000214256
0.000202914
0.000145702
0.000168442
0.000222181
0.000162097
0.000144243
0.0520794
0.000172278
0.0367671
0.000194183
0.000165472
0.0609044
0.000221265
0.00191102
0.000141388
0.00707651
0.000169243
0.000166885
0.0279976
0.000181489
0.000151519
0.000211387
0.000162085
0.000164168
0.000144482
0.000278407
0.000146802
0.000211055
0.0445087
0.000206775
0.000143255
0.034217
0.000171514
0.0233883
0.000724605
0.0333686
0.000220695
0.0431465
0.000138655
0.000195995
0.000163051
0.000142936
0.00634957
0.033281
0.000161212
0.000203994
0.000177142
0.000195837
0.032786
0.000164441
0.00657812
0.000174593
0.0339223
0.0253337
0.000248372
0.000173427
0.000139738
0.000212593
0.000184171
0.00139941
0.0355781
0.0473868
0.0488518
0.0550549
0.000140436
0.000278288
0.000144593
0.000154366
0.000150457
0.00737811
0.000726751
0.000219166
0.000143665
0.0110173
0.000168637
0.0308876
0.000153812
0.000204216
0.000170764
0.000188969
0.000188408
0.000202291
0.000156851
0.00878717
0.000227382
0.000141743
0.0143792
0.0298925
0.000184675
0.000157167
0.000173751
0.00014678
0.00014441
0.000188423
0.000565238