/*--------------------------------*- C++ -*----------------------------------*\
| =========                 |                                                 |
| \\      /  F ield         | OpenFOAM: The Open Source CFD Toolbox           |
|  \\    /   O peration     | Version:  v2012                                 |
|   \\  /    A nd           | Website:  www.openfoam.com                      |
|    \\/     M anipulation  |                                                 |
\*---------------------------------------------------------------------------*/
FoamFile
{
    version     2.0;
    format      ascii;
    class       volVectorField;
    location    "100";
    object      U_0;
}
// * * * * * * * * * * * * * * * * * * * * * * * * * * * * * * * * * * * * * //

dimensions      [0 1 -1 0 0 0 0];


internalField   nonuniform List<vector> 
13851
(
(1.05644 -0.0106152 -6.9456e-22)
(0.552458 -0.0137993 2.4691e-21)
(1.08219 -0.0142747 1.5109e-21)
(1.05504 -0.0119402 0)
(1.09744 0.00444292 -7.3843e-21)
(1.06845 -0.08159 0)
(1.03465 0.00922556 1.9581e-21)
(1.07688 -9.34559e-05 6.20578e-21)
(1.01008 -0.0106158 -3.88505e-22)
(1.04939 -0.00909571 1.0153e-21)
(0.893646 -0.057615 3.92324e-22)
(0.290197 -0.113144 9.15251e-23)
(0.871311 0.00271455 0)
(0.204121 0.209551 0)
(1.02488 0.000905838 -1.11682e-21)
(1.06938 0.00422056 1.08645e-24)
(1.06234 0.0068541 0)
(1.06132 -0.0096217 -1.50522e-21)
(0.999169 -0.00108507 1.95035e-20)
(1.0104 -0.0102687 -7.82856e-22)
(1.05374 -0.0117957 -3.13285e-21)
(1.08457 -0.0124481 -7.70753e-21)
(0.987861 -0.000120323 0)
(1.00402 -0.000705371 0)
(0.989703 4.03199e-05 0)
(1.07594 -0.000807656 -2.3265e-21)
(1.06029 0.0134021 7.39325e-22)
(0.0138132 -0.0850414 2.05079e-20)
(1.05554 -0.0101188 0)
(1.05968 -0.00340373 0)
(1.05518 -0.0913153 -5.46359e-22)
(1.06318 0.00682406 0)
(1.07987 -0.0134872 -2.48703e-22)
(1.01107 -0.128029 0)
(1.00486 -0.000936733 0)
(1.0961 0.031616 -2.097e-20)
(1.09294 0.0342869 0)
(1.08753 -0.0249324 0)
(1.04634 -0.012374 1.79986e-22)
(1.00384 -0.126702 -3.01923e-22)
(1.03721 -0.006226 3.64902e-22)
(0.985081 0.00305719 1.79366e-22)
(0.00208785 0.0408435 -2.35053e-20)
(0.897713 -0.103593 -3.91602e-22)
(0.892381 -0.105438 1.8292e-22)
(0.0432989 0.0325104 3.83511e-20)
(0.903417 -0.112543 0)
(1.01157 0.11789 0)
(1.06113 0.0136991 0)
(1.00856 -0.0291333 9.38837e-22)
(1.09431 0.0184311 -1.10804e-20)
(1.10758 0.0199112 -2.67545e-20)
(-0.0208972 -0.0423821 0)
(1.02527 0.000436502 0)
(1.02425 -0.000665265 -8.56794e-22)
(0.985075 0.00345824 -3.4401e-22)
(0.994635 -0.00103693 -5.34375e-22)
(-0.0389287 -0.0669726 -1.7757e-20)
(1.05879 -0.00340754 -3.78387e-22)
(1.03799 0.00836188 5.11118e-22)
(1.07394 -0.0283309 4.30472e-21)
(0.46945 -0.0390764 -3.00985e-20)
(1.03367 -0.00439671 0)
(1.10214 0.00659438 1.10745e-20)
(1.0652 -0.0155481 -8.70546e-21)
(1.06235 -0.0126803 2.06573e-21)
(1.06178 0.0320184 0)
(0.892325 -0.0800331 -2.34715e-22)
(1.07644 0.0144858 0)
(1.0606 -0.00929815 -5.09379e-23)
(0.365176 0.0174268 -5.79953e-21)
(0.988336 0.0228351 -8.52201e-21)
(0.542915 -0.006488 -2.6975e-21)
(1.02493 0.000401845 -2.14576e-21)
(1.02474 -0.00133596 8.71963e-22)
(1.01329 -0.0148654 0)
(1.08461 -0.0107303 4.2969e-21)
(0.443943 0.0178555 0)
(1.08426 0.00766842 -8.07834e-21)
(0.356614 0.0139697 2.23248e-20)
(1.04397 0.00837968 0)
(0.958621 0.0845593 -1.25767e-21)
(1.03214 0.00179597 2.71331e-22)
(0.0441244 0.0182326 0)
(1.03152 -0.0115734 1.86542e-21)
(0.30421 -0.101051 -3.77157e-21)
(1.05523 -0.0559981 2.91844e-21)
(0.576416 0.177014 -2.08662e-21)
(1.06398 0.0101024 -2.83775e-22)
(0.991793 -0.0126084 -7.08816e-22)
(1.09652 0.0314033 2.17914e-20)
(1.05209 -0.0148648 -1.45601e-21)
(0.877972 -0.0581187 -8.93673e-22)
(1.06849 0.0105648 1.514e-22)
(1.06348 0.0104882 0)
(0.996314 -0.000566355 2.7538e-22)
(1.09884 0.00564081 9.6861e-21)
(0.578181 0.00191751 6.96397e-21)
(1.00732 -0.0289924 0)
(0.996485 -0.000388179 -5.19439e-22)
(-0.0139516 0.0488533 5.28615e-20)
(1.08689 0.0127802 1.60756e-22)
(1.04984 -0.00622079 9.44405e-22)
(1.05766 0.0194575 -5.86782e-21)
(0.990207 0.000370301 -1.66943e-22)
(1.03862 -0.0479845 0)
(1.08925 0.0147886 6.39077e-21)
(0.986981 0.00357612 -1.05195e-22)
(0.88243 0.0144863 2.73197e-21)
(1.08188 -0.0847883 2.98885e-22)
(1.00004 -0.000423787 6.9788e-22)
(0.992062 -0.0131072 0)
(1.05134 -0.0162504 4.85914e-23)
(1.00137 -0.00011252 -2.71919e-23)
(1.00044 -0.000623085 1.05313e-21)
(0.683684 -0.0633741 -1.31518e-20)
(0.603118 0.000331007 0)
(0.986137 0.00170556 -4.02451e-22)
(1.01443 -0.000844937 1.65327e-21)
(1.02249 -0.000684137 0)
(0.000463774 0.0454223 2.32161e-20)
(1.05745 0.0187602 3.0312e-21)
(0.840025 -0.000260663 7.78661e-21)
(0.929552 0.0166886 1.1238e-20)
(1.02081 0.100924 2.82527e-21)
(0.979033 -0.00731203 -4.77201e-22)
(1.03866 0.0918124 1.48336e-23)
(1.0857 0.0100051 -1.44007e-21)
(1.05267 -0.0125192 4.53332e-22)
(1.11276 -0.00170229 -7.30383e-21)
(1.0365 -0.00603092 -3.25503e-22)
(1.01576 -0.00583329 4.21207e-24)
(0.384294 0.0149053 -5.52244e-21)
(1.03166 0.00192906 5.37826e-22)
(0.668446 -0.114897 0)
(1.01532 -0.00227326 1.67427e-21)
(0.98618 0.00153582 0)
(0.995353 0.023932 -4.1173e-21)
(0.0796724 0.038538 2.83489e-21)
(0.336875 0.0368968 0)
(-0.0662998 0.0238048 -5.80699e-20)
(1.02391 -0.000635146 7.76905e-22)
(1.02182 -0.0246444 -8.7833e-24)
(0.981244 0.000626344 5.5688e-22)
(1.05683 0.00414721 -1.7417e-23)
(0.906575 -0.110205 -3.03949e-22)
(1.00642 0.0356063 2.35748e-22)
(1.11266 -0.00426916 -5.60571e-21)
(1.03414 0.0088115 0)
(0.880072 -0.0920688 -4.61286e-22)
(1.0899 0.0273247 -6.12915e-21)
(1.02289 -0.000925306 -8.83444e-22)
(0.23611 0.212516 -1.37795e-20)
(0.99421 -0.000969652 -5.80115e-22)
(1.05459 0.00915526 -9.92471e-22)
(1.05647 0.00372112 0)
(1.02656 -0.010714 1.21885e-21)
(1.05609 -0.00152131 1.17039e-21)
(1.10853 0.0191194 1.797e-20)
(1.09407 0.0174397 8.33797e-21)
(0.98876 0.00932477 0)
(1.06884 0.0149802 -1.9538e-21)
(-0.0372127 -0.0649886 -1.9844e-22)
(1.01515 -0.00574323 1.91516e-21)
(1.06816 -0.00233958 0)
(0.982882 0.00174276 -1.189e-22)
(0.995364 0.0486065 -2.88603e-22)
(1.07702 0.0151169 -5.76331e-21)
(1.0517 -0.012294 -2.26391e-21)
(0.442187 0.00289279 4.79531e-20)
(0.429339 0.0183842 -3.60889e-21)
(1.00071 -0.00505232 1.48013e-21)
(1.02718 -0.0106034 0)
(0.300924 0.0533757 -6.32183e-21)
(1.01476 -0.00526597 -2.78007e-21)
(0.994519 0.118286 -1.38201e-21)
(1.08475 0.0094341 -9.91439e-22)
(1.0254 -0.0252591 -1.58935e-21)
(0.975657 -0.00023101 -2.02112e-20)
(0.987075 0.00466684 8.78859e-23)
(1.06445 0.00634394 0)
(0.963565 0.0217802 0)
(1.03061 0.00214343 3.75866e-21)
(1.08695 -0.0135187 7.60583e-21)
(0.989535 0.0020982 0)
(0.990136 -0.00031998 -5.24301e-22)
(1.06267 -0.0113966 -4.46591e-21)
(1.02424 -0.000871415 1.94237e-21)
(1.10082 0.000216623 6.46379e-23)
(1.06063 0.0393314 -2.47841e-21)
(0.898193 -0.100917 1.03382e-21)
(-0.0287689 -0.046606 2.20441e-20)
(0.991876 -0.0139617 -1.99418e-22)
(1.07623 0.0117884 1.3313e-21)
(0.496781 -0.0408728 2.44768e-20)
(1.05381 0.00844809 0)
(1.02123 -0.0237771 1.08395e-21)
(0.946628 -0.0801314 1.47927e-21)
(1.0244 -0.0246151 0)
(1.014 -0.015134 2.25718e-21)
(0.979191 -0.00793809 -4.86405e-22)
(0.150689 0.0239827 0)
(1.013 -0.000379997 -2.10731e-21)
(1.03258 -0.00118517 -1.19853e-21)
(1.05788 0.0168756 2.45474e-22)
(1.03113 0.00233944 0)
(0.350099 -0.074138 -3.26027e-21)
(1.06282 0.00791635 -1.58002e-21)
(0.477412 0.0131537 -7.04589e-21)
(0.988119 0.00701093 7.00819e-23)
(0.678818 0.00777695 0)
(1.04888 -0.00612026 7.76814e-22)
(0.892584 -0.106597 1.18538e-21)
(0.988094 0.00460241 0)
(0.98178 0.00185619 4.92698e-22)
(0.906678 -0.0017787 0)
(1.04083 -0.0220694 2.64442e-21)
(0.00734053 0.0343586 0)
(1.02622 0.00158153 -3.4364e-21)
(0.489109 0.0125155 6.09168e-21)
(1.06348 0.007731 1.94707e-21)
(1.04476 0.00867992 -3.87071e-23)
(0.676485 0.00498941 0)
(1.11074 0.0110893 1.61496e-20)
(0.608221 0.00667342 3.96489e-22)
(0.990859 -0.000187044 4.36474e-23)
(1.07118 0.0100416 -5.66799e-21)
(0.991604 0.000239123 2.31865e-23)
(-0.05524 -0.0205739 5.67962e-21)
(0.988285 0.00505815 -6.06417e-23)
(1.07466 -0.000419032 1.25261e-22)
(1.07132 -0.13823 0)
(1.00044 -0.00464866 -3.00755e-21)
(0.991617 -0.0134744 0)
(1.09131 0.0194959 8.90289e-21)
(1.07653 -0.0247258 -1.10188e-21)
(0.386983 -0.0716166 8.4752e-21)
(0.996223 0.00643136 0)
(0.981211 0.0011425 -5.27284e-22)
(1.03285 -0.00102841 0)
(1.04415 -0.0827137 0)
(1.00843 -0.014917 7.78703e-22)
(0.99027 0.0133382 0)
(1.05401 0.018144 0)
(0.98835 0.000611606 -2.01781e-22)
(0.56191 0.00812198 -2.06003e-21)
(1.08755 0.0119591 -1.40968e-21)
(0.940216 -0.167487 5.13487e-22)
(1.057 0.00289171 1.3867e-22)
(1.06391 0.00368387 -1.19114e-22)
(1.04327 -0.0340362 2.53352e-21)
(1.01061 -0.0101157 -1.67017e-21)
(1.04672 0.00368243 0)
(1.0573 0.0033037 -1.05605e-22)
(1.08689 0.0191362 -6.55362e-21)
(0.945219 0.105893 -3.20463e-21)
(1.06769 0.0381583 -3.68592e-21)
(0.973821 0.0223121 2.28419e-21)
(0.396563 0.015332 2.38734e-20)
(1.02727 0.00400554 -2.82572e-21)
(0.981703 0.00136386 0)
(1.05967 -0.00792042 0)
(0.973227 -0.234586 5.62719e-21)
(0.981964 -0.00528867 1.01964e-23)
(0.885106 -0.0111676 -1.17436e-20)
(1.05379 0.0080649 0)
(1.04609 0.00390318 -6.91885e-24)
(1.06781 0.0106819 2.92096e-21)
(0.706621 0.00569286 0)
(0.987556 -0.0204231 -1.32395e-22)
(1.04173 -0.0350654 -3.76463e-21)
(1.0547 0.00873964 2.41176e-23)
(1.06779 -0.167192 0)
(1.08297 0.00815295 -7.54493e-21)
(1.06944 0.00401319 0)
(1.01615 -0.00628742 -9.45334e-22)
(0.968619 0.081657 1.88608e-21)
(0.978119 0.00555149 -3.76914e-22)
(0.625577 0.00435738 -1.70712e-20)
(0.885101 -0.0391337 -5.05281e-22)
(0.991319 0.0131581 0)
(0.988829 0.00675239 -1.00664e-22)
(0.990355 0.000448615 0)
(1.08593 0.0190436 0)
(0.942949 -0.230147 5.28737e-22)
(0.970878 0.120152 0)
(1.01278 -0.0127757 1.9607e-21)
(1.02377 0.0024276 -8.23614e-22)
(1.04503 -0.168182 5.87163e-22)
(0.894654 0.0999989 0)
(1.11397 -0.00524237 6.99539e-21)
(1.05803 -0.00280261 1.08988e-22)
(1.03869 0.00831236 0)
(1.0785 0.0129767 0)
(0.896384 0.10404 0)
(0.908848 -0.00842154 2.31433e-20)
(1.06702 -0.000775511 -1.78831e-21)
(0.307757 -0.0662964 -3.80183e-22)
(1.01706 -0.00687146 0)
(0.577999 0.00784517 0)
(1.0681 0.0149837 8.45913e-21)
(1.06209 0.00636767 0)
(0.634519 0.00381995 0)
(1.04382 -0.00331917 0)
(1.04219 -0.0539608 -8.92069e-22)
(0.619004 0.00901844 -8.80204e-21)
(1.01243 -0.0122183 -2.19829e-22)
(1.08287 0.0173735 5.23622e-21)
(1.0686 0.0100076 5.41e-22)
(1.05708 -0.00286191 2.10077e-21)
(0.112313 0.0170897 -8.103e-21)
(1.06764 -0.000889905 6.99372e-24)
(1.04612 0.00264398 4.21608e-22)
(0.646293 0.00271911 -3.45056e-21)
(0.984356 0.00269785 0)
(1.06444 0.00382996 -3.96266e-23)
(0.978816 -0.00939026 4.65327e-22)
(0.663493 0.00480875 0)
(1.09433 0.0292407 1.79683e-20)
(1.0265 0.00179047 6.97074e-22)
(1.08753 0.0154935 3.16531e-21)
(1.02557 0.00215437 1.78429e-23)
(0.442236 0.0099653 2.13552e-20)
(1.04878 -0.0367583 1.19886e-21)
(0.987968 -0.000162643 6.69178e-22)
(1.03109 -0.0141042 8.69332e-23)
(1.09458 0.0287768 2.5108e-23)
(1.0703 0.0103508 2.55893e-21)
(1.054 0.0100041 -5.34924e-22)
(1.0234 0.00229694 0)
(1.04322 -0.00320589 -7.57193e-22)
(1.04575 0.00231822 -5.37965e-22)
(0.887579 -0.0736547 -1.77855e-23)
(0.497821 0.214937 4.04152e-20)
(0.471427 0.00142473 0)
(1.05718 -0.00634982 5.80895e-21)
(0.670913 0.00477786 -1.00111e-20)
(0.674069 -0.0414823 -9.43784e-21)
(1.02512 0.000884963 2.45188e-21)
(1.07673 0.0110462 -1.43764e-21)
(1.11475 -0.00787555 1.84276e-21)
(1.04873 -0.0122812 -2.27125e-21)
(1.0788 -0.0434876 9.8825e-22)
(1.10331 0.0208006 -9.11656e-21)
(0.970714 -0.00496216 0)
(1.0461 -0.0229119 -2.10517e-21)
(0.817306 -0.242685 0)
(0.603226 0.00914786 3.66255e-21)
(1.02456 0.000773799 0)
(0.981588 -0.022339 5.06742e-22)
(0.979022 -0.0239926 -3.48751e-22)
(0.897842 -0.063157 -1.24031e-20)
(1.05378 0.0102858 -6.50691e-23)
(1.08061 -0.0487371 2.60299e-23)
(-0.0616216 -0.0267434 -2.19329e-20)
(1.02793 -0.0109705 -6.3766e-22)
(0.794674 -0.223004 5.74635e-22)
(1.03071 -0.0142934 2.65709e-21)
(1.02522 0.00204987 2.02398e-21)
(0.988015 0.000846805 2.24957e-22)
(0.987119 0.00396957 0)
(1.02507 -0.00938247 -1.11915e-21)
(0.630412 0.0089348 -3.62137e-21)
(0.939209 0.0338118 -6.08969e-22)
(1.03652 -0.000751871 1.43084e-21)
(1.08193 0.0174175 -1.67741e-20)
(0.983637 0.00315138 -4.36351e-22)
(0.305379 -0.0471973 3.06753e-21)
(1.07219 0.00668656 0)
(0.942678 0.14386 -5.20413e-21)
(0.473769 0.00309925 -1.34399e-20)
(1.03701 -0.000977644 -1.46849e-21)
(1.03818 -0.0252866 0)
(1.0684 0.0087909 1.87924e-21)
(0.955357 0.14315 4.4528e-21)
(1.03467 -0.00630065 -1.22676e-21)
(0.98592 0.00170248 6.05607e-22)
(1.05231 -0.0267807 5.80099e-23)
(0.118632 0.057694 -3.56197e-20)
(1.02446 -0.00115928 -3.253e-21)
(0.164822 -0.00320157 7.45221e-21)
(1.05118 -0.0119701 3.90885e-22)
(1.10424 0.0216396 1.04943e-20)
(0.34615 0.00122777 1.62396e-20)
(0.972298 -0.0433834 -2.88961e-22)
(0.978994 -0.0400948 1.95108e-22)
(1.03282 -0.0326831 0)
(1.0185 -0.00552371 -2.0581e-21)
(1.02331 0.000291506 1.4624e-21)
(1.0581 -0.00600402 -1.81168e-21)
(1.08725 0.0162633 -1.52274e-20)
(0.293393 0.204687 0)
(1.07708 0.0165467 0)
(0.640882 0.00684234 1.10405e-20)
(0.616687 0.00861317 -3.58909e-21)
(0.983498 0.00277382 0)
(1.02758 0.00429907 4.40235e-21)
(0.43724 0.00305126 -1.31962e-20)
(0.380829 0.0155229 5.41148e-21)
(1.06573 -0.134588 1.55681e-21)
(0.621375 0.00036144 0)
(1.05402 -0.0276274 7.08144e-22)
(1.06929 0.00869176 0)
(0.993976 -0.000228096 0)
(0.72059 -0.0398562 0)
(1.00465 -0.00797752 -8.68966e-22)
(1.06919 0.00406266 -8.1259e-23)
(1.03206 -0.0315699 0)
(1.03447 0.00707976 0)
(0.99133 0.000316431 0)
(1.01163 -0.0119576 4.63064e-22)
(0.982974 0.00211032 -1.47424e-22)
(1.10134 0.00811785 -1.37343e-20)
(1.09081 -0.0276994 0)
(0.472123 0.00773916 1.86406e-21)
(1.05932 -0.00868272 0)
(1.08869 0.0155259 -3.48925e-21)
(1.07927 -0.0294896 0)
(1.01715 -0.0135224 -6.38686e-22)
(1.06536 0.0032002 0)
(0.860299 -0.0690069 4.12018e-21)
(1.06125 0.00625827 0)
(0.907974 0.0106328 -5.69585e-22)
(0.986408 0.0016106 0)
(1.01128 -0.0114281 -2.22769e-21)
(0.991341 -0.000137679 6.38807e-22)
(0.983282 -0.0372408 -9.46749e-21)
(0.914756 0.079987 6.14624e-22)
(1.11066 0.00738825 0)
(1.07908 -0.0252743 3.72786e-22)
(0.447779 0.00300226 -8.39469e-21)
(1.02575 -0.105687 0)
(1.04981 -0.051631 0)
(1.02178 -0.000759688 -8.54841e-22)
(1.09135 0.0202886 -1.10733e-20)
(1.03397 -0.00609563 0)
(1.02063 -0.0115936 0)
(0.988671 0.000353007 0)
(0.723656 -0.0907992 7.5923e-23)
(1.01307 -0.00974504 -2.17649e-21)
(1.0753 -0.0115647 1.78754e-22)
(0.470353 0.0143327 -2.61487e-21)
(1.02397 -0.0251474 -1.17599e-21)
(0.987736 -0.000141212 3.94183e-24)
(0.999566 0.00677544 4.30317e-21)
(0.372996 0.106864 -1.40261e-20)
(0.989481 0.00239008 0)
(1.071 0.00832682 0)
(1.08513 0.00826707 8.74255e-21)
(0.986295 -0.0204641 -3.11907e-22)
(1.00366 -0.00635057 0)
(1.04613 0.00166019 0)
(1.0893 0.0270368 0)
(1.10589 0.0194542 2.49656e-20)
(1.0582 -0.0120547 1.78302e-21)
(0.634302 0.184647 2.03254e-20)
(0.989767 -0.00031694 -1.72482e-22)
(1.03223 -0.0146014 0)
(-0.00243041 0.0308484 0)
(1.06923 -0.00316588 0)
(0.988958 0.00640245 6.80331e-23)
(0.549931 0.197084 -6.2758e-21)
(1.01805 -0.00543307 1.08033e-21)
(1.05624 -0.0113793 -1.33478e-21)
(1.00701 -0.00768672 0)
(1.08485 -0.00174991 -1.57359e-21)
(1.05395 -0.00200908 0)
(0.988317 0.00668425 -2.85689e-23)
(1.02307 -0.0246504 0)
(0.665291 0.00145615 0)
(1.03273 0.0019225 -3.14086e-22)
(1.07873 0.0158225 6.57688e-21)
(1.01587 -0.00253776 4.41021e-22)
(1.04656 -0.0266998 -1.12527e-21)
(0.957981 0.0190011 2.73547e-22)
(1.00178 -0.000124455 0)
(1.0358 -0.00869276 2.81223e-21)
(1.00235 -0.000220297 1.35073e-21)
(1.00181 -0.000221729 -1.37336e-21)
(0.972485 0.0921253 2.334e-22)
(1.04553 0.00450766 -7.44271e-22)
(1.05604 -0.0650731 -3.36713e-21)
(1.03012 0.00224667 -2.53494e-21)
(0.993143 -0.000473256 4.17128e-22)
(-0.0934979 0.0969503 -1.83612e-20)
(0.458698 0.0148335 -2.90059e-21)
(1.03168 0.00285033 6.68658e-22)
(1.04512 -0.0265982 -1.14866e-21)
(1.06559 0.00358206 1.4352e-22)
(1.00231 -0.0152321 0)
(0.0352603 0.0242618 1.31473e-21)
(1.03264 -0.0143662 0)
(0.951596 0.0318954 1.58897e-21)
(1.03524 -0.00607394 1.2805e-21)
(1.09578 -0.00142526 0)
(1.03651 0.00721081 1.24697e-21)
(-0.069361 0.00124714 3.42876e-20)
(0.986389 0.00133399 -3.90883e-22)
(-0.0194641 -0.0315884 0)
(1.08036 0.0419601 0)
(0.98483 0.00283917 -1.87294e-22)
(1.04434 -0.0243569 -1.88215e-21)
(0.51803 0.00337993 0)
(1.07398 -0.00112001 0)
(0.81075 0.038038 -2.20464e-21)
(1.01605 -0.00105396 -8.7323e-22)
(1.00867 -0.114626 -4.51904e-21)
(1.02337 -0.000527984 -2.07106e-22)
(1.01234 -0.00521772 -9.28107e-22)
(1.01632 -0.00717965 0)
(1.0329 0.00797253 7.30667e-22)
(0.401731 0.0131458 -1.50095e-20)
(1.09238 0.0161564 -8.12871e-21)
(1.10143 0.0259944 9.14546e-21)
(1.02051 0.0131158 2.31359e-21)
(1.03854 -0.0162477 -2.83267e-21)
(0.988486 0.00965458 0)
(0.742448 -0.0118314 0)
(0.942606 0.0662942 0)
(1.06482 0.00674515 9.51555e-22)
(1.06913 0.0144566 3.41881e-21)
(1.00373 -0.0197865 -1.30366e-21)
(0.968315 0.00506335 1.08192e-20)
(0.7153 0.00890696 0)
(1.02431 0.000361137 0)
(-0.0765397 -0.000315429 0)
(0.0596564 0.0270795 -1.78664e-20)
(0.08598 0.0348956 0)
(1.06849 -0.00146689 0)
(1.04323 -0.0238191 0)
(0.945457 0.154948 -1.21302e-21)
(0.983782 0.00480882 0)
(0.968827 0.109637 7.77182e-22)
(0.933609 -0.098664 2.72732e-21)
(0.623101 -0.100785 2.30671e-21)
(1.05674 -0.0019762 -1.55914e-21)
(0.611586 -0.0982252 0)
(0.92895 0.0210538 0)
(0.986561 0.00151184 -1.23114e-22)
(0.982605 0.00348455 0)
(1.0928 0.0171439 0)
(0.435456 0.0171929 0)
(1.05775 0.00252118 1.04253e-22)
(1.02977 -0.000228462 -1.1585e-21)
(1.02585 -0.0103207 -2.31738e-21)
(1.03507 -0.00357342 0)
(1.10016 0.00218692 0)
(1.08052 -0.0153646 0)
(0.618033 0.164939 5.04675e-21)
(0.622485 0.203566 0)
(1.01034 -0.00247337 1.69275e-21)
(0.0012835 0.0350693 0)
(0.486455 0.0144923 1.09686e-20)
(1.01752 -0.0500887 1.12316e-21)
(0.961926 0.0513715 0)
(1.07816 0.0151372 6.35862e-21)
(0.989193 0.00561035 -5.95486e-23)
(1.01051 -0.0111969 4.4655e-22)
(0.905478 0.0895285 8.77013e-22)
(0.717358 -0.0093068 -9.17453e-22)
(1.0552 0.00943578 1.11355e-21)
(1.09266 0.0271357 7.4122e-21)
(1.09799 0.0310154 0)
(0.985368 0.00369422 3.32793e-22)
(1.08599 -0.0376504 -5.84748e-22)
(1.02888 0.0418939 0)
(0.977245 -0.0562102 -1.82428e-21)
(1.10482 0.0171662 1.01777e-22)
(0.410113 0.0127247 2.03021e-20)
(0.932249 0.0209638 0)
(1.03595 -0.00626032 -1.3582e-21)
(1.03443 0.00747665 0)
(0.586943 0.223389 0)
(0.606573 0.00841126 8.19387e-21)
(1.09649 0.0285819 0)
(1.07683 0.017199 -3.62586e-21)
(1.02806 0.00420136 0)
(0.986904 0.00424252 0)
(1.02931 -0.00280402 2.83495e-21)
(0.704645 -0.0913446 2.08904e-21)
(0.985633 0.00349467 -2.95232e-22)
(1.05742 0.00210097 0)
(0.987464 0.00479188 -8.90939e-23)
(1.01889 -0.0035744 9.74956e-22)
(0.907619 0.0181117 0)
(1.10087 0.00521611 -1.19032e-20)
(1.07386 -0.0238774 3.99965e-22)
(0.985905 0.00371822 1.57786e-22)
(0.214012 -0.0196443 0)
(0.943018 -0.0597254 4.96436e-23)
(1.01822 -0.00668097 -1.03059e-21)
(0.992322 -0.00114006 1.73012e-21)
(0.982168 -0.00581841 -5.68452e-22)
(1.02415 0.000416187 2.52624e-21)
(0.0898175 0.0279098 -3.76106e-20)
(0.928538 -0.146362 8.03441e-22)
(0.902854 -0.140482 -1.51758e-21)
(0.0490582 0.0380564 0)
(0.97036 -0.172652 -1.56408e-20)
(1.07499 0.0172352 1.18289e-20)
(0.41678 0.0182105 1.41194e-20)
(0.458793 0.014328 -1.31741e-21)
(1.04738 -0.0227322 2.95987e-21)
(1.07693 0.0137423 -5.60317e-21)
(0.989448 0.00586514 5.99936e-23)
(0.978512 -0.00862884 0)
(1.06951 0.00364185 1.25691e-22)
(0.703486 0.000174924 0)
(0.863902 -0.236288 0)
(1.09276 0.0265664 4.34592e-22)
(1.06871 0.00661758 0)
(1.00923 -0.00948742 -4.36321e-22)
(1.0703 0.00403154 0)
(1.01813 -0.0236217 -1.12754e-21)
(0.821973 0.0321143 1.58323e-21)
(1.09541 0.0145903 -1.01792e-20)
(1.02967 0.00204059 1.26054e-21)
(1.05685 -0.00796777 3.65091e-21)
(1.00391 -0.00611228 -8.44035e-22)
(1.06735 0.0117475 2.80905e-21)
(1.11191 0.00553301 8.07353e-21)
(1.03726 0.00800023 -1.53692e-21)
(1.03344 -0.00630364 -1.35178e-21)
(1.07133 0.00681132 9.79864e-22)
(1.03952 0.00505284 9.23486e-22)
(1.09805 0.00262444 0)
(1.01434 -0.0374941 2.06166e-20)
(1.10882 0.0110142 -7.37078e-21)
(1.0715 0.00394768 -5.46412e-22)
(1.09624 0.0291906 1.08439e-20)
(1.00891 -0.00901353 1.34598e-21)
(1.05006 -0.1023 -1.30733e-21)
(1.04627 -0.0349934 0)
(0.00116696 0.0446921 0)
(1.0483 -0.00578196 -1.4745e-21)
(0.997437 -0.000525803 0)
(0.909307 0.0175058 -8.66569e-23)
(1.05642 -0.00538004 -1.10443e-21)
(0.31243 0.000358167 -3.80104e-20)
(0.580355 0.00907415 1.58464e-20)
(-0.0325435 0.0278564 2.24721e-20)
(0.555995 0.20258 0)
(1.0049 -0.00770809 0)
(0.963789 0.0207465 1.87416e-20)
(0.992564 0.0139942 0)
(1.01866 -0.00428439 1.20911e-22)
(0.986599 0.00135881 0)
(1.01921 -0.00393659 9.79945e-22)
(1.0125 0.0162358 -2.53456e-23)
(1.05855 -0.00813874 1.62483e-21)
(1.08228 -0.00307881 -1.94337e-23)
(0.986138 0.00350099 1.37188e-22)
(0.627809 -0.0571511 -1.30225e-21)
(1.07309 0.0451191 4.34047e-21)
(0.604067 -0.0538429 0)
(1.02335 -0.0104104 0)
(0.987258 0.00139359 0)
(0.985825 -0.000248206 0)
(1.11195 -0.0107667 1.15712e-20)
(0.491488 -0.0464526 0)
(1.08632 0.0224176 1.04115e-21)
(1.06792 0.0115263 -3.49733e-22)
(0.992579 0.0152456 4.55255e-24)
(0.993734 -0.000422796 0)
(1.00949 -0.00156944 1.27393e-21)
(1.02753 -0.0120015 -8.13294e-22)
(1.10868 0.0334315 4.19483e-21)
(0.312401 -0.173725 6.05207e-21)
(1.0389 0.00486438 -3.60426e-22)
(0.986415 0.00368207 1.1189e-22)
(1.03276 0.00837366 -7.56435e-22)
(1.02744 -0.0116229 2.36094e-21)
(0.825926 -0.0779325 -9.48133e-23)
(-0.0321903 -0.0605769 0)
(1.07005 0.00431793 0)
(0.555699 0.00224999 1.08003e-20)
(1.00806 -0.0622237 9.95941e-21)
(1.03278 -0.00609087 -1.28147e-21)
(1.10168 0.024962 -7.69772e-21)
(0.303074 0.102419 0)
(1.07804 0.0137027 0)
(0.295955 -0.138656 0)
(1.04397 0.00790769 2.21286e-22)
(1.06018 -0.00836494 -1.48825e-21)
(1.08596 0.0219332 4.71555e-22)
(1.05933 -0.00780815 -1.475e-21)
(0.907852 -0.0868298 -2.59377e-21)
(1.03116 0.0026392 0)
(0.954221 0.121792 1.39449e-20)
(0.989061 0.000355549 0)
(1.07217 0.022615 4.79176e-21)
(0.489058 0.0131343 1.19906e-20)
(1.01181 -0.0162761 1.00191e-21)
(1.05399 -0.00554257 -2.36134e-21)
(1.03308 0.0111144 0)
(1.0127 -0.00571535 0)
(1.06367 0.0063509 0)
(1.0139 -0.196214 -6.76838e-22)
(0.291861 0.125208 -7.36259e-22)
(1.09487 0.0134466 2.94285e-22)
(0.917764 -0.0119403 -1.08743e-20)
(0.965631 -0.054313 1.51358e-22)
(0.987676 0.00447806 0)
(1.02269 -0.00992496 -2.23466e-21)
(-0.135809 0.0822707 -3.27876e-20)
(1.09783 0.0308689 -8.7483e-22)
(1.08082 -0.0274024 0)
(0.59599 0.00874857 -1.54766e-20)
(1.00353 -0.0104251 -7.2077e-22)
(1.01903 0.000256288 1.30822e-22)
(0.986334 0.00144228 0)
(0.965844 -0.210415 1.43285e-20)
(1.0433 0.0296496 7.50176e-21)
(1.06412 -0.000896838 0)
(1.04588 -0.00923532 -9.47809e-22)
(0.949725 0.0184014 5.1538e-23)
(1.06089 0.0117017 -1.1482e-21)
(0.985431 -0.000250226 0)
(0.016457 0.0269892 0)
(0.903353 0.111531 3.1294e-21)
(0.534754 0.00924617 -2.25453e-20)
(0.984574 0.0029641 4.12404e-22)
(1.03837 0.00510856 -6.38149e-22)
(0.427839 0.01749 1.45753e-20)
(-0.00550512 -0.0873175 0)
(1.09561 0.0307853 -1.4606e-21)
(1.01758 -0.0228886 2.30916e-21)
(0.83186 0.0134786 0)
(1.03172 0.00223118 -1.05905e-21)
(0.92649 0.0141654 -2.26327e-22)
(1.091 -0.0342146 7.5667e-21)
(1.07525 -0.0140879 -1.76529e-22)
(1.06247 0.00391734 2.2534e-22)
(-0.00714777 0.0301863 0)
(1.03591 -0.0339924 0)
(1.01514 -0.0242995 2.10617e-21)
(1.1003 0.034996 0)
(0.997896 -0.000618002 -6.00065e-22)
(1.00878 -0.000187535 0)
(1.05487 -0.00198838 0)
(1.00823 -0.0088119 9.58864e-22)
(0.0153743 0.0257849 0)
(1.06945 0.00408608 0)
(1.10483 0.0186641 -6.71136e-21)
(1.07361 -0.020853 1.88132e-21)
(0.973537 0.00926082 6.62114e-23)
(1.00998 -0.00973171 1.80769e-21)
(1.01882 -0.2176 -2.88378e-21)
(1.01082 -0.000981486 -1.14751e-21)
(1.03461 -0.034208 0)
(0.986459 0.00115575 4.9223e-22)
(1.03164 -0.00604633 1.33766e-21)
(1.02215 -0.00134624 -2.86147e-21)
(0.60638 0.00865581 -2.20556e-21)
(1.02574 -0.00980342 1.15208e-21)
(0.985233 0.0016108 1.19095e-22)
(1.05555 0.0489343 -2.53803e-22)
(1.03514 0.00788257 -6.21241e-22)
(0.44745 0.0165564 0)
(0.989351 0.000151729 0)
(1.02005 -0.0238644 3.46568e-21)
(1.0918 0.0221789 3.75651e-21)
(0.769344 -0.0859882 0)
(0.939126 0.0125176 0)
(1.00806 -0.00202857 3.20683e-24)
(1.08721 -0.136263 0)
(0.573752 5.36373e-05 -1.14686e-20)
(1.04621 0.00431609 8.37096e-22)
(0.68768 0.00833967 2.46671e-20)
(1.07171 0.0221875 0)
(1.0073 -0.00817232 -1.8646e-21)
(1.01555 -0.0300566 0)
(0.00639234 0.037065 1.28251e-20)
(1.0755 -0.117566 0)
(1.0644 0.00264034 -6.36054e-23)
(1.01048 -0.00210619 -1.76001e-21)
(0.986665 0.0034491 -1.3336e-22)
(0.986593 0.0339154 0)
(1.07247 -0.018403 0)
(1.09713 0.0142353 -2.56759e-21)
(1.06615 -0.00114585 1.60455e-21)
(1.01468 -0.030163 0)
(1.02509 0.000509858 6.60415e-22)
(1.01921 -0.0235244 1.1497e-21)
(1.09128 0.0282272 4.91084e-21)
(0.932919 0.0233972 0)
(1.09925 -0.00103404 0)
(0.890019 -0.249222 3.21586e-21)
(1.03772 0.00488724 0)
(1.09724 -0.000416217 7.78932e-21)
(1.09629 0.02035 0)
(0.683655 0.00469733 1.14702e-20)
(1.06385 -0.00153341 7.87595e-22)
(0.266856 -0.0938102 3.40422e-21)
(1.03728 0.0123988 -1.70939e-20)
(1.0351 0.00833226 5.44273e-22)
(0.129681 0.00913408 2.05306e-20)
(1.04578 -0.0821621 3.4903e-21)
(0.57851 -0.0210787 1.65744e-20)
(0.33297 0.13992 0)
(0.607941 0.00310984 3.4787e-22)
(1.00845 -0.0229012 0)
(1.0692 0.00306098 0)
(1.00794 -0.00834039 0)
(1.05861 -0.0050612 0)
(-0.0503238 -0.0635177 3.452e-20)
(0.0733233 0.0130605 0)
(1.0282 -0.0149767 1.26693e-21)
(0.992581 -0.000273313 -8.76549e-22)
(1.09221 0.0188652 0)
(0.831831 0.114363 4.31106e-22)
(0.984553 0.00179002 1.30432e-22)
(-0.0177353 -0.0646427 -2.66069e-20)
(1.00319 -0.0098733 0)
(1.036 0.000287287 0)
(0.00335032 0.0274166 0)
(0.431956 0.0174891 -1.313e-20)
(0.969972 -0.0592829 -2.03788e-22)
(1.01855 -0.00455507 0)
(1.02487 0.00215922 -3.56708e-21)
(-0.0101167 -0.0817956 3.30126e-20)
(1.11079 0.0326003 0)
(1.09617 0.0280606 0)
(1.04307 -0.0208303 -2.20884e-21)
(0.516357 0.000677707 0)
(0.998776 -0.0524506 -1.22428e-21)
(0.537909 -0.0417362 0)
(1.08865 0.0138319 -6.19412e-21)
(1.08149 0.016649 9.70954e-21)
(1.04638 0.00199933 6.54855e-22)
(1.03585 0.00733959 -1.22375e-21)
(0.547783 -0.0460996 2.17692e-21)
(1.08437 0.024483 -1.05239e-21)
(0.375019 0.0150342 0)
(1.05429 -0.0309561 -7.31098e-22)
(1.07639 0.0158745 5.30936e-21)
(0.024822 0.0215714 1.41025e-20)
(0.564049 -0.0169435 0)
(0.470142 0.0161154 0)
(1.03275 0.00400857 7.18445e-22)
(1.07339 0.0179167 5.67672e-21)
(1.01772 -0.0065892 1.0058e-21)
(1.07109 0.00443527 5.82063e-22)
(1.05367 -0.00573362 -1.2435e-21)
(0.271319 -0.162611 1.43859e-21)
(1.01448 0.000157209 -1.81152e-21)
(0.477944 0.00813392 1.5797e-20)
(0.984613 0.00156513 0)
(1.09147 0.0217159 -6.44165e-21)
(1.03107 -0.00404752 -2.73472e-21)
(1.07815 -0.0422886 -5.27486e-21)
(1.07603 0.0173098 0)
(1.07299 0.0172141 -5.08837e-21)
(0.559389 0.00198421 -1.37594e-20)
(1.08263 0.0190828 5.53554e-21)
(1.08821 -0.00264798 1.87463e-23)
(1.00304 -0.000621604 0)
(1.09204 0.0206593 -1.19838e-20)
(0.984488 0.128839 1.5632e-21)
(1.02063 -0.0252131 -6.6056e-21)
(1.05784 0.00127138 -7.99051e-22)
(0.420861 0.0170146 0)
(0.982144 -0.00489347 0)
(0.43621 0.136137 0)
(0.975313 0.0177578 -1.15059e-21)
(1.04262 0.00103346 -4.42989e-23)
(0.656336 0.00852477 1.97572e-21)
(0.065743 0.0591287 7.26827e-20)
(0.45872 0.0159291 1.55909e-20)
(1.00838 -0.0321594 0)
(1.0519 -0.0324123 0)
(1.02913 -0.013635 1.50195e-21)
(0.525751 0.00912239 2.29258e-20)
(1.02161 0.000195284 3.01928e-21)
(0.721033 -0.044012 0)
(0.474293 0.0126837 9.32641e-21)
(1.02392 -0.00990084 -1.11582e-21)
(1.05208 0.0144901 2.04178e-21)
(1.00974 -0.0331613 6.68293e-21)
(0.924553 -0.0434314 0)
(0.24184 -0.0987965 0)
(1.03929 0.00307399 6.17442e-22)
(0.994869 -0.00139594 0)
(0.614596 0.1301 -4.70382e-22)
(0.481936 0.013058 -8.50281e-21)
(1.10624 0.0161682 6.88321e-21)
(1.06353 0.00248113 -1.376e-22)
(1.04132 -0.0202105 0)
(0.984378 0.00756066 4.04448e-22)
(-0.0213719 0.0204485 -3.05711e-20)
(1.09721 0.0200946 -3.68499e-21)
(0.985098 0.0015429 1.59445e-23)
(1.06923 0.0024583 -1.6829e-23)
(1.01345 -0.00543387 1.88641e-21)
(1.01659 -0.000567972 5.83662e-22)
(0.977524 -0.0287746 1.50983e-22)
(0.994688 -0.000242764 7.65508e-23)
(0.735681 -0.0807097 2.14663e-22)
(1.02551 -0.0211243 4.16943e-22)
(1.03651 8.27541e-05 0)
(1.02268 -0.0250817 3.02038e-21)
(1.02974 -0.014022 -3.06883e-21)
(1.05516 -0.0015635 0)
(0.392801 0.0160001 0)
(0.508679 0.00396854 1.52496e-20)
(1.0708 0.0089542 -2.44469e-21)
(0.267251 -0.0831439 -6.58645e-22)
(1.03079 -0.00378734 3.29403e-21)
(1.07038 0.00793228 2.32896e-21)
(1.02814 -0.0135289 -4.17295e-21)
(1.01401 -0.00553874 9.47425e-22)
(1.0421 -0.00200158 -2.03593e-21)
(1.03628 -0.000220302 0)
(0.428277 0.0154593 1.49286e-20)
(1.03222 0.00278894 -3.6244e-22)
(1.08635 0.0209399 3.26438e-21)
(1.03332 0.0039206 6.98363e-22)
(1.06456 0.00306852 7.15131e-23)
(0.981605 -0.0315678 0)
(0.00879688 -0.0873453 -9.9082e-23)
(1.01502 -0.00100867 -2.20246e-21)
(0.573307 0.228814 0)
(1.09804 0.018503 2.94787e-21)
(1.0286 0.0205729 -1.6866e-20)
(1.06976 0.00405258 0)
(1.07185 0.00495842 1.94964e-22)
(0.36617 0.0153588 6.14948e-21)
(1.06718 0.0124245 4.1409e-21)
(1.07735 -0.0205579 6.0673e-22)
(0.271788 -0.148748 -1.09216e-20)
(0.924943 -0.12412 -1.99503e-20)
(-0.0248782 -0.00262381 0)
(1.07681 0.00294199 4.44539e-21)
(0.875896 -0.074045 2.84536e-22)
(1.0473 -0.00572819 0)
(1.08166 0.0188598 8.44223e-21)
(1.08745 0.0136954 0)
(0.240607 -0.088111 0)
(1.00739 -0.00160103 6.40455e-25)
(0.222452 -0.00378538 0)
(1.02205 -0.00989574 -1.10868e-21)
(1.02398 -0.0104007 -1.17273e-21)
(0.237543 0.19562 0)
(0.980255 -0.0087749 -5.1684e-22)
(0.918329 -0.000542154 0)
(1.06314 0.00401355 -2.50949e-22)
(1.0169 -0.00726015 1.00591e-21)
(1.08568 -0.0315548 6.27883e-22)
(1.01762 -0.00698942 0)
(1.02477 0.00232821 3.1336e-21)
(0.995331 0.018269 -1.63171e-22)
(1.0431 0.00759834 -5.46393e-22)
(1.10081 0.034254 0)