/*--------------------------------*- C++ -*----------------------------------*\
| =========                 |                                                 |
| \\      /  F ield         | OpenFOAM: The Open Source CFD Toolbox           |
|  \\    /   O peration     | Version:  v2012                                 |
|   \\  /    A nd           | Website:  www.openfoam.com                      |
|    \\/     M anipulation  |                                                 |
\*---------------------------------------------------------------------------*/
FoamFile
{
    version     2.0;
    format      ascii;
    class       volVectorField;
    location    "350";
    object      ddtCorrDdt0(U);
}
// * * * * * * * * * * * * * * * * * * * * * * * * * * * * * * * * * * * * * //

dimensions      [0 1 -2 0 0 0 0];


internalField   nonuniform List<vector> 
13851
(
(-0.00250193 0.00133225 -7.27711e-19)
(-0.00137463 0.0464341 -9.78322e-21)
(-0.00363088 -0.00926089 -3.08965e-20)
(-0.00260871 0.00131656 6.32792e-19)
(-0.00203461 -0.00440535 2.11277e-18)
(-0.0189317 -0.0287379 -1.56334e-18)
(-0.000907953 -0.000847901 -5.7257e-19)
(-0.00484247 -0.00520754 -8.56883e-19)
(0.00190335 0.0009194 2.45692e-19)
(-0.016255 -0.0109488 1.36669e-18)
(-0.00558461 0.0187251 2.20835e-19)
(0.00208585 -0.0795619 5.05922e-18)
(0.00915019 0.00199968 8.95536e-18)
(-0.00183255 0.0421988 -1.76381e-18)
(-0.000689662 -8.55779e-05 -1.89207e-19)
(-0.00597068 -0.00115473 -1.98422e-19)
(-0.00329369 -0.00192649 5.84687e-20)
(-0.00569632 -0.000362628 7.33155e-19)
(-0.0015714 0.00193225 -9.82682e-18)
(0.00181337 0.000920646 -3.72909e-19)
(-0.00260741 0.00132893 5.35028e-19)
(-0.00312645 -0.00852962 3.99064e-19)
(0.00109261 -4.03449e-05 -5.62549e-20)
(0.00138885 4.62658e-05 -5.37376e-20)
(0.000946105 -3.12823e-05 -3.34573e-20)
(-0.00519048 -0.00536009 -2.53555e-19)
(-0.00218267 -0.00238067 -5.84438e-19)
(0.00144636 -0.0076736 -2.31592e-17)
(-0.00254577 0.00137101 7.27437e-19)
(-0.00361456 -0.000289232 -5.47248e-19)
(-0.0237987 -0.034807 -4.52135e-19)
(-0.00338622 -0.00201708 -3.28491e-19)
(-0.00437707 -0.00915656 1.63974e-19)
(-0.00982617 -0.057252 3.56608e-19)
(0.0014005 7.5787e-05 -1.01671e-20)
(-0.00418578 -0.0054728 1.59956e-17)
(-0.00376847 -0.00541186 -1.49018e-18)
(0.00653692 -0.00528417 5.26592e-19)
(-0.016978 -0.0126734 -3.05631e-18)
(-0.0134567 -0.0481386 1.08751e-19)
(-0.00150479 0.000811913 1.49344e-20)
(0.000460135 -0.00123172 -1.09212e-20)
(-0.00595824 -0.00983085 2.74517e-17)
(-0.00716276 0.00969628 -4.3927e-20)
(-0.00711418 0.0156394 -8.91251e-19)
(-0.0172691 -0.0183537 1.17772e-17)
(0.00833989 -0.0101354 -1.8931e-19)
(-0.0122058 -0.00615773 4.10338e-19)
(-0.0022001 -0.00246623 -8.18831e-19)
(0.000217883 0.000721688 -1.557e-20)
(-0.00303019 -0.00416058 7.8371e-19)
(-0.00359022 -0.003119 -9.67261e-18)
(0.000805215 -0.0199166 -5.24719e-18)
(-0.000730109 -5.27597e-05 -2.58492e-19)
(-0.000707255 5.80183e-05 -9.64331e-20)
(0.00042818 -0.00133176 2.91018e-20)
(0.00184147 -4.36969e-05 1.33515e-19)
(0.00640164 -0.0177568 1.07351e-17)
(-0.00355971 -0.000244277 3.07137e-19)
(-0.00117086 -0.000890069 2.32274e-19)
(0.00734947 -0.00641261 -1.47528e-18)
(0.0156945 0.0471347 1.15159e-17)
(-0.0280934 0.006413 -2.71608e-18)
(-0.00194504 -0.00381827 -9.32246e-19)
(0.0245579 0.0187841 7.40922e-19)
(-0.00220959 0.000712596 3.91572e-19)
(-0.00388699 -0.00542001 -5.31894e-18)
(0.022264 -0.0282797 8.22204e-21)
(-0.00272852 -0.00375219 2.32925e-18)
(-0.00587848 -2.22869e-07 -1.05974e-18)
(0.01301 -0.0025298 -1.10284e-17)
(-0.00942768 -0.00638968 3.64108e-18)
(-0.0125491 0.0461879 -2.31594e-18)
(-0.000711874 -5.28309e-05 -6.58497e-20)
(-0.000605784 0.000141948 -5.29219e-19)
(0.00233616 0.00151094 1.32777e-19)
(-0.00326138 -0.00810919 -7.81444e-19)
(0.0116695 -0.00282616 -3.78632e-18)
(-0.00308287 -0.0044551 -2.63554e-18)
(0.0130962 -0.00259715 -6.27385e-18)
(-0.00156663 -0.0010971 3.72523e-19)
(-0.0409015 0.0247748 -1.95134e-20)
(-0.00115896 -0.000243727 -1.91715e-20)
(-0.0165105 -0.0191452 3.71439e-18)
(-0.0299619 0.000774342 3.33778e-20)
(0.00379593 -0.0746741 -9.01111e-18)
(-0.0351337 -0.00412831 -1.23642e-18)
(-0.0386023 0.0537553 5.4026e-18)
(-0.00289124 -0.0024513 8.70293e-19)
(0.00242989 -0.000637296 -6.04819e-20)
(-0.00415659 -0.00537844 -1.80005e-17)
(0.0206146 -0.00185125 6.54638e-20)
(0.0266879 -0.0336131 -1.48251e-20)
(-0.00305346 -0.00295595 7.90399e-19)
(-0.00277695 -0.00243361 -3.53441e-19)
(0.00165832 -3.78305e-05 -3.36198e-20)
(-0.00203419 -0.0041954 -1.72203e-18)
(0.00613483 0.000638789 1.0041e-17)
(-0.000482454 0.00180627 1.77451e-20)
(0.00147644 -2.23057e-05 -2.05292e-20)
(0.0184922 0.00989732 -1.26627e-17)
(-0.00284722 -0.00425125 -1.53585e-18)
(-0.00265648 0.000850148 -3.23051e-19)
(-0.00140283 -0.0025069 -1.28131e-18)
(-0.000107401 -9.31419e-05 -7.04314e-21)
(-0.0410082 0.0200317 6.58249e-20)
(-0.00282664 -0.00422946 7.56676e-19)
(-0.00010668 -0.00106468 -2.35083e-20)
(0.00103927 -0.00593562 6.53143e-18)
(-0.00924738 -0.0355494 -4.60774e-18)
(0.00151404 -1.40904e-05 6.7849e-20)
(0.00247287 -0.000668718 3.02003e-20)
(0.0163083 -0.00104964 3.84738e-20)
(0.00077499 1.32501e-05 1.03443e-19)
(0.00162641 -7.19779e-06 2.12123e-19)
(-0.0346555 -0.16311 -2.01934e-18)
(0.00745863 0.00134157 -1.46208e-17)
(0.000301429 -0.000682101 6.30343e-21)
(0.000228829 8.83103e-05 2.68946e-19)
(-0.000619048 6.21538e-05 -4.5422e-20)
(-0.00378791 -0.0118762 -9.60434e-18)
(-0.00145576 -0.00246569 1.21535e-18)
(0.0110043 0.00256157 -9.95198e-18)
(-0.0611215 -0.0998682 -2.65333e-18)
(-0.0039015 -0.0186637 -8.058e-19)
(0.00246834 -0.000679029 1.0787e-21)
(0.00176422 -0.0537275 -6.51285e-19)
(-0.00292457 -0.00434123 -1.85437e-18)
(-0.00263553 0.00141113 5.10768e-19)
(0.000162369 -0.00294593 8.2706e-18)
(-0.00145583 0.000780244 -1.07243e-19)
(0.000676476 0.000681269 2.42764e-19)
(0.0135209 -0.00266177 1.03474e-17)
(-0.00112232 -0.000248329 3.87846e-20)
(-0.00195316 -0.127681 -3.23023e-18)
(0.000577137 0.00025959 5.05759e-19)
(0.000299408 -0.000618411 -2.15796e-20)
(-0.0102099 -0.00620538 2.59646e-18)
(-0.0169344 0.0558147 -9.73984e-19)
(-0.0795611 0.00108386 6.70164e-19)
(0.0147716 0.00627509 1.23858e-17)
(-0.000680154 5.37643e-05 -1.34612e-19)
(0.00399597 0.00531842 -5.82153e-20)
(0.00153302 -0.00143635 -7.16918e-20)
(-0.00300738 -0.0011465 4.78155e-19)
(-0.00472033 -0.000160978 -8.25386e-20)
(0.00529696 -0.0097058 1.14073e-20)
(0.000744326 -0.00318247 -3.27899e-18)
(-0.000907959 -0.00080728 -3.36083e-20)
(-0.00771014 0.0247184 -1.93772e-19)
(-0.0029084 -0.00504773 -3.82344e-18)
(-0.000558864 8.34237e-05 9.95865e-20)
(-0.00050161 0.0373119 -3.2961e-18)
(0.00184229 -4.59741e-05 -7.88401e-20)
(-0.00228786 -0.00165807 -1.21554e-19)
(-0.00299623 -0.00107485 -2.6317e-19)
(-1.74584e-05 0.00141211 -2.1878e-19)
(-0.00321791 -0.000355397 -2.4143e-19)
(-0.00347243 -0.0029399 6.03941e-18)
(-0.00297602 -0.00414973 2.33705e-18)
(-0.000996815 -0.00257889 -2.70129e-21)
(-0.00244617 -0.00314581 3.99346e-18)
(0.00535328 -0.0182046 -3.42384e-18)
(0.000738623 0.000664575 1.28261e-19)
(-0.00383278 -0.000334286 -1.96669e-18)
(0.00113605 -0.00134572 -4.83575e-20)
(0.0065898 -0.00893425 -3.50713e-21)
(-0.00267663 -0.00379872 -2.24782e-18)
(-0.00257455 0.0014454 -2.57682e-19)
(-0.00509294 -0.00284173 -7.41878e-18)
(0.0109417 -0.00273629 1.79349e-18)
(0.00191334 0.000134625 7.44641e-20)
(-9.20188e-05 0.00141277 2.49218e-19)
(-0.0683892 0.0133575 -1.21611e-18)
(0.000744739 0.000606423 2.05574e-19)
(-0.0140096 0.036611 2.3542e-18)
(-0.00298315 -0.0043451 -9.99078e-19)
(0.00114597 0.00572447 1.99414e-20)
(-0.00166024 0.00227153 6.41866e-18)
(-0.000199291 -0.00133647 -2.06111e-20)
(-0.00363123 -0.0020709 4.26431e-19)
(-0.0096822 -0.00626473 2.00363e-18)
(-0.00104576 -0.000251017 3.45048e-20)
(-0.00242825 -0.00858221 7.95898e-20)
(-0.000768737 -0.000444162 1.19858e-20)
(0.00143715 -4.28533e-05 -1.25323e-19)
(-0.00197682 0.000932874 -3.11596e-19)
(-0.000616671 8.27761e-05 -1.24503e-20)
(-0.00129185 -0.00453002 -9.43958e-19)
(-0.0204586 0.0100041 -1.6125e-18)
(0.0144309 -0.020423 2.56835e-19)
(0.000997673 -0.019836 6.39717e-18)
(0.00250765 -0.000737616 1.21298e-19)
(-0.00300239 -0.00374959 -1.92711e-18)
(0.0329703 0.0396883 -2.20662e-18)
(-0.00230566 -0.00153301 -4.29703e-21)
(0.0037871 0.00468398 1.34129e-19)
(-0.0356493 -0.00824479 1.88769e-19)
(0.00168205 0.00542185 3.14313e-20)
(0.00229319 0.00161571 -1.4897e-19)
(0.00241849 -0.000624487 -1.32354e-20)
(-0.0253559 -0.00191054 1.76667e-17)
(-0.000124017 4.10592e-05 3.60355e-19)
(-0.00127027 6.69797e-05 4.04802e-20)
(-0.0167398 0.000999865 -2.88076e-19)
(-0.00107002 -0.000273234 -2.69411e-20)
(0.0577374 -0.00133474 2.98692e-18)
(-0.00315802 -0.00212748 -4.16673e-19)
(0.0141832 -0.0028359 -1.47488e-18)
(-0.000628263 -0.00183086 -1.83689e-21)
(0.0167678 -0.00302805 1.58968e-19)
(-0.002562 0.000819972 1.0193e-19)
(-0.0308358 -0.0124164 7.43351e-20)
(-0.000460523 -0.00118096 1.82633e-20)
(0.00131904 -0.00152529 1.84886e-20)
(0.00695353 0.0119899 1.87666e-19)
(-0.0228099 -0.00669678 -4.55478e-18)
(-0.0136041 -0.0181831 -1.12877e-17)
(-0.00078054 -0.000146048 2.17534e-20)
(0.0142948 -0.00284231 3.34172e-18)
(-0.00325842 -0.0021565 1.62978e-18)
(-0.00159098 -0.00114852 -3.41644e-19)
(0.0134991 -0.00170678 4.78813e-18)
(-0.00229324 -0.00262205 3.81964e-18)
(0.0176505 -0.00317913 7.09338e-19)
(0.00112566 -1.91788e-05 -3.10338e-20)
(-0.00320736 -0.00326971 -2.40779e-19)
(-2.34476e-05 -5.41275e-05 -2.27796e-20)
(4.04381e-05 -0.0207051 -3.0476e-18)
(-0.000539158 -0.00127852 -7.90799e-21)
(-0.00549794 -0.00511444 2.05823e-19)
(0.067897 -0.0373066 3.29792e-18)
(0.00189447 0.000113591 -2.3043e-19)
(0.00246905 -0.00070598 -4.66203e-20)
(-0.00295409 -0.00430034 4.50699e-18)
(-0.0019959 -0.00647817 -1.13005e-18)
(0.0597576 -0.00375301 -7.45495e-19)
(0.0129838 0.0292255 1.93816e-19)
(0.00148101 -0.00150374 5.90994e-20)
(-0.00128779 4.18917e-05 -5.08198e-20)
(-0.0352622 -0.0229392 5.48077e-19)
(0.0103527 0.0126804 2.13244e-20)
(-0.00067162 -0.00444876 1.41526e-20)
(-0.0186543 0.000819853 6.67292e-19)
(-0.000143502 -0.000157495 -5.6918e-21)
(0.0165028 -0.0030658 -6.40851e-18)
(-0.0028422 -0.00428032 5.16968e-18)
(-0.0237651 -0.0516373 -9.89806e-21)
(-0.00310151 -0.000972718 -5.0803e-20)
(-0.003968 -0.00132751 4.45482e-21)
(-0.00856965 -0.00281029 4.45901e-20)
(0.0155072 0.0142967 -4.18078e-20)
(-0.00211495 -0.000743627 -1.98824e-19)
(-0.00310628 -0.00104304 -2.94406e-20)
(-0.00276077 -0.00429208 -2.86803e-18)
(-0.0388134 0.0919315 -1.26372e-18)
(-0.0174604 0.0108946 2.70069e-18)
(-0.00948198 -0.00595055 -9.88668e-18)
(0.0111235 -0.00422042 -1.00161e-17)
(-0.000749068 -0.000342424 -6.89107e-20)
(0.00138272 -0.00146401 -2.86571e-20)
(-0.00550022 0.000729905 -5.38931e-19)
(-0.0557318 -0.0632288 -1.29333e-18)
(0.00205241 -0.000852428 8.66182e-21)
(0.01074 0.00544894 -8.36941e-19)
(-0.00234545 -0.001491 -4.26905e-19)
(-0.00205304 -0.000744896 6.69816e-20)
(-0.002983 -0.00289718 -1.06247e-18)
(0.0135595 -0.00148897 5.44037e-18)
(0.00219754 -0.000834388 -4.89607e-20)
(-0.00946746 -0.00113063 -9.39735e-21)
(-0.0023483 -0.00161954 6.49194e-19)
(-0.0194763 -0.0872601 1.07011e-18)
(-0.00312803 -0.00438147 -1.33257e-18)
(-0.00576049 -0.000935741 -4.87434e-19)
(0.000667399 0.000737829 -1.50889e-19)
(-0.0412075 0.0280999 1.1493e-19)
(0.00533387 -0.0002909 2.42392e-20)
(0.018674 -0.00401624 1.84004e-18)
(-0.00193469 0.0205696 8.28567e-19)
(-0.000917915 -0.00474673 1.86608e-21)
(-0.000806823 -0.00165416 3.93802e-21)
(-0.000227158 -0.000104188 -1.16001e-20)
(-0.00271501 -0.00427218 -4.14585e-18)
(-0.0302144 -0.0259359 8.26843e-19)
(-0.00709904 0.0882041 1.11353e-18)
(0.00195124 0.00129946 -1.3876e-19)
(-0.00058205 -0.000186758 1.82768e-19)
(-0.028243 -0.083737 2.96489e-18)
(-0.0243426 0.0208897 -5.03609e-20)
(0.00109533 -0.00254924 -2.58386e-18)
(-0.00345924 -0.000261905 -4.42639e-20)
(-0.00122133 -0.000906085 -3.28064e-19)
(-0.00287886 -0.00390819 4.36619e-18)
(-0.0261112 0.0206428 -5.215e-20)
(0.0072853 0.00449006 -6.0474e-18)
(-0.00397269 -0.000384798 -2.6172e-19)
(-0.00335316 -0.0728717 9.27516e-19)
(0.000612251 0.000816745 1.00827e-19)
(0.016662 -0.00305683 8.31869e-18)
(-0.00240119 -0.0030921 -4.2319e-19)
(-0.00334268 -0.00181792 7.40815e-19)
(0.0186357 -0.00373855 5.48874e-18)
(-0.00215718 0.000279504 2.45964e-19)
(-0.0427904 0.00981867 7.99073e-20)
(0.0149158 -0.00267087 9.95527e-18)
(0.00189006 0.00122491 4.30349e-19)
(-0.00266579 -0.00414056 5.69876e-18)
(-0.00316521 -0.00295482 -1.25707e-18)
(-0.00339039 -0.000219233 1.28938e-18)
(-0.0182062 0.0519284 6.60524e-18)
(-0.00399061 -0.000332676 2.36366e-18)
(-0.00213252 -0.000617168 1.21206e-20)
(0.011856 -0.00122893 -9.27789e-21)
(0.000692659 -0.0012751 7.43932e-20)
(-0.00404836 -0.0013923 9.57089e-22)
(0.00236252 -0.000502065 1.56292e-20)
(0.0186471 -0.00420464 -1.16706e-18)
(-0.00373058 -0.00517042 3.69654e-18)
(-0.000790661 -0.000165618 -2.38373e-19)
(-0.0028157 -0.00422499 -5.15367e-18)
(-0.00070812 -0.000183885 1.23073e-19)
(0.0113549 -0.00504136 7.6149e-18)
(-0.00988552 -0.00773024 2.03565e-19)
(0.00124258 -4.65053e-05 -1.29082e-19)
(1.70422e-05 0.00187238 1.28475e-19)
(-0.00371936 -0.00507116 -5.11111e-18)
(-0.00315003 -0.00315717 -7.89032e-19)
(-0.00215633 -0.00169351 9.60038e-19)
(-0.000560771 -0.000173506 -2.03242e-19)
(-0.00210276 0.000255555 3.11309e-19)
(-0.00212254 -0.000572356 1.45022e-20)
(-0.00729214 0.0196618 2.11912e-19)
(-0.00724325 0.0161754 -1.6258e-17)
(-0.0102729 0.00854126 4.94243e-18)
(-0.00811926 0.00298168 1.72866e-19)
(0.0185342 -0.00390303 -5.0933e-18)
(0.040647 0.00393106 -2.86662e-18)
(-0.000707421 -8.13346e-05 9.5472e-20)
(-0.00307585 -0.00380968 1.78619e-18)
(0.00183206 -0.00269675 4.38473e-18)
(0.0272288 0.00781306 -1.00321e-19)
(0.000442294 -0.0144563 4.06143e-18)
(-0.00355811 -0.00355659 4.28978e-18)
(0.000148783 0.00274109 6.46334e-18)
(0.00325268 -0.00201667 -1.53062e-19)
(0.0232255 0.0579165 4.32586e-19)
(0.0157187 -0.00292162 -3.65775e-18)
(-0.000669107 -7.40213e-05 1.99132e-20)
(0.00126235 -0.00154331 -1.56819e-21)
(0.000881053 -0.00134441 -3.0035e-20)
(0.0296945 -0.0209221 -9.12055e-19)
(-0.00209308 -0.00171137 -2.03276e-18)
(0.00235346 -0.0164439 4.34411e-18)
(0.000556478 -0.0206305 7.90894e-18)
(-0.000123495 0.00147245 -4.80395e-19)
(0.0424887 0.0626989 -2.46817e-19)
(5.93367e-05 0.00185971 4.97697e-19)
(-0.000689573 -0.000171437 -1.4748e-19)
(-0.000250177 -0.000209087 1.15219e-20)
(-0.000169084 -0.0011453 2.68019e-20)
(-1.68038e-05 0.00122888 -2.28542e-19)
(0.0159983 -0.00292464 -7.14034e-18)
(0.0198794 0.0144747 4.33836e-20)
(-0.00154081 -3.6154e-05 5.13277e-20)
(-0.00264358 -0.00410257 3.8828e-19)
(0.00080951 -0.00148808 -4.65763e-20)
(-0.00959227 -0.0739774 -2.50954e-18)
(-0.00696432 0.000783371 -1.12917e-18)
(-0.0137846 0.0432731 -5.25948e-19)
(-0.0060159 0.00112787 9.6239e-18)
(-0.00158169 -1.11955e-05 -1.64849e-20)
(-0.0257865 -0.00933159 7.92526e-18)
(-0.003373 -0.00288201 -1.7018e-18)
(-0.0167031 0.0466079 2.30149e-18)
(-0.00127753 0.000821041 3.17339e-19)
(0.000375577 -0.000716547 -2.39058e-20)
(0.00201176 -0.00902292 6.70805e-19)
(0.0180358 0.00414635 6.47742e-18)
(-0.000591134 0.00011648 1.89654e-19)
(-0.00719587 0.0392798 -5.31895e-18)
(0.0275523 0.00225253 -5.59346e-20)
(-0.00370356 -0.00349876 -5.01619e-18)
(-0.00492972 -0.00638648 -1.63776e-17)
(-0.00347428 -0.00218199 -5.88426e-20)
(-0.0023957 -0.00328958 -1.21551e-20)
(-0.00621844 0.00735094 5.52159e-20)
(0.000331974 0.000672785 -1.29276e-19)
(-0.000644553 -3.88966e-05 -6.16138e-20)
(-0.00700562 0.00294881 -5.46355e-19)
(-0.00280679 -0.00422909 2.39218e-18)
(-0.010725 0.0398039 5.41019e-18)
(-0.00256364 -0.00382014 -2.61712e-18)
(0.01789 -0.00325126 -3.08449e-19)
(0.0152413 -0.00275078 3.41953e-18)
(0.000879762 -0.00143205 1.45145e-19)
(-0.00075082 -0.00036667 2.07828e-20)
(-0.0111262 0.00303563 -1.09678e-18)
(0.0136748 -0.00268936 -2.92366e-20)
(0.0646856 -0.0404826 -2.51528e-18)
(0.00895195 0.000758 9.5037e-18)
(0.00138932 -0.0109802 -9.9144e-19)
(-0.00342134 -0.00299192 1.4223e-18)
(0.00140828 -3.46257e-05 1.4016e-19)
(0.0382094 0.00206208 2.33874e-19)
(0.00199767 0.00041508 -1.71171e-19)
(-0.00584312 -0.00142599 1.09243e-18)
(-0.00474786 0.00698438 1.28298e-19)
(-0.00103344 -0.000700107 -1.46553e-19)
(-0.000133825 -6.45533e-05 7.75438e-21)
(0.00194551 0.00113859 -1.18348e-19)
(0.00107559 -0.00139233 1.57038e-20)
(-0.0021672 -0.00380771 1.52874e-18)
(0.0035207 -0.00593135 6.73817e-18)
(0.0110689 -0.00659424 -4.92738e-18)
(-0.00649508 0.000779871 -1.38739e-19)
(-0.00282966 -0.00423226 2.12175e-18)
(-0.0045082 -0.00946127 4.76321e-19)
(0.0180243 0.00827114 -1.50556e-19)
(-0.00426853 -0.00116844 -1.5024e-19)
(0.0362113 -0.0216776 2.98052e-18)
(-0.00326069 -0.00173986 1.55806e-19)
(0.0100471 0.00964086 2.71141e-19)
(0.000210524 -0.000605331 -8.57992e-21)
(0.00189645 0.00106766 1.25119e-19)
(0.00128682 -3.37697e-05 9.82499e-20)
(0.0116216 -0.00792447 -2.06173e-19)
(0.013379 0.104034 -1.42432e-18)
(-0.00162361 -0.00264812 2.85332e-18)
(-0.0026214 -0.00758526 -6.48094e-19)
(0.0120215 -0.00640864 -8.19455e-18)
(-0.00857668 -0.0616955 1.30015e-19)
(-0.0359334 0.00491314 1.49485e-19)
(-0.000589681 5.58177e-05 3.14314e-19)
(-0.00297336 -0.00433188 -1.36246e-19)
(-0.00122685 0.000790271 2.70386e-20)
(0.0223537 0.00527847 2.00829e-19)
(0.00019013 -0.000101199 1.9458e-20)
(0.0469768 -0.0273918 -5.72697e-18)
(0.0365501 -0.0127725 -6.40845e-20)
(-0.00592715 -0.00893586 2.42176e-19)
(0.0136595 -0.00277625 -8.43512e-18)
(0.00230402 0.00595073 -5.05779e-20)
(0.00543411 -0.00235785 -1.98898e-21)
(0.0362807 0.000464744 -4.35075e-20)
(0.00424868 0.00285441 4.66215e-18)
(-0.000729474 -0.000519246 -7.28025e-21)
(-0.00354117 -0.0032264 -6.97445e-19)
(-0.00300394 -0.00443726 5.94346e-18)
(0.00215629 -0.000632488 -1.78336e-20)
(0.00188465 0.000309933 1.72347e-19)
(-0.00218562 -0.000506692 -2.49628e-20)
(-0.00282043 -0.00497993 1.8587e-18)
(-0.0035406 -0.00322717 6.82769e-18)
(-0.00880009 -0.000511563 1.37002e-18)
(-0.00306842 -0.0286917 -5.73568e-20)
(0.00128898 -2.31225e-05 -4.19458e-20)
(2.64388e-06 0.00196415 -1.15215e-19)
(-0.00764514 -0.0154845 4.2214e-18)
(-0.00373993 -0.000333848 2.25505e-18)
(-0.000814058 -0.00153848 7.36889e-21)
(-0.0285676 0.0595764 -3.30738e-18)
(0.000376873 0.000656574 3.63993e-19)
(-0.00254674 0.00127454 -8.10377e-19)
(0.00178546 0.000549007 1.73415e-19)
(-0.0016354 0.0018063 6.32633e-19)
(-0.00305827 -0.000215004 1.7046e-19)
(-0.000657748 -0.00171073 -1.86488e-20)
(0.00279312 0.00555703 5.75944e-20)
(0.0117701 -0.000592879 -6.37008e-18)
(-0.0011927 -0.000266464 3.03602e-20)
(-0.00265699 -0.00392026 -1.48874e-18)
(0.000530355 0.000290457 -5.60192e-19)
(-0.00693283 0.0135115 -4.98835e-20)
(0.00900096 0.000412754 -6.84948e-20)
(0.000686549 1.85611e-05 7.02388e-20)
(-0.00123138 0.00119822 -4.42646e-19)
(0.0011677 2.06963e-05 -2.32968e-19)
(0.0011893 6.64267e-06 2.50449e-19)
(-0.00814412 0.11665 -1.64276e-18)
(-0.00196542 -0.000792358 -3.80527e-19)
(-0.0343408 -0.0105321 5.96791e-20)
(-0.00100906 -0.000251314 -1.38444e-20)
(0.00156222 -3.32541e-05 -9.19465e-20)
(0.0115162 0.0261673 -2.66831e-18)
(0.0135372 -0.00275955 2.5237e-19)
(-0.00108203 -0.000323754 1.08241e-20)
(-0.00641695 0.0165285 5.06014e-20)
(-0.00432736 -0.0012986 1.23199e-19)
(0.00522762 0.0164657 -1.55637e-19)
(-0.0176484 -0.0192431 -2.58716e-18)
(-5.70834e-05 0.00197767 -2.32658e-19)
(0.0231384 0.00553578 -1.80817e-19)
(-0.00134137 0.00078627 7.08918e-20)
(-0.00170233 -0.0052486 8.47945e-19)
(-0.0011536 -0.000764337 1.33935e-19)
(-0.00259105 -0.0207126 -6.27348e-19)
(8.94654e-05 -0.000451908 -2.55531e-20)
(7.70041e-05 -0.02052 -4.50235e-18)
(-0.0136886 0.014814 7.99216e-19)
(0.000550744 -0.00122076 -4.54761e-20)
(-0.00229918 0.0174767 -6.30179e-20)
(0.0020445 -0.00314583 -4.14548e-18)
(-0.00587011 -0.00529749 -1.06958e-19)
(0.0227613 -0.00122908 -1.75339e-19)
(0.00021502 0.000115406 1.09687e-19)
(-0.0609997 -0.0596325 1.55664e-19)
(-0.000727371 3.85125e-05 2.48038e-19)
(0.00101343 0.000566872 -1.30923e-19)
(0.000727442 0.00084449 -7.09512e-20)
(-0.000884352 -0.000717117 -6.04051e-19)
(0.0140325 -0.00282641 -5.80701e-19)
(-0.00289222 -0.00418954 2.94559e-19)
(-0.00402562 -0.00405103 -6.84984e-18)
(-0.00666991 -0.00052633 1.1628e-17)
(-0.0246449 -0.00278448 7.77681e-19)
(-0.000872409 -0.0027468 -3.28795e-21)
(0.014821 0.00879021 2.4058e-18)
(0.0120675 0.0875684 -5.39034e-19)
(-0.00358908 -0.00218481 5.72079e-19)
(-0.00253012 -0.00315718 -2.56599e-18)
(0.00236536 0.0122735 2.6524e-19)
(-0.0746205 -0.107472 -5.44099e-19)
(0.0165671 -0.00304176 -6.47635e-19)
(-0.000760524 -3.77534e-05 4.445e-20)
(-0.00222389 -0.0201077 -1.84284e-17)
(-0.0183989 -0.0183704 -8.41925e-18)
(-0.0190315 -0.00518135 -5.33573e-18)
(-0.00390702 -0.000274777 -3.12507e-19)
(-0.00081903 0.0202004 2.06458e-19)
(-0.0795887 -0.112562 9.9916e-19)
(0.00587229 -0.00171944 5.65051e-20)
(-0.0293401 0.090028 -1.30288e-18)
(-0.0351878 -0.0171009 5.35509e-21)
(0.051018 -0.0267453 1.66679e-17)
(-0.00329662 -0.000322712 7.00443e-20)
(0.0518673 -0.0241814 -7.13268e-18)
(-0.0036173 -0.00473785 -4.51811e-18)
(9.96408e-05 -0.000522376 -2.71125e-20)
(0.0052393 -0.00100734 -3.40434e-20)
(-0.00293274 -0.00418779 3.09499e-18)
(0.0129245 -0.00268516 -3.87773e-18)
(-0.00319708 -0.00093587 -1.27864e-20)
(-0.00106907 -2.8001e-05 -3.04601e-20)
(7.27453e-06 0.0013533 1.57681e-19)
(-0.0014307 0.000405266 2.08443e-20)
(-0.00158429 -0.00438817 1.18171e-18)
(-0.00109133 -0.0026232 -2.41594e-18)
(-0.039812 0.0590183 -6.04355e-18)
(0.00503536 -0.0237007 -4.2363e-18)
(0.00112016 0.000254584 -1.04039e-19)
(-0.00698567 -0.01384 -1.96397e-17)
(0.0129326 -0.00283817 1.26454e-19)
(-0.0634582 0.0315283 -1.78879e-18)
(0.0241416 0.0573608 1.02822e-18)
(-0.0026992 -0.00387871 -3.72977e-18)
(-0.00080735 -0.00129617 1.9163e-20)
(0.00194601 0.000992617 -4.17704e-19)
(0.0139437 -0.00168926 2.92682e-20)
(0.0134196 0.00882348 2.18174e-19)
(-0.00229328 -0.00172944 3.99166e-19)
(-0.00331934 -0.00493445 -2.91554e-18)
(-0.00433111 -0.00504138 -4.41907e-18)
(0.000330552 -0.00134592 -9.76324e-20)
(-0.00683612 -0.0165174 6.06858e-19)
(-0.0730802 -0.123799 -2.50785e-20)
(0.010411 -0.0212879 7.81359e-21)
(-0.00316891 -0.00329061 -6.99887e-19)
(0.0141601 -0.00285274 5.32846e-18)
(-0.00436328 -0.00483655 -6.77096e-18)
(-0.00139656 0.000813023 6.30917e-20)
(-0.00100611 -0.000727563 -1.51437e-19)
(0.0379356 0.0745805 -2.21543e-18)
(0.0149958 -0.00274531 -9.08435e-18)
(-0.00396345 -0.00481853 3.90703e-18)
(-0.00249628 -0.00380798 -2.42438e-18)
(-0.032213 0.0138625 2.37506e-18)
(-0.00012915 -0.00124727 3.76496e-20)
(-0.00100057 0.000324117 2.91875e-19)
(0.0487552 -0.026396 3.05803e-18)
(0.00027022 -0.00124862 8.73528e-20)
(-0.00318369 -0.000868162 3.39919e-20)
(-0.000309928 -0.00131503 -1.01564e-21)
(0.000149014 0.000435495 -1.86534e-20)
(7.86362e-05 -0.0042052 9.86944e-19)
(-0.00187489 -0.00404707 1.06807e-18)
(-0.00365532 -0.00511948 -5.19489e-19)
(0.00018 -0.00126433 -9.03525e-21)
(-0.00100734 0.0313144 2.02562e-18)
(-0.0380903 0.00718662 -6.08205e-19)
(0.000461691 0.000808963 -5.57895e-19)
(0.00183603 -4.98046e-05 -7.93155e-20)
(0.00206796 -0.000802586 3.77281e-20)
(-0.000666957 -4.86908e-05 -1.51229e-19)
(0.0185492 0.0004818 -4.0864e-18)
(-0.028475 -0.040913 -6.71496e-20)
(-0.0268067 -0.0324132 3.06276e-19)
(-0.0172549 0.0027452 1.96473e-17)
(-0.0374129 -0.0153186 1.63736e-19)
(-0.00242874 -0.00369864 -4.34615e-18)
(0.0123143 -0.00263621 4.12487e-18)
(0.0138471 -0.00276609 -2.5392e-18)
(0.00451089 -0.00253126 -2.23143e-19)
(-0.00280167 -0.00378352 4.14552e-18)
(-0.000887007 -0.00132818 -1.9681e-20)
(0.002441 -0.000521129 -1.46791e-20)
(-0.00612717 -0.00228618 -6.25456e-19)
(0.0115333 0.00102557 -1.28031e-18)
(0.00966265 0.032124 7.89902e-20)
(-0.00331265 -0.0048788 -4.81674e-18)
(-0.00394051 -0.00278599 4.76313e-19)
(0.00181582 0.000789842 -5.22093e-20)
(-0.00572339 -0.000394119 -7.40347e-19)
(0.00544412 0.00280206 -1.89353e-20)
(0.0225448 0.0131574 1.50363e-20)
(-0.00284391 -0.00406664 9.26848e-19)
(-0.000987784 -0.000228068 1.64506e-19)
(-0.00876748 0.00200543 3.65715e-19)
(0.00184513 0.000314374 -2.12443e-19)
(-0.00279552 -0.00289532 -9.45399e-19)
(-0.00134859 -0.00247425 -6.10493e-18)
(-0.00115075 -0.000844902 -1.22451e-19)
(-0.00116541 0.000820354 -2.203e-19)
(-0.00732352 0.000406761 3.74125e-19)
(-0.00149677 -0.000664341 -4.66975e-19)
(-0.00183133 -0.00453312 1.7785e-18)
(0.00856709 -0.00947899 7.63376e-19)
(-0.00239792 -0.00284969 -2.67007e-18)
(-0.00553981 0.000195173 3.08487e-19)
(-0.00400157 -0.00492028 4.88108e-18)
(0.00177825 0.000739467 1.67189e-19)
(0.0278006 -0.0403656 -3.10373e-18)
(-0.00836133 -0.00545792 -6.003e-19)
(-0.0136216 0.000415897 -5.61183e-18)
(-0.00252895 0.000735141 -4.19187e-19)
(0.00168074 -3.62001e-05 2.31348e-19)
(-0.00300633 -0.00627888 -7.64782e-18)
(-0.00363133 0.000366417 9.12151e-19)
(-0.000587618 -0.0107967 2.96539e-17)
(0.0157789 -0.00296529 -1.542e-17)
(-0.00881676 -0.0192773 1.08769e-17)
(-0.0200189 0.0715015 1.59173e-18)
(0.00194909 0.000424496 3.15949e-19)
(-0.00952324 -0.00674107 -6.2217e-18)
(-0.000730779 -0.00518584 -1.52357e-20)
(0.00021649 0.000523096 -2.16019e-19)
(-1.42447e-06 -0.000434953 2.43619e-20)
(0.000127969 0.00048376 -1.54311e-19)
(0.00107993 -0.00911903 6.81805e-21)
(-0.00703323 0.00136904 7.02275e-19)
(-0.00192942 0.00111348 -6.71894e-19)
(0.000125635 -0.00116824 -5.56139e-20)
(0.0470383 -0.00612231 -3.94738e-19)
(-0.0166895 0.0146544 8.83723e-19)
(0.0472669 -0.00365313 2.7997e-19)
(0.000268415 0.00131684 -5.5641e-19)
(-0.000235366 -0.000380567 -2.70249e-20)
(0.00122091 -7.59513e-05 2.57186e-20)
(0.00207231 -0.00378317 -3.01308e-18)
(0.0467334 0.027168 1.32759e-18)
(-0.00265258 -0.00444729 -2.77327e-18)
(-0.0028708 -0.00293701 1.68393e-18)
(-0.000389646 -0.00531685 9.68818e-21)
(0.00155263 -3.38552e-05 -5.30417e-20)
(0.00110298 0.000171601 5.51508e-20)
(4.21009e-05 0.00157368 -3.3137e-19)
(-0.0042421 -0.00387562 -2.4094e-19)
(-0.0600453 -0.0843228 1.2456e-19)
(-0.00146448 -0.000637388 3.26014e-19)
(3.73786e-05 -0.0011739 1.75269e-20)
(-0.000853056 -0.000738652 -3.77494e-20)
(-4.82835e-07 0.00152971 -4.35485e-20)
(0.03804 -0.0271569 1.67932e-18)
(0.00252328 -0.0188161 -8.86742e-19)
(-0.0059344 -0.000599544 -4.05705e-19)
(0.00294587 0.00189342 -2.26682e-18)
(-0.0713484 -0.0859606 -3.93684e-19)
(-0.00111966 0.000788333 3.71302e-19)
(-0.00393727 -0.00395778 -1.64347e-18)
(0.00924729 0.00519503 6.59315e-18)
(-0.00281368 -0.00386504 -3.25143e-19)
(0.0101386 -0.0786684 -3.63577e-19)
(-0.00160567 -0.0010549 -3.79225e-19)
(-0.00551394 0.000339915 -5.0077e-19)
(-0.00264732 -0.00441032 8.36098e-19)
(-0.00587241 0.00108885 1.98123e-20)
(-0.0363174 -0.00467041 -1.78165e-20)
(-0.00105856 -0.000297947 -9.78654e-21)
(-0.0850046 -0.130857 1.90017e-18)
(0.000143039 -8.86907e-05 -1.8812e-21)
(-0.00181935 -0.00366763 1.74885e-18)
(0.0139828 -0.002808 9.30015e-18)
(0.00292569 0.0012972 4.05396e-20)
(-0.00326319 0.000656304 -8.01704e-19)
(-0.0272586 0.0193346 -1.17364e-19)
(0.00101584 0.000624419 1.87358e-20)
(-0.0035325 -0.00198344 3.74035e-19)
(-0.0396594 -0.0830362 -2.06394e-19)
(-0.0488274 0.0351657 1.73732e-19)
(-0.00278236 -0.00410468 -7.16618e-19)
(0.00877082 0.00443237 -4.47746e-19)
(-0.00579366 -0.00211356 -1.21198e-19)
(-0.000346443 -0.00120421 -8.25883e-21)
(0.000286852 0.00125121 3.28177e-19)
(0.00845461 0.0263145 -8.04281e-18)
(-0.00423311 -0.00506537 2.27742e-18)
(-0.000256051 -0.00714831 1.44045e-20)
(0.0158922 -0.00296481 1.10825e-17)
(0.00237466 0.000338212 -9.92404e-20)
(-0.000518114 -2.24328e-05 -9.45355e-20)
(0.00019575 -0.000533371 1.23231e-20)
(-0.0212391 -0.00152057 -6.27961e-20)
(-0.00551212 -0.00502924 -9.02027e-18)
(-0.00380935 -0.00051155 3.88814e-19)
(-0.00214147 0.00125117 5.21738e-20)
(0.00889169 0.00214496 -1.44752e-19)
(-0.00244474 -0.00231562 -2.5236e-18)
(0.00122429 -8.7095e-05 -3.26085e-20)
(-0.011087 -0.0120308 -4.75982e-18)
(-0.0357334 0.0932226 -1.13209e-18)
(0.0126331 -0.00315018 5.66028e-18)
(0.000606779 -0.00129988 1.56564e-20)
(-0.00140806 -0.000650226 -2.84499e-19)
(0.0121379 -0.00268764 1.65776e-17)
(0.00214086 -0.0160028 -5.75346e-19)
(-0.00407161 -0.00530635 -1.1806e-18)
(0.00496996 0.00260567 -9.57439e-22)
(0.0120053 -0.00381112 -6.95098e-18)
(-0.00111247 -0.000275866 -6.8051e-21)
(0.00930112 0.00618412 -9.6199e-20)
(0.00114836 -0.0142936 -3.12342e-19)
(-0.00583159 -0.00973918 4.70914e-20)
(-0.00371283 -0.00133636 2.38051e-20)
(-0.012078 -0.0199622 4.24527e-18)
(-0.00845499 0.00447756 -6.62929e-20)
(0.00552246 0.000441077 -1.02781e-19)
(-0.00382152 -0.00532331 -6.50971e-18)
(0.00168044 -3.39421e-05 -5.42507e-20)
(-0.000132914 2.30565e-05 -1.46604e-19)
(-0.00314032 -0.000247433 2.76532e-19)
(0.00181571 0.000685148 -1.9655e-19)
(-0.011772 -0.0142885 -1.34217e-17)
(-0.00524687 -0.00254302 -1.04769e-20)
(-0.00335385 -0.00328635 -3.02288e-18)
(-0.00245457 -0.0040264 -1.90575e-19)
(0.00605781 0.000307501 -8.14614e-20)
(0.00177377 0.000853936 2.10222e-19)
(-0.0503187 -0.0890175 -2.27723e-19)
(0.000797501 0.000118345 8.38155e-20)
(-0.00826835 0.00626487 -3.92163e-20)
(6.52387e-06 -0.00036157 -4.18709e-20)
(-0.00101937 0.000780118 -3.73051e-19)
(-0.000316898 0.000149634 1.93025e-19)
(0.014662 -0.00266567 -4.53696e-18)
(-3.9319e-05 0.0012907 2.26688e-19)
(0.000583357 -0.000810064 5.68758e-20)
(0.0336911 -0.065066 3.82171e-19)
(-0.00102676 -0.000771537 3.36238e-20)
(0.0127559 -0.00271136 -7.07269e-18)
(0.000465677 -5.28814e-05 -1.48224e-20)
(0.00478039 0.004137 -5.16849e-20)
(-0.00305551 -0.0044378 4.2464e-18)
(0.0421872 -0.0287109 -2.88969e-18)
(0.00726351 0.0160451 -3.24348e-20)
(0.00129818 0.000184563 -1.86327e-19)
(0.00128042 -0.0698627 2.58965e-19)
(0.00388795 0.00429267 2.52231e-18)
(-0.00203436 -0.000792487 -3.40075e-20)
(0.0153223 -0.00263887 -9.10603e-18)
(-0.00184617 -0.00362585 -4.41827e-18)
(0.00181765 0.000593717 -1.74689e-19)
(0.00471313 -0.00350573 -3.52069e-20)
(-0.00819369 -0.0103527 -1.31209e-18)
(-0.00404345 -0.0566834 -1.60309e-18)
(-0.00406154 -0.00102392 -1.15025e-20)
(0.00108749 0.000223892 1.5453e-19)
(-1.44109e-05 -0.00107614 -3.00954e-20)