/*--------------------------------*- C++ -*----------------------------------*\
| =========                 |                                                 |
| \\      /  F ield         | OpenFOAM: The Open Source CFD Toolbox           |
|  \\    /   O peration     | Version:  v2012                                 |
|   \\  /    A nd           | Website:  www.openfoam.com                      |
|    \\/     M anipulation  |                                                 |
\*---------------------------------------------------------------------------*/
FoamFile
{
    version     2.0;
    format      ascii;
    class       volScalarField::Internal;
    location    "350";
    object      V0;
}
// * * * * * * * * * * * * * * * * * * * * * * * * * * * * * * * * * * * * * //

dimensions      [0 3 0 0 0 0 0];


value           nonuniform List<scalar> 
13851
(
0.093519
0.0503712
0.0153994
0.0939758
0.0127714
0.08732
0.0775134
0.0207565
0.166815
0.023318
0.173369
0.0180914
0.00508807
0.0064814
0.168946
0.035005
0.0443129
0.0593834
0.00821626
0.166939
0.106785
0.0169748
0.165148
0.186812
0.157722
0.0239137
0.0316118
0.000972005
0.0913597
0.0639518
0.0857849
0.0420929
0.0189637
0.105174
0.20543
0.00539761
0.00430146
0.0113266
0.019592
0.134544
0.101634
0.170966
0.00132341
0.162851
0.159437
0.00301127
0.15561
0.111537
0.0301279
0.145753
0.0111835
0.00681183
0.00137822
0.149815
0.172103
0.169744
0.169285
0.00212255
0.0743839
0.0761917
0.0127175
0.00548981
0.0663691
0.00930697
0.0427157
0.0824083
0.00343372
0.165868
0.0213574
0.0623196
0.0012836
0.00337723
0.0478583
0.170481
0.170899
0.119366
0.0113338
0.00167542
0.0163568
0.00137886
0.0734987
0.166361
0.121876
0.00272213
0.0624004
0.0166825
0.0888535
0.0272019
0.0388231
0.183203
0.00525285
0.109292
0.128873
0.024806
0.0413061
0.155419
0.0121199
0.00300942
0.125622
0.184298
0.00374968
0.0147041
0.0797198
0.0291625
0.163021
0.0942435
0.0131831
0.183516
0.00289278
0.0843993
0.157331
0.185569
0.10713
0.194118
0.162424
0.0680389
0.00390086
0.135055
0.17126
0.152852
0.0013589
0.0362793
0.00514728
0.107901
0.10327
0.175827
0.106876
0.0130297
0.0898848
0.00797875
0.114043
0.161443
0.00133812
0.12728
0.0698669
0.165686
0.166117
0.00332572
0.00675985
0.0101727
0.00335688
0.186921
0.137169
0.162478
0.0534815
0.157089
0.186933
0.0106675
0.0915949
0.160251
0.00839318
0.165797
0.00517728
0.149593
0.038693
0.0601925
0.123088
0.0595647
0.00684085
0.0118527
0.173078
0.0197833
0.00166141
0.145565
0.0638418
0.16982
0.197687
0.0203098
0.0912009
0.00301472
0.0013693
0.14435
0.11974
0.00907886
0.15015
0.105097
0.0169259
0.106272
0.0078417
0.180856
0.0352511
0.00311873
0.113556
0.0119557
0.170532
0.165103
0.0792486
0.154128
0.0118686
0.0288526
0.149802
0.00152164
0.153483
0.0187041
0.00686216
0.0484817
0.135986
0.132494
0.126864
0.119434
0.175077
0.00387697
0.167858
0.11352
0.0239245
0.115574
0.00927346
0.0406738
0.0019329
0.178663
0.00248701
0.0929455
0.139062
0.192614
0.178611
0.164841
0.0672315
0.00284669
0.127145
0.00192753
0.0327387
0.0651693
0.00250154
0.00749878
0.00220553
0.178132
0.0268204
0.163504
0.00138208
0.178392
0.0248213
0.0449067
0.14217
0.15147
0.010693
0.0486168
0.00851138
0.0351067
0.177244
0.101145
0.0877035
0.135023
0.194624
0.0214582
0.162223
0.00163625
0.0138543
0.127105
0.0564449
0.0451465
0.120888
0.126845
0.0564332
0.0526978
0.013401
0.0655284
0.0336518
0.00309071
0.00123323
0.122515
0.166761
0.0733682
0.0781741
0.175371
0.0066845
0.0419959
0.0558339
0.0246714
0.00258805
0.141997
0.119843
0.0438548
0.0885511
0.0165754
0.0377877
0.149931
0.171691
0.154807
0.00224153
0.148264
0.146701
0.191128
0.162506
0.0133426
0.0903222
0.0975042
0.153545
0.126968
0.0897095
0.187526
0.00849447
0.0566336
0.0644453
0.0197745
0.142726
0.00695102
0.0368825
0.017834
0.141163
0.00176332
0.0189847
0.0398981
0.00228442
0.0792006
0.0937255
0.0024606
0.151889
0.0144036
0.0298178
0.0614451
0.00772664
0.0293768
0.056868
0.00289165
0.165319
0.0388398
0.175976
0.0026388
0.00613089
0.12366
0.0130115
0.131747
0.00179322
0.120456
0.172454
0.109907
0.0069395
0.0267455
0.0377491
0.128423
0.0833162
0.066202
0.195938
0.00412534
0.00391054
0.0658319
0.00266055
0.00672128
0.148807
0.0180889
0.00842033
0.0893492
0.0406009
0.00644379
0.00740144
0.109291
0.0734355
0.00203941
0.161808
0.150845
0.15101
0.0120747
0.0373186
0.0397744
0.00140378
0.118767
0.0783956
0.110286
0.140716
0.169195
0.169226
0.133525
0.0021235
0.177776
0.086802
0.0172955
0.168137
0.0162202
0.0361328
0.0926277
0.00362384
0.0845216
0.0395434
0.0284395
0.107813
0.120979
0.133578
0.099157
0.00296561
0.183655
0.00837401
0.100633
0.00581482
0.0032104
0.155768
0.159532
0.0966743
0.139312
0.145837
0.0675231
0.0104277
0.00587284
0.020616
0.00252557
0.00226796
0.126234
0.0976153
0.00371803
0.00135454
0.0423204
0.00364166
0.104912
0.0263829
0.167311
0.00751983
0.133257
0.0267489
0.103934
0.0835302
0.167596
0.141412
0.12638
0.00831569
0.0459252
0.00161882
0.0685523
0.0117503
0.0841331
0.118021
0.0441166
0.0139136
0.0404931
0.161562
0.174885
0.147474
0.163457
0.010476
0.128577
0.00903238
0.0791927
0.00155244
0.101671
0.090265
0.17431
0.00833014
0.120346
0.122704
0.180279
0.0161036
0.141638
0.018238
0.00154693
0.127329
0.161872
0.159966
0.00367874
0.185435
0.024924
0.0144403
0.13163
0.140006
0.064875
0.00862847
0.00690846
0.0631737
0.0172024
0.187494
0.108346
0.00169416
0.0558205
0.181164
0.0238194
0.133244
0.0797971
0.143986
0.045921
0.0601107
0.167712
0.127453
0.00365659
0.10515
0.0180597
0.159566
0.0766308
0.167213
0.167684
0.107848
0.178844
0.171829
0.100629
0.0642282
0.0927911
0.112764
0.175909
0.00407024
0.00137251
0.100712
0.0869603
0.0417114
0.128463
0.00280121
0.0913822
0.159608
0.115741
0.0115923
0.0748501
0.00170168
0.174332
0.00121247
0.0296264
0.163508
0.0875246
0.00302024
0.0208189
0.138032
0.164036
0.111183
0.17792
0.144813
0.151023
0.0844097
0.00138038
0.0114653
0.00647571
0.00404906
0.0625413
0.183241
0.00621019
0.132085
0.0321154
0.0234201
0.110675
0.110968
0.00282674
0.147293
0.00212959
0.00285823
0.00333552
0.0401828
0.0670709
0.114959
0.16398
0.0749996
0.128997
0.0150426
0.0583409
0.0149606
0.00345084
0.171983
0.159367
0.0114012
0.00129519
0.052282
0.124447
0.129113
0.0919862
0.0115136
0.0473112
0.0310617
0.0170425
0.154688
0.00183461
0.00166358
0.0943744
0.141027
0.0193312
0.128284
0.145043
0.153559
0.0057806
0.0291351
0.00713952
0.00427643
0.165591
0.0828277
0.105015
0.0144816
0.00897853
0.00132603
0.00301535
0.109503
0.0828421
0.0254644
0.00203514
0.005573
0.0168085
0.0627606
0.167268
0.12803
0.0140541
0.175632
0.0534303
0.178338
0.148579
0.00272495
0.0103984
0.0851633
0.158522
0.00758719
0.128819
0.138767
0.14265
0.165686
0.152207
0.00283181
0.122732
0.130878
0.00368054
0.114099
0.0193072
0.00123344
0.00146637
0.0772167
0.0196048
0.127305
0.173606
0.0294639
0.00394784
0.0776082
0.00758498
0.0268802
0.145699
0.0387981
0.125956
0.131119
0.00950771
0.116558
0.0662654
0.13783
0.0230369
0.00732543
0.0806106
0.11062
0.0324835
0.0624338
0.0111772
0.0108546
0.00615849
0.0386076
0.00524672
0.143271
0.0522992
0.102835
0.0029411
0.0999606
0.171254
0.00281699
0.0659186
0.00196745
0.00187926
0.00265976
0.0262852
0.128649
0.00302375
0.127824
0.149736
0.165781
0.14797
0.146446
0.0689959
0.049971
0.161843
0.00989477
0.0282577
0.00828206
0.127642
0.157748
0.138622
0.0101555
0.00646073
0.0106347
0.0231703
0.130519
0.142065
0.153631
0.092714
0.00399886
0.0136641
0.0616539
0.171654
0.081392
0.128025
0.0162188
0.00154988
0.0353727
0.00408117
0.111181
0.116204
0.00734552
0.00299173
0.0198543
0.0155656
0.073024
0.0626842
0.0115618
0.0686473
0.135779
0.108883
0.130674
0.184214
0.0157766
0.00165787
0.130212
0.0611889
0.0642258
0.142852
0.0374235
0.0870592
0.00686208
0.00993935
0.00707543
0.144345
0.169637
0.131634
0.00443835
0.00406255
0.0470585
0.00192378
0.156072
0.135523
0.169945
0.118444
0.00350859
0.0480236
0.0823721
0.156843
0.0394691
0.122901
0.00201788
0.0487021
0.0016714
0.156041
0.0663935
0.00126298
0.0012205
0.00493759
0.121608
0.00256053
0.125859
0.162833
0.0145503
0.018464
0.0427849
0.00275113
0.0881908
0.127769
0.00435158
0.171576
0.172504
0.0594822
0.131316
0.00202689
0.0240439
0.00911954
0.0729501
0.155999
0.143402
0.0841414
0.177659
0.109969
0.162034
0.110817
0.154039
0.00184207
0.129689
0.132505
0.0952561
0.0813038
0.00131028
0.152888
0.124972
0.00644283
0.01602
0.134859
0.154426
0.0786433
0.00442645
0.0572677
0.00280888
0.017468
0.132274
0.104116
0.00118746
0.0937317
0.0430328
0.148812
0.166452
0.162125
0.0166743
0.0310829
0.0499312
0.103306
0.133777
0.123497
0.00665866
0.127407
0.0115446
0.0762469
0.0773334
0.0111562
0.00643676
0.00228148
0.0525916
0.00989318
0.0043611
0.0932905
0.00263099
0.0516793
0.00517742
0.00701523
0.00250569
0.129906
0.0281247
0.143714
0.0659333
0.00216768
0.002266
0.119521
0.175832
0.0117283
0.154739
0.130747
0.0012986
0.151876
0.0962192
0.00178763
0.00145335
0.117118
0.1176
0.136954
0.00108505
0.00339046
0.00622121
0.106161
0.00387274
0.0122416
0.00662968
0.0134202
0.0156852
0.0536715
0.0763063
0.0400095
0.0104631
0.000793324
0.0984465
0.0223753
0.00206431
0.00480454
0.00142505
0.0880238
0.0192457
0.141289
0.0360791
0.0595114
0.011213
0.192411
0.0017128
0.118356
0.00739008
0.105831
0.0142155
0.0160133
0.0202798
0.00301106
0.0140491
0.0428851
0.165422
0.00821546
0.0930089
0.0574118
0.0556441
0.00115444
0.168898
0.00719228
0.148386
0.0782767
0.00174539
0.00287914
0.00143133
0.138121
0.121472
0.113443
0.00166739
0.172198
0.0649516
0.00159084
0.132615
0.0397548
0.00966186
0.137992
0.0107521
0.0730398
0.128508
0.0289251
0.00183867
0.00861871
0.0418961
0.101149
0.151119
0.00202648
0.00716048
0.128074
0.0261692
0.144642
0.119017
0.157761
0.14027
0.0133607
0.126026
0.0906944
0.122098
0.106266
0.0596065
0.00129914
0.002967
0.0278206
0.00782342
0.0989908
0.0251117
0.108871
0.145555
0.0882603
0.0952339
0.00128464
0.090074
0.0114766
0.0864217
0.0451163
0.156715
0.00121644
0.127393
0.024855
0.0268562
0.00414956
0.0215075
0.0215108
0.00122223
0.0251999
0.0481377
0.014066
0.0766834
0.00131208
0.0174543
0.178329
0.0856683
0.0174069
0.0130667
0.00905449
0.143769
0.00955626
0.131867
0.126605
0.00564574
0.163501
0.00648579
0.0352697
0.140901
0.0713289
0.131088
0.124858
0.135963
0.0649488
0.00390183
0.128841
0.00376466
0.00188811
0.0285115
0.00669775
0.0782242
0.176949
0.156783
0.0905208
0.127694
0.00838168
0.0486209
0.117649
0.0785535
0.174844
0.00148253
0.0132417
0.0594024
0.00329933
0.00419395
0.0896959
0.100574
0.0230092
0.127436
0.139158
0.0927158
0.101261
0.151177
0.157367
0.134898
0.00198901
0.140417
0.00471468
0.0313936
0.0377228
0.165831
0.14798
0.0130184
0.050863
0.0927153
0.132369
0.103533
0.100436
0.0720913
0.014857
0.146989
0.0397295
0.00553484
0.128027
0.161154
0.0951773
0.0441911
0.0804103
0.0335272
0.012463
0.0155134
0.0505221
0.102967
0.0152076
0.108403
0.00157012
0.00397404
0.0621685
0.00572267
0.12678
0.157839
0.0960485
0.120149
0.141652
0.137891
0.147625
0.136571
0.00953683
0.134915
0.137073
0.0570632
0.0185928
0.00365064
0.047599
0.0586552
0.160922
0.0101633
0.00676618
0.0494714
0.00189901
0.0095887
0.00715148
0.141966
0.00924341
0.0925533
0.137646
0.0988497
0.00132703
0.00725156
0.127145
0.0316372
0.153171
0.109804
0.147045
0.0866468
0.0963964
0.0684989
0.131547
0.0168204
0.0517375
0.00128783
0.186226
0.0324828
0.134425
0.00685758
0.0189105
0.00277955
0.00623126
0.00684702
0.0108294
0.00160204
0.123337
0.00383133
0.146609
0.0205854
0.138406
0.0526468
0.0202118
0.0750116
0.00152429
0.0318308
0.0312431
0.146988
0.00584331
0.0990003
0.135919
0.036902
0.044154
0.16716
0.0672217
0.0285534
0.11148
0.041946
0.109939
0.0245491
0.099865
0.109597
0.00388981
0.0358414
0.151285
0.0572521
0.00243979
0.0222959
0.0149937
0.0060248
0.112237
0.141235
0.00351574
0.0683694
0.0167916
0.0263175
0.00244235
0.11274
0.00783936
0.0457204
0.0579212
0.0734442
0.0954335
0.0012299
0.0460005
0.00150852
0.160361
0.02253
0.00504002
0.0399466
0.00252151
0.00357432
0.149562
0.0255616
0.00165451
0.0246184
0.00278521
0.129617
0.0923572
0.00111011
0.00693837
0.00208409
0.146054
0.0855922
0.0985928
0.00147424
0.00506014
0.0625986
0.0913962
0.0155303
0.0115199
0.00340293
0.0918227
0.116471
0.00262627
0.0321223
0.106571
0.00550962
0.00619039
0.0486878
0.135869
0.00101637
0.00261304
0.151813
0.135167
0.010953
0.147756
0.164027
0.108816
0.10262
0.0916448
0.0105634
0.040092
0.00368495
0.0532229
0.00125501
0.0989111
0.00990623
0.00531541
0.00762581
0.109252
0.113638
0.0103375
0.127473
0.11298
0.155309
0.0878486
0.103854
0.00373952
0.133791
0.121851
0.00160234
0.0197975
0.0131923
0.0511808
0.134457
0.144777
0.0210404
0.00295706
0.00302118
0.123031
0.0111343
0.139829
0.0867755
0.145281
0.00168246
0.0185763
0.0334686
0.00665302
0.00895997
0.0664038
0.00319221
0.0027945
0.110485
0.141045
0.155607
0.0207914
0.0112173
0.154086
0.00558465
0.113761
0.161356
0.0122488
0.00160246
0.0686295
0.0053381
0.0512241
0.00182975
0.0903999
0.0789141
0.0893543
0.0505488
0.152141
0.132997
0.0501142
0.00227688
0.00214273
0.0345051
0.00267533
0.0433573
0.00185771
0.00226217
0.0208115
0.114789
0.112103
0.134535
0.113552
0.00391801
0.15396
0.0402908
0.0635529
0.00630739
0.00241034
0.00311585
0.0889418
0.00322779
0.0528536
0.0506538
0.120427
0.127436
0.00180463
0.0398888
0.00144415
0.0286167
0.0912913
0.00621088
0.145127
0.0364765
0.0834861
0.00453612
0.100882
0.0452484
0.0886232
0.119732
0.0043703
0.0472265
0.0246278
0.118953
0.0226221
0.0120922
0.00120349
0.114355
0.0115659
0.115595
0.0613681
0.150091
0.00636768
0.021676
0.0175878
0.0356531
0.135699
0.11008
0.109661
0.161226
0.134926
0.125269
0.128058
0.00206619
0.0353708
0.0765816
0.103475
0.160149
0.00895645
0.00332248
0.00682288
0.0191245
0.0902574
0.135305
0.155728
0.120483
0.00558594
0.00165652
0.164551
0.0463733
0.0315345
0.00318218
0.0619849
0.0427733
0.00130942
0.0399436
0.14241
0.003252
0.00231547
0.0893278
0.147022
0.0956057
0.00155636
0.00536273
0.024495
0.00614718
0.00349961
0.0407373
0.00232609
0.0144421
0.093162
0.00661321
0.00712494
0.144711
0.0019115
0.0778285
0.113468
0.147963
0.0055634
0.112028
0.0048144
0.0545777
0.0461945
0.0170422
0.119744
0.00371877
0.00227532
0.145329
0.0519583
0.00489424
0.012516
0.00152274
0.0202802
0.15454
0.111875
0.0963522
0.143395
0.0841522
0.0435912
0.0988249
0.0101962
0.018517
0.0210883
0.120633
0.141985
0.132424
0.0260794
0.0254631
0.09461
0.0112573
0.0188264
0.0301609
0.0124664
0.0143966
0.0621322
0.00232464
0.112957
0.129454
0.00454084
0.00337174
0.00103717
0.089428
0.164845
0.00152145
0.145606
0.126188
0.0255217
0.142745
0.0151821
0.0115689
0.14841
0.00135269
0.00370437
0.0507987
0.00715179
0.00123445
0.126894
0.0404961
0.00473933
0.00163736
0.036881
0.00820232
0.14032
0.158122
0.140335
0.0444403
0.00219801
0.00366125
0.00152029
0.00342024
0.0376569
0.0378189
0.0292767
0.128299
0.153057
0.130072
0.00377671
0.12031
0.00294098
0.0389167
0.0619689
0.0106879
0.00382272
0.000807002
0.00297309
0.0153025
0.100403
0.125993
0.00310679
0.00349453
0.0340308
0.142003
0.15052
0.0169776
0.0335302
0.00539746
0.0125773
0.040026
0.149537
0.00556763
0.134578
0.00123735
0.0542971
0.127676
0.00955706
0.0947352
0.00154175
0.159862
0.00175009
0.144739
0.0420585
0.0655808
0.139262
0.0631589
0.0172465
0.0147978
0.0019382
0.00236786
0.0313458
0.0247254
0.0834748
0.00328005
0.00198797
0.127914
0.149924
0.140733
0.166133
0.00142337
0.178737
0.0534677
0.0195378
0.0468552
0.0495038
0.072688
0.0782596
0.0087329
0.00215961
0.109539
0.0692483
0.00488138
0.0550846
0.020945
0.0405699
0.00182363
0.0259457
0.0158693
0.113486
0.148663
0.146443
0.00199168
0.00216426
0.0129074
0.152667
0.110593
0.128882
0.000935676
0.142563
0.00233288
0.00212643
0.0411743
0.0142873
0.078948
0.0394674
0.0707138
0.0768297
0.00130741
0.0438147
0.00886767
0.155399
0.0846184
0.144851
0.0774655
0.00477758
0.00383651
0.0305103
0.00239142
0.00520073
0.164846
0.101384
0.143374
0.104288
0.00188325
0.00384995
0.0447989
0.142688
0.072349
0.0174582
0.0179322
0.000958353
0.0332152
0.00220465
0.0148692
0.0622184
0.106824
0.146301
0.0101987
0.124575
0.14284
0.00153188
0.0196997
0.00556743
0.104064
0.0319121
0.133904
0.00155357
0.00357727
0.111811
0.0875776
0.036369
0.088208
0.130507
0.108647
0.134621
0.0010904
0.0313892
0.000982814
0.0372346
0.00618537
0.0165999
0.00166732
0.119215
0.0260804
0.00162024
0.0405154
0.037409
0.00129446
0.14014
0.114102
0.0294068
0.00285389
0.00133922
0.0361879
0.0901403
0.122343
0.147279
0.0459518
0.193381
0.00327274
0.145112
0.0387318
0.0759554
0.14231
0.0198056
0.00805194
0.0863164
0.00612809
0.100899
0.151321
0.0200744
0.00155449
0.0215822
0.0209454
0.00440733
0.00591365
0.128195
0.0971787
0.0344994
0.00257227
0.00229321
0.109316
0.00122587
0.048718
0.111444
0.0822518
0.00366775
0.0146629
0.115963
0.000757222
0.0686818
0.0474757
0.11974
0.00197925
0.118234
0.0052161
0.0674181
0.0369388
0.0564396
0.113534
0.00789611
0.000678427
0.139215
0.031099
0.0108825
0.152676
0.0803183
0.0942178
0.0154478
0.011608
0.0112957
0.0461492
0.00278776
0.0333184
0.011904
0.0424032
0.0156005
0.111515
0.00136703
0.00150522
0.0263007
0.114477
0.00913633
0.0024942
0.0664057
0.026068
0.127796
0.0350487
0.00115005
0.0378178
0.00213118
0.0684623
0.0112524
0.0697512
0.00127004
0.140999
0.1428
0.105894
0.0242035
0.00333001
0.00363946
0.00872044
0.0305458
0.143934
0.0402069
0.066907
0.12631
0.00519317
0.13518
0.0150962
0.0927064
0.0437381
0.145226
0.150828
0.139794
0.06694
0.0512621
0.0255143
0.00151034
0.0991193
0.0426286
0.0243184
0.143759
0.0928778
0.0551567
0.0559128
0.0207551
0.132671
0.11353
0.00672334
0.162584
0.0608894
0.0926963
0.0588513
0.141543
0.00270036
0.0706316
0.116743
0.00507515
0.0313243
0.0377129
0.00238892
0.00741956
0.079583
0.0290307
0.0531378
0.0518726
0.0762152
0.148319
0.0314124
0.00139043
0.00176153
0.00303111
0.05342
0.001886
0.0699317
0.0524167
0.156912
0.00287915
0.113045
0.0352481
0.123151
0.00266753
0.00283416
0.107419
0.162609
0.0387014
0.113461
0.0927925
0.00688019
0.0894432
0.114016
0.00139948
0.00232524
0.140917
0.0328593
0.041524
0.00359519
0.150727
0.00256342
0.00171772
0.109498
0.0555111
0.00392562
0.0148422
0.0975226
0.104114
0.113495
0.0420343
0.145487
0.122073
0.0024242
0.00152531
0.00209812
0.137449
0.00268775
0.0763509
0.00692043
0.145695
0.0533806
0.0413228
0.140157
0.00329755
0.0439176
0.0112639
0.00566067
0.00246084
0.0220723
0.0110988
0.00266812
0.00248397
0.123045
0.000965183
0.137992
0.119458
0.106701
0.114857
0.138899
0.00192805
0.0676265
0.13998
0.0445562
0.00163541
0.00217687
0.0329385
0.147884
0.028741
0.0218585
0.00305375
0.115609
0.125866
0.161524
0.0138671
0.0983767
0.140066
0.00158291
0.0158987
0.0175733
0.109983
0.128045
0.0630852
0.00200129
0.131744
0.00157389
0.017085
0.0799344
0.00188141
0.00246494
0.151155
0.00872797
0.0412377
0.00198001
0.1335
0.0433964
0.139419
0.0626814
0.029354
0.00393474
0.150383
0.114094
0.111798
0.00725116
0.0202891
0.00183127
0.00176481
0.0737532
0.00141129
0.0485226
0.0171078
0.00402892
0.00134509
0.0444728
0.00161342
0.0146102
0.0729441
0.141438
0.00417319
0.0208348
0.0421296
0.00603462
0.146641
0.00229122
0.137286
0.0146304
0.137815
0.0606664
0.00145719
0.0171297
0.00694179
0.0453342
0.0394327
0.0457201
0.00512553
0.0200554
0.00215042
0.076992
0.0020372
0.0821763
0.00563685
0.0093508
0.00365235
0.110393
0.12611
0.0976418
0.00229165
0.112474
0.131363
0.137205
0.0605027
0.147009
0.113517
0.00348574
0.00317902
0.00232334
0.00233799
0.123878
0.00405202
0.00251243
0.00570115
0.00164037
0.00157407
0.0460044
0.00219847
0.0364413
0.0218765
0.00263193
0.00599598
0.160026
0.00268462
0.0869282
0.0857917
0.0129685
0.00170341
0.00237909
0.000958899
0.0394754
0.0611069
0.142628
0.00267576
0.00246452
0.115949
0.0117664
0.114742
0.0899073
0.0778053
0.0034969
0.00353052
0.0542981
0.10696
0.0447651
0.0670031
0.0980695
0.0567324
0.123459
0.044248
0.0264339
0.00555489
0.0894411
0.00614431
0.0746036
0.0502967
0.00170028
0.0025404
0.0502112
0.0414874
0.125736
0.0195652
0.0666329
0.149181
0.0209091
0.122171
0.0798383
0.0417135
0.114918
0.0510424
0.00869151
0.0215111
0.00152796
0.0890141
0.178861
0.00253783
0.106584
0.033138
0.114935
0.101791
0.15178
0.0768329
0.134491
0.0317736
0.098575
0.00168741
0.0820949
0.0611934
0.0391655
0.148127
0.0865361
0.029918
0.105313
0.0102154
0.00175402
0.0627993
0.0537489
0.124941
0.0811948
0.109587
0.0633927
0.122987
0.0339737
0.00403291
0.10627
0.00881004
0.00143712
0.13649
0.106725
0.1374
0.0339568
0.0102694
0.102952
0.0145992
0.00364105
0.0613897
0.132858
0.00123042
0.159392
0.113337
0.146631
0.175947
0.0960244
0.134855
0.0780766
0.00419097
0.0522322
0.0227288
0.0191701
0.0672199
0.0666053
0.0206614
0.00157157
0.00177204
0.00855951
0.00980305
0.00334896
0.00639666
0.134674
0.0556817
0.14213
0.0201718
0.114179
0.0393412
0.0106699
0.132284
0.0195372
0.0217685
0.130117
0.118471
0.081105
0.115031
0.144405
0.13952
0.00458182
0.00413723
0.0603202
0.081892
0.146672
0.011286
0.00560628
0.00163123
0.0140777
0.00337343
0.119903
0.00243149
0.00132125
0.0760725
0.0695938
0.0812307
0.136848
0.0657594
0.0943079
0.100761
0.0415164
0.00166182
0.00929683
0.00150849
0.116547
0.0107474
0.00417097
0.115544
0.126049
0.122432
0.148353
0.0578181
0.104898
0.0104002
0.0833583
0.00252868
0.0333914
0.00243388
0.00839192
0.00222597
0.00109125
0.0867772
0.131739
0.12827
0.0791136
0.149203
0.114093
0.00166233
0.00318266
0.0872082
0.0733948
0.0873056
0.0219315
0.0106461
0.137332
0.0694424
0.00430466
0.126614
0.0973187
0.0240711
0.0122324
0.0610537
0.00380263
0.00560015
0.037863
0.00273905
0.00714459
0.00130128
0.149664
0.0449702
0.129176
0.03353
0.00351695
0.132566
0.00143157
0.12682
0.172175
0.109184
0.0019306
0.014529
0.00814074
0.105613
0.148146
0.0309768
0.00193389
0.0265032
0.120568
0.0965338
0.0843547
0.0474871
0.119641
0.124971
0.00195856
0.00238863
0.00199296
0.0223348
0.00612184
0.00223661
0.00837034
0.00216845
0.0117538
0.154704
0.134442
0.164642
0.0689952
0.00262174
0.00268903
0.143222
0.00150538
0.00177925
0.0215766
0.106623
0.131904
0.00661855
0.00386952
0.00163284
0.0249413
0.00162437
0.159245
0.0060564
0.00991464
0.139693
0.00247114
0.116017
0.00636806
0.00198075
0.0381536
0.00555259
0.0750285
0.137647
0.00209621
0.00160877
0.00776812
0.0277465
0.00126347
0.00524494
0.00169121
0.00186433
0.00170947
0.00659652
0.00660807
0.0742664
0.0942145
0.0145919
0.0014329
0.138784
0.00133431
0.160512
0.0131695
0.0308385
0.131246
0.00303738
0.11129
0.00576655
0.00152416
0.114618
0.0120813
0.00973899
0.00174772
0.00659488
0.0104935
0.111767
0.0772265
0.00260606
0.127913
0.136782
0.0168335
0.0386206
0.00149607
0.034178
0.134811
0.039092
0.13706
0.0105958
0.0535277
0.00644312
0.142126
0.146715
0.00150554
0.00945147
0.110282
0.00190034
0.00437868
0.138118
0.0463085
0.0537009
0.00185554
0.116106
0.143608
0.0056691
0.053089
0.00241236
0.00169688
0.0109741
0.0452298
0.0702788
0.0969001
0.0146348
0.0305355
0.0938854
0.0034017
0.0135065
0.126944
0.0873967
0.0111217
0.0554071
0.00139905
0.00503257
0.132562
0.00227282
0.00895395
0.0185036
0.116748
0.00238613
0.00110602
0.00382764
0.1076
0.150598
0.0120249
0.0355071
0.13043
0.0907128
0.115301
0.120874
0.028386
0.125952
0.131385
0.0151368
0.00627775
0.00125143
0.0409672
0.00381554
0.00158369
0.106009
0.00356152
0.00347924
0.00136471
0.15702
0.0112476
0.00116827
0.00232074
0.00635575
0.00700394
0.0809286
0.00233384
0.011527
0.00457585
0.143912
0.0162533
0.0127779
0.113908
0.00998935
0.00336914
0.113925
0.00239903
0.00328977
0.115368
0.130189
0.0808329
0.113024
0.0579976
0.145654
0.129436
0.00277357
0.00390478
0.051162
0.00837393
0.19924
0.0204641
0.00138276
0.00151795
0.00146291
0.0270078
0.00165061
0.0775204
0.136887
0.0335411
0.00155211
0.00356943
0.00658547
0.00389962
0.0461112
0.126445
0.114369
0.0543737
0.0347419
0.00266864
0.00317727
0.0306578
0.00272834
0.00136595
0.114627
0.00350872
0.0865482
0.0226058
0.0639521
0.0967589
0.150692
0.0288513
0.0328682
0.00387509
0.00152816
0.140454
0.0139009
0.0268613
0.0194238
0.00382118
0.014331
0.00245981
0.101033
0.00764621
0.00208378
0.00691328
0.00578294
0.116688
0.00648063
0.0023317
0.0020369
0.146978
0.00650789
0.147086
0.0684705
0.0959961
0.0165558
0.00243033
0.00118549
0.115811
0.00236399
0.0168637
0.151593
0.144619
0.0748012
0.157996
0.0188851
0.00225267
0.0018391
0.00746312
0.0983559
0.0803522
0.0182117
0.143716
0.00168428
0.0389884
0.100679
0.0144376
0.00772757
0.0207022
0.00129552
0.0101276
0.00129147
0.041257
0.00397704
0.0042777
0.002759
0.141641
0.0794328
0.0192749
0.0785332
0.00397395
0.00120703
0.0176542
0.00768066
0.00490697
0.0065199
0.0183554
0.0218674
0.0483412
0.135078
0.00567665
0.0265601
0.0334977
0.0198813
0.0220848
0.0293113
0.00196976
0.00484215
0.0602653
0.0410242
0.0189749
0.0395235
0.10864
0.0140368
0.0114278
0.135132
0.00191034
0.0872587
0.0014473
0.105228
0.0678358
0.0522778
0.00147014
0.0348323
0.00151458
0.00336376
0.018774
0.0629046
0.00609555
0.0152764
0.00574895
0.0478655
0.176997
0.0121454
0.137351
0.00143849
0.14011
0.141323
0.124419
0.0361187
0.0312226
0.0427559
0.0119271
0.0136207
0.0653565
0.0414097
0.00384457
0.00282449
0.0298208
0.0163835
0.137517
0.0110109
0.0202225
0.00905745
0.0731997
0.0121129
0.0217219
0.14817
0.147263
0.0739676
0.0426175
0.102967
0.00141394
0.142132
0.00805106
0.0410634
0.00269477
0.00387006
0.0286151
0.0136155
0.0100419
0.00398944
0.00216461
0.0475515
0.0380853
0.0131972
0.0184105
0.08913
0.00433058
0.00122761
0.140387
0.134051
0.00381284
0.016398
0.0205709
0.107158
0.0185619
0.115977
0.0364619
0.0105904
0.0324966
0.0291752
0.127309
0.143754
0.0200894
0.00152588
0.0916784
0.0204043
0.00445064
0.151221
0.13054
0.00144762
0.0107188
0.00773084
0.110337
0.0354761
0.0219707
0.167892
0.113985
0.00825945
0.021958
0.00142995
0.00635295
0.026232
0.00239585
0.0144584
0.00780191
0.127311
0.126124
0.0190389
0.0288028
0.0193805
0.0163229
0.0915124
0.0177116
0.0386992
0.0938253
0.150459
0.038303
0.0945091
0.0376344
0.00801151
0.0107604
0.134851
0.00773848
0.0206652
0.00374109
0.0154876
0.00134235
0.0131758
0.00155737
0.144787
0.00867839
0.0265915
0.122468
0.130317
0.0162226
0.0253976
0.0714902
0.131017
0.00973413
0.00132991
0.0319723
0.115939
0.0662088
0.00461701
0.0150146
0.0254097
0.147049
0.129571
0.0376595
0.0398706
0.0842604
0.0214729
0.00168197
0.0142494
0.00174669
0.144805
0.0378856
0.109366
0.0397387
0.0802111
0.121384
0.0143703
0.03753
0.113163
0.00187497
0.0323491
0.00135712
0.128095
0.0268837
0.0210217
0.00866149
0.0223581
0.00772576
0.0280495
0.011601
0.0208138
0.125674
0.00271722
0.0037943
0.0637833
0.137659
0.0254789
0.108946
0.110833
0.00895001
0.138016
0.00181882
0.00476475
0.00526386
0.0718105
0.139046
0.0373151
0.00948814
0.015959
0.0376923
0.0375107
0.12775
0.0392765
0.103711
0.0648037
0.00141432
0.0629806
0.0799651
0.00407207
0.021081
0.0401484
0.0737508
0.0363923
0.13884
0.0401315
0.00179501
0.132045
0.0248797
0.00247073
0.00679194
0.0125946
0.0286259
0.0301814
0.00192182
0.00638059
0.0373421
0.0207757
0.0477205
0.0523728
0.0270208
0.079834
0.123149
0.00197976
0.120853
0.043547
0.132797
0.0682905
0.0237341
0.1328
0.141745
0.0165921
0.10349
0.051181
0.018636
0.0264661
0.0141884
0.031993
0.129009
0.0290896
0.0107708
0.0353124
0.0189455
0.022903
0.0191884
0.0272007
0.00170243
0.107051
0.00394384
0.010927
0.00436903
0.0218957
0.0137871
0.00917486
0.0417642
0.0120843
0.011474
0.0333583
0.0328275
0.109459
0.111392
0.154674
0.0437313
0.00137859
0.146472
0.00754647
0.0730606
0.0319989
0.0478583
0.00699465
0.0346291
0.0216071
0.0749289
0.0468178
0.0430318
0.136149
0.0394368
0.035437
0.139839
0.0412367
0.0483671
0.129098
0.020761
0.0314368
0.00326951
0.04334
0.00421362
0.0117531
0.0300274
0.10596
0.0176114
0.132365
0.0260133
0.0197724
0.00370764
0.0418207
0.0295575
0.0219061
0.138216
0.0159507
0.0406733
0.00280897
0.129218
0.0573742
0.0049617
0.0376376
0.0389179
0.149793
0.1149
0.146302
0.0203418
0.00344488
0.033201
0.0570614
0.0430928
0.0193703
0.116635
0.0548359
0.044502
0.0374599
0.0486694
0.163817
0.00520096
0.142087
0.00279767
0.160261
0.00324593
0.139456
0.142617
0.00706299
0.0551427
0.0396239
0.0113271
0.0402335
0.0221744
0.128038
0.13263
0.0762219
0.0446608
0.00148813
0.116211
0.0368067
0.0522824
0.0498254
0.0761435
0.0586782
0.00996873
0.0212788
0.0426434
0.0312121
0.0398315
0.153724
0.0623637
0.0144667
0.0814175
0.0639816
0.00747767
0.128771
0.0342872
0.0139647
0.0389234
0.00257128
0.149942
0.0403007
0.169501
0.0208952
0.0230662
0.0683823
0.0027603
0.144908
0.0687685
0.039259
0.143993
0.00322802
0.151947
0.0816554
0.016959
0.0156113
0.0379014
0.147938
0.0286088
0.0215157
0.00162132
0.0730774
0.0295972
0.145351
0.139408
0.0397466
0.00783867
0.00247718
0.0757166
0.124074
0.132379
0.0826346
0.0365868
0.00366245
0.00268052
0.0818394
0.139122
0.121658
0.0378985
0.00472843
0.00272931
0.0570741
0.00658264
0.153425
0.0964752
0.0160253
0.108401
0.0818576
0.0210281
0.00622922
0.00562907
0.0373128
0.045721
0.00517122
0.0167358
0.0463486
0.0296829
0.0058067
0.0800876
0.0659785
0.0348123
0.118378
0.0817413
0.13313
0.150629
0.0227633
0.0342427
0.0481908
0.0130236
0.0128826
0.0824854
0.0370395
0.150131
0.0962536
0.0452231
0.0364425
0.0162483
0.0334304
0.00331403
0.0510987
0.0470773
0.0535962
0.00446364
0.00192457
0.0272984
0.151035
0.0104493
0.0406461
0.0975369
0.105594
0.041958
0.130691
0.12982
0.0564537
0.0530113
0.00657628
0.0529166
0.09441
0.0452032
0.0026496
0.00144027
0.119672
0.0610106
0.0384767
0.0372369
0.00336056
0.0549213
0.00426555
0.0114045
0.100875
0.0531244
0.0013231
0.0762674
0.0631331
0.0341567
0.0433266
0.0803857
0.0625949
0.0787823
0.00988722
0.121152
0.0206005
0.0474099
0.0392388
0.0785884
0.106277
0.0972167
0.0586878
0.0635535
0.118907
0.150368
0.079727
0.0639535
0.0650688
0.0327361
0.0911847
0.0957337
0.0817641
0.0641769
0.0295718
0.114923
0.13787
0.00167578
0.045016
0.00258971
0.0141295
0.132757
0.0565797
0.0159438
0.149839
0.0963823
0.154555
0.0492592
0.0600962
0.0124905
0.0587845
0.11017
0.00647322
0.00365149
0.0175175
0.146901
0.0024924
0.0600457
0.131648
0.0153129
0.150847
0.0804697
0.0028577
0.129569
0.0109349
0.0874902
0.00683075
0.00650497
0.036389
0.100772
0.12979
0.00871223
0.0514846
0.0501065
0.0436861
0.00418535
0.120365
0.00754811
0.0623433
0.00125487
0.0824505
0.107665
0.113614
0.0603054
0.0523945