/*--------------------------------*- C++ -*----------------------------------*\
| =========                 |                                                 |
| \\      /  F ield         | OpenFOAM: The Open Source CFD Toolbox           |
|  \\    /   O peration     | Version:  v2012                                 |
|   \\  /    A nd           | Website:  www.openfoam.com                      |
|    \\/     M anipulation  |                                                 |
\*---------------------------------------------------------------------------*/
FoamFile
{
    version     2.0;
    format      ascii;
    class       volScalarField;
    location    "600";
    object      k;
}
// * * * * * * * * * * * * * * * * * * * * * * * * * * * * * * * * * * * * * //

dimensions      [0 2 -2 0 0 0 0];


internalField   nonuniform List<scalar> 
13851
(
0.000151292
0.0221407
0.000175647
0.000150927
0.000175129
0.00142172
0.00014446
0.00016492
0.000143935
0.00017991
0.000207437
0.0271539
0.000107555
0.0305258
0.000143741
0.000158851
0.000150924
0.000156198
0.000187237
0.000143495
0.000150392
0.000174977
0.00015971
0.000178417
0.000164605
0.00016544
0.000150193
0.00158752
0.000150691
0.000150198
0.00448854
0.000151356
0.000174856
0.00911059
0.000171361
0.000189308
0.000202899
0.00019053
0.000181583
0.00934115
0.000143906
0.000139203
0.00448752
0.000315724
0.000401103
0.0146833
0.00100846
0.0122291
0.000150523
0.000395846
0.000173744
0.000183844
0.00652702
0.000144987
0.00015463
0.000139412
0.000158
0.00924253
0.000149804
0.000144479
0.000190619
0.0118811
0.000172549
0.000177792
0.000381235
0.000154656
0.000217071
0.00182411
0.000158184
0.000156044
0.00906451
0.000211651
0.0240558
0.000145678
0.000141799
0.000148411
0.0001743
0.00892391
0.00016489
0.0101327
0.000145201
0.000816328
0.000143123
0.011532
0.00017403
0.0245546
0.000357398
0.0168701
0.000151566
0.000156413
0.00018922
0.000160603
0.00210876
0.0001538
0.000151332
0.000186097
0.000175645
0.013539
0.000608253
0.000189108
0.0203481
0.000166296
0.000147013
0.000149976
0.00014418
0.000435281
0.000168449
0.000136474
7.0306e-05
0.00200998
0.00019233
0.000157144
0.000162282
0.000210216
0.000187145
0.00294835
0.0131916
0.000136668
0.000172654
0.000161364
0.00435251
0.000149813
0.00026837
0.00298328
0.0139664
0.00016226
0.0139233
0.000165595
0.000150126
0.00018385
0.000143753
0.000140681
0.0102666
0.000143139
0.002734
0.000141873
0.000136819
0.000215523
0.0312523
0.043478
0.0191442
0.000153595
0.000158807
0.000147795
0.00014831
0.000375518
0.0001518
0.000184141
0.000144382
0.000331908
0.000175025
0.000156291
0.0299649
0.000157472
0.000147876
0.000148148
0.000144373
0.000148147
0.000183781
0.000173349
0.000140328
0.000153756
0.00874644
0.000140538
0.000154836
0.000143912
0.000152857
0.000158505
0.000149747
0.0100822
0.00830754
0.000138929
0.000144384
0.0417838
0.000140348
0.0124059
0.000164933
0.000157864
0.000187378
0.000137247
0.000152244
0.000215345
0.000143156
0.000176171
0.000135763
0.000172727
0.000154669
0.000148202
0.000177408
0.000181836
0.00127321
0.00743548
0.000158872
0.000158275
0.0119044
0.000147537
0.000157845
0.00850391
0.000157337
0.000148597
0.000162516
0.0225053
0.000194305
0.000142701
0.000176287
0.000143201
0.0370669
0.000151139
0.0148017
0.000138389
0.00878716
0.000146735
0.00419221
0.000136059
0.000146278
0.000182165
0.000173881
0.0138488
0.000143235
0.0151786
0.000151341
0.000145374
0.0101602
0.000183223
0.0137291
0.000174074
0.000155388
0.000145404
0.00944292
0.000136206
0.000164776
0.0019576
0.000138599
0.000158113
0.000171578
0.000167596
0.0317893
0.000481706
0.00014762
0.00014275
0.00331628
0.00864056
0.000144733
0.000177905
0.000142534
0.0162569
0.000166788
0.00623833
0.00014831
0.000152114
0.00016931
0.00937326
0.000145208
0.000148464
0.000166962
0.0063634
0.000180547
0.000216512
0.00444877
0.000143694
0.000146494
0.000155001
0.0132891
0.000154224
0.000141444
0.000147497
0.000145099
0.000153345
0.00792335
0.000166974
0.000168122
0.000147857
0.0144655
0.000163848
0.000158315
0.000140841
0.000923465
0.00017081
0.0117523
0.000199415
0.000144572
0.000137348
0.000144311
0.000166052
0.0131073
0.0116493
0.000146011
0.000143825
0.0144
0.000438415
0.000185799
0.000149243
0.000144488
0.000159655
0.000476038
0.000174617
0.000154042
0.0247452
0.000141163
0.0154825
0.000153425
0.00015076
0.0107964
0.000144693
0.000562172
0.0137118
0.00014548
0.000163025
0.000153923
0.000148846
0.0333687
0.000154294
0.000145018
0.0118228
0.000140507
0.000152417
0.000164836
0.00817222
0.000183152
0.000143231
0.000166949
0.000143434
0.00695955
0.000180663
0.000163816
0.000147177
0.000182606
0.000154872
0.00014775
0.000143853
0.000144573
0.000144892
0.000232549
0.02895
0.0105051
0.000159756
0.00773395
0.00834853
0.000143465
0.000158715
0.000186014
0.000177818
0.000175895
0.000181706
0.000187627
0.000159589
0.0109979
0.0143347
0.000143893
0.000182179
0.000182025
0.000149608
0.000147746
0.000181581
0.00979397
0.000144723
0.0105644
0.000147219
0.000143506
0.000141271
0.000136551
0.00014338
0.012739
0.00550445
0.000143175
0.000162282
0.000142275
0.0262444
0.000163197
0.00948928
0.010221
0.00014325
0.000175989
0.000154035
0.00967795
0.000143468
0.000136885
0.000165488
0.0203748
0.000144908
0.0361184
0.000166276
0.000182892
0.0107265
0.000196364
0.00019786
0.000164252
0.000140932
0.000148122
0.000158418
0.000166702
0.0328253
0.000158519
0.0111628
0.0137105
0.000142552
0.000143731
0.010433
0.010774
0.00112675
0.0127961
0.000164851
0.00015458
0.00018973
0.00513597
0.000141548
0.000158334
0.000163252
0.000144101
0.000145127
0.000145224
0.000143675
0.000177204
0.000172422
0.00838779
0.000156883
0.000168062
0.000168597
0.00952903
0.000153255
0.00015002
0.00015039
0.00017981
0.00013665
0.000144733
0.000181154
0.000190398
0.00464616
0.000182844
0.000167494
0.00724424
0.00965994
0.000271424
0.00016387
0.00017201
0.000143301
0.00979135
0.000143911
0.00193999
0.00818812
0.000173883
0.0134406
0.000158414
0.000169294
0.00726923
0.0226966
0.000135208
0.000155673
0.000165445
0.000168363
0.000140036
0.000144965
0.000173894
0.000182821
0.000160872
0.0352006
0.000174391
0.00014758
0.00721737
0.000155721
0.000136847
0.0229803
0.00014085
0.000151327
0.000141068
0.00016515
0.000147405
0.000137741
0.000158109
0.010558
0.000143168
0.00015975
0.000140981
0.00016279
0.000173745
0.000211682
0.000144558
0.000212176
0.000214901
0.0136558
0.000145017
0.000561204
0.000143166
0.000179656
0.0225515
0.0128028
0.000143313
0.00016391
0.000153374
0.00830156
0.0120947
0.000147522
0.00566687
0.000143524
0.000175256
0.000144203
0.01098
0.000137426
0.00624927
0.000181082
0.000139475
0.00016264
0.0120577
0.000165507
0.00392577
0.000165608
0.0116636
0.000158061
0.000139991
0.000141215
0.00014422
0.0131412
0.00017159
0.000183909
0.000204211
0.000173869
0.000141209
0.00451077
0.00586061
0.000152399
0.000153937
0.00613345
0.00675578
0.00573555
0.000150329
0.0114658
0.0143381
0.0215373
0.000155108
0.00016392
0.00470943
0.000170223
0.00520991
0.00685811
0.00748295
0.000148513
0.00807311
0.000115164
0.000136766
0.000169886
0.000172102
0.0105653
0.000148637
0.000142584
0.00014405
0.000143017
0.000176948
0.000164836
0.0144831
0.0333175
0.000141012
0.00639181
0.0127283
0.00286407
0.00609719
0.000159366
0.000135859
0.000144477
0.000156905
0.0062701
0.000148069
0.000177992
0.00018864
0.000139163
0.000172802
0.0108546
0.000191071
0.000181349
0.0135482
0.000117419
0.000143696
0.000144165
0.0247568
0.0140459
0.000183911
0.00015837
0.00017678
0.000137085
0.000142175
0.00303675
0.000138364
0.000148483
0.000136955
0.000140523
0.000111085
0.000176956
0.000163533
0.000138165
0.0376524
0.0086767
0.000141271
0.000152927
0.000154637
0.000147563
0.0190868
0.00580915
0.00465476
0.0211396
0.0110322
0.000157328
0.00885643
0.0135158
0.00016002
0.000158501
0.000135772
0.00016468
0.000159543
0.00789145
0.0122942
0.00017758
0.00015489
0.00014268
0.000158809
0.000159466
0.00403465
0.000173626
0.000143131
0.000160296
0.000139844
0.000153115
0.000183215
0.000144367
0.000143244
0.000163155
0.000144117
0.000175482
0.000190438
0.00018246
0.000159334
0.000184673
0.000142246
0.00031288
0.000171829
0.0194771
0.000146477
0.000184541
7.11647e-05
0.000149571
0.0114716
0.0154307
0.0126138
0.0238864
0.000141145
0.000211211
0.000145347
0.000140666
0.000137275
0.000140682
0.000148914
0.000157787
0.000163803
0.000137523
0.00977116
0.000182233
0.0106351
0.000143813
0.000137558
0.000152012
0.000185459
0.0121667
0.000167576
0.000153369
0.000145825
0.000182359
0.000152165
0.000145299
0.000194349
0.0359475
0.000144025
0.000137258
0.000144283
0.000145134
0.000266843
0.00785901
0.000159134
0.0131982
0.0109952
0.000143093
0.000183553
0.0223497
0.000159322
0.026321
0.000145122
0.000155208
0.000167152
0.000155744
0.00538654
0.000143269
0.0046175
0.000144306
0.000156075
0.0147051
0.000150465
0.000148543
0.000173152
0.00014024
0.000151694
0.0145809
0.0393066
0.000173074
0.000161374
0.000205578
0.000136385
0.000143453
0.0216082
0.00018837
0.0001696
0.0146582
0.000145072
0.000160009
0.00013696
0.0115073
0.000214396
0.000152233
0.000146842
0.000174647
0.000150357
0.000151691
0.00642367
0.00932661
0.0142479
0.000140182
0.000144004
0.00892449
0.0048242
0.000187164
0.00015843
8.28212e-05
0.000143194
0.000177425
0.000184798
0.000174984
0.000151137
0.0125649
0.000166752
0.000161992
0.00020177
0.000182013
0.000190818
0.000147728
0.000141999
0.00716406
0.000157561
0.000181776
0.000162587
0.000172237
0.000142967
0.0146183
0.000169151
0.000166066
0.000138532
0.000142898
0.000145348
0.014014
0.000143668
0.000137542
0.0155537
0.000144247
0.0107449
0.000146635
0.000158764
0.00017321
0.000458931
0.00507502
0.000142671
0.0116524
0.0131006
0.000145129
0.0089526
0.000155854
0.000141412
0.000212013
0.00517152
0.00818985
0.000152398
0.000142172
0.000136719
0.00724914
0.00017721
0.000174128
0.000153524
0.000207173
0.000148373
0.000158582
0.000177979
0.00627196
0.000176932
0.01221
0.000143927
0.000175568
0.000176261
0.00617232
0.000152085
0.0373313
0.00020388
0.000144318
0.0160102
0.000240984
0.012298
0.0394645
0.0136654
0.0012134
0.000163212
0.00014162
0.000157971
0.00998152
0.0130248
0.000147541
0.00018159
0.00017217
0.000203763
0.0001395
0.00627761
0.000144412
0.000143191
0.00755951
0.00881261
0.000215584
0.000140661
0.000143594
0.00563841
0.00019358
0.00018269
0.000155926
0.0117222
0.00018873
0.0120742
0.000168042
0.000161846
0.000145049
0.000144187
0.0247488
0.000166243
0.0104665
0.000174954
0.000158171
0.00770743
0.0123563
0.0115499
0.000143543
0.000156307
0.000141145
0.000159696
0.000148443
0.0311426
0.000161299
0.0174655
0.000139176
0.00017271
0.00014248
0.000188155
0.000157755
0.000155999
0.0133351
0.000163127
0.000166767
0.000184347
0.000172682
0.0113981
0.000180111
0.000148665
0.00845043
0.000153224
0.0412985
0.00379895
0.000144202
0.0106964
0.0208745
0.0114305
0.000937609
0.000169787
0.000146686
0.0137604
0.000161902
0.00694455
0.0150513
0.000143517
0.000147825
0.000189694
0.00718674
0.0342461
0.000143853
0.000145789
0.028979
0.014722
0.000181636
0.000151828
0.000154322
0.00382824
0.00985429
0.000176833
0.000137649
0.000163384
0.000140219
0.000178258
0.000186669
0.000193051
0.00231178
0.00987247
0.000143237
0.000159064
0.000146929
0.000147804
0.00902875
0.0115672
0.000155338
0.0382023
0.000142414
0.000155392
0.000146545
0.00014035
0.00014418
0.000143181
0.011608
0.000143311
0.000167106
0.000143543
0.000152555
0.000189421
0.00447523
0.000167706
0.0248238
0.000175498
0.000207541
0.000157948
0.000157991
0.00941255
0.000153125
0.000165879
0.0308134
0.0118642
0.00702449
0.000162068
0.000253103
0.000146171
0.000162254
0.000166794
0.0348274
0.000150511
0.0372215
0.000143334
0.000143902
0.0330301
0.000162374
0.000154945
0.000151502
0.000141359
0.000170915
0.000141311
0.000143631
0.000147121
0.000144938
0.000195403
0.00014361
0.00019314
0.00944095
0.000173875
0.0370391
0.00014411
0.000178071
0.000166733
0.000143129
0.000140974
0.00017547
0.000145576
0.000146325
0.000146875
0.000170588
0.0106304
0.0376942
0.000174093
0.0132668
0.000195256
0.000142176
0.013841
0.000154729
0.000143289
0.0060961
0.000770942
0.0109562
0.000142212
0.000688608
0.00717356
0.0116716
0.000138263
0.000167906
0.000156892
0.000149949
0.000147701
0.000144655
0.0142041
0.000186387
0.0124341
0.000149788
0.00014295
0.0151538
0.00014426
0.000354247
0.00234034
0.02136
0.000195766
0.00656926
0.000178639
0.00014314
0.000176502
0.000163726
0.000149946
0.000186056
0.000162926
0.000145729
0.000154298
0.044276
0.000146799
0.0101733
0.000200304
0.00724948
0.000189966
0.000149493
0.000150078
0.000146502
0.00170544
0.00917335
0.000138372
0.000211
0.000149642
0.000174915
0.000141464
0.000149037
0.0001455
0.000157665
0.000210062
0.000166555
0.00015975
0.000146033
0.000167299
0.000641556
0.000146793
0.0161715
0.00132473
0.000175796
0.000144945
0.000163596
0.000142565
0.000164012
0.00014623
0.00894672
0.000183012
0.00391022
0.000150041
0.000176061
0.000142799
0.000144438
0.000144982
0.0144415
0.0156476
0.000140089
0.000157391
0.000174457
0.0134334
0.000213975
0.0225997
0.000149046
0.0387504
0.000176394
0.00463658
0.000178257
0.000175455
0.000189607
0.0133477
0.00630326
0.0236965
0.000157801
0.000190544
0.000141155
0.00014881
0.000152527
0.000144103
0.0134815
0.000155722
0.000153751
0.00197362
0.000187455
0.0136603
0.000143329
0.000149368
0.000152818
0.000151446
0.000159193
0.0263326
0.00824246
0.0200826
0.000141292
0.000153206
0.000156364
0.00905475
0.0112808
0.000176704
0.000149937
0.000145333
0.0118412
0.000164868
0.0075114
0.00951894
0.000615763
0.000144622
0.00016588
0.00015879
0.000163468
0.000154571
0.0093676
0.00165032
0.000182767
0.000267047
0.000147132
0.000161671
0.000143216
0.00680754
0.000170284
0.0128737
0.000176131
0.000152361
0.000185846
0.000147364
0.00812023
0.000194404
0.000147291
0.000218301
0.0150964
0.00028301
8.66469e-05
0.000146002
0.000143234
0.00905909
0.000632486
0.0104474
0.000153932
0.000144227
0.000143237
0.01081
0.000186473
0.000144847
0.00143828
0.000178079
0.0208801
0.000174286
0.0114079
0.0001436
8.68415e-05
0.000150804
0.000144553
0.000185309
0.0123492
0.00014446
0.0001436
0.0036952
0.0076364
0.000160777
0.000141229
0.0393468
0.000147231
0.000157371
0.000141278
0.0115639
0.000143275
0.000167458
0.0205678
0.0102659
0.00014701
0.00564938
0.0099092
0.00986239
0.000152274
0.0391046
0.000464089
0.00014233
0.000758342
0.000212294
0.00014342
0.000151272
0.0111136
0.000143045
0.000200055
0.000143715
0.000162379
0.008669
0.000173256
0.00122711
0.000147585
0.000169886
0.000141016
0.000157406
0.000218068
0.0222368
0.000141469
0.000172095
0.00594904
0.000144949
0.000145299
0.0143462
0.000158556
0.000160229
0.000183652
0.0459281
0.0155404
0.000219621
8.95262e-05
0.000644083
0.000184823
0.00769343
0.019951
0.000172058
0.000138905
0.000183432
0.000142306
0.000142662
0.0419264
0.0145607
0.000148662
0.0343192
0.000312042
0.0100707
0.0020923
0.000686428
0.000143018
0.000470812
0.000249318
0.000158521
0.000147258
0.0122511
0.0142129
0.0224933
0.00511049
0.000163093
0.0180921
0.011698
0.00015703
0.000146752
0.000143583
0.000596211
0.000142024
0.000194557
0.000152097
0.000145864
0.000149056
0.000799423
0.00569152
0.0155768
0.000147161
0.000157192
0.000151533
0.000156644
0.000141558
0.000148109
0.00900418
0.0001537
0.013808
0.025291
0.000997583
0.000181987
0.000144122
0.00016373
0.00014436
0.000186279
0.000157176
0.000147428
0.000146842
0.000155049
0.000186947
0.000146093
0.000159496
0.000159041
0.000160003
0.000190098
0.00932829
0.000144373
0.000165348
0.000145577
0.000186789
0.000162737
0.00809844
0.000191757
0.000156829
0.000149645
0.000150538
0.00290213
0.000143399
0.000172514
0.000143731
0.000150005
0.000157702
0.0130835
0.000153284
0.000153774
0.000162006
0.000155351
0.000171874
0.0130005
0.000127414
0.000159361
0.000143246
0.000201349
0.000139325
0.000149121
0.000189311
0.017339
0.000146672
0.000157541
0.000191631
0.000146373
0.000145054
0.000145776
0.0171069
0.000147128
0.000287111
0.00019587
0.00275521
0.000143393
0.000164187
0.000142673
0.0142891
0.000184793
0.00016296
0.000182285
0.0163146
0.000147047
0.00195237
0.00942578
0.000145934
0.00075324
0.000175866
0.000150824
0.00958073
0.000143901
0.000147617
0.000143151
0.000187022
0.00155079
0.000187691
0.000147453
0.000147016
0.000155836
0.00622169
0.000199415
0.00531727
0.00638029
0.000145843
0.000184968
0.000183983
0.00812365
0.000175825
0.000228133
0.000142098
0.000162857
0.000144869
0.00935606
0.000162253
0.000142647
0.0427111
0.000190374
0.000157684
0.000172196
0.000138424
0.000154356
0.000169735
0.000159128
0.0158542
0.000172082
0.000173056
0.000173181
0.000181855
0.015559
0.000187062
0.00650315
0.000144702
0.000145531
0.000192804
0.0177907
0.00742018
0.00160306
0.000174174
0.00835843
0.00638469
0.000150612
0.000152705
0.000140647
0.000162281
0.000173135
0.000166221
0.00728993
0.000198724
0.000147406
0.0120925
0.00799256
0.000143591
0.000186937
0.0297592
0.007584
0.000149689
0.000174581
0.000136046
0.0001571
0.000158207
0.000151649
0.00960241
0.012224
0.00744618
0.0114838
0.000147647
0.000159945
0.000170609
0.000149928
0.000149097
0.000144296
0.00646183
0.000141981
0.00466687
0.000161845
0.000170809
0.000185471
0.000194702
0.00951224
0.000137791
0.000161869
0.000143059
0.000165848
0.000166799
0.000196926
0.000150991
0.000140497
0.000141061
0.000171712
0.000156361
0.000186119
0.0142881
0.000147711
0.000143783
0.000183549
0.00018671
0.00887055
0.0166608
0.00014133
0.00017361
0.000145664
0.0127526
0.000146492
0.0177316
0.000158209
0.000147522
0.000160112
0.000147366
0.00017618
0.000155732
0.000164898
0.0108794
0.0141388
0.000151517
0.000155841
0.000142902
0.000153624
0.0122024
0.000155938
0.000147502
0.00568292
0.000136348
0.0137902
0.000145192
0.000161528
0.000174072
0.0131044
0.000163419
0.000150924
0.00014441
0.000173454
0.0109825
0.000142359
0.00947274
0.0317254
0.0154866
0.000189999
0.000159652
0.0104749
0.000151907
0.000186192
0.000142804
0.00629437
0.00626615
0.00841682
0.0106152
0.0234462
0.000163635
0.000861785
0.000143864
0.00793557
0.00519492
0.0132081
0.0102023
0.000153603
0.0125818
0.00411565
0.00016066
0.000147844
0.000144304
0.0141969
0.000152027
0.00017327
0.000211062
0.000145186
0.000140219
0.000143945
0.0129336
0.00019434
0.000157137
0.0125073
0.000153969
0.00016153
0.000142948
0.000146186
0.000160305
0.0178718
0.000195933
0.000152024
0.000176495
0.0144189
0.000175855
0.000163818
0.00533023
0.000156472
0.00931106
0.000155992
0.00015747
0.000142843
0.000212111
0.000173074
0.00616728
0.00511091
0.015442
0.000173769
0.033609
0.000162156
0.000150446
0.000164619
0.00842483
0.018576
0.00863852
0.00107797
0.000149224
0.000143276
0.00014306
0.000143704
0.000144528
0.00621929
0.000155494
0.00691239
0.00015839
0.0117604
0.00229055
0.0153248
0.000225274
0.000152302
0.0105559
0.000163388
0.0163398
0.015654
0.000139879
0.00158671
0.000153502
0.0204566
0.00629391
0.000160307
0.00192144
0.0072212
0.000174466
0.000172666
0.000160259
0.0169813
0.0065264
0.000149825
0.000144354
0.00532604
0.000188774
0.000183354
0.00718362
0.000183348
0.000160903
0.000146648
0.00897931
0.0171165
0.000176841
0.000156367
0.0127961
0.0312925
0.000143989
0.000143455
0.000150189
0.0117403
0.0113402
0.000143144
0.0108188
0.000145965
0.000143852
0.000144482
0.0128591
0.000185893
0.000243756
0.00709503
0.000148174
0.000147329
0.000142106
0.00799739
0.000151119
0.0319209
0.000152288
0.021435
0.000145239
0.000142342
0.000182753
0.00588624
0.00628515
0.000160606
0.00661517
0.000143419
0.00014372
0.000143495
0.00016409
0.000171541
0.000171529
0.000162821
0.00308197
0.000150479
0.000183139
0.000491887
0.012976
0.00015001
0.0131963
0.0156843
0.000151482
0.00339207
0.000172132
0.0172128
0.000144079
0.000175529
0.000150141
0.0170446
0.00860711
0.000187359
0.00988541
0.000149543
0.000165854
0.000147141
0.011219
0.000144772
0.000140572
0.0100718
0.000179382
0.0180951
0.000215684
0.000171787
0.000154829
0.000142931
0.0198462
0.000159658
0.00015858
0.000186982
0.000146455
0.000163179
0.000143254
0.015356
0.000155195
0.000500389
0.00301819
0.000160612
0.000900452
0.000170341
0.0121961
0.000144853
0.0183221
0.0424843
0.00014053
0.000143166
0.000147636
0.000145339
0.000161802
0.000144634
0.0084805
0.000174823
0.000177727
0.000216543
0.000145398
0.000145156
0.000145531
0.000100584
0.000143798
0.000143609
0.000194004
0.000150049
0.0212991
0.00847705
0.000177684
0.000152809
0.000158847
0.000147185
0.000145906
0.000181235
0.000148826
0.000150201
0.00711313
0.0171541
0.000206864
0.000147063
0.00831604
0.0129916
0.000145463
0.000174762
0.00625082
0.000143232
0.000149383
0.000143051
0.000102864
0.0151295
0.012234
0.000148654
0.000149861
0.000155364
0.000144314
0.000183413
0.000144724
0.000887496
0.00533118
0.00607609
0.000140338
0.000149942
0.000149514
0.0178477
0.000138238
0.0137343
0.0085522
0.00402058
0.0110772
0.0107248
0.00904372
0.000152761
0.0111414
0.010748
0.000147175
0.000142321
0.000141538
0.00964522
0.00726856
0.00949543
0.000158908
0.00985364
0.000144007
0.000186318
0.000151571
0.000148299
0.00014689
0.000140087
0.0167189
0.000147464
0.0355203
0.0312106
0.0130305
0.000165687
0.000167302
0.0143547
0.0110756
0.000153608
0.00522536
0.000145054
0.000136984
0.000142902
0.00017432
0.000154586
0.0110196
0.000159321
0.000534479
0.000163446
0.0079354
0.0121535
0.000191914
0.000139635
0.000171038
0.000176302
0.0158752
0.000150571
0.000136504
0.000156469
0.0481884
0.000148129
0.000499567
0.0100167
0.000162315
0.000170856
0.000150041
0.00349366
0.000144911
0.0179619
0.000137558
0.00596389
0.000156702
0.000143822
0.0105603
0.0116211
0.000140217
0.000172333
0.00015056
0.00871238
0.000212094
0.000207038
0.000425321
0.00014487
0.000171336
0.0129499
0.000158377
0.000173703
0.000155341
0.000175081
0.000157419
0.00941113
0.0119319
0.000143857
0.0132893
0.000146869
0.00016362
0.0102053
0.00964376
0.000161873
0.0132655
0.000188041
0.000144421
0.000759188
0.000184161
0.000156381
0.000147235
0.011476
0.000140959
0.0152867
0.000260329
0.000181661
0.000143276
0.00015911
0.0128958
0.000163923
0.0119853
0.000145979
0.000149503
0.00017078
0.00991108
0.000152558
0.0121269
0.00648664
0.0115977
0.000144796
0.00834898
0.000616597
0.0184923
0.00014349
0.000164773
0.000146221
0.0119861
0.000176476
0.00474951
0.00209755
0.000144957
0.000151046
0.00014332
0.0176109
0.000217492
0.0213209
0.0126381
0.000141875
0.012115
0.00710388
0.000184187
0.00764221
0.0134135
0.000161606
0.0145533
0.000149093
0.00015218
0.000106122
0.000951529
0.000160835
0.0317155
0.000146522
0.000143367
0.027414
0.0120186
0.00153245
0.00800665
0.00015738
0.000144986
0.000160143
0.00347153
0.0109146
0.000142364
0.000164825
0.00342995
0.000143563
0.000143798
0.00341395
0.0271934
0.000147955
0.000143717
0.000146917
0.000147451
0.015643
0.000145241
0.000150749
0.000152183
0.000198319
0.0297983
0.00357832
0.0121503
0.000143893
0.000150997
0.0144139
0.00857726
0.000155399
0.000550382
0.000143158
0.000159595
0.000150833
0.000162105
0.000173429
0.000149665
0.0131121
0.000159263
0.000147443
0.000150454
0.00107548
0.0405272
0.0113182
0.000143611
0.00017183
0.00787611
0.0108485
0.000150124
0.00015002
0.000143999
0.000185193
0.000143873
0.000159769
0.000154276
0.000143108
0.0146593
0.0015957
0.000144777
0.000150059
0.000147196
0.000144544
0.0313961
0.0125548
0.000173156
0.00836005
0.000178352
0.000145252
0.000143049
0.000143782
0.000145848
0.000144719
0.000170773
0.000177987
0.0112159
0.000153697
0.000180828
0.011361
0.000295642
0.000143372
0.000140663
0.00014937
0.0148225
0.00014544
0.000175518
0.000200439
0.000170317
0.000161255
0.00813906
0.000147557
0.00108304
0.000140785
0.000147967
0.000148172
0.0001498
0.000168074
0.000501131
0.00056501
0.000161498
0.0027885
0.00279234
0.0123519
0.000157045
0.012161
0.00831352
0.000180721
0.0109002
0.00362244
0.000181598
0.00312742
0.000145257
0.000154968
0.0274608
0.000142933
0.000150233
0.0386619
0.000224201
0.0256617
0.00019301
0.000144064
0.00016597
0.000143694
0.000621987
0.000151369
0.000177504
0.0201593
0.00767033
0.00723019
0.000143726
0.000142915
0.000173736
0.0365989
0.014898
0.000182507
0.000210803
0.000141663
0.000216897
0.014851
0.00356746
0.000149777
0.000143842
0.000143092
0.000149097
0.000145134
0.000145143
0.000149871
0.0142364
0.000174742
0.0134555
0.00609569
0.000141695
0.000189418
0.000142776
0.000152601
0.000158274
0.000142496
0.000145116
0.0123393
0.00696505
0.0113563
0.0106924
0.000149398
0.0132797
0.000184949
0.0114678
0.0159467
0.000144349
0.0001489
0.000271847
0.000143807
0.000140745
0.00381038
0.0147736
0.000217287
0.000143307
0.000143785
0.000161361
0.000161502
0.00158041
0.000145263
0.000151772
0.000205058
0.000141393
0.00910953
0.000161301
0.0379519
0.000144958
0.000197749
0.0368202
0.000161006
0.00326337
0.000181065
0.0141166
0.000147364
0.000151479
0.000143468
0.000156193
0.0143784
0.000164665
0.00774957
0.000157232
0.000150828
0.000143796
0.0128465
0.000163684
0.00018101
0.00903504
0.000141538
0.00016637
0.0103696
0.000170698
0.000155474
0.000153369
0.000143969
0.000170003
0.000149445
0.000148931
0.0140197
0.00470033
0.0130771
0.000196047
0.000196486
0.0127538
0.000173613
0.00993346
0.000183287
0.000146051
0.000150756
0.000136551
0.000144858
0.00370112
0.00485761
0.000152829
0.0066163
0.016757
0.000155423
0.000153667
0.000165436
0.0115908
0.0032177
0.0144565
0.00240427
0.0149999
0.000136517
0.000194673
0.000179591
0.000645058
9.30424e-05
0.000143087
0.000184235
0.0113869
0.000158977
0.0351453
0.000145682
0.000182648
0.012123
0.0171973
0.000174686
0.000157231
0.00875313
0.000184557
0.017817
0.0159342
0.0145443
0.000181476
0.00466247
0.000143856
0.000156712
0.000164863
0.0113988
0.00343645
0.0141114
0.000166889
0.000182244
0.000177123
0.000181595
0.00381034
0.000143216
0.000184003
0.010713
0.000143297
0.0287026
0.0122301
0.0174998
0.0090857
0.000140191
0.00875037
0.000146321
0.00390894
0.000157021
0.000155866
0.000162419
0.000149705
0.0160234
0.000150107
0.00017033
0.000150062
0.000149345
0.00516841
0.000147788
0.000182129
0.000600209
0.000139893
0.0144544
0.000179557
0.00015462
0.0102416
0.000194471
0.000143275
0.00310289
0.000145891
0.0164384
0.00865024
0.000153335
0.000182786
0.000147922
0.0041837
0.0151788
0.00017372
0.0102475
0.00015548
0.000144029
0.037306
0.000150277
0.00014653
0.000213543
0.000162117
0.000141391
0.000147103
0.00018403
0.000147519
0.0105823
0.000195158
0.000200037
0.0163216
0.000167572
0.000171799
0.000146788
0.00440415
0.00929373
0.0196489
0.000143512
0.000150792
0.000173744
0.000156992
0.00925977
0.000146607
0.00210965
0.000148939
0.000205382
0.000157044
0.000239185
0.000188484
0.00018179
0.0146021
0.0216947
0.00693051
0.0146374
0.000137082
0.000209014
0.000212761
0.0107812
0.000150936
0.000190485
0.00897561
0.0111347
0.000182266
0.000188814
0.0131775
0.00492801
0.000164328
0.000193655
0.000139938
0.000165136
0.000162973
0.00014303
0.000173239
0.0173488
0.00226364
0.0121442
0.000218146
0.00014231
0.000143343
0.000165143
0.000143057
0.00707961
0.000145514
0.000144545
0.00649217
0.000193638
0.000161067
0.000179643
0.000183495
0.000178323
0.00833138
0.0157857
0.00895664
0.000152078
0.0155454
0.000152165
0.000141394
0.000149128
0.0128151
0.000196412
0.000193803
0.000193821
0.000146774
0.000145984
0.000143048
0.000145349
0.000153024
0.0211417
0.000215103
0.000155116
0.00390263
0.0104353
0.010786
0.0194615
0.000143483
0.000155777
0.000544693
0.000143467
0.000164699
0.000153294
0.000149991
0.0116832
0.0159061
0.00014598
0.000161687
0.000155867
0.000174226
0.0195282
0.0252742
0.00630822
0.00014854
0.000176511
0.0101681
0.00017607
0.00018258
0.00784947
0.0112385
0.00186629
0.0115914
0.000144187
0.00322277
0.000151989
0.000150313
0.000143064
0.000170805
0.00220027
0.0083364
0.00279235
0.0100637
0.00016954
0.000139805
0.000140594
0.000143792
0.000168275
0.000163522
0.00679826
0.0152055
0.000175275
0.0152368
0.000145022
0.000169566
0.000140374
0.0176447
0.000182762
0.000148131
0.000185783
0.000179652
0.0119933
0.013436
0.000184077
0.00509804
0.000150981
0.0204575
0.000193428
0.00010843
0.00467179
0.000151817
0.000169579
0.000143654
0.00620518
0.00784727
0.000162262
0.0314064
0.000192382
0.031185
0.000172952
0.000191866
0.000166868
0.000141042
0.000183341
0.00017253
0.000150276
0.000169652
0.000156781
0.000158229
0.0110769
0.000187229
0.000148439
0.000156713
0.000159995
0.000158632
0.000154635
0.0251957
0.00018118
0.00111377
0.00995149
0.000143288
0.0155349
0.000143898
0.000151965
0.000148893
0.0153498
0.000162468
0.0184002
0.0218444
0.000170923
0.000169723
0.000182483
0.0365157
0.000185091
0.0119362
0.000183446
0.000164345
0.00015453
0.0169235
0.0102678
0.000187508
0.000173066
0.000162157
0.00015242
0.000150395
0.000165949
0.000161671
0.000144125
0.000160342
0.0155725
0.0233362
0.000186551
0.000162356
0.000141049
0.037682
0.000157461
0.00017165
0.0150419
0.00016333
0.0198462
0.000141555
0.000163973
0.00015229
0.000159949
0.000142735
0.0163626
0.000300786
0.000815725
0.000162678
0.00409478
0.000194203
0.000152174
0.0351509
0.000172073
0.000193135
0.00922812
0.000169265
0.000149993
0.000162125
0.000172992
0.000155789
0.000205913
0.0137447
0.0061848
0.000141104
0.000195233
0.000190637
0.00561169
0.00014274
0.000163819
0.000150647
0.000156956
0.00498877
0.000155811
0.000155338
0.000141524
0.000140954
0.000494197
0.0126634
0.000145414
0.00458149
0.000192232
0.000140332
0.000162898
0.0169514
0.000181834
0.000179716
0.000143255
0.000153607
0.000183634
0.000179124
0.0001441
0.023574
0.000155507
0.0162762
0.000176452
0.000152641
0.00170892
0.000182859
0.000186044
0.000141594
0.00988513
0.000155904
0.000153064
0.0300451
0.000161919
0.000144765
0.000177884
0.000150714
0.000156995
0.000146641
0.019663
0.00014315
0.000178628
0.00046252
0.000179563
0.000149484
0.000189646
0.000156416
0.0200289
0.000188783
0.0133163
0.00018141
0.0168907
0.000140227
0.000174619
0.000151967
0.000142165
0.00896677
0.00389875
0.000151507
0.00811232
0.000162846
0.000173648
0.0135163
0.000152489
0.00699901
0.0154329
0.0302862
0.0412398
0.000204415
0.000166122
0.000143921
0.000179881
0.000161489
0.0122888
0.020829
0.017424
0.0220382
0.0137011
0.000140743
0.00816945
0.000143515
0.000147298
0.000143969
0.0104697
0.000188596
0.00018388
0.000143144