/*--------------------------------*- C++ -*----------------------------------*\
| =========                 |                                                 |
| \\      /  F ield         | OpenFOAM: The Open Source CFD Toolbox           |
|  \\    /   O peration     | Version:  v2012                                 |
|   \\  /    A nd           | Website:  www.openfoam.com                      |
|    \\/     M anipulation  |                                                 |
\*---------------------------------------------------------------------------*/
FoamFile
{
    version     2.0;
    format      ascii;
    class       volScalarField;
    location    "450";
    object      k;
}
// * * * * * * * * * * * * * * * * * * * * * * * * * * * * * * * * * * * * * //

dimensions      [0 2 -2 0 0 0 0];


internalField   nonuniform List<scalar> 
13851
(
0.000213258
0.000154069
0.000153896
0.0193631
0.000148444
0.000157057
0.000153917
0.000147442
0.0344652
0.000148385
0.000177455
0.000148472
0.000148948
0.0279187
0.000170499
0.000213553
0.0215357
0.0001479
0.000272809
0.000213217
0.000174218
0.00015593
0.0430609
0.000149734
0.042197
0.000189286
0.000256905
0.000330001
0.0217334
0.000146457
0.0506283
0.000153931
0.000212751
0.0350674
0.000169983
0.0197065
0.000149811
0.0645186
0.092362
0.000148679
0.0712965
0.0191264
0.00741153
0.000234416
0.0171963
0.000147521
0.000145214
0.000212762
0.000152223
0.00014891
0.0397499
0.000149202
0.000213583
0.000164001
0.022449
0.00014868
0.000213382
0.0740375
0.000253558
0.0380572
0.000148523
0.00025083
0.000148607
0.000152528
0.000183195
0.000184046
0.0322121
0.000166716
0.000148832
0.0289235
0.0495658
0.000179386
0.000148418
0.0339819
0.000165968
0.000152527
0.0283967
0.000145632
0.0282356
0.000147715
0.000148885
0.000306395
0.00016945
0.0308745
0.0383603
0.0508385
0.000156215
0.0142948
0.000148326
0.0497272
0.000149322
0.000154157
0.0156422
0.0463378
0.0880188
0.000204012
0.000147711
0.00021497
0.0411186
0.000201801
0.000216458
0.000162134
0.000163067
0.000148683
0.000147452
0.00017733
0.000147458
0.0515695
0.00015414
0.000147765
0.000159475
0.000147516
0.000216104
0.000181105
0.000212185
0.00016301
0.000146393
0.000146963
0.0166861
0.0320945
0.000191824
0.00014711
0.000148783
0.0535905
0.000249244
0.000172975
0.000147696
0.000171336
0.0572729
0.000178198
0.000155842
0.000163034
0.0382884
0.036174
0.000178355
0.0870122
0.000166289
0.0500994
0.000160131
0.000178042
0.000287385
0.000150378
0.000148346
0.000171784
0.0289084
0.000152061
0.000145567
0.0463823
0.0281139
0.000171971
0.000216236
0.000213676
0.00018254
0.000249866
0.000149488
0.000148637
0.000148617
0.0879124
0.000175481
0.000152779
0.000149584
0.021047
0.000176965
0.000212836
0.0283374
0.0249531
0.0244458
0.0462717
0.000159285
0.0412327
0.00014863
0.000146405
0.000182016
0.000148829
0.0919743
0.000258589
0.000220152
0.000146312
0.000165906
0.000219076
0.000247386
0.000233247
0.000158834
0.00017791
0.00956448
0.0280091
0.000212756
0.000157398
0.000149278
0.000146949
0.0107378
0.000175411
0.0226684
0.000157278
0.000151795
0.000214272
0.000211526
0.00014872
0.000149025
0.000167266
0.000290557
0.0905587
0.0777912
0.000170524
0.000336281
0.0869029
0.000152288
0.00017783
0.0355363
0.000156067
0.000213053
0.000148724
0.000301136
0.000149548
0.000170813
0.000153661
0.000148821
0.000240824
0.000148987
0.000458753
0.000146288
0.000213179
0.0271035
0.0892196
0.000157041
0.00017821
0.000149749
0.000170186
0.000148048
0.000170445
0.0301466
0.000157008
0.000156019
0.00014873
0.0771471
0.000146416
0.0243385
0.0803057
0.00019664
0.000149646
0.000776627
0.0379349
0.0142469
0.000213049
0.000166333
0.000175134
0.000232907
0.00016608
0.000202973
0.000160865
0.0160128
0.000213277
0.000147108
0.000157256
0.000215383
0.0212458
0.014219
0.000146904
0.000173444
0.000148288
0.000228039
0.000248414
0.000157828
0.000177565
0.000213494
0.000148122
0.000162627
0.000206724
0.000334132
0.000148505
0.000148806
0.000157208
0.0248491
0.0113145
0.000177504
0.000147245
0.000247616
0.00024896
0.000207799
0.00017725
0.0291572
0.038809
0.000158431
0.00016717
0.0627751
0.000147391
0.000148608
0.000209018
0.000173683
0.000146422
0.000149527
0.000147989
0.00014789
0.000166328
0.000148565
0.0339909
0.000175619
0.000148169
0.0213904
0.0510247
0.000149253
0.000213776
0.040319
0.000150618
0.000149348
0.000176865
0.0310967
0.0877937
0.000185607
0.000148356
0.0348302
0.000148577
0.000187735
0.0480768
0.000339914
0.000152481
0.0535036
0.00541538
0.0586267
0.000212467
0.00016283
0.0928881
0.0579142
0.000342642
0.000149263
0.0290649
0.00713544
0.000221483
0.000212422
0.000152318
0.000184536
0.000157675
0.0147553
0.000163382
0.000146991
0.000144635
0.000158164
0.0549978
0.000380417
0.000147327
0.0860111
0.000157743
0.000163335
0.00015303
0.027615
0.00024735
0.000214427
0.000153278
0.000155262
0.0174437
0.000149297
0.000252124
0.000158293
0.000176752
0.000158301
0.000148307
0.000148139
0.000206349
0.000208012
0.000213825
0.018031
0.016785
0.000152199
0.0792094
0.000238839
0.000146078
0.00034005
0.000198148
0.0477529
0.000157581
0.000190679
0.000249718
0.0441603
0.000203278
0.0166061
0.000150449
0.000261214
0.00764432
0.000163075
0.0197104
0.000165744
0.0826143
0.000166718
0.000172923
0.00021202
0.000233107
0.00014864
0.000157678
0.000174786
0.00016621
0.000147685
0.00017794
0.00615864
0.000148402
0.00017792
0.0112945
0.000153703
0.00466461
0.000176686
0.0913145
0.000156813
0.000187459
0.000335775
0.000250256
0.000176607
0.0124619
0.0332531
0.000647668
0.000148145
0.000206011
0.000165756
0.000190281
0.000147203
0.00920482
0.014415
0.0421188
0.00015518
0.000213354
0.00025274
0.0122531
0.000145071
0.0209055
0.000251771
0.0354065
0.000161459
0.00255193
0.000148502
0.000148756
0.0199168
0.00025359
0.000148396
0.00015415
0.000178487
0.000146654
0.00704791
0.000185053
0.00019724
0.000156928
0.000150482
0.000149285
0.0307609
0.00014814
0.000149219
0.000230054
0.00453438
0.000155284
0.000244639
0.000148646
0.000148552
0.000154297
0.000213825
0.000176265
0.000147764
0.000151136
0.000191687
0.000152303
0.0869137
0.000148432
0.000159574
0.0159516
0.000160555
0.00014499
0.000148757
0.000156799
0.000149212
0.000599245
9.72944e-05
0.000166637
0.000623059
0.000154403
0.000148323
0.0456246
0.000249044
0.000160058
0.000148498
0.0559442
0.000159577
0.00149097
0.000148686
0.000163457
0.000205479
0.000168167
0.0584592
0.00025323
0.0349466
0.000152463
0.000214401
0.000148117
0.0223051
0.000176665
0.000211548
0.000165578
0.00015294
0.000160577
0.000182535
0.000148514
0.0132851
0.0490262
0.0879002
0.00637046
0.000142693
0.0479417
0.000251168
0.000156502
0.000149367
0.00813026
0.000148392
0.00014766
0.000157694
0.0948171
0.000153715
0.000150386
0.000173609
0.000175105
0.00014847
0.0956884
0.000147719
0.0498061
0.000487336
0.000147711
0.000152516
0.000263167
0.000339142
0.000146473
0.0833082
0.0277625
0.000145873
0.0743507
0.000271159
0.000212943
0.000152417
0.000237008
0.0431606
0.000146008
0.000275409
0.000148796
0.000147731
0.000269648
0.0836398
0.000170359
0.000175565
0.000148413
0.000184293
0.0531962
0.0892469
0.00014695
0.0320995
0.000147739
0.000148848
0.000176915
0.000159496
0.00014502
0.000152525
0.0774432
0.000227098
0.0730303
0.000153086
0.000148271
0.0217179
0.000149175
0.000207367
0.000159559
0.00016608
0.000166094
0.0064342
0.0453593
0.000157076
0.0189407
0.000151974
0.00018361
0.0181121
0.027525
0.000148778
0.000148148
0.000163227
0.0753503
0.00023707
0.000183747
0.0107874
0.000159678
0.000165699
0.0355574
0.0998807
0.000183282
0.0506295
0.000225938
0.015406
0.000149911
0.00025324
0.000249123
0.000148464
0.0165025
0.0985802
0.0001593
0.000178022
0.000148615
0.000513812
0.000175528
0.0570337
0.000148166
0.000149022
0.000155328
0.000174463
0.000148499
0.0916747
0.000148983
0.00022436
0.000152472
0.000191027
0.000148647
0.000148491
0.000166957
0.032238
0.000176164
0.084677
0.000163506
0.000146737
0.00014664
0.000182127
0.000151108
0.000194512
0.000154597
0.000159783
0.000251482
0.000149184
0.0114508
0.000149677
0.000199891
0.0216778
0.0191844
0.000156497
0.0546916
0.000172989
0.000218302
0.0991238
0.000147437
0.101893
0.00015779
0.000164121
0.00803057
0.00157217
0.000146187
0.000193453
0.000148603
0.0182882
0.0403829
0.000149169
0.00016724
0.013822
0.00014975
0.000149675
0.000189475
0.0098474
0.000310044
0.000149364
0.00021167
0.000151863
0.000148519
0.000250172
0.000212786
0.000200806
0.00014492
0.000206771
0.000163709
0.000185173
0.000150518
0.000151512
0.0001742
0.000155136
0.000209946
0.000179284
0.000179096
0.000179202
0.000634061
0.000274707
0.000355283
0.0750633
0.000214454
0.0366132
0.000163024
0.00026116
0.000214184
0.000147708
0.000164979
0.000255321
0.000157186
0.000147722
0.000147677
0.000200104
0.0151555
0.000159866
0.0809118
0.00014677
0.00031032
0.000179005
0.0386173
0.000192925
0.000157015
0.000153892
0.0442225
0.000201069
0.000162652
0.000253852
0.000150107
0.00914225
0.000200278
0.00022502
0.000164723
0.000420383
0.000148487
0.000149621
0.000151871
0.000148532
0.0195722
0.000147879
0.000248101
0.0261932
0.00019345
0.0916867
0.0449628
0.000226519
0.000227111
0.000156674
0.000149148
0.000148723
0.000145697
0.000146645
0.000148844
0.000184371
0.000214941
0.000164411
0.000339172
0.000151387
0.0357725
0.000149958
0.0224941
0.000167921
0.000149887
0.000148828
0.0205403
0.000157339
0.000322065
0.0955402
0.000176819
0.000188117
0.000145713
0.0407898
0.000153285
0.000153805
0.000251465
0.000149174
0.000150365
0.000147373
0.000176759
0.0167069
0.000160973
0.000165252
0.000265927
0.0846483
0.000157027
0.000156082
0.0158824
0.000145661
0.017142
0.00014929
0.000152363
0.0225444
0.000194897
0.000211661
0.000186506
0.000176532
0.000149492
0.000149956
0.000185283
0.000150055
0.000149543
0.000160563
0.000253118
0.000147764
0.000206955
0.00256574
0.000325903
0.000186176
0.0461391
0.000160293
0.000149117
0.000201419
0.000146875
0.000157792
0.000271467
0.0165567
0.101587
0.0119395
0.000149332
0.000149036
0.000168982
0.000151206
0.000147188
0.0377267
0.000228983
0.0220893
0.000200212
0.000195736
0.000148567
0.000146505
0.0166948
0.000197352
0.000153016
0.000149667
0.000211593
0.000221534
0.0822469
0.000149449
0.000148942
0.0144164
0.00015047
0.000165943
0.000146677
0.0960061
0.000148034
0.0251075
0.000148478
0.000192314
0.000171939
0.000168598
0.000165097
0.000148416
0.000154161
0.000148022
0.000245853
0.000150449
0.0168841
0.000150316
0.000332795
0.0385388
0.000163171
0.000147885
0.012785
0.000170041
0.000157737
0.000194867
0.000148723
0.0126427
0.000147815
0.000255953
0.000148381
0.000147999
0.000324627
0.000166335
0.000148688
0.000164563
0.0693717
0.000427357
0.0193786
0.000146905
0.0381164
0.000148468
0.000147811
0.000149477
0.000144298
0.00014955
0.0402633
0.000694757
0.000149053
0.000148956
0.000170857
0.000147523
0.0164062
0.000203254
0.0329214
0.0943001
0.000154085
0.000209773
0.000148418
0.000174071
0.000175558
0.000147291
0.000149351
0.00174537
0.0427078
0.000187564
0.0108073
0.000186251
0.000148634
0.000171317
0.000195374
0.0288826
0.000165071
0.00029433
0.000197999
0.000149466
0.0536364
0.0486908
0.0201363
0.00884721
0.000281807
0.000152385
0.000174757
0.00014924
0.000298724
0.000156627
0.000147013
0.028619
0.000151163
0.000147889
0.000148775
0.000150863
0.0928757
0.000252388
0.000147132
0.000171882
0.0303595
0.000151536
0.00968401
0.000151521
0.000193403
0.0880713
0.000148588
0.000240865
0.000159613
0.000164391
0.000484043
0.000151141
0.000300285
0.000186901
0.067588
0.000148842
0.0167669
0.000162592
0.045919
0.0325817
0.0136626
0.000176886
0.000148515
0.000149401
0.000149749
0.000171347
0.000148775
0.059213
0.000158212
0.000156408
0.000156867
0.000152279
0.000146867
0.000158024
0.000157891
0.000152513
0.000156972
0.0971986
0.000244169
0.00016199
0.000168862
0.0280428
0.000150468
0.0589825
0.000145737
0.000160545
0.000150476
0.000147921
0.000166098
0.000148291
0.000147088
0.000162751
0.000148684
0.000241979
0.000150695
0.014667
0.000326808
0.000235914
0.000255702
0.000148472
0.0874108
0.000219342
0.000149486
0.000157657
0.00015018
0.0626959
0.00015151
0.000162532
0.000344888
0.00915059
0.000177728
0.000148794
0.00896364
0.000339203
0.000274207
0.000159541
0.000146668
0.000146801
0.000185745
0.000148502
0.0372318
0.00020763
0.000149301
0.000238864
0.000249363
0.000147284
0.093674
0.0228594
0.000227498
0.00015059
0.0078302
0.000184215
0.00014805
0.0179128
0.000155868
0.000147187
0.000147766
0.000164679
0.000171767
0.0325213
0.0520961
0.000173385
0.0255579
0.000166653
0.000148329
0.000168423
0.000147708
0.0102122
0.000147144
0.00014819
0.000152838
0.000149958
0.0315954
0.0133208
0.000238405
0.0446423
0.104329
0.000157018
0.000148443
0.000150706
0.000303585
0.000146972
0.000148036
0.000168655
0.0330853
0.00023825
0.000145592
0.000164737
0.000165418
0.000213137
0.00836037
0.000145825
0.000144931
0.000152333
0.0320246
0.000160444
0.0567256
0.000151472
0.000149021
0.000147219
0.000147745
0.000153654
0.000226436
0.0133968
0.0242999
0.000156856
0.000148329
0.00545643
0.000149218
0.00440112
0.0518004
0.000158026
0.0368858
0.0206261
0.0426261
0.000182119
0.00016479
0.0411142
0.000163022
0.000160004
0.000169331
0.000220447
0.000149934
0.000498515
0.000148355
0.000196951
0.0406994
0.00014577
0.000152625
0.000166395
0.000293344
0.00016634
0.00014887
0.000159929
0.000151524
0.000156517
0.000246438
0.000149051
0.00013414
0.0163843
0.000148391
0.000163687
0.00017149
0.000148505
0.0170768
0.00784558
0.0900941
0.0195228
0.000148209
0.000153967
0.000156893
0.000149491
0.000237923
0.000166767
0.000149696
0.000186108
0.00015479
0.000184704
0.000172149
0.0258151
0.000151406
0.000151572
0.000163647
0.000196861
0.000187778
0.000148116
0.00695396
0.0532379
0.0327622
0.0535956
0.000183035
0.0277115
0.0435806
0.000148118
0.000148255
0.000148064
0.000235664
0.000175837
0.000187197
0.0141994
0.000148639
0.000145469
0.000148414
0.000228592
0.000145489
0.00015787
0.000152347
0.000291271
0.000150992
0.000146922
0.00014854
0.000148132
0.000149005
0.000159782
0.000237117
0.000160079
0.00193173
0.000148249
0.000147762
0.0539972
0.0336636
0.014483
0.000325837
0.000163646
0.000310868
0.000146629
0.000168885
0.000151575
0.000148505
0.000153726
0.0311669
0.000151293
0.000197543
0.0257918
0.000148935
0.000147858
0.000155106
0.00022768
0.000149803
0.000303069
0.000147976
0.000231104
0.000148782
0.00014904
0.00015793
0.000171265
0.00014897
0.00025896
0.0497617
0.000224063
0.0307864
0.000148501
0.0342087
0.000274069
0.000148314
0.0432065
0.00014947
0.000161897
0.000149287
0.000148287
0.000147624
0.000148506
0.000149807
0.000155731
0.000187575
0.000148995
0.000148604
0.00016588
0.000145986
0.100869
0.000148784
0.00016434
0.000166344
0.0441991
0.000299205
0.000148947
0.000228095
0.00014663
0.000162634
0.000172713
0.000322994
0.000178202
0.000149805
0.000205312
0.000167785
0.000195316
0.000325933
0.000160644
0.000208669
0.000183803
0.000188334
0.0001509
0.000147215
0.000324659
0.0107524
0.000154112
0.000148024
0.00964259
0.000146811
0.000173407
0.000147717
0.000176903
0.0498201
0.000144539
0.015596
0.000156899
0.000149074
0.000219132
0.000147001
0.000161345
0.0199529
0.000171134
0.000324389
0.000147593
0.000149754
0.000162385
0.000149496
0.000149617
0.000159704
0.000161655
0.00018762
0.000178521
0.000148783
0.000164769
0.000147106
0.00014837
0.000149422
0.000148337
0.00273799
0.000147357
0.000151588
0.000243287
0.000146769
0.000147945
0.0258999
0.000149644
0.018135
0.000151624
0.0133154
0.000244946
0.000164182
0.0112604
0.000178643
0.000307754
0.000149542
0.000222757
0.00015743
0.000147101
0.000147544
0.000151571
0.000163444
0.000148071
0.00017056
0.00014728
0.00015154
0.00817924
0.0395016
0.000418928
0.000153613
0.000162909
0.0542767
0.0277868
0.00014913
0.000157496
0.000360572
0.000148781
0.00016826
0.018206
0.0223266
0.000158595
0.000174645
0.000150629
0.000258821
0.000149902
0.000160843
0.000800625
0.000149062
0.000147592
0.100162
0.000171024
0.000241071
0.02965
0.000200484
0.000149851
0.000147301
0.000149172
0.0429787
0.00026791
0.00052663
0.000174508
0.000148543
0.0642461
0.000148684
0.000212617
0.000155347
0.000151771
0.000174001
0.000148347
0.0963958
0.105148
0.000145465
0.000186936
0.000176826
0.0190645
0.000172334
0.000183438
0.000239701
0.000166419
0.000242574
0.000184926
0.000148702
0.000168017
0.000168262
0.000220131
0.000148182
0.000284563
0.000173287
0.000184943
0.000149809
0.10086
0.000157006
0.00015211
0.000147257
0.000165815
0.000165408
0.000166116
0.000148821
0.000150401
0.000171539
0.0139462
0.000175884
0.000149011
0.000150427
0.000167854
0.000236778
0.000149121
0.00018101
0.0542865
0.000167046
0.0133845
0.00017115
0.040406
0.000296239
0.000148137
0.00778973
0.000149551
0.000154369
0.000165175
0.000166887
0.000195495
0.000176946
0.000165194
0.000166461
0.000162651
0.000153016
0.000145433
0.000169682
0.000155969
0.000157157
0.000321953
0.000156073
0.000158798
0.00014767
0.0173689
0.000179494
0.000148784
0.000154585
0.00015166
0.0319112
0.000208298
0.000165187
0.0157929
0.000323102
0.00103556
0.00019573
0.000242175
0.000147271
0.000185705
0.000147954
0.000155503
0.0630464
0.0173579
0.000298572
0.00283224
0.000148761
0.0276437
0.000147252
0.000194592
0.000154364
0.000310749
0.0416151
0.000156472
0.000148018
0.000278654
0.000162136
0.000148122
0.0503222
0.000148475
0.00015226
0.000156009
0.000149277
0.00016202
0.000151787
0.000148545
0.000162495
0.000373523
0.000172176
0.000176009
0.000148096
0.0465829
0.0157055
0.000147899
0.000247602
0.000154289
0.000157148
0.000209443
0.000147877
0.000150465
0.000156514
0.069595
0.000148171
0.000149161
0.000170547
0.000283614
0.000147776
0.000159333
0.00016115
0.000332692
0.000171961
0.000170005
0.000237097
0.000148494
0.000172814
0.000145867
0.0368905
0.000161017
0.000148407
0.000158181
0.000190502
0.000148931
0.000148664
0.000214284
0.00373022
0.000149158
0.035362
0.000149216
0.000145795
0.000184466
0.000148174
0.000147351
0.0890073
0.000149822
0.000172013
0.00021813
0.0663041
0.000331115
0.000146801
0.00015273
0.000156391
0.000148418
0.000148503
0.0001486
0.000303985
0.000149286
0.000240271
0.000207535
0.000147545
0.000146094
0.000161683
0.000207487
0.000246249
0.00016629
0.000177406
0.000152573
0.0328583
0.000175835
0.000162432
0.000172716
0.000171389
0.000192515
0.0225135
0.000170122
0.0176727
0.000318712
0.0218416
0.000154488
0.000148051
0.000167303
0.000159362
0.000146932
0.00014917
0.000178499
0.000149602
0.000149322
0.000148293
0.000144938
0.000152225
0.000148237
0.0268675
0.000147998
0.0675032
0.000148472
0.00017335
0.000150039
0.000208142
0.000173107
0.000148537
0.000627995
0.000152644
0.000149495
0.000171839
0.000146994
0.000158547
0.000147897
0.00953184
0.00015324
0.000172302
0.000170771
0.000369108
0.000157593
0.000240391
0.000313558
0.000168867
0.000148436
0.000151021
0.000175728
0.000183072
0.0369888
0.000146481
0.0320859
0.000148681
0.000169596
0.0910645
0.000164638
0.000309437
0.000154775
0.000164592
0.000153914
0.105617
0.00016187
0.000148857
0.00016797
0.000210442
0.000151885
0.000148278
0.000148878
0.0915553
0.00014968
0.000156955
0.0364619
0.000155231
0.000148129
0.000170835
0.000154349
0.00017114
0.00014547
0.000148314
0.000147011
0.00015488
0.000149453
0.000148519
0.000186288
0.0419844
0.000148008
0.000148641
0.000437601
0.000148709
0.0157693
0.00015236
0.0980844
0.00014733
0.000153196
0.000146624
0.0202491
0.0265064
0.000158802
0.000168862
0.000155593
0.000147959
0.000148726
0.00785158
0.00014882
0.00019438
0.000146992
0.000173284
0.000149247
0.00225108
0.00014684
0.000175834
0.000147563
0.000231046
0.000536044
0.000146808
0.000165591
0.105498
0.00018811
0.000326011
0.00030839
0.000216112
0.00015186
0.000165974
0.000195849
0.0003342
0.000148438
0.000169937
0.000156486
0.000148132
0.0170998
0.0360235
0.000188079
0.000218966
0.000287081
0.000161973
0.0187827
0.000146842
0.00014674
0.000191678
0.103705
0.000235161
0.000210518
0.000332979
0.000146646
0.102941
0.026571
0.0888031
0.000149302
0.046228
0.0479088
0.000617992
0.000402141
0.0425283
0.0001956
0.000161654
0.000216064
0.000154428
0.000148134
0.00509715
0.00019769
0.000145302
0.0446334
0.000149237
0.000158099
0.000173729
0.00015546
0.00118026
0.000160087
0.0113268
0.000175204
0.000154975
0.000355273
0.0944228
0.000213365
0.000149863
0.000154549
0.000186351
0.000168099
0.000146749
0.000173951
0.000167199
0.000205942
0.00014812
0.000225141
0.000153312
0.000167975
0.000216745
0.000242492
0.000151341
0.000186879
0.0446333
0.000149057
0.000150643
0.0843165
0.000270002
0.00015369
0.000154437
0.000148564
0.000174138
0.000155849
0.0180474
0.000194787
0.000150088
0.000149445
0.000166299
0.000158835
0.000285666
0.0453971
0.000147394
0.000148187
0.000158077
0.000149261
0.000153562
0.000150892
0.000150568
0.000154654
0.00014778
0.00015392
0.000149234
0.000177252
0.000334276
0.000149748
0.00693134
0.0214352
0.000145867
0.000184086
0.000189539
0.000179337
0.000150545
0.000197683
0.000158255
0.000168642
0.000161711
0.000151643
0.000149345
0.0355918
0.000159242
0.000325254
0.000150506
0.000148416
0.0001481
0.000172771
0.000147954
0.000177877
0.000185028
0.000357513
0.000147451
0.000269371
0.0339138
0.055788
0.000146582
0.000201071
0.000226873
0.0353344
0.00243243
0.0001503
0.0001493
0.000199982
0.000325328
0.000320079
0.000172145
0.000249161
0.000149499
0.000147254
0.000163929
0.000149286
0.000149084
0.000208758
0.000149761
0.000169713
0.000147256
0.0849445
0.00636385
0.000203966
0.000234994
0.0533305
0.000148993
0.000148941
0.0819665
0.00014663
0.000146916
0.000145814
0.000184779
0.0415424
0.0387197
0.000156127
0.000148302
0.000151415
0.000162429
0.0299893
0.000148127
0.000309268
0.0849561
0.000149239
0.000149141
0.0290113
0.000192719
0.000151604
0.000148277
0.0191055
0.0650232
0.000148048
0.000229611
0.000149679
0.0547238
0.00037477
0.000151944
0.0240324
0.0167319
0.000963781
0.000147113
0.000148417
0.000149628
0.0001499
0.0323652
0.000147667
0.000204182
0.000243763
0.0350335
0.000150352
0.000173616
0.000313705
0.000174616
0.0749934
0.067736
0.000145254
0.000156222
0.000156438
0.000211613
0.0102418
0.000144835
0.016739
0.000160146
0.00017412
0.000150562
0.00014751
0.000252195
0.000168234
0.0180805
0.000149282
0.000173582
0.000150122
0.000208627
0.000153726
0.0425989
0.000349499
0.000211952
0.000198478
0.000148064
0.00015265
0.000195481
0.000183462
0.0234298
0.0981872
0.000148921
0.000310406
0.000170513
0.10132
0.000157453
0.000170341
0.000169522
0.000148542
0.00415423
0.000148421
0.000164994
0.0178342
0.0794284
0.00311745
0.0517101
0.000157588
0.000177393
0.000146341
0.0873891
0.000156714
0.0282169
0.000146234
0.00017654
0.000144585
0.000147981
0.000164393
0.00015838
0.000159551
0.000148167
0.0279564
0.000174711
0.000147695
0.00016538
0.0213867
0.000235393
0.000148462
0.072352
0.000153587
0.00016664
0.000164515
0.000145694
0.00017925
0.000147942
0.0610368
0.000172771
0.000157779
0.000148253
0.000284075
0.000170529
0.000146222
0.000233811
0.000479331
0.00024608
0.000145345
0.000334689
0.000148903
0.00019619
0.000159026
0.000182002
0.0057128
0.0293535
0.000159526
0.0477817
0.000169006
0.000157449
0.000146866
0.000720957
0.000179958
0.000195086
0.000165739
0.000149591
0.000275363
0.000185391
0.000299745
0.000241073
0.102462
0.0272708
0.0308688
0.0479318
0.000157687
0.000158529
0.000148601
0.000148462
0.000144982
0.000222868
0.000158222
0.000159647
0.0851793
0.000147734
0.000146929
0.00017276
0.000211095
0.000159417
0.000147012
0.0921602
0.000153599
0.000176957
0.000149169
0.0275597
0.000157008
0.0341708
0.000166376
0.000166097
0.00017076
0.000148554
0.00980824
0.000299372
0.00018177
0.000148505
0.000147236
0.0198188
0.0527534
0.0204751
0.000147306
0.000182048
0.000310355
0.000148344
0.000147961
0.000148645
0.0439535
0.000171568
0.000162519
0.000158307
0.000156817
0.000212905
0.000179735
0.000247766
0.000157117
0.000164811
0.000144886
0.000184414
0.00017265
0.000148283
0.00671317
0.0710191
0.0707435
0.00256919
0.0445399
0.0975557
0.0832913
0.000151417
0.000147103
0.0222239
0.0589316
0.0256666
0.000148642
0.000171557
0.000148559
0.000147985
0.000306206
0.0795913
0.000185463
0.000147984
0.000256398
0.000197194
0.00017573
0.0391317
0.00600524
0.000249455
0.000147273
0.0459402
0.000293011
0.000273085
0.000164564
0.000172891
0.000149235
0.00014717
0.000168778
0.000172969
0.000153606
0.000172164
0.000159373
0.000154197
0.000232545
0.0297367
0.000158957
0.000173668
0.0563309
0.000228689
0.000148692
0.000194428
0.000239822
0.0177569
0.000169505
0.000148713
0.000161361
0.000157091
0.000158195
0.000145686
0.000158977
0.000163615
0.000176482
0.000210649
0.000149499
0.000151205
0.0285578
0.010246
0.0958291
0.000305691
0.000204593
0.000144463
0.000148489
0.000162085
0.000146259
0.107389
0.000148426
0.00014982
0.000146042
0.00817422
0.0301768
0.000149856
0.000185599
0.000158355
0.000161246
0.000161492
0.000159758
0.000171925
0.000166469
0.0208274
0.000157026
0.0603911
0.000166785
0.0970659
0.000160387
0.000147411
0.000146802
0.000198204
0.000214188
0.000146697
0.000162628
0.000160762
0.000176215
0.000243258
0.0219887
0.000228385
0.000149818
0.000206291
0.00015835
0.000163853
0.000148242
0.000180952
0.000152373
0.0170197
0.000313359
0.00016537
0.000148494
0.0093791
0.000155752
0.0322497
0.0569222
0.000233704
0.000153272
0.000206053
0.000190606
0.000285596
0.0435028
0.000177902
0.000147942
0.000166797
0.00014726
0.0964876
0.000153709
0.000162626
0.000256313
0.0952844
0.000147741
0.000148037
0.0547815
0.000169616
0.0896752
0.000158797
0.000148285
0.000171371
0.000235241
0.000162413
0.000323426
0.000163753
0.000312875
0.000155025
0.000149627
0.000147936
0.000238904
0.000150494
0.000183149
0.000148586
0.000148269
0.000229778
0.00015695
0.000148574
0.000148196
0.000163904
0.000331728
0.000174007
0.00016925
0.00015516
0.000179314
0.000148512
0.000195282
0.00016231
0.000173266
0.000166657
0.000159063
0.000174313
0.000163081
0.00014713
0.000187664
0.0467383
0.0192238
0.000148561
0.0025068
0.0302233
0.000148039
0.000150521
0.000237835
0.0439976
0.000156243
0.02782
0.00029623
0.000148101
0.000195356
0.000144964
0.000156757
0.000180494
0.0695237
0.000208094
0.000236213
0.000285594
0.00267937
0.0577449
0.000151812
0.0393598
0.000148352
0.00029506
0.061594
0.000148629
0.000148441
0.0197378
0.000148988
0.000148533
0.000257094
0.00849919
0.000237385
0.00015691
0.0567656
0.000148596
0.00577767
0.0337947
0.000149212
0.000266784
0.0348647
0.0669334
0.0235958
0.0327966
0.0202175
0.000147208
0.000151508
0.000181582
0.000186084
0.000148501
0.000228033
0.000148304
0.031693
0.000250398
0.000164091
0.000243983
0.0305054
0.000248748
0.000236173
0.000165683
0.0233648
0.000346715
0.000155568
0.00014529
0.000307668
0.000160963
0.00014657
0.100871
0.000148076
0.000315209
0.000149102
0.0629412
0.000155854
0.000148034
0.00934795
0.000155956
0.000160329
0.0181395
0.0655226
0.00176635
0.000159089
0.000175248
0.000151657
0.000171366
0.00020897
0.000172185
0.000149366
0.000352889
0.000183148
0.00016115
0.0214924
0.00017166
0.000161907
0.00020658
0.000186708
0.000175486
0.000148007
0.000220498
0.000146811
0.000208896
0.000247572
0.0537641
0.000147064
0.000168468
0.0256124
0.000151741
0.000179564
0.000163251
0.000170717
0.0313777
0.00018353
0.000151883
0.0416227
0.000147121
0.0085897
0.000148791
0.000151146
0.000208549
0.0190182
0.000161287
0.000190584
0.000229982
0.000163634
0.000148955
0.000177548
0.000172335
0.0872192
0.000155249
0.00737506
0.000214195
0.000163456
0.000161194
0.000178315
0.000165981
0.000167604
0.000183677
0.000162237
0.000153731
0.000148286
0.00433854
0.000148337
0.000160002
0.000145175
0.00020393
0.000160635
0.000183896
0.0432079
0.000151242
0.000237073
0.000144391
0.000149114
0.000149235
0.000149345
0.000157368
0.000147603
0.000195776
0.038937
0.000183949
0.000175329
0.000155126
0.000148398
0.000241451
0.000148438
0.000250158
0.000263787
0.0326535
0.000215196
0.000163272
0.00015841
0.000149168
0.000157858
0.000170651
0.000168692
0.0692717
0.000183903
0.0702876
0.000215354
0.000149357
0.000146816
0.0193497
0.000147979
0.000161834
0.000166083
0.000285397
0.000151782
0.0471558
0.000149108
0.000155623
0.000148573
0.00015033
0.000177414
0.000203079
0.000149106
0.000164813
0.00015992
0.000176199
0.000183502
0.000226514
0.000203576
0.000231937
0.000211053
0.000156546
0.00015106
0.000183162
0.0177108
0.0693374
0.0128189
0.00016425
0.00201114
0.000202231
0.000150634
0.000147936
0.000185511
0.000148931
0.000164553
0.0247548
0.000147942
0.000147009
0.000436702
0.000305032
0.000177189
0.00211066
0.00014897
0.0232993
0.000168629
0.097587
0.000157219
0.000148477
0.00664444
0.000165299
0.000148455
0.000171592
0.000149681
0.000193754
0.000159931
0.000164419
0.104551
0.000159452
0.000652343
0.000147606
0.0596105
0.000148969
0.000156645
0.000149903
0.000171268
0.000148884
0.000165998
0.0110333
0.000287697
0.000176194
0.000160681
0.000168336
0.000147714
0.000148874
0.000151189
0.000299422
0.000155722
0.071368
0.0370206
0.000191987
0.000149426
0.000197063
0.000217834
0.000212503
0.000156234
0.0575459
0.000148121
0.0001445
0.000147998
0.0292582
0.00014849
0.000148364
0.0113277
0.000147978
0.000211697
0.000171746
0.000146754
0.027636
0.000159408
0.0674828
0.000147865
0.00034106
0.000150778
0.0001668
0.0253689
0.000185764
0.000147792
0.000158419
0.000182314
0.000164446
0.000199158
0.000163291
0.000156494
0.000189746
0.000157944
0.00014871
0.00965281
0.000160549
0.000159693
0.000213023
0.00014804
0.000147307
0.0001492
0.000162823
0.000148961
0.000155082
0.000901621
0.0151345
0.000171421
0.00854938
0.00018522
0.000166389
0.0968888
0.0592071
0.000149943
0.0204748
0.0780371
0.0269901
0.00783952
0.000162397
0.000204102
0.0133308
0.0441525
0.00828116
0.06381
0.000162707
0.000169553
0.000157595
0.000156689
0.000149927
0.000606101
0.0001499
0.0179576
0.000174298
0.000202326
0.000144973
0.000190635
0.000163555
0.000152128
0.000149953
0.000148685
0.000173679
0.000152433
0.000148974
0.000172047
0.0783707
0.000153777
0.000196887
0.000146743
0.000173553
0.000169324
0.000149089
0.000156117
0.000147612
0.0585862
0.0181952
0.000219833
0.0268473
0.000160804
0.000194305
0.000148834
0.000172982
0.000148993
0.000149402
0.000149547
0.00060512
0.000146554
0.000175979
0.000321634
0.000157298