/*--------------------------------*- C++ -*----------------------------------*\
| =========                 |                                                 |
| \\      /  F ield         | OpenFOAM: The Open Source CFD Toolbox           |
|  \\    /   O peration     | Version:  v2012                                 |
|   \\  /    A nd           | Website:  www.openfoam.com                      |
|    \\/     M anipulation  |                                                 |
\*---------------------------------------------------------------------------*/
FoamFile
{
    version     2.0;
    format      ascii;
    class       volScalarField;
    location    "500";
    object      ddt0(omega);
}
// * * * * * * * * * * * * * * * * * * * * * * * * * * * * * * * * * * * * * //

dimensions      [0 0 -2 0 0 0 0];


internalField   nonuniform List<scalar> 
13851
(
0.0096729
0.000224454
0.00022018
-0.0393658
-7.11933e-06
0.000398098
0.000222494
-2.69833e-06
0.0109017
-2.75733e-07
0.00206996
-2.80013e-06
1.96531e-06
0.0303936
0.00165746
0.00857566
-0.131002
1.48888e-05
0.0549833
0.00950259
0.0020755
0.000242289
-0.28936
-1.16606e-06
0.536421
0.00370307
0.000883566
0.00748871
0.103832
-2.10539e-06
-0.191803
0.000228147
0.0103744
0.113364
0.00133533
0.0717233
-2.20967e-07
0.465315
-0.406839
5.60794e-06
-0.128002
0.102811
-0.103549
0.0769305
0.0829255
-1.13342e-06
1.45395e-06
0.00725044
0.000113198
2.79699e-06
0.0965845
1.75529e-06
0.00856362
0.000886941
0.0545935
5.41461e-06
0.00994349
-0.141303
0.00738683
0.0985111
-2.8874e-06
0.00445704
4.83453e-07
0.000122775
0.023418
0.0239713
0.0436993
0.00504128
1.58355e-05
-0.105183
-0.143465
0.00257443
-7.99346e-08
-0.238433
0.001115
9.93607e-05
-0.0986455
-2.60027e-06
1.78193
-2.9189e-06
1.69137e-05
0.0436401
0.00120306
0.0103716
-0.30877
-0.173676
0.000279148
0.0686303
-9.88057e-07
-0.195658
3.18152e-06
0.000238266
0.0859028
-0.156151
-0.210676
0.0103808
-1.13662e-06
0.00789277
0.143905
0.0174236
0.00788646
0.00502932
0.000981718
2.10815e-06
6.80007e-07
0.00227326
-2.19125e-07
-0.156979
0.0002513
1.14877e-05
0.000390959
-5.55405e-07
0.0167973
0.00311329
0.00919268
0.000802168
-4.94563e-06
-4.06795e-06
-0.0331783
-0.154092
0.00586818
3.97968e-06
1.22302e-05
0.0102335
0.0119628
0.00984175
-2.1888e-06
0.00185449
-0.0325983
0.00246546
0.00024727
0.000826824
1.48577
0.142451
0.00247643
-0.248279
0.00139064
-0.164392
0.000315258
0.00248547
0.0350569
1.5415e-05
-8.1153e-07
0.00224899
2.01581
7.32215e-05
-3.56588e-06
-0.164384
0.180686
0.00129737
0.00765485
0.0148227
0.00348579
0.0342577
4.88249e-06
9.35768e-07
-3.04314e-06
-0.341351
0.00219868
0.0001726
-1.5406e-06
0.0945709
0.00232059
0.00711244
0.0509351
-0.0675383
-0.0500514
0.0620764
0.000325775
0.366132
-2.5684e-06
-5.37705e-06
0.00327678
-5.96433e-06
-0.245262
0.0361004
0.0054849
-5.68133e-06
0.00110222
0.00555116
0.00949965
0.0567696
0.000329734
0.00245277
-0.247741
0.176231
0.010575
0.000568297
4.18871e-06
-1.75964e-06
3.4505
0.00218636
0.0557035
0.000403379
6.73881e-05
0.00833791
0.0104831
3.55809e-05
3.1683e-05
-0.00536485
0.0350919
-0.157871
-0.147547
0.00166869
1.56774
-0.170788
1.6426e-05
0.00247687
0.00553918
0.000324896
0.00842815
1.11938e-05
0.0382189
3.47566e-07
0.00142231
0.000142192
2.27054e-06
0.0114575
3.80072e-05
-0.0189901
-4.93697e-06
0.00765075
0.0897358
-0.256803
0.00011913
0.00249875
2.04458e-07
0.0121334
-2.94537e-06
0.0013764
-0.362554
-0.000218042
0.000327742
7.40981e-07
-0.173428
-1.81604e-06
0.392264
-0.15175
0.0111596
-6.28949e-07
1.54654
-0.169112
0.069883
0.00854031
0.00121301
-0.0110693
0.00767587
0.00110141
0.0216524
0.000366981
-0.0901643
0.00883106
-5.67319e-06
0.000423588
0.00822039
0.0832943
-0.036282
-1.82306e-06
0.00657955
-4.79991e-07
0.015543
0.0218107
0.000459292
0.00231056
0.00932977
6.68418e-08
0.00643189
0.00594544
-0.0405688
-1.48129e-06
2.55434e-06
-1.38283e-05
0.0321447
-0.0358748
0.00236948
5.18111e-06
0.00974935
0.0291769
0.00924824
0.00235536
0.0331742
0.276578
0.000501666
0.00131021
0.668912
-2.83034e-08
-3.18283e-06
0.00952635
0.00253276
-9.84716e-07
-6.54889e-07
-3.49219e-06
-8.3543e-06
0.00122043
-3.21777e-06
0.00295553
0.00220937
2.66175e-06
0.076908
0.0363826
2.8953e-06
0.00882819
0.170701
2.21734e-05
3.6519e-06
0.00228928
0.0143314
-0.356704
0.00372868
-7.39581e-06
0.423055
-2.44287e-06
0.00424701
0.0915741
-0.0466295
0.000162528
0.95361
1.77662
-0.17023
0.00769589
0.00228447
-0.311681
0.0599261
0.0364588
3.77553e-05
-0.103318
0.351158
0.0511324
-0.00118779
1.6286e-05
0.00369729
0.000170249
0.0629106
-0.000966156
-8.21905e-06
6.29074e-07
0.000409795
-0.152227
-0.0169152
-3.01613e-07
-0.204036
0.000166563
0.000830476
0.000193405
0.00788112
0.00899368
0.00858324
0.000124192
0.000279824
0.00734401
4.276e-06
0.0317466
0.000490559
0.00228605
0.00015661
-7.37068e-07
3.05001e-06
0.00311331
0.0232957
0.0072362
2.5039
0.00121947
7.77742e-05
-0.198105
0.0203354
4.66711e-06
-0.0468789
0.00552518
0.0808652
0.000387183
0.00383083
0.00641146
0.593066
0.0108264
0.0538487
6.37881e-05
0.0449756
-0.0618476
0.000877889
0.247955
0.00115095
-0.0993447
0.00124392
0.00176054
0.00951173
0.0414934
4.4648e-07
0.000447804
0.00217891
0.00112135
-7.59373e-07
0.00243165
0.189802
4.4742e-07
0.00248343
-0.108579
0.000197629
0.183732
0.00223942
-0.330024
0.000368995
0.0034225
0.0442579
0.0156836
0.00219874
-0.0469094
-0.341559
0.645715
-5.9021e-07
-0.00029974
0.00113957
0.00385917
3.87041e-06
-0.152614
0.477667
0.598914
0.000278752
0.00947013
0.010502
-0.0340055
-3.60879e-08
-0.10715
0.0519391
-0.951749
0.000434263
0.118075
-1.06754e-07
-6.15518e-06
0.0774128
0.0144529
-3.51915e-08
0.00022812
0.00253301
-5.46047e-06
0.439727
0.00371217
0.00550389
0.000395549
6.43992e-05
1.44101e-06
0.831937
2.06515e-06
1.49243e-06
0.0809835
0.420091
0.000212677
0.00427938
1.40246e-06
-3.65102e-06
0.00022703
0.00878189
0.00215425
7.64017e-07
9.44604e-05
0.00621743
0.000148041
-0.2969
-3.33386e-06
0.000578507
0.065652
0.0003965
-2.57583e-06
-2.49514e-06
0.000406285
5.03921e-05
0.11381
-0.539872
0.00125843
-0.139056
0.000233973
-2.53318e-06
0.106523
0.00615256
0.000106614
1.62317e-06
0.0818112
0.000575575
0.474894
1.90192e-06
0.000877743
0.00649851
0.00134382
0.0535128
0.00814613
0.694642
5.70394e-05
0.0122619
-8.70781e-07
0.0960142
0.00224995
0.0106153
0.00113111
0.000114273
0.000603945
0.00330513
-6.69393e-06
0.00607264
0.0917322
-0.27944
-0.127955
-0.42379
-0.00528318
0.0255194
8.59817e-05
9.77328e-08
1.4573
5.6799e-07
-4.47e-07
0.00012661
-0.241428
0.000214357
1.44314e-05
0.00887983
0.00200698
5.9674e-07
-0.256824
-7.82084e-07
0.0309262
0.087535
-2.52119e-06
0.000159419
0.0331362
-0.0508101
-1.25824e-06
0.19638
0.264046
7.79557e-06
-0.234691
0.0470498
0.00672958
5.44494e-05
0.0544624
0.233427
9.64669e-06
0.0403044
1.43901e-05
-8.50165e-07
0.0284231
-0.070561
0.00157592
0.00209284
4.89324e-07
0.00304653
0.0108948
-0.322162
1.30102e-05
-0.048128
-5.72097e-07
1.57268e-05
0.0022829
0.000562653
1.75725e-07
9.72294e-05
-0.264357
0.0359692
-0.217445
0.000178891
-8.10475e-07
-0.00608131
-7.40617e-07
0.00325402
0.000582281
0.00113732
0.00119302
-0.0595785
0.187402
0.000397845
-0.0781006
0.000140544
0.0037572
0.103609
0.0673864
9.79428e-06
8.78106e-08
-0.0109393
-0.233812
0.0132344
0.00299802
1.13404
0.000572376
0.0011429
-0.494063
-0.248154
0.000806384
0.0388912
0.0124042
0.0381797
4.86085e-05
0.0115521
0.255863
-2.2218e-06
0.451128
-0.194536
0.000333483
0.00246047
3.67144e-06
-0.0713889
0.00433609
-0.0293145
2.41018e-06
-4.32354e-06
3.96213e-05
0.0019119
-3.75531e-06
-0.223084
-4.40547e-06
0.0132489
5.61076e-05
0.00390678
1.33188e-06
5.76019e-07
0.000995146
-0.0521444
0.00218184
-0.218439
0.000869702
-4.5391e-06
4.28739e-06
0.00323943
9.41783e-05
0.00701299
0.000255407
0.00067694
0.0168133
4.02402e-07
-0.037381
2.48627e-07
0.0055112
-0.0877905
-0.0409293
-0.00312839
-0.0546346
0.00478038
0.0118614
-0.180869
1.6143e-05
-0.264043
0.000169881
0.000991277
-0.16377
1.50562
3.48833e-06
0.0074264
3.56935e-05
0.0369778
0.0611942
2.31619e-05
-9.59809e-05
0.566772
3.38132e-07
3.77899e-07
0.00377218
-0.0514229
0.0295823
3.6175e-06
0.0124195
0.0001292
1.20796e-07
0.0212964
0.0110122
0.0162103
-3.61422e-07
0.00604852
0.000997088
0.00315962
7.25438e-06
5.93526e-05
0.00152281
4.11579e-05
0.00640204
0.00260834
0.00257466
0.00730497
0.151091
0.0570896
0.497012
0.259456
0.00741535
0.0485117
2.9796e-05
0.0232205
0.00696422
1.00973e-05
0.00104081
0.0437289
0.00033437
-3.07571e-06
-3.19179e-06
0.00563752
0.0611399
0.0005698
-0.196191
-5.06655e-06
0.0261398
0.00899771
0.167878
0.0070948
0.000384286
0.000219839
0.129812
0.0226037
0.000274853
0.0126083
5.54184e-05
-2.38509
0.00556473
0.0142861
0.00103205
0.10089
3.33035e-07
4.15745e-07
1.31876e-05
2.98309e-07
0.109062
-8.31641e-06
0.0214016
0.00908431
0.00617609
-0.333285
0.128543
0.0164926
0.0533614
-0.000594173
1.01568e-06
1.80285e-06
-2.42111e-06
2.77324e-06
-4.95827e-06
0.00354096
0.0166373
0.000911875
-0.00298448
7.23309e-05
0.0129451
1.51981e-06
-0.075037
0.0010379
8.58948e-07
9.40267e-07
-0.125712
0.000406195
-0.0917552
-0.119044
0.0023251
0.00378062
8.34205e-06
0.101238
9.09871e-05
0.000216742
0.0160483
7.63063e-07
1.70623e-05
1.29988e-05
0.00227236
0.0732541
0.000666173
0.00109606
0.0588226
-0.268411
-6.48795e-06
8.45747e-05
0.0853233
-2.77792e-06
0.0784348
-2.89654e-06
0.000150801
3.00309
0.00485824
0.0101406
0.00737384
0.00223572
8.6681e-07
1.59013e-06
0.00416268
5.336e-05
1.20344e-06
0.000659339
0.0614052
-5.86758e-06
0.0039353
3.6716
-0.0463874
0.00526509
-0.275426
-0.00157946
7.44575e-07
0.0140712
-4.4312e-06
0.000450678
0.110343
-0.00586007
-0.262882
0.0905884
2.74597e-05
1.98756e-05
0.00682556
4.95798e-05
6.73397e-07
-0.282328
0.0162999
0.545114
0.00541359
0.00512826
1.58049e-07
-2.02212e-06
0.887343
0.00554514
0.000180348
7.56306e-07
0.0089196
0.00537058
-0.167957
5.43727e-06
-2.57133e-06
0.0577653
6.13049e-06
0.00117929
-5.37711e-06
-0.217452
-2.19798e-06
-0.0981554
9.44922e-08
0.00730774
0.00182904
0.00298553
0.00107693
4.18116e-07
0.000230349
-5.67851e-06
0.0208977
8.23653e-06
0.0140131
6.03046e-05
0.0660532
0.142084
0.000889066
-7.64544e-06
-0.106375
-0.359859
0.000449237
0.00474733
1.34225e-06
-0.010442
1.03578e-05
0.0448331
-2.06885e-06
-5.60698e-06
-0.0629703
0.00122648
-2.39184e-06
0.000926318
-0.168436
-0.0259361
0.517864
-2.40093e-06
0.0419
-1.29776e-06
-5.83764e-06
3.4814e-06
-4.70687e-08
-1.02715e-08
0.290215
-0.235219
3.5604e-05
-4.48079e-06
0.00157812
-2.94605e-07
-0.112372
0.0139286
0.0902811
-0.345046
0.000225223
0.00600651
-2.07398e-06
0.00206771
0.00213478
1.68503e-05
-1.81009e-06
-1.04935
0.0857798
0.00377785
-0.216011
0.0035735
-4.22339e-07
0.00165762
0.00472139
0.00562933
0.00108882
0.013178
0.00555182
-1.00333e-06
-0.458343
-0.638084
0.0941558
2.53821
0.0235173
6.33534e-05
-0.0123451
4.71696e-07
0.0418472
0.000319146
-8.16698e-06
0.330136
6.40024e-05
-6.82234e-06
9.79316e-06
5.16828e-05
-0.194512
0.0377912
-3.76277e-06
0.00161821
0.0452921
8.73436e-05
-0.184382
2.46623e-05
0.00486637
-0.0855044
-3.92869e-06
0.0150486
0.000450678
0.00098993
-0.0195046
6.43603e-05
0.0436996
0.00338435
-0.144964
4.51932e-05
0.0333626
0.000849417
0.0368301
0.143483
0.0143219
0.00234246
6.69159e-07
2.79314e-05
2.94437e-07
0.00157916
4.79896e-08
0.0609488
0.000310558
9.06806e-05
-0.000222308
6.22491e-05
-2.59982e-06
0.000444999
0.000391824
0.000160056
0.000314125
-0.0759964
0.0199288
0.000782888
0.00119904
0.335947
1.4985e-05
-0.164384
-3.14377e-06
0.000559235
8.35175e-06
5.78044e-06
0.000811202
-2.83839e-06
-4.13784e-06
-0.00481336
6.48858e-07
0.0510933
7.8417e-05
0.449593
-0.00457195
0.00668011
0.0277523
2.71524e-05
-0.284021
0.00702403
-5.36738e-07
0.000376833
1.21455e-05
-0.186074
2.14607e-05
0.000718447
-0.0584975
-0.123421
0.00154093
2.44864e-05
-0.000946928
-0.0401813
0.0209473
0.000441567
-4.7295e-06
1.24569e-05
0.00375281
3.35094e-07
0.325977
0.000649136
1.9778e-07
0.0198764
0.0617372
1.16052e-05
-0.00564552
-0.0897822
0.0170752
6.88365e-05
0.0102611
0.00374668
-4.34787e-06
0.210002
0.000158126
8.9296e-06
-1.71895e-06
0.000966265
0.00164708
-0.00256327
-0.241771
0.00189661
-0.0358305
0.00119791
-6.21065e-07
-0.00358308
-3.35061e-06
2.37376
1.39046e-05
-5.50574e-06
9.96787e-05
5.04975e-05
0.0887343
-0.0125921
0.0049509
0.170276
-0.350185
9.85065e-05
4.79128e-07
7.86473e-05
0.0453354
1.35624e-05
2.32559e-06
0.001138
0.812174
0.0114239
-9.24906e-07
0.000802316
0.00110907
0.0066856
-0.0529847
7.39534e-06
4.55775e-07
0.000156698
0.754031
0.000648965
-0.0110384
5.65009e-05
-2.60154e-06
1.11993e-05
-1.2144e-06
0.000141925
0.0176091
0.0191271
-0.0546531
-0.000186118
-2.2803e-06
0.932698
5.14314e-05
0.403156
0.0685092
0.000144137
-0.0595028
0.109641
-0.201426
0.0027803
0.00105746
0.0373286
0.000894827
0.000279814
0.00330797
-0.0183894
4.86752e-05
0.0327503
-5.49085e-07
0.39691
0.623268
-3.14657e-06
5.61531e-05
0.000885803
0.0400263
0.00122275
-3.63688e-06
0.000639474
8.29675e-06
0.000363474
0.0678773
6.61677e-07
-0.641329
0.0716517
-3.20436e-07
0.00094248
0.00164609
-2.14116e-06
-0.0083014
0.152893
-0.295095
0.0443204
-2.88229e-06
0.000167494
0.000346166
5.53609e-06
0.00471018
0.00124943
5.8747e-07
0.00345815
4.09252e-05
0.157611
0.00185125
0.0928927
1.18696e-05
8.18895e-05
0.00887441
0.00533595
0.00425612
-7.0654e-07
0.223063
0.118117
-0.0997113
-0.0407659
0.489924
-0.0263918
0.0393184
-1.14258e-06
-1.32893e-06
2.0216e-05
0.0127557
0.00214553
0.00424213
0.000150783
4.12216e-05
-4.56394e-06
3.43136e-07
0.0114568
-3.48796e-06
0.000463254
8.4924e-05
0.00637821
2.5094e-05
-4.66459e-06
-1.26442e-06
5.82428e-07
-4.04673e-06
0.000252671
0.00431277
0.000268217
2.02859
-1.16736e-06
-8.65962e-07
0.0176854
0.167576
0.0787203
-0.00693087
-0.00230748
0.0403136
-5.1173e-06
0.00108704
8.10364e-05
-9.38278e-08
0.000225297
-0.110187
0.000106763
0.00523344
2.663
4.24327e-05
4.25599e-06
5.94965e-05
0.017332
9.11771e-07
0.0157989
2.14813e-05
0.0108582
1.14803e-06
3.58909e-05
0.000460073
-0.000982493
2.39131e-06
0.00172491
-0.156009
0.0111213
0.186464
1.2078e-07
0.00173319
0.0388194
-8.68383e-07
0.583686
5.77613e-06
0.00215572
3.16161e-06
3.81807e-05
-5.4638e-06
8.96945e-07
3.19308e-05
-0.000119504
0.00406873
2.89422e-05
1.45336e-06
-0.00205217
4.20811e-06
-0.189613
7.15666e-07
0.00101028
0.00114001
-0.0671959
0.00934317
1.7357e-07
0.0178362
-5.5947e-06
0.0007851
0.00145758
-0.00621547
0.00251072
7.0043e-07
0.00545955
0.00385629
0.00498208
0.00878721
0.00028499
0.0122615
0.00302254
0.0039336
2.74592e-05
4.40203e-06
-0.0559085
-0.105322
0.000194305
-4.29882e-06
-0.148483
-4.54099e-06
0.00197109
-3.29186e-06
0.00468971
0.758291
2.01149e-06
-0.0073071
0.000390402
-2.42729e-06
0.00581642
-8.07975e-06
0.0027075
0.0486121
0.00163599
-0.056736
-5.81163e-06
1.16321e-07
0.00613982
1.3962e-07
-8.94216e-09
0.000585155
0.00074768
0.00410944
0.00353786
2.59804e-06
0.000795037
2.17857e-06
-2.62008e-06
1.6259e-07
-6.99051e-07
2.49082
1.42821e-05
2.33144e-05
0.00304138
-4.5969e-06
-4.71552e-06
0.116901
4.05685e-07
0.356737
0.000121317
0.0114359
0.00692172
0.000140455
2.26448
0.0023317
0.0440597
5.05573e-05
0.00250143
0.000372109
3.34668e-06
-1.39372e-06
2.34341e-05
0.000916074
2.15964e-07
0.00166
-4.85154e-06
8.53334e-05
-0.0636321
0.0910774
0.070006
0.000216704
-0.0114725
0.0289842
-0.243626
-1.57039e-07
0.000433249
0.0982814
3.26568e-05
0.0010771
-4.26029
-0.0766195
0.000493386
0.00210873
4.41547e-05
0.0691716
1.60268e-06
0.000320706
0.0374905
4.72036e-06
-8.91203e-07
-0.151473
0.0014085
0.00418336
0.154693
0.00569982
9.31225e-06
-4.98916e-06
3.76233e-05
-0.0555239
0.168123
1.75501
0.00220472
4.60965e-07
-0.0658318
-6.27303e-07
0.00255526
-0.000354818
0.000134935
0.00202692
-1.91594e-06
-0.108686
-0.327952
9.52453e-06
0.00371734
0.00224801
5.92125
0.00162175
0.00298302
0.00383926
0.00116212
0.0194396
0.00345056
3.74476e-07
0.00134773
-0.00284606
0.0602159
-2.95524e-06
0.0067434
0.00176138
0.00314792
8.54145e-07
-0.382301
0.000406224
5.87732e-05
1.62511e-07
0.000802514
0.000788279
0.000810155
-6.66582e-06
3.71586e-05
0.00184219
0.0852898
0.00232023
2.81705e-07
8.57729e-06
0.00132363
0.0371008
-6.15032e-07
0.00457028
0.273332
0.00102229
-0.146191
0.00157967
0.169771
0.0372127
-7.46615e-07
1.14809
-2.27964e-06
0.000177622
0.00107102
0.00126433
0.00818657
0.00230834
0.000820909
0.000975182
0.000830283
0.000102091
-2.8879e-06
0.0037526
0.000338241
0.000144116
-0.000873086
0.000271216
-6.38264e-05
-3.00697e-06
0.0653486
0.00394845
3.43734e-06
0.000255624
8.4562e-06
0.0136468
0.0093401
0.00107412
0.0882456
0.00788624
0.677154
0.00617055
0.016625
-4.5564e-06
0.00930483
2.04411e-06
4.00185e-05
0.421655
0.00291609
0.0152372
0.392593
8.14378e-07
0.0178321
-4.25185e-06
0.00457471
0.000137947
0.0712284
0.235356
0.000348847
-6.63946e-06
0.00612349
0.00429275
-2.22702e-06
-0.0893597
7.44007e-07
5.97174e-05
0.000336521
3.3583e-06
0.000763553
1.02794e-05
6.10351e-07
0.000539562
0.0843312
0.00187262
0.00235693
-3.15258e-06
0.108204
-0.0105773
-7.00817e-06
0.00314822
0.000134892
9.59171e-05
0.957787
-6.15515e-06
2.17127e-05
0.000120791
-0.112725
-2.36384e-06
-2.46334e-06
0.00154689
0.0146776
-6.72056e-06
0.000254446
0.000469217
0.000307333
0.00157821
0.00143116
0.0202654
8.18358e-07
-0.0196721
-4.4029e-06
0.322376
0.000656978
3.90397e-07
0.000469335
0.00573187
-3.161e-06
3.14492e-05
0.00700786
0.0608205
5.14875e-05
-0.0931739
-1.66811e-06
-3.781e-06
0.00355577
-3.36848e-06
1.38082e-05
-0.0879221
1.26011e-06
0.00180726
0.00664652
-0.204848
-0.00887134
1.30534e-05
1.5754e-05
8.64297e-05
-3.95077e-06
1.43749e-07
-1.4547e-06
0.0415051
-2.60196e-07
0.016973
0.00704222
-7.63452e-07
4.40593e-06
0.000737685
0.00694549
0.00111825
0.00426816
0.00243874
9.53592e-05
0.00662902
0.00470556
0.000764646
0.00187555
0.00168697
0.00661711
-0.763109
0.00147026
0.0208265
0.060798
-0.141881
0.000254651
2.51275e-06
0.00106812
-0.000129594
6.78494e-06
5.03719e-05
0.00726817
-8.51335e-07
2.90563e-05
-2.552e-06
5.22968e-07
0.000151388
2.13586e-05
-0.116639
-6.99538e-06
0.250049
-3.57978e-06
0.00685185
5.17665e-05
0.00889472
0.00283455
1.01469e-06
-0.00636439
1.5615e-05
-1.43476e-07
0.00180108
2.31501e-06
0.000214495
1.5716e-05
0.034581
0.000133502
0.00178912
0.00375248
-0.0381044
0.000259169
0.0153529
0.00150221
0.00116178
2.64972e-05
9.29167e-05
0.0037839
0.00335304
0.131305
-7.71047e-07
-0.169249
8.45012e-06
0.00369349
-0.249418
0.000766915
0.0594153
0.000194804
0.00104111
0.000124474
-0.355951
0.000678336
-4.57747e-06
0.00121806
0.0154276
0.00010079
-1.1394e-06
-3.67542e-06
-0.380293
4.7389e-07
0.0002252
0.170945
0.000151538
-6.30586e-07
0.00160326
0.000179013
0.0368117
-3.97617e-06
-5.34416e-07
-5.17615e-06
3.82587e-05
4.72099e-05
2.67004e-05
0.00359246
0.123765
-1.08089e-06
9.91474e-07
1.25543
4.4252e-05
-0.00829932
0.00015263
-0.42436
2.84235e-07
9.23319e-05
-5.12305e-06
0.0676444
0.229903
8.73873e-05
0.00367172
-8.68877e-05
3.87884e-07
1.23158e-06
0.0548195
-4.59226e-06
0.00450775
-6.78362e-08
0.00182171
4.31858e-07
2.22977
-4.99698e-06
0.00217642
-3.34675e-06
0.0749047
0.519684
1.05586e-06
0.000768803
-0.329029
0.00392711
-0.012166
0.0652892
0.0334829
1.47246e-05
0.00117011
0.00674071
-0.0512771
3.9475e-05
0.00147279
8.94381e-05
4.46577e-06
0.0216904
-0.36083
0.00403047
0.00668469
0.00755451
0.000524391
-0.046046
4.86263e-06
3.60826e-07
0.0022947
-0.267632
0.0330405
0.00336771
-0.0233261
-5.4694e-06
-0.368231
0.36019
-0.284225
-2.02485e-06
0.0369525
-0.245211
0.25364
-0.151402
0.046575
0.00473344
0.000720761
0.0162741
1.62921e-05
1.30059e-06
0.247856
0.00573698
-1.65678e-06
0.118304
-7.59169e-07
0.000885328
0.00201294
8.92018e-05
0.90193
0.000214509
-0.0872141
0.00211142
7.57175e-05
0.0228531
-0.0903714
0.00596945
2.53659e-06
3.4839e-05
0.00436706
0.00152453
-5.68127e-06
0.00187921
0.000126337
0.0071347
-3.79444e-07
0.0281886
0.000116221
0.00134529
0.0632819
0.0194624
7.51069e-06
0.0101766
-0.0705373
5.01038e-06
4.55694e-05
-0.34196
0.0297941
0.000180947
0.000240483
-2.22628e-06
0.00257008
0.000322525
0.0950586
0.00627883
1.25466e-05
-1.97795e-06
-0.00667547
0.000333324
0.00956366
0.0483123
-1.91025e-06
-2.18781e-06
0.000396126
-1.59679e-06
0.000191248
5.35023e-05
6.83785e-05
5.13529e-05
-1.10681e-06
0.0001259
3.16707e-06
0.00229937
-0.0275563
1.74441e-07
0.115912
-0.136348
-4.14924e-06
0.0213183
0.00490539
0.00374609
2.09513e-05
0.00585561
0.000486555
0.00472009
0.000772379
9.39447e-05
-1.98933e-06
0.101653
0.000512054
-0.0432969
1.86046e-05
-1.91256e-07
-3.20978e-06
0.00162277
-1.65391e-06
0.00236715
0.00329942
0.0754322
-4.05069e-06
0.00805494
0.956826
-0.0627031
-4.55953e-06
0.00760014
0.00802458
0.844873
1.11556
3.73271e-06
2.07496e-05
0.0147538
-0.0043026
-0.0216187
0.00184129
0.000727181
-2.28844e-06
5.63381e-06
0.000678784
-5.92789e-07
5.02518e-07
0.00809541
4.98463e-07
0.00753418
1.52497e-07
-0.0373318
0.425853
0.151892
0.0498499
-0.104755
1.58499e-06
-2.05465e-07
-0.0111968
4.40452e-07
1.32685e-06
-3.64811e-06
0.00743332
0.0342715
0.0927707
9.99296e-05
3.37502e-05
8.00771e-05
0.000517065
0.0709889
-5.41366e-06
0.0709431
-0.0236281
-1.02571e-06
1.26882e-06
0.0738192
0.00401896
0.00012961
-9.3766e-07
0.561418
-0.0901849
1.63998e-05
0.0154655
4.46412e-07
0.0990659
0.264724
0.00013532
-0.145794
-0.025374
2.00419
-2.85885e-07
3.96913e-05
-1.31377e-07
3.5788e-07
0.207018
-7.13089e-07
0.0313604
0.0146444
0.160692
6.27815e-05
0.00204223
0.0066112
0.0019179
0.0951763
-0.190949
-3.82802e-06
0.000349926
0.000367336
0.00775669
-0.184558
5.9979e-08
0.0708368
0.000433415
0.00207212
2.02692e-05
-6.4022e-06
0.0234386
0.00114023
-0.104511
-8.39949e-07
0.00183844
5.47035e-05
0.00947275
0.000213872
0.117653
0.0298307
0.0737325
0.0052215
-6.31216e-07
9.46248e-05
0.00536822
0.0224355
-0.0219138
-0.230129
-3.36882e-06
0.0393784
-0.00457393
-0.423958
0.000397245
0.00132978
0.00134598
2.01803e-05
1.34918
-2.28407e-06
0.00107877
0.0307168
-0.0832083
1.42998
-0.0282924
0.000265682
0.00235877
7.44458e-07
-0.0345897
0.000236384
2.10674
1.31444e-06
-0.24562
1.69628e-06
-3.10876e-06
0.00101859
0.000145247
0.000264108
1.74617e-06
0.410352
0.00207554
-1.90687e-06
0.000822688
0.0924519
0.0597233
-1.21737e-07
-0.237817
0.000152225
0.00120736
0.000950274
-5.29324e-06
0.00255824
-3.14097e-06
0.623927
0.00416139
0.000441789
-1.48203e-06
0.0524826
0.00157422
3.08864e-06
0.610649
0.259769
0.00793538
9.71324e-06
-0.00283376
1.89291e-07
0.010283
0.000520852
0.00359801
2.58832
0.10928
0.000318624
-0.0104383
0.00131448
-0.000254138
-3.15409e-06
0.564599
0.000136471
0.00659877
0.00397423
-1.22315e-06
0.0543919
0.00167315
0.0444783
0.00582938
-0.26176
0.475945
2.2486
0.00551622
-0.000161015
0.000146023
-6.34665e-07
2.03659e-05
-3.07307e-07
0.01578
0.000274982
0.000402472
-0.337046
-2.1112e-06
-5.59485e-06
0.00184115
0.0156179
0.000567003
-4.64163e-06
-0.157019
0.000190865
0.00228703
9.82247e-06
-0.117415
0.000142309
0.311028
0.00206355
0.00119324
0.00155235
-5.40885e-07
-0.118507
0.00425111
0.00310387
3.88329e-06
-7.59862e-06
0.0558508
-0.177615
0.0623813
6.43849e-06
0.00310575
-0.0267696
2.16069e-05
-4.51656e-06
1.09561e-05
0.0459793
-0.00463564
0.000545359
0.000455218
0.000402162
0.326091
0.00386622
0.00868854
0.000403265
0.00106315
1.19166e-06
0.0129653
0.00181192
-5.80515e-07
-0.0101359
-0.209479
-0.171096
0.0704596
-0.201005
-0.256666
0.0184796
1.03954e-05
1.3283e-05
0.551851
-0.0232201
2.20502
4.34067e-06
0.00176397
5.95839e-07
-1.72391e-06
0.0438527
-0.0686182
0.00344844
-3.258e-06
0.0261541
0.00531133
0.00217605
0.0443696
1.80272
0.0069843
-7.64498e-06
0.110708
0.0165872
0.0532914
0.000979325
0.00190473
1.43842e-06
-3.89504e-06
0.00132981
0.00169101
0.00014807
0.0018451
0.000575905
0.000133173
0.0142873
0.0609984
0.000229913
0.00203533
0.159849
0.0113215
1.10687e-06
0.0101982
0.0488138
0.0573869
0.00135243
2.46751e-05
0.000741869
0.00034646
0.000218865
-4.83115e-06
0.000557582
0.000922974
0.00234773
0.0216058
-1.20734e-06
7.75676e-05
0.0267096
0.0941164
-0.151258
0.00368524
0.00569738
7.13688e-07
1.46928e-07
0.000794403
-3.854e-06
-0.362491
-6.37756e-08
9.69066e-07
-2.59473e-06
-0.0247967
0.0951479
9.18732e-06
0.00350813
0.000386837
0.000454923
0.000733406
0.000157905
0.0018184
0.000990833
-0.0340374
0.000405718
-0.0299389
0.000972223
-0.205359
0.000618185
-7.82134e-06
-3.56166e-06
0.00564015
0.00694241
-5.66525e-06
0.000722702
0.000652543
0.00229902
0.0545601
-0.121975
-0.000784835
1.14578e-06
0.172876
0.000461971
0.000646146
-9.65226e-07
0.00300721
9.09135e-05
0.0176107
0.0784607
0.000831299
-2.5625e-07
0.0924559
7.64448e-05
0.03632
-0.00103536
0.0142375
0.000122388
0.011816
-0.022946
0.12279
0.0802701
0.00230597
7.8286e-06
0.000946275
1.15314e-05
-0.130645
0.000128971
0.000764489
0.0251166
-0.329004
5.98977e-06
1.0653e-07
-0.111653
0.00128534
-0.302385
0.000183593
-6.54432e-07
0.00152621
0.0160105
0.00103731
0.00389595
0.000666217
0.0842467
0.000255776
9.45425e-07
1.78287e-07
0.0261926
1.06859e-05
-0.00592103
1.29706e-07
9.75463e-06
0.0357558
0.000415927
1.92189e-05
-2.96124e-06
0.000685611
0.0434448
0.00202937
0.00135771
7.6996e-05
0.00266012
1.79184e-06
0.0130883
0.000802834
0.00193696
0.00170238
0.000512642
0.00156703
0.00225909
1.02982e-05
0.00394535
-0.505004
0.0467514
2.73121e-05
3.58062
0.0395745
-9.69075e-07
8.63163e-06
0.0398408
0.0566937
0.000220645
0.0712528
0.0129517
2.86957e-05
0.00543827
-1.08547e-06
0.000383746
0.00291621
0.229362
-0.00655971
0.01397
0.00223626
0.0321373
0.00824689
0.000134845
0.0296793
-1.17543e-07
0.025152
0.0102014
-9.27449e-07
-5.47353e-06
0.0460958
7.05393e-07
-2.78277e-07
0.0302561
-0.0911133
0.0171928
0.00038922
0.0269709
-6.37509e-06
0.042377
0.0439635
-1.994e-06
0.0338018
1.1203
-0.0823554
0.104291
0.0622678
0.0582867
-4.3562e-06
1.45281e-05
0.00303801
0.00360649
-2.50933e-07
0.0128447
-4.51745e-07
0.0871444
0.0269543
0.000498315
0.00718014
0.123681
0.0244114
0.00569993
-0.00757267
-0.12905
0.0913821
0.000308853
-2.10092e-06
0.0371529
0.000384168
-4.43832e-07
-0.419932
-1.31991e-06
0.0232876
1.33541e-06
-0.143865
0.000325047
-1.45114e-06
0.770553
-1.97262e-05
0.000179596
0.032646
0.119098
-1.41488
0.000535648
0.00203688
3.96976e-05
0.0016615
0.00678052
0.00180766
1.04554e-06
0.00414358
0.00323555
0.000481481
0.0987894
0.00175792
0.000496886
0.0206872
0.00421619
0.00215053
-1.59652e-06
0.0134946
-3.22724e-06
0.00727556
0.0221996
0.0358463
-5.33735e-06
0.0012062
-0.0676797
0.000124938
0.00265479
0.000829941
0.0015612
0.443049
0.00323584
1.8586e-05
0.103205
-4.90652e-06
0.0775435
-2.01352e-06
9.36463e-05
0.0085393
0.0549663
0.000496004
0.0376349
0.0519112
0.000916761
2.97883e-05
0.0161212
0.0016298
-0.35655
3.72574e-05
1.34033
0.00727838
0.000923231
0.000696708
0.00306019
0.000879268
0.00920022
0.00321908
0.000707343
0.000186176
3.30018e-05
3.5546
-1.81248e-07
0.000587012
-2.36278e-06
0.00646855
0.00064722
0.00316044
0.0649941
6.34901e-06
0.0305413
-5.79925e-07
1.79587e-06
-1.37209e-06
1.6525e-06
0.000418325
-3.96988e-06
0.00516827
0.260902
0.00328089
0.00213028
0.000283786
1.15152e-05
0.0189738
1.46907e-06
-0.0848857
0.234221
-0.113315
0.00622191
0.000638384
0.000481646
-4.59584e-07
0.000166523
-0.000554198
0.00111345
-0.130004
0.0032432
-0.23981
0.00720035
-1.42864e-06
-5.71846e-06
0.0446667
-1.39739e-07
0.000789122
-0.00449753
0.00480705
0.000130455
0.0633808
1.02034e-06
0.000251543
6.10922e-07
1.63196e-05
0.020785
0.0053844
2.34232e-05
0.000981743
0.00375206
0.00222935
0.00308359
0.0385121
0.0284252
0.0367254
0.0077683
0.000349915
7.4271e-05
0.00302405
0.0112648
0.209601
0.0816742
0.000979675
-0.0782818
0.0052296
7.71521e-05
-3.4543e-06
0.0032143
-8.11133e-07
0.000953181
-0.0798665
-2.17074e-06
3.82253e-06
0.0791008
0.0306057
0.00231506
1.28895
1.41312e-06
0.0508727
0.0010712
-0.190673
0.00111243
2.95944e-06
0.0240557
0.00477138
-1.32334e-07
0.00361764
8.92011e-07
0.00976325
0.000570694
0.00746308
-0.3836
-0.00113574
1.27608
-2.9741e-06
-0.223193
1.89233e-06
0.000356247
3.53073e-05
0.00146797
-3.45551e-06
0.00166856
0.0803206
-0.110657
0.00221058
0.000453567
0.00603254
3.6395e-06
1.88948e-06
0.000105556
0.0212873
0.000324008
-0.0830559
0.0439602
0.0128191
-1.7524e-07
0.00676662
0.0291017
0.0144307
0.000340823
-0.0128018
-5.32567e-07
7.95201e-07
-1.59828e-06
0.815444
1.97693e-05
-3.39477e-07
0.0875618
-1.40567e-06
0.00121337
-0.00100575
1.09276e-05
0.0664209
0.000532687
-0.138099
6.28329e-06
-0.0132305
6.31455e-05
-0.000524366
0.156882
0.00354653
-2.22737e-06
0.000493079
0.0324695
0.000932959
0.0105358
0.000903425
0.000322204
0.00904933
0.000202592
4.42717e-05
-0.342258
0.000627143
0.000580479
0.00837105
-1.8567e-06
-1.44616e-06
-2.62605e-06
0.000781934
3.01164e-06
0.000157293
1.65697
-0.312524
-0.00557791
-0.134907
0.00319396
0.00106551
-0.364139
-0.194454
6.85431e-06
-0.126059
0.169995
0.288191
1.25423
0.000804513
0.0339977
0.00162459
0.0673162
0.0824434
0.28128
0.000548016
0.00250273
0.0001711
0.000366378
3.32643e-06
2.09072
1.29941e-06
-0.0822236
-0.00177962
0.0240683
-3.49233e-06
0.00437169
0.000638639
1.13672e-05
1.05961e-06
-6.18516e-06
-0.0029274
0.000156609
4.2683e-05
0.00173729
-0.249234
0.000208832
0.0173855
-5.42222e-06
-0.00477351
0.00429814
3.83658e-06
0.000211041
-3.93653e-06
-0.141801
0.125767
0.00676404
1.2222
0.000393534
0.00495495
5.13019e-07
0.00188279
-3.76692e-06
2.86867e-05
3.17561e-07
0.273669
-2.00911e-06
0.00211007
-0.0635031
0.000261403
0.000915036
-1.95094e-06
-0.420178
0.0103387
0.23834
0.0426809
0.00881444
0.0575908
0.808735
0.0283951
0.02096
-0.10475
-0.000740637
0.00372808
1.14917
-0.0609691
-5.87428e-07
-0.121398
0.0098214
0.290482
-3.59921e-06
0.00356494
-0.479755
1.12138e-06
-0.0495723
2.67866e-05
0.0646663
-4.39697e-06
3.78117e-07
0.00283017
0.0150945
0.000434867
0.00297686
4.63447e-06
2.62942e-05
0.0659815
2.15116
-0.541497
0.00272611
4.37055e-05
5.4189e-06
-2.09007e-06
0.000436783
0.0536169
0.07383
0.0585626
1.81921
0.000778124
-6.27054e-06
-6.36456e-06
-0.114843
-0.119792
0.0222599
4.60278e-05
0.000158612
0.00648942
-0.12871
-0.163917
1.45462e-06
-2.89726e-06
0.00285083
8.35861e-05
-0.00233127
0.000119922
3.53462e-06
0.000378447
0.00109498
0.0921475
-0.0709444
-2.67231e-06
4.33793e-06
0.000212971
0.0148576
-0.453793
9.09301e-07
0.00837915
-0.0953553
9.19621e-07
0.0350052
-0.0446054
-0.311179
-1.7905e-07