/*--------------------------------*- C++ -*----------------------------------*\
| =========                 |                                                 |
| \\      /  F ield         | OpenFOAM: The Open Source CFD Toolbox           |
|  \\    /   O peration     | Version:  v2012                                 |
|   \\  /    A nd           | Website:  www.openfoam.com                      |
|    \\/     M anipulation  |                                                 |
\*---------------------------------------------------------------------------*/
FoamFile
{
    version     2.0;
    format      ascii;
    class       volScalarField;
    location    "900";
    object      ddt0(k);
}
// * * * * * * * * * * * * * * * * * * * * * * * * * * * * * * * * * * * * * //

dimensions      [0 2 -3 0 0 0 0];


internalField   nonuniform List<scalar> 
13917
(
-2.97164e-07
-3.6708e-07
-0.00436855
-2.75561e-07
-6.24788e-08
-4.57738e-06
-0.00272403
-0.00490975
-0.00518682
-3.9163e-07
1.884e-06
3.47122e-07
-2.11269e-07
6.15188e-05
-1.96715e-07
-2.55917e-07
-3.78297e-07
1.61668e-07
2.05488e-07
-1.25787e-07
-4.98679e-09
-0.00252497
-9.02789e-08
-0.00538232
-1.73846e-07
-0.00252537
-3.34131e-07
2.23064e-07
1.86432e-06
3.5879e-07
-1.75699e-07
-3.41083e-07
-6.02853e-08
4.44323e-08
-1.10974e-07
1.51772e-05
-9.04114e-08
0.000365747
-1.92038e-07
-0.000479142
-2.57702e-07
1.73193e-08
-1.01214e-07
2.61982e-07
-3.31467e-07
3.67716e-09
6.44226e-08
7.33561e-07
3.14923e-06
-2.30192e-07
-3.65639e-07
-5.39155e-08
-1.3245e-05
-4.09802e-09
-3.62145e-07
-2.973e-07
1.89752e-06
-2.16212e-07
-3.63207e-07
-3.57483e-07
0.000647344
-3.77161e-07
0.000155063
-1.4097e-07
-3.24639e-06
0.00109364
-4.04011e-09
-1.91734e-08
1.81132e-06
-3.00717e-07
-4.89934e-08
-0.0050023
0.00208191
-1.36798e-07
6.22479e-06
1.97353e-07
0.00109042
-3.73174e-07
-0.00242308
-6.43554e-09
-1.43191e-08
-6.31206e-10
-3.06551e-07
0.000353437
0.000403526
-3.15906e-07
-5.25488e-08
0.000198863
-1.46291e-07
-8.3737e-08
0.0015676
-8.99699e-09
-3.38871e-07
-1.81696e-07
3.95754e-05
-1.03187e-07
1.49939e-06
5.37364e-07
1.56791e-06
2.18406e-07
-2.21761e-07
3.11551e-08
3.31038e-07
-3.12516e-07
-2.6086e-07
-0.00471718
8.14245e-07
7.76315e-07
-3.67985e-07
-2.65248e-07
0.00347313
-0.000572294
9.77186e-07
-0.00492138
-1.98206e-08
5.19662e-06
-1.6449e-07
2.46507e-06
-0.000324401
3.90034e-08
1.74602e-08
2.123e-06
-0.000198001
1.29211e-07
-2.39849e-07
-1.96362e-07
-3.83384e-07
-2.48892e-07
-1.18355e-07
-2.36177e-06
-0.000499361
-1.48936e-08
-3.39417e-07
5.47971e-09
5.57067e-05
-0.00558408
-3.14114e-07
5.16923e-08
-6.15491e-09
4.26358e-08
2.01483e-06
-2.66264e-07
-8.86429e-08
2.57683e-07
-1.27168e-08
-0.00309673
9.17478e-07
-4.61574e-08
-2.21013e-07
-3.21824e-07
2.36709e-07
5.90253e-06
1.21735e-06
-3.56558e-07
-3.56184e-07
-0.000830666
-3.06702e-07
1.35902e-05
0.000972498
5.02359e-05
-9.70745e-08
-4.17261e-07
1.9565e-08
1.51084e-06
9.92293e-07
1.43383e-06
-3.07228e-07
5.52639e-07
-3.31691e-07
-5.83525e-08
-2.9899e-07
0.00184426
1.03784e-06
-3.38854e-07
-0.000862178
-3.21895e-07
-0.000602986
3.69912e-06
-0.00258484
-3.24001e-07
2.11042e-07
-1.91913e-07
-2.68422e-07
-4.78776e-08
-6.67533e-08
-0.00315908
3.17504e-06
-0.00234389
2.30988e-08
1.6979e-06
-1.12143e-05
0.000356635
6.27092e-07
-1.05515e-07
5.28679e-07
-7.73621e-08
-2.59403e-07
-3.70445e-07
-4.39945e-07
-2.64476e-05
-2.35303e-07
-2.31171e-07
5.29017e-07
1.95561e-07
0.00189805
1.90782e-05
-1.11404e-07
-2.24805e-07
5.27782e-07
-0.00393412
-9.34973e-08
-0.00270131
0.00153397
1.67266e-06
-2.47603e-07
1.84614e-06
3.96635e-07
0.002324
-1.95329e-07
0.00473737
-3.11624e-07
5.25716e-07
-2.63476e-07
0.000667837
-0.00484272
-2.52783e-07
-7.97903e-06
-3.20184e-07
-2.53873e-07
1.6981e-05
8.95457e-07
1.86206e-08
-0.00555708
0.00136071
-2.26613e-07
-3.18832e-07
0.00154932
0.00044356
-2.48434e-08
-1.97325e-07
-0.00069473
1.4092e-06
-2.34357e-08
-1.86757e-05
7.5662e-07
2.62447e-07
-1.33043e-07
2.24313e-09
-1.84041e-07
0.00125453
-1.99407e-07
1.84363e-07
4.0287e-07
-3.45388e-07
-2.11838e-07
9.4305e-07
-0.000742917
1.29995e-06
-8.96551e-08
-2.11514e-07
-1.53615e-08
-0.000169254
-0.00281188
2.35142e-05
-2.85276e-07
0.00247308
0.000274121
3.09224e-05
-0.00211526
3.61973e-07
3.71313e-09
-2.63704e-07
2.50895e-07
0.000886816
9.08331e-07
-3.29451e-07
1.06622e-05
-4.49513e-07
-1.19732e-07
-5.93605e-05
-1.39329e-07
-0.0017222
-2.21024e-07
-5.74648e-08
-2.62506e-07
-4.06032e-07
-8.11674e-07
1.1375e-05
-3.52465e-07
-2.20778e-07
4.32889e-06
-0.00552322
-0.0024751
-1.92688e-07
6.38628e-05
6.39352e-09
-2.19165e-07
-1.5849e-07
3.9262e-06
-1.95716e-07
6.10356e-07
-1.45732e-07
-3.12403e-07
4.84332e-07
-4.14439e-07
-3.17445e-07
-3.07906e-07
-4.36895e-08
-2.9329e-07
-2.08096e-07
0.00326362
-0.000140531
-1.64952e-07
-2.63359e-07
0.000200667
-3.17403e-07
0.00210981
-2.87125e-07
0.00063905
-2.05998e-07
-1.94757e-06
1.89232e-08
9.39253e-06
-9.04021e-08
3.4568e-05
4.61112e-07
-2.66115e-07
1.40293e-06
1.69949e-06
-2.56918e-07
-0.000158509
1.13832e-06
0.000331305
-2.43999e-08
-0.00027951
-3.24568e-07
0.00248692
-4.36315e-07
-4.61608e-07
-7.12026e-07
-0.00362993
-3.36257e-08
-2.63905e-07
0.00360331
-1.70291e-07
-3.10382e-07
0.000218356
3.72002e-07
-3.70685e-07
-2.11794e-06
1.41991e-06
-2.26584e-07
-0.000208753
-2.0085e-06
-1.50945e-07
-2.23441e-07
3.29924e-08
-2.36516e-07
1.06876e-06
-0.00196089
-5.19539e-06
0.00349122
-1.45686e-07
4.62764e-07
-1.48045e-05
1.19013e-07
-0.00234297
0.000922433
-0.00507582
-2.49543e-07
1.77481e-05
-2.52797e-07
0.00547273
-3.57649e-07
3.43964e-06
7.24019e-07
-2.61047e-07
-5.55123e-08
4.47394e-07
2.12863e-07
3.94969e-07
8.91405e-06
0.0024548
0.00186589
-6.05177e-08
-3.34815e-07
-1.97708e-07
0.000307123
-0.00217839
-2.60004e-07
-6.12161e-06
-1.04427e-07
2.60399e-06
-1.91329e-07
-3.33349e-08
-3.72245e-07
-0.00167862
-3.58646e-07
-0.000817926
-0.00145735
1.69976e-06
5.30861e-07
-2.65026e-07
1.41424e-06
5.29269e-07
-1.48179e-07
-1.48554e-06
-1.78242e-07
-1.20342e-07
2.84554e-07
-3.90949e-08
-1.17481e-07
-2.3401e-07
2.64441e-06
-3.96757e-09
-0.000391668
-0.0029897
-0.0001707
5.65988e-07
-0.000839554
0.00225368
1.45533e-07
-1.44444e-07
1.42299e-06
-2.4343e-07
-3.21448e-07
-1.04725e-07
-0.0026824
-0.00309962
-0.00366523
-2.36434e-07
8.43682e-07
-4.5415e-08
-2.25915e-07
5.44201e-07
-3.54266e-07
2.4362e-05
-3.73515e-07
-1.82677e-07
0.00212721
-0.000607092
-0.000716621
-3.78519e-07
-9.5327e-05
-0.000185443
0.0033082
0.000765989
-1.46921e-07
4.47546e-07
-3.57548e-07
-2.00238e-07
-1.66917e-06
1.37634e-07
-1.03787e-07
2.40446e-07
1.31869e-07
0.000645136
-1.45532e-07
1.21571e-06
-0.00178183
3.82614e-06
-0.000448623
-6.75481e-09
-2.7129e-07
-2.58349e-07
-3.13601e-07
-1.96871e-07
-0.00400263
-5.96815e-06
-3.18745e-07
-0.000471169
-2.75299e-07
1.55882e-06
0.00315598
1.58818e-06
1.66742e-06
7.90636e-07
1.42558e-06
3.33438e-07
1.53199e-06
1.07267e-07
2.18825e-06
2.74214e-06
-1.78303e-08
7.8336e-07
-2.47263e-07
-2.07532e-05
-2.14901e-07
-1.94598e-07
-3.5516e-07
-4.19698e-07
0.000690445
-0.00504492
-3.0505e-07
-1.40728e-07
-0.0047595
0.00191784
-5.07015e-08
-0.000335114
-2.53262e-07
-2.24652e-07
-3.32518e-07
0.00200279
1.11129e-05
-3.53702e-07
-3.72354e-07
-0.000970092
1.73764e-06
9.11823e-05
-1.42714e-08
0.0015026
-1.4355e-08
0.00128471
-2.20068e-07
0.000649402
-0.00168552
2.15204e-07
-2.21396e-07
-3.01887e-07
2.87865e-08
2.27706e-06
-5.75674e-08
-2.19546e-07
-2.17462e-07
-2.20307e-07
0.00217555
6.14954e-06
1.32053e-07
2.52269e-06
-2.32356e-07
-2.22283e-07
9.29061e-07
-0.00152371
-1.40787e-07
-3.32176e-07
-1.31936e-07
-2.14743e-08
0.000761383
0.000651365
-6.69522e-08
-5.07619e-08
1.13687e-05
1.24165e-07
1.65549e-08
-2.38932e-07
-4.0426e-07
-3.57348e-07
7.61849e-07
8.92941e-07
9.24672e-07
1.51437e-06
8.80222e-07
4.17359e-06
5.94623e-08
-1.81145e-07
0.00146048
-1.26414e-08
-2.82e-07
-3.24117e-07
-1.11213e-05
-3.69024e-07
-2.48113e-07
3.6055e-06
5.05913e-07
-0.000580305
8.65193e-07
3.79223e-07
1.65118e-07
-5.70115e-08
-0.00186961
7.27497e-07
-0.00138237
-3.42586e-07
-3.83098e-07
1.79497e-06
0.000963698
0.000523942
5.23917e-07
-4.96768e-07
-2.47512e-07
-4.25414e-07
-2.25209e-07
-1.02878e-06
1.91952e-07
-4.3824e-09
4.17411e-07
3.85619e-07
-0.00145578
0.000140095
-3.76598e-07
1.41729e-06
5.33858e-06
-2.80342e-07
-8.1387e-08
9.34916e-07
-0.00264151
-0.00503813
1.40299e-06
-1.30654e-07
-0.000299191
7.64598e-08
-2.68543e-07
-2.89124e-07
6.91532e-07
-1.05146e-08
3.92251e-07
-0.00242618
1.59254e-06
-1.56358e-07
-0.00250155
-3.71225e-07
0.000680461
-6.89369e-09
-6.61405e-08
5.1786e-05
-0.00288884
7.70044e-07
-3.79951e-07
-3.39995e-07
-4.85701e-08
-4.36611e-07
7.27497e-07
1.54555e-06
-4.12641e-07
1.70894e-06
4.35482e-07
-3.14104e-07
-5.33076e-05
1.41794e-06
5.00062e-05
-2.17587e-07
1.59544e-06
-4.17639e-07
-0.00170795
-3.30656e-07
-4.71797e-07
-2.62827e-07
-2.39297e-07
-1.97973e-07
-3.84747e-07
6.05636e-08
9.03916e-09
2.21634e-06
-1.18569e-06
5.49351e-07
-2.24955e-07
1.12389e-06
5.56061e-07
2.8632e-05
-1.98098e-07
-3.16584e-08
-2.06165e-07
-2.02015e-07
-3.48149e-07
-0.00191828
-2.65753e-08
-1.06823e-05
-1.63517e-07
1.92702e-06
1.66695e-08
0.00221477
-4.81273e-07
-3.06758e-07
0.000970479
0.00053488
-2.89392e-07
-3.30359e-07
1.00674e-05
1.56489e-06
9.36542e-07
-7.48785e-08
-3.78413e-07
2.84746e-06
-2.51038e-07
3.64292e-07
8.2098e-07
-1.76792e-07
3.6419e-07
-0.00450946
-2.04519e-07
-2.20286e-07
-2.09468e-07
-0.000113215
3.03481e-09
-2.58036e-07
0.00202972
-2.78403e-07
-0.00220685
-3.58207e-07
-4.5349e-09
-2.06755e-07
-4.08222e-07
-1.48231e-07
1.25355e-07
-2.44645e-07
-2.1912e-07
-2.41004e-07
0.000713105
3.19062e-06
-0.0015042
-2.35715e-07
-4.82648e-08
-8.03234e-08
-1.59785e-07
0.000165197
-0.00381458
1.44631e-07
-1.35381e-07
2.15142e-06
-2.40389e-07
5.76984e-05
2.59137e-06
3.11653e-07
-0.00249735
-3.17347e-07
-4.95283e-07
1.15878e-06
-6.29346e-07
3.61504e-07
2.76336e-06
3.4831e-07
-2.62624e-07
1.00721e-06
-2.75023e-07
-2.48383e-07
-7.68677e-08
-2.40238e-07
-3.44649e-07
-1.43017e-07
-2.35979e-07
4.76896e-07
-2.37823e-07
5.35366e-07
-1.07739e-07
-1.02938e-07
4.6724e-09
-3.37733e-07
-6.45316e-08
-3.82875e-07
-2.12284e-07
0.00198919
1.43199e-07
-1.53631e-06
-2.17989e-07
8.21438e-09
3.51962e-08
2.06434e-07
-9.92172e-09
0.000194829
-2.60136e-07
-0.0362906
-7.77397e-08
1.15718e-06
-2.44283e-07
1.35031e-08
-2.37028e-07
-3.87322e-07
0.000987979
1.16362e-08
-3.30309e-05
-4.47536e-07
-1.51785e-05
7.53986e-09
-1.57934e-07
1.63196e-06
-1.86893e-07
6.39008e-09
1.8178e-07
-4.75868e-08
-2.11023e-07
-9.50145e-05
-3.22838e-07
-3.72645e-08
-3.12172e-07
-2.05138e-07
-1.86224e-07
-3.35075e-07
1.5727e-06
8.56778e-05
-2.0048e-07
-2.05214e-07
-2.59832e-07
0.000892164
-2.25796e-07
-2.84003e-07
-3.55171e-07
0.000420472
1.4563e-05
0.00186397
3.21687e-07
-2.81812e-07
-2.25672e-07
-1.63441e-07
6.89834e-08
-1.41555e-07
1.96872e-06
-1.8737e-08
-0.000109846
-3.92159e-07
-1.59753e-07
0.0014878
-9.82231e-08
-1.0476e-07
-2.73994e-07
-1.90021e-07
-3.41702e-07
-8.92887e-07
-3.76738e-07
-0.00245218
-0.000596161
6.08231e-08
-1.84406e-07
-1.1045e-07
1.51299e-06
-1.88627e-05
-4.95948e-08
1.00649e-05
-1.17249e-07
-2.11625e-07
-2.00992e-07
-2.61888e-07
1.91466e-06
-2.42162e-07
-0.00666541
-1.51248e-07
1.23617e-08
-1.30153e-07
-4.25057e-08
-2.77542e-07
-2.31113e-07
-1.95412e-06
-2.2661e-07
-2.67568e-07
-0.0039876
-0.00490289
-1.31235e-07
-1.80546e-07
5.16414e-07
-3.00139e-07
-2.63381e-07
6.19662e-08
0.00176447
-3.97737e-07
-7.59475e-08
-4.17097e-07
-0.00421644
1.08049e-07
0.0035763
-9.0529e-09
1.09296e-10
-5.85156e-05
1.4137e-07
-3.47005e-07
0.000520355
-4.67762e-06
-2.57113e-07
1.18901e-06
-2.37519e-07
-2.28254e-07
-2.31133e-07
0.00257688
-5.09442e-08
-1.94824e-07
-2.75164e-07
-0.00594493
-2.81095e-07
-4.65156e-08
-2.08587e-06
-2.56607e-07
9.31885e-08
-6.68273e-08
0.00352249
-1.91939e-07
-2.1131e-07
-3.92427e-08
1.68876e-06
-3.34036e-08
1.56839e-06
-0.000548659
-0.00567264
-2.85674e-08
3.42794e-06
0.00236525
-2.14945e-07
-0.000179995
0.00705716
0.00262211
-0.000820119
-0.00341642
1.77385e-05
1.15719e-06
-3.31998e-07
-0.00208726
1.48567e-07
-0.00193823
-2.17601e-07
-3.47078e-07
-3.00522e-07
-8.36491e-08
-2.02622e-07
-2.87512e-07
-5.64311e-05
-3.35771e-07
-5.22874e-08
4.1343e-05
-4.91576e-06
-1.80144e-08
8.70796e-07
-2.94229e-07
-3.23682e-07
2.87938e-06
-4.59717e-08
-1.17145e-07
-2.71274e-07
-0.000506809
0.00176022
-1.35359e-06
-2.29681e-07
1.68281e-06
5.82736e-07
0.00121459
-0.00501877
7.32046e-07
-3.48696e-07
-2.66024e-07
-3.75752e-07
7.49085e-09
-3.43618e-07
-1.33104e-07
-3.77678e-07
-2.82945e-07
-0.000413099
1.2851e-06
-2.01852e-07
1.17319e-06
0.00319001
-2.66353e-07
-1.16369e-07
0.000821532
-3.37497e-07
-2.08729e-07
4.49796e-08
-0.000750933
1.252e-08
-2.18422e-07
-0.00253625
-6.08064e-06
-1.07966e-05
9.74095e-07
1.71267e-05
-2.21963e-07
1.65237e-06
-1.18297e-07
-1.88051e-07
-8.16475e-08
-0.00338196
0.00226034
-2.69573e-07
-1.19706e-07
-2.82851e-07
1.23436e-05
-3.65946e-07
-3.11746e-07
-4.76423e-08
-3.68548e-07
1.62923e-06
-2.41131e-07
3.1205e-07
1.85748e-06
-0.000787728
-3.82076e-07
-9.74849e-08
-4.1326e-07
0.00220524
0.00311571
-1.33458e-07
0.00329309
5.7973e-07
-5.0146e-06
-2.14155e-08
-0.00155293
-4.76662e-08
-3.08763e-07
-3.41425e-07
9.99213e-07
-0.0042428
6.27818e-05
1.61571e-06
-0.00175501
-2.44709e-07
2.06726e-06
-2.64632e-07
-2.86948e-07
-0.00214362
-2.05497e-07
-4.54013e-08
-3.97741e-07
-3.19196e-07
-0.000225249
-1.58249e-07
-1.06402e-07
2.03309e-07
-1.35773e-07
3.74183e-07
-6.94793e-07
1.46736e-06
0.000717478
-2.80334e-07
8.87116e-08
-4.36682e-07
0.0009445
-4.741e-08
0.00153821
-0.00242961
-2.34147e-07
-2.29855e-07
-0.000923587
6.17617e-05
-6.45226e-08
8.67473e-07
-4.91878e-08
-2.02321e-07
-1.1986e-07
-3.00439e-07
-3.49992e-07
1.48326e-08
3.16729e-07
7.21829e-08
-2.40492e-07
6.89968e-08
-3.10276e-07
-2.34846e-08
-2.39235e-07
-6.80564e-08
4.62774e-07
-2.62237e-07
-2.26097e-07
-2.6323e-07
3.12287e-06
-1.60811e-07
-0.00111676
-1.19366e-07
-3.90101e-07
5.42315e-07
-2.69155e-07
5.0492e-07
-2.64372e-07
-1.99991e-07
8.007e-07
-2.73239e-07
-0.0177148
-6.37955e-08
-1.31878e-07
0.000263117
2.27125e-06
-2.50911e-07
-3.08074e-07
-0.000438263
-1.68741e-07
-2.15847e-07
0.00130726
0.00270016
-1.64768e-08
1.51666e-06
-1.38166e-07
-2.40234e-07
-0.00372786
-4.20723e-07
-1.99291e-07
2.6962e-06
-2.77854e-07
1.80448e-09
-2.57305e-08
-2.06127e-07
-2.7519e-07
1.68938e-06
-0.000640796
-1.85192e-07
-2.60289e-07
-2.21511e-07
-2.08973e-07
-1.98784e-07
1.03674e-06
3.0493e-07
-1.54218e-08
-0.00214874
-2.49491e-08
1.83825e-06
-0.000280432
3.81408e-06
-2.47979e-07
-1.12189e-07
-2.79554e-07
1.97163e-06
-2.24843e-07
-0.000610901
0.00236155
-9.84222e-08
-0.0019546
5.03254e-06
3.32522e-07
1.56848e-06
-4.71352e-07
-3.52593e-07
-0.00461026
2.06048e-07
5.82006e-05
0.000243391
7.26446e-07
-2.48213e-07
0.000882328
1.60195e-07
-2.04141e-07
-2.86325e-07
0.00609855
-3.96672e-07
-3.08491e-07
-3.26959e-07
5.48598e-07
-3.20607e-07
0.000604222
-3.56723e-07
-0.000725615
-3.49362e-07
1.47407e-05
1.00815e-06
1.73615e-06
-3.28826e-07
-2.79927e-07
-3.69409e-07
-0.0050339
-1.72146e-07
-1.15784e-07
-2.36924e-07
-4.0544e-07
-3.4647e-07
-2.57312e-07
2.06998e-06
-5.35679e-07
1.48019e-06
-4.07523e-09
-0.00431095
-5.54493e-06
-3.43988e-07
2.22982e-05
-0.003703
-2.72295e-07
-2.21156e-07
-2.45721e-07
0.0010957
4.42858e-08
5.58827e-07
3.06911e-06
-4.10643e-07
-1.11022e-07
-2.59349e-07
-2.56388e-07
9.67237e-07
-4.80397e-07
-2.10491e-07
0.00128763
-0.00253176
-2.85004e-07
-1.36819e-06
7.22627e-07
0.00058115
-2.78375e-07
-2.54342e-07
-0.00584988
2.42546e-05
8.31686e-07
2.75039e-06
-3.53314e-07
1.45746e-08
-2.33997e-07
-3.7381e-07
-1.17856e-07
-7.59883e-08
-3.40608e-07
-2.35219e-07
1.67268e-06
-2.04199e-07
-2.97554e-07
-2.38828e-07
-1.58143e-07
1.67838e-06
1.69438e-05
-2.10574e-07
1.73872e-06
-2.2757e-07
-0.00624698
-1.02347e-07
2.75641e-07
-8.81639e-08
2.25875e-06
0.0021061
1.93461e-06
-2.50568e-07
1.30952e-06
-3.1059e-07
-3.53505e-07
0.00235582
-2.86716e-07
-8.64204e-08
-1.27457e-07
-2.87977e-07
-0.00216772
-2.36876e-07
-3.19565e-07
-2.52672e-07
-1.37286e-07
5.68877e-08
-3.31116e-07
-2.07368e-07
-1.15476e-07
0.00130822
-3.93422e-07
-4.84361e-07
-0.00437679
3.99384e-07
-0.000715948
-3.91247e-07
-2.03014e-07
-3.67792e-07
0.00155738
-2.66268e-07
-3.99101e-07
1.2433e-07
-0.000121463
-2.8254e-07
1.79854e-05
1.1847e-07
6.79709e-07
-2.30171e-07
-1.36424e-07
1.73764e-06
-1.1002e-07
7.58756e-09
4.22291e-08
-1.82972e-07
-8.55111e-08
-3.28505e-07
9.95809e-07
7.58759e-07
-0.00277303
-2.20809e-07
1.09052e-06
-0.0072556
-0.000456379
-9.89825e-08
-6.36562e-09
0.000817453
6.54307e-08
0.0051487
-2.33604e-09
0.000634946
-4.46543e-05
-1.91581e-07
-3.91563e-08
-1.98875e-07
-2.14969e-07
-2.05836e-07
-2.37373e-07
-1.08006e-09
6.11278e-07
-3.7141e-07
-3.00771e-07
0.001543
-9.62687e-08
-2.52108e-07
-0.00487415
-3.52827e-07
-0.000314361
-3.56674e-07
-1.17971e-06
-2.60333e-07
0.00171864
0.00224314
-3.16899e-07
-2.22849e-07
-0.0020051
-8.08203e-08
0.000229453
-2.05541e-07
-2.84206e-07
-0.00158866
-2.5282e-07
-6.1153e-07
-0.000885273
-5.36559e-08
2.4882e-07
-3.21632e-07
-1.27455e-07
-2.6615e-07
-0.00218264
0.00216429
-4.08977e-07
-2.46782e-07
-2.01428e-07
-3.74596e-07
4.98731e-07
0.000794266
-1.72138e-07
-5.31171e-07
2.78733e-05
4.8594e-05
2.75596e-05
-2.50257e-07
1.34509e-06
8.11626e-08
7.11305e-08
-9.95056e-08
7.17551e-07
0.00120574
-1.13772e-07
8.9762e-08
-0.00538042
1.56633e-06
1.57694e-06
3.22467e-09
-2.43269e-07
2.92662e-08
-3.57506e-08
0.00190618
4.13777e-07
-2.49977e-07
-2.35123e-07
-3.51254e-07
3.6845e-08
-2.64297e-07
-6.66523e-08
9.77165e-07
-2.86794e-07
-0.00172389
1.3515e-06
-0.00067574
-0.000836669
-2.73465e-07
3.50349e-07
-2.23309e-07
-2.60664e-07
0.00154314
-3.58964e-07
-3.89804e-07
3.55407e-07
9.69942e-07
1.41572e-06
-0.00269782
-4.97949e-06
-3.29707e-07
0.000372586
-9.69801e-08
-3.09756e-07
-9.74661e-08
6.24424e-09
-2.04054e-07
1.94577e-06
0.000111552
-2.92959e-07
-0.00497119
-3.90285e-07
-2.55078e-07
-3.78255e-07
-8.10114e-07
-3.45646e-07
-3.30989e-07
0.00818529
-3.6311e-07
2.10279e-06
-0.00106339
-5.05315e-08
1.2669e-06
-2.04968e-07
-0.00060288
6.53884e-07
-4.55002e-08
-0.00312466
3.66157e-07
1.99529e-07
3.41669e-08
0.00203028
-1.31856e-07
-1.84567e-06
-2.24834e-07
2.96485e-08
0.00187284
-2.72731e-07
2.30836e-06
-1.76804e-07
2.30039e-07
8.90584e-08
-5.06925e-08
0.000570597
-2.7307e-07
1.04488e-06
2.56663e-07
7.87071e-07
-3.21122e-07
4.47865e-08
-1.76592e-07
-0.00538723
-1.9226e-07
-0.000254473
-2.51459e-08
7.65044e-07
-3.70083e-07
-1.83399e-07
-1.12024e-07
-1.77023e-07
-0.00502181
-3.4462e-07
-2.91798e-07
-9.72778e-07
-3.59292e-07
-0.00679147
-4.44402e-07
-0.00480522
3.51535e-05
-1.87738e-07
-1.84988e-07
-2.22415e-07
-4.81109e-08
-1.29431e-07
9.21378e-07
-2.38558e-07
2.83364e-07
-4.04345e-07
-1.50511e-07
2.4441e-05
-2.68985e-07
-2.49657e-07
-0.00719734
-1.14598e-07
-0.00160391
4.00154e-07
-2.45036e-07
2.10658e-07
0.00124971
1.60596e-05
-0.00549795
-0.00235624
-2.94374e-07
-2.6768e-07
0.00128239
-2.56939e-06
-7.18279e-08
-6.42711e-08
1.54666e-06
-0.00293917
-0.000357652
3.83843e-06
-2.26519e-07
-4.40363e-07
1.68546e-08
-0.000965378
4.25935e-05
1.40334e-07
1.73642e-06
-3.37969e-07
-2.58252e-07
6.90506e-07
-8.19931e-08
5.97624e-07
-1.74796e-06
-3.84517e-08
5.49109e-05
-1.87496e-08
-2.28673e-07
0.000543533
0.00123789
-2.19791e-07
-1.91141e-07
-3.84605e-07
-2.85877e-07
-3.8956e-07
1.68618e-06
-2.46865e-07
-1.91308e-07
-1.23378e-07
-5.10112e-08
-3.43818e-07
-3.60594e-07
7.5848e-06
-1.08647e-07
0.00154856
0.000381491
-0.000444255
1.00654e-07
1.38971e-07
-1.43043e-05
-1.03139e-08
-0.00206676
1.5092e-05
-0.00022411
-3.72604e-07
0.00184467
-0.00075965
-2.16755e-07
-1.38906e-07
4.39399e-07
0.00318961
0.00347809
-2.37439e-07
-3.04993e-07
-0.000698456
-0.000289647
0.0009509
-3.93334e-07
-2.6974e-08
-9.0409e-07
-2.24416e-07
-0.000386035
-0.000867917
2.74272e-05
7.34916e-06
-1.11502e-07
-2.49927e-07
-2.34556e-07
-5.65542e-08
-6.86351e-05
1.08202e-07
-2.26531e-07
-9.8486e-09
-2.70586e-07
0.00176382
-6.40943e-08
-0.000183217
8.92497e-05
-0.00027463
-1.23567e-06
-1.01982e-07
-7.93675e-08
-0.00515115
-1.5995e-07
-1.90123e-07
-2.93935e-07
-8.82122e-06
7.46709e-08
-0.00149781
1.03811e-06
-1.40117e-07
-0.00284611
-1.41954e-07
-3.37263e-07
0.000239684
5.83495e-07
-5.10173e-09
-1.98545e-07
-6.70324e-05
0.00358203
-2.3095e-08
-0.000270671
-9.54293e-06
0.00153069
-0.000151939
-1.47592e-07
-2.93268e-07
-4.17693e-07
2.18972e-05
-3.50283e-07
-0.00574103
-7.73559e-09
-0.000119052
2.55525e-06
-7.02875e-08
-1.61452e-07
-3.25776e-07
-1.533e-07
0.00222015
-0.000232738
-4.27017e-08
0.000259967
2.02973e-07
-2.99361e-07
-1.18918e-07
-2.25239e-07
1.42262e-06
-4.00683e-07
6.62749e-06
-9.99796e-08
-3.02173e-07
-2.58832e-07
7.88973e-07
0.00070729
1.12124e-07
-3.55973e-07
-2.81196e-08
-1.08039e-07
-3.70039e-07
-1.88153e-07
0.0014026
-0.000501139
0.0035446
-1.79311e-07
-2.41387e-07
-3.00933e-07
1.52442e-06
-2.29293e-07
-3.06387e-07
1.9815e-06
4.775e-07
-8.37299e-06
-1.74868e-07
0.00325925
-0.000515589
-3.10603e-08
0.0011273
1.52825e-06
-9.05458e-08
-9.92326e-07
-3.50908e-07
-0.000193151
-1.86133e-07
-1.81868e-07
-7.28663e-08
-1.48546e-07
-1.44758e-05
-2.40515e-07
-2.28403e-07
-3.92434e-08
-0.000768916
-0.000689622
-2.29709e-08
-2.43869e-07
-4.09035e-07
-3.72324e-07
1.0749e-06
-9.70049e-08
4.9536e-07
-3.00474e-07
0.00113943
-2.09035e-07
-0.00152269
-1.85066e-07
-0.00193339
-4.15271e-07
-1.37575e-07
0.00146511
-2.65344e-08
1.62632e-07
3.11867e-05
6.39304e-08
1.4679e-07
-6.66213e-08
0.00273263
-4.05553e-08
-2.13762e-07
1.26986e-06
4.17557e-08
-0.000795333
0.00170454
1.14633e-06
-0.00151282
9.35319e-07
-1.97136e-05
-1.10741e-07
-3.09028e-07
-1.50569e-07
0.0019887
-3.15315e-08
0.0030271
-0.000309668
-2.15183e-07
-3.9836e-08
-2.78952e-07
-6.44709e-05
4.67368e-06
-2.92445e-07
-8.98227e-08
-2.80648e-07
-3.23224e-07
1.05171e-07
1.90184e-06
-4.06034e-06
-1.63725e-07
-5.47715e-06
3.87205e-07
0.00139129
5.36115e-07
-3.93357e-07
-3.61255e-07
-0.00222651
-2.45794e-07
5.65357e-07
-0.0042065
-2.52729e-07
-3.86925e-07
1.85538e-06
-8.55663e-07
-1.5321e-07
8.17959e-07
-3.304e-07
2.11623e-06
-3.10881e-07
-1.56115e-07
-2.37854e-07
0.00364969
-2.1897e-07
-2.50781e-07
4.52513e-08
0.00247319
1.71987e-07
-5.67422e-08
-2.36184e-07
-1.51068e-07
1.4278e-08
0.00230304
-1.72278e-07
-2.7546e-07
-3.84331e-07
-1.39077e-07
-1.78568e-08
-1.36005e-05
-9.97471e-08
-1.36888e-07
-2.66717e-07
1.36857e-06
-4.39358e-08
-2.88168e-07
9.37804e-07
-5.26429e-07
6.41713e-07
3.59049e-08
-9.47518e-07
9.73985e-07
1.49856e-06
2.88638e-07
-5.91311e-08
1.47226e-06
-0.00580402
5.89381e-06
-1.82966e-08
-0.000175666
-0.00415991
-1.56648e-08
-3.34334e-07
-1.46407e-07
-2.78909e-06
3.07132e-07
-1.88329e-07
4.60613e-07
0.00263586
-2.51747e-07
-4.2249e-08
-0.00227308
-0.000344005
1.279e-07
-1.64385e-07
-0.00584718
-0.000977499
1.28926e-05
-1.43524e-07
0.00181013
4.72212e-07
1.11845e-10
0.00310561
-3.20722e-07
-1.50652e-07
-2.33936e-07
1.18365e-06
-1.04427e-07
-0.0030182
0.00300032
-3.02364e-07
-0.000781499
5.83e-07
0.00151352
-1.68046e-07
-1.16525e-06
-3.93258e-09
-3.01799e-07
-5.12767e-05
4.21393e-07
2.2715e-06
5.59488e-05
-2.51794e-07
2.48752e-07
-2.00015e-07
0.00343793
-0.000294938
-4.78706e-08
-4.04478e-07
3.2666e-08
-2.37731e-07
3.92547e-07
-0.00179678
-0.00117556
3.17655e-07
-4.21505e-07
-2.21814e-07
0.000466859
-1.32258e-07
3.21176e-07
-2.8242e-07
-2.94429e-07
4.65304e-06
-1.97141e-05
3.82606e-06
2.46604e-06
-8.77578e-08
2.46842e-06
-2.24843e-07
2.77679e-07
0.00414073
0.000580954
-9.81173e-08
2.88857e-08
-1.17893e-07
-3.39291e-08
-6.57712e-08
-0.000874349
0.00237768
-2.8488e-07
-2.07872e-09
-2.19955e-08
-1.86406e-07
3.34068e-06
-2.54807e-07
-0.00277887
9.7105e-07
-9.45428e-08
-3.29311e-07
-3.68012e-07
0.00276114
1.86721e-07
1.31719e-06
-1.44851e-05
-2.27069e-07
0.00158157
1.13156e-07
-9.8283e-09
2.79025e-06
0.00210073
0.00157688
3.46009e-07
-2.74477e-07
-2.18175e-06
-2.4828e-07
-2.21613e-08
-1.11555e-07
-0.00289839
-2.58767e-07
-2.10963e-05
2.74303e-05
1.49603e-07
-4.8308e-08
1.06409e-06
-2.68603e-07
-5.78188e-09
-1.49873e-06
-1.16042e-07
-4.01975e-07
-1.23702e-07
-1.09156e-07
0.0252213
-3.10679e-07
5.65908e-06
-1.82932e-07
-2.14785e-07
0.000670607
-0.000286554
-6.84466e-08
1.60434e-07
-1.57151e-08
-2.85689e-07
6.34211e-07
-2.13334e-07
-2.06574e-07
-2.6852e-07
-3.97963e-06
-6.85892e-08
-0.00384254
3.16162e-09
3.12863e-06
1.13089e-06
-2.67788e-07
-0.00144177
-1.31633e-07
-0.00366894
-3.91526e-08
0.00361936
7.58422e-05
-0.0016941
-5.08836e-05
2.54155e-06
6.01685e-07
-2.47434e-07
-0.00108309
-2.81314e-08
-6.17432e-08
0.00169843
-0.00468575
-1.12032e-07
-2.29083e-07
-3.11218e-07
-3.15632e-07
2.25249e-08
0.00180083
-2.37478e-08
-2.53352e-07
-9.90823e-08
-2.93668e-07
-9.46607e-08
1.18659e-06
-1.29479e-07
-0.00434309
-1.5758e-07
7.9318e-07
-2.40511e-07
1.21792e-07
-2.94008e-07
9.20229e-06
3.03864e-07
-2.92846e-07
5.37346e-07
-0.00174793
0.00329207
-2.34724e-07
-0.00542444
-2.08664e-07
-1.16108e-05
-3.70673e-08
-2.19204e-07
0.000136298
-5.06979e-08
0.000860549
0.00206356
1.09379e-07
-0.000591691
-3.48535e-07
-1.12391e-07
0.00175532
1.47433e-06
-2.48999e-07
-0.00472682
-3.87371e-07
8.48482e-08
-2.10825e-07
-1.11784e-07
-4.03148e-07
-0.000741798
-0.00572735
2.14992e-05
2.37682e-06
-3.50775e-07
-3.27201e-07
0.00112496
-2.5817e-07
-2.00848e-07
-1.9358e-07
-1.76671e-07
-1.81528e-07
-0.000205983
-0.000241207
-1.66843e-05
4.6021e-07
-2.36195e-07
0.00131155
-1.10002e-07
8.66403e-07
-2.03e-08
0.00111881
-3.84062e-07
-9.09492e-08
-0.000348115
9.25711e-07
-1.78068e-07
-2.72322e-07
-0.00123303
-3.11245e-08
1.43497e-06
-2.97178e-07
-0.00124192
0.00326817
1.17313e-06
-7.40959e-08
-2.08049e-07
4.25127e-05
1.81113e-06
1.50194e-07
-2.8583e-07
-2.09605e-07
-1.6927e-07
5.00214e-07
-4.81824e-08
1.15333e-06
-4.4339e-09
-2.85367e-07
0.00172184
-3.3351e-07
-4.04433e-07
-2.44572e-07
2.93518e-08
-0.000405705
-3.47671e-07
-3.64061e-07
0.000733004
-1.36887e-07
-0.00361914
-9.18267e-08
0.00366641
-8.53856e-08
-0.00362415
-3.63917e-07
1.60632e-06
-1.99539e-07
1.32656e-07
1.67626e-06
1.61756e-06
2.23361e-06
0.00214483
1.96305e-06
3.26189e-05
-1.73865e-09
1.50567e-06
-4.35027e-07
-7.56853e-06
-9.50542e-08
-1.98577e-07
-1.17416e-07
4.95137e-07
-3.83293e-07
2.50288e-05
4.19865e-07
-0.00529499
5.95795e-05
1.28315e-06
-2.91406e-07
-2.57518e-05
1.85145e-07
-9.60617e-08
-9.8583e-08
-1.64742e-07
-0.00505478
-1.01249e-07
-0.000139123
-3.41025e-07
-1.79577e-07
0.00285043
-4.58345e-07
-1.37455e-07
-1.20984e-07
0.00132063
-3.45497e-07
-2.36726e-07
-2.6453e-07
-3.48791e-07
-3.51529e-07
-3.29363e-07
2.16967e-06
-1.58995e-06
-2.00639e-07
3.17123e-06
0.00173292
-0.00041018
0.00185474
-1.93855e-07
-2.02835e-07
-2.63306e-07
-2.34732e-07
3.32519e-07
-0.00512661
1.42614e-05
-1.48773e-07
-6.40567e-08
-0.00107624
5.22793e-06
-1.793e-07
-2.91242e-07
-5.57697e-08
-0.00067582
-0.00293915
-3.75073e-07
-2.40639e-07
-5.11748e-08
8.53284e-07
1.70409e-06
2.63285e-07
1.01301e-07
-2.98866e-07
-2.67933e-08
-1.15836e-07
3.08977e-06
-7.16485e-08
-3.32922e-07
-3.61351e-07
-0.00358754
-1.81529e-07
0.00131827
-7.58589e-08
0.000247811
-3.51161e-07
4.36244e-08
-2.2501e-07
-2.14538e-07
1.00877e-05
-2.43989e-05
-5.04509e-07
-0.000697788
0.0013108
-1.94546e-07
0.00126052
1.8073e-06
-2.556e-07
2.31688e-05
-3.4298e-06
1.31106e-06
1.14644e-08
-0.000844146
0.00136594
-2.2211e-07
-3.51008e-07
-0.000447661
-4.0719e-07
-2.72931e-07
-2.95978e-07
-4.00464e-07
-2.83195e-07
4.15133e-07
1.86826e-06
6.98635e-08
2.07509e-07
-1.98069e-07
-2.4235e-07
-0.00591613
-3.39864e-07
-3.29595e-07
-4.3134e-08
-1.88069e-07
2.1813e-07
-1.42804e-07
-2.40384e-07
1.67083e-06
-1.80428e-07
0.00320255
-1.27336e-07
0.000134993
-0.000900912
7.32765e-07
-2.84094e-07
1.87945e-08
0.00193359
-1.48009e-07
-3.66616e-07
-6.6637e-08
2.29793e-06
1.1564e-05
-3.95261e-08
-0.000483767
4.13999e-08
-9.26243e-06
-1.74546e-08
7.88549e-07
-2.55725e-07
-8.60482e-08
0.000302798
1.08893e-05
-7.77031e-06
-4.00652e-07
7.22396e-07
7.25241e-07
0.000303567
0.00109815
1.39075e-06
-1.56925e-07
-9.65862e-08
0.00242564
-2.91377e-07
-3.06584e-07
1.99825e-06
1.60558e-06
-3.51236e-08
6.77713e-07
-3.08476e-07
-3.42771e-07
-3.40388e-07
-0.00157479
-3.23327e-07
-1.86647e-07
0.000682556
-1.00807e-06
-2.12066e-07
-0.00075069
-1.71883e-07
-1.00108e-07
1.40426e-06
-4.73612e-07
-0.00143093
-2.39055e-07
-8.34169e-08
-2.48182e-07
1.22657e-06
-3.39217e-07
4.07596e-06
5.93345e-05
-0.000864289
-0.000789899
0.000988957
5.66625e-08
0.00259995
-1.91379e-06
-5.06482e-08
-2.17495e-07
3.28876e-07
-7.25289e-08
3.8962e-07
0.00126855
0.00251627
-0.00122461
5.10149e-06
-2.18759e-07
1.18549e-06
-1.84599e-07
0.000166416
-2.48123e-07
-2.72722e-07
-3.32446e-07
-3.99213e-07
-3.13104e-07
1.07101e-06
0.00308893
-1.8661e-07
-4.03368e-07
-2.41997e-07
0.00171397
-3.39481e-07
3.06465e-05
-0.00283357
-1.50129e-05
-6.73655e-08
-3.2595e-07
0.000541849
-2.54896e-06
-7.07379e-08
7.20661e-06
-6.88893e-09
3.91384e-07
1.94991e-07
8.21316e-07
3.59252e-07
-0.00985469
-2.84705e-07
-2.63467e-07
-1.6371e-06
-0.000874794
-3.31752e-07
-4.3762e-07
-2.77931e-07
-0.000449311
-1.49002e-07
-2.55947e-07
-3.76434e-07
-2.05466e-07
-0.000268238
0.000808028
-1.73801e-06
-2.21378e-07
0.00213129
1.83517e-05
-1.5983e-07
-1.45747e-07
-2.10615e-07
-1.7378e-06
-2.17569e-07
-1.96882e-07
-1.73549e-07
-2.21264e-07
-2.7688e-07
-7.40204e-05
-2.28006e-07
1.44479e-06
-1.48277e-07
7.66853e-08
-3.45775e-07
-1.3422e-05
-1.34171e-07
-8.22768e-08
-1.03997e-07
-1.95594e-07
0.00416908
-2.21696e-07
-0.000264692
-2.28473e-07
-3.45264e-07
-1.53425e-07
-2.18526e-07
-0.00077663
0.000710215
-2.30853e-07
-3.15275e-07
2.13222e-06
1.70165e-06
6.73855e-07
6.57425e-05
-2.41463e-07
-4.08809e-06
-1.16821e-07
-1.7787e-07
-0.00130677
-2.29407e-07
-0.00231531
-9.73969e-08
-4.20077e-07
-1.01774e-07
0.000837856
-0.000757255
-1.61016e-07
3.72449e-07
1.3814e-06
-1.76514e-07
-3.1315e-07
-2.62725e-07
6.41198e-07
0.000863328
-1.88477e-07
-2.63799e-07
-6.47782e-08
-1.45619e-07
-1.77862e-07
-3.30469e-07
-1.72729e-07
1.58288e-06
-1.44437e-07
6.75387e-07
5.69507e-06
-2.04418e-07
-1.38743e-07
-0.00506096
7.586e-07
-1.39187e-07
-2.44645e-07
-2.01202e-07
4.00058e-06
2.68792e-09
0.00808257
1.76235e-07
-3.06241e-07
4.20787e-07
5.28276e-07
-3.45849e-07
-0.000658108
5.71639e-07
-2.7891e-07
1.07297e-06
-3.16428e-07
-2.58458e-08
3.40281e-07
7.48581e-07