/*--------------------------------*- C++ -*----------------------------------*\
| =========                 |                                                 |
| \\      /  F ield         | OpenFOAM: The Open Source CFD Toolbox           |
|  \\    /   O peration     | Version:  v2012                                 |
|   \\  /    A nd           | Website:  www.openfoam.com                      |
|    \\/     M anipulation  |                                                 |
\*---------------------------------------------------------------------------*/
FoamFile
{
    version     2.0;
    format      ascii;
    class       surfaceVectorField;
    location    "250";
    object      Uf_0;
}
// * * * * * * * * * * * * * * * * * * * * * * * * * * * * * * * * * * * * * //

dimensions      [0 1 -1 0 0 0 0];


internalField   nonuniform List<vector> 
20537
(
(1.00075 -0.0229149 4.58369e-22)
(1.00039 -0.022396 2.17242e-21)
(1.00023 -0.0231904 3.07675e-21)
(0.582134 -0.0307827 -4.50897e-21)
(0.638409 -0.0355028 4.55241e-22)
(0.623022 -0.0327151 2.38873e-21)
(1.02962 -0.132696 1.75643e-20)
(1.02761 -0.131062 -2.18475e-21)
(1.02687 -0.13348 6.27103e-21)
(1.00054 -0.0211405 -1.70218e-21)
(1.0003 -0.0216353 -2.0622e-21)
(1.00012 -0.0207811 1.41516e-21)
(1.0613 -0.150612 0)
(1.05874 -0.149482 0)
(1.06107 -0.147912 1.93076e-20)
(0.992973 -0.0132531 -3.10789e-23)
(0.992791 -0.0140172 3.75591e-22)
(0.993355 -0.0137909 2.22812e-22)
(1.04339 -0.012558 3.86715e-21)
(1.04435 -0.0132617 -1.96454e-20)
(1.04442 -0.0122468 1.2651e-20)
(1.04004 -0.111291 -9.1693e-21)
(1.04232 -0.11008 5.75534e-21)
(1.04206 -0.11337 -1.06315e-20)
(0.993992 -0.00183821 -6.01431e-22)
(0.994069 -0.00190037 4.16223e-22)
(0.993913 -0.0017602 -1.48225e-21)
(1.00104 -0.116477 0)
(1.00153 -0.113833 0)
(1.00381 -0.116001 0)
(0.923827 0.0180989 -4.62704e-22)
(0.903247 0.0281737 -5.32528e-22)
(0.92376 0.0247762 -1.96078e-21)
(0.535289 -0.0804342 0)
(0.508598 -0.0784794 4.89724e-21)
(0.466495 -0.0683554 3.14413e-21)
(0.808463 -0.159189 5.57659e-22)
(0.858228 -0.165663 8.84959e-21)
(0.811935 -0.160092 2.18287e-20)
(-0.00233266 0.014358 0)
(0.0150752 0.019517 -8.45046e-21)
(-0.0375429 0.00817707 0)
(1.02373 -0.00214589 -1.71851e-20)
(1.0241 -0.00195937 2.93482e-21)
(1.02411 -0.00246432 -9.97079e-21)
(1.02244 -0.078693 5.50329e-21)
(1.02401 -0.0801019 -1.918e-21)
(1.02195 -0.0809798 4.74436e-21)
(1.04745 -0.0643697 -4.2789e-21)
(1.04603 -0.062807 1.60185e-20)
(1.04818 -0.0627132 -4.36321e-21)
(1.00146 -0.0417603 -5.62644e-21)
(1.00234 -0.0424007 -7.13579e-22)
(1.0013 -0.0429316 1.35963e-21)
(0.985199 -0.178033 -3.59792e-21)
(0.987876 -0.177066 0)
(1.02416 -0.181282 1.83608e-20)
(0.993915 -0.00178883 2.16224e-21)
(0.994064 -0.00192356 8.32491e-22)
(1.00062 -0.0204161 -3.44012e-21)
(1.00101 -0.0213205 1.56375e-21)
(1.03301 -0.132664 4.74774e-21)
(1.0316 -0.13528 -6.66269e-21)
(0.993345 0.000344982 0)
(0.993428 0.000377894 0)
(0.993347 0.000429865 1.49007e-22)
(0.990594 -8.76753e-05 1.26112e-21)
(0.990716 8.5207e-06 1.20465e-21)
(0.990482 -7.51743e-05 -3.35693e-22)
(0.993446 0.000168172 0)
(0.994169 0.000197624 0)
(1.03777 -0.109814 0)
(1.03771 -0.11298 8.52665e-21)
(1.07307 -0.0565151 -2.01934e-20)
(1.0726 -0.0546088 -2.28165e-20)
(1.07107 -0.0557741 -1.93473e-20)
(-0.00177275 -0.0665583 0)
(-0.00479957 -0.0673128 0)
(1.00129 -0.022856 -6.77242e-21)
(1.00111 -0.0237518 -6.58938e-21)
(1.01403 -0.0443564 2.34129e-21)
(1.01468 -0.0455561 1.2031e-22)
(1.01332 -0.0450262 1.01754e-20)
(0.99321 -0.0126314 -6.41783e-22)
(0.992803 -0.0127839 -1.11241e-21)
(1.04646 -0.0660906 -5.39217e-21)
(1.04883 -0.0661467 7.37212e-21)
(1.02801 -0.128621 -1.10731e-20)
(1.02536 -0.129339 -6.51796e-21)
(0.859944 -0.0118097 4.94718e-21)
(0.862825 -0.0184927 -1.3329e-22)
(0.834074 -0.0186775 -5.79809e-22)
(0.990581 -6.69031e-05 0)
(0.991309 -0.000164593 -7.6016e-22)
(1.14423 -0.208695 -1.02424e-20)
(1.14864 -0.209499 1.22469e-21)
(1.1457 -0.214409 -9.58777e-22)
(0.859867 -0.186606 2.39349e-20)
(0.91216 -0.194436 2.68255e-20)
(0.910387 -0.194397 -8.09777e-21)
(1.02988 -0.164398 1.12464e-20)
(1.03393 -0.16726 2.20291e-20)
(1.02828 -0.16297 7.11469e-23)
(0.998603 -0.116894 -2.28774e-23)
(1.00082 -0.119434 -4.10898e-22)
(0.886297 -0.00451563 2.31923e-22)
(0.852764 -0.00392345 -7.47467e-21)
(1.00547 -0.0153037 -5.42326e-22)
(1.00517 -0.0154673 5.83869e-22)
(1.00572 -0.0158707 -3.75726e-21)
(1.00069 0.00575717 -2.65772e-24)
(1.00039 0.0055774 7.3016e-23)
(1.0006 0.00539134 1.58355e-22)
(0.00766766 0.0446496 0)
(0.0112406 0.0412188 0)
(0.0097481 0.0417088 1.31371e-21)
(0.853149 0.0493442 1.80274e-22)
(0.853337 0.047074 -2.38477e-21)
(0.865634 0.0441166 -1.74532e-22)
(0.855147 0.04753 0)
(0.847971 0.0529837 -5.90238e-22)
(0.0504415 -0.00280185 1.15709e-20)
(0.0805361 -0.00882461 0)
(0.091561 -0.0137722 -1.06074e-20)
(0.84888 0.0521797 3.74807e-21)
(0.8451 0.0551401 -6.6207e-21)
(0.855611 0.060466 6.71334e-21)
(0.923176 -0.010046 3.73202e-22)
(0.887956 -0.0103073 5.08655e-21)
(0.871182 -0.011141 6.1638e-22)
(1.07344 -0.0584651 8.92561e-21)
(1.07502 -0.0571967 9.12331e-21)
(1.00042 -0.000838534 -2.95829e-22)
(0.999437 -0.0018325 -7.42481e-23)
(0.999079 -0.000702692 -2.50062e-22)
(1.09419 -0.154045 -1.05257e-20)
(1.09511 -0.15672 -6.0862e-22)
(1.0971 -0.154099 0)
(1.07507 -0.180665 0)
(1.07838 -0.179987 0)
(1.07591 -0.183318 0)
(-0.0205908 -0.0193585 1.49686e-20)
(-0.0165068 -0.0148206 -1.47903e-20)
(-0.0151577 -0.0222155 4.50965e-21)
(1.02307 -0.00166235 1.32171e-20)
(1.02242 -0.00119363 2.28209e-21)
(1.02285 -0.00194157 -5.44448e-21)
(1.00386 -0.0013817 -1.36488e-20)
(1.00407 -0.00129319 -5.83324e-21)
(1.00504 -0.00177444 -7.36806e-22)
(1.00099 0.00594563 -7.42763e-23)
(1.00075 0.00614087 6.38548e-24)
(0.990615 0.000171469 8.81033e-22)
(0.990941 0.000152352 -7.99154e-22)
(0.990373 0.000169094 -4.89046e-23)
(-0.0358215 -0.0296589 2.03189e-20)
(-0.0400661 -0.0278575 1.27101e-20)
(-0.0342775 -0.0325931 1.33029e-20)
(1.01479 -0.0433964 -1.16541e-21)
(1.01332 -0.0430479 2.44751e-21)
(1.04349 -0.0187864 -8.57374e-21)
(1.04278 -0.0179302 1.02615e-20)
(1.0441 -0.0179362 1.13842e-20)
(1.02844 -0.16646 -5.42033e-21)
(1.02728 -0.162328 2.75681e-21)
(0.402322 -0.0932564 -4.17262e-21)
(0.392625 -0.0903518 3.9911e-21)
(0.361643 -0.0862488 -3.54327e-21)
(0.989782 -0.0386169 -3.49302e-22)
(0.989341 -0.0373906 -8.2567e-23)
(0.990479 -0.0376965 0)
(1.0637 -0.157894 -2.19075e-20)
(1.06134 -0.156636 1.45953e-20)
(1.06128 -0.159357 1.35626e-20)
(0.977788 -0.0600988 -7.22308e-22)
(0.979312 -0.0587428 3.0144e-21)
(0.97969 -0.0610819 -6.24963e-23)
(0.998414 -0.0225484 0)
(0.998619 -0.0218907 -2.06975e-21)
(0.998131 -0.0218168 -1.6637e-21)
(0.812328 -0.181525 1.20209e-20)
(0.813712 -0.181846 -1.76811e-20)
(0.864554 0.0365682 3.91127e-23)
(0.855552 0.0459373 2.14504e-21)
(1.08929 -0.0992943 3.05335e-20)
(1.08662 -0.099429 -3.51501e-21)
(1.08763 -0.0967397 1.41889e-20)
(1.00166 -0.0406271 -6.83089e-21)
(1.00071 -0.0409601 -2.77028e-21)
(-0.0139195 -0.0131855 -5.66783e-21)
(-0.0232585 -0.00896578 -5.53231e-20)
(-0.037245 -0.00655429 -6.80484e-21)
(0.686888 -0.166347 7.63054e-21)
(0.679083 -0.165837 -1.58107e-20)
(0.740511 -0.174113 -1.63656e-20)
(0.541448 -0.0218269 -2.78412e-21)
(0.546396 -0.0251136 -9.88591e-21)
(1.02341 -0.00189501 -4.36419e-21)
(1.02328 -0.00149698 9.58987e-21)
(1.00385 -0.002231 -6.71694e-21)
(1.00429 -0.00255373 -4.41532e-21)
(1.00382 -0.00266657 1.17071e-21)
(0.995134 -0.00267263 -3.4855e-22)
(0.995085 -0.00260357 -1.37821e-22)
(0.994992 -0.0025569 -1.68795e-21)
(1.0352 -0.132964 -1.52402e-20)
(1.03393 -0.131091 1.03664e-20)
(0.152219 -0.0207547 3.33664e-21)
(0.171605 -0.0262117 -1.09558e-20)
(0.156763 -0.0201407 -1.49577e-20)
(1.06896 -0.120518 0)
(1.06968 -0.123206 -1.01271e-20)
(1.06684 -0.122526 0)
(-0.0477432 -0.00957096 1.22288e-20)
(-0.0712242 -0.00484641 1.93259e-20)
(1.04697 -0.0281641 2.4612e-21)
(1.04546 -0.0277416 3.15595e-22)
(1.04625 -0.0266909 2.24854e-20)
(0.915453 -0.0178596 -1.34606e-22)
(0.905877 -0.0190139 -8.89607e-23)
(0.913059 -0.0146227 -1.64687e-21)
(1.02324 -0.0128629 2.57242e-21)
(1.02333 -0.0135545 -1.63362e-21)
(1.02254 -0.0130293 9.59927e-21)
(0.0567745 0.00125877 0)
(0.0817036 -0.00247863 7.70532e-21)
(0.0429081 0.0075856 0)
(0.990153 -0.0397785 3.67549e-22)
(0.989008 -0.0394677 -3.38688e-22)
(0.558228 -0.0827772 -2.12968e-21)
(0.603113 -0.0934581 0)
(0.994918 -0.0132575 0)
(0.99446 -0.0134258 -2.07404e-22)
(0.994766 -0.0138807 3.45663e-22)
(0.813557 -0.0717953 3.76895e-21)
(0.883482 -0.0735968 2.92081e-21)
(0.867351 -0.077778 5.30666e-21)
(1.06255 -0.0658923 -5.97625e-21)
(1.06051 -0.066427 0)
(1.06245 -0.068433 1.69987e-20)
(0.992531 0.0012772 -3.09849e-22)
(0.992586 0.00129239 5.564e-22)
(0.992504 0.00141579 1.88967e-22)
(1.13517 -0.204024 -1.11309e-20)
(1.14109 -0.209051 -2.59747e-20)
(0.998065 -0.00849789 -1.90046e-21)
(0.998036 -0.00858495 -2.44706e-23)
(0.998073 -0.00833473 -8.90723e-22)
(0.855977 0.0255551 -3.42306e-21)
(1.06737 -0.0772915 -3.06113e-23)
(1.06612 -0.0786979 3.73023e-21)
(1.06835 -0.0794822 -6.19751e-21)
(1.0632 -0.0641965 -5.57009e-21)
(1.06504 -0.065741 1.14066e-20)
(0.989915 8.35326e-05 -3.26344e-22)
(0.989906 0.000164796 7.83484e-22)
(0.990057 0.000100377 -2.05586e-22)
(1.0611 -0.153885 0)
(1.06377 -0.152338 -1.59329e-20)
(0.433262 -0.0871889 0)
(0.406798 -0.0807134 8.14344e-21)
(0.405542 -0.0806009 -1.1579e-20)
(1.00182 0.000266983 0)
(1.00183 -0.001456 -9.25525e-22)
(0.990947 4.9395e-05 -8.48965e-22)
(0.989985 4.15448e-05 -7.52692e-22)
(-0.0714231 -0.020842 -8.55501e-21)
(-0.0489944 -0.0213944 2.37793e-21)
(-0.0679879 -0.0195154 4.57056e-21)
(1.08223 -0.129734 -1.05813e-20)
(1.08517 -0.130075 2.54859e-21)
(1.08373 -0.127152 -1.07528e-20)
(1.00693 -0.0262408 -1.08351e-21)
(1.00707 -0.0270411 4.37851e-21)
(1.00644 -0.0264101 5.62323e-21)
(1.08947 -0.0424107 1.25804e-20)
(1.09134 -0.0435671 2.19527e-21)
(0.999445 0.000413293 2.59643e-23)
(1.00024 0.000621384 1.22458e-23)
(0.999813 0.000417089 0)
(0.995245 -0.0121004 -8.08227e-22)
(0.995416 -0.0115707 5.7111e-22)
(0.995659 -0.0119883 5.49374e-22)
(1.09051 -0.136173 7.4932e-21)
(1.08781 -0.135803 1.18377e-20)
(1.08885 -0.138939 -1.4996e-20)
(1.00263 0.00493706 1.26386e-23)
(1.00229 0.00478887 4.03415e-23)
(1.00252 0.00453982 2.37109e-23)
(0.568688 -0.147242 3.97036e-20)
(0.511833 -0.138443 1.85841e-20)
(0.992177 -0.0142202 2.26567e-22)
(0.992626 -0.0147678 -2.28628e-22)
(0.989959 -1.70712e-05 -5.76606e-22)
(0.990795 3.10236e-05 5.28261e-22)
(0.989942 -6.53454e-06 -1.16743e-21)
(0.992449 0.00125931 1.85553e-22)
(0.99255 0.00114303 -2.92445e-22)
(0.998089 -0.00838854 -3.72846e-22)
(0.998047 -0.00868987 7.63433e-22)
(0.992276 -9.37414e-06 1.5588e-21)
(0.992279 1.66264e-05 1.76739e-21)
(0.990183 -3.56391e-05 -1.20928e-21)
(0.989958 -2.45801e-06 -1.60843e-21)
(0.646793 -0.0102959 4.5997e-21)
(0.655971 -0.0111259 -1.35721e-21)
(0.462855 -0.0958338 -7.50408e-21)
(0.465549 -0.0963786 -3.47378e-22)
(1.00061 0.00309409 -5.886e-23)
(1.00041 0.00327623 -2.64902e-22)
(1.00072 0.0033561 -4.56296e-24)
(0.994067 -0.000487975 1.85359e-23)
(0.9938 -0.000455861 -3.5797e-21)
(0.993137 -0.000221844 6.7914e-23)
(1.00255 -0.0012192 1.38078e-22)
(1.00098 -0.000898469 -6.00416e-22)
(1.00089 -0.000725075 -1.95147e-21)
(0.00403107 0.0459732 1.27022e-20)
(0.00524573 0.0517685 0)
(1.08769 -0.0443126 2.13964e-20)
(1.087 -0.0416219 7.12101e-21)
(0.808658 -0.158819 -3.81081e-21)
(0.756076 -0.152718 -1.56256e-20)
(0.708893 -0.0164915 7.39832e-23)
(0.953174 -0.0118256 2.82165e-23)
(0.96642 -0.0108183 4.15348e-22)
(0.992979 0.0069195 2.1885e-22)
(0.993083 0.00699796 -1.43517e-22)
(0.992872 0.0069939 2.19349e-22)
(0.973333 -0.0112972 5.55189e-21)
(0.940343 -0.0137785 -3.95931e-21)
(1.07491 -0.124501 8.62699e-21)
(1.07717 -0.125402 1.33258e-20)
(1.07485 -0.127287 -3.07952e-22)
(1.00076 -0.0198429 -2.12885e-21)
(1.00033 -0.0195716 3.25789e-22)
(1.04591 -0.165511 7.27585e-21)
(1.04826 -0.164929 2.75066e-21)
(1.04652 -0.167649 -3.48326e-21)
(1.00524 -0.0147126 2.71987e-21)
(1.00578 -0.0150828 2.69425e-21)
(0.994947 -0.00218157 3.44684e-21)
(0.99512 -0.00236234 1.10398e-21)
(0.995116 -0.00223092 -2.6565e-21)
(-0.0055958 -0.0145452 4.8835e-20)
(0.00295335 -0.0195273 1.49174e-20)
(1.02386 -0.0125632 2.51148e-21)
(1.02302 -0.0120589 3.23958e-21)
(0.648034 -0.0100619 1.66605e-21)
(0.995418 -0.00100193 -3.24185e-21)
(0.995204 -0.000940084 2.56477e-22)
(0.994872 -0.000780173 2.0086e-21)
(1.00083 0.00287464 -2.11942e-23)
(1.00049 0.00277647 7.94332e-23)
(0.700231 -0.168103 2.29473e-20)
(0.714337 -0.170387 1.73787e-20)
(0.761621 -0.177932 -1.74328e-20)
(0.0496357 -0.0454282 0)
(0.00885789 -0.0356251 1.89984e-21)
(0.026902 -0.0365377 0)
(0.155232 0.0465242 -1.73283e-21)
(0.223786 0.0541179 1.80361e-22)
(0.161207 0.0433528 5.41839e-23)
(-0.0745245 -0.0221641 8.5145e-21)
(-0.0859821 -0.0204302 -1.6459e-20)
(1.00395 -0.0016481 -2.86637e-21)
(1.00224 -0.000935045 -1.63317e-21)
(0.997317 -0.00427267 -1.1766e-21)
(0.997498 -0.00441336 3.41524e-22)
(0.99741 -0.00436487 -1.13178e-21)
(0.997504 0.00773211 0)
(0.997333 0.00741622 -6.471e-23)
(0.997229 0.00777213 5.57472e-23)
(1.03502 -0.0492618 6.4299e-21)
(1.03565 -0.0509373 9.66044e-21)
(1.03643 -0.049273 -8.09214e-21)
(0.84469 0.0469717 1.14323e-21)
(0.854826 0.0442551 -2.64899e-21)
(0.996481 0.0169036 3.13091e-21)
(0.996943 0.0186612 -6.62369e-23)
(0.998186 0.0167939 -4.75988e-23)
(1.04188 -0.166509 1.25025e-20)
(1.04424 -0.163321 6.74773e-21)
(1.04237 -0.0116742 1.17898e-21)
(1.04217 -0.0126674 8.58468e-21)
(0.867635 0.0384748 1.71636e-22)
(0.858579 0.0441537 -2.64259e-22)
(1.14368 -0.154156 0)
(1.14202 -0.157634 3.33939e-20)
(1.00092 -0.00104207 2.77319e-21)
(1.00095 -0.00112931 -8.48301e-22)
(1.00217 -0.00144067 9.35299e-22)
(-0.0305305 0.0106519 0)
(0.038391 0.0155937 -1.1841e-20)
(0.9904 0.000121212 1.07019e-21)
(0.990892 0.00017647 -2.82606e-22)
(1.05283 -0.0463339 2.36433e-20)
(1.05431 -0.0470015 6.6039e-21)
(1.05372 -0.0450204 9.73235e-21)
(1.03348 -0.0494807 0)
(1.03404 -0.0477388 0)
(0.997999 -0.00665226 2.83977e-21)
(0.997839 -0.00636664 3.19377e-21)
(0.997841 -0.00648518 2.21881e-21)
(1.01813 -0.0425273 1.7669e-21)
(1.01865 -0.0416382 -1.81446e-21)
(1.01928 -0.0428572 7.49779e-21)
(1.07036 -0.182566 1.50944e-20)
(1.07336 -0.179441 0)
(1.09322 -0.150652 -1.44661e-20)
(1.09097 -0.153469 5.62668e-21)
(1.00554 0.0101614 1.09181e-22)
(1.00559 0.00973348 2.28053e-22)
(1.00599 0.0100802 7.70649e-24)
(1.08457 -0.0749367 1.28972e-20)
(1.08362 -0.0766094 1.56086e-20)
(1.08594 -0.0768427 1.23104e-20)
(-0.0314947 -0.0321696 -2.49676e-21)
(-0.0351304 -0.0267114 6.82752e-21)
(0.99479 -0.00201816 -9.45218e-22)
(0.994815 -0.00213344 2.31776e-21)
(1.01124 -0.0571711 -2.84616e-21)
(1.01295 -0.0581193 0)
(1.01245 -0.0560854 -1.38791e-21)
(0.998628 0.00673098 -9.72378e-25)
(0.99836 0.00681667 -7.2498e-23)
(0.998355 0.00647864 1.82571e-23)
(0.996107 0.014572 -2.82314e-22)
(0.993854 0.0166291 -1.03756e-21)
(1.09099 -0.101865 1.62531e-20)
(1.09191 -0.0989207 1.81238e-20)
(1.00112 -0.0199517 -3.05476e-21)
(1.00077 -0.0192586 -2.65664e-21)
(0.311615 -0.0554802 5.48287e-21)
(0.282631 -0.0480944 -1.1712e-22)
(0.306428 -0.052807 1.15511e-20)
(0.130138 -0.0130495 3.92825e-20)
(0.146159 -0.0211014 -4.13759e-21)
(0.992078 -0.000268893 2.82055e-22)
(0.992136 -0.000318721 -1.16316e-21)
(0.992132 -0.000288142 0)
(0.998167 -0.00696394 -3.93297e-21)
(0.998182 -0.00682349 -1.64186e-21)
(0.109598 0.0380011 -4.36207e-22)
(0.158631 0.0494847 -9.39534e-22)
(0.99463 -0.00186037 1.07087e-22)
(0.99476 -0.00189469 -2.10404e-21)
(0.85099 -0.0081169 1.31035e-21)
(0.910265 -0.00950194 -1.28265e-21)
(1.07194 -0.123825 -9.60459e-22)
(1.07422 -0.121816 8.9891e-21)
(0.997698 -0.00461071 6.19234e-22)
(0.997745 -0.0046794 0)
(0.997875 -0.00470046 -2.41463e-21)
(0.938802 -0.172076 -2.77989e-21)
(0.989826 -0.179922 7.05695e-21)
(1.00287 0.00564755 -7.32121e-24)
(1.00322 0.005805 -1.68634e-23)
(1.00298 0.00606202 -1.89101e-23)
(1.04681 -0.0693041 6.29917e-21)
(1.04564 -0.0676944 -5.0248e-21)
(1.04481 -0.0693525 -1.01775e-22)
(0.638285 -0.158814 1.69584e-20)
(1.0242 -0.0114311 2.58923e-21)
(1.024 -0.0107576 -5.35928e-21)
(1.02344 -0.0110654 -2.46553e-21)
(1.03068 -0.137106 -2.08934e-20)
(1.03337 -0.137176 -9.52741e-21)
(1.00523 0.00238317 -1.42841e-23)
(1.00494 0.00199317 -1.29536e-23)
(1.00549 0.00223593 -1.07115e-23)
(0.991082 0.000309069 4.18993e-22)
(0.991106 0.000300786 3.91825e-22)
(0.991256 0.000283402 -1.06332e-22)
(0.998219 -0.0231848 -2.95389e-21)
(0.99877 -0.023224 -1.06057e-21)
(1.00359 -0.00176041 5.64338e-21)
(1.0038 -0.00168105 6.69744e-21)
(1.05448 -0.15282 -1.04116e-20)
(1.05213 -0.151628 2.42589e-21)
(1.05196 -0.154621 -1.12503e-20)
(0.989815 -0.0904635 5.51348e-22)
(0.988003 -0.0920611 2.46178e-22)
(0.990774 -0.0929952 -4.16529e-22)
(0.843352 0.0431513 6.44696e-21)
(-0.0233174 -0.0242083 2.07158e-20)
(-0.0261828 -0.0173944 1.50323e-21)
(0.99239 0.0012248 3.31041e-23)
(0.992433 0.00109676 -7.80331e-22)
(0.992319 0.00116858 2.04996e-22)
(1.07662 -0.100334 2.02531e-20)
(1.07897 -0.0999912 -2.76931e-20)
(1.07743 -0.0978618 1.40346e-20)
(0.412547 -0.0958352 5.6485e-21)
(0.446199 -0.100111 4.76177e-21)
(1.04968 -0.0447026 1.01577e-20)
(1.05112 -0.0456264 3.18894e-22)
(1.05062 -0.0438096 0)
(0.997134 -0.00412984 0)
(0.997206 -0.00419348 0)
(0.845705 0.0206782 -5.99074e-23)
(0.869748 0.0234816 1.87402e-21)
(0.88037 0.0191503 -1.5416e-22)
(0.997639 -0.00455275 -6.76512e-22)
(0.997503 -0.00450593 2.78043e-21)
(0.995184 -0.00274305 -1.17743e-21)
(0.995272 -0.00278898 1.69852e-21)
(0.992869 0.0068961 -3.02616e-24)
(0.992979 0.00680619 4.25149e-23)
(0.157936 -0.0370662 -1.37859e-20)
(0.203878 -0.0481305 1.18614e-21)
(0.199983 -0.0430571 -1.38254e-20)
(0.994719 -0.000189267 2.83175e-21)
(0.994347 -0.000300781 2.31718e-21)
(0.99462 -0.000152686 -1.04889e-21)
(1.01456 -0.0135381 -6.17864e-21)
(1.01405 -0.0129021 -2.41254e-22)
(1.01392 -0.0135906 -3.68642e-21)
(0.997749 -0.0975782 0)
(0.998665 -0.0954917 0)
(1.00013 -0.0974668 0)
(1.02503 -0.0117664 -1.1868e-20)
(1.02443 -0.0121492 7.26257e-21)
(0.371166 -0.0842115 1.83483e-22)
(0.309607 -0.0777259 3.05634e-21)
(0.340737 -0.0800249 1.92645e-21)
(1.05185 -0.0655878 -8.1166e-21)
(1.05161 -0.0635455 -1.3166e-21)
(1.05386 -0.0646372 1.8976e-21)
(0.153951 -0.044669 -5.8379e-21)
(0.133706 -0.0381105 -4.08875e-20)
(0.149601 -0.0447532 -3.37567e-20)
(1.00474 0.00752594 -2.02967e-23)
(1.00489 0.00791536 -6.42375e-24)
(1.00445 0.00773237 -3.22518e-23)
(0.41733 -0.114059 -1.21207e-20)
(0.375124 -0.1068 8.92496e-21)
(0.390427 -0.107918 2.13859e-20)
(1.00743 -0.0258869 -3.25947e-21)
(1.00678 -0.0253263 -3.03953e-21)
(0.779854 0.0193923 -4.86508e-22)
(0.791901 0.0246564 3.21858e-21)
(0.775278 0.0287266 8.73138e-21)
(1.00411 0.00552233 -1.80374e-23)
(1.00369 0.00533639 -3.35688e-23)
(1.00397 0.00511674 -4.75961e-23)
(0.998067 0.00756483 2.44503e-23)
(0.998319 0.00788056 -8.09245e-23)
(0.998336 0.00747557 -6.06235e-23)
(0.977779 -0.0143199 3.97176e-22)
(0.969293 -0.00921084 6.52183e-22)
(0.982218 -0.00760902 1.3607e-21)
(0.989933 -0.0419678 -1.48746e-21)
(0.99058 -0.0408649 2.09462e-22)
(0.991346 -0.0422332 -1.59e-22)
(0.0196505 0.00457492 4.55781e-22)
(0.0263214 -0.000774956 1.08822e-20)
(1.02351 -0.00487922 0)
(1.02342 -0.00434676 0)
(1.02297 -0.00458929 -4.71896e-21)
(0.159808 -0.0449657 1.72442e-20)
(0.17615 -0.0514663 2.87873e-20)
(1.05041 -0.0663097 5.86374e-22)
(1.05207 -0.067102 -2.18379e-20)
(1.04768 -0.0293599 -1.56208e-20)
(1.04846 -0.0282438 -1.96242e-20)
(0.508235 -0.113735 2.149e-20)
(0.479521 -0.108142 4.19803e-21)
(0.473511 -0.107941 1.09776e-20)
(1.06388 -0.171543 4.73745e-21)
(1.06106 -0.172111 -2.13408e-20)
(1.06276 -0.174665 5.67504e-21)
(0.29083 -0.0925987 -2.37505e-21)
(0.263061 -0.086062 1.77141e-20)
(0.259472 -0.0870006 -1.22128e-20)
(0.99187 0.000180043 0)
(0.991898 0.000190318 2.65163e-24)
(0.993027 0.000122276 -4.84714e-22)
(1.06744 -0.0851138 -9.55799e-21)
(1.06867 -0.0873883 3.7852e-21)
(1.06606 -0.0870861 1.54185e-20)
(0.999109 0.000351218 -5.03469e-23)
(0.998896 0.000183975 6.19928e-23)
(-0.040903 -0.000939636 -2.42638e-21)
(-0.0383356 0.00375345 2.55109e-23)
(-0.0361964 -0.000381738 -6.58271e-21)
(1.00448 0.00572672 2.67539e-24)
(1.0042 0.00595267 1.51024e-23)
(1.0355 -0.10863 7.92369e-21)
(1.0374 -0.107171 0)
(0.982253 -0.0485551 9.13227e-23)
(0.982075 -0.0498138 -6.22387e-22)
(0.981491 -0.049026 2.49089e-22)
(0.992045 -0.000242374 2.6316e-22)
(0.992026 -0.000216989 1.12098e-21)
(0.992356 0.00137548 3.62739e-22)
(1.10475 -0.148439 -7.12996e-21)
(1.10156 -0.148741 -8.42792e-21)
(1.1029 -0.145579 3.30633e-21)
(0.994255 -0.0524938 -5.36401e-22)
(0.995546 -0.0525008 5.59122e-22)
(0.994909 -0.0511063 -4.91098e-22)
(0.424671 -0.0884314 -1.1227e-21)
(0.395568 -0.0875764 -3.62671e-21)
(0.974439 -0.0599322 2.49401e-21)
(0.97644 -0.0614616 -1.09362e-21)
(0.997803 0.00766323 1.56755e-22)
(0.997746 0.00805465 0)
(1.01505 -0.0135339 5.31676e-21)
(1.01489 -0.0141445 8.84763e-22)
(0.993674 -0.012463 1.3114e-22)
(0.993479 -0.0119519 -3.29372e-23)
(1.01323 -0.0141022 -1.71576e-21)
(1.01426 -0.00898568 2.19773e-21)
(1.01221 -0.0131902 9.49653e-22)
(1.00506 0.0136267 0)
(1.00507 0.0130935 0)
(1.0046 0.0133036 -8.32092e-24)
(0.997017 -0.0996357 0)
(0.995519 -0.0976587 3.76115e-22)
(1.00109 0.000914388 4.83715e-23)
(1.00063 0.000839083 2.43203e-23)
(0.239082 -0.0772627 1.06386e-20)
(0.214569 -0.0705906 2.18515e-20)
(0.2318 -0.0759517 1.25435e-20)
(1.07963 -0.129776 -8.29961e-23)
(1.08094 -0.132665 0)
(0.79049 0.00245957 -4.08828e-21)
(0.796309 -0.00523023 9.16197e-21)
(0.778231 -0.00540621 1.08279e-21)
(1.03228 -0.0495769 5.07895e-21)
(1.03076 -0.0495136 7.9003e-21)
(1.03146 -0.0479357 5.6883e-21)
(1.03278 -0.0649163 2.05206e-21)
(1.03348 -0.0630601 0)
(1.03145 -0.0634181 0)
(0.998484 -0.00553735 -1.28737e-21)
(0.998431 -0.00566674 6.59743e-23)
(0.998411 -0.00573141 5.40885e-24)
(1.01182 -0.0191064 -5.5966e-22)
(1.00955 -0.0137809 -8.02557e-22)
(1.03299 -0.0324334 -5.67773e-21)
(1.03324 -0.0334895 -1.01461e-21)
(1.03207 -0.0328033 1.96848e-21)
(1.03307 -0.0509338 -3.90201e-21)
(1.10657 -0.130539 -1.45301e-20)
(1.10846 -0.133074 6.21705e-21)
(1.10453 -0.132933 -1.82534e-20)
(0.983386 -0.0273575 -1.35386e-21)
(0.982954 -0.0283891 -5.96246e-22)
(0.98363 -0.0287076 -3.04433e-22)
(0.988991 -0.0878599 -8.3923e-22)
(0.991549 -0.0887223 2.96692e-22)
(0.663962 -0.162198 -3.61266e-21)
(0.722478 -0.170471 -2.5979e-20)
(0.168785 -0.0140776 1.46756e-20)
(0.12876 -0.00904027 1.27138e-20)
(0.120125 -0.00500913 -4.24941e-21)
(1.02975 -0.00669744 -5.75043e-21)
(1.02923 -0.00609935 6.06279e-21)
(1.02897 -0.00662608 -1.10645e-20)
(0.997859 0.00727722 1.56994e-23)
(1.00181 -0.0395413 -1.85298e-21)
(1.00118 -0.0385753 -1.56768e-22)
(1.00211 -0.0381823 -8.89542e-22)
(0.943467 -0.0121004 -5.72929e-21)
(0.967992 -0.00990371 5.02003e-22)
(0.938593 -0.0127357 3.22612e-22)
(0.994129 0.00609685 2.67816e-23)
(0.994338 0.00613055 1.47212e-22)
(0.994225 0.00635169 -5.82537e-23)
(0.908401 -0.169041 8.96159e-21)
(0.920854 -0.168858 3.95329e-21)
(0.86333 -0.162664 -7.81836e-22)
(1.049 -0.0459585 8.78396e-21)
(1.04833 -0.0440857 -2.45514e-21)
(1.03384 -0.0320483 0)
(1.03268 -0.0313322 0)
(1.06888 -0.0761942 -2.21657e-20)
(1.06671 -0.0757714 -1.16843e-20)
(0.545164 -0.121389 1.13111e-20)
(0.53762 -0.120414 2.42103e-22)
(0.98895 -0.00394495 1.07784e-22)
(0.989501 -0.00272583 0)
(0.990236 -0.00363566 -2.79019e-22)
(0.998592 -0.00529103 -1.55111e-21)
(0.998557 -0.00539518 -1.0898e-21)
(1.05174 -0.0476076 3.04169e-22)
(0.993818 -0.0113307 2.32593e-23)
(0.992864 -0.0120754 6.26097e-23)
(0.993457 -0.0114195 -3.1217e-22)
(1.06813 -0.117958 1.51422e-20)
(1.07087 -0.118394 2.00278e-21)
(1.02065 -0.0776676 -5.84531e-21)
(1.02231 -0.0766823 -6.18033e-21)
(0.995274 -0.00254283 -1.38653e-21)
(0.995107 -0.0024676 1.36221e-21)
(0.920271 -0.0183873 5.9354e-22)
(0.929699 -0.0153625 -2.51549e-22)
(0.98567 0.00179763 2.8732e-23)
(0.986799 -0.000526101 -1.85344e-23)
(0.988147 0.00147942 0)
(0.272267 -0.0954672 3.05408e-20)
(0.242935 -0.0885394 -2.16428e-20)
(0.238094 -0.0894829 2.39755e-20)
(0.94273 0.00741704 -2.91503e-22)
(0.926021 0.0092915 1.95389e-22)
(1.00504 0.0141057 -1.01644e-24)
(1.0055 0.0138861 2.09903e-24)
(1.00531 0.00703698 1.86894e-23)
(1.00502 0.00728958 2.70187e-23)
(1.00551 0.0074429 2.95063e-23)
(1.00014 0.000440577 8.12492e-24)
(1.00056 0.000494076 1.95785e-23)
(1.00108 0.000735731 -3.06224e-23)
(1.10867 -0.128445 -3.12943e-20)
(1.10522 -0.128282 2.35142e-20)
(0.891685 -0.0131387 -3.3249e-22)
(0.940865 -0.011289 1.4255e-21)
(0.820483 -0.00682709 9.00459e-22)
(0.842737 -0.00603796 -2.48828e-22)
(0.788561 -0.00633316 -6.03484e-21)
(0.994637 -0.00237655 0)
(0.994711 -0.00239925 -1.30963e-21)
(0.9948 -0.0025033 1.2297e-21)
(1.02702 -0.00234826 0)
(1.02681 -0.00266021 -4.6052e-21)
(1.02732 -0.00264315 0)
(0.992088 -0.0109398 -1.46896e-22)
(0.994863 -0.0114727 3.62444e-22)
(0.899729 -0.0189668 -1.6779e-21)
(0.902884 -0.0156461 -4.79866e-23)
(0.896077 -0.0135082 -3.26081e-23)
(1.03872 -0.167262 -1.43998e-21)
(1.03998 -0.168945 1.03526e-20)
(1.01528 -0.0426169 3.1272e-21)
(1.01589 -0.0437682 -3.24446e-21)
(1.0443 -0.0196182 -1.1726e-20)
(1.04296 -0.0194971 -2.02815e-20)
(1.08443 -0.104639 -1.54164e-20)
(1.08187 -0.104724 1.17339e-20)
(1.08329 -0.107455 -1.38613e-20)
(0.900873 -0.0198525 9.82258e-23)
(0.899322 -0.0186825 -3.47858e-21)
(0.949283 -0.17483 0)
(0.88947 -0.167606 2.65803e-21)
(1.01539 -0.0585569 7.9622e-21)
(1.01584 -0.0577589 2.05105e-21)
(1.01666 -0.0589344 4.49427e-21)
(0.543032 -0.0772457 -2.09873e-21)
(0.605732 -0.0822985 4.88288e-21)
(0.995375 -0.00280664 8.32905e-24)
(0.995516 -0.00288854 6.7674e-22)
(0.99539 -0.00269422 -1.3544e-21)
(0.247504 -0.0781361 -2.25345e-21)
(0.266721 -0.0836664 -2.99163e-20)
(1.08358 -0.0734923 -2.41303e-21)
(1.08581 -0.0735072 2.59798e-22)
(1.04481 -0.0613988 1.44581e-20)
(1.04413 -0.0628937 4.41203e-21)
(0.292186 -0.0992398 -2.38458e-20)
(0.255296 -0.0929098 7.70334e-21)
(0.268979 -0.0941176 -1.85343e-20)
(1.01296 -0.024382 2.38454e-21)
(1.0123 -0.0244107 1.44884e-21)
(1.01297 -0.0250734 1.67058e-21)
(0.995074 -0.0126624 -2.51465e-22)
(0.99475 -0.0121978 1.80715e-22)
(0.354543 -0.0886234 -5.56523e-21)
(0.358009 -0.0868366 -9.47931e-21)
(0.385513 -0.0944503 6.74331e-22)
(0.994493 -0.00225126 0)
(0.994572 -0.00235887 0)
(1.10065 -0.116908 0)
(1.10257 -0.119314 3.01759e-21)
(1.09912 -0.119743 0)
(1.06354 -0.0785051 -5.08641e-21)
(1.06492 -0.0808739 2.57172e-21)
(1.01583 -0.0417445 -1.37883e-22)
(1.01471 -0.0413807 6.30876e-21)
(0.0983996 -0.0540097 -7.03133e-22)
(0.0826846 -0.0533992 0)
(1.01418 -0.0586673 3.56847e-21)
(1.01522 -0.0599116 2.98209e-21)
(1.02906 -0.0314773 -2.05308e-21)
(1.02995 -0.0315569 -5.4262e-21)
(1.02968 -0.0325562 0)
(0.486 -0.106307 -1.15967e-20)
(0.47282 -0.102405 -9.15739e-21)
(0.450992 -0.0960116 5.12609e-21)
(0.999977 0.00592178 9.11381e-23)
(0.99975 0.006067 8.52378e-23)
(0.999675 0.00569732 -1.26652e-22)
(1.03254 -0.0663048 -5.13726e-22)
(1.03423 -0.0658735 -1.02928e-20)
(0.99278 0.00693443 -3.3366e-22)
(0.992659 0.00701328 9.4383e-23)
(0.992699 0.00686364 4.6927e-23)
(0.306083 -0.102946 1.88295e-20)
(0.311177 -0.103758 3.9486e-20)
(1.13526 -0.188607 -1.10137e-20)
(1.13711 -0.191529 5.01603e-20)
(1.13843 -0.188174 1.61494e-20)
(1.02402 -0.00514403 0)
(1.02358 -0.00540736 -4.93759e-21)
(1.09389 -0.13152 1.24387e-20)
(1.09192 -0.133902 1.12044e-21)
(1.091 -0.130494 -6.68897e-21)
(1.02549 -0.00401454 3.63993e-21)
(1.02526 -0.00436885 -4.39716e-21)
(1.02589 -0.00431574 -1.79663e-20)
(0.193536 -0.0195882 9.99847e-21)
(0.194494 -0.020536 -3.72132e-23)
(0.99836 -0.00570073 -5.4152e-22)
(0.998341 -0.00548985 5.31362e-22)
(0.998233 -0.00580394 -1.30587e-21)
(0.992446 0.000381714 -4.47064e-22)
(0.992554 0.000395807 2.39226e-22)
(0.992675 0.00043017 3.79676e-22)
(0.997974 -0.00753544 1.56356e-21)
(0.99806 -0.00778129 -5.08542e-22)
(0.998045 -0.00765695 1.49572e-21)
(1.1313 -0.188447 -3.48768e-20)
(1.13202 -0.184535 -5.27264e-20)
(1.06634 -0.0828527 -4.61118e-21)
(1.06874 -0.0832529 -1.4722e-20)
(1.05656 -0.0440908 -1.23338e-20)
(1.05622 -0.0455279 -4.5847e-21)
(1.0551 -0.0442036 -1.23529e-20)
(1.02681 -0.00209176 4.97854e-21)
(1.01359 -0.0243779 -1.08436e-20)
(1.01294 -0.0237787 2.36075e-21)
(1.02797 -0.0316147 -1.98863e-21)
(1.02822 -0.0304945 -5.41025e-22)
(0.882656 0.0334604 1.8986e-22)
(0.882121 0.0376421 -3.97738e-22)
(0.122108 0.0169182 1.10933e-21)
(0.111498 0.0105893 0)
(0.324587 -0.0619973 -1.62769e-20)
(0.35472 -0.0694508 2.0701e-22)
(0.331423 -0.065463 1.27333e-20)
(0.997406 -0.0366122 8.90168e-24)
(0.996957 -0.0376024 -5.44648e-22)
(0.996443 -0.0365055 -1.75866e-21)
(0.334126 -0.106994 -2.31826e-20)
(0.320675 -0.105338 1.76392e-20)
(0.742137 -0.141911 0)
(0.69719 -0.137121 -1.10316e-21)
(0.697028 -0.135936 -1.13958e-21)
(1.02339 -0.00240476 -6.51431e-23)
(1.0756 -0.102723 -3.23748e-22)
(1.07426 -0.100499 1.97453e-20)
(1.03699 -0.165647 -1.99531e-20)
(1.03771 -0.168264 -1.68489e-20)
(0.998029 -0.00880712 1.21885e-21)
(0.997985 -0.00891107 -2.11317e-22)
(0.997957 -0.00898089 -1.26138e-21)
(0.9897 -0.0515215 3.54537e-22)
(0.990575 -0.0503948 3.13772e-22)
(0.990725 -0.0520444 9.29935e-23)
(1.08501 -0.179991 9.81835e-21)
(1.08331 -0.176763 3.3531e-21)
(1.0862 -0.177783 1.60049e-20)
(0.999254 -0.176484 5.39518e-21)
(0.99818 -0.00766125 1.06459e-21)
(0.998192 -0.00744574 2.25562e-22)
(0.9982 -0.00770638 7.29582e-22)
(0.736777 -0.0158357 2.55934e-21)
(0.786621 -0.0158877 -3.76738e-22)
(0.73906 -0.015644 -1.5531e-21)
(0.335959 -0.0904694 -5.24914e-22)
(0.306091 -0.0836792 1.18986e-20)
(0.31477 -0.0846227 -1.62902e-20)
(1.02407 -0.0015273 3.80628e-21)
(1.02449 -0.00184039 5.64168e-22)
(0.991163 0.0147811 1.63027e-21)
(0.99013 0.0124829 -5.86523e-23)
(0.989284 0.0148541 -1.65878e-22)
(0.992544 0.0165598 1.55361e-22)
(0.993032 0.0141054 4.42584e-23)
(0.994324 -0.153461 -4.19582e-21)
(1.00519 -0.15398 -7.3899e-21)
(0.991884 -0.154816 -2.98735e-21)
(1.05704 -0.0428249 7.39883e-21)
(1.05819 -0.0442531 -1.9994e-20)
(0.988589 -0.0521122 1.96384e-22)
(0.988686 -0.050719 4.82069e-24)