/*--------------------------------*- C++ -*----------------------------------*\
| =========                 |                                                 |
| \\      /  F ield         | OpenFOAM: The Open Source CFD Toolbox           |
|  \\    /   O peration     | Version:  v2012                                 |
|   \\  /    A nd           | Website:  www.openfoam.com                      |
|    \\/     M anipulation  |                                                 |
\*---------------------------------------------------------------------------*/
FoamFile
{
    version     2.0;
    format      ascii;
    class       volScalarField;
    location    "1000";
    object      p;
}
// * * * * * * * * * * * * * * * * * * * * * * * * * * * * * * * * * * * * * //

dimensions      [0 2 -2 0 0 0 0];


internalField   nonuniform List<scalar> 
13851
(
0.000321523
0.00656719
-0.0141483
0.000250785
-0.0350948
-0.00530135
-0.00625969
-0.0162751
0.0011403
0.00600112
-0.000330408
-0.00206873
-0.0622944
-0.0421481
-0.00194627
-0.00647361
-0.0126675
0.00144647
-0.0551312
0.00111244
0.000104452
-0.0165949
0.00128066
0.00110597
0.00124095
-0.0149501
-0.0183465
-0.0874644
0.000233583
-0.00261507
-0.00606492
-0.0128836
-0.0127122
-0.00178972
0.00105101
-0.0588021
-0.0632991
-0.0283215
0.00815657
-0.0019093
-0.00086774
0.000656686
-0.0789244
-0.000309815
-0.000539033
-0.0846269
-0.000823361
-0.00391362
-0.018978
3.94663e-06
-0.0439223
-0.0522673
-0.081884
-0.0022166
-0.00125074
0.00065327
0.00141381
-0.0873242
-0.00259178
-0.00718604
-0.0256497
-0.0525093
0.00958043
-0.0395795
-0.0115567
0.000351434
-0.0625921
-0.000649095
-0.0286692
0.00170427
-0.0700562
-0.0642818
0.00830099
-0.00214443
-0.000861715
0.00112979
-0.0173852
-0.0726203
-0.0284736
-0.069435
-0.00893778
-0.000198024
-0.00348129
-0.0820248
0.0100939
0.00401853
-0.00298327
0.00650092
-0.0169987
0.00174028
-0.0582257
0.000372801
-0.000858919
-0.0199321
-0.0172404
0.00134056
-0.0367048
-0.0723243
-0.000117667
0.00141406
-0.0876105
-0.0343765
-0.000728887
-0.0211696
0.00027059
-0.0018571
-0.037621
0.000399484
-0.0656336
-0.00600028
0.00127445
0.00177519
0.000416411
0.00106571
0.00121751
0.00157433
-0.0718426
0.000720836
0.000311937
-0.000885438
-0.0793132
-0.0206265
-0.0631705
-0.00218598
-0.00195094
0.000693198
-0.00158953
-0.0312509
9.81929e-05
-0.0400419
-0.000951251
0.00063542
-0.0709174
-0.0034569
0.000767743
0.000533859
0.000689555
-0.063991
-0.0238408
0.0108614
-0.088983
-0.000973853
0.00107207
0.000918156
-0.0084904
-0.000669219
-0.000782371
-0.0384698
-0.00593121
-0.00101691
-0.0499185
-0.000912094
-0.0441075
0.00139579
-0.0125808
-0.00801615
0.00041504
-0.0038432
-0.0518113
-0.04295
0.000134665
-0.0242978
-0.086734
0.000688655
-0.0027766
0.000894484
-0.000785721
-0.0296304
5.2039e-05
-0.0775047
-0.0725089
0.00129975
0.000379469
0.00816908
0.000682557
-0.00444136
-0.0301773
0.00117348
-0.0592953
0.000368915
-0.0127296
-0.0626714
-0.00332914
-0.0179371
6.30225e-05
0.00147258
0.000585448
-0.000830945
-0.034627
0.00452405
-0.0011178
-0.0828965
0.0019078
-0.0261077
-0.0493068
-0.0117779
0.00107092
-0.00355251
0.00109917
0.00111982
0.000620555
-0.0827796
-0.000293431
-0.00240843
0.00390404
-0.00348543
-0.0119118
-0.0141334
-0.0711131
0.000187652
-0.0691616
-0.00091908
-0.00583933
0.000254095
0.000897451
-0.00025748
0.00828014
-0.0834641
-0.002356
-0.0708565
-0.0141415
-0.00935919
-0.0694104
-0.0472535
-0.068324
0.00139988
-0.021043
0.000280302
-0.0829298
0.000211709
-0.013788
0.0081672
0.00129478
0.00180122
-0.0430188
0.00240726
-0.0125701
-0.0137081
0.000837541
-0.00254444
-0.0046389
-0.000744035
-2.37404e-05
0.00532617
0.000293809
-0.0695461
-0.0341496
-0.00387165
-0.00744391
-0.00858026
0.00151276
-0.000818924
-0.00672362
-0.00782449
-0.0397686
0.0013855
0.00331665
-0.0655111
-0.0746941
-0.00280398
0.000889671
0.00145347
-0.0159702
0.00105844
-0.054743
-0.0114159
-0.00673677
-0.0196955
-0.0695528
0.00247672
0.0015241
-0.0122868
-0.0127393
-0.02798
-0.00612367
0.000643428
-0.000192769
0.000513524
-0.0674036
-0.000759017
-5.89111e-05
0.000124076
7.93827e-05
-0.0391253
-0.0131156
-0.00582205
0.00107851
-0.00145498
-0.0109351
-0.000516855
-0.0400411
-0.00295264
-0.00739641
-0.0287909
-0.000402131
-0.0562329
-0.00378323
0.00771882
0.000620387
-0.0689745
-0.0238971
-0.0119693
-0.068047
-0.0023008
-0.00266949
-0.0709239
0.00107362
-0.0355345
-0.0193578
-0.00290103
-0.0267388
-0.00364999
-0.0058884
-0.0713738
0.000758354
-0.00883495
0.000546661
-0.0681711
-0.0551378
-0.00244239
-0.0369686
-0.00217199
-0.0731625
0.00135595
0.0013398
0.000643222
-0.0546692
-0.0207647
-0.0130727
-0.00128238
-0.00240786
-0.00564033
-0.00105233
-0.0748234
-0.075409
0.00368506
-0.0663739
-0.0314581
-0.00199836
-0.0258657
-0.0387943
0.000736638
0.00409512
-0.0509083
-0.0518641
0.000926829
-0.00670876
-0.0701785
-0.00181557
-0.000618562
-1.25669e-05
-0.00182929
-0.0133125
0.00428695
-0.08355
0.000392073
-0.00578467
0.000684544
-0.00206322
0.000262832
0.000395474
0.000366942
-0.0696859
-0.00298513
-0.00301095
-0.03493
0.000637288
0.00686895
-0.00329255
-0.00781942
-0.0763969
-0.00294774
0.00937041
-0.017949
-0.0100596
-0.000801801
0.000656399
0.000998505
-0.0920191
-0.000828881
-0.025074
0.000807209
-0.0521322
-0.0806101
-0.000350549
-0.000917113
0.00108418
0.000472807
-0.00167616
0.00311303
-0.0375261
-0.0370879
-0.0307757
-0.0692094
-0.0694157
0.000708961
-0.00293789
-0.0771168
-0.0698034
0.00973814
-0.0710913
0.0010168
-0.0183566
0.00144474
-0.0314372
0.00123499
-0.00720286
0.00109163
-0.00562992
0.000155482
0.00108075
0.000859571
-0.0401321
0.00166414
-0.0729334
0.00231185
-0.0379308
-0.00157226
-0.000589991
-0.00766386
-0.00156991
-0.0116504
-0.00120685
0.000655941
0.00107701
0.00137809
-0.0262859
-0.00310432
-0.0446099
-0.00128902
-0.0700166
0.000580811
-0.00237684
-0.000785424
-0.0438164
-0.000816125
-0.00101986
0.00045132
0.00704773
-0.0018987
-0.0101569
-0.0711962
0.00111312
0.000835555
-0.00142194
-0.0911367
9.93166e-05
-0.0191198
-0.0295574
0.00163646
0.00125115
-0.00535142
-0.049114
-0.051448
0.00379238
-0.00300175
0.00141323
0.000616763
-0.0806658
-0.00233993
0.000140502
0.0113941
0.00048729
0.000425144
0.00114625
-0.00127568
-0.00344098
0.000215437
0.00112569
-0.0700535
-0.00356915
-0.0314147
0.000529826
-0.000507801
-9.95071e-05
0.00103718
-0.000331277
0.000985024
0.000992529
-0.00222586
-0.00704761
-0.00338953
-0.00327051
0.00149793
-0.0760491
-0.0712786
-0.00373165
-0.000535689
-0.00822799
-0.000981091
-0.0841132
0.000647556
-0.00319727
-0.000892811
-0.0302176
-0.0063015
-0.0821766
0.000570328
-0.0811934
0.00114678
0.000714557
-0.000268878
-0.0738992
-0.0127273
-0.00214824
0.000247216
0.00673598
-0.00122351
0.000835977
0.00070704
-0.00535946
-0.0701675
-0.0407686
-0.0543804
-0.0618889
0.00865959
0.000163688
-0.0591617
-0.00209661
-0.0134444
-0.0239011
-0.00111454
0.000444174
-0.0673238
-0.00191968
-0.0826922
-0.0836987
-0.0834244
-0.00314141
-0.000343337
-0.0127433
0.00116838
0.0039654
-0.00461074
0.00349338
-0.00354343
-0.00116868
-0.0645107
0.000581263
0.00149593
-0.0419145
-0.0710182
-0.00713769
-0.00246221
0.000430335
-0.001651
-0.0353909
0.000678931
0.00389852
0.00358412
0.000868708
-0.0798697
-0.0717744
-0.00206889
-0.00192635
-0.0304163
-1.28261e-05
0.00112096
-0.000667911
-0.0620337
-0.0130501
-0.0516039
-0.0585761
0.000606228
-0.00241742
-0.000149045
-0.00104408
-0.0488385
-0.0701517
-0.0658826
-0.000894677
-0.00571977
0.0233597
-0.0700123
-0.0553746
-0.0312453
0.0105692
0.000410554
-0.00137635
0.00422947
0.000573267
-0.00674084
0.000327991
0.000237023
-0.0635417
-0.0378399
-0.000856913
0.000538501
-0.02618
-0.00327331
0.000573346
0.00143662
0.000942666
-0.00181701
-0.0937521
-0.0042564
-0.00488928
-0.0829459
0.00711131
-0.0301154
-0.0712306
-0.070689
0.000808879
-0.0283856
-2.94054e-05
0.000611932
-0.00839712
-0.0688032
-0.00911519
-0.0510484
-0.0152988
0.00110248
-0.00516774
0.0010495
-0.00223932
-0.0414667
-0.00313482
0.00378302
0.00122136
-0.0205465
-0.0442299
-0.00680592
-0.000729879
-0.00349712
-0.00616479
-0.0344552
-0.0252721
-0.0466846
-0.00422239
-0.0559181
0.00110056
0.0139119
0.00127727
-0.0827966
-0.00110541
0.00131285
-0.066791
-0.000982288
-0.0813445
-0.069977
-0.0831634
0.0108665
0.00123452
-0.0667609
0.000266366
0.000305467
0.000517265
0.000207259
2.95359e-05
0.00273889
-0.0011358
0.000534482
-0.0195116
0.00274482
-0.0223814
0.000564647
0.000378043
0.00115553
-0.0359151
-0.04144
-0.0424016
-0.020571
0.000233579
0.00143488
0.000853633
0.000471967
-0.061551
-0.0243311
-0.0059641
0.0004497
-0.00535641
0.000453129
0.0117203
-0.0844789
-0.00545617
-0.0726988
0.00395351
-0.000744745
-0.0536712
-0.0866399
-0.0291217
0.000494768
-0.00870655
0.00132916
-0.0415939
0.00189995
-0.00562115
-0.00356833
-0.0105064
0.000559212
-0.0325034
-0.0709372
0.00117078
-0.000868565
0.00967579
0.000835459
-0.0124846
-0.0158576
0.00463352
-0.0401801
-0.0528478
-0.000610449
0.000326629
0.000556074
-0.0746006
-0.0581438
0.00249073
-0.0693396
0.00132554
-0.000890193
0.000655619
0.00871239
-0.0640453
-0.00410958
-0.000344254
0.000125124
-0.0171882
0.00115089
-0.078829
0.00445369
-0.0720402
0.000674244
-0.00593005
-0.0717926
-0.0860763
-0.0576193
0.00105778
-0.0665443
-0.00353949
0.000136909
-0.0116533
-0.00927904
-0.00885078
-0.0837452
0.00144473
0.000967845
-0.0627462
0.00135895
-0.000174739
-0.00348352
0.00111969
-0.0801397
-0.0108096
-0.0499368
-0.000682597
0.000511794
0.0010826
-0.0154567
0.000692578
0.00140532
0.000499592
-0.000669915
-0.000315534
-0.0690205
0.000379629
0.000832958
0.000307949
-0.00607313
-0.0717298
0.000747673
0.00106522
-0.0458102
0.0133659
-0.00260909
0.000939878
-0.00991259
-0.0714343
-0.00703398
-0.0695916
-0.0317706
0.001149
0.000709383
-0.0789649
-0.00776327
-0.00714239
0.000871856
0.000469699
-0.00179875
-0.00605595
-0.00139522
-0.00365543
0.000633174
-0.00197456
0.00106109
-0.0521963
-0.00355695
-0.0327378
-0.0123712
-0.00570206
-0.031935
-0.0469985
-0.0668631
-0.00373621
-0.00745235
-0.0599511
-0.00620089
-0.0806259
0.00986671
-0.0574637
0.00179745
-0.0708137
-0.00097473
-0.00692969
0.00112144
0.00296826
-0.0875182
-0.0821195
0.000732594
0.00149264
-0.0430259
0.000885323
0.000844405
-0.0836184
0.00131674
-0.00343097
-0.0804849
-0.0719164
-0.00136725
0.000305856
-0.00189684
-0.0857992
-0.0610479
-0.054509
0.000758394
-0.0729523
-0.00294289
-0.0414117
-0.0364214
-0.033954
-0.00557857
-0.00614659
0.00725931
-0.0428305
-0.0702136
0.00127406
-0.0297542
-0.0800338
-0.0614798
-0.0719679
-0.00428765
-0.0295966
0.000597373
-0.00447589
-0.000758782
-0.00952569
-0.00234947
-0.0697968
0.000862565
-0.0450601
-0.00113855
-0.0112266
-0.0309268
-0.0287531
-0.0719844
-0.0369885
-0.00109189
0.00109795
-0.0447955
-0.00632265
0.012416
-0.00604813
-0.0719921
0.00113518
0.00363748
-0.00255763
-0.00457135
-0.0715636
-0.0903297
-0.0717271
-0.000954991
0.00126532
0.000495057
-0.0721713
-0.00239066
-0.00261606
-0.0707101
0.000487665
-0.0154458
-0.0264143
-0.00373871
-0.0042538
-0.00517934
0.00138757
0.0227846
-0.0704897
-0.0488308
-0.00706814
0.000728435
-0.00275433
-0.0819807
-0.0472113
0.000830629
-0.00724943
0.000768936
-0.000203359
-0.00200141
0.00140309
-0.000118124
-0.000995237
-0.00339774
0.00108648
0.000509781
-0.00379239
-0.0707643
-0.0747134
-0.019705
-0.0073864
-0.00121721
-0.018222
0.000636238
0.000745218
-0.00286627
-0.00322938
-0.0706004
-0.00381966
-0.0412629
-0.00438169
-0.00763106
-0.00211849
-0.0875552
0.000243639
0.0232564
-0.00131514
-0.0622338
-0.0113992
-0.0156634
-0.0700539
-0.0209246
0.00185501
-0.00909205
-0.0205138
-0.0807162
-0.0187344
-0.00107701
-0.00116167
-0.0360302
-0.0354705
-0.00459466
0.00093667
0.00464093
0.000592415
0.000525864
-0.0291387
0.000704077
-0.0597072
-0.0090087
0.00068687
-0.00220029
0.000602779
-0.00188303
3.15632e-05
-0.00830997
-0.0619459
0.000448368
-0.0594423
-0.0820896
0.00194444
0.00186341
-0.00582537
0.000728279
0.000442949
-0.00156976
0.000611467
-0.0473461
-0.0102629
0.00105716
-0.000369768
0.00132018
-0.0724663
-0.0293375
0.0120179
-0.0709967
-0.0616093
-0.00134571
0.000496975
-0.0159181
0.000409588
-0.00796412
-0.00085705
0.00379874
-0.000937017
-0.00112138
-0.00372729
-0.0844367
0.00123181
-0.0628254
-0.0108471
-0.0166202
-8.11844e-05
0.00129215
0.0019432
0.0138752
-0.00287868
0.00117415
-0.00311084
-0.00039793
-0.00478224
0.00851144
-0.00164363
-0.000476067
-0.0589976
-0.00245594
0.00150069
-0.0023414
0.00947899
-0.000809409
-0.0204638
-0.0110503
-0.0195005
-0.0107319
0.000786021
-0.0368006
0.00107226
-0.0726418
-0.0654853
-0.0054089
-0.0576861
-0.000958696
0.00110352
-0.000328038
-0.0010419
-0.0016777
0.00124606
0.000649853
0.00119179
-0.0450085
0.000976129
0.00119227
-0.00958156
-0.0243034
-0.0630792
0.0011216
0.00322803
-0.000406152
-0.0436501
-0.0510722
-0.0133504
-0.0806503
-0.0217698
-0.0483573
0.001084
-0.0363963
-0.00247335
0.00130859
-0.000371834
-0.0720892
-0.0549274
-0.00309207
-0.0209059
-0.000758711
-0.002804
0.000282041
-0.00169239
0.0010711
-0.0169742
2.80309e-05
-0.0234188
0.00233094
-0.0705688
0.000944063
0.00169111
-5.65582e-05
-0.0158223
-0.000649853
-0.0686684
-0.0525168
-0.0473858
-0.0204395
-0.071659
-0.00286712
-0.0795078
0.00143231
0.0215152
0.000959802
-0.00644683
-0.024066
-0.00551468
-0.0713891
-0.0114804
-0.0183757
-0.0017956
-0.053892
-0.00252456
-0.00229136
-0.0159929
-0.00408195
0.00110082
0.00334811
0.0205884
0.00890211
-0.00584203
-0.000702996
-0.0216604
0.000731033
-0.00160031
-0.0699219
0.0102959
0.00109563
-0.0094831
-0.0829568
-0.0117242
0.00736993
-0.0526329
0.00139343
0.00106752
-0.0652415
0.00307489
-0.0266798
-0.0198521
-0.0692741
-0.000365499
-0.0398256
0.00628347
-0.0007687
-0.00090901
-0.00361949
-0.0802918
0.00163544
-0.0715461
5.41193e-06
-0.0233084
-0.0562983
-0.0104004
-0.0687673
-0.0610819
0.00106962
0.0058115
-0.0710552
0.00981644
-0.0652476
-0.00177056
-0.00240004
-0.0713229
-0.049407
-0.0826942
-0.00195772
-0.00561586
-0.00317868
-0.0713113
-0.0572331
-0.00804352
-0.000921607
-0.00755461
-0.0111886
-0.0661336
-0.00685336
-0.00315365
-0.066214
-0.0173328
-0.000263872
-0.0554914
-0.0454655
-0.0065954
0.000668256
-0.0875913
-0.0692862
0.000974805
-0.000490882
0.00777072
0.00109326
-0.00058476
-0.000743136
0.00347259
-0.00215763
-0.0414764
-0.00972824
-0.0697942
-0.0112792
-0.0779649
-0.0010563
-0.0143413
-0.0598612
-0.0145421
0.00142585
-0.00180513
-0.0188381
0.00101444
-0.00228487
0.00110272
0.00375874
-0.000659043
-0.0622376
0.000631476
0.000967153
-0.0728169
-0.00578908
0.00389107
-0.00855113
5.96937e-05
0.000705135
-0.0290969
-0.0654722
-0.080339
0.000554226
-0.0406416
-0.0106221
-0.00142101
0.00130092
-0.0714551
-0.0270272
-0.00507875
-0.053948
0.0115226
-0.0146641
-0.0648912
-0.0657063
0.00148217
-0.000462793
-0.0017499
-0.0020069
-0.039187
0.000357962
-0.0545717
-0.00165998
-0.000967388
-0.0255156
-0.071209
-0.00134944
-0.0493292
0.0172198
-0.072986
-0.00145267
-0.00219994
-0.00128599
0.0133983
0.000345344
0.0017402
-0.0117077
-0.071624
-0.0718032
-0.000872245
-0.0682605
-0.00224878
-0.0697143
-0.0696778
-0.0281997
-0.00197423
9.21632e-05
-0.000136326
-0.000487439
-0.062982
-0.00180756
-0.00995033
-0.00126537
-0.0552702
-0.0672146
-0.0841017
-0.000213755
-0.065613
-0.00371156
-0.00221503
-0.000841459
0.000997181
-0.0886097
-0.00721499
-0.0707538
0.00652693
-0.000600658
-0.0538401
-0.0008468
-0.00258696
-0.00295548
-0.0572377
0.00108538
-0.00916001
-0.000246918
-0.000764475
-0.0571071
-0.0108113
-0.00968439
0.0017538
-0.00888929
-0.00927
-0.0706603
0.000284583
-0.0321337
0.000355671
0.00994915
0.000931597
-0.0487835
0.0227837
-0.0302816
-0.0176292
-0.00238611
0.00122324
-0.00105783
0.000532087
-0.00159632
0.00115566
0.00109088
-0.0697896
-0.0179044
0.000341605
0.00101163
0.00109305
-0.0475473
-0.0709104
-0.0497324
-0.0277374
-0.00378814
0.000365671
0.00029344
0.00106114
-0.0549886
-0.0697762
0.000810335
-0.00183982
-0.00532906
-0.0669022
-0.00880215
-0.00960875
-0.0709509
-0.0101598
0.000331271
-0.0626008
-0.0664843
-0.00206416
0.00102416
-0.0024278
-0.0673189
-0.0563711
-0.0148162
-0.0536289
-0.0832244
-0.0132317
-0.0667441
0.00787997
-0.000461238
-0.0541641
-0.0483736
-0.00213673
-0.0893348
-0.00562723
0.000743157
0.00130407
-0.052441
0.00127217
-0.0575908
-0.00813821
-0.0139223
-0.031517
-0.00321214
-0.0626612
-0.067275
-0.010684
-0.0108435
-0.0565969
-0.0344664
-0.0813129
7.55908e-05
0.000452134
-0.000545102
0.00119566
0.00127559
0.00316629
-0.00155457
-0.00235908
-0.0179747
0.0149093
-0.0148415
0.000767462
0.000154394
0.00109473
-0.000715531
-0.0102099
-0.000434341
-0.0376205
-0.00878432
0.00117301
-0.0349157
0.00472296
0.00737393
-0.0678707
0.000348815
0.000975743
-0.0613278
-0.0798421
-0.0806793
-0.00405534
0.000966198
-0.0721579
-0.00970406
0.00115845
-0.0229703
3.66303e-06
-0.0337728
-0.0439595
0.000943668
-0.0838779
-0.0620697
-0.0121065
-0.0511899
-0.0722869
-0.00301747
-0.00570522
-0.0272852
-0.0808949
-0.016596
-0.0481599
0.000170872
-0.00207983
0.00178502
-0.00661044
-0.0683206
-0.0739486
-0.0892297
-0.079611
-0.0149281
-0.00342308
-0.000231637
0.00108005
-0.000978006
0.00127752
-0.068672
-0.000247101
-0.0682082
-0.00230393
0.00849032
-0.0261439
-0.0617156
-0.0711852
-0.0661125
-0.0326929
0.00087638
0.000537228
-0.0654864
-0.0638563
-0.0168667
0.000187393
0.00132123
-0.0156876
-0.011545
-0.0567174
0.00168287
-0.0156161
0.00131309
-0.0556864
0.000411124
-0.0708256
0.00633729
-0.000512329
-0.0399062
-0.000475582
-0.0706918
0.000993709
-0.0692323
0.00079973
-0.0151463
0.00336379
-0.00154119
0.0089877
-0.021833
-0.0322475
-0.0863269
-0.0724785
-0.0162946
-0.0151098
-0.00136598
-0.0658375
-0.0840348
0.000827094
0.00110928
-0.00936062
0.000509494
-0.0688266
0.000510392
0.00368264
-0.00681857
0.0082495
-0.000930298
0.000106274
-0.00540925
-0.0472795
-0.0700172
-0.00175186
-0.000917792
-0.058463
0.00676613
0.0194344
-0.00286832
-0.0730806
-0.0254598
0.00973513
-0.00279506
-0.0109953
-0.0095409
-0.0810789
-0.0826182
-0.00473754
0.000648166
0.00148229
0.000724486
-0.0705605
-0.00937244
-0.0707017
-0.0864001
-0.00674737
0.00441172
-0.00168572
-0.00275346
-0.00167753
-0.00662716
-0.0703445
-0.00808846
-0.0471892
0.000582922
-0.0014063
0.000716464
-0.00385031
-0.0695933
-0.0616294
-0.00882853
-0.0831059
-0.0605748
0.000745032
-0.00311831
0.00136155
0.000163017
-0.0687272
-0.0617838
-0.00575544
-0.00123266
-0.0170093
-0.00703594
-0.0314132
-0.0823045
-0.00884516
-0.0680872
-0.0317481
0.00224974
-0.00291338
0.000687405
-0.0386272
-0.00367281
-0.00952711
-0.0701945
-0.0133397
-0.0464266
0.00112332
-0.0143939
0.00124748
-0.0911599
-0.0775628
0.00470084
-0.00145653
-0.0154363
-0.0037752
8.21068e-05
-0.00174825
0.00125861
-0.0804016
-0.0107568
-0.081282
-0.00444687
-0.0508311
0.0118339
-0.0696081
0.00138473
-0.0222512
-0.082951
-0.00223762
-0.00387886
-0.070049
0.000858907
0.000939526
-0.0167248
-0.0931201
-0.0785561
-0.00362561
-0.000428525
-0.00261639
0.000204977
0.00477341
-0.00181746
-0.0805532
-0.00461498
-0.0141236
-0.00564557
-0.00882142
0.0227276
-0.0464027
0.00292986
-0.0541111
1.59062e-05
0.000905643
0.0189143
-0.0697729
0.00205464
-0.0286188
-0.0700424
-0.0260071
0.000692739
-0.0038051
-0.0145819
-0.069384
-0.0684912
-0.00307297
-0.0708638
-0.0110516
9.98145e-05
-0.00243422
-0.0796477
0.0069892
0.000408249
-0.080935
-0.00163256
-0.00875041
-0.000248198
-0.0794428
-0.00164249
-0.0510105
0.000366756
0.00345877
-0.00937366
-0.00160131
-0.0422687
-0.08064
-0.00894994
-0.0053764
-0.0185296
-1.23802e-05
-0.00499263
-0.00398969
-0.0165342
-0.0362991
-0.0379475
0.00117026
-0.0682122
-0.0170309
-0.0360304
0.00842149
0.00740824
0.000879721
-0.0705778
-0.0703636
-0.0246009
-0.0108013
-0.0463282
-0.0867417
-0.00577579
0.00307684
0.00108112
-0.00575563
-0.0708932
-0.00187738
-0.0695289
-0.000853058
-0.0420628
-0.00196768
-0.0712044
0.000950819
9.9368e-05
0.00590567
0.00596412
-0.0810881
-0.0652241
-0.0469262
-0.0133664
0.00133073
0.00478998
0.00293656
0.00175649
-0.0574669
-9.30916e-05
-0.0318083
-0.00359806
0.00866081
-0.00131301
-0.000666589
-0.00719991
0.00255144
0.0168427
-0.000504748
-0.0653514
-0.0003381
-0.0110644
0.00811985
0.000921643
-0.00361964
-0.00606641
-0.00966197
-0.0150079
5.92496e-05
0.000601142
-0.0474919
-0.000593676
0.00833868
-0.000571372
-0.00823531
0.00142403
-0.0695205
-0.00518251
-0.00102156
-0.0608174
-0.0201739
5.19479e-05
-0.0696731
-0.0514648
0.000398843
-0.00867002
-0.00791704
-0.0107728
-0.00024468
0.00114112
-0.0198543
-0.0884485
-0.0688818
-0.0619125
-0.00749262
-0.0814016
-0.0079116
-0.00994093
-0.000177515
-0.0691068
-0.00304026
-0.0175159
-0.00242991
-0.0661089
-0.0822367
0.00172715
0.00109685
-0.0127697
0.000829052
-0.00597539
-0.0490392
-0.00156671
0.00103946
-0.0887729
-0.0681016
0.000978354
-0.0182658
-0.0199892
-0.0796437
0.000120474
-0.0829107
-0.0901869
0.00144715
-0.0150339
-0.0749984
0.00562214
0.000543201
0.000571797
0.000567537
-0.0140406
0.00131936
0.000117033
-0.0688653
-0.0809182
-0.0819968
0.00125694
-0.0681861
-0.00529241
-0.0320016
0.00167257
-0.00595648
-0.0130575
0.000972123
-0.0805886
-0.0148718
-0.000778787
-0.031056
-0.0828872
-0.0105805
-0.0429543
-0.0825457
-0.0693469
0.000387159
-0.0785909
0.00139741
0.000683185
-0.00300021
-0.000736845
0.00175254
-0.0853292
0.00227711
0.000387821
0.000673168
-0.0894021
-0.0834294
-0.0048134
0.000990121
0.000370251
0.00248294
-0.0813505
0.000937727
6.73286e-05
-0.00172149
-0.0362374
0.00030953
-0.00206098
-0.084646
-0.0310536
-0.0143024
0.000851211
-0.00128473
-0.00841849
-0.0692135
0.0013756
-0.0793814
-0.0310259
-0.00536759
-0.0846366
-0.0827754
0.0014834
-0.0476306
-0.00824013
-0.0812522
0.000342278
-0.00498267
0.00055347
-0.00784532
0.000151483
-0.071674
0.00192953
-0.000759949
0.000898423
-0.0482375
-0.0279582
-0.0904599
-0.0727906
-0.00551599
-0.0704391
-0.011267
-0.024756
-0.0684768
-0.0839144
-0.000973669
-0.0716062
0.00409026
-0.00569463
-0.00267326
-0.0558732
-0.027487
-0.0142852
-0.0531436
0.00149565
-0.0951622
0.000913735
-0.00779274
-0.00224882
0.0032791
-0.0714471
-0.0259968
-0.0447051
-0.0106661
-0.0123634
0.0079468
-0.0573283
-0.0256954
-0.0690929
-0.00337615
-0.0851886
-0.00186106
-0.0546961
-0.0238313
-0.0772251
-0.00285044
0.000745144
0.000250514
-0.0693945
0.000730653
-0.00177135
-0.000607192
-0.00734997
0.00136668
-0.00296815
-0.0790258
-0.0647275
-0.0860537
-0.0833701
-0.000309029
-0.0730365
-0.0694171
-0.0552246
-0.080803
-0.0714916
0.000972967
-0.0912322
-0.0168754
-0.025198
-0.0653234
-0.0572172
0.00085099
-0.046032
-0.000364081
-0.00399209
-0.00979738
-0.0724934
-0.0663721
-0.0705103
-0.00641236
-0.00789875
-0.00127223
-0.0681286
-0.0823752
-0.00194843
-0.0412271
-0.0111632
-0.00406644
-0.00449012
-0.0680048
-0.0432208
-0.00622098
-0.00261765
-0.0134676
-0.0019414
0.00156206
-0.00946868
0.00110569
-0.00619839
0.00158923
-0.0466124
-0.000448438
-0.0565298
-0.00555652
-0.00408875
-0.071718
-0.0688351
-0.00207173
0.00707563
-0.00236344
-0.0219468
0.000150561
0.000882845
-0.00319206
0.00106889
-0.00658684
-0.00265462
0.00114394
-0.00405472
-0.0277355
0.0145285
-0.0716365
-0.00427164
-0.00173141
-0.0689941
0.00765462
-0.0177775
0.000918686
-0.00232924
0.000582839
-0.00442745
0.000907222
-0.0131541
-0.00351924
-0.0713403
-0.00223292
-0.00705024
-0.00990854
0.00110767
-0.00184053
0.0262229
0.000346572
-0.0416761
-0.0815363
0.00630688
-0.00853494
-0.00235323
-0.00528435
0.000185763
-0.00752062
-0.000624336
0.00258026
-0.0685832
0.0007821
-0.0435922
-0.0717108
0.000757546
-0.000963853
5.92144e-05
-0.0183299
-0.0105919
0.000125697
0.00649244
-0.0625316
0.00775667
0.00128185
-0.0718113
0.000930153
0.00110865
0.00143117
0.000973051
0.000264539
0.00124906
-0.000237054
-0.0620992
0.01906
-0.0140896
0.0212181
0.00255097
-0.0028454
-0.0269636
-0.0724203
-0.0815929
-0.0387868
-0.0122297
-0.068434
-0.0528875
-0.00106128
-0.00952529
0.00182328
0.0132345
-6.86092e-05
-0.0110417
-0.0126713
0.000288054
0.00895112
0.0198012
0.000944814
0.000873619
-0.00433373
0.000957394
0.00167416
0.00226352
-0.0774391
-0.0676384
0.00632843
-0.00379974
0.00153378
-0.0450412
-0.0257015
-0.0712337
-0.00968892
-0.063343
0.000163641
-0.0634153
-0.0691656
-0.00750042
-0.00227879
-0.00393753
0.000129484
-0.000923911
-0.000599281
-0.000254154
-0.0107837
-0.071544
-0.0435837
-0.0711616
0.00082715
-0.01821
-0.0587242
-0.00269566
0.00140591
0.00104186
0.00144189
-0.00909725
0.000670342
-0.0140593
0.00498801
-0.0675779
-0.0194464
-0.0835501
-0.0302876
-0.0698653
-0.0703031
-0.00179753
0.00121608
0.00117595
-0.00323941
0.00150373
-0.00746098
-0.0713281
-0.0640677
-0.00394121
-0.00498485
0.00103395
-0.00905445
-0.0163131
0.00137339
0.00068173
-0.0619275
0.000249916
0.00260007
-0.00843674
-0.00812264
-0.00811331
-0.0621852
-0.0190534
-0.00290218
-0.0684314
-0.0498572
-0.0702489
0.00103053
-0.00569966
0.000709256
-0.00823322
-0.0800838
0.0012935
-0.0876588
0.001076
0.00065535
-0.00224186
-0.0694873
-0.0328995
-0.0471704
-0.00162931
0.00129934
-0.00160502
-0.0896856
0.000148082
0.00185873
0.000541071
-0.00265671
0.00556867
0.000895593
0.00114247
-0.0682174
-0.0675596
-0.0689086
0.0192154
-0.0562715
-0.0844677
-0.047935
-0.0677786
-0.0316745
0.000951435
0.00117576
0.000550269
-0.00201388
-0.0684616
-0.0685114
0.00123365
-0.0879021
-0.0686286
-0.0298106
0.000840801
-0.00200019
-0.044632
-0.0675619
-0.0713653
0.00975751
-0.0710736
0.000500797
-0.0549119
-0.037438
-0.00203555
-0.0648993
-0.00325478
-0.0556921
-0.0870873
-0.00360642
-0.0211452
-0.00158762
0.00186739
-0.0858242
-0.0698527
-0.0487663
-0.0095253
-0.0720104
-0.0561571
-0.0690077
-0.0696783
-0.0715518
-0.0523035
-0.0483265
-0.0049468
0.000294276
-0.0337215
-0.070626
-0.00706037
-0.0701822
0.00100813
-0.0143052
0.00149843
0.00113176
-0.0689222
-0.00312295
-0.0547886
-0.0717424
-0.0028394
-0.00841324
-0.0125374
-0.0694727
-0.0466638
-0.0212167
0.000710881
0.000536413
-0.0684496
0.00107766
0.00169018
-0.0279148
-0.0135243
-0.0700712
-0.0158551
-0.00179777
-0.0119478
0.00122904
-0.0167587
-0.00687483
-0.0530912
-0.00291682
0.000906342
-0.0693637
-0.0400062
0.000911206
-0.0926773
-0.0627506
-0.00217212
0.0166137
-0.00894687
-0.0689218
0.000718597
0.00120379
-0.0552048
-0.0073088
-0.0678263
-0.0708156
-0.042885
-0.00673681
0.00058921
-0.00249136
-0.0118765
-0.0203547
0.000321829
-0.0650946
-0.0395766
2.21316e-05
0.00112019
-0.0300234
-0.00570567
-0.0718777
-0.0573432
0.000405527
-0.0871605
-0.0430804
-0.0126971
0.000771885
-0.06765
-0.0704119
-0.0756208
-0.00300498
0.00133635
-0.036357
-0.0060007
-0.00243992
0.000303456
-0.00997513
0.000875413
-0.00263753
0.000954911
0.000374026
-0.00223404
-0.0534137
-0.0695229
-0.000519608
-0.0687475
-0.0710372
0.000697459
-0.0635439
-0.0633202
-0.0711283
0.00130994
-0.0248253
-0.0710135
-0.0826304
-0.0543009
-0.0512178
-0.00451261
-0.0675276
-0.0412201
-0.0609031
0.000995055
-0.0349522
-0.0396114
-0.00294648
-0.0464783
-0.0829583
0.00109376
-0.0827728
-0.0629447
-0.00189228
0.000744542
-0.00113408
-0.00307094
0.00666005
0.00135609
0.000954375
-0.0671211
-0.0611497
0.00292272
-0.0422195
0.00107952
0.00377055
-0.081421
-0.0703629
-0.0819423
-0.0250437
-0.0703701
0.000174672
0.00140644
-0.0187118
-0.0715555
-0.0614468
-0.0542841
-0.061572
-0.0115674
0.0010049
-0.00311402
-0.00972127
-0.0223155
-0.0828293
-0.0638415
-0.0120586
-0.0686604
-0.0721078
0.00065061
-0.0832037
-0.0042789
-0.0177407
0.00240498
-0.00370155
0.000857249
-0.0159101
-0.0153072
-0.0541627
-0.0700583
0.00138401
-0.0387768
-0.0130086
-0.00388454
-0.0746488
0.00111031
-0.0676935
0.000385176
-0.050809
-0.0680887
-0.0496523
-0.0549011
0.000913306
-0.0471644
-0.0659801
-0.0680585
0.00134268
-0.0505499
0.00135438
0.000203518
-0.00336289
-0.0172061
-0.066711
-0.0718395
-0.00824535
-0.0818935
-0.0174089
0.00148245
0.000143349
-0.00473689
-0.000433244
-0.0302332
-0.0673169
-0.0682315
-0.0494259
0.00153932
-0.00177646
-0.0145447
0.000803902
-0.0694216
-0.000785004
0.000371241
-0.00275656
-0.044176
0.0192284
-0.0699808
-0.0254202
-0.0796712
-0.00836607
-0.0720476
-0.062283
-0.0652601
-0.00964296
0.000191217
-0.0118024
-0.00480495
-0.0674101
-0.0813221
-0.0170267
-0.0356335
-0.0600856
-0.0185182
-0.0121464
0.0187524
0.00319182
-0.000313393
-0.0554053
0.00112319
-0.0152175
-0.00923839
-0.0139865
-0.00945726
-0.0913077
-0.0573584
-0.00320378
-0.00707615
-0.0230017
-0.00334813
0.000859421
0.000386212
-0.0357635
-5.39147e-05
-0.0788875
-0.00393963
-0.0700048
-0.00227916
0.000775483
-0.00536448
-0.0702191
-0.00280373
-0.0687373
-0.083199
-0.0112745
0.00577862
-0.0540698
-0.0304909
-0.0563121
-0.000259054
-0.0011026
-0.0404322
0.00148112
-0.0689769
-0.000943079
-0.000513802
0.0014141
-0.00269344
-0.0207773
-0.00773729
-0.041252
-0.0379371
-0.00579153
-0.00221298
-0.0773901
-0.0881326
-0.00710967
-0.0295639
0.000789107
-0.0199093
-0.026687
-0.0455382
-0.0182175
-0.0404156
0.0149317
0.00151041
-0.00263236
0.000700693
-0.00200237
-0.00165638
-0.0691939
-0.00173453
-0.034591
-0.00169894
-0.0686001
-0.0613217
-0.0215533
-0.0278264
-0.045558
-0.0610203
-0.0810323
0.00626965
-0.0133718
-0.0387796
-0.0150502
0.00010021
-0.0630413
-0.0696718
-0.00536422
-0.000329336
-0.0613744
0.012065
0.0108181
-0.00272523
-0.0297752
0.00111577
-0.00758902
-0.0213018
-0.00947182
-0.0128013
2.02575e-05
2.04686e-05
0.0224836
-0.0718529
-0.000261348
0.0211725
-0.0611498
0.00149314
0.000812461
-0.0691415
-0.0310687
-0.0459447
-0.00372426
-0.0147774
0.0113426
0.00145913
0.000195961
-0.0135187
-0.0155936
-0.0691047
-0.0497409
-0.01907
-0.066612
-0.00548966
-0.0346704
-0.000241979
-0.00260112
-0.0296956
-0.0170419
0.012115
-0.0299622
-0.00172031
0.000789116
-0.015698
0.000190984
0.00138182
-0.00335594
-0.0034732
-0.00127929
-0.0297801
-0.0346432
0.00121023
-0.0371447
-0.0262995
-0.0791375
0.00901814
-0.0705883
-0.0121933
-0.0699247
0.000649933
-0.0423606
-0.0221943
-0.00162434
-0.00294998
0.0133457
-0.0236768
-0.0127118
0.000872064
-0.0382873
-0.0700701
-0.021503
0.000710413
-0.0130671
-0.0513155
-0.0325098
0.00442371
0.00120257
0.000968923
-0.002259
-0.00210994
0.00459551
0.0163319
-0.0696015
0.00134804
-0.0698741
7.73781e-05
-0.00480873
-0.00272079
-0.0142801
-0.00514821
-0.00117715
0.000638203
-0.00451391
-6.38304e-05
-0.077572
-0.0155401
-0.0715483
0.00173136
0.00161118
-0.0265529
-0.0484251
-0.0118859