/*--------------------------------*- C++ -*----------------------------------*\
| =========                 |                                                 |
| \\      /  F ield         | OpenFOAM: The Open Source CFD Toolbox           |
|  \\    /   O peration     | Version:  v2012                                 |
|   \\  /    A nd           | Website:  www.openfoam.com                      |
|    \\/     M anipulation  |                                                 |
\*---------------------------------------------------------------------------*/
FoamFile
{
    version     2.0;
    format      ascii;
    class       surfaceScalarField;
    location    "450";
    object      phi;
}
// * * * * * * * * * * * * * * * * * * * * * * * * * * * * * * * * * * * * * //

dimensions      [0 3 -1 0 0 0 0];
oriented        oriented;


internalField   nonuniform List<scalar> 
20673
(
-0.167398
0.159563
0.00784436
0.372966
-0.30866
-0.0643081
0.013469
-0.0331588
0.0196898
0.155309
-0.280927
0.12562
-0.356469
-0.122604
0.479072
-0.0244242
0.00200997
0.022414
0.0225213
-0.0205587
-0.00196236
0.0077686
0.0119909
-0.0197594
0.0123608
-0.0218613
0.00950059
-0.0565391
0.152371
-0.0958324
-0.106006
0.110721
-0.00471519
0.160574
0.00100894
-0.161582
-0.0984116
0.00152236
-0.000338095
-0.00118861
0.202739
-0.0364746
-0.166265
0.2414
-0.241247
-0.000153935
-0.105941
0.301764
-0.195824
0.141636
-0.161196
0.0195603
0.157867
0.0027071
0.33532
0.268542
-0.603865
-0.384303
0.574188
-0.189885
0.0220501
0.000471248
-0.601313
0.332169
0.269141
0.0316183
-0.0238496
-0.306192
-0.0631873
0.369377
-0.00164958
0.0207421
-0.0190924
-0.106822
0.0760692
0.0307534
-0.0988145
0.0487437
0.0500709
-0.061159
0.0463435
0.0148155
-0.141243
0.10482
0.0364269
0.153919
-0.166019
0.012106
0.195082
-0.204109
0.0090259
-0.0984883
0.137245
-0.0387567
0.174053
-0.0472703
-0.126782
-0.389728
0.361533
0.028195
0.0805335
-0.0938232
0.01329
-0.371358
-0.229957
-0.00322435
-0.00387751
0.00710186
-0.190752
-0.0550071
-0.00870504
0.000481383
0.00822369
-0.585978
0.596108
-0.010138
0.685108
-0.39753
-0.287578
0.368794
-0.539951
0.171154
-0.0452434
-0.0217729
0.0670165
-0.174184
-0.154583
0.328766
0.0944541
0.0730095
-0.167463
0.146046
-0.00440987
-0.0216295
-0.108612
0.130242
0.00165702
0.00565376
-0.00731078
-0.685997
0.440673
0.245318
0.0431817
-0.167125
0.123944
-0.282698
0.0323534
0.250345
-0.000676866
0.00233388
0.0540387
0.120015
0.16897
-0.274912
0.212432
-0.224644
0.0122116
-0.118761
0.0127559
0.27109
-0.354643
0.0835508
0.0831778
0.162933
-0.246111
-0.335328
0.161143
-0.0223863
-0.0238642
0.0462509
0.164558
0.208407
0.00151854
-0.170503
0.505819
0.0110168
-0.0354433
-0.0832941
0.0893211
-0.00602696
-0.515798
0.328752
0.265574
-0.361481
-0.100642
0.104861
-0.0042191
-0.161344
0.178698
-0.0173554
-0.526293
0.169824
-0.0113703
0.0237312
0.0008585
0.000641212
-0.00149971
0.146753
-0.452946
-0.00274795
-0.00715086
0.00989878
-0.0227309
0.15429
-0.131559
-0.000133285
-0.000725848
0.000859117
0.0707326
0.194444
-0.265177
0.0216538
-0.0206992
-0.000954522
-0.61316
0.318644
0.294516
-0.334765
0.604071
-0.269307
-0.251908
0.012234
0.0202984
-0.0325325
0.00686329
-0.0100876
-7.44861e-05
0.00101327
-0.000939674
-0.216363
0.287095
0.364042
0.210984
-0.575028
-0.0895427
0.00624857
0.213267
-0.170085
0.518128
-0.149337
-0.00253001
-0.00147291
0.00400293
0.117191
-0.00539676
-0.111794
-0.0504179
0.368642
-0.318226
-0.261765
0.052937
0.208828
-0.0396831
-0.0498597
0.0213128
-0.0360922
0.0147821
0.093905
-0.127567
0.0336625
0.129866
-0.00508049
-0.124785
-0.0662177
-0.0429873
0.109205
0.0543455
-0.0618296
0.00748417
-0.459718
0.564294
-0.104581
0.123551
0.00577049
-0.129322
0.0219088
-0.0671522
-0.275272
0.075277
0.199995
-0.487462
0.0884747
0.398984
0.028494
-0.0227068
-0.00578721
-0.00760089
-0.0560824
0.0636832
0.0906265
-0.112256
0.103761
0.198001
0.157073
-0.148359
-0.00871254
1.94811e-05
0.00298495
-0.00300443
-0.00161636
-0.00708864
-0.113954
0.138565
-0.0246099
0.0268248
0.00166928
-0.274494
0.117139
0.157355
0.0128275
-0.0113895
-0.00143797
-0.362403
0.503917
-0.141515
0.0113259
-0.007579
-0.00374571
-0.00517155
0.0063459
-0.00117437
-0.0758451
0.165
-0.0891545
0.507492
0.177616
-0.097318
-0.00332374
0.00102432
0.00464393
-0.00566817
-0.0527916
-0.0460227
-0.614207
0.124085
0.490116
-0.246045
-0.0157213
0.0985044
0.222643
-0.321149
-0.539938
-0.0742755
-0.494052
0.590338
-0.0962915
0.0233227
0.00691381
-0.00973391
0.00282012
-0.0825505
-0.191943
0.152171
-0.306755
0.198007
-0.58231
-0.123014
0.063814
0.0592
0.00722663
0.0243918
-0.0138359
-0.153569
0.0502291
0.00411647
-0.108742
0.437495
0.102488
-0.178332
-0.0937521
0.1061
-0.0123475
0.454812
-0.190625
-0.264193
-0.216051
0.277369
-0.0613182
-0.0710683
0.0279817
0.0430867
-0.0661317
0.331707
0.0360653
0.00240141
-0.0384667
0.0203185
0.0373638
-0.0576824
0.0189706
-0.301668
0.507579
-0.167022
-0.340561
0.221494
-0.213758
-0.00773648
0.161233
0.000373887
-0.161607
0.00227348
0.010554
0.0289818
-0.122315
0.0933338
-0.0777207
-0.0455491
0.123269
0.219025
-0.212634
-0.006391
0.00511286
-0.00225429
-0.0028586
-0.171029
0.00968387
0.0213177
-0.0725058
0.0511882
0.000149815
-0.000283129
-0.0693981
-0.0536158
-0.14889
0.218866
-0.069976
-0.0837029
-0.00916033
0.0928632
0.235569
0.36639
-0.601959
0.114733
-0.0208272
-0.142466
0.0285129
0.0344938
-0.100711
-0.20332
-0.0719513
-0.156149
0.156407
-0.000258254
0.132694
0.225146
-0.357843
0.027461
0.0960903
0.148921
-0.139002
-0.00991985
0.00947964
-0.00407985
-0.00539979
0.117989
0.00212524
-0.120114
-0.00733741
0.237309
-0.229973
0.0454406
-0.0382673
-0.00717313
-0.0453686
-0.0659684
0.111337
0.0107229
-0.00380906
0.00510664
0.00621945
0.0457275
-0.00966209
-0.260965
0.40548
-0.144517
0.00657877
0.110612
-0.0107912
0.164713
0.302315
0.15249
-0.0965681
0.460608
0.188988
-0.0897065
-0.0992823
0.0237232
-0.0253727
-0.0303186
0.118443
-0.0881247
0.00540804
-0.000295256
0.150382
-0.149705
-0.000677188
-0.110182
0.103515
0.00666775
-0.00228063
0.0666804
-0.0643997
0.00335189
-0.00342662
-0.106547
0.0874454
0.019102
0.626752
-0.274958
-0.351797
-0.0275483
-0.0178307
0.0453787
-0.100722
-0.0061001
0.637744
-0.637753
-0.30661
0.25619
0.0102784
-0.079189
0.0689105
-0.0829737
0.0791505
0.00382315
0.0241657
0.179237
-0.203401
-0.342861
-0.343141
0.161274
0.00171122
-0.162983
0.156788
0.00444565
0.000249162
0.000609332
-0.0752889
0.0978658
-0.0225768
-0.279537
-0.110192
-0.0923966
0.363485
0.012192
0.117675
0.00919843
0.0217246
-0.0309229
-0.287561
0.0715101
0.0246895
-0.0198601
-0.00482925
0.00183828
-0.000382544
-0.00145576
-0.00174659
-0.108435
-0.418831
-0.0686339
-0.0542917
0.0359622
0.0183296
0.15059
-0.0089031
-0.141687
0.00503659
0.00143641
-0.00647304
-0.494982
0.294433
0.200547
0.0480842
-0.07047
-0.399891
0.138922
-0.00066553
0.111013
-0.110348
-0.129221
-0.456764
-0.00549864
-0.00141464
0.00691328
0.027132
-0.0215108
-0.00562118
0.0645803
0.176818
-0.11056
0.022288
0.0882716
0.0394511
0.179573
-0.459306
0.0404711
0.00833516
0.0721986
0.130334
-0.0123444
-0.0103743
0.160757
-0.0380734
0.0124412
0.0256323
0.00211529
-0.000277021
-0.596262
0.494116
0.10214
0.192175
0.00290705
-0.00640373
0.00387372
-0.00134008
-0.00121216
0.00255223
-0.312594
0.548161
-0.464265
0.446496
0.0177647
-0.00969204
0.000802943
-0.118666
0.0998522
0.0188144
0.401152
-0.602638
0.201486
-0.0799399
0.0887689
-0.00882877
-0.142768
0.136556
0.00621237
-0.103727
0.0200244
-0.166174
-0.0106418
0.1768
0.584301
-0.217912
0.139338
0.00219853
-0.141537
0.000683291
-0.00094119
0.000257895
-0.292044
0.389443
-0.0973978
0.0521653
-0.127386
0.0752206
-0.0334308
-0.014218
0.0476489
-0.242767
0.34127
-0.282338
-0.0723063
-0.0219912
-0.111793
0.133785
0.000512722
0.00789288
-0.00840557
0.111394
-0.0824122
0.120265
0.068723
0.0119829
0.190755
0.239484
0.373245
-0.612729
-0.00302018
0.00404457
0.00272473
0.0398978
-0.0426224
0.0562038
-0.0827135
0.0265099
-0.385604
-0.0737049
0.000173487
-0.00102841
0.000854961
-0.00280332
0.00263304
0.000170312
-0.0370917
0.0584095
0.0222379
-0.00058401
-0.131693
0.108962
0.249534
0.476944
-0.667896
0.190944
-0.142482
0.00483975
0.137643
-0.000875288
0.00410125
-0.00322594
0.120619
-0.131766
0.0111474
-0.17278
0.255957
-0.100916
0.025627
-0.151642
-0.0141962
-0.0944556
-0.455214
0.549663
-0.0746954
0.0722408
0.00245468
0.253478
0.285919
-0.5394
0.0443578
0.00108285
-0.212346
0.236514
-0.0716128
0.472764
0.0814284
0.113266
-0.194695
0.0507764
-0.128498
0.104153
-0.113313
0.017142
-0.0970816
-0.00620555
0.131312
-0.125108
0.379921
-0.0886859
-0.291235
0.080646
-0.0895232
0.0088773
-0.0170391
-0.0210342
0.0257651
-0.0230404
-0.230093
-0.264891
0.0613087
-0.0149449
-0.0463637
-0.490763
0.023592
0.467172
0.184985
0.194937
-0.478793
0.116388
0.058581
-0.0382625
-0.0603374
0.524084
-0.463752
-0.103153
0.102488
-0.176299
0.0101151
-0.269498
0.402189
-0.000333177
0.161608
-0.24611
0.0261845
0.219925
-0.00835083
0.00501136
0.0033395
0.0811594
-0.126528
0.11945
-0.124847
-0.280407
-0.106646
0.387038
0.0700493
-0.352389
-0.000403801
-0.00342603
0.00382983
0.00546367
-0.00401156
-0.00145207
0.287963
0.215952
-0.395734
0.631894
-0.236168
-0.0670337
-0.00766154
-0.292296
-0.0683235
0.360617
-0.00161597
0.0022572
0.100798
-0.381229
-0.00719085
0.00169225
-0.336519
0.256291
0.0802333
0.0984534
-0.0151263
-0.0833271
0.218328
-0.143612
-0.0747143
0.0132362
-0.007024
-0.00621223
0.0612792
-0.210169
0.00408247
-0.0734805
-0.0510272
0.0139248
0.0371026
0.180953
-0.0995249
-0.0577283
-0.0609376
-0.0118359
0.0691193
-0.0572835
0.0553983
-0.28184
0.22644
-0.00276233
-0.00556557
0.00832791
-0.051013
0.023464
-0.000104094
-0.0026992
-0.18822
0.170626
0.0175949
-0.00689197
0.000137137
0.00675486
-0.160373
-0.0553159
0.215688
0.000529144
-0.00185646
0.00132734
-0.0394164
-0.0116107
0.0656229
-0.0897362
0.0241132
0.0910738
-0.0254511
0.0240577
-0.0105886
-0.565253
0.329353
0.2359
0.139584
0.00933652
-0.00137942
0.00139893
-0.178858
0.294653
-0.115796
0.22361
-0.00248024
-0.22113
-0.00358206
0.00324402
-0.0601696
0.0704479
-0.215448
-0.0518491
0.267296
-0.0798612
0.0775827
-0.0321713
-0.0289877
-0.606704
0.327785
0.278913
-0.00608518
0.000913586
-0.101828
0.0259694
0.0758593
-0.271279
0.524753
0.512855
-0.362064
-0.150795
0.102054
-0.592816
0.239704
0.26787
-0.00896886
0.0896149
-0.0327217
0.0448926
-0.0121708
-0.0423453
0.0276267
0.0147184
0.00203283
-0.00243662
-0.372918
-0.00778065
0.380697
-0.057709
0.109874
-0.007062
0.00751288
-0.000450851
0.128801
-0.167487
0.0386866
0.00413091
-0.00629068
0.0054154
0.00442521
0.211785
-0.483386
0.271596
0.0871393
-0.0309353
0.324989
-0.499848
0.174855
-0.0175611
0.0656454
-0.1433
-0.192029
0.0111322
0.00210408
-0.0307824
-0.111986
0.185735
0.0871617
-0.272895
0.456855
-0.575441
0.118586
0.141679
-0.129487
-0.0881548
0.0947332
0.125283
-0.126516
0.00123224
-0.0133888
-0.0329355
0.0463277
-0.00119496
0.00172411
0.00683445
-0.0017979
0.00907313
0.130265
0.0580036
-0.114543
0.0188455
-0.483114
-0.00201827
0.000678218
-0.0150992
-0.00523125
0.0203306
-0.0315139
0.290969
-0.259457
0.089105
-0.0850224
-0.31015
0.503347
-0.193198
0.0316223
0.0742936
-0.105916
-0.102439
-0.234074
-0.311113
-0.25414
-0.294492
0.109858
0.184633
-0.0168397
-0.00451406
0.0213538
-0.0761743
-0.218319
-0.0115081
0.0120209
-0.000142061
-0.000115413
0.000257498
0.0878523
-0.0887912
0.00093905
0.0217119
-0.0405897
0.0188779
-0.215617
0.271014
-0.034092
-0.0201995
0.0356368
0.591937
-0.242439
-0.349501
-0.0677706
-0.297677
0.118818
0.218309
-0.341228
0.122919
-0.0718331
-0.0694073
-0.368321
0.607805
-0.391016
0.463682
-0.0726672
0.392239
-0.0672521
0.0890059
-0.0979745
-0.338281
-0.274879
-0.00612594
-0.000766007
-0.00102177
0.0242386
-0.0232167
0.00361794
0.00207614
-0.00569423
-0.0745028
-0.0320444
-0.00354264
-0.00839686
0.0119395
0.00429599
0.000531542
-0.00482755
0.167649
-0.0388471
-0.476374
0.103454
0.10317
0.0170576
-0.120227
-0.271711
0.0809597
0.2046
-0.194397
-0.010204
0.223427
0.403323
0.0130058
0.0239495
-0.0147509
-0.0327234
0.0317017
-0.189663
0.207719
-0.0180574
0.109338
0.0224603
-0.131799
-0.16618
-0.0220402
-0.264482
0.209478
0.00904336
0.11624
0.19485
-0.243261
0.0484098
-0.072481
0.0795198
-0.00703852
-0.176229
0.279988
-0.441518
0.381177
0.00213955
-0.00375552
0.00905888
0.00166396
0.0114449
-0.00238608
0.0443726
0.0835829
-0.127956
0.00586697
-0.00224906
0.00848451
-0.0112468
-0.00183004
0.00126606
0.000564025
-0.00118591
-0.000527257
0.00171315
0.147172
0.369153
-0.516331
-0.132028
0.00447409
0.127554
0.226404
-0.0315545
0.348364
-0.263984
-0.0843814
-0.106654
0.0251133
0.081541
0.00356379
0.485266
-0.538589
0.0533177
0.0136089
-0.135348
0.121739
-0.00726317
-0.149209
0.156473
-0.00239714
0.00161348
0.000783671
0.348245
0.24369
0.117097
-0.00278478
-0.114311
0.000713866
-0.00328225
0.00256832
0.0921964
-0.0122816
-0.0799147
0.000444424
-0.00694673
0.00650234
0.235906
-0.253773
0.222257
0.525965
0.111771
-0.149167
-0.0218621
0.512718
-0.300938
-0.0218194
-0.00525704
0.0270765
-0.0317222
-0.0106233
-0.154786
0.14858
0.000453739
-0.000541174
8.746e-05
0.0218613
0.190571
0.105423
0.00931054
-0.00345713
0.00162711
-0.0109743
0.048338
-0.00654243
0.094395
-0.00814362
-0.0856082
0.105572
0.0115246
0.118246
-0.143033
0.0247878
0.0876413
0.0272835
-0.114925
-0.17406
0.182886
-0.00882545
0.101345
-0.114302
0.012957
0.0232501
-0.144288
-0.0123378
0.156626
0.108284
-0.000724301
-0.10756
-0.534256
0.548398
-0.0141485
0.103105
-0.0312127
-0.0718924
0.215702
-0.0150236
-0.200677
-0.432537
0.307971
0.124565
-0.157889
0.00872066
-0.267163
0.184213
0.0829494
-0.000891789
-0.00150537
0.0107878
0.016037
0.0907175
-0.383016
-0.519633
0.425171
-0.0240267
-0.00476344
0.0287902
0.00544553
-0.00114955
0.594891
-0.221648
-0.00536805
0.0058125
-0.31718
0.233679
0.0835019
0.117787
-0.0892447
-0.028542
0.00725813
0.327461
-0.334722
0.00132781
-0.0009997
-0.000328103
0.064089
-0.0870775
0.0229886
0.0411732
0.180321
0.307803
-0.193628
-0.114176
0.0123297
-0.0158724
-0.108971
0.0786518
-0.00941418
0.00935638
5.77531e-05
0.23878
-0.607102
-0.000457161
-0.00108801
0.00154515
-0.00324384
0.0823736
-0.0113572
-0.0710162
-0.35791
-0.0746266
-0.00161241
0.00262569
0.0244098
-0.011558
-0.0128518
-0.128779
0.168424
-0.0396438
0.127798
0.385054
-0.218613
0.266784
-0.0481718
-0.146216
-0.0643239
0.0959464
-0.0425889
0.527851
-0.522743
0.160675
0.655324
-0.442696
-0.212632
0.411746
0.243573
0.00176244
-0.00158894
-0.040934
-0.0657201
0.03887
-0.0942866
0.10793
-0.0136431
0.577836
-0.100899
-0.0490674
-0.410655
-0.00622368
0.115562
-0.0151626
0.00682979
0.00833289
0.149423
-0.16629
0.0168675
-0.114299
0.339443
0.454204
-0.235896
-0.290009
-0.087435
0.377445
0.0153399
-0.0022096
0.00556094
0.39359
0.17161
-0.565201
-0.262939
-0.146036
0.408975
0.0146585
-0.0207176
-0.153341
0.107081
0.111247
0.0419779
-0.295752
-0.148273
0.262552
-0.11428
0.181435
-0.219982
0.0385466
0.000369212
0.107915
0.0575567
-0.0693928
0.0241565
0.0965544
0.006616
-0.147192
0.0567026
0.0904897
0.0132216
0.0846444
0.00590058
0.11355
0.456396
-0.293282
-0.163116
0.00120736
-0.000524086
-0.452634
0.250116
-0.0265069
0.255083
0.0069726
-0.262054
0.0710441
0.0320611
0.0767796
0.0231393
-0.0999191
-0.0146767
0.403427
-0.388756
-0.00472735
0.0969237
0.10583
-0.133486
0.0276587
-0.000453622
0.000898636
-0.000445062
-0.0775816
-0.0696104
0.00098232
0.0941963
-0.0951788
0.141245
-0.148508
0.327634
0.129221
0.0409185
-0.0151533
0.093726
-0.0171339
0.0143131
0.00282082
0.170842
-0.347072
-0.156181
0.187179
-0.0309984
0.103622
0.00430775
-0.00209912
-0.00419156
0.00498041
-0.00497559
0.116091
-0.121171
-0.0592612
0.103634
-0.0357409
-0.205507
0.200501
-0.227719
0.0272174
-0.213635
0.255611
-0.0708951
-0.0180631
0.0889581
-0.0491594
0.0277441
0.145548
0.0050415
0.0167984
-0.0128143
-0.00431951
-0.00237079
-0.00704343
0.0217281
-0.219517
0.197788
-0.00420696
0.10963
0.0843092
-0.0202201
0.0835283
0.0933071
-0.176836
-0.291633
0.0887369
0.202896
-0.0245954
0.000568751
0.0240267
0.045331
-0.0311061
-0.0142243
-0.0368651
0.02982
0.00704519
-0.0359136
-0.0646167
0.10053
-0.542162
0.0481054
-0.00482542
-0.00125979
0.00807544
-0.472105
0.457421
0.183684
-0.182372
-0.0013124
-0.013302
-0.111707
0.12501
-0.123988
0.0254994
-0.0147635
0.119583
0.023252
-0.00568239
-0.0175695
0.107843
-0.0202013
-0.0231137
0.197848
-0.174733
0.0210208
0.0198977
0.266772
-0.200853
-0.0659193
-0.00140372
0.000217789
0.263904
-0.576498
-0.0175219
0.41111
0.053189
0.00811994
0.0348462
0.0104854
0.0275015
-0.00202984
-0.0254715
0.096212
0.17056
0.258914
-0.266253
-0.448815
0.185876
0.00313707
-0.154779
0.00290581
0.124231
-0.0897365
0.221049
-0.0205492
0.108122
-0.114664
0.132776
-0.264615
0.271871
-0.0516606
-0.058899
0.121786
0.00244541
-0.0714807
0.066141
0.00533988
-0.0497083
0.363136
-0.313429
-0.0847075
-0.0211636
0.105871
-0.0727192
-0.00682805
0.00668593
0.0336439
0.118727
0.106361
-0.0295815
-0.188618
0.032437
-0.261508
0.541879
-0.280378
0.296193
0.0835599
-0.379755
-0.0904747
0.313117
-0.0816315
-0.0137186
0.0953498
0.154342
-0.0598878
-0.0498781
0.0977651
-0.0478868
-0.0344635
0.0210746
-0.142118
-0.0140291
-0.224339
-0.382371
0.0312619
-0.0890517
0.0577899
0.0219514
0.00555015
-0.0858477
0.0751039
0.0107443
0.0556787
-0.347722
-0.181044
0.147551
0.0334935
-0.122613
-0.400133
-0.162242
-0.044107
0.206351
-0.0515036
0.214436
0.00524175
0.0191681
-0.296965
0.615608
-0.0606857
0.191876
-0.00235991
-0.189515
0.0931851
0.0175365
0.142516
-0.0602124
-0.0823036
0.000370462
-0.0011452
0.000774751
-0.0245346
-0.0844329
0.108967
0.048795
-0.26741
-0.00238244
0.00361867
-0.00123623
0.00432096
0.000664536
0.356604
-0.266815
-0.089791
0.22586
0.0292244
0.0920292
-0.071726
-0.0203029
0.0801015
-0.116015
0.116273
0.00434611
-0.350401
-0.241502
0.591902
0.0358008
0.272001
-0.0985486
0.0834223
0.247375
-0.0616384
-0.114088
-0.0124272
-0.153002
0.131011
0.39003
-0.0938382
-0.151509
0.152876
-0.00136643
-0.0207175
0.403593
-0.174724
-0.228868
-0.271317
-0.0297633
0.301082
0.677776
-0.396695
-0.281087
0.00378409
0.00167963
-0.425221
0.623228
-0.201158
0.011495
0.00195621
0.00752342
0.00881502
0.202286
-0.211102
0.04001
-0.00516324
-0.025356
-0.187279
0.067932
0.0693132
0.235075
0.121628
-0.00800139
-0.113627
-0.102846
-0.37595
0.134706
-0.00487545
-0.12983
0.327948
-0.591308
0.263353
0.109334
-0.0957393
-0.013595
-0.219947
-0.0972312
-0.0308083
0.0315221
0.0442159
-0.0401063
-0.00410947
-0.00496986
-0.0101927
-0.565175
-0.0725875
-0.246088
0.123851
-0.117951
-0.145263
0.158709
-0.0134453
0.000963157
-0.00435455
0.00339144
0.01743
-0.0161512
-0.00127875
-0.131548
-0.0296475
-0.331121
-0.0168194
0.347939
0.100989
-0.0119831
-0.0218317
0.0198019
-0.0770241
0.00554367
0.056319
-0.106197
0.14283
-0.00198815
-0.140842
-0.0194225
-0.0030208
0.0224433
-0.162976
0.147477
0.0154961
0.167643
-0.181838
0.0045268
0.0885238
-0.0930507
-0.0718464
-0.00734268
-0.146489
0.0149414
-0.00569356
0.0179331
-0.0122395
0.143163
-0.150686
0.00752326
-0.283926
0.0800457
0.203882
0.0959548
-0.109256
0.0691635
0.111788
-0.40717
0.32219
0.0849797
-0.187999
0.0257592
0.0124339
0.14464
-0.167423
-0.0463343
-0.381431
-0.0452814
0.42671
0.182096
0.146814
-0.0109886
-0.135826
-0.0619532
0.244524
-0.18257
-0.136473
0.022385
0.0126203
-0.343742
-0.223089
0.463883
-0.240795
0.12421
-0.549431
0.215637
-0.159568
-0.0560694
0.221232
0.226839
-0.448072
0.0283828
0.184904
-0.213288
0.630498
-0.284671
-0.345832
0.000728884
0.000598932
-0.157192
0.152739
0.00445314
0.0397241
-0.042598
0.23996
-0.520922
0.280956
-0.348145
-0.21275
0.560894
-0.0382976
0.0858671
-0.0475695
0.147867
-0.0296212
0.250167
-0.194618
-0.0555489
0.0452723
0.0153392
-0.0606115
0.132034
-0.0415648
-0.0904695
-0.0833279
0.0657663
0.00387916
0.0973327
-0.120709
0.0233763
-0.0873403
0.262464
-0.175123
-0.628278
0.0145446
0.613733
0.603593
-0.191853
-0.257691
0.0115792
0.00937544
-0.00963369
0.000258249
-0.604211
0.256066
-0.0838055
0.0135463
0.0702594
-0.126414
0.154796
-0.00113985
-0.00592215
0.105609
-0.134864
0.0292555
0.105761
0.0262727
-0.00728043
0.100466
-0.442542
0.10088
0.341659
0.279281
0.317734
0.000675953
-0.430156
0.273162
0.156995
-0.300409
0.0807718
0.219636
-0.0514877
-0.0185946
0.0700823
0.252206
-0.0148985
0.106145
0.441882
-0.548027
-0.00635722
0.176474
-0.170117
-0.060454
-0.420071
0.480521
0.327159
-0.477238
0.150073
-0.162936
0.0118109
-0.001919
0.00288221
0.16533
-0.17413
0.00881072
0.251059
0.152535
0.469081
0.127019
0.00601447
-0.00811358
0.00944212
0.333777
-0.1027
-0.231078
-0.110255
0.281095
0.0660529
-0.0207805
-0.0776917
0.0878753
-0.0101833
-0.00642925
-0.000864439
0.00729363
-0.113371
0.114353
-0.0492324
-0.234692
-0.236495
-0.359772
0.508599
-0.181445
0.0068017
-0.151089
-0.010973
0.0145651
-0.0910727
0.0765043
0.0511333
0.119492
-0.00878302
0.00321747
-0.288268
0.0872259
0.201041
0.0347378
-0.216297
0.181559
0.00588442
-0.00746391
0.00157946
0.141568
-0.451718
0.00249937
0.213204
0.275328
-0.360021
0.0846906
0.339039
0.260826
-0.599869
0.00256053
-0.150922
0.0883635
0.0157899
0.208481
-0.278613
0.0701316
0.0378074
0.00220274
0.000651406
0.00780731
-0.00845866
0.0307214
0.226302
-0.314426
-0.116831
0.431256
-0.100505
-0.00768551
0.108191
-0.0705838
-0.328816
0.567595
-0.0834803
0.0966245
-0.013144
-0.43921
0.124782
-0.153575
-0.283955
0.366875
-0.0829189
0.440746
-0.152453
-0.288293
-0.105258
-0.246328
-0.101317
0.347645
0.0192447
-0.0619168
0.141895
0.0415082
-0.183404
0.404928
-0.586818
0.18189
0.378114
-0.507012
0.128896
-0.0182458
-0.265951
0.284198
0.031302
-0.323549
0.292245
-0.343212
0.0718955
-0.0292288
0.0385728
-0.00934386
0.294061
0.0486227
-0.342683
-0.107775
0.403192
-0.295421
0.0180621
-0.00517383
-0.0128882
-0.0222125
0.024614
-0.157194
0.134081
-0.156053
-0.00274576
-0.118737
0.121482
-0.0508671
-0.168048
0.218915
0.475544
-0.162421
-0.313128
0.125681
-0.0526716
-0.000208006
0.108425
0.000908637
0.279222
-0.483703
0.20448
-0.305013
0.111384
-0.00216713
0.0195971
-0.0497936
-0.0843512
0.134145
0.000530685
-9.97807e-05
-0.000430885
0.529139
0.167617
0.000488175
-0.00449971
-0.181728
0.155341
0.0263873
-0.27919
0.0628273
0.0101275
-0.00977027
-0.000357303
-0.0144594
0.0105804
0.00387899
0.356942
-0.325643
0.100798
-0.096271
0.496121
0.107467
-0.341516
0.0951897
0.432893
-0.192937
-0.00110011
7.17124e-05
0.472796
-0.251565
-0.330507
0.284915
-0.0335944
-0.278739
0.0763313
0.202409
0.0317158
0.0860716
-0.0934921
0.0436016
0.309061
0.0715468
-0.380608
0.0993884
-0.122829
0.023441
0.368933
0.172454
-0.541389
0.00256352
0.509453
-0.485218
-0.0242385
0.349741
0.353197
0.227153
-0.58035
0.00300959
0.459342
0.0231354
-0.00674811
0.00885319
-0.00210506
0.00887327
-0.0347576
0.0258844
-0.000629767
-0.180415
-0.0367882
-0.0650397
-0.00635957
0.00714543
-0.000785851
-0.281344
0.351391
0.000177762
-0.0050032
-0.0357183
0.0118545
-0.00686881
0.000509243
0.000261255
0.00984488
-0.0101061
0.00421055
0.0138516
-0.0187578
0.0183041
-0.0675217
0.0987837
0.180281
0.0865019
0.00255292
-0.153774
-0.0279529
0.00337677
-0.0184759
-0.413238
0.0553265
0.0903353
0.278304
0.278216
0.0555588
0.54054
0.165261
-0.231659
0.0663993
0.121395
-0.145503
0.0241079
-0.00364567
0.00490653
-0.00126085
0.374986
-0.284653
0.42604
-0.189981
-0.236058
-0.001781
0.00788822
-0.00610726
0.0130551
-0.075697
0.0626418
-0.270294
0.252049
0.0198987
0.0216936
-0.174763
0.153069
-0.0707028
-0.20985
0.280553
0.0237844
0.0204314
0.0876366
-0.067738
0.161894
-0.211773
0.0498788
-0.168651
-0.110087
0.00715485
-0.00650341
0.00665232
-0.000767932
0.00785475
-0.0154337
-0.365211
0.081257
-0.0810665
-0.027904
-0.00874251
0.114574
-0.0043385
-0.00213261
0.00647105
-0.0236779
-0.131162
0.130235
0.000927506
0.259135
0.173198
-0.260538
-0.0762951
-0.211974
-0.509994
-0.113257
0.0673631
0.514305
-0.367138
0.169434
0.0120012
-0.0640705
-0.0989076
0.000453131
-0.00075198
0.0002989
-0.130421
0.0292448
0.101177
-0.0932187
-0.237287
0.119793
0.00211389
-0.00023502
-0.00187881
0.162142
0.32809
-0.245174
-0.0829167
0.000684729
-0.000261185
-0.000423556
-0.36414
0.0946394
-0.306206
0.00579575
0.0758197
-0.10765
0.0318306
0.00606832
-0.00561457
0.482161
0.300405
-0.350116
-0.0177968
0.0229801
-0.00518325
-0.103203
0.0664156
-0.0207095
0.085092
-0.0643823
-0.135064
0.0330027
0.102061
-0.0377202
-0.0561027
-0.490852
0.174327
0.316523
-0.0946145
0.0965327
-0.00191792
0.172767
0.155323
0.0152674
0.35843
-0.373701
-0.0807637
-0.210869
-0.0298666
0.00804722
0.000357291
-0.0067866
-0.371197
0.087471
0.283723
0.50253
-0.124419
-0.0744864
0.349813
0.0143377
0.0668341
-0.182233
-0.00536967
0.187603
-0.235696
-0.19446
-0.304467
0.0890171
0.0019403
0.365948
-0.0568865
-0.00832758
-0.0669735
-0.0184259
0.0853994
-0.00942986
-0.002636
0.0120659
-0.329798
0.0870293
0.114561
-0.028556
-0.0860047
0.184597
-0.16287
-7.48838e-05
-0.000924807
0.00112622
0.000987711
0.00416866
-0.0011837
-0.121575
0.118829
-0.000261861
-0.0141974
0.465474
0.00318151
-0.0200212
-0.456453
0.481261
-0.0742618
-0.150382
0.167202
-0.154564
-0.0126425
-0.0783608
-0.0284052
0.00437856
0.0439101
0.0231782
-0.0670881
0.102339
0.0142501
-0.116589
-0.0112823
0.0390762
-0.0277937
-0.288544
-0.276438
0.564975
-0.0618465
0.097856
-0.0360094
0.103814
0.336932
-0.0858888
0.155052
0.0207521
-0.0164191
-0.00433293
0.230482
0.117881
0.186215
-0.642669
0.2202
-0.268237
0.0480355
0.104848
-0.258503
0.153654
0.00106535
-0.000612178
0.470234
-0.101208
-0.36903
0.516804
-0.184637
0.00527934
-0.0217395
0.129133
-0.107393
0.146534
-0.148445
0.00191169
-0.0261563
0.00432474
-0.109683
-0.00503326
0.114716
0.0093064
0.000319743
-0.00962617
-0.00452503
-0.137753
0.114342
-0.164135
0.000863689
-0.00290969
-0.17791
0.0077379
0.063776
-0.0715138
0.000442832
0.0202993
0.207784
-0.00739517
-0.200387
-0.311493
-0.0554975
0.366991
0.00111338
0.0126262
-0.0137396
-0.0331138
-0.246841
0.265812
-0.141459
0.0332304
0.108229
0.153937
-0.00451374
-0.349305
0.12109
0.228215
-0.0271469
0.192408
-0.142815
0.247663
0.15336
0.282503
0.314512
0.135242
0.0075887
-0.0221962
0.050178
-0.372054
0.136082
-0.127143
-0.00893926
0.107671
0.213218
-0.320896
0.103415
-0.0934109
-0.010004
-0.254974
0.582914
0.156526
-0.000942659
-0.131085
-0.233333
0.171381
0.322785
-0.080428
-0.242357
-0.301038
-0.0701619
0.0331967
-0.034436
0.0012394
-0.085683
-0.0305595
0.116242
-0.0171022
0.0430102
-0.0259081
0.263691
0.19999
-0.327133
0.269011
0.0581202
0.00469686
-0.272469
-0.0875535
0.0166237
0.113125
-0.129749
-0.121719
0.0360359
-0.235925
-0.113379
0.0235692
0.112987
-0.262509
0.370178
-0.0220279
0.0587982
-0.0367703
-0.291326
0.044485
0.00177424
0.196075
-0.00265001
-0.000932012
-0.0786365
0.0976215
-0.0189848
-0.0954672
0.404536
-0.309072
-0.224273
0.192247
0.0320254
0.000995437
-0.00774352
0.358216
-0.342951
0.478668
-0.120446
-0.358226
-0.00583305
0.00149453
0.000372206
-0.0014723
0.0299985
-0.196178
-0.00698534
-0.0955572
0.102543
0.547587
-0.279049
0.234099
-0.0061433
0.239391
-0.213208
-0.357516
-0.085028
-0.0917562
0.0156379
0.0761184
0.309724
-0.287267
-0.0224576
0.0138964
0.0618268
-0.075723
0.204868
0.399202
-0.448812
0.0912926
-0.298528
0.195826
0.00290796
-0.11259
0.00829933
0.00132252
-0.00962184
-0.220893
-0.0767846
0.00131635
-0.238096
0.236778
-0.351944
-0.138911
0.196826
-0.184844
0.485345
-0.14631
0.0162579
0.13446
-0.120851
-0.585263
0.256447
0.0105427
0.03435
0.114681
-0.0935121
0.0316657
0.0107049
-0.00222043
-0.0185938
-0.00600153
0.397461
-0.309992
-0.302642
0.0574679
-0.259312
0.340618
-0.081308
-0.0113389
-0.177412
0.140936
0.000459896
0.00846877
-0.00892866
-0.00226754
-0.00503745
0.00730498
0.230359
-0.16908
0.00295538
0.00350417
-0.010655
-0.144164
0.14441
-0.00024579
-0.103011
0.0960263
-0.111274
0.0867387
-0.00585806
-0.0066805
0.106533
-0.00311828
0.0289254
0.0522637
-0.0811892
0.00964887
-0.00278557
0.13681
0.00737867
-0.144188
0.171978
0.00272686
-0.0281179
0.0768617
-0.402238
-0.0110007
0.2168
-0.141522
0.050481
-0.0427431
-0.126311
0.140863
-0.014552
0.376533
-0.285818
0.119704
0.00192283
-0.0971325
0.113756
-0.00609709
0.00367033
-0.000354929
-0.00331538
0.21577
-0.00278054
-0.212991
-0.0468317
0.0355495
0.0312721
0.134531
-0.165802
-0.0150728
0.0783007
-0.0632276
-0.0532958
-0.0470489
0.100345
0.11404
-0.0823245
-0.159837
0.181531
-0.370293
0.207063
0.0285632
0.311051
-0.434266
0.123213
-0.0449478
0.206841
-0.507958
-0.0263056
0.186376
-0.372906
0.112247
0.260656
0.00288199
0.109865
-0.112747
-0.0115211
0.112866
0.0120594
0.00168936
-0.0137488
0.0793847
0.0270196
-0.106404
-0.0358663
-0.0576257
-0.0270317
-0.00569163
0.0706116
0.264902
-0.366837
0.101932
0.00079804
0.00415597
-0.026869
0.0227131
0.325586
-0.395478
0.069889
0.356051
-0.151626
-0.0101327
0.161758
0.00133066
0.00804477
0.327057
-0.593951
0.266894
0.125414
-0.00419754
-0.121217
0.0718674
-0.00747489
-0.0643926
0.116179
-0.149475
0.0332952
0.375095
-0.267619
-0.107476
-0.291341
0.23211
0.0592327
-0.184565
0.325409
-0.140844
-0.0757867
-0.0656723
-0.145842
0.100293
0.233799
0.00223234
-0.0330407
0.0225009
-0.0161142
-0.00638669
-0.118781
0.120979
-0.0938869
0.0104068
-0.0224643
0.159275
0.0888995
-0.0830127
-0.00588679
-0.213828
0.222642
-0.205321
0.154454
0.00601373
0.0284837
-0.0344973
-0.0668761
0.0896539
-0.0227777
-0.000828289
-0.00690947
0.0318011
-0.0339544
-0.594324
-0.41887
0.315208
0.103662
-0.148363
0.312918
0.348614
-0.0734833
-0.275131
0.117858
0.15951
-0.0585969
-0.0719822
0.130579
0.374803
-0.0790716
-0.295734
0.00527201
0.101088
-0.10636
-0.506826
0.446367
-0.166195
-0.303355
0.124715
-0.0189537
-0.0009407
0.109062
-0.0570179
0.0859433
-0.357597
0.0762522
0.0329738
-0.173883
-0.244987
0.00650177
0.0299409
-0.0364426
0.271793
0.231553
-0.184289
0.137019
0.459714
-0.180493
0.0127975
0.0827359
-0.0955366
0.000295587
0.0683109
-0.111298
0.279334
-0.0778747
-0.0525464
0.361546
-0.145628
-0.21592
0.149284
-0.00222217
0.00107698
0.238034
0.101036
-0.339069
0.195088
-0.275851
-0.136749
0.11501
0.170705
0.0129775
0.00312012
0.284062
0.117299
-0.1763
0.0590007
0.254925
-0.284686
0.123624
-0.505057
0.136075
-0.0146799
-0.0964447
-0.16981
-0.217901
-0.238362
0.456258
-0.163446
-0.0483273
-0.000458199
-0.000482994
-0.203297