/*--------------------------------*- C++ -*----------------------------------*\
| =========                 |                                                 |
| \\      /  F ield         | OpenFOAM: The Open Source CFD Toolbox           |
|  \\    /   O peration     | Version:  v2012                                 |
|   \\  /    A nd           | Website:  www.openfoam.com                      |
|    \\/     M anipulation  |                                                 |
\*---------------------------------------------------------------------------*/
FoamFile
{
    version     2.0;
    format      ascii;
    class       volScalarField;
    location    "450";
    object      nut;
}
// * * * * * * * * * * * * * * * * * * * * * * * * * * * * * * * * * * * * * //

dimensions      [0 2 -1 0 0 0 0];


internalField   nonuniform List<scalar> 
13851
(
0.000460783
0.00112896
0.00120059
0.00398365
0.00672265
0.000914729
0.00192788
0.00676982
0.0151705
0.0060758
0.000280052
0.0067267
0.00277117
0.00575605
0.000718351
0.000815569
0.00199851
0.0031854
0.000195409
0.000533911
0.000635798
0.000622444
0.00195429
0.00672546
0.0106194
0.000971009
0.000166099
0.00980951
0.013861
0.00675814
0.0104738
0.00231313
0.000577089
0.0174982
0.00036599
0.0135805
0.0067258
0.00716969
0.0166025
0.00234889
0.0181857
0.0139292
0.000166276
0.000267565
0.0142433
0.00440153
0.00674578
0.000737124
0.00112723
0.00249692
0.00309707
0.00250957
0.000909998
0.00125615
0.00569658
0.00235468
0.000487189
0.0179108
0.000148393
0.00495408
0.0067265
0.000327384
0.00672797
0.0010263
4.91586e-05
4.15623e-05
0.00271626
7.65835e-05
0.0022166
0.00614422
0.00963584
0.000556376
0.00320356
0.00371294
0.00109433
0.000863071
0.00323956
0.0067473
0.00954408
0.00674158
0.00198039
0.000506503
0.000365327
0.00627143
0.00553065
0.0103638
0.000647184
0.00363901
0.00536919
0.0103456
0.00188305
0.0019525
0.000230399
0.00932702
0.0157081
7.87694e-05
0.00486195
0.00085913
0.00351833
0.000215399
0.000758192
0.000152564
0.000129074
0.00266492
0.00493581
0.000452636
0.00413845
0.0102499
0.00199706
0.00332476
0.000383465
0.00476738
0.000445284
0.000340621
0.000573132
0.00132631
0.0067367
0.00675899
0.00329474
0.00688978
9.72008e-05
0.0045154
0.00188936
0.0136219
0.000623568
4.93814e-05
0.00447375
0.000237779
0.0175096
0.000595056
0.000629756
0.000574354
0.00519714
0.0174608
0.000315712
0.0155473
8.80307e-05
0.0101147
0.000201628
0.000702737
0.000461991
0.00130075
0.00530858
5.57601e-05
0.0116718
0.0010411
0.00674525
0.00944825
0.0127813
0.000228745
0.000689903
0.000402729
0.000344314
0.000755372
0.00175774
0.00356215
0.00672552
0.0159066
0.000713567
0.0018544
0.00672502
0.0137587
0.000511297
0.000720048
0.00594218
0.0155039
0.0155755
0.00445816
0.000410641
0.0141053
0.00672631
0.00673447
0.000436315
0.00672247
0.0164987
0.000361971
0.000702518
0.00673535
0.00113658
0.000731228
0.00078323
0.000145481
0.000438819
0.000692784
0.000177333
0.0130462
0.000563318
0.000319011
0.00213654
0.00556276
0.0101151
0.000737852
0.00299757
0.000841722
0.000961542
0.00082103
0.000499629
0.00270852
0.00217814
8.41859e-05
0.00046495
0.016937
0.017951
0.000814921
6.53939e-05
0.016007
0.000914174
0.000886472
0.0154233
0.000848498
0.000813911
0.00255701
0.0004895
0.00672594
0.000394515
0.000779927
0.00272783
0.000820127
0.00236807
3.12045e-05
0.0067347
0.000507859
0.00383269
0.016005
0.000340708
0.000798251
0.00672609
6.42113e-05
0.00673192
0.00035761
0.00543222
0.000340837
0.000894405
0.00672591
0.0176429
0.00676013
0.00123234
0.0178015
0.000196081
0.00672528
0.000262752
0.00599806
0.0133949
0.00103335
0.000692502
4.78753e-05
0.000596258
0.0011031
9.33921e-05
0.000378436
0.00461546
0.000443968
0.00674469
0.000947182
0.000807869
0.0136091
0.00577087
0.00627013
5.06057e-05
0.00560369
0.000639316
0.000793741
0.00105825
0.00054289
0.000387651
0.0036711
0.000141015
0.000696779
0.00702043
0.00672874
0.00281161
0.000347417
0.0162653
0.00164415
0.000628221
0.00414287
0.00081487
0.000789528
0.0005564
0.000555258
0.0162849
0.00332852
0.00084251
0.000857436
0.00625949
0.00442572
0.00672518
0.000502028
0.0002835
0.00676622
0.00672586
0.00673306
0.00672394
0.000758249
0.00672546
0.0154519
0.000639592
0.00313154
0.0135686
0.0126325
0.00224717
0.000488565
0.00306482
0.0011526
0.00196945
0.000606659
0.0050478
0.0143046
0.000462252
0.00672156
0.0144687
0.00672649
0.000401221
0.00474425
0.00655712
0.00180476
0.00547328
0.00201929
0.0116764
0.000402582
0.000131263
0.0166446
0.0155972
0.00907801
0.00201865
0.00410564
0.000383299
2.96389e-05
2.95196e-05
0.000710553
0.000453888
0.000340865
0.00429277
0.000111469
0.00672436
0.00673403
0.000628343
0.0108251
2.89712e-05
0.00435808
0.0153877
0.000335297
0.000536846
0.00173289
0.00328668
0.000807189
0.000788237
0.000849418
0.000964495
0.0129441
0.0020024
0.000623
0.000920201
0.000579013
0.000321149
0.00536454
0.00277151
0.000294929
0.00024151
0.000477253
0.00360327
0.0129546
0.000835967
0.0174668
0.000749085
0.00678262
0.00707127
0.000497922
0.00502107
0.000652833
0.00105975
0.000321772
0.00788806
0.000290964
0.00543634
0.0016939
0.000368801
0.000398363
0.000715947
0.00678089
0.000655633
0.0182057
0.000913754
0.00119767
0.000470581
0.000380117
0.00367793
0.000954893
0.000261561
0.00109424
0.00414945
0.000605786
0.0140995
0.00317116
0.000699648
0.00202961
0.00106852
0.000589228
0.000902402
0.013297
0.000738114
0.000931076
9.02647e-05
0.000626154
0.000514324
0.00414928
0.00376325
0.000282665
0.00394599
0.000336809
0.000575003
0.000969198
0.00440125
0.000194051
0.0142213
0.0090452
0.000965062
0.000429531
0.000207981
0.00187794
0.00675282
0.00229619
0.000474067
0.00148042
0.000333445
0.0109264
0.00359345
0.00672304
0.00397505
0.000242192
0.00523928
0.00119984
0.000706402
0.00673433
0.0135647
0.000414347
0.000553729
0.00129923
0.00154159
0.0021581
0.00692917
0.00296821
0.00236868
0.00732691
0.0139423
0.000646946
0.000883784
0.00672714
0.00672506
0.00102555
0.000462229
0.0010627
0.00378493
0.0014878
0.000106118
0.00150565
0.0126964
0.00672632
0.00125045
0.0142538
0.000234239
0.00673314
0.00672643
0.00134968
0.00259311
0.00026528
0.0091651
0.000714932
1.6093e-05
0.00106982
0.00672922
0.0169807
0.000429128
0.000210324
0.00284577
0.0149942
0.000223255
0.00014363
0.00255898
0.000541996
0.000298899
0.000956733
0.0165631
0.000169986
0.00827921
0.000770036
0.000419238
0.00366788
0.013719
0.00106073
0.000535197
0.000636636
0.000874005
0.000222578
0.000426424
0.00672207
0.00178616
0.0167285
0.0104722
0.00118178
0.00802692
0.00682425
0.000652993
0.000382908
0.0067263
0.000649561
0.006121
0.00487178
0.000309781
0.0171196
0.00127376
0.00130275
0.000119364
0.000461567
0.00561401
0.011398
0.00531825
0.0175842
0.000268271
0.00616815
0.00159977
0.00047103
0.00776083
0.00676397
0.00929065
0.00178282
0.0063956
0.0141494
0.000316945
0.000492589
0.000878916
0.00764039
0.00506955
0.00579642
0.000507681
0.0022692
0.00411058
0.00535909
0.0182706
0.000555266
0.00101737
0.00580762
0.000911651
0.0176656
0.0160403
0.00477987
0.00365711
0.00420819
0.00205892
0.000508432
0.00160531
0.00675389
0.000820083
0.0146045
0.000461798
0.0138381
0.00131155
0.00555465
0.0150408
0.00672657
0.000338088
0.00119449
0.00105911
0.000699804
0.0121616
0.00485745
0.000947118
0.00210762
0.00192255
0.000369894
0.0139662
0.00861072
0.00214944
0.00404749
0.000127869
0.0141789
0.000746477
0.00081177
0.000706011
0.00140099
0.000854253
0.00509416
0.0116418
8.5813e-05
0.0174017
0.000627205
0.0131744
0.00165568
2.50602e-05
0.00881661
0.00672819
0.000538403
0.0153484
0.000405192
0.00067442
0.0025803
1.40544e-05
0.000180224
0.00362625
0.00330629
0.00672315
0.000446731
0.000438653
0.00672598
0.0164948
0.00672308
0.000712037
0.000755741
0.000960974
0.00267237
0.00503295
0.00026253
0.00345226
0.000500874
0.0150816
0.000565694
0.00673544
0.00547707
0.000429549
0.00152231
0.000357951
0.00121638
0.000234424
9.73662e-05
0.00672646
0.00407316
0.00672598
0.00107672
0.0028185
0.0141156
0.000352814
0.00316257
0.000111608
0.00025147
0.0179402
0.00404918
0.0124736
0.00034212
0.000666414
0.00157832
0.00686438
0.00664024
0.000320433
0.00285644
0.0132851
0.003614
0.00200225
7.17186e-05
0.0131945
0.00672622
0.00672629
0.000866811
0.00283874
0.00599368
0.00173082
0.000459027
0.00155929
0.00471412
6.4371e-05
0.000438711
0.000237913
0.00674423
0.000624688
0.000149295
0.000941112
0.00126438
0.00100187
0.000185334
0.000449124
0.000734312
0.000573115
0.000582864
9.9623e-05
0.000125554
0.00027536
0.0113242
0.0088468
0.000809555
0.00966321
0.000245167
0.00605472
0.000495312
0.00343767
0.000853976
0.000620046
0.000605087
0.00673971
0.00673816
0.00093474
0.00425269
0.00124466
0.0172691
0.0067362
0.0069962
6.87133e-05
0.00273643
0.000320812
0.000808116
0.00125848
0.00380779
0.000235176
0.00026238
0.00013092
0.00173031
0.00103626
0.000891648
0.00060534
0.000593384
0.000452116
0.00370386
0.00672598
0.000879569
0.00476975
0.0141459
0.00672335
0.000247923
0.0161771
0.000295855
0.0164467
0.0043829
0.000621844
0.00034377
0.000380829
0.00672496
0.00308129
0.00674479
0.00474645
0.00672265
0.000375138
0.000423161
0.000135406
0.00834183
0.00100348
0.0151629
0.0067265
0.00486124
0.00038135
0.00672632
0.00672562
0.0145185
0.000870252
0.00679571
0.0145464
0.00063556
0.000474272
0.00680704
0.0175997
0.000718003
0.00127855
1.87546e-05
0.00672519
0.00126632
0.00420536
0.000939295
0.00502538
0.000619138
0.000581684
0.000446322
0.015189
0.000322143
0.00050701
0.0135843
0.0067419
0.0135565
0.00672419
0.0015745
0.00944217
0.000632227
0.000606942
0.000259654
0.000501741
0.00672577
0.00672643
0.00038585
0.00165452
0.00672579
0.00126106
0.000443487
0.00672422
0.000205032
0.000475664
0.00573226
0.000266227
0.00945941
0.000194021
0.00672501
0.000271234
0.00673671
0.000935911
0.0101521
0.0127238
0.0154231
0.0133025
0.00195794
0.00221388
0.000116168
0.00107558
0.00452511
0.0016904
0.000605066
0.00742595
0.0008767
0.000669039
0.00420863
0.00675912
0.00195145
0.000451571
0.00139427
0.00672579
0.000589968
0.0004684
0.0175567
0.00179972
0.00672415
0.00363743
0.00141571
0.00065107
0.00673268
0.017387
0.00677008
0.00353768
0.00673067
0.000186215
0.000668995
0.000102973
0.000607391
0.00313299
0.00113417
0.0067231
0.000368317
0.00130399
0.00810567
0.0019783
0.0097822
0.0169158
0.000609346
0.00672251
0.0026487
0.00854412
0.000859022
0.000758209
0.00312648
0.00342327
0.00331369
0.00067216
0.00672896
0.00672316
0.00613777
0.00071599
0.00672671
0.00118231
0.0175731
7.79467e-05
0.0152665
0.00627222
0.0109829
0.00672967
0.00672375
0.00188172
0.00672654
0.00672653
0.0148845
0.0116094
0.00228328
0.00672305
0.000531844
0.00437951
0.00363146
0.000283727
0.00735242
0.0168731
0.00134677
0.000745351
0.00672856
0.000650482
8.06227e-05
0.00425453
0.00672444
0.000521838
0.0038415
0.00051378
0.000462071
0.000597364
0.0067278
0.000495882
0.000664509
0.00254943
0.000756222
0.00184674
0.000438843
0.00672561
0.00380458
0.00447505
0.00758522
0.00906745
0.00483472
0.000831711
4.7265e-05
0.00229985
0.00269908
0.000648186
0.00672479
0.0174278
0.00106683
0.00672228
0.00230753
0.0012131
0.0167618
0.000617615
0.0067432
0.000476916
0.00537271
0.00114776
0.000430623
0.000920263
0.000604098
0.018069
0.0067257
0.000647287
0.000497173
0.000579948
3.11769e-05
0.00124588
0.000516353
0.000926413
0.0180588
0.00298683
0.00684914
0.00072552
0.010452
0.0025923
0.00443926
0.000683827
0.00312232
0.00179841
0.00672634
0.00119254
0.00672668
0.0169427
0.000461873
0.000390012
0.00042186
0.000851962
0.0067556
0.00169665
0.000624969
0.00167665
0.000595115
0.0184907
0.000506274
0.000781476
0.000254966
0.0140188
0.001233
0.0116844
0.00674004
0.000346927
0.00126215
0.00306598
0.000278096
0.00672981
0.00674264
0.000128878
0.0032542
0.000448299
0.00152835
0.000455799
0.00442903
0.00066206
0.000567978
0.00265937
0.0156808
0.000497502
0.00672579
0.000563918
0.00136908
0.0124727
0.00104087
0.000138072
0.0072226
0.00144775
0.000198841
0.00226013
0.013014
0.00554829
0.00579701
0.000463
0.00673649
0.00490462
0.000445732
0.00352753
0.00360121
0.000328736
0.00672635
0.00080543
0.000463549
0.0041299
0.0172836
0.00286827
0.000647
0.00135035
0.0125171
0.000427215
0.00672632
0.00504263
0.000514411
0.00445745
0.00510575
0.00110716
0.00114231
0.0158649
0.0104577
0.000931871
0.0157057
0.000945596
0.00435111
6.35906e-05
0.00673686
0.00181806
0.00448818
0.00672291
0.000888403
0.001652
0.0154726
0.00460688
0.000706229
0.00460526
0.0140857
0.00035222
0.00309975
0.00171481
0.000476891
0.00461537
0.00678706
0.000367205
0.010482
0.000783045
0.00674622
0.000377687
0.000619133
0.00047337
0.000392553
0.00681147
0.00675123
0.001789
0.00769064
0.00134652
0.0177173
0.00102082
0.00672415
0.00427893
0.0050949
0.000770026
0.000682434
0.0129304
0.0145499
0.000331121
0.00672976
0.000657285
0.00257674
0.0120404
0.00812659
0.000297081
0.00488549
0.0140849
0.00897389
0.00089564
0.000804308
0.0128717
0.000763709
0.000276066
0.00010054
0.00027166
0.00162898
6.80869e-05
0.00413554
0.00993956
0.00855334
0.00674016
0.000775702
0.000218445
0.000458627
0.000723441
0.00672353
0.00108811
0.000956336
0.00129327
4.18706e-05
0.00672626
0.00910669
0.00499505
0.00370509
0.000849684
0.00114487
0.00672793
0.0127734
0.00104503
0.0161588
0.0104896
0.00672965
0.000795505
0.000684624
0.00178719
0.000730211
0.000760202
0.00672599
0.000722816
0.000536925
0.0103389
0.000666548
0.00361042
0.00101428
0.00111108
0.000118132
0.000450231
0.000410952
0.00486085
0.000753301
0.0117429
0.00131568
0.00838568
0.0110124
0.015598
0.0094854
0.00464601
0.00579244
0.00308163
0.00076835
0.000990939
0.000426221
0.0016783
0.00298415
0.00672933
0.00562041
0.000962431
0.00674594
0.00106946
0.000920462
0.00784185
0.00110956
0.00673535
0.0067288
0.00328793
0.00672329
0.000241624
0.000758805
0.000289823
0.0127625
0.0067367
0.00430972
0.0174659
0.0170538
0.00370998
0.00567664
0.000129391
0.00638907
0.00673491
0.000163883
0.00115013
0.00672986
0.00175176
0.00484222
0.00168205
0.000443285
0.00300265
0.00257914
0.00329248
0.000478678
0.000597917
0.00672613
0.00743772
0.00316243
0.000793549
0.00672593
0.00235089
0.000856561
7.33373e-05
0.00223919
8.93178e-05
0.00986382
0.00100725
0.0172446
0.0037664
0.0036446
0.000830779
0.00673272
0.00826892
0.00186341
0.000149696
0.00199003
0.0035219
0.00672629
0.00534627
0.00168425
0.000402029
0.000554187
0.00216391
0.00672726
8.75902e-05
0.00678877
0.0113255
0.00672558
0.0006427
0.00105644
0.0071588
0.00683651
0.00672661
0.000603618
0.0067313
0.00133423
0.000186435
0.00480944
0.00074941
0.0067261
0.000773588
7.88971e-05
0.000607289
0.00202041
0.000254011
0.000387883
0.000779257
0.000581764
0.00102353
0.00436233
0.0058286
0.00203521
0.000866158
0.00672656
0.00048699
0.00673848
0.000595625
0.00673559
0.000183032
0.00697224
0.00674897
0.0022304
0.000881288
0.00672424
0.000743357
0.00672392
0.000165806
0.0111444
0.000569121
0.00629869
0.00672669
0.00672607
0.000141909
0.00672629
0.00672552
0.00126694
0.000752624
0.000540874
0.000188184
0.00247757
0.000367411
0.00465846
0.00672875
0.00672634
0.00673233
0.000670244
0.00457618
0.000941859
0.000620011
0.00673779
0.00672657
0.0144678
0.00672576
0.000595208
0.00165532
0.0151605
0.000854231
0.00011975
0.00136909
0.000297122
6.0567e-05
0.0020608
0.000506226
0.000649595
0.00463071
0.00467614
0.00093047
0.000759331
0.00342287
0.000268481
0.00673183
0.00122097
0.000373623
0.00310392
2.99658e-06
0.00180601
0.000124707
0.00750892
0.00577697
0.00672647
0.00115057
7.99508e-05
0.00249794
0.000428772
0.00277475
0.0150942
0.00118699
0.000792321
0.00127682
0.000441255
0.0067265
0.000248649
0.0106007
0.00206286
0.00677277
0.0107425
0.000407996
0.000780346
0.0161259
0.000881762
0.00150078
0.00673177
0.00207849
0.00651369
0.00733524
0.0120101
0.00031302
0.00382566
0.00955597
0.00672721
0.000388562
0.000456949
0.00198571
0.000596933
0.00672988
0.0179732
0.0141261
0.00681597
0.000502719
0.000941431
0.00253093
0.00043185
0.000874761
0.000766057
0.00103716
0.000654132
0.000835668
0.00672716
0.000934741
8.07628e-05
0.00770097
0.00673025
0.00156943
0.000423793
0.000962584
0.00672616
0.014196
0.00108486
0.00081198
0.00467293
0.000352904
0.000411781
0.000123397
0.00672582
0.00132674
0.000248107
0.000188006
0.00029328
0.00672621
0.00125663
0.000999902
0.000648027
0.0067265
0.000214808
0.00533224
0.000248607
0.0145561
0.00117827
0.00317891
0.000510743
0.00426294
0.00406818
0.00672487
0.000736967
0.000939738
0.000652888
0.000358722
0.000881913
0.000254726
0.000272636
0.000616911
0.00083494
0.00674399
8.00197e-05
0.00118807
0.00037849
0.00576346
0.000671479
0.000403136
0.00674038
0.00589783
0.000216536
0.00258236
0.00118914
0.000948124
0.00494462
0.000333689
0.00104671
0.0140196
0.00135387
0.000443073
0.000401286
0.000972903
0.00674005
3.50028e-05
0.00678801
0.000452095
0.00642027
0.0127268
0.000516957
0.000653776
0.00672644
0.00350401
0.00674004
0.000719031
0.000598033
0.00520636
0.0168421
0.00172523
0.00672206
0.000497244
0.000143064
0.00673423
0.00877545
0.00673068
0.00085147
0.00117668
0.0019878
0.000577408
0.00093101
0.00386054
0.00038646
0.000433598
0.000657048
0.000303533
0.00673494
0.0045212
0.0124468
0.00672309
0.000482816
0.000636901
0.00034682
0.0115623
0.00672332
0.00125852
0.00041814
0.0113376
0.00673207
0.00672435
0.000502816
0.00535127
0.00672292
0.000334298
0.000340483
0.00514691
0.000410677
0.000513851
0.000818043
0.00672959
4.954e-05
0.0067348
0.00414113
0.000568769
0.00639025
0.0014302
0.000305391
0.00672392
0.00255063
0.000479661
0.0108522
0.00259986
0.00481882
0.00672542
0.00673687
0.000422276
0.00672956
0.0044175
0.0147922
0.00672641
0.000618918
0.00072416
0.0130399
0.00386039
0.00493071
0.000740346
0.000394128
0.00672511
0.00329556
0.00672834
0.00206585
0.00672634
0.000853724
0.000586598
0.00677394
0.0067931
0.000633395
0.00051506
0.000558654
0.000138822
0.000304994
0.00094944
0.0153925
0.00019514
0.0013626
0.000804804
0.000183122
0.00033791
0.00111969
0.00115235
0.00880803
0.00965161
0.00472863
0.00123013
0.00308816
0.000452799
0.000226321
0.00519673
0.00266686
8.62199e-05
0.00672574
0.00179503
0.00672998
0.00674672
0.00175425
0.00283116
0.00301514
0.00672213
0.00985621
0.00672522
0.000130801
0.00161877
0.000575259
0.000149073
0.00295809
0.013134
0.000721464
0.00672633
0.000753861
0.00499236
0.000336956
0.00321221
0.0123561
0.000837933
0.000525662
5.72636e-05
0.0108997
0.000459693
0.000649806
0.00476091
0.000251844
0.0027419
0.00161418
9.71184e-05
0.000395297
0.00322165
0.00664919
0.00691068
0.00218889
6.82826e-05
0.00985556
0.000413892
0.00418835
0.000682604
0.000680432
0.000691923
0.0160268
0.000544314
0.00672296
0.000249933
0.000420924
0.00109995
0.00673593
0.0067237
0.016476
0.00672645
0.000498391
0.0169853
0.000555492
0.00381902
0.00025071
0.000746732
0.00992104
0.00673081
0.00431237
0.00673331
0.000515892
0.00184015
0.00260034
0.00063731
0.0169665
0.00444651
0.00672699
0.0115313
0.00318132
0.00245702
0.00228513
0.0157208
0.00462047
0.000734749
0.00673219
0.00890897
0.0168991
0.000376602
0.000101852
0.000434239
0.00356517
0.00672641
0.0115607
0.00672284
0.000724076
0.00677348
0.00114514
0.00672634
0.0126305
0.00673498
0.000852963
0.00676811
0.000213866
0.000271317
0.00541167
0.000233247
0.0149644
0.000599025
0.00643554
0.00380897
0.000289644
0.000903411
0.000649958
0.000391094
0.00871758
0.00346565
0.00114775
0.000383132
0.00290469
0.0077516
0.0072027
0.00053473
0.00050972
0.000499933
0.000414567
0.0152096
0.00531715
0.00581745
0.000294288
0.0138922
0.000670605
0.000366516
0.00472702
0.00673645
0.0139917
0.0106529
0.0101459
0.00672459
0.00560111
0.00988992
0.000290056
8.12516e-05
0.0135325
0.000659977
0.000588746
0.000395014
0.000555081
0.00333599
0.00248843
0.000504103
0.00674297
0.00753661
0.00672621
0.000479994
0.000652799
0.000475347
0.00660181
0.000262547
0.00188748
0.000923827
0.000488473
0.00769533
0.0183656
0.000456539
0.0016283
0.000552354
0.00038385
0.000147577
0.00673088
0.000425544
0.000115775
0.000351207
0.00352092
0.000533
0.000786579
0.000256853
0.00784309
0.000503892
0.00100728
0.00015856
0.00711944
0.00214056
0.00123101
0.0104277
0.000475658
0.0009168
0.00103467
0.00672764
0.000178215
0.00141079
0.0137517
0.000335491
0.00142643
0.00672473
8.17289e-05
0.000461709
0.00162258
0.00434435
0.00541816
0.00673173
0.000551334
0.0067254
0.00109497
0.00116343
0.0014047
0.000524052
0.00454916
0.000761435
0.00220443
0.000838848
0.00785682
0.00672596
0.0130438
0.00135015
0.00673606
3.61417e-05
0.000187106
0.000206845
0.00117912
0.000516157
0.000879596
7.58118e-05
0.000800887
0.00131595
0.00672449
0.00321438
0.00160625
0.00625775
0.0013277
0.00462491
0.00673088
0.000178173
0.00461616
0.000542878
0.000729367
0.000159202
0.00673975
0.00016668
0.00633019
0.0126032
0.00673574
0.000296283
2.76154e-05
0.0068003
0.00701183
0.00141435
0.00174025
0.000230459
0.00407199
0.00416742
0.000647506
0.000389391
0.00672467
0.00433003
0.000273453
0.00672619
0.00248683
0.000341071
0.00672619
6.56645e-05
0.00449296
0.0184152
0.0117798
0.010241
0.00903179
0.0112496
0.00241864
0.00672691
0.0148875
0.00612429
0.00512286
0.00673846
0.000162464
0.0174602
0.00376086
0.000430131
0.00321674
0.00113023
0.000276039
0.00539029
0.00672295
0.00428418
0.0185434
0.0067263
0.00672541
0.0100191
0.000727727
0.00208252
0.00673442
0.0130058
0.0109398
0.00303042
0.000638268
0.00672611
0.0134328
0.000147225
0.00234453
0.00453797
0.00210625
0.0123882
0.00499684
0.00324095
0.00672641
0.00672619
0.0169466
0.00417534
0.00017639
0.000890054
0.00249085
0.00151257
0.00028477
0.00108943
0.00042964
0.0138509
0.013025
0.00672834
0.00113488
0.00105007
0.00103325
0.0137562
0.00674218
0.00523
0.000357197
0.000783619
0.0011148
0.00672386
0.000530846
0.000438264
0.00397886
0.00672605
0.000318106
0.00182682
0.000530062
0.00126122
0.0167857
0.0069779
0.000222454
0.000884402
0.00366389
0.000798766
0.000509781
4.89932e-05
0.0160137
0.0156666
0.00672374
0.00546025
7.37036e-05
0.0178296
0.00165646
0.000422171
0.00050087
0.00245516
0.0129499
0.00672896
0.000695012
0.00950199
0.0183571
0.00101857
0.0179526
0.000487979
0.000525442
0.00661587
0.017375
0.000512366
0.0123524
0.00631008
0.0108757
0.00674953
0.00673289
0.00071718
0.000325874
0.000308528
0.0029396
0.0114149
0.000938148
0.00431876
0.000395667
0.00911641
0.000161433
0.00394687
0.0139638
0.000824595
0.000963007
0.00111581
0.00672901
0.000352723
0.00673417
0.00665394
0.000134575
0.0014244
0.00607874
0.000446027
0.000549469
0.00678568
0.0115196
0.00778855
0.00083459
0.0068118
0.0043422
0.00672662
0.000228879
0.00110576
0.000142766
0.00913807
0.0106301
0.000212661
0.0178557
0.000279658
0.000474492
0.00675062
0.0125827
0.000132057
0.000318402
0.00010185
0.00672519
0.00434519
0.000275515
0.000485112
0.000637685
0.0163197
0.0115805
0.00431774
0.00659867
0.000415755
0.000281129
0.00672822
0.00253433
0.00674349
0.000562567
0.000447208
0.000283771
0.0156213
0.0053049
0.00672959
0.000943283
0.000435059
0.000919393
0.00675653
0.0171873
0.00104214
0.000920151
0.00191416
0.00367811
0.00039979
0.0146653
0.000135863
0.000653599
0.000289279
0.00672863
0.00124167
0.0011116
0.000325326
0.00256602
0.00672335
0.00390312
0.0106574
0.0134644
0.00417412
0.000326222
0.0024572
0.00271146
0.00672696
0.00237194
0.0177322
6.33925e-05
0.000390721
0.00149079
0.00123969
0.00998349
0.000212943
0.000852668
0.00148656
0.000659914
0.00674827
0.000150982
0.000295003
0.00454242
0.0108754
0.0135991
0.0171318
0.00995211
0.00930031
0.0120032
0.014986
0.000984421
0.00462609
0.0135239
0.00774617
0.0117786
0.00240127
0.000617609
0.00433115
0.00436409
0.00286862
0.018488
0.000545356
0.00673344
0.000279348
0.000478517
0.000498677
0.00945207
0.00649416
0.000416485
0.00672322
0.0167858
0.00181426
0.00044316
0.00110193
0.0005657
0.0022646
0.00674119
0.000492595
0.000470463
0.000810413
0.000825702
0.000904263
0.000681423
0.000905663
0.00967082
0.000312564
0.000868034
0.0122286
0.000951457
0.00672637
2.7761e-05
8.01673e-05
0.00656215
0.000453035
0.00233805
0.00077612
0.000635582
0.000374794
0.00673007
0.000238466
0.00092493
0.000695919
0.000255811
0.00672495
0.00130224
0.011244
0.0125825
0.0179559
0.00138148
0.000750037
0.00674301
0.00494655
0.000686177
0.00677845
0.0165619
0.00491681
0.00672638
0.00674852
0.0117975
0.00155863
0.00154483
0.000628841
0.0005697
0.000264992
0.000656754
0.00021774
0.000673573
0.000459806
0.00418057
0.000982802
0.00896772
0.000424528
0.0176664
0.00063192
0.00672281
0.00674783
0.000444921
0.000466141
0.0067303
0.000231483
0.00064788
0.000334341
0.00755069
0.00428988
0.00935123
0.00672638
0.00563141
0.000385076
0.000402344
0.00627475
0.00030365
0.00089232
0.00856854
0.000113354
0.000349188
0.00672977
0.0123013
0.00039568
0.00869993
0.00751606
0.000747027
0.000780547
0.000392313
0.00968274
0.00491699
0.0147943
0.000361509
0.00297906
0.000406976
0.00414318
0.0103279
0.000670506
0.000531582
0.000158114
0.0170581
0.00337971
0.00349038
0.00995476
0.000429077
0.0130846
0.000241802
0.00673411
0.000463046
0.000631716
0.000155319
0.00501798
0.000400982
0.00389531
0.000847578
0.00672633
0.00364754
0.000524783
0.00129076
0.000141127
0.0038024
0.00263421
0.000415404
0.00131621
0.00241214
0.00672923
0.000435427
0.00289522
0.000868643
0.000502601
0.000496946
0.000371921
0.00261146
0.000195606
0.000675079
0.000552502
7.96215e-05
0.00147499
0.000141756
0.000144979
0.00441566
0.00057514
0.00872284
0.0108413
0.00260152
0.000480743
0.00884625
0.00386541
0.00124298
8.19406e-05
0.0101986
0.000433775
0.00929047
0.000485966
0.00339781
0.000664228
0.0067407
0.000949109
0.000397978
0.00704825
5.02572e-05
0.00080379
0.000579284
0.0100836
0.0149517
0.00199695
0.0131752
0.00598702
0.00128235
0.0137815
0.00672803
0.00672233
0.0103526
0.00252129
0.00672909
0.00016824
0.014191
0.00070116
0.00121234
0.011881
0.00672293
0.0119228
0.0110191
0.00672443
0.000882546
0.00593361
0.0101741
0.010981
0.0116951
0.00965148
0.00674197
0.000954136
0.000419198
0.000540966
0.00672969
0.000875964
0.00673631
0.0122806
0.000353437
0.000143676
0.000779995
0.0127073
0.000329135
0.00071738
8.65981e-05
0.00221592
0.000417316
0.00128362
0.00674003
0.00256173
0.000301213
0.00626221
0.0158558
0.00429638
0.00370189
0.00244084
0.0182099
0.00140038
0.0050059
0.000468738
0.000418265
0.000235374
0.00881743
0.0135539
0.000366139
0.00120954
0.00108054
0.000940797
0.000984108
0.000457492
0.000865922
0.00672551
9.12162e-05
0.000465295
0.000397154
0.00883445
0.000579095
0.000275094
0.00025009
0.000415967
0.000881925
0.00497655
0.000473321
0.0067502
0.000471691
0.000225992
0.00996904
0.00673248
0.000474652
0.00527998
0.00161598
0.000322821
0.00119333
0.000483104
0.0138838
0.000487831
0.000860351
0.00261287
0.00673033
0.0117909
0.00672631
0.00155187
0.000516129
0.0134378
0.000432622
3.15465e-05
0.000127266
0.0010268
0.00216964
5.42253e-05
0.000443651
0.0158754
0.000504109
0.000511748
0.000477707
0.00107383
0.000712188
0.000148466
0.000439174
7.99689e-05
0.000515279
0.000272434
0.000957937
0.00327272
0.000905594
0.00346488
0.000670483
0.00673636
0.000588057
0.000689587
0.000542167
0.0117841
0.00106369
0.000709127
0.00672597
0.00225663
0.00672602
0.00672555
0.00143316
0.00673656
0.000621064
0.00329685
0.000586685
0.000590884
0.00140202
0.00251062
0.000741633
0.00283224
0.00915756
0.010718
0.00547461
0.000733528
0.000417834
0.00124221
0.0067267
0.000347873
7.04419e-05
0.000385026
0.01244
0.000627449
0.013693
0.000760443
0.00672481
0.00673003
0.0106541
0.00372724
0.000841242
8.28391e-05
0.000503739
0.00177382
0.016998
0.00672533
0.000702742
0.00403703
0.00129886
5.0908e-05
0.000672968
0.00199452
0.00106684
0.000219603
0.000589306
0.000716606
0.000129277
9.51544e-05
0.000477244
0.000838089
0.00158826
0.00127126
0.000782619
0.0131325
0.0144956
0.0131012
0.00096619
0.00976836
0.00075409
0.00165367
0.00673266
0.000914451
0.00672677
0.00116389
0.00366487
0.00495298
0.00490463
0.000530176
0.00270253
0.000887983
0.000727527
0.00256862
0.00545444
0.000401364
0.0179207
0.000316821
0.0025962
0.0123596
9.06921e-05
0.00351451
0.000149069
0.00672637
0.0001839
0.000621518
9.98869e-05
0.0161418
0.000263382
0.0122129
0.0058862
0.0119537
0.00267792
0.000860116
0.00138998
0.000388184
0.00672389
0.000133416
0.0130736
0.000162778
0.000489977
0.00040409
7.82668e-05
0.00349387
0.00680412
0.00169397
0.00271062
0.00122884
0.018441
0.00805644
0.000207329
0.00672637
0.000243144
0.000365475
0.000443681
0.00206105
0.00852781
0.00360151
0.00673924
0.00406975
0.00718781
0.00252039
0.00354254
0.0126466
0.00511158
0.00038891
7.24381e-05
0.00493598
0.0163682
0.00152307
0.0182058
0.00306887
0.00529455
0.00133739
8.24851e-05
0.00347955
0.00049442
0.00527498
0.00140306
0.0097181
0.00119423
0.000258307
0.000746122
0.000671372
0.000173402
0.000430669
0.0031015
0.000154122
0.000605407
0.00135361
0.000932477
0.00448934
0.00531168
0.00672416
0.00134539
0.00233459
0.000595221
0.0123866
0.00105534
5.92037e-05
0.00120461
0.000938582
0.00128658
0.0172772
0.0118833
0.00148648
0.00159117
0.0107537
0.0104495
0.00316205
0.00058565
0.00954967
0.0122695
0.00250787
0.0036726
0.0146534
0.000164858
8.25529e-05
0.000371425
0.00148207
0.00619971
0.000199931
0.00672644
0.00381532
6.76621e-05
0.000104359
0.00672733
0.000569346
0.000155727
0.000906018
0.0067264
0.00672229
6.42022e-05
0.00174378
0.00256264
0.00105813
0.0144813
0.00113684
0.000207733
0.00673182
5.28969e-05
7.50451e-05
0.00216975
0.000546712
0.00673548
0.0181773
0.0161875
0.00048166
0.0025314
0.000348152
0.000430581
0.00672634
0.000915892
0.00676447
0.00185744
0.00672632
0.0133825
0.00638341
0.0010766
0.000203147
0.000508736
0.000831229
0.00593092
0.0165037
0.000463201
0.00312243
0.00808563
0.000372271
0.000579198
0.00861783
0.000510406
0.000358245
0.00177525
6.10841e-05
0.000220777
0.00618892
0.0185995
0.00673499
0.00395353
0.000170612
0.0132069
0.00672777
0.000578665
0.0171644
0.00672628
0.00445977
0.000570751
0.00420791
0.00672322
0.00279001
0.000309943
5.08701e-05
0.00137933
0.000352628
0.00491943
0.00234626
0.0100748
0.0134399
0.00741038
0.000923433
0.00334422
0.00151816
0.0067261
0.000292919
5.67829e-05
0.0155701
0.00810079
0.00704131
0.000530203
0.00672401
0.00672325
0.00500277
0.00262187
0.000527533
0.000487641
0.000743368
7.43064e-05
0.00624764
0.00233066
0.00674497
0.00606973
0.00705992
0.0013151
8.48125e-05
0.000423952
0.00251307
0.000407348
0.000146692