/*--------------------------------*- C++ -*----------------------------------*\
| =========                 |                                                 |
| \\      /  F ield         | OpenFOAM: The Open Source CFD Toolbox           |
|  \\    /   O peration     | Version:  v2012                                 |
|   \\  /    A nd           | Website:  www.openfoam.com                      |
|    \\/     M anipulation  |                                                 |
\*---------------------------------------------------------------------------*/
FoamFile
{
    version     2.0;
    format      ascii;
    class       surfaceVectorField;
    location    "750";
    object      Uf_0;
}
// * * * * * * * * * * * * * * * * * * * * * * * * * * * * * * * * * * * * * //

dimensions      [0 1 -1 0 0 0 0];


internalField   nonuniform List<vector> 
20580
(
(1.16741 0.196528 0)
(1.16497 0.209428 0)
(1.156 0.197256 -2.34081e-20)
(1.07084 -0.030062 -3.88853e-21)
(1.07143 -0.0315382 -5.77934e-21)
(1.07311 -0.0300059 4.64266e-21)
(1.07007 -0.0279543 4.86153e-21)
(1.06845 -0.0295313 5.35086e-21)
(-0.0641505 -0.0533504 -1.02804e-20)
(-0.0312949 -0.0573632 4.54033e-22)
(-0.0607244 -0.0558593 -7.74849e-21)
(1.0012 -0.00030236 0)
(1.00108 -0.000280174 -2.72604e-21)
(1.00115 -0.000167133 0)
(1.08372 -0.0495959 -8.22839e-22)
(1.08299 -0.0526073 7.49215e-21)
(1.08053 -0.0504871 -9.13044e-21)
(1.05184 0.00863192 6.17392e-21)
(1.05185 0.00953414 0)
(1.01145 -0.0010591 -3.56606e-22)
(1.01105 -0.0010504 -5.7235e-22)
(1.01016 -0.00063687 5.66011e-22)
(0.70686 0.17577 3.35039e-21)
(0.722477 0.169627 -6.34878e-21)
(0.694945 0.159384 1.01845e-20)
(0.988962 0.00295544 8.32888e-21)
(0.989538 0.00360498 2.42993e-21)
(0.989808 0.00285837 3.79873e-21)
(1.13871 -0.187731 1.03141e-20)
(1.13414 -0.181672 0)
(1.13136 -0.189452 -7.82156e-21)
(0.999551 -0.00350945 -4.66894e-23)
(0.999604 -0.00373966 1.86329e-21)
(0.999453 -0.00368524 3.1409e-21)
(0.976325 -0.00902078 2.59014e-22)
(0.975668 -0.0100742 6.74543e-21)
(0.976925 -0.00984437 -7.26664e-21)
(0.270405 0.0789321 -5.33594e-21)
(0.243834 0.0629066 1.04427e-21)
(0.257081 0.0910204 -4.55235e-21)
(1.105 0.0282928 -8.89386e-21)
(1.10837 0.0295484 -9.10259e-21)
(1.10717 0.0257289 1.19701e-20)
(0.996377 0.0755592 -7.66339e-22)
(0.996603 0.0729368 1.05417e-20)
(0.993883 0.075269 -1.34568e-21)
(0.191671 -0.0624008 -1.2351e-20)
(0.19342 -0.04616 -2.38396e-20)
(0.171517 -0.0475651 -2.27603e-20)
(1.03157 -0.0243506 -2.31841e-21)
(1.03252 -0.0243991 2.35798e-21)
(1.03203 -0.0254107 -4.72728e-22)
(1.36891 0.0538862 -2.76512e-21)
(1.36188 0.0342657 2.65309e-20)
(1.30146 0.0464007 7.89859e-20)
(1.17915 0.196727 -1.82917e-21)
(1.16998 0.185713 -4.61711e-20)
(1.13587 0.0237374 1.01037e-20)
(1.13488 0.0191312 1.11862e-20)
(1.13067 0.0228487 1.8875e-21)
(1.01848 -0.103345 1.13171e-22)
(1.01508 -0.10264 -3.48176e-24)
(1.01784 -0.0996986 -1.30397e-22)
(0.945105 -0.426587 1.69093e-20)
(0.85898 -0.392035 1.97433e-20)
(0.779434 -0.340257 1.57567e-20)
(1.00004 -0.000141275 2.7347e-22)
(1.00007 -0.000177387 -7.16708e-21)
(1.00004 -0.000118949 -6.07196e-21)
(0.845468 -0.28854 1.78534e-20)
(0.836934 -0.293972 0)
(0.772869 -0.280811 0)
(1.0364 0.061844 -1.30417e-20)
(1.03404 0.0621937 -1.82594e-21)
(1.03562 0.0643314 2.12842e-22)
(0.959132 0.168308 -5.38805e-21)
(0.952117 0.171759 -9.72914e-21)
(0.952395 0.163763 -1.79932e-21)
(0.972313 0.225788 -3.65555e-20)
(0.990263 0.242249 3.81035e-20)
(0.91754 0.229875 -1.05216e-20)
(0.922221 0.0473375 -5.20352e-23)
(0.925731 0.043429 1.79293e-21)
(0.922543 0.0450251 -3.08844e-21)
(1.01799 -0.0152977 -4.59471e-22)
(1.01751 -0.0156363 -3.01719e-22)
(1.01734 -0.0148968 -7.68436e-22)
(0.00245703 0.142638 -2.29991e-20)
(-0.022507 0.15913 0)
(0.00641326 0.151211 -2.51626e-20)
(1.05252 0.00854221 9.95238e-21)
(1.05174 0.00803788 2.69414e-21)
(1.12676 0.192889 1.59318e-20)
(1.11784 0.190402 -3.99803e-20)
(1.1251 0.183191 -1.01806e-20)
(0.435599 0.301236 -4.55318e-21)
(0.409557 0.292687 5.81465e-21)
(0.477679 0.315607 2.85321e-20)
(1.11719 -0.138307 1.41182e-20)
(1.12158 -0.135432 3.2159e-21)
(1.1202 -0.142331 7.67229e-21)
(0.937563 0.0372637 -1.44144e-21)
(0.93481 0.0398334 0)
(0.940545 0.0358279 0)
(1.00001 -9.81282e-05 4.48367e-21)
(1.00004 -0.000170448 2.6826e-21)
(1.04926 -0.272093 1.26053e-21)
(1.0233 -0.250339 1.48212e-20)
(0.993299 -0.247878 -7.2798e-21)
(-0.127647 -0.121576 -4.58386e-20)
(-0.118106 -0.120275 2.48891e-20)
(-0.0658225 -0.132495 5.46759e-20)
(0.997225 -0.0373125 1.57555e-21)
(0.998182 -0.0365245 -1.85657e-21)
(0.998327 -0.0380561 4.74288e-21)
(-0.0208863 0.141336 -5.50745e-20)
(0.0483933 0.154115 1.09802e-19)
(0.00203815 0.150769 5.08221e-20)
(0.918542 0.051465 1.06278e-21)
(0.921481 0.0494177 -2.01649e-22)
(0.0975947 0.01448 -3.19081e-21)
(0.149579 0.0141688 1.6649e-20)
(0.970789 -0.38663 4.16993e-22)
(0.972376 -0.39653 5.7543e-21)
(0.959967 -0.39354 -6.49313e-21)
(0.901567 0.0689536 1.938e-21)
(0.898114 0.0721478 2.94659e-21)
(0.901747 0.0656661 1.38803e-21)
(1.00943 -0.0240221 1.50218e-21)
(1.00869 -0.0237806 -1.22963e-21)
(1.00905 -0.0230349 -3.92522e-22)
(1.01985 -0.000299884 2.69167e-22)
(1.01976 -0.000208987 -3.75931e-22)
(1.00565 0.10391 8.73951e-21)
(1.00255 0.102611 1.85355e-20)
(1.00633 0.100114 -1.17505e-21)
(1.03533 -0.0697763 0)
(1.03377 -0.0671941 0)
(1.03675 -0.0676858 4.00301e-22)
(0.976931 -0.00781216 -3.99304e-21)
(0.975538 -0.00809677 -1.09321e-21)
(-0.649873 -0.00146775 -5.5529e-20)
(-0.65415 -0.000873353 4.87591e-20)
(-0.701639 0.00528886 -5.66485e-22)
(0.970367 -0.000859408 -1.07422e-20)
(0.971544 -0.00104411 1.27064e-20)
(0.970374 -0.00228562 5.54287e-21)
(0.996359 0.0785962 -8.37775e-22)
(0.999246 0.0759783 -4.67828e-21)
(1.05914 0.0251123 2.59387e-21)
(1.05956 0.0263318 3.14772e-22)
(1.0581 0.0259973 9.80387e-21)
(0.596299 0.0442122 4.93348e-22)
(0.601712 0.0629362 0)
(0.573145 0.045899 0)
(0.996477 -0.0382079 0)
(0.996275 -0.0366043 3.14316e-21)
(1.12623 0.205139 4.86757e-20)
(1.13734 0.195519 2.27854e-20)
(-0.0482947 0.131713 1.91796e-21)
(-0.0863033 0.125913 -1.40681e-19)
(0.954908 0.112196 -1.16145e-20)
(0.951069 0.109253 2.30302e-21)
(0.949131 0.114457 -6.09231e-21)
(-0.335022 0.0623369 -1.54422e-20)
(-0.309003 0.0654361 -2.72595e-20)
(-0.298225 0.0746515 -2.69068e-20)
(0.999525 -0.00327978 2.80126e-21)
(0.999648 -0.00334036 -2.57959e-21)
(0.966117 0.164912 7.40318e-21)
(0.966199 0.172623 2.4339e-21)
(0.995175 0.00596216 -3.45095e-22)
(0.995154 0.00551189 -5.98452e-21)
(0.994673 0.00592557 -1.1818e-21)
(1.03383 -0.0711023 -7.75295e-22)
(1.03645 -0.0713856 -3.33986e-22)
(0.802824 -0.367621 -1.87732e-20)
(0.822038 -0.364943 -5.84956e-21)
(0.810353 -0.35111 -5.21073e-21)
(0.78121 -0.370492 1.36659e-20)
(0.796138 -0.391254 -1.07717e-20)
(-0.36436 0.0530301 1.95124e-20)
(-0.380008 0.0463865 -4.53367e-20)
(0.687821 -0.0643219 -5.87928e-20)
(0.680175 -0.0793572 -1.30843e-20)
(1.01257 -0.0438605 -6.95134e-23)
(1.01127 -0.0436943 1.42141e-21)
(1.01207 -0.04252 1.60606e-21)
(0.015674 -0.0726629 7.99906e-21)
(-0.0295695 -0.0642677 -1.77968e-20)
(-0.0136117 -0.0660378 -2.58178e-20)
(-0.00195712 0.0107961 -1.31488e-20)
(0.0411825 -0.0139387 1.33479e-20)
(0.00364372 -0.0400242 1.02643e-21)
(1.1529 0.0344492 1.54217e-20)
(1.15677 0.0305889 -1.91887e-21)
(1.15914 0.0367212 4.29702e-20)
(0.98804 -0.0199517 -3.21468e-21)
(0.987353 -0.0193295 -1.38462e-21)
(0.987262 -0.0207553 -1.26699e-21)
(-0.287039 0.0677646 -3.08887e-21)
(-0.33622 0.0491832 5.6357e-20)
(1.06746 0.0296963 1.50407e-21)
(1.06816 0.0280468 -6.05167e-21)
(1.06931 0.0296113 -7.41687e-21)
(1.00439 -0.0805769 3.80515e-21)
(1.00229 -0.0786265 2.15192e-21)
(1.00483 -0.07766 5.10542e-21)
(0.208811 -0.101829 1.77222e-20)
(0.152855 -0.098255 2.21864e-20)
(1.01998 -0.0082434 1.13235e-22)
(1.01968 -0.00870437 -2.88544e-22)
(1.02046 -0.00870247 -2.97861e-22)
(0.850917 -0.281472 -7.02357e-21)
(0.918735 -0.296749 5.58911e-20)
(1.00039 -0.0144556 2.89567e-21)
(1.00035 -0.0136207 -2.56821e-21)
(0.999945 -0.0137713 2.96327e-21)
(1.01395 -0.044275 -8.74496e-22)
(1.01303 -0.0454862 -1.49882e-21)
(1.15999 -0.347073 1.22015e-21)
(1.17457 -0.356774 -1.08506e-22)
(1.16043 -0.363339 9.70572e-22)
(1.11273 -0.135336 2.46229e-20)
(1.11161 -0.141707 -2.5396e-21)
(0.163662 0.0782249 -2.83321e-22)
(0.197479 0.085434 1.01651e-21)
(0.198834 0.104065 1.38703e-21)
(-0.268662 0.0671273 -6.1714e-21)
(-0.248624 0.0819999 -3.10471e-20)
(-0.0392426 0.171796 3.83777e-21)
(-0.039578 0.16128 -5.00368e-20)
(-0.0242329 0.162834 -6.29608e-21)
(1.01971 -0.106623 -1.6268e-21)
(1.02199 -0.103454 -6.21783e-22)
(0.916966 0.0089458 1.42693e-22)
(0.896464 0.0013014 4.16672e-21)
(0.912326 0.0100658 2.6224e-21)
(0.988739 -0.00146704 -2.17971e-21)
(0.989095 -0.00207392 9.77556e-21)
(0.989399 -0.00115599 -7.19869e-21)
(0.0284525 0.11667 1.76049e-20)
(-0.0111936 0.131638 -7.67813e-20)
(0.968461 -0.000651888 -1.54398e-20)
(0.97021 0.000941224 7.4746e-21)
(1.0533 0.00837897 -6.89324e-21)
(1.05326 0.00923549 -4.16222e-21)
(-0.557853 -0.00923208 4.74052e-20)
(-0.568811 -0.00954957 0)
(-0.0385552 0.171047 1.76007e-20)
(-0.0341502 0.170327 1.67799e-20)
(-0.283487 -0.0481081 1.03234e-20)
(-0.301608 -0.0525506 -8.99643e-20)
(-0.342008 -0.0465635 1.77635e-20)
(0.966082 -0.371922 2.94199e-21)
(0.961665 -0.359621 -1.6334e-21)
(0.952733 -0.367075 -2.18116e-21)
(1.0041 -0.0232842 0)
(1.00339 -0.0230285 0)
(1.0039 -0.0241737 0)
(0.99648 0.0918202 6.03771e-21)
(0.996309 0.0880646 2.75408e-21)
(0.999707 0.0894875 6.55696e-21)
(-0.649272 0.0236717 5.52453e-21)
(-0.64806 0.0237975 -5.27708e-20)
(-0.706554 0.0210151 -1.50603e-19)
(1.07824 -0.266262 2.52832e-21)
(1.07949 -0.26924 1.50649e-20)
(1.07586 -0.269025 -1.55989e-20)
(0.99639 0.0956246 8.97885e-21)
(0.992845 0.0937948 3.81406e-21)
(0.790069 -0.0800391 6.19793e-22)
(0.789869 -0.0698239 2.18714e-20)
(0.799602 -0.0758627 -1.96091e-20)
(0.792274 -0.111455 6.79983e-21)
(0.792147 -0.100919 0)
(0.781111 -0.106568 4.1456e-20)
(0.982924 -0.0203558 -4.91366e-21)
(0.983732 -0.0209112 1.32535e-20)
(0.982722 -0.021986 3.40784e-21)
(1.01256 -0.0244721 -9.29307e-22)
(1.01305 -0.0254413 8.13435e-22)
(1.01324 -0.0246022 -8.03254e-22)
(1.16825 -0.00335226 -4.95317e-21)
(1.17145 -0.00795544 -8.59753e-21)
(1.17476 -0.000948563 1.06426e-20)
(1.01208 -0.023422 -1.83649e-22)
(1.01167 -0.0242926 -1.00708e-21)
(-0.0223851 0.0658248 3.44441e-21)
(-0.031827 0.0515849 -1.57008e-20)
(1.05314 0.00752112 -5.66598e-21)
(1.0541 0.00812584 -4.78387e-21)
(1.03066 -0.024372 -2.05552e-21)
(1.03111 -0.0234457 -5.6509e-22)
(0.992996 -0.13328 1.55635e-21)
(0.993396 -0.137851 0)
(0.989006 -0.135173 0)
(1.01025 -0.0244283 -7.40973e-22)
(1.00995 -0.0252417 1.02705e-22)
(1.35825 -0.18777 5.64416e-21)
(1.36931 -0.179384 -2.11827e-20)
(1.37218 -0.198656 3.47441e-20)
(1.20805 -0.118954 1.58332e-20)
(1.2039 -0.112576 3.5894e-20)
(1.20004 -0.119473 5.38137e-21)
(1.07008 0.170126 -1.26256e-20)
(1.06405 0.16652 -1.98889e-20)
(1.06365 0.175341 -1.64625e-20)
(1.0588 0.0237217 0)
(1.06014 0.0239794 0)
(1.01152 -0.0093752 -1.13527e-21)
(1.01123 -0.00956084 2.25492e-23)
(1.01183 -0.00982569 1.21619e-21)
(1.01191 -0.000970935 8.43361e-22)
(1.01203 -0.00147628 7.59645e-22)
(-0.0947166 -0.0505487 0)
(-0.0709536 -0.0531157 -4.34949e-20)
(0.0554627 -0.0778064 3.31198e-20)
(0.0747186 -0.080877 -2.53315e-21)
(0.987727 -0.318032 0)
(0.981069 -0.322714 -1.26165e-21)
(0.989289 -0.325356 0)
(1.02611 -0.0207508 0)
(1.02507 -0.0206187 6.74187e-22)
(1.02559 -0.019918 0)
(1.00643 -0.0419627 -1.0781e-22)
(1.00739 -0.0429719 6.55301e-21)
(1.0062 -0.0433539 -8.08774e-22)
(-0.046015 0.135489 1.00796e-20)
(-0.0104873 0.152244 -4.79938e-21)
(-0.0696219 0.135097 1.64599e-20)
(1.42504 0.197232 4.04855e-20)
(1.42987 0.185295 9.2454e-20)
(1.41276 0.207902 2.87075e-20)
(0.588829 -0.129365 1.41433e-20)
(0.611185 -0.124076 2.715e-20)
(0.606006 -0.15167 -2.5472e-20)
(1.00491 -0.0237489 -1.97378e-21)
(1.00438 -0.0224559 0)
(1.06914 -0.202821 -7.21765e-21)
(1.0712 -0.197286 1.0682e-20)
(1.06549 -0.199313 1.21678e-20)
(0.185471 0.224717 0)
(0.122755 0.206079 0)
(0.160262 0.216664 -3.72872e-20)
(1.12349 0.0459997 -4.27065e-21)
(1.12607 0.0503934 -2.19877e-20)
(1.12773 0.0442902 1.74725e-20)
(1.01191 -0.101265 -1.87349e-22)
(1.01218 -0.105008 1.67762e-21)
(1.09372 -0.097084 -8.67787e-21)
(1.09698 -0.0933519 -1.72114e-20)
(1.09186 -0.0933933 -6.81363e-21)
(1.08165 -0.278145 -1.47422e-21)
(1.0723 -0.283764 7.55145e-21)
(0.470688 0.311033 -9.71268e-21)
(0.405963 0.290509 3.76437e-21)
(1.1423 -0.19376 1.28593e-20)
(1.14473 -0.186561 7.84599e-21)
(-0.246328 -0.0727114 8.62689e-20)
(-0.297552 -0.0617204 1.47154e-20)
(-0.302566 -0.0641224 4.00538e-20)
(0.704718 -0.0643828 4.4173e-20)
(-0.0382286 0.144595 -2.84256e-20)
(-0.0294988 0.150879 8.27032e-21)
(0.837818 -0.0582726 2.36485e-20)
(0.829057 -0.0556219 3.78718e-20)
(0.835007 -0.0494088 5.47829e-21)
(1.11513 0.0501501 6.89039e-21)
(1.11145 0.0474295 0)
(1.11098 0.0520692 -1.77426e-20)
(1.14833 -0.340628 0)
(1.15998 -0.336289 0)
(0.96418 -0.0370787 7.09522e-21)
(0.964752 -0.0348977 0)
(0.966287 -0.0362067 6.45789e-21)
(0.9883 -0.00097878 9.27009e-22)
(0.987979 -0.00198497 5.29832e-21)
(0.712519 -0.231527 -2.38676e-20)
(0.696657 -0.242412 1.79013e-21)
(0.716713 -0.247387 -2.01964e-20)
(0.83438 -0.186716 -1.16249e-19)
(0.77811 -0.188007 0)
(0.775643 -0.174666 -1.78944e-20)
(0.992 -0.0727451 -3.87946e-21)
(0.991024 -0.07472 -8.11081e-21)
(0.989229 -0.0728346 1.9367e-21)
(1.02024 -0.0077897 -2.93186e-22)
(1.01955 -0.00787016 -3.34614e-23)
(-0.0421407 0.1619 0)
(0.843009 0.0631853 -2.04114e-21)
(0.836852 0.0702267 -2.15159e-21)
(0.824039 0.0560287 4.10307e-23)
(1.06828 -0.207046 -2.17646e-20)
(1.07346 -0.205176 -1.03589e-20)
(0.998602 0.0971277 -7.51436e-21)
(0.995284 0.099147 1.18901e-20)
(1.34602 -0.199428 -5.94646e-20)
(1.34412 -0.180808 7.10237e-20)
(1.21197 -0.125838 -9.34689e-21)
(1.21618 -0.117999 -9.52503e-21)
(1.45517 0.0890604 -3.39158e-20)
(1.45671 0.0677316 4.87531e-20)
(1.46446 0.0759014 6.62338e-20)
(0.967784 -0.0111165 5.09123e-21)
(0.968099 -0.0127319 4.98243e-21)
(0.966343 -0.0125425 -1.07642e-20)
(0.981614 0.00203965 -4.78751e-21)
(0.98125 0.0027765 -1.58371e-21)
(0.982247 0.00305176 -5.46854e-21)
(1.00009 -0.00305329 0)
(0.99999 -0.00306063 -1.16355e-21)
(1.00003 -0.00285564 6.386e-21)
(-0.136227 -0.122329 -4.10292e-20)
(-0.180382 -0.112429 -8.06911e-20)
(1.11274 0.0408935 0)
(1.11122 0.0444655 0)
(1.1101 0.0408842 -8.11461e-21)
(1.05711 -9.32107e-05 -1.87814e-21)
(1.0575 0.000613376 8.15877e-22)
(1.0582 -0.000214732 2.23844e-21)
(1.00008 -0.000311391 -1.28849e-21)
(1.00009 -0.000274683 8.75794e-21)
(1.00012 -0.000354007 4.43415e-21)
(0.931886 0.0405071 -1.7403e-21)
(0.928957 0.0419843 2.94197e-23)
(0.928226 0.0438388 -1.90397e-21)
(1.16565 0.00257968 4.19085e-20)
(1.16201 -0.00455976 3.66614e-20)
(1.00982 0.104999 1.21185e-20)
(1.00611 0.108264 1.91861e-21)
(0.298306 0.0932933 3.62426e-21)
(0.283249 0.0655279 5.08682e-21)
(0.804912 0.161868 0)
(0.796575 0.150553 -4.2066e-21)
(0.815844 0.154584 0)
(0.792198 0.170083 0)
(0.813054 0.173078 1.76473e-21)
(-0.648711 -0.00165867 1.02968e-19)
(-0.599407 -0.00855966 -5.72242e-20)
(0.997196 -0.131109 -3.33553e-21)
(0.992924 -0.128628 3.96203e-21)
(0.500379 0.101242 2.01747e-20)
(0.506137 0.0909868 1.87259e-20)
(0.435158 0.0913929 -1.47408e-20)
(0.999493 -0.00308753 3.02897e-22)
(0.999479 -0.00287913 5.85318e-22)
(0.999588 -0.00293887 -2.68065e-21)
(1.01189 -0.00919489 -2.36724e-21)
(1.01123 -0.00887967 -1.55483e-21)
(1.209 -0.0162919 -9.02305e-21)
(1.21021 -0.0243458 1.03339e-20)
(1.20268 -0.0211481 -1.46736e-20)
(1.00067 -0.000219321 1.67317e-21)
(1.00061 -0.00027716 -2.32623e-21)
(1.00058 -0.000182861 -2.19731e-21)
(-0.276047 -0.0468453 -2.31998e-20)
(-0.222716 -0.0562523 6.05556e-20)
(1.00243 0.276694 1.3781e-20)
(1.0092 0.266518 8.84827e-21)
(0.996023 0.264991 -2.28118e-21)
(1.00047 0.124213 -6.61078e-21)
(1.00178 0.129199 -7.60545e-21)
(0.995748 0.126831 -8.63558e-21)
(1.01224 -0.00904313 -3.04687e-22)
(1.01249 -0.00949232 -1.17912e-21)
(1.06412 0.0295761 0)
(1.06584 0.029717 7.1373e-21)
(1.06471 0.028124 0)
(0.999258 0.119223 8.87749e-21)
(1.00473 0.12117 4.09502e-21)
(1.41245 0.215226 -5.54693e-20)
(1.41341 0.188493 -1.17924e-19)
(0.980673 -0.378476 1.70311e-21)
(1.00078 -0.128663 -4.55279e-21)
(1.00039 -0.124308 -9.63243e-22)
(1.00423 -0.126129 1.18902e-21)
(1.11875 0.0483985 3.12267e-21)
(1.11963 0.0429468 -4.90005e-21)
(0.179454 -0.0473969 1.94883e-20)
(0.199012 -0.0695873 1.46761e-20)
(0.852947 0.0676619 2.28313e-22)
(0.845778 0.0574975 -2.16899e-22)
(1.11032 0.186794 1.62546e-20)
(1.11002 0.19679 -1.81389e-20)
(0.880211 -0.0409264 -9.08676e-21)
(0.876523 -0.036525 2.0897e-20)
(0.874413 -0.0426333 -1.63518e-20)
(0.971346 -0.0145009 7.66421e-22)
(0.971135 -0.0130352 -8.89514e-21)
(0.972581 -0.0131769 -8.584e-21)
(1.0147 -0.0189277 1.50389e-21)
(1.01463 -0.0196036 -3.9893e-23)
(1.01547 -0.0194849 -3.21625e-23)
(0.89107 -0.197566 -4.19601e-20)
(0.889689 -0.181849 -6.87556e-20)
(1.11647 0.0402632 0)
(1.11361 0.036891 -1.83807e-20)
(0.212964 0.057539 6.59685e-21)
(0.220341 0.0434272 4.81971e-21)
(1.08356 -0.0462305 4.82155e-21)
(1.08633 -0.0481472 -5.16884e-21)
(0.992848 -0.0703133 -1.84714e-21)
(0.994807 -0.0723688 7.63891e-21)
(0.996248 0.0850217 1.10602e-21)
(0.996153 0.0815306 -4.04118e-21)
(0.999365 0.0823131 0)
(1.1038 0.182676 6.93665e-21)
(1.11075 0.177533 -2.19156e-20)
(1.04307 -0.0142766 4.41406e-21)
(1.04402 -0.0147468 -1.34305e-21)
(1.04312 -0.0153428 -2.86083e-21)
(1.03751 -0.0350466 -1.09998e-21)
(1.03604 -0.0349764 1.81609e-21)
(1.03691 -0.0337982 -8.06031e-22)
(0.684868 -0.0928356 5.1893e-20)
(0.703261 -0.0977001 -4.26954e-21)
(0.692282 -0.108541 1.26118e-20)
(1.13649 -0.336543 0)
(1.12718 -0.329723 -3.67517e-20)
(1.13835 -0.325985 0)
(-0.318543 0.0115162 2.92484e-20)
(-0.2801 0.00623699 7.32234e-20)
(-0.260064 0.011745 0)
(-0.106169 0.115848 8.66816e-21)
(-0.130563 0.108047 -1.90897e-20)
(-0.0512097 0.120197 4.85578e-20)
(1.10182 0.0265944 -7.51773e-21)
(1.10238 0.0304755 -2.55706e-21)
(0.844739 -0.552093 2.28034e-21)
(0.848308 -0.597195 -6.5594e-21)
(0.886175 -0.591416 8.93052e-21)
(-0.370834 0.0127353 2.26725e-20)
(-0.349391 0.0156737 -4.65303e-20)
(0.932173 -0.00551795 -5.75824e-21)
(0.934934 -0.00477273 1.30071e-21)
(0.932722 -0.00238221 -1.15842e-20)
(1.08896 0.0558255 -2.49335e-21)
(1.09209 0.0550703 -1.58635e-21)
(1.08942 0.0533053 -2.78739e-20)
(0.668923 0.185426 -4.42189e-21)
(0.679567 0.202173 -4.56622e-21)
(0.644092 0.187791 -4.36359e-21)
(1.07382 -0.0593747 -2.79227e-21)
(1.07483 -0.0614141 -4.07585e-23)
(1.07194 -0.0612768 -8.69449e-21)
(0.996606 0.0700277 -1.07774e-21)
(0.996515 0.0677108 -1.82701e-20)
(0.994125 0.0699977 -1.2768e-20)
(1.0057 -0.0412623 -2.86755e-21)
(1.00659 -0.041093 -1.61733e-21)
(1.13692 -0.349908 2.50344e-20)
(0.999993 -0.000932696 7.17985e-21)
(1 -0.00103261 0)
(0.999981 -0.00103848 0)
(1.1266 -0.132117 -5.95043e-21)
(1.13193 -0.13055 1.01771e-20)
(1.12954 -0.137575 0)
(1.00472 -0.0868638 -3.411e-21)
(1.00712 -0.0879427 -9.61346e-23)
(1.00491 -0.0897535 -7.56074e-21)
(0.977814 -0.00668524 8.80722e-22)
(0.978289 -0.0076879 5.00293e-21)
(1.21058 0.273372 4.46999e-20)
(1.20551 0.286204 -6.59171e-21)
(1.22278 0.286775 5.37732e-20)
(1.04245 -0.0256151 3.77313e-21)
(1.04141 -0.0248151 -2.71401e-23)
(1.04279 -0.0242231 5.52815e-21)
(0.166175 -0.43593 -3.73425e-20)
(0.12008 -0.475409 -3.09463e-20)
(1.01201 -0.00852602 5.20041e-22)
(1.01268 -0.00887296 4.28969e-22)
(1.19027 0.195802 1.02667e-20)
(1.20214 0.193712 2.83704e-20)
(1.19252 0.184291 1.24562e-20)
(0.130867 0.0754532 -7.69538e-22)
(0.127045 0.0528712 -5.13326e-21)
(-0.294523 -0.0584417 -4.0953e-20)
(-0.295856 -0.0596227 4.54368e-20)
(-0.23577 -0.0676116 3.42901e-20)
(0.884485 -0.0507132 1.99194e-20)
(0.889535 -0.0506583 0)
(0.886676 -0.0554041 0)
(1.08574 0.0567039 2.0232e-20)
(1.08847 0.0587038 1.20142e-20)
(1.00001 -0.000721884 -1.51361e-23)
(1 -0.000587568 -3.93162e-21)
(1 -0.000587168 3.31493e-21)
(0.72247 -0.219928 0)
(0.704485 -0.213388 0)
(0.998191 -0.00717312 8.29661e-23)
(0.99838 -0.00664164 4.72556e-22)
(0.998528 -0.00721604 -2.39201e-21)
(1.12273 -0.128913 -1.96217e-20)
(0.252074 -0.0983287 6.36618e-20)
(0.121523 -0.0767092 -1.67818e-20)
(0.172881 -0.0790405 1.3693e-21)
(0.882002 -0.0462374 7.35632e-21)
(0.884991 -0.0406798 -2.63651e-20)
(1.07238 -0.0566915 6.18187e-22)
(1.07548 -0.0565571 3.40273e-21)
(0.996421 0.00680731 -7.39014e-21)
(0.995996 0.00688537 -3.60999e-21)
(-0.157815 0.109387 -1.00471e-19)
(-0.0882732 0.120264 -1.54065e-20)
(1.01878 -0.0156024 -4.02212e-23)
(1.01846 -0.014829 1.07021e-22)
(1.0234 -0.442653 -2.21655e-20)
(1.05523 -0.46715 4.25452e-22)
(-0.145802 0.101422 1.16677e-20)
(-0.165778 0.0949865 -4.95744e-20)
(-0.093754 0.103923 -4.36553e-20)
(1.07672 -0.262437 1.5785e-20)
(1.08087 -0.263029 -2.84736e-20)
(1.00008 -0.000347686 -4.92176e-21)
(1.00005 -0.000264321 -1.2882e-21)
(1.05985 -0.320504 -2.18452e-22)
(1.06784 -0.320296 3.35974e-20)
(1.06632 -0.326079 -1.51771e-20)
(-0.246119 0.0659014 -3.02145e-21)
(-0.220595 0.0659393 -6.12536e-22)
(-0.205251 0.0860545 -2.66526e-20)
(0.901745 0.0708684 -2.37225e-21)
(0.904972 0.0654141 -1.52683e-21)
(0.999114 0.0704043 1.51539e-20)
(1.1207 -0.012995 0)
(1.12146 -0.0172709 -3.03904e-21)
(1.11717 -0.0145547 0)
(0.685137 -0.271499 7.31932e-21)
(0.680367 -0.254196 2.82669e-20)
(0.663594 -0.266268 7.60157e-21)
(1.20052 0.261699 2.03319e-20)
(1.21555 0.260864 9.39052e-22)
(1.06335 0.0310123 -1.31104e-20)
(1.06242 0.029427 0)
(0.969726 -0.353252 -3.38258e-22)
(0.959416 -0.349609 1.45812e-21)
(1.00993 -0.145824 9.86339e-22)
(1.00567 -0.144015 3.3199e-22)
(1.00958 -0.141517 2.02833e-21)
(0.789399 0.0241274 -2.43865e-21)
(0.777167 0.0184784 1.10507e-21)
(0.786718 0.0164913 2.13561e-21)
(1.33292 0.10873 -1.68766e-20)
(1.3234 0.123061 -5.84695e-21)
(1.3176 0.103392 -4.49679e-20)
(1.00732 -0.000573717 8.91859e-22)
(1.00796 -0.000858997 -3.01896e-21)
(1.00752 -0.00122682 8.44839e-22)
(1.08518 -0.0171712 0)
(1.08269 -0.0168872 -9.40277e-21)
(1.08367 -0.0193278 -9.35671e-21)
(0.993144 0.0870773 -9.46936e-21)
(0.935597 0.0379407 2.07419e-23)
(0.934893 0.035904 5.45025e-21)
(0.980384 0.0074258 -6.08034e-22)
(0.977191 0.00918198 -1.08843e-20)
(0.981934 0.00694694 -5.20878e-21)
(1.01405 -0.0184028 4.25455e-22)
(1.0148 -0.0183974 5.12706e-22)
(0.569965 -0.140693 2.44985e-21)
(0.989431 -0.00260057 8.45514e-21)
(0.98978 -0.00310965 -3.87406e-21)
(0.990076 -0.0022655 -2.31074e-22)
(1.08844 0.239206 1.0101e-20)
(1.09824 0.244006 1.92679e-20)
(1.09687 0.232349 1.10812e-20)
(1.43853 0.163704 0)
(1.44516 0.144977 2.92705e-21)
(1.44029 0.152783 0)
(1.08713 -0.0179528 -1.55008e-21)
(1.08624 -0.0159522 0)
(1.16343 0.00717211 6.99129e-21)
(1.16912 0.00881982 4.92991e-20)
(1.34409 0.099606 0)
(1.34873 0.11866 -3.39482e-20)
(0.993193 -0.01933 -2.77405e-22)
(0.993734 -0.0204003 -1.34058e-20)
(0.993892 -0.0188987 1.75292e-21)
(0.790944 -0.0897596 7.81218e-22)
(0.780575 -0.08359 -2.13571e-20)
(1.02153 0.107331 -2.22374e-21)
(1.01699 0.106453 -1.02069e-20)
(1.02051 0.103034 -6.34425e-21)
(1.06858 0.323323 1.44597e-20)
(1.04868 0.30578 1.53819e-19)
(1.12085 0.322145 2.92021e-20)
(0.995935 -0.000883685 1.03029e-21)
(0.996321 -0.000900648 6.18982e-22)
(0.996171 -0.000516467 1.26598e-21)
(0.978569 -0.00565727 1.46639e-20)
(0.977244 -0.00582303 8.30715e-21)
(0.878805 -0.0516782 -3.81061e-21)
(0.690946 0.259289 -4.32129e-22)
(0.712807 0.254313 -5.02164e-21)
(0.725114 0.273958 8.94302e-22)
(-0.123395 -0.0480218 -6.94256e-21)
(-0.153991 -0.0440218 -5.63393e-21)
(-0.12698 -0.0499559 -1.39143e-20)
(1.13813 0.0361268 -6.39536e-21)
(1.13691 0.0324681 -1.81059e-20)
(1.14144 0.0330248 -1.95353e-20)
(1.02702 -0.020876 0)
(1.02653 -0.0216456 7.82769e-22)
(1.40293 0.226645 1.31016e-20)
(1.40113 0.236482 0)
(1.45312 0.108507 -7.48397e-21)
(1.4495 0.128068 2.83283e-20)
(1.45544 0.115394 -2.84523e-20)
(1.09077 0.166263 -5.71408e-21)
(1.08351 0.162326 -6.70003e-21)
(1.08939 0.158588 -1.30293e-20)
(1.16066 0.0127148 -2.74152e-20)
(1.15778 0.00609626 -3.28258e-20)
(0.670376 0.263198 -1.70095e-21)
(0.656284 0.242752 2.47737e-23)
(-0.596766 0.0375082 -4.5569e-20)
(-0.589376 0.0375627 -3.55653e-20)
(-0.65438 0.0320809 -1.62362e-19)
(1.0904 -0.0279957 -4.569e-21)
(1.09089 -0.030452 -1.7084e-20)
(1.09293 -0.0280671 -1.13197e-20)
(1.09833 0.0196787 8.10926e-21)
(1.1004 0.0211225 1.23239e-20)
(1.09708 0.0220981 0)
(1.11218 -0.26959 6.94907e-21)
(1.08722 -0.258872 -3.70764e-20)
(1.02161 -0.23438 -1.87166e-20)
(1.0154 -0.0240826 -8.14972e-22)
(1.01575 -0.0250972 6.56236e-22)
(1.01456 -0.0242609 7.57287e-22)
(1.00017 -0.00301489 0)
(1.00025 -0.00298159 0)
(1.00018 -0.00280847 0)
(1.09727 0.169913 1.33083e-20)
(1.09003 0.174337 -1.99003e-20)
(1.1074 -0.18893 -3.69492e-20)
(1.11052 -0.183492 3.94843e-21)
(1.10422 -0.184106 -4.53641e-21)
(1.01959 -0.015761 -6.56795e-23)
(1.0203 -0.0159354 1.73968e-22)
(1.01992 -0.0152691 -7.71566e-23)
(1.00003 -0.00105973 2.21686e-21)
(1.00001 -0.00105486 -3.22831e-21)
(1.00001 -0.000965098 -6.79032e-21)
(0.998014 -0.00756497 1.60932e-21)
(0.997921 -0.00698608 1.88458e-21)
(1.00232 -0.000436396 3.16472e-21)
(1.00251 -0.000465111 -2.76462e-22)
(1.00234 -0.000261426 1.91071e-21)
(1.11099 -0.000627208 -1.8109e-20)
(1.11446 -0.000443604 7.53698e-21)
(1.11248 0.00285725 -1.6134e-20)
(1.00016 -0.0032536 0)
(0.689891 0.180942 0)
(0.719465 0.191983 3.50178e-21)
(1.14037 0.0249166 -7.4733e-21)
(1.13562 0.0279131 4.58832e-21)
(1.00461 -0.0326356 3.82859e-21)
(1.00382 -0.03227 4.85374e-21)
(1.00429 -0.0334325 1.58638e-21)
(0.939856 0.034134 -5.89723e-21)
(-0.041668 0.135333 1.13787e-20)
(-0.082319 0.122865 5.7893e-20)
(0.970078 -0.00690848 1.82587e-20)
(0.970329 -0.00844235 -1.84206e-21)
(0.97153 -0.00717214 -5.49971e-22)
(1.18786 0.208292 -3.71604e-20)
(-0.668986 0.0120436 -7.99476e-21)
(-0.724355 0.0154037 -9.65442e-20)
(-0.670093 0.0131555 0)
(0.962178 -0.0380592 5.22214e-21)
(0.964221 -0.039246 -5.18762e-21)
(0.969701 -0.00540174 -2.03763e-20)
(0.968259 -0.00686065 2.10715e-20)
(1.14493 0.0237698 1.76072e-20)
(1.14422 0.0294057 -4.09825e-21)
(0.0505666 0.0664189 0)
(0.0205557 0.0671998 -4.45398e-22)
(0.0697427 0.0905632 0)
(0.318913 -0.252048 2.13588e-20)
(0.267506 -0.25024 -1.08231e-22)
(0.306225 -0.246613 6.82431e-21)
(1.21397 0.0163042 -7.20107e-21)
(1.22259 0.0141377 2.98553e-21)
(1.21548 0.00911712 -1.21338e-20)
(1.00134 -0.000292039 -3.54168e-22)
(1.00128 -0.000414274 1.03888e-21)
(0.500469 0.112409 -1.67724e-20)
(0.566759 0.110223 0)
(0.999395 -0.00323993 2.66872e-21)
(1.23076 0.0122368 1.45042e-20)
(1.23364 0.00348209 5.18089e-21)
(1.24114 0.0106163 -1.81072e-21)
(-0.671938 0.0120637 -7.92542e-21)
(-0.620065 0.0110528 6.79634e-20)
(1.09227 0.349782 -3.05988e-20)
(1.08067 0.336961 -1.85492e-20)
(1.14516 0.352977 8.76272e-20)
(1.05667 -0.00117808 -1.46518e-21)
(1.05593 -0.000311579 -1.12869e-21)
(1.12087 -0.284617 8.57263e-21)
(1.12011 -0.284761 1.89273e-20)
(1.08724 -0.282959 2.8827e-20)
(1.07749 -0.285728 2.85868e-20)
(1.07971 -0.280876 1.66092e-20)
(-0.00309077 -0.153119 0)
(-0.0116549 -0.192991 2.51908e-20)
(-0.00732626 -0.158772 2.97628e-20)
(1.33594 -0.209299 -3.54167e-20)
(1.32266 -0.202429 1.07083e-19)
(1.32432 -0.218593 9.59316e-20)
(0.770643 -0.056915 4.16837e-20)
(0.772419 -0.0460663 4.16928e-20)
(0.759902 -0.0487404 -7.12605e-23)
(-0.196601 -0.0826825 -4.55737e-20)
(-0.18945 -0.0797126 8.89442e-20)
(0.0248261 0.168212 4.36571e-20)
(0.0551141 0.181367 2.37037e-20)
(-0.00189678 0.164754 -1.6757e-20)
(1.01783 0.219567 -1.18755e-19)
(0.946545 0.210286 -7.73247e-20)
(1.03889 -0.0352346 2.94162e-21)
(1.03795 -0.0365432 6.99785e-22)
(0.121045 0.0781566 -1.98961e-20)
(0.0478868 0.118675 2.28424e-20)
(0.0618704 0.111834 -2.0612e-20)
(0.748029 0.00432934 -2.98992e-21)
(0.750013 0.00280607 7.14871e-22)
(0.458999 -0.356209 -2.70277e-20)
(0.426976 -0.331985 -1.5853e-19)
(0.429932 -0.376067 -1.72133e-19)
(0.48873 -0.337743 6.11474e-20)
(0.496504 -0.378686 1.28211e-19)
(0.930039 -0.00647361 -6.58838e-21)
(0.931237 -0.00819308 1.3162e-20)
(1.22155 -0.00681829 4.0948e-20)
(1.21535 -0.0115618 -3.06328e-20)
(1.22374 -0.0147422 -1.55638e-20)
(0.91896 -0.101982 5.64829e-22)
(0.923012 -0.0985147 -4.36833e-21)
(0.924233 -0.10432 1.25102e-20)
(0.922413 0.0123259 3.0451e-21)
(0.918555 0.00774306 -3.21181e-21)
(0.770713 -0.102109 4.93344e-22)
(0.770551 -0.0892539 -6.53422e-20)
(0.756693 -0.09627 -1.06723e-20)
(1.0054 -0.00157588 0)
(1.00536 -0.00189216 4.46617e-22)
(1.00573 -0.00181676 0)
(1.0198 -0.000425905 -2.36575e-22)
(1.01975 -0.000383857 4.00073e-22)
(1.05281 -0.100207 -2.60925e-21)
(1.05562 -0.10208 2.34986e-21)
(1.05185 -0.103295 1.18272e-21)
(0.0304044 -0.15485 1.32436e-20)
(0.0101563 -0.121755 2.23464e-20)
(0.232252 -0.463287 4.65978e-20)
(1.0161 -0.0239176 -7.7793e-22)
(1.01505 -0.0232895 5.65514e-22)
(-0.347503 -0.0462607 -8.92835e-20)
(0.909229 -0.0967856 0)
(0.914545 -0.0998464 3.35482e-22)
(0.913622 -0.0935484 2.6316e-20)
(1.09111 -0.099967 -7.33315e-21)
(1.09561 -0.0999222 1.53119e-20)
(1.05823 0.00145055 2.06783e-23)
(1.05714 0.00144402 -1.49022e-21)
(0.065474 0.0584286 -1.12913e-21)
(0.0309976 0.0511279 0)
(1.38674 0.241065 -2.58508e-20)
(1.38537 0.217074 1.38589e-20)
(0.993277 0.0809174 -3.47533e-21)
(1.00459 -0.0834591 -4.03261e-22)
(1.00216 -0.0850044 -5.54891e-22)
(1.07093 -0.0546741 4.13976e-22)
(1.06955 -0.0568914 2.96184e-21)
(0.955171 0.0284977 -8.00034e-22)
(0.956762 0.0278309 8.15604e-22)
(0.959767 0.026165 -9.16514e-22)
(0.970266 -0.0158861 9.34016e-21)
(0.971791 -0.0159391 -4.12635e-21)
(1.42141 0.102515 -3.7698e-20)
(1.08782 -0.0274714 7.65761e-21)
(1.0899 -0.0249976 4.35362e-21)
(1.14553 0.018919 2.29214e-20)
(1.1499 0.023547 2.43247e-20)
(0.905416 -0.100921 8.77758e-21)
(0.903613 -0.0944073 1.05574e-20)
(0.988766 -0.0029977 1.19791e-20)
(1.00572 -0.0331977 -2.17939e-21)
(1.00507 -0.031842 3.29165e-23)
(1.1882 -0.274635 -1.82856e-20)
(1.17838 -0.276168 -6.82623e-20)
(1.18511 -0.285177 -3.19897e-20)
(1.08014 -0.272398 -4.53962e-23)
(1.08243 -0.270242 2.71343e-22)
(1.31378 0.131848 1.07654e-20)
(1.30396 0.14176 -5.11225e-20)