/*--------------------------------*- C++ -*----------------------------------*\
| =========                 |                                                 |
| \\      /  F ield         | OpenFOAM: The Open Source CFD Toolbox           |
|  \\    /   O peration     | Version:  v2012                                 |
|   \\  /    A nd           | Website:  www.openfoam.com                      |
|    \\/     M anipulation  |                                                 |
\*---------------------------------------------------------------------------*/
FoamFile
{
    version     2.0;
    format      ascii;
    class       volScalarField;
    location    "600";
    object      omega;
}
// * * * * * * * * * * * * * * * * * * * * * * * * * * * * * * * * * * * * * //

dimensions      [0 0 -1 0 0 0 0];


internalField   nonuniform List<scalar> 
13917
(
0.0375993
0.0222589
3.89316
0.0236549
0.0221113
0.449604
3.83744
4.05521
4.71421
0.0529492
0.417898
0.121667
0.0237501
21.3811
0.0260617
0.025002
0.0223939
0.0659206
0.119169
0.0221112
0.0222672
3.82229
0.0220882
3.96943
0.0220096
3.27203
0.0416487
0.0530185
0.541359
0.0721719
0.0397368
0.0277496
0.0354284
0.0257901
0.0220276
2.08346
0.0220971
4.76489
0.0261941
5.23582
0.0218808
0.022286
0.0215971
0.079384
0.0221379
0.0275437
0.0643852
0.116031
2.78982
0.0220173
0.0288623
0.0223732
3.5369
0.0260845
0.0224062
0.0279995
0.41135
0.0220839
0.025428
0.0220925
7.89921
0.0222624
29.9633
0.0220994
0.418074
2.25593
0.0221125
0.0220565
0.931981
0.0347473
0.0221184
4.67829
5.90447
0.0220131
2.78629
0.143954
7.53765
0.0228747
2.35515
0.0222365
0.0222032
0.0221201
0.372282
4.70229
8.95122
0.0227622
0.022178
2.20283
0.0283775
0.0215861
5.17079
0.0629747
0.0219201
0.0231099
2.21229
0.408775
0.317469
0.0956991
0.297168
0.11347
0.0218186
0.032738
0.0816715
0.0233814
0.0218104
4.73053
0.341827
0.124554
0.0223983
0.0418341
5.7909
5.15144
0.175637
4.72524
0.0230117
3.03261
0.0220013
1.56624
5.30891
0.026109
0.0222744
0.607657
5.26769
0.0499593
0.021972
0.0229469
0.0221099
0.0219794
0.0216226
0.442386
4.64133
0.0229088
0.0221653
0.0222748
5.71465
3.92226
0.0380239
0.116364
0.0221046
0.0259721
1.87308
0.021799
0.0226427
0.0967129
0.022056
4.57191
0.563163
0.0223229
0.0217685
0.0282077
0.094208
3.15503
0.199809
0.0390554
0.0274219
15.2377
0.0335152
3.76823
10.9591
5.70042
0.0243123
0.0421804
0.0222365
0.307124
0.172175
0.292743
0.0233326
0.0978393
0.0219589
0.0336683
0.0392412
6.64391
0.191991
0.0227154
4.34354
0.0421949
4.51095
1.96831
4.51199
0.0219644
0.0649149
0.0409453
0.0217933
0.0221687
0.029727
3.12104
0.149831
17.7755
0.0402446
0.291565
3.29496
10.7987
0.142826
0.0220991
0.120471
0.0405286
0.0222214
0.0219305
0.171156
1.59404
0.028018
0.0220329
0.0894459
0.0942117
6.62527
4.63122
0.0220302
0.0221051
0.0947104
3.58029
0.0225456
3.91088
9.35423
0.293986
0.0218165
0.510462
0.0815386
8.14282
0.0219622
4.16459
0.0219561
0.0725678
0.021879
4.82293
4.7615
0.0252961
0.813035
0.0277789
0.0218198
1.73988
0.185144
0.0399805
3.8341
12.3902
0.0217773
0.0282095
4.9725
8.23313
0.0222284
0.0219432
4.24736
0.350999
0.0222668
0.735378
0.11255
0.0414127
0.0356321
0.0222283
0.0424394
10.0501
0.0219435
0.0750247
0.140671
0.0220816
0.0220645
0.140403
3.19575
0.183344
0.0299996
0.02618
0.0222712
6.30998
4.93943
0.610375
0.0218261
6.57388
9.11846
3.811
2.32026
0.158261
0.0222143
0.0219298
0.0671824
5.19145
0.22244
0.0251117
4.65762
0.0605249
0.0216156
5.74398
0.0220876
4.34307
0.0272335
0.022262
0.0270468
0.0387408
0.0423018
0.84389
0.031745
0.0220801
0.480333
3.85714
4.93364
0.0219633
3.94932
0.0221772
0.0220726
0.022009
0.869458
0.0221053
0.0760644
0.0346773
0.0219361
0.0913922
0.0232714
2.53572
0.0413536
0.0601158
0.0218383
0.0220487
5.95254
5.577
0.0219952
0.0219046
5.21734
0.0219408
5.55544
0.0218309
4.78984
0.0223603
0.238372
0.0410297
3.00439
0.0240229
4.99125
0.280144
0.0270912
0.343929
0.39054
0.0223659
4.75039
0.127242
8.13292
0.0248275
5.88055
0.028923
7.14644
0.238412
0.0907673
0.0899634
3.9823
0.0222159
0.0403657
5.46485
0.0222396
0.0235575
8.25078
0.235747
0.0226442
3.20639
0.531221
0.0218567
5.99508
2.77056
0.0220808
0.021896
0.0221841
0.0217634
0.374088
4.45542
0.687883
5.60463
0.0220087
0.0791711
6.45243
0.0598142
3.90356
4.91079
4.75639
0.0217727
0.568224
0.0218771
3.08231
0.0220904
3.79793
0.112069
0.0253313
0.0221972
0.0891483
0.0692096
0.097943
11.079
6.62168
10.2198
0.0439933
0.0506781
0.0219509
9.40221
3.76078
0.0221237
2.26566
0.0220386
2.99781
0.0223612
0.0222262
0.0232972
1.3644
0.0232544
3.04504
18.5704
0.392961
0.471907
0.0223525
0.434812
0.409239
0.0220316
0.231293
0.0222235
0.0220247
0.0711884
0.0222616
0.0220123
0.0218738
0.322416
0.0222479
5.37746
1.16033
6.79217
0.142911
3.42822
8.44263
0.0589574
0.0220138
0.165392
0.0258863
0.0293466
0.0220911
4.5133
3.68608
1.01817
0.0249625
0.13923
0.024599
0.0268851
0.0976571
0.023047
0.557711
0.0223814
0.0220959
5.25014
4.56099
4.45709
0.0830186
8.05045
4.64213
5.53361
7.66083
0.0216544
0.0794137
0.0231001
0.0221368
4.78871
0.0684208
0.0219299
0.0622224
0.0535471
8.12206
0.0220271
0.268288
25.7614
0.350807
4.80355
0.0222555
0.0221361
0.022166
0.0337633
0.0217754
2.58651
0.541248
0.0315587
12.9744
0.0278289
0.308566
5.34978
0.563326
0.369649
2.27142
0.274022
0.0572318
0.200947
0.0634203
0.411483
0.462259
0.0765815
0.153876
0.0218496
5.40639
0.0298665
0.0216752
0.0325356
0.0230076
7.1516
4.71168
0.0219322
0.0216367
3.25608
10.5664
0.0222618
5.62822
0.0229829
0.115278
0.0219523
7.15833
4.11022
0.0281378
0.0224144
3.18907
0.127968
6.579
0.0222694
9.0588
2.59045
4.73356
0.0216871
7.32243
4.94028
0.0613165
0.0218897
0.0223823
0.141886
4.58916
0.021854
0.0218993
0.0219555
0.0219495
7.41962
4.84794
0.0596949
0.146702
0.0219464
0.0218249
0.137415
4.86223
0.0351107
0.0219732
0.0220188
0.0220752
5.21432
11.4851
0.0221724
0.0220702
0.560119
0.0629415
0.0409987
0.022117
0.0233718
0.0268062
0.152428
0.274481
0.14974
0.182813
0.159837
4.57958
0.0593538
0.0219708
8.49903
0.022079
0.0238245
0.0249146
5.35123
0.0645875
0.0218255
0.338793
0.0788583
28.1332
0.158229
0.0350086
0.0574604
0.0221885
4.90638
0.245607
4.28731
0.0222904
0.0312107
0.148234
4.85888
24.6447
0.101932
0.0910053
0.0249494
0.0243407
0.0221204
0.0517988
0.0843967
0.0221643
0.0806107
0.143808
4.28115
6.25558
0.0241642
0.305321
4.06718
0.028047
0.0224527
3.71491
4.73188
4.50268
0.138471
0.021638
5.4905
0.139193
0.0218466
0.0318776
0.156157
0.0339814
0.07125
2.57897
0.20211
0.0526481
4.89157
0.0233555
10.1136
0.0222373
0.0221656
3.93941
4.72588
0.584722
0.0233509
0.0226611
0.0220722
0.0617639
3.28258
0.268917
0.0245781
0.333716
0.0881328
0.0219581
0.859765
0.261293
0.517829
0.0219518
0.212132
0.0229795
22.3482
0.0537766
0.064571
0.0316179
0.0218764
0.0217036
0.0221491
0.0966879
0.0277811
0.180983
7.50057
0.094969
0.0218652
0.168512
0.607308
2.92748
0.0219238
0.027048
0.0219065
0.0327498
0.0256354
4.93447
0.0222282
1.43133
0.0323287
0.419398
0.0633044
5.99519
0.0662453
0.022336
5.57308
20.4674
0.0221029
0.0247388
4.20716
0.121568
0.223927
0.0222376
0.0224486
0.190419
0.0255395
0.0923957
0.126311
0.021705
0.0952942
3.932
0.0218965
0.023012
0.0219757
5.94094
0.022266
0.0247238
6.89684
0.0234278
4.69514
0.0274069
0.03619
0.021968
0.0459851
0.022018
0.0544208
0.0218817
0.0686423
0.0229835
25.0748
3.04537
4.87737
0.0220854
0.0222054
0.0574299
0.0441421
5.92972
4.81077
0.0631439
0.02203
0.289728
0.614836
0.518359
0.170561
0.0666366
1.81712
0.0372105
0.0561435
0.125722
0.156868
0.0620976
1.02191
0.0583807
0.0237609
0.171766
0.0272148
0.0217565
0.032298
0.0417771
0.0275987
0.022026
0.0219146
0.0921266
0.0236494
0.0936563
0.022032
0.0220558
0.0222738
0.0232437
0.0215396
0.0258836
0.0219963
7.44185
0.117213
0.388658
0.021796
0.0222473
0.0464895
0.058142
0.0227204
7.42667
0.0618739
0.828334
0.0325647
0.154931
0.0225202
0.0222693
0.0219319
0.0232748
5.78287
0.0222553
4.53858
0.0261189
6.26059
0.0457206
0.0623306
0.420084
0.0216996
0.022291
0.119776
0.0220531
0.022507
6.96828
0.022798
0.022183
0.0286331
0.0219373
0.0216928
0.0277739
0.0285377
7.71011
0.0337212
0.0218929
0.0218628
4.77209
0.095031
0.0222861
0.022294
7.16238
4.14416
9.3501
0.0349632
0.023799
0.0217874
0.0216777
0.0784799
0.0347205
3.26535
0.0252218
4.84713
0.022388
0.0237097
10.0346
0.0220458
0.0303031
0.022047
0.0220797
0.0407384
0.0432708
0.0225804
4.69983
3.92538
0.063981
0.021968
0.0216029
0.279532
4.5639
0.0222613
4.46778
0.0216038
0.0398494
0.0217103
0.0218018
4.79094
0.0220287
0.610586
0.0389968
0.0222736
0.0216334
0.0220723
0.0219283
0.0229166
4.25434
0.0218727
0.0217949
4.62104
4.62554
0.0551352
0.0431402
0.0974148
0.0259737
0.0218127
0.0277783
7.0714
0.070897
0.0221288
0.022351
4.78981
0.0435655
5.30662
0.0222666
0.0228229
7.42539
0.0401071
0.022667
6.53238
1.78332
0.0219234
0.119574
0.0219291
0.0220027
0.0217844
6.04763
0.0215307
0.0218747
0.0218072
0.642977
0.0252806
0.114863
0.0659053
0.0217859
0.0329776
0.0221726
5.52409
0.0219576
0.0218863
0.0221834
0.292086
0.0221769
0.211835
4.74349
3.74806
0.026659
2.75169
6.07979
0.0220477
6.38892
10.2014
5.79117
3.6731
4.62335
30.4522
0.162612
0.0224138
2.57076
0.0395265
3.84448
0.0216832
0.0219174
0.0222881
0.0221656
0.0272675
0.0307421
5.36767
0.0219049
0.0220757
6.44982
0.19848
0.0220748
0.0384735
0.0306135
0.0222717
2.89435
0.040611
0.0238306
0.0252081
5.02913
9.07036
1.33562
0.0216986
0.127228
0.0785506
5.16319
4.78298
0.181113
0.0219489
0.0225935
0.0223905
0.0214939
0.023353
0.0216477
0.026924
0.0363408
13.3054
0.328599
0.021892
0.15256
5.4653
0.0389583
0.0223682
9.18439
0.0219183
0.0224188
0.0378215
15.1356
0.022179
0.0219548
3.99394
2.53798
4.00054
0.185134
2.14311
0.0219336
0.194953
0.0224049
0.0219918
0.0223806
2.84909
8.04505
0.0217857
0.0216295
0.0220728
4.19818
0.0231413
0.0317178
0.0220531
0.0225241
0.185667
0.0217986
0.0560483
0.213358
4.41151
0.022049
0.0682038
0.0243362
6.35626
5.55866
0.0220144
6.09515
0.104154
1.39016
0.0221771
1.49666
0.0222452
0.027586
0.0398019
0.179977
3.41101
0.551647
0.363998
4.77179
0.0218584
4.19559
0.0217904
0.0272162
4.08109
0.0221555
0.022253
0.0229333
0.0222445
12.0023
0.0216937
0.0220785
0.0959316
0.0439448
0.0740702
0.559526
0.278246
5.75964
0.112907
0.0418653
0.0540929
6.03837
0.0578622
1.479
3.24535
0.0267601
0.0217949
2.66566
0.52584
0.0223334
0.131964
0.0359223
0.022338
0.0279016
0.0222912
0.039838
0.0222921
0.0658615
0.10274
0.0218838
0.0597361
0.0218367
0.0538012
0.0218764
0.0262258
0.0805433
0.0238427
0.0221452
0.0217964
2.0558
0.06061
4.65077
0.0220101
0.0222055
0.0958375
0.0220467
0.0808447
0.0609199
0.0223412
0.120188
0.0218199
4.28515
0.0222911
0.0517557
6.92
4.10579
0.0219407
0.023693
5.13768
0.0219949
0.0219167
5.47703
5.63763
0.0242488
0.336104
0.0221017
0.0221354
2.89905
0.023155
0.0217098
3.89042
0.0218392
3.8796
0.0221966
0.0217119
0.0222906
0.288252
4.46743
0.0221728
0.0223734
0.0219334
0.0257388
0.0220765
0.922871
0.0608325
0.0222689
4.45483
0.0461119
4.34914
4.57669
3.83051
0.0217734
0.0223074
0.0221133
0.552338
0.0262384
4.55676
7.37552
0.0239364
4.09924
2.18732
0.0687731
0.31392
0.0599404
0.374298
3.43919
0.0562318
0.409832
4.67749
0.121191
0.0252196
5.84369
0.0530881
0.0216973
0.0235755
4.38133
0.0362957
0.0219241
0.0473444
0.0849847
0.0365493
5.53071
0.0238405
4.74635
0.0550385
0.482881
0.137379
0.133399
0.029918
0.0218112
0.0226692
3.8131
0.0219863
0.0241755
0.0217891
0.0233879
0.0219133
0.0345524
0.39426
1.92748
0.0434701
0.0620606
1.02368
0.268789
0.0219066
4.13573
1.95621
0.021752
0.0219086
0.0320896
5.34647
0.0222545
0.0811745
0.421566
0.0437171
0.0220724
0.0232975
0.0218542
0.126126
0.0375929
0.0219871
23.6283
2.02991
0.0404597
4.50388
0.122787
0.945977
0.0233628
0.0263755
2.33219
4.38011
0.185193
1.6696
0.0281234
0.0222768
0.0219836
0.0222527
0.0220288
0.0226971
0.0472727
0.0219469
0.353128
0.0219363
0.0292044
0.0217694
0.0615646
0.322993
0.328915
0.0220259
0.132812
0.0219821
3.10733
0.0220335
0.0256452
0.0221224
3.05653
6.56479
0.322688
0.0219446
0.31761
0.0220873
0.0293843
5.54874
0.0219752
0.0224053
0.0426243
0.031728
4.00576
0.0219493
0.0294153
0.0231736
0.0220348
0.0321983
0.0225561
0.0217551
0.0237406
9.01298
0.0246348
3.35812
4.50821
0.0608885
4.31548
0.0243753
0.0217608
0.0304733
11.2174
0.0234958
0.0350309
0.0619334
1.23848
0.0219138
9.06812
0.0624137
0.0873205
0.0217433
0.0216494
0.350447
0.0224883
0.0222862
0.0333994
0.0216977
0.0244621
0.028579
0.144413
0.330332
3.68541
0.0259271
0.159493
0.598173
6.03445
0.0523382
0.223052
5.32948
0.0458342
2.49886
0.0237077
7.34388
7.08106
0.0216676
0.0222621
0.0219483
0.0226646
0.0418526
0.0217664
0.0239132
0.178082
0.0234942
0.0345839
5.46512
0.0300718
0.0247332
4.72066
0.0226717
5.60644
0.0250004
0.0521676
0.0219027
9.54771
8.39346
0.0220864
0.0228166
1.17534
0.0294724
6.15706
0.0220199
0.0218357
4.22392
0.0228342
0.0437222
21.5698
0.02207
0.0583144
0.0289842
0.0216455
0.0218934
2.01466
6.08378
0.022281
0.0238465
0.0221075
0.0264583
0.0372359
8.24787
0.0227652
2.5923
3.8886
0.505599
4.42089
0.0227656
0.254405
0.155078
0.0289464
0.0220596
0.110172
5.12675
0.0234648
0.0437654
4.04941
3.50655
0.270223
0.025292
0.022358
0.0222463
0.0220779
7.05252
0.0847592
0.0243195
0.0229433
0.0247293
0.0222705
0.022025
0.0220479
0.154941
0.0518915
4.40114
0.045117
12.716
2.92926
0.0299713
0.0695519
0.0218121
0.0281291
11.2592
0.0221982
0.0236675
0.0769985
0.237621
0.0556496
0.935247
2.5944
0.0219231
4.88182
0.0216092
0.0223211
0.0439112
0.0222739
0.0219334
0.71321
4.85935
0.0218456
1.80448
0.0221787
0.021762
0.023587
2.77029
0.0287746
0.0249141
4.36495
0.0230631
3.2359
2.92774
0.0222462
0.046221
0.022008
5.09041
0.0847443
0.0220524
2.1166
0.0746873
0.0744601
0.022279
8.27871
0.0291371
0.455295
0.0229704
0.0657919
9.56401
0.021786
1.40115
0.022164
0.0602027
0.0510764
0.0222453
6.79338
0.0236711
0.231813
0.0607442
0.0957311
0.038614
0.041451
0.022698
4.02129
0.0314295
6.23924
0.0296666
0.125695
0.0220244
0.0410358
0.0220593
0.123336
3.62988
0.0228549
0.0218494
3.37861
0.022973
0.610796
0.0225738
2.43964
0.503751
0.0338974
0.0219818
0.0219346
0.0221127
0.0216454
0.109881
0.052015
0.039171
0.0258539
0.0220811
4.71711
0.023975
0.032803
0.57671
0.0220399
23.8755
0.0745757
0.0344057
1.2939
5.6271
0.391679
3.16732
0.476358
0.0219082
0.220661
5.01668
0.333205
0.0221722
0.0222486
0.308457
2.10242
5.38222
0.278817
0.0222464
0.0489079
0.0475644
3.39071
7.06379
0.0613021
0.352582
0.0240003
0.060924
0.180682
0.0221639
0.0858485
7.14529
0.0221334
3.92
0.0222534
0.0220042
5.96763
4.9191
0.0218474
0.0223232
0.0225833
0.0218459
0.0445036
0.798328
0.0232631
0.0219815
0.0220962
0.0582541
0.0278982
0.0275704
0.353105
0.0220273
4.92882
6.7841
4.6406
0.13141
0.0512369
3.93559
0.0381642
2.29592
3.63544
0.441356
0.0225179
5.48945
3.68051
0.0217732
0.0220297
0.071437
5.76852
3.45436
0.0217825
0.0220953
4.50067
0.948684
0.437824
0.0241556
0.024005
1.92859
0.0222925
4.52607
16.8598
2.91785
0.506267
0.02208
0.0219385
0.0218826
0.0262288
5.05088
0.0572246
0.0268743
0.0226573
0.0695288
8.67556
0.058065
4.60908
5.9126
5.38902
2.17659
0.0220505
0.0221713
2.48935
0.021681
0.0216964
0.0231498
3.10068
0.0442621
17.9137
0.105343
0.0220201
4.83161
0.0387748
0.021916
5.8735
0.155532
0.0251664
0.0221319
8.84379
5.28401
0.0221818
5.48517
3.88583
11.2796
0.511817
0.062545
0.0219671
0.0226679
0.741049
0.0261425
3.19591
0.0402967
0.451519
3.90481
0.0230071
0.0288234
0.0219686
0.0228063
7.15015
6.37645
0.0220751
5.78921
0.0621572
0.0221045
0.0248421
0.0219322
0.276091
0.0225551
2.17204
0.0479218
0.0219572
0.0218686
0.0905262
11.3868
0.0442934
0.0241018
0.0411382
0.0220495
0.023317
0.0298981
6.55028
4.71616
5.30864
0.0217337
0.0218631
0.0224498
0.262865
0.0218817
0.0225007
0.909534
0.0982939
3.59927
0.0216535
5.375
4.63948
0.0222843
7.70094
0.280087
0.0515374
2.0199
0.0223942
11.5212
0.0292807
0.0231606
0.0239689
0.0216775
0.630489
0.0222298
0.02281
0.0312729
3.2939
4.4214
0.0222463
0.0220198
0.0237108
0.0220509
0.144123
0.0224956
0.0782773
0.0239295
5.23668
0.0227627
4.23794
0.0217361
4.90287
0.0225019
0.0216616
12.4514
0.276896
0.107097
2.62765
0.0444689
0.0506545
0.0220509
7.08005
0.0220732
0.0218871
0.0899699
0.114559
17.3874
5.57569
0.145742
4.90448
0.0997705
0.322982
0.0219361
0.0255967
0.0308532
5.0898
0.0249828
5.56211
5.08098
0.0222203
0.0220758
0.0220798
0.662847
3.26259
0.0236775
0.0221055
0.0257278
0.0281183
0.045285
0.195953
0.198404
0.0220621
0.6839
0.0668482
11.7024
0.0893744
0.0233951
0.0241464
4.83658
0.0218796
0.0805108
3.71152
0.0228399
0.0255064
1.02317
0.140185
0.0228702
7.33918
0.0247388
4.22012
0.056941
0.0299107
0.0228909
5.31841
0.0218592
0.0819896
1.38351
7.40379
0.052991
0.0552122
0.0271093
0.0452967
0.022266
7.69373
0.0287706
0.0220257
0.0319615
0.02209
0.0222693
3.2276
0.0220675
0.0221793
0.0221209
0.350368
0.0222691
0.0320813
0.153515
0.1191
0.0945697
0.0222537
0.185052
0.385122
0.116036
0.0652978
0.0275374
0.286556
3.75937
0.285574
0.0222846
6.76967
2.00373
0.022284
0.0244261
0.0216662
0.635253
0.0730988
0.0220821
1.34077
5.40054
0.0218092
0.0222418
1.08389
4.90384
0.118239
0.0216816
0.903645
2.44027
3.35628
0.022021
5.0003
0.160628
0.0643984
5.58763
0.0272543
0.0216783
0.0313805
0.10554
0.0363875
1.6105
5.30799
0.0218443
4.75136
0.3837
5.30388
0.0217349
0.0537939
0.0223111
0.0219662
4.69268
4.27157
4.01162
3.90362
0.0289351
0.0556206
0.0220189
5.24081
5.88107
0.0220573
0.0223495
0.0316104
0.0218192
0.0719555
4.32387
5.47469
0.0581979
0.0225798
0.0221762
4.71611
0.0250269
0.0703942
0.0218234
0.0230852
0.33249
4.32927
3.91934
2.95226
0.0221701
2.53281
0.0220619
0.0456012
7.21644
5.78979
0.0220716
0.022294
0.0475894
0.0257837
0.0222174
4.60551
5.20226
0.0218156
0.02152
0.022192
0.0219622
2.6754
0.0217601
1.1633
0.118262
0.11217
0.0218997
0.0437459
5.23247
0.0395344
0.350978
13.1677
0.0223545
10.1272
0.033051
0.0359017
0.255606
9.2653
5.24764
0.10647
0.0219182
0.166295
0.0217724
0.0253937
0.0222654
1.02445
0.0313395
0.422103
0.63696
0.0559192
0.0221276
0.138428
0.028907
0.0222705
0.273408
0.0216166
0.0511575
0.036727
0.0222211
5.23323
0.0234722
0.497534
0.0229422
0.0219334
10.78
4.59523
0.0241925
0.0330624
0.0560544
0.0494734
0.108634
0.028203
0.0257451
0.0260498
1.47136
0.0252235
1.13369
0.0540201
1.75932
0.24454
0.0227985
4.55747
0.0216297
3.7324
0.024228
5.40638
0.368502
0.5407
6.00088
2.16851
0.0698472
0.0220481
4.39043
0.0753198
0.02205
9.13689
4.45796
0.0233872
0.024286
0.0306164
0.030708
0.0390763
7.39142
0.0222841
0.034785
0.0466775
0.0316478
0.0221635
0.194064
0.0216312
1.49196
0.0237535
0.0966991
0.0324595
0.0461557
0.0807958
4.26323
0.0675626
0.0218566
0.164992
4.14959
17.6521
0.0224792
1.58883
0.030848
1.77748
0.0220734
0.024548
4.65373
0.0849455
5.09542
8.84283
0.0331437
4.86701
0.0220277
0.021618
10.7557
0.059702
0.0244843
4.62158
0.0270779
0.0439071
0.0290776
0.0571482
0.0222508
4.45443
4.1842
6.68729
4.13496
0.0261057
0.04946
4.97575
0.0241159
0.0224108
0.0620732
0.0217111
0.256924
15.4049
6.29476
6.27637
0.0971541
0.022557
4.83954
0.0216152
0.159166
0.0222352
22.554
0.0239223
0.0445259
4.719
0.130605
0.0220244
0.0316608
21.966
0.0220816
0.320885
0.0218239
2.95545
5.61089
0.281573
0.0767433
0.0219465
0.455904
0.387803
0.0448419
0.0218287
0.0225758
0.0221469
0.0960278
0.022126
0.197152
0.0221258
0.0218363
5.26726
0.0219111
0.0270293
0.0262496
0.0222752
4.59169
0.0219021
0.0327557
4.73928
0.0769309
0.911793
0.0220788
5.20413
0.0833288
4.65701
0.0237009
0.362842
0.0221918
0.0513083
0.343043
0.287305
0.156142
5.18616
0.141466
0.729617
0.0270274
0.303808
0.0398817
0.350571
0.0250993
0.0221312
0.022036
0.0855534
0.0429158
4.35991
0.0771062
3.63723
4.86468
0.100194
0.0220722
4.37874
0.176345
0.0225341
0.0241563
0.0221139
3.88788
0.0220386
7.67705
0.021896
0.0295609
6.80904
0.066139
0.0220433
0.0220292
10.7702
0.02191
0.0241285
0.0260786
0.0316629
0.0280365
0.022253
0.348961
0.0823774
0.0422261
0.166795
6.02195
4.61625
8.58073
0.0217485
0.0220069
0.087035
0.0225749
0.0459535
1.3057
4.79644
0.0216778
0.0220506
2.72879
3.96922
0.0216942
0.0218612
0.0265461
17.0866
2.39017
0.0269072
0.0329554
0.0221983
0.193336
0.345183
0.130293
0.0315846
0.0419915
0.0224463
0.0379816
1.24564
0.0228549
0.0222261
0.0265713
3.80856
0.0252479
5.63442
0.0221036
4.6816
0.0350919
0.0282821
0.0217841
0.0219246
0.43505
6.89306
0.0581356
3.51337
15.6343
0.0226464
4.87696
0.310479
0.0218601
4.02219
3.009
0.276849
0.0222538
4.15412
5.38024
0.0219948
0.0378826
4.88748
0.0413574
0.0221266
0.0218275
0.0225044
0.0244685
0.0706319
4.37064
0.0796863
0.0628006
0.0217365
0.0222908
3.5595
0.021878
0.0436336
0.0267225
0.0220925
0.0557343
0.0220215
0.0238114
0.301323
0.0219941
6.23842
0.0220191
6.31411
4.31098
0.103665
0.0223396
0.0222928
5.0235
0.0216654
0.0243952
0.0223784
0.187704
0.334876
0.0363106
4.50128
0.0400409
3.9823
0.0225647
0.136253
0.0218252
0.0221378
5.70968
4.72059
0.36265
0.0239573
0.121128
0.129785
9.08879
4.79426
0.532362
0.0384455
0.0216095
5.4499
0.0219564
0.022027
3.81409
0.299402
0.0282056
0.181835
0.0452786
0.030992
0.0280006
4.84715
0.024831
0.0219871
5.7318
0.0449282
0.0217409
3.66169
0.0220311
0.0221082
0.287173
0.0963876
20.2387
0.0217568
0.0248275
0.0219338
2.18164
0.0218999
0.509481
3.97415
4.35083
3.21845
23.1145
0.0300991
6.35361
0.934139
0.0222092
0.0302547
0.0421585
0.0305227
1.30097
5.27667
6.25818
3.63582
2.15185
0.022244
0.258316
0.0220395
6.113
0.0302989
0.0234133
0.0244339
0.0228469
0.0219118
0.218354
5.86242
0.0217359
0.0238979
0.0218615
6.40594
0.0237497
5.01823
0.880352
0.366267
0.0220974
0.0219198
5.54932
0.368318
0.0221392
0.202222
0.022228
0.0862449
0.164334
0.127701
0.0812294
0.759548
0.0218232
0.0218224
0.562262
2.96478
0.0293762
0.0431945
0.0219748
8.50959
0.0220082
0.0219451
0.0233516
0.0220231
12.0628
5.05558
3.82799
0.102269
5.06646
3.80485
0.0216812
0.0365958
0.0217212
1.28538
0.0220437
0.0248495
0.0219999
0.0219188
0.0218144
2.01082
0.0229365
1.64096
0.0215928
0.0328331
0.022714
1.46284
0.0220424
0.0358593
0.0468345
0.057653
8.7537
0.0219176
5.00117
0.0556242
0.0427138
0.0220369
0.0219512
4.06436
15.3191
0.02206
0.0219338
3.86491
2.71955
0.0381529
4.63423
0.0228756
3.2745
0.0373001
0.0217256
4.31245
0.0230639
2.84306
0.0220324
0.0228349
0.0221175
5.40942
4.44724
0.0216973
0.237476
1.05462
0.0220592
0.0219127
0.0218699
0.244239
4.76024
0.0536864
0.0248866
0.0396005
0.0220253
0.0220893
0.0239822
0.022
0.92767
0.0220931
0.120979
0.260325
0.0351202
0.0216395
0.917268
0.143907
0.0220344
0.0606464
0.0345839
3.76169
0.0246349
9.77371
0.0555723
0.0220563
0.0697831
0.0722324
0.0251587
4.98412
0.10921
0.0344533
3.81434
0.02199
0.0977985
0.0845384
0.0862066
0.0219368
0.0220242
0.0216619
0.0335408
0.0988073
0.0961138
4.72118
5.22424
0.943391
0.0222672
1.93543
3.96763
4.71631
0.022006
0.0220965
0.0828837
3.45242
0.0243031
0.0460072
24.8042
6.665
7.28274
0.116958
0.276258
2.97472
0.305884
0.0216302
6.1983
3.74356
0.0224278
0.0224427
0.0229252
6.24129
0.0732842
4.23628
0.0241773
0.408088
0.022216
4.43586
4.68767
0.0223126
0.042195
5.83725
3.66222
0.0530026
0.0230383
0.0238154
0.0224355
0.157811
0.304334
0.496834
4.73194
0.0217785
5.82541
0.0960422
0.543362
0.0220278
0.0221641
0.553372
0.275698
0.0220035
0.0491766
0.073617
0.0394485
1.28299
3.98442
5.13777
4.81928
0.0253715
0.0216893
0.0665372
4.95462
2.21837
0.0219923
0.238685
0.0925488
0.516433
0.0224479
0.0222567
1.16176
4.32268
0.415599
1.58187
3.63413
0.0219536
0.239248
4.86697
0.0222957
0.0638509
0.130656
0.0217077
0.324825
4.49462
0.256306
0.0222558
4.0255
0.21103
19.9174
0.0215085
0.0241419
0.0222434
0.0232181
0.0222072
0.0473216
0.0386457
0.0412533
0.367784
0.0414475
5.42515
0.0253574
0.0327085
0.027868
10.1741
0.0578377
5.095
0.0278218
0.0278335
13.487
0.0984511
0.0220828
0.0412026
4.38956
4.30877
2.43659
0.0220337
0.0219476
0.0219805
4.17059
0.023261
2.48257
1.30568
0.246669
0.0311421
0.13985
5.76771
0.0222085
5.25195
0.032917
0.0515744
0.021994
0.0219577
0.058215
5.35463
0.022079
5.01168
0.28894
0.0952167
0.102111
0.0219112
0.022019
0.03293
0.023059
16.9187
23.8509
0.0755351
0.434595
0.0220164
0.0221714
0.0222659
0.0222457
8.85839
0.0235304
6.60562
0.0848915
0.0224773
0.354699
0.500315
3.87855
8.95791
0.0239597
0.0218019
0.02213
0.0236544
0.851003
0.229752
4.89276
0.0221545
0.0225157
0.138653
0.0222603
0.617697
0.0237885
0.136474
0.157404
0.0397705
0.0381216
0.0217541
0.0513899
0.0367421
0.173663
0.0836352
0.0408246
0.0218679
0.163416
0.0219176
0.907515
3.45305
0.959071
0.0221204
0.104516
0.0220826
0.0612189
0.0231716
0.0228003
0.0282886
8.27983
2.6718
0.0787435
0.0437471
0.161021
0.0626076
1.28607
5.20372
0.0306068
5.55796
0.207867
0.02189
0.057979
4.89979
0.102227
0.022236
0.0528518
2.22269
4.51422
12.4695
0.0222211
3.85739
0.0221072
0.0219648
0.0627494
3.23677
0.022264
4.56972
7.88106
0.696181
5.10987
0.344475
5.33518
0.155819
0.0217501
0.0251257
0.0216715
0.0424288
0.799097
4.75987
0.0244129
0.0397324
0.0216497
5.40133
0.0514975
0.0473668
3.45418
0.100494
15.443
5.19382
0.0220212
6.09448
0.0221259
0.0281929
0.0460636
3.84812
0.408459
0.0279996
0.0233357
0.54204
0.0333557
3.32906
11.2914
0.0322214
2.52058
0.0698086
0.0222731
1.17709
0.0533399
0.0231078
5.9754
18.8009
0.0325931
0.0262888
0.305365
6.28664
0.021988
0.0223152
0.0216927
0.021779
0.0223518
10.7716
0.0310615
4.8655
0.0219517
0.0219862
0.841932
0.0222692
0.0238364
0.0220523
0.0220312
4.04516
0.0217954
6.27213
0.0220486
0.0233611
0.039231
0.0221851
0.150207
0.021808
0.0222654
0.0218256
0.0283326
0.0863487
0.0254449
3.89118
0.0219845
0.0422339
0.032343
5.32175
0.0228131
0.0222693
0.0217026
0.021715
0.195069
0.0219396
0.0219479
0.0252679
0.384755
0.0219304
0.0411965
0.0320404
0.0220827
3.83264
13.5451
2.27002
3.87449
0.0259899
0.272958
0.0221943
0.103895
0.34279
0.0224028
3.89284
0.271696
3.59689
0.030353
0.0220305
1.53907
0.0406249
0.402974
4.44381
0.0215788
0.0220053
6.89037
2.30605
0.11004
0.0516873
0.0231842
16.6294
4.45089
0.0215136
0.0219583
0.0221777
0.0221713
0.0222483
0.0220418
0.0362857
4.77573
0.0305391
0.0222483
0.577852
0.0219799
0.462822
0.0440688
0.0220658
0.0284708
0.0219317
0.218255
0.0249467
0.0536197
0.0219901
0.0223623
6.13492
5.13809
0.0221772
0.0869987
0.0438713
0.0305525
0.0239592
0.0222714
0.0228719
0.602025
0.303994
0.0572154
3.89933
0.0226091
12.4071
0.206791
0.0259473
20.185
0.0231816
4.33966
4.25771
3.79234
0.366559
5.13848
3.86965
0.0216521
0.0275066
0.0248145
0.0216584
0.0217705
0.0319625
0.0766044
0.0218171
0.0291989
0.352512
0.0691149
0.290767
0.575932
0.0325753
0.666208
1.28748
0.0343719
0.0249721
0.296037
17.0859
4.69247
0.0255541
0.0216367
0.0218993
0.0218146
0.0325854
4.84426
0.214692
0.0217586
6.59242
0.0219733
0.290139
1.67803
0.082788
0.116217
0.0941135
0.327164
0.0229406
0.0340387
0.0218808
0.193477
0.0220057
0.0231553
0.0387516
0.410061
0.0221749
0.0246006
4.75904
0.0218169
0.0221178
0.0292295
13.7725
0.0906454
3.72641
0.0383237
0.0221486
2.83275
0.0374289
0.0235229
0.0220226
0.0301906
0.0265244
0.0220351
0.0311269
5.71583
0.0236791
0.0216793
0.0470748
0.021897
0.0313544
0.0300732
0.0220652
0.0219886
8.18814
0.0217417
0.0220276
0.0216816
0.0257406
0.0214748
7.36291
0.0261239
0.110821
0.0219562
0.021952
0.0220829
5.95734
0.116255
0.0220468
0.021616
4.39207
0.0252375
0.107738
0.0218657
0.136766
0.0234785
0.021569
0.503179
0.0217776
0.0223257
0.0221449
0.0220434
0.024333
0.0221351
0.02203
1.58606
1.52218
7.13952
0.48893
11.726
0.0218901
5.11838
0.0219614
1.88329
12.2837
0.0217993
10.0142
0.0219734
3.73777
3.76942
0.276897
5.38257
4.94472
0.464812
0.552044
13.4673
4.20502
0.0402154
0.063621
6.13103
0.023597
0.0216877
4.54417
0.024157
0.0280954
1.10645
0.0230753
0.501497
4.65697
4.76661
0.196107
0.31797
0.022252
0.0281403
0.0483284
0.0223711
4.88823
0.213566
0.110141
0.0219477
0.0220675
17.5059
0.0217232
0.289659
0.0218944
10.0108
6.49617
0.0346751
0.0260798
0.0220536
7.11162
1.13623
0.0253915
0.032872
0.0222859
0.0222856
0.108256
0.0232364
0.0325134
0.0585889
0.0243005
0.0414364
0.0220403
0.0318418
16.285
0.0226545
2.6264
0.0220156
0.765114
0.0561266
0.0220347
0.633956
0.356815
0.021871
0.143454
0.0220419
3.90335
0.0222756
0.0220067
1.01304
0.0221451
0.14856
0.0235934
0.398294
0.0218918
0.0224355
0.0218654
0.0298861
0.0242983
0.0223896
0.0227037
0.0254362
0.0225506
0.322775
0.0570744
0.0342731
0.0233978
0.0216359
2.31358
0.476497
0.0228823
0.0226297
0.0227611
0.0363626
0.0223119
0.0339135
0.0215827
0.0222854
3.05404
0.0234309
0.0222847
0.0219163
5.1276
15.6377
0.0216151
0.0610927
0.0606561
0.120343
0.769604
5.28326
5.69229
0.262272
0.0231391
0.391277
0.0219225
0.032107
13.2355
6.42146
0.115647
0.0240074
20.6566
0.0220348
0.0424557
0.195965
0.0223156
0.359414
0.0235696
0.0233667
0.0581805
0.333203
0.847733
3.07231
0.0218222
0.0216163
5.19076
4.75619
0.0223289
0.0289348
0.313015
0.0220662
0.0220094
0.0241878
0.56497
0.0217916
5.73874
0.0293536
0.0223192
0.468002
0.139715
0.124884
0.0743616
6.55981
0.0244572
0.0393222
0.0276854
0.0238479
11.3265
0.0377815
2.04764
5.10074
0.0583583
2.70534
0.0422924
0.0440089
0.218524
0.02175
5.49488
0.0768957
0.0329427
0.0290499
0.0221763
0.0216907
1.44992
0.0403197
2.3011
2.89927
0.0221176
5.74535
0.021842
0.0219883
0.02866
6.18462
0.15905
0.0216834
1.16841
0.022024
0.023931
3.09092
0.0237877
3.37175
0.0222731
5.65825
5.44513
0.0694478
0.406408
0.0234854
3.92315
0.0216308
5.11045
5.05839
5.78319
8.79833
0.0219398
0.0218676
0.135247
3.45256
3.84136
3.49068
4.26744
0.0222213
7.60897
3.80352
0.0225254
0.385416
0.0317508
0.0321304
1.26979
0.0368856
3.33619
0.0218816
0.0364963
0.0400485
0.107025
13.1468
0.0355561
4.24632
3.04179
0.0221698
0.0246853
0.0238625
0.0254842
3.98985
0.0220056
0.0217792
0.037805
4.07715
3.84547
0.0284385
3.48153
3.62633
0.0220033
10.4692
6.76015
1.41214
3.74634
0.0542739
0.0244236
0.022172
0.0984221
0.0266018
0.062693
8.8178
5.25092
0.0287898
0.156836
0.0258638
0.0557554
0.0216726
0.0626897
0.0249232
0.0662001
3.52466
0.444514
3.92706
0.021681
0.286667
0.121793
5.74444
0.0232765
7.05749
3.72763
4.93946
0.0221225
0.157352
5.05283
3.32262
12.0044
0.0352568
4.34198
0.482972
0.12265
0.140073
0.0244946
0.029093
6.6473
0.0446464
0.0221847
2.87959
0.0221176
0.0223805
0.313364
0.334661
0.021864
0.0784731
0.0247193
4.66121
0.680578
0.0239546
0.796028
0.0221081
0.02192
0.108345
3.45899
5.5274