/*--------------------------------*- C++ -*----------------------------------*\
| =========                 |                                                 |
| \\      /  F ield         | OpenFOAM: The Open Source CFD Toolbox           |
|  \\    /   O peration     | Version:  v2012                                 |
|   \\  /    A nd           | Website:  www.openfoam.com                      |
|    \\/     M anipulation  |                                                 |
\*---------------------------------------------------------------------------*/
FoamFile
{
    version     2.0;
    format      ascii;
    class       volScalarField::Internal;
    location    "600";
    object      V0;
}
// * * * * * * * * * * * * * * * * * * * * * * * * * * * * * * * * * * * * * //

dimensions      [0 3 0 0 0 0 0];


value           nonuniform List<scalar> 
13917
(
0.01192
0.0426747
0.00275209
0.0347705
0.120382
0.00224694
0.00229191
0.00146081
0.00177323
0.00789031
0.00440111
0.00916067
0.0249681
0.00135548
0.0216314
0.0262837
0.040478
0.00906805
0.0104512
0.157546
0.136599
0.00192064
0.123576
0.00199989
0.071905
0.00214532
0.00739611
0.00499461
0.00207955
0.00595893
0.0111229
0.0178041
0.0111493
0.017117
0.0708852
0.00311322
0.121526
0.00144827
0.0269487
0.00123623
0.172761
0.172417
0.132243
0.00483637
0.0435323
0.0172166
0.0102385
0.00766671
0.0016753
0.169293
0.0157131
0.0390757
0.00147103
0.0159061
0.0380969
0.0195846
0.00563281
0.0662861
0.0270196
0.0422323
0.00237565
0.0481875
0.00125083
0.136216
0.00319297
0.00242696
0.113784
0.0676601
0.00368819
0.0125009
0.128771
0.00179847
0.00141573
0.0955683
0.00149415
0.00895861
0.00124553
0.0370942
0.00233785
0.146779
0.153168
0.109282
0.00263238
0.00171284
0.00193383
0.03832
0.141473
0.00191677
0.0209574
0.106451
0.0014512
0.00756601
0.0692097
0.0309997
0.00154032
0.00296802
0.00507723
0.00777889
0.00482461
0.00523757
0.12602
0.0119338
0.0041923
0.0272643
0.0896414
0.00226124
0.00350399
0.00664602
0.0432837
0.00977739
0.00166229
0.00155928
0.00630681
0.00196021
0.0264248
0.00132641
0.103058
0.00174495
0.00140011
0.0157229
0.16409
0.00421008
0.00125297
0.00675446
0.149323
0.0342054
0.0426676
0.169294
0.172314
0.00224768
0.00129597
0.0330513
0.0439061
0.140551
0.00326352
0.00205897
0.0111935
0.00359956
0.101391
0.0171961
0.00417101
0.0759136
0.0409215
0.00437405
0.0567223
0.00259523
0.00231829
0.0469795
0.0877303
0.0191323
0.00928528
0.00117917
0.00733097
0.00899781
0.0209745
0.00189676
0.0145643
0.003131
0.0012521
0.00319901
0.0233748
0.00817962
0.162213
0.00558944
0.00797889
0.00460775
0.0264782
0.00878904
0.06222
0.00952817
0.0105712
0.00132036
0.00610689
0.0350447
0.00272072
0.0073471
0.00161455
0.00163613
0.00277696
0.0656214
0.00651304
0.0122226
0.0769673
0.126397
0.0150484
0.00234264
0.00422966
0.00206692
0.0100947
0.00353605
0.00311904
0.00194279
0.00349608
0.142631
0.00370196
0.00782994
0.187019
0.0553745
0.0037569
0.00202065
0.0215724
0.1289
0.011263
0.010167
0.00134393
0.00298477
0.0606657
0.0585028
0.00808247
0.00270098
0.0442882
0.00225931
0.00138391
0.00544045
0.0914584
0.00270886
0.00948776
0.00154415
0.0699941
0.00271176
0.077954
0.00560198
0.141993
0.00137373
0.00201607
0.0233265
0.00351981
0.0185549
0.103486
0.00271068
0.00642719
0.0108107
0.00256649
0.00105143
0.140373
0.015991
0.00172806
0.00120042
0.138769
0.11565
0.00131712
0.00435489
0.162391
0.00393635
0.00712304
0.00732708
0.0126888
0.163802
0.0113435
0.00128513
0.0564069
0.00646947
0.00388053
0.046435
0.0589555
0.00808462
0.00133766
0.00669006
0.011921
0.0199003
0.177251
0.001126
0.00261828
0.00341869
0.0829564
0.00153632
0.00126794
0.00287479
0.00192225
0.0077108
0.159957
0.184335
0.00885376
0.00140295
0.0058183
0.0269917
0.00296942
0.011614
0.161222
0.00230224
0.138242
0.0024303
0.0249496
0.133465
0.0179979
0.00800951
0.00989947
0.0032421
0.01245
0.0493705
0.00337758
0.00219284
0.00194039
0.0799944
0.00296238
0.124135
0.0519841
0.109733
0.00201891
0.183008
0.00517898
0.0146485
0.067581
0.00931261
0.0317347
0.00103617
0.0080242
0.00807247
0.0657501
0.0608034
0.00153533
0.00135372
0.087891
0.154547
0.0026916
0.0711704
0.00150817
0.0769408
0.00126316
0.0395318
0.00385332
0.0160396
0.00142608
0.0255164
0.00307631
0.00263718
0.0183033
0.00370441
0.00268352
0.0404475
0.00158791
0.00325362
0.00103993
0.0201418
0.00128294
0.0166093
0.00184646
0.00361778
0.00441768
0.00500946
0.00220836
0.123853
0.0107293
0.0018647
0.0406625
0.0279364
0.00139953
0.00335286
0.0433073
0.00351285
0.00198958
0.143887
0.00145646
0.00358267
0.132799
0.104582
0.139011
0.0787818
0.00330201
0.0024448
0.00240263
0.00183535
0.0888766
0.00548999
0.00127618
0.0114159
0.001943
0.00166172
0.0019318
0.108315
0.00378842
0.0898163
0.00249876
0.041098
0.00133877
0.00651611
0.0313121
0.109578
0.00882574
0.00522069
0.0060652
0.00123972
0.00163817
0.0012289
0.00998067
0.00641548
0.0990543
0.00124463
0.00195636
0.0585731
0.00383322
0.104311
0.00396815
0.0369606
0.135434
0.0230325
0.00167925
0.0277113
0.00168275
0.00148012
0.00246307
0.00248619
0.0393267
0.00261871
0.00240591
0.12504
0.0037701
0.0469648
0.065814
0.00487011
0.177365
0.09786
0.0818144
0.00361746
0.141981
0.00145359
0.00213141
0.00134613
0.0032738
0.00157966
0.00128445
0.0123157
0.0940407
0.00522202
0.0235272
0.0164949
0.124857
0.00259148
0.00240347
0.00258657
0.0209404
0.0057176
0.0233069
0.0283004
0.00724966
0.0291131
0.00299605
0.0405279
0.15231
0.0015696
0.00147449
0.00153271
0.00543848
0.00119475
0.00178489
0.00151118
0.00150091
0.142631
0.00790278
0.0288327
0.0536584
0.00325543
0.00762934
0.160298
0.00829617
0.0123311
0.00134827
0.0997526
0.00562124
0.00164628
0.00305551
0.00121078
0.133885
0.0502199
0.160149
0.0113851
0.13061
0.00229602
0.00268963
0.0145564
0.00170571
0.0205889
0.00473563
0.0015826
0.00148561
0.00454847
0.00333702
0.00487569
0.0092721
0.00462712
0.0114052
0.00444837
0.00232444
0.00956293
0.00533369
0.154125
0.00277647
0.0214165
0.0795884
0.0123622
0.0335181
0.00150153
0.00164231
0.0693157
0.15271
0.00240273
0.00112581
0.180619
0.0012427
0.0295265
0.00412926
0.0724247
0.00107872
0.00311552
0.018724
0.0305374
0.00184736
0.00403696
0.00127986
0.176947
0.001357
0.00186284
0.00295331
0.0679299
0.00170479
0.00211051
0.0113217
0.0994546
0.0350992
0.00929632
0.00374949
0.136078
0.11045
0.137368
0.136156
0.00124522
0.00306127
0.0121754
0.00423224
0.165712
0.0979485
0.00574148
0.00216914
0.0120991
0.0511401
0.0876978
0.0700584
0.00258181
0.00184887
0.141061
0.0728302
0.00354151
0.0118873
0.0118604
0.056728
0.024632
0.0187275
0.00595049
0.00279477
0.00350543
0.00442762
0.00526978
0.00300379
0.00686569
0.0776751
0.00147799
0.0793931
0.0249905
0.0270022
0.00267251
0.00530668
0.1157
0.00317512
0.00515645
0.00144715
0.00483277
0.00961409
0.0117402
0.104188
0.00191753
0.00324367
0.0015879
0.0472277
0.015014
0.00367661
0.0015079
0.00136588
0.00720336
0.00436488
0.0255027
0.0215324
0.0496195
0.00601901
0.00414735
0.0424564
0.00969361
0.00333211
0.00171512
0.0010865
0.0260547
0.00508812
0.0035792
0.0162689
0.0431864
0.00155892
0.00258993
0.00225809
0.00414271
0.139215
0.0012395
0.00985186
0.135847
0.0139695
0.00723687
0.0113817
0.00633904
0.00216497
0.00499713
0.0153777
0.00233254
0.0264879
0.00138095
0.141009
0.107655
0.00245795
0.0021678
0.00244721
0.0247391
0.0393836
0.0781348
0.0102815
0.00136002
0.00496824
0.0207561
0.00554892
0.00888779
0.0589837
0.00242622
0.00607786
0.00341194
0.0763788
0.00402271
0.0325438
0.00155632
0.00813867
0.005872
0.012736
0.135908
0.0774343
0.0416657
0.00495075
0.0149432
0.00375836
0.00126171
0.0085568
0.134326
0.00380767
0.00179608
0.00335363
0.0554878
0.0154491
0.110348
0.0167719
0.0203792
0.00188178
0.145717
0.0022953
0.0175077
0.00405714
0.00644409
0.00133482
0.00551928
0.0385119
0.0013555
0.00136589
0.0542431
0.0283726
0.00333831
0.00462276
0.00556201
0.167759
0.030547
0.00400895
0.0246219
0.00741957
0.00924243
0.0704012
0.0103321
0.00243614
0.0529453
0.0417721
0.154016
0.00138244
0.153728
0.0218651
0.00135439
0.0249514
0.00241496
0.0207276
0.00849054
0.136776
0.0081886
0.100258
0.00899099
0.161971
0.00568634
0.0289033
0.00174794
0.00135564
0.00166124
0.187697
0.135461
0.00718123
0.00947644
0.00119855
0.00156312
0.00875282
0.0754956
0.00371233
0.00238721
0.00298167
0.00412942
0.00903066
0.00207513
0.0100276
0.0128613
0.00399685
0.00375577
0.00943137
0.0016968
0.0104139
0.030458
0.00642451
0.0144785
0.0686428
0.0182054
0.0100128
0.018108
0.101819
0.151869
0.00900946
0.0258233
0.00663045
0.0670727
0.0899242
0.141069
0.026115
0.0999418
0.0204844
0.141504
0.00110536
0.00986276
0.00280663
0.138944
0.138217
0.00676099
0.00785101
0.0300277
0.00240978
0.00628787
0.00262326
0.0136862
0.00489607
0.0310488
0.158335
0.144547
0.0258561
0.00123895
0.145162
0.00267869
0.0150988
0.0010673
0.00794312
0.0055024
0.00434395
0.0957219
0.182508
0.00875829
0.0710767
0.0399759
0.00268195
0.0315809
0.130143
0.0152764
0.128109
0.131243
0.0176283
0.0135345
0.00105157
0.0134791
0.0441454
0.177543
0.0015764
0.00406034
0.0478789
0.0380127
0.0025311
0.00326059
0.00130498
0.0113382
0.0295348
0.129531
0.124089
0.00937745
0.012771
0.00320469
0.0147392
0.00156514
0.033938
0.0253297
0.000928076
0.103047
0.0183076
0.0570542
0.159617
0.0100314
0.00751025
0.0320624
0.00205521
0.00121565
0.00745889
0.063196
0.0806278
0.0055473
0.00273809
0.158606
0.00280439
0.0838518
0.01066
0.0533733
0.0694643
0.00344128
0.0505359
0.00293379
0.0106974
0.151687
0.109244
0.0509022
0.0716742
0.0443775
0.00152711
0.0558531
0.0704747
0.00165164
0.00200198
0.0120761
0.0116065
0.00660044
0.0210645
0.0791964
0.0107802
0.00136374
0.00455795
0.0980337
0.0406761
0.00181567
0.0099289
0.00157007
0.136183
0.0284631
0.00134029
0.013252
0.0344352
0.00124193
0.00162366
0.0793337
0.0043408
0.118164
0.0543251
0.10631
0.00137665
0.098327
0.0473619
0.0797311
0.00251774
0.0215569
0.00422635
0.00587874
0.0622363
0.0103471
0.14365
0.00150936
0.0981894
0.0553455
0.131029
0.00383422
0.110364
0.00395676
0.00127124
0.00255565
0.0184206
0.00302498
0.00134803
0.0601266
0.00123374
0.00165919
0.00127804
0.00156266
0.00157738
0.00152304
0.00404325
0.03486
0.00189604
0.014111
0.00178123
0.0800693
0.0620676
0.0479915
0.141463
0.0183682
0.0129923
0.00104501
0.0637065
0.0732431
0.00109422
0.00317149
0.0479358
0.00712632
0.0152227
0.0414064
0.00108628
0.0069708
0.02362
0.0214466
0.00121416
0.00100252
0.00174867
0.0566267
0.00399385
0.00491866
0.00135292
0.00172541
0.0069715
0.0619785
0.030572
0.0314827
0.159347
0.0239151
0.132101
0.0163591
0.00592952
0.00165009
0.00551738
0.0444035
0.00517242
0.00152846
0.0108257
0.047285
0.00122111
0.0598965
0.0413485
0.00859161
0.0017528
0.112539
0.0738854
0.00208527
0.0031701
0.00305213
0.00499594
0.00246198
0.0663632
0.00350775
0.043074
0.102404
0.0437678
0.00256972
0.00114191
0.062524
0.106845
0.0551106
0.002985
0.0260861
0.0173803
0.0753818
0.0452626
0.00418965
0.0574094
0.00764649
0.00355075
0.00173881
0.0501342
0.00528939
0.0222051
0.00139294
0.00120418
0.0860863
0.00122801
0.00658965
0.00164082
0.121786
0.00153469
0.119856
0.0158519
0.0108094
0.00444269
0.0023454
0.00286274
0.00448023
0.00225844
0.140139
0.00372616
0.0724294
0.0118228
0.00185863
0.0480158
0.154865
0.0334009
0.0391209
0.00130457
0.114154
0.122982
0.00894654
0.0075754
0.00957333
0.00227411
0.00542568
0.00120166
0.00910159
0.0122703
0.014203
0.00135152
0.0122994
0.00265111
0.00150643
0.0212877
0.0644868
0.00160113
0.00334901
0.0414131
0.00594625
0.00940962
0.0355721
0.0188168
0.0360174
0.0111512
0.173377
0.00915974
0.00335729
0.101151
0.00846198
0.0611885
0.00635116
0.165063
0.0148504
0.00767927
0.0240448
0.040969
0.064889
0.00165177
0.0061021
0.00258043
0.0726143
0.0382101
0.00825599
0.0579349
0.00678133
0.00563196
0.0344998
0.00649622
0.0696292
0.00239041
0.0437007
0.0162773
0.00103602
0.00359831
0.0802726
0.0268932
0.00127336
0.0987315
0.102051
0.00142844
0.00148876
0.0219013
0.00435131
0.145112
0.0402826
0.00253405
0.0315892
0.0901572
0.00329645
0.0558567
0.00298305
0.115379
0.0977611
0.0437305
0.00520597
0.00143064
0.0433591
0.0405929
0.0729767
0.0193299
0.13404
0.00164793
0.00836521
0.158916
0.00231893
0.0084231
0.00283932
0.00158024
0.00150672
0.0676332
0.0481523
0.0531818
0.00197766
0.019508
0.00149606
0.00141005
0.0273375
0.00180455
0.0015517
0.00926093
0.00440518
0.00570095
0.00239467
0.0022371
0.00475093
0.00278421
0.00155947
0.00915257
0.022154
0.00133737
0.0054346
0.0709351
0.0237416
0.00247021
0.0101353
0.0671586
0.00717924
0.00599775
0.0115276
0.00122769
0.0266377
0.00223876
0.0127042
0.00378709
0.00446891
0.0039837
0.0157857
0.0656726
0.0399258
0.00238194
0.0816377
0.0226429
0.15248
0.0247065
0.0590165
0.0103902
0.00503687
0.00143018
0.00806416
0.00644664
0.00237149
0.00287817
0.0586992
0.00302062
0.00220494
0.056734
0.10039
0.0125103
0.00132493
0.141162
0.0074357
0.00255162
0.00831696
0.0573076
0.0278632
0.0573263
0.00526581
0.00938373
0.133478
0.00172209
0.00206949
0.00953982
0.00276904
0.0077039
0.00212776
0.0262495
0.0193376
0.00229078
0.00276933
0.00683556
0.00186374
0.0177294
0.147803
0.0616302
0.0491108
0.0585985
0.0272362
0.00883273
0.0755395
0.00458874
0.132797
0.014365
0.0670388
0.00644301
0.00526197
0.00294017
0.0615962
0.00398988
0.0593828
0.00225935
0.0921854
0.0176188
0.0937411
0.00360671
0.00124316
0.00400325
0.0723613
0.0052712
0.0460393
0.0142055
0.00149252
0.0529656
0.0424083
0.00805286
0.0155923
0.00191868
0.0733961
0.0145349
0.038326
0.105375
0.0122311
0.0326516
0.100809
0.0244016
0.00100103
0.022126
0.00305431
0.00227187
0.00907845
0.00142722
0.022068
0.109038
0.0143231
0.00116912
0.0339591
0.0102113
0.0107584
0.00159874
0.0747135
0.00113424
0.00713872
0.00736592
0.0667814
0.113867
0.00504273
0.0390539
0.144484
0.00999658
0.080935
0.0158974
0.0156267
0.00539753
0.00333628
0.00208084
0.0220705
0.00553765
0.0024669
0.00110361
0.0139243
0.00280053
0.00132778
0.0117227
0.00200589
0.0202079
0.00178875
0.0011928
0.0731272
0.164355
0.10677
0.0384549
0.00979553
0.0656177
0.0189365
0.00657051
0.0255484
0.0109136
0.00106126
0.00972063
0.0225357
0.0015695
0.0327557
0.00122417
0.0254774
0.00423071
0.0767638
0.00106435
0.00130451
0.0460123
0.036799
0.00180809
0.0106357
0.00126611
0.132956
0.0478243
0.00169013
0.0309077
0.00627502
0.00156422
0.0763484
0.00837764
0.012316
0.111021
0.132301
0.0018426
0.00131563
0.0399729
0.0227041
0.054469
0.013906
0.00873653
0.00145341
0.0270263
0.00169965
0.00280457
0.00338865
0.00270155
0.0314121
0.0057182
0.0034837
0.0142117
0.0907449
0.00883486
0.00146365
0.0250614
0.0072807
0.00184939
0.00132131
0.00272937
0.0195516
0.0479506
0.130909
0.079413
0.00130119
0.00895772
0.0248762
0.0283586
0.0238992
0.135845
0.058958
0.0759469
0.00620282
0.015481
0.00236752
0.00570972
0.00119645
0.00149033
0.0134295
0.0092482
0.114037
0.0170507
0.00105555
0.0365088
0.0245325
0.00911046
0.00453355
0.00604726
0.00221545
0.00201777
0.0583294
0.00106385
0.120825
0.0382883
0.00794574
0.145006
0.0469857
0.00435169
0.00238005
0.0540108
0.00233055
0.037155
0.0672225
0.0205459
0.00168897
0.0159438
0.0272908
0.00200145
0.0315996
0.00338637
0.00164727
0.169264
0.00502265
0.129648
0.00120044
0.00640433
0.0669995
0.0019585
0.00870303
0.00463926
0.129036
0.00104974
0.0137658
0.00283168
0.0406546
0.0042388
0.00129424
0.0690273
0.00174643
0.0460218
0.00759939
0.00633154
0.15948
0.00103003
0.0239901
0.00432433
0.00813008
0.0047361
0.00955924
0.0092306
0.0281971
0.00187867
0.0106912
0.00117158
0.0133525
0.00988341
0.0490631
0.0113185
0.0554082
0.00917549
0.0022352
0.035683
0.0702485
0.00134294
0.0286755
0.00226865
0.0325429
0.00228883
0.002578
0.0127742
0.0724635
0.100423
0.0855829
0.120012
0.00576422
0.00652057
0.00729484
0.0189565
0.135811
0.00302955
0.0248955
0.0137335
0.00274475
0.0561656
0.00180967
0.00958815
0.0175487
0.00173205
0.0013284
0.00313374
0.0023065
0.00269795
0.0714889
0.00254443
0.00148529
0.00259947
0.148352
0.0441137
0.00473827
0.00210517
0.00128459
0.00298345
0.0498596
0.00715899
0.0110097
0.00185964
0.00126949
0.0121299
0.0033722
0.021703
0.00643464
0.0063968
0.144442
0.00547283
0.00245519
0.106695
0.00282213
0.142595
0.0462089
0.0010315
0.00152919
0.126958
0.0390476
0.0229337
0.0458473
0.00971786
0.00432219
0.0259688
0.100072
0.102313
0.00880509
0.0163212
0.0205212
0.00326533
0.0702416
0.00176278
0.00122483
0.00147865
0.00346698
0.0096027
0.00304694
0.0133004
0.0018442
0.00268708
0.00270011
0.0403376
0.00187803
0.0011303
0.114836
0.096512
0.00533333
0.00149615
0.00230139
0.0630228
0.0495387
0.00150327
0.00183889
0.0027016
0.0243014
0.0209508
0.00184756
0.0490225
0.00148635
0.00172373
0.00313629
0.00247557
0.0511805
0.077365
0.130538
0.0154639
0.0011556
0.0110722
0.0224267
0.0297662
0.00451324
0.00107769
0.0100599
0.00277898
0.0011009
0.00103311
0.00171993
0.0800959
0.152201
0.00226253
0.114007
0.069171
0.0282
0.00112417
0.0115543
0.00196906
0.0044321
0.0875597
0.00146559
0.011823
0.0593409
0.00134438
0.00303692
0.0182165
0.041253
0.00119349
0.00156437
0.118823
0.00228154
0.00230211
0.00182782
0.00208373
0.00536655
0.0635163
0.0316535
0.00347742
0.0201281
0.00217579
0.00834957
0.0028049
0.00325431
0.0266701
0.0164161
0.0545324
0.0342157
0.00168467
0.00113783
0.0809679
0.00126707
0.0100405
0.047167
0.0202951
0.092758
0.00414314
0.026115
0.00168421
0.00646369
0.0653638
0.133409
0.0049198
0.000988044
0.0108069
0.0226972
0.00954436
0.0640048
0.0246639
0.017485
0.000937087
0.00136587
0.0015576
0.109049
0.130458
0.024561
0.00656158
0.0982713
0.0340538
0.00386687
0.00715909
0.00272543
0.0714271
0.0016196
0.00132974
0.163852
0.00100858
0.00523719
0.0104882
0.00153474
0.0358108
0.0014437
0.0146432
0.0240121
0.0225832
0.121784
0.00356059
0.165823
0.0362902
0.0114216
0.00150001
0.00149991
0.140287
0.160363
0.0239151
0.0487996
0.00412055
0.0380574
0.00615192
0.0290246
0.0014499
0.0352775
0.00157385
0.102641
0.00162594
0.0348988
0.112932
0.00181141
0.00261573
0.00392112
0.00299611
0.00565927
0.0101167
0.0724956
0.00142735
0.0656202
0.0991526
0.00449805
0.00908072
0.00179627
0.00143635
0.00487412
0.00275999
0.00476331
0.00280976
0.140374
0.0221235
0.0165497
0.00154892
0.0202718
0.00137935
0.00102526
0.0366028
0.0463231
0.0517175
0.00261828
0.00105884
0.0235668
0.123785
0.0207679
0.0183051
0.0108694
0.00345924
0.00303862
0.126084
0.00201532
0.0062479
0.000967116
0.00646922
0.0242895
0.024309
0.00139279
0.141101
0.00601657
0.00219595
0.0283906
0.0195114
0.00380024
0.00419584
0.033033
0.00125781
0.0243552
0.00331836
0.00964751
0.0136984
0.03044
0.00166453
0.100892
0.00499363
0.00178471
0.0015467
0.00905721
0.00713001
0.0211596
0.00954814
0.138274
0.00172271
0.019065
0.0494032
0.0146696
0.138725
0.164407
0.000880232
0.092835
0.146604
0.0533322
0.00394643
0.0462234
0.0129154
0.00614341
0.00352106
0.00533696
0.137517
0.00310041
0.00200251
0.0041264
0.00744096
0.0121074
0.00418678
0.00265531
0.00266317
0.166745
0.00246913
0.0021681
0.168716
0.0248479
0.119001
0.00222199
0.00514385
0.0343736
0.0016901
0.00149158
0.135621
0.042539
0.00208567
0.0011141
0.0083828
0.107331
0.00264329
0.00159521
0.00130854
0.10008
0.00151679
0.00677322
0.0040207
0.00128778
0.0209321
0.118449
0.013457
0.00423776
0.0128947
0.00204884
0.0015013
0.0684212
0.00231746
0.00153293
0.00133819
0.0862036
0.00621942
0.0288182
0.0630937
0.00121887
0.00306956
0.00335318
0.00293172
0.0145175
0.00998427
0.157074
0.00162281
0.00118474
0.0717666
0.037477
0.0111112
0.0606979
0.00916557
0.00167689
0.00191318
0.00903893
0.0340475
0.0367246
0.0016243
0.0195568
0.00896187
0.0751804
0.0288704
0.00330816
0.00280492
0.00311342
0.00156372
0.142194
0.00365423
0.152439
0.00778234
0.00177098
0.00136479
0.0954757
0.144847
0.01454
0.0164784
0.0444265
0.00138485
0.00152252
0.0758086
0.140691
0.118021
0.0952025
0.00145221
0.0658024
0.00150624
0.00513372
0.00854281
0.0612993
0.009096
0.00162676
0.014103
0.00262917
0.00162385
0.0320594
0.00102429
0.00988372
0.00635972
0.00316384
0.00122811
0.00136018
0.00930947
0.071769
0.00382509
0.065235
0.015573
0.0438374
0.00232576
0.0103415
0.00277859
0.00346213
0.00994855
0.114412
0.00341529
0.0179821
0.161636
0.00268801
0.108814
0.0146583
0.0104922
0.0438306
0.00214028
0.0277799
0.00228558
0.0269694
0.09363
0.00179462
0.00151424
0.021122
0.0109053
0.0123916
0.00657694
0.00885849
0.0148538
0.0147994
0.0221993
0.00368031
0.0181782
0.00218807
0.00556406
0.00262794
0.0057105
0.0297398
0.00159927
0.155282
0.00234675
0.0206714
0.00195096
0.00268144
0.00269048
0.00269636
0.00398266
0.00462975
0.0329766
0.00166395
0.00441119
0.0729072
0.00106251
0.00230129
0.0252388
0.0276832
0.0120361
0.0116823
0.0148366
0.00137304
0.184597
0.0153872
0.011088
0.0110509
0.140391
0.0058492
0.0933271
0.00212541
0.0192417
0.00447098
0.0130058
0.01096
0.00501304
0.00284054
0.0069105
0.0692721
0.00370096
0.00178104
0.00173735
0.0380856
0.00231017
0.0167541
0.00142697
0.0638083
0.0221159
0.00145708
0.0100099
0.00122957
0.0012305
0.0101716
0.0012321
0.0484997
0.0930822
0.00103147
0.00567979
0.0239262
0.00171637
0.0181286
0.00719764
0.0147822
0.00704456
0.0414686
0.00253422
0.00180411
0.00123182
0.00322874
0.016863
0.00840475
0.00124361
0.0237365
0.0424196
0.00524033
0.11298
0.00210095
0.00179396
0.00121434
0.00131974
0.00883795
0.0345943
0.00158226
0.123756
0.00506952
0.147209
0.00165695
0.0272818
0.00648097
0.00125556
0.00468971
0.124066
0.0124533
0.0018298
0.0473345
0.00536994
0.0677753
0.00214123
0.00132141
0.00546298
0.00432314
0.123479
0.00404027
0.004978
0.0102618
0.0679281
0.0380596
0.165339
0.00959499
0.0998741
0.00563964
0.0433448
0.063135
0.00182805
0.0583573
0.0182283
0.0219841
0.13492
0.00146741
0.0619615
0.0117145
0.00159432
0.0100905
0.00261498
0.0490492
0.00173339
0.0101479
0.00176437
0.0258851
0.00395049
0.0435145
0.00944543
0.00512312
0.00540568
0.00387351
0.00153352
0.00427095
0.00285115
0.0157097
0.00524284
0.00904171
0.00265615
0.0185017
0.0415533
0.0595041
0.00970117
0.00680472
0.00287517
0.00896659
0.00220707
0.00237022
0.00384709
0.0536073
0.00276974
0.00259566
0.0395889
0.0251388
0.0506408
0.00218229
0.0584295
0.000883352
0.061799
0.0179815
0.00142887
0.00517523
0.0869734
0.0592862
0.00122234
0.073595
0.0232885
0.0167829
0.0121587
0.0200455
0.0398411
0.00315495
0.00436979
0.00915296
0.00365357
0.00146065
0.00137266
0.00110559
0.116007
0.0633329
0.00417603
0.0352758
0.00554231
0.00223751
0.00127674
0.111808
0.071265
0.00153066
0.00304901
0.107647
0.0709971
0.0148514
0.00185094
0.00199959
0.0183642
0.0125274
0.13038
0.00354842
0.00547916
0.0032618
0.0114582
0.0100922
0.026905
0.0109139
0.00331249
0.0233384
0.0399015
0.0184784
0.00209207
0.0177293
0.00122185
0.0905632
0.0015145
0.0111141
0.0124281
0.086376
0.0929937
0.00277988
0.00234928
0.00598401
0.00118473
0.0018976
0.0347641
0.00148574
0.00475578
0.144094
0.00260857
0.00286578
0.00339945
0.139212
0.00146201
0.00143916
0.0640659
0.00964714
0.00128259
0.0100389
0.0486936
0.0689647
0.0348361
0.0242032
0.0066068
0.00370726
0.00447774
0.00671896
0.120324
0.0513881
0.00228455
0.0634616
0.00836359
0.0137964
0.0477373
0.00873229
0.080007
0.023845
0.00357433
0.102528
0.00134982
0.0981903
0.00181878
0.00166787
0.00585839
0.0423718
0.162545
0.00156824
0.119818
0.0227722
0.0355038
0.00367696
0.00297596
0.0113562
0.00156785
0.00973925
0.00281693
0.0300064
0.00696561
0.058763
0.096503
0.00122282
0.00134854
0.00300985
0.0235806
0.0076126
0.00664442
0.00106576
0.00150794
0.00352003
0.00762627
0.118898
0.00157465
0.051345
0.046628
0.00413582
0.00530119
0.0138833
0.00299545
0.00693616
0.0123067
0.0174362
0.00141802
0.0233685
0.090531
0.000990648
0.00552612
0.0900163
0.0011027
0.127229
0.107175
0.00398907
0.00499504
0.00189602
0.0990106
0.0194354
0.0614171
0.00181923
0.0663953
0.00226896
0.00258256
0.0015233
0.00143393
0.00157726
0.0116201
0.001488
0.00198016
0.133315
0.0126593
0.00939029
0.0114657
0.00177511
0.00127952
0.0012713
0.00156316
0.00169925
0.043622
0.00583981
0.143953
0.00142589
0.0164785
0.025453
0.0232918
0.0276462
0.0659364
0.00477695
0.00133575
0.107447
0.0249515
0.143646
0.00149243
0.0264647
0.00168777
0.00216201
0.00291636
0.08627
0.0658045
0.00115619
0.00260081
0.102911
0.00317828
0.137063
0.00464434
0.00295133
0.00583517
0.00978064
0.00262337
0.0575365
0.0605071
0.00362212
0.00147852
0.0148139
0.00684617
0.0628149
0.0011008
0.0810972
0.141318
0.0308407
0.0621124
0.00174488
0.00142555
0.00287531
0.00872114
0.00149752
0.00336799
0.119158
0.0139386
0.0852876
0.00174166
0.0365104
0.0195277
0.0612813
0.0965224
0.0645204
0.00202475
0.0393624
0.00154705
0.0775839
0.0116002
0.154862
0.00182495
0.0997392
0.0137859
0.0105868
0.00582751
0.00178172
0.0922546
0.00117189
0.00722888
0.0083671
0.142202
0.0794725
0.00142186
0.00101216
0.0406849
0.0647006
0.00342632
0.00362427
0.00889539
0.00155719
0.0276126
0.0021439
0.0168519
0.0923487
0.00178572
0.0359119
0.00188212
0.0591795
0.0278004
0.109546
0.000986798
0.00145629
0.110675
0.00279803
0.00367897
0.138563
0.0568183
0.143598
0.00282754
0.0015386
0.00747662
0.0281932
0.0101776
0.0993185
0.0506448
0.0244357
0.106449
0.00394579
0.04615
0.00785079
0.00286428
0.0105021
0.130526
0.00237466
0.00569141
0.0958905
0.00538598
0.0146105
0.00288368
0.0200652
0.00230392
0.00836909
0.052388
0.006087
0.00611616
0.0254631
0.00170346
0.00815726
0.0183355
0.00292576
0.0564584
0.00447418
0.00389941
0.0047486
0.0958089
0.0601382
0.120503
0.0105526
0.00892869
0.00880769
0.00236978
0.00129783
0.00224102
0.133139
0.00159264
0.001631
0.00158254
0.0599677
0.0462634
0.00886905
0.001888
0.0230246
0.0107475
0.00150538
0.00129961
0.00167684
0.00376989
0.00402984
0.00154107
0.00289353
0.0881916
0.00180035
0.00362365
0.0363252
0.0379703
0.0276148
0.00142998
0.00594648
0.00181647
0.022743
0.00272108
0.0420313
0.0025428
0.00133792
0.0356821
0.00874497
0.00146469
0.00234379
0.00834764
0.0284768
0.0236553
0.0332133
0.0035889
0.0054625
0.00248951
0.00155062
0.0779558
0.00104727
0.00429703
0.00271062
0.14376
0.137048
0.00355705
0.00295249
0.0611353
0.00901681
0.00488506
0.00614441
0.00209359
0.00192321
0.00158832
0.00149159
0.0192506
0.0768208
0.00519499
0.00126926
0.00224662
0.0493742
0.00187907
0.00429921
0.0020881
0.032022
0.146181
0.00176452
0.00266308
0.00248117
0.00182693
0.00132992
0.0853532
0.0028248
0.001582
0.0459323
0.00541065
0.00648722
0.0995041
0.00388602
0.00185499
0.00282742
0.14211
0.00112047
0.00491518
0.00161141
0.107485
0.0254828
0.0319266
0.0362435
0.0357081
0.00728907
0.00939603
0.00797828
0.00288368
0.0103964
0.0013578
0.0186227
0.0185568
0.0144082
0.00105628
0.00581417
0.00145231
0.0143468
0.0139119
0.0010292
0.00361321
0.0480049
0.00834185
0.00284494
0.00227936
0.00368222
0.0541328
0.0799316
0.0492212
0.00311164
0.0280954
0.00149325
0.00182265
0.00262931
0.0132347
0.00382829
0.00132645
0.0470093
0.00249071
0.0110452
0.00512102
0.047572
0.0511647
0.00781015
0.0014791
0.139617
0.00152718
0.00316337
0.00446167
0.00424821
0.0739517
0.11295
0.0147842
0.0377463
0.00167509
0.00169148
0.00509259
0.00284264
0.0557313
0.0431948
0.0404481
0.132037
0.00181973
0.0299454
0.00135974
0.00441581
0.0285314
0.0024665
0.00213502
0.00146781
0.00108058
0.0238734
0.066837
0.104031
0.0242302
0.00212402
0.00346935
0.00162276
0.113012
0.0362499
0.00332627
0.14931
0.00340054
0.022975
0.00332062
0.00293443
0.00844938
0.00939181
0.0751552
0.00914029
0.00977459
0.00343761
0.00442888
0.00914912
0.0970333
0.00375907
0.0683619
0.00249044
0.00160945
0.00187502
0.0502602
0.00565551
0.0558949
0.0107011
0.0270966
0.035688
0.0126524
0.00139724
0.00188763
0.00465072
0.00770401
0.00342173
0.00565755
0.00209742
0.00151811
0.0151721
0.00146283
0.00345546
0.0635581
0.00582191
0.00152812
0.00476309
0.142362
0.00804329
0.00161362
0.00324293
0.00103325
0.041381
0.00300589
0.0745419
0.0634148
0.0108862
0.00186882
0.159309
0.00147516
0.00162901
0.00334863
0.00259998
0.00264574
0.0015729
0.00369898
0.10804
0.0199071
0.0812353
0.00726227
0.0037323
0.00221864
0.0189796
0.0105213
0.0745858
0.00158508
0.0111234
0.0091385
0.00174531
0.00336822
0.001674
0.00157591
0.0589741
0.00104392
0.104077
0.0147437
0.00532893
0.0016608
0.00436459
0.0143043
0.0317127
0.00201628
0.0144305
0.00201451
0.00100968
0.00998532
0.00153772
0.0105305
0.144049
0.00188277
0.00729154
0.0275568
0.000988489
0.00188731
0.0147715
0.0149775
0.00499646
0.00130817
0.063166
0.0479532
0.110898
0.0890956
0.0285036
0.0015108
0.0107006
0.00165329
0.119884
0.0469843
0.00199967
0.0363389
0.166331
0.110717
0.0503033
0.00269622
0.067524
0.00158118
0.036187
0.0272253
0.00760961
0.0387103
0.00266588
0.0695824
0.149348
0.0646189
0.0126388
0.00506202
0.0219271
0.00144594
0.0468838
0.00773718
0.0158915
0.00151494
0.0333675
0.104934
0.0601795
0.0748666
0.00338329
0.0680737
0.0568432
0.0254516
0.00279463
0.141568
0.00803918
0.00874607
0.0535447
0.0016643
0.0016093
0.00304817
0.00259705
0.0222115
0.00538792
0.0441214
0.00350882
0.00360164
0.0369635
0.00292403
0.00508997
0.00241919
0.013239
0.0626551
0.00163359
0.00869315
0.00294673
0.00187307
0.0787304
0.0623354
0.00122029
0.00153476
0.00864892
0.00599417
0.0275632
0.0018251
0.00248422
0.111224
0.0913355
0.0400653
0.0988736
0.134025
0.0598989
0.00960325
0.00152233
0.0145055
0.0430767
0.00230742
0.0839413
0.00299856
0.00503182
0.0448478
0.0163301
0.0619814
0.00302273
0.0176042
0.00649886
0.0626317
0.0381183
0.00117958
0.00147377
0.131648
0.00896721
0.00761347
0.0151931
0.0211967
0.160263
0.0354828
0.002911
0.00295193
0.0110895
0.00211897
0.037182
0.00163326
0.00457374
0.0247606
0.00126024
0.0264011
0.00180311
0.00240073
0.00142281
0.00268922
0.00151124
0.00151743
0.0708823
0.017373
0.0225202
0.0772857
0.0653801
0.0150197
0.00464184
0.059632
0.0133445
0.00419949
0.00488957
0.0026506
0.00360407
0.0129195
0.00254778
0.00212926
0.0103439
0.0184307
0.00386887
0.00175228
0.00181389
0.0188088
0.0772996
0.066032
0.067031
0.0127627
0.00127855
0.00330822
0.0619275
0.00128003
0.106407
0.00458822
0.0020988
0.00460646
0.00385493
0.00396547
0.00325311
0.0284287
0.0108077
0.0769862
0.00358014
0.0619151
0.0269396
0.0132759
0.00313528
0.0958203
0.0242824
0.00117984
0.115336
0.041081
0.0161781
0.00158261
0.00485622
0.003025
0.00920907
0.138074
0.00164917
0.00831554
0.026561
0.0671482
0.0102941
0.0149596
0.0564237
0.0221398
0.00125512
0.0234506
0.0803746
0.00654827
0.0799315
0.0113567
0.00981172
0.0912493
0.0991887
0.00140359