/*--------------------------------*- C++ -*----------------------------------*\
| =========                 |                                                 |
| \\      /  F ield         | OpenFOAM: The Open Source CFD Toolbox           |
|  \\    /   O peration     | Version:  v2012                                 |
|   \\  /    A nd           | Website:  www.openfoam.com                      |
|    \\/     M anipulation  |                                                 |
\*---------------------------------------------------------------------------*/
FoamFile
{
    version     2.0;
    format      ascii;
    class       pointVectorField;
    location    "350";
    object      pointDisplacement;
}
// * * * * * * * * * * * * * * * * * * * * * * * * * * * * * * * * * * * * * //

dimensions      [0 1 0 0 0 0 0];


internalField   nonuniform List<vector> 
14246
(
(0 0 0)
(-0.0117247 0.10495 0)
(0 0 0)
(-0.0117247 0.10495 0)
(0 0 0)
(0 0 0)
(0 0 0)
(0 0 0)
(0 0 0)
(0 0 0)
(0 0 0)
(0 0 0)
(0 0 0)
(0 0 0)
(0 0 0)
(0 0 0)
(0 0 0)
(0 0 0)
(0 0 0)
(0 0 0)
(0 0 0)
(0 0 0)
(0 0 0)
(0 0 0)
(0 0 0)
(0 0 0)
(0 0 0)
(0 0 0)
(0 0 0)
(0 0 0)
(0 0 0)
(0 0 0)
(0 0 0)
(0 0 0)
(0 0 0)
(0 0 0)
(0 0 0)
(0 0 0)
(0 0 0)
(0 0 0)
(0 0 0)
(0 0 0)
(0 0 0)
(0 0 0)
(0 0 0)
(0 0 0)
(0 0 0)
(0 0 0)
(0 0 0)
(0 0 0)
(0 0 0)
(0 0 0)
(0 0 0)
(0 0 0)
(0 0 0)
(0 0 0)
(0 0 0)
(0 0 0)
(0 0 0)
(0 0 0)
(0 0 0)
(0 0 0)
(0 0 0)
(0 0 0)
(0 0 0)
(0 0 0)
(0 0 0)
(0 0 0)
(0 0 0)
(0 0 0)
(0 0 0)
(0 0 0)
(0 0 0)
(0 0 0)
(0 0 0)
(-0.0117419 0.10364 0)
(-0.011759 0.10233 0)
(-0.0117762 0.101021 0)
(-0.0117934 0.0997109 0)
(-0.0118105 0.0984012 0)
(-0.0118277 0.0970914 0)
(-0.0118448 0.0957817 0)
(-0.011862 0.094472 0)
(-0.0118791 0.0931623 0)
(-0.0118963 0.0918525 0)
(-0.0119135 0.0905428 0)
(-0.0119306 0.0892331 0)
(-0.0119478 0.0879233 0)
(-0.0119649 0.0866136 0)
(-0.0119821 0.0853039 0)
(-0.0119992 0.0839942 0)
(-0.0120164 0.0826844 0)
(-0.0120336 0.0813747 0)
(-0.0120507 0.080065 0)
(-0.0120679 0.0787552 0)
(-0.012085 0.0774455 0)
(-0.0121022 0.0761358 0)
(-0.0121193 0.0748261 0)
(-0.0121365 0.0735163 0)
(-0.0121537 0.0722066 0)
(-0.0121708 0.0708969 0)
(-0.012188 0.0695871 0)
(-0.0122051 0.0682774 0)
(-0.0122223 0.0669677 0)
(-0.0122394 0.065658 0)
(-0.0122566 0.0643482 0)
(-0.0122738 0.0630385 0)
(-0.0122909 0.0617288 0)
(-0.0123081 0.0604191 0)
(-0.0123252 0.0591093 0)
(-0.0123424 0.0577996 0)
(-0.0123595 0.0564899 0)
(-0.0123767 0.0551801 0)
(-0.0123938 0.0538704 0)
(-0.012411 0.0525607 0)
(-0.0124282 0.051251 0)
(-0.0124453 0.0499412 0)
(-0.0124625 0.0486315 0)
(-0.0124796 0.0473218 0)
(-0.0124968 0.046012 0)
(-0.0125139 0.0447023 0)
(-0.0125311 0.0433926 0)
(-0.0125483 0.0420829 0)
(-0.0125654 0.0407731 0)
(-0.0125826 0.0394634 0)
(-0.0125997 0.0381537 0)
(-0.0126169 0.036844 0)
(-0.012634 0.0355342 0)
(-0.0126512 0.0342245 0)
(-0.0126684 0.0329148 0)
(-0.0126855 0.031605 0)
(-0.0127027 0.0302953 0)
(-0.0127198 0.0289856 0)
(-0.012737 0.0276759 0)
(-0.0127541 0.0263661 0)
(-0.0127713 0.0250564 0)
(-0.0127885 0.0237467 0)
(-0.0128056 0.0224369 0)
(-0.0128228 0.0211272 0)
(-0.0128399 0.0198175 0)
(-0.0128571 0.0185078 0)
(-0.0128742 0.017198 0)
(-0.0128914 0.0158883 0)
(-0.0129086 0.0145786 0)
(-0.0129257 0.0132688 0)
(-0.0129429 0.0119591 0)
(-0.01296 0.0106494 0)
(-0.0129772 0.00933966 0)
(-0.0129943 0.00802994 0)
(-0.0130115 0.00672021 0)
(-0.0130287 0.00541048 0)
(-0.0130458 0.00410075 0)
(-0.013063 0.00279102 0)
(-0.0130801 0.0014813 0)
(-0.0130973 0.000171568 0)
(-0.0131144 -0.00113816 0)
(-0.0131316 -0.00244789 0)
(-0.0131487 -0.00375762 0)
(-0.0131659 -0.00506734 0)
(-0.0131831 -0.00637707 0)
(-0.0132002 -0.0076868 0)
(-0.0132174 -0.00899653 0)
(-0.0132345 -0.0103063 0)
(-0.0132517 -0.011616 0)
(-0.0132688 -0.0129257 0)
(-0.013286 -0.0142354 0)
(-0.0133032 -0.0155452 0)
(-0.0133203 -0.0168549 0)
(-0.0133375 -0.0181646 0)
(-0.0133546 -0.0194744 0)
(-0.0133718 -0.0207841 0)
(-0.0133889 -0.0220938 0)
(-0.0134061 -0.0234035 0)
(-0.0134233 -0.0247133 0)
(-0.0134404 -0.026023 0)
(-0.0134576 -0.0273327 0)
(-0.0134747 -0.0286424 0)
(-0.0134919 -0.0299522 0)
(-0.013509 -0.0312619 0)
(-0.0135262 -0.0325716 0)
(-0.0135434 -0.0338814 0)
(-0.0135605 -0.0351911 0)
(-0.0135777 -0.0365008 0)
(-0.0135948 -0.0378105 0)
(-0.013612 -0.0391203 0)
(-0.0136291 -0.04043 0)
(-0.0136463 -0.0417397 0)
(-0.0136635 -0.0430495 0)
(-0.0136806 -0.0443592 0)
(-0.0136978 -0.0456689 0)
(-0.0137149 -0.0469786 0)
(-0.0137321 -0.0482884 0)
(-0.0137492 -0.0495981 0)
(-0.0137664 -0.0509078 0)
(-0.0137836 -0.0522175 0)
(-0.0138007 -0.0535273 0)
(-0.0138179 -0.054837 0)
(-0.013835 -0.0561467 0)
(-0.0138522 -0.0574565 0)
(-0.0138693 -0.0587662 0)
(-0.0138865 -0.0600759 0)
(-0.0139036 -0.0613856 0)
(-0.0139208 -0.0626954 0)
(-0.013938 -0.0640051 0)
(-0.0139551 -0.0653148 0)
(-0.0139723 -0.0666246 0)
(-0.0139894 -0.0679343 0)
(-0.0140066 -0.069244 0)
(-0.00910528 0.104915 0)
(-0.010415 0.104933 0)
(0 0 0)
(0 0 0)
(0 0 0)
(0 0 0)
(0 0 0)
(0 0 0)
(0 0 0)
(0 0 0)
(0 0 0)
(0 0 0)
(0 0 0)
(0 0 0)
(0 0 0)
(0 0 0)
(0 0 0)
(0 0 0)
(0 0 0)
(0 0 0)
(0 0 0)
(0 0 0)
(0 0 0)
(0 0 0)
(0 0 0)
(0 0 0)
(0 0 0)
(0 0 0)
(0 0 0)
(0 0 0)
(0 0 0)
(0 0 0)
(0 0 0)
(0 0 0)
(0 0 0)
(0 0 0)
(0 0 0)
(0 0 0)
(0 0 0)
(0 0 0)
(0 0 0)
(0 0 0)
(0 0 0)
(0 0 0)
(0 0 0)
(0 0 0)
(0 0 0)
(0 0 0)
(0 0 0)
(0 0 0)
(0 0 0)
(0 0 0)
(0 0 0)
(0 0 0)
(0 0 0)
(0 0 0)
(0 0 0)
(0 0 0)
(0 0 0)
(0 0 0)
(0 0 0)
(0 0 0)
(0 0 0)
(0 0 0)
(0 0 0)
(0 0 0)
(0 0 0)
(0 0 0)
(0 0 0)
(0 0 0)
(0 0 0)
(0 0 0)
(0 0 0)
(-0.0117419 0.10364 0)
(-0.011759 0.10233 0)
(-0.0117762 0.101021 0)
(-0.0117934 0.0997109 0)
(-0.0118105 0.0984012 0)
(-0.0118277 0.0970914 0)
(-0.0118448 0.0957817 0)
(-0.011862 0.094472 0)
(-0.0118791 0.0931623 0)
(-0.0118963 0.0918525 0)
(-0.0119135 0.0905428 0)
(-0.0119306 0.0892331 0)
(-0.0119478 0.0879233 0)
(-0.0119649 0.0866136 0)
(-0.0119821 0.0853039 0)
(-0.0119992 0.0839942 0)
(-0.0120164 0.0826844 0)
(-0.0120336 0.0813747 0)
(-0.0120507 0.080065 0)
(-0.0120679 0.0787552 0)
(-0.012085 0.0774455 0)
(-0.0121022 0.0761358 0)
(-0.0121193 0.0748261 0)
(-0.0121365 0.0735163 0)
(-0.0121537 0.0722066 0)
(-0.0121708 0.0708969 0)
(-0.012188 0.0695871 0)
(-0.0122051 0.0682774 0)
(-0.0122223 0.0669677 0)
(-0.0122394 0.065658 0)
(-0.0122566 0.0643482 0)
(-0.0122738 0.0630385 0)
(-0.0122909 0.0617288 0)
(-0.0123081 0.0604191 0)
(-0.0123252 0.0591093 0)
(-0.0123424 0.0577996 0)
(-0.0123595 0.0564899 0)
(-0.0123767 0.0551801 0)
(-0.0123938 0.0538704 0)
(-0.012411 0.0525607 0)
(-0.0124282 0.051251 0)
(-0.0124453 0.0499412 0)
(-0.0124625 0.0486315 0)
(-0.0124796 0.0473218 0)
(-0.0124968 0.046012 0)
(-0.0125139 0.0447023 0)
(-0.0125311 0.0433926 0)
(-0.0125483 0.0420829 0)
(-0.0125654 0.0407731 0)
(-0.0125826 0.0394634 0)
(-0.0125997 0.0381537 0)
(-0.0126169 0.036844 0)
(-0.012634 0.0355342 0)
(-0.0126512 0.0342245 0)
(-0.0126684 0.0329148 0)
(-0.0126855 0.031605 0)
(-0.0127027 0.0302953 0)
(-0.0127198 0.0289856 0)
(-0.012737 0.0276759 0)
(-0.0127541 0.0263661 0)
(-0.0127713 0.0250564 0)
(-0.0127885 0.0237467 0)
(-0.0128056 0.0224369 0)
(-0.0128228 0.0211272 0)
(-0.0128399 0.0198175 0)
(-0.0128571 0.0185078 0)
(-0.0128742 0.017198 0)
(-0.0128914 0.0158883 0)
(-0.0129086 0.0145786 0)
(-0.0129257 0.0132688 0)
(-0.0129429 0.0119591 0)
(-0.01296 0.0106494 0)
(-0.0129772 0.00933966 0)
(-0.0129943 0.00802994 0)
(-0.0130115 0.00672021 0)
(-0.0130287 0.00541048 0)
(-0.0130458 0.00410075 0)
(-0.013063 0.00279102 0)
(-0.0130801 0.0014813 0)
(-0.0130973 0.000171568 0)
(-0.0131144 -0.00113816 0)
(-0.0131316 -0.00244789 0)
(-0.0131487 -0.00375762 0)
(-0.0131659 -0.00506734 0)
(-0.0131831 -0.00637707 0)
(-0.0132002 -0.0076868 0)
(-0.0132174 -0.00899653 0)
(-0.0132345 -0.0103063 0)
(-0.0132517 -0.011616 0)
(-0.0132688 -0.0129257 0)
(-0.013286 -0.0142354 0)
(-0.0133032 -0.0155452 0)
(-0.0133203 -0.0168549 0)
(-0.0133375 -0.0181646 0)
(-0.0133546 -0.0194744 0)
(-0.0133718 -0.0207841 0)
(-0.0133889 -0.0220938 0)
(-0.0134061 -0.0234035 0)
(-0.0134233 -0.0247133 0)
(-0.0134404 -0.026023 0)
(-0.0134576 -0.0273327 0)
(-0.0134747 -0.0286424 0)
(-0.0134919 -0.0299522 0)
(-0.013509 -0.0312619 0)
(-0.0135262 -0.0325716 0)
(-0.0135434 -0.0338814 0)
(-0.0135605 -0.0351911 0)
(-0.0135777 -0.0365008 0)
(-0.0135948 -0.0378105 0)
(-0.013612 -0.0391203 0)
(-0.0136291 -0.04043 0)
(-0.0136463 -0.0417397 0)
(-0.0136635 -0.0430495 0)
(-0.0136806 -0.0443592 0)
(-0.0136978 -0.0456689 0)
(-0.0137149 -0.0469786 0)
(-0.0137321 -0.0482884 0)
(-0.0137492 -0.0495981 0)
(-0.0137664 -0.0509078 0)
(-0.0137836 -0.0522175 0)
(-0.0138007 -0.0535273 0)
(-0.0138179 -0.054837 0)
(-0.013835 -0.0561467 0)
(-0.0138522 -0.0574565 0)
(-0.0138693 -0.0587662 0)
(-0.0138865 -0.0600759 0)
(-0.0139036 -0.0613856 0)
(-0.0139208 -0.0626954 0)
(-0.013938 -0.0640051 0)
(-0.0139551 -0.0653148 0)
(-0.0139723 -0.0666246 0)
(-0.0139894 -0.0679343 0)
(-0.0140066 -0.069244 0)
(-0.00910528 0.104915 0)
(-0.010415 0.104933 0)
(-0.0140154 -0.0699437 0)
(-0.0137028 -0.0461516 0)
(-0.0133991 -0.0228149 0)
(-0.0130896 0.000763739 0)
(-0.0127797 0.0243834 0)
(-0.0124712 0.0479419 0)
(-0.0121621 0.0715942 0)
(-0.0118532 0.0951007 0)
(-0.0126256 0.036195 0)
(-0.0129348 0.0125699 0)
(-0.0138606 -0.0581319 0)
(-0.0120084 0.0832851 0)
(-0.0135528 -0.0346023 0)
(-0.0132432 -0.0110254 0)
(-0.0123181 0.0596577 0)
(-0.00862263 0.104892 0)
(-0.000426198 0.00255138 0)
(-0.000258178 0.00460891 0)
(-0.00057197 0.00204228 0)
(-0.000768785 0.000393477 0)
(-0.000186621 0.00597405 0)
(-5.71679e-05 0.00739781 0)
(-0.000664605 -0.00117588 0)
(-0.0117625 0.101621 0)
(-0.000341843 0.00264491 0)
(-0.000252314 0.00342011 0)
(-0.000205042 0.00240657 0)
(-0.0120763 0.0781037 0)
(-0.0133128 -0.0163053 0)
(-0.012249 0.0649797 0)
(-0.0136204 -0.0397945 0)
(-0.0127112 0.0296374 0)
(-0.0125385 0.0428011 0)
(-0.0128654 0.0178635 0)
(-0.0130206 0.00601306 0)
(-0.0137758 -0.051572 0)
(-0.0119205 0.0899068 0)
(-0.0134662 -0.0280186 0)
(-0.0131572 -0.00444106 0)
(-0.0139296 -0.0634642 0)
(-0.0124024 0.0532033 0)
(-0.000243769 0.00217663 0)
(-0.000239114 0.00541288 0)
(-0.000550121 0.00264719 0)
(-0.00057622 0.00104522 0)
(-0.000132962 0.00142352 0)
(-0.00016309 0.0015649 0)
(-8.84919e-05 0.000888214 0)
(-0.000148113 0.00654641 0)
(8.36173e-06 0.00676788 0)
(-0.00026199 0.00411779 0)
(-0.000585822 0.00161089 0)
(-0.000648372 -0.000560201 0)
(-0.000403706 0.00270933 0)
(-0.000231056 0.00289568 0)
(-0.00031845 0.00266552 0)
(-0.000172209 0.00191749 0)
(-9.12792e-05 0.000951253 0)
(-4.21709e-05 0.000432179 0)
(-0.000167391 0.00621784 0)
(-0.000343031 0.0117442 0)
(-0.000380112 0.0113657 0)
(-0.000526056 0.0166845 0)
(-0.00057798 0.0161877 0)
(-0.000715112 0.0210883 0)
(-0.000777489 0.0204858 0)
(-0.000911873 0.0251049 0)
(-0.000978937 0.0243747 0)
(-0.00111377 0.0286621 0)
(-0.00118211 0.0277957 0)
(-0.00131615 0.0317137 0)
(-0.00138603 0.0307297 0)
(-0.00151874 0.034412 0)
(-0.00159057 0.0333117 0)
(-0.001723 0.0367975 0)
(-0.00164248 0.0379672 0)
(-0.00184605 0.0401447 0)
(-0.00175501 0.0413344 0)
(-0.00195932 0.0433285 0)
(-0.00185685 0.0445116 0)
(-0.00206368 0.0463508 0)
(-0.00195007 0.0475316 0)
(-0.00215873 0.0492187 0)
(-0.00203679 0.0504436 0)
(-0.00224742 0.0519344 0)
(-0.00212725 0.0531851 0)
(-0.00233231 0.0545082 0)
(-0.00220377 0.0557082 0)
(-0.00240888 0.0569305 0)
(-0.0022689 0.0581117 0)
(-0.00248025 0.0592324 0)
(-0.00233167 0.060366 0)
(-0.00254476 0.0614484 0)
(-0.0023838 0.0625166 0)
(-0.00260202 0.0635314 0)
(-0.00243352 0.0645956 0)
(-0.00265833 0.0654976 0)
(-0.00248164 0.0665572 0)
(-0.00271353 0.067362 0)
(-0.00253062 0.0684189 0)
(-0.00277062 0.0691468 0)
(-0.00258056 0.0702111 0)
(-0.00294684 0.0680403 0)
(-0.00301389 0.0697429 0)
(-0.0031837 0.0685889 0)
(-0.0032592 0.0702193 0)
(-0.00342361 0.0690163 0)
(-0.00350786 0.0705853 0)
(-0.00366792 0.0693251 0)
(-0.00376528 0.0708393 0)
(-0.00391396 0.0695105 0)
(-0.00402264 0.0708943 0)
(-0.00415829 0.0696065 0)
(-0.00427147 0.0708671 0)
(-0.00440335 0.0695667 0)
(-0.00452704 0.0708585 0)
(-0.00464939 0.0693909 0)
(-0.00478894 0.0706814 0)
(-0.00489764 0.0691235 0)
(-0.00504707 0.0703225 0)
(-0.00390277 0.0723895 0)
(-0.00514461 0.0687205 0)
(-0.00530099 0.0698496 0)
(-0.00538759 0.0681828 0)
(-0.00555132 0.0692476 0)
(-0.00562815 0.0675206 0)
(-0.00580036 0.06852 0)
(-0.00586474 0.0667328 0)
(-0.00604417 0.0676353 0)
(-0.00569949 0.0657363 0)
(-0.00609269 0.0658442 0)
(-0.0062764 0.0665998 0)
(-0.00630924 0.0647976 0)
(-0.00650286 0.0654329 0)
(-0.00651898 0.0635689 0)
(-0.00671905 0.0640629 0)
(-0.00672465 0.0622099 0)
(-0.00692349 0.0626376 0)
(-0.00692407 0.0607093 0)
(-0.00712829 0.0610694 0)
(-0.00711343 0.0590525 0)
(-0.00732576 0.0592712 0)
(-0.00690509 0.0588359 0)
(-0.00520054 0.0714477 0)
(-0.00729226 0.0572454 0)
(-0.00750858 0.05732 0)
(-0.00746223 0.0553023 0)
(-0.00767735 0.0552312 0)
(-0.00772996 0.0571606 0)
(-0.00789366 0.0550433 0)
(-0.00783937 0.0530401 0)
(-0.00805226 0.0527685 0)
(-0.00811194 0.0547507 0)
(-0.00826692 0.0523456 0)
(-0.00820033 0.0503572 0)
(-0.0084119 0.0498082 0)
(-0.00848266 0.0517835 0)
(-0.00862483 0.049114 0)
(-0.00854681 0.0471505 0)
(-0.00875863 0.046301 0)
(-0.00867384 0.0443585 0)
(-0.00888519 0.0433431 0)
(-0.00896743 0.0453192 0)
(-0.00909444 0.0422438 0)
(-0.00900684 0.0402168 0)
(-0.00921369 0.0389775 0)
(-0.00932681 0.0411631 0)
(-0.00941898 0.0375281 0)
(-0.0093235 0.0355751 0)
(-0.00951347 0.034107 0)
(-0.00963015 0.0357811 0)
(-0.00970611 0.032208 0)
(-0.00957959 0.030469 0)
(-0.0097835 0.0287912 0)
(-0.00989852 0.030228 0)
(-0.00997129 0.0268167 0)
(-0.00985295 0.0253428 0)
(-0.0100326 0.0232685 0)
(-0.00990603 0.0219237 0)
(-0.0100818 0.0197269 0)
(-0.0102104 0.0209823 0)
(-0.0102531 0.0173761 0)
(-0.01012 0.0161986 0)
(-0.0102859 0.01375 0)
(-0.0101482 0.0126744 0)
(-0.0103084 0.010148 0)
(-0.0104465 0.0111657 0)
(-0.0104621 0.00749659 0)
(-0.0103194 0.00664051 0)
(-0.0104662 0.00395338 0)
(-0.010609 0.00471797 0)
(-0.0106061 0.00113311 0)
(-0.0104601 0.0004875 0)
(-0.0105934 -0.00235933 0)
(-0.0104445 -0.00290461 0)
(-0.0105717 -0.00575178 0)
(-0.010719 -0.00532912 0)
(-0.0106904 -0.00869794 0)
(-0.0105414 -0.0090155 0)
(-0.0106526 -0.0119633 0)
(-0.0108017 -0.0117189 0)
(-0.0107572 -0.0150331 0)
(-0.0106044 -0.0151365 0)
(-0.010702 -0.0182336 0)
(-0.0105456 -0.018173 0)
(-0.0106356 -0.0212133 0)
(-0.0104775 -0.0210608 0)
(-0.0105601 -0.0240241 0)
(-0.0107166 -0.0242808 0)
(-0.010634 -0.0270073 0)
(-0.0104772 -0.026714 0)
(-0.0105448 -0.0296248 0)
(-0.0106997 -0.0299772 0)
(-0.0106039 -0.0325388 0)
(-0.0104479 -0.0321306 0)
(-0.0104992 -0.0349968 0)
(-0.0103433 -0.0345059 0)
(-0.0103868 -0.0373347 0)
(-0.00205234 0.042086 0)
(-0.00646103 0.0673117 0)
(-0.00233383 0.0694166 0)
(-0.00237024 0.0712022 0)
(-0.00212261 0.0703531 0)
(-0.00214926 0.0721579 0)
(-0.00190166 0.0712373 0)
(-0.00449012 0.0680974 0)
(0.00010408 0.0948895 0)
(-8.72366e-05 0.0955738 0)
(-0.000470781 0.0949842 0)
(-0.000716782 0.0956336 0)
(-0.00105865 0.0949776 0)
(-0.00134132 0.0956106 0)
(-0.00164875 0.0948887 0)
(-0.00195989 0.0955077 0)
(-0.00205114 0.0568869 0)
(-0.00221658 0.0947318 0)
(-0.00255803 0.0953006 0)
(0.000187351 0.094224 0)
(-0.0027595 0.0944883 0)
(-0.0031181 0.0949915 0)
(-0.00164028 0.0962386 0)
(-0.00327533 0.094154 0)
(-0.00364217 0.0946094 0)
(-0.00244272 0.0939392 0)
(-0.00375961 0.0937373 0)
(-0.0041279 0.0941456 0)
(-0.00403434 0.0950168 0)
(-0.00451819 0.0945013 0)
(-0.00457751 0.0935966 0)
(-0.00496617 0.0938919 0)
(-0.00499224 0.0929544 0)
(-0.00537423 0.0931869 0)
(-0.00536939 0.0941312 0)
(-0.00576443 0.093366 0)
(-0.00245734 0.0532668 0)
(-0.0057803 0.0943166 0)
(-0.00616025 0.093484 0)
(-0.00611975 0.0925116 0)
(-0.00650244 0.0925451 0)
(-0.00656449 0.093516 0)
(-0.00689065 0.0924886 0)
(-0.00680612 0.0915123 0)
(-0.00717359 0.0913784 0)
(-0.00727987 0.0923389 0)
(-0.0075362 0.0911512 0)
(-0.00766066 0.0920905 0)
(-0.00789163 0.0908108 0)
(-0.00776445 0.0898755 0)
(-0.00809945 0.089442 0)
(-0.00823472 0.0903424 0)
(-0.00842023 0.0888927 0)
(-0.00856407 0.0897506 0)
(-0.00871947 0.0882623 0)
(-0.00887779 0.08901 0)
(-0.0089998 0.087472 0)
(-0.00916937 0.0881228 0)
(-0.00927004 0.0864613 0)
(-0.00944293 0.0870677 0)
(-0.00953047 0.0852592 0)
(-0.00969923 0.0858143 0)
(-0.00977141 0.0839169 0)
(-0.009935 0.084403 0)
(-0.00999042 0.082472 0)
(-0.0101526 0.0828209 0)
(-0.0101963 0.0808445 0)
(-0.0103572 0.0810115 0)
(-0.0103918 0.0790118 0)
(-0.0105495 0.0790422 0)
(-0.0105765 0.0770159 0)
(-0.0107302 0.0769023 0)
(-0.0107476 0.0749195 0)
(-0.0108945 0.0746165 0)
(-0.0109013 0.0726551 0)
(-0.0110421 0.0722346 0)
(-0.0110454 0.0702228 0)
(-0.0111778 0.0697022 0)
(-0.0111779 0.067683 0)
(-0.0113041 0.0670315 0)
(-0.0112998 0.0650032 0)
(-0.0114204 0.0642873 0)
(-0.0114153 0.0622493 0)
(-0.0115281 0.0614807 0)
(-0.0115212 0.0594385 0)
(-0.0116289 0.0585839 0)
(-0.0116205 0.0565308 0)
(-0.0117228 0.0556319 0)
(-0.0117126 0.0535893 0)
(-0.0118094 0.0526401 0)
(-0.0117991 0.0506556 0)
(-0.01189 0.0495947 0)
(-0.0118788 0.0476864 0)
(-0.0119664 0.0464886 0)
(-0.0119528 0.0446419 0)
(-0.0120394 0.0433337 0)
(-0.0120252 0.0415096 0)
(-0.0121085 0.0401648 0)
(-0.0120941 0.0383566 0)
(-0.0121742 0.036977 0)
(-0.0121594 0.0352188 0)
(-0.0122362 0.0337762 0)
(-0.0122214 0.03203 0)
(-0.0122949 0.030587 0)
(-0.01228 0.028843 0)
(-0.0123507 0.027404 0)
(-0.0123351 0.0256861 0)
(-0.0124046 0.0241921 0)
(-0.0123875 0.0225358 0)
(-0.0124571 0.0209558 0)
(-0.0124384 0.0193637 0)
(-0.0125076 0.0177569 0)
(-0.0124871 0.0161858 0)
(-0.0125542 0.0145802 0)
(-0.0125334 0.0130269 0)
(-0.0125988 0.011325 0)
(-0.0125771 0.00982491 0)
(-0.012641 0.00807113 0)
(-0.0126179 0.00663563 0)
(-0.0126803 0.00486641 0)
(-0.0126563 0.00346909 0)
(-0.0127188 0.00164679 0)
(-0.0126906 0.000269139 0)
(-0.0127554 -0.00160051 0)
(-0.0127258 -0.00299664 0)
(-0.0127907 -0.00484984 0)
(-0.0127618 -0.00621088 0)
(-0.012824 -0.00809279 0)
(-0.0127931 -0.0093571 0)
(-0.0128537 -0.0112986 0)
(-0.0128204 -0.0125088 0)
(-0.0128809 -0.014486 0)
(-0.012845 -0.0156494 0)
(-0.0129053 -0.0176497 0)
(-0.0128672 -0.0187936 0)
(-0.0129276 -0.0208175 0)
(-0.0128875 -0.0219128 0)
(-0.0129455 -0.0239594 0)
(-0.0129016 -0.0249541 0)
(-0.0129584 -0.027019 0)
(-0.0129125 -0.0279853 0)
(-0.0129685 -0.0300454 0)
(-0.0129199 -0.0309625 0)
(-0.0129744 -0.0330539 0)
(-0.0129199 -0.0338861 0)
(-0.0129755 -0.0360372 0)
(-0.0129154 -0.0368312 0)
(-0.0129718 -0.0390031 0)
(-0.012906 -0.039732 0)
(-0.012961 -0.0419074 0)
(-0.0128922 -0.0425614 0)
(-0.0129444 -0.0447262 0)
(-0.0128735 -0.0453201 0)
(-0.012923 -0.0475047 0)
(-0.0128464 -0.0479523 0)
(-0.012894 -0.0501955 0)
(-0.0128112 -0.0505283 0)
(-0.0128579 -0.0527695 0)
(-0.0127698 -0.0530634 0)
(-0.012814 -0.0552694 0)
(-0.0129045 -0.0549498 0)
(-0.0128577 -0.0574256 0)
(-0.0127622 -0.0576917 0)
(-0.0128028 -0.0598449 0)
(-0.0130319 -0.0414378 0)
(-0.0129997 -0.0261185 0)
(-0.0129117 -0.0132926 0)
(-0.0127759 -0.000141339 0)
(-0.0126179 0.0129607 0)
(-0.0124173 0.0258877 0)
(-0.0123663 0.020908 0)
(-0.0120796 0.0364826 0)
(-0.0117127 0.0512316 0)
(-0.0111626 0.065785 0)
(-0.0104291 0.0770283 0)
(-0.0121883 0.0386707 0)
(-0.012696 -0.00466742 0)
(-0.0128588 -0.0346175 0)
(-0.0128291 -0.0200844 0)
(-0.00935576 0.0847092 0)
(-0.0118997 0.0516169 0)
(-0.0127671 -0.0480572 0)
(-0.0079886 0.0885144 0)
(-0.0115303 0.0635736 0)
(-0.011047 0.0742001 0)
(-0.00190854 0.0730426 0)
(-0.00167475 0.0720396 0)
(-0.0125469 0.00869881 0)
(-0.0103103 0.0830358 0)
(-0.00905822 0.0896644 0)
(-0.00164648 0.0738044 0)
(-0.00139717 0.0725474 0)
(-0.00137324 0.0745072 0)
(-0.00113173 0.0734298 0)
(-0.00110074 0.0751898 0)
(-0.000858167 0.074026 0)
(-0.000902677 0.07224 0)
(-0.00063356 0.0726448 0)
(-0.000699574 0.0708205 0)
(-0.000424672 0.071194 0)
(-0.000515401 0.0691547 0)
(-0.000222817 0.0695991 0)
(-0.000523532 0.0745283 0)
(-0.00161294 0.0754589 0)
(-0.000329421 0.0674316 0)
(-4.10738e-05 0.0678482 0)
(-0.000148423 0.0656399 0)
(0.000127879 0.0659879 0)
(0.000257357 0.0681639 0)
(0.000411977 0.0662341 0)
(0.000559797 0.0683688 0)
(0.00029188 0.0639544 0)
(-0.000829593 0.0258174 0)
(-0.00205063 0.102313 0)
(-0.00193406 0.101895 0)
(-0.00291964 0.10198 0)
(-0.00310252 0.102405 0)
(-0.00388136 0.102026 0)
(-0.00414803 0.102456 0)
(-0.00480495 0.102019 0)
(-0.00516519 0.102439 0)
(-0.00567251 0.101969 0)
(-0.00610893 0.102354 0)
(-0.00647665 0.101868 0)
(-0.00694594 0.1022 0)
(-0.00719851 0.101665 0)
(-0.00767305 0.101954 0)
(-0.00782875 0.101368 0)
(-0.0082943 0.101609 0)
(-0.00451999 0.101565 0)
(-0.00836044 0.100961 0)
(-0.00880811 0.101152 0)
(-0.00740363 0.101092 0)
(-0.00357926 0.067767 0)
(-0.00879821 0.100433 0)
(-0.00922028 0.100549 0)
(-0.00710731 0.0634814 0)
(-0.00182017 0.0486105 0)
(-0.00915752 0.0997837 0)
(-0.00954121 0.0998042 0)
(-0.00560347 0.102791 0)
(-0.00712944 -0.0201255 0)
(-0.00742492 -0.0208512 0)
(-0.0072763 -0.018252 0)
(-0.00697648 -0.0176565 0)
(-0.00712 -0.0157699 0)
(-0.00741588 -0.0162313 0)
(-0.00725375 -0.0137455 0)
(-0.00754325 -0.0140893 0)
(-0.0073755 -0.011567 0)
(-0.00707878 -0.011337 0)
(-0.0071957 -0.00914558 0)
(-0.00748535 -0.00922566 0)
(-0.00730294 -0.00680379 0)
(-0.00700315 -0.00685675 0)
(-0.00710674 -0.00453231 0)
(-0.0074001 -0.00433233 0)
(-0.0071986 -0.00209403 0)
(-0.00748542 -0.00176785 0)
(-0.00727836 0.000434135 0)
(-0.00698718 4.19153e-06 0)
(-0.00706106 0.00250846 0)
(-0.00734809 0.00302189 0)
(-0.00712527 0.00507801 0)
(-0.00683394 0.00441833 0)
(-0.00689369 0.00695004 0)
(-0.00718432 0.00770802 0)
(-0.00694529 0.00957036 0)
(-0.00665614 0.00862019 0)
(-0.00670038 0.0111584 0)
(-0.00697776 0.0123096 0)
(-0.00673142 0.0137517 0)
(-0.00645425 0.0125582 0)
(-0.00648403 0.0150395 0)
(-0.00674828 0.016359 0)
(-0.00649988 0.0175289 0)
(-0.00675273 0.0189573 0)
(-0.00650583 0.0200178 0)
(-0.00624837 0.0185312 0)
(-0.0062549 0.0208951 0)
(-0.00651112 0.0225899 0)
(-0.00625229 0.0233014 0)
(-0.00600074 0.021593 0)
(-0.00599032 0.023792 0)
(-0.00621235 0.0255621 0)
(-0.00596301 0.0259487 0)
(-0.00573288 0.0241747 0)
(-0.00571026 0.0262237 0)
(-0.00592687 0.028069 0)
(-0.00567572 0.0282155 0)
(-0.00588071 0.0301243 0)
(-0.00562893 0.0301457 0)
(-0.00542123 0.0281999 0)
(-0.00537544 0.0300197 0)
(-0.00556893 0.0320182 0)
(-0.00531698 0.0317686 0)
(-0.00549629 0.0338155 0)
(-0.00524684 0.0334332 0)
(-0.00540975 0.0354758 0)
(-0.00516165 0.0349642 0)
(-0.00530051 0.0369273 0)
(-0.00505725 0.0363572 0)
(-0.0049128 0.0342973 0)
(-0.0048169 0.035609 0)
(-0.00494785 0.0377008 0)
(-0.00470917 0.0368017 0)
(-0.00482689 0.0388828 0)
(-0.0045907 0.0378723 0)
(-0.00469858 0.0399733 0)
(-0.00446525 0.0388372 0)
(-0.0045631 0.0409946 0)
(-0.00432791 0.0396582 0)
(-0.00422957 0.0375262 0)
(-0.00409371 0.0381984 0)
(-0.00399327 0.0360903 0)
(-0.00385843 0.0366302 0)
(-0.0037554 0.034535 0)
(-0.00362304 0.03496 0)
(-0.00351625 0.032853 0)
(-0.00338805 0.0331918 0)
(-0.0051614 0.0280499 0)
(-0.00441368 0.0418164 0)
(-0.00327551 0.0310881 0)
(-0.00315199 0.0313241 0)
(-0.00339893 0.0306057 0)
(-0.00303716 0.0292684 0)
(-0.00291795 0.0293726 0)
(-0.00301924 0.0313791 0)
(-0.00280192 0.0273675 0)
(-0.00278872 0.0292967 0)
(-0.00287867 0.0312728 0)
(-0.0056485 0.0358122 0)
(-0.00481579 0.0422246 0)
(-0.002649 0.0290164 0)
(-0.0027239 0.0309092 0)
(-0.0107576 -0.0329257 0)
(-0.0109058 -0.0147954 0)
(-0.0103869 -0.0181082 0)
(-0.0101858 -0.033978 0)
(-0.0136676 -0.0667354 0)
(-0.0137101 -0.0662347 0)
(-0.0136735 -0.0646767 0)
(-0.01371 -0.0640913 0)
(-0.013674 -0.0626211 0)
(-0.013706 -0.0619506 0)
(-0.0136697 -0.0604863 0)
(-0.0136985 -0.0597738 0)
(-0.0136629 -0.0582921 0)
(-0.0136882 -0.0575616 0)
(-0.0136533 -0.0560682 0)
(-0.0136751 -0.0553049 0)
(-0.0136412 -0.0538323 0)
(-0.0136599 -0.0530422 0)
(-0.0136273 -0.051599 0)
(-0.0136432 -0.0508132 0)
(-0.0136113 -0.0493693 0)
(-0.013625 -0.0485721 0)
(-0.0135937 -0.04713 0)
(-0.0136054 -0.0463146 0)
(-0.0135748 -0.0448908 0)
(-0.0135848 -0.0440789 0)
(-0.0135547 -0.0426569 0)
(-0.0135628 -0.0418448 0)
(-0.0135334 -0.0404233 0)
(-0.0135399 -0.0395962 0)
(-0.013511 -0.0381612 0)
(-0.0135159 -0.037294 0)
(-0.0134877 -0.0358786 0)
(-0.0134909 -0.0349723 0)
(-0.0134645 -0.0336527 0)
(-0.0134662 -0.0327459 0)
(-0.0134405 -0.0314487 0)
(-0.0134416 -0.0305541 0)
(-0.0134158 -0.029232 0)
(-0.0134163 -0.0283459 0)
(-0.0133911 -0.0270418 0)
(-0.0133903 -0.0261081 0)
(-0.0133653 -0.0248187 0)
(-0.0133635 -0.0238437 0)
(-0.0133384 -0.0225335 0)
(-0.0133365 -0.0215911 0)
(-0.0133107 -0.0202308 0)
(-0.0133093 -0.0193405 0)
(-0.0132835 -0.0179319 0)
(-0.0132817 -0.0170725 0)
(-0.0132579 -0.0157247 0)
(-0.0132543 -0.0148161 0)
(-0.0132318 -0.0135641 0)
(-0.0132269 -0.0125931 0)
(-0.0132044 -0.0113539 0)
(-0.0131989 -0.0103466 0)
(-0.013176 -0.00907631 0)
(-0.0131706 -0.00809426 0)
(-0.0131477 -0.00681416 0)
(-0.0131424 -0.00584765 0)
(-0.0131194 -0.00456549 0)
(-0.0131139 -0.00359561 0)
(-0.0130909 -0.00231297 0)
(-0.0130857 -0.0013752 0)
(-0.0130627 -9.53603e-05 0)
(-0.0130578 0.000806988 0)
(-0.0130348 0.00209147 0)
(-0.0130295 0.00301512 0)
(-0.0130068 0.00427844 0)
(-0.0130005 0.00526198 0)
(-0.0129785 0.00648032 0)
(-0.0129719 0.00747125 0)
(-0.0129501 0.00865447 0)
(-0.0129436 0.00965823 0)
(-0.0129214 0.01085 0)
(-0.0129149 0.0118624 0)
(-0.0128921 0.013077 0)
(-0.0128863 0.0140498 0)
(-0.0128634 0.0152772 0)
(-0.0128576 0.0162459 0)
(-0.0128354 0.0174415 0)
(-0.0128288 0.0184364 0)
(-0.0128074 0.0195919 0)
(-0.0128001 0.0206226 0)
(-0.0127785 0.0217905 0)
(-0.012771 0.0228356 0)
(-0.0127486 0.0240396 0)
(-0.0127416 0.0250567 0)
(-0.0127188 0.0262578 0)
(-0.0127124 0.0272499 0)
(-0.0126892 0.0284634 0)
(-0.0126831 0.0294415 0)
(-0.0126593 0.0306884 0)
(-0.0126534 0.0316559 0)
(-0.0126304 0.0328472 0)
(-0.0126242 0.0338264 0)
(-0.0126022 0.0349315 0)
(-0.0137224 -0.0590655 0)
(-0.0125959 0.0359275 0)
(-0.012573 0.037048 0)
(-0.012567 0.0380597 0)
(-0.0125429 0.0392211 0)
(-0.0125373 0.0402405 0)
(-0.0125125 0.0414016 0)
(-0.0136352 -0.0477295 0)
(-0.0125071 0.0424308 0)
(-0.0124817 0.0436055 0)
(-0.0124767 0.0446141 0)
(-0.0124506 0.0458061 0)
(-0.0124461 0.0468127 0)
(-0.0124196 0.0479866 0)
(-0.0135189 -0.0363196 0)
(-0.012415 0.0490162 0)
(-0.0123888 0.0501494 0)
(-0.0123834 0.0512364 0)
(-0.0123572 0.0523151 0)
(-0.0123521 0.0534163 0)
(-0.0123256 0.0544441 0)
(-0.013416 -0.02751 0)
(-0.0123215 0.0555389 0)
(-0.0122939 0.056562 0)
(-0.012291 0.0576474 0)
(-0.0122615 0.0586782 0)
(-0.0133043 -0.0183588 0)
(-0.0122599 0.0597471 0)
(-0.0122281 0.0607941 0)
(-0.012228 0.061839 0)
(-0.0121943 0.0629135 0)
(-0.0121955 0.0639447 0)
(-0.0121606 0.0650267 0)
(-0.0131653 -0.00717498 0)
(-0.0121615 0.0661071 0)
(-0.0121257 0.0671443 0)
(-0.0121264 0.0682657 0)
(-0.0120897 0.0692241 0)
(-0.0120922 0.0703129 0)
(-0.012053 0.0712645 0)
(-0.0135044 -0.0390092 0)
(-0.013182 -0.0101628 0)
(-0.0136257 -0.0568856 0)
(-0.0126323 0.0321113 0)
(-0.0128137 0.018584 0)
(-0.0130084 0.00355965 0)
(-0.0130222 0.00407185 0)
(-0.0133398 -0.0236045 0)
(-0.0120572 0.0723556 0)
(-0.0120145 0.0733125 0)
(-0.0124218 0.0470169 0)
(-0.0120194 0.0744387 0)
(-0.0119739 0.0753444 0)
(-0.0119791 0.0765169 0)
(-0.0119302 0.0773741 0)
(-0.0122279 0.0596411 0)
(-0.01197 0.0741904 0)
(-0.0129079 0.0128244 0)
(-0.0119371 0.0785775 0)
(-0.0118828 0.079403 0)
(-0.0135777 -0.0479077 0)
(-0.0136307 -0.0649687 0)
(-0.012792 0.0216284 0)
(-0.0118916 0.0806496 0)
(-0.0118305 0.0814369 0)
(-0.0118396 0.0827041 0)
(-0.0117724 0.0834665 0)
(-0.012705 0.0282504 0)
(-0.0117838 0.084702 0)
(-0.0117079 0.0854713 0)
(-0.012618 0.0347699 0)
(-0.0117585 0.0821578 0)
(-0.0117243 0.0867316 0)
(-0.0116357 0.087426 0)
(-0.0125326 0.0411911 0)
(-0.011654 0.0887565 0)
(-0.0115506 0.0893446 0)
(-0.0124404 0.0478781 0)
(-0.0115707 0.0906849 0)
(-0.0123168 0.0566217 0)
(-0.0122262 0.0628675 0)
(-0.0024985 0.0285098 0)
(-0.00242498 0.0267414 0)
(-0.00630119 0.0631003 0)
(-0.013412 -0.030119 0)
(-0.00255453 0.0302351 0)
(-0.00277938 0.0327761 0)
(-0.0132554 -0.0162387 0)
(-0.0121262 0.0693578 0)
(-0.0130953 -0.00326169 0)
(-0.0128977 0.0120084 0)
(-0.012725 0.0252494 0)
(-0.0125503 0.0380257 0)
(-0.0121202 0.0661545 0)
(-0.0123314 0.0531477 0)
(-0.00945596 0.0989961 0)
(-0.00908973 0.0990048 0)
(-0.0117863 -0.0494873 0)
(-0.0117414 -0.0469038 0)
(-0.0118672 -0.0468631 0)
(-0.0118177 -0.0442276 0)
(-0.0119388 -0.0441261 0)
(-0.0118862 -0.0415128 0)
(-0.0120021 -0.0412831 0)
(-0.0119397 -0.0387129 0)
(-0.0120539 -0.0382097 0)
(-0.0119791 -0.0356349 0)
(-0.012094 -0.0350228 0)
(-0.0120167 -0.0324445 0)
(-0.0121268 -0.0318218 0)
(-0.0120515 -0.0292558 0)
(-0.0121521 -0.028562 0)
(-0.0120777 -0.0261001 0)
(-0.0121686 -0.0252176 0)
(-0.0120889 -0.0228372 0)
(-0.0121763 -0.0217724 0)
(-0.0120882 -0.01939 0)
(-0.0121724 -0.0182257 0)
(-0.0120842 -0.0159176 0)
(-0.0121624 -0.014606 0)
(-0.0120737 -0.0124224 0)
(-0.0121506 -0.0110288 0)
(-0.0120564 -0.00888365 0)
(-0.0121317 -0.00747623 0)
(-0.0120327 -0.00526741 0)
(-0.0119563 -0.00673502 0)
(-0.0119299 -0.00311876 0)
(-0.0120024 -0.0015794 0)
(-0.011899 0.000532841 0)
(-0.0119658 0.00214338 0)
(-0.0118596 0.00418833 0)
(-0.0119222 0.00585763 0)
(-0.0118087 0.00785422 0)
(-0.0118716 0.00959793 0)
(-0.0117539 0.0115786 0)
(-0.0118146 0.0133529 0)
(-0.0116978 0.0152461 0)
(-0.0117506 0.0170983 0)
(-0.0116289 0.0188534 0)
(-0.0116788 0.0208568 0)
(-0.0115527 0.0225402 0)
(-0.0116009 0.0245845 0)
(-0.0114774 0.0261734 0)
(-0.0115174 0.0282374 0)
(-0.0113897 0.0296535 0)
(-0.0114259 0.0318369 0)
(-0.0112893 0.0331722 0)
(-0.0113262 0.0353939 0)
(-0.0111887 0.0366593 0)
(-0.0112194 0.0388946 0)
(-0.0110807 0.0400277 0)
(-0.0111053 0.0423252 0)
(-0.0109654 0.0433345 0)
(-0.0109825 0.0456747 0)
(-0.010839 0.0465235 0)
(-0.0108507 0.0488985 0)
(-0.0106988 0.0495926 0)
(-0.0107107 0.0519806 0)
(-0.0105529 0.0525997 0)
(-0.0105402 0.0502874 0)
(-0.0103926 0.0531335 0)
(-0.0103983 0.0555032 0)
(-0.0102344 0.055937 0)
(-0.0102317 0.0583357 0)
(-0.0100652 0.0586132 0)
(-0.0100527 0.0610542 0)
(-0.00988617 0.061147 0)
(-0.00986429 0.0635908 0)
(-0.00969832 0.0635208 0)
(-0.00966814 0.0659225 0)
(-0.00950331 0.0657057 0)
(-0.0094641 0.0680571 0)