/*--------------------------------*- C++ -*----------------------------------*\
| =========                 |                                                 |
| \\      /  F ield         | OpenFOAM: The Open Source CFD Toolbox           |
|  \\    /   O peration     | Version:  v2012                                 |
|   \\  /    A nd           | Website:  www.openfoam.com                      |
|    \\/     M anipulation  |                                                 |
\*---------------------------------------------------------------------------*/
FoamFile
{
    version     2.0;
    format      ascii;
    class       volScalarField;
    location    "750";
    object      omega;
}
// * * * * * * * * * * * * * * * * * * * * * * * * * * * * * * * * * * * * * //

dimensions      [0 0 -1 0 0 0 0];


internalField   nonuniform List<scalar> 
13917
(
0.0325625
0.0220131
4.43642
0.0223554
0.022115
0.444424
4.39236
4.48802
5.7598
0.0479695
0.0863456
0.0410022
0.0223857
15.7467
0.0252453
0.0241882
0.0221207
0.0353913
0.0402866
0.022111
0.0222664
4.37543
0.0220883
4.25417
0.022012
4.12314
0.0416437
0.0525013
0.525064
0.0619262
0.0334537
0.0251413
0.0354378
0.0260699
0.0220369
0.200274
0.0220973
4.19073
0.0230517
6.14385
0.0218766
0.0222856
0.0215744
0.0776501
0.0218589
0.0275801
0.0347104
0.0431776
2.64716
0.0220168
0.0237294
0.0224198
3.98273
0.0263611
0.022139
0.0239132
0.0854919
0.02201
0.0232068
0.0218406
7.7329
0.0220118
22.9229
0.0220993
0.415755
3.17929
0.0221179
0.0220779
0.0893409
0.0311754
0.0221222
5.44011
5.01083
0.0220169
2.81298
0.047586
5.81531
0.0221459
3.86395
0.0222359
0.0222033
0.0221244
0.37654
4.2439
9.09493
0.0220957
0.022178
2.54632
0.0236034
0.021565
4.79127
0.058065
0.0218057
0.0228507
2.94531
0.390082
0.0661605
0.040324
0.0774603
0.107845
0.0218054
0.0330639
0.0793219
0.0222865
0.0217687
5.51383
0.331143
0.0447367
0.0221179
0.0359763
6.08958
5.70776
0.0505063
5.55822
0.0230942
2.98779
0.0220029
1.57625
5.22797
0.0262458
0.0222734
0.0880965
4.69326
0.0495237
0.0219708
0.0227194
0.0218648
0.0219778
0.0216013
0.426241
3.77381
0.0230001
0.0218725
0.022274
0.299289
4.19126
0.0328871
0.111771
0.0221116
0.0261446
0.177841
0.0217127
0.022625
0.0946465
0.0220787
3.57599
0.550375
0.0223621
0.0216976
0.025583
0.0356531
3.05823
0.0507195
0.0366129
0.0242818
12.0047
0.0303114
0.212963
6.7892
0.294996
0.0241454
0.0426097
0.0222357
0.063538
0.0496493
0.0759738
0.0222757
0.0375841
0.0217828
0.0340046
0.0364968
6.86258
0.054675
0.0223527
1.50351
0.0400709
3.79658
1.90423
2.5702
0.0218732
0.0599205
0.0341105
0.0217056
0.0221686
0.028944
4.1213
0.160661
15.5151
0.0279206
0.0700755
0.190559
10.6178
0.159294
0.0221002
0.1193
0.0401831
0.0221581
0.0218109
0.168384
1.76918
0.0233721
0.0220326
0.0353011
0.0351423
5.16575
0.239009
0.0220387
0.0220237
0.0394416
4.2428
0.0225145
4.4423
6.55185
0.0702959
0.0217777
0.485054
0.0355582
6.49343
0.0219529
4.76648
0.0218733
0.0562103
0.0218757
4.35606
5.6236
0.0243531
0.823379
0.0244051
0.0217815
0.20065
0.0535466
0.0277194
4.13282
7.94693
0.0217634
0.0253967
4.92584
7.46956
0.0222277
0.0219408
5.07227
0.0731151
0.0222667
0.156895
0.056229
0.0416095
0.0299138
0.0222276
0.0403977
7.16483
0.0217149
0.0735349
0.135765
0.0218494
0.0220056
0.0421493
3.58966
0.0485064
0.0291637
0.0252888
0.0222712
6.66594
3.11848
0.186525
0.021791
5.21874
7.24281
0.212219
3.82394
0.0500487
0.0222138
0.0219292
0.0347052
4.49298
0.0655286
0.0230621
0.26661
0.0295607
0.0215965
0.616619
0.0220874
2.04943
0.0231974
0.022262
0.0256895
0.0364327
0.0430046
0.164821
0.0300808
0.0217845
0.181212
4.03442
4.94742
0.0219551
0.22968
0.0221794
0.02178
0.02201
0.824778
0.022105
0.0594065
0.0295393
0.0217723
0.0354339
0.0225207
2.46123
0.0391326
0.0541854
0.0217122
0.0219961
5.98096
5.6095
0.0219959
0.021904
0.497022
0.0218499
5.02477
0.0217132
4.42287
0.0218881
0.253757
0.0260768
3.01832
0.0238519
0.280724
0.268282
0.0256879
0.0727075
0.38018
0.0221784
3.94215
0.12498
5.96731
0.0249437
6.39708
0.025658
8.62358
0.230999
0.0888252
0.087723
4.54354
0.0222161
0.0373601
6.49092
0.0221694
0.0230261
6.50436
0.23068
0.0222709
0.153735
0.509496
0.0218506
5.86689
0.19252
0.0220806
0.0218768
0.0221869
0.0216915
0.176314
2.08326
0.70974
6.33555
0.0220109
0.0803525
7.04382
0.0294363
4.41971
4.46288
5.77576
0.021753
0.17486
0.0218554
3.25287
0.0218422
3.73974
0.0564352
0.0227703
0.0221979
0.0378879
0.0634762
0.0448182
10.6644
7.73368
8.48966
0.0420136
0.0460535
0.0219493
8.30399
4.2689
0.0220047
0.225397
0.0220444
0.145455
0.0218873
0.0222262
0.0225868
3.52815
0.0225746
3.35406
16.236
0.0780134
0.449201
0.0221626
0.409456
0.389354
0.022032
0.226354
0.0221456
0.0220291
0.062159
0.0222616
0.0220196
0.0218511
0.152593
0.0222472
5.514
3.69008
6.58662
0.1596
3.36776
6.4021
0.0292039
0.022017
0.090485
0.0229637
0.0260241
0.0220919
3.18462
4.29862
3.62948
0.0242223
0.0613617
0.0247099
0.0232227
0.0443693
0.0225322
0.17806
0.0220991
0.0220958
5.19758
3.75671
3.77565
0.0846473
7.68647
3.97722
6.29474
5.91538
0.0216292
0.0368469
0.022554
0.0220524
0.20631
0.0352845
0.0217873
0.0412691
0.0284895
5.77827
0.0220275
0.0642863
23.4699
0.372317
4.33435
0.0222547
0.0220131
0.0220585
0.0305845
0.0217553
3.98918
0.557702
0.0298066
10.531
0.0238584
0.0650031
6.7797
0.553319
0.0752995
0.186425
0.0641949
0.0412905
0.0852202
0.0294506
0.0883457
0.438697
0.0318817
0.0482907
0.0217759
0.26002
0.0240387
0.0215968
0.0295466
0.0221845
5.84433
5.56452
0.0218489
0.0216078
4.03426
7.92396
0.0222618
5.81814
0.0220997
0.124761
0.021862
5.3385
0.24383
0.0255518
0.0220233
3.3745
0.135971
7.52706
0.0222693
6.28222
2.54552
0.724131
0.0216038
7.6953
7.02258
0.0294317
0.0218692
0.0221419
0.0479092
0.160392
0.0217401
0.0218849
0.0219554
0.0219494
5.47528
0.208041
0.0291962
0.155432
0.0219435
0.0218135
0.0603051
6.91116
0.0268593
0.0217885
0.0220251
0.0220857
0.648513
11.4516
0.0221724
0.0220795
0.175725
0.0291969
0.0260776
0.0220134
0.0226653
0.0248291
0.047276
0.272536
0.160019
0.0914476
0.0566287
0.252481
0.0534708
0.0219666
6.0758
0.0220898
0.0231915
0.0226425
0.258534
0.0625286
0.0218158
0.364243
0.0679371
26.7417
0.0568029
0.0342659
0.029197
0.0221899
5.69961
0.263709
4.65683
0.022052
0.0250455
0.155203
4.5216
23.7815
0.0419392
0.0941072
0.0241235
0.022971
0.0220201
0.0499474
0.082623
0.0222442
0.0350717
0.134848
4.71741
7.02982
0.0231577
0.0630442
0.233289
0.0264452
0.0224139
3.77656
3.51552
4.19057
0.142658
0.0216138
5.74216
0.0467282
0.0218386
0.0263979
0.0451487
0.0339476
0.0606267
3.91029
0.0832075
0.027648
5.81155
0.0223435
6.96839
0.0222364
0.0221654
0.220414
3.59928
0.564742
0.022333
0.0222992
0.0220805
0.0299148
3.17211
0.0720589
0.023045
0.0709852
0.0371275
0.0218645
0.865852
0.0701571
0.1788
0.0219306
0.0809922
0.0221842
20.2269
0.0488716
0.0623695
0.0251953
0.0218743
0.021623
0.0218794
0.0946893
0.0280238
0.146028
7.2595
0.0371013
0.0218604
0.0816889
0.58662
0.206672
0.0217064
0.0271091
0.0218934
0.0243355
0.0232827
7.04295
0.0222279
1.4709
0.0242394
0.0862153
0.0594509
5.08065
0.0641659
0.0221139
4.69188
11.2819
0.0219688
0.0226107
0.24574
0.123654
0.0651874
0.0222376
0.0220386
0.201494
0.0228215
0.0443956
0.0405017
0.0216232
0.0351003
4.41029
0.0216936
0.0221251
0.0219756
5.41807
0.0222653
0.0239895
6.52536
0.0229924
3.2215
0.0243406
0.036128
0.0219679
0.043582
0.0220193
0.0409944
0.0218801
0.0665098
0.0221003
25.4161
2.91839
6.98065
0.0219863
0.0222064
0.0504787
0.0370002
4.95347
6.46374
0.0351459
0.0220395
0.148882
0.620254
0.178816
0.135335
0.0334892
3.78083
0.0326033
0.0288857
0.0794709
0.153376
0.0348131
0.998793
0.0347088
0.0223466
0.0471047
0.0257089
0.0216366
0.0242613
0.0357676
0.0253004
0.0220278
0.021914
0.0371586
0.022324
0.0451166
0.02204
0.0220597
0.0222732
0.0226286
0.0215256
0.0240588
0.0219962
5.43679
0.0404082
0.404293
0.0217806
0.0222465
0.0458526
0.041763
0.0228369
1.19258
0.0591097
0.815731
0.0242794
0.0682316
0.0219667
0.0222683
0.0219317
0.022547
8.21026
0.0222544
0.271
0.024217
6.77475
0.0439839
0.0595186
0.084985
0.0216528
0.0222909
0.0410708
0.0220709
0.0223198
0.581996
0.0224038
0.0221856
0.0245287
0.0219353
0.0216531
0.0252402
0.0290956
7.51302
0.0291348
0.021692
0.0218579
4.6635
0.0930861
0.0220933
0.0220475
0.836564
0.243425
8.37019
0.0341736
0.0223573
0.0217744
0.0216416
0.0324181
0.0295912
0.135253
0.0253052
3.979
0.0220585
0.0234012
8.97826
0.0220502
0.0240768
0.0219464
0.0220795
0.0352903
0.0439503
0.0220411
3.33636
4.2022
0.0596901
0.0219614
0.0215637
0.0689071
0.270796
0.0222612
0.222628
0.0215662
0.0336811
0.0216027
0.0216612
0.168893
0.0217846
1.18667
0.0308254
0.0222731
0.0216024
0.022115
0.0218808
0.0220915
4.22229
0.0216851
0.0216789
5.67997
4.56488
0.0281804
0.0362799
0.0426687
0.0231081
0.0217245
0.0279012
5.2673
0.0688305
0.0221304
0.0219998
6.3056
0.0274315
7.1258
0.022266
0.0229423
6.58432
0.0263056
0.0220678
8.58626
1.82735
0.0218787
0.0739185
0.0219289
0.0217749
0.0217671
5.23941
0.0215201
0.0216815
0.0217183
2.22646
0.0227975
0.123796
0.0662614
0.0216492
0.033011
0.0221726
6.56131
0.0219558
0.0216907
0.0221856
0.0712656
0.0221785
0.0831239
5.70856
3.97658
0.026653
0.185097
6.1974
0.0219878
6.79262
10.5414
5.98166
3.39675
5.68194
30.6839
0.0775286
0.0221576
3.86583
0.0263052
4.26487
0.0216042
0.0217987
0.0220998
0.0221657
0.0234072
0.0303936
4.75782
0.0217918
0.0220824
7.10573
0.197197
0.0221171
0.0391653
0.0252917
0.0218979
2.76257
0.0414247
0.023607
0.022771
5.68258
7.48161
1.32223
0.0215965
0.137339
0.0673954
6.17565
5.94069
0.0537674
0.0218548
0.0219954
0.0220604
0.0214989
0.0226732
0.0216244
0.0248783
0.0320954
11.1802
0.0716013
0.0216905
0.0666107
6.36945
0.0333074
0.0223294
6.55446
0.021766
0.0222633
0.0376743
12.8339
0.0221815
0.0219314
4.49946
0.149907
0.221397
0.0605407
0.19923
0.0219021
0.090993
0.0223522
0.0219917
0.0223626
4.05516
6.73553
0.0216663
0.0215971
0.0219565
0.24711
0.0225692
0.0250626
0.0220699
0.0222078
0.0894938
0.0216535
0.0412794
0.215927
3.75837
0.0218368
0.0661468
0.0232689
5.15239
6.13298
0.0220208
5.87255
0.0445301
1.42126
0.0221789
3.50177
0.0222482
0.0238501
0.0349831
0.0603984
4.15253
0.183175
0.0990871
3.84533
0.0218552
0.136242
0.0216543
0.025618
4.55796
0.022057
0.0222556
0.0223271
0.021896
10.0582
0.0216524
0.0220791
0.0356827
0.0352593
0.0331651
0.552097
0.0776142
8.22143
0.0415534
0.0271367
0.0285003
4.89778
0.0284785
2.84921
4.09263
0.0230941
0.0216493
3.22429
0.178709
0.0223608
0.0626309
0.0269505
0.0218714
0.0235455
0.0219085
0.0349094
0.022292
0.0329578
0.101264
0.0218635
0.0412308
0.0216956
0.0520655
0.0218748
0.0264196
0.0376421
0.0223832
0.0218136
0.0216736
1.97994
0.0571263
2.29663
0.0220158
0.0219676
0.0378208
0.0219488
0.0564813
0.0575027
0.0218722
0.0564847
0.0216879
2.88622
0.0223135
0.0274478
5.8651
0.13202
0.0219093
0.0230397
6.41766
0.0219932
0.0219054
6.40132
5.4122
0.0243353
0.0955609
0.0221016
0.0218098
4.05892
0.0224555
0.0216614
0.144957
0.0216906
0.233326
0.0221965
0.0216671
0.0221123
0.0789492
3.63574
0.0221254
0.0221931
0.0219039
0.0248651
0.0220763
0.900199
0.0395753
0.0222688
2.58763
0.0442908
0.142628
4.01294
3.85409
0.0216589
0.0222597
0.0219815
0.53449
0.0254043
3.68728
6.32433
0.0237901
4.52301
2.23655
0.0330706
0.0887384
0.0577362
0.372771
4.10784
0.0544705
0.477993
4.31424
0.0400648
0.0243425
4.75834
0.0524535
0.0216124
0.0223533
8.32654
0.0339335
0.021843
0.044849
0.0600333
0.0319865
4.63657
0.0230484
2.22749
0.0284834
0.176474
0.0695134
0.146166
0.0249469
0.0216866
0.0222949
4.22198
0.0219863
0.0239458
0.021742
0.0226646
0.0217828
0.0334408
0.0861221
1.90274
0.0426714
0.0619604
3.58628
0.263166
0.021767
0.243936
3.88986
0.0216868
0.021896
0.0256531
7.2621
0.022256
0.0442232
0.41545
0.0401595
0.0220779
0.0221972
0.0216918
0.0628275
0.0351968
0.021987
24.9993
3.81709
0.0385687
0.24173
0.0406463
1.04278
0.0229016
0.0232241
3.61354
0.248911
0.0543571
1.60806
0.0252868
0.0222759
0.0217471
0.0219994
0.0220388
0.0226766
0.0447137
0.0219201
0.0688327
0.0219349
0.0247961
0.0216442
0.0588954
0.0695971
0.366385
0.0219794
0.144876
0.0217482
3.35716
0.0220388
0.0259416
0.0221241
0.121003
5.14831
0.0825405
0.0219107
0.0717188
0.0219468
0.0260559
5.16016
0.0217683
0.0223766
0.0341277
0.0263833
4.47104
0.021921
0.0281068
0.0221804
0.0220361
0.0316385
0.0222459
0.0217366
0.0235439
6.5357
0.0231494
0.157114
3.87907
0.0349724
3.56706
0.023047
0.0217427
0.029158
6.8627
0.0222696
0.0327132
0.0291977
1.25018
0.0218671
8.54915
0.0419398
0.044383
0.0216767
0.021617
0.0965063
0.0224371
0.0222859
0.0336938
0.0216149
0.0242785
0.0251652
0.043237
0.321444
4.28376
0.0229649
0.0449548
0.354803
7.44228
0.027585
0.216045
7.29207
0.0287189
5.23383
0.0239483
8.03786
6.86658
0.0215898
0.0222619
0.0219465
0.0219886
0.0343274
0.0216396
0.0240977
0.054025
0.0224211
0.0333579
4.76551
0.0298153
0.022671
5.74193
0.0220715
5.75921
0.0226657
0.0502309
0.0218557
6.45451
6.5852
0.0219463
0.0220419
3.5883
0.0292476
7.34078
0.0220198
0.0216854
4.66574
0.0220561
0.0425621
19.0723
0.0220773
0.0370632
0.0256578
0.0216115
0.0218921
3.76994
6.32465
0.0219744
0.0224194
0.0220316
0.0244864
0.0379075
6.25654
0.022592
2.55824
0.210895
0.178667
0.259618
0.0220444
0.0724231
0.15226
0.0287214
0.0220638
0.0378734
4.60856
0.0232786
0.0433922
4.3539
3.5545
0.26705
0.0254968
0.0221776
0.0222484
0.0220869
7.64471
0.0355962
0.022504
0.0220894
0.0229398
0.0222695
0.0219406
0.0220628
0.0443787
0.0278677
2.24818
0.0444135
11.0731
3.29789
0.028631
0.0335944
0.0217981
0.0264144
7.49015
0.0219888
0.0229131
0.0336531
0.065381
0.0566752
3.57963
0.15367
0.0217723
4.20656
0.021583
0.0219165
0.0423446
0.0222736
0.0217096
0.0896314
1.8228
0.021694
3.75647
0.0219578
0.0216516
0.0228434
2.76634
0.0258119
0.0226555
8.85495
0.0223852
0.134656
3.38741
0.0222461
0.0454271
0.0220077
6.052
0.0446721
0.0220721
3.91944
0.0354082
0.0735493
0.0222781
6.76296
0.0285419
0.471292
0.0221024
0.0643698
6.13645
0.0216723
1.36112
0.0221037
0.0421021
0.0503412
0.0222453
6.62416
0.0231358
0.0642341
0.0388043
0.0957796
0.0368832
0.0403958
0.0225313
4.35046
0.0303503
6.8493
0.0289381
0.0398687
0.021832
0.0338825
0.0220589
0.0435331
4.11884
0.0224323
0.0217811
3.36138
0.0221706
1.06672
0.0220543
3.87521
0.17813
0.0292787
0.0219817
0.021926
0.0221154
0.0216209
0.0596789
0.049965
0.0395163
0.0239829
0.0220809
0.258171
0.0224523
0.0287023
0.180282
0.0220463
22.0425
0.0336398
0.0246579
1.27434
4.70169
0.187258
3.84674
0.386595
0.0218577
0.220114
6.12748
0.330024
0.0221721
0.0222802
0.0650321
3.89335
5.48829
0.303415
0.0218444
0.0476183
0.0289894
3.4026
6.66333
0.0291932
0.0700943
0.023142
0.0576077
0.0543698
0.0221637
0.0621365
0.727895
0.0221355
0.20858
0.0222527
0.0217803
4.83019
4.67894
0.0218395
0.0218774
0.0221014
0.0216982
0.0419759
0.0918292
0.0221855
0.0219809
0.0220964
0.0285891
0.024844
0.0248055
0.18129
0.0220364
5.03574
8.30448
5.05606
0.128717
0.0366297
0.210454
0.0263696
3.79208
0.214933
0.450404
0.0222072
8.22452
3.40044
0.0217578
0.0220312
0.0651145
7.51995
1.76171
0.0216451
0.0219574
3.73491
1.05542
0.452166
0.0229676
0.0240262
1.94492
0.0221415
4.00746
13.7398
0.205358
0.558065
0.022081
0.0219001
0.0218806
0.0261807
4.20615
0.0285547
0.0231096
0.0227515
0.0675288
7.60139
0.0286369
0.977759
6.2552
4.96459
2.17522
0.0220561
0.0221712
3.81866
0.0216454
0.0216137
0.0227616
3.1484
0.0279137
16.1519
0.0746016
0.0220231
6.63656
0.0303493
0.0217891
6.80792
0.150685
0.0254342
0.0217964
8.1249
7.19695
0.0221838
1.8037
0.241431
11.5376
0.566385
0.0597276
0.0218903
0.0220937
0.759484
0.0234879
3.72224
0.0318545
0.492852
0.145367
0.0229436
0.0280098
0.0218719
0.0226647
8.52511
7.12238
0.0220852
6.17774
0.029578
0.0219683
0.0244804
0.0219199
0.0856285
0.0220945
2.1038
0.0469301
0.0218774
0.0218664
0.0896166
8.4483
0.0286627
0.0231873
0.0322509
0.0220545
0.0223539
0.0238874
8.68597
4.04731
7.38308
0.0217035
0.0218601
0.0221816
0.0726479
0.0218554
0.0222094
0.0901544
0.0371859
0.213058
0.0215823
6.87112
4.0032
0.0222843
9.17755
0.0642202
0.027406
2.07082
0.0221377
9.38157
0.0286152
0.0229147
0.0239155
0.0216425
0.152658
0.0221931
0.0220505
0.0312748
3.41204
3.6133
0.0222456
0.0220189
0.0226419
0.0218426
0.0737926
0.0224899
0.0522615
0.0224341
4.58101
0.0220232
4.61634
0.0217026
7.05884
0.0220307
0.0216266
12.3375
0.271443
0.107083
0.206675
0.0431883
0.0289995
0.0220646
5.76733
0.0220831
0.0218621
0.0899366
0.0403855
16.2857
6.36424
0.0682185
2.48408
0.0739381
0.251913
0.0217918
0.0230853
0.0240853
5.37481
0.0251751
5.90753
4.44478
0.0218274
0.0221114
0.0219662
0.681519
3.26246
0.0223693
0.022106
0.0247011
0.0250366
0.0281788
0.166609
0.196152
0.0220619
0.704295
0.0551027
7.9114
0.0450242
0.0227151
0.0227669
6.62227
0.0218779
0.0551978
4.28555
0.022551
0.0237891
0.092246
0.142742
0.0226996
6.85861
0.0229604
0.135695
0.0287899
0.0288643
0.0220807
6.97326
0.0218478
0.0804819
1.35404
8.90806
0.0343665
0.0467009
0.0231771
0.0441297
0.0222667
9.44477
0.0236165
0.0217667
0.0251602
0.0220898
0.0222691
3.26694
0.022071
0.0221793
0.0219939
0.071488
0.0223218
0.0283084
0.0443464
0.130267
0.0678841
0.0222558
0.178576
0.373829
0.11796
0.0555266
0.0279193
0.0832663
3.79787
0.310205
0.0222845
0.423163
3.87325
0.0222839
0.0228536
0.021636
0.65207
0.066145
0.0217782
1.32436
5.61351
0.0217985
0.0222774
3.58213
4.16235
0.0411754
0.0216419
0.966517
3.2108
3.32826
0.0220227
5.41147
0.0505809
0.0629542
6.78417
0.0236235
0.0216465
0.0254254
0.104122
0.0258035
3.80304
7.0037
0.0217739
2.07511
0.371575
6.18614
0.0216986
0.0544478
0.0223947
0.0218846
4.92779
0.248711
0.127823
0.206534
0.0277542
0.034613
0.0219896
8.04863
6.33636
0.0220717
0.0220007
0.0318839
0.0216599
0.0335986
4.87994
2.55716
0.0348776
0.0220642
0.0218106
5.01711
0.0246107
0.0347801
0.021756
0.0226832
0.35782
0.250322
0.171892
2.85253
0.0221699
0.13668
0.0220014
0.0442555
5.42594
7.54841
0.0220749
0.0222937
0.026856
0.0256909
0.022241
5.1835
5.56324
0.0217051
0.0215146
0.0221941
0.0219616
2.57004
0.0216459
3.68107
0.0594427
0.0404036
0.0217754
0.0401531
7.40903
0.0263892
0.337711
11.7392
0.0221911
6.65383
0.0331267
0.0363685
0.251748
6.79387
6.14998
0.0383931
0.0218689
0.168878
0.0216536
0.0254966
0.0222425
3.6283
0.0303505
0.447044
0.184689
0.0332348
0.0221309
0.153762
0.0237812
0.0222703
0.269612
0.0215963
0.0279688
0.0270843
0.0221912
2.57535
0.0229127
0.521022
0.0227175
0.0219237
11.0023
3.95828
0.0240778
0.0330912
0.0282604
0.0442502
0.03708
0.0234086
0.0248871
0.0231773
0.138315
0.0248186
3.67227
0.0522166
0.178848
0.0699793
0.0220532
5.29608
0.0216083
4.33405
0.0243225
6.7056
0.413153
0.432171
0.324587
0.144588
0.0678219
0.0217647
4.79939
0.073732
0.0220662
8.15776
3.71306
0.0232212
0.0224901
0.0263731
0.0263642
0.0257842
5.41867
0.0222841
0.0247269
0.02667
0.0304116
0.0221634
0.050507
0.021589
3.7512
0.023463
0.0762003
0.0264984
0.0289771
0.0821248
0.250111
0.0560366
0.0217934
0.165515
4.56703
19.3843
0.0219301
3.62722
0.0247519
1.74183
0.022083
0.0239303
4.3111
0.0340329
6.23531
7.12803
0.033192
6.84099
0.0218985
0.0215776
7.98628
0.0597779
0.023819
5.63917
0.0244653
0.0424603
0.0281103
0.0492428
0.0219528
1.11027
4.01516
7.50719
0.131637
0.0234885
0.0437893
6.19332
0.023556
0.0222567
0.0593612
0.0216707
0.245228
14.1059
7.11911
5.61812
0.0356616
0.0219581
5.34167
0.0215893
0.0451262
0.0222344
22.9017
0.0230407
0.0429252
3.8638
0.066854
0.0220243
0.0301207
19.0428
0.0221218
0.0782683
0.0217318
1.18436
6.07763
0.0637626
0.0760135
0.0219452
0.16296
0.0771065
0.0289712
0.0217374
0.0219578
0.0221467
0.0350899
0.0221284
0.0510506
0.0221922
0.0217198
8.30158
0.0217736
0.0243894
0.0229876
0.0222743
3.85596
0.0217854
0.0299811
4.77682
0.032456
3.57016
0.0220935
7.36068
0.0335777
5.7836
0.0229402
0.0703616
0.0218155
0.0292713
0.0691326
0.0650943
0.123713
5.32918
0.110932
0.758927
0.0271716
0.0631952
0.0380317
0.261934
0.0248287
0.0217919
0.0220444
0.0337696
0.0407924
0.251795
0.0349477
4.02451
0.535289
0.104175
0.021955
0.251689
0.170796
0.0225073
0.0239536
0.0220741
2.56264
0.022051
9.31846
0.0217692
0.0237773
5.71811
0.0640337
0.0220468
0.0220369
7.22222
0.0218039
0.0235733
0.0232113
0.0289843
0.0246687
0.0220528
0.0922055
0.0824846
0.041163
0.148625
6.91036
3.81946
6.00384
0.0217183
0.0219764
0.0847978
0.0219681
0.044892
3.62751
4.01242
0.0216395
0.0220626
3.36879
0.181787
0.0216524
0.0217923
0.0265043
17.44
3.94575
0.0241521
0.0289112
0.0221984
0.159977
0.0710535
0.129973
0.0317255
0.040215
0.0224966
0.0293954
0.146675
0.0228249
0.0218919
0.0241273
4.39537
0.0247635
7.79092
0.0221037
4.23977
0.0329504
0.0286447
0.0217648
0.0219123
0.44281
0.481705
0.0585536
4.13744
15.2323
0.0224721
4.75856
0.0854918
0.021795
0.259109
0.173978
0.0639145
0.0222551
3.52496
6.318
0.021749
0.036135
4.25478
0.0376852
0.0220022
0.0217191
0.0220386
0.0225915
0.0521607
0.140955
0.0798552
0.051542
0.0216876
0.0221297
3.72648
0.021777
0.0392866
0.0268723
0.0217822
0.0348152
0.0220229
0.0233406
0.144061
0.0219939
5.71876
0.0220214
5.9008
3.87779
0.0564015
0.0221254
0.0222927
5.65267
0.0216324
0.0230739
0.022395
0.197069
0.272276
0.0269521
3.93264
0.0387449
0.228304
0.0226679
0.0429277
0.0216711
0.022139
6.20284
4.03428
0.401974
0.0228934
0.0431977
0.0430134
8.27433
4.98561
0.133808
0.030631
0.0215859
5.25629
0.0217657
0.021811
0.129679
0.0650827
0.027658
0.175453
0.0436662
0.0290274
0.0247046
6.81224
0.0229221
0.0219873
7.51547
0.043253
0.0216808
3.41443
0.0220308
0.0221091
0.0855659
0.0988233
19.3227
0.0216975
0.0245042
0.0218898
2.11926
0.0218073
0.509328
0.201955
3.7421
3.37296
24.1228
0.0302362
5.2354
0.913236
0.0222093
0.0292421
0.0410114
0.0301055
1.2915
4.64292
7.34756
3.64559
2.13253
0.0221154
0.0603419
0.0220394
6.16779
0.0247061
0.0222312
0.0228715
0.0221889
0.0218313
0.0602328
7.29271
0.0217086
0.0226872
0.0218585
4.95533
0.0226049
7.70048
3.53729
0.40909
0.0221013
0.0218372
4.58897
0.352039
0.0221407
0.204292
0.0222274
0.0895051
0.159775
0.0561324
0.0336929
0.678694
0.0217539
0.021667
0.126684
3.27743
0.0257099
0.0398434
0.0219014
9.00272
0.0220121
0.0219447
0.0224695
0.0219822
10.6616
4.42058
0.229007
0.0387002
5.78177
0.198094
0.0216486
0.0253672
0.0216752
1.25654
0.0217763
0.0242967
0.021996
0.0219077
0.0216818
1.97278
0.0220861
1.59428
0.0215435
0.033302
0.0224122
1.49018
0.0220426
0.0256803
0.026691
0.0545756
9.87171
0.0219024
4.31853
0.0486885
0.0406365
0.021854
0.0219333
3.49117
16.4677
0.0217817
0.021767
0.129708
0.129715
0.0381702
4.50411
0.0226007
0.191255
0.0254056
0.0216884
1.70172
0.0221533
3.94415
0.0220444
0.0222178
0.0221185
4.53537
3.71695
0.0216586
0.228417
0.121548
0.0220591
0.0217558
0.0218633
0.241969
4.77553
0.0462941
0.0226532
0.0303436
0.0220259
0.0220421
0.0226801
0.022
0.0948802
0.0220733
0.039763
0.293791
0.0288814
0.0216165
3.45221
0.0453627
0.0220354
0.0563143
0.025289
0.224915
0.0248662
10.2365
0.0393426
0.0219331
0.0561018
0.0550637
0.0230557
7.60158
0.0380367
0.02472
0.229652
0.0218858
0.100213
0.0830239
0.087133
0.0219295
0.0219442
0.02163
0.0337634
0.0357309
0.0350449
0.693395
6.19118
3.58346
0.0222663
1.93651
3.9176
5.14554
0.0219976
0.0219569
0.0349424
4.17382
0.0236902
0.026851
25.2361
5.31894
7.69571
0.119977
0.0881268
3.35475
0.213328
0.0215862
5.57064
0.120459
0.0220064
0.0219326
0.0224741
8.28937
0.0601042
4.05185
0.0230045
0.433571
0.0219268
0.226264
3.79119
0.0221656
0.0264803
5.37389
3.62133
0.0391167
0.0222656
0.0233505
0.0224432
0.157262
0.070225
0.548305
5.01616
0.0217018
6.29472
0.101561
0.168493
0.0220275
0.022164
0.173918
0.274147
0.0219274
0.0357686
0.0743013
0.0392026
3.69333
4.54531
7.77949
5.10382
0.0246839
0.021618
0.0671466
4.48035
1.26207
0.021763
0.229809
0.0899395
0.510475
0.0219281
0.0222557
1.12598
0.251342
0.366421
1.51294
4.09087
0.0219474
0.24624
5.07864
0.022246
0.0643268
0.0613643
0.0216642
0.0868306
5.36468
0.247578
0.0222548
5.06263
0.0655322
22.0924
0.0215084
0.022443
0.0220123
0.0222052
0.0219992
0.0413243
0.03692
0.0399856
0.37929
0.0263772
4.64653
0.0250026
0.0244363
0.0254902
8.38449
0.0583195
6.119
0.0258003
0.0276413
20.4185
0.10046
0.0220966
0.0398036
0.251197
4.49895
0.150667
0.0219237
0.0218668
0.0218634
0.225065
0.0227912
2.52216
1.29577
0.241063
0.0275663
0.128523
6.40891
0.0220018
1.53559
0.0313166
0.0507424
0.021856
0.0217442
0.0364163
6.3255
0.0220789
6.16054
0.296434
0.0952861
0.104497
0.0218099
0.0220189
0.0251122
0.0221235
19.5264
24.1641
0.073169
0.442498
0.0219036
0.0219075
0.0219439
0.0222483
9.72193
0.0223179
5.9874
0.0841288
0.0219406
0.346521
0.554052
3.47552
8.72025
0.022471
0.0216579
0.0221317
0.0223472
0.833749
0.219194
6.93437
0.0221557
0.0219384
0.135326
0.0222603
0.154263
0.0236828
0.132716
0.152134
0.0381002
0.036201
0.0216884
0.0330244
0.034835
0.170126
0.083403
0.0391891
0.0218571
0.164528
0.0218434
0.923507
3.76629
0.931283
0.0220656
0.103662
0.021987
0.0333784
0.0223076
0.0220391
0.028106
8.73969
3.98888
0.0791156
0.0414431
0.162848
0.0598363
3.72971
5.9821
0.0291337
5.54675
0.213816
0.0217788
0.0575587
5.74043
0.100922
0.0222356
0.0380671
2.19376
0.176479
8.02864
0.0218804
0.212206
0.0221139
0.0218997
0.0295081
0.194859
0.0222638
4.11403
9.63842
0.160477
6.49523
0.335304
8.26803
0.147266
0.0216933
0.0232886
0.0215998
0.0408162
0.123796
0.174323
0.0239298
0.0377607
0.0215822
6.74828
0.0282177
0.0343163
4.13122
0.100132
13.1081
7.58914
0.0219332
7.52997
0.0221298
0.0279923
0.0451105
4.05302
0.0858091
0.027689
0.0222353
0.521124
0.0283937
4.17375
10.5182
0.0329608
3.19767
0.0308027
0.0222744
1.14235
0.0453498
0.0229665
9.50119
18.8022
0.0251905
0.0260966
0.0767683
6.66313
0.0219329
0.0219721
0.0216554
0.0217302
0.022433
8.28805
0.0299554
4.42501
0.0219511
0.0217575
0.840332
0.0218849
0.0232977
0.0220529
0.0220374
0.237084
0.0216913
6.15439
0.0217667
0.0222572
0.0364333
0.0222506
0.151618
0.0216985
0.0222649
0.0217252
0.0246452
0.0851023
0.022792
3.81556
0.0218803
0.0407405
0.0250978
5.90033
0.0228707
0.0222684
0.0216003
0.0216471
0.172687
0.0218661
0.0217716
0.0229644
0.399912
0.0219293
0.0408573
0.0307559
0.0219788
3.68625
12.6158
0.175393
3.70742
0.0229205
0.0651617
0.0221807
0.102663
0.148825
0.0219036
0.232091
0.0786505
3.00848
0.0292992
0.0220366
1.49826
0.0374892
0.413863
5.23058
0.021536
0.0219714
8.21238
3.18952
0.0379073
0.0498104
0.0227053
16.0809
1.05647
0.0215108
0.0219552
0.0218606
0.0221713
0.0222475
0.0220558
0.035966
5.38554
0.0290071
0.022209
0.569613
0.0219782
0.466007
0.0422345
0.0217693
0.0244039
0.0218899
0.222304
0.0244504
0.0540403
0.0219386
0.0219856
5.83536
5.97603
0.0221767
0.0338035
0.0439313
0.0289621
0.0239293
0.0222711
0.0220665
0.634794
0.31086
0.028943
1.9892
0.0219701
15.9047
0.0602521
0.0242293
13.4533
0.0230225
4.74929
3.93296
3.42314
0.388418
5.23101
3.89382
0.0215772
0.0245749
0.0249583
0.0215944
0.0216484
0.0248077
0.0747427
0.0216927
0.028932
0.0684115
0.0671321
0.322572
0.147631
0.0281363
0.698374
0.508039
0.0342645
0.0251888
0.0756233
15.6622
4.30679
0.0251298
0.0215763
0.0218192
0.0217183
0.0265249
4.01798
0.220098
0.0216314
5.65626
0.0219722
0.0848579
3.82857
0.0827567
0.121885
0.0937229
0.310976
0.0228059
0.0337594
0.0218363
0.18919
0.0219383
0.0223874
0.0263251
0.087524
0.0221748
0.0246692
6.02621
0.0218079
0.0218594
0.028851
10.7757
0.0675669
0.190267
0.0384568
0.0221485
3.27652
0.0374367
0.0225235
0.0220313
0.0283547
0.0247068
0.0220476
0.0240605
4.76223
0.0230087
0.021614
0.0469408
0.0218562
0.0307928
0.0299808
0.0220686
0.0219881
6.90787
0.0216864
0.0220314
0.0216353
0.0252256
0.0214831
5.97348
0.0239352
0.118687
0.0219556
0.0217575
0.0217738
5.86016
0.0412352
0.0220656
0.0215593
3.72215
0.025262
0.0420382
0.0218377
0.081388
0.0229171
0.021554
0.553402
0.0216406
0.0222694
0.0221462
0.0217712
0.0242271
0.0221383
0.0220299
1.54115
1.51705
6.51694
0.17641
12.0393
0.0218009
7.82292
0.0219608
3.86573
12.384
0.021788
10.7918
0.0219731
4.0663
5.34446
0.269562
5.17735
4.32218
0.464559
0.194577
12.0398
4.16507
0.0368518
0.0295821
4.9667
0.0234652
0.0216393
0.229295
0.0227824
0.0278249
1.42311
0.022676
0.169344
3.85312
4.286
0.165772
0.0659009
0.0222514
0.0275588
0.0484201
0.0219946
2.4815
0.218587
0.109119
0.0218618
0.0220671
15.0968
0.0216576
0.327127
0.0217504
10.19
7.58969
0.0348046
0.0249483
0.0219675
6.56805
3.63841
0.0247126
0.0291836
0.022286
0.0222861
0.0370876
0.0231412
0.0323559
0.0564428
0.023799
0.0259669
0.0220462
0.0311774
17.712
0.0219918
2.20538
0.0218031
0.723525
0.0569917
0.0220372
0.513942
0.0710517
0.0218139
0.139299
0.0220538
0.172299
0.022198
0.0220083
3.62172
0.0221464
0.0608656
0.022591
0.0775215
0.0217589
0.0223144
0.0218406
0.0294647
0.0239995
0.0222612
0.0225491
0.0256105
0.0224165
0.0708148
0.0549754
0.0247533
0.0236001
0.0215684
2.30421
0.490655
0.0227652
0.0225144
0.0226412
0.0342495
0.0220897
0.0299479
0.0215623
0.0222853
0.132486
0.0233428
0.0222847
0.0218792
6.08787
15.5284
0.0215915
0.0586687
0.0609978
0.124712
0.13195
7.92791
6.86012
0.296221
0.0222334
0.0771474
0.0219209
0.0318894
12.7136
6.06439
0.113021
0.0239976
19.8519
0.0220363
0.0384659
0.180413
0.0221919
0.077473
0.0229261
0.0228099
0.0531907
0.088602
3.48155
3.32866
0.0217548
0.0215745
6.09851
3.92119
0.022195
0.0280549
0.0698159
0.0221019
0.0220095
0.0233241
0.158644
0.0217425
4.87792
0.0287314
0.0219611
0.175089
0.046092
0.0432112
0.0740095
5.01017
0.0244109
0.0271869
0.0279863
0.0236105
11.9248
0.0256448
3.37509
5.61073
0.0562092
4.01555
0.0381206
0.0415812
0.222257
0.0216977
6.58377
0.0557545
0.0314644
0.0284985
0.0221771
0.0216174
3.77445
0.036973
3.93159
2.91244
0.0221202
5.04802
0.0218163
0.0219284
0.0282778
8.35476
0.0459068
0.0215914
3.49404
0.021973
0.0234261
3.97761
0.0230401
3.41201
0.0222723
7.23704
0.291658
0.069479
0.434851
0.0232855
3.45498
0.0215672
6.37915
6.14288
6.72067
9.89205
0.021939
0.0217178
0.144818
3.83258
3.50571
3.72051
3.69887
0.0220201
9.33914
3.42607
0.0223694
0.404753
0.0321766
0.0285276
1.8904
0.0352726
4.17856
0.0218237
0.0347016
0.0270146
0.113633
12.2013
0.0336736
3.54344
3.96405
0.0221701
0.0244019
0.0234318
0.02308
3.5278
0.0220063
0.0217352
0.0362397
3.93267
4.1232
0.0249836
3.80683
4.22152
0.0219317
11.0377
5.27938
0.0926939
3.90284
0.0479353
0.023955
0.0221731
0.101929
0.0242517
0.0543456
8.72569
6.21631
0.0278512
0.0450123
0.025867
0.0282834
0.0216465
0.0292575
0.0247604
0.0593844
3.93004
0.378418
3.9047
0.0215976
0.0773916