/*--------------------------------*- C++ -*----------------------------------*\
| =========                 |                                                 |
| \\      /  F ield         | OpenFOAM: The Open Source CFD Toolbox           |
|  \\    /   O peration     | Version:  v2012                                 |
|   \\  /    A nd           | Website:  www.openfoam.com                      |
|    \\/     M anipulation  |                                                 |
\*---------------------------------------------------------------------------*/
FoamFile
{
    version     2.0;
    format      ascii;
    class       volScalarField;
    location    "350";
    object      ddt0(omega);
}
// * * * * * * * * * * * * * * * * * * * * * * * * * * * * * * * * * * * * * //

dimensions      [0 0 -2 0 0 0 0];


internalField   nonuniform List<scalar> 
13917
(
-0.0253167
0.000825039
0.501599
3.33659e-05
0.00037749
0.000794762
5.84246e-06
0.00226357
-6.93235e-05
0.401245
0.00197673
2.54543e-05
9.62551e-05
-0.224288
0.000536592
-0.000663937
-0.00022577
0.00186911
-0.000677555
0.18662
0.000676004
6.87527e-05
-0.000478752
6.89509e-05
0.000111799
0.000781206
-0.0252135
0.147224
0.00120179
1.89872e-05
0.3793
-0.00173185
5.22202e-05
-0.0726288
5.16359e-06
0.00303649
0.000237864
6.59243e-06
6.38879e-06
0.00039585
-0.000438573
0.000304283
-1.20462e-05
-0.0021177
-0.00189198
-0.0170724
0.000609962
-0.438156
0.0111263
6.90714e-06
2.66611e-05
-0.000255735
-0.610086
4.5447e-05
4.86971e-05
0.000124675
-1.06072
-0.000475074
0.000256242
-0.014513
-0.191174
0.000423231
0.000180962
9.74184e-05
0.0131556
0.0431925
0.00135425
0.00277253
0.00204886
-0.0556988
0.0806339
-0.0585242
6.58319e-06
0.000118479
0.000671604
0.000166394
0.000251335
0.00012059
0.00014714
5.57148e-05
0.00011411
-9.48304e-05
8.00648e-06
0.0485454
-1.86201e-05
0.000726977
-0.00165133
-7.20347e-07
0.000452711
-0.000240825
-5.54413e-05
-2.91444e-05
0.00556992
-5.90504e-06
0.000100327
0.00131976
-0.0143071
-4.5198e-05
-4.14145e-06
-0.00254281
-0.000104857
-8.74234e-05
0.000118034
-2.76103e-05
0.000244316
-0.0140184
-0.00370829
0.00049951
3.31498e-05
0.144029
-2.56859e-06
-0.0787311
0.00118284
-0.481744
0.0133695
0.000203185
-0.00154496
-9.29746e-05
-0.013758
6.86661e-06
-0.000114975
2.62214e-05
0.00154077
-0.000766388
-0.0844948
0.0311775
8.46844e-05
0.00071977
1.75634e-05
-0.000737011
-0.000361019
0.00934088
-0.149712
0.000206111
-0.00200389
0.12661
-0.156683
0.0148654
0.000872582
3.99849e-06
0.456984
3.31044e-05
-0.0142834
1.18693e-05
7.3642e-06
-0.000480609
0.0826232
0.233698
-0.399367
4.74816e-05
0.000470271
-1.51451e-05
5.60868e-06
5.94513e-06
-0.026138
0.000123442
-3.04623e-05
-0.152337
-0.000314441
-0.000146592
-7.70731e-06
-0.0185207
0.000396579
0.489442
-0.0815382
-0.0030714
-0.264118
-0.314393
-1.60434e-05
0.000942897
8.03971e-05
-0.143749
-8.06775e-05
-0.0539633
-0.000106433
-0.000196356
3.2439e-05
-0.000208385
-0.000310671
0.000434375
-6.97691e-06
7.25413e-05
2.66766e-05
-0.0114479
-0.0309305
0.00693975
2.59748e-05
-0.0122854
1.95099e-05
0.00159574
-0.000100717
-0.00160832
0.00455793
0.0240777
-5.00202e-06
-0.0747548
0.000185418
-0.148155
-3.6726e-07
0.000105396
0.000536316
-0.0412809
0.0718534
0.000223827
0.00463388
0.000846926
0.000432762
1.41491e-05
0.00110305
0.000113897
4.56101e-06
0.000301864
0.000698088
-0.352588
-0.00189505
0.000826221
-0.0748482
2.51831e-05
-2.28502e-05
-2.33397e-05
-0.408556
0.00922545
-0.0180095
-1.1238e-05
0.00020118
0.346334
-0.101985
-2.21036e-05
-2.1169e-05
-0.000445389
-2.27926e-05
-2.22169e-05
-0.0476009
-0.12134
8.05242e-05
-1.16782e-05
-0.000287814
-0.0516116
-0.000348918
-1.24358e-05
-0.0126437
-0.021181
-0.00638065
-0.0786926
0.000336649
1.24072e-05
-0.186418
-0.000424533
0.00107264
-0.00149977
0.000199135
-0.145937
6.76203e-06
0.000151421
-0.000175549
9.06806e-05
-0.000431299
9.4737e-05
0.000366229
-2.03007e-05
-0.0681222
1.07702
-3.78723e-05
-2.12294e-05
0.000132992
-2.16568e-05
7.01734e-06
9.11847e-05
-6.52761e-05
-7.47103e-05
-0.0345866
-0.0253894
1.19362e-05
0.00026689
-0.00825288
-1.78986e-05
-0.000907711
-0.077177
-1.72105e-05
-0.0364634
-2.89899e-05
-0.0161571
-0.000207549
0.000447538
0.000100029
1.32522e-05
0.00283866
-7.34863e-08
-0.0013184
0.000255995
0.645775
-0.00876767
-0.0218337
-0.0159395
-0.000148655
-0.000461364
0.000351788
0.000227608
0.000366861
0.000143745
-1.23217e-05
5.51903e-06
-0.000379872
0.00223985
0.000153876
0.00013215
-1.41666e-05
-0.15163
-0.175723
1.2909e-05
0.027281
0.000228835
0.00205978
0.0030093
-0.0450445
-0.0370308
0.0300732
0.000531684
0.000261936
0.0635795
0.00355987
0.474343
8.20505e-05
0.000526904
-0.013112
0.000100324
0.000860998
-0.00147724
-0.000282242
-0.140167
-1.92981e-05
-0.000865847
-4.04196e-05
-1.15909
-6.23516e-06
0.000157211
0.000877075
0.0190441
-0.000248491
-0.00160253
0.013265
8.94015e-05
0.000100853
-0.0959206
0.00260861
0.0557832
-0.204735
-1.31914e-05
7.52715e-05
-0.0300165
0.00127618
-1.51068e-05
0.000358474
3.36098e-05
0.000737361
0.000139822
-1.56165e-05
4.14742e-05
-0.000941032
-0.000800709
-0.0436679
1.83879e-05
8.85494e-05
0.000473301
-0.0174141
-0.000345237
0.0580933
-0.000792422
0.00580027
5.05444e-05
-0.000198668
0.0283214
-0.0394214
0.000299458
-0.00916116
0.00741182
0.000958981
1.52842e-05
0.410343
2.69787e-06
-0.0912537
0.00448254
0.000326398
-0.0101398
0.000132265
0.00218991
-1.44233e-05
0.0756349
-0.00208708
0.000190399
0.520831
-0.000466818
0.000171539
-0.0473578
0.623598
0.00015615
0.0130527
6.38133e-05
-0.000506751
0.356819
-1.61703e-05
-3.55441e-05
0.000125778
9.99071e-06
-9.3586e-06
2.25506e-05
-0.234677
-0.00158547
7.23065e-05
2.41161e-05
5.21669e-05
-0.000253965
0.000431343
-1.85308e-05
-1.61968e-05
0.00170143
-2.79015e-05
1.45163e-05
0.000178368
0.0234532
-0.0184619
0.0561395
-0.000362369
0.0820908
-4.09321e-05
-3.2024e-05
0.000622427
-1.03815e-05
-2.33288e-05
8.71252e-05
-2.82897e-05
-3.30542e-05
-0.191444
6.75742e-05
0.000347071
-0.0439043
-0.000381419
5.06379e-06
4.65507e-06
-0.0403322
0.000537603
-0.101967
-4.09534e-05
-1.01798e-05
6.60244e-05
-2.49602e-05
0.000235034
0.000147919
0.0576694
0.0442982
-0.0291622
-1.03916e-05
-0.000385126
0.071791
0.000107898
4.03196e-05
0.0439684
3.02029e-05
-0.0307129
6.62092e-06
3.67808e-07
4.83101e-05
0.000134127
1.67469e-06
2.42101e-05
-0.149542
-0.109441
1.31538e-06
-0.0218865
0.000372922
2.75162e-06
-0.000460003
-0.00220839
-0.0652739
-5.70556e-05
-0.0138138
0.00142178
0.00163117
0.000150404
0.0300041
0.109501
0.000192316
0.410239
-7.90716e-05
3.75598e-05
9.89623e-05
-4.9496e-05
0.000590458
-0.0152756
-0.000942849
0.00412649
0.000311709
0.0017919
0.000147661
7.24628e-05
-0.147713
-0.000184086
0.000253164
-0.0878935
-2.13561e-05
6.27532e-05
0.00357814
-9.26119e-06
-0.137392
2.9531e-06
-2.47276e-05
-0.00030128
-5.47762e-05
2.74676e-05
0.000461952
-0.152687
0.293805
-9.87025e-06
2.78499e-05
-0.0022798
0.44775
0.366716
6.08268e-05
4.7771e-05
-1.16858e-05
-0.000178506
-0.29396
1.65504e-05
-0.000326852
9.88201e-05
6.8915e-06
2.34943e-05
0.000125231
-0.000139394
-0.000923135
-9.38436e-06
5.49196e-05
0.000115862
-0.0519051
-2.61861e-05
3.00765e-05
-2.35436e-05
-0.000306565
-0.000620085
0.00111874
-0.00014057
-0.00304383
0.000115104
0.0015194
-0.139776
-0.164166
-0.0644554
9.08823e-06
4.47428e-05
0.00368456
-1.83442e-06
0.00068563
-1.67664e-05
-0.24889
0.000171102
-0.0791475
-0.00140077
-1.2053e-05
-1.29269
4.43848e-07
-0.00184641
-3.9745e-05
-0.000334216
-0.0966094
-6.48424e-05
0.417287
0.000113352
3.19244e-05
4.93542e-05
-0.012776
-3.66391e-05
-2.06922e-05
-0.00110202
-0.000371427
-0.0171319
0.10232
-0.154636
-0.0701293
-2.65136e-05
-0.104795
1.83033e-05
-0.143347
0.25049
-0.000484792
0.043978
-7.38998e-05
-0.000113459
-8.3384e-06
-5.62284e-05
-3.30627e-05
9.16725e-05
0.116951
-6.94584e-06
-0.00159992
3.66902e-05
-1.9803e-05
-0.000323579
-0.0101645
0.111689
-1.5941
-0.0012643
0.000115702
0.777244
-0.0620658
-1.67881e-05
0.172187
8.24763e-05
-0.00222227
-1.16723e-06
0.534351
5.66522e-06
4.3885e-06
9.57208e-06
-0.0230553
-0.000116835
-0.0181274
-0.000113571
-3.2871e-05
1.12281e-05
-7.58226e-05
-0.0537739
-0.00370992
5.87996e-06
-0.000227147
-1.24006e-05
-0.000380675
2.9302e-06
-0.0694185
-7.73426e-06
0.000343183
-1.38623e-05
9.77452e-06
-0.0182062
-2.65796e-05
-0.000386434
-7.22329e-05
-6.11917e-06
-0.220322
-0.00173358
5.67103e-05
0.0112328
0.30913
-0.000209335
0.00479477
-1.78399e-07
0.000600544
-0.0286871
0.669385
0.000546199
0.000240182
4.72443e-05
-7.0561e-05
2.43484e-05
0.0404223
-0.000593663
0.000187716
-0.147625
-0.000154505
0.00695716
0.554736
0.00164933
0.000135772
0.00486252
-0.0381019
-1.09659e-05
0.000773986
0.0386429
-6.42722e-06
-9.4655e-05
-0.000291008
-0.00262832
3.792e-05
-0.0860611
-0.000558144
-1.43313e-05
-0.00183984
-9.60322e-05
-0.0592675
-3.20645e-05
1.61816e-05
-0.149969
-0.000672905
-0.0741773
1.27529e-05
0.000343434
1.18802e-05
2.50069e-05
-2.7522e-05
1.52605e-05
-0.140682
0.000283285
-0.048311
-0.0567517
0.000707334
-0.154804
3.0093e-05
-3.00912e-05
1.16225e-05
-0.0837582
0.446237
0.000194658
-0.113882
-0.456819
-5.68446e-06
1.37595e-05
0.000235499
0.00122476
-0.0381345
-9.1994e-05
2.25211e-05
3.22841e-05
-0.00265113
0.000225573
-0.000103417
-0.00054967
9.67255e-05
6.07136e-05
-2.67707e-05
-1.73303e-05
0.000314518
0.42835
0.000259404
-0.000484119
-0.135161
4.14362e-06
-0.682143
0.000209539
0.000716333
0.000128859
0.972289
-0.000172689
-0.00177367
0.132021
0.00238162
-8.66889e-07
0.000261069
3.77707e-05
-7.242e-06
6.52382e-06
0.000832663
0.0751067
0.00956651
-0.000296652
-1.55753e-06
0.200407
-7.18685e-05
-5.02994e-05
-0.000600159
8.52761e-05
-0.00188255
-0.0045152
-2.19514e-05
-0.000675356
-2.62282e-05
-0.000529781
1.29761e-05
2.64584e-06
2.34277e-05
-0.0625497
5.35654e-05
-3.18758e-05
-0.000810483
1.74619e-05
8.64362e-06
0.000114582
-0.00265753
0.0010696
-0.0100575
0.000729561
-0.0378996
6.53905e-06
0.000273718
0.81388
-0.000222863
-0.00214457
-0.000225073
-8.51273e-05
1.36957e-05
0.000299073
0.000967427
1.26262e-05
0.0415288
8.29423e-05
0.142782
0.000211442
-6.27199e-05
-3.38654e-05
-0.00131389
0.000458318
0.00750099
0.00128795
-0.000273935
-0.0398743
7.14414e-05
-0.0597105
-3.26485e-07
0.00141445
0.000196254
4.96635e-06
-2.53091e-06
-0.134392
-2.08821e-07
0.00013989
-0.0208878
-6.3766e-06
-0.000515768
-1.20342e-05
0.000147372
-0.124632
-1.13276e-05
-0.162377
1.97484e-05
0.00239679
-0.00129759
-0.0176691
-2.57613e-05
-7.0578e-05
0.000136363
-1.25191e-06
4.41754e-05
0.000135811
4.17077e-05
-0.000815894
-2.54569e-05
0.000440565
9.65916e-05
-0.0382334
-0.0686392
-0.0027241
-0.0386147
0.10046
-0.0762911
-0.0120916
-5.58682e-06
-0.000176773
6.03871e-06
8.57745e-05
-1.08259e-05
-7.83737e-06
3.17877e-06
0.00209781
4.57017e-05
0.141188
4.61525e-05
-0.000349979
-9.95379e-05
7.80099e-06
0.000365269
7.28576e-05
3.82243e-05
9.12036e-05
2.86202e-05
-0.154161
-0.000487235
0.00158534
1.16608e-05
-1.40246e-06
8.78009e-05
9.16783e-05
-0.0806423
-5.13535e-06
-0.00235291
3.54739e-06
0.0107908
0.000426548
8.52947e-06
-0.00177478
0.000587772
-4.87561e-06
-0.0421501
0.271505
0.000258293
-0.00153772
-2.23416e-06
-0.0028858
-0.000242771
9.1513e-05
-0.0287032
-7.83147e-05
3.51163e-05
-0.00180792
-0.0270699
0.000657408
-0.00185775
0.665141
0.000134267
0.000170257
4.54909e-05
0.111425
-3.29542e-06
-0.00250791
1.58656e-05
-0.142327
0.000450861
0.443977
2.53174e-05
-6.07454e-06
-0.00279914
5.03446e-05
0.0002914
-0.123151
0.000151188
-4.92865e-06
-0.026465
0.000127471
-0.000143011
-0.000635852
0.000153311
-0.00865949
0.000348415
-0.00226045
0.00223801
3.5712e-05
-0.140156
0.00011592
-0.00063899
-7.14911e-06
-0.0493358
0.00486274
1.61962e-05
-0.000625226
-0.000191213
6.05803e-05
-0.00051393
-7.22602e-06
-5.46568e-05
-3.30416e-06
0.000149506
-2.16462e-05
0.000131117
-0.00171105
-0.0857556
-0.0211552
-0.00173276
8.83403e-05
-0.00255443
-2.57484e-06
0.655752
-0.205379
-0.604588
-2.08127e-05
-5.50971e-06
-4.85256e-07
4.53497e-05
-1.97227e-05
-0.000252895
-4.8461e-06
0.000119097
-4.80333e-06
-0.367614
-0.0235485
2.36109e-06
-0.119052
-5.54872e-06
2.39483e-05
0.000216147
-0.0742909
5.77988e-05
-0.000198502
-0.0353588
4.43852e-06
2.1145e-05
0.10332
-0.000201805
-0.0206465
3.91835e-05
0.00280372
5.52666e-06
-9.85759e-06
0.000521097
0.00167836
0.000102069
-0.075456
-0.000132621
1.6878e-05
0.000191262
-8.56645e-07
2.30176e-06
-0.00239531
-0.000522969
0.000184364
-0.0950668
-0.134944
-0.00352538
-0.00283498
-4.0092e-05
-0.085742
1.82906e-05
-0.00618751
-0.000195962
-3.57276e-05
9.70682e-05
0.149787
0.185068
0.0223866
-0.001098
0.00527101
-0.00046158
2.37378e-06
-0.000588613
9.28344e-05
1.59399e-05
0.00259077
-0.0280954
1.08574e-05
-0.000166837
-0.0541598
0.000131345
-1.69862e-05
0.00499239
-0.0737893
7.32226e-05
5.83857e-05
2.67024e-05
3.99031e-06
1.78754e-05
0.000815605
0.000367997
4.01121e-06
-0.224901
-0.000673717
-0.123082
-0.185179
3.47526e-05
-0.0786465
1.31308e-05
4.54536e-05
0.00839199
-0.0113648
0.00531681
0.0470609
0.000623887
1.3066e-05
4.34368e-05
0.000591006
-0.00983612
-0.000299932
0.000114384
-0.000959968
1.13667e-05
0.00506805
-0.0011035
-0.00247346
-0.00180116
0.03177
-0.0106607
0.131416
-0.128536
4.77579e-06
0.0602683
-1.72786e-05
-0.00012669
-0.00028914
-0.0631631
8.00669e-05
-0.000113884
0.000144047
0.00752658
0.000170675
-0.0649988
3.13694e-05
-5.72445e-05
-0.0253939
-7.93846e-05
-0.00271255
0.000172173
4.78565e-05
-0.000144176
-0.140204
-4.25181e-05
-4.66768e-06
9.62229e-05
0.00964316
-3.11204e-06
0.000152364
-1.15186e-05
0.000115824
2.08772e-05
2.19857e-05
-0.00209021
0.000113835
9.592e-06
0.0012787
0.00215514
0.000746091
-0.146024
1.85563e-05
-5.06093e-06
0.31915
-5.74098e-05
0.000173053
-0.130193
-0.0770476
0.000547137
-8.15698e-05
0.000406052
-0.191086
-0.00314887
0.000538396
0.111297
1.52862e-05
-0.000466107
-0.0771458
-0.0181829
-0.224529
-0.0239891
-2.50871e-05
5.14496e-05
0.000104157
2.23652e-05
6.15877e-05
0.325475
-9.13395e-05
-0.000177561
-2.20972e-05
-0.0015154
-0.0546344
0.000156117
0.670156
-0.00722046
-4.64849e-06
-0.00225355
0.000397684
0.000131792
-5.4704e-06
-0.0740239
-0.00114024
-0.0317546
0.000317388
-0.373962
-2.16725e-05
0.000333033
-0.00476314
-1.7927e-05
0.0160065
1.13518e-05
-0.0036344
-5.57222e-06
0.000298878
0.000745232
0.000354468
1.27993e-05
-0.00104908
0.439052
-7.49328e-06
0.00715334
0.00267952
4.42871e-05
-3.06308e-06
-0.00136384
0.0161381
0.441598
9.89406e-07
-0.00027968
0.0466933
-0.0189566
9.85049e-05
1.33777e-05
-8.87094e-06
-3.11123e-05
-1.54507e-06
7.77612e-05
0.000231161
0.0144425
9.89535e-05
4.10148e-05
-0.100498
0.0464809
-0.00162456
-0.0751284
-0.283834
1.2791e-05
-3.45099e-06
-1.0731e-05
0.000128135
-0.00205399
-0.150705
0.0379127
-3.90208e-05
0.000545174
-0.000878219
4.78592e-06
0.0544788
0.00029411
-0.0010648
-5.72685e-07
-0.00218224
0.0484882
-6.82112e-06
8.69411e-06
-0.11262
-0.000204709
-0.0928114
-0.093563
0.0001404
1.31089e-05
-0.00301047
4.55149e-05
-1.93127e-05
0.0996966
0.0448899
-6.1927e-07
0.000538895
-0.0013234
0.000476924
4.92617e-05
-2.50145e-05
-1.89927e-06
3.9742e-06
-8.37835e-06
0.00013252
0.000172357
-0.0853169
0.000447038
7.68824e-05
-0.000256492
7.44146e-07
7.82339e-06
0.000600387
-0.0122922
0.784524
-0.0222564
0.000158034
-2.44256e-05
-0.0539461
-6.87928e-06
0.0119349
7.35383e-05
0.000373539
5.27869e-05
-5.70656e-06
0.316369
0.000129171
0.000152106
-2.14968e-06
0.203216
0.533997
-0.063703
7.25555e-05
4.74419e-05
-0.0423739
-0.000135961
-5.27211e-05
-0.000365411
-0.373616
0.000280298
-9.70594e-05
4.4701e-05
0.0249564
-1.44721e-05
0.000273867
1.22313e-05
-2.41254e-05
0.467788
-1.35404e-05
3.28852e-06
-0.00310074
-0.00144855
0.437356
0.319094
-1.67951e-05
-7.35659e-05
9.1243e-06
1.0785e-05
0.000191972
2.53986e-05
2.73556e-05
0.299605
1.26593e-05
-0.000384855
-0.000208019
0.048185
4.68078e-06
0.0019148
1.95558e-05
-0.0755198
-1.6135e-05
0.00252169
-0.0015562
3.71986e-05
-0.000990226
-0.000107443
-8.35544e-05
2.51139e-05
0.0002249
3.28683e-06
-8.19774e-06
0.013506
0.000769964
-0.00307052
-3.33249e-05
7.50551e-06
0.000346537
0.00175869
1.02876e-05
-0.0738104
-0.000195897
-3.33995e-05
-1.53072e-05
-2.08022e-05
-0.000139842
0.0581369
0.211998
-0.000767579
0.00300563
0.0453718
0.000232591
0.00024601
0.0604509
-2.19702e-05
-1.49871e-05
0.000192442
-0.0321963
-1.81566e-05
-0.102433
4.62252e-05
-2.67429e-05
-0.000545466
-0.00687634
-0.210538
0.0340594
0.000129294
-0.000120485
0.119615
-2.12931e-05
0.04386
-5.88686e-06
-0.000178002
0.314387
-2.33205e-05
-0.109494
0.0721394
2.38872e-06
-3.24259e-06
-1.51742e-05
-0.151373
-0.000348895
-2.48022e-05
-0.0017962
-1.84509e-05
7.20362e-06
-0.000937452
-4.61082e-05
-0.000768775
1.25086e-05
0.000225053
-6.91172e-06
-0.0140792
0.00294564
-6.28733e-06
-6.09938e-06
7.30348e-05
-1.67032e-05
2.24772e-05
7.94401e-05
-4.44783e-05
1.33352e-05
-8.59931e-06
0.000111152
9.74716e-06
0.00157671
-2.14831e-05
-0.00128158
5.9273e-05
0.000987576
-1.47949e-06
2.49189e-05
1.37282e-05
-4.47181e-05
0.000480666
0.000426919
-3.7045e-05
0.268294
-0.0450961
-0.147572
-0.0780566
-0.0015867
-0.0517159
5.32659e-05
8.10394e-06
-0.00578667
0.017936
0.000289066
-0.0647778
-1.14632e-05
-0.00268963
-0.244472
4.17897e-05
-0.000852603
-0.772127
0.231399
-6.46117e-05
-0.000928785
3.18863e-06
0.0109978
4.56354e-05
-0.128857
0.128929
2.98707e-05
0.00217239
0.00363879
-0.00023237
0.442152
0.0635842
0.000151054
-1.25063e-05
0.0499904
-0.0866366
-2.56957e-05
-0.000270918
7.8225e-05
-0.000110459
-0.000451951
3.04662e-05
-5.11325e-07
0.0482056
8.98829e-06
-5.15495e-06
3.16548e-05
-4.10673e-06
0.345399
0.000609609
1.27423e-05
-0.0960674
-8.20956e-06
0.000806145
7.31167e-06
0.052749
-9.64812e-05
-0.00566016
-3.87894e-06
1.7154e-05
-0.000115511
-3.14254e-05
-1.86296e-05
2.39773e-05
0.561235
0.000113954
-1.26096e-06
-7.88473e-06
0.004891
-1.17046e-05
0.021059
0.239291
0.0650851
5.08256e-05
3.69931e-06
-1.29937e-05
-0.0176705
5.71267e-05
-0.0010788
-5.84059e-05
-0.0108649
0.000154491
-1.5125e-05
0.703417
4.2277e-05
-0.00019269
-0.0793605
-0.00136931
-0.0996325
-8.45592e-05
-0.0716087
-0.00672905
4.23311e-05
-0.0769107
5.53437e-05
0.0003684
-0.177871
0.00022031
0.000978829
-0.0393537
0.000580775
-0.00116377
4.22267e-06
0.0370611
-5.72869e-06
-0.00986012
-1.44661e-05
-0.0398135
-4.72862e-06
-4.191e-06
0.000187845
0.0218642
5.71114e-06
-0.0431942
2.18211e-05
-0.141671
-4.4351e-06
0.000485756
-0.129487
0.000525115
0.0558489
-0.000254386
-2.91068e-06
-0.000534058
-0.00435122
0.000251638
0.773022
-9.11168e-06
0.00253181
-0.0592556
6.81875e-06
0.0413776
-1.43679e-05
-0.0375733
0.209847
0.000174144
0.000210392
-0.0328548
-0.634032
-3.12513e-06
7.34002e-05
-2.82039e-06
4.05845e-05
0.0220074
-0.00013436
0.421122
5.911e-05
0.000205235
-0.114808
-0.000308669
0.00426594
0.024036
-2.02132e-05
-7.89747e-06
0.0292875
0.0411997
0.452307
-0.249764
0.353171
0.000532825
0.00157591
-0.102858
-0.0698541
-0.334701
-1.34788e-05
-0.000541517
-0.000110564
-0.000111506
1.06247e-05
-6.35356e-05
-8.24936e-05
-0.00223935
-0.328361
-0.000129355
0.00247463
-0.0949524
0.000990891
-5.69462e-06
-6.35184e-06
-0.000786881
3.76832e-06
-0.154175
0.00022746
-0.000158314
0.00853231
0.053934
-6.93348e-06
1.53477e-05
-5.16132e-05
1.06181e-05
-0.140687
-0.00630982
-0.152073
-1.57771e-05
-0.0848893
0.782875
0.00629728
-3.10125e-05
0.000295237
0.000601466
-0.00127039
6.15752e-05
-0.00151679
0.0211233
-0.00500935
-6.76065e-06
0.000215253
-0.000191877
-0.000681407
-0.0981693
-5.61563e-05
-7.74677e-06
9.74551e-05
-0.0171316
-0.000901308
-1.04936e-05
0.000204265
0.00803315
-7.84371e-06
0.0909694
0.00023258
-0.153598
0.000488192
0.000980008
-0.00906744
2.58048e-05
0.000277091
0.738041
-2.24211e-06
0.00104247
-0.00768802
0.000118931
-0.000343722
-0.000355198
-0.00137937
0.0898254
-0.0522836
3.65901e-06
-0.210538
-0.00503266
-2.14915e-05
0.00154984
-0.000550457
6.67145e-05
0.512961
0.00542798
-0.369003
0.000131119
-0.0432828
0.000279951
-0.0019619
0.000125856
1.14368e-05
1.71737e-05
1.53098e-06
0.600298
-0.00178082
-4.9254e-05
0.000899544
-0.0119732
-3.29152e-06
-0.300193
-0.0126048
4.5926e-05
5.50232e-05
0.000161468
0.000132058
-0.000823028
-5.18094e-06
-0.301059
-4.53927e-05
-0.000329079
0.000380112
-9.45671e-05
0.00146709
0.000670806
0.0104676
1.22004e-05
0.000138709
-2.52631e-05
-1.01596e-05
-0.11515
-0.00268714
0.000483972
-0.345117
6.51555e-05
9.43197e-05
0.000665832
-9.38038e-06
-4.6219e-05
-0.000198932
0.000123484
-0.0470316
0.368939
-0.0558536
1.71599e-06
-0.0353422
-5.05699e-06
0.239974
-7.71783e-06
0.00395409
0.158129
4.91705e-06
-0.0111042
-0.0558278
0.000622291
3.32004e-05
-0.000134258
0.000371019
0.105908
-5.75063e-06
1.45803e-05
6.44769e-06
8.48091e-06
0.0545479
3.76038e-05
0.000155621
-1.78858e-05
-2.00452e-05
0.76182
5.21627e-05
0.000244659
-0.000489955
-0.000443135
-0.130207
-1.0423
6.03783e-05
0.000130897
-0.00567991
1.5253e-05
-0.00105317
6.26668e-06
0.0133868
1.83193e-05
8.58471e-05
0.000373498
-0.0109929
-8.31228e-06
-5.45771e-06
-2.34407e-05
-0.00377498
-0.26337
0.000228465
-1.4612e-06
0.000245419
-3.42252e-06
-0.0856263
0.000234602
0.200969
-0.00138817
6.57336e-05
-0.0110866
0.000689494
-0.0398089
1.1403e-05
-6.18359e-05
0.000260065
0.000975144
-0.000802514
1.44063e-05
7.77626e-05
1.31554e-05
-0.0864239
8.97737e-06
1.83676e-05
-0.0422147
0.000155082
-0.000203346
9.21528e-05
1.50017e-05
-1.90572e-05
0.306774
5.84802e-06
-0.91153
0.00936148
-5.99267e-06
-0.0199889
5.20467e-05
-3.40436e-05
0.000127954
3.14215e-05
-3.5276e-05
-5.56474e-06
-5.52291e-06
0.00865134
-0.000946185
-0.0733005
-0.0605426
3.88256e-06
0.0358182
0.000524198
0.206541
-4.22596e-06
0.0125865
-0.0711297
0.0356843
-1.36651e-05
8.26325e-05
4.00294e-05
-0.0150915
-0.114807
-9.86523e-05
-4.94767e-06
-5.59548e-05
-0.408085
1.06225e-05
8.21079e-05
0.000172196
-0.002464
0.863329
-2.11017e-05
-0.0421663
0.000604859
-7.18911e-06
0.277801
-0.0013263
-0.0153254
0.111496
0.000548305
0.000385912
2.04108e-05
0.000408704
9.31963e-05
0.00163149
0.00067975
-4.0751e-05
7.23147e-05
0.955216
0.327444
-6.23244e-06
2.53068e-05
0.00766483
-0.0228052
-3.861e-05
9.52388e-06
0.0145187
0.0706157
0.00100484
1.85801e-05
-0.0430834
-0.00196456
-1.12435e-05
-0.0957415
0.000317551
6.14658e-05
-0.00979109
4.1742e-05
-0.000716907
1.46215e-06
-6.1161e-07
5.60436e-05
-2.37881e-05
0.0124947
-3.10463e-05
-1.34477e-05
-0.00100602
-2.21637e-05
0.000281043
0.00359082
2.95282e-05
-2.9118e-06
0.000132283
9.73928e-05
0.041864
0.00275291
0.29739
-0.0921206
0.000853931
-0.0330486
0.000371111
-0.0663753
0.134615
0.0206312
4.66461e-06
0.000581477
-3.35794e-06
4.33471e-05
-1.52177e-05
-0.00046487
0.184977
-0.00158988
0.000750058
-4.08908e-06
-8.0347e-06
-0.001498
1.8884e-05
7.44917e-05
3.49979e-05
-0.0925782
0.000282734
-0.0608847
4.65672e-06
0.0127175
8.13823e-05
7.97053e-05
0.000106378
-0.000717271
2.97561e-06
-0.000434038
-0.0783059
0.00056787
-0.0669872
0.322956
-1.98184e-06
0.000204538
-0.00606937
0.000274975
-3.82224e-05
-1.9782e-05
-6.31679e-06
-0.056247
-2.35531e-06
0.000758147
-0.000821077
-0.000507813
0.0358804
0.0261446
-0.00141504
-0.145894
-1.61124e-05
-2.46183e-05
-0.000139964
0.0158917
6.9103e-06
3.82777e-06
0.000768373
-1.27972e-05
0.0101899
4.35888e-05
0.000210863
0.000294354
2.67931e-06
-0.000377915
-0.0694953
-0.0562215
8.53357e-05
-1.67971e-05
-0.000297826
8.27568e-05
-9.98767e-05
9.62349e-07
0.00996992
-0.00223117
7.41984e-05
5.7602e-05
-8.65247e-06
-0.000114601
0.00119685
0.120205
0.543341
0.000284326
0.0503248
-0.00183997
-0.00242501
-0.014695
-4.49537e-06
-0.0659109
7.27548e-05
-0.0902167
0.46105
-0.0656325
0.0119937
-0.000118026
-6.9022e-05
-0.0124906
4.46455e-05
-0.0347442
2.83301e-05
5.03471e-06
-7.81319e-06
3.88428e-05
-0.000167725
0.154279
0.0545866
-0.166763
0.000140339
0.00063267
0.000112289
7.47938e-05
8.99952e-06
1.99077e-05
-0.0018829
0.0165199
0.000165405
-7.65676e-05
-2.51767e-06
9.7099e-05
0.746314
0.000250214
0.000125534
0.000206957
-0.00053501
-0.000201322
0.000991514
0.000995914
-0.0741399
0.000301745
-0.000206461
-4.96338e-06
-1.22234e-05
-0.0112473
0.0034765
0.000775067
-9.78e-06
0.19699
4.53797e-05
1.68094e-05
-0.000240375
-0.0973666
0.00750096
0.000605733
-1.1954e-05
-0.0705162
7.82019e-05
-7.91194e-06
-0.000109569
0.341243
0.641012
5.29056e-07
0.69778
0.068274
0.000131667
0.000973805
-0.000113258
-0.151973
0.000305596
-0.105018
8.53621e-05
-0.00318695
-0.011572
-0.102507
-5.71502e-05
-1.77955e-05
-0.119908
-5.2231e-06
9.62147e-05
-0.494761
0.007246
-0.000639456
-0.01496
-2.52172e-06
6.5409e-05
0.136055
1.57075e-05
-1.42181e-05
3.02407e-06
-8.0826e-05
-5.45712e-06
0.000627668
0.000125098
0.026864
0.094835
3.7856e-05
-0.0413766
0.000118726
-0.1053
-0.0815008
2.48943e-06
1.67614e-05
6.35051e-06
-0.00426978
0.169369
-0.000482097
-0.0924901
-0.066526
-0.00548318
-1.39613e-05
0.0171858
0.0223399
0.000890508
0.304229
4.24028e-05
3.46829e-05
3.26905e-06
0.000127948
-1.65733e-05
-0.000232993
-0.0611645
0.000677234
0.0051821
-0.185699
0.00776923
-0.0259377
-0.130789
0.000570397
-0.129424
-0.000414645
-0.00180724
-8.83738e-06
4.93592e-05
-0.00134218
-0.0862295
0.000132924
0.0427857
-0.125153
7.21159e-06
7.03562e-06
-0.000137758
-0.000360339
8.95261e-05
-0.000454562
-0.0647476
-7.99524e-06
-8.36131e-06
5.3358e-06
6.28504e-05
-0.00213831
-0.0713042
0.000761448
0.0209269
7.26334e-05
-6.42545e-06
0.0149253
-0.000350746
-0.0002819
0.380356
0.152685
0.0415542
0.0404355
-0.066817
3.78608e-05
0.0760432
-0.0845107
0.00212067
0.0423419
-6.27166e-06
0.000175186
0.000176928
2.82577e-05
0.00073459
-0.000383522
1.63223e-05
0.000219629
-0.00339763
-0.0848606
-1.96975e-06
0.00337007
-0.151116
-0.124086
1.02202e-05
0.000377237
0.000254507
-1.11054e-05
-6.9273e-06
0.255565
-2.70685e-06
0.525227
0.0146462
-0.0182267
1.86343e-06
-0.00019916
0.00242748
1.51781e-05
-1.17715e-05
0.223297
0.503265
8.29915e-05
0.000684893
0.0127276
0.550961
-0.14175
0.434031
0.000227053
0.0124931
-0.0534925
0.000179582
-1.77508e-05
0.00198503
-2.50903e-05
-1.18228e-05
-0.0440742
0.000584713
6.00559e-05
7.2121e-05
0.000337875
4.84174e-06
-2.73993e-05
3.57112e-05
4.76909e-05
0.381449
6.34702e-05
0.219699
0.0417966
0.000201805
-0.0010092
0.0751147
-0.0756083
0.280033
-0.000206307
6.84229e-05
0.000167392
0.000222909
0.00887925
-0.0100559
3.22448e-05
0.328612
-0.0847404
0.000297094
-0.00147544
-0.00105778
-0.00220418
-0.000634816
6.12326e-05
-0.000302485
0.00280303
-0.00534582
-0.00942101
-0.00208589
-0.000855968
0.00030835
-1.60431e-05
-5.31009e-05
-0.00187628
8.83234e-07
-0.00302781
-0.146218
0.0117707
-0.112561
-1.37311e-05
-1.71406e-05
-0.00587738
0.0931878
4.21244e-05
0.000226739
-0.00190846
-0.348357
0.0182292
2.45056e-05
0.000614724
0.000124953
-0.667032
-0.00634467
-1.11368e-06
0.592746
-0.0845593
-0.00158716
-0.106467
-8.08327e-05
0.0126362
-0.143136
-1.62706e-05
-0.120221
-0.102481
0.000110749
-0.00010447
0.000296764
0.000367423
2.75649e-06
-0.00432707
0.464584
-1.33049e-05
-2.36925e-05
0.0688737
0.173857
-0.00010002
4.13711e-05
0.678594
-0.000659643
-0.125686
-0.0454305
5.01914e-06
-9.92819e-06
4.15783e-05
2.77763e-05
-0.0786707
-0.0245685
-0.0290978
-0.00192289
0.607778
-0.203766
1.9221e-05
-9.93912e-06
-0.0854044
-1.01977e-05
-0.112865
0.000170785
-0.12011
5.60799e-05
0.000119718
-0.256958
6.02097e-06
-0.00292376
-0.0164243
7.18912e-05
0.000219177
6.30977e-05
0.0873339
-0.051981
0.000886255
-0.115584
2.82758e-05
-1.19389e-05
7.46441e-06
-9.21518e-05
-0.14407
-0.256536
5.72598e-05
0.337977
-0.000123814
0.138484
0.000373225
-2.39913e-05
-7.44995e-06
-8.7487e-06
0.378757
0.00159167
-0.00329629
0.000559013
0.000832071
1.24004e-05
-0.00697519
-0.00227669
-0.595236
-3.45886e-06
7.50436e-05
-1.25042e-06
-0.0994013
-0.00788628
0.0316272
0.177057
9.83729e-05
0.613689
-7.12766e-06
-0.000311808
0.00127894
0.659013
0.220279
-6.14817e-06
0.00182687
8.96923e-05
2.55655e-05
-0.000705266
-1.13298
0.0207564
7.04101e-05
-6.71427e-05
0.00244721
-0.0267012
-0.0931629
-0.0487087
-0.027315
1.07144e-05
-0.000313453
5.1941e-05
0.0063971
-1.90205e-06
0.000231663
0.00019376
-0.00027603
0.00530097
-0.0284165
1.28716e-06
-0.000864657
-0.102325
-0.00186923
0.000219809
-0.119541
-0.00222775
-4.95861e-05
6.31171e-05
-0.00775949
0.000151595
3.45762e-05
0.652324
0.00728718
-0.0279677
-4.38136e-06
0.0626369
-0.0772522
0.116559
-0.00349533
3.07074e-05
-0.00206549
-0.00168363
-0.0276431
-0.000557837
3.77578e-05
0.262827
0.000927217
0.0127748
0.000384182
-0.15698
-0.0156284
0.0965943
-6.81691e-05
0.0141513
0.000195362
-0.0572166
0.00210174
0.261322
-0.202189
-1.16743e-05
-2.59693e-06
-0.0757299
-0.111215
-0.000462721
3.83177e-05
0.000503351
0.000632966
0.0585993
0.00138491
-0.100225
0.000263452
-0.0903251
0.000253596
0.0343643
3.7045e-05
-0.0162624
-0.133156
7.13719e-06
-0.00234178
-1.08799e-05
8.0197e-05
7.59271e-06
0.0120965
5.68031e-06
4.63896e-06
-0.135523
0.0576318
-9.7825e-06
-0.135253
6.10997e-05
4.82086e-05
-6.51828e-06
2.39245e-06
1.23948e-05
0.282744
-0.145377
-1.81538e-05
-0.00957377
-0.0014656
-0.00098058
0.640426
-0.00209037
0.000235773
-0.000331005
-1.52756e-05
0.010134
0.000587977
-0.139137
0.000114746
0.025534
0.55022
-0.000290156
0.031627
-0.0817986
-6.17817e-06
-0.0594339
-0.000216641
-0.00101229
0.00091333
1.70613e-05
0.000404266
0.272953
4.70275e-06
-0.00280672
-8.07663e-06
-0.0266728
-0.000657409
0.16638
0.0357821
-0.00640864
-0.129876
2.53358e-05
-3.2556e-06
-0.00144117
0.000116145
1.5545e-05
1.57288e-05
0.000337116
1.14135e-05
-1.28144e-05
9.88182e-05
0.000691583
0.000135165
0.000386426
5.13328e-05
0.00100259
-0.00262895
0.000151983
-0.0477872
0.000131412
-7.02885e-06
-0.00138141
-0.000809481
4.22199e-05
1.27249e-05
-0.00349026
3.39937e-06
-0.0771089
7.99463e-06
-5.19249e-05
-1.11337e-05
4.01555e-05
-0.000713585
-0.152282
-0.00154048
0.000686614
-1.21403e-05
-0.127274
8.45794e-06
-1.31561e-05
-0.00165264
4.74137e-05
0.00233864
-0.102748
-0.00150014
-0.00414012
0.000481033
-0.0306073
4.13863e-05
1.71859e-05
-9.54044e-05
0.0122358
-0.00142335
7.4283e-05
-0.0717522
0.000383135
1.25376e-05
2.70137e-05
0.704112
-0.00154028
5.46282e-06
-0.00222922
-0.00212301
-0.000467756
1.1229e-05
5.59802e-06
-0.00350121
-0.000309165
0.0376596
-0.0746658
0.000232278
-0.00109576
1.1475e-05
-0.000879
0.57734
3.97593e-05
0.00626073
0.0699985
-0.000159035
0.121021
3.06445e-06
3.37878e-05
-1.54967e-05