/*--------------------------------*- C++ -*----------------------------------*\
| =========                 |                                                 |
| \\      /  F ield         | OpenFOAM: The Open Source CFD Toolbox           |
|  \\    /   O peration     | Version:  v2012                                 |
|   \\  /    A nd           | Website:  www.openfoam.com                      |
|    \\/     M anipulation  |                                                 |
\*---------------------------------------------------------------------------*/
FoamFile
{
    version     2.0;
    format      ascii;
    class       volScalarField;
    location    "1000";
    object      omega_0;
}
// * * * * * * * * * * * * * * * * * * * * * * * * * * * * * * * * * * * * * //

dimensions      [0 0 -1 0 0 0 0];


internalField   nonuniform List<scalar> 
13851
(
0.16215
0.0254422
0.0252995
4.18855
0.0220829
0.0275641
0.0261274
0.021912
2.76309
0.0220514
0.0679947
0.0220834
0.0221575
5.04297
0.0411016
0.19345
6.40253
0.0221812
0.999219
0.161402
0.045768
0.0269924
22.14
0.0222638
7.51263
0.0777542
3.96211
5.18739
2.6601
0.0218435
3.87209
0.0261049
0.161518
3.0443
0.0466538
2.64749
0.022274
9.99874
3.36774
0.0222163
2.99386
2.6783
17.2277
0.62526
2.73362
0.0219584
0.0216911
0.179051
0.0240739
0.0221473
6.52189
0.0222048
0.192677
0.0352856
4.9892
0.0222125
0.163326
2.94696
3.78202
5.45603
0.0220905
3.92667
0.0220983
0.0242166
0.225862
0.239823
7.5923
0.0701328
0.0223159
3.94322
3.45726
0.0541579
0.0220758
6.65773
0.0369928
0.0242524
5.07591
0.0217487
7.40743
0.0219768
0.0223441
0.437475
0.0459199
4.78696
5.17476
3.6683
0.0272474
5.66433
0.0220455
3.92067
0.0222383
0.0262041
20.6979
3.56586
3.08098
0.370054
0.0219784
0.196307
6.36419
0.185984
0.204342
0.0433936
0.0479639
0.0221329
0.0219604
0.0517501
0.0219592
3.50002
0.026189
0.0221368
0.0321368
0.021961
0.184575
0.0663188
0.162274
0.0341724
0.0218178
0.0218601
4.29898
4.26578
0.232717
0.0219655
0.0222839
3.05999
0.372223
0.125885
0.0219784
0.0596212
2.87734
0.0515413
0.0269331
0.0334505
7.63593
2.99328
0.069476
3.10675
0.0656614
3.57639
0.0368857
0.0514279
0.396669
0.0227923
0.0220455
0.110791
6.67583
0.0239227
0.0217403
3.60405
2.89309
0.0622065
0.201781
0.175802
0.0706119
0.330158
0.0223354
0.0220693
0.0221044
3.26784
0.0475648
0.0249389
0.0222429
2.65251
0.0509688
0.17761
4.94587
2.74858
2.76998
5.27006
0.0316979
4.88293
0.0221053
0.0218168
0.0625299
0.0221392
3.11192
4.2342
0.222593
0.0218078
0.037078
0.216888
0.360201
0.581895
0.0308447
0.0512004
18.5902
2.8481
0.161707
0.0297686
0.0222656
0.0218958
6.74143
0.04749
7.45328
0.0276759
0.0237561
0.195441
0.156226
0.0225907
0.0225324
0.0734123
0.393507
3.01482
2.96371
0.041205
2.80308
3.00601
0.0237979
0.0513542
2.7686
0.0267456
0.191862
0.0222618
0.422826
0.0222347
0.0475691
0.0250932
0.0221241
0.31129
0.0226107
3.8349
0.0218033
0.160461
6.3436
3.10377
0.0294712
0.0520445
0.0222638
0.095344
0.0220239
0.0469211
7.05408
0.0293564
0.0267497
0.0221182
2.93385
0.0218425
16.5835
2.95755
0.162207
0.0222513
1.2464
4.82731
2.77165
0.192869
0.0361994
0.146661
0.281609
0.0373396
0.344065
0.0342096
5.56053
0.157408
0.0218769
0.0277609
0.199533
2.64825
4.25094
0.0218893
0.132989
0.0220434
0.267436
0.335729
0.0283477
0.0516319
0.163599
0.0220282
0.0458651
0.139139
5.01758
0.0220869
0.0221169
0.0296075
2.84607
5.80532
0.0507645
0.0219967
0.354357
0.330292
0.138271
0.0511456
2.81101
6.69548
0.0286335
0.0373983
10.2794
0.021957
0.0221036
0.143469
0.0597087
0.0218504
0.022232
0.022017
0.0220024
0.0361767
0.0220972
2.75726
0.0478458
0.0220827
2.64453
3.17179
0.0222417
0.163761
6.72448
0.0229307
0.022263
0.0497019
5.3561
5.65471
0.0692161
0.0220731
4.94276
0.0220979
0.0747181
5.25754
4.93615
0.0247543
9.94455
2.88506
3.50061
0.171278
0.046661
3.18184
2.89365
5.24359
0.0226311
4.47958
21.652
0.79922
0.736378
0.023813
0.068122
0.0303766
5.05085
0.0496478
0.0218839
0.0215939
0.0287828
3.43386
3.2053
0.0219512
3.07876
0.0305474
0.0337495
0.0251387
6.86065
0.352159
0.196578
0.0247816
0.0261498
2.629
0.0222823
0.378888
0.0285567
0.0496363
0.031474
0.0220435
0.0220795
0.166204
0.205545
0.159411
5.65265
2.64307
0.0240099
2.93245
0.581981
0.0218499
4.90175
0.100893
5.20835
0.0282155
0.0832599
3.75535
8.54771
0.156118
4.58346
0.02314
4.29439
13.1373
0.0327139
4.34877
0.0356166
3.02134
0.036811
0.0472127
0.157571
0.280987
0.0220715
0.0280462
0.0640165
0.0372825
0.0219804
0.0512961
3.69038
0.0220743
0.0513965
5.00872
0.0250539
4.44835
0.0512218
6.08169
0.0273499
0.0729802
2.15139
0.418296
0.050909
5.19678
6.5735
1.07501
0.0220321
0.157401
0.0356851
0.0823244
0.0219705
17.9278
3.74348
8.27717
0.026111
0.161202
4.00676
5.43395
0.0217038
5.90993
0.325501
22.9131
0.0353218
5.73365
0.0220676
0.022127
6.23048
4.05414
0.0220502
0.0254699
0.0522097
0.0218454
3.94809
0.0686791
0.0988423
0.0278105
0.0231627
0.0222126
8.33343
0.0220715
0.0221877
3.40142
3.81055
0.0264431
3.69352
0.0221048
0.0220959
0.0254702
0.163502
0.0510883
0.0219956
0.023541
0.219463
0.0243152
6.94873
0.0220785
0.0303273
2.75641
0.0363728
0.0216388
0.0221221
0.0276716
0.0228249
1.04469
3.2133
0.036513
7.57159
0.0255472
0.0220622
2.8368
3.75624
0.0358664
0.0221079
2.92962
0.0351053
6.14403
0.0221307
0.0337801
0.160921
0.0390538
2.85014
4.00258
8.29209
0.0241505
0.179544
0.0220301
2.65729
0.0509519
0.155602
0.0354913
0.0245455
0.0364212
0.0632501
0.0220946
5.71195
2.82613
7.38193
5.41283
3.27891
3.87476
0.391513
0.028509
0.0222071
7.51189
0.0220527
0.0219754
0.0306332
3.12341
0.0252423
0.0227723
0.0919989
0.0504807
0.0220526
6.4319
0.0219757
2.90448
0.945156
0.0219755
0.0245564
0.342291
4.97162
0.021852
9.66497
13.2271
0.0219105
3.39631
0.685737
0.157978
0.0241139
3.45836
5.36336
0.0219421
0.473315
0.0222943
0.0219786
3.44564
3.04788
0.041785
0.0501112
0.022053
0.064442
2.90565
3.20105
0.0220801
5.10843
0.0219893
0.0223225
0.0514256
0.0305601
0.0217011
0.0242582
3.42046
0.263471
3.3315
0.024796
0.0220408
2.85802
0.0221792
0.159697
0.0300567
0.0369474
0.0359243
2.90295
5.36371
0.0275187
5.98472
0.0244192
0.0679265
2.69541
3.86054
0.0222666
0.0220348
0.0486141
3.33036
3.43696
0.0635347
11.753
0.0307771
0.0357949
9.24797
6.45648
0.163343
2.87282
0.28514
2.67684
0.0228512
3.7725
5.80896
0.0220816
15.1673
4.67195
0.0317375
0.0513451
0.0221684
6.71862
0.079751
15.6415
0.0220727
0.0221658
0.026769
0.0496866
0.0220876
3.08437
0.0221601
0.234078
0.0241851
0.0835237
0.0221302
0.022053
0.0484718
5.37048
0.0506965
3.09097
0.0338061
0.0218554
0.0219378
0.0630717
0.0235249
0.103632
0.0257899
0.0351751
3.73619
0.0221809
5.31733
0.0222536
0.116939
5.12738
2.77921
0.0288647
15.8052
0.0888109
0.274021
4.47523
0.0221762
6.14106
0.0305854
0.0338454
5.20727
6.55799
0.0218677
0.100969
0.0225691
2.64277
5.81438
0.0224483
0.0739739
4.0905
0.0222632
0.022252
0.0787887
6.60864
3.63797
0.0222678
0.156979
0.0240307
0.0220535
3.71039
0.159808
0.173608
0.02167
0.140089
0.0474083
0.0678379
0.0227382
0.0235696
0.0752475
0.026643
0.157593
0.0541783
0.0540306
0.134631
2.93735
0.694833
3.48603
9.55034
0.195556
3.67977
0.0411885
3.38913
0.164502
0.0220966
0.0349682
0.380905
0.027971
0.0219779
0.0219725
0.116831
5.37521
0.0305009
2.93412
0.0218597
3.58834
0.153241
7.18814
0.100252
0.0275147
0.0253056
5.86567
0.172905
0.039603
4.06137
0.0229752
6.08042
0.117785
0.246438
0.0347736
0.616861
0.0220666
0.0222452
0.023497
0.0220535
2.69241
0.0220022
3.68004
2.81748
0.102367
3.20936
5.61113
0.252485
0.297501
0.0287352
0.0221799
0.0220999
0.0217502
0.0219299
0.0221413
0.0686219
0.173923
0.0510863
5.17107
0.0235278
2.77513
0.0222934
4.21909
0.0431345
0.0222834
0.0221334
2.77671
0.0277211
3.89112
4.65549
0.0494216
0.0728186
0.0218924
2.9846
0.0248264
0.0252766
3.72883
0.0221834
0.0227944
0.022098
0.0508474
5.00759
0.030978
0.0352361
0.358425
3.15725
0.0293622
0.0275043
2.69724
0.0217448
2.67532
0.0222022
0.0243552
7.24824
0.0903333
0.158276
0.0939867
0.0510255
0.022227
0.0222936
0.0727087
0.0229345
0.0222345
0.0313366
0.335717
0.021988
0.252805
3.26903
3.88903
0.0923147
4.72321
0.0372699
0.0221754
0.152805
0.0218712
0.0281159
3.59086
2.64026
6.18782
2.75643
0.0225542
0.0224168
0.0716817
0.023373
0.0219392
22.4153
0.27969
4.21438
0.119028
0.0923021
0.0220578
0.0218495
6.04902
0.098786
0.0247598
0.0222529
0.158945
0.205628
2.95218
0.0223165
0.0221521
6.09241
0.0227097
0.0357685
0.0218474
3.13396
0.0219587
4.57479
0.0220785
0.14502
0.042877
0.0713968
0.0351089
0.0220734
0.0254668
0.0220244
3.63125
0.0227465
3.4837
0.0230849
4.40439
2.84151
0.0330525
0.0220056
4.45262
3.26195
0.028087
0.0901927
0.022096
6.03997
0.0221323
0.394385
0.02207
0.0220212
3.9387
0.0361669
0.0221126
0.0358131
2.90232
5.24262
3.96379
0.0218877
3.39559
0.02208
0.0219948
0.0223372
0.0215453
0.0222331
4.04373
3.61811
0.0226179
0.0221563
0.0421876
0.0219622
4.35803
0.157179
4.36543
3.2298
0.0253952
0.157725
0.022075
0.0456353
0.120962
0.0221587
0.0222105
1.58396
5.63034
0.0710232
14.5853
0.0674849
0.0221025
0.0439731
0.0920688
6.4075
0.0347672
3.94768
0.101492
0.0222237
13.8126
12.5976
3.88069
6.80546
3.44103
0.0241172
0.142356
0.0221837
4.57011
0.0274371
0.021886
3.90507
0.0233953
0.0220066
0.0222688
0.0232207
3.08708
0.3714
0.0219038
0.0446416
5.20593
0.0236703
13.8209
0.0234052
0.0854068
3.04068
0.0221001
3.53983
0.030844
0.0345261
5.93452
0.0233925
0.40166
0.0722936
2.96014
0.0227608
3.91465
0.0323426
3.5191
6.57548
5.0848
0.0495848
0.0220846
0.0225606
0.0222632
0.0450198
0.0221245
2.85215
0.0299239
0.0283525
0.0291232
0.024054
0.0218813
0.02957
0.0285278
0.024549
0.0280165
3.98336
3.58752
0.0317441
0.0522983
4.04861
0.0228297
3.44026
0.0217497
0.0342082
0.0227505
0.022075
0.046562
0.0220573
0.0218986
0.0473118
0.0220761
0.312034
0.0233062
15.9039
5.13944
0.284456
0.345955
0.0223966
3.15882
0.190467
0.022226
0.0284157
0.0226753
3.53682
0.0233616
0.0457621
4.85296
5.64603
0.0839717
0.0224187
2.85379
4.84228
3.3908
0.0307201
0.0218482
0.0220663
0.0693734
0.0220753
6.56725
0.167797
0.0221977
0.45297
0.325294
0.0220717
4.14494
5.08998
0.268668
0.0232072
2.86044
0.0681216
0.022026
5.43975
0.0273162
0.0220187
0.0219804
0.0354915
0.0452852
2.76523
4.3036
0.0461313
2.77173
0.0372223
0.0220449
0.0840629
0.0219771
3.56059
0.022096
0.0220479
0.0244916
0.0228779
2.83011
4.95594
3.24205
5.5462
5.70171
0.0294566
0.0220875
0.023308
0.456904
0.0220822
0.0220448
0.0453014
7.3321
3.39589
0.0217345
0.0408429
0.0354181
0.156436
13.9008
0.0219116
0.021686
0.0246553
8.31222
0.0313476
2.90518
0.0235439
0.0221633
0.0220291
0.0219779
0.0250637
0.250565
2.70274
2.74799
0.0290678
0.0220625
4.39613
0.0228382
5.74524
4.09846
0.031148
4.4748
2.67792
4.16031
0.0601721
0.0345695
3.09175
0.0327521
0.0345176
0.0735564
0.281789
0.0228566
5.09263
0.0220473
3.6044
8.29864
0.0217531
0.0242066
0.0474848
0.40423
0.0361531
0.022143
0.0302385
0.0233235
0.0275315
1.15295
0.0221629
3.19481
4.9023
0.0220537
0.0334282
0.0448642
0.0220871
2.62249
10.9699
3.16543
2.97215
0.0220464
0.0252904
0.0275609
0.0223567
3.35394
0.0366335
0.0222566
0.0677277
0.0260465
4.26017
0.0430454
6.75723
0.0232052
0.0236643
0.0501488
0.098362
0.0744803
0.0220239
12.0028
3.32104
25.0623
3.55643
3.52483
2.75195
3.72266
0.0220226
0.0220411
0.0223103
3.3516
0.0501727
0.0739898
6.06319
0.022655
0.0217053
0.0220525
2.93715
0.0217322
0.0283989
0.0241254
3.56704
0.0231437
0.0218767
0.0220909
0.0220504
0.0221629
0.0348168
3.10256
0.0346984
4.28847
0.0220454
0.0219811
2.87477
2.90404
5.71139
3.75358
0.0489265
3.58108
0.0218427
0.0623918
0.0236647
0.0220835
0.0256198
4.13003
0.0237379
0.099872
6.80507
0.0226933
0.0220584
0.0266658
0.286963
0.0222719
3.55702
0.0222925
2.90131
0.0221264
0.022606
0.0282051
0.0989921
0.0221711
4.00143
3.50341
2.19957
3.02743
0.0220661
5.30333
4.56643
0.0220576
8.45008
0.0223409
0.0422264
0.0222668
0.0226448
0.0219684
0.02205
0.0226911
0.027574
0.0706022
0.0225032
0.0220985
0.0629509
0.021857
7.16558
0.0221266
0.0340095
0.0372422
4.37711
5.28641
0.0221481
0.274971
0.0218412
0.0338438
0.0711052
3.76491
0.0516863
0.0222723
0.134075
0.076231
0.0907212
5.16795
0.0364706
0.15729
0.0632689
0.0723795
0.0231063
0.0219746
3.93193
4.76284
0.0253395
0.0220227
13.4606
0.0218652
0.0449121
0.0219784
0.0829111
8.74833
0.0216369
5.25195
0.0274209
0.0221709
0.21497
0.0218859
0.0402865
2.85097
0.0423405
3.88722
0.0219636
0.0222647
0.0437326
0.0222257
0.0222465
0.0301604
0.0314139
0.0709103
0.0862155
0.0221653
0.0407842
0.0219479
0.0220688
0.0222149
0.0220596
1.84256
0.0221214
0.0234385
3.65421
0.0218599
0.0220115
2.88293
0.0222497
15.5858
0.0239783
2.9486
0.331059
0.0525042
4.64181
0.0669656
1.94209
0.0227808
0.222269
0.0279947
0.0219609
0.0219609
0.0234095
0.0330809
0.0220366
0.0555925
0.0219213
0.0236659
14.4238
6.48929
4.1093
0.0254959
0.0477107
4.20816
5.5288
0.0221732
0.0280731
1.92508
0.0225146
0.0421874
5.24429
2.75062
0.0291949
0.0469802
0.0230868
0.347013
0.022285
0.0367807
5.56408
0.0222609
0.0219387
7.36514
0.0455288
3.54241
3.078
0.117372
0.0225358
0.0219243
0.0226488
3.86597
5.75169
4.58701
0.0581353
0.0220565
3.66338
0.0221109
0.176093
0.0267767
0.0243487
0.0456955
0.0220651
4.42717
5.72217
0.0219016
0.0706308
0.0515409
4.99088
0.0464732
0.0631867
3.48417
0.0371604
3.54021
0.0655522
0.0221136
0.0389098
0.0827897
3.39711
0.0220429
3.92212
0.0489513
0.0672294
0.0222726
5.59875
0.0275979
0.0239485
0.0219446
0.0408955
0.0397219
0.0571072
0.0221281
0.0229578
0.058668
21.5716
0.0621453
0.0221579
0.022716
0.0389201
0.281285
0.0221721
0.0887164
9.78976
0.0493701
2.84914
0.0447236
6.75916
0.401213
0.022025
4.98054
0.0222385
0.0256083
0.0354067
0.0367913
0.102628
0.0508801
0.0444267
0.0466547
0.0326719
0.0246074
0.0217242
0.0854482
0.0268248
0.0292763
5.19421
0.0269281
0.0311957
0.0219709
4.40086
0.0834824
0.0221599
0.0257746
0.0233245
5.46574
0.161396
0.035394
2.73996
4.98936
1.13948
0.0973904
3.55236
0.0219211
0.304342
0.0220414
0.0270365
10.3925
2.61951
0.540679
2.02711
0.0221228
6.71258
0.0219177
0.0902573
0.0257345
3.57484
3.91082
0.0282098
0.0220249
0.43383
0.0432643
0.0220328
3.44511
0.022072
0.024035
0.0268289
0.0222556
0.0322117
0.0234436
0.0220587
0.03606
0.512157
0.043107
0.0622818
0.0220299
5.52201
2.63866
0.0220075
3.8389
0.0256666
0.0295499
4.26705
0.0220044
0.0228876
0.0283674
3.36084
0.0220406
0.0221829
0.042041
3.389
0.0219911
0.0328079
0.0353644
5.1138
0.048011
0.0416607
0.428652
0.0220768
0.121376
0.0217564
5.90616
0.0313885
0.0220551
0.0293181
0.0977007
0.0221511
0.0224868
0.16343
2.88602
0.0228201
5.35708
0.022188
0.0217515
0.0672803
0.0220419
0.0221207
5.04411
0.0222735
0.0429262
0.210648
3.57181
5.058
0.022069
0.0241387
0.0284171
0.0220773
0.0220763
0.0220995
3.61705
0.0221955
3.45915
0.138323
0.0219371
0.0218719
0.0315565
0.138909
3.78172
0.0570468
0.0631863
0.0242948
2.74907
0.0791244
0.0337969
0.0443055
0.0671906
0.0953647
17.804
0.0428396
3.30876
4.4431
5.15375
0.0257581
0.022068
0.0397924
0.0343988
0.0219756
0.0228464
0.134809
0.0222434
0.0225561
0.0220581
0.0216766
0.0244746
0.0223042
5.36776
0.0220218
8.67387
0.0220847
0.0896194
0.0229179
0.140412
0.0805526
0.0220884
3.5296
0.0240516
0.0222255
0.0432636
0.0219359
0.0314637
0.0221867
2.76594
0.0247463
0.0442368
0.102855
3.605
0.0292353
3.45601
5.22466
0.0527948
0.0223887
0.0235232
0.111302
0.0663422
5.94034
0.0218599
4.48627
0.0222267
0.0901463
7.3344
0.0376731
3.56084
0.0259147
0.0342333
0.0253369
5.42762
0.0325049
0.0221423
0.0506309
0.154008
0.0238989
0.0220496
0.0221437
3.30784
0.0222521
0.0284254
2.931
0.0265835
0.0220264
0.0584788
0.0255971
4.03015
0.021707
0.022043
0.0218875
0.0261648
0.0227491
0.0224007
0.0675742
2.8382
0.0220112
0.0221041
4.64422
0.0227295
4.91935
0.0250566
5.1514
0.0219511
0.0247541
0.0218406
3.39919
3.04424
0.0312494
0.0722588
0.0270505
0.0220291
0.022118
2.80239
0.0221371
0.0900183
0.0219055
0.0474084
0.02219
4.40355
0.0218668
0.0489639
0.0219151
0.502444
0.991084
0.021907
0.0459398
5.16905
0.0717102
3.6644
3.57872
0.244384
0.0235035
0.0358463
0.0989316
5.0417
0.0226808
0.0426025
0.0284955
0.0220947
3.6166
5.6514
0.0720936
0.182783
0.413043
0.0348243
2.86552
0.0219705
0.021895
0.0999675
6.31821
0.271065
0.165748
4.7761
0.0218455
5.6733
3.29412
8.22945
0.0222028
4.39556
4.38364
1.06438
4.05514
3.01323
0.0927161
0.0318213
0.186332
0.0259024
0.0220573
3.2169
0.098762
0.0217086
4.24314
0.0221888
0.0301644
0.0451881
0.0270361
6.35803
0.0353426
5.26034
0.0486806
0.026279
4.50667
3.14836
0.157059
0.0224023
0.0259829
0.0739149
0.0600456
0.0218554
0.0494927
0.0633016
0.152139
0.022038
0.229201
0.0248402
0.0509814
3.39666
3.53877
0.0231425
0.133178
3.71912
0.0222586
0.0230955
7.36609
0.355919
0.025053
0.0256013
0.0220951
0.0759941
0.0269525
2.6775
0.102111
0.0226485
0.0222233
0.0674185
0.0306812
4.65035
5.36881
0.021942
0.022043
0.0287395
0.0221948
0.0249953
0.0232373
0.0232043
0.0260279
0.0219822
0.0253439
0.0222222
0.0511102
5.09238
0.0222641
4.06479
9.02227
0.021758
0.243591
0.132389
0.0860866
0.0229206
0.0987557
0.0285309
0.0805276
0.0314975
0.0237307
0.0222095
5.85105
0.0306676
3.83822
0.0228939
0.0220495
0.0220317
0.0720079
0.0220029
0.051829
0.065194
1.62136
0.0219435
4.55366
8.32891
3.1983
0.0218379
0.144754
1.00128
8.42602
6.81371
0.0225851
0.0224844
0.160887
4.70871
3.91386
0.0430389
3.86417
0.0222315
0.0220037
0.0415852
0.0221962
0.0221441
0.169478
0.0222652
0.0910273
0.0219445
3.10408
3.80198
4.31437
3.4436
3.39442
0.0221614
0.0221465
5.20012
0.0218827
0.0219186
0.0217546
0.122308
3.05123
5.41757
0.0279171
0.0225233
0.0235845
0.0386595
5.17378
0.0220392
3.59475
3.15991
0.0221891
0.022178
3.49761
0.0848296
0.0242962
0.0220509
4.07974
3.43143
0.0222425
0.274761
0.0222535
3.08496
3.05104
0.0247408
6.94315
5.56714
4.61465
0.0219226
0.0226731
0.0222447
0.0222862
2.94269
0.0219747
0.236808
3.59652
7.20111
0.0231076
0.0594408
4.89664
0.0502852
5.20962
3.35932
0.0216785
0.026939
0.0270957
0.188437
2.89283
0.0216557
4.73456
0.0332619
0.0461313
0.0229269
0.0219536
0.326246
0.0416445
4.38864
0.022196
0.0562952
0.0229707
0.141603
0.025221
2.82088
4.51355
0.269342
0.108541
0.0220267
0.0243491
0.0915621
0.224628
2.82677
5.02548
0.02215
3.62441
0.0944569
3.42499
0.0289941
0.0449524
0.0413337
0.0223328
4.42241
0.0220752
0.0345942
3.1062
3.04283
1.89268
2.98575
0.0291901
0.0510418
0.021873
3.12932
0.0280711
6.404
0.0218659
3.86683
0.0216433
0.0220143
0.0340817
0.031766
0.033319
0.0220672
3.15505
0.0478632
0.021979
0.0391991
3.42616
0.590367
0.0220587
3.52814
0.024989
0.0372468
0.0352562
0.0217304
0.0640399
0.0220088
10.0174
0.0829001
0.0290349
0.0220424
0.384821
0.0417248
0.0218672
4.34015
5.87469
0.336705
0.0218804
5.03307
0.0221422
0.145237
0.0295742
0.119858
6.49585
3.3565
0.0349538
2.99049
0.0511786
0.029239
0.0218783
3.9671
0.114197
0.105157
0.0617692
0.0222435
3.49818
0.0877345
0.416141
3.56938
4.59849
3.10621
6.90514
3.96661
0.0296966
0.0320309
0.0220996
0.0223213
0.0216749
0.231881
0.0300193
0.0341034
3.456
0.0219767
0.0218769
0.0454333
0.155814
0.0294575
0.0218635
3.03453
0.0250147
0.0512463
0.0223557
4.66872
0.0292641
4.04581
0.0576305
0.0359193
0.0537767
0.0220931
6.85713
4.75308
0.0700697
0.0221486
0.0219173
6.33942
3.62638
2.63925
0.0220382
0.0711851
4.79787
0.022324
0.0220138
0.0222596
2.99349
0.102736
0.0359337
0.0297056
0.0276322
3.60065
0.0897088
0.343975
0.0283925
0.0344343
0.0216746
0.126833
0.0563162
0.0220398
2.81193
3.3729
2.88965
2.93624
4.04711
6.8673
5.01827
0.023203
0.0220913
4.73353
4.00775
6.5078
0.0221744
0.04247
0.022055
0.0220074
3.54039
3.09513
0.0662528
0.022016
4.16669
0.099129
0.0504299
3.7196
6.74513
3.90949
0.021922
2.82284
3.61269
0.367993
0.0351619
0.0445659
0.022201
0.0219079
0.0405343
0.0469021
0.0250227
0.043684
0.0294658
0.0255682
3.1995
3.59084
0.0322743
0.0459117
3.24701
2.33431
0.0221124
0.45701
0.919265
4.02782
0.0426266
0.0224028
0.0311679
0.0277585
0.0309411
0.0217307
0.0334429
0.0336878
0.0494102
0.237245
0.0222307
0.0234714
3.21031
2.79216
3.11604
4.84766
0.131648
0.0216149
0.0220519
0.0319219
0.0218547
4.87467
0.0220497
0.0222733
0.0217924
2.77649
17.8675
0.0225327
0.0661239
0.0292273
0.036379
0.0314437
0.0356102
0.0429157
0.038839
4.05322
0.0276304
3.76331
0.0404788
3.14675
0.0306125
0.0219405
0.0218697
0.101752
0.163815
0.0218486
0.0404397
0.0308615
0.0594525
3.46586
6.67627
4.06528
0.0222731
6.00908
0.030585
0.0378415
0.0220427
0.0692885
0.0241552
3.32709
1.97435
0.0411063
0.0220833
2.79508
0.0274672
3.86659
4.16631
3.30112
0.0248008
0.138436
3.83409
5.78604
2.87835
0.0606155
0.0221055
0.0410277
0.0220554
7.90985
0.0251625
0.0330675
4.17308
3.19839
0.0220589
0.0220328
3.3523
0.0431193
6.8609
0.0329638
0.0220512
0.0442596
0.282523
0.0439935
3.73397
0.0372307
5.56584
0.0259764
0.0222445
0.0220212
0.293214
0.022771
0.127488
0.0220632
0.0221696
0.256997
0.0277442
0.0223301
0.0220449
0.0366147
5.36148
0.0464962
0.0408687
0.0267591
0.061516
0.0221178
0.153502
0.0320633
0.0451838
0.0692286
0.0304918
0.0875104
0.045492
0.0220233
0.0706755
6.08787
2.86842
0.022413
2.27479
3.81092
0.0220196
0.0227471
0.804812
3.57328
0.0280421
3.65828
0.496365
0.0224297
0.0908847
0.0216679
0.0272872
0.0621317
10.4976
0.5072
3.34607
4.71553
2.89837
2.93919
0.0243694
3.02295
0.0220483
3.56217
3.06918
0.0221035
0.0220839
3.01193
0.0221434
0.0220895
4.32314
2.96285
0.285138
0.0278143
3.30426
0.022104
2.87484
3.3263
0.0221903
4.19745
8.22361
3.5022
3.07032
3.18627
3.18607
0.0219123
0.0233195
0.0627107
0.0675367
0.0220841
2.62913
0.0220509
3.06244
4.10649
0.0497907
3.72593
2.96808
4.01907
3.23695
0.0617533
6.3492
0.489054
0.0266233
0.021702
3.64565
0.0358246
0.0218714
5.27205
0.0220189
3.69851
0.0221716
3.01088
0.0269626
0.0220132
19.1384
0.0276896
0.0359998
3.33359
5.51334
2.18253
0.0297515
0.049975
0.0235669
0.0434336
0.140508
0.0439218
0.0222094
1.56225
0.0631626
0.0342186
3.52382
0.0426786
0.0380236
0.201613
0.0746488
0.0484482
0.0220099
0.216764
0.0218722
0.140531
3.66686
3.64675
0.0218938
0.0406129
3.92092
0.0239964
0.0652114
0.0341087
0.043523
4.45791
0.0630314
0.0235712
14.6224
0.0219013
2.79885
0.0221272
0.0235654
0.139407
2.6445
0.0337108
0.378581
0.563857
0.0339344
0.022504
0.160218
0.0464091
3.36002
0.0266998
11.2035
0.163022
0.034022
0.031014
0.103847
0.0388012
0.0741809
0.0629481
0.0391522
0.0250525
0.0225172
2.40749
0.0220567
0.0300476
0.021665
0.122366
0.0305506
0.0627891
3.27523
0.0230647
0.284136
0.0215662
0.0221932
0.0221891
0.0222065
0.0285025
0.0219629
0.0927646
6.72433
0.0624732
0.0475493
0.0264256
0.0222173
3.50016
0.0221046
3.97048
4.47086
3.89879
0.190901
0.03627
0.0291916
0.0221783
0.0303443
0.0975205
0.0438094
3.22864
0.0622071
3.85449
0.196162
0.0222103
0.021863
2.92279
0.022021
0.0316337
0.0656782
0.428734
0.0241925
2.89852
0.0221736
0.0265751
0.0220554
0.0227999
0.163435
0.121479
0.0224592
0.0354476
0.0355067
0.0486095
0.0615182
0.489773
0.342804
0.278824
0.173845
0.028323
0.0234088
0.0611329
2.64014
5.02942
2.77929
0.0343066
5.53151
0.120346
0.0233031
0.0220086
0.0681211
0.0221455
0.0355547
4.52917
0.0220012
0.0219544
0.695003
3.49087
0.0512938
1.57583
0.0221487
5.13869
0.0434343
3.15802
0.0298938
0.0221309
2.86852
0.0592154
0.0220642
0.0738364
0.0222527
0.154804
0.0302179
0.0539937
5.38283
0.0342623
4.36954
0.0219621
4.1234
0.0221787
0.0272209
0.0227638
0.0475032
0.0221442
0.0568201
2.75948
0.991662
0.0508882
0.0332256
0.0773878
0.0220274
0.0220325
0.0237199
4.21491
0.0267013
3.09175
4.10599
0.138817
0.0222154
0.143161
0.227375
0.160454
0.0280323
3.91633
0.0220343
0.021611
0.0220125
8.3168
0.0223155
0.0220605
2.7883
0.0220065
0.168805
0.101185
0.022026
2.8313
0.0306924
2.99944
0.0220776
4.73143
0.0232261
0.0710147
9.30613
0.0678558
0.0219839
0.0293578
4.01248
0.0353374
0.147986
0.0329244
0.0272573
0.139432
0.0298967
0.0227368
20.0426
0.0306651
0.0306374
0.192332
0.0220152
0.0219347
0.0221892
0.0341432
0.0221911
0.0264247
4.27524
12.6325
0.103224
6.33278
0.0674345
0.0385036
3.25775
3.70414
0.0225332
7.56719
8.48356
3.36192
4.05047
0.0324646
4.08835
2.81649
17.0562
4.5733
4.66511
0.0436011
0.0841736
0.0300072
0.0278685
0.0221896
1.34432
0.022285
4.22832
0.123606
0.322809
0.0216438
0.0780703
0.0466862
0.02364
0.0222931
0.0221187
0.122109
0.0245562
0.0227159
0.0450268
3.24679
0.0252298
0.153685
0.0218546
0.124362
0.0839665
0.0222292
0.0274025
0.0219646
3.01938
2.93219
0.192467
8.40827
0.034267
0.0912025
0.0221326
0.0454474
0.0220708
0.0225761
0.0222331
3.5047
0.0218574
0.0510061
0.711796
0.0286937
0.0330785
0.0220202
3.54284
0.203914
13.5055
4.09798
0.174378
0.481289
3.79297
0.480765
3.62337
7.00888
0.123831
0.0335102
6.61628
3.22127
0.022054
4.90533
0.148256
3.74205
0.0216603
0.0658529
3.58161
0.0222731
4.05841
0.0254712
5.49756
0.0220931
0.0221118
0.0676876
0.221108
0.0287449
0.0643901
0.0219469
0.0224245
3.14357
4.32919
6.54854
0.0593591
0.0227223
0.022509
0.0221373
0.0371597
1.07585
2.94124
4.42589
6.87992
0.0334698
0.0219591
0.021987
5.3487
6.45362
0.32307
0.0267292
0.025339
0.0838289
4.40255
6.13906
0.0216186
0.0219869
3.95947
0.0235171
0.244634
0.0283659
0.0221648
0.0334705
0.047014
3.93567
3.5904
0.0222022
0.0219596
0.0255653
3.4425
3.51598
0.0222648
0.130624
3.39469
0.021619
3.51745
2.91148
11.9251
0.0221122
5.29503
3.87441
0.0400739
0.306994
0.0262053
0.298231
0.486338
0.0269177
0.0219845
6.59966
6.1556
0.0220146
0.163497
0.14394
0.0318921
0.338167
3.54695
3.63285
3.29688
0.0304149
0.0236711
0.023939
2.90529
4.00731
3.76954
5.20592
3.81473
0.0218421
0.0481794
0.0220691
0.0221166
0.0252888
0.0219838
0.0220661
0.0225279
2.9879
11.6135
5.66179
0.0578389
0.215721
0.0366542
0.0219251
0.0219902
3.75974
0.0221404
5.23364
2.74878
0.0221793
0.022054
2.71608
0.0227983
0.516237
0.0268717
0.0217903
0.0218443
3.56952
0.0217548
3.25207
3.44637
0.0216489
0.0482966
0.0220604
0.0236958
0.0221769
0.112067
3.94946
0.0219859
3.10887
0.446881
0.0244287
0.0220561
0.0228463
0.0241644
0.0222262
0.558752
4.34507
4.92723
0.0455868
6.42654
0.0222724
0.0274399
0.0227419
0.167552
0.023607
3.78582
0.0218792
3.58303
4.40049
4.5923
0.209006
0.0218744
0.044524
0.0220267
3.36405
0.022174
0.0293464
0.0274201
0.0268056
0.0223134
0.0222511
0.0330567
3.13589
0.0222263
0.0232547
0.0249095
0.0344497
0.244659
0.0221883
4.83412
2.76294
0.0246409
3.11275
3.97071
3.5648
4.99369
0.0216004
0.023359
3.64428
2.841
0.140589
2.88293
2.98025
0.0336903
0.05061
0.0332723
3.88189
0.0220462
0.0219705
4.30088
0.140693
4.39397
0.0261981
0.0218062
0.0220542
4.3022
0.0763359
0.0247889
0.218985
0.0220197
0.0678006
0.0321559
0.0325199
0.0224543
0.022189
0.0219448
0.0258621
1.26935
4.7139
0.0216554
0.0220647
3.09206
0.0221992
0.0639439
0.0260157
0.0256324
0.0431361
0.0222856
3.63333
0.032108
0.0252954
16.8518
0.0918339
0.023548
0.0371417
0.0220563
0.0227286
6.6391
0.279328
2.9065
0.0226538
0.0221553
0.0610229
0.0274543
0.0220419
0.043604
3.31815
0.0265256
0.0422972
0.0258069
0.139011
0.0221174
0.0219409
4.18861
4.56148
4.53325
0.0220201
0.183459
0.0218389
0.022035
0.0788123
2.98863
0.0724551
0.0294695
0.183807
0.0234977
0.0322781
0.0511579
0.747029
0.0226184
0.0217038
0.0226489
0.0250638
0.0299223
0.0219857
1.14652
10.1467
0.0224076
0.0326456
0.0224571
0.0218631
2.93212
4.32012
5.49161
0.0852263
0.0224085
0.0617519
3.15846
0.0991366
0.118723
0.0345055
0.0303106
4.10239
0.278286
0.722353
0.0217972
0.0310849
0.0221357
0.0317971
5.33137
0.0216729
0.0415992
0.0255093
0.0307859
0.0233294
0.0220161
0.0218964
2.83315
0.0486772
0.0331703
0.0711343
0.0357568
6.37919
0.0319483
0.471719
0.0219713
3.67622
4.03181
5.62565
0.0222645
0.0340572
0.0220856
0.0220479
5.20397
0.0484312
3.80162
0.0220158
0.0453301
0.189138
2.95164
0.0284221
0.0218355
5.24824
0.0222851
0.0222841
0.0228388
0.0220456
5.79309
0.0219175
0.0219334
0.0372155
0.0276147
0.140891
0.126559
0.0335489
2.89631
0.0225148
0.165884
0.0220391
3.74627
0.0351052
0.442907
0.150669
2.48468
0.123213
3.46879
0.0238093
4.49055
0.0330207
3.9968
0.187649
0.0280969
0.209452
0.0222687
6.76621
0.0238439
0.0390172
0.0274941
6.13906
0.190006
3.35117
0.0315376
0.0220454
3.92509
0.227193
0.0638292
0.151176
7.19343
3.57522
0.0401048
0.261989
0.0444216
0.0219429
0.0494302
0.247121
0.0692134
22.9077
0.116839
0.02187
0.0222342
0.133789
0.0220873
4.71368
0.0717175
0.0220879
2.76988
6.25351
3.53364
0.106684
0.022311
0.0293315
0.0259409
3.18625
2.70181
0.0259542
4.24186
0.0220248
0.0319195
1.02167
0.0220234
0.041664
0.021953
0.0270597
0.0222513
0.158828
4.86121
0.030475
0.0299288
0.0218293
0.135608
0.0220285
0.0218828
0.0334051
0.0219496
0.203227
3.41956
4.07817
2.87954
0.0218632
4.21469
0.0221891
0.0371742
0.126216
0.0224734
6.57158
0.0697678
0.0221501
0.0218445
0.0435276
0.0386339
0.175282
3.37431
0.0259055
0.0243405
2.97624
0.0672649
0.352625
0.813257
12.027
3.25085
3.89009
1.29228
0.0221862
0.0221158
0.0480048
0.0223585
0.0518537
0.0430046
5.18958
4.01472
5.67209
0.0219005
0.0219228
0.116419
4.23462
3.45644
1.44162
2.70532
0.0545305
0.0331346
1.24933
4.47413
0.0288226
3.27519
0.0334965
0.0322945
3.49282
0.0467002
0.0224022
3.75211
0.851941
0.0262843
0.134421
0.0241588
3.512
3.89686
5.91523
0.0220356
0.0217378
0.155665
0.0220344
0.0221781
0.0220358
0.0217991
0.0220392
0.0220439
3.63285
0.0287039
0.0467228
3.31279
0.0219275
0.0220508
0.0335596
0.0283723
0.0282227
0.0220572
0.0664854
0.031617
0.0266679
0.0856994
3.4119
0.0220672
0.0453448
0.0220783
0.0220471
0.021684
0.0220898
3.03826
0.0220563
0.0220552
0.0221021
0.0448401
3.05309
3.39833
3.73165
2.36274
0.0474769
3.29629
4.65856
0.0219735
0.0428597
4.8363
3.48483
0.0221155
0.0312557
0.048853
0.0383053
0.022067
0.0478464
0.0580074
0.0445129
0.0216939
0.0540129
5.94147
0.0216492
2.87666
3.18224
0.0429749
0.654924
0.0367691
0.0220945
0.0270912
0.0220497
0.221399
3.54459
0.0218428
0.0440226
0.0220111
0.0219837
0.0223064
0.0222858
0.0381869
0.0221729
0.121194
0.139337
0.0265858
0.0251047
0.0469294
0.0220566
0.044617
0.0368151
0.0226343
0.0221061
0.0221431
3.23267
0.0220555
0.322219
0.0478298
0.0222532
0.0221091
0.0220106
3.69909
0.0260381
0.0431364
0.0529795
3.6339
0.0283943
2.8745
3.49538
0.0431812
0.021998
0.267581
0.0398606
4.12627
0.0707919
3.84426
0.0219242
0.0507727
0.0498348
2.90366
0.0220458
0.0486253
3.68984
0.0219339
6.64034
10.6551
4.01423
0.0220178
0.021999
3.09911
0.0220578
3.54611
0.175085
3.32463
3.59308
0.0218975
0.215015
0.278437
4.44809
0.0249943
4.14059
0.0227746