/*--------------------------------*- C++ -*----------------------------------*\
| =========                 |                                                 |
| \\      /  F ield         | OpenFOAM: The Open Source CFD Toolbox           |
|  \\    /   O peration     | Version:  v2012                                 |
|   \\  /    A nd           | Website:  www.openfoam.com                      |
|    \\/     M anipulation  |                                                 |
\*---------------------------------------------------------------------------*/
FoamFile
{
    version     2.0;
    format      ascii;
    class       volScalarField;
    location    "450";
    object      p;
}
// * * * * * * * * * * * * * * * * * * * * * * * * * * * * * * * * * * * * * //

dimensions      [0 2 -2 0 0 0 0];


internalField   nonuniform List<scalar> 
13917
(
-0.128017
-0.018748
-0.0552341
-0.0535558
0.0257382
0.452464
-0.049399
-0.061619
-0.196769
-0.197349
-0.0901343
-0.0796043
-0.0539995
-0.0560183
0.0290638
0.00407804
-0.0119971
-0.162309
-0.0791165
0.000892658
0.0153534
-0.0461263
0.00713347
-0.0671843
0.0203673
-0.0479597
0.214504
0.219262
0.0405846
-0.264794
-0.145144
-0.0742247
0.164565
0.11052
0.0269157
-0.0715222
0.00726185
-0.0618564
-0.0596917
-0.0523714
-0.0119596
0.0132081
-0.0244601
0.239458
-0.0402195
0.125328
-0.158445
-0.150903
0.495167
-0.00574331
-0.0907022
0.0565061
0.499584
0.114523
-0.0105666
-0.0952638
-0.0921422
0.0156313
-0.0793966
-0.0387181
-0.531602
-0.0205609
-0.0545251
0.00104873
0.442079
-0.506949
0.0292074
0.0368551
-0.149516
-0.0886736
0.0250823
-0.196563
-0.25301
0.0195783
0.476573
-0.0714403
-0.165499
-0.0569499
-0.0517054
0.0148267
0.0100828
0.0286288
0.423557
-0.0636903
-0.544091
-0.0556267
0.007032
-0.466434
-0.0886117
-0.0248202
-0.174445
-0.245743
-0.0226957
0.0364901
-0.507981
0.448701
-0.118373
-0.155867
-0.070357
0.321056
-0.0140318
0.168111
0.24985
-0.0644064
-0.0177448
-0.230011
0.0112739
-0.153926
-0.0142663
-0.149168
-0.466229
-0.0520811
-0.0777286
-0.222507
0.0737999
0.518434
0.00898715
0.489859
-0.042695
0.111305
0.0133117
-0.151931
-0.0408347
0.213601
-0.00776207
0.0353252
-0.0351194
-0.00745832
-0.0221983
0.454749
-0.0453858
0.0717348
-0.0406322
0.0158745
-0.366134
-0.0657062
-0.12534
0.335597
0.0292697
0.11118
-0.0763231
-0.0263168
0.0567777
0.275228
0.0372344
-0.191517
-0.0236908
0.0544906
-0.0254214
-0.0696672
-0.114621
0.515963
-0.0979505
-0.0549841
-0.0894526
-0.537044
-0.0824359
-0.104375
-0.166488
-0.376086
0.0744495
0.219791
0.011205
-0.116745
-0.078732
-0.0711511
-0.0634976
-0.132505
-0.0331945
0.174122
-0.0780079
-0.501022
-0.0749565
-0.0101708
-0.151385
-0.0492881
-0.0429718
0.4965
-0.186048
-0.00869365
-0.253235
-0.152126
-0.0269516
0.00735905
0.0618505
-0.0505781
-0.385305
-0.534777
-0.13564
-0.0765064
-0.0902835
-0.544003
-0.381026
0.012369
0.357375
0.206232
-0.0164288
-0.0227723
-0.00429275
-0.469645
-0.0765442
-0.00537764
-0.123886
-0.112907
-0.249305
-0.27553
0.0268587
0.0164073
-0.151524
-0.0499754
0.0544219
-0.0494788
-0.250798
-0.0776257
-0.0172925
0.28434
-0.14187
-0.438975
0.00505686
-0.523813
-0.00832575
-0.247854
-0.0114356
-0.0763596
-0.243798
0.00256626
-0.402389
-0.0931332
-0.0165403
-0.0725184
-0.0745021
-0.133207
-0.058385
-0.254723
-0.0159581
-0.0783143
-0.177808
-0.546345
0.0118295
-0.00540378
-0.0563553
-0.12315
-0.00142736
-0.0716444
-0.21064
0.212822
-0.121222
0.0106931
-0.0101965
-0.217728
-0.0418438
-0.283678
0.33294
-0.0348676
0.0167153
-0.0960476
-0.0549599
-0.0977326
0.0596737
0.0246004
-0.00105377
-0.0394904
-0.391075
-0.0659389
-0.0159517
-0.328384
-0.0642175
-0.101608
-0.0488485
-0.0712099
0.0106789
-0.00911817
-0.155522
-0.101637
-0.177818
-0.0771145
-0.285289
-0.0704003
-0.0221289
-0.467701
-0.000593044
-0.144761
-0.0747318
-0.00149472
-0.00611268
-0.0493825
0.218708
-0.0711538
-0.0121771
-0.044913
-0.357563
-0.0604164
-0.385242
0.00553138
-0.116407
0.0255402
-0.0449204
0.00862283
-0.0628487
-0.00333627
-0.255644
-0.11539
-0.0327961
-0.123016
-0.0406927
0.509488
-0.0466126
-0.236759
-0.0318912
0.0160148
-0.474415
-0.0436045
0.00844317
-0.0101511
-0.474361
-0.0132332
-0.247575
-0.0310023
-0.0793117
-0.0465078
-0.359536
-0.106331
0.451786
0.0706393
-0.373973
0.326682
-0.00847004
-0.126622
-0.137352
0.0125976
-0.0459421
0.354916
-0.0662805
0.0968574
-0.0448245
-0.0855419
-0.521688
0.324517
-0.00612761
-0.0190572
-0.0540912
0.0166695
-0.0860569
-0.468659
0.0321413
-4.28081e-05
-0.0581656
-0.0118683
-0.0155156
-0.0919675
0.0803382
-0.0119118
-0.0400842
-0.0784709
-0.000487296
-0.00845408
0.0255899
-0.0258539
-0.347601
-0.173507
0.426532
-0.478064
0.0150775
-0.293629
-0.530963
-0.115983
-0.0466726
-0.104978
-0.235631
-0.0166268
-0.0665265
-0.010377
-0.522753
-0.0377007
0.438515
-0.216115
-0.0635285
0.0171449
-0.148616
-0.26254
-0.18133
-0.186213
-0.518803
-0.440341
-0.0176189
-0.187409
-0.00517498
-0.54782
-0.0464773
0.00970092
-0.364007
0.0209752
-0.277206
-0.0466663
0.0167086
-0.0355538
-0.0570249
-0.0336087
-0.0561378
-0.518446
-0.0859148
0.363082
0.0105798
0.304806
0.343692
0.0044189
0.0211414
0.0306479
0.0221326
-0.264876
-0.000947619
0.0223121
-0.0107595
-0.33997
0.0148317
-0.0450026
-0.0550167
-0.518603
-0.375243
-0.0505282
-0.402589
-0.113519
0.0145578
-0.268713
-0.0595858
-0.0854232
0.012312
-0.175029
-0.0501749
-0.056682
0.0173364
-0.213439
0.0941276
-0.0607117
-0.177552
-0.0190689
-0.0647572
-0.0153969
-0.00323772
-0.251027
-0.0439575
-0.0438415
-0.2746
-0.518967
-0.0463791
-0.404469
-0.118978
-0.0214398
-0.154582
-0.0211718
0.0193544
-0.287011
-0.158404
-0.0232958
-0.196309
-0.116462
-0.104359
0.00419457
-0.143809
-0.514366
-0.401352
-0.0440704
0.0154049
0.0110517
-0.0168057
-0.076471
-0.0166903
-0.0515938
0.431069
-0.0139279
-0.544264
-0.0939663
-0.113066
-0.407268
-0.0321487
-0.0853182
-0.0767651
-0.141851
-0.198105
-0.242273
-0.0888875
-0.0768711
0.437829
-0.0816648
-0.148073
-0.0193423
-0.335773
-0.0949187
-0.0321678
-0.0703925
-0.059313
-0.110069
-0.223857
-0.0125329
-0.0219742
-0.0526133
-0.403808
-0.00119257
-0.0433464
-0.0577572
-0.350503
-0.0114328
-0.289247
-0.168304
-0.0726945
-0.0384272
-0.0497619
-0.370095
-0.543293
-0.000776185
-0.237501
0.505453
-0.48019
-0.0323174
-0.546272
-0.385969
-0.111773
-0.00922821
-0.00454542
-0.0697719
-0.280568
-0.0233883
-0.00810719
-0.00737245
-0.00771823
-0.324327
-0.291556
-0.11176
-0.380136
-0.00938238
-0.0135841
-0.207135
-0.308509
-0.124949
-0.0343921
0.021317
0.0319803
-0.474377
-0.542984
0.00493971
0.0303672
-0.0656044
-0.0900398
-0.104652
0.0126439
-0.0307676
-0.0550336
-0.144542
-0.114398
-0.390509
-0.270203
-0.179355
-0.270419
-0.234046
0.00707825
-0.224144
0.0319007
-0.00136151
-0.0668765
-0.328582
-0.0564957
-0.0134302
-0.39864
-0.279404
-0.510916
-0.183021
0.104437
-0.118964
0.0175153
-0.387909
-0.376336
-0.0530529
-0.014599
-0.108969
-0.386787
-0.108661
-0.327119
-0.15878
-0.286405
0.00899533
-0.0629954
0.0139972
0.0740897
0.269272
0.0517705
-0.137964
0.338018
-0.0532047
-0.544236
-0.0356986
-0.111352
-0.164491
-0.0130943
0.0499214
0.308758
-0.28571
-0.155303
-0.370029
-0.0220745
-0.0403014
-0.0707032
-0.0134364
-0.113291
-0.120169
0.156262
-0.25891
-0.0494092
-0.236399
-0.0864984
-0.379677
-0.0624919
-0.121697
0.0124122
0.00516637
-0.111937
-0.277726
0.405453
-0.0628943
-0.0116396
0.0296468
-0.0713827
0.488945
-0.0716831
-0.0657798
-0.0859843
-0.144563
-0.011
-0.383761
-0.0712145
-0.0631901
0.00210835
-0.226775
-0.0586508
-0.517478
-0.204363
-0.0654823
-0.110721
-0.0107478
-0.0304428
-0.0364779
-0.0541691
0.125905
-0.357641
0.0256286
-0.1338
-0.0113618
-0.247653
0.396845
-0.0742408
-0.041249
0.114932
-0.00735504
-0.0732351
-0.0821949
-0.38601
0.0154687
-0.44394
-0.0751151
-0.0890555
-0.245173
-0.273027
-0.091423
-0.00378792
-0.11807
-0.330423
0.000158511
-0.0657149
-0.18994
-0.360444
-0.173326
-0.00139788
-0.0397737
-0.3372
-0.0640761
-0.18236
-0.0961256
-0.0310311
-0.109379
-0.0586852
-0.0405447
-0.0519352
-0.00660681
-0.0418819
0.0165326
0.0178446
-0.506357
0.0106273
-0.272188
-0.0885002
0.167909
-0.00697815
-0.0639195
0.00923505
-0.197475
-0.0105154
-0.156775
-0.0575715
-0.506838
0.142729
-0.31618
-0.0158303
0.0172211
-0.224857
-0.166508
-0.0532752
-0.258918
-0.165573
0.0252674
-0.330584
0.424442
-0.0636407
-0.350765
-0.148157
-0.053218
-0.117604
-0.0702942
-0.267459
0.0202923
-0.163651
0.414144
-0.166167
-0.0578106
-0.121182
-0.013677
-0.0352701
-0.0732175
-0.150237
-0.0643277
0.0121255
-0.00979617
-0.139255
-0.0647303
-0.186952
0.0244957
0.0229778
0.0170163
-0.025494
-0.0264803
-0.0589576
-0.00586641
-0.2922
-0.0770542
0.390762
-0.0153127
0.00722815
0.177992
-0.202971
0.0696807
-0.469203
-0.204233
-0.514681
-0.0748467
-0.223711
-0.0532549
0.0122104
-0.00814469
-0.0387618
-0.530473
0.00679475
-0.268324
-0.0604552
-0.532764
-0.00489237
-0.213464
-0.088707
-0.0240917
-0.00131387
-0.0778709
0.0348502
0.0254308
-0.450421
-0.0116459
0.0248261
-0.0991525
-0.00649118
-0.0209239
-0.0712847
0.136431
-0.0514994
-0.106205
-0.0404484
-0.0124657
-0.110862
-0.043662
0.00473019
-0.0156756
-0.458267
-0.17811
-0.470743
0.0975076
-0.0588228
-0.0154873
-0.0211096
-0.0830324
-0.112148
-0.101402
0.100527
-0.0482577
-0.0284623
0.0445112
-0.472358
0.0216929
-0.0957726
0.00188378
-0.0037732
-0.141841
0.225592
-0.0516733
-0.259828
-0.0517682
-0.249862
0.00655167
-0.0280788
-0.0758581
-0.27437
-0.000636203
-0.249536
-0.0276966
-0.144039
-0.0351236
-0.0363291
-0.288725
-0.041573
-0.0613899
-0.14461
0.0180557
-0.0240136
0.0426492
-0.00583693
-0.051603
0.192785
-0.0396997
-0.0328453
-0.136321
-0.186349
-0.0874695
-0.159225
-0.168446
-0.08251
-0.0260356
0.129087
-0.241194
-0.170006
0.0196547
-0.0368209
-0.250611
-0.12677
-0.483394
0.0176064
0.0716907
-0.0423012
-0.115273
-0.0538742
-0.542011
0.452734
-0.00641295
-0.260799
-0.00849971
-0.0404737
-0.0155649
-0.32341
-0.0261661
-0.0389182
-0.0266775
-0.0606021
-0.0595218
-0.356598
0.280516
-0.0367577
0.164682
0.0040884
-0.481525
-0.00334598
-0.0402448
0.0241234
-0.0761205
0.0245614
-0.232971
-0.0555987
-0.059558
0.110704
-0.0802154
-0.510336
0.0143147
-0.03936
-0.541501
-0.50841
-0.0492395
-0.13125
-0.521376
-0.242861
-0.00674398
-0.0496853
-0.114904
-0.0466076
-0.031692
-0.0237694
0.00274946
0.00436293
-0.0874112
0.110881
-0.0432657
-0.0237304
0.0281826
-0.538683
-0.112686
0.042852
0.199022
-0.108939
-0.0468579
0.0759105
0.202737
0.0602788
-0.0600935
-0.0512038
-0.477172
0.490996
-0.0348189
-0.365782
-0.272667
-0.539049
-0.24941
-0.0729841
-0.0127996
-0.0543953
-0.0268397
-0.0234289
-0.0288267
-0.0213717
-0.0570032
-0.11266
-0.544898
-0.146622
-0.0394445
-0.21754
-0.392659
-0.135851
0.0452144
-0.138075
-0.0315477
0.0246983
0.181783
-0.544626
0.0260386
0.00295451
-0.0481148
-0.0826917
-0.155069
-0.179215
-0.0724111
-0.00332795
-0.261246
0.0456884
0.00104733
0.0490994
-0.0500825
-0.470027
-0.0340066
-0.024419
0.00185884
-0.185149
-0.0240612
-0.109845
0.0339982
-0.0143038
-0.261781
-0.0373444
-0.201312
-0.241297
-0.0433936
-0.0334758
-0.136972
-0.0360739
-0.285146
-0.385981
0.0214103
-0.470644
-0.17161
0.459952
0.0252348
-0.0565448
0.0246845
-0.0935271
-0.129702
-0.182091
-0.0512777
-0.0634154
-0.0673901
-0.302357
-0.0115949
-0.224713
-0.0362897
-0.0164528
-0.0510745
0.0183711
0.0244349
-0.0398553
-0.0451091
-0.54385
-0.0229622
0.00757576
-0.111602
-0.167023
-0.13185
0.430026
-0.068697
-0.537233
-0.0703473
-0.124031
-0.069196
-0.122136
-0.089186
-0.531569
-0.0456344
-0.0760743
-0.0375263
-0.0553242
-0.0638967
0.0532962
-0.221046
-0.127828
-0.0488233
-0.0888539
-0.0463581
-0.131771
-0.000215079
-0.144405
0.289946
-0.00966722
-0.196793
-0.0349472
-0.0101449
-0.0107551
0.115125
-0.158713
-0.0662641
-0.0463478
-0.033942
0.248741
-0.225303
-0.251861
0.0219089
-0.0239707
-0.137646
0.00331536
-0.243204
-0.228591
-0.0487768
-0.210621
-0.0343772
-0.512289
0.0512776
-0.0844041
-0.0603222
-0.212531
-0.0013986
-0.0078913
-0.0528437
0.00062885
-0.00613909
-0.538023
-0.326886
0.0901508
-0.0670319
0.000381099
-0.0460988
-0.0517363
-0.0401356
-0.0237942
-0.154209
-0.0360451
-0.125752
0.0100181
-0.0231964
0.00679969
-0.0688424
-0.0447532
0.0306303
0.0163958
-0.0028579
0.0208951
-0.00394313
0.402671
-0.190302
-0.000440977
-0.165025
-0.0145505
-0.230067
-0.0469243
0.357946
-0.0333243
0.0429596
0.00335383
0.0240539
0.0340753
-0.0442912
-0.495338
0.0672868
-0.048685
0.472711
-0.140386
-0.06758
-0.0825177
0.419083
-0.0521147
-0.0205253
-0.44727
-0.0631752
-0.0850834
0.0130176
-0.112737
0.212025
-0.0318841
-0.0658573
-0.534631
-0.0596138
-0.0132029
-0.0741742
-0.249943
-0.118319
-0.0831494
-0.0225919
-0.301158
-0.0740419
-0.0636209
-0.236894
-0.371754
-0.105509
-0.0334923
-0.0143596
-0.0579628
0.00560895
0.0632977
-0.0190068
-0.0334436
-0.026862
0.0614051
-0.0768816
0.427442
0.10885
0.271791
-0.0564767
-0.129843
-0.0295911
-0.174238
-0.0523548
-0.0249786
-0.00691036
-0.114742
-0.531181
0.0231876
-0.194198
-0.22997
-0.123258
0.0343541
-0.0574112
-0.0375617
-0.225513
-0.0528479
-0.00623241
-0.507146
-0.0529885
-0.0137048
-0.25811
-0.0838763
-0.489069
0.00808444
-0.0847466
-0.0544789
-0.23415
-0.073456
0.200632
-0.0808637
0.0118493
-0.0417894
-0.021237
0.0287627
0.0579587
-0.0882432
0.000326643
-0.0989204
-0.00617207
-0.102356
-0.0354197
-0.213969
-0.0848795
-0.430877
0.0137984
-0.376474
-0.041652
-0.0564185
0.0212688
0.110262
0.0191731
-0.106458
-0.277047
-0.0701989
-0.00064606
-0.151042
-0.00565555
-0.0874555
-0.276732
-0.0388128
0.0506593
-0.161381
-0.112788
-0.0479906
0.00112329
0.010526
-0.0529722
0.0117168
0.116444
-0.00934965
-0.0172006
0.0605312
-0.213794
-0.061335
-0.0997846
-0.163398
-0.167834
-0.0453784
-0.0583941
-0.016959
0.016219
-0.345203
-0.0566661
-0.0521921
-0.103185
-0.446793
-0.00800066
-0.516079
-0.199889
-0.18958
-0.0250839
-0.0234075
-0.0675789
0.0480774
0.0190193
0.171997
-0.0311183
0.0754253
-0.0916798
-0.0974648
0.434171
-0.0485549
-0.0602825
-0.1071
-0.0610725
-0.0533854
-0.0890803
0.141337
-0.537784
-0.136668
-0.53983
0.0886976
-0.492326
-0.51626
-0.0325466
0.000149682
-0.00399761
-0.053414
-0.158555
-0.0358869
0.0902411
-0.0715733
-0.0633977
0.0561149
-0.180396
0.119489
-0.073755
-0.194062
-0.0533188
-0.0426677
-0.0660204
0.0851833
-0.00952955
-0.303314
-0.493453
-0.0070063
-0.0554514
-0.0566402
0.117445
-0.544693
-0.00475112
-0.0367799
-0.0535146
-0.0572596
0.141101
-0.514653
0.0286241
-0.180534
-0.0886619
-0.0238277
-0.0106931
-0.0520987
-0.514648
-0.0336037
-0.0681105
0.018352
-0.0591348
0.190931
-0.127214
0.0386579
0.38311
-0.109059
-0.0634987
-0.24167
-0.056468
-0.0692553
0.0499844
0.111281
0.0220722
-0.0979868
-0.135252
0.0575352
0.168811
-0.0684806
0.466724
0.411903
0.106419
0.0146367
0.0235578
0.0314385
-0.493257
-0.136896
-0.0682412
-0.0566949
-0.0742345
0.0105223
0.00327639
0.0336546
-0.10836
-0.0733596
-0.155001
0.112815
-0.518908
-0.0553019
0.00974415
-0.144137
-0.0145195
-0.0165308
-0.297276
-0.0169814
-0.0266897
-0.130932
-0.169791
0.264753
-0.057376
-0.0839788
-0.0307
-0.0653715
-0.024323
-0.0477619
0.0435655
0.0191158
-0.0414726
-0.159846
-0.362887
-0.0362359
-0.0535143
-0.0223054
-0.0333997
-0.0266328
0.409006
-0.0802751
-0.064992
-0.544484
-0.0420433
-0.104802
-0.0511289
-0.00124339
0.106183
-0.00511616
-0.0574739
-0.194627
0.0357588
-0.0518056
-0.151253
0.22714
0.0109494
-0.485909
0.0803896
0.418536
-0.0525168
0.127979
-0.350176
-0.0330986
0.283779
0.0293032
-0.200997
0.199197
-0.00143357
-0.545259
0.00991764
-0.165836
-0.186309
0.341194
-0.00671021
0.0466318
0.0378193
-0.0666742
0.0420291
-0.0448325
0.0693143
-0.098065
-0.0309952
-0.152611
0.0313165
-0.0702252
-0.0540582
-0.0146875
-0.0194857
0.466662
-0.0587056
-0.0609832
-0.0494802
-0.0525638
-0.063156
-0.10319
0.00490078
-0.00260749
0.0260025
-0.0217494
-0.229377
0.0129123
0.204381
-0.0610098
-0.00104414
-0.289583
-0.0687624
-0.0969897
-0.0615396
0.0300469
-0.515074
-0.135418
-0.0703605
0.497053
-0.148443
-0.369819
-0.0538719
-0.48732
-0.00905774
-0.243576
-0.534416
0.444974
0.0032415
0.0502143
-0.0998999
-0.0534704
-0.0441407
-0.416748
-0.0446725
0.0955461
-0.138063
-0.0505373
-0.516457
-0.106464
-0.128186
-0.0250953
-0.219979
-0.0719606
0.00349686
-0.256245
-0.457406
0.0240474
-0.123386
0.00488339
-0.0399877
-0.0787657
-0.13793
-0.0121176
-0.0456131
-0.0427616
-0.0358133
-0.0829025
-0.169176
-0.057465
-0.00123843
0.00146982
-0.0865246
-0.0873671
-0.081704
-0.358727
0.0278962
-0.186232
-0.544982
-0.0844682
0.0708959
-0.181756
-0.146079
-0.118893
-0.0546103
-0.0982081
-0.499739
-0.0116056
-0.473626
-0.0517801
-0.016337
0.0107224
-0.268629
-0.507826
-0.513117
-0.0369983
-0.00287022
-0.0427641
-0.465372
-0.49467
-0.0534359
0.0848451
0.507668
0.0181366
-0.0458624
-0.537594
-0.0759822
-0.469688
0.0346335
-0.00243326
-0.0104497
0.102778
-0.0447793
-0.102069
-0.0746361
0.0673307
-0.150838
-0.512964
-0.0852304
-0.24935
-0.538455
-0.0421329
0.428559
0.0232933
0.00243714
-0.0535465
-0.022616
-0.031721
0.00902434
0.514701
-0.130209
-0.536667
-0.273935
0.014869
-0.266907
-0.141756
-0.0258851
-0.54641
0.194052
0.106472
-0.0461172
-0.516036
-0.457905
0.0232809
-0.426063
-0.105859
-0.54194
-0.470459
-0.223085
-0.00482731
-0.0512674
-0.385362
-0.0843502
-0.055107
-0.150887
-0.48535
-0.159614
0.0604274
0.057497
-0.00989699
0.0439417
-0.52693
-0.0417445
0.03065
-0.544666
-0.108942
-0.00141754
0.0614584
-0.00282848
-0.214775
-0.041165
0.491751
0.0692121
-0.00699486
-0.0113244
0.324082
-0.133362
-0.138264
-0.0287055
-0.154003
0.0313553
-0.0613902
-0.0899479
-0.495691
-0.0437379
-0.487273
-0.0195874
-0.0112965
-0.00712473
-0.0702886
-0.0103398
-0.00939381
-0.156581
-0.129275
-0.100572
-0.0318904
-0.424127
-0.0443824
-0.00124239
-0.522512
-0.13842
-0.0905342
0.458894
-0.0082623
-0.545456
0.071608
0.0392806
0.0760935
-0.0224323
-0.0701649
-0.0152731
-0.0521343
0.154956
-0.0531658
-0.0447344
0.00527022
-0.00600072
-0.0573415
-0.0323156
-0.241793
0.0531369
-0.229674
-0.0680489
-0.129543
-0.0547317
-0.0511016
-0.020207
-0.334111
-0.0467865
-0.0231838
-0.543863
0.301382
0.345747
-0.0747258
0.148501
-0.131523
0.0328746
-0.438724
0.0316059
-0.00958827
0.332053
-0.0749226
-0.53959
-0.531987
-0.225682
-0.379216
-0.273817
-0.414175
-0.0233092
-0.0814167
-0.0920424
-0.245555
0.102836
-0.368422
-0.0407205
-0.0475166
0.0422173
0.00341896
-0.393337
0.479165
-0.0663881
0.0117195
0.00464719
-0.0862168
-0.132702
-0.381556
-0.20812
-0.00181669
0.411311
-0.245023
-0.258075
-0.19121
-0.0244624
-0.066546
-0.26237
-0.0104434
-0.236879
-0.0524805
0.0183753
-0.0593176
-0.164811
0.352803
0.043386
-0.0449644
-0.0731947
-0.217749
-0.0733713
0.0354711
-0.0583541
-0.466321
-0.0116351
0.0296357
0.499002
-0.523609
-0.169411
-0.21451
-0.0762198
0.0866508
0.0223711
-0.5273
-0.0862153
-0.0426005
-0.111335
2.17981e-05
-4.5266e-05
0.512071
0.0218451
-0.00222449
0.00649783
-0.121388
0.0530978
-0.0871955
-0.111444
-0.358501
-0.265586
0.02384
-0.0830493
0.187694
-0.350854
-0.244637
0.129594
-0.204649
-0.0628882
-0.411299
-1.74899e-05
-0.440578
-0.0528202
-0.000419894
-0.0704456
-0.0221211
0.447268
-0.274577
-0.0451993
0.500113
-0.321192
-0.0144367
0.0510188
-0.0572363
-0.0410893
-0.0756577
-0.0233165
-0.513337
-0.0555669
0.416908
0.0102129
-0.232841
-0.0718729
0.113367
-0.514743
-0.0912381
-0.0218151
-0.112091
-0.339165
-0.115564
-0.0536735
-0.413817
-0.0203279
-0.30993
-0.0480951
-0.534189
-0.0206001
0.254327
0.057464
-0.00605842
-0.0806001
-0.202417
-0.201213
-0.118972
0.0163439
-0.168265
-0.0128485
-0.489085
-0.0414566
0.0339128
-0.0352424
0.159408
-0.0384026
-0.139838
-0.0602182
-0.434479
-0.170371
-0.0485619
-0.0466224
-0.109307
0.0603757
-0.151621
-0.0213462
0.00683154
-0.41606
-0.215517
-0.153127
0.302173
0.0016934
-0.268585
-0.014722
0.0729792
-0.525698
-0.541759
0.021003
0.0137793
-0.0837133
0.0952934
0.0483046
-0.0831714
-0.288627
-0.0305681
-0.0234027
0.023103
-0.00302085
0.250611
-0.0341272
-0.0548804
-0.223602
-0.0730397
-0.0267012
-0.125183
-0.426107
-0.117884
-0.0707356
-0.545574
0.0183124
-0.263663
0.156503
0.187436
-0.0535234
-0.408009
-0.533479
-0.0795024
-0.00752117
-0.222459
-0.0341455
0.102523
0.0425857
-0.0584061
0.0483547
-0.472784
-0.0667793
-0.160489
0.0247272
-0.372775
-0.0920176
0.000417206
0.431195
-0.0225228
-0.0688572
-0.129534
0.0406769
-0.51791
-0.00593699
0.449143
0.0370982
-0.003223
-0.543329
-0.0460611
0.0770778
0.167258
-0.0901325
-0.182836
-0.0959898
-0.0768036
0.0163996
-0.0832395
-0.0808755
0.0764554
-0.055534
0.00356074
-0.0741809
-0.0691096
-0.0571048
-0.0851682
-0.0219888
-0.0519821
0.0885725
-0.474042
-0.479493
-0.498917
-0.443559
-0.28237
0.0576708
-0.0444221
-0.0578502
0.0634064
0.0346511
-0.482822
-0.153715
0.0575197
-0.0670763
-0.100203
-0.103484
-0.105957
-0.254773
-0.00139901
-0.0717086
-0.0926993
0.0225145
0.00269593
-0.0899893
-0.0267907
-0.0547357
0.0474354
-0.281001
-0.116678
-0.139599
-0.268852
-0.197352
-0.25043
-0.0177554
-0.190411
-0.0494265
-0.533186
-0.0523216
-0.0547879
-0.106431
0.500134
0.0312674
0.0219816
-0.0605235
-0.0794845
-0.543169
-0.443049
0.153123
-0.297621
-0.0113605
-0.0272765
-0.402341
0.282453
0.0142527
-0.148069
-0.0785802
0.0646366
0.0345014
-0.222977
-0.0334429
-0.185895
-0.0885793
-0.53687
-0.20648
-0.0838268
-0.18678
-0.538923
0.0150527
0.0259982
-0.223729
-0.0205543
0.185138
-0.542839
-0.0408582
-0.0458139
-0.107071
-0.053598
-0.18917
-0.0239466
-0.11275
0.0136473
-0.520311
-0.0329415
0.00668145
-0.0426794
-0.234147
-0.00297579
0.0155675
-0.514454
0.0435566
-0.146509
-0.0263061
-0.499327
-0.39913
-0.129249
0.308884
-0.00629205
-0.0640745
-0.0882801
-0.141049
-0.0256232
-0.052699
-0.00258284
-0.104908
0.0237229
-0.0909183
0.0490909
-0.03036
-0.471897
-0.0287065
-0.0803418
-0.0743836
0.00985749
-0.0432249
-0.0247746
-0.0646679
-0.107539
-0.078209
-0.0573246
0.0375187
-0.476486
-0.0783379
-0.146524
-0.0233419
-0.104631
-0.0464777
-0.134568
-0.091521
-0.0858719
-0.339429
-0.259108
-0.331842
-0.413023
0.115211
-0.0983673
0.0102922
-0.414858
0.0729319
-0.0454343
0.0300627
-0.108751
-0.0449627
-0.228319
-0.142757
-0.0560012
-0.360043
0.342731
0.000270341
-0.222153
0.155559
0.0527587
0.0674942
0.0286472
-0.0788402
0.0320611
-0.0395706
-0.0276259
-0.0882005
-0.443378
-0.0833585
0.0228047
0.0288546
-0.229406
-0.0216627
0.0189289
-0.0841999
-0.0589187
-0.0918433
-0.00453511
-0.0687957
0.327811
0.096943
-0.370437
-0.532879
-0.0429121
-0.329564
-0.0192584
0.0141609
0.0158648
-0.0538492
0.129736
-0.0550834
-0.0490114
-0.0231112
0.0318858
-0.0519318
-0.157002
-0.0231995
-0.0184301
0.107122
-0.53815
-0.0501744
-0.0844596
-0.0933165
0.0160334
-0.372564
-0.0893567
0.318441
0.160612
0.00421723
0.0571532
-0.139935
-0.29636
0.0598279
-0.0434462
-0.0778959
-0.0510714
0.0503462
-0.521297
0.00789201
-0.061783
-0.0442382
0.133915
-0.0162009
-0.00461641
-0.365794
-0.446874
0.273524
-0.055381
-0.543293
0.0328669
-0.143908
-0.0682228
-0.0185666
-0.124154
-0.086492
-0.136736
0.0224124
-0.0456682
-0.53756
-0.0428139
-0.0103211
-0.0414148
-0.1206
0.0079094
-0.029436
-0.0457436
-0.0718457
-0.234744
-0.240198
0.320098
-0.235523
-0.0202496
0.0142006
-0.0575149
-0.0236701
-0.146101
0.119503
-0.0426449
-0.171801
0.0129391
0.0193388
-0.319427
-0.000933284
-0.446349
0.0167024
-0.456325
-0.0442837
-0.222906
0.00251875
0.000720166
-0.262744
-0.0227312
-0.0564304
0.053241
-0.320302
-0.424353
-0.126758
-0.0446385
0.0380226
-0.14941
0.0654723
-0.121858
-0.03717
0.0172162
-0.54542
-0.0507292
-0.453627
-0.0482864
-0.14458
-0.132725
-0.546444
-0.146059
-0.290384
-0.141633
-0.02372
-0.285168
-0.0371195
-0.0367481
-0.236938
-0.0923178
0.0760766
0.261441
0.0525243
-0.0232267
-0.090336
-0.291155
-0.0756009
-0.000526519
-0.542243
0.0328478
-0.0247253
-0.0483226
-0.0030106
0.0131103
-0.210472
-0.281705
-0.533256
-0.023813
0.0657018
-0.00401215
0.370848
-0.0194244
0.461275
-0.126821
-0.0443536
-0.0530084
-0.519897
0.14894
-0.337233
0.481816
0.0160309
0.0417838
0.0871181
0.11761
0.497838
-0.144985
-0.516904
-0.0472624
0.51255
0.0193742
-0.129216
-0.00398814
-0.542682
-0.106054
-0.06031
-0.0692886
-0.0512225
-0.0148462
-0.157651
-0.512755
-0.0190804
-0.0622268
-0.0113694
-0.214758
-0.0609226
-0.408434
-0.0582927
-0.46473
0.0246691
-0.014446
-0.0767597
0.43711
0.0206146
-0.173142
0.0130356
-0.301945
0.135615
-0.203128
-0.121548
-0.5096
-0.0220276
-0.0377914
-0.071648
-0.0532826
-0.0948343
-0.114762
-0.00260971
-0.0562978
0.0182422
-0.00856714
-0.0524556
0.0147297
-0.514948
-0.0931831
-0.12274
-0.0731371
-0.283172
-0.334473
-0.021962
-0.10519
-0.0228894
0.493059
-0.0438262
0.0372913
0.0181999
-0.00565673
-0.0346985
-0.267284
-0.054576
0.407693
-0.0309246
0.166199
-0.0206266
0.474212
0.00914162
-0.113198
-0.091378
-0.172156
-0.520893
-0.00543802
-0.0412743
-0.217679
-0.0342688
-0.0232496
0.00235818
-0.0468264
-0.50651
-0.044214
-0.0336429
-0.160148
-0.0923202
0.200463
-0.0644731
0.0206985
-0.087636
-0.103205
-0.0211196
-0.142795
-0.0510941
-0.0485521
0.0298515
-0.0480124
0.0130615
-0.097855
-0.043551
-0.0224318
0.372851
-0.0827119
-0.00325708
-0.0330202
-0.0129133
0.39655
-0.115994
-0.209302
-0.0619752
-0.145141
0.00888919
0.023765
-0.0650276
-0.00109493
-0.178814
0.0306285
-0.087856
-0.436972
-0.124717
-0.0216284
-0.0569801
-0.137478
0.00942325
-0.23491
-0.110048
-0.115819
0.0991758
-0.533704
-0.190761
-0.00409528
-0.249024
-0.24287
-0.077906
-0.41014
-0.0877769
-0.0683692
-0.118222
-0.0091638
-0.270236
0.274532
-0.255616
-0.00299305
0.00459788
-0.0225356
0.173597
-0.0956769
-0.101077
-0.307031
-0.543087
-0.0576856
0.0128156
0.507595
-0.0451434
-0.114211
0.0188835
-0.00429508
-0.133097
-0.0474287
0.0223226
-0.104984
-0.509637
-0.140909
-0.498388
0.349211
-0.221023
-0.0515114
-0.413747
-0.0272308
-0.430253
-0.211992
-0.0439624
-0.0520821
-0.0159204
-0.509507
-0.258013
-0.0963932
-0.0512219
-0.494435
-0.0346715
-0.246146
-0.0421666
0.019287
-0.111202
-0.339644
-0.0606289
-0.190475
-0.0553985
0.0227641
0.054275
-0.163699
-0.0798325
-0.477134
-0.117982
-0.0257822
-0.54335
-0.315333
-0.062245
-0.00434204
0.00193117
-0.0618948
0.413238
0.00190725
-0.177812
0.308773
0.190038
-0.0551303
-0.0542159
-0.460636
-0.162721
0.0295395
-0.0294026
0.297097
-0.0422441
-0.505687
-0.0409501
0.158693
0.318184
0.3978
-0.0467678
0.0118354
0.342429
-0.209228
-0.469727
0.383569
-0.0542143
0.000568465
0.42096
-0.173844
0.040895
0.286214
-0.21502
-0.0228769
-0.177985
-0.0980113
0.425595
0.0142078
-0.0553703
-0.181219
-0.518678
-0.0252349
-0.0653163
-0.0153201
-0.0521982
-0.0142311
-0.17852
0.00405647
0.0772289
0.399548
-0.110621
-0.139359
0.0691696
-0.0676552
-0.0613115
-0.438029
0.275599
-0.527518
-0.0440424
0.104463
-0.52282
0.339201
0.0380886
0.057892
-0.228668
-0.099159
-0.291914
-0.0037941
-0.00930683
-0.0153621
-0.190671
-0.00087221
0.447753
0.478606
0.391263
-0.084832
-0.35818
-0.518297
-0.0123765
-0.413272
0.00583312
0.218263
-0.0202254
-0.0404114
-0.177164
-0.373629
-0.00255573
-0.539745
-0.316241
0.331933
-0.335966
-0.0204139
0.00181923
-0.109765
-0.0551697
-0.522746
-0.513799
0.00502805
-0.344254
-0.00750627
-0.0331243
-0.03756
0.0241652
-0.521429
-0.0650159
-0.496028
0.290407
-0.047063
0.449065
-0.479109
-0.0472474
-0.511606
-0.0691134
-0.0370235
0.0208477
-0.0545987
0.470547
0.341329
-0.336713
0.0197144
-0.0524415
0.0973754
-0.00138262
-0.0689335
0.0725508
0.149736
0.219204
0.0215483
-0.0204705
-0.0245276
-0.164002
-0.0233137
-0.0317399
0.323067
0.0267143
-0.0110564
-0.197788
-0.0124856
-0.447019
-0.0476856
0.489043
0.0247956
0.30539
0.00949502
-0.15545
-0.0585605
-0.0532573
0.110029
-0.494887
-0.0490844
0.318414
-0.0608635
-0.154139
-0.182227
-0.0549077
-0.324802
0.00255066
-0.334633
-0.290475
-0.0246696
0.267585
-0.236665
0.331643
0.0161243
-0.187707
0.452587
-0.251068
-0.130042
-0.0454448
-0.13247
0.028797
-0.00244167
-0.0822374
-0.0864698
0.00121256
-0.0456288
-0.529063
-0.0700366
-0.535507
0.401946
-0.492497
-0.369325
-0.0235401
-0.0704956
-0.0306305
0.116391
-0.264446
-0.29429
0.0370256
-0.0278603
-0.0314186
-0.46124
-0.117089
-0.17153
-0.0474782
0.350107
-0.542216
-0.431974
0.00187789
-0.545265
0.0280462
0.100173
0.124511
-0.0457259
-0.0944544
0.0997541
-0.0531599
0.255704
-0.111205
-0.0489282
-0.51505
0.16692
-0.056011
-0.0814287
0.0240724
0.483577
-0.207921
0.0546336
-0.520696
-0.533096
-0.111859
0.0996044
-0.0722147
-0.528962
0.00421755
-0.0381712
-0.0222582
-0.0207534
0.0588452
-0.542585
0.0295676
-0.0959603
-0.00659771
-0.0412565
0.460407
-0.0479669
-0.0232479
0.00969106
0.0235106
-0.158535
-0.0304637
-0.54256
-0.0441674
-0.0633011
-0.0683817
0.0515263
0.371297
-0.0310382
0.00326894
-0.0279048
-0.0960468
0.29128
-0.0724949
-0.0456777
-0.00994095
0.0668623
-0.109998
-0.338076
0.0688018
0.00947257
-0.0349257
-0.0276264
-0.392019
-0.00874055
-0.0348315
-0.0790452
-0.464571
-0.00759394
0.167102
0.0223434
0.0078337
-0.0663603
-0.544571
-0.0792658
-0.0690879
-0.0741622
-0.0806427
0.0403533
0.345722
-0.328772
-0.0513583
-0.130369
-0.0673502
-0.0624158
0.0293243
0.0221371
0.493222
-0.0913897
-0.361507
-0.100448
-0.0303323
0.0127163
-0.545958
-0.0566543
-0.0943629
0.0254135
-0.00261001
-0.540719
-0.195602
-0.02556
-9.56306e-05
-0.0444358
0.00986479
0.013645
0.0319524
0.175375
-0.165464
-0.01
0.0392069
0.452868
0.00287876
-0.353095
0.0262882
-0.0429776
-0.0989574
-0.00460057
-0.268596
0.0485502
0.251907
0.00547671
-0.0409877
-0.470467
-0.518615
-0.00231354
-0.10053
0.196321
-0.00282882
0.0786918
0.00095084
-0.0529914
-0.406915
-0.318753
-0.0723161
-0.0827814
-0.053277
-0.524047
-0.164995
-0.0522632
-0.318694
0.0546805
-0.0563071
-0.102564
-0.0483317
-0.472573
-0.237758
-0.0463135
-0.0328189
-0.0844815
0.0990354
-0.0300614
-0.0348124
-0.106515
0.299515
-0.0331958
0.0993952
-0.103063
0.0393807
0.423454
-0.0692447
-0.102901
-0.413931
-0.494001
0.167365
0.102805
-0.0722243
-0.542024
-0.0680269
0.0639086
-0.0308313
-0.0163655
-0.0275969
-0.117055
-0.0470973
-0.292931
-0.0363391
-0.435683
-0.0017111
-0.0669482
-0.0532908
0.318983
-0.301006
0.325357
0.363514
0.05201
0.162449
-0.0118688
0.0835125
0.00448367
-0.0499994
-0.117266
-0.0780483
0.00983428
0.0951073
-0.213744
-0.0139557
-0.0371142
0.105942
-0.542355
-0.265041
-0.117958
0.202582
0.000374497
-0.0560686
0.191802
-0.0583748
0.0265289
-0.0184933
-0.050264
0.0309664
-0.0695854
-0.127021
-0.0117951
-0.0289183
0.222709
-0.00953298
0.0950958
0.131479
0.0203545
0.00438288
-0.542095