/*--------------------------------*- C++ -*----------------------------------*\
| =========                 |                                                 |
| \\      /  F ield         | OpenFOAM: The Open Source CFD Toolbox           |
|  \\    /   O peration     | Version:  v2012                                 |
|   \\  /    A nd           | Website:  www.openfoam.com                      |
|    \\/     M anipulation  |                                                 |
\*---------------------------------------------------------------------------*/
FoamFile
{
    version     2.0;
    format      ascii;
    class       volScalarField;
    location    "1000";
    object      nut;
}
// * * * * * * * * * * * * * * * * * * * * * * * * * * * * * * * * * * * * * //

dimensions      [0 2 -1 0 0 0 0];


internalField   nonuniform List<scalar> 
13851
(
0.000758334
0.000913257
0.000972589
0.00351547
0.00672381
0.000764524
0.00130906
0.00678951
0.0198835
0.00528093
0.000290001
0.00673138
0.00246902
0.00514458
0.000609686
0.000162119
0.00172984
0.00237796
0.0126826
0.000758504
0.000534075
0.00056641
0.0022158
0.00672544
0.0134959
0.000759126
0.017789
0.0197762
0.0218218
0.00579066
0.010173
0.00153171
0.000775884
0.0248706
0.000353996
0.0224058
0.00672583
0.00929
0.0173625
0.00198541
0.022004
0.0231824
0.000143653
0.000247293
0.0241573
0.00345243
0.00675936
0.000476351
0.00094308
0.00223883
0.00251779
0.00227401
0.000398569
0.000868111
0.00467934
0.00197812
0.000761219
0.0210409
0.0172514
0.00391397
0.00673064
0.0174096
0.00673313
0.000898298
5.1109e-05
4.32402e-05
0.0020551
7.75092e-05
0.00183228
0.00550273
0.00922161
0.000533934
0.00274618
0.00290348
0.000807982
0.000769383
0.00285947
0.00678497
0.0128554
0.00558763
0.00163693
0.00187877
0.000353681
0.00542579
0.00442882
0.0100375
0.000590581
0.00430584
0.00455157
0.0100203
0.00176946
0.00135639
0.000181093
0.00890018
0.0158159
9.90562e-05
0.00389596
0.000896547
0.00280943
0.000314762
0.00083972
0.000152187
0.000128985
0.0023208
0.00381217
0.000447691
0.00325693
0.0098816
0.00138859
0.00252091
0.000364675
0.00372732
0.000654751
0.000369304
0.000806193
0.000918335
0.00675676
0.00677784
0.00288249
0.0062783
0.000107519
0.0033875
0.00157386
0.0137963
0.0099039
5.03651e-05
0.00356761
0.000245285
0.0215244
0.000540333
0.000572086
0.000520818
0.00875916
0.0244945
0.000325808
0.0155589
8.88472e-05
0.00975123
0.00019951
0.00058829
0.00129015
0.00117379
0.00458656
5.67198e-05
0.0141622
0.000928721
0.00678213
0.00903089
0.015602
0.000231679
0.00115471
0.000648135
0.000382009
0.00688417
0.00161264
0.00317047
0.00672864
0.0163035
0.000602155
0.00127152
0.00672504
0.0220901
0.000524728
0.000985395
0.00491852
0.0229073
0.0235358
0.00367604
0.000386476
0.0246597
0.00673
0.00675449
0.000448587
0.00672267
0.0170134
0.0164903
0.00188934
0.00675609
0.000820618
0.0018624
0.00807758
0.00020515
0.000410464
0.000598912
0.000151585
0.0162621
0.000791973
0.000314105
0.00193443
0.00428272
0.0143265
0.000646308
0.00223409
0.000714948
0.000850619
0.000634621
0.000820707
0.00197852
0.00170579
8.47665e-05
0.00111446
0.0177517
0.0207079
0.000667779
7.70621e-05
0.0162617
0.000889613
0.000679174
0.0201496
0.000746794
0.000282244
0.00210786
0.00174245
0.00672658
0.000363583
0.000697702
0.00244995
0.00889301
0.00177708
3.19072e-05
0.00675515
0.000759627
0.00293018
0.0161947
0.000333415
0.00069348
0.00672637
6.53312e-05
0.00674312
0.000354662
0.00511119
0.000332984
0.000757664
0.00672952
0.0200267
0.0056444
0.00170763
0.0201711
0.000274651
0.00672533
0.000654538
0.00474192
0.0247539
0.000186479
0.000584224
4.90268e-05
0.00576009
0.000799012
0.000116913
0.000358351
0.00353228
0.000746258
0.00675945
0.000775251
0.000654642
0.0212594
0.00711248
0.00475133
5.15058e-05
0.00474862
0.00513496
0.00819266
0.000803566
0.000514598
0.00071286
0.00304701
0.000140587
0.000958808
0.0177328
0.00673572
0.00249341
0.000341965
0.0241692
0.00138228
0.000573239
0.00312302
0.00959518
0.00741469
0.000935827
0.000515444
0.0233846
0.00263283
0.000722339
0.00071016
0.00809441
0.00345739
0.00672802
0.000914161
0.000294153
0.00554471
0.0067265
0.00674491
0.00672816
0.000636646
0.00672875
0.0206833
0.000541068
0.002596
0.0214565
0.0123812
0.00206279
0.0007464
0.00245325
0.00105023
0.00182204
0.000558189
0.00395971
0.0159784
0.000523015
0.00672222
0.0246252
0.00673064
0.00046313
0.00389357
0.0177533
0.00128551
0.00755948
0.00636078
0.0115018
0.000662808
0.000131116
0.017237
0.0170342
0.0181531
0.00159782
0.00367261
0.000374598
3.14821e-05
3.10333e-05
0.000682597
0.000469346
0.000327216
0.00475043
0.000112034
0.00673147
0.00675012
0.000566387
0.0105341
3.01566e-05
0.0033868
0.0153013
0.000323851
0.000497696
0.00126566
0.0024422
0.00842864
0.000391938
0.000760636
0.000824527
0.0226076
0.00181907
0.00875928
0.000769658
0.00059338
0.000311103
0.0045632
0.00226968
0.000602856
0.000430015
0.000742522
0.00794373
0.0230498
0.000747046
0.0194827
0.0117622
0.00516019
0.0205534
0.00070405
0.00410687
0.000589603
0.000743345
0.0166705
0.0118527
0.000518779
0.00505042
0.00136862
0.0179268
0.000340937
0.000619858
0.00621855
0.000591523
0.0211753
0.000707668
0.00082549
0.000739487
0.000443882
0.00330555
0.000797357
0.000269189
0.000820856
0.00329542
0.00059939
0.0267934
0.00270933
0.00058794
0.00180397
0.00089463
0.00120987
0.000704544
0.0160614
0.000638936
0.00068676
9.5427e-05
0.00901282
0.000480932
0.00477249
0.00290204
0.000617037
0.00330165
0.000618297
0.000535899
0.000734567
0.00332722
0.000166915
0.0265207
0.0118787
0.00080579
0.000720306
0.0164655
0.00158393
0.00680463
0.00200902
0.000529004
0.00155427
0.000316854
0.0166577
0.00314381
0.00672365
0.00309645
0.0166747
0.00452335
0.000959539
0.000561208
0.00675199
0.0265761
0.000447827
0.000641164
0.000987476
0.00126579
0.00197977
0.011104
0.00244392
0.00222762
0.0249654
0.0268018
0.000586987
0.0161242
0.00673183
0.00672797
0.000854572
0.000719234
0.00076044
0.00299219
0.00119343
0.000123193
0.00116532
0.0142135
0.00673083
0.000919164
0.0244142
0.000229556
0.00675068
0.00673
0.000955303
0.00187965
0.00058985
0.0258356
0.000625463
1.78422e-05
0.000891658
0.00673705
0.0217511
0.0170206
0.000207912
0.00240127
0.0160427
0.000220481
0.000262257
0.00221888
0.000495367
0.000564139
0.000727302
0.01904
0.0183146
0.0117251
0.000706101
0.000631916
0.00303584
0.0211525
0.000769723
0.000837418
0.000577071
0.00078198
0.000216847
0.000432575
0.00672267
0.0014949
0.0206707
0.0136609
0.00109604
0.0249834
0.00606388
0.00912385
0.000370788
0.00672791
0.00155649
0.00530857
0.00385817
0.000300138
0.0179237
0.000983675
0.00119292
0.000123144
0.000452177
0.00509616
0.0176398
0.00422906
0.0226879
0.000500083
0.00489459
0.00120677
0.000697706
0.0209317
0.00545512
0.0107764
0.00251093
0.00438121
0.014267
0.011514
0.000775585
0.000804612
0.0239108
0.00412177
0.00395229
0.00634488
0.00186954
0.00327852
0.0204271
0.021339
0.000512329
0.000741271
0.00507772
0.000678694
0.0224318
0.0163699
0.00335691
0.00319256
0.00336864
0.00168533
0.000485443
0.00108687
0.00680471
0.000735367
0.0148449
0.000459117
0.0138423
0.00101944
0.00470547
0.0244806
0.00672883
0.000652481
0.000935473
0.00080555
0.000604291
0.0257542
0.00391818
0.000790427
0.00183527
0.00137333
0.000410652
0.0236015
0.00819657
0.00179173
0.00334762
0.000127381
0.0142404
0.0146422
0.000666747
0.000922854
0.00101949
0.00070115
0.00490381
0.0174118
9.08095e-05
0.0220767
0.0055504
0.0237192
0.00135404
0.0195931
0.0163051
0.00673437
0.0004358
0.0229442
0.000381167
0.00058711
0.00217856
1.44445e-05
0.00018794
0.00371639
0.00275957
0.00672332
0.000437176
0.000431186
0.00672987
0.0169144
0.00672325
0.00433716
0.000702543
0.000700953
0.00231485
0.00457307
0.000258381
0.00301309
0.000469362
0.0149007
0.000516377
0.00675524
0.00393613
0.000444814
0.00121982
0.000478996
0.000974033
0.000230657
0.0170168
0.00672886
0.00453254
0.00672634
0.000918018
0.00246648
0.0243116
0.000349194
0.00361329
0.000114062
0.000366877
0.0230527
0.00291063
0.0194335
0.000332259
0.000584094
0.00147744
0.0148003
0.00480949
0.000414338
0.00208115
0.0227302
0.00297487
0.00166636
7.22737e-05
0.0256212
0.00672664
0.00672689
0.000714275
0.0027634
0.0214152
0.00156412
0.000749363
0.00119774
0.00426354
0.017237
0.000718242
0.000374163
0.0067848
0.00100911
0.000148092
0.000706238
0.00118583
0.000887129
0.000193431
0.00043767
0.000910593
0.000533565
0.000545469
0.000104152
0.00011542
0.0113645
0.0263556
0.00950578
0.00109933
0.00936531
0.000240985
0.0211432
0.000736264
0.00259807
0.000669578
0.00825603
0.000551987
0.00578642
0.00603543
0.00087044
0.00356065
0.00091053
0.0189588
0.00675573
0.0240189
7.14979e-05
0.00220797
0.000434345
0.000699336
0.00100541
0.00309064
0.000360103
0.000256287
0.0182068
0.0013811
0.00183043
0.000825326
0.00492056
0.000533979
0.00202777
0.0032188
0.00672648
0.000847609
0.00425073
0.023293
0.00672645
0.0161623
0.023707
0.000411183
0.0169558
0.00354349
0.006337
0.000406048
0.000377261
0.00672668
0.0027536
0.00677906
0.00348757
0.00672298
0.000422607
0.000661624
0.000134946
0.0174224
0.000868475
0.0194979
0.0067266
0.00438733
0.000369726
0.00672651
0.00672874
0.0241194
0.000745261
0.0199087
0.0229089
0.000558556
0.000505603
0.0049202
0.0241761
0.000660682
0.00101504
0.019383
0.00672704
0.00115459
0.00304427
0.00071424
0.00439189
0.000579632
0.000525494
0.000588271
0.0151507
0.000315354
0.000473897
0.0239453
0.00677425
0.0235353
0.00672437
0.00127335
0.0129905
0.00063117
0.000800247
0.000312188
0.000478797
0.00672678
0.00672649
0.000421947
0.00134161
0.00672662
0.000929694
0.000445921
0.00672855
0.000311784
0.000777879
0.0205078
0.000307253
0.00907654
0.000192723
0.00672705
0.000447158
0.00675524
0.000765992
0.0261622
0.0230996
0.0197067
0.0247468
0.00160958
0.00178416
0.000118752
0.000952542
0.00347103
0.0019066
0.00680131
0.00680131
0.000785289
0.000612602
0.00381482
0.00604175
0.00369743
0.000618481
0.0010694
0.00672627
0.000823872
0.000595387
0.0195096
0.00164237
0.00672513
0.00264473
0.00134703
0.000577709
0.0067491
0.0184709
0.00678798
0.00313836
0.00673818
0.000239132
0.000581758
0.000104335
0.000539979
0.00265333
0.000923148
0.00672579
0.0156011
0.00121619
0.0100182
0.00157259
0.0242563
0.0227205
0.000549975
0.00672515
0.00242173
0.025809
0.00072519
0.000738822
0.00275891
0.00322725
0.00247839
0.00733862
0.00673731
0.00672602
0.0194164
0.000621179
0.00673056
0.000815101
0.0203949
7.90714e-05
0.0262418
0.00482558
0.0109475
0.00673695
0.00672772
0.00172029
0.00674336
0.00672751
0.0256589
0.02699
0.00176043
0.00672325
0.00048915
0.00353875
0.00335827
0.000511122
0.00685141
0.0176229
0.00107433
0.00100004
0.00673539
0.000583458
8.3054e-05
0.00302318
0.00672463
0.00129657
0.00318019
0.000541683
0.000395614
0.000600136
0.00673301
0.000463199
0.000717491
0.00216118
0.0006379
0.0202391
0.000583958
0.00672626
0.00397024
0.00491515
0.00738399
0.0135872
0.0197664
0.000764771
4.83411e-05
0.00214701
0.0175934
0.000585359
0.00673183
0.026004
0.000932203
0.00672487
0.00192456
0.00105321
0.0174123
0.00825491
0.00638166
0.000445318
0.00420253
0.00097346
0.000367987
0.000860914
0.000624062
0.0205082
0.00672902
0.0155414
0.000459552
0.000532464
3.29481e-05
0.00107858
0.00167069
0.000716369
0.0219145
0.00207886
0.00763254
0.000633641
0.00965757
0.0021405
0.00452398
0.00055396
0.00268226
0.00148439
0.00672675
0.000815977
0.00673088
0.0198382
0.000431372
0.000376246
0.000412831
0.00077481
0.00539306
0.00110134
0.00057749
0.00128352
0.000547396
0.0233325
0.0160148
0.000662693
0.000254706
0.0259948
0.00113178
0.0114527
0.00677044
0.000330533
0.00118702
0.0024317
0.000277832
0.00673778
0.00631645
0.000128644
0.00299672
0.000432562
0.00122562
0.000369584
0.0168213
0.00527034
0.00370515
0.00201217
0.0158227
0.000608294
0.00672649
0.000519718
0.00125292
0.0123769
0.000972528
0.00013756
0.0190535
0.0012556
0.000213516
0.00179025
0.025486
0.0173456
0.0220192
0.000420157
0.00675654
0.00341929
0.000482426
0.00300646
0.00287182
0.000662212
0.0067282
0.0106372
0.000462767
0.00301359
0.0236223
0.00253046
0.00540008
0.00111268
0.025525
0.000455034
0.00673205
0.00396403
0.000480543
0.00332856
0.00408177
0.000808684
0.000799809
0.0218728
0.0104358
0.000701478
0.0233171
0.000729855
0.00371811
6.41646e-05
0.00652517
0.00427948
0.00317605
0.00672505
0.000806375
0.00133555
0.0233004
0.00478033
0.0139335
0.00371368
0.0190896
0.000340251
0.00261775
0.00138984
0.00247757
0.00324331
0.0068042
0.000361175
0.0140392
0.0133006
0.00676243
0.000362109
0.000563285
0.00076983
0.000335071
0.00464298
0.0068041
0.00129245
0.0116896
0.000935625
0.0221219
0.000905999
0.00672507
0.0031552
0.00405908
0.000692386
0.00540651
0.0241387
0.0233914
0.000326556
0.00673726
0.00132724
0.0018763
0.0196117
0.00695841
0.000288586
0.00434928
0.0228381
0.0084596
0.000677422
0.000666566
0.0136806
0.000651682
0.000266366
0.000101221
0.000399041
0.0013246
7.53675e-05
0.0035444
0.0265237
0.0123864
0.00676947
0.000714845
0.000215176
0.00112981
0.000646574
0.00672429
0.000822236
0.000915389
0.000968992
4.7782e-05
0.00672928
0.0261342
0.00424522
0.0031954
0.000693767
0.000801048
0.00673382
0.0225124
0.000626989
0.0165025
0.0140474
0.00673802
0.000707054
0.00061167
0.00162588
0.0142899
0.000649735
0.00672655
0.000631629
0.000519548
0.0259884
0.000583185
0.00297498
0.000970589
0.000954252
0.000118385
0.000607916
0.000461113
0.00399633
0.000735293
0.010949
0.00151576
0.00760459
0.026958
0.0226527
0.0085398
0.00382902
0.00486038
0.00227171
0.0138675
0.000715171
0.000493062
0.00142424
0.00209488
0.00674875
0.00494289
0.0103339
0.00678353
0.000843091
0.00081673
0.025659
0.00101823
0.00675361
0.00673535
0.00269897
0.00672357
0.000235923
0.0134262
0.000279364
0.0263203
0.00565487
0.00345291
0.0218128
0.0239682
0.00325706
0.0214615
0.000129215
0.0226436
0.00675398
0.000165406
0.000983429
0.00673712
0.00124374
0.00437262
0.00128751
0.000599424
0.00598895
0.00188439
0.00260532
0.000460425
0.00624862
0.00672632
0.0236677
0.00232197
0.0116454
0.00672957
0.00181666
0.000726264
7.44135e-05
0.00201129
0.0184449
0.00947305
0.00770065
0.0249878
0.00325371
0.00314457
0.0170577
0.00674273
0.0124097
0.00168694
0.000149347
0.00180426
0.00239892
0.00673335
0.00488738
0.00142609
0.000393343
0.000556248
0.00171704
0.00673221
8.80958e-05
0.00511743
0.0164411
0.00672891
0.000575168
0.0007984
0.00594817
0.018129
0.00673023
0.0065285
0.00674648
0.000932569
0.000192539
0.0226103
0.000625208
0.00672627
0.000966317
7.98849e-05
0.000653766
0.0169099
0.000247327
0.000712199
0.000615966
0.000573598
0.000942853
0.00329502
0.0238507
0.00181909
0.000757801
0.00673276
0.00041973
0.00675981
0.000537682
0.00675065
0.000192938
0.0103208
0.00679984
0.00188359
0.000747779
0.00672495
0.00155884
0.00673099
0.000166419
0.0155357
0.000519551
0.0228074
0.00673407
0.00672633
0.000141894
0.00672746
0.00672606
0.000915158
0.000650131
0.000564877
0.000198288
0.00216396
0.000368218
0.00351968
0.00673569
0.00672778
0.00674207
0.00195813
0.00331151
0.000891684
0.016009
0.00675904
0.00673258
0.0242363
0.00672638
0.00048889
0.00127795
0.0255831
0.00861235
0.000119485
0.0038423
0.000315209
6.70254e-05
0.00160239
0.000615608
0.000586215
0.00349616
0.00365244
0.000867462
0.000651412
0.00280034
0.000272456
0.00674564
0.00104892
0.000319739
0.00252127
0.000238912
0.00124657
0.000125127
0.0063489
0.00541379
0.00672899
0.000921564
9.09915e-05
0.0018816
0.000427075
0.00597905
0.0236387
0.000878893
0.000632773
0.00110823
0.0004921
0.00672676
0.000242436
0.0211047
0.00180149
0.00679232
0.0153895
0.000399659
0.0152889
0.0252659
0.000841621
0.00135484
0.00674509
0.00160011
0.00590605
0.0161619
0.0249933
0.000317341
0.00345981
0.00846152
0.00673212
0.000631145
0.000449351
0.00140987
0.000534126
0.00673825
0.0233022
0.0194464
0.0047673
0.000536504
0.000658748
0.0056971
0.000419476
0.000682495
0.0149175
0.000799117
0.0156345
0.000619131
0.00673189
0.000741464
8.1434e-05
0.0254867
0.00673923
0.0192735
0.000415935
0.000716789
0.00672636
0.0183242
0.000877272
0.000737486
0.00358634
0.000340254
0.000392895
0.00012375
0.00672758
0.00115098
0.000252617
0.000149191
0.000306282
0.00672931
0.00117884
0.000754213
0.00216999
0.00672903
0.000236052
0.00740513
0.000245298
0.0252234
0.00081701
0.00252995
0.00196297
0.0035181
0.00949646
0.00672489
0.000660441
0.000804354
0.000591167
0.000497104
0.000674664
0.000253663
0.000269139
0.000544963
0.000757629
0.00678057
8.13293e-05
0.000932518
0.000362358
0.0180166
0.000605724
0.000380359
0.00573759
0.00646613
0.00023074
0.00223417
0.000952096
0.000920151
0.00388376
0.000688251
0.000807465
0.0243682
0.0167902
0.00124702
0.000553671
0.0153916
0.00668361
3.57368e-05
0.00680539
0.000443101
0.00834446
0.0225468
0.00661887
0.00192706
0.00673093
0.00267245
0.00606368
0.000675327
0.000549535
0.021579
0.0256804
0.00123951
0.00672412
0.00545738
0.000142984
0.00630119
0.00819358
0.00673736
0.000778058
0.000919106
0.00182075
0.000526433
0.000898521
0.00344692
0.000367937
0.00132975
0.00057832
0.000311685
0.00674711
0.00367344
0.0231351
0.00672622
0.0164635
0.000588182
0.000336665
0.0261132
0.00672654
0.00113534
0.00039832
0.0103109
0.00669701
0.00672497
0.000478404
0.0217321
0.00672639
0.000322465
0.000325855
0.0173472
0.000401011
0.00048058
0.0102793
0.00673581
5.04327e-05
0.00675828
0.00317095
0.000519295
0.00558893
0.000973849
0.00038
0.0067248
0.00193128
0.000724133
0.025389
0.00185763
0.00359487
0.0067266
0.00676295
0.000438164
0.00673812
0.00316519
0.0231381
0.00672673
0.000553755
0.0015427
0.0130596
0.0171023
0.00342081
0.000717739
0.000381623
0.00672857
0.00282147
0.00673427
0.0209479
0.00672798
0.0146797
0.000975767
0.00679238
0.00487119
0.000569713
0.000963222
0.01615
0.000139131
0.000320044
0.000844218
0.0208983
0.000207029
0.000932192
0.000645608
0.000187303
0.000450577
0.0011471
0.000803808
0.011241
0.0250862
0.00441105
0.000980135
0.00248315
0.000422077
0.000224679
0.00380661
0.00192375
9.00453e-05
0.00672614
0.00147438
0.00673828
0.00679137
0.00130276
0.00214566
0.00266174
0.00672416
0.0104897
0.00672857
0.0001339
0.00131273
0.000938663
0.000152996
0.0025874
0.0270373
0.000703788
0.00672749
0.000603058
0.00375187
0.000323238
0.00239782
0.0247687
0.00074629
0.000483789
5.79926e-05
0.0259389
0.000431064
0.017509
0.0157318
0.000252721
0.00207687
0.00128559
0.00010127
0.000428107
0.00268928
0.00496325
0.00631427
0.00182738
6.94688e-05
0.0133051
0.000392114
0.019212
0.000616372
0.000606454
0.000636019
0.0197448
0.000500752
0.00672337
0.000248036
0.000758291
0.000945787
0.0057983
0.00672457
0.0171253
0.00672709
0.000464311
0.0239609
0.000517347
0.00312612
0.00025194
0.000667054
0.0258446
0.00675168
0.00366399
0.00674808
0.000505087
0.00142921
0.00198775
0.000580935
0.0222752
0.0036329
0.0067314
0.0232082
0.00219679
0.00206809
0.00152081
0.018175
0.00358975
0.000672926
0.00674898
0.0101524
0.0252963
0.000353011
0.000102874
0.000426817
0.00287515
0.00673025
0.0250265
0.00672323
0.0006897
0.00679255
0.000806698
0.00672843
0.0254939
0.00675379
0.000655568
0.0067878
0.000217514
0.000621314
0.00405366
0.000230394
0.0214436
0.000574505
0.0209479
0.0214734
0.000478658
0.000867925
0.000573825
0.000540048
0.0203787
0.00235937
0.000814343
0.000370553
0.00234915
0.00921354
0.00676087
0.00055549
0.000656075
0.00338035
0.000394049
0.0247487
0.00386731
0.00435098
0.00038155
0.0186491
0.00154753
0.000679671
0.0170909
0.00675716
0.0187141
0.0113061
0.0124505
0.00672498
0.00484794
0.00953798
0.000620819
8.7252e-05
0.0147248
0.000616056
0.000540373
0.000631822
0.000540516
0.00273501
0.00863483
0.00063911
0.00677872
0.00625083
0.00672814
0.000449818
0.000578313
0.000456325
0.0148302
0.000255694
0.00163891
0.000697803
0.000479737
0.0173853
0.0208394
0.000762456
0.00154912
0.00053664
0.000420045
0.000149139
0.00674505
0.000419101
0.000116416
0.000732386
0.00289705
0.000776906
0.000711173
0.000256939
0.0249653
0.0166233
0.000970777
0.000183843
0.00651458
0.00187519
0.00107207
0.0131829
0.000861444
0.000802404
0.000867912
0.00673307
0.000184984
0.0010394
0.0233906
0.00045258
0.00129527
0.00672488
8.19439e-05
0.000434294
0.0177341
0.00358754
0.00419506
0.00674254
0.000498585
0.00672645
0.000919688
0.00101662
0.00117386
0.000504932
0.00365609
0.000689313
0.00203887
0.000665867
0.0183116
0.00672616
0.0263669
0.00115588
0.00676036
3.74389e-05
0.000228571
0.000224549
0.0010718
0.000669471
0.000741003
7.67352e-05
0.000673026
0.00111538
0.00672473
0.00269605
0.00108621
0.0230602
0.0011877
0.00405038
0.00674081
0.000183395
0.00375118
0.00052719
0.000628606
0.00014158
0.00641163
0.0173854
0.0102027
0.0120574
0.006755
0.000549119
2.9363e-05
0.0107798
0.014061
0.00135142
0.00145198
0.000356248
0.0175155
0.0216317
0.000570142
0.0171366
0.0067247
0.00318951
0.000266078
0.0067277
0.00233696
0.000657799
0.00672651
6.68099e-05
0.00346368
0.0217085
0.0256961
0.0244615
0.0259015
0.0103037
0.00220509
0.00673038
0.0231427
0.00452967
0.00382695
0.0067667
0.000184084
0.0244773
0.00316446
0.000413957
0.00228719
0.000971799
0.000266795
0.00431434
0.00672542
0.0222827
0.0221295
0.00672826
0.00672748
0.0101762
0.000651811
0.00146175
0.00650734
0.0257214
0.00986841
0.00231668
0.00681385
0.00672654
0.0133603
0.000117873
0.00157275
0.00426782
0.0018016
0.0254488
0.00381436
0.00224343
0.00672722
0.0067263
0.0243569
0.00333459
0.0002493
0.0160608
0.00204199
0.00121149
0.000290395
0.0172847
0.000422578
0.0231837
0.0129395
0.00674658
0.000900865
0.000836765
0.00025138
0.0256241
0.00678082
0.00474797
0.00034107
0.000626059
0.00100412
0.00672907
0.00113774
0.000408646
0.00366756
0.00672746
0.000320378
0.00147669
0.000908386
0.000989745
0.021763
0.0169889
0.000354162
0.000772341
0.00300263
0.000712711
0.000591746
5.1106e-05
0.0240889
0.0225686
0.00672452
0.0212546
7.50436e-05
0.0195415
0.00111083
0.000396743
0.000467502
0.00192636
0.0256753
0.00673598
0.000616176
0.0125246
0.0217949
0.00432928
0.0234728
0.000452653
0.000493484
0.00479393
0.0216707
0.000476451
0.0184383
0.00457872
0.0266374
0.0068012
0.00674532
0.000629946
0.000315029
0.000296367
0.0024059
0.0126008
0.000706129
0.00346108
0.000374841
0.00997747
0.000133934
0.00345804
0.0141889
0.000733911
0.000803955
0.000814152
0.00674621
0.000370358
0.00674718
0.00822425
0.000137166
0.0010078
0.00508993
0.00087598
0.000504117
0.00501082
0.0251564
0.0171914
0.00849616
0.00526803
0.0171534
0.00673044
0.000333187
0.000851095
0.000155314
0.0159122
0.0111306
0.000210785
0.0237669
0.000279383
0.000445391
0.00589458
0.0267948
0.000142394
0.00046489
0.000102331
0.00672528
0.0153268
0.000319008
0.00154335
0.0156903
0.0226243
0.0129524
0.00790501
0.00584657
0.000393135
0.000273104
0.00673413
0.00196937
0.0067828
0.00181247
0.000418327
0.000274976
0.0161731
0.00423056
0.00674222
0.000717362
0.000756267
0.000769242
0.00677485
0.0181791
0.000880884
0.000713724
0.00165279
0.00327037
0.000382298
0.0258336
0.000136023
0.000585377
0.000286851
0.00673501
0.00105315
0.0176058
0.000359227
0.00214629
0.00672903
0.00316975
0.0103597
0.0218303
0.00309603
0.000367009
0.0173515
0.00206569
0.00673332
0.00194043
0.0240175
6.43802e-05
0.000372039
0.00103728
0.000942207
0.0258754
0.000227072
0.00986887
0.00105719
0.000582464
0.00679407
0.000168882
0.000298393
0.00384929
0.0249258
0.013607
0.0192207
0.0254436
0.00884356
0.0159858
0.0234264
0.000947074
0.0032761
0.0252416
0.00666365
0.0144174
0.00200495
0.000555965
0.00394536
0.00355696
0.0210862
0.0222355
0.000538665
0.00639879
0.0167664
0.000612336
0.000490476
0.00861041
0.0128818
0.0157757
0.00672853
0.0212844
0.0196358
0.000673933
0.000812456
0.000514611
0.00212052
0.00615996
0.000460649
0.000450849
0.000723504
0.000671582
0.00075047
0.000623613
0.0125442
0.00963186
0.000300139
0.000681341
0.0114892
0.00996191
0.00673047
2.8768e-05
9.77595e-05
0.00744713
0.000433669
0.00183174
0.000662252
0.000570539
0.000357541
0.00674901
0.000234153
0.000726238
0.000568369
0.000432972
0.00672513
0.00109954
0.0122392
0.0250509
0.0197072
0.0173301
0.000915233
0.00678662
0.0044986
0.000602743
0.00505406
0.0213369
0.00428304
0.00672666
0.00678584
0.0247131
0.00192036
0.00140276
0.000575841
0.000521978
0.00025589
0.000589281
0.000214364
0.000580024
0.00043508
0.00362307
0.000793654
0.00776164
0.000403444
0.0190247
0.000574967
0.00672731
0.00606479
0.000600516
0.000721211
0.00674488
0.000226552
0.000572231
0.000342545
0.0239518
0.00406491
0.02416
0.00672666
0.0158547
0.000365973
0.000385814
0.005226
0.000325498
0.000792597
0.0107624
0.000128759
0.00033999
0.00673712
0.0250635
0.00038839
0.00790338
0.00639085
0.0132556
0.000697661
0.000832799
0.0256493
0.0155217
0.0170603
0.000372661
0.00233077
0.00038815
0.00302245
0.014195
0.000605575
0.000490974
0.0178616
0.0179359
0.00262408
0.00284237
0.00943045
0.000410349
0.0147872
0.000239744
0.00642692
0.000440236
0.00831468
0.000154053
0.0224056
0.000386218
0.0163623
0.000746229
0.00672711
0.00294312
0.000541106
0.00119999
0.000157668
0.00340766
0.00210695
0.000477316
0.000994721
0.00190175
0.00673713
0.000411933
0.0161125
0.000680531
0.000469699
0.000475018
0.000384716
0.00221594
0.000280248
0.000595356
0.000514704
8.0513e-05
0.00102656
0.000146166
0.000144304
0.0032089
0.000575108
0.00844366
0.0150536
0.001984
0.00181394
0.00841364
0.00316618
0.00118464
0.000101805
0.00937636
0.00042512
0.00905528
0.00527892
0.00240941
0.000683155
0.00677675
0.000785656
0.00040949
0.00850211
5.73466e-05
0.0143769
0.0174185
0.025195
0.0157405
0.00142412
0.0144812
0.00520418
0.0206886
0.013492
0.00673358
0.00672335
0.0136258
0.00231835
0.00673589
0.0172545
0.0259398
0.00438818
0.000912966
0.0110082
0.00672385
0.0255553
0.0113198
0.00672493
0.0174997
0.00963492
0.0090887
0.0129682
0.012545
0.01182
0.00658325
0.000908288
0.000433541
0.000538076
0.00673709
0.0101553
0.00567989
0.0137315
0.0168489
0.00014367
0.0162643
0.0148215
0.0167991
0.0136296
8.71933e-05
0.00193428
0.00105772
0.000983463
0.00677314
0.0212154
0.000290169
0.00466876
0.0185945
0.00350968
0.0207915
0.0022472
0.0228241
0.00108067
0.00409241
0.000771139
0.000411524
0.00023003
0.0110167
0.0228761
0.000956017
0.000911218
0.000757242
0.000862541
0.000742647
0.000864118
0.000677523
0.00672679
0.000105713
0.00045602
0.000376564
0.00929711
0.000525395
0.000265995
0.000421412
0.000476628
0.000695536
0.00405622
0.000579894
0.00577241
0.000880426
0.017759
0.00880886
0.00674708
0.000447893
0.00464811
0.00120502
0.000358724
0.000851965
0.000457632
0.0255146
0.000486241
0.000821936
0.00323161
0.00674269
0.0250544
0.0067295
0.0012295
0.0008987
0.0225856
0.000406902
3.25491e-05
0.000139388
0.000749605
0.00170471
5.59484e-05
0.000426275
0.0163574
0.000490022
0.000822977
0.000727936
0.000788728
0.000624036
0.000156861
0.000417505
8.0913e-05
0.000499231
0.000266439
0.000820218
0.00232266
0.00273381
0.00295017
0.000588219
0.00675386
0.000790576
0.000609273
0.000516347
0.0116524
0.00102917
0.00315012
0.00674611
0.00204987
0.00672767
0.00672692
0.00102461
0.00673546
0.000669797
0.00260275
0.000547206
0.000528393
0.00106088
0.00201663
0.0155241
0.00238458
0.0257963
0.0244967
0.0049666
5.82063e-05
0.000398085
0.000917196
0.00672914
0.000333296
7.15219e-05
0.000372251
0.011593
0.000561376
0.0140124
0.00109175
0.00672521
0.0067436
0.0145384
0.00302378
0.000699816
8.32365e-05
0.00440021
0.00130512
0.0228507
0.00672744
0.00062997
0.00366603
0.0011747
5.26584e-05
0.000822214
0.00162592
0.000801483
0.000218538
0.000537459
0.000604482
0.00018522
0.000131015
0.000468152
0.000594756
0.00109322
0.00107594
0.000627547
0.0228372
0.0238746
0.0248869
0.000769927
0.0155967
0.000806083
0.00130751
0.0067455
0.000689726
0.00673016
0.000835722
0.00323127
0.00401592
0.00363552
0.00331936
0.0205579
0.000685121
0.0029563
0.00233282
0.00460072
0.000394945
0.0195745
0.000313461
0.00217768
0.0255577
9.13252e-05
0.00307287
0.000152165
0.00672706
0.000237615
0.000561004
0.000100654
0.0193764
0.000256905
0.0258154
0.00468716
0.0119519
0.00237811
0.000742948
0.00117782
0.000391764
0.00672491
0.000133522
0.0247744
0.00013909
0.000475918
0.000379576
7.90967e-05
0.00274449
0.00682625
0.00129819
0.0205724
0.000958803
0.0228028
0.00710196
0.0002727
0.00672779
0.000347251
0.000516114
0.000710607
0.00121515
0.00736595
0.00297391
0.00677713
0.00332141
0.0113711
0.00197947
0.00300575
0.0250005
0.00415708
0.000669474
7.37816e-05
0.00347598
0.0235318
0.00103833
0.0223688
0.00242639
0.0198417
0.00112438
8.34397e-05
0.00348267
0.000514352
0.00422629
0.0010056
0.0259472
0.00085928
0.000397084
0.000635932
0.000600318
0.000212701
0.000406784
0.00218521
0.000130649
0.000541624
0.000946373
0.000823225
0.00367004
0.00412938
0.00672454
0.000914029
0.00206957
0.000550542
0.0263809
0.00117802
6.04027e-05
0.00102545
0.000699631
0.000888695
0.0183182
0.0117654
0.00136774
0.00136283
0.0116565
0.011011
0.00807081
0.000536728
0.0240837
0.025068
0.00234727
0.00882351
0.0245064
0.000163527
8.3628e-05
0.000353791
0.00106458
0.0049542
0.000543118
0.00672662
0.00345009
6.91843e-05
0.000130187
0.00674481
0.000587699
0.000154498
0.000872732
0.00672647
0.00672266
6.54652e-05
0.00127048
0.00186852
0.000762495
0.0144777
0.00090691
0.000301226
0.0067473
5.41531e-05
7.60595e-05
0.0019346
0.000505831
0.00675078
0.0232207
0.0252072
0.000638716
0.00454025
0.000330416
0.000549813
0.00672997
0.000695903
0.00679354
0.00153589
0.00672737
0.0270238
0.00482306
0.000755261
0.00031013
0.000475864
0.000694782
0.00482983
0.0174741
0.000593892
0.00326476
0.00739158
0.000640024
0.00829778
0.00838253
0.00592683
0.0176829
0.00154735
6.24247e-05
0.00022007
0.0126073
0.0216432
0.00609807
0.00370339
0.000213552
0.0262777
0.00674546
0.000556047
0.0185231
0.00672652
0.00391284
0.00055823
0.00346517
0.00672475
0.00261577
0.000327732
5.29465e-05
0.000991523
0.000369215
0.00363847
0.00184227
0.0123193
0.0261447
0.00706698
0.000702262
0.00228148
0.00141277
0.006729
0.000281076
6.6448e-05
0.0254012
0.0194343
0.0138967
0.000485527
0.00672921
0.00672711
0.0040693
0.00247996
0.00100868
0.000476632
0.000664988
7.51288e-05
0.00568119
0.00217704
0.0067919
0.00484433
0.00618351
0.00110448
9.48848e-05
0.000405396
0.00212855
0.000387093
0.00014599
0.00731632
0.00823484
0.00672459
0.00363257
0.000763016
0.0148666
0.0198076
0.00672683
0.000321262
0.0098866
0.00678506
0.0204071
0.0257621
0.00423804
0.00673219
0.00472512
0.00678233
0.000273007