/*--------------------------------*- C++ -*----------------------------------*\
| =========                 |                                                 |
| \\      /  F ield         | OpenFOAM: The Open Source CFD Toolbox           |
|  \\    /   O peration     | Version:  v2012                                 |
|   \\  /    A nd           | Website:  www.openfoam.com                      |
|    \\/     M anipulation  |                                                 |
\*---------------------------------------------------------------------------*/
FoamFile
{
    version     2.0;
    format      ascii;
    class       volScalarField::Internal;
    location    "400";
    object      V0;
}
// * * * * * * * * * * * * * * * * * * * * * * * * * * * * * * * * * * * * * //

dimensions      [0 3 0 0 0 0 0];


value           nonuniform List<scalar> 
13917
(
0.0120782
0.0431097
0.00275542
0.0345481
0.120672
0.00224756
0.00227726
0.00146565
0.00177533
0.00797386
0.00439237
0.00913872
0.0247705
0.00135225
0.0218103
0.026547
0.0409004
0.00911098
0.0104352
0.158256
0.136684
0.00191981
0.124154
0.00200234
0.072345
0.00214558
0.00738964
0.0049736
0.00209038
0.00600102
0.0112496
0.0180278
0.011149
0.0171249
0.0711404
0.00312003
0.122103
0.00145223
0.0267214
0.00122956
0.174208
0.172412
0.132217
0.00481659
0.0438286
0.0172235
0.0103232
0.00766679
0.00167504
0.170526
0.0158527
0.039152
0.00147179
0.0159097
0.0384967
0.0197283
0.00562512
0.0667485
0.0272759
0.0425522
0.0023826
0.0486937
0.00124803
0.136907
0.00319443
0.00244089
0.11378
0.0676649
0.00368978
0.0126524
0.129029
0.00179983
0.00141679
0.0960235
0.00149407
0.00888763
0.00124747
0.037314
0.00232497
0.146887
0.153513
0.109271
0.00262151
0.00171595
0.00193925
0.038535
0.14193
0.0019285
0.020976
0.106332
0.00145196
0.00763389
0.0697653
0.0311878
0.00155024
0.00296441
0.00507217
0.007787
0.00480477
0.00520619
0.126832
0.011929
0.00417213
0.0273757
0.0902588
0.0022628
0.00352453
0.00665157
0.043748
0.00989806
0.00166563
0.00155362
0.00626535
0.00196243
0.02645
0.00132674
0.103694
0.00174232
0.00140383
0.0157288
0.164086
0.00418304
0.00125184
0.0067388
0.150485
0.0344223
0.0430238
0.170665
0.172468
0.00224749
0.00129612
0.0330812
0.0442094
0.140587
0.00326212
0.00206223
0.0113463
0.00359148
0.101382
0.0171985
0.00418257
0.0762847
0.0410493
0.00434117
0.0567249
0.00259804
0.00234143
0.047057
0.0880676
0.019373
0.00930636
0.00118048
0.00732398
0.00911146
0.0212066
0.00190229
0.0147464
0.00313357
0.00125622
0.00319739
0.0234535
0.008179
0.1623
0.0056057
0.00794116
0.00459076
0.0265833
0.00878219
0.0626431
0.0095349
0.0107279
0.00132155
0.00606765
0.0354144
0.00272539
0.00744763
0.00162163
0.00163953
0.00278205
0.0662143
0.00657157
0.0123598
0.0773362
0.126844
0.0151388
0.00234562
0.00423109
0.00208553
0.010157
0.00351494
0.00311587
0.00194651
0.00351985
0.143279
0.00369117
0.00782102
0.188347
0.0558857
0.00378646
0.00203743
0.0215246
0.129845
0.0112168
0.0102143
0.00134643
0.00298795
0.0608871
0.058933
0.0080881
0.00270153
0.0444345
0.00224926
0.00138545
0.00541291
0.0920527
0.00267514
0.00950304
0.00154573
0.0704738
0.00272009
0.0786413
0.00563517
0.143185
0.0013755
0.00201869
0.0235603
0.00355673
0.018739
0.104205
0.00271605
0.00639364
0.0108834
0.00256889
0.00105136
0.141263
0.0161824
0.00173043
0.00120743
0.139067
0.116435
0.00131697
0.00435566
0.162497
0.00393159
0.00714833
0.0073387
0.0128294
0.164055
0.0114747
0.00128573
0.0562571
0.0065299
0.00385704
0.0467667
0.059363
0.00804714
0.0013376
0.00666818
0.0119947
0.0200804
0.177314
0.00112844
0.00262096
0.00341703
0.0835562
0.00153433
0.00126367
0.00287861
0.00192022
0.00764269
0.160193
0.185891
0.00889151
0.00140253
0.00584195
0.0272165
0.00297293
0.011502
0.161337
0.00230577
0.138899
0.00243452
0.0248815
0.133676
0.0182145
0.00812928
0.00990449
0.00324548
0.0126102
0.0494028
0.0033837
0.00219685
0.00195433
0.0805363
0.00295875
0.124147
0.0520135
0.110393
0.00203611
0.184076
0.0052081
0.0148079
0.0679912
0.00927748
0.032112
0.00103732
0.00812566
0.00814487
0.0660014
0.0612132
0.00153645
0.00135448
0.0884313
0.155851
0.0026845
0.0717849
0.00150804
0.0772574
0.00126391
0.0393034
0.00389045
0.0160377
0.00142399
0.0255999
0.00308614
0.0026024
0.018522
0.00370722
0.00271814
0.0407826
0.00158915
0.00324766
0.00103784
0.020162
0.00128007
0.0168126
0.00185027
0.00359243
0.00446605
0.0050772
0.00220766
0.124021
0.0108665
0.00186694
0.0408895
0.028227
0.00139383
0.00339013
0.0437692
0.003513
0.00199026
0.144876
0.00146357
0.00358469
0.133493
0.105332
0.138914
0.0791125
0.00331063
0.00244833
0.00242622
0.00183895
0.0893683
0.00551927
0.00127707
0.011431
0.00193072
0.00166364
0.00193283
0.108981
0.00378164
0.0905256
0.00250403
0.0414032
0.00133801
0.00654593
0.0311538
0.109799
0.00884137
0.00526056
0.00611576
0.0012136
0.00163959
0.00122927
0.0100835
0.00649595
0.0997311
0.00124955
0.00195834
0.0590484
0.00383588
0.104697
0.00397474
0.0367451
0.13562
0.0232762
0.00167883
0.0279913
0.00167981
0.00148878
0.00245904
0.0024584
0.0396581
0.00259323
0.00238178
0.125773
0.00380047
0.0472408
0.0660847
0.00490489
0.177548
0.0982404
0.0823584
0.00363094
0.142078
0.0014491
0.00213224
0.00134703
0.00329592
0.0015804
0.00128686
0.0123159
0.0945467
0.00522779
0.0233595
0.0167082
0.125418
0.0025956
0.00240078
0.00258276
0.0211376
0.00573874
0.023342
0.028054
0.00727919
0.029441
0.00298687
0.0409744
0.153144
0.00157163
0.00148111
0.00154307
0.00550285
0.00119613
0.00178752
0.00151026
0.00150386
0.142957
0.00791733
0.029158
0.0540084
0.00325898
0.0076845
0.15955
0.00835306
0.0123333
0.00135093
0.100324
0.00561716
0.00165538
0.00308256
0.00121006
0.133974
0.0506644
0.161235
0.0115304
0.131322
0.00229987
0.00271128
0.0147261
0.00170627
0.0207258
0.00474906
0.00158537
0.00149578
0.00453768
0.0033479
0.00484186
0.00929284
0.00463959
0.0113329
0.00444101
0.00232179
0.00949963
0.00534459
0.154813
0.00278145
0.0214353
0.0795129
0.0125452
0.0337537
0.00150424
0.00164358
0.0698989
0.152839
0.00240787
0.00112535
0.18086
0.00124408
0.0294937
0.00415366
0.0731066
0.00108101
0.00311698
0.0189777
0.030809
0.00184873
0.00405944
0.00127989
0.176998
0.00135847
0.0018638
0.00295235
0.0679256
0.00170735
0.0021092
0.011303
0.100152
0.0354317
0.00921117
0.00376095
0.135253
0.111241
0.138329
0.137113
0.00125054
0.00306479
0.0121754
0.00422037
0.167016
0.0985961
0.00575485
0.00217179
0.0121866
0.05151
0.0880948
0.0700654
0.00257511
0.00185275
0.141475
0.0729402
0.00353605
0.0118175
0.0118619
0.057184
0.0249395
0.0189758
0.00595803
0.00283416
0.0034981
0.0044198
0.005284
0.00300722
0.00692946
0.0781838
0.00147884
0.0793813
0.0252443
0.0269885
0.00267717
0.00538301
0.116569
0.00320362
0.00519219
0.00145219
0.00484808
0.00965862
0.0117471
0.104399
0.00192212
0.00327366
0.00158201
0.0477157
0.0151846
0.00368489
0.00150979
0.00135892
0.0072254
0.00440786
0.0257421
0.0217791
0.0499776
0.00605793
0.004132
0.0424496
0.00970303
0.00331186
0.00171203
0.00108546
0.0263703
0.00509405
0.0035978
0.0164768
0.0433033
0.00155312
0.0025794
0.0022607
0.00416183
0.139427
0.00124506
0.00976082
0.136985
0.0141372
0.00724959
0.0113754
0.00638573
0.00215924
0.00501345
0.0152973
0.00233831
0.0266671
0.00138437
0.14118
0.107995
0.00244547
0.00215248
0.00242989
0.024912
0.0398068
0.0782533
0.0101864
0.00136047
0.00493735
0.0209862
0.00553256
0.00890242
0.0594996
0.00245095
0.00604156
0.00339687
0.0769552
0.00403451
0.032773
0.00156429
0.00822563
0.00595756
0.0128353
0.136929
0.0775005
0.0420129
0.00501909
0.01495
0.00375974
0.00126203
0.00854599
0.135257
0.00383111
0.00178189
0.00335056
0.0553843
0.0154771
0.111098
0.0166551
0.0205532
0.00187829
0.145923
0.00231255
0.0173844
0.00404903
0.0065007
0.00133701
0.00560146
0.0388958
0.00135779
0.0013627
0.0547108
0.0283614
0.00332384
0.00464553
0.0055815
0.168105
0.0308233
0.00404962
0.0244767
0.00748507
0.00921544
0.0703682
0.0103494
0.00243474
0.0527905
0.0415035
0.155049
0.00138378
0.153766
0.0220729
0.00135579
0.0251933
0.00239748
0.0209634
0.00848309
0.137679
0.00831126
0.100834
0.00905364
0.163227
0.00575675
0.0288625
0.00176067
0.00133843
0.00166343
0.189059
0.135702
0.00724818
0.00957537
0.00119782
0.00156634
0.00879416
0.0758325
0.00372389
0.00237259
0.00296823
0.0041531
0.00904916
0.00208014
0.0101653
0.0127571
0.00400853
0.00378394
0.0094328
0.00168703
0.0104278
0.0303255
0.00639645
0.014656
0.0685855
0.0179916
0.0101393
0.0183455
0.102379
0.153043
0.00901531
0.0258336
0.00665691
0.0673213
0.0902428
0.141106
0.0263767
0.0996693
0.0207523
0.142457
0.00110732
0.00981963
0.00283323
0.139788
0.13836
0.00676334
0.00789929
0.0300492
0.00241837
0.00635868
0.00263253
0.0135333
0.00490536
0.031118
0.1584
0.145636
0.0261427
0.00123991
0.145268
0.00268231
0.0153323
0.00106794
0.00803295
0.00555569
0.0043558
0.0959959
0.182471
0.00874148
0.0711574
0.0402471
0.00269287
0.0318954
0.130327
0.0154175
0.128966
0.131584
0.017853
0.0135323
0.00105179
0.0136432
0.0440137
0.17901
0.00157714
0.00412257
0.0483045
0.0384001
0.00254494
0.00324396
0.00130832
0.0113853
0.0294195
0.130359
0.124338
0.00931255
0.0129101
0.00320315
0.0147597
0.00156466
0.0343056
0.0254777
0.000928676
0.103414
0.0182706
0.0575306
0.160542
0.0101632
0.00749601
0.0322874
0.00205262
0.00121251
0.00752751
0.0636095
0.0804987
0.00552293
0.00274203
0.158806
0.00280719
0.0837644
0.0107822
0.0531124
0.0694822
0.00344983
0.0506834
0.0029276
0.010831
0.151691
0.109353
0.05095
0.072283
0.04412
0.00151048
0.0557813
0.0706491
0.00165229
0.00200388
0.012043
0.0117423
0.00662351
0.0211782
0.0795878
0.010786
0.00136642
0.00461796
0.0983129
0.0411001
0.001816
0.00998782
0.00157154
0.136271
0.0284729
0.00134063
0.0132197
0.0346615
0.00124256
0.00162018
0.0799655
0.00435864
0.119053
0.0544607
0.106955
0.00137861
0.0979931
0.0470967
0.0801403
0.00251061
0.0214191
0.00425136
0.005913
0.0621824
0.0103404
0.144114
0.00151129
0.0988319
0.0552504
0.131221
0.00381165
0.11049
0.00396829
0.00127257
0.002556
0.0184476
0.00302542
0.00134745
0.0605466
0.00123501
0.0016632
0.00127873
0.00156422
0.00157727
0.00153329
0.00405523
0.0351989
0.00188633
0.0140902
0.00178106
0.0800957
0.0625794
0.0484326
0.14201
0.0184147
0.0130246
0.00104617
0.0642001
0.0733718
0.00109419
0.00321362
0.0479388
0.00712967
0.0153643
0.041629
0.00108034
0.0069793
0.0237246
0.0213096
0.00121399
0.00100383
0.00174873
0.0563871
0.00401407
0.00495431
0.00135534
0.00173012
0.0069404
0.0626026
0.0306725
0.0318065
0.15862
0.0241549
0.132336
0.0165853
0.00600274
0.00164845
0.00551915
0.0441706
0.00518231
0.00152484
0.0109615
0.0474698
0.00122162
0.0603052
0.0416304
0.00858196
0.00175815
0.112568
0.0744391
0.00208151
0.00317197
0.00306048
0.00500521
0.00246195
0.066847
0.0035038
0.0432371
0.103105
0.0438905
0.00257333
0.0011454
0.0626369
0.106895
0.0555811
0.00296637
0.0263845
0.0175374
0.0754676
0.0457574
0.00417964
0.0573163
0.00766615
0.00359721
0.00174501
0.0505616
0.00536489
0.0225127
0.00139416
0.00120425
0.0864786
0.00122899
0.00660969
0.00163719
0.121881
0.00153512
0.120041
0.0159771
0.0109512
0.00444904
0.00235201
0.00285532
0.00446575
0.00225747
0.141205
0.00373999
0.0724388
0.0119627
0.00185791
0.0483315
0.155044
0.0337536
0.0393834
0.00130505
0.114448
0.123588
0.00898799
0.00766212
0.00958314
0.00226372
0.00538734
0.00120211
0.00901302
0.0123274
0.0140609
0.00135057
0.0122546
0.00265635
0.00150801
0.0212575
0.0643404
0.00160289
0.00333329
0.0415063
0.00596202
0.0094476
0.0354594
0.018838
0.036235
0.0113006
0.173295
0.00917478
0.00333476
0.101908
0.00855184
0.061398
0.00642666
0.166317
0.0148611
0.00769316
0.0240747
0.0410177
0.0650102
0.00163124
0.00616776
0.00258033
0.0728978
0.0385964
0.00824962
0.0584104
0.00681725
0.00571168
0.0343872
0.00651186
0.0697649
0.00240404
0.0437905
0.0161813
0.0010309
0.00360808
0.0809373
0.0271885
0.00127241
0.0993335
0.102783
0.00143126
0.00149076
0.0219243
0.00432565
0.145816
0.0403389
0.00253632
0.0319701
0.090417
0.00330187
0.0559758
0.0029851
0.115668
0.098101
0.044111
0.0051697
0.00143363
0.0436223
0.0409376
0.0735172
0.0194955
0.134867
0.0016355
0.00841046
0.158963
0.00232212
0.00853262
0.00284466
0.00158159
0.00150089
0.0677241
0.0483268
0.0536319
0.0019916
0.019671
0.00149778
0.00140925
0.0274425
0.00180328
0.00154976
0.00928001
0.00438332
0.00578503
0.00238243
0.00224192
0.00480671
0.00279867
0.00156108
0.00907744
0.0223799
0.00134015
0.00542092
0.0709141
0.0238145
0.00248085
0.0102756
0.0677223
0.00728007
0.00602833
0.0116905
0.0012283
0.0269549
0.00223896
0.0126167
0.0037712
0.00447963
0.00400254
0.0159391
0.0658432
0.0403989
0.00238498
0.0821621
0.0227406
0.153212
0.0250178
0.0594745
0.0104653
0.00503246
0.00142784
0.00809213
0.00646532
0.00236933
0.00291954
0.0591157
0.00302256
0.0022043
0.0570391
0.101125
0.0126064
0.00132625
0.141265
0.00746078
0.00258461
0.00844054
0.0575165
0.027762
0.0573909
0.00528125
0.00951377
0.134368
0.00173479
0.00207855
0.0096608
0.00277317
0.00763281
0.00214992
0.0264926
0.0194262
0.0022892
0.00277334
0.00680392
0.00184729
0.0179587
0.147833
0.0617349
0.0496086
0.0588314
0.0273081
0.0089558
0.0761212
0.00459022
0.133696
0.0144946
0.0669938
0.00650136
0.00524706
0.0029635
0.0620171
0.00400901
0.0594783
0.00225892
0.0925176
0.0176172
0.0940507
0.00360553
0.00124442
0.00398264
0.0729405
0.00527552
0.0464537
0.0144045
0.00149406
0.0532199
0.0425333
0.00813983
0.0157735
0.00191265
0.0739741
0.0146869
0.0381003
0.105936
0.0122593
0.0330181
0.101364
0.024512
0.00100095
0.0223768
0.00305238
0.00227414
0.00907393
0.00142974
0.0223154
0.109636
0.0144578
0.00116924
0.0338013
0.010362
0.0107341
0.00161214
0.0753167
0.00113625
0.00721305
0.00736103
0.0670752
0.114043
0.00502405
0.0392017
0.144509
0.00999598
0.0808992
0.015945
0.0158096
0.00538142
0.00333723
0.0020782
0.021907
0.0055201
0.00245764
0.00110494
0.013865
0.00279879
0.00132961
0.011796
0.0020149
0.0202148
0.00180672
0.00119887
0.0729908
0.164526
0.107497
0.0383607
0.00991309
0.0655216
0.0189423
0.0065297
0.0257454
0.0109955
0.00106247
0.00973604
0.0225803
0.00157091
0.0329707
0.00122353
0.025475
0.00425792
0.0773692
0.00106432
0.00130614
0.0464276
0.0367353
0.00181091
0.0106518
0.00126789
0.133823
0.0479238
0.00168184
0.0309483
0.00628186
0.00157246
0.0764789
0.00842584
0.0124663
0.111129
0.133419
0.00185118
0.0013137
0.0403793
0.0227417
0.0548247
0.0140889
0.00873784
0.00145639
0.0271788
0.00169354
0.00279052
0.00337335
0.00270852
0.0314555
0.00568563
0.00350292
0.0142356
0.091063
0.00880207
0.0014659
0.0251662
0.00727304
0.00185153
0.00132548
0.00272067
0.0195502
0.0483209
0.130954
0.0794657
0.00130043
0.0089628
0.0248714
0.0283101
0.0241129
0.135847
0.0594434
0.0760927
0.00619112
0.0153355
0.00237071
0.00572978
0.0012023
0.0014862
0.0135717
0.00926452
0.114772
0.0172576
0.00105539
0.0368759
0.0248415
0.00911783
0.00454376
0.00605562
0.00221035
0.00201932
0.05872
0.00106863
0.120798
0.038517
0.00801511
0.145034
0.0468734
0.00432774
0.00238418
0.0541509
0.00233223
0.0375393
0.0673091
0.020788
0.00168221
0.0161589
0.0272579
0.00200662
0.0319029
0.00338801
0.00164786
0.169487
0.00503862
0.130487
0.00119998
0.00640096
0.0670726
0.00196202
0.00872741
0.00461881
0.128987
0.00105153
0.0138306
0.00285458
0.0404283
0.00424677
0.00129448
0.0692001
0.00173004
0.0462877
0.00764613
0.00631856
0.1597
0.0010307
0.0242226
0.0043306
0.00818146
0.00474176
0.00967565
0.00930678
0.0283608
0.00188082
0.010779
0.00116876
0.0134148
0.00985735
0.0494837
0.011454
0.055612
0.00909609
0.00223664
0.0360629
0.0707603
0.00134134
0.0288393
0.00226498
0.032814
0.00228863
0.00256299
0.0129268
0.072957
0.101177
0.0857119
0.120199
0.00577282
0.00658857
0.00730141
0.0192093
0.136504
0.00303351
0.0249511
0.013918
0.00273715
0.056378
0.00181936
0.00959749
0.017419
0.00173227
0.0013298
0.00314197
0.00230522
0.002705
0.0720928
0.0025822
0.00148758
0.00260774
0.148821
0.0442076
0.00473329
0.00210596
0.00128489
0.00300845
0.0496046
0.00719709
0.0110863
0.00186074
0.00127093
0.0121151
0.00335229
0.0219488
0.00652421
0.00636506
0.144963
0.00550388
0.00246848
0.106866
0.00282236
0.142691
0.0463238
0.00103046
0.00152986
0.127819
0.0387881
0.0231527
0.0459645
0.00985256
0.0043177
0.0258647
0.100736
0.102778
0.00875502
0.0165113
0.0207736
0.00327114
0.0704917
0.00176526
0.00122619
0.00148521
0.00348735
0.00967473
0.00305112
0.0133668
0.00184228
0.00268895
0.00270934
0.0407694
0.00188065
0.00113015
0.115524
0.0970355
0.00536845
0.00149858
0.00230953
0.0628964
0.0499742
0.00151359
0.00185431
0.00271247
0.0245845
0.0209792
0.00185037
0.0493781
0.00148804
0.00173926
0.00313298
0.00248475
0.0513606
0.0780154
0.1315
0.0154892
0.00115746
0.0110591
0.0223754
0.0297876
0.00457314
0.00108056
0.0100015
0.00278242
0.00110759
0.0010355
0.00171472
0.0803737
0.152642
0.00226183
0.114313
0.0691457
0.0284742
0.00112673
0.0116338
0.00197738
0.00444151
0.0880206
0.00146475
0.0119608
0.0597888
0.00134614
0.00302832
0.0182181
0.0412001
0.00119162
0.00156704
0.118943
0.00229253
0.00230246
0.00183168
0.00209334
0.00542493
0.0640608
0.0318943
0.00351181
0.0203047
0.0021724
0.00842317
0.00281783
0.00325835
0.0267293
0.0165184
0.0550242
0.0343914
0.00168251
0.00113822
0.0810561
0.00126969
0.0100254
0.0475857
0.0203949
0.0934434
0.00415371
0.0263802
0.00168832
0.00650542
0.0659278
0.134505
0.00490619
0.000988452
0.01086
0.0229727
0.00963439
0.0642363
0.0248569
0.0175157
0.000937637
0.00136778
0.00155991
0.109515
0.131439
0.0247907
0.00652251
0.0989558
0.0343777
0.00383954
0.00716752
0.00273203
0.0712902
0.00161846
0.00132734
0.163983
0.00100882
0.00519493
0.0104464
0.00153232
0.036177
0.00144252
0.0147154
0.0241621
0.0226442
0.122062
0.00355706
0.167081
0.0361153
0.0114251
0.00150142
0.00150303
0.140427
0.161623
0.0241869
0.0492104
0.0041362
0.0381837
0.00618543
0.0291159
0.00145184
0.0352013
0.00156721
0.103055
0.00162488
0.0351808
0.113112
0.00181606
0.00258951
0.00390839
0.00299033
0.00566283
0.0101507
0.0726338
0.0014291
0.0656724
0.0998126
0.00451049
0.00901588
0.00180153
0.00143995
0.00488319
0.00276725
0.00477909
0.00281988
0.139749
0.0222748
0.0165587
0.00155118
0.0202803
0.00138197
0.0010299
0.0365518
0.0463656
0.0521602
0.00264203
0.00106098
0.0236383
0.124296
0.0209962
0.0185114
0.0109143
0.00347424
0.00308582
0.126775
0.00203454
0.00629239
0.000967041
0.00649516
0.0245899
0.024547
0.00138461
0.142197
0.00604547
0.00219728
0.028619
0.0197613
0.00378595
0.00421907
0.0332009
0.0012582
0.0245626
0.00333059
0.00956594
0.0138156
0.0304428
0.00166572
0.101595
0.00503512
0.00178492
0.00154856
0.0091164
0.00719632
0.0211198
0.00959279
0.138329
0.00172644
0.0190741
0.0495727
0.0148415
0.139397
0.164472
0.000882028
0.0931663
0.147161
0.0537762
0.00394538
0.0462969
0.0131051
0.00613158
0.00354487
0.00536009
0.137547
0.00313994
0.00199204
0.00414597
0.00750037
0.0121088
0.00419419
0.00265273
0.00268702
0.166809
0.00247572
0.00216733
0.168766
0.0250675
0.119281
0.00223736
0.00519438
0.0343305
0.00169575
0.00149347
0.136629
0.0426017
0.00208461
0.00111525
0.00833767
0.107614
0.00265261
0.00159723
0.00130841
0.100635
0.00151871
0.00671445
0.00403627
0.00128975
0.0210708
0.118737
0.0135542
0.00426511
0.012947
0.00204686
0.00150224
0.0689322
0.00231819
0.00155022
0.00134025
0.0865167
0.00623743
0.0288253
0.0636442
0.00122225
0.00306558
0.0033595
0.00293565
0.0146629
0.0100259
0.158411
0.00162472
0.00118515
0.0718449
0.0378556
0.0111166
0.0606082
0.00917971
0.00167721
0.00192537
0.00906108
0.0343185
0.036682
0.00162583
0.0196513
0.0089919
0.075672
0.0291447
0.00333946
0.00280785
0.00311134
0.00154723
0.142618
0.00365948
0.153633
0.00783521
0.00177751
0.00136666
0.0958079
0.14476
0.0144597
0.0165066
0.0445172
0.00138759
0.00152368
0.0761394
0.140038
0.118145
0.0958099
0.00143958
0.065841
0.00150469
0.00513124
0.00846554
0.0617279
0.00922648
0.00162969
0.0140795
0.00266029
0.00162419
0.0322941
0.00102603
0.00988163
0.00636239
0.00320286
0.00122598
0.00136247
0.00922169
0.0723716
0.00387931
0.0652789
0.0155841
0.0440001
0.00232304
0.0104205
0.00279103
0.00344886
0.0100181
0.114645
0.00343765
0.0180971
0.161657
0.00269527
0.10889
0.0145057
0.0105619
0.0439869
0.0021525
0.0280951
0.00230067
0.0271297
0.0943046
0.00179851
0.00151554
0.0211736
0.0109105
0.0123375
0.0066476
0.00882376
0.0148193
0.0149349
0.022324
0.00367298
0.0182303
0.0021872
0.00562104
0.00262879
0.00567227
0.0298064
0.001601
0.155489
0.00234377
0.0207035
0.0019541
0.00269195
0.00269668
0.00270153
0.00398931
0.0046605
0.0330132
0.00166504
0.00444293
0.0730329
0.00106371
0.00230357
0.0253466
0.0276619
0.0121887
0.011831
0.0148281
0.00137385
0.18472
0.0152857
0.011052
0.0111608
0.140884
0.00584302
0.0933284
0.00212452
0.0193601
0.00448737
0.0131391
0.0110137
0.00506381
0.00283399
0.00696286
0.0698043
0.0037539
0.00177984
0.00174506
0.0380828
0.00231315
0.0168396
0.00143288
0.0638631
0.0223098
0.00145905
0.00994849
0.00123101
0.00123105
0.0101769
0.00123111
0.0489687
0.0929987
0.00103103
0.00567338
0.0241402
0.00171574
0.0183614
0.00724776
0.014906
0.00710801
0.0418606
0.00253787
0.00180498
0.00123378
0.00323586
0.0170151
0.00850009
0.00124449
0.0239577
0.0426975
0.00530032
0.113257
0.0020932
0.00180113
0.0012148
0.00132033
0.00884205
0.0346072
0.00158371
0.123796
0.00506717
0.14743
0.00166598
0.0276194
0.00655393
0.00125597
0.00470911
0.124808
0.0125778
0.00184002
0.047371
0.00536641
0.0681884
0.00215018
0.00131882
0.00547809
0.00430669
0.12432
0.00402282
0.00495687
0.0103148
0.0683229
0.0379835
0.166159
0.00958325
0.100073
0.00563866
0.04334
0.063395
0.00183018
0.0587595
0.0184671
0.0219463
0.134921
0.00146882
0.0624591
0.0118792
0.00159467
0.0100109
0.00260936
0.0491943
0.00173395
0.0100748
0.0017636
0.0261867
0.00394706
0.0433858
0.00948501
0.00511151
0.00539191
0.00389179
0.00153542
0.00428701
0.00287996
0.0157156
0.00523438
0.0091425
0.0026648
0.0185818
0.0414184
0.05974
0.00966125
0.00689971
0.00287878
0.00897947
0.00220849
0.00237631
0.00386602
0.0540735
0.00277276
0.00259191
0.0397237
0.0252301
0.0509073
0.00218459
0.0586294
0.000884481
0.0622437
0.0180063
0.00143042
0.00525227
0.087386
0.0595238
0.00122364
0.0742124
0.023496
0.0168753
0.0123334
0.0202718
0.0402341
0.0031479
0.0043656
0.00918964
0.00366511
0.00146291
0.0013733
0.00111452
0.11656
0.0637523
0.00421264
0.0352883
0.00555347
0.00223801
0.00127864
0.11204
0.0713973
0.00153144
0.00305067
0.107989
0.0715285
0.0148813
0.00185877
0.0020014
0.01858
0.012698
0.130659
0.00356005
0.00546594
0.00323962
0.0114561
0.010201
0.0269356
0.0110244
0.00331965
0.0233947
0.0401817
0.0186968
0.00209301
0.0178541
0.00122384
0.0909589
0.00151578
0.0112616
0.012425
0.0868704
0.0936654
0.00280947
0.00235771
0.00598984
0.00118502
0.00190367
0.034981
0.00148573
0.004734
0.144843
0.00260811
0.00285436
0.00339509
0.139265
0.00146378
0.00144189
0.0641272
0.00975795
0.00128457
0.0101776
0.0491054
0.069312
0.0351113
0.0242703
0.00664681
0.00371448
0.00447995
0.00676514
0.120731
0.0517864
0.00228634
0.0639527
0.00847451
0.0138007
0.0474476
0.00877945
0.0804302
0.0240599
0.00358606
0.103175
0.00135172
0.0986596
0.00183501
0.00166538
0.00588636
0.0427506
0.16245
0.00157031
0.120087
0.0230145
0.0355819
0.00371521
0.00298487
0.0113999
0.0015695
0.00982162
0.00282437
0.0300362
0.0069513
0.0587893
0.0968255
0.00122526
0.0013497
0.0030287
0.0238641
0.00761691
0.00664364
0.00107116
0.00150938
0.00352863
0.00771985
0.11889
0.00157708
0.0516103
0.046901
0.004145
0.00529049
0.0139468
0.00297046
0.00699142
0.012459
0.0176304
0.00142232
0.0235461
0.091127
0.000990929
0.00558281
0.0903487
0.00110257
0.127954
0.10761
0.00399848
0.00504683
0.00190177
0.0994935
0.0195188
0.0619265
0.00180563
0.0669534
0.0022796
0.00258512
0.00152523
0.00143542
0.00158926
0.0116155
0.00148421
0.00198625
0.133606
0.0127635
0.00943768
0.0114822
0.00177997
0.00128313
0.00127324
0.00156462
0.00170001
0.043934
0.00584556
0.144806
0.0014292
0.0165865
0.0254236
0.0234961
0.0278904
0.0664838
0.00477889
0.00133763
0.107968
0.0252273
0.144739
0.00149496
0.0267179
0.00169093
0.00216006
0.00293388
0.0864609
0.0663732
0.00115378
0.00261239
0.10317
0.00322483
0.137231
0.00468506
0.00294917
0.00584627
0.00977531
0.00263351
0.0579131
0.0605143
0.00361775
0.00148
0.0149999
0.00694819
0.0633418
0.00110209
0.0815346
0.142484
0.031149
0.0625303
0.00174911
0.001429
0.00287941
0.00864525
0.00150024
0.00337701
0.11949
0.0139791
0.0855982
0.00174922
0.036558
0.0196704
0.0616311
0.0972387
0.0646508
0.00205079
0.0392181
0.00153918
0.0772753
0.011607
0.155289
0.00181962
0.10028
0.013835
0.0105501
0.00590883
0.00178435
0.0929421
0.00117349
0.00730427
0.00847941
0.141647
0.0800728
0.00142335
0.00101541
0.0407479
0.0651032
0.00343006
0.00362509
0.00889844
0.00155987
0.0278352
0.00214459
0.0168834
0.0926913
0.00178923
0.0356682
0.00188155
0.0593721
0.028096
0.110003
0.000986567
0.0014596
0.110992
0.00277661
0.00367188
0.139352
0.0571424
0.144817
0.00281332
0.00153893
0.00755004
0.0280334
0.0102715
0.099881
0.0509401
0.0246589
0.107094
0.00394909
0.0463548
0.00781248
0.00288298
0.0106295
0.130751
0.00237152
0.00569462
0.0964189
0.00544912
0.0146809
0.00288796
0.020073
0.00230923
0.00843935
0.0528607
0.00613306
0.00614607
0.0256792
0.00170363
0.00811251
0.018185
0.00292908
0.0569595
0.00452619
0.00387858
0.00480633
0.0965067
0.060624
0.120719
0.0105532
0.00889634
0.00877926
0.00237322
0.0012993
0.00223469
0.133203
0.00159546
0.00163094
0.0015837
0.0603081
0.0466753
0.00887316
0.0018897
0.0232265
0.0107429
0.00152073
0.00130043
0.0016972
0.00379638
0.00403847
0.00154154
0.00290036
0.0881192
0.00181813
0.00363096
0.0366422
0.0380383
0.0279267
0.00143379
0.00597455
0.00181741
0.023004
0.00273228
0.0424223
0.00254372
0.00133868
0.0359453
0.00876913
0.00146583
0.00234762
0.00843464
0.0287463
0.0238532
0.0332747
0.00364124
0.00543599
0.00249831
0.00155222
0.0783338
0.00105097
0.00433265
0.0027087
0.144605
0.13751
0.00354519
0.00294514
0.0616358
0.00907999
0.00489877
0.0061433
0.00209154
0.00192121
0.00159178
0.00149285
0.0194159
0.0768747
0.00519874
0.0012712
0.00225131
0.0495227
0.00188067
0.00427472
0.00211423
0.0318554
0.14631
0.00175011
0.00266385
0.00249251
0.00181761
0.00133018
0.0859206
0.00283745
0.00158353
0.0461283
0.00542464
0.00650921
0.0998333
0.00388695
0.00185577
0.00283296
0.142182
0.00112208
0.00493201
0.00161963
0.107119
0.0254352
0.0322293
0.0360104
0.0360673
0.00738041
0.00949706
0.00802501
0.00291249
0.0104048
0.0013617
0.0187075
0.0184065
0.0145952
0.00105668
0.0058164
0.00145422
0.0145389
0.0139368
0.00103239
0.00362825
0.0481445
0.00839896
0.00284855
0.00228401
0.00369064
0.0546246
0.0806144
0.0496929
0.00311726
0.0283882
0.00148893
0.0018167
0.00261318
0.0134155
0.00384551
0.00132471
0.0474791
0.00249852
0.0111456
0.00510552
0.0480005
0.0512803
0.00786143
0.00148113
0.14036
0.00153077
0.00319749
0.0044716
0.00427609
0.0745518
0.113626
0.0148563
0.0375894
0.00168499
0.0017006
0.00514724
0.00287243
0.0562433
0.0436046
0.0408245
0.132104
0.00182242
0.0300263
0.001362
0.00439562
0.0283533
0.00247506
0.00214483
0.00146895
0.00108183
0.0239317
0.066797
0.104289
0.0240729
0.00213109
0.00343873
0.0016257
0.113271
0.0362021
0.00333509
0.149516
0.00339836
0.0230362
0.00332245
0.00291563
0.0085321
0.00951302
0.0755237
0.00919204
0.00989455
0.00347413
0.004427
0.00923786
0.0976942
0.00381153
0.0689528
0.0025169
0.00161081
0.00187875
0.0505514
0.00562548
0.0563302
0.0107436
0.027315
0.0355506
0.0126808
0.00139552
0.00188698
0.00465579
0.00780944
0.00347152
0.00573517
0.00209609
0.0015204
0.0153419
0.00146462
0.00349528
0.0640233
0.00581241
0.00153013
0.00474724
0.142538
0.00813449
0.00162367
0.00324656
0.00103367
0.0416406
0.00300913
0.0745841
0.0639447
0.0108178
0.00186988
0.159453
0.0014739
0.00163159
0.00334377
0.00261098
0.00262887
0.00157431
0.00371082
0.108471
0.0201198
0.0812085
0.0072826
0.00374046
0.00222502
0.0191263
0.010656
0.0744777
0.00158647
0.011136
0.00921235
0.00174587
0.00336119
0.0016783
0.00157783
0.0594621
0.00104362
0.104118
0.0147811
0.00534087
0.00166081
0.00435867
0.0143439
0.0315195
0.00199739
0.0146147
0.00201556
0.00100536
0.00998874
0.00153867
0.0104704
0.144055
0.00188993
0.00736438
0.0276766
0.000988429
0.00189093
0.0148826
0.0150126
0.00497964
0.00131003
0.0636576
0.0483989
0.111202
0.0895694
0.028517
0.00151237
0.0108049
0.00165262
0.120698
0.0471112
0.00201284
0.0364871
0.165446
0.111289
0.0504955
0.00270946
0.0677685
0.00158495
0.0362235
0.027281
0.00773035
0.0387238
0.00267978
0.0699069
0.149442
0.0649991
0.0127774
0.00503505
0.0219227
0.00144614
0.0473029
0.00779366
0.015993
0.00151699
0.0334013
0.104968
0.059963
0.0750222
0.00339872
0.0686596
0.0571566
0.0255838
0.00280658
0.142546
0.0080329
0.00884041
0.0539779
0.00166545
0.0016136
0.00305588
0.00259972
0.0221838
0.00537179
0.0442824
0.00350464
0.0036123
0.0369792
0.00292497
0.00505468
0.0024205
0.013359
0.062909
0.00163965
0.00881593
0.00297497
0.0018745
0.0784157
0.0627616
0.00122238
0.00153461
0.00861342
0.00604753
0.0278457
0.00183071
0.0024874
0.110909
0.0919552
0.0402714
0.0991478
0.134231
0.0600449
0.00960293
0.00152434
0.01468
0.0432525
0.00230686
0.0845115
0.00303535
0.00508236
0.0446238
0.0164706
0.0624973
0.00306309
0.017711
0.0065116
0.0631143
0.0384551
0.00118049
0.00147506
0.13222
0.00893932
0.00759905
0.0153671
0.0212423
0.160302
0.0353151
0.00293126
0.00298753
0.0109958
0.00212051
0.0371129
0.00164056
0.00458569
0.0250989
0.00125491
0.0265118
0.00179781
0.00240556
0.00142455
0.00269864
0.00151342
0.00151761
0.0706632
0.0175796
0.0225447
0.0772201
0.0653785
0.0150967
0.00462639
0.0597922
0.0133864
0.0041945
0.00493255
0.00266455
0.00360138
0.0130932
0.00257079
0.00213276
0.010334
0.0184304
0.00385444
0.00175749
0.00181824
0.0189006
0.0771271
0.0665716
0.0673717
0.0128981
0.00127838
0.00334874
0.0617694
0.00128127
0.107118
0.00455554
0.00209991
0.00462354
0.00389136
0.00398951
0.00322938
0.0285477
0.0108096
0.0775954
0.00358949
0.0624053
0.0272182
0.0132516
0.00312864
0.0960974
0.0242966
0.00118107
0.116177
0.0413626
0.0162196
0.00158644
0.00487317
0.00302888
0.00920635
0.138551
0.00164921
0.00830635
0.026813
0.0674093
0.010425
0.015159
0.05659
0.0219698
0.00125359
0.0237187
0.0804153
0.00653593
0.0805507
0.0114013
0.00981697
0.0915893
0.0998276
0.00140446