/*--------------------------------*- C++ -*----------------------------------*\
| =========                 |                                                 |
| \\      /  F ield         | OpenFOAM: The Open Source CFD Toolbox           |
|  \\    /   O peration     | Version:  v2012                                 |
|   \\  /    A nd           | Website:  www.openfoam.com                      |
|    \\/     M anipulation  |                                                 |
\*---------------------------------------------------------------------------*/
FoamFile
{
    version     2.0;
    format      ascii;
    class       volScalarField;
    location    "500";
    object      ddt0(k);
}
// * * * * * * * * * * * * * * * * * * * * * * * * * * * * * * * * * * * * * //

dimensions      [0 2 -3 0 0 0 0];


internalField   nonuniform List<scalar> 
13917
(
0.000985322
1.17081e-06
2.3552e-06
4.24476e-07
2.5116e-07
1.23119e-06
8.60575e-07
-1.94399e-07
6.82191e-07
-2.98938e-05
-2.04006e-08
3.67241e-07
5.02671e-07
5.72368e-05
6.3249e-07
0.000733369
-2.34518e-06
3.09919e-07
2.42142e-06
0.00072001
1.0865e-06
3.49025e-07
1.44526e-06
3.48012e-07
5.79717e-07
1.11054e-06
1.01944e-05
1.34742e-07
9.42662e-07
-5.22335e-07
-6.33891e-05
1.60021e-06
4.43102e-07
0.00140417
-1.62522e-07
-5.50503e-07
5.9606e-07
1.83819e-07
8.52318e-07
1.38224e-06
-9.71822e-07
-2.54938e-07
5.6894e-07
2.15382e-06
2.10452e-06
5.5131e-06
1.03759e-06
-0.00033546
-0.000643345
-1.57219e-07
3.65878e-07
3.90556e-06
0.000249336
4.01386e-07
3.83663e-07
3.99516e-06
-0.00047659
1.46793e-06
1.15208e-07
4.93154e-06
0.000206259
-2.11966e-06
2.45724e-06
5.58087e-07
0.000533013
-1.36866e-05
7.37529e-07
-5.41189e-07
1.48435e-07
0.00100991
-4.38731e-05
0.00131183
3.07658e-07
7.83599e-07
1.13509e-06
6.20619e-07
2.17854e-07
9.44915e-07
6.00054e-07
4.5713e-07
3.71607e-07
-3.30332e-06
2.99374e-07
3.313e-05
8.94302e-08
4.55533e-07
1.5637e-06
1.55269e-07
1.35071e-06
-1.8052e-06
-1.51507e-07
5.7275e-07
-0.000656006
-2.53738e-07
4.14111e-07
8.33574e-07
2.80059e-06
-1.96573e-06
1.4063e-07
2.8884e-06
4.48025e-07
5.63678e-07
3.86114e-07
-6.92128e-07
2.37339e-07
0.000283359
0.000982565
-5.52549e-06
5.18813e-07
-4.17432e-05
6.26357e-08
0.00138718
9.85492e-07
-0.000204242
0.000415713
6.52244e-07
2.41741e-06
-1.57797e-07
2.72396e-06
2.72788e-07
-1.95658e-06
4.88645e-08
6.17106e-07
2.82716e-06
0.00137188
6.17156e-05
5.37434e-07
1.17747e-06
7.44655e-08
2.82326e-06
1.07065e-06
2.53199e-06
0.00556215
6.46012e-07
1.75186e-06
-8.4499e-05
0.000195613
0.00171147
1.14493e-06
3.12555e-07
-0.00207899
3.24671e-07
0.000163146
2.75057e-07
3.06869e-07
1.33025e-05
-5.30453e-05
-0.000326098
0.000235001
3.8528e-07
1.25278e-06
9.4002e-07
3.06859e-07
2.77312e-07
3.62876e-05
2.20022e-07
-6.28997e-07
0.00577905
-8.92632e-07
-3.95245e-07
1.57975e-07
-0.00114986
6.93087e-07
-0.00336737
0.00123872
3.42905e-06
0.000225174
9.25105e-05
-2.81159e-07
1.1613e-06
2.89269e-07
0.00479218
6.74379e-07
0.000904429
2.19699e-06
-1.8514e-07
4.24392e-07
4.27651e-06
1.04065e-06
7.20589e-07
5.7053e-07
3.22087e-07
3.64618e-07
5.92309e-06
2.66529e-06
2.51422e-06
3.67669e-07
5.42342e-06
-5.43358e-07
8.59034e-07
2.15426e-06
2.02661e-06
4.76541e-06
0.000998232
-2.3707e-07
0.00137818
8.18306e-07
0.00537485
-1.75512e-07
2.1662e-07
9.63228e-07
0.000978053
0.00126529
5.45547e-07
-8.65561e-06
9.99623e-07
1.28848e-06
2.00228e-07
4.36324e-06
3.70974e-07
2.65467e-09
6.01379e-07
8.72338e-07
0.000353714
1.68926e-06
1.15338e-06
-0.000699661
-2.08826e-08
-4.59041e-08
-4.70508e-08
-0.000532052
5.23098e-06
7.47693e-06
5.64644e-08
2.81473e-06
-0.000562011
0.00101102
-3.75855e-08
-3.31882e-08
-9.59858e-07
-5.35133e-08
-5.62841e-08
0.00125822
0.00094361
3.25138e-07
-2.82447e-07
2.44092e-06
0.00146438
-1.42211e-06
5.46892e-08
-5.9379e-06
0.000443176
5.2358e-06
-0.000484802
2.9982e-06
2.80305e-07
0.000884296
2.48578e-06
1.05818e-06
1.91337e-06
5.28022e-07
0.000981222
2.78888e-07
1.53003e-06
2.01707e-06
3.08888e-07
-9.04757e-07
5.56006e-07
5.0946e-07
-2.24972e-07
0.00192039
-0.00354829
-3.28807e-07
-1.26323e-08
2.10054e-07
-2.37898e-08
2.83793e-07
5.39162e-07
1.40096e-06
-3.60889e-07
0.00210144
0.000856682
4.17459e-07
2.83933e-07
4.6151e-06
-1.19607e-07
2.42359e-06
0.0022808
-1.16174e-07
0.00125659
-2.68666e-07
-0.00126534
-2.46727e-07
5.26143e-07
3.03064e-07
2.55396e-07
2.95291e-06
-3.3547e-07
3.45924e-06
9.77675e-07
-0.00670354
2.06989e-05
4.44511e-06
0.00170361
-4.22561e-07
1.67734e-06
4.87482e-07
6.70196e-07
3.62386e-07
5.99002e-07
-2.69745e-07
-5.586e-07
4.04786e-06
-3.93412e-06
1.49164e-06
5.80004e-07
5.5974e-08
0.00577475
0.000728449
1.32037e-08
-2.58224e-05
6.74905e-07
1.98322e-05
2.20326e-06
0.000727616
0.00102558
-7.07645e-06
2.57451e-06
3.08908e-07
1.12675e-05
2.16514e-05
2.48723e-06
5.29146e-07
6.04355e-07
-1.03394e-05
2.55248e-07
1.31044e-06
1.98955e-06
-2.34056e-06
0.0046723
9.35645e-08
1.11337e-06
-3.06576e-07
0.000258718
2.44487e-09
1.44039e-06
1.02916e-06
-3.40891e-06
-1.42419e-06
1.89207e-06
-5.21512e-06
4.09131e-07
2.37749e-07
0.00150622
3.02632e-05
-4.64619e-05
2.73028e-05
-9.53566e-08
3.45305e-07
0.00073349
2.67287e-06
-9.10226e-08
3.89107e-07
3.80565e-07
1.40865e-06
1.46583e-06
3.59386e-06
2.55345e-06
2.45467e-06
1.16264e-06
0.0011361
1.11491e-07
4.13317e-07
2.69241e-07
2.32746e-06
-1.80867e-06
0.000804103
1.13803e-06
-0.00108997
3.81425e-07
2.72079e-06
-2.46007e-05
-0.00547279
2.34721e-06
7.35867e-06
4.90274e-06
1.05618e-06
4.20678e-07
2.60938e-06
-6.83521e-07
0.00115167
4.65662e-06
2.68884e-06
0.00039088
2.85416e-07
-3.91945e-05
-2.64602e-07
0.000933307
0.000171989
5.70697e-07
-0.000673204
2.20898e-06
4.94172e-07
0.000601318
5.01317e-06
5.40172e-07
3.28944e-06
3.72581e-07
2.22182e-06
1.97091e-06
9.62778e-08
7.87118e-07
5.79725e-07
2.41774e-07
9.20736e-08
1.38735e-07
0.00024116
3.25335e-06
3.95339e-07
1.20957e-07
4.0297e-07
1.71943e-06
6.37069e-07
-1.78225e-07
-2.76448e-07
2.27494e-06
2.66443e-06
2.74048e-07
5.59363e-07
0.000761103
-9.51078e-05
1.02565e-05
2.48833e-06
-1.00172e-05
8.4865e-08
-1.75318e-07
9.56167e-07
8.36453e-08
-1.7861e-07
3.24048e-07
-1.70497e-07
3.00547e-08
0.000875394
3.62718e-07
1.46889e-06
0.0023373
1.69407e-06
1.87569e-08
3.14768e-07
0.000278915
9.59517e-07
0.00108223
-3.24075e-07
1.29012e-07
-4.11103e-07
-5.35865e-08
5.84431e-07
2.69337e-07
0.000829853
-1.93203e-05
0.000451499
1.32024e-07
1.21609e-06
-8.6197e-06
3.54167e-07
3.00055e-06
8.11768e-06
3.79587e-07
-0.00202416
3.99589e-08
4.71484e-08
4.03682e-07
2.99279e-07
-2.29773e-08
2.27411e-07
0.00567541
0.000789546
-3.34745e-08
4.85962e-06
2.22444e-06
1.65134e-07
1.80912e-06
1.55492e-06
0.000754349
8.29056e-07
8.45106e-05
5.78589e-05
0.000191676
2.75204e-07
-1.16519e-05
-5.51043e-07
5.10431e-07
2.79729e-05
-2.89504e-07
4.09694e-07
4.20084e-07
7.36522e-07
1.10683e-06
2.63474e-06
1.53589e-06
-5.82945e-06
3.8619e-07
3.5859e-07
1.66714e-06
3.95764e-07
0.00161143
1.36483e-06
9.78774e-07
0.00115483
8.73721e-08
1.71286e-06
5.1617e-06
3.41816e-08
0.00495803
4.5669e-08
-5.75104e-08
1.7369e-06
-2.65251e-07
3.5874e-08
3.77273e-06
0.00613225
-0.00296198
1.46368e-07
4.41368e-07
-5.08309e-06
1.27702e-05
1.7687e-06
3.84363e-07
3.89589e-07
1.32916e-07
1.9066e-06
-0.000478436
4.60832e-08
-1.50028e-06
2.31052e-07
2.25716e-07
-1.20484e-06
1.0008e-06
-5.58151e-07
1.55979e-06
3.06127e-08
4.01612e-07
5.63901e-07
0.000783086
-6.61576e-08
5.93765e-07
-2.18834e-07
1.19252e-06
2.01907e-06
1.20693e-06
2.08385e-06
3.01997e-06
5.342e-07
5.33471e-07
0.00484487
0.000900941
0.00272922
-4.53568e-08
3.93614e-07
3.28595e-06
2.86488e-07
0.000701404
-1.32825e-07
-0.00258729
8.17769e-07
0.00268398
2.57868e-06
5.69242e-07
4.99368e-05
-5.15058e-08
1.39253e-06
-1.97565e-06
-4.39785e-07
0.00338718
-2.12272e-07
2.52208e-06
1.92988e-06
3.07491e-07
4.09978e-07
2.7554e-06
-1.4483e-06
9.85108e-10
2.20212e-06
1.80925e-06
0.00073359
-2.83403e-05
0.00610167
0.000922671
-6.73728e-08
0.00105366
5.69593e-07
0.000269644
-0.000429069
-1.6609e-07
-2.09827e-05
7.18146e-07
1.34307e-06
5.42241e-07
-2.26771e-07
-1.60076e-06
4.75252e-07
1.33843e-06
1.71712e-07
1.48019e-06
4.24082e-07
1.32294e-08
-8.60861e-07
6.0392e-06
-7.5211e-05
0.000336182
1.83836e-06
9.93374e-07
1.87275e-06
0.00159603
-2.79274e-07
-5.76527e-05
4.44238e-07
1.95461e-06
2.93433e-07
1.06283e-06
2.11474e-07
-1.40138e-06
3.04909e-07
0.000607962
1.39901e-06
0.000448183
-4.8055e-07
1.35788e-06
-6.71011e-08
6.80654e-07
0.00109041
3.22852e-06
-1.19537e-07
3.91637e-06
5.64536e-08
-8.02154e-07
9.90859e-07
0.00104149
1.68603e-07
4.65881e-07
-1.37606e-07
-1.03644e-07
2.49187e-06
8.64026e-07
3.39201e-06
-3.52643e-06
1.80209e-08
3.21747e-05
1.51686e-06
3.85682e-07
0.000552049
2.27195e-06
1.77835e-06
5.2034e-06
-7.69707e-08
6.78742e-07
0.000955266
4.94057e-06
9.21546e-07
5.99981e-07
-1.53148e-06
-2.42147e-06
1.98248e-07
-2.18634e-06
2.20336e-06
7.42621e-07
0.000921212
1.41436e-06
-4.20363e-07
2.56639e-06
-4.31753e-06
1.39183e-06
4.3933e-06
0.00130029
-2.46736e-07
-1.63746e-06
1.2284e-05
2.6237e-08
-4.7998e-07
-7.52624e-07
-7.92554e-06
1.27632e-07
0.00114463
1.07631e-06
-2.50102e-07
1.96839e-06
-4.48895e-07
0.000573021
-2.7643e-07
6.59661e-08
0.00564629
1.91548e-06
-0.000477954
3.27677e-07
-2.24418e-06
-2.62491e-08
3.887e-07
9.57683e-07
2.4437e-07
0.00136899
1.09371e-06
-0.000759602
-0.000639246
-1.53037e-06
0.00609765
4.44122e-07
-1.43231e-06
-7.52216e-08
0.0024445
-0.00154775
8.47536e-07
0.00135261
-0.000501606
1.02771e-08
2.78888e-08
5.79887e-07
-9.03699e-06
-0.000200921
1.41845e-06
3.85632e-07
5.94897e-07
2.00464e-06
2.47403e-07
3.55581e-06
1.09633e-06
4.09315e-07
4.61112e-07
-1.13787e-06
9.59736e-07
3.51719e-07
8.97951e-06
6.93938e-07
-3.66106e-06
0.00133433
-1.82237e-06
-0.00139542
5.81391e-07
9.82126e-07
8.04681e-07
4.06142e-06
-1.63307e-06
1.33093e-06
8.08221e-05
0.000460283
2.98888e-07
6.95748e-07
6.64326e-08
1.93443e-07
2.91521e-07
-2.47195e-07
-2.24422e-05
5.80392e-06
3.41329e-06
-9.75726e-08
1.51135e-05
6.82424e-07
7.47205e-07
3.8579e-06
3.45557e-07
1.41536e-06
2.20929e-06
-1.00577e-09
1.91084e-06
2.49946e-06
1.09608e-06
1.24341e-07
-4.21233e-09
1.85054e-07
0.000777069
4.38034e-07
-2.77277e-07
1.12015e-06
2.60775e-07
3.77326e-08
3.75147e-06
4.12305e-06
-1.00951e-06
-0.00010592
1.40784e-06
0.00108991
2.92802e-07
2.0298e-07
5.95636e-06
-3.33207e-07
-3.64089e-06
-1.84874e-06
-5.80985e-07
3.30203e-07
7.20115e-07
1.24442e-06
1.15085e-07
0.00107892
2.14775e-07
-0.000530267
5.87972e-07
8.25239e-07
-2.9511e-07
1.98056e-06
5.59897e-07
-0.000789288
-1.083e-06
-2.93299e-06
0.000795817
4.74935e-07
0.00171701
5.15302e-07
-3.58813e-06
2.33189e-07
-1.07632e-07
2.76324e-07
0.00405857
9.60051e-07
1.81812e-06
-8.73413e-05
1.76413e-07
1.11764e-06
-2.8366e-07
3.87381e-07
-0.000267329
-2.98528e-07
0.000936781
5.95361e-07
-3.616e-06
2.41435e-06
3.04175e-05
-1.00127e-07
-4.64065e-07
2.65945e-06
-8.09185e-08
4.08531e-07
5.23231e-07
3.87791e-07
1.13876e-06
-8.92529e-08
1.69209e-06
4.04347e-07
0.000957221
0.0017408
8.025e-07
0.000708267
-0.00134091
0.000747413
7.67239e-05
-4.38354e-08
-9.93822e-07
3.71216e-07
4.75351e-07
1.4129e-07
9.62877e-07
2.39446e-07
-1.86823e-07
3.93251e-07
-3.3814e-06
4.23501e-07
9.42003e-07
2.36503e-06
-9.4214e-08
1.45504e-06
4.74075e-07
7.84601e-08
8.24611e-07
-8.24175e-07
0.00654068
2.36648e-06
0.000871818
6.06642e-09
1.31798e-07
2.64261e-07
2.06125e-07
0.00126595
-2.57234e-08
3.21799e-06
1.97867e-07
-0.000258024
4.24685e-07
2.69487e-07
1.37044e-06
-2.57399e-06
-1.91237e-08
-0.000957343
-4.40528e-05
5.55886e-07
1.91674e-06
-1.15647e-07
2.92221e-06
-1.53478e-06
2.2383e-07
0.00111788
-1.06115e-06
4.38539e-07
2.01099e-06
0.00110828
-1.7059e-06
-5.28481e-05
3.18137e-06
1.70548e-06
2.37891e-07
4.04464e-07
-2.58492e-06
1.16832e-07
2.05093e-06
3.47294e-07
0.00509968
5.02673e-07
-0.000134175
1.3122e-07
-4.1156e-07
0.000129488
1.56813e-07
-1.68614e-06
0.00433666
4.997e-07
8.97819e-08
0.000213446
2.05049e-06
-1.01025e-06
2.16295e-06
5.28565e-07
0.000803927
1.41697e-06
1.55651e-06
4.66341e-06
5.90735e-07
0.00490104
4.24396e-07
2.01985e-06
1.45267e-07
0.00230033
-3.17676e-05
3.29144e-07
-1.61614e-06
-2.32957e-07
3.88056e-07
-1.55707e-06
3.64052e-07
-3.84585e-07
2.47773e-07
1.03348e-06
2.4798e-09
4.83337e-07
1.70309e-06
0.00117476
-0.000692871
1.94023e-06
2.724e-07
9.92753e-05
1.99671e-07
4.74184e-06
-0.000322291
0.000209199
-8.5891e-08
-3.63041e-08
1.49793e-07
4.2219e-07
-9.55556e-08
-2.40341e-07
1.92906e-07
1.42622e-06
9.43871e-08
0.00049135
0.000157302
1.12342e-07
0.00361675
1.53465e-07
1.56627e-07
-3.50353e-06
0.000984741
1.74679e-06
-4.54187e-07
-5.44213e-05
-1.55992e-07
1.12392e-07
1.46777e-05
-8.57654e-07
-1.90001e-06
4.51178e-07
-4.17902e-06
2.6222e-08
-1.0647e-07
9.87034e-07
1.8971e-06
5.24432e-07
0.0018075
-1.98539e-06
-4.55507e-07
2.35686e-07
1.48748e-07
-1.42542e-08
1.7978e-06
1.04688e-06
7.27233e-07
0.00280503
0.000626212
3.7397e-06
1.84244e-06
-3.14527e-07
0.00289042
1.8813e-08
0.000780907
2.00989e-06
7.83437e-07
5.01473e-07
-0.000824623
-0.00380907
-6.68672e-05
-4.71397e-06
8.46297e-05
-1.2807e-06
2.37352e-07
1.05819e-06
4.01943e-07
3.58003e-07
3.14914e-06
0.0010099
-4.0518e-08
7.70578e-07
0.0015205
2.13213e-06
-7.81154e-08
-0.0023529
-1.90317e-05
4.58728e-07
9.1743e-07
8.28947e-07
3.30157e-07
7.21005e-08
-1.54801e-07
6.3625e-07
3.70839e-07
-0.000540893
-6.51299e-06
0.000753811
-0.000345588
-2.58296e-06
0.00227821
3.29025e-07
4.17094e-07
-0.000277471
0.00110096
-0.000204355
-2.74578e-05
9.92775e-07
3.38782e-07
4.57613e-07
-2.0415e-06
-0.000446102
-2.15451e-06
2.20181e-07
1.46512e-06
2.53406e-07
0.000821623
1.98302e-06
2.0944e-06
1.31048e-06
1.2802e-05
-5.26057e-05
0.000278535
0.00331455
2.01721e-07
1.27064e-05
-8.34585e-08
1.87355e-06
2.45569e-06
-0.000204782
7.01663e-07
-2.21097e-07
7.78706e-07
-2.43395e-06
4.98063e-07
0.00106426
1.32576e-06
2.64044e-06
0.00125148
-5.85003e-07
1.87176e-06
5.58349e-07
4.05602e-07
-1.59425e-06
0.000372779
-5.16057e-07
-1.29718e-07
5.03675e-07
-9.80985e-05
8.97058e-08
4.96613e-07
5.41605e-07
4.29382e-07
4.31294e-07
2.44543e-06
1.44365e-06
2.39006e-07
-3.44127e-08
1.41185e-06
-9.22441e-05
1.10946e-06
0.00528369
3.52018e-07
1.34914e-07
-0.00215042
-2.70169e-07
5.14695e-07
0.00336152
0.00249413
-4.81475e-08
1.85675e-06
7.16075e-07
0.000947585
2.89871e-06
1.0602e-06
-6.66455e-05
3.33037e-08
2.48411e-06
0.00113734
2.67239e-06
-0.000510131
-0.00216486
1.37689e-09
4.02485e-07
4.35381e-07
4.17285e-07
3.79238e-07
8.91274e-06
-9.58531e-07
1.5745e-06
-1.85263e-07
1.27331e-06
0.000369532
5.26042e-07
1.56312e-05
-0.00205886
1.52347e-07
1.55148e-06
6.51652e-07
4.99785e-07
2.09577e-07
0.00288138
1.85249e-06
0.00124107
8.74978e-07
-0.000727985
2.50301e-06
-2.26077e-06
-5.71257e-06
1.33199e-06
9.44537e-06
2.86813e-07
2.98793e-06
2.05777e-07
7.21262e-07
1.12242e-06
6.19827e-07
3.40366e-07
1.50029e-06
-9.49553e-05
1.62657e-07
3.75193e-06
-3.7332e-06
4.02849e-07
1.90349e-07
1.42031e-05
-8.96383e-05
7.9308e-06
-1.63719e-07
8.97356e-07
-3.54602e-05
4.73936e-05
0.00136809
3.6067e-07
5.06532e-08
-3.87811e-08
1.44889e-07
1.07496e-07
5.65493e-07
-9.92544e-05
2.11631e-07
6.53206e-07
0.000337136
-2.87526e-05
1.94125e-06
-0.000435767
-3.46297e-05
3.27747e-07
-2.42833e-07
5.37207e-08
4.73055e-07
1.41674e-06
0.0063986
0.000826851
2.45359e-06
9.25606e-07
1.39192e-06
5.42128e-07
8.29097e-05
6.92854e-07
2.1513e-06
-2.02264e-07
2.85537e-06
9.99356e-05
-2.27488e-07
3.04697e-07
0.00189391
1.64338e-06
9.05814e-05
0.00121521
3.47676e-06
-1.32775e-09
4.24925e-06
-1.1701e-07
7.76672e-08
-0.000219549
-0.000664091
-2.09772e-07
-7.18396e-08
2.50496e-06
1.15768e-06
4.40337e-07
-8.00011e-08
2.02206e-07
-1.27703e-08
1.69748e-07
1.05251e-06
1.60908e-06
0.00176261
1.19854e-06
7.89595e-07
1.04349e-06
2.40007e-06
-7.05704e-08
1.10112e-06
7.26849e-06
3.53478e-06
0.000978818
4.59761e-07
-6.30324e-08
0.00249678
4.91599e-08
-0.000359633
5.24776e-07
1.45589e-06
3.92211e-07
4.87051e-08
1.45426e-05
8.32925e-07
4.39951e-07
1.20337e-07
-0.000298218
5.94117e-06
0.00166577
2.62929e-07
4.23e-07
-0.000934663
-3.09655e-07
1.49189e-07
2.52597e-06
-0.000573971
8.37304e-07
1.21285e-06
4.28471e-07
-7.53176e-05
1.01032e-07
2.82608e-07
3.37871e-07
-5.45625e-08
3.83152e-06
1.16588e-07
-3.79671e-08
3.16555e-06
1.40054e-06
-0.000588912
2.28791e-06
8.86519e-08
1.03607e-06
4.3581e-08
-3.77044e-08
2.25639e-07
2.75318e-07
3.92674e-07
3.68742e-06
3.65805e-07
2.25547e-06
-1.39915e-06
-1.50796e-05
3.20029e-07
1.1371e-06
1.10959e-07
0.00299688
-4.83205e-07
-2.64601e-06
1.65865e-06
3.0761e-07
1.43127e-06
1.2044e-06
1.06339e-06
4.48974e-07
2.72561e-07
9.08202e-08
-2.42585e-07
-2.99408e-05
1.04268e-06
-7.1792e-06
-5.54762e-07
-1.32966e-07
5.38375e-07
4.36956e-07
2.52733e-07
-0.000690801
1.58032e-06
-1.8548e-07
6.0813e-08
-2.5925e-07
1.5931e-06
0.000414959
-0.0029184
-5.89663e-06
0.00092087
-5.63372e-06
2.83369e-06
4.60418e-07
-0.000554601
-1.7649e-07
-4.82204e-07
7.15075e-07
0.00111086
-2.63467e-07
0.00162663
4.21001e-07
-6.9509e-07
2.58445e-06
3.59219e-06
0.000972128
0.00120588
7.89119e-07
2.44739e-06
0.000450956
3.0583e-07
-0.000704364
1.51895e-07
-2.15858e-08
1.52505e-05
-2.24663e-07
0.00158375
0.000759362
1.87088e-07
2.69136e-07
3.59608e-07
0.00561306
-8.35401e-07
-7.14632e-08
1.67524e-06
9.44114e-08
5.01509e-09
-3.60501e-06
2.76008e-07
1.28632e-06
3.31796e-07
2.65168e-07
-7.95761e-08
7.35925e-06
1.40191e-06
-6.2072e-08
-5.48411e-08
4.51054e-07
6.32563e-08
5.95163e-07
2.67099e-07
-3.22782e-07
3.30304e-07
1.352e-07
4.57512e-07
4.07237e-07
5.29073e-07
-2.60993e-07
2.01171e-06
3.69539e-07
1.1597e-06
-1.89861e-07
3.98284e-07
2.49981e-07
-3.10869e-07
1.25608e-06
4.60018e-07
6.70706e-07
-0.00078951
5.84496e-05
0.00542173
-0.000358105
1.88598e-06
0.00113319
4.00443e-07
3.99326e-07
5.4125e-06
0.000493446
5.49271e-07
0.00173677
-2.53988e-07
2.1725e-06
0.000396388
5.95261e-07
2.1838e-06
0.00189701
-0.001486
-6.19039e-07
1.31485e-06
1.21689e-07
-0.000332273
6.4792e-07
0.00308554
0.000952016
3.73999e-07
2.06468e-06
2.89795e-06
-2.78945e-06
1.65577e-05
0.00121503
5.4126e-07
8.85842e-08
0.000102653
0.00251286
2.90901e-07
1.05061e-06
3.64999e-07
3.35244e-06
3.70523e-06
4.39588e-07
-1.83589e-07
6.35358e-06
-7.12648e-08
1.4768e-07
4.04193e-07
-1.22091e-07
1.32577e-05
3.78918e-07
9.66129e-07
0.00313856
1.65269e-07
1.36484e-06
2.98878e-07
7.83536e-05
1.77917e-06
-0.000597517
-2.08828e-07
8.98765e-07
1.45462e-08
-9.08818e-07
5.41185e-07
4.42779e-07
1.41004e-05
4.82459e-07
-1.03036e-07
1.64671e-07
0.000739582
8.62849e-08
5.81301e-05
0.000183536
-0.00374692
3.48096e-07
-1.26471e-07
1.23465e-07
1.24227e-05
3.79418e-07
-0.000112195
-6.25462e-07
4.52054e-06
5.15397e-07
-1.75435e-07
9.91447e-06
4.18207e-07
-1.71714e-06
0.00230154
2.49208e-06
0.00140202
-2.49489e-07
0.00222851
-6.63075e-05
4.31582e-07
0.00201628
3.84353e-07
4.68059e-07
0.000843197
4.57304e-07
1.00478e-06
0.00113734
8.42188e-07
1.78394e-06
3.2003e-07
-6.14193e-05
1.6014e-07
-0.00017656
1.11373e-07
0.00119247
1.65728e-07
8.15341e-08
2.44565e-07
-9.78237e-05
-1.009e-07
3.19139e-05
1.82701e-06
0.00341501
1.99688e-07
8.8896e-07
0.0041788
9.34443e-07
2.42268e-06
2.43003e-06
-2.07527e-07
3.19207e-06
5.19888e-06
5.40117e-07
1.259e-06
-4.3967e-07
4.70084e-06
0.000945532
-1.02138e-07
0.00134649
6.14584e-08
0.0010438
1.21841e-05
6.07516e-07
2.24002e-07
-0.000248977
-0.00138134
1.06149e-07
5.15523e-07
-1.26008e-07
4.28306e-07
0.000222151
1.99909e-06
1.10707e-05
2.60891e-07
9.0525e-07
0.0018274
4.79295e-06
-6.97422e-05
-6.78152e-05
8.95435e-08
1.1883e-07
2.79183e-06
0.000570987
2.23336e-05
0.000428115
4.02211e-06
1.29889e-06
-2.90422e-06
0.00341296
0.0010795
-0.000456764
8.99762e-08
2.38958e-06
1.58349e-06
2.06547e-06
3.9304e-07
7.31434e-07
1.85348e-06
3.01471e-06
-0.00339264
1.08018e-06
-8.28505e-07
0.00293005
1.17148e-06
1.12243e-07
1.2601e-07
2.53163e-06
-1.5565e-07
0.0059439
9.44489e-07
1.92363e-06
4.18105e-06
0.000700403
-7.23349e-08
1.35308e-06
1.01302e-06
4.06439e-07
0.00521499
-5.56926e-06
0.00625816
-3.06684e-07
0.00183312
4.86899e-06
2.1222e-06
-3.77141e-07
8.00185e-07
8.64077e-07
2.54692e-06
3.13467e-06
1.63564e-06
0.000142774
3.71188e-06
-2.99146e-07
7.75675e-07
-1.42572e-07
3.24009e-06
0.00107108
2.30855e-07
-9.47297e-08
5.00094e-07
3.75512e-06
2.46749e-06
-2.62234e-07
1.58615e-06
3.5376e-06
9.021e-08
0.000465334
5.61639e-07
0.00612276
4.11063e-07
4.9153e-05
-6.64909e-05
9.582e-07
5.7317e-07
2.78752e-06
1.92607e-07
1.06284e-06
0.000946959
4.73843e-07
2.16432e-06
9.45988e-07
1.42288e-06
0.000589799
0.00199927
3.36571e-07
-0.000949817
3.65541e-06
-2.27898e-07
2.18759e-06
2.02028e-06
2.58109e-06
3.28452e-05
2.86807e-06
-0.000258426
3.51228e-06
0.000845388
8.40774e-07
1.41883e-06
1.47357e-06
3.17175e-07
4.24379e-07
8.25818e-08
1.18294e-05
2.84837e-06
-5.64436e-07
1.20179e-06
2.89767e-06
1.81903e-07
-0.000476261
0.000624354
-4.93195e-07
3.88765e-07
2.00059e-06
4.34799e-07
1.26875e-06
1.63898e-07
5.59917e-06
1.00964e-06
2.2061e-06
6.25494e-07
2.00565e-06
-2.61312e-06
9.25159e-07
-2.094e-06
4.10677e-07
4.4855e-07
-5.00322e-07
-2.64299e-07
0.00377463
1.83171e-06
8.60028e-07
-0.00061979
2.62612e-07
3.56912e-07
9.00146e-07
-2.43159e-07
-3.35656e-07
1.98538e-06
7.59324e-07
0.00117748
-0.000523585
0.000701255
2.92399e-07
0.000484801
1.98185e-07
2.40876e-05
-9.00478e-08
2.3738e-06
-0.000526327
8.32937e-08
2.98545e-06
0.00156557
1.00067e-06
1.62133e-07
-3.39898e-07
8.61494e-07
0.000157401
-1.4197e-07
3.42659e-07
-3.75843e-07
2.11029e-07
3.18853e-06
3.0648e-07
7.81914e-07
9.36931e-08
-7.50801e-07
-1.70375e-06
1.26881e-06
2.96432e-07
3.23639e-06
2.93854e-06
0.00336371
0.000514775
1.25155e-07
3.91958e-07
0.000973908
4.16385e-07
1.77452e-06
2.86402e-07
0.000182477
-1.73844e-07
2.50533e-07
4.3376e-07
-0.00110495
1.04972e-07
-2.25361e-07
-1.74411e-07
2.90675e-06
0.000537479
3.50566e-06
9.40276e-08
4.68792e-07
9.50557e-08
0.00309716
3.12161e-06
2.44299e-07
1.40127e-06
2.66777e-07
6.32734e-06
9.5694e-07
0.0011829
3.48001e-07
2.52418e-07
1.05248e-06
1.04874e-06
2.49638e-06
3.31996e-07
3.88905e-07
-1.64125e-07
0.000938324
5.70959e-08
2.66228e-07
0.00174384
5.11917e-07
-6.79903e-08
6.93718e-07
3.63603e-08
-2.60158e-07
-0.0010448
5.17449e-07
0.00258819
-1.70322e-05
-1.83882e-07
1.04165e-05
3.92417e-07
3.45991e-06
1.59956e-06
2.89333e-07
-2.93164e-07
-1.82425e-07
1.64371e-07
-0.00178302
1.29234e-06
0.00290966
0.00060713
1.02485e-07
-2.35681e-05
1.30466e-06
-1.16285e-05
2.21682e-07
0.00029997
0.00227307
1.02517e-05
-3.05313e-07
5.35724e-07
4.03701e-07
6.02984e-05
0.00361617
1.61686e-06
7.50211e-08
1.06458e-06
-0.000761329
3.27587e-07
5.43887e-07
4.49618e-07
2.17177e-06
8.85823e-06
-1.83978e-07
-7.23976e-05
4.76509e-07
1.06834e-07
-3.82444e-05
1.42632e-06
1.13815e-05
0.000630578
1.02402e-06
5.08727e-07
2.86608e-07
7.17044e-07
3.9194e-07
3.64233e-07
1.41107e-06
-3.20053e-07
6.73454e-07
4.86112e-06
-0.000816279
-1.48153e-07
2.98929e-06
0.000224845
5.69638e-06
-3.16768e-07
3.79937e-07
8.08104e-05
-2.4294e-05
1.71994e-06
2.44751e-07
0.00167507
1.42925e-06
-2.45419e-07
0.00169859
8.5497e-07
3.70616e-07
3.8686e-06
3.91893e-07
-1.50989e-06
-1.57136e-07
-1.02884e-07
3.6312e-07
-1.63485e-07
0.000375956
-4.18797e-07
1.08828e-07
2.10127e-06
6.64233e-07
5.49166e-07
2.36916e-06
4.47642e-07
1.03863e-07
5.1219e-07
4.56896e-07
0.00104553
0.00106001
-9.07549e-07
-0.000536844
5.15924e-07
-6.98886e-05
8.71205e-07
-0.000868412
-0.000549718
0.000369023
3.7533e-08
8.36854e-07
2.29932e-07
4.35749e-07
-2.88681e-07
-6.92082e-07
3.41144e-06
1.35858e-06
1.1732e-06
1.73509e-07
1.1709e-07
1.27148e-06
3.50961e-07
3.73455e-07
4.4361e-07
0.00341034
1.08882e-06
0.000669408
2.92024e-07
-4.21059e-05
3.90087e-07
2.57606e-07
2.92207e-07
1.24802e-06
1.81677e-07
2.66015e-06
0.00126782
1.34771e-06
0.00229721
-0.00118183
2.93818e-07
9.04642e-07
4.56325e-05
3.33469e-06
-4.03626e-07
-3.13257e-07
-1.97256e-07
0.000518144
-1.37236e-07
2.04549e-06
2.94153e-06
2.32288e-06
-1.056e-05
-3.90105e-06
1.58108e-06
0.00564404
3.36388e-07
-1.26623e-07
-0.00129631
-4.65948e-05
3.7505e-07
3.09105e-07
0.00103673
8.70628e-08
5.74612e-06
3.15174e-07
2.89508e-06
6.89412e-07
3.52783e-07
2.22466e-06
0.000849011
0.00122278
7.04879e-07
-5.47527e-07
2.05809e-06
4.86744e-07
2.22351e-06
7.38387e-08
2.3e-06
1.81338e-06
3.82648e-07
3.90578e-07
-1.94493e-07
2.62e-06
-1.66912e-06
3.16613e-06
1.43966e-05
1.01354e-06
9.81906e-06
1.68791e-06
1.89112e-06
0.000517054
2.06136e-07
0.00047141
4.58675e-07
0.00330706
1.35904e-05
0.000606675
0.000391986
-3.49382e-06
1.75692e-06
-0.00086184
3.57247e-07
0.00114039
4.39054e-07
3.83482e-07
7.56072e-07
4.13358e-07
1.01387e-06
2.22342e-05
-6.58317e-07
0.000857113
7.93624e-07
1.29e-06
4.72833e-07
2.08091e-07
3.00737e-07
3.28864e-06
1.9101e-06
0.000329059
1.54544e-06
-6.06795e-07
-1.01582e-07
3.00141e-07
4.22711e-06
5.56746e-07
2.61978e-07
7.1752e-07
2.21662e-06
1.06978e-06
1.10634e-06
2.90542e-07
-0.000143907
9.91605e-07
1.13358e-06
2.15022e-07
7.5741e-07
3.75937e-06
-0.000335736
1.34753e-06
-2.56119e-07
-4.6352e-05
1.20231e-06
2.28516e-07
1.63282e-06
0.00118458
-0.000246826
1.04311e-06
8.42717e-08
0.00116049
3.80974e-07
9.47851e-08
-6.12012e-07
3.10487e-05
1.14407e-06
-2.1548e-08
1.72426e-05
-4.95063e-05
4.34516e-07
4.88798e-07
1.88469e-06
0.00629317
1.05949e-06
0.00329762
3.81692e-07
-2.44768e-05
1.50834e-05
0.00352394
1.20712e-06
-3.08562e-07
0.00249146
1.42892e-07
4.48295e-07
-0.000176259
-8.14986e-05
2.98012e-06
4.52121e-06
6.28544e-07
4.96644e-07
1.01811e-06
2.37703e-07
1.16662e-07
3.0975e-07
1.59607e-06
2.07924e-07
8.59319e-07
4.73519e-07
0.000493034
-1.47205e-05
4.2015e-07
0.00126595
4.70308e-07
0.00221963
0.00227536
3.27534e-07
3.43011e-07
7.26913e-07
3.64864e-06
3.40562e-06
2.06555e-06
0.00131587
0.000469843
3.54638e-06
-3.16637e-07
-7.5761e-05
0.0010367
-1.35797e-06
8.38246e-06
4.13971e-07
3.34751e-07
2.84142e-07
4.17384e-07
9.19837e-08
1.14344e-06
0.00141163
6.5598e-07
0.000540901
0.000878437
-0.000104992
0.00068191
0.00356584
3.18066e-07
0.00449625
3.28384e-06
1.65202e-06
-1.10082e-07
3.73713e-07
1.704e-06
0.00191303
2.29775e-07
-0.000763176
0.00274331
5.24305e-08
3.42618e-07
-2.94723e-07
2.13695e-06
3.91757e-07
2.2298e-06
0.000484358
-1.64963e-07
4.79308e-08
4.79935e-08
4.44398e-07
1.91734e-06
0.00127591
1.06469e-06
-9.78267e-05
3.15778e-06
1.70149e-07
-0.000230764
2.6714e-06
-1.93299e-06
3.81304e-06
-2.28673e-05
3.44729e-05
-6.0258e-07
0.0017865
3.66286e-07
-2.7907e-05
0.00168506
3.87507e-06
-2.58587e-05
-2.57693e-07
5.11965e-07
6.07409e-07
5.42551e-07
0.000362629
2.06713e-06
3.44694e-07
8.84749e-07
0.000237891
0.00211519
-2.59789e-07
1.69686e-06
0.00568141
0.00316647
3.1887e-07
8.60646e-07
3.46823e-06
1.11805e-07
9.50886e-08
-0.000893114
1.83037e-07
7.85185e-06
-0.000248226
0.000720619
1.72491e-07
1.98791e-06
2.81832e-06
2.04033e-07
-3.67137e-07
0.00046435
1.18567e-05
2.02732e-07
9.29033e-07
5.85202e-06
3.48276e-06
0.00477114
1.5952e-05
7.65601e-07
-0.000124462
-0.000377823
1.28288e-06
9.38122e-08
2.9539e-07
-1.24863e-07
-4.94255e-07
0.00122528
1.25178e-06
3.08699e-06
6.70502e-07
-1.87873e-07
-1.32806e-07
-1.51167e-07
4.14658e-07
4.50877e-07
-2.42608e-05
6.44153e-07
1.31565e-05
0.00145127
1.52192e-06
1.93409e-06
0.000219471
0.00265814
-2.43858e-05
-1.75898e-06
7.06814e-07
1.30884e-06
7.45066e-07
5.56716e-06
-0.000509696
4.05155e-07
1.4497e-05
0.00250765
7.98089e-07
1.85956e-06
2.0342e-06
1.94222e-06
2.07355e-06
5.05358e-07
2.26033e-06
2.34482e-06
2.56921e-06
2.92445e-06
2.00947e-06
2.25339e-06
3.42176e-07
1.0037e-07
1.19167e-06
1.93218e-06
1.87885e-07
1.01023e-05
0.00523035
4.98939e-06
0.00147906
-2.91813e-07
-2.92262e-07
-2.76381e-05
-5.1463e-05
4.35604e-07
5.41647e-07
1.38064e-06
-0.000709697
0.000380473
4.46962e-07
8.53182e-07
7.45583e-07
-3.42824e-05
0.000114424
6.00975e-07
3.06662e-06
0.00199467
2.08715e-06
0.00312273
3.17013e-06
0.000141086
0.00497321
-2.82811e-07
0.00442367
0.0031496
4.60481e-07
2.08656e-06
2.82857e-06
4.4219e-07
-1.33888e-07
3.98111e-06
-0.0076902
-7.34545e-08
-1.17503e-07
0.000221035
-4.48905e-06
2.31628e-06
3.79963e-07
5.02516e-06
4.02421e-06
0.00277487
0.00244084
3.50543e-07
9.95586e-08
4.29847e-07
-7.3581e-08
0.00238825
-3.76142e-05
-0.000741744
1.88636e-06
9.84511e-06
-0.00036902
-3.63649e-07
8.65286e-08
0.00222866
-2.8307e-07
0.00382134
2.36378e-06
0.00337424
4.7559e-07
4.03086e-07
0.000543628
7.78969e-08
2.11367e-06
-0.000221659
5.22568e-07
4.65462e-07
4.95962e-07
3.26627e-06
0.00137784
3.45115e-06
0.00246976
1.19278e-07
-8.04007e-07
9.08388e-07
2.2132e-06
0.00586717
-1.0361e-05
2.68286e-06
2.09271e-06
2.20389e-06
-4.63807e-05
-1.46221e-06
-3.28753e-07
-1.59497e-07
-1.06505e-07
2.68386e-06
5.25806e-07
-3.74273e-05
1.34251e-06
2.51296e-06
2.28867e-07
-0.00111528
2.40162e-06
7.33116e-06
8.91611e-08
5.18131e-07
-1.07826e-07
0.00211539
7.21931e-05
-0.00031577
3.44986e-06
2.20709e-06
6.20812e-06
-1.9701e-07
1.31554e-06
3.70581e-06
2.96962e-06
-5.59838e-06
1.34791e-07
2.497e-06
3.56378e-07
-8.03647e-08
2.2809e-06
0.000815518
-1.29879e-07
3.56972e-07
2.41619e-06
2.48123e-06
0.000523644
0.00134684
0.00176209
0.00101758
-4.97111e-09
1.93448e-06
2.47289e-07
2.50138e-06
-2.05534e-07
2.92647e-06
3.51218e-07
1.63283e-06
-0.000133919
-0.000166135
4.40401e-07
2.56681e-06
0.00303821
2.17685e-06
4.1433e-07
-0.00132016
1.90845e-06
-2.30852e-06
-7.08009e-08
0.000517481
9.88705e-07
2.99379e-06
7.12368e-06
0.000142774
0.00108118
2.47593e-07
9.17336e-05
0.00111626
0.000189882
3.71575e-06
1.13441e-06
2.10474e-06
2.06771e-06
0.001405
2.84932e-06
4.17149e-07
7.08971e-06
3.15929e-07
1.03289e-05
8.31119e-07
0.000892325
2.99006e-06
-2.80165e-05
7.41714e-07
2.81655e-05
6.2884e-07
0.00115097
4.13515e-06
3.21662e-06
0.00106198
8.78488e-08
-1.4403e-07
0.00191266
0.00396128
-2.04298e-06
4.0745e-07
1.40022e-06
6.20814e-07
1.1943e-05
5.72255e-07
0.00316639
7.70599e-07
0.00311823
3.07818e-06
-0.00281156
4.11319e-07
7.31783e-06
0.000864933
3.35454e-07
1.73474e-06
-2.41929e-07
6.66478e-07
3.307e-07
-5.57466e-05
2.53391e-07
2.99121e-07
0.00463441
-5.08102e-05
-1.23564e-07
0.00500826
4.51983e-07
3.70508e-07
1.88176e-07
-1.61366e-07
3.28531e-07
4.14155e-06
0.00507534
-2.66439e-07
6.09006e-06
1.67553e-06
1.27999e-06
2.82158e-06
1.8928e-06
7.47178e-07
1.02334e-06
6.31184e-08
-4.8596e-05
8.29149e-07
0.00540272
2.23152e-07
-3.14078e-05
1.02178e-05
2.25193e-06
-3.75167e-05
0.00308354
-6.0097e-09
0.00163728
1.81003e-06