/*--------------------------------*- C++ -*----------------------------------*\
| =========                 |                                                 |
| \\      /  F ield         | OpenFOAM: The Open Source CFD Toolbox           |
|  \\    /   O peration     | Version:  v2012                                 |
|   \\  /    A nd           | Website:  www.openfoam.com                      |
|    \\/     M anipulation  |                                                 |
\*---------------------------------------------------------------------------*/
FoamFile
{
    version     2.0;
    format      ascii;
    class       volScalarField;
    location    "500";
    object      omega_0;
}
// * * * * * * * * * * * * * * * * * * * * * * * * * * * * * * * * * * * * * //

dimensions      [0 0 -1 0 0 0 0];


internalField   nonuniform List<scalar> 
13917
(
5.72171
0.0364918
0.23973
0.0225318
0.0254785
0.0356881
0.0294364
0.0682662
0.0280601
6.96621
0.0653449
0.0218458
0.0241995
0.517156
0.0263933
7.30373
0.0245241
0.0587349
0.144449
7.0241
0.0345379
0.0215181
0.056598
0.0215153
0.023773
0.0362973
0.222571
10.0248
0.0453858
0.0213855
8.88843
0.089414
0.0225
3.43371
0.0212219
0.0756216
0.0241299
0.0224653
0.0294768
0.041622
0.0286437
0.0225198
0.0255158
0.140339
0.139003
0.205288
0.0328087
9.11182
0.335192
0.0212299
0.0218017
0.136224
18.2279
0.0216641
0.0217615
0.135818
3.8089
0.0566121
0.0223854
0.201211
3.53067
0.0274919
0.0260488
0.0235567
1.51956
0.0327245
0.0489039
0.0739758
0.0630814
6.03136
0.332435
3.48292
0.021847
0.0220232
0.0356774
0.024199
0.0232932
0.0219004
0.023961
0.0225959
0.0220954
0.0238183
0.0218252
0.365604
0.021142
0.101807
0.0854979
0.0214837
0.0408063
0.0240274
0.0211917
0.025848
0.377862
0.0210107
0.0221994
0.0487744
0.196965
0.0223415
0.021419
0.115904
0.0279067
0.0271512
0.0221582
0.0212909
0.0232233
0.822321
3.12493
0.0285503
0.0230437
0.653011
0.0215326
3.40952
0.0454299
8.19369
1.51452
0.0246515
0.136351
0.0221914
0.213596
0.0217262
0.0231875
0.0214217
0.0526205
0.116648
5.69128
0.447647
0.023361
0.0375869
0.0209683
0.118568
0.0396237
0.168759
3.76979
0.024573
0.104806
0.756426
3.57443
5.6242
0.0384754
0.0224969
0.69135
0.0216371
0.741605
0.0211141
0.0217404
0.0206154
0.365052
0.590821
9.61166
0.021711
0.037491
0.0267788
0.0217091
0.0217381
0.199263
0.0219022
0.0212679
4.00798
0.0261659
0.0233673
0.0211087
2.6059
0.0258146
0.761107
2.76671
0.139724
24.1634
5.67793
0.0199197
0.0407279
0.0216002
3.55762
0.0280296
2.56248
0.0822741
0.0266771
0.0225403
0.147722
0.0383095
0.0263293
0.0252966
0.0215315
0.021797
0.202222
0.214794
0.168239
0.0217599
0.200508
0.0213745
0.0899955
0.0821338
0.129263
0.167438
5.37539
0.0210137
5.45702
0.0271863
3.59886
0.0212027
0.0217614
0.0307235
5.76542
7.06599
0.0235894
0.250864
0.0346512
0.0382364
0.0216363
0.14587
0.0220903
0.0207812
0.0282206
0.0290188
9.24006
0.101712
0.0382103
2.99425
0.0218733
0.0206185
0.0206113
6.67219
0.182353
0.218633
0.0213567
0.0263139
1.22434
6.42521
0.0205267
0.0205095
0.0283197
0.0206562
0.0206485
3.61142
4.719
0.0217168
0.0200163
0.0912546
3.68665
0.0256271
0.0213531
0.244014
0.966864
0.190359
3.05717
0.110534
0.0211228
3.5783
0.0952244
0.0428095
0.0981028
0.0233624
5.64526
0.0217472
0.0472172
0.0748274
0.0217918
0.0285051
0.023541
0.0243778
0.0213967
4.11708
1.32951
0.02131
0.020497
0.0220021
0.0204995
0.0217537
0.0242057
0.043442
0.0214851
4.65848
3.08787
0.0215213
0.0234277
0.248443
0.0206092
0.0953117
3.81802
0.0206177
4.53662
0.0213385
2.52464
0.0272433
0.0250847
0.0218468
0.0210695
0.180421
0.0219394
0.157135
0.0301167
1.46118
0.0186662
0.220489
5.91651
0.0231668
0.0638949
0.0247167
0.0249187
0.0251317
0.0239341
0.021093
0.0216675
0.144066
0.0293648
0.0456973
0.0237329
0.0213363
3.86771
8.91916
0.0209101
0.0219533
0.0249817
0.0544582
0.166818
3.12845
2.4846
0.0302309
0.150162
0.0232197
0.352368
0.0582633
0.240237
0.0241203
0.0260606
0.237247
0.0217519
0.0388239
0.127669
0.0250054
3.49587
0.0211732
0.0542262
0.0211927
20.7844
0.0207478
0.0430347
0.035431
0.0289626
0.0238721
0.0987814
0.448056
0.022115
0.0217449
3.42976
0.533893
1.64562
0.45162
0.0205664
0.0217169
1.2126
0.151149
0.0205774
0.0251055
0.0217292
0.0556125
0.0445152
0.137325
0.103453
0.0955304
0.0531106
3.47467
0.0209973
0.0221304
0.026146
0.205603
0.0259877
6.47449
0.0529602
0.273838
0.021804
0.13035
0.0232363
0.325602
0.0226143
0.22104
0.240888
0.0378237
0.0215476
0.332434
0.0215956
2.74666
0.178131
0.0225771
0.29959
0.0221065
0.327496
0.0207095
6.12924
0.323849
0.0237066
1.65461
0.0835636
0.0229974
2.66738
0.264086
0.0233164
0.183804
0.0216583
0.084132
0.236507
0.0211918
0.0288586
0.0237312
0.0210675
0.0208942
0.0210365
4.40517
0.137195
0.0219499
0.0210725
0.0213955
0.0610235
0.0792631
0.0208162
0.0199411
0.163983
0.127999
0.0210911
0.0235682
2.17276
0.778506
0.0506996
0.152403
0.330347
0.0212378
0.0207287
0.0311896
0.020886
0.0208266
0.0217756
0.0207414
0.0211605
4.0757
0.02171
0.0453863
4.37199
0.062923
0.0207936
0.0216827
2.65532
0.0307094
6.86464
0.021041
0.0213457
0.0216636
0.0207019
0.0239632
0.0222316
1.92989
0.0409773
1.02502
0.0213399
0.0432661
0.0615423
0.0220079
0.109023
1.82549
0.0216923
2.11603
0.0208191
0.0211196
0.0213519
0.0221303
0.0207512
0.0218453
3.90668
2.71843
0.0207389
0.222498
0.160182
0.0218412
0.0691532
0.100782
2.78281
0.0301343
0.688042
0.293443
0.304643
0.0222552
0.0305151
0.095667
0.0231933
0.300708
0.0215167
0.0216196
0.0222112
0.0284169
0.0342043
0.197383
0.0686941
0.0267399
0.0238534
0.0577819
0.0598377
0.0219452
1.36725
0.0431443
0.0301753
2.67867
0.0211491
0.0624967
0.161194
0.0207948
4.16708
0.0211839
0.0206977
0.0628656
0.0210515
0.0217715
0.140229
4.25138
2.30141
0.0211079
0.0228878
0.0250533
0.300937
0.274438
0.0218337
0.0217184
0.0210915
0.0695498
0.528671
0.0210077
0.0254153
0.0216907
0.0210535
0.0238135
0.0311108
0.0222748
0.0695034
0.020795
0.0214418
0.0235566
3.19891
0.020506
0.0248459
0.021397
0.0413513
0.0823663
0.0570745
0.0780225
0.123791
0.0232212
0.0529498
3.40751
3.85034
4.10159
0.02086
0.0213062
0.0253178
0.021434
1.66203
0.0206805
0.817307
0.0272097
2.56723
0.106027
0.0254984
7.49532
0.0207318
0.085447
0.0222346
0.0225023
2.90106
0.0209165
0.239877
0.0270977
0.0227739
0.0213463
0.193283
0.0239817
0.0204455
0.142453
0.0675052
0.649498
0.327042
3.8552
2.77253
0.0205106
6.31653
0.0233596
3.30268
0.595372
0.023035
0.025992
0.0276635
0.0421021
0.024889
0.0209295
0.0221366
0.0237445
0.33408
0.0211582
0.0803353
0.0215811
0.0204285
0.0258377
0.188142
0.696156
16.4922
0.0913594
0.0310095
0.315591
3.64026
0.0207388
0.500782
0.0235778
0.136123
0.0214268
0.332069
0.0210366
0.0239551
0.0217728
0.64512
0.0440878
2.28789
0.0219064
0.0413012
0.0211623
0.0281232
3.38949
0.133097
0.02132
0.148818
0.0213365
0.0223327
0.0273398
3.31293
0.0211626
0.0246747
0.0206737
0.0212432
0.205669
0.0268185
0.14093
0.0233639
0.0207659
3.92745
0.0829582
0.0217695
19.6975
0.234858
0.068299
0.162362
0.02072
0.0270447
3.24853
0.263642
0.0300538
0.0241555
0.0241433
0.0229219
0.0210422
0.0387514
0.0886036
0.0258939
2.98243
0.044838
0.0983477
0.283293
0.0295775
0.041179
0.16447
4.11204
0.0210974
0.0260223
0.0436466
0.0207781
0.0217892
0.0260414
0.0265604
0.0219087
6.0581
0.0438056
0.020991
0.119152
0.0217182
3.12857
0.0213369
0.0209665
4.28412
0.0778272
0.338264
0.0219265
0.0228881
0.0209458
0.0224124
0.0318268
0.0210426
6.40646
0.0326636
0.544636
0.335542
0.0259234
3.84491
0.0228872
0.0217901
0.0212102
3.75689
2.03798
0.027684
6.22938
0.794849
0.0207563
0.020936
0.0239545
0.506665
0.331111
0.0442376
0.022358
0.0248314
0.140752
0.02289
0.137333
0.0438718
0.0221192
0.0226212
0.021827
0.0316049
0.0238452
0.288577
0.0252909
0.0257417
6.09766
0.0234245
0.799764
0.0238685
0.0316372
0.0271789
0.251299
0.0233149
0.0803708
0.419443
0.258997
0.021462
0.0253273
0.0221337
0.0213395
0.0217499
0.0279881
0.0547722
0.184732
0.14089
0.0207017
0.316538
0.0279584
0.0284659
0.153906
0.0217853
0.0854887
0.194372
0.0204315
0.0779829
0.0949118
0.0433475
0.0209089
0.0207719
0.0210323
7.44853
0.0224325
0.0215204
0.0533641
0.0210625
0.020825
0.129866
0.163832
0.0311302
1.12589
0.0513508
1.40193
0.0217569
0.0235756
0.290271
0.0230574
0.0323873
0.0241002
0.0216928
0.0218876
0.0257235
0.0599369
0.0209029
0.254931
0.0215524
0.599475
0.0239339
0.0301319
0.0211976
0.0985579
0.0253828
2.35999
0.0320549
0.0255378
3.16334
0.0227125
4.26393
0.0245722
0.0405856
0.022637
0.020816
0.021443
3.35436
0.0313389
0.072058
1.06066
0.0213335
0.043621
0.0199818
0.0248109
0.50999
0.0200658
3.46676
0.0250147
0.0414424
0.132546
0.0428427
0.020588
0.0215252
0.112098
0.0207136
0.0216177
0.0231173
0.0212625
0.0533867
0.0205755
0.0922299
0.0221138
5.99016
4.38746
0.0555677
1.29012
1.99415
8.23531
0.0491552
0.0207004
0.0223023
0.0216063
0.0226517
0.0210933
0.0315856
0.0211873
0.0813195
0.0216597
0.342028
0.0223309
0.0373151
0.0983067
0.0208934
0.0448159
0.0227069
0.0226092
0.0278721
0.021593
3.96549
0.0947366
0.205059
0.0209081
0.0215158
0.0216464
0.0216183
2.70007
0.0207187
0.132704
0.0210258
0.278844
0.0247114
0.0211398
0.083178
0.0276434
0.0207276
0.33446
0.384304
0.0238712
0.0990138
0.0207004
0.115669
0.0223358
0.0216199
3.79286
0.0220783
0.0226367
0.117122
4.1089
0.0231059
0.0626478
0.3233
0.0228457
0.0224309
0.0212997
0.332435
0.0214838
0.151634
0.0217454
4.20601
0.0250839
0.81738
0.0210752
0.0208351
0.317545
0.0222032
0.0232706
3.17188
0.0229372
0.0208734
0.0528118
0.0227973
0.0223389
0.0880371
0.0231847
1.75084
0.0426954
0.0998911
0.155983
0.024709
4.0823
0.0223164
0.0826029
0.0213898
4.14905
0.284269
0.0220105
0.0223707
0.0221021
0.021843
0.0218904
0.0211445
0.0213315
0.0214338
0.0316859
0.0204312
0.0227712
0.0942066
2.863
2.59471
0.10896
0.021657
0.3187
0.0211479
0.284815
0.518248
26.5358
0.0206874
0.0207082
0.0216339
0.0215174
0.0206542
0.0216655
0.0212305
0.0428502
0.0208816
13.4288
0.0613973
0.020878
3.23042
0.0214006
0.0210437
0.0277834
3.29087
0.0649936
0.0253451
0.340211
0.0210751
0.0210426
0.339523
0.0223667
0.270303
0.0227554
0.0472711
0.0208028
0.0214513
0.0311441
0.0443172
0.0231207
3.54198
0.0268622
0.0219943
0.0226125
0.0215156
0.0207584
0.121341
0.0423788
0.0256835
3.73856
9.21344
0.0424628
0.128077
0.0213062
3.87953
0.0214153
2.40907
0.0730256
0.0289951
0.0228934
1.90392
2.51494
0.33798
0.0239231
0.612332
0.0219045
0.0211956
0.0444851
0.0220414
0.0217117
0.191317
4.37917
0.0214616
0.0311897
3.74661
0.0269299
0.0205679
0.828559
3.07706
0.0225231
0.0239772
0.0287093
0.0216529
0.0210091
0.027949
0.0251026
0.0215834
0.54412
0.0237317
0.283304
0.521023
0.0264079
4.02978
0.0219679
0.0222592
0.162241
4.13221
0.315531
0.0236502
0.0319414
0.0222389
0.0227894
0.0230983
2.48343
0.0262893
0.0218579
0.0667861
0.0210805
0.253296
0.0953347
0.150691
0.0792328
0.248433
0.335597
1.16699
3.65257
0.022487
0.249564
0.0205937
0.0673603
0.0921689
0.509677
0.0258181
0.0224849
0.0266367
0.0936646
0.023
2.69456
0.0398968
0.0990825
2.48326
0.0217001
0.134156
0.0235292
0.0215591
0.0247497
0.199262
0.0210514
0.0206692
0.0229356
0.376448
0.0208642
0.0229336
0.0248927
0.0223197
0.0215503
0.099754
0.0931344
0.0218616
0.0208822
0.0828275
0.125147
0.0332717
4.07281
0.0219812
0.0214532
2.15813
0.021526
0.0231414
3.60406
3.9845
0.0259291
0.0668165
0.0261491
8.09736
0.129476
0.0328656
0.334823
0.0209782
0.0950811
2.80195
0.219547
0.531671
0.265165
0.0211523
0.0213988
0.0236638
0.0215754
0.0214805
0.292202
0.0220768
0.0529259
0.0205614
0.0757221
2.74986
0.0231932
0.290537
1.89857
0.0214548
0.101735
0.0254248
0.0228861
0.0213417
3.95863
0.0895023
3.96187
0.02814
5.4004
0.0961672
0.0228963
0.0529421
0.0404841
0.0196445
0.0211474
0.191647
0.0213491
0.0257451
0.0362359
0.0249043
0.0222863
0.0698771
0.6122
0.021121
0.167229
0.0476046
0.0216111
0.0211228
0.0199018
0.3423
0.271785
0.0207801
0.0357952
0.0410713
0.0428697
7.05682
0.0216614
0.0208759
0.0211562
0.0215218
0.0228086
0.0237743
0.335059
0.0216877
0.0255887
0.224622
0.0456471
0.107331
3.02603
4.55282
0.0219682
0.0211984
0.0208474
0.0226584
0.0932641
3.77094
0.207067
0.10152
0.030074
0.0628187
0.0247098
0.0935467
0.0253802
0.137959
0.0209876
0.108128
0.100116
0.020734
0.0219042
3.49319
0.0577802
0.151985
2.82106
0.135302
0.0209479
0.230197
0.0222732
0.021225
1.08237
0.544483
0.0210054
0.0259
0.130364
0.0348496
0.0224878
0.0205648
0.0211352
0.0207729
0.0213378
0.0321968
0.0552939
4.83724
0.0356785
0.0272656
0.0371995
0.0927818
0.0208578
0.0341764
0.210617
0.250037
3.06294
0.0227066
0.0205581
4.10007
0.0209442
0.310168
0.0232979
0.0453466
0.0219327
0.0209769
0.306666
0.0276574
0.0225811
0.0215035
2.00871
0.311268
3.70295
0.0214612
0.0213969
0.260522
0.0232994
0.0212492
0.122231
0.535335
0.0274699
0.0386177
0.0224036
0.329847
0.0212422
0.0232957
0.0222903
0.0205412
0.24899
0.0212371
0.0207611
0.202314
0.075839
1.52324
0.235308
0.02118
0.0340858
0.020832
0.0209221
0.0226328
0.0223139
0.0216535
0.230693
0.0216509
0.0853458
0.0244595
0.0242889
0.0216782
0.0227575
0.0209982
4.0425
0.0209396
0.0870069
0.0894743
0.0225346
0.0658215
0.0386809
0.0346754
0.0215158
0.0249078
0.0208497
0.0207344
0.302654
0.03315
0.0259611
0.021229
0.0211059
0.0219771
0.0610659
0.0210903
3.03381
0.0540339
0.0215005
0.0213058
0.0206722
0.0532865
0.18594
2.27231
0.0328673
0.232217
0.0287313
0.105995
0.0233046
1.43751
0.0205604
0.0208986
0.0254901
0.243716
0.0206842
3.46633
0.021512
0.0212967
0.126653
0.194972
8.95368
0.258487
0.0268864
0.140527
0.189344
0.0211087
1.72146
0.0214121
0.0268124
0.272026
0.0206274
3.44892
0.223511
0.0210098
0.021451
0.021139
3.6558
0.0273517
0.0205668
0.0962204
0.0211856
0.0208089
0.0238931
0.0211616
0.0570309
0.0218102
0.0228971
0.0206681
0.222388
0.0341496
0.0206836
0.0206899
0.0224494
0.0212902
0.0250084
0.0215253
0.0212979
0.0218494
0.021358
0.022516
0.0215246
0.055742
0.0206743
0.098919
0.0214466
0.0417567
0.0207631
0.0216318
0.0210556
0.0209628
0.0375228
0.0247354
0.0270981
1.80098
0.0600958
4.00257
3.08771
0.100461
1.58999
0.0214381
0.0214977
0.197471
2.2763
0.022054
3.75284
0.0207075
0.154262
0.774494
0.0247183
0.100084
1.50231
2.79408
0.0215976
0.0597135
0.0208922
0.422695
0.0254353
3.5467
5.64471
0.0217622
0.0330433
0.178214
0.02509
0.29164
0.230297
0.0233026
0.020923
0.0735418
3.86816
0.0211047
0.0377817
0.0217759
0.169009
0.141863
0.0215426
0.0207792
0.347098
0.020895
0.0214609
0.022358
0.0206803
0.292382
0.0262795
0.0313295
3.86174
0.0213431
0.0559258
0.021831
0.0739222
0.063538
0.425094
0.0207482
0.0302811
0.0240992
0.0215782
0.0251044
0.0214845
0.298711
0.0227263
0.0207053
0.0211345
0.291338
0.0209053
0.552984
0.860471
0.705061
0.0212951
0.0208146
0.0212427
0.0657194
0.0217662
0.399167
0.0216441
0.193368
0.0230711
0.0226305
0.284348
0.0215714
0.0238397
3.87616
0.133678
3.42614
0.0218377
2.25138
0.73682
0.0214731
3.62451
0.0216022
0.0242728
3.27483
0.0231073
0.0381277
4.01598
0.0288188
0.0845228
0.0216582
0.334913
0.0214393
0.538974
0.0212465
4.53865
0.0214633
0.0215638
0.0224932
0.612352
0.0208352
0.0522718
0.0681679
1.94472
0.0212525
0.0291081
3.26421
0.0729356
0.254001
0.0896097
0.0207622
0.130043
0.186883
0.0236958
0.317077
0.0208714
0.160771
6.82489
0.020872
6.92589
0.0213088
1.66121
0.280996
0.0240511
0.0228216
0.505899
0.812565
0.0214787
0.0231761
0.020689
0.0215267
0.706953
0.0736431
0.297866
0.0213523
0.0287148
3.4699
0.0230367
0.0617476
0.339721
0.0211396
0.0213893
0.217675
2.08086
0.273671
0.770329
0.235887
0.0394981
0.0363408
2.99118
2.74904
0.526643
0.0209222
0.0949309
0.0521577
0.079801
0.0214591
0.028602
0.0674449
0.112381
0.753464
0.023027
0.127536
3.80794
0.0406916
0.0214326
0.0214393
0.067572
0.0208491
3.98183
0.0293893
0.0236506
0.173128
0.303993
0.0206726
0.0407138
0.0333364
0.0214921
3.45663
0.0266249
3.85813
0.020958
3.51843
0.295292
0.221291
0.0209734
0.0268601
0.0294037
0.111683
0.121255
0.0870812
0.641827
0.155112
0.0202083
0.026391
0.0222222
0.144654
6.64351
0.0240216
0.0206539
0.0228916
0.23583
0.111662
0.0209815
0.0536625
0.169231
0.0208832
0.226045
0.0237646
3.77248
0.0252304
0.384858
0.491923
0.0310234
0.0241015
0.318183
0.0211107
0.0431232
3.17109
0.0236495
0.0812073
0.0377291
0.0747753
1.7963
2.11348
0.0216292
1.28647
0.148594
0.0206273
0.164309
0.0802058
0.114834
0.303356
0.186711
0.780804
0.12149
3.03461
0.0275217
0.088618
0.0238065
0.0218808
0.0215465
0.0208426
0.292639
0.108883
0.0210411
0.0399583
0.206287
0.0210973
0.534211
2.06343
0.0214764
0.021715
0.0243234
0.0224376
0.0565099
0.0214367
5.03213
0.033101
0.0825285
0.0250436
0.0772477
0.0352099
0.0299923
0.132555
0.0214873
0.0225546
0.02101
0.0208888
3.1059
0.126559
0.0285916
4.9549
0.0214035
0.0219125
0.0305138
0.0207205
0.0213392
0.0772609
0.0264187
3.52179
1.69738
2.54858
0.0216952
3.17803
0.0212554
0.324684
0.0206566
0.167239
1.85006
0.021252
0.216483
3.81034
0.0320097
0.0219752
0.0230847
0.0280764
1.27654
0.0206654
0.0219344
0.0217487
0.0225201
0.223254
0.022591
0.0266319
0.0211063
0.0220001
0.31965
0.0382268
0.023051
0.145223
0.0639649
3.44668
1.13963
0.02231
0.0222678
3.21771
0.0214747
0.0820137
0.0217391
0.677368
0.0216608
0.021588
0.0265515
2.47552
0.0213912
0.0207479
0.0205495
0.186024
11.022
0.127723
0.0214833
0.0233101
0.0208727
3.92988
0.0263049
0.3343
0.0739257
0.0214063
0.193716
0.0307821
0.24248
0.0223645
0.0212303
0.0318264
0.0383237
0.123557
0.021848
0.0218962
0.0215987
3.31318
0.0213139
0.0223013
1.99709
0.0230649
0.0265082
0.0255942
0.0209377
0.0212019
0.577518
0.0244219
1.73181
0.295813
0.020402
0.248143
0.0219399
0.119089
0.0537995
0.0224619
0.0210027
0.0203715
0.0214224
0.892158
0.0607615
4.0936
3.03935
0.0208644
0.0366827
0.0395688
0.342024
0.0214278
0.389174
2.38131
0.393463
0.021072
0.0233544
0.022172
0.0479442
3.0412
0.0235567
0.0215376
0.0343679
6.01978
0.0217717
0.0234884
0.0227499
0.151959
0.314735
0.0205639
2.72231
0.0263064
0.0214206
0.484828
0.0730455
0.2621
0.913111
0.0320646
0.0245488
0.0223994
0.0261421
0.0220389
0.0552885
0.047058
0.0212976
0.0254187
0.255024
1.6178
0.0206546
0.116375
2.80248
0.275167
0.0214611
0.021603
0.302273
0.32879
0.0614211
0.0210395
3.72818
0.0887148
0.0205308
4.8172
0.0278101
0.0215994
0.195018
0.0212532
0.0267321
0.0207966
0.020164
0.0213388
0.0205482
1.56495
0.0209307
0.0211146
0.0948476
0.0268326
0.0239562
0.16226
0.0215031
0.0214875
0.0229985
0.0224841
0.231029
0.253824
0.329014
1.23773
0.0296314
0.549746
0.0305179
2.95554
2.10372
1.74316
0.020803
0.0287944
0.0214511
0.0214652
0.0209554
0.0224335
0.225649
0.077946
0.037537
0.0210716
0.021396
0.0739177
0.021897
0.0218288
0.0214899
4.03769
0.0326286
8.0648
0.0216763
0.302671
0.0219616
0.0215236
0.0218903
0.0539896
0.0209983
0.101283
3.36529
0.0418759
4.09531
0.578972
0.0225692
0.0287262
0.348185
0.122885
0.021148
0.020936
0.0204034
3.0847
0.0201827
0.0573134
0.0299054
0.0919914
0.158519
0.13994
0.0831247
3.57821
0.0211514
0.0205317
0.335425
0.332505
0.0214362
0.0216625
0.180714
0.0209308
0.182517
0.0224675
0.0262855
0.0253644
0.021564
0.0849347
3.25442
3.48102
0.0258146
0.0212891
0.0811425
0.0227907
0.0865486
0.02083
0.169861
0.119364
0.0218305
0.0215496
0.020462
0.124695
0.033797
0.225248
0.302453
0.030986
0.371336
0.0957364
0.14446
1.20285
0.0212757
3.01732
0.0225256
4.07149
0.295393
2.99024
1.14652
0.0242016
0.0618736
0.304601
0.0212524
4.1084
0.0214709
0.0215462
0.0280167
0.0223043
0.0352805
0.321786
0.346019
3.06772
0.0269082
0.040389
0.0226219
0.0214877
0.0217782
0.137816
0.110674
2.32829
0.0491638
0.0210764
0.0206963
0.0218063
0.256541
0.0238188
0.0220223
0.0255042
0.0849774
0.0366588
0.0394105
0.0311387
3.01904
0.0304405
0.0381871
0.0214351
0.0281732
0.221821
0.325642
0.0457837
0.0207215
0.478209
0.0364952
0.0210183
0.057439
3.38662
0.367832
0.0329155
0.0209344
2.68203
0.021895
0.0208934
0.0211195
0.259727
0.326152
0.022552
0.284922
0.462094
0.0234351
0.0312058
0.0684872
3.86939
0.0319239
2.96196
0.0218985
0.104135
0.0210494
2.83727
0.0380044
0.0208549
3.56155
0.0216177
0.0223981
1.9664
0.348404
0.0508469
0.242112
0.025867
0.0230098
0.335202
0.0210304
0.0211829
0.0216369
0.0524256
0.0214109
0.0287504
0.0235605
0.388448
0.343445
0.0224419
4.12317
0.0235987
3.54034
3.95603
0.0216066
0.0218503
0.0272917
0.153041
0.225931
0.0793929
3.39002
2.82741
0.149617
0.0222336
0.347529
3.36465
0.0325348
0.334371
0.0215648
0.0211761
0.0216532
0.0223342
0.0212732
0.0388825
3.55026
0.0278707
0.302547
5.41484
0.336754
2.47541
3.39186
0.0258053
3.2954
0.12698
0.0962873
0.020641
0.0212993
0.0868982
4.46352
0.0220041
1.76976
3.48837
0.0208284
0.021671
0.0217258
0.0909263
0.021969
0.0867569
3.06743
0.0206407
0.0213991
0.0208169
0.0224347
0.128138
3.38908
0.0350711
0.385516
0.119623
0.0211449
0.298476
0.129075
0.0247606
0.319113
0.343578
2.18807
0.261804
3.85881
0.0212092
0.331814
3.48352
0.15618
0.390869
0.0209064
0.0231426
0.0240458
0.0242326
0.82053
0.0779986
0.021811
0.0282784
0.306287
3.59372
0.0221556
0.0221607
4.12033
3.32703
0.0218459
0.028112
0.119536
0.0213258
0.0214161
1.66416
0.0210851
0.278308
0.299851
1.19363
0.0209827
0.0752266
0.171582
0.020987
0.0207236
2.40379
0.282506
0.0215484
0.0299771
0.178402
0.241659
3.48091
0.284413
0.0262054
0.293004
0.333019
0.0378187
0.0211061
0.0620296
0.0205202
0.0209076
3.58785
0.0382695
0.107642
0.0254268
0.0234697
0.0208501
0.0206257
0.0223746
0.022645
0.422358
0.0251095
0.283296
6.55187
0.0480073
0.0885505
1.54929
2.48425
0.411578
0.0222242
0.0260259
0.038563
0.0259212
0.17637
0.323826
0.0223542
0.291176
3.80612
0.0268477
0.118223
0.0935234
0.128829
0.140077
0.0231216
0.154358
0.168494
0.18359
0.199434
0.146226
0.10149
0.0241165
0.0210585
0.0373545
0.116528
0.0210276
0.237808
3.53082
0.178109
3.42201
0.02062
0.0207406
0.105822
0.422218
0.0225498
0.0235881
0.0861221
5.1085
0.607257
0.0214777
0.0290694
0.026166
4.68946
0.291295
0.0254482
0.276323
3.55687
0.127322
3.04024
0.109977
0.387852
3.48654
0.0198981
3.16489
3.80242
0.0225186
0.0791531
0.107507
0.0242483
0.0207966
0.159605
1.39816
0.0212042
0.0212403
1.94336
0.340214
0.088753
0.0217606
0.254802
0.149588
3.54905
4.25662
0.0216411
0.0213786
0.0224726
0.0219997
2.51828
0.19642
2.59352
0.109137
0.28685
0.525771
0.0219692
0.0209815
3.63276
0.0208882
3.09139
0.0260156
3.22502
0.0228492
0.0222362
0.618173
0.0213013
0.140808
0.496216
0.0243931
0.0231085
0.0230105
0.219466
3.63427
0.152469
3.57579
0.0225686
0.0220887
0.030327
0.0853506
3.57486
4.09511
0.105323
0.235794
0.154924
0.330362
0.0232391
0.0209167
0.0206514
0.0206422
0.251493
0.0555892
0.391139
0.0418843
0.181212
0.0210253
0.270081
0.131279
4.33122
0.0214709
0.0231864
0.0202007
3.53901
0.0277658
0.615639
0.244547
0.15042
0.275158
0.0204323
0.044555
0.149072
0.259447
0.335566
0.0215835
0.165056
0.0218501
0.0215066
0.101529
1.24587
0.249292
0.021659
0.094396
0.160647
2.48441
5.5733
2.15049
1.41056
0.0208831
0.0717847
0.0213015
0.17182
0.0210587
0.118549
0.0226634
0.0585202
0.253713
0.500764
0.0225387
0.0961254
3.77147
0.154514
0.0229548
1.83597
0.14256
0.0225187
0.0216975
1.01922
0.0307235
0.13422
0.303059
0.385826
4.29389
0.0225278
0.872042
3.32878
0.755774
0.154969
0.0349866
0.13644
0.123372
1.80262
0.0503049
0.0223727
0.336226
0.0371233
0.238536
0.0276466
3.19394
0.227636
0.34473
0.0286414
0.131922
0.0243374
3.43671
0.153512
0.334986
7.82782
0.0209112
0.0202194
3.58334
3.00888
0.0268004
0.0222397
0.0433684
0.0272704
0.585029
0.0581062
3.83115
0.0263605
3.89489
0.131643
1.04763
0.0223065
0.210551
2.85977
0.0225602
0.11311
0.0205269
0.0252204
0.0217038
0.277797
0.0211382
0.0216948
3.37726
0.327957
0.0206292
3.35722
0.0225158
0.0213024
0.0213029
0.0208318
0.0218877
0.328183
3.6395
0.0206838
0.186653
0.0882251
0.0621349
0.328028
0.112533
0.0259338
0.0382883
0.0212915
0.274474
0.0284368
3.43752
0.0230368
0.426055
0.325625
0.0836244
0.341526
3.96722
0.0207372
4.01199
0.0657856
0.083203
0.0301383
0.0210746
0.0291179
0.230734
0.0216456
0.0396547
0.02141
1.42028
0.180267
1.01781
0.21499
0.206495
3.26978
0.0215898
0.0210615
0.0821804
0.0230797
0.0218513
0.0218922
0.0274587
0.0209963
0.0211942
0.022784
0.0428423
0.023391
0.0271946
0.0223157
0.0301993
0.136432
0.023771
1.91536
0.0235575
0.02125
0.122254
0.0544877
0.0221167
0.0209705
0.179621
0.0244258
3.66793
0.0246958
0.128563
0.0213056
0.0212058
0.0931948
3.70135
0.0924205
0.0345182
0.020415
3.60096
0.0217359
0.0211548
0.101032
0.0249663
0.163244
3.73978
0.124945
0.125696
0.0431906
4.36024
0.0213646
0.0216842
0.0723034
0.294456
0.0782342
0.115009
2.63633
0.0276614
0.021622
0.0304671
0.248818
0.0770793
0.0216716
0.133245
0.131026
0.0785826
0.0218831
0.0217177
0.192924
0.0757405
0.344731
0.515461
0.0231114
0.0900838
0.021845
0.0574523
0.280023
0.0217118
0.177678
0.158757
0.0971603
1.28144
0.0215969
0.0212398
0.0212471
3.19622
0.232155
0.0234368
0.0932238
0.144706
0.0218092
0.0212662
0.161902
3.30832
0.193232
3.7733
0.143429
0.0361105
0.321033
0.157798
0.0354377
0.0407511
0.11819
0.0410852
0.0215602
0.132614
0.17328
0.0224683
0.178499
0.0422896
0.0726047
0.027462
0.189581
0.0210086
4.46836
0.0261076
0.0207594
0.020999
0.0206949
0.0227258
0.0225601
0.0207911
0.0254517
0.0216262
0.0223823
0.257352
0.103825
0.0224471
0.0771111
0.0251238
0.0210358
0.0205942
0.0594266
0.0238921
0.33211
0.0216199
0.0216428
0.0780797
0.186932
0.0216524
0.0215908
0.124383
0.0245454
0.103511
0.0731732
0.0212893
10.2281
0.0248837
0.0224463
0.078495
3.66821
0.0217793
0.0694359
0.0212042
0.0279208
0.0211546
0.0272018
0.0211597
0.0216632
0.0303396
0.0744126
10.7848
0.0604543
0.0215347
0.028801
4.07387
0.0493282
0.221302
0.129548
0.0217163
0.0625735
0.0575951
0.212168
0.240177
0.0263675
4.00498
0.331745
0.0281872
0.021809
0.0848367
0.0224322
0.0758387
3.49711
0.021539
0.0376166
0.0218118
3.30436
0.0406663
0.0226152
0.0760363
3.50473
0.461155
0.0247854
0.0921758
0.0344984
0.0206187
1.9088
0.0205741
0.0334346
0.0210658
0.024309
2.6245
0.0949058
0.0233295
0.0276191
0.238236
0.0215539
0.0219274
0.0303528
0.0246254
0.0214745
0.0246037
0.0239306
0.0220626
0.0210373
0.0809499
0.140558
0.21337
0.0210096
0.0763572
3.46883
4.78105
0.0222127
0.0215754
0.0270936
0.116576
0.0222179
0.0209796
0.0211762
0.0208715
0.0250259
0.0300961
0.0231234
0.0857332
0.0235561
0.0206096
0.0232801
0.0844315
0.0557701
0.146002
0.0223454
0.0288404
3.71115
0.0282192
0.0263627
4.5275
3.8423
0.13505
0.0859192
0.202529
0.0211665
0.349317
0.0259543
8.43424
0.0214173
0.0212266
0.344275
0.0207661
0.283815
2.42398
0.0221628
17.8266
0.0344869
0.0387921
0.0267533
0.0837029
0.0276326
0.0275185
0.15521
0.020807
0.0256666
3.88422
0.022387
0.0213155
0.0318953
3.71065
0.0223601
0.0223603
3.38457
0.0225194
0.0267615
0.0792434
0.0204702
7.72697
0.0251058
0.0223947
0.110466
0.0768278
0.566953
0.0243889
0.256849
0.0391035
0.106263
2.25135
0.0215489
0.0374748
0.127044
0.0223993
0.264335
0.0222986
0.0241482
3.35033
0.0222665
0.0535676
0.10389
0.546969
0.0351349
0.0276727
0.0226463
0.0250785
0.124907
0.0246248
0.0366649
0.0615673
0.0728576
0.0213498
4.04452
0.0469631
0.0206107
0.0228856
0.0212353
0.0209257
0.0204753
0.0215203
0.0215221
0.0312913
0.0247835
0.0356566
0.0204425
0.0205237
0.023456
0.0987166
0.0206999
0.027071
0.0519871
0.0279649
0.0324369
0.0212734
0.0241524
0.0247774
0.0369292
0.0270474
0.0235565
2.55297
0.021605
2.5854
0.0265463
0.122088
0.0918289
0.0214764
0.0784504
0.0368059
3.66938
3.517
0.0274637
0.0217971
0.0245323
0.0353328
0.0619344
0.0267411
0.260539
0.0637775
0.0234906
0.0501862
0.0404422
0.0522688
0.0270652
0.186873
0.0665446
0.0259388
0.459812
0.0225389
0.165494
0.0227666
0.0212578
0.111418
0.10565
0.0213996
0.0546337
0.0214455
0.0217362
0.0214547
0.022223
0.0214911
0.021412
0.0214088
0.0220025
0.197928
0.0223132
0.0213544
0.0220223
0.0226817
0.235829
3.4052
0.0491637
0.0243297
3.9992
0.0214527
0.0213675
0.0380315
0.036886
0.0219772
0.0221329
0.0216677
0.170759
0.021657
0.0277947
0.0222164
0.0333948
4.26051
0.0214578
0.0503033
0.0808789
0.027029
0.0483311
0.0212782
0.0217744
0.0643611
0.273721
0.0241323
0.0351632
0.683581
0.113937
0.0211629
3.04532
0.0226562
0.020174
0.0464984
2.72151
0.0212554
0.0206786
0.0240149
0.0262918
0.0319428
0.0214331
0.0224879
0.0403924
0.0217699
0.02799
0.0277289
1.62121
0.0212851
0.325934
0.309985
0.0293757
0.0212082
0.128143
0.0209818
0.0234415
0.0215897
0.0749086
0.0204862
0.0204453
0.0453139
0.0493878
0.344946
0.021882
0.020609
0.0240979
0.0209482
3.35228
0.0227986
0.0229512
0.0222717
0.0716329
0.0611167
0.0243167
0.0227412
0.0579208
0.0216069
0.021554
0.0242296
0.0223295
0.125606
0.0211199
0.0270354
0.0222127
0.0215565
0.0587707
0.108462
3.1658
0.0214479
0.046652
0.412391
2.50061
3.15726
0.026764
0.02151
0.025114
0.0312628
0.37747
0.0218236
0.0261631
0.0282516
0.036998
0.0204678
0.071982
0.0572379
1.3484
0.0222585
0.0217719
0.101191
1.29824
0.0203602
0.0255868
0.0401396
0.0204349
0.022577
0.0586612
0.0231921
0.0214813
0.0218108
0.0256418
0.108074
0.040153
0.0227026
0.0212284
0.022052
0.140088
0.0201822
0.0208561
0.0258217
0.114605
0.0270037
3.78508
0.0246412
0.02144
0.0215691
0.0232518
0.0212041
0.037514
0.0373962
0.0209751
0.0209861
0.0221744
0.0213037
0.0218021
0.0457219
2.33661
0.0220132
0.122662
0.0225077
0.0213175
0.259907
0.0237775
2.65948
0.0219334
0.0215951
0.0206843
0.0215101
0.0226764
0.0365732
0.0292128
0.142969
0.026561
0.0663818
0.0217076
0.028766
0.0214418
0.0236077
0.0416262
1.06416
1.8628
0.0217185
3.76091
0.0962187
0.0523186
0.171327
0.020606
0.0214171
0.0215434
0.022997
2.17943
0.0209317
0.098835
0.289571
0.0222453
0.0992784
0.0203723
0.0297978
0.326046
0.215056
0.0217648
0.295875
0.156414
0.302713
0.0269913
4.20468
0.0229051
0.121162
0.113472
0.0205631
0.034428
0.0311555
0.0246913
0.3714
0.0369098
0.0211589
0.023257
0.318592
0.0217544
0.0441856
0.0216168
0.0201259
0.0225806
0.0392073
0.0215852
0.0983737
0.0255191
0.0224792
0.0204176
0.0214341
0.54866
0.0909525
0.13777
0.0387683
0.0262455
0.0265451
0.0247097
0.0214195
0.0228324
0.0319317
0.0233963
0.0252995
0.0205158
0.0274921
0.619374
0.0222122
0.341965
0.168796
0.021577
0.0217139
0.0204929
0.0285817
0.0347202
0.0203311
0.0274043
0.0225932
0.0217285
0.0210074
0.0219662
0.0210866
0.021501
0.226877
0.0215051
0.0236928
0.0214629
0.210246
0.0381337
0.0214665
0.300817
0.0215639
0.0249086
0.0262915
0.32785
0.0304234
0.020986
0.0211676
0.0288148
0.0428463
0.188332
0.0221702
0.059403
0.128378
0.0221016
0.0214634
0.104568
0.062734
0.0354251
0.0217717