/*--------------------------------*- C++ -*----------------------------------*\
| =========                 |                                                 |
| \\      /  F ield         | OpenFOAM: The Open Source CFD Toolbox           |
|  \\    /   O peration     | Version:  v2012                                 |
|   \\  /    A nd           | Website:  www.openfoam.com                      |
|    \\/     M anipulation  |                                                 |
\*---------------------------------------------------------------------------*/
FoamFile
{
    version     2.0;
    format      ascii;
    class       volScalarField;
    location    "600";
    object      nut;
}
// * * * * * * * * * * * * * * * * * * * * * * * * * * * * * * * * * * * * * //

dimensions      [0 2 -1 0 0 0 0];


internalField   nonuniform List<scalar> 
13851
(
0.000396831
0.00123186
0.00131854
0.00368012
0.00672217
0.000974706
0.00219462
0.0067514
0.0080376
0.00673335
0.000250019
0.00672452
0.0030478
0.00460247
0.000797856
0.00135847
0.00207083
0.00389103
0.000515182
0.000437535
0.00068638
0.000644492
0.00183831
0.00672546
0.00758649
0.00131902
0.000837386
0.000130595
0.00620426
0.00673444
0.0100345
0.00261928
0.000512803
0.00655579
0.000347539
0.00590361
0.00672579
0.00627301
0.0155394
0.00267192
0.00934018
0.00561195
0.000169383
0.000253442
0.00508898
0.00532922
0.00673344
0.000916051
0.00124998
0.00272506
0.0037174
0.00269622
0.00124253
0.00153104
0.00399624
0.0027019
0.000457553
0.0101828
0.000845727
0.00567828
0.00672449
0.000842955
0.00672574
0.00108999
4.78878e-05
4.05636e-05
0.00364337
7.63228e-05
0.00252241
0.00578073
0.00932026
0.000540714
0.00364244
0.00441463
0.00129659
0.000917619
0.00326284
0.00672627
0.00590811
0.00673002
0.00229184
0.000481555
0.00034798
0.00539979
0.00609778
0.00994965
0.000670215
0.00223911
0.00610871
0.00989997
0.00197286
0.00221091
0.000253227
0.00895099
0.0147685
7.20193e-05
0.00581408
0.00110235
0.00422733
0.000184904
0.00107752
0.000152995
0.00012885
0.00297257
0.00609076
0.00043662
0.00499334
0.00988815
0.00223909
0.00399894
0.00038717
0.00586654
0.00028495
0.000297082
0.000577049
0.00159157
0.00672406
0.00674229
0.00303506
0.00654019
9.09908e-05
0.00554419
0.00216769
0.0097751
0.000353086
4.89409e-05
0.00542701
0.000219683
0.00900772
0.000627586
0.000658453
0.000570028
0.00412694
0.00688868
0.00027924
0.0148057
8.78766e-05
0.00972005
0.000203286
0.000767198
0.000493309
0.00140649
0.00590981
5.50928e-05
0.00639558
0.00112115
0.00672508
0.00905813
0.00718371
0.00021242
0.000988051
0.00028365
0.00029412
0.000385513
0.00188576
0.00388559
0.00672409
0.0151053
0.000774796
0.00219367
0.00672501
0.00610909
0.000485041
0.000960552
0.00488068
0.00675297
0.00634396
0.00520883
0.000419251
0.00768408
0.00672459
0.00672336
0.000399304
0.00672237
0.0151843
0.000596353
0.000827016
0.00672371
0.00136146
0.000838806
0.000360404
0.000131732
0.000445294
0.000734988
0.00018413
0.00721571
0.000523827
0.000322688
0.00231463
0.00673945
0.00417698
0.000748725
0.00284633
0.000895363
0.00103892
0.00116055
0.000491361
0.00323135
0.00254275
8.36945e-05
0.000484112
0.0146877
0.0114757
0.000852875
6.02713e-05
0.0142782
0.000940598
0.00094091
0.00798751
0.000869378
0.00138886
0.0029571
0.000478499
0.00672566
0.000366064
0.000833388
0.00297547
0.000416193
0.00283319
3.10191e-05
0.00672301
0.000402193
0.00402783
0.0150313
0.000346514
0.000875141
0.00672597
6.36655e-05
0.00672637
0.000334224
0.0053675
0.000346415
0.000952737
0.00672471
0.0127177
0.00673463
0.00113683
0.0115206
0.000168752
0.00672525
0.000240195
0.00630369
0.00414388
0.00136371
0.000761483
4.72445e-05
0.000391957
0.00135232
8.53906e-05
0.000376072
0.00263203
0.00033108
0.00673422
0.00102496
0.00116245
0.00618487
0.00322113
0.00673802
5.01699e-05
0.00638677
0.000486592
0.000423444
0.00120522
0.000537189
0.000302044
0.00429008
0.000141131
0.000864134
0.000275479
0.00672584
0.00309779
0.000352601
0.00587258
0.00154824
0.000624208
0.0051107
0.000404451
0.000388018
0.000578776
0.000514919
0.00659825
0.00402159
0.000877537
0.000917227
0.0054734
0.0053365
0.00672387
0.000521583
0.000262039
0.0067374
0.00672558
0.00672644
0.00672228
0.000797145
0.00672396
0.00756226
0.000659135
0.00361889
0.00625605
0.0098954
0.00240305
0.00038464
0.00371637
0.00123896
0.00209477
0.000601625
0.00510269
0.0136136
0.000386385
0.00672122
0.00799921
0.00672461
0.000348296
0.00559011
0.000387867
0.0020968
0.00463089
0.00106912
0.011291
0.000282651
0.00013132
0.0154242
0.00964533
0.000270802
0.00236592
0.0039956
0.000175427
2.92102e-05
2.91737e-05
0.000737515
0.000405023
0.000347229
0.00257853
0.000111365
0.00672026
0.00672199
0.000646515
0.0104712
2.83695e-05
0.00529462
0.014609
0.000341868
0.000511436
0.00194127
0.0038654
0.000355124
0.00122906
0.000905006
0.00102961
0.00547241
0.00216755
0.000377469
0.000963073
0.000531373
0.000326828
0.00610676
0.00322222
0.000220309
0.000201688
0.000335344
0.00215279
0.0053104
0.000898696
0.0129557
0.00046507
0.0067433
0.00031809
0.00042785
0.00582573
0.000670881
0.00165789
0.000901814
0.00588959
0.000232987
0.0033512
0.00189196
0.00051741
0.00047606
0.000736049
0.00410309
0.000651999
0.0126209
0.00103097
0.00158323
0.000366772
0.000296986
0.00399167
0.00101204
0.00023487
0.00129446
0.00500769
0.000570347
0.00357806
0.00360632
0.000826868
0.00184506
0.00115697
0.00054124
0.00115468
0.0120247
0.000783101
0.00131807
8.86886e-05
0.000350306
0.00051186
0.00247114
0.00450256
0.000286629
0.00458116
0.00026629
0.000556337
0.00151459
0.00539654
0.000199179
0.00549117
0.0064322
0.00103998
0.000303213
0.000697634
0.00174947
0.00672664
0.00226953
0.000437094
0.00144005
0.000334479
0.00152255
0.00400403
0.0067228
0.00303411
0.000680342
0.00584657
0.00130625
0.000870356
0.00672369
0.00492124
0.000375386
0.00049668
0.0014266
0.00174014
0.00231146
0.00465759
0.00347564
0.00248345
0.000397106
0.00348523
0.000674854
0.00095287
0.00672537
0.00672372
0.0011116
0.000360494
0.00138096
0.00459871
0.00166525
9.86131e-05
0.00169102
0.0122714
0.00672418
0.00143715
0.00461639
0.000235288
0.00672012
0.00672486
0.00159735
0.00307989
0.000257923
0.000200307
0.000705068
1.57204e-05
0.00114444
0.00672561
0.00776876
0.00090038
0.000211493
0.00327611
0.0104338
0.000225367
8.4233e-05
0.00288535
0.000545977
0.000234154
0.00112095
0.00995362
0.000770748
0.0057276
0.000818061
0.000284706
0.0042799
0.00637752
0.00127821
0.000469971
0.000628375
0.000931807
0.000224263
0.000387485
0.00672178
0.00169192
0.00864901
0.00985938
0.00106566
0.000262959
0.00706287
0.000370806
0.000391356
0.00672567
0.000559141
0.00673237
0.00589109
0.0003157
0.0154314
0.00144106
0.001396
0.000113716
0.00042152
0.00598803
0.0101906
0.00643895
0.00785905
0.000229132
0.0067311
0.00183152
0.00049046
0.000297874
0.00673732
0.00843106
0.0016096
0.00675438
0.0136583
0.000476524
0.000395502
0.000937661
0.000378906
0.00569424
0.00675852
0.000511338
0.00261935
0.00497457
0.000610327
0.0134192
0.000532853
0.00132071
0.00636904
0.00117461
0.00820568
0.0151748
0.00598243
0.0037419
0.00502499
0.00237507
0.000465954
0.00184691
0.00672618
0.000881385
0.0140569
0.00034987
0.013393
0.00148063
0.00634808
0.00529068
0.00672562
0.00026303
0.00132195
0.00122275
0.000722314
0.0027211
0.00564637
0.00100742
0.00213671
0.00222916
0.00032412
0.00534234
0.0060056
0.00246997
0.00475819
0.000127502
0.0137067
0.00101236
0.00104963
0.000605721
0.00159439
0.000921657
0.0050502
0.0106826
8.10493e-05
0.00894776
0.000569669
0.00498215
0.00187455
0.000845802
0.000265038
0.00672528
0.000626056
0.0116962
0.000411647
0.000718515
0.00294089
1.36909e-05
0.000166209
0.00361833
0.00381128
0.00672307
0.000454843
0.000407074
0.00672415
0.0151637
0.006723
0.000555084
0.000799512
0.00146703
0.00301125
0.00536129
0.000252954
0.00352764
0.000483627
0.0144688
0.000561756
0.00672494
0.00675646
0.000379451
0.00170982
0.000277224
0.00132225
0.000236675
0.000850388
0.00672552
0.00216833
0.00672581
0.00157141
0.00280063
0.0047668
0.000356771
0.00305314
0.000107153
0.000212714
0.0141179
0.00490749
0.0105678
0.000346494
0.000681728
0.00142079
0.00126214
0.0067459
0.000270953
0.00339595
0.00564977
0.00421352
0.00224564
7.14125e-05
0.00567114
0.00672607
0.00672605
0.00130283
0.00147417
0.000691309
0.00189001
0.000335151
0.00178064
0.00504146
0.00085012
0.000308741
0.000203793
0.00672239
0.000830644
0.000148547
0.0013303
0.0013354
0.00108373
0.00017115
0.00045948
0.000901838
0.000589138
0.000577741
9.43439e-05
0.000105634
0.000489246
0.000676761
0.0077328
0.000927702
0.00759249
0.000241267
0.000579053
0.000391682
0.00424929
0.000963618
0.000382085
0.000621845
0.0067295
0.00672847
0.00140156
0.00288845
0.00143461
0.0129317
0.00672533
0.000669083
6.62083e-05
0.00331851
0.000255133
0.000853412
0.00139727
0.00452607
0.000199251
0.000260481
0.000689583
0.00200402
0.000868306
0.00145765
0.000620251
0.000598129
0.000405799
0.00412755
0.00672576
0.000907029
0.00517234
0.00554709
0.00672184
0.000867304
0.00631972
0.000233107
0.0153858
0.00514438
0.0005806
0.000285425
0.000385539
0.00672439
0.00337069
0.00672575
0.00599988
0.0067225
0.000328728
0.000283548
0.000134473
0.00021117
0.00109089
0.0082181
0.00672646
0.00452017
0.000362529
0.00672624
0.00672451
0.00505475
0.000910827
0.000756571
0.0107094
0.000705914
0.000465602
0.00675215
0.00654828
0.000757103
0.00141091
0.000852113
0.00672454
0.00135996
0.00524594
0.00112646
0.00310017
0.000617021
0.000591026
0.000448296
0.0146083
0.000327743
0.000525569
0.00497907
0.00672464
0.00529251
0.00672412
0.00167288
0.00533347
0.000754919
0.000558176
0.000219451
0.000467192
0.00672538
0.00672639
0.000342037
0.00187689
0.00672546
0.00144633
0.000362062
0.00672187
0.00017712
0.000427434
0.000691601
0.00022717
0.00911414
0.000195574
0.00672438
0.000222361
0.00672571
0.00101975
0.000615715
0.00524459
0.0133015
0.00397449
0.00224036
0.00261423
0.000112539
0.00116755
0.00555966
0.00158351
0.000449593
0.00472288
0.00156985
0.000788721
0.0045052
0.00673469
0.00167361
0.000421201
0.00159328
0.0067256
0.000613037
0.000303835
0.0124583
0.00193567
0.00672369
0.00222113
0.00147761
0.000660753
0.00672317
0.0153784
0.00675559
0.00341388
0.00672715
0.000162155
0.000684843
0.00010059
0.000605986
0.00360304
0.00122909
0.00672172
0.000882674
0.00137792
0.00471537
0.00223016
0.000427473
0.00703603
0.000605731
0.00672116
0.00239949
0.000349831
0.000908251
0.000761571
0.00344671
0.00209748
0.00401533
0.000377404
0.0067257
0.0067217
0.000774018
0.000722668
0.00672491
0.00146528
0.0100677
7.75343e-05
0.00658012
0.00673633
0.00810829
0.00672628
0.00672173
0.00202434
0.00671587
0.00672604
0.00804894
0.00109833
0.00265922
0.00672296
0.000522752
0.00503799
0.00335714
0.000230102
0.00629694
0.0155645
0.00144368
0.000950736
0.00672541
0.000652052
7.79033e-05
0.00526091
0.00672435
0.000490925
0.00440801
0.000493637
0.000464006
0.000626088
0.00672562
0.00047243
0.000743949
0.00269827
0.00079602
0.000596826
0.000431083
0.00672534
0.00377153
0.00438288
0.00479894
0.00337869
0.000661074
0.000879865
4.66218e-05
0.00242375
0.00039539
0.000671251
0.00672066
0.00824572
0.00115594
0.00672099
0.00264045
0.0013281
0.0151455
0.000382675
0.00672979
0.000457028
0.00485794
0.0012692
0.00045884
0.000969061
0.000644158
0.0113948
0.00672417
0.000961813
0.000502867
0.000574409
2.95166e-05
0.00136173
0.000486244
0.0013292
0.00981488
0.00353299
0.00402815
0.000740103
0.0090229
0.00288418
0.00248879
0.000778585
0.00353492
0.00205454
0.0067261
0.00156196
0.00672504
0.00946477
0.000472425
0.000399793
0.000430153
0.000911631
0.00673491
0.00202967
0.000632958
0.00187406
0.000616657
0.0131075
0.000895323
0.000818306
0.000240884
0.00698808
0.00131985
0.0112673
0.0067232
0.000349441
0.00132717
0.00364681
0.000265839
0.00672581
0.00672938
0.000128767
0.00344687
0.000365679
0.00172399
0.000529332
0.000393552
0.000375704
0.000389916
0.00315166
0.0149301
0.00037062
0.00672549
0.000575721
0.00147016
0.0120171
0.00109716
0.000138439
0.000274018
0.00132715
0.000179213
0.0026683
0.00314582
0.000361269
0.000642319
0.000480135
0.00672482
0.00615161
0.000404358
0.0040221
0.00417825
0.000245247
0.00672561
0.000422776
0.000382396
0.00511101
0.0120222
0.00281155
0.000506184
0.00150544
0.00293468
0.00036951
0.00672351
0.00291542
0.000533752
0.0054321
0.00614293
0.00130543
0.00147065
0.00733264
0.00972049
0.00112962
0.00621555
0.00109429
0.00495138
6.31974e-05
0.00672785
0.00137138
0.00562277
0.00672187
0.00096064
0.00187191
0.00617846
0.00243786
0.000730311
0.00538724
0.0120551
0.000359474
0.00357575
0.0018943
0.000490673
0.00574059
0.00676599
0.000346133
0.00693797
0.000955157
0.00673187
0.000369884
0.000608156
0.000367124
0.000377719
0.00675517
0.00672578
0.0020589
0.00519856
0.00160912
0.00865977
0.00110478
0.00672381
0.00526711
0.00615138
0.000814884
0.000555351
0.00454005
0.00599985
0.000336304
0.00672576
0.000593604
0.00301789
0.00187896
0.0082823
0.000302389
0.00498572
0.00587567
0.0085636
0.00118619
0.000853034
0.00882702
0.000794872
0.000278834
9.79683e-05
0.000224337
0.00185943
6.18542e-05
0.0046877
0.000335023
0.00610199
0.00672342
0.00082039
0.000211993
0.000466267
0.000747306
0.00672319
0.00123058
0.000991908
0.00146861
3.95822e-05
0.00672513
0.00036391
0.00305908
0.0041977
0.000905732
0.0014744
0.00672525
0.00538226
0.000486614
0.0151928
0.00582592
0.00672555
0.00084424
0.000710884
0.00193156
0.00080139
0.000794309
0.00672577
0.000856676
0.000551339
0.00031744
0.000674011
0.00341714
0.00105218
0.00121381
0.000118405
0.000390632
0.000367362
0.00578253
0.000401992
0.00994147
0.00122007
0.00850361
0.000335564
0.00697085
0.00854963
0.00548249
0.00665479
0.00372441
0.000987998
0.0012974
0.000365322
0.00162806
0.00356937
0.00671796
0.00615035
0.00108727
0.00672493
0.00120057
0.00100106
0.000490892
0.00118538
0.0067253
0.00672583
0.00386149
0.00672317
0.000243147
0.000773059
0.000292588
0.00349733
0.00672985
0.00518147
0.00883135
0.00651102
0.00244567
0.000759005
0.000128785
0.000700813
0.00672419
0.000157753
0.00126538
0.00672659
0.00197984
0.00471104
0.00192132
0.000387766
0.00224432
0.0030769
0.00392377
0.000491804
0.000489163
0.00672603
0.000575179
0.00385131
0.000998619
0.00672457
0.00271212
0.000904801
7.21391e-05
0.00244914
0.000755633
0.00951412
0.00114787
0.00605456
0.00424841
0.00380347
0.000410557
0.00672768
0.00608698
0.00201796
0.000150325
0.00215295
0.00418728
0.00672262
0.00571741
0.00187176
0.00041003
0.000557488
0.00252737
0.00672546
8.73358e-05
0.00674546
0.0102744
0.00672449
0.000648327
0.00124281
0.00735379
0.000324021
0.00672522
0.000469796
0.00672245
0.00158548
0.000173751
0.000655994
0.000837826
0.00672601
0.000946012
7.82674e-05
0.000642649
0.000569879
0.000255297
0.000273026
0.00104012
0.000627036
0.00108776
0.00539935
0.00065288
0.0018457
0.000917294
0.00672355
0.000489998
0.00672638
0.00058849
0.00672739
0.000166959
0.00552997
0.00672349
0.00210689
0.000930248
0.00672391
0.000882821
0.00671998
0.000166515
0.00601566
0.000557384
0.000774026
0.00672278
0.00672596
0.000142331
0.00672582
0.00672532
0.00145682
0.000776096
0.000525742
0.000171309
0.00277975
0.000353849
0.00577036
0.00672545
0.00672575
0.00672763
0.000624685
0.00552911
0.000980655
0.000836419
0.00672589
0.00672345
0.00486162
0.00672552
0.000680663
0.00186579
0.00437625
0.00039556
0.000119452
0.00114805
0.000261217
5.77465e-05
0.0023923
0.000302051
0.000668807
0.00570325
0.00569961
0.00098399
0.000780338
0.00402154
0.000248878
0.00672465
0.00133391
0.000399333
0.00372048
4.17134e-06
0.00209664
0.000124367
0.00812079
0.00557552
0.00672546
0.00123938
7.48105e-05
0.00295798
0.000404908
0.00191546
0.00592905
0.00135418
0.00090903
0.00140382
0.000407419
0.00672639
0.000249464
0.00076803
0.00230121
0.00675402
0.0100542
0.000381818
0.000744916
0.00552018
0.00130873
0.00162768
0.00672432
0.00240166
0.00654328
0.000289615
0.00180612
0.000283047
0.00411031
0.0101015
0.00672516
0.000268911
0.000464631
0.00229387
0.000592809
0.00672602
0.0139988
0.0120467
0.00675369
0.000463666
0.00130705
0.00203443
0.00040479
0.00115497
0.00077841
0.00120407
0.000910088
0.00108551
0.00672517
0.00109048
8.04913e-05
0.00032976
0.00672565
0.000720902
0.000393134
0.00135385
0.00672607
0.0122726
0.00116134
0.000865006
0.00574917
0.000343494
0.000403121
0.000121517
0.00672507
0.00146303
0.000231019
0.000206823
0.000263463
0.006725
0.00132247
0.00116148
0.000341694
0.00672545
0.000190659
0.00461325
0.000239477
0.004112
0.00152791
0.00385807
0.000494833
0.00502381
0.00202969
0.00672486
0.000778199
0.00099582
0.000655281
0.000282097
0.0010613
0.000245794
0.000261765
0.000609792
0.000878551
0.00672403
7.87328e-05
0.00130847
0.000388036
0.000312668
0.000698593
0.000412883
0.00672926
0.00403152
0.000191804
0.00291876
0.00133218
0.000974718
0.0052031
0.000254933
0.00115658
0.00470314
0.000509842
0.000416666
0.00033228
0.000956597
0.00672859
3.46154e-05
0.00676622
0.00046084
0.00557876
0.00542298
0.000556684
0.000583343
0.00672482
0.00383993
0.00672863
0.000865004
0.000626337
0.00073505
0.00854028
0.00192532
0.00672107
0.000567907
0.000143253
0.00672785
0.00866727
0.00672805
0.000903889
0.00129844
0.00213398
0.000579759
0.000958411
0.00419637
0.000382702
0.000409944
0.000672333
0.000273913
0.00672812
0.00532819
0.0050449
0.00672149
0.000780374
0.000666597
0.000352866
0.0011346
0.0067216
0.00136218
0.000429834
0.0114754
0.00672674
0.0067241
0.000476101
0.00068368
0.00672112
0.000337373
0.000340927
0.000338025
0.000380385
0.000489238
0.000484777
0.00672721
4.89402e-05
0.00672137
0.00488113
0.000573751
0.00673187
0.00171862
0.000251322
0.00672352
0.00301468
0.000370159
0.00196889
0.00315926
0.00564492
0.00672492
0.00672215
0.000392006
0.00672538
0.00546792
0.0102977
0.00672626
0.000618463
0.000855289
0.0126006
0.000400325
0.00619016
0.000755346
0.000403333
0.00672352
0.00374659
0.00672567
0.000768339
0.00672563
0.000931612
0.000627397
0.0067549
0.00674793
0.000642341
0.000599982
0.000778295
0.00013628
0.00027198
0.00102291
0.00754661
0.000177831
0.00164455
0.000914581
0.000172179
0.000272547
0.00105461
0.00146663
0.00498588
0.000387179
0.00445779
0.00135089
0.00365515
0.000435372
0.000228013
0.00636049
0.0031199
8.19434e-05
0.00672557
0.0020506
0.00672565
0.00672347
0.00206329
0.00336859
0.00302352
0.00672111
0.00815512
0.00672368
0.000124752
0.00184173
0.000573819
0.000140658
0.00330376
0.00107932
0.000738271
0.00672587
0.000861812
0.00622905
0.000342843
0.00391437
0.00358998
0.000891933
0.000515707
5.69844e-05
0.000708893
0.000469772
0.000921103
0.000405151
0.000237587
0.0032429
0.00180969
9.28679e-05
0.000342104
0.00355632
0.00673982
0.00656866
0.0025121
6.7541e-05
0.00922068
0.000403829
0.000750713
0.000715733
0.000686889
0.000724859
0.0131987
0.000545188
0.00672278
0.000238177
0.000302944
0.00119357
0.00672968
0.00672332
0.0154583
0.00672618
0.000512747
0.00626402
0.000577751
0.00456045
0.000235723
0.00079
0.000406894
0.00671836
0.00494205
0.00672439
0.00052649
0.00213693
0.00307657
0.000714442
0.00742699
0.00528821
0.00672535
0.00140922
0.00377626
0.00230071
0.00262407
0.0137116
0.00559319
0.000777
0.00672289
0.00552019
0.00529995
0.000386326
9.96232e-05
0.000441676
0.00421923
0.00672488
0.00315022
0.00672266
0.000899563
0.0067527
0.00147808
0.00672553
0.00343951
0.00672505
0.00100677
0.00675096
0.000204086
0.000236287
0.00674816
0.000226425
0.0122221
0.000652258
0.000668448
0.000748608
0.00024043
0.000934663
0.000652728
0.000318519
0.000140789
0.00413261
0.00144002
0.000391961
0.00342128
0.00453865
0.00700045
0.000531502
0.000378586
0.000530146
0.00041103
0.00513732
0.00668906
0.00674625
0.000237819
0.0119004
0.000351497
0.000266682
0.000384877
0.00672494
0.0120488
0.00658143
0.00951529
0.00672442
0.00599164
0.00950435
0.000239214
7.72651e-05
0.00907041
0.000850422
0.000595466
0.000260163
0.000567235
0.00391799
0.00139525
0.000488859
0.00672298
0.00777756
0.00672549
0.000492461
0.000664201
0.000489289
0.00058757
0.000265116
0.00171221
0.00112049
0.00049761
0.000397642
0.0134359
0.000344694
0.00169389
0.000565872
0.000346557
0.000142248
0.00672259
0.000395774
0.000113725
0.000252638
0.00413474
0.000313113
0.000819662
0.000243768
0.000276423
0.000903961
0.00103846
0.000142588
0.0071233
0.002388
0.0013502
0.0098324
0.000502581
0.000974101
0.00111418
0.0067252
0.000165372
0.00159995
0.00543238
0.0002683
0.00154027
0.00672466
8.13413e-05
0.000468622
0.00043742
0.00508835
0.00666736
0.00672657
0.000569878
0.00672495
0.00118183
0.0012697
0.00154671
0.000538798
0.00544306
0.000807903
0.00233591
0.000978682
0.000203704
0.00672587
0.00482051
0.0014064
0.00672185
3.53754e-05
0.000164081
0.000184637
0.00126347
0.000495319
0.000925015
7.50781e-05
0.000843248
0.00145205
0.00672438
0.00349663
0.00188743
0.000753572
0.00144729
0.00511359
0.0067258
0.000166759
0.00549848
0.000544384
0.00086018
0.000147691
0.00672829
0.000410187
0.00442203
0.010313
0.00672416
0.000227481
2.69647e-05
0.0047759
0.00220765
0.00146883
0.00195706
0.00019448
0.000392674
0.000600547
0.000654849
0.000874433
0.00672466
0.00541821
0.000268198
0.00672552
0.00260438
0.000251158
0.00672606
6.51107e-05
0.0054908
0.0136941
0.00373025
0.000339072
0.000306816
0.00980966
0.00261343
0.00672547
0.0109623
0.00674389
0.00634411
0.00672345
0.000146494
0.00690123
0.0041224
0.000441955
0.00386944
0.00123885
0.000274162
0.00523691
0.00672178
0.000742089
0.0137553
0.00672549
0.00672467
0.00661956
0.000903397
0.00242372
0.00672863
0.00580943
0.0107225
0.00356944
0.000452597
0.00672591
0.0103204
0.000119199
0.00268375
0.00441445
0.00203325
0.00258777
0.00617892
0.00385572
0.00672606
0.00672614
0.00607375
0.00499154
0.000154929
0.000945702
0.00286187
0.00171992
0.000260024
0.000467586
0.000393634
0.00982057
0.012637
0.00671686
0.00122895
0.00116161
0.00142615
0.00399477
0.00672125
0.00334443
0.00035855
0.000903402
0.00120242
0.00672117
0.000422977
0.000416402
0.0036731
0.00672542
0.000287724
0.00205322
0.000468842
0.00141606
0.00791925
0.000515752
0.000189193
0.00131675
0.00432274
0.000863787
0.000498463
4.76365e-05
0.00607339
0.0119604
0.00672338
0.000716826
7.26188e-05
0.015868
0.00193
0.000394776
0.000479292
0.00289749
0.0042092
0.00672562
0.000721981
0.00528628
0.0115072
0.000679809
0.00812127
0.000500285
0.000508464
0.00674529
0.0105623
0.00052871
0.00619021
0.00674476
0.00055092
0.00672324
0.00672671
0.000725368
0.000330907
0.000312188
0.00346955
0.00692552
0.00111946
0.00514065
0.000385075
0.00554592
0.000156046
0.00438757
0.0134772
0.00087517
0.00102407
0.00130664
0.00671832
0.000310047
0.00672722
0.00575022
0.000128422
0.00166015
0.00673175
0.000464846
0.000537177
0.00674518
0.000886001
0.000450377
0.000374882
0.00675055
0.00039617
0.0067251
0.000194424
0.0012485
0.000131219
0.00263979
0.00688367
0.00021392
0.00762315
0.000262376
0.00048703
0.00673247
0.00163056
0.000122146
0.000244248
0.000101799
0.00672514
0.00063957
0.000233119
0.000473721
0.00085044
0.0126243
0.00688265
0.003392
0.00684628
0.000424425
0.000285968
0.00672559
0.00299961
0.0067222
0.000483149
0.000456739
0.000287561
0.0148675
0.0064085
0.00672253
0.00114879
0.00031633
0.000960937
0.00674089
0.0148604
0.00112732
0.0011263
0.00214308
0.00361639
0.000410236
0.00769772
0.000133576
0.0006493
0.000272994
0.00672575
0.00115686
0.00047326
0.000279944
0.00296533
0.00672025
0.00289834
0.0102548
0.00609632
0.00517143
0.000272893
0.000423841
0.00322992
0.00672353
0.00275716
0.00702616
6.23215e-05
0.00038521
0.00174396
0.0014017
0.000457049
0.00019127
0.000396084
0.00171047
0.000682712
0.00672388
0.00013739
0.000271385
0.0052086
0.00287128
0.0131628
0.0112055
0.00149938
0.00888666
0.0107191
0.010543
0.0010167
0.00572656
0.00675476
0.00858996
0.00585977
0.00278808
0.00061672
0.00462254
0.00518434
0.000758847
0.0107188
0.000532395
0.00672668
0.0006285
0.000437392
0.000471162
0.00783994
0.00291388
0.000764149
0.00672032
0.00802945
0.000799993
0.000468298
0.00127024
0.000556505
0.00238951
0.006729
0.000474118
0.000440791
0.00086068
0.000925201
0.000967117
0.000716457
0.00104795
0.00662757
0.000317726
0.000996405
0.0102799
0.0010986
0.00672489
2.74458e-05
7.45812e-05
0.00401305
0.000431042
0.00271568
0.000809117
0.000660403
0.000381935
0.00671876
0.000240589
0.00102419
0.000809115
0.000211567
0.00672487
0.00144206
0.00694962
0.00361774
0.0144984
0.000472878
0.00100359
0.00672076
0.00522712
0.000700428
0.0067422
0.0129564
0.00546056
0.00672625
0.00672803
0.00325071
0.0014331
0.00167035
0.000663195
0.000583501
0.000265404
0.000668826
0.000219612
0.000707704
0.000443603
0.00387323
0.00107866
0.00944373
0.000403516
0.0146706
0.000636661
0.00672039
0.00673084
0.000437645
0.000367126
0.00672221
0.000229919
0.000652772
0.00029807
0.000355571
0.0041294
0.000548944
0.00672625
0.000226866
0.000389609
0.000390352
0.00673095
0.000267194
0.000959335
0.00490787
0.000106455
0.00033502
0.00672641
0.00346634
0.000402264
0.00667744
0.00828741
0.00103969
0.000833919
0.000291671
0.000394341
0.000248881
0.00923046
0.000320596
0.00358444
0.000388705
0.00515663
0.00963418
0.0007147
0.00052811
0.000602222
0.0155653
0.00408863
0.0041126
0.00978145
0.000408965
0.0126005
0.00024393
0.00672854
0.000437801
0.00045574
0.000155712
0.000768061
0.000395278
0.000331302
0.000883144
0.00672603
0.00433013
0.000384948
0.00136801
0.000128886
0.00411072
0.00310506
0.000321927
0.00147076
0.0028225
0.00672531
0.000425234
0.000414312
0.0010025
0.000484202
0.000512785
0.000326787
0.00297793
0.000168979
0.000685558
0.000530329
7.89799e-05
0.00173142
0.000133537
0.000144644
0.00550822
0.000585699
0.00860244
0.00585706
0.00306893
0.00038533
0.006396
0.00456665
0.00129145
7.57682e-05
0.00876255
0.000442503
0.00634348
0.000539634
0.00408009
0.000695375
0.00672107
0.00101978
0.000350994
0.0062183
4.71499e-05
0.0010062
0.000425854
0.00164043
0.01062
0.00228349
0.00863771
0.00663431
0.000785354
0.0109678
0.00672555
0.00672185
0.0058185
0.00269806
0.00672602
0.000523333
0.00378655
0.000356478
0.00138514
0.0102142
0.00672258
0.00251082
0.00755166
0.0067242
0.000631734
0.00425093
0.0107354
0.00642982
0.00757936
0.00570287
0.0067292
0.000993287
0.000369309
0.000537623
0.00672643
0.00110196
0.00673018
0.00754133
0.000563149
0.000142624
0.00072457
0.00746167
0.000589938
0.000833726
8.6233e-05
0.00225301
0.000415327
0.00142723
0.00672173
0.000765828
0.000302151
0.00674122
0.013391
0.00510701
0.000778202
0.00261144
0.009008
0.00153399
0.00593916
0.000396031
0.000424244
0.000236455
0.00507703
0.00935015
0.000354747
0.00137232
0.00143211
0.00100365
0.00117744
0.000378838
0.00099913
0.00672507
8.59951e-05
0.000452677
0.000396037
0.00542461
0.000570673
0.000274921
0.000211561
0.000337521
0.00100344
0.00591953
0.000297476
0.00673185
0.000420528
0.000866791
0.00934348
0.00672431
0.000454053
0.00493443
0.00189154
0.000276195
0.00141238
0.000456013
0.00736263
0.000467529
0.000893811
0.00237847
0.00672347
0.00330877
0.00672485
0.00175154
0.000515672
0.00578727
0.000433542
3.11656e-05
0.000116975
0.00122085
0.00254548
5.28835e-05
0.000416548
0.0150512
0.000515676
0.000427324
0.000378909
0.0012573
0.000727261
0.000137982
0.000425992
7.93262e-05
0.000501105
0.000270337
0.00105504
0.00388352
0.000743446
0.00396558
0.000683088
0.00672289
0.000676499
0.000704633
0.000541655
0.00892324
0.00109504
0.000362534
0.00671435
0.00244269
0.00672536
0.00672502
0.00165039
0.00672749
0.000661368
0.00399703
0.000603389
0.000583197
0.00156707
0.00294583
0.000918805
0.00325705
0.000602886
0.000343014
0.00525453
0.000829602
0.000413551
0.00143167
0.00672564
0.000354805
6.96257e-05
0.000361282
0.0115899
0.00068813
0.0131988
0.00089213
0.00672463
0.00672243
0.00583727
0.00444001
0.0008894
8.22138e-05
0.000544414
0.0020971
0.00712541
0.00672454
0.000735515
0.00432894
0.0014053
4.96789e-05
0.000815286
0.00229833
0.0012375
0.000221292
0.000608468
0.000817185
0.000113941
8.66201e-05
0.000341154
0.00117425
0.00186812
0.00140149
0.000941558
0.00552889
0.00953512
0.00396114
0.00103563
0.00131954
0.00100143
0.0018751
0.00672655
0.00126855
0.00672534
0.00137385
0.00355958
0.00591436
0.0061113
0.000414826
0.00077332
0.00108358
0.000565208
0.0027607
0.00411082
0.000380559
0.0144248
0.0003205
0.00298341
0.00272511
9.05905e-05
0.00395128
0.000141559
0.00672608
0.00016049
0.000631923
9.98914e-05
0.0134232
0.000267418
0.00198746
0.00673114
0.0115601
0.00296545
0.000895638
0.00155716
0.000361798
0.00672346
0.000131363
0.00387846
0.000151892
0.000449284
0.00040756
7.75631e-05
0.00419794
0.00678128
0.0019376
0.00046144
0.00135737
0.00992415
0.00711042
0.00018045
0.0067258
0.000202824
0.000275
0.000310376
0.00245613
0.00895059
0.00422059
0.00671938
0.00482417
0.00474195
0.00297624
0.0040757
0.00370994
0.00608415
0.000275758
7.08822e-05
0.0062182
0.0062998
0.00180975
0.00925454
0.0036322
0.00043865
0.00148998
8.19009e-05
0.00327776
0.000467954
0.00634696
0.0016139
0.000484128
0.00140452
0.000213859
0.000774356
0.000699444
0.000152621
0.000439863
0.00368768
0.000160218
0.000622303
0.0015984
0.00138931
0.00533852
0.00647193
0.00672399
0.00162917
0.00257826
0.000621773
0.00262083
0.00093851
5.80517e-05
0.00110488
0.0012739
0.00160099
0.0156904
0.0114694
0.00159004
0.00164206
0.00931325
0.00655402
0.00167609
0.000588614
0.00047502
0.0034643
0.00247917
0.00189645
0.00933923
0.000164337
8.11147e-05
0.000380933
0.00169233
0.006761
0.00022987
0.00672636
0.00352465
6.60136e-05
9.60999e-05
0.00671577
0.000597924
0.000154911
0.000933111
0.00672637
0.00672211
6.2748e-05
0.00194386
0.00305424
0.00132219
0.0139803
0.00129062
0.000178418
0.00672302
5.17548e-05
7.39965e-05
0.00238106
0.000567055
0.00672704
0.00886734
0.00498982
0.000345046
0.00209267
0.000347522
0.000377373
0.00672489
0.00110585
0.00675321
0.00210621
0.00672589
0.000968642
0.00673609
0.00144797
0.000233614
0.000523725
0.000874443
0.00673193
0.0154657
0.000307135
0.00302294
0.00628857
0.000264318
0.000432916
0.00542629
0.000522394
0.000880133
0.0017947
5.969e-05
0.000222737
0.00284965
0.0127432
0.00672916
0.00368649
0.000151438
0.00473754
0.00671629
0.000590778
0.0158204
0.00672616
0.00413928
0.000582854
0.00496721
0.00672252
0.00292313
0.0002748
4.9443e-05
0.00158505
0.000309889
0.00612481
0.0027431
0.00595707
0.00518808
0.00731611
0.00123515
0.00419406
0.00160969
0.00672486
0.000292473
5.29594e-05
0.00464487
0.00047002