/*--------------------------------*- C++ -*----------------------------------*\
| =========                 |                                                 |
| \\      /  F ield         | OpenFOAM: The Open Source CFD Toolbox           |
|  \\    /   O peration     | Version:  v2012                                 |
|   \\  /    A nd           | Website:  www.openfoam.com                      |
|    \\/     M anipulation  |                                                 |
\*---------------------------------------------------------------------------*/
FoamFile
{
    version     2.0;
    format      ascii;
    class       volScalarField;
    location    "950";
    object      ddt0(k);
}
// * * * * * * * * * * * * * * * * * * * * * * * * * * * * * * * * * * * * * //

dimensions      [0 2 -3 0 0 0 0];


internalField   nonuniform List<scalar> 
13851
(
1.11956e-06
0.0136765
-1.7996e-06
1.29896e-06
7.23841e-06
-0.000875052
4.07617e-07
4.03681e-07
3.2072e-07
-9.21583e-05
-0.00028585
0.0332622
-6.5531e-06
0.0144312
3.57753e-07
9.64267e-07
3.2337e-08
-1.66821e-06
8.46923e-06
2.57982e-07
1.2668e-06
8.82512e-07
5.02903e-07
2.85863e-07
4.77531e-07
-2.67793e-07
8.78673e-07
0.00138083
9.84634e-07
-1.11273e-06
0.00106666
2.48872e-07
-2.88153e-06
-0.00077362
-1.97332e-08
8.4759e-06
1.79561e-05
6.59743e-05
-0.000164317
0.00313083
7.89236e-07
-3.59251e-08
0.006261
-0.000368906
0.000139254
0.039682
0.00104171
-0.00351206
9.5196e-07
0.00118227
4.90345e-06
9.14715e-06
0.000717633
4.64005e-07
5.4451e-07
-9.69692e-08
3.35254e-07
-0.00237961
-9.69925e-07
4.13959e-07
7.3326e-05
-0.00698314
-7.02483e-06
9.6465e-06
0.0306035
5.09782e-07
1.69819e-05
0.000959281
2.55433e-06
-1.60576e-06
-0.0001596
6.75523e-06
0.0130025
4.8761e-07
6.27441e-07
3.55857e-07
1.64839e-07
-0.000301927
3.14982e-06
0.000113123
2.00577e-07
0.000341191
2.41151e-07
0.0072476
-4.82997e-06
0.0276336
-0.00157864
-0.02013
1.06914e-06
1.95983e-07
8.74671e-06
0.000150378
0.000337126
1.98521e-06
1.09033e-06
7.07586e-07
7.73557e-06
-0.000298217
0.0012521
7.2904e-07
0.00455569
3.38192e-06
4.8679e-07
7.03681e-07
-5.7187e-07
0.00126924
3.71337e-06
-1.91431e-07
-6.47506e-06
-0.0029654
8.22435e-07
1.3384e-07
2.98362e-05
6.42625e-07
7.15153e-07
-0.0129161
-0.000202501
-4.0868e-08
8.98745e-07
9.89348e-07
0.0107162
6.27094e-07
8.23281e-06
-0.0128962
-0.00543658
-2.69529e-06
-0.00290398
3.10987e-06
1.32198e-06
1.73437e-05
7.81484e-07
2.33082e-07
3.19254e-05
2.48978e-07
-0.00992882
2.62422e-07
-1.61511e-08
1.01746e-05
-0.0388051
-0.045388
0.00232696
4.23655e-07
1.05067e-06
5.93888e-07
-6.95837e-07
-0.000152685
0.000539781
2.09271e-05
4.58331e-07
0.000147228
5.49591e-06
8.92453e-07
0.0150094
2.83815e-07
1.3805e-07
-6.92267e-07
2.73797e-07
-6.42914e-07
9.22361e-06
4.85541e-06
-5.19596e-07
1.75037e-06
0.000127647
2.31651e-07
-2.15965e-06
2.01083e-07
0.000746171
2.58551e-06
1.31187e-06
-0.00476468
-0.000471061
3.18715e-07
3.1232e-07
-0.0611771
2.38911e-07
-0.00534123
2.93724e-06
8.85282e-07
1.86736e-05
-2.97445e-07
2.18259e-07
6.10495e-06
2.60676e-07
2.66866e-06
-1.55596e-07
-4.45335e-07
1.9995e-07
4.74063e-07
1.01969e-05
-0.000357925
0.0011843
0.00232463
2.41011e-06
2.49375e-06
-0.00528163
-1.96667e-08
7.44718e-07
0.00128725
5.64191e-07
3.07711e-07
-4.4086e-06
0.0351188
1.93547e-06
3.28357e-07
-4.46077e-06
2.55219e-07
0.0153164
5.16119e-07
0.000201161
-3.30292e-07
1.71624e-06
4.77415e-07
0.00414886
-2.377e-07
3.29305e-07
0.000943054
-5.07104e-06
0.0337562
3.37033e-07
0.000171714
5.62807e-07
1.97752e-07
-1.53436e-05
1.04465e-05
1.91578e-06
-3.93612e-07
2.19941e-06
-4.13731e-07
0.00433872
-2.33429e-07
5.05818e-08
0.000807204
3.11544e-07
1.68177e-06
4.55354e-06
2.14354e-07
0.00792958
0.0280595
5.18137e-07
3.18448e-07
0.00109
0.000566651
1.29076e-06
1.99527e-06
-5.29376e-07
-2.22748e-05
3.37247e-06
0.00411309
-6.34259e-07
-1.01825e-06
2.00046e-05
0.000605403
-1.62271e-07
-6.72819e-07
3.94624e-06
3.14815e-06
-0.000319289
1.33892e-05
0.000377308
3.26922e-07
3.79485e-07
-1.12527e-06
0.00485949
7.06339e-07
2.95632e-05
-3.13638e-08
-1.14577e-07
1.80227e-06
-1.79933e-05
0.000900827
9.48783e-06
9.76681e-08
0.00545657
2.88331e-06
4.13626e-07
2.43135e-07
0.000200366
0.000945258
4.11669e-05
-0.000199846
1.08314e-06
-2.94783e-07
-7.13098e-07
3.75589e-06
0.00203427
-0.00254083
1.68073e-07
3.29948e-07
0.00268056
0.00124181
2.29916e-05
-8.29573e-07
4.10826e-07
2.6376e-06
0.000939612
2.23993e-05
-1.9225e-06
0.0124869
2.08187e-07
-1.55908e-05
1.72745e-06
-2.26523e-07
2.54069e-05
2.06829e-07
0.000615666
-3.26137e-05
2.02233e-07
3.32617e-06
2.01571e-06
-7.55702e-07
-0.0212573
-1.99594e-06
-1.76145e-07
2.28787e-05
2.5756e-08
-1.04706e-06
-2.28067e-05
2.01575e-05
7.88109e-06
3.16333e-07
3.70106e-06
3.18061e-07
-0.000379908
-1.42e-05
6.08081e-08
1.30354e-07
8.03403e-06
2.22488e-06
2.03558e-07
3.06635e-07
2.13147e-07
-1.7124e-07
-0.000494196
0.0157087
-0.0168914
-1.3862e-06
1.3436e-05
0.0292413
3.34875e-07
2.45085e-06
2.5964e-05
0.000297322
7.59192e-06
8.3989e-06
2.71367e-05
-7.12068e-06
0.0102131
9.81216e-06
3.75056e-07
0.000374467
0.000414679
0.000239215
2.32979e-07
1.55257e-05
0.004548
3.08872e-07
0.0084211
5.47074e-08
3.13868e-07
-4.87713e-07
-2.33873e-07
2.88503e-07
-2.34823e-06
-0.00069183
2.24638e-07
3.22985e-06
5.54725e-08
0.0070608
1.78749e-06
0.000564608
-0.00422957
2.12875e-07
-8.44456e-06
1.91515e-06
-0.000480962
7.16479e-07
-1.02398e-08
-2.55481e-05
0.000831605
5.6882e-07
0.0218354
0.00030259
8.5234e-06
-0.00680898
0.000645184
0.000768177
1.73729e-05
2.47613e-07
7.02214e-07
-1.18724e-06
3.66799e-06
0.0153546
2.5636e-06
5.04333e-06
-1.84899e-05
9.13836e-08
3.32209e-07
-0.0306149
0.000139174
0.000401832
-3.85679e-05
-0.000149193
2.07509e-06
-8.21609e-08
0.0115951
3.85287e-07
7.18128e-07
3.26582e-06
3.83438e-07
-7.03873e-07
2.61349e-07
1.73016e-07
8.47623e-06
1.74199e-05
-0.000659143
-1.37851e-06
3.92565e-06
4.88094e-05
0.00138935
-1.13821e-06
9.8477e-05
-4.42253e-07
0.0010202
-3.82113e-08
2.654e-07
-6.73527e-07
0.000171914
0.0017242
1.17474e-05
2.1123e-05
-0.00104332
-0.00200436
-0.000333869
1.08858e-06
4.76594e-06
7.02776e-07
0.00207804
-1.15411e-07
8.68186e-05
0.000404949
-5.00833e-06
0.000146599
1.11965e-06
0.000600976
0.000284126
0.00617486
-1.20177e-07
2.15216e-06
3.11141e-06
0.000828832
3.35542e-07
-1.59734e-07
5.08022e-06
8.66027e-06
-1.96016e-06
0.0209281
-5.11031e-07
1.09468e-07
0.00264468
-2.36425e-06
-2.75919e-07
-0.0186406
2.46848e-07
1.14638e-06
3.72255e-07
5.4691e-06
-3.80095e-07
-3.0726e-07
8.97276e-07
2.6472e-05
2.37243e-07
2.83037e-06
3.21302e-07
6.37422e-05
0.00107309
4.3683e-07
7.69071e-07
6.36384e-07
7.48216e-07
-0.00196461
-7.33279e-08
-0.000920645
2.63683e-07
7.17928e-08
0.0109792
0.000185278
2.35586e-07
0.000187861
-1.04766e-06
0.000244895
0.0192718
2.15816e-07
-0.000510566
7.36867e-07
7.23955e-06
3.5719e-07
0.00360533
-8.99947e-08
8.58553e-05
0.000386687
-3.09314e-08
0.000131929
-0.000443954
-6.62174e-07
-0.000526719
3.49815e-07
-0.00984638
5.0294e-07
2.43083e-07
1.93165e-07
4.04146e-07
0.000435737
4.43764e-06
8.08524e-06
1.974e-05
-4.46681e-06
-5.24323e-07
-1.53345e-05
0.000234487
5.33047e-07
1.78095e-06
0.000301235
-0.00989761
-1.56595e-05
6.21651e-07
0.0047339
0.0162964
0.036049
-2.16337e-06
0.000322073
0.00143295
0.000733426
6.56652e-07
0.0028923
0.000795058
-7.29799e-07
0.000302495
1.13247e-05
-5.87675e-08
0.00076473
4.57142e-06
2.88038e-05
-6.84031e-07
3.29785e-07
2.47563e-07
4.26566e-07
9.49112e-06
-6.01906e-07
-0.0288089
0.0543678
2.57669e-07
0.00389295
2.63677e-05
0.00047216
0.000121031
2.81679e-06
-2.09479e-07
3.43978e-07
0.000199625
-3.18733e-05
1.2193e-07
6.01696e-06
9.13496e-06
-1.66458e-07
-0.000206523
0.000904338
0.00013647
8.8322e-06
0.000423343
1.23046e-05
7.64035e-07
3.94757e-07
-0.0233222
-2.73251e-05
9.04062e-06
2.53186e-06
-9.15115e-07
-2.71336e-07
5.18888e-07
9.71374e-05
-1.43271e-07
-6.68265e-07
-2.81034e-07
3.9289e-07
2.45834e-05
8.96406e-06
-3.90289e-06
-1.68682e-07
0.0572287
0.000222326
2.05251e-07
3.10392e-09
9.0004e-07
6.45518e-07
-0.00272657
0.00467983
0.00459789
0.0142217
-0.00594932
2.5392e-06
-0.00201212
0.000262637
-6.9077e-06
2.52835e-06
-2.23823e-07
-1.33937e-05
1.22727e-06
2.61215e-05
0.00465359
6.1768e-06
1.65141e-06
3.28472e-07
6.84731e-07
1.3193e-06
-0.000517232
4.94596e-06
2.77547e-07
-1.59112e-06
3.44687e-07
1.7562e-06
1.32934e-05
4.11292e-07
6.76286e-07
1.32174e-06
1.36268e-07
8.01206e-06
0.00012361
1.10115e-05
4.44686e-07
8.98651e-06
3.4047e-07
4.01395e-05
1.00087e-05
0.0090386
4.63019e-07
6.65235e-07
-7.51576e-06
-5.59221e-07
-0.0176652
3.94886e-06
0.0183509
-0.0266806
3.75749e-07
9.11961e-06
3.80989e-06
3.43975e-07
-1.00142e-07
3.81332e-07
5.97221e-05
-1.44891e-06
1.9741e-06
-1.62272e-07
0.0691911
0.00080282
0.0940637
1.25234e-07
-1.66384e-07
3.67433e-07
2.74261e-05
-0.000555589
4.00752e-06
1.88735e-06
5.53618e-06
1.99381e-07
-7.77784e-08
1.54164e-07
1.08118e-05
-0.0545122
1.4901e-07
-1.78946e-07
4.07784e-07
1.79953e-07
-2.32255e-05
0.00353241
8.19972e-07
-0.000405184
-0.0113431
6.46286e-07
8.24397e-06
0.00605996
2.72364e-06
0.0454593
1.87743e-07
-1.25321e-06
3.83661e-06
-1.19e-06
0.00273002
2.52679e-07
-0.000713272
-1.88639e-07
2.08685e-06
0.000106926
6.51388e-07
-3.70466e-08
7.66834e-06
2.35757e-07
4.8607e-08
0.00151773
-0.0240929
4.58761e-06
4.01511e-05
0.000252
-2.56124e-07
1.56192e-07
0.0108371
9.27605e-06
3.50507e-06
9.2893e-06
4.40039e-07
1.14722e-06
-3.29243e-08
-0.0032923
2.86106e-05
-1.69246e-06
1.02496e-06
0.0012593
7.92077e-07
3.53515e-07
0.00440253
2.38532e-06
-2.5437e-05
-5.8768e-10
1.76935e-07
-0.000380527
0.00137016
9.02599e-06
1.07684e-06
1.86055e-05
2.50677e-07
0.00122848
2.47102e-05
-5.40842e-06
-9.83155e-07
0.0267296
3.8015e-05
-4.57002e-06
1.72448e-05
7.19824e-07
1.92092e-06
-5.19531e-07
3.61713e-07
-0.000335637
1.19862e-06
8.57564e-06
-1.61591e-05
0.00111958
3.08238e-07
0.00469317
-2.76793e-07
3.08639e-05
-1.14468e-07
5.98525e-07
6.57058e-07
-3.63263e-05
3.04158e-07
2.38085e-08
-0.00696106
4.19623e-07
-2.97381e-05
5.25862e-07
1.11369e-06
4.98455e-06
0.000300103
-0.00146419
3.02536e-07
0.00508683
-0.000560737
-9.47619e-08
-8.22901e-06
2.22432e-06
3.72412e-07
-0.00278095
0.00591143
0.00252755
-1.20938e-06
2.07987e-07
-1.66398e-07
0.000107464
-6.28395e-06
5.33994e-05
-1.92927e-06
-0.00274986
6.01586e-07
1.12448e-06
6.76789e-06
-0.00152563
9.60582e-06
0.00726659
1.82805e-07
8.2862e-06
6.05339e-06
1.05325e-05
-1.62194e-06
0.025846
1.77322e-05
4.3535e-07
-0.0449509
8.65729e-06
-0.0262717
0.00932736
1.49218e-05
-0.00206102
4.14396e-07
3.59354e-07
-7.48362e-07
-0.00311759
-0.0114167
-1.61002e-07
-3.46579e-07
4.71328e-06
0.000102361
6.46505e-08
0.00174977
4.19066e-07
2.14563e-07
0.00313073
-0.000416211
0.000262888
3.49136e-07
3.27792e-07
0.00111847
1.03669e-05
7.79999e-06
-3.7008e-06
-0.00619842
9.1921e-05
0.00566914
3.83525e-06
3.22831e-06
-1.97902e-07
3.89126e-07
0.0173821
3.96248e-06
0.000130971
-0.000385093
2.63444e-06
0.00043312
-0.0374143
-5.90784e-06
2.50037e-07
2.27124e-06
2.01163e-07
8.38307e-07
6.94964e-08
0.000279466
1.09369e-06
0.000109629
9.26339e-08
4.53514e-06
5.47061e-07
4.99581e-05
2.42552e-06
2.17515e-06
-0.000311147
3.37688e-06
8.01297e-06
4.30055e-07
4.34932e-06
-0.00258882
-1.25668e-05
-7.37674e-07
-0.000427934
6.8854e-07
0.00559248
-0.000900589
-2.36902e-08
-2.12154e-05
0.0045756
-1.64242e-06
-0.00135949
-0.000352148
8.84128e-08
-6.91519e-06
1.17642e-06
-0.0122432
0.000239207
2.1853e-07
4.52097e-07
0.000125234
0.000235129
0.0146958
7.78596e-08
3.19798e-07
-0.016289
0.000161264
8.85895e-06
-1.18541e-06
-2.02816e-06
-0.000944054
0.0064299
6.62303e-06
5.29689e-08
5.56088e-07
2.38317e-07
1.29293e-06
0.000791095
3.27904e-07
0.000436725
0.00195809
2.12747e-07
1.28858e-06
4.60849e-08
-5.39746e-07
-0.000253808
-0.00101427
2.16726e-06
0.0253313
5.57578e-07
2.07949e-06
3.06687e-08
2.34245e-07
1.44361e-07
2.27538e-07
0.000233944
2.33579e-07
3.8461e-06
2.30473e-07
-1.16468e-06
0.00083795
0.00182833
6.73728e-07
-0.00702271
8.05076e-05
1.11649e-05
1.34391e-06
1.87511e-06
-4.431e-05
1.78517e-06
-1.40149e-06
0.0456835
-0.00126335
-1.97993e-05
1.84176e-06
-0.000337285
4.68363e-07
3.34264e-06
3.53386e-06
0.018502
-3.20263e-08
0.0591127
1.42901e-07
1.8208e-07
0.0121973
-2.71206e-05
1.36319e-05
-9.13153e-07
1.88368e-07
0.000107904
2.02158e-07
3.09509e-07
1.57719e-05
2.01061e-07
1.42526e-05
2.2791e-07
1.03086e-05
0.00444216
-5.11194e-06
-0.102258
3.77083e-07
-2.52933e-07
-1.6434e-05
4.72027e-07
2.45605e-07
5.57035e-06
4.04144e-07
3.80345e-08
1.0109e-06
-8.88236e-09
-8.00644e-05
-0.038836
-1.76405e-05
-8.34361e-05
1.25046e-05
5.67784e-07
0.0076056
1.61151e-06
2.61064e-07
0.00157407
0.00697034
-0.00708665
6.13389e-07
0.000556401
-0.000981259
0.000128541
3.17778e-07
9.54543e-06
1.04818e-06
6.33942e-07
3.20751e-05
4.40576e-07
0.00225893
3.72484e-06
-0.00157079
6.36599e-07
2.7264e-07
-0.00360769
-5.63822e-08
-0.000142442
-0.00150125
-0.00393009
9.06087e-06
-0.0021327
-5.13312e-07
2.39054e-07
-6.47903e-06
5.86575e-05
6.75488e-07
3.64703e-05
1.79313e-06
3.9889e-07
-2.04926e-06
-0.0176274
3.35935e-08
-0.000211697
2.22343e-05
-0.00777051
7.16412e-06
7.88554e-07
7.42252e-07
1.06029e-06
0.00206285
0.000349735
3.12089e-07
6.61587e-07
6.52503e-07
5.18394e-06
2.3513e-07
6.52346e-07
1.5178e-07
2.34334e-06
2.64181e-05
8.29617e-07
-1.77287e-06
6.84135e-07
4.05311e-06
4.36172e-05
4.23484e-07
-0.104406
0.00286907
5.4762e-06
5.05731e-07
3.52468e-06
3.38995e-07
1.22509e-07
1.08286e-06
-0.000406599
7.98001e-06
0.00150531
6.64725e-07
0.00122762
3.06235e-07
-4.57137e-07
4.04049e-07
0.00850964
-0.0169971
-4.47146e-07
2.34771e-06
1.23464e-05
0.000408774
4.30908e-07
-0.00283701
9.03192e-05
-0.00891321
-1.28876e-05
-9.9524e-06
6.48267e-06
5.36983e-06
0.000201723
3.45865e-05
-0.00570304
0.0320572
-2.67758e-08
-0.00941298
2.3441e-07
-7.66579e-07
1.26867e-06
1.65285e-08
6.84023e-05
6.89079e-07
1.92785e-06
-0.00146085
1.07917e-05
-0.00844949
3.13034e-07
5.31098e-07
-1.70776e-06
9.2451e-07
-6.68998e-07
-0.0163557
0.000585215
0.00405549
6.03067e-07
1.7821e-06
-3.49053e-06
0.000662213
1.46693e-05
-6.51939e-06
7.42882e-07
4.24137e-07
0.00519987
-1.47827e-07
0.000587208
-0.000257501
0.00265157
4.768e-07
3.29378e-05
-6.44256e-07
2.84739e-06
2.21445e-06
-4.75119e-06
0.00203938
1.63546e-05
0.00022126
4.33302e-07
-2.0699e-06
2.08676e-07
0.00172268
5.75077e-06
5.17279e-05
0.00148041
1.25288e-06
9.05762e-06
-1.627e-07
-9.77581e-08
1.18637e-05
5.68741e-07
-0.0203149
7.21515e-05
-0.0194609
1.05399e-05
1.47946e-07
2.30196e-07
-0.000228772
3.50385e-05
0.00460814
-4.70775e-08
4.17188e-07
2.11982e-07
-4.46863e-05
1.02368e-05
1.79787e-07
0.00787789
-5.81275e-06
0.0607936
2.93768e-05
-0.000551232
3.14884e-07
2.10445e-05
9.56381e-07
7.53149e-07
8.65888e-06
-0.00700095
4.82642e-07
4.25431e-08
0.00252702
-1.21644e-05
4.32117e-07
5.68938e-07
0.0563825
5.49367e-07
-0.000480509
6.24881e-07
-0.00123213
2.57217e-07
3.97077e-06
0.00428891
3.42918e-05
5.38359e-08
0.00335503
0.00149054
0.0418824
1.62514e-06
-0.00083009
0.0018525
4.07228e-07
0.00182
3.67409e-07
3.13618e-07
8.22051e-07
-0.00437093
6.25536e-07
1.96804e-05
7.41013e-08
-4.12969e-06
-0.000863565
-6.36848e-06
0.000157877
-4.72568e-07
-4.53757e-05
2.15531e-07
2.4379e-06
2.72581e-05
0.0102869
2.68694e-07
4.54672e-06
0.00218652
4.95061e-07
4.58461e-07
-1.75969e-05
2.49049e-06
9.86036e-07
8.02617e-06
-0.0814999
-0.0175031
2.60667e-05
5.42199e-06
0.00245589
0.000704068
-0.000113394
-0.00561563
4.38719e-06
-2.50965e-07
9.00225e-06
4.42e-07
6.0634e-07
-0.0386012
1.91143e-05
-2.06327e-07
0.0170647
-2.16814e-05
-0.000255998
0.000915601
0.0010851
5.7799e-07
4.8617e-06
0.00128279
5.75607e-07
4.58814e-08
-2.43685e-05
-5.97167e-05
0.00573407
3.03412e-05
2.3514e-06
2.14031e-05
-5.55698e-07
2.33551e-06
1.09646e-07
4.78271e-07
0.000599855
5.29059e-07
1.13526e-05
1.74347e-07
1.0239e-07
-4.0725e-07
3.09992e-05
7.86498e-06
-0.00163105
1.11489e-06
3.67554e-05
-1.49907e-06
-2.33861e-06
6.24922e-07
5.77834e-07
-0.00402165
-1.25146e-06
0.000301579
0.0164297
0.00785247
7.76491e-06
3.00326e-07
1.82644e-06
1.3542e-07
9.94794e-06
4.49756e-07
-3.42569e-07
1.12494e-06
8.41592e-07
9.16236e-06
1.73704e-07
1.34936e-06
1.16668e-06
1.33284e-06
6.88801e-05
-0.000155079
4.12896e-07
3.12271e-06
-1.6454e-07
1.37373e-05
9.68705e-05
-0.000513958
-0.0264751
2.47037e-06
7.02754e-07
6.69912e-07
0.00497211
6.78873e-07
0.00107029
3.14346e-07
5.76419e-07
7.38439e-07
1.98172e-05
1.70134e-06
7.36236e-07
1.38537e-05
7.28937e-07
4.90259e-06
1.91195e-07
4.67863e-05
2.61307e-06
2.02633e-07
0.00157366
-3.16567e-07
-1.22965e-07
7.33907e-06
0.000106732
3.55815e-07
-2.51521e-06
0.0147741
3.28238e-05
2.6366e-07
9.66599e-08
0.000169488
-1.18677e-07
0.00100125
1.21121e-05
-1.43066e-06
2.93037e-07
0.00018496
2.94275e-07
-1.49576e-06
9.31566e-06
1.01271e-06
7.99668e-06
0.000972193
3.23526e-07
-4.19502e-06
-0.000177452
1.02368e-06
3.93524e-05
5.54001e-06
2.41683e-07
-0.00900003
2.03886e-07
-1.2093e-07
3.91184e-07
9.02686e-06
0.00299294
9.13824e-06
-4.73899e-07
3.46402e-07
2.22484e-06
-0.00154288
1.77853e-05
-1.59935e-06
0.00319075
3.03505e-07
9.63958e-06
2.50116e-05
-0.00181487
-1.12817e-05
0.000133159
5.35047e-07
2.18344e-05
4.62055e-07
-0.000255387
7.32091e-07
2.99174e-07
-0.0233301
-0.00871833
1.76404e-06
-3.19256e-05
-3.56342e-07
7.36363e-07
-3.65135e-06
1.27207e-06
-0.00676991
4.59217e-06
-5.23717e-06
2.30047e-06
1.74133e-05
-0.0359467
1.32032e-05
-5.68505e-08
3.48949e-07
3.84535e-09
1.0349e-05
0.00664566
0.00131511
0.000483438
-1.3081e-07
-0.000947255
0.00374067
6.21535e-07
1.42076e-06
4.94059e-07
3.133e-06
4.73358e-06
0.000279833
0.00215384
1.64728e-05
8.27718e-08
-0.0137099
-0.000418824
3.10848e-07
0.00212778
-0.0657425
0.000684767
6.285e-07
5.57694e-06
-2.09099e-07
-3.26341e-08
1.399e-06
-1.17432e-06
4.86177e-06
-0.000137688
-0.00277679
-0.137623
4.28336e-07
4.38204e-07
-7.40157e-08
6.31324e-07
5.51119e-07
4.48136e-07
4.30607e-06
5.04852e-07
-2.63534e-05
1.40043e-06
-3.82223e-06
3.28914e-05
1.37265e-05
-0.000230674
3.52349e-05
3.13675e-06
1.17604e-07
1.98242e-05
3.22891e-05
2.72433e-05
9.0045e-07
4.17603e-07
3.82255e-07
-1.96998e-06
8.96263e-07
9.3408e-06
0.00301962
3.30715e-07
4.06766e-07
8.21118e-06
0.00191553
-0.000140789
-0.00296354
5.73884e-07
5.10658e-06
1.02897e-06
4.19472e-05
4.77736e-07
-1.07728e-05
5.53079e-07
3.09542e-07
-1.17967e-06
6.53338e-07
1.14711e-05
2.30855e-06
3.17101e-06
-0.00459026
-2.2682e-05
1.02731e-06
1.64201e-06
5.39295e-07
3.42513e-05
0.00183753
-2.57575e-07
6.82345e-07
0.0022085
-8.35604e-08
0.000574129
-5.10627e-08
-2.13676e-06
-6.14843e-06
1.53322e-05
-5.62707e-08
2.08477e-06
3.86316e-07
5.32756e-06
-1.45168e-05
4.24927e-07
-0.000237862
0.017316
-0.00286836
-0.015671
-3.85195e-07
-0.000214093
1.25314e-06
-0.000220048
3.04526e-07
0.00337276
0.00452066
0.00290258
0.00985342
-0.000210361
-4.27613e-05
0.00308275
2.06028e-08
-0.000370754
0.00108977
-3.45977e-05
-0.0029266
-1.32361e-06
0.00740679
0.0100646
5.38666e-07
-1.14834e-07
3.87647e-07
0.000396091
-1.07207e-06
5.15792e-06
7.07817e-07
5.08611e-07
2.38465e-07
8.7941e-08
-0.000311736
1.22043e-05
8.17468e-07
0.00477462
9.68452e-06
-1.90496e-05
2.70186e-07
4.75932e-07
4.85154e-05
-5.36545e-06
1.57701e-05
-1.35658e-06
1.21942e-06
-0.0156326
-6.32714e-06
2.96226e-06
0.000484502
4.8298e-07
-1.27688e-05
2.08493e-06
-1.57665e-06
2.8357e-07
5.74396e-07
4.97555e-06
-0.000378272
0.00253669
0.000294221
-2.90402e-06
-0.0293432
3.44327e-06
4.28705e-07
3.37829e-07
-0.00390384
0.00864221
-0.0114654
0.00256376
4.51437e-07
1.88192e-07
5.53417e-07
3.31263e-07
4.67602e-07
0.00627559
4.66912e-07
0.000203863
3.64725e-08
-0.000674869
0.00120839
-1.25827e-05
0.00057651
1.40655e-06
0.00406874
2.7194e-06
0.0183683
0.000372313
2.45235e-07
0.00143418
1.6194e-06
-0.000391014
0.00536961
9.5184e-07
0.00783109
0.00260031
9.98719e-07
-2.10509e-06
1.20737e-06
0.00781095
-0.000559823
2.535e-07
4.63499e-07
0.00450084
-0.027915
1.24493e-05
0.00501479
8.59396e-06
6.92134e-05
7.60114e-08
0.0177029
0.000131476
-2.0988e-05
2.25268e-06
-0.000150597
0.0138323
1.5226e-08
2.63759e-07
4.02511e-07
-2.69739e-05
1.76353e-05
2.89975e-07
0.000130783
3.1142e-07
4.94238e-07
1.50272e-07
-0.0732601
-8.91609e-06
1.96931e-05
0.00230897
-2.4213e-07
-3.92818e-07
5.05218e-07
-0.0118527
1.79531e-07
-0.0369452
9.49126e-07
0.00467889
4.18549e-07
4.55935e-07
1.40074e-05
0.00708404
0.00243836
1.20537e-06
0.0153844
3.16056e-07
1.18228e-07
2.64163e-07
6.06339e-07
4.57338e-06
4.2335e-06
-2.44129e-06
-4.36068e-06
8.06754e-07
1.95035e-05
0.00137878
-0.115854
-6.99333e-07
0.00028516
0.000227443
1.08961e-06
0.00106479
4.80934e-06
-0.00245231
5.35568e-08
-3.57141e-06
-4.20989e-08
0.0252973
-0.000165633
0.00106098
9.28389e-06
-3.77079e-07
4.03174e-06
-5.69558e-08
5.80773e-05
2.50588e-07
4.55482e-07
0.00690242
-0.000104238
0.00527506
2.08252e-05
4.73202e-06
9.33618e-07
3.8103e-07
0.00741911
-6.14626e-07
1.20948e-06
1.0305e-05
1.1201e-05
3.09093e-06
1.96439e-07
-0.000589026
5.34621e-07
0.000300753
0.0010902
-6.86979e-07
-5.93503e-05
-5.87688e-06
4.58091e-05
8.51904e-07
-0.000991328
0.041541
2.81874e-07
2.23116e-07
-5.40522e-07
3.90929e-07
1.5449e-06
5.90177e-07
0.0016482
5.33958e-06
0.00136552
2.19552e-05
9.72886e-07
7.01647e-08
4.03098e-07
3.00146e-05
1.08449e-07
7.00682e-07
7.68563e-06
7.47915e-07
0.0201481
1.47031e-05
6.16906e-06
8.35385e-07
1.117e-06
-4.76534e-07
2.7434e-07
0.00137949
6.76399e-07
8.34821e-07
-0.00312374
3.20215e-06
1.34781e-05
-4.72483e-07
0.00432987
0.000329349
3.69004e-07
0.00138093
-1.79809e-05
2.92369e-07
6.82961e-07
3.34436e-07
2.64579e-05
0.00457423
0.00572995
7.35651e-07
6.7912e-08
-3.34602e-06
4.46126e-07
9.64324e-06
4.65306e-07
0.000758125
0.00299565
-8.90863e-06
2.37224e-07
7.82495e-07
6.49074e-07
0.00833309
-3.63897e-07
0.00453439
-0.00774942
0.0062402
-0.00362679
-0.0717074
0.000284427
9.82709e-07
0.00689607
0.00130375
3.63273e-07
3.64269e-07
4.15976e-07
6.59167e-06
0.00178049
0.00808657
4.85922e-07
-4.7648e-06
3.49376e-08
3.59254e-05
-6.43854e-07
-6.5791e-07
3.39752e-07
2.63438e-07
0.0066458
4.13853e-07
0.00539036
0.0118656
0.0047393
-7.6793e-07
4.11822e-06
0.00502611
-2.64976e-05
1.76087e-07
0.0055737
4.20035e-07
-3.16691e-08
2.78975e-07
-0.000357823
-6.05855e-07
-0.00236655
-4.81547e-07
-0.00452358
-2.21905e-06
-0.00419451
0.00383838
0.00722753
2.75511e-07
5.22413e-06
-1.9372e-05
0.00645149
-7.45162e-07
-2.00536e-07
-3.76916e-09
-0.00940871
9.38725e-07
0.00198105
0.000430466
2.88977e-06
-2.60702e-06
-6.68885e-07
-0.000144934
2.77911e-07
1.25157e-05
1.6414e-07
0.00431382
2.27366e-06
2.13441e-07
-0.000643186
0.00600794
-4.72256e-08
4.77537e-06
-9.16599e-07
0.00525803
0.000668057
0.0231647
-0.00407067
1.13788e-07
5.70677e-06
-0.000335624
-1.67447e-06
-0.000290753
-3.51867e-06
5.5987e-06
2.32834e-06
-0.00883272
-3.16325e-05
1.64164e-07
0.000335059
9.13688e-08
2.74198e-06
2.68145e-05
0.00328474
-1.24534e-06
2.46495e-05
9.8689e-05
4.65117e-07
-0.00250818
9.52237e-06
2.13997e-06
3.90026e-07
-0.00359521
-3.43909e-08
-0.0149894
-0.00339001
8.38939e-07
3.2611e-07
-1.54292e-06
8.70312e-05
2.91146e-06
0.00171358
2.31097e-07
-7.76231e-08
0.0001112
-0.00104885
1.37193e-06
-1.73355e-05
0.0105762
-0.0018486
3.12284e-07
-0.000811636
0.0012276
0.00922671
3.07193e-07
9.42729e-06
6.77617e-07
5.56147e-07
5.97794e-06
-0.000267071
-0.00104651
-2.70109e-08
3.5082e-08
2.97195e-07
0.00850446
8.5709e-06
0.00785396
0.00422705
5.15154e-07
-0.00173158
-1.47085e-05
8.93994e-06
0.00152472
4.59454e-05
-2.8199e-06
-0.0116517
5.93704e-07
1.24686e-06
3.12893e-05
2.86356e-06
3.60008e-05
0.0165428
1.0335e-06
2.28282e-07
0.068708
3.71243e-06
-4.38034e-06
-0.000309825
2.71708e-07
5.56438e-08
5.19739e-07
7.85574e-06
0.00606646
3.86215e-07
3.8047e-06
0.00128635
2.74553e-07
7.9028e-08
-2.29592e-05
-0.0384325
-5.66838e-07
3.17523e-07
3.84755e-07
-1.3443e-07
0.00066962
3.92657e-07
-3.97024e-08
-1.34047e-06
-0.0106578
-0.0459808
0.00572855
-0.0216129
1.23248e-07
-1.36906e-06
-3.0326e-05
-1.12294e-05
-2.30921e-06
9.56488e-05
3.3899e-07
2.31873e-06
2.04755e-06
6.07724e-05
-7.85838e-06
-1.53495e-07
-0.00638839
-1.2678e-06
2.24354e-07
-1.24019e-06
0.00202113
0.0268295
-2.09625e-05
2.85969e-07
7.27129e-07
-7.98483e-06
-0.000272767
8.13795e-07
-6.4321e-07
3.2213e-07
0.000255594
6.42174e-08
-2.42772e-07
7.70791e-07
2.34428e-07
-3.63702e-05
0.000885404
-2.33551e-08
-9.33625e-07
6.52789e-07
3.54128e-07
-0.0209857
0.00315881
4.6549e-06
0.00193522
7.35741e-06
8.39608e-08
3.5333e-07
1.76317e-07
6.42036e-07
1.02956e-07
1.21446e-06
-1.95513e-05
-4.77503e-05
-1.85232e-06
1.07643e-05
-2.52213e-05
-0.00391708
6.83718e-07
4.68726e-07
7.06311e-07
0.0619506
6.03718e-07
-6.55076e-05
1.73848e-05
-4.66507e-06
5.8497e-06
-0.000562323
3.97446e-07
0.00214901
3.21472e-08
4.8724e-07
1.07952e-06
7.09636e-07
0.00077825
1.34716e-05
-6.12111e-05
1.50721e-06
0.0460485
-2.74075e-06
-0.000118754
2.28979e-06
3.69832e-06
-0.000737824
1.31498e-05
0.034022
-1.8921e-05
8.10191e-06
-0.000541581
3.69753e-07
-1.30299e-06
0.0358089
5.02511e-07
-5.00897e-07
0.0352615
0.00237992
0.0181901
-0.0222566
7.57466e-08
3.29218e-05
1.01253e-07
0.000470645
-4.46988e-07
0.0027839
0.00935413
3.28146e-05
0.0131521
1.18264e-07
-1.44865e-07
4.94266e-06
0.0163852
-1.01487e-05
7.30155e-06
2.58743e-05
3.93689e-07
1.6282e-05
0.000576217
-0.00135969
-9.28407e-07
9.132e-08
-2.4661e-07
-2.61114e-07
9.64099e-07
8.80723e-07
-6.15488e-07
-1.87788e-05
5.32994e-06
0.000192248
2.29706e-05
0.000467611
8.49771e-06
3.09285e-07
-6.19974e-08
-2.69073e-06
6.02709e-08
3.89721e-07
0.00430429
0.00788384
0.000601933
-7.08537e-06
6.41047e-07
0.00362754
3.24966e-05
-6.06535e-06
0.000352712
3.6163e-07
6.51074e-07
-0.00188634
1.40808e-07
-5.68439e-08
0.0008038
-3.0091e-05
2.28388e-05
1.83801e-07
9.41317e-08
2.25991e-06
1.16917e-06
0.00201349
4.41027e-07
5.92937e-07
1.2786e-05
-5.8337e-07
-0.00528951
1.16846e-06
0.0356525
1.27508e-07
1.60074e-05
0.0152446
1.02812e-06
-9.03496e-06
8.74768e-06
0.000366762
5.56324e-07
-1.29339e-06
4.50349e-08
1.84854e-07
-0.0918131
3.44459e-07
-4.13888e-05
-1.18652e-06
-8.1512e-08
3.31484e-07
-1.78823e-05
3.14346e-06
9.26085e-06
0.00583953
3.88247e-07
5.96384e-06
-0.00975413
-2.89479e-06
-9.29688e-07
1.41259e-06
1.79303e-07
-3.0674e-06
-5.49223e-07
4.39344e-07
1.71481e-05
5.36861e-06
-1.53528e-06
-0.0449627
9.35621e-06
0.00109083
4.96952e-06
6.02858e-06
2.36266e-05
4.0399e-07
6.07697e-07
-6.64054e-08
2.4575e-07
4.98921e-05
-7.98296e-06
6.71066e-08
-0.00117677
1.86251e-05
1.98767e-06
-1.88105e-06
8.57551e-07
0.00823604
-1.31303e-05
-6.59414e-06
0.000486834
2.69322e-05
-7.96771e-08
1.19873e-05
1.29733e-05
0.00413631
1.67161e-05
2.65146e-07
8.87765e-06
-0.00540175
-2.18522e-07
0.0119879
3.62201e-07
-0.000356072
-0.00309888
0.000104528
5.39526e-06
8.00012e-07
-0.000710586
9.71273e-06
9.96605e-05
-1.9808e-05
-3.36853e-05
8.22619e-06
0.00033034
6.81654e-08
1.03826e-05
3.36646e-06
0.00022125
0.00322766
0.000410729
5.24832e-08
1.17267e-05
-2.68774e-05
2.88406e-07
-1.7401e-05
2.89349e-07
8.91222e-06
-4.32286e-05
2.97537e-07
0.00272823
0.0722062
-1.37835e-05
0.00540694
0.000399008
0.00212017
3.93483e-08
7.28825e-06
-1.29371e-06
-9.67599e-07
2.62962e-06
1.59288e-07
0.000275649
5.88325e-07
5.00055e-07
-2.35863e-07
6.80522e-07
0.00873793
-5.17448e-07
8.39856e-06
-0.00622178
2.46985e-07
0.000597815
1.18497e-05
-2.77477e-06
-0.00452757
1.14798e-05
3.47185e-07
0.000149783
-3.11184e-08
-5.20332e-06
-1.70789e-05
-1.93712e-07
8.07727e-06
-5.70632e-07
-1.89607e-05
0.000119342
5.05259e-06
-0.00385402
-2.57444e-07
2.92089e-07
0.0480887
8.44414e-07
5.55552e-07
2.10706e-05
3.09824e-06
4.56734e-07
1.61676e-07
2.77136e-05
-5.18815e-07
-0.000101834
1.15951e-05
0.00259395
-0.00465169
4.10313e-06
-3.55654e-06
-7.83497e-09
1.22998e-05
-2.52995e-05
0.00984546
3.05073e-07
1.73856e-07
6.34487e-06
-4.89461e-08
-0.00109581
6.10505e-07
0.000438645
-4.80383e-07
-0.0105347
-3.41339e-07
0.00243971
1.57411e-05
7.90792e-06
0.000534229
0.0184673
-5.28964e-06
5.8516e-05
-1.37939e-08
2.0428e-05
2.41454e-05
0.000181361
4.98967e-07
9.30424e-05
-0.000198307
0.0134285
7.91575e-06
4.72569e-05
-0.00630079
-3.71302e-06
3.73382e-06
6.38107e-06
2.71958e-07
3.33614e-06
3.53864e-06
2.95791e-07
5.23892e-06
0.0029218
0.00210322
0.00853614
2.33863e-05
4.14923e-07
5.84709e-08
4.59855e-05
2.83177e-07
0.00117583
4.48363e-07
5.38894e-08
1.52208e-05
1.29329e-05
-2.50421e-06
1.09986e-05
1.19609e-07
-2.66965e-05
-0.00242223
0.000247256
-0.00161203
1.24949e-06
0.000201061
3.13184e-06
2.43711e-07
5.51748e-07
2.90802e-05
1.83109e-05
1.52079e-05
1.22238e-05
1.23658e-07
-5.67956e-09
2.77547e-07
3.85654e-07
1.6895e-06
0.00897217
2.42898e-05
6.39755e-07
-2.81639e-06
-0.000169002
0.000639842
-0.0589576
2.22158e-07
2.02424e-06
-9.91273e-07
2.79471e-07
0.000215565
1.40803e-06
5.17832e-07
-0.00653089
0.000258914
4.65129e-07
3.11911e-06
1.10921e-06
-8.47519e-06
0.0106782
-0.0122918
1.24113e-05
7.52645e-07
6.03523e-06
-1.7708e-05
5.6933e-06
7.90377e-06
7.29356e-05
0.0053358
-5.64575e-07
7.1728e-06
4.04702e-07
-0.000222763
5.09435e-08
1.07861e-06
2.4549e-07
-1.85903e-07
1.43132e-06
-0.000515255
0.000430599
0.0117471
-4.76454e-07
-4.80166e-08
4.3392e-07
8.81475e-08
1.39288e-06
2.93042e-06
-3.20697e-06
2.97557e-05
5.68594e-06
0.00843795
3.2413e-07
-2.40148e-06
2.305e-07
-1.22532e-05
0.000318776
6.08339e-07
-7.34078e-06
9.76754e-06
0.0155379
0.000463769
2.89878e-05
0.0101559
-9.66864e-07
0.0109092
1.06654e-05
9.46086e-06
0.000971846
2.65263e-06
-2.96589e-06
1.30146e-07
2.68827e-05
-0.000659019
1.44396e-06
-0.0502281
7.48041e-06
-0.028608
-4.04921e-06
-0.0295121
-2.58689e-06
5.54687e-07
8.20438e-06
-4.99416e-06
5.46694e-07
-3.34856e-06
1.46148e-06
1.09422e-06
-0.00741026
9.07614e-06
-6.28472e-07
1.86348e-07
2.37387e-06
-1.24716e-06
-2.70706e-06
-0.109015
1.48305e-05
-0.00344682
-0.0244952
1.93407e-07
0.000317388
3.25137e-07
4.16498e-07
-7.70448e-07
0.000276401
1.88705e-06
0.000274947
0.00517573
-3.66497e-06
6.58109e-06
7.82702e-06
-0.00411702
9.38176e-06
0.000410779
2.0427e-06
3.74531e-06
5.59464e-07
0.000362981
0.00504723
2.34586e-06
-6.30181e-07
1.81931e-06
1.53133e-06
-8.89371e-07
3.9787e-06
3.05233e-06
3.31471e-08
-2.40505e-07
-0.00415142
0.00996435
0.0255571
2.78519e-06
3.89567e-08
-0.0547029
2.29947e-06
4.68317e-06
-0.0112559
3.42989e-06
0.0176016
-4.21925e-08
4.65941e-07
6.62884e-07
-1.24823e-06
4.33965e-07