/*--------------------------------*- C++ -*----------------------------------*\
| =========                 |                                                 |
| \\      /  F ield         | OpenFOAM: The Open Source CFD Toolbox           |
|  \\    /   O peration     | Version:  v2012                                 |
|   \\  /    A nd           | Website:  www.openfoam.com                      |
|    \\/     M anipulation  |                                                 |
\*---------------------------------------------------------------------------*/
FoamFile
{
    version     2.0;
    format      ascii;
    class       surfaceScalarField;
    location    "950";
    object      phi;
}
// * * * * * * * * * * * * * * * * * * * * * * * * * * * * * * * * * * * * * //

dimensions      [0 3 -1 0 0 0 0];
oriented        oriented;


internalField   nonuniform List<scalar> 
20537
(
-0.360649
0.500095
-0.13956
-0.0418975
-0.194638
0.236555
-0.176967
0.176238
0.000702868
0.000431939
-0.308204
0.307667
-0.149944
0.14799
0.00191489
0.174126
-0.416543
0.24239
0.200746
0.196608
-0.397443
0.228205
-0.0661866
-0.162068
-0.44945
-0.104771
0.554005
-0.0647193
0.213776
-0.149077
0.476978
-0.16391
-0.31308
0.0423379
-0.117953
0.0756239
0.0741172
0.0243053
-0.0984347
-0.0642807
-0.00176179
0.0660382
0.672789
-0.541352
-0.13188
0.294921
-0.279733
-0.0152566
-0.0658381
0.285709
-0.21999
0.448846
-0.249452
-0.199456
-0.135739
0.123085
0.0126407
0.0928024
-0.542481
0.351238
-0.35097
-0.0549651
-0.122033
-0.365627
0.587824
-0.222302
-0.69262
0.0997493
0.592522
-0.552098
0.186366
0.22262
0.0055336
-0.0941835
-0.170426
0.264514
-0.0109943
-0.00356253
0.0218431
-0.382612
0.246916
-0.358874
0.111842
0.432732
-0.258629
0.217783
-0.283739
0.00343388
0.172775
0.401679
-0.453355
0.0516757
-0.60289
-0.0900907
0.104495
-0.115733
0.011224
-0.00464981
0.0820319
-0.0773915
0.19435
-0.137712
-0.0566419
0.10481
-0.169545
0.0357329
0.365946
0.0607239
0.326197
-0.387146
0.490419
-0.666442
0.175986
0.00152083
-0.00609445
0.00457687
0.250848
-0.453333
0.202479
0.469667
-0.218823
0.0125427
-0.000688065
-0.0118476
-0.504806
0.219435
0.285371
0.164529
-0.522323
0.357805
0.162351
-0.256621
0.26219
0.29285
-0.555084
0.157648
-0.0266108
-0.131081
0.128783
-0.0584873
-0.0703243
0.00895387
-0.0263487
0.0173942
-0.73037
0.372971
0.356956
0.652517
-0.531764
-0.121434
0.665436
-0.175053
0.655167
-0.298052
-0.357325
-0.0157792
-0.00479525
0.0205727
-0.170776
0.41756
0.275612
0.101637
-0.377406
0.0276054
0.166742
0.0819202
-0.0499937
-0.0319195
-0.395766
0.30444
0.0912922
-0.127737
0.129162
-0.00145363
-0.167235
0.381097
-0.213865
-0.439947
0.155673
0.284202
0.0610543
-0.0657062
-0.564288
0.245352
-0.210331
0.202451
0.0077992
0.204366
0.24441
0.0443367
-0.053584
0.00924705
0.0810223
-0.0745819
-0.00644488
0.190174
-0.232051
-0.292301
-0.438568
0.284277
-0.583205
0.298329
-0.533802
0.428861
0.104802
-0.126005
0.0710139
-0.0560298
0.00393351
0.0520973
0.0134892
-0.175599
0.162055
0.0540419
-0.00559777
-0.179343
0.430548
-0.251375
0.505658
-0.0431888
-0.46247
-0.423712
-0.0608376
0.484228
-0.00347064
-0.0194431
0.022923
-0.330935
-0.0648652
0.0847178
-0.0423716
0.489987
-0.23177
-0.258253
-0.0619579
0.239501
-0.177535
-0.246013
0.318326
-0.0724337
-0.372606
-0.239776
0.612275
0.0217332
0.0827456
-0.0760643
-0.311366
0.387377
-0.22398
-0.0752218
0.23813
-0.162993
-0.0116359
-0.234507
0.56544
-0.553007
-0.012644
0.0126895
-0.162671
0.0186449
0.0423762
-0.0610208
-0.240774
0.502922
-0.0241176
0.589309
0.0135976
-0.0384487
0.0248455
0.15938
-0.168338
0.00890102
0.0902679
-0.386731
0.296322
0.26451
-0.0205774
-0.458869
-0.0998418
0.558691
-0.538668
0.363765
0.17487
-0.165692
0.172285
-0.00664047
0.525382
-0.685218
0.159808
0.0690977
0.00814796
-0.201009
-0.215558
-0.542789
-0.0189965
0.56154
0.264464
-0.637181
0.310801
-0.386921
-0.651836
0.651509
-0.0734605
-0.469593
0.458088
-0.201462
-0.062011
0.0806563
0.0732633
-0.474338
0.401039
-0.573154
0.573403
-0.000746552
-0.194012
0.560141
-0.366723
-0.00158779
0.00311017
0.229848
0.0345815
0.0922071
-0.0180987
0.293039
0.497827
-0.333298
-0.790448
0.351356
0.439045
0.184512
0.313317
0.16169
-0.179163
0.017426
0.0498938
0.301209
0.155013
-0.0620031
-0.0930258
0.429374
-0.368913
0.558177
-0.169909
-0.3886
0.0559311
-0.0115918
-0.549545
0.125496
0.269142
-0.57295
0.604438
-0.0318986
0.558107
-0.48489
-0.0683503
0.0813826
-0.0130371
0.0803661
-0.0696908
-0.0106704
-0.018362
-0.0410184
0.0593829
-0.0170621
0.0306589
0.372409
0.279369
0.177723
-0.571216
0.393393
0.720399
-0.38539
-0.335052
0.417861
-0.0988243
-0.319152
-0.176988
-0.276351
-0.465666
0.622847
-0.157191
0.0198391
0.135155
-0.261943
0.462525
0.184416
0.285246
-0.00122679
0.11971
-0.418781
0.612844
-0.19469
0.0026153
-0.0669027
0.311704
0.343281
0.359197
-0.21323
-0.146078
0.294532
0.123199
-0.498024
0.200132
0.297673
0.222476
0.144164
-0.366758
0.00421937
0.124537
0.0125014
0.145099
-0.357906
-0.244996
0.602896
-0.0658399
0.214382
-0.148606
0.00806299
-0.0238423
0.171176
0.386701
0.264317
-0.386558
0.122133
0.642904
-0.230326
-0.412626
-0.691549
0.225878
-0.00459866
-0.205805
-0.30401
0.353776
0.0579661
0.00629208
-0.0642508
1.53447e-06
-0.0560301
0.244948
-0.547822
0.302677
-0.186515
-0.311721
0.0417317
-0.0600879
0.567466
-0.396603
-0.206827
-0.315488
0.171671
-0.010037
0.54627
-0.511463
-0.0348816
-0.0391964
-0.0965544
-0.520576
0.670357
-0.149805
-0.273697
0.072738
0.20086
0.0126681
-0.137372
-0.353894
0.490972
0.0330818
-0.155135
-0.365487
-0.236316
0.601797
-0.450017
0.617374
-0.167513
-0.180181
-0.259837
0.351871
-0.546495
-0.152178
0.160654
-0.00850351
0.284141
-0.0485462
-0.235615
-0.259455
0.0277542
-0.0187971
0.279012
-0.545689
0.266584
0.173005
-0.207456
0.0343753
0.0408165
0.0411133
0.396342
-0.185707
-0.210752
0.547164
-0.36954
-0.163044
0.395696
-0.232656
0.458701
0.0874762
-0.423628
-0.110313
-0.310795
-0.479701
0.00279672
0.0099885
-0.0127781
-0.577527
0.0826459
0.494331
-0.541226
0.156507
0.384403
-0.065593
0.239704
-0.17413
-0.490473
0.352806
-0.0518111
-0.0535766
0.105399
0.130554
0.153248
-0.28392
0.062498
-0.00680849
-0.0556947
0.131423
0.442675
-0.574111
-0.0148966
-0.0497638
0.0646571
-0.341644
0.431753
-0.45186
0.169083
0.282783
0.45279
-0.638591
0.18578
-0.721431
0.432036
0.289351
0.54498
-0.190794
-0.354204
-0.138637
0.401055
-0.262466
0.0185916
-0.00604208
-0.111987
-0.405029
0.516664
0.0633865
-0.000889561
0.257212
-0.126754
0.183911
-0.36341
0.00206253
0.05663
-0.0587015
-0.0473291
0.12837
-0.0810662
0.00438445
0.0516773
-0.0560621
-0.601889
0.582675
0.0190653
-0.0315131
-0.195668
0.227096
-0.528065
0.0691709
0.00671207
-0.0205611
0.0138494
0.676396
-0.223619
0.202274
0.020293
0.359792
-0.352159
-0.00763154
-0.282973
0.527726
0.543385
-0.147487
0.131858
0.0155815
-0.0660931
-0.265011
0.331069
0.0475498
-0.0993536
0.139967
-0.307203
0.280227
0.440127
-0.448041
-0.0934647
0.237742
0.194968
0.332139
-0.420192
0.0880363
0.572371
0.0648149
-0.637188
-0.212964
0.147355
0.458701
-0.558566
0.0497341
0.0041784
-0.053913
0.187553
-0.0282208
0.451782
-0.404064
-0.0477102
-0.400992
0.283628
0.117242
-0.242847
-0.107418
0.350158
0.668615
-0.41652
-0.252159
0.428417
-0.0962828
-0.233449
-0.118293
0.351604
-0.10657
-0.0208436
-0.117671
0.138453
0.384817
-0.136006
-0.248812
0.254432
0.0296921
0.00624476
0.0751339
0.0162253
-0.029807
0.0135739
-0.192067
-0.34204
0.533858
-0.441246
-0.451995
0.347195
0.104727
0.223742
0.0383383
-0.262077
-0.638518
0.210879
0.427577
-0.112887
0.113725
-0.000843438
0.178
0.218238
-0.364553
0.130959
-0.201404
0.126102
0.0604856
-0.058433
0.416522
0.157543
-0.574099
0.276933
0.391617
0.173368
0.329325
-0.0183386
-0.310991
0.177173
-0.163741
0.245707
0.0491429
-0.53738
0.367156
0.572753
-0.0670972
0.59589
-0.154764
-0.441151
0.00203252
0.0514717
-0.0535051
0.0893431
0.387624
0.0177741
0.5546
0.0832066
-0.561987
0.478763
-0.504915
0.601921
-0.0970207
-0.138997
0.118102
-0.12131
0.345058
0.448246
-0.263537
-0.184692
0.0460088
0.44885
-0.495052
-0.37968
0.495375
-0.115948
-0.0252326
0.354553
-0.617376
0.293612
0.323768
0.127728
-0.107904
0.165362
-0.336248
-0.10921
0.384672
-0.204542
0.212982
-0.00851036
-0.36178
-0.255593
-0.0121509
-0.100744
0.0526589
0.19125
-0.243975
0.0531405
0.0315852
0.42911
-0.572711
0.143327
0.0568335
-0.00709968
0.110964
-0.17688
0.0964789
0.189117
-0.0147938
-0.0446032
0.059398
-0.124719
0.359692
-0.23514
-0.306935
-0.231768
-0.0609561
0.0517681
0.00918063
0.487412
-0.441624
-0.00609045
-0.143082
0.149116
0.22861
0.00942282
-0.212479
0.377733
0.0783629
0.00200679
0.217811
-0.16521
0.391615
-0.356201
-0.0355513
0.0647353
-0.0735894
0.00884726
0.653797
-0.259032
-0.394806
0.0368169
-0.279745
0.756806
-0.381899
-0.37495
-0.0611546
0.0631894
0.11467
-0.0158154
-0.0988733
-0.506421
0.394106
-0.176855
0.034936
0.141864
-0.256967
0.486376
-0.229729
0.0560953
-0.0398715
0.0458649
0.428421
-0.474348
-0.456928
0.647094
-0.190291
0.609788
-0.260355
-0.349576
0.112204
0.00243959
0.201173
-0.232775
-0.314103
0.0628192
0.251179
0.10916
-0.364347
0.239447
0.319939
0.0715222
0.331335
-0.495256
0.0552502
-0.00700558
-0.0581459
0.00393414
0.0542204
0.0829256
-0.384114
0.301134
0.0555525
-0.0703447
0.0493832
-0.139924
0.0905463
0.380095
-0.0304338
0.203371
0.128711
-0.00099423
0.534991
-0.328953
-0.206083
0.0523088
0.233064
-0.285403
-0.00843583
0.107379
-0.0989693
0.110926
-0.254659
0.516185
-0.261602
0.170279
0.126048
-0.296311
-0.00529727
-0.0530023
0.0582976
0.0403633
-0.582146
0.6539
-0.0449172
-0.60901
0.13618
0.517691
0.187316
-0.0411448
-0.146167
-0.0988246
-0.215387
-0.221937
0.274229
0.0205406
-0.0138287
-0.494803
0.308082
-0.154955
0.325248
0.368382
0.24126
-0.497728
0.240434
-0.113783
0.572464
-0.0561389
0.581496
-0.194906
0.555123
-0.360471
0.0546984
-0.0599987
0.744814
-0.391126
-0.353694
0.304137
-0.442103
0.137743
0.173996
-0.180145
-0.656435
0.359838
0.296555
0.0856262
-0.0324786
-0.312634
0.21942
0.093165
0.302574
-0.392574
0.0620452
-0.00407155
-0.130643
0.434567
-0.248635
0.109983
-0.0470614
-0.182283
0.229258
-0.222718
0.525309
0.102115
-0.451355
0.348966
0.159563
-0.633938
0.165141
0.238528
-0.403723
-0.0252517
-0.0163585
0.041605
0.635472
0.0889929
-0.0106247
0.22357
-0.0965242
0.0880617
-0.0471381
0.0534388
-0.609798
0.118641
0.491137
-0.12091
-0.488909
0.00219117
-0.360039
0.35779
0.63382
-0.161227
-0.472886
0.511838
-0.526645
0.0143923
0.388518
-0.305652
-0.0741911
-0.102707
0.0607711
-0.0625355
-0.243273
0.212997
0.0301993
-0.0595529
0.063934
0.0613943
-0.00843928
-0.0529609
-0.398853
-0.257614
0.227558
-0.419822
0.00390783
0.0145936
-0.0554535
0.0408604
0.0615749
0.298217
-0.0698578
0.00784323
0.428568
-0.263478
-0.217852
0.170704
0.502235
-0.536362
0.0339273
-0.105607
0.154996
-0.433604
0.519638
-0.0862201
-0.0889223
-0.190863
0.382511
-0.380386
-0.445511
0.334347
0.111003
0.0537564
0.105866
0.381344
0.319467
0.323401
-0.121324
-0.00644119
0.259353
0.073175
-0.332557
-0.0333751
-0.0202555
0.0536307
0.349627
0.0159157
-0.365618
-0.130807
-0.406324
0.00114239
0.40514
0.309653
0.118758
-0.337545
0.111981
0.225461
0.176593
0.0107254
0.289745
-0.19337
0.144949
0.400013
0.123343
0.43472
0.501089
-0.395434
0.0939759
-0.544151
0.158003
-0.153493
-0.00451056
0.176855
-0.436334
0.259473
0.110296
-0.119085
0.00876082
-0.0321089
-0.374253
0.0227197
-0.19084
-0.262518
0.183018
0.140683
-0.0623196
-0.0852011
0.448204
-0.346365
0.397726
-0.0880939
0.66252
-0.501545
-0.161015
-0.170614
0.00673579
0.163883
-0.257831
0.445182
-0.187373
-0.0161026
0.183859
-0.167784
-0.0497272
-0.00495393
0.0546824
0.600758
-0.14215
-0.628147
0.195364
0.43276
-0.488609
0.230765
0.0526952
-0.0252577
0.307215
-0.672712
-0.214602
0.226069
-0.0115407
-0.00397244
0.55899
-0.142494
-0.48544
0.546197
-0.0609516
-0.405452
0.117612
0.287685
0.122507
0.0361342
-0.0946525
0.0778278
-0.368198
0.290312
0.236098
-0.122298
-0.113793
-0.548374
-0.0536693
-0.560883
0.300394
0.0102874
-0.018488
0.00820487
-0.0968564
0.361092
-0.458725
0.541923
0.140475
-0.202424
0.460002
0.173538
0.191792
-0.164358
-0.372953
0.5371
0.144747
0.184734
-0.329529
-0.140616
-0.23359
0.37409
-0.430579
0.458501
0.142166
-0.00596035
0.0706863
0.370897
-0.432011
0.199764
-0.185099
-0.014728
-0.0829813
-0.490371
0.244154
-0.384092
0.139888
-0.610031
0.171242
0.43877
0.562114
-0.562458
0.51827
-0.168773
-0.349689
-0.552413
0.134199
0.51701
-0.110595
0.421775
-0.311176
0.247552
0.120096
-0.367813
0.250433
-0.482234
0.122897
-0.477081
-0.167656
0.669698
0.042833
-0.0424088
-0.000425593
0.00268026
-0.0524053
0.148129
0.313025
-0.461397
0.409678
-0.165577
-0.274871
-0.0627689
-0.22493
-0.195277
-0.0190393
0.0155755
-0.372404
-0.188593
0.354009
0.390798
-0.0905244
-0.361089
-0.155873
0.0200529
0.135791
-0.326073
-0.0711963
0.397113
-0.016432
-0.0012359
0.0176687
-0.134256
0.547749
-0.413531
-0.0274762
0.00112767
-0.285591
0.245719
0.0398586
-0.214626
-0.451852
0.207082
0.202542
0.071502
-0.0236115
-0.0478854
0.213017
-0.0107826
-0.443788
0.44208
0.001706
-0.516866
-0.0567627
0.296145
-0.598618
0.302488
-0.56956
0.0370867
-0.175347
0.579991
-0.404927
-0.581387
0.195981
0.385124
-0.446108
0.332426
0.113545
0.0610093
-0.0464138
-0.152061
0.141208
0.0108084
0.119399
-0.0236339
-0.0957955
0.0902828
-0.074805
-0.0154904
0.0700787
0.324568
-0.68248
-0.107067
0.0102749
0.0967909
0.44315
-0.266307
-0.0733471
-0.200437
-0.00406864
0.218376
-0.434176
0.209223
-0.280539
0.573602
-0.0751016
0.0602013
-0.514053
-0.00868065
0.522213
-0.020666
0.00423501
-0.0197191
0.00128087
0.00152151
-0.168814
-0.159132
0.366174
0.618526
-0.280663
-0.479943
-0.148226
0.312239
0.0725769
0.233295
-0.396332
-0.178746
0.0111786
0.167572
0.358932
-0.136567
-0.15948
-0.0192582
0.068745
-0.00163352
-0.0671206
-0.539951
0.405654
0.115922
-0.139601
0.00514965
-0.0494713
0.044321
0.383804
-0.100286
0.323501
0.17913
-0.503008
-0.345062
0.544962
0.325578
0.13127
-0.457074
0.00213743
-0.154347
0.258622
0.0706929
-0.329356
0.0794928
0.16002
0.0987199
0.137385
-0.435506
0.596941
-0.161746
-0.00315656
0.0134485
0.00062867
-0.053184
0.0525535
0.536935
-0.363681
-0.173281
0.195227
0.247912
0.195095
0.581541
-0.481344
-0.100202
0.396113
0.454003
0.0835704
-0.537575
-0.0959228
-0.0111457
-0.220373
0.00706712
0.112178
-0.109188
-0.0030132
-0.0745966
0.0925117
-0.0179285
0.213251
0.452151
-0.336096
0.414253
-0.0781924
-0.300598
0.576952
-0.27634
-0.208827
0.167682
-0.135094
0.128124
0.00693425
0.0073735
0.0536381
-0.00160929
0.0684376
-0.0668319
0.3386
-0.111663
-0.334002
-0.111221
0.218669
-0.107443
0.000432249
-0.0903259
-0.00486356
0.0951684
-0.107807
-0.135533
0.377241
-0.0728265
-0.576745
0.303305
0.204595
-0.508263
-0.159432
0.697101
-0.483882
0.275484
0.108207
0.184159
0.486175
-0.165983
-0.390248
0.555832
0.0750779
-0.0063387
0.141818
-0.43838
0.406221
0.297058
0.400012
0.0795077
0.00948878
0.241508
0.154184
0.633421
-0.191421
-0.442271
-0.415815
0.565969
-0.150317
-0.0948859
-0.543692
0.551735
-0.033801
0.00854218
0.347442
0.104348
-0.104416
-0.00786853
0.00915587
0.569588
-0.273427
-0.0553922
-0.154101
0.209438
-0.0406762
0.0458271
-0.0478506
0.0410398
0.130785
-0.385508
0.0104399
0.191934
0.0594378
0.522101
0.445969
-0.248838
0.0417624
0.207018
-0.00143414
-0.0727862
0.0742131
-0.171861
0.297917
0.0037261
0.108428
-0.264436
0.0202416
0.244121
0.0904276
-0.482747
0.392096
-0.330196
0.232214
0.0979187
0.143059
-0.530303
0.38715
-0.00736789
-0.436423
0.131588
-0.128987
-0.00263729
-0.36331
0.485899
-0.307834
-0.076336
0.0269235
-0.512565
0.131306
-0.218738
0.0873557
0.115203
-0.00492655
0.409003
-0.307534
0.117673
0.330274
-0.143578
-0.169099
0.0718149
-0.317743
0.245775
0.150097
0.149198
0.00880186
0.0503406
-0.0976904
-0.31917
0.0973702
0.221739
0.00682388
-0.0971699
0.475159
-0.384953
0.0671752
-0.359552
0.292367
-0.37071
-0.00843045
0.000567265
0.148316
-0.490141
-0.63458
0.291701
0.342626
0.00011611
0.0689784
-0.198846
0.426096
-0.227355
-0.000549406
-0.0465802
0.0533564
-0.0549679
0.00161027
-0.00957597
-0.0107496
0.0203305
-0.0861376
0.22662
0.0862379
-0.520019
-0.0744692
-0.470748
0.488519
0.33242
-0.535332
0.202531
0.123961
0.423752
0.37454
-0.540916
-0.619884
0.287316
0.332567
-0.03053
0.380095
-0.226077
0.370772
0.705066
-0.408036
-0.17203
0.0102558
0.161782
-0.0311718
-0.0191617
-0.152863
0.171238
-0.546066
0.374604
0.139035
-0.560936
0.421875
0.630378
-0.145934
-0.484527
0.026574
0.102122
0.0464443
-0.0902586
0.0438233
0.107601
-0.142096
0.0344652
-0.0701751
0.122207
-0.59296
-0.45284
-0.083694
-0.137719
-0.452492
0.589886
-0.242558
0.422191
-0.179776
0.0592786
-0.0747517
0.0154569
0.154764
-0.098652
-0.0561013
-0.244279
0.315942
0.242461
0.462576
-0.139051
-0.307186
-0.471294
0.228517
0.150589
-0.159579
0.00899009
-0.0124433
0.0268322
-0.0143897
-0.0845463
0.0674893
-0.083438
0.0159528
-0.298837
-0.299767
0.459779
-0.34237
0.118214
0.00114808
0.0363305
-0.194178
0.0125547
-0.130501
0.124602
0.305771
-0.247691
0.14162
-0.0340686
0.363036
0.402381
-0.342617
0.296443
0.389713
0.272768
0.128734
0.0486579
0.0526244
-0.0575787
0.163036
-0.550679
0.387516
0.391918
-0.124006
-0.268016
0.29872
0.0784967
-0.569794
0.394172
0.290426
-0.326993
0.301748
-0.0709946
0.0719099
-0.00091141
0.00852283
0.123024
0.109041
0.00467729
-0.356626
0.475249
-0.454452
0.562872
-0.391865
0.00663065
0.0362005
-0.0892208
0.0146091
-0.32718
0.261054
-0.00572438
0.0590804
0.172128
-0.590076
0.417771
-0.00906108
-0.481065
0.489791
-0.416651
0.306102
0.263504
0.0718118
0.00210869
-0.0739259
0.350636
-0.132231
-0.218489
-0.418787
0.109406
0.309246
-0.17218
-0.43787
0.0824995
0.206396
-0.289016
0.412511
0.217798
-0.011979
0.00148572
0.0105009
0.132842
-0.268846
0.0545134
-0.0574331
0.00291268
0.439132
0.0972797
-0.341719
-0.000985916
0.0474178
-0.0464314
-0.02399
-0.00293498
0.0269253
-0.0647235
0.0864454
-0.374797
0.517757
0.0623466
-0.0686572
0.00631011
-0.197065
0.572771
-0.427838
-0.0408468
0.177473
-0.136637
0.169569
-0.185697
-0.152959
0.328051
-0.175186
0.00902014
0.585728
-0.219137
-0.366638
-0.594565
0.361537
0.232954
-0.00815135
0.0901746
-0.149385
-0.48545
-0.5781
-0.366719
0.225985
0.128064
0.346889
0.00653477
-0.018508
-0.216756
0.0662407
0.15045
-0.0989963
-0.340704
-0.0977174
0.437907
-0.592694
-0.390169
-0.28866
0.566433
-0.0620333
-0.504825
0.225625
-0.408265
0.532193
-0.136567
-0.342804
0.479118
-0.614187
0.245494
0.368179
-0.00896958
0.0607301
-0.540212
-0.521537
0.0168882
0.50461
-0.111518
0.408407
-0.296901
-0.437933
0.326117
0.0493651
-0.0503515
-0.54834
0.00356153
0.544726
0.530017
-0.372863
-0.157252
0.0808133
0.0336704
-0.114509
0.000195211
0.150395
-0.313099
0.62387
-0.310781
0.190954
0.338436
-0.529697
0.286349
-0.304704
0.00118938
0.0663027
-0.11715
-0.0633648
9.04179e-06
0.0633502
0.184337
-0.0556361
-0.504127
0.339572
0.561881
-0.419369
-0.142552
0.00125479
-0.00734791
-0.141595
0.427919
0.113708
-0.336005
0.222202
-0.573542
-0.442783
-0.293398
-0.175064
0.0147824
0.160262
-0.177231
0.296369
-0.119161
-0.184366
0.375531
0.436182
0.125656
-0.495316
-0.0191723
0.380259
0.149663
0.0862889
0.022381
-0.397226
0.249087
0.148128
0.0248435
0.135781
-0.293161
-0.290667
0.387768
-0.131058
0.0909658
-0.124525
0.033537
-0.00724232
0.137278
0.213262
-0.0944396
0.053767
0.0406834
0.0148348
0.0754339
-0.359602
-0.0785013
0.0118789
-0.0262282
0.0143588
0.34486
-0.2777
-0.0895506
0.0544585
0.0350987
-0.0796523
0.00865972
-0.023536
-0.0428376
0.0663648
0.667146
-0.297579
-0.36958
-0.239244
0.0180985
0.221097
-0.376277
0.296944
0.0915167
-0.0178415
0.0130437
-0.00755772
-0.535234
0.155303
0.379781
0.588382
-0.597364
0.00879765
-0.0124457
0.144259
-0.300143
0.512584
-0.212443
-0.416407
0.564387
-0.14802
-0.0153138
-0.0149556
0.0302696
-0.395233
0.567181
0.330961
-0.451848
0.120635
-0.0119478
0.0480089
-0.000643259
-0.0473658
0.0314088
-0.388054
0.477593
-0.145476
-0.496766
-0.0012733
-0.00208623
-0.0219031
0.0763763
-0.0171119
0.101651
-0.106535
-0.203353
-0.287662
0.49093
-0.0648913
0.0688327
-0.0828519
-0.125975
-0.0644864
0.110939
0.0204649
0.151768
0.162858
0.0110779
-0.0856335
0.0740555
-0.400286
-0.043612
0.233813
-0.00813481
0.140012
-0.131911
-0.0306828
-0.0247702
0.514258
-0.0857405
0.00710695
-0.0107814
-0.00771858
-0.0316728
-0.0578714
0.0463761
-0.0457494
0.311218
0.12112
-0.432544
0.197245
-0.0277429
-0.169566
0.469742
0.163408
-0.0870111
0.268464
0.123352
0.119855
-0.107502
-0.0123449
0.649797
-0.650438
-0.0457876
-0.0114657
0.057254
-0.541322
0.124877
0.114789
-0.0340136
-0.421063
0.533934
-0.113125
-0.110409
-0.0721725
0.182573
-0.163272
0.184765
0.0124027
-0.0410588
0.0414375
-0.155046
0.113553
-0.181185
0.365883
-0.484473
0.618393
0.0524282
0.241435
0.373775
-0.0411197
-0.332673
-0.377287
0.126572
0.250598
-0.00160047
0.0496088
-0.374537
0.585353
0.729008
-0.375005
-0.441753
0.165067
0.276513
-0.0620905
0.0123243
0.00315208
-0.00216088
0.0515254
0.441819
0.225314
0.135461
0.378733
0.00479999
0.394423
-0.399388
-0.00352126
0.0580282
0.122787
0.526425
0.147709
-0.349155
-0.00060717
-0.0522855
0.0528911
0.37632
-0.561847
0.185286
0.0914996
0.188128
-0.279719
-0.125891
0.412881
-0.171384
-0.0906007
0.0435603
0.0470491
-0.260837
0.393471
-0.132812
0.216662
-0.514892
0.0683194
0.136307
-0.204609
0.00967007
0.0537177
0.116976
0.0111176
0.328719
-0.215101
0.481688
-0.167608
-0.314167
0.333717
0.395287
0.0251547
-0.0114135
-0.0137365
-0.0214115
0.112352
-0.533669
0.0120918
0.0118983
-0.251185
-0.566141
0.389494
0.176355
0.409856
-0.327589
-0.445446
0.581598
0.0215741
-0.474588
0.160758
-0.165551
0.00479687
0.230584
0.16712
0.449394
-0.118667
-0.112808
0.373035
-0.222671
-0.0460688
0.0349882
0.0110804
0.0588887
0.0126189
0.00743334
-0.222123
-0.0583558
-0.0360779
0.0544972
-0.475819
0.193135
0.0328562
-0.0636032
0.457871
-0.39966
-0.166775
-0.165688
0.432625
-0.267138
0.324485
0.124662
0.0472187
-0.00239524
-0.0448223
-0.153983
0.466787
0.095646
0.0459257
0.432028
-0.121012
-0.22412
-0.566386
0.0152203
0.00386098
-0.0190809
0.205102
0.367924
0.103398
-0.214612
0.113973
-0.291227
0.0271116
-0.0991223
0.0719953
-0.235779
0.0189683
0.204836
-0.022971
-0.181922
-0.0127239
-0.203779
-0.0150459
-0.337155
0.0721058
0.132416
-0.0913764
0.322481
-0.231099
-0.015975
-0.00919176
0.0251677
-0.151947
0.169436
-0.0175325
0.515743
0.420468
-0.27231
0.193119
-0.151734
-0.147923
-0.0368212
-0.314423
0.505118
0.012343
0.0254594
-0.0377938
0.402201
0.160441
-0.169969
0.0679636
-0.00719122
-0.197987
0.624305
-0.426371
-0.102106
0.0628968
-0.260474
-0.152539
-0.334989
-0.103222
-0.488176
-0.00885013
-0.134953
0.518439
-0.383491
0.382562
-0.258114
0.0730137
-0.0811723
-0.40062
-0.161459
0.052144
0.0242172
0.0101708
0.0149872
0.267618
-0.067627
-0.200016
0.061799
0.0101132
0.408242
-0.0208187
0.586844
0.231164
-0.613101
0.44534
-0.119983
-0.394324
0.120887
-0.105457
-0.0154652
-0.101816
-0.225985
0.327708
0.330754
-0.517287
0.186374
-0.104837
-0.314077
0.108169
-0.565229
0.0503071
0.0864375
0.0683358
0.308892
-0.0705096
0.000649805
-0.00399923
-0.073596
0.0775809
0.430033
-0.126998
0.0567799
0.402698
-0.459484
-0.0858943
-0.178605
0.154263
-0.0876181
0.439325
-0.351707
0.386133
-0.526651
0.140489
-0.506822
0.333222
0.173593
-0.415916
-0.167815
-0.268145
0.487576
0.247849
0.165022
-0.0103123
0.00633346
0.00397609
0.404829
0.097507
-0.502554
0.0270552
0.0651433
-0.197981
0.264134
-0.194469
0.276862
-0.579459
0.444501
0.421294
-0.597814
0.176346
-0.197435
0.0995226
0.0979165
0.283904
0.0609422
-0.374119
0.559947
-0.397047
0.342707
0.133324
-0.476319
-0.292351
0.476857
-0.282781
-0.159126
-0.152843
0.72308
-0.389371
-0.224354
-0.0644849
0.288846
-0.0187195
0.101249
-0.0825414
0.286872
-0.46773
0.180855
0.484562
0.103655
-0.105745
0.446498
-0.340989
0.384286
-0.174076
-0.210228
-0.169058
-0.215085
-0.296273
0.0726418
0.223554
-0.151267
-0.187675
0.0356842
-0.339083
0.237177
0.320041
0.161559
0.0623867
0.104772
-0.16715
-0.156909
0.487522
-0.0600805
0.0398232
-0.0936773
0.0856731
0.00799031
-0.15905
0.30677
0.117914
-0.102327
-0.0156024
0.45144
-0.460795
0.67775
-0.247684
-0.430118
0.13969
0.307176
-0.447026
0.32577
0.0713235
-0.397102
-0.112359
-0.280423
0.392762
0.502004
-0.097379
-0.494799
0.49446
0.178901
0.380907
0.105027
-0.131677
0.573082
-0.145617
-0.427512
0.560457
-0.381705
0.373588
-0.189821
0.208199
-0.18704
-0.0212271
-0.00653613
0.0783428
-0.0785692
0.338421
-0.260654
-0.146267
-0.468456
0.127491
-0.135658
0.105939
0.00419036
-0.110132
-0.0908732
0.322736
-0.026771
0.163981
-0.139701
-0.024276
0.122592
-0.0221829
-0.100442
0.582649
-0.173696
-0.409006
-0.142766
-0.000355654
0.469647
-0.146428
0.355127
0.291868
-0.312295
0.451819
0.0482797
-0.0495732
0.00129261
0.00915755
0.103023
-0.195871
-0.240469
-0.0664963
0.400575
-0.355904
-0.140432
0.496018
-0.38112
-0.146969
-0.438091
0.13809
0.299824
-0.388379
0.445146
-0.304877
0.0467156
0.258163
-0.541969
0.296968
0.183619
0.0245175
0.340914
-0.0815906
-0.0455675
0.0446999
0.000867395
0.00900212
0.55274
0.257745
-0.178822
-0.078917
-0.345707
-0.274179
0.0870058
-0.0685698
-0.018429
0.194672
-0.0259846
-0.168705
0.00367178
0.0634994
-0.0671781
0.108468
-0.0222036
-0.000124424
0.12098
-0.00968546
0.158882
-0.00234243
-0.0508434
0.481517
-0.194643
0.000160152
0.00983696
-0.58364
0.166082
-0.217326
0.0512402
0.165897
0.407138
-0.10191
0.219792
0.0216853
-0.241533
0.224957
-0.369437
0.144295
0.0532483
-0.00347782
-0.0497704
-0.0906639
0.274225
-0.183648
0.0462188
0.425494
-0.0228398
0.121475
-0.0986518
0.10629
-0.51625
0.386758
0.129147
-0.0897021
0.287026
-0.197428
-0.316678
0.661831
-0.26411
-0.397777
0.390001
-0.0931126
0.206002
-0.13767
0.144033
-0.449648
0.0315198
0.21402
-0.24552
-0.218163
0.484239
-0.266427
-0.235448
0.0315896
0.256645
-0.460074
-0.581117
-0.0673672
0.0752068
0.135635
0.268128
0.409573
0.36324
-0.116233
-0.247101
-0.0128621
-0.00780296
0.191837
0.0211341
0.147994
-0.135223
-0.0127649
0.115367
-0.0321137
-0.0832501
-0.563842
0.396412
0.167386
0.3991
0.183498
0.079121
-0.0693228
-0.00980622
0.289525
0.10042
0.159845
0.0172702
0.210504
-0.0626599
0.00362596
0.0590291
-0.0362147
0.361979
0.0520219
-0.114043
0.0212049
0.34637
-0.367587
-0.376413
-0.0104169
-0.390506
0.221394
-0.453646
0.336055
0.11734
0.0037842
0.0149656
-0.0187491
-0.254036
0.0510874
-0.130914
0.581872
-0.450981
0.0902062
0.129512
-0.00731242
0.0897823
-0.0824862
0.135747
-0.309087
0.173241
-0.0045977
-0.0580668
-0.0237511
0.0758785
-0.504731
0.56591
-0.0612461
-0.219269
0.0852735
0.133997
0.0555799
-0.00295583
-0.128166
-0.0911028
-0.0730797
0.0665005
0.00657503
-0.501599
0.0453174
0.455807
0.330296
-0.43627
-0.0423143
5.01597e-05
0.0422642
-0.0127567
0.118696
0.0185781
-0.0264827
0.00790664
0.118031
-0.551456
0.432823
-0.102757
0.435032
-0.117871
0.00765443
-0.0534045
-0.114804
0.050063
0.267464
0.114946
0.48532
-0.0992165
-0.0145686
-0.160513
0.172062
-0.0220392
-0.150014
-0.0702581
-0.00489284
0.0751386
-0.407388
0.0702868
0.384037
-0.45457
-0.00548256
0.0678268
0.200445
0.00583338
-0.206382
0.214719
0.303356
0.0752911
-0.0989484
-0.0494344
-0.143973
0.340497
-0.572505
0.404019
0.168263
-0.00377114
0.0189901
-0.0597009
-0.224422
0.575739
-0.118885
0.559715
-0.441235
-0.0295327
0.0418806
-0.529439
0.0246387
0.618504
-0.164504
-0.469703
0.251181
0.278129
0.31819
-0.446691
0.128276
0.138124
-0.0425239
0.221287
-0.189744
-0.068808
-0.116122
-0.225963
0.341935
-0.00409746
0.00201496
0.00208711
0.404751
-0.174179
0.171484
-0.0013631
-0.170114
0.0750594
-0.0937916
0.0334368
-0.542412
0.387899
0.154469
0.358139
0.1408
-0.499267
0.00958224
0.154402
-0.205292
-0.357432
-0.0301448
0.414095
-0.209731
-0.297091
0.322974
-0.00651704
-0.0708825
-0.170525
-0.229259
-0.365377
0.00768074
-0.047559
-0.195338
0.182522
0.0127901
0.00132954
0.369391
-0.208374
-0.161146
0.624656
-0.145257
-0.479429
0.562854
0.200417
-0.193386
-0.0672599
0.0656417
-0.0166484
-0.0257625
0.203167
0.400969
-0.00629411
0.14746
0.0588775
-0.427271
0.368393
-0.118025
-0.318565
0.436419
-0.16895
0.0525167
-0.0548611
-0.031462
-0.176067
-0.309137
0.224541
0.103809
0.0143707
-0.0389539
-0.265921
-0.0651579
-0.0668392
-0.177363
-0.365094
0.244945
-0.435747
-0.405771
-0.0128773
-0.211472
0.14852
-0.140038
0.541208
-0.402195
0.00156254
-0.0935881
0.092002
-0.490603
0.34801
0.142266
0.174692
-0.591193
-0.111716
-0.0153622
0.127086
0.0515305
-0.055009
-0.175792
-0.221169
0.396843
-0.00297654
0.0629406
-0.332272
0.289152
0.0431077
0.0576124
-0.0499356
0.217657
0.319248
-0.0935493
0.457286
-0.33282
0.455643
-0.123038
-0.0483813
0.217056
-0.67542
0.458307
0.320428
-0.502567
0.182073
-0.327
-0.0488281
0.0579979
0.0618172
0.00695954
-0.0687807
0.0472443
0.210508
0.0618599
-0.0664635
0.111193
-0.344011
0.232766
0.0604218
-0.00741528
-0.0530054
0.0583205
0.192524
0.00780629
0.426747
-0.30916
-0.151625
-0.342914
0.49431
-0.40497
-0.502591
0.366886
0.135415
-0.0532501
-0.0215187
0.603813
-0.434172
-0.170251
0.262055
0.0130139
-0.275172
-0.374749
0.103685
-0.104532
-0.00737794
0.0629284
0.0143745
0.0111771
-0.0255546
0.130057
-0.442654
0.312459
-0.0650996
0.0756747
-0.0105818
-0.216658
0.353843
0.24863
-0.345562
-0.208376
0.506301
-0.312343
-0.217156
0.0196555
0.000915884
0.319725
-0.094348
0.0480588
-0.048669
0.121838
-0.165434
0.395254
0.0900364
0.101407
0.000222697
0.396981
0.224047
0.276499
-0.0571247
-0.388439
0.222565
-0.00558597
0.0873732
-0.0818004
-0.267823
-0.243711
0.33396
-0.191466
-0.142601
0.437092
0.335264
0.27713
-0.0776532
0.0703234
-0.223478
-0.103123
0.326482
0.226398
-0.104988
-0.121459
-0.155964
0.476339
-0.0224829
-0.155029
0.0439337
-0.041445
-0.00248804
0.315506
-0.484829
0.169108
-0.115895
-0.0633074
-0.470413
0.0892718
0.360771
-0.0620695
-0.163335
-0.425003
0.588305
0.023147
0.092224
-0.0293392
0.195417
-0.181893
-0.188991
-0.093047
0.281941
0.131808
-0.55629
0.424441
-0.154978
0.490323
-0.335586
0.609127
0.321214
0.173891
0.391184
-0.537941
0.14663
0.174207
0.0321997
-0.0557419
0.24838
-0.202269
-0.260937
0.416531
0.532084
-0.221339
0.564378
-0.0316032
-0.532863
0.123311
0.00186626
-0.00187274
-0.0686417
0.113228
0.181448
0.331258
-0.442513
0.111016
0.613047
-0.396049
0.427403
-0.161862
0.512921
-0.351204
0.0950576
-0.0514223
-0.00469183
0.0561152