/*--------------------------------*- C++ -*----------------------------------*\
| =========                 |                                                 |
| \\      /  F ield         | OpenFOAM: The Open Source CFD Toolbox           |
|  \\    /   O peration     | Version:  v2012                                 |
|   \\  /    A nd           | Website:  www.openfoam.com                      |
|    \\/     M anipulation  |                                                 |
\*---------------------------------------------------------------------------*/
FoamFile
{
    version     2.0;
    format      ascii;
    class       volVectorField;
    location    "50";
    object      U;
}
// * * * * * * * * * * * * * * * * * * * * * * * * * * * * * * * * * * * * * //

dimensions      [0 1 -1 0 0 0 0];


internalField   nonuniform List<vector> 
13851
(
(0.978515 -0.00852703 9.01707e-23)
(0.768124 -0.247242 1.40893e-21)
(0.967112 -0.0919706 -2.51641e-22)
(0.978545 -0.00561486 3.53857e-23)
(1.00014 -0.118823 0)
(0.835042 0.00608506 7.74512e-22)
(1.02442 -0.013715 -6.21797e-21)
(0.991747 -0.0816624 -4.89889e-24)
(1.02115 0.0136869 0)
(0.974352 -0.049579 -2.98771e-21)
(1.0594 -0.0130528 3.66913e-21)
(0.566649 0.248693 2.22929e-21)
(1.02632 -0.161615 2.5747e-22)
(-0.124581 -0.15589 0)
(1.01289 -0.00202117 4.03649e-21)
(0.989391 -0.059568 2.52523e-21)
(1.0106 -0.0513364 8.95722e-21)
(0.975082 -0.0211998 -1.99485e-22)
(1.01107 -0.169511 0)
(1.02008 0.0131784 0)
(0.979748 -0.00539842 2.9716e-22)
(0.970384 -0.0953555 -5.64543e-21)
(1.01859 -0.000495153 -4.45199e-22)
(1.01367 0.000586302 1.84688e-21)
(1.01599 -0.000462612 -9.69856e-23)
(0.989701 -0.0804866 0)
(1.03103 -0.0504064 -5.05897e-21)
(-0.00375305 -0.061997 0)
(0.97979 -0.0087796 0)
(0.987159 -0.030437 3.84395e-21)
(0.810673 0.0293378 5.90832e-22)
(1.01023 -0.0530488 -4.76689e-21)
(0.968306 -0.0885178 0)
(0.821047 0.0523157 3.23712e-21)
(1.01474 0.000868501 -1.6851e-21)
(1.02869 -0.138412 1.05924e-21)
(1.01869 -0.135764 -4.7602e-21)
(0.948533 -0.1532 6.22171e-21)
(0.97086 -0.0455587 -2.2129e-21)
(0.801439 0.0558348 -6.95151e-21)
(0.994471 -0.00430378 2.22905e-21)
(1.0154 -0.00593576 6.08385e-23)
(0.0432685 0.136063 3.03063e-20)
(0.982662 0.0488209 2.87496e-21)
(0.954652 0.0303337 -7.92403e-21)
(0.382288 0.0765296 4.62642e-20)
(0.883527 0.0764728 6.23041e-22)
(0.868339 -0.238632 -9.57909e-21)
(1.03165 -0.0519707 -1.03591e-20)
(1.0206 -0.00894522 -9.95938e-21)
(1.02502 -0.119678 0)
(1.01974 -0.134704 1.26618e-20)
(-0.03233 0.0958573 -3.51615e-20)
(1.01187 -0.00146003 0)
(1.00008 -0.00039064 1.84875e-21)
(1.01508 -0.00624922 5.7684e-23)
(1.02711 0.000195166 9.37398e-24)
(-0.0893071 0.121964 0)
(0.987752 -0.0293943 -3.30626e-21)
(1.0222 -0.0177209 -6.14153e-21)
(0.940734 -0.151679 3.88856e-21)
(0.894731 -0.319704 -5.58058e-20)
(0.992643 0.0178203 -1.52795e-21)
(1.00278 -0.12644 9.47266e-22)
(0.884705 -0.113932 -3.04155e-21)
(0.972003 -0.00946842 -1.55474e-22)
(1.01394 -0.134419 5.99957e-21)
(0.882376 0.0842373 1.45e-21)
(1.02975 -0.0832673 0)
(0.975728 -0.0199672 6.29572e-22)
(0.480511 -0.0278934 0)
(1.0172 -0.136458 0)
(0.767995 -0.260013 1.01204e-20)
(1.01216 -0.00148327 0)
(1.00123 -0.000348206 3.30064e-23)
(1.02256 0.0214913 -8.81672e-22)
(0.973951 -0.0948956 0)
(0.66038 -0.0441398 2.8672e-20)
(1.01016 -0.0964033 0)
(0.453289 -0.0311181 1.91946e-21)
(1.02106 -0.02524 1.26059e-20)
(0.996696 -0.0138228 0)
(1.0091 -0.0101497 4.94113e-21)
(0.290594 0.0801471 0)
(0.985597 0.0246305 -3.0757e-21)
(0.623328 0.24155 0)
(0.885298 0.0531681 2.37188e-21)
(1.0057 -0.274525 -3.52907e-21)
(1.02011 -0.0562386 1.33711e-20)
(1.03359 -0.00987824 3.61768e-22)
(1.02891 -0.13769 1.7986e-20)
(1.00683 -0.016951 0)
(0.891597 0.0892734 1.14257e-21)
(1.02077 -0.0653577 -1.08691e-20)
(1.02183 -0.0554402 -1.27423e-20)
(1.02362 0.000363785 1.73668e-21)
(1.00181 -0.121209 -1.12535e-20)
(0.947055 -0.139283 -1.31283e-20)
(0.993306 -0.0195941 1.71819e-20)
(1.02113 0.000347309 -1.4933e-21)
(-0.218129 0.139885 0)
(1.02016 -0.103152 0)
(0.988041 -0.0132388 3.31363e-21)
(1.04783 -0.0446603 -1.71882e-20)
(1.00969 -0.000268541 -6.08837e-23)
(0.917827 0.116539 0)
(1.02265 -0.108875 1.29681e-20)
(1.01364 -0.00443618 -3.54854e-23)
(1.03063 -0.138108 1.1517e-20)
(0.842199 -0.0235793 5.14877e-22)
(1.017 0.000844912 -5.33285e-22)
(1.03424 -0.0105098 -6.31591e-22)
(1.00174 -0.0105435 0)
(1.00491 0.000252139 0)
(1.01868 0.00117811 -9.42714e-22)
(0.960254 -0.205526 5.22116e-21)
(0.979745 -0.149303 4.97436e-20)
(1.01577 -0.00364207 8.25101e-23)
(1.00199 0.000525057 1.71429e-21)
(0.999043 -8.96717e-05 0)
(0.0351535 0.152936 1.96142e-21)
(1.04591 -0.0445069 0)
(1.02903 -0.166161 0)
(1.0216 -0.149268 9.23897e-21)
(0.896747 -0.251241 0)
(1.02744 -0.0128761 1.03401e-22)
(0.894893 -0.251214 0)
(1.0149 -0.0999079 2.17329e-20)
(0.980062 -0.00346888 -1.44264e-22)
(0.988812 -0.14256 0)
(0.994913 -0.00413379 1.96034e-21)
(1.00816 0.00664296 -6.81495e-22)
(0.504413 -0.0351774 2.92517e-22)
(1.00955 -0.00981651 0)
(0.975927 -0.201301 7.74275e-21)
(1.00802 0.00227249 0)
(1.01592 -0.00337466 -2.8619e-22)
(1.01659 -0.134706 1.11063e-20)
(0.367504 -0.390201 5.93562e-21)
(0.289986 -0.178508 -6.12915e-21)
(-0.219984 0.157222 -1.74461e-20)
(0.999806 -0.000357173 0)
(1.01705 0.0435706 2.22969e-22)
(1.01861 -0.0102461 0)
(1.00528 -0.0392381 -5.9692e-21)
(0.967996 0.0766287 4.35943e-21)
(1.00513 -0.0127822 0)
(0.984444 -0.143315 0)
(1.02356 -0.0132224 -5.05055e-21)
(0.967665 -0.00690879 5.19022e-21)
(1.04649 -0.127781 1.39956e-20)
(0.999519 -4.36013e-05 0)
(-0.148823 -0.11021 -2.00915e-20)
(1.02726 5.72462e-05 9.03679e-22)
(1.02036 -0.0401891 -1.23384e-20)
(1.0045 -0.0382187 1.32948e-22)
(0.9997 0.00975102 0)
(0.99303 -0.0295958 -1.49033e-21)
(1.01845 -0.135851 0)
(1.02362 -0.11851 0)
(1.01009 -0.00735983 0)
(1.03369 -0.0671862 0)
(-0.0817468 0.112047 0)
(1.00882 0.00663872 1.39257e-21)
(0.980796 -0.041683 2.45471e-21)
(1.01766 -0.00829027 0)
(1.00494 -0.013208 -1.00669e-23)
(1.03137 -0.0847605 0)
(0.981043 -0.00318721 -5.14076e-22)
(0.863005 -0.0982311 0)
(0.641514 -0.0395278 -3.00439e-20)
(1.02627 0.00497464 5.48816e-22)
(0.999134 0.00919765 7.78389e-22)
(0.254457 -0.20651 4.08519e-21)
(1.00895 0.00607741 -1.41161e-21)
(0.854014 -0.210512 -1.16e-20)
(1.0139 -0.0980755 -1.9311e-20)
(1.00904 0.0419634 5.58563e-24)
(1.016 -0.169564 0)
(1.0131 -0.00525715 5.27622e-23)
(1.00792 -0.0549171 -5.33975e-21)
(1.02022 -0.135448 0)
(1.0104 -0.00897045 5.6301e-21)
(0.968962 -0.0993468 6.81013e-21)
(1.0119 -0.00167043 2.85935e-23)
(1.02343 -0.000491024 5.39079e-22)
(0.972968 -0.0112832 2.01036e-22)
(1.00045 -0.000288851 3.69431e-21)
(0.992482 -0.12383 1.04038e-20)
(0.999337 -0.076236 0)
(0.88794 0.0902323 -2.59195e-21)
(-0.0440815 0.102593 1.53268e-20)
(1.03426 -0.0123096 2.00933e-22)
(1.02242 -0.0818987 0)
(0.905274 -0.321109 5.34481e-20)
(1.01847 -0.0385395 -8.83639e-21)
(1.01763 0.0417435 4.08415e-23)
(0.741536 0.0263141 0)
(1.01087 0.0411808 0)
(1.02159 0.0220959 -1.12374e-21)
(1.02778 -0.012211 -3.34613e-22)
(0.654059 -0.0810203 -4.78583e-20)
(0.997892 0.000184423 0)
(1.00258 -0.00812043 3.84086e-21)
(0.990185 -0.0636378 3.74117e-23)
(1.01067 -0.00955477 -1.66034e-20)
(0.60899 -0.218865 0)
(1.01388 -0.0531922 -1.06315e-20)
(0.661499 -0.0613189 0)
(1.01157 -0.00611472 3.7109e-23)
(0.949478 -0.117531 0)
(0.988693 -0.0127286 1.08765e-21)
(0.771021 -0.0126241 -2.59483e-21)
(1.01226 -0.00437629 1.78528e-23)
(1.01756 -0.00964328 -7.6131e-23)
(1.06316 -0.0479518 6.37884e-22)
(0.966388 0.0186407 -4.35278e-21)
(0.324399 0.121238 -1.0673e-19)
(1.01185 -0.00407706 0)
(0.680572 -0.0656698 0)
(1.01282 -0.0539835 -1.80405e-22)
(1.0218 -0.0261619 3.67702e-21)
(1.00257 -0.134003 1.34173e-21)
(1.00871 -0.138329 -1.0532e-20)
(0.840387 -0.102354 1.38579e-20)
(1.0188 -0.000382377 2.54417e-23)
(1.01867 -0.0711013 -2.03769e-20)
(1.00812 -0.000199622 2.43794e-23)
(-0.0635431 0.176396 0)
(1.01198 -0.00463317 -1.60765e-23)
(0.989822 -0.0781735 6.5768e-22)
(0.819616 -0.0181907 6.12406e-21)
(1.02608 0.00453573 0)
(1.03363 -0.0116244 9.52652e-22)
(1.02947 -0.116139 0)
(0.947589 -0.028282 0)
(0.661636 -0.216061 0)
(0.883844 -0.126284 6.48371e-22)
(1.01813 -0.0102527 1.53353e-22)
(1.00287 -0.00852263 0)
(0.819302 0.0756554 0)
(0.874304 -0.0190851 -1.0077e-20)
(1.00891 -0.00984033 1.48511e-24)
(0.992601 -0.0620986 -4.95422e-22)
(1.0118 -0.000485644 2.55524e-24)
(0.778521 -0.0902818 -9.11622e-21)
(1.01797 -0.103997 0)
(0.809611 -0.00101515 -3.3543e-21)
(1.00225 -0.0377568 -9.93149e-21)
(0.998962 -0.0492659 -8.86051e-21)
(0.966767 0.0400495 9.39003e-22)
(0.843181 -0.0215551 5.3415e-21)
(1.00904 -0.0261863 1.17838e-20)
(1.00315 -0.0387846 1.3825e-20)
(1.03407 -0.107961 3.72317e-21)
(1.08512 -0.134177 0)
(0.994685 -0.0786194 -1.0882e-22)
(1.01949 -0.133883 -1.17929e-20)
(0.628498 -0.02881 2.62093e-20)
(1.01597 -0.00650426 -1.24078e-20)
(1.01799 -0.00968581 9.18278e-23)
(0.977955 -0.0192082 1.64817e-22)
(0.826935 -0.0303501 9.40891e-21)
(1.02422 -0.0104875 -2.46405e-22)
(1.00418 -0.187394 2.62043e-20)
(1.01741 -0.0383618 -6.54135e-22)
(1.00969 -0.0256141 -1.18715e-20)
(1.02167 -0.0640899 6.57652e-23)
(1.03071 -0.139288 -2.18803e-20)
(1.01757 -0.0289709 4.59392e-23)
(0.968967 0.0460038 -6.83632e-23)
(1.01898 -0.0401651 0)
(0.786254 -0.0683342 1.81848e-21)
(1.01144 -0.0941506 0)
(0.98891 -0.0582316 0)
(1.00797 0.00716976 6.9908e-22)
(0.996551 -0.013312 3.42048e-24)
(1.03241 -0.0291435 -5.87893e-24)
(0.845424 -0.110689 -1.7288e-20)
(1.06408 -0.0355685 -4.26817e-21)
(1.00857 -0.00981717 -6.03175e-25)
(1.0112 -0.00552481 3.9047e-24)
(1.00971 -0.000312145 -1.27844e-23)
(1.035 -0.106236 -3.74369e-21)
(0.836229 0.0358757 -3.21945e-20)
(0.803558 -0.115114 0)
(1.01986 0.0175553 0)
(1.01558 -0.00282442 2.88695e-21)
(0.782142 -0.0211629 1.81918e-21)
(0.997838 -0.0132238 -2.46888e-24)
(0.983294 -0.148735 0)
(0.989246 -0.0294382 2.42982e-21)
(1.02189 -0.0185163 0)
(1.02478 -0.0871429 0)
(0.99778 -0.0136844 0)
(1.00887 -0.181092 -6.61165e-21)
(0.984859 -0.0428783 3.36454e-21)
(0.652098 0.259126 3.12766e-21)
(1.00726 0.00776524 0)
(0.804293 -0.094713 9.99985e-21)
(1.03434 -0.0657987 -2.30759e-21)
(1.00913 -0.0502922 -4.87932e-21)
(0.864282 -0.112599 0)
(0.995684 -0.0144871 0)
(0.892857 0.102958 1.02083e-21)
(0.899705 -0.108079 -1.85598e-20)
(1.01957 0.0165625 1.93701e-21)
(1.03327 -0.0989185 -2.65299e-20)
(1.01878 -0.0654975 0)
(0.989766 -0.0284093 -3.32549e-21)
(0.443557 -0.396791 0)
(0.98369 -0.043236 1.97302e-21)
(1.00685 -0.024554 9.13515e-21)
(0.991269 -0.1365 0)
(1.01611 -0.00650247 -7.0513e-23)
(0.999094 -0.0505559 1.60842e-20)
(1.02909 -0.011204 -2.09497e-22)
(0.897415 -0.117809 0)
(1.03448 -0.135463 8.48952e-21)
(1.01203 -0.00455408 0)
(1.02528 -0.105915 -6.58547e-21)
(1.01376 -0.00399016 0)
(0.685332 -0.0421526 3.24646e-20)
(0.951862 0.0357638 0)
(1.02054 -0.000762705 -4.65044e-22)
(0.996904 0.0130295 -4.30018e-22)
(1.0341 -0.134279 0)
(1.01953 -0.0691852 1.0239e-20)
(1.0226 -0.0393175 0)
(1.01568 -0.00249397 0)
(0.996332 -0.0144399 2.06868e-21)
(1.00619 -0.0238613 -1.56769e-20)
(1.03393 -0.00131913 -3.83824e-21)
(-0.0845044 0.0385494 0)
(0.914812 -0.151582 0)
(0.979363 -0.0130844 5.57425e-22)
(0.911327 -0.11848 1.095e-20)
(0.898167 -0.231444 -9.45608e-21)
(1.01248 -0.00196563 0)
(1.02042 -0.082724 1.98709e-20)
(0.978639 -0.150206 -1.7896e-21)
(1.03062 -0.0141729 0)
(0.926704 -0.0215145 4.34638e-21)
(1.02165 -0.131289 -1.35304e-20)
(1.0085 -0.174841 6.81083e-21)
(0.984314 0.0129404 4.92559e-22)
(0.922726 0.0498057 3.32899e-23)
(0.860552 -0.101529 -1.75568e-20)
(1.01317 -0.00166626 -1.05884e-21)
(1.0304 0.00557884 -2.55026e-22)
(1.03393 0.00606916 2.07659e-22)
(0.877511 -0.0945419 3.30007e-21)
(1.02376 -0.0390269 0)
(0.91922 -0.0210171 4.82736e-21)
(-0.0741387 0.178948 0)
(0.998626 0.00936268 -7.84871e-22)
(0.936049 0.107427 -1.15511e-20)
(0.997252 0.0135938 5.15122e-22)
(1.01385 -0.00373081 0)
(1.0124 -0.000640796 3.32741e-23)
(1.01335 -0.00462468 -1.86366e-23)
(1.00054 0.00838053 -7.88484e-22)
(0.898537 -0.108163 -1.15245e-21)
(0.954945 0.0385763 0)
(1.00276 -0.0120219 -2.64195e-21)
(1.03401 -0.0966027 2.15538e-20)
(1.01595 -0.00767657 -9.29493e-23)
(0.631621 0.276965 -1.52258e-21)
(0.98307 -0.0611832 -6.24617e-22)
(0.812052 -0.0538892 -2.92168e-21)
(0.890754 -0.118767 -3.0829e-20)
(1.00222 -0.0122224 0)
(0.959546 0.025009 -5.2548e-23)
(1.01534 -0.064798 1.25971e-20)
(0.811881 -0.0916975 -3.36905e-21)
(0.995442 -0.0024725 -1.83525e-21)
(1.01602 -0.00387394 0)
(0.968515 0.00769215 0)
(-0.164874 0.142941 -4.07835e-20)
(1.00091 -0.000245268 -6.16749e-21)
(0.488148 -0.368422 -2.1185e-21)
(1.02223 -0.0225121 -1.05306e-21)
(1.02221 -0.132468 1.51809e-20)
(0.814561 -0.0745302 0)
(1.04644 0.0225939 4.89964e-22)
(1.03947 0.0234441 0)
(0.992129 0.0554481 -8.07272e-22)
(1.00496 0.00557302 8.77823e-22)
(1.01269 -0.000910356 0)
(0.979641 -0.0146583 -5.4316e-22)
(1.02734 -0.105885 -1.66155e-20)
(-0.0951689 -0.157844 0)
(1.03476 -0.0855127 1.31331e-20)
(0.886399 -0.109005 1.32883e-20)
(0.890536 -0.107065 -6.84659e-21)
(1.01636 -0.00771033 -3.8918e-23)
(1.01647 -0.00685506 7.77591e-21)
(0.890856 -0.128174 3.03548e-20)
(0.494646 -0.0345162 -4.21941e-21)
(0.825639 0.00547188 -6.20366e-21)
(0.992517 -0.149835 -6.75057e-20)
(0.963493 0.00585305 0)
(1.01494 -0.0666125 -4.58909e-21)
(1.02187 -0.000311038 -3.94811e-22)
(0.899725 -0.216767 7.83408e-21)
(1.02555 0.00955016 9.32223e-22)
(0.990666 -0.0597946 1.95743e-22)
(0.994765 0.0526194 2.20585e-21)
(1.01999 -0.0139049 -5.182e-21)
(1.00853 -0.000227851 -1.59967e-23)
(1.02058 0.0160222 -1.29758e-21)
(1.01727 -0.00823565 -2.21012e-22)
(1.00539 -0.125366 0)
(0.936162 -0.041118 0)
(0.741524 -0.0459672 1.8043e-20)
(0.97669 -0.0171869 1.0778e-21)
(1.02458 -0.108172 -2.18198e-20)
(0.938804 -0.0117698 7.90361e-22)
(0.84845 -0.0206713 0)
(0.995466 -0.050238 0)
(0.869111 -0.0829787 6.93862e-21)
(1.00932 -0.0488218 -4.97346e-21)
(1.05518 -0.0531942 -6.50363e-22)
(1.01559 -0.00315772 1.34467e-22)
(1.02036 0.015088 2.52385e-22)
(1.02117 -0.00040695 -7.75377e-22)
(0.926483 -0.1606 -4.82209e-21)
(0.779689 -0.00244175 0)
(1.00312 -0.138466 0)
(0.944425 -0.0140016 4.04857e-22)
(0.708772 -0.0469863 0)
(0.831667 0.0636708 -2.04315e-21)
(0.899152 0.0705366 0)
(0.998582 -9.1008e-05 1.56295e-21)
(1.03107 -0.11715 0)
(0.995873 -0.0022887 -3.80859e-21)
(0.816619 -0.021676 0)
(1.01136 -0.000586981 -8.26917e-23)
(0.850631 -0.020415 -4.71398e-21)
(0.732148 0.00229972 2.77697e-21)
(0.971295 -0.0808238 0)
(0.662004 -0.057884 0)
(1.01238 0.0429703 -3.64976e-23)
(1.02489 -0.0313491 -5.06583e-22)
(0.732681 0.00442423 0)
(-0.0456104 0.117777 -2.51856e-20)
(1.01195 -0.00189453 6.13748e-24)
(1.01348 -0.0700444 9.3699e-21)
(1.01135 -0.0983261 1.45506e-22)
(1.01323 -0.0287342 -7.91712e-23)
(1.02462 0.0075448 -1.02279e-21)
(1.00473 -0.0235134 0)
(1.04774 -0.125699 0)
(1.02 -0.133655 0)
(0.972302 -0.0127021 0)
(0.421798 0.364782 4.23572e-21)
(1.02136 -0.000425303 3.52765e-22)
(0.996086 0.0132449 -3.02294e-22)
(0.0674945 0.159604 -2.47717e-20)
(0.978652 -0.0414231 -2.801e-21)
(1.01118 -0.00520702 -2.57813e-23)
(0.99105 -0.314803 4.00292e-21)
(1.00538 0.00557068 9.16477e-22)
(0.978045 -0.00745794 0)
(1.0217 0.00932886 0)
(0.964267 -0.0552182 0)
(0.993364 -0.0265047 0)
(1.01157 -0.00577645 -1.46773e-23)
(1.01408 0.0424223 5.98671e-24)
(1.01601 -0.145769 0)
(1.00921 -0.0108701 0)
(1.03223 -0.0890241 0)
(1.00772 0.00252104 -3.8359e-22)
(0.984349 0.0426743 1.89974e-21)
(1.03449 -0.0407089 -4.42088e-23)
(1.00356 0.000187704 0)
(0.99356 0.000747397 -2.07068e-21)
(1.00801 0.000395881 -9.54141e-22)
(1.00831 0.000224137 -4.59526e-22)
(0.84005 -0.120733 1.49487e-20)
(1.01138 -0.0255328 2.67031e-21)
(0.8614 0.0487132 -2.27436e-21)
(1.01082 -0.00856479 -5.78815e-21)
(1.02405 -0.00024242 0)
(-0.222599 0.0217353 0)
(0.644405 -0.0538439 6.25345e-21)
(1.01166 -0.0104237 -6.5831e-21)
(0.989383 0.0480861 -1.67805e-21)
(0.996284 -0.0515523 0)
(0.864079 -0.0169087 -3.98302e-21)
(0.300284 0.0994609 0)
(0.995725 0.0125807 0)
(0.959982 -0.000550155 -1.91237e-20)
(0.9954 -0.00319084 3.92499e-21)
(0.98998 -0.115256 1.10886e-20)
(1.01993 -0.0161925 -1.15774e-20)
(-0.0198232 0.225608 2.8648e-20)
(1.01537 -0.00222385 0)
(-0.025444 0.107558 0)
(0.988377 -0.0864175 0)
(1.01572 -0.00601287 2.09291e-22)
(0.998782 0.0434438 0)
(0.873949 -0.105622 -1.48762e-20)
(0.988041 -0.0770964 0)
(0.888214 0.0816936 1.85595e-22)
(1.00264 0.000720787 -1.78804e-21)
(0.970774 -0.0992861 2.75399e-20)
(0.999465 -0.000352729 -4.2116e-21)
(1.01191 0.00634644 0)
(1.00834 0.00839875 -1.268e-21)
(1.02203 -0.0119551 -1.06098e-20)
(0.520433 -0.0429088 -1.22768e-20)
(1.02281 -0.114897 0)
(1.02647 -0.131957 1.40701e-20)
(1.02745 -0.151907 -6.2854e-21)
(0.97546 0.0166141 2.22056e-21)
(1.01009 -0.00772542 3.85773e-24)
(1.02944 -0.204369 0)
(0.745608 -0.0116575 -4.56843e-21)
(1.00912 -0.0560531 0)
(1.03178 -0.0677441 -1.39853e-20)
(0.898055 -0.0164462 9.89859e-21)
(1.00172 -0.176254 -7.37476e-21)
(0.988374 -0.12247 -1.35227e-20)
(1.00965 -0.000998908 0)
(-0.0245659 0.237161 1.26302e-20)
(0.383265 0.0635168 -4.95101e-20)
(0.559649 -0.0314752 -5.23333e-20)
(0.981821 -0.043305 0)
(1.00507 0.0470654 -8.2155e-22)
(0.935996 -0.156751 -4.75684e-21)
(1.02753 -0.0319456 1.69455e-22)
(1.06215 -0.148392 -3.06204e-21)
(0.748352 0.0143978 -3.45905e-21)
(0.810774 -0.0288535 0)
(0.991769 -0.0295879 0)
(0.796576 -0.0482729 0)
(1.02774 -0.130568 0)
(1.01532 -0.00256467 0)
(1.0295 -0.0292274 2.00497e-22)
(1.0242 -0.116259 1.58419e-20)
(0.618885 -0.0440555 -1.40104e-20)
(1.00082 -0.0381295 5.2237e-21)
(1.00504 -0.00634659 -2.01515e-21)
(1.00018 0.00949383 0)
(0.998072 -0.00677894 0)
(0.995895 -0.122868 -9.84392e-21)
(0.954923 -0.0393134 0)
(0.977063 -0.245064 0)
(0.424331 0.353688 0)
(1.01409 0.00283914 -1.21265e-21)
(0.0620433 0.151896 2.35282e-20)
(0.707269 -0.0611676 1.32694e-20)
(0.920989 0.223888 5.24738e-22)
(0.746391 -0.00432189 -4.26533e-21)
(1.03072 -0.0874228 1.80126e-20)
(1.01114 -0.00449652 0)
(1.02131 0.0146506 0)
(1.00288 -0.0141859 -1.76704e-24)
(1.04305 -0.205967 0)
(1.02122 -0.0414011 1.76482e-20)
(1.03818 -0.130255 -1.52874e-20)
(1.02804 -0.13494 0)
(1.01476 -0.00616577 -5.31125e-23)
(0.923605 -0.0172372 9.2879e-22)
(0.936294 -0.220748 -2.01892e-20)
(0.891321 -0.0926704 -1.24444e-20)
(1.01712 -0.131898 -1.17773e-21)
(0.532941 -0.0456453 -2.18955e-21)
(1.02768 -0.130661 1.13301e-20)
(0.994938 -0.00339516 -2.03916e-21)
(1.02084 -0.0138154 -1.10355e-22)
(0.863456 -0.372699 -8.68256e-21)
(0.878764 -0.105254 1.29771e-21)
(1.03084 -0.133078 -1.07937e-21)
(1.03693 -0.0849772 -1.10345e-20)
(1.0082 0.0217138 4.98713e-21)
(1.01342 -0.00507294 -2.24029e-23)
(0.999984 -0.0031843 0)
(0.835361 -0.0348014 0)
(1.01477 -0.00574882 -5.46198e-23)
(0.999996 -0.0370503 -4.66499e-21)
(1.01274 -0.0050275 -2.53948e-23)
(1.00385 0.00307891 -9.93733e-22)
(1.03138 -0.13065 3.61017e-21)
(1.00085 -0.124287 0)
(0.949896 -0.00875596 -3.76565e-22)
(1.01446 -0.0056702 -1.01149e-22)
(0.558764 -0.362186 -2.18277e-21)
(0.730896 0.018007 0)
(1.00585 0.00719568 0)
(1.02758 -0.000266515 -1.08718e-21)
(1.02462 -0.0103694 2.62428e-22)
(1.01281 -0.00120329 1.12392e-21)
(-0.165699 0.156104 5.57213e-20)
(0.785516 0.000634757 -4.99376e-21)
(0.791031 -0.0133057 9.96586e-21)
(0.534865 -0.0358904 0)
(1.01244 -0.0361709 5.13872e-22)
(1.03835 -0.0816454 -1.96585e-20)
(0.598316 -0.0376174 0)
(0.635611 -0.0545247 0)
(0.984585 0.0106292 0)
(1.0276 -0.0839301 0)
(1.01092 -0.00455299 3.62712e-27)
(1.02893 -0.0121329 2.33105e-22)
(0.991737 -0.0637408 -3.31208e-21)
(1.05275 -0.161011 0)
(0.886716 0.0750726 0)
(1.03743 -0.128931 1.39739e-20)
(1.00776 -0.0643283 7.39876e-21)
(1.02077 0.0119245 0)
(0.986666 -0.0572672 0)
(1.02685 0.0454681 -1.09535e-21)
(0.883665 0.0678536 0)
(1.01817 -0.118538 -5.40638e-22)
(1.01055 -0.00796069 -1.10079e-20)
(0.977649 -0.0123961 0)
(1.024 0.00734017 1.18942e-21)
(1.02483 -0.0636063 -1.23825e-20)
(1.00055 -0.140585 0)
(1.0215 -0.017026 0)
(0.995929 -0.00163097 8.99207e-22)
(0.984186 -0.0618519 -3.8522e-21)
(1.01441 -0.0192552 -6.11348e-21)
(0.997178 -0.119564 -1.14604e-20)
(0.923174 -0.150041 -1.75873e-21)
(1.00922 -0.136345 9.71096e-21)
(0.984004 -0.0564215 0)
(1.03093 -0.13393 0)
(1.02058 0.0111918 0)
(0.86375 0.0276954 5.57083e-21)
(0.960872 0.0365807 3.03124e-23)
(0.464146 0.00938692 -7.01926e-20)
(0.98957 -0.0131714 -2.91835e-21)
(1.02287 0.000468792 1.70612e-21)
(1.03023 -0.137496 1.53202e-20)
(0.985417 -0.0222086 0)
(0.758284 -0.0518489 2.52215e-20)
(0.820807 -0.0949353 0)
(0.189881 0.189833 -1.07968e-19)
(0.961067 -0.312701 0)
(1.02481 0.00933713 3.20554e-22)
(1.02027 -0.137462 -2.90235e-21)
(1.00834 -0.0101628 3.23454e-23)
(1.00419 0.00397328 -1.82476e-21)
(1.01499 -0.00195372 1.01616e-22)
(1.00356 0.00339039 9.98586e-22)
(1.00626 -0.0115787 9.86758e-24)
(0.977345 -0.0156942 -7.63425e-22)
(0.965434 -0.0523089 7.35376e-23)
(1.01442 -0.0052477 0)
(0.832578 -0.19606 2.8212e-22)
(0.994048 -0.0855858 1.28144e-22)
(0.838915 -0.215476 0)
(1.00254 0.010909 -2.74719e-21)
(1.0139 -0.00131472 4.21324e-23)
(1.02118 -0.000787626 -1.01685e-23)
(0.974187 -0.14631 1.31287e-20)
(0.879986 -0.327282 -2.07614e-20)
(1.04263 -0.110989 3.848e-20)
(1.02365 -0.0643699 0)
(1.00845 -0.0105276 -3.27409e-23)
(1.02379 -0.000205437 4.6271e-22)
(1.01294 0.00182692 -1.26513e-21)
(0.999267 0.011415 4.02367e-22)
(1.03021 -0.134955 -5.64e-21)
(0.398646 0.072253 3.13636e-21)
(1.01413 -0.0185486 0)
(1.01409 -0.0051156 0)
(1.02281 -0.0117359 0)
(0.999215 0.0107895 0)
(0.887241 -0.0152912 1.96353e-20)
(-0.0583582 0.0938634 0)
(0.987475 -0.0584289 -1.97257e-21)
(0.934597 -0.139652 0)
(0.975542 -0.156509 2.13389e-20)
(0.996319 -0.00146441 9.30967e-22)
(1.02575 -0.131589 -1.3999e-20)
(-0.106438 0.120483 -1.16404e-20)
(1.02694 -0.0864002 0)
(0.556647 0.207946 -9.04063e-22)
(1.01987 -0.0251631 0)
(0.977326 -0.0201456 1.57367e-22)
(1.04159 -0.109745 -4.63436e-20)
(0.977902 -0.01787 -2.69323e-22)
(0.748419 -0.000928409 2.58493e-21)
(1.01137 -0.00979077 0)
(0.960334 -0.173195 5.44009e-21)
(1.0108 -0.000497274 -5.0417e-23)
(1.05582 -0.0764891 0)
(0.687313 -0.0648177 2.17581e-20)
(1.02912 0.0238206 6.26481e-22)
(0.986531 -0.0186224 -3.47028e-21)
(1.01335 0.0105793 -1.37924e-21)
(1.01185 0.00698043 0)
(1.00842 -0.0533697 5.03598e-21)
(0.789483 0.001345 -2.35696e-20)
(0.142749 -0.238356 2.23746e-21)
(1.01666 -0.117188 0)
(0.998408 -0.185429 -1.4114e-20)
(1.04915 0.0322054 -5.30646e-22)
(1.01266 -0.00458109 -5.74417e-23)
(1.00297 0.0104307 2.13726e-21)
(-0.207533 0.00452823 -4.03705e-20)
(1.02846 -0.135279 0)
(0.94206 -0.0307249 -2.87457e-21)
(0.845754 -0.0996021 0)
(1.03093 0.0102995 -5.68433e-22)
(1.01174 -0.000346702 1.04486e-20)
(1.01571 -0.00281431 0)
(1.00136 0.0422657 -1.39137e-20)
(1.01901 -0.131748 1.31229e-20)
(0.987619 -0.0397608 0)
(0.987372 -0.0048585 6.10844e-22)
(1.03974 -0.0408094 7.05745e-22)
(1.02592 -0.0514103 0)
(1.02147 -0.000871573 -2.45585e-22)
(0.109506 0.111606 -2.17689e-20)
(1.09342 -0.131312 3.04355e-22)
(0.795167 -0.0824623 1.10451e-20)
(1.01574 -0.00643007 1.34602e-22)
(1.01477 -0.0180549 -5.66581e-21)
(0.622353 -0.0411779 -1.0077e-21)
(-0.0248478 0.00434736 5.72871e-21)
(1.03015 -0.13712 -7.31589e-21)
(1.02773 0.0431488 5.88544e-22)
(1.03872 -0.130533 0)
(1.01025 -0.0101076 5.06905e-21)
(1.05071 -0.0456706 4.75398e-22)
(0.932682 -0.101976 0)
(0.967255 -0.0811091 -2.32849e-21)
(1.00093 -0.0473455 -6.6614e-21)
(0.247737 0.159303 5.23793e-20)
(0.983109 0.0540304 1.00891e-21)
(1.04787 0.0554068 0)
(1.02173 -0.135635 0)
(1.02255 0.000614803 8.87413e-22)
(0.99812 9.28069e-05 0)
(0.99284 -0.0274804 3.94126e-21)
(1.02136 0.0109015 0)
(0.123548 0.124166 6.27208e-20)
(0.996425 -0.0638431 1.37203e-20)
(1.0189 -0.132484 1.93701e-20)
(0.953854 -0.0110862 0)
(1.03465 -0.0317678 5.03301e-22)
(1.01995 0.0123238 0)
(0.813182 -0.0432748 2.90636e-20)
(1.00783 0.0010286 2.03538e-23)
(0.986547 0.0571348 -8.56918e-22)
(1.01483 -0.00161828 1.12107e-22)
(0.996767 -0.000732884 -1.90442e-21)
(1.00126 0.000424904 -1.32779e-21)
(0.884595 -0.105288 2.87956e-20)
(1.00011 0.00868631 1.62088e-21)
(1.01663 -0.00441885 0)
(0.946535 -0.213051 -3.4633e-21)
(1.02152 -0.0144733 1.64056e-20)
(0.644524 -0.0477743 9.30499e-22)
(1.01168 -0.000508205 1.73276e-24)
(1.02081 0.0434587 -3.24711e-22)
(1.03377 -0.120172 0)
(0.886865 0.0068385 -8.91252e-21)
(0.950858 0.0916992 0)
(1.01611 0.00197318 -1.13975e-21)
(0.801913 -0.0581422 -3.0452e-21)
(0.963552 -0.158269 -2.49618e-21)
(1.01066 -0.0261257 6.09872e-21)
(0.984163 -0.123706 0)
(1.05415 -0.0754915 -1.33556e-20)
(1.02189 0.0100012 -6.15245e-22)
(1.08005 0.123448 9.49704e-21)
(0.0625454 0.12804 3.40272e-20)
(0.803338 -0.0354587 -6.91755e-22)
(0.995089 -0.0474163 5.0276e-21)
(1.01358 0.00243964 3.23448e-22)
(1.014 -0.00465007 3.90005e-23)
(0.726547 -0.0111076 0)
(0.960355 -0.0767006 2.43138e-22)
(0.964409 -0.0751145 6.30719e-23)
(0.985075 -0.0415761 -3.05661e-21)
(1.08438 0.111773 -5.55184e-21)
(1.01069 -0.00118215 0)
(1.02299 0.0433581 0)
(1.0434 -0.132769 -1.6801e-20)
(0.710808 -0.0204649 -4.32818e-21)
(0.99036 -0.121124 0)
(0.87356 0.00918993 0)
(1.01447 -0.0172984 4.87267e-21)
(0.991786 -0.117866 0)
(1.02567 -0.123752 1.86567e-20)
(0.91906 -0.122629 -7.69406e-22)
(0.986747 -0.0383288 0)
(0.427213 -0.20633 -1.47519e-20)
(1.02591 -0.153293 0)
(1.02245 -0.0143369 0)
(0.475373 0.00392215 4.1321e-20)
(0.886721 0.0275384 2.12434e-22)
(0.99243 -0.264961 -4.0534e-20)
(0.115021 -0.223951 0)
(0.930796 -0.120751 -3.57514e-22)
(1.03251 -0.0988025 -5.07115e-21)
(0.98802 -0.0659259 0)
(1.02116 0.0102099 1.70432e-21)
(0.980411 -0.0152095 -8.9206e-22)
(-0.103238 0.146625 -4.56688e-20)
(0.328131 0.048906 0)
(0.999704 0.0162724 -3.59446e-22)
(1.02141 -0.00021862 0)
(1.02755 -0.116909 0)
(0.999725 -0.0141372 -6.73993e-24)
(1.01697 -0.00554173 -3.27405e-22)
(-0.0347163 0.0604481 -3.79234e-20)
(1.03032 0.00965379 -5.75754e-22)
(1.00501 -0.0125006 -1.06317e-20)
(0.0958563 0.148307 2.54145e-20)
(0.632559 -0.0423206 0)
(1.04041 0.041016 0)
(1.00442 0.00433669 2.31234e-21)
(1.01424 -0.00345806 -1.04653e-20)
(-0.0340159 0.0237074 0)
(1.0301 -0.135176 0)
(1.03153 -0.132447 -1.47677e-20)
(0.990273 0.0150805 1.88466e-22)
(0.931537 -0.164151 -2.70411e-20)
(0.896999 -0.102525 -3.65356e-21)
(0.920434 -0.309737 1.74131e-20)
(1.02123 -0.107238 0)
(1.03246 -0.0950216 -2.1144e-20)
(1.00533 -0.0241771 5.34107e-21)
(1.0203 -0.0154187 1.13638e-20)
(0.764325 -0.269185 0)
(1.05116 -0.109085 0)
(0.485721 -0.0336178 0)
(0.955719 0.0110601 0)
(1.03348 -0.0837907 -1.85435e-20)
(0.161691 0.106119 2.47278e-20)
(0.983693 -0.254418 3.89163e-20)
(0.68667 -0.0536802 -1.50561e-20)
(1.01384 -0.0119381 0)
(1.04067 -0.0779096 -4.10928e-20)
(1.00635 0.00719889 7.78823e-22)
(0.985053 -0.0576398 -1.601e-21)
(0.986384 -0.017695 6.71741e-22)
(0.472936 0.179006 -1.54007e-21)
(1.00636 -0.000332533 0)
(0.635805 -0.0696515 7.38456e-21)
(1.01719 -0.0052896 2.43504e-22)
(1.0332 -0.119078 3.29092e-21)
(0.998388 -0.00307829 -5.37807e-21)
(0.916091 -0.0992922 -2.35192e-21)
(1.03854 -0.0831794 3.6545e-20)
(1.03872 -0.0768934 1.9294e-20)
(0.929327 -0.132827 -2.5744e-20)
(1.03829 -0.0994476 -4.02137e-22)
(0.960659 -0.0566768 6.89794e-22)
(1.01394 0.000695579 -5.59313e-22)
(1.03131 -0.118557 -1.47549e-20)
(0.827667 -0.174332 2.74563e-21)
(0.972279 0.0449851 -2.74874e-21)
(0.997793 -0.0362303 -8.27466e-21)
(0.622227 -0.0396686 0)
(1.02388 -0.010212 1.26483e-22)
(0.142628 -0.188976 0)
(0.984311 -0.0198716 1.02775e-20)
(1.00461 -0.0193913 -6.736e-21)
(0.91978 -0.11178 0)
(-0.192214 0.14163 2.72292e-20)
(0.660753 -0.0517106 0)
(1.02906 -0.11193 1.3512e-21)
(0.95644 0.0190414 0)
(0.998399 0.0133471 5.0475e-22)
(0.785296 -0.0787522 -1.47501e-20)
(1.00899 -0.000548086 0)
(0.943081 -0.216848 5.98546e-21)
(0.652474 -0.0613545 -9.83174e-21)
(1.00176 0.00981524 -8.11185e-24)
(1.03509 -0.0361167 0)
(0.935797 -0.162023 1.21932e-20)
(0.723626 0.00182158 3.71478e-21)
(0.362574 -0.185783 0)
(1.01 -0.0179104 4.60539e-21)
(1.02804 0.000281011 5.43717e-22)
(0.796209 -0.287842 -4.04149e-22)
(0.672617 -0.0628701 -1.66143e-20)
(1.01566 -0.133515 -2.47445e-21)
(0.995704 -0.0458839 0)
(0.991078 0.0162784 4.57473e-23)
(0.986611 -0.0526608 0)
(0.0979974 0.182791 0)
(1.02456 -0.124554 -3.13935e-20)
(1.01682 -0.00452639 -6.68203e-24)
(0.987633 -0.0670273 3.20013e-21)
(1.01068 0.00651941 -6.77908e-22)
(0.999861 0.00037358 -1.48488e-21)
(1.03807 0.00987451 3.65799e-23)
(1.02115 -0.000163819 0)
(0.836619 -0.0697365 0)
(0.817268 -0.0164196 4.92695e-21)
(1.00446 -0.01277 7.09012e-21)
(1.01536 0.0438636 -7.86333e-23)
(0.998043 0.0137517 -5.00732e-22)
(0.993525 -0.0284945 1.42758e-21)
(0.539975 -0.0356663 5.82324e-21)
(0.879282 -0.108896 2.8977e-20)
(1.01551 -0.0698049 0)
(0.443039 -0.223961 -9.23703e-21)
(0.998703 -0.00318607 5.75577e-21)
(1.01233 -0.068582 -7.03365e-21)
(0.999254 0.0137044 -5.23121e-22)
(1.01006 0.00658621 0)
(0.998835 -0.0154231 -2.17106e-21)
(1.00388 -0.0122794 -8.85295e-21)
(0.58923 -0.0447924 -1.17047e-20)
(1.0113 -0.0108816 7.32151e-21)
(1.03925 -0.109023 -1.94697e-20)
(1.01349 -0.0124888 4.06679e-21)
(0.996035 -0.0486711 0)
(1.03496 0.0145434 -2.09333e-23)
(-0.0253063 -0.0207365 2.52224e-20)
(1.00304 0.000679764 -1.07662e-21)
(0.881649 -0.371954 0)
(0.966268 -0.078726 0)
(1.02978 -0.141772 0)
(0.996745 -0.0653129 -1.24961e-20)
(1.00277 -0.0707951 1.03578e-21)
(0.479136 -0.0312043 9.89859e-21)
(1.02666 -0.0638768 2.27265e-20)
(0.951445 -0.032049 0)
(0.485584 0.212864 -6.10706e-21)
(0.889914 -0.223661 -6.33751e-21)
(-0.0236152 0.155487 0)
(0.999364 -0.0816965 0)
(1.00992 -0.0240829 -9.63705e-23)
(0.99021 -0.0123905 0)
(1.0384 -0.0972156 -2.37981e-20)
(1.02181 -0.104864 -1.28265e-20)
(0.373506 -0.209105 0)
(1.01568 0.00157728 0)
(0.271806 -0.225003 0)
(1.00361 0.0106355 -2.04768e-21)
(1.00192 0.0106093 1.39842e-21)
(-0.0617962 -0.204413 0)
(1.02751 -0.0109665 1.16976e-22)
(1.01819 -0.172688 0)
(1.00072 -0.0484828 4.13931e-21)
(1.00769 0.00836817 0)
(0.932638 -0.0186825 8.59217e-22)
(1.00669 0.0077842 0)
(1.01464 -0.00355506 1.14557e-20)
(1.008 -0.0111877 -3.99291e-24)
(1.01939 -0.0239909 0)
(1.02588 -0.136679 -1.08928e-20)
(1.00118 0.00947943 -7.54347e-22)
(1.0301 -0.136147 1.20398e-20)