/*--------------------------------*- C++ -*----------------------------------*\
| =========                 |                                                 |
| \\      /  F ield         | OpenFOAM: The Open Source CFD Toolbox           |
|  \\    /   O peration     | Version:  v2012                                 |
|   \\  /    A nd           | Website:  www.openfoam.com                      |
|    \\/     M anipulation  |                                                 |
\*---------------------------------------------------------------------------*/
FoamFile
{
    version     2.0;
    format      ascii;
    class       volScalarField::Internal;
    location    "50";
    object      V0;
}
// * * * * * * * * * * * * * * * * * * * * * * * * * * * * * * * * * * * * * //

dimensions      [0 3 0 0 0 0 0];


value           nonuniform List<scalar> 
13851
(
0.0940906
0.0504226
0.0155734
0.094506
0.0129892
0.0875451
0.0778303
0.0210519
0.167787
0.02348
0.173427
0.0181091
0.00516381
0.0065089
0.170368
0.0353815
0.0449125
0.0597416
0.00830652
0.167957
0.107567
0.0171767
0.165549
0.188428
0.158125
0.024229
0.0320615
0.000977368
0.0919531
0.0645492
0.0859868
0.0426795
0.0191617
0.105224
0.207106
0.00543854
0.0043569
0.011391
0.0197254
0.134602
0.102617
0.171114
0.00131396
0.162881
0.159462
0.00298003
0.155614
0.111608
0.0305424
0.145986
0.0113979
0.00695549
0.00138454
0.15129
0.174811
0.169879
0.170175
0.00213107
0.0750569
0.0767977
0.0127857
0.00547418
0.0666291
0.00946593
0.0428591
0.0828162
0.0034515
0.165867
0.0217276
0.0627231
0.00128599
0.00340039
0.0478864
0.172104
0.173355
0.120004
0.0114958
0.00167444
0.0166445
0.00138144
0.0742043
0.166365
0.123103
0.00268187
0.0626522
0.0167015
0.0891123
0.0272567
0.0394097
0.183644
0.0053132
0.109613
0.128873
0.0252167
0.0419355
0.156322
0.0123291
0.00301857
0.12583
0.185363
0.00377391
0.0149887
0.080388
0.0294484
0.163099
0.0944887
0.013418
0.183619
0.00290891
0.0846141
0.158459
0.186023
0.107456
0.195669
0.163629
0.0680425
0.00391381
0.135196
0.173428
0.155237
0.00135553
0.0365956
0.00520791
0.107884
0.103373
0.176023
0.106976
0.0132724
0.0905256
0.00808029
0.115168
0.162935
0.0013359
0.128561
0.0698781
0.167459
0.166299
0.00335266
0.00674971
0.0101825
0.00336287
0.189881
0.137673
0.162648
0.0540547
0.157121
0.186978
0.0107986
0.0921856
0.160274
0.00850705
0.168357
0.00521072
0.150368
0.0392002
0.0608335
0.124075
0.0601536
0.0069783
0.0120938
0.173101
0.020102
0.00166515
0.146912
0.0644086
0.170011
0.19772
0.0206481
0.0918325
0.00299024
0.00136747
0.145207
0.120695
0.00907706
0.151545
0.105176
0.0172204
0.106679
0.00792395
0.18094
0.0357456
0.00314075
0.114658
0.0120936
0.170556
0.165724
0.0796536
0.156587
0.0120362
0.0290301
0.149808
0.0015121
0.153836
0.0190436
0.00683922
0.0490206
0.136485
0.132562
0.127359
0.120076
0.175281
0.00384922
0.17021
0.114807
0.0240833
0.116693
0.0092633
0.0412577
0.00193608
0.178712
0.00251128
0.0936901
0.139081
0.192692
0.178787
0.164921
0.0675535
0.00281477
0.128349
0.00193069
0.0332132
0.0658176
0.00255257
0.00763652
0.00221114
0.178715
0.0272364
0.163602
0.00138274
0.178437
0.0251465
0.0450167
0.143016
0.151829
0.0109068
0.0488733
0.00851033
0.0352066
0.17743
0.102275
0.0879012
0.135127
0.194638
0.0215927
0.162314
0.00164518
0.0140983
0.127123
0.0570529
0.0457082
0.121233
0.126883
0.0570337
0.0532447
0.0136804
0.0656743
0.0338254
0.00311616
0.00127116
0.123326
0.16693
0.0737837
0.0782472
0.175625
0.00673207
0.0424745
0.0564669
0.0250607
0.0026397
0.142167
0.120193
0.0444214
0.0886773
0.0168725
0.0381845
0.151357
0.171699
0.154906
0.00225357
0.148315
0.146689
0.191192
0.162563
0.0135944
0.0903958
0.0975485
0.15443
0.127689
0.0898398
0.187513
0.00859873
0.0572068
0.0650343
0.0201026
0.14272
0.00700893
0.0372404
0.0178566
0.142408
0.00177215
0.0193261
0.0404634
0.00229322
0.079954
0.0939766
0.00250301
0.152891
0.0146743
0.0302953
0.0620005
0.00772874
0.029671
0.057465
0.00293481
0.165484
0.0392704
0.176154
0.00264698
0.00621008
0.124787
0.0132645
0.132799
0.00180372
0.120802
0.172937
0.110603
0.00704477
0.0271789
0.0382246
0.129053
0.0841323
0.0668667
0.19599
0.00415457
0.0038817
0.0661869
0.00267176
0.00672826
0.150076
0.0184045
0.00850864
0.0896169
0.0408244
0.00657856
0.00747006
0.109691
0.0734622
0.00205838
0.163158
0.15096
0.151131
0.0121069
0.0378043
0.0399255
0.0014071
0.119686
0.078425
0.110996
0.141744
0.169272
0.169318
0.134646
0.00214501
0.177833
0.0877141
0.0175977
0.1683
0.0162381
0.0364461
0.0926333
0.00359919
0.0853974
0.0396809
0.0288697
0.107863
0.122149
0.133722
0.0994726
0.00298816
0.186412
0.00835693
0.100944
0.00594429
0.00317868
0.155855
0.159621
0.0969965
0.140573
0.147108
0.0678974
0.0106283
0.00589119
0.020947
0.00254284
0.00229808
0.126356
0.0982486
0.00368949
0.00135681
0.0424323
0.00367025
0.105214
0.0268156
0.168141
0.00753193
0.13407
0.0270415
0.104299
0.0841264
0.167673
0.14233
0.126521
0.00846538
0.0461606
0.00162283
0.0689736
0.0119856
0.084422
0.118055
0.0446437
0.0139567
0.0410173
0.16164
0.17506
0.148431
0.164086
0.0105282
0.128586
0.00919129
0.0794657
0.00156102
0.101719
0.0905187
0.177036
0.00849501
0.121531
0.122817
0.180432
0.0161419
0.141729
0.0184286
0.00155163
0.127821
0.16196
0.160014
0.00371673
0.185478
0.0252958
0.0146784
0.131761
0.140846
0.0655559
0.00874902
0.0070635
0.06353
0.0172048
0.188099
0.109013
0.00167955
0.0562685
0.181196
0.0238525
0.134457
0.0802892
0.144936
0.0462453
0.0606873
0.167773
0.127935
0.00371167
0.106213
0.0183721
0.161301
0.0769152
0.16729
0.16924
0.108709
0.180377
0.173255
0.100725
0.0649401
0.0930338
0.113836
0.176705
0.00407736
0.00137629
0.101627
0.0872726
0.0422073
0.128559
0.00277016
0.0919449
0.159664
0.116849
0.0117705
0.0754447
0.00169638
0.17449
0.00121407
0.029777
0.163653
0.0878398
0.0030083
0.0210695
0.138045
0.166098
0.11123
0.180741
0.146081
0.152313
0.0848905
0.00138058
0.0116911
0.00659507
0.00412283
0.0628226
0.183271
0.00623497
0.132126
0.0325592
0.02379
0.1108
0.110989
0.00285224
0.149071
0.00211812
0.00282214
0.0033123
0.0405436
0.067308
0.114971
0.164071
0.0751615
0.129015
0.0150774
0.0588999
0.0149857
0.00349719
0.172149
0.159465
0.011612
0.00130132
0.052831
0.125891
0.130153
0.0929317
0.0116912
0.047593
0.0311137
0.0170464
0.156092
0.00181993
0.00167628
0.0945766
0.141061
0.0196707
0.128302
0.145974
0.153565
0.00580947
0.0294864
0.00722851
0.00434026
0.165723
0.0830845
0.105059
0.014538
0.00916512
0.00132665
0.00304748
0.110577
0.0833993
0.025488
0.00206664
0.00567305
0.017077
0.0629915
0.167373
0.129509
0.0140931
0.175754
0.0540006
0.178418
0.150273
0.00276075
0.0105828
0.0854964
0.158635
0.00757771
0.128885
0.139974
0.143322
0.165931
0.153669
0.00286098
0.12275
0.130909
0.00365579
0.114145
0.0196121
0.001233
0.00147074
0.0775447
0.0199446
0.127315
0.173784
0.0298108
0.00399478
0.077665
0.00768419
0.0272565
0.146697
0.0391651
0.126379
0.131129
0.00969438
0.117705
0.0666225
0.138705
0.0234082
0.00744017
0.0812565
0.111722
0.0327582
0.0630526
0.0113558
0.0109149
0.00627393
0.0389609
0.00533366
0.144261
0.0524703
0.103138
0.00292011
0.100801
0.172351
0.00283396
0.066449
0.00193538
0.00189183
0.00263437
0.026331
0.129431
0.00304383
0.127839
0.151348
0.165926
0.149635
0.146458
0.069371
0.0503149
0.161947
0.00990299
0.0284004
0.00829811
0.128663
0.157848
0.138943
0.0102734
0.00644227
0.0107984
0.0235394
0.130543
0.142778
0.155077
0.0933628
0.00407637
0.0136611
0.0622654
0.171761
0.0818322
0.129006
0.0162757
0.00155826
0.0357056
0.00407632
0.111233
0.117342
0.00749072
0.00301807
0.0202088
0.0155836
0.0737564
0.0630504
0.0117692
0.0690663
0.135804
0.109916
0.130678
0.184369
0.0159985
0.00166341
0.130821
0.0616824
0.0644578
0.144088
0.0379091
0.0872053
0.00686668
0.0101463
0.00713027
0.144423
0.169708
0.13269
0.00444945
0.00413211
0.0473071
0.00193093
0.156848
0.13644
0.170116
0.118482
0.00354566
0.0484722
0.0830042
0.156921
0.0400444
0.123171
0.00198783
0.0487917
0.00170396
0.156196
0.0670333
0.00126483
0.00122315
0.00498533
0.12206
0.00258593
0.127106
0.162904
0.0146556
0.0186418
0.0432755
0.00272797
0.0884537
0.128126
0.00440413
0.172675
0.174962
0.0600668
0.132233
0.00200632
0.0243583
0.00930525
0.0732206
0.15609
0.144405
0.0842704
0.179574
0.110321
0.162168
0.111905
0.156221
0.0018736
0.130767
0.132656
0.0953912
0.0818716
0.0013147
0.153091
0.125423
0.00656933
0.0160733
0.134923
0.155851
0.0788063
0.00442775
0.0579174
0.00285105
0.0177111
0.133164
0.104325
0.00118484
0.0939578
0.0435221
0.150209
0.16655
0.162182
0.0168207
0.0312608
0.0503854
0.103517
0.135247
0.123937
0.00674337
0.127455
0.0117193
0.0762976
0.0780554
0.0113309
0.0065704
0.0022892
0.0530988
0.00988126
0.00444276
0.0939173
0.00259254
0.0518568
0.00516491
0.00702929
0.00255549
0.129994
0.0284303
0.144674
0.0662974
0.00217873
0.00223889
0.12026
0.17659
0.011955
0.154757
0.130896
0.00130372
0.15265
0.0972282
0.00176754
0.00145729
0.117201
0.118902
0.137924
0.00108751
0.00345632
0.00631361
0.106603
0.00385151
0.0122927
0.00661862
0.0136755
0.0159794
0.0541997
0.0769005
0.0400009
0.0106342
0.000794051
0.098733
0.022769
0.00203249
0.00479119
0.00143684
0.088799
0.019558
0.142496
0.0364034
0.0599981
0.0112157
0.194504
0.00171279
0.118503
0.00752459
0.106898
0.0143106
0.016296
0.0206238
0.00300862
0.0143056
0.0431498
0.166721
0.00836138
0.0930544
0.0575947
0.0562323
0.00115938
0.169159
0.00719786
0.148439
0.0790241
0.00176342
0.00289779
0.00143803
0.138207
0.121827
0.114238
0.00169672
0.174145
0.0649636
0.00159491
0.133698
0.0401514
0.00971923
0.138069
0.010746
0.0737756
0.129262
0.0289188
0.00184252
0.00878504
0.0423611
0.101606
0.151168
0.00200632
0.00732245
0.128235
0.0264527
0.145951
0.120636
0.157884
0.140993
0.0133996
0.126143
0.0916457
0.12256
0.106974
0.0601883
0.0013039
0.00295168
0.0282531
0.00782066
0.10007
0.0255011
0.109621
0.146874
0.0891623
0.0962451
0.00128363
0.0909219
0.0116795
0.0871911
0.0456138
0.156845
0.00121916
0.129029
0.0248728
0.0270123
0.00422576
0.0217841
0.0218254
0.00122441
0.0256157
0.0484001
0.0140802
0.0767574
0.00131218
0.0177057
0.178371
0.0863984
0.0177104
0.0133197
0.0090328
0.144965
0.00954358
0.132921
0.12762
0.00565746
0.163723
0.00656831
0.0357787
0.142098
0.0715795
0.132233
0.125636
0.135991
0.0655956
0.00394203
0.129883
0.00383625
0.00187463
0.0287087
0.006708
0.0788268
0.178798
0.156947
0.0914422
0.128917
0.00855402
0.0489741
0.11837
0.0791534
0.175358
0.00149514
0.0132373
0.0595899
0.00332067
0.00426481
0.0908039
0.100661
0.0233263
0.128494
0.139171
0.0929289
0.101326
0.153334
0.157385
0.134969
0.00199335
0.141344
0.00477234
0.0317821
0.0382299
0.165863
0.148746
0.013043
0.051036
0.0927704
0.133004
0.104634
0.100557
0.0727526
0.0149109
0.147053
0.0397953
0.00561257
0.128047
0.161834
0.0961536
0.0443492
0.0807065
0.0338506
0.0125633
0.015758
0.0508759
0.10343
0.0152033
0.109058
0.0015827
0.00404614
0.0621692
0.00581176
0.127595
0.158059
0.0967922
0.120188
0.141742
0.138752
0.149215
0.137223
0.00970873
0.135097
0.137744
0.0576605
0.0189102
0.00368708
0.0478576
0.0590241
0.163203
0.0103212
0.006801
0.0498508
0.00187251
0.00961485
0.00728355
0.142173
0.00943718
0.0936433
0.138032
0.0996147
0.00133429
0.00735992
0.127156
0.0319168
0.153239
0.111008
0.147136
0.0874409
0.0965078
0.0686013
0.13157
0.0171145
0.0519913
0.00129092
0.187951
0.0325347
0.134436
0.00685644
0.0190575
0.00282156
0.00632193
0.00698289
0.0108827
0.0016143
0.123334
0.00379821
0.147314
0.0206763
0.138591
0.0531825
0.0204568
0.0757959
0.00152909
0.0322385
0.0317761
0.147049
0.00593817
0.0990918
0.137074
0.0373931
0.0445904
0.1674
0.0675784
0.0285704
0.11146
0.0419742
0.111421
0.0249356
0.100273
0.109623
0.00392064
0.0359738
0.151498
0.0576261
0.00242817
0.0225744
0.0150246
0.00603122
0.112499
0.141439
0.00355864
0.0687326
0.0170991
0.0267659
0.00247231
0.112774
0.00795154
0.0458928
0.0583927
0.0737326
0.0964289
0.00122832
0.0462442
0.00151427
0.160459
0.0228543
0.00511833
0.040408
0.00255125
0.00364988
0.149819
0.0256372
0.00166044
0.0246932
0.00280918
0.131471
0.0933077
0.00111255
0.00696688
0.00207311
0.148381
0.0861265
0.0996234
0.00148176
0.00513023
0.0632373
0.0916075
0.0156668
0.0115197
0.00346325
0.0918541
0.117307
0.00265329
0.0326184
0.107441
0.00561474
0.00617576
0.0490011
0.13691
0.00102529
0.00265646
0.15197
0.136881
0.0109548
0.148024
0.164041
0.110329
0.10266
0.0925818
0.0107629
0.0400946
0.00372841
0.0538949
0.00123793
0.0989755
0.00991842
0.00539432
0.00762544
0.109517
0.114953
0.0103687
0.128678
0.113877
0.155532
0.0878878
0.104885
0.00378791
0.13482
0.122197
0.00163634
0.0199783
0.0132296
0.0517988
0.134583
0.146067
0.0213923
0.00300108
0.00302946
0.124331
0.0113459
0.139836
0.0875472
0.146015
0.00169677
0.0189043
0.0337677
0.00678183
0.00896147
0.0665074
0.00323384
0.00281813
0.110757
0.141084
0.155659
0.0208242
0.0114259
0.154176
0.00568902
0.115082
0.163718
0.0122502
0.00161155
0.0692111
0.00535802
0.0513858
0.00185115
0.0906047
0.0791237
0.0902589
0.0507151
0.152415
0.133253
0.050679
0.00231954
0.00216591
0.0345537
0.00270975
0.0436968
0.00185947
0.00228785
0.0211844
0.116504
0.113075
0.13454
0.114789
0.00399827
0.156391
0.0407211
0.0641028
0.00634542
0.00242297
0.00312425
0.0895875
0.00326433
0.0533469
0.0510805
0.122107
0.127668
0.0018112
0.0403284
0.00145002
0.0286108
0.0915019
0.00631421
0.1457
0.0367772
0.084333
0.00458747
0.101263
0.0457645
0.0892835
0.121583
0.00445716
0.0477273
0.0249301
0.119171
0.0228932
0.0121573
0.00120603
0.115292
0.0117781
0.115678
0.0615788
0.150228
0.00637536
0.021771
0.0178696
0.0361153
0.137186
0.11029
0.110693
0.161317
0.135697
0.125882
0.128527
0.00210454
0.035907
0.0770001
0.103805
0.160486
0.00909323
0.00335571
0.00686701
0.0194612
0.0911948
0.135571
0.155814
0.121137
0.0056805
0.00165582
0.164776
0.0467383
0.0316664
0.00321267
0.0625828
0.0432475
0.00131173
0.04045
0.142669
0.00330431
0.00233079
0.0902223
0.147149
0.0966203
0.00156404
0.00542774
0.02483
0.0062577
0.00350308
0.0411665
0.00233818
0.0144742
0.0939053
0.00664714
0.00725745
0.14661
0.00193215
0.0785502
0.114162
0.148752
0.0056565
0.112265
0.00488153
0.0552605
0.0465223
0.0172779
0.119793
0.00376675
0.00228741
0.145352
0.0524446
0.00495841
0.0126543
0.00152133
0.0204447
0.154545
0.113088
0.0966617
0.144142
0.0843344
0.0439151
0.0998755
0.010194
0.0185975
0.0213928
0.120947
0.141993
0.132698
0.0262895
0.0257846
0.0947259
0.0114613
0.0190205
0.0303661
0.012629
0.0144193
0.0623302
0.00233921
0.113833
0.1303
0.00461442
0.00337207
0.00103453
0.0896593
0.166389
0.0015194
0.145632
0.126783
0.0258914
0.144514
0.0154585
0.0118024
0.148517
0.00134517
0.00375271
0.0513674
0.00713425
0.001242
0.127818
0.0406688
0.00473395
0.00162841
0.0373957
0.00834984
0.140355
0.160639
0.140641
0.0449453
0.00221399
0.00364388
0.00153734
0.00339018
0.0380365
0.0381554
0.0294874
0.128543
0.155492
0.130767
0.00383329
0.121575
0.00296663
0.0392277
0.0622286
0.0107907
0.00386511
0.000808303
0.00300003
0.0155911
0.100505
0.126165
0.0031467
0.00356811
0.0345264
0.14366
0.151457
0.0171815
0.0339702
0.00548228
0.0125879
0.0403644
0.15032
0.00563484
0.134835
0.00124054
0.0543223
0.129288
0.00974285
0.0954981
0.00155125
0.160061
0.001755
0.144914
0.0424498
0.0659138
0.140418
0.0633728
0.0175557
0.0150924
0.00194724
0.0023995
0.0318248
0.0250662
0.0843394
0.0033157
0.00198643
0.129201
0.150146
0.140743
0.166269
0.00142409
0.178907
0.0537674
0.0197254
0.046949
0.0498482
0.0731136
0.0786688
0.00887682
0.00219645
0.110798
0.0693959
0.00492103
0.0551379
0.0210186
0.0409007
0.00185241
0.0262654
0.0159328
0.11473
0.1487
0.146483
0.00196856
0.00214974
0.0129184
0.152864
0.110856
0.129863
0.000938389
0.14256
0.00237839
0.00213724
0.0416372
0.014305
0.0789531
0.0398063
0.0713215
0.0774694
0.00130931
0.0443386
0.00902133
0.157095
0.0853721
0.146191
0.0782591
0.00478419
0.00388536
0.0308848
0.00238872
0.00526132
0.165076
0.102457
0.144035
0.104675
0.00188725
0.00388917
0.0452761
0.145078
0.0724804
0.0176155
0.0182594
0.000960783
0.0335954
0.0022208
0.0151036
0.0626524
0.107976
0.147797
0.0104049
0.124629
0.142891
0.00153388
0.0199089
0.00554521
0.104419
0.0323636
0.134246
0.00157216
0.003569
0.111823
0.0877949
0.0368681
0.089111
0.132189
0.10934
0.135346
0.00109162
0.0317936
0.000986691
0.0375854
0.00617912
0.0166399
0.00167134
0.119555
0.0264323
0.00161173
0.0408266
0.037485
0.00129671
0.141355
0.114327
0.0298376
0.00288722
0.00132069
0.0365003
0.0903359
0.12236
0.149154
0.0461677
0.195374
0.00324575
0.145156
0.0392443
0.0764569
0.142363
0.0198728
0.00819092
0.0863092
0.00624087
0.101273
0.152669
0.0201134
0.00155407
0.0217473
0.021285
0.0044261
0.00591912
0.129169
0.0980157
0.0349798
0.00261561
0.00233521
0.11039
0.00122474
0.049221
0.112391
0.0830637
0.00363137
0.0147241
0.116202
0.000753823
0.0692869
0.0480256
0.120973
0.00195151
0.120099
0.00519842
0.0678112
0.0369415
0.0568084
0.114821
0.00802217
0.000678457
0.139225
0.0313846
0.0108994
0.15271
0.0811134
0.0950409
0.0156771
0.0118273
0.0115141
0.046448
0.00283474
0.0337809
0.0120589
0.0425128
0.0156204
0.112135
0.00137143
0.00150992
0.0265847
0.114483
0.00928826
0.00250318
0.0670973
0.0262446
0.128456
0.0351192
0.00115438
0.0379782
0.00215275
0.0690184
0.0114513
0.0703565
0.00127788
0.141173
0.144503
0.105903
0.024371
0.00332855
0.0036903
0.00886129
0.0309722
0.144696
0.0402702
0.0672455
0.126552
0.00526238
0.135202
0.0153943
0.0936655
0.0438218
0.14753
0.15085
0.139856
0.0672578
0.0514138
0.0257166
0.00151943
0.0999449
0.0426348
0.0243121
0.145071
0.0938087
0.0557488
0.056295
0.0210349
0.134415
0.113708
0.00683348
0.162663
0.0610846
0.0934668
0.0594963
0.14218
0.00273564
0.0713541
0.117868
0.00517221
0.0316897
0.0377552
0.00241738
0.00752343
0.0800473
0.0293654
0.0537373
0.0524225
0.0764447
0.148528
0.0317887
0.00140612
0.00176689
0.00308696
0.0540386
0.00187312
0.0700664
0.0527334
0.157007
0.00294343
0.114098
0.0357113
0.124409
0.00269087
0.00282801
0.107499
0.162831
0.0392312
0.113949
0.0933963
0.00701398
0.0902583
0.114261
0.00141619
0.00234278
0.14202
0.0333015
0.0419516
0.00358109
0.150734
0.00255705
0.00173934
0.109712
0.055571
0.00389602
0.0148807
0.097997
0.104186
0.113667
0.0424224
0.146262
0.123339
0.00245125
0.00151715
0.00207872
0.137786
0.00270712
0.0771235
0.00699236
0.146106
0.0539694
0.0417521
0.14128
0.00329222
0.0443119
0.0112673
0.00567903
0.00244888
0.0223326
0.0112741
0.00265365
0.00253129
0.124538
0.00096425
0.138639
0.119573
0.107832
0.11498
0.139282
0.00193717
0.0679595
0.140158
0.0448455
0.00164841
0.00217614
0.0330686
0.149061
0.0289517
0.0220209
0.00303812
0.116226
0.125891
0.164171
0.0138524
0.099009
0.140159
0.00158898
0.0161891
0.0177899
0.110599
0.128125
0.0636921
0.00200401
0.132405
0.00156243
0.0173343
0.0806674
0.00188239
0.0024546
0.15174
0.0088621
0.0417216
0.001955
0.133769
0.0435403
0.139592
0.063337
0.0295564
0.0039267
0.150742
0.114209
0.112273
0.00738449
0.0206347
0.00185037
0.00177758
0.0744631
0.00141574
0.049123
0.0173909
0.00406151
0.00134924
0.0447831
0.00162646
0.0146767
0.0734163
0.141528
0.00425661
0.0211693
0.0425044
0.00603345
0.147214
0.0023218
0.137469
0.0147451
0.139048
0.0610223
0.00146084
0.0174172
0.00693043
0.0458554
0.0399492
0.0458993
0.00513038
0.0203395
0.00217773
0.0769926
0.00204169
0.0829551
0.00564634
0.00938195
0.00364677
0.111253
0.126287
0.0983652
0.00231317
0.112769
0.131444
0.137335
0.0611574
0.14732
0.114503
0.00347044
0.00320092
0.00234295
0.0023348
0.125211
0.00403544
0.00256098
0.00580261
0.00162552
0.00158222
0.0463016
0.00223629
0.0368919
0.0221436
0.00265401
0.00603086
0.160188
0.00270395
0.0875895
0.0866096
0.0129753
0.00172481
0.00239066
0.000961629
0.0398893
0.0617417
0.144916
0.002712
0.00244711
0.117297
0.0119444
0.114743
0.090668
0.0786012
0.00355228
0.00352299
0.0549235
0.107616
0.0451808
0.0676155
0.0981969
0.0571471
0.124054
0.0447154
0.0265273
0.00554507
0.0896171
0.00612424
0.0752969
0.0508005
0.0017299
0.00258019
0.0506251
0.0416398
0.126969
0.0198844
0.0670073
0.149329
0.0210972
0.122815
0.0799193
0.0420555
0.115537
0.0515337
0.00871872
0.0214983
0.00153391
0.0897738
0.181854
0.00257215
0.106611
0.0336244
0.115573
0.102241
0.151837
0.0776185
0.135675
0.0322163
0.0995884
0.00170426
0.0822806
0.0618394
0.0396548
0.148346
0.0873551
0.0299039
0.105456
0.0104262
0.00174532
0.0630162
0.0543157
0.126269
0.0819632
0.110426
0.0640288
0.124872
0.0341723
0.00405229
0.106763
0.00897983
0.00144825
0.136677
0.107725
0.139038
0.0343689
0.0102791
0.10375
0.0146539
0.00368476
0.0616396
0.133209
0.00123282
0.159559
0.113573
0.147281
0.176137
0.0966411
0.135462
0.0783225
0.00423094
0.0523849
0.0230399
0.0192128
0.0673858
0.0667411
0.0210292
0.00159873
0.00176744
0.00870657
0.00981645
0.00340629
0.00652207
0.134778
0.0561474
0.142493
0.0201809
0.115237
0.0398631
0.0106718
0.132526
0.0195636
0.02186
0.131025
0.118631
0.0819317
0.115274
0.144809
0.139696
0.00458179
0.00417363
0.0603127
0.0827226
0.147219
0.0114977
0.00563216
0.00164207
0.0141861
0.00341333
0.121114
0.00245466
0.00132128
0.0762517
0.0702175
0.0820547
0.136862
0.0662576
0.0950957
0.101557
0.0420389
0.00167972
0.00948304
0.00151342
0.116737
0.0107866
0.00420291
0.116824
0.126638
0.122851
0.149041
0.0582916
0.105044
0.0104196
0.0833681
0.00254859
0.0337492
0.00243469
0.00846756
0.00225495
0.00109381
0.0875923
0.132379
0.128394
0.0799202
0.149782
0.114082
0.00167548
0.00323008
0.0880962
0.0741579
0.0876144
0.0221667
0.0106756
0.137982
0.0698819
0.0043912
0.126654
0.0973456
0.0243358
0.0122361
0.0616725
0.00385581
0.00561504
0.0381788
0.00278089
0.00730228
0.00130259
0.149854
0.0454409
0.130177
0.0339122
0.00348682
0.13292
0.00144315
0.127264
0.174015
0.10982
0.00193971
0.0147998
0.00831349
0.10566
0.149072
0.031205
0.00195144
0.0267053
0.120838
0.0969884
0.0851887
0.0477149
0.120325
0.125616
0.00196811
0.00240507
0.00200451
0.022408
0.00620672
0.00224318
0.00850504
0.00217946
0.0118877
0.154895
0.134697
0.16478
0.0696449
0.00265601
0.00272565
0.143495
0.00151638
0.00178478
0.021909
0.107118
0.133687
0.00661576
0.00392386
0.00164436
0.0250122
0.00163256
0.159369
0.00614087
0.0100673
0.139789
0.00248861
0.117174
0.00646893
0.00199583
0.0384871
0.00557196
0.0757032
0.137825
0.00210619
0.00161196
0.00790514
0.028074
0.00127324
0.00532486
0.0016921
0.00187186
0.00173273
0.00672971
0.00662372
0.0750309
0.0946071
0.0148709
0.00143153
0.138848
0.00133568
0.161932
0.0132793
0.0310165
0.13224
0.00309456
0.112367
0.0058678
0.00153058
0.115623
0.0120956
0.00974501
0.00175337
0.00659984
0.0105355
0.111947
0.0777901
0.00263433
0.128358
0.137184
0.0171372
0.0391392
0.00149904
0.0346533
0.137065
0.0396254
0.137702
0.0106162
0.0541434
0.0065668
0.142213
0.147942
0.00150849
0.00960145
0.110777
0.0019247
0.00446458
0.139434
0.0464248
0.054296
0.00186196
0.116289
0.143866
0.00574046
0.0536937
0.00243304
0.00170249
0.0111881
0.0452277
0.0706574
0.0972723
0.0146296
0.030891
0.0945231
0.00344866
0.0137071
0.128313
0.0878898
0.0112361
0.0560059
0.00141046
0.00511128
0.1328
0.00228696
0.00909049
0.0187148
0.117562
0.00240188
0.00110998
0.00383075
0.108413
0.150914
0.0122434
0.0358979
0.130496
0.091343
0.1153
0.121578
0.0284784
0.127064
0.13161
0.0152226
0.00639006
0.00124971
0.0409569
0.00388255
0.00159047
0.106124
0.00360695
0.00351678
0.001365
0.157971
0.0113199
0.00117006
0.00229655
0.00645095
0.0070662
0.0810074
0.00234686
0.0117094
0.00466582
0.145059
0.0165513
0.01299
0.115063
0.0101589
0.00337648
0.114154
0.00238064
0.00331445
0.116744
0.131196
0.0811386
0.114159
0.0579949
0.146353
0.130321
0.00278379
0.00395975
0.0514701
0.00851794
0.200901
0.0206158
0.00138189
0.00152189
0.00146252
0.0273533
0.00165435
0.0779186
0.137626
0.0339083
0.0015618
0.00360204
0.00666932
0.00395457
0.0466432
0.127227
0.115534
0.0548076
0.0352894
0.00269426
0.0032105
0.0310809
0.00278079
0.00138103
0.114797
0.00346906
0.0873356
0.0229381
0.0641348
0.0975764
0.150815
0.0292773
0.0333332
0.00385492
0.0015289
0.141099
0.0141127
0.0272416
0.0195894
0.00380563
0.0143484
0.00247632
0.101662
0.00777381
0.00209854
0.00703169
0.00584751
0.116868
0.00647893
0.00234731
0.00204633
0.147721
0.00652867
0.147394
0.0689388
0.0969934
0.0167689
0.00244313
0.00118705
0.115805
0.00233481
0.0170828
0.152152
0.146307
0.0755884
0.160324
0.0192352
0.00226391
0.00184789
0.00758678
0.0984798
0.0810816
0.0184354
0.144969
0.00168902
0.0391638
0.101315
0.0145255
0.00786874
0.0207479
0.00129771
0.0102214
0.00128865
0.0417247
0.00396736
0.00436931
0.00279162
0.141638
0.079842
0.0194959
0.0793311
0.00402182
0.00120818
0.0178736
0.00767011
0.00501078
0.00652353
0.0185613
0.0219577
0.0486028
0.136821
0.00574298
0.0267521
0.033946
0.0200973
0.0223933
0.0296761
0.00199233
0.00492468
0.0608514
0.0414731
0.0192783
0.0398735
0.10913
0.0140542
0.0115958
0.135277
0.00188115
0.0881528
0.00144941
0.10577
0.0682626
0.0528383
0.00147255
0.0351215
0.00151723
0.00333012
0.0189835
0.0631469
0.00619768
0.0152826
0.00584081
0.0478614
0.179784
0.0123397
0.1378
0.00143825
0.140204
0.143471
0.124888
0.0364226
0.0316879
0.0432685
0.0121587
0.0138443
0.0660354
0.041727
0.00381467
0.00284131
0.0299204
0.0166868
0.137671
0.0110295
0.0205656
0.00921406
0.0733282
0.0122996
0.0217543
0.148741
0.149498
0.0744192
0.0429515
0.104057
0.00141636
0.14223
0.00808309
0.0413643
0.00274247
0.00391911
0.0290243
0.0136074
0.0102095
0.00404911
0.0021331
0.0477815
0.0385932
0.0133989
0.0186285
0.0895435
0.00442658
0.00122728
0.140442
0.135738
0.00385061
0.0164618
0.0206222
0.108347
0.0188861
0.116538
0.036848
0.0106085
0.032897
0.0295684
0.128648
0.145534
0.0201499
0.00154029
0.0924259
0.0204573
0.00452851
0.151778
0.130837
0.00145027
0.0108474
0.00787746
0.111395
0.0359913
0.0220853
0.168627
0.114933
0.00825464
0.0222991
0.00143081
0.0064628
0.0266577
0.00240932
0.0145611
0.00787801
0.128725
0.126201
0.019356
0.0292539
0.0193909
0.0166367
0.0923436
0.0178464
0.039255
0.0942157
0.150811
0.0383807
0.0954916
0.0378152
0.00803976
0.0109093
0.135489
0.007789
0.0210074
0.00372923
0.0155625
0.00134467
0.0132872
0.00156156
0.146179
0.00885777
0.0269453
0.123937
0.130387
0.0162636
0.0257242
0.0716473
0.131311
0.0099181
0.00133063
0.0324225
0.116133
0.0662976
0.00459975
0.0150068
0.0255037
0.147166
0.130473
0.0378378
0.0401914
0.084266
0.0215059
0.00168764
0.0142613
0.00175476
0.1466
0.0379746
0.110186
0.0401197
0.0810359
0.121463
0.0144513
0.0376993
0.114194
0.00184743
0.0328049
0.00135991
0.128437
0.0270868
0.0213825
0.00879295
0.0226306
0.0078738
0.0284012
0.0116783
0.0209146
0.127046
0.0027269
0.00383732
0.0640155
0.139547
0.0258346
0.110511
0.111681
0.00910095
0.13824
0.00180542
0.00486349
0.00537506
0.0719493
0.139368
0.037377
0.00965489
0.0159836
0.0380397
0.0378377
0.127821
0.039606
0.10395
0.0649863
0.00141215
0.06354
0.0806739
0.00412767
0.021452
0.0406875
0.0740862
0.0367518
0.139225
0.0405426
0.00180124
0.133077
0.0251957
0.00250559
0.00693598
0.0128297
0.0287068
0.0302563
0.00193059
0.0063964
0.0374002
0.0209869
0.047801
0.0529577
0.027332
0.0806314
0.12443
0.00199836
0.120902
0.0438868
0.133728
0.0684354
0.0238859
0.133145
0.14184
0.0168405
0.104576
0.0517501
0.0186451
0.0268747
0.0144124
0.0322833
0.129392
0.0292373
0.0109861
0.0356824
0.0190181
0.0230648
0.0192394
0.0272975
0.00172756
0.107497
0.00391405
0.011015
0.00441969
0.0220755
0.0137691
0.00933994
0.0422001
0.0123162
0.0116801
0.03374
0.0330249
0.110471
0.112634
0.154823
0.0443507
0.00137857
0.146888
0.00768964
0.0735041
0.0324279
0.0483711
0.00706844
0.0350616
0.0217961
0.0756818
0.0473132
0.0435312
0.136633
0.0395694
0.0359074
0.140214
0.0416033
0.0487419
0.129441
0.0207843
0.0319073
0.00326231
0.0434646
0.00421417
0.0119625
0.0301975
0.106199
0.0179247
0.132651
0.0263336
0.0197993
0.00377315
0.0419224
0.0297463
0.0222795
0.13849
0.0159828
0.0409644
0.00285264
0.129661
0.0574162
0.00503482
0.0377004
0.0389593
0.150121
0.115735
0.14674
0.0206671
0.00350889
0.0333827
0.0570991
0.0435255
0.0196721
0.117719
0.0553193
0.0448335
0.0379542
0.049177
0.164222
0.00530984
0.142189
0.00282411
0.162965
0.0032734
0.139916
0.142868
0.00719879
0.0557527
0.0401494
0.0115519
0.0407301
0.0223473
0.128919
0.132912
0.0768742
0.0451717
0.00149105
0.116774
0.0373008
0.052875
0.0503531
0.0761986
0.0591794
0.0101589
0.0212818
0.0431244
0.0315877
0.0403015
0.15545
0.0630305
0.0145628
0.0822664
0.0643735
0.00748578
0.129564
0.0346744
0.0142681
0.0391188
0.00256384
0.150272
0.040831
0.17109
0.0212446
0.023179
0.0684778
0.00273966
0.145453
0.069124
0.0394397
0.145911
0.00325282
0.15222
0.0823692
0.0170145
0.0159081
0.038425
0.148194
0.0287188
0.0216274
0.00161318
0.073685
0.0296793
0.145602
0.140401
0.0402811
0.00797014
0.00249213
0.0764354
0.125173
0.132503
0.0834872
0.0370542
0.00371431
0.00269291
0.0826623
0.139752
0.122617
0.0382575
0.00482506
0.00276886
0.0577018
0.00671034
0.154395
0.0974812
0.0160543
0.108853
0.0825595
0.0213926
0.00632368
0.00572501
0.0378042
0.0460732
0.00521724
0.0170399
0.046907
0.029783
0.00578938
0.0809039
0.0666926
0.0352141
0.119428
0.0825919
0.13369
0.150948
0.0230536
0.0345955
0.0484338
0.0132748
0.0128905
0.0825519
0.0374149
0.150458
0.0970657
0.0456214
0.0368868
0.0165646
0.0338245
0.00335872
0.051621
0.0472329
0.0540743
0.00443237
0.00193114
0.0277212
0.152716
0.0105586
0.0411709
0.0979148
0.106457
0.0424164
0.132524
0.130045
0.0567135
0.0532685
0.00670068
0.0534666
0.0947884
0.0456385
0.00268587
0.00145503
0.119663
0.0615452
0.038609
0.0373858
0.00339736
0.0554228
0.00431661
0.0116168
0.10171
0.0534664
0.00133076
0.0770689
0.0637258
0.0345681
0.0433365
0.0811799
0.063219
0.0791672
0.00988908
0.121995
0.0208365
0.0474199
0.0397547
0.0792666
0.107204
0.0979868
0.0591468
0.0642092
0.119146
0.152055
0.0805001
0.0646231
0.0657587
0.0331315
0.0921045
0.0957664
0.0822967
0.0648168
0.0298835
0.115191
0.138091
0.00167155
0.0450297
0.00262127
0.0143429
0.133358
0.0568507
0.0159821
0.150171
0.0964916
0.156543
0.0492648
0.0606492
0.0126931
0.0592147
0.11106
0.00660777
0.00368588
0.0175291
0.146953
0.00252115
0.060564
0.132188
0.0153242
0.151182
0.0812292
0.00290606
0.131255
0.0109317
0.0881595
0.00692333
0.00662411
0.0368735
0.100892
0.130088
0.00888282
0.0516039
0.0502091
0.0437715
0.00418586
0.120513
0.00753538
0.063017
0.00125787
0.0833056
0.108779
0.114183
0.0609558
0.052398