/*--------------------------------*- C++ -*----------------------------------*\
| =========                 |                                                 |
| \\      /  F ield         | OpenFOAM: The Open Source CFD Toolbox           |
|  \\    /   O peration     | Version:  v2012                                 |
|   \\  /    A nd           | Website:  www.openfoam.com                      |
|    \\/     M anipulation  |                                                 |
\*---------------------------------------------------------------------------*/
FoamFile
{
    version     2.0;
    format      ascii;
    class       volScalarField;
    location    "150";
    object      ddt0(k);
}
// * * * * * * * * * * * * * * * * * * * * * * * * * * * * * * * * * * * * * //

dimensions      [0 2 -3 0 0 0 0];


internalField   nonuniform List<scalar> 
13917
(
-3.21865e-07
-1.6148e-07
-0.0041706
-3.02074e-07
-2.49988e-08
3.30926e-06
-0.00258652
-0.00501159
-0.00397855
-1.88782e-07
1.22035e-07
-9.11483e-07
-2.90167e-07
-0.000162275
-1.17248e-07
-1.5779e-07
-1.59432e-07
-3.89531e-07
-9.16766e-07
-4.45647e-08
-7.71237e-09
-0.00244001
-4.79269e-08
-0.00558774
-6.67864e-08
-0.00198834
1.80299e-07
6.27644e-08
-2.06055e-07
-4.06892e-07
-3.42731e-07
-2.843e-07
5.83283e-08
2.97505e-08
-3.8977e-08
-4.0295e-05
-4.85228e-08
-0.000428231
-3.59723e-07
-0.000394605
-9.5346e-08
-2.65549e-09
-2.31563e-08
2.60361e-08
-2.65137e-07
-2.00626e-08
-4.28186e-07
-2.81682e-07
1.54304e-06
-6.62708e-08
-4.35322e-07
-2.20299e-09
1.47079e-05
6.49214e-08
-1.58011e-07
-3.60237e-07
1.65493e-07
-1.03432e-07
-3.27234e-07
-1.97113e-07
-0.00563739
-1.66116e-07
0.000120157
-4.96536e-08
3.72802e-06
-0.00460959
5.15767e-10
2.37549e-09
2.79626e-07
-2.63296e-07
-2.19717e-08
-0.0042393
0.000608
-5.22232e-08
1.14334e-06
-8.21409e-07
0.000254148
-2.70537e-07
-0.00164051
-9.23734e-09
-2.3825e-08
5.88456e-10
3.67757e-07
-0.000519131
0.00112321
-2.5477e-07
-3.36626e-08
0.00599762
-3.56201e-07
-4.96418e-08
0.000343179
-3.59288e-07
-1.51631e-07
-8.99034e-08
0.0153356
2.83025e-07
2.94499e-09
-3.16402e-07
-6.9156e-07
-1.63483e-07
-7.46714e-08
8.89058e-08
1.49888e-08
-3.02764e-07
-1.03123e-07
-0.00437986
-1.43972e-07
-2.65197e-07
-1.63252e-07
-3.14556e-07
0.00133215
-0.000480151
-9.15415e-07
-0.00437115
1.22399e-08
-1.53366e-06
-6.41711e-08
4.4405e-07
-0.000644465
4.36706e-08
-2.40503e-09
4.47155e-07
-0.000582631
3.8955e-08
-7.38113e-08
-9.49689e-08
-1.88985e-07
-7.66336e-08
-4.45588e-08
1.90889e-07
-0.000878467
1.30513e-08
-2.04781e-07
-4.13394e-09
-3.81299e-05
-0.00567072
-3.32576e-07
-4.46392e-08
3.74893e-11
1.66354e-08
4.35383e-06
-1.35913e-07
-3.01358e-08
2.47406e-07
5.33209e-09
-0.00502471
-2.15446e-07
-5.68543e-10
-1.14594e-07
-2.72764e-07
-5.62032e-07
-1.10574e-06
-5.3354e-07
-1.75174e-07
-3.41376e-07
0.000725641
-2.79434e-07
0.000125117
0.000254721
-1.18045e-05
-4.04772e-08
3.39352e-07
-6.73689e-09
-1.3413e-07
-9.38829e-07
-8.17393e-07
-2.96287e-07
-4.05814e-07
-1.79956e-07
6.32224e-08
-2.75451e-07
0.000917592
-9.2326e-07
-1.58952e-07
-0.00291994
-1.07514e-07
-0.000954319
2.79854e-07
-0.00323067
-1.45218e-07
-1.64593e-07
-3.48997e-07
-1.41029e-07
-3.61883e-08
-2.56326e-07
-0.00239651
-1.24906e-06
0.00056843
-3.80642e-07
-7.08338e-07
1.43553e-05
0.00106884
3.47453e-07
-4.66154e-08
7.52873e-08
4.03584e-07
-2.70283e-07
-1.61476e-07
-5.25762e-07
-0.000207507
-3.57591e-07
-6.64046e-08
-4.40788e-07
-5.94992e-07
0.000509971
-4.50901e-06
-3.96789e-08
-1.06608e-07
-3.31364e-07
-0.00329485
-3.33231e-08
-0.0024768
0.00032122
-7.1229e-07
-9.59142e-08
7.41792e-07
-4.30465e-07
0.000795585
-7.9626e-08
-0.00591504
-1.42705e-07
-2.64189e-07
-8.87101e-08
-0.000262614
-0.00431957
-1.5918e-07
5.24741e-06
-3.23281e-07
-1.00241e-07
4.53398e-05
-9.51386e-07
-4.0529e-07
-0.00537722
0.000217314
-7.29186e-08
-2.8482e-07
0.000314725
0.000834358
-2.23437e-08
-6.96679e-08
-0.000460534
1.29439e-07
-6.14963e-09
-3.95806e-06
-1.97705e-07
-5.20988e-08
-3.16486e-07
-1.64639e-08
-3.79875e-07
0.000272503
-2.00238e-07
-2.93335e-07
2.1681e-08
-1.66716e-07
-9.92734e-08
-7.38921e-07
-0.000557902
-6.62324e-07
-2.68563e-07
-1.30439e-07
-3.51285e-09
-0.000541481
-0.00338154
4.64579e-05
-1.00646e-07
0.000846857
-0.000115702
-1.14075e-05
-0.00150162
-8.41979e-07
-1.60698e-08
-7.95428e-08
-3.92854e-07
1.43931e-05
-1.43466e-07
-3.12186e-07
-8.53657e-06
-6.32833e-07
-4.25976e-08
-0.000183274
-4.6874e-08
-0.00415277
-3.40146e-07
-1.45136e-08
-1.93509e-07
-2.23815e-07
9.09204e-07
5.54898e-06
-2.15523e-07
-2.07858e-07
-4.16251e-06
-0.00550936
-0.00440688
-7.96359e-08
-0.000119062
-1.1655e-08
-2.08922e-07
-6.21702e-08
4.199e-06
-5.2335e-08
-2.35901e-07
-2.99128e-07
-1.85292e-07
-4.53179e-07
-2.16666e-07
7.47463e-07
-1.77934e-07
-2.62457e-07
-2.04871e-07
-9.60516e-08
0.00135626
-0.000536666
-6.45146e-08
-8.52413e-08
3.59599e-05
-1.4481e-07
0.000629173
-1.7758e-07
-0.000336994
-1.28092e-07
-1.23799e-06
-4.27486e-07
-1.01537e-06
-4.42089e-08
3.73029e-06
1.25683e-07
-1.8478e-07
1.29257e-07
1.86395e-06
-1.25015e-07
-0.000746024
-1.38029e-07
-0.000132925
2.3295e-08
-0.000447148
-3.15833e-07
0.00150345
3.48229e-07
1.06206e-07
4.48544e-08
-0.0034866
-1.32474e-08
-2.82783e-07
0.00138383
-7.54255e-08
-1.57796e-07
-0.000174214
-5.31913e-07
-1.62005e-07
-1.21446e-06
-3.39874e-07
-7.28209e-08
-0.00049749
-3.69356e-06
-5.12799e-08
-8.70418e-08
-7.16209e-09
-1.21415e-07
2.14252e-06
-0.00310339
4.89316e-06
0.00144753
-5.87464e-08
-2.76365e-07
0.000279856
-5.12696e-07
-0.00230989
-4.8911e-05
-0.0042183
-7.6665e-08
3.99082e-05
-9.58414e-08
-0.00192318
-1.86049e-07
2.28799e-08
-1.88256e-07
-3.33509e-07
-1.86812e-08
-3.92512e-07
-3.03524e-07
-3.28949e-07
1.68566e-06
0.0015425
0.000637613
-3.50957e-07
-2.39395e-07
-6.9421e-08
0.000861599
-0.0021272
-1.27383e-07
-9.98078e-06
-4.01639e-08
5.66214e-07
-1.61246e-07
-1.33479e-08
-1.88946e-07
-0.00142155
-1.83265e-07
-0.000636143
0.000284491
-2.99447e-07
6.53884e-07
-1.27632e-07
7.67159e-07
6.97397e-07
-5.9457e-08
-3.28673e-07
-7.91482e-08
-4.4834e-08
-4.48626e-07
-9.66177e-09
-4.41899e-08
-8.38642e-08
-1.07555e-06
-8.8884e-09
-0.000584699
-0.00202373
0.000212469
3.56737e-07
-0.000836976
0.000725499
-4.92597e-07
-5.72494e-08
-2.53116e-07
-3.49714e-07
-2.93721e-07
-4.64138e-08
-0.00560811
-0.00264731
-0.00217538
-1.57847e-07
-2.25535e-07
8.50491e-09
-3.564e-07
-3.02292e-07
-1.75782e-07
2.7145e-05
-1.69085e-07
-4.97723e-08
0.000669574
-0.000925555
-0.00100056
-2.86602e-07
0.000123351
-0.000831755
0.00111597
0.000145935
-5.33519e-08
-4.72011e-07
-1.81691e-07
-9.86624e-08
-3.95881e-06
-4.14066e-07
-1.41315e-07
-2.9474e-07
-4.655e-07
0.00010511
-5.81748e-08
3.22301e-08
0.000202792
6.54112e-07
-0.000662513
-7.91618e-09
-1.33605e-07
-2.8632e-07
-3.01255e-07
-7.04083e-08
-0.00269905
-5.28755e-07
-2.17464e-07
0.000902269
-3.56881e-07
-1.60578e-07
0.000952471
6.04195e-08
-4.16137e-07
4.44735e-06
7.02975e-08
-2.5347e-07
-4.36382e-07
-5.73545e-07
-7.09946e-08
7.10126e-07
-7.62044e-07
-2.38325e-07
-1.38487e-07
2.02156e-05
-3.60518e-07
-1.81203e-07
-3.11782e-07
-2.84853e-07
7.9201e-05
-0.004396
-1.42475e-07
-4.86107e-08
-0.00363416
0.000607722
-1.23626e-08
-0.000568223
-2.4131e-07
3.14403e-08
-1.5074e-07
0.00061283
4.90546e-05
-2.8062e-07
-1.90326e-07
-0.000931177
-3.91475e-07
0.000328562
-2.93995e-09
0.000320825
2.43444e-07
-0.000156842
-1.8912e-07
0.00103346
-0.00325707
-5.01734e-07
-8.62045e-08
-1.46341e-07
-7.66877e-07
6.37346e-07
-1.1312e-07
-8.36801e-08
-6.59384e-08
-6.65038e-08
0.000751239
-1.5409e-06
-5.15306e-07
-7.06275e-07
-8.15626e-08
-7.49448e-08
-2.5508e-07
-0.00128996
-3.6276e-07
-2.31486e-07
-4.96009e-08
-1.71801e-10
1.23996e-05
0.000694077
-3.00042e-08
-1.57474e-08
4.34164e-05
-5.67917e-07
-4.31281e-07
-1.22834e-07
-2.04083e-07
-2.58328e-07
-1.99624e-07
3.29364e-06
-7.25948e-07
-4.84693e-07
-1.4281e-07
5.06468e-08
-3.38068e-07
-7.51191e-08
0.000328378
2.09021e-09
-1.58394e-07
-3.32196e-07
1.83068e-05
-1.16443e-07
-8.0119e-08
5.59955e-07
-4.26553e-07
1.83211e-05
-1.73251e-07
-4.48258e-07
-4.88052e-07
-1.87581e-08
-0.00406645
-1.10374e-06
-0.00199936
-1.58693e-07
-4.18949e-07
-1.0762e-07
-5.30848e-05
0.000297309
-2.89815e-07
4.0279e-08
-1.45648e-07
-2.52635e-07
-1.10389e-07
5.86786e-07
1.74471e-07
2.98598e-08
-4.46167e-07
1.10244e-07
-0.00206893
0.000381457
-2.12212e-07
-2.44046e-07
3.69127e-05
-2.12036e-07
-3.02232e-08
-6.6195e-07
-0.00362875
-0.0052014
6.90065e-08
-4.95909e-08
-0.000612057
-7.93104e-07
-9.48461e-08
-3.46855e-07
-4.35482e-07
1.66764e-08
-3.18156e-07
-0.00166617
-2.66613e-07
-5.50912e-07
-0.00417148
-2.86157e-07
0.000156166
-1.35006e-08
-3.19249e-08
-0.000145948
-0.00411364
1.11961e-06
-2.90382e-07
-1.63107e-07
-1.56964e-08
-6.47023e-07
1.8761e-06
-8.34458e-07
-2.76359e-07
-4.48123e-07
-3.99999e-07
-1.44254e-07
1.09684e-06
-8.62007e-07
6.17363e-06
-9.59101e-08
-2.45813e-08
-2.77099e-07
0.000273579
-3.42694e-07
-2.48647e-08
-3.74253e-07
-7.4062e-08
-1.52653e-07
-1.92725e-07
-5.95253e-07
-3.31199e-08
-7.20158e-07
-2.07553e-06
-3.89767e-07
-7.22297e-08
-4.42812e-07
1.6492e-06
0.000114663
-1.84402e-07
-4.56383e-09
-7.95366e-08
-4.37284e-07
-3.268e-07
-0.00317706
-1.53914e-08
3.75498e-05
-3.95793e-07
1.26433e-07
-2.78435e-07
0.000693521
-1.88372e-07
-1.53122e-07
0.000116379
0.000788857
-1.37025e-07
-3.35985e-07
1.41522e-05
-3.46323e-07
-1.64805e-07
-1.89658e-08
-1.98931e-07
-9.11858e-08
-3.31089e-07
-3.27671e-07
-7.58003e-07
-1.50172e-07
-5.93059e-07
-0.00439133
-2.1473e-07
-2.56824e-07
-6.33337e-08
-0.000482498
-3.50338e-09
-1.46594e-07
0.000973897
-1.40597e-07
-0.00323953
-3.48532e-07
6.02272e-08
-6.25393e-08
-1.38998e-07
-5.9507e-08
-2.75261e-07
-7.53211e-08
-1.52501e-07
-2.20348e-07
-0.000137438
4.12262e-06
-0.00138169
-2.24356e-07
-1.57878e-08
-2.04195e-07
-3.58888e-07
-0.000307177
-0.00266675
-3.88474e-07
-4.69722e-08
-8.15996e-07
1.16186e-06
-1.24326e-06
-2.12733e-07
-4.17911e-07
-0.00167254
-3.30601e-07
-6.28771e-07
1.45004e-07
-5.0633e-08
-3.44438e-07
-8.86219e-07
-3.45536e-07
-2.89821e-07
-3.20144e-07
-1.93126e-07
-2.37119e-07
-3.69368e-07
-3.35834e-07
-2.64848e-07
-5.7364e-08
-7.97468e-08
-4.0135e-07
-3.00205e-07
-2.45516e-07
-3.94307e-08
-3.76904e-08
-4.14042e-09
-1.73028e-07
-7.02455e-08
-2.6313e-07
-6.34449e-08
0.000639826
-8.7572e-07
-1.10162e-06
-7.30602e-08
-1.19759e-08
3.49284e-08
-3.02835e-07
1.60218e-08
0.000727942
-2.63342e-07
-0.00391293
-3.70948e-07
-2.95959e-07
-2.53888e-07
-5.87875e-09
-7.10899e-08
-2.01819e-07
0.000711387
-8.74551e-09
2.01042e-05
-2.9318e-07
0.000328023
-4.43347e-07
-2.37822e-07
-7.73141e-08
-8.25595e-08
1.55286e-09
-9.10563e-07
-1.1125e-08
-1.04003e-07
-0.000138328
-1.53999e-07
-3.03088e-08
-3.39508e-07
-6.69817e-08
-6.78402e-08
-2.77431e-07
4.51559e-07
-0.000304951
-3.02019e-07
-2.13766e-07
-9.04503e-08
-0.000171321
-4.16833e-07
-1.38729e-07
-1.60124e-07
-0.000314015
1.99233e-05
0.000740949
-3.64615e-07
-3.05958e-07
-7.20433e-08
-5.91597e-08
-7.86182e-07
-3.00623e-07
-5.01445e-06
-1.62529e-08
-0.000665209
-1.83615e-07
-8.64459e-08
0.000704423
-3.76838e-08
-3.43277e-07
-1.3001e-07
-5.30247e-08
-2.92886e-07
4.73044e-07
-2.50234e-07
-0.00378545
-0.000537473
-2.35186e-07
-7.5726e-08
-1.07551e-07
-7.86616e-07
2.29662e-05
-1.16709e-08
1.08042e-06
-1.05539e-07
-3.29442e-07
-3.0556e-07
-2.44041e-07
2.20568e-06
-2.06733e-07
-0.00280331
-3.76766e-07
-2.05594e-09
-1.23401e-07
1.92256e-09
-1.17485e-07
-2.54398e-07
2.5958e-08
-1.98256e-07
-1.97204e-07
-0.0033283
-0.0050523
-5.76956e-07
-3.33611e-07
-1.8938e-07
-3.46244e-07
-1.2995e-07
-6.29167e-08
0.000442062
-6.22202e-09
-2.97559e-08
-1.99723e-07
-0.00308844
-4.44868e-07
0.00147345
-6.92409e-09
1.96939e-08
-0.00040861
-3.68626e-07
-2.55425e-07
0.00062895
5.33932e-07
-1.14047e-07
-2.95536e-07
-7.10658e-08
-1.91714e-07
-7.50631e-08
0.000894773
-6.28439e-08
-1.97218e-07
-1.34388e-07
-0.00271258
-3.39666e-07
2.67242e-07
1.18567e-06
-2.4606e-07
3.92691e-08
-3.22077e-08
0.00150808
-6.71651e-08
-2.11426e-07
-2.73556e-08
-7.28283e-07
-2.48319e-08
-1.28467e-07
-0.000436438
-0.00533732
9.61944e-09
7.09864e-06
0.00108379
-1.00778e-07
-0.000496102
-0.00382355
0.00118392
-0.000848651
-0.00277267
-1.62881e-05
-3.89288e-07
-1.49119e-07
-0.00148749
-3.58725e-07
-0.00193598
-1.77825e-07
-1.54414e-07
-1.42055e-07
-3.81231e-08
-3.49799e-07
2.91975e-07
-0.000520515
-1.53726e-07
-1.7532e-08
0.000324193
-2.44606e-06
1.18705e-08
-2.33084e-07
-3.59101e-07
-2.41561e-07
4.54889e-06
-1.05066e-07
-5.29479e-08
-3.3408e-07
-0.000453189
0.000837873
-1.48477e-07
-2.91686e-07
-3.31724e-07
-4.15782e-07
0.00110547
-0.00404026
-9.65767e-07
-1.5642e-07
-2.69381e-07
-1.76763e-07
-2.2639e-08
-1.74071e-07
-4.46368e-08
-2.65163e-07
-2.9868e-07
0.000990743
-3.39657e-08
-1.85594e-07
-2.45318e-07
0.00103478
-3.16866e-07
-4.54783e-08
0.000199638
-1.77058e-07
-1.02441e-07
4.93093e-08
0.000816711
-1.45294e-08
-9.49476e-08
-0.00244976
-3.12136e-06
3.2722e-06
-1.31857e-07
0.000105441
-9.73937e-08
-5.841e-07
-4.59443e-08
-6.90449e-08
-3.08208e-08
-0.00241577
0.000865243
-2.18671e-07
-6.37556e-08
-1.34109e-07
1.67831e-05
-1.7681e-07
-4.09491e-07
-1.09903e-08
-1.64283e-07
-1.89965e-07
-2.36235e-07
-2.51037e-07
-7.6079e-07
-0.0010264
-1.83018e-07
-3.89384e-07
-2.24914e-07
0.000699477
0.00104782
-5.03036e-08
0.00125668
-2.72574e-07
3.17783e-07
-1.87453e-08
-0.00132949
-2.93146e-08
-3.5853e-07
-3.05929e-07
-9.32893e-08
-0.00336552
-4.63457e-05
-5.82339e-07
-0.00387005
-7.66051e-08
1.78537e-07
-2.49489e-07
-1.95074e-07
-0.00239452
-9.9213e-08
-2.30157e-08
-2.07463e-07
-2.42064e-07
0.000946273
-7.00271e-08
-5.0564e-08
-6.21212e-07
-2.89876e-07
-4.61206e-07
1.1704e-06
-6.65832e-07
0.00069602
-7.46598e-07
-4.19376e-07
-5.96264e-07
0.000147945
-5.743e-07
-0.056789
-0.00190312
-3.38124e-07
-2.4208e-07
-0.000778915
-7.87362e-06
-9.18973e-09
-1.70923e-07
-3.42292e-07
-2.28113e-07
-3.45297e-07
-2.22982e-07
-3.04907e-07
3.39564e-09
-4.2659e-07
3.00672e-07
-8.95569e-08
-3.45697e-07
-2.32611e-07
-5.11822e-07
-7.44115e-08
6.19326e-08
-3.85869e-07
-3.09747e-07
-2.17244e-07
-2.11676e-07
4.86424e-07
-2.57115e-07
-0.00259615
-4.51374e-08
-1.65538e-07
-3.84069e-07
-1.28577e-07
-2.37086e-07
-2.61416e-07
-2.26391e-07
-1.56309e-07
-2.11595e-07
-0.00314789
-1.01533e-08
-5.49599e-07
-0.000186233
5.26045e-07
-1.08515e-07
-1.7262e-07
-0.000314043
-6.23035e-08
-8.17462e-08
0.00121714
0.000952448
-9.63201e-09
-3.55498e-07
-4.77063e-08
-2.2449e-07
-0.00267733
-2.2417e-07
-8.13021e-08
-2.05868e-07
-2.26148e-07
5.16108e-05
-2.61053e-08
-8.34977e-08
-1.32944e-07
-6.92859e-07
-0.000786651
-7.9132e-08
-1.25465e-07
-9.73434e-08
-1.58834e-07
-5.62851e-08
-7.76768e-07
-3.00727e-07
-3.0568e-09
-0.00440858
-4.84705e-07
-4.15866e-07
-0.000947634
-8.11585e-07
-2.02398e-07
-4.37401e-08
-1.32497e-07
-5.50303e-08
-1.65381e-07
-0.000783305
0.00106591
-3.98538e-08
-0.00229164
3.68492e-07
-4.42971e-07
-5.46894e-07
-1.89337e-07
3.38103e-07
-0.00368098
-6.55271e-07
-3.77682e-06
-0.000646769
-8.35887e-07
-1.57236e-07
0.000101352
7.1022e-08
-1.7442e-07
-3.01512e-07
0.0543103
-2.55123e-07
-1.39113e-07
-2.88837e-07
-2.48718e-07
-3.47677e-07
-9.61478e-05
-1.90508e-07
-0.00250916
-6.41327e-07
5.33479e-05
-2.92657e-07
-1.32075e-07
-3.63304e-07
-2.11136e-07
-1.71244e-07
-0.00468459
-6.72122e-08
-6.35571e-08
-1.07785e-07
-2.03671e-07
-1.62198e-07
1.59034e-09
-2.40704e-07
1.98859e-06
-1.48908e-06
-3.95444e-07
-0.00228818
-3.25894e-06
-1.70938e-07
1.66713e-05
-0.00231322
-1.21287e-07
-8.41239e-08
-3.62011e-07
0.000812948
-1.80744e-08
-2.44667e-07
-2.07147e-06
-2.4262e-07
-3.83747e-08
-2.681e-07
-2.26578e-07
-1.77315e-07
-1.92135e-07
-6.29588e-08
0.000136491
-0.00168136
-3.43899e-07
8.38698e-07
-8.30793e-07
-0.000209522
-1.41441e-07
-3.4088e-07
-0.0038796
4.1234e-07
-9.52387e-07
7.61377e-07
-3.0248e-07
-3.43031e-09
-2.19137e-07
-1.6574e-07
-4.23561e-08
-2.4963e-08
-3.9889e-07
-1.00838e-07
-2.71176e-07
-6.84234e-08
-3.44066e-07
-2.26124e-07
-2.10894e-07
-5.43295e-07
-4.27563e-07
-9.7471e-08
-5.51654e-07
-2.14275e-07
-0.00476627
-3.94604e-08
1.70255e-09
-3.45221e-08
7.09942e-07
0.000642349
-3.99676e-07
-1.06146e-07
6.35364e-09
-1.429e-07
-2.89626e-07
0.000778237
-2.11383e-07
-2.74114e-08
-3.44659e-07
-3.74978e-07
-0.00233133
-1.01729e-07
-2.10691e-07
-2.71818e-07
-5.56972e-08
-2.82437e-07
-1.64724e-07
-6.99054e-08
-4.86745e-08
0.00027802
-2.67299e-07
-9.44063e-07
-0.00496674
-3.31316e-07
-0.000830794
-2.50084e-07
-6.96213e-08
-2.09828e-07
0.000621047
-2.84597e-07
-2.3856e-07
-5.31368e-07
-0.00383861
-1.15125e-07
1.52811e-05
-3.22843e-07
-1.94555e-07
-1.11759e-07
-8.09976e-08
-4.99736e-07
-4.19437e-08
-4.34201e-09
2.63184e-08
-1.54432e-07
-3.61617e-08
-2.9038e-07
-6.93795e-07
1.49914e-06
-0.00246595
-3.47558e-07
-4.94866e-07
-0.00275441
-0.000305241
-5.40998e-07
4.59858e-08
0.000780826
-4.31079e-07
0.0125105
1.85258e-08
-0.000519036
9.30012e-05
-1.91863e-07
-1.02723e-08
-7.02677e-08
-2.42463e-07
-3.5115e-07
-2.31256e-07
3.21323e-08
-9.26479e-07
-2.89591e-07
4.09227e-08
0.00035018
-2.07032e-08
-3.0668e-07
-0.00389283
-2.52377e-07
-0.000564599
-3.48665e-07
8.66473e-07
-1.13535e-07
0.000570753
0.000980383
-1.42991e-07
-2.61222e-07
-0.00161656
2.97637e-09
0.000373792
-6.17146e-08
-2.34262e-07
-0.0021243
-2.65174e-07
6.26829e-07
7.78328e-05
-1.696e-08
-3.40666e-07
-3.15239e-07
-9.81979e-08
-8.29274e-08
-0.00155472
0.00102505
-1.86609e-07
-2.93658e-07
-9.57912e-08
-2.5843e-07
5.82498e-08
0.000177878
-7.96719e-08
-7.32994e-07
2.82275e-05
5.70978e-05
2.2466e-06
-2.68578e-07
-8.01737e-07
-9.61447e-08
-2.47355e-08
-3.74766e-08
-7.16636e-07
0.000160811
-6.53395e-08
-2.5286e-08
-0.00574489
6.09183e-06
-8.01525e-07
-8.29121e-10
-1.20215e-07
-1.9218e-08
-5.68037e-09
0.00087206
-4.35195e-07
-3.35803e-07
-2.74523e-07
-3.07262e-07
-2.05374e-09
-1.26344e-07
-1.85028e-08
-5.33615e-07
-6.07371e-07
-0.00305853
-1.06582e-06
0.000253392
-0.000683022
-2.20367e-07
-4.36202e-07
-7.5728e-08
-1.99321e-07
0.000474566
-1.58287e-07
-1.98371e-07
-4.6825e-07
-1.70191e-07
-1.42325e-06
-0.00186461
-5.94715e-06
-1.72672e-07
-0.000359999
-2.78305e-08
-2.42341e-07
-2.39856e-07
-4.30691e-09
-2.05159e-07
2.32373e-07
-0.00193014
-2.2869e-07
-0.00297274
-1.63534e-07
-2.06558e-07
-1.90412e-07
-1.87294e-06
-2.90914e-07
-3.41953e-07
-0.0265188
-1.99732e-07
-3.73277e-06
-0.000990604
-1.22923e-08
-9.44431e-07
-6.15127e-08
-0.000412503
-1.94763e-07
-8.51229e-09
-0.00198191
-4.21491e-07
9.34483e-09
1.55214e-09
0.000947095
-7.44029e-08
4.18843e-07
-2.50568e-07
-7.65574e-08
0.000667218
-2.05789e-07
-1.19177e-06
-7.61387e-08
-2.9762e-07
8.42893e-08
-1.27202e-08
0.000762149
-1.46936e-07
-1.75569e-07
-3.25378e-07
-1.55518e-06
-3.25106e-08
-1.92094e-07
-8.12077e-08
-0.00569335
-1.57078e-07
-0.000455115
-1.69216e-07
-7.23244e-07
-1.73751e-07
-3.63827e-07
-4.23754e-08
-7.73598e-07
-0.00430296
-1.65289e-07
-1.20644e-07
-2.57435e-07
-2.76e-07
-0.00274449
-2.39539e-07
-0.00316909
7.73216e-05
-3.00154e-07
-7.08674e-08
-8.39531e-08
-1.91933e-08
-4.77323e-08
-1.85312e-07
-1.20942e-07
7.10279e-09
-2.72552e-07
-4.97625e-08
-1.12661e-05
-3.06093e-07
-3.03198e-07
-0.0020781
-4.26513e-08
0.00025322
-4.56577e-07
-4.41346e-07
5.94852e-07
0.000250506
-4.32278e-07
-0.00419639
7.27077e-05
-1.19251e-07
-1.18801e-06
0.00106352
1.84935e-06
-3.12444e-08
-8.09098e-09
-5.34603e-07
-0.00184868
-0.000564073
5.7818e-07
-1.74876e-07
1.39889e-07
-4.51354e-07
-0.000936905
3.44142e-05
-5.2075e-07
1.9653e-07
-1.89907e-07
-2.31221e-07
-9.47998e-07
-3.53674e-08
-1.90542e-07
-0.000254888
-1.82572e-08
-8.20502e-05
-8.30086e-09
-1.8868e-07
-8.61566e-05
0.000109434
-7.34961e-08
-1.37276e-07
-2.10118e-07
-2.23304e-07
-2.88284e-07
-2.28843e-07
-2.66624e-07
-6.65575e-08
-4.49421e-08
-5.70589e-07
-2.86349e-07
-3.19626e-07
-5.23694e-06
-3.87464e-08
0.000317372
0.000539746
-0.00115925
-2.30528e-07
-3.44288e-07
-7.71729e-07
-4.13447e-07
-0.00148605
2.6393e-05
0.00111657
-1.60208e-07
-0.00298963
-0.000783457
-7.0411e-08
-5.64765e-08
-1.74007e-07
0.00146248
-0.00178727
-2.43387e-07
-1.39648e-07
-0.000956553
0.000584483
0.000479116
-2.44094e-07
-1.2601e-08
9.98387e-07
-1.11478e-07
-0.00100494
0.000666896
0.000127765
4.18598e-06
-3.86321e-08
-1.11691e-07
-7.27285e-08
1.05042e-09
-0.000564164
-5.37602e-07
-3.37017e-07
1.44567e-08
-2.09982e-07
0.000838037
-5.68869e-07
-0.0011535
0.000408447
-0.000560162
1.16631e-06
-3.71109e-08
-2.84179e-08
-0.00344233
-7.16102e-08
-1.61532e-07
-1.42101e-07
-2.4832e-06
-4.45086e-07
0.000499971
-2.76393e-07
-5.57408e-08
-0.00203199
-3.61671e-07
-1.56823e-07
0.000416292
-1.49228e-07
-8.45872e-08
-2.24956e-07
8.65568e-05
0.00123545
-1.71411e-08
-0.00147318
-0.00024436
0.000541002
9.67954e-06
-2.86782e-07
-1.37855e-07
-2.42015e-07
2.01147e-06
-3.19606e-07
-0.00446366
-3.27367e-07
-2.70304e-06
-4.27369e-07
-2.775e-08
-4.42566e-08
-1.45853e-07
-7.129e-08
0.00145475
-0.000503758
-1.25995e-08
0.00056739
-5.2031e-07
-1.38794e-07
-5.8855e-08
-8.57334e-08
-1.40248e-07
-2.14071e-07
-1.02265e-06
-3.16821e-07
-1.39376e-07
-8.07064e-08
-2.00309e-07
0.00020055
-4.0185e-07
-2.01027e-07
-3.47127e-07
-3.9838e-08
-2.78073e-07
-3.89864e-07
0.000746791
-0.000704524
0.0014717
-6.75388e-08
-7.5125e-08
-1.42542e-07
-8.36823e-07
-9.0142e-08
-1.47479e-07
3.31448e-07
-4.30194e-07
1.51324e-05
-1.80052e-07
0.00106913
-0.000703637
-7.44521e-09
0.000638564
3.64599e-08
-5.32994e-07
-3.59511e-08
-1.55254e-07
0.000896357
2.0091e-07
-9.02984e-08
-3.01094e-08
-6.64545e-08
6.37041e-06
-2.56663e-07
-2.45296e-07
-8.04385e-08
-0.000664125
-0.000826009
-1.15513e-08
-7.16323e-08
-3.02851e-07
-1.76385e-07
-2.86041e-07
-3.12165e-08
-3.26007e-07
-3.1585e-07
0.000148543
-2.57012e-07
-0.0020316
-6.87841e-08
-0.00195627
-2.24731e-07
-7.41183e-08
0.000162257
-6.42764e-09
-2.08868e-07
7.08945e-05
-4.37056e-08
-4.39633e-07
-1.88054e-08
0.000968995
-6.5635e-09
-8.63527e-08
-1.32374e-06
-8.2941e-07
0.000323658
0.00131991
-3.05322e-07
-0.00259465
-3.04247e-07
1.13242e-06
-1.41718e-07
-3.34802e-07
-3.85966e-07
0.000633025
1.65684e-08
0.00107748
-0.000652002
-2.31373e-07
-1.82504e-11
-1.32481e-07
-1.9891e-06
3.1613e-06
-3.07377e-07
-4.21971e-08
-1.66789e-07
-2.92989e-07
-4.22882e-07
-6.58812e-07
-4.24373e-07
-5.32388e-08
5.29037e-06
-2.58764e-07
0.000289566
-2.43429e-07
-1.95086e-07
-2.80906e-07
-0.00150415
-7.55689e-08
-2.85822e-07
-0.00366779
-1.20318e-07
-2.57695e-07
1.28588e-07
8.32358e-07
-7.28114e-08
-0.000360806
-3.00257e-07
4.47175e-07
-6.18918e-07
-6.36406e-08
-2.52044e-07
0.00135978
-7.85825e-08
8.5389e-09
4.93217e-09
0.00133094
-3.79283e-07
-2.673e-07
-3.42848e-07
-1.93382e-07
-1.10786e-08
0.00119222
-3.69583e-07
-2.27971e-07
-4.2694e-07
-4.78451e-08
-4.21747e-09
-1.54634e-06
-3.80406e-08
-3.3738e-08
-1.28274e-07
1.10423e-07
3.08379e-10
-3.01326e-07
-5.03079e-07
6.84917e-07
-3.08558e-07
-1.47545e-08
-9.21074e-07
1.18842e-07
-1.60377e-07
-2.16414e-07
3.48312e-07
-2.10589e-07
-0.00555515
-5.90665e-07
-4.25312e-09
0.00147639
-0.0025473
-3.17085e-09
-2.87041e-07
-6.38479e-08
-1.90138e-06
-1.30577e-07
-2.22598e-07
2.152e-06
0.000941816
-7.99071e-08
-2.79874e-10
-0.00166437
-0.000693039
-8.57751e-07
-7.79119e-08
0.0173772
-0.000820639
-2.30667e-06
-5.8561e-08
0.000544476
-8.71323e-07
-1.4985e-07
0.00142099
-3.56429e-07
-6.19941e-08
-3.50903e-07
-4.29842e-07
-4.05229e-07
-0.00186271
0.000867193
-1.25241e-07
-0.00229299
-4.27919e-07
0.00121916
-6.82641e-08
1.24632e-06
2.13829e-08
-1.40836e-07
-0.000892765
1.93572e-05
5.2253e-07
5.65052e-05
-1.25297e-07
-3.67921e-07
-1.82553e-07
0.00128041
-0.000567818
-1.03871e-08
-1.90326e-07
-4.09172e-08
-2.3041e-07
-4.47149e-07
-0.00232394
-0.0016288
-3.58193e-07
-2.33713e-07
-2.29532e-07
-0.000566601
-9.4703e-08
-4.46328e-07
-1.18469e-07
-1.43948e-07
4.75384e-07
4.15998e-05
-8.57636e-06
1.50646e-06
-2.92191e-08
1.05176e-06
-2.21433e-07
-1.46525e-07
-0.00188843
0.000691107
-3.75902e-08
3.16223e-09
-5.34417e-07
-1.87744e-08
-1.00865e-08
-0.001604
0.000817707
-1.55451e-07
-4.09734e-08
-1.81401e-08
-6.49036e-08
1.29419e-06
-2.17806e-07
-0.00184112
-1.59647e-07
-7.92238e-07
-1.60544e-07
-2.18169e-07
0.000793988
-3.58039e-07
-2.01869e-07
0.000837382
-1.13454e-07
0.000375696
-3.13666e-09
2.27044e-08
-4.09505e-07
0.000736165
0.0012016
-7.6646e-07
-1.19477e-07
1.59108e-06
-2.13397e-07
-7.07309e-09
-4.26872e-08
-0.0019561
-6.31552e-08
-2.17592e-05
-1.48001e-05
-4.18927e-07
-2.2708e-08
6.82167e-07
-4.08274e-07
-2.14695e-09
1.65452e-06
-4.33282e-08
-5.81328e-07
-3.70266e-07
-4.35129e-08
-0.00209158
-1.68078e-07
-1.79723e-06
-8.44856e-08
-8.12215e-08
0.000851829
-0.000905455
-2.72315e-08
4.42682e-08
-5.46329e-07
-2.42357e-07
-7.23106e-07
-3.58479e-07
-1.44288e-07
-3.48006e-07
-4.65277e-06
-4.4607e-08
-0.00219171
-4.31537e-07
-6.68002e-07
-7.78878e-07
-2.89608e-07
-0.00194213
-4.41949e-08
-0.00323696
-4.56541e-10
0.00142865
9.51186e-05
0.00178272
9.50519e-05
-3.33553e-07
-5.47485e-07
-1.78921e-07
-0.00189905
-1.79283e-07
-1.66291e-08
0.00079848
-0.00491883
-5.21531e-08
-3.39607e-07
-3.35625e-07
-3.40016e-07
-4.11432e-07
0.000465224
-6.27579e-09
-2.39556e-07
-4.98001e-07
-1.47469e-07
-3.42763e-08
-8.57021e-07
-9.69638e-08
-0.00246707
-9.6424e-08
-3.61593e-07
-3.72725e-07
-4.13298e-07
-2.66164e-07
5.53451e-06
-2.46218e-07
-1.20718e-07
-7.67254e-07
-0.00221698
-0.000728315
-2.59552e-07
-0.00311692
-3.62748e-07
2.56063e-05
-9.92453e-09
-1.28016e-07
-0.000740601
-4.45096e-07
0.000872997
0.000756751
-8.34779e-08
-0.0005627
-1.5144e-07
-1.10583e-07
0.000643248
-2.0298e-06
-1.41068e-07
-0.00374227
-2.8605e-07
-2.3833e-07
-1.1238e-07
-1.9333e-07
-1.86948e-07
-0.00159194
-0.00641273
0.000278636
6.10419e-07
-3.25939e-07
-2.43568e-07
0.000990202
-1.4303e-07
-9.84758e-08
-2.3985e-07
-6.70061e-08
1.83527e-07
0.000553741
-0.000534223
-0.000429969
-6.21737e-07
-2.57315e-07
0.000203993
-7.53233e-08
-4.51028e-07
-1.65947e-08
0.000148479
-2.03301e-07
-2.74458e-07
-0.00077342
-1.23226e-07
-5.81183e-08
-9.59011e-08
0.000172365
4.65006e-09
1.93923e-07
-1.43695e-07
0.000352425
0.00110958
-6.0344e-08
4.10386e-07
-6.77454e-08
3.09142e-05
-2.50761e-07
-4.00946e-07
-1.37521e-07
-2.35515e-07
-4.44443e-08
-6.10491e-07
-2.04663e-08
-8.65571e-07
2.57514e-08
-1.72866e-07
-0.00267695
-1.65319e-07
-2.82342e-07
-3.32392e-07
-2.16446e-09
-0.000891055
-1.6069e-07
-2.69435e-07
-0.000319532
-7.26731e-07
-0.00219985
-2.80812e-08
0.00137675
-5.42231e-07
-0.00287449
-1.90607e-07
-1.89752e-07
-2.14286e-07
-4.46776e-07
-3.28872e-07
-6.06884e-07
-3.00258e-07
0.000701783
-5.54277e-07
-3.29648e-05
2.41336e-08
-6.11278e-07
-9.76987e-08
-2.96751e-06
-5.82519e-08
-1.92269e-07
-4.24496e-08
-5.46717e-07
-2.0534e-07
-1.13472e-06
-4.32408e-07
-0.00461261
-0.000380029
-7.1422e-07
-1.35426e-07
6.55022e-05
-1.58735e-08
-3.8968e-08
-5.14526e-08
-6.87406e-08
-0.00681081
-3.46922e-08
-0.000433016
-1.65269e-07
-3.8449e-07
0.00101791
-1.43835e-07
-4.95785e-08
-4.3766e-08
0.000254026
-1.54375e-07
-1.37317e-07
-3.42992e-07
-2.38322e-07
-3.22787e-07
-1.52512e-07
-8.89099e-07
1.40338e-06
3.02336e-07
-5.88263e-07
0.00141822
-0.000855563
0.000669083
-7.23328e-08
-9.07613e-08
2.36685e-08
-2.47494e-07
-2.82753e-07
-0.00282901
-0.000658501
-6.80967e-08
-1.80693e-08
-0.000994542
-8.19824e-06
-8.42421e-08
-1.22933e-07
-5.29449e-10
-5.60823e-05
-0.00187914
-3.18426e-07
-3.04842e-07
-2.23756e-08
-4.51721e-07
-3.2974e-07
7.76228e-08
-4.87832e-08
-3.07315e-07
7.11613e-09
-3.04497e-07
-3.4746e-06
-2.7844e-08
-2.3336e-07
-2.45404e-07
-0.00320155
-1.01141e-07
0.000784602
-4.57572e-08
-0.000617491
-2.13116e-07
3.20749e-07
-7.2475e-08
-8.31264e-08
-1.27922e-06
-7.9898e-05
-6.12904e-07
-0.000526815
0.000227997
-8.9375e-08
0.000110679
-5.44792e-07
-1.49174e-07
-0.00030728
5.26599e-06
-4.19328e-08
-1.09094e-08
-0.00090875
0.00121458
-2.0917e-07
-6.47031e-08
-0.000691925
-2.28928e-07
-1.31724e-07
-1.67212e-07
-2.21391e-07
-3.19371e-07
-2.80214e-07
-2.52903e-06
-4.15714e-07
-2.77346e-07
-8.96606e-08
-1.18682e-07
-0.00506751
-1.55158e-07
-3.17464e-07
2.93972e-08
-2.77622e-07
-3.75195e-07
-5.58753e-08
-1.38086e-07
-3.2489e-07
-6.31729e-08
0.00116518
-5.11998e-08
0.000524156
-0.0011468
-2.43232e-07
-1.39809e-07
4.13997e-09
0.000649708
-7.10596e-08
-2.41105e-07
-1.46002e-08
-3.80191e-07
3.19372e-06
-3.4393e-07
-0.00100515
-1.77154e-07
-3.47857e-06
1.33518e-08
-4.20141e-07
-2.40238e-07
-3.42342e-08
0.000543834
-0.000773635
-7.79564e-07
-2.36746e-07
-2.84291e-07
-3.38223e-07
0.000858783
-1.4073e-05
3.52006e-07
-3.77452e-07
-4.16511e-08
0.000820053
-1.6564e-07
-1.54721e-07
-9.29969e-07
-1.91727e-07
-2.45949e-07
-3.24686e-08
-2.49385e-07
-2.07457e-07
-3.10774e-07
-0.00128606
-3.08238e-07
-6.60711e-08
0.000730018
3.27743e-07
-1.0063e-07
-0.000778286
-5.53919e-08
-4.1651e-08
-1.36115e-07
-8.2656e-08
0.000234035
-1.02932e-07
-3.6449e-08
-1.16915e-07
9.51266e-07
-1.53355e-07
-1.27975e-06
-5.33427e-05
-0.00105134
-0.000712406
2.28425e-06
8.78417e-09
0.000891146
2.41045e-06
-2.23509e-08
2.66839e-09
-4.50696e-07
-3.14961e-08
2.75612e-06
0.000217785
0.00148408
-0.00111102
4.85558e-07
-1.09707e-07
-1.09537e-07
-5.65148e-08
0.000562952
-3.60923e-07
-4.64061e-07
-2.82569e-07
-2.4532e-07
-1.38458e-07
-7.75893e-08
0.00145683
-7.11094e-08
-3.10732e-07
-7.56818e-08
0.000435019
-2.52328e-07
-0.00144902
-0.00201166
-4.96913e-07
-2.21843e-08
-1.44289e-07
-0.000129067
2.29697e-06
-2.69653e-08
1.62962e-07
-1.39077e-08
-3.92495e-07
-7.25643e-08
-1.68623e-07
-5.01942e-07
-0.00278339
-1.19791e-07
-2.40518e-07
-4.39466e-06
-0.00079762
-3.09977e-07
-2.84585e-07
-1.3288e-07
-0.000316749
-5.86995e-08
-7.92502e-08
-2.26215e-07
-9.28546e-08
0.00013911
-6.14592e-05
2.97806e-05
-7.48155e-07
0.000734091
-5.08589e-06
-6.71078e-08
-4.30974e-07
-8.21882e-08
1.86016e-06
-2.09517e-07
-1.09901e-07
-6.91946e-08
-8.43282e-08
-2.24475e-07
-0.000110531
-2.53033e-07
5.66201e-07
-1.74828e-07
2.13706e-08
-3.18032e-07
7.2852e-07
-5.54651e-08
-3.98556e-07
-4.99732e-07
-3.76193e-07
-0.00140484
-8.80497e-08
-0.000646829
-2.35032e-07
-2.3596e-07
-1.50205e-07
-9.34963e-08
-0.000847281
0.000326895
-2.16045e-07
-1.87711e-07
-4.82743e-09
-6.98093e-07
-5.74299e-07
-0.000829358
-1.18758e-07
1.72245e-05
-4.2991e-07
-7.02013e-08
-0.00354327
-2.67692e-07
-0.00166118
-3.4847e-08
-2.37176e-07
-4.25778e-08
3.33011e-05
-0.000977339
-6.84682e-08
1.40577e-07
-7.53327e-07
-5.45953e-08
-1.86451e-07
-1.02379e-07
8.61259e-08
-0.0002028
-2.52739e-07
-3.21967e-07
-3.42295e-07