/*--------------------------------*- C++ -*----------------------------------*\
| =========                 |                                                 |
| \\      /  F ield         | OpenFOAM: The Open Source CFD Toolbox           |
|  \\    /   O peration     | Version:  v2012                                 |
|   \\  /    A nd           | Website:  www.openfoam.com                      |
|    \\/     M anipulation  |                                                 |
\*---------------------------------------------------------------------------*/
FoamFile
{
    version     2.0;
    format      ascii;
    class       volScalarField;
    location    "550";
    object      k;
}
// * * * * * * * * * * * * * * * * * * * * * * * * * * * * * * * * * * * * * //

dimensions      [0 2 -2 0 0 0 0];


internalField   nonuniform List<scalar> 
13851
(
0.000193723
0.000156084
0.00015589
0.0184553
0.000148428
0.000158141
0.000158636
0.000147996
0.0447007
0.000148451
0.000175477
0.000148447
0.000149158
0.0231412
0.000169744
0.000199709
0.0154721
0.000149578
0.000211719
0.000193477
0.000171865
0.000156468
0.0182446
0.000149734
0.00839377
0.000186042
0.0208113
0.035102
0.0479842
0.000147279
0.0415116
0.000158524
0.000193898
0.0565251
0.00016959
0.0491387
0.00014981
0.00140767
0.0521707
0.0001493
0.0522959
0.0507127
0.00555631
0.000204184
0.0527696
0.000148017
0.000146192
0.000197875
0.000153378
0.0001491
0.0188525
0.000149335
0.000199397
0.000167684
0.0233259
0.00014929
0.000194141
0.0501046
0.0307384
0.0222625
0.000148496
0.011919
0.000148597
0.000153636
0.000179907
0.000180163
0.0180352
0.000166759
0.000149703
0.0270824
0.0356995
0.00017542
0.000148722
0.0198767
0.000168373
0.000153305
0.0199528
0.000146581
0.00568484
0.000147852
0.000149796
0.000208444
0.000169122
0.0244959
0.0232063
0.0400177
0.00015674
0.020595
0.000148432
0.0417835
0.000149445
0.00015864
0.00667153
0.0358669
0.0452206
0.000192878
0.000148105
0.000199402
0.0192168
0.000189267
0.000199291
0.000162244
0.000163309
0.000149001
0.000148123
0.000173944
0.000148083
0.0381407
0.000158562
0.000149406
0.000160259
0.000148068
0.000193651
0.000176788
0.000194555
0.000166819
0.000146759
0.000147472
0.0159726
0.0308111
0.000185994
0.000148554
0.000149559
0.0370431
0.000204574
0.000172212
0.000148091
0.000171722
0.0495948
0.000175022
0.0001564
0.000162464
0.000392299
0.0554348
0.000175996
0.045485
0.000166357
0.0383461
0.000160426
0.000175214
0.000206726
0.000150798
0.000148457
0.000171401
0.0218782
0.000152796
0.000146487
0.0366113
0.038381
0.000172371
0.000199705
0.000192889
0.000177757
0.000204719
0.000149708
0.000148727
0.000148589
0.0488464
0.000173406
0.000156398
0.000149583
0.0485692
0.000173518
0.000197395
0.0236307
0.0500727
0.0513142
0.0223697
0.00016
0.0675012
0.000148599
0.000146735
0.000176878
0.000148824
0.0480639
0.00868059
0.000200321
0.000146687
0.000168612
0.00020016
0.000203817
0.000204221
0.000159424
0.000174861
0.00608534
0.0392888
0.000194099
0.000157614
0.000149527
0.000147639
0.00737737
0.000173313
0.0186216
0.000158387
0.000152534
0.00019949
0.000193601
0.00015124
0.000150659
0.000167275
0.000206717
0.0475146
0.0503071
0.000169785
0.000305619
0.0444252
0.000152423
0.000175929
0.0452356
0.000157143
0.000201403
0.000149486
0.000207793
0.000149523
0.000170092
0.000154392
0.000149011
0.000204306
0.000151043
0.000499507
0.00014666
0.000193175
0.0208704
0.0466939
0.000157301
0.000176187
0.000149736
0.000169975
0.000148076
0.000169777
0.0344419
0.000157245
0.000157127
0.000148725
0.0487339
0.0001473
0.00795281
0.0494206
0.000186721
0.000149644
0.000269366
0.0237408
0.0543525
0.000199172
0.000165782
0.000174035
0.000202539
0.000169026
0.000191983
0.000161754
0.0208683
0.0001916
0.000147287
0.000159012
0.000199335
0.0471311
0.0260917
0.000147552
0.000172874
0.000148402
0.0002019
0.000204168
0.000159688
0.000174046
0.000192307
0.000148412
0.000162849
0.000193727
0.0282235
0.0001485
0.000148973
0.000157486
0.0528916
0.0111716
0.000174279
0.00014874
0.000204259
0.00020433
0.000192017
0.000173768
0.0510844
0.0189929
0.000159654
0.000167456
0.00271507
0.000148172
0.000148583
0.000192464
0.000173055
0.000147462
0.000149504
0.000148049
0.000147867
0.000166087
0.000148538
0.046037
0.000172859
0.000148769
0.0472569
0.0351523
0.000149447
0.000193648
0.0188248
0.000151017
0.000149513
0.000173682
0.0227733
0.0677351
0.000179071
0.000148349
0.0665775
0.000148547
0.000180155
0.0223326
0.028596
0.000156032
0.000209801
0.000278132
0.0422607
0.000192319
0.000163022
0.0496055
0.0417782
0.0302159
0.0001509
0.0221705
0.00744953
0.000204835
0.000202956
0.000152449
0.000178438
0.000158162
0.0219551
0.000163511
0.000147054
0.000145376
0.000158495
0.0388132
0.000369125
0.000148109
0.0445834
0.000158191
0.000162706
0.000156672
0.0197474
0.000203945
0.000199311
0.000154013
0.000156513
0.0502667
0.000149561
0.000205422
0.000159602
0.000173584
0.000158804
0.000148424
0.000148739
0.000189931
0.000191137
0.00019193
0.000256763
0.0512272
0.000152909
0.0478331
0.000217473
0.000147873
0.0312828
0.000186199
0.0225872
0.000158016
0.00018799
0.0229118
0.000152125
0.000188831
0.0241141
0.000151963
0.01439
0.00650262
0.000163048
0.0254199
0.000164879
0.0520229
0.000167088
0.000176069
0.000191631
0.000198514
0.000148745
0.000158917
0.000173968
0.000168789
0.000148165
0.000174632
0.0647273
0.00014871
0.000175727
0.0113945
0.000155177
0.000265817
0.000177181
0.0686772
0.000157761
0.000184907
0.000273362
0.000204573
0.000173398
0.0220103
0.0201606
0.000235978
0.000148445
0.000189457
0.000164817
0.000187481
0.000148494
0.0061677
0.0652029
0.00257473
0.000156485
0.000191946
0.00927032
0.0124612
0.00014646
0.0168478
0.000201522
0.0232224
0.000162419
0.0262916
0.000148691
0.000148745
0.0200107
0.00849553
0.000148467
0.000156087
0.000176044
0.000146907
0.0662504
0.000178731
0.000185867
0.000159722
0.000152009
0.000149368
0.000257101
0.000148689
0.000149291
0.0617694
0.0653781
0.000155871
0.0100527
0.000148639
0.000148527
0.000155682
0.00019237
0.000177574
0.000148273
0.000152959
0.000185541
0.000154617
0.066793
0.000148412
0.000162817
0.0534614
0.000161154
0.000145681
0.000148716
0.000159501
0.000151897
0.000237093
0.0615368
0.000165995
0.000659057
0.00015584
0.000148318
0.049139
0.019354
0.00016037
0.000148875
0.0401337
0.000159809
0.00108636
0.000148984
0.000162809
0.000189324
0.000169488
0.0449577
0.012067
0.000262958
0.000152961
0.000192991
0.000148436
0.0467722
0.000177045
0.000193579
0.000164643
0.000153706
0.000161197
0.000177359
0.000148505
0.0131506
0.047237
0.0662797
0.00720812
0.0617568
0.0271194
0.000204861
0.00015683
0.00014932
0.00052733
0.000148447
0.000148121
0.000158005
0.0497267
0.000155946
0.000150747
0.000173166
0.000172461
0.000148496
0.0627514
0.000148056
0.0517426
0.000236382
0.000147854
0.000155335
0.000203185
0.0324865
0.000147437
0.0137136
0.00389558
0.000148806
0.0476351
0.00021023
0.000192752
0.000152908
0.0617141
0.0225527
0.000149055
0.000210726
0.000149617
0.000148084
0.0602105
0.0527549
0.000168314
0.000177195
0.000148459
0.000181728
0.0513888
0.0482869
0.000149574
0.0200152
0.000148234
0.000149703
0.000173575
0.000163481
0.000146451
0.000153298
0.0488905
0.000197041
0.0458277
0.000155368
0.000148394
0.0536801
0.000149119
0.000189977
0.000162143
0.000168144
0.000165384
0.0577841
0.0223218
0.000158311
0.015966
0.000155418
0.000178001
0.0515996
0.0285456
0.00014948
0.000148463
0.000163545
0.046522
0.00767517
0.00018145
0.00205653
0.000163674
0.000166475
0.0430161
0.0650745
0.000180299
0.0503607
0.000206477
0.0524391
0.000151339
0.0339494
0.0106124
0.000148444
0.00890317
0.0692981
0.000160126
0.000175134
0.000149119
0.000498438
0.000175073
0.0261886
0.000148739
0.000149019
0.000155529
0.000172011
0.000148473
0.0471238
0.000148977
0.000200098
0.000152912
0.000187711
0.000148992
0.000148522
0.000168002
0.0203058
0.00017305
0.0438715
0.00016286
0.000146983
0.000148587
0.000177141
0.00015289
0.000184218
0.000156681
0.000160078
0.030838
0.000149131
0.0224734
0.000149661
0.000193468
0.0181279
0.0529524
0.00015665
0.0131787
0.000172661
0.000194953
0.0689377
0.000149971
0.067384
0.00015826
0.00016376
0.00938616
4.90842e-05
0.000148095
0.000183835
0.000151164
0.0500912
0.0196709
0.000150158
0.000167231
0.0668874
0.00014973
0.000149649
0.000186347
0.0189349
0.0599655
0.000149525
0.000191476
0.000154183
0.000148552
0.0344332
0.000191762
0.000188393
0.000146081
0.000193697
0.000164087
0.000183647
0.000150678
0.000152241
0.000174093
0.000155321
0.000195696
0.000175342
0.000175156
0.000177407
0.000202338
0.000211754
0.0633143
0.00752031
0.00019942
0.0301753
0.000163814
0.0608425
0.000193523
0.000149168
0.00016589
0.000207036
0.000157602
0.000147837
0.000147781
0.000192991
0.0214925
0.000162938
0.0470601
0.000147018
0.0610071
0.000177199
0.0180494
0.000183496
0.00015793
0.000155982
0.0212584
0.000188485
0.000163484
0.0115995
0.000151657
0.00033935
0.000193332
0.00020143
0.000163875
0.000214994
0.000148687
0.0001496
0.000151995
0.000148574
0.0508585
0.000147862
0.0300752
0.0519123
0.000183924
0.0494652
0.0212353
0.000201908
0.000196995
0.000156788
0.000149139
0.000148898
0.000146531
0.000148531
0.00014884
0.000178372
0.000192879
0.000164749
0.0291543
0.000152276
0.0441517
0.000149952
0.0216252
0.000167922
0.000149878
0.000148819
0.0524453
0.000158329
0.0599565
0.069483
0.000174478
0.000180994
0.000148714
0.0548883
0.000153811
0.00015602
0.032677
0.000149159
0.000150737
0.000149461
0.000176683
0.0225061
0.000160858
0.000164376
0.000203549
0.0453446
0.000157218
0.000156531
0.052589
0.000146444
0.0516498
0.000149286
0.000154748
0.00501157
0.000186227
0.000194108
0.000180775
0.000173317
0.000149465
0.000149953
0.00017901
0.000151518
0.000149525
0.000163961
0.000201013
0.000147766
0.000192801
0.000225793
0.0571134
0.000180624
0.0435522
0.000160527
0.000149104
0.000188096
0.0001471
0.000159074
0.0636392
0.0515732
0.0667528
0.0548321
0.000150402
0.000150042
0.000169101
0.000151912
0.000148115
0.0159865
0.000203558
0.0262988
0.000193706
0.000186555
0.000148626
0.000147315
0.000246801
0.000185671
0.000155312
0.00014966
0.000194307
0.000194683
0.0483817
0.000149662
0.000148926
0.0191996
0.00015062
0.000165124
0.000146902
0.0507766
0.000148198
0.0201816
0.000148482
0.000184731
0.000170004
0.000168712
0.000164227
0.000148711
0.000156009
0.000148013
0.0286157
0.00015067
0.0306789
0.000151926
0.0553058
0.0506599
0.000162649
0.000147875
0.0128786
0.0617921
0.000158842
0.000186413
0.000148868
0.020025
0.00014931
0.000207076
0.000148377
0.000147991
0.0574779
0.000165686
0.000148651
0.000168205
0.0484787
0.000385704
0.0665915
0.000147485
0.0324332
0.000148457
0.00014781
0.000149701
0.000144915
0.000149509
0.0673066
0.0639741
0.000151077
0.00014895
0.000168715
0.000148085
0.0165051
0.000188697
0.0265203
0.0508794
0.000155875
0.000195537
0.000148401
0.000171556
0.000174484
0.000149883
0.000149347
0.000269408
0.0211513
0.000180552
0.00771566
0.000180757
0.000148619
0.000169351
0.000186744
0.0172435
0.000165159
0.045622
0.000186084
0.000149445
0.0453454
0.0479529
0.0277931
0.00298283
0.0598823
0.000152916
0.000173829
0.00014928
0.0230154
0.000157138
0.000147074
0.0663124
0.000152022
0.000147883
0.000149506
0.000151716
0.0482193
0.000205994
0.00014737
0.000169787
0.0230871
0.000152649
0.00722519
0.000151811
0.000184881
0.051731
0.00014856
0.0163129
0.000159852
0.000163574
0.000443637
0.000152022
0.000207156
0.000184839
0.0517059
0.000151881
0.0273351
0.000162615
0.0312047
0.0174229
0.0222163
0.000174757
0.000148779
0.000150453
0.00014973
0.000174803
0.000148755
0.0464412
0.000158712
0.000156785
0.000157059
0.000152808
0.000147413
0.000162756
0.000158182
0.000155271
0.000157394
0.0664558
0.027762
0.0001625
0.000169721
0.0671501
0.000150838
0.0409136
0.00014645
0.00016147
0.000150687
0.000148851
0.000167089
0.00014829
0.000147338
0.000162973
0.000148774
0.000199833
0.000152485
0.00793996
0.0102183
0.00020186
0.000205993
0.000150455
0.0466678
0.000195573
0.000149461
0.000158021
0.000150528
0.0444959
0.000151774
0.000162816
0.033834
0.0093779
0.000176493
0.000150266
0.0566538
0.0275151
0.0606153
0.000159743
0.000146953
0.000149563
0.000179115
0.00014873
0.0193967
0.000190388
0.000149252
0.000213796
0.000201036
0.000149333
0.0677227
0.0184519
0.000202344
0.000152158
0.0570043
0.000178241
0.000148042
0.0214392
0.000156334
0.000148969
0.000148025
0.000167433
0.000174713
0.048215
0.0455681
0.000174033
0.0508519
0.000168181
0.000148505
0.000167902
0.000147796
0.000279751
0.000149673
0.000148178
0.000153514
0.000151439
0.0514945
0.0229881
0.00060446
0.0217141
0.0704166
0.000157318
0.000148786
0.000152456
0.000208682
0.000149654
0.000149235
0.000168666
0.00692706
0.024016
0.000146526
0.000165799
0.0001645
0.000192188
0.0068593
0.0001489
0.000146348
0.000155789
0.000344671
0.000163966
0.0509505
0.000152182
0.000149006
0.000149051
0.000148038
0.00015439
0.000201478
0.0537069
0.0507486
0.00015697
0.000148322
0.00030252
0.000151957
0.032894
0.0275624
0.000158358
0.0228725
0.0499245
0.0385431
0.000180783
0.000165045
0.0361732
0.000163202
0.000160662
0.00016941
0.00019502
0.000151294
0.000427234
0.000148531
0.0634416
0.000847337
0.000146459
0.000153061
0.000167344
0.000206165
0.000165914
0.000148858
0.000162308
0.000151704
0.000159502
0.000221277
0.000149008
0.0615367
0.0227289
0.000148582
0.000164272
0.000174267
0.000148479
0.0503074
0.0115678
0.0480477
0.0361403
0.00014821
0.000154749
0.000157466
0.000149773
0.000522541
0.000166332
0.000149684
0.000181669
0.000154999
0.0609219
0.000170241
0.0193443
0.000151552
0.000152639
0.000163653
0.000185128
0.000180199
0.000148378
0.00926225
0.0333654
0.0141897
0.0307114
0.0633926
0.0495172
0.029765
0.000148345
0.000148376
0.00015025
0.00447207
0.000176954
0.000179883
0.0132154
0.000151601
0.000145986
0.000148467
0.00352566
0.000146464
0.000159913
0.000153103
0.0616278
0.000151425
0.000147116
0.000148519
0.000148587
0.000149
0.000160288
0.000643737
0.000160772
0.0661809
0.000148332
0.00014808
0.0499904
0.053418
0.0201412
0.0588952
0.000163917
0.0606852
0.000146896
0.000169299
0.000152579
0.000148505
0.000157346
0.0234073
0.000153687
0.000185468
0.000173234
0.000151503
0.000148764
0.000155307
0.000204921
0.000149795
0.06166
0.000150181
0.000344218
0.000148773
0.000151002
0.000159072
0.000171105
0.000149196
0.0255885
0.0368547
0.00011503
0.0564853
0.000148679
0.0203477
0.0118296
0.000148341
0.00050002
0.000149744
0.000161937
0.000149512
0.000151774
0.000147644
0.00014854
0.000150739
0.000155875
0.000180872
0.000150486
0.000148604
0.000166059
0.00014807
0.0652064
0.000148777
0.000163872
0.000168577
0.0257334
0.0169025
0.000148903
0.000203646
0.000146845
0.000166526
0.0001729
0.0570869
0.000175601
0.000149798
0.000193249
0.000167555
0.000185803
0.000468394
0.000161242
0.000190975
0.00018114
0.000181875
0.000151322
0.000148556
0.0563085
0.0107511
0.000155086
0.000148022
0.00789211
0.000147084
0.000170853
0.000147794
0.000176032
0.000442465
0.000145976
0.0149931
0.000158097
0.000149061
0.000199814
0.000147063
0.00016145
0.0382352
0.000168933
0.0578777
0.000147613
0.000149743
0.000162445
0.000149455
0.000149612
0.000162378
0.000161985
0.000180739
0.000177129
0.000149133
0.000165773
0.00014836
0.00014836
0.000149376
0.000148349
0.000280474
0.000149627
0.000151895
0.00667627
0.000147038
0.000147943
0.0536641
0.000149634
0.00947591
0.000154125
0.0565755
0.000204153
0.000164439
0.000244284
0.000175869
0.000248317
0.000151405
0.000196225
0.000157919
0.000148485
0.000148039
0.00015185
0.0001636
0.000148498
0.000170995
0.000147367
0.000152622
0.00630844
0.0186723
0.000292616
0.000157153
0.000163151
0.0268751
0.0293099
0.000149076
0.000159704
0.00027257
0.000150782
0.000167653
0.000234281
0.0514025
0.000161207
0.000173667
0.000151445
0.000202328
0.000149889
0.000161434
0.0282909
0.000149457
0.000148253
0.062554
0.000169759
0.00070768
0.0574571
0.000192698
0.00015022
0.000147393
0.000151126
0.0267547
0.0067943
0.0632138
0.000173318
0.000148606
0.0307207
0.000148666
0.000192156
0.00015544
0.000155249
0.000171455
0.000148347
0.0690017
0.0702967
0.000149017
0.000180014
0.000177531
0.000281506
0.000170502
0.000181608
0.000717178
0.000168332
0.0267376
0.000181779
0.000148682
0.000169207
0.000167885
0.0619678
0.000148191
0.0428537
0.000171368
0.00018324
0.0001498
0.0699996
0.000158935
0.00015271
0.000148113
0.000166383
0.000165765
0.000166474
0.000148776
0.000151179
0.000171683
0.00599212
0.000174266
0.000148972
0.000150624
0.000169364
0.00020228
0.000149069
0.000178416
0.000649992
0.000168009
0.0553321
0.000174428
0.0188953
0.000206669
0.000148373
0.000316583
0.00014955
0.000155093
0.000166567
0.000166295
0.000184452
0.000176434
0.000166238
0.000167489
0.000162251
0.000153689
0.000146377
0.000169546
0.000158092
0.000157654
0.0154579
0.000156668
0.000159501
0.00014779
0.025004
0.000177383
0.00014911
0.000156597
0.000151712
0.0225797
0.00019033
0.000166621
0.0533945
0.000581025
0.000239219
0.00018422
0.0203008
0.000147454
0.000182996
0.000149236
0.000155663
0.00128279
0.0503787
0.000212485
0.000271455
0.000148744
0.0198322
0.000147431
0.000186673
0.000154885
0.0596903
0.0665122
0.000161271
0.00014801
0.000209904
0.000162178
0.000148176
0.0320963
0.00014849
0.000152827
0.000158192
0.000149482
0.000161649
0.000151877
0.000148636
0.000163288
0.000213595
0.000170436
0.000174327
0.000148171
0.0218934
0.0519304
0.000147894
0.00684197
0.000154807
0.000157499
0.064813
0.000147875
0.000150962
0.000156981
0.0337876
0.000148201
0.000149148
0.000168494
0.0603775
0.000147779
0.000160028
0.00016206
0.0158465
0.000170635
0.000168127
0.000216124
0.000148505
0.000172227
0.000146384
0.0209536
0.000160821
0.000148445
0.000162111
0.000182551
0.000148917
0.0001507
0.00019279
0.0582529
0.000151941
0.022377
0.000149186
0.000146391
0.000178447
0.000148176
0.000149655
0.0691064
0.000149806
0.000169862
0.000199826
0.0467163
0.00995131
0.000149638
0.000152791
0.000156712
0.000148396
0.000148737
0.000148574
0.0548933
0.000149238
0.0263152
0.000192481
0.00014824
0.000148258
0.000161536
0.000192516
0.00687213
0.000166648
0.000175015
0.000153373
0.0463482
0.000175276
0.000166665
0.000172072
0.000171747
0.000183181
0.0252663
0.000173145
0.03225
0.0541552
0.0231894
0.000156603
0.000148732
0.000166389
0.000159507
0.000148806
0.000152024
0.000176808
0.000149588
0.000150448
0.000148295
0.000146186
0.000155257
0.000150075
0.0191488
0.000147987
0.00458528
0.000148449
0.000173037
0.000151443
0.000192346
0.000172941
0.000148792
0.063592
0.000152729
0.000149454
0.000170885
0.000148276
0.000159192
0.000149623
0.0557542
0.000154039
0.000169922
0.000169955
0.0638511
0.000158101
0.0285983
0.00893856
0.00016966
0.000150373
0.000152989
0.000174728
0.000177616
0.019464
0.000147592
0.0316427
0.000149361
0.000169301
0.066774
0.000164635
0.0588593
0.000155458
0.00016417
0.00015452
0.0702968
0.000161556
0.00014885
0.0001689
0.000191024
0.000153051
0.000148351
0.000148864
0.0510408
0.000149649
0.000157426
0.0538076
0.000155665
0.000148398
0.000171291
0.000155088
0.063085
0.000146025
0.000148499
0.000147167
0.00015496
0.000151258
0.000150363
0.000180776
0.0499564
0.000148276
0.000148636
0.0606983
0.000151865
0.0153541
0.000156955
0.0690534
0.000148173
0.000153745
0.00014685
0.0311078
0.0570784
0.000159515
0.000168981
0.000155662
0.000148482
0.000148719
0.0565614
0.000148812
0.00018689
0.000148112
0.000175928
0.000149196
0.0657842
0.000147046
0.000175337
0.000147954
0.000205077
0.000239422
0.000148058
0.00016657
0.0697989
0.000181744
0.0610557
0.057893
0.000194507
0.000152016
0.000165057
0.000184482
0.0343929
0.000151888
0.000172749
0.000156874
0.000148836
0.0295257
0.0376393
0.000181204
0.000194671
0.000207639
0.000162481
0.0542759
0.000148772
0.000147964
0.000183082
0.0686263
0.00020126
0.000191219
0.0259809
0.000146936
0.070341
0.0327581
0.0632159
0.000149292
0.0248229
0.0431778
0.000239257
0.000349114
0.0375924
0.000187014
0.000161402
0.000193932
0.000154544
0.000148642
0.000302574
0.000186062
0.000146272
0.0267603
0.00014919
0.000158763
0.000171521
0.000155774
0.000387812
0.000160647
0.0114173
0.000175629
0.000155068
0.0496502
0.0542564
0.000191965
0.000149934
0.000154731
0.000179546
0.000168545
0.000146931
0.00017174
0.000167379
0.000189899
0.000148502
0.000197762
0.000153995
0.000168832
0.0621037
0.0301405
0.000151418
0.000182009
0.0280618
0.000149446
0.00015145
0.0662506
0.000204392
0.000154712
0.000155902
0.000148533
0.000173999
0.000158813
0.0512624
0.000184168
0.000150449
0.00014944
0.000166537
0.000159335
0.00891167
0.0217586
0.000147925
0.000148215
0.000158362
0.000149235
0.000155023
0.000151729
0.000152131
0.000154901
0.000148069
0.000154526
0.000149381
0.000176266
0.0294369
0.000149738
0.0664988
0.0142241
0.000146417
0.000180063
0.000183251
0.000177568
0.000151032
0.000186269
0.000159475
0.000168391
0.000162287
0.000152797
0.00014934
0.0195534
0.000164025
0.0588004
0.000150984
0.000148505
0.000148116
0.000172907
0.000148198
0.000174291
0.000181036
0.000252672
0.000147594
0.000593144
0.000381235
0.0347979
0.000146882
0.000188005
0.000212037
0.0004483
0.000111022
0.000150364
0.000150147
0.000187754
0.0251087
0.0534502
0.000170081
0.0113942
0.000149498
0.00014879
0.000164921
0.000149244
0.000149124
0.000190799
0.000149746
0.000169397
0.000148168
0.0543017
0.0653727
0.0597624
0.0620951
0.0324167
0.00014916
0.000148889
0.0681337
0.000147831
0.000148161
0.000146443
0.000180861
0.0561915
0.0206522
0.000156478
0.000151238
0.000152451
0.000163349
0.0236136
0.000148116
0.0583827
0.0557324
0.000149191
0.000149122
0.0310845
0.00018601
0.000155233
0.000148328
0.0669631
0.0326507
0.000149856
0.000203618
0.000149661
0.0366327
0.000188121
0.000156477
0.0277843
0.0151695
0.0638374
0.000148
0.000151805
0.000149594
0.000149899
0.0544859
0.000148087
0.000191014
0.0204429
0.0176344
0.000151994
0.000173037
0.000615782
0.0001722
0.0677045
0.044446
0.000145808
0.000158212
0.000158234
0.000200162
0.056577
0.000145952
0.023434
0.000161004
0.000172993
0.000151047
0.000147524
0.000202492
0.000167425
0.0181194
0.000149243
0.000172767
0.000151676
0.00019219
0.000155842
0.0488497
0.044503
0.000193458
0.000191619
0.000148426
0.00015338
0.000185049
0.000180381
0.0527302
0.0693614
0.000148909
0.0595299
0.000170367
0.05632
0.000162273
0.000169289
0.000167806
0.000150017
0.0662614
0.000148405
0.000164731
0.0342942
0.0531191
0.000263246
0.0540305
0.000158086
0.000173925
0.00014799
0.0546597
0.000157156
0.0278906
0.000147986
0.0641888
0.000146032
0.000148013
0.000164236
0.000158848
0.000160257
0.00014868
0.0344058
0.000174962
0.000148123
0.000165617
0.0311317
0.000219795
0.000148628
0.0490416
0.000154384
0.000168012
0.000167104
0.000146129
0.000175816
0.000147994
0.00123105
0.000172547
0.000161811
0.000148356
0.000205209
0.000168424
0.000148034
0.0633323
0.00639355
0.000203913
0.000148788
0.0155182
0.000148861
0.000186061
0.000161593
0.000179321
0.0065268
0.0323903
0.000159754
0.0544698
0.000169722
0.000158016
0.000147326
0.0653173
0.000178138
0.000184586
0.000165699
0.000149587
0.0602294
0.000180051
0.000207161
0.00562402
0.0690408
0.0349991
0.000279698
0.0267677
0.000158309
0.000158998
0.000148577
0.000149963
0.000146101
0.000199938
0.000158756
0.000160246
0.0514548
0.000147981
0.000147057
0.000173685
0.000191266
0.000160631
0.000147438
0.0485911
0.000154964
0.000176993
0.000149747
0.0203237
0.000157449
0.0672148
0.000166745
0.000165238
0.000171042
0.000148536
0.00991657
0.000569663
0.000177405
0.000149042
0.00014727
0.0198961
0.0403915
0.048029
0.000149049
0.000177614
0.00933804
0.000150134
0.000147962
0.000149525
0.0548414
0.000171493
0.000163288
0.000162911
0.000159345
0.0635753
0.000177749
0.000204636
0.000161119
0.000164457
0.000146195
0.000180686
0.000172295
0.000148465
0.057104
0.0460529
0.0463497
0.059085
0.0388845
0.0682377
0.0689502
0.000151535
0.000149566
0.0669894
0.0283636
0.0236359
0.000149145
0.000169441
0.000148597
0.000148252
0.0566459
0.0545315
0.000179414
0.000148041
0.00826711
0.000185501
0.000172772
0.0298039
0.000304005
0.00748646
0.000147302
0.0481142
0.0525524
0.000204322
0.000166844
0.000170377
0.00014932
0.000147382
0.000167204
0.000170856
0.000154385
0.000171703
0.000160618
0.000154757
0.00404518
0.0304941
0.00015961
0.000173289
0.034086
0.000356868
0.000148687
0.000190319
0.000214838
0.0269161
0.000168217
0.00015021
0.000161772
0.000157604
0.000158815
0.00014615
0.000159198
0.000165038
0.000175179
0.000192997
0.000149494
0.000152357
0.0338915
0.0557239
0.0523425
0.000469552
0.000193247
0.000145714
0.000148518
0.000162042
0.000147779
0.0696417
0.000148509
0.000149804
0.000146823
0.0564172
0.00553156
0.000150198
0.000180224
0.000158643
0.000162145
0.000161433
0.000159979
0.000170178
0.000165731
0.019718
0.000158855
0.0296369
0.000166568
0.0518707
0.000160436
0.000147426
0.000147239
0.000186499
0.000192558
0.000146879
0.000163376
0.000160759
0.00017418
0.0619432
0.0255588
0.0613115
0.000149803
0.000440526
0.000159028
0.000164515
0.000148337
0.000177017
0.000153109
0.0318859
0.000251423
0.000166144
0.000148491
0.0560089
0.000155977
0.0287788
0.0272068
0.00651536
0.000153994
0.000189312
0.0632782
0.000526845
0.0409103
0.000175045
0.000149063
0.000166734
0.000149231
0.0617371
0.000154341
0.000162127
0.0123056
0.0509908
0.000148827
0.000148486
0.0351099
0.000168443
0.067573
0.00015898
0.000148318
0.000169449
0.00020404
0.000162684
0.0582236
0.000164305
0.000236682
0.000156017
0.000149593
0.000148417
0.000199688
0.000150738
0.000180052
0.00014868
0.000149252
0.000197401
0.000159544
0.000149972
0.000148196
0.000163955
0.000217343
0.000173793
0.000167523
0.000155477
0.00017572
0.000148918
0.000186181
0.000162167
0.000170714
0.000166701
0.000163679
0.000173859
0.00016332
0.00014908
0.000181101
0.0482502
0.0377708
0.000150448
0.00028382
0.0290575
0.000148377
0.000150696
0.000211189
0.0309835
0.000156358
0.0297797
0.00021037
0.000150915
0.000186084
0.000146001
0.000158249
0.000176281
0.00479054
0.000196118
0.0169892
0.000637683
0.0586844
0.0400305
0.000155407
0.0371696
0.000148448
0.0533747
0.0370269
0.000148598
0.00014843
0.0354798
0.000149099
0.000148525
0.00051758
0.0575171
0.000201241
0.000159797
0.0334016
0.000148582
0.0576363
0.0329652
0.000149201
0.0226245
0.000573259
0.0325297
0.0350411
0.0344088
0.033176
0.000147413
0.0001517
0.000176857
0.000179893
0.000148504
0.000270261
0.000148367
0.0358909
0.000728655
0.000164414
0.000733518
0.0373747
0.00068311
0.000425767
0.000165971
0.0169067
0.000212446
0.000158131
0.000146186
0.055508
0.000161793
0.000147714
0.0697209
0.000148341
0.056818
0.000149208
0.05368
0.000158751
0.00014825
0.00266127
0.000156184
0.00016088
0.0319445
0.0633997
0.000252772
0.000162
0.000177375
0.000152099
0.000172606
0.000190812
0.000172243
0.00014935
0.000270565
0.000177673
0.000161987
0.0303305
0.000169421
0.000162709
0.000191138
0.000179702
0.000174792
0.000148226
0.00019525
0.000147288
0.000191202
0.0329801
0.030211
0.0001472
0.000167128
0.0238006
0.000154196
0.000176043
0.0001664
0.000168972
0.0682688
0.000178012
0.000152069
0.00565734
0.000147226
0.0562855
0.000148753
0.000153059
0.000191524
0.0496215
0.000161711
0.000186253
0.000202601
0.000165591
0.000150531
0.000176031
0.000170464
0.0503326
0.000155423
0.0011755
0.000193006
0.00016599
0.000161425
0.000176914
0.000165552
0.000167406
0.000178179
0.000163019
0.00015491
0.000151168
0.000282368
0.000148601
0.000160203
0.000145908
0.000190706
0.000160828
0.000178542
0.0338265
0.00015128
0.000201975
0.000145051
0.000149276
0.000149193
0.000149322
0.000160999
0.000147699
0.000186437
0.0187492
0.000178857
0.000172486
0.000158082
0.000149404
0.0266155
0.000148856
0.0618345
0.0598322
0.0253467
0.000198328
0.000163597
0.000161493
0.000149113
0.000158416
0.000170461
0.000168417
0.0352082
0.000179217
0.0514434
0.000199001
0.000149346
0.000146969
0.0369237
0.000148406
0.000162526
0.000166378
0.000208859
0.000154827
0.0518904
0.000149088
0.000156284
0.000148608
0.000150787
0.000175961
0.000191464
0.000150213
0.000167227
0.000159943
0.00017344
0.000179657
0.000202339
0.000192525
0.000198181
0.000198481
0.000161445
0.000152264
0.000180038
0.0504666
0.0683623
0.0548749
0.000165578
0.0352167
0.000192115
0.000152594
0.000147973
0.000183425
0.000148882
0.000167656
0.020519
0.000148164
0.000148495
0.000218254
0.0574136
0.000176781
0.000257229
0.000149112
0.0230748
0.000168271
0.0528779
0.000157316
0.000148969
0.0573503
0.00016519
0.000148664
0.000171692
0.000149652
0.000185436
0.000160033
0.000164083
0.0703456
0.000159839
0.0646333
0.000147769
0.048513
0.000149211
0.000157563
0.000150845
0.000170247
0.000148868
0.000166285
0.0551549
0.000245128
0.000173091
0.000161268
0.000168071
0.000148618
0.00014934
0.000153575
0.0397836
0.000158014
0.0550821
0.0274836
0.000184423
0.00014938
0.000186582
0.000194499
0.000191727
0.000161036
0.0285307
0.000148471
0.000145614
0.000148314
0.000161545
0.000149908
0.000148643
0.0553886
0.000148183
0.000191818
0.000171507
0.000149348
0.0518816
0.000163912
0.0529341
0.000148928
0.0302036
0.000151916
0.000166859
0.032432
0.000179309
0.000148021
0.000161889
0.0626807
0.000167368
0.000187375
0.000163342
0.000157095
0.000183427
0.000158612
0.000151915
0.00571434
0.000160492
0.000163436
0.000200128
0.000148319
0.000147934
0.000149192
0.000166968
0.000149246
0.000155529
0.0657958
0.0157557
0.000171271
0.00897397
0.000183007
0.000170544
0.0524177
0.0448858
0.000150205
0.0143316
0.0167248
0.0322139
0.000312143
0.000161977
0.0617824
0.0552588
0.0350231
0.000317105
0.0692625
0.000163157
0.000169417
0.000158152
0.000160311
0.000149537
0.000231529
0.00014989
0.017447
0.000173642
0.000191636
0.000145573
0.000183018
0.000163958
0.000152192
0.000149951
0.000148677
0.000173208
0.000155412
0.000151613
0.000173904
0.0451745
0.000155711
0.000186507
0.000146935
0.000173186
0.00016914
0.000149384
0.000156548
0.000147697
0.0542726
0.0556566
0.000195196
0.000199065
0.000161708
0.000183761
0.000148808
0.000173463
0.000148623
0.00015052
0.000149509
0.0634067
0.00014741
0.000177782
0.000224727
0.000157732
0.000163888
0.000148192
0.0544651
0.000194296
0.037505
0.0274456
0.000191721
0.000209986
0.0287091
0.000210882
0.0316312
0.015194
0.000173549
0.000159267
0.000304439
0.0562952
0.000148367
0.019458