/*--------------------------------*- C++ -*----------------------------------*\
| =========                 |                                                 |
| \\      /  F ield         | OpenFOAM: The Open Source CFD Toolbox           |
|  \\    /   O peration     | Version:  v2012                                 |
|   \\  /    A nd           | Website:  www.openfoam.com                      |
|    \\/     M anipulation  |                                                 |
\*---------------------------------------------------------------------------*/
FoamFile
{
    version     2.0;
    format      ascii;
    class       volScalarField::Internal;
    location    "300";
    object      V0;
}
// * * * * * * * * * * * * * * * * * * * * * * * * * * * * * * * * * * * * * //

dimensions      [0 3 0 0 0 0 0];


value           nonuniform List<scalar> 
13851
(
0.0939535
0.0504066
0.0155296
0.0943787
0.0129355
0.0874882
0.0777712
0.020979
0.167561
0.0234389
0.173412
0.0181038
0.00514453
0.00650266
0.170074
0.0352892
0.0447695
0.059654
0.00828311
0.167721
0.107382
0.0171261
0.165457
0.188051
0.158032
0.0241508
0.0319569
0.000976023
0.0918109
0.0644055
0.0859354
0.0425392
0.019112
0.10521
0.206715
0.00542819
0.00434284
0.0113736
0.0196916
0.134586
0.102388
0.17108
0.00131487
0.162872
0.159454
0.00298694
0.155611
0.111587
0.0304462
0.14593
0.0113465
0.00692068
0.00138256
0.150979
0.174189
0.169847
0.169969
0.00212874
0.0748954
0.0766678
0.0127671
0.00547712
0.0665639
0.00942663
0.0428219
0.0827174
0.00344644
0.165865
0.0216392
0.0626243
0.0012851
0.00339433
0.0478757
0.171764
0.172791
0.119856
0.0114553
0.00167428
0.0165744
0.00138056
0.0740466
0.166362
0.122831
0.00269119
0.0625891
0.0166959
0.0890477
0.0272416
0.0392705
0.183541
0.00529826
0.109534
0.128871
0.0251187
0.0417864
0.156113
0.0122774
0.00301531
0.12578
0.185116
0.00376816
0.01492
0.0802295
0.0293847
0.163081
0.0944273
0.0133612
0.183595
0.00290446
0.0845598
0.158197
0.185917
0.107376
0.195308
0.163348
0.0680373
0.00390932
0.135164
0.172924
0.154688
0.00135579
0.036526
0.00519215
0.107884
0.103345
0.175976
0.106948
0.0132133
0.0903739
0.00805454
0.114907
0.162589
0.00133611
0.128278
0.0698712
0.167047
0.166257
0.00334566
0.00675223
0.01018
0.00336162
0.189201
0.137554
0.162608
0.0539189
0.157112
0.186966
0.0107652
0.0920643
0.160267
0.00847986
0.167767
0.00520302
0.150189
0.0390816
0.0606817
0.123845
0.060013
0.00694481
0.0120361
0.173095
0.0200272
0.00166382
0.1466
0.0642707
0.169966
0.19771
0.0205674
0.0916834
0.00299505
0.00136759
0.145008
0.120473
0.00907742
0.151221
0.105153
0.017149
0.106582
0.00790243
0.18092
0.0356269
0.00313495
0.114417
0.0120589
0.17055
0.16558
0.0795555
0.156022
0.0119944
0.0289853
0.149804
0.00151386
0.153754
0.0189618
0.00684368
0.0488957
0.136367
0.132544
0.127242
0.119927
0.175233
0.00385528
0.169663
0.114514
0.0240433
0.116448
0.00926526
0.0411186
0.00193492
0.1787
0.00250506
0.0935141
0.139073
0.192673
0.178746
0.164901
0.0674734
0.00282196
0.128095
0.0019295
0.0330999
0.0656723
0.00254006
0.00760243
0.00220922
0.17858
0.0271369
0.16358
0.00138216
0.178426
0.025066
0.0449874
0.14282
0.151746
0.0108555
0.0488095
0.00851014
0.0351802
0.177386
0.102019
0.0878508
0.135101
0.194633
0.0215587
0.162293
0.00164264
0.0140392
0.127116
0.0569085
0.0455725
0.12115
0.126872
0.0568945
0.0531151
0.0136129
0.0656359
0.0337813
0.00310971
0.00126236
0.123164
0.16689
0.0736822
0.0782261
0.175566
0.00671904
0.0423633
0.05632
0.0249679
0.00262699
0.142126
0.120109
0.0442888
0.0886433
0.0168
0.0380874
0.151026
0.171695
0.154882
0.00224998
0.148301
0.146691
0.191176
0.16255
0.0135343
0.0903739
0.0975341
0.154224
0.127554
0.0898048
0.187514
0.00857218
0.0570689
0.0649058
0.0200239
0.14272
0.00699341
0.037153
0.01785
0.142119
0.00176963
0.0192455
0.0403282
0.00229031
0.0797779
0.0939137
0.00249298
0.152658
0.0146092
0.0301811
0.0618675
0.00772838
0.0295997
0.0573263
0.00292363
0.165445
0.0391663
0.176111
0.00264423
0.00619086
0.124549
0.0132036
0.132582
0.00180088
0.120718
0.172826
0.11044
0.00701917
0.0270752
0.0381145
0.12894
0.0839423
0.066713
0.195976
0.00414759
0.00388748
0.0660998
0.0026683
0.00672559
0.149813
0.0183284
0.00848583
0.0895511
0.0407686
0.0065458
0.00745181
0.109595
0.0734519
0.0020535
0.162882
0.150932
0.151102
0.0120976
0.037692
0.0398871
0.00140592
0.119472
0.078414
0.11083
0.141537
0.169254
0.169296
0.134386
0.00213951
0.177817
0.0875049
0.0175254
0.168262
0.0162327
0.0363686
0.0926282
0.00360399
0.0851966
0.0396459
0.0287664
0.107847
0.121878
0.133689
0.0993962
0.00298278
0.185777
0.00836087
0.100868
0.00591304
0.00318537
0.155833
0.159598
0.0969193
0.14028
0.14685
0.0678058
0.01058
0.00588703
0.0208685
0.00253799
0.00229071
0.126327
0.0981231
0.00369518
0.00135595
0.0424028
0.00366225
0.105141
0.0267114
0.167949
0.00752781
0.133881
0.0269697
0.104212
0.0840006
0.167656
0.142117
0.126488
0.0084285
0.0461017
0.00162148
0.0688712
0.0119292
0.0843507
0.118045
0.044516
0.0139448
0.0408926
0.161621
0.17502
0.148209
0.163941
0.0105139
0.128582
0.00915181
0.0793983
0.00155842
0.101705
0.0904553
0.176408
0.00845561
0.121257
0.122789
0.180397
0.0161313
0.141705
0.0183808
0.00155006
0.127704
0.161938
0.16
0.00370758
0.185467
0.0252062
0.0146204
0.131729
0.140651
0.0653972
0.00871994
0.00702607
0.0634425
0.017203
0.187959
0.108856
0.00168217
0.0561589
0.181188
0.0238427
0.134175
0.0801713
0.144716
0.0461651
0.0605503
0.167758
0.127821
0.00369754
0.105977
0.0182972
0.160897
0.076846
0.167271
0.168878
0.108508
0.180019
0.172923
0.100698
0.0647758
0.0929728
0.113603
0.176521
0.00407594
0.00137503
0.101428
0.0871968
0.042087
0.128535
0.00277702
0.0918128
0.159648
0.116593
0.0117262
0.0753171
0.00169711
0.174454
0.00121327
0.0297387
0.163619
0.0877632
0.00301003
0.0210072
0.13804
0.165619
0.111215
0.180094
0.145786
0.152013
0.0847937
0.0013804
0.0116368
0.00656649
0.0041044
0.0627526
0.183262
0.00622743
0.132114
0.0324527
0.0237029
0.110769
0.11098
0.00284556
0.148688
0.00212029
0.00283032
0.00331753
0.0404556
0.0672504
0.114963
0.164048
0.0751188
0.129008
0.0150679
0.0587665
0.0149784
0.0034857
0.172111
0.159441
0.0115611
0.00129949
0.0527005
0.125566
0.129911
0.0927132
0.0116472
0.0475231
0.0310988
0.0170441
0.155766
0.00182276
0.00167284
0.0945252
0.14105
0.0195895
0.128297
0.145758
0.153562
0.00580099
0.0294047
0.00720698
0.00432469
0.165692
0.0830205
0.105045
0.0145226
0.00911979
0.00132632
0.00303944
0.110328
0.0832833
0.0254802
0.00205928
0.0056489
0.0170133
0.0629333
0.167348
0.12917
0.0140825
0.175725
0.053865
0.178399
0.149881
0.00275211
0.0105372
0.0854148
0.158608
0.00757982
0.128867
0.139693
0.143166
0.165873
0.153369
0.00285406
0.122743
0.130899
0.00366142
0.11413
0.0195403
0.00123273
0.00146936
0.077466
0.0198634
0.127312
0.173741
0.0297255
0.00398242
0.0776477
0.00766042
0.0271659
0.146466
0.039075
0.126279
0.131125
0.00964915
0.117455
0.0665348
0.138502
0.02332
0.00741143
0.081118
0.111467
0.0326901
0.0629138
0.0113115
0.0108988
0.00624535
0.0388741
0.0053126
0.144032
0.0524263
0.103065
0.00292492
0.100602
0.172096
0.00282928
0.0663216
0.00194222
0.00188835
0.00264007
0.026318
0.129249
0.00303845
0.127834
0.150975
0.165893
0.149249
0.146453
0.0692793
0.0502298
0.161922
0.00989991
0.0283641
0.00829343
0.128426
0.157825
0.13887
0.0102433
0.00644582
0.0107593
0.0234516
0.130536
0.142613
0.15474
0.0932116
0.00405777
0.0136611
0.0621291
0.171735
0.0817446
0.128778
0.0162605
0.00155578
0.0356237
0.00407598
0.111217
0.117079
0.00745577
0.00301173
0.0201239
0.0155785
0.0735916
0.0629607
0.0117197
0.0689645
0.135795
0.10969
0.130672
0.184333
0.0159469
0.00166164
0.130679
0.0615645
0.0643993
0.143801
0.0377929
0.0871668
0.00686565
0.010096
0.00711558
0.144403
0.169691
0.132445
0.00444713
0.00411519
0.0472452
0.00192879
0.156668
0.136267
0.170077
0.118469
0.00353617
0.0483637
0.0828551
0.156902
0.0399093
0.123109
0.00199613
0.0487673
0.00169607
0.15616
0.0668909
0.00126407
0.00122221
0.00497344
0.121954
0.00257935
0.126831
0.162886
0.0146284
0.0185971
0.0431579
0.00273303
0.0883901
0.128041
0.00439074
0.17242
0.174392
0.0599274
0.13202
0.00201085
0.0242814
0.00926012
0.073154
0.156068
0.144172
0.0842359
0.179128
0.110236
0.162137
0.111653
0.155717
0.00186613
0.130517
0.132621
0.0953561
0.0817525
0.00131332
0.153044
0.125317
0.00653913
0.016059
0.134906
0.155519
0.0787643
0.00442604
0.0577666
0.00284072
0.0176548
0.132957
0.104275
0.00118474
0.0939003
0.0434038
0.149884
0.166527
0.162166
0.0167837
0.031216
0.0502751
0.103467
0.134934
0.123833
0.00672294
0.127441
0.0116758
0.0762816
0.0778951
0.0112874
0.00653805
0.00228671
0.0529761
0.00988364
0.00442236
0.0937866
0.00260112
0.0518113
0.00516675
0.00702603
0.002543
0.129972
0.0283547
0.144451
0.0662084
0.00217573
0.00224504
0.120087
0.176415
0.0119007
0.154751
0.130861
0.0013022
0.15247
0.0969981
0.00177193
0.00145604
0.11718
0.118601
0.137729
0.00108669
0.00344053
0.00629133
0.106498
0.00385535
0.0122789
0.00662027
0.0136138
0.0159089
0.0540774
0.0767738
0.0399995
0.0105934
0.000793716
0.0986635
0.0226754
0.00204035
0.00479321
0.00143361
0.0886309
0.0194845
0.142216
0.0363236
0.0598818
0.0112143
0.194063
0.00171236
0.118469
0.00749284
0.106652
0.0142859
0.016229
0.0205427
0.00300811
0.0142445
0.0430839
0.16642
0.00832674
0.0930399
0.0575476
0.0560919
0.001158
0.169098
0.00719652
0.148424
0.0788518
0.00175883
0.00289337
0.00143614
0.138185
0.121741
0.114053
0.00168951
0.173733
0.0649567
0.00159356
0.133446
0.0400636
0.00970382
0.138048
0.010747
0.0736095
0.129087
0.0289177
0.00184119
0.00874438
0.042249
0.101498
0.151154
0.00201063
0.00728334
0.128198
0.0263824
0.145647
0.12026
0.157854
0.140826
0.013389
0.126114
0.0914282
0.12245
0.106809
0.0600496
0.00130256
0.0029542
0.028149
0.00782097
0.0998217
0.0254071
0.109446
0.146568
0.0889531
0.0960135
0.00128349
0.0907359
0.011631
0.0870236
0.0454936
0.156814
0.00121831
0.128649
0.0248664
0.0269731
0.00420744
0.0217164
0.0217487
0.00122359
0.0255171
0.0483349
0.014076
0.0767357
0.00131198
0.0176442
0.178359
0.0862263
0.017638
0.0132585
0.00903757
0.144687
0.0095464
0.132677
0.127384
0.00565487
0.163671
0.00654696
0.035656
0.14182
0.0715175
0.131968
0.125485
0.135983
0.0654504
0.00393162
0.129641
0.00381898
0.00187754
0.0286592
0.00670569
0.0786986
0.178367
0.156908
0.0912293
0.128633
0.00851276
0.0488996
0.118202
0.0790119
0.17524
0.00149172
0.0132375
0.0595416
0.00331444
0.00424764
0.0905505
0.100638
0.0232499
0.128248
0.139166
0.0928751
0.101309
0.152839
0.157379
0.13495
0.00199191
0.141129
0.00475738
0.0316873
0.0381114
0.165854
0.148568
0.0130364
0.0509916
0.0927536
0.132856
0.104389
0.100525
0.0726002
0.0148965
0.147036
0.0397766
0.00559273
0.12804
0.161677
0.0959289
0.044309
0.0806342
0.033778
0.0125376
0.0156979
0.0508013
0.10332
0.0152033
0.108906
0.00157918
0.00402861
0.0621652
0.00578967
0.127442
0.158008
0.0966172
0.120178
0.141718
0.138552
0.148845
0.137071
0.00966743
0.135055
0.137588
0.0575256
0.0188337
0.00367783
0.0477932
0.0589338
0.162675
0.0102834
0.00679112
0.0497697
0.00187834
0.00960716
0.00725224
0.142125
0.00939031
0.0933974
0.137943
0.0994349
0.00133221
0.00733353
0.127151
0.0318551
0.153222
0.11074
0.147115
0.0872554
0.0964789
0.0685734
0.131564
0.0170436
0.0519277
0.00128979
0.187549
0.03252
0.134432
0.00685652
0.0190203
0.00281131
0.00630028
0.00695035
0.0108682
0.00161097
0.123333
0.00380543
0.147151
0.0206528
0.138548
0.053055
0.0204003
0.0756162
0.00152758
0.0321394
0.0316483
0.147032
0.0059146
0.0990664
0.136833
0.0372789
0.0444847
0.167344
0.0674911
0.028564
0.111461
0.0419645
0.11108
0.0248442
0.100176
0.109613
0.00391202
0.0359402
0.151448
0.0575481
0.00243055
0.0225053
0.015016
0.00602828
0.112435
0.141392
0.00354822
0.0686437
0.0170241
0.0266583
0.00246482
0.112765
0.00792326
0.0458489
0.0582809
0.0736622
0.0962027
0.00122884
0.0461834
0.00151247
0.160435
0.0227787
0.00509918
0.0402999
0.00254379
0.0036317
0.14976
0.0256172
0.00165857
0.0246734
0.00280276
0.131052
0.0930889
0.00111167
0.00695843
0.00207548
0.147857
0.0860173
0.0993872
0.00147958
0.00511321
0.0630934
0.0915542
0.0156321
0.0115191
0.00344874
0.0918429
0.117135
0.00264633
0.0325013
0.107238
0.00558925
0.0061785
0.0489377
0.136668
0.00102311
0.00264578
0.151933
0.136486
0.0109541
0.147962
0.164036
0.109981
0.102647
0.0923656
0.0107155
0.0400908
0.00371694
0.0537389
0.00124152
0.098959
0.00991454
0.00537423
0.00762518
0.109453
0.114653
0.0103598
0.128397
0.113692
0.15548
0.0878763
0.104646
0.00377559
0.134581
0.122115
0.0016278
0.019933
0.0132194
0.0516531
0.134553
0.145767
0.0213086
0.00299003
0.00302762
0.124029
0.0112947
0.139833
0.0873669
0.145844
0.00169298
0.0188254
0.0336939
0.00675081
0.00896091
0.0664793
0.00322332
0.00281179
0.110691
0.141073
0.155644
0.0208149
0.0113753
0.154155
0.00566404
0.11478
0.163177
0.0122491
0.001609
0.069072
0.00535338
0.0513441
0.00184565
0.0905528
0.0790712
0.0900498
0.0506722
0.152349
0.133193
0.0505491
0.00230913
0.00215976
0.0345395
0.00270119
0.0436129
0.00185842
0.00228142
0.0210956
0.116118
0.11285
0.134537
0.114503
0.00397909
0.155837
0.0406232
0.0639712
0.00633482
0.00241924
0.00312216
0.0894352
0.00325547
0.0532279
0.0509761
0.12172
0.127615
0.00180943
0.0402217
0.00144828
0.0286098
0.0914489
0.00628924
0.145605
0.0367028
0.084136
0.00457462
0.101172
0.0456431
0.089128
0.121156
0.00443629
0.0476137
0.0248558
0.11912
0.0228264
0.0121401
0.00120524
0.115074
0.0117266
0.11566
0.0615256
0.150195
0.00637216
0.0217464
0.0178034
0.0360086
0.13687
0.110238
0.110453
0.161294
0.135552
0.125739
0.128416
0.00209491
0.0357789
0.0768992
0.103725
0.160409
0.00906009
0.00334675
0.00685485
0.0193801
0.0909831
0.135507
0.155795
0.120984
0.00565701
0.00165553
0.164725
0.0466489
0.0316328
0.00320521
0.0624496
0.0431392
0.00131093
0.0403312
0.142607
0.0032917
0.00232651
0.0900157
0.147118
0.0963906
0.00156186
0.0054116
0.0247474
0.00623106
0.00350219
0.0410702
0.00233468
0.0144655
0.0937305
0.0066374
0.0072257
0.14619
0.00192705
0.0783901
0.114
0.148569
0.00563333
0.112207
0.00486518
0.0550988
0.0464527
0.0172232
0.11978
0.0037548
0.0022839
0.145344
0.0523374
0.00494252
0.0126189
0.00152074
0.0204033
0.154542
0.112808
0.0965866
0.143969
0.0842866
0.0438352
0.0996371
0.0101939
0.0185766
0.0213187
0.120873
0.14199
0.132636
0.0262371
0.0257057
0.0946952
0.0114115
0.018972
0.0303146
0.0125879
0.014413
0.06228
0.00233512
0.113629
0.130103
0.00459619
0.00337202
0.00103403
0.0896011
0.16603
0.00151927
0.145624
0.126644
0.025805
0.144104
0.0153921
0.0117464
0.148491
0.00134656
0.00374068
0.0512369
0.00713709
0.00123986
0.127629
0.0406248
0.00473531
0.00162994
0.0372755
0.00831447
0.140346
0.160072
0.14057
0.0448234
0.00220958
0.00364678
0.00153318
0.0033965
0.0379519
0.0380727
0.0294347
0.128487
0.154932
0.130606
0.00381879
0.121283
0.00295983
0.039151
0.0621637
0.0107643
0.00385436
0.000807876
0.00299331
0.0155219
0.100481
0.126124
0.00313707
0.00355043
0.0344092
0.143276
0.15124
0.0171307
0.0338632
0.00546166
0.0125844
0.0402906
0.150139
0.00561804
0.134774
0.00123943
0.0543125
0.128916
0.00969756
0.0953192
0.00154836
0.160015
0.00175333
0.144873
0.0423639
0.0658322
0.140187
0.0633187
0.0174812
0.015021
0.00194471
0.00239123
0.0317108
0.0249836
0.0841396
0.00330697
0.0019864
0.128901
0.150094
0.140739
0.166238
0.00142358
0.178868
0.0536938
0.0196784
0.0469239
0.0497631
0.0730125
0.0785885
0.00884202
0.00218722
0.110511
0.0693572
0.00491165
0.0551217
0.0209992
0.0408194
0.00184504
0.0261934
0.0159158
0.114454
0.148689
0.146471
0.00197371
0.00215287
0.0129151
0.152818
0.110792
0.129635
0.000937485
0.142558
0.00236751
0.00213427
0.0415248
0.0142998
0.0789477
0.0397229
0.0711767
0.0773312
0.0013083
0.0442123
0.00898437
0.156699
0.0851957
0.14588
0.0780757
0.00478099
0.00387317
0.0307932
0.00238898
0.00524554
0.165022
0.102218
0.143881
0.104581
0.00188571
0.00387902
0.0451608
0.14453
0.0724457
0.0175757
0.0181803
0.000960026
0.0335027
0.00221648
0.015049
0.0625467
0.107719
0.147448
0.0103546
0.124614
0.142877
0.00153288
0.0198564
0.00555026
0.104335
0.0322566
0.134168
0.00156757
0.00357108
0.111816
0.0877402
0.0367516
0.0889064
0.131799
0.109205
0.135178
0.0010909
0.0316953
0.000985595
0.0374994
0.00617929
0.0166289
0.0016699
0.119472
0.0263507
0.00161345
0.0407496
0.0374641
0.00129614
0.141073
0.114272
0.0297344
0.00287915
0.00132551
0.0364234
0.0902864
0.122353
0.148719
0.0461136
0.194959
0.00325199
0.145144
0.0391234
0.0763536
0.142349
0.019855
0.00815635
0.0863066
0.00621369
0.101182
0.152355
0.0201026
0.00155374
0.0217056
0.0212045
0.0044202
0.00591808
0.128943
0.0978359
0.0348662
0.002605
0.00232467
0.110156
0.00122463
0.0491086
0.112171
0.0828746
0.00363907
0.0147077
0.116145
0.000754456
0.0691423
0.047896
0.120688
0.00195833
0.119674
0.00520247
0.067717
0.0369376
0.0567314
0.114526
0.00799067
0.000678077
0.139221
0.031314
0.010894
0.152701
0.0809348
0.0948635
0.0156205
0.0117738
0.011461
0.0463744
0.00282325
0.0336725
0.0120197
0.0424838
0.0156145
0.11199
0.00137007
0.00150844
0.0265207
0.114478
0.00925165
0.00250109
0.0669403
0.0262002
0.128302
0.0350998
0.00115321
0.0379374
0.00214724
0.0688847
0.0114037
0.0702128
0.00127567
0.141132
0.144108
0.105897
0.0243287
0.00332893
0.00367765
0.00882737
0.0308688
0.144519
0.0402523
0.0671625
0.126496
0.00524546
0.135196
0.0153223
0.0934472
0.043799
0.147002
0.150843
0.13984
0.0671798
0.0513744
0.025666
0.00151668
0.0997522
0.0426301
0.0243114
0.144766
0.0936017
0.055608
0.0562147
0.020966
0.13401
0.113664
0.00680717
0.162643
0.0610351
0.0932862
0.0593488
0.142032
0.00272707
0.0711913
0.117607
0.00514854
0.0316063
0.0377423
0.00241021
0.00749844
0.0799357
0.0292832
0.0535959
0.0522988
0.0763882
0.148479
0.0317026
0.0014022
0.00176496
0.00307354
0.0538924
0.00187547
0.0700308
0.052668
0.156984
0.00292757
0.113871
0.0356045
0.124138
0.00268479
0.00282928
0.107477
0.162779
0.0391054
0.113833
0.0932725
0.00698106
0.090068
0.114201
0.00141198
0.00233806
0.141764
0.0331991
0.0418566
0.00358434
0.150731
0.00255827
0.00173403
0.109659
0.0555537
0.00390199
0.0148703
0.0978844
0.104166
0.113624
0.0423366
0.146082
0.123046
0.00244437
0.00151855
0.00208274
0.137709
0.00270172
0.0769481
0.00697391
0.14601
0.0538289
0.0416564
0.14102
0.00329341
0.0442255
0.0112661
0.00567496
0.00245143
0.022268
0.0112322
0.00265688
0.00251992
0.124191
0.000964728
0.138488
0.119547
0.107581
0.11495
0.139193
0.00193461
0.067878
0.140115
0.0447742
0.0016451
0.00217585
0.0330354
0.148788
0.028899
0.02198
0.00304172
0.116082
0.125885
0.16357
0.0138549
0.0988604
0.140136
0.00158722
0.0161191
0.017736
0.110455
0.128105
0.063557
0.00200265
0.132252
0.00156465
0.017276
0.0805057
0.00188173
0.00245664
0.151605
0.00882972
0.0416058
0.0019606
0.133705
0.043503
0.139551
0.0631882
0.0295056
0.0039273
0.150658
0.114182
0.11216
0.00735256
0.0205522
0.00184561
0.0017739
0.0743049
0.00141435
0.0489839
0.0173217
0.00405252
0.00134789
0.0447066
0.001623
0.014659
0.07332
0.141506
0.00423623
0.0210899
0.0424221
0.00603244
0.147082
0.00231433
0.137425
0.0147157
0.13879
0.0609351
0.00145956
0.0173468
0.00693203
0.0457373
0.039827
0.0458537
0.00512785
0.0202743
0.002171
0.0769883
0.00204021
0.0827731
0.00564274
0.00937311
0.00364815
0.111075
0.126245
0.0981965
0.00230759
0.112699
0.131423
0.137303
0.0610071
0.147248
0.114294
0.00347405
0.00319503
0.00233835
0.0023352
0.124903
0.00403818
0.00254931
0.00577805
0.00162816
0.00157975
0.0462285
0.0022272
0.0367886
0.0220829
0.00264819
0.00602092
0.160149
0.00269934
0.087434
0.0864295
0.012973
0.00171926
0.00238724
0.000960698
0.039788
0.0615974
0.144392
0.00270309
0.00245091
0.11699
0.0119021
0.11474
0.0905051
0.0784198
0.00353835
0.00352496
0.0547743
0.107487
0.0450892
0.0674696
0.0981636
0.0570591
0.123915
0.0446024
0.0265029
0.00554753
0.0895722
0.00612768
0.0751419
0.050679
0.00172268
0.0025705
0.0505239
0.0416008
0.126707
0.0198068
0.066918
0.149294
0.0210501
0.122665
0.0798963
0.0419716
0.115393
0.0514155
0.00871077
0.0214994
0.0015321
0.0896104
0.181173
0.00256372
0.106601
0.0335108
0.115423
0.102161
0.151823
0.0774383
0.135399
0.0321091
0.099362
0.0016999
0.0822335
0.0616916
0.0395381
0.148295
0.0871639
0.0299045
0.10542
0.0103754
0.00174713
0.0629617
0.0541868
0.125983
0.0817925
0.11023
0.0638851
0.124438
0.0341221
0.00404631
0.106646
0.00893784
0.00144525
0.136632
0.107493
0.138658
0.0342747
0.0102761
0.103564
0.0146393
0.00367381
0.0615771
0.133127
0.001232
0.15952
0.113515
0.147131
0.176092
0.0964961
0.135321
0.0782622
0.00422028
0.0523452
0.0229634
0.019201
0.0673428
0.0667053
0.0209413
0.001592
0.00176788
0.00866989
0.00981239
0.00339212
0.00649211
0.134752
0.0560464
0.142408
0.0201772
0.114992
0.0397387
0.010671
0.132468
0.0195559
0.0218363
0.130814
0.118593
0.081743
0.115215
0.144715
0.139654
0.00458208
0.00416369
0.0603103
0.0825312
0.147093
0.0114472
0.00562606
0.00163912
0.0141582
0.00340321
0.120833
0.00244887
0.00132115
0.0762059
0.070068
0.0818634
0.136858
0.0661381
0.0949114
0.101371
0.0419147
0.00167513
0.00943815
0.00151186
0.11669
0.0107756
0.00419483
0.11654
0.126501
0.122753
0.148882
0.0581893
0.105007
0.0104138
0.0833618
0.0025432
0.0336691
0.00243418
0.00844803
0.0022478
0.00109315
0.0874027
0.13223
0.128364
0.0797339
0.149649
0.114081
0.0016719
0.00321829
0.0878963
0.073985
0.0875409
0.0221085
0.0106671
0.137831
0.0697761
0.00436991
0.126645
0.097337
0.0242705
0.0122346
0.0615327
0.00384261
0.00561156
0.038101
0.00277065
0.007264
0.00130191
0.14981
0.0453275
0.129945
0.0338192
0.00349316
0.132838
0.0014401
0.12716
0.173587
0.109697
0.00193716
0.0147346
0.0082712
0.105646
0.148857
0.0311483
0.00194702
0.0266547
0.120775
0.0968802
0.0849956
0.0476581
0.120165
0.125466
0.0019652
0.00240054
0.00200134
0.0223885
0.00618511
0.00224131
0.00847268
0.0021762
0.0118536
0.15485
0.134638
0.164748
0.069493
0.00264748
0.00271662
0.143432
0.00151348
0.00178274
0.0218313
0.107001
0.133296
0.00661524
0.00390991
0.00164124
0.0249934
0.00163023
0.159341
0.00611935
0.0100292
0.139765
0.00248384
0.11692
0.00644454
0.00199199
0.0384052
0.00556749
0.0755445
0.137783
0.00210351
0.00161073
0.00787233
0.0279939
0.00127059
0.00530511
0.00169152
0.00186958
0.00172692
0.00669757
0.00661847
0.0748577
0.0945127
0.0148037
0.00143152
0.138832
0.00133496
0.161601
0.013251
0.0309715
0.132009
0.00308054
0.112134
0.00584332
0.00152879
0.11541
0.0120916
0.00974284
0.00175153
0.00659727
0.0105239
0.111903
0.0776589
0.00262711
0.128254
0.13709
0.0170634
0.0390166
0.00149786
0.0345416
0.136555
0.0394984
0.137553
0.0106101
0.053997
0.00653719
0.142192
0.147657
0.00150736
0.00956415
0.11066
0.00191878
0.00444375
0.139157
0.046394
0.0541586
0.00185986
0.116244
0.143806
0.00572279
0.05355
0.00242758
0.0017007
0.0111364
0.0452248
0.0705656
0.0972084
0.01463
0.0308093
0.094374
0.00343678
0.0136597
0.127997
0.0877751
0.0112067
0.0558635
0.00140748
0.00509138
0.132743
0.00228363
0.00905797
0.018662
0.117373
0.00239753
0.00110882
0.00383028
0.108245
0.150841
0.0121897
0.0358023
0.130478
0.0911957
0.115297
0.121414
0.0284541
0.126805
0.131556
0.0152001
0.00636317
0.00125008
0.040956
0.00386572
0.00158844
0.106098
0.00359539
0.00350724
0.00136461
0.15775
0.0113007
0.00116933
0.00230185
0.00642802
0.00704966
0.0809849
0.00234311
0.0116659
0.00464366
0.144793
0.0164795
0.0129396
0.114811
0.0101183
0.00337475
0.114098
0.00238473
0.00330797
0.116431
0.130962
0.0810636
0.113911
0.0579915
0.14619
0.130115
0.00278049
0.00394606
0.0513945
0.00848235
0.200515
0.0205775
0.00138112
0.00152051
0.00146208
0.0272747
0.00165309
0.0778238
0.137454
0.0338263
0.00155911
0.0035936
0.00664769
0.00394086
0.0465211
0.127045
0.115279
0.0547139
0.0351604
0.00268824
0.00320202
0.0309782
0.002768
0.0013772
0.114754
0.00347776
0.0871634
0.0228578
0.0640882
0.0974015
0.150785
0.0291751
0.0332237
0.00385898
0.00152815
0.140949
0.0140626
0.0271492
0.0195477
0.0038094
0.0143436
0.00247175
0.101514
0.0077432
0.00209457
0.00700332
0.0058315
0.116824
0.00647811
0.00234296
0.00204346
0.147549
0.00652223
0.147323
0.0688271
0.0967689
0.016716
0.00243938
0.0011864
0.115803
0.00234137
0.0170283
0.152023
0.145916
0.0754097
0.159785
0.0191505
0.00226063
0.00184513
0.00755712
0.0984473
0.0809113
0.0183797
0.144678
0.00168738
0.0391193
0.101166
0.0145026
0.00783399
0.0207355
0.00129684
0.0101972
0.0012888
0.0416127
0.00396987
0.00434733
0.00278351
0.141637
0.0797446
0.0194408
0.0791512
0.0040093
0.00120777
0.0178196
0.00767274
0.0049854
0.00652285
0.0185099
0.0219343
0.0485378
0.136419
0.00572648
0.026704
0.0338404
0.0200434
0.0223184
0.0295867
0.00198682
0.0049046
0.0607114
0.0413634
0.0192045
0.0397877
0.109014
0.0140494
0.0115537
0.135242
0.00188783
0.0879519
0.00144847
0.105669
0.0681598
0.0527043
0.00147154
0.03505
0.00151624
0.00333749
0.0189313
0.0630865
0.006173
0.0152802
0.00581839
0.0478588
0.17914
0.0122934
0.137695
0.00143802
0.140179
0.142974
0.124779
0.0363476
0.0315785
0.0431457
0.0121035
0.0137913
0.0658804
0.0416488
0.00382102
0.00283732
0.0298944
0.0166134
0.137635
0.0110246
0.0204835
0.0091764
0.0732941
0.0122553
0.0217451
0.14861
0.149001
0.0743104
0.0428694
0.103806
0.00141517
0.142205
0.00807404
0.0412899
0.00273089
0.00390682
0.0289288
0.0136085
0.0101687
0.00403434
0.00214052
0.0477241
0.038473
0.0133512
0.0185742
0.0894442
0.00440321
0.00122738
0.140427
0.135349
0.00384076
0.0164447
0.0206083
0.108082
0.0188074
0.116406
0.0367536
0.0106028
0.0327995
0.029473
0.128338
0.145121
0.0201338
0.00153657
0.092251
0.020443
0.00450959
0.15165
0.130767
0.00144927
0.0108147
0.00784156
0.111162
0.0358672
0.0220559
0.168457
0.114712
0.00825522
0.0222167
0.00143036
0.0064364
0.0265564
0.00240541
0.0145346
0.00785834
0.128399
0.126181
0.0192817
0.0291459
0.0193869
0.0165608
0.0921496
0.0178122
0.0391237
0.0941218
0.15073
0.0383594
0.0952692
0.0377695
0.00803165
0.010872
0.13534
0.00777537
0.0209259
0.00373203
0.0155429
0.0013438
0.0132587
0.00156008
0.145856
0.00881421
0.0268636
0.123603
0.130368
0.0162525
0.0256493
0.0716067
0.131241
0.00987307
0.00132999
0.0323173
0.116085
0.0662729
0.00460383
0.0150076
0.0254793
0.147138
0.130263
0.0377927
0.0401124
0.0842607
0.0214965
0.00168579
0.0142577
0.00175253
0.146184
0.0379506
0.110017
0.0400356
0.0808482
0.121442
0.0144301
0.0376562
0.113955
0.00185323
0.0326954
0.00135896
0.128357
0.0270359
0.0212966
0.00876134
0.0225631
0.00783773
0.0283196
0.0116578
0.0208887
0.126729
0.00272463
0.0038264
0.0639573
0.139132
0.0257482
0.110157
0.111484
0.00906466
0.138187
0.00180801
0.00483958
0.00534828
0.0719128
0.139293
0.0373595
0.00961501
0.0159767
0.0379547
0.0377576
0.127802
0.0395252
0.103891
0.0649397
0.00141222
0.063406
0.080508
0.00411337
0.021363
0.0405596
0.0740047
0.0366639
0.139136
0.0404428
0.00179922
0.132837
0.0251175
0.00249703
0.00690104
0.0127719
0.0286853
0.0302362
0.00192791
0.00639279
0.0373836
0.0209342
0.0477787
0.052819
0.0272613
0.0804515
0.124134
0.00199371
0.120888
0.0438033
0.133512
0.0683975
0.0238473
0.133065
0.141817
0.016779
0.104326
0.0516147
0.0186415
0.026779
0.0143595
0.0322116
0.129302
0.0291998
0.0109343
0.035592
0.0189989
0.0230239
0.0192255
0.0272723
0.00172104
0.107391
0.00392037
0.010992
0.00440683
0.0220304
0.0137724
0.00930075
0.0420943
0.0122609
0.0116297
0.0336537
0.032975
0.110236
0.112358
0.154788
0.0442031
0.00137848
0.146792
0.00765485
0.0733972
0.0323291
0.0482479
0.00704923
0.0349629
0.0217488
0.0755104
0.0471942
0.043411
0.136521
0.039535
0.0357984
0.140127
0.0415229
0.0486502
0.129361
0.0207771
0.0317935
0.003264
0.0434318
0.0042142
0.011911
0.0301545
0.106141
0.0178498
0.132583
0.0262607
0.0197915
0.0037567
0.0418952
0.0296988
0.0221911
0.138426
0.015974
0.0408921
0.00284196
0.129557
0.0574025
0.00501707
0.0376826
0.0389465
0.150046
0.115565
0.146639
0.0205911
0.00349301
0.0333372
0.0570863
0.0434208
0.0196018
0.117468
0.0552134
0.0447519
0.0378386
0.0490553
0.164127
0.00528356
0.142164
0.00281738
0.162348
0.00326615
0.139809
0.14281
0.00716572
0.0556124
0.0400246
0.0114976
0.0406113
0.0223038
0.12874
0.132845
0.0767324
0.045049
0.00148987
0.116642
0.037185
0.0527347
0.0502266
0.0761817
0.0590703
0.010113
0.0212794
0.0430089
0.0314962
0.0401941
0.155048
0.0628783
0.014538
0.0820699
0.0642783
0.00748379
0.12938
0.03458
0.0141951
0.0390697
0.00256533
0.150196
0.0407048
0.17072
0.0211619
0.0231499
0.0684515
0.00274363
0.145327
0.0690372
0.0393939
0.145465
0.00324631
0.152157
0.0822128
0.0169998
0.0158366
0.0383015
0.148135
0.0286904
0.0215988
0.00161489
0.0735536
0.0296575
0.145544
0.140171
0.0401548
0.00793858
0.00248784
0.0762741
0.124918
0.132473
0.0832904
0.0369465
0.00370143
0.00269007
0.0824715
0.139606
0.122394
0.0381695
0.00480127
0.00275914
0.0575576
0.00667955
0.15417
0.0972537
0.0160461
0.108746
0.082394
0.0213055
0.00629973
0.00570184
0.0376902
0.0459979
0.00520484
0.016966
0.0467782
0.0297569
0.00579333
0.0807192
0.0665286
0.0351233
0.119208
0.082397
0.13356
0.150874
0.022982
0.0345169
0.0483733
0.0132143
0.0128879
0.0825323
0.0373229
0.150383
0.0968761
0.045534
0.0367852
0.0164879
0.0337286
0.00334752
0.051496
0.0471927
0.0539587
0.00443958
0.00192917
0.0276196
0.152325
0.0105307
0.0410462
0.0978235
0.106275
0.042313
0.132108
0.129991
0.0566488
0.0532045
0.00667086
0.0533353
0.0946973
0.0455421
0.0026768
0.0014513
0.119663
0.0614151
0.0385748
0.0373478
0.00338752
0.0553114
0.00430358
0.0115648
0.101533
0.0533954
0.00132862
0.0768839
0.0635853
0.0344749
0.043331
0.0810017
0.0630792
0.0790741
0.00988834
0.121799
0.0207778
0.0474141
0.0396331
0.079119
0.106988
0.0978241
0.0590488
0.0640604
0.119089
0.151662
0.0803277
0.0644705
0.0656001
0.0330354
0.0918982
0.0957579
0.0821872
0.0646725
0.0298064
0.115126
0.138038
0.00167195
0.0450232
0.00261327
0.0142927
0.133218
0.0567834
0.0159716
0.150094
0.0964647
0.15608
0.0492599
0.0605167
0.012645
0.0591238
0.110874
0.00657525
0.00367714
0.0175253
0.146939
0.00251386
0.0604509
0.132062
0.0153206
0.151105
0.0810609
0.00289428
0.130868
0.010932
0.088019
0.00689985
0.00659544
0.0367597
0.100861
0.130018
0.00884089
0.0515721
0.0501813
0.0437482
0.00418611
0.120476
0.00753841
0.0628643
0.00125695
0.0831085
0.108534
0.11405
0.0608034
0.0523934
0.0511841
0.00408873
0.0757896
0.134365
0.0787058
0.0674275
0.128673