/*--------------------------------*- C++ -*----------------------------------*\
| =========                 |                                                 |
| \\      /  F ield         | OpenFOAM: The Open Source CFD Toolbox           |
|  \\    /   O peration     | Version:  v2012                                 |
|   \\  /    A nd           | Website:  www.openfoam.com                      |
|    \\/     M anipulation  |                                                 |
\*---------------------------------------------------------------------------*/
FoamFile
{
    version     2.0;
    format      ascii;
    class       volScalarField;
    location    "950";
    object      k_0;
}
// * * * * * * * * * * * * * * * * * * * * * * * * * * * * * * * * * * * * * //

dimensions      [0 2 -2 0 0 0 0];


internalField   nonuniform List<scalar> 
13851
(
0.000164507
0.023548
0.000223156
0.00016311
0.000224308
0.000194464
0.000151549
0.00020175
0.000140079
0.000229178
0.00365078
0.0403472
0.0538629
0.0274299
0.000144858
0.000188496
0.00016965
0.000179041
0.0278511
0.000140019
0.000162444
0.000221976
0.000146807
0.000150141
0.000149699
0.000202685
0.00016613
0.00196383
0.000164066
0.000168315
0.000196457
0.000170735
0.000221332
0.00571816
0.000148931
0.01185
0.067337
0.00134767
0.000234014
0.00417953
0.000151578
0.000136548
0.0041777
0.00361148
0.00375595
0.0182221
0.0046473
0.00163714
0.000166912
0.000165571
0.000218971
0.000222381
0.00682528
0.000147354
0.000155147
0.00013689
0.000141296
0.00921632
0.000167455
0.000152575
0.000801684
0.0435296
0.000200726
0.000232717
0.000242551
0.000169138
0.0727655
0.00490875
0.000186949
0.000178621
0.0263533
0.0820899
0.024433
0.000148501
0.000142984
0.000143219
0.000220541
0.0310957
0.000201295
0.0267916
0.000155086
0.002219
0.000147665
0.0147756
0.000201644
0.0385915
0.000185923
0.0036785
0.000170602
0.000141734
0.011318
0.000169756
0.00493247
0.000176284
0.000169872
0.000150194
0.00022535
0.0558789
0.00017421
0.000153247
0.0180307
0.000203381
0.000159421
0.000163877
0.000162767
0.000185
0.000206933
0.00013583
0.0867751
0.000195765
0.000153753
0.000142415
0.000168696
0.000161735
0.000151226
0.0149835
0.0587741
0.000134873
0.000154005
0.000157113
0.00406923
0.00016359
0.0560179
0.0144671
0.000923176
0.00016327
0.000591251
0.000202199
0.000161467
0.000222378
0.000151235
0.000140247
0.0320658
0.000147357
0.0149836
0.000141777
0.000134827
0.0797704
0.0356957
0.036089
0.0173001
0.000156745
0.000151573
0.000140527
0.000163999
0.00361313
0.00199262
0.000240283
0.000151333
0.0035919
0.000218222
0.000154351
0.0273788
0.000140823
0.000161613
0.000163714
0.000146171
0.000163974
0.000219747
0.00021865
0.000142501
0.000175282
0.00885303
0.000140068
0.000178525
0.000138068
0.00261313
0.000187493
0.000160874
0.0356172
0.027219
0.000136518
0.000146484
0.0360561
0.000139897
0.00213636
0.000201212
0.000152191
0.0334992
0.00013665
0.000173113
0.0827288
0.000146676
0.00022451
0.000137428
0.000146796
0.000169752
0.000151642
0.000230265
0.000228002
0.00473928
0.00772359
0.00014439
0.000187635
0.0457567
0.000160973
0.000150819
0.00140946
0.000151603
0.000143615
0.000161803
0.0262965
0.00016089
0.00014739
0.00021952
0.000147071
0.047362
0.00016992
0.0496202
0.000138491
0.0755917
0.000158816
0.00224002
0.000136087
0.00013974
0.00379583
0.00020143
0.016648
0.000144347
0.0518286
0.000170521
0.000155434
0.068287
0.000243547
0.073051
0.00015068
0.000180671
0.000163283
0.00966163
0.000136357
0.00020147
0.000231894
0.000136463
0.000143686
0.0002129
0.000198802
0.0477588
0.000248181
0.000140517
0.00014765
0.000194799
0.000187183
0.000156168
0.000223295
0.00015949
0.0668002
0.000204147
0.00405468
0.000164241
0.000172968
0.000161088
0.000364221
0.000156329
0.000164503
0.000203109
0.000214037
0.000226398
0.0806045
0.0117446
0.000146185
0.000139757
0.00017642
0.000746499
0.000142664
0.040946
0.00016094
0.00015602
0.000175106
0.0692167
0.000167713
0.000160865
0.000161665
0.000212166
0.000199329
0.000187151
0.000140451
0.00218608
0.00216993
0.0775419
0.00364811
0.000157564
0.000137724
0.000165565
0.000201195
0.0012578
0.00387669
0.00014175
0.000144902
0.000209383
0.0040628
0.000124956
0.000166285
0.000152784
0.000190276
0.00379941
0.038944
0.000177035
0.0373148
0.000140818
0.0684638
0.000174295
0.000169372
0.0774435
0.00015505
0.000185791
0.0672107
0.000141421
0.000196453
0.000176604
0.000165397
0.0376644
0.000177495
0.000156049
0.0648914
0.00013691
0.000173681
0.000164842
0.0802309
0.000246148
0.000144544
0.000203926
0.000144677
0.022626
0.00016351
0.000146016
0.000149528
0.000248664
0.000179151
0.000160998
0.000144881
0.00015483
0.000155786
0.00357975
0.0255607
0.039538
0.00018324
0.0800363
0.0474053
0.000144392
0.000188737
7.54236e-05
0.000172542
0.000207747
0.000268322
0.0300943
0.000160693
0.0119532
0.0679177
0.000145128
0.000228143
0.000246302
0.00595776
0.00016091
0.0002099
0.0100197
0.000147105
0.0128602
0.000149411
0.000144631
0.000155107
0.000136044
0.000144771
0.0705609
0.00100006
0.00015104
0.000195015
0.000137932
0.0374395
0.000197062
0.0122784
0.0387204
0.000151362
0.000204821
0.000177092
0.00994605
0.000150005
0.000134943
0.00016439
0.0175714
0.000147158
0.0399928
0.000172363
0.000201456
0.0299257
0.000662659
0.000481329
0.000157974
0.000140948
0.000153104
0.000181006
0.000203484
0.0296475
0.000187187
0.0757819
0.0677483
0.000137952
0.000146423
0.0365286
0.0320058
0.000228895
0.0611103
0.000164872
0.000178555
0.000152183
0.0440625
0.000137978
0.000187386
0.000157354
0.000151126
0.000165885
0.000141028
0.000138058
0.000231813
0.000206626
0.0299112
0.000179448
0.000206431
0.00018072
0.000342437
0.000175822
0.00665493
0.000168469
0.00382981
0.000134832
0.000140737
0.000150014
0.00618055
0.00770292
0.000253685
0.000180285
0.0237004
0.00624191
0.000184889
0.000159355
0.000213333
0.000149438
0.000896821
0.000156625
0.0158905
0.00737404
0.000217773
0.0456091
0.000152099
0.00233654
0.00783298
0.01917
0.000135315
0.000181489
0.000202107
0.000207784
0.00013741
0.000156007
0.000214215
0.000208726
0.000186212
0.0303535
0.00014945
0.000150194
0.00741287
0.000180143
0.000137276
0.0114698
0.000140847
0.000164392
0.000138455
0.000198753
0.000162165
0.000137934
0.000151646
0.0655899
0.000148097
0.00018984
0.000141295
0.000170555
0.00374333
0.000162557
0.000151004
0.000161773
0.000162733
0.000972356
0.000155714
0.000189779
0.000146323
0.000148525
0.0206334
0.0430076
0.000147755
0.000171082
0.000175878
0.000226754
0.0152732
0.000150356
0.00108685
0.000150361
0.000223897
0.00015187
0.0111571
0.000136437
0.00651024
0.000226171
0.000136578
0.000170709
0.0449916
0.000202705
0.00458287
0.00015249
0.0130214
0.000160062
0.000139314
0.000140682
0.000150721
0.0392157
0.000213859
0.000186473
0.0367619
0.000200563
0.00014347
0.0568029
0.00729069
0.000173313
0.000175893
0.000219773
0.0144451
0.0773324
0.00015622
0.0116875
0.0179196
0.0239381
0.000179168
0.000171298
0.0143386
0.00251986
0.000213514
0.00193422
0.0313343
0.000164776
0.0347493
0.0751564
0.000135034
0.00201803
0.000214405
0.0355211
0.000165013
0.000145173
0.000145616
0.000149921
0.000229996
0.000196516
0.00218709
0.0307335
0.000140202
0.00648326
0.0444527
0.000188901
0.00785471
0.000189407
0.000136447
0.000140386
0.00436499
0.0589328
0.000161991
0.000230106
0.00896092
0.00013687
0.000185292
0.0120637
0.000554781
0.000261367
0.0413933
0.0768764
0.000150865
0.000151152
0.0297904
0.0662397
0.000156886
0.00018674
0.000202181
0.000136358
0.00014492
0.0204807
0.000136506
0.000164735
0.000136541
0.000140816
0.0757272
0.00023055
0.000176989
0.000136491
0.0415696
0.00112177
0.000141123
0.000139264
0.000142841
0.000151998
0.0164429
0.00313407
0.002914
0.0237971
0.0132064
0.000184125
0.0294015
0.0450429
0.000161601
0.000187787
0.000136427
0.000168323
0.000190624
0.0654072
0.00665573
0.000230122
0.000179587
0.000139436
0.00018804
0.000150244
0.00454818
0.000219432
0.00014601
0.000184459
0.000137426
0.000174321
0.000259979
0.000152225
0.00014904
0.000196951
0.000152897
0.000224604
0.00436108
0.000259658
0.000188957
0.00011171
0.000139234
0.00022132
0.000162415
0.0220711
0.000158376
0.000148867
0.0859316
0.000166139
0.0273582
0.0664214
0.0141449
0.0139975
0.000137972
0.0842839
0.000162662
0.000140793
0.00013635
0.0001409
0.00040781
0.000180618
0.000195927
0.000136223
0.0451939
0.000227447
0.0473072
0.000144329
0.00013916
0.000142067
9.77259e-05
0.0465498
0.000203135
0.000175007
0.000162772
0.000149711
0.000144772
0.000147157
0.0405387
0.0336977
0.000152599
0.000136194
0.00015075
0.000147077
0.0037599
0.00814486
0.000188885
0.0514738
0.013257
0.00014848
0.000212869
0.0188775
0.000189612
0.0406795
0.000155068
0.000176827
0.000202385
0.000177385
0.00181148
0.000147312
0.0145581
0.000158671
0.000179477
0.0501753
0.000143888
0.000163513
0.000201129
0.000139444
0.000171602
0.000271624
0.0346771
0.00021839
0.0344183
0.00134007
0.00013618
0.000143837
0.0205779
0.00574623
0.000202036
0.0678915
0.000138553
0.000174119
0.000135098
0.0120673
0.068338
0.000173073
0.000156696
0.0037114
0.000167058
0.000141447
0.00693874
0.000217165
0.0525463
0.000136891
0.00015239
0.03048
0.00519059
0.00270695
0.000149579
0.0815239
0.000147541
0.00381976
0.000264431
0.000221245
0.000170636
0.0147441
0.000159168
0.00015054
0.0626084
0.000149729
0.000161081
0.000162937
0.000138994
0.00794854
0.000185948
0.000263124
0.000176896
0.00298516
0.000139725
0.00028646
0.000150731
0.00015907
0.000140397
0.000147548
0.000147115
0.0653911
0.000145256
0.000135326
0.000189054
0.000151483
0.0366024
0.000151797
0.000150817
0.00021611
0.00444221
0.00113525
0.000140826
0.000204409
0.0538117
0.00015602
0.0723045
0.000178935
0.000138624
0.000156409
0.00502902
0.000201619
0.000173708
0.000141116
0.000135891
0.00740467
0.000226415
0.000213213
0.000175892
0.000156723
0.000153237
0.000150299
0.000228097
0.00261122
0.000229485
0.00402403
0.000152109
0.000224567
0.000227616
0.0817546
0.000172636
0.0436029
0.0320867
0.000151517
0.0205369
0.000217084
0.0515254
0.0344376
0.0623825
0.000954931
0.000197942
0.000138819
0.000179926
0.00992613
0.0168852
0.000148448
0.000150448
0.000214115
0.00417086
0.000136003
0.0066486
0.000138278
0.000150707
0.0080015
0.0306018
0.00125646
0.000140745
0.000144707
0.00597808
0.0358332
0.000256951
0.000158672
0.0445689
0.00110902
0.0489875
0.000206723
0.000194427
0.000156206
0.00015166
0.0231641
0.000199254
0.0311541
0.00016518
0.000186625
0.00926331
0.0503478
0.0398618
0.000149141
0.000181307
0.000140969
0.000189871
0.000163161
0.0419188
0.000173673
0.0565711
0.000135774
0.000215193
0.000146479
0.000136432
0.000185143
0.000180895
0.0526559
0.00019607
0.000201102
0.00015155
0.000215384
0.00344917
0.000206193
0.000165209
0.0266444
0.000141895
0.0329696
0.000734604
0.00015425
0.0743876
0.0181758
0.0393474
0.001512
0.000164083
0.000148605
0.050259
0.000175082
0.0141336
0.0499828
0.000144357
0.000159618
0.00629152
0.00117152
0.0390096
0.000152699
0.000137844
0.0245147
0.0496169
0.000263571
0.000172351
0.000157069
0.00119465
0.0104432
0.000229548
0.000135323
0.00019843
0.000139582
0.000157076
0.000303367
0.000154159
0.0215634
0.00140119
0.000151021
0.000152072
0.000148869
0.000163168
0.0289504
0.0431742
0.000180646
0.0439728
0.000146227
0.000180856
0.000148075
0.000139744
0.000154203
0.000150884
0.0381161
0.000148052
0.000202867
0.000149527
0.000174008
0.000306169
0.00483454
0.000152526
0.0300046
0.000215159
0.0449066
0.000187125
0.000187315
0.0260696
0.000174209
0.000197201
0.0415146
0.00191959
0.00718268
0.000196414
0.00348464
0.00015766
0.000194493
0.00020386
0.0402489
0.000143217
0.0346
0.000143516
0.00014466
0.0296802
0.000155369
0.04239
0.000171472
0.000140871
0.000184012
0.000141008
0.000144772
0.000173653
0.000154635
0.0552917
0.000144698
0.0335596
0.00978029
0.000215132
0.0337578
0.000151342
0.00015268
0.000168991
0.000150257
0.000140627
0.000223764
0.000154467
0.000142785
0.000157097
0.000148899
0.0372049
0.0329283
0.000204518
0.0602688
0.0458516
0.000144996
0.000426539
0.000179114
0.000144412
0.00471841
0.000184002
0.00741004
0.000143557
0.00420403
0.000832534
0.011825
0.000136863
0.0527084
0.000184464
0.000166025
0.000179761
0.000138677
0.0427224
0.000215328
0.00157156
0.00014334
0.0001467
0.000406222
0.000154342
0.00529866
0.000761119
0.00142892
0.0353762
0.00656149
0.000148108
0.000150838
0.000204995
0.000171096
0.000164247
0.00021305
0.000198241
0.000154756
0.00015647
0.0329905
0.000142992
0.0356586
0.0526951
0.0133521
0.00985235
0.000155851
0.000139266
0.000155677
0.00382213
0.0046027
0.00013684
0.000163419
0.000142952
0.000222834
0.000136217
0.000142469
0.000155784
0.000186195
0.0640721
0.000198282
0.000184363
0.00014728
0.000201534
0.0437718
0.000156621
0.0232796
0.0319846
0.000224388
0.00013712
0.000197022
0.000145301
0.000145631
0.000155115
0.0305666
0.000253664
0.00705748
0.000164361
0.00382169
0.00014572
0.000160445
0.000155226
0.000280063
0.00022175
0.000141346
0.000185659
0.000207838
0.0429375
0.000162315
0.0114252
0.000440516
0.0455006
0.000222989
0.0742261
0.000230589
0.000224066
0.00434295
0.0466888
0.00654299
0.0289409
0.000140757
0.000253986
0.000136209
0.000165501
0.000171572
0.000153568
0.0464155
0.000181734
0.000176324
0.00146714
0.00131845
0.000591471
0.000144565
0.000164514
0.000174359
0.000140036
0.000181571
0.0266247
0.0121412
0.0202177
0.000142122
0.000174244
0.000159683
0.0143455
0.0632073
0.000204708
0.000139249
0.000153848
0.0121745
0.000201545
0.0292476
0.0547728
0.000166207
0.000137098
0.0666722
0.000180495
0.000198879
0.00017839
0.0735689
0.00402481
0.000266128
0.000223942
0.000159898
0.000169783
0.000150535
0.00687481
0.000203043
0.0442447
0.00335456
0.000171341
0.000574503
0.00016102
0.0747093
0.0360772
0.000145142
0.000216093
0.0524684
0.00019728
0.083373
0.000148632
0.000151407
0.0295551
0.0453271
0.0106854
0.000159424
0.000150963
0.000151187
0.037259
0.000239748
0.000154569
0.000184451
0.000228037
0.0477024
0.064002
0.0064345
0.000146469
0.0804456
0.000168272
0.000150791
0.000273972
0.0448395
0.00015167
0.000143453
0.00415281
0.0733495
0.000160383
0.000142018
0.0352621
0.000144216
0.00431492
0.000142106
0.0123197
0.00015149
0.000203502
0.0209473
0.0646551
0.000159653
0.00587133
0.00260244
0.0437263
0.0429356
0.0458711
0.000166044
0.000145388
0.0257163
0.000161982
0.00014471
0.000140028
0.00718104
0.000148093
0.0647985
0.000143762
0.000150863
0.028427
0.000216503
0.0155577
0.000162175
0.000171228
0.000140488
0.000184671
0.0737526
0.0200761
0.000141467
0.000214751
0.00521915
0.000154914
0.000138802
0.0508922
0.000188147
0.000191474
0.000181618
0.03304
0.000233817
0.0727281
0.0832103
0.000167166
0.00378803
0.00616936
0.000512693
0.00021495
0.000144757
0.000167255
0.000145442
0.000144272
0.0335522
0.0506986
0.000164313
0.0305134
0.000214986
0.034932
0.000187779
0.000185157
0.000149358
0.000216894
0.000163823
0.000144061
0.000160196
0.0693371
0.0560068
0.00917591
0.075997
0.000196032
0.0606767
0.0715816
0.000183939
0.000149685
0.000146587
0.00327652
0.000144179
0.0401134
0.000155858
0.000156662
0.000165191
0.0479827
0.0812434
0.0155058
0.000156731
0.0694483
0.000171465
0.00018216
0.00014259
0.00014431
0.00881171
0.000176621
0.0455155
0.0215509
0.000183366
0.000255085
0.000145243
0.000197786
0.000154574
0.000443133
0.000151961
0.000161587
0.000156095
0.000154852
0.00230239
0.000156892
0.000190675
0.000144579
0.000191605
5.81598e-06
0.0295417
0.000147101
0.000201685
0.000160793
0.000202746
0.000175286
0.053299
0.00025915
0.000182786
0.000164652
0.000156645
0.000171001
0.000150365
0.00331815
0.000144784
0.000143948
0.000150331
0.0644506
0.00017514
0.000167743
0.00016711
0.000147787
0.000209804
0.0620511
0.036525
0.000189928
0.000150343
0.000161191
0.000146659
0.000145523
0.00731362
0.0572227
0.00015127
0.000183763
0.000231114
0.0723389
0.000154652
0.000156582
0.0537708
0.000160424
0.000163078
0.0465306
0.0838515
0.00015175
0.000179138
0.000146701
0.0710629
0.000174975
0.000198172
0.000262908
0.0163651
0.000158395
0.0826441
0.0323862
0.000154748
0.0493761
0.000224638
0.000156258
0.00913815
0.000151859
0.000148754
0.000137926
0.00113133
0.000168835
0.00492451
0.000161978
0.000157038
0.000179297
0.00143575
0.0577558
0.0809859
0.00514246
0.00015575
0.000138179
0.000252039
0.00817881
0.000221868
0.00410772
0.000144438
0.000166722
0.000138912
0.000215958
0.000193686
0.000146535
0.0341772
0.000256299
0.000186627
0.000153748
0.000138896
0.000147701
0.000208779
0.000189898
0.000184965
0.000215205
0.000216335
0.000213888
0.000253358
0.0399071
0.000202155
0.0795199
0.000147319
0.000142926
0.0382957
0.0184275
0.00746354
0.00019071
0.00015006
0.0296034
0.0051818
0.000144235
0.000172421
0.000141123
0.000195387
0.000217596
0.000783632
0.0076184
0.0557281
0.000160346
0.0503959
0.0264321
0.00014622
0.000224079
0.0336284
0.00760148
0.000165256
0.000219392
0.000136316
0.000163033
0.0001438
0.000171913
0.0773726
0.0464703
0.00683434
0.031562
0.000159285
0.000189909
0.000209736
0.000145509
0.000151009
0.000138805
0.0660992
0.000143744
0.0782356
0.000193307
0.000197496
0.000172206
0.049743
0.0328298
0.0724787
0.000194849
0.000138133
0.000149266
0.0675902
0.0512051
0.000168942
0.000140808
0.000137437
0.000213594
0.000183446
0.00112602
0.0429344
0.000158683
0.000138181
0.00025055
0.000160831
0.0286408
0.00784535
0.000142211
0.000219512
0.000154197
0.0758298
0.000139139
0.0630837
0.000152987
0.000158341
0.000182217
0.000151769
0.00020154
0.00018139
0.000200759
0.0109109
0.0578259
0.000170555
0.000182019
0.000149007
0.0701343
0.0123813
0.00014622
0.000138003
0.00523802
0.000134881
0.0398056
0.000157508
0.000187541
0.000217779
0.000218421
0.000195287
0.000159727
0.000150823
0.000215739
0.0707089
0.000145633
0.000214207
0.0278364
0.00212647
0.000142796
0.000188974
0.0377452
0.00016883
0.00025555
0.000145443
0.00516474
0.00518494
0.00998935
0.0112343
0.0454683
0.000158383
0.000167335
0.000143355
0.0236425
0.00492608
0.0667599
0.0102599
0.000176557
0.0383141
0.0146341
0.00019104
0.000162563
0.00015222
0.0450609
0.000172823
0.000215104
0.00016286
0.000155381
0.000139731
0.000153654
0.0574857
0.0486352
0.000184936
0.0129078
0.0459759
0.000154913
0.000147048
0.000138575
0.000168259
0.0607337
0.0580726
0.000172752
0.000167843
0.00021782
0.000222708
0.000198703
0.00571404
0.000183383
0.0767067
0.000179689
0.000180679
0.000146112
0.000163041
0.000218606
0.00167373
0.00516392
0.0494768
0.000217811
0.0367913
0.000156203
0.000168032
0.000150075
0.00754013
0.0196448
0.0143118
0.000184782
0.00016437
0.000150691
0.000143897
0.000144811
0.000139037
0.00619777
0.000181117
0.00715581
0.000186938
0.0529262
0.0145135
0.068338
0.000164216
0.000171475
0.0107327
0.000196527
0.000166893
0.0472353
0.000139149
0.000169061
0.000175831
0.0166907
0.00708056
0.000190874
0.000183823
0.00456606
0.000154989
0.000203741
0.000173604
0.0192754
0.00140173
0.000166469
0.000151017
0.00519604
0.00011613
0.000252158
0.0131817
0.000179957
0.000168859
0.000142568
0.0154183
0.0548279
0.000223408
0.000181755
0.059491
0.0284236
0.000143679
0.000147737
0.000167338
0.0689181
0.0656519
0.000145746
0.0355798
0.000156134
0.000147205
0.000154834
0.0282985
0.00028905
0.000159938
0.00712023
0.000163299
0.000161484
0.000144091
0.0105672
0.000155119
0.0348324
0.000165596
0.022709
0.000153833
0.00014569
0.000258645
0.00586271
0.00495391
0.000192189
0.0414021
0.000152407
0.000152116
0.000148211
0.000200568
0.000214394
0.000214219
0.000192543
0.0738098
0.000167462
0.000246351
0.000230102
0.0363824
0.000149775
0.0431523
0.0521289
0.000167781
0.00784737
0.000211899
0.0162261
0.000153274
0.000218617
0.000145919
0.000151925
0.0256313
0.000222097
0.0744475
0.000165904
0.000198921
0.000161022
0.0379186
0.000138416
0.000140968
0.00799191
0.000228172
0.0180181
0.0716874
0.000210335
0.000179461
0.000137726
0.00360036
0.000181046
0.000144269
0.000716113
0.000173993
0.00019768
0.000150864
0.00088568
0.000156383
0.00390166
0.00497696
0.000181595
0.000216334
0.000209846
0.0758185
0.000151593
0.0199414
0.0283771
0.000139961
0.000148553
0.000162758
0.000154143
0.000195591
0.000145519
0.000185411
0.00022039
0.00374178
0.000203342
0.000153912
0.00015556
0.000137715
0.0752264
0.000152417
0.000151072
0.0313081
0.00016481
0.0136502
0.0752653
0.000229559
0.000166532
0.000188937
0.000161286
0.000156128
0.000174349
0.000138635
0.0001655
0.00699863
0.0667487
0.0450315
0.000161084
0.00884
0.000215815
0.000154145
0.00353632
0.0688531
0.000145684
0.000163946
0.000144197
0.0804609
0.0161504
0.00108077
0.000138608
0.000166927
0.000157115
0.000151322
0.000246693
0.000154543
0.000167162
0.0054081
0.0786071
0.000139021
0.000165345
0.000162878
0.020222
0.000139224
0.014402
0.00794724
0.000172462
0.00283482
0.0377773
0.034311
0.000157031
0.00112303
0.000184131
0.000158015
0.000137508
0.000142338
0.0740812
0.00729915
0.010459
0.000146489
0.0768313
0.000153298
9.63411e-05
0.000137996
0.000164354
0.000157931
0.000138854
0.0181512
0.000158063
0.0349717
0.0280704
0.0136385
0.000202897
0.000202148
0.0153233
0.0699517
0.000147926
0.00486299
0.000137811
0.000135234
0.000146287
0.000175126
0.000140096
0.0111287
0.000179625
0.000199611
0.000193904
0.00767042
0.0123607
0.000227877
0.000138576
0.000210555
0.000222305
0.0173017
0.000149669
0.000139677
0.000161455
0.0344114
0.000153367
0.00341303
0.0102039
0.000196049
0.00021223
0.000150154
0.000827379
0.000154302
0.0626128
0.000135296
0.00608699
0.000182089
0.000151535
0.0107273
0.0120676
0.000134725
0.000210945
0.000169354
0.00965166
0.000159482
0.000238682
0.000187566
0.000154855
0.00021073
0.0514987
0.000143592
0.000174844
0.000156548
0.000220442
0.00018497
0.00868795
0.0430133
0.00015204
0.0431491
0.000159193
0.000199311
0.0632724
0.00986728
0.000192112
0.0466877
0.000291221
0.000151033
0.00360887
0.000117852
0.000182079
0.000157978
0.0541871
0.000134977
0.0123351
0.000167596
0.000241577
0.000144298
0.000182896
0.0439981
0.000199648
0.0500712
0.000156527
0.000166092
0.000221113
0.0564095
0.000170956
0.0700323
0.0147758
0.0116964
0.000155079
0.0553373
0.0284773
0.0203173
0.000145763
0.00014827
0.000150996
0.0719119
0.000154468
0.00127731
0.000505985
0.000155428
0.000137561
0.000145616
0.0195296
0.083719
0.0189785
0.0129379
0.000143564
0.0468811
0.0718296
0.000152474
0.00774734
0.0465762
0.000190294
0.0115693
0.000163262
0.000170053
0.08024
0.053052
0.000166238
0.0282794
0.000156055
0.000148687
0.0476992
0.0431363
0.0835288
0.0236546
0.000185151
0.000155191
0.00016207
0.0758891
0.0113027
0.000145324
0.000197078
0.00950693
0.000148404
0.000153037
0.0670676
0.0309737
0.000163534
0.000145933
0.000157514
0.000161736
0.00018217
0.000154123
0.000146166
0.000173157
0.000260876
0.0335088
0.000186048
0.0493604
0.000152313
0.000170342
0.052848
0.071632
0.000179372
0.000223534
0.000144234
0.000191086
0.000159862
0.000169531
0.000216548
0.000146039
0.00184231
0.00018797
0.00014284
0.00016914
0.0344508
0.0275305
0.0395071
0.000148922
0.000172122
0.0740578
0.0118936
0.000166074
0.000149157
0.00014644
0.00360848
0.000153292
0.000146145
0.000178044
0.000148225
0.0529074
0.000188767
0.000155018
0.000167963
0.000137956
0.000154445
0.0226025
0.00019538
0.000218406
0.00851171
0.000199626
0.000155654
0.000144061
0.000151735
0.000150652
0.00015447
0.000161797
0.000220917
0.0618722
0.000155599
0.00025726
0.0395794
0.000171494
0.000150159
0.000141115
0.000163362
0.0471858
0.000150038
0.00391295
0.0608481
0.000196458
0.000147357
0.0267614
0.000141274
0.000167888
0.000135632
0.000141395
0.000153782
0.000141988
0.000173477
0.0547548
0.000214416
0.000194913
0.00583563
0.000210144
0.000218199
0.000184242
0.043242
0.0083584
0.000251156
0.0448367
0.0685948
0.000260647
0.000770422
0.000154425
0.000140373
0.0351892
0.000145747
0.000168211
0.047132
0.000166616
0.0351387
0.00026431
0.000141854
0.000150695
0.000152672
0.000166186
0.000137743
0.00018158
0.0197703
0.0638243
0.0146944
0.000153017
0.000135322
0.000218464
0.0319534
0.0528036
0.000242986
0.0668308
0.000142458
0.0745145
0.0431662
0.000199477
0.000167316
0.000153377
0.00015077
0.000164908
0.000153373
0.000151811
0.000167355
0.0509185
0.000222866
0.0449953
0.000176121
0.0159879
0.011908
0.000145174
0.000139109
0.000148282
0.000136256
0.00015409
0.000195686
0.0393744
0.0124295
0.0755272
0.00016278
0.0135919
0.00016667
0.0711681
0.0490108
0.000154019
0.000142102
0.000314146
0.000153343
0.000134859
0.00690291
0.0528645
0.0705123
0.000150516
0.000152609
0.000155331
0.000194615
0.029436
0.000138036
0.000167575
0.0355258
0.000158531
0.00836296
0.000194297
0.0468948
0.000154917
0.0525707
0.0324918
0.000192008
0.0748948
0.000266745
0.0452591
0.000139768
0.000171525
0.000142915
0.00018271
0.0303295
0.0001483
0.00782419
0.000147759
0.000145759
0.000145697
0.0728851
0.000198188
0.000260575
0.00215352
0.000137631
0.000201639
0.00988191
0.000210218
0.000140879
0.000157931
0.000153654
0.000199867
0.000148905
0.000143483
0.0733511
0.0801816
0.0707297
0.00016747
0.0285168
0.0128846
0.00021526
0.0775617
0.000251261
0.000139007
0.000145031
0.000134871
0.000155359
0.0768016
0.0751454
0.000139018
0.00672896
0.0684053
0.000178431
0.000155055
0.000177765
0.0518482
0.0653351
0.0508258
0.000204892
0.0526532
0.000134966
0.0201904
0.000237741
0.0036258
0.0819995
0.00014644
0.000168922
0.0112849
0.0001879
0.0318255
0.000156897
0.000185735
0.012136
0.0576194
0.000218875
0.000185164
0.0298733
0.000166451
0.0564984
0.0668724
0.0529141
0.000262445
0.0511709
0.000152921
0.000163301
0.000200444
0.0376613
0.0051467
0.0444844
0.000147033
0.00024407
0.000220135
0.000151146
0.0699743
0.000145931
0.000168759
0.0367382
0.000145366
0.0466351
0.0468234
0.0632997
0.0530083
0.013212
0.000186373
0.000147663
0.0776409
0.000147399
0.000141652
0.000196666
0.000166328
0.0515398
0.000166701
0.000175386
0.000167615
0.000142037
0.0370443
0.000163051
0.000264786
0.00324957
0.000138998
0.0421805
0.000238522
0.000155052
0.00907412
0.0346205
0.000144211
0.000228464
0.000157311
0.0685567
0.000169132
0.000139748
0.000251819
0.000163312
0.0790401
0.0522269
0.000219439
0.0178755
0.000171155
0.000146723
0.0474053
0.000165555
0.000150859
0.0679983
0.000192379
0.000142192
0.000142703
0.000257978
0.000162512
0.036789
0.0229948
0.000167263
0.015575
0.00020273
0.000213566
0.000148106
0.0796439
0.028802
0.0203334
0.000146012
0.000137478
0.000219813
0.00018422
0.00056749
0.000151138
0.0109712
0.00014841
0.000259156
0.000145366
0.000171219
0.000162152
0.000256985
0.0429562
0.0198902
0.0675581
0.0504625
0.000135291
0.0611521
0.0656631
0.0352756
0.000140381
0.000393528
0.0293228
0.0121155
0.000252978
0.0251363
0.00122023
0.0806598
0.000196233
0.0277953
0.00013869
0.000200571
0.000194372
0.000145502
0.000215798
0.0170419
0.000170195
0.0128617
0.0768093
0.00014497
0.000142619
0.000176221
0.000145809
0.0146479
0.000138425
0.000142249
0.0813038
0.0429281
0.000187434
0.000239729
0.000151869
0.000227025
0.00841444
0.0519661
0.00905184
0.000169678
0.0521654
0.0001599
0.000136552
0.000162151
0.0443973
0.0589659
0.0167033
0.0453337
0.000158716
0.000143128
0.0001461
0.000154444
0.000173551
0.0191459
0.0709723
0.000180192
0.0711724
0.0362192
0.000180598
0.0240441
0.00014938
0.000181856
0.000205245
0.000147407
0.000223897
0.000175403
0.000166594
0.0440091
0.0517903
0.000138322
0.000191825
0.000182159
0.000217756
0.0218933
0.0445498
0.0790923
0.000153271
0.000223971
0.075343
0.000223933
0.000256023
0.000166884
0.0528594
0.0845186
0.0762552
0.000138044
0.0504822
0.000138047
0.000163123
0.000148898
0.0002123
0.0830861
0.0267752
0.011749
0.0116038
0.000209986
0.000134442
0.000140971
0.000152844
0.000156423
0.000198566
0.0798526
0.0717248
0.000219629
0.000538516
0.000155513
0.000209874
0.000139599
0.061266
0.000218162
0.00015269
0.000264067
0.000240716
0.0180845
0.0417659
0.000260663
0.00498105
0.000170317
0.0217174
0.0311731
0.0773539
0.00545784
0.000159677
0.000209736
0.000152026
0.0643679
0.00798011
0.000196723
0.0354738
0.0247916
0.0354846
0.000216369
0.000253283
0.000197654
0.000141688
0.000254079
0.00021312
0.000167375
0.000209695
0.000184587
0.000187501
0.010258
0.00349028
0.000164528
0.000183819
0.00019174
0.000186971
0.000155582
0.0432927
0.000253426
0.000305733
0.0132814
0.000150165
0.0491226
0.000146077
0.000168295
0.000165745
0.0497047
0.000195117
0.0565141
0.0266622
0.000212184
0.00019487
0.000259693
0.0326037
0.000137097
0.017685
0.000161483
0.000196806
0.000142214
0.0505243
0.00273364
0.000160718
0.000146073
0.000194379
0.000172249
0.000169036
0.000199681
0.000192303
0.000153505
0.000190001
0.0323393
0.0202824
0.000235497
0.000196356
0.000137157
0.033478
0.000185303
0.000211333
0.000214367
0.000194464
0.0312984
0.000135116
0.000173564
0.00016781
0.000188994
0.000148224
0.0475462
0.00200816
0.0366042
0.000194492
0.072249
0.0463626
0.000171352
0.0335302
0.000212499
0.0394595
0.011678
0.000198446
0.000167106
0.000192912
0.000216775
0.000163137
0.0383206
0.0405275
0.00303256
0.000141788
0.0528353
0.000184237
0.00152009
0.000145557
0.000199034
0.00014584
0.000184337
0.0394402
0.000181874
0.000180789
0.000142436
0.000141755
0.000465764
0.0444289
0.000152351
0.00598295
0.0325355
0.000134557
0.000154519
0.0501565
0.000251592
0.00024202
0.000148038
0.00017628
0.000235205
0.000148289
0.00014716
0.047939
0.000181285
0.0480295
0.000225211
0.000173204
0.0840383
0.000242252
0.000109156
0.000142806
0.000824584
0.000180265
0.000174674
0.0322698
0.000195574
0.000154815
0.000226799
0.000168481
0.000164031
0.000135702
0.000452494
0.000149925
0.000216434
0.031221
0.0002364
0.000142415
0.014592
0.000182422
0.0228831
0.000200087
0.0430026
0.000241823
0.0557319
0.000139882
0.000222466
0.000170561
0.000144523
0.000723359
0.017711
0.000168329
0.000210624
0.000153851
0.000219673
0.0424734
0.000172223
0.000178058
0.000251571
0.0333607
0.0319559
0.000262863
0.000260633
0.00014157
0.000217326
0.000192394
0.0119297
0.0285472
0.0615063
0.043016
0.0712888
0.000141553
0.000250105
0.000145558
0.000158425
0.000153302
0.00192482
0.000177714
0.0002232
0.000146287
0.0175538
0.000176638
0.0391428
0.000141839
0.000214525
0.00018171
0.000214041
0.000199235
0.000244062
0.000161592
0.000578016
0.000241622
0.000143281
0.0164006
0.0520683
0.00019772
0.00015946
0.000182636
0.000148201
0.000147255
0.000210851
0.000155273
0.00901699
0.0212244
0.000227787