/*--------------------------------*- C++ -*----------------------------------*\
| =========                 |                                                 |
| \\      /  F ield         | OpenFOAM: The Open Source CFD Toolbox           |
|  \\    /   O peration     | Version:  v2012                                 |
|   \\  /    A nd           | Website:  www.openfoam.com                      |
|    \\/     M anipulation  |                                                 |
\*---------------------------------------------------------------------------*/
FoamFile
{
    version     2.0;
    format      ascii;
    class       volScalarField;
    location    "800";
    object      ddt0(k);
}
// * * * * * * * * * * * * * * * * * * * * * * * * * * * * * * * * * * * * * //

dimensions      [0 2 -3 0 0 0 0];


internalField   nonuniform List<scalar> 
13851
(
-7.1507e-07
-1.67457e-07
-1.95606e-07
0.000295917
3.74871e-08
-2.07289e-07
-3.97049e-07
-4.05321e-08
0.000132275
1.69659e-08
-2.42046e-07
3.15913e-08
1.53118e-08
7.46775e-05
-5.52545e-07
-4.18156e-06
0.000319596
-8.74717e-08
-2.53634e-05
-2.33982e-07
-5.55143e-07
-3.17665e-08
-0.0162837
7.29028e-09
0.000352105
-9.03168e-07
-0.00340055
-0.00384819
-0.000306181
-3.81569e-08
0.00101513
-4.05891e-07
-2.22026e-06
7.35217e-05
-2.566e-07
-0.000453204
2.03143e-09
-0.00229166
0.00113365
2.42174e-08
0.00076986
-0.000264936
0.000128043
-5.15917e-06
1.69061e-05
3.20117e-09
-9.4033e-08
1.69244e-06
-2.47675e-08
7.55955e-09
0.000333617
1.25003e-08
-3.91018e-06
-5.85467e-07
0.000107041
2.59959e-08
-1.62625e-06
0.000719186
-0.00837523
0.000209588
3.2523e-08
-0.00208538
1.37468e-08
-1.61196e-09
6.5183e-07
1.98515e-07
0.000213647
3.49925e-06
-6.91323e-09
0.000372393
0.000858332
-5.07176e-07
2.18421e-08
0.000178763
-5.6806e-07
4.17903e-09
0.000418064
-4.99449e-08
0.000285217
2.72604e-08
-5.51171e-09
-1.10354e-05
-2.26646e-07
9.89402e-05
0.000159554
0.00100563
-3.62907e-08
-0.000307552
2.26973e-08
0.000993332
6.68416e-09
-4.04277e-07
0.000103564
0.000852706
0.000779338
-5.81415e-06
1.26135e-08
2.13809e-06
0.000320736
-2.12172e-06
5.19865e-06
-9.78049e-08
2.71674e-07
1.63138e-08
-1.78391e-08
-4.11044e-07
-1.14411e-08
0.000957894
-4.00034e-07
-7.61415e-08
-6.59945e-08
-4.8918e-10
8.86651e-07
-3.10807e-07
-3.8377e-06
-5.50357e-07
2.3028e-09
-3.16208e-08
0.000246437
0.000367644
-5.02746e-06
-6.78536e-08
1.23509e-08
0.000144201
1.01247e-05
2.16842e-06
2.21941e-08
-1.15478e-07
0.000328273
-5.63356e-07
-3.04242e-08
-1.66134e-07
-0.000806919
-3.09991e-06
-2.57816e-07
0.000888044
3.48989e-06
0.00096261
1.97437e-07
-6.23364e-07
-2.51755e-06
1.03902e-08
2.30316e-08
2.44923e-06
-0.0105887
4.46148e-10
-5.65851e-08
0.000851585
-7.28565e-05
-1.17623e-07
3.11674e-06
6.43496e-07
-2.8964e-07
-1.39167e-05
8.64971e-09
1.03067e-08
2.76803e-08
0.00104206
-6.31126e-07
-3.08262e-07
1.05421e-08
-0.000376059
-4.02229e-07
4.23129e-06
7.06505e-05
0.000154684
0.000123591
0.000383059
-6.22975e-08
-0.00126527
3.00189e-08
5.34505e-09
-5.26244e-07
3.22908e-08
0.000882365
-0.0018042
-3.64037e-08
4.75865e-09
-5.9362e-07
1.60967e-06
1.79998e-06
-4.95001e-07
-3.70657e-08
-5.86137e-07
0.000111308
-8.73193e-05
-2.2731e-06
1.26109e-08
1.15521e-08
-2.80073e-08
-0.0115637
-6.25191e-07
0.000175927
-2.09368e-07
3.52122e-09
-1.24114e-06
-2.74905e-06
-1.50291e-07
-6.82746e-08
2.10366e-06
5.08903e-07
0.00052752
0.000706586
-5.64129e-07
0.00282515
0.000530641
-5.44615e-09
-6.59732e-07
0.000100473
-1.30947e-07
-6.80723e-06
6.95388e-09
-3.62176e-06
4.11956e-09
-1.86994e-07
-1.19924e-08
9.31863e-09
8.34175e-06
-9.62021e-08
4.87241e-07
-2.25423e-10
1.18143e-07
0.000173758
0.000875785
-4.69911e-08
-6.85113e-07
4.51893e-09
1.19103e-06
3.23452e-08
-2.33608e-07
0.000928732
-9.99674e-08
-1.38569e-07
9.57231e-09
0.000701016
-4.20521e-08
-0.0146803
0.00067721
-1.35942e-06
4.91764e-09
-0.000885527
0.00015059
4.75661e-05
-3.5619e-06
-4.22688e-07
7.96333e-07
5.1965e-06
-5.96576e-07
-6.8355e-06
-4.50681e-08
-0.000268093
-1.25473e-06
3.98123e-09
-2.84054e-07
1.58106e-06
-0.000393135
-0.000184135
-2.68792e-08
3.10838e-06
1.75362e-08
-7.95335e-06
-6.95044e-06
-3.14617e-07
-3.97247e-07
-1.68426e-06
2.11306e-08
1.65285e-06
7.95193e-07
-0.00807784
2.71898e-08
7.06582e-09
2.42392e-08
-0.000171106
0.000137811
-5.31051e-07
-7.14942e-08
-1.8442e-06
-1.11224e-05
-2.63243e-06
-4.29245e-07
-0.000110567
0.000290048
-2.52249e-07
-5.09466e-07
-0.0081073
-1.33106e-08
2.78909e-08
-2.67405e-06
-1.55243e-07
-5.67205e-08
1.16728e-08
3.64862e-08
4.32e-08
-4.3178e-07
2.89329e-08
0.000121309
-5.64362e-07
2.10617e-08
-0.000440599
0.000144772
1.22953e-08
-2.35449e-07
0.000323602
5.26687e-09
6.73265e-09
-5.18036e-07
0.000169803
0.00195227
-5.51332e-07
3.96395e-08
-0.00181808
2.89337e-08
-4.34559e-07
0.000351904
-0.00962364
-3.03257e-07
0.0381663
0.000313753
0.00106908
-1.11585e-07
3.52258e-06
0.00103635
0.000194096
-0.00285712
-7.16566e-08
0.000508603
2.1891e-05
4.3309e-06
8.50041e-06
-8.74548e-09
-4.82009e-07
-4.11606e-08
-0.000330775
-3.36694e-06
3.38033e-08
-7.87921e-08
-7.89046e-08
0.000944675
3.97327e-07
-1.77048e-08
0.000795343
-1.3333e-08
-1.83464e-07
-3.06458e-07
0.000280827
-6.06077e-07
-1.42452e-06
-3.61939e-09
-1.1948e-07
-0.000680961
9.26784e-09
-1.65201e-05
-2.49875e-07
-5.14353e-07
-1.83195e-08
2.01228e-08
1.49377e-08
-1.40298e-06
-1.91634e-06
-6.98077e-07
-0.00120831
-0.000698959
-4.49029e-10
0.000668292
0.000128982
-1.12673e-07
-0.0104446
-5.06546e-07
0.000357469
-9.48671e-08
-1.20028e-06
-0.00908132
-0.00944097
-1.23509e-06
-0.000281518
-5.81902e-08
-0.00200158
0.000147558
-3.0641e-07
-0.000210675
-3.27773e-07
0.000649245
-4.78589e-07
-7.92886e-07
-1.78605e-06
-6.95728e-07
1.33356e-08
-2.36711e-07
-1.69988e-07
-5.83006e-07
8.26593e-09
-5.68366e-07
0.000472001
1.9922e-08
-6.59267e-07
0.000177121
-1.16532e-07
0.000285029
-7.59705e-07
0.00182669
-1.39696e-07
-9.31865e-07
8.84435e-05
-2.7252e-05
-4.76165e-07
-0.000156765
0.000158001
5.42914e-05
2.31637e-08
-8.35302e-07
-3.03888e-07
-1.17616e-06
-6.08205e-08
0.000124524
0.000746397
-0.00248096
-1.33076e-07
-1.83303e-06
0.000641225
0.000178508
-8.61052e-08
0.000405418
1.9174e-08
-0.00974428
-7.69964e-08
-0.00130172
1.99599e-08
3.20786e-08
0.00019688
0.000425997
1.57045e-08
-1.66352e-07
-6.4321e-07
1.07438e-08
0.000443567
-3.726e-07
-5.32113e-07
-3.54359e-07
-5.48016e-08
9.38231e-10
-0.00567341
2.01292e-08
1.5535e-09
6.53759e-05
0.000572144
-1.68038e-08
-0.00847846
6.31142e-09
3.20492e-08
-1.26597e-07
-1.08793e-06
-7.62851e-07
4.57214e-09
-1.10905e-07
-3.0313e-06
-1.91331e-07
0.00117734
3.27803e-08
-4.31771e-07
8.33121e-05
-1.65365e-08
-5.33535e-08
3.03738e-08
-3.78727e-07
-1.7745e-07
1.77656e-05
0.000120413
-4.17782e-07
-2.15679e-05
-1.31673e-07
3.22131e-08
-2.24333e-05
-0.00912607
-2.06587e-09
2.0517e-08
0.000149702
1.54144e-07
0.113675
1.90564e-08
-1.99845e-07
-1.28778e-06
-5.68427e-07
0.000216394
0.000400034
-0.00353262
-1.02698e-08
8.4467e-07
2.3561e-08
-0.000357578
-7.88193e-07
-2.80069e-06
-2.92824e-07
-7.44673e-09
-1.19809e-08
-5.85117e-07
3.54856e-08
0.000209418
1.55798e-05
0.000694129
7.05437e-05
0.000175779
0.000471934
-1.1561e-05
7.52532e-09
1.11925e-08
-0.0127028
1.09231e-08
2.18577e-09
-2.94861e-08
0.000817981
-2.20253e-07
7.1167e-09
-2.5924e-07
-3.89111e-07
1.03307e-08
-0.00332478
9.6519e-09
0.000221107
4.54213e-05
2.51951e-08
-2.33191e-07
-8.47739e-06
-0.00904464
-5.0424e-08
-0.00995711
-0.00309382
-1.62278e-07
0.000761525
-2.14735e-05
5.01311e-07
-8.37155e-09
-3.50012e-05
0.000272733
-1.78553e-07
5.45555e-06
-2.11051e-09
1.00657e-08
-0.00035724
0.000629531
-3.64252e-07
-7.70028e-07
1.14569e-08
-7.68414e-07
0.000315702
0.00104428
-1.41949e-07
0.000375822
1.28793e-08
-9.13554e-09
-4.15193e-07
-4.69964e-07
-1.0185e-07
4.71884e-09
0.000749355
-3.33658e-07
0.000730635
-1.93324e-07
1.88611e-08
-0.000156379
1.87957e-08
-8.78074e-07
-4.27546e-07
-5.58953e-07
-3.74773e-07
0.000175945
0.000320385
-1.96903e-07
0.000375502
-2.8305e-07
-4.45519e-07
-0.000196681
4.81308e-05
1.63471e-08
2.18432e-08
5.77322e-07
0.000752193
-0.00973872
-7.63907e-07
-0.0624977
-4.83957e-07
-4.91586e-07
0.00196265
-0.00224496
1.78984e-06
0.00015763
4.21282e-06
-0.000609906
-5.63136e-08
-0.00797001
-0.0032905
2.9239e-08
0.000185804
0.00166522
-7.23246e-09
-6.00963e-07
2.25559e-08
-3.97142e-05
-9.72126e-08
-0.00190904
1.6689e-08
2.51342e-08
6.36454e-08
-3.65058e-07
3.40486e-08
0.00075945
2.53291e-08
-2.55606e-05
-1.1047e-08
-1.11809e-06
2.17605e-08
9.46189e-09
-2.28526e-09
0.000380683
-4.10098e-07
0.000808221
-1.77411e-07
7.24541e-09
-1.08894e-07
-5.02611e-07
-1.09884e-07
-2.50418e-07
-2.27644e-07
2.9659e-08
-0.00788584
1.04703e-08
-9.56611e-05
4.25342e-09
-2.5017e-06
0.00040624
0.000228186
-1.69463e-06
-0.00612815
-1.89589e-07
5.21628e-06
0.00170738
-1.4238e-07
-0.00217528
-6.98903e-09
-3.25838e-07
0.000104026
-0.00433666
-1.26596e-07
-2.4736e-07
-1.29072e-07
-0.000589856
0.000355745
-4.79864e-09
2.65404e-06
-0.000721775
6.42187e-09
6.29027e-09
-9.90496e-07
-0.000101445
-0.000992415
4.905e-09
-1.5361e-06
-1.82883e-07
1.18156e-08
-0.00697994
-2.07607e-06
1.36169e-06
-8.05951e-08
7.567e-07
4.48536e-07
-9.01297e-07
-1.60298e-09
6.60882e-09
-1.66888e-07
-4.63235e-08
1.3698e-06
-5.17104e-07
-5.01602e-07
2.47132e-08
0.00118481
-2.02161e-05
-0.00176585
-0.012085
3.34357e-06
7.91528e-05
-7.69954e-08
-0.000363105
2.8511e-07
-6.51784e-08
-4.72045e-07
-1.16053e-05
-4.35861e-08
2.99803e-08
2.95899e-08
-2.05697e-06
-0.000263835
-4.41219e-07
0.000655378
1.06302e-08
-0.000752046
-1.29688e-08
0.000307887
-2.49162e-07
-1.55049e-07
-1.98968e-07
0.000367422
8.24854e-07
-4.82726e-09
0.000520126
-6.38168e-08
4.39045e-05
-2.42026e-06
-5.93862e-06
-2.67885e-07
-9.37343e-06
1.4803e-08
3.84961e-09
-1.7808e-09
9.33188e-09
-0.000129158
4.29439e-08
-0.00742659
-7.85843e-05
-2.51582e-07
0.00107394
0.000336291
-1.03173e-05
3.28913e-06
-3.26639e-07
4.81349e-09
8.12813e-09
-3.757e-08
-1.03485e-07
2.72528e-08
-4.66519e-07
2.23037e-08
4.21547e-07
-0.00462673
-1.55186e-08
0.000117087
-1.72193e-09
0.000324191
-1.56765e-07
5.09894e-09
8.02148e-09
0.000218829
-1.68996e-07
-0.00434788
0.00158036
-6.10293e-07
-5.64135e-07
-1.89296e-07
0.000128232
-6.76315e-09
-2.09309e-07
-0.00786795
6.99099e-09
7.35132e-09
-1.25988e-07
-6.24483e-07
-0.00028266
-1.86614e-07
-3.17799e-07
2.70383e-06
0.000948695
-7.28427e-08
3.80545e-08
-0.000369393
-4.28083e-08
-0.000437695
1.93262e-08
-1.96896e-07
-0.00175646
-9.00886e-07
-3.88114e-06
-3.91448e-07
-4.51408e-07
6.80881e-09
-2.35274e-09
-4.75657e-07
-5.88717e-08
4.59287e-09
-4.82119e-07
-1.28206e-06
3.51009e-08
-5.85075e-06
0.000179993
-0.00488793
-4.97576e-07
0.000567108
-2.68795e-08
8.14627e-09
-1.13046e-06
9.87413e-09
-2.40177e-07
-0.00203992
-0.000734712
-0.00215749
-0.00030246
-8.50161e-09
-5.28467e-09
-8.67612e-08
7.12453e-09
-3.57622e-08
-0.00201876
-7.79123e-06
-0.00010624
-2.61268e-06
-1.02113e-06
1.26968e-08
-3.7352e-08
-0.00284923
-4.11845e-07
-2.00806e-07
5.50234e-09
-3.80705e-06
-4.92143e-07
0.00066422
6.96922e-09
1.99226e-08
-0.000321777
-2.44458e-10
-3.5068e-07
1.30029e-08
0.000767783
-1.79334e-08
0.000456711
1.62249e-08
2.91992e-07
-5.13958e-07
-3.48797e-07
-3.08057e-07
2.05746e-08
-1.68081e-07
3.50977e-08
-0.00660773
5.3786e-09
-0.00022536
-5.49592e-08
-0.000742353
-0.000142566
-2.38148e-07
4.51811e-08
0.000213937
0.00021642
-2.22253e-07
-8.11774e-07
1.14635e-08
-0.000188391
-6.18416e-08
-1.05485e-05
2.86665e-08
3.43409e-08
-0.00486736
-4.09171e-07
2.94302e-08
-5.82156e-07
0.000627489
-6.07406e-05
-0.0001695
-1.89212e-08
6.75879e-05
2.56711e-08
3.52085e-08
1.39741e-08
-7.06264e-08
8.33037e-09
-0.00115021
-0.00145035
-6.34235e-08
2.66362e-08
-3.95665e-07
-2.74088e-09
0.000285188
-1.2529e-06
9.42519e-05
0.00110357
-1.72174e-07
1.57297e-06
2.81073e-08
-5.32486e-07
-1.16797e-06
-1.27512e-07
1.21468e-08
0.000114658
0.000377345
-5.91572e-07
0.000156147
-8.07815e-07
2.00545e-08
-3.16262e-07
-8.28512e-07
0.000316638
-4.423e-07
-0.00628218
-3.63869e-07
1.48191e-08
0.00144012
0.00200295
-0.000247454
-0.0108512
-0.000423464
-1.00056e-08
8.63612e-07
4.6847e-09
-0.00855765
-5.49042e-08
3.40886e-08
-0.000328626
-6.41114e-09
3.89602e-08
1.97955e-08
7.46981e-09
0.000738876
-1.77535e-05
1.51121e-08
-3.45272e-07
0.000112987
-1.6925e-08
0.000155233
-1.73247e-11
-1.08037e-06
0.000553687
3.54533e-08
-0.00814153
-7.34225e-08
-2.4741e-07
2.63392e-05
-9.18415e-09
-1.47629e-05
-9.51377e-07
0.000732072
-2.18611e-07
-0.00029086
-2.91857e-07
0.000148695
0.000342244
-0.000267736
-6.47352e-07
1.96163e-08
-8.11768e-09
5.37209e-09
-7.58296e-07
1.63845e-08
0.000266185
-5.34487e-08
-1.86148e-08
-9.79194e-08
-2.41969e-10
-1.50247e-08
-5.00401e-07
-6.38336e-08
-2.3211e-07
-4.00668e-08
0.00096987
-0.00547698
-3.3096e-07
-7.99258e-08
-0.00086659
7.81169e-09
0.000947417
-3.64051e-08
9.47356e-08
6.61403e-09
-2.05775e-08
-6.20314e-08
3.47878e-08
1.36373e-08
3.21758e-06
1.06455e-08
2.45208e-06
-9.45179e-08
0.000165929
-0.00407535
3.46686e-06
4.35608e-06
-1.34743e-07
0.000982609
1.3982e-06
1.13048e-08
-6.01383e-08
9.98901e-09
0.00105432
-5.19824e-10
5.50122e-07
-0.0100618
0.000132135
-1.02242e-07
-5.24671e-08
0.000149408
-0.0109046
-0.000463481
-7.68137e-08
6.08457e-09
-1.12604e-07
-5.11965e-07
1.89443e-08
0.000234918
-1.14108e-06
1.08061e-08
5.37674e-05
5.91811e-06
-1.16714e-07
0.000910984
0.00042615
-1.44931e-05
-6.19582e-08
0.000100294
-4.56573e-07
3.47972e-08
-0.000181992
-1.30646e-08
-9.54836e-08
1.83482e-08
-5.51847e-07
-7.60416e-07
6.37154e-05
0.00100504
-7.12601e-07
0.000100594
-5.1592e-07
1.96692e-08
-3.76166e-06
3.22655e-08
0.000688818
-1.27847e-07
3.40733e-08
-7.366e-09
-5.48598e-08
-0.000172162
-0.000244896
0.000177368
0.000320408
-0.00032147
-2.6465e-08
2.38239e-08
-9.31735e-08
-1.01695e-05
-1.29001e-07
-9.26852e-08
-1.60676e-07
-0.00141373
-0.00100622
-7.55141e-08
3.39216e-08
-2.96337e-07
8.62785e-07
0.000159967
-1.70918e-07
-1.15736e-07
-2.93381e-07
-0.00522281
-4.87289e-07
0.000409236
4.90728e-09
2.03891e-08
-9.32929e-08
1.44556e-08
-9.7039e-09
-4.62702e-06
-0.000663622
0.000199461
-5.07444e-07
3.07844e-08
-0.00200498
-1.86313e-07
-0.00146876
0.000304584
-1.25756e-08
0.000439636
-0.000199012
0.00059681
-7.6597e-07
-4.18185e-07
6.96389e-05
-3.16267e-07
4.53951e-08
3.64193e-08
3.70116e-06
-5.18243e-08
6.82817e-05
1.93096e-08
-0.00234737
-0.00443206
-3.49294e-08
-1.48586e-08
-8.95267e-08
-5.51592e-06
-3.98893e-07
2.5436e-08
-3.93355e-07
-4.72079e-10
-3.52978e-07
-2.52865e-06
1.21376e-08
0.000227824
-0.000284695
1.78028e-08
-3.87999e-07
-7.58119e-07
2.86024e-08
-0.000666846
-0.000385322
0.00101092
-0.000324641
3.34649e-08
-2.26754e-08
-9.02379e-08
7.89231e-09
-0.000406576
-4.06907e-07
6.91784e-09
-6.88568e-07
-1.00732e-07
-0.000117897
-5.34353e-07
6.14587e-05
2.31297e-09
1.71539e-09
-1.00849e-06
-3.67785e-07
-4.74768e-07
2.20443e-08
-0.000471638
0.000207898
-0.00937242
0.000533434
-0.00208442
0.000131186
0.000142157
2.41153e-08
2.23917e-08
-1.03733e-07
-0.0063286
-7.65917e-07
-4.10676e-07
0.00027118
-2.19127e-07
-2.31391e-08
1.32124e-08
-0.00313064
-5.87475e-08
-3.00803e-07
2.23578e-09
-0.000955946
8.03168e-09
1.38528e-08
2.55084e-08
2.19706e-08
2.42941e-08
3.98814e-08
-0.000304887
2.41392e-08
-0.00113218
2.14018e-08
1.10043e-08
0.00023907
-0.000225677
-0.000315749
-0.00282191
2.37012e-07
-0.000527806
7.7324e-09
-1.16978e-07
-1.27219e-09
1.84915e-08
-3.21332e-07
0.00052817
-1.78467e-07
-2.74752e-07
0.00160381
-1.59614e-07
-1.16203e-08
3.05252e-08
-1.3437e-05
-1.04425e-09
-0.000738756
-1.18448e-07
-0.00108008
7.1599e-09
-5.8854e-08
-2.34822e-07
1.42722e-06
1.16903e-08
-0.00293447
0.000918937
-0.00129683
-0.000134923
1.98338e-08
0.000365563
-0.0107611
2.23768e-08
-0.00609435
9.31436e-09
-7.81465e-07
1.47515e-08
-2.29314e-07
3.44676e-08
6.84897e-09
4.19202e-09
-1.49334e-07
-7.10811e-07
-5.16607e-08
5.83336e-09
2.89986e-06
-1.34554e-07
0.00114296
1.01011e-08
-3.22363e-07
-5.66306e-07
0.000203571
-0.00119921
1.70139e-08
-1.0119e-05
1.4745e-08
-5.52117e-07
-4.17144e-08
-0.00314304
-6.45541e-07
3.54107e-10
6.66577e-07
-1.42448e-06
-1.25244e-06
0.000248842
2.31548e-08
-4.70359e-08
-7.74325e-07
-8.4166e-07
1.76783e-09
-6.34228e-08
-0.00515938
0.00015679
-4.74577e-08
3.4733e-08
0.000188698
9.3234e-09
-4.24399e-07
3.04337e-08
-2.40969e-07
-0.0060247
-1.22768e-07
0.00023832
-1.8807e-07
1.82854e-08
8.13572e-07
3.42373e-08
-1.26001e-06
-0.000354762
-4.21661e-07
-0.00467863
3.64016e-08
5.21175e-09
2.03661e-06
9.81543e-09
1.18721e-08
-4.2863e-07
-2.8913e-07
-6.35303e-07
3.66015e-08
1.74182e-08
-3.68551e-08
-5.53394e-08
3.32624e-08
9.68003e-09
2.25101e-08
0.000242269
-1.25606e-07
6.32392e-09
-0.00510446
7.63276e-09
3.54291e-08
-0.000267589
8.23332e-09
0.000184956
-1.8574e-07
-0.000310193
4.78982e-06
-4.65302e-07
-0.000661932
-2.35314e-07
-7.91348e-05
-1.10023e-07
1.11573e-06
-1.05171e-07
-6.51184e-08
7.43038e-09
-7.21566e-09
-3.01968e-07
2.0398e-08
-1.19316e-07
2.81297e-08
-2.694e-09
0.000143269
0.000328628
0.00145721
-3.13492e-07
-6.58863e-07
0.000376402
0.000507417
1.55491e-08
-3.17893e-07
-0.00036034
-7.85053e-08
-2.29376e-07
0.193939
0.000220554
-3.944e-07
-6.69996e-07
1.09921e-08
5.08003e-06
-1.11822e-09
-2.38375e-08
-0.000105736
1.87675e-08
-5.0256e-08
0.00106405
-2.40209e-07
-7.85589e-05
-7.29017e-05
-1.55749e-06
1.22541e-08
2.77817e-08
-9.00445e-08
0.000509524
-0.00237195
-0.00360723
-2.00637e-07
1.06843e-08
0.000438213
2.0992e-08
1.47769e-07
-3.66123e-08
-2.92777e-07
-4.8116e-07
2.72395e-08
0.00154802
-0.000794486
-2.25954e-07
-4.85151e-07
-7.674e-07
0.0240131
-2.98224e-07
-7.97926e-07
0.000117654
-5.44333e-07
-0.00423145
-9.11409e-07
1.34268e-08
-5.57778e-07
-2.01175e-06
2.63454e-05
3.35983e-08
-0.00678464
-2.62868e-07
-8.72858e-07
-6.46505e-10
0.000566529
-2.7903e-07
-2.70297e-09
-2.31166e-08
-1.54695e-07
-1.51392e-07
2.87082e-07
3.44412e-08
1.3141e-08
-1.02382e-07
0.000101812
-2.21485e-07
1.41704e-08
5.10091e-09
-5.93805e-07
-1.47254e-06
1.889e-08
-2.75416e-07
-0.05999
-4.00627e-08
0.00020969
-7.51269e-07
0.000322774
-1.07617e-05
2.06326e-08
-0.0014078
1.32337e-08
-1.65877e-08
-5.24731e-07
-4.25315e-07
-5.15148e-07
-5.73822e-07
-3.8946e-08
-4.09748e-08
-2.16461e-07
-6.19858e-09
-5.68385e-08
3.59264e-07
-2.70113e-07
-5.17052e-08
-0.00303852
-3.81763e-08
3.12456e-08
2.94645e-08
-0.000266285
-1.79217e-07
1.18206e-08
-2.24865e-07
-1.46286e-08
0.000164719
-3.09479e-07
-5.26912e-07
-3.50378e-05
-0.00453518
7.43052e-05
-7.39221e-07
-0.0068394
2.54217e-08
-5.8594e-06
-9.78778e-08
-4.92107e-08
-0.00258927
-0.000674215
9.31726e-06
-0.000235398
1.01743e-08
0.000195329
2.27015e-08
-5.91232e-07
-1.25308e-08
-0.00019219
-0.000741954
-4.53314e-07
3.8434e-08
9.82604e-06
1.0512e-06
2.97844e-08
0.000644619
1.05845e-08
1.09099e-08
-2.73599e-07
8.4116e-09
-1.70299e-07
1.14609e-08
1.27251e-08
-8.6182e-08
-2.38271e-05
-5.51675e-07
-2.30847e-07
3.55118e-08
0.000353283
-0.00073998
4.28095e-08
-0.00144024
-1.56884e-08
-4.66313e-08
-0.000215055
3.70753e-08
4.51769e-09
3.81997e-08
0.000468881
3.11459e-08
1.86537e-08
-3.76372e-07
-0.000777316
4.08112e-08
4.37485e-08
1.38064e-07
-0.00624432
-2.59377e-07
-3.53341e-07
4.94484e-05
1.13121e-08
2.38178e-06
-1.76991e-08
0.000224683
-1.77849e-07
1.22172e-08
-4.45132e-07
-2.53899e-07
2.25754e-08
-1.23362e-07
3.91603e-07
-0.000516327
-1.98187e-07
0.000194514
1.9363e-08
-2.74093e-08
-4.68338e-07
3.63719e-08
-1.23371e-07
0.00120459
-1.65155e-09
-4.77168e-07
1.71415e-06
0.00104235
-0.00700894
-1.22267e-07
5.81076e-08
-2.23049e-08
3.33879e-08
2.10131e-08
2.72686e-08
-0.0004836
1.35798e-08
-0.00181796
-2.35525e-06
-5.27692e-08
-1.41522e-07
-2.15619e-07
-2.4423e-06
-0.00175868
3.89945e-07
-2.27259e-07
-5.85574e-09
0.000137349
-1.69287e-07
-5.65266e-07
-6.29665e-07
-3.15631e-08
-5.27043e-07
-0.000848494
-7.10051e-07
-0.000264995
-0.00115794
0.000547472
-2.33848e-07
7.37168e-09
-2.51181e-07
9.47022e-08
-9.41589e-08
-1.99623e-07
-2.33662e-07
1.30825e-08
-1.84057e-08
3.36779e-08
-7.35354e-08
-2.51061e-07
-9.94669e-08
0.000417275
4.10117e-08
-0.00547817
3.11478e-08
-1.6355e-07
-5.7457e-08
-2.90053e-06
1.61151e-08
1.67561e-08
-0.0015469
-2.67999e-09
1.10541e-08
-6.17485e-07
-6.33693e-08
-3.59582e-08
-9.58468e-08
-0.000656011
-4.85812e-09
-3.97956e-07
-1.3956e-06
-0.00178877
-3.62919e-08
-0.00142635
-0.00165636
-4.90631e-08
-1.41907e-07
-1.27228e-07
-5.70532e-07
-4.2765e-07
0.000368196
-5.91273e-08
0.000358498
1.90431e-08
8.65581e-07
0.000927921
-1.90995e-07
-8.09091e-05
-2.24889e-08
-3.41278e-07
-3.26122e-09
-0.000672438
-1.57575e-07
2.86632e-08
-1.26578e-08
-2.05908e-06
-2.33573e-08
2.27584e-08
2.62881e-08
0.00111976
4.17822e-09
-2.10088e-08
-0.000102871
-1.29082e-08
2.22195e-08
-1.15504e-07
-8.99171e-09
-0.00101817
-2.85918e-08
2.07372e-08
1.96789e-08
5.25884e-08
-9.59377e-08
-9.90151e-08
-8.10062e-07
-7.65641e-05
2.12548e-08
8.29365e-09
-0.00430163
-2.25632e-07
0.000233233
-3.7329e-07
0.000593513
-1.92358e-08
-7.71704e-09
1.14264e-08
-0.000300356
-0.000261123
5.53613e-08
-2.15886e-07
-1.91779e-07
1.59245e-08
6.64512e-09
-0.000580457
2.99401e-08
-4.78711e-07
-8.50118e-08
-7.89294e-07
1.04401e-08
-0.00181726
1.18927e-08
-7.93935e-07
-2.65906e-08
1.50603e-05
-2.69774e-05
-6.49765e-08
-1.66746e-08
6.40079e-05
-8.34614e-07
-0.00172793
-0.000159141
-2.03298e-06
-6.84635e-12
-3.09043e-07
-6.72453e-07
-0.00727934
-2.26605e-07
-7.02212e-07
-1.94651e-08
5.31144e-09
-0.000257369
0.000273351
-6.78755e-07
1.44723e-06
-3.96309e-08
-8.26372e-08
-0.000117286
-1.01997e-07
-6.56128e-08
-2.90524e-07
-0.000434076
-2.35656e-08
-5.65976e-07
-0.01135
7.73703e-09
0.000197252
-6.85572e-05
-0.00129995
1.54428e-08
0.000447745
0.00071801
5.97997e-05
0.000258563
6.54376e-05
-7.60754e-07
-1.74681e-07
5.01513e-07
-6.32852e-08
2.04856e-08
-0.000597144
-6.76105e-07
-6.13845e-08
0.000206137
1.81868e-08
-2.31367e-07
-5.46521e-07
-8.16977e-09
-0.00699194
2.83934e-09
0.000169879
-7.17449e-07
4.92237e-08
-0.00210996
0.000437159
9.05752e-09
6.15982e-09
3.98599e-08
-5.26433e-07
-1.43836e-07
1.85145e-08
-3.07457e-07
2.90662e-07
-1.25987e-07
2.20084e-08
-1.4006e-06
-1.17853e-08
2.33757e-08
-9.34864e-05
-0.00318241
2.02822e-09
-2.81238e-06
0.000551352
1.60779e-08
5.56831e-09
0.000726981
-3.74326e-06
-2.38775e-08
-1.37217e-07
2.94646e-08
-8.81632e-08
-3.27757e-07
-0.000345631
-3.9131e-07
7.71667e-09
1.31581e-08
1.33895e-06
-5.19805e-08
-0.0119083
0.000373214
-2.41375e-09
3.00213e-08
-6.84466e-08
1.88917e-08
-1.13975e-07
4.85927e-09
-6.21024e-08
2.74754e-08
1.36857e-08
-8.56395e-09
4.96104e-09
-9.41944e-07
-0.00659207
4.51021e-09
-0.000175895
0.000269269
-2.15919e-08
-2.35208e-07
2.41661e-06
-2.48428e-07
1.00978e-08
-9.20559e-07
-2.464e-07
-7.49118e-07
-3.69536e-07
-2.74282e-08
1.305e-08
0.000369993
-4.84099e-07
-0.00422087
8.62479e-09
1.99727e-08
3.43468e-08
-6.85699e-08
2.25486e-08
-4.3712e-07
-5.78458e-07
0.000170158
2.61332e-08
-0.00833445
-0.00393408
0.000225197
1.22995e-09
-2.83906e-07
-3.96488e-06
-0.00683245
-0.000220975
4.4383e-09
1.02379e-08
-7.79093e-07
-0.0108736
-0.00551359
-5.01567e-07
-0.0038781
1.32408e-08
-7.44716e-08
-2.26258e-09
1.46206e-08
6.02433e-09
-4.34703e-07
3.06838e-09
4.04867e-07
-2.37798e-08
0.000533056
0.000606508
-0.000213399
-0.000315378
0.000221225
1.22977e-08
1.66998e-08
0.00103394
-6.90655e-08
-5.92157e-08
-2.9211e-08
4.77366e-07
0.000371976
0.000388567
-1.45175e-08
-2.19352e-07
-4.74168e-10
-5.4918e-09
0.000183171
3.33537e-08
-0.000285549
0.000475731
2.07559e-08
5.62185e-09
3.79759e-05
-6.2632e-07
-3.15177e-07
2.17419e-08
-0.000959622
0.000454856
-8.50896e-08
-8.08566e-06
3.12683e-09
0.000187965
-0.00119018
-3.56221e-07
0.00107479
0.000297831
-0.00398261
-3.28777e-08
-2.23127e-07
8.95288e-09
8.04324e-09
-0.000215299
5.59354e-09
-2.2546e-06
-0.00818189
0.000332579
-6.56569e-08
-1.74227e-07
0.0034568
-3.52141e-07
0.00103756
0.000830742
-3.0996e-08
-2.60089e-07
-2.52128e-07
-3.59547e-06
0.000217888
-7.58501e-08
-0.000275704
-6.19919e-08
-6.61262e-07
5.79374e-09
3.69655e-08
-4.75449e-06
-2.15379e-07
0.000346826
1.50074e-08
-1.98042e-07
-5.71974e-08
-2.51947e-06
-2.05343e-07
-7.73177e-05
-0.00272364
-8.61868e-06
-1.53193e-06
2.21011e-08
9.17879e-10
-8.75032e-07
2.87708e-06
-5.96186e-05
0.00106029
2.33992e-08
-0.000715892
1.82531e-06
0.00129257
-4.99273e-07
-1.96939e-07
-3.20662e-07
-4.96969e-08
-0.0022595
2.97299e-08
-3.18444e-07
-0.000239408
0.00066636
0.000752672
0.000499024
-3.42036e-08
-4.96047e-07
-1.03538e-07
0.000486878
-3.80969e-08
-0.0106566
-1.1792e-07
-0.00122913
-1.23857e-07
3.22693e-08
-3.01717e-07
-2.5051e-08
4.23611e-08
1.83146e-08
-3.46129e-05
-5.35626e-07
2.03918e-08
-1.54658e-07
-0.000263274
0.000134016
1.90583e-08
0.000904406
-1.43078e-08
-5.05661e-07
-5.45194e-07
-1.18895e-08
-2.45195e-07
3.31701e-08
-0.00191925
4.47982e-08
-4.36231e-07
2.38531e-08
-1.3616e-05
-3.97098e-07
-1.18485e-07
-0.000474368
-0.00455852
3.01434e-06
-2.26675e-07
-0.00694105
1.73861e-08
-1.2466e-06
-3.8121e-07
1.36235e-07
-0.0133205
2.68392e-05
-2.68937e-07
0.000389334
-1.15432e-07
1.52879e-07
-6.7492e-09
0.000405576
8.61936e-08
-3.11323e-07
1.86743e-06
8.5719e-09
-0.000128489
-2.85285e-07
-2.83369e-06
-0.005042
0.00167696
-6.90399e-05
-0.00405655
0.000462301
-1.46591e-07
-2.84414e-08
2.22414e-08
-5.53465e-08
-7.88571e-08
-6.6353e-06
-4.52595e-08
-5.9814e-09
0.000836228
2.0619e-08
2.33933e-08
-6.01242e-07
-1.85235e-06
-2.77978e-07
-2.44566e-08
0.000538078
-1.0212e-07
-7.04169e-07
1.75945e-08
0.000464702
-1.89491e-08
-0.00120284
-2.36941e-08
-3.40703e-07
-1.3117e-07
2.12326e-08
0.000148806
0.00161945
-2.97283e-07
1.99001e-08
3.43042e-08
0.000209887
0.00106844
-0.000491938
-9.57255e-08
-2.1541e-07
-0.0119149
-8.39831e-08
3.49211e-08
1.00562e-08
0.000266312
1.63776e-06
-3.99337e-08
-4.89179e-07
-3.38395e-07
-0.00221731
-2.35979e-07
1.9702e-07
-4.27252e-07
-3.17136e-07
-8.95117e-08
2.97276e-07
-1.69104e-07
1.86377e-08
-0.000820912
0.000799424
0.000583896
-0.000550466
0.000703111
0.00147383
0.00120785
1.05089e-10
-1.3598e-07
-0.00309096
0.000438246
-0.0109564
2.14597e-08
-4.56773e-07
8.07326e-09
2.44227e-08
-0.000154636
0.000617039
-5.86054e-07
3.49287e-08
-0.000390661
-3.6134e-07
-3.66338e-07
0.000104957
0.000267705
0.000434821
3.51901e-08
-3.72779e-05
-0.000499685
-8.04513e-06
-5.35197e-07
-5.17197e-07
8.83535e-09
1.64295e-08
-2.85675e-07
-3.41483e-07
-1.55586e-08
-6.06258e-07
-3.09989e-07
-1.25835e-08
-0.00604734
5.63442e-05
-3.60927e-09
-7.08688e-07
0.000252574
-0.0010904
8.86861e-09
5.17656e-06
-2.95144e-05
-0.000298512
-3.21318e-07
-5.91697e-08
-2.85781e-07
-8.3496e-08
-4.36519e-08
-1.62709e-08
9.54037e-08
-4.74114e-07
-7.18089e-07
1.12882e-06
8.41096e-09
-2.06667e-08
-7.27871e-06
-0.00020587
0.000540457
0.000369529
5.92136e-07
-1.07435e-07
1.28253e-08
-2.52899e-07
-9.6845e-08
0.00070513
1.65678e-08
1.00354e-09
-3.76808e-08
-0.000865382
-0.0029362
1.04582e-08
-7.79384e-07
-7.15784e-08
1.28039e-08
-2.13341e-07
1.08272e-07
-5.48777e-07
-2.18345e-07
0.000292652
-2.82743e-07
0.000432265
-2.02018e-07
0.000715102
-1.74503e-07
3.67833e-08
-4.93365e-09
-5.94978e-07
-4.86962e-07
1.75495e-08
9.97684e-08
-1.80881e-07
-2.26085e-07
-0.000138355
0.000799589
-0.00173925
2.64765e-10
-0.00869148
8.54513e-08
-1.68009e-08
1.94804e-08
-2.12291e-07
-5.2274e-09
-0.00021586
8.7151e-05
2.93835e-08
2.00545e-08
-0.00032003
5.80967e-09
0.00010387
0.000404175
-0.00581708
-9.14506e-09
-1.80282e-06
-0.00261022
-0.00536527
3.88073e-05
-2.82936e-07
-3.12909e-08
-1.42381e-07
-1.15794e-07
-0.000284659
-1.50493e-08
-1.67375e-07
-0.000216709
0.00103285
-3.21826e-08
1.94662e-08
0.000704118
-2.6723e-07
0.0014888
3.08471e-07
2.09197e-08
-2.86919e-07
8.17597e-06
3.49708e-07
-0.00242471
-9.87861e-08
0.000224725
-8.52076e-08
3.0697e-09
1.85871e-08
-2.16064e-06
3.99443e-09
-3.66931e-07
1.2603e-08
-1.29968e-08
-3.66144e-06
-3.74319e-07
-4.42457e-08
3.2512e-08
-1.71532e-07
0.00649734
-7.60624e-07
-3.20682e-07
-1.04375e-08
-3.08524e-07
2.36025e-08
-1.12934e-06
-2.46925e-07
-4.91319e-07
-1.76731e-06
-4.91084e-07
-2.54768e-07
-1.85776e-07
-9.94544e-08
-7.83361e-07
0.000245887
-0.000300416
-1.06227e-07
-0.00211543
8.60474e-05
2.37854e-08
-3.73085e-10
-1.10657e-05
0.00012645
3.03986e-08
3.467e-05
6.40677e-06
-2.17468e-07
-1.16359e-06
-7.21933e-08
-2.36355e-07
-3.86874e-07
-0.00139183
4.87556e-07
-0.00188333
-0.00443698
-0.000807431
0.000214329
-2.99723e-07
8.00898e-05
1.67042e-08
-0.000172012
0.000326073
2.3206e-08
3.48774e-08
-0.00032988
8.29748e-09
1.98879e-08
-0.0107192
-0.000115545
-4.26924e-06
-3.52373e-07
0.00027573
3.35512e-08
-0.000113083
8.76185e-05
1.51601e-08
-1.6793e-05
-0.000300259
0.000481252
-0.000258464
7.27813e-05
-0.000328659
2.08663e-08
-2.39738e-09
-4.5048e-07
-6.18903e-07
2.0563e-08
-0.00136019
1.79768e-08
4.88813e-05
-0.00150787
-1.03954e-08
0.00144435
2.13101e-05
-0.000494359
-0.000816992
2.83143e-06
0.000370931
9.68153e-06
-2.93865e-07
-5.24586e-08
-0.000792543
4.69565e-09
-6.49282e-08
0.000351015
2.7244e-08
-0.0015806
1.02994e-08
0.00076765
-3.33343e-07
2.4283e-08
-0.00480739
-5.57718e-08
-7.9957e-09
-0.000277537
0.000310005
-0.000926813
-4.37964e-07
-7.90194e-07
2.77534e-10
-6.57651e-07
5.13701e-07
-7.02811e-07
6.92707e-09
0.000135308
-5.38996e-07
1.67415e-09
-0.000246083
-4.54872e-07
5.0792e-08
1.5581e-06
-4.79594e-07
-8.35203e-07
2.53089e-08
5.52753e-08
-7.96857e-09
-2.34455e-07
-0.00630836
0.000275601
2.33652e-08
-3.14826e-07
0.000330051
-1.87747e-07
-2.49055e-07
-5.29917e-07
-3.02945e-07
-0.00236448
-4.95169e-07
-6.84247e-11
-0.00513328
2.35008e-08
-0.000445446
2.57877e-08
-1.15174e-07
-9.46045e-07
-0.000526683
-1.05075e-07
-2.36117e-06
-5.72675e-06
-4.89883e-07
-6.22615e-08
-2.22608e-06
-2.84066e-07
0.000980434
-1.40503e-11
0.00574515
1.13011e-06
-5.10073e-07
-2.50298e-07
-1.51054e-08
-2.27381e-07
-1.29687e-06
-5.34102e-07
5.85514e-08
-7.4999e-08
-2.17757e-07
0.000450424
2.13489e-08
-1.81594e-07
-5.59586e-08
-1.87263e-06
-2.07468e-07
-5.95718e-07
8.75583e-05
9.42848e-09
-7.83375e-06
-6.52805e-08
1.39345e-08
1.94069e-08
3.38702e-09
-4.228e-07
3.21581e-08
-1.06922e-06
0.000284104
-6.70511e-07
-4.99084e-07
-3.03461e-07
-1.21575e-08
-0.00295613
2.22891e-08
-0.00266329
-0.00161067
0.000559306
1.92598e-06
-1.40308e-07
-4.05975e-07
1.65169e-08
4.26421e-08
1.8288e-06
-2.09301e-07
0.000488115
-7.20932e-07
0.0011744
4.60679e-06
1.25287e-08
2.09405e-08
-0.00031423
1.77812e-08
-3.48856e-07
-6.27242e-07