/*--------------------------------*- C++ -*----------------------------------*\
| =========                 |                                                 |
| \\      /  F ield         | OpenFOAM: The Open Source CFD Toolbox           |
|  \\    /   O peration     | Version:  v2012                                 |
|   \\  /    A nd           | Website:  www.openfoam.com                      |
|    \\/     M anipulation  |                                                 |
\*---------------------------------------------------------------------------*/
FoamFile
{
    version     2.0;
    format      ascii;
    class       volScalarField;
    location    "350";
    object      p;
}
// * * * * * * * * * * * * * * * * * * * * * * * * * * * * * * * * * * * * * //

dimensions      [0 2 -2 0 0 0 0];


internalField   nonuniform List<scalar> 
13851
(
-0.171689
-0.0450628
-0.0438135
-0.172669
0.0142711
-0.0549928
-0.0302069
0.0035428
0.0412079
0.0369083
-0.125817
0.0219044
0.0493861
0.0290069
-0.0876641
-0.0479318
-0.15357
-0.00958593
-0.516866
-0.175886
-0.110347
0.00531049
-0.157767
0.0161178
-0.418088
-0.0537464
-0.0464618
-0.498569
-0.0247704
0.00090419
-0.171824
-0.0305234
-0.139974
-0.166574
-0.0981797
-0.034134
0.0161774
-0.1091
-0.454195
0.0259009
-0.436307
-0.0251617
-0.13627
-0.0318236
-0.0146783
0.0114686
-0.00308733
-0.0549814
-0.0102435
0.0495996
-0.561249
0.05511
-0.0486004
-0.0466301
0.0544698
0.0269636
-0.144264
-0.444671
-0.0390326
-0.248496
0.0218757
-0.0502556
0.0316564
-0.00994727
0.131488
0.138389
-0.254065
0.292367
0.0116091
-0.177275
-0.160416
-0.130166
0.0371623
-0.228752
-0.0563124
0.0197804
-0.152338
-0.0020499
-0.423549
0.0209722
0.0105852
-0.218681
-0.0926012
0.0092254
-0.220746
-0.161506
0.00264964
-0.0322627
0.0369045
-0.175118
0.0558385
-0.0318838
-0.505074
-0.164983
-0.569938
-0.0142959
0.0177105
-0.0512232
-0.55725
-0.108514
-0.0509271
0.208705
0.209139
0.041822
0.00764974
-0.137423
0.00816281
-0.157093
-0.0320744
-0.00885461
0.0254074
0.0108731
-0.344926
-0.174163
-0.100227
-0.0460815
0.00498386
0.00324646
-0.174069
-0.176405
-0.0261278
-0.00466474
0.0171683
-0.183028
-0.40604
0.341232
0.0170242
-0.0657383
-0.2419
-0.106484
0.00924413
-0.0667329
-0.117316
-0.144458
-0.132549
-0.53127
0.28309
-0.159946
0.177032
-0.0985855
-0.210371
0.0598217
0.0375196
0.245374
-0.549342
0.0331358
-0.00202456
-0.16794
0.012642
-0.0681779
-0.0514537
-0.330342
-0.181993
-0.451873
0.0581472
0.0444767
0.020423
-0.447374
-0.0954176
-0.0353063
0.0162953
-0.0289095
-0.132972
-0.0567269
0.0344837
0.025807
0.0250278
-0.558252
0.023735
-0.598318
0.0222528
0.00484422
-0.171243
0.0151365
-0.568363
-0.0939453
-0.0580488
0.00425553
-0.0534558
-0.0581393
-0.386318
-0.0325021
0.0171616
-0.103109
-0.153537
0.00798122
-0.135392
0.139689
0.0539554
0.00449376
-0.545817
-0.0969899
0.032177
-0.0574548
0.0308526
-0.0497322
-0.130076
-0.0203075
-0.0128588
0.281665
-0.189324
-0.596326
-0.48579
-0.0848309
-0.00942871
-0.594145
0.0906662
-0.0828372
0.0406644
-0.0463199
-0.047317
0.0175062
-0.196571
0.0216536
-0.106072
0.0180511
0.0481202
-0.232097
-0.0184157
0.43263
0.0040637
-0.193855
0.00581416
-0.54684
0.131177
-0.0819871
0.0213431
0.24796
0.0237209
-0.100939
-0.170754
0.135669
-0.0468092
0.0303155
-0.473248
0.000277845
-0.15203
-0.506004
-0.106629
0.0163972
-0.123896
-0.193407
-0.0173909
-0.0478315
-0.0918567
0.265604
-0.226633
-0.0526517
-0.0131055
0.00767714
0.0200381
-0.287582
0.00672877
-0.0585076
-0.0500188
-0.0305082
-0.0512347
0.0046842
0.354294
0.0360068
-0.136121
-0.422714
-0.0607129
-0.134961
-0.301247
0.0301485
0.212701
-0.0612433
-0.417094
0.029368
0.0480657
0.135347
0.0179228
-0.172672
-0.116736
-0.00537718
-0.37966
-0.438879
-0.110782
-0.131135
0.0191626
-0.495341
-0.064002
-0.079867
-0.154259
0.00522967
0.0197647
-0.115529
-0.0985724
-0.000769934
0.0210539
0.0242528
0.0123215
-0.0877008
0.0200336
0.0387843
-0.113864
0.018704
-0.0327225
-0.170602
0.0550686
-0.189379
-0.579307
0.0614448
0.0560587
-0.117552
-0.0315452
-0.159318
-0.181252
0.0141175
-0.590217
0.0222507
-0.197369
-0.580811
-0.379805
-0.0340428
-0.142604
-0.125822
-0.138966
-0.313542
0.229887
-0.535421
-0.20589
-0.506836
-0.0139897
-0.160367
-0.0279805
0.375936
0.359129
0.0921462
-0.184014
0.0958333
-0.0249823
0.227457
0.00897914
-0.00299716
-0.0291617
-0.148828
0.424335
0.00497108
-0.546205
0.105314
-0.0667426
-0.0353516
-0.0230313
-0.363645
-0.0487503
0.0197431
-0.043836
-0.0485691
0.05452
-0.458367
-0.0623069
-0.120115
0.110151
0.0367591
0.0178028
-0.203538
-0.113676
-0.276623
-0.121226
-0.0470715
0.0325657
-0.494617
-0.152397
-0.00608475
-0.365449
-0.169201
-0.56229
-0.0278745
-0.0474791
-0.0410605
-0.183746
-0.184988
-0.0184667
-0.0148812
-0.0957682
-0.136351
-0.0828733
0.0184959
-0.0928713
-0.532903
-0.0784919
-0.0449241
-0.309001
-0.128933
0.0446225
-0.0601703
-0.100279
-0.0554947
0.0145176
-0.116244
-0.187032
0.036345
-0.0861515
-0.17617
-0.0366584
-0.105127
-0.0588254
-0.168349
-0.0493746
-0.0537696
0.0217476
-0.426696
-0.137904
-0.0535795
-0.200047
-0.116875
0.0309261
-0.207691
-0.0920104
-0.048828
-0.00284104
-0.166222
-0.307954
-0.277368
-0.0439323
-0.315493
-0.0591845
-0.172101
-0.00507844
-0.157371
-0.137791
-0.179948
0.00428453
-0.602303
0.0421884
0.0149677
0.0535082
-0.0652771
0.0377701
-0.0450934
-0.0886791
0.00685875
-0.31342
-0.186498
-0.17003
-0.0515089
-0.0159612
0.0551552
-0.1698
0.019808
0.0540844
-0.0338146
-0.202179
0.0119931
-0.0440491
0.0313569
0.0193889
-0.0391346
-0.287569
-0.0537336
0.0152655
-0.0270188
-0.0265104
-0.0371385
-0.0976166
0.0210579
-0.0493392
-0.0120192
0.107228
-0.00199081
0.0233472
-0.0509761
-0.0229159
-0.103271
-0.0345764
-0.0940741
0.0487813
-0.0413639
0.0252062
-0.101014
-0.0420429
0.155275
0.0358273
-0.185772
0.169991
-0.0969655
0.04218
-0.0725889
-0.19244
-0.0648746
-0.213467
-0.0550968
-0.271604
0.0628398
-0.328119
0.0291362
-0.0264085
-0.0599368
-0.123833
-0.0904784
0.0187433
0.101503
-0.174577
0.0144918
-0.177611
-0.107106
-0.0952549
-0.188824
-0.0331549
-0.3022
-0.44411
0.122212
0.0265685
-0.118676
0.0367334
0.0145631
0.129225
-0.578097
-0.0433835
0.0631653
0.00238243
-0.140495
0.0376188
-0.475259
0.0189087
-0.197657
-0.101604
0.020677
-0.0379353
-0.1583
-0.405052
-9.95808e-05
-0.101524
-0.138556
-0.00999523
-0.253479
-0.500257
-0.210098
0.0639588
-0.0326743
-0.408473
-0.0103385
-0.452276
0.0143331
0.0186205
-0.0454598
-0.540042
-0.112571
-0.0523278
0.0371164
-0.0632434
-0.229869
-0.489121
-0.0125506
-0.168205
0.0153176
0.013209
-0.14115
-0.043975
-0.00530804
0.0225765
-0.279766
-0.129962
-0.26359
-0.041059
0.0358685
0.0207199
0.0267358
-0.224378
-0.0549768
-0.0593437
-0.0929159
-0.02054
-0.503417
-0.0568
-0.142917
-0.0331565
-0.188534
-0.0231541
0.0533
0.0210119
0.0298925
0.203167
-0.284378
-0.0444975
-0.0617573
-0.119837
-0.0435563
-0.0755064
-0.167255
-0.439862
-0.00668842
-0.179327
-0.082831
-0.0406052
-0.0108431
-0.0384019
-0.59072
0.0255481
-0.49957
-0.600666
0.0183978
-0.10218
0.0299668
0.204198
-0.0645919
-0.152305
0.0206803
0.0154451
0.119153
-0.136495
0.0206629
-0.572899
0.0153649
-0.0869367
0.0687038
-0.0495758
0.0410043
0.0383317
-0.030058
-0.177918
-0.13916
-0.53939
-0.0719359
0.00708858
-0.00790738
-0.17639
-0.0256549
-0.253963
-0.0480528
0.154738
-0.0397248
0.027178
-0.0615078
0.0213232
-0.0476866
-0.154539
0.00820034
0.141146
-0.141543
0.0104802
-0.102789
-0.606328
-0.0142434
-0.474234
0.100975
-0.0867418
-0.1873
-0.518985
-0.0062151
-0.243971
-0.0197903
-0.0410367
-0.509908
0.0084858
0.290676
-0.403749
0.0243469
0.0243424
-0.0525724
-0.0599931
-0.0330532
0.055553
-0.319727
-0.035279
0.0396433
-0.0406714
-0.324903
-0.116551
-0.00432042
-0.0629105
0.135142
-0.0523135
0.0718182
0.0317248
-0.0592093
0.116143
-0.0580575
-0.125093
-0.131364
0.00131615
-0.0704873
-0.508966
-0.018681
-0.11526
-0.053028
0.0206324
0.0358085
-0.0450955
-0.206338
-0.00611706
-0.0739479
-0.480751
-0.014288
0.0205373
0.0194362
-0.0494643
-0.0221779
-0.0510667
-0.513055
0.00752201
-0.0311793
0.0546009
-0.579466
-0.23407
-0.0521064
-0.0446821
-0.575696
-0.120524
0.0346396
-0.0603972
-0.0151221
-0.117809
-0.0484838
-0.0951172
-0.0857796
-0.142713
0.041544
0.0216614
0.0874277
0.0404883
-0.018325
0.0126143
-0.0414677
0.0246267
-0.237415
-0.508008
-0.555587
-0.0973013
-0.108311
0.140006
0.0279259
0.0467072
-0.000958029
-0.00733237
0.0152084
-0.189768
-0.340808
0.137924
-0.481698
0.0148631
0.0422335
0.0270048
-0.172041
-0.0811287
0.0270678
0.0297447
0.0124919
-0.0554494
-0.0251257
-0.615192
-0.0967701
-0.149735
-0.00973707
-0.176228
0.0561571
-0.0445098
-0.0388889
0.028192
0.0604983
-0.0115181
-0.0636523
0.00254523
-0.0621395
-0.0893982
-0.134762
-0.476036
0.142068
0.0581979
-0.0315366
-0.000767774
-0.0334543
0.016515
-0.0378906
-0.452157
-0.0849102
-0.105033
-0.157055
-0.14237
0.0275936
0.0268453
-0.198119
-0.0124439
0.0274659
-0.0485007
-0.121855
0.0136495
-0.094151
-0.107214
-0.0270933
-0.161189
-0.198897
0.184854
0.0282412
-0.169382
0.00818182
-0.0614623
-0.0196865
-0.0496134
-0.448209
-0.0314935
0.00443295
0.00818092
0.0760383
0.0347114
0.00231663
-0.166981
-0.128841
0.0293702
-0.0470154
-0.0868163
0.0422891
0.0013787
-0.134718
-0.176229
-0.0400024
0.0268595
-0.096718
-0.306248
-0.522834
0.0576196
0.0178716
0.00558686
0.0705755
-0.0928013
0.00699062
-0.590372
0.00709805
-0.150486
0.0328705
-0.100649
-0.105213
0.0941986
-0.0892261
0.037649
-0.0444838
0.0143243
-0.041756
0.0693803
-0.0511356
-0.0173402
-0.13487
-0.0540565
-0.0784112
0.0131538
-0.17859
-0.0301192
-0.0597472
-0.0801464
0.0464829
-0.0445352
-0.00674949
-0.48056
0.0269972
0.014091
-0.0270771
-0.0944464
0.0233974
-0.0480283
-0.379026
0.095268
-0.414602
0.00543734
0.0247118
0.0297413
0.0136601
0.0569283
-0.00302387
0.0253863
-0.51938
-0.0372937
-0.0187183
0.0154055
-0.116279
0.010328
-0.178352
-0.177176
0.0247687
-0.528175
-0.0439333
-0.0596068
0.025631
-0.109959
0.060125
-0.0137698
0.0166688
-0.127877
-0.518345
-0.144331
-0.152677
-0.102689
0.0314298
-0.116487
-0.0782784
-0.257312
-0.0846676
-0.0338861
-0.183608
0.0208447
-0.150005
-0.150924
-0.00461586
-0.530441
-0.0465584
0.0604399
0.250206
0.0540025
-0.189997
-0.0139565
0.00908233
-0.452569
0.0184267
0.0131292
0.0197735
0.0193319
-0.584271
-0.47213
0.0105953
-0.121086
-0.00680261
-0.00138061
-0.154571
0.0760926
-0.099289
-0.570493
0.0207371
-0.0436137
-0.0209092
-0.0821221
0.117433
0.0156639
-0.244884
-0.0521795
-0.388194
-0.0213682
-0.0363804
-0.0806157
-0.146923
-0.408508
-0.0371627
-0.0909043
0.0406023
0.00542775
0.0249464
-0.0444744
0.0302616
-0.235023
0.0202455
0.111538
0.139617
0.0580603
0.00556967
-0.0364136
-0.020971
-0.0379184
0.0027428
-0.61795
-0.0428968
-0.0781128
-0.0511132
-0.465477
0.0629917
-0.145534
-0.000387196
0.0236371
0.070723
0.00480974
-0.0152504
0.0256486
0.0101266
0.224705
0.0453188
-0.121508
-0.0236872
-0.481889
-0.453657
-0.298498
-0.432391
-0.0158249
-0.497797
-0.244263
0.021384
-0.0176751
0.0613429
-0.139101
0.0784285
0.205469
-0.352883
-0.175107
-0.0810543
-0.00862673
-0.0180836
-0.332487
-0.0459416
-0.0173033
0.00655095
-0.0123588
-0.176961
0.0415738
-0.398345
-0.220533
0.0267069
-0.161997
-0.125673
-0.0108875
-0.621373
-0.150476
-0.120563
-0.0179414
-0.0222853
-0.185647
0.017613
0.0303957
0.0550229
-0.00848493
0.0215831
-0.0550544
-0.0473796
0.0349246
-0.183342
-0.0637158
0.0288064
-0.0643135
0.038086
0.314149
0.01978
-0.14343
-0.0130287
0.0148768
0.0334948
-0.0133972
0.00161311
-0.0417888
-0.0512334
-0.519073
-0.369116
0.126148
0.0354689
-0.0226039
-0.236006
-0.0128541
6.17597e-05
-0.0840068
-0.441662
-0.0462101
-0.0020021
-0.0384776
-0.0925528
-0.243838
-0.13626
-0.0100533
-0.00520965
-0.034269
-0.231836
-0.0467727
-0.262666
0.0344105
0.0179759
-0.00897856
0.0202841
0.0149383
-0.107345
-0.041963
0.0154896
0.143551
0.0261542
-0.113121
-0.0233041
-0.611204
-0.41349
0.135133
-0.168456
-0.0204678
-0.195868
-0.0586442
-0.0817457
0.019713
-0.0816498
0.0788238
0.0686874
-0.10063
-0.00852676
0.0360206
0.0389756
-0.0138182
-0.244069
-2.1541e-05
0.0671504
-0.0186467
-0.163827
-0.0892232
0.0167913
-0.0569862
0.0827108
-0.0481487
0.0923952
0.0286598
-0.0281245
-0.00477271
0.0395842
-0.0788456
-0.0486025
0.0250704
-0.0512181
-0.0198002
-0.516974
-0.0476565
0.0238158
0.00354874
-0.0285995
0.0563608
-0.0473864
-0.0902136
0.027103
-0.07842
0.112243
-0.116464
-0.105798
-0.0124191
0.0811696
0.00338034
0.219909
-0.203154
-0.190091
0.0312415
-0.0313824
-0.253363
-0.156896
-0.299635
-0.0111405
0.0306769
-0.129163
0.0318723
0.035222
-0.0154221
-0.0448772
-0.0556043
-0.195591
-0.171921
-0.0205499
0.000423254
0.0374085
-0.0459094
-0.00246115
-0.0590545
0.029758
-0.0276196
0.0636687
0.0086471
0.0288551
0.0238486
0.0155399
0.116936
-0.0493306
0.0743819
-0.339374
0.0335182
0.0200055
-0.209359
-0.064035
-0.0154606
-0.0296009
0.181133
-0.0334709
0.00637537
0.0142367
0.00524471
0.0324049
-0.0376153
-0.157568
-0.0327326
-0.201658
-0.149801
-0.0213748
0.00504642
0.113343
-0.102273
0.020472
-0.0290724
-0.0150797
-0.0457802
0.0300847
-0.017801
-0.06176
0.163741
0.0505657
-0.0457529
-0.161842
-0.0459614
-0.118792
0.0421568
-0.247152
-0.188889
0.0313464
-0.214039
0.0561654
0.214638
0.0551073
-0.0179619
0.0139873
0.0386425
0.013106
0.127082
-0.127082
-0.0095434
0.0316569
0.268844
-0.00744026
-0.252059
0.0298472
-0.0887942
-0.0584308
-0.28887
-0.500468
0.0286485
-0.114157
0.00675677
-0.0445598
-0.0479398
-0.0315052
-0.0930294
0.0199535
-0.0611847
0.231214
-0.100112
-0.46999
0.0909476
-0.325548
-0.0656874
-0.109095
0.0615306
-0.00366434
-0.0262637
-0.178024
-0.0194602
0.0179672
-0.166721
0.00763656
-0.116288
0.0194535
-0.0747848
-0.121185
-0.00545717
-0.179149
-0.0553686
0.0177925
-0.0555979
0.00919181
0.210191
-0.0484343
-0.115995
-0.0245014
0.0138595
0.0207283
0.22391
0.0265852
0.0268113
-0.0544727
-0.0771522
-0.135466
-0.0855948
0.0422405
-0.0362876
-0.00222802
0.0251657
0.0267061
0.0311701
-0.135062
-0.0126079
0.0779457
-0.0453892
0.00731049
0.0169163
-0.000846082
0.0270734
-0.508167
-0.0343514
0.0156388
-0.309207
0.188455
-0.139047
-0.142966
0.0661527
-0.0192621
-0.321907
-0.0299789
-0.00383438
0.012438
0.0787892
-0.0832653
0.0232283
-0.0665915
0.0120383
0.00022916
-0.159946
-0.555879
-0.0376977
-0.0371208
0.22361
-0.523002
-0.167182
0.0270489
-0.0569046
-0.00750979
-0.0171694
-0.0884815
-0.144208
0.0122095
-0.0545068
-0.0813088
0.0225791
-0.124884
0.0269433
0.0863441
-0.577586
0.0449132
0.00291928
-0.233364
-0.112289
-0.0508502
-0.137004
-0.0514715
0.0576843
0.0124499
-0.0181513
-0.172459
-0.583904
-0.362127
-0.118713
0.041408
-0.58622
0.0308945
-0.293376
0.123814
-0.0318978
-0.117299
0.0271534
-0.608918
-0.39967
-0.00964539
-0.162277
-0.057134
-0.145603
-0.123165
-0.058513
-0.0488019
-0.0615232
-0.0437215
-0.0671065
0.0307154
-0.0659259
0.307373
-0.0308935
0.0242635
-0.0349111
-0.12863
-0.0537412
0.0210487
-0.309794
-0.0564759
0.0533401
0.00362671
-0.0583968
-0.0561003
0.105309
0.0146667
0.0255128
-0.0687454
-0.491628
-0.120613
0.0288988
0.0702313
-0.0626736
-0.439355
0.0266557
-0.105651
-0.152062
-0.0256875
0.00587383
-0.0456883
-0.565434
-0.269329
0.0319531
-0.15658
0.0159246
0.00732871
-0.0677595
-0.0919819
-0.25883
-0.0674841
-0.00463945
-0.0282448
-0.0746845
0.0341676
-0.00238902
0.162188
-0.0524986
0.0943852
-0.474368
-0.0107629
0.0335967
0.0197433
-0.0275821
-0.102645
0.0426573
-0.0471069
0.0840229
-0.054564
-0.242204
-0.0665227
-0.0189504
-0.405507
-0.128189
-0.237657
-0.0434592
0.0128268
0.386712
-0.000224225
0.124483
-0.137132
-0.0524162
-0.424912
-0.127976
0.0301365
-0.044499
0.0123755
-0.074137
0.0455428
-0.0382654
-0.508239
-0.0345738
0.0134774
-0.404551
0.214132
0.0275519
-0.166072
0.0338928
0.0554926
-0.0529167
0.0557039
-0.0638702
0.0862759
0.042568
-0.0203052
-0.149016
-0.102005
-0.123445
0.0279935
-0.569567
-0.052917
0.0136422
-0.0505624
0.0480689
0.12517
-0.229717
0.0138114
0.0544108
0.0955663
-0.586662
0.0270951
0.0178978
-0.114138
-0.0476878
0.0132555
0.0725263
0.02022
-0.438037
-0.117544
-0.1112
-0.144567
0.0332599
0.263191
0.00152293
-0.283845
-0.0514474
0.0363779
-0.0433551
-0.210248
0.0174167
-0.0169482
-0.257488
-0.0396091
-0.0226663
-0.174217
0.0209177
0.0007573
-0.178607
0.0233382
-0.0127488
-0.619897
0.0251921
-0.111687
-0.0554312
-0.149075
-0.419863
-0.0126592
0.0955339
0.117433
0.0188734
0.0414764
0.0285822
-0.0417626
0.0241232
-0.0452791
-0.0852316
0.00261404
-0.00766164
-0.0712739
-0.0891855
-0.0480833
0.0800822
-0.138689
0.0249756
0.0373496
-0.0701784
-0.042032
-0.0809636
-0.0363367
-0.246206
-0.186801
-0.0481067
-0.0488948
-0.150611
-0.173984
-0.0467138
0.0136207
-0.0861774
0.177719
-0.00826858
-0.0231924
0.0140224
0.0210086
0.00198322
0.0265299
-0.00464366
-0.0358605
-0.0129852
-0.163525
0.0134503
-0.215956
0.0192657
-0.00175821
-0.010217
-0.105851
-0.0207552
0.0411097
-0.0283519
0.0945858
0.0251939
-0.090927
-0.00245812
0.0782029
-0.0103873
-0.0416009
0.0107509
-0.121095
0.330272
-0.0271949
0.0324145
-0.045587
-0.482725
-0.0471047
-0.014976
-0.027799
0.0230863
-0.184943
-0.419903
-0.0012445
-0.173737
0.0216894
0.218753
-0.109433
-0.0568847
-0.0425377
0.00782605
-0.0888881
0.0380694
-0.413373
-0.0534388
0.0154148
-0.0407584
-0.329838
-0.00739825
0.0336138
0.017166
-0.466862
0.0250004
0.0344531
-0.106943
0.0549105
0.0314874
-0.0596337
0.00399121
-0.0608216
0.000186897
0.0377471
0.00972159
0.117296
-0.01814
-0.014153
-0.0991493
-0.0761664
0.0280201
0.0312646
-0.346897
-0.0205521
-0.17802
-0.0267416
-0.298545
0.00403436
0.0535449
0.00656258
-0.0245411
-0.0909727
0.0379055
0.0853512
0.126948
0.0181529
0.0305467
-0.0398797
0.0154252
-0.0693283
-0.000731688
-0.047714
0.0270146
-0.358395
0.00800904
-0.071241
0.0051244
-0.0674383
-0.109881
-0.0020438
-0.00891817
-0.53022
-0.105254
-0.0276465
-0.0416213
-0.115274
0.0858751
-0.0945215
-0.245591
-0.437842
-0.0186428
-0.0493246
0.116539
0.0135956
-0.0442935
-0.172279
-0.132709
-0.248975
-0.350167
-0.0236159
0.0221484
-0.00818225
-0.00152296
-0.220273
-0.366511
-0.427026
-0.278645
-0.294608
0.006348
-0.339689
0.0242016
-0.0911828
0.0178137
-0.376169
-0.197017
-0.110579
0.0399625
0.00976797
-0.0760395
-0.064841
-0.346895
0.113092
0.0221831
-0.147822
-0.15307
-0.00280028
-0.259562
0.0244207
0.0425771
-0.105311
0.105865
-0.553571
0.112385
-0.173491
-0.0628223
0.119156
-0.164946
-0.600788
-0.261287
0.0633861
0.110723
-0.200565
0.0197695
0.00762218
-0.133267
0.105104
-0.283876
0.0267885
-0.401988
0.0315549
-0.0365928
-0.0283453
-0.0439707
0.0813549
-0.0816647
-0.163039
0.0454392
0.0249184
-0.0930603
-0.171982
-0.0184129
-0.0410181
0.0250017
-0.0535533
-0.0469588
-0.0294936
-0.251428
0.0592501
0.0169967
0.259725
0.0126336
-0.235598
-0.551504
0.0101219
0.0272022
-0.023773
0.0206832
-0.0346197
0.0219158
-0.0174449
0.109571
0.0212823
0.0413674
0.0538663
-0.0719081
-0.449946
0.020185
-0.334056
-0.165008
0.00128478
0.159636
-0.0983822
-0.0953584
0.056253
-0.142669
-0.0638688
0.211359
-0.0762354
-0.00688461
0.0169382
-0.377058
-0.037575
-0.0259892
0.058131
0.0389595
0.0237621
-0.0424653
0.0264569
-0.131342
-0.0778561
-0.00241107
0.0156409
-0.230441
-0.127706
-0.272299
0.00604052
-0.215427
0.24538
-0.144822
-0.439786
0.0684386
0.0173763
-0.130048
-0.259068
-0.0302382
-0.109008
-0.0473854
0.015879
-0.00614506
0.00550798
0.0235298
0.0514565
-0.239192
0.0219862
0.235615
0.00268159
-0.553891
-0.229306
-0.129884
-0.0272519
-0.28413
0.0514475
0.027408
-0.619592
-0.00169415
-0.00186682
0.000569752
-0.0787381
-0.228119
-0.400047
0.108246
-0.0189367
0.0027657
0.026561
0.018138
0.0146566
-0.0397157
-0.55758
0.0265487
0.0283519
0.0503772
-0.0698911
-0.0305225
0.0323933
-0.435084
-0.537376
-0.0119165
-0.143633
0.0219814
-0.212032
-0.0519756
-0.0261894
-0.178446
-0.17123
-0.398705
0.00277205
-0.0188249
0.0253103
0.0268379
-0.0811618
0.0155364
-0.0850072
-0.0425747
-0.482992
-0.0183253
-0.103377
-0.371562
-0.138016
-0.623509
-0.205418
-0.000234528
-0.0542924
-0.0554638
-0.0472392
0.00112335
-0.00424135
-0.0115615
0.0217129
-0.0827745
0.057508
0.0120534
-0.261038
-0.0902862
-0.176563
0.0229243
-0.112196
-0.015824
-0.121108
-0.0434563
-0.0587725
-0.162603
-0.0919877
-0.0517044
0.0261057
0.0304728
-0.140465
0.112123
0.0252238
-0.592302
0.0170328
-0.0351836
0.195557
-0.547312
-0.0357663
-0.106633
-0.107618
-0.00807606
-0.394239
0.0264967
-0.0875085
-0.0538088
-0.513753
-0.131595
-0.271382
0.0278061
-0.127011
-0.00496637
-0.572436
0.032075
-0.573313
-0.00553821
-0.0545395
-0.00547773
0.0230165
-0.0865905
0.119808
0.0718685
0.0216515
0.0265169
-0.0643662
0.0162127
-0.0592916
-0.0138555
-0.0747067
0.0413373
-0.203847
0.00580187
-0.0658483
-0.0558634
0.00166464
-0.159954
0.0234159
-0.126796
-0.000859292
-0.0415987
0.0346985
-0.151506
-0.113061
-0.00609207
-0.214555
-0.590055
-0.33789
-0.00923978
-0.403299
0.0289504
-0.128109
-0.056171
-0.0600661
-0.567251
0.0457249
0.174966
-0.239379
-0.0589815
0.0481494
0.00645175
-0.170021
-0.0456849
-0.255072
0.262286
0.0172411
-0.0424521
-0.167213
-0.178928
-0.0449325
-0.591273
0.0198185
-0.127264
-0.316575
0.0474253
0.12089
0.0291765
-0.00839947
-0.00404165
-0.135575
0.0253439
0.105352
-0.35387
0.0210116
0.00894205
-0.0614138
-0.326287
-0.0680326
0.00402049
-0.602509
-0.0323324
-0.0622934
0.0340134
-0.172251
0.097764
-0.497623
0.0878416
-0.0950133
-0.0793391
0.0294861
-0.174874
-0.350823
-0.174334
0.0275304
0.0101824
0.0570267
-0.155886
-0.036593
-0.00848344
-0.175025
-0.307307
-0.0130623
0.017312
0.0114112
-0.207648
0.175489
-0.0247065
-0.0377924
-0.0521388
-0.0155861
-0.0920512
-0.356508
-0.0410006
-0.0889261
-0.004877
-0.0712511
-0.0994348
0.0368783
-0.0454641
-0.229139
-0.387006
-0.0408527
-0.196866
-0.193811
-0.620005
0.0825343
-0.0124435
-0.538784
-0.580097
-0.565542
0.0296974
-0.110424
0.0413137
0.027102
-0.045343
-0.526624
-0.13544
0.0242818
-0.0822228
-0.192081
-0.139819
-0.0263079
-0.340767
-0.0547809
0.0103924
-0.0825327
-0.0428312
-0.141356
-0.059052
-0.120446
0.0534203
0.0112609
-0.103262
-0.126688
0.00877914
-0.0778874
-0.0663722
0.0430526
-0.045312
0.0544028
0.0780281
-0.0735665
-0.299988
-0.0462695
0.0307311
0.35891
0.0211656
-0.023223
-0.102715
-0.00908592
-0.0758523
-0.024109
0.0735432
0.0014416
0.163259
-0.0692884
-0.0807538
-0.106196
0.0171873
-0.00382207
0.0334181
-0.0297006
-0.605546
-0.385646
-0.058412
-0.00505345
0.0388058
-0.0774051
-0.0044254
-0.521458
0.0389681
0.0240518
-2.29802e-07
-0.0470764
-0.138033
0.0579412
-0.104851
-0.0180561
0.048125
-0.0715328
0.169428
-0.101765
-0.0812068
-0.172554
-0.057936
-0.55622
-0.0753588
-0.598095
-0.0582904
0.0111352
0.00619492
-0.160266
-0.275253
0.00725615
0.0476251
-0.0633461
-0.136215
-0.0300897
-0.174043
-0.0470939
0.0234623
-0.579481
0.042179
-0.0382974
0.034021
-0.163547
0.0272964
-0.0524888
0.0242159
-0.0446404
0.0314763
-0.0334342
0.122615
0.0516989
-0.573254
-0.0452169
0.02241
-0.312779
-0.0270583
-0.579124
0.00363124
-0.152653
8.61399e-07
-0.0728092
-0.0102479
-0.135648
0.036444
-0.0600046
-0.0749559
-0.554274
0.000549696
0.0221054
-0.174442
-0.101831
-0.113488
0.170416
0.0318611
-0.117157
-0.180953
0.18785
-0.0312358
-0.0420561
-0.557154
-0.0323012
0.0245712
0.018831
-0.159753
0.0684406
-0.0579789
0.0432891
0.00499328
-0.142282
-0.0524684
-0.00633677
0.0229046
-0.0520247
-0.522073
-0.0720812
-0.107017
0.101688
-0.16531
0.0329794
-0.110442
-0.077942
-0.123761
0.234882
-0.0384436
-0.0223882
0.164798
-0.00960085
-0.118815
-0.191439
-0.0529539
-0.0151346
-0.127029
0.0570269
0.0264085
0.0716131
0.0217011
-0.102734
0.132719
0.0500419
-0.37313
-0.0179816
-0.0928357
-0.00371201
-0.0570349
-0.172966
-0.133583
0.0403261
-0.0459166
-0.298545
-0.0449863
-0.219188
-0.0317322
0.0397696
0.0369824
-0.0450927
-0.335116
0.0281414
0.0146888
-0.0445393
0.0513803
0.0310643
-0.150581
0.0110951
-0.392706
-0.0499759
-0.328322
0.0146863
-0.0299676
0.0543225
0.0177292
-0.0708969
-0.116405
-0.581961
-0.0128866
0.0525513
-0.0334602
0.0117137
0.0825374
-0.176328
-0.13262
0.0319617
-0.045832
0.0343288
0.0443516
-0.0974793
0.157319
-0.0569293
0.032181
-0.0862165
-0.0466369
0.257297
-0.156547
-0.139586
-0.0495072
-0.00243531
-0.0399694
0.0453593
-0.00113471
-0.327316
0.0296163
-0.0359199
0.0528065
-0.380171
-0.0471318
0.0296158
-0.126075
0.12678
0.11327
-0.0453858
-0.623327
-0.104158
-0.0523918
-0.0493723
0.0642824
-0.0608625
-0.218827
-0.0724343
0.0276992
-0.027072
-0.165889
-0.00648972
-0.00738006
-0.115288
0.0453492
-0.116728
-0.206117
-0.0730596
0.0289077
-0.281074
0.00592431
-0.186606
-0.0408706
-0.365308
0.0100805
-0.0981538
-0.177695
-0.0350857
-0.157814
-0.0518531
-0.112576
-0.53725
-0.153272
0.0854112
-0.139497
0.0105429
-0.0367362
0.0229621
-0.0282591
-0.155746
-0.0379023
-0.0193553
0.337285
-0.0477529
-0.0636857
-0.0113859
0.129151
-0.122819
-0.402238
0.120551
-0.109976
-0.239868
-0.0576871
-0.0738442
-0.0437948
-0.0723923
0.217342
-0.14608
0.0495244
-0.0260106
-0.018812
-0.135361
0.036308
-0.0604181
-0.00174878
-0.0941464
-0.0681369
-0.131992
-0.032734
0.0792066
-0.439172
-0.00313153
0.0529096
0.0232193
0.0278573
-0.0442444
0.0177796
-0.0899834
-0.510848
-0.116928
-0.121975
-0.0457346
0.00467237
-0.0446566
0.032082
-0.0325277
-0.21925
-0.158324
-0.05952
-0.0406111
-0.051361
0.0261375
0.0913922
0.212154
-0.0894479
-0.533794
-0.102875
-0.140958
-0.0542733
0.0180647
0.00809508
-0.0500871
0.0215395
-0.0756426
0.248736
-0.377621
-0.0345088
-0.166559
0.028456
-0.0106091
0.0413569
0.0566681
0.138965
-0.0700702
0.00258956
-0.0581448
0.182014
-0.111825
-0.0846068
-0.0401701
-0.0261729
-0.137968
-0.0505532
-0.0336161
-0.00524115
-0.0746034
-0.0440566
-0.623759
-0.0216462
-0.0708525
-0.579097
-0.0592185
-0.0260458
0.0223711
-0.055338
0.0258819
-0.0521093
-0.163832
0.0265955
-0.00480133
-0.167433
-0.047718
-0.0658934
-0.134922
0.0507872
0.0578471
-0.0919685
-0.603121
0.143832
0.0292106
-0.0263425
0.268514
0.0407489
-0.0130669
0.0263832
-0.097351
-0.0530621
0.260915
-0.384
0.140505
-0.286533
0.0182674
-0.140482
0.0496674
-0.0464772
0.01214
-0.110839
0.0175828
0.096644
-0.0352167
-0.0717766
-0.142801
-0.00657167
0.196597
0.00448366
0.00558417
-0.031874
-0.0616574
-0.0509978
-0.465617
-0.0339408
-0.108397
0.0262641
-0.143354
-0.142092
-0.333174
-0.0345958
-0.532302
0.0280344
-0.00460138
0.0257625
-0.200176
-0.00678003
0.0373494
-0.0259156
0.028207
-0.296809
0.137124
-0.0117838
0.0128074
-0.0397888
-0.407218
0.00101365
-0.274949
-0.000889013
0.249037
-0.17795
-0.157178
0.022735
-0.0467866
-0.0485417
-0.0529042
-0.155611
-0.0834628
-0.02268
-0.0914492
0.0343839
-0.020622
-0.156634
-0.0569285
-0.0456691
-0.047552
0.0287386
0.0078184
0.0169795
-0.0435261
0.0487196
0.0519645
-0.301324
-0.190644
0.187884
-0.172637
-0.0567715
-0.0425964
-0.545626
-0.137319
0.0629613
-0.16056
-0.234454
0.0303238
-0.128297
-0.0690856
-0.0582858
-0.00905423
-0.164776
-0.140527
-0.61394
0.122784
0.149594
0.0866118
-0.0433474
0.0114904
-0.0946659
0.0251619
-0.174068
0.120249
-0.0261978
-0.00115369
-0.115469
0.125513
0.0892048
0.0266927
0.0148403
0.147717
-0.0371655
-0.0218599
-0.0546758
-0.360171
-0.0435067
-0.120686
0.00750797
0.160652
0.172504
0.0498321
0.0338478
0.0175441
-0.351242
0.010715
-0.28404
-0.138158
0.01317
-0.206189
0.0300258
-0.0653612
0.0118223
0.00289353
0.0266956
-0.0191525
0.00119834
-0.0506822
-0.0887505
0.0212536
-0.0782883
0.0299444
-0.402878
-0.287076
-0.172896
0.0388481
-0.275182
-0.495321
0.0256272
-0.435585
-0.0419075
-0.165
0.133151
0.178093
-0.303991
-0.601277
0.0338076
-0.181582
-0.0882374
-0.269286
-0.000704793
-0.119254
-0.451527
0.0222951
-0.172235
0.11049
-0.568891
0.0161604
0.0489173
-0.152729
0.102634
-0.0459378
-0.173067
-0.00554642
-0.0119801
-0.0271085
-0.41004
-0.173119
-0.056997
-0.0198745
0.0647418
0.0229437
0.0304424
0.0502791
0.0138323
-0.129624
-0.408925
-0.0642842
0.012341
0.0130653
-0.145048
-0.189194
-0.237056
0.119764
0.0127504
0.188794
-0.170975
-0.18374
-0.00529444
0.023475
-0.418099
-0.0108424
-0.0145005
0.097965
0.0311068
0.00633141
0.140672
-0.278538
-0.460299
0.0170579
-0.00564251
-0.0220207
-0.0463344
-0.540361
0.0263269
-0.141551
-0.58534
-0.00488503
-0.0468587
-0.0247391
-0.163974
0.030897
-0.175035
-0.506949
0.0102082
0.0710251
-0.0356735
0.373894
-0.455192
-0.053677
0.0224734
-0.18654
-0.555491
-0.000355726
-0.222188
-0.270951
-0.077703
-0.467113
-0.5344
-0.252296
-0.606329
-0.0520487
0.0876282
-0.0337644
-0.293214
-0.561927
-0.567911
-0.185136
-0.42883
-0.0044354
-0.0829732
0.0157769
0.0185381
0.0538355
0.0197483
0.0305671
-0.00279587
-0.0016923
-0.10987
-0.271176
0.0710587
-0.391214
0.18972
0.00795906
0.0128448
-0.247282
0.0272914
-0.0528477
-0.0235795
0.0281938
-0.00237017
0.00817714
0.0247283
-0.0841564
-0.0423822
0.00334127
-0.00497759
-0.473591
-0.00160456
-0.369205
-0.312128
-0.0039232
-0.132279
0.00130633
-0.0317321
-0.0140953
-0.0720345
-0.0255525
0.0194376
-0.416873
0.0378204
0.0401402
-0.00452322
0.0506404
-0.0125387
0.0261605
-0.161686
-0.579035
-0.174773
-0.0533459
-0.169815
0.0264687
-0.0549662
-0.0194839
-0.0912056
0.0670728
-0.0438268
0.00903514
-0.0474351
-0.214215
-0.153764
-0.0534707
0.0087817
-0.0978549
0.00815574
-0.434514
-0.00159402
0.0187539
-0.0309486
-0.0525193
0.0157865
0.0191403
0.0991296
-0.360584
0.05513
-0.00433947
-0.0413106
0.0482281
-0.0718538
0.0260174
-0.181215
-0.0384656
-0.0302073
-0.0833558
-0.173239
-0.0404871
-0.61564
-0.00321156
0.0369943
-0.0301503
0.0159094
-0.183579
-0.0366232
0.00285581
0.00158839
-0.143188
-0.0742616
-0.0526791
0.0300842
0.0126848
-0.37301
-0.251511
-0.172943
-0.049076
-0.00105469
0.0292964
-0.172647
-0.118245
-0.00283807
-0.100765
-0.00782092
-0.0735619
-0.0793502
-0.0819937
-0.0169581
0.0238181
0.0153937
-0.0470199
-0.0199834
-0.0547412
-0.00365918
-0.000542634
-0.591606
0.0211259
0.0767378
0.116098
0.111072
-0.0541733
0.0234693
-0.0338653
-0.0754719
0.108835
-0.158725
-0.150658
0.0457665
-0.0421759
0.0407369
0.0234527
-0.178977
0.353284
-0.0264675
-0.0153113
0.0257715
-0.110278
0.109241
0.0303333
-0.0645876
-0.241423
0.0155578
-0.075666
0.0540171
-0.139881
0.0304965
-0.010275
-0.171939
-0.326602
-0.289918
0.0285155
-0.229884
-0.0088491
0.0301277
-0.0516815
0.0081694
-0.141175
-0.0506659
-0.26767
-0.0302214
-0.0717453
0.248667
0.275567
-0.00732129
-0.00169451
0.0664368
-0.00277082
-0.0402467
0.0229878
-0.0647649
-0.18683
-0.0120247
0.0887218
0.0643615
-0.00926168
0.0402704
-0.523034