/*--------------------------------*- C++ -*----------------------------------*\
| =========                 |                                                 |
| \\      /  F ield         | OpenFOAM: The Open Source CFD Toolbox           |
|  \\    /   O peration     | Version:  v2012                                 |
|   \\  /    A nd           | Website:  www.openfoam.com                      |
|    \\/     M anipulation  |                                                 |
\*---------------------------------------------------------------------------*/
FoamFile
{
    version     2.0;
    format      ascii;
    class       surfaceVectorField;
    location    "350";
    object      Uf_0;
}
// * * * * * * * * * * * * * * * * * * * * * * * * * * * * * * * * * * * * * //

dimensions      [0 1 -1 0 0 0 0];


internalField   nonuniform List<vector> 
20580
(
(1.16719 0.19651 0)
(1.16473 0.209397 -3.48374e-20)
(1.15579 0.197221 4.7111e-20)
(1.07084 -0.0300572 7.46581e-21)
(1.07143 -0.0315333 -7.98071e-22)
(1.07311 -0.0300008 5.68349e-21)
(1.07006 -0.0279496 5.66993e-21)
(1.06845 -0.0295266 7.66504e-21)
(-0.0642107 -0.0534037 -2.05825e-20)
(-0.031342 -0.0574286 1.27827e-20)
(-0.0607939 -0.0559239 -3.56482e-20)
(1.0012 -0.000302308 -1.93068e-21)
(1.00108 -0.000280126 2.96722e-21)
(1.00115 -0.000167105 2.57962e-21)
(1.08372 -0.0495906 0)
(1.08299 -0.0526024 -2.0309e-21)
(1.08053 -0.0504822 0)
(1.05184 0.00863207 6.44588e-21)
(1.05185 0.00953404 2.50931e-21)
(1.01145 -0.00105908 -3.52313e-22)
(1.01105 -0.00105038 -5.65757e-22)
(1.01016 -0.000636869 -5.87197e-22)
(0.70684 0.17576 4.40791e-21)
(0.722465 0.169637 4.64957e-21)
(0.694878 0.159384 4.69445e-21)
(0.988962 0.00295525 0)
(0.989538 0.00360496 3.14858e-21)
(0.989808 0.0028584 8.13406e-21)
(1.13869 -0.187778 -3.41935e-21)
(1.13413 -0.181712 0)
(1.13135 -0.189494 -1.49637e-20)
(0.999551 -0.00350873 0)
(0.999604 -0.00373893 9.3831e-22)
(0.999453 -0.00368449 0)
(0.976326 -0.00902226 -4.63602e-21)
(0.975669 -0.0100755 -3.94652e-21)
(0.976925 -0.00984586 7.3149e-21)
(0.270363 0.0788267 4.50242e-22)
(0.243814 0.0628211 -8.7428e-21)
(0.257074 0.0908879 -4.53166e-21)
(1.10498 0.0282994 1.54969e-20)
(1.10835 0.029556 3.63608e-21)
(1.10716 0.0257368 1.93954e-21)
(0.996399 0.0755118 -1.60762e-21)
(0.996625 0.0728908 0)
(0.993907 0.0752217 0)
(0.191695 -0.0622884 0)
(0.193474 -0.0460254 0)
(0.17156 -0.0475463 3.1602e-20)
(1.03157 -0.0243485 -5.16555e-22)
(1.03252 -0.0243969 0)
(1.03203 -0.0254086 0)
(1.36898 0.0544294 0)
(1.36192 0.0347648 0)
(1.30147 0.0468944 0)
(1.17892 0.196731 0)
(1.16978 0.185706 1.0181e-21)
(1.13585 0.0237598 1.86504e-20)
(1.13487 0.019153 1.1169e-20)
(1.13065 0.0228682 -5.47006e-21)
(1.01848 -0.103344 -6.61559e-22)
(1.01508 -0.102639 3.20593e-22)
(1.01783 -0.0996975 -5.55497e-22)
(0.945105 -0.426579 1.14904e-20)
(0.85897 -0.392025 0)
(0.779422 -0.340244 0)
(1.00004 -0.000141219 1.43441e-22)
(1.00007 -0.000177319 -5.67253e-23)
(1.00004 -0.000118903 9.61462e-23)
(0.845161 -0.288857 -3.91895e-21)
(0.836647 -0.294311 -1.53506e-20)
(0.772588 -0.28111 9.60802e-21)
(1.0364 0.0618125 1.00865e-20)
(1.03404 0.0621613 2.77555e-21)
(1.03562 0.0642982 -1.81855e-21)
(0.959188 0.168167 4.95655e-21)
(0.952185 0.171611 -2.74578e-21)
(0.952462 0.16363 0)
(0.972499 0.226369 4.6699e-20)
(0.990486 0.242849 -1.03117e-21)
(0.917707 0.230439 -6.84049e-20)
(0.922246 0.0473712 -2.21494e-21)
(0.925759 0.0434473 2.77848e-21)
(0.922563 0.0450614 0)
(1.01799 -0.015297 -2.26e-22)
(1.01751 -0.0156358 -2.07842e-22)
(1.01734 -0.0148963 -2.95992e-22)
(0.00236558 0.142933 -2.18764e-20)
(-0.0226192 0.159412 5.65071e-20)
(0.00635164 0.151506 1.43189e-20)
(1.05252 0.00854231 -2.96366e-21)
(1.05174 0.00803815 -9.68221e-21)
(1.12658 0.192812 -2.63332e-21)
(1.11768 0.190316 9.9362e-21)
(1.12495 0.183125 0)
(0.43627 0.300939 0)
(0.410217 0.292454 0)
(0.478298 0.315365 -3.11017e-20)
(1.11719 -0.138322 -1.13522e-20)
(1.12159 -0.135448 -1.71609e-20)
(1.1202 -0.142348 -1.47517e-20)
(0.937621 0.0372173 1.5127e-23)
(0.934859 0.0397906 6.29748e-21)
(0.940608 0.0357712 3.66872e-21)
(1.00001 -9.80888e-05 0)
(1.00004 -0.00017038 0)
(1.04937 -0.271772 -4.58602e-20)
(1.02362 -0.250069 -8.26886e-21)
(0.993685 -0.247637 -2.42702e-20)
(-0.127648 -0.121618 -2.86581e-21)
(-0.118124 -0.120311 -4.63566e-20)
(-0.0658518 -0.132544 0)
(0.997225 -0.0373123 1.57333e-21)
(0.998182 -0.0365244 1.83985e-21)
(0.998328 -0.038056 -1.06087e-20)
(-0.0206247 0.14151 2.06166e-20)
(0.0486021 0.154319 -3.87445e-20)
(0.00232644 0.15095 6.40628e-20)
(0.918573 0.0515066 -2.24128e-21)
(0.921512 0.0494432 1.38726e-21)
(0.0977016 0.0145597 -9.52345e-22)
(0.149741 0.0142198 -2.43492e-21)
(0.970805 -0.386616 4.52057e-21)
(0.972393 -0.396518 -6.99783e-21)
(0.959981 -0.393527 3.13332e-21)
(0.901665 0.0690161 -1.24152e-21)
(0.898217 0.0722133 0)
(0.901812 0.0657429 -1.39194e-21)
(1.00943 -0.024022 -1.31615e-21)
(1.00869 -0.0237805 -1.84517e-21)
(1.00905 -0.0230348 -9.79027e-22)
(1.01985 -0.000299696 4.01483e-23)
(1.01976 -0.000208845 -8.60581e-22)
(1.00566 0.103843 -3.57216e-21)
(1.00256 0.102545 6.2829e-22)
(1.00634 0.10005 9.55473e-21)
(1.03533 -0.069775 -1.11477e-21)
(1.03377 -0.067193 -1.9963e-21)
(1.03675 -0.0676844 1.32607e-21)
(0.976931 -0.00781369 -1.1855e-20)
(0.975538 -0.00809825 0)
(-0.649772 -0.00143951 -4.28298e-20)
(-0.654042 -0.000844554 -7.65742e-20)
(-0.701576 0.00531116 -8.31044e-20)
(0.970368 -0.00086094 1.04925e-20)
(0.971545 -0.0010457 2.11258e-20)
(0.970375 -0.0022871 -1.42993e-20)
(0.996381 0.0785469 4.45813e-21)
(0.999266 0.0759309 4.40212e-21)
(1.05914 0.0251066 -9.59532e-21)
(1.05956 0.0263255 -3.14364e-22)
(1.0581 0.025991 -9.79143e-21)
(0.596042 0.0442183 -4.69271e-21)
(0.601459 0.0629436 1.16568e-20)
(0.572884 0.0459014 1.04191e-20)
(0.996477 -0.0382077 0)
(0.996275 -0.0366042 0)
(1.12604 0.205048 1.20712e-20)
(1.13715 0.195453 -1.76598e-20)
(-0.0480431 0.131885 -4.44498e-20)
(-0.0859948 0.126062 -2.9347e-20)
(0.95496 0.112128 4.1039e-21)
(0.951123 0.109188 1.93786e-21)
(0.94919 0.11439 -1.86572e-21)
(-0.334376 0.0623179 -3.8692e-20)
(-0.308361 0.0654083 -2.63687e-20)
(-0.297591 0.0746317 -2.99838e-20)
(0.999525 -0.00327909 -2.86413e-21)
(0.999648 -0.00333966 -4.80827e-21)
(0.966164 0.164778 7.78265e-21)
(0.966244 0.172473 1.11745e-20)
(0.995175 0.00596306 -4.09582e-23)
(0.995154 0.0055128 1.61053e-21)
(0.994673 0.00592651 -1.2529e-21)
(1.03383 -0.0711011 5.60774e-22)
(1.03645 -0.0713844 8.23581e-22)
(0.802829 -0.367614 2.23924e-20)
(0.822043 -0.364936 3.50197e-20)
(0.810357 -0.351102 3.41889e-21)
(0.781214 -0.370485 0)
(0.796143 -0.391247 0)
(-0.363713 0.0530107 4.83903e-20)
(-0.379363 0.0463702 1.7072e-20)
(0.687826 -0.0643157 -2.93191e-20)
(0.680179 -0.079351 2.71501e-20)
(1.01257 -0.0438603 -1.61144e-21)
(1.01127 -0.0436941 -8.87296e-22)
(1.01207 -0.0425198 -1.78505e-21)
(0.015608 -0.0727688 3.63799e-20)
(-0.0296843 -0.0643579 -1.26138e-21)
(-0.0137169 -0.0661267 4.37484e-20)
(-0.00187141 0.0107617 0)
(0.0412733 -0.0140051 -1.34569e-20)
(0.0037609 -0.0400498 0)
(1.15288 0.034482 -1.53148e-20)
(1.15675 0.0306243 1.85528e-20)
(1.15912 0.0367585 -2.78754e-20)
(0.98804 -0.0199528 0)
(0.987354 -0.0193307 0)
(0.987262 -0.0207563 0)
(-0.286405 0.0677309 -1.81731e-21)
(-0.335567 0.0491564 3.4488e-21)
(1.06745 0.0296901 1.76741e-21)
(1.06815 0.0280414 0)
(1.0693 0.0296056 -1.6554e-21)
(1.00439 -0.080576 -2.50025e-21)
(1.00229 -0.0786258 -2.13262e-21)
(1.00483 -0.0776593 2.72406e-21)
(0.208838 -0.101645 9.34867e-21)
(0.152813 -0.0982092 -2.13734e-20)
(1.01998 -0.00824229 1.4157e-22)
(1.01968 -0.00870328 0)
(1.02046 -0.00870129 -8.91785e-23)
(0.850591 -0.281765 -7.01787e-21)
(0.918387 -0.297074 1.88937e-20)
(1.00039 -0.0144566 -8.64239e-23)
(1.00035 -0.0136217 -1.12815e-22)
(0.999945 -0.0137722 3.23167e-21)
(1.01395 -0.0442748 5.26465e-22)
(1.01303 -0.045486 0)
(1.15976 -0.347417 -5.16633e-21)
(1.17437 -0.357153 -7.77952e-20)
(1.16016 -0.36372 -2.82611e-20)
(1.11274 -0.13535 9.38323e-23)
(1.11161 -0.141722 2.14828e-20)
(0.163771 0.0781009 -5.32486e-22)
(0.197547 0.085303 -4.55156e-22)
(0.198942 0.103901 -2.64323e-22)
(-0.268028 0.0670937 -2.17611e-21)
(-0.247994 0.0819654 -7.5415e-21)
(-0.0393239 0.172005 4.40628e-21)
(-0.0396031 0.161421 1.12766e-20)
(-0.0242561 0.163049 4.84971e-21)
(1.0197 -0.106622 1.39044e-21)
(1.02199 -0.103453 5.94997e-22)
(0.917036 0.00891582 6.81682e-21)
(0.89653 0.00127288 0)
(0.912394 0.0100416 -2.61695e-21)
(0.988739 -0.00146767 -2.89874e-21)
(0.989095 -0.00207452 6.82789e-21)
(0.989399 -0.00115642 1.08731e-20)
(0.0283932 0.116947 -1.20331e-20)
(-0.0113172 0.131927 -4.28995e-20)
(0.968462 -0.000653301 -8.20886e-21)
(0.970211 0.000939593 -4.42218e-21)
(1.05329 0.00837905 3.35996e-21)
(1.05326 0.00923536 -2.45053e-21)
(-0.557856 -0.00921918 7.52336e-20)
(-0.568816 -0.00953768 7.60827e-20)
(-0.038677 0.171293 3.59297e-20)
(-0.034263 0.170511 1.70418e-20)
(-0.283499 -0.0480545 5.07304e-20)
(-0.301606 -0.0524988 -4.93894e-20)
(-0.341985 -0.0465052 -3.916e-20)
(0.966096 -0.371907 2.15798e-21)
(0.961678 -0.359605 1.62001e-22)
(0.952745 -0.36706 9.91989e-22)
(1.0041 -0.0232844 2.52704e-21)
(1.00339 -0.0230287 4.822e-21)
(1.0039 -0.0241739 6.61625e-21)
(0.9965 0.0917615 0)
(0.99633 0.0880087 0)
(0.999725 0.0894308 8.81237e-23)
(-0.648952 0.0237134 0)
(-0.647724 0.0238366 -4.36707e-20)
(-0.706237 0.02104 8.88312e-20)
(1.07816 -0.266205 -1.41643e-20)
(1.07941 -0.269173 0)
(1.07578 -0.268958 0)
(0.99641 0.095563 1.65926e-20)
(0.992869 0.0937344 0)
(0.790072 -0.0800346 -9.10301e-21)
(0.789872 -0.0698196 -3.37533e-20)
(0.799606 -0.0758585 6.22432e-21)
(0.792277 -0.11145 -3.62533e-20)
(0.79215 -0.100914 -2.32782e-20)
(0.781114 -0.106563 -7.96214e-21)
(0.982924 -0.0203568 0)
(0.983732 -0.0209122 -1.41935e-20)
(0.982723 -0.0219869 -2.30224e-21)
(1.01256 -0.024472 7.84424e-22)
(1.01305 -0.0254411 -1.42367e-22)
(1.01324 -0.0246021 -2.92354e-22)
(1.16825 -0.00331392 -4.94584e-21)
(1.17146 -0.00791634 -9.21849e-21)
(1.17476 -0.000906248 -5.35183e-21)
(1.01208 -0.0234218 0)
(1.01167 -0.0242925 5.65334e-22)
(-0.0223251 0.0658412 0)
(-0.0316986 0.0515924 -6.06893e-21)
(1.05314 0.0075214 -8.17889e-22)
(1.0541 0.00812593 2.7015e-21)
(1.03066 -0.0243701 -9.14733e-22)
(1.03111 -0.0234436 -1.11851e-21)
(0.992993 -0.133276 3.94612e-21)
(0.993392 -0.137848 0)
(0.989003 -0.13517 -4.0892e-21)
(1.01025 -0.0244281 1.04023e-23)
(1.00995 -0.0252415 9.95085e-22)
(1.35859 -0.187884 -3.05768e-21)
(1.36968 -0.179476 3.21094e-22)
(1.37257 -0.198798 -1.46927e-21)
(1.20811 -0.118971 7.51786e-20)
(1.20396 -0.112587 9.7437e-21)
(1.20009 -0.11949 3.72476e-20)
(1.07 0.170019 5.89352e-21)
(1.06398 0.166413 -1.25349e-20)
(1.06358 0.175223 2.31488e-20)
(1.05879 0.0237165 1.83532e-21)
(1.06014 0.0239742 -7.94579e-21)
(1.01152 -0.00937508 1.59735e-21)
(1.01123 -0.00956072 -2.31869e-22)
(1.01183 -0.00982555 1.37999e-21)
(1.01191 -0.000970917 8.40505e-22)
(1.01203 -0.00147625 1.03759e-21)
(-0.0947945 -0.0505884 0)
(-0.0710068 -0.0531608 3.26007e-20)
(0.0554515 -0.0779272 1.45022e-20)
(0.0747245 -0.0810001 2.82896e-21)
(0.987737 -0.318006 -8.67161e-22)
(0.98108 -0.322691 0)
(0.9893 -0.325331 0)
(1.02611 -0.0207492 0)
(1.02507 -0.0206173 1.30331e-21)
(1.02559 -0.0199164 0)
(1.00643 -0.0419626 -9.51234e-22)
(1.00739 -0.0429717 -2.67599e-21)
(1.0062 -0.0433537 -4.12461e-21)
(-0.0454094 0.135373 4.35079e-21)
(-0.00985024 0.152129 -5.44639e-21)
(-0.0690058 0.135011 -4.27181e-21)
(1.42496 0.197821 -8.5073e-21)
(1.42987 0.185932 5.98857e-20)
(1.4128 0.208546 3.69753e-20)
(0.588832 -0.129356 4.34041e-20)
(0.611189 -0.124067 -1.60568e-20)
(0.60601 -0.151662 -4.86778e-20)
(1.00491 -0.023749 -4.6839e-21)
(1.00438 -0.0224561 -2.90419e-21)
(1.06911 -0.202822 -1.12827e-21)
(1.07118 -0.197289 -4.97888e-21)
(1.06547 -0.199313 -6.10444e-21)
(0.186121 0.224697 -4.52856e-20)
(0.123421 0.206053 4.55452e-21)
(0.16089 0.216678 1.34993e-20)
(1.12346 0.046012 1.39012e-20)
(1.12604 0.0504065 4.83877e-20)
(1.1277 0.0443052 2.11852e-20)
(1.01191 -0.101264 1.30237e-21)
(1.01218 -0.105007 -1.40989e-21)
(1.09372 -0.0970856 -7.32086e-21)
(1.09699 -0.0933528 1.21921e-20)
(1.09187 -0.093394 1.43536e-21)
(1.08147 -0.277779 -8.8079e-21)
(1.07213 -0.283423 -1.55749e-20)
(0.471346 0.310661 -1.1746e-20)
(0.406665 0.290168 1.29167e-20)
(1.14229 -0.193812 2.04328e-20)
(1.14472 -0.186611 -2.49519e-21)
(-0.246346 -0.0726814 -4.42056e-20)
(-0.297543 -0.0616892 2.59001e-20)
(-0.302551 -0.0640969 -4.82067e-20)
(0.704722 -0.0643768 -6.35739e-20)
(-0.0382023 0.144692 1.88354e-20)
(-0.0295235 0.150949 1.98492e-20)
(0.83782 -0.0582694 -1.62694e-22)
(0.82906 -0.0556186 7.77302e-21)
(0.83501 -0.0494058 1.8138e-20)
(1.1151 0.0501563 3.02454e-21)
(1.11142 0.0474345 -2.16555e-21)
(1.11095 0.0520726 2.68415e-21)
(1.14805 -0.340925 3.06653e-20)
(1.15975 -0.336583 3.3673e-20)
(0.964181 -0.0370783 0)
(0.964752 -0.0348974 5.01334e-21)
(0.966287 -0.0362063 -6.44881e-21)
(0.9883 -0.000979464 -1.38609e-20)
(0.987979 -0.00198579 -7.74502e-21)
(0.712522 -0.23152 -6.84088e-20)
(0.69666 -0.242405 4.84039e-21)
(0.716716 -0.24738 6.31584e-22)
(0.83398 -0.186806 5.65987e-20)
(0.777709 -0.188103 -8.31038e-21)
(0.775237 -0.174739 5.27585e-20)
(0.991999 -0.0727443 -6.2387e-23)
(0.991024 -0.0747193 -1.5044e-21)
(0.989228 -0.0728338 -4.39934e-21)
(1.02023 -0.00778858 7.43705e-22)
(1.01955 -0.0078691 2.67442e-22)
(-0.0422927 0.162176 5.82527e-21)
(0.842928 0.0632746 -3.07977e-21)
(0.836768 0.0703152 -2.81002e-21)
(0.823937 0.0561087 6.54599e-22)
(1.06825 -0.207046 -4.91594e-21)
(1.07343 -0.205179 1.38601e-21)
(0.998621 0.0970651 8.15603e-22)
(0.995305 0.0990828 6.16059e-21)
(1.34632 -0.19957 -3.1207e-21)
(1.34442 -0.180903 -2.32823e-22)
(1.21204 -0.125862 -1.6212e-20)
(1.21626 -0.118014 7.84726e-21)
(1.45531 0.0896943 0)
(1.45686 0.0683365 0)
(1.46462 0.0765076 6.517e-20)
(0.967784 -0.0111174 5.08392e-21)
(0.968099 -0.0127327 4.97528e-21)
(0.966344 -0.0125432 -1.39082e-20)
(0.981614 0.00203801 -9.85836e-22)
(0.981251 0.00277483 -3.36963e-21)
(0.982247 0.00305021 5.50913e-21)
(1.00009 -0.00305269 -1.98473e-21)
(0.99999 -0.00306002 -3.15963e-21)
(1.00003 -0.00285509 -5.53597e-21)
(-0.136214 -0.122371 1.66446e-21)
(-0.180361 -0.112462 2.10874e-20)
(1.11271 0.0409011 6.08298e-21)
(1.11119 0.0444714 -2.31376e-21)
(1.11007 0.0408901 2.07629e-21)
(1.05711 -9.16315e-05 2.64e-21)
(1.0575 0.000614867 7.26062e-21)
(1.05819 -0.000213099 4.76711e-21)
(1.00008 -0.000311274 9.45557e-22)
(1.00009 -0.000274579 -1.84754e-22)
(1.00012 -0.000353884 -1.51444e-21)
(0.931931 0.0404901 -1.3481e-21)
(0.928993 0.0419863 -3.14788e-21)
(0.928261 0.0438357 -6.63127e-21)
(1.16564 0.00261763 0)
(1.16201 -0.00452451 0)
(1.00983 0.104932 1.31612e-20)
(1.00612 0.108194 4.36673e-21)
(0.298242 0.0931706 4.61116e-21)
(0.283174 0.0654462 6.67315e-21)
(0.805032 0.16192 2.26297e-21)
(0.796656 0.150608 4.28386e-21)
(0.815968 0.154643 3.00414e-21)
(0.792304 0.170131 -4.53197e-21)
(0.813206 0.173134 -1.74203e-21)
(-0.648619 -0.00163179 2.05346e-19)
(-0.599308 -0.0085257 5.77439e-20)
(0.997192 -0.131106 -2.74319e-21)
(0.992921 -0.128625 5.41899e-21)
(0.500108 0.101538 -2.0291e-20)
(0.505847 0.0912701 3.06212e-20)
(0.434874 0.0916649 -4.5825e-20)
(0.999493 -0.00308685 -5.46828e-21)
(0.999479 -0.00287849 2.5698e-21)
(0.999588 -0.00293821 2.56165e-21)
(1.01189 -0.00919476 6.38237e-24)
(1.01123 -0.00887956 3.56222e-22)
(1.20902 -0.0162326 -1.54124e-20)
(1.21024 -0.0242896 3.90638e-21)
(1.20271 -0.0210954 -1.39705e-20)
(1.00067 -0.000219287 -2.51428e-21)
(1.00061 -0.00027712 1.60767e-21)
(1.00058 -0.000182833 6.17823e-22)
(-0.276068 -0.0467842 8.55703e-20)
(-0.222775 -0.0561977 1.35637e-19)
(1.00241 0.276352 0)
(1.00916 0.266216 -9.15557e-21)
(0.996026 0.26469 0)
(1.00049 0.124128 3.63434e-21)
(1.0018 0.129109 -8.13886e-21)
(0.99577 0.126743 0)
(1.01224 -0.00904297 0)
(1.01249 -0.00949216 7.09189e-22)
(1.06412 0.0295693 -1.32473e-21)
(1.06583 0.0297104 5.31551e-22)
(1.0647 0.0281179 4.75352e-21)
(0.999274 0.119142 -1.33826e-21)
(1.00474 0.121088 1.27533e-20)
(1.41228 0.21577 -6.47531e-20)
(1.41323 0.189015 -5.91562e-20)
(0.98069 -0.378461 0)
(1.00077 -0.12866 -6.35227e-21)
(1.00039 -0.124305 0)
(1.00423 -0.126127 1.1878e-21)
(1.11872 0.0484073 -1.82666e-20)
(1.1196 0.0429578 -1.39302e-20)
(0.179499 -0.0472509 -1.82307e-20)
(0.198938 -0.0694511 -1.32393e-20)
(0.852882 0.0677571 -1.49533e-21)
(0.845696 0.0575848 -1.03339e-21)
(1.11018 0.186703 8.13144e-21)
(1.10986 0.196687 -1.0995e-21)
(0.880213 -0.0409246 0)
(0.876525 -0.0365233 0)
(0.874415 -0.0426312 2.63268e-20)
(0.971346 -0.0145018 1.42373e-21)
(0.971135 -0.0130362 -8.85111e-21)
(0.972582 -0.013178 -8.77786e-21)
(1.0147 -0.0189275 -4.50206e-22)
(1.01463 -0.0196034 0)
(1.01547 -0.0194846 -8.71303e-22)
(0.890673 -0.197668 0)
(0.889293 -0.181923 7.6022e-20)
(1.11645 0.0402729 1.01907e-20)
(1.11359 0.0368998 -5.3021e-21)
(0.212972 0.0574619 -1.06141e-21)
(0.220308 0.0433701 2.69053e-21)
(1.08356 -0.0462249 0)
(1.08633 -0.0481416 0)
(0.992847 -0.0703127 1.81431e-21)
(0.994807 -0.072368 4.90798e-23)
(0.996269 0.0849681 0)
(0.996174 0.0814794 6.05183e-21)
(0.999384 0.0822615 7.07508e-21)
(1.10366 0.182585 -1.2924e-20)
(1.11062 0.177455 0)
(1.04307 -0.0142741 -1.47517e-21)
(1.04402 -0.0147441 1.77676e-21)
(1.04312 -0.0153402 -5.74309e-21)
(1.03751 -0.0350442 -1.24876e-21)
(1.03604 -0.0349742 1.77168e-21)
(1.03691 -0.0337959 8.68082e-22)
(0.684872 -0.0928296 -2.59986e-20)
(0.703264 -0.0976941 -3.77959e-20)
(0.692286 -0.108534 1.98284e-20)
(1.13618 -0.336795 0)
(1.12684 -0.329916 2.88513e-22)
(1.13807 -0.32619 -3.41918e-20)
(-0.318514 0.0116164 -2.92092e-20)
(-0.280114 0.00634086 2.41952e-20)
(-0.26009 0.0118545 0)
(-0.105975 0.116018 -5.37556e-20)
(-0.130382 0.108211 6.82675e-20)
(-0.0510792 0.12039 -7.53678e-20)
(1.10181 0.0265998 1.5241e-20)
(1.10236 0.0304803 -1.13372e-20)
(0.84474 -0.552091 2.27732e-21)
(0.848307 -0.597196 0)
(0.886178 -0.591419 0)
(-0.370753 0.0128285 -2.26421e-20)
(-0.349326 0.0157754 4.61659e-20)
(0.932174 -0.00551784 -4.08897e-21)
(0.934935 -0.00477264 -6.73095e-21)
(0.932723 -0.00238218 3.3901e-21)
(1.08894 0.0558166 5.19754e-23)
(1.09207 0.0550632 -1.50972e-21)
(1.0894 0.0532973 1.79863e-21)
(0.668886 0.185363 4.4157e-21)
(0.679562 0.202087 4.66432e-21)
(0.644051 0.187697 1.2529e-21)
(1.07382 -0.059371 0)
(1.07483 -0.0614106 3.66224e-21)
(1.07194 -0.0612734 8.47153e-21)
(0.996629 0.0699833 -6.02378e-22)
(0.996538 0.0676674 3.8212e-21)
(0.994149 0.0699531 1.66783e-22)
(1.0057 -0.0412621 2.80325e-22)
(1.00659 -0.0410927 6.44862e-21)
(1.13658 -0.350194 2.37103e-20)
(0.999993 -0.000932155 -1.51801e-23)
(1 -0.00103205 2.0103e-22)
(0.999981 -0.0010379 1.35613e-22)
(1.12661 -0.132134 0)
(1.13194 -0.130567 0)
(1.12954 -0.137594 0)
(1.00472 -0.0868628 6.7278e-23)
(1.00712 -0.0879417 7.48082e-23)
(1.00491 -0.0897525 7.07218e-22)
(0.977815 -0.00668688 -6.8653e-22)
(0.97829 -0.0076895 -6.9451e-22)
(1.21012 0.273359 2.02206e-20)
(1.20501 0.286152 -5.87865e-21)
(1.22225 0.286766 0)
(1.04245 -0.0256121 1.79485e-21)
(1.04141 -0.0248123 0)
(1.04279 -0.0242201 -3.34825e-21)
(0.166169 -0.435912 0)
(0.120073 -0.475388 2.10862e-20)
(1.01201 -0.00852588 5.25474e-22)
(1.01267 -0.00887278 5.49478e-22)
(1.19004 0.195825 1.19853e-20)
(1.2019 0.193758 -3.63152e-21)
(1.1923 0.184324 1.24339e-20)
(0.131021 0.0753332 0)
(0.127155 0.0527911 -1.56688e-21)
(-0.294522 -0.0583963 -4.36161e-20)
(-0.29585 -0.0595853 -8.98968e-21)
(-0.235805 -0.0675678 -1.72973e-19)
(0.884487 -0.050711 1.47755e-20)
(0.889537 -0.0506561 8.78688e-21)
(0.886678 -0.0554018 1.64431e-20)
(1.08572 0.0566933 0)
(1.08845 0.0586937 0)
(1.00001 -0.000721468 0)
(1 -0.000587234 0)
(1 -0.000586823 -3.79637e-21)
(0.722473 -0.219921 0)
(0.704488 -0.21338 5.9238e-20)
(0.99819 -0.00717312 -7.08528e-22)
(0.99838 -0.00664151 4.01442e-21)
(0.998527 -0.00721606 -3.24356e-21)
(1.12274 -0.128927 0)
(0.252085 -0.098376 4.84293e-20)
(0.121528 -0.0767673 -1.68488e-20)
(0.172876 -0.0790865 4.10133e-20)
(0.882004 -0.0462353 0)
(0.884993 -0.0406781 2.23343e-20)
(1.07238 -0.0566876 0)
(1.07548 -0.056553 0)
(0.996421 0.00680807 -7.39431e-21)
(0.995996 0.00688618 -3.78797e-21)
(-0.157577 0.109522 1.16846e-20)
(-0.0880565 0.120425 3.08188e-20)
(1.01878 -0.0156017 3.95006e-23)
(1.01846 -0.0148283 0)
(1.02341 -0.44265 -4.94704e-20)
(1.05524 -0.467149 4.44547e-20)
(-0.145636 0.101576 7.40177e-20)
(-0.165625 0.0951352 -1.93058e-20)
(-0.093649 0.104097 1.16729e-21)
(1.07665 -0.262388 -1.79571e-20)
(1.08079 -0.262983 -1.67352e-21)
(1.00008 -0.000347554 9.7573e-22)
(1.00005 -0.000264218 4.76306e-21)
(1.05989 -0.320441 -1.44248e-21)
(1.06788 -0.320226 5.09715e-20)
(1.06637 -0.326018 1.5167e-20)
(-0.245485 0.0658689 3.47631e-21)
(-0.219977 0.0659036 -6.11129e-22)
(-0.204624 0.0860054 2.65647e-20)
(0.901863 0.0709184 -9.96307e-22)
(0.905061 0.0654718 4.68178e-22)
(0.999134 0.07036 -7.61715e-21)
(1.12069 -0.0129799 8.88702e-21)
(1.12146 -0.0172559 -1.04559e-22)
(1.11717 -0.0145407 7.84519e-21)
(0.68514 -0.271491 -1.60224e-20)
(0.680371 -0.254189 5.72515e-20)
(0.663597 -0.26626 -3.47048e-20)
(1.20014 0.261684 3.80655e-20)
(1.21515 0.260881 -8.2911e-22)
(1.06335 0.0310047 -1.30927e-20)
(1.06241 0.0294199 0)
(0.969739 -0.353233 -4.62867e-21)
(0.959428 -0.349592 -1.19391e-21)
(1.00992 -0.145821 -3.6264e-23)
(1.00566 -0.144011 2.65576e-22)
(1.00957 -0.141514 -2.29933e-23)
(0.78929 0.0241599 2.88865e-21)
(0.77705 0.0184992 6.03517e-22)
(0.786622 0.0165092 7.71849e-22)
(1.33284 0.109027 0)
(1.32329 0.123339 4.38398e-20)
(1.31752 0.103657 7.31956e-20)
(1.00732 -0.000573724 8.89794e-22)
(1.00796 -0.000859009 -1.20674e-21)
(1.00752 -0.00122682 3.60703e-23)
(1.08518 -0.0171649 8.10545e-21)
(1.08268 -0.0168813 0)
(1.08366 -0.0193216 -9.00303e-21)
(0.993167 0.087022 -4.60353e-21)
(0.935653 0.037905 -6.40998e-22)
(0.934954 0.0358713 4.10825e-21)
(0.980406 0.00740438 -3.50128e-21)
(0.977217 0.00915787 -1.16e-20)
(0.981953 0.00692673 -7.74267e-21)
(1.01405 -0.0184027 -4.2448e-22)
(1.0148 -0.0183971 3.15363e-22)
(0.569968 -0.140684 7.38447e-20)
(0.989431 -0.00260116 -3.91526e-21)
(0.98978 -0.00311021 -3.74434e-21)
(0.990076 -0.00226592 -7.7885e-21)
(1.08828 0.23902 1.06294e-20)
(1.09805 0.243825 2.16718e-20)
(1.09669 0.232185 6.36212e-22)
(1.43856 0.164344 4.5695e-20)
(1.44524 0.145631 -1.87149e-20)
(1.44027 0.153387 3.02269e-20)
(1.08712 -0.0179461 9.00231e-22)
(1.08624 -0.0159457 5.79787e-21)
(1.16342 0.00720949 0)
(1.16911 0.00886129 0)
(1.34403 0.0999179 0)
(1.34864 0.118991 9.99028e-20)
(0.993193 -0.0193311 -4.51433e-21)
(0.993734 -0.0204013 -8.96544e-21)
(0.993892 -0.0188998 -2.0538e-21)
(0.790948 -0.0897549 -3.27968e-20)
(0.780579 -0.0835853 6.73766e-20)
(1.02153 0.107264 -9.51813e-21)
(1.01699 0.106386 -8.24586e-21)
(1.02051 0.102971 -3.64578e-22)
(1.06892 0.323967 -1.63029e-20)
(1.04901 0.306423 -6.43703e-20)
(1.12119 0.322803 -3.4844e-20)
(0.995935 -0.000882742 -4.05465e-21)
(0.996321 -0.000899699 2.57921e-21)
(0.996171 -0.00051552 -1.73202e-21)
(0.97857 -0.00565894 1.19154e-20)
(0.977245 -0.0058247 8.88277e-21)
(0.878807 -0.0516759 0)
(0.691022 0.259026 1.29536e-21)
(0.712873 0.254112 0)
(0.725219 0.273686 0)
(-0.123519 -0.0480595 0)
(-0.154139 -0.0440356 3.04349e-20)
(-0.127128 -0.0499927 -4.15144e-20)
(1.1381 0.0361497 -9.12058e-21)
(1.13688 0.0324901 -2.4679e-20)
(1.14141 0.0330502 -1.11765e-20)
(1.02702 -0.0208743 0)
(1.02653 -0.0216441 5.47904e-22)
(1.4027 0.227153 -9.25418e-21)
(1.40103 0.23704 4.7008e-20)
(1.45325 0.109154 -8.27713e-21)
(1.4496 0.128723 -4.95317e-20)
(1.45553 0.11602 -6.47641e-20)
(1.09067 0.166176 -5.70471e-21)
(1.08342 0.162238 -3.48426e-21)
(1.08929 0.15851 1.17916e-20)
(1.16065 0.012751 2.41782e-20)
(1.15777 0.00613041 0)
(0.670465 0.262876 1.13274e-21)
(0.656339 0.242505 -4.1168e-21)
(-0.596314 0.0375353 1.44328e-20)
(-0.588911 0.037587 5.31298e-20)
(-0.653918 0.0320933 5.28815e-20)
(1.0904 -0.0279884 1.62419e-20)
(1.09089 -0.0304446 5.12248e-22)
(1.09293 -0.0280594 2.5519e-20)
(1.09831 0.0196842 -9.41146e-21)
(1.10039 0.0211285 -1.40858e-20)
(1.09707 0.0221028 -2.62223e-20)
(1.11228 -0.269325 -9.40783e-21)
(1.08738 -0.258588 4.44829e-22)
(1.02193 -0.234177 -1.13109e-20)
(1.0154 -0.0240823 1.11157e-21)
(1.01575 -0.0250969 1.56749e-21)
(1.01456 -0.0242607 -1.59852e-21)
(1.00017 -0.00301431 3.63556e-21)
(1.00025 -0.00298102 1.2201e-22)
(1.00018 -0.00280795 0)
(1.09716 0.169828 1.32867e-20)
(1.08992 0.17424 1.98678e-20)
(1.10737 -0.188955 0)
(1.11051 -0.183517 0)
(1.1042 -0.184129 -1.34873e-20)
(1.01959 -0.0157601 3.66232e-23)
(1.0203 -0.0159344 1.40672e-23)
(1.01992 -0.0152682 0)
(1.00003 -0.00105921 4.98636e-21)
(1.00001 -0.00105431 -1.60428e-21)
(1.00001 -0.000964589 -3.36386e-21)
(0.998014 -0.00756509 1.61739e-21)
(0.997921 -0.00698604 -2.65623e-21)
(1.00232 -0.000436368 -7.42033e-22)
(1.00251 -0.000465093 4.1852e-21)
(1.00234 -0.000261408 1.66038e-21)
(1.11098 -0.000615081 8.40597e-21)
(1.11445 -0.000430346 -1.1667e-21)
(1.11247 0.00286968 1.17941e-21)
(1.00016 -0.00325297 9.67296e-21)
(0.689862 0.18091 -1.74515e-21)
(0.719478 0.191963 6.13703e-23)
(1.14035 0.0249414 7.75557e-21)
(1.1356 0.027935 -1.07005e-20)
(1.00461 -0.0326354 -2.87549e-21)
(1.00382 -0.0322698 -2.99999e-21)
(1.00429 -0.0334324 1.32987e-21)
(0.939924 0.0340806 -4.64349e-21)
(-0.0410751 0.135204 -7.12597e-21)
(-0.0817128 0.122767 2.03404e-21)
(0.970079 -0.00690977 -4.7321e-21)
(0.97033 -0.00844358 -9.95258e-21)
(0.97153 -0.00717348 -4.34183e-21)
(1.18761 0.208304 0)
(-0.668789 0.0120805 0)
(-0.724187 0.0154302 -9.64404e-20)
(-0.669885 0.0131926 0)
(0.962179 -0.0380588 0)
(0.964222 -0.0392456 1.40278e-21)
(0.969702 -0.00540308 1.92497e-20)
(0.968259 -0.00686179 -7.52292e-21)
(1.14491 0.0237976 1.67597e-20)
(1.1442 0.0294331 -2.71883e-21)
(0.0508211 0.0663157 -3.42826e-23)
(0.0208645 0.0671084 -8.20411e-21)
(0.0700215 0.0904185 0)
(0.31929 -0.252129 0)
(0.267886 -0.250289 0)
(0.306632 -0.246663 1.80209e-20)
(1.21397 0.0163836 0)
(1.2226 0.0142236 2.13626e-20)
(1.21548 0.00919362 0)
(1.00134 -0.000291991 9.61829e-22)
(1.00128 -0.000414205 -2.20964e-21)
(0.500212 0.112717 8.33468e-20)
(0.566512 0.110538 0)
(0.999394 -0.00323919 2.4728e-23)
(1.23077 0.0123296 2.10981e-20)
(1.23366 0.00357218 0)
(1.24115 0.0107176 0)
(-0.671754 0.0120991 -1.26724e-19)
(-0.619879 0.0111012 1.34887e-19)
(1.09262 0.350395 -5.89121e-21)
(1.08101 0.337593 -8.03155e-21)
(1.14548 0.353598 4.00915e-20)
(1.05666 -0.00117636 -6.83827e-21)
(1.05593 -0.000310009 -6.09625e-22)
(1.12095 -0.284358 -2.47678e-20)
(1.12012 -0.28447 -2.15073e-20)
(1.08698 -0.28258 1.73998e-20)
(1.07718 -0.285397 -6.39401e-21)
(1.07948 -0.280559 -1.03541e-20)
(-0.0029014 -0.153116 -1.7023e-20)
(-0.0114336 -0.192978 8.45442e-21)
(-0.00704623 -0.158764 1.64227e-20)
(1.33622 -0.209464 -1.85399e-21)
(1.3229 -0.202576 0)
(1.32457 -0.218777 -4.77053e-20)
(0.770647 -0.0569107 -2.27547e-20)
(0.772422 -0.0460622 0)
(0.759906 -0.048736 0)
(-0.196648 -0.0826584 1.46692e-21)
(-0.18951 -0.0796818 1.19575e-21)
(0.0255048 0.16811 -2.207e-20)
(0.0558023 0.181283 0)
(-0.00122881 0.164678 3.94332e-20)
(1.01802 0.220162 0)
(0.946691 0.210843 0)
(1.03889 -0.0352321 2.71756e-21)
(1.03795 -0.0365409 -2.96925e-21)
(0.121114 0.0781641 -1.64149e-20)
(0.0478755 0.118758 -1.86241e-20)
(0.0618597 0.111849 -4.15981e-20)
(0.748084 0.00430666 6.66379e-22)
(0.750067 0.00278109 0)
(0.458999 -0.356198 2.46089e-20)
(0.426975 -0.331973 -1.29646e-22)
(0.42993 -0.376055 2.27942e-20)
(0.48873 -0.337731 2.82993e-20)
(0.496504 -0.378676 -2.00703e-20)
(0.93004 -0.00647335 3.25158e-20)
(0.931239 -0.00819291 8.99214e-21)
(1.22158 -0.00674435 -1.48319e-20)
(1.21537 -0.0114957 -3.08847e-20)
(1.22377 -0.0146703 -1.66024e-20)
(0.91896 -0.101979 9.3529e-21)
(0.923013 -0.0985116 4.88574e-21)
(0.924233 -0.104316 1.47726e-20)
(0.922486 0.0122933 -7.3874e-23)
(0.918621 0.00771083 1.65581e-21)
(0.770717 -0.102103 -6.08931e-20)
(0.770554 -0.0892488 2.57896e-20)
(0.756697 -0.0962645 -3.5156e-20)
(1.0054 -0.00157592 1.50954e-21)
(1.00536 -0.00189222 -4.45746e-22)
(1.00573 -0.00181679 -9.66757e-22)
(1.0198 -0.000425677 -5.90291e-22)
(1.01975 -0.00038366 6.49226e-22)
(1.05281 -0.100207 -2.98783e-21)
(1.05562 -0.102081 -6.69789e-21)
(1.05184 -0.103295 -2.28307e-21)
(0.0305406 -0.154862 -1.07674e-21)
(0.0103178 -0.121753 -3.33805e-20)
(0.232246 -0.463271 4.86109e-20)
(1.0161 -0.0239173 -7.62413e-22)
(1.01505 -0.0232893 3.43249e-23)
(-0.347482 -0.0462157 4.0801e-21)
(0.90923 -0.0967824 -3.5296e-20)
(0.914545 -0.099843 6.87934e-22)
(0.913623 -0.0935454 2.7298e-20)
(1.09111 -0.0999691 9.12428e-21)
(1.09561 -0.0999245 -7.68745e-21)
(1.05822 0.00145191 2.46941e-21)
(1.05714 0.00144536 -2.31536e-21)
(0.0657127 0.058342 -4.10277e-23)
(0.0312561 0.0510409 -1.41414e-23)
(1.38643 0.241516 9.15673e-20)
(1.38507 0.217505 0)
(0.993301 0.0808665 7.62715e-21)
(1.00459 -0.0834582 -5.8925e-21)
(1.00216 -0.0850035 4.54485e-21)
(1.07093 -0.0546702 1.42937e-21)
(1.06955 -0.0568877 5.87565e-21)
(0.955225 0.0284616 1.94748e-21)
(0.956814 0.0277985 -1.86104e-20)
(0.959821 0.0261315 -9.52737e-21)
(0.970266 -0.0158869 2.33006e-22)
(0.971792 -0.01594 7.95872e-21)
(1.42156 0.103166 7.94123e-20)
(1.08782 -0.0274645 4.48935e-22)
(1.08989 -0.0249904 -4.90292e-21)
(1.14551 0.0189468 5.5686e-21)
(1.14988 0.0235777 -3.39016e-20)
(0.905417 -0.100918 -3.92847e-21)
(0.903614 -0.0944041 -1.58363e-20)
(0.988766 -0.00299848 -4.52935e-21)
(1.00572 -0.0331975 0)
(1.00507 -0.0318419 -2.35571e-21)
(1.18813 -0.274831 1.45233e-20)
(1.17829 -0.276352 9.36276e-21)
(1.18502 -0.285392 -5.95947e-20)
(1.08005 -0.27232 0)
(1.08233 -0.270177 -2.04073e-20)
(1.31364 0.132114 -7.77988e-21)
(1.30381 0.142004 9.15126e-21)
(1.30064 0.125063 -1.30028e-19)
(1.092 -0.274537 2.25237e-20)
(0.953822 0.0291266 8.32032e-21)
(0.950691 0.0306829 1.28633e-20)
(0.992671 -0.0764291 0)
(0.990296 -0.0766502 2.83556e-21)
(-0.198069 0.0977539 8.19892e-20)
(1.11032 0.275323 3.11353e-21)
(1.09862 0.269216 3.42205e-21)
(1.09715 0.283461 -8.10308e-22)
(1.02629 -0.0117706 1.49679e-21)
(1.02636 -0.0110395 -1.62218e-21)
(1.02563 -0.0113209 -8.1679e-22)
(1.08832 0.3638 2.25139e-21)
(1.03854 0.355045 -1.4589e-21)
(1.18182 0.124995 0)
(1.1741 0.130044 -3.41245e-20)
(1.1841 0.132697 2.94354e-20)