/*--------------------------------*- C++ -*----------------------------------*\
| =========                 |                                                 |
| \\      /  F ield         | OpenFOAM: The Open Source CFD Toolbox           |
|  \\    /   O peration     | Version:  v2012                                 |
|   \\  /    A nd           | Website:  www.openfoam.com                      |
|    \\/     M anipulation  |                                                 |
\*---------------------------------------------------------------------------*/
FoamFile
{
    version     2.0;
    format      ascii;
    class       volScalarField;
    location    "100";
    object      nut;
}
// * * * * * * * * * * * * * * * * * * * * * * * * * * * * * * * * * * * * * //

dimensions      [0 2 -1 0 0 0 0];


internalField   nonuniform List<scalar> 
13851
(
0.00530839
0.00609111
0.00070502
0.00625441
0.002001
0.00683848
0.00673442
0.00124713
0.00686294
0.000502373
0.00815077
0.00414809
0.000203843
0.016699
0.0067224
0.0015612
0.00399166
0.00627629
0.000847049
0.00685075
0.00674217
0.00076304
0.00679326
0.00698263
0.00678901
0.00119579
0.00456435
0.000257929
0.00606399
0.00649403
0.00678493
0.00362219
0.000748135
0.0154417
0.0069181
0.00157825
0.000974453
0.000491188
0.000540473
0.0139273
0.0067912
0.00676102
0.00188444
0.0119096
0.0119714
0.00560681
0.0126713
0.0143278
0.00444429
0.00630423
0.00331659
0.00184706
0.00315024
0.0067573
0.00686905
0.00676682
0.00687951
0.00524723
0.00671511
0.00674275
0.000509447
0.00458397
0.00168721
0.00221614
0.014585
0.00377401
0.000878283
0.0132036
0.00302726
0.00629301
0.00126153
0.000694965
0.00166858
0.00676467
0.00673256
0.00694044
0.0008996
0.00158676
0.0022696
0.00159131
0.00677026
0.018415
0.00672351
0.00485229
0.00165067
0.00358119
0.00456573
0.0147812
0.00355278
0.00695455
0.00157185
0.00200486
0.0138673
0.00310581
0.00439636
0.00703988
0.00205319
0.00455784
0.00624582
0.00706123
0.0123844
0.00313132
0.00679773
0.00409811
0.006966
0.00462203
0.00379271
0.00671948
0.000175914
0.007853
0.00705592
0.00694354
0.00328991
0.00708273
0.00702691
0.0108485
0.00521158
0.00672427
0.00696755
0.00690145
0.0017008
0.00435252
0.000451904
0.0154457
0.0144715
0.00672869
0.0146847
0.00252058
0.00676001
0.00107097
0.00678639
0.00674314
0.00172792
0.00672264
0.0140339
0.00674834
0.00672608
0.00071938
0.00690241
0.0165659
0.011791
0.00686704
0.00649054
0.00691307
0.0064959
0.0126956
0.00556174
0.00093843
0.00673304
0.0105339
0.00319281
0.00688336
0.0166746
0.00687891
0.00547526
0.00655361
0.00684046
0.00676949
0.00185148
0.00336739
0.0068114
0.00342181
0.00542996
0.00674046
0.00335276
0.00684506
0.00522055
0.00308134
0.00676783
0.00192918
0.00123281
0.00675706
0.00683803
0.016002
0.00673555
0.0130991
0.00250235
0.00653665
0.000808511
0.00673067
0.00338719
0.000931409
0.00672049
0.000757635
0.00670198
0.00686951
0.00369101
0.00681681
0.00147149
0.000748046
0.0133084
0.00446793
0.0068937
0.00277495
0.0042118
0.0067996
0.00658754
0.0108812
0.00658304
0.00693578
0.00672697
0.00437015
0.00700244
0.00673063
0.000571345
0.00672154
0.0041338
0.00416077
0.00473629
0.00675379
0.00291172
0.00680033
0.012059
0.00671274
0.00688766
0.00628632
0.00145939
0.00636463
0.00671373
0.00490701
0.00402107
0.00677505
0.00385717
0.00190146
0.00415329
0.00683337
0.00280675
0.00697629
0.00712183
0.0067151
0.00128644
0.00536775
0.00675002
0.00690787
0.00368372
0.00132899
0.00413184
0.0163605
0.00691021
0.00673079
0.00615272
0.00533972
0.00691364
0.00058037
0.00691821
0.0049676
0.00298408
0.0128626
0.0061934
0.00342335
0.00603107
0.0059355
0.00678201
0.00642488
0.00420846
0.010375
0.000751656
0.00092784
0.000187148
0.00671653
0.00689282
0.00639736
0.0114854
0.00695339
0.000385244
0.00679961
0.00678024
0.00359116
0.00316551
0.00586145
0.00610632
0.00656276
0.0137191
0.00228448
0.00163176
0.00674757
0.0186577
0.00582936
0.00346262
0.00792959
0.00691713
0.00673673
0.00697446
0.00415708
0.00997261
0.0086
0.00690772
0.00671302
0.0130987
0.016158
0.000880294
0.00673653
0.00674466
0.00284026
0.0168448
0.000508073
0.00317126
0.00503099
0.00675583
0.00474912
0.00365505
0.00407471
0.00324263
0.00679302
0.00472922
0.00464161
0.006896
0.00329634
0.0029306
0.00674786
0.00578481
0.0029053
0.00678049
0.00450618
0.00678501
0.00324917
0.00662365
0.00247353
0.00208898
0.00671383
0.00359211
0.00671354
0.000708902
0.0055081
0.00679856
0.00688368
0.00213396
0.00301635
0.00679947
0.00671291
0.00679029
0.00677954
0.00979959
0.0160567
0.00276378
0.00289005
0.00236797
0.00459202
0.00671862
0.00270328
0.000707852
0.00451192
0.00112831
0.00211798
0.000628063
0.00631798
0.00739917
0.00463776
0.00672717
0.00552483
0.00551353
0.000578817
0.00623726
0.00110756
0.00725736
0.00684672
0.00730361
0.00688722
0.00671326
0.00688179
0.00671971
0.00681021
0.00416136
0.00878755
0.00674113
0.00342422
0.00681406
0.00730807
0.00107139
0.00587072
0.00293463
0.00674483
0.0016803
0.0029669
0.0078644
0.0067816
0.00672943
0.00444186
0.0114851
0.00677646
0.00528629
0.00360543
0.00198367
0.0014946
0.00458575
0.00443554
0.0062411
0.00674116
0.00680429
0.00341449
0.00373256
0.0173477
0.00298605
0.00344255
0.00457399
0.00681958
0.00671707
0.00244866
0.00222988
0.00430748
0.00482513
0.00481158
0.00283739
0.00703768
0.00332419
0.00680925
0.0015271
0.00627244
0.00673103
0.00700111
0.00689325
0.006839
0.00253017
0.00109559
0.00138122
0.00575354
0.00377236
0.00375995
0.00594669
0.00303891
0.000497096
0.0043898
0.0060762
0.0067214
0.00688116
0.00688508
0.000353735
0.00715103
0.0018605
0.0035758
0.000757328
0.0162357
0.00450189
0.0069485
0.00360412
0.00677607
0.00616488
0.00693481
0.000550874
0.00708342
0.000722901
0.0041684
0.00649056
0.00571471
0.00715266
0.0118329
0.00669126
0.00263321
0.00252637
0.00562677
0.00677125
0.00678259
0.00337069
0.00198272
0.00319252
0.0161456
0.00683828
0.00688077
0.00533833
0.00309242
0.00672653
0.0124719
0.00673972
0.00530433
0.00678967
0.00104135
0.00678241
0.00674403
0.00654201
0.00418347
0.00672498
0.0031345
0.00673741
0.00592516
0.00519369
0.00707021
0.00681644
0.00709054
0.00710931
0.00759448
0.0067769
0.00514581
0.00671956
0.00698431
0.0137994
0.00382402
0.00672245
0.00586902
0.00283436
0.00621207
0.00593966
0.00687775
0.00788875
0.00678111
0.0013844
0.00673654
0.00849762
0.00672299
0.00270857
0.000765788
0.00676737
0.00585753
0.00446813
0.00117804
0.0147023
0.00692634
0.0109247
0.00690148
0.00673484
0.00676008
0.00672877
0.00344473
0.0036786
0.00190628
0.000801593
0.00145571
0.00682568
0.00280972
0.00736423
0.00324628
0.00315489
0.00584659
0.0131728
0.00196563
0.00682854
0.00867336
0.00416941
0.00459196
0.00306993
0.00533323
0.0171672
0.00556932
0.0106121
0.0119416
0.00192122
0.00675939
0.00200452
0.000607859
0.00671828
0.00591436
0.00358511
0.00249772
0.00615832
0.0067203
0.00683121
0.0067542
0.00166941
0.00141416
0.0149265
0.0160653
0.00674332
0.00421074
0.0040561
0.00423801
0.00726399
0.0030095
0.0067116
0.00687737
0.0093699
0.00346116
0.00661917
0.00273013
0.00158044
0.00676081
0.00420335
0.0126015
0.000414115
0.00212802
0.00362781
0.000603788
0.00678684
0.0067315
0.0108256
0.00469706
0.00197624
0.00288644
0.00198083
0.0067274
0.00673164
0.000596303
0.00674859
0.00626645
0.0067259
0.0067246
0.00027457
0.00196074
0.00272332
0.00674422
0.00550004
0.010628
0.00675584
0.00685549
0.00694557
0.0067962
0.0104233
0.0126855
0.0125552
0.00503288
0.0108249
0.00311011
0.00141558
0.00412747
0.00584981
0.00296348
0.0067119
0.00663057
0.0014781
0.00346872
0.007092
0.00276902
0.00261181
0.00683053
0.00152172
0.00658588
0.011978
0.00333612
0.00671856
0.00307395
0.00676519
0.00377558
0.00157753
0.00673952
0.00677608
0.00113121
0.00674535
0.00177393
0.000424031
0.0019926
0.00147136
0.00190624
0.00681813
0.00276793
0.00572243
0.00540598
0.00680237
0.00703148
0.000289223
0.00671872
0.00148697
0.004898
0.00891797
0.0106127
0.00679743
0.00091405
0.00693611
0.00672914
0.00671842
0.00672676
0.0066276
0.004735
0.00124464
0.0067345
0.00454965
0.000829332
0.00504832
0.00683121
0.00672363
0.00680233
0.000724218
0.00447177
0.00425522
0.00340116
0.00692818
0.00701205
0.00681933
0.00686412
0.00110413
0.00988102
0.00674284
0.00673112
0.00672904
0.00686018
0.00057014
0.00513702
0.00151602
0.00527122
0.0112344
0.00677082
0.00193131
0.0122466
0.00289037
0.00381866
0.00676995
0.00636757
0.00369524
0.00633321
0.01177
0.00672143
0.0172837
0.0069502
0.00311254
0.00480754
0.00695103
0.00675584
0.00193845
0.00674066
0.0035649
0.0119197
0.0173461
0.00342134
0.000479649
0.00588609
0.00671656
0.00681987
0.0132356
0.00161841
0.00113962
0.00468409
0.00690456
0.00691214
0.00672254
0.0106723
0.000795007
0.00420645
0.00681791
0.00523477
0.00457915
0.00679906
0.00355736
0.010609
0.00501657
0.00677901
0.00674065
0.00157325
0.00178442
0.0017105
0.00666837
0.00011896
0.00672262
0.00556238
0.000448707
0.000663086
0.00411118
0.00810492
0.00626706
0.00659353
0.000999977
0.00701209
0.00681895
0.00677697
0.00681305
0.00448463
0.0018351
0.00210953
0.00276384
0.00565793
0.00683592
0.0128698
0.00692464
0.00624919
0.00674342
0.00676619
0.00678632
0.00475387
0.00681961
0.00674145
0.0143056
0.00673364
0.00269297
0.00688672
0.00655826
0.00342305
0.000520278
0.00801076
0.00675715
0.0137822
0.00474634
0.00677912
0.00318974
0.00301759
0.00679842
0.00602637
0.0024713
0.0106107
0.00332256
0.00675388
0.00672328
0.0072892
0.000559277
0.000801566
0.00372159
0.00611438
0.00680392
0.00658524
0.00276233
0.00921129
0.00137509
0.0080734
0.00673895
0.00148377
0.00289924
0.00194141
0.00435116
0.00465139
0.000955152
0.00673411
0.0026412
0.00248929
0.00532032
0.018032
0.00500338
0.00623279
0.00118558
0.00680273
0.003143
0.00558504
0.0029151
0.00690168
0.00694446
0.00357393
0.0154611
0.00676803
0.00301115
0.00688807
0.00673592
0.00555897
0.00154692
0.00594784
0.00673044
0.0067133
0.00256528
0.00113775
0.00209674
0.00665044
0.00355614
0.000446705
0.00473423
0.00360849
0.00338317
0.00678239
0.00673474
0.001072
0.00345613
0.00184477
0.005201
0.00329015
0.00395876
0.0050392
0.00332842
0.00672503
0.0031591
0.00675301
0.00141723
0.00676127
0.00555149
0.00438925
0.00535803
0.00676153
0.00349444
0.00674545
0.000425696
0.00342094
0.00322454
0.00524637
0.00400242
0.000957089
0.00701263
0.00350375
0.0120403
0.00150974
0.00615644
0.00125408
0.006956
0.0189995
0.00814707
0.00676519
0.00344165
0.0122373
0.00312357
0.00516486
0.00526829
0.00688539
0.00482271
0.00692457
0.0116407
0.00480284
0.00682005
0.00622766
0.000457209
0.0107257
0.00624017
0.00674518
0.00680515
0.0032551
0.00476713
0.00211878
0.00363233
0.00672052
0.00715967
0.00787737
0.00280706
0.00674387
0.00108612
0.00673651
0.00700993
0.00465544
0.00707112
0.000580985
0.00626142
0.0067388
0.00644905
0.00688832
0.00677564
0.00144748
0.00417869
0.00268608
0.0044036
0.00674206
0.0025741
0.00688817
0.00673887
0.00677588
0.00673838
0.00293619
0.00672339
0.00442965
0.00672621
0.00334581
0.00459552
0.00167409
0.00693672
0.0117409
0.000731044
0.000890734
0.00161038
0.00199925
0.00120852
0.00326825
0.00141992
0.0053956
0.0139519
0.00380627
0.00160951
0.00966848
0.00680447
0.00315609
0.00346146
0.00554919
0.00680725
0.0110228
0.00681796
0.00683178
0.0171689
0.00675075
0.000578836
0.00365211
0.00676326
0.00415166
0.00675942
0.00671323
0.00693279
0.00676457
0.00113601
0.00682043
0.00114157
0.00771174
0.000615034
0.0158087
0.00673272
0.00697369
0.00652754
0.00675881
0.00675048
0.00303213
0.00676848
0.00690645
0.00681408
0.00679926
0.00272416
0.010901
0.00159528
0.00510697
0.00108451
0.0067331
0.00987778
0.00241224
0.00680993
0.0124002
0.00280149
0.0138353
0.00673733
0.0129261
0.0101592
0.00796046
0.00673239
0.000341421
0.00209219
0.00458802
0.00690353
0.00689233
0.00410417
0.00257565
0.00736959
0.00695214
0.00672243
0.0148081
0.00676507
0.00049747
0.00729085
0.0109284
0.000887026
0.0100266
0.00693033
0.00674898
0.00138799
0.00587436
0.00453699
0.000405721
0.00167858
0.00677308
0.00673301
0.0140912
0.00691354
0.00283603
0.000936679
0.0142913
0.00129343
0.00682429
0.00694735
0.00682302
0.00681373
0.00713305
0.00673683
0.00705493
0.00695779
0.00311103
0.00680408
0.006953
0.00677893
0.00269095
0.000904359
0.00131755
0.00413661
0.00679064
0.0035929
0.00102246
0.00679274
0.00205812
0.00110429
0.00299254
0.0068687
0.00323716
0.00672218
0.00680095
0.0068238
0.001671
0.00208342
0.00740986
0.00465187
0.00541565
0.00672016
0.00697453
0.00680187
0.00923272
0.00804219
0.00679448
0.0027346
0.00109909
0.00391124
0.00709036
0.00711414
0.00655603
0.00452678
0.000546479
0.0017907
0.00271806
0.00303349
0.000351242
0.00435
0.0112836
0.00371434
0.00688181
0.000677693
0.00679815
0.00609927
0.00328567
0.00675359
0.00431197
0.00216467
0.00321471
0.00617075
0.00148264
0.0105883
0.00671361
0.00516027
0.00379607
0.00695612
0.00269865
0.00402014
0.0121417
0.0129488
0.00672168
0.00351614
0.00658977
0.0136098
0.00459103
0.00124433
0.00694849
0.00676053
0.00891676
0.00114584
0.00154074
0.00497745
0.00597586
0.00686025
0.000772446
0.00255593
0.00224501
0.00297205
0.00319497
0.00970014
0.00110716
0.00337135
0.00679313
0.00598551
0.00673387
0.00381639
0.001098
0.00402702
0.00514378
0.00381101
0.00174101
0.00679933
0.002797
0.00109632
0.00682172
0.00630474
0.00498447
0.0061186
0.000188008
0.00678052
0.00675127
0.00149689
0.0010223
0.00838611
0.00685595
0.00673037
0.00674167
0.00285018
0.0017822
0.00676404
0.00442663
0.000561751
0.00449665
0.000826009
0.00739329
0.00671833
0.000154321
0.00391326
0.00681891
0.00176571
0.00485076
0.00673597
0.00682801
0.0010488
0.00275718
0.00678339
0.00672223
0.012204
0.00682716
0.0100271
0.0067216
0.0117088
0.00675546
0.00436746
0.0146888
0.00421639
0.00679949
0.00150681
0.00644526
0.00429457
0.000657677
0.00425166
0.0059705
0.00672837
0.00110324
0.00707549
0.00671378
0.00695839
0.0134663
0.00677091
0.00101845
0.00682983
0.00655729
0.00162491
0.00066924
0.000467306
0.00679243
0.00636025
0.00675483
0.00329133
0.000928292
0.0136574
0.00674357
0.00358871
0.0112748
0.00680272
0.00690669
0.00485988
0.00280542
0.00132015
0.00191386
0.0185998
0.00536154
0.000759512
0.000394654
0.00608714
0.00684348
0.00736224
0.011724
0.00359941
0.0067805
0.00198494
0.00673037
0.00674776
0.0121252
0.00484614
0.00674979
0.0178884
0.00253564
0.00256203
0.00317819
0.00444904
0.00676001
0.0024557
0.00602465
0.0068846
0.00680052
0.00421101
0.00520019
0.0095222
0.00184799
0.00114283
0.00544162
0.00389069
0.00311883
0.00678986
0.00680482
0.0180061
0.0067439
0.00110198
0.00685195
0.00678747
0.00673766
0.0011513
0.00182565
0.00996314
0.0068189
0.000745115
0.00485016
0.00264022
0.00672697
0.00681968
0.00453336
0.00282711
0.00420426
0.00187631
0.00373555
0.00216075
0.00671912
0.000982248
0.00678117
0.00182085
0.00659208
0.00679525
0.00682122
0.00687524
0.00166062
0.00678957
0.00147092
0.00687298
0.00140067
0.000476841
0.00153856
0.00683434
0.00292953
0.0069509
0.00202863
0.00667896
0.00454953
0.000807967
0.00302644
0.00485115
0.00682964
0.00629435
0.00677484
0.00530007
0.00671299
0.00694726
0.00660861
0.00477758
0.00338578
0.00427262
0.00383735
0.00680777
0.00367026
0.00499784
0.000329589
0.00281049
0.00673215
0.0059987
0.00678143
0.00691666
0.00131811
0.00534999
0.00689807
0.0025442
0.00595548
0.000688902
0.00676563
0.00678561
0.0052688
0.00679879
0.00620638
0.00106677
0.000940153
0.00676054
0.00661997
0.00672667
0.00434252
0.00196278
0.00136507
0.00210465
0.0105196
0.00679918
0.000691092
0.00132103
0.00682394
0.00106159
0.00298952
0.00683583
0.00402957
0.00673652
0.00689728
0.00685577
0.00149998
0.00586138
0.00164017
0.00679322
0.00679538
0.00370992
0.00869504
0.00101082
0.00172421
0.0105486
0.00678206
0.00194656
0.000800271
0.00599402
0.000548128
0.0164759
0.00674505
0.00356867
0.00689467
0.00907714
0.00129951
0.00672659
0.0124353
0.000710414
0.00201716
0.00625212
0.00676043
0.00681475
0.000689499
0.00169807
0.0143234
0.00329174
0.000718179
0.000604552
0.000980031
0.00285137
0.00117348
0.00208372
0.0068435
0.00688692
0.00120189
0.0112906
0.00487831
0.00520356
0.00695492
0.00162929
0.0107998
0.00694225
0.00342527
0.00672399
0.00316339
0.00340873
0.00621366
0.00448616
0.00103992
0.00680064
0.00496696
0.00116502
0.00671702
0.00291839
0.00857268
0.00556739
0.00490756
0.00320967
0.0067124
0.00690047
0.00689958
0.00374034
0.00298708
0.00432603
0.00264513
0.00193645
0.00654729
0.00142125
0.000673251
0.00682858
0.00682137
0.00688171
0.00292945
0.0067487
0.00163758
0.00126995
0.0016448
0.000541326
0.00116483
0.00186398
0.000466199
0.00314016
0.00682789
0.00662098
0.000750703
0.000914684
0.00470504
0.00672408
0.00676441
0.00091401
0.0020412
0.00176831
0.00411442
0.00600826
0.006872
0.00208651
0.00586493
0.00128718
0.0105804
0.00672382
0.00334558
0.00682291
0.00375312
0.00689409
0.00534394
0.00687468
0.00673273
0.00230865
0.00679039
0.00171881
0.00275583
0.0032411
0.00659399
0.00519906
0.00378448
0.0023163
0.00675507
0.000601846
0.00835365
0.00684496
0.00691501
0.0116566
0.00671533
0.00372814
0.00694332
0.00343391
0.00067277
0.0106458
0.0013563
0.00673143
0.00672971
0.00339893
0.00380779
0.00673044
0.00763287
0.0171267
0.0100693
0.00114723
0.00156046
0.00282628
0.0036206
0.000582215
0.00671912
0.00982121
0.00990711
0.00527132
0.00836955
0.00502006
0.00671235
0.00602306
0.00683697
0.000871051
0.0129678
0.00458636
0.00624334
0.002834
0.00268539
0.00969521
0.00136036
0.00677271
0.00673928
0.00425605
0.00338879
0.00341959
0.0070685
0.00680573
0.00673302
0.00676157
0.00500505
0.00116267
0.00188079
0.009108
0.000482223
0.0067943
0.0067236
0.00692831
0.00595968
0.00540872
0.00112392
0.00367793
0.00694703
0.00984517
0.000612019
0.00268615
0.00196897
0.00202516
0.00297189
0.00335969
0.00617594
0.00672131
0.00707935
0.00336493
0.00992054
0.00896577
0.00483067
0.000840822
0.00558708
0.00629492
0.00416208
0.00678551
0.00265623
0.0115265
0.0119443
0.00358994
0.00529059
0.00673436
0.00676022
0.0067132
0.00688478
0.00340432
0.00226111
0.00358263
0.00163955
0.00551373
0.000478003
0.00474496
0.00560811
0.00374609
0.00838448
0.00109228
0.0143038
0.00469646
0.00673251
0.00435304
0.00299628
0.0101194
0.00234279
0.00136042
0.00697473
0.0132579
0.00698334
0.00129974
0.0069101
0.00877049
0.00863194
0.00482259
0.00673079
0.00899768
0.00111156
0.0018839
0.0133822
0.00197237
0.00597184
0.00678374
0.000465311
0.00529629
0.000534082
0.0030699
0.00520087
0.0156673
0.00683883
0.00672156
0.00469161
0.00413575
0.00431582
0.00671776
0.00251588
0.00678467
0.00681307
0.00678602
0.00197597
0.000524151
0.0063233
0.00447206
0.00676546
0.00679534
0.00675175
0.00225698
0.00684542
0.00486712
0.00502164
0.00538543
0.00675912
0.0067329
0.00147186
0.00298431
0.0119635
0.00131799
0.00332326
0.00689556
0.00673999
0.0067228
0.00155972
0.00299027
0.00354157
0.00197063
0.00124166
0.00430465
0.000882925
0.00544931
0.00214021
0.00689996
0.003908
0.0050215
0.00379512
0.00565642
0.00360338
0.0106519
0.00674997
0.000559386
0.00691161
0.0148718
0.00107531
0.00231866
0.00325239
0.00672184
0.00351751
0.00678671
0.00279406
0.00685997
0.00672415
0.0116662
0.000499045
0.0115126
0.000923254
0.00367349
0.00243429
0.00685238
0.0115271
0.0022106
0.00688122
0.00175712
0.00694704
0.00285405
0.00673643
0.0100854
0.00686854
0.0132026
0.00751386
0.00217749
0.00254218
0.000680942
0.00360144
0.00682289
0.0153764
0.0178848
0.00674063
0.00672593
0.00678449
0.00676316
0.00147189
0.00677816
0.00715905
0.00315744
0.00511687
0.0022994
0.00682137
0.00677537
0.00692138
0.000300047
0.0067418
0.00678134
0.00105041
0.0044515
0.0113699
0.0028596
0.00277396
0.00461771
0.00170865
0.0067942
0.0067851
0.00264366
0.00693387
0.00450426
0.00349897
0.00509121
0.000946647
0.00679493
0.00647633
0.00480234
0.00676436
0.00531238
0.0026721
0.00671709
0.00503001
0.00671379
0.000217143
0.0101025
0.0108572
0.0069329
0.00467866
0.00671312
0.00673263
0.00188245
0.00679976
0.00460239
0.00200177
0.00200912
0.00675433
0.00468998
0.00476582
0.010513
0.00676363
0.00957769
0.00318322
0.00648168
0.0139541
0.00273883
0.00172096
0.00671697
0.0105891
0.00737612
0.00679858
0.0068374
0.00674762
0.00322546
0.00528991
0.00732057
0.00680223
0.0030978
0.00675106
0.000550956
0.0070003
0.0067125
0.00679873
0.0067478
0.0106608
0.00679552
0.00874806
0.0162051
0.00937109
0.00106152
0.00409287
0.00984378
0.00390875
0.00684566
0.0017649
0.00690977
0.00673173
0.00672111
0.00607702
0.0069929
0.00714309
0.00234295
0.00493062
0.00177323
0.0037597
0.00863742
0.00348445
0.00673817
0.000654144
0.000528234
0.0103322
0.00689574
0.00671546
0.00689778
0.0164198
0.00684042
0.00463184
0.00693607
0.00294673
0.000956114
0.00689521
0.00709145
0.00676157
0.0053879
0.00675053
0.00350139
0.00322645
0.00673451
0.00723868
0.00890153
0.00681662
0.00359228
0.00413899
0.00648566
0.00625774
0.0142689
0.00504188
0.00676702
0.00065799
0.00510905
0.00691488
0.00610739
0.00674042
0.00313038
0.00303003
0.00324613
0.00400847
0.00673812
0.00390427
0.00679947
0.00204806
0.00433986
0.00695481
0.00157116
0.00436947
0.000515053
0.00673121
0.00523614
0.00199182
0.00306588
0.00679711
0.00550459
0.0068302
0.00448323
0.00549378
0.0004764
0.00671329
0.00381306
0.00398703
0.00208276
0.00497847
0.00678785
0.00495381
0.00295837
0.00496168
0.0032184
0.00410298
0.00902994
0.00753896
0.00679709
0.00452589
0.0010932
0.0111848
0.00671618
0.00666176
0.00685499
0.00391824
0.0061446
0.00791266
0.00632023
0.00677357
0.00697796
0.00671649
0.010808
0.000721445
0.0130684
0.00897248
0.00674382
0.00424128
0.00272268
0.00191402
0.00589213
0.00433238
0.0025202
0.00354855
0.0053007
0.00381229
0.000523733
0.00112607
0.00676465
0.0171962
0.00681949
0.00672477
0.0047013
0.003946
0.000715635
0.000846506
0.00182743
0.00677036
0.00691839
0.00130983
0.00860493
0.00672664
0.00350707
0.00762504
0.00672277
0.00675009
0.00175323
0.00974025
0.00678122
0.00671592
0.00679626
0.00678181
0.0156372
0.00676186
0.00690142
0.00354905
0.00324339
0.0069758
0.00876394
0.00469126
0.00674085
0.00499316
0.00503166
0.00314164
0.00344233
0.003079
0.00671354
0.00221148
0.00673112
0.00671258
0.000634508
0.0069146
0.00672842
0.00166731
0.00692604
0.00541442
0.00115635
0.0173467
0.00307697
0.00672417
0.00693254
0.00277438
0.0113139
0.00447244
0.00689683
0.00671641
0.00777621
0.00675373
0.00687002
0.00260004
0.00672592
0.00502072
0.00445607
0.00676848
0.00454732
0.00690956
0.00679392
0.00315068
0.00753511
0.00340295
0.00675628
0.00206835
0.00677592
0.00671367
0.00673627
0.00685024
0.00676231
0.0069856
0.000697886
0.00455763
0.00677201
0.0020879
0.00322988
0.0052966
0.0067756
0.00672405
0.00498201
0.00502516
0.0068452
0.000527935
0.000998313
0.00176195
0.00658384
0.00122498
0.00690879
0.005799
0.00679017
0.00691429
0.00683458
0.00696612
0.00358005
0.000725942
0.0022229
0.00153923
0.00100989
0.0103556
0.00563998
0.00299171
0.00394099
0.00654564
0.00130422
0.00461917
0.00175391
0.00216627
0.00694284
0.00676493
0.00698816
0.015283
0.006781
0.00432521
0.00411872
0.00576464
0.0105646
0.000988427
0.00684985
0.0064675
0.0067474
0.0038875
0.00700516
0.00583936
0.0125192
0.00354029
0.0045949
0.00675379
0.00687219
0.00331899
0.0184217
0.00500946
0.000472652
0.000896542
0.00675246
0.000690176
0.00425173
0.0106218
0.00671428
0.00675722
0.00689701
0.00673643
0.00681789
0.00682761
0.00468795
0.00486727
0.00314419
0.00413352
0.00785413
0.000320052
0.00157436
0.00671827
0.00685391
0.00678743
0.00679873
0.00676067
0.00730297
0.00304804
0.0120867
0.00335221
0.00486807
0.00912202
0.00058729
0.00388448
0.00482432
0.00678942
0.00695872
0.00574899
0.00676207
0.00682667
0.00708091
0.00501299
0.000806396
0.00673252
0.00674418
0.00635704
0.00141886
0.00101552
0.00691167
0.00482447
0.000959065
0.00687141
0.0163288
0.00120535
0.00465295
0.00676747
0.00105148
0.0183711
0.00134878
0.00126901
0.00216864
0.00426819
0.0069078
0.00403907
0.00682473
0.00201036
0.00281725
0.00679472
0.00453706
0.00681734
0.00681765
0.00671504
0.00400281
0.00305945
0.00217479
0.00931397
0.00676616
0.000831948
0.00433119
0.000670556
0.00697453
0.00666861
0.00677229
0.00140741
0.00690626
0.00694121
0.00416496
0.00156759
0.00420524
0.00107865
0.000916865
0.00842954
0.00338798
0.00305383
0.00075393
0.00688478
0.00681831
0.00672038
0.00679579
0.00135903
0.00181252
0.00697609
0.00360969
0.00493232
0.00333046
0.00678922
0.00693575
0.00550261
0.00174405
0.00485355
0.0133548
0.00499643
0.00671545
0.00102461
0.00145522
0.00511697
0.000431761
0.00672046
0.00196385
0.00638564
0.00159634
0.0177113
0.00680398
0.00584643
0.00750407
0.0053376
0.00321166
0.00174576
0.00160257
0.00196725
0.005462
0.00491559
0.00502925
0.00216218
0.00323694
0.00674794
0.00635981
0.00327844
0.00268253
0.00807483
0.0041481
0.00690376
0.000514912
0.000670035
0.00698118
0.00175431
0.00671787
0.00191394
0.00273053
0.006716
0.00543793
0.00488816
0.00530458
0.00492624
0.000454074
0.00676054
0.00688603
0.00140311
0.00684342
0.00694791
0.00247009
0.00471043
0.00502229
0.00476098
0.00692668
0.00458331
0.00696357
0.00277792
0.00678587
0.00210602
0.00479555
0.00673637
0.00394037
0.00177323
0.0067983
0.00266386
0.00104612
0.00671318
0.00357808
0.00679079
0.00487867
0.00872295
0.00696964
0.00215622
0.00677424
0.0014367
0.00496706
0.0033192
0.013944
0.00326006
0.00671709
0.00440437
0.00448855
0.00686093
0.000819973
0.00314103
0.00674084
0.00692396
0.000694812
0.00678652
0.00272554
0.00102388
0.00573716
0.0100673
0.00390671
0.000834003
0.00689131
0.00148904
0.00144447
0.0120492
0.00671662
0.00697842
0.00238486
0.00184844
0.00881966
0.00685714
0.0104924
0.0069058
0.00914469
0.00685158
0.00575005
0.000448873
0.00216337
0.00419317
0.00251212
0.0029821
0.0048287
0.0067336
0.000912612
0.00084229
0.00236562
0.00682317
0.000492099
0.00140119
0.00846625
0.00214949
0.000535235
0.00616022
0.00161936
0.00332751
0.00105806
0.00674514
0.00339586
0.0033302
0.00671767
0.00341406
0.0110649
0.00527946
0.00908325
0.00087534
0.00672488
0.00682211
0.00324871
0.0067185
0.00511009
0.00691676
0.00686282
0.00205547
0.00119158
0.00409612
0.00224026
0.00701197
0.000488536
0.00617085
0.00502111
0.00693705
0.00389528
0.00500597
0.0066517
0.00677963
0.00492964
0.0040449
0.00112368
0.00100556
0.00117562
0.00679893
0.00689414
0.00671934
0.00676588
0.00382341
0.0131115
0.000769586
0.00233538
0.0017149
0.00266102
0.00753972
0.00236937
0.00672604
0.00249851
0.00793544
0.00672061
0.00654462
0.00307259
0.00469585
0.004022
0.00502276
0.00692807
0.00318465
0.00224428
0.000638637
0.0111966
0.00489851
0.00205168
0.0068397
0.00295722
0.00324539
0.00298602
0.00215691
0.0096492
0.00545552
0.000839964
0.00349387
0.00688492
0.00261061
0.00698744
0.00637738
0.0067287
0.00103964
0.000761468
0.00119441
0.0124029
0.0072222
0.00108303
0.00681081
0.00672454
0.00674728
0.00695964
0.00271317
0.00214497
0.00447055
0.00312836
0.0154019
0.0067997
0.00103261
0.0067429
0.0053681
0.00234945
0.0068507
0.000434832
0.00235926
0.00367685
0.00381004
0.000594979
0.00242764
0.0038016
0.0121086
0.00114079
0.000257552
0.0121637
0.00667769
0.000934152
0.00673915
0.00295698
0.00525929
0.00143572
0.00726942
0.00113898
0.00701926
0.000790788
0.000799268
0.00146218
0.00672277
0.00208869
0.000619714
0.00432695
0.000857002
0.00210554
0.00166501
0.00389788
0.00165902
0.00676077
0.00186721
0.00225013
0.00166418
0.00676867
0.00438097
0.00110881
0.00552306
0.00131209
0.00673075
0.00482345
0.00671572
0.00486502
0.00622343
0.0048394
0.00114756
0.00552459
0.00297495
0.000850795
0.00189015
0.00210061
0.0113935
0.00188859
0.012416
0.00697099
0.00345113
0.00692456
0.00515273
0.0143845
0.00697596
0.0068606
0.00116636
0.00380758
0.00442006
0.00372738
0.00327602
0.00675232
0.0015571
0.00394376
0.0138585
0.0121297
0.00269074
0.00679332
0.0103611
0.00292604
0.00367834
0.0119232
0.00330422
0.00634264
0.00684216
0.0069126
0.00446169
0.00166898
0.00674455
0.00490255
0.00449552
0.00115347
0.00125509
0.00172263
0.00117714
0.00364487
0.0102308
0.00360419
0.00120345
0.00469646
0.00145315
0.00462358
0.00327809
0.000833469
0.00636795
0.000956162
0.00373336
0.00870005
0.00672355
0.00115168
0.000604598
0.0152582
0.0067202
0.00266742
0.00691103
0.00204361
0.00304226
0.00213462
0.00240793
0.00674418
0.00673113
0.00126659
0.00407509
0.00683184
0.00156134
0.00122361
0.0068207
0.00600555
0.00512945
0.00080445
0.00234751
0.00672362
0.00287217
0.000570241
0.00694671
0.00682346
0.00431659
0.00248987
0.00491447
0.00293009
0.0031997
0.000781336
0.000449082
0.000615667
0.00673844
0.00934823
0.00324142
0.0032431
0.015855
0.00282051
0.00679806
0.000509524
0.00417771
0.00632677
0.00692412
0.0143442
0.00673266
0.00149252
0.000918275
0.00117427
0.00695705
0.000409618
0.00304824
0.00719853
0.000513397
0.00386542
0.000509632
0.00529092
0.00672983
0.00316879
0.00387665
0.00672565
0.00925449
0.000377435
0.00390333
0.0123903
0.00604854
0.00304508
0.00390959
0.00353788
0.00716643
0.004823
0.00505074
0.0133245
0.00478656
0.0064736
0.00684846
0.00216329
0.00131965
0.0119303
0.0114005
0.00533226
0.00403025
0.0042716
0.00673002
0.0155165
0.00671555
0.00679867
0.00675112
0.0123365
0.000460223
0.00254274
0.00678775
0.000729762
0.00299448
0.00311617
0.00695513
0.000607926
0.00309048
0.00342067
0.00123027
0.00233372
0.00633235
0.000471879
0.000698743
0.00674121
0.0108174
0.00114925
0.00157788
0.00686033
0.0021568
0.00677409
0.00685451
0.00367478
0.00593612
0.00706715
0.00128392
0.00287671
0.00934718
0.00688187
0.0119684
0.00367953
0.00230051
0.00194814
0.00188449
0.00903631
0.00190121
0.00740599
0.00934311
0.00241884
0.00673055
0.00680352
0.00343246
0.00286941
0.00507526
0.00295888
0.00199929
0.00700627
0.00305722
0.00504154
0.00685049
0.00140059
0.00317558
0.00217288
0.00236094
0.0155205
0.0163531
0.00440987
0.0179497
0.0129793
0.000817362
0.00271453
0.00678854
0.00390192
0.00674219
0.00674762
0.00517942
0.0130358
0.00194621
0.00683539
0.00772194
0.00052642
0.00685233
0.00609235
0.00142707
0.00674685
0.0067036
0.0169532
0.00330688
0.00321189
0.00116678
0.00677967
0.00109743
0.00368128
0.00206902
0.000957716
0.000510672
0.00103156
0.00886667
0.00427657
0.00671086
0.00416015
0.000465086
0.00175518
0.000603298
0.0128509
0.00322437
0.00321076
0.003603
0.00280215
0.00479674
0.000620569
0.00677886
0.00671922
0.00691287
0.00429511
0.00486987
0.0069938
0.00232583
0.0044575
0.00475976
0.0048381
0.00077141
0.00509803
0.000656837
0.00675072
0.00460133
0.00377583
0.00696535
0.00957295
0.00496419