/*--------------------------------*- C++ -*----------------------------------*\
| =========                 |                                                 |
| \\      /  F ield         | OpenFOAM: The Open Source CFD Toolbox           |
|  \\    /   O peration     | Version:  v2012                                 |
|   \\  /    A nd           | Website:  www.openfoam.com                      |
|    \\/     M anipulation  |                                                 |
\*---------------------------------------------------------------------------*/
FoamFile
{
    version     2.0;
    format      ascii;
    class       volVectorField;
    location    "450";
    object      cellDisplacement;
}
// * * * * * * * * * * * * * * * * * * * * * * * * * * * * * * * * * * * * * //

dimensions      [0 1 0 0 0 0 0];


internalField   nonuniform List<vector> 
13851
(
(-0.0246861 -0.027329 0)
(-0.0201804 0.0303258 0)
(-0.0201189 0.0284545 0)
(-0.0203387 0.15982 0)
(-0.000544723 0.00520223 0)
(-0.0201433 0.0544697 0)
(-0.0211282 -0.0762571 0)
(-0.00146099 0.00469268 0)
(-0.0257153 -0.0621983 0)
(-0.000728118 0.124634 0)
(-0.0209082 0.100991 0)
(-0.00422822 0.0697769 0)
(-0.00280146 0.148625 0)
(-0.0253065 -0.0452808 0)
(-0.0234992 -0.0261679 0)
(-0.0264352 -0.112246 0)
(-0.0215236 0.110978 0)
(-0.0155986 0.0452815 0)
(-0.0235263 0.0254889 0)
(-0.0246338 -0.0255451 0)
(-0.0233533 -0.00733051 0)
(-0.015839 0.135919 0)
(-0.0197944 0.1782 0)
(-0.000215785 0.00237849 0)
(-0.022365 0.0745909 0)
(-0.0254887 -0.103194 0)
(-0.0259053 -0.0736733 0)
(-0.0240905 0.00379704 0)
(-0.0266316 -0.100172 0)
(-0.011419 0.043347 0)
(-0.021094 0.128501 0)
(-0.0210976 -0.0733172 0)
(-0.0248877 -0.0367408 0)
(-0.0248928 -0.0283111 0)
(-0.0205658 0.0947971 0)
(-0.0268014 -0.107253 0)
(-0.00018846 0.00208871 0)
(-0.0212409 0.119741 0)
(-0.0224956 0.0707318 0)
(-0.0102715 0.127225 0)
(-0.0242278 -0.000773612 0)
(-0.0266266 -0.100036 0)
(-0.0210623 0.130037 0)
(-0.0192593 0.178104 0)
(-0.0264367 -0.0922057 0)
(-0.0107632 0.0896287 0)
(-0.00287058 -0.00673587 0)
(-0.0260867 -0.0930121 0)
(-0.0163956 0.105843 0)
(-0.00248324 0.148709 0)
(-0.0230324 0.0486668 0)
(-0.000436761 0.154747 0)
(-0.0263881 -0.110421 0)
(-0.0233387 -0.0828111 0)
(-0.0257585 -0.0639372 0)
(-0.010122 0.128787 0)
(-0.0248609 -0.0349733 0)
(-0.0242023 0.000291219 0)
(-0.026324 -0.0919152 0)
(-0.0245557 -0.0142364 0)
(-0.00404513 0.0674587 0)
(-0.0258809 -0.0731323 0)
(0.000549197 0.100976 0)
(-0.0164333 0.107745 0)
(-0.017449 0.187677 0)
(-0.0174759 0.188501 0)
(-0.0245352 -0.0133815 0)
(-0.0055642 0.190631 0)
(-0.0128486 0.111216 0)
(-0.0205576 0.150715 0)
(-0.0213253 0.119083 0)
(-0.0235555 -0.00464508 0)
(-0.00626523 0.134739 0)
(-0.024595 -0.015872 0)
(-0.0235787 -0.0682187 0)
(-0.0139835 0.138115 0)
(-0.0215144 0.111353 0)
(-0.0104945 0.0150309 0)
(-0.022397 0.0731084 0)
(-0.00754674 0.09786 0)
(-0.0130841 0.110641 0)
(-0.021776 0.0951755 0)
(-0.0204294 0.0969926 0)
(-0.0252123 -0.0413937 0)
(-0.0246191 -0.0168653 0)
(-0.0211768 0.125137 0)
(-0.0160943 0.134884 0)
(-0.0266032 -0.0988428 0)
(-0.00223862 0.125997 0)
(-0.0210568 0.130024 0)
(-0.000127975 0.155635 0)
(-0.0212628 -0.0716058 0)
(-0.0227026 0.0622867 0)
(-0.0211432 0.12657 0)
(-0.0229404 0.0524245 0)
(-0.0190589 0.177399 0)
(-0.00970582 0.102682 0)
(-0.0262702 -0.101647 0)
(-0.0236157 0.0245719 0)
(-0.0205644 0.132167 0)
(-0.0262612 -0.0996657 0)
(-0.00687914 0.187102 0)
(-0.00887181 0.187228 0)
(-0.00586997 0.141385 0)
(-0.0116364 0.0824932 0)
(-0.0229842 0.0172426 0)
(-0.0114124 0.0830115 0)
(-0.0212996 0.120114 0)
(-0.021233 -0.0686805 0)
(-0.0154068 0.0450795 0)
(-0.0157019 0.154229 0)
(-0.0110107 0.0893309 0)
(-0.0226751 0.0564362 0)
(-0.0220445 0.0634109 0)
(-0.0252802 -0.0540218 0)
(-0.023218 -0.0810216 0)
(-0.0082683 0.0383026 0)
(-0.00179003 0.00538887 0)
(-0.0203162 0.160798 0)
(-0.0205427 0.151216 0)
(-0.0191535 0.170509 0)
(-0.0140822 0.0433966 0)
(-0.0120495 0.118357 0)
(-0.02474 -0.0218591 0)
(-0.023934 0.00808058 0)
(-0.00864435 0.191879 0)
(-0.00976892 0.10076 0)
(-0.0196159 0.130693 0)
(-0.024671 -0.0190633 0)
(-0.0238705 -0.0236954 0)
(-0.0156274 0.138572 0)
(-0.0199808 0.0856877 0)
(-0.0212305 0.119673 0)
(-0.0249331 -0.0299628 0)
(-0.0210251 0.0989225 0)
(-0.022795 0.0584197 0)
(-0.00506314 0.190333 0)
(-0.0212107 0.123765 0)
(-0.00552194 0.184854 0)
(-0.0240039 -0.0328443 0)
(-0.0217253 0.0966511 0)
(-0.00665359 0.158351 0)
(-0.00212511 0.127827 0)
(-0.0139023 0.190118 0)
(-0.0228224 0.0559907 0)
(-0.012641 0.145729 0)
(-0.0102277 0.013232 0)
(-0.0211058 0.128098 0)
(-0.026181 -0.0813911 0)
(-0.0197096 0.13066 0)
(-0.0262151 -0.0974556 0)
(-0.0226207 0.0580665 0)
(-0.022095 0.0632388 0)
(-0.0236074 0.0212583 0)
(-0.00265122 0.15666 0)
(-0.000195792 0.141906 0)
(-0.00377498 0.0570335 0)
(-0.0224699 0.0718164 0)
(-0.0238496 -0.0305628 0)
(-0.0208833 -0.0402009 0)
(-0.000485642 0.00542895 0)
(-0.0267052 -0.103236 0)
(-0.0229986 0.0151063 0)
(-0.0260378 -0.0907409 0)
(-0.0253389 -0.0466129 0)
(-0.0258771 -0.0689423 0)
(-0.0258489 -0.067795 0)
(-0.0230056 0.0497713 0)
(-0.0156531 0.152719 0)
(-0.0237469 0.0186759 0)
(-0.00370786 0.0647412 0)
(-0.00806432 0.036457 0)
(-0.022929 0.0278575 0)
(-0.000462639 0.0047183 0)
(-0.0229602 0.0515938 0)
(-0.0253458 -0.0497559 0)
(-0.0259683 -0.0828811 0)
(-0.0082312 0.0350277 0)
(-0.0235821 -0.0738207 0)
(-0.0259852 -0.0845838 0)
(-0.0239625 0.00661131 0)
(-0.0192442 0.176878 0)
(-0.0158264 0.148929 0)
(-0.0238766 -0.0261081 0)
(-0.0214724 0.113099 0)
(-0.0262137 -0.0827502 0)
(-0.0249602 -0.0395242 0)
(-0.00455011 0.181146 0)
(-0.00323512 0.153177 0)
(-0.0114553 0.0633623 0)
(-0.0228208 0.0558465 0)
(-0.0237777 -0.0273579 0)
(-0.0252961 -0.0448564 0)
(-0.0203189 0.0505929 0)
(-0.0126991 0.143796 0)
(-0.0263337 -0.106119 0)
(-0.0249775 -0.04101 0)
(-0.0179509 0.0045173 0)
(-0.0164144 0.0614269 0)
(-0.00759948 0.190349 0)
(-0.0216102 0.100968 0)
(-0.0234022 0.0333508 0)
(-0.024063 0.00604469 0)
(-0.0235225 -0.0292918 0)
(-0.0191561 0.188982 0)
(-0.0234124 0.0329434 0)
(-0.000387964 0.172417 0)
(-0.024303 -0.051757 0)
(-0.0256159 -0.0580933 0)
(-0.019443 0.0692587 0)
(-0.0264863 -0.116332 0)
(-0.0118973 0.117846 0)
(-0.0216632 0.0993966 0)
(-0.00131526 0.0239057 0)
(-0.0208039 0.0892782 0)
(-0.0145576 0.139402 0)
(-0.00241934 0.147052 0)
(-0.0245912 -0.0197792 0)
(-0.0174006 0.0338122 0)
(-0.014177 0.19401 0)
(-0.00804229 0.0330904 0)
(-0.0245214 -0.0206485 0)
(-0.0251857 -0.0402936 0)
(-0.0228678 0.0554132 0)
(-0.00596317 0.179832 0)
(-0.0243787 -0.0539751 0)
(-0.000700857 0.0123726 0)
(-0.0133668 0.189954 0)
(-0.00553 0.0922767 0)
(-0.0206865 0.0908533 0)
(-0.020272 0.161863 0)
(-0.00489875 0.180518 0)
(-0.019521 0.0658839 0)
(0.00134321 0.0941795 0)
(-0.0240927 0.00482724 0)
(-0.0116224 0.0414709 0)
(-0.0197608 0.177845 0)
(-0.0239921 0.00897922 0)
(-0.0205308 0.131505 0)
(-0.000454278 0.00512355 0)
(-0.0203115 0.152572 0)
(-0.0246859 -0.0196161 0)
(-0.026468 -0.09357 0)
(-0.0264374 -0.114653 0)
(-0.0223465 0.0146565 0)
(-0.0142329 0.190891 0)
(-0.0245806 -0.019802 0)
(-0.023636 -0.0768862 0)
(-0.0190399 0.176215 0)
(-0.016658 0.148499 0)
(-0.0261779 -0.0812211 0)
(-0.0238297 0.00849892 0)
(-0.00148565 0.0073679 0)
(-0.0213661 0.0100713 0)
(-0.0263258 -0.103986 0)
(-0.0267347 -0.104424 0)
(-0.027092 -0.118982 0)
(-0.0112651 0.0621402 0)
(-0.00807733 0.192147 0)
(-0.0026652 0.124317 0)
(-0.025055 -0.0403278 0)
(-0.0238221 0.0124587 0)
(-0.0214803 0.00937021 0)
(-0.0231243 0.0111702 0)
(-0.0237963 0.0103466 0)
(-0.00715982 0.123309 0)
(-0.00749421 0.187336 0)
(-0.0258825 -0.0870688 0)
(-0.0243145 -0.00566669 0)
(-0.00248777 0.0945335 0)
(-0.00211687 0.146876 0)
(-0.00562116 0.180486 0)
(-0.0255189 -0.0541636 0)
(-0.0204021 0.157308 0)
(-0.023596 -0.0117871 0)
(-0.0143334 0.0437555 0)
(-0.024033 0.00390345 0)
(-0.0237159 0.0168172 0)
(-0.0251134 -0.0486387 0)
(-0.0231503 0.00873424 0)
(-0.0254925 -0.0530492 0)
(-0.0239102 0.0124068 0)
(-0.0212245 0.0259287 0)
(-0.0232852 -0.0275963 0)
(-0.0209841 0.130106 0)
(-0.0120781 0.0762654 0)
(-0.00375927 0.0539902 0)
(-0.0250854 -0.0466179 0)
(-0.0203958 0.111527 0)
(-0.01211 0.0396061 0)
(-0.00135716 0.0230901 0)
(-0.00553995 0.0945804 0)
(-0.000786733 0.00645578 0)
(-0.0227059 -0.00121971 0)
(-0.00389654 0.0569147 0)
(-0.0256826 -0.060857 0)
(-0.0234317 -0.00798872 0)
(-0.0107886 0.113441 0)
(-0.0267766 -0.10617 0)
(-0.0247607 -0.022711 0)
(-0.00188298 0.154274 0)
(-0.0245803 -0.0227243 0)
(-0.0233244 0.0366062 0)
(-0.00682782 0.159351 0)
(-0.00156803 0.155316 0)
(-0.0234382 -0.00568649 0)
(-0.0250663 -0.0353549 0)
(-0.0216892 0.103595 0)
(-0.0233069 0.0165433 0)
(-0.000700628 0.00659823 0)
(-0.0237861 0.0170198 0)
(-0.00388953 0.0672697 0)
(-0.0232896 0.0196231 0)
(-0.0232993 0.0376452 0)
(-0.0244108 -0.00969424 0)
(-0.0207327 -0.0391946 0)
(-0.0209418 0.131347 0)
(-0.0211547 0.1217 0)
(-0.021453 0.113769 0)
(-0.0224968 0.0627453 0)
(-0.00480482 0.188258 0)
(-0.0227903 0.0585933 0)
(-0.0247116 -0.0207012 0)
(-0.024044 0.00565204 0)
(-0.016589 0.0618894 0)
(-0.0211644 0.125795 0)
(-0.0265689 -0.0974097 0)
(-0.0144862 0.193339 0)
(-0.0147287 0.193131 0)
(-0.000745763 0.172794 0)
(-0.0230771 0.0248922 0)
(-0.0111368 0.173589 0)
(-0.0266353 -0.100154 0)
(-0.00799769 0.188209 0)
(-0.00231114 0.0143047 0)
(-0.00325184 -0.00688857 0)
(-0.0180356 0.112696 0)
(-0.0214322 0.11466 0)
(-0.0142548 0.19396 0)
(-0.0120687 0.0739945 0)
(-0.0228983 0.0541625 0)
(-0.0104861 0.175453 0)
(-0.0199336 0.0884387 0)
(-0.020974 -0.0430612 0)
(-0.0250889 -0.0362883 0)
(-0.024069 0.00217485 0)
(-0.0263844 -0.108166 0)
(-0.0142738 0.139858 0)
(-0.019377 0.065654 0)
(-0.0271285 -0.120942 0)
(-0.0035828 0.153603 0)
(-0.0236654 0.0191215 0)
(-0.0212245 0.0233522 0)
(-0.0233706 -0.00251767 0)
(-0.0103771 0.176473 0)
(-0.00254535 0.126155 0)
(-0.0109198 0.111604 0)
(-0.0216858 0.0932356 0)
(-0.0206589 0.130323 0)
(-0.0239477 0.00361839 0)
(-0.0211705 0.121696 0)
(-0.0270952 -0.119602 0)
(-0.0128435 0.14592 0)
(-0.0240253 0.0076165 0)
(-0.0249832 -0.0359719 0)
(-0.0135077 0.0133188 0)
(-0.0244497 -0.0111891 0)
(-0.0243582 -0.0191787 0)
(-0.0235863 0.0257821 0)
(-0.0179367 0.111672 0)
(-0.0256353 -0.116111 0)
(-0.0263036 -0.0916902 0)
(-0.0217209 0.100393 0)
(-0.0215388 0.0975698 0)
(-0.0265109 -0.0950314 0)
(-0.0167596 0.0804007 0)
(-0.0253155 -0.0482253 0)
(-0.0210343 0.131178 0)
(-0.0216466 0.0324479 0)
(-0.0261825 -0.0814129 0)
(-0.02177 0.0362494 0)
(-0.0239156 0.0121231 0)
(-0.0231906 -0.0261267 0)
(-0.0242069 -0.104275 0)
(-0.0236691 0.0150791 0)
(-0.0209762 0.122746 0)
(-0.000533145 0.142018 0)
(-0.0208104 0.0355618 0)
(-0.0204295 0.112555 0)
(-0.0236426 -0.0713701 0)
(-0.01054 0.0980865 0)
(-0.0236794 -0.0141545 0)
(-0.0248935 -0.0285637 0)
(-0.00639238 0.133447 0)
(-0.0242464 -0.0475686 0)
(-0.0201987 0.165672 0)
(-0.018922 0.0653452 0)
(-0.0198434 0.17046 0)
(-0.0245993 -0.0850018 0)
(-0.0217194 0.102277 0)
(-0.0195264 0.070513 0)
(-0.0254022 -0.102659 0)
(-0.018997 0.18904 0)
(-0.0238699 0.0107516 0)
(-0.0227875 0.0235751 0)
(-0.0270667 -0.117932 0)
(-0.0246603 -0.0185664 0)
(-0.0202515 0.153542 0)
(-0.00699295 0.1246 0)
(-0.0217173 0.0914711 0)
(-0.0215312 0.0461063 0)
(-0.0255932 -0.113146 0)
(-0.0137344 0.051804 0)
(-0.0212381 0.122778 0)
(-0.0246181 -0.0171448 0)
(-0.022006 0.0890414 0)
(-0.0194358 0.062305 0)
(-0.0237228 0.0133554 0)
(-0.0257052 -0.0654975 0)
(-0.0203798 0.158212 0)
(-0.0113694 -0.00772038 0)
(-0.0211698 0.125586 0)
(-0.0211417 0.117779 0)
(-0.0197387 0.181734 0)
(-0.016874 0.148003 0)
(-0.0235348 0.0267168 0)
(-0.00300103 0.13852 0)
(-0.000409657 0.00412496 0)
(-0.0257862 -0.0650785 0)
(-0.0256155 -0.0615687 0)
(-0.000827794 0.126968 0)
(-0.0201039 0.0332634 0)
(-0.0242716 -0.0461607 0)
(-0.00796455 0.0442053 0)
(-0.0246148 -0.0170754 0)
(-0.0231607 0.0223286 0)
(-0.0243014 -0.0175406 0)
(-0.0219454 -0.0272953 0)
(-0.0168778 0.0773829 0)
(0.00108308 0.155464 0)
(-0.0216721 0.102151 0)
(-0.0104856 0.114166 0)
(0.00131249 0.154474 0)
(-0.0266864 -0.104125 0)
(-0.0248667 -0.027498 0)
(-0.0153672 0.139222 0)
(-0.0262287 -0.0892888 0)
(0.000748814 0.0993034 0)
(-0.00386241 0.0537647 0)
(-0.0190829 0.0652416 0)
(-0.0239111 0.00555172 0)
(-0.0245657 -0.0928434 0)
(-0.0106333 0.101283 0)
(-0.0182995 0.0539635 0)
(-0.0191432 0.169222 0)
(-0.0198334 0.0176847 0)
(-0.0215077 0.11085 0)
(-0.00417714 0.0651061 0)
(-0.0226349 -0.0560566 0)
(-0.026395 -0.0904912 0)
(-0.012888 0.177011 0)
(-0.00335278 -0.00194216 0)
(-0.0032496 0.0641375 0)
(-0.0218375 -0.0243447 0)
(-0.0184652 -0.000932068 0)
(-0.0200295 0.161102 0)
(-0.0267412 -0.105991 0)
(-0.0224634 0.0121318 0)
(-0.0186381 0.193822 0)
(-0.0192825 0.0620174 0)
(-0.00431074 0.0877477 0)
(-0.0249991 -0.0326301 0)
(-0.0262505 -0.0895143 0)
(-0.00889016 0.182896 0)
(-0.0073023 0.13489 0)
(-0.0247489 -0.0222368 0)
(-0.00615152 0.184254 0)
(-0.0195561 0.181836 0)
(-0.00560547 0.141735 0)
(-0.0202661 0.0789991 0)
(-0.0216034 0.0960834 0)
(-0.023764 -0.058688 0)
(-0.024711 -0.020689 0)
(-0.0257463 -0.0670114 0)
(-0.0219677 0.09037 0)
(-0.00969321 0.161612 0)
(-0.022557 0.0608684 0)
(-0.00763816 0.122797 0)
(-0.0266635 -0.101468 0)
(-0.0245424 -0.0825013 0)
(-0.0250277 -0.043155 0)
(-0.0215632 0.0433879 0)
(-0.0142375 0.137995 0)
(-0.0129933 0.176026 0)
(-0.0230251 0.0250179 0)
(-0.000607035 0.00589063 0)
(-0.0206257 0.148062 0)
(-0.0249715 -0.0314761 0)
(-0.0214716 0.112245 0)
(-0.0198568 0.179704 0)
(-0.0266996 -0.104338 0)
(-0.0220812 0.0879528 0)
(-0.023767 0.0149601 0)
(-0.00673052 0.178349 0)
(-0.00101378 0.0456174 0)
(-0.0198756 0.171059 0)
(-0.000442686 0.124168 0)
(-0.0103846 0.0970264 0)
(-0.00788658 0.179483 0)
(-0.0230298 0.0487131 0)
(-0.0203862 0.0146422 0)
(-0.00553262 0.160096 0)
(-0.0184047 0.167816 0)
(-0.0221049 0.0499938 0)
(0.00148218 0.128516 0)
(-0.0225181 0.0691526 0)
(-0.00925379 0.103355 0)
(-0.0247824 -0.0236854 0)
(-0.0200454 0.159708 0)
(-0.00777559 0.0986297 0)
(-0.0204703 -0.00899138 0)
(-0.0213814 0.109264 0)
(-0.0243563 -0.00730303 0)
(-0.0119261 0.0420556 0)
(-0.0214207 0.113151 0)
(-0.019946 0.170009 0)
(-0.0148891 -0.0197485 0)
(-0.0219209 0.0944632 0)
(-0.0235707 0.0234491 0)
(-0.0244072 -0.015781 0)
(-0.00937396 0.161914 0)
(-0.0266367 -0.102112 0)
(-0.0241763 0.0014163 0)
(-0.015107 -0.0191765 0)
(-0.0227943 0.0547309 0)
(-0.0124215 0.114739 0)
(-0.00946013 0.103888 0)
(-0.0270496 -0.120975 0)
(-0.0238794 0.0136178 0)
(-0.0218764 0.0457884 0)
(-0.024504 -0.0944922 0)
(8.62836e-05 0.125403 0)
(-0.0250917 -0.0856934 0)
(-0.0247083 -0.0206214 0)
(-0.0226112 0.0659898 0)
(-0.0160178 -0.00716927 0)
(-0.0217362 0.102201 0)
(-0.0104682 0.100502 0)
(-0.0126737 0.113918 0)
(-0.0228868 0.0211487 0)
(-0.0226272 -0.0710299 0)
(-0.0114726 -0.0101281 0)
(-0.0137334 0.139776 0)
(-0.0219909 0.0915682 0)
(-0.020973 0.121969 0)
(-0.0219522 0.0931891 0)
(-0.0201998 0.0159536 0)
(-0.00294359 0.124449 0)
(-0.0255925 -0.0572205 0)
(-0.00142739 0.0577673 0)
(-0.0218523 0.0866696 0)
(-0.0225223 -0.0388883 0)
(-0.0235596 -0.062291 0)
(-0.022162 0.021774 0)
(-0.0264967 -0.0949615 0)
(-0.0238826 0.0135473 0)
(-0.0204873 0.0435005 0)
(-0.0210339 0.131192 0)
(-0.0204916 -0.0334627 0)
(-0.0226981 0.0400179 0)
(-0.0265887 -0.0984911 0)
(-0.0257581 -0.0639208 0)
(-0.0113605 0.123149 0)
(-0.00744339 0.123952 0)
(-0.00955858 0.186951 0)
(-0.0220181 0.0904652 0)
(-0.02656 -0.10623 0)
(-0.0250636 -0.0873593 0)
(-0.0196379 0.180534 0)
(-0.0226877 -0.0735739 0)
(-0.0231725 -0.0289914 0)
(-0.0202778 0.161239 0)
(-0.0224181 0.0732984 0)
(-0.0188186 0.171333 0)
(-0.0248168 -0.0250978 0)
(-0.0254936 -0.0594768 0)
(-0.0269417 -0.11325 0)
(-0.0162123 0.0827441 0)
(-0.0263696 -0.0937038 0)
(-0.0235232 0.0269818 0)
(-0.00372413 0.0832885 0)
(-0.022674 0.0634392 0)
(-0.0230731 0.0466373 0)
(-0.015884 0.150503 0)
(-0.023985 -0.030054 0)
(-0.00922738 0.130515 0)
(-0.0184363 0.193743 0)
(-0.0196747 0.139639 0)
(-0.0201502 0.164556 0)
(-0.0103919 0.115991 0)
(-0.000531513 0.00555421 0)
(-0.00329607 0.17821 0)
(-0.0219996 0.0525155 0)
(-0.00412116 0.062596 0)
(-0.0230062 0.0497027 0)
(-0.00064413 0.00668597 0)
(-0.0254502 -0.0580367 0)
(-0.00879963 0.163871 0)
(-0.0256467 -0.111695 0)
(-0.00598697 0.140016 0)
(0.00148846 0.130503 0)
(-0.0185627 0.142832 0)
(-0.0217669 0.100936 0)
(-0.0226233 0.029903 0)
(-0.0228278 0.0570725 0)
(-0.020189 0.0821247 0)
(-0.00836137 0.0480897 0)
(-0.0145151 0.0201497 0)
(-0.022878 0.030808 0)
(-0.0181175 0.057064 0)
(-0.0224878 0.0578376 0)
(-0.0205932 0.0190469 0)
(-0.008378 0.182797 0)
(-0.0264084 -0.095893 0)
(-0.00121163 0.0587985 0)
(-0.0272668 -0.126219 0)
(-0.000954415 0.0167863 0)
(-0.0260932 -0.117598 0)
(-0.0209988 0.132642 0)
(-0.0260939 -0.0779746 0)
(-0.000175098 0.181831 0)
(-0.0201003 0.165663 0)
(-0.0182243 0.169124 0)
(-0.0203468 0.142878 0)
(-0.0231084 0.0452127 0)
(-0.0165921 -0.00432695 0)
(-0.0224948 0.0702126 0)
(-0.0110139 0.174719 0)
(-0.0217356 0.0326252 0)
(-0.0198853 0.178448 0)
(-0.0227638 0.0577968 0)
(-0.0136899 0.0150509 0)
(-0.0224267 0.059291 0)
(-0.0178772 0.00182866 0)
(-0.0269485 -0.113412 0)
(-0.0227368 0.0608522 0)
(-0.0135733 0.109507 0)
(-0.00665901 0.190645 0)
(-0.0244018 -0.00827159 0)
(-0.000612522 0.0165829 0)
(-0.000834185 0.0223678 0)
(-0.0255419 -0.105491 0)
(-0.0272371 -0.124987 0)
(-0.0265733 -0.0999397 0)
(-0.00127408 0.155081 0)
(-0.0235497 0.019945 0)
(-0.0196593 0.0183618 0)
(0.00123361 0.13354 0)
(-0.026498 -0.0997054 0)
(-0.0236066 0.0180258 0)
(-0.0207112 0.126875 0)
(-0.0103289 -0.00766842 0)
(-0.0258369 -0.0847949 0)
(-0.013658 0.181951 0)
(-0.0252557 -0.103822 0)
(-0.000909286 0.165297 0)
(-0.0124374 0.143732 0)
(-0.0195413 0.140919 0)
(-0.0035659 0.177547 0)
(-0.0259865 -0.0900974 0)
(-0.0235928 -0.00769468 0)
(-0.0234585 -0.00145319 0)
(-0.0186355 0.171609 0)
(-0.0194592 0.18221 0)
(-0.0234727 0.0275239 0)
(-0.0255813 -0.0571451 0)
(-0.0214542 0.111562 0)
(-0.0261727 -0.0964482 0)
(-0.0252751 -0.0439848 0)
(-0.0162922 0.163635 0)
(-0.0270291 -0.119613 0)
(-0.02447 -0.0180135 0)
(-0.014845 0.0537321 0)
(-0.0230807 -0.0280358 0)
(-0.0234536 0.0278772 0)
(-0.0171458 0.123624 0)
(-0.00746822 0.0955709 0)
(-0.00750117 0.0915389 0)
(-0.0260696 -0.113108 0)
(-0.0265388 -0.0961923 0)
(-0.0227124 -0.0541494 0)
(-0.0239589 0.0103637 0)
(-0.00845593 0.0503398 0)
(-0.0265417 -0.0983163 0)
(-0.0179827 0.180265 0)
(-0.0232613 0.0392226 0)
(-0.0223302 0.0628242 0)
(-0.0196885 0.0688096 0)
(-0.0202658 0.0243125 0)
(-0.0232364 0.0402523 0)
(-0.020784 0.124548 0)
(-0.0162134 0.162485 0)
(-0.0256599 -0.0632691 0)
(-0.0167608 0.0752677 0)
(-0.0199752 0.167001 0)
(-0.0261154 -0.115236 0)
(-0.0253846 -0.0550595 0)
(-0.0210396 0.0589971 0)
(-0.0213094 0.11366 0)
(-0.00323348 0.137514 0)
(-0.00106887 0.0194662 0)
(-0.000494099 0.171408 0)
(0.0009997 0.135056 0)
(-0.0265165 -0.0954675 0)
(-0.000898834 0.00753497 0)
(-0.0265152 -0.101035 0)
(-0.025563 -0.0559758 0)
(-0.0223045 0.0645735 0)
(-0.0226816 0.0630746 0)
(-0.0236455 0.023343 0)
(-0.0253682 -0.053804 0)
(-0.0204312 0.141351 0)
(-0.00102567 0.18154 0)
(0.00100956 0.0654684 0)
(-0.00208698 0.145122 0)
(-0.0100409 0.0185215 0)
(-0.0142954 0.0215545 0)
(-0.000620636 0.00635459 0)
(-0.022866 0.0339692 0)
(-0.022782 0.0517646 0)
(-0.0139359 0.18246 0)
(-0.0241305 0.00202577 0)
(-0.014015 0.130207 0)
(-0.0256502 -0.0595037 0)
(-2.65421e-05 0.00471737 0)
(-0.020331 0.160036 0)
(-0.0201072 0.102253 0)
(-4.36369e-05 0.00997174 0)
(0.00107152 0.087515 0)
(-0.0260194 -0.0748744 0)
(-0.0201098 0.0576676 0)
(-0.0259974 -0.0752977 0)
(-0.0231527 0.0433462 0)
(-0.0239457 -0.0329128 0)
(-0.0240472 -0.0138047 0)
(-0.014727 -0.0239338 0)
(-0.0248556 -0.0267483 0)
(-0.011213 0.159425 0)
(-0.0203998 0.0175109 0)
(-0.026449 -0.0973739 0)
(0.000722891 0.0651633 0)
(-0.00624884 0.158674 0)
(-0.0158237 0.0174162 0)
(-0.0245209 -0.0769033 0)
(-0.0263242 -0.0872809 0)
(-0.0198942 0.0810817 0)
(-0.0212737 0.0522416 0)
(-0.0211019 0.119746 0)
(-0.0225821 0.0672052 0)
(-0.00383009 0.181413 0)
(-0.0126773 0.16241 0)
(-0.0267427 -0.104944 0)
(-0.00971235 0.0177151 0)
(-0.0267877 -0.106776 0)
(-0.00112378 0.0127844 0)
(-0.0199949 0.0137758 0)
(-0.0224924 0.069188 0)
(-0.0252277 -0.0652682 0)
(-0.0252187 -0.0517515 0)
(-0.0213102 0.0978325 0)
(-0.0227224 0.0273303 0)
(0.000137326 0.0418469 0)
(-4.44398e-05 0.00433928 0)
(-0.0227301 0.0403739 0)
(-0.0164309 0.0807139 0)
(0.000141681 0.0366135 0)
(-0.0228753 -0.0655298 0)
(-0.0207697 0.131061 0)
(-0.00458545 0.04159 0)
(-0.0201893 0.146894 0)
(-0.0198864 0.168671 0)
(-0.0261601 -0.0824637 0)
(-0.0213685 0.0953546 0)
(-0.0208251 0.139428 0)
(-0.00560046 0.185478 0)
(0.000883771 0.0681102 0)
(-0.0213957 0.102364 0)
(-0.00837144 0.0534279 0)
(-0.0209496 0.0315831 0)
(-0.0256066 -0.0582752 0)
(-0.0271698 -0.122759 0)
(-0.0224543 0.0718907 0)
(-0.0267379 -0.104863 0)
(-0.0141295 0.105385 0)
(-0.0135371 0.10796 0)
(-0.0167545 0.178078 0)
(-0.0119083 0.145068 0)
(-0.0125195 0.0652518 0)
(-0.0197563 0.179705 0)
(-0.0251106 -0.0423961 0)
(-0.0260496 -0.0759431 0)
(-0.0261457 -0.119519 0)
(-0.0252334 -0.0639125 0)
(0.000512574 0.138113 0)
(-0.0114545 0.0458039 0)
(-0.0203859 0.151905 0)
(-0.02422 -0.0139257 0)
(-0.0201816 0.0131003 0)
(0.000370746 0.0279279 0)
(-0.0253202 -0.0563385 0)
(-0.0223286 0.0703796 0)
(-0.0239238 0.0118063 0)
(-0.00228678 0.156219 0)
(-0.00251401 0.0317414 0)
(-0.0262973 -0.0861665 0)
(-0.000612486 0.164695 0)
(-0.0219644 0.029289 0)
(-0.00764205 0.0424476 0)
(-0.0231017 0.0457419 0)
(-0.00102528 0.00516714 0)
(-0.0210655 0.129882 0)
(-0.000681395 0.107848 0)
(-0.0204219 0.133508 0)
(-0.023051 -0.000126461 0)
(-0.0163823 0.180244 0)
(-0.021183 0.0562762 0)
(-0.00597221 0.135027 0)
(-0.0199342 0.0389719 0)
(-0.00344281 0.0329605 0)
(-0.0265942 -0.10507 0)
(-0.00254839 0.163681 0)
(-0.0270834 -0.118645 0)
(-0.0171214 0.0710519 0)
(-0.0250914 -0.0374247 0)
(-0.0251427 -0.0385869 0)
(-0.020717 0.0651815 0)
(-0.00278232 0.0243338 0)
(-0.0201316 0.168388 0)
(-0.0266185 -0.100785 0)
(-0.0206317 0.0427896 0)
(-0.0252883 -0.0688541 0)
(-0.00179996 0.144823 0)
(-0.0268981 -0.111 0)
(-0.0150346 0.0541337 0)
(-0.0233997 0.0299895 0)
(-0.00368465 0.0910406 0)
(-0.00361871 0.0340814 0)
(-0.0260125 -0.0761428 0)
(-0.0222844 0.0187382 0)
(-0.00343878 0.0670988 0)
(-0.0234301 -0.0816555 0)
(-0.02435 -0.00579702 0)
(-0.0188516 0.192266 0)
(-0.0243665 -0.00677003 0)
(-0.0110303 0.0635272 0)
(-0.0253068 -0.0452931 0)
(-0.00259724 0.0976689 0)
(-0.00435888 0.0396613 0)
(-0.00296829 0.155678 0)
(-0.00386537 -0.0080728 0)
(-0.000976691 0.0323198 0)
(-0.0240489 0.00637738 0)
(-0.0254186 -0.0504205 0)
(-0.0174411 0.0363986 0)
(-0.00080872 0.00842354 0)
(-0.0220131 0.0424103 0)
(-0.0111166 0.0874878 0)
(-0.0201369 0.168033 0)
(-0.0214687 0.100559 0)
(-0.0252776 -0.0440877 0)
(-0.0227515 0.0601832 0)
(-0.0198248 0.0420498 0)
(-0.0259366 -0.0878066 0)
(-0.00391101 0.0857585 0)
(-0.0232444 -0.00368208 0)
(-0.0177915 0.179948 0)
(-0.016442 -0.0063042 0)
(-0.00110155 0.0126911 0)
(-0.0204172 0.148851 0)
(-0.0227676 0.0595896 0)
(-0.0240696 -0.0158799 0)
(-0.0215061 0.111696 0)
(-0.0245993 -0.0443486 0)
(0.000353275 0.0989792 0)
(-0.0216598 0.0566239 0)
(-0.0253497 -0.0706948 0)
(-0.0219746 0.0923535 0)
(-0.0226056 -0.00065333 0)
(-0.0260959 -0.0805464 0)
(-0.0242024 -0.0123138 0)
(-0.00152065 0.0252666 0)
(-0.0202826 0.160022 0)
(-0.0203178 0.159015 0)
(-0.026384 -0.0897677 0)
(-0.0227705 0.05778 0)
(-0.0271194 -0.12441 0)
(-0.00999595 0.160348 0)
(-0.0147866 0.190604 0)
(0.00179785 0.154956 0)
(-0.0249075 -0.030652 0)
(-0.0170894 0.121966 0)
(-0.00189479 0.0118117 0)
(-0.0242479 -0.00183012 0)
(-0.0135647 0.132418 0)
(-0.0025603 0.0223742 0)
(-0.0115853 0.121556 0)
(-0.0133606 0.132329 0)
(-0.0230744 0.0468815 0)
(-0.0235585 0.0234989 0)
(-0.00923763 0.0706312 0)
(-0.0217928 0.0536816 0)
(-0.0251459 -0.0386474 0)
(-0.0154895 0.113034 0)
(-0.0214443 0.114253 0)
(-0.00506408 0.166367 0)
(-0.0249686 -0.0529078 0)
(-0.0237359 0.0195502 0)
(-0.003876 0.0597425 0)
(-0.0265906 -0.106568 0)
(-0.0176136 0.126415 0)
(-0.0207971 0.0658476 0)
(-0.0189006 0.192831 0)
(-0.0138306 0.130113 0)
(-0.0218811 0.0907497 0)
(-0.0253536 -0.104793 0)
(-0.0243429 -0.00552359 0)
(-0.0184503 -0.0203904 0)
(-0.0268057 -0.107185 0)
(-0.0214912 0.0360342 0)
(-0.0248046 -0.0245209 0)
(-0.0223857 0.0753793 0)
(-0.0268071 -0.107236 0)
(-0.0240693 -0.0393956 0)
(-0.00509169 0.13844 0)
(-0.014043 0.107911 0)
(-0.000559396 0.0172451 0)
(-0.0240896 -0.103224 0)
(0.000149423 0.0890231 0)
(-0.0246728 -0.0191174 0)
(-0.0155579 0.149506 0)
(-0.00801079 0.176418 0)
(-0.00341736 0.181106 0)
(-0.0100373 0.159167 0)
(-0.0108454 0.0622514 0)
(-0.0221968 -0.08295 0)
(-0.0175641 0.118989 0)
(-0.0203768 -0.00550178 0)
(-0.0161806 0.136298 0)
(-0.0232843 0.0380282 0)
(-0.0266705 -0.109059 0)
(-0.0218005 0.0215512 0)
(-0.0191965 0.134047 0)
(-0.0242142 -0.000473925 0)
(-0.00595707 0.160017 0)
(-0.0214984 0.111914 0)
(-0.00933748 0.0188753 0)
(-0.0160096 0.155203 0)
(-0.00219626 0.164485 0)
(-0.0130392 0.0872961 0)
(-0.0180961 0.147886 0)
(-0.00432198 0.0901856 0)
(-0.00926599 0.0687091 0)
(-0.00576534 0.188011 0)
(2.38228e-05 0.143282 0)
(-0.0208014 0.129407 0)
(-0.0179115 0.0576579 0)
(-0.0226153 0.0658768 0)
(-0.0241608 0.000409107 0)
(-0.0242675 -0.00658935 0)
(-0.0227765 0.0549976 0)
(-0.0169294 0.032307 0)
(-0.0226502 0.0643876 0)
(-0.0243285 -0.0109334 0)
(-0.00144865 0.0254919 0)
(-0.0173704 0.122271 0)
(-0.00542442 0.158969 0)
(-0.0215237 0.110835 0)
(-0.00412784 0.167471 0)
(-0.00830049 0.18692 0)
(-0.0245053 -0.0135144 0)
(-0.020224 0.164661 0)
(-0.0200254 0.132246 0)
(-0.0157193 0.0705372 0)
(-0.0264609 -0.0933876 0)
(-0.0245351 -0.0148983 0)
(-0.0270993 -0.122974 0)
(-0.0174365 0.128337 0)
(-0.00857606 0.0474266 0)
(-0.0159651 -0.01247 0)
(-0.0233673 0.0137464 0)
(-0.00410578 0.138526 0)
(-0.024204 0.000267135 0)
(-0.0218105 0.0887284 0)
(-0.00113768 0.0507115 0)
(-0.0249224 -0.0335403 0)
(-0.0209222 0.125592 0)
(-0.0156234 0.0177638 0)
(-0.0233166 0.0366646 0)
(-0.0211013 0.128408 0)
(-0.0251576 -0.0447986 0)
(-0.0171954 0.0726229 0)
(-0.0265375 -0.0966144 0)
(-0.0229249 0.0309469 0)
(-0.00525532 0.0625433 0)
(-0.0260485 -0.075895 0)
(-0.0127601 0.161029 0)
(-0.0149852 0.0294655 0)
(-0.00844224 0.106196 0)
(-0.0234562 -0.0673803 0)
(-0.0241733 -0.0985424 0)
(-0.0256109 -0.0579133 0)
(-0.0210334 0.130908 0)
(-0.0242803 -0.0722589 0)
(-0.0257788 -0.0648871 0)
(-0.0235773 -0.0539366 0)
(-0.0035992 0.131176 0)
(-0.00721642 0.191226 0)
(-0.00725972 0.0909567 0)
(-0.0206995 0.139548 0)
(-0.0161723 -0.00484275 0)
(-0.00332773 0.0332147 0)
(-0.0130318 0.147376 0)
(-0.0165284 0.0770567 0)
(-0.0253693 -0.0479609 0)
(-0.0268715 -0.109902 0)
(-0.026009 -0.0804808 0)
(-0.0238181 0.0162161 0)
(-0.022224 0.0815317 0)
(-0.00699286 0.179013 0)
(-0.00713903 0.133771 0)
(-0.0177457 0.0606982 0)
(-0.0218451 0.0925386 0)
(-0.0161321 -0.0105964 0)
(-0.00153385 0.00145461 0)
(-0.0201629 0.103218 0)
(-0.0224568 0.0708058 0)
(-0.0269524 -0.125763 0)
(-0.00283319 -0.002093 0)
(-0.0186552 0.129619 0)
(-0.0214033 0.0500217 0)
(-0.024178 -0.00608635 0)
(-0.0210955 0.128654 0)
(-0.0149294 -0.0229976 0)
(-0.011216 -0.0119173 0)
(-0.0206575 -0.0351509 0)
(-0.021871 0.0942123 0)
(-0.0228071 -0.0681275 0)
(-0.0246337 -0.0175341 0)
(-0.0121419 0.145401 0)
(-0.00230609 0.029412 0)
(-0.0151494 0.0270063 0)
(-0.00885635 0.104917 0)
(-0.0147661 0.137121 0)
(-0.0252628 -0.0494476 0)
(-0.0269755 -0.114747 0)
(-0.025994 -0.0737915 0)
(-0.0014877 0.181931 0)
(-0.00412236 0.090662 0)
(-0.0200059 0.165316 0)
(-0.0185789 -0.0041589 0)
(-0.0234972 0.0283789 0)
(-0.0241748 0.0014758 0)
(-0.00753973 0.180285 0)
(-0.0217085 0.103342 0)
(-0.0265543 -0.0970112 0)
(-0.0208324 0.139254 0)
(-0.0249921 -0.0911079 0)
(-0.0226346 -0.00413379 0)
(-0.0253025 -0.0451206 0)
(-0.021901 0.0215394 0)
(-0.0137303 0.171655 0)
(-0.0169992 0.177485 0)
(-0.0202844 0.145282 0)
(-0.015918 0.0883469 0)
(-0.0190652 0.19152 0)
(-0.00347181 0.132849 0)
(-0.0257688 -0.0651032 0)
(-0.0219146 0.0926625 0)
(-0.00932069 0.0207657 0)
(-0.00915159 0.163414 0)
(-0.0182605 0.147422 0)
(-0.0214461 0.10738 0)
(-0.0225584 0.0057179 0)
(-0.00229777 0.0266551 0)
(-0.0225823 -0.0369 0)
(-0.00107744 0.169725 0)
(-0.0218817 -0.0327381 0)
(-0.0185718 0.189971 0)
(-0.000490065 0.07038 0)
(-0.0265857 -0.0992294 0)
(-0.0263886 -0.0899541 0)
(-0.00364786 0.134286 0)
(-0.0225317 -0.00365517 0)
(-0.0241491 -0.095535 0)
(-0.00372519 0.0805678 0)
(-0.027201 -0.123981 0)
(-0.0265396 -0.0962299 0)
(-0.0227193 0.0615271 0)
(-0.0270431 -0.11702 0)
(-0.00487753 0.0866087 0)
(-0.0156324 0.128886 0)
(-0.0180009 0.106894 0)
(-0.00400511 0.155266 0)
(-0.0261497 -0.0868029 0)
(-0.0226868 0.00172481 0)
(0.000228027 0.0267477 0)
(-0.0249757 -0.0676841 0)
(-0.00334758 0.176873 0)
(-0.0251506 -0.0396793 0)
(-0.0231592 -0.00341033 0)
(-0.0251233 -0.03771 0)
(-0.000609877 0.169307 0)
(-0.0151147 0.119487 0)
(-0.00873293 0.18788 0)
(-0.023936 -0.00167834 0)
(-0.0233384 0.0169996 0)
(-0.00655832 0.123502 0)
(-0.0265991 -0.0986844 0)
(-0.0245735 -0.0149829 0)
(-0.0196742 0.182751 0)
(-0.0220668 0.0885405 0)
(-0.0257345 -0.0635902 0)
(-0.0258096 -0.0661452 0)
(-0.0248397 -0.0259711 0)
(-0.00609778 0.123269 0)
(-0.00305913 0.122706 0)
(-0.0168597 0.0190529 0)
(-0.0265035 -0.10387 0)
(-0.0245309 -0.0893075 0)
(-0.023208 0.022129 0)
(-0.0208013 0.140817 0)
(-0.01826 -0.0189768 0)
(-0.00633177 0.0104536 0)
(-0.000196767 0.126156 0)
(-0.0268206 -0.124265 0)
(-0.0103991 0.0107953 0)
(-0.0217452 -0.0034155 0)
(-0.0131346 0.144554 0)
(-0.0264409 -0.0937884 0)
(-0.00733006 0.160604 0)
(-0.00824372 0.0542661 0)
(-0.00258663 0.0922045 0)
(-0.00947022 0.118677 0)
(-0.000862776 0.00908679 0)
(-0.0117036 0.178199 0)
(-0.0260945 -0.0845831 0)
(-0.0138839 0.170424 0)
(-0.0245654 -0.015149 0)
(-0.00289245 0.116687 0)
(-0.00906386 0.105384 0)
(-0.0247461 -0.0221717 0)
(-0.0251368 -0.038369 0)
(-0.0264808 -0.0937808 0)
(-0.0263988 -0.0925627 0)
(-0.0116194 0.18566 0)
(-0.026622 -0.10189 0)
(-0.00819802 0.0440393 0)
(-0.0178017 0.165038 0)
(-0.0149301 0.121722 0)
(-0.000820427 0.105474 0)
(-0.0212205 -0.044478 0)
(-0.0211291 0.12725 0)
(-0.0194525 0.0159747 0)