/*--------------------------------*- C++ -*----------------------------------*\
| =========                 |                                                 |
| \\      /  F ield         | OpenFOAM: The Open Source CFD Toolbox           |
|  \\    /   O peration     | Version:  v2012                                 |
|   \\  /    A nd           | Website:  www.openfoam.com                      |
|    \\/     M anipulation  |                                                 |
\*---------------------------------------------------------------------------*/
FoamFile
{
    version     2.0;
    format      ascii;
    class       volVectorField;
    location    "450";
    object      ddtCorrDdt0(U);
}
// * * * * * * * * * * * * * * * * * * * * * * * * * * * * * * * * * * * * * //

dimensions      [0 1 -2 0 0 0 0];


internalField   nonuniform List<vector> 
13851
(
(-0.00588277 -0.00200454 5.22207e-18)
(-0.00240731 0.00103242 -5.93774e-19)
(-0.00236819 0.000990234 1.15745e-18)
(0.000180681 -0.00260685 5.39489e-17)
(-5.49832e-05 1.23625e-05 -7.62863e-20)
(-0.00255178 0.00149155 -7.01704e-19)
(-0.00256494 -0.000204208 4.39207e-18)
(-0.000369235 2.26778e-05 -1.70774e-19)
(0.0175666 -0.00259317 1.42797e-18)
(-7.72336e-05 0.000713021 -6.13572e-18)
(-0.00315003 0.00359844 -9.63477e-19)
(-8.92998e-05 0.000289885 -6.26184e-18)
(-0.000189304 0.00113164 -2.08415e-17)
(0.01783 -0.00206155 2.95999e-18)
(-0.00378781 0.000594502 -7.63963e-19)
(-0.00603773 0.00152039 8.89561e-18)
(0.00370703 -0.000122428 1.59659e-18)
(-0.0012065 0.000605234 6.13886e-20)
(-0.00951542 0.00548738 -2.32046e-17)
(-0.00604732 -0.0017305 -4.23691e-18)
(-0.00408948 0.000890591 -4.4035e-18)
(-0.00139366 0.00217768 4.95139e-18)
(0.0188849 -0.00305764 -4.26434e-17)
(-1.94951e-06 5.51734e-06 -1.15349e-17)
(-0.00984383 0.00555887 5.08029e-18)
(-0.00439164 0.000242513 4.89766e-18)
(0.00277865 0.00240023 2.44656e-18)
(0.00340425 -0.00261736 -1.3779e-17)
(0.0211392 0.000766679 -5.3504e-18)
(-0.000668694 0.000351464 1.11134e-18)
(0.0133048 0.000273858 -4.34936e-17)
(-0.00255064 -0.00017822 -2.59391e-18)
(-0.00472901 -0.00208597 -1.62107e-17)
(0.0337757 -0.00767326 -9.49176e-18)
(-0.00297752 0.00297171 2.11902e-18)
(0.0223443 0.000398905 5.13223e-19)
(-1.16211e-06 4.97381e-06 1.1362e-17)
(-0.00974436 0.00572244 4.57977e-18)
(0.0215721 -0.0013409 2.29465e-17)
(-0.000624239 0.00113644 -1.84079e-18)
(0.0341473 -0.00044535 3.58666e-18)
(0.0223067 0.000888453 2.44447e-18)
(-0.00100258 -0.000248359 3.46159e-17)
(-0.000144949 0.0043754 -3.29551e-17)
(0.0220238 0.00128156 -6.9819e-18)
(-0.000588168 0.000675055 -1.63185e-19)
(-0.000475785 -2.10313e-05 5.83604e-19)
(-0.00384804 0.00216456 2.74696e-18)
(-0.00153861 0.00159251 -8.54567e-19)
(-0.000177795 0.00112532 1.78777e-17)
(0.00944114 0.000545589 -3.3432e-17)
(-0.000115776 0.00121618 4.18394e-18)
(-0.00581163 0.00161172 -8.85271e-18)
(-0.00339571 -7.97706e-05 1.9009e-18)
(0.0139851 -0.000987412 5.84887e-18)
(-0.000611679 0.00114582 1.79688e-18)
(-0.00493929 -0.0022725 1.47758e-17)
(0.0330454 -0.000212777 -4.03968e-18)
(0.00965174 0.00758505 -4.78049e-18)
(0.0258965 -0.00191506 1.40359e-18)
(-8.15493e-05 0.00027463 -2.84834e-18)
(0.00154682 0.00201148 -6.13437e-20)
(-2.1225e-05 0.000466575 1.19584e-18)
(-0.00154508 0.00164121 8.47937e-19)
(0.000386794 0.00367485 8.99911e-19)
(0.000480754 0.00366126 -4.14208e-18)
(0.0247971 -0.0018065 -5.5529e-18)
(0.000172073 0.00254262 6.33558e-18)
(-0.000900331 0.00112469 3.70134e-18)
(0.00192583 0.000424673 6.05893e-17)
(0.00941897 0.000886571 -1.41039e-17)
(-0.00449884 0.000907794 -2.19489e-18)
(-0.000323809 0.00099832 3.1173e-19)
(0.0250142 -0.00179607 -7.56461e-20)
(-0.00349593 0.000119054 8.82644e-19)
(-0.00108857 0.00183267 -5.79922e-18)
(0.00455528 -0.000158561 1.70509e-17)
(-0.000656641 0.000161392 2.85575e-18)
(-0.0117355 0.00662481 2.21082e-18)
(-0.000307826 0.000582055 2.76477e-19)
(-0.000932928 0.00113903 1.10049e-18)
(-0.00383868 0.00451579 -1.07237e-17)
(-0.00290014 0.00294542 -5.60244e-19)
(0.0191073 -0.00219985 -1.29345e-17)
(0.0255262 -0.00200027 1.66931e-19)
(0.0113403 0.00028467 1.26488e-17)
(-0.00143866 0.00221639 -3.95288e-18)
(0.0163485 -0.000313702 -2.90783e-18)
(-0.000121206 0.00074264 -8.80399e-18)
(0.013722 -0.000256231 2.18797e-17)
(-0.000106229 0.00123424 -8.37433e-18)
(-0.00259187 -0.000140123 -3.551e-18)
(0.00236774 -5.23982e-05 -9.67286e-18)
(0.0088419 0.000555649 -1.73673e-17)
(0.0153999 0.00212149 -1.63495e-17)
(-0.000162673 0.004281 1.93382e-18)
(-0.00049804 0.000744235 -1.91218e-18)
(-0.00495278 0.00235079 -4.14447e-18)
(0.0195117 0.000749106 -1.53828e-17)
(-0.0027014 0.00502691 3.77106e-18)
(-0.00474775 0.00266125 1.05072e-17)
(-1.36323e-05 0.00251422 2.65325e-18)
(-9.12291e-06 0.0026107 -1.86493e-17)
(-0.00031981 0.00110663 5.90578e-18)
(-0.000680087 0.000660436 7.44987e-19)
(-0.00440254 0.00149384 -7.24611e-18)
(-0.000655732 0.000653468 3.14111e-18)
(0.0104672 0.000824885 1.71498e-17)
(-0.00257252 -0.00011336 2.21263e-18)
(-0.0011723 0.000585427 2.4305e-18)
(-0.00116323 0.00265264 -6.78855e-18)
(-0.000613416 0.000685519 1.40329e-18)
(-0.00500668 0.00464968 7.23022e-18)
(-0.00414589 0.00307251 -4.82149e-18)
(-0.0028991 -0.00143021 -1.50152e-18)
(-0.00334223 -6.76383e-05 -1.84714e-18)
(-0.000442371 0.000230566 1.643e-18)
(-0.000384663 2.5431e-05 -1.87413e-19)
(0.00023581 -0.00235606 -4.23413e-17)
(0.00365776 0.000441516 -3.71426e-18)
(-0.000327064 0.00443293 -3.05757e-18)
(-0.000962403 0.000477661 -8.94172e-19)
(-0.000806327 0.00114772 6.94884e-20)
(0.0274274 -0.00348446 -4.6379e-18)
(-0.0103604 0.00176493 3.63972e-18)
(0.000315612 0.00266565 2.79544e-17)
(-0.000503503 0.000729829 -2.48906e-19)
(-0.00222796 0.00370992 8.86929e-18)
(0.0325181 -0.0047112 -6.10435e-18)
(-0.0042011 0.000545947 6.78114e-18)
(-0.00134188 0.0022015 -9.47974e-19)
(-0.00265349 0.00225493 1.13735e-18)
(-0.00945386 0.00521784 3.10275e-17)
(0.0328043 -0.00762508 -2.31061e-18)
(-0.00324349 0.00363405 -1.39418e-18)
(0.0149795 0.00127886 -1.94128e-17)
(0.000179132 0.00253273 5.23808e-17)
(0.0113626 0.000167117 2.92447e-18)
(-8.76599e-05 0.00238161 -7.70433e-19)
(-0.00408395 0.000428771 -3.65856e-18)
(-0.00378291 0.00454244 1.39496e-17)
(-0.00038922 0.00153157 -2.57534e-18)
(-0.000122731 0.000767775 1.25039e-17)
(0.000327148 0.00304237 -3.08167e-17)
(-0.00285179 0.00735889 2.1896e-17)
(-0.000894261 0.00179837 1.97887e-18)
(-0.000644953 0.000148302 -4.77718e-19)
(0.00951741 0.000621139 -6.88545e-19)
(0.0161072 3.97147e-05 -1.24267e-17)
(-0.00225808 0.00378534 -1.02792e-17)
(-0.00441456 0.0026371 -3.43709e-18)
(-0.00489649 0.00455763 -9.69901e-18)
(-0.00422401 0.00315148 -4.55558e-18)
(-0.00927645 0.00403797 3.67972e-18)
(-0.000196246 0.00131159 5.6839e-18)
(-8.66326e-05 0.000956291 -3.09063e-18)
(-7.11771e-05 0.000217482 6.77143e-18)
(0.0180181 -0.00133291 -3.9884e-17)
(-0.00400275 0.00050998 -5.41434e-18)
(-0.00242184 0.000187996 1.41991e-18)
(-3.83602e-06 1.298e-05 1.79405e-18)
(0.0216691 0.000607691 4.97754e-18)
(-0.00433992 0.00142835 8.87685e-18)
(-0.00361848 0.00204642 3.54201e-18)
(0.0176908 -0.00194834 -1.01119e-18)
(0.018583 -0.00167197 1.91954e-18)
(0.0189997 -0.00208093 -5.04209e-18)
(0.00917397 0.000804412 1.37865e-17)
(-0.00117792 0.00260398 -1.59476e-18)
(0.0506975 0.00097636 -3.36144e-18)
(-6.86657e-05 0.000256143 -1.2144e-18)
(-0.000436439 0.000218828 -1.9183e-18)
(-0.00478306 0.00198453 -5.00751e-18)
(-2.85354e-05 1.13516e-05 -4.44616e-18)
(0.0175516 0.00245391 3.29851e-18)
(-0.00302722 -0.00662984 2.76088e-18)
(-0.00203189 0.00230665 -1.61236e-19)
(-0.000453882 0.000216436 -1.19664e-18)
(-0.00349291 5.8974e-05 3.96669e-18)
(-0.00247709 0.00228183 -3.12822e-18)
(-0.0101084 0.00147102 -3.11029e-18)
(-0.000248236 0.00433849 1.81066e-17)
(-0.00126656 0.00253978 7.26736e-18)
(-0.00413779 0.000522368 -3.44509e-18)
(0.00109007 -0.000300927 -1.03269e-17)
(0.0163605 0.000175775 4.44727e-18)
(-0.00445182 -0.00218396 -1.15976e-18)
(-0.000152686 0.00219391 -4.46814e-18)
(-0.000217851 0.0012469 7.88856e-19)
(-0.000650977 0.000488582 2.77655e-18)
(-0.0140425 0.00844908 2.51201e-17)
(-0.0040111 0.000543747 -2.07587e-18)
(0.0172592 -0.00169259 5.15414e-18)
(-0.00260906 0.00145694 -2.40128e-18)
(-0.000908666 0.00175888 1.4224e-18)
(-0.00544146 0.00202726 7.47243e-18)
(-0.00426133 -0.0019841 7.40187e-18)
(-0.0016191 0.000413249 -5.01238e-20)
(-0.00140389 0.00086942 -1.94051e-18)
(0.000175117 0.0026472 6.35528e-18)
(-0.00370755 0.00463139 9.18684e-18)
(0.0221506 0.00417711 7.87037e-18)
(0.0325048 0.000908272 1.95637e-18)
(-0.00375471 0.000557123 1.60704e-18)
(0.000508332 0.00474921 -8.0731e-18)
(0.020916 0.00383786 -1.92826e-18)
(-0.000114481 0.00174052 1.22072e-17)
(-0.003939 0.000267041 -3.06144e-18)
(0.018487 -0.00338862 8.27611e-18)
(-0.00233157 0.00159766 1.11377e-18)
(-0.00620534 0.00104852 -3.69075e-18)
(-0.000783712 0.00112656 -2.9302e-18)
(-0.0037801 0.00461319 2.99405e-18)
(-7.02303e-06 7.03411e-05 1.68052e-18)
(-0.00313002 0.00291453 -4.62753e-18)
(-0.00116715 0.00197494 -4.89788e-18)
(-0.000176119 0.0010909 -1.00052e-18)
(-0.00857239 -0.00310214 -3.91027e-18)
(-0.00155021 0.000663116 3.57218e-19)
(-4.11603e-05 0.00238881 -3.647e-17)
(-0.000451245 0.000204046 4.65209e-20)
(-0.00654293 -0.0014419 -3.79165e-18)
(0.0188488 -0.00199932 6.90515e-18)
(0.0159683 0.00166173 1.19704e-17)
(-0.000196432 0.00222806 -3.0718e-17)
(-0.00394139 0.000254975 3.21256e-18)
(-1.70124e-06 3.46462e-05 -2.60554e-18)
(0.000230017 0.00289596 -2.80703e-18)
(-0.0001742 0.000470178 -1.90079e-18)
(-0.00304627 0.00289476 4.81563e-18)
(0.0101021 -0.00679347 -3.02916e-18)
(-0.000172367 0.00217834 -1.98371e-18)
(-0.00234754 0.00155085 2.80953e-20)
(-8.52217e-06 0.000419431 7.0925e-18)
(0.0322041 0.000571785 3.16888e-18)
(-0.000690181 0.000346057 -1.80167e-20)
(0.0115494 4.46246e-05 -4.56024e-18)
(0.0314478 0.00148623 -9.93701e-18)
(-0.0026293 0.00489157 4.05002e-18)
(-2.69463e-06 1.24179e-05 7.77376e-19)
(-0.000679792 0.0074618 9.42638e-18)
(0.0250891 -0.00202354 8.92172e-18)
(0.0231305 0.00144817 7.7264e-18)
(-0.00604304 0.00116117 1.30969e-18)
(-0.00353641 0.00122853 1.44144e-18)
(0.000581771 0.00290768 2.82167e-17)
(-0.0081181 -0.00283315 -1.97223e-18)
(-0.00351627 2.82645e-05 -1.98358e-18)
(-0.000165326 0.00427015 -1.12251e-18)
(-0.00137909 0.00278093 -2.15695e-18)
(0.0137976 -0.000342737 3.09498e-18)
(-0.00769835 0.00145398 1.50339e-17)
(-0.000285909 2.56798e-05 -2.80457e-19)
(-0.0028177 0.000929121 2.42394e-20)
(-0.00527333 0.00237226 -2.03748e-18)
(0.0213378 0.00052163 -3.7834e-18)
(0.0189107 -0.000377779 2.62689e-18)
(-0.000631362 0.00046856 -3.48952e-18)
(0.000304799 0.00255446 -6.10512e-17)
(-0.000129104 0.000742892 -7.42605e-18)
(-0.00434552 -0.00400256 1.23576e-17)
(-0.0100469 0.00256975 -2.12799e-18)
(-0.00288177 0.000932638 1.07003e-18)
(-0.00441606 0.00133006 6.18378e-18)
(-0.00790422 0.00165403 -1.39976e-17)
(-0.000344808 0.000864298 -6.07135e-18)
(-5.60618e-06 0.0025447 6.86973e-18)
(-0.00358933 0.00133014 1.46998e-18)
(-0.00869689 -0.00272226 6.52519e-18)
(-7.48008e-05 0.000438322 3.61783e-18)
(-0.000162058 0.00108203 1.30659e-18)
(-0.000165796 0.00222259 3.23021e-17)
(0.0224669 -0.00574341 1.18888e-18)
(-0.00228801 -0.000734705 3.25503e-17)
(-0.00427253 0.000786804 -8.67765e-18)
(-0.00100023 0.000495922 -2.71379e-18)
(-0.0103733 0.00097608 -1.22473e-17)
(-0.00971043 0.0033373 1.96797e-18)
(-0.00364344 -0.00133346 -8.89978e-18)
(-0.00436532 0.00126285 -5.04117e-18)
(0.0220222 -0.00551796 2.76602e-18)
(0.0232088 -0.000275479 1.03837e-18)
(-0.00287314 0.00118622 -3.03735e-18)
(-0.00361599 0.000587346 1.62023e-18)
(-0.00314974 0.00359832 -2.0147e-19)
(-0.000729117 0.000626285 -3.4504e-18)
(-6.51953e-05 0.000202405 1.1475e-18)
(-0.00374529 -0.00155897 1.00266e-17)
(-0.00279093 0.00355975 -1.1487e-17)
(-0.000739048 0.000352369 3.44741e-18)
(-7.6325e-06 6.70534e-05 -2.83936e-18)
(-0.000178815 0.000488457 -6.43057e-19)
(-0.000116249 1.72647e-05 -4.24502e-18)
(-0.00357684 0.000966171 5.98039e-19)
(-7.25749e-05 0.000214757 -4.35618e-18)
(0.0181637 -0.00300128 -4.84799e-18)
(-0.00417833 0.000870937 5.56337e-18)
(-0.000640747 0.000962564 -2.84736e-18)
(0.0214868 0.000389247 1.57889e-18)
(0.0268516 -0.00324176 5.14625e-18)
(-0.000164352 0.0012312 -2.66032e-18)
(-0.00644565 -0.00175271 2.59006e-18)
(0.0145577 0.000412185 -1.68539e-17)
(-0.00039628 0.00157223 8.78852e-18)
(-0.000156666 0.00125412 1.16749e-17)
(-0.00425977 0.000925743 2.54359e-18)
(0.020527 -0.00204693 -3.42009e-18)
(0.0378033 -0.00220813 3.68737e-18)
(-0.00519267 0.00163539 -1.2466e-17)
(-6.13477e-05 1.64114e-05 -2.826e-18)
(0.0498005 0.00032728 9.95737e-18)
(-7.64874e-05 0.000272156 4.42139e-18)
(-0.00539872 0.00183763 -7.87802e-20)
(0.0140833 0.000794975 1.60453e-17)
(-0.00889343 -0.00274226 -5.11522e-18)
(-0.00237044 0.000185184 -1.15264e-18)
(-0.0128839 0.00767587 1.92013e-17)
(-0.00403834 0.00500404 1.44211e-17)
(0.0130483 0.000402555 -2.18094e-17)
(-0.00464173 0.00450929 -4.03498e-18)
(3.35287e-05 0.0024821 -4.7889e-18)
(0.0183932 0.00105095 1.52485e-17)
(0.0291711 -0.003931 -3.61275e-18)
(-0.00450322 -0.000771012 -1.09128e-18)
(-0.00144525 0.000897462 -9.36564e-19)
(0.0029938 0.000438049 2.87715e-17)
(0.00996013 -0.000204841 -4.34795e-18)
(0.000579186 0.00252538 1.1186e-17)
(0.000697568 0.00261208 2.98233e-17)
(-0.000130866 0.00176129 -2.25559e-17)
(-0.00503716 0.00196247 1.57052e-17)
(-0.000483795 0.00238708 1.1528e-17)
(0.0166384 -0.000194164 -1.72476e-17)
(4.61153e-05 0.00259694 5.23012e-17)
(-0.00022785 5.49458e-05 1.16775e-18)
(-0.000482267 -2.16726e-05 -6.9735e-19)
(-0.00195668 0.00222213 -5.468e-19)
(0.010809 0.000192983 3.19255e-17)
(4.96418e-05 0.00240971 4.28027e-17)
(-0.000724654 0.00061056 -1.8264e-18)
(0.0148468 0.00190729 -1.33777e-17)
(-0.000420816 0.00237752 1.18149e-17)
(-0.00263197 0.00231345 -4.23736e-18)
(-0.0024492 0.00016721 -2.65285e-18)
(0.0201138 -0.00167849 1.89326e-18)
(-0.0101726 0.000665242 1.29899e-17)
(-0.0057417 0.00198513 -4.2414e-18)
(-0.00112804 0.00193203 1.31723e-19)
(-0.00228675 0.00150564 -6.67136e-20)
(0.0230121 -0.000359693 4.48765e-18)
(-0.000233671 0.00126655 -3.74969e-18)
(-0.00970551 0.00384973 1.51204e-18)
(-0.0028512 0.00113891 -3.15598e-19)
(-0.00427749 0.000981956 2.37647e-18)
(-0.000390485 0.00239919 -1.99131e-17)
(-0.000126655 0.000755326 4.7718e-18)
(-0.000650844 0.000946028 -1.56761e-18)
(-0.00367313 0.00435894 -7.44278e-18)
(-0.00284405 0.00502269 -1.58089e-18)
(-0.00774433 0.00095532 -4.64977e-19)
(-0.00811782 0.00508526 -5.58134e-18)
(0.023443 -0.000388143 -2.28583e-18)
(-0.000919578 0.00182352 -4.29473e-18)
(0.0309851 0.00108711 3.93254e-18)
(-0.0052083 -0.00534389 1.7405e-18)
(-0.000904882 0.000232323 -1.45152e-18)
(-0.000949217 -0.00442945 1.0738e-17)
(-0.00557811 -0.00036071 3.6205e-18)
(0.0196602 0.000863308 2.40927e-17)
(-0.00193132 0.00216136 8.90166e-19)
(-0.00466897 8.57409e-05 1.24496e-18)
(-0.00304819 0.00843447 8.96961e-19)
(-0.0124789 0.00508437 -1.49286e-17)
(-0.00356182 0.00433968 2.76987e-17)
(0.0159648 -0.000159287 -1.66064e-18)
(-0.00155045 0.00119731 1.24664e-18)
(-0.00399295 -0.0076561 -8.78265e-18)
(-0.000970331 -6.44531e-05 -3.45632e-17)
(-0.0032249 0.00145245 1.62355e-19)
(0.0143147 -0.000271969 2.99166e-18)
(-0.00338596 0.00160373 1.97889e-18)
(0.0319271 0.0022715 -4.18238e-18)
(-0.00357723 0.000601945 -3.58431e-18)
(-0.00384732 -0.000221252 5.42085e-19)
(-0.0076446 0.00211912 8.39539e-18)
(-0.0032015 0.00495192 -3.64773e-17)
(-9.9209e-05 0.00096234 -1.99392e-18)
(-0.00273881 0.00127656 -9.25841e-19)
(-0.00280039 0.00363917 4.17152e-19)
(-0.00352116 9.20493e-05 -3.33734e-18)
(-0.000574689 0.000743926 2.44985e-18)
(-0.00429034 0.000724009 6.72515e-18)
(0.038637 -0.010301 -1.23246e-17)
(-0.000327429 0.000986245 6.541e-18)
(-0.00395699 0.000287221 1.21049e-18)
(0.00184232 -0.002237 1.46459e-17)
(-0.00211453 0.00137464 2.69028e-19)
(-0.00214906 0.00346849 -1.72281e-18)
(-0.00391033 7.97177e-05 -9.06639e-18)
(0.0389168 -0.00221102 1.78444e-18)
(-0.00237648 0.00165344 -5.50638e-19)
(-0.00434664 0.000194431 -2.3091e-18)
(0.00111943 0.00452584 2.95906e-18)
(-0.0103227 0.00234485 4.18832e-18)
(-0.00430859 0.00165151 4.67629e-18)
(0.0185724 -0.000446148 -3.85194e-19)
(0.0245769 -0.00186041 -9.52724e-18)
(-3.19904e-06 0.00671871 -1.428e-17)
(-0.000338141 0.000875703 -8.45844e-18)
(-0.00370588 0.004326 1.93311e-18)
(-0.00332403 0.00178735 4.99534e-19)
(-0.00460005 0.000129661 -2.38106e-18)
(-0.000920387 0.000525541 1.61305e-18)
(8.56983e-05 -0.000144418 -2.52895e-17)
(0.0412593 -0.00690266 9.25824e-19)
(-0.0115868 0.00580074 -3.96127e-18)
(-0.00229226 0.00145417 -2.27953e-19)
(-0.00784192 0.00201987 -9.25991e-18)
(0.00174143 -0.00143544 -5.78822e-18)
(-0.00174401 -0.00117865 -8.49942e-18)
(-0.000742587 4.25727e-05 -1.0966e-19)
(0.00187895 0.000305915 -1.50129e-17)
(-0.00358502 0.0048134 -1.35878e-17)
(0.0172327 -0.00561449 3.20356e-17)
(-0.00141329 0.00284979 3.58109e-18)
(-0.00671847 0.00847565 -2.4328e-18)
(-0.000176027 0.000947954 3.45782e-18)
(-3.32684e-05 9.7083e-06 -3.24239e-19)
(0.0135373 -0.000795119 -6.32077e-18)
(0.00135884 -0.00312583 5.72779e-18)
(-8.21307e-05 0.000740676 1.10782e-17)
(-0.00238873 0.00106917 6.93773e-19)
(-0.00399791 0.000290753 -1.83896e-18)
(-0.000395109 0.00025038 1.42819e-18)
(0.0409285 -0.00732213 9.40696e-18)
(-0.00513678 0.00188144 -1.03257e-17)
(-0.00556696 -0.000224052 -4.74506e-18)
(-0.00286891 0.000467678 -8.54798e-18)
(-0.00156926 0.00116857 -5.92227e-19)
(-6.54169e-05 0.00122146 1.49227e-17)
(-0.0120886 0.00543841 1.4394e-17)
(-0.000608473 0.000946753 -1.32688e-18)
(-4.81227e-05 0.00117869 -3.91837e-18)
(0.0353084 0.00188795 4.34969e-19)
(0.0387354 -0.0102481 1.19509e-17)
(-0.00129258 0.00214263 -2.45367e-18)
(-0.00243437 0.00643134 -5.9756e-18)
(-1.69145e-05 0.000465894 -3.19627e-18)
(-6.99186e-05 0.000202361 -1.70105e-18)
(-0.00217003 0.00141662 -1.28211e-19)
(-0.00788358 0.00111914 3.15926e-18)
(-0.00393201 -1.11384e-05 -3.71115e-18)
(-0.000592155 0.000788856 -7.90867e-18)
(-0.00185606 0.00105356 -2.2225e-19)
(-0.000376501 0.00448572 1.89622e-18)
(-0.0022028 0.000785521 -2.97904e-19)
(0.0388134 -0.00219103 -2.76574e-17)
(-8.43653e-05 0.000263872 3.55473e-18)
(-0.00309246 0.000178092 1.14828e-18)
(0.0220649 0.00129432 1.84048e-18)
(-0.000452577 0.0026834 -2.2664e-18)
(-0.000495057 6.73977e-06 -2.61845e-19)
(-5.60616e-05 0.000249833 6.16212e-19)
(-0.00283728 0.000489188 7.7012e-18)
(-0.00173907 0.00039876 4.92285e-19)
(0.000624176 0.0055253 2.68501e-17)
(0.0333348 0.000976591 4.35062e-19)
(-0.00359327 0.0012002 -2.21355e-18)
(-8.75641e-05 0.00189192 -9.62725e-18)
(-0.00222743 0.00140078 -2.37329e-19)
(-0.000114482 0.000409165 2.04373e-18)
(0.0287313 -0.00641846 -7.11339e-18)
(-0.00380611 0.00786571 3.99541e-18)
(-0.000168277 0.00247855 2.62735e-17)
(-0.000391852 0.00105352 2.58283e-19)
(0.0282075 -0.00386869 8.16503e-18)
(-0.000117302 0.00239184 -1.44248e-17)
(-0.000987081 0.00569152 5.34352e-18)
(-0.000304585 0.00109843 -1.14042e-17)
(-0.00276694 0.0022113 -1.08288e-19)
(-0.00362363 0.00435592 -3.04343e-17)
(-0.0036077 0.000241557 -1.22043e-18)
(0.0302872 -0.00432875 -7.48515e-19)
(0.0023037 -0.000857982 2.73492e-18)
(-0.0132644 0.00521464 -1.01234e-18)
(-0.000567643 0.00186012 -4.01582e-18)
(-0.00473563 0.00461004 3.12334e-18)
(-0.000376876 0.000880928 -4.21704e-18)
(0.0208265 0.000673623 3.57515e-18)
(-0.00388978 8.63635e-05 3.97962e-18)
(-0.00402512 -0.00193487 6.37134e-18)
(-0.003312 0.00172252 -1.98518e-18)
(-0.00112537 0.00187814 2.63848e-18)
(-0.000462627 0.00267155 1.11631e-19)
(-0.00488841 0.00189242 -1.09135e-17)
(-4.91273e-05 1.48761e-05 2.23567e-18)
(-0.00196937 0.000311207 -2.55994e-17)
(0.0282638 -0.00595138 6.25084e-19)
(0.0384657 -0.00183887 -1.40495e-17)
(0.00129843 0.00103866 6.89584e-18)
(0.0336459 0.0014737 -1.12494e-17)
(0.00657177 -0.000624544 1.60517e-18)
(-0.0100831 0.00314546 -2.9412e-18)
(-0.000249488 0.00217899 1.36655e-17)
(-1.14286e-05 0.000154181 8.57429e-18)
(-0.000284534 0.00341407 5.36792e-17)
(-6.8744e-05 0.000705208 1.9993e-18)
(-0.000557736 0.000725091 -2.90951e-18)
(-0.000264188 0.00230413 5.07633e-18)
(0.0191226 0.00289623 3.127e-17)
(-0.00239941 0.000829285 2.47738e-18)
(-0.000328392 0.00151481 7.77231e-19)
(-0.000701466 0.00409025 -3.13169e-19)
(-0.00400482 0.00233494 -6.0493e-18)
(-2.85195e-05 0.000744443 -1.10029e-18)
(0.0458634 -0.00225093 -3.42314e-19)
(-0.000458647 0.000722778 -3.40771e-18)
(0.03257 -0.00591313 8.56821e-18)
(0.00066579 0.0056494 3.2532e-18)
(-0.000325147 0.000597775 -1.56073e-18)
(-0.00233031 0.000522675 1.05762e-18)
(-0.0035927 0.0047008 1.63423e-18)
(-0.000750489 -0.00397762 -1.09152e-17)
(-0.000718891 0.00036129 -4.565e-19)
(0.0100573 0.00223849 -3.71198e-18)
(0.00426277 -0.00402504 -5.87927e-17)
(-0.00107175 2.90005e-05 -1.25902e-19)
(0.0170834 -0.00118358 3.07211e-17)
(-0.00947918 0.00489955 1.20704e-17)
(-0.00692547 -0.00105745 -3.69983e-18)
(-0.000544194 0.0018411 2.87429e-18)
(0.0349315 0.00260826 1.55143e-18)
(0.0255971 -0.00106353 1.7952e-17)
(-0.00110272 4.04834e-05 -1.80227e-19)
(-0.00485296 0.00571941 -7.90539e-19)
(-0.000849805 0.00113358 2.61454e-18)
(-0.000476627 0.000737488 5.66721e-19)
(0.0378084 -0.00310342 -5.75058e-18)
(0.0321668 0.00241514 6.57202e-18)
(-0.00363635 0.00197303 7.03563e-18)
(-0.00391643 -4.15183e-05 4.70041e-19)
(-5.7611e-05 0.00071467 6.6332e-18)
(-0.0040534 0.000199147 -1.12079e-18)
(0.0330354 -0.00526716 -3.24903e-19)
(0.0174375 -0.00035135 3.82055e-19)
(-0.00123231 0.000180419 3.28502e-19)
(0.00488262 -0.000282733 -3.74086e-17)
(-0.000573403 0.000772285 5.95048e-18)
(-0.000882968 0.00115029 -1.63794e-19)
(-0.00438573 0.00161301 8.987e-19)
(-0.00310009 -9.12935e-06 3.68402e-18)
(-0.000750439 2.96771e-05 7.19346e-21)
(-0.00104729 0.00183106 -7.57816e-19)
(0.0182454 -0.001619 -6.73155e-18)
(-0.00316243 0.00490606 3.00808e-17)
(0.0157993 -0.0011748 -2.55508e-17)
(-0.0023238 0.000817707 2.87686e-19)
(-0.00015316 0.000753695 1.67865e-18)
(0.0219498 -0.00525042 1.02647e-17)
(-1.9728e-05 0.000207639 2.58472e-18)
(-0.00382272 0.00432889 1.20477e-17)
(-0.00309109 0.000380064 1.71884e-18)
(-0.00349901 0.000185236 -3.15708e-18)
(-0.00349364 0.0013519 2.99323e-18)
(0.0256138 0.00177126 2.0824e-18)
(0.023068 3.78193e-05 7.30974e-18)
(-0.00263226 0.00135004 1.43904e-18)
(0.000874423 2.09861e-05 -2.6812e-17)
(-0.00229491 0.000231319 2.21416e-18)
(-0.00478003 0.00250771 4.2099e-18)
(0.0225189 0.00103641 2.2245e-18)
(0.0145818 -0.00118229 -4.41982e-18)
(-0.000736063 0.00116433 -2.94065e-18)
(-0.000363819 0.000888002 6.69897e-18)
(-2.89245e-05 0.00264938 3.16145e-17)
(0.0167114 -0.00159273 1.4902e-18)
(-0.00763317 0.00459462 3.65405e-18)
(-0.00405895 0.000177646 -2.18189e-20)
(0.00407772 0.00208535 -1.01054e-17)
(-0.00312081 -2.69558e-05 -1.93351e-18)
(-0.00352676 0.000557634 4.42363e-18)
(0.0167442 -0.00835451 4.31215e-17)
(0.0451955 -0.00248456 -2.26645e-17)
(-0.000435158 0.00430283 1.01482e-18)
(0.0316408 -0.00589778 9.96936e-19)
(-0.00083024 -0.00194454 8.6562e-18)
(0.0241866 -9.7558e-05 1.33577e-19)
(-0.00143098 0.00113764 -1.28434e-18)
(0.0153553 0.00689228 -1.38001e-18)
(-0.0210724 0.00995675 2.30718e-18)
(-8.91975e-05 0.000369564 1.14408e-18)
(0.00414626 8.7335e-05 1.24497e-17)
(0.0501277 0.00136733 -2.13601e-17)
(-0.00124308 0.00260385 -2.99304e-18)
(-0.00413815 0.000455646 2.31437e-18)
(-0.000540008 0.00110802 3.43562e-18)
(0.00183624 0.0023408 -3.00088e-17)
(-0.00204727 0.00418345 1.3454e-17)
(0.017272 -0.0112122 1.98407e-17)
(-0.000603828 0.000965064 -1.16909e-18)
(-1.97648e-05 1.32014e-05 2.77893e-18)
(-0.000161187 0.00203311 6.01797e-18)
(-0.00391508 0.00235778 5.88531e-18)
(-7.92941e-05 0.000253715 -2.88576e-18)
(0.0167972 0.00276051 -3.77284e-17)
(-2.31871e-05 1.58852e-05 2.19414e-19)
(-0.00134909 -0.00201646 -4.15367e-18)
(-0.000498514 0.00184915 5.61983e-18)
(-0.00460909 0.000195612 1.76457e-18)
(-0.000320133 0.0010747 6.14027e-18)
(-3.12575e-05 0.000768115 -9.79604e-18)
(-0.00176114 0.00344743 7.12715e-19)
(0.00491887 -0.0003841 -4.82151e-19)
(-0.00424469 0.00182386 -4.38758e-18)
(0.0139073 0.00155582 8.16689e-18)
(-0.00273509 0.00224798 3.68842e-19)
(-0.000407647 0.000282285 6.3631e-19)
(-0.00102099 0.000322065 8.29084e-19)
(-0.00480585 0.0021068 6.71485e-18)
(-0.00181734 0.0010707 4.41125e-19)
(-0.00481006 0.0037113 3.97255e-18)
(-0.0025097 0.000930881 2.92901e-18)
(-0.000172562 0.00244591 -1.4347e-17)
(0.0092603 0.00804081 4.69636e-18)
(-1.85628e-05 0.000212531 2.89156e-18)
(0.0194043 -0.000618901 1.49611e-17)
(-2.96551e-06 4.70198e-05 -2.5997e-18)
(-0.00513822 0.000365051 1.66662e-17)
(0.00130855 -2.46614e-05 1.67216e-17)
(0.0198131 8.90224e-05 -9.31918e-19)
(-6.5751e-05 0.0021163 8.62793e-18)
(0.0156564 -0.00339016 -2.05109e-17)
(-0.000681687 0.00398781 6.58444e-19)
(-0.00211432 0.00568193 -2.51317e-17)
(0.0494128 0.00186642 2.50204e-17)
(-0.00133173 0.000231735 -5.88898e-19)
(0.0451813 -0.00257015 -2.5908e-18)
(-0.000448556 0.0024106 4.55327e-18)
(-0.00329745 0.00149088 1.75407e-18)
(0.00275952 0.00125261 -2.71667e-17)
(-0.00253141 0.00620076 1.20098e-18)
(-0.000924677 0.000249237 2.07178e-19)
(-0.00467687 0.00367375 -3.46311e-18)
(-0.00159933 0.000378623 6.1928e-20)
(0.0229664 -3.92313e-05 -2.46e-19)
(0.00556515 0.000437819 3.2212e-18)
(-0.00100615 0.00118051 -1.32426e-18)
(0.000195512 0.00258535 -1.61933e-17)
(0.0430581 -0.00461759 6.81169e-18)
(-1.99165e-06 4.93141e-05 1.17533e-17)
(-3.41921e-06 6.56278e-05 -9.34131e-18)
(-0.00444925 0.000245804 4.77471e-19)
(0.0189304 -0.000662384 -1.83361e-17)
(0.0348416 0.00361695 1.46443e-18)
(-0.000145565 0.00124081 -2.09392e-17)
(-0.00742998 0.00263247 1.51551e-17)
(-0.00214323 0.000767871 -9.79243e-20)
(-3.80161e-05 0.000809506 -4.32652e-18)
(0.0169811 0.0066573 -5.8501e-18)
(-0.00766825 0.00251654 -2.2843e-17)
(-0.00285837 0.00483094 -9.16243e-18)
(-0.000680753 2.75637e-05 4.68224e-19)
(-0.00346063 0.00121119 -3.23826e-18)
(-0.000234652 0.00293535 -1.55858e-17)
(-0.00428812 9.2903e-05 -1.65412e-18)
(-0.000135984 0.00151135 2.35261e-17)
(-0.000876244 0.00171561 -9.60176e-18)
(-0.00196869 0.0041017 -1.62323e-17)
(-0.000173514 0.00200971 1.75974e-17)
(-0.00367535 0.00172055 -1.3246e-17)
(-0.00442328 0.000843808 3.14398e-18)
(-0.00447592 0.000991755 -5.25441e-18)
(-0.000488204 0.00420514 -7.45881e-19)
(-0.00191823 0.00656374 -3.79976e-18)
(-0.00888685 0.00559067 -8.7113e-18)
(0.0301546 -0.00890676 -4.67742e-18)
(-0.000304555 0.00551207 1.52204e-17)
(-0.00429252 0.00238869 -5.06959e-19)
(0.0191064 -0.00276757 1.88534e-17)
(-0.00100431 0.00309383 9.83823e-18)
(0.0376924 -0.00252622 6.98902e-18)
(-0.00689232 -0.00138193 6.86622e-18)
(-0.00109016 0.000623108 8.90259e-19)
(-0.00347076 0.000576112 4.2915e-18)
(-0.00863836 0.00513845 4.49773e-18)
(-0.00170202 0.0022237 4.9803e-18)
(-0.000297231 0.000558928 7.26247e-18)
(-0.00029287 0.000523447 3.04715e-19)
(-0.00504445 0.000551059 4.41301e-18)
(0.0158969 -0.000308473 3.39474e-18)
(-0.0031288 0.000206642 -1.98071e-18)
(0.0299157 0.00156703 1.10221e-17)
(-0.000406017 0.000293758 2.59819e-18)
(0.0346164 0.00361841 -6.58247e-19)
(-0.000123084 0.00391878 -2.34608e-18)
(0.013311 0.000472062 1.66664e-18)
(-0.00454856 0.00374703 1.38607e-17)
(-0.00243828 0.00166042 2.9629e-19)
(-0.00240467 0.000954491 1.23558e-18)
(0.0128822 0.000678607 -1.89439e-17)
(-0.0029249 0.00480801 6.90675e-18)
(-0.00102443 0.00304697 -1.09868e-17)
(0.0018105 -0.0025696 7.58087e-18)
(-0.00153044 0.00110769 -5.14703e-19)
(-0.000122391 0.00351266 -4.15405e-18)
(-0.0051491 0.000502577 6.49527e-18)
(-0.00167126 -0.00257001 -5.00357e-18)
(-0.00310508 0.0019433 -5.54273e-18)
(-0.00360846 0.00497463 2.39644e-17)
(-0.00018334 0.000936178 1.69617e-18)
(-4.45947e-06 5.5937e-05 -4.08611e-18)
(-0.000119965 0.00170567 -1.2425e-17)
(-4.601e-05 0.000834423 1.30238e-18)
(0.0216788 0.0010861 -8.83932e-19)
(-0.000109788 2.13654e-05 1.72121e-18)
(0.0074757 0.00618555 6.67275e-18)
(0.0214587 -0.0051184 -4.72631e-18)
(-0.00451164 0.00382331 -1.81045e-17)
(0.0184426 0.000110223 9.05892e-18)
(0.0187471 0.00255378 4.6841e-18)
(-0.00171998 -0.00294848 -5.90184e-19)
(-0.0023513 0.0057767 1.76809e-17)
(-7.94841e-05 0.00211417 -3.72784e-18)
(-2.68518e-06 0.000245706 6.54072e-18)
(-0.00015851 0.00104299 1.42212e-18)
(-0.00062017 0.000168236 1.37869e-19)
(-0.000995809 0.000320239 -1.60356e-19)
(-2.74382e-05 1.49037e-05 -5.23736e-18)
(-0.00493992 0.00232219 1.46097e-18)
(-0.00533217 0.00455315 1.1614e-17)
(-0.000208688 0.00298716 8.91644e-18)
(-0.00769427 -0.00180662 1.28592e-18)
(-0.00110619 0.0016472 -1.14115e-17)
(0.0178986 -0.00298121 4.02538e-19)
(1.38303e-06 1.30505e-05 -8.69271e-18)
(0.00172788 -0.00328944 -4.86398e-17)
(-0.00272132 0.00291866 5.52758e-18)
(3.55863e-06 2.87091e-05 9.42672e-18)
(-1.11068e-05 0.000374429 8.43361e-18)
(0.0193876 -0.000506214 3.59429e-18)
(-0.00255434 0.00154445 1.48742e-18)
(0.0303868 -0.00113906 -1.67115e-18)
(0.0507415 0.00233799 -5.74295e-18)
(-0.00402966 0.000446037 5.79446e-18)
(-0.00503575 0.000404544 2.26947e-18)
(-0.00105567 -8.32347e-06 -2.21296e-19)
(0.0333677 -0.00700094 7.58072e-18)
(-0.000691696 0.00196326 -1.23054e-17)
(-0.00242121 0.00087438 -2.76859e-18)
(0.0144877 0.00749117 -1.01551e-18)
(-5.19008e-06 0.000243034 4.47111e-18)
(-0.000366223 0.00151815 -8.43826e-19)
(-0.00121298 0.000372225 6.51052e-19)
(-0.00387448 0.000129158 1.05719e-17)
(0.0146784 -0.000250045 4.13783e-18)
(-0.00259879 0.00206542 -3.12248e-18)
(-0.00321677 0.00185265 -2.28736e-18)
(-0.00363979 0.00503371 1.63074e-17)
(0.0149677 -0.000333058 3.99215e-18)
(-0.000145897 0.00218082 1.02491e-17)
(-0.000764597 0.00224687 -5.28279e-18)
(0.0238874 0.00057834 -4.01206e-18)
(-0.000602778 0.000161656 2.85619e-19)
(0.023506 0.000431232 2.18139e-18)
(-1.11989e-05 3.33713e-05 1.32007e-18)
(-0.00223731 0.000751851 -9.24013e-19)
(-0.0110162 0.00475385 2.44838e-18)
(-0.0037279 4.3407e-05 -6.7325e-18)
(-0.00318032 -0.0015076 6.44359e-18)
(-0.00342832 0.00398375 2.30028e-17)
(-0.00433119 0.00177854 -6.696e-18)
(-2.99295e-06 0.000140011 -4.56175e-19)
(4.63047e-07 1.18849e-05 5.96171e-18)
(-0.00489344 0.00259054 -2.95662e-17)
(-0.00147413 0.00114212 4.63167e-19)
(4.26001e-06 0.000119791 3.80249e-18)