/*--------------------------------*- C++ -*----------------------------------*\
| =========                 |                                                 |
| \\      /  F ield         | OpenFOAM: The Open Source CFD Toolbox           |
|  \\    /   O peration     | Version:  v2012                                 |
|   \\  /    A nd           | Website:  www.openfoam.com                      |
|    \\/     M anipulation  |                                                 |
\*---------------------------------------------------------------------------*/
FoamFile
{
    version     2.0;
    format      ascii;
    class       volVectorField;
    location    "950";
    object      cellDisplacement;
}
// * * * * * * * * * * * * * * * * * * * * * * * * * * * * * * * * * * * * * //

dimensions      [0 1 0 0 0 0 0];


internalField   nonuniform List<vector> 
13851
(
(-0.0160959 -0.0173376 0)
(-0.0133712 0.0217462 0)
(-0.01332 0.0205291 0)
(-0.0142669 0.105215 0)
(-0.000375197 0.00345397 0)
(-0.0134807 0.0374391 0)
(-0.0134692 -0.0484328 0)
(-0.000966986 0.00323795 0)
(-0.0166004 -0.0410179 0)
(-0.000930327 0.0821063 0)
(-0.0142875 0.0673077 0)
(-0.00303689 0.0461966 0)
(-0.00241366 0.0979907 0)
(-0.016426 -0.0299552 0)
(-0.0152954 -0.0157676 0)
(-0.0167908 -0.0733562 0)
(-0.0147834 0.0730153 0)
(-0.0103953 0.0314298 0)
(-0.0156259 0.017204 0)
(-0.0160707 -0.0161402 0)
(-0.0153032 -0.00348975 0)
(-0.0110585 0.0902287 0)
(-0.0140069 0.117397 0)
(-0.000150323 0.00158136 0)
(-0.0151321 0.0494003 0)
(-0.0162132 -0.067021 0)
(-0.0166536 -0.048146 0)
(-0.015883 0.00275522 0)
(-0.0169969 -0.0660104 0)
(-0.0076317 0.0297371 0)
(-0.0145941 0.0846627 0)
(-0.0134628 -0.0464722 0)
(-0.0161773 -0.0235343 0)
(-0.0162412 -0.0186002 0)
(-0.0140115 0.0634357 0)
(-0.0170695 -0.0706617 0)
(-0.000131384 0.0013892 0)
(-0.0146376 0.0791174 0)
(-0.0152022 0.0466227 0)
(-0.00728086 0.0842959 0)
(-0.0159536 -0.000491366 0)
(-0.016994 -0.0659141 0)
(-0.0145832 0.0855521 0)
(-0.0136435 0.11742 0)
(-0.0169106 -0.0607157 0)
(-0.00741902 0.0597997 0)
(-0.00183832 -0.00407774 0)
(-0.0166633 -0.0606374 0)
(-0.0112501 0.0708116 0)
(-0.00220249 0.0980355 0)
(-0.0154378 0.0319596 0)
(-0.000872604 0.101945 0)
(-0.0167691 -0.0721321 0)
(-0.0148949 -0.0529847 0)
(-0.016621 -0.0422287 0)
(-0.00718965 0.0853055 0)
(-0.0161698 -0.0223899 0)
(-0.0159428 0.000201809 0)
(-0.016831 -0.0602017 0)
(-0.0160978 -0.00948309 0)
(-0.00290744 0.0446595 0)
(-0.01664 -0.0477646 0)
(6.7347e-06 0.0664644 0)
(-0.0112866 0.072043 0)
(-0.0124831 0.123625 0)
(-0.0125067 0.124155 0)
(-0.0160887 -0.00892856 0)
(-0.00450505 0.125562 0)
(-0.00891067 0.0740625 0)
(-0.0143616 0.0992607 0)
(-0.014696 0.0784255 0)
(-0.0154564 -0.00187137 0)
(-0.00465322 0.0889937 0)
(-0.0161157 -0.0105672 0)
(-0.0151261 -0.0433757 0)
(-0.00982381 0.0915799 0)
(-0.0147792 0.0732726 0)
(-0.00689948 0.0111468 0)
(-0.0151448 0.0484379 0)
(-0.00533778 0.0648647 0)
(-0.00906438 0.0737082 0)
(-0.0148523 0.063066 0)
(-0.0139314 0.0648908 0)
(-0.016385 -0.0273769 0)
(-0.0161259 -0.0112088 0)
(-0.0146307 0.0824331 0)
(-0.0112241 0.0895681 0)
(-0.016989 -0.0652474 0)
(-0.00193696 0.0830674 0)
(-0.0145777 0.0856685 0)
(-0.000672176 0.10252 0)
(-0.0135796 -0.0453483 0)
(-0.0152952 0.0409102 0)
(-0.0146166 0.0833623 0)
(-0.015396 0.0345325 0)
(-0.0135032 0.11698 0)
(-0.00678419 0.0682141 0)
(-0.0167382 -0.0663393 0)
(-0.0156911 0.0160875 0)
(-0.0142478 0.087509 0)
(-0.0167432 -0.0650539 0)
(-0.00535946 0.123259 0)
(-0.00669957 0.123341 0)
(-0.00442117 0.0933464 0)
(-0.00796033 0.0552441 0)
(-0.0151964 0.0125367 0)
(-0.00781509 0.0555567 0)
(-0.0146845 0.0791175 0)
(-0.0135738 -0.0434044 0)
(-0.0102679 0.0312474 0)
(-0.0110805 0.102059 0)
(-0.00758086 0.0596327 0)
(-0.0152297 0.0377071 0)
(-0.0148342 0.0426914 0)
(-0.0163425 -0.0349331 0)
(-0.014824 -0.0517803 0)
(-0.00554841 0.0260321 0)
(-0.00118374 0.00373485 0)
(-0.0142573 0.105857 0)
(-0.0143542 0.0996077 0)
(-0.0135236 0.112529 0)
(-0.00938375 0.0300734 0)
(-0.00841726 0.0786455 0)
(-0.0161771 -0.0144662 0)
(-0.0157988 0.00576897 0)
(-0.00658619 0.126364 0)
(-0.00681686 0.0669674 0)
(-0.0135866 0.0867798 0)
(-0.0161462 -0.0125745 0)
(-0.0155596 -0.0143354 0)
(-0.0109323 0.0919376 0)
(-0.0135542 0.057665 0)
(-0.0146297 0.0790937 0)
(-0.0162589 -0.0196896 0)
(-0.0143551 0.0659359 0)
(-0.0153334 0.038467 0)
(-0.00416645 0.125369 0)
(-0.0146459 0.0815152 0)
(-0.00443168 0.121793 0)
(-0.0155979 -0.020325 0)
(-0.0148263 0.0640544 0)
(-0.0050333 0.104485 0)
(-0.00186931 0.0842681 0)
(-0.0101086 0.125205 0)
(-0.0153321 0.0371522 0)
(-0.00896873 0.0964595 0)
(-0.00671714 0.00993482 0)
(-0.0146001 0.0843735 0)
(-0.0168017 -0.0536792 0)
(-0.0136504 0.0867552 0)
(-0.0167247 -0.0635979 0)
(-0.0152022 0.038797 0)
(-0.0148682 0.0425472 0)
(-0.0156548 0.0144718 0)
(-0.00235302 0.103267 0)
(-0.000652428 0.0934733 0)
(-0.00269033 0.037795 0)
(-0.0151913 0.0473268 0)
(-0.0155069 -0.0187839 0)
(-0.0134792 -0.0245202 0)
(-0.000338701 0.00361006 0)
(-0.017028 -0.068001 0)
(-0.0151934 0.0111595 0)
(-0.0166431 -0.0591336 0)
(-0.0164395 -0.0308268 0)
(-0.0166692 -0.0454228 0)
(-0.0166567 -0.0446551 0)
(-0.0154261 0.0326962 0)
(-0.011038 0.101082 0)
(-0.0157398 0.0124702 0)
(-0.00267538 0.0428551 0)
(-0.00540706 0.0248023 0)
(-0.0152231 0.0193831 0)
(-0.000319955 0.00313078 0)
(-0.0154044 0.0339868 0)
(-0.0164153 -0.0323799 0)
(-0.0166411 -0.0540112 0)
(-0.00550973 0.0238959 0)
(-0.0151003 -0.0470704 0)
(-0.0166426 -0.05512 0)
(-0.015809 0.00482471 0)
(-0.0136257 0.116628 0)
(-0.0111308 0.0986385 0)
(-0.01555 -0.0158987 0)
(-0.0147612 0.0743916 0)
(-0.0168158 -0.0545643 0)
(-0.0162103 -0.0253843 0)
(-0.00375543 0.119369 0)
(-0.00272445 0.100997 0)
(-0.0077491 0.0427591 0)
(-0.0153296 0.0370887 0)
(-0.0154764 -0.0166631 0)
(-0.0164219 -0.0296808 0)
(-0.0135776 0.0348943 0)
(-0.00899619 0.0952086 0)
(-0.0167562 -0.0692972 0)
(-0.0162132 -0.0263427 0)
(-0.0117529 0.00494051 0)
(-0.0110192 0.0419829 0)
(-0.0058689 0.125372 0)
(-0.0147739 0.0668936 0)
(-0.0155961 0.0219694 0)
(-0.0158823 0.00399997 0)
(-0.0152939 -0.017809 0)
(-0.0136405 0.124455 0)
(-0.0156009 0.0216885 0)
(-0.000927962 0.113587 0)
(-0.0156947 -0.0327761 0)
(-0.016557 -0.0382968 0)
(-0.013092 0.0470965 0)
(-0.0168031 -0.0760602 0)
(-0.0083133 0.078301 0)
(-0.0148008 0.0658442 0)
(-0.000951522 0.0158456 0)
(-0.0141409 0.0598097 0)
(-0.0102174 0.0924358 0)
(-0.00215201 0.0969427 0)
(-0.0160788 -0.0125307 0)
(-0.0115327 0.0240651 0)
(-0.0103632 0.127712 0)
(-0.00537777 0.0226077 0)
(-0.0160233 -0.0129218 0)
(-0.0163732 -0.0266362 0)
(-0.0153645 0.0365045 0)
(-0.00469282 0.11852 0)
(-0.0157334 -0.0342573 0)
(-0.00050568 0.00820509 0)
(-0.00974619 0.1251 0)
(-0.00398331 0.0610621 0)
(-0.01407 0.0608537 0)
(-0.014233 0.10662 0)
(-0.00398481 0.11896 0)
(-0.0131252 0.0449082 0)
(0.000556822 0.0619458 0)
(-0.0158955 0.00318163 0)
(-0.00775655 0.0285403 0)
(-0.013982 0.11718 0)
(-0.0158516 0.00593057 0)
(-0.0142205 0.0870975 0)
(-0.000317101 0.00340782 0)
(-0.0142016 0.100722 0)
(-0.0161545 -0.0130297 0)
(-0.0169238 -0.061616 0)
(-0.0167794 -0.0749328 0)
(-0.0147467 0.0111305 0)
(-0.0103379 0.125703 0)
(-0.0160711 -0.0125257 0)
(-0.0151207 -0.0491127 0)
(-0.0134827 0.116217 0)
(-0.0116896 0.0983779 0)
(-0.0168005 -0.0536138 0)
(-0.0157268 0.00624568 0)
(-0.000995463 0.00498098 0)
(-0.0140581 0.00839236 0)
(-0.0167627 -0.0679055 0)
(-0.0170413 -0.0687999 0)
(-0.0171967 -0.0784751 0)
(-0.00761831 0.0419405 0)
(-0.00620813 0.126541 0)
(-0.0022132 0.0819791 0)
(-0.0162712 -0.0260126 0)
(-0.0157487 0.00866096 0)
(-0.0141314 0.00791261 0)
(-0.0152559 0.00855463 0)
(-0.0157156 0.00743213 0)
(-0.00519481 0.0815327 0)
(-0.00577442 0.123412 0)
(-0.0165593 -0.0566412 0)
(-0.0159785 -0.0034535 0)
(-0.00197983 0.0623669 0)
(-0.00195015 0.0968162 0)
(-0.00446797 0.118944 0)
(-0.0165135 -0.0356528 0)
(-0.0142956 0.103538 0)
(-0.0154418 -0.00648161 0)
(-0.00955169 0.0303276 0)
(-0.015841 0.00302729 0)
(-0.0157022 0.0115421 0)
(-0.0162605 -0.0313372 0)
(-0.015259 0.00697881 0)
(-0.0165025 -0.0349323 0)
(-0.0158189 0.00806408 0)
(-0.0140502 0.0187402 0)
(-0.0151439 -0.0166316 0)
(-0.0145254 0.08591 0)
(-0.00822122 0.0512359 0)
(-0.0026684 0.0357916 0)
(-0.0162535 -0.0300263 0)
(-0.0140009 0.0742556 0)
(-0.00806799 0.027386 0)
(-0.000976149 0.0153093 0)
(-0.00399929 0.062577 0)
(-0.000537725 0.00429858 0)
(-0.0148997 0.000720215 0)
(-0.00276963 0.0377232 0)
(-0.0165857 -0.040111 0)
(-0.0153526 -0.00395665 0)
(-0.00755368 0.0753406 0)
(-0.0170594 -0.0699607 0)
(-0.0161862 -0.0150374 0)
(-0.00183039 0.101676 0)
(-0.0160513 -0.0143045 0)
(-0.0155645 0.0240126 0)
(-0.0051554 0.105144 0)
(-0.00162611 0.102353 0)
(-0.0153702 -0.00247401 0)
(-0.0163212 -0.0234014 0)
(-0.0148483 0.0683498 0)
(-0.0154145 0.0118544 0)
(-0.000482277 0.00438245 0)
(-0.0157564 0.0113864 0)
(-0.00280462 0.0445299 0)
(-0.0154215 0.0138433 0)
(-0.0155532 0.0247063 0)
(-0.01602 -0.00610977 0)
(-0.0133843 -0.0238502 0)
(-0.0145038 0.0867423 0)
(-0.0145901 0.080442 0)
(-0.0147504 0.0749484 0)
(-0.0151457 0.0418815 0)
(-0.00397645 0.124014 0)
(-0.0153311 0.0385882 0)
(-0.0161644 -0.0136781 0)
(-0.0158623 0.00398747 0)
(-0.0111378 0.0422929 0)
(-0.0146273 0.0827997 0)
(-0.0169733 -0.064317 0)
(-0.0105286 0.127279 0)
(-0.0106899 0.127144 0)
(-0.00116799 0.113841 0)
(-0.0153068 0.017392 0)
(-0.00812748 0.114507 0)
(-0.0170018 -0.0661023 0)
(-0.00611971 0.123979 0)
(-0.00156091 0.00959399 0)
(-0.00208579 -0.00412803 0)
(-0.0123974 0.0752593 0)
(-0.0147419 0.0755246 0)
(-0.0104066 0.12768 0)
(-0.00820406 0.0497551 0)
(-0.0153777 0.0356871 0)
(-0.00770169 0.115709 0)
(-0.0135389 0.0594481 0)
(-0.0135253 -0.0264122 0)
(-0.0163312 -0.0240227 0)
(-0.0158549 0.00190607 0)
(-0.016779 -0.0706675 0)
(-0.0100295 0.0927194 0)
(-0.0130274 0.0447554 0)
(-0.0172097 -0.0796668 0)
(-0.00295806 0.101287 0)
(-0.0156818 0.0130516 0)
(-0.0140359 0.0170637 0)
(-0.0153426 -0.000385794 0)
(-0.00763476 0.116371 0)
(-0.00214126 0.0831851 0)
(-0.00763138 0.074153 0)
(-0.0147758 0.0619646 0)
(-0.0143015 0.0862771 0)
(-0.015778 0.00302816 0)
(-0.0146008 0.0804363 0)
(-0.017195 -0.0787793 0)
(-0.00910577 0.0965913 0)
(-0.0158663 0.00502004 0)
(-0.0162492 -0.0232058 0)
(-0.00886727 0.0103581 0)
(-0.0160378 -0.00710415 0)
(-0.0159197 -0.0118338 0)
(-0.0156782 0.0168944 0)
(-0.0123241 0.0745974 0)
(-0.0162444 -0.075616 0)
(-0.0168185 -0.0600463 0)
(-0.0148482 0.0663841 0)
(-0.0147015 0.0648288 0)
(-0.0169491 -0.0627532 0)
(-0.0113492 0.0543495 0)
(-0.016404 -0.0313828 0)
(-0.0145719 0.0863203 0)
(-0.0143735 0.0228714 0)
(-0.0168025 -0.0537278 0)
(-0.0144798 0.0252991 0)
(-0.015818 0.00801497 0)
(-0.0150885 -0.0156391 0)
(-0.0153628 -0.0674471 0)
(-0.015657 0.0105689 0)
(-0.0144725 0.081254 0)
(-0.000876584 0.0935588 0)
(-0.0138243 0.0250805 0)
(-0.0140305 0.0749133 0)
(-0.0151526 -0.0454701 0)
(-0.00731267 0.0652913 0)
(-0.0154849 -0.00806507 0)
(-0.0162391 -0.018709 0)
(-0.00473182 0.0881505 0)
(-0.0156797 -0.0300256 0)
(-0.0142065 0.109054 0)
(-0.0127179 0.0445879 0)
(-0.0139928 0.112388 0)
(-0.0157176 -0.0547429 0)
(-0.0148607 0.0674924 0)
(-0.0131558 0.0478952 0)
(-0.0161588 -0.0666434 0)
(-0.013534 0.124494 0)
(-0.0157713 0.00751968 0)
(-0.0150996 0.0167282 0)
(-0.0171861 -0.0777997 0)
(-0.0161439 -0.0123403 0)
(-0.0141667 0.101369 0)
(-0.00508995 0.0823712 0)
(-0.0147863 0.0608203 0)
(-0.0143747 0.0317614 0)
(-0.0162317 -0.0736399 0)
(-0.00919472 0.035508 0)
(-0.0146595 0.080769 0)
(-0.0161197 -0.0111932 0)
(-0.0149741 0.0589199 0)
(-0.0130478 0.0425882 0)
(-0.0156836 0.00940972 0)
(-0.0165659 -0.0427339 0)
(-0.0142856 0.104142 0)
(-0.00737394 -0.00368056 0)
(-0.0146299 0.0826447 0)
(-0.0145557 0.0779632 0)
(-0.01399 0.119698 0)
(-0.0118323 0.0980623 0)
(-0.0156414 0.0178876 0)
(-0.00249813 0.0913486 0)
(-0.000283081 0.00273736 0)
(-0.0166331 -0.0429898 0)
(-0.0165283 -0.0401489 0)
(-0.00100594 0.0836491 0)
(-0.0133361 0.0236555 0)
(-0.0157045 -0.0291232 0)
(-0.00537589 0.029827 0)
(-0.0161178 -0.0111431 0)
(-0.0153491 0.0156697 0)
(-0.0158906 -0.0107336 0)
(-0.0142493 -0.0161372 0)
(-0.0114118 0.0523956 0)
(0.000130495 0.102374 0)
(-0.0148252 0.0675555 0)
(-0.00735641 0.0757874 0)
(0.000287088 0.101714 0)
(-0.0170073 -0.068438 0)
(-0.0162269 -0.0179921 0)
(-0.0107611 0.0923489 0)
(-0.0167814 -0.0584245 0)
(0.000144958 0.0653543 0)
(-0.00273512 0.0356482 0)
(-0.0128256 0.0445275 0)
(-0.015765 0.00428238 0)
(-0.0156557 -0.0599121 0)
(-0.00738994 0.0673867 0)
(-0.012237 0.0372044 0)
(-0.0135086 0.111698 0)
(-0.0130724 0.0135115 0)
(-0.0147681 0.0731388 0)
(-0.00298502 0.0431202 0)
(-0.0145613 -0.0351598 0)
(-0.0168922 -0.0595789 0)
(-0.00932905 0.116745 0)
(-0.0021703 -0.000849146 0)
(-0.00237179 0.0424383 0)
(-0.0141925 -0.0141844 0)
(-0.0120672 0.00137838 0)
(-0.0140618 0.10631 0)
(-0.0170339 -0.0696949 0)
(-0.0148118 0.00944185 0)
(-0.0133306 0.127562 0)
(-0.0129425 0.0424164 0)
(-0.00316117 0.0580146 0)
(-0.0162889 -0.0214914 0)
(-0.0167949 -0.0585856 0)
(-0.00667835 0.120529 0)
(-0.00534417 0.0891432 0)
(-0.0161807 -0.0146958 0)
(-0.00484938 0.121404 0)
(-0.0138677 0.119803 0)
(-0.00424656 0.093566 0)
(-0.0137078 0.0533143 0)
(-0.0147369 0.0638348 0)
(-0.0152977 -0.0371275 0)
(-0.016164 -0.0136661 0)
(-0.0165849 -0.0437356 0)
(-0.0149557 0.059809 0)
(-0.00708745 0.106688 0)
(-0.0151758 0.0406291 0)
(-0.00551005 0.0812256 0)
(-0.0170109 -0.066869 0)
(-0.0156927 -0.053067 0)
(-0.0162348 -0.0277658 0)
(-0.0143804 0.0299979 0)
(-0.00999363 0.0915132 0)
(-0.00939373 0.116109 0)
(-0.0152721 0.0174913 0)
(-0.000418607 0.00391132 0)
(-0.0143934 0.0974533 0)
(-0.016277 -0.0207337 0)
(-0.0147517 0.0740718 0)
(-0.0140593 0.118306 0)
(-0.0170151 -0.0685857 0)
(-0.0150241 0.057872 0)
(-0.0157263 0.0102941 0)
(-0.00519763 0.117558 0)
(-0.000827548 0.0301025 0)
(-0.0140184 0.112766 0)
(-0.000739427 0.081787 0)
(-0.00720491 0.0645837 0)
(-0.00597991 0.118306 0)
(-0.0154344 0.0320955 0)
(-0.0134254 0.0114962 0)
(-0.00429389 0.105599 0)
(-0.0129978 0.110835 0)
(-0.0147921 0.0340404 0)
(0.000515156 0.084578 0)
(-0.0152054 0.0457315 0)
(-0.00648884 0.0686093 0)
(-0.0161941 -0.0155922 0)
(-0.014064 0.105408 0)
(-0.00549217 0.0653883 0)
(-0.0133597 -0.0039606 0)
(-0.0146678 0.0723624 0)
(-0.0159976 -0.00455607 0)
(-0.00795858 0.028959 0)
(-0.0147209 0.0747492 0)
(-0.0140597 0.112071 0)
(-0.00962617 -0.0112586 0)
(-0.0149529 0.0622381 0)
(-0.0156437 0.0158746 0)
(-0.0159746 -0.00971831 0)
(-0.00687515 0.106877 0)
(-0.0169852 -0.0670939 0)
(-0.0159343 0.000832797 0)
(-0.00977173 -0.0108571 0)
(-0.0153027 0.0364725 0)
(-0.00864532 0.0763211 0)
(-0.00662761 0.0689777 0)
(-0.0171541 -0.0794961 0)
(-0.0158022 0.00900626 0)
(-0.014609 0.0314393 0)
(-0.0156067 -0.0609909 0)
(-0.000394376 0.0825792 0)
(-0.0160407 -0.0553582 0)
(-0.016162 -0.0135808 0)
(-0.0152531 0.0434786 0)
(-0.0104236 -0.00284475 0)
(-0.0148752 0.0672383 0)
(-0.00727699 0.0668595 0)
(-0.00880883 0.0758072 0)
(-0.0151532 0.0151033 0)
(-0.0144826 -0.0450788 0)
(-0.00743106 -0.00526015 0)
(-0.00966605 0.0926445 0)
(-0.0149831 0.0603375 0)
(-0.0144654 0.0807603 0)
(-0.0149668 0.0613872 0)
(-0.0133079 0.0123641 0)
(-0.00239868 0.0820778 0)
(-0.0165453 -0.0376735 0)
(-0.00114408 0.038124 0)
(-0.0148495 0.0576624 0)
(-0.0145737 -0.0238232 0)
(-0.0151435 -0.0394581 0)
(-0.0146621 0.0158111 0)
(-0.0169344 -0.0624961 0)
(-0.0158068 0.00881746 0)
(-0.013651 0.0302744 0)
(-0.0145714 0.0863337 0)
(-0.0132526 -0.0200613 0)
(-0.0151393 0.0273168 0)
(-0.0169772 -0.0648831 0)
(-0.0166207 -0.0422168 0)
(-0.00798431 0.0817149 0)
(-0.00538605 0.0819721 0)
(-0.00715934 0.123161 0)
(-0.0149952 0.0596017 0)
(-0.0169076 -0.0695637 0)
(-0.0160134 -0.0564432 0)
(-0.013915 0.118952 0)
(-0.0145101 -0.0467749 0)
(-0.0150607 -0.0174989 0)
(-0.0142331 0.10623 0)
(-0.0151621 0.0484594 0)
(-0.0133009 0.113093 0)
(-0.0162092 -0.0165275 0)
(-0.0164563 -0.0386345 0)
(-0.0171285 -0.0745854 0)
(-0.0109967 0.0558329 0)
(-0.0168516 -0.0613994 0)
(-0.0156346 0.0180865 0)
(-0.00275669 0.0550439 0)
(-0.0152844 0.0416833 0)
(-0.0154492 0.0308539 0)
(-0.0111798 0.0996565 0)
(-0.0156009 -0.0185097 0)
(-0.00660343 0.0863788 0)
(-0.0131911 0.127514 0)
(-0.0136833 0.0925597 0)
(-0.0141657 0.108456 0)
(-0.00730342 0.0769721 0)
(-0.00036837 0.0036872 0)
(-0.002899 0.117436 0)
(-0.014735 0.0357177 0)
(-0.00293873 0.0414693 0)
(-0.0154245 0.0327359 0)
(-0.000446199 0.00443835 0)
(-0.016435 -0.0376601 0)
(-0.00650186 0.10814 0)
(-0.0162741 -0.0726955 0)
(-0.00449266 0.0924519 0)
(0.000511038 0.0858895 0)
(-0.0129433 0.0947252 0)
(-0.0148884 0.0663986 0)
(-0.0150252 0.0208819 0)
(-0.0153479 0.0375651 0)
(-0.0136744 0.0553341 0)
(-0.00565217 0.0324096 0)
(-0.00956037 0.0149275 0)
(-0.0152063 0.0213006 0)
(-0.0121323 0.0392107 0)
(-0.0151072 0.0388089 0)
(-0.0135875 0.0143491 0)
(-0.00633321 0.120463 0)
(-0.016865 -0.0628211 0)
(-0.0010049 0.0387848 0)
(-0.0172743 -0.0832633 0)
(-0.000688444 0.0111312 0)
(-0.0165372 -0.0767182 0)
(-0.0145556 0.0873024 0)
(-0.016762 -0.0513457 0)
(-0.000838612 0.119792 0)
(-0.0141383 0.109198 0)
(-0.0128839 0.111687 0)
(-0.0141656 0.0944811 0)
(-0.015465 0.0298986 0)
(-0.0108135 -0.000935097 0)
(-0.0151961 0.0464188 0)
(-0.00805196 0.11524 0)
(-0.0144353 0.0229589 0)
(-0.0140709 0.117491 0)
(-0.0153024 0.0383802 0)
(-0.0089945 0.0115092 0)
(-0.015074 0.0397838 0)
(-0.0116909 0.0031777 0)
(-0.0171323 -0.0747067 0)
(-0.0153111 0.0399796 0)
(-0.00938397 0.0730098 0)
(-0.00524042 0.125568 0)
(-0.0160252 -0.00532926 0)
(-0.000461973 0.0109782 0)
(-0.000628512 0.0148055 0)
(-0.0162365 -0.0685533 0)
(-0.0172614 -0.0824595 0)
(-0.0169545 -0.065626 0)
(-0.00142974 0.10219 0)
(-0.0156047 0.013773 0)
(-0.0129598 0.0139587 0)
(0.000329865 0.0879038 0)
(-0.0169035 -0.0653434 0)
(-0.0156324 0.0124911 0)
(-0.0143157 0.0840411 0)
(-0.00669369 -0.00376518 0)
(-0.0165414 -0.0551369 0)
(-0.00988309 0.119937 0)
(-0.0160565 -0.0673668 0)
(-0.00123742 0.108908 0)
(-0.00882016 0.0951575 0)
(-0.0136 0.0934034 0)
(-0.00307526 0.117004 0)
(-0.0166123 -0.0586793 0)
(-0.0154637 -0.0038555 0)
(-0.015409 0.000246351 0)
(-0.0131781 0.113283 0)
(-0.0138046 0.120054 0)
(-0.0156014 0.0185549 0)
(-0.0165361 -0.0375113 0)
(-0.0147339 0.0737221 0)
(-0.0167018 -0.0629175 0)
(-0.0164123 -0.0291045 0)
(-0.0115402 0.108147 0)
(-0.0171483 -0.0786155 0)
(-0.0160044 -0.0112122 0)
(-0.00993812 0.0368701 0)
(-0.0150043 -0.016843 0)
(-0.0155904 0.0187921 0)
(-0.0118627 0.0823219 0)
(-0.00527597 0.0633581 0)
(-0.00528005 0.0607182 0)
(-0.0165447 -0.0737583 0)
(-0.0169618 -0.0635168 0)
(-0.0146223 -0.0339129 0)
(-0.0158375 0.0068259 0)
(-0.00572395 0.0338882 0)
(-0.0169427 -0.0645679 0)
(-0.0127948 0.118855 0)
(-0.0155365 0.0257359 0)
(-0.0150293 0.0421161 0)
(-0.0132555 0.0467794 0)
(-0.0133964 0.0178088 0)
(-0.0155255 0.026421 0)
(-0.0143511 0.0825145 0)
(-0.0114794 0.107403 0)
(-0.0165487 -0.0412908 0)
(-0.0113221 0.051017 0)
(-0.0140609 0.110127 0)
(-0.016564 -0.0751785 0)
(-0.0164079 -0.0356982 0)
(-0.0141161 0.0402198 0)
(-0.014646 0.0752063 0)
(-0.00264798 0.0906944 0)
(-0.000773354 0.0129043 0)
(-0.00099322 0.112924 0)
(0.000168755 0.0889126 0)
(-0.0169462 -0.0628933 0)
(-0.000615096 0.00501602 0)
(-0.0169073 -0.0662028 0)
(-0.016533 -0.0368613 0)
(-0.0150227 0.043249 0)
(-0.0152838 0.0415537 0)
(-0.0157036 0.0152878 0)
(-0.0164044 -0.0348918 0)
(-0.0142139 0.0934698 0)
(-0.0014041 0.119605 0)
(0.00044031 0.0430498 0)
(-0.00192204 0.0956604 0)
(-0.00661842 0.0133686 0)
(-0.0094223 0.0158309 0)
(-0.000429439 0.00421758 0)
(-0.0152177 0.0233309 0)
(-0.015274 0.0346573 0)
(-0.0100743 0.120266 0)
(-0.0158993 0.00160852 0)
(-0.00979734 0.086465 0)
(-0.0165718 -0.03922 0)
(-3.33438e-05 0.0031046 0)
(-0.0142628 0.10537 0)
(-0.0137434 0.0683431 0)
(-6.23401e-05 0.00656185 0)
(0.000401938 0.0575742 0)
(-0.01673 -0.0493108 0)
(-0.0134765 0.0395159 0)
(-0.0167086 -0.049359 0)
(-0.0154838 0.0286801 0)
(-0.0155587 -0.0203643 0)
(-0.0157382 -0.00810624 0)
(-0.00950089 -0.0140316 0)
(-0.0162253 -0.0175816 0)
(-0.00809393 0.105304 0)
(-0.0134498 0.0133649 0)
(-0.016884 -0.0638096 0)
(0.000252071 0.0428697 0)
(-0.0047646 0.104686 0)
(-0.0104093 0.0132553 0)
(-0.0157071 -0.0493722 0)
(-0.0168655 -0.0576288 0)
(-0.0134684 0.0546917 0)
(-0.0142357 0.0357931 0)
(-0.0145407 0.0792449 0)
(-0.0152408 0.0442679 0)
(-0.00327564 0.119539 0)
(-0.00909506 0.107277 0)
(-0.0170429 -0.0691099 0)
(-0.0064005 0.012801 0)
(-0.0170627 -0.0703283 0)
(-0.000784338 0.00849669 0)
(-0.0131598 0.0109554 0)
(-0.0151863 0.0458611 0)
(-0.0162415 -0.0420848 0)
(-0.016314 -0.0334195 0)
(-0.0145445 0.0651378 0)
(-0.0150778 0.0191712 0)
(-5.2365e-05 0.0275481 0)
(-4.39448e-05 0.00285964 0)
(-0.0151638 0.0275178 0)
(-0.0111315 0.0545305 0)
(-3.12389e-05 0.0241023 0)
(-0.0146736 -0.0414634 0)
(-0.0143827 0.0866906 0)
(-0.00315883 0.0277004 0)
(-0.0140826 0.0971196 0)
(-0.0140108 0.11123 0)
(-0.0167764 -0.0540677 0)
(-0.014569 0.0635212 0)
(-0.0144757 0.0918696 0)
(-0.00448918 0.122201 0)
(0.000347638 0.0448017 0)
(-0.0146328 0.0679875 0)
(-0.00568255 0.0358901 0)
(-0.013896 0.0224692 0)
(-0.0165462 -0.0382405 0)
(-0.0172266 -0.0808366 0)
(-0.0151785 0.0475223 0)
(-0.0170399 -0.0690491 0)
(-0.00973199 0.0703735 0)
(-0.00935148 0.0720013 0)
(-0.0119496 0.117453 0)
(-0.00847331 0.0960037 0)
(-0.00845882 0.0441171 0)
(-0.0139901 0.118385 0)
(-0.0162971 -0.0273981 0)
(-0.0167459 -0.0501314 0)
(-0.016562 -0.0780093 0)
(-0.016253 -0.0412118 0)
(-0.000166609 0.0909466 0)
(-0.00766635 0.0313407 0)
(-0.0142486 0.100251 0)
(-0.0158567 -0.00835924 0)
(-0.0132807 0.0105049 0)
(0.000150029 0.0183721 0)
(-0.016356 -0.0364429 0)
(-0.0150775 0.0468761 0)
(-0.0158221 0.00778513 0)
(-0.00210834 0.102967 0)
(-0.00176667 0.0210637 0)
(-0.0168535 -0.0568867 0)
(-0.00103711 0.108505 0)
(-0.0145717 0.0207237 0)
(-0.0051574 0.0286377 0)
(-0.0154654 0.0301446 0)
(-0.000687075 0.00348961 0)
(-0.0145846 0.0854863 0)
(-0.000833057 0.0710432 0)
(-0.0141581 0.0884279 0)
(-0.0151395 0.00130558 0)
(-0.0117127 0.118847 0)
(-0.0141978 0.0384251 0)
(-0.00445951 0.0891694 0)
(-0.0132533 0.027381 0)
(-0.00237755 0.0219332 0)
(-0.0169374 -0.0688618 0)
(-0.00232042 0.107881 0)
(-0.0171931 -0.0782429 0)
(-0.0115416 0.0482769 0)
(-0.0163184 -0.0244058 0)
(-0.0163513 -0.0254048 0)
(-0.013933 0.0442879 0)
(-0.00191014 0.0162021 0)
(-0.0141767 0.110851 0)
(-0.0169812 -0.0662539 0)
(-0.0137445 0.0297945 0)
(-0.0162623 -0.0444502 0)
(-0.00173 0.0954526 0)
(-0.0171154 -0.07325 0)
(-0.0100654 0.0371484 0)
(-0.0155662 0.0201916 0)
(-0.00276005 0.0601407 0)
(-0.00249688 0.0226843 0)
(-0.0167136 -0.0498995 0)
(-0.0147279 0.0138008 0)
(-0.0025076 0.0443969 0)
(-0.014961 -0.0522391 0)
(-0.016007 -0.0038227 0)
(-0.0134565 0.126568 0)
(-0.0160103 -0.00434813 0)
(-0.00747064 0.0428138 0)
(-0.0164255 -0.0299442 0)
(-0.00206422 0.064436 0)
(-0.00300284 0.0264129 0)
(-0.00255928 0.10263 0)
(-0.00248003 -0.00483109 0)
(-0.000757082 0.0213655 0)
(-0.0158728 0.00431016 0)
(-0.0164654 -0.0330707 0)
(-0.0115724 0.025742 0)
(-0.000560437 0.00559277 0)
(-0.0146824 0.0292068 0)
(-0.00764171 0.0584421 0)
(-0.0141781 0.110634 0)
(-0.014672 0.0667853 0)
(-0.0164137 -0.0291821 0)
(-0.015314 0.0396471 0)
(-0.0131969 0.0293879 0)
(-0.0165916 -0.0571604 0)
(-0.00288958 0.0566806 0)
(-0.0152502 -0.0010609 0)
(-0.0126637 0.118652 0)
(-0.0107057 -0.00224346 0)
(-0.000769953 0.00843926 0)
(-0.0142513 0.0982724 0)
(-0.0153237 0.039155 0)
(-0.0157411 -0.00945038 0)
(-0.0147764 0.0734788 0)
(-0.0159358 -0.0281584 0)
(-0.000115362 0.0651587 0)
(-0.0145263 0.0385054 0)
(-0.0162933 -0.0456873 0)
(-0.0149789 0.0607446 0)
(-0.014835 0.00112587 0)
(-0.0167434 -0.0527456 0)
(-0.0158545 -0.00732392 0)
(-0.00109156 0.0167527 0)
(-0.0142286 0.105472 0)
(-0.0142466 0.104797 0)
(-0.0168915 -0.0592281 0)
(-0.0153069 0.0383677 0)
(-0.0171815 -0.0817629 0)
(-0.00728291 0.105873 0)
(-0.0107088 0.125516 0)
(0.00060579 0.10202 0)
(-0.0162319 -0.0198497 0)
(-0.0118147 0.0812492 0)
(-0.00127977 0.00791874 0)
(-0.015959 -0.0010823 0)
(-0.0095085 0.0878768 0)
(-0.00175736 0.0148955 0)
(-0.00812546 0.0806927 0)
(-0.00937117 0.0878093 0)
(-0.0154539 0.0308819 0)
(-0.0156355 0.0159157 0)
(-0.00632754 0.0472294 0)
(-0.0145996 0.0365655 0)
(-0.0163559 -0.0255573 0)
(-0.0106848 0.0754175 0)
(-0.0147492 0.0751628 0)
(-0.00401458 0.109696 0)
(-0.0161369 -0.0339419 0)
(-0.01574 0.012916 0)
(-0.0027669 0.0395808 0)
(-0.0169263 -0.0698114 0)
(-0.0121967 0.084121 0)
(-0.0139915 0.0447038 0)
(-0.0134931 0.12693 0)
(-0.00967312 0.086395 0)
(-0.014897 0.0601703 0)
(-0.016116 -0.0680385 0)
(-0.0160034 -0.00362108 0)
(-0.0119646 -0.0114353 0)
(-0.0170748 -0.0707299 0)
(-0.0142885 0.0252396 0)
(-0.016205 -0.0162131 0)
(-0.015157 0.0495575 0)
(-0.0170755 -0.0707654 0)
(-0.0156057 -0.024627 0)
(-0.0038887 0.0913765 0)
(-0.00968826 0.0720079 0)
(-0.000429102 0.0114111 0)
(-0.0152908 -0.0667294 0)
(-0.000213299 0.0586165 0)
(-0.0161472 -0.0126162 0)
(-0.0109534 0.0990037 0)
(-0.00604456 0.116309 0)
(-0.00299794 0.119335 0)
(-0.0073036 0.105104 0)
(-0.00734322 0.0419599 0)
(-0.0141409 -0.0529337 0)
(-0.0121172 0.0793258 0)
(-0.0133152 -0.00167228 0)
(-0.0112909 0.0904853 0)
(-0.015542 0.0251538 0)
(-0.0169661 -0.0714852 0)
(-0.0144156 0.01576 0)
(-0.0133202 0.0889985 0)
(-0.015944 -0.000180917 0)
(-0.00457718 0.105557 0)
(-0.0147703 0.0737212 0)
(-0.00616078 0.013518 0)
(-0.0112945 0.102696 0)
(-0.00208986 0.108402 0)
(-0.00891157 0.0585214 0)
(-0.0126585 0.0979994 0)
(-0.00317805 0.0596175 0)
(-0.00633733 0.0459764 0)
(-0.00461888 0.123852 0)
(-0.000513252 0.0943731 0)
(-0.014394 0.0856181 0)
(-0.011998 0.039585 0)
(-0.0152581 0.0432868 0)
(-0.0159097 0.000574858 0)
(-0.0159371 -0.00383986 0)
(-0.0152918 0.036673 0)
(-0.0112138 0.0230583 0)
(-0.0152704 0.0424132 0)
(-0.0159514 -0.00662355 0)
(-0.00104502 0.0168978 0)
(-0.0120062 0.0814479 0)
(-0.00421542 0.104857 0)
(-0.0147808 0.0730246 0)
(-0.00339419 0.110403 0)
(-0.00631316 0.123141 0)
(-0.0160616 -0.00862867 0)
(-0.014218 0.10838 0)
(-0.0138771 0.0877177 0)
(-0.0106031 0.047875 0)
(-0.0169196 -0.0614719 0)
(-0.0160733 -0.0095255 0)
(-0.0171763 -0.0808262 0)
(-0.0120887 0.0853682 0)
(-0.00578944 0.0320077 0)
(-0.0103647 -0.00633955 0)
(-0.0154389 0.0100189 0)
(-0.00323257 0.0913934 0)
(-0.0159467 6.81958e-05 0)
(-0.0148338 0.0589977 0)
(-0.000927431 0.0334628 0)
(-0.0162223 -0.0216009 0)
(-0.0144534 0.0831013 0)
(-0.0102789 0.0134653 0)
(-0.0155555 0.0242672 0)
(-0.0146001 0.0845128 0)
(-0.0163147 -0.0289639 0)
(-0.0115994 0.0492993 0)
(-0.0169525 -0.0635975 0)
(-0.0152396 0.0213576 0)
(-0.00368266 0.0415137 0)
(-0.0167456 -0.0501086 0)
(-0.00914215 0.106384 0)
(-0.0099127 0.0210748 0)
(-0.00596602 0.0703966 0)
(-0.0150491 -0.0427982 0)
(-0.0153688 -0.0636026 0)
(-0.0165546 -0.0381776 0)
(-0.0145669 0.0862612 0)
(-0.0155711 -0.0462357 0)
(-0.0166266 -0.0427472 0)
(-0.0151983 -0.0339409 0)
(-0.00286282 0.086535 0)
(-0.00562087 0.125944 0)
(-0.00511836 0.0603153 0)
(-0.0143875 0.0921586 0)
(-0.0105355 -0.00130628 0)
(-0.00230359 0.0220907 0)
(-0.00924105 0.0975406 0)
(-0.0111763 0.0521673 0)
(-0.0164493 -0.0315787 0)
(-0.0171037 -0.0725182 0)
(-0.0166832 -0.0525525 0)
(-0.0157791 0.0105429 0)
(-0.0150799 0.0538418 0)
(-0.00537755 0.117993 0)
(-0.00523013 0.0884006 0)
(-0.0119034 0.0415586 0)
(-0.0148835 0.0613313 0)
(-0.0104829 -0.00508702 0)
(-0.00100265 0.00114915 0)
(-0.0137878 0.0689532 0)
(-0.0151719 0.0469144 0)
(-0.0170617 -0.0824865 0)
(-0.00183243 -0.00101475 0)
(-0.0129231 0.0861729 0)
(-0.0143108 0.0343249 0)
(-0.0158769 -0.00336691 0)
(-0.0145982 0.0846537 0)
(-0.00963781 -0.0133936 0)
(-0.00725557 -0.00646833 0)
(-0.0133543 -0.0211814 0)
(-0.0149128 0.0623451 0)
(-0.0146157 -0.0431696 0)
(-0.0161298 -0.0115548 0)
(-0.008632 0.0962284 0)
(-0.00162155 0.0195161 0)
(-0.0100095 0.0194785 0)
(-0.00623368 0.0695942 0)
(-0.0103437 0.0909682 0)
(-0.0163585 -0.0320186 0)
(-0.0171424 -0.0755687 0)
(-0.0167194 -0.0486087 0)
(-0.00171465 0.119865 0)
(-0.00304813 0.0599191 0)
(-0.0140717 0.109025 0)
(-0.0121268 -0.000742667 0)
(-0.015626 0.0189694 0)
(-0.0159336 0.000872339 0)
(-0.00575242 0.118826 0)
(-0.014863 0.0680015 0)
(-0.016963 -0.0639244 0)
(-0.0144799 0.0917374 0)
(-0.0159467 -0.0588849 0)
(-0.0148349 -0.00113122 0)
(-0.0164232 -0.0298113 0)
(-0.0144833 0.0157465 0)
(-0.00986267 0.113291 0)
(-0.0121113 0.117071 0)
(-0.0141379 0.0960475 0)
(-0.010831 0.0594475 0)
(-0.0135954 0.126089 0)
(-0.00278542 0.087632 0)
(-0.0166155 -0.0427306 0)
(-0.0149335 0.0613096 0)
(-0.00615811 0.0147526 0)
(-0.00673508 0.10785 0)
(-0.0127673 0.0976986 0)
(-0.0147007 0.0711111 0)
(-0.0148393 0.00525854 0)
(-0.00160548 0.0177037 0)
(-0.014624 -0.0225287 0)
(-0.00137195 0.111826 0)
(-0.0141789 -0.0196972 0)
(-0.0132542 0.125095 0)
(-0.000568719 0.0463706 0)
(-0.0169683 -0.065242 0)
(-0.0168937 -0.05936 0)
(-0.00290883 0.0885851 0)
(-0.014768 -0.000788128 0)
(-0.0153675 -0.0615964 0)
(-0.00274715 0.0532585 0)
(-0.0172408 -0.0816569 0)
(-0.0169626 -0.0635408 0)
(-0.0153004 0.0405212 0)
(-0.0171758 -0.0771607 0)
(-0.00353031 0.0572982 0)
(-0.010876 0.0856759 0)
(-0.0123386 0.0715109 0)
(-0.00324793 0.10239 0)
(-0.0167418 -0.0567301 0)
(-0.0149036 0.00262978 0)
(5.99613e-05 0.0176046 0)
(-0.0160591 -0.0435135 0)
(-0.00292551 0.116559 0)
(-0.016346 -0.0259325 0)
(-0.0151941 -0.000873592 0)
(-0.0163462 -0.0249561 0)
(-0.00105888 0.111542 0)
(-0.0104715 0.0795745 0)
(-0.00661149 0.123764 0)
(-0.0157357 -0.00027446 0)
(-0.015439 0.0121209 0)
(-0.00479639 0.0816253 0)
(-0.0169881 -0.0651566 0)
(-0.0161052 -0.0099451 0)
(-0.0139529 0.120365 0)
(-0.0150177 0.058272 0)
(-0.0166015 -0.04175 0)
(-0.0166402 -0.0435858 0)
(-0.0162194 -0.0171104 0)
(-0.00448963 0.0814476 0)
(-0.00246833 0.0809346 0)
(-0.0111013 0.0144038 0)
(-0.0168828 -0.0679908 0)
(-0.0156505 -0.0575604 0)
(-0.0153804 0.0155226 0)
(-0.0144693 0.0926799 0)
(-0.0118454 -0.0105057 0)
(-0.0041606 0.00763387 0)
(-0.000584886 0.083088 0)
(-0.0169825 -0.0814262 0)
(-0.00681886 0.00836051 0)
(-0.0142404 -0.000464339 0)
(-0.00929295 0.0957167 0)
(-0.0169011 -0.0615906 0)
(-0.00549846 0.105975 0)
(-0.00560284 0.0364208 0)
(-0.0020366 0.0608392 0)
(-0.00670557 0.0786532 0)
(-0.000598491 0.00603456 0)
(-0.00853869 0.117503 0)