/*--------------------------------*- C++ -*----------------------------------*\
| =========                 |                                                 |
| \\      /  F ield         | OpenFOAM: The Open Source CFD Toolbox           |
|  \\    /   O peration     | Version:  v2012                                 |
|   \\  /    A nd           | Website:  www.openfoam.com                      |
|    \\/     M anipulation  |                                                 |
\*---------------------------------------------------------------------------*/
FoamFile
{
    version     2.0;
    format      ascii;
    class       pointVectorField;
    location    "950";
    object      pointDisplacement;
}
// * * * * * * * * * * * * * * * * * * * * * * * * * * * * * * * * * * * * * //

dimensions      [0 1 0 0 0 0 0];


internalField   nonuniform List<vector> 
14246
(
(0 0 0)
(-0.0139094 0.127802 0)
(0 0 0)
(-0.0139094 0.127802 0)
(0 0 0)
(0 0 0)
(0 0 0)
(0 0 0)
(0 0 0)
(0 0 0)
(0 0 0)
(0 0 0)
(0 0 0)
(0 0 0)
(0 0 0)
(0 0 0)
(0 0 0)
(0 0 0)
(0 0 0)
(0 0 0)
(0 0 0)
(0 0 0)
(0 0 0)
(0 0 0)
(0 0 0)
(0 0 0)
(0 0 0)
(0 0 0)
(0 0 0)
(0 0 0)
(0 0 0)
(0 0 0)
(0 0 0)
(0 0 0)
(0 0 0)
(0 0 0)
(0 0 0)
(0 0 0)
(0 0 0)
(0 0 0)
(0 0 0)
(0 0 0)
(0 0 0)
(0 0 0)
(0 0 0)
(0 0 0)
(0 0 0)
(0 0 0)
(0 0 0)
(0 0 0)
(0 0 0)
(0 0 0)
(0 0 0)
(0 0 0)
(0 0 0)
(0 0 0)
(0 0 0)
(0 0 0)
(0 0 0)
(0 0 0)
(0 0 0)
(0 0 0)
(0 0 0)
(0 0 0)
(0 0 0)
(0 0 0)
(0 0 0)
(0 0 0)
(0 0 0)
(0 0 0)
(0 0 0)
(0 0 0)
(0 0 0)
(0 0 0)
(0 0 0)
(-0.0139349 0.126208 0)
(-0.0139603 0.124614 0)
(-0.0139857 0.123019 0)
(-0.0140111 0.121425 0)
(-0.0140366 0.119831 0)
(-0.014062 0.118236 0)
(-0.0140874 0.116642 0)
(-0.0141128 0.115048 0)
(-0.0141383 0.113453 0)
(-0.0141637 0.111859 0)
(-0.0141891 0.110265 0)
(-0.0142145 0.10867 0)
(-0.01424 0.107076 0)
(-0.0142654 0.105481 0)
(-0.0142908 0.103887 0)
(-0.0143163 0.102293 0)
(-0.0143417 0.100698 0)
(-0.0143671 0.0991041 0)
(-0.0143925 0.0975097 0)
(-0.014418 0.0959154 0)
(-0.0144434 0.094321 0)
(-0.0144688 0.0927267 0)
(-0.0144942 0.0911323 0)
(-0.0145197 0.089538 0)
(-0.0145451 0.0879436 0)
(-0.0145705 0.0863493 0)
(-0.0145959 0.0847549 0)
(-0.0146214 0.0831606 0)
(-0.0146468 0.0815662 0)
(-0.0146722 0.0799719 0)
(-0.0146976 0.0783775 0)
(-0.0147231 0.0767832 0)
(-0.0147485 0.0751888 0)
(-0.0147739 0.0735945 0)
(-0.0147993 0.0720001 0)
(-0.0148248 0.0704057 0)
(-0.0148502 0.0688114 0)
(-0.0148756 0.067217 0)
(-0.0149011 0.0656227 0)
(-0.0149265 0.0640283 0)
(-0.0149519 0.062434 0)
(-0.0149773 0.0608396 0)
(-0.0150028 0.0592453 0)
(-0.0150282 0.0576509 0)
(-0.0150536 0.0560566 0)
(-0.015079 0.0544622 0)
(-0.0151045 0.0528679 0)
(-0.0151299 0.0512735 0)
(-0.0151553 0.0496792 0)
(-0.0151807 0.0480848 0)
(-0.0152062 0.0464905 0)
(-0.0152316 0.0448961 0)
(-0.015257 0.0433018 0)
(-0.0152824 0.0417074 0)
(-0.0153079 0.0401131 0)
(-0.0153333 0.0385187 0)
(-0.0153587 0.0369244 0)
(-0.0153841 0.03533 0)
(-0.0154096 0.0337357 0)
(-0.015435 0.0321413 0)
(-0.0154604 0.0305469 0)
(-0.0154859 0.0289526 0)
(-0.0155113 0.0273582 0)
(-0.0155367 0.0257639 0)
(-0.0155621 0.0241695 0)
(-0.0155876 0.0225752 0)
(-0.015613 0.0209808 0)
(-0.0156384 0.0193865 0)
(-0.0156638 0.0177921 0)
(-0.0156893 0.0161978 0)
(-0.0157147 0.0146034 0)
(-0.0157401 0.0130091 0)
(-0.0157655 0.0114147 0)
(-0.015791 0.00982037 0)
(-0.0158164 0.00822602 0)
(-0.0158418 0.00663167 0)
(-0.0158672 0.00503732 0)
(-0.0158927 0.00344296 0)
(-0.0159181 0.00184861 0)
(-0.0159435 0.00025426 0)
(-0.0159689 -0.00134009 0)
(-0.0159944 -0.00293444 0)
(-0.0160198 -0.0045288 0)
(-0.0160452 -0.00612315 0)
(-0.0160706 -0.0077175 0)
(-0.0160961 -0.00931185 0)
(-0.0161215 -0.0109062 0)
(-0.0161469 -0.0125006 0)
(-0.0161724 -0.0140949 0)
(-0.0161978 -0.0156893 0)
(-0.0162232 -0.0172836 0)
(-0.0162486 -0.018878 0)
(-0.0162741 -0.0204723 0)
(-0.0162995 -0.0220667 0)
(-0.0163249 -0.023661 0)
(-0.0163503 -0.0252554 0)
(-0.0163758 -0.0268497 0)
(-0.0164012 -0.0284441 0)
(-0.0164266 -0.0300384 0)
(-0.016452 -0.0316328 0)
(-0.0164775 -0.0332271 0)
(-0.0165029 -0.0348215 0)
(-0.0165283 -0.0364158 0)
(-0.0165537 -0.0380102 0)
(-0.0165792 -0.0396045 0)
(-0.0166046 -0.0411989 0)
(-0.01663 -0.0427932 0)
(-0.0166554 -0.0443876 0)
(-0.0166809 -0.0459819 0)
(-0.0167063 -0.0475763 0)
(-0.0167317 -0.0491707 0)
(-0.0167572 -0.050765 0)
(-0.0167826 -0.0523594 0)
(-0.016808 -0.0539537 0)
(-0.0168334 -0.0555481 0)
(-0.0168589 -0.0571424 0)
(-0.0168843 -0.0587368 0)
(-0.0169097 -0.0603311 0)
(-0.0169351 -0.0619255 0)
(-0.0169606 -0.0635198 0)
(-0.016986 -0.0651142 0)
(-0.0170114 -0.0667085 0)
(-0.0170368 -0.0683029 0)
(-0.0170623 -0.0698972 0)
(-0.0170877 -0.0714916 0)
(-0.0171131 -0.0730859 0)
(-0.0171385 -0.0746803 0)
(-0.017164 -0.0762746 0)
(-0.0171894 -0.077869 0)
(-0.0172148 -0.0794633 0)
(-0.0172402 -0.0810577 0)
(-0.0172657 -0.082652 0)
(-0.0172911 -0.0842464 0)
(-0.0107207 0.127752 0)
(-0.0123151 0.127777 0)
(0 0 0)
(0 0 0)
(0 0 0)
(0 0 0)
(0 0 0)
(0 0 0)
(0 0 0)
(0 0 0)
(0 0 0)
(0 0 0)
(0 0 0)
(0 0 0)
(0 0 0)
(0 0 0)
(0 0 0)
(0 0 0)
(0 0 0)
(0 0 0)
(0 0 0)
(0 0 0)
(0 0 0)
(0 0 0)
(0 0 0)
(0 0 0)
(0 0 0)
(0 0 0)
(0 0 0)
(0 0 0)
(0 0 0)
(0 0 0)
(0 0 0)
(0 0 0)
(0 0 0)
(0 0 0)
(0 0 0)
(0 0 0)
(0 0 0)
(0 0 0)
(0 0 0)
(0 0 0)
(0 0 0)
(0 0 0)
(0 0 0)
(0 0 0)
(0 0 0)
(0 0 0)
(0 0 0)
(0 0 0)
(0 0 0)
(0 0 0)
(0 0 0)
(0 0 0)
(0 0 0)
(0 0 0)
(0 0 0)
(0 0 0)
(0 0 0)
(0 0 0)
(0 0 0)
(0 0 0)
(0 0 0)
(0 0 0)
(0 0 0)
(0 0 0)
(0 0 0)
(0 0 0)
(0 0 0)
(0 0 0)
(0 0 0)
(0 0 0)
(0 0 0)
(-0.0139349 0.126208 0)
(-0.0139603 0.124614 0)
(-0.0139857 0.123019 0)
(-0.0140111 0.121425 0)
(-0.0140366 0.119831 0)
(-0.014062 0.118236 0)
(-0.0140874 0.116642 0)
(-0.0141128 0.115048 0)
(-0.0141383 0.113453 0)
(-0.0141637 0.111859 0)
(-0.0141891 0.110265 0)
(-0.0142145 0.10867 0)
(-0.01424 0.107076 0)
(-0.0142654 0.105481 0)
(-0.0142908 0.103887 0)
(-0.0143163 0.102293 0)
(-0.0143417 0.100698 0)
(-0.0143671 0.0991041 0)
(-0.0143925 0.0975097 0)
(-0.014418 0.0959154 0)
(-0.0144434 0.094321 0)
(-0.0144688 0.0927267 0)
(-0.0144942 0.0911323 0)
(-0.0145197 0.089538 0)
(-0.0145451 0.0879436 0)
(-0.0145705 0.0863493 0)
(-0.0145959 0.0847549 0)
(-0.0146214 0.0831606 0)
(-0.0146468 0.0815662 0)
(-0.0146722 0.0799719 0)
(-0.0146976 0.0783775 0)
(-0.0147231 0.0767832 0)
(-0.0147485 0.0751888 0)
(-0.0147739 0.0735945 0)
(-0.0147993 0.0720001 0)
(-0.0148248 0.0704057 0)
(-0.0148502 0.0688114 0)
(-0.0148756 0.067217 0)
(-0.0149011 0.0656227 0)
(-0.0149265 0.0640283 0)
(-0.0149519 0.062434 0)
(-0.0149773 0.0608396 0)
(-0.0150028 0.0592453 0)
(-0.0150282 0.0576509 0)
(-0.0150536 0.0560566 0)
(-0.015079 0.0544622 0)
(-0.0151045 0.0528679 0)
(-0.0151299 0.0512735 0)
(-0.0151553 0.0496792 0)
(-0.0151807 0.0480848 0)
(-0.0152062 0.0464905 0)
(-0.0152316 0.0448961 0)
(-0.015257 0.0433018 0)
(-0.0152824 0.0417074 0)
(-0.0153079 0.0401131 0)
(-0.0153333 0.0385187 0)
(-0.0153587 0.0369244 0)
(-0.0153841 0.03533 0)
(-0.0154096 0.0337357 0)
(-0.015435 0.0321413 0)
(-0.0154604 0.0305469 0)
(-0.0154859 0.0289526 0)
(-0.0155113 0.0273582 0)
(-0.0155367 0.0257639 0)
(-0.0155621 0.0241695 0)
(-0.0155876 0.0225752 0)
(-0.015613 0.0209808 0)
(-0.0156384 0.0193865 0)
(-0.0156638 0.0177921 0)
(-0.0156893 0.0161978 0)
(-0.0157147 0.0146034 0)
(-0.0157401 0.0130091 0)
(-0.0157655 0.0114147 0)
(-0.015791 0.00982037 0)
(-0.0158164 0.00822602 0)
(-0.0158418 0.00663167 0)
(-0.0158672 0.00503732 0)
(-0.0158927 0.00344296 0)
(-0.0159181 0.00184861 0)
(-0.0159435 0.00025426 0)
(-0.0159689 -0.00134009 0)
(-0.0159944 -0.00293444 0)
(-0.0160198 -0.0045288 0)
(-0.0160452 -0.00612315 0)
(-0.0160706 -0.0077175 0)
(-0.0160961 -0.00931185 0)
(-0.0161215 -0.0109062 0)
(-0.0161469 -0.0125006 0)
(-0.0161724 -0.0140949 0)
(-0.0161978 -0.0156893 0)
(-0.0162232 -0.0172836 0)
(-0.0162486 -0.018878 0)
(-0.0162741 -0.0204723 0)
(-0.0162995 -0.0220667 0)
(-0.0163249 -0.023661 0)
(-0.0163503 -0.0252554 0)
(-0.0163758 -0.0268497 0)
(-0.0164012 -0.0284441 0)
(-0.0164266 -0.0300384 0)
(-0.016452 -0.0316328 0)
(-0.0164775 -0.0332271 0)
(-0.0165029 -0.0348215 0)
(-0.0165283 -0.0364158 0)
(-0.0165537 -0.0380102 0)
(-0.0165792 -0.0396045 0)
(-0.0166046 -0.0411989 0)
(-0.01663 -0.0427932 0)
(-0.0166554 -0.0443876 0)
(-0.0166809 -0.0459819 0)
(-0.0167063 -0.0475763 0)
(-0.0167317 -0.0491707 0)
(-0.0167572 -0.050765 0)
(-0.0167826 -0.0523594 0)
(-0.016808 -0.0539537 0)
(-0.0168334 -0.0555481 0)
(-0.0168589 -0.0571424 0)
(-0.0168843 -0.0587368 0)
(-0.0169097 -0.0603311 0)
(-0.0169351 -0.0619255 0)
(-0.0169606 -0.0635198 0)
(-0.016986 -0.0651142 0)
(-0.0170114 -0.0667085 0)
(-0.0170368 -0.0683029 0)
(-0.0170623 -0.0698972 0)
(-0.0170877 -0.0714916 0)
(-0.0171131 -0.0730859 0)
(-0.0171385 -0.0746803 0)
(-0.017164 -0.0762746 0)
(-0.0171894 -0.077869 0)
(-0.0172148 -0.0794633 0)
(-0.0172402 -0.0810577 0)
(-0.0172657 -0.082652 0)
(-0.0172911 -0.0842464 0)
(-0.0107207 0.127752 0)
(-0.0123151 0.127777 0)
(-0.0173044 -0.0851041 0)
(-0.0168414 -0.0561407 0)
(-0.0163907 -0.0277339 0)
(-0.0159322 0.000970976 0)
(-0.0154731 0.0297241 0)
(-0.0150158 0.0584012 0)
(-0.0145575 0.0871933 0)
(-0.0141001 0.115807 0)
(-0.0152445 0.0441031 0)
(-0.0157027 0.0153521 0)
(-0.0170749 -0.0707229 0)
(-0.0143299 0.101426 0)
(-0.0166187 -0.0420818 0)
(-0.0161603 -0.013393 0)
(-0.0147888 0.072664 0)
(-0.0101385 0.127723 0)
(-0.000511868 0.00307999 0)
(-0.000300685 0.00559435 0)
(-0.00069112 0.00244973 0)
(-0.000935542 0.000426097 0)
(-0.000209782 0.00726197 0)
(-4.82391e-05 0.00900283 0)
(-0.000812926 -0.0014737 0)
(-0.0139671 0.123745 0)
(-0.000408812 0.00320007 0)
(-0.000297 0.004146 0)
(-0.000242473 0.0029155 0)
(-0.0144305 0.0951179 0)
(-0.016263 -0.0198045 0)
(-0.0146862 0.0791417 0)
(-0.016719 -0.0484011 0)
(-0.0153714 0.0361206 0)
(-0.0151156 0.0521431 0)
(-0.0156 0.021789 0)
(-0.0158301 0.00736034 0)
(-0.0169489 -0.062738 0)
(-0.0142001 0.109485 0)
(-0.0164904 -0.0340665 0)
(-0.0160325 -0.0053649 0)
(-0.0171775 -0.0772154 0)
(-0.0149138 0.0648068 0)
(-0.000290672 0.00263595 0)
(-0.000275164 0.00657375 0)
(-0.000662653 0.00318843 0)
(-0.000698545 0.00123236 0)
(-0.000157647 0.00172382 0)
(-0.000194121 0.00189563 0)
(-0.000105163 0.00107582 0)
(-0.000161324 0.00796182 0)
(2.96703e-05 0.00824223 0)
(-0.00030674 0.00499589 0)
(-0.000709136 0.00192242 0)
(-0.000791859 -0.000725163 0)
(-0.000483982 0.00327409 0)
(-0.000272686 0.00350902 0)
(-0.000380245 0.00322679 0)
(-0.000203955 0.00232244 0)
(-0.000108313 0.00115184 0)
(-5.0071e-05 0.000523348 0)
(-0.000185709 0.00756038 0)
(-0.000383328 0.014279 0)
(-0.000429496 0.0138151 0)
(-0.000591542 0.0202843 0)
(-0.000656112 0.0196751 0)
(-0.000808609 0.0256368 0)
(-0.000886224 0.0248981 0)
(-0.00103616 0.0305181 0)
(-0.00111988 0.0296239 0)
(-0.00127128 0.0348403 0)
(-0.00135699 0.0337803 0)
(-0.00150848 0.0385471 0)
(-0.00159642 0.0373436 0)
(-0.00174693 0.0418238 0)
(-0.00183761 0.0404782 0)
(-0.00198832 0.0447193 0)
(-0.00188686 0.0461501 0)
(-0.00212799 0.0487927 0)
(-0.00201367 0.0502482 0)
(-0.00225623 0.0526676 0)
(-0.00212803 0.0541156 0)
(-0.0023741 0.0563464 0)
(-0.00223236 0.057792 0)
(-0.00248108 0.0598377 0)
(-0.00232909 0.0613372 0)
(-0.00258076 0.0631436 0)
(-0.00243083 0.0646742 0)
(-0.00267619 0.0662767 0)
(-0.00251622 0.0677455 0)
(-0.00276192 0.0692256 0)
(-0.00258809 0.0706715 0)
(-0.00284166 0.0720277 0)
(-0.00265752 0.0734156 0)
(-0.00291335 0.0747251 0)
(-0.00271438 0.0760337 0)
(-0.00297666 0.0772609 0)
(-0.00276858 0.0785648 0)
(-0.00303922 0.0796546 0)
(-0.00282124 0.0809531 0)
(-0.00310077 0.0819246 0)
(-0.00287526 0.0832198 0)
(-0.00316489 0.0840977 0)
(-0.00293066 0.085402 0)
(-0.00338245 0.082742 0)
(-0.00345892 0.0848149 0)
(-0.00366888 0.0834011 0)
(-0.00375583 0.0853863 0)
(-0.00395944 0.0839126 0)
(-0.00405716 0.0858232 0)
(-0.00425574 0.0842795 0)
(-0.00436954 0.0861233 0)
(-0.00455451 0.0844961 0)
(-0.00468245 0.086181 0)
(-0.00485147 0.084604 0)
(-0.00498522 0.0861388 0)
(-0.00514973 0.0845464 0)
(-0.00529615 0.0861192 0)
(-0.00544961 0.0843226 0)
(-0.00561528 0.0858937 0)
(-0.00575245 0.0839869 0)
(-0.0059304 0.0854463 0)
(-0.00453206 0.0880102 0)
(-0.00605416 0.0834857 0)
(-0.00624075 0.0848598 0)
(-0.00635145 0.0828199 0)
(-0.00654716 0.0841155 0)
(-0.00664623 0.0820018 0)
(-0.00685243 0.0832175 0)
(-0.0069366 0.0810302 0)
(-0.00715189 0.0821274 0)
(-0.00673883 0.0798183 0)
(-0.00721682 0.0799354 0)
(-0.00743777 0.0808533 0)
(-0.00748368 0.0786481 0)
(-0.00771709 0.0794186 0)
(-0.00774287 0.0771382 0)
(-0.00798457 0.0777359 0)
(-0.00799754 0.0754693 0)
(-0.00823796 0.0759857 0)
(-0.00824506 0.0736272 0)
(-0.00849226 0.0740608 0)
(-0.00848086 0.0715942 0)
(-0.00873838 0.0718544 0)
(-0.00822815 0.0713369 0)
(-0.00611345 0.0868162 0)
(-0.00870434 0.0693775 0)
(-0.00896718 0.0694612 0)
(-0.00891746 0.0669947 0)
(-0.00917933 0.0669004 0)
(-0.00923694 0.0692591 0)
(-0.00944302 0.0666636 0)
(-0.0093836 0.0642146 0)
(-0.00964342 0.0638757 0)
(-0.00970943 0.0662993 0)
(-0.00990587 0.0633521 0)
(-0.00983144 0.0609212 0)
(-0.0100906 0.0602436 0)
(-0.0101701 0.0626586 0)
(-0.0103518 0.0593887 0)
(-0.0102634 0.0569883 0)
(-0.0105238 0.0559438 0)
(-0.0104271 0.0535692 0)
(-0.0106875 0.0523225 0)
(-0.0107811 0.0547386 0)
(-0.0109456 0.0509756 0)
(-0.0108456 0.0484947 0)
(-0.0111013 0.0469757 0)
(-0.0112322 0.0496481 0)
(-0.0113561 0.0451988 0)
(-0.011246 0.0428111 0)
(-0.0114818 0.0410178 0)
(-0.0116184 0.0430654 0)
(-0.0117221 0.0386992 0)
(-0.0115736 0.0365765 0)
(-0.0118271 0.034526 0)
(-0.0119625 0.0362807 0)
(-0.0120621 0.0321113 0)
(-0.0119228 0.0303136 0)
(-0.0121479 0.0277815 0)
(-0.0119982 0.0261386 0)
(-0.0122185 0.0234649 0)
(-0.0123708 0.0250002 0)
(-0.012434 0.0205992 0)
(-0.0122759 0.0191601 0)
(-0.0124853 0.0161756 0)
(-0.0123208 0.0148631 0)
(-0.0125235 0.0117899 0)
(-0.0126885 0.0130333 0)
(-0.0127185 0.00856553 0)
(-0.0125474 0.00751805 0)
(-0.0127342 0.00424704 0)
(-0.012906 0.00518144 0)
(-0.0129134 0.000813663 0)
(-0.0127374 2.56253e-05 0)
(-0.0129083 -0.00343831 0)
(-0.0127285 -0.00410254 0)
(-0.012892 -0.00756393 0)
(-0.0130704 -0.00704836 0)
(-0.0130456 -0.011141 0)
(-0.0128647 -0.0115301 0)
(-0.013009 -0.0151099 0)
(-0.0131901 -0.0148097 0)
(-0.0131456 -0.0188389 0)
(-0.0129596 -0.018966 0)
(-0.0130877 -0.0227285 0)
(-0.0128967 -0.022655 0)
(-0.0130154 -0.0263457 0)
(-0.012822 -0.0261605 0)
(-0.0129314 -0.0297542 0)
(-0.0131233 -0.0300648 0)
(-0.0130303 -0.0333714 0)
(-0.0128379 -0.0330153 0)
(-0.0129289 -0.0365456 0)
(-0.0131191 -0.0369731 0)
(-0.0130094 -0.0400797 0)
(-0.0128177 -0.039584 0)
(-0.0128884 -0.0430593 0)
(-0.0126967 -0.0424624 0)
(-0.0127578 -0.0458894 0)
(-0.00237316 0.0511474 0)
(-0.00765996 0.0817185 0)
(-0.00263307 0.0844429 0)
(-0.00267204 0.0866174 0)
(-0.00237352 0.0855916 0)
(-0.00240057 0.0877895 0)
(-0.00210229 0.0866762 0)
(-0.00525992 0.0827493 0)
(0.000390429 0.115512 0)
(0.000158289 0.116344 0)
(-0.00030724 0.115624 0)
(-0.000605564 0.116413 0)
(-0.0010207 0.115612 0)
(-0.00136333 0.116382 0)
(-0.00173686 0.115501 0)
(-0.0021138 0.116253 0)
(-0.00232703 0.069189 0)
(-0.00242599 0.115306 0)
(-0.00283956 0.115998 0)
(0.000491382 0.114703 0)
(-0.00308503 0.115005 0)
(-0.00351934 0.115618 0)
(-0.00172569 0.117146 0)
(-0.00371143 0.114594 0)
(-0.00415574 0.115148 0)
(-0.00270148 0.114337 0)
(-0.00429983 0.114082 0)
(-0.00474601 0.114579 0)
(-0.00463094 0.115644 0)
(-0.00521903 0.115012 0)
(-0.0052928 0.113905 0)
(-0.00576391 0.114264 0)
(-0.00579754 0.113118 0)
(-0.00626061 0.1134 0)
(-0.00625266 0.114555 0)
(-0.00673363 0.113617 0)
(-0.00283204 0.064757 0)
(-0.00675066 0.11478 0)
(-0.0072134 0.11376 0)
(-0.00716675 0.11257 0)
(-0.00763077 0.11261 0)
(-0.00770341 0.113798 0)
(-0.00810163 0.112539 0)
(-0.0080019 0.111344 0)
(-0.00844791 0.111179 0)
(-0.00857392 0.112355 0)
(-0.00888824 0.1109 0)
(-0.00903621 0.11205 0)
(-0.00932018 0.110482 0)
(-0.00916898 0.109336 0)
(-0.00957654 0.108804 0)
(-0.00973755 0.109907 0)
(-0.00996723 0.10813 0)
(-0.0101387 0.109181 0)
(-0.0103321 0.107357 0)
(-0.0105215 0.108272 0)
(-0.0106747 0.106387 0)
(-0.010878 0.107183 0)
(-0.0110058 0.105147 0)
(-0.0112133 0.105889 0)
(-0.0113258 0.103672 0)
(-0.0115284 0.104351 0)
(-0.0116226 0.102026 0)
(-0.0118192 0.102621 0)
(-0.0118933 0.100254 0)
(-0.0120886 0.100681 0)
(-0.0121488 0.0982586 0)
(-0.0123432 0.0984632 0)
(-0.0123924 0.0960131 0)
(-0.0125833 0.0960517 0)
(-0.0126233 0.0935696 0)
(-0.0128099 0.0934327 0)
(-0.012838 0.091004 0)
(-0.0130171 0.0906364 0)
(-0.0130322 0.0882346 0)
(-0.0132041 0.0877275 0)
(-0.0132153 0.0852636 0)
(-0.0133773 0.0846356 0)
(-0.0133847 0.0821605 0)
(-0.0135397 0.0813721 0)
(-0.0135417 0.0788877 0)
(-0.0136901 0.0780238 0)
(-0.0136911 0.0755295 0)
(-0.0138302 0.0746015 0)
(-0.0138293 0.0721008 0)
(-0.0139625 0.0710677 0)
(-0.0139597 0.0685532 0)
(-0.0140866 0.0674672 0)
(-0.0140816 0.0649669 0)
(-0.014202 0.0638216 0)
(-0.0141967 0.0613909 0)
(-0.0143102 0.060111 0)
(-0.0143034 0.0577738 0)
(-0.0144137 0.0563261 0)
(-0.0144038 0.0540628 0)
(-0.0145132 0.0524787 0)
(-0.0145025 0.0502436 0)
(-0.0146081 0.0486174 0)
(-0.0145971 0.0464012 0)
(-0.0146988 0.0447343 0)
(-0.0146872 0.0425782 0)
(-0.0147851 0.0408327 0)
(-0.0147735 0.0386906 0)
(-0.0148674 0.0369461 0)
(-0.0148556 0.0348141 0)
(-0.0149462 0.0330673 0)
(-0.0149334 0.0309673 0)
(-0.0150229 0.0291503 0)
(-0.0150079 0.027127 0)
(-0.0150979 0.0252098 0)
(-0.0150806 0.0232646 0)
(-0.0151701 0.021317 0)
(-0.0151506 0.0193967 0)
(-0.0152375 0.0174509 0)
(-0.0152177 0.0155504 0)
(-0.0153029 0.0134921 0)
(-0.0152817 0.0116561 0)
(-0.0153652 0.0095351 0)
(-0.0153422 0.00777249 0)
(-0.015424 0.00563152 0)
(-0.0153997 0.00391376 0)
(-0.0154818 0.00170769 0)
(-0.0154524 1.11217e-05 0)
(-0.0155376 -0.0022558 0)
(-0.0155065 -0.00397642 0)
(-0.0155917 -0.00621887 0)
(-0.0155612 -0.00789154 0)
(-0.0156431 -0.0101598 0)
(-0.0156098 -0.0117157 0)
(-0.0156901 -0.0140628 0)
(-0.0156536 -0.0155528 0)
(-0.0157339 -0.0179435 0)
(-0.015694 -0.0193755 0)
(-0.0157741 -0.0217948 0)
(-0.0157315 -0.0232033 0)
(-0.0158118 -0.0256519 0)
(-0.0157666 -0.0270018 0)
(-0.0158442 -0.029478 0)
(-0.0157938 -0.0307011 0)
(-0.0158699 -0.0332002 0)
(-0.0158169 -0.0343873 0)
(-0.0158921 -0.0368832 0)
(-0.0158358 -0.0380121 0)
(-0.0159093 -0.040546 0)
(-0.0158453 -0.0415723 0)
(-0.0159204 -0.0441792 0)
(-0.0158494 -0.0451584 0)
(-0.0159255 -0.0477901 0)
(-0.0158473 -0.0486878 0)
(-0.0159218 -0.0513237 0)
(-0.0158395 -0.0521298 0)
(-0.0159105 -0.0547535 0)
(-0.0158255 -0.0554864 0)
(-0.0158932 -0.0581347 0)
(-0.0158008 -0.0586876 0)
(-0.0158663 -0.0614055 0)
(-0.0157658 -0.0618162 0)
(-0.0158301 -0.0645321 0)
(-0.0157229 -0.0648949 0)
(-0.0157842 -0.0675683 0)
(-0.0158942 -0.0671735 0)
(-0.0158445 -0.0701797 0)
(-0.0157281 -0.0705071 0)
(-0.0157847 -0.0731163 0)
(-0.0160071 -0.0507394 0)
(-0.0159174 -0.0320918 0)
(-0.0157672 -0.0164753 0)
(-0.0155573 -0.000457903 0)
(-0.0153205 0.0154917 0)
(-0.0150323 0.0312265 0)
(-0.0149878 0.0251375 0)
(-0.0145862 0.0441074 0)
(-0.0140901 0.0620814 0)
(-0.0133731 0.0798337 0)
(-0.0124446 0.0935827 0)
(-0.0147099 0.0468081 0)
(-0.015476 -0.00603028 0)
(-0.0157729 -0.0424753 0)
(-0.0156893 -0.0247882 0)
(-0.0111159 0.102999 0)
(-0.0143146 0.0625879 0)
(-0.0157038 -0.0588219 0)
(-0.00944517 0.107668 0)
(-0.0138255 0.0771632 0)
(-0.013203 0.090133 0)
(-0.00210532 0.0888751 0)
(-0.00182405 0.0876608 0)
(-0.015249 0.0102696 0)
(-0.0122791 0.100943 0)
(-0.0107379 0.109073 0)
(-0.00178448 0.0898111 0)
(-0.00148508 0.0882878 0)
(-0.00145025 0.090675 0)
(-0.0011598 0.0893702 0)
(-0.001117 0.0915139 0)
(-0.0008255 0.0901041 0)
(-0.000884828 0.0879284 0)
(-0.000556483 0.088429 0)
(-0.000642094 0.0862064 0)
(-0.000306788 0.086669 0)
(-0.000423087 0.084184 0)
(-6.60477e-05 0.0847337 0)
(-0.000417264 0.0907247 0)
(-0.00173887 0.0918272 0)
(-0.000202037 0.0820924 0)
(0.000149791 0.0826081 0)
(1.2764e-05 0.079917 0)
(0.000349764 0.080349 0)
(0.000513613 0.0830013 0)
(0.000695961 0.0806572 0)
(0.000881994 0.0832594 0)
(0.000543206 0.0778789 0)
(-0.000933975 0.0313915 0)
(-0.00222009 0.124555 0)
(-0.00207971 0.124045 0)
(-0.00327326 0.12415 0)
(-0.00349374 0.124668 0)
(-0.0044372 0.124207 0)
(-0.0047589 0.124731 0)
(-0.00555466 0.1242 0)
(-0.00598936 0.124712 0)
(-0.00660407 0.124139 0)
(-0.00713078 0.12461 0)
(-0.00757676 0.124016 0)
(-0.00814316 0.124423 0)
(-0.00845015 0.123769 0)
(-0.00902293 0.124123 0)
(-0.00921307 0.123405 0)
(-0.00977506 0.123701 0)
(-0.00521086 0.123645 0)
(-0.00985721 0.122908 0)
(-0.0103977 0.123141 0)
(-0.00869994 0.123068 0)
(-0.00415263 0.0823822 0)
(-0.0103882 0.122262 0)
(-0.0108979 0.122404 0)
(-0.00845871 0.0770124 0)
(-0.00207113 0.0591138 0)
(-0.0108247 0.121466 0)
(-0.0112884 0.121491 0)
(-0.00651847 0.125143 0)
(-0.00873565 -0.0248864 0)
(-0.00909766 -0.0257867 0)
(-0.00890907 -0.0226229 0)
(-0.00854229 -0.0218806 0)
(-0.00871166 -0.0195983 0)
(-0.00907355 -0.0201771 0)
(-0.00886897 -0.0171506 0)
(-0.00922289 -0.0175851 0)
(-0.00901134 -0.0145137 0)
(-0.00864927 -0.0142182 0)
(-0.00878565 -0.0115622 0)
(-0.00913889 -0.0116763 0)
(-0.00890981 -0.00872493 0)
(-0.00854463 -0.00876967 0)
(-0.00866416 -0.00595586 0)
(-0.00902144 -0.0057289 0)
(-0.00876973 -0.0029998 0)
(-0.00911846 -0.00261553 0)
(-0.00886042 6.94642e-05 0)
(-0.00850689 -0.000440252 0)
(-0.0085902 0.00260167 0)
(-0.00893834 0.00320959 0)
(-0.00866112 0.00572434 0)
(-0.00830822 0.00493818 0)
(-0.00837383 0.00801587 0)
(-0.00872552 0.00892153 0)
(-0.00842915 0.0112021 0)
(-0.00807989 0.0100637 0)
(-0.00812639 0.0131499 0)
(-0.00846076 0.0145351 0)
(-0.00815663 0.0163055 0)
(-0.00782298 0.0148684 0)
(-0.00785213 0.0178868 0)
(-0.00816977 0.0194783 0)
(-0.00786442 0.0209153 0)
(-0.00816772 0.0226408 0)
(-0.00786427 0.0239502 0)
(-0.00755544 0.0221543 0)
(-0.00755636 0.0250367 0)
(-0.00786307 0.0270874 0)
(-0.00754603 0.0279718 0)
(-0.00724498 0.0259047 0)
(-0.00722574 0.028587 0)
(-0.00749065 0.0307318 0)
(-0.00718601 0.0312193 0)
(-0.00691123 0.0290708 0)
(-0.00687754 0.0315714 0)
(-0.00713564 0.0338083 0)
(-0.00682953 0.0340035 0)
(-0.00707325 0.0363193 0)
(-0.00676675 0.0363617 0)
(-0.00651982 0.0340014 0)
(-0.00645859 0.0362245 0)
(-0.00668802 0.0386503 0)
(-0.00638211 0.0383622 0)
(-0.00659408 0.0408481 0)
(-0.00629162 0.0403977 0)
(-0.00648361 0.0428794 0)
(-0.00618317 0.0422712 0)
(-0.00634611 0.0446573 0)
(-0.00605174 0.0439772 0)
(-0.0058823 0.041474 0)
(-0.00576149 0.0430812 0)
(-0.00591439 0.0456246 0)
(-0.00562664 0.0445452 0)
(-0.00576351 0.047078 0)
(-0.00547903 0.0458602 0)
(-0.00560383 0.0484175 0)
(-0.00532319 0.0470455 0)
(-0.00543555 0.0496715 0)
(-0.00515328 0.0480559 0)
(-0.00504021 0.0454611 0)
(-0.00487257 0.0462898 0)
(-0.00475683 0.0437245 0)
(-0.00459083 0.0443916 0)
(-0.00447187 0.0418425 0)
(-0.00430924 0.0423693 0)
(-0.00418569 0.0398065 0)
(-0.00402838 0.0402276 0)
(-0.00620401 0.0338359 0)
(-0.00525091 0.0506836 0)
(-0.00389778 0.0376696 0)
(-0.00374648 0.037965 0)
(-0.00404972 0.0370736 0)
(-0.00361292 0.0354659 0)
(-0.00346727 0.0356001 0)
(-0.00358448 0.03804 0)
(-0.00333205 0.0331633 0)
(-0.00330994 0.0355154 0)
(-0.00341344 0.0379186 0)
(-0.00677317 0.0432751 0)
(-0.00573938 0.0511563 0)
(-0.00314044 0.0351818 0)
(-0.00322586 0.0374843 0)
(-0.0131983 -0.040549 0)
(-0.0133262 -0.018547 0)
(-0.0127028 -0.0225766 0)
(-0.012503 -0.0418204 0)
(-0.0168693 -0.0813828 0)
(-0.0169198 -0.080765 0)
(-0.0168696 -0.0788782 0)
(-0.0169126 -0.0781565 0)
(-0.0168635 -0.076378 0)
(-0.0169005 -0.0755515 0)
(-0.0168512 -0.0737811 0)
(-0.0168842 -0.0729028 0)
(-0.0168356 -0.0711087 0)
(-0.0168641 -0.0702069 0)
(-0.0168163 -0.0683993 0)
(-0.0168405 -0.0674589 0)
(-0.016794 -0.0656748 0)
(-0.0168142 -0.0647018 0)
(-0.0167694 -0.0629523 0)
(-0.0167862 -0.0619841 0)
(-0.0167423 -0.0602367 0)
(-0.0167563 -0.0592551 0)
(-0.0167132 -0.0575121 0)
(-0.0167248 -0.0565074 0)
(-0.0166826 -0.0547864 0)
(-0.016692 -0.0537851 0)
(-0.0166505 -0.0520661 0)
(-0.0166576 -0.0510649 0)
(-0.0166169 -0.0493469 0)
(-0.0166219 -0.0483282 0)
(-0.0165819 -0.0465926 0)
(-0.0165848 -0.0455236 0)
(-0.0165456 -0.0438103 0)
(-0.0165463 -0.0426934 0)
(-0.0165098 -0.0410971 0)
(-0.0165086 -0.0399815 0)
(-0.0164729 -0.038414 0)
(-0.0164711 -0.0373146 0)
(-0.0164353 -0.0357162 0)
(-0.0164328 -0.0346288 0)
(-0.0163977 -0.0330536 0)
(-0.0163935 -0.031907 0)
(-0.0163587 -0.0303499 0)
(-0.016353 -0.0291481 0)
(-0.016318 -0.0275659 0)
(-0.0163123 -0.0264044 0)
(-0.0162764 -0.0247607 0)
(-0.0162715 -0.0236646 0)
(-0.0162354 -0.0219639 0)
(-0.0162301 -0.0209042 0)
(-0.0161966 -0.0192767 0)
(-0.0161889 -0.0181567 0)
(-0.0161573 -0.0166418 0)
(-0.0161478 -0.0154497 0)
(-0.0161164 -0.0139568 0)
(-0.0161061 -0.0127235 0)
(-0.0160741 -0.0111917 0)
(-0.016064 -0.00998285 0)
(-0.0160317 -0.00843362 0)
(-0.0160218 -0.00724294 0)
(-0.0159894 -0.00569351 0)
(-0.0159792 -0.00450008 0)
(-0.015947 -0.00295075 0)
(-0.0159371 -0.00179084 0)
(-0.0159048 -0.000239887 0)
(-0.0158955 0.000873179 0)
(-0.0158633 0.00242137 0)
(-0.0158535 0.00355696 0)
(-0.0158217 0.00508293 0)
(-0.0158105 0.00629242 0)
(-0.0157795 0.00776649 0)
(-0.015768 0.00898158 0)
(-0.0157376 0.0104088 0)
(-0.015726 0.011639 0)
(-0.0156951 0.0130807 0)
(-0.0156834 0.0143296 0)
(-0.0156515 0.0157984 0)
(-0.015641 0.016994 0)
(-0.0156091 0.0184702 0)
(-0.0155985 0.0196605 0)
(-0.0155674 0.0211111 0)
(-0.0155558 0.022335 0)
(-0.0155257 0.0237372 0)
(-0.0155132 0.0249997 0)
(-0.0154829 0.0264139 0)
(-0.0154701 0.027693 0)
(-0.0154387 0.0291507 0)
(-0.0154265 0.0303995 0)
(-0.0153947 0.031854 0)
(-0.0153832 0.0330742 0)
(-0.015351 0.0345413 0)
(-0.01534 0.0357448 0)
(-0.0153068 0.0372535 0)
(-0.0152961 0.0384434 0)
(-0.0152641 0.0398857 0)
(-0.0152531 0.041085 0)
(-0.0152225 0.0424227 0)
(-0.016911 -0.0720294 0)
(-0.0152113 0.0436425 0)
(-0.0151795 0.0450021 0)
(-0.0151686 0.0462408 0)
(-0.0151353 0.0476483 0)
(-0.0151249 0.0488956 0)
(-0.0150909 0.0503005 0)
(-0.0167659 -0.0582165 0)
(-0.0150806 0.0515638 0)
(-0.0150456 0.0529861 0)
(-0.015036 0.0542241 0)
(-0.0150001 0.055667 0)
(-0.0149911 0.0569015 0)
(-0.0149549 0.0583234 0)
(-0.0165851 -0.0443246 0)
(-0.0149456 0.0595842 0)
(-0.0149098 0.0609595 0)
(-0.0148993 0.0622893 0)
(-0.0148639 0.0635981 0)
(-0.0148537 0.0649459 0)
(-0.014818 0.0661915 0)
(-0.0164295 -0.0336003 0)
(-0.0148091 0.0675319 0)
(-0.0147721 0.0687704 0)
(-0.0147646 0.0700992 0)
(-0.0147253 0.0713469 0)
(-0.0162619 -0.0224582 0)
(-0.0147195 0.0726562 0)
(-0.0146774 0.0739203 0)
(-0.0146735 0.0752017 0)
(-0.014629 0.0764984 0)
(-0.0146267 0.0777621 0)
(-0.0145807 0.0790729 0)
(-0.0160541 -0.00884946 0)
(-0.0145778 0.0803951 0)
(-0.0145308 0.0816526 0)
(-0.0145276 0.0830274 0)
(-0.0144797 0.0841883 0)
(-0.0144788 0.0855227 0)
(-0.0144281 0.0866728 0)
(-0.0165767 -0.0476371 0)
(-0.0160853 -0.0125207 0)
(-0.0167852 -0.0694054 0)
(-0.0152692 0.0389774 0)
(-0.015537 0.0224998 0)
(-0.0158262 0.00419515 0)
(-0.0158408 0.00485481 0)
(-0.0163236 -0.0288808 0)
(-0.0144292 0.088005 0)
(-0.0143745 0.0891567 0)
(-0.0149611 0.0571326 0)
(-0.0143762 0.0905375 0)
(-0.0143181 0.091631 0)
(-0.0143201 0.0930702 0)
(-0.0142579 0.0941065 0)
(-0.0146814 0.0725075 0)
(-0.0143177 0.0902171 0)
(-0.0156712 0.0155152 0)
(-0.0142618 0.0955819 0)
(-0.0141933 0.0965809 0)
(-0.0166964 -0.0584703 0)
(-0.0168181 -0.0792413 0)
(-0.0154997 0.0262309 0)
(-0.0141993 0.0981088 0)
(-0.0141229 0.0990588 0)
(-0.0141291 0.100613 0)
(-0.0140453 0.101533 0)
(-0.0153707 0.0343017 0)
(-0.0140546 0.103049 0)
(-0.0139603 0.103978 0)
(-0.015242 0.0422413 0)
(-0.0140334 0.0999289 0)
(-0.0139753 0.105525 0)
(-0.0138661 0.106362 0)
(-0.0151157 0.0500658 0)
(-0.0138834 0.107992 0)
(-0.0137567 0.108696 0)
(-0.0149802 0.058208 0)
(-0.0137762 0.110335 0)
(-0.0147995 0.0688556 0)
(-0.0146676 0.0764602 0)
(-0.00295849 0.0345729 0)
(-0.00287436 0.0324221 0)
(-0.00747949 0.0765729 0)
(-0.0164337 -0.0368086 0)
(-0.00302143 0.0366722 0)
(-0.00328766 0.0397566 0)
(-0.0161955 -0.0199149 0)
(-0.0145234 0.0843629 0)
(-0.0159558 -0.00411845 0)
(-0.0156623 0.0144824 0)
(-0.0154059 0.0306151 0)
(-0.0151486 0.0461892 0)
(-0.0145278 0.0804387 0)
(-0.0148297 0.0646027 0)
(-0.0111881 0.120501 0)
(-0.0107453 0.120512 0)
(-0.0145052 -0.0606133 0)
(-0.0144425 -0.0574822 0)
(-0.0145964 -0.0574288 0)
(-0.014528 -0.0542358 0)
(-0.0146759 -0.0541093 0)
(-0.0146035 -0.0509417 0)
(-0.0147448 -0.0506564 0)
(-0.0146605 -0.0475411 0)
(-0.0147988 -0.0469229 0)
(-0.0146993 -0.0438036 0)
(-0.0148381 -0.043053 0)
(-0.0147356 -0.0399304 0)
(-0.0148683 -0.0391667 0)
(-0.0147683 -0.0360591 0)
(-0.0148891 -0.0352082 0)
(-0.0147906 -0.0322227 0)
(-0.0148989 -0.0311412 0)
(-0.0147941 -0.0282535 0)
(-0.0148975 -0.0269488 0)
(-0.0147824 -0.0240601 0)
(-0.0148816 -0.0226341 0)
(-0.0147666 -0.0198362 0)
(-0.0148578 -0.0182328 0)
(-0.0147425 -0.0155847 0)
(-0.014832 -0.0138836 0)
(-0.0147102 -0.0112835 0)
(-0.0147975 -0.00956491 0)
(-0.0146695 -0.00687825 0)
(-0.0145812 -0.00867769 0)
(-0.0145376 -0.00427173 0)
(-0.0146208 -0.0023753 0)
(-0.0144882 0.000183031 0)
(-0.0145642 0.00216244 0)
(-0.0144286 0.00463863 0)
(-0.0144993 0.00668648 0)
(-0.014355 0.00910072 0)
(-0.0144256 0.0112366 0)
(-0.0142762 0.0136364 0)
(-0.0143439 0.015814 0)
(-0.014196 0.0181068 0)
(-0.0142538 0.0203773 0)
(-0.0141005 0.0224998 0)
(-0.0141543 0.0249516 0)
(-0.0139959 0.0269888 0)
(-0.0140473 0.0294922 0)
(-0.0138923 0.0314193 0)
(-0.0139338 0.0339461 0)
(-0.0137743 0.0356609 0)
(-0.0138108 0.0383311 0)
(-0.0136408 0.0399442 0)
(-0.013678 0.0426642 0)
(-0.0135071 0.0441956 0)
(-0.0135366 0.0469382 0)
(-0.0133646 0.0483117 0)
(-0.0133864 0.0511271 0)
(-0.0132135 0.0523493 0)
(-0.0132262 0.0552117 0)
(-0.0130493 0.0562425 0)
(-0.0130552 0.0591474 0)
(-0.0128687 0.0599881 0)
(-0.0128749 0.0629104 0)
(-0.0126818 0.0636554 0)
(-0.0126743 0.0608269 0)
(-0.0124859 0.0642988 0)
(-0.0124844 0.0672033 0)
(-0.0122842 0.0677288 0)
(-0.0122726 0.0706679 0)
(-0.0120695 0.0710042 0)
(-0.0120458 0.0739938 0)
(-0.0118435 0.074105 0)
(-0.0118081 0.0771011 0)
(-0.011607 0.077015 0)
(-0.0115617 0.0799599 0)
(-0.0113625 0.0796945 0)
(-0.0113065 0.082578 0)
(-0.0111077 0.0821622 0)
(-0.0135937 0.0369266 0)
(-0.0110381 0.0850177 0)
(-0.0108384 0.0844794 0)
(-0.014063 0.0201978 0)