/*--------------------------------*- C++ -*----------------------------------*\
| =========                 |                                                 |
| \\      /  F ield         | OpenFOAM: The Open Source CFD Toolbox           |
|  \\    /   O peration     | Version:  v2012                                 |
|   \\  /    A nd           | Website:  www.openfoam.com                      |
|    \\/     M anipulation  |                                                 |
\*---------------------------------------------------------------------------*/
FoamFile
{
    version     2.0;
    format      ascii;
    class       volVectorField;
    location    "500";
    object      cellDisplacement;
}
// * * * * * * * * * * * * * * * * * * * * * * * * * * * * * * * * * * * * * //

dimensions      [0 1 0 0 0 0 0];


internalField   nonuniform List<vector> 
13917
(
(-0.0201993 -0.137295 0)
(-0.0138774 -0.122679 0)
(-0.0277571 0.0595898 0)
(-0.0226302 0.077597 0)
(0.0003753 -0.103522 0)
(0.00203617 -0.209253 0)
(-0.0281091 0.0729519 0)
(-0.0274892 0.0493523 0)
(-0.0259343 -0.0101183 0)
(-0.0212032 -0.139539 0)
(-0.02764 0.0620147 0)
(-0.0276876 0.0967591 0)
(-0.0227593 0.0802731 0)
(-0.0270834 0.0335105 0)
(-0.011726 -0.179627 0)
(-0.013209 -0.16951 0)
(-0.0131434 -0.134956 0)
(-0.0243878 -0.0396284 0)
(-0.027664 0.0987394 0)
(-0.00352351 -0.0448098 0)
(-0.000466317 -0.0181923 0)
(-0.0281464 0.0743399 0)
(-0.00412352 -0.0735698 0)
(-0.0274987 0.0497869 0)
(-0.00402584 -0.129824 0)
(-0.0285718 0.0906592 0)
(0.000366484 -0.203617 0)
(-0.006804 -0.204662 0)
(-0.0187967 -0.207207 0)
(-0.0230108 -0.102257 0)
(-0.0208867 -0.126951 0)
(-0.0185821 -0.133529 0)
(-0.0037862 -0.200787 0)
(0.00362932 -0.192831 0)
(-0.00226779 -0.137468 0)
(-0.028041 0.0728482 0)
(-0.00390515 -0.0707603 0)
(-0.0270977 0.0340691 0)
(-0.0238625 0.0875007 0)
(-0.0294948 0.125534 0)
(-0.00121363 -0.00704381 0)
(-0.00023879 -0.00720458 0)
(-0.00904964 0.00299879 0)
(-0.0103602 -0.206298 0)
(-0.0174389 -0.0595328 0)
(0.00158289 -0.195645 0)
(-0.0244308 -0.0369858 0)
(-0.0255936 -0.00462516 0)
(-0.00099218 -0.20966 0)
(-0.00102776 -0.00899142 0)
(-0.0233452 -0.0130909 0)
(0.000946486 -0.173628 0)
(0.00028742 -0.209631 0)
(0.00343792 -0.193629 0)
(-0.0130118 -0.137409 0)
(-0.0219213 -0.0595403 0)
(-0.0275783 0.0600187 0)
(-0.00756038 -0.145234 0)
(-0.0205901 -0.0763769 0)
(-0.017175 -0.0603095 0)
(-0.0227538 -0.1304 0)
(-0.0141354 -0.120756 0)
(-0.0271137 0.0346666 0)
(-0.00372128 -0.0477572 0)
(0.000677109 -0.209209 0)
(-0.0213916 -0.178743 0)
(0.00248327 -0.108747 0)
(0.00339774 -0.142466 0)
(-0.0263415 0.010364 0)
(-0.0186447 -0.15587 0)
(0.000183291 -0.100475 0)
(-0.0259554 -0.00927041 0)
(-0.0254703 -0.028038 0)
(-0.00408576 -0.127474 0)
(-0.00399674 -0.209738 0)
(-0.0281876 0.122313 0)
(-0.0259992 -0.00785932 0)
(-0.0197403 -0.0506755 0)
(-0.0290126 0.107557 0)
(-0.000933571 -0.0337268 0)
(-0.00173276 -0.0391229 0)
(0.00235316 -0.104206 0)
(-0.00268096 -0.209218 0)
(-0.0270881 0.0337091 0)
(-0.0224179 -0.144283 0)
(-0.0196809 -0.0479746 0)
(-0.00247709 -0.0448878 0)
(-0.0213221 -0.18024 0)
(-0.0232638 -0.0121171 0)
(-0.00949934 0.00435832 0)
(-0.0259651 -0.00915461 0)
(-0.0221523 -0.1243 0)
(-0.0138706 -0.0822515 0)
(-0.00811515 -0.17333 0)
(-0.0212862 -0.181718 0)
(0.00527387 -0.209099 0)
(-0.0268698 0.0347041 0)
(-0.0252591 -0.0144827 0)
(-0.0287174 0.114029 0)
(-0.0048695 -0.207727 0)
(-0.0065737 -0.0351164 0)
(0.00376282 -0.200241 0)
(-0.0093827 -0.206449 0)
(-0.0210829 -0.0270736 0)
(-0.010856 -0.055037 0)
(-0.0256895 -0.0193894 0)
(-0.0187214 -0.205452 0)
(-0.0256095 -0.00538267 0)
(-0.0134816 -0.133393 0)
(-0.020687 -0.1351 0)
(-0.0240298 -0.0829957 0)
(-0.0294663 0.124446 0)
(-0.0280879 0.100697 0)
(-0.0257317 -0.0178151 0)
(0.00180028 -0.182744 0)
(0.0105113 -0.209362 0)
(-0.00568559 -0.105466 0)
(0.000482812 -0.209572 0)
(-0.0282051 0.0763164 0)
(0.00137247 -0.193326 0)
(-0.000458044 -0.0139892 0)
(-0.0262855 0.0085157 0)
(-0.027852 0.0628372 0)
(-0.00625644 -0.204344 0)
(-0.00100296 -0.00773242 0)
(-0.00791868 -0.172211 0)
(-0.0164226 -0.0762354 0)
(-0.000802208 -0.00632049 0)
(-0.00524659 -0.00266195 0)
(0.00401213 -0.209203 0)
(-0.0280313 0.0697041 0)
(0.00196874 -0.181709 0)
(-0.0174705 -0.0623346 0)
(-0.000355398 -0.0150037 0)
(-0.0244567 -0.064885 0)
(-0.0275438 0.0515416 0)
(-0.0200541 -0.140488 0)
(-0.00449696 -0.208006 0)
(0.0023102 -0.110968 0)
(0.00209692 -0.193199 0)
(-0.0279125 0.0684923 0)
(-0.0138702 -0.0422982 0)
(-0.0015894 -0.17628 0)
(-0.00955234 -0.207157 0)
(0.00318288 -0.143933 0)
(-0.0259745 -0.008355 0)
(-0.0192702 -0.206112 0)
(0.000724673 -0.172258 0)
(-0.0131963 -0.0356459 0)
(-0.0181718 -0.142304 0)
(-0.0262225 0.0293742 0)
(0.0120039 -0.209322 0)
(-0.0273204 0.0607169 0)
(-0.017505 -0.176532 0)
(-0.0202972 -0.099457 0)
(-0.0215274 -0.17771 0)
(-0.0184333 -0.156373 0)
(-0.0269841 0.0311537 0)
(-0.0259725 -0.00887968 0)
(-0.0243985 -0.0670718 0)
(-0.00416838 -0.186318 0)
(0.00670087 -0.203539 0)
(-0.00118249 -0.0295657 0)
(-0.0268962 0.0364861 0)
(-0.0280093 0.0984001 0)
(-0.0286536 0.112283 0)
(-0.0209127 -0.0302842 0)
(-0.02581 0.00922791 0)
(-0.0161111 -0.0589152 0)
(0.00429272 -0.200741 0)
(-0.0181317 -0.170708 0)
(-0.0235859 -0.0999533 0)
(-0.028282 0.10796 0)
(-0.013276 -0.144922 0)
(-0.0263139 0.00475663 0)
(-0.0175031 -0.181829 0)
(-0.0280551 0.0706227 0)
(0.000615863 -0.209596 0)
(-0.0260202 -0.0065505 0)
(-0.0113535 -0.110677 0)
(-0.022306 -0.121174 0)
(-0.0210927 -0.124788 0)
(-0.0140104 -0.0394202 0)
(-0.00259907 -0.0480539 0)
(-0.0110554 -0.189829 0)
(-0.0285688 0.0906491 0)
(-0.0228184 -0.120869 0)
(-0.0215459 -0.176729 0)
(-0.0230935 -0.0609602 0)
(-0.028299 0.0954509 0)
(-0.0274089 0.0485037 0)
(-0.0223967 -0.144969 0)
(-0.0224113 -0.134279 0)
(-0.00330226 -0.0825726 0)
(-0.000133338 -0.208144 0)
(8.17399e-05 -0.203158 0)
(-0.000457075 -0.00173062 0)
(-0.013942 -0.0847184 0)
(-0.018547 -0.203179 0)
(-0.0211685 -0.184563 0)
(-0.0240687 0.0347741 0)
(-0.000956214 -0.00852259 0)
(-0.0258813 0.0162839 0)
(-0.026244 0.031745 0)
(-0.0254778 -0.0277571 0)
(-0.0251947 -0.0367608 0)
(-0.00202875 -0.135914 0)
(-0.00760535 -0.147227 0)
(-0.0253363 -0.0108766 0)
(-0.0282157 0.0771629 0)
(-0.00183887 -0.174943 0)
(-0.0280161 0.0693745 0)
(-0.0254481 -0.0288951 0)
(-0.0282404 0.0935039 0)
(-0.010789 -0.057107 0)
(-0.0146757 -0.209082 0)
(-0.0253156 -0.00694853 0)
(-0.0242763 -0.0736087 0)
(-0.00744239 -0.112468 0)
(-0.0227259 -0.131118 0)
(-0.0111753 -0.108994 0)
(-0.0233745 -0.0884938 0)
(-0.00142831 -0.00860781 0)
(-0.0268066 0.0229605 0)
(-0.0256034 -0.0226822 0)
(-0.0135024 -0.169893 0)
(-0.0210002 -0.186709 0)
(-0.0205294 -0.0968717 0)
(-0.0104476 -0.0572319 0)
(-0.0280742 0.0744188 0)
(-0.0282748 0.110119 0)
(-0.0231644 -0.0576881 0)
(-0.0276876 0.0570538 0)
(-0.0254198 -0.0299748 0)
(-0.00437215 -0.0180413 0)
(-0.018802 -0.132547 0)
(-0.0259554 -0.00951484 0)
(-0.0221011 -0.156413 0)
(-0.00127872 -0.0336054 0)
(-0.00669909 -0.0626859 0)
(-0.0298076 0.137476 0)
(-0.0267667 0.0290272 0)
(-0.000152581 -0.00169019 0)
(-0.0282514 0.0826076 0)
(-0.0246893 -0.0444373 0)
(0.0072877 -0.203128 0)
(-0.0202561 -0.130324 0)
(-0.00132759 -0.0315942 0)
(-0.0164431 -0.188221 0)
(-0.0256458 -0.0213471 0)
(-0.0190615 0.0262062 0)
(-0.0222975 -0.126649 0)
(-0.00696583 -0.208214 0)
(-0.0163936 -0.0732272 0)
(-0.00716479 -0.144941 0)
(-0.0271844 0.0635726 0)
(-0.0296751 0.132435 0)
(-0.027293 0.0611583 0)
(-0.01147 -0.189963 0)
(-0.0121657 -0.178736 0)
(-0.000255616 -0.00289318 0)
(-0.0278587 0.0630932 0)
(-0.0246635 -0.0582284 0)
(-0.0286637 0.0987287 0)
(-0.010384 -0.0592025 0)
(-0.0250099 -0.0456059 0)
(-0.0269525 0.0285147 0)
(-0.0270047 0.0317509 0)
(-0.0290495 0.108908 0)
(-0.0282865 0.122888 0)
(-0.00159206 -0.0377716 0)
(-0.00122431 -0.00874636 0)
(-0.0246247 -0.0303654 0)
(-0.02654 0.0127758 0)
(-0.0256868 -0.0112161 0)
(-0.0205704 -0.0735247 0)
(-0.0251516 -0.0385802 0)
(-0.0267183 0.113252 0)
(-0.00405013 -0.00133456 0)
(-0.0237147 -0.0936575 0)
(-0.00365176 -0.042845 0)
(-0.0263647 0.00664119 0)
(-0.0239289 0.0349658 0)
(-0.000153222 -0.00169008 0)
(-0.0144933 -0.17205 0)
(-0.0173809 -0.178338 0)
(0.00525636 -0.20357 0)
(-0.0282208 0.0809742 0)
(-0.0155614 -0.178691 0)
(-0.0192012 -0.00162616 0)
(-0.0242553 -0.07131 0)
(-0.0276368 0.0551234 0)
(-0.0246697 -0.058092 0)
(-0.00721889 -0.111504 0)
(-0.0267555 0.022091 0)
(0.00127667 -0.0747139 0)
(-0.0192738 0.00242571 0)
(-0.0055817 -0.102373 0)
(-0.0195488 -0.206243 0)
(-0.000931979 -0.00929737 0)
(-0.0234072 -0.088809 0)
(-0.0200632 -0.13165 0)
(-0.0160257 -0.0560326 0)
(-0.0259764 0.018861 0)
(-0.0166591 -0.121466 0)
(0.00266705 -0.209562 0)
(-0.0173854 -0.180997 0)
(-0.0220939 -0.123846 0)
(-0.0156863 -0.0363404 0)
(-0.00710461 -0.142933 0)
(-0.0239278 -0.0868923 0)
(-0.0276623 0.0556021 0)
(-0.00594395 -0.106763 0)
(-0.00138727 -0.00919921 0)
(-0.0236696 -0.0952162 0)
(-0.0120998 -0.100908 0)
(-0.0255093 -0.0265471 0)
(-0.0154188 -0.0372417 0)
(-0.0267883 0.0222675 0)
(-0.0209366 0.0622905 0)
(-0.021311 -0.170111 0)
(-0.0246768 0.00301339 0)
(-0.00684403 -0.209812 0)
(-0.00433954 -0.185141 0)
(-0.0243458 -0.0688125 0)
(-0.0119439 -0.208866 0)
(-0.0146287 -0.170226 0)
(-0.0267001 0.0265532 0)
(-0.0196929 -0.201471 0)
(-0.00970318 -0.154075 0)
(-0.0276332 0.0545035 0)
(0.00128933 -0.208058 0)
(-0.0269283 0.0275901 0)
(0.000283068 -0.190531 0)
(-0.0288057 0.0992336 0)
(-0.0192339 -0.128133 0)
(-0.0232815 -0.111431 0)
(-0.0112568 -0.208682 0)
(-0.0179714 -0.199497 0)
(-0.0180533 -0.198438 0)
(-0.027773 0.0601195 0)
(-0.000976985 -0.0451606 0)
(-0.0183921 -0.169869 0)
(-0.0240134 -0.0836063 0)
(-0.00535674 -0.161531 0)
(-0.012902 -0.160949 0)
(-0.0270829 0.0334923 0)
(-0.018741 -0.203837 0)
(-0.0138024 -0.137853 0)
(-0.0273997 0.0484761 0)
(-0.0183522 -0.207487 0)
(-0.00548424 -0.0335605 0)
(-0.0281758 0.0752002 0)
(-0.027773 0.0626331 0)
(-0.00385849 -0.045603 0)
(-0.00878526 -0.0741842 0)
(0.00133576 -0.0712222 0)
(-0.0133212 -0.0331356 0)
(-0.0243077 -0.0691293 0)
(-0.0261183 -0.00276814 0)
(0.0189793 -0.208727 0)
(-0.0239226 -0.0870774 0)
(-0.00480094 -0.118879 0)
(-0.02237 -0.126035 0)
(-0.0214511 -0.181387 0)
(-0.0254417 0.0125559 0)
(-0.028056 0.0708722 0)
(-0.026539 0.0127441 0)
(-0.0256478 -0.0210214 0)
(-0.00708393 -0.0297992 0)
(-0.028676 0.09981 0)
(-0.00909917 -0.0697318 0)
(-0.0227644 -0.12941 0)
(-0.0169762 -0.0635042 0)
(-0.00808334 -0.209849 0)
(-0.0246187 -0.047461 0)
(-0.0235896 0.0608288 0)
(-0.00111621 -0.0542543 0)
(-0.0252959 -0.0105968 0)
(-0.0223603 -0.12131 0)
(-0.0248605 -0.0331328 0)
(-0.0197361 -0.209804 0)
(-0.0232895 -0.111174 0)
(-0.0242526 -0.0745149 0)
(-0.0167752 -0.188218 0)
(-0.0210923 -0.139782 0)
(-0.00646168 -0.0610053 0)
(-0.0221202 -0.155615 0)
(-0.0283002 0.0802013 0)
(-0.00901122 -0.142678 0)
(-0.0243411 -0.0686801 0)
(-0.0028259 -0.120543 0)
(-0.0249837 -0.0434935 0)
(-0.0208867 0.0590863 0)
(-0.00083166 -0.0392518 0)
(-0.0161106 -0.128867 0)
(-0.02968 0.133334 0)
(-0.0158951 -0.13083 0)
(-0.0296784 0.132587 0)
(-0.0212011 -0.189986 0)
(-0.0278595 0.0730525 0)
(-0.0101483 -0.209208 0)
(-0.00990742 -0.152119 0)
(-0.0136778 -0.209034 0)
(-0.0113724 -0.209101 0)
(-0.00534389 -0.0816755 0)
(-0.0185191 -0.204889 0)
(-0.00547917 -0.159919 0)
(-0.00309799 -0.128433 0)
(-0.0229109 -0.105003 0)
(-0.000366842 -0.00417796 0)
(-0.00360355 -0.133001 0)
(-0.00909176 -0.0677688 0)
(-0.0242837 -0.0695525 0)
(-0.000757193 -0.0275061 0)
(-0.0287757 0.098093 0)
(-0.0294385 0.124485 0)
(-0.0211761 -0.191768 0)
(-0.0223305 -0.136457 0)
(-0.0291863 0.113813 0)
(-0.02455 -0.0631648 0)
(-0.0254443 0.0147717 0)
(-0.00474932 -0.116096 0)
(-0.0245479 -0.0563159 0)
(-0.0237547 0.0844348 0)
(-0.0190602 -0.133753 0)
(-0.00348736 -0.0860816 0)
(-0.0260764 -0.00444276 0)
(-0.0282302 0.0776193 0)
(-0.0294334 0.124585 0)
(-0.0122271 -0.174156 0)
(-0.0249226 -0.0382538 0)
(0.000737809 -0.189784 0)
(-0.0240518 0.0878306 0)
(-0.0249168 -0.0304328 0)
(-0.0144166 -0.142837 0)
(-0.0287928 0.104324 0)
(-0.0135987 -0.130824 0)
(-0.00112052 -0.0112337 0)
(-0.025501 -0.0268573 0)
(-0.0281032 0.0724546 0)
(-0.0281323 0.0735776 0)
(-0.0214487 -0.151905 0)
(-0.0211594 -0.192497 0)
(-0.0276255 0.0542199 0)
(-0.0245547 -0.0629533 0)
(-0.0263491 0.00548972 0)
(-0.00500203 -0.00530985 0)
(-0.0249879 -0.0206877 0)
(-0.0146149 -0.140652 0)
(-0.00727125 -0.150918 0)
(-0.0250709 -0.0412508 0)
(-0.0245691 -0.0332958 0)
(-0.00192113 0.00411269 0)
(-0.0235995 -0.0712565 0)
(-0.0251671 0.00602667 0)
(-0.0264718 0.0101703 0)
(-0.00555818 -0.0836551 0)
(-0.0262639 0.0115227 0)
(-0.0210218 -0.196029 0)
(-0.0214356 -0.170208 0)
(-0.0286259 0.0923752 0)
(-0.000632159 -0.0249104 0)
(-0.0088335 -0.144518 0)
(-0.000835788 -0.00296281 0)
(-0.0181908 -0.159349 0)
(-0.00675192 -0.027716 0)
(-0.028714 0.0963691 0)
(0.0174398 -0.208735 0)
(-0.0155756 -0.17707 0)
(-0.0219343 -0.162527 0)
(-0.0220208 -0.0554523 0)
(-0.0269866 0.0397565 0)
(-0.0245495 -0.0631333 0)
(-0.0192714 -0.20549 0)
(-0.0278878 0.0748479 0)
(-0.027877 0.0668102 0)
(-0.0263281 0.0135794 0)
(-0.0231 -0.0856974 0)
(-0.0249235 -0.0424402 0)
(-0.0264941 0.0664534 0)
(-0.0282285 0.0868316 0)
(-0.00128625 -0.209286 0)
(-0.0269929 0.0877767 0)
(-0.0259054 0.00340326 0)
(-0.00165579 -0.00359647 0)
(-0.024665 -0.0568096 0)
(-0.0233344 -0.0189001 0)
(-0.0156073 0.017134 0)
(-0.017963 -0.15983 0)
(-0.0201676 -0.0443231 0)
(-0.0264302 0.0085838 0)
(-0.0257725 -0.0162366 0)
(-0.0118505 -0.100033 0)
(-0.0033045 -0.00117918 0)
(-0.0283616 0.0828837 0)
(-0.0245273 -0.0640309 0)
(-0.000291367 -0.00327161 0)
(-0.0286266 0.0924005 0)
(-0.0217324 0.022001 0)
(-0.022427 -0.130965 0)
(-0.0118093 -0.105489 0)
(-0.0252405 -0.0368114 0)
(-0.0261784 0.000434759 0)
(-0.0183813 -0.139184 0)
(-0.0167316 -0.0942921 0)
(-0.0291781 0.113536 0)
(-0.022778 -0.121176 0)
(-0.021794 -0.168321 0)
(-0.000324028 -0.00372628 0)
(-0.0255303 -0.0257549 0)
(0.00251314 -0.209556 0)
(-0.0235672 -0.099114 0)
(-0.0156656 0.0144749 0)
(-0.0223904 -0.145397 0)
(-0.0246897 -0.0575533 0)
(-0.0256639 0.0219459 0)
(-0.00897382 -0.0731698 0)
(-0.0121792 -0.142282 0)
(-0.0282132 0.128481 0)
(-0.0250119 -0.0428087 0)
(-0.00242628 0.00557 0)
(-0.00849086 -0.0722467 0)
(-0.00271406 -0.0216454 0)
(-0.00287006 -0.0224023 0)
(-0.0250216 -0.0451615 0)
(-0.025009 -0.0435139 0)
(-0.0255609 0.0197211 0)
(-0.0229452 -0.116281 0)
(-0.000903275 -0.00633015 0)
(-0.00626254 -0.0342264 0)
(-0.0249768 -0.0356575 0)
(-0.0252039 -0.0380831 0)
(-0.0223163 -0.0752089 0)
(-0.0163677 -0.0583071 0)
(-0.00339483 -0.128368 0)
(0.00256894 -0.126967 0)
(-0.0236187 -0.0973044 0)
(-0.022432 -0.143527 0)
(-0.00257339 -0.0410576 0)
(0.00119836 -0.126401 0)
(-0.0287447 0.102795 0)
(-0.0264004 0.0633064 0)
(-0.0247653 0.00694347 0)
(-0.00842042 -0.14495 0)
(-0.0155783 -0.135599 0)
(-0.017356 -0.146238 0)
(-0.0259596 0.00612295 0)
(-0.0195199 -0.201103 0)
(-0.022888 -0.118864 0)
(-0.0246147 -0.0543026 0)
(-0.0254415 -0.0178618 0)
(-0.0252541 -0.0346079 0)
(-0.0221985 -0.120307 0)
(-0.00681106 -0.11249 0)
(-0.025612 -0.0226361 0)
(0.00277558 -0.12535 0)
(-0.0131103 -0.161695 0)
(-0.023247 0.0365389 0)
(-0.0247173 -0.0547766 0)
(-0.0182136 -0.191758 0)
(-0.00198931 -0.0101577 0)
(-0.021476 -0.168276 0)
(-0.0231918 -0.0986668 0)
(-0.0208206 -0.20445 0)
(-0.0253695 -0.0204652 0)
(-0.0104934 -0.19718 0)
(-0.0252274 0.00549828 0)
(-0.00115083 -0.058554 0)
(-0.024711 -0.0565949 0)
(-0.0214138 -0.168194 0)
(-0.0275687 0.0521575 0)
(-0.0133878 -0.129645 0)
(-0.0223492 -0.0623839 0)
(-0.0230105 -0.114499 0)
(-0.0264953 0.0110769 0)
(-0.0249863 -0.0465139 0)
(-0.0252957 -0.0147176 0)
(-0.0215433 -0.151438 0)
(-0.0128094 -0.170996 0)
(-0.0187756 -0.10415 0)
(-0.00827536 -0.146771 0)
(-0.0148505 -0.198835 0)
(-0.00893993 -0.20689 0)
(0.00438402 -0.166758 0)
(-0.0253798 -0.00349394 0)
(-0.00551047 -0.208209 0)
(-0.0275287 0.0506471 0)
(-0.021826 -0.167093 0)
(-0.0161142 -0.140788 0)
(-0.0270234 0.0418682 0)
(-0.0262096 0.00179351 0)
(-0.0151374 -0.17165 0)
(-0.00260368 -0.172884 0)
(-0.014866 -0.209988 0)
(-0.0253336 -0.0327678 0)
(-0.0262315 0.00138768 0)
(-0.0231102 -0.110248 0)
(-0.00565317 -0.00385567 0)
(-0.0281329 0.0735631 0)
(-0.0281504 0.124964 0)
(-0.00149408 -0.00763563 0)
(-0.020973 -0.103533 0)
(-0.026538 0.0306801 0)
(-0.00409724 -0.200112 0)
(-0.0230534 -0.0999534 0)
(-0.0289203 0.103991 0)
(-0.0249614 -0.04057 0)
(-0.026191 0.065905 0)
(-0.0247577 -0.0548178 0)
(-0.0200508 -0.0577935 0)
(-0.0263146 0.00417183 0)
(-0.00113053 -0.0313929 0)
(-0.00271863 -0.043926 0)
(-0.0268056 0.0239432 0)
(-0.0253775 -0.0311303 0)
(-0.00752815 -0.209422 0)
(-0.0202026 -0.053864 0)
(-0.0133428 -0.142538 0)
(0.000938838 -0.124532 0)
(-0.0268021 0.111268 0)
(-0.00247635 -0.209703 0)
(-0.0286195 0.112897 0)
(-0.0189956 -0.102903 0)
(-0.0278523 0.0745474 0)
(-0.0253685 -0.00702481 0)
(-0.0118297 -0.1078 0)
(-0.020906 -0.188588 0)
(-0.0286395 0.115456 0)
(-0.0291859 0.121096 0)
(-0.00824738 -0.111144 0)
(-0.0250895 -0.0356214 0)
(-0.0199535 -0.0490334 0)
(-0.0211631 -0.19082 0)
(-0.0213715 -0.136814 0)
(-0.0183242 -0.19023 0)
(-0.0223057 -0.0652796 0)
(-0.00342354 -0.0220141 0)
(-0.0147409 -0.00157576 0)
(-0.0166597 -0.0757365 0)
(-0.0185327 -0.196484 0)
(0.000822883 -0.195846 0)
(-0.0238605 -0.0844551 0)
(-0.0194598 -0.209758 0)
(-0.0257127 0.00644584 0)
(-0.00531332 -0.0337583 0)
(-0.0247759 -0.0472109 0)
(-0.00893953 -0.209474 0)
(-0.0278552 0.0653117 0)
(-0.0188448 0.0233385 0)
(-0.00109621 -0.194478 0)
(-0.0082964 -0.0730799 0)
(-0.0251684 0.0741881 0)
(-0.020788 -0.0749086 0)
(-0.0247315 -0.0559812 0)
(-0.000961567 -0.037565 0)
(-0.0210922 -0.1862 0)
(-0.0250175 0.0646252 0)
(-0.0277107 0.0650082 0)
(-0.0219348 -0.1304 0)
(-0.0253414 -0.0329576 0)
(-0.0187272 -0.187432 0)
(-0.0119893 -0.141312 0)
(-0.0263832 0.00679167 0)
(-0.0249536 -0.0477617 0)
(-0.0106214 -0.1343 0)
(-0.0232045 0.0395074 0)
(-0.0259562 -0.00803075 0)
(-0.0230629 -0.110961 0)
(-0.0257315 -0.00900238 0)
(-0.000421903 -0.00468266 0)
(-0.0169507 -0.092309 0)
(-0.0212337 -0.170186 0)
(-0.0237266 0.0637101 0)
(-0.0247441 -0.0365685 0)
(-0.0271159 0.0630129 0)
(-0.0150179 0.000425175 0)
(-0.0263926 0.0384316 0)
(-0.0277006 0.0574402 0)
(-0.0188232 0.0305004 0)
(-0.0220489 0.0665784 0)
(-0.00278637 -0.0232361 0)
(-0.027705 0.057228 0)
(-0.000408081 -0.0191678 0)
(-0.0119855 -0.173326 0)
(-0.023545 -0.101512 0)
(-0.0117399 -0.165181 0)
(-0.0254319 -0.0289961 0)
(-0.0201317 -0.103553 0)
(-0.00432722 -0.201204 0)
(-0.00293579 -0.0239694 0)
(-0.0179201 -0.181875 0)
(-0.00530142 -0.101021 0)
(-0.0228643 -0.0919828 0)
(-0.00227651 -0.014729 0)
(-0.0197294 -0.177374 0)
(-0.02162 0.0185732 0)
(-0.0209742 -0.196413 0)
(-0.0183667 -0.209564 0)
(-0.0251552 -0.0399395 0)
(-0.000831194 -0.00334193 0)
(-0.000975076 -0.0493124 0)
(-0.0221484 -0.11964 0)
(-0.0213247 -0.124402 0)
(-0.0272405 0.0395029 0)
(-0.0255309 -0.0255617 0)
(-0.0242705 -0.0434336 0)
(-0.00236112 -0.132342 0)
(-0.0243317 -0.0674905 0)
(-0.00611573 -0.209488 0)
(-0.0291329 0.11928 0)
(-0.0238252 -0.0851894 0)
(-0.024763 -0.0235414 0)
(-0.0292216 0.115674 0)
(-0.0196855 -0.14532 0)
(-0.0265843 0.111699 0)
(-0.0243221 -0.0629912 0)
(-0.0181522 -0.203445 0)
(-0.024169 -0.0454661 0)
(-0.0087754 -0.209661 0)
(-0.0239521 -0.0522026 0)
(-0.022741 0.0573507 0)
(-0.0265672 0.0304181 0)
(-0.0150091 -0.169044 0)
(-0.0168822 0.0132942 0)
(-0.0250695 0.071403 0)
(-0.0208158 -0.131854 0)
(-0.0179111 -0.143468 0)
(-0.00476143 -0.105986 0)
(-0.000985461 -0.00663034 0)
(-0.0255522 -3.67427e-05 0)
(-0.0219319 0.000531668 0)
(-0.0247032 -0.0388928 0)
(-0.00239723 -0.129894 0)
(-0.00190261 -0.118609 0)
(-0.000306425 -0.015798 0)
(-0.0151198 -0.139875 0)
(-0.0113166 0.019716 0)
(-0.0177671 -0.135283 0)
(-0.00284625 -0.0248072 0)
(-0.0252041 -0.0382007 0)
(-0.0277285 0.104827 0)
(0.0201692 -0.208319 0)
(-0.0064571 -0.0301333 0)
(-0.0011011 -0.0203519 0)
(-0.00887152 -0.20299 0)
(-0.0232065 -0.0839194 0)
(0.00280816 -0.180479 0)
(-0.0238546 -0.0885989 0)
(-0.0207782 -0.155913 0)
(-0.022739 -0.12994 0)
(-0.0251069 0.0676478 0)
(-0.0249174 -0.04006 0)
(-0.0201575 -0.0173095 0)
(-0.000597431 -0.0161643 0)
(-0.00263837 -0.0200434 0)
(-0.0164628 -0.124327 0)
(-0.0230365 -0.120918 0)
(-0.000971687 -0.0174559 0)
(-0.0253266 -0.0321948 0)
(-0.0178635 -0.136578 0)
(-0.0214833 -0.18014 0)
(-0.0165604 -0.19121 0)
(-0.0209303 -0.153876 0)
(-0.0277367 0.0666598 0)
(-0.0111409 -0.0173284 0)
(-4.76553e-05 -0.000531543 0)
(-0.0277565 0.102678 0)
(0.00139481 -0.142088 0)
(-0.00809779 -0.163089 0)
(-0.0239861 -0.0834092 0)
(-0.0135196 -0.145308 0)
(0.000908881 -0.0707132 0)
(-0.021227 -0.0836553 0)
(-0.00626922 -0.0548876 0)
(-0.00272693 -0.00318681 0)
(-0.018357 -0.136856 0)
(0.00725887 -0.196534 0)
(-0.0272443 0.0396484 0)
(-0.0196618 -0.136788 0)
(-0.0188615 0.0336606 0)
(-0.00149983 -0.00835947 0)
(-0.0264915 0.0109417 0)
(-0.0184371 -0.197704 0)
(-0.0105552 -0.145988 0)
(-0.0135206 -0.127117 0)
(-0.0238874 -0.0872127 0)
(-0.0260665 -0.00375816 0)
(-0.0239799 -0.0849196 0)
(-0.0108198 -0.196346 0)
(-0.0227871 0.0540844 0)
(-0.00442586 -0.0192623 0)
(-0.00324115 -0.00341367 0)
(-0.0270182 0.0852253 0)
(-0.0198695 -0.135502 0)
(-0.0271969 0.0409622 0)
(0.000463636 -0.19135 0)
(-0.0276006 0.0532565 0)
(-0.0153033 -0.113558 0)
(-0.00807593 -0.178115 0)
(-0.0238716 -0.0890531 0)
(-0.00252069 -0.120175 0)
(-0.0234908 -0.0157972 0)
(-0.00999239 -0.131822 0)
(-0.00139901 -0.0136668 0)
(-0.0204886 -0.136909 0)
(0.00464066 -0.204001 0)
(-0.0190444 -0.0560943 0)
(-0.0254705 -0.0275727 0)
(-0.0293869 0.121421 0)
(-0.0220746 -0.127421 0)
(-0.00704221 -0.113318 0)
(-0.0129693 0.0140339 0)
(-0.0283642 0.099994 0)
(-0.0252686 -0.0343089 0)
(-0.000441566 -0.00511839 0)
(-0.0253976 -0.0289601 0)
(-0.0126474 0.0120191 0)
(-0.0207524 -0.130358 0)
(-0.0174971 0.0485851 0)
(-0.0171877 0.00563478 0)
(-0.0249751 -0.0444671 0)
(-0.0180566 -0.0297109 0)
(-0.0296476 0.136752 0)
(-0.0214577 -0.110093 0)
(-0.000249116 -0.0163537 0)
(-0.00931515 -0.00338657 0)
(0.00268423 -0.156576 0)
(-0.00989484 -0.100355 0)
(-0.0219133 0.0629961 0)
(-0.0176559 -0.209928 0)
(-0.018393 0.0209109 0)
(-0.0159078 -0.0184558 0)
(-0.0263414 0.00535801 0)
(-0.0259796 -0.00824125 0)
(-0.0263016 0.0663956 0)
(-0.0211493 -0.126296 0)
(-0.0250568 -0.0240505 0)
(-0.0222185 -0.0327866 0)
(-0.0139139 -0.0475204 0)
(0.00224045 -0.196097 0)
(-0.0255239 -0.0259975 0)
(-0.0199112 -0.176274 0)
(-0.00141454 -0.0870765 0)
(-0.016542 -0.09396 0)
(-0.0255703 -0.0240415 0)
(-0.0240467 -0.0295513 0)
(-0.0238644 -0.0892701 0)
(-0.000342506 -0.0200454 0)
(0.0026273 -0.18157 0)
(-0.0276285 0.0543136 0)
(-0.0241988 -0.0172253 0)
(-0.0194332 -0.0501858 0)
(-0.0226209 -0.136777 0)
(-0.00583239 -0.209719 0)
(-0.00991487 -0.0980603 0)
(-0.0243024 -0.0628641 0)
(-0.00282978 -0.0210432 0)
(-0.0178257 -0.0309045 0)
(-0.0068332 -0.0315417 0)
(-0.0250481 -0.0441457 0)
(-0.0109176 0.0197044 0)
(-0.0190152 0.0592536 0)
(-0.0140631 -0.0446322 0)
(-0.0296826 0.13728 0)
(-0.0235988 0.0788087 0)
(-0.0225171 -0.128563 0)
(0.0121539 -0.205903 0)
(-0.0174209 0.0155804 0)
(0.000499449 -0.200248 0)
(-0.00254128 -0.0385338 0)
(-0.0238725 -0.0889823 0)
(-0.00685334 -0.0717584 0)
(-0.0186005 0.0239966 0)
(0.00058622 -0.0700838 0)
(-0.0283522 0.0982116 0)
(0.000751637 -0.0732548 0)
(-0.0250515 -0.0374797 0)
(-0.0296383 0.131013 0)
(-0.027793 0.0611509 0)
(-0.00128743 -0.193741 0)
(-0.0277126 0.0603615 0)
(-0.0234682 -0.104438 0)
(-0.00739342 -0.141158 0)
(-0.0281023 0.0723911 0)
(-0.0227316 -0.131444 0)
(-0.0234992 -0.103252 0)
(-0.0290867 0.110005 0)
(-0.0263837 0.00695799 0)
(-0.0207474 -0.205439 0)
(-0.0247723 -0.0467411 0)
(-0.0125187 -0.14101 0)
(-0.0289598 0.105463 0)
(-0.0240721 -0.0202866 0)
(-0.0282611 0.0786648 0)
(-0.0153851 0.0113443 0)
(-0.0140875 -0.07928 0)
(-0.0109182 -0.145103 0)
(-0.00266945 -0.0411217 0)
(-0.0228413 -0.0220996 0)
(-0.00749165 -0.196008 0)
(-0.0275472 0.0512115 0)
(-0.0140134 -0.0766264 0)
(0.000432491 -0.120623 0)
(-0.0216267 -0.174694 0)
(-0.0194379 -0.199267 0)
(0.0030784 -0.156367 0)
(0.009692 -0.202272 0)
(-0.0215641 -0.0836529 0)
(-0.0187144 -0.042881 0)
(-0.0188365 -0.20936 0)
(0.00883873 -0.202538 0)
(-0.0060232 -0.182708 0)
(-0.0235786 0.0756589 0)
(-0.029388 0.121457 0)
(-0.0238493 -0.089903 0)
(0.00204849 -0.209515 0)
(-0.017313 0.0459664 0)
(-0.0226929 -0.123645 0)
(-0.0232307 -0.0965791 0)
(-0.0227312 -0.132536 0)
(-0.0255669 -0.0241119 0)
(-0.0283373 0.115536 0)
(-0.0120919 -0.103448 0)
(-0.0202581 -0.0190877 0)
(-0.0150709 -0.115788 0)
(-0.00381004 0.00902507 0)
(-0.0154596 -0.137983 0)
(-0.0043946 -0.00438794 0)
(-0.0175278 -0.143617 0)
(-0.0195045 -0.146856 0)
(-0.0220148 -0.159422 0)
(-0.0262971 0.0109211 0)
(-0.0190994 0.0565547 0)
(-0.0249639 -0.0377646 0)
(-0.0246346 -0.0599016 0)
(-0.0204161 -0.13548 0)
(-0.00298001 -0.169477 0)
(-0.0261758 -0.00112334 0)
(-0.015729 -0.0570173 0)
(-0.00793437 -0.161843 0)
(-0.00293844 -0.201992 0)
(-0.0219183 -0.162905 0)
(0.00159969 -0.0741462 0)
(-0.00814964 -0.113246 0)
(-0.0279267 0.0659344 0)
(-0.0276776 0.0594267 0)
(-0.0263193 0.00608614 0)
(-0.0255606 -0.0146048 0)
(-0.027993 0.0710856 0)
(-0.00918504 -0.101569 0)
(-0.0247515 -0.0492997 0)
(-0.00329643 -0.170558 0)
(-0.00619701 -0.0801396 0)
(-0.00225987 -0.17178 0)
(-0.02867 0.0945741 0)
(-0.0240055 -0.0839436 0)
(-0.0163023 -0.00899014 0)
(-0.00973408 -0.00210417 0)
(-0.0101364 -0.133501 0)
(-0.0260084 -0.00612495 0)
(-0.0149647 -0.139225 0)
(-0.022621 -0.0551845 0)
(0.00142516 -0.139461 0)
(-0.0135717 -0.137065 0)
(-0.0246933 -0.0510766 0)
(-0.0176541 0.0184783 0)
(-0.0229867 -0.0896646 0)
(-0.0203843 -0.187938 0)
(-0.0282109 0.0765843 0)
(-0.0161451 -0.0737619 0)
(-0.019418 -0.18099 0)
(-0.0161417 -0.142719 0)
(-0.0252643 -0.0358996 0)
(-0.024666 -0.0587094 0)
(-0.00366484 -0.130433 0)
(-0.0240041 -0.0839825 0)
(-0.0250961 -0.0240968 0)
(-0.00440951 -0.209666 0)
(0.00107734 -0.0745556 0)
(-0.0296456 0.131885 0)
(0.000735921 -0.0353745 0)
(-0.0217384 -0.0626122 0)
(-0.020001 -0.144918 0)
(-0.0254884 -0.0171032 0)
(-0.0283182 0.0811388 0)
(-0.0290714 0.115628 0)
(-0.0289658 0.119617 0)
(-0.025236 -0.0365178 0)
(-0.00321992 -0.0194162 0)
(-0.0255116 -0.0234974 0)
(-0.0171965 0.00917673 0)
(-0.0151164 -0.167295 0)
(-0.0278391 0.0625678 0)
(-0.00762338 -0.151181 0)
(0.000586617 -0.0309555 0)
(-0.016676 -0.113515 0)
(-0.0182955 -0.0516465 0)
(-0.0220517 -0.15811 0)
(-0.00999012 -0.0161316 0)
(-0.0042089 -0.0768388 0)
(-0.0263664 0.0357197 0)
(-0.0217465 -0.112898 0)
(-0.0253833 8.221e-05 0)
(-0.00453466 -0.209418 0)
(-0.0288632 0.12453 0)
(-0.0228302 -0.128788 0)
(-0.0278667 0.125486 0)
(-0.0239723 -0.0297612 0)
(-0.0264863 0.113854 0)
(-0.0263437 0.00528604 0)
(-0.0262974 0.06286 0)
(-0.0221301 -0.152687 0)
(-0.028609 0.0920386 0)
(-0.023642 0.0231711 0)
(-0.0178214 0.0249255 0)
(-0.0296335 0.130933 0)
(-0.0290783 0.116638 0)
(0.000132858 -0.172037 0)
(-0.0247805 -0.0437322 0)
(-0.0224578 -0.0731973 0)
(-0.0207731 0.0379113 0)
(-0.0229994 -0.0198258 0)
(-0.0184658 -0.0516103 0)
(-0.0201418 -0.141863 0)
(-0.000105034 -0.00124719 0)
(-0.024834 -0.0200144 0)
(-0.00906896 -0.207489 0)
(-0.0088828 -0.0703233 0)
(-0.0233857 -0.0776435 0)
(-0.0166005 -0.01948 0)
(-0.0171536 -0.193215 0)
(-0.0026948 -0.0171815 0)
(0.00267691 -0.193827 0)
(-0.0249207 -0.0239703 0)
(-0.0220445 -0.000758175 0)
(-0.0193279 -0.0071595 0)
(-0.0162629 -0.0125477 0)
(-0.0167204 -0.209687 0)
(-0.0214988 -0.13927 0)
(-0.0255561 -0.0242273 0)
(-0.00387934 -0.134644 0)
(-0.0145967 -0.111718 0)
(-0.0256568 0.00306677 0)
(-0.00965805 -0.132454 0)
(-0.0237617 -0.0763786 0)
(-0.0214549 -0.141526 0)
(-0.0206967 0.0347658 0)
(-0.0247856 -0.0416135 0)
(-0.0164248 -0.0177463 0)
(-0.0230588 -0.118526 0)
(-8.90076e-05 -0.170574 0)
(-0.0261776 0.069277 0)
(-0.0270515 0.0322967 0)
(-0.0256269 -0.0189712 0)
(-0.00895969 -0.106158 0)
(-0.0136809 -0.15705 0)
(-0.029611 0.129966 0)
(-0.00619931 -0.0782886 0)
(-0.00817376 -0.07648 0)
(-0.0227612 -0.131375 0)
(-0.0250402 -0.0444427 0)
(0.000419276 -0.188822 0)
(-0.0290536 0.126437 0)
(-0.00357336 -0.0441642 0)
(-0.0193866 -0.00331028 0)
(-0.0286138 0.0924585 0)
(-0.0166295 -0.11917 0)
(-0.0111421 -0.0198623 0)
(-0.0263283 0.00717092 0)
(-0.0169793 -0.0113244 0)
(-0.0266755 0.0194749 0)
(-0.00194995 -0.0434628 0)
(-0.0107772 -0.0211151 0)
(-0.0103432 -0.148179 0)
(-0.02886 0.122219 0)
(-0.0286605 0.0937101 0)
(-0.00512515 -0.158977 0)
(-0.00908557 -0.15671 0)
(-0.00897899 -0.100873 0)
(-0.0123066 -0.176873 0)
(-0.00126026 -0.0121636 0)
(-0.00941137 -0.20959 0)
(-0.023551 -0.0709217 0)
(-0.000379915 -0.00445276 0)
(-0.0261714 -0.000775539 0)
(-0.016811 -0.189702 0)
(-0.0254824 -0.0248747 0)
(-0.0276653 0.0557482 0)
(-0.0130738 -0.209958 0)
(-0.0160496 -0.00788936 0)
(-0.00313654 -0.167785 0)
(-0.010105 -0.137496 0)
(-0.0188568 -0.206616 0)
(-0.0115218 -0.181234 0)
(-0.0285822 0.0907199 0)
(-0.0236579 -0.0972018 0)
(-0.00493698 -0.184447 0)
(-0.0278857 0.0643248 0)
(-0.00416711 -0.209728 0)
(-0.0250254 -0.0132419 0)
(-0.0289938 0.125792 0)
(-0.0185467 -0.186839 0)
(-0.00437716 -0.209286 0)
(-0.0282613 0.0789957 0)
(-0.0174414 -0.19311 0)
(-0.0218692 -0.158006 0)
(-0.0271263 0.0351742 0)
(-0.0274711 0.0847664 0)
(-0.0126475 -0.173092 0)
(-0.0264241 0.00835173 0)
(-0.00785448 -0.204524 0)
(-0.0154873 0.00893215 0)
(-0.0212431 -0.026846 0)
(-0.0221503 -0.152489 0)
(-0.0175946 -0.172011 0)
(-0.0118791 -0.097243 0)
(-0.0181646 -0.181427 0)
(-0.0238034 -0.0763151 0)
(-0.0198164 -0.142354 0)
(-0.0267447 0.0205865 0)
(-0.01496 -0.148843 0)
(-0.0252271 -0.0367532 0)
(-0.0265556 0.100436 0)
(-0.029356 0.129772 0)
(-0.0247036 -0.0479137 0)
(-0.0225677 -0.128194 0)
(-0.0215011 -0.0822731 0)
(-0.0161252 -0.0200702 0)
(-0.0136949 -0.140408 0)
(-0.0278046 0.0614867 0)
(-0.00634185 -0.100708 0)
(-0.00599741 -0.183931 0)
(-0.0020186 -0.00481153 0)
(-0.0158482 -0.133707 0)
(-0.0146993 -0.0707049 0)
(-0.0128347 -0.193064 0)
(-0.028256 0.0888553 0)
(-0.00868123 -0.209779 0)
(-0.0124622 -0.199322 0)
(0.0113984 -0.205614 0)
(-0.0293797 0.122623 0)
(-0.0196017 -0.199692 0)
(-0.0152704 -0.0612791 0)
(-0.0261142 -0.0020549 0)