/*--------------------------------*- C++ -*----------------------------------*\
| =========                 |                                                 |
| \\      /  F ield         | OpenFOAM: The Open Source CFD Toolbox           |
|  \\    /   O peration     | Version:  v2012                                 |
|   \\  /    A nd           | Website:  www.openfoam.com                      |
|    \\/     M anipulation  |                                                 |
\*---------------------------------------------------------------------------*/
FoamFile
{
    version     2.0;
    format      ascii;
    class       volVectorField;
    location    "500";
    object      U_0;
}
// * * * * * * * * * * * * * * * * * * * * * * * * * * * * * * * * * * * * * //

dimensions      [0 1 -1 0 0 0 0];


internalField   nonuniform List<vector> 
13917
(
(1.08797 0.156926 0)
(1.01559 0.0458231 -6.5768e-21)
(0.873355 -0.0409102 0)
(1.04892 -0.00509275 0)
(0.995699 -0.00444093 0)
(0.359535 -0.0609715 0)
(0.90174 -0.00736537 0)
(0.851619 -0.0728327 -2.44844e-20)
(0.587282 -0.388174 6.9577e-21)
(1.12481 0.225642 0)
(0.989864 -0.0766249 -2.4179e-20)
(1.03391 -0.0288273 3.17922e-22)
(1.04915 -0.00539642 -2.7509e-21)
(0.682225 0.017867 -4.79855e-20)
(0.953359 0.0916809 -2.20285e-20)
(0.979078 0.0914475 -1.43953e-20)
(1.00892 0.0507832 0)
(1.16616 -0.0186099 5.89557e-21)
(1.03487 -0.027245 -1.08087e-21)
(1.0004 0.00220508 0)
(0.999921 -0.000188373 0)
(0.905759 -0.00393767 -3.44442e-21)
(0.999344 0.00335973 -8.40026e-22)
(0.856292 -0.0757397 3.45767e-20)
(0.992185 0.0102764 3.49849e-21)
(0.934399 0.0144594 -1.00772e-20)
(0.776487 -0.00991166 -4.03352e-20)
(0.735547 0.0687802 6.58229e-20)
(0.641627 0.45023 -3.16167e-20)
(1.28576 0.173551 0)
(1.11305 0.148898 0)
(1.05315 0.103472 1.61128e-21)
(0.823895 0.0357068 -2.29639e-20)
(0.910027 -0.015615 1.77914e-20)
(0.989053 0.00625846 -1.82543e-21)
(0.952068 -0.0491165 1.24396e-20)
(0.999382 0.00294034 -5.94148e-21)
(0.744553 -0.0715924 0)
(1.05167 -0.0076276 4.55465e-21)
(1.00896 0.053808 0)
(1.0064 0.000780044 0)
(0.999987 -2.16694e-05 -2.02179e-20)
(1.01973 0.00258038 3.76607e-21)
(0.670393 0.134793 0)
(1.03607 0.0260451 4.83373e-21)
(0.888761 -0.00596441 0)
(1.15931 -0.0204707 0)
(1.12812 -0.0855246 -1.67617e-20)
(0.105417 -0.00878484 -1.33624e-20)
(1.00184 0.000528499 -8.55731e-21)
(1.07969 0.00696016 -1.88337e-21)
(0.963686 0.00291125 0)
(0.0730935 -0.0436604 6.13664e-20)
(0.905139 -0.0153436 0)
(1.00752 0.0518095 -1.2252e-20)
(1.08707 0.0361949 -1.15022e-21)
(0.992814 -0.0794023 2.41548e-20)
(0.990551 0.0284818 4.22488e-21)
(1.07118 0.046487 2.55925e-22)
(1.03464 0.0256848 0)
(0.298572 0.312259 7.25699e-20)
(1.01718 0.0458861 1.56258e-20)
(0.469417 0.00976231 5.17872e-20)
(1.00042 0.0024334 -1.44333e-21)
(0.381844 -0.045605 0)
(0.848607 0.329838 9.53473e-21)
(0.995619 -0.00853158 1.49543e-20)
(0.988482 -0.00860817 0)
(1.06277 -0.193187 7.07887e-21)
(1.04021 0.161837 -6.3964e-21)
(0.996036 -0.00406704 0)
(0.661918 -0.415046 -1.29025e-20)
(-0.400143 -0.12464 -6.30264e-20)
(0.992716 0.00974337 -4.56146e-21)
(0.101796 0.0602248 1.12851e-19)
(1.02961 -0.0146795 0)
(-0.178461 -0.0999811 -1.61579e-20)
(1.05097 0.0273115 -2.83533e-21)
(0.96044 0.0265224 7.42294e-21)
(0.999744 -0.000141862 -1.12014e-20)
(0.999741 0.000658132 0)
(0.996153 -0.0082508 -1.82495e-21)
(0.395146 0.0177691 0)
(0.756544 -0.0888994 -3.40629e-20)
(-0.251049 0.310349 0)
(1.04982 0.026048 0)
(0.999802 0.00130866 0)
(0.963033 0.407982 -6.89163e-21)
(1.07765 0.00749916 0)
(1.02014 0.00255422 -6.45297e-21)
(-0.0300061 -0.187136 0)
(1.19896 0.233503 0)
(1.02016 0.0263813 1.14266e-21)
(0.964039 0.050472 1.34771e-20)
(0.931313 0.399617 0)
(0.389996 -0.11784 4.91201e-20)
(1.03453 -0.115276 -2.63711e-21)
(1.1433 -0.067576 2.20588e-20)
(1.00944 -0.0150406 -4.0693e-21)
(0.593238 0.0495627 9.18398e-20)
(1.00929 0.0066807 5.13408e-21)
(0.844023 -0.0303519 0)
(0.664157 0.120048 0)
(1.05725 0.0189513 -1.00304e-21)
(1.01428 0.0141977 3.51076e-21)
(0.564035 -0.352468 -4.56917e-20)
(0.714061 0.410447 -8.25798e-21)
(1.13137 -0.0913999 9.1963e-21)
(1.01085 0.0514991 5.00736e-21)
(1.10528 0.171151 -1.30908e-21)
(-0.650777 -0.0291025 -9.37073e-20)
(1.03669 0.0538776 0)
(1.02336 -0.0282247 -1.86876e-21)
(0.537698 -0.352076 5.04801e-20)
(0.946574 -0.000588765 1.73532e-20)
(0.0992636 -0.265303 -2.3102e-22)
(0.997943 0.0100538 1.72416e-20)
(0.1982 -0.0424608 -9.87011e-20)
(0.967808 0.048295 -8.534e-21)
(0.904008 -0.00230327 2.12604e-20)
(0.999963 -3.51623e-05 6.24193e-21)
(1.0715 -0.192933 -2.18823e-21)
(0.906253 0.0313512 0)
(0.745622 0.0637255 4.80229e-20)
(1.00312 0.000577654 -4.73701e-21)
(0.965904 0.0479843 0)
(1.03135 0.0304778 5.72208e-21)
(1.00281 0.000429402 -2.10328e-21)
(1.01714 0.00197189 -6.21528e-21)
(0.36182 -0.105805 -3.40083e-20)
(0.931472 0.0201184 -6.77681e-20)
(0.949251 -0.00124357 2.66057e-20)
(1.03638 0.0271636 -4.19452e-21)
(0.999942 -0.000196393 1.13057e-23)
(1.00261 -0.0820725 -9.08602e-20)
(0.861257 -0.0710992 -1.7184e-20)
(1.08229 0.16231 0)
(0.570242 0.0474745 -1.299e-19)
(0.995195 -0.00827123 -1.48474e-20)
(0.905942 -0.00648498 3.77752e-20)
(0.955979 -0.0603126 0)
(1.02279 0.0146735 -3.46076e-21)
(0.958344 0.0151256 0)
(0.626087 0.123145 -9.99704e-20)
(0.987621 -0.00810728 0)
(0.853194 -0.452883 0)
(0.697502 0.462333 -2.23194e-20)
(0.965453 0.00357441 1.53201e-20)
(1.02161 0.0123815 3.14123e-21)
(1.04462 0.113967 0)
(1.07593 -0.0592199 6.41905e-21)
(0.106253 -0.298166 -1.30646e-19)
(1.03111 -0.0643085 9.98846e-21)
(0.981583 0.193636 1.81755e-20)
(1.07825 0.0707608 -4.56932e-22)
(-0.0174849 -0.0141673 2.8009e-20)
(1.03582 0.156691 2.43086e-21)
(0.906132 -0.177775 1.64941e-20)
(-0.227712 -0.0821258 1.31092e-20)
(0.997363 -0.0672834 -9.4741e-20)
(0.931375 0.034053 -1.79379e-20)
(0.787445 -0.0704767 0)
(0.999844 0.000288447 0)
(1.03502 -0.109334 2.4334e-21)
(1.02453 -0.0296111 -1.8694e-21)
(1.00983 -0.0165571 8.69204e-21)
(1.05665 0.0200514 0)
(1.10154 -0.0682482 -1.19701e-21)
(1.02961 0.0228298 -5.84156e-21)
(0.837889 -0.0361334 0)
(1.0041 0.194105 -1.10845e-20)
(-0.866612 -0.0172365 0)
(1.02128 -0.0228773 6.86736e-22)
(1.005 0.0601995 1.60601e-20)
(0.935231 -0.412415 0)
(0.961262 0.209491 1.33536e-20)
(0.932174 0.0179498 1.89639e-20)
(0.163448 -0.0435459 0)
(0.902837 -0.463159 1.23633e-20)
(1.00857 0.0290827 1.52843e-21)
(1.21441 0.231521 1.40981e-20)
(1.12144 0.149601 0)
(1.0233 0.0141016 -3.36237e-21)
(0.999747 0.00140199 -4.87033e-21)
(0.911963 0.10226 0)
(0.932466 0.0111291 0)
(1.32626 0.408876 -8.95296e-20)
(0.0324713 -0.0168131 0)
(1.13216 0.0337259 6.50533e-21)
(1.00653 -0.0317633 0)
(0.943136 -0.109388 1.43822e-20)
(-0.19534 0.309166 0)
(1.20333 0.434921 -5.18439e-20)
(0.998302 0.00224379 0)
(0.556624 -0.0215704 4.25305e-21)
(0.78677 -0.00614187 8.20104e-20)
(1.00597 0.000332023 0)
(1.02028 0.0274301 -1.42374e-21)
(0.773376 0.367429 -1.48006e-20)
(0.991501 0.447741 -1.08616e-20)
(1.06347 -0.00524944 -2.66254e-22)
(1.00164 0.000448758 0)
(1.09169 -0.0584741 0)
(1.07421 -0.0563576 -5.8732e-21)
(-0.460514 -0.108605 1.83928e-21)
(1.26066 -0.331631 1.02126e-19)
(0.989563 0.00509537 -8.34626e-21)
(0.989681 0.0296256 -4.9507e-21)
(1.13581 -0.0674482 -1.84631e-20)
(0.909361 -0.00640212 -8.98194e-21)
(0.960445 0.0158812 -4.69453e-21)
(0.895332 -0.0123545 -2.57559e-20)
(-0.561859 -0.0794151 -6.61365e-20)
(1.00703 -0.0335903 -3.99492e-21)
(1.01381 0.0144682 6.98839e-21)
(0.448991 0.286549 0)
(1.12344 -0.0551731 1.35597e-20)
(-0.884982 -0.0532601 -1.03036e-19)
(0.999367 0.0166521 0)
(0.392936 0.330666 -6.42999e-20)
(1.00827 0.0279189 -2.62197e-21)
(1.28682 0.104929 5.44325e-20)
(1.00625 0.00098664 -4.72853e-21)
(0.617769 -0.142663 0)
(0.510557 -0.32843 -3.05769e-20)
(0.979239 0.0953825 0)
(0.981105 0.444896 -9.2854e-21)
(1.08211 0.0693985 -3.28256e-21)
(1.01308 0.0139388 -7.76797e-21)
(0.956024 -0.0468231 -2.16629e-20)
(1.0229 -0.0215071 0)
(1.12925 0.0299745 2.82862e-21)
(0.872016 -0.0539948 2.54161e-20)
(-0.6123 -0.0720512 4.76066e-20)
(1.01068 0.00360732 1.1074e-20)
(1.05693 0.10542 3.149e-22)
(0.0194617 -0.210141 0)
(-0.126446 -0.0141964 -4.35475e-20)
(0.999782 0.000288751 0)
(1.00359 0.00832722 -6.44575e-21)
(1.05728 0.0609183 -8.56397e-21)
(1.03345 -0.133791 0)
(1.00002 5.57945e-05 -4.86578e-21)
(0.969124 -0.037617 8.82439e-21)
(1.24771 -0.0697495 0)
(0.798161 -0.0738725 0)
(1.09127 0.135484 0)
(0.999826 0.000390825 0)
(0.925892 0.200543 0)
(-0.470772 -0.0766331 1.59081e-20)
(1.03805 0.00367219 7.87231e-21)
(1.21629 0.282767 1.64812e-20)
(0.549077 0.0854458 0)
(1.03113 0.0290698 5.40114e-21)
(0.990144 0.0264885 0)
(1.04148 -0.0528881 -3.79507e-21)
(1.0408 0.0540158 5.96298e-21)
(1.0336 -0.0617479 -3.04442e-21)
(0.911286 0.106974 0)
(0.956087 0.0950122 -1.43363e-21)
(1.00001 9.60305e-05 -8.69577e-21)
(0.92585 0.0431452 -4.71932e-20)
(0.457853 -0.122077 6.08469e-20)
(0.9783 -0.0150685 4.51311e-21)
(1.01256 0.0142007 0)
(-0.619601 -0.0897688 -2.6417e-21)
(0.594967 -0.0111309 0)
(0.894882 -0.174695 -1.81511e-20)
(0.964918 0.0284827 -1.6745e-20)
(1.02786 -0.0142211 0)
(0.99975 0.000545399 0)
(1.00417 0.000766086 0)
(1.15296 -0.0292407 2.00214e-20)
(0.373686 -0.146675 -1.05551e-21)
(1.15639 -0.161985 0)
(1.06925 0.0439617 -1.47809e-22)
(1.19254 -0.314207 -1.048e-19)
(1.04552 -0.0150633 -7.86787e-22)
(1.01708 0.00134328 -6.6181e-21)
(0.573978 0.117193 -9.86118e-20)
(1.00067 0.0023699 2.168e-20)
(0.917651 -0.401314 0)
(1.06235 -0.00441016 -5.93232e-22)
(1.00003 5.72847e-05 -2.867e-21)
(0.97887 0.113659 0)
(0.974168 0.194108 -5.20198e-20)
(0.785495 -0.0576255 0)
(0.966043 -0.0391142 5.43692e-21)
(0.965482 0.149181 2.46828e-20)
(1.04034 0.0100372 0)
(1.29701 -0.0222118 0)
(0.868687 -0.0604021 0)
(0.370125 -0.122113 0)
(0.999183 0.0158615 1.10589e-20)
(0.898421 -0.232531 -9.15962e-21)
(0.998282 -0.00522301 -1.07874e-20)
(1.04038 0.00908281 -3.15173e-21)
(0.998189 0.00925515 -8.17693e-21)
(0.702103 0.494122 6.2028e-20)
(1.00074 0.000414843 1.02568e-20)
(1.30002 0.10884 -6.35876e-20)
(1.08523 0.133654 0)
(1.02928 0.0217572 0)
(1.08807 -0.0608299 0)
(1.03266 0.0626578 -4.85991e-21)
(0.117399 -0.0890502 1.89494e-19)
(0.963469 0.204851 -1.19442e-20)
(1.19289 0.221989 -2.01746e-20)
(1.02815 0.0152285 3.68136e-21)
(0.990986 0.0254541 4.57198e-21)
(-0.683216 -0.0225373 0)
(0.876618 0.026575 0)
(0.998066 0.0109939 1.01801e-20)
(1.00504 0.000859512 0)
(0.614487 0.1328 1.05564e-21)
(1.01225 0.0281023 -5.21666e-21)
(-0.333343 -0.139142 5.5644e-20)
(1.02728 0.0151769 -2.41153e-21)
(0.624203 -0.157888 0)
(1.0434 -0.00221786 0)
(1.00966 0.382942 -4.7366e-21)
(1.08978 -0.014205 0)
(0.100602 0.129414 1.37036e-19)
(0.93529 0.0344687 1.04696e-20)
(1.07027 -0.0535409 2.08612e-19)
(0.476031 0.192956 -4.72447e-20)
(0.982878 0.112194 0)
(1.03939 -0.137318 0)
(0.820079 0.438527 2.76267e-20)
(0.988828 0.044546 1.15556e-20)
(0.877257 -0.00294223 1.32681e-20)
(0.567304 -0.0406853 0)
(0.58346 -0.0267793 4.05583e-21)
(0.917644 0.00560161 -2.92796e-20)
(0.996864 0.0496004 -1.62239e-21)
(1.06524 0.104276 -9.45943e-22)
(-0.330917 0.0978021 1.44797e-19)
(0.496969 0.176791 3.33873e-20)
(0.830574 0.3074 -8.58655e-20)
(0.845943 0.306814 3.495e-20)
(0.874532 -0.0346432 0)
(0.999481 -0.000454907 1.64679e-21)
(1.00873 0.20032 4.53067e-21)
(-0.5708 -0.0225903 0)
(0.977587 0.0266442 0)
(0.990385 0.0751892 -1.17042e-20)
(0.675646 -0.0039042 0)
(0.758971 0.39305 -1.1582e-22)
(1.01069 0.0574909 -5.37672e-21)
(0.95044 -0.109568 -1.16103e-20)
(0.619681 0.424513 0)
(1.00715 0.00548415 0)
(0.959315 0.0515089 0)
(0.94785 -0.0717938 5.88242e-21)
(1.00069 0.00260761 -1.14762e-20)
(1.00663 0.0135243 7.00775e-21)
(0.998572 -0.00509999 1.05943e-20)
(1.02204 0.0119137 1.01423e-20)
(1.35747 -0.0415383 -8.77292e-20)
(0.934686 -0.461118 1.81634e-21)
(0.415732 -0.394599 -9.57668e-20)
(-0.60466 -0.0152201 -1.73777e-19)
(0.995122 0.0100118 -5.30979e-21)
(1.22639 0.292352 0)
(-0.123267 -0.0159341 -2.36492e-20)
(1.0923 -0.0360091 -5.14413e-21)
(0.899535 -0.00841087 2.1903e-20)
(0.417729 -0.178897 4.06843e-20)
(0.487407 -0.331501 4.67686e-20)
(1.01184 0.00659445 0)
(0.980794 -0.0150931 0)
(1.00794 0.0135108 0)
(0.466593 0.33574 7.17399e-20)
(1.03375 0.0265251 0)
(0.0709774 0.16687 -6.54738e-20)
(1.25898 -0.0653306 -3.18817e-20)
(1.05426 -0.00529635 0)
(0.999194 -0.000565607 -1.86567e-20)
(1.13279 -0.06164 0)
(1.22229 0.241997 1.83142e-20)
(1.19137 -0.0636378 5.52483e-21)
(0.257051 0.858324 6.50834e-21)
(-0.41312 0.0786974 0)
(-0.94434 -0.0515404 -6.52369e-20)
(0.927323 0.209421 -2.49611e-20)
(1.11869 0.217487 0)
(1.00331 0.00774388 0)
(-0.184435 0.0306466 7.50798e-20)
(0.918559 0.00605021 2.57643e-20)
(0.994175 0.0338095 0)
(1.15952 -0.0501918 0)
(0.99353 0.00442962 -2.05552e-20)
(1.42626 -0.253643 0)
(1.04342 -0.00182877 -2.06638e-21)
(0.999616 -0.000477864 -1.50975e-21)
(1.02705 0.0660429 6.79017e-21)
(0.993055 0.0380999 0)
(1.02503 0.0663704 0)
(1.03589 0.0534916 3.15171e-22)
(-0.0135685 0.0283981 -9.6647e-21)
(0.9981 -0.0583212 0)
(0.415167 0.167057 -1.68064e-19)
(0.990761 0.0444556 1.88677e-20)
(0.45612 0.249333 0)
(0.438228 0.191566 0)
(0.999833 0.0062362 -6.60074e-21)
(0.729749 0.388633 0)
(0.978997 0.0264069 0)
(0.992106 0.00692984 -7.56353e-21)
(1.27547 0.183006 0)
(1.00003 0.000144637 8.68513e-21)
(0.991054 0.00946259 -5.2807e-21)
(1.00823 0.0133392 -5.38125e-22)
(1.44708 -0.0322939 3.80815e-20)
(0.999829 -0.000167856 -1.15277e-20)
(1.01941 0.0497044 6.06345e-21)
(0.976484 0.0289824 5.55495e-21)
(-0.0845039 0.00210329 -2.08397e-20)
(1.18421 0.427245 -1.48279e-20)
(1.00928 0.0453966 0)
(-0.853679 -0.0617961 -6.3327e-20)
(1.08932 -0.0349041 2.17816e-21)
(0.99549 0.00923711 5.08224e-21)
(1.37484 -0.0882707 8.08713e-21)
(1.05171 -0.00729204 -5.12712e-21)
(1.06161 0.113483 0)
(0.998147 0.00269674 6.9155e-21)
(0.89168 -0.462253 -2.01434e-21)
(0.910752 -0.00171401 1.36128e-22)
(0.97791 0.0267957 9.16439e-21)
(0.967437 0.0876971 3.93642e-20)
(1.24961 -0.105145 1.78259e-20)
(0.921657 0.00328796 1.92908e-20)
(1.05208 -0.00804798 -4.34507e-21)
(1.18351 -0.0647945 1.72219e-20)
(1.01124 0.0671503 0)
(0.983275 -0.0105249 1.32644e-21)
(1.01221 0.0503569 -5.34779e-21)
(1.00073 0.000488622 -2.44422e-21)
(-0.263455 -0.156026 1.89654e-20)
(0.938317 0.0219385 -3.80679e-20)
(0.938775 0.0201695 3.66545e-20)
(1.09758 0.33163 0)
(-0.0880415 0.000178143 -1.77404e-20)
(0.880057 -0.010753 0)
(-0.496595 -0.0713116 9.47842e-20)
(0.130215 -0.0890885 4.3438e-20)
(1.01629 0.00219597 0)
(1.14676 -0.0489471 2.26296e-20)
(1.0136 0.0668433 4.69791e-21)
(0.987164 0.0298354 0)
(1.29974 -0.29625 1.287e-19)
(1.15851 -0.0279581 -2.41082e-20)
(1.01809 -5.32728e-05 7.42675e-21)
(1.21728 0.0413929 2.10311e-20)
(1.09591 -0.0291709 -5.50946e-21)
(0.225217 -0.0736309 0)
(0.999883 0.00685626 0)
(1.08306 -0.14357 0)
(0.0541893 0.0185867 7.60444e-22)
(1.00384 0.386534 -3.31127e-21)
(0.997334 0.0473566 0)
(0.999865 -0.000224346 0)
(0.993026 0.0340097 0)
(1.00946 0.000508171 0)
(1.02842 0.159274 5.49641e-21)
(1.01183 0.00613986 -2.36297e-21)
(0.941561 0.0127973 0)
(0.423815 -0.352009 8.67243e-20)
(0.970076 0.144861 -3.46524e-20)
(-0.114762 -0.20124 0)
(1.08587 0.0331377 -4.01747e-21)
(1.02875 -0.105795 0)
(-0.410514 -0.0734224 0)
(0.716342 0.466159 3.6061e-20)
(1.00026 -0.0552353 -5.27723e-21)
(0.952488 -0.0626752 -6.10086e-21)
(1.07582 -0.144126 1.18883e-21)
(1.21195 0.0813451 8.62139e-21)
(1.31663 -0.153834 0)
(1.05587 -0.0306068 0)
(0.993164 -0.0392044 2.9802e-21)
(0.36891 -0.00534905 -3.35486e-20)
(1.0464 -0.0269104 -3.24484e-21)
(1.11259 -0.106492 4.35927e-21)
(1.01377 0.000870888 4.6738e-22)
(1.13337 -0.154437 9.98389e-20)
(1.08404 0.00894783 1.8558e-21)
(1.0285 0.0034917 -8.15745e-21)
(1.0248 0.15378 6.99327e-21)
(1.05316 0.0251123 1.81142e-22)
(0.203469 -0.090173 0)
(0.576695 -0.373621 0)
(1.01153 0.0269371 -2.78939e-21)
(1.01704 0.00112245 0)
(0.921266 -0.00248716 0)
(-0.908349 -0.0578418 8.13014e-20)
(1.00002 0.000110627 9.57973e-21)
(1.01147 0.050213 1.55431e-20)
(1.05104 0.00462317 0)
(1.22389 0.38438 0)
(1.01071 0.0288326 1.23151e-21)
(-0.589362 -0.0919908 0)
(1.03893 -0.357953 0)
(1.049 0.111539 4.86149e-22)
(1.03362 0.0409323 0)
(1.00534 0.0429076 0)
(1.31074 0.382743 3.31642e-21)
(0.0649582 -0.0932058 0)
(1.00002 0.000129253 7.64464e-21)
(-0.511526 -0.0827548 -3.38662e-20)
(0.134084 -0.0839794 1.7697e-19)
(0.585649 0.156198 0)
(1.0286 0.00403315 4.79064e-21)
(-0.276947 0.306675 5.73204e-21)
(0.133801 -0.114052 0)
(1.08403 -0.0369865 1.56694e-21)
(1.00721 0.0137474 3.65524e-21)
(1.00234 0.0504856 1.09177e-20)
(1.03081 -0.0116453 6.99557e-23)
(1.4039 -0.272724 0)
(1.01841 -7.63563e-05 -7.84341e-21)
(1.0062 0.012645 3.1897e-23)
(1.00307 0.00208799 -5.15233e-21)
(1.00334 0.00226675 7.31541e-24)
(-0.677037 -0.0842393 0)
(1.30863 -0.276574 0)
(1.08581 -0.0352493 0)
(1.36664 0.380617 1.9475e-19)
(1.00418 0.000579975 2.13259e-21)
(1.00883 0.00628617 -3.3546e-21)
(1.23586 -0.10613 3.18219e-20)
(0.0533206 -0.191711 9.83519e-20)
(1.11871 0.0528185 -2.61954e-22)
(1.0307 0.0230251 9.50918e-21)
(0.992199 0.0076429 -1.12345e-20)
(0.992429 -0.00818714 -1.09055e-20)
(0.545877 0.138986 1.21973e-19)
(-0.133003 0.311015 1.22738e-20)
(0.999948 0.00140217 -2.84891e-21)
(0.992058 -0.00508356 -5.97676e-21)
(0.982861 -0.0126565 0)
(1.0577 -0.0306127 0)
(1.08743 -0.0152461 -3.55419e-21)
(0.992059 0.0321246 1.96551e-20)
(1.02163 0.0693313 0)
(1.03219 0.10717 3.42888e-21)
(1.10703 -0.102695 -1.69179e-20)
(0.822153 0.418629 0)
(1.34114 0.40752 5.08684e-20)
(1.37605 -0.106169 0)
(1.17256 -0.126841 0)
(1.24243 -0.348182 -9.75917e-20)
(1.19978 0.209437 1.76065e-20)
(0.998444 0.0148158 0)
(-0.456966 -0.0860975 -5.20858e-20)
(0.992898 -0.00871493 9.63232e-21)
(0.990489 0.0783269 0)
(1.05734 -0.00127575 -1.9004e-21)
(1.15819 -0.174655 0)
(0.906833 0.277213 6.16961e-21)
(1.00825 0.00139209 5.65793e-21)
(1.00591 0.386826 0)
(1.3146 0.167503 -6.59946e-21)
(-0.0126624 0.0158509 -2.44708e-21)
(1.1811 -0.123808 0)
(0.858683 0.110758 -4.68042e-20)
(1.09797 -0.0321061 0)
(0.999059 -0.000669032 1.57916e-20)
(0.310232 -0.126825 -7.38169e-20)
(1.01161 0.385388 0)
(0.86317 -0.0444475 1.14619e-20)
(1.0117 0.0480315 -8.87492e-21)
(1.10193 0.0383684 0)
(1.37407 0.376287 -8.10501e-20)
(0.404916 -0.200801 -4.42552e-20)
(-0.611072 -0.0298443 0)
(1.14679 -0.0741166 0)
(1.0998 0.34331 -1.06674e-20)
(0.975286 0.0896726 1.48215e-20)
(1.05372 0.0617137 0)
(0.990976 0.0325623 0)
(0.836095 0.19868 -3.34038e-20)
(0.643367 0.109264 0)
(0.9743 -0.0098377 3.50431e-21)
(1.11756 -0.0544308 0)
(0.552265 0.0619351 0)
(0.857799 -0.0514701 2.34462e-20)
(0.0654807 -0.121703 0)
(1.02315 0.0808941 6.80686e-21)
(1.02873 -0.10055 9.17964e-22)
(1.02587 -0.335672 4.6542e-21)
(0.981546 0.123642 -2.17958e-20)
(0.963639 0.0184454 2.71451e-20)
(0.145743 0.376019 -9.15603e-20)
(0.622671 -0.295384 7.35e-20)
(0.859032 -0.44541 -2.06734e-21)
(1.40257 0.336823 -9.98469e-20)
(1.01699 0.00224958 7.66291e-21)
(0.956839 0.0462145 0)
(1.03093 -0.0134791 -5.83028e-21)
(1.00806 0.000998612 0)
(1.10012 0.0865638 0)
(1.06615 -0.0850617 1.57801e-22)
(0.832877 0.03929 0)
(1.28211 0.158334 0)
(0.956202 0.0249961 7.67756e-21)
(1.29997 -0.1518 2.61776e-20)
(1.0584 -0.0254098 5.26529e-22)
(0.317536 -0.135965 0)
(1.05593 0.0316805 -2.40884e-21)
(0.0770961 -0.0710906 -3.59383e-20)
(0.999806 0.000174255 0)
(0.999915 0.00151174 -1.8773e-21)
(0.889631 -0.221826 2.50383e-20)
(0.604553 -0.302059 -4.32511e-20)
(0.359442 0.119983 1.42413e-19)
(1.05636 0.0299859 -7.47453e-22)
(1.00663 0.0583682 -1.94661e-21)
(0.992401 -0.00463519 1.13625e-20)
(1.04516 -0.0160552 -1.75485e-21)
(0.0722097 0.0248032 -1.34181e-19)
(1.01201 -0.0169583 0)
(1.05637 0.0621867 0)
(1.00366 -0.0556504 7.90071e-21)
(1.12608 -0.0611988 0)
(1.01051 0.0296324 1.18734e-20)
(0.965282 0.447535 -2.22004e-22)
(1.01395 -0.0155422 4.65499e-23)
(0.996048 0.00342651 -8.33285e-21)
(1.00105 0.0189186 1.43785e-20)
(1.274 -0.163383 5.95303e-20)
(1.05245 0.026949 3.01963e-21)
(0.0361197 0.0424322 -2.24495e-21)
(1.13609 0.226089 0)
(0.918157 0.275262 2.31139e-21)
(1.10403 0.0408796 0)
(1.00575 0.00296769 -9.73195e-21)
(1.02649 0.00651637 0)
(1.0326 0.0309581 -5.85989e-21)
(0.868169 0.318634 2.39632e-20)
(0.885911 -0.00138768 2.45188e-20)
(1.485 0.11427 -2.17864e-19)
(0.388671 0.626751 0)
(1.10553 -0.0651575 1.1098e-20)
(1.00667 0.00532078 0)
(1.32829 -0.125167 -3.75793e-20)
(0.351285 0.145448 1.24904e-19)
(0.942266 -0.0630289 1.32455e-20)
(1.03742 0.00414623 -4.80578e-21)
(0.89332 0.0143279 -4.53679e-20)
(1.00565 0.0123515 -6.68379e-21)
(1.05639 -0.0127604 -2.09612e-21)
(1.07389 0.0458617 0)
(0.114916 -0.12104 3.78199e-20)
(0.999661 -0.00023665 0)
(1.00902 0.467147 -7.51939e-21)
(1.05855 -0.0124458 0)
(0.990667 -0.0710258 -3.39038e-21)
(1.17832 0.248474 2.24252e-20)
(-0.463099 -0.111567 -2.91661e-20)
(0.936945 0.281651 0)
(1.00219 0.048676 -1.9785e-20)
(0.21989 -0.144978 4.65985e-20)
(-0.889316 -0.0545197 0)
(1.00108 0.0368499 9.04217e-21)
(1.0564 -0.00158104 3.60436e-21)
(1.11401 -0.402547 -1.04832e-20)
(1.37653 0.319674 8.96908e-20)
(1.14747 -0.156421 -1.10838e-21)
(1.00007 0.000168672 0)
(1.03498 0.0407344 1.89335e-21)
(1.01065 0.377685 1.38092e-20)
(1.05428 -0.00585946 9.0266e-22)
(1.19462 -0.054297 -9.03955e-21)
(1.04404 -0.0513002 0)
(1.02711 0.00632632 8.10508e-22)
(1.06836 -0.0544337 -4.04332e-22)
(0.869729 -0.0472484 1.05824e-21)
(1.03702 0.00270782 2.66213e-23)
(1.04745 -0.00328909 3.34517e-21)
(1.0026 0.002084 -4.65256e-21)
(0.88476 0.0260556 -2.67043e-20)
(0.999905 -0.000301659 -9.22166e-21)
(0.968753 0.08389 1.11605e-22)
(-0.849587 -0.0144737 1.59946e-19)
(0.981904 0.0700485 0)
(0.681406 -0.324604 -1.81086e-20)
(1.07664 0.0745644 -1.30077e-22)
(0.81657 0.0402003 0)
(1.00287 0.00228602 5.22079e-21)
(0.962146 0.225905 -1.06628e-20)
(0.998042 0.00820966 -8.81707e-21)
(1.20425 0.0988491 0)
(1.00547 0.00175384 2.11915e-21)
(0.989333 0.292102 0)
(1.05101 0.00535778 1.70736e-21)
(0.312904 0.167682 7.4951e-22)
(0.373582 0.518331 1.4279e-19)
(0.041055 -0.179814 0)
(1.00884 0.000495653 0)
(0.999346 -0.000629504 1.50877e-20)
(1.19333 0.198078 2.69177e-20)
(1.13377 0.159649 -7.42318e-21)
(0.741433 -0.00750217 9.26464e-20)
(0.299953 -0.27844 0)
(1.17029 -0.0109606 6.43479e-21)
(0.990501 0.00550426 0)
(1.4814 -0.049518 -3.45858e-20)
(0.328194 0.0930639 -1.31652e-19)
(0.995074 0.00136183 0)
(1.51553 0.127944 1.91769e-19)
(1.14064 -0.0324271 1.74506e-20)
(0.969411 0.0296489 5.18157e-21)
(1.07076 0.16426 -1.23584e-21)
(1.0465 -0.0149831 -2.09511e-21)
(1.36746 -0.0336917 8.47163e-20)
(0.763207 0.348512 -4.99197e-20)
(1.16865 -0.00591137 0)
(0.279334 0.159931 0)
(1.17304 0.00681032 -2.19558e-20)
(1.05109 -0.00292023 1.85036e-21)
(1.06445 -0.0895261 -1.78751e-22)
(0.986818 0.114863 0)
(1.03158 0.00503563 1.19798e-20)
(1.05698 -0.0124159 2.4062e-21)
(1.1107 0.164513 1.28795e-21)
(1.04011 0.111285 0)
(0.997007 0.00751415 -1.10528e-20)
(1.00464 0.000483773 4.50024e-21)
(1.11541 -0.064231 0)
(1.05703 0.00936289 0)
(1.20387 -0.0533468 0)
(0.991235 0.00501776 -4.61809e-22)
(0.99358 0.00170139 -2.61442e-21)
(0.999928 -0.000298667 1.73175e-20)
(1.01678 0.0693524 1.19845e-20)
(1.02225 0.00098562 2.32143e-21)
(1.04156 0.0936532 0)
(1.00219 0.0020574 0)
(-0.61595 -0.0869145 0)
(1.03442 -0.0238148 7.47746e-21)
(0.50193 -0.391604 7.05929e-20)
(1.01047 0.00617876 0)
(0.999957 0.0004305 5.87883e-21)
(0.774827 0.0997276 0)
(1.21924 0.0776682 -5.38667e-21)
(0.952887 -0.00496513 -1.33066e-20)
(0.488578 0.0757939 -8.39795e-21)
(1.07609 0.274953 7.00332e-21)
(0.55953 0.352711 1.22181e-21)
(1.05788 -0.0128363 -4.41592e-22)
(1.27075 -0.119888 2.97276e-22)
(1.04763 0.0151132 0)
(0.999949 4.56951e-05 0)
(1.00359 0.00205793 0)
(1.03052 0.0639128 1.24736e-20)
(-0.684114 0.0218956 1.26832e-19)
(0.999971 0.000376374 -3.48553e-22)
(1.13614 -0.360729 -6.63747e-20)
(1.04268 0.0967727 -7.37537e-21)
(-0.123566 -0.0202405 3.91391e-20)
(0.907983 0.214174 1.64954e-20)
(1.08535 0.279167 -1.08652e-20)
(0.993448 -0.0685087 0)
(1.01969 0.00704724 0)
(1 1.82857e-05 0)
(1.03355 -0.0252738 -4.13087e-21)
(0.987536 -0.00352924 -6.37108e-21)
(0.978201 0.0418866 8.9015e-21)
(0.60903 0.047805 0)
(1.00574 0.0623243 -1.56313e-20)
(0.998522 -0.00439498 1.26578e-20)
(1.09012 0.0579174 0)
(1.00386 0.007194 0)
(1.01596 0.0011249 0)
(1.04929 0.10635 -2.34766e-21)
(0.889203 -0.0458179 2.49026e-20)
(0.752171 0.0127036 5.54509e-20)
(1.07378 0.136303 2.64786e-21)
(1.03703 0.00219881 -4.10301e-21)
(1.00715 0.00100064 -7.43662e-21)
(0.449992 -0.230898 0)
(0.854732 0.321146 -3.69809e-20)
(0.995863 0.0438575 0)
(1.01303 0.0473192 5.59051e-21)
(0.561894 0.0721451 0)
(1.07525 -0.374636 6.02163e-21)
(-0.942115 -0.046175 -6.34254e-20)
(0.865801 0.113072 3.71969e-20)
(1.05173 -0.00256184 1.78197e-21)
(1.01024 0.00373997 -9.66496e-21)
(1.01617 0.00128352 0)
(1.04643 -0.0285717 -4.05869e-22)
(1.07953 0.139307 -3.77782e-21)
(0.959654 -0.132808 -1.10707e-20)
(0.913861 0.00501388 -2.09223e-20)
(0.868138 0.000345165 7.00256e-21)
(1.02422 0.047065 4.71602e-21)
(0.954077 0.0550095 1.84054e-20)
(-0.941063 -0.0418706 -1.51666e-19)
(0.993518 0.00361847 1.85257e-20)
(1.08431 0.00666407 0)
(1.00031 0.0326715 1.28434e-20)
(1.00095 0.000673724 -9.3166e-21)
(1.09751 0.16852 9.44247e-21)
(0.774338 -0.0534942 0)
(1.04624 0.0283541 4.32072e-21)
(0.655156 -0.326681 0)
(1.03412 0.0542914 0)
(1.19195 0.246585 0)
(0.99866 0.0156943 0)
(1.02398 0.00261053 -2.87251e-21)
(1.00936 -0.0276604 1.89014e-21)
(1.15615 -0.346321 1.09073e-19)
(1.00002 0.00017808 -9.72554e-21)
(1.28333 -0.379342 -5.7933e-20)
(1.02351 0.0027967 0)
(1.10833 0.155324 -1.21233e-21)
(1.03266 -0.000797694 5.55784e-21)
(1.03255 0.00683324 -5.86913e-21)
(1.37655 -0.268463 0)
(1.03725 0.0165832 -7.68668e-21)
(1.00437 0.0205558 -1.19756e-20)
(1.12814 0.11421 1.8543e-20)
(0.999923 -0.000393957 -3.30918e-22)
(1.01929 0.00371712 0)
(0.981195 -0.00497787 -1.07767e-20)
(1.00611 0.021201 0)
(1.04718 -0.00276683 -3.13734e-21)
(0.225014 0.512472 -7.03236e-20)
(1.03593 0.00438774 0)
(1.02899 0.0111441 -4.8754e-24)
(0.692913 -0.392268 0)
(0.78566 -0.439616 1.66325e-20)
(1.05769 -0.0269211 -2.66973e-22)
(1.12502 0.158633 1.14581e-20)
(1.16648 -0.0669397 8.37215e-22)
(1.0738 0.0200571 9.60139e-23)
(1.02254 0.0160388 -3.45926e-21)
(0.885789 -0.00888355 1.72729e-20)
(-0.459668 -0.104062 2.03436e-20)
(0.995478 0.297069 2.89601e-21)
(0.997406 -0.000975694 -5.39226e-22)
(1.03235 0.0400528 3.226e-21)
(0.351861 -0.294568 0)
(1.11775 -0.000823233 0)
(-0.4968 -0.00146597 0)
(0.999884 -0.000431046 -5.93154e-21)
(0.95026 -0.00448018 3.96992e-22)
(0.866751 0.0320413 1.56272e-20)
(1.1027 -0.00480036 1.14798e-20)
(1.04824 0.026563 -9.58387e-22)
(-0.236167 0.121415 -4.47798e-21)
(0.197761 0.0966646 2.09525e-19)
(1.00646 0.0206891 0)
(1.34935 -0.0300172 -3.55302e-20)
(1.00387 0.00223054 0)
(1.03622 0.0166179 7.18344e-21)
(1.01085 0.00653038 5.98839e-21)
(-0.553962 -0.097716 -7.97592e-20)
(1.02189 0.000849155 -1.59647e-23)
(1.0369 -0.00191977 1.94152e-21)
(1.02313 0.0154952 5.72582e-23)
(1.00274 0.022874 -1.42191e-22)
(1.05182 -0.00656697 0)
(1.24362 0.385988 -3.26068e-20)
(0.715509 -0.155417 0)
(1.03305 0.00494421 -4.76057e-21)
(0.839247 -0.00333223 9.15376e-20)
(1.00001 0.00139594 1.11856e-20)
(-0.57629 -0.00832614 0)
(1.00283 0.00913 0)
(1.0365 0.00388258 -1.64699e-21)
(0.998505 -0.00381467 -5.81567e-21)
(1.0075 -0.0291008 0)
(0.998386 -0.00427422 4.27993e-22)
(1.28954 -0.166206 -2.83424e-20)
(1.03722 0.062695 -4.45621e-21)
(0.882026 -0.0449052 -2.43576e-20)
(0.898027 0.0157741 2.10069e-20)
(0.94795 -0.0774728 -7.56242e-21)
(-0.770345 -0.00441286 0)
(0.992115 0.0258683 4.55284e-21)
(0.94712 0.0487844 0)
(0.227122 0.309229 4.86527e-20)
(-0.726324 0.00310668 -5.33593e-20)
(1.00476 0.0440655 9.76446e-21)
(0.690519 -0.380737 0)
(0.164773 0.188287 0)
(1.31339 -0.117478 -3.14359e-20)
(1.00402 0.051743 2.83478e-20)
(0.960652 0.0270367 8.24811e-21)
(1.10348 -0.00187587 -1.65925e-20)
(0.918422 0.00650264 -1.36404e-20)
(1.02797 0.00444705 -5.56568e-21)
(1.02112 0.0258343 2.46024e-21)
(0.997192 0.0451695 0)
(0.999983 0.00148959 -5.65539e-21)
(1.07743 0.0135409 0)
(0.872899 0.0705896 0)
(0.846962 0.0130999 4.07023e-20)
(1.02103 0.0247683 -1.2029e-20)
(0.993086 -0.00386192 1.20021e-20)
(-0.0890139 -0.0638184 1.10212e-20)
(0.845809 0.391981 0)
(0.981589 -0.00628175 -2.50471e-22)
(0.820582 -0.0928108 0)
(1.10028 0.0603607 4.44e-21)
(1.04202 0.0221435 -4.15147e-21)
(0.430724 0.554656 -7.9908e-20)
(0.812606 -0.0879157 0)
(0.942257 0.0441967 2.1572e-20)
(1.05214 -0.00637581 -2.51821e-21)
(1.0345 0.0543326 0)
(-0.915933 -0.0322904 1.41698e-19)
(0.222525 -0.0728622 -4.65278e-23)
(1.0322 -0.000477004 -6.97729e-21)
(1.28613 0.386867 7.46559e-22)
(1.30977 0.153061 -2.75937e-20)
(-0.437431 0.187867 6.38806e-20)
(0.446858 -0.313384 0)
(1.02406 -0.0180715 9.01873e-21)
(1.0119 0.0290438 -1.23838e-20)
(1.04862 0.0157618 -1.81835e-21)
(1.02264 0.0474525 0)
(1.01861 6.81204e-06 0)
(1.01979 0.0707521 0)
(1.01629 0.00191869 0)
(1.03554 0.105459 -8.30131e-21)
(1.06557 0.16212 5.19823e-22)
(-0.148537 -0.114471 0)
(1.07729 -0.16186 0)
(1.0372 -0.00153386 -4.09791e-21)
(1.25706 -0.118901 -3.95335e-20)
(-0.457375 -0.0774771 4.5684e-20)
(1.09565 0.159619 5.41626e-21)
(0.968198 0.0189781 7.88725e-21)
(-0.0387794 -0.0763159 -4.22548e-20)
(1.02808 0.0214981 0)
(0.979293 0.0397908 0)
(0.805825 0.0263446 1.28142e-19)
(-0.094811 -0.186398 1.12792e-20)
(0.998424 -0.00571546 1.29752e-20)
(1.00052 0.0191642 -2.99587e-21)
(0.88877 -0.0175737 -7.31055e-21)
(0.953703 -0.0811907 -1.43006e-20)
(0.998305 -0.304272 7.32161e-22)
(1.16644 -0.143067 1.1502e-20)
(0.951348 -0.0531594 0)
(1.00427 0.0192882 -6.1148e-21)
(1.35666 -0.130398 -9.68291e-20)
(0.966851 0.0209368 0)
(1.00104 0.00823473 7.94107e-21)
(0.96537 0.0162132 -4.8591e-22)
(0.938438 0.0134293 7.63094e-21)
(-0.898059 -0.0418779 -3.3686e-20)
(1.03012 0.00934343 -1.76894e-21)
(1.01976 0.00370553 0)
(1.00011 0.0341879 -2.66505e-20)
(1.095 -0.402684 4.95273e-20)
(1.0159 0.0678256 -1.70083e-20)
(1.10252 0.0316427 0)
(0.98848 -0.00409905 -1.30344e-20)
(1.00991 0.0552053 1.51064e-20)
(1.35826 -0.118169 7.87477e-20)
(1.03366 0.00447824 1.03475e-20)
(1.2126 0.0944698 -1.28998e-20)
(0.945266 0.385256 0)
(0.944594 0.0218611 -7.62247e-21)