/*--------------------------------*- C++ -*----------------------------------*\
| =========                 |                                                 |
| \\      /  F ield         | OpenFOAM: The Open Source CFD Toolbox           |
|  \\    /   O peration     | Version:  v2012                                 |
|   \\  /    A nd           | Website:  www.openfoam.com                      |
|    \\/     M anipulation  |                                                 |
\*---------------------------------------------------------------------------*/
FoamFile
{
    version     2.0;
    format      ascii;
    class       volScalarField;
    location    "200";
    object      omega;
}
// * * * * * * * * * * * * * * * * * * * * * * * * * * * * * * * * * * * * * //

dimensions      [0 0 -1 0 0 0 0];


internalField   nonuniform List<scalar> 
13917
(
0.0336976
0.0219842
2.68409
0.0221041
0.0221112
0.456717
3.88374
2.2199
4.18615
0.0510989
0.0866086
0.0395262
0.0221271
18.1474
0.0253077
0.0241547
0.0220863
0.0365666
0.0387316
0.0221116
0.0222664
3.91465
0.0220888
1.363
0.022007
3.82884
0.041577
0.0534179
0.615651
0.069367
0.0348275
0.025247
0.0356405
0.0259277
0.0220305
0.16798
0.0220979
5.00337
0.0226599
6.7154
0.0218812
0.0222857
0.0215542
0.0798609
0.0218148
0.0276472
0.0358486
0.0446777
2.97031
0.0220176
0.0235319
0.0224104
4.106
0.0262893
0.0221035
0.0238163
0.0860199
0.0219965
0.0231202
0.0217995
9.23938
0.0219822
23.908
0.0221
0.426211
5.42358
0.0221128
0.0220724
0.0941911
0.0319603
0.0221183
3.43641
6.22896
0.0220126
2.93432
0.0454034
6.74642
0.022066
3.73739
0.022236
0.0222035
0.0221195
0.385173
5.09669
8.91923
0.0220128
0.0221785
4.08032
0.0233984
0.0215427
5.93434
0.0644932
0.0217898
0.0228177
4.9906
0.391338
0.0679883
0.0416323
0.0747238
0.1081
0.0218051
0.0329382
0.0810297
0.0221728
0.0217644
3.23699
0.376915
0.0465157
0.0220829
0.0375617
7.51254
6.41776
0.0490481
3.33755
0.0230884
2.99146
0.0220012
1.48167
5.74634
0.0262107
0.0222735
0.0933826
5.14339
0.0501758
0.0219734
0.0226845
0.0218286
0.0219808
0.0215876
0.433926
4.38713
0.0229969
0.021827
0.022274
0.309686
1.1882
0.0341129
0.113281
0.0221062
0.0260336
0.150612
0.0216966
0.0226051
0.097638
0.022073
0.590658
0.648805
0.0223481
0.021683
0.0257442
0.0355797
3.10593
0.0506256
0.0373502
0.0242888
10.2828
0.031012
0.232817
7.56078
0.307098
0.0241293
0.0424723
0.0222359
0.0651737
0.048228
0.073387
0.0221651
0.0380515
0.0217542
0.0340182
0.0372698
8.18374
0.052849
0.022309
0.319608
0.0410495
4.4121
1.97376
0.510219
0.0218628
0.0658461
0.0357066
0.0216878
0.0221692
0.0290401
3.45138
0.192063
14.214
0.028215
0.0686064
0.159889
10.3052
0.191419
0.0220999
0.121368
0.0407797
0.0222132
0.0217951
0.198644
2.57246
0.0230716
0.0220333
0.0355291
0.0350197
6.27871
0.235427
0.022033
0.0220074
0.0406105
2.94016
0.022499
3.95641
7.66786
0.0688388
0.0217736
0.532329
0.0361688
7.62503
0.0219495
6.7559
0.0218638
0.062067
0.021879
5.26721
3.45903
0.0243775
1.10921
0.0244091
0.0217785
0.167098
0.0516798
0.0279922
0.999034
9.11841
0.0217619
0.0255336
6.15071
7.35719
0.022228
0.0219418
5.51285
0.0757855
0.0222667
0.137395
0.0610849
0.041465
0.0307595
0.0222279
0.0413158
8.14903
0.0216348
0.0831313
0.13869
0.0218156
0.0219923
0.0416597
3.87912
0.0483422
0.0292737
0.0253488
0.0222712
7.58136
1.1918
0.146269
0.021788
6.47975
8.05714
0.254109
3.746
0.0478273
0.0222142
0.021931
0.0357297
5.38241
0.0699156
0.0229703
0.254065
0.0282344
0.0215828
0.643056
0.022088
0.327242
0.0229124
0.022262
0.0258125
0.0371553
0.0430305
0.141986
0.0303632
0.0217141
0.206488
1.0814
2.08486
0.0219518
0.275014
0.0221756
0.0217077
0.0220089
0.94191
0.0221053
0.0659206
0.0303393
0.0217436
0.0355332
0.0224664
2.53919
0.0399982
0.0591711
0.0216856
0.021984
7.32826
6.23471
0.0219942
0.0219059
0.596872
0.0218402
6.29168
0.0216885
5.35899
0.0217413
0.311501
0.0258286
3.04437
0.0238332
0.275385
0.290467
0.0258167
0.0755372
0.438914
0.0221511
4.62779
0.125787
6.80458
0.0249284
6.99548
0.025827
9.48098
0.235742
0.0958199
0.0937752
3.3166
0.0222159
0.0382617
7.95845
0.0221503
0.0229784
7.10176
0.24165
0.0222276
0.146305
0.579988
0.0218512
6.34603
0.157901
0.0220813
0.0218763
0.0221832
0.0216769
0.200052
0.401662
0.719735
7.75516
0.0220078
0.0915254
7.74633
0.0292781
4.00651
5.43709
3.78015
0.0217507
0.142071
0.021855
4.41952
0.0218036
3.76751
0.0613378
0.0224785
0.0221975
0.0388295
0.0708447
0.047299
10.2293
8.68447
9.92754
0.0430823
0.0487646
0.0219503
7.99069
4.03243
0.0219879
0.248006
0.0220402
0.1611
0.0217419
0.022226
0.0225371
3.48476
0.0225238
3.67595
13.1977
0.0778983
0.456638
0.0221334
0.448851
0.405624
0.0220323
0.255541
0.0221287
0.022025
0.0696558
0.0222616
0.0220135
0.0218505
0.174711
0.0222472
6.20277
3.02193
6.60345
0.191945
3.78564
7.4527
0.0290242
0.0220145
0.102728
0.0225931
0.0262352
0.0220917
0.463358
3.54308
2.33495
0.0242149
0.0666192
0.0246608
0.0228052
0.0468629
0.0224843
0.144256
0.0220651
0.0220961
6.56515
4.36526
4.37955
0.0954881
7.73327
4.69242
7.90869
6.8045
0.0216185
0.0379842
0.0225138
0.0220352
0.212289
0.036348
0.0216923
0.0439056
0.0283436
6.47927
0.0220278
0.0672928
21.6508
0.465996
4.6924
0.0222547
0.0219974
0.0221549
0.0312462
0.021753
2.77676
0.566389
0.0300912
9.48084
0.0237693
0.0664518
8.35056
0.653731
0.0751209
0.154124
0.0671267
0.0439788
0.0951403
0.0286686
0.0866192
0.505827
0.030735
0.0500781
0.0217754
0.262719
0.0238656
0.0215513
0.0301371
0.0220957
6.75012
3.35483
0.0218398
0.0215937
1.95604
9.05163
0.0222618
6.48254
0.0219598
0.148026
0.0218515
6.50142
0.222121
0.0257162
0.0219782
3.80446
0.16168
8.41216
0.0222693
7.33628
2.59221
0.77887
0.0215608
7.82482
6.35943
0.0291862
0.0218687
0.0221118
0.045503
0.174985
0.0216529
0.0218848
0.0219564
0.0219504
6.66268
0.214476
0.0289532
0.185293
0.0219498
0.0218134
0.065523
7.03085
0.0271038
0.0217556
0.0220204
0.0220802
0.69001
11.3162
0.0221729
0.0220745
0.139777
0.0284879
0.0258257
0.0219981
0.0226168
0.0249018
0.0489443
0.317489
0.191222
0.102931
0.0603354
0.236209
0.0584519
0.0219637
7.07594
0.0220842
0.0231558
0.0224118
0.260063
0.0662215
0.0218161
0.457621
0.076619
25.2332
0.0606226
0.0345379
0.029106
0.022189
3.49908
0.325496
4.76555
0.0220214
0.025051
0.18494
5.5253
26.2759
0.0435679
0.107946
0.0241423
0.022901
0.0220036
0.0512722
0.0849479
0.0222432
0.0356703
0.13438
4.68613
7.82307
0.0231165
0.0643572
0.208521
0.0266142
0.0223997
3.69687
0.993875
0.848513
0.169182
0.0216013
6.44263
0.0445243
0.0218414
0.0266412
0.0458861
0.0341433
0.0677162
3.78097
0.0923016
0.0269398
3.51083
0.0222514
7.86014
0.0222367
0.022166
0.275313
0.959088
0.608439
0.0222377
0.0222599
0.0220758
0.0285437
3.23377
0.0694646
0.0229808
0.0706995
0.0380156
0.0218534
1.15242
0.0676387
0.148187
0.0219272
0.0893913
0.0220964
17.8878
0.0522747
0.0661682
0.0252213
0.0218754
0.0215922
0.021841
0.102243
0.028065
0.16972
7.60797
0.0376873
0.0218611
0.0908703
0.630923
0.183207
0.0216309
0.0271698
0.0218935
0.0238209
0.0231971
6.41157
0.0222278
1.99624
0.0237662
0.086318
0.0655022
6.33626
0.0680904
0.0220815
5.57669
13.9197
0.0219507
0.0223795
0.234508
0.146306
0.0695767
0.0222376
0.021993
0.242977
0.0225203
0.0470481
0.0398642
0.0215898
0.034846
2.40445
0.021613
0.0219318
0.0219766
5.90985
0.0222653
0.0239699
7.74798
0.0229434
0.717889
0.0243484
0.0363614
0.0219689
0.0449369
0.0220183
0.0436807
0.0218812
0.0714372
0.0219611
28.6822
3.02698
7.06642
0.0220755
0.0222057
0.0545674
0.038887
5.47626
5.90807
0.0364009
0.0220338
0.169514
0.672371
0.146968
0.1571
0.0341965
3.54652
0.0337249
0.0276156
0.0893534
0.161403
0.0360093
1.06532
0.0359928
0.0221291
0.0479448
0.0258346
0.0215862
0.0237594
0.0373714
0.0254366
0.0220263
0.0219166
0.0378987
0.0221805
0.0477707
0.0220347
0.0220565
0.0222731
0.0225836
0.0214922
0.0240652
0.0219971
6.59801
0.0387003
0.390674
0.0217794
0.0222467
0.046609
0.0445585
0.0228321
0.922949
0.0634157
1.2959
0.0237959
0.0748419
0.0218791
0.0222684
0.0219327
0.0224928
9.64427
0.0222547
0.283212
0.0242331
7.27981
0.0451697
0.0640409
0.0847928
0.0216389
0.0222909
0.0394345
0.022065
0.0222921
0.528057
0.0223612
0.0221824
0.024524
0.0219362
0.0216425
0.0253591
0.0287341
8.55798
0.0298462
0.0216107
0.0218608
5.71685
0.10021
0.0220696
0.0220154
0.696025
0.223987
9.84699
0.034499
0.0221421
0.0217733
0.0216311
0.0312744
0.0303607
0.136073
0.0253323
4.63025
0.0220204
0.0233721
10.4594
0.0220467
0.0238818
0.0219321
0.0220799
0.0367457
0.0432854
0.0219716
0.84836
4.52695
0.0656151
0.0219584
0.0215303
0.0672349
0.277289
0.0222612
0.215008
0.0215352
0.0351575
0.021524
0.0216118
0.184871
0.021734
0.229583
0.0318013
0.022273
0.0215855
0.0221104
0.0218772
0.0219076
4.26283
0.0216168
0.0216474
4.82921
1.04893
0.0274465
0.038032
0.04461
0.022962
0.0217094
0.027925
6.32868
0.0744068
0.0221288
0.0219559
5.48564
0.0275078
8.55062
0.0222659
0.0229372
7.17997
0.0261844
0.0219922
9.90265
1.76068
0.0218752
0.0826729
0.0219299
0.0217286
0.0217656
6.57826
0.0214873
0.0215759
0.0217016
0.216916
0.0224658
0.146801
0.066299
0.0215944
0.0329944
0.0221731
7.9832
0.0219566
0.0216177
0.0221828
0.0695785
0.0221755
0.0921209
6.17433
0.769676
0.0266488
0.158068
7.36108
0.0219762
7.36824
11.5419
7.1385
3.81722
5.14905
35.0592
0.0860016
0.022122
3.80139
0.0261991
4.22527
0.0215628
0.0217825
0.0220731
0.0221662
0.0232376
0.0306132
5.39578
0.0217761
0.0220778
7.7932
0.236292
0.0221118
0.038709
0.0253804
0.0218368
2.8567
0.0409339
0.0235839
0.0224513
6.23354
8.84055
1.34919
0.0215232
0.163497
0.0758537
6.93132
4.20503
0.0516945
0.0218441
0.0219054
0.0220226
0.0214649
0.0226203
0.0216134
0.0249637
0.0330831
10.2867
0.0753244
0.021586
0.0726731
7.99249
0.0346642
0.0223126
7.47428
0.0217401
0.0222327
0.0379303
11.783
0.0221774
0.0219268
4.04816
0.141244
0.195842
0.064654
0.16935
0.0218995
0.102057
0.0223344
0.0219921
0.0223394
3.2637
7.95043
0.0216289
0.0215787
0.0219414
0.23491
0.0225157
0.0250517
0.022064
0.0221692
0.101336
0.0215947
0.0439894
0.258567
4.34756
0.0218051
0.0706401
0.0232326
6.39719
7.7446
0.022015
7.21828
0.0468743
1.44872
0.0221753
3.57798
0.0222463
0.0237714
0.0362583
0.0646636
2.6423
0.155116
0.0944476
1.35058
0.0218561
0.146805
0.0216043
0.0257289
4.17138
0.0220386
0.0222538
0.0222702
0.02184
9.215
0.0216403
0.0220795
0.0354796
0.0370555
0.0335196
0.579645
0.0741322
9.52604
0.0392854
0.027188
0.0272739
5.73861
0.0277804
5.25661
3.84015
0.0228486
0.0215854
3.59723
0.1476
0.0223504
0.0684772
0.0271912
0.0217529
0.0233583
0.0218511
0.0362097
0.0222921
0.0336196
0.104354
0.0218632
0.0439217
0.0216592
0.0538054
0.0218759
0.0263953
0.038859
0.0222334
0.0217417
0.0216381
2.06116
0.0621227
0.515639
0.0220095
0.0219373
0.0384452
0.0219357
0.0622242
0.0622827
0.0217544
0.0612533
0.0216523
3.61362
0.0223022
0.0267387
6.57278
0.141561
0.0219063
0.0229957
6.86461
0.0219939
0.0219056
7.0818
6.8776
0.0243345
0.0905107
0.0221022
0.0217352
3.01806
0.0223996
0.0216483
0.151061
0.0216489
0.207157
0.0221968
0.0216552
0.0220851
0.0756199
4.07496
0.0221053
0.022166
0.0219014
0.0249051
0.0220768
0.952106
0.0417873
0.0222688
0.371289
0.0455232
0.154401
4.72248
3.77235
0.0216232
0.0222456
0.0219637
0.626421
0.02545
4.13266
7.57051
0.0237794
4.33112
2.3111
0.0336405
0.0840819
0.0608918
0.388458
2.11978
0.0565527
0.667157
5.16139
0.0388857
0.0243458
5.59834
0.0533502
0.021573
0.0222331
11.62
0.0345373
0.0218347
0.0464108
0.0667165
0.03299
5.42078
0.023009
0.516503
0.0273757
0.14424
0.0769108
0.174632
0.0249838
0.0216538
0.0222565
1.76469
0.0219853
0.0239158
0.0217413
0.022615
0.0217638
0.0337313
0.084454
1.93575
0.0424179
0.0624129
1.73658
0.305293
0.0217447
0.225765
2.91128
0.0216731
0.021896
0.025711
8.52973
0.0222548
0.0470505
0.486949
0.0414091
0.0220681
0.0220204
0.0216448
0.0687883
0.0358198
0.0219879
29.4245
3.60975
0.0393721
0.226766
0.0393675
1.45468
0.0228591
0.0230771
0.635472
0.23397
0.0523294
1.70284
0.0254069
0.022276
0.0216879
0.0219681
0.0220313
0.0226558
0.0463006
0.0219169
0.0696793
0.0219358
0.0248284
0.0215954
0.0632284
0.0690687
0.477962
0.0219685
0.172904
0.0216916
0.322638
0.0220346
0.0258501
0.0221226
0.123131
6.33983
0.0795156
0.0219073
0.0755328
0.0219285
0.026273
6.50513
0.0217268
0.022366
0.0357354
0.0266322
4.17467
0.0219171
0.0282667
0.0219764
0.0220349
0.0316405
0.0222083
0.0217343
0.0235138
7.50637
0.0231011
0.148258
0.88291
0.0362886
4.02201
0.0229967
0.0217403
0.0293159
8.01595
0.0220629
0.0332126
0.028782
1.59785
0.0218636
7.71373
0.0446647
0.047102
0.0216618
0.0216023
0.0916939
0.0224199
0.0222858
0.0337909
0.0215804
0.0242613
0.0252568
0.0428841
0.295427
3.73926
0.0226
0.0451765
0.240852
7.89875
0.0269499
0.235694
8.43309
0.0290476
8.49632
0.0239121
12.0164
6.91217
0.0215399
0.022262
0.0219471
0.0218583
0.0359742
0.021586
0.0240933
0.0517469
0.022329
0.0336793
5.85062
0.0298898
0.0225152
4.14527
0.0219966
6.40601
0.0224201
0.0517467
0.0218523
7.69837
7.75275
0.0219268
0.0219077
3.3405
0.0292817
8.39173
0.0220206
0.0216423
4.57723
0.0219414
0.04324
15.3888
0.0220726
0.0388991
0.0258258
0.0215953
0.0218941
3.66882
7.48581
0.021935
0.0222911
0.0220154
0.0245212
0.0375945
7.22445
0.0225563
2.58638
0.272376
0.146226
0.251176
0.0219334
0.0691852
0.175147
0.0287782
0.0220605
0.0372363
5.63483
0.0232521
0.0442676
1.59264
3.55099
0.278541
0.0255398
0.0221507
0.0222468
0.0220818
9.07792
0.0360813
0.0223258
0.0219445
0.0228493
0.0222697
0.0219283
0.0220574
0.0445963
0.0268236
0.336323
0.0446452
9.43341
3.6469
0.0287898
0.0342076
0.0217975
0.0266037
8.75587
0.0219598
0.0228632
0.0339431
0.0695679
0.0558907
2.91747
0.142593
0.0217475
4.98548
0.0215635
0.0218532
0.0433255
0.0222733
0.0216283
0.0952685
0.625861
0.0216541
1.53429
0.0219292
0.0216137
0.022796
2.74194
0.0259992
0.0224066
12.0343
0.0223256
0.133889
3.80731
0.0222461
0.0458897
0.0220086
6.56004
0.0475502
0.0220662
3.3051
0.0362616
0.0761776
0.0222782
7.98316
0.0285903
0.448897
0.021922
0.0667576
7.15852
0.0216383
1.4171
0.022089
0.0449021
0.0511391
0.0222453
6.82053
0.0231071
0.068207
0.0409444
0.0971605
0.037493
0.0410839
0.0225014
1.62377
0.0305244
7.47747
0.0290489
0.0393165
0.0218042
0.0353674
0.022048
0.0412838
1.59725
0.0223826
0.0217731
3.44562
0.0220782
0.229265
0.0219907
1.85687
0.148163
0.0299765
0.0219809
0.0219256
0.0221122
0.0216092
0.0654328
0.0516013
0.0393737
0.0239841
0.0220816
0.253988
0.0223136
0.029318
0.221889
0.0220363
20.4642
0.0340396
0.0240537
1.28938
5.68089
0.214861
0.975758
0.511534
0.0218538
0.264848
7.05719
0.351111
0.0221726
0.0222697
0.0656621
3.50867
6.05983
0.377513
0.0217019
0.0487407
0.0292833
3.84245
6.68821
0.0288595
0.0726891
0.0231045
0.0623077
0.0521206
0.0221642
0.0691487
0.597145
0.0221324
0.244146
0.0222529
0.0217348
5.56413
5.77729
0.0218399
0.0217269
0.0220499
0.0216605
0.0432365
0.0979241
0.022014
0.0219817
0.022097
0.027818
0.0249083
0.0248735
0.206964
0.02203
6.28985
9.49524
5.67126
0.136682
0.0385608
0.187625
0.0263607
3.76565
0.203023
0.55704
0.0221682
8.30072
3.80089
0.021756
0.0220301
0.0723577
8.71039
2.14845
0.0215854
0.0219388
4.3328
1.47835
0.556672
0.0229161
0.0240161
1.93842
0.0221192
4.68922
12.0524
0.181836
0.700841
0.0220707
0.0218964
0.0218815
0.0261756
4.7966
0.0281204
0.0228469
0.0227445
0.0724058
8.90315
0.0278385
0.326601
6.75645
5.36448
2.18374
0.0220519
0.0221716
1.47
0.0216338
0.0215758
0.0227198
3.10177
0.0280599
15.2976
0.083984
0.0220207
6.41822
0.0312884
0.0217707
7.70617
0.158755
0.0255444
0.0217091
7.48027
8.67873
0.0221813
0.87686
0.27289
11.5981
0.710934
0.0645218
0.0218818
0.0220265
0.977227
0.0234169
0.867979
0.0331005
0.608235
0.150303
0.0228901
0.0280901
0.0218616
0.022637
9.24036
8.01177
0.0220796
6.6481
0.0292715
0.0219505
0.0244775
0.0219191
0.0940333
0.022043
2.07322
0.0482007
0.0218699
0.0218674
0.0912464
9.73873
0.0290339
0.0231499
0.0334999
0.0220446
0.0222653
0.0236536
10.1369
4.44771
8.75775
0.0216977
0.0218608
0.0221472
0.0696952
0.0218542
0.0221691
0.0954526
0.0376274
0.174838
0.0215357
8.39322
4.39826
0.0222843
10.8294
0.0669738
0.0268179
2.06132
0.0221033
8.61999
0.0287243
0.0228825
0.0238989
0.0216306
0.134465
0.0222318
0.0218823
0.031341
3.74507
4.07346
0.0222458
0.0220202
0.022574
0.0218126
0.0821753
0.022469
0.0567034
0.0222962
5.57194
0.021887
4.67789
0.0216961
6.9792
0.0219719
0.0216127
12.3524
0.29501
0.110389
0.17599
0.0434994
0.0291941
0.0220594
6.96273
0.022078
0.0218613
0.0894895
0.0385199
15.8166
7.19074
0.0749309
0.916492
0.0838048
0.28849
0.0217039
0.0229669
0.0238512
6.75376
0.0251967
7.50083
4.89528
0.021726
0.0221048
0.0219508
0.882881
3.2688
0.0222446
0.0221061
0.0247397
0.0251145
0.0283574
0.196029
0.230038
0.0220626
0.699316
0.0607039
9.18372
0.047847
0.0226724
0.0226864
6.57687
0.0218788
0.0606706
2.56536
0.0225131
0.0237785
0.0979903
0.143164
0.0226698
7.54176
0.022876
0.146019
0.0276496
0.0290207
0.0219586
8.47411
0.021848
0.0857479
1.43241
9.65332
0.035765
0.0500482
0.0229117
0.0451449
0.0222659
10.0563
0.023372
0.0217079
0.0251589
0.0220905
0.0222692
3.3091
0.022068
0.0221793
0.0219761
0.0739625
0.0223142
0.0288274
0.0446502
0.154918
0.0760162
0.0222542
0.196902
0.418438
0.139147
0.0613385
0.027955
0.090998
0.789357
0.387793
0.0222845
0.447965
2.52582
0.0222839
0.0227693
0.0216247
0.705088
0.0740516
0.0217006
1.30246
7.1317
0.0217983
0.0222665
3.20985
4.65754
0.0393825
0.021629
1.47827
3.58594
3.30336
0.0220215
6.75835
0.048397
0.065423
7.91735
0.0235141
0.0216358
0.0255068
0.122168
0.0257394
3.29408
8.43513
0.021765
0.570818
0.429997
7.02545
0.0216919
0.0540704
0.0223896
0.0218757
5.65986
0.248324
0.136382
0.25599
0.0279325
0.0359767
0.0220321
9.28905
7.18071
0.0220659
0.0219593
0.0320488
0.0215947
0.0341055
4.69464
1.14279
0.0362674
0.0220031
0.0217131
5.92511
0.0246108
0.0357071
0.0217471
0.0226424
0.44844
0.259433
0.166451
2.94712
0.0221703
0.150913
0.0220683
0.0452377
6.53432
8.69365
0.0220721
0.0222937
0.0261502
0.0256895
0.0222314
5.50323
7.03336
0.021681
0.0214781
0.0221918
0.0219623
2.67501
0.0216042
3.09119
0.0649107
0.0383811
0.0217568
0.0414476
8.70545
0.0263299
0.378793
11.0972
0.0221631
7.78722
0.0332389
0.0366248
0.301756
7.9286
7.03243
0.0368505
0.0218649
0.196144
0.0216138
0.0254976
0.0222252
2.80496
0.0305149
0.538599
0.147283
0.0342696
0.0221272
0.184653
0.0236002
0.0222703
0.261879
0.0215819
0.0267868
0.027325
0.0221772
3.18976
0.0228754
0.566216
0.0226866
0.0219234
10.8724
4.65626
0.0240844
0.0328781
0.0275987
0.0466941
0.0363946
0.023101
0.0249418
0.0230422
0.132083
0.024802
2.39444
0.0542204
0.148737
0.0668882
0.0219451
5.36766
0.0215954
3.20695
0.024322
8.17645
0.483779
0.57571
0.413732
0.159791
0.0701972
0.0216906
4.94276
0.0772607
0.0220609
9.40566
0.747134
0.0231917
0.0223098
0.0266279
0.0266176
0.0255727
6.48169
0.0222841
0.0241169
0.0261616
0.0305808
0.0221639
0.0499081
0.0215643
2.19086
0.0234399
0.0863905
0.0267497
0.0293193
0.0926193
0.25072
0.0618187
0.0217864
0.193934
4.45053
22.5041
0.0218274
1.18932
0.0246969
1.75632
0.0220777
0.0239159
5.12312
0.0326833
7.03436
8.35909
0.0333211
7.24953
0.0218829
0.0215499
9.15779
0.0600528
0.0237933
4.49443
0.0245064
0.043244
0.0282184
0.0534275
0.0219153
0.294997
0.616279
8.28193
0.140929
0.0234128
0.0464732
7.05561
0.0235218
0.022233
0.0640022
0.0216619
0.265684
13.5825
8.04175
6.27175
0.0353234
0.0218513
6.57545
0.0215716
0.045615
0.0222346
26.1734
0.0229939
0.0439424
4.45206
0.0738688
0.0220251
0.0303371
15.0659
0.0221163
0.0825275
0.0217161
1.41234
7.65838
0.0661705
0.0784308
0.0219463
0.131073
0.0771827
0.0293625
0.0217225
0.0218343
0.0221469
0.0347049
0.0221253
0.0505865
0.0221911
0.0216971
8.51547
0.0217519
0.0244216
0.0227425
0.0222745
4.50919
0.0217693
0.0305319
5.78563
0.0311073
2.17802
0.0220841
8.8056
0.0322067
5.13328
0.0228971
0.0716143
0.0217072
0.029495
0.0693336
0.0645517
0.14304
6.73113
0.128975
1.01645
0.0271463
0.0637434
0.0387366
0.292915
0.0248237
0.0216882
0.0220359
0.0334728
0.0418765
0.232982
0.0356595
1.37877
0.38451
0.104479
0.0219391
0.284799
0.184241
0.0224779
0.023923
0.022062
0.281384
0.0220441
10.4627
0.02175
0.023542
6.93592
0.0680036
0.0220436
0.022029
8.20864
0.02179
0.0235393
0.0230833
0.0294648
0.0247209
0.0220255
0.088028
0.0830507
0.0419274
0.174106
7.64258
4.45387
7.16345
0.0217131
0.0219674
0.0906372
0.0218646
0.0454083
1.20571
4.72663
0.0216264
0.0220574
3.7753
0.172242
0.0216404
0.0217847
0.0265428
18.1191
3.55511
0.0241543
0.0295358
0.0221984
0.187005
0.0710873
0.136088
0.031942
0.0410455
0.0224976
0.0300892
0.163152
0.0227912
0.0218395
0.0241301
3.3022
0.0247692
9.2462
0.0221042
5.07456
0.0334459
0.0285596
0.021763
0.021912
0.54948
0.468861
0.0588079
4.46562
15.3208
0.0224411
5.90103
0.0814944
0.0217998
0.279245
0.151856
0.0665996
0.022254
4.0194
7.06493
0.0216878
0.0366975
4.67435
0.038802
0.0219859
0.0216972
0.0219826
0.0224355
0.0567699
0.15414
0.0798508
0.0560668
0.0216796
0.0221049
0.525983
0.0217627
0.0407935
0.0269174
0.0216524
0.03627
0.022021
0.0233035
0.163085
0.0219947
7.04956
0.022018
8.02641
4.43159
0.0614856
0.0220981
0.0222927
7.06058
0.0216197
0.0230278
0.0223818
0.236287
0.312856
0.0271827
4.59258
0.0393991
0.194877
0.0226634
0.0435141
0.0216214
0.0221383
6.78926
4.78478
0.50493
0.0228409
0.0445302
0.0439702
8.03688
6.13622
0.149847
0.0316209
0.0215682
6.65368
0.0217284
0.021775
0.141041
0.0651392
0.0276994
0.186653
0.0445954
0.029311
0.0247551
6.92433
0.0228211
0.0219879
8.65601
0.0443549
0.0216671
3.82548
0.0220317
0.0221089
0.0939621
0.113659
18.8561
0.021686
0.0244916
0.0218863
2.2006
0.021796
0.53114
0.266867
4.312
3.73119
29.4699
0.0303975
6.52579
0.891431
0.0222092
0.0294136
0.0417149
0.0301684
1.27029
5.67226
8.33836
4.08821
2.20301
0.0220935
0.0624086
0.0220401
6.57175
0.0246645
0.0220667
0.0227919
0.0221223
0.0218229
0.0635268
8.44416
0.0217035
0.0226096
0.0218594
6.03015
0.0225258
7.98443
2.57549
0.521313
0.0220977
0.0218276
5.34666
0.371869
0.0221389
0.241783
0.0222276
0.102824
0.172824
0.0606325
0.0337486
1.00607
0.0217445
0.0216115
0.12212
3.66324
0.0258681
0.0410303
0.0218928
9.81873
0.0220081
0.0219469
0.0223975
0.0219723
8.62523
5.32889
0.198841
0.0366998
7.20984
0.21929
0.0216379
0.0251741
0.0216641
1.25176
0.021715
0.0242928
0.0219893
0.0219078
0.0216444
2.35919
0.0219245
1.67345
0.0214857
0.0331559
0.0224409
1.59814
0.0220424
0.0256107
0.0261714
0.0578402
10.3878
0.021902
4.82787
0.0525842
0.0416362
0.0217688
0.0219307
3.93922
19.2954
0.021717
0.0217372
0.136215
0.129714
0.0385807
5.3002
0.0225611
0.160534
0.0251744
0.0216804
0.317757
0.0219456
3.85444
0.022036
0.0221567
0.0221183
5.39419
4.29934
0.0216479
0.235998
0.120842
0.0220597
0.0217268
0.0218688
0.25382
5.82871
0.0494756
0.02238
0.0312517
0.0220253
0.0220281
0.0225968
0.0220008
0.10157
0.0220596
0.0387078
0.372053
0.0295149
0.0216046
0.843751
0.046671
0.0220348
0.0616503
0.025192
0.191741
0.0247948
11.4538
0.0416377
0.0219176
0.0618808
0.0606761
0.0229591
7.5753
0.0369517
0.0240762
0.199166
0.0218731
0.114179
0.0856691
0.0973694
0.0219295
0.0219331
0.0216174
0.0345241
0.0349953
0.0345322
0.342741
6.86384
2.68638
0.0222664
1.93662
4.31747
5.98233
0.02199
0.021938
0.0353851
3.86278
0.0236556
0.0265591
29.603
6.16253
10.4334
0.120637
0.0973923
3.77232
0.255043
0.0215593
7.24645
0.129777
0.0219523
0.0218453
0.0224262
9.36453
0.0668476
0.848215
0.0229577
0.519303
0.0218891
0.213318
4.24045
0.0221384
0.0262795
6.80482
0.627508
0.0414201
0.0221895
0.0233132
0.0224277
0.178969
0.0690802
0.670779
5.99994
0.0216864
6.89117
0.118233
0.17414
0.0220283
0.0221644
0.216525
0.280762
0.0219176
0.0376712
0.0747685
0.0394854
2.02005
3.68778
9.07419
6.27628
0.0247024
0.0215899
0.0688523
4.83945
1.78623
0.0217122
0.249002
0.0915268
0.493591
0.0217659
0.0222559
1.16921
0.266624
0.435851
1.6222
4.39303
0.0219467
0.254618
6.30026
0.0222341
0.0649323
0.0667659
0.0216526
0.0933209
4.61763
0.246
0.0222549
5.4318
0.0701039
26.6568
0.0214769
0.022257
0.021987
0.0219876
0.0219714
0.0435305
0.0375395
0.0405484
0.369756
0.0262041
5.62797
0.0249966
0.0238265
0.0256278
9.67602
0.0582061
7.15266
0.02594
0.0276825
23.396
0.100731
0.0220883
0.0402774
0.273326
1.50905
0.167598
0.0219095
0.0218584
0.0218486
0.196806
0.0227507
2.49404
1.32958
0.250824
0.0279816
0.150887
7.46583
0.0219749
0.692927
0.0316285
0.0513705
0.0218374
0.0216933
0.0382019
7.93786
0.0220794
6.98709
0.361543
0.0969965
0.122661
0.0217964
0.0220195
0.0250571
0.021953
24.7842
27.4188
0.0774024
0.55052
0.0218896
0.0218723
0.0219017
0.0222465
10.224
0.0221894
7.22171
0.0864264
0.0217746
0.371937
0.690973
3.94918
10.2166
0.0223403
0.0216036
0.0221298
0.0221015
0.792722
0.233831
6.51809
0.0221544
0.0218235
0.145349
0.0222603
0.136439
0.023666
0.141649
0.16159
0.0387777
0.0368165
0.0216755
0.0341721
0.03537
0.179902
0.0832704
0.0398951
0.0218574
0.193196
0.0218356
1.18796
4.10883
0.933959
0.0220496
0.107235
0.0219711
0.034262
0.022226
0.0218857
0.0281199
10.3905
3.64678
0.0805017
0.0426048
0.179549
0.0640308
3.04937
7.51689
0.0293368
7.05982
0.257581
0.0217629
0.058029
7.02055
0.100511
0.0222355
0.0402462
2.19596
0.184342
9.12899
0.0218223
0.180479
0.0221083
0.0218922
0.0285427
0.159318
0.0222639
4.45959
10.1845
0.139587
9.02052
0.358789
9.36954
0.173416
0.0216817
0.0232371
0.0215643
0.041335
0.136861
0.190084
0.0239228
0.038479
0.0215376
8.27627
0.0281099
0.0358964
3.91135
0.101199
11.8878
8.75956
0.0219217
8.62509
0.0221248
0.0280619
0.0455218
4.29341
0.0865286
0.0276872
0.0220173
0.558093
0.0289568
3.51285
8.89425
0.032726
3.56474
0.0296967
0.0222734
1.14327
0.0487623
0.0229405
11.2345
19.0869
0.0251661
0.0260578
0.0744598
7.13679
0.021925
0.0219272
0.0216446
0.0217229
0.022428
7.53324
0.0301233
5.39141
0.0219521
0.021704
0.848529
0.0218175
0.0230193
0.0220527
0.0220326
0.207175
0.0216669
6.48486
0.0216963
0.0221344
0.0371741
0.022246
0.152291
0.0216725
0.022265
0.0217063
0.0246813
0.0877497
0.0225719
4.24329
0.0218681
0.0413451
0.0250665
7.46517
0.0228661
0.0222686
0.021532
0.021626
0.204214
0.0218585
0.0217392
0.0228402
0.482242
0.0219304
0.041529
0.0309845
0.0219633
0.694387
12.2453
0.149002
0.390624
0.0226925
0.0640585
0.0221657
0.102752
0.169194
0.021806
0.207941
0.074724
0.259067
0.0294804
0.0220319
1.51539
0.0384242
0.520181
3.96629
0.0214809
0.0219623
9.34124
3.55729
0.0371163
0.0519199
0.0226632
16.0075
0.309076
0.0214787
0.021955
0.0218054
0.0221718
0.0222476
0.0220496
0.0359429
6.45341
0.0292433
0.0221901
0.49987
0.0219779
0.577469
0.0432976
0.0216495
0.0243947
0.0218867
0.269218
0.0244616
0.0533358
0.0219302
0.0219362
7.12812
7.01744
0.0221769
0.033265
0.0444368
0.0292121
0.0239336
0.0222712
0.0219009
0.832861
0.375695
0.0277406
0.286411
0.0218494
22.0294
0.0638294
0.0242352
16.4397
0.022997
4.82882
0.48412
3.85936
0.451387
6.59094
4.26504
0.021518
0.0246197
0.0249901
0.0215596
0.0216042
0.0247119
0.0759421
0.0216616
0.0289882
0.0695217
0.0700383
0.341461
0.131408
0.028653
0.928828
0.696233
0.0342026
0.0252304
0.0732435
14.6535
5.17983
0.0251401
0.0215339
0.0218108
0.0217006
0.0267732
4.68575
0.266231
0.0215672
6.94427
0.021973
0.080282
2.75316
0.0827869
0.141754
0.0935124
0.319121
0.0227812
0.0336396
0.0218332
0.213218
0.021928
0.022323
0.0262715
0.0860764
0.0221752
0.0246335
5.02206
0.0218082
0.0218212
0.0288497
9.41942
0.0760336
0.168851
0.0388225
0.0221489
3.62319
0.0374022
0.0224437
0.0220243
0.0286425
0.0247708
0.0220402
0.0235536
5.66585
0.0229665
0.0215861
0.046924
0.0218535
0.0309351
0.0300606
0.0220658
0.0219877
6.75432
0.0216741
0.0220283
0.0216192
0.0252424
0.0214478
7.16952
0.0239312
0.14049
0.0219567
0.0217157
0.0216762
7.29508
0.0392863
0.0220592
0.0215089
0.538068
0.025387
0.0435048
0.0218366
0.0916842
0.0228764
0.0215311
0.690749
0.021576
0.0222493
0.0221452
0.0217058
0.0241948
0.0221333
0.0220306
1.59622
1.57621
6.61852
0.147251
12.5169
0.0217906
9.08033
0.0219618
3.26706
12.6583
0.0217875
12.0268
0.0219741
4.37248
7.20966
0.287485
6.53695
5.18211
0.578057
0.209003
11.4159
0.961239
0.0378153
0.0286832
5.84848
0.0234321
0.0216231
0.224383
0.0227068
0.0279022
2.22078
0.0226356
0.163525
4.49912
1.34042
0.194735
0.0678437
0.0222516
0.0276173
0.0490434
0.0219481
0.80209
0.264477
0.112115
0.0218531
0.0220678
13.6764
0.0216391
0.418177
0.0217244
11.0141
8.25802
0.0355868
0.0249946
0.0219545
7.8002
1.86413
0.0247334
0.0298473
0.0222857
0.0222856
0.0362552
0.0231225
0.0324118
0.0593442
0.0237844
0.0256307
0.0220418
0.0313012
18.4689
0.021879
3.10682
0.0217675
0.24622
0.056031
0.0220345
0.719767
0.0714341
0.0218086
0.146378
0.0220479
0.166324
0.0221765
0.0220043
3.00103
0.0221449
0.0658484
0.0225228
0.0782953
0.0217369
0.0222879
0.0218397
0.02961
0.0239934
0.0222365
0.0225241
0.0256079
0.0223892
0.0702206
0.0575236
0.0240719
0.0235825
0.0215123
2.29551
0.626134
0.0227404
0.0224873
0.0226185
0.0347705
0.0220588
0.0306593
0.0215394
0.0222853
0.132927
0.0233151
0.0222847
0.0218766
7.07363
15.835
0.0215752
0.0620321
0.0614178
0.147638
0.127309
7.82847
8.16789
0.374795
0.0221391
0.077561
0.021922
0.0318795
12.63
7.29196
0.122695
0.0239864
19.7179
0.0220354
0.0397487
0.214892
0.0221683
0.076468
0.0228844
0.0227671
0.0579144
0.084634
1.54159
3.68392
0.0217528
0.0215444
6.8143
4.51678
0.0221698
0.0281366
0.068975
0.0220975
0.0220103
0.0232882
0.199757
0.0217361
6.0252
0.0288245
0.0219143
0.142416
0.0441052
0.0411477
0.0837006
5.849
0.0244201
0.0273552
0.0282067
0.0235919
12.67
0.0254656
0.535535
7.0547
0.0590828
3.5296
0.0393965
0.042774
0.262849
0.0216876
8.16225
0.0615522
0.031766
0.0285567
0.0221766
0.0215871
2.61492
0.0379186
2.66779
0.303005
0.0221171
6.3141
0.0218149
0.0219203
0.0283049
10.5372
0.0450622
0.0215238
0.953187
0.0219627
0.0233878
3.93386
0.0230009
3.77464
0.0222725
8.47187
0.29314
0.0702937
0.520275
0.0232624
3.89819
0.0215137
7.25943
6.9132
7.37964
9.91748
0.02194
0.0216835
0.170897
4.12252
3.98808
4.03096
4.08981
0.0219926
9.84339
3.84824
0.0223444
0.487952
0.0321215
0.0290741
3.10852
0.0357494
3.23344
0.0218359
0.0351568
0.0271047
0.134145
11.7795
0.034115
3.97401
1.79446
0.0221706
0.0243841
0.0233993
0.0229618
4.02306
0.0220056
0.0217289
0.0367435
4.3735
4.28075
0.0250588
4.1671
3.94264
0.0219221
11.6508
6.5104
0.096817
4.25639
0.0515518
0.0239427
0.0221718
0.116587
0.0242693
0.0596785
10.0018
6.93122
0.0279467
0.0444216
0.0258594
0.0274017
0.0216374
0.0283646
0.024713
0.0655935
1.23485
0.46835
3.91253
0.0215498