/*--------------------------------*- C++ -*----------------------------------*\
| =========                 |                                                 |
| \\      /  F ield         | OpenFOAM: The Open Source CFD Toolbox           |
|  \\    /   O peration     | Version:  v2012                                 |
|   \\  /    A nd           | Website:  www.openfoam.com                      |
|    \\/     M anipulation  |                                                 |
\*---------------------------------------------------------------------------*/
FoamFile
{
    version     2.0;
    format      ascii;
    class       volVectorField;
    location    "800";
    object      U;
}
// * * * * * * * * * * * * * * * * * * * * * * * * * * * * * * * * * * * * * //

dimensions      [0 1 -1 0 0 0 0];


internalField   nonuniform List<vector> 
13851
(
(1.00786 -0.0373416 -2.37491e-21)
(0.697458 -0.0567264 7.17371e-21)
(1.09948 -0.120739 0)
(1.00662 -0.035332 1.55231e-21)
(1.13494 -0.11297 0)
(0.990838 -0.0395903 8.6321e-22)
(1.04901 -0.00592413 0)
(1.09746 -0.0961221 -3.19775e-20)
(0.984746 -0.00536101 0)
(1.06936 -0.121435 5.51308e-21)
(0.871974 0.0527752 -6.48858e-24)
(0.417208 -0.0207715 4.34585e-21)
(0.657841 -0.0866618 5.12681e-22)
(0.0188322 0.0165651 -2.97821e-20)
(1.02741 -0.00150062 -4.28646e-21)
(1.06408 -0.0805222 0)
(1.0748 -0.0524421 6.62562e-21)
(1.02207 -0.0586596 -2.88486e-21)
(0.867343 -0.114608 -5.10222e-20)
(0.985076 -0.00535891 -2.84681e-22)
(1.00698 -0.0348258 0)
(1.10303 -0.119527 -1.00965e-20)
(0.99552 0.00109611 1.1377e-22)
(0.98447 -0.000236189 -1.86107e-21)
(0.995016 0.000602097 0)
(1.0949 -0.097418 1.53933e-20)
(1.09191 -0.0351387 0)
(0.0027508 -0.0512858 4.2152e-20)
(1.00884 -0.037178 4.35273e-21)
(1.03549 -0.0525557 -3.50665e-21)
(0.989408 -0.0390808 -8.78416e-22)
(1.07613 -0.0543505 0)
(1.09692 -0.119122 0)
(0.919236 -0.016752 0)
(0.984247 -0.000396422 1.94123e-21)
(1.14622 -0.101558 -1.02711e-19)
(0.747068 -0.0830712 4.97952e-20)
(1.06831 -0.144317 1.7045e-20)
(1.069 -0.123945 0)
(0.926781 -0.00982628 3.11872e-23)
(1.01059 -0.0215164 8.48091e-22)
(1.01774 0.0134936 0)
(0.00620744 0.0749676 -3.06623e-20)
(0.915265 0.0667441 -3.99222e-22)
(0.944892 0.0724934 1.14901e-22)
(0.0443999 0.017625 1.54918e-21)
(0.998411 0.0805815 1.03018e-21)
(0.991724 -0.0273571 4.93498e-22)
(1.09402 -0.0359746 0)
(0.972252 -0.0117717 6.76945e-22)
(1.15972 -0.0958713 0)
(1.16758 -0.12066 -6.80032e-22)
(-0.0176105 0.0054599 -1.38412e-20)
(1.02669 -0.00123383 -9.48738e-21)
(1.00724 -0.00181547 0)
(1.01877 0.0141335 -1.76877e-22)
(0.982667 0.000480712 1.85698e-22)
(-0.0385263 -0.0071643 0)
(1.03468 -0.0511002 0)
(1.05062 -0.0112575 1.36188e-20)
(1.05748 -0.143971 0)
(0.260553 -0.0398297 -5.49867e-21)
(1.00771 -0.0633175 -1.16767e-21)
(1.14161 -0.117694 0)
(1.01424 -0.0984624 0)
(1.00505 -0.0392075 0)
(0.681154 -0.0791524 0)
(1.02131 0.0777487 -7.5615e-22)
(1.12453 -0.0622823 -5.81479e-22)
(1.02087 -0.0578554 0)
(-0.0358914 0.00473865 -1.13281e-19)
(0.560941 -0.0725802 -3.06544e-20)
(0.62676 -0.0438151 -4.09427e-22)
(1.02685 -0.00125984 0)
(1.00627 -0.00334785 2.12005e-21)
(0.984367 -0.00794469 0)
(1.10416 -0.117357 1.49409e-20)
(0.0884986 0.00686347 0)
(1.1234 -0.0890963 0)
(-0.0553685 0.00420977 -1.10484e-20)
(1.05686 -0.0193441 7.31589e-21)
(0.931143 0.0335031 -4.66338e-22)
(1.02952 -0.0118427 1.31826e-20)
(0.0434644 0.0267819 -4.15704e-20)
(1.0082 -0.0649249 0)
(0.470074 -0.0363381 -6.09558e-21)
(0.992301 -0.0364727 3.82263e-22)
(0.879127 -0.101766 1.35757e-22)
(1.08858 -0.0487414 0)
(0.978005 0.0113768 2.72649e-23)
(1.16602 -0.102183 8.70554e-20)
(0.990834 -0.0253632 2.78043e-22)
(1.01768 0.0703604 -1.08822e-21)
(1.09876 -0.0561434 0)
(1.08922 -0.0468628 0)
(0.98262 0.000249777 0)
(1.13779 -0.1138 5.46236e-21)
(0.307924 -0.0240481 1.06519e-20)
(0.971936 -0.0118226 -6.29868e-22)
(0.983876 9.87674e-05 -4.97183e-23)
(-0.0519284 0.00270491 0)
(1.1377 -0.0856366 0)
(1.01754 -0.0359316 0)
(1.10125 -0.0176769 0)
(1.0125 0.000908542 -1.95575e-23)
(0.991108 -0.0335948 1.88713e-22)
(1.14554 -0.0880855 -1.44628e-21)
(1.02076 0.00963714 4.76776e-23)
(0.431354 -0.0601759 3.47799e-20)
(0.991291 -0.0409948 9.8358e-22)
(0.983882 -6.9551e-05 4.61929e-22)
(0.97731 0.011265 0)
(0.991043 -0.0252157 -3.52661e-22)
(0.991519 -9.19096e-05 0)
(0.982932 -0.000112729 -1.08334e-21)
(0.78587 -0.0493464 -1.46461e-21)
(0.338874 -0.0318514 -8.52727e-21)
(1.01535 0.00760571 6.36616e-23)
(0.992079 -0.000686647 1.95905e-23)
(1.00395 -0.00130159 -9.94007e-21)
(0.00106156 0.0786897 0)
(1.09942 -0.0188662 0)
(0.626171 -0.0836528 6.63424e-21)
(0.787011 -0.042912 1.38037e-21)
(0.999834 -0.0291209 -5.32708e-22)
(0.996408 0.0394489 0)
(1.00119 -0.0327417 4.43662e-22)
(1.13023 -0.0878003 0)
(1.0061 -0.0335773 -1.71237e-21)
(1.14151 -0.134293 -2.9878e-20)
(1.01048 -0.020788 -3.85287e-21)
(0.990656 -0.00499611 -2.01874e-21)
(-0.0215213 0.00155007 8.29258e-20)
(1.02964 -0.0111082 -8.35034e-21)
(0.770227 -0.0514625 3.26293e-21)
(0.991376 -0.00190314 0)
(1.0151 0.00691472 -2.39663e-22)
(0.582559 -0.0753093 6.0699e-20)
(-0.0260599 -0.0186079 -7.46758e-21)
(0.217006 0.076887 -1.10163e-20)
(-0.0649759 0.000592684 -1.07718e-20)
(1.00636 -0.0016601 0)
(0.983639 -0.0142651 0)
(1.0132 0.0256401 6.72382e-23)
(1.0576 -0.0452754 -4.26332e-21)
(0.914916 0.0651409 1.02999e-21)
(1.03877 0.0236649 -7.52275e-23)
(1.13939 -0.136124 3.49531e-20)
(1.04764 -0.00591749 0)
(0.945158 0.0693938 -1.14315e-22)
(1.1881 -0.0741121 -2.56639e-20)
(1.00327 -0.00160035 -1.05764e-21)
(0.0266499 0.0209086 9.68233e-23)
(0.982687 0.000494156 -6.03968e-22)
(1.07158 -0.0341055 1.63139e-20)
(1.05588 -0.0450621 0)
(0.995361 -0.0129281 0)
(1.03833 -0.0466685 6.83647e-21)
(1.16539 -0.122422 -4.64089e-20)
(1.15693 -0.0960418 0)
(1.03324 0.0159697 -4.69063e-25)
(1.11121 -0.0466781 -1.20005e-20)
(-0.0356929 -0.00656663 0)
(0.990204 -0.00476606 1.57735e-23)
(1.0411 -0.066297 3.50743e-21)
(1.01421 0.0199469 0)
(1.03262 0.0228965 1.39684e-22)
(1.12732 -0.0620707 2.57381e-20)
(1.00634 -0.0328593 0)
(0.19456 -0.0017351 2.87604e-21)
(0.0750474 0.00895503 -7.50818e-21)
(0.982916 -0.000723217 0)
(0.995913 -0.0133069 0)
(0.167802 0.0650723 0)
(0.9901 -0.00433024 -2.14072e-21)
(0.983631 -0.0222583 4.52798e-22)
(1.12761 -0.0871678 0)
(0.985549 -0.0152619 -7.60238e-22)
(0.828107 -0.109306 2.73703e-20)
(1.02296 0.0114033 -4.47638e-23)
(1.07645 -0.0581156 -1.64811e-20)
(0.535864 -0.0704974 5.71629e-22)
(1.02966 -0.00954598 6.32311e-21)
(1.10543 -0.122098 -1.07311e-20)
(1.02397 0.00358336 5.94971e-25)
(0.987335 0.000858483 0)
(1.00582 -0.0401343 -1.09289e-21)
(1.00587 -0.00205972 2.46967e-21)
(1.13216 -0.120697 2.04518e-20)
(1.04749 -0.111314 0)
(0.997173 0.0763209 -3.7445e-23)
(-0.023469 0.00371883 1.20213e-20)
(0.976035 0.0121195 0)
(1.1175 -0.0676593 2.57302e-20)
(0.292004 -0.0459801 0)
(1.06825 -0.033931 -2.44384e-20)
(0.983728 -0.0137473 0)
(0.919012 -0.00158789 -2.97345e-22)
(0.985269 -0.0148281 0)
(0.9846 -0.0082991 0)
(0.995211 0.0391162 7.36288e-22)
(0.101163 -0.00190619 0)
(0.994068 -0.000321895 2.97673e-21)
(1.02049 -0.0146181 0)
(1.05671 -0.109111 -8.60464e-22)
(1.03052 -0.0100447 3.21642e-21)
(0.206642 -0.0421533 1.71845e-20)
(1.07966 -0.0513356 1.56209e-20)
(0.0968084 -0.00913253 4.21859e-20)
(1.02819 0.0132587 1.22848e-23)
(0.306302 -0.0457104 3.17782e-20)
(1.01737 -0.0347812 0)
(0.825562 -0.00909823 0)
(1.0239 0.00955424 3.43985e-23)
(1.01551 0.0234796 0)
(0.861272 0.0380299 1.22205e-22)
(1.01091 -0.0667608 -1.61978e-21)
(0.0175289 0.0207768 -2.78526e-20)
(1.02734 -0.00351873 0)
(0.110599 -0.0114846 -4.10261e-20)
(1.07979 -0.0528738 -9.84444e-21)
(1.05864 -0.0198633 -8.59666e-21)
(0.371736 -0.0457975 0)
(1.15384 -0.126455 -4.37327e-22)
(0.214323 -0.0348918 -3.21637e-20)
(0.990273 0.000511601 -5.66564e-24)
(1.10297 -0.0625883 -7.8076e-21)
(1.00962 0.000522694 0)
(-0.0409726 0.0252522 0)
(1.0249 0.0100683 0)
(1.09209 -0.096205 -1.21784e-20)
(1.00574 -0.0842235 0)
(0.982969 -0.000591788 8.38428e-22)
(0.976747 0.0123261 0)
(1.16001 -0.0875518 -7.98931e-21)
(1.02235 -0.0743558 5.99101e-23)
(0.25116 -0.0464619 0)
(1.01145 -0.100032 0)
(1.01448 0.0254444 -6.18416e-23)
(1.02128 -0.0148646 0)
(0.989205 -0.0376124 3.71839e-22)
(0.971704 -0.0167873 -4.86701e-23)
(1.0393 0.0211221 -3.87058e-23)
(1.05621 -0.111332 9.59168e-22)
(1.01539 0.00149927 4.25559e-23)
(0.175536 -0.027004 -6.77319e-20)
(1.13674 -0.0881328 0)
(0.848787 -0.0201968 2.62411e-22)
(1.05368 -0.0466539 -1.48974e-20)
(1.06271 -0.0605996 -2.38962e-21)
(0.987465 -0.0204634 0)
(0.97123 -0.0190986 2.13525e-22)
(1.04677 -0.0294705 0)
(1.05545 -0.0469176 8.02779e-21)
(1.15409 -0.0764349 0)
(0.997335 -0.0584246 1.76368e-21)
(1.0461 -0.108959 6.79332e-22)
(0.559823 -0.0734005 -3.14463e-20)
(0.0691494 0.0197691 -6.5955e-20)
(1.03311 -0.00389421 6.45977e-21)
(1.01442 0.0238125 0)
(1.01984 -0.0548824 -1.20423e-21)
(0.982254 -0.0452596 -9.66299e-22)
(0.998529 0.0290467 0)
(0.739775 -0.10355 4.79923e-21)
(1.06714 -0.0345837 0)
(1.04674 -0.0282837 -7.582e-21)
(1.09801 -0.054579 0)
(0.406904 -0.0510449 0)
(0.9635 0.0170188 0)
(0.98719 -0.0201896 4.34602e-22)
(1.07034 -0.0350456 2.68814e-20)
(0.986157 -0.0433172 6.57858e-22)
(1.12225 -0.086272 -2.98258e-20)
(1.06208 -0.0791591 6.89082e-21)
(0.990749 -0.00544364 -3.25854e-21)
(0.947381 0.0363363 5.975e-22)
(0.946422 0.0427052 3.77663e-22)
(0.206681 -0.0362225 -2.03818e-20)
(0.87209 0.0479091 -2.05257e-22)
(1.0402 0.021234 5.13081e-23)
(1.0283 0.0118399 -3.6528e-23)
(1.01402 0.000940189 8.35308e-24)
(1.15261 -0.0744125 0)
(0.97957 -0.0444354 1.63999e-21)
(0.946473 -0.0141631 0)
(0.98521 -0.00710053 -1.19249e-21)
(1.02966 -0.00108226 -1.19835e-20)
(0.985149 -0.0424009 7.02039e-22)
(0.897973 0.0334332 0)
(1.13913 -0.139031 -1.4388e-20)
(1.03572 -0.0497259 0)
(1.05112 -0.0121911 -1.69373e-20)
(1.12466 -0.0694966 -2.66139e-20)
(0.894494 0.0318211 0)
(0.761243 -0.10602 0)
(1.0454 -0.0650848 9.26759e-22)
(0.480902 -0.032881 -3.2567e-21)
(0.991145 -0.00613034 0)
(0.193395 -0.0297005 4.30969e-20)
(1.11017 -0.0453603 1.26999e-20)
(1.0725 -0.0526998 -1.44261e-20)
(0.220488 -0.0381998 1.94991e-20)
(1.02307 -0.029124 -3.07355e-21)
(0.991107 -0.0347272 -1.89727e-22)
(0.276677 -0.0343594 -7.00258e-21)
(0.985299 -0.00679194 0)
(1.14335 -0.0703932 -4.67996e-20)
(1.09725 -0.0578202 1.30937e-20)
(1.03484 -0.0483291 0)
(0.00227318 -0.0242474 6.62368e-21)
(1.04479 -0.0660267 -3.81606e-21)
(1.04313 -0.029659 -1.35898e-20)
(0.357169 -0.0393612 5.58672e-20)
(1.01642 0.0153915 0)
(1.06423 -0.0619414 0)
(0.992956 0.0404546 -6.80946e-24)
(0.240299 -0.0403149 0)
(1.19584 -0.0953616 -5.39927e-22)
(1.02781 -0.00390312 1.17389e-20)
(1.14479 -0.0830888 3.44583e-20)
(1.02907 -0.00274949 0)
(0.100338 0.0165075 6.58012e-20)
(0.987249 -0.0214403 1.17268e-21)
(0.992774 0.00116656 0)
(0.994703 -0.0162902 0)
(1.19367 -0.0958522 -6.66198e-22)
(1.10174 -0.060188 2.35212e-20)
(1.07297 -0.031541 -1.67792e-20)
(1.02946 -0.000816348 1.77702e-20)
(1.02333 -0.0286148 2.95329e-21)
(1.04177 -0.0294188 1.17684e-20)
(0.891709 0.0584463 1.39076e-22)
(0.17412 0.0406795 0)
(0.22405 -0.013248 0)
(1.01398 -0.0567502 0)
(0.252847 -0.0419654 0)
(0.562826 -0.0892064 -2.05715e-20)
(1.02708 -0.00149874 4.84414e-21)
(1.11687 -0.0701437 -5.26007e-20)
(1.13385 -0.140916 0)
(0.991259 -0.026203 -1.31302e-22)
(1.01743 -0.0778329 0)
(1.16668 -0.114762 0)
(0.839781 -0.113166 1.77773e-20)
(0.990775 -0.022157 8.79413e-22)
(0.940953 -0.050224 -1.3558e-21)
(0.241533 -0.0325885 -4.34094e-21)
(1.02752 -0.00118356 0)
(0.955045 0.0493948 0)
(0.949489 0.0496365 -2.38719e-22)
(0.939642 -0.136603 -7.05821e-22)
(1.07371 -0.0305387 -8.61437e-21)
(1.01607 -0.0787208 0)
(-0.045314 0.0214194 0)
(0.996057 -0.0139145 3.06392e-21)
(0.909305 -0.0520521 1.15187e-21)
(0.994356 -0.016041 -1.30438e-21)
(1.02888 -0.00252151 2.6428e-21)
(1.01747 0.00190476 0)
(1.02165 0.0100486 -1.64305e-22)
(0.995609 -0.0115677 4.4161e-21)
(0.269822 -0.0372814 2.13034e-20)
(0.861438 -0.00367669 3.19823e-22)
(1.02518 -0.0193476 6.68309e-21)
(1.14181 -0.0679159 3.76469e-20)
(1.01787 0.018123 -2.28397e-22)
(0.452477 -0.0262537 0)
(1.05545 -0.087592 1.84408e-21)
(0.800061 -0.0033903 1.76735e-22)
(0.215365 -0.00698354 0)
(1.02491 -0.0200952 -1.02772e-20)
(1.01033 -0.0675868 1.90528e-21)
(1.09346 -0.0604155 0)
(0.850518 -0.00783537 5.95085e-22)
(1.00852 -0.0188462 -5.36542e-21)
(1.01476 0.00817845 7.26111e-24)
(0.989301 -0.0227662 -2.40036e-22)
(-0.00673351 0.00656937 2.72101e-22)
(1.00576 -0.00265859 1.98701e-21)
(0.0319262 -0.0272017 -1.11902e-20)
(0.991058 -0.0259788 -4.91244e-22)
(1.16757 -0.116752 0)
(0.15958 0.0043167 -2.76817e-21)
(0.880551 0.0442042 0)
(0.887571 0.0431101 0)
(0.986171 -0.0183032 0)
(0.993255 -0.00578061 -1.42642e-21)
(1.02684 -0.000687282 -1.43986e-20)
(1.01444 -0.0552844 -7.45521e-22)
(1.14652 -0.0812782 0)
(0.0691248 0.0233469 2.21026e-20)
(1.13063 -0.0592362 0)
(0.245873 -0.0391228 -4.26177e-21)
(0.267431 -0.0349768 1.50432e-20)
(1.0169 0.0183046 5.69197e-23)
(1.03393 -0.0039954 8.27487e-21)
(0.202133 -0.00756331 0)
(-0.0276429 0.00430855 0)
(1.00585 -0.0820326 -1.79883e-21)
(0.354169 -0.0354955 0)
(0.98892 -0.0229192 -1.87527e-22)
(1.09511 -0.0623607 0)
(0.984694 0.000378384 2.91497e-23)
(0.623919 -0.0969152 -1.85434e-20)
(0.983246 -0.00261959 0)
(1.06611 -0.0796491 7.43326e-21)
(0.986323 -0.0180706 -6.1303e-22)
(1.04437 -0.00880523 -5.58921e-21)
(1.0115 0.00055553 0)
(0.984987 -0.00640349 0)
(1.01514 0.0197073 -1.83937e-22)
(1.14335 -0.115625 0)
(1.02281 -0.0805119 6.13399e-23)
(0.13121 0.0150606 4.3335e-20)
(1.01818 -0.0568209 -1.21858e-22)
(1.14668 -0.0857584 -1.28008e-20)
(0.998039 -0.0405587 7.33209e-23)
(0.968096 -0.0192522 0)
(1.06082 -0.0644636 0)
(0.90834 -0.132572 -6.9142e-21)
(1.07103 -0.0512315 2.10624e-20)
(0.861866 0.0354404 0)
(1.01593 0.00654003 0)
(0.985044 -0.00607954 -1.29019e-21)
(0.987516 0.000568161 0)
(0.960913 -0.138245 1.7939e-20)
(0.835707 -0.0117183 -1.02724e-21)
(1.14772 -0.127916 0)
(0.998821 -0.0409097 -1.1245e-22)
(0.109065 0.018573 -4.7916e-20)
(0.930394 -0.0210233 0)
(0.992129 -0.0352811 -1.43582e-22)
(1.0027 -0.00112396 2.14562e-21)
(1.16273 -0.0869122 2.07179e-20)
(1.00839 -0.0180764 2.93325e-21)
(0.966525 -0.0217872 -4.00774e-22)
(1.01019 0.00110225 -1.18613e-25)
(0.811247 -0.115989 7.76018e-21)
(0.941522 -0.0352264 -8.29709e-23)
(1.09171 -0.115738 -1.48078e-20)
(0.0966821 -0.00532451 3.09539e-20)
(0.984797 -0.0149331 0)
(0.934759 0.0519142 0)
(0.926332 -0.0353881 -3.95854e-22)
(0.0994505 0.0222982 1.04889e-20)
(1.02389 0.00419105 5.66465e-24)
(1.09787 -0.066357 0)
(1.126 -0.0895316 -2.69971e-22)
(0.962097 0.0176746 0)
(0.983397 -0.00190404 -1.28735e-22)
(1.04031 -0.0304038 5.66359e-21)
(1.18596 -0.07181 9.88089e-20)
(1.16336 -0.118991 4.93947e-20)
(1.01698 -0.0612815 -6.95941e-22)
(0.32029 0.0462191 1.10792e-20)
(0.989344 0.000695241 3.75377e-23)
(0.994841 -0.0170377 0)
(-0.00524734 0.0611016 3.11974e-23)
(1.03964 -0.067361 0)
(1.02779 0.011143 0)
(0.792278 -0.0859106 -8.98852e-21)
(0.992893 -0.00551918 -1.42303e-21)
(1.00717 -0.0367617 -2.24432e-22)
(0.984392 -0.0033578 -1.23644e-21)
(1.03652 -0.0823257 1.18373e-21)
(1.03511 -0.0433628 4.46902e-21)
(1.02767 0.0124754 4.14801e-23)
(0.984469 -0.0145477 5.29022e-22)
(0.384594 -0.0450462 -3.73962e-20)
(1.03027 -0.0125922 5.07812e-21)
(1.13218 -0.0643269 -3.18777e-20)
(0.991954 -0.00219777 5.73075e-22)
(0.994227 -0.0299972 2.13006e-22)
(0.88667 0.0368394 4.41961e-22)
(0.992172 -7.69419e-05 0)
(1.00494 -0.0200024 -2.43628e-21)
(0.987171 -0.000118996 -2.79333e-22)
(0.987099 -1.68773e-05 5.03732e-22)
(0.991184 -0.0178092 -2.10387e-23)
(1.04805 -0.0268562 -3.5412e-21)
(0.991448 -0.037303 0)
(1.0297 -0.00880439 0)
(0.984146 0.000478965 9.02157e-23)
(-0.0794976 0.00139021 -2.12828e-20)
(0.0831126 -0.00311466 -3.54558e-21)
(1.0323 -0.0103582 -7.51763e-21)
(0.993725 -0.0298152 1.31143e-22)
(1.06289 -0.0650278 2.55327e-21)
(0.974023 -0.0159094 -3.73008e-22)
(0.0363734 0.0256119 0)
(0.995272 -0.0173053 0)
(0.859176 -0.000811543 -4.71135e-22)
(1.00945 -0.0193997 0)
(1.1256 -0.116407 3.5006e-20)
(1.04653 -0.0111584 -6.40618e-21)
(-0.0497099 0.035536 -2.01121e-20)
(1.01676 0.00469584 7.1053e-23)
(-0.0154478 0.0132777 1.57467e-20)
(1.04216 -0.106798 3.39935e-22)
(1.01699 0.0139311 1.14268e-22)
(0.993419 -0.0289437 -2.98143e-22)
(0.2362 -0.0074791 1.08785e-20)
(1.09021 -0.097905 5.64467e-22)
(0.931949 -0.0095129 7.56796e-22)
(0.992592 -0.000935782 0)
(0.928014 -0.0555293 -1.08787e-22)
(1.0069 -0.00135934 -4.80594e-21)
(0.988291 -0.00368483 9.49886e-22)
(0.990373 -0.00605016 0)
(1.04482 -0.00562015 -1.14353e-20)
(-0.0057051 -0.000651701 -3.73916e-20)
(1.15221 -0.0932485 2.42015e-20)
(1.17991 -0.112453 0)
(0.832706 -0.105056 9.52882e-21)
(1.0098 -0.065267 3.55066e-22)
(1.03351 0.0168272 -6.11039e-24)
(0.55294 -0.0755677 -5.33367e-20)
(0.873818 -0.0196272 2.4003e-21)
(1.07875 -0.0580629 0)
(1.11022 -0.0485229 0)
(0.972855 -0.0144364 -4.45133e-22)
(0.846909 -0.0507913 -2.49515e-22)
(0.341975 -0.0502072 -2.84143e-20)
(1.02432 -0.00084094 -9.6846e-21)
(-0.0534374 0.032763 4.17134e-20)
(0.0553391 0.0191298 0)
(0.0695282 0.00231561 2.18722e-20)
(1.04315 -0.0671642 6.15739e-21)
(0.992962 -0.0287882 1.9043e-22)
(0.789785 -0.0199315 -9.42879e-22)
(0.931712 0.0468585 -8.27182e-22)
(0.996905 -0.0572765 -1.31711e-21)
(0.888453 -0.00348781 -2.97446e-22)
(0.66763 -0.0973948 -2.11528e-21)
(1.03747 -0.0477521 -2.57314e-21)
(0.633955 -0.0940724 0)
(0.558898 -0.0736053 -2.64742e-20)
(1.01683 0.00543591 -6.54012e-23)
(0.949739 0.0460533 4.84952e-22)
(1.15515 -0.0931313 2.90562e-20)
(0.0613655 0.00288133 0)
(1.05299 -0.048234 7.5666e-21)
(1.02131 -0.00996983 9.46832e-21)
(0.995253 -0.0123743 -1.41153e-21)
(1.01538 -0.0187978 2.38858e-21)
(1.13404 -0.118428 -2.09067e-20)
(1.02757 -0.0758449 4.00485e-23)
(0.939565 -0.110443 0)
(0.326936 0.0386848 -1.15483e-20)
(0.987479 -0.00150511 -1.69185e-21)
(-0.00173781 0.0656301 6.26977e-20)
(0.130626 -0.00408299 -2.12443e-20)
(0.988558 -0.0325592 -2.52456e-22)
(0.887195 -0.0267542 -1.09553e-21)
(1.12943 -0.0645525 8.92658e-22)
(1.02678 0.00963562 -1.27589e-23)
(0.984731 -0.00573682 1.22107e-21)
(0.946938 0.0231605 0)
(0.514798 -0.0670832 5.52918e-20)
(1.07339 -0.0347601 0)
(1.18879 -0.0867496 0)
(1.1524 -0.107531 4.69104e-20)
(1.01952 0.0137284 8.8471e-23)
(0.996502 -0.0412777 -1.2467e-22)
(0.940131 -0.0514077 6.74922e-22)
(1.02125 -0.143238 -1.48586e-20)
(1.15991 -0.117788 0)
(0.0034719 -0.00219512 3.7462e-20)
(0.550295 -0.0721213 2.9743e-20)
(1.00955 -0.0201897 0)
(1.0452 -0.00820388 5.84857e-21)
(0.538879 -0.0334384 6.12952e-21)
(0.258796 -0.0328847 2.56612e-22)
(1.19154 -0.102785 0)
(1.13194 -0.0570636 -1.63327e-20)
(1.00617 -0.0629114 3.27157e-21)
(1.02197 0.0109767 6.55341e-23)
(1.01147 -0.0115424 -8.29027e-21)
(0.76898 -0.111953 -3.61811e-21)
(1.01921 0.0126129 -2.31163e-22)
(1.05124 -0.047886 -1.45696e-20)
(1.02357 0.0109183 -7.69147e-23)
(0.995019 -0.00418723 -1.55964e-21)
(0.537345 -0.0726094 0)
(1.13863 -0.11701 -6.32557e-21)
(0.99947 -0.0398387 -1.35486e-22)
(1.01992 0.0123215 7.8955e-23)
(0.0721978 -0.0327779 1.30224e-20)
(0.927948 -0.00236533 -1.30603e-21)
(0.99223 -0.00648505 1.25014e-21)
(0.983899 0.000857012 -6.44136e-23)
(0.997138 0.0289406 -3.54434e-22)
(1.02721 -0.0009271 9.58439e-21)
(-0.0148081 0.00554578 -7.96068e-20)
(0.850907 -0.0136371 9.01635e-22)
(0.825214 -0.0146545 -1.02809e-21)
(0.0482642 0.000452187 -1.99158e-20)
(0.891347 -0.0574861 -2.92077e-22)
(1.12899 -0.0537325 0)
(0.0445527 0.00609973 -3.54798e-20)
(0.0772085 -0.00523707 0)
(0.990773 -0.0225785 -3.63161e-22)
(1.12366 -0.064695 -2.6849e-20)
(1.0274 0.00971869 2.43593e-23)
(0.994446 0.0409967 -3.58144e-22)
(1.07229 -0.0834716 -7.4535e-21)
(0.443829 -0.0546168 4.57892e-22)
(0.964921 -0.046715 0)
(1.18627 -0.0871323 -3.4282e-20)
(1.08684 -0.0667357 1.22212e-20)
(0.984805 -0.00469815 1.88567e-21)
(1.05833 -0.0796008 1.6529e-20)
(0.981502 -0.012644 1.43244e-21)
(0.912982 -0.0159152 -1.60567e-21)
(1.15126 -0.100799 -3.22801e-20)
(1.02892 -0.00829771 0)
(1.01486 -0.0582077 6.64843e-22)
(0.98356 -0.0019339 0)
(1.10019 -0.0513745 2.72339e-20)
(1.14697 -0.130404 0)
(1.04906 -0.0109955 -1.25255e-20)
(1.00751 -0.0175961 4.46044e-21)
(1.05772 -0.0886509 -6.28872e-21)
(1.04402 -0.0180015 -1.7777e-20)
(1.1332 -0.11528 -1.40752e-21)
(1.00461 -0.141568 -2.6735e-22)
(1.15196 -0.124682 -2.36687e-20)
(1.05434 -0.0799708 -6.96886e-21)
(1.19551 -0.102729 -3.74784e-20)
(0.984842 -0.00442629 1.96199e-21)
(1.0072 -0.078783 2.69725e-21)
(0.987554 -0.0210917 0)
(0.0222276 0.00589772 0)
(1.01829 -0.0343354 0)
(0.982415 0.00016798 8.79133e-22)
(0.463338 -0.0626551 0)
(1.02548 -0.0470909 -4.79361e-21)
(0.145136 0.0085474 0)
(0.21067 -0.0293069 -5.65032e-20)
(-0.0163002 0.0281216 -8.75718e-22)
(0.772607 -0.0827587 1.13609e-20)
(0.983446 -0.00265425 5.87214e-22)
(0.524922 -0.069253 0)
(1.04109 0.0218644 0)
(0.994268 -0.00479135 -1.40792e-21)
(1.01757 0.00438631 5.11849e-23)
(0.995109 -0.00469398 2.98251e-21)
(1.04518 0.0244036 0)
(1.01672 -0.0567694 1.53489e-22)
(1.03654 -0.080147 2.47784e-21)
(1.0197 0.0113124 0)
(0.543311 -0.0907883 8.99302e-22)
(1.04349 -0.109074 -7.98991e-22)
(0.503422 -0.0837668 0)
(0.993364 -0.0108881 1.33341e-21)
(1.01937 0.00354068 -1.04758e-22)
(0.997261 0.0018925 -2.34061e-24)
(1.13833 -0.141245 -5.85941e-21)
(0.30484 -0.0520248 7.26314e-22)
(1.16385 -0.0699668 -5.08838e-20)
(1.10027 -0.0528015 -4.56803e-20)
(1.04114 0.0223432 0)
(0.983808 0.00040688 0)
(0.986786 -0.000904728 8.5683e-22)
(0.994707 -0.0138237 0)
(0.883736 -0.101866 1.09532e-20)
(0.178901 0.0611018 -4.31334e-21)
(1.0429 -0.0174398 3.59149e-21)
(1.02037 0.0110139 0)
(1.04545 -0.00491034 0)
(0.995081 -0.0136979 0)
(0.946464 -0.130669 0)
(-0.0279147 -0.00539693 4.32772e-20)
(1.06035 -0.080651 -1.91383e-20)
(0.288384 -0.0198825 -8.21554e-21)
(0.917624 -0.0575578 -3.02061e-22)
(1.00739 -0.0168419 -1.40709e-21)
(1.17655 -0.112269 -5.00757e-20)
(0.0611277 0.0179934 0)
(1.12564 -0.0670953 2.65141e-20)
(0.407077 -0.0245789 -6.53887e-21)
(1.05562 -0.020057 7.18536e-21)
(1.02097 -0.0560069 0)
(1.16133 -0.0699593 7.89177e-20)
(1.01851 -0.055043 -9.23091e-22)
(0.857991 -0.00436633 4.48076e-22)
(1.03142 -0.00985022 -3.40624e-21)
(0.802531 -0.0297331 -1.00488e-21)
(1.01031 0.000897922 6.39334e-23)
(1.13694 -0.0354122 0)
(0.116298 -0.00976674 -2.82398e-20)
(0.982624 -0.0076763 -5.47562e-22)
(1.02219 -0.0426024 -2.61756e-21)
(1.00561 -0.0613934 0)
(0.988366 -0.00406429 -4.44685e-23)
(1.07514 -0.0562643 0)
(0.983249 -0.0427682 -7.29149e-22)
(0.132837 0.0459967 1.49921e-20)
(1.14842 -0.100808 3.09298e-20)
(0.79144 -0.110013 0)
(0.861439 0.0416896 -7.97323e-22)
(1.02321 0.00999952 -3.89066e-23)
(0.993293 -0.0103412 -1.29307e-21)
(-0.0909069 5.92757e-05 4.44852e-21)
(1.17696 -0.103815 -6.50336e-20)
(1.02186 -0.0764245 2.37763e-23)
(0.229021 -0.0319708 1.86283e-20)
(0.981755 -0.002464 7.05313e-22)
(1.02411 -0.000132665 0)
(1.01592 0.00575201 -1.84581e-22)
(0.899237 -0.0507633 -1.18579e-21)
(0.690236 -0.0839233 -8.16892e-20)
(1.04457 -0.0602295 5.72359e-21)
(1.00932 -0.0294005 -2.92335e-21)
(0.885686 0.0344443 0)
(1.08828 -0.0399346 -9.59496e-21)
(0.997946 0.00211572 -1.52083e-22)
(0.0156755 0.0571131 2.91469e-20)
(0.996819 -0.0592329 -2.38022e-21)
(0.197848 -0.0126925 -3.73426e-20)
(1.01727 0.0150311 3.02118e-22)
(1.04299 -0.0164335 6.6306e-21)
(0.0615462 0.00640616 -3.35573e-20)
(-0.00998849 -0.0336144 0)
(1.20042 -0.103504 5.6524e-21)
(0.981683 -0.0121473 -5.04171e-22)
(0.433162 -0.0616606 7.18086e-20)
(1.03058 -0.0109637 -8.72178e-21)
(0.869645 0.0337072 0)
(1.10012 -0.141446 -2.42622e-20)
(1.09143 -0.118856 0)
(1.06238 -0.056962 0)
(0.00288004 0.0265084 -2.6583e-20)
(0.9866 -0.0190204 9.44034e-22)
(0.978754 -0.0114968 4.05465e-22)
(0.785357 -0.0870127 -1.35079e-21)
(0.982602 0.000171808 -2.94096e-22)
(0.996223 -0.000188515 0)
(1.03586 -0.0447697 -4.51809e-21)
(0.984575 -0.00414169 -6.9648e-22)
(0.0136091 0.0538536 -1.91021e-20)
(1.07712 -0.0777997 1.6426e-20)
(1.16241 -0.117729 0)
(1.00024 -0.0402559 1.56909e-22)
(0.925489 0.0396623 -2.60512e-22)
(0.985096 -0.00503392 1.02864e-21)
(0.98339 -0.0443166 0)
(0.987896 -0.000651794 -1.29182e-21)
(0.986349 -0.0188341 -7.64697e-22)
(1.01708 0.00364827 -6.76951e-23)
(1.00644 -0.0156851 2.86042e-21)
(1.00057 -0.00217027 -3.87064e-21)
(0.264215 -0.0317798 2.10328e-21)
(0.995694 -0.0121501 -2.98845e-21)
(1.01332 0.0100671 1.73692e-23)
(0.993441 -0.0293342 0)
(1.04665 -0.00842535 -5.95958e-21)
(0.0803309 0.00235078 0)
(1.00497 0.000741236 3.20203e-22)
(0.982792 -0.0134463 1.05278e-21)
(1.16926 -0.0866381 5.50472e-20)
(0.906063 -0.12421 0)
(0.887476 -0.00228192 5.72966e-22)
(0.985998 -0.00102388 -2.20524e-21)
(0.988183 -0.042529 -7.47454e-22)
(0.315353 -0.0271895 -1.71401e-20)
(1.0481 -0.0280263 0)
(0.34897 -0.0472088 4.08633e-22)
(1.13465 -0.0356669 0)
(0.984363 -0.00361957 0)
(0.974829 -0.013163 -1.14603e-23)
(0.00908112 0.0697851 6.6651e-20)
(0.988918 -0.0415248 0)
(1.05767 -0.0619311 2.92438e-22)
(0.987506 -0.00129658 8.7404e-22)
(1.02013 0.010032 5.8865e-23)
(0.921024 -0.0323019 3.90671e-22)
(1.08822 -0.12325 -1.50881e-20)
(1.03682 -0.0941102 0)
(1.04419 -0.0636731 1.23714e-21)
(0.974524 -0.0128443 0)
(1.02559 -0.000956887 1.09696e-20)
(0.982415 -0.0130151 -5.23033e-22)
(1.19477 -0.0797096 6.63863e-20)
(0.902728 -0.011384 2.51688e-23)
(1.12918 -0.119986 -2.12078e-20)
(0.975331 -0.0474661 -1.12986e-21)
(1.04188 -0.0158691 -5.69989e-21)
(1.12844 -0.117012 -2.10846e-20)
(1.16594 -0.0998137 0)
(0.254679 -0.0423246 0)
(1.04268 -0.0595789 4.82928e-21)
(0.106609 -0.0086683 3.81228e-21)
(0.863797 -0.109141 3.30704e-20)
(1.04755 -0.00770468 5.42676e-21)
(0.0936601 0.01588 2.68429e-22)
(1.0085 -0.077126 -1.08012e-22)
(0.361981 -0.0474868 -3.61894e-22)
(0.164865 0.047154 -3.00967e-20)
(0.302816 -0.0316328 0)
(0.94067 0.00551564 -4.50302e-22)
(1.07259 -0.0913366 2.37018e-22)
(0.984607 -0.00387527 0)
(1.0135 -0.0539622 -5.66459e-22)
(-0.045181 -0.00239425 0)
(0.0667217 0.023187 -1.5871e-20)
(0.992424 -0.0145502 1.13612e-21)
(0.986133 0.000395535 0)
(1.15918 -0.0903487 -2.90325e-20)
(0.855516 0.0263082 0)
(1.0135 0.0133054 0)
(-0.0166948 -0.011437 2.16571e-20)
(0.981895 -0.00222773 3.9435e-22)
(1.02794 -0.0179943 0)
(0.000470001 0.0559832 2.98616e-23)
(0.0694325 0.00617376 -1.21009e-21)
(0.854408 0.039587 9.8088e-22)
(0.99399 -0.0050043 -1.77152e-21)
(1.02906 -0.00208396 2.74891e-21)
(-0.013899 -0.0272638 -1.73809e-20)
(0.919012 -0.106498 0)
(1.18885 -0.10049 3.33011e-20)
(0.992163 -0.0220865 0)
(0.259151 -0.0186741 -1.73638e-20)
(1.03274 -0.145073 -9.57246e-21)
(0.356908 -0.0578195 1.61576e-20)
(1.14265 -0.0881146 2.74692e-20)
(1.13904 -0.0682923 -3.90168e-20)
(1.0415 -0.0305428 3.49192e-21)
(1.04617 -0.0101352 0)
(0.591336 -0.0328101 1.71182e-23)
(1.16708 -0.0597467 0)
(-0.033412 0.00266377 0)
(0.988408 -0.0227456 1.30983e-21)
(1.12786 -0.0593062 0)
(0.0249312 0.0468251 0)
(0.336548 -0.0408648 2.58808e-20)
(0.113056 0.000262725 -2.55675e-20)
(1.03597 -0.0105597 0)
(1.1274 -0.0488061 0)
(0.99186 -0.00621697 -6.1888e-23)
(1.05649 -0.0810735 -4.50619e-21)
(1.02111 -0.041875 0)
(0.313567 -0.00332771 -8.53827e-22)
(1.01587 -0.00024498 1.51049e-20)
(0.0767661 -0.0147683 8.19055e-23)
(1.01271 0.0127038 0)
(1.16703 -0.0861523 -4.2878e-20)
(1.01021 -0.0143869 0)
(1.10048 -0.146649 9.03463e-21)
(1.13133 -0.0549926 5.47019e-20)
(1.12484 -0.0496767 2.72189e-20)
(0.288383 -0.0203683 0)
(1.14807 -0.0663554 0)
(1.03462 -0.0834471 0)
(0.984172 -0.00026707 -1.59438e-21)
(1.16505 -0.0881719 -4.84972e-20)
(0.95574 -0.0182505 -6.89748e-22)
(1.00734 -0.0678463 0)
(1.04874 -0.0490016 6.65631e-21)
(0.061765 0.00752571 -3.64005e-20)
(0.999199 0.0279218 -3.79477e-22)
(0.272818 0.0585952 -1.47224e-20)
(0.888236 0.00267094 -4.15356e-22)
(1.03542 -0.0261007 5.95679e-23)
(0.282216 -0.0413839 -4.53889e-20)
(-0.0246575 0.00538087 5.12965e-20)
(0.0936529 0.000224198 -2.32778e-20)
(0.943759 0.00496532 2.61758e-22)
(0.98813 -0.0221942 -1.85912e-22)
(0.994122 -0.0150363 -1.17821e-21)
(0.189669 -0.00953703 3.74999e-20)
(1.02296 -0.000443313 -1.66814e-20)
(0.857449 -0.051227 8.97773e-23)
(0.0901715 -0.00961035 2.50532e-20)
(0.994231 -0.0110465 -2.65772e-21)
(1.0817 -0.019724 -9.65496e-21)
(0.983509 -0.13954 -1.93114e-20)
(0.901835 -0.00308123 1.88087e-21)
(0.0742205 0.017578 1.79381e-20)
(1.03839 -0.019954 1.62047e-20)
(0.982758 0.000533431 -2.54663e-22)
(0.501067 -0.0139401 -1.23303e-20)
(0.104903 -0.00915594 0)
(1.15829 -0.120018 0)
(1.05668 -0.0599612 -4.65402e-21)
(0.992665 -0.0215276 -4.68719e-22)
(0.889096 0.00395611 0)
(-0.0171772 0.0438785 -1.83121e-20)
(1.16547 -0.102011 -1.19102e-20)
(1.01285 0.0105184 8.72524e-24)
(1.0745 -0.0929071 2.02517e-21)
(0.989017 -0.00409101 1.01058e-21)
(0.994455 -0.000646762 0)
(0.926474 0.0488036 2.43086e-22)
(0.98475 0.000291136 2.29284e-23)
(0.773144 -0.11462 6.01322e-21)
(0.962396 -0.0208427 0)
(1.0277 -0.0187716 0)
(0.983997 -0.0146635 -5.52353e-22)
(0.994037 -0.015388 -1.80424e-22)
(1.03747 -0.0451819 0)
(0.00420121 0.00609818 -3.8971e-20)
(0.232962 -0.00731234 -2.24671e-20)
(1.09918 -0.0643728 0)
(0.103738 -0.0154692 0)
(1.01057 -0.0139311 0)
(1.09533 -0.066241 0)
(0.993651 -0.0144307 -2.01559e-21)
(0.989393 -0.00430051 1.02802e-21)
(1.026 -0.0269915 -3.19248e-21)
(1.02661 -0.0186744 -3.20237e-21)
(0.0411933 -0.000362838 -3.45907e-20)
(1.03241 -0.0110937 1.04292e-20)
(1.15936 -0.0722258 -3.09752e-20)
(1.03614 -0.0113847 0)
(1.05971 -0.0623608 4.7889e-21)
(0.914432 0.0472671 -2.44647e-22)
(-0.00569613 -0.0415611 1.61662e-20)
(0.991667 -0.000791744 0)
(0.55477 -0.0373542 1.53007e-23)
(1.03693 -0.0962396 8.57184e-22)
(0.795665 -0.0985689 3.57085e-20)
(1.07914 -0.0787147 -1.19933e-20)
(1.09058 -0.0773726 1.92612e-21)
(-0.0390639 0.00636809 2.39782e-20)
(1.10159 -0.0498559 8.46562e-21)
(1.02419 -0.0742872 0)
(0.330649 -0.00473638 -6.46169e-21)
(0.984868 -0.0529419 -2.12695e-21)
(-0.0192527 0.0352633 5.72084e-20)
(1.10086 -0.0887449 5.29577e-21)
(0.917461 0.0620466 0)
(1.01792 -0.0329771 6.21362e-21)
(1.14564 -0.0646009 0)
(1.1407 -0.0856102 1.6948e-20)
(0.0708611 0.00741185 -7.40772e-21)
(0.985377 -0.000758254 8.01439e-22)
(0.0572253 0.04658 2.94639e-20)