/*--------------------------------*- C++ -*----------------------------------*\
| =========                 |                                                 |
| \\      /  F ield         | OpenFOAM: The Open Source CFD Toolbox           |
|  \\    /   O peration     | Version:  v2012                                 |
|   \\  /    A nd           | Website:  www.openfoam.com                      |
|    \\/     M anipulation  |                                                 |
\*---------------------------------------------------------------------------*/
FoamFile
{
    version     2.0;
    format      ascii;
    class       volScalarField;
    location    "300";
    object      k;
}
// * * * * * * * * * * * * * * * * * * * * * * * * * * * * * * * * * * * * * //

dimensions      [0 2 -2 0 0 0 0];


internalField   nonuniform List<scalar> 
13917
(
0.014541
0.000179964
7.12072e-05
0.000152154
0.000173472
0.00017911
0.0001593
0.000301447
0.000156699
0.00108338
0.000160982
0.00015121
0.000172414
0.0349987
0.0001692
0.0117997
0.000150412
0.000179078
0.000184509
0.0108185
0.000170015
0.000155768
0.000171418
0.000155839
0.000155795
0.000172128
0.0378826
0.000756225
0.000178733
0.000138311
0.000707524
0.000176992
0.000152922
0.0250188
0.000158173
0.00660117
0.00015947
0.000192065
0.000159386
0.000172426
0.000167686
0.000158079
0.000154678
0.00018362
0.000183494
0.0164623
0.000168718
0.0120391
0.0299949
0.000158223
0.000151043
0.000187803
0.00633241
0.000152416
0.000152617
0.000187809
0.000288458
0.000171396
0.000157164
0.0179554
0.0265439
0.00017716
0.000153586
0.00015536
0.035229
0.00021099
0.000180652
0.00562594
0.000161587
0.0139334
0.0312097
0.0230423
0.000149426
0.000156243
0.000170783
0.000157465
0.000165818
0.000155445
0.000156967
0.000153219
0.000156506
0.000150584
0.000149277
0.0306973
0.00014323
0.0167902
0.000176503
0.000148854
0.000171936
0.00014964
0.000142043
0.000154932
0.0294703
0.000155725
0.000155186
0.000180227
0.0357014
0.000159496
0.000147581
0.0031132
0.000161895
0.000158972
0.000156589
0.000151992
0.000165807
0.0297566
0.0204574
0.000177256
0.000159076
0.0384796
0.000145886
0.0260202
0.000178211
0.0113526
0.0352154
0.000158471
0.000183991
0.00014245
0.000181796
0.000148211
0.000149921
0.000154073
0.000182246
0.000183546
0.015394
0.0330183
0.000154816
0.000172051
0.000153761
0.000183687
0.00016309
0.0124944
0.0383959
0.000158436
0.000179251
0.0383495
0.030076
0.0161218
0.000173927
0.000191592
0.0183117
0.0001547
0.0287005
0.000149678
0.000148941
0.000163718
0.0306949
0.0120978
0.0112267
0.000152618
0.000169933
0.000155729
0.000148707
0.000148198
0.0377849
0.000161008
0.000151157
0.0379786
0.000155805
0.000145494
0.000144719
0.0315111
0.00016385
0.0171352
0.0219915
0.0191327
0.00586271
0.0179828
0.000130774
0.000175138
0.000156979
0.0372893
0.000156556
0.0274403
0.000181565
0.000155472
0.000152084
0.000189084
0.000162572
0.000164648
0.000154634
0.000156362
0.000151151
0.00452317
0.000175146
0.015558
0.00015102
0.00411628
0.000138101
0.00440023
0.000181792
0.000182644
0.000189341
0.0145852
0.000155693
0.0156891
0.00015988
0.0390618
0.000157892
0.000159901
0.000166645
0.0137638
0.0139586
0.0001592
0.0372894
0.000173363
0.000170328
0.000154812
0.000189768
0.000156607
0.000148483
0.000183008
0.000188001
0.0118265
0.000178889
0.000173261
0.0320127
0.000166038
0.000143261
0.000143043
0.0170404
0.000182571
0.0133181
0.000144513
0.000158358
0.0374046
0.0133827
0.000141653
0.00014123
0.000166168
0.000143643
0.000143491
0.0215609
0.0141266
0.000155682
0.000131203
0.000181594
0.0213944
0.000152251
0.000144489
0.0379366
0.0291692
0.000514134
0.0316338
0.000185705
0.00014965
0.0185594
0.000182085
0.000177086
0.000179804
0.000158616
0.0133622
0.000148484
0.000172863
0.000180134
0.000156457
0.000167347
0.000155169
0.000174081
0.000159261
0.0205295
0.0271063
0.000154819
0.000141063
0.000161494
0.000141132
0.000148461
0.000174316
0.000167969
0.000155582
0.0194541
0.0220211
0.000149732
0.000169031
0.0257916
0.000140935
0.000190467
0.0232281
0.000141099
0.0172919
0.000158509
0.0318661
0.000160118
0.000166579
0.000156918
0.000149847
0.000184989
0.000170826
0.0253705
0.000163085
0.026619
0.000165018
0.0330174
0.0157562
0.000145476
0.000174835
0.000173928
0.000159279
0.000173409
0.000156689
0.00015658
0.000164811
0.000171869
0.000180105
0.000172193
0.000156383
0.000144399
0.0384935
0.0116843
0.000153233
0.000149117
0.000159248
0.00524735
0.000184759
0.0236777
0.0276416
0.000197717
0.00390645
0.000168453
0.0288065
0.00918174
6.22674e-05
0.000172213
0.00016873
0.0372904
0.000158774
0.00018157
0.00018251
0.000152403
0.0373685
0.000143737
0.000167095
0.00014271
0.00474283
0.000142297
0.000170507
0.000173871
0.000199088
0.000147949
0.00017958
0.027283
0.000154565
0.000158934
0.0281394
0.0276598
0.0316881
0.036272
0.000140647
0.000155018
0.0297455
0.00398874
0.000140888
0.000174145
0.000151608
0.000180356
0.000171209
0.000186141
0.000185897
0.000243734
0.000167202
0.0215335
0.000154178
0.000154498
0.000175337
0.000137722
0.000155402
0.0128177
0.000166959
0.00502842
0.000152963
0.000194064
0.000149196
0.0289639
0.000157013
0.0113871
0.0241633
0.000175439
0.000150034
0.0245978
0.000143711
0.0217169
0.00011418
0.000156956
0.02921
0.00015878
0.00010626
0.000149318
0.0121368
0.000170115
0.000158051
0.0365976
0.000194464
0.000157788
0.0279966
0.000206491
0.000156931
0.000183119
0.000154072
0.000194239
0.000101686
0.000144026
0.000158124
0.000156157
0.000149061
0.000142633
0.000154502
0.031096
0.013715
0.000153657
0.000155358
0.000154792
0.000174958
0.0142684
0.000141508
0.000130817
0.000184572
0.000197134
0.000150377
0.000157713
0.0309533
0.0399181
0.000193608
0.000184916
0.025041
0.000148425
0.000141129
0.00016792
0.000142349
0.000141716
0.000156058
0.000141379
0.000147951
0.0168176
0.000154311
0.000173805
0.0212561
0.000174845
0.000149008
0.000148505
0.0286831
0.000167096
0.0130944
0.000142306
0.000145235
0.000144308
0.000143955
0.000159255
0.000159702
0.0315607
0.000163272
0.0310034
0.000145208
0.00016528
0.000164608
0.000156419
0.000185348
0.0315347
0.000151382
0.0346608
0.000149512
0.000147179
0.000154481
0.000158664
0.000147319
0.000156296
0.0379822
0.0262422
0.000146863
0.0340259
0.000184435
0.000150243
0.000176549
0.000177228
0.025785
0.000158927
0.0306587
0.00235038
0.00144843
0.000159546
0.000208502
0.000165949
0.000158324
0.0313437
0.000143103
0.000152055
0.000155068
0.000157455
0.000168979
0.000186905
0.000174121
0.000164622
0.000170932
0.000177774
0.000179023
0.000153674
0.0306452
0.000167059
0.000162976
0.0230524
0.000143279
0.000179728
0.000179398
0.000141696
0.0347016
0.000148499
0.000143881
0.000175408
0.000142466
0.000161533
0.000176953
0.0386552
0.0334629
0.000144398
0.000152262
0.000164263
0.030492
0.0332048
0.000153279
0.000152477
0.000143907
0.000178572
0.00704907
0.000154888
0.000151612
0.000159495
0.000148393
0.000168653
0.000162184
0.000144661
0.000174607
0.000141686
0.000154809
0.000155871
0.0242884
0.000140534
0.000154996
0.000159208
0.000164666
0.000179182
0.000181813
0.00018082
0.00543885
0.00015549
0.000183031
0.0390257
0.0167183
0.0241047
0.000152681
0.000154388
0.000165565
0.000147555
0.0355728
0.000141417
0.0171233
0.000159743
0.0375514
3.05043e-05
0.000154795
0.0052565
0.000146948
0.00017522
0.000158697
0.000163986
0.0379209
0.000141897
0.000164753
0.000161102
0.000158703
0.000154712
0.000190032
0.000168841
0.000140088
0.000183589
0.000176239
0.0140904
0.0282604
0.0393049
0.0245381
0.000140586
0.0141073
0.000141325
0.0286628
0.0137249
0.000165396
0.000149757
0.000160696
0.000166774
0.000154265
0.000142106
0.000159582
0.000173299
0.0251477
0.000145226
0.000175292
0.000151856
0.000139741
0.000151462
0.0103763
0.0330343
0.00546006
0.000179037
0.000161883
0.0223079
0.0225077
0.000150071
0.032418
0.000170568
0.000181287
0.000147682
0.0224769
0.000147927
0.000169034
0.000149131
0.0140859
0.000167845
0.0349433
0.000145264
0.000167136
0.000157389
0.000165027
0.0227024
0.0175808
0.000158972
0.000188445
0.000144397
0.000162269
0.000161771
0.0249338
0.00014523
0.000174524
0.000141247
0.00015827
0.000151225
0.000158761
0.000185885
0.000152087
0.000142036
0.0279862
0.000175746
0.000153032
0.00643303
0.000198708
0.00525211
0.000164427
0.00014651
0.000170755
0.022192
0.000197018
0.000166927
0.000159334
0.00016985
0.000151975
0.000153756
0.000124946
0.000180487
0.00015907
0.021695
0.000168141
0.0250862
0.0334997
0.00018227
0.000168796
0.000189717
0.0188397
0.000156583
0.0001777
0.000202862
0.000142053
0.000147233
0.000151624
0.0001654
0.000160347
0.0142828
0.000163837
0.000147674
0.000181718
0.00014467
0.0255136
0.000158506
0.000153951
0.0373312
0.000177978
0.00507081
0.000149998
0.00014476
0.000154339
0.000151298
0.000160861
0.000150389
0.0144817
0.00016523
0.0112526
0.00425518
0.000177385
0.0395171
0.00015238
0.000159994
0.000157861
0.0246092
0.0348905
0.000160455
0.0148019
0.0162431
0.000142568
0.000153679
0.000159492
0.0294458
7.64597e-05
0.000168256
0.000151211
0.000155059
0.000181701
0.000166696
0.000185958
0.000164106
0.000154986
0.000153329
0.00016031
0.000160749
0.000171531
0.000156199
0.00016017
0.000167236
0.0143537
0.000148982
0.0168027
0.00015861
0.000174417
0.000159164
0.000198726
0.00014949
0.000174117
0.0329101
0.00283728
0.0001477
0.000160019
0.000173236
0.000146045
0.000148839
0.00017372
0.000164486
0.00749311
0.000186055
0.000146139
7.63534e-05
0.000156658
0.000157591
0.000188978
0.000155485
0.000175218
0.0333162
0.000139594
0.000177803
0.000184113
0.000163903
0.000151092
0.000147679
0.000153771
0.0120741
0.000152803
0.000159674
0.000166873
0.000150847
0.000150355
0.000186519
0.028802
0.00018046
0.0389168
0.000178937
0.0300677
0.000148779
0.000166871
0.016976
0.000165412
0.000184054
0.000149382
0.000147241
0.000150093
0.000161128
0.000182608
0.000151078
0.000170642
0.000159137
0.0137669
0.000158591
0.000158708
0.000142827
0.000179984
0.000167029
0.0312631
0.000181779
0.000152263
0.0236034
0.000153706
0.0192151
0.000153826
0.000151188
0.000164936
0.000152019
0.000147389
0.036705
0.00016083
0.00816774
0.0395548
0.00014583
0.00016423
0.000131113
0.000173196
0.00334212
0.000131364
0.0183973
0.000154997
0.000148955
0.000183759
0.00108917
0.000143736
0.000149326
0.000186096
0.000146618
0.000152393
0.000156255
0.000154287
0.000167061
0.000143343
0.00188248
0.000155145
0.0138262
0.0189321
0.00388908
0.0316556
0.0357035
0.0123685
0.00439103
0.000142296
0.000161518
0.000149046
0.000154199
0.000144155
0.000160953
0.000147319
0.0144059
0.000152603
0.0181202
0.000152498
0.000161305
0.000186068
0.000153769
0.000173919
0.000153782
0.000164922
0.000159029
0.000143595
0.040354
0.000181365
0.000176866
0.000153429
0.000145839
0.000157722
0.000159572
0.0232205
0.000142538
0.0130914
0.00014731
0.00414149
0.000166237
0.000148974
0.000174708
0.00017714
0.000142816
0.00491714
0.0323507
0.000160506
0.000179774
0.000147186
0.00396228
0.00014466
0.000159333
0.0191238
0.000150382
0.000152418
0.000181488
0.0177715
0.000145428
0.00829539
0.0220004
0.000158075
0.000161777
0.000154619
0.0227617
0.00014563
0.000184379
0.000150362
0.0355572
0.000166738
0.0357921
0.000155189
0.000138557
0.000306231
0.000167632
0.000148858
0.0389439
0.000156735
0.000143291
0.0195824
0.000157997
0.000161535
0.000180098
0.000156693
0.0355697
0.000172562
0.000177302
6.95195e-05
0.000155006
0.0349901
0.000155963
0.000178936
0.000145564
0.0215812
0.00362827
0.000150118
0.000144775
0.000162688
0.0001532
0.000144134
0.000150258
0.000155566
0.000146975
0.00016287
0.000139563
0.000156248
0.000178216
0.0206816
0.0306316
0.000180583
0.000157618
0.000299597
0.000146129
0.014122
0.00642413
0.00518592
0.000142938
0.000142545
0.000149104
0.000152815
0.000142476
0.000144407
0.000145868
0.000169584
0.000143317
0.00709581
0.0145296
0.000146161
0.0370516
0.000145704
0.000154405
0.000176509
0.025868
0.000180709
0.000151014
0.00400256
0.000156579
0.00015494
0.000557967
0.000162283
0.0392876
0.000152626
0.000169833
0.00014878
0.00015484
0.000167038
0.000231371
0.000155224
0.0247953
0.000176767
0.000171266
0.000162507
0.000145972
0.00014717
0.00018066
0.000163218
0.000158818
0.0269084
0.00911715
0.000201442
0.000181306
0.000154867
0.0257488
0.000154142
0.0296477
0.000179267
0.000158217
0.000154768
0.0359918
0.0318736
0.0157363
0.000147007
0.0139165
0.00014425
0.000147199
0.000163836
0.000154926
0.000150227
0.023256
0.0173489
0.000154823
0.000158359
0.0211054
0.000159176
0.000141077
0.0166988
0.0279929
0.00015383
0.000143815
0.000158952
0.000148425
0.000154689
0.000173693
0.000163682
0.000148689
0.0107581
0.000146921
0.00016572
0.0043059
0.000176239
0.0220679
0.000150115
0.00015235
0.00016116
0.0175695
0.000128438
0.000149609
0.000168555
0.000150333
0.000152759
0.000145414
0.0306261
0.000168467
0.000160121
0.00017343
0.000149339
0.00297637
0.000179822
0.000183689
0.000173708
0.0215957
9.22475e-05
0.0324069
0.0332771
0.000192896
0.0193124
0.000141512
0.000178134
0.000182057
0.00444694
0.000156988
0.000163969
0.000158899
0.0234108
0.000157523
0.0257848
0.000166925
0.000184638
0.0282295
0.000146998
0.000181222
0.000157345
0.000153076
0.000170381
0.000164788
0.000140141
0.0001454
0.000154852
0.0214637
0.000143761
0.000156994
0.000154129
0.000155772
0.000150558
0.000185676
0.000176212
0.000159878
0.000153139
9.12968e-05
0.000158375
0.000177333
0.0362854
0.000150605
0.000145669
0.0344308
0.000159683
0.000157516
0.034025
0.0232647
0.000170248
0.000178393
0.000163573
0.0115541
0.013087
0.000168009
0.0294285
0.000154432
0.000181815
0.0224516
0.000174105
0.00990918
0.0284205
0.000147429
0.000154544
0.000176373
0.00015073
0.000155191
0.000144796
0.000150531
0.000172066
0.000142664
0.000173049
0.0276774
0.000156973
0.0312719
0.0364968
0.000145842
0.00017756
0.000164552
0.000156002
0.000146305
0.025174
0.000178709
0.0189493
0.000162509
0.021411
0.000184567
0.000144773
0.00482811
0.000166817
0.000148184
0.000149365
0.0147675
0.000146306
0.000160893
0.000171581
0.000163423
0.00015042
0.000174065
0.0357909
0.000144962
0.00440764
0.000143581
0.00015257
0.000145908
0.000163565
0.0134856
0.0174117
0.000151334
0.000160698
0.000154813
0.00190525
0.0134925
0.000149897
0.000142489
0.000147275
0.000145976
0.00019224
0.000159243
0.0162353
0.000159775
0.000156053
0.000164114
0.000153745
0.000180421
0.0289538
0.0221662
0.000150019
0.000151653
0.000141921
0.000155979
0.000176283
0.0405712
0.000175294
0.000186269
0.000166494
0.000172082
0.000154109
0.000157036
0.000160691
0.000183198
0.000155462
0.00249737
0.000157702
0.000150083
0.000149618
0.0308678
0.00017406
0.000163057
0.0203723
0.000177936
0.00015417
0.0236699
0.000178721
0.000143881
0.0323853
0.0117414
0.000155678
0.000170639
0.000183855
0.000168401
0.000152732
0.000143013
0.000146208
0.000148724
0.000145648
0.000163192
0.000177376
0.0179138
0.000168782
0.000158536
0.000162326
0.000184163
0.000152871
0.000169271
0.00975718
0.000202972
0.0206901
0.000157436
0.000142745
0.0226312
0.000143734
0.000143492
0.000154319
0.000174034
0.000152716
0.000144333
0.00317487
0.000159588
0.000157563
0.000145722
0.0379399
0.0105628
0.0221547
0.00015811
0.000154049
0.0281699
0.000145191
0.000148816
0.000202126
0.010948
0.000161646
0.000164851
0.000152504
0.0224476
0.000144242
0.00016328
0.00015035
0.000142295
0.000203367
0.000144424
0.000148198
0.0261525
0.000174197
0.0381652
0.000173146
0.000143601
0.000162142
0.000150155
0.000153903
0.000163141
0.000157494
0.000151152
0.000191879
0.000149816
0.000180711
0.000169851
0.00016487
0.000148622
0.000146583
0.000153949
0.0256061
0.000140341
0.0183113
0.000177503
0.000161746
0.000172851
0.000164675
0.000162425
0.000151031
0.000174103
0.000146649
0.000150279
0.00275133
0.000176108
0.000168816
0.000150959
0.000156925
0.000147062
0.000186953
0.000149027
0.0309574
0.00017245
0.000155601
0.000144229
0.000147594
0.000172596
0.000165426
0.033394
0.000183864
0.00304855
0.000164979
0.000185335
0.000161066
0.0330175
0.000142627
0.000139786
0.00015883
0.000181504
0.000148126
0.0291052
0.00015303
0.000152105
0.000213887
0.0175146
0.0121282
0.000176306
0.0001589
0.00223363
0.000165876
0.000149543
0.0330326
0.000145721
0.0001558
0.0341808
0.000145729
0.0307769
0.000156985
0.000146878
0.000147279
0.000150171
0.0394921
0.000157747
0.000143009
0.000178581
0.000143737
0.000149827
0.000145406
0.000149088
0.000169607
0.000149937
0.000166263
0.000141822
0.0349159
0.000159936
0.000142049
0.000142296
0.000153674
0.000144141
0.000155077
0.000158122
0.000157833
0.000149965
0.000146883
0.000155491
0.000149517
0.000182777
0.000147716
0.000180202
0.000155336
0.000182221
0.000150934
0.000150965
0.000150043
0.000141058
0.000170294
0.00016616
0.000156364
0.0379539
0.00015361
0.036861
0.0290933
0.000179695
0.0321603
0.000154457
0.000149227
0.032885
0.0306445
0.000147643
0.0219147
0.000149126
0.000183666
0.0150463
0.000155098
0.000180945
0.0343002
0.0324903
0.000149112
0.000170366
0.000146605
0.000178416
0.000155912
0.0339888
0.0115142
0.000151402
0.00017479
0.025144
0.000151568
0.0303191
0.00239351
0.000156641
0.000142124
0.000783847
0.0239108
0.000149441
0.000162588
0.000154784
0.0282874
0.000174569
0.00015151
0.000151543
0.0143333
0.000153603
0.000145836
0.000151649
0.000145833
0.0276914
0.000170065
0.000161055
0.0270519
0.00014567
0.000180751
0.000149184
0.000412619
0.000177197
0.0001784
0.000150518
0.000159861
0.000145829
0.000154526
0.000154301
0.000150765
0.0313134
0.000155541
0.000147069
0.00014497
0.00102628
0.000142221
0.00338962
0.0327362
0.0185658
0.000155763
0.000152244
0.000144599
0.00945891
0.00015321
0.024237
0.000150172
0.0366787
0.000156753
0.000165001
0.00166931
0.000152343
0.000149206
0.022903
0.000184029
0.0290424
0.000161645
0.0372755
0.0405869
0.000152765
0.0243626
0.000153654
0.000164723
0.020329
0.000160094
0.000175961
0.0187718
0.00016772
0.000177906
0.000148251
0.0196842
0.000145944
0.0042082
0.000144411
0.017038
0.000146049
0.000146603
0.000164405
0.0137927
0.000152558
0.00015308
0.000181458
0.0285204
0.000146059
0.000165514
0.037818
0.00839442
0.0300696
0.000181732
0.000151129
0.000184923
0.0353439
0.000160312
0.0238986
0.000139062
0.000189117
0.0133171
0.000153296
0.0137117
0.00014425
0.0359838
0.0257691
0.00015747
0.000163833
0.00344995
0.0166641
0.000145534
0.000154158
0.000146685
0.000152285
0.0337691
0.00017988
0.000339114
0.000157479
0.000161465
0.0316316
0.000171793
0.00504962
0.0129572
0.000143221
0.000145305
0.000195425
0.0315315
0.0347309
0.0156094
0.000192149
0.000172052
0.000196803
0.0373866
0.024185
0.00928319
0.000142124
0.000181439
0.000172211
0.000181759
0.000149345
0.000157379
0.000178864
0.00421905
0.0177306
0.000159033
0.0392081
0.0263592
0.000175588
0.000145411
0.000145552
0.00489767
0.000153148
0.0384481
0.000162231
0.000149523
0.00699383
0.000169155
0.000142042
0.000167248
0.00016174
0.000149481
0.0396167
0.000167418
0.0401706
0.000154663
0.0259645
0.00764896
0.000195097
0.000140987
0.000161303
0.000168267
0.0136309
0.000186793
0.000177201
0.0340517
0.0299349
0.000132036
0.000159912
0.0001637
0.000186003
0.0132187
0.000144818
0.000141642
0.000154961
0.0263479
0.0188313
0.000155089
0.000176872
0.00734095
0.000142896
0.000167536
0.000159471
0.03996
0.000167629
0.000178651
0.0247859
0.000160903
0.000161228
0.0220923
0.000145975
0.000176834
0.0213302
0.000178263
0.000192409
0.00016156
0.000174259
0.0322485
0.0369012
0.000148157
0.0255456
0.0265545
0.000145705
0.000184701
0.000178807
0.000188066
0.03044
0.0276011
0.0152963
0.000185744
0.0221229
0.000161492
0.00017551
0.000141938
0.000149803
0.000150193
0.000145921
0.00174127
0.00411296
0.000140208
0.000181354
0.00019032
0.000145683
0.0104607
0.0351256
0.000138811
0.000153008
0.000146923
0.000156526
0.0001692
0.000145943
0.0201499
0.000161614
0.000180403
0.000164077
0.000181361
0.000194086
0.000173849
0.0392311
0.000149627
0.000156843
0.000139609
0.000153686
0.0380732
0.000180461
0.000165029
0.0235499
0.000157869
0.000155746
0.000169345
0.000149622
0.000155546
0.000183575
0.000158417
0.0215307
0.0384838
0.0283466
0.000147945
0.0338501
0.000146004
0.00323382
0.000141799
0.000186434
0.0353899
0.000149086
0.0240788
0.0208066
0.000168162
0.000159428
0.000144504
0.00016307
0.0320227
0.000145458
0.0001504
0.00016717
0.000194577
0.000196339
0.000160984
0.000159104
0.000143025
0.000166325
0.0234999
0.000166182
0.000162421
0.000186025
0.00289521
0.0352161
0.0273329
0.000171096
0.000157263
0.0213023
0.000149835
0.000177545
0.000148628
0.0336806
0.000161285
0.000158529
0.000177183
0.0315363
0.000145172
0.000150726
0.00014233
0.000185648
0.00833343
0.000186841
0.000145437
0.000160878
0.000143787
0.0265421
0.000159213
0.0234621
0.000173818
0.000157729
0.00963878
0.000173771
0.000199664
0.000150502
0.000148853
0.0001645
0.000175396
0.000218356
0.000150083
0.000154229
0.0001608
0.0278266
0.000150995
0.000156043
0.0365614
0.000156995
0.000170543
0.000156962
0.000153492
0.000157488
0.0134192
0.000153797
0.0327235
0.00129804
0.000136158
0.0414529
0.000152586
0.000185668
0.000175792
0.000158141
0.000141616
0.000135685
0.000145911
0.0283107
0.000170391
0.0252365
0.0247132
0.000147141
0.000163198
0.000171672
0.0159506
0.000146606
0.000177527
0.0372461
0.0311884
0.000149108
0.000154647
0.000152069
0.00249138
0.0377972
0.000148922
0.00014634
0.000162505
0.0192934
0.000149746
0.000154682
0.000158215
0.000183274
0.0176446
0.000142515
0.0289263
0.00017005
0.000145301
0.0323319
0.000173903
0.0411616
0.0286731
0.000167741
0.000165196
0.000156407
0.000163826
0.000155119
0.000181257
0.000176544
0.00015785
0.000156566
3.90153e-05
0.0374319
0.000145058
0.000186781
0.0344653
0.0392785
0.000158857
0.000149471
0.00191509
0.0255249
0.00109424
0.000151414
0.0347636
0.000175693
0.000137323
0.0176846
0.00016223
0.000154273
0.0139971
0.000154471
0.000176212
0.000151905
0.0001341
0.000156074
0.000142291
0.0351667
0.00014042
0.000144021
0.00018033
0.000156195
0.000161417
0.000185206
0.000151469
0.000145532
0.000156001
0.000154851
0.0030815
0.00302772
0.0105828
0.0265946
0.000177099
0.00673031
0.000194203
0.0307932
0.0372312
0.0346228
0.000147891
0.000168223
0.00014673
0.000152955
0.000154578
0.00016315
0.000191409
0.000174099
0.000172495
0.000145425
0.00014531
0.000172653
0.000150611
0.000154373
0.000151927
0.0280457
0.000165504
0.0110018
0.000147716
0.0024118
0.000154468
0.000158341
0.000157492
0.000168363
0.000147036
0.000182628
0.0261341
0.000173799
0.0218475
0.0135105
0.000180971
0.000161315
0.000112136
0.000186723
0.000142137
0.000154097
0.00013603
0.0248136
0.000133817
0.000656384
0.000197765
0.000181335
0.0403289
0.0391828
0.000176616
0.0399949
0.000149189
0.000140943
0.000166052
0.0228632
0.000149004
0.000148137
0.0275072
0.000142202
0.00283197
0.000162988
0.000157172
0.000160963
0.000148265
0.000180382
0.0256817
0.0226674
0.000157161
0.000152876
0.000184046
0.000154284
0.000183196
0.000145515
0.000185455
0.000180241
0.00015418
0.000154001
0.00013705
0.000178152
0.000195967
0.000196228
0.028021
0.000164153
0.0294084
0.000178184
0.000182623
0.0350811
0.000146227
0.0258003
0.00015367
0.0277294
0.00265828
0.024634
0.0349013
0.000150684
0.000176779
0.000166197
0.00015519
0.0184863
0.000151213
0.000148826
0.000157739
0.000152097
0.000162007
4.30714e-05
0.0116002
0.0221703
0.000159145
0.000172907
0.000155308
0.00015884
0.000149022
0.000177683
0.000180518
0.0311296
0.000174013
0.000140851
0.000146208
0.000157135
0.000205278
0.000160105
0.000159066
0.000159093
0.000196762
0.000162592
0.000175368
0.000177921
0.0279206
0.000163741
0.000163605
0.000146547
0.000157733
0.0238446
0.0001774
0.000176421
0.00014981
0.0323929
0.000165103
0.000150974
0.00017354
0.0289862
0.000196575
0.000168488
0.00014238
0.0252669
0.000154427
0.000142926
0.000141417
0.0353217
0.024292
0.00018026
0.0311956
0.0335089
0.000182018
0.000178292
0.000178739
0.0398995
0.000164982
0.0374719
0.000154836
0.000176606
0.00016515
0.0384886
0.000164865
0.000152762
0.0317417
0.000148657
0.000154642
0.0352127
0.023862
0.000120533
0.0260798
0.00015555
0.000153829
0.0255965
0.000150629
0.000144055
0.000147873
0.000172679
0.00014642
0.000171391
0.00018004
0.000177448
0.0174244
0.000152117
0.0187151
0.000178154
0.0290567
0.0224344
0.000147949
0.00015038
0.000157207
0.0261329
0.000191308
0.000179372
0.0280963
0.026435
0.0306509
0.000164792
0.020925
0.0193576
0.000192266
0.0189923
0.00015253
0.000153953
0.00014753
0.00015668
0.000144711
0.000163773
0.0228588
0.000172786
0.00117253
0.0140696
0.0167521
0.0292515
0.0358332
0.000169163
0.038741
0.000185007
0.000178335
0.000141522
0.000155316
0.00017767
0.0193611
0.000161194
0.0324183
0.0339161
0.000149413
0.000149151
0.00016063
0.000185815
0.000154894
0.000180589
0.0258667
0.000144706
0.000144718
0.000148325
0.000153362
0.000181682
0.0249855
0.000171261
0.026651
0.000186654
0.000145228
0.00274775
0.000180582
0.0001506
0.00802988
0.0164081
0.0319311
0.0316795
0.0213569
0.000154312
0.0237265
0.0261106
0.00046512
0.0295482
0.00015419
0.000157786
0.00015766
0.000154148
0.0338772
0.000179486
0.000150365
0.000161175
0.00196185
0.0255923
0.000164293
0.00014701
0.0376945
0.0356691
0.000149673
0.000163345
0.000185777
0.0001449
0.000145192
0.0364062
0.000145719
0.000165284
0.00252666
0.034784
0.000146605
0.000183314
0.00018857
0.000150728
0.000138061
0.0367386
0.0340835
0.000159291
0.000174374
0.000473319
0.000200573
0.0379001
0.0302459
0.000159946
0.00343238
0.00131349
0.000167348
0.000143025
0.00085413
0.000141431
0.000139706
0.0211647
0.00017129
0.000184814
0.000156411
0.00017126
0.000152979
0.000145049
0.000151983
0.000152776
0.032264
0.000156048
0.0275096
0.0145851
0.000173624
0.000179222
0.0318745
0.0376984
0.0323869
0.000144051
0.000157
0.000167714
0.000159638
0.00238446
0.00153141
0.000151758
0.0260396
0.0243218
0.000161569
0.000181117
0.000179881
0.000182163
0.000183143
0.00015386
0.000184353
0.000185359
0.000186511
0.00018923
0.000183287
0.00018132
0.000171329
0.000143105
0.000164563
0.000181177
0.000146545
0.0212602
0.0392887
0.00684241
0.0315337
0.000137673
0.000150225
0.000177177
0.0325187
0.000152505
0.000159483
0.000175061
0.0269209
0.0287003
0.000150961
0.00016996
0.00015818
0.00588369
0.0037188
0.000155185
0.0141614
0.025761
0.000182971
0.036806
0.00018475
0.000181664
0.0388183
0.000130738
0.039261
0.0276048
0.000155284
0.000181323
0.00018567
0.000164872
0.000151646
0.0294169
0.0265076
0.00015269
0.000153311
0.0324271
0.0111264
0.000183163
0.000152135
7.35127e-05
0.000188807
0.0332698
0.0217276
0.000148842
0.000145038
0.000152369
0.000170455
0.0370959
0.0264955
0.0336632
0.000180118
0.00260232
0.00940913
0.000170593
0.000143225
0.025394
0.000153753
0.0381765
0.000155099
0.0366764
0.000153321
0.00015637
0.00697282
0.000150251
0.000183914
0.00169863
0.000170125
0.000159892
0.00015369
0.000190616
0.0215254
0.000540129
0.0308947
0.0001935
0.00017053
0.000160083
0.000182648
0.0403359
0.0242614
0.000185759
0.000171225
0.000184753
0.0291369
0.000149322
0.000153584
0.000145097
0.000141608
0.00814965
0.000181759
0.000180065
0.000173331
0.000187303
0.000149772
0.00549763
0.0338684
0.00524438
0.000145336
0.000154312
0.000134366
0.0280189
0.000150284
0.0132255
0.00813287
0.000184701
0.00133507
0.000136525
0.000166587
0.000328767
0.00826627
0.0109024
0.000148196
0.000185468
0.000155526
0.000160037
0.000188286
0.0259544
0.030293
0.00015472
0.000184697
0.0123267
0.0302434
0.0155038
0.0368369
0.0352772
0.000152923
0.000178239
0.000157213
0.000185888
0.000156317
0.000186737
0.000160135
0.000173876
0.00294852
0.00223241
0.000192534
0.000264867
0.0278534
0.000183379
0.000160489
0.0368675
0.000182301
0.00015859
0.000161399
0.0343324
0.000162173
0.000177605
0.0109674
0.000179424
0.017331
0.000184188
0.0343409
0.0260456
0.0285577
0.0256322
0.000164059
0.00018354
0.00018261
0.0361318
0.000159916
0.000152108
0.0182361
0.00018774
0.0186859
0.000163234
0.0200554
0.0264961
0.0189842
0.000157538
0.038017
0.000158203
0.0227594
0.000309362
0.0235617
0.0123947
0.000142268
0.000134089
0.0245539
0.0388881
0.000176374
0.000151959
0.000174177
0.000171477
0.0333453
7.92411e-05
0.0273388
0.000160736
0.0267978
0.000179438
0.0278445
0.00015197
0.0123739
0.0233353
0.00019446
0.000179573
0.000137442
0.000156544
0.000149205
0.00363888
0.000148276
0.000148251
0.038575
0.0259782
0.000141449
0.0396637
0.00015339
0.000155088
0.000145936
0.00015265
0.000149976
0.00829675
0.0376317
0.000148178
0.0377819
0.000177591
0.000170808
0.0221241
0.000180466
0.000159884
0.000162309
0.00014414
0.00326659
0.000169335
0.0400039
0.000188281
0.0314173
0.0164122
0.000180789
0.0125999
0.0262105
0.000142299
0.0198213
0.000176959
0.00017801
0.000179306
0.000150646
0.000196864
0.00019176
0.000148742
0.000205934
0.000144783
0.0355362
0.000186434
0.0328302
0.000190217
0.00018985
0.0382991
0.000151075
0.000156404
0.000176187
0.000155646
0.000150268
0.000150392
0.000162428
0.000149519
0.000144242
0.00015493
0.000174603
0.000156289
0.00016312
0.000164433
0.000176925
0.000181551
0.000156929
0.0364505
0.000156128
0.000145623
0.000181514
0.000168014
0.000170043
0.000150114
0.0365547
0.000153668
0.0241251
0.000154228
0.000187354
0.000145083
0.000155009
0.00025085
0.0392576
0.000178233
0.000170407
0.000138874
0.0332926
0.000149385
0.000144068
0.000179313
0.000155567
0.000190238
0.028098
0.000183025
0.0180355
0.000173591
0.0171834
0.000153357
0.000150349
0.000180357
0.00342498
0.000175437
0.000185418
0.0244273
0.000162999
0.000149915
0.000160408
8.05118e-05
0.000173744
0.000148923
0.000182529
0.000181229
0.000178863
0.000149701
0.000148408
0.00249388
0.000179099
0.0147399
0.00645153
0.000160852
0.000179146
0.000149794
0.000169216
0.0311956
0.000152101
0.000161025
0.0001579
0.000183501
0.0268145
0.000148246
0.000153044
0.000144082
0.0384691
0.000170491
0.000157779
0.00024957
0.000183553
0.000149644
0.000153801
0.016394
0.0392768
0.00324313
0.0266399
0.00202943
0.000161428
0.0104723
0.000184502
0.000161574
0.000380967
0.000180326
0.000491288
0.000149406
0.000181218
0.000185595
0.000154313
0.0389484
0.000171845
0.000193726
0.000162189
0.000186828
0.000149312
0.0199819
0.000155596
0.000141627
0.000154425
0.000145314
0.000155317
0.000154337
0.000151304
0.000155066
0.000151577
0.000154291
0.00325905
0.000179559
0.000152014
0.000178977
0.000158314
0.000147664
0.000143972
0.000170914