/*--------------------------------*- C++ -*----------------------------------*\
| =========                 |                                                 |
| \\      /  F ield         | OpenFOAM: The Open Source CFD Toolbox           |
|  \\    /   O peration     | Version:  v2012                                 |
|   \\  /    A nd           | Website:  www.openfoam.com                      |
|    \\/     M anipulation  |                                                 |
\*---------------------------------------------------------------------------*/
FoamFile
{
    version     2.0;
    format      ascii;
    class       surfaceVectorField;
    location    "900";
    object      ddtCorrDdt0(Uf);
}
// * * * * * * * * * * * * * * * * * * * * * * * * * * * * * * * * * * * * * //

dimensions      [0 1 -2 0 0 0 0];


internalField   nonuniform List<vector> 
20673
(
(-0.00585533 -0.00230422 6.31325e-18)
(-0.00599605 -0.00219489 -3.35175e-18)
(-0.005804 -0.00213078 7.83486e-18)
(-0.00183156 -0.000838468 -1.67118e-19)
(-0.00177952 -0.000860656 2.65653e-19)
(-0.00183791 -0.000909986 -1.26146e-19)
(0.0142675 -8.01192e-05 -7.72775e-18)
(0.01424 2.27758e-05 -7.69256e-18)
(0.014158 0.000127684 3.93217e-18)
(-0.000606322 0.00407118 1.58222e-17)
(-0.000708484 0.00396392 7.87014e-18)
(-0.000573457 0.00394572 1.32356e-18)
(-5.33363e-05 -0.00089943 -4.81701e-19)
(-5.30624e-05 -0.000914364 -1.21342e-18)
(-6.80064e-05 -0.000942134 -2.22935e-18)
(0.000395607 -0.00808478 1.45828e-18)
(0.000311674 -0.00838482 -8.88602e-17)
(7.52316e-05 -0.00821988 -2.81871e-17)
(0.0145857 4.59048e-05 -8.29073e-18)
(0.014601 -4.60894e-06 1.26449e-17)
(0.014265 0.000170686 1.74181e-18)
(0.0144658 0.000157981 5.33751e-19)
(0.0143947 1.04633e-05 -5.53768e-18)
(0.0144502 6.90814e-05 -9.90698e-18)
(0.0163538 0.000753588 3.59459e-18)
(0.0161456 0.000658937 -1.19002e-17)
(0.0158259 0.000590925 1.1859e-17)
(-0.00747757 -0.00305618 7.5294e-18)
(-0.00770232 -0.00306665 7.0652e-18)
(-0.00761152 -0.00325341 2.32599e-18)
(-0.0102147 0.00824521 -7.00867e-18)
(-0.0103953 0.00831486 1.05125e-17)
(-0.0116193 0.0081586 3.63206e-19)
(-0.00501444 0.00954487 2.13732e-18)
(-0.00519329 0.00972408 7.635e-18)
(-0.00518391 0.00940321 7.16194e-18)
(-0.000653958 0.00416415 7.01526e-18)
(0.0157036 -0.000783753 -2.31195e-19)
(0.0186707 -0.00070176 -3.02173e-18)
(0.0154951 -0.000757298 6.12214e-18)
(-0.00214118 -0.00311578 -3.51323e-18)
(-0.00205114 -0.00317027 1.027e-17)
(-0.00204526 -0.00305492 5.10963e-18)
(-0.00245713 -0.00265336 1.00927e-18)
(-0.00235453 -0.00265627 -1.90531e-18)
(-0.00240126 -0.00254166 2.2898e-18)
(-0.00182605 -0.00122237 3.26766e-19)
(-0.00185188 -0.00116899 2.64895e-19)
(-0.00178815 -0.00117751 3.11024e-19)
(-0.00763043 0.0028238 2.78472e-18)
(-0.00767959 0.0026818 -7.14963e-18)
(-0.00779942 0.00286706 -6.41787e-18)
(-0.0048475 0.00974058 7.11782e-18)
(-0.00480712 0.00941926 -1.4003e-17)
(-0.000115307 -0.000278401 -2.7201e-19)
(-0.00011183 -0.000262756 4.07094e-19)
(-0.000100641 -0.000256285 1.57844e-19)
(-3.73673e-06 -8.97115e-05 -1.4515e-19)
(-5.6566e-06 -0.000118534 -1.27713e-18)
(-3.66097e-06 -8.67593e-05 -1.04588e-18)
(0.0146043 8.49546e-05 5.72207e-18)
(0.0149373 -3.23709e-05 -7.99213e-18)
(-0.00016445 -0.000522538 -6.65028e-19)
(-0.000181626 -0.000552701 8.72842e-20)
(-0.00017901 -0.000530875 -3.89442e-19)
(0.0145427 0.000295566 -9.8248e-18)
(0.0146366 0.000357847 6.22016e-18)
(-0.000396288 -0.00122299 2.33758e-19)
(-0.000391581 -0.00123297 -1.00942e-18)
(-0.000408104 -0.00124622 -8.98938e-19)
(0.0142531 0.000789805 9.07975e-19)
(0.0146872 0.000674434 5.40901e-18)
(0.0147114 0.000625302 -5.54995e-18)
(-0.000139045 -0.00511838 -4.1488e-17)
(-0.000144546 -0.00520927 -1.31123e-17)
(-9.15471e-05 -0.00515856 2.96648e-17)
(-0.000692726 -0.00569822 -2.45251e-17)
(-0.000758437 -0.00578903 -6.1725e-18)
(-0.000662391 -0.00583328 -7.43372e-18)
(-0.00143241 -0.00920666 1.72127e-18)
(-0.00161001 -0.00941784 -1.09296e-17)
(-0.00137714 -0.00959751 -3.65222e-18)
(-0.0100817 -0.00093341 3.67416e-18)
(-0.010081 -0.000709855 5.00326e-18)
(-0.0103188 -0.000773223 -2.32673e-18)
(-0.00648866 -0.0017339 -2.66506e-19)
(-0.00637153 -0.00186562 1.09866e-18)
(-0.00630662 -0.00169424 1.34264e-17)
(-0.00429277 -0.00145443 1.62565e-19)
(-0.00419915 -0.00152154 -2.31116e-18)
(-0.00417487 -0.00139096 -1.06782e-17)
(-0.000606997 -0.00468758 3.27651e-18)
(-0.000612241 -0.00477306 -1.5786e-17)
(-0.000531246 -0.0047279 -4.04284e-17)
(5.68298e-05 -0.00351967 -2.28662e-18)
(9.88878e-05 -0.00346482 -1.76368e-17)
(3.77022e-05 -0.00344989 -6.58705e-18)
(-0.00028814 -0.00137144 -8.53646e-19)
(-0.00030854 -0.00140239 -2.60669e-19)
(-0.000314362 -0.00136794 3.39568e-19)
(0.0118325 0.00606712 -1.35477e-17)
(0.0121849 0.00585223 -9.06539e-18)
(0.0125698 0.00536611 -1.5155e-18)
(-0.000150372 -0.00050912 -3.57084e-19)
(-0.000152039 -0.000490751 5.96249e-19)
(0.015988 -0.000644331 1.02457e-17)
(0.016331 -0.00065088 -5.65863e-18)
(0.0162895 -0.00064574 3.75553e-18)
(-0.00100584 0.00493188 6.31733e-18)
(-0.00104292 0.00510199 -7.73357e-18)
(0.0196801 6.58202e-05 2.72744e-18)
(0.0207779 0.000242445 1.39268e-17)
(0.0198641 -1.37473e-05 2.00071e-17)
(-0.000318641 -2.20822e-05 -2.24947e-19)
(-0.000326204 -1.93734e-05 -3.46144e-19)
(-0.000316089 -1.37132e-05 -4.97158e-19)
(-1.00569e-06 -5.42129e-05 1.65881e-18)
(-6.57855e-07 -2.58881e-05 -2.07626e-18)
(-1.95206e-07 -2.68994e-05 4.3126e-18)
(-0.000161235 0.000377056 6.22051e-19)
(-0.000185383 0.000352993 1.32661e-18)
(-0.000154502 0.000346736 8.08195e-19)
(-0.000847562 -0.00655762 -8.96505e-18)
(-0.000968365 -0.00658258 -1.68159e-17)
(-0.000887529 -0.00673779 -4.55292e-17)
(-0.00176974 0.000477779 3.62246e-19)
(-0.00183125 0.000482557 8.45089e-19)
(-0.00180877 0.000534307 -4.91595e-18)
(-0.000158564 -0.00383797 4.7383e-18)
(-7.02931e-05 -0.00384709 6.4109e-19)
(-0.000115668 -0.00376037 6.14926e-18)
(-0.00760958 0.00300933 3.52762e-18)
(-0.00746731 0.00283539 -1.02198e-18)
(-0.00816083 0.00488917 8.0093e-18)
(-0.00804442 0.00475325 5.97927e-18)
(-0.00799496 0.00492913 -2.17488e-18)
(-0.000462171 -0.0104724 -4.98156e-17)
(-0.000781185 -0.0105352 1.17258e-17)
(-0.000630575 -0.0103199 -2.00054e-17)
(-0.000155928 -3.23718e-05 -2.23018e-19)
(-0.000168529 -2.88234e-05 2.22228e-20)
(-0.00016665 -4.45058e-05 1.30395e-20)
(-0.00403976 0.00270956 -7.93223e-18)
(-0.00410574 0.00266874 -8.9712e-18)
(-0.00411579 0.00275774 1.37297e-17)
(-0.000166698 -0.00226467 2.87875e-18)
(-0.00015613 -0.00230401 8.22797e-19)
(-0.000198296 -0.00230432 1.42398e-18)
(0.000254051 -0.0108633 5.79547e-17)
(-0.000681722 -0.0115771 9.68662e-17)
(1.39121e-05 -0.00357304 2.04843e-18)
(8.01285e-05 -0.00358843 9.04757e-18)
(-0.00186479 -0.00126975 6.33297e-19)
(-0.00179536 -0.00126915 1.84598e-19)
(-0.00444483 0.00127963 4.29435e-18)
(-0.0044393 0.00114045 -3.13966e-18)
(-0.00459462 0.00121623 -1.68548e-18)
(-0.0100309 0.00787167 -1.04316e-17)
(-0.00861322 0.00819719 -1.89221e-17)
(-0.000911935 -0.00148887 -1.66321e-18)
(-0.000868486 -0.00146252 -9.61471e-19)
(-0.00091027 -0.00144564 -1.06791e-18)
(-0.00380923 0.000602891 4.75868e-18)
(-0.00392947 0.000599076 1.75568e-18)
(-0.00385919 0.000484931 3.46789e-18)
(-0.00174055 0.000425775 -1.95518e-18)
(-0.00171308 0.000468973 -1.30179e-18)
(0.0341474 0.00231481 -9.15754e-19)
(0.0289447 0.00105165 1.98113e-17)
(0.0309316 0.0015136 2.55861e-18)
(-0.00185037 -0.000776526 1.18275e-19)
(-0.00190199 -0.000826226 -7.74895e-19)
(0.0159289 -0.000845776 1.97268e-17)
(-0.00011968 -0.000292384 -5.26276e-19)
(-0.000130571 -0.000297823 -3.85898e-19)
(4.06e-05 -0.00840623 -3.41408e-17)
(2.17206e-05 -0.00786839 2.217e-17)
(0.0351224 0.0109945 3.66733e-17)
(0.0375784 0.0109499 -1.9356e-18)
(0.0398297 0.0129521 7.44348e-17)
(1.3309e-05 -0.000949318 3.80988e-18)
(1.12946e-05 -0.000997984 -2.85775e-18)
(4.16294e-05 -0.0014943 5.54979e-18)
(2.97936e-05 -0.00146648 -5.58563e-18)
(-0.00793745 0.00701317 1.40813e-19)
(-0.0084044 0.00707322 9.03065e-18)
(-0.0120911 0.00657198 -1.96329e-18)
(-0.00481174 -0.00287596 4.78933e-19)
(-0.00496093 -0.00285508 -7.95379e-18)
(-0.00489574 -0.00303217 -9.14178e-18)
(-5.01506e-05 -0.000842578 2.09646e-18)
(-6.50521e-05 -0.000892757 -1.72408e-18)
(0.0170582 0.000952285 5.62584e-18)
(0.0165926 0.000861138 2.47178e-17)
(0.0145403 -0.000650754 -2.07818e-18)
(0.0144035 -0.000609239 1.3645e-17)
(0.0143924 -0.000608213 3.37002e-18)
(-0.000403227 -0.00119515 6.51391e-19)
(-0.00037294 -0.00118598 2.6694e-18)
(-0.000787183 -0.0105422 2.73573e-17)
(-0.000643291 -0.0101924 5.17358e-18)
(-0.000768722 -0.0104053 4.25761e-17)
(-0.00425255 0.011687 -1.03799e-17)
(-0.00400761 0.0115599 2.45283e-19)
(-0.00422271 0.0113668 -8.85009e-19)
(0.016067 -0.000715278 -3.36741e-18)
(0.0156522 -0.000623755 -2.20726e-17)
(0.0159627 -0.000739213 -2.12753e-17)
(-0.0024978 0.000982694 -2.34205e-19)
(-0.00257858 0.000999424 7.70598e-19)
(-0.00255979 0.000905077 -1.52084e-19)
(0.0144542 0.00132517 6.08644e-18)
(0.014438 0.00127471 -7.70011e-18)
(0.0137308 0.00152181 7.26273e-18)
(-1.19389e-05 -0.000172308 3.13665e-18)
(-1.50494e-05 -0.000205575 3.69437e-18)
(-1.4778e-05 -0.000200734 3.13247e-19)
(-2.99482e-05 -0.000218859 -1.38608e-19)
(-3.16857e-05 -0.000239488 -4.08794e-19)
(-2.75984e-05 -0.00021045 -1.57576e-18)
(8.78794e-06 -0.000901864 1.90274e-18)
(0.000136973 -0.00823787 -3.03653e-17)
(-4.69606e-05 -0.00840676 2.65234e-17)
(-9.45279e-05 -0.00799064 -1.86851e-19)
(0.0156496 -0.000643173 5.56266e-18)
(0.0156688 -0.000653832 -1.79109e-17)
(0.00863804 -0.00207805 -2.65734e-17)
(0.00751292 -0.00213109 -3.9672e-19)
(0.00801792 -0.00220089 -2.95019e-17)
(-0.00241229 0.000954901 5.4848e-20)
(-0.00243742 0.00104745 2.54344e-18)
(-5.50036e-05 -0.000280508 -1.05683e-18)
(-5.54529e-05 -0.000270286 -3.97439e-19)
(-4.53639e-05 -0.000249979 -2.11106e-20)
(0.0314356 0.00986938 2.07604e-17)
(0.0176073 0.00267005 -6.50308e-18)
(-0.00392824 0.0027607 5.69233e-19)
(-0.00393461 0.00263181 -1.97434e-18)
(-0.000140565 0.000397701 -1.31627e-18)
(-0.000172506 0.000405027 -1.57373e-18)
(0.0147521 -0.000562233 -1.11268e-17)
(0.0149241 -0.0006025 -1.74764e-17)
(0.0149097 -0.000580271 4.53168e-18)
(-0.00919942 -0.0023476 1.39452e-17)
(-0.00894796 -0.00244041 1.47397e-17)
(-0.00907884 -0.00261765 2.4485e-17)
(-0.00129522 -0.000175197 -4.06382e-19)
(-0.00127758 -0.000129063 6.39813e-19)
(-0.00124945 -0.000170086 -1.05268e-18)
(-0.00127467 -0.00243463 3.17655e-18)
(-0.00127956 -0.00249749 -2.1913e-18)
(-0.00133554 -0.00245672 -1.33447e-18)
(0.0197554 0.00409729 2.1205e-17)
(0.0375635 0.0128688 1.31359e-17)
(0.000402126 -0.0083173 -6.91293e-17)
(-0.000187319 -0.00814815 3.35316e-17)
(0.000190116 -0.00763525 2.25043e-17)
(-0.00839706 0.00713564 -8.97295e-18)
(-0.00849649 0.00709259 -3.02361e-17)
(-0.00863407 0.0071995 1.31563e-18)
(-0.00790954 0.0043055 6.82695e-18)
(-0.00806 0.00427099 -1.15372e-17)
(-0.00795651 0.00414124 -3.71183e-18)
(-0.00628924 0.0125307 -2.30526e-18)
(-0.00756925 0.0126422 3.42612e-18)
(-0.00663931 0.012969 9.53401e-18)
(-5.76677e-06 -0.00685615 6.75588e-17)
(-0.000116694 -0.00664606 -2.40281e-17)
(-0.000219451 -0.00687469 -2.52592e-17)
(-0.000417718 -6.66633e-05 -9.57603e-20)
(-0.000426342 -5.69571e-05 -6.43095e-19)
(-0.000432813 -7.0423e-05 -1.12407e-18)
(0.000150097 -0.00447956 1.08265e-18)
(9.93825e-05 -0.00441653 -1.66969e-17)
(0.000171304 -0.00439141 2.07443e-17)
(-0.000675236 -0.00661885 -2.99652e-17)
(-0.000744578 -0.00641304 3.0379e-18)
(-0.00267739 0.00158286 -2.22395e-18)
(-0.00273142 0.00165034 -8.61945e-18)
(-0.00264055 0.00168404 -5.04155e-18)
(-0.000704787 -6.21415e-05 -9.63809e-19)
(-0.000689615 -4.31243e-05 6.98095e-19)
(-0.000718984 -3.71642e-05 5.917e-19)
(0.0170989 0.000855988 1.10454e-18)
(0.0170287 0.00085723 -3.93889e-18)
(0.0180233 0.00111362 -2.05972e-17)
(-0.00232451 -0.00899945 -2.6349e-18)
(-0.00221716 -0.00920115 2.46651e-18)
(-0.00252726 -0.00920525 -6.50884e-18)
(-0.00827374 0.00498928 2.94471e-18)
(-0.00830794 0.00481652 -9.30342e-18)
(-0.0018827 -0.00110463 5.07228e-20)
(-0.00193146 -0.00115729 2.82989e-20)
(-0.00648695 -0.00221326 -7.65147e-18)
(-0.00635669 -0.00232338 -1.81874e-18)
(-0.00655385 -0.00238818 -2.43348e-18)
(0.0134385 -0.00058449 9.18974e-18)
(0.0133521 -0.000645547 2.48168e-18)
(0.0134285 -0.000615958 -2.93545e-18)
(0.019341 0.000226946 -2.15205e-17)
(0.0200094 -0.000247481 -2.76694e-17)
(-0.00595438 0.0104427 -7.01006e-18)
(-0.00584358 0.010637 -1.11829e-18)
(-0.00607658 0.0105901 -4.70114e-18)
(0.0170078 0.000812133 1.39659e-17)
(0.0163957 0.000560439 1.09383e-17)
(-0.000120149 -0.00268513 2.65019e-18)
(-0.000155862 -0.00272026 9.86869e-18)
(-0.000109085 -0.00274631 -2.3913e-18)
(0.00105119 -0.0103795 -5.20415e-17)
(0.00159907 -0.0107591 -4.09933e-17)
(0.0016693 -0.0101661 -4.20563e-18)
(-0.000391307 -0.000843352 -7.70108e-20)
(-0.000419709 -0.000862693 -6.858e-19)
(-0.000400568 -0.000876656 1.76404e-18)
(-0.000313303 -0.0100912 -8.18459e-18)
(1.18489e-05 -0.00974731 3.30049e-17)
(-0.000377854 -0.00958386 -3.08019e-17)
(0.0204223 -0.0005231 -3.1838e-18)
(0.0202881 -0.000548904 1.05909e-17)
(0.019764 -0.000412021 1.16751e-17)
(-0.000124742 -0.00354119 1.5508e-17)
(-0.000170402 -0.00360305 -3.41123e-18)
(-0.000194453 -0.00351485 1.34989e-17)
(-3.8263e-06 -8.13843e-05 -1.84119e-19)
(-3.11317e-06 -8.32711e-05 1.33709e-18)
(-0.00810629 0.00712226 -3.06562e-18)
(-0.00727133 0.00694949 5.7781e-18)
(0.0194945 -0.000479174 -1.72361e-18)
(0.0189893 -0.000469913 -3.89371e-18)
(0.0189901 -0.000521998 -9.93093e-18)
(-0.000632003 -0.00561702 1.39375e-17)
(-0.000728152 -0.00559308 2.47234e-18)
(-0.000222661 -2.5411e-05 -1.25486e-19)
(-0.000230975 -3.49191e-05 -1.46831e-20)
(-0.000233665 -2.16845e-05 3.96905e-20)
(-0.00121102 -0.00239947 -5.79668e-18)
(-0.00127039 -0.00235468 9.51796e-18)
(-0.00176524 0.000171449 2.72217e-18)
(-0.00181539 0.000169786 5.21242e-19)
(-0.00178915 0.000127898 1.08876e-18)
(-0.000211857 -2.62816e-05 1.81605e-21)
(-0.000203142 -1.41052e-05 -4.67415e-20)
(-0.000212349 0.000155618 -1.60216e-19)
(-0.000187509 0.000160538 -4.68855e-19)
(-0.000196523 0.000135683 -2.21372e-18)
(0.000417733 -0.00859377 -7.1715e-17)
(0.0178361 -0.000366238 -7.72837e-18)
(0.017578 -0.000616041 3.6109e-19)
(0.0179449 -3.19397e-05 -3.57667e-18)
(-7.57404e-05 -0.00264832 1.29693e-17)
(-0.000129387 -0.00263018 -5.97195e-18)
(-0.00189396 0.000483067 9.69388e-19)
(-0.00185597 0.000419675 -3.09033e-18)
(-3.05509e-06 -9.13476e-05 -1.56137e-18)
(-2.10608e-06 -6.03456e-05 1.06412e-19)
(0.0307187 0.00783319 2.64169e-18)
(0.0306076 0.00844324 -7.70779e-18)
(0.0302691 0.00749173 1.37707e-17)
(0.0146827 0.000446945 -4.5112e-18)
(0.014442 0.000226283 -1.63629e-17)
(-0.00589585 -0.00246226 8.25352e-18)
(-0.00571872 -0.00239095 -8.2793e-18)
(-0.000298043 -0.00686261 5.72107e-17)
(-4.08154e-05 -0.0071563 2.37845e-17)
(3.55826e-06 -0.000998402 2.34904e-18)
(9.26848e-06 -0.0010471 -1.95434e-18)
(-4.90745e-05 -0.00356113 -9.50599e-18)
(-7.65169e-05 -0.00348473 8.71701e-18)
(0.0120319 0.00639922 -2.13645e-17)
(0.0117013 0.00659678 3.75756e-17)
(0.0114874 0.00705009 3.30637e-17)
(-0.000878398 0.000331862 -4.84399e-19)
(-0.00090628 0.000311538 3.13712e-18)
(-0.000867912 0.000294006 1.96086e-19)
(-0.000446303 -0.00240109 3.48865e-19)
(-0.000479031 -0.00244293 -4.49147e-18)
(-0.000422645 -0.00243978 1.54906e-19)
(-0.000616016 -0.00678356 -3.91275e-19)
(-0.00057986 -0.00693151 -2.78225e-17)
(-0.000693015 -0.00692018 5.55648e-17)
(2.0103e-05 -0.00149283 7.09685e-18)
(3.66151e-05 -0.00152647 6.60029e-18)
(0.0197369 0.00203329 1.57759e-17)
(0.0185037 0.00166091 -1.11449e-17)
(0.0198892 0.00200368 1.08168e-17)
(-0.00206027 -0.00964554 4.75828e-18)
(-0.00201473 -0.00944133 3.087e-18)
(-0.00182918 -0.00946768 -2.34527e-18)
(-0.000219602 -0.00223813 2.78319e-18)
(-0.000159959 -0.00221736 -5.9428e-19)
(-0.000754076 0.000334801 -1.2914e-18)
(-0.000786665 0.000323048 1.38514e-18)
(-0.000755887 0.000297919 -9.26307e-19)
(-0.00421313 -0.00177715 2.02992e-18)
(-0.00410206 -0.00183852 -3.59344e-18)
(-0.00423141 -0.0019246 2.42193e-18)
(-0.00659178 0.00598077 -1.21054e-18)
(-0.00673761 0.00606345 -1.08376e-17)
(-0.00666403 0.00584717 1.98297e-17)
(0.00132821 -0.0103958 6.33308e-19)
(0.000730224 -0.0111297 -5.28e-17)
(-0.00726728 0.00803717 -8.95158e-18)
(-0.00740519 0.00796268 3.92791e-18)
(-0.00737694 0.00815673 1.03113e-17)
(-0.00419045 -0.00430246 -3.62542e-19)
(-0.00420284 -0.00417787 1.0901e-18)
(-0.00435182 -0.00422684 7.53677e-19)
(-0.00453323 -0.000134218 -4.7702e-19)
(-0.00447701 -0.000256075 1.14917e-18)
(-0.00439225 -0.000149261 7.13624e-18)
(0.00767718 0.00142533 1.20682e-17)
(0.00638147 0.00206465 1.54019e-17)
(0.0046874 0.00124513 1.96801e-17)
(-0.00464814 -0.00293661 1.53975e-18)
(-0.00469124 -0.00275121 5.84383e-18)
(0.0192385 0.00413835 -2.14742e-17)
(0.0191473 0.00472481 1.14379e-17)
(0.018662 0.00468406 1.58378e-17)
(0.0163487 -0.000749395 2.17304e-18)
(0.0160399 -0.000690078 8.94078e-18)
(0.0312887 0.00825702 1.49544e-17)
(0.0305386 0.00734801 6.72651e-18)
(-0.000800076 -0.00305161 -3.5997e-18)
(-0.000821618 -0.00311747 -1.6728e-17)
(-0.000751332 -0.00309824 6.05923e-18)
(0.000376449 -0.00506417 -1.41327e-17)
(0.000347246 -0.00508203 2.23213e-17)
(0.000362968 -0.00516336 5.26547e-18)
(-1.61885e-05 -0.000175064 -1.20926e-18)
(-1.54335e-05 -0.000166056 1.31332e-19)
(-1.06201e-05 -0.000144287 3.17971e-19)
(-0.00834426 0.00724639 -6.34786e-18)
(-0.00822857 0.00712311 2.44698e-19)
(-0.00608242 0.0102204 1.4054e-17)
(-0.00582357 0.0102552 3.66804e-17)
(-0.00632713 0.0126193 1.73915e-18)
(-0.00620123 0.0124363 2.46298e-18)
(-0.0027124 0.00150198 9.2999e-18)
(-0.00262119 0.00152757 8.0359e-18)
(-0.00728053 0.00511725 -4.39272e-18)
(-0.00721655 0.00525787 1.01568e-17)
(-0.00739524 0.00525743 -2.7402e-18)
(-0.0014128 0.000364016 -1.11541e-19)
(-0.00147142 0.000370906 -2.19806e-18)
(-0.00144497 0.000308518 1.69359e-18)
(0.000221312 -0.004532 -2.19539e-17)
(0.000124741 -0.00459181 4.50009e-18)
(-0.00474575 -0.00402237 -2.33879e-18)
(-0.00454606 -0.00403986 1.07995e-19)
(-0.00464643 -0.00385238 -6.39293e-19)
(0.0127485 -0.00101041 1.62536e-17)
(0.0127313 -0.00101075 4.7504e-18)
(0.0127341 -0.000955686 -1.38717e-17)
(-0.00570255 0.0112796 -7.10727e-18)
(-0.00595482 0.0113869 1.35022e-17)
(-0.00588814 0.0111072 1.49209e-17)
(-0.00202378 -0.00145028 3.50528e-19)
(-0.00207066 -0.00150381 2.01827e-19)
(-0.0019909 -0.00151795 8.52037e-19)
(0.0198449 0.00268563 -5.3476e-18)
(0.019995 0.00261006 -4.1016e-18)
(0.021132 0.00317584 -1.19419e-17)
(-0.00413109 -0.00472348 2.03608e-19)
(-0.00412623 -0.00483324 2.03053e-19)
(-0.00426004 -0.00477508 9.33278e-19)
(0.0177473 -0.000406631 -1.34108e-17)
(0.0172196 -0.000369493 -1.07706e-17)
(-0.000127872 -0.0102727 -2.45332e-17)
(-0.000564856 -0.0102502 -4.35364e-17)
(0.0197885 0.00210904 2.9242e-18)
(0.0213025 0.00254279 6.03263e-18)
(-0.00109755 -0.000711028 8.37457e-20)
(-0.0011397 -0.000709217 -2.92717e-19)
(-0.00112273 -0.00075186 -2.2362e-19)
(-0.00947496 -0.00235073 -9.8693e-19)
(-0.00936522 -0.00212817 1.6343e-18)
(-0.0066994 -0.00177275 1.66532e-18)
(-0.00662474 -0.00160065 4.69929e-18)
(-0.000888447 0.000373021 -1.66387e-18)
(-0.000850989 0.000357699 -1.18109e-18)
(-5.77906e-05 -0.000293082 -4.36287e-19)
(-6.71799e-05 -0.000311999 -1.80022e-18)
(-0.00193887 -0.00394703 1.40769e-18)
(-0.00183591 -0.00395409 3.98959e-18)
(-0.00189201 -0.00385924 -2.03402e-18)
(0.0137727 0.00101146 5.08959e-18)
(0.0138344 0.000909062 2.44652e-17)
(-0.0118709 -0.00327928 2.46194e-17)
(-0.0115303 -0.00326985 -2.37208e-17)
(-0.0112469 -0.00338474 1.09364e-17)
(0.00897466 0.000916375 -6.21886e-17)
(0.0133698 0.00282305 9.61241e-18)
(-0.0062163 0.00149515 1.30825e-18)
(-0.00620301 0.00135135 3.1464e-18)
(-0.0063525 0.00143874 -1.25139e-17)
(-0.00776183 0.0108583 1.06927e-17)
(-0.00766841 0.01107 8.11675e-18)
(-0.00738442 0.0109982 1.63357e-17)
(0.0144078 0.00600801 -6.4339e-19)
(0.0145526 0.00567219 -8.14615e-18)
(0.0148344 0.00557216 8.93134e-18)
(0.010293 -0.00209578 9.27428e-18)
(0.00959851 -0.00182807 -6.71127e-17)
(-0.011606 -0.00501641 1.10728e-17)
(-0.0117188 -0.00480506 -8.96537e-19)
(-0.0111348 -0.00474509 -7.09853e-18)
(-0.000162991 -0.000659153 -1.94335e-18)
(-0.000145878 -0.000621516 -2.08724e-18)
(-0.000145994 -0.000637161 3.03157e-18)
(9.77541e-05 -0.00682836 -1.213e-17)
(-9.43882e-05 -0.006879 1.61678e-17)
(6.55699e-05 -0.00703073 1.41334e-18)
(-0.000117847 -0.00502523 -1.65514e-17)
(-0.000217723 -0.00505246 -2.1143e-17)
(-0.000310193 -9.47597e-07 -5.08258e-19)
(-0.000308662 -1.41778e-06 6.09066e-19)
(-0.00131079 -0.000212154 -7.13371e-20)
(-0.00134062 -0.000170718 -3.13198e-19)
(-0.00275431 -0.00869911 4.37154e-18)
(-0.00273412 -0.00845313 -9.91004e-18)
(-0.00300172 -0.00856253 -1.01754e-17)
(0.00629295 -0.00331055 -9.07468e-19)
(0.00895126 -0.00160046 1.11476e-17)
(0.0235765 0.0069553 -7.29321e-18)
(-0.00291168 0.00395998 -2.18356e-18)
(-0.0029776 0.00406754 1.4441e-18)
(-0.00304958 0.00394392 -2.44704e-18)
(-0.000147836 -3.95819e-05 -3.85604e-19)
(-0.000146745 -2.44891e-05 -2.13284e-19)
(-0.00687573 0.00543882 8.45457e-18)
(-0.00675139 0.00532107 1.7704e-18)
(-0.00694562 0.0052711 -2.54642e-17)
(-0.00652769 0.00613819 -1.48448e-17)
(-0.00643846 0.00592887 -3.10341e-18)
(0.0147075 -0.000678732 -3.65588e-17)
(0.0146887 -0.000684539 2.71266e-17)
(0.0269242 0.00602125 -1.11058e-17)
(0.0268696 0.00602417 1.18139e-17)
(0.027495 0.00666081 -7.19298e-18)
(-0.000276795 -0.00134421 -1.31334e-19)
(-0.000269416 -0.00137088 2.75136e-19)
(-0.000908792 -0.00153618 4.62126e-19)
(-0.000953438 -0.00151641 2.37816e-19)
(-0.00775694 0.00434502 2.14305e-17)
(-0.00785671 0.00447906 -1.14589e-17)
(0.014122 0.000372409 -4.88774e-18)
(0.0137597 0.000596146 6.82976e-18)
(0.0139039 0.000465023 6.60236e-18)
(-0.000440537 -0.00233303 -9.79063e-18)
(-0.000499731 -0.00237815 -5.66478e-18)
(0.0146335 -5.73475e-05 7.07451e-18)
(0.0146732 -0.000112214 -1.79479e-17)
(0.0143535 4.26901e-05 -1.09082e-17)
(0.0150886 -0.000754021 8.68804e-18)
(0.0148826 -0.000729472 3.05636e-17)
(0.0151384 -0.000737308 -3.21022e-17)
(-0.0076398 0.0106911 4.82791e-18)
(-0.00787267 0.0106582 -9.69124e-18)
(-0.000694249 -8.48172e-05 -4.87735e-19)
(-0.000723282 -7.76967e-05 -1.07966e-18)
(-0.00046859 -0.0085481 2.22141e-17)
(-0.000435632 -0.00827459 -2.29342e-17)
(-0.000861583 -0.00852532 -3.36086e-17)
(-0.00727428 0.00441968 3.05657e-18)
(-0.00743873 0.00440204 -3.38372e-17)
(-0.0073257 0.00425798 -9.54011e-18)
(0.013852 -0.000762282 1.3011e-17)
(0.0137042 -0.000680966 -2.8197e-18)
(0.0138217 -0.000757139 -2.53843e-17)
(-0.000599204 -0.000879263 8.04601e-19)
(-0.000621912 -0.00086772 -8.61006e-20)
(-0.000621135 -0.000905589 3.92687e-19)
(0.0371462 0.0038042 2.77291e-17)
(0.0366585 0.00377987 3.74263e-17)
(-0.00105309 -0.000717525 1.35499e-19)
(-0.00106684 -0.000681184 2.36695e-19)
(-0.00999856 0.00028531 2.59767e-17)
(-0.00982189 0.000394169 4.66127e-18)
(-0.00980262 0.000189744 -2.62605e-19)
(-0.000312691 -2.7561e-05 1.29274e-19)
(-0.000312659 -2.14657e-05 2.31848e-19)
(0.0153582 -0.000654723 -9.75355e-18)
(0.0156645 -0.000646956 1.71861e-17)
(0.0155443 -0.000662784 1.59196e-17)
(0.0169227 0.000803472 -3.03506e-17)
(0.0168647 0.000694262 -5.09744e-18)
(0.017879 0.00100374 -1.19702e-17)
(-0.00250822 -0.00272787 3.15232e-18)
(-0.00254779 -0.00263109 8.93647e-19)
(-0.00783495 -0.0110148 2.14229e-17)
(-0.00165622 -0.00781572 6.27898e-18)
(-0.00847622 -0.0113447 5.60723e-18)
(-0.00466913 -0.000117969 6.93721e-19)
(-0.00456796 -1.13884e-05 -1.01185e-17)
(-0.000678862 -0.000108477 3.84261e-19)
(-0.000664817 -8.95438e-05 -1.45669e-18)
(0.0112847 0.00663545 1.28054e-17)
(0.0116091 0.00615135 2.13942e-17)
(-0.00551054 0.0114509 -9.8479e-18)
(-0.00548339 0.0111676 -9.05653e-18)
(-0.00609002 0.00155055 -5.08863e-18)
(-0.00621789 0.00163758 -7.3399e-18)
(0.0143476 0.000364367 -8.7713e-18)
(0.0142649 0.000177749 -3.07741e-17)
(0.0143004 0.000451323 -2.24071e-18)
(0.0150369 -0.000829319 1.0248e-17)
(0.0148614 -0.00082152 6.60821e-18)
(-0.000371077 -2.9367e-06 2.24054e-18)
(-0.000373599 5.4607e-06 -9.78291e-19)
(-0.000366049 3.22134e-06 2.07962e-18)
(-0.00437746 -0.00137548 3.91444e-18)
(-0.00440562 -0.0015144 1.00913e-18)
(0.0146007 -0.0005449 1.19363e-17)
(0.0145892 -0.00050508 -5.97291e-18)
(0.00577453 -0.00145269 -6.67778e-18)
(0.00495729 -0.00146585 -4.43091e-17)
(0.00547308 -0.00135027 -4.10997e-17)
(-1.81886e-05 -0.000177852 4.47169e-20)
(-2.03869e-05 -0.000206792 8.43783e-19)
(-0.000368658 -0.00032517 -5.70093e-20)
(-0.000387765 -0.000319931 6.63775e-20)
(-0.000386567 -0.00033977 8.6864e-20)
(0.0172498 0.000852537 1.82264e-18)
(0.0163462 0.00101797 -3.44669e-18)
(-0.00865866 0.00717086 -7.50199e-18)
(-0.00878762 0.00717697 5.77759e-18)
(-0.00760633 0.00726958 -6.51842e-18)
(-2.51487e-06 -5.79594e-06 -1.07864e-19)
(-1.13967e-06 -4.42681e-06 1.79276e-19)
(-2.45246e-06 -7.29191e-06 -7.91863e-19)
(0.00951929 0.0078725 -1.61821e-18)
(0.00900118 0.00827706 9.07106e-18)
(0.00877547 0.00861894 1.09454e-17)
(-0.00964841 0.00308001 1.63191e-18)
(-0.0096181 0.00324988 -5.8914e-18)
(-0.00947385 0.00311203 1.57081e-18)
(0.000385997 -0.00499345 -2.3715e-17)
(0.00044387 -0.00505469 -3.25487e-17)
(-0.00560361 -0.00172846 2.11139e-18)
(-0.00574281 -0.00182906 -4.22595e-18)
(-0.00572131 -0.00164879 4.8311e-18)
(-1.65465e-05 -0.000195419 2.12719e-18)
(-1.61616e-05 -0.000163389 5.72906e-19)
(-0.00357076 -0.00511239 -3.60561e-19)
(-0.00352864 -0.00492567 1.949e-18)
(-0.00338411 -0.00505976 8.84675e-19)
(0.0153125 -0.000781075 1.57946e-17)
(0.0153912 -0.000797489 -7.68425e-18)
(0.0155268 -0.000815733 -4.57808e-18)
(-0.000723925 0.0017283 3.97862e-19)
(-0.000684686 0.00179396 -5.12181e-18)
(-0.000760753 0.00180218 1.38401e-18)
(-0.0100568 -0.00305054 1.79362e-17)
(-0.00978012 -0.00313273 3.80213e-17)
(-0.00986371 -0.00284152 -1.67201e-18)
(-0.000379915 -0.00691191 -6.67562e-18)
(-0.000419345 -0.00711148 -5.55613e-17)
(-0.000201546 -0.00714097 2.73469e-17)
(-0.00170748 0.000179203 4.36353e-19)
(-0.00173812 0.000228613 1.21622e-18)
(-0.000830072 -0.0014372 -2.17735e-20)
(-0.000830451 -0.00148097 1.96898e-18)
(-0.00644591 0.00782406 -3.96101e-18)
(-0.00665188 0.00782042 2.69149e-18)
(-0.00653469 0.00801487 -8.6099e-18)
(0.0165671 0.00104074 1.30432e-17)
(0.0168557 0.000868207 9.18528e-18)
(0.0174877 0.000851724 -1.02083e-17)
(-0.00710471 0.00812821 -9.25659e-18)
(-0.00714097 0.00790359 1.02963e-18)
(-0.00202973 -0.00396203 -3.01506e-18)
(-0.00196249 -0.00406854 2.87446e-18)
(-0.00219611 -0.00303834 -2.69631e-18)
(-0.00222897 -0.00314509 -1.21375e-18)
(-2.44089e-06 -1.27929e-05 1.53013e-20)
(-2.281e-06 -1.10649e-05 -2.78581e-19)
(-8.5041e-07 -7.46103e-06 -5.72257e-19)
(0.0200407 -0.000460065 6.26552e-18)
(0.0200439 -0.000454393 -2.42333e-17)
(0.0219888 0.00208678 -2.35993e-17)
(0.023942 0.00254127 -1.21091e-18)
(0.0241091 0.0026632 -1.93056e-17)
(0.0061832 0.00873294 9.55633e-18)
(0.00689438 0.00830626 -1.64298e-17)
(0.00675503 0.00806798 7.10464e-18)
(-0.000666085 -0.000127692 6.70823e-20)
(-0.000692653 -0.000121336 6.07335e-20)
(0.0143765 -0.000591506 -3.26088e-17)
(0.014238 -0.000562861 -1.54225e-17)
(0.0142332 -0.000570147 -6.39365e-18)
(0.0177228 -0.000702874 -3.33313e-18)
(0.0177931 -0.000684726 8.59141e-18)
(0.0181035 -0.000727494 1.67282e-17)
(0.0194342 0.00364426 -8.64164e-18)
(0.0191168 0.00364985 -2.83156e-17)
(0.0145723 0.00136497 3.86364e-18)
(0.0151557 0.00119935 3.60165e-19)
(-0.00449211 0.0117365 -1.16773e-17)
(-0.00429174 0.0119473 7.89504e-18)
(-2.97453e-05 -0.000234783 -1.08518e-18)
(-0.000266577 -2.49006e-05 3.10503e-20)
(-0.000256421 -2.71541e-05 6.46285e-20)
(-0.000267486 -3.67489e-05 -3.77621e-21)
(-0.00758593 0.00314245 -1.62348e-18)
(-0.00743433 0.00316382 -1.88264e-17)
(-0.00755693 0.00330268 -7.779e-19)
(0.015415 -0.000677544 -1.48775e-18)
(0.0157208 -0.000696671 -7.74067e-18)
(0.0156895 -0.000733017 2.07651e-18)
(-0.00941064 0.00539586 -1.63084e-18)
(-0.00949538 0.00526595 1.85951e-17)
(-0.00985328 0.00541954 2.87308e-17)
(-0.00368803 0.000591691 -1.5366e-18)
(-0.00375182 0.000699224 -4.37679e-19)
(0.0270184 0.00612398 -8.36905e-18)
(0.0265015 0.00536361 6.01169e-18)
(-0.00254344 0.00865837 3.90227e-18)
(-0.00239559 0.00852761 -5.91045e-18)
(-0.000167489 0.000101392 8.4001e-19)
(-0.000182038 0.000118381 5.91816e-19)
(-0.000157297 0.000122259 1.20215e-18)
(0.0329086 0.00512265 -1.12043e-17)
(0.0326496 0.00506183 1.50205e-17)
(0.0323191 0.00438934 -1.59227e-17)
(-0.000132341 -0.000259293 -5.57907e-19)
(-0.000128776 -0.000245647 -2.90331e-19)
(-0.000117574 -0.000241659 -2.37883e-19)
(0.0195946 0.00252012 5.35106e-18)
(0.0186102 0.00211363 -1.94705e-17)
(-0.00283906 0.00381804 4.02106e-18)
(-0.00275992 0.00394267 -2.91256e-18)
(-2.73374e-06 -4.48232e-06 9.19539e-19)
(-4.23811e-06 -7.10933e-06 3.63457e-19)
(-0.00287181 -0.00290964 -1.51202e-19)
(-0.00286209 -0.00304205 4.90027e-19)
(-0.00275824 -0.00293907 -1.98614e-19)
(-0.00419875 -0.00442782 -1.78467e-19)
(-0.00406528 -0.00434445 -3.58354e-19)
(0.000331094 -0.00517918 -1.82719e-17)
(0.000282396 -0.00507604 4.75101e-18)
(0.00999614 0.00717808 2.61062e-18)
(0.0099433 0.00755686 -9.3987e-18)
(-0.00329244 -0.00361509 -5.16388e-19)
(-0.00337948 -0.00378576 2.11982e-19)
(-0.00314931 -0.003746 -1.19079e-18)
(-0.00126722 0.00153224 -5.8859e-18)
(-0.00134152 0.00151584 -8.24836e-18)
(-0.00128082 0.00146909 -1.16149e-18)
(0.0115083 0.00816007 1.38596e-17)
(0.0121519 0.00939926 -2.26107e-17)
(0.0226052 0.00929552 -1.48087e-17)
(0.0145469 0.000577218 -2.62777e-18)
(0.0143713 0.000265175 8.90293e-18)
(0.0203096 0.00155987 3.86762e-18)
(0.0205634 0.00173164 -1.41489e-17)
(-0.000581238 -0.00089675 -3.06979e-20)
(-0.000570503 -0.000861414 6.46236e-19)
(0.0204516 0.00398189 -9.1472e-18)
(0.0206441 0.0045053 -2.33899e-17)
(0.0207761 0.00400609 1.25555e-18)
(-1.2722e-06 -0.000534134 -9.05687e-19)
(-3.07349e-06 -0.000543274 -3.68799e-18)
(1.03316e-06 -0.000590229 2.06043e-18)
(-0.0012004 0.00155416 2.80176e-18)
(-0.00126054 0.00160819 -2.01496e-18)
(-0.000362157 -0.000822737 -1.62458e-18)
(-0.00037977 -0.000812125 -2.78762e-18)
(-0.00225569 -0.0100989 3.33901e-18)