/*--------------------------------*- C++ -*----------------------------------*\
| =========                 |                                                 |
| \\      /  F ield         | OpenFOAM: The Open Source CFD Toolbox           |
|  \\    /   O peration     | Version:  v2012                                 |
|   \\  /    A nd           | Website:  www.openfoam.com                      |
|    \\/     M anipulation  |                                                 |
\*---------------------------------------------------------------------------*/
FoamFile
{
    version     2.0;
    format      ascii;
    class       surfaceVectorField;
    location    "950";
    object      ddtCorrDdt0(Uf);
}
// * * * * * * * * * * * * * * * * * * * * * * * * * * * * * * * * * * * * * //

dimensions      [0 1 -2 0 0 0 0];


internalField   nonuniform List<vector> 
20642
(
(0.0101489 0.00189763 2.91097e-18)
(0.0101562 0.0018771 4.53722e-18)
(0.010866 0.00185267 -9.64262e-18)
(-0.00229893 -0.00116554 8.38388e-19)
(-0.00227624 -0.0012531 3.25731e-19)
(-0.00237833 -0.00125996 -6.74041e-19)
(-0.00296422 0.00356591 -2.78494e-18)
(-0.00297483 0.0035849 1.96759e-18)
(-0.00277991 0.00357179 -1.95245e-18)
(-0.00176794 0.00063774 -4.9185e-19)
(-0.00181182 0.000629716 3.37658e-20)
(-0.00177081 0.000600929 1.66343e-19)
(0.000597352 -0.00306895 -1.40476e-19)
(0.000814216 -0.00353372 6.71085e-21)
(0.000234132 -0.0034808 -2.21459e-19)
(-0.00236897 -0.00105103 1.37869e-19)
(-0.00226136 -0.00099747 -2.09647e-20)
(-0.0026145 0.00162324 7.0416e-20)
(-0.00260871 0.00156535 -6.25024e-20)
(-0.00266525 0.00159479 9.28114e-20)
(-0.0020651 -0.00171409 -1.71185e-21)
(-0.00219896 -0.00200493 -3.90989e-18)
(-0.00234194 -0.00152936 1.65335e-18)
(-0.00181129 0.00176673 -5.64524e-19)
(-0.00184541 0.00175472 6.77944e-19)
(-0.00184906 0.00180295 -3.49458e-19)
(6.32544e-05 0.00103428 1.62128e-18)
(-2.91703e-05 0.00104091 -6.6914e-18)
(-0.00144286 -0.00199832 -2.88088e-18)
(-0.00180534 -0.00187714 1.01808e-18)
(-0.00159115 9.6112e-05 5.67548e-19)
(-0.00163766 9.7249e-05 -8.55871e-20)
(-0.00160184 0.000126985 -1.3856e-19)
(-0.000485207 5.65671e-06 -3.51735e-19)
(-0.000479187 5.81704e-06 6.06806e-19)
(-0.00479234 -0.00311272 -1.0324e-18)
(-0.0031577 -0.00276122 2.80712e-18)
(-0.0053392 -0.00142158 2.46486e-18)
(-0.00287108 -0.000940558 -9.17864e-20)
(-0.00288689 -0.000882718 1.72254e-19)
(-0.00280968 -0.000920929 -9.71401e-21)
(0.0098907 0.00188498 5.31575e-18)
(0.00853332 0.00184852 4.28651e-18)
(0.00167053 2.85429e-05 2.0135e-19)
(0.00167423 2.73205e-05 2.08213e-20)
(0.00133104 2.0949e-05 1.17845e-19)
(-0.00162803 -0.00238528 -2.2528e-18)
(-0.0022439 -0.00245387 1.1185e-18)
(-0.00226203 -0.00222704 2.77898e-19)
(-0.00302801 0.00351558 1.88336e-19)
(-0.00300809 0.00352661 -7.95396e-19)
(-0.00303337 0.00354769 5.71786e-19)
(0.00760468 0.00162036 -1.01726e-17)
(0.00918364 0.00159236 7.49331e-19)
(0.00943305 0.00174147 -3.15314e-18)
(-0.00412653 -0.000993478 -2.37974e-18)
(-0.0042593 -0.00105013 2.66417e-20)
(-0.00413977 -0.00112146 -5.42526e-19)
(-0.00107045 -0.00129836 1.78148e-19)
(-0.00108966 -0.00125269 5.67921e-19)
(-0.00112984 -0.00132283 1.38397e-20)
(-0.00320952 0.00269085 4.02389e-19)
(-0.00315604 0.00268093 2.26877e-19)
(-0.00319627 0.00274206 5.4929e-19)
(-0.00104314 -0.00134821 -6.29079e-20)
(-0.00101938 -0.00128001 -2.89833e-20)
(-0.00247112 0.000451144 -4.30892e-19)
(-0.0025144 0.000487378 -1.05749e-19)
(-0.00252021 0.000433709 -4.35311e-19)
(-0.00410608 -0.00153447 -1.19955e-19)
(-0.00412291 -0.00139714 3.81567e-19)
(-0.00397065 -0.00144518 1.21298e-20)
(0.0182474 0.000895469 2.53764e-18)
(0.0190791 0.000463307 -6.55255e-19)
(0.0185416 0.00033869 7.7511e-19)
(0.000308786 0.00088774 -3.73677e-18)
(-0.00325614 -0.00250371 1.39308e-18)
(-0.00345146 -0.00241684 -5.16377e-19)
(-0.0032464 -0.00229268 1.38704e-18)
(0.00134536 0.000883456 7.15295e-21)
(0.0013355 0.000915269 -3.81365e-21)
(0.00130867 0.000885148 1.1315e-19)
(3.61745e-05 0.00089189 3.54531e-18)
(9.38616e-05 0.000976156 -1.62281e-18)
(-0.00276035 0.0030937 9.27053e-19)
(-0.00274589 0.00311317 1.46512e-18)
(-0.00278119 0.00311166 -1.60003e-20)
(-0.00201232 0.000365449 -4.95261e-19)
(-0.00197035 0.000341722 3.59827e-19)
(-0.0019626 0.000378504 -2.56258e-19)
(0.0124998 0.0017399 2.37323e-18)
(0.0128392 0.00172028 2.80164e-18)
(0.0129472 0.00171455 1.4933e-18)
(0.00133783 -0.00162554 1.70516e-22)
(0.00135588 -0.00159148 -1.31108e-19)
(0.00137965 -0.00162693 2.68908e-19)
(-0.00159728 -0.00207878 -2.45434e-18)
(-0.00141058 -0.00242367 -3.76783e-18)
(-0.00268615 -0.000543931 2.75668e-19)
(-0.00272519 -0.000510965 1.34959e-19)
(-0.00275229 -0.00056814 -2.31501e-19)
(0.000132969 -2.88006e-05 2.78639e-19)
(0.000166878 -4.84289e-05 5.65074e-19)
(0.000100822 -2.51818e-05 4.65691e-20)
(-0.00262315 0.00167562 8.29317e-20)
(-0.00256831 0.00164434 5.45084e-20)
(-0.00513006 0.000197436 -2.46111e-19)
(-0.00529955 0.000254458 6.63782e-20)
(-0.00511555 0.000355937 4.97376e-19)
(0.000760241 -1.33484e-05 -1.60784e-19)
(0.000628689 -6.92415e-06 -1.49411e-20)
(0.0010945 3.73444e-05 -2.80162e-21)
(0.00314171 -0.000659139 3.95141e-21)
(0.0031979 -0.000669163 -1.09537e-19)
(0.00316027 -0.000703815 -1.45988e-20)
(-0.00167608 0.00153682 -1.88999e-19)
(-0.00170217 0.00151167 4.54009e-20)
(-0.00165339 0.0015041 7.82713e-20)
(-0.00291142 0.00340537 1.67165e-18)
(-0.00289444 0.00339408 -6.662e-19)
(-0.00290241 0.00341987 2.25966e-18)
(-0.00292805 0.00339536 -3.94666e-19)
(-0.00293066 0.00342424 2.6167e-19)
(-0.0040477 0.00643156 1.92556e-19)
(-0.00494552 0.0062123 -6.6845e-19)
(-0.00321534 0.00639423 2.76331e-19)
(-0.00399576 -0.000917206 -9.64825e-19)
(-0.00410221 -0.000846406 -8.28117e-19)
(0.000978914 -0.0038177 5.81914e-18)
(8.55534e-06 -0.00361183 4.04142e-18)
(2.35754e-05 -0.00443822 1.04765e-19)
(0.0138709 -0.0131801 1.68123e-18)
(0.012816 -0.0158105 -1.23899e-18)
(0.0142184 -0.0135316 -1.84593e-18)
(0.00130388 -0.00162848 5.60675e-20)
(0.00134042 -0.00166458 3.47124e-20)
(-0.00158308 6.62331e-05 1.07292e-18)
(-0.00154728 9.28506e-05 -7.86473e-19)
(-0.00401735 0.00444664 2.55333e-19)
(-0.00405971 0.00461764 1.16988e-20)
(-0.00420167 0.00447461 9.49354e-21)
(0.0080619 0.00147539 1.21442e-19)
(0.0107312 0.00168025 -6.48533e-18)
(0.00801569 0.00149155 -1.67295e-18)
(-0.00159292 -0.000447277 6.71438e-20)
(-0.00154505 -0.000438759 1.74809e-19)
(-0.00156925 -0.000474524 6.24124e-19)
(-0.00169591 -0.000392199 9.88224e-19)
(-0.00164508 -0.000387018 1.06014e-19)
(-0.00166131 -0.00035352 2.80222e-19)
(-0.00397317 0.00435305 5.35768e-19)
(-0.00390844 0.00444634 5.14467e-20)
(0.00236228 0.00119429 8.23434e-19)
(-0.00326513 0.00269256 -2.76451e-19)
(-0.00321836 0.00263212 1.3155e-19)
(0.00308188 -0.000642844 -6.63263e-20)
(0.00312785 -0.000619657 2.15674e-19)
(0.00221623 0.00566429 1.4918e-21)
(-0.00581892 0.00625605 1.3115e-18)
(0.0168418 0.00733378 2.055e-19)
(0.0145301 0.00773335 7.98767e-19)
(0.0139474 0.0070685 -3.19596e-19)
(-0.000669681 0.00122385 -2.44518e-19)
(-6.36059e-05 0.00179813 -3.12499e-20)
(0.000297923 0.000829833 3.03604e-20)
(0.000775428 2.62191e-05 7.59546e-20)
(0.000821395 3.94468e-05 -1.18483e-20)
(0.000858893 5.74076e-05 1.0852e-20)
(-0.00241613 0.000471251 -4.48004e-19)
(-0.00242278 0.000420331 -2.29618e-19)
(0.0172624 0.00174028 -5.79181e-19)
(0.0173106 0.00167166 -6.98206e-18)
(0.0172432 0.00166064 -5.27175e-18)
(0.00237765 0.000788633 -4.20343e-20)
(0.00217248 0.000929534 1.47748e-21)
(0.00209451 0.000853798 2.3361e-20)
(-0.00307565 -0.00255844 1.37704e-18)
(-0.00286828 -0.00260322 1.8685e-19)
(-0.00291459 -0.00238665 2.02568e-19)
(-0.00173153 -0.00171501 -5.72416e-19)
(-0.00067714 -0.00241573 1.96899e-18)
(-0.00104004 -0.00236108 1.96255e-19)
(0.0116316 0.00174242 -2.13282e-18)
(0.0108828 0.00174968 -8.89935e-19)
(0.0110318 0.00175404 -5.86968e-18)
(0.0119828 0.00239377 -2.10713e-18)
(0.0109764 0.00247886 3.05974e-19)
(0.0145018 0.00225777 7.52263e-18)
(0.0121241 0.00174721 1.62112e-18)
(0.0122373 0.00176696 -2.18119e-18)
(-0.0011528 0.000529558 4.32942e-19)
(-0.00117876 0.000557503 -1.30039e-19)
(-0.00118665 0.000526326 3.3719e-20)
(0.00302806 -0.000623846 -1.05188e-19)
(0.00303535 -0.000674463 -8.0902e-20)
(-0.00441026 -0.00110661 2.96078e-19)
(-0.00439021 -0.00096489 1.4938e-18)
(-0.00272437 0.000143507 -8.95456e-19)
(-0.00277915 0.000181256 9.39405e-19)
(-0.00277316 0.000110616 -2.00994e-19)
(-0.00106537 -0.00239563 2.79697e-19)
(-0.00110758 -0.00253563 -2.52325e-20)
(-0.00124011 -0.00240598 -2.74326e-19)
(0.00297406 -0.000600868 1.57527e-19)
(0.00302357 -0.00057509 -3.00421e-20)
(-0.00267154 0.000183949 -5.04924e-19)
(-0.00265908 0.000118213 -1.57493e-19)
(-0.00205289 0.000359339 -3.66804e-19)
(-0.00204682 0.000397115 4.00502e-19)
(-0.00189637 -0.000900255 -1.93535e-20)
(-0.00186373 -0.000937856 1.55058e-19)
(-0.00182806 -0.000887383 1.11044e-19)
(0.0016725 2.28249e-05 -1.3879e-19)
(0.00168503 2.30335e-05 1.61262e-19)
(0.00140334 2.24931e-05 3.14002e-19)
(-0.00112012 0.000531607 9.67182e-19)
(-0.00112366 0.000504826 2.87368e-19)
(0.0122289 0.00212484 6.64879e-18)
(0.0074335 0.00261202 -1.35613e-18)
(0.00778657 0.00250952 -5.02927e-19)
(-0.000560055 -0.000100089 1.39918e-19)
(-0.00057181 -0.00011072 -5.76748e-19)
(-0.000553435 -0.000114485 3.61754e-20)
(-0.00359812 -0.00670534 -1.28316e-18)
(-0.00173839 -0.00708527 2.52629e-19)
(-0.0019102 -0.00614124 -8.69816e-19)
(-0.0027417 0.0030683 -1.2645e-18)
(-0.00277832 0.00307561 -7.84539e-19)
(-0.000534071 -5.567e-05 2.14724e-19)
(-0.000520278 -6.02141e-05 3.10226e-19)
(-0.000525444 -4.2256e-05 -1.39802e-20)
(-0.00495977 0.00015417 -7.62943e-19)
(-0.00511066 3.29268e-05 1.38522e-18)
(0.0016432 3.02777e-05 1.25916e-19)
(0.00179584 3.00564e-05 1.80859e-19)
(0.00191002 3.2533e-05 8.68264e-20)
(0.00189972 3.6204e-05 1.38133e-19)
(0.00192709 3.75731e-05 -1.38723e-19)
(-0.00170782 0.00156954 -1.99579e-19)
(0.0148742 -0.00988748 8.65407e-19)
(0.0131543 -0.0119629 1.86583e-18)
(0.00150918 -0.00140879 -3.09882e-19)
(0.00155903 -0.00144032 2.02394e-19)
(0.00155456 -0.00138135 -1.52353e-19)
(-0.00200118 -0.000542229 -3.42622e-19)
(-0.00196852 -0.000570934 -2.32489e-19)
(-0.0020297 -0.000582115 -2.92708e-19)
(-0.00329338 -0.00275258 -3.04649e-20)
(0.015415 -0.0008213 3.76976e-18)
(0.0156978 -0.00131935 4.24225e-18)
(0.0146931 -0.00170415 4.65721e-19)
(0.00130588 -6.45549e-05 -2.02592e-19)
(0.00127849 -6.48397e-05 7.71831e-20)
(0.00119875 -3.80314e-05 -3.26575e-19)
(-0.000541403 -6.64103e-05 -6.51927e-19)
(-0.000545012 -5.09547e-05 -1.61119e-19)
(-0.0105349 6.86045e-05 -3.51671e-19)
(-0.0106303 -0.000297156 -2.21277e-18)
(-0.0107087 -0.000518861 1.98146e-18)
(0.00104529 2.87582e-05 1.23734e-19)
(0.00105788 2.49146e-05 3.91498e-20)
(0.000798905 1.49233e-05 1.79339e-20)
(0.00104896 2.94647e-05 -1.64689e-20)
(0.00117136 2.89523e-05 -4.06774e-20)
(-0.0019571 -0.000910248 -3.04211e-19)
(-0.00191533 -0.000867099 6.78783e-19)
(0.00117144 -0.000128434 -4.73404e-20)
(0.00114246 -0.000124711 -4.77831e-19)
(0.0011573 -9.76291e-05 4.1828e-20)
(-0.00103484 -0.00220626 -3.09053e-19)
(-0.000903301 -0.00228533 -2.15065e-19)
(0.00149841 0.00332434 6.68418e-19)
(0.00244697 0.00301153 3.69903e-18)
(0.00786253 0.00221487 7.79469e-18)
(0.0117111 0.000205227 1.10968e-18)
(0.011503 0.000434995 4.44204e-18)
(0.0110447 0.000113591 -5.47213e-18)
(-0.00111794 0.000439428 -1.66707e-19)
(-0.00198284 0.00135801 4.58503e-19)
(0.0032335 -0.000641838 4.86204e-20)
(0.00325883 -0.000667521 -9.5346e-21)
(0.0172811 0.00123332 -1.3965e-18)
(0.0176434 0.0012253 2.38973e-18)
(-0.00051795 4.45924e-05 -1.46326e-19)
(-0.000514996 5.70256e-05 -1.87183e-20)
(0.0132456 0.00169986 3.44467e-18)
(0.0127874 0.00172479 5.18086e-19)
(-0.00360384 -0.00231705 -6.3907e-19)
(-0.00368299 -0.00254184 -2.76821e-19)
(0.0172468 0.00173205 -6.64749e-19)
(0.0167747 0.0018241 2.61148e-18)
(-0.00289771 -7.73798e-06 6.01149e-19)
(-0.00295294 3.48039e-05 4.98447e-19)
(-0.00285808 4.09561e-05 1.53662e-20)
(-0.00305025 0.00349992 4.41944e-19)
(-0.00302164 0.00348311 1.21478e-19)
(0.00172345 4.48173e-05 -5.43835e-20)
(0.00179089 6.55653e-05 4.38989e-20)
(0.00176307 5.42257e-05 -2.21735e-20)
(-0.00287154 0.00355344 1.11785e-18)
(-0.00285294 0.00354581 2.81321e-19)
(-0.00285124 0.00353148 2.74854e-18)
(-0.000916842 0.00050755 -2.01114e-19)
(-0.000947681 0.000509651 -1.05104e-18)
(-0.000920824 0.00048351 5.18446e-19)
(0.00175783 1.48648e-05 -1.72533e-19)
(0.0016464 2.35481e-05 -2.89006e-19)
(0.00287143 -0.000650303 1.13796e-19)
(0.00281407 -0.000671419 -5.61152e-20)
(0.00281286 -0.000615611 2.62221e-19)
(-0.00267297 -0.00258426 -1.07586e-20)
(-0.00282439 -0.00282806 9.3505e-19)
(-0.00338956 0.00366692 -2.08652e-19)
(-0.00344608 0.00370213 -1.42451e-18)
(-0.00343198 0.0036224 -3.39294e-20)
(0.0119089 0.0015616 3.86951e-18)
(0.0124374 0.00159015 7.40728e-19)
(0.0119033 0.00159206 -3.52916e-19)
(0.0144007 0.00191149 4.45416e-18)
(0.0146911 0.00183033 1.44942e-18)
(-0.00236827 0.000485025 3.28659e-19)
(-0.00231837 0.000498738 5.2512e-19)
(-0.00232058 0.000457011 -5.8417e-20)
(-0.00442838 -0.00125901 -3.64314e-19)
(-0.00457351 -0.00117141 7.91552e-19)
(0.000336038 -0.0014874 2.12636e-19)
(0.000403761 -0.00147449 -3.96931e-19)
(0.000358292 -0.00141852 7.23594e-20)
(-0.00334854 0.00362339 -7.52827e-19)
(-0.00335037 0.00369309 1.73751e-18)
(-0.00237592 0.0022874 -1.56588e-18)
(-0.00242367 0.00230376 -9.24297e-19)
(-0.00238573 0.00232565 -6.37651e-20)
(-0.00789866 0.00561999 2.23601e-18)
(-0.00868858 0.00551958 7.95734e-20)
(-0.00748704 0.00564837 -1.0207e-18)
(0.0184452 0.00133648 4.00378e-18)
(0.0182319 0.00132182 -8.11104e-20)
(0.0182055 0.00132345 3.21058e-18)
(-0.00294746 -5.50588e-05 2.07273e-19)
(-0.0028573 -5.5771e-05 2.39239e-20)
(-0.00281116 0.00321204 2.17832e-18)
(-0.00283352 0.0032284 3.07635e-18)
(-0.0028084 0.00323407 -1.73556e-18)
(0.0158922 0.00158214 -2.33836e-18)
(0.0168431 0.00117378 1.28397e-18)
(0.0112646 0.0085866 -3.25729e-19)
(0.014268 0.00803691 2.28544e-18)
(0.013881 0.00789569 -2.34204e-19)
(0.0126949 0.00147862 -7.50186e-19)
(0.0127488 0.00146754 -9.92949e-19)
(0.0132792 0.00146474 2.78084e-20)
(-0.00401753 -0.00182256 -1.26153e-19)
(-0.00408211 -0.00167158 -8.32863e-19)
(-0.00389164 -0.00171526 1.30172e-18)
(0.00016108 -2.87617e-05 -8.5912e-20)
(0.00838836 -0.0342161 -1.65018e-19)
(0.0018783 -0.0314664 -2.99693e-19)
(0.00463109 -0.0276095 -1.26448e-19)
(0.0029263 -0.000627164 1.01078e-19)
(0.0029205 -0.000574066 5.69716e-20)
(0.00194605 0.00312516 -5.19961e-18)
(-0.00360739 0.00366347 -6.70847e-18)
(-0.000670173 -0.000780466 -7.42271e-19)
(-0.000632803 -0.000772966 3.0547e-19)
(-0.00065488 -0.000814499 -2.28958e-19)
(-0.00110552 0.000436137 2.18728e-19)
(-0.00113106 0.00046129 -5.11477e-19)
(-0.00114381 0.000434635 5.49835e-20)
(0.00321097 -0.000589528 7.63472e-21)
(0.00321886 -0.000667058 1.16471e-20)
(0.00324008 -0.000605372 -6.22579e-21)
(0.00901436 0.00295688 -9.38454e-20)
(0.0135944 0.00198745 -2.36687e-18)
(0.0245445 -0.0312336 -1.03822e-18)
(0.000302547 -0.00257811 -5.89931e-18)
(0.00054685 -0.00190998 5.92439e-19)
(0.000456259 -0.00181696 -9.23016e-18)
(-0.0016227 -0.000417 -1.26441e-19)
(-0.0016497 -0.000455273 5.86378e-19)
(-0.00481109 0.000120724 -1.72532e-19)
(-0.00467841 8.67207e-05 1.45952e-18)
(-0.00479049 -2.40297e-05 1.10694e-18)
(0.000981906 2.20448e-05 -3.57879e-19)
(0.0010311 2.78461e-05 6.91112e-20)
(0.0011331 4.82772e-05 2.39144e-20)
(-0.00108261 0.000416625 2.63562e-19)
(-0.00107476 0.000435364 3.14508e-19)
(0.0160822 -0.000209723 -1.31406e-19)
(0.0150982 -0.000314622 -1.56315e-18)
(-0.000874458 -0.00161965 -7.63806e-20)
(-0.000891289 -0.00164051 9.05276e-20)
(-0.000869025 -0.00162974 -2.85541e-19)
(0.00120224 -0.000132652 2.66813e-19)
(0.00118129 -0.000159188 1.74662e-19)
(0.0182898 0.00133257 -3.95815e-19)
(0.0183106 0.00133841 2.00122e-18)
(0.0179663 0.00134552 -1.58634e-18)
(0.00142868 3.03362e-05 -3.85934e-19)
(0.00141632 2.8849e-05 2.26417e-19)
(0.00105714 1.25693e-05 8.77115e-20)
(0.00166656 4.04282e-05 -7.42751e-20)
(0.00157718 2.58863e-05 5.17712e-20)
(-0.000622685 -0.000332156 -2.27475e-19)
(-0.000647672 -0.000347207 9.5763e-20)
(-0.000617844 -0.000357675 -5.65826e-19)
(0.0182622 0.000822685 -1.90963e-18)
(0.0181686 0.000901374 3.60126e-18)
(0.0176431 0.000508598 1.23418e-18)
(-0.0028405 -0.000936158 -1.08855e-18)
(-0.00284221 -0.000890606 -5.85803e-19)
(-0.00278844 -0.000908028 -6.339e-19)
(0.0124884 -0.0391663 2.16503e-19)
(0.018337 0.000674608 4.11665e-18)
(0.0180363 -0.00011324 1.97229e-18)
(0.0186426 0.000454181 1.96049e-18)
(0.00903975 -0.00246901 2.19567e-18)
(0.000994036 -0.00128082 1.37227e-19)
(0.00185891 -0.00193082 3.22579e-18)
(0.00795096 0.0014225 4.17112e-18)
(0.00553191 -0.00367629 4.85681e-18)
(0.00951119 -0.00218837 -5.25013e-19)
(0.00691444 -0.00251056 7.80603e-18)
(0.000835486 0.000285324 -1.06328e-20)
(0.000844392 0.000315884 -1.78201e-21)
(0.000808628 0.000304204 -7.87278e-21)
(-0.00393797 -0.00197146 4.94591e-19)
(-0.00415776 -0.00195997 6.65085e-20)
(-0.00105399 -0.00139663 4.62979e-19)
(-0.00106456 -0.00144043 3.03514e-19)
(-0.00112132 -0.00141993 6.54648e-20)
(0.0179099 0.00135643 -1.05033e-18)
(0.0180025 0.00135545 3.77995e-19)
(0.0175976 0.00133166 4.56819e-20)
(-0.00176757 0.00174204 -7.26743e-19)
(0.0171086 0.00670108 1.03063e-19)
(0.0176849 0.00706217 -6.85874e-19)
(0.0170083 0.00709359 2.38295e-19)
(-0.00501978 0.00338281 -4.72693e-19)
(-0.00491353 0.00332558 2.67496e-19)
(-0.00493509 0.00348444 -3.54116e-20)
(0.00118349 2.86365e-05 -4.2673e-20)
(0.00135329 4.3637e-05 1.00305e-20)
(0.00116572 2.8612e-05 2.67534e-20)
(-0.00177944 0.000676212 8.2175e-20)
(-0.00173739 0.000652976 3.14615e-19)
(-0.00409497 0.00475131 9.88828e-21)
(-0.0042825 0.00495161 2.89297e-19)
(-0.00426904 0.00479312 3.81651e-20)
(-0.00232734 0.00226312 -1.05383e-18)
(-0.00236661 0.0022404 -3.55006e-19)
(-0.00289297 -0.000972006 3.60994e-19)
(-0.0028332 -0.000974138 1.53495e-19)
(-0.00172443 0.00148599 -2.96324e-20)
(-0.00170827 0.00144158 -1.03112e-19)
(-0.00176615 0.00145729 -6.82675e-20)
(-0.000992151 -0.00137764 -7.42965e-20)
(-0.00157535 4.11355e-05 7.62082e-20)
(-0.00161793 4.26351e-05 1.58945e-20)
(-0.0024107 0.00449041 1.91899e-18)
(-0.00291795 0.00444416 6.44948e-19)
(-0.00202874 0.00440512 7.01516e-19)
(-0.00288937 0.00356352 9.0682e-19)
(-0.0029826 0.00357812 4.26293e-18)
(-0.00801167 0.00557374 5.35474e-19)
(0.00250616 0.00479698 -2.13135e-19)
(-0.00153372 3.70985e-05 -6.10232e-19)
(-0.00156604 1.30388e-05 -2.73396e-20)
(-0.00301869 0.00480414 -1.60561e-19)
(-0.00244218 0.0046068 -2.39763e-19)
(0.00138169 0.000878929 -4.65785e-20)
(0.001346 0.000850109 -1.77832e-21)
(-0.00458971 -0.00566389 2.88017e-19)
(-0.00566401 -0.00644023 -1.06978e-18)
(-0.00515615 0.00329395 -5.24799e-19)
(-0.00517458 0.00347494 4.67862e-19)
(-0.00293904 0.00337701 -7.56516e-19)
(-0.00291473 0.00336554 -8.98672e-20)
(-0.00325919 0.00426497 -1.35706e-18)
(-0.00327435 0.00418887 -4.54173e-19)
(-0.0033226 0.0042609 2.48194e-19)
(0.010116 0.00184702 3.09986e-18)
(0.0106519 0.00180344 -6.16705e-18)
(0.00995014 0.00186123 -4.71443e-18)
(0.00147901 -0.00144124 8.3263e-20)
(0.0014751 -0.00138821 1.28888e-19)
(0.0118461 0.00165066 4.23633e-19)
(0.0123702 0.00161723 3.60812e-18)
(0.0118628 0.00161824 2.55601e-18)
(-0.00314921 0.000827708 -8.13524e-19)
(-0.00321554 0.000808608 -2.52069e-19)
(-0.00314638 0.000763755 1.98364e-19)
(0.0185382 0.00133944 -2.92236e-18)
(0.0185984 0.00134045 -3.33683e-19)
(0.00139298 -0.00157029 -2.97755e-19)
(0.00134105 -0.00155362 -1.23641e-20)
(-0.000852629 -0.00159213 1.93424e-20)
(-0.000882172 -0.00159849 2.28997e-19)
(-0.00384769 -0.000745806 1.10875e-19)
(-0.00391734 -0.000659321 -6.81689e-20)
(-0.00379723 -0.000642694 -4.62618e-19)
(0.0106312 0.00182429 -3.55115e-19)
(0.010814 0.00178548 -1.66712e-19)
(0.0113522 0.00181696 2.20948e-18)
(0.0125779 0.00148903 1.33702e-18)
(0.0114322 0.00147122 4.83149e-19)
(-0.00248759 -0.000647733 2.02102e-19)
(-0.00254271 -0.000662507 -3.3115e-19)
(-0.00250457 -0.000689382 1.30919e-18)
(0.0200871 0.000630304 1.95447e-18)
(0.0203007 0.000437799 -8.60104e-18)
(0.020309 0.000797424 1.10119e-18)
(-0.00308254 -0.00163407 9.08579e-20)
(-0.00298451 -0.0015792 5.974e-20)
(-0.00306422 -0.0015229 -1.06124e-18)
(-0.00482604 0.000258374 -2.96821e-19)
(0.00293005 -0.000681797 -9.82328e-20)
(-0.00396471 0.00470252 -7.82765e-20)
(-0.00182173 -0.000970006 2.45279e-19)
(-0.00188943 -0.000982876 5.49365e-19)
(0.00056793 -0.00100457 3.60184e-19)
(0.000575316 -0.000955664 -1.38804e-19)
(0.000617446 -0.000993258 -8.91064e-20)
(0.00376415 -0.00436905 1.78269e-19)
(0.0035147 -0.00345888 -8.72483e-20)
(0.00284561 -0.0044163 -1.13775e-20)
(0.00551738 -0.00468998 3.8921e-19)
(0.0041916 -0.00587323 -7.72854e-20)
(0.00217057 -0.00304948 -3.02358e-18)
(-0.00280966 0.00318458 -1.64665e-18)
(-0.00278091 0.0031967 -2.57956e-18)
(-0.00425359 -0.00163094 6.37007e-19)
(0.0157884 0.00112431 -1.33372e-18)
(0.0158155 0.000997915 4.56193e-18)
(0.0163974 0.00117242 -1.53563e-18)
(-0.000128995 -7.17806e-05 1.37551e-19)
(-0.000151983 -4.89328e-05 -3.48348e-19)
(-0.000161881 -8.17557e-05 -4.32072e-21)
(0.00232396 4.89055e-05 -1.69034e-19)
(0.0023473 3.12006e-05 9.8865e-20)
(0.00229934 2.7994e-05 2.46933e-20)
(0.00234526 6.8943e-05 -1.15529e-20)
(0.00230137 6.72833e-05 -1.96925e-20)
(0.00432661 -0.00459533 -5.27947e-19)
(-0.00340527 0.00451198 -6.0571e-19)
(-0.00329719 0.00436452 3.53532e-20)
(-0.00341838 0.00449379 9.11486e-19)
(-0.00373143 0.00506328 3.47751e-20)
(-0.00359428 0.00523604 1.30396e-18)
(-0.00387541 0.00521291 -8.49641e-20)
(-0.00063438 5.76483e-05 -4.3468e-19)
(-0.000646357 6.48855e-05 -2.80134e-18)
(-0.000629771 6.61654e-05 -1.05914e-18)
(0.000729406 2.21157e-05 2.2264e-20)
(0.000593583 9.30343e-06 1.2241e-20)
(0.0145796 0.00180779 3.84689e-18)
(0.0142734 0.00196453 -3.06062e-18)
(0.0117816 0.00166453 -9.36539e-19)
(0.00220278 1.80815e-05 -3.03787e-20)
(0.00223153 2.71714e-05 8.94302e-21)
(0.0022253 5.5576e-06 1.21374e-19)
(0.00217236 9.95042e-06 -2.61596e-19)
(0.00217914 2.84652e-05 -9.87304e-20)
(0.0010477 -1.94128e-05 -4.12711e-20)
(0.000553746 -8.81016e-06 1.20554e-19)
(0.00236858 9.07216e-05 2.48917e-20)
(0.00239671 7.48192e-05 9.96789e-20)
(0.00238919 0.000116432 -2.98292e-21)
(0.00234515 0.000109568 -4.5643e-20)
(0.0117461 0.00177227 5.70419e-18)
(0.011947 0.00176121 -3.6761e-19)
(0.00470644 -0.00307818 -2.79522e-18)
(0.00465018 -0.0037437 -1.03233e-18)
(0.0088664 -0.00310957 -3.56881e-18)
(-0.00150205 -0.00113368 -2.53547e-20)
(-0.00144065 -0.00111471 -8.00082e-19)
(-0.00148799 -0.00108763 5.71651e-19)
(0.000924335 0.000482574 2.24528e-20)
(0.000948317 0.000507661 6.51703e-21)
(0.000957981 0.000475595 1.24492e-20)
(-0.00404318 0.00359588 3.29456e-19)
(-0.00415322 0.00360215 -8.47553e-20)
(-0.00409312 0.00351525 -9.52712e-20)
(0.0124391 0.00174479 2.09697e-18)
(0.0121007 0.00176196 4.38464e-18)
(0.0123911 0.00175651 1.91924e-19)
(0.00163048 3.50535e-05 1.12618e-20)
(0.00144442 3.19298e-05 -4.82276e-20)
(0.00143378 2.90382e-05 -1.40595e-19)
(-0.000637899 5.05442e-05 1.37142e-18)
(-0.000625665 5.26928e-05 2.41115e-18)
(0.0195328 0.000533756 1.46419e-18)
(0.0190594 0.00107508 -1.02218e-18)
(0.00213511 0.00307613 2.37198e-18)
(0.00254686 0.00304637 3.87096e-18)
(-0.00320809 0.00350827 4.58616e-19)
(-0.00319619 0.00440292 -8.98567e-19)
(0.0158689 0.00123004 -3.62404e-18)
(0.0151328 0.00107326 5.3551e-19)
(-0.00519165 0.00425945 3.77534e-19)
(-0.00537586 0.00422674 4.91731e-19)
(-0.00531672 0.00440299 1.57662e-18)
(-0.00068209 -0.000752556 -7.5263e-19)
(-0.000705902 -0.000791068 -6.03489e-19)
(0.0124199 -0.00191221 6.08303e-19)
(0.0137122 -0.000776898 -2.05142e-19)
(-0.00396553 0.00361509 2.51742e-19)
(-0.00402509 0.0036831 1.21322e-18)
(-0.00374797 -0.00221592 1.95173e-19)
(-0.00353179 -0.00214876 6.70874e-19)
(-0.00312528 0.0032581 -3.47144e-18)
(-0.00313616 0.00329286 6.19723e-19)
(-0.00309621 0.00327911 -1.20836e-19)
(-0.00243462 -0.000637335 -8.38225e-20)
(-0.00246939 -0.000605832 -1.29885e-19)
(0.00548004 -0.00263458 -5.92824e-18)
(-0.000974556 0.000512921 -7.97703e-20)
(-0.000975417 0.000490706 -6.6244e-19)
(-0.00100029 0.000513706 6.75057e-19)
(-0.00482809 0.00163016 5.06264e-19)
(-0.00493897 0.0016558 -3.24389e-19)
(-0.00482663 0.00172644 -1.47046e-19)
(-0.00485133 0.00323363 4.71547e-19)
(-0.00475554 0.00311711 -5.39987e-19)
(-0.00491154 0.0031078 -2.7131e-19)
(-0.00152843 -0.00123508 -1.67728e-20)
(-0.00151267 -0.00117738 2.23379e-19)
(-0.0014659 -0.00121651 -1.68078e-19)
(0.000633432 7.48864e-06 -4.01137e-20)
(-0.00241348 0.000516931 3.49017e-19)
(0.000300301 -0.000904317 -1.73829e-20)
(-6.3978e-05 -0.00105346 3.90995e-19)
(-3.76477e-05 -0.000568949 2.34444e-19)
(0.00173392 -0.00167186 -2.36308e-21)
(0.00166627 -0.00168062 -4.01485e-20)
(0.00170836 -0.00173783 2.37548e-20)
(0.0131305 0.00157352 -3.39431e-18)
(0.0127543 0.00160393 -3.64485e-18)
(0.0127867 0.00159189 -3.40181e-18)
(0.0098052 -0.0215471 3.66646e-19)
(0.00797978 -0.0203272 3.07673e-19)
(0.00833678 -0.020796 2.25318e-19)
(0.00273908 -0.000916768 4.60504e-20)
(0.00266451 -0.000936483 2.34844e-20)
(0.00267523 -0.000867491 3.26681e-20)
(0.00216071 -9.19299e-06 1.14168e-19)
(0.00214358 5.44643e-06 6.74312e-20)
(-0.000911939 -0.00166274 2.68092e-19)
(-0.000893101 -0.00166611 2.8397e-19)
(0.00217753 -2.35696e-05 9.83994e-20)
(0.00214706 -2.5047e-05 -6.55339e-20)
(-0.000972433 0.000534579 -7.25033e-19)
(-0.000600302 9.33109e-06 -2.72851e-19)
(-0.000477393 4.11576e-06 4.44289e-19)
(-0.00360271 0.00210487 -2.28434e-20)
(-0.00362004 0.00217856 2.66498e-20)
(-0.00368625 0.00213755 -2.5616e-20)
(0.00281231 -0.000897471 -2.28337e-19)
(0.00280527 -0.00097256 4.27646e-20)
(0.0133999 0.00141424 -5.66601e-19)
(0.0137625 0.00142354 -2.24385e-18)
(0.011924 -0.000102218 4.12115e-19)
(0.0124757 0.000290368 4.67459e-18)
(-0.00133804 -0.000105598 4.0108e-19)
(-0.00131059 -8.22801e-05 3.68418e-19)
(-0.00129937 -0.000112473 5.46997e-19)
(-0.000494821 -0.00157482 -9.91628e-20)
(-0.000264627 -0.00162828 -5.05983e-19)
(-0.000424595 -0.00178423 -3.88103e-19)
(0.00909589 0.00522861 -7.21038e-19)
(0.00850842 0.00561742 1.05685e-18)
(0.0148639 0.00497072 1.05371e-18)
(0.0021891 0.000354615 -7.12206e-20)
(0.00219176 0.000379459 2.07496e-19)
(0.00216078 0.000354845 -4.30139e-20)
(-0.00947575 -0.000806275 1.04682e-18)
(-0.0097869 -0.000547999 3.33867e-19)
(-0.0092376 -0.000390493 1.47512e-18)
(0.0134933 0.00155856 -6.68109e-19)
(0.0135196 0.00155059 6.06894e-19)
(0.00218494 0.000332273 1.97172e-20)
(0.0022203 0.000356445 -5.39531e-20)
(0.0118521 0.0017684 9.26746e-19)
(0.0119638 0.00172849 -2.64604e-18)
(0.00180082 -0.00165337 9.00272e-20)
(0.00174801 -0.00159983 9.61568e-20)
(0.0187878 0.00117719 -3.99955e-18)
(0.0185147 0.000846434 -4.82175e-18)
(0.00116679 2.69313e-05 1.59847e-19)
(0.000884017 1.25202e-05 -1.31757e-19)
(-0.00279095 -0.00105502 4.0926e-20)
(-0.00281925 -0.00111568 -4.26235e-19)
(-0.00272993 -0.00111275 4.82623e-20)
(-0.00155645 -0.00127526 2.52426e-19)
(-0.00159589 -0.00123682 -1.92668e-19)
(-0.00054633 -0.000875823 -3.96419e-20)
(-0.000500516 -0.000880063 -1.88192e-19)
(-0.000512187 -0.000843424 -7.39934e-19)
(-0.00301153 0.00380104 -5.90379e-19)
(-0.00303805 0.00377272 1.36535e-18)
(-0.00299429 0.00375371 4.90391e-18)
(0.000478833 -7.849e-05 1.03473e-19)
(0.000439222 -7.45598e-05 -6.35703e-19)
(0.000420956 -4.23636e-05 -3.91763e-20)
(0.0143128 -0.00228043 3.46535e-18)
(0.015032 -0.00196084 8.01711e-19)
(-0.00371113 0.000732735 -2.28427e-19)
(-0.00379578 0.000703268 -1.32098e-20)
(-0.00370252 0.000652529 2.06918e-19)
(0.00322912 -0.000496037 1.64949e-20)
(0.0031738 -0.000555621 -5.18381e-20)
(0.0199674 0.000684606 2.99336e-18)
(0.0200476 0.000432684 -3.28845e-18)
(0.0184788 0.000460774 1.66966e-18)
(0.0128536 0.00143622 -3.50732e-19)
(0.00175657 4.22332e-05 1.62801e-19)
(0.00174167 4.41762e-05 -6.96604e-20)
(-0.00365186 0.00286077 3.49446e-19)
(-0.00362388 0.00292227 -2.04235e-19)
(-0.00357391 0.00285994 -8.71523e-20)
(0.000679996 -0.00182008 -2.62032e-19)
(0.000582139 -0.00132871 2.54372e-19)
(0.000306865 -0.00178558 5.72793e-19)
(-0.00298843 -9.82139e-05 -1.44596e-19)
(-0.00303458 -0.000150903 1.76029e-19)
(-0.00294135 -0.000150089 6.14362e-21)
(0.000752369 -0.00247105 -4.53528e-19)
(0.000302129 -0.00266147 -7.5075e-20)
(-0.00262717 0.00021576 -5.09377e-19)
(-0.00268331 0.000246507 1.01532e-20)
(0.00160364 -0.00147491 2.57731e-19)
(0.00164983 -0.001511 -1.83473e-19)
(0.00165381 -0.00145043 -4.55015e-20)
(0.000509052 -0.000110443 -2.57978e-19)
(0.000520075 -7.71222e-05 2.19227e-19)
(-0.00470586 0.00496279 1.06492e-19)
(-0.00473648 0.0051471 1.13891e-20)
(-0.00445147 0.00486217 7.77947e-20)
(-0.00721511 -0.0172551 -2.12341e-19)
(-0.00712008 -0.0207135 -2.94796e-19)
(-0.00277863 -0.0172559 3.25852e-19)
(-0.00469877 0.00161244 2.28463e-19)
(-0.00480701 0.00153334 -1.57078e-20)
(-0.00258144 0.000250299 4.18015e-19)
(-0.00257254 0.000196679 -2.33108e-19)
(-0.000639055 4.41582e-05 -6.18345e-19)
(-0.000631069 3.89588e-05 -3.23469e-19)
(-0.000640999 3.71765e-05 7.11979e-19)
(0.018269 0.00132858 -4.57936e-18)
(0.0185413 0.00133771 -2.06841e-18)
(0.0102419 0.00184782 1.09596e-18)
(0.00899038 0.00183051 -1.01374e-18)
(0.000593934 -0.00142496 1.76267e-19)
(0.000655655 -0.00140322 2.4666e-20)
(0.000604638 -0.00135786 6.48761e-19)
(0.00245512 0.000443292 -1.80046e-20)
(0.00255022 0.000420933 4.46633e-20)
(0.00247954 0.000483944 1.44424e-20)
(-0.00303519 -5.5604e-05 1.10851e-19)
(0.00313987 -0.0141005 -7.56218e-19)
(0.00722337 -0.00701338 1.01649e-18)
(0.00445424 -0.00868096 1.96677e-18)
(-0.00276425 0.00338869 -6.61682e-20)
(-0.00277113 0.00340063 2.42465e-18)
(-0.00275455 0.00339317 -9.57897e-19)
(0.0126534 0.000793594 -4.62899e-18)
(0.0121841 0.000924285 -4.24766e-18)
(0.0118822 0.000685928 2.55938e-18)
(0.0172256 0.00636693 -2.46415e-19)
(0.0167342 0.00651836 -5.9964e-19)
(0.00224563 0.00115146 -8.16142e-21)
(0.0021995 0.00103822 6.37862e-21)
(0.00250593 0.00104953 -1.14234e-21)
(-0.0076754 0.00517157 -1.10576e-18)
(-0.00777489 0.00506123 2.29369e-19)
(-0.000628657 -0.00158594 3.11121e-19)