/*--------------------------------*- C++ -*----------------------------------*\
| =========                 |                                                 |
| \\      /  F ield         | OpenFOAM: The Open Source CFD Toolbox           |
|  \\    /   O peration     | Version:  v2012                                 |
|   \\  /    A nd           | Website:  www.openfoam.com                      |
|    \\/     M anipulation  |                                                 |
\*---------------------------------------------------------------------------*/
FoamFile
{
    version     2.0;
    format      ascii;
    class       volVectorField;
    location    "50";
    object      ddt0(U);
}
// * * * * * * * * * * * * * * * * * * * * * * * * * * * * * * * * * * * * * //

dimensions      [0 1 -2 0 0 0 0];


internalField   nonuniform List<vector> 
13917
(
(-0.00163838 0.0110938 6.32972e-18)
(0.00897363 -0.00657289 1.60644e-19)
(-0.0234229 0.0202164 -1.18302e-17)
(0.00120284 -0.000400929 -7.26649e-18)
(0.00151556 -0.00296652 -2.01947e-19)
(0.00955563 -0.00488945 6.43151e-20)
(0.00239983 -0.00166854 -1.79194e-17)
(-0.0045316 -0.0427732 -2.1236e-18)
(0.00120632 -0.00245601 -1.31343e-17)
(-0.019922 0.051708 2.25453e-17)
(-0.00293752 -0.0368874 2.31789e-18)
(0.0009189 -0.000358872 -1.29625e-17)
(7.6497e-05 -3.25648e-06 -7.99273e-19)
(-0.131852 -0.0507353 3.97204e-18)
(0.00379529 0.00160208 2.06372e-20)
(0.0002222 0.00768711 -8.9359e-18)
(-0.000311135 -6.40931e-06 -5.13055e-21)
(-0.00947659 -0.026813 -4.24067e-18)
(-0.00516089 0.0103073 -1.05654e-17)
(0.0268614 0.0506482 3.00735e-17)
(-0.0019801 0.00350673 -9.51503e-19)
(0.000609255 0.000706926 -5.59513e-20)
(0.00218216 -0.0030374 1.91582e-18)
(0.000590722 0.00061631 1.02408e-18)
(0.00174661 -0.00019143 4.67968e-18)
(-0.00437422 0.00241608 -5.05361e-19)
(0.116952 0.114446 -3.17672e-18)
(-0.0203757 0.0457742 -1.69365e-17)
(-0.0111796 -0.00661743 8.78201e-19)
(-0.000663711 6.85223e-05 3.62062e-21)
(-0.0208263 0.045227 -6.95112e-19)
(0.00511361 -0.000812372 3.40467e-18)
(0.00126844 -0.000317506 1.24866e-19)
(-0.0215525 0.0109709 -1.52235e-17)
(-0.000505628 0.00204604 7.57607e-20)
(0.00530577 -0.0505771 1.41592e-18)
(0.0011372 0.000342194 -1.62093e-18)
(-0.000185502 1.90485e-05 -2.56955e-18)
(0.00238699 -0.00177411 2.93107e-17)
(0.00623242 0.00621474 2.46586e-18)
(-4.18208e-05 1.26023e-05 -3.24777e-19)
(0.0026233 -0.00317998 -1.74096e-18)
(0.00115651 -0.00200673 1.04408e-18)
(0.00509893 0.00984928 -1.47512e-18)
(0.00370987 0.00941666 -5.69068e-18)
(-0.0262674 -0.0683908 -6.07133e-18)
(-0.00121088 0.00298905 6.24318e-19)
(-0.0402165 0.101406 6.66336e-18)
(0.126724 0.0186521 -3.13641e-19)
(-0.000346248 0.00194841 -5.17381e-19)
(0.000911554 -0.000355063 9.62024e-18)
(-0.0114376 -0.0272905 -1.30577e-18)
(-0.0285801 -0.00128303 -2.47539e-17)
(0.000884818 0.000501173 2.08884e-18)
(0.000968861 0.000466123 -3.61673e-18)
(-0.0129638 -0.0238096 -5.65929e-18)
(0.0102209 0.038143 -1.63554e-18)
(0.00215578 -0.00312953 1.22758e-18)
(0.00245576 -0.00248846 1.44845e-18)
(-0.0241099 -0.0747921 1.30843e-18)
(-0.132724 -0.0512385 5.43191e-18)
(0.00146569 0.011725 -3.96887e-20)
(-0.000425729 -3.17679e-05 3.31513e-20)
(0.00169353 -0.00021517 -3.40672e-18)
(-0.0323186 0.0297571 3.75869e-18)
(-0.00109389 -0.000447818 -5.59438e-21)
(-0.0119454 -0.0117088 -1.22751e-18)
(0.01115 -0.0479632 -4.02005e-20)
(-0.011488 -0.0322469 -3.73156e-19)
(-0.0225715 0.00155423 1.37607e-17)
(-0.0273592 0.0254756 1.62922e-18)
(-0.0199659 0.00973099 1.52897e-17)
(0.000679647 -0.000472423 -1.74233e-18)
(0.00183275 -0.002373 4.17452e-19)
(-0.00190404 0.00436163 2.12093e-18)
(0.00167036 4.78422e-05 9.84192e-18)
(0.000398996 -0.000243837 -2.75293e-19)
(0.00165049 -0.00188927 7.86543e-19)
(0.00162407 -1.16448e-05 5.40061e-18)
(0.00130239 -0.000315868 7.37665e-18)
(0.00103086 0.000285 -3.74866e-19)
(-0.000736685 -9.29863e-05 2.06213e-19)
(0.000689044 -0.00047153 1.6236e-18)
(-0.0269756 0.0126713 -6.95856e-18)
(0.000204004 3.96853e-05 -5.76132e-19)
(-0.0737327 -0.0145539 2.51702e-18)
(0.00462892 -0.0011101 1.12559e-17)
(0.000170356 2.25657e-05 -4.97931e-18)
(0.00529408 0.00613285 1.2165e-18)
(-0.000358037 2.78883e-05 1.31266e-18)
(-0.000507032 4.85395e-05 -2.47295e-19)
(0.001062 -0.00209125 7.42919e-18)
(0.122184 0.0254673 -3.70907e-19)
(-0.00141354 0.00134028 -2.82327e-19)
(0.00114287 0.000633005 -5.49445e-18)
(-0.0137245 -0.0081846 1.77695e-18)
(0.016684 0.124532 3.48563e-18)
(-0.000540218 3.24489e-05 -1.02754e-18)
(0.00019048 2.73488e-05 5.20743e-18)
(0.0261753 0.0575935 6.50721e-19)
(-0.000204166 8.35331e-07 -2.09015e-20)
(-0.000210608 1.48597e-05 -3.66501e-20)
(0.00108191 0.000327201 -6.32118e-19)
(-0.000593542 -2.71159e-05 5.96012e-19)
(0.000567115 -0.000316065 1.91678e-19)
(-0.0269337 -0.0118883 1.65309e-17)
(-0.0252968 0.0639373 -5.18319e-18)
(-0.00013015 0.0126457 1.24618e-19)
(0.00331504 -0.003398 -7.60155e-20)
(0.118512 0.129812 2.42027e-18)
(0.000269352 -5.92271e-05 -5.829e-18)
(-0.0211433 0.0132671 1.4831e-17)
(-0.0119885 -0.00360518 -7.50643e-19)
(-0.0481006 0.113177 8.3456e-18)
(-0.0315154 0.0286207 -1.22473e-18)
(0.00164417 0.000230941 5.15122e-18)
(-0.00370749 0.00887507 8.26632e-18)
(-9.34662e-05 -7.17866e-05 -1.18544e-19)
(0.000472049 0.0246663 1.00334e-17)
(0.000528009 -0.00056126 -4.53074e-18)
(-0.000843407 -0.000113756 -4.16078e-19)
(0.000530625 -0.0020163 4.44013e-21)
(-0.0145531 -0.0143191 -1.19726e-18)
(-0.00972088 -0.00327938 1.26148e-17)
(-0.0300563 -0.000732558 3.84623e-17)
(-0.0278055 0.0127548 -3.57758e-18)
(0.00162264 -0.000258107 -9.33929e-18)
(-0.00269991 0.00511802 5.31874e-19)
(0.000195881 0.000888985 7.74533e-19)
(-0.0100078 -0.00207134 -1.47851e-17)
(0.002114 -0.00317839 5.59873e-18)
(0.0738691 -0.0407925 -2.52907e-18)
(-0.0296 -0.00569168 -5.36567e-18)
(0.0015651 0.00023347 1.02295e-18)
(0.00581707 0.00157217 2.08316e-17)
(0.105905 0.15501 -3.80525e-18)
(-0.113486 -0.0934819 1.07288e-18)
(-0.0289135 -0.0023664 2.12639e-17)
(-0.00624431 0.00148683 1.43885e-20)
(-0.000205383 1.2253e-05 1.54559e-18)
(-0.0808439 -0.0643057 -8.46267e-19)
(0.00116538 -0.00184058 3.46448e-19)
(-0.0269484 -0.0128468 -6.40181e-18)
(0.000364962 0.00046562 2.01233e-19)
(0.00066945 -0.000344961 -1.76394e-17)
(0.00776374 -0.00269135 1.43515e-18)
(-0.0267368 0.0241953 4.19297e-18)
(-0.0802419 -0.080471 2.55093e-18)
(-0.0260799 0.0935032 -7.90926e-19)
(0.000927899 0.000514084 -1.72386e-18)
(0.00417521 0.00497677 1.87469e-18)
(-0.000304656 2.61305e-05 5.90145e-20)
(0.000644262 -0.000344268 7.27566e-18)
(0.000489804 -0.000596575 5.97809e-18)
(0.0110419 0.145766 2.71386e-18)
(0.000827969 0.000452792 -3.77967e-19)
(-0.000611383 -1.97523e-05 -8.66393e-19)
(-0.028692 -0.00696766 -1.49989e-17)
(-1.98465e-05 -2.5805e-05 -2.42913e-19)
(-8.77895e-05 -6.03921e-05 -1.39413e-19)
(0.000322818 0.00012671 3.39493e-18)
(-0.0570692 0.0398622 1.23786e-17)
(0.00118012 -0.000184191 4.28131e-19)
(-0.076711 -0.086522 1.11852e-18)
(-0.0858681 0.0330741 1.14777e-17)
(0.033057 0.0768394 -1.1241e-18)
(-0.0227893 -0.00129964 2.51362e-17)
(-0.129394 0.0605131 -4.60573e-18)
(-0.000508038 9.68531e-06 6.62667e-21)
(-0.00780787 0.00157015 -3.6915e-19)
(0.000584906 0.000528822 3.69877e-19)
(-0.0321218 0.000165518 1.84865e-17)
(0.00112373 -0.00247186 5.35882e-18)
(-0.0986648 -0.0553263 -3.31233e-18)
(0.00929197 -0.014829 -9.30702e-18)
(-0.000205496 4.1572e-05 2.69571e-19)
(0.00118324 -0.000426355 4.3216e-18)
(-0.0124846 -0.03428 8.15149e-18)
(0.00214576 -0.00314618 -2.6187e-17)
(0.00110982 -0.000395365 -1.9591e-19)
(0.00119586 -0.00188104 -2.56342e-17)
(0.000586194 0.000517385 -6.23487e-19)
(0.000921335 -0.000335288 -1.38315e-18)
(-0.0381918 -0.0157138 -4.10972e-18)
(-0.00384157 0.0256953 -5.69703e-18)
(0.0826052 -0.0344984 2.988e-19)
(0.000891464 -0.000322683 6.41377e-18)
(-0.0395068 -0.0206665 -3.62356e-18)
(-0.000706821 0.00012109 3.36182e-21)
(-0.0606761 -0.0145798 1.49998e-19)
(0.0111842 -0.0148538 -5.3522e-18)
(0.00323464 0.00748475 -4.63796e-17)
(-0.0272162 -0.00983796 5.98326e-18)
(0.00701327 0.0191316 -6.86543e-18)
(-0.00126429 0.00140005 -1.39786e-18)
(-0.0294955 -0.000485336 1.63659e-17)
(0.00293545 8.77288e-06 3.77902e-18)
(-0.0287116 -0.00637665 6.79703e-18)
(-0.000651305 0.00192568 1.32538e-19)
(0.000756096 0.000435586 6.59266e-19)
(-0.000162766 0.00226982 -1.14486e-18)
(-0.0201361 0.00215256 -2.92419e-17)
(-0.0292343 -0.00212459 -3.68072e-17)
(0.00131108 0.000511718 3.52804e-18)
(0.137129 0.0610529 7.14944e-19)
(-0.00189363 -0.00468609 1.6454e-19)
(0.00489839 0.00509659 1.84667e-18)
(0.000899942 -0.00219654 -4.0936e-19)
(-0.0146614 -0.0303672 -4.10288e-18)
(0.00101803 0.000287466 -3.82028e-19)
(-0.000210348 0.00071845 1.29369e-18)
(0.00473603 -0.00607723 3.41021e-19)
(0.00524134 -0.00736292 -7.84841e-19)
(-0.0318801 0.0915557 5.64581e-18)
(0.00585308 0.000955263 7.21939e-18)
(-0.00551875 0.00282361 7.92782e-20)
(-0.0372417 0.042782 6.68496e-18)
(-3.7519e-05 3.33438e-05 4.96495e-18)
(-0.000552259 -0.000554897 2.96012e-19)
(-0.000583415 -0.000582577 1.12851e-18)
(-0.123291 0.0794607 -1.33061e-17)
(-0.0329523 -0.0137137 2.02165e-17)
(-0.0413717 -0.0267829 1.52368e-17)
(0.00028937 -5.81801e-05 -1.86965e-19)
(-0.000393301 -2.51866e-05 -2.10771e-20)
(0.133718 0.164664 -3.65675e-18)
(-0.0284554 -0.000663542 -9.51398e-18)
(-0.00049909 -0.000688383 7.84067e-19)
(-0.000498924 -0.000699512 2.19713e-19)
(-2.6676e-05 8.11728e-06 1.4506e-19)
(-0.000555762 -0.000577184 -4.98585e-19)
(-0.000561394 -0.000609749 5.55917e-20)
(-0.0178705 0.00944151 -1.3506e-17)
(-0.0492992 0.0771649 -1.07538e-17)
(0.000790705 0.000680822 1.23004e-19)
(-0.000194047 0.000171186 1.31113e-20)
(-0.0015547 -0.0124546 4.61594e-18)
(-0.0245794 0.00430387 -4.04671e-18)
(-0.000178945 -1.49691e-06 1.93972e-19)
(0.000272151 -5.48075e-05 3.96208e-18)
(0.13819 0.0838944 -2.65254e-19)
(-0.0259667 -0.0148946 -1.91311e-17)
(-0.0377743 -0.0143665 -4.14493e-18)
(-0.0351458 0.0426608 -1.01768e-17)
(0.0114954 -0.0284676 -7.23558e-18)
(0.000388141 0.000506012 -8.88383e-20)
(-0.10801 0.0519664 1.41086e-17)
(-0.00326481 -0.0124223 -9.85768e-18)
(-0.00985968 -0.00285246 1.83183e-18)
(-0.000903609 0.00106868 5.19068e-18)
(0.00128256 0.000541555 5.45114e-19)
(-0.0392075 0.0811378 4.98938e-18)
(0.000594893 -0.000536138 8.72606e-19)
(0.00942568 -0.000719785 8.64008e-18)
(0.00870915 -0.0120514 -1.89685e-18)
(0.000756233 0.000830115 2.48245e-19)
(-3.83719e-05 4.38728e-06 6.60586e-20)
(0.00168433 -0.000238834 8.38228e-18)
(0.00295132 0.000300795 2.69841e-19)
(-0.00242462 0.00192349 -5.28714e-19)
(-0.0309582 -0.000338548 9.58536e-18)
(-0.074348 -0.317389 2.64172e-19)
(-0.000659026 -0.00242289 3.83652e-19)
(-0.000486442 -0.000724627 -5.06846e-19)
(0.000848362 0.000343224 3.3196e-20)
(-0.000492576 -0.000730573 7.7633e-19)
(0.000583334 -0.000566767 5.53329e-18)
(0.000213827 -7.49964e-06 -3.06925e-18)
(0.00416236 -0.0030612 3.67882e-18)
(-0.000559218 -0.00277596 2.47817e-19)
(-0.0268132 -0.00312475 -6.64436e-18)
(-0.0316501 0.0621597 4.26757e-18)
(0.000752198 -8.31635e-05 5.11798e-18)
(0.00173301 -0.000202202 2.32211e-20)
(-0.0404493 -0.0887649 9.2313e-18)
(5.13084e-05 -0.000526898 4.45149e-19)
(0.0178073 0.0452288 -6.65539e-18)
(-0.0315915 -0.000313402 1.5371e-17)
(-2.69079e-05 -0.000446682 -1.3155e-19)
(-0.0238616 0.0024076 -6.44665e-18)
(-0.00238808 0.00166997 3.81504e-19)
(-0.0595926 0.0363138 7.54425e-18)
(-0.00020925 2.99297e-05 -3.24871e-20)
(0.00260278 0.00143879 2.35811e-19)
(0.000785904 0.000863302 -1.72507e-18)
(0.000329635 0.000314477 -3.50368e-18)
(-0.0191931 0.0122399 -3.38334e-18)
(-0.00032345 3.84839e-05 1.47982e-18)
(0.0381209 0.0868509 2.56812e-19)
(0.00384861 0.000846698 -1.31421e-18)
(-0.0712477 -0.354891 -8.53715e-18)
(0.00808784 -0.00406484 -5.92617e-19)
(0.125724 0.0427599 -3.02884e-19)
(-0.0270287 -0.00250108 -6.71952e-18)
(-0.000185929 -8.03765e-06 1.96416e-19)
(0.00159175 -0.00491427 -8.62556e-18)
(0.00278111 -0.00110189 -2.27757e-20)
(0.00146522 0.000362649 -3.11096e-18)
(0.00199806 -0.00235684 1.35772e-19)
(0.00167606 -5.47817e-05 -2.06264e-18)
(-0.00173875 0.00142853 -3.23452e-19)
(-0.000358803 5.2561e-05 -8.27658e-19)
(-0.00539282 -0.0391574 5.17984e-19)
(-0.00576479 -0.010286 -6.33993e-20)
(0.00888727 -0.000536658 -3.63722e-18)
(0.00163072 -9.54221e-05 -3.68871e-18)
(0.000258143 -6.09696e-05 -2.50056e-18)
(-0.0287069 -0.00689708 2.43548e-17)
(-0.0180574 0.00139678 2.61545e-17)
(1.65803e-05 0.00103895 -2.37975e-19)
(-1.56553e-07 0.00390254 -8.34418e-20)
(0.00154698 0.00036502 -1.24457e-18)
(0.0470978 -0.0102991 -3.04608e-19)
(0.0159365 0.00352406 -4.04508e-17)
(-0.0242813 0.0544582 6.15821e-19)
(-0.0900225 -0.0501046 4.63404e-18)
(-0.000955822 -0.000458141 -3.51639e-21)
(0.0591226 -0.0355118 4.55646e-18)
(0.00166797 0.000151103 -4.61721e-20)
(-0.0265529 0.0144696 1.28787e-20)
(0.0562883 -0.0178452 1.44647e-20)
(-0.0215118 0.0190653 -4.17387e-18)
(0.000195505 -2.73534e-06 -4.48831e-19)
(0.00334642 0.00174075 1.12604e-20)
(0.121749 0.0957739 2.30622e-18)
(0.000625638 0.000327872 -3.02837e-19)
(0.0101413 -0.00817439 -4.95822e-19)
(0.00207208 0.00698957 3.84209e-17)
(-0.000404144 -8.39226e-06 3.4613e-19)
(-0.032003 0.000998186 -9.9462e-18)
(0.000167534 2.99364e-05 -2.75986e-18)
(0.00280714 -0.00460348 1.49489e-17)
(0.00133416 -0.000291298 -3.78536e-20)
(0.0497952 0.0555247 1.08938e-18)
(-0.000249885 0.000296236 -2.83435e-18)
(0.00778508 -0.000738115 -9.11513e-18)
(-0.00297594 -0.00475126 -1.6691e-21)
(-0.000895694 -0.000428145 1.72799e-21)
(-0.000473685 4.77788e-06 6.27828e-20)
(0.000444504 0.00168829 9.91106e-18)
(-0.0287203 -0.00807158 -4.54439e-17)
(0.00112116 0.000586711 -3.23754e-18)
(0.000650061 0.000292886 2.89013e-19)
(-0.0232906 0.0144519 -6.76137e-19)
(-0.0282581 -0.0104987 2.24198e-17)
(-0.0794572 -0.00858003 1.31373e-17)
(-0.148205 -0.0877399 -2.57177e-18)
(-0.000101783 -0.000304081 -2.24637e-20)
(0.000835599 0.000338483 -1.53253e-19)
(-0.0247197 -0.0163647 4.89775e-18)
(0.0529425 -0.0398773 -9.69857e-18)
(-0.000182682 -0.000271867 1.08023e-19)
(0.00280979 -0.00189411 -1.57413e-20)
(0.00093464 4.3509e-05 -3.76901e-18)
(-0.00819284 0.0158426 1.16552e-18)
(0.00819445 -0.000970214 6.11252e-18)
(-0.0175079 -0.00911338 5.6406e-18)
(0.030231 -0.0194658 -5.25527e-18)
(0.0127629 0.0456335 2.87028e-18)
(0.00268033 -0.00403108 1.5122e-17)
(-0.00915009 0.0201482 1.39148e-17)
(0.000238796 0.000854741 -8.6385e-19)
(0.00112751 0.000545861 -2.00198e-19)
(0.00171941 -0.00372492 4.27213e-19)
(-0.0134015 0.024245 1.31847e-17)
(-0.000179154 -1.31184e-05 4.54033e-19)
(0.00838374 0.0141842 7.82595e-18)
(0.00240151 -0.00411541 -7.35693e-18)
(-0.0018236 0.00494733 -5.6683e-20)
(0.000966047 0.000490875 -1.76801e-18)
(0.0415049 -0.0322414 6.16311e-19)
(0.000474886 0.00394815 -8.42878e-20)
(0.0974914 0.0350223 3.25991e-18)
(0.00306636 -0.000667871 6.47761e-20)
(-0.0400739 -0.0209253 -4.22756e-18)
(-0.0402201 -0.0809656 -2.51895e-18)
(-0.00415123 -0.00581818 3.01343e-19)
(0.000774968 -7.3374e-05 -4.49574e-18)
(-0.0249433 0.0283898 1.91511e-17)
(0.00180368 0.000130819 2.05195e-19)
(-0.0926757 0.0273301 -7.63558e-18)
(-0.0309684 -0.00944536 -4.76688e-18)
(0.0030915 -0.000102541 8.55885e-19)
(0.101028 0.0226925 -1.15936e-18)
(0.000717238 0.00108107 -1.73378e-19)
(0.00380839 0.00950131 -2.63968e-20)
(-0.00114952 0.000955549 4.32047e-19)
(0.0176407 0.0534046 -3.28891e-17)
(0.00369808 0.00986031 6.91084e-20)
(0.00123875 0.000217174 4.81301e-18)
(0.145436 0.138964 2.17525e-18)
(0.00637103 0.0371398 2.55855e-18)
(0.00127795 0.000594252 6.08354e-19)
(-0.0788941 0.0205655 -3.3991e-18)
(-0.0334574 -0.0223016 1.66082e-17)
(0.00127672 8.87901e-05 1.4394e-18)
(-0.0214547 0.0114795 2.84728e-18)
(0.000815276 0.000180372 -3.44176e-18)
(0.00180022 0.0408496 7.03314e-19)
(-0.0181078 0.0226926 1.41062e-17)
(0.000185738 3.13704e-05 6.37715e-19)
(0.00188447 -0.00204184 -6.21502e-18)
(0.00166346 -0.000123741 -5.34701e-18)
(0.000314698 0.000336991 1.45357e-18)
(2.96987e-05 0.00022245 5.57056e-18)
(0.000292262 0.000740873 1.12086e-18)
(-0.134806 -0.106588 -5.06649e-19)
(0.0411051 0.0669509 3.11446e-19)
(0.00108298 0.000514087 3.36703e-18)
(0.000353909 0.000857967 2.18914e-19)
(0.000538647 0.000567489 3.94789e-18)
(0.00354285 -0.00614288 -4.9749e-18)
(0.0392255 -0.0406881 4.57898e-18)
(0.000578561 -0.000638089 2.84542e-19)
(-0.000519554 5.97954e-05 -1.00424e-20)
(0.0142835 0.00409908 3.43698e-17)
(0.0442551 -0.0265084 -5.8659e-18)
(0.00033182 0.000337648 1.40721e-18)
(0.00123365 0.00018674 -7.77729e-18)
(-0.0831241 -0.0575442 2.81832e-18)
(0.0783584 0.134505 8.73349e-18)
(-0.00108771 -0.000534479 3.29039e-21)
(-0.00471022 0.0119021 1.5106e-18)
(-0.0268358 0.0145993 -6.97549e-19)
(-0.00110332 -3.27073e-05 -2.03723e-19)
(0.000419907 -0.000729604 3.52574e-19)
(-0.00152319 0.0013125 1.52176e-18)
(1.09911e-05 0.000214763 1.4088e-18)
(0.000535134 -0.00074595 1.73885e-19)
(0.000788089 0.000712451 -1.6216e-18)
(0.000386406 -0.000808241 4.23898e-19)
(-0.00106522 -0.000157961 8.90517e-20)
(-0.0908917 0.0648291 5.30946e-18)
(0.000846545 0.000184353 4.44918e-18)
(0.0084538 0.0056498 -1.76018e-18)
(-0.0273243 -0.00342999 5.13456e-18)
(0.0019934 -0.00504468 4.01908e-19)
(-0.000170749 0.000741364 -1.40382e-18)
(0.000623448 -0.000306859 -8.22543e-18)
(-0.0761724 0.0243382 1.34908e-17)
(-0.000621543 0.002043 1.95166e-18)
(-0.0300481 -0.000771837 -2.97008e-17)
(0.00106998 -0.000460556 -5.08299e-20)
(0.000397615 -0.000187082 -2.76051e-18)
(0.00204558 2.65195e-07 2.14862e-20)
(-0.000535514 -0.000623637 2.16872e-19)
(0.00114234 0.000377805 -1.51787e-18)
(0.000627603 0.00114543 1.1111e-18)
(-0.0808359 -0.0666121 1.61269e-18)
(0.00764702 0.00634233 -5.0186e-19)
(-0.025803 -0.0138821 8.13089e-18)
(0.000397861 -0.000186949 4.21999e-20)
(0.00246394 -0.00287975 -7.51427e-18)
(0.00951403 0.00415012 -5.6705e-19)
(0.000972789 0.000276697 -2.07737e-18)
(0.00819639 -0.0269085 6.38031e-18)
(-0.0812126 -0.0145581 -4.16587e-19)
(0.000912286 1.46016e-05 2.41865e-18)
(0.0980603 0.203413 -7.78589e-19)
(-9.1965e-05 0.000715044 -1.25938e-18)
(-0.000131667 9.21368e-05 2.76732e-18)
(0.000528751 0.000492325 -4.2862e-18)
(0.000767778 0.00103379 -1.54551e-18)
(-0.000304833 0.000642008 8.35707e-19)
(0.000128682 2.80889e-05 -1.82096e-18)
(-0.0295695 -0.00593037 -2.43506e-18)
(-0.113506 -0.045976 -9.22353e-18)
(-0.000338818 0.000596704 -1.07953e-18)
(0.132873 0.0314382 -5.29577e-19)
(0.0133217 0.00647046 2.23397e-17)
(0.000241484 -1.42736e-05 5.10215e-19)
(0.00102821 -0.00604783 4.12039e-18)
(0.00754849 -0.00692024 -1.35686e-17)
(-0.0734931 0.0361935 -1.00292e-17)
(0.00196017 -0.0023023 -6.91006e-18)
(-0.0271033 -0.0106918 -2.95384e-17)
(0.00532089 0.0174162 -5.25519e-20)
(0.00681623 0.0187618 -1.52789e-19)
(0.000676574 0.00115847 -4.17814e-19)
(-0.00102595 -0.000412972 2.0659e-21)
(0.0109324 0.00353722 6.91841e-19)
(0.00129631 0.00059776 -2.16435e-18)
(-0.0580299 -0.00324908 -1.99565e-18)
(-0.000482073 0.000105988 6.19493e-19)
(0.000855773 0.000476153 -8.61308e-19)
(0.0011426 0.000614001 -1.92937e-18)
(0.00159129 -0.00222342 -2.16268e-17)
(0.000356258 0.00429879 1.05717e-19)
(0.00255035 0.0244234 -5.17269e-18)
(0.00177745 -0.00204372 5.35455e-18)
(0.00462834 -0.0084342 4.22437e-19)
(0.00213752 -0.000349779 -1.34407e-20)
(-0.0146003 -0.0222832 2.59474e-18)
(0.0161391 0.00694971 9.21006e-18)
(0.00104986 0.000542717 9.68746e-19)
(-0.108621 -0.0440059 -2.99026e-19)
(0.00324045 -0.00298826 1.70455e-17)
(0.00387831 0.000637466 1.4678e-18)
(-0.0967253 0.0107674 6.95952e-18)
(0.000171191 3.9563e-05 2.29428e-18)
(0.0178282 0.00732553 -1.10852e-18)
(-0.0160038 -0.0378358 6.72802e-18)
(-0.000187822 0.000215596 1.24805e-18)
(-0.0286145 -0.00656864 -9.98635e-18)
(-0.000109775 8.59817e-05 -5.46359e-19)
(-0.000533418 -0.000636074 5.91683e-19)
(0.00286535 -0.00623865 3.40855e-18)
(0.0010045 -0.000585658 -1.70978e-19)
(-5.14614e-05 3.86233e-05 -9.39682e-19)
(-0.000905747 -0.0385782 5.99235e-18)
(-0.0242719 -0.0100975 2.07543e-17)
(0.222693 0.128812 6.61982e-18)
(0.000297882 0.000105442 8.56761e-19)
(0.001148 -0.00079565 4.88835e-18)
(0.000198869 -0.00967419 9.02e-19)
(-0.0605633 -0.0225015 5.6006e-18)
(-0.0485228 -0.121162 1.71662e-17)
(0.000997551 0.000550305 1.00444e-17)
(0.000938222 0.000489639 8.65905e-19)
(0.000267774 0.000112485 -6.47513e-18)
(0.00716655 -0.00977109 3.01949e-18)
(0.0828072 0.00968976 1.03252e-18)
(0.000212322 0.00111798 -2.21041e-20)
(-0.000188605 -6.36936e-06 -1.48866e-19)
(0.000743003 0.000537574 -7.55112e-19)
(0.00029632 0.000334303 -3.87078e-19)
(0.00257758 -0.00136365 -7.43807e-20)
(0.00374288 -0.00085369 -1.18808e-17)
(-0.00050525 -5.34517e-06 -8.18574e-20)
(0.00148015 -0.0020589 4.88412e-18)
(-0.000195082 0.000199983 1.16695e-18)
(0.000588672 0.000733924 -2.01421e-18)
(0.00163655 -0.000159555 2.05792e-18)
(-0.0170001 0.0443252 -3.05416e-17)
(-0.000690139 -0.000232447 -5.70101e-19)
(0.00156326 -0.00129636 1.22013e-17)
(-0.00214595 0.0020346 -8.13204e-19)
(0.00243409 -0.00285093 2.36167e-17)
(-0.00197827 -0.00608612 3.14736e-18)
(-0.0184893 0.00937284 7.46854e-20)
(0.00831306 -0.0133457 5.34121e-19)
(0.0366851 0.0593945 9.78759e-21)
(0.00148459 -0.000181259 5.19721e-18)
(-0.0115671 -0.0183828 1.34035e-18)
(-0.0286872 -0.00594657 -1.70928e-17)
(-0.0776819 0.0627097 1.89238e-18)
(-0.0271348 -0.00410246 -2.44505e-18)
(-0.000216956 0.000967975 -1.50903e-18)
(0.000507657 0.000377195 -1.84224e-18)
(0.00559403 -0.009232 -9.573e-19)
(0.000580101 -0.000252929 -2.58542e-18)
(-0.0308479 0.0260364 1.42172e-17)
(0.000138313 -0.000682963 -2.39267e-19)
(0.0465384 -0.120368 -9.90879e-19)
(0.00292038 -9.74889e-05 -5.42308e-18)
(-0.0302666 0.00141489 3.10241e-18)
(0.02447 0.0503654 1.09083e-18)
(0.00125379 -0.00196307 3.46289e-17)
(-0.0100773 0.0834449 -1.40229e-18)
(-0.00038105 0.000582331 -8.56637e-19)
(0.00602154 -0.00512256 -2.88037e-17)
(-0.000678176 0.000103055 8.06818e-19)
(-0.00569754 0.00159331 1.0136e-18)
(-0.0305346 0.00167375 -1.39035e-17)
(0.000801718 -0.000553441 1.8067e-19)
(-0.0241658 0.00557526 -6.12532e-18)
(-0.000353492 3.52288e-05 2.17737e-20)
(0.000222758 -1.09184e-05 1.31189e-18)
(0.000527532 0.000421969 1.72039e-18)
(0.00528776 0.0226569 1.9621e-17)
(0.00331104 -0.00160897 2.34228e-20)
(-0.000673985 -0.000601229 -8.73557e-19)
(0.00770198 0.00900777 3.75391e-17)
(0.00170749 -0.00613846 1.9975e-18)
(-0.0341596 0.190079 1.1809e-18)
(-0.0248634 0.0236181 3.08112e-18)
(-0.0267993 -0.00871679 1.94899e-18)
(-0.0765539 0.0365303 8.78285e-18)
(-0.000722647 -0.000229731 3.98015e-19)
(-0.0267933 -0.000301596 -6.40918e-18)
(-0.000259365 4.88585e-05 -1.28948e-19)
(-0.114223 -0.0772153 -5.54195e-18)
(-0.0902116 -0.0730641 -3.00617e-18)
(-0.00671266 0.0017571 7.31735e-19)
(0.00132729 0.00434052 5.38871e-20)
(-0.000235841 1.47653e-05 1.13413e-20)
(0.00337855 -0.00289932 -3.96771e-18)
(0.00105211 -0.00183762 3.10521e-18)
(0.000739913 -0.000666304 -2.01524e-19)
(-0.000569944 2.81773e-05 4.5763e-19)
(0.000183176 -3.28278e-06 4.36032e-18)
(-0.0248986 0.0238878 -1.25539e-17)
(0.000355125 4.63577e-05 8.57092e-19)
(0.00469513 -0.00193886 -1.17639e-17)
(0.000822685 0.000455767 1.37209e-18)
(-0.000654269 -0.000573199 9.90576e-19)
(-3.07934e-05 -3.95405e-05 6.02249e-19)
(-0.0184315 -0.0620272 4.94903e-18)
(-0.0580244 0.0241131 -1.80613e-18)
(0.000959604 0.0850448 -1.05171e-17)
(-0.000438755 0.000399366 2.26449e-17)
(0.00358955 -0.00095348 1.59933e-18)
(-0.0304829 0.0186816 -7.78667e-18)
(-0.026054 0.00409355 -4.1143e-18)
(-0.00118747 0.00100983 -3.65565e-19)
(-0.0712615 -0.0077498 -8.75808e-18)
(0.000160164 -8.58481e-06 8.94864e-19)
(0.012966 -0.00774358 -5.79179e-17)
(0.000597275 -0.000224823 -3.82969e-19)
(-0.0241435 0.0281754 8.8542e-19)
(0.000274175 0.000299415 -5.25547e-20)
(0.00181318 -0.0018474 6.74462e-20)
(0.000707333 -0.000380738 1.80274e-17)
(-0.0569533 0.152835 -1.77051e-18)
(0.00374388 -0.00311462 4.63431e-18)
(-0.0339437 0.0343063 -1.92373e-19)
(-0.000391767 -7.70204e-05 -1.128e-18)
(0.00404271 -0.00280754 8.32687e-19)
(0.000166699 0.00150491 -9.85899e-20)
(-0.000214889 1.22427e-05 -3.70069e-20)
(-0.010005 0.0241666 -1.49381e-17)
(0.0124867 0.0818859 -1.90617e-18)
(0.000278354 0.0017976 -1.82603e-19)
(-0.0206239 -0.0091888 8.07837e-18)
(0.000281966 -6.2871e-05 -5.54601e-18)
(-0.00484654 -3.44853e-05 7.35487e-19)
(-0.000281754 1.53539e-05 2.89955e-20)
(-0.0144018 0.0249097 9.78102e-19)
(0.000347126 5.06328e-05 7.396e-18)
(0.00326501 -0.000334479 -2.41716e-19)
(0.000201896 -0.000738255 -8.84004e-20)
(0.000177151 0.00168581 -1.31758e-19)
(-0.015086 0.0222753 -2.13401e-17)
(-0.000271365 2.60171e-05 -2.51553e-19)
(-0.0165831 -0.00241465 1.65609e-17)
(-0.00100659 -5.76416e-05 -2.43783e-19)
(-0.000207803 0.000259394 4.02254e-20)
(-0.135721 -0.0695942 2.28814e-18)
(0.00480216 -0.00178131 -1.69666e-17)
(0.000956813 0.000538456 -3.03058e-18)
(-0.0279037 -0.00172374 3.87888e-17)
(-0.0198916 0.00501098 -4.2557e-18)
(0.0417114 -0.0160124 -1.64812e-18)
(-0.014186 -0.0418016 7.59515e-18)
(-0.000414465 0.000532635 4.47589e-20)
(0.00438049 0.00190951 3.53782e-19)
(-0.0117798 0.0454171 1.13674e-17)
(-0.033153 -0.0122436 -7.93168e-18)
(-0.000932064 0.00118757 1.77726e-19)
(0.00116368 0.00031076 -4.95749e-20)
(0.00121834 -0.00232444 1.00235e-20)
(-0.00111262 -7.01054e-05 -1.77653e-18)
(0.000299082 0.000703516 -2.10623e-18)
(-0.000954795 -0.000524407 1.03764e-21)
(-0.00330603 -0.00757961 1.09186e-18)
(0.00240998 0.000216698 -1.09272e-17)
(-0.110734 0.0133337 -1.42008e-17)
(0.00349829 -0.00325146 -1.46498e-18)
(0.0632813 -0.0321263 1.20669e-18)
(-0.056022 -0.119158 -1.87926e-17)
(-0.00903285 -0.0078871 1.03327e-19)
(0.00645198 -0.00159965 6.31661e-18)
(-0.0255905 -0.00637829 -2.62437e-18)
(-0.0233897 0.00333623 2.93042e-18)
(-0.00155987 0.00149628 1.97032e-20)
(-0.00475599 0.000842804 -1.07355e-19)
(-0.000902138 -0.000553719 5.37418e-22)
(-0.000190393 0.0002489 -3.19395e-19)
(-0.000881369 -0.000164022 -5.45638e-20)
(4.40184e-07 -1.97166e-05 4.41169e-19)
(0.00105347 -0.0110949 -1.07689e-18)
(2.36548e-05 4.08552e-05 -1.43015e-19)
(-0.0268131 -0.000264428 2.3445e-17)
(0.0019937 -0.00381379 9.06107e-18)
(-0.000559228 5.31312e-05 1.7838e-19)
(0.00212556 0.00576726 4.06127e-18)
(-0.000426305 -0.000145993 1.03275e-18)
(-0.0286728 0.0523315 2.74799e-18)
(-0.00260698 0.00158374 -3.06201e-20)
(0.000178273 0.000977169 9.57349e-20)
(-0.0250434 -0.00922013 -1.47956e-17)
(-0.000997894 -0.005054 -1.61329e-17)
(0.000382694 0.109372 1.43861e-18)
(0.000807331 -0.000395306 7.4388e-18)
(0.00132474 0.00189036 -1.81952e-19)
(-2.45883e-05 0.00114845 -1.89743e-19)
(0.00102704 -0.000634121 9.24319e-19)
(0.00270099 -0.00197005 -1.71383e-18)
(0.000332293 0.000403192 1.34651e-18)
(-0.0306159 -0.00195549 9.53744e-18)
(0.00467464 0.00115181 -2.33784e-18)
(0.0425863 -0.0662543 1.79488e-18)
(0.00805148 0.119912 -2.55133e-18)
(-0.004663 -0.000484264 1.05688e-19)
(-0.0261479 -0.00932384 -4.41238e-17)
(0.00119501 -0.000749929 -1.63595e-17)
(-0.00056332 -1.54845e-05 -1.06026e-18)
(0.000251438 0.00157978 5.65312e-19)
(-0.0318267 6.14983e-05 -5.8953e-18)
(0.193936 0.123854 -6.13984e-18)
(0.00307514 7.16823e-05 -5.90022e-18)
(-0.0303411 -0.00108902 -1.72425e-17)
(0.100492 0.0350809 4.01887e-19)
(-0.000225086 0.000306585 2.78323e-18)
(8.49828e-05 0.00105393 1.53942e-18)
(0.00117877 0.000405553 -9.77723e-18)
(-0.0277301 -0.00885413 5.91394e-17)
(0.0478627 0.0736201 -1.13867e-18)
(0.00399602 -0.00324263 2.36813e-19)
(0.0010024 -0.000586366 -2.32801e-19)
(0.0016218 -0.00125264 -1.69742e-17)
(0.0134096 -0.00856817 6.97173e-17)
(0.00139591 0.000166346 -8.89917e-20)
(-0.0164336 -0.00649837 -6.84868e-18)
(0.00208684 -0.00375394 -3.10478e-18)
(0.00111029 0.000623159 4.45922e-18)
(0.00132658 -0.000316701 -3.31579e-18)
(-0.000555427 -5.60026e-06 -5.57676e-20)
(0.00270285 -0.00187683 1.12636e-17)
(0.00239085 0.000208037 -3.46789e-20)
(-0.0329504 -0.0219859 -1.22135e-17)
(0.00131103 0.000482789 -5.67859e-18)
(-0.00825306 -0.00634693 1.62893e-19)
(-0.0304741 -0.00165582 8.82775e-18)
(-0.000865222 -2.71013e-05 -1.53025e-20)
(0.0897221 0.00838712 -2.2554e-18)
(0.00119178 0.000293543 1.94535e-20)
(0.00530658 -0.00355464 1.52221e-19)
(0.00284099 -0.000476029 1.14897e-17)
(-0.0316484 -0.0112391 2.42458e-17)
(-0.000723281 -0.000142954 -5.67581e-19)
(0.00512762 -0.00536576 6.17371e-18)
(-0.0538561 0.0234016 -4.98284e-18)
(-0.000676823 -0.0010763 -1.67174e-21)
(0.000588962 -0.000284816 -7.7216e-19)
(0.00141437 0.000492034 2.80325e-18)
(-2.78405e-06 2.4743e-05 8.89416e-19)
(0.000492493 -0.00015524 3.89716e-18)
(0.000644868 -0.000428904 8.44472e-19)
(-0.00433623 0.00403769 4.03011e-19)
(0.00913376 0.00600413 6.0136e-19)
(-0.00991174 -0.0592253 -5.11165e-18)
(-0.0177453 -0.00437606 5.14129e-18)
(-0.000483359 0.00047252 -2.0915e-19)
(-0.0329933 -0.0200598 -3.40645e-17)
(0.00121864 -0.00240547 3.12851e-18)
(0.00168359 -0.00221138 -3.3485e-19)
(-0.0223734 -0.00669149 -8.50442e-18)
(0.000855949 0.000369166 -6.67968e-19)
(0.00604558 -0.00481672 2.40765e-17)
(0.0352801 0.109439 7.85861e-18)
(-0.000797209 -0.000418706 -1.64647e-19)
(-0.000888068 -0.00442487 2.24687e-18)
(0.0152572 -0.0201629 -5.17089e-18)
(0.00209399 -0.00362425 -6.48253e-18)
(0.000113755 0.000595109 2.66941e-18)
(-0.000227044 0.000671375 1.44898e-18)
(0.000282341 0.000681078 -1.01831e-18)
(-0.0206698 0.0012625 5.52068e-19)
(0.00122563 -0.00032918 -3.79575e-18)
(-0.00315921 0.00162971 -3.55556e-19)
(0.00261231 -0.0043858 4.78092e-18)
(0.000354298 0.000375256 -3.25337e-18)
(-9.75282e-05 0.000815691 -2.11595e-19)
(-0.011765 -0.0219317 6.6184e-18)
(0.027963 0.0979777 9.25686e-19)
(-0.0100495 0.000729469 7.20755e-19)
(0.101378 0.147787 -5.2568e-18)
(-0.00693716 0.0135009 -6.19163e-19)
(-0.0234526 -0.0176353 4.5339e-18)
(0.000628748 -0.000469574 -2.68111e-17)
(0.000283122 -0.000388251 1.72674e-19)
(-0.0257364 0.0252973 -1.70263e-17)
(-0.00713165 0.000892829 -1.45544e-18)
(0.000784133 0.0169995 4.00166e-20)
(-0.000445009 4.33171e-05 -1.15828e-19)
(-0.000947488 -0.000135865 9.40669e-19)
(0.000836937 -0.000311531 -2.49093e-17)
(0.00108489 0.000584874 1.0287e-18)
(-0.0194798 0.0127912 -1.28422e-18)
(9.344e-05 0.00060151 2.47014e-19)
(-0.00337272 0.00578197 -9.47577e-21)
(0.000689386 0.000960489 -8.02636e-19)