/*--------------------------------*- C++ -*----------------------------------*\
| =========                 |                                                 |
| \\      /  F ield         | OpenFOAM: The Open Source CFD Toolbox           |
|  \\    /   O peration     | Version:  v2012                                 |
|   \\  /    A nd           | Website:  www.openfoam.com                      |
|    \\/     M anipulation  |                                                 |
\*---------------------------------------------------------------------------*/
FoamFile
{
    version     2.0;
    format      ascii;
    class       volScalarField;
    location    "1000";
    object      ddt0(omega);
}
// * * * * * * * * * * * * * * * * * * * * * * * * * * * * * * * * * * * * * //

dimensions      [0 0 -2 0 0 0 0];


internalField   nonuniform List<scalar> 
13917
(
-0.000339615
5.73291e-05
-0.196177
0.000107699
1.00936e-05
0.00575884
-0.207865
-0.243562
-0.296083
-0.00286469
-0.0253435
-0.000886705
0.00010446
-0.464385
-6.31596e-05
1.81287e-05
6.18788e-05
-0.00165575
-0.000444433
1.78698e-05
1.41646e-06
-0.208128
1.89885e-05
-0.205231
2.64322e-05
-0.137508
6.93007e-05
0.00377786
-0.0894374
-0.00677453
-0.000428209
-7.60963e-05
-7.4276e-05
-7.31667e-05
1.50929e-05
0.579565
1.94062e-05
-0.147028
0.000168425
-0.0594015
2.39749e-05
-6.08182e-07
-2.0629e-06
0.00101213
5.68712e-05
-2.45606e-05
-0.00175427
-0.0029969
0.00186142
2.49702e-05
-1.92949e-05
8.15801e-06
0.0220705
0.000281002
5.60299e-05
-6.04222e-05
-0.0250741
3.41097e-05
8.5806e-06
5.87776e-05
0.183847
6.00152e-05
-0.930322
2.0302e-05
0.00124808
-0.162769
-3.61547e-06
-2.95807e-06
-0.0264377
-0.000176622
8.6257e-06
-0.300892
-0.180667
1.96566e-05
0.00944852
-0.000652794
-0.179526
5.31093e-05
-0.071803
1.77445e-06
9.30018e-06
-3.81377e-06
-0.0103861
-0.189697
-0.0778527
5.34227e-05
1.41209e-05
-0.277271
-1.69604e-05
-4.78776e-06
-0.146751
0.00116207
5.07919e-05
3.00876e-05
-0.314084
-0.0243208
-0.00368516
-0.00278573
0.00169388
-0.00202603
2.36542e-05
-0.000486356
-0.000537732
5.98841e-05
3.38344e-05
-0.271907
0.015309
-0.0034085
5.97711e-05
-9.90374e-05
-0.211135
-0.149094
-0.00149536
-0.273966
4.54752e-06
-0.104019
2.678e-05
-0.0176019
-0.0285061
2.48005e-05
-6.56396e-07
-0.0320812
0.0338746
-0.00309582
2.53101e-05
3.1872e-05
6.08616e-05
2.61994e-05
-2.37415e-06
-0.00740306
-0.187403
2.3976e-06
5.66785e-05
1.93706e-07
-0.0442114
-0.184272
-0.000581462
-0.00137645
-3.8464e-06
8.59497e-05
1.12344
3.3517e-05
1.68662e-05
0.00170431
-2.83338e-06
-0.284785
-0.0935363
6.133e-06
2.48069e-05
-5.30417e-05
-0.00170474
-0.0890825
-0.00217026
-0.000574102
-7.23701e-05
0.138262
-0.000111124
-0.0521281
-0.337185
-0.0429973
5.4709e-05
-0.000424197
1.06255e-06
-0.0023883
-0.0013152
-0.000829217
5.63349e-05
-0.00218801
4.88685e-05
-0.000536916
0.00038324
-0.343985
-0.00139777
5.39541e-05
-0.235342
-0.00232845
-0.213826
-0.0101227
-0.268673
5.00263e-05
0.000438662
-0.000657606
3.33852e-05
1.52186e-05
-0.000199658
-0.0882572
-0.0158248
0.264332
-0.000579671
-0.000915167
0.290866
-0.037243
-0.0324852
1.83121e-05
-0.00276975
0.000389019
9.12572e-06
5.5557e-05
-0.00654268
-0.887568
8.69621e-05
2.54294e-05
-0.00181635
-0.00159074
-0.19618
-0.0706274
1.53493e-05
3.61945e-05
-0.00281979
-0.118599
1.5208e-05
-0.230365
-0.314009
-0.000621881
3.23528e-05
0.000256587
-0.00189841
-0.341975
3.0945e-05
0.191477
4.77207e-05
-0.000218573
2.43784e-05
-0.156756
-0.262875
2.41802e-05
0.218607
-9.30168e-05
3.4354e-05
1.09676
-0.00112552
-0.000556038
-0.15598
-0.52685
1.74163e-05
-0.000101504
-0.164275
-0.072731
7.49157e-06
2.79829e-05
-0.103685
-0.00380864
1.8908e-06
1.12058
-0.00895952
-0.00529342
-0.000232984
5.03325e-06
-0.00153452
-0.326563
2.84597e-05
-0.00476677
-0.000100402
5.85828e-05
3.31687e-05
-0.0019423
-0.00477267
-0.00206744
-0.000119751
-7.53846e-05
4.54562e-07
0.117375
-0.116513
1.14601
3.75717e-05
-0.22837
-0.0703932
-0.0635052
-0.0747991
-0.00108016
4.78492e-06
2.75073e-05
-0.00194384
-0.10838
-0.00740113
1.5695e-05
-0.0723184
0.000131268
-5.53646e-06
0.0475024
1.91766e-05
-0.251684
7.17749e-05
5.41535e-06
-0.00012851
-0.00125445
-0.00103957
1.38529
0.00012151
4.39646e-05
-0.212063
-0.158801
-0.127731
3.0398e-05
-0.0979526
-3.25836e-06
4.43228e-05
2.60441e-05
0.283786
2.11837e-05
-0.00255068
-0.00020316
4.6051e-05
-0.00182798
5.57089e-05
0.0326068
-0.000929256
-0.00117763
3.49884e-05
3.17998e-05
-0.220803
0.042173
2.67279e-05
2.53936e-05
0.0374263
4.71654e-05
-0.174141
3.38377e-05
-0.184842
5.1651e-05
-0.0183199
-0.000331531
0.0137094
-8.0751e-06
-0.0399518
-0.00132849
-2.90044e-05
0.00105351
-0.00816457
4.31891e-05
-0.161601
-0.00170467
-0.0667768
-0.000261893
0.879309
-0.000118541
-0.131337
-0.00408705
-0.00184687
-0.00163624
-0.240793
3.58905e-06
0.000244566
-0.198118
2.96372e-05
4.44279e-05
-0.0181182
-0.0101854
5.52454e-05
0.571505
-0.0200433
2.44437e-05
0.280245
0.436147
2.11753e-05
3.31431e-05
-6.4995e-06
2.73096e-05
-0.0828789
-0.25891
0.00406699
-0.201216
2.2408e-05
-0.0061412
-0.0855107
-0.000854182
-0.240246
-0.138071
-0.265589
2.24796e-05
0.561031
3.96946e-05
0.161711
5.79263e-05
0.0117715
-0.00903223
0.00011727
6.03724e-06
-0.00228969
-0.00210627
-0.00246172
0.0311381
-0.151048
-0.473516
-0.000789069
0.000587701
2.80413e-05
-0.058297
-0.202028
3.9418e-05
-0.0572835
1.47119e-05
0.0747105
5.03243e-05
3.81184e-06
5.11093e-05
0.073574
5.17412e-05
-0.0452359
0.0854595
0.0106983
0.00342644
4.33184e-05
-0.00950821
0.00232414
2.64869e-05
-0.0114862
2.84538e-05
1.68376e-05
-0.00727122
2.92525e-06
1.6691e-05
3.30861e-05
-0.25747
1.57836e-06
0.320723
0.212428
-0.0779694
-0.0255009
-0.151491
-0.35293
-0.000819267
2.17875e-05
-0.00803073
0.000165319
-8.03589e-05
1.83407e-05
-0.282183
-0.169918
0.296969
-1.1157e-05
-0.00762525
0.00020441
0.000173277
-0.00238284
5.20862e-05
0.468669
5.96559e-05
2.01874e-05
-0.176534
-0.200668
-0.223242
-0.00535154
-0.10387
-0.210171
-0.197653
-0.145489
1.96835e-06
-0.00205221
5.4052e-05
3.27822e-05
-0.0678997
-0.00188904
-1.22161e-05
-0.00268263
-0.000688595
-0.153916
2.57811e-05
-0.00526708
0.377911
-0.0784662
0.0726742
1.45494e-06
4.29399e-05
7.2817e-06
-0.000118651
1.88435e-05
0.0150779
7.79303e-05
0.000266698
0.0063681
-6.42335e-05
-0.00212948
-0.191195
-0.0640438
0.00495945
0.808615
-0.00591074
-0.00196286
-0.0164265
-0.00043155
-0.0169898
0.001568
-0.000360619
-0.00285925
4.69437e-06
-0.0560125
-8.93527e-05
1.47215e-05
5.84735e-05
6.02005e-05
-0.132829
-0.281661
4.4497e-05
-7.49905e-06
-0.0414834
-0.456747
3.99073e-06
0.327285
6.6958e-05
-0.0183209
5.01106e-05
-0.231824
-0.0870718
-5.8611e-05
5.31041e-05
-0.167611
-0.0301428
-0.127656
-8.05402e-08
-0.291738
0.0258124
0.0532538
1.77813e-05
-0.0947109
-0.165891
-0.000851587
3.26745e-05
4.75027e-05
-0.000479889
-0.0355124
-2.12978e-05
3.24887e-05
2.45165e-05
2.42037e-05
-0.249748
-0.0678684
-0.000769939
-0.0225242
2.39155e-05
2.45054e-05
-0.00575211
-0.214535
-0.00037687
5.59192e-05
1.86209e-05
-2.58382e-06
0.0550862
-0.00516078
1.1175e-05
3.52819e-06
0.369354
-0.000491517
-0.000350002
3.93836e-05
5.44991e-05
-3.08618e-05
-0.00294321
-0.0401449
-0.00265826
-0.016466
-0.00637021
-0.0768201
-0.000543957
2.89636e-05
-0.262999
-3.58104e-06
3.33146e-05
9.63111e-05
-0.0563395
-0.000625187
2.02315e-05
-0.121517
-0.00601216
0.0142641
-0.00583154
-0.00104766
-0.00081863
6.13454e-06
-0.146294
-0.0587979
-0.334525
5.35953e-05
-0.00020059
-0.279521
-0.151845
-1.08327
-0.00317241
-0.00719718
3.47083e-05
3.84043e-05
3.59283e-05
-0.000681085
0.000459743
-1.79304e-06
-0.00201787
-0.000100698
-0.338833
-0.130545
3.85177e-05
-0.00290998
-0.0789226
0.000192844
1.41109e-05
0.0125531
-0.220829
-0.308323
0.00317926
8.03887e-09
0.20626
-0.00048467
2.25007e-05
-0.00025446
-0.00273891
0.000395923
-0.00439397
-0.0927522
-0.0146513
-0.000159232
-0.150243
5.69689e-05
-0.243028
3.85541e-06
1.24759e-05
-0.102614
-0.232203
0.00828004
5.79567e-05
4.98713e-05
3.32501e-06
9.31887e-05
0.015251
-0.00331106
2.91088e-05
0.00174724
-0.0023783
4.72582e-05
-1.14353
-0.00120925
0.0523872
3.39013e-05
-0.00538706
6.34401e-05
0.346146
-0.00386102
-0.00141232
-0.000233972
2.49362e-05
1.67922e-05
6.18531e-05
-0.00160025
5.95037e-05
-0.29403
0.0224403
-0.00211316
2.44017e-05
-0.0116276
0.003437
0.241909
3.05528e-05
-0.000107825
3.09555e-05
0.0001435
1.04558e-06
-0.17379
4.26229e-06
-1.31965
0.000123239
-0.0208392
-0.00534042
-0.184996
-0.0020526
5.35528e-05
-0.116141
-1.2201
4.63037e-05
9.37001e-05
-0.0961117
-0.0275864
-0.00719181
6.71826e-06
5.45125e-05
-0.018649
0.000115125
-0.0029082
-0.00166396
1.23745e-05
-0.00150371
-0.209534
2.64055e-05
7.3627e-05
2.38947e-05
0.10469
-6.60402e-08
2.24984e-05
-0.311454
4.25531e-05
-0.233359
-7.33008e-05
-0.000323548
2.33843e-05
-0.00208333
2.49487e-05
-0.00125591
2.45406e-05
-0.000383372
6.52891e-05
0.689833
-0.00832362
-0.210666
1.03664e-05
5.13636e-06
-0.000535659
-0.000901605
0.00166619
-0.246208
-0.00153333
1.86891e-05
-0.872928
-0.0238079
0.0784909
0.0458085
-0.00144275
0.0222902
-0.000332694
0.000183808
-0.00910792
-0.00355848
-0.00159014
-0.00262328
-0.00147273
9.53257e-05
-0.00319268
7.06619e-05
2.32482e-05
0.000119709
-1.90802e-05
-4.28638e-05
2.31974e-05
2.40858e-05
-0.00228483
6.24128e-05
-0.00369996
1.47979e-05
1.40434e-05
4.27508e-07
4.61868e-05
-8.47935e-06
-1.25265e-05
2.47874e-05
-0.240703
-0.00042755
0.00411848
2.17283e-05
4.1902e-06
-0.000254112
-0.00191045
-3.69427e-06
0.0356876
-0.00297637
0.149089
9.17432e-05
-0.00967638
5.08609e-05
7.64604e-07
2.58258e-05
5.13724e-05
-0.277637
2.76068e-06
-0.0864608
-1.93332e-05
-0.089729
-0.00280343
-0.00235831
-0.0144178
1.44886e-05
-1.18854e-06
-0.00063506
3.19121e-06
3.68421e-05
0.013098
4.71861e-05
2.05347e-06
-0.000126321
2.72457e-05
2.43446e-07
-7.85993e-05
-0.00102017
0.028872
-0.000170007
2.62611e-05
2.34462e-05
-0.185533
-0.00192907
4.69629e-05
5.64911e-05
0.0285517
-0.0913206
-0.437754
-0.000330018
9.82766e-05
1.73905e-05
-1.83512e-06
-0.000464838
-0.000193563
0.82331
-0.0001806
-0.119814
6.5478e-05
2.3536e-05
-0.458156
1.36996e-05
-0.000120633
4.12909e-05
2.11511e-05
-0.000284053
-0.00160849
6.192e-05
-0.238431
-0.0517576
-0.00327896
2.88763e-05
-8.56284e-08
0.000489996
-0.0821939
3.19968e-06
-0.0726468
1.21435e-06
-0.000245589
1.11347e-05
2.90258e-05
-0.0686914
4.62353e-05
1.61777
-0.000406285
-4.63093e-07
3.39497e-06
5.63846e-07
4.27422e-05
7.48737e-05
0.00962335
2.9455e-05
2.84219e-05
-0.316538
-0.299625
-0.000215214
-0.000638116
-0.00265824
2.13594e-05
3.38266e-05
0.000194222
-0.207603
-0.000933881
1.01805e-05
5.69611e-05
-0.25209
-0.000513594
-0.18074
1.48422e-06
-5.07803e-07
0.0695102
-0.00045266
6.18435e-05
-0.213953
0.0165979
3.99975e-05
-0.00711302
2.52783e-05
4.16391e-05
2.2629e-05
-0.196041
-1.19621e-05
2.44981e-05
3.48197e-05
1.39446
0.000143724
-0.0181024
0.0144571
2.61974e-05
-0.000611134
1.32103e-05
-0.194218
2.80148e-05
2.94317e-05
3.07948e-06
-0.0023326
1.01553e-06
-0.00148048
-0.167813
-0.118558
-8.24163e-05
0.678186
-0.263947
3.30985e-05
0.268972
0.159032
-0.23934
-0.156393
-0.315671
0.0546933
-0.0120839
4.95299e-05
-0.10062
-0.000441583
-0.232247
1.78743e-05
5.19201e-05
4.78406e-05
1.49189e-05
1.32714e-05
0.000266623
-0.00616526
4.89508e-05
4.82746e-06
-0.108767
-0.0370081
-1.90947e-06
-0.00667278
-0.00022389
5.59759e-05
-0.00756546
-0.00736944
1.68854e-05
0.000133861
-0.141359
-0.418375
0.0092158
1.18232e-05
-0.038406
-0.00559262
-0.168553
-0.257017
-0.000944553
5.19595e-05
5.4456e-05
6.06861e-05
-2.31332e-05
4.5242e-05
-1.16734e-06
-3.04951e-05
-0.000214783
0.0172003
0.000292786
2.59093e-05
-0.00827587
-0.19536
-0.000149589
1.75778e-05
-0.24695
4.66845e-05
3.58947e-05
-6.3456e-05
0.117237
-3.01346e-06
3.36215e-05
-0.258104
1.07779
-0.0639736
-0.00769245
0.719659
3.60699e-05
-0.0209483
2.06917e-05
3.01686e-05
1.35144e-05
-0.0366044
-0.342349
3.0089e-05
1.37848e-06
4.34929e-05
-0.0999939
5.45721e-05
-0.000231434
2.95329e-06
5.86159e-05
-0.0218198
2.39633e-05
-0.00174547
0.0171721
-0.242478
6.49854e-05
-0.00128971
4.27425e-05
-0.194989
-0.195847
1.92324e-05
-0.227877
-0.0033968
-0.00842358
-1.45324e-07
0.00650592
4.14594e-06
-5.76356e-05
-0.000407671
-0.00721301
-0.0796445
0.262223
-0.00397953
-0.208191
2.3986e-05
0.185102
2.8828e-05
8.59895e-05
-0.289762
3.37622e-05
3.62814e-06
5.12859e-05
5.42465e-05
-0.0243385
1.17233e-05
2.03214e-05
-0.00154099
-0.000802412
-0.00168075
-0.0104477
-0.000452466
-0.234802
-0.000435309
-0.000493155
0.000241951
-0.115126
-0.00032279
0.251953
-0.142891
5.59555e-05
2.13506e-05
-0.0793986
0.100513
9.21407e-06
-0.00850813
-0.000427891
5.0165e-05
1.57524e-07
5.56911e-05
-0.000749956
-2.92543e-06
-0.00137114
0.000913346
3.66127e-05
-0.00254734
3.65898e-05
-0.000315857
2.46804e-05
5.77383e-05
-0.002279
6.59062e-05
4.6697e-05
2.88733e-05
-0.016355
-0.00337629
-0.23572
1.66961e-05
6.07277e-05
-0.00216525
3.98502e-05
-0.00903027
-0.00142478
4.95247e-05
-0.0090112
3.07265e-05
0.139738
8.98893e-06
-0.000182448
-0.0149832
0.281707
3.75588e-05
4.16852e-05
0.0398431
2.67002e-05
3.25044e-05
-0.153243
-0.191055
5.10001e-05
0.00558405
1.96488e-05
4.92153e-05
-0.035337
6.18926e-05
1.48672e-05
0.0869945
3.40251e-05
-0.0647452
1.02925e-05
1.61235e-05
4.61473e-05
-3.64608e-05
-0.0918626
3.01122e-05
4.45508e-05
3.67985e-05
1.86046e-05
2.23458e-05
-0.0100124
-0.00209119
-3.80832e-07
-0.271683
-0.000533078
0.00967491
-0.242191
0.0127052
2.51817e-05
1.832e-05
4.30484e-05
-0.12043
2.7487e-05
-0.0906623
-0.304806
-8.10898e-06
-0.296568
-0.019638
-0.00148431
0.00228381
-0.00284142
-0.00981174
-0.0725754
0.00109081
-1.1044
-0.225793
-0.00112947
4.73935e-05
-0.110164
0.00303158
1.64024e-05
5.27825e-05
0.293989
4.92543e-05
4.50562e-05
0.000294316
-0.00825862
-0.000285064
-0.0814743
4.47281e-05
-0.194469
0.000103349
-0.013216
-0.00925015
-0.0286248
-0.000177004
3.0088e-05
5.27435e-05
-0.153509
2.86587e-05
-8.11537e-06
4.02645e-06
5.47636e-05
5.17268e-05
-0.000388495
0.00164555
0.0148291
-0.00241576
0.0166788
0.252949
0.0300051
4.56779e-05
-0.0876999
0.0757144
3.07978e-05
3.32922e-05
-0.000279466
-0.254782
2.49049e-06
-0.00400759
-0.0867263
-0.00116001
1.71065e-05
7.8732e-05
3.03114e-05
-0.00847839
-0.00122567
2.44877e-05
0.128681
-0.000501143
0.000616944
-0.0769766
-0.0010755
-0.868371
4.25724e-05
1.31493e-05
0.0969647
-0.0826268
-0.00107591
-0.0175795
-0.000108401
-2.69665e-07
4.44658e-05
6.57207e-05
1.68919e-05
1.36751e-05
-0.000266154
3.74497e-05
0.00173111
2.77346e-05
-0.000148153
2.4192e-05
-0.000962388
0.000356835
-0.613072
3.17629e-05
-0.0316411
4.34142e-05
0.0261483
1.42576e-05
-9.04311e-05
1.22791e-05
1.32177
-0.205191
0.00964729
3.77072e-05
-0.00126165
4.74932e-05
-9.4878e-05
-0.181441
4.93936e-05
1.31342e-05
-0.00066837
-0.00024927
-0.268982
3.73794e-05
-0.000232558
8.46578e-05
2.22182e-05
-0.0017275
5.33953e-05
1.83773e-05
3.04972e-05
-0.293086
2.45025e-05
0.493955
-0.300315
-0.0015165
-0.133512
2.95294e-05
1.78679e-05
-0.000109661
-0.496126
8.77516e-05
-7.74431e-05
-0.000737238
-0.788694
3.9582e-05
-0.0394129
-0.00291246
-0.00436905
2.47985e-05
4.67346e-06
0.0015624
1.74582e-05
4.59041e-07
0.000622655
1.26755e-05
6.19031e-05
-0.000130056
-0.00195728
0.00400639
-0.177359
0.000160851
-0.00304888
1.2407
-0.204438
-0.000197454
0.0207034
-0.216883
-0.000774686
0.249726
5.95436e-07
-0.92324
-0.105886
1.29215e-05
2.5253e-06
2.93686e-05
5.58669e-05
-0.000801025
2.18961e-05
-1.14986e-05
-0.000946234
5.60218e-05
0.000194554
-0.141053
-0.000246491
3.46812e-05
-0.289591
5.96254e-05
0.197238
0.000107919
0.000411265
3.74068e-05
-0.365977
-0.306425
4.83565e-05
6.20628e-05
0.13817
0.000202043
-0.15173
2.51129e-05
3.40341e-05
-0.331294
5.66336e-05
-4.98147e-05
0.215912
4.6564e-06
-0.00152702
-0.000125253
2.95841e-06
2.56115e-05
-0.0340199
-0.269992
5.83954e-05
4.94553e-05
3.27119e-05
-2.82177e-05
0.00476214
-0.165862
3.37088e-05
0.000790877
-0.0848962
0.0225853
-0.0874407
5.17876e-05
-0.00231956
-0.00375936
0.000359837
1.34485e-05
-0.00144471
-0.131212
1.26558e-05
-0.000188778
-0.235242
-0.0925842
0.00317218
-8.05629e-05
4.10467e-05
1.92151e-07
-5.32601e-08
-0.367865
-0.00196218
6.86179e-05
7.25932e-05
2.89679e-05
-1.08671e-06
3.95412e-05
5.9896e-06
-0.00283984
0.000146071
-0.261997
0.000317572
-0.0105482
-0.0630039
2.89087e-05
-0.00132524
2.36899e-05
-1.56724e-06
-0.437454
5.57123e-05
5.11698e-05
-0.00158032
-0.00712901
-8.47043e-05
0.220114
1.07049
4.5248e-05
-0.115755
-2.15536e-06
5.82545e-05
0.00685564
3.89796e-07
2.96751e-05
0.0512476
-0.119484
3.54428e-05
0.133907
5.87664e-05
2.53811e-05
4.87545e-05
0.00577866
-8.19553e-05
0.000102621
0.288331
5.12981e-05
0.979404
-0.166884
3.86152e-06
0.000576681
2.47527e-05
-0.230355
-0.00431824
2.94426e-06
0.034551
-0.00169841
0.000128375
-2.49292e-06
-0.351726
0.000359368
-0.00775447
7.20856e-05
-0.000596746
-0.401969
2.86961e-05
-0.017319
2.93998e-05
-0.00228937
-0.000372965
4.35732e-06
-0.103507
3.38282e-05
-0.0066704
-0.00166665
0.00109907
-0.00087896
-0.000441452
3.03413e-05
-0.225962
0.000886447
0.414132
-0.000399587
-0.00162816
6.32657e-05
-0.00077434
1.66286e-05
-0.000387235
-0.104906
5.16913e-05
3.97524e-05
0.0191156
5.82072e-05
1.22176
6.03799e-05
0.0572136
0.0270624
-0.000158206
3.05203e-05
3.4146e-05
3.84361e-06
8.36519e-08
-0.00513232
-0.00171565
-0.00377305
-5.50547e-06
2.03761e-05
-0.0690516
5.23831e-05
-0.000105356
0.984958
1.73889e-05
0.701302
-0.0015794
0.000189688
-0.00398332
-0.130643
-0.095067
-0.0067966
0.0912692
3.9418e-05
0.00709235
-0.192852
-0.0519985
1.29333e-05
8.70903e-06
-0.00442807
-0.00713003
0.304529
-0.0840117
5.13472e-05
0.00120665
-0.000821923
-0.176467
-0.03874
-0.000781219
0.000542131
4.10695e-05
0.000808594
-0.000928138
1.4744e-05
-0.00777619
0.0234351
5.46206e-06
-0.0769756
2.59514e-06
4.21453e-05
-0.0656001
-0.15693
2.41712e-05
5.06157e-05
5.91662e-05
3.52195e-05
0.00200004
-0.0665088
7.46475e-05
2.9305e-05
1.59427e-05
-0.000261403
-0.00012206
-0.000100841
-0.250809
1.48731e-05
-0.170853
-0.201627
-0.283006
3.264e-05
-0.00136548
-0.045516
-0.000384243
-0.0789148
-0.0119188
0.0860906
5.86459e-05
-0.0969506
-0.140565
1.70933e-05
2.31754e-05
-0.00658692
-0.162056
0.113994
2.21319e-05
4.77748e-05
-0.218793
-1.04416
0.00106098
3.48968e-05
-0.000124293
0.0284846
3.87138e-05
-0.251392
0.178877
0.346709
-0.829689
1.6628e-05
3.70691e-05
2.51687e-05
0.000206072
-0.0489976
-0.000547893
6.61167e-05
7.95547e-07
-0.000822886
-0.300959
-0.000231232
-0.205526
-0.0991587
0.0320855
0.00617133
1.39086e-05
1.17342e-05
0.063615
1.04514e-05
1.47443e-05
4.64578e-05
-0.0536796
-0.000631123
0.275934
-0.00958332
2.13393e-05
-0.23719
-0.000407887
5.09956e-05
-0.142357
-0.00201825
2.30616e-05
4.10047e-05
-0.0324413
-0.184283
1.5317e-06
-0.0397195
-0.0866695
0.00488584
-0.823865
-0.000283843
4.51906e-05
5.92647e-05
-0.275209
-1.84947e-05
-0.00475266
-0.000405272
-0.20509
0.159343
1.79736e-06
-0.000162173
5.03263e-05
3.00223e-05
-0.126827
0.420623
1.59317e-06
-0.111026
-0.000844122
4.72809e-05
-3.74236e-05
3.45671e-05
-0.00988097
6.07702e-05
-0.0189732
0.00208014
4.62396e-05
2.58866e-05
-0.000288481
-0.311445
-0.00071107
4.00895e-05
-0.000434855
1.62689e-05
5.70985e-05
-6.98201e-06
-0.396948
0.000649728
-0.174079
1.50113e-05
2.4921e-05
4.51661e-05
-0.00230686
3.37706e-05
4.62815e-05
-0.0659677
-0.00225507
0.0155266
1.19882e-05
-0.192051
-0.00402149
2.23275e-06
-0.315231
-0.00636271
-0.000284839
-0.00094381
5.36705e-05
-0.0199457
-0.00022785
3.11513e-05
-2.09736e-05
8.10744e-06
0.811786
1.13461e-05
6.86459e-05
0.000445032
-0.0706648
-0.127181
4.32357e-06
2.69237e-05
5.4922e-05
6.46337e-05
-0.00989781
1.61289e-05
-0.00578698
6.07221e-05
-0.124636
6.01874e-05
-0.330915
1.54072e-05
-0.205312
5.62689e-05
4.83488e-06
0.0611069
-0.018286
-0.00201587
0.380605
3.05435e-05
-0.000854201
5.92603e-06
-0.292607
8.0522e-07
3.14058e-05
0.00222347
-0.000445144
0.281077
-0.169759
-0.0100242
-0.111398
-0.0105227
-0.098764
-1.21896e-05
1.00425e-05
-4.26242e-05
-0.179807
-2.28571e-06
-0.190941
0.0369013
4.60668e-05
1.30069e-06
4.27035e-05
-0.0427375
-0.397828
5.22594e-05
1.66764e-05
3.97886e-06
-0.000112325
-0.0006902
-0.266455
-0.0281545
2.16285e-05
-0.00148231
-0.00299244
-0.450177
-0.00423789
5.33645e-05
3.78307e-05
-0.239246
2.57515e-05
-0.00771425
-0.143481
4.01539e-05
6.72966e-06
0.161107
0.00469686
1.8911e-05
0.0585349
2.30194e-05
0.0812048
0.000105435
0.000342219
5.87316e-05
-0.187591
2.75921e-05
-0.00119318
-0.00552071
-0.122973
-0.00140741
-0.00146444
6.10082e-05
0.00042219
9.64733e-08
-0.105649
1.56985e-05
5.20179e-05
-0.000197378
1.96444e-05
-2.50956e-08
-0.0327199
1.3743e-05
1.29753e-05
4.33292e-05
0.00031472
5.89105e-06
-7.72205e-05
-0.00302899
-0.0184672
-0.00839547
9.37312e-07
-0.0113214
0.151104
-0.0223075
-0.00733642
0.000156582
-0.00483051
-0.117299
-0.135928
-1.81562e-07
-0.0011697
0.0889151
-4.14473e-07
2.86054e-05
5.41281e-06
0.0298081
-0.00675865
3.72202e-05
-0.00593782
-0.187721
1.89157e-05
5.46428e-06
0.203275
-0.0160961
-0.000677585
1.15905e-05
0.14363
-0.0771567
0.0103211
2.3627e-05
-0.181574
-0.00099067
-0.000532062
-0.174295
-3.18478e-05
6.49207e-06
-0.000261658
-0.015737
-0.000326881
0.0837236
-0.189042
4.09136e-05
-0.180452
0.00174136
-0.172964
1.28817e-05
-0.00917386
5.55515e-07
4.59183e-05
-0.263377
-0.0969401
0.452991
-0.076007
1.05153e-05
-0.00183516
1.72158e-05
-0.159622
0.277028
2.36625e-06
5.74004e-05
-0.0007286
2.65082e-05
-0.00149867
-0.346778
-0.0446064
-0.00161076
5.87389e-05
4.72919e-05
-0.239145
-1.33375e-05
-0.00184436
3.74121e-05
4.51582e-05
-0.171265
-0.0966427
0.00383414
-0.00561849
1.21445e-05
-0.232897
1.32764e-05
0.000847422
0.144907
-0.19855
1.31494e-05
-2.97788e-06
-0.0001326
7.08138e-05
8.49332e-06
-0.309695
-0.185021
3.45351e-05
-2.39229e-05
1.70944e-06
2.70829e-05
-0.00993982
2.57556e-05
0.198569
-0.00761833
-0.000423052
4.30963e-05
0.00086044
-0.18338
-0.000446876
-0.0182453
0.0172356
3.99345e-05
-0.387303
-7.10422e-06
0.00149567
-0.00783997
-0.404695
-0.183025
-0.000690688
4.132e-05
-0.010263
2.55663e-05
7.34164e-05
1.78965e-05
0.268449
0.00053268
-0.162933
0.931442
-0.00122153
8.60432e-06
-0.0302078
-3.7627e-05
-7.63798e-07
0.00533105
-2.85915e-06
0.000279404
-0.000436733
1.8304e-05
0.133691
4.38976e-05
0.0198667
3.02255e-05
3.23523e-05
-0.0278803
-0.226204
1.49555e-05
-0.000814274
-0.000324097
-0.000934377
-0.00144302
8.97561e-05
9.16312e-05
7.76681e-06
1.29427
-5.1766e-05
0.258499
-0.000643959
1.10704
-0.00106398
5.75766e-05
-0.324589
-3.08536e-06
-0.165819
0.000112726
-0.190933
0.0225841
0.0878554
0.00448634
-0.0800483
-0.000684421
4.53743e-05
-0.336838
-0.000780548
5.93644e-06
-0.374209
-0.296615
4.52505e-05
7.53832e-05
-0.000149487
-0.000152591
-0.000299663
-0.228981
2.07864e-06
0.0001522
-0.000270805
-0.000140727
1.41848e-05
-0.00234064
4.4056e-06
0.171206
3.60542e-05
-0.00793765
-0.000280378
-0.000770868
-0.00521233
-0.0988568
-0.00471102
4.02552e-05
-0.00729372
-0.315552
0.592848
5.11023e-05
0.192073
-0.000193921
0.0064279
1.06679e-06
3.51824e-05
-0.234253
-0.000423051
-0.167109
-0.397337
0.000265657
-0.21572
5.46791e-05
1.58178e-06
-0.47725
-0.000379698
3.13029e-05
-0.315772
-6.41548e-05
0.00292728
-0.000113566
-0.00115089
5.57107e-05
-0.233501
-0.255249
-0.0969603
0.206979
-1.18812e-05
-0.00191176
-0.182727
3.84241e-05
3.42617e-05
-5.92947e-06
-2.63302e-07
-0.0670052
0.195777
0.21904
0.028458
-0.00145318
5.55022e-05
-0.19187
-3.71387e-07
-0.0031558
5.12933e-06
0.849287
4.48786e-05
-0.00524225
-0.124831
-0.00843926
2.36462e-05
-2.70057e-06
0.309284
1.88598e-06
-0.0077594
3.96424e-05
0.0979944
-0.201639
-0.00686554
-0.000233298
2.7496e-05
-0.0165927
0.00798048
-0.000749693
3.83112e-05
5.52715e-05
1.78995e-05
-0.00131097
7.14134e-06
-0.0020467
-2.03106e-06
3.3849e-05
-0.108318
4.45248e-05
-5.64845e-05
6.2123e-05
-1.17363e-06
-0.200528
5.07596e-05
-8.12305e-05
-0.210834
-0.00026809
0.26548
1.35243e-05
-0.178633
-0.000371939
-0.306167
4.67769e-05
0.00313505
4.56641e-05
-0.000903444
0.00132501
-0.00360112
-0.015038
-0.179182
-0.00814456
-0.445249
-5.47206e-05
-0.00333339
0.000955106
-0.0773169
-4.90676e-05
4.00918e-05
1.76594e-05
-0.00123839
-0.000223028
-0.0866648
-0.00184715
-0.0980422
-0.0979885
0.00662173
4.47097e-05
-0.106944
-0.0106101
1.61046e-05
-9.36676e-06
2.52571e-05
-0.136659
1.44997e-05
0.533497
4.36001e-05
-1.05592e-05
-0.273166
-0.00245641
1.94782e-05
1.74168e-05
-0.368939
4.76679e-05
3.26237e-05
4.09642e-06
-0.000409167
-0.000108627
5.20138e-05
0.00926376
0.00115022
-0.00268651
-0.136147
-0.152109
-0.180364
-0.32667
1.8345e-05
3.01322e-05
-0.00128481
5.3875e-05
-0.000784498
0.23376
-0.147995
9.34167e-06
5.41691e-06
-0.152679
-0.0383269
1.35515e-05
4.00038e-05
-0.000177477
0.380383
-0.0321638
-4.69548e-05
-0.000112981
7.08362e-06
-0.3898
0.00289536
-0.00115205
3.37144e-05
0.00210789
4.61327e-06
-0.000467163
-0.0237628
1.12355e-05
5.76962e-05
-3.93597e-05
-0.189859
4.28075e-05
-0.283463
1.77661e-05
-0.212066
-9.0323e-06
0.00179373
2.15935e-05
3.25233e-05
-0.0788489
0.00799092
0.000316188
-0.0253401
0.24526
3.37182e-05
-0.165605
0.00451124
7.12097e-06
-0.109085
0.564334
-0.00667218
-2.69066e-07
-0.181133
-0.161772
4.37207e-05
-0.00257237
0.0174967
0.000116172
4.20965e-05
3.63329e-05
5.59057e-05
4.69308e-05
-0.00322968
0.0161955
0.00107133
-0.00509873
4.54651e-06
4.10641e-05
-0.0611426
4.40487e-05
-0.00135111
-0.000124725
3.67624e-05
-0.0017282
2.19617e-05
3.62986e-05
-0.313891
2.74983e-05
-0.240114
1.91038e-05
1.05538
-0.274883
-0.00475521
4.71072e-05
-3.58985e-06
-0.188066
7.17301e-06
2.57985e-05
9.47665e-06
-0.0160165
-0.0843745
-0.000438898
-0.242587
0.00209257
-0.066096
1.13912e-06
-0.00289166
3.02543e-05
1.24721e-05
-0.124508
-0.197923
-1.08829
3.99128e-05
-0.00283722
-0.00308292
-0.0587324
-0.19097
-0.0920653
-0.000406853
-2.65219e-06
-0.180292
4.92459e-05
5.03764e-05
0.215418
-0.00185824
8.45414e-05
-0.00130845
0.00328622
-0.000168085
-0.00010838
-0.219196
2.31063e-05
2.87787e-05
-0.205343
0.0051619
2.13952e-05
-0.143245
2.2236e-05
1.70098e-05
-0.0080979
-0.00761877
0.421623
2.64582e-05
-2.98945e-05
4.04946e-05
-0.00773671
4.61299e-05
0.0188433
-0.0907817
-0.250025
-0.0867961
-0.432903
0.000345846
-0.210982
-0.0268919
7.2792e-06
0.000262061
-0.00287151
2.16012e-05
-0.00308905
-0.129523
-0.159193
-0.22627
-0.0516194
3.67102e-05
-0.00634303
2.29542e-05
-0.103317
-0.000187182
7.50072e-05
2.80146e-05
6.14785e-05
4.50374e-05
-0.00389069
-0.16379
1.6486e-05
4.8578e-05
2.48111e-05
-0.18306
4.82783e-05
-0.171455
0.294538
-0.941799
7.57327e-06
4.68523e-05
-0.0687606
0.00256366
8.46738e-06
0.00216157
3.93196e-06
-0.00736572
0.000750334
-0.00426711
-0.0013691
0.114387
3.76454e-05
2.95462e-05
0.155584
-0.106834
-0.000137701
-0.00130482
4.22393e-05
-0.586524
2.21859e-05
2.63831e-05
5.29404e-05
3.10969e-05
-0.0241935
-0.11439
-0.0465451
-0.000209202
-0.187445
-0.0587249
9.00082e-06
-0.000234005
1.77803e-05
-0.0197435
4.61438e-05
2.78856e-05
2.53513e-05
3.36187e-05
3.14746e-05
-22.7066
7.31197e-05
0.000207393
6.50945e-07
-0.000640076
6.14747e-06
0.0061307
2.32424e-05
-0.000289759
-0.000276993
0.00137138
-0.0422196
3.37727e-05
-0.0162322
-0.000878806
0.000524385
-7.43974e-06
3.52467e-05
-0.15209
-0.467662
4.78054e-05
4.75057e-05
0.380195
1.35639
-0.000328971
-0.258706
3.92511e-05
0.294031
-0.000225515
1.38797e-05
-0.235863
8.08651e-05
-0.126599
1.3963e-05
6.08025e-05
1.74284e-05
-0.0958783
-0.228535
1.14187e-05
-0.00428948
0.714955
2.23602e-05
4.48913e-05
2.35474e-05
-0.00225666
-0.198485
-0.00138893
0.000112132
-0.000537773
2.45677e-05
2.7338e-05
4.14616e-05
2.60154e-05
0.0427631
2.02787e-05
-0.00117612
-0.277373
-0.000269736
-1.02647e-06
0.444858
-0.00373298
2.40439e-05
-0.00512688
-0.000230666
-0.0288201
1.77751e-05
0.186939
-0.00219728
4.80513e-05
-0.000815292
-0.00167669
1.61186e-05
-0.163277
-0.00108552
0.000226387
-0.0522246
4.85357e-05
-0.00738695
-0.00021713
-0.00516344
3.24509e-05
3.89345e-05
4.07096e-06
-0.00260484
-0.00110286
-0.00125606
-0.154742
-0.152697
0.361853
1.08179e-06
0.0132718
-0.268243
-0.245426
2.61913e-05
4.80628e-05
-0.00185554
-0.158548
2.99917e-05
-0.000451979
-0.162605
-0.133286
-9.12274
0.00863072
-0.0111023
-0.156671
-0.351212
2.04903e-06
-14.1583
0.277533
5.77267e-05
4.81967e-05
5.03502e-05
-0.144136
-0.00174305
-0.275126
3.34366e-05
0.0652248
5.76565e-05
-0.0804287
-0.0754761
3.92016e-05
-0.000412915
-0.197472
-0.0820048
-0.00119399
6.24747e-05
3.29154e-05
8.29307e-06
-0.00458915
-0.000639156
-0.451538
-0.227798
3.09628e-05
-0.117842
-0.00978407
0.314239
2.26195e-05
1.38973e-05
0.41101
0.00331497
3.9508e-05
-0.00123169
5.2866e-05
0.000317869
0.213772
-0.241205
-0.172445
-0.18903
9.80643e-05
1.43541e-05
0.000476359
0.07725
0.121221
4.61545e-05
-0.0397148
-0.000807137
-0.000449524
5.57454e-05
2.43771e-06
-0.022104
-0.108149
0.0410028
-0.00731603
-0.0201778
3.03822e-05
-0.00626517
-0.17948
2.10243e-05
0.00149752
-0.0080736
1.46004e-05
-0.021822
-0.338669
0.0110139
1.24943e-06
0.00591255
-0.00741985
0.511369
-1.50954e-05
7.28616e-05
5.37128e-05
8.59851e-05
5.63807e-05
-0.0011334
-0.000281883
-0.00478394
0.0305653
-0.000408521
-0.125052
-3.85052e-05
0.000220719
-3.5193e-05
-0.465722
-0.000691972
-0.211474
-7.33933e-06
-7.39521e-05
-0.444225
0.00563672
1.36444e-05
-0.00274312
-0.100461
-0.304296
-0.0446048
4.57462e-05
4.50874e-05
5.1702e-05
-0.0767874
4.76073e-05
0.00221972
-0.00301212
-0.0039752
-8.29046e-05
-0.0240503
-0.250947
5.61986e-05
-0.0539213
1.81021e-06
-0.000744416
5.46031e-05
4.17408e-05
-0.00132919
-0.189292
2.0975e-05
-0.176965
-0.0511722
0.00341686
-0.0154805
4.59818e-05
2.53195e-05
-0.000242882
7.32551e-05
0.538039
0.97164
-0.000821372
-0.0269983
4.95244e-05
5.74891e-05
6.08202e-05
8.32217e-07
-0.00745276
5.69782e-05
-0.221942
-0.00106615
5.08026e-05
-0.0316438
-0.600301
-0.184098
-0.358223
4.29694e-05
2.7253e-05
8.4331e-06
0.000101561
0.0302904
-0.000812773
-0.201294
7.30007e-06
5.51501e-05
-0.000577027
4.43868e-06
0.814245
9.66634e-06
-0.00263978
-0.00173309
-0.00332052
-0.00021895
2.76424e-05
-0.00122362
0.00199839
-0.00816086
0.0014805
0.0010773
2.68978e-05
-0.00809254
4.51095e-05
-1.30934
-0.213244
-0.034996
2.82341e-05
0.000818511
3.78609e-05
-0.00153175
5.7302e-05
6.51405e-05
-1.97885e-05
-0.439165
-0.0746433
8.2329e-05
-0.000830624
-0.00680563
-0.00295559
0.171505
-0.190571