/*--------------------------------*- C++ -*----------------------------------*\
| =========                 |                                                 |
| \\      /  F ield         | OpenFOAM: The Open Source CFD Toolbox           |
|  \\    /   O peration     | Version:  v2012                                 |
|   \\  /    A nd           | Website:  www.openfoam.com                      |
|    \\/     M anipulation  |                                                 |
\*---------------------------------------------------------------------------*/
FoamFile
{
    version     2.0;
    format      ascii;
    class       volVectorField;
    location    "1000";
    object      ddtCorrDdt0(U);
}
// * * * * * * * * * * * * * * * * * * * * * * * * * * * * * * * * * * * * * //

dimensions      [0 1 -2 0 0 0 0];


internalField   nonuniform List<vector> 
13917
(
(-0.00697438 0.00196601 -1.03986e-17)
(-0.0012876 0.000616991 1.85963e-18)
(-0.0590028 0.0347836 2.2792e-17)
(0.00322193 0.00221441 5.46082e-18)
(-5.32969e-05 -0.000636234 -1.0798e-19)
(-8.73342e-05 -0.0103573 3.61829e-17)
(-0.0646095 0.0302704 -1.30828e-17)
(-0.0507712 0.0338884 2.10449e-18)
(0.00633985 0.00585293 -6.01468e-17)
(-0.0102309 0.00155481 -6.85301e-20)
(0.0254294 0.025592 -3.28411e-18)
(0.0165982 0.00592266 2.19446e-17)
(0.00335539 0.00220891 -7.82389e-18)
(0.014879 -0.00152108 2.17951e-17)
(-0.00254185 -0.0014472 8.8439e-18)
(-0.00269911 -0.000758235 -2.42448e-18)
(-0.00145399 0.000321509 5.44333e-20)
(-0.00481116 0.013033 -3.8674e-17)
(0.0157223 0.0053154 -2.10418e-17)
(-7.55232e-05 -0.000145753 -6.33195e-19)
(-3.79315e-06 -6.96793e-05 -8.72466e-19)
(-0.0642997 0.0290771 -3.45078e-19)
(-0.000136509 -0.000311133 -8.84366e-19)
(-0.0541598 0.0362393 2.31671e-18)
(-0.000356778 -0.00074521 1.19202e-17)
(-0.0789894 0.0265425 -2.19022e-17)
(-0.000531424 -0.00468119 -2.87935e-17)
(-0.00145356 -0.00546887 3.3687e-17)
(-0.00486775 -0.0106465 1.34617e-17)
(-0.0137793 0.00672115 -2.8519e-17)
(-0.00744063 0.00295552 1.39782e-17)
(-0.00415197 0.00180685 2.25034e-18)
(-0.00109693 -0.0039635 1.65952e-17)
(-4.93163e-05 -0.00252666 -2.78801e-17)
(-0.000297925 -0.0008884 4.49965e-19)
(-0.0478105 0.0436133 1.15295e-17)
(-0.000123316 -0.000303582 2.02956e-18)
(0.00838979 0.00787726 -1.92132e-17)
(0.00432027 0.00265448 -3.88532e-18)
(-0.0942062 0.00258851 -5.25531e-18)
(-0.000114935 3.09954e-06 -1.30659e-18)
(4.26681e-07 -2.40345e-05 1.8924e-18)
(0.000414016 0.000334873 -9.53603e-19)
(-0.00211377 -0.00682701 -4.59144e-17)
(-0.000388615 0.00173936 2.66687e-18)
(-0.000290998 -0.00287886 -1.28676e-17)
(-0.00428246 0.0130011 3.21919e-17)
(-0.000571761 0.019429 5.30044e-17)
(-0.00135551 -0.0148274 -1.40278e-17)
(-8.34888e-05 -1.31339e-05 -2.16466e-19)
(0.00047575 0.0061998 -6.56207e-18)
(-0.000244817 -0.00151207 -9.58808e-19)
(-0.00135134 -0.0158292 4.13333e-17)
(-6.84613e-05 -0.0026138 9.8879e-18)
(-0.00149309 0.000276363 2.5346e-19)
(-0.00195414 0.00523544 -6.77249e-19)
(0.0235293 0.025917 -2.11072e-17)
(-0.000805685 -0.000647023 2.56508e-19)
(-0.00200988 0.00383348 -7.46893e-18)
(-0.000385678 0.0016353 -4.72531e-19)
(0.0171775 -0.00105317 2.67673e-17)
(-0.00129458 0.000689693 8.83697e-20)
(0.00921174 -0.000841239 -3.14386e-17)
(-8.38558e-05 -0.000156846 1.32485e-18)
(-0.000395227 -0.0103508 -5.68811e-17)
(0.029517 0.011225 -7.12492e-17)
(1.66945e-05 -0.000680197 -6.42691e-18)
(3.23517e-05 -0.00101806 -3.80614e-18)
(0.00242426 0.0362232 -3.24848e-17)
(-0.00595152 0.000364086 6.76861e-19)
(-5.7356e-05 -0.000611245 -3.12912e-18)
(0.000855995 0.00761305 2.81993e-17)
(0.0395217 -0.00276703 6.22016e-17)
(-0.000346935 -0.000725452 -1.09239e-17)
(-0.00170777 -0.0142743 7.69887e-18)
(0.0172988 -0.000332857 8.23461e-18)
(0.0415185 -0.00210146 1.4761e-18)
(-0.000466326 0.00279599 1.29511e-17)
(-0.0894298 0.0216102 -6.64334e-18)
(-1.2622e-05 -0.000141199 2.3493e-18)
(-2.53521e-05 -0.000158464 -1.91922e-18)
(1.35294e-05 -0.000643896 5.524e-18)
(-0.000820908 -0.00994373 -1.22967e-16)
(0.00708326 0.00956969 -1.77579e-18)
(0.00931868 -0.00425261 -4.4802e-17)
(-0.000360321 0.00272813 2.07992e-18)
(-4.13142e-05 -0.000177652 1.56407e-18)
(0.0259203 0.0110425 3.3584e-17)
(0.000558827 0.00597236 -1.48738e-17)
(0.000438034 0.000354058 8.9328e-19)
(0.0360465 -0.000131233 -3.11404e-17)
(-0.0123966 0.00336897 -3.42386e-17)
(-0.000549664 0.000779755 1.84648e-18)
(-0.00142033 -0.00118461 -4.37638e-18)
(0.024371 0.010022 -6.72245e-17)
(0.000110637 -0.0101215 1.98582e-17)
(0.0132385 0.0288894 -1.35966e-17)
(-0.00217174 0.0173176 -3.88425e-18)
(0.0286053 -0.00145532 7.09637e-19)
(-0.000958804 -0.00745642 -2.86044e-17)
(-0.000132366 0.000119559 -1.73878e-18)
(-5.42135e-05 -0.00367361 2.63026e-17)
(-0.00184015 -0.00672829 -1.58528e-17)
(0.00013139 0.00343627 -8.86565e-18)
(-0.000212176 0.000392987 -4.72384e-19)
(0.00309785 0.00392704 -4.38408e-17)
(-0.00532386 -0.00993039 -2.61315e-17)
(-0.000981416 0.0201047 5.45637e-18)
(-0.00148811 0.000416011 -3.06069e-19)
(-0.00791634 0.00219079 -1.19175e-17)
(0.0252493 -0.00492854 3.01713e-17)
(-0.091723 0.00284885 3.63142e-18)
(0.0208599 0.00525296 -1.35375e-17)
(0.00508171 0.00406489 6.15071e-17)
(-0.000204567 -0.00181211 7.6193e-18)
(0.00157717 -0.0151822 -1.36181e-17)
(-0.000319505 -0.000461294 -2.4638e-18)
(-0.00106848 -0.0130905 1.54386e-16)
(-0.0416522 0.00484799 -1.36907e-17)
(-0.000327561 -0.00258066 2.11518e-17)
(-1.47145e-06 -4.96064e-05 4.33648e-18)
(0.000314751 0.0356109 2.34554e-17)
(-0.0236214 0.00419217 -2.35014e-17)
(-0.00135642 -0.00533092 -2.34735e-17)
(-0.000107653 -8.02201e-06 -7.01838e-19)
(-0.00136169 -0.00115533 -7.0761e-19)
(-0.000639682 0.0014342 1.58218e-18)
(-0.000102498 -7.63818e-06 7.74322e-19)
(0.000286578 0.00017537 -4.03386e-19)
(-0.000185446 -0.0103881 -4.12112e-17)
(-0.0329563 0.0125204 1.26357e-17)
(-0.000193161 -0.00178121 -2.81644e-17)
(-0.000459178 0.00176286 6.98824e-19)
(-2.39126e-06 -5.71943e-05 1.47843e-18)
(-0.00166785 0.00687799 -5.07621e-17)
(-0.0562365 0.0375029 -5.69689e-18)
(-0.00699302 0.00167694 1.09137e-17)
(-0.000914079 -0.00767386 3.46799e-17)
(5.082e-06 -0.000702371 8.07302e-18)
(-0.000223276 -0.00256964 -4.39788e-18)
(-0.0173598 0.0385306 3.39502e-17)
(-4.32883e-05 0.000828919 6.17344e-19)
(-0.000534611 -0.00154608 2.20042e-17)
(-0.00174261 -0.00738005 1.61663e-17)
(1.59603e-05 -0.00103129 7.66036e-18)
(-0.0140168 0.0118006 -1.15446e-17)
(-0.00560489 -0.0106444 3.51757e-18)
(-0.000258232 -0.00147993 1.01442e-17)
(2.32526e-05 0.000730006 -2.73933e-18)
(-0.00435719 0.00130115 2.02884e-18)
(0.006579 0.015706 3.09177e-18)
(0.000589377 -0.0144962 1.00407e-16)
(0.0175175 0.0172975 6.18891e-18)
(-0.00580859 -0.00184523 -2.13061e-18)
(-0.00341484 0.00358314 -9.47482e-18)
(0.00495513 -0.00220988 -4.36052e-18)
(-0.00567511 0.000331246 -2.83516e-18)
(-0.0583926 0.0456338 1.33441e-17)
(0.0435123 -0.00258988 -2.86468e-17)
(-0.00075415 0.00669211 3.61413e-17)
(-0.00101773 -0.00197444 -8.45367e-18)
(0.000287756 -0.0046542 -8.02995e-18)
(-9.38911e-06 -0.000114794 1.17951e-18)
(0.013374 0.027645 4.42101e-17)
(0.0202928 0.00583961 1.36517e-17)
(0.0277226 -0.000291129 2.89912e-18)
(3.49356e-05 0.00336435 6.96601e-18)
(0.00270398 0.0173016 2.88337e-17)
(-0.000301937 0.00131357 4.97623e-18)
(4.64741e-05 -0.00381545 -1.33971e-17)
(-0.00626393 -0.00128383 3.91217e-18)
(0.0267701 -0.0042039 2.08336e-17)
(0.0218668 0.00275041 -8.61388e-18)
(-0.00177619 0.000195601 -7.8255e-20)
(-0.0316759 0.0222443 -4.36954e-17)
(-0.00610314 -0.00259112 -1.88477e-18)
(-0.0350663 0.0140479 -1.98333e-17)
(-0.000440538 -0.0138282 -1.13529e-17)
(-0.0189017 0.0140255 3.91849e-17)
(-0.000740622 0.000161273 9.29584e-20)
(-0.0127792 0.00379727 -8.52654e-18)
(-0.00774488 0.00324528 6.69545e-18)
(-8.00064e-06 0.000846807 -3.66855e-18)
(-4.68135e-05 -0.000196241 -1.61285e-18)
(-0.00258882 -0.0024743 1.4565e-17)
(-0.0822316 0.0289809 -5.14056e-18)
(-0.0184703 0.00315739 7.07502e-18)
(0.00685991 -0.00202583 -2.36973e-17)
(-0.00412922 0.00799832 8.05326e-18)
(0.0281678 0.0066638 -1.31697e-17)
(-0.0572482 0.0527667 1.87247e-17)
(0.00876458 -0.00426925 9.10422e-17)
(-0.0171137 0.00123941 -8.38412e-18)
(-0.000127105 -0.000403867 -2.29802e-18)
(-0.00038804 -0.00776139 1.38362e-17)
(-0.000540599 -0.00454364 -1.96365e-17)
(-4.81585e-05 7.25949e-06 -9.1918e-19)
(-0.000585821 0.000790746 3.41874e-18)
(-0.00587864 -0.00863339 -6.76012e-18)
(0.00845481 0.00415978 -6.90073e-17)
(0.00298583 0.00512118 -7.8973e-18)
(-7.76938e-05 -1.2413e-05 8.96165e-20)
(0.00397466 0.0156769 -2.44704e-17)
(0.00677174 0.0150619 -3.86614e-18)
(0.041511 -0.00293793 1.18031e-17)
(-0.0207016 0.0151971 1.93517e-17)
(-0.000271058 -0.000879556 -2.1453e-18)
(-0.000837142 -0.000660076 -1.36571e-20)
(-0.00141299 0.0172527 -1.88374e-17)
(-0.0738519 0.0334995 5.99086e-18)
(-0.000549077 -0.00149625 -2.00344e-17)
(-0.0614692 0.0302468 -1.26695e-17)
(0.0447734 -0.00334789 -7.2371e-18)
(0.0276548 0.00747946 7.79088e-18)
(-0.00023098 0.000371296 2.22717e-19)
(-0.00298839 -0.0104673 4.95347e-18)
(-0.000240052 0.0157372 6.4987e-18)
(0.0350192 -0.00416212 5.46824e-17)
(-0.000470561 -0.000388509 -1.07383e-18)
(0.0203983 0.000758333 -1.91449e-17)
(-0.000706001 0.000137432 7.25338e-20)
(-0.0128882 0.00897062 1.37785e-18)
(-0.000116476 3.64963e-06 1.20217e-18)
(0.0179376 0.00652127 -1.61923e-17)
(0.0049286 0.00228719 5.04064e-19)
(-0.00284593 -0.00075932 -1.09333e-18)
(-0.0115299 -0.00870984 1.81339e-17)
(-0.00347949 0.00381689 7.64539e-18)
(-0.000230895 0.000329472 1.89787e-19)
(-0.0321395 0.0408375 9.50773e-18)
(0.0210285 0.0022384 1.32283e-17)
(-0.00380488 0.00807515 1.25656e-20)
(-0.0611637 0.0380283 1.73992e-17)
(0.0457561 -0.00355639 -8.2389e-18)
(-5.44246e-05 0.000102237 -1.35771e-18)
(-0.00431351 0.00191139 -6.67229e-18)
(0.0339649 0.000354051 -3.36942e-17)
(0.00764445 -0.0038687 1.31077e-17)
(-1.35383e-05 -0.00013419 -1.54992e-18)
(-0.000221159 -9.75239e-05 -1.3753e-19)
(-0.0960531 0.00175886 -3.11367e-18)
(0.0118086 0.0320681 4.44907e-17)
(-9.66498e-07 -3.12546e-06 7.23697e-20)
(0.044353 0.0141739 -2.04911e-17)
(-0.0101539 0.0173851 1.9407e-17)
(0.000364571 -0.00458701 2.72403e-17)
(-0.00634243 0.00254146 1.7442e-17)
(-1.58693e-05 -0.000124741 1.66526e-18)
(-0.00516725 -0.00328382 1.88872e-18)
(0.0452558 -0.00332839 1.76227e-17)
(0.00121003 0.00155862 -3.05771e-18)
(-0.0140127 0.00280196 1.19122e-17)
(-0.00129965 -0.00820433 8.70659e-17)
(-0.000573469 0.00142432 -1.46903e-18)
(-0.000759216 -0.000685997 1.81137e-18)
(0.0146071 0.0138272 4.14143e-17)
(-0.0926954 0.00345041 1.1334e-18)
(0.0168201 0.0164999 -3.78395e-18)
(-0.00271897 -0.00251891 2.23985e-18)
(-0.00264768 -0.00135862 -5.57175e-18)
(-8.79191e-07 -5.5554e-06 -1.3554e-19)
(-0.0250886 0.00211082 -2.66234e-17)
(0.00353174 -0.00299783 1.69282e-18)
(0.0518592 0.000489392 7.38964e-18)
(-0.000246697 0.000309499 -2.25048e-19)
(0.0386505 -0.0039282 -1.32988e-17)
(0.0175711 -0.000581528 -3.92263e-17)
(-0.0587742 0.0446032 -3.69412e-17)
(-0.0894737 0.0204837 3.1652e-18)
(0.0181311 -0.000740365 -2.10875e-17)
(-2.64454e-05 -0.000155376 -2.86667e-18)
(-0.000117189 -5.31972e-06 -3.15112e-19)
(-0.00357132 0.0135938 3.76425e-17)
(0.0279681 0.00237214 -2.40055e-17)
(-0.00526 0.0266816 -3.66887e-17)
(-0.0018158 0.00378811 3.64267e-18)
(-0.0180672 0.0127555 -3.96329e-17)
(0.00989968 0.00261993 -1.32709e-17)
(0.000300782 0.000125409 -6.65946e-19)
(0.0143218 0.000651197 -2.47235e-18)
(-8.2685e-05 -0.000127204 3.95512e-19)
(-0.0302556 0.0224885 5.39146e-17)
(0.00290192 0.00489883 -2.03153e-17)
(-1.64023e-06 -3.22522e-06 3.77237e-19)
(-0.00337146 -0.000872982 1.61246e-18)
(-0.00574469 -0.00199221 3.16326e-18)
(0.000201032 -0.00463184 -7.30797e-18)
(0.0266 0.0209869 1.38586e-17)
(-0.00426845 -0.00163289 2.12364e-18)
(0.000730627 0.00192585 -6.39414e-18)
(-0.00334556 0.0133396 -9.8745e-17)
(-0.0604407 0.0378447 4.50017e-17)
(0.00597469 -0.00373495 -1.80759e-17)
(-0.000448811 -0.00040183 2.51423e-19)
(-0.0530293 0.0391589 -4.14131e-17)
(-5.88141e-06 -0.000415441 -3.27721e-20)
(0.000802213 0.00190306 -2.80015e-18)
(-0.000296906 -0.000443076 3.43887e-18)
(-0.00594604 -0.0112332 -2.38424e-18)
(-4.34522e-05 -2.01025e-05 9.98768e-20)
(-0.0134404 0.00904276 1.06382e-17)
(-0.00611035 0.0023819 -5.13707e-18)
(-0.000243983 0.00128554 -1.27095e-17)
(0.00462792 0.015981 8.96362e-18)
(-0.00207467 0.00140238 5.43988e-18)
(-0.000650184 -0.0144479 -8.69448e-17)
(-0.00586594 -0.00241841 3.47654e-18)
(-0.0119292 0.00347226 -1.99797e-17)
(5.71024e-05 0.00114003 1.77696e-19)
(-0.000728215 -0.000669164 3.79613e-18)
(0.0250219 -0.00482772 3.939e-17)
(-0.0149761 0.00333283 -2.61607e-17)
(-0.000340645 -0.000454966 2.67371e-18)
(-0.000119448 -1.51631e-06 2.03552e-19)
(0.0148754 0.00139753 -3.01458e-17)
(-0.00067748 0.000351929 5.57211e-19)
(0.038234 -0.00250864 -6.13141e-17)
(3.52344e-05 0.00109086 1.37577e-18)
(0.0173115 0.00739395 -1.64348e-17)
(0.00225125 0.00173528 -6.04287e-18)
(-0.0138906 -0.0055038 8.90963e-18)
(0.00162323 0.00912535 -4.60985e-19)
(-0.00228573 -0.0142258 1.04598e-17)
(-0.00102139 -0.00189771 1.06836e-17)
(-0.000877775 0.00834983 -8.41822e-17)
(-0.00226006 -0.00953159 3.37272e-17)
(-0.0033469 -0.000730058 -6.64376e-19)
(0.0105178 0.0319814 -1.17981e-17)
(-0.00765725 -0.0100344 -4.55493e-18)
(-0.00125751 -0.000518759 3.1577e-19)
(-0.0138522 0.0103285 -2.51336e-17)
(-0.000201962 -0.00759786 -7.30574e-17)
(0.0184428 0.000147865 2.14884e-17)
(-0.000454216 -0.00230495 -4.24774e-17)
(-0.0732719 0.000731009 8.13639e-18)
(-0.00445744 0.0022703 7.08092e-18)
(0.0139087 -0.0047773 1.09108e-17)
(-0.00195748 -0.00923056 1.61574e-17)
(-0.00593016 -0.00688875 3.52276e-18)
(-0.00612529 -0.00669057 2.56214e-18)
(-0.0562768 0.0327673 -1.56883e-17)
(-1.57713e-05 -0.000207494 3.72439e-18)
(-0.00657112 -0.00125868 -8.40142e-18)
(0.0230517 -0.00515017 -7.76672e-17)
(-0.000764489 -0.00102725 -1.27437e-18)
(-0.00223226 -0.000316258 3.75332e-19)
(0.0119314 0.000638639 -5.00427e-17)
(-0.00574489 -0.00930796 -1.94719e-18)
(-0.00170828 0.000429639 -9.89556e-19)
(-0.0459103 0.0517872 -1.68385e-17)
(-0.00448862 -0.0104262 -9.6278e-18)
(-0.000146711 4.92507e-05 -1.96832e-19)
(-0.0421581 0.00372951 4.70377e-18)
(-0.0513234 0.049126 5.19382e-18)
(-9.11139e-05 -0.000136487 -1.28248e-18)
(-0.000321964 1.07149e-05 5.93703e-20)
(-7.3357e-07 -0.000389757 1.81238e-20)
(5.5641e-05 0.000747057 4.55306e-18)
(-0.00691707 0.0145827 6.4143e-17)
(-0.0235773 0.0168999 6.88104e-17)
(0.00212699 -0.0106863 -3.14987e-17)
(0.0230415 -0.00504455 1.56227e-16)
(-0.000339774 -0.00061752 -9.97539e-19)
(-0.0145273 0.0028435 1.91979e-17)
(0.0043606 -0.00193866 5.98856e-17)
(0.00288982 0.0122533 2.63067e-17)
(-0.0609592 0.029287 3.59167e-17)
(0.0263775 0.00377051 -2.42273e-17)
(0.00684005 0.00255707 6.1698e-18)
(-7.03519e-05 0.000199161 -1.45816e-18)
(0.0592183 -0.00326706 -1.43624e-18)
(-0.000307305 8.02213e-05 1.5522e-18)
(0.0214627 0.00185458 4.19557e-17)
(-0.000434197 0.00158467 -1.30231e-18)
(-0.00286044 -0.0150611 1.58696e-18)
(-0.0107783 0.0170745 -5.92299e-17)
(0.00342845 0.00341733 1.27838e-17)
(-2.51054e-05 -0.000260087 9.32994e-20)
(-0.00113864 0.0166019 -2.43223e-17)
(-0.013242 0.00376535 -1.56069e-17)
(-0.00631631 0.0170474 1.55172e-18)
(-0.0061482 -0.0164698 -1.62965e-18)
(0.0152345 -0.00470234 2.48744e-17)
(0.035806 -0.00409399 2.65171e-18)
(-0.0054461 -0.00336466 -2.178e-18)
(-0.00981485 0.00159587 -9.55039e-19)
(-0.000209985 -0.000102679 6.66222e-20)
(0.00751998 -0.00395917 -3.22458e-17)
(-0.0686165 0.02768 -5.79895e-18)
(-0.000929406 -0.000460715 -1.54778e-18)
(-0.00188326 0.0101168 2.21867e-17)
(-0.000240638 -0.00071427 -1.92301e-18)
(-0.0217454 0.0223892 -3.30188e-17)
(0.00217338 0.00176992 -4.50103e-19)
(-1.19511e-05 -0.000176424 3.15364e-18)
(-0.00215552 0.00112277 -2.91453e-18)
(-0.0925445 0.00573296 1.12171e-18)
(-0.0021556 0.0010432 1.17849e-18)
(-0.0920603 0.003729 -8.46772e-19)
(0.00502389 -0.00193954 3.76258e-17)
(0.0303164 0.0180377 1.37751e-17)
(-0.00220674 -0.0100148 5.69129e-17)
(-0.00124604 -0.000455911 -3.29094e-18)
(-0.00259539 -0.010141 -2.45504e-17)
(-0.00221731 -0.0100499 4.25509e-17)
(-0.000208655 -0.000309948 -1.95467e-18)
(-0.00537662 -0.00955271 1.86776e-17)
(-0.00074462 -0.00100262 1.26178e-18)
(-0.000285484 -0.000781047 -1.44737e-18)
(-0.0136232 0.00627466 4.43826e-18)
(-1.71563e-06 -8.69105e-06 1.89016e-19)
(-0.000353364 -0.000798711 -8.43911e-18)
(-0.000297644 9.29385e-05 -1.82115e-18)
(-0.0148595 0.0149822 5.59354e-17)
(-8.65429e-06 -0.000111323 -3.11335e-18)
(-0.0672992 0.00287372 -1.09681e-17)
(-0.0919414 0.0131564 -2.82417e-19)
(0.00380131 -0.00214649 3.72805e-17)
(-0.016692 0.000543564 9.78344e-18)
(-0.0825566 0.0106073 -1.398e-18)
(0.0384272 -0.00418008 -2.09437e-18)
(0.00322682 0.0119385 -2.16392e-17)
(-0.000324052 -0.000593989 8.31806e-19)
(-0.0167092 0.0177713 -3.22021e-17)
(0.00416011 0.00271226 -1.5371e-18)
(-0.00470673 0.00193427 2.04891e-17)
(-0.000139615 -0.000420951 1.21465e-18)
(-0.0179373 0.0146328 -4.73941e-17)
(-0.0708911 0.031345 -4.42456e-18)
(-0.0872966 0.0127442 -8.48176e-19)
(-0.00240504 -0.00105214 -1.85183e-19)
(-0.0106395 0.0197956 -1.16973e-17)
(-0.000377543 -0.00223745 3.2704e-17)
(0.00450821 0.00277736 -1.69089e-17)
(-0.00570297 0.017113 1.86333e-17)
(-0.00204204 0.000471816 5.13246e-19)
(0.0568862 -0.00712988 2.4308e-17)
(-0.00144412 0.000476303 -1.09159e-18)
(-4.35392e-05 -2.38808e-05 2.67515e-19)
(0.0359493 -0.00230911 -1.48001e-17)
(-0.0371099 0.0134593 2.59856e-17)
(-0.038845 0.0149905 -3.31294e-17)
(-0.0130061 -0.00111547 -7.05499e-18)
(0.00317025 -0.00202111 -5.38151e-17)
(-0.0150239 0.0125752 1.20435e-18)
(0.0277951 -0.00530699 3.5523e-17)
(0.0353799 -0.000939212 -2.45572e-17)
(0.000221458 0.000164885 -6.36867e-19)
(-0.00267106 0.0153634 -1.14897e-17)
(-0.0020456 0.000516308 -1.10345e-18)
(-0.000851439 -0.000743909 -2.12595e-18)
(-0.0186722 0.0151725 -6.45806e-17)
(-0.0040706 0.0136191 -2.89595e-17)
(0.00054191 3.87303e-05 6.15815e-19)
(-0.00893792 0.0103586 3.85396e-17)
(0.00205325 0.0114634 -3.00885e-17)
(0.0330673 -0.00160576 9.10293e-17)
(-0.000224031 -0.000309786 1.42601e-19)
(0.00321248 0.0286161 -6.61468e-18)
(0.00564187 -0.00371671 -1.67921e-18)
(-0.016538 -0.0073588 -2.39724e-18)
(-0.0599863 0.0051551 -1.30249e-17)
(-6.5452e-06 -0.00010102 3.55321e-18)
(-0.000930616 -0.000498059 -2.23707e-18)
(-5.04042e-05 1.38698e-05 2.39403e-18)
(-0.0055632 9.05026e-05 5.01291e-18)
(-6.44468e-05 0.0001859 -2.65369e-18)
(-0.0879632 0.0294045 -2.4007e-18)
(0.0018205 -0.0104248 2.31403e-17)
(-0.00421609 -0.00144129 -2.44496e-19)
(0.0062877 -0.00361023 2.86575e-17)
(-0.00170605 0.00530017 1.18532e-17)
(0.0150431 0.0274633 -2.97318e-17)
(0.0253899 -0.00549467 -1.65958e-18)
(-0.00572262 -0.0106395 -8.17319e-19)
(0.0303317 0.0166929 -3.79917e-18)
(-0.0404392 0.045012 -3.46561e-17)
(0.00423324 0.0289479 9.6862e-18)
(-0.00944772 0.00834253 2.32722e-18)
(-0.0152212 0.0215937 -1.59676e-17)
(0.00895124 0.00852043 3.21785e-17)
(0.0311186 0.0117563 2.69298e-18)
(-0.000798521 -0.0104488 8.49299e-17)
(0.0114779 0.00646295 4.1912e-18)
(0.00135669 0.0222057 3.82579e-17)
(9.1484e-05 4.20456e-05 2.81511e-18)
(-0.00773736 0.00979722 -4.58622e-17)
(6.30579e-05 0.00646638 4.5187e-18)
(0.00076909 0.000868189 1.50805e-18)
(-0.00535054 6.13095e-05 -5.26125e-18)
(-0.000329391 0.00300908 -3.55835e-19)
(0.0338415 -0.000936777 -2.43807e-17)
(0.00316124 0.00547941 -1.51547e-17)
(-0.000652543 0.000306699 -9.85931e-19)
(0.000299665 0.000103365 -1.03778e-18)
(-0.0806497 0.0347091 -5.6607e-18)
(0.0392731 -0.00416786 -1.87668e-17)
(-1.48728e-06 -6.42378e-06 4.30351e-20)
(-0.0616919 0.00331912 -4.70763e-18)
(0.00159765 0.00292415 -1.13008e-17)
(-0.0165239 0.00147643 -3.05365e-17)
(-0.000712656 0.000270017 7.23687e-20)
(0.0418057 -0.00364139 3.11171e-18)
(-0.0425372 0.0303474 2.5627e-17)
(-0.00434241 0.00148525 5.87721e-18)
(-0.00114456 0.0015614 -7.42895e-18)
(-0.0828342 0.0122479 1.56433e-19)
(-0.0173797 0.00329381 -1.95503e-17)
(0.0067927 -0.00263776 -7.69987e-17)
(-1.0792e-06 -7.74723e-06 -7.62844e-20)
(0.0445229 -0.00321455 -1.86381e-17)
(-0.000163471 -0.0139191 -1.58826e-16)
(0.0159536 0.00132744 -1.84163e-17)
(0.000729233 0.000891384 -4.81295e-18)
(0.00960515 -0.00419718 1.68144e-17)
(0.0116753 -0.00517027 5.00281e-17)
(0.00417433 0.0118859 -7.82704e-18)
(-0.000322125 3.81146e-05 4.56253e-20)
(-0.00143969 3.90747e-05 6.60917e-20)
(0.0163919 -0.00162301 7.83295e-18)
(-0.0219842 0.019818 -5.03868e-17)
(0.000563699 4.87719e-05 -6.16483e-19)
(-0.000305167 -8.46135e-06 -3.82629e-19)
(-0.000113178 -2.54731e-05 7.93073e-19)
(-0.000117232 -2.3616e-05 2.41758e-19)
(0.0408083 -0.00388497 -2.67524e-17)
(-0.0177839 0.0151911 -1.93381e-18)
(0.00378842 0.0116907 -2.04724e-18)
(-0.0178921 0.00368575 -5.03047e-18)
(-0.00011651 -4.33295e-06 9.66707e-19)
(-0.000134708 0.00010272 6.48091e-19)
(-0.00980145 0.0199886 -1.95968e-17)
(0.0199633 -0.00308857 2.24102e-17)
(-0.00420972 0.00631735 -2.80416e-17)
(-0.000297568 0.00137065 -1.91472e-18)
(-0.000312209 -0.000771129 7.01533e-19)
(2.21361e-06 -0.000845448 -4.29205e-18)
(0.015426 0.000493672 2.0355e-17)
(0.00895114 -0.00424686 -3.64517e-17)
(-4.0376e-05 -0.000151837 -1.8772e-18)
(-5.61215e-05 -0.000838189 8.08338e-18)
(0.0598799 -0.00531416 -2.63213e-17)
(0.00856272 0.00872075 -8.90132e-19)
(0.00195749 0.00911063 -1.74462e-18)
(-0.00090085 -0.000555387 -3.90134e-19)
(-0.0022212 0.000865435 2.67743e-18)
(-0.00384747 0.000943318 -4.18402e-19)
(0.00186287 0.0217892 -2.66581e-17)
(-0.00734204 -0.00954477 -3.72851e-18)
(-0.0191636 0.00344447 3.59018e-17)
(-0.0169773 0.0185149 -2.86948e-18)
(-0.00566544 0.022862 5.92971e-17)
(-0.0213696 0.0148775 -1.87018e-17)
(-0.0118292 0.00395713 3.33226e-18)
(-0.00042842 -0.000441899 1.3392e-18)
(0.0441219 -0.00315714 2.76255e-17)
(1.34436e-05 -0.000826069 5.80978e-18)
(-0.00233149 -0.000325289 2.73236e-19)
(0.00252533 0.003925 2.13883e-17)
(-0.00904478 0.0107316 1.42344e-17)
(-0.00675485 -0.00509644 3.16211e-19)
(-9.25472e-05 2.17435e-05 -1.31786e-18)
(-0.017714 -0.00773159 9.79832e-18)
(-0.0146551 0.00742259 3.55259e-18)
(0.00566963 0.00136606 5.10257e-17)
(-0.00625246 0.0223793 -2.36444e-17)
(-0.00249884 -0.00366191 -2.18556e-17)
(0.00196332 0.0119633 4.02873e-17)
(-3.00234e-05 -0.000289973 -7.67894e-19)
(0.00711465 -0.00428587 -3.70523e-17)
(-0.0150105 -0.00573901 -1.76969e-17)
(-0.0295593 0.0237145 -1.99399e-17)
(-0.00136623 0.000443802 1.59032e-18)
(-0.00273827 0.00611852 4.84642e-17)
(-0.0194802 0.00323981 1.65634e-17)
(0.0265772 0.00410804 -3.76525e-17)
(0.0309284 -0.00299933 5.45663e-17)
(-0.00250303 0.0179991 -2.45814e-17)
(-0.013484 -0.00117545 1.01018e-17)
(-0.00257066 -0.000852323 2.84014e-19)
(-0.0023714 0.00249631 -6.46349e-18)
(-0.000900677 -0.000584999 6.28649e-19)
(-0.00402609 -0.0050002 -4.86045e-18)
(-0.00166298 -0.00706393 -1.76105e-18)
(8.23881e-05 -0.00138188 1.43383e-17)
(0.000414894 0.0155326 -4.92089e-19)
(-0.000981992 -0.00805135 3.05524e-17)
(-0.0299331 0.0243488 1.45882e-17)
(0.00723656 -0.00278852 1.16936e-16)
(-0.00271091 0.000872709 -7.8597e-19)
(0.0153181 0.0263376 1.25023e-17)
(-0.044975 0.0328786 -4.12276e-17)
(-0.00369747 -0.000848998 1.57993e-18)
(-0.000613677 -0.00142162 5.85272e-18)
(-0.00393966 -0.0139889 -1.68618e-18)
(-0.00309905 0.00194905 1.14128e-17)
(-0.015431 0.0157558 5.31465e-17)
(-0.0178069 0.00519952 -5.48861e-17)
(0.000265531 0.000191182 -4.85715e-19)
(-0.0378304 0.00384678 -1.09214e-17)
(0.0165164 -0.000694989 -6.48819e-18)
(-9.68943e-05 1.46928e-05 1.56036e-18)
(-0.00480327 0.00418254 -3.36947e-19)
(0.00866864 0.0207891 -3.54205e-17)
(-0.00114401 -0.00380796 -4.64251e-19)
(-0.013433 0.00712127 5.06331e-17)
(-0.0875582 0.0226055 -1.41598e-17)
(-0.0146337 0.02166 9.73032e-18)
(0.00772881 0.00750381 -1.28412e-17)
(0.0069655 -0.0041172 -4.12583e-17)
(-0.000799431 0.00310694 -2.73382e-18)
(0.0373734 -0.00154515 1.03689e-17)
(-1.05742e-05 -0.000124549 -2.44521e-18)
(-4.48673e-05 -0.000164711 2.51357e-18)
(-0.0529909 0.0391368 2.02442e-17)
(-0.00212067 0.0020654 -6.76411e-17)
(-0.00151012 -0.010683 5.16105e-17)
(-0.000687611 0.00316934 -1.33975e-17)
(-0.00172035 0.00025182 1.90599e-19)
(-6.72145e-05 -0.000819505 -5.2611e-18)
(0.0102101 0.00286792 -3.02366e-18)
(-0.00179507 -0.0151792 -1.30399e-17)
(0.0258306 -0.000175183 7.15313e-18)
(-0.00244856 0.00263326 3.39924e-18)
(0.0280925 0.0163614 3.24732e-18)
(-0.000436266 0.0164648 3.20475e-17)
(-0.000741467 0.000270452 1.21651e-18)
(-0.0138547 -0.0101568 -6.05885e-18)
(0.0247548 -0.000991825 -5.54626e-18)
(0.0530245 -0.0165552 -7.01242e-19)
(-0.000508607 -0.000301717 -2.49335e-18)
(-0.0134504 0.0229805 5.2883e-17)
(-0.000449969 0.00290728 -1.22728e-17)
(0.00637727 -0.00177173 -5.91681e-17)
(-0.0105107 0.00182039 1.12814e-17)
(-0.00692658 -0.00482571 1.2625e-18)
(-0.00298252 0.00613981 -2.62071e-17)
(-0.000127217 1.01149e-05 1.08889e-19)
(0.000488006 0.000853803 5.13826e-18)
(-0.00065857 0.00151425 -7.59574e-19)
(-0.00678421 -0.00665079 1.5485e-19)
(-0.00041472 -0.0029381 1.93109e-17)
(-0.0262528 0.0100085 -6.37639e-18)
(-0.00484691 -0.0136973 -6.695e-19)
(0.00211547 0.0168284 -1.64974e-17)
(-0.000148145 3.4389e-05 -1.06142e-19)
(-0.0150294 0.0199171 1.79298e-17)
(-0.00173774 -0.0110099 -5.91543e-17)
(-0.0630119 0.0499168 1.80903e-17)
(0.00113851 0.00152592 -1.1179e-18)
(-0.000662666 -0.00272218 -2.178e-17)
(-0.000303645 -3.51914e-05 -1.82277e-20)
(0.00549165 0.00458096 -7.6682e-18)
(-0.00206106 0.00400727 3.24201e-18)
(0.0123402 -0.00508357 -5.59785e-17)
(-1.40425e-05 -0.000162799 -6.20148e-18)
(0.00247473 -0.000414527 -2.58758e-17)
(0.00502759 0.00497404 2.03966e-18)
(0.0249693 0.0244806 4.99946e-17)
(-0.0122728 0.0025249 4.31626e-18)
(0.0394683 -0.00324494 -1.64963e-18)
(-0.00749668 -0.00460391 -1.30853e-18)
(-0.00137331 2.06588e-05 4.91505e-19)
(0.0326613 0.000970164 5.64246e-17)
(0.0448375 -0.00417279 -2.36391e-17)
(-0.00100576 -0.00014213 -2.46392e-18)
(0.00259273 0.00377848 -1.27566e-17)
(-0.0383486 0.0260994 3.10515e-17)
(-0.0178444 0.00445849 -2.96706e-17)
(-0.00427149 0.0265257 2.79406e-17)
(-4.05629e-06 -9.82006e-06 -7.44079e-20)
(-0.00113383 0.00164537 6.34619e-18)
(-0.0138208 -0.00535262 -1.52457e-17)
(0.00360052 0.00342978 -2.21793e-17)
(-0.00656211 0.0162768 -1.24003e-17)
(0.0138561 0.0133814 -3.9415e-17)
(0.00052364 0.00088199 -5.12102e-18)
(0.00797135 0.0145529 -2.39349e-17)
(-0.0582738 0.0351862 -3.70307e-17)
(0.00125412 0.00143325 1.66463e-18)
(0.00271717 0.00217657 3.41578e-19)
(-0.000106639 -3.3289e-05 7.52816e-19)
(-0.0170649 0.00252233 3.93017e-17)
(-3.15959e-06 -7.55514e-05 -2.67862e-18)
(-0.00233892 -0.00102245 -6.98139e-19)
(0.0261639 -0.00421376 -4.50229e-17)
(-0.00200929 -0.000602449 2.8388e-18)
(-0.00579982 0.00351194 -1.631e-17)
(-0.00354481 0.00343166 8.50714e-18)
(-0.00119446 -0.00406275 3.54706e-17)
(-0.000112252 -3.08736e-05 -9.42266e-19)
(-0.00630499 -0.00300036 2.64472e-19)
(-0.000276157 -0.000449273 8.06717e-19)
(-0.00943153 0.00744958 2.17176e-17)
(-0.000119317 3.03251e-06 1.1595e-18)
(-0.00913574 -0.00359139 8.29183e-18)
(0.00148377 0.00292428 -1.76606e-18)
(0.0172861 0.00371125 1.6635e-17)
(-0.00422891 -0.0124612 -6.85429e-17)
(0.0200197 -0.00346827 9.96672e-18)
(-7.11131e-05 1.31538e-05 -4.11783e-19)
(-2.02644e-05 -0.000235297 -5.25414e-18)
(-0.0113823 0.00406081 -6.27077e-18)
(-0.00845242 0.00334196 -1.30545e-17)
(0.00533863 0.00282065 1.05941e-16)
(0.0146562 0.000191374 2.13213e-18)
(-0.00523738 0.0124869 -2.25416e-17)
(-0.000273785 -0.000844726 4.2784e-18)
(-0.0188163 0.0158124 -2.19112e-17)
(-0.0016081 -0.0109675 -4.10558e-17)
(0.0517249 -0.0145011 2.356e-19)
(-0.0237014 0.00998758 2.06718e-19)
(-0.00243043 0.0135944 -1.88589e-18)
(-0.0928462 0.0184934 2.21784e-18)
(-0.00676813 0.00122473 -8.14118e-18)
(0.00954076 0.00274683 -6.4664e-18)
(-0.0156803 0.0152411 6.3393e-17)
(-0.00554921 -0.00830153 -1.50026e-17)
(-0.00522347 0.0120603 1.72919e-17)
(-0.00258204 -0.0115809 -8.40416e-17)
(-0.00579589 0.011276 -7.34221e-18)
(0.00281825 0.00283871 -3.12864e-18)
(0.0086536 0.021235 -1.6152e-17)
(-0.0034909 -0.000623558 -1.06007e-18)
(0.000800594 0.00112079 5.14169e-18)
(0.00528443 0.00463371 7.14036e-18)
(-0.00787122 0.00251694 -1.28192e-18)
(-0.00417068 0.00119946 2.60592e-19)
(-0.000272365 -0.000514326 -8.54674e-19)
(-0.000118438 -2.20134e-06 -1.89702e-19)
(0.000839524 0.0167665 -1.27564e-17)
(0.00103528 0.00361672 -9.12631e-18)
(-0.00720468 0.01628 8.73112e-18)
(-0.000247478 -0.000818154 -1.77391e-18)
(-0.000182646 -0.00071948 9.94768e-19)
(-1.30849e-06 -6.25895e-05 2.61635e-18)
(-0.00221602 0.000687987 -2.65348e-18)
(0.000660487 0.000393534 -1.66229e-18)
(-0.00350996 0.00148062 -1.6206e-17)
(-0.000101459 -4.0981e-05 1.47379e-19)
(0.0419988 -0.0037545 -8.5064e-18)
(0.0157143 0.00394615 3.01161e-18)
(0.00190648 -0.00998881 5.02067e-18)
(-9.70479e-05 0.000149115 2.97581e-18)
(-6.90268e-06 -6.8663e-05 2.28793e-18)
(-0.0019984 -0.00506377 -3.95386e-17)
(-0.00969769 0.00866719 6.94976e-18)
(-9.72414e-05 -0.0017375 3.08808e-18)
(0.0119598 -0.00120689 3.91673e-17)
(-0.0105829 -0.000798013 1.65665e-17)
(0.0236446 0.00388856 -3.66215e-18)
(0.00526648 0.00491631 7.27423e-19)
(-0.0121316 0.0204122 3.46915e-17)
(0.000453023 0.00261574 1.50702e-17)
(9.18155e-07 -5.5711e-05 -1.8477e-18)
(-0.000117115 -1.77387e-05 -2.81042e-19)
(-0.0021146 0.00130689 -3.97758e-18)
(0.0203471 -0.00352412 3.00635e-17)
(-4.93693e-06 -5.61296e-05 -1.49008e-18)
(-0.0208993 0.0123005 -4.73804e-18)
(-0.00365279 0.00149372 -1.61447e-18)
(0.00466307 -0.00205159 8.00852e-17)
(-0.00527079 -0.00388644 -1.59318e-18)
(-0.0109339 -0.000644939 -1.4198e-17)
(0.0260527 0.0228975 -5.9491e-17)
(0.00018769 0.000513937 -9.35951e-19)
(-2.46718e-08 -9.42578e-07 2.86659e-19)
(0.015998 0.0041168 8.09637e-18)
(-8.13437e-05 -0.00102107 -2.53389e-18)
(-0.00118437 -0.00086059 4.45965e-18)
(0.0102871 0.000224857 -8.47641e-18)
(-0.00185818 0.000223275 -1.17856e-19)
(-6.58303e-06 -0.00038722 -1.64418e-18)
(-0.00322386 0.00460486 -4.58148e-18)
(-0.000194942 -7.24639e-05 3.2648e-19)
(0.000209866 8.13268e-05 2.57479e-18)
(-0.00416788 0.00160171 5.35972e-18)
(0.000412499 -0.0030151 -4.8083e-17)
(0.00498946 0.000805904 -2.27938e-17)