/*--------------------------------*- C++ -*----------------------------------*\
| =========                 |                                                 |
| \\      /  F ield         | OpenFOAM: The Open Source CFD Toolbox           |
|  \\    /   O peration     | Version:  v2012                                 |
|   \\  /    A nd           | Website:  www.openfoam.com                      |
|    \\/     M anipulation  |                                                 |
\*---------------------------------------------------------------------------*/
FoamFile
{
    version     2.0;
    format      ascii;
    class       volScalarField;
    location    "450";
    object      k_0;
}
// * * * * * * * * * * * * * * * * * * * * * * * * * * * * * * * * * * * * * //

dimensions      [0 2 -2 0 0 0 0];


internalField   nonuniform List<scalar> 
13917
(
0.000170558
0.000151942
0.0759317
0.000163604
0.000148941
0.000195216
0.0713186
0.076292
0.0666447
0.000180062
0.018726
0.000210296
0.000163916
0.00886867
0.000157831
0.000157293
0.0001522
0.000187409
0.000209892
0.000148788
0.000149803
0.069408
0.000148842
0.0790427
0.000149088
0.0702063
0.00016277
0.000165817
0.000223047
0.000197895
0.00017278
0.000163285
0.000161557
0.000155417
0.000149135
0.0936972
0.000148877
0.0409572
0.000169489
0.0221685
0.000148628
0.000149911
0.000146745
0.000170229
0.000152858
0.000156921
0.000186889
0.000201011
0.00039683
0.00014813
0.00016798
0.000150666
0.000425887
0.000155764
0.000152236
0.00016565
0.015677
0.000150013
0.000161413
0.000152497
0.0565653
0.000152015
0.00789
0.000148727
0.000193713
0.0576687
0.000148822
0.000148895
0.00915316
0.000167271
0.000148978
0.0692501
0.0313086
0.000149078
0.000413083
0.000222713
0.022927
0.000156298
0.0685546
0.00014962
0.000149411
0.000148853
0.000192282
0.0448319
0.0266464
0.000155982
0.000149259
0.0576532
0.00016739
0.000146816
0.0367489
0.000189025
0.000150377
0.000153105
0.0526988
0.000192555
0.000248924
0.000195915
0.0036159
0.000172152
0.000147479
0.000159599
0.000169991
0.000158433
0.000148589
0.0691612
0.000204405
0.000202895
0.000152313
0.00017349
0.0301976
0.0260986
0.00022883
0.0674657
0.000152064
0.000456283
0.000148785
0.000266543
0.028231
0.00015586
0.000149841
0.00469817
0.0288438
0.000165225
0.000148349
0.000152796
0.000152208
0.000148396
0.000146258
0.000194398
0.0450737
0.00015189
0.000152927
0.000149849
0.0898109
0.0800444
0.000170532
0.000173043
0.000148808
0.000155663
0.0889546
0.000149836
0.000151523
0.000172816
0.00014892
0.078221
0.000228489
0.000150524
0.000149447
0.000163343
0.000195937
0.000424393
0.000223795
0.000167057
0.000163986
0.0156329
0.00016634
0.0973548
0.0177895
0.0897878
0.000154662
0.000162571
0.000149616
0.00024698
0.00022638
0.00125665
0.000158249
0.000196211
0.000151438
0.000160009
0.000167937
0.0151887
0.000239212
0.000153192
0.0848179
0.000168162
0.0479545
0.000312312
0.0805219
0.000149826
0.000191227
0.000173925
0.000149866
0.000149214
0.000160261
0.0737957
0.000209112
0.0181283
0.000176039
0.00022538
0.0922721
0.0289623
0.000314974
0.000148919
0.000172895
0.000162439
0.000157618
0.000150424
0.000188361
0.0214644
0.000168768
0.000148205
0.000194129
0.000195685
0.0270786
0.0926627
0.000149096
0.00015014
0.000195379
0.0760937
0.000151257
0.0705218
0.0187312
0.000274106
0.000148557
0.000206923
0.000191836
0.0176651
0.000148975
0.0628803
0.000149721
0.000197361
0.000148115
0.0416695
0.0681302
0.00015768
0.00125213
0.000164596
0.000148465
0.0920778
0.000237642
0.000175897
0.0802512
0.0155705
0.000147106
0.000163902
0.040438
0.0204383
0.000149574
0.000148091
0.0277548
0.000151691
0.000149759
0.0832292
0.000208546
0.0001622
0.000170078
0.000149566
0.000167089
0.0173588
0.000154023
0.000197867
0.0001757
0.000152091
0.000149902
0.00020895
0.0363659
0.000220141
0.000160463
0.000158177
0.000149792
0.0224176
0.0728846
0.0871407
0.000148449
0.027926
0.0187658
0.0962418
0.0663942
0.000228031
0.000149486
0.000147851
0.000187737
0.0344851
0.000239293
0.000160953
0.0933997
0.000194232
0.000146143
0.079309
0.000148625
0.0832232
0.000167715
0.000149722
0.000159877
0.000166978
0.000162886
0.0865311
0.000162958
0.000154018
0.0727305
0.0807719
0.0692843
0.000148934
0.0949288
0.000149188
0.000154049
0.00014877
0.000251235
0.000148614
0.000200328
0.00016917
0.000151363
0.000194829
0.000155496
0.000335568
0.000167917
0.000187123
0.000150872
0.000149806
0.0280261
0.0262785
0.000148808
0.000148026
0.0814152
0.000149913
0.0340562
0.000150664
0.0443223
0.00015804
0.000280445
0.000178124
0.000433094
0.000154204
0.0894674
0.000189009
0.000159952
0.000210408
0.000216794
0.000151429
0.0421049
0.000172773
0.0213343
0.000154881
0.0221298
0.000164938
0.0357476
0.000186153
0.000177358
0.000176891
0.0727454
0.000149512
0.000168589
0.0333989
0.000150526
0.000154954
0.0207516
0.000193372
0.000153162
0.0885292
0.000218098
0.000147521
0.0224249
0.0924507
0.000148596
0.000148333
0.000149225
0.000149455
0.0673769
0.0822971
0.000205514
0.0314926
0.000148968
0.000202905
0.00554026
0.000186013
0.0689661
0.0389373
0.0667212
0.000147373
0.0837368
0.000148278
0.0692482
0.000152428
0.000465997
0.000209468
0.000166262
0.000149407
0.00019394
0.00019407
0.000198244
0.000570468
0.0327859
0.0137427
0.000167541
0.000178835
0.00014809
0.0222169
0.0682416
0.000150347
0.0859133
0.00014896
0.0672979
0.000157965
0.000149568
0.000155389
0.0665203
0.000155262
0.041035
0.00804266
0.00318363
0.000196123
0.000151418
0.000198705
0.000193892
0.000148609
0.000195356
0.000150454
0.000149065
0.000197588
0.00014972
0.000149126
0.000148272
0.0486153
0.000149689
0.0263708
0.0753057
0.00431864
0.000307711
0.0462562
0.0182068
0.000185687
0.000148931
0.000257988
0.000168765
0.000165028
0.000148908
0.0794868
0.0727139
0.0784517
0.000156927
0.000219633
0.00015444
0.000170398
0.00019796
0.000154301
0.0844148
0.000152353
0.000148589
0.0378534
0.0466551
0.0492208
0.000194573
0.00298862
0.0462921
0.0370535
0.0229697
0.000146433
0.000191459
0.00015446
0.000150265
0.0902183
0.000188145
0.000151384
0.000187567
0.000183751
0.0209671
0.00014861
0.000253328
0.00698768
0.000537571
0.0318389
0.000149736
0.000150374
0.00015795
0.000166241
0.000147312
0.0769272
0.000197129
0.000162982
0.0212612
0.000165625
0.000253249
0.0403871
0.000231527
0.00168246
0.0914462
0.000254689
0.000185522
0.000295504
0.000190613
0.0265658
0.000208786
0.000196399
0.000209772
0.000150195
0.0900505
0.000168858
0.000150862
0.000165388
0.000156887
0.0235383
0.068794
0.000149771
0.000146473
0.0792916
0.0150524
0.000149721
0.0252198
0.000158807
0.000250052
0.000149886
0.0249514
0.0967624
0.000163406
0.000153362
0.0504134
0.000319
0.00715891
0.00014978
0.0197759
0.000338653
0.0798772
0.000150877
0.0244004
0.0600837
0.000186723
0.000148343
0.000151943
0.000223416
0.077788
0.000150453
0.000148247
0.000147815
0.000147799
0.0240928
0.0885893
0.000186311
0.000125461
0.000148903
0.000147463
0.000219159
0.0548271
0.000172277
0.00015164
0.000149059
0.000148782
0.0777557
0.0315302
0.0001492
0.000148872
0.0823416
0.000189843
0.000178163
0.000150249
0.0001554
0.000161407
0.000208561
0.000208063
0.000123123
0.000313568
0.0002176
0.0934686
0.000186826
0.000148928
0.0207337
0.000148763
0.000155515
0.00016414
0.0898165
0.000173774
0.00014753
0.000474986
0.000204267
0.00767254
0.00021812
0.000162199
0.000185045
0.000149349
0.0665826
0.000338477
0.0627238
0.000151946
0.000169459
0.000241181
0.0405085
0.00695029
0.000197751
0.000200452
0.000156969
0.000158667
0.000150262
0.000167611
0.000170997
0.000149782
0.000191547
0.000174877
0.0639601
0.00846432
0.000157151
0.000254577
0.0964892
0.000160899
0.000151085
0.000412972
0.0751852
0.0766096
0.000186436
0.000146389
0.0258646
0.000222684
0.0001483
0.000168808
0.000209338
0.000160972
0.000197654
0.0681262
0.000288514
0.000187039
0.0669142
0.000157631
0.0188393
0.000149627
0.000149164
0.0940744
0.0740485
0.000211014
0.00015765
0.000153049
0.000148877
0.000194527
0.000439625
0.000269732
0.000159146
0.000270163
0.000193501
0.000149918
0.00142479
0.000272824
0.0834113
0.000149055
0.000280483
0.000156699
0.00924364
0.000180953
0.000173652
0.000169825
0.000147496
0.000150231
0.000152447
0.00017887
0.000157168
0.00913918
0.000510517
0.000195151
0.000147547
0.000252547
0.000213333
0.0956578
0.000153721
0.000156951
0.000148249
0.000176068
0.000161891
0.0592181
0.000149581
0.0129528
0.000175076
0.0197806
0.000188359
0.0306179
0.000174904
0.000151752
0.0315281
0.00669302
0.000150511
0.00016401
0.0961443
0.000313965
0.000239914
0.000149545
0.000153582
0.000247987
0.000166667
0.000196993
0.000206396
0.000150372
0.000196333
0.0765084
0.000153866
0.000160902
0.000147916
0.0236472
0.000149795
0.000156534
0.0165233
0.000154411
0.0767849
0.000163952
0.00016175
0.000147893
0.000169601
0.000148759
0.000183888
0.000147507
0.000179084
0.000158739
0.0235648
0.00033619
0.0545414
0.000156406
0.000149438
0.000185495
0.000176064
0.0268792
0.0605959
0.000186536
0.000149072
0.0385109
0.000214969
0.0819348
0.000270059
0.000187392
0.0697416
0.000169443
0.00019279
0.000240448
0.000183223
0.000186112
0.000244152
0.00018476
0.000162614
0.000212779
0.000160191
0.000151751
0.000175622
0.000173762
0.000162596
0.000148823
0.000148277
0.00019442
0.000159996
0.000197585
0.000149042
0.000148929
0.000149841
0.000154957
0.000147424
0.000160577
0.00014803
0.0237985
0.000210548
0.000185223
0.000147351
0.000149662
0.000165234
0.000186038
0.000151475
0.0752174
0.00018162
0.0760147
0.0001755
0.000237048
0.000155875
0.000149814
0.000147706
0.000155503
0.0115156
0.00014971
0.0937676
0.000160968
0.00657137
0.000168003
0.000182746
0.0167903
0.000147991
0.000149936
0.000210921
0.000149027
0.000151633
0.0811755
0.000153466
0.000149244
0.000166049
0.000147981
0.000147097
0.000163121
0.000157339
0.0207012
0.000168132
0.000153886
0.000148178
0.044404
0.000179025
0.000151277
0.000151969
0.0789706
0.096375
0.0133847
0.000162251
0.000162608
0.000147157
0.000146873
0.000196954
0.00016897
0.083063
0.000155138
0.0385815
0.00015279
0.000154137
0.0110361
0.000148974
0.000169419
0.000150075
0.000148493
0.000172565
0.000163021
0.000155108
0.0751062
0.031904
0.000189578
0.000148966
0.000148791
0.000215941
0.093918
0.000149718
0.0926703
0.000148485
0.000172781
0.000152966
0.000151943
0.0833814
0.000152928
0.088348
0.000173556
0.000149838
0.000147005
0.000149306
0.000149148
0.000160472
0.000417023
0.000153237
0.000150936
0.0647481
0.0748381
0.000188243
0.000174954
0.000197142
0.000163474
0.000149887
0.00015753
0.0254256
0.000179996
0.000149078
0.00015311
0.0622497
0.000178334
0.0354742
0.0001498
0.00015168
0.0212553
0.000176917
0.000155594
0.010289
0.000278179
0.000149093
0.000231913
0.000147699
0.000152604
0.00014739
0.0310435
0.000147228
0.000154927
0.00014991
0.0872804
0.000167172
0.000248663
0.000165969
0.000152196
0.000159985
0.000149182
0.0323615
0.000148251
0.000153459
0.000149268
0.000189149
0.000149216
0.000299632
0.0275416
0.0819654
0.000156593
0.0915713
0.0199265
0.000149805
0.0209535
0.0515739
0.0226299
0.0457421
0.0637814
0.0112175
0.000246488
0.000152118
0.0665027
0.000176404
0.0659995
0.000150658
0.000150408
0.000151344
0.000149143
0.000165677
0.000159972
0.029659
0.000150347
0.000148879
0.00700575
0.000198001
0.000149268
0.000161482
0.000168445
0.000154075
0.000328296
0.000161534
0.000154194
0.000166887
0.0254116
0.0139552
0.000260543
0.000152729
0.000306301
0.000203827
0.0208237
0.0659454
0.000238378
0.000149931
0.000156102
0.000152744
0.000145703
0.000155315
0.000146294
0.000161605
0.000168841
0.0234333
0.000196647
0.000154927
0.00023206
0.0383673
0.000171623
0.000150778
0.0197092
0.000151099
0.000151367
0.000161843
0.0237169
0.000149176
0.00014908
0.0695079
0.08751
0.0961243
0.00023002
0.092932
0.000149009
0.000283947
0.000150939
0.00014845
0.000150884
0.074627
0.0169168
0.000151185
0.00014712
0.000150259
0.0961174
0.000154645
0.000170085
0.000148979
0.000152687
0.000288232
0.00015243
0.000184973
0.000212313
0.0502767
0.000151839
0.000177481
0.000157284
0.0284411
0.0369011
0.000149097
0.0274949
0.000199196
0.000267815
0.000149193
0.0645987
0.000149631
0.000165143
0.000171177
0.000228948
0.0772807
0.0863793
0.0418225
0.0734134
0.000147425
0.0705571
0.000151976
0.000160187
0.0685321
0.000150373
0.000149686
0.000154809
0.000153617
0.0228138
0.000147539
0.000148803
0.000196652
0.00017679
0.000189691
0.000208101
0.00323215
0.0111279
0.00021329
0.000177401
0.000192343
0.0288046
0.000188488
0.0665286
0.06836
0.000166389
0.000152672
0.0476437
0.0834284
0.00015056
0.000219589
0.000172904
0.000156819
0.000166542
0.0001539
0.000171419
0.000149945
0.000187094
0.000173128
0.000148273
0.000186486
0.000151421
0.000170491
0.000147491
0.000155966
0.000191842
0.000160408
0.000154256
0.000151181
0.000301505
0.000184737
0.0787031
0.000149182
0.000151906
0.000195687
0.000150032
0.00020088
0.000184864
0.000156786
0.00021108
0.000151276
0.0697574
0.000150483
0.000186511
0.0240063
0.0678608
0.000149082
0.000155426
0.0226233
0.000148445
0.000148312
0.0232909
0.0346411
0.000154179
0.033362
0.000148723
0.000154328
0.0758897
0.000155345
0.000148065
0.0860672
0.000151723
0.0973804
0.00014938
0.000147912
0.000151234
0.00450858
0.0399004
0.000150261
0.000151346
0.00014896
0.00015787
0.00014846
0.000236152
0.000186434
0.000149777
0.0812963
0.000167977
0.0784909
0.0490993
0.000432253
0.000151023
0.000150639
0.000150463
0.000224043
0.000158042
0.0394275
0.0189066
0.000154229
0.0671015
0.000335972
0.000188007
0.0211373
0.000173593
0.000192664
0.0785259
0.000170894
0.00853182
0.0478208
0.000207964
0.000157307
0.0296922
0.000165904
0.000150712
0.000158965
0.0564292
0.000166583
0.000149715
0.000170011
0.000203599
0.000169478
0.0309554
0.000156081
0.0770131
0.000191459
0.0796098
0.000232892
0.000305459
0.000167699
0.00015107
0.000153249
0.0788177
0.000148713
0.000154561
0.000148933
0.000155429
0.000150621
0.000162749
0.0187557
0.000289494
0.000165054
0.000165262
0.0800651
0.000205233
0.000150839
0.0964239
0.0765942
0.00014916
0.000148312
0.000170128
0.0135599
0.000149706
0.0001944
0.000240432
0.000171405
0.000149617
0.000160662
0.000152061
0.000219735
0.000166534
0.000147993
0.0492929
0.0691656
0.000166711
0.0937312
0.000209232
0.0307373
0.000154347
0.000163956
0.0841923
0.0949087
0.000238658
0.000281787
0.000164072
0.000149858
0.000153139
0.000152047
0.000149283
0.000151626
0.000170644
0.000149063
0.000119701
0.000148014
0.000166907
0.000151746
0.000183019
0.000256665
0.00426389
0.000149689
0.00031895
0.000153075
0.0862765
0.000148999
0.000155328
0.000149053
0.0737664
0.0275203
0.0115284
0.000149104
0.00021087
0.000150607
0.000165182
0.0344941
0.000152249
0.000150889
0.000175742
0.000168816
0.0680226
0.000149082
0.000161019
0.000161528
0.000148817
0.000160441
0.000152794
0.000147085
0.000153854
0.0197264
0.000158968
0.0882446
0.0777462
0.000185796
0.0426492
0.000158384
0.000147075
0.0001616
0.0150425
0.000161958
0.00016567
0.00018761
0.0219737
0.000149083
0.003678
0.00018797
0.000196008
0.000149112
0.000147004
0.0352587
0.000151132
0.000149915
0.000160378
0.000150468
0.000154844
0.000165212
0.000210077
0.000184438
0.0717428
0.000168576
0.000211097
0.0897993
0.0210078
0.000186244
0.000187409
0.0130357
0.000179393
0.0623129
0.000153156
0.028057
0.0029329
0.000151107
0.000149727
0.000148219
0.000157991
0.000174831
0.000151983
0.000153595
0.00023912
0.000157843
0.000162733
0.0337393
0.000159278
0.000161814
0.0660656
0.000155491
0.0252384
0.000164675
0.00016755
0.000149071
0.0183423
0.0170905
0.000150665
0.000158335
0.0698216
0.000158897
0.00893007
0.000148173
0.000151818
0.0648923
0.000157595
0.000164473
0.00549612
0.000148892
0.000185168
0.000165117
0.000147104
0.000147847
0.0677447
0.0185733
0.000152691
0.0001598
0.000150128
0.000161219
0.00016097
0.0212239
0.000152214
0.000331109
0.0955065
0.0810493
0.0949565
0.000157225
0.000144045
0.000184065
0.000158632
0.000148931
0.000202534
0.0361907
0.000153518
0.000165135
0.0778502
0.00045561
0.000184613
0.000155057
0.000151359
0.000149651
0.000148801
0.0141152
0.000192703
0.000161927
0.000158841
0.000160201
0.00014982
0.00014987
0.000149062
0.000209875
0.000189899
0.0825422
0.00016571
0.00675403
0.0433945
0.000161434
0.000188384
0.000147456
0.000161016
0.0153159
0.000151673
0.000155897
0.000190835
0.000238928
0.000165357
0.074915
0.0872033
0.00015107
0.0378933
0.000146814
0.000154196
0.000166418
0.00014984
0.000154031
0.0056758
0.0773411
0.000151705
0.0809978
0.000151734
0.00015102
0.000155821
0.000352185
0.000164351
0.000164734
0.05418
0.000155215
0.0808642
0.0530185
0.000149611
0.000165924
0.000148117
0.0275584
0.000195622
0.000149035
0.0735528
0.000189961
0.000170145
0.000149874
0.0159357
0.000159233
0.000193091
0.000160404
0.000170266
0.0181911
0.000150935
0.000262506
0.000150208
0.000187082
0.000165642
0.000149603
0.0184956
0.000154943
0.000239479
0.000186352
0.000171342
0.000165875
0.000165619
0.000152025
0.0780222
0.000161537
0.0220705
0.000160048
0.000205208
0.000151526
0.000174097
0.000149625
0.000216802
0.079724
0.000153686
0.000149458
0.000449794
0.000156891
0.0886963
0.000154747
0.0800869
0.0825912
0.000167996
0.000148715
0.000148548
0.000148945
0.000146412
0.000211037
0.000169219
0.000161932
0.00016056
0.000148578
0.0928633
0.000160198
0.000167139
0.0893534
0.000149467
0.00849611
0.000190052
0.000178488
0.00025858
0.0317896
0.0719882
0.0823849
0.0818891
0.000149112
0.000221577
0.019262
0.000191521
0.000149168
0.000150281
0.000241559
0.0720683
0.0260623
0.000253428
0.000157583
0.000166724
0.000180139
0.0499942
0.00241042
0.000186986
0.000219622
0.000156425
0.000184127
0.000239068
0.000149125
0.000205972
0.0777166
0.000149037
0.0969388
0.000149691
0.000152556
0.0282603
0.0402124
0.000147515
0.000158057
0.000154114
0.000151565
0.000170134
0.00669771
0.000160529
0.000148363
0.000148711
0.000189272
0.00016427
0.000163555
0.0662061
0.000149177
0.0415476
0.00967633
0.0553832
0.000180003
0.000181892
0.0956294
0.000175294
0.0667761
0.0972673
0.0805624
0.000152603
0.054822
0.0435232
0.000147097
0.000148774
0.000197841
0.0342401
0.0736464
0.000152428
0.00015057
0.0476208
0.0255704
0.0801546
0.00015776
0.000153886
0.000294819
0.000150968
0.0502618
0.0184864
0.0951673
0.0389361
0.000149712
0.0001491
0.000147528
0.000156407
0.0334492
0.000186437
0.000166895
0.000151321
0.000178632
0.0140581
0.00018944
0.0821236
0.0090336
0.0258159
0.000310947
0.000148943
0.000149152
0.0813174
0.000147215
0.000150545
0.000153835
0.000404137
0.000178619
0.021442
0.000225883
0.000148905
0.058013
0.000173592
0.000150585
0.00962344
0.000180092
0.000154873
0.000154902
0.00424731
0.0381158
0.000149273
0.0757546
0.0943981
0.0341875
0.0379486
0.000183919
0.000149634
0.000155155
0.00124319
0.000162549
0.0835235
0.000174397
0.0673174
0.0837977
0.00015231
0.000159663
0.000149924
0.000152174
0.0341703
0.0206207
0.000148849
0.0128724
0.000187356
0.000150568
0.000155699
0.000148615
0.000202588
0.000153985
0.000341328
0.000167458
0.000149647
0.000147529
0.000170463
0.0155695
0.000178566
0.000156726
0.00017509
0.000149534
0.000157258
0.000169537
0.0109139
0.0344336
0.0360863
0.00014728
0.000147438
0.000152275
0.000201354
0.000148446
0.000152515
0.0087274
0.000195948
0.0960633
0.000150913
0.0394711
0.0348942
0.000149884
0.0107851
0.000254725
0.000185356
0.000309861
0.000152083
0.0211729
0.000159701
0.000153193
0.000154092
0.000147112
0.0813485
0.000157607
0.000159711
0.00015906
0.0404669
0.0419428
0.000149646
0.000148272
0.000157313
0.000151769
0.000244066
0.000151078
0.000197338
0.000160195
0.0348475
0.000158304
0.0635826
0.000147496
0.0560546
0.000154294
0.000147108
0.0343775
0.000192239
0.000172566
0.0944909
0.00016435
0.000181812
0.000149017
0.0222812
0.000148818
0.000148434
0.000169997
0.000210914
0.0246381
0.0246385
0.000232181
0.0753628
0.000221822
0.0737159
0.000151294
0.000162391
0.000170438
0.040471
0.000154712
0.0366196
0.030889
0.00015574
0.000149405
0.000150262
0.000665201
0.000410253
0.00015935
0.000148967
0.000158124
0.000164382
0.000179247
0.016251
0.00020808
0.000148467
0.000201044
0.000193229
0.0143827
0.000196689
0.000155255
0.000158642
0.0565052
0.000147497
0.000199672
0.0764935
0.000152808
0.000160066
0.010185
0.000173346
0.000152391
0.0210531
0.000160099
0.0747636
0.000192072
0.000160805
0.000157968
0.0362173
0.000147763
0.000175363
0.000271927
0.036279
0.0001826
0.000184158
0.000167166
0.000166236
0.000149782
0.0370431
0.000168385
0.000153294
0.000170274
0.000148657
0.000149781
0.000404946
0.000148926
0.00014913
0.0001504
0.000184422
0.000150351
0.000166188
0.000209322
0.000252047
0.000213878
0.000149696
0.000191868
0.000198231
0.000303668
0.000191977
0.000156711
7.76108e-05
0.082941
0.000689834
0.000149887
0.0831634
0.0779521
0.000149882
0.000159405
0.000146813
0.000200395
0.000198266
0.000154387
0.00026225
0.0372286
0.000147361
0.000150264
0.0717336
0.0339221
0.000211582
0.000147454
0.0771743
0.0498701
0.000471664
0.000148766
0.0420491
0.000229823
0.000170592
0.0309304
0.00016486
0.000146911
0.000169362
0.000244597
0.000174174
0.0731233
0.0412185
0.000149491
0.0780063
0.000211923
0.0224346
0.000147576
0.000164634
0.000150381
0.000149686
0.0529088
0.0958059
0.0650108
0.0967378
0.000160588
0.000183745
0.00015484
0.0390869
0.0241311
0.000148953
0.000152981
0.000159591
0.000152876
0.000189218
0.0652341
0.0728603
0.000184753
0.000154698
0.000155544
0.0506128
0.000156048
0.000188673
0.000149392
0.00015376
0.00074016
0.0954006
0.0908572
0.000356732
0.000149133
0.0570064
0.000156183
0.000166322
0.0641225
0.0119249
0.00014893
0.000149962
0.000184952
0.0001561
0.000150224
0.0582814
0.0392779
0.000150563
0.000146058
0.000149333
0.000148236
0.000338897
0.000151255
0.0734142
0.000213266
0.000211284
0.000150564
0.000171477
0.0427041
0.000176429
0.000207162
0.0268093
0.000151243
0.0174518
0.000160286
0.000160642
0.000200638
0.0163745
0.0221013
0.000206696
0.000149127
0.000203548
0.000151259
0.000155251
0.000150442
0.0756372
0.000161461
0.0722613
0.0861676
0.000183616
0.000149007
0.000311874
0.000167818
0.000149791
0.000184907
0.000146227
0.000190907
0.000173643
0.00015034
0.0692023
0.000154976
0.000200221
0.000152657
0.000148497
0.0315659
0.047656
0.000154407
0.000159723
0.000187841
0.000178221
0.000201553
0.000169034
0.000158021
0.000163272
0.0808013
0.000155914
0.0783969
0.000169901
0.0898412
0.000187173
0.000157253
0.0610894
0.000146203
0.0750352
0.000154155
0.0340459
0.0811373
0.0818998
0.0851011
0.0613048
0.000172038
0.000154132
0.061835
0.000173416
0.0001491
0.0125003
0.0790303
0.000153229
0.000161925
0.00016683
0.00016694
0.000177034
0.0241249
0.000149882
0.000178557
0.000182747
0.000162133
0.000149103
0.000226388
0.000148163
0.0789572
0.000154356
0.000222278
0.000169661
0.000179375
0.000194531
0.095676
0.000194379
0.000149354
0.000199839
0.0660459
0.0375449
0.000156468
0.0826857
0.000169161
0.000290543
0.000148842
0.000156175
0.0490707
0.000200156
0.0166927
0.0153845
0.000160531
0.0527317
0.00015047
0.00014832
0.0132462
0.000166309
0.000156196
0.0665257
0.000162969
0.00016586
0.000160332
0.000185461
0.000152628
0.0842052
0.0808372
0.00589193
0.0725004
0.00016253
0.000178322
0.0179092
0.000155677
0.000151292
0.000184442
0.000147294
0.000190215
0.0266459
0.0227083
0.0247374
0.00019735
0.000156715
0.0454183
0.000146745
0.000210164
0.000149611
0.025256
0.000156502
0.000167287
0.0400613
0.000224097
0.000148282
0.000162179
0.00658329
0.000149437
0.000433906
0.000149979
0.0762756
0.0360348
0.000247154
0.000169394
0.000147991
0.0744636
0.00256539
0.000178644
0.000149939
0.000157482
0.00014892
0.000197002
0.000149011
0.000226682
0.000149617
0.000150615
0.0541197
0.000150813
0.000162969
0.000165831
0.000149844
0.0460057
0.000150378
0.000165288
0.046982
0.000197966
0.0787658
0.000149565
0.0373866
0.000200094
0.0633005
0.000155881
9.73231e-05
0.000156015
0.00018186
0.000181378
0.000246571
0.000420106
0.0388674
0.000164623
0.00111335
0.000156813
0.00024162
0.000165862
0.0784015
0.000155771
0.000155711
0.000149405
0.000194683
0.000168256
0.0952722
0.000190583
0.0808822
0.0811584
0.000170724
0.000150306
0.094477
0.000183962
0.000151301
0.000154572
0.000149992
0.0865107
0.00014927
0.018263
0.000150589
0.000169187
0.0233693
0.000174977
0.000148971
0.000149339
0.0166702
0.000150188
0.000155512
0.000163306
0.000164476
0.000164697
0.000151448
0.0312199
0.000169301
0.000165092
0.000923518
0.0274714
0.0443498
0.020222
0.00014748
0.000149524
0.000175827
0.000156711
0.000165356
0.0819117
0.0404911
0.000147329
0.000149006
0.0536481
0.0933994
0.000147675
0.000149492
0.000156669
0.0300408
0.071613
0.00016305
0.000167038
0.000149429
0.0165542
0.00029675
0.000176048
0.000159515
0.000166475
0.000150831
0.000173507
0.0617613
0.000152023
0.000153424
0.000162297
0.0742881
0.000156605
0.0134052
0.000148915
0.0465705
0.000165551
0.000157199
0.000147404
0.000148456
0.000405528
0.0799107
0.000166181
0.0327442
0.030442
0.000151936
0.0414477
0.0158162
0.000150474
0.0939419
0.0903102
0.000259163
0.000149708
0.0469795
0.0229706
0.000153394
0.000165797
0.032718
0.000170967
0.000150452
0.000150421
0.000154259
0.000161359
0.00019434
0.0739049
0.000168959
0.000190049
0.000147847
0.00015107
0.0839178
0.000150121
0.000173349
0.000156365
0.0001567
0.000183779
0.000148816
0.000154988
0.038723
0.000148342
0.0274073
0.000148933
0.0228339
0.0542299
0.000207373
0.000151603
0.00014995
0.0423595
0.000147012
0.000158356
0.000150796
0.000238273
0.0749688
0.000173219
0.0500136
0.000165258
0.0965892
0.000151128
0.000205371
0.00015213
0.000149117
0.0125972
0.0446603
0.0277916
0.000157169
0.000201965
0.000203657
0.0226495
0.0451639
0.0444519
0.000173081
0.000146586
0.0356431
0.000151933
0.000152081
0.0610707
0.000242121
0.00015889
0.000182184
0.000166432
0.000162826
0.000164613
0.0549655
0.000160599
0.000148385
0.0122853
0.000166724
0.000148927
0.0432339
0.000148303
0.000148976
2.54438e-05
0.000200022
0.0226037
0.00014898
0.000155688
0.000149137
0.000315647
0.000149958
0.000203285
0.0960333
0.0513225
0.0424974
0.0266869
0.00015878
0.0290613
0.000222817
0.000149479
0.000160912
0.000165163
0.000159503
0.000254624
0.0347645
0.0319312
0.0555917
0.000341849
0.000150789
0.000242582
0.000148283
0.0127681
0.000168404
0.000160417
0.000159349
0.000155451
0.000149723
0.000234763
0.0329707
0.000147234
0.000157929
0.000147428
0.0285146
0.000157774
0.0523004
0.076643
0.0433766
0.000148927
0.00014977
0.0306751
0.00019103
0.00014911
0.000203634
0.000149575
0.000203209
0.000181839
0.000212201
0.000192485
0.0791291
0.00014944
0.000152373
0.0746816
0.0468163
0.000166046
0.000170741
0.000149612
0.0205388
0.00014908
0.000148095
0.000156476
0.000149624
0.00544616
0.03625
0.0970866
0.000208382
0.0417692
0.0851404
0.000147025
0.000175137
0.000147973
0.000249811
0.000153484
0.000156216
0.000149298
0.000148364
0.000151349
0.000378292
0.000159582
0.000281966
0.000151105
0.000159603
0.000163903
0.000269293
0.000148767
0.000174161
0.000182883
0.000177831
0.0474993
0.000148471
0.0324015
0.000183951
0.000167846
0.000152584
0.000148978
0.0442229
0.00571137
0.00015367
0.000151392
0.0766348
0.0801062
0.000161906
0.0515019
0.000152859
0.0932068
0.000175954
0.000147558
0.0845363
0.00016148
0.0673107
0.000149287
0.000155071
0.000149011
0.0321816
0.0487596
0.000147422
0.000183019
0.0737744
0.000148396
0.000151299
0.00014898
0.000184443
0.0456398
0.000182751
0.000165465
0.000174361
0.000148753
0.000149967
0.000158457
0.000148347
0.0100673
0.000149871
0.000207017
0.00424569
0.00017062
0.00014628
0.082864
0.00020646
0.000148761
0.000186545
0.000173059
0.0967859
0.000154335
0.0524211
0.000184243
0.000150342
0.000195801
0.000196278
0.000161121
0.055428
0.000204635
0.00017913
0.0973474
0.000150081
0.000197776
0.000171261
0.000192414
0.000148435
0.000149827
0.000146887
0.000159676
0.000199418
0.000197597
0.0816369
0.0194658
0.0762979
0.000149799
0.00031811
0.0583352
0.051718
0.000149365
0.000150618
0.000192242
0.0699013
0.000155774
0.000180921
0.0132471
0.0259175
0.013685
0.000171421
0.000129316
0.0513286
0.0619299
0.000148429
0.00725608
0.0534917
0.000153854
0.000155729
0.000153955
0.0370729
0.000199017
0.0801789
0.000157766
0.0808235
0.000152581
0.093751
0.0376805
0.000151079
0.000178309
0.0329402
0.0841354
0.000182782
0.00015613
0.000154873
0.000150954
0.000193744
0.000313301
0.0619149
0.0492829
0.000149573
0.0108472
0.000212375
0.0872112
0.000148226
0.000149099
0.0877344
0.000183985
0.000149728
0.000180793
0.000168219
0.000162367
0.0794002
0.0721272
0.0411505
0.0448788
0.000157291
0.000149868
0.000167375
0.0307009
0.0742847
0.000152783
0.000189448
0.000170756
0.000189233
0.00015882
0.000149739
0.000248483
0.0951396
0.0845848
0.000280889
0.0334219
0.000148662
0.00018469
0.0433829
0.000150645
0.000166711
0.000219115
0.000147757
0.000432809
0.0659921
0.000183577
0.00014973
0.0259438
0.000239694
0.0395348
0.000146447
0.000161942
0.000151738
0.000162039
0.000151552
0.000177437
0.000165661
0.000164995
0.000183608
0.000177905
0.0333691
0.000156149
0.000177488
0.000162633
0.012265
0.000166023
0.0202941
0.000161666
0.000157954
0.00647829
0.000170221
0.000149665
0.000165227
0.0947686
0.0773706
0.0692941
0.00015018
0.000149698
0.000150355
0.0952034
0.000154409
0.000339028
0.000262492
0.000184261
0.000165783
0.00018531
0.0170412
0.000151487
0.0772023
0.000162988
0.000165165
0.000150722
0.000152707
0.000185121
0.0399144
0.000148517
0.0181742
0.000265421
0.000170802
0.0002456
0.000150149
0.000148492
0.000171468
0.000160115
0.0412
0.0219783
0.000173486
0.000340142
0.000150218
0.000152256
0.000152956
0.00014964
0.0508635
0.000159119
0.0258655
0.000170116
0.000159
0.000194664
0.0519883
0.0484421
0.0120895
0.000159926
0.000152194
0.000149072
0.000163316
0.000208886
0.000184057
0.0589054
0.000149185
0.000156964
0.000180511
0.000149709
0.0832435
0.000153772
0.000178449
0.000180417
0.000165363
0.000165975
0.000149086
0.000181599
0.000165464
0.000186918
0.00016905
0.000165747
0.000147795
0.000198273
0.000149589
0.0127792
0.0593241
0.000234529
0.000150097
0.000172831
0.000150138
0.000185598
0.000156691
0.000159122
0.000158173
0.0128266
0.0707984
0.000169178
0.000169241
0.000196001
0.000179501
0.0752314
0.0406267
0.000161946
0.0356008
0.000225798
0.000150327
0.00016574
0.0455078
0.000170658
0.000149625
0.000182634
0.000317873
0.0858065