/*--------------------------------*- C++ -*----------------------------------*\
| =========                 |                                                 |
| \\      /  F ield         | OpenFOAM: The Open Source CFD Toolbox           |
|  \\    /   O peration     | Version:  v2012                                 |
|   \\  /    A nd           | Website:  www.openfoam.com                      |
|    \\/     M anipulation  |                                                 |
\*---------------------------------------------------------------------------*/
FoamFile
{
    version     2.0;
    format      ascii;
    class       volScalarField::Internal;
    location    "450";
    object      V0;
}
// * * * * * * * * * * * * * * * * * * * * * * * * * * * * * * * * * * * * * //

dimensions      [0 3 0 0 0 0 0];


value           nonuniform List<scalar> 
13917
(
0.0117563
0.0422278
0.00275516
0.0350078
0.12017
0.00224934
0.00230949
0.00145929
0.00177418
0.00780242
0.00441821
0.0091908
0.0251833
0.00135858
0.0214653
0.0260307
0.0400525
0.00902223
0.0104746
0.156794
0.136633
0.00192462
0.123006
0.00200323
0.0714837
0.00214989
0.00740336
0.00502122
0.00207275
0.00591615
0.0109906
0.0175723
0.0111538
0.017118
0.0706682
0.00310971
0.12096
0.00144839
0.0271956
0.00124327
0.171033
0.172566
0.132027
0.00486322
0.0431829
0.0172156
0.0101446
0.00767766
0.00167748
0.167897
0.0155708
0.0390229
0.00147205
0.0159103
0.0376932
0.0194321
0.0056522
0.0658361
0.0267391
0.0418617
0.00237359
0.0476661
0.00125419
0.13549
0.00319447
0.00241556
0.113899
0.0677185
0.00369273
0.0123478
0.128598
0.00180067
0.00141757
0.0951387
0.00149634
0.00904502
0.00124662
0.036839
0.00235532
0.146787
0.152901
0.109404
0.00264723
0.00171408
0.00193237
0.0380673
0.141033
0.00190712
0.0209405
0.106373
0.00145397
0.00749576
0.0685923
0.030824
0.00153188
0.00297559
0.00508817
0.00777242
0.0048563
0.00527388
0.125018
0.0119407
0.00421856
0.0271326
0.0889053
0.00226339
0.00349023
0.00665006
0.0428139
0.00965182
0.00166177
0.00156584
0.00635958
0.00196091
0.026417
0.00132655
0.102431
0.00175089
0.00139953
0.0157245
0.164226
0.00424114
0.00125612
0.00677545
0.147985
0.0340008
0.0422708
0.167725
0.171797
0.00225122
0.00129829
0.0330436
0.0435504
0.140636
0.00327046
0.00206148
0.0110359
0.00360908
0.101499
0.0172024
0.00416269
0.0754289
0.0408148
0.00441477
0.0567707
0.00259809
0.00229874
0.0469321
0.0872717
0.0188853
0.00926702
0.00117917
0.00734944
0.00888716
0.0207265
0.00189605
0.0143807
0.00313671
0.00124928
0.00320685
0.0233083
0.00818084
0.162235
0.00557843
0.00803152
0.00463601
0.0263513
0.00879429
0.0617177
0.00952174
0.0104173
0.00132047
0.00615903
0.0346754
0.00272031
0.00725052
0.00161057
0.00163521
0.00277728
0.0650014
0.00645228
0.0120801
0.0764851
0.125967
0.0149699
0.00234478
0.00422951
0.00205082
0.0100222
0.00356293
0.00312913
0.00194316
0.00347562
0.142021
0.00371417
0.00784035
0.185321
0.0548156
0.00373268
0.00200578
0.0216246
0.127828
0.0113122
0.01012
0.00134437
0.00298807
0.0604762
0.058086
0.00808063
0.00270548
0.0441633
0.00227157
0.00138447
0.00547534
0.0907573
0.00274852
0.0094668
0.00154644
0.0695099
0.00270913
0.0772357
0.0055681
0.140574
0.00137522
0.00201695
0.0231033
0.00348325
0.0183554
0.102653
0.00270848
0.00647177
0.0107245
0.0025701
0.00105284
0.139238
0.0157934
0.0017289
0.00119577
0.138551
0.114774
0.00131947
0.0043611
0.162285
0.00394828
0.00710102
0.00731555
0.0125436
0.163642
0.011222
0.0012874
0.0565125
0.00641167
0.00390791
0.0460572
0.0585599
0.00813232
0.00133855
0.00672339
0.0118569
0.0197311
0.177204
0.00112532
0.00262208
0.00342504
0.082252
0.00154293
0.00127354
0.00287793
0.00192836
0.00779297
0.159815
0.182524
0.00881186
0.00140643
0.00580171
0.0267463
0.00297226
0.0117415
0.160748
0.00230239
0.137532
0.0024296
0.0250217
0.133237
0.0177895
0.00789256
0.00989452
0.00324259
0.0122961
0.0492784
0.00337855
0.00219419
0.0019311
0.079448
0.00297137
0.124236
0.0518953
0.109082
0.00200528
0.181816
0.00514864
0.0144812
0.0670839
0.00935202
0.0313411
0.0010389
0.00792628
0.0079994
0.065401
0.0604043
0.0015375
0.00135506
0.0873583
0.153019
0.0027022
0.0705139
0.00151178
0.0765112
0.00126589
0.0397632
0.00381561
0.0160508
0.00143002
0.0254471
0.00307188
0.00267755
0.0180928
0.00370777
0.00265099
0.0401191
0.00159029
0.00326085
0.00104407
0.0201322
0.00128787
0.0163972
0.00184719
0.00364908
0.00437424
0.00494771
0.00221416
0.12379
0.0105922
0.00186689
0.0404499
0.0276529
0.00140622
0.00332147
0.0428381
0.00351989
0.00199374
0.142704
0.00145271
0.00358666
0.132052
0.103751
0.139248
0.0783337
0.00330066
0.00244588
0.00237848
0.00183629
0.0884001
0.00546565
0.00127625
0.0114107
0.00195728
0.00166369
0.00193395
0.107459
0.00380262
0.089018
0.00249925
0.0407454
0.00134045
0.00648893
0.0314809
0.109442
0.00880769
0.0051803
0.00601542
0.0012686
0.0016407
0.00123059
0.009886
0.00633056
0.0982993
0.00124255
0.00195798
0.0581023
0.00383858
0.103972
0.00396941
0.0371771
0.135363
0.0227772
0.00168287
0.0274203
0.00168849
0.00147352
0.00247133
0.00251776
0.0390024
0.0026496
0.0024345
0.124304
0.00374623
0.0467031
0.0655726
0.00483443
0.177186
0.0975176
0.0811991
0.00360989
0.142004
0.00146072
0.00213505
0.00134683
0.00325489
0.00158132
0.00128481
0.0123277
0.0935505
0.00522488
0.0237092
0.0162756
0.124329
0.00259242
0.00241068
0.00259568
0.0207545
0.00570219
0.0232823
0.0285743
0.00722372
0.0287828
0.00301206
0.0400736
0.151378
0.00157086
0.00147066
0.00152428
0.00537572
0.0011949
0.00178617
0.00151511
0.00150163
0.142001
0.00788852
0.0285037
0.0533235
0.00325826
0.0075664
0.160693
0.00823458
0.0123389
0.00134796
0.0991782
0.00563649
0.00163905
0.00302825
0.00121388
0.133907
0.0497798
0.158739
0.0112389
0.12968
0.0022965
0.0026683
0.0143938
0.00170879
0.0204472
0.00472649
0.00158373
0.00147756
0.00456833
0.00333103
0.00491702
0.00925299
0.00462108
0.0114832
0.0044648
0.00232899
0.00963752
0.00532708
0.153094
0.00277716
0.0214041
0.0795555
0.0121805
0.0332499
0.00150177
0.00164347
0.0686882
0.152221
0.00240204
0.00112776
0.180369
0.00124359
0.0295431
0.00410758
0.0717108
0.00107868
0.00311821
0.0184625
0.03024
0.00184901
0.00401727
0.00128043
0.176919
0.00135851
0.00186618
0.00295859
0.0678346
0.00170565
0.00211611
0.0113504
0.0986864
0.0347673
0.00940048
0.00374581
0.136583
0.109574
0.136256
0.13505
0.00124213
0.00306401
0.0121872
0.00424566
0.164188
0.0971573
0.00573599
0.00217073
0.0120063
0.0507045
0.0873325
0.0701176
0.00259162
0.00184884
0.140665
0.0727732
0.00355325
0.0119633
0.0118636
0.056282
0.0243152
0.0184756
0.00594903
0.00275761
0.00351297
0.00444275
0.00525772
0.00300667
0.00680121
0.0771672
0.00148014
0.0794801
0.0247442
0.0270032
0.0026732
0.00523352
0.114641
0.00314599
0.00512191
0.00144333
0.00482044
0.00957794
0.0117437
0.104059
0.00191738
0.00321294
0.00159491
0.046728
0.014822
0.00367141
0.00150972
0.00137316
0.00718396
0.00432409
0.0252751
0.0212697
0.0492673
0.00598854
0.00416708
0.0424984
0.00967818
0.00335577
0.00171993
0.00108793
0.0257324
0.00508802
0.0035668
0.016068
0.0430952
0.00156768
0.00260353
0.00225945
0.00412917
0.138712
0.0012365
0.00996244
0.134463
0.0137917
0.00722991
0.0113943
0.00628982
0.00217375
0.00498776
0.0154712
0.00233206
0.0262884
0.00137956
0.140932
0.107332
0.00247468
0.00218517
0.0024689
0.024545
0.0389606
0.0780708
0.01039
0.00136145
0.00501052
0.0205117
0.00557602
0.00886983
0.0584411
0.0024021
0.00612873
0.00343242
0.0757931
0.00401661
0.0322859
0.00155071
0.00804769
0.00578985
0.0126268
0.134696
0.0772444
0.0412803
0.00488644
0.0149417
0.00376458
0.00126174
0.00856532
0.133217
0.00378928
0.00181261
0.00336307
0.0555413
0.0154255
0.10952
0.0168994
0.0201864
0.00188887
0.145627
0.00228017
0.0176396
0.00407368
0.00638683
0.00133549
0.00543898
0.0381296
0.00135538
0.00136974
0.0537741
0.0283599
0.00335646
0.00460711
0.00554989
0.167387
0.0302459
0.00396805
0.0247778
0.0073564
0.00927906
0.0703239
0.0103207
0.0024429
0.0530552
0.0420598
0.152831
0.00138299
0.153833
0.0216678
0.00135461
0.0247168
0.00243501
0.0204763
0.0085029
0.135736
0.00807007
0.0996953
0.00892889
0.160494
0.00561467
0.0289273
0.00173657
0.00137632
0.00166203
0.185968
0.135338
0.00711267
0.00937364
0.00120152
0.00156251
0.00870817
0.0751907
0.00370705
0.00240494
0.00300019
0.0041153
0.00901181
0.00207371
0.00988647
0.0129799
0.0039871
0.00373401
0.00943049
0.00170865
0.0104045
0.0305819
0.00646478
0.014307
0.0686121
0.0184352
0.00988106
0.0178657
0.101276
0.150497
0.00900136
0.0258022
0.00660921
0.0668556
0.0896516
0.141154
0.0258481
0.100059
0.0202081
0.140417
0.00110575
0.00991711
0.00278109
0.137871
0.138135
0.00676523
0.00780123
0.0300277
0.00240555
0.0062155
0.00261963
0.0138467
0.00489319
0.030946
0.158392
0.143285
0.0255559
0.0012404
0.14512
0.00268109
0.0148614
0.00106696
0.00786084
0.00544676
0.00433798
0.0952759
0.182565
0.00878134
0.071051
0.039717
0.00267609
0.0312654
0.130066
0.0151247
0.127143
0.130597
0.0173961
0.0135429
0.00105321
0.0133083
0.044243
0.175779
0.0015793
0.00400178
0.0474591
0.037618
0.00252164
0.00327956
0.00130304
0.0113021
0.0296419
0.128479
0.123552
0.00945412
0.0126257
0.00321301
0.0147255
0.00156818
0.0335542
0.0251942
0.000928731
0.102728
0.0183489
0.0565734
0.15858
0.00989527
0.0075257
0.0318047
0.00206114
0.00121945
0.00738963
0.0627822
0.0806385
0.00558166
0.00274046
0.158412
0.00280668
0.083809
0.0105323
0.0536014
0.0693524
0.00343899
0.0503262
0.00294568
0.0105574
0.151822
0.108933
0.0508902
0.0710377
0.0446489
0.00154621
0.0558667
0.070191
0.00165299
0.00200432
0.0121137
0.0114647
0.00657511
0.0209403
0.0786991
0.0107781
0.0013636
0.00449773
0.0978187
0.0402202
0.00181908
0.00987586
0.00157251
0.136219
0.0284744
0.00134184
0.0132897
0.0341732
0.0012434
0.00162807
0.0786656
0.00432266
0.117132
0.0541187
0.105498
0.00137787
0.0985021
0.0476159
0.0792117
0.00253091
0.0217039
0.00420436
0.00584415
0.0622114
0.010356
0.14319
0.00151117
0.0974932
0.0553865
0.130945
0.00386426
0.110338
0.00395025
0.00127217
0.00256201
0.0184001
0.00302927
0.0013516
0.0597144
0.00123469
0.00165859
0.0012799
0.00156409
0.00157927
0.00151322
0.00403592
0.0345201
0.0019088
0.014137
0.00178492
0.0799204
0.0614983
0.0475551
0.140916
0.0183172
0.0129686
0.00104603
0.0631499
0.0731668
0.00109581
0.0031314
0.0479721
0.00712518
0.0150718
0.0411327
0.00109529
0.00696339
0.0235284
0.021592
0.00121539
0.00100185
0.00175231
0.0568236
0.00397603
0.00488501
0.00135363
0.00172362
0.0070132
0.0613231
0.030437
0.0311468
0.15979
0.0236677
0.131588
0.0161289
0.00585275
0.00165554
0.00552286
0.0446214
0.00516973
0.0015352
0.0106853
0.0471228
0.00122201
0.0594098
0.0410783
0.00860492
0.00175177
0.112623
0.0733221
0.00209192
0.00317464
0.0030504
0.00499185
0.00246453
0.0658572
0.00351663
0.0429318
0.101676
0.0436704
0.00257152
0.00114131
0.0623139
0.106599
0.0546382
0.00300629
0.0257847
0.0172037
0.0753551
0.0447614
0.00420715
0.0574358
0.00762717
0.00350449
0.0017351
0.0496603
0.00521403
0.0218948
0.00139465
0.00120682
0.0857266
0.00123028
0.00657165
0.00164532
0.121793
0.00153745
0.119779
0.01572
0.0106636
0.00444082
0.00234282
0.00287599
0.00450409
0.0022631
0.138863
0.00371963
0.0723224
0.0116879
0.00186257
0.0477124
0.154821
0.0330275
0.0388088
0.00130733
0.113654
0.122388
0.00890584
0.00748534
0.0095623
0.00228767
0.00547607
0.0012038
0.00920814
0.012212
0.0143668
0.0013559
0.0123502
0.00265187
0.00150816
0.0213124
0.0645674
0.00160219
0.00337064
0.041344
0.00593722
0.00936908
0.0356637
0.0187942
0.0357517
0.0109965
0.173505
0.00914553
0.00338491
0.100308
0.00836228
0.0608834
0.00628153
0.163576
0.0148465
0.00766581
0.0240028
0.0408734
0.0646687
0.00167566
0.00603596
0.00258523
0.0723572
0.037803
0.00826013
0.0574561
0.00674734
0.00555091
0.0345925
0.00648381
0.0693854
0.0023811
0.0436368
0.01639
0.00104212
0.00359584
0.079588
0.0266012
0.00127625
0.0981021
0.101249
0.00142863
0.00149079
0.0218901
0.00438739
0.144364
0.0401785
0.00253723
0.0311912
0.0897389
0.00329977
0.055655
0.00298922
0.115138
0.0972504
0.043356
0.0052545
0.00143043
0.0431084
0.040256
0.0724122
0.0191751
0.133108
0.00166221
0.00832126
0.158897
0.00232014
0.0083211
0.00284077
0.00158269
0.00151528
0.067439
0.0480021
0.0527327
0.0019676
0.0193561
0.00149717
0.00141356
0.0272467
0.00180884
0.00155493
0.00924158
0.00443737
0.00561859
0.00241033
0.00223605
0.00469933
0.00277292
0.00156166
0.00923863
0.021939
0.00133756
0.00545366
0.0708544
0.0236531
0.00246451
0.0099971
0.0665508
0.00708146
0.00596967
0.01136
0.00122989
0.0263214
0.00224267
0.0128046
0.00381176
0.00446328
0.00396723
0.0156229
0.065399
0.0394502
0.00238463
0.0811155
0.0225573
0.151419
0.0243869
0.0584944
0.0103248
0.00505101
0.00143269
0.00804613
0.00642837
0.00237854
0.00283895
0.0582089
0.00302211
0.00221117
0.0563224
0.0995842
0.0124084
0.00132588
0.141182
0.00741555
0.00251901
0.00819191
0.0571294
0.0279602
0.0571816
0.00525688
0.00925713
0.132458
0.00171095
0.00206338
0.00942766
0.00277027
0.00778564
0.00210706
0.026013
0.0192422
0.00229796
0.00277162
0.00687817
0.00188509
0.0174902
0.147886
0.0614472
0.0485955
0.0583942
0.0271803
0.00871154
0.0749449
0.00459053
0.131788
0.0142251
0.0669978
0.00638305
0.00528719
0.00291875
0.0611824
0.00397305
0.0592137
0.00226507
0.0918969
0.0176303
0.0934874
0.00361595
0.00124446
0.00403137
0.0717697
0.00527571
0.0456178
0.0139994
0.00149423
0.0526402
0.0423058
0.00796348
0.0153992
0.00192664
0.0728051
0.0143913
0.0385639
0.104833
0.0122113
0.0322867
0.100073
0.0243042
0.00100335
0.0218615
0.00306171
0.00227363
0.00908605
0.00142699
0.0218056
0.10825
0.0141978
0.00117139
0.0341151
0.0100634
0.0107905
0.00158682
0.0740683
0.00113365
0.00705584
0.00737591
0.0663818
0.113481
0.00507292
0.0389258
0.144603
0.0099985
0.0808446
0.015859
0.0154353
0.00541852
0.00333826
0.00208755
0.0222458
0.00556373
0.00248151
0.0011043
0.0139933
0.00280905
0.00132832
0.0116436
0.00200202
0.0202131
0.00177125
0.00118838
0.0731736
0.164202
0.105981
0.0385339
0.00967336
0.0656367
0.0189429
0.00662184
0.0253301
0.0108427
0.00106201
0.00971079
0.0224771
0.00157095
0.0325092
0.00122737
0.0254576
0.00420937
0.0761058
0.00106624
0.00130511
0.04559
0.036845
0.00180866
0.0106257
0.00126637
0.131973
0.0476541
0.00170025
0.0308365
0.00627582
0.0015579
0.0762698
0.00833473
0.0121591
0.110708
0.130988
0.00183673
0.0013206
0.0395375
0.0226532
0.054127
0.0137189
0.0087368
0.00145268
0.0268851
0.00170768
0.00282398
0.00340983
0.00270021
0.0313353
0.00576239
0.00347096
0.0141968
0.090472
0.00888006
0.00146454
0.0249703
0.00729699
0.00185191
0.00131976
0.00274082
0.0195641
0.0475912
0.130986
0.0794282
0.00130465
0.008947
0.0248732
0.0283927
0.0236634
0.135951
0.0584671
0.0758508
0.00622288
0.015651
0.00236846
0.0056976
0.00119324
0.00149623
0.0132961
0.0092331
0.113129
0.0168518
0.00105765
0.0361304
0.0242216
0.00910148
0.0045291
0.00603881
0.00222583
0.00201959
0.0578651
0.00106224
0.120633
0.0380093
0.00788589
0.145114
0.0470589
0.00437908
0.00238106
0.0537879
0.00233457
0.0367515
0.0670324
0.0203014
0.00169739
0.0157229
0.0273074
0.00200005
0.0312753
0.0033917
0.0016495
0.169033
0.00501413
0.128695
0.00120312
0.00641214
0.0669784
0.00195945
0.00867553
0.00466794
0.12919
0.0010499
0.0137112
0.00280961
0.0408906
0.00423882
0.00129606
0.0687473
0.001766
0.045769
0.00755069
0.00635162
0.159247
0.00103251
0.0237657
0.00432528
0.00807891
0.00473062
0.00945081
0.00916414
0.0280444
0.00188117
0.0106125
0.0011765
0.0133012
0.00991828
0.0485984
0.0111774
0.0552327
0.00927267
0.00223945
0.0352984
0.0696631
0.00134659
0.0284857
0.00227686
0.0322413
0.00229459
0.00259894
0.0126164
0.0719716
0.0996253
0.0855181
0.119575
0.00576344
0.0064598
0.00728889
0.0186948
0.135057
0.00303192
0.0248267
0.0135439
0.00275775
0.0559819
0.00180293
0.0095779
0.0176944
0.00173569
0.00132936
0.00313129
0.00231312
0.00269608
0.0708419
0.00250553
0.00148604
0.00259324
0.147882
0.0440455
0.00475061
0.00210937
0.00128689
0.00295929
0.0501134
0.00713047
0.0109295
0.00186164
0.0012698
0.0121546
0.00339826
0.0214574
0.00634448
0.0064379
0.143921
0.00544356
0.00244608
0.106602
0.00282897
0.142551
0.0460323
0.00103472
0.00153227
0.125918
0.0393169
0.0226949
0.0456595
0.00958484
0.00433152
0.0260676
0.0993716
0.101833
0.00885829
0.0161203
0.0202574
0.00326622
0.0700293
0.00176385
0.00122587
0.0014763
0.00345353
0.00953085
0.00305039
0.0132317
0.00184995
0.0026916
0.00269619
0.0399021
0.00187997
0.00113239
0.113943
0.0960046
0.00529954
0.00149747
0.00229761
0.0630812
0.0490981
0.00149492
0.00182549
0.00269589
0.0240055
0.0209346
0.00184799
0.0486792
0.00148806
0.00171014
0.00314591
0.00246945
0.0510284
0.0766952
0.129399
0.0154461
0.0011558
0.0110935
0.0224776
0.0297668
0.00445253
0.00107755
0.0101239
0.00278085
0.00109611
0.00103297
0.00172784
0.0798603
0.151757
0.00226873
0.113485
0.069095
0.0279325
0.0011234
0.0114772
0.0019643
0.00442335
0.0871164
0.00147047
0.0116793
0.0588307
0.0013445
0.00305293
0.0182254
0.0412659
0.00119865
0.00156564
0.118802
0.00227431
0.00230728
0.00182777
0.00207582
0.00530816
0.0629548
0.0313838
0.00344487
0.0199352
0.00218431
0.00827192
0.00279652
0.00325897
0.0266269
0.0163259
0.0540156
0.0340561
0.00169128
0.00113937
0.0809431
0.00126691
0.010065
0.0467448
0.0202068
0.0920338
0.00413934
0.025829
0.00168153
0.00643068
0.0647776
0.132109
0.00493496
0.000988997
0.0107494
0.02242
0.00945065
0.0638058
0.0244479
0.0174567
0.00093718
0.00136711
0.00155937
0.108386
0.129291
0.024329
0.00661516
0.0975126
0.0337258
0.00389748
0.00714769
0.00272474
0.0714702
0.00162533
0.00133379
0.163723
0.00100997
0.00528932
0.0105369
0.00153807
0.0354427
0.00144808
0.0145823
0.0238726
0.0225342
0.121281
0.00356989
0.16425
0.0364703
0.0114199
0.00150138
0.00149931
0.140195
0.158929
0.0236242
0.0483449
0.00410818
0.0379491
0.00612446
0.0289153
0.00145084
0.0353395
0.00158292
0.10205
0.0016301
0.0345836
0.112542
0.00181073
0.00264761
0.00393547
0.00300921
0.00566279
0.0100823
0.0724051
0.00142904
0.0656223
0.0984237
0.00448507
0.00915989
0.00179476
0.0014358
0.00487127
0.00275932
0.00474866
0.00280516
0.140683
0.0219542
0.0165446
0.00154971
0.0202744
0.00137983
0.00102235
0.0366207
0.0463151
0.0512734
0.00259616
0.00105862
0.0234789
0.12331
0.0205504
0.0180884
0.0108259
0.00344948
0.00299127
0.125325
0.00199622
0.00620041
0.000968254
0.00644799
0.023987
0.0240491
0.00140508
0.139811
0.00599
0.00219878
0.0281695
0.0192515
0.00381703
0.00417332
0.0328806
0.00126023
0.0241281
0.00331249
0.00973798
0.0135914
0.0304107
0.00166705
0.100062
0.00495955
0.00178868
0.00154846
0.00900226
0.00706153
0.0211961
0.00951632
0.138349
0.00172354
0.019057
0.0491659
0.0144772
0.138007
0.164373
0.000879925
0.0925502
0.145991
0.0528915
0.0039533
0.0461803
0.0127227
0.00616327
0.00349989
0.00531622
0.137611
0.00306372
0.00201845
0.00411299
0.00737782
0.0121118
0.00418676
0.00266491
0.0026395
0.166712
0.00246784
0.00217463
0.168694
0.0246047
0.118492
0.0022064
0.00509345
0.0343815
0.0016876
0.00149287
0.134377
0.0425051
0.002091
0.00111512
0.0084377
0.106851
0.00263968
0.00159553
0.00130971
0.0995416
0.00151746
0.00684486
0.00401233
0.00128807
0.0207855
0.117932
0.0133521
0.00421705
0.012846
0.00205543
0.00150397
0.0678352
0.00232107
0.00151763
0.00133924
0.0857308
0.0062011
0.0288354
0.062524
0.00121854
0.00307781
0.00335378
0.00293502
0.0143816
0.0099465
0.155461
0.00162475
0.0011865
0.0717434
0.0370713
0.011107
0.0607235
0.00915069
0.00168009
0.00190438
0.00901909
0.0337466
0.0367332
0.00162682
0.0194738
0.00892828
0.0745973
0.0286025
0.0032762
0.00280753
0.00312408
0.00158297
0.141758
0.0036563
0.150952
0.00773891
0.00176784
0.00136508
0.0951896
0.145061
0.0146325
0.0164592
0.0443625
0.00138667
0.00152519
0.0753631
0.141062
0.117999
0.0945423
0.00146766
0.0656691
0.00151077
0.00514248
0.00863545
0.0608001
0.00896426
0.00162791
0.0141313
0.00260154
0.00162734
0.0318345
0.00102334
0.00988957
0.0063578
0.00312861
0.00123157
0.00136107
0.00941487
0.0711312
0.0037703
0.0650955
0.0155696
0.0436965
0.00233337
0.0102711
0.00277106
0.00347995
0.00987809
0.114263
0.00339614
0.0178672
0.161654
0.00268257
0.108505
0.014835
0.010419
0.0436972
0.0021319
0.0274678
0.00227091
0.0268201
0.0929118
0.00179448
0.00151648
0.0210823
0.010901
0.0124513
0.00650299
0.00890452
0.0148947
0.0146717
0.0220592
0.0036963
0.0181367
0.00219311
0.00551284
0.00262822
0.00576046
0.0296391
0.00160114
0.154726
0.00235371
0.0206499
0.00195282
0.00267623
0.00268924
0.00269667
0.00398363
0.00460627
0.032901
0.00166625
0.0043868
0.0728321
0.00106192
0.00230306
0.0251444
0.0276988
0.0118772
0.0115267
0.0148555
0.00137495
0.184472
0.0154996
0.0111306
0.0109498
0.139895
0.00586299
0.0931746
0.00213096
0.0191328
0.00445581
0.0128629
0.0109025
0.00496396
0.00285012
0.00685521
0.0686714
0.00364763
0.00178521
0.00173237
0.0380554
0.00231241
0.0166626
0.00142361
0.0638052
0.0219335
0.00145803
0.0100831
0.00123087
0.00123176
0.0101698
0.001236
0.048015
0.0930202
0.00103344
0.00568611
0.0237236
0.00171992
0.0178861
0.00715654
0.0146681
0.00697946
0.0410452
0.00253596
0.00180853
0.00123135
0.00322798
0.0166971
0.00830416
0.00124556
0.0235258
0.0421558
0.00517985
0.11244
0.00211362
0.00179063
0.00121647
0.00132197
0.00883874
0.0345514
0.00158428
0.123491
0.0050796
0.147083
0.00165027
0.0269374
0.00641472
0.00125787
0.00467478
0.123244
0.0123387
0.00182189
0.0473327
0.00538121
0.0672669
0.00213631
0.00132671
0.00545209
0.0043409
0.122534
0.00406673
0.00500832
0.0102015
0.067442
0.0381172
0.164427
0.00961427
0.0997472
0.00564674
0.0433854
0.0627816
0.00183003
0.0578842
0.0179784
0.0220188
0.135022
0.00146929
0.0613997
0.0115521
0.00159824
0.0101848
0.00262665
0.0489329
0.00173752
0.0102348
0.00176745
0.0255828
0.00395832
0.043614
0.00940342
0.00514262
0.00542904
0.0038629
0.00153511
0.00426277
0.00282353
0.0157115
0.00526064
0.00894927
0.0026525
0.018431
0.0416629
0.0592968
0.00975252
0.00671402
0.00287781
0.00895008
0.00221179
0.00236941
0.00382773
0.0531378
0.00277244
0.00260634
0.0394759
0.0250617
0.0503912
0.00218621
0.0582611
0.000883864
0.0612806
0.0179597
0.00143059
0.00509995
0.0865945
0.0590772
0.00122421
0.0729111
0.0230919
0.0166787
0.0119865
0.0198045
0.0394475
0.00316716
0.0043743
0.00912786
0.00364871
0.00146173
0.00137475
0.00109864
0.115265
0.0629204
0.00414527
0.0352342
0.00553883
0.00224194
0.00127757
0.111366
0.0711783
0.00153269
0.00305482
0.10711
0.0703965
0.0148274
0.0018465
0.00200137
0.0181343
0.0123536
0.130189
0.00354228
0.0055018
0.00328785
0.0114622
0.00999312
0.0268943
0.010798
0.00331064
0.0232953
0.0395713
0.0182483
0.00209462
0.0176144
0.00122204
0.09018
0.0015167
0.0109704
0.0124365
0.0857422
0.0922703
0.00275072
0.00234507
0.00597728
0.00118663
0.00189556
0.0345597
0.00148931
0.00478878
0.143045
0.00261386
0.00288463
0.00340907
0.139282
0.0014631
0.00143948
0.0639255
0.00954387
0.0012828
0.00989943
0.0482873
0.0685171
0.0345295
0.0241225
0.00656929
0.00370849
0.00447554
0.00667306
0.11966
0.0509998
0.00228886
0.0629003
0.00825121
0.0137982
0.0480323
0.00868837
0.0795994
0.0236402
0.00356818
0.101842
0.00135136
0.0977468
0.00180381
0.00167413
0.0058349
0.0419972
0.162697
0.0015695
0.119328
0.0225165
0.0354475
0.00363858
0.00297308
0.0113104
0.00156935
0.00966767
0.00281557
0.0299981
0.00698525
0.0586566
0.0962355
0.00122286
0.00135054
0.00299562
0.0232865
0.00761911
0.00665161
0.00106249
0.0015099
0.00351779
0.00752756
0.118677
0.00157578
0.0510102
0.0463009
0.0041352
0.00532066
0.0138297
0.00302777
0.00688876
0.0121596
0.0172303
0.00141656
0.0231724
0.0898995
0.000992098
0.00547514
0.089534
0.00110469
0.126426
0.106778
0.00398615
0.00494539
0.00189416
0.0983664
0.019363
0.0608897
0.00183508
0.0657794
0.00226041
0.0025862
0.00152462
0.00143584
0.00156624
0.0116275
0.00149692
0.00197723
0.133123
0.0125645
0.00935395
0.0114569
0.00177402
0.00127938
0.00127233
0.00156492
0.00170069
0.0433222
0.0058418
0.142992
0.00142537
0.0163575
0.0254694
0.023066
0.027376
0.0653407
0.00478089
0.00133665
0.106734
0.0246531
0.142347
0.00149262
0.0261888
0.0016886
0.00216866
0.00290321
0.0861388
0.0651911
0.00116142
0.0025906
0.102725
0.00313227
0.136992
0.00460553
0.00296097
0.00582836
0.00979032
0.00261864
0.0570881
0.0604229
0.00363343
0.00148068
0.0146192
0.00674377
0.0622743
0.00110151
0.0806825
0.139967
0.0305067
0.0617024
0.00174365
0.00142533
0.00288009
0.00881131
0.00149822
0.00336528
0.118603
0.0139048
0.0848298
0.00173749
0.0364175
0.0193949
0.060946
0.0957448
0.0642888
0.00199934
0.0395055
0.0015569
0.077821
0.0115952
0.15408
0.00183242
0.0992117
0.0137447
0.0106291
0.00574485
0.00178379
0.0915113
0.00117276
0.00715143
0.00826079
0.142427
0.0788602
0.00142334
0.00100994
0.0405731
0.0642119
0.00343202
0.00363206
0.00889242
0.00155826
0.0273978
0.00214898
0.0168273
0.0918311
0.0017843
0.036174
0.00188544
0.0590186
0.0274794
0.109131
0.000988884
0.00145507
0.110155
0.00282403
0.00369532
0.137676
0.0564165
0.142124
0.00284532
0.00154149
0.00740106
0.0283654
0.0100797
0.0987688
0.0503649
0.0241895
0.105759
0.00394897
0.0459644
0.00789823
0.00285017
0.0103705
0.130016
0.00238282
0.00569615
0.0953763
0.00532097
0.0145431
0.00288725
0.0200685
0.0023036
0.00829807
0.0519081
0.00603778
0.00608706
0.0252261
0.00170737
0.00821173
0.0185049
0.00293107
0.0559393
0.00442336
0.00392477
0.00469159
0.0950673
0.0596477
0.120057
0.0105545
0.00897237
0.00884654
0.00237153
0.00129939
0.00225239
0.133179
0.00159209
0.00163401
0.00158534
0.0596419
0.0458451
0.0088599
0.00189011
0.0228333
0.010755
0.00149015
0.00130062
0.00165623
0.00374348
0.0040281
0.00154356
0.00289215
0.0881248
0.00178339
0.00362395
0.0359746
0.0378622
0.0273017
0.00142959
0.00591687
0.00182078
0.0224711
0.00271515
0.0416075
0.00254635
0.00133992
0.0354284
0.00872519
0.0014672
0.00234571
0.00826095
0.0281809
0.0234681
0.0331739
0.00353681
0.00549945
0.00248342
0.00155289
0.07746
0.00104648
0.00426388
0.00271741
0.142806
0.136573
0.0035766
0.00296313
0.0606277
0.00895314
0.0048705
0.00614671
0.00209995
0.00192938
0.00158883
0.00149298
0.0190955
0.076641
0.00519079
0.00126953
0.00224798
0.0491586
0.00188177
0.00432767
0.00206183
0.0321937
0.146149
0.00178101
0.00266705
0.00247451
0.00183841
0.0013313
0.0847687
0.00281359
0.0015837
0.045757
0.0053957
0.00647155
0.0989971
0.00389198
0.00185745
0.00282424
0.142153
0.00112125
0.00490388
0.00160556
0.107675
0.0255238
0.0316166
0.0364929
0.0353429
0.00719446
0.00930385
0.00794136
0.00285553
0.0103946
0.00135723
0.0185484
0.0187278
0.0142181
0.00105756
0.00581164
0.00145348
0.0141571
0.0138955
0.00102707
0.00359853
0.0478938
0.00829463
0.00284741
0.00228014
0.00368036
0.0536321
0.079213
0.0487226
0.00311144
0.0278078
0.00149875
0.00183194
0.00264892
0.0130509
0.00381723
0.00133096
0.0465308
0.00248754
0.0109517
0.00514069
0.0471159
0.0509824
0.00776242
0.00148029
0.138787
0.00152699
0.00312925
0.0044518
0.00422695
0.0732886
0.112251
0.014709
0.0379044
0.00166742
0.00168429
0.00504453
0.00281365
0.0552044
0.0427516
0.040039
0.132095
0.00182183
0.029845
0.00136057
0.00443963
0.0287174
0.00245978
0.00212673
0.00146975
0.00108236
0.0237999
0.0667925
0.103845
0.0243974
0.00211941
0.00350587
0.00162338
0.112836
0.0362733
0.00332481
0.149091
0.00340846
0.0229267
0.00332639
0.00296114
0.00837562
0.00927686
0.0746559
0.00909248
0.00966051
0.00340565
0.00443091
0.00906977
0.096253
0.00370667
0.0677265
0.0024659
0.001611
0.00187444
0.0499848
0.00569136
0.0554582
0.0106531
0.0268533
0.0358222
0.0126306
0.00140243
0.00189169
0.00464525
0.00760156
0.0033723
0.00557881
0.00210266
0.00151959
0.0150105
0.0014652
0.00341488
0.0630223
0.00583154
0.00152896
0.0047803
0.142301
0.00795187
0.00160641
0.00324535
0.00103435
0.0410647
0.00301054
0.0745651
0.0628701
0.0109644
0.00187269
0.159192
0.0014782
0.00163059
0.00336004
0.00259446
0.00266682
0.00157512
0.00369394
0.10743
0.019681
0.0811325
0.00725118
0.0037309
0.00221559
0.0188419
0.0103936
0.0745936
0.00158762
0.0111177
0.00906351
0.00174825
0.0033757
0.00167372
0.00157781
0.0584808
0.00104646
0.104136
0.0147154
0.00532428
0.001664
0.00437975
0.0142728
0.0319182
0.00204008
0.0142409
0.00201813
0.00101655
0.00998466
0.00153926
0.0105993
0.144182
0.00187793
0.00721599
0.0274514
0.000990218
0.00188718
0.0146444
0.0149491
0.00502294
0.0013076
0.0626682
0.0474669
0.110385
0.0884863
0.0285124
0.001513
0.010605
0.00165809
0.118956
0.0467949
0.00198666
0.0361453
0.166823
0.110165
0.0501334
0.00268734
0.0671729
0.00158063
0.0361068
0.0271523
0.00749035
0.0387269
0.0026524
0.0691465
0.149299
0.0641459
0.0124895
0.00509389
0.0219268
0.00144818
0.0464466
0.00768948
0.0157792
0.00151659
0.0333573
0.104975
0.0603451
0.0745849
0.00337284
0.067455
0.0564548
0.0253017
0.00278782
0.140441
0.00805426
0.00865951
0.0531127
0.00166747
0.00160822
0.00304498
0.00260159
0.0222361
0.00541471
0.0439827
0.00351335
0.00359714
0.0369121
0.00293077
0.0051361
0.00242452
0.0131279
0.0624316
0.00162994
0.00857019
0.00291944
0.00187538
0.078971
0.0619144
0.00122052
0.00153739
0.00869572
0.00594784
0.0272853
0.00182359
0.00248624
0.11137
0.0906913
0.039808
0.0986392
0.133914
0.059789
0.00960491
0.00152352
0.0143376
0.0429212
0.00231032
0.0833583
0.00296188
0.00498687
0.0450642
0.0161782
0.0614392
0.00298177
0.0175071
0.00648701
0.0621436
0.0377468
0.00118131
0.00147606
0.131014
0.0090035
0.0076344
0.0150273
0.0211634
0.160265
0.0356534
0.00289287
0.00291557
0.0111951
0.00212302
0.0372322
0.00162856
0.00456686
0.0244154
0.00126603
0.0263051
0.00181082
0.00240248
0.00142341
0.00268516
0.00151209
0.00151982
0.0710291
0.017156
0.0225063
0.0772363
0.065291
0.0149396
0.00465917
0.059378
0.0133119
0.0042086
0.00485368
0.00263788
0.00361288
0.0127405
0.00252594
0.00213059
0.0103571
0.0184421
0.00389261
0.00175075
0.00181445
0.0187281
0.0773716
0.0654399
0.0665921
0.0126176
0.00128086
0.00326701
0.0620226
0.00128126
0.105653
0.00463136
0.00210212
0.00458877
0.00381876
0.00394127
0.00328152
0.0283248
0.0108075
0.0763147
0.00357868
0.0614183
0.026637
0.0133079
0.0031482
0.0955816
0.0242819
0.00118022
0.1143
0.0407559
0.016146
0.00158202
0.00484133
0.00302884
0.00921264
0.137567
0.00165139
0.00832626
0.0262826
0.0669205
0.0101674
0.014758
0.0562883
0.0223325
0.00126054
0.0231853
0.0802036
0.0065635
0.0792548