/*--------------------------------*- C++ -*----------------------------------*\
| =========                 |                                                 |
| \\      /  F ield         | OpenFOAM: The Open Source CFD Toolbox           |
|  \\    /   O peration     | Version:  v2012                                 |
|   \\  /    A nd           | Website:  www.openfoam.com                      |
|    \\/     M anipulation  |                                                 |
\*---------------------------------------------------------------------------*/
FoamFile
{
    version     2.0;
    format      ascii;
    class       volScalarField;
    location    "950";
    object      ddt0(omega);
}
// * * * * * * * * * * * * * * * * * * * * * * * * * * * * * * * * * * * * * //

dimensions      [0 0 -2 0 0 0 0];


internalField   nonuniform List<scalar> 
13917
(
0.000754661
3.20771e-05
0.406981
0.000183056
1.14023e-06
-0.00132802
0.0935176
0.565386
0.0881188
0.00239976
0.0102651
0.00421324
0.000190535
-0.950838
0.000137318
0.00014415
3.50792e-05
0.0025765
0.00416325
7.43402e-07
-1.43006e-07
0.0875809
1.39016e-06
0.700433
2.92898e-06
-0.0736254
-0.00129478
0.0012697
-0.028219
0.00561249
0.00127242
0.000412526
5.74659e-05
7.84318e-05
2.48727e-06
0.0195754
1.33242e-06
0.0252173
0.000385193
-0.0889755
2.9647e-06
-3.64594e-07
-8.85849e-07
0.000498411
3.3547e-05
0.000105116
0.00246748
0.00438743
0.0124249
3.02304e-07
0.000581902
5.06208e-06
0.0169946
-7.07189e-05
3.59817e-05
0.000523901
0.0104075
8.50998e-06
0.000301278
2.98848e-05
-0.631674
3.22447e-05
-0.0352874
8.45913e-07
-0.00234216
0.178918
3.21683e-07
5.61702e-07
0.0126025
0.000723891
1.03698e-06
0.125959
-0.133486
2.67611e-06
0.00493786
0.00474507
0.0842227
0.000103581
-0.109411
9.65341e-08
4.53175e-07
2.68896e-07
-0.0155981
0.00507194
-0.169232
8.79339e-05
6.44491e-07
1.38617
0.000545815
6.46182e-07
-0.147473
0.0049884
1.26864e-05
4.39711e-05
2.02846
0.00317179
0.00834085
0.00374064
0.00802993
0.0190804
1.34183e-06
-8.68693e-05
8.90887e-05
0.000145071
4.18706e-06
0.062675
0.0289254
0.00477869
3.68665e-05
0.00104054
-0.1899
0.00843495
0.00549194
0.054564
6.64621e-06
0.00275992
2.68222e-06
0.0120682
0.0583371
-5.93411e-05
-2.90423e-07
0.01134
0.0785381
-0.000607702
1.2712e-06
3.54842e-05
2.97051e-05
1.36522e-06
-1.50746e-07
-0.00253961
0.117602
5.15626e-06
3.58685e-05
-2.43693e-07
1.40932
0.615571
0.000793146
0.0154144
3.6285e-07
3.8809e-05
0.0175165
7.62029e-06
1.0377e-05
0.00133192
5.42576e-07
0.635854
-0.0431991
4.23457e-06
5.53502e-06
0.000402233
0.00345026
-0.0161352
0.00574347
0.000761965
0.000455584
-0.214056
0.000553407
0.0138701
0.442223
1.46794
5.13653e-05
0.00368705
7.0737e-08
0.00836203
0.00540168
0.00789314
0.000140831
0.00353202
1.96794e-05
0.000374182
0.000375365
-0.0400579
0.0057897
5.21868e-05
1.40772
-0.000463689
0.118232
0.018437
1.66363
9.81782e-06
0.00347633
0.00118967
7.35028e-06
7.88096e-07
0.00035895
-0.0675368
0.0595462
-0.395517
0.00136523
0.00770335
0.0160542
-0.23097
0.0349525
1.49049e-06
0.0234751
-0.00465108
2.66677e-05
1.3485e-05
0.0057995
1.4374
0.000511549
2.62433e-07
0.00318248
0.00342807
-0.0589076
0.657804
2.24829e-06
8.91346e-06
0.00383704
0.151888
1.0368e-05
0.107375
0.136834
0.00770036
4.00773e-06
-0.0322541
0.00304581
-0.0161159
3.86265e-06
-0.557635
9.18606e-06
0.00492116
1.87331e-06
-0.0354096
0.0390127
0.000162442
-0.961504
0.000496053
3.89845e-06
0.0173265
0.00565967
0.00134726
0.584776
0.419138
6.0337e-07
0.000462925
-0.192944
-0.120348
2.84137e-07
1.83169e-06
0.0199565
0.0102911
-5.98616e-08
0.0131805
0.00616773
0.00415683
0.000789961
2.39368e-07
0.000916117
0.170492
2.78488e-05
0.00637973
-0.0036356
2.76159e-05
7.48255e-06
0.00463351
0.0598411
0.00546319
0.000471058
0.000151241
-6.3926e-08
-0.0689136
-0.0726195
0.0159654
3.7951e-06
-0.0989981
-0.167466
0.0322076
-0.0821989
0.00502884
3.14353e-07
4.99567e-07
0.00258998
-0.0287578
0.00840699
0.000281278
1.00117
0.00244568
-9.15408e-07
-0.175932
7.41232e-07
1.0468
0.000454592
-5.95431e-08
0.000202356
0.000628746
-0.001993
0.0144132
0.000378781
3.68022e-05
0.162833
0.524877
-0.110589
3.71067e-06
0.111136
2.36705e-07
3.61546e-05
2.53388e-06
-0.384199
2.7122e-08
0.00641941
0.000726889
1.80999e-05
0.00333627
0.000103146
0.0165246
0.000864838
0.0039436
1.21602e-05
7.33301e-06
-0.165097
0.00033567
2.79918e-06
1.05363e-06
-0.120599
1.0007e-05
-0.170143
1.1024e-05
-0.0355628
6.69433e-05
0.0404056
0.00141387
-0.00203103
4.31571e-05
2.40678
0.125482
0.000234618
0.0102735
-0.046026
2.29158e-05
0.0920772
0.00978797
-0.110884
-6.12453e-05
-0.0939833
0.000506202
-0.234823
0.0147969
0.00240211
0.00179745
0.322232
3.98812e-07
0.000613649
-0.224097
9.97919e-06
8.72946e-05
-0.00694438
0.007957
5.1805e-05
0.0109627
0.0396796
1.11392e-06
0.00344768
0.0223513
8.45344e-07
3.10642e-06
1.04782e-07
5.71033e-06
0.0223338
1.64392
0.00281733
-0.204305
2.904e-06
0.00723942
0.0366511
0.00231387
0.0975238
-0.070959
0.019239
1.25435e-06
0.012396
3.22863e-06
-0.46138
2.94208e-05
-0.000632623
0.00604148
0.000316237
6.9997e-07
0.00338285
0.00501424
0.00431271
-0.35591
-0.199426
0.0702389
0.000837776
0.00251535
1.77636e-06
-0.143337
0.0114112
1.24068e-05
0.857793
2.20251e-06
0.00558349
6.64639e-05
3.09395e-07
0.000102626
-0.0540894
9.96921e-05
0.0769078
-0.122597
0.00964393
-0.0535793
2.31401e-05
-0.0189918
0.00607663
1.87664e-06
0.0107449
9.3616e-06
2.53012e-06
0.00557117
-5.79872e-08
2.66515e-06
3.11184e-06
0.00684306
4.68143e-09
-0.0224084
-0.42486
-0.0276704
0.0323309
0.111082
0.0221763
0.00228897
2.79061e-06
0.013701
0.000363532
0.000497545
1.61374e-06
-1.04416
0.105139
-0.563265
0.000140502
0.00758216
2.95467e-05
0.00044435
0.00432516
7.40804e-05
0.0128666
3.82034e-05
1.20121e-07
-0.234051
0.123133
0.119679
0.00558141
0.0611637
0.0860313
-0.284187
0.245364
-6.81098e-07
0.00313848
7.86276e-05
9.93363e-06
0.401619
0.00256893
6.81303e-07
0.00293198
0.00209915
0.329323
1.92526e-06
0.00812151
-0.598849
0.00269807
0.058025
-3.95176e-08
1.2112e-05
2.56695e-05
0.000407577
1.19675e-06
-0.0310977
-0.037355
0.00040573
-0.191727
0.000515106
0.00805429
-0.332902
-0.0381093
0.00921609
0.0175066
0.00809542
0.00271665
0.0127186
0.0025056
0.00924824
-0.00869247
0.00282035
0.00581331
4.50594e-06
1.36132
0.000661872
5.76419e-06
0.000468992
0.000112391
0.162344
0.0724443
9.52414e-06
-6.52861e-07
0.147225
0.12682
-6.67461e-08
-0.00387083
0.000117178
0.0206658
9.86795e-06
-0.0182331
0.0567385
0.000415764
5.08612e-05
0.116481
0.0253128
0.0751877
-6.32086e-08
0.0960566
-0.00452769
-0.205301
7.23021e-06
-0.139843
-0.271739
0.00234298
3.14766e-06
3.23734e-05
0.00469537
0.0492065
-2.05299e-07
2.84828e-06
5.3607e-07
5.47436e-07
-0.0210929
0.450894
0.00230726
0.041228
4.22669e-06
1.27751e-06
0.00742332
-0.283448
0.00106757
2.10367e-05
2.77031e-06
4.87738e-07
-0.253265
-0.291651
5.95976e-07
1.03855e-06
0.0145233
0.00253779
0.0014317
1.09713e-05
0.000101592
0.000318367
0.00550351
0.0609742
0.0458565
0.0133435
0.00621399
0.673433
0.00277052
3.5428e-06
0.0658796
3.79446e-07
9.86809e-05
0.000278298
1.23689
0.00290724
8.95331e-07
-0.113283
0.00694384
-0.164955
0.00633038
-0.000553518
0.00222915
7.12648e-07
-0.180412
0.0662416
0.12653
3.18423e-05
0.000802086
0.0409187
-0.0965178
-0.220022
0.00385045
0.0046552
0.000133976
0.000196744
1.03899e-05
-0.00504698
0.000569336
1.40402e-06
0.00304532
0.00189196
0.152638
-0.0721471
0.000148363
0.00825967
0.0313215
0.000145932
1.09533e-05
-0.0295805
0.0865426
0.636171
0.0350676
-7.88912e-07
0.027602
0.0046427
2.23946e-06
0.00078096
0.00492242
-0.000106826
0.00595399
-0.108514
0.0128303
0.0019793
-0.160876
0.000129985
0.423942
1.30222e-07
6.7152e-07
0.0981041
0.0612488
0.050393
0.000131294
5.17755e-05
1.10976e-06
0.00247695
0.0076885
0.00721809
0.000217508
0.00850795
0.00348161
1.05168e-05
2.10669
0.00698217
0.0103345
4.62828e-06
0.0124847
0.000106187
-0.434851
0.00222505
0.00198138
0.000831365
6.62428e-07
4.87974e-06
3.27838e-05
0.00192295
0.000141252
0.00138278
-0.228413
0.00354794
1.08156e-06
0.0119874
0.0892683
0.0155174
2.74419e-05
1.89498e-05
2.78419e-06
0.00084985
0.000322856
-0.292058
2.61879e-07
2.44386
0.000821804
0.0101625
0.00356793
-0.135873
0.0021247
2.6802e-05
-0.0081407
0.410158
1.44084e-05
0.000271502
0.221163
0.0269719
0.00851747
-6.82841e-08
5.31785e-05
0.0231511
0.000333345
0.00411629
0.00431006
5.01165e-06
0.00335892
0.456923
2.46153e-05
0.000126223
5.34869e-07
0.0663218
-1.62444e-07
0.000119621
-0.059741
7.19871e-05
0.122433
0.00046269
6.86398e-05
5.62244e-07
0.000168855
2.38887e-06
0.00286755
4.75764e-07
0.00394593
0.00011558
-1.09292
-0.00300186
-0.327416
2.25598e-05
4.92918e-07
0.00311012
0.0014792
0.0523876
-0.114484
0.00260046
2.37232e-06
0.0219608
-0.00684039
0.0101571
0.0273335
0.0027168
-0.141567
0.000731982
0.002153
0.0125509
0.00456619
0.00254281
0.00307042
0.00241213
0.000189816
0.00526017
0.000281997
1.02824e-05
0.000815366
0.0011404
0.000390751
2.39658e-06
8.0934e-07
0.00343989
0.00017057
0.0041648
2.23596e-06
1.85159e-06
-2.45128e-07
9.38674e-05
-2.89986e-07
0.000293245
5.20385e-07
0.00100266
0.00406608
-0.0438879
1.12824e-06
3.16656e-08
0.000297977
0.00268193
6.69015e-06
-0.236947
0.00259243
-0.376284
0.000834696
0.00917116
7.28852e-05
-2.06959e-07
5.53882e-07
0.000102962
0.0771645
-5.61762e-08
1.4598
0.000326255
-0.0705812
3.76396e-05
0.00225366
0.0100374
2.36851e-06
-4.92539e-08
0.00416075
1.08035e-06
2.27917e-05
-0.0979868
5.98446e-05
4.5495e-07
0.000580915
1.59122e-06
9.34704e-08
0.000413704
-0.00208163
-0.275436
0.000641981
2.45554e-05
2.0939e-06
-0.121403
0.00252195
2.1897e-05
3.24122e-05
-0.158562
0.126251
0.0760115
-0.000407091
0.000191228
6.45139e-07
-3.57205e-07
0.00285377
0.000700341
0.0258163
-1.49559e-05
0.0882631
4.383e-05
5.52811e-05
0.0905252
2.11743e-06
0.000689902
1.07951e-05
1.84954e-07
0.000858963
-0.000209233
7.29675e-05
0.129067
0.0320669
0.00426672
3.7223e-06
1.61059e-06
0.00740809
1.28878
-4.626e-08
0.383829
8.4848e-07
0.00141881
1.09435e-05
1.27512e-05
0.0603809
2.83758e-05
0.0148078
0.00107055
-2.80535e-07
-1.29447e-06
9.31968e-07
5.63842e-06
0.000116552
-0.033988
2.10085e-05
1.04113e-05
0.134147
0.341122
0.00212511
0.00133329
0.00376793
0.000361192
8.28001e-06
0.000137713
-0.017508
0.00396353
1.3177e-06
4.59508e-05
-0.0815653
0.00155246
-0.247717
-1.25431e-07
7.81013e-06
0.0353678
0.00140237
8.16707e-05
0.0867776
-0.00598673
5.30154e-06
0.0104082
5.51419e-07
2.62053e-05
1.19106e-06
-0.174961
-5.84399e-07
2.36708e-05
8.206e-06
0.0253939
0.000313
0.019942
-0.0169295
1.1128e-05
0.000122735
5.62872e-07
-0.216393
2.04638e-06
2.16985e-05
5.08187e-07
0.00773429
4.81348e-07
0.0130891
0.0206746
0.398809
-1.12628e-05
0.0216126
-0.0738386
7.61769e-06
-0.0384734
-0.676408
-0.108696
0.115359
0.103736
-0.32376
0.0108892
3.49169e-05
-0.0838294
0.00137093
0.0182764
5.41532e-06
1.30647e-05
2.18037e-05
6.77689e-07
0.000461112
-0.000511306
0.0587719
1.22343e-05
1.18602e-06
-0.0619617
0.0389282
3.24701e-07
0.00554328
0.000747827
5.33067e-05
0.0259661
0.00526598
5.17635e-05
0.000308352
0.009231
-0.0147796
-0.0108988
1.02325e-05
0.0263524
0.00731422
-0.0919594
-0.0105414
0.00554768
1.0227e-05
7.88987e-05
4.3668e-05
-2.30991e-06
0.000100805
-8.04414e-07
0.00032053
0.000689708
-0.222258
0.00995269
2.60111e-05
0.00910703
-0.30248
0.000819543
8.55289e-06
0.127252
1.6526e-05
1.93469e-05
0.000359183
-0.31145
1.49568e-07
4.80786e-06
0.122983
0.0221604
0.0226942
0.0071386
0.0168847
4.70189e-06
0.0141973
9.66928e-06
2.02638e-06
9.28016e-06
-0.0955157
-0.0402493
9.04192e-06
-1.36806e-06
1.22544e-05
0.212055
8.05592e-05
0.000840414
1.13382e-06
4.21916e-05
0.0128122
1.52354e-05
0.00278753
0.0145429
0.121597
2.51967e-05
0.00169554
0.000155168
-0.103674
-0.278626
2.76828e-06
-0.151147
0.00447746
-0.00552196
3.5733e-07
-0.0146467
-7.88189e-08
0.000492233
0.000957593
0.00722223
0.168832
0.00954394
0.00764775
0.0430977
6.31113e-07
0.0180824
1.27639e-05
0.000283876
0.160281
1.08319e-05
-1.17898e-07
7.99694e-05
4.64036e-05
-0.177061
1.58299e-06
1.53395e-06
0.00344552
0.00147273
0.00291959
-0.0338305
0.00762365
0.070996
0.00401053
0.00150383
0.00208032
0.0417881
0.00226613
-0.524795
-0.0795764
0.000424214
1.45857e-05
0.0926445
0.0102032
4.49567e-06
0.00770082
0.00113699
6.22023e-05
0.000512586
5.04999e-05
0.000883793
-1.35242e-07
0.00263384
0.00251295
3.16227e-06
0.00254724
1.94734e-05
0.00105673
6.58069e-07
-0.000218283
0.00312254
0.000186175
4.21891e-05
8.00715e-06
-0.00571194
0.00450309
0.170849
3.01346e-06
3.04333e-05
0.00349275
1.04662e-05
0.00554288
0.00401888
6.27467e-05
0.0061998
8.3169e-06
-0.423323
5.60491e-06
0.00196505
-0.0139628
0.0247583
4.92133e-06
0.000102945
-0.100982
2.05137e-06
2.84212e-06
-0.111966
-0.231525
5.78074e-05
0.00815644
7.71436e-07
4.15528e-05
-0.0484152
9.43293e-05
2.46829e-06
0.0253944
1.15876e-05
0.0172342
5.51879e-07
2.39587e-06
2.10133e-05
0.00767136
0.111172
7.93222e-06
2.02944e-05
4.60717e-06
0.00016178
1.84485e-07
0.00115373
0.00279428
-6.94839e-08
2.40603
0.000317595
0.0100194
0.0895249
-0.0303129
1.20797e-05
8.03175e-06
1.40587e-05
-0.0465589
0.000144819
0.110955
-0.0624298
3.17078e-05
0.103879
-0.00175238
0.00253596
0.00775068
8.23504e-05
-0.0294204
0.151182
0.00141248
0.205419
0.0138777
0.00419216
0.000143439
0.0250429
0.0010907
6.05887e-06
0.000160237
-0.652436
0.000595976
9.14366e-06
-0.00078155
0.00632104
0.000707396
-0.0541393
0.000118766
0.0953507
0.00210794
0.0085447
0.00883616
0.0301289
0.000702593
1.34208e-05
5.44756e-05
0.373476
2.7522e-06
4.42969e-05
2.51001e-06
0.000103315
1.41687e-05
0.000216783
0.00917491
-0.00659576
0.00206185
-0.0105695
-0.332759
-0.101136
1.47108e-05
0.112319
-0.29421
4.76009e-06
2.91864e-06
0.000878898
-0.0576439
-1.5214e-07
0.00372311
0.226543
0.00105202
2.93268e-06
0.000147581
1.54313e-05
0.00768953
0.0008293
5.55211e-07
-0.0317944
-0.137778
5.72535e-06
0.482998
0.004219
-4.25481
7.01591e-05
0.00039226
0.0083989
0.712668
0.00557177
0.0150159
0.00048123
-2.67806e-07
2.83496e-05
3.21664e-05
2.8515e-06
9.8842e-06
0.00199312
4.74073e-06
0.00888924
1.56336e-06
0.000638695
1.11626e-05
0.00251676
0.00833905
0.712607
6.33636e-06
0.0306653
2.76619e-05
0.0577787
2.23967e-06
0.000156674
1.40033e-06
0.0231153
-0.0659593
0.00855632
5.07773e-06
0.00991168
1.62312e-05
0.000487801
-0.199581
2.37745e-05
9.33765e-06
0.00123027
0.000799366
0.0941309
4.8854e-06
0.000521809
0.000139883
2.27096e-06
-0.000668367
4.34635e-05
7.89063e-07
4.28517e-05
0.104832
0.000211797
0.0212136
-0.0245699
0.0026107
0.119247
0.0001916
7.1741e-07
0.00105811
0.239637
0.000166267
0.000302069
0.00242457
3.00366
5.4442e-06
-0.00282238
0.00265796
0.00400092
4.72089e-06
-6.65112e-07
0.0079087
1.20574e-05
-3.68322e-07
-0.000447293
5.17669e-06
4.90192e-05
0.000530857
0.00469046
0.00956682
0.0641054
0.000364991
0.00511165
0.00324175
-0.0993515
0.00196766
0.00822563
-0.0568973
0.00170851
-0.537429
7.04547e-06
2.50282
0.0314429
8.0115e-06
-6.19125e-08
2.0594e-06
9.09485e-05
0.0011279
1.256e-05
1.4229e-05
0.00556665
0.000148529
0.000276534
-0.0944634
5.88934e-05
0.000256598
0.0734827
8.31454e-05
-0.00680669
0.000290175
-0.00329312
5.46449e-06
0.146929
-0.0518462
1.6451e-05
0.000102281
-0.122191
3.36878e-05
-0.0521881
5.89294e-07
1.25699e-05
0.14096
0.000101152
-0.00157416
-0.376006
1.22428e-06
0.00266507
0.000516491
-1.4427e-06
5.41296e-07
-0.0844003
-0.0657421
3.93086e-05
0.00018094
8.69168e-06
0.000318354
-0.00607511
0.255946
2.98553e-05
-0.0162177
0.0720325
0.00973053
1.12387
9.56729e-05
0.00693103
0.00454284
0.000245831
1.85592e-06
0.00376474
-0.11209
3.86076e-05
0.000462739
0.761463
-0.00192074
0.0323188
1.78663e-05
2.15942e-05
-1.34187e-07
5.6404e-07
-0.0387142
0.00320475
0.000226721
0.000110069
0.000245479
-2.12106e-07
8.90559e-06
1.44363e-06
0.00496064
0.00191911
0.987025
0.00420347
-0.0890021
0.0827431
0.000503391
0.00260022
1.33735e-06
0.00017441
0.294661
2.78404e-05
0.000112435
0.00292403
0.00850649
0.00536297
-0.377949
0.0201356
1.61872e-05
0.0283364
-8.07494e-07
5.57187e-05
0.00387573
-2.79513e-07
2.92972e-05
0.0127369
0.000292246
1.4331e-05
0.0189802
2.87231e-05
9.49504e-06
0.000108736
-0.0192051
0.000455554
0.000285378
-0.669425
9.30228e-05
0.0254951
0.114355
-5.76096e-08
0.0046913
6.14782e-07
0.00498281
0.00384911
9.89658e-07
-0.317203
0.00297706
0.000483247
-3.19026e-07
-0.0438792
0.000100446
-0.022893
0.000121196
0.000675667
0.0977586
1.14771e-05
-0.00157632
7.73791e-06
0.0025422
0.000309507
-5.9056e-08
-0.0974434
8.54928e-05
0.00836474
0.00299157
0.00121896
0.000221959
-0.000852476
2.41658e-05
0.749633
-0.000502793
-0.136866
0.000254129
0.00427935
2.25772e-05
0.00103896
4.03014e-06
0.00435025
0.410372
5.98066e-05
7.32969e-06
0.00316421
0.000106531
0.0106697
6.96152e-05
0.00395544
0.00936322
0.000631825
2.89011e-06
3.10772e-06
1.04959e-06
-9.37716e-07
0.00702297
-0.00122672
-0.000152164
0.000291081
7.52997e-07
1.0005
0.000194912
0.000575529
-0.00425423
3.46323e-06
-0.862975
0.0028435
0.000956036
0.00437564
-0.0817991
0.298691
0.111618
-0.05128
5.97023e-06
0.0196791
-0.0835289
-0.0191987
4.9466e-07
3.27401e-06
0.0077579
-0.214173
0.0046777
0.205172
5.67216e-05
0.00272781
0.00174305
0.121091
-0.000559682
0.00239192
0.00950035
0.000130173
0.00341483
0.00552841
6.20459e-07
0.00710811
-0.158895
9.47237e-07
0.0340652
-7.41907e-08
2.51444e-05
-0.0642947
-0.158436
1.21275e-06
6.25805e-05
6.30725e-05
1.35265e-05
0.000897336
0.0136208
0.000144741
2.08337e-06
8.41267e-07
0.0022892
0.000486659
0.000442085
0.23884
2.4372e-06
-0.215974
0.0709792
0.00792606
0.00345175
0.00215979
0.0221557
0.00129613
-0.0618893
0.0148911
-0.0882308
4.03443e-05
-0.477474
0.105832
6.03887e-07
2.26468e-06
0.0049676
-0.2232
-0.344212
1.47246e-05
1.51169e-05
0.124617
9.15666
0.641883
0.000171762
3.71465e-05
0.00406631
1.57489e-05
0.0934701
-0.280348
0.0153661
1.78124
4.00104e-06
5.33122e-06
7.12703e-07
-2.70716e-05
0.083562
0.00222957
0.000436267
7.60513e-06
0.00443006
-0.0378237
0.00227245
0.749633
-0.0610635
0.0543596
-0.00550503
1.88247e-06
4.80756e-07
0.0145441
1.27532e-06
5.73861e-06
6.107e-05
0.0154128
0.00161249
-0.492192
0.00992836
2.64802e-06
-0.177118
0.00108803
1.3696e-05
-0.0687688
0.00242792
8.56505e-05
4.24134e-05
-0.020672
-0.287899
5.60951e-07
-0.115885
0.0708566
-0.345871
2.2179
0.00193987
7.95991e-06
7.74621e-05
-0.0873889
0.000359901
0.0933565
0.00123513
1.95893
0.0204982
1.80738e-05
2.97871e-05
1.05114e-05
2.12432e-05
-0.218739
-0.164223
6.13715e-07
-0.0741077
0.0023701
1.50635e-05
6.94653e-05
3.40115e-06
0.0122053
6.08676e-05
0.00908162
0.00122669
8.3694e-06
4.22124e-07
-0.0282414
0.195586
0.00163393
0.000138199
0.00148052
3.78873e-06
0.00013246
0.000653291
0.0841657
0.0893821
-0.252905
1.26828e-06
6.60894e-07
3.57872e-05
0.00707482
3.45236e-06
3.83469e-05
0.0128764
0.00367551
0.0181093
4.79217e-06
-0.317939
0.0875201
-7.10529e-08
0.103039
0.00815214
0.00195821
-0.00360338
3.3367e-05
-0.168005
-0.00025538
4.14144e-05
3.89437e-05
2.25103e-07
0.0123924
2.74767e-05
0.00010614
2.28781e-05
0.0803931
0.118765
-3.75482e-09
5.07958e-07
0.000148442
2.43183e-05
0.00934851
7.09774e-06
0.00470914
0.000189156
-0.0742658
9.86793e-05
0.114003
1.73872e-06
-0.294681
6.24345e-05
3.42471e-07
-0.403614
0.0153037
0.0306826
0.0158397
0.0006942
0.00194221
1.20013e-06
-0.0751462
5.66374e-07
3.41095e-06
-0.00514418
0.00398214
-0.557358
-0.122857
0.00904578
-0.0427611
0.00919427
1.56574
1.04887e-06
0.000329591
0.000737558
-0.272994
-9.91648e-06
-0.278673
0.0816489
4.89627e-05
1.58911e-06
1.19989e-05
-0.0197853
-0.0130874
0.00017107
1.49091e-06
0.000171307
0.000500537
0.00166635
-0.0667542
0.0158064
8.16227e-07
0.0249789
0.0041758
0.329337
0.00415266
9.98074e-05
0.000192978
-0.202223
5.92037e-07
0.00536544
0.338669
4.05241e-05
0.000261892
0.013326
-0.0115189
2.65183e-05
-0.000861983
0.000245492
0.0189186
0.00222513
-0.000125747
0.000106168
-0.261258
1.90695e-06
0.00194617
-0.00160403
-0.246781
0.00205704
0.00300717
0.000450575
0.00112189
-2.60057e-07
-0.26738
0.00056613
3.1714e-05
0.000862578
8.18692e-07
-8.22911e-08
0.0141363
1.78538e-06
-3.98277e-08
1.26642e-05
0.00980694
3.53303e-06
0.00051406
0.00507204
0.0237458
0.0079529
-1.83885e-07
0.000508944
0.14759
0.0258171
0.00441366
0.000430391
0.0114528
0.382359
0.266523
-1.01368e-07
0.0215044
-0.119414
-8.16133e-08
0.000220914
-1.23739e-07
-0.0239817
0.00570275
3.86027e-05
0.00124833
-0.270017
7.22606e-07
3.25284e-06
-0.170313
0.0978468
0.00407777
1.62467e-06
-0.264274
0.0908246
-0.0113588
2.37147e-06
-0.276728
0.00503455
0.000680576
-0.179202
0.000467159
1.88819e-08
0.000808856
0.0175438
0.00116744
-0.279272
-0.344339
7.28623e-06
0.115348
0.0307892
-0.101638
1.8197e-06
0.00699622
-2.0531e-08
8.82345e-06
-0.00269613
0.43497
0.0340456
0.0252739
-3.97761e-05
0.00214117
1.52785e-05
-0.29403
-0.0486335
1.0057e-06
4.43271e-05
0.00046774
1.84377e-05
0.00261549
0.183772
-0.142604
0.00233913
6.8486e-05
4.34439e-05
-0.0852092
6.94071e-05
0.00284794
6.61789e-06
6.30857e-05
0.130481
0.720872
0.0291964
-0.0206641
3.81533e-07
0.0248024
2.24812e-05
0.00161518
-0.507955
-0.0597763
1.80114e-06
-4.54419e-07
0.00174886
1.66702e-05
4.20436e-06
0.0851135
-0.281783
1.00721e-05
-2.15394e-06
5.25131e-07
1.83344e-06
-0.00768357
1.01472e-05
-0.369399
0.00695139
0.00395746
1.30505e-05
0.000780658
-0.3634
0.00138032
0.029805
-0.254755
1.82884e-05
0.218817
1.28967e-05
-0.000865421
0.00917601
0.0134973
-0.100578
0.00374124
5.96883e-06
0.00344923
1.11161e-05
0.000145199
6.71143e-06
-0.518034
-0.000103648
2.56825
0.0150377
0.00238388
9.93326e-07
0.0337155
0.000595753
-1.1592e-07
0.00397889
1.07314e-08
0.00186713
0.00118318
7.08182e-06
-0.422815
8.89174e-05
-0.012555
3.60736e-05
3.0572e-06
-0.267082
0.0946628
4.59595e-05
4.11541e-05
0.00217959
0.00195774
0.00380002
0.000528966
0.000157466
0.000364668
0.0168565
0.000119706
-0.6091
-0.000134478
0.0176698
0.00670335
9.76446e-05
0.11361
-9.15899e-07
0.165806
4.06773e-05
-0.2289
0.706454
0.0380604
0.0106135
0.00500772
0.00175206
3.51611e-05
0.136221
0.00171366
1.41358e-06
0.0568278
0.805277
3.45065e-05
0.000221244
0.000600531
0.000609501
0.00130026
0.0155736
-5.73102e-08
0.000976041
0.00171124
0.000766602
5.54277e-07
0.00592286
5.74149e-06
-0.224278
5.48823e-05
0.0093047
0.000845826
0.00168436
0.00621574
0.351332
0.0046705
7.24334e-06
0.0128322
0.12987
-1.30313
7.09678e-05
0.0160744
0.00077124
0.00699674
4.55963e-07
0.000114952
0.0254243
0.00315326
-0.0725041
-0.0236001
-9.59689e-05
-0.337141
1.49722e-05
8.83602e-07
0.132484
0.00594499
0.000113768
0.126902
0.000404792
0.00190156
0.000454238
0.00326426
3.74782e-05
1.7727
0.819977
0.0612457
0.0375538
0.000352729
0.00233401
-0.0777298
9.7216e-05
1.82719e-05
0.0027846
3.73119e-07
-0.0404976
-0.459499
-0.080044
0.0682629
0.00344082
8.03285e-05
-0.25019
-1.76127e-06
0.00516886
1.59973e-07
-1.51261
0.000128823
-0.00027011
0.112298
0.0082317
9.89894e-07
0.000391296
-0.407537
1.54891e-06
0.0107801
8.62008e-06
-0.28721
-0.265369
0.00820296
-0.00375047
1.54146e-06
0.0096021
0.00952992
0.00160823
8.8671e-06
8.51429e-05
-2.10704e-08
0.00344293
1.07992e-06
0.00595427
7.21845e-07
1.10039e-05
-0.479634
1.45744e-05
0.000406008
0.000388343
-2.49324e-07
0.10984
1.24857e-05
0.000480858
-0.105509
0.00283944
-0.606376
2.40356e-06
-0.269237
0.00309124
0.0739999
0.000114346
0.00923886
5.01761e-05
0.00190967
0.00856566
0.00738638
0.0237923
-0.253535
0.0316521
0.66726
-2.3718e-05
0.00787435
-0.000506108
1.822
8.98576e-05
4.53071e-05
3.38356e-06
0.00300853
0.000718254
0.519564
0.00283027
0.380652
0.0450661
-0.00587577
1.26495e-05
1.06554
0.00505374
1.08876e-05
5.06677e-05
6.40953e-06
0.27165
2.70865e-06
-0.211715
1.31967e-05
0.000635758
-0.0981302
0.00163373
2.21766e-06
3.10498e-06
0.207943
1.19369e-05
9.34114e-05
0.000366716
0.000230402
0.000502247
2.44718e-05
0.00800782
-0.0106741
-0.00118378
0.0240689
-0.144723
0.113092
0.0359357
1.75723e-06
5.39586e-06
0.00198555
7.94408e-05
-0.000536163
-0.0927543
0.0738642
1.76845e-06
1.36972e-06
0.105002
0.0247887
1.91391e-06
7.60707e-06
0.000102092
-0.792597
-0.184049
0.000406959
0.000570071
6.70591e-07
-0.0081909
0.00855471
0.000750383
0.000260434
0.000951251
4.40864e-06
0.00105348
-0.0256383
1.63505e-05
4.25421e-05
0.000368846
0.247472
0.000116287
-0.0532711
1.29546e-06
0.0168227
0.000340011
-0.00169347
1.32657e-06
3.10935e-06
0.0577801
-0.12525
0.00140897
0.0395539
-0.596841
2.40615e-05
-0.181728
0.00785874
5.00706e-06
0.210434
0.0177064
0.00804923
-1.46459e-07
0.125472
-0.105133
2.90199e-05
0.000408655
0.0901881
0.000691783
1.28521e-05
1.01413e-05
6.10882e-05
0.000238706
0.00450888
0.00226643
-0.00512503
0.00355598
1.12655e-06
1.81839e-05
0.231111
1.07976e-05
0.0013747
-1.77609e-05
4.3012e-05
0.00202655
2.42843e-06
7.9757e-05
0.0438206
1.79099e-06
-0.144419
2.48982e-06
-0.593098
0.10081
0.00555287
2.61798e-05
-1.81765e-07
-0.295762
-3.32352e-07
0.000189917
6.75886e-06
0.017871
1.22954
0.00117475
0.100648
0.000710688
0.0197378
6.09271e-06
0.00434004
1.43212e-05
1.29188e-06
-0.0636074
0.0670093
1.06197
0.000153173
0.00416981
0.00457901
-0.148123
-0.206617
0.0041308
0.000991643
-9.63641e-07
-0.224508
2.1366e-05
2.75691e-05
0.0103918
0.00778828
0.000423239
0.00334706
0.00230141
0.000610112
0.000504279
-0.295101
0.000260327
1.98311e-06
-0.0580512
0.00227919
4.18173e-06
0.106924
8.97365e-07
1.4646e-06
0.0116488
0.00594791
-0.688853
4.43011e-06
8.21001e-05
5.69037e-06
-0.015033
1.05161e-05
0.00103271
0.043714
0.119038
0.0856159
0.263592
-8.68567e-05
-0.142292
0.0121738
4.77165e-07
0.000105026
-0.00136203
3.4639e-06
0.00282448
-0.111416
-0.189792
0.0937723
-0.0270292
1.41724e-05
0.00742656
5.41378e-07
-0.0773609
0.000724118
0.000156831
0.000220201
8.89818e-05
9.22613e-06
0.0075947
-0.209587
1.14976e-06
0.000170247
5.11484e-07
-0.0420367
0.000159334
-0.43468
-0.569101
1.19054
1.24943e-06
9.40569e-06
-0.0286886
0.0332409
1.18256e-06
0.011723
1.99793e-07
0.00968408
0.00342619
0.00631264
0.00292478
-0.0998545
6.74167e-06
1.46756e-05
0.011402
0.0990909
0.000565824
0.00127256
8.06137e-06
-0.0668256
3.15465e-06
1.22798e-06
0.000120021
6.39766e-06
-0.0723399
-0.0382537
0.0212411
0.00359356
-0.312985
0.302916
5.39605e-07
0.00113155
2.48117e-06
-0.00180735
3.30377e-05
0.000105843
4.20363e-06
2.95779e-06
9.72365e-06
25.8245
0.000115052
-0.0112738
3.20068e-06
-0.000294003
3.42887e-05
-0.00241514
2.03693e-06
0.0011196
0.00171879
0.00229553
-0.498156
3.22925e-06
0.0937062
0.00333463
0.00261445
2.53428e-06
4.25999e-06
0.118737
-0.207959
3.52866e-05
1.85953e-05
0.0205774
0.0150408
0.00125176
0.021525
4.10218e-05
0.0181122
0.00116588
1.78024e-06
1.2913
0.000130874
-0.0944107
2.51713e-06
8.34918e-05
1.39529e-06
0.000222598
0.12924
1.48109e-06
0.0223897
0.0140969
5.03511e-07
1.68507e-05
3.51935e-06
0.0211309
-0.129984
0.00265534
0.000281286
0.00113534
2.25113e-06
7.30861e-06
0.000181255
1.65173e-06
0.0150959
5.29748e-06
0.00417815
0.344231
0.000817736
-9.0067e-07
-0.0928664
0.00478454
2.15292e-06
0.00191356
0.0010261
0.0189258
-9.67939e-06
-0.685785
0.00241595
1.3661e-05
0.00462825
0.00459378
0.000288203
-0.407666
0.00378901
0.000957919
0.0164109
1.13183e-05
0.0073077
0.000355498
0.00523404
2.81486e-06
8.8763e-06
1.15938e-07
0.00382705
0.00348319
0.00349418
0.205187
-0.0856481
-0.549849
-1.74362e-07
0.0392157
0.0797103
-0.0877538
4.39534e-06
1.56819e-05
0.0031808
-0.0496711
9.71433e-05
0.0016945
-0.117714
-0.0153997
0.937197
-0.0103018
0.0126956
0.111994
0.742746
1.31304e-06
-2.94985
0.0293918
5.45884e-05
6.6831e-05
6.6294e-05
-0.258821
0.00611607
1.04882
0.000169247
0.257749
3.61073e-05
0.376492
0.110489
1.65666e-05
0.00152974
-0.209143
0.267731
0.00250824
0.000103869
7.43299e-05
6.71954e-06
0.0238434
0.00784204
1.98835
-0.117485
6.61561e-06
-0.0654841
0.0125718
0.00824138
5.67734e-07
5.04891e-07
0.00167785
0.030053
8.09564e-06
0.00198102
-0.00189467
0.000208416
-0.371052
0.257645
-0.327043
-0.220091
0.000136225
5.14635e-06
0.000688849
0.0634924
-0.366342
2.74384e-05
-0.0106879
-0.0113481
-0.00861765
7.54554e-05
-6.54498e-08
-0.0254265
0.751508
0.454476
-0.0104869
0.032375
3.06728e-06
-0.00714025
-0.226899
9.06874e-06
0.00100937
0.00751306
2.0197e-06
0.0112051
0.248589
0.013981
-1.19976e-07
-0.0253669
0.00841677
-0.801895
-1.26536e-06
0.00021447
2.87322e-05
0.000144417
2.6047e-05
0.00182501
0.00058367
-0.00236676
-0.0784501
0.00146199
-0.0781341
1.54597e-05
0.000838387
0.000371424
0.0831181
0.00433177
-0.0924534
0.000323946
7.58722e-06
-0.297355
-0.000320567
2.90869e-06
-0.00242496
1.06668
0.666559
-0.0141386
1.18118e-05
8.57121e-06
1.50499e-05
0.0423835
7.59439e-05
-0.00652277
0.0132219
0.0216734
0.00049242
0.047126
-0.0470068
2.55586e-05
-0.0638294
4.9185e-05
-0.000715939
1.64322e-05
2.49644e-05
0.00251495
-0.329439
4.72559e-07
-0.0786468
0.0260241
-0.000138979
0.0172598
1.145e-05
1.77483e-06
0.000923233
0.000128105
-0.94066
-1.27893
0.00179006
0.0720747
1.24748e-05
3.1822e-05
4.08886e-05
-1.39819e-07
-0.567077
0.000159443
-0.134233
-0.00334685
7.7822e-05
0.00487464
1.75633
0.123155
0.102212
0.000191272
1.34868e-05
1.26625e-06
0.000182724
0.012661
-0.0235436
-0.239332
1.02028e-06
7.46976e-05
0.00326955
-6.66498e-08
0.0122984
3.39297e-05
0.00177123
0.00274913
-0.0003398
-0.00175768
4.77335e-06
0.00180893
-0.000408317
0.00797461
-0.0109222
0.000503224
1.91545e-06
0.0065636
8.20245e-06
-0.204985
0.0618767
0.019428
8.1594e-06
0.00282754
1.02016e-05
0.00215406
0.000117712
0.000104132
-8.72958e-05
0.073791
-0.138546
-0.00933488
0.000337996
0.0138241
0.00238686
-0.399631
-0.318318
0.000101967
-0.255071
0.0211363
1.17549e-05
0.00105499
-0.308999
0.000477569
1.90671e-07
0.00243004
0.00815692
0.0418289
0.735853
4.52532e-05
0.0199457
1.61926e-07
7.03774e-06
0.00249832
0.0193343
-8.59738e-08
0.0609843
-0.275044
0.0130691
-0.615991
0.00047938
-0.299452
0.0443714
4.08681e-06
0.000259519
4.61622e-06
-0.00699553
0.0372493
0.105004
9.5516e-05
0.000611531
5.78024e-06
-0.254645
0.00197925
0.00160059
-0.0505565
0.00747158
-0.301265
-0.372282
9.47509e-06
-0.0584216
3.21521e-07
1.764e-05
0.00103646
0.0264724
0.0103086
-0.000112619
0.000154956
-0.0390624
0.000702324
-0.00776208
-0.0982985
0.00131292
0.0893927
0.00274085
-3.28858e-07
-0.00683885
0.00239213
2.68826e-05
0.0124172
-0.975794
0.000900279
3.65294e-05
0.00821641
-0.0676994
6.76084e-06
4.3326e-05
1.05336e-06
4.01163e-06
3.32644e-06
-0.124285