/*--------------------------------*- C++ -*----------------------------------*\
| =========                 |                                                 |
| \\      /  F ield         | OpenFOAM: The Open Source CFD Toolbox           |
|  \\    /   O peration     | Version:  v2012                                 |
|   \\  /    A nd           | Website:  www.openfoam.com                      |
|    \\/     M anipulation  |                                                 |
\*---------------------------------------------------------------------------*/
FoamFile
{
    version     2.0;
    format      ascii;
    class       surfaceScalarField;
    location    "600";
    object      phi;
}
// * * * * * * * * * * * * * * * * * * * * * * * * * * * * * * * * * * * * * //

dimensions      [0 3 -1 0 0 0 0];
oriented        oriented;


internalField   nonuniform List<scalar> 
20642
(
-0.0312814
0.0375076
-0.00622587
0.289482
-0.0672032
-0.222288
-0.106802
0.0961025
0.0106961
-0.348529
0.137588
0.210918
0.374479
0.0262748
-0.400769
-0.0343104
0.323782
-0.222822
0.0250704
0.197735
-0.00791616
0.22153
-0.21362
-0.241472
0.220335
0.0211258
0.00360434
0.000802285
-0.239203
0.231279
0.229801
0.13118
-0.361012
0.597485
-0.597565
0.261021
-0.006257
-0.254768
0.295845
0.0329629
-0.328824
-0.03723
0.00594849
0.598826
-0.604234
0.00537078
0.0552401
-0.265213
0.209965
-0.0274329
-0.083522
0.110949
-0.00469526
0.0383345
-0.0336392
-0.081363
-0.188191
0.269544
0.629995
-0.368557
-0.261468
0.200856
-0.14283
-0.0580333
0.338289
0.291672
-0.0495328
-0.185443
0.234957
0.0658099
-0.258501
0.192681
0.0236533
-0.198974
0.17532
0.00360497
0.0946051
-0.279326
0.184712
-0.7054
0.413128
0.292271
0.00287728
0.000728083
0.0267263
-0.10651
0.079777
0.0417308
0.253355
-0.295109
-0.00274307
0.0441821
-0.0414395
-0.667887
0.495427
0.172427
0.358554
-0.137029
0.264633
-0.358074
0.0934219
0.620754
-0.101237
-0.519627
-0.0252955
-0.19754
0.228846
-0.00527163
-0.223585
-0.783283
0.611646
0.171613
0.43078
0.125778
-0.556577
-0.136352
0.248489
-0.112147
0.127344
-0.107798
-0.0195499
0.0187477
0.108591
0.182316
-0.0804793
-0.101838
0.222958
-0.304335
-0.00148831
-0.0226127
0.0241027
0.339154
-0.266812
-0.0723443
-0.405324
-0.262589
0.345891
-0.116119
-0.15338
0.0458197
0.107556
0.0244094
-0.000605786
-0.0238036
-0.311053
-0.0878385
0.398858
0.0107551
0.360714
-0.371503
-0.0813635
-0.0720191
0.00287888
0.163935
0.0369122
-0.142366
0.573126
0.0590795
0.123235
-0.027569
0.074729
-0.0471582
0.549599
-0.51946
-0.0301561
0.482035
-0.628867
0.146829
-0.259655
0.210102
-0.0811742
0.0790157
0.00215651
0.129899
0.466831
-0.596731
-0.277444
0.0832444
0.194191
0.16194
0.196609
-0.18397
-0.00285486
0.0304609
-0.0276064
-0.116017
0.0783316
0.0376828
0.0284234
-0.0311669
-0.25435
-0.143497
0.397816
0.409271
-0.551662
0.0757949
-0.263996
-0.0509808
-0.180533
0.231493
0.419944
-0.110928
-0.30903
-0.152442
0.56169
-0.256446
0.205442
0.231807
-0.190094
-0.375747
0.4354
-0.0596827
-0.619113
0.590695
0.0283665
-0.417613
0.163237
0.0136001
0.0720008
-0.0856032
-0.229171
-0.301834
0.530912
-0.00885498
-0.210746
0.219596
-0.0909293
0.117646
-0.638864
0.604189
0.034565
-0.0261906
0.255026
0.494468
0.104325
-0.596561
0.417839
0.178689
0.112932
0.262244
0.0769075
-0.622496
0.19848
0.42398
-0.407638
0.284874
0.122736
-0.182847
-0.0177363
-0.181928
0.199661
0.597946
-0.598328
0.000313535
-0.138585
-0.500365
-0.15798
-0.0887299
0.246705
0.540263
-0.545182
0.00490701
0.556398
-0.0161442
-0.00142852
-0.374343
0.526007
-0.601338
0.0752684
0.000415764
0.419508
-0.0821239
0.082686
-0.000562948
0.0543827
-0.0662481
0.0118659
0.437706
0.111875
0.551544
-0.425782
0.181195
-0.157543
0.531914
0.0720884
-0.00361922
0.0478004
-0.107007
-0.172328
-0.0729334
-0.00824331
0.382777
-0.179758
-0.203036
0.101007
-0.128445
0.432017
0.166271
-0.598315
0.105949
-0.0912982
-0.0146551
-0.465114
0.275311
0.189788
-0.0975692
-0.521592
0.15945
-0.587742
0.428268
0.261684
-0.178447
-0.133895
0.137836
-0.00394523
-0.0301692
-0.00173509
0.0319039
0.0547078
-0.0411093
0.0736248
-0.266541
0.192898
0.255572
-0.179788
-0.43133
0.553618
-0.122327
-0.0976224
-0.0362775
-0.0540481
0.154798
-0.10076
0.190976
-0.0590261
-0.131951
-0.00972091
-0.0500982
0.0598191
0.166327
0.216433
-0.0648722
0.121522
-0.056657
0.0203522
0.160841
0.0150592
-0.0812793
0.0662211
0.0309572
-0.0301132
-0.000844251
0.05096
-0.244426
0.193455
0.620638
0.23838
0.0359748
-0.274357
-0.570447
0.417983
-0.0700159
-0.0121095
-0.54072
0.259343
0.281335
-0.149958
-0.232783
0.382715
-0.415408
0.599559
-0.184167
-0.0556646
-0.0603551
-0.0459445
0.0319866
-0.0230411
-0.00894374
-0.455005
0.143914
-0.195618
-0.0280423
0.223649
0.582655
-0.713985
0.131318
0.247393
-0.397377
-0.167849
0.15011
-0.127796
-0.335987
0.463758
0.55046
-0.0245121
0.0451059
-0.0557634
0.0106571
-0.630357
0.622865
0.00746609
0.5856
-0.153606
-0.172167
-0.331551
0.503647
0.106474
-0.0724873
-0.0339864
0.0605344
-0.303244
0.242691
0.305387
0.0810152
-0.0657248
-0.015289
0.0213073
-0.19915
0.177839
0.0244091
-0.0306218
-0.00765832
0.0382817
-0.3874
-0.22996
0.617359
0.239951
-0.189002
0.0684696
0.301516
-0.370019
0.0720204
-0.0604031
-0.011618
-0.0677047
-0.0528269
-0.0494896
0.102318
0.188136
-0.0979733
-0.0901679
0.615433
-0.109068
-0.506381
-0.144497
-0.204053
-0.152804
0.0187508
0.13405
-0.190425
0.136366
-0.228284
0.288802
-0.165236
-0.0816654
0.246889
0.406723
0.25002
0.0958478
0.148935
-0.0694272
-0.0795094
0.103736
0.00220887
0.166056
0.0249172
-0.101286
0.351278
0.0453839
0.103548
-0.398304
-0.307098
0.219475
-0.228336
0.139386
0.0487446
0.127739
-0.108996
0.00919271
-0.113869
0.104673
-0.0358885
0.00315781
0.03273
-0.275022
-0.347501
0.0340285
-0.00335211
-0.0306768
-0.268773
0.105107
0.163651
0.054555
-0.0642763
0.509443
-0.0140494
0.359277
-0.4871
0.278246
-0.235004
-0.0432551
0.0264838
-0.0303067
0.00382264
0.0324648
-0.00150782
-0.0814322
-0.232205
0.313618
0.194276
-0.0325848
-0.161692
-0.261979
0.297576
-0.0356078
-0.221819
-0.41102
-0.106987
0.307446
0.127924
-0.435391
-0.112121
0.547463
-0.0553118
0.335517
-0.280216
0.264461
-0.319783
0.00937529
0.0520262
-0.116903
-0.178625
-0.0793387
0.0704348
0.00890271
0.635758
-0.251588
-0.384285
0.746543
-0.428078
-0.318487
0.352105
0.394416
-0.0339127
-0.0205737
-0.104448
0.125018
-0.142999
0.0393056
0.103692
0.369621
0.179574
-0.549253
0.569207
-0.087175
-0.149049
0.1694
0.0334227
0.133183
0.329739
-0.462945
-0.382626
0.515784
-0.320904
-0.462397
0.751567
-0.399483
0.319156
0.43239
-0.0147214
0.0431443
-0.0484518
0.0463315
0.00212175
0.0810388
0.299098
-0.380162
0.490202
0.0924246
-0.582628
-0.115609
0.147935
-0.0323334
-0.0368486
0.00215681
0.0346919
0.0130784
-0.526401
0.513296
0.526114
-0.156558
0.18117
0.0131051
0.0788166
-0.0676717
-0.0111458
-0.0900035
-0.0636902
-0.0156493
-0.151772
0.131876
0.0198922
-0.33889
-0.201867
-0.066376
0.0587192
-0.160882
0.045268
-0.247277
0.140262
0.0106569
0.111752
-0.122417
0.230956
-0.312408
-0.0390754
-0.46704
0.219451
0.247574
0.0588531
0.0936299
-0.15249
-0.0465708
-0.131361
0.177924
-0.0207227
-0.333659
0.354352
0.611626
-0.186048
-0.333653
-0.101312
0.434947
0.390521
-0.564083
0.173535
-0.00406286
0.035131
-0.0310684
0.0957517
-0.229107
0.133353
0.163606
-0.579641
0.416004
-0.686005
0.303353
-0.45781
0.121799
-0.291504
-0.394526
-0.191745
0.0619714
0.53543
-0.0183008
-0.161997
0.180288
0.594685
-0.431102
0.00279918
0.028515
0.0577879
-0.00340477
0.0761516
-0.400028
0.323832
0.31485
0.107886
-0.422755
-0.169697
0.133289
0.0364072
-0.764783
0.314817
0.449949
0.271574
-0.103243
-0.168335
0.0334435
-0.0375066
-0.354539
-0.410261
0.0287741
-0.031629
0.579477
-0.188984
0.00969525
0.0967783
0.618335
-0.00291943
-0.301476
0.379135
-0.0776761
0.27562
-0.296365
-0.334317
0.51726
-0.182992
0.107113
-0.00486887
-0.102249
0.550314
-0.590923
0.0405137
0.188024
-0.16672
-0.273268
0.0891993
0.184057
-0.561034
0.14561
-0.212784
0.203908
0.00887487
0.0298527
-0.451266
0.464321
0.159373
-0.0212801
-0.138101
-0.34295
0.453264
-0.110334
-0.351014
0.152739
0.198258
0.478921
-0.104459
-0.0719199
-0.184546
-0.601496
0.203016
0.398448
0.0485745
0.501644
0.160803
-0.00833846
-0.152468
-0.517216
0.172509
0.344698
-0.12981
0.188654
-0.244887
0.172948
-0.362426
-0.16855
0.530917
0.0579626
-0.0128567
0.0322178
-0.00573464
-0.433264
0.555876
-0.122649
-0.676399
0.200023
0.476369
-0.184703
-0.310898
0.416708
-0.105817
0.0977456
0.0114711
-0.10922
0.0295197
-0.0629807
0.0334606
-0.0918524
0.0390263
0.521715
-0.610544
0.0888282
-0.207686
0.148657
-0.107299
0.422131
-0.0104425
0.0824408
0.127002
-0.437907
-0.0712037
-0.0356018
-0.205331
-0.392296
-0.0466262
0.342456
-0.0178056
0.509363
-0.155573
-0.353816
-0.247221
0.180009
0.0178
0.109934
-0.50163
0.584487
-0.0828955
0.0211996
0.0508203
-0.358445
-0.25166
0.610001
0.130673
0.0255252
-0.671473
0.465664
0.205796
0.0209881
-0.0256835
-0.400811
0.56097
-0.160218
-0.00523835
0.154159
-0.148928
-0.0229183
-0.239072
0.676614
-0.1549
0.193004
-0.694674
0.124166
-0.114277
-0.00989493
-0.068008
-0.0075348
0.0755423
-0.482995
0.191021
0.291944
0.177753
0.331584
-0.0478107
0.0441906
-0.06124
0.0770814
-0.0158411
0.143825
-0.0708149
-0.0730095
-0.0207142
0.281732
-0.72595
0.371391
0.0952664
0.297219
-0.392511
0.0779468
-0.0679191
-0.0100283
-0.103708
-0.103979
-0.340345
-0.385626
0.135949
-0.185477
-0.190408
0.375859
-0.0135033
0.21533
-0.201834
-0.135056
0.0197193
-0.129862
0.110139
0.00310542
0.156694
-0.159804
0.0643069
0.207262
-0.141579
0.153251
-0.0116787
0.0390945
0.000803447
-0.0398989
0.0957045
-0.527073
-0.275263
-0.207763
0.29682
-0.270555
0.121735
-0.0916829
-0.030055
0.630389
-0.0569385
-0.573481
0.00161919
-0.142162
0.000572918
-0.328298
0.0104023
0.289739
-0.279014
0.181922
-0.0325938
-0.149332
-0.476242
-0.200162
-0.321906
0.251357
0.0705453
0.552728
-0.42136
-0.13138
-0.0976169
-0.110618
0.262331
-0.28526
0.361374
-0.285263
-0.0935184
0.084209
0.00930704
-0.447279
0.651723
-0.204455
0.0694501
0.0115663
-0.0952583
0.121836
0.430879
-0.0596648
-0.481581
0.210205
0.271354
0.343505
0.232129
-0.575637
0.128998
-0.560682
0.431649
0.0403224
-0.00198791
-0.132986
0.476487
-0.00046577
0.224366
-0.223918
0.00758993
-0.15664
0.238676
-0.242642
0.00396061
0.0977361
-0.33845
0.240691
-0.106075
0.0229872
0.083089
0.0101739
0.075725
0.235502
0.0512458
-0.286768
0.00833743
0.098772
-0.304576
-0.083742
0.38829
0.206546
0.0321252
-0.00138024
0.0974788
-0.497109
-0.19633
0.0243954
0.17192
-0.0894764
-0.155427
-0.113243
-0.448744
0.561931
0.126383
0.334008
-0.460458
0.214607
-0.58876
0.374113
-0.0327391
-0.166414
0.449967
-0.126522
-0.323467
-0.570766
0.440889
0.129842
0.364509
-0.476056
0.11151
-0.137632
-0.0259009
0.163524
-0.31519
0.124299
0.190885
-0.782695
0.335843
0.446837
-0.689875
0.302473
0.103958
-0.00621634
0.00104081
0.180877
-0.49139
0.157031
-0.270031
0.269542
0.119486
-0.100417
-0.0190688
-0.204926
0.217755
-0.0128313
-0.42795
0.557848
0.039345
-0.122872
0.06757
-0.0780147
0.280988
-0.532863
0.251856
0.343906
-0.726361
0.382438
-0.0697752
-0.207147
0.27691
-0.343838
0.470151
-0.438804
-0.252644
-0.372852
-0.353524
0.532676
-0.251706
-0.056993
0.0511288
0.00586545
0.0838451
-0.388448
-0.0307698
0.204969
-0.174208
-0.00466362
0.0331786
-0.0156218
0.174986
-0.55155
0.11611
0.394228
-0.146862
-0.0152516
-0.0908231
0.211429
0.0668032
-0.0324791
0.00230988
-0.731753
0.27664
0.455099
0.527693
-0.208257
-0.319475
-0.619699
0.172409
0.681352
-0.362218
0.321942
-0.0573279
-0.479997
0.189803
0.290171
-0.00661519
0.126102
-0.465049
0.580003
-0.114967
0.00879952
0.189813
0.337838
0.0069889
-0.135839
0.12884
-0.43781
0.606421
-0.168621
-0.0918008
0.399221
-0.125894
-0.0258824
0.10478
0.0390456
0.16983
-0.355331
-0.156345
0.140683
0.0156611
0.355348
0.204235
-0.55963
-0.63306
0.199805
0.433165
0.475282
-0.110806
-0.295861
-0.185742
0.435386
-0.556812
0.121375
0.440112
-0.620456
0.180235
0.00786453
-0.077058
0.575434
-0.140098
-0.166972
-0.0458143
-0.0147088
-0.0860298
0.100735
0.362014
0.208876
-0.570952
0.152398
0.0231936
-0.1756
0.119641
0.00579002
0.0589691
0.0104438
-0.0694119
-0.211004
0.189173
0.0218191
0.0214452
-0.245749
-0.217208
0.462954
-0.490319
0.244568
-0.269812
-0.143713
0.144427
-0.582249
0.328671
0.00309998
0.0991547
-0.102256
-0.426871
-0.16972
0.301607
-0.389479
-0.216642
0.204533
-0.174118
-0.0304289
-0.0817989
0.251503
-0.169714
-0.0743789
-0.0272516
0.101627
0.128606
-0.015895
-0.112718
0.0732333
0.385199
-0.458444
0.422953
-0.315084
-0.0605751
-0.204644
-0.0110174
-0.167857
0.178867
0.111241
0.338704
-0.179288
0.17303
0.0821535
-0.159531
0.0773675
-0.0917419
-0.181538
0.0121391
-0.0848105
0.0726725
-0.48092
0.139149
-0.150173
0.132251
-0.113503
0.14229
0.329376
-0.471736
-0.0520742
0.0488802
0.00319386
-0.274842
-0.358292
0.405508
0.275825
0.026013
-0.163653
-0.31727
-0.414496
0.506999
0.128645
0.162522
-0.00172387
0.0103072
0.0423445
-0.110952
-0.0237629
0.134714
0.307714
-0.47995
0.277338
-0.0795426
-0.197812
0.108693
0.391439
-0.500144
0.124494
-0.110671
-0.0138233
-0.13098
0.137784
-0.00680442
0.258054
-0.400959
0.14288
-0.0943269
0.150766
0.326407
-0.477238
-0.00493326
0.154372
-0.149447
0.393786
-0.304504
-0.089285
-0.545277
0.417149
0.128093
0.0807151
0.549641
0.461399
-0.102149
0.375537
-0.488832
0.453479
-0.440225
-0.0132675
-0.197573
0.169867
0.0276944
0.610809
0.0133233
0.115277
-0.345367
0.487585
0.392582
0.0247013
-0.41732
0.162975
-0.252468
-0.0014976
0.047207
-0.0457102
-0.514331
-0.0217331
0.536027
0.262785
-0.193293
-0.0695077
-0.159582
-0.404527
0.154838
-0.147861
0.0447231
-0.178331
0.133601
-0.1766
-0.0792844
0.255878
-0.14455
-0.190723
-0.163093
-0.168926
0.331998
0.2011
-0.00942295
0.0639777
-0.0451402
-0.0118513
0.0316976
-0.0363613
-0.444996
0.567553
-0.122596
-0.363737
0.476885
-0.113183
-0.373377
0.446602
0.413319
-0.131947
-0.281408
0.0844333
-0.0156341
-0.0688017
0.668509
-0.353708
-0.253111
0.341982
-0.0888731
-0.0632404
-0.205549
0.00171153
-0.066467
0.0647544
-0.191977
0.0832441
0.00268107
-0.00139625
-0.00128381
0.435055
0.140327
0.145305
-0.0811803
-0.0641288
0.531203
0.066675
0.134621
-0.590717
0.456077
-0.0420348
0.0437458
-0.76619
0.448905
-0.0549374
-0.0280408
0.0829759
0.63161
-0.575768
-0.0558474
0.494476
-0.132524
0.111511
0.0326577
-0.10704
-0.0135001
0.466965
0.439068
-0.524891
0.085799
0.00602128
0.0988679
-0.104894
0.143746
0.00864384
0.419965
-0.282911
0.0170791
-0.0727464
-0.0684596
0.0486674
0.0197919
-0.0235002
0.0824701
-0.532137
0.0177714
0.0393857
-0.0260162
-0.0133692
0.60344
-0.494448
-0.108998
-0.0633126
-0.017965
-0.349328
0.303379
0.550903
-0.416299
0.632958
-0.195792
-0.437172
0.321094
0.235295
-0.08645
0.168594
-0.240974
0.159293
-0.430362
-0.214038
-0.384345
-0.758524
0.290011
0.468424
0.0836125
-0.0665366
-0.420749
0.431851
-0.0111497
-0.00397204
0.114324
-0.110357
-0.101242
0.402817
0.535304
-0.0962609
-0.50401
-0.126371
0.0393808
-0.119862
-0.0685577
-0.0331926
0.10175
-0.0120113
0.0146936
0.135005
-0.124356
-0.159622
-0.037962
0.00618237
0.0855891
-0.0917738
-0.00532531
-0.0315232
0.549487
-0.420523
-0.0923012
-0.0262042
0.118505
-0.446603
-0.312001
-0.0933731
-0.0144024
0.107773
0.122599
0.290687
-0.0174513
-0.0760699
-0.125368
0.500853
-0.200548
-0.239692
-0.362232
0.12943
0.123718
-0.167251
0.179227
-0.0119857
-0.0871767
0.0737486
0.0134266
-0.641126
0.0910524
0.550036
0.155508
-0.173819
0.0957192
0.347695
-0.443444
0.492881
-0.171796
-0.00179654
0.0408899
-0.226186
0.208875
0.017307
-0.047928
-0.368435
0.416338
-0.104443
0.124158
0.163641
0.572987
-0.442987
-0.13002
-0.0148092
0.597455
0.0427101
-0.0445078
-0.0736626
-0.347145
0.119592
0.389643
0.278851
-0.409313
0.361362
0.0877983
0.0339333
-0.398317
-0.315678
0.129932
-0.022189
-0.107748
-0.591964
0.56141
0.0305007
-0.599822
0.457715
0.14204
0.0114178
-0.0949099
0.401936
0.020696
-0.00094381
-0.0197522
0.0196753
-0.0746144
-0.233841
0.305191
-0.0713556
0.110399
0.0218499
0.552912
-0.117909
0.290784
-0.257834
-0.0392203
0.0377219
0.0371523
0.0367565
-0.0739102
-0.27668
0.206892
-0.161469
-0.19662
-0.396164
0.195597
-0.214712
-0.377295
0.567034
-0.321138
-0.245931
0.529271
-0.440443
0.0307127
-0.153705
0.122986
0.188207
0.0290919
-0.217313
-0.060349
0.0724895
0.0193951
-0.186658
-0.315051
0.230684
0.0843621
-0.135674
0.00469374
-0.283924
-0.233301
0.00813368
0.15643
-0.164572
-0.0162574
-0.0976157
0.0309311
-0.403045
0.535452
-0.31138
-0.224085
-0.0831646
0.612436
-0.221288
-0.378598
-0.449375
0.351769
0.514864
0.107976
0.472095
-0.363412
0.408141
-0.595062
0.186816
0.0178811
0.0215048
0.172649
-0.0378055
-0.134853
-0.640294
0.462373
0.177848
0.122879
-0.105084
-0.235364
-0.405791
0.0600571
-0.0305375
0.16352
0.415931
0.135322
0.418259
-0.0382186
0.0485255
-0.172577
0.0607088
0.111862
0.314959
-0.447069
-0.211926
-0.119638
0.331543
-0.632783
0.191676
0.441099
-0.555885
0.426086
0.129763
0.17959
0.0904506
-0.270054
0.174185
-0.0103205
-0.163871
-0.376622
0.501553
-0.124975
-0.00239001
0.0275266
-0.0251364
-0.081752
0.216416
-0.134676
-0.307985
0.405944
-0.0979621
0.446009
-0.131051
0.238238
0.297202
-0.0431323
-0.0253275
0.0832565
0.194066
-0.66191
0.271937
0.389916
-0.313622
-0.00567006
0.0391133
-0.103362
0.23062
-0.125528
-0.0242662
-0.00821302
-0.355532
0.101355
0.254174
-0.564818
0.163945
0.122978
-0.55628
0.242868
0.0790553
0.00907365
-0.472208
0.13612
0.336086
0.0172212
-0.10381
0.283383
0.192781
0.0699897
0.0173149
-0.428727
0.321408
-0.109931
-0.0199356
0.149819
0.0228208
0.391333
-0.106487
0.273015
-0.0412212
-0.370799
-0.291167
0.201349
-0.0271764
0.321624
0.0673874
-0.332063
0.118927
0.213118
0.113425
0.371882
-0.48532
0.0250346
0.00252224
-0.0275566
0.511488
0.0850287
-0.596518
-0.250305
-0.10523
-0.374136
0.212648
0.0562328
0.236454
-0.292698
0.049516
0.165456
-0.214985
-0.0361089
0.0732597
0.506269
0.084377
0.00566913
-0.117233
0.111558
-0.096586
0.0280274
0.28891
0.272687
-0.561597
-0.133778
-0.292088
0.42583
-0.179339
0.516454
-0.108417
0.101993
0.265979
-0.36801
-0.40411
0.199016
0.20507
0.381995
-0.0917143
-0.290293
0.141361
-0.0800538
0.119432
0.0199976
-0.408549
0.562929
-0.154428
-0.00933197
0.0763135
-0.0669828
0.0660791
0.154245
0.203103
0.0014202
-0.120704
0.3861
-0.290858
0.0737175
0.0715824
-0.00215384
-0.179776
0.410756
0.132224
-0.543011
-0.125875
-0.0467077
-0.133317
0.16692
-0.0336076
0.15306
-0.00324961
0.555371
-0.391807
-0.163598
0.419884
-0.532056
0.341013
0.225992
0.000153884
-0.0944671
0.347796
-0.608719
0.39677
0.211926
0.158299
-0.0276355
-0.526504
0.149839
-0.566615
0.427472
0.139101
0.0178651
-0.0992318
0.185868
-0.285807
0.383512
-0.0977161
0.0269119
-0.231839
0.211284
-0.224796
0.0731197
-0.290944
-0.113182
-0.303699
0.192756
0.0090378
-0.0952744
0.0862339
0.424358
0.126528
-0.579796
0.145202
0.434582
-0.384716
-0.30999
0.537501
-0.543851
0.0063087
0.241539
-0.341226
0.0996645
-0.301838
0.196671
0.105151
0.0604256
-0.237032
0.388217
0.167121
0.627694
-0.188914
-0.438783
-0.359074
-0.120389
0.479436
-0.349748
0.000417409
-0.149786
-0.159725
-0.0512904
-0.394844
0.127785
-0.0160378
-0.348118
-0.0849769
0.0981848
-0.0132079
0.0806805
-0.366498
-0.488556
0.103809
-0.0152042
-0.0477767
0.279117
-0.0925113
-0.186622
0.0317788
0.0933022
0.167882
-0.349283
-0.00750897
0.356784
0.113686
0.317753
-0.431459
0.552311
-0.425881
-0.126468
-0.415997
0.282184
0.0293641
-0.0546412
0.0252767
-0.176482
0.197137
-0.0206691
0.0757356
-0.309583
0.197886
0.0198679
-0.295912
0.397865
0.0179613
0.135091
0.686455
-0.196254
-0.425358
0.49842
-0.0730786
-0.408936
0.109486
0.299446
0.498047
-0.405624
-0.0152456
0.259979
-0.0948712
-0.165123
-0.0223948
-0.326893
0.112475
-0.0114741
-0.0697962
-0.325096
0.394885
0.304715
-0.528662
0.223914
0.331303
-0.528425
0.19708
0.158434
-0.155333
0.144313
-0.300526
0.407381
-0.106886
0.0717538
0.227814
-0.299588
-0.363888
0.495544
-0.13169
0.0161293
0.505348
-0.200659
-0.0549513
-0.190655
0.245602
0.280849
0.110458
0.0335164
-0.00221435
-0.0313025
-0.0328039
-0.410128
0.248897
0.161225
0.0102745
-0.127369
-0.0289764
-0.00371363
0.0873714
0.329329
-0.42087
0.569641
-0.148834
0.553542
-0.462617
-0.0909431
-0.0988145
0.376234
-0.277454
-0.0695459
-0.243339
0.312865
0.458417
0.0248553
-0.504123
0.36168
0.142402
-0.193187
-0.122007
0.0982999
0.0104353
-0.0801098
0.0696721
0.226681
-0.321171
-0.0280948
-0.15033
0.178416
-0.163218
-0.0141245
0.177338
-0.55502
0.423481
0.131504
-0.189007
0.183726
0.25909
0.0200124
0.558914
-0.16599
-0.392943
-0.00426922
-0.177373
0.181628
0.186234
0.465478
-0.00881714
0.061707
0.143261
-0.112555
-0.615012
0.160054
0.454954
0.143196
0.412643
0.232332
0.231117
-0.526206
0.370603
-0.464033
0.104931
-0.015359
-0.405943
0.563973
-0.158093
-0.0483496
0.366893
-0.492312
-0.213599
0.495953
-0.282355
-0.405251
0.127499
0.277735
0.100139
0.33496
-0.435143
-0.0755147
-0.373035
-0.146436
0.153913
-0.559922
0.330143
-0.089202
0.299069
0.0176147
-0.316703
0.00174335
-0.562862
0.422733
0.140083
0.198351
0.22792
-0.687724
0.459794
-0.355187
-0.108872
-0.0309453
0.0317474
0.494472
-0.16321
-0.14907
0.28664
-0.000712415
0.123585
-0.0371721
0.680235
-0.452323
-0.417136
0.323343
0.0937863
0.098117
-0.0890819
0.571976
-0.429461
-0.142531
0.0812393
0.304968
-0.386229
0.112963
0.078003
-0.161567
-0.305483
0.467022
-0.0898359
0.0958527
0.289126
-0.346538
0.0573894
-0.0398394
-0.0122349
0.28719
0.0919311
0.131923
0.0128763
-0.1448
-0.356191
-0.474509
-0.120929
0.595426
-0.59133
0.458341
-0.0978861
0.537882
0.677074
-0.165588
0.0582845
-0.0677078
-0.0852102
0.324839
-0.23965
-0.612361
0.234478
0.377824
0.305753
-0.397081
0.0913222
0.150603
0.11567
0.437852
-0.108988
0.302406
-0.0669228
0.0114976
-0.205165
0.174387
-0.115774
-0.00197755
0.117748
0.102058
0.228804
-0.0360387
-0.00745679
0.042302
-0.0348452
-0.376269
0.113284
0.26296
-0.117628
-0.249024
0.412461
-0.163473
-0.0337305
0.00526738
0.0284631
-0.43081
0.202101
0.113329
-0.315446
-0.228486
-0.459248
-0.192087
-0.369228
0.561296
-0.653067
0.424571
0.617696
-0.176601
-0.441114
0.575141
-0.456377
-0.118786
0.124502
0.296635
-0.421173
-0.172139
-0.0288634
0.200991
0.554358
-0.143633
0.244569
-0.329801
-0.0104162
-0.113513
0.123924
-0.033542
0.0809688
-0.0474253
-0.0848537
-0.000122968
0.125261
-0.125979
-0.224717
-0.421955
-0.169378
0.475666
-0.339903
-0.135817
-0.0109468
-0.0843305
0.303435
0.0903469
0.0206963
0.150693
-0.432523
0.281813
0.143038
-0.00747301
0.511224
-0.50384
-0.303827
0.411833
-0.108037
-0.290503
0.441179
-0.436942
-0.182767
-0.372953
-0.131587
0.504488
-0.149317
0.157443
-0.240787
-0.371633
0.0298579
-0.0300786
0.000221419
0.432749
-0.378148
0.526518
-0.148423
-0.0333707
0.0627343
-0.420186
0.171129
-0.28531
-0.303481
-0.0821711
0.519862
-0.00164343
0.044352
-0.0554368
0.194579
-0.209149
0.59684
-0.38771
-0.120972
-0.479297
-0.143273
0.622532
0.536557
-0.0145073
0.0737058
-0.0591997
0.110351
-0.00343413
-0.22307
0.226503
0.182626
-0.331716
-0.368951
0.346549
-0.196256
0.599434
-0.462958
-0.136492
-0.0660255
-0.168988
0.334815
-0.40462
0.0656927
-0.228801
0.0364191
-0.0417445
0.313813
-0.43329
0.119465
-0.435209
0.333895
0.367762
-0.28654
-0.509585
0.354096
0.155468
-0.136978
0.00298624
-0.103571
0.100581
0.0242457
0.136609
0.222811
-0.0346169
-0.0417188
0.0360487
0.0357153
-0.00585659
-0.0861655
0.420971
-0.0993277
0.102309
-0.435173
-0.144497
0.00474435
0.034826
-0.0395704
-0.469844
-0.117915
0.0993732
0.0175325
-0.116905
-0.136302
0.0078416
-0.204183
-0.284418
0.30329
-0.0188891
-0.157691
0.112871
0.0448209
0.0101009
-0.076508
0.0664064
-0.668012
0.237459
0.430546
0.188058
-0.35045
-0.466843
-0.309968
-0.194193
0.163255
0.378796
-0.0979732
-0.074203
0.363305
-0.147893
-0.0180377
0.165929
-0.0271526
-0.00148545
0.0286375
0.129571
0.190036
-0.0363136
0.00479027
0.532966
0.0986388
-0.184706
0.479385
-0.294694
-0.310565
0.060592
-0.0660884
0.00549621
0.218476
-0.288041
0.0200159
0.583418
-0.134219
0.159279
-0.259355
-0.137526
0.396853
-0.409991
0.269907
0.112076
0.0566941
0.178764
-0.235472
0.301456
-0.400308
-0.0486575
-0.441567
-0.226452
0.448359
0.145194
-0.593562
-0.105505
-0.107523
0.421325
-0.0345283
0.00248317
0.0320451
-0.326985
0.115039
-0.101115
0.327772
-0.45644
0.584315
-0.127881
0.0349042
-0.425681
0.657807
0.15671
-0.289747
0.0825869
-0.193117
-0.116227
0.30933
0.215879
-0.0332659
0.459601
0.220626
0.0829335
0.474667
-0.361257
-0.48051
0.129882
0.350602
0.0119447
-0.125137
0.113185
-0.43682
-0.0119633
0.563313
-0.274403
-0.100985
-0.0267177
0.127696
0.0828228
-0.0975353
-0.0144987
-0.10274
-0.129153
0.0203165
0.108835
-0.157202
-0.315008
0.115255
-0.12187
0.0511921
0.00668458
-0.0578769
0.53025
0.0902779
-0.0898489
0.25405
-0.43877
-0.00723923
0.161604
0.135222
0.0127075
0.39154
-0.282058
-0.061093
0.224961
-0.163881
-0.417291
-0.173444
0.237292
-0.176293
-0.0610143
-0.190756
-0.248847
-0.0896238
-0.0671817
0.0901701
-0.155825
-0.0188611
0.174676
0.0289563
-0.162278
-0.101628
0.0868846
0.0147435
0.0880964
-0.00651722
0.103519
-0.0970055
-0.218804
-0.406331
0.102473
0.369793
0.0836856
-0.453492
0.597915
-0.149565
-0.613479
0.464488
0.14898
-0.410607
0.548489
-0.137929
-0.218739
-0.0672763
0.0773763
-0.595514
0.435891
0.159565
0.0773391
0.24748
-0.147688
-0.253558
-0.119609
-0.226002
0.345585
0.168883
-0.0121932
-0.133392
0.039963
0.0934244
-0.30278
0.103383
-0.548417
-0.221065
0.166108
0.0515985
-0.508042
-0.289502
0.255181
0.0383244
-0.0457813
-0.101525
-0.220834
0.322337
0.147399
0.313856
-0.461285
0.146293
-0.0115793
-0.445221
0.32259
-0.245271
0.0567245
-0.00553273
-0.029784
0.379891
-0.0939672
-0.285934
0.177615
-0.165679
-0.0119435
0.305314
-0.0848546
-0.220473
-0.029894
0.00562754
-0.0109317
0.219804
-0.234774
0.152966
-0.00789573
0.0862242
0.540092
-0.0640027
-0.0968845
-0.0570416
-0.0926819
-0.39632
0.30381
-0.309728
0.248369
0.0613559
0.534515
-0.00185666
-0.0835115
-0.0119706
0.519023
-0.507143
0.235889
-0.355529
-0.343885
0.0580538
0.279718
-0.145972
0.15973
-0.0137665
0.596896
-0.178655
-0.418281
0.113554
-0.0803784
0.251644
0.0507407
0.106629
0.0178646
0.167594
-0.443382
0.125049
0.318302
0.00386455
0.234655
0.120198
-0.35487
-0.0770679
0.314409
-0.237362
-0.49649
0.323313
0.173136
0.0052696
0.0326288
-0.0378984
-0.0108365
0.145834
-0.0418744
0.195401
-0.262084
0.0666721
0.041669
-0.0450814
0.150228
0.0166874
-0.17319
-0.260317
-0.149819
0.174772
-0.0192741
0.401011
-0.596809
0.400291
-0.300194
-0.139569
-0.00882858
0.148396
-0.230541
-0.182926
-0.181668
-0.0768435
-0.191885
0.248565
-0.309088
0.115957
-0.119171
0.131108
-0.0121242
0.144047
-0.470511
0.138904
-0.137982
0.153705
-0.0157256
-0.113318
-0.255642
0.299676
0.107674
-0.354745
0.487462
-0.132772
0.173274
0.426271
0.0774468
-0.0656345
-0.0118131
0.102396
-0.0962166
0.583597
-0.444286
-0.139349
0.153288
-0.639149
0.191123
0.448022
0.0834966
-0.4086
0.0289088
0.355439
-0.429667
-0.16315
-0.338573
0.501646
0.021051
0.513447
-0.277271
0.0342982
-0.498253
0.463843
0.316912
-0.0740621
0.0657396
0.0117064
0.106185
0.167784
-0.223812
0.0560175
0.450479
0.147426
-0.439131
0.00142462
0.123831
-0.00880368
0.0693954
0.0508668
-0.00919622
-0.124905
-0.50327
0.551751
0.339716
-0.502943
-0.0886009
0.333148
0.0550256
-0.457765
-0.15725
0.00566123
-0.065264
0.00638924
0.127079
-0.133476
-0.0907121
0.249992
-0.61834
0.181645
0.43669
0.294189
-0.0975337
-0.00893423
0.452297
-0.398531
-0.0537868
-0.202641
0.22264
-0.0200028
-0.427221
0.563086
-0.433798
-0.129323
-0.362614
0.219095
0.00394129
0.0464216
-0.0503638
-0.176032
0.150122
-0.14292
0.59339
-0.13127
0.150401
-0.0191338
-0.412724
-0.00789678
0.141184
-0.464191
0.212516
0.400752
0.164546
-0.565381
-0.0970191
-0.356646
0.0692792
0.382995
0.267672
0.112209
-0.100481
-0.0124776
0.112953
-0.184267
0.24133
-0.057074
-0.0891637
-0.205967
0.495315
0.0100032
0.12087
0.438887
0.108527
-0.541839
0.245884
-0.204603
0.0324524
0.172335
0.000472766
-0.172815
0.0250974
-0.0274873
-0.21232
0.191057
-0.195341
-0.144752
0.157525
-0.0127841
-0.0134411
0.163664
0.154444
0.413071
0.164786
0.0867052
0.127735
-0.024046
-0.0838249
0.0702864
0.0135365
0.051786
0.00600241
-0.11204
0.356265
-0.244247
0.293492
-0.511083
0.217564
-0.0284608
-0.629813
0.291174
-0.52966
0.103975
0.194197
0.077395
-0.271609
0.0159548
-0.347918
0.126479
0.221415
-0.430091
0.0759024
0.0168784
-0.0927828
0.203897
-0.154394
0.0911092
-0.349113
0.257984
-0.18239
0.413487
-0.00113494
0.134349
-0.133214
0.0747768
-0.0821213
0.00734176
-0.0322264
-0.00408732
0.363888
-0.484307
0.0970423
-0.423531
0.326454
-0.0583742
0.469448
0.116131
-0.506492
-0.0263886
-0.154289
0.17373
-0.0194446
0.10767
0.29827
-0.265581
0.0829436
0.182626
-0.195463
0.155656
0.039797
-0.312184
0.222997
0.0656987
-0.0732349
0.128721
0.363278
-0.492061
-0.115306
0.375053
-0.259762
-0.130828
-0.178273
-0.226103
0.519568
-0.0114637
-0.072363
0.110666
-0.472663
0.361936
0.560214
-0.171802
0.0239079
0.108203
-0.120248
0.0120394
-0.134362
0.154439
-0.0200773
-0.00958674
0.0855247
-0.075941
-0.15871
-0.272762
0.431412
0.102021
0.0830086
-0.18504
-0.36242
0.529434
0.053077
0.314668
-0.529042
0.521466
-0.18789
0.357694
0.0782385
-0.089704
0.0362738
0.319143
0.136402
-0.168743
0.443402
-0.0736243
-0.590257
0.438537
0.151708
0.134847
-0.461896
-0.144962
0.606852
-0.153002
-0.00585241
0.0375498
0.459578
-0.613146
0.153556
0.306415
0.110241
-0.120664
-0.54111
-0.118757
-0.0854365
-0.110035
-0.0719501
0.17396
0.289646
0.111611
-0.401289
-0.507545
-0.149533
-0.374849
0.524331
0.425643
0.137406
-0.522751
0.414055
0.108695
-0.23328
-0.123086
0.492787
-0.369715
0.331219
0.219189
0.0311942
-0.510525
-0.427771
-0.113443
0.541204
-0.0886071
0.276816
-0.188215
-0.177517
0.00327029
0.0671637
0.0106025
-0.156582
0.13171
-0.357998
0.527289
-0.169348
0.559866
-0.459188
-0.100709
0.146818
0.0129037
-0.586619
0.155124
0.431486
0.123084
-0.323107
-0.256699
-0.258675
-0.308531
-0.416994
0.160828
-0.361548
0.254896
0.106634
-0.107026
0.0738324
0.452557
0.144304
0.607921
-0.148354
0.245694
-0.0575898
-0.188118
-0.621466
0.162694
0.458768
0.632818
-0.186511
-0.446343
-0.0438702
0.314006
0.0977947
-0.329456
0.0113755
-0.165667
-0.147468
-0.00485963
0.169925
-0.0563855
0.221828
0.170776
-0.159404
-0.15122
-0.435407
-0.478871
0.540705