/*--------------------------------*- C++ -*----------------------------------*\
| =========                 |                                                 |
| \\      /  F ield         | OpenFOAM: The Open Source CFD Toolbox           |
|  \\    /   O peration     | Version:  v2012                                 |
|   \\  /    A nd           | Website:  www.openfoam.com                      |
|    \\/     M anipulation  |                                                 |
\*---------------------------------------------------------------------------*/
FoamFile
{
    version     2.0;
    format      ascii;
    class       volScalarField;
    location    "150";
    object      k;
}
// * * * * * * * * * * * * * * * * * * * * * * * * * * * * * * * * * * * * * //

dimensions      [0 2 -2 0 0 0 0];


internalField   nonuniform List<scalar> 
13917
(
0.0235918
0.000188387
0.017043
0.000154186
0.000167099
0.000186736
0.00016566
0.000225059
0.000161435
0.00163973
0.000222076
0.000152008
0.000170191
0.000280657
0.00017008
0.0191099
0.000156518
0.000213492
0.000207104
0.0169014
0.000181509
0.000152515
0.000183924
0.000152534
0.000159273
0.000184625
0.0117766
0.00103519
0.00019656
0.000145245
0.000874602
0.00018938
0.000154848
0.0393221
0.000149752
0.000235312
0.000162785
0.000154836
0.000165714
0.000185978
0.000158723
0.000161554
0.000158416
0.000200166
0.000200303
0.01425
0.0001793
0.0174249
0.000946018
0.000149896
0.000151815
0.000216225
0.010215
0.000152176
0.00015265
0.000213806
0.000396181
0.00018391
0.000161666
0.0138653
0.0413592
0.000173746
0.000140251
0.000158552
0.0575894
0.000179577
0.00020098
0.000234632
0.000217487
0.022008
0.0558477
0.0362623
0.000150585
0.000159063
0.000182888
0.000161397
0.000161637
0.000159199
0.000160617
0.000155233
0.000155739
0.000153786
0.000150413
0.0569013
0.000142447
0.000228504
0.000188692
0.000146713
0.000185475
0.000157056
0.000143709
0.000158702
0.00137318
0.000145713
0.000155592
0.000199996
0.000306717
0.000149629
0.000145812
0.000229669
0.000150737
0.000149493
0.00015599
0.000144288
0.000161278
0.0585209
0.0328082
0.000176122
0.000161632
0.0212863
0.000145575
0.0409807
0.000196039
0.0167476
0.0577695
0.000162804
0.000201686
0.000148264
0.00294447
0.000149374
0.000153335
0.00015199
0.000204558
0.000202641
0.023362
0.058181
0.000157809
0.00018491
0.000145949
0.000202395
0.000171196
0.000641926
0.0565517
0.000162722
0.000192601
0.0246807
0.044713
0.0237028
0.000187505
0.000154442
0.000194797
0.00015545
0.0578468
0.000146338
0.000150019
0.000229088
0.055598
0.00050567
0.016033
0.000152465
0.000182332
0.000146812
0.000149776
0.000149371
0.00398919
0.00015574
0.00014408
0.0550629
0.000158575
0.00015232
0.0001434
0.0512259
0.000168223
0.00148388
0.0344742
0.000226296
0.00749415
0.0292477
0.000132642
0.00018995
0.000153298
0.0561879
0.000161235
0.0419071
0.000201545
0.000153678
0.000154121
0.000196778
0.000170383
0.000169472
0.000158353
0.000152691
0.00015184
0.0101262
0.00456631
0.000433266
0.000151668
0.00968364
0.00014518
0.000227301
0.000202193
0.000198761
0.000130352
0.0234617
0.000145743
0.0238628
0.000166115
0.0580807
0.000149217
0.000154911
0.000175898
0.0219694
0.0201308
0.000161487
0.0139525
0.000184509
0.000182995
0.000154035
0.000196333
0.000155721
0.000141286
0.000170957
0.000172159
0.0172943
0.000191973
0.000186577
0.0521782
0.000153149
0.000142637
0.000142528
0.0269703
0.000990329
0.0211259
0.000143869
0.000141249
0.0328359
0.0204063
0.000140451
0.000139929
0.000158763
0.000143735
0.000143617
0.033994
0.0225214
0.000153687
0.000133756
0.000200299
0.0333163
0.000160608
0.000143822
0.0156444
0.0584621
0.00300894
0.0515242
0.000212274
0.000146413
0.0301857
0.00020121
0.000193327
0.00019493
0.000160634
0.0205746
0.000149633
0.000187318
0.00019857
0.000154276
0.000158283
0.000158403
0.000164971
0.000151266
0.0309554
0.000143924
0.000148724
0.000139426
0.000156361
0.000139474
0.000149628
0.000171125
0.00017962
0.000149899
0.0281928
0.0356711
0.000149898
0.000162512
0.0242098
0.000143653
0.000216612
0.0348929
0.000143745
0.027092
0.000150168
0.0516452
0.000153619
0.000166781
0.000154682
0.000145915
0.00046909
0.000150493
0.000138464
0.000171394
0.0017442
0.000235577
0.00482413
0.0231044
0.000152979
0.00018895
0.000165366
0.000163783
0.000166185
0.00016035
0.000146947
0.000148985
0.000203804
0.000200915
0.000186026
0.000159803
0.000143679
0.0561972
0.0184286
0.000144563
0.00017088
0.000163872
0.000202122
0.000200666
0.0387351
0.0419723
0.000182019
0.000106916
0.000161651
0.0554694
0.000207072
0.0141496
0.000169695
0.000169173
0.0109664
0.000154552
0.000191465
0.000198814
0.000158267
0.0566319
0.000142863
0.000176359
0.00015171
0.00655666
0.000139845
0.00018355
0.00018553
0.000182923
0.000156978
0.000194172
0.0565815
0.000154998
0.000154583
0.0441926
0.0570526
0.0484918
0.000281583
0.000142664
0.000153499
0.0589435
0.000186802
0.000142787
0.000166379
0.000151938
0.000199834
0.000184486
0.000218308
0.000213452
0.000216513
0.000176837
0.0345252
0.000146609
0.000155016
0.000168435
0.00501252
0.000160117
0.0205305
0.000176485
0.00297337
0.000152981
0.00023564
0.000172005
0.00154196
0.000176363
0.0195398
0.0230513
0.000188791
0.000150233
0.0479059
0.000155266
0.0341601
0.000584338
0.000180556
0.0015618
0.000156302
0.000347287
0.000140261
0.019723
0.000414894
0.000161114
0.0382394
0.00021202
0.000159264
0.0438628
0.00441241
0.000159561
0.000467824
0.000152867
0.000212694
0.0130879
0.000143099
0.000163759
0.000159578
0.000145424
0.000141291
0.000147425
0.0446766
0.00021524
0.000153932
0.000148251
0.000151381
0.000189571
0.000248126
0.000147283
0.000132885
0.000200872
0.000232091
0.000146472
0.000160606
0.0452371
0.0173695
0.000177681
0.000208627
0.0527831
0.000157911
0.000145934
0.000177515
0.000141147
0.000147377
0.000154109
0.000146068
0.000155965
0.0271994
0.000153222
0.000188581
0.0307133
0.000189115
0.000141586
0.000149548
0.0453411
0.000176087
0.0198591
0.000150158
0.000144636
0.000156254
0.000144957
0.000162357
0.000157005
0.0453266
0.00227915
0.0591516
0.000144585
0.000174854
0.00229796
0.000155338
0.000210925
0.0479382
0.000151663
0.0382826
0.000142121
0.000144258
0.00015098
0.000156364
0.000140622
0.000151358
0.0555311
0.0408715
0.000140365
0.00638762
0.000200789
0.000149588
0.000191594
0.000187799
0.0406673
0.000164938
0.0587197
0.00198521
0.00186009
0.000157055
0.000179475
0.0028954
0.000160063
0.048336
0.000145837
0.000151757
0.0001556
0.000162671
0.000180226
0.00101661
0.000186709
0.000170604
0.00016348
0.000210785
0.000197851
0.000153948
0.000928879
0.000178071
0.00017128
0.0361447
0.000142487
0.000199093
0.000360973
0.000140263
0.0496139
0.000145012
0.000144947
0.000190214
0.000150221
0.000152331
0.000208799
0.0545258
0.042497
0.000143207
0.000154648
0.000159591
0.0448004
0.0351669
0.000153289
0.000152448
0.000142822
0.00019585
0.0079075
0.000146864
0.000160252
0.000154389
0.000144931
0.000172452
0.000170262
0.000149321
0.000187389
0.000140261
0.000151716
0.000159069
0.0396097
0.000137623
0.000158844
0.000151182
0.000173846
0.000195326
0.000202775
0.000199826
0.00023564
0.000158287
0.000206258
0.0588157
0.0269243
0.0346128
0.000143336
0.000150575
0.000168558
0.000147471
0.0580407
0.000144967
0.0105197
0.000165957
0.0597787
0.000219553
0.000158537
0.00717529
0.000140254
0.000185841
0.000149656
0.000162107
0.0592735
0.000148678
0.00775715
0.000143411
0.000157664
0.000150993
0.000205053
0.000173425
0.000137977
0.000199759
0.000191131
0.000492103
0.0540007
0.0571852
0.0384011
0.000137663
0.0217114
0.000140039
0.0435676
0.000456391
0.000165887
0.000176025
0.00014959
0.000177635
0.000157761
0.000148786
0.000149288
0.000168683
0.0512551
0.000143945
0.000186901
0.000151476
0.000137714
0.000158624
0.00671563
0.0533474
0.0072867
0.000193668
0.000169854
0.0413159
0.0349079
0.000140739
0.0496246
0.000166636
0.00019363
0.000147527
0.0461591
0.000144538
0.000173235
0.000150218
0.000467344
0.000179377
0.0566917
0.00014892
0.00017837
0.000149446
0.000149634
0.036428
0.000233726
0.000151582
0.000192335
0.00014369
0.000157574
0.000146994
0.0399116
0.000143959
0.000165842
0.000144896
0.000150544
0.00453407
0.000147286
0.000214502
0.000152197
0.000140033
0.0426871
0.000187461
0.000152917
0.00993316
0.00505097
0.000231765
7.89608e-05
0.000140028
0.000171431
0.036119
0.0120971
0.000175485
0.0001628
0.000174752
0.000151665
0.000147325
0.000183277
0.000197647
0.000164483
0.0347501
0.000179694
0.000269792
0.0385665
0.000199868
0.000181105
0.000144125
0.0294196
0.000146988
0.000181229
0.000189313
0.00014015
0.000148791
0.000158688
0.000161266
0.000153578
0.0222211
0.00017196
0.000142187
0.000197336
0.000147078
0.0419385
0.000150155
0.000145923
0.0525982
0.000193364
0.00119272
0.000151231
0.000159916
0.000145359
0.000153173
0.000168133
0.000145864
0.0216043
0.000174856
0.00870185
0.0019151
0.000181127
0.0573496
0.00015477
0.000147735
0.000150165
0.0370049
0.0422548
0.000167034
0.0224349
0.00569077
0.000139982
0.0001452
0.000162468
0.0578985
0.00372942
0.000179997
0.000153036
0.000158919
0.000194116
0.000160668
0.000215828
0.000172388
0.000155247
0.00015542
0.00014776
0.000168074
0.000163957
0.0119535
0.000164925
0.000179406
0.0216857
0.000156223
0.00632744
0.000161777
0.000180848
0.000165148
0.00853685
0.000154178
0.000184324
0.0533927
0.000634082
0.000147794
0.000164984
0.000156943
0.000145416
0.00014994
0.000172197
0.00283689
0.00328108
0.000217825
0.000139702
0.0224059
0.000161403
0.000162881
0.000179578
0.000153995
0.000185871
0.000240379
0.0001371
0.000192987
0.000206926
0.000172156
0.00014409
0.000141011
0.000147211
0.0190098
0.000154653
0.000152278
0.000176235
0.000146383
0.000142375
0.000216972
0.000144816
0.000176764
0.0235038
0.000196986
0.059306
0.000149902
0.000162557
0.0381919
0.000165612
0.000189721
0.000156019
0.000147673
0.00015124
0.000166301
0.000204508
0.000144011
0.000185871
0.000153632
0.000309807
0.00016185
0.000164628
0.000151721
0.000195259
0.000167655
0.0498248
0.000177988
0.000159038
0.0385032
0.000155945
0.0291011
0.000157112
0.000185486
0.000159498
0.000142309
0.000147358
0.0564379
0.000168209
0.000239391
0.0189345
0.000145216
0.000172685
0.000133325
0.000171841
0.00695611
0.000134133
0.0296729
0.000158879
0.000186422
0.000201803
0.000193853
0.00014007
0.000146646
0.000216627
0.000139927
0.000151948
0.000158678
0.000150151
0.000176479
0.000139874
0.000217829
0.000155279
0.0226918
0.0285344
0.000185793
0.0596011
0.0378485
0.0198757
0.000205182
0.000139273
0.000155771
0.000149777
0.000156248
0.000142995
0.000168312
0.000145457
0.00024875
0.000152245
0.0465836
0.000154192
0.000168191
0.000213095
0.000144045
0.000188631
0.000155992
0.000163802
0.000165115
0.000155254
0.0578793
0.000199369
0.000178209
0.000144522
0.000145933
0.000153777
0.000154148
0.0362659
0.00013953
0.00022955
0.000144141
0.00272851
0.000165778
0.000146132
0.000185081
0.000174996
0.000139674
0.00150792
0.0497695
0.000162692
0.000194717
0.000139765
0.00023015
0.000159543
0.000154008
0.0307293
0.000148541
0.000154571
0.00019711
0.0285696
0.000161707
0.000185465
0.0435951
0.000170349
0.000158187
0.000150597
0.0506283
0.00014557
0.000201424
0.000151124
0.0506503
0.000166802
0.0408333
0.000148248
0.000145987
0.000667309
0.000157444
0.000156146
0.059803
0.000158608
0.000141348
0.00017957
0.000175942
0.000155641
0.000196882
0.00015915
0.057841
0.000186276
0.000188144
6.06126e-05
0.000158807
0.0507932
0.000156341
0.000194868
0.000145168
0.0316055
0.00264113
0.00015148
0.000159563
0.000158428
0.000153286
0.000157517
0.000153493
0.000148211
0.000146887
0.000171351
0.000137082
0.000157854
0.00019139
0.0324874
0.0490266
0.000195532
0.000153775
0.000762739
0.000144465
0.0357309
0.00756648
0.00671863
0.000144899
0.00013939
0.000147491
0.000151576
0.000144216
0.000156022
0.000144755
0.000182201
0.000141439
0.0101805
0.000182526
0.000142202
0.0574412
0.000145366
0.000147523
0.000176169
0.0415066
0.000201234
0.000153866
0.0015064
0.000147354
0.000147592
0.0311523
0.000157436
0.00473936
0.000154924
0.000190698
0.000141719
0.000150353
0.000176324
0.00017881
0.000157907
0.0383528
0.000176557
0.00015351
0.000158892
0.000146109
0.000140725
0.000194277
0.000170941
0.000164052
0.0403342
0.0141203
0.000179329
0.000195211
0.000148109
0.0378309
0.000150926
0.0436793
0.000197065
0.000163852
0.00015716
0.0441648
0.0421243
0.0498909
0.000166593
0.000364352
0.000157481
0.000145471
0.000171832
0.000154915
0.000150946
0.002077
0.0274055
0.000151148
0.00016384
0.0327146
0.000142943
0.000142437
0.0142864
0.0458985
0.000155665
0.000140415
0.000165081
0.000149404
0.000146876
0.000172358
0.000166693
0.000149398
0.00779832
0.000167182
0.0070566
0.00751502
0.000175243
0.0326597
0.000151398
0.000153938
0.000185724
0.0284203
0.000256666
0.000175286
0.000178594
0.000151982
0.000155116
0.000161602
0.0485012
0.000174165
0.000155376
0.000185595
0.000145765
0.000531913
0.000195268
0.00019894
0.000183711
0.0307414
0.00371565
0.0458383
0.0508741
0.00015432
0.0286346
0.000143017
0.000195259
0.000201584
0.0068198
0.000161851
0.000162031
0.000164641
0.000269727
0.000159179
0.0402031
0.000177953
0.000207844
0.0425941
0.000147141
0.000193879
0.00016029
0.000151933
0.000177829
0.00607572
0.000148754
0.00013916
0.00015726
0.0539144
0.000141415
0.000158704
0.000157602
0.000156299
0.000150606
0.000212463
0.000186729
0.000155293
0.000143878
0.000216796
0.000181485
0.000183485
0.052673
0.000151883
0.000145523
0.0418142
0.000152252
0.000159537
0.0521683
0.0342862
0.000168582
0.000195898
0.000168683
0.0176152
0.000232976
0.000178505
0.0541965
0.000146144
0.000200485
0.0352516
0.00524134
0.00615711
0.00101267
0.0001552
0.000151365
0.000169567
0.00015078
0.000152105
0.0154941
0.000149441
0.000185656
0.000138067
0.00018302
0.0439205
0.000159317
0.0454302
0.0339576
0.000145735
0.000188405
0.000167636
0.000158031
0.000145665
0.0366691
0.000193288
0.0300809
0.000169953
0.0343563
0.000208179
0.000159988
0.00018823
0.000177756
0.000173143
0.000146545
0.00709902
0.000145707
0.000166284
0.000183892
0.000166132
0.000152101
0.000186375
0.0378991
0.000143617
0.000577989
0.000190545
0.000152002
0.000144178
0.000218821
0.0488808
0.0358099
0.000141507
0.000167286
0.00017235
0.000199493
0.0198827
0.000150545
0.000141159
0.000155086
0.000146119
0.000169008
0.00016195
0.0507439
0.000154541
0.000160452
0.00586354
0.000174188
0.000195472
0.0474515
0.0359251
0.000151321
0.000144692
0.000140782
0.000157446
0.000186723
0.0592242
0.000179386
0.00021395
0.000175307
0.000183974
0.000157574
0.000171554
0.000165647
0.000199508
0.00014552
0.000221326
0.000174326
0.000140573
0.00015082
0.0481863
0.000188452
0.00451729
0.0320984
0.000215836
0.000145401
0.0188252
0.000159
0.000142992
0.0496864
0.00869904
0.00014575
0.000168615
0.000202168
0.000179731
0.000154668
0.00013982
0.000144451
0.000141178
0.000145061
0.000171742
0.000194772
0.0265523
0.000180369
0.000164269
0.000170122
0.000207392
0.000143287
0.000180563
0.0148328
0.00334249
0.0330268
0.000158275
0.000139956
0.0330814
0.000142019
0.000214226
0.000157253
0.000188908
0.000153348
0.000142394
0.0331407
0.000165885
0.000157886
0.00014574
0.0452617
0.0379913
0.034208
0.000152812
0.000151194
0.0012551
0.000152513
0.000158847
0.00023813
0.00843586
0.000168497
0.000174485
0.000154325
0.0535293
0.000143383
0.000161484
0.000152048
0.000139629
0.00287985
0.000143537
0.000140894
0.00349368
0.00018541
0.0405642
0.00729314
0.000142752
0.000170146
0.00014248
0.000144752
0.000159155
0.000154586
0.000151372
1.76476e-05
0.000150462
0.000198664
0.000175719
0.000168367
0.000149654
0.000163486
0.00014661
0.0367714
0.000148142
0.000260001
0.000190475
0.000157514
0.000184813
0.000174193
0.000170603
0.000150697
0.000172488
0.000141978
0.000140634
0.000295332
0.000183172
0.000148226
0.000144067
0.000148093
0.000158026
0.000211466
0.00014567
0.0505969
0.000186151
0.000150704
0.000143443
0.000139791
0.000186477
0.00677155
0.0415475
0.000189648
0.000643684
0.000101739
0.000211013
0.000161254
0.0533019
0.000138067
0.000147358
0.000163924
0.000168824
0.000139905
0.0455224
0.000151631
0.000144294
0.00024158
0.00965664
0.0181231
0.000183843
0.000164727
0.000156986
0.00655738
0.000153427
0.0533777
0.000145427
0.000153071
0.0296544
0.000139245
0.0483418
0.000179014
0.000143809
0.000147314
0.000153653
0.0582987
0.000158915
0.000139962
0.000191856
0.000142873
0.000141981
0.000161904
0.000156358
0.000180664
0.00015096
0.000160342
0.000138826
0.00432244
0.000175916
0.000139034
0.000139135
0.000155412
0.000143323
0.000158964
0.00015313
0.000149281
0.000151063
0.000145251
0.000156755
0.00014974
0.000207257
0.000139915
0.000195805
0.000151883
0.000195621
0.000141147
0.000151158
0.000145864
0.000148718
0.000182836
0.000165818
0.000160975
0.0429609
0.000166425
0.0537446
0.0477013
0.000194281
0.0599321
0.000151614
0.000149379
0.000602831
0.044345
0.000159154
0.0336344
0.000140157
0.000198222
0.00266478
0.000158954
0.000197709
0.00523428
0.0428142
0.000146203
0.000181446
0.000142483
0.00478662
0.000160263
0.0524037
0.0182286
0.000151932
0.000175613
0.000346731
0.000157981
0.0426909
0.000379672
0.000159345
0.000141322
0.000205648
0.0356058
0.00015381
0.000170493
0.000153723
0.000112217
0.000213932
0.000151101
0.000141498
0.0470931
0.000144081
0.000145736
0.000153482
0.00013935
0.0385504
0.000169409
0.000168512
0.039795
0.000145077
0.000200596
0.000150345
0.000197142
0.000193712
0.00314524
0.000140839
0.000166629
0.000149507
0.000146014
0.000157815
0.00015035
0.0469638
0.000157322
0.000139834
0.000143663
0.000163148
0.00014124
0.0077046
0.0452169
0.00217358
0.000150874
0.00014229
0.000143714
0.000181123
0.000152982
0.055916
0.000146772
0.000175845
0.000158944
0.000164582
0.0284841
0.000151682
0.000156102
0.0342053
0.000202125
0.0457112
0.000155923
0.0599396
0.0129707
0.000151272
0.0373027
0.000152412
0.000164566
0.0330633
0.000160393
0.000189295
0.0301778
0.000174853
0.000192204
0.000149304
0.0513145
0.000145776
0.00730929
0.000143545
0.0269995
0.000145995
0.000146185
0.00015873
0.000361709
0.00014275
0.000170711
0.000203137
0.0150372
0.000145019
0.00017356
0.0579191
0.000239005
0.0250293
0.000200926
0.000141155
0.000206623
0.000193181
0.000162208
0.0431321
0.000146686
0.000147624
0.0215386
0.000143523
0.0201393
0.000143482
0.0599002
0.0341607
0.000161213
0.000159838
0.00689405
0.0105666
0.000145425
0.000156986
0.000139548
0.000151402
0.0584501
0.000198444
0.0281086
0.00015186
0.00016883
0.0495
8.96775e-05
0.000191136
0.0479263
0.000142435
0.000144867
0.00133095
0.0450428
0.0343314
0.00977103
0.000106979
0.000185307
0.000182014
0.0584794
0.0377773
0.00793506
0.000141329
0.000199613
0.000185995
0.000202346
0.000149184
0.000162532
0.000196802
0.000225073
0.00178592
0.000167606
0.000285259
0.0391096
0.000190478
0.000145132
0.000145326
0.000231123
0.000142992
0.055594
0.000170122
0.000161937
0.000886124
0.00614711
0.000138902
0.000178569
0.000169507
0.00014952
0.0595344
0.000166114
0.0581987
0.000144587
0.0402234
0.0347143
0.00195261
0.000148859
0.000167711
0.000175793
0.000222909
0.000217638
0.00019014
0.0584738
0.000203587
0.000135026
0.000165726
0.000160396
0.000217318
0.0202137
0.000145567
0.00013864
0.000157255
0.0175387
0.000223055
0.000145016
0.000193885
0.000342323
0.000141299
0.00538942
0.000162056
0.0583465
0.000167013
0.00666239
0.0565481
0.000168323
0.000163485
0.0424183
0.000144168
0.000193191
0.0345284
0.000170536
0.000210958
0.000168539
0.000185731
0.0450076
0.0597976
0.000149136
0.0238923
0.000215595
0.000139173
0.000200674
0.00019492
0.000217875
0.0462307
0.000505815
0.00325783
0.000212186
0.035573
0.000168376
0.000185932
0.000137355
0.000150963
0.000150321
0.000141707
0.0292452
0.000220555
0.00014871
0.000193199
0.000156909
0.000143894
0.00657608
0.0570512
0.000145815
0.000152687
0.000137881
0.00015702
0.000179993
0.000145764
0.0328067
0.00016936
0.000198288
0.000166643
0.000201686
0.000181167
0.00017751
0.000298072
0.000149624
0.000157521
0.000147969
0.000143403
0.0588202
0.000192846
0.000172762
0.0374096
0.000152396
0.000154692
0.000177882
0.000140347
0.000148709
0.000208228
0.000163914
0.0343329
0.0415695
0.0429649
0.000149088
0.0471068
0.000144984
0.0345911
0.000138691
0.000195388
0.0442199
0.00014564
0.0127267
0.0320346
0.000178331
0.000153306
0.00015047
0.000170489
0.0481145
0.000139112
0.000151603
0.000149635
0.000155894
0.000611403
0.000157585
0.000164885
0.000142282
0.000149256
0.0438511
0.000176734
0.000160587
0.000212877
0.00022284
0.0544044
0.0167722
0.000159165
0.00015662
0.0346548
0.000149672
0.000191752
0.000149742
0.0586856
0.000155846
0.000153649
0.000168725
0.0507188
0.000144718
0.000140878
0.000138003
0.000200872
0.0123818
0.000216982
0.000145325
0.000161236
0.000141508
0.0386751
0.000141054
0.0494188
0.000185087
0.000152303
0.00878434
0.000179153
0.000175069
0.000152243
0.000158228
0.000173465
0.000188945
0.000239334
0.000151156
0.00015402
0.000154948
0.0445501
0.000146606
0.000154337
0.0596692
0.000159038
0.000188358
0.000161754
0.000145232
0.000148409
0.00150494
0.000157071
0.00904241
0.00016467
0.000140392
0.00147145
0.000153278
0.000211237
0.000191959
0.000155755
0.000149475
0.000139931
0.000145684
0.010786
0.000181282
0.0360359
0.0401904
0.000142276
0.00231492
0.000184918
0.0447606
0.000146455
0.00657466
0.0597092
0.0574456
0.000142934
0.000157674
0.000153522
0.000199901
0.0585779
0.00016139
0.000145859
0.000170767
0.0308654
0.000150709
0.00015784
0.000158702
0.00019774
0.0412999
0.000137944
0.0462017
0.000169437
0.00014497
0.0485945
0.000185447
0.00264836
0.00953002
0.000177719
0.000165408
0.000155465
0.000168829
0.000154978
0.000210336
0.000192929
0.000149268
0.000161141
0.021456
0.0418557
0.000138937
0.0002171
0.0473824
0.00628944
0.000151056
0.000150053
0.000276077
0.0535661
0.000219701
0.000146359
0.0465956
0.000186307
0.000142453
0.0265463
0.000169386
0.000152609
0.00882819
0.000150158
0.00018085
0.000141872
0.00013706
0.000151376
0.000138021
0.0574821
0.000148055
0.000142987
0.000196576
0.000160738
0.000163227
0.000212699
0.000150867
0.000145458
0.000158277
0.000156313
0.000347685
0.000574209
0.0396315
0.0209758
0.000174851
0.00651116
0.00017265
0.0503588
0.046243
0.0565598
0.000141563
0.00017492
0.00014673
0.000151302
0.000144462
0.000159778
3.61796e-05
0.00018481
0.000185474
0.000143602
0.000144892
0.00018267
0.000151708
0.000153791
0.000151016
0.0400651
0.000174992
0.0174378
0.000148857
0.000249956
0.000154365
0.000153232
0.000155031
0.000178941
0.000143764
0.000201685
0.0413841
0.00018795
0.0321745
0.000244993
0.000152974
0.000168629
0.00404579
0.000216633
0.000150919
0.000144041
0.000140434
0.0405219
0.000137368
0.000213458
0.000174764
0.00019973
0.000249992
0.000305794
0.000189388
0.0594187
0.00015568
0.000137652
0.00368661
0.0542079
0.000148763
0.00014918
0.000382094
0.000141415
0.00268793
0.000157453
0.000140397
0.000165708
0.000148945
0.000197921
0.0414866
0.0359349
0.000162061
0.000144476
0.000209839
0.000156566
0.000205652
0.000141471
0.000210032
0.000193435
0.000153729
0.000152216
0.000141398
0.000238322
0.00017965
0.00101891
0.0410573
0.000172894
0.0561923
0.00019109
0.000196539
0.0594284
0.000145265
0.0420365
0.000155569
0.0393755
0.0321592
0.0398285
0.0585856
0.000155014
0.000193069
0.0043149
0.000150362
0.029426
0.000150519
0.000149316
0.000163154
0.000153809
0.000169759
0.0251662
0.045075
0.0358032
0.000165036
0.000186653
0.000156961
0.000153201
0.000150137
0.000220424
0.000195149
0.0446881
0.000189123
0.000149497
0.000139618
0.000154504
0.00387471
0.000162432
0.000155895
0.000164231
0.000213175
0.000170673
0.000189672
0.00017641
0.0456745
0.00017233
0.000172369
0.000146449
0.000163139
0.0156971
0.00513486
0.000192626
0.000140428
0.0483617
0.00017497
0.000145817
0.00018752
0.0458942
0.00464894
0.000179169
0.000141503
0.0392427
0.000154081
0.000141387
0.000150319
0.0312244
0.0457314
0.000152874
0.0434806
0.056789
0.000170988
0.000176488
0.000196357
0.0576762
0.000174337
0.0585389
0.000154299
0.00275655
0.000222661
0.060112
0.000174555
0.000142709
0.0490931
0.000147233
0.000155956
0.0311413
0.0552597
0.00019902
0.0209982
0.000159762
0.000156447
0.0510425
0.00014584
0.000143138
0.000148895
0.000186698
0.000146179
0.000175477
0.000170946
0.00657518
0.0477706
0.000154045
0.0294841
0.00017003
0.0449488
0.0333538
0.000148819
0.000151413
0.000162315
0.000195279
1.65832e-08
0.000196214
0.0444
0.0421129
0.00022805
0.000159859
0.0530417
0.0312568
0.000177638
0.0451872
0.000151741
0.000149178
0.000148555
0.000156699
0.000143671
0.000172501
0.035849
0.000172809
0.000159694
0.0219696
0.0515848
0.0436269
0.055309
0.000168297
0.0589468
0.000206649
0.000191243
0.000138476
0.000150811
0.000191262
0.0290405
0.000156195
0.0516732
0.0526003
0.000142273
0.000150039
0.000154244
0.000213458
0.000154616
0.000198117
0.0423156
0.000138728
0.000144197
0.00014185
0.000155079
0.000196316
0.0394944
0.000183071
0.0559326
0.0002174
0.000143897
0.00020247
0.000241102
0.000158602
0.0373592
0.0457876
0.0448223
0.027155
0.0327063
0.000149691
0.052358
0.0406519
0.000154969
0.0566232
0.000143883
0.000159661
0.000161394
0.000157548
0.0589566
0.000196675
0.000151305
0.000168286
0.00278456
0.0392457
0.000158887
0.000165504
0.054114
0.0553648
0.000150802
0.000170838
0.000212469
0.000144218
0.000144821
0.0427586
0.000143869
0.0113464
0.000220164
0.0595623
0.000143445
0.000207862
0.00013602
0.000145251
0.000144844
0.0463903
0.0367082
0.00015373
0.000177467
0.00039094
0.00259849
0.0572003
0.0404886
0.00016566
0.000263366
0.00290505
0.000178636
0.000142279
0.00021995
0.000137784
0.000147425
0.0335051
0.000184162
0.000206684
0.000160964
0.00016609
0.000143007
0.000140283
0.000153814
0.000154956
0.0472207
0.000160344
0.0358997
0.0213618
0.000188492
0.000194553
0.0473802
0.0600181
0.0471001
0.0001581
0.000161916
0.000179242
0.000165128
0.0018292
0.00307425
0.000153581
0.0369553
0.0363761
0.000167934
0.000195906
0.000195647
0.00019757
0.000199075
0.000156604
0.000201052
0.000210022
0.000185889
0.000169094
0.000198748
0.000198421
0.000164351
0.000142309
0.00017406
0.000196296
0.000143824
0.0276221
0.0586325
0.0016635
0.0496437
0.000143651
0.000140871
0.00277465
0.0559344
0.00015454
0.000161624
0.000185353
0.0401437
0.00524995
0.000150447
0.000175973
0.000163534
0.00877518
0.00284608
0.000159149
0.0343083
0.0397191
0.000199926
0.0575569
0.000206098
0.00615435
0.0582869
0.000132643
0.0600557
0.0410128
0.000156675
0.000201356
0.000212445
0.000164518
0.000141866
0.000179004
0.0132601
0.000149358
0.000149645
0.0449059
0.0415139
0.000205263
0.000152375
0.0178002
0.000193635
0.0514359
0.0317908
0.000149734
0.000144531
0.000154313
0.000154478
0.0590106
0.000681121
0.0547854
0.000194442
0.0314188
0.00660657
0.000153442
0.000142112
0.038749
0.000143473
0.0590808
0.000140966
0.0569575
0.000155745
0.000156224
0.000238223
0.000146321
0.000200952
0.00505557
0.000169837
0.000160355
0.000156333
0.00014961
0.0337229
0.000154628
0.0476841
0.000159775
0.000150221
0.000166899
0.000204287
0.0598162
0.0386972
0.000212925
0.00945266
0.00020603
0.0534892
0.000156147
0.000143685
0.000138896
0.000138503
0.0292532
0.000211525
0.00701141
0.000187478
0.000146408
0.000145332
0.00330149
0.000247316
0.00779097
0.00014517
0.000157126
0.000137437
0.0432921
0.000176899
0.000365413
0.0276821
0.000204475
0.0271388
0.000140904
0.000177103
0.000178453
0.0309001
0.0406351
0.00014684
0.000207751
0.000154332
0.000154087
0.00021831
0.0214906
0.021561
0.000153076
0.000208977
0.000164526
0.0446832
0.0241597
0.0595778
0.0598393
0.0001439
0.000194828
0.000151395
0.000209489
0.000146676
0.00021683
0.000158834
0.000187983
0.00339477
0.00554413
0.000153976
0.000216472
0.0415903
0.000197544
0.000159988
0.0297928
0.000195902
0.000150161
0.000156029
0.0592685
0.000170224
0.000228142
0.0375403
0.00623478
0.0277795
0.000152725
0.0569237
0.0415193
0.00946037
0.000166116
0.000173201
0.000200441
0.000199696
0.0595006
0.000200584
0.000153932
0.0452684
0.000181497
0.0252876
0.000170374
0.0322069
0.0136921
0.0484791
0.000162762
0.000339741
0.000162221
0.0363333
0.000203811
0.0488261
0.0185979
0.000141285
0.000137775
0.0378023
0.0601103
0.000179113
0.00015357
0.000188708
0.000171749
0.0571992
0.000215924
0.04041
0.000166584
0.0392266
0.000218495
0.00994233
0.000153696
0.0170808
0.0371702
0.000156295
0.000192378
0.000142353
0.00016105
0.000150158
0.00116673
0.000145666
0.000149352
0.0584282
0.0542816
0.000138332
0.0598978
0.000155262
0.000150729
0.000145154
0.000142561
0.000151141
0.0382634
0.0563613
0.000139971
0.000107978
0.000190872
0.000181745
0.0447896
0.000194805
0.000165399
0.000169936
0.000143336
0.00167911
0.000174715
0.0599408
0.000170861
0.0577955
0.042287
0.000199155
0.0470605
0.0380368
0.000139726
0.0302813
0.000192919
0.000192628
0.000175429
0.00014641
0.000174764
8.99856e-05
0.00014964
0.000179336
0.000144285
0.0596747
0.000191498
0.045073
0.000233803
0.000188637
0.0585057
0.000151058
0.000146676
0.000188691
0.000158151
0.000151324
0.000151513
0.000169396
0.000144827
0.0001433
0.000157046
0.000189444
0.000159213
0.000169831
0.000157105
0.000174994
0.000194603
0.000160359
0.0600964
0.000159345
0.000144654
0.000196498
0.000178206
0.000156686
0.000144738
0.000138807
0.000156915
0.0367725
0.00015771
0.000215506
0.000144331
0.000149865
0.000215194
0.0577998
0.000191678
0.000181982
0.000139071
0.0511618
0.000150356
0.000143097
0.000193232
0.000159653
0.000130298
0.0421725
0.000200306
0.00022991
0.000188036
0.0272413
0.000150718
0.000150939
0.00019949
0.000204803
0.000187596
0.000210951
0.037964
0.00017012
0.000150443
0.000167503
0.0167017
0.000184248
0.000149874
0.000197993
0.000194524
0.000195309
0.000150888
0.000149538
0.00613263
0.000196242
0.0479844
0.00699563
0.000160589
0.000194154
0.000150892
0.000179825
0.0413797
0.000152168
0.000708238
0.000174128
0.000204675
0.0135061
0.000149054
0.000149544
0.000143237
0.0590216
0.00780186
0.000160384
0.000215068
0.00019944
0.000150715
0.000150054
9.66811e-05
0.0597224
0.00610686
0.0397311
0.000132111
0.000168624
0.0387906
0.000201014
0.000169003
0.000350828
0.000193819
0.000347039
0.000149866
0.000194193
0.000211011
0.000155904
6.98521e-05
0.000185517
0.000213191
0.000169117
0.000178536
0.000144884
0.0291622
0.000159829
0.000139906
0.000144979
0.000139519
0.000157211
0.000156145