/*--------------------------------*- C++ -*----------------------------------*\
| =========                 |                                                 |
| \\      /  F ield         | OpenFOAM: The Open Source CFD Toolbox           |
|  \\    /   O peration     | Version:  v2012                                 |
|   \\  /    A nd           | Website:  www.openfoam.com                      |
|    \\/     M anipulation  |                                                 |
\*---------------------------------------------------------------------------*/
FoamFile
{
    version     2.0;
    format      ascii;
    class       volScalarField;
    location    "150";
    object      k_0;
}
// * * * * * * * * * * * * * * * * * * * * * * * * * * * * * * * * * * * * * //

dimensions      [0 2 -2 0 0 0 0];


internalField   nonuniform List<scalar> 
13917
(
0.0236259
0.000188338
0.0170446
0.000154187
0.000167089
0.00018668
0.000165668
0.00022509
0.000161442
0.00163972
0.000222094
0.000152006
0.000170185
0.00027917
0.000170058
0.0191385
0.000156543
0.000213493
0.000207137
0.0169166
0.000181505
0.00015251
0.000183951
0.000152529
0.000159273
0.000184621
0.0116184
0.0010369
0.000196556
0.000145245
0.000874481
0.000189417
0.000154848
0.0393742
0.000149745
0.000235358
0.000162779
0.000154825
0.000165722
0.00018598
0.00015871
0.000161687
0.000158421
0.000200237
0.000200354
0.0140788
0.000179296
0.0174258
0.00100443
0.000149889
0.000151813
0.00021622
0.0102338
0.000152172
0.000152646
0.000213845
0.000395433
0.000183936
0.000161794
0.0136736
0.0413629
0.000173749
0.000140237
0.000158551
0.0576416
0.000179657
0.000200982
0.000234686
0.000217507
0.022041
0.0558848
0.036311
0.000150585
0.000159135
0.000182884
0.000161395
0.000161631
0.000159271
0.000160616
0.000155232
0.000155732
0.000153809
0.000150413
0.0569547
0.000142447
0.000228772
0.000188727
0.000146712
0.000185477
0.00015708
0.000143711
0.000158708
0.00143085
0.00014571
0.000155586
0.000199998
0.000291762
0.000149641
0.000145811
0.000229543
0.000150715
0.000149472
0.000155984
0.000144295
0.000161273
0.058592
0.0328422
0.00017625
0.000161787
0.0211565
0.000145574
0.0410345
0.000196038
0.016747
0.0578215
0.000162802
0.00020175
0.000148263
0.0029413
0.000149375
0.000153357
0.000152026
0.000204563
0.000202702
0.0233953
0.0582379
0.000157808
0.000184907
0.00014594
0.000202451
0.000171212
0.000620109
0.0566231
0.000162719
0.000192643
0.0245543
0.044716
0.0237349
0.000187501
0.000154433
0.000189238
0.000155498
0.0579173
0.000146333
0.000150018
0.000229
0.0556356
0.000572904
0.0160317
0.000152461
0.000182334
0.00014679
0.000149776
0.000149371
0.00390111
0.000155737
0.000144087
0.0551326
0.000158568
0.000152319
0.000143399
0.051264
0.000168212
0.00155029
0.0344999
0.000227225
0.007499
0.0292596
0.000132636
0.000189947
0.000153293
0.0562583
0.000161242
0.0419103
0.000201584
0.00015366
0.000154121
0.00019839
0.000170399
0.00016946
0.000158358
0.000152686
0.000151838
0.0100142
0.0045545
0.000417996
0.000151666
0.00955669
0.00014518
0.000227502
0.000202227
0.000198813
0.000130905
0.0234949
0.000145739
0.0238964
0.000166118
0.0581534
0.000149211
0.000154908
0.000175894
0.0220026
0.0201574
0.00016148
0.0137957
0.000184495
0.000182997
0.000154079
0.000197026
0.000155715
0.000141281
0.000170942
0.000172139
0.0172947
0.000192014
0.000186573
0.0522326
0.00015314
0.000142637
0.000142529
0.026984
0.000958379
0.0209819
0.000143868
0.000141238
0.032749
0.0204364
0.000140452
0.00013993
0.000158751
0.000143735
0.000143617
0.03404
0.0225324
0.000153682
0.00013375
0.000200346
0.0333617
0.000160615
0.000143821
0.0154652
0.0585338
0.00292151
0.0515803
0.000212327
0.000146408
0.0301987
0.000201261
0.000193322
0.000194975
0.000160627
0.0205815
0.000149634
0.000187329
0.000198602
0.00015427
0.000158268
0.000158403
0.000164978
0.00015126
0.0309974
0.000129352
0.000148739
0.000139427
0.000156358
0.000139475
0.000149629
0.000171117
0.000179637
0.000149922
0.028231
0.035709
0.000149895
0.000162514
0.0240168
0.000143653
0.00021657
0.0349395
0.000143745
0.0271307
0.000150162
0.0516796
0.000153601
0.000166766
0.000154676
0.000145909
0.000463801
0.000150491
0.000139983
0.000171397
0.0019572
0.00023569
0.00470536
0.0231366
0.00015298
0.00018898
0.000165369
0.000163781
0.000166178
0.000160349
0.000146944
0.000148983
0.000204743
0.000201078
0.000186037
0.000159801
0.000143678
0.0562681
0.0184564
0.000144555
0.00017081
0.000163869
0.000202349
0.000200728
0.0387814
0.0419801
0.000182102
0.000103671
0.000161653
0.0555179
0.000207388
0.0141535
0.000169689
0.000169153
0.0108324
0.000154548
0.000191406
0.000198867
0.000158288
0.0567023
0.000142862
0.000176381
0.000151709
0.00655518
0.000139843
0.000183562
0.000185517
0.000182976
0.000156996
0.000194215
0.0566485
0.000154994
0.000154579
0.0442497
0.0571211
0.0485008
0.000281452
0.000142665
0.000153493
0.059016
0.000181169
0.000142787
0.000166376
0.000151935
0.000199837
0.000184498
0.000218398
0.000213467
0.000216469
0.000176859
0.0345724
0.0001466
0.000155011
0.000168423
0.00497528
0.000160129
0.0205597
0.000176507
0.00295853
0.000152977
0.00023582
0.000171936
0.00156939
0.000176537
0.0194097
0.0228756
0.000188778
0.000150231
0.0478985
0.000155265
0.0341823
0.000569328
0.000180711
0.00159872
0.000156295
0.000345766
0.000140264
0.0197427
0.000412362
0.000161109
0.0381949
0.000211984
0.000159257
0.0438948
0.0044641
0.000159557
0.000461536
0.000152861
0.000212668
0.0130847
0.000143099
0.000163766
0.000159577
0.000145418
0.000141288
0.000147417
0.0446911
0.000216368
0.000153928
0.000148242
0.000151376
0.000189599
0.000248107
0.000147283
0.000132878
0.000200942
0.000232252
0.000146466
0.000160602
0.0452363
0.0171929
0.000177854
0.000208662
0.0528259
0.000157883
0.000145934
0.000177508
0.000141145
0.000147377
0.000154103
0.000146069
0.000155942
0.0272137
0.000153216
0.000188585
0.0307543
0.000189145
0.000141581
0.000149547
0.0453732
0.000176083
0.0198881
0.000150157
0.000144635
0.000156256
0.000144956
0.000162351
0.000156999
0.0453172
0.00227898
0.0592236
0.000144583
0.000174873
0.00232281
0.000155331
0.000210961
0.0479506
0.00015166
0.0382055
0.000142115
0.000144255
0.000150975
0.000156357
0.000140618
0.000151354
0.0556015
0.0408753
0.000140361
0.00623889
0.000200857
0.000149587
0.000191627
0.000187832
0.0407019
0.000164947
0.0587903
0.0019707
0.00184619
0.000157048
0.000179547
0.00292934
0.000160056
0.0482971
0.00014584
0.000151753
0.000155595
0.000162678
0.000180224
0.00101324
0.000186741
0.000170863
0.00016348
0.000210805
0.000197859
0.000153944
0.00090017
0.000178089
0.000171284
0.0361656
0.000142487
0.000199101
0.000307122
0.000140261
0.0496773
0.000145009
0.000144945
0.000190244
0.000150221
0.000152323
0.000209418
0.0545937
0.0425066
0.000143206
0.00015465
0.000159549
0.0447344
0.0350248
0.000153284
0.000152444
0.000142821
0.000195878
0.007895
0.000146855
0.000160262
0.000154386
0.000144926
0.000172452
0.00017027
0.000149327
0.00018742
0.000140259
0.000151711
0.000159068
0.0396607
0.000137624
0.000158847
0.000151178
0.000173863
0.000195366
0.000202799
0.000199858
0.00023547
0.000158286
0.00020626
0.0588889
0.0269397
0.0346584
0.00014333
0.000150569
0.000169044
0.000147469
0.0580952
0.000144967
0.010461
0.00016596
0.0598494
0.000219447
0.000158542
0.00717595
0.000140251
0.000185872
0.000149668
0.00016207
0.0593447
0.000148677
0.0077834
0.000143394
0.000157661
0.000150988
0.000204036
0.00017342
0.000137978
0.000199812
0.000191162
0.00048847
0.0540337
0.0572567
0.038434
0.000137664
0.0217433
0.000140024
0.0435684
0.00046354
0.000165829
0.000175961
0.00014957
0.000177653
0.000157765
0.000148786
0.000149299
0.000168675
0.0512803
0.000143943
0.000186933
0.000151472
0.000137714
0.000158618
0.00656557
0.0533564
0.00728549
0.00019371
0.000169862
0.0412637
0.0349551
0.000140742
0.0496105
0.000166629
0.000193671
0.000147525
0.0461497
0.000144533
0.000173239
0.000150218
0.000464762
0.000179396
0.0567447
0.000148931
0.000178386
0.000149438
0.000149616
0.0364773
0.00023384
0.000151576
0.000192769
0.000143689
0.000157535
0.000146972
0.0399646
0.000143958
0.000165849
0.000144896
0.000150537
0.00450418
0.000147266
0.000214549
0.000152216
0.000140031
0.042695
0.000187494
0.000152913
0.00995031
0.00509333
0.000231576
5.53205e-05
0.000140025
0.000171407
0.0361658
0.0121487
0.000175479
0.000162794
0.000174765
0.000151683
0.000147316
0.000183475
0.00019769
0.000164484
0.0347645
0.000179713
0.000269607
0.0384524
0.000199917
0.000181118
0.000143414
0.0294607
0.000146984
0.000181289
0.000189512
0.000140148
0.000148803
0.000158681
0.000161219
0.000153575
0.0222541
0.000171978
0.000142188
0.000197383
0.000147084
0.0419882
0.000150149
0.000145914
0.0526643
0.000193401
0.00119424
0.000151231
0.000159897
0.000145351
0.000153174
0.000168143
0.000145857
0.0216349
0.00017486
0.00870272
0.0019134
0.000181183
0.057421
0.000154771
0.000147745
0.000150158
0.037054
0.0422545
0.000167037
0.0224671
0.0056134
0.000139979
0.000145191
0.000162461
0.0579675
0.00372975
0.000180016
0.000153036
0.000158922
0.000194157
0.000160669
0.000215955
0.000172406
0.000155242
0.000155419
0.000147768
0.000168084
0.000163961
0.0120158
0.000164921
0.000179203
0.0217169
0.000156245
0.00626746
0.000161772
0.000180815
0.000165152
0.00858469
0.000154201
0.000184353
0.0533974
0.000634182
0.000147792
0.00016498
0.000156927
0.000145414
0.00014994
0.000172197
0.00285084
0.00317807
0.000217917
0.000139699
0.0224676
0.00016141
0.000162889
0.000180268
0.000153989
0.000185902
0.000226746
0.0001371
0.000193026
0.000206964
0.000172174
0.000144082
0.000141006
0.000147202
0.019039
0.000154652
0.000152272
0.000176257
0.000146377
0.000142368
0.000217011
0.000145657
0.000176766
0.0232979
0.000196986
0.059379
0.000149902
0.000162552
0.0381516
0.000165549
0.000189655
0.000156037
0.000147684
0.00015124
0.000166297
0.000204528
0.000144004
0.000185708
0.000153629
0.000306569
0.000161845
0.000164637
0.00015172
0.000195304
0.000167638
0.0498506
0.000177997
0.000159064
0.0385506
0.000155944
0.029141
0.000157116
0.0001855
0.000159496
0.000142305
0.000147356
0.0565067
0.000168218
0.000239288
0.018673
0.000145214
0.000172704
0.000133319
0.000171894
0.006915
0.000134126
0.0296897
0.000158883
0.000186439
0.000201865
0.000193821
0.000140075
0.00014666
0.000216638
0.000139924
0.000151944
0.000158674
0.000150146
0.000176501
0.000139878
0.000217976
0.000155274
0.0227259
0.0285736
0.000185728
0.0596737
0.0377524
0.0199044
0.000205258
0.00013927
0.000155737
0.000149775
0.000156246
0.000142994
0.000168322
0.000145454
0.000248702
0.000152241
0.0466136
0.000154191
0.000168205
0.000213115
0.00014404
0.000188633
0.00015599
0.000163804
0.00016512
0.000155252
0.0579502
0.000199419
0.000178142
0.000144514
0.000145933
0.000153772
0.000154145
0.036291
0.000139528
0.000230034
0.000144137
0.0027129
0.000165766
0.000146127
0.00018511
0.000175008
0.000139672
0.00150429
0.0497457
0.000162683
0.000194761
0.000139763
0.000230045
0.000159533
0.000154005
0.030772
0.000148557
0.000154571
0.000197159
0.0286098
0.000161694
0.00018516
0.0435645
0.000170583
0.000158182
0.000150591
0.0506645
0.000145569
0.000201516
0.000151122
0.0507148
0.000166787
0.0407403
0.00014824
0.000145983
0.000662097
0.000157436
0.000156166
0.0598767
0.000158603
0.000141345
0.000177565
0.000176114
0.000155609
0.000196928
0.000159146
0.0578953
0.00018628
0.000188178
6.30241e-05
0.000158811
0.0508584
0.000156335
0.000194909
0.000145167
0.0316472
0.00262601
0.00015148
0.000159555
0.000158409
0.000153282
0.000157512
0.000153508
0.000148219
0.000146885
0.000171358
0.000137082
0.000157849
0.00019143
0.0325113
0.0490587
0.000195579
0.000153771
0.000756322
0.000144462
0.0356915
0.00755805
0.00672476
0.000144897
0.000139387
0.000147489
0.000151572
0.000144215
0.000156024
0.000144753
0.000182214
0.000141437
0.0101723
0.000181488
0.000142197
0.0575105
0.000145365
0.000147515
0.000176325
0.0415613
0.000201239
0.000153856
0.00150867
0.000147348
0.000147584
0.0312144
0.000157395
0.00464345
0.000154925
0.00019074
0.000141713
0.000150375
0.00017632
0.000178949
0.000157905
0.0384038
0.000176465
0.000153501
0.000158886
0.000146109
0.000140721
0.000194321
0.000170958
0.000164052
0.0403873
0.0141181
0.000179507
0.000195256
0.000148117
0.0378805
0.000150956
0.0436774
0.000197097
0.00016386
0.000157157
0.0441034
0.0421576
0.0499579
0.000166549
0.0003606
0.000157479
0.000145468
0.00017185
0.000154909
0.000150944
0.00200129
0.0274441
0.000151175
0.00016385
0.0327594
0.000142927
0.000142437
0.0142833
0.0459476
0.000155663
0.000140402
0.000165088
0.000149404
0.000146867
0.000172358
0.00016668
0.000149397
0.00774753
0.000167143
0.00704137
0.00749874
0.000175169
0.0327032
0.000151399
0.000153937
0.000185795
0.0284603
0.000256074
0.000175211
0.000178588
0.000151983
0.000155117
0.000161587
0.0485282
0.000173814
0.000155372
0.000185625
0.000145759
0.000532219
0.000195314
0.000198984
0.000183739
0.0306069
0.00371736
0.0458169
0.0509384
0.000154313
0.0285011
0.000143017
0.000195287
0.000201632
0.00681322
0.000161855
0.000162002
0.000164643
0.000269636
0.000159172
0.0402352
0.000177967
0.000207888
0.0426089
0.000147152
0.000193921
0.000160285
0.000151929
0.000177812
0.00604937
0.000148749
0.000139159
0.000157258
0.0539831
0.000141412
0.000158698
0.000157606
0.000156293
0.000150603
0.00021248
0.000186761
0.000155289
0.000143871
0.000216911
0.000181647
0.000183442
0.0527403
0.000151883
0.000145522
0.0418081
0.000152245
0.000159531
0.0522335
0.0343316
0.000168575
0.000195925
0.000168674
0.0176421
0.000232973
0.000178502
0.0542252
0.000146135
0.000200535
0.0352814
0.00523319
0.00615373
0.00101499
0.000155177
0.000151359
0.000169556
0.000150777
0.0001521
0.0155518
0.000149458
0.000185678
0.000138071
0.000183047
0.0439553
0.000159312
0.0453702
0.0337977
0.000145735
0.000188439
0.000167622
0.000158027
0.000145663
0.0367172
0.000193331
0.0301227
0.000169952
0.0343712
0.000208228
0.000159969
0.000188165
0.000177772
0.000173075
0.00014654
0.00696101
0.000145705
0.00016628
0.000183888
0.00016612
0.000152102
0.000186406
0.0377796
0.000143615
0.000552687
0.00019059
0.000151998
0.000144176
0.000217311
0.0489505
0.0357454
0.000141505
0.000167299
0.000172233
0.000199452
0.0199109
0.000150543
0.000141157
0.000155062
0.000146119
0.00016898
0.000161943
0.0508132
0.000154538
0.000160456
0.00582427
0.000174103
0.000195518
0.0475001
0.0359341
0.000151321
0.00014469
0.00014078
0.000157441
0.000186754
0.0592962
0.000179358
0.00021397
0.000175302
0.000184002
0.000157578
0.000171426
0.000165642
0.000199568
0.000145516
0.000221185
0.000174189
0.000140574
0.00015082
0.0482473
0.000188478
0.00447801
0.03212
0.000216142
0.000145393
0.0186426
0.000158983
0.000142992
0.0496831
0.00870065
0.000145746
0.000168607
0.000202215
0.000179732
0.000154667
0.000139824
0.000144449
0.000141173
0.00014506
0.00017175
0.00019478
0.0265885
0.00018037
0.000164274
0.000170136
0.000207439
0.000143281
0.00018056
0.0146952
0.00336914
0.033059
0.000158268
0.000139959
0.033125
0.000142017
0.000214104
0.000157253
0.000188911
0.000153345
0.000142392
0.0331745
0.000165889
0.000157879
0.00014574
0.0452083
0.0380023
0.0342544
0.000152809
0.000151189
0.00126238
0.000152511
0.000158819
0.000237984
0.00841562
0.000168497
0.0001745
0.000154324
0.0535936
0.000143382
0.000161476
0.000152049
0.000139631
0.00290475
0.000143537
0.000140889
0.00337354
0.000185441
0.0404668
0.00731027
0.000142752
0.000170158
0.000142473
0.000144745
0.00015915
0.000154581
0.000151369
2.60934e-05
0.00015046
0.000198708
0.000175694
0.000178702
0.000149654
0.000163438
0.000146601
0.0368196
0.000148139
0.00025976
0.000190513
0.000157508
0.000184842
0.000174209
0.000170616
0.000150693
0.000172536
0.000141973
0.000140635
0.000296556
0.000183132
0.000148392
0.000144074
0.000148087
0.000158008
0.000211511
0.000145665
0.0506498
0.000186175
0.000150724
0.000143442
0.000139795
0.000186499
0.00675425
0.0415373
0.000189479
0.000653265
0.000103629
0.000211061
0.000161245
0.0533241
0.00013807
0.000147355
0.000163923
0.00016851
0.000139909
0.0455808
0.000151627
0.000144301
0.000241413
0.00947819
0.0181486
0.000183688
0.000164731
0.000158297
0.00654382
0.000153438
0.0534041
0.000145426
0.000153052
0.0294778
0.000139249
0.0484029
0.000178915
0.000143805
0.000147312
0.000153665
0.0583712
0.000158904
0.000139966
0.000191896
0.000142873
0.000141975
0.000161881
0.000156348
0.000180689
0.00015096
0.000160341
0.000138824
0.00420365
0.000175968
0.000139032
0.000139133
0.000155409
0.000143323
0.000158968
0.000153127
0.000149275
0.000151062
0.00014525
0.000156751
0.000149738
0.000207265
0.000139919
0.000195852
0.000151877
0.000195567
0.000141146
0.000151155
0.000145858
0.000148717
0.000182837
0.000165805
0.000160981
0.0428836
0.000166529
0.0538132
0.0477532
0.000194324
0.0600051
0.000151609
0.000149377
0.000580403
0.0443356
0.00015913
0.0336798
0.00014016
0.000198271
0.00262473
0.000158957
0.000197757
0.00506187
0.0428455
0.000146216
0.000181472
0.000142478
0.00485277
0.000160267
0.0524688
0.0182395
0.000151929
0.000175687
0.000334841
0.000158006
0.0426091
0.000379403
0.000159341
0.000141321
0.000205954
0.0356531
0.000153815
0.000170508
0.000153717
0.000113708
0.00021492
0.000151097
0.000141497
0.0471514
0.000144075
0.000145736
0.000153482
0.000139349
0.0384441
0.000169395
0.000168522
0.0398471
0.000145075
0.000200602
0.000150345
0.000197494
0.000193738
0.00322211
0.000140839
0.000166638
0.000149493
0.000146022
0.000157819
0.000150347
0.0469154
0.000157318
0.000139831
0.000143662
0.000163519
0.000141238
0.0077116
0.0451786
0.00215749
0.000150869
0.000142287
0.000143713
0.000180799
0.000152978
0.0559865
0.000146789
0.000172235
0.00015894
0.000164569
0.028506
0.000151678
0.000156125
0.0342509
0.000202175
0.0457698
0.000155911
0.0600106
0.0127189
0.000151267
0.0373524
0.000152407
0.000164554
0.0330746
0.000160384
0.00018928
0.0302202
0.00017484
0.000192244
0.000149304
0.0513759
0.000145775
0.00732376
0.000143544
0.0270385
0.000145995
0.000146184
0.000158729
0.00035982
0.000142746
0.000170768
0.000203143
0.0147096
0.000145018
0.000173555
0.0579903
0.000238914
0.0248376
0.00020097
0.000141154
0.000206686
0.000192047
0.000162199
0.0430816
0.000146681
0.000147974
0.0215709
0.000143518
0.0201674
0.000143481
0.0599703
0.0340286
0.000161211
0.000159833
0.0068765
0.0104774
0.000145424
0.000156986
0.000139546
0.000151397
0.0585082
0.000198476
0.0281487
0.000151856
0.000168833
0.0495621
9.00371e-05
0.000191047
0.0479934
0.000142435
0.000144866
0.00134368
0.045028
0.0341836
0.00968595
0.000115115
0.000185308
0.00018204
0.0585488
0.0378089
0.00792151
0.000141328
0.000199663
0.000186016
0.000202375
0.000149181
0.00016254
0.000196827
0.00022484
0.00176878
0.000167883
0.000285916
0.039161
0.000190474
0.000145132
0.000145325
0.00023088
0.000142988
0.0556641
0.000170126
0.000161921
0.000842111
0.00617418
0.0001389
0.000178584
0.000169518
0.000149517
0.0596078
0.000165954
0.0582703
0.000144586
0.0402765
0.0347183
0.00196284
0.000148857
0.000167709
0.000175781
0.000222902
0.000217536
0.000190177
0.0585305
0.000205301
0.000135019
0.000165726
0.000160383
0.000217316
0.0202433
0.000145554
0.000138639
0.000157253
0.0173248
0.000223164
0.000145014
0.000193891
0.000315265
0.000141296
0.00541425
0.000162048
0.0584188
0.000167001
0.00664117
0.0566199
0.000168332
0.000163475
0.0423777
0.000144165
0.000193189
0.0345669
0.000170524
0.00021094
0.000168553
0.000185762
0.0449849
0.0598675
0.000149136
0.0238853
0.000216439
0.000139177
0.000200748
0.000194959
0.000217895
0.0461746
0.00048312
0.00321272
0.00021222
0.0356087
0.000168376
0.000185963
0.000137345
0.000150963
0.000150318
0.000141703
0.0292732
0.000220424
0.000148705
0.00019315
0.000155018
0.000143892
0.00654842
0.0571039
0.00014582
0.000152682
0.000137873
0.000157014
0.000180017
0.000145763
0.0328176
0.000169371
0.000198329
0.00016663
0.000201715
0.000181174
0.000177473
0.000298476
0.000149622
0.000157515
0.000147964
0.000143403
0.0588919
0.000192886
0.000172756
0.0374217
0.000152392
0.000154686
0.000177868
0.000140349
0.000148717
0.000208223
0.000163917
0.0343797
0.0414843
0.0429638
0.000149089
0.0471008
0.000144982
0.0346344
0.000138689
0.000195384
0.0441606
0.000145637
0.0125561
0.0320783
0.000178327
0.000153301
0.000150468
0.000170487
0.0481082
0.000139111
0.000151603
0.000149632
0.000155879
0.000657906
0.00015758
0.000164888
0.000142282
0.000149262
0.043811
0.000176747
0.000160579
0.000212916
0.000222626
0.0544709
0.0166589
0.000159156
0.000156613
0.0346972
0.000149669
0.00019179
0.000149742
0.0587464
0.000155841
0.000153646
0.000168716
0.0507509
0.000144717
0.000140878
0.000138006
0.000201048
0.0123792
0.000216986
0.000145325
0.000161227
0.000141505
0.0387256
0.000141046
0.0494364
0.000185117
0.000152299
0.00863322
0.00017912
0.000174754
0.000152245
0.000158208
0.000173469
0.000188935
0.000239032
0.000151155
0.000154015
0.000154944
0.0446077
0.000146602
0.000154333
0.0597375
0.000159033
0.00018757
0.000161757
0.000145223
0.000148405
0.00160333
0.000157075
0.00876621
0.000164987
0.000140392
0.0014183
0.000153275
0.000211272
0.000191973
0.000155751
0.000149474
0.000139931
0.000145683
0.0108891
0.000181307
0.0360831
0.0402324
0.000142271
0.0023076
0.000184919
0.0447908
0.000146454
0.00656785
0.0597788
0.0575032
0.000142936
0.000157674
0.000153521
0.000199884
0.0586486
0.000161399
0.000145858
0.000170779
0.0308802
0.000150708
0.00015784
0.000158694
0.000197792
0.0412814
0.000137947
0.0462367
0.000169422
0.000144969
0.0485682
0.000185477
0.00255008
0.0094422
0.000177715
0.000165394
0.000155463
0.000168819
0.000154973
0.00021032
0.000192928
0.000149262
0.000161145
0.0214725
0.0417674
0.000138936
0.00021703
0.0473688
0.00617479
0.000151049
0.000150052
0.000277463
0.0536143
0.000219556
0.000146352
0.0466044
0.000186338
0.000142452
0.0265833
0.000169385
0.000152604
0.00868701
0.000150152
0.000180715
0.000141869
0.000137061
0.000151372
0.000138025
0.0575308
0.000148052
0.000142986
0.000196623
0.000160745
0.000163217
0.000212759
0.000150863
0.000145457
0.000158273
0.000156309
0.000346775
0.000585146
0.0396569
0.0209415
0.000174827
0.00654583
0.000172627
0.0504081
0.046197
0.0566054
0.000141558
0.000174906
0.000146729
0.000151297
0.000144461
0.000159735
3.88365e-05
0.00018484
0.000185471
0.0001436
0.000144891
0.000182697
0.000151707
0.000153786
0.000151012
0.0401171
0.000174996
0.0174649
0.000148858
0.000250134
0.00015436
0.000153228
0.000155025
0.000178964
0.00014376
0.000201738
0.0414384
0.00018795
0.0322172
0.000251089
0.00015298
0.000168633
0.0040346
0.000216675
0.000150918
0.000144041
0.000140434
0.0405667
0.000137367
0.000213299
0.000174871
0.00019978
0.000251911
0.000307408
0.000189424
0.0594918
0.000155676
0.000137654
0.00364331
0.0542744
0.00014876
0.00014918
0.000381158
0.000141414
0.00260525
0.000157447
0.000140386
0.000165702
0.000148944
0.000197962
0.0415411
0.0359834
0.000162064
0.000144479
0.000209833
0.000156565
0.000205682
0.000141466
0.000209969
0.000193477
0.000153724
0.00015221
0.000141397
0.000238308
0.00017963
0.00104421
0.0409691
0.000172897
0.0562458
0.00019113
0.000196586
0.0594948
0.000145264
0.0420794
0.000155567
0.0394265
0.032187
0.0398682
0.0586427
0.000155039
0.000193094
0.00427007
0.000150357
0.0294672
0.000150515
0.000149315
0.00016316
0.000153808
0.000169772
0.0252265
0.0451332
0.0358126
0.000165039
0.000186653
0.000156957
0.000153199
0.000150137
0.000220789
0.000195193
0.0446738
0.000189133
0.000149494
0.000139616
0.000154498
0.00391342
0.000162424
0.000155889
0.00016423
0.000213141
0.000170688
0.000189665
0.000176391
0.0457205
0.000172333
0.000172384
0.000146448
0.000163146
0.0155236
0.00510623
0.000192626
0.00014043
0.0483404
0.000174982
0.00014581
0.000187545
0.045953
0.00463661
0.000179165
0.000141502
0.0392725
0.000154076
0.000141385
0.000150315
0.0310569
0.0457037
0.00015288
0.0434048
0.0568269
0.000170974
0.000176461
0.000196384
0.0577477
0.00017434
0.0586087
0.000154294
0.00274704
0.000223587
0.0601854
0.00017457
0.00014271
0.0491551
0.000147231
0.000155952
0.0309554
0.0553284
0.000198855
0.0207967
0.000159767
0.000156447
0.0510615
0.000145833
0.000143137
0.000148895
0.000186719
0.000146177
0.000175448
0.000170933
0.00657378
0.0478176
0.000154045
0.0295254
0.000170018
0.0450069
0.0333983
0.000148819
0.000151412
0.000162321
0.000196815
4.76168e-05
0.000196253
0.0444574
0.0421495
0.000228882
0.000159859
0.0531082
0.0312924
0.000177612
0.0451967
0.000151736
0.000149172
0.000148556
0.000156692
0.000143671
0.000172517
0.0358972
0.000172782
0.000160182
0.0219802
0.0516564
0.0436217
0.0553763
0.000168286
0.0590199
0.000206706
0.000191282
0.000138475
0.000150806
0.000191301
0.0290802
0.000156192
0.0516899
0.0526652
0.000142267
0.000150038
0.000154231
0.000213463
0.00015461
0.00019816
0.0423613
0.000138728
0.000144196
0.000141844
0.000155077
0.000196364
0.0395466
0.000183066
0.0559976
0.00021741
0.000143896
0.000200992
0.000241045
0.00015862
0.0373855
0.0458242
0.044801
0.0269604
0.0327507
0.000149685
0.0524056
0.0407054
0.000155635
0.0566803
0.000143882
0.000159654
0.000161391
0.000157551
0.0590202
0.00019671
0.000151304
0.000168289
0.00279003
0.0392977
0.000158888
0.000165448
0.0541824
0.0554315
0.000150801
0.000170835
0.000212499
0.000144217
0.00014482
0.04268
0.000143866
0.0113999
0.000220156
0.0596304
0.000143441
0.000207853
0.000135686
0.000145244
0.000144841
0.0463823
0.0365789
0.000153727
0.000177428
0.00037037
0.00265172
0.0572717
0.0403891
0.00016566
0.00026992
0.00290677
0.000178646
0.000142279
0.000219929
0.000137787
0.000147421
0.0335507
0.000184162
0.000206738
0.000160968
0.000166108
0.000143004
0.000140289
0.000153814
0.000154956
0.0471823
0.000160348
0.0357733
0.0213912
0.000188502
0.000194597
0.0473708
0.0600904
0.0470669
0.000158086
0.000161921
0.000179252
0.000165128
0.00178613
0.00306951
0.000153581
0.0368431
0.0364244
0.000167932
0.000195952
0.000195693
0.00019762
0.000199121
0.000156604
0.000201157
0.000209987
0.000186018
0.000167253
0.00019881
0.000198472
0.000164351
0.000142309
0.000174074
0.000196343
0.00014382
0.0274654
0.0587056
0.00160376
0.0497057
0.000143649
0.000140875
0.00277112
0.0559653
0.00015454
0.000161616
0.000185383
0.0401639
0.00518343
0.000150443
0.000175954
0.000163537
0.00877551
0.00285542
0.000159154
0.0342565
0.0397716
0.00019998
0.0576246
0.000206151
0.00615073
0.0583598
0.000132637
0.0601295
0.0410666
0.00015667
0.000201386
0.00021249
0.000164505
0.000141863
0.000180773
0.0136081
0.000149382
0.000149668
0.0448815
0.0415512
0.000205304
0.000152372
0.0178174
0.000194043
0.0515
0.0318331
0.000149733
0.00014453
0.000154313
0.000154467
0.0590781
0.000679293
0.0548354
0.000194487
0.0314404
0.00660978
0.000153433
0.00014211
0.0388004
0.000143474
0.059153
0.000140954
0.0570257
0.000155745
0.000156218
0.000238967
0.000146318
0.000200987
0.00502805
0.000169834
0.000160346
0.000156333
0.000214959
0.0337689
0.000154712
0.0477449
0.000159747
0.000150222
0.000166908
0.000204325
0.0598889
0.0387036
0.000212947
0.00946707
0.00020611
0.0535109
0.000156166
0.000143687
0.000138895
0.000138502
0.0292074
0.0002115
0.00701512
0.000187478
0.000146893
0.000145326
0.0032974
0.000247207
0.00779221
0.000145169
0.000157125
0.000137437
0.0433484
0.000176958
0.000365187
0.0276228
0.000204555
0.0271531
0.000140904
0.000177123
0.000178759
0.0308658
0.0406669
0.000146839
0.000207869
0.000154326
0.000154083
0.000218298
0.0214286
0.0213614
0.000153071
0.000209029
0.00015878
0.0446747
0.024195
0.0596456
0.0599092
0.000143893
0.000194861
0.000151391
0.000209614
0.000146672
0.000216729
0.000158826
0.00018801
0.00340168
0.00551024
0.000153971
0.000216446
0.0416448
0.000197594
0.000159979
0.0295954
0.000195948
0.000150172
0.000156028
0.0593346
0.00017023
0.000229451
0.0375436
0.00622355
0.027819
0.00015273
0.0569631
0.041574
0.00941798
0.000167926
0.000173212
0.000200495
0.000199748
0.0595669
0.000200429
0.000153932
0.0452847
0.00018146
0.0251362
0.000170371
0.0322223
0.0134753
0.0485212
0.00016277
0.000341082
0.000162218
0.0363824
0.000200421
0.048836
0.0186253
0.000141283
0.000137775
0.0378527
0.060184
0.000179004
0.00015357
0.000188708
0.000171724
0.0572421
0.000215879
0.0404629
0.000166582
0.0392779
0.000218708
0.0101368
0.000153695
0.016915
0.0371812
0.000156278
0.00019242
0.000142352
0.000161053
0.000150158
0.001189
0.000145662
0.000149353
0.0585009
0.0543342
0.000138332
0.0599713
0.00015526
0.000150724
0.000145152
0.000142557
0.00015114
0.0382955
0.0564322
0.000139975
0.000107048
0.000190911
0.000181771
0.0447699
0.000194849
0.000165399
0.000169951
0.000143336
0.0016979
0.000174695
0.060014
0.000170844
0.0578564
0.0422881
0.000199195
0.0471249
0.0380865
0.000139723
0.0303227
0.000192948
0.000192667
0.000175409
0.000146403
0.000174858
9.51931e-05
0.000149639
0.000179249
0.000144284
0.0597431
0.00019163
0.0450377
0.00022584
0.00018898
0.058578
0.000151055
0.000146672
0.000188725
0.000158149
0.000151323
0.000151512
0.000169394
0.000144821
0.0001433
0.000157044
0.000189443
0.00015921
0.000169826
0.000157098
0.000174982
0.000194647
0.000160356
0.0601679
0.000159343
0.000144653
0.000196544
0.000178229
0.000156674
0.000144731
0.000136161
0.000156918
0.0368216
0.000157714
0.000215556
0.00014433
0.00014986
0.000215189
0.0578721
0.000191718
0.000181977
0.000139071
0.0512259
0.000150356
0.000143096
0.000193275
0.000159656
0.000132058
0.0422278
0.000200358
0.000229784
0.000188037
0.0272801
0.000150713
0.000150937
0.000199516
0.000207129
0.000187629
0.000211005
0.0379854
0.000170117
0.000150441
0.000167512
0.0167125
0.000184277
0.000149873
0.000198043
0.000194568
0.000195348
0.000150888
0.000149539
0.0060343
0.000196276
0.0480459
0.00700514
0.00016058
0.000194196
0.000150892
0.00017985
0.0412867
0.000152165
0.000686106
0.000174011
0.000204726
0.0137797
0.000149053
0.000149538
0.000143237
0.0590943
0.00781276
0.000160378
0.000215039
0.000199492
0.000150715
0.000150049
9.58081e-05
0.0597961
0.00599821
0.0397833
0.000133108
0.000168637
0.0388091
0.000201115
0.000169016
0.000351531
0.000193862
0.00034816
0.000149864
0.000194235
0.000210998
0.000155901
7.16699e-05
0.000185522
0.000213269
0.000169115
0.000179018
0.000144878
0.0292011
0.000159834
0.000139904
0.000144982
0.000139517
0.000157207
0.000156142
0.000141728