/*--------------------------------*- C++ -*----------------------------------*\
| =========                 |                                                 |
| \\      /  F ield         | OpenFOAM: The Open Source CFD Toolbox           |
|  \\    /   O peration     | Version:  v2012                                 |
|   \\  /    A nd           | Website:  www.openfoam.com                      |
|    \\/     M anipulation  |                                                 |
\*---------------------------------------------------------------------------*/
FoamFile
{
    version     2.0;
    format      ascii;
    class       surfaceVectorField;
    location    "450";
    object      ddtCorrDdt0(Uf);
}
// * * * * * * * * * * * * * * * * * * * * * * * * * * * * * * * * * * * * * //

dimensions      [0 1 -2 0 0 0 0];


internalField   nonuniform List<vector> 
20673
(
(-0.00520756 -0.00370347 2.28747e-18)
(-0.00533911 -0.00370537 -4.7077e-18)
(-0.00511062 -0.00356972 -1.48999e-18)
(-0.00188787 -0.00127117 -1.40653e-18)
(-0.00183246 -0.00127656 1.00963e-18)
(-0.00188502 -0.00134139 1.59921e-18)
(0.0237068 0.00534238 1.29397e-18)
(0.0243877 0.00577374 1.22377e-17)
(0.0240109 0.00585434 4.90982e-18)
(-0.00175236 0.00397513 1.23508e-19)
(-0.0018311 0.00383917 9.15574e-19)
(-0.00168368 0.00385938 -5.005e-19)
(-5.80532e-05 -0.000835625 -2.84502e-21)
(-5.31076e-05 -0.000843018 -5.96746e-19)
(-6.29723e-05 -0.000895986 -1.83471e-18)
(0.000312495 -0.00531985 -1.09366e-17)
(0.000255539 -0.00525545 1.55893e-17)
(0.000353068 -0.00543966 -2.59734e-18)
(0.0203108 0.00394465 -1.35626e-18)
(0.0206955 0.00406235 -4.80685e-18)
(0.0207937 0.00439935 3.11564e-18)
(0.0265042 0.00650065 1.61144e-17)
(0.0259648 0.00613964 5.2458e-18)
(0.0265386 0.00623286 5.72264e-18)
(0.0370368 0.000972223 -8.33922e-18)
(0.0362562 0.000690825 -8.21704e-18)
(0.0351405 0.000886245 7.19146e-18)
(-0.00614609 -0.00482433 -6.23251e-18)
(-0.00631345 -0.0048905 3.61027e-18)
(-0.00619146 -0.00500907 -8.95554e-19)
(-0.00735534 0.00865692 -6.58809e-18)
(-0.00732619 0.00876871 -6.48289e-18)
(-0.00753074 0.00868856 -2.1336e-17)
(-0.00666585 0.00717233 -2.7823e-18)
(-0.00674173 0.00723765 -1.48798e-17)
(-0.00672791 0.00709934 -1.1021e-17)
(-0.00183375 0.00404435 -1.94604e-18)
(0.02541 0.000438545 -9.52247e-18)
(0.0287579 0.000565544 4.127e-18)
(0.0249192 0.000630898 -9.55518e-18)
(-0.00175864 -0.00349715 -8.45479e-19)
(-0.00168382 -0.00352519 -1.62466e-17)
(-0.00169296 -0.00342725 -3.48966e-18)
(-0.00212138 -0.00312979 8.51593e-19)
(-0.00205926 -0.00308801 2.7265e-18)
(-0.00212041 -0.00303929 3.67806e-18)
(-0.001821 -0.00164189 5.15923e-18)
(-0.00184925 -0.00159954 3.8313e-18)
(-0.00179618 -0.00159903 9.37317e-19)
(-0.00892767 0.000437344 9.32593e-19)
(-0.00890937 0.000239349 9.21181e-18)
(-0.00912688 0.000388169 9.82765e-18)
(-0.00664502 0.00730052 2.60868e-18)
(-0.0065393 0.00717328 1.26286e-17)
(-0.000104149 -0.000257273 -3.38405e-19)
(-0.000100848 -0.0002425 -1.09176e-19)
(-9.04804e-05 -0.000234539 -4.91614e-18)
(-3.29982e-06 -7.95146e-05 1.68486e-18)
(-5.03936e-06 -0.000105887 1.59179e-18)
(-3.22671e-06 -7.68258e-05 -1.88637e-20)
(0.0200468 0.00371246 -1.58399e-18)
(0.0200072 0.00351043 -4.27064e-18)
(-0.000148182 -0.000494788 -7.41245e-19)
(-0.000165293 -0.00052683 3.84309e-19)
(-0.000162375 -0.000505189 -2.15877e-18)
(0.0267373 0.00679276 2.41096e-19)
(0.0271821 0.00691844 4.5359e-18)
(-0.000373918 -0.00131094 1.2545e-18)
(-0.000368345 -0.00133283 -1.54954e-18)
(-0.000398447 -0.0013471 1.8051e-18)
(0.0179324 0.00250594 -3.84311e-18)
(0.0176574 0.00214795 2.20003e-18)
(0.0179986 0.00234494 -8.04772e-19)
(-2.95204e-05 -0.00455421 2.86026e-17)
(-2.62309e-05 -0.00460558 -1.10896e-17)
(9.70594e-06 -0.00456919 5.35561e-18)
(-0.000166173 -0.0049767 -1.68702e-18)
(-0.000156374 -0.0050128 -1.82905e-17)
(-0.000163829 -0.0050131 1.19212e-17)
(0.00130511 -0.00696993 -6.70607e-18)
(0.00129306 -0.00728022 -2.0202e-17)
(0.00163548 -0.0071452 1.01884e-17)
(-0.00864166 -0.00454914 -5.02619e-19)
(-0.00878166 -0.00440814 -3.59913e-19)
(-0.00885415 -0.00460665 -3.18389e-18)
(-0.00589703 -0.00354207 4.58409e-18)
(-0.00575317 -0.00362522 1.91119e-18)
(-0.00571793 -0.00344267 -5.12099e-18)
(-0.00408186 -0.00255433 1.48348e-19)
(-0.00397629 -0.00259056 -1.05715e-19)
(-0.00399556 -0.00246147 -2.34243e-20)
(-0.000332986 -0.00435203 7.77341e-18)
(-0.000341768 -0.00441909 -4.55671e-18)
(-0.00028766 -0.00438662 -4.38251e-18)
(9.96742e-06 -0.00351291 2.78039e-18)
(4.16405e-05 -0.00346853 -3.41772e-18)
(-5.92856e-06 -0.00345662 -3.10756e-18)
(-0.000277365 -0.00145394 -5.45282e-18)
(-0.00029483 -0.00149738 6.6531e-18)
(-0.000302152 -0.00146021 -8.02744e-19)
(0.0194393 0.0108945 -3.2042e-18)
(0.0195645 0.0108877 1.29601e-18)
(0.0207127 0.0106124 3.59643e-18)
(-0.000136114 -0.000477035 -3.1491e-19)
(-0.00013913 -0.000462349 4.56904e-19)
(0.0267059 0.00215332 5.9412e-18)
(0.0267334 0.00190008 1.33037e-17)
(0.0265148 0.0020296 7.43549e-18)
(-0.00242257 0.00468895 1.83845e-18)
(-0.00250743 0.00481981 -9.25058e-19)
(0.0197246 -0.000518798 -3.30992e-19)
(0.0194877 -0.000503377 1.63122e-18)
(0.0198186 -0.000687245 -2.89823e-20)
(-0.000333127 -2.982e-05 4.67689e-19)
(-0.000342494 -2.6951e-05 -7.47473e-19)
(-0.000322686 -1.9158e-05 8.63642e-19)
(-1.3456e-06 -4.71923e-05 2.6593e-18)
(-9.15506e-07 -2.18823e-05 6.63592e-19)
(-4.57002e-07 -2.26113e-05 -1.81529e-18)
(-0.000305959 0.000356054 -1.00524e-19)
(-0.000325788 0.000329246 -1.69966e-19)
(-0.000292462 0.000327358 5.22746e-19)
(-1.05944e-05 -0.00532472 1.4064e-17)
(-4.71831e-05 -0.00541197 -3.19364e-17)
(6.16882e-05 -0.00546476 -3.98573e-17)
(-0.00207996 5.07886e-05 4.06099e-20)
(-0.00214854 4.21302e-05 3.32594e-19)
(-0.0021321 0.000103136 2.99887e-19)
(-0.0001507 -0.00376252 5.49557e-18)
(-8.05537e-05 -0.00376869 -8.44003e-20)
(-0.000118845 -0.00370118 2.96598e-18)
(-0.00897568 0.000681163 -4.68227e-18)
(-0.00873251 0.000532726 -1.21011e-17)
(-0.0104334 0.00293013 -1.85946e-17)
(-0.0102261 0.00277205 -2.27514e-18)
(-0.0101988 0.0030484 -1.00654e-17)
(-0.000689065 -0.00745256 -9.24159e-18)
(-0.000374883 -0.00605799 -7.61141e-18)
(0.000639655 -0.00617003 -1.7609e-17)
(-0.000143902 -3.28559e-05 3.86483e-20)
(-0.000156414 -2.9561e-05 1.05507e-18)
(-0.000155133 -4.56443e-05 -1.11847e-18)
(-0.00496482 0.00167242 5.92932e-18)
(-0.00503925 0.00158663 2.33703e-18)
(-0.00508153 0.00172793 -1.40026e-18)
(-0.000196975 -0.00238368 1.30809e-19)
(-0.000165744 -0.00241121 -1.26302e-17)
(-0.000213333 -0.00243477 1.87014e-18)
(0.000944298 -0.00797748 8.13634e-18)
(-0.000928417 -0.00767202 2.06265e-17)
(-2.13263e-05 -0.00355498 1.12274e-18)
(2.8012e-05 -0.0035674 1.10576e-17)
(-0.00183197 -0.00170155 7.96652e-19)
(-0.00176987 -0.0016609 3.05759e-19)
(-0.00501315 7.42746e-05 1.71691e-18)
(-0.00497059 -5.47513e-05 3.10474e-19)
(-0.00512209 -3.07381e-05 -2.82684e-18)
(-0.00752034 0.00869833 3.56962e-18)
(-0.0083206 0.00856611 1.04565e-17)
(-0.000862162 -0.00168341 5.01977e-19)
(-0.000831182 -0.00164375 3.44558e-18)
(-0.000870337 -0.00164633 8.53595e-18)
(-0.0042023 -0.000393824 2.41149e-18)
(-0.0043233 -0.000436507 -1.84319e-18)
(-0.00422139 -0.000532302 2.51644e-18)
(-0.00202269 1.27356e-07 5.26603e-19)
(-0.00200143 6.51806e-05 -3.77264e-19)
(0.0535733 0.00929863 -1.79414e-17)
(0.048473 0.00852561 4.41282e-20)
(0.0509035 0.00874752 -5.99046e-17)
(-0.00194179 -0.001227 -1.42024e-18)
(-0.00195051 -0.00130693 -4.01002e-19)
(0.025542 0.000473122 3.98178e-18)
(-0.000108305 -0.000270745 1.21743e-18)
(-0.000118473 -0.000278524 1.9004e-18)
(0.000376646 -0.00533953 -2.98029e-17)
(0.000382108 -0.00525885 -4.16572e-17)
(0.0371574 -0.00146836 -3.49162e-17)
(0.0429873 -0.000164899 7.10831e-18)
(0.0618457 0.0101022 5.90904e-17)
(6.80169e-06 -0.000895804 5.38002e-18)
(-7.13974e-06 -0.000953973 2.33262e-18)
(1.33244e-05 -0.00157496 -2.68742e-18)
(1.87421e-05 -0.00152333 6.02227e-18)
(-0.0150135 0.00638191 4.17009e-18)
(-0.014547 0.00682333 1.27642e-17)
(-0.0127746 0.00700282 -4.13609e-18)
(-0.00408162 -0.00403514 -4.7872e-19)
(-0.00418714 -0.00400827 -1.72414e-19)
(-0.00412651 -0.00414799 -7.14767e-19)
(-5.2327e-05 -0.000777994 -8.25039e-19)
(-6.43984e-05 -0.000827851 -1.93576e-18)
(0.0393171 0.00123638 -2.96065e-18)
(0.0378166 0.001185 -9.16322e-18)
(0.0255049 0.00017162 1.34866e-19)
(0.0257387 -1.31209e-05 -7.93083e-18)
(0.0254053 -5.0411e-05 2.8433e-18)
(-0.000383346 -0.00128402 -2.11838e-18)
(-0.000352977 -0.00126434 -2.98485e-18)
(-7.58009e-05 -0.00620521 -7.31524e-18)
(6.01698e-05 -0.00623967 5.70238e-19)
(0.000124207 -0.00618446 -3.08486e-17)
(-0.00700979 0.00811119 -4.69852e-19)
(-0.00687167 0.00817999 3.64759e-18)
(-0.00685693 0.00802202 3.67842e-18)
(0.0287766 0.000791768 -4.22168e-18)
(0.0286747 0.000808659 -1.03786e-17)
(0.0287683 0.000705137 -8.86384e-18)
(-0.00295981 0.0003843 1.16665e-18)
(-0.00305243 0.000377009 -1.6622e-19)
(-0.00300635 0.000283078 2.04902e-18)
(0.0159531 0.000642646 2.26269e-18)
(0.0160801 0.000769673 -4.35295e-18)
(0.0159103 0.000847776 -4.58337e-18)
(-1.06698e-05 -0.000155759 2.42948e-18)
(-1.36387e-05 -0.0001869 -1.47303e-18)
(-1.33398e-05 -0.000182307 2.94154e-18)
(-2.41107e-05 -0.000200732 -2.3972e-18)
(-2.9071e-05 -0.000219194 -1.14605e-18)
(-2.38899e-05 -0.00018983 3.05353e-18)
(1.32584e-06 -0.000845579 -1.20399e-19)
(0.000439524 -0.00532542 3.87306e-18)
(0.00031578 -0.0053399 2.37367e-17)
(0.000369332 -0.00531553 -1.74369e-17)
(0.0265446 0.00243265 1.63162e-18)
(0.0268142 0.00242936 -8.24875e-18)
(0.0180325 0.0048079 1.00687e-17)
(0.0152921 0.00435543 -1.41901e-18)
(0.0160381 0.00455578 1.86905e-17)
(-0.00286253 0.000375725 -1.16547e-18)
(-0.00290721 0.000466377 1.66456e-18)
(-5.18157e-05 -0.000256563 5.56675e-19)
(-5.28744e-05 -0.000240395 -9.05195e-19)
(-3.74388e-05 -0.000225809 1.50973e-19)
(0.0324353 -0.00311593 -1.04008e-17)
(0.00962734 -0.0149125 -4.24041e-17)
(-0.0048284 0.0017516 1.85444e-18)
(-0.00481695 0.00159744 -3.22496e-19)
(-0.000288873 0.000379134 8.6135e-20)
(-0.000323375 0.000381781 -2.18444e-19)
(0.0283866 0.000292225 3.77451e-18)
(0.0280781 0.0004721 1.07043e-17)
(0.028437 0.00038112 9.21847e-18)
(-0.00747334 -0.00495008 -4.24328e-18)
(-0.00731558 -0.00488231 -1.76543e-17)
(-0.00729701 -0.00503068 -3.49308e-18)
(-0.00143301 -0.000472235 -3.46638e-19)
(-0.00142191 -0.000421134 1.04392e-19)
(-0.00138217 -0.00045325 -7.34523e-20)
(-0.00112458 -0.00267226 -6.50319e-19)
(-0.00112597 -0.00273432 -1.68022e-18)
(-0.00117598 -0.00270625 7.69416e-18)
(0.0127779 -0.0101894 1.0816e-17)
(0.0456263 0.00364306 3.63636e-17)
(0.000170397 -0.00522408 -1.04219e-17)
(0.000365286 -0.00521684 -9.67488e-18)
(0.000332724 -0.0054 -1.85729e-17)
(-0.0102355 0.00726706 8.25516e-18)
(-0.0104403 0.00725421 4.12521e-17)
(-0.0102796 0.00751045 -4.84212e-19)
(-0.00987791 0.00219725 -2.54232e-18)
(-0.0100821 0.00207589 -1.19157e-18)
(-0.00988237 0.00195095 2.84626e-18)
(-0.00742243 0.00688314 -2.03969e-18)
(-0.00648232 0.00673806 1.37441e-18)
(-0.00722549 0.00691183 4.01153e-18)
(0.000372272 -0.00511996 -4.56493e-17)
(0.000313714 -0.00506641 3.31181e-17)
(0.000306292 -0.00515525 6.38717e-17)
(-0.000454063 -0.00011143 -8.64856e-19)
(-0.000465933 -0.000104132 1.27608e-18)
(-0.000470981 -0.000119537 1.40639e-18)
(7.0069e-05 -0.004197 -6.15669e-18)
(2.33046e-05 -0.0041726 6.45587e-18)
(6.31718e-05 -0.00413617 -2.26978e-17)
(5.90561e-05 -0.00532184 7.75033e-17)
(-7.94161e-06 -0.00521639 3.5519e-17)
(-0.00328232 0.000944092 -3.70033e-18)
(-0.00335586 0.000994967 3.51156e-18)
(-0.00326252 0.00105831 2.05676e-18)
(-0.000796358 -0.000192833 -6.13368e-20)
(-0.000776749 -0.000176863 1.76903e-19)
(-0.000808272 -0.00016959 1.25003e-19)
(0.0388548 0.000147784 6.52027e-18)
(0.0386571 2.65166e-05 -8.33509e-18)
(0.0418836 0.000546619 3.40312e-18)
(0.000514766 -0.00754969 1.84875e-19)
(0.000702453 -0.00742928 2.54221e-17)
(0.000647361 -0.00774913 7.28255e-18)
(-0.0106358 0.00304422 2.52284e-18)
(-0.0106386 0.00275475 -5.49512e-18)
(-0.00188725 -0.00154443 -2.32194e-19)
(-0.00193324 -0.00161039 6.06932e-19)
(-0.00573892 -0.00390975 5.22668e-18)
(-0.00561493 -0.00396107 3.49292e-18)
(-0.00572347 -0.00405682 6.33572e-18)
(0.0129573 -0.000677971 1.64699e-19)
(0.0119577 -0.000506261 7.83444e-18)
(0.0126689 -0.00059837 1.72688e-17)
(0.019495 -0.000537648 -3.54955e-18)
(0.0197119 -0.000570423 4.91694e-19)
(-0.00702778 0.00737028 2.26309e-18)
(-0.00702837 0.00739654 5.8409e-19)
(-0.00704261 0.00737388 -9.83401e-19)
(0.0386957 7.57183e-05 1.41227e-17)
(0.0364953 -0.000271793 -2.11007e-18)
(-0.000127654 -0.00278165 -7.11208e-18)
(-0.000154501 -0.00281417 4.00286e-18)
(-0.000114235 -0.0028309 -3.41199e-18)
(0.000272294 -0.00600578 -6.56348e-17)
(0.000335107 -0.00586443 -6.77555e-17)
(1.48047e-05 -0.00565166 -2.42085e-17)
(-0.000372137 -0.000906288 1.39008e-18)
(-0.000400951 -0.000937565 -6.79687e-18)
(-0.000380976 -0.000943185 -7.45492e-18)
(0.000615102 -0.00588095 -2.60515e-17)
(0.000489873 -0.00568472 -5.9506e-17)
(0.00059032 -0.00580393 -3.33886e-17)
(0.0217506 0.000598742 -8.17267e-19)
(0.0215692 0.000514607 2.20468e-17)
(0.0212563 0.000723594 7.73211e-18)
(-0.000125348 -0.00353133 3.19885e-18)
(-0.000157919 -0.00357954 -4.70276e-18)
(-0.000176027 -0.00351092 -1.64316e-17)
(-4.07628e-06 -7.19164e-05 -9.27563e-20)
(-3.17124e-06 -7.37991e-05 1.12481e-19)
(-0.015324 0.00596071 7.40487e-18)
(-0.0150666 0.00598131 1.13158e-17)
(0.0218606 0.000878199 -8.26608e-18)
(0.0209777 0.00109478 7.34526e-18)
(0.0224916 0.000900559 2.77489e-18)
(-0.000165358 -0.00489717 1.66219e-17)
(-0.000230326 -0.00492846 4.56579e-18)
(-0.000215062 -2.62283e-05 1.14881e-18)
(-0.000225506 -3.78663e-05 -1.08429e-18)
(-0.000227921 -2.20187e-05 -1.0404e-18)
(-0.00107184 -0.00262386 6.25896e-18)
(-0.00113421 -0.00259516 -1.67058e-18)
(-0.00199548 -0.000259728 -1.10263e-19)
(-0.00205627 -0.00028139 -8.40831e-21)
(-0.00201024 -0.00032122 -1.76772e-19)
(-0.000202521 -2.75012e-05 -4.14501e-19)
(-0.000192936 -1.29918e-05 2.29769e-20)
(-0.000314304 0.000134762 -5.54633e-20)
(-0.000292921 0.00014365 6.64283e-20)
(-0.000298359 0.000118983 -5.5477e-20)
(0.00016867 -0.00520872 2.64786e-17)
(0.0205075 0.00169103 2.23718e-19)
(0.0207161 0.00170264 1.52516e-18)
(0.0208396 0.00144202 1.04419e-18)
(-9.159e-05 -0.0027471 9.57857e-18)
(-0.000136331 -0.0027317 4.59704e-19)
(-0.00221386 2.75564e-05 -9.20686e-19)
(-0.00216207 -2.53253e-05 9.25885e-19)
(-2.71324e-06 -8.09572e-05 -1.41704e-18)
(-1.88332e-06 -5.29778e-05 6.52207e-19)
(0.0485474 0.00579467 2.60776e-17)
(0.040111 0.00511318 -2.09677e-18)
(0.0575836 0.00633866 6.53347e-18)
(0.0270673 0.00709445 -8.12457e-18)
(0.0262386 0.00659323 -1.63193e-17)
(-0.00519004 -0.00387342 5.18732e-18)
(-0.00503791 -0.00371463 4.15188e-18)
(0.000371832 -0.00516085 -5.62253e-17)
(0.000329181 -0.0051109 -8.79005e-17)
(-8.75974e-06 -0.00095508 -4.7545e-18)
(-6.76404e-06 -0.00100153 3.14661e-18)
(-6.95177e-05 -0.00354526 4.04352e-18)
(-9.19969e-05 -0.00348549 1.35971e-17)
(0.0184717 0.0112503 1.00761e-18)
(0.0179812 0.0113145 -2.63009e-20)
(0.0151128 0.0113619 4.13182e-18)
(-0.00108126 0.000144569 -1.99661e-19)
(-0.00110164 0.000117714 -2.01991e-19)
(-0.00106204 0.000112048 -1.98535e-20)
(-0.000412621 -0.00252896 3.13676e-18)
(-0.000437374 -0.00257204 -3.17375e-18)
(-0.000392149 -0.0025596 -5.17691e-18)
(0.000102127 -0.0053892 3.96741e-17)
(0.000193894 -0.00537198 3.08909e-18)
(0.000150534 -0.00547633 2.70867e-17)
(5.40733e-08 -0.00157554 -6.93739e-18)
(1.23327e-05 -0.00161675 -4.20948e-18)
(0.0452312 0.0036392 -1.45345e-18)
(0.0428755 0.00277851 -2.62103e-18)
(0.0457855 0.00327721 -9.83407e-18)
(0.00152728 -0.00783919 1.15876e-18)
(0.00126262 -0.00797446 -6.76498e-18)
(0.00124559 -0.0075722 -3.31392e-17)
(-0.000237763 -0.00236975 2.38694e-18)
(-0.000204961 -0.00233004 -2.22386e-19)
(-0.000932809 0.000183371 1.17656e-19)
(-0.000958632 0.00016155 1.38656e-20)
(-0.000923403 0.000150905 4.92878e-20)
(-0.00391654 -0.00283325 6.76725e-19)
(-0.00381636 -0.00286221 -5.25455e-19)
(-0.00390293 -0.00295839 -6.62672e-19)
(-0.00823342 0.00466178 -1.91645e-18)
(-0.00841426 0.00476543 2.21213e-18)
(-0.00833594 0.00450716 5.3872e-18)
(0.000397921 -0.00593772 -1.87333e-17)
(0.000379754 -0.00614742 6.59105e-17)
(-0.00815294 0.00691861 -6.40456e-18)
(-0.00831746 0.00698279 -4.69489e-18)
(-0.00815396 0.00706295 2.50961e-18)
(-0.00320336 -0.00505863 -1.73525e-18)
(-0.00325825 -0.00496086 2.78248e-18)
(-0.0033533 -0.00504371 -4.92933e-19)
(-0.00470036 -0.00135867 3.28524e-18)
(-0.004608 -0.00145698 2.65153e-18)
(-0.00456727 -0.00132053 -2.17857e-18)
(0.0152538 -0.00369481 9.38961e-18)
(0.0107357 -0.00185886 -6.09346e-18)
(0.0108327 -0.00145787 1.77002e-17)
(-0.00396419 -0.0040116 -3.30412e-20)
(-0.00405023 -0.00392502 8.10729e-19)
(0.0291915 0.0120337 5.11683e-18)
(0.0282836 0.0124874 -5.60923e-18)
(0.0272688 0.01247 -1.95151e-17)
(0.0293133 0.00106602 8.52733e-18)
(0.0285368 0.000823679 3.09789e-18)
(0.0384187 0.00154453 -9.97927e-18)
(0.0555146 0.00708605 1.74163e-17)
(-0.000665768 -0.00316817 3.04206e-18)
(-0.000677215 -0.00322884 -8.61052e-18)
(-0.000623899 -0.00320173 -6.10209e-18)
(0.000161785 -0.00452654 -1.53007e-18)
(0.000143501 -0.0045544 5.16235e-17)
(0.000180991 -0.00457348 2.14367e-18)
(-1.76934e-05 -0.000165036 1.35343e-18)
(-1.71334e-05 -0.000147939 -7.72445e-19)
(-5.08625e-06 -0.000128838 7.36073e-19)
(-0.00995764 0.007325 -4.87452e-18)
(-0.0100798 0.00706064 8.63601e-19)
(-0.00704149 0.00733565 -2.59133e-18)
(-0.00698063 0.00734011 1.76656e-17)
(-0.00765275 0.0069087 6.95101e-18)
(-0.0074559 0.00687735 7.13252e-18)
(-0.00330055 0.00084829 -6.06804e-18)
(-0.00321128 0.000903526 -2.68398e-18)
(-0.00916392 0.00352144 -9.09808e-18)
(-0.00908456 0.00371939 3.053e-18)
(-0.00934311 0.00368885 6.14671e-18)
(-0.00166461 3.46425e-05 -4.59635e-19)
(-0.00172634 3.30079e-05 4.41258e-19)
(-0.00169205 -2.51131e-05 -3.0457e-19)
(0.000111421 -0.00421758 -1.12464e-17)
(6.42949e-05 -0.00425286 1.39215e-17)
(-0.00376303 -0.0049719 -1.01678e-18)
(-0.00358304 -0.00494216 8.67296e-19)
(-0.00371304 -0.00479948 -4.0317e-19)
(0.00689634 0.000685662 -1.51285e-17)
(0.00663505 0.000736113 -1.43876e-17)
(0.0073462 0.000608803 -5.24844e-18)
(-0.00711087 0.00749953 -8.91798e-18)
(-0.00713475 0.0074616 -4.01724e-18)
(-0.00708635 0.00744715 -2.99125e-18)
(-0.00196509 -0.00192696 -1.40336e-18)
(-0.00201185 -0.00198762 -4.0302e-19)
(-0.00192854 -0.00199496 2.53438e-18)
(0.0426617 0.00674551 1.29632e-17)
(0.0433247 0.00631162 7.43215e-18)
(0.0435711 0.00730919 -5.35313e-19)
(-0.00302917 -0.00540635 1.85317e-18)
(-0.00296812 -0.00551199 -1.58712e-18)
(-0.003136 -0.00551407 -1.78665e-18)
(0.0203216 0.00167565 -2.42808e-17)
(0.0202722 0.00193599 -1.32216e-17)
(0.0010061 -0.00594524 2.78922e-17)
(0.000709231 -0.00626091 2.42579e-17)
(0.0449921 0.00402073 -6.31987e-19)
(0.0468045 0.00451606 -4.92892e-18)
(-0.00114571 -0.00093767 6.15965e-20)
(-0.00118455 -0.000943399 5.31212e-19)
(-0.00116653 -0.000976648 -2.99809e-18)
(-0.00761956 -0.00503596 -8.33608e-18)
(-0.00763204 -0.00488262 -6.38067e-18)
(-0.00601563 -0.00361071 5.70083e-18)
(-0.00603542 -0.00345124 2.05903e-18)
(-0.00108777 0.000179866 1.3099e-19)
(-0.0010534 0.000164424 -1.21405e-19)
(-5.2525e-05 -0.000265458 1.03992e-18)
(-5.95221e-05 -0.000283741 2.86066e-18)
(-0.00140501 -0.0041415 -2.70246e-19)
(-0.00132723 -0.00412 -6.55886e-18)
(-0.00138965 -0.00406226 -5.45917e-19)
(0.0179687 0.00274583 -4.4933e-18)
(0.0183185 0.00293466 -5.87903e-18)
(-0.00835992 -0.00663261 -7.94692e-18)
(-0.00885369 -0.0069344 -7.55168e-18)
(-0.00869972 -0.00695093 -1.65321e-17)
(0.0183503 -0.0038713 -1.82812e-17)
(0.0250986 -0.00224053 -1.24269e-18)
(-0.00686667 -0.000346547 -3.47346e-18)
(-0.00680177 -0.000492203 -4.69423e-18)
(-0.00698302 -0.000461326 -6.49686e-18)
(-0.00695963 0.0075268 1.59434e-18)
(-0.00697065 0.0074447 1.56756e-17)
(-0.00694938 0.00751753 4.27141e-18)
(0.0183701 0.0123385 -8.63908e-18)
(0.0202069 0.0120283 1.88011e-18)
(0.0204717 0.0124118 2.40404e-18)
(0.0206127 0.0059648 -2.26799e-17)
(0.0201959 0.00370101 2.67011e-17)
(-0.00728335 -0.0064435 -8.7209e-19)
(-0.00735404 -0.00643525 -1.41759e-17)
(-0.00774082 -0.00665501 1.11164e-17)
(-0.000148888 -0.000621603 2.5351e-19)
(-0.00013493 -0.00058123 -1.54488e-18)
(-0.000132744 -0.000593255 -1.5327e-18)
(0.00033763 -0.00507377 -4.15265e-18)
(0.000331162 -0.00508144 1.59897e-18)
(0.000366721 -0.00511681 -6.21294e-18)
(-2.89806e-05 -0.00450582 7.81369e-18)
(-8.49969e-05 -0.00453121 2.50204e-17)
(-0.000335834 -4.44788e-06 3.16782e-19)
(-0.000331157 -4.94875e-06 5.56806e-19)
(-0.00144158 -0.000513185 1.05392e-19)
(-0.00148311 -0.000481731 3.86868e-19)
(3.81709e-05 -0.00769085 2.25742e-18)
(-6.7962e-05 -0.00748591 -1.61803e-18)
(-0.000205756 -0.00771791 -5.25909e-18)
(-0.000972325 -0.0160612 4.20604e-18)
(0.000341951 -0.0170551 -1.1018e-17)
(0.0245676 -0.00441676 9.32497e-18)
(-0.00406986 0.00321522 -6.09979e-18)
(-0.00416301 0.00330561 -1.45095e-18)
(-0.0042111 0.00316557 1.16754e-18)
(-0.000135817 -3.96816e-05 -3.09109e-19)
(-0.000134686 -2.43867e-05 -9.22718e-19)
(-0.008625 0.00400069 3.33256e-18)
(-0.00845105 0.00386648 -3.69891e-18)
(-0.00871273 0.00377897 -1.60539e-17)
(-0.00814051 0.00483325 2.90998e-19)
(-0.0080378 0.00459618 -8.80967e-18)
(0.0256271 0.000360748 -7.866e-18)
(0.0252972 0.000358535 6.96102e-18)
(0.0423892 0.00577182 6.55315e-18)
(0.0390338 0.00570908 -2.87774e-18)
(0.0211423 0.00282161 4.08575e-18)
(-0.000263468 -0.00141352 -1.56727e-19)
(-0.000258049 -0.00144857 -2.81594e-18)
(-0.000860247 -0.0017489 -1.2786e-18)
(-0.000919004 -0.00171935 -2.24541e-18)
(-0.00967496 0.002319 -1.95696e-18)
(-0.00986065 0.00246282 -4.52294e-18)
(0.0202189 0.00411066 -1.54634e-18)
(0.0205824 0.00449866 -2.44221e-18)
(0.0208103 0.00459447 -4.51444e-19)
(-0.000408871 -0.00246692 1.39238e-17)
(-0.000458248 -0.00250941 6.36033e-18)
(0.0209508 0.00411716 -2.75888e-18)
(0.021247 0.0041727 -3.31152e-18)
(0.0215347 0.00456707 1.88403e-17)
(0.0252128 0.000760946 4.47125e-18)
(0.02526 0.000495341 3.21801e-18)
(0.0256584 0.000799505 -3.65949e-18)
(-0.0069398 0.00753958 2.28971e-18)
(-0.00697727 0.00761038 -9.46833e-18)
(-0.000778258 -0.000210022 -7.05904e-19)
(-0.000810452 -0.000214907 3.54706e-19)
(0.000740191 -0.0055727 6.52259e-18)
(0.000782124 -0.00568282 8.29008e-18)
(0.000807185 -0.00565088 3.68481e-17)
(-0.00903191 0.00259666 -3.76802e-18)
(-0.00925136 0.00251623 -4.4583e-18)
(-0.00905544 0.00237245 5.31164e-19)
(0.0127603 0.000304862 7.52242e-18)
(0.0129922 3.2316e-05 -5.38484e-18)
(0.0131928 0.000224092 1.24117e-17)
(-0.000588933 -0.00101368 -3.23638e-19)
(-0.000610994 -0.00100746 1.72568e-18)
(-0.00061285 -0.00104661 -1.41974e-18)
(0.058976 0.0104766 1.29574e-17)
(0.0571219 0.0102245 7.17134e-18)
(-0.00109615 -0.000938179 -1.11295e-18)
(-0.00111422 -0.000901393 2.21507e-18)
(-0.00941136 -0.0037389 -1.21879e-17)
(-0.00938681 -0.00353604 4.00257e-18)
(-0.00922365 -0.00366734 -1.07004e-17)
(-0.000328625 -3.75013e-05 5.04116e-19)
(-0.000324059 -2.87674e-05 4.49256e-19)
(0.0279205 0.00199985 3.3984e-18)
(0.0274413 0.00141784 -2.75701e-18)
(0.0272685 0.0022241 4.30267e-18)
(0.0385182 -0.000127906 5.3872e-18)
(0.0383019 -0.000417462 -2.8155e-18)
(0.0415717 0.000170567 2.34503e-17)
(-0.00214404 -0.00322598 -6.08241e-18)
(-0.00221301 -0.00316016 -4.89889e-18)
(-0.000368196 -0.01263 1.02254e-19)
(-0.00368831 -0.016584 2.28021e-18)
(-0.00119562 -0.0135379 -2.64437e-18)
(-0.00483541 -0.0013872 -3.20824e-18)
(-0.00476889 -0.00125314 -4.42438e-19)
(-0.000750832 -0.000227278 5.59749e-19)
(-0.000738971 -0.000199555 1.09784e-19)
(0.0181109 0.0111501 1.47255e-18)
(0.0193482 0.0107513 1.49253e-19)
(-0.00712696 0.00756126 2.01254e-18)
(-0.0070708 0.00753707 -5.43694e-19)
(-0.00675756 -0.000232718 -3.49029e-18)
(-0.0069179 -0.000198502 4.00366e-18)
(0.0256661 0.00681495 6.74814e-18)
(0.0250089 0.00627781 -3.28857e-18)
(0.025434 0.00687302 3.87088e-18)
(0.0248138 0.00073351 -6.03709e-18)
(0.0247037 0.00101112 1.17358e-17)
(-0.000413501 -3.15362e-05 -8.20991e-19)
(-0.000419298 -2.50012e-05 1.63107e-19)
(-0.000409849 -2.29339e-05 -7.64598e-19)
(-0.00416433 -0.00251431 -1.05725e-18)
(-0.00416804 -0.00262991 1.40458e-18)
(0.028585 0.000204989 -1.25532e-17)
(0.0287888 0.000298852 -1.06615e-18)
(0.0172737 0.00470169 1.0196e-17)
(0.015769 0.00436925 2.54431e-17)
(0.0171271 0.00445592 3.70586e-17)
(-1.5773e-05 -0.000164517 -7.38164e-20)
(-1.657e-05 -0.000192593 3.80212e-19)
(-0.000368276 -0.000387181 -7.33714e-19)
(-0.000390531 -0.00038612 1.24519e-18)
(-0.000387059 -0.000406434 2.58521e-19)
(0.0200329 -0.000673806 -2.26089e-17)
(0.0197218 -0.000745454 -1.60388e-17)
(-0.0112493 0.00735933 1.66691e-17)
(-0.0108965 0.00746977 6.52065e-19)
(-0.011805 0.00764049 3.65682e-18)
(-2.19116e-06 -5.14601e-06 5.69836e-19)
(-9.81316e-07 -3.89029e-06 -1.14914e-19)
(-2.13507e-06 -6.46401e-06 -5.97403e-19)
(0.0148028 0.0107785 -2.73626e-20)
(0.0142676 0.0103484 -2.37856e-18)
(0.0109831 0.0107406 2.60269e-18)
(-0.0115342 -0.000834629 -2.16018e-18)
(-0.0116503 -0.000565782 2.39517e-18)
(-0.0113623 -0.000586169 1.11578e-17)
(0.000168127 -0.00448405 -3.32553e-17)
(0.000188898 -0.00452468 -2.13573e-17)
(-0.0051994 -0.00321305 -2.96528e-19)
(-0.00514108 -0.00332005 7.59675e-19)
(-0.00532315 -0.00314574 4.20081e-19)
(-1.80939e-05 -0.000174215 -2.51336e-18)
(-1.53534e-05 -0.0001446 -3.9887e-18)
(-0.0023853 -0.00556624 6.00399e-18)
(-0.00241332 -0.00539479 -5.15436e-18)
(-0.00224342 -0.00545292 -1.81622e-18)
(0.0266207 0.000749461 4.1276e-18)
(0.0268463 0.000809868 -6.28101e-18)
(0.0269356 0.000946395 5.39205e-18)
(-0.00124107 0.00159233 3.55648e-19)
(-0.00120502 0.00167294 1.08214e-18)
(-0.00129997 0.00166459 1.41964e-18)
(-0.00755824 -0.00558849 2.07294e-18)
(-0.00741141 -0.0055405 -6.62779e-18)
(-0.00756888 -0.005438 -7.10406e-18)
(0.000378621 -0.00519894 6.20516e-18)
(0.000347626 -0.00525505 7.12372e-19)
(0.000380792 -0.00527614 1.61581e-17)
(-0.00193424 -0.000237201 3.25687e-20)
(-0.00197645 -0.000194251 -1.28338e-20)
(-0.000811563 -0.00162939 -4.22907e-19)
(-0.000824384 -0.00164995 -6.72572e-19)
(-0.00763212 0.00639145 1.44823e-17)
(-0.00777601 0.00645597 4.84779e-19)
(-0.00762987 0.00653897 5.479e-18)
(0.0188924 -0.00074622 1.68087e-18)
(0.0193055 -0.000756236 4.28837e-19)
(0.019246 -0.000751807 -2.15912e-18)
(-0.00797043 0.00690395 -5.75118e-18)
(-0.00813274 0.00676082 -7.78327e-18)
(-0.00147534 -0.00418129 5.64035e-18)
(-0.00139838 -0.00424869 4.44341e-18)
(-0.00183072 -0.00345128 1.21195e-17)
(-0.00182171 -0.00355137 3.3977e-18)
(-2.13794e-06 -1.13172e-05 -1.98797e-18)
(-1.98973e-06 -9.79266e-06 7.45277e-19)
(-7.34766e-07 -6.52914e-06 1.94458e-18)
(0.0231938 0.000789525 6.13893e-18)
(0.0216239 0.000825681 -1.69142e-17)
(0.0557139 0.00268609 2.35571e-18)
(0.0583481 0.00331221 4.95152e-18)
(0.058564 0.00322422 -3.26031e-17)
(0.014966 0.00778666 -4.12111e-18)
(0.0156438 0.0079979 -4.97355e-18)
(0.0158717 0.00727414 1.68328e-18)
(-0.000733171 -0.000243732 4.03309e-19)
(-0.000763896 -0.000244525 8.27923e-19)
(0.0214496 -0.000102345 9.83071e-18)
(0.0216269 -0.000451848 1.60459e-17)
(0.0211749 -0.000338742 6.47325e-18)
(0.0281163 0.000506724 1.38928e-18)
(0.0280933 0.000562609 1.07818e-17)
(0.028968 0.000495776 2.99318e-18)
(0.031587 0.0115265 9.93226e-18)
(0.0301774 0.0114859 4.08963e-18)
(0.015844 0.000495373 1.25273e-17)
(0.0160813 0.000451753 6.78452e-18)
(-0.00711566 0.00800884 2.39279e-19)
(-0.0071541 0.00815785 -1.36939e-18)
(-2.19987e-05 -0.000207965 1.75272e-20)
(-0.000268083 -2.76331e-05 1.09762e-19)
(-0.000256895 -2.94749e-05 5.71909e-20)
(-0.00027224 -4.21684e-05 1.18357e-18)
(-0.00900369 0.00085727 -2.61438e-18)
(-0.0088219 0.000961948 -3.97036e-18)
(-0.0090325 0.0010693 -4.87389e-18)
(0.0288073 0.00137919 -1.34959e-17)
(0.0285497 0.00118499 1.8949e-18)
(0.0287018 0.00125738 -3.93888e-18)
(-0.0132133 0.00282767 2.97825e-18)
(-0.013288 0.00249436 -9.26897e-18)
(-0.0135047 0.00281143 -1.49087e-17)
(-0.00407796 -0.000365828 -2.2034e-18)
(-0.00417259 -0.000274729 5.14513e-19)
(0.0452166 0.0061785 7.5052e-18)
(0.0524841 0.00605698 9.69576e-18)
(-0.0049591 0.00733328 -2.05563e-18)
(-0.0048096 0.00728294 -1.98081e-18)
(-0.000267874 9.01088e-05 1.35815e-19)
(-0.000282897 0.000104819 -6.25423e-20)
(-0.000259712 0.000110816 -1.1325e-19)
(0.0661853 0.0063134 1.65107e-17)
(0.0656444 0.00574585 1.07013e-17)
(0.0639939 0.005029 1.07005e-17)
(-0.000120142 -0.000244527 1.94553e-18)
(-0.000116874 -0.000231451 -1.40527e-18)
(-0.000106275 -0.0002251 -8.51348e-19)
(0.0420043 0.00697923 -3.55259e-19)
(0.0408685 0.00596264 3.55322e-18)
(-0.003962 0.00309666 -1.55649e-18)
(-0.00391179 0.00323658 -8.1178e-19)
(-2.38136e-06 -3.97989e-06 2.04283e-18)
(-3.71824e-06 -6.35745e-06 1.43101e-18)
(-0.00243129 -0.00348237 -2.618e-18)
(-0.00246098 -0.00358448 2.27864e-18)
(-0.00235661 -0.00353084 -2.25125e-18)
(-0.00315532 -0.00517329 -9.57537e-19)
(-0.00307311 -0.00505464 2.86199e-18)
(8.93997e-05 -0.00454837 -7.41847e-18)
(0.000118489 -0.00450024 2.62037e-17)
(0.0168861 0.0103844 3.08218e-18)
(0.0154841 0.0111117 -1.22503e-18)
(-0.00262354 -0.00427142 -3.2943e-18)
(-0.0026399 -0.00439034 4.44018e-18)
(-0.00251833 -0.00431734 -1.41562e-18)
(-0.00177379 0.00125801 4.68258e-19)
(-0.00185307 0.00122405 8.6869e-19)
(-0.0017808 0.00118408 7.50169e-19)
(-0.0256797 -0.00714051 9.38497e-18)
(-0.025559 -0.0074271 9.56858e-18)
(-0.0249819 -0.00717413 -1.34914e-17)
(0.0263558 0.0072913 3.35416e-18)
(0.0258234 0.00665167 1.01014e-18)
(0.0520587 0.00169075 2.74513e-18)
(0.0529313 0.00185251 -1.85315e-18)
(-0.000568938 -0.0010272 -9.07576e-19)
(-0.00055896 -0.000988961 -2.35588e-19)
(0.0345305 0.0113028 -4.08279e-18)
(0.0331799 0.0117442 4.46759e-18)
(0.0357118 0.0111219 -2.40111e-18)
(-8.73469e-06 -0.000488297 8.85373e-19)
(-7.89061e-06 -0.000497861 -1.1834e-19)
(-5.32805e-06 -0.00053921 -2.29118e-18)
(-0.00170688 0.00130707 -9.25424e-19)
(-0.00178753 0.00134752 3.34386e-19)
(-0.000342579 -0.000872628 6.87634e-18)
(-0.000361126 -0.000870137 1.03313e-17)
(0.00171368 -0.00790285 5.45347e-18)
(0.00170337 -0.00764682 5.27209e-18)
(-6.83162e-05 -4.0971e-05 1.79389e-18)
(-7.38294e-05 -3.56688e-05 7.28736e-19)