/*--------------------------------*- C++ -*----------------------------------*\
| =========                 |                                                 |
| \\      /  F ield         | OpenFOAM: The Open Source CFD Toolbox           |
|  \\    /   O peration     | Version:  v2012                                 |
|   \\  /    A nd           | Website:  www.openfoam.com                      |
|    \\/     M anipulation  |                                                 |
\*---------------------------------------------------------------------------*/
FoamFile
{
    version     2.0;
    format      ascii;
    class       volScalarField;
    location    "450";
    object      nut;
}
// * * * * * * * * * * * * * * * * * * * * * * * * * * * * * * * * * * * * * //

dimensions      [0 2 -1 0 0 0 0];


internalField   nonuniform List<scalar> 
13917
(
0.000509817
0.00206766
0.0192488
0.00219645
0.00672423
3.57379e-05
0.0198207
0.0162474
0.0163349
0.000352071
0.00107324
0.00121198
0.00214906
0.000921252
0.000618789
0.000835197
0.00209787
0.000854488
0.00133093
0.00672261
0.00672564
0.0197956
0.00672358
0.0185397
0.0067364
0.0201166
0.000164935
0.000113534
3.13353e-05
0.000484237
0.000556042
0.000825382
0.000224994
0.000578424
0.00539028
0.00952668
0.00672348
0.012301
0.00184023
0.00346657
0.006739
0.00672611
0.00674401
7.64848e-05
0.00294396
0.00049757
0.000896303
0.000973797
5.18779e-05
0.00672068
0.00137145
0.00195442
7.44193e-05
0.000519174
0.00192747
0.00120846
0.00108059
0.00319
0.00129711
0.00294085
0.00611669
0.00230611
0.000284023
0.00672252
3.746e-05
0.000766704
0.00672457
0.00613691
0.000985273
0.000426669
0.00672396
0.0159276
0.00946561
0.00661608
4.35554e-05
0.0012935
0.00479642
0.00206703
0.0202826
0.00672495
0.00672436
0.00672424
3.59109e-05
0.0141151
0.00878385
0.00217985
0.00672398
0.000330505
0.00151021
0.00674604
0.0114395
0.000410852
0.00436581
0.00118561
0.000445325
3.63681e-05
0.00118114
0.000934047
0.0011842
5.82816e-05
0.00672767
0.000256248
7.34662e-05
0.00187144
0.00674535
0.0146082
4.51939e-05
0.000952325
0.00204702
0.000485347
0.0106144
0.00452952
0.00139675
0.0164023
0.00119576
4.66794e-05
0.00672844
3.92343e-05
0.00577599
0.000532146
0.00672583
0.000811472
0.00648598
0.00013385
0.00672437
0.0012805
0.00290215
0.00672493
0.0067331
3.55464e-05
0.013581
0.00117225
0.00291092
0.0067258
0.00232785
0.0185
0.000498493
5.25992e-05
0.00672477
0.000554191
0.00633039
0.00652524
0.00145198
6.00069e-05
0.00512161
0.0134692
4.13614e-05
0.00183976
0.00677112
0.00068357
0.00106697
4.75406e-05
0.00110993
0.000325017
0.000978325
0.00313689
0.000487182
0.0109755
0.00286726
0.00256891
0.00078915
0.000157706
0.00672502
0.00108922
0.00135154
0.00118587
0.00182786
0.00106436
0.00382549
0.000254607
0.000321531
0.003773
0.00136815
0.00160528
0.0121828
0.000281095
0.0148413
4.11747e-05
0.013303
0.00461878
0.000411312
0.000556791
0.00660596
0.00672382
0.000426984
0.0201707
0.000373247
0.00280601
0.000884247
0.000998194
0.0061373
0.00852771
0.000288533
0.00672373
5.52328e-05
0.00016436
0.00400665
0.00414639
5.15074e-05
0.000104388
0.00159888
0.00672068
0.00102388
0.00113988
0.00732475
0.00260907
0.00640698
0.00336216
0.000955155
0.0197621
0.00169659
0.0197301
0.00368292
0.0014145
0.00674386
2.71569e-05
0.00100909
0.00431778
0.00673572
0.00623865
0.00482659
0.000567372
0.00673011
0.0130251
0.0147097
0.000761951
0.000211024
0.00102324
0.00674237
0.00871263
0.00134806
0.000938828
0.0186017
0.00225
0.00672688
0.000773412
0.0132138
0.00702886
0.0067248
0.00672433
0.00525665
0.000768357
0.00672561
0.00476844
0.000827568
0.000155682
0.00056604
0.00672484
0.000235896
0.00299469
0.00383716
0.000353041
4.91298e-05
0.00303324
0.0033599
0.00116883
0.00877116
0.00109456
0.000367757
0.000673712
0.00672571
0.00410768
0.0096342
0.0081433
0.00674088
0.00821604
0.00289973
0.0106811
0.0200856
0.00133844
0.00672459
0.00672197
0.000922178
0.00995677
0.000889363
0.00135156
0.00387561
0.00142849
0.00673294
0.00659758
0.00672219
0.0149886
0.0016371
0.00672543
0.000614387
0.000300087
0.000168284
0.00603893
0.000396104
0.00319783
0.000195742
0.0184206
0.00854284
0.00673508
0.0112075
0.00672374
0.00338471
0.0067275
3.12314e-05
0.00672091
0.000573531
0.000599369
0.00396431
0.00127093
0.0014861
5.08501e-05
0.000306937
0.000416966
0.00465241
0.00364979
0.00970608
0.00532987
0.00672927
0.00672599
0.00609509
0.0042787
0.0107998
0.0052049
0.0141771
0.00293748
0.00017665
0.00131974
4.62839e-05
0.000829932
0.000449806
3.46816e-05
0.000671976
0.00140015
5.19263e-05
0.00194448
0.0124886
5.59227e-05
0.00420228
0.000645776
0.00338495
0.000719513
0.0118704
4.0976e-05
8.64533e-05
8.9941e-05
0.0188062
0.00672449
0.00033987
0.0119215
0.00227028
0.0011085
0.00340383
4.7499e-05
0.00183483
0.00394603
3.11572e-05
0.00672422
0.00405978
0.00750199
0.00672217
0.0067314
0.00672388
0.00677202
0.000286856
0.0123111
3.13473e-05
0.0112254
0.00673156
0.00034644
0.00114849
0.0010712
0.019728
0.0120388
0.0163528
0.00673206
0.00709374
0.00673283
0.00537614
0.0030432
4.62862e-05
0.000792445
0.00184426
0.00672413
0.000974441
0.000391716
0.000899959
1.48071e-05
0.0115063
0.00221186
0.000217437
0.00037387
0.0067237
0.00730436
0.0198322
0.00289147
0.000238936
0.00672958
0.000170464
0.00300868
0.0067247
0.001378
0.0202801
0.00140606
0.0110914
0.00147465
0.000934659
3.32532e-05
0.00207403
3.21457e-05
3.14647e-05
0.00672429
4.73612e-05
0.00246569
0.00673374
0.000497816
0.00672546
0.00637147
0.00673301
0.000740461
0.00672519
0.00480835
0.0206513
0.0010246
0.000316481
0.013856
0.00432051
0.0011594
0.00672992
0.000832814
0.0018077
0.000727325
0.00672401
0.013692
0.019902
0.0204588
0.00074312
0.000848023
0.00072187
0.00182306
0.000899173
0.00137599
0.00754933
0.00208167
0.00672218
0.0125692
0.0142458
0.0153191
0.000251587
0.000603622
0.0144267
0.0129758
0.00461222
0.00673258
0.000960738
0.00140395
0.00281352
0.00114529
0.000908021
0.00680604
0.000691896
0.00112347
0.00435351
0.00672452
0.00100208
0.000865844
0.000379861
0.00718916
0.00672535
0.00308025
0.00687532
0.00045221
0.00673024
0.0201453
3.42146e-05
0.000443022
0.00604145
0.00124668
0.00142089
0.0139625
3.3459e-05
0.000872488
0.00725587
0.00104729
0.000609834
0.00100007
0.00136631
0.0011895
3.77848e-05
0.00134161
0.000922148
0.00678557
0.00189456
0.00125643
0.00682278
0.000478022
0.00222461
0.00515329
0.0162298
0.00484066
0.00673908
0.0196185
0.00248301
0.00672546
0.00455258
0.00228748
0.000326252
0.00462485
0.00642872
0.00783236
0.000770898
0.00212056
0.0157606
0.000326104
0.00171144
0.00672567
0.00391425
5.56222e-05
0.00612822
0.00681905
0.00848485
0.0128623
0.00124268
0.00673239
0.00204099
0.00135498
0.000647475
0.00679673
0.00673002
0.00672068
0.00672083
0.0062109
0.00153218
0.0010926
0.000390145
0.00673371
0.00672663
0.000848946
0.0163248
0.000884499
0.00342083
0.00673429
0.0067282
0.00687408
0.00791958
0.00672384
0.00672897
0.00672847
0.00128747
0.00128606
0.00288456
0.00131792
0.00075295
0.000994047
5.50173e-05
0.000440369
0.000819859
0.000902373
0.00344985
0.000426995
0.00673399
0.00428254
0.00672769
0.0010154
0.00181904
0.00160455
0.000136403
0.00672801
0.000282033
0.000486731
0.000320259
0.00101861
0.000236308
0.00111156
0.00672385
0.0132088
0.000203819
0.0189724
0.002191
0.00110032
0.00047131
0.0128123
0.000325765
0.00093351
0.000243677
0.000759867
0.00130238
0.00301407
0.000138101
6.97159e-05
0.0025663
0.000990545
5.05837e-05
0.0190843
0.0022636
0.00109748
0.00112643
0.00643667
0.000616962
0.00159316
3.1078e-05
0.011461
0.0162406
0.000404846
0.00673391
0.00518772
0.00140932
0.00673875
0.000822773
0.00107785
0.000239585
0.000498573
0.0201722
0.000924782
0.00133006
0.0133618
0.00178019
0.00302644
0.00672502
0.00672369
0.0123835
0.014065
3.45718e-05
0.0017941
0.0016091
0.00672819
0.00136704
5.2234e-05
0.0010102
0.00125099
0.00098649
0.000995349
0.00456759
0.000200539
0.00140026
0.00927288
0.00673961
0.000877762
0.00191429
0.00133306
0.000390039
0.000144818
0.0010546
0.00672227
0.00679976
0.00279087
8.96821e-05
0.000370896
0.000716145
1.54804e-05
0.00104886
0.00672369
0.0008141
2.97415e-05
0.0104026
0.0037859
0.000479982
0.00672918
0.0016237
0.00123654
0.0145767
0.00672476
0.000112543
0.00156689
0.00108761
0.000360694
0.00928409
0.000152226
0.00217138
0.00864687
0.00057961
0.00304074
0.00193158
0.00693406
0.000406321
0.000950405
0.00672482
0.00208869
0.000159015
0.00189107
0.000900648
0.00120824
0.00680549
0.0011454
0.019108
0.00400446
0.00249517
0.00672072
0.00467879
0.0067256
0.000822824
0.00446265
0.00110058
0.0111197
0.00100854
0.00020396
0.0067208
0.000237685
0.00672682
0.00059032
0.00672205
0.000188146
0.00221443
0.000670269
1.60193e-05
0.0161816
0.00685335
0.00672413
0.000438201
0.000518087
0.00588961
0.016754
0.000871854
0.00671149
0.000760595
3.08324e-05
0.00842777
0.000629881
0.000937848
0.0204466
0.000489063
0.00145904
0.00066393
5.83693e-05
0.000838366
2.92712e-05
0.000799091
0.00211381
0.00106037
0.000615685
0.00536943
0.00154977
0.000489306
0.000729595
0.00672738
0.00672689
0.0010254
0.00197796
0.000814329
0.00608311
0.00672812
0.00672576
0.00134284
0.00675971
0.00097756
0.00672079
0.00597873
0.00132851
3.71929e-05
0.00672832
0.00672526
0.000135756
0.000660929
0.00131722
0.00858166
0.000269843
0.00351457
0.00156685
0.000821442
0.00244275
0.00672572
0.00672089
0.00134769
0.00243332
0.00672541
0.0069624
0.000861633
0.0015557
0.000186682
0.000266782
0.00109166
0.00675173
0.00672624
0.0013078
0.00523471
0.00171157
0.00741202
0.00152951
0.00672379
0.00103159
0.00672355
0.0067444
0.000787055
0.000399151
0.00356776
0.000602693
0.0041684
0.00673368
0.0144478
0.000100811
0.00222446
0.00238202
0.00766271
0.00686703
0.00247952
0.000261234
0.00211193
0.00672648
0.00674212
0.00135667
0.000545133
0.00125708
0.000591302
0.0108476
0.00215137
0.000940696
0.00190707
0.00672909
0.00141225
0.00350621
0.00672185
0.000484398
0.000148389
0.00218919
0.0137808
0.00678261
0.000388494
0.00673484
0.00677608
0.00144654
0.00592285
0.00672544
0.00268951
0.00677078
0.000522807
0.00507276
0.00511169
0.000591825
0.00312055
0.0162021
0.000661314
0.00672575
0.00674453
0.00338723
0.00670798
0.00244658
2.28582e-05
0.00413393
0.0055532
0.0180701
0.0123523
0.00128073
0.00049366
0.000910653
0.00144641
0.00625547
0.000403584
0.00640394
0.000171775
0.00672378
0.00242514
0.0167123
0.00106308
0.0125249
0.00672558
0.00121168
0.00351928
0.00113794
0.00212408
0.00214371
4.06775e-05
0.00674439
0.000666926
0.00672097
0.00331667
0.00673082
0.00975883
0.00675749
0.00387367
0.00631853
0.0168322
0.00187053
0.000320354
8.67193e-05
0.00486125
0.000254959
0.00672373
0.0115707
0.00672498
0.00389671
0.0067238
0.000904966
0.00672364
0.00100794
0.00445463
0.0185222
0.000486462
0.00676222
0.005974
0.00376288
0.00355926
0.00637674
0.00742783
0.0137205
0.0181599
0.000210683
0.000775053
0.00213754
0.0200289
0.0011116
0.0196223
0.00681715
0.0043788
0.00234257
0.0067236
0.00135955
0.000312997
0.00682723
0.00449648
0.00672715
0.00169608
6.31156e-05
0.00352629
0.000211981
0.000947429
0.00266009
2.2281e-05
0.000160467
0.000870058
0.00211947
0.00418005
0.00293363
3.89447e-05
0.00525837
0.000365046
0.000506998
0.00732878
0.0158252
0.00139735
0.00449093
0.00237629
0.0021081
0.00674039
0.0013264
0.00673046
0.000815783
0.000443046
0.00613353
0.00114487
0.00392174
0.000863612
0.0133709
0.00049869
0.00188847
0.00364226
0.00399145
0.00181491
0.00019918
0.00554366
0.00672377
0.00674004
0.019638
0.0042877
0.00589627
0.000927839
0.00888394
0.00674004
0.000918048
0.00192409
0.00672529
0.00188252
0.0202255
0.0041577
0.00539622
0.00674662
0.00330232
0.00779814
0.00160594
0.0010499
0.00562672
0.00188633
0.000900573
0.0046755
0.000596665
0.000101292
0.0157262
0.00313984
0.000171881
0.00102412
0.00824319
0.0128501
0.0061556
0.00928993
0.000926436
3.89572e-05
0.00672373
0.0199744
0.00672512
0.00110524
0.000465849
0.000976874
0.0197725
0.00990088
0.00012189
0.0113587
0.00672289
0.000366637
0.00496785
0.000644461
0.0195473
0.00268522
0.00672535
0.00168892
0.0028081
0.00679595
0.00674567
0.00672367
0.00112552
0.000569564
0.00106362
3.22373e-05
0.0011939
0.00239998
0.00134016
0.00103625
0.00138556
0.00719535
0.00121109
0.00306629
0.0200216
0.00163542
0.00464977
0.014414
0.00887864
0.00189056
0.00082909
0.0008527
0.00283666
0.00138174
0.00241232
0.000461671
0.00672627
0.000988884
5.54599e-05
0.00673164
0.000679278
0.00475039
0.0001698
0.00672204
0.000514547
0.000929104
0.00192992
0.00306935
0.00509507
2.59955e-05
0.000333265
0.01079
0.0055591
0.00240122
0.00102642
0.00364365
0.000636617
0.000336752
0.00298938
0.00082471
0.00500934
0.00650019
0.00206022
0.00143084
0.00454935
0.00036562
0.00674171
0.00109695
0.00291357
0.00672491
0.00672908
0.00838929
0.0115319
0.000738551
0.000188417
0.00672244
0.00307968
0.020128
0.00159003
0.00675189
0.000798188
0.00495842
0.00911816
0.00672429
0.00674869
0.0022654
0.00118753
0.0110565
0.00244823
0.00196628
0.00673913
0.000660807
0.00672112
3.13942e-05
0.000703731
0.00672567
0.0135424
0.000209012
0.00024891
0.0154953
3.19472e-05
0.00572498
0.00196698
0.00301082
3.54485e-05
0.000583099
0.0108598
0.00529749
0.000860679
0.0195161
4.29409e-05
0.00102129
0.000774034
0.000165574
3.56696e-05
0.0195862
0.000137898
0.000326086
0.015257
0.00122771
0.000757208
0.00779186
0.000105622
0.00681423
0.00189408
0.00453104
0.000370847
0.00509104
0.000221949
0.000631278
0.000539948
0.00787865
0.0011455
0.0111195
0.00138356
0.00868911
0.000778149
0.000350495
0.000984897
0.00520177
0.00166014
0.0181231
0.0067287
0.000789559
0.00676784
0.0013431
0.00428312
0.000266785
0.00118484
3.94813e-05
0.000170562
9.64e-05
0.0202417
5.78165e-05
0.00422342
0.00739184
0.020358
0.00676549
0.00672988
0.000995152
0.0033706
0.00672529
0.000797034
7.08005e-05
0.000328099
0.00343214
0.00226249
0.00435313
0.000863536
0.000323802
0.00672084
0.000614805
0.0203554
0.000251229
0.00332209
0.00147643
0.000265377
0.00116928
0.001426
0.0191294
0.00482113
0.00140747
2.05365e-05
0.00082024
0.0067259
0.00360304
0.00265616
0.00466198
0.00135875
0.000252901
0.00674054
0.00136824
0.00672375
0.00100521
0.00518595
0.000288947
0.0014345
0.000421982
0.00394265
0.000312714
0.00369119
0.0183096
0.00673068
0.000573652
0.00672377
0.000146727
0.00773434
0.00118776
0.00674226
0.00129442
0.00320641
0.000732024
0.011221
0.00345335
0.00181039
0.000584666
0.0008517
0.0196257
0.00674086
0.000473842
0.00229372
0.00672653
0.000303629
0.00183867
0.00672935
0.000912687
0.00384729
0.00115977
0.00339636
0.0137236
0.000817778
0.0123473
0.00122984
0.00672855
0.000401931
0.00251172
0.00227981
0.000378758
0.00122368
0.000318055
0.00674521
0.000563361
0.000694801
0.000805317
0.00676406
0.00674274
0.000246379
0.0016973
0.00672609
0.000240912
0.00680786
0.000728005
0.000839223
0.00112437
3.84805e-05
0.0199658
0.00192781
0.00135414
0.0129862
0.00264007
0.00134306
3.77014e-05
0.00329123
0.000932419
0.00445488
0.000986052
0.000269934
0.000701274
0.00682897
0.00672548
0.00672523
0.00252793
0.000566829
0.00511864
0.000864886
0.00141411
0.00169848
0.00030275
0.00991403
0.000353634
0.00169158
0.0170366
0.00215304
0.00456486
0.00187392
0.000131333
0.00674603
0.00363924
0.00451573
0.00307393
0.00237508
0.0206314
0.000351409
0.00230331
0.00672091
0.00440064
0.0192089
0.00218114
0.000156486
0.000857847
0.00672801
0.000757784
0.000783781
0.00674457
0.00672409
0.0202576
0.00539244
0.00245179
0.0016448
0.00300899
0.000769604
0.000211624
0.00411953
0.00133387
3.08392e-05
0.0111846
0.00863218
0.00628557
0.00240663
0.00129384
5.20489e-05
0.000378736
0.0067274
0.00120765
0.010981
0.000967514
0.000139936
0.0184937
3.69772e-05
3.95132e-05
0.000587143
0.00209115
0.00672508
0.00672789
0.0031275
0.0010115
0.00188252
0.00222443
0.00135006
0.00672577
0.00386193
0.00568807
0.00113154
0.00135724
0.0135157
0.00017022
0.00155004
0.0123372
0.000434096
0.000966679
0.00672795
0.000536242
0.00251285
0.00255307
0.00121639
0.00102719
0.000883145
0.000105632
0.0207666
0.00406784
0.00407685
0.0107824
0.00674349
0.00267289
0.000189598
0.00672575
0.0038306
0.000797042
0.00998955
0.00506413
0.0198834
0.00251695
0.00568831
0.0012489
3.48414e-05
0.000719205
0.00193781
0.00513734
0.0015543
0.00139302
0.0167157
0.00672506
0.000145119
0.00672101
0.00436868
0.000813656
0.00563294
0.0204418
0.000966044
7.8618e-05
0.00672595
0.00400679
0.000407997
3.42756e-05
0.00240197
9.83508e-05
0.00369649
0.00548704
2.44532e-05
0.00265284
0.000664664
0.000114107
0.00672504
0.00663523
0.0010525
0.000981735
0.000736528
6.59477e-05
0.000264629
0.000204464
0.00153366
0.0185478
0.000377217
0.00322264
0.000383236
0.00121249
0.00329074
0.000578642
0.00348707
0.00135404
0.0192198
0.00162293
0.0064361
4.88471e-05
0.0020673
0.0166568
0.00214146
0.0198435
0.00923081
0.000545964
0.00672873
0.00673061
0.00672488
0.00673315
0.000752296
0.000161767
0.000180418
0.000929497
0.00672203
0.00317242
0.0018657
0.000586294
0.0120519
0.00403358
0.00111995
0.00101283
0.00153719
3.83034e-05
0.00894096
0.00021023
0.019172
0.00211505
0.00674716
9.47582e-05
0.00635414
3.60256e-05
0.00672367
0.00216936
0.00148974
0.0204698
0.00470248
0.000349148
0.00293617
0.000161352
0.00100579
0.0155462
0.00057517
0.00114556
0.00123347
0.00105904
0.000341044
0.00143406
0.00672356
0.000605886
0.00835079
0.00672376
0.0107533
0.00672536
0.00325565
0.00665919
0.0128639
0.00672523
0.00271629
0.00194802
0.00431498
0.000270111
0.000812299
0.00232528
0.00672457
0.00672261
0.00139599
0.000875699
0.000834901
0.000349224
0.0055621
0.0137195
0.00213033
0.0176462
5.77637e-05
0.000686015
0.00551661
0.00105467
0.0201075
0.0096154
0.000738563
0.00181422
0.0109158
0.012531
0.00672733
0.00672648
0.000447279
0.0120061
0.00612579
0.00478061
0.00314408
0.0146873
0.000275528
0.000911737
0.00123521
0.00079505
4.37525e-05
0.00216366
0.0159014
0.00365424
0.0096893
0.000175246
0.00337636
0.00674294
0.00672228
0.000529054
0.00868655
0.00118489
0.00164563
0.00139691
0.00016859
0.0032555
0.00127292
0.0110677
0.00265581
0.00529862
4.00741e-05
0.00672913
0.00672361
0.0196315
0.00674228
0.00672242
0.00123145
6.03855e-05
0.000935992
0.00296943
0.000614103
0.00672906
0.0166918
0.000666005
0.00430288
0.00273612
4.8598e-05
0.000606158
0.00306729
0.000983517
0.0132985
0.00672378
0.00894287
0.0119828
0.00771535
0.000193273
0.000287793
0.00485127
0.00207938
0.000233142
0.0012353
0.0186678
0.000693324
0.000190567
0.00111673
0.00118131
0.000414452
0.00390645
0.00137149
0.0114617
0.00324046
0.00672809
0.00435431
0.00116621
0.00294181
0.000706706
0.00673173
0.00112245
0.00193426
4.20289e-05
0.000155719
0.00487043
0.00672293
7.03158e-05
0.00235716
0.000938712
0.00115647
0.000639696
0.00387972
0.00173988
0.00143656
0.00213087
0.00845186
0.0126506
0.00673538
0.00672266
0.00192969
0.00130053
0.0067347
0.00183935
0.000980395
0.00107921
0.00779868
0.00682239
0.0137178
0.00859806
0.00672604
0.00198578
0.000966326
0.00135852
4.16733e-05
0.00201278
0.0063859
0.000414291
0.00111359
0.000834333
0.00674072
0.00447177
0.00400249
0.00243369
0.000300729
0.0109441
0.0120659
0.00672521
0.00672144
0.00141618
0.0031909
0.000777227
0.00159044
0.000641975
0.00188703
0.0102605
0.00243394
0.0191023
0.00673865
0.0156859
0.00220335
0.00674271
0.00739215
3.33824e-05
6.15094e-05
0.00959905
0.000156042
0.00100767
0.00590207
0.00646915
0.00672848
0.006734
6.63066e-05
0.00131836
0.00329553
0.00881941
0.000807104
0.0107114
0.000626304
0.000198556
0.00679825
0.00140642
0.00137278
0.0136206
0.000657917
0.0126069
0.00718683
0.00284303
0.00342407
0.00320307
0.000253735
3.82368e-05
0.00184612
0.00672379
0.000675882
0.000886783
0.000999097
0.000686514
8.52103e-05
0.00672181
3.03315e-05
0.000528926
0.00224198
0.000846404
0.00120582
0.00140009
0.0167505
0.00672204
0.000641033
0.0195637
0.00142201
0.000948465
0.000959244
4.96435e-05
0.0013369
0.00340225
0.00136364
0.000248426
0.00150618
0.000410643
0.00206394
0.0127966
0.00672735
9.98413e-05
3.9209e-05
0.0117749
0.00077525
0.00047958
0.00163712
0.000156038
0.00672554
0.0115062
0.00143325
0.00350637
0.00109425
0.00672233
0.00672568
4.51659e-05
0.00672662
0.00672324
0.0029853
0.00117868
0.00205611
0.000582978
0.00115089
0.000322998
0.000621018
0.0067253
6.65812e-05
3.21375e-05
0.000470244
0.000512356
0.000435196
0.00114728
0.0167146
0.000312501
0.00672605
0.00709377
0.0202262
0.00672603
0.00138409
0.00673756
3.54506e-05
0.000439288
0.00314106
3.7867e-05
0.0126508
0.00672719
0.00211099
0.0207464
0.00848571
0.00134227
0.00674588
0.00252143
0.0154234
4.79398e-05
0.00672679
0.01416
0.0013809
9.96446e-05
0.0109753
0.00127872
0.00673679
0.00100269
0.000437526
0.00109194
0.0205762
0.0141401
0.00630221
0.0105052
3.83387e-05
0.00789948
0.00674022
0.000112731
0.0020081
0.00470583
0.0170518
0.00728233
0.000407269
0.0108197
0.000471061
0.000780525
0.00683758
0.01314
0.00437948
0.00673412
0.00233467
0.000272806
0.00440065
0.00098486
0.0190954
0.00901924
0.00080165
0.00212394
0.00324394
0.0164949
0.000652784
0.000935044
0.00676413
0.00127227
0.000295016
0.00750291
0.00238361
2.6594e-05
0.00672353
0.000661057
0.00685573
0.00016898
0.00693348
0.00294365
0.00672604
0.0067263
0.00140883
0.000569822
0.0022832
0.0181295
0.0133515
0.00564539
0.00674683
0.00672384
0.00672435
2.24227e-05
0.00564479
0.0206771
0.000735657
0.00132139
0.0044562
0.00037398
0.0143557
0.00109661
4.62003e-05
0.0071383
0.00193249
0.00328621
0.000258712
0.00020744
5.03729e-05
0.00340503
0.00768939
0.00138011
0.00674663
0.000105356
0.0054537
0.000600111
0.00210707
0.0206766
0.000338225
0.000565233
0.0074798
0.000838331
0.00672367
0.000326361
0.00126583
0.00672572
3.84618e-05
0.0067335
0.00136495
0.000894865
0.00230211
0.00693955
0.00115361
3.48268e-05
0.00130374
0.00672991
0.0087963
0.0149372
0.000751348
0.00025254
0.00132955
0.000427094
0.00123043
0.00164716
0.000621439
0.00141215
0.00244224
0.000623548
0.0204219
0.000149844
0.00665928
0.00141918
0.00244369
0.0184661
0.0067314
0.0197336
0.000762682
0.012163
0.000364829
0.00204509
0.00565191
0.000623263
9.94878e-05
0.00323235
0.0187839
9.28023e-05
0.00507954
0.00259284
0.0136756
0.00103179
0.00193137
0.000639481
0.000753643
0.00119237
0.00593773
0.00672601
0.00149355
0.00144692
0.000396661
0.00672347
0.00115926
0.00676272
0.0202443
0.000925139
0.000598845
0.000848024
0.00092247
0.000261889
0.00821282
0.000511352
0.00648226
9.55594e-05
0.019397
0.00212958
0.00257875
0.019635
0.00107387
4.10412e-05
0.00672846
0.000803844
0.0156793
0.00129876
0.00546962
0.00328501
0.000245196
0.016361
0.00329089
0.00676675
0.00224561
8.9736e-05
0.000847587
0.0178242
0.000884754
0.00017633
0.000437635
0.00046334
0.00249069
0.0118263
0.0157577
0.0012798
0.000258264
0.00126201
0.000411015
0.00584659
0.000891073
0.00197734
0.000311246
0.00674515
3.60142e-05
0.00465579
0.00395905
0.00478164
0.00117885
0.00248296
0.0151382
0.00674208
0.00106738
0.00672495
0.00122259
0.00114178
0.000186434
0.0114995
0.000754347
0.00672175
0.000382215
0.00109674
0.00337064
0.00105754
0.00590847
0.00587413
0.0125818
0.000964195
7.25674e-05
0.00672308
0.00658787
0.000963431
0.000894621
0.00595942
0.00258014
0.00672286
0.00114127
0.00672375
0.0011942
0.0027924
0.00500317
0.0125373
0.00425535
0.000932541
0.00167146
0.00672587
0.0142049
0.0044782
0.000474366
0.0153592
0.00138802
0.0204497
0.00337472
0.0130278
0.00135761
0.0179678
0.00117475
0.000936287
0.00311065
0.000956399
0.00130148
0.0015181
0.000555783
0.0130458
0.000505597
0.00023115
0.000520536
0.00115638
0.000233542
5.33331e-05
0.000648071
0.00316536
0.00416585
0.00111484
0.000224092
0.00573386
0.00098375
0.0189164
0.00989235
5.9296e-05
0.00324079
0.00875526
4.40563e-05
0.00163984
0.000774397
0.00292225
0.0158021
0.00466875
0.00254078
0.00445372
0.00142355
0.00710715
0.000146614
0.00673022
0.00445105
0.00276347
0.00453917
0.000909954
0.00145074
0.00049588
0.000918036
0.00232995
0.000350185
6.89702e-05
0.000175815
0.000731146
0.00986276
0.0134794
0.00431224
0.00673673
0.0044018
8.08413e-05
0.00251945
0.000165879
0.0198551
0.0119405
0.00674389
0.00617698
0.0169377
0.00346125
0.00674724
0.00615752
0.000497074
0.00374222
0.0203886
0.000998814
0.000560771
0.00672428
0.000703271
0.000821894
5.29482e-05
0.000274297
0.000213725
0.00177772
0.000721328
0.000521784
0.00133859
0.0027891
0.000977519
0.0196611
0.000728154
0.00305272
0.00672353
0.0147609
0.000350498
0.000393648
0.0067309
0.00673034
0.000201002
0.00812608
0.00010243
0.00706276
0.00472242
0.00146107
0.0134206
0.00113705
0.00678787
0.0115104
0.00552642
0.00110224
0.00672525
0.0143494
0.00821548
0.00363313
0.000280205
0.00793496
0.000386172
0.00301869
0.00535236
0.00216465
0.00180755
0.000591536
0.000290898
7.26041e-05
0.000506935
0.00675427
0.00228284
0.0184228
0.00493093
0.000427123
0.000479108
0.00323681
0.000778111
0.00672805
0.000950225
0.000781105
0.00672376
0.00913788
0.00673085
0.000198576
0.0171182
0.000731507
0.00224132
0.00672628
0.0143743
0.00674092
0.00115862
0.00185534
0.000156392
0.000156046
0.000924163
0.0157857
0.000212108
0.00677754
0.001457
0.00109211
0.00466389
0.00672359
0.00416843
0.0138172
0.000320539
0.00125908
0.0010509
0.00102938
0.00747004
0.0148855
0.000832428
0.000594989
0.00673963
0.0117955
0.00368903
0.00331156
0.000237752
0.00149478
0.000437791
4.34549e-05
0.000186573
0.000456064
0.000896442
0.0164826
0.00139331
0.00672447
0.00301673
0.000166481
0.00676184
0.0125651
0.00672167
0.00672379
0.000775177
0.000208545
0.00297361
0.00676025
0.000686928
0.00674461
3.33103e-05
0.0047647
3.40807e-05
0.0109375
0.0161072
0.0119545
0.00038198
0.000317504
0.00880238
3.64301e-05
0.00672438
0.000399273
0.000180624
0.00032936
3.9773e-05
0.0103605
0.0113562
0.0175786
4.84027e-05
0.00224098
0.00113346
0.00672108
0.00427426
0.00111998
0.00219671
0.00137528
0.00190712
0.0051354
0.00101128
0.0116177
0.0067348
0.00141619
0.00672264
0.00795214
0.00147669
0.014914
0.0206946
0.000345852
0.00672483
0.00488429
0.00768827
3.6424e-05
0.00672364
7.75353e-05
0.00672481
0.000279159
4.85365e-05
0.000851583
0.00101703
0.0022956
0.00670112
0.00449536
0.00184259
0.0140693
0.000803537
0.000304555
0.00477939
0.00247599
0.00673505
0.00672375
0.00155167
0.00414141
0.00117727
0.0106236
0.00806239
0.00131516
0.0142395
0.000479309
0.00673908
0.00124905
0.00674874
3.90116e-05
0.00326127
0.000771284
0.00521586
0.00672954
0.00491897
8.46972e-05
0.00242167
3.17585e-05
0.00683178
0.000255136
0.00687553
3.91903e-05
0.00672522
0.00114448
0.00135635
0.000249845
0.00926276
0.00673141
0.00795968
0.000440813
0.000232014
0.00681498
0.00673709
0.013018
0.000539119
0.00330742
0.00384676
0.000302684
0.000945009
0.000180562
0.0165314
0.00135133
0.00660412
0.0012769
0.00674097
0.0137153
0.00240779
0.0200458
0.00460535
0.00181731
0.00672365
0.00881968
0.0151573
0.0067434
3.88122e-05
0.000571103
0.00672131
0.00401788
0.00674768
4.02362e-05
0.0149274
0.000452822
0.00190065
0.000700613
0.00672616
0.0031459
0.00147284
0.00672346
0.000881368
0.00316616
0.00124359
0.000367505
0.000659477
0.0067322
0.0197783
0.00105343
0.00672568
0.000357993
0.00117176
0.00783375
0.00067045
0.00605383
0.00064756
0.00329515
0.000534912
0.000572093
0.00133377
0.0145861
0.00124081
0.0016091
0.00893811
0.00413395
0.000199078
7.11622e-05
0.000209785
0.0067291
0.0039781
0.00673847
0.000250109
0.00123241
0.0011666
0.010268
0.00687414
0.0206891
0.00672566
4.49548e-05
0.0182975
0.0167948
0.00485672
0.00299015
0.00103879
0.0200403
0.000864444
0.001257
0.000350083
0.00600816
0.000159058
5.53311e-05
0.000736041
0.0160836
0.000156205
0.00676755
0.000109632
0.000498141
0.00225159
0.00257018
0.00143042
0.0124195
0.000528588
0.0147233
0.00118293
0.000618552
0.00263162
0.0029951
0.0102329
0.00219214
0.00111621
0.0107908
0.0170522
0.000627363
0.00179375
0.00097401
0.00168068
8.93276e-05
0.00141333
0.000241723
0.0161369
0.00677502
0.00341878
0.00027956
0.0102561
0.00672115
0.0067234
0.0130725
3.87027e-05
0.00422541
0.00066606
7.68786e-05
0.000175714
0.0202473
0.0195604
0.01382
0.0148456
0.000670085
0.0067891
8.43267e-05
0.0069552
0.00541381
0.00348476
3.69598e-05
5.87956e-05
3.14764e-05
0.00267259
0.00672544
2.75506e-05
0.00849596
0.00107674
3.09298e-05
0.00713507
0.00673019
4.14105e-05
0.0143479
0.00220787
8.94905e-05
0.000840134
0.0067468
0.00066661
0.0185733
3.85378e-05
0.00672538
0.0046079
0.00093945
0.00122696
0.00674633
0.00197727
0.00233553
0.00234642
0.0024276
0.000430418
0.000261163
0.000195526
3.41638e-05
0.00121347
0.00965004
0.000645435
0.00160942
0.000728588
0.00214956
9.92093e-05
0.00660764
0.000627766
0.000426311
0.000499498
5.73277e-05
0.00319827
0.000205606
0.00792212
0.0163617
0.000134757
0.00356003
0.00464864
0.00384001
0.00464929
0.00120702
4.19999e-05
3.78304e-05
3.8756e-05
0.000609748
0.000449163
0.00496167
0.00245123
0.00926667
0.000380848
0.000124783
0.00355965
0.00356345
0.000782832
0.0137856
0.00672161
0.00607153
0.000137068
6.63835e-05
0.000403362
0.00453923
0.00672391
0.00110676
0.00232803
0.00159525
0.0008822
0.000102939
0.000171887
0.00371055
0.0026938
0.00249606
0.0067251
0.00903137
0.00185242
0.00891224
6.91135e-05
0.00275229
3.60419e-05
0.000242404
0.0149342
0.00236296
0.00174329
0.00482933
0.00672376
0.00212288
3.82195e-05
3.88691e-05
0.0156048
0.00672362
0.00249687
5.65651e-05
0.00672541
0.00542509
0.000877136
4.98007e-05
4.74619e-05
0.000234654
0.000281106
0.00676298
0.000802471
0.0003149
6.09067e-05
6.869e-05
0.000237226
0.00672691
0.000100122
0.005275
0.000183494
0.0186218
3.65525e-05
0.00300026
6.70875e-05
0.003132
0.000936262
0.00177079
0.0024334
0.000395157
0.00236962
0.0203011
7.24994e-05
0.00024723
8.27247e-05
0.000238935
0.0206166
0.0139314
0.000463816
0.0120022
0.000128323
0.00464908
0.000109591
0.0152977
6.69977e-05
0.00672492
0.000660566
3.36856e-05
0.00113517
0.00234134
0.00256431
0.00627033
0.0067248
0.00509625
0.00133217
0.00684445
0.00672555
0.00770582
0.0113145
0.00584107
0.00630514
3.64621e-05
0.0131134
0.000535821
0.00675783
0.00116048
0.00680297
0.000170269
0.000826299
0.000938679
0.000802972
0.000270257
0.00681774
0.0126136
0.00113372
0.000679433
0.0199773
5.47809e-05
0.00448088
0.0143949
0.00396965
0.0028023
0.006724
0.000414028
0.000146963
0.0191017
0.00107871
0.00043448
0.00224726
2.85879e-05
0.000668638
0.0201
0.000839832
0.000273829
0.0145965
0.00133176
0.0067258
4.02125e-05
0.000479378
0.00115367
0.00213755
0.00289659
0.0011102
0.000531511