/*--------------------------------*- C++ -*----------------------------------*\
| =========                 |                                                 |
| \\      /  F ield         | OpenFOAM: The Open Source CFD Toolbox           |
|  \\    /   O peration     | Version:  v2012                                 |
|   \\  /    A nd           | Website:  www.openfoam.com                      |
|    \\/     M anipulation  |                                                 |
\*---------------------------------------------------------------------------*/
FoamFile
{
    version     2.0;
    format      ascii;
    class       volScalarField::Internal;
    location    "450";
    object      V0;
}
// * * * * * * * * * * * * * * * * * * * * * * * * * * * * * * * * * * * * * //

dimensions      [0 3 0 0 0 0 0];


value           nonuniform List<scalar> 
13917
(
0.0120896
0.043141
0.00275593
0.0345304
0.120695
0.00224752
0.00227617
0.00146606
0.00177562
0.00798001
0.00439221
0.00913738
0.0247554
0.00135201
0.0218239
0.0265668
0.0409315
0.0091142
0.0104343
0.158306
0.136693
0.00191983
0.124196
0.00200265
0.0723782
0.00214541
0.00738905
0.00497221
0.00209127
0.00600426
0.0112587
0.018044
0.0111492
0.0171256
0.0711603
0.00312058
0.122145
0.00145259
0.0267041
0.00122911
0.174298
0.172415
0.132208
0.00481534
0.0438479
0.0172241
0.0103293
0.0076672
0.0016751
0.170605
0.0158639
0.0391583
0.00147189
0.0159101
0.0385262
0.0197376
0.00562518
0.0667833
0.0272936
0.0425733
0.00238319
0.0487302
0.00124782
0.136955
0.00319402
0.00244189
0.113782
0.0676668
0.0036902
0.0126634
0.129051
0.0018
0.00141699
0.0960582
0.00149422
0.00888287
0.00124771
0.0373277
0.00232422
0.146898
0.15354
0.109273
0.0026207
0.00171624
0.00193981
0.0385486
0.141964
0.00192933
0.020977
0.106318
0.0014521
0.00763908
0.0698036
0.0312025
0.00155095
0.00296472
0.00507222
0.0077879
0.00480373
0.00520404
0.126884
0.0119286
0.00417083
0.0273821
0.0902999
0.00226279
0.00352623
0.00665239
0.0437822
0.0099067
0.00166593
0.00155322
0.00626257
0.00196261
0.0264522
0.00132686
0.10374
0.00174265
0.00140411
0.0157295
0.16409
0.00418129
0.0012519
0.00673776
0.150559
0.0344391
0.0430477
0.170752
0.172469
0.00224739
0.00129649
0.0330839
0.0442293
0.140593
0.00326217
0.00206259
0.0113574
0.00359093
0.101384
0.0171989
0.00418362
0.0763078
0.0410595
0.00433899
0.0567265
0.00259838
0.00234322
0.0470637
0.0880877
0.0193904
0.00930838
0.00118062
0.00732403
0.00911991
0.0212228
0.00190299
0.0147596
0.00313409
0.00125661
0.00319745
0.0234598
0.00817874
0.162309
0.00560723
0.00793883
0.00458992
0.0265893
0.00878188
0.0626712
0.00953528
0.0107394
0.00132171
0.00606495
0.0354418
0.00272585
0.00745505
0.00162241
0.0016399
0.00278256
0.0662568
0.00657605
0.0123697
0.0773592
0.126877
0.0151459
0.00234587
0.00423111
0.00208705
0.0101614
0.0035133
0.00311598
0.00194696
0.00352153
0.143327
0.00369023
0.00782031
0.188425
0.0559211
0.00378876
0.00203875
0.0215199
0.129906
0.011214
0.0102181
0.00134669
0.00298827
0.0609044
0.0589655
0.00808887
0.00270158
0.0444461
0.00224857
0.00138565
0.00541066
0.0920925
0.00267292
0.0095043
0.0015459
0.0705089
0.00272081
0.0786905
0.00563788
0.143259
0.00137569
0.00201888
0.0235778
0.0035598
0.0187517
0.104254
0.00271659
0.00639135
0.0108887
0.00256926
0.0010514
0.141317
0.0161962
0.00173069
0.00120799
0.13909
0.116489
0.00131702
0.00435607
0.162504
0.00393138
0.00715038
0.00733933
0.0128393
0.164075
0.0114845
0.00128584
0.0562441
0.00653432
0.00385546
0.0467888
0.0593937
0.00804486
0.00133767
0.00666693
0.0120005
0.0200941
0.177318
0.00112918
0.0026213
0.00341704
0.0835964
0.00153428
0.00126338
0.00287898
0.00192021
0.00763847
0.160212
0.185989
0.00889438
0.00140253
0.00584391
0.0272324
0.00297327
0.0114944
0.161335
0.00230607
0.138945
0.00243492
0.0248752
0.13369
0.0182307
0.00813817
0.0099046
0.00324585
0.0126223
0.0494026
0.00338435
0.00219734
0.00195549
0.0805759
0.0029585
0.124151
0.0520131
0.110442
0.00203747
0.184145
0.00521052
0.0148193
0.0680182
0.00927555
0.032139
0.00103744
0.00813316
0.00815041
0.066016
0.0612441
0.0015366
0.00135446
0.0884711
0.155933
0.00268397
0.0718286
0.00150813
0.0772758
0.00126404
0.0392858
0.00389281
0.0160384
0.00142402
0.0256066
0.00308698
0.00260006
0.0185384
0.00370771
0.00272074
0.0408079
0.00158941
0.00324704
0.00103773
0.0201638
0.00127971
0.0168271
0.00185065
0.00359073
0.00446973
0.00508234
0.00220792
0.124035
0.0108766
0.00186717
0.0409069
0.0282489
0.00139341
0.00339302
0.0438033
0.00351309
0.00199046
0.14494
0.00146405
0.00358491
0.133541
0.105383
0.138911
0.0791324
0.00331148
0.00244871
0.00242787
0.0018393
0.0894057
0.00552151
0.00127728
0.0114327
0.00192985
0.00166383
0.00193287
0.109023
0.00378147
0.090574
0.00250453
0.0414234
0.00133811
0.00654827
0.0311421
0.109816
0.00884272
0.00526369
0.00611944
0.0012119
0.00163979
0.00122935
0.0100912
0.00650189
0.0997779
0.00125
0.00195856
0.0590841
0.00383634
0.104727
0.00397547
0.0367286
0.135636
0.0232937
0.00167885
0.0280116
0.00167963
0.00148929
0.00245891
0.00245654
0.039683
0.00259157
0.00238019
0.125825
0.00380287
0.0472619
0.0661055
0.00490755
0.177561
0.0982697
0.0823953
0.00363213
0.142089
0.00144821
0.00213244
0.00134718
0.00329748
0.00158049
0.00128707
0.0123167
0.094585
0.00522854
0.0233464
0.0167235
0.12546
0.00259603
0.00240071
0.00258254
0.0211525
0.00574048
0.023345
0.0280356
0.00728144
0.0294652
0.00298639
0.0410071
0.153198
0.0015719
0.00148183
0.00154394
0.00550762
0.00119629
0.00178784
0.00151018
0.00150415
0.142971
0.00791878
0.0291819
0.0540349
0.0032594
0.00768847
0.159491
0.00835734
0.0123344
0.00135119
0.100365
0.00561729
0.00165605
0.00308427
0.00121046
0.133983
0.0506977
0.161298
0.011541
0.131366
0.00230023
0.00271282
0.0147389
0.00170643
0.020735
0.00475032
0.00158559
0.00149659
0.00453703
0.00334893
0.00483976
0.00929447
0.00464078
0.0113278
0.00444082
0.00232146
0.00949551
0.00534575
0.154849
0.00278197
0.0214383
0.0795036
0.0125586
0.033769
0.0015045
0.0016437
0.0699403
0.152839
0.00240833
0.00112536
0.180876
0.00124423
0.0294901
0.00415536
0.0731555
0.00108124
0.00311713
0.018996
0.0308277
0.00184888
0.004061
0.00128002
0.177002
0.00135865
0.001864
0.00295232
0.0679216
0.00170769
0.00210919
0.0113022
0.1002
0.0354563
0.00920572
0.00376203
0.13519
0.111295
0.13839
0.137175
0.00125096
0.00306521
0.0121761
0.0042193
0.167098
0.0986377
0.00575613
0.00217207
0.0121927
0.0515346
0.0881251
0.0700676
0.00257462
0.0018532
0.141505
0.0729501
0.00353596
0.0118126
0.0118626
0.0572183
0.0249619
0.018994
0.005959
0.0028371
0.00349744
0.00441963
0.00528514
0.00300754
0.00693438
0.0782212
0.001479
0.0793823
0.0252634
0.0269862
0.00267767
0.00538868
0.116622
0.00320538
0.00519486
0.0014526
0.00484934
0.00966225
0.0117483
0.104416
0.00192256
0.00327546
0.00158153
0.0477513
0.0151958
0.00368543
0.00151
0.0013584
0.00722714
0.00441106
0.0257602
0.0217957
0.0500045
0.00606104
0.004131
0.0424502
0.00970386
0.00331049
0.00171178
0.0010855
0.0263936
0.00509492
0.00359914
0.0164924
0.0433128
0.00155283
0.00257858
0.00226098
0.00416332
0.139433
0.0012454
0.00975503
0.137055
0.0141491
0.00725099
0.0113752
0.00638929
0.00215896
0.00501505
0.0152918
0.00233885
0.0266792
0.00138468
0.141195
0.108019
0.00244429
0.00215132
0.00242877
0.0249237
0.0398382
0.0782639
0.01018
0.00136061
0.00493543
0.0210022
0.0055316
0.00890363
0.0595365
0.00245295
0.00603923
0.00339601
0.0769971
0.00403564
0.032788
0.00156476
0.00823204
0.00596392
0.0128421
0.136993
0.0775017
0.0420362
0.00502422
0.0149506
0.00376002
0.00126215
0.00854537
0.135317
0.00383311
0.00178097
0.00335039
0.0553746
0.0154793
0.11115
0.0166467
0.0205654
0.00187811
0.145941
0.00231407
0.0173745
0.0040489
0.00650499
0.00133728
0.0056075
0.0389241
0.00135804
0.00136245
0.0547453
0.028359
0.00332278
0.00464719
0.00558316
0.168127
0.0308423
0.00405233
0.0244662
0.00748987
0.00921387
0.0703627
0.0103511
0.00243495
0.0527769
0.0414829
0.155115
0.00138385
0.153772
0.0220886
0.00135598
0.0252116
0.00239616
0.0209799
0.00848273
0.137737
0.00832024
0.100876
0.00905835
0.163307
0.00576171
0.0288582
0.00176163
0.00133735
0.00166366
0.18914
0.135722
0.00725325
0.00958253
0.00119778
0.00156662
0.00879725
0.0758584
0.00372498
0.0023716
0.00296739
0.00415513
0.00905085
0.00208059
0.0101753
0.0127501
0.00400943
0.00378617
0.00943305
0.00168647
0.0104291
0.0303163
0.00639522
0.0146693
0.0685781
0.0179752
0.0101484
0.0183628
0.102421
0.153117
0.00901589
0.0258332
0.00665906
0.0673406
0.0902677
0.141112
0.0263959
0.0996459
0.0207718
0.142519
0.00110753
0.00981698
0.00283512
0.13984
0.138372
0.00676372
0.00790286
0.0300512
0.00241908
0.00636376
0.00263331
0.0135214
0.00490638
0.0311216
0.158409
0.145706
0.0261633
0.00124004
0.145278
0.00268266
0.0153494
0.00106811
0.00803972
0.00555952
0.00435679
0.0960102
0.182469
0.00874046
0.0711651
0.0402678
0.00269376
0.0319188
0.130343
0.0154273
0.129024
0.131599
0.0178693
0.0135321
0.00105184
0.0136551
0.0440023
0.179101
0.00157728
0.00412724
0.0483363
0.0384283
0.00254601
0.00324274
0.00130865
0.0113891
0.0294109
0.130409
0.124347
0.00930838
0.0129201
0.00320293
0.0147614
0.0015647
0.0343318
0.0254893
0.000928794
0.103443
0.0182682
0.0575658
0.160602
0.0101726
0.00749483
0.032302
0.00205242
0.00121224
0.00753271
0.0636399
0.0804858
0.00552138
0.00274241
0.158819
0.00280737
0.0837541
0.010791
0.0530919
0.0694802
0.00345066
0.0506919
0.002927
0.0108405
0.151695
0.109354
0.0509548
0.0723267
0.0440998
0.0015094
0.0557737
0.0706587
0.00165231
0.00200412
0.012041
0.0117521
0.00662518
0.0211855
0.0796124
0.0107865
0.0013667
0.00462222
0.0983348
0.0411297
0.0018161
0.00999171
0.00157177
0.136281
0.0284741
0.00134066
0.0132155
0.034676
0.00124268
0.00162015
0.0800108
0.00435995
0.11911
0.0544679
0.106996
0.0013788
0.0979652
0.047076
0.0801659
0.00251008
0.0214078
0.00425312
0.00591528
0.0621754
0.01034
0.144147
0.00151152
0.0988768
0.0552409
0.131238
0.00380992
0.110503
0.00396945
0.00127272
0.00255631
0.0184498
0.00302543
0.0013475
0.0605783
0.00123505
0.00166355
0.00127889
0.00156434
0.00157722
0.00153409
0.00405636
0.035224
0.00188575
0.0140872
0.00178117
0.0800933
0.0626146
0.0484654
0.142049
0.0184179
0.0130274
0.00104628
0.0642339
0.073383
0.00109429
0.00321676
0.0479402
0.00712977
0.0153741
0.0416427
0.00108001
0.00697975
0.0237329
0.0212983
0.00121397
0.001004
0.00174898
0.0563677
0.00401546
0.00495706
0.00135562
0.00173046
0.00693822
0.0626472
0.0306783
0.0318297
0.158564
0.0241724
0.132344
0.0166019
0.00600802
0.00164846
0.00551966
0.0441524
0.00518334
0.00152459
0.0109713
0.0474845
0.00122172
0.0603324
0.0416519
0.00858136
0.00175868
0.112574
0.0744795
0.00208113
0.00317217
0.00306113
0.00500609
0.00246196
0.0668817
0.0035037
0.0432501
0.103155
0.0439005
0.00257367
0.00114573
0.0626421
0.106893
0.0556159
0.00296502
0.0264065
0.0175479
0.0754758
0.0457939
0.00417927
0.0573069
0.00766766
0.00360069
0.00174556
0.0505904
0.0053703
0.0225354
0.00139435
0.00120429
0.0865087
0.00122912
0.00661124
0.00163722
0.12189
0.00153521
0.120058
0.0159853
0.0109614
0.00444962
0.00235265
0.0028549
0.00446506
0.00225738
0.141272
0.00374115
0.0724359
0.0119731
0.00185778
0.0483554
0.155061
0.0337789
0.0394006
0.00130519
0.114462
0.123632
0.00899132
0.00766838
0.00958424
0.00226306
0.00538487
0.00120221
0.00900722
0.0123305
0.0140513
0.00135061
0.0122517
0.0026569
0.0015082
0.0212541
0.0643273
0.00160304
0.00333231
0.041514
0.00596342
0.00945021
0.0354497
0.0188394
0.0362487
0.0113114
0.173291
0.0091763
0.00333326
0.10196
0.00855819
0.0614099
0.00643235
0.166396
0.014862
0.00769454
0.0240756
0.0410197
0.0650159
0.0016299
0.00617273
0.00258035
0.0729196
0.0386241
0.00824935
0.0584456
0.00682008
0.00571754
0.0343778
0.00651316
0.0697718
0.00240508
0.0437981
0.0161747
0.00103053
0.00360885
0.0809851
0.0272106
0.00127241
0.0993762
0.102834
0.00143158
0.00149098
0.0219264
0.00432384
0.145865
0.0403412
0.00253659
0.0319974
0.0904307
0.00330251
0.0559816
0.00298523
0.11569
0.0981202
0.0441394
0.00516749
0.00143359
0.0436424
0.0409636
0.0735559
0.0195081
0.13492
0.00163469
0.00841397
0.158967
0.00232247
0.0085408
0.00284523
0.00158186
0.00150058
0.0677279
0.0483407
0.0536653
0.00199274
0.0196835
0.00149816
0.0014093
0.0274508
0.00180329
0.0015498
0.00928176
0.00438187
0.0057912
0.00238152
0.00224231
0.00481091
0.00279977
0.00156122
0.00907275
0.0223969
0.00134042
0.00542008
0.0709092
0.0238184
0.00248177
0.010286
0.0677624
0.00728744
0.00603069
0.0117024
0.00122838
0.0269784
0.00223896
0.0126103
0.00377009
0.00448074
0.00400382
0.0159498
0.0658526
0.0404339
0.00238528
0.0822001
0.0227484
0.153252
0.0250404
0.0595055
0.0104712
0.00503256
0.00142782
0.00809454
0.00646648
0.00236924
0.00292264
0.0591436
0.00302274
0.00220435
0.057058
0.101177
0.012613
0.0013264
0.141277
0.00746284
0.00258707
0.00844964
0.0575329
0.0277539
0.0573926
0.00528262
0.00952346
0.134425
0.00173575
0.0020793
0.00966985
0.0027735
0.00762801
0.00215158
0.026511
0.0194324
0.00228926
0.00277369
0.00680173
0.00184628
0.0179751
0.147838
0.0617389
0.0496443
0.0588496
0.027314
0.0089648
0.0761632
0.00459062
0.133757
0.0145036
0.0669874
0.00650547
0.00524615
0.0029652
0.0620488
0.0040103
0.0594818
0.00225907
0.0925436
0.0176173
0.0940748
0.00360543
0.0012446
0.00398145
0.0729823
0.00527623
0.0464839
0.0144187
0.00149428
0.0532355
0.0425434
0.00814612
0.0157864
0.00191211
0.074016
0.0146985
0.0380825
0.105978
0.0122617
0.0330453
0.101397
0.0245206
0.00100101
0.0223943
0.00305217
0.00227438
0.00907382
0.00143071
0.0223327
0.109672
0.014468
0.00116923
0.0337893
0.0103732
0.0107329
0.0016128
0.0753599
0.00113644
0.00721833
0.00736092
0.0670939
0.114049
0.00502283
0.0392134
0.144515
0.00999593
0.080893
0.0159488
0.0158227
0.00538049
0.00333737
0.00207815
0.0218942
0.00551924
0.002457
0.00110508
0.013861
0.00279885
0.00132983
0.0118012
0.00201567
0.0202156
0.00180806
0.00119937
0.0729778
0.164539
0.107548
0.0383523
0.00992149
0.0655116
0.018943
0.00652709
0.025759
0.0110019
0.00106261
0.00973744
0.0225825
0.00157115
0.0329845
0.00122371
0.0254734
0.0042601
0.0774123
0.00106435
0.00130634
0.0464578
0.0367293
0.00181117
0.0106533
0.00126811
0.13388
0.0479286
0.00168118
0.0309495
0.00628263
0.00157312
0.0764903
0.00842944
0.012477
0.111131
0.133489
0.00185188
0.00131364
0.0404079
0.0227433
0.0548516
0.0141023
0.00873775
0.00145668
0.0271907
0.00169325
0.00278933
0.00337247
0.00270908
0.0314567
0.00568356
0.00350449
0.0142378
0.091088
0.00880014
0.00146613
0.0251745
0.00727277
0.00185176
0.00132583
0.00272004
0.0195503
0.048349
0.130961
0.0794714
0.00130044
0.00896327
0.02487
0.0283051
0.0241278
0.13585
0.0594793
0.0761052
0.00619073
0.0153261
0.00237107
0.00573152
0.00120276
0.00148591
0.0135826
0.00926607
0.11482
0.017273
0.00105543
0.0369024
0.0248644
0.00911868
0.00454468
0.00605601
0.00220997
0.00201945
0.058746
0.00106903
0.120789
0.0385314
0.00802049
0.145039
0.0468633
0.00432612
0.0023846
0.0541583
0.00233249
0.0375669
0.0673127
0.0208059
0.0016819
0.0161744
0.0272542
0.0020071
0.0319246
0.0033882
0.00164796
0.169502
0.00504004
0.130542
0.0012
0.00640092
0.0670796
0.00196234
0.00872931
0.00461754
0.128986
0.00105172
0.0138358
0.00285621
0.0404105
0.00424758
0.00129447
0.0692092
0.001729
0.046308
0.00764957
0.00631783
0.159715
0.00103082
0.0242402
0.00433141
0.00818534
0.00474203
0.00968436
0.00931268
0.0283735
0.00188105
0.0107858
0.00116813
0.0134198
0.00985584
0.0495122
0.0114637
0.0556281
0.00909102
0.00223673
0.036091
0.070795
0.00134139
0.0288498
0.00226463
0.0328322
0.00228879
0.0025621
0.0129378
0.0729928
0.101231
0.0857233
0.120205
0.00577365
0.00659377
0.00730171
0.0192278
0.136552
0.00303389
0.0249539
0.0139314
0.00273675
0.0563946
0.00181996
0.00959865
0.01741
0.00173218
0.00132996
0.0031427
0.00230544
0.00270562
0.072136
0.00258499
0.00148786
0.00260858
0.148855
0.0442155
0.00473338
0.00210612
0.00128474
0.00301021
0.049585
0.0072002
0.0110918
0.00186086
0.00127108
0.0121149
0.00335114
0.021967
0.00653082
0.00636316
0.145
0.00550639
0.0024695
0.106882
0.0028223
0.142699
0.0463299
0.00103043
0.00152999
0.127874
0.0387689
0.0231678
0.0459706
0.00986241
0.00431747
0.0258565
0.100782
0.10281
0.00875158
0.0165248
0.0207917
0.00327176
0.0705114
0.00176553
0.00122637
0.00148571
0.00348901
0.00968012
0.0030515
0.0133707
0.00184226
0.00268916
0.0027101
0.0408013
0.00188084
0.00113016
0.115565
0.0970744
0.00537138
0.00149885
0.0023102
0.0628846
0.0500061
0.00151445
0.0018555
0.00271334
0.0246046
0.0209816
0.00185058
0.049405
0.00148823
0.00174053
0.00313279
0.00248548
0.0513749
0.0780621
0.131561
0.0154914
0.0011576
0.0110587
0.0223705
0.0297896
0.0045774
0.00108082
0.00999756
0.00278274
0.00110816
0.00103569
0.00171453
0.0803956
0.152674
0.00226195
0.114329
0.0691406
0.028495
0.00112689
0.0116392
0.00197818
0.00444212
0.0880556
0.00146479
0.0119707
0.0598192
0.00134637
0.00302788
0.0182185
0.0411941
0.00119156
0.0015673
0.118955
0.00229348
0.00230244
0.00183212
0.00209406
0.00542931
0.0640999
0.0319103
0.00351435
0.0203168
0.00217226
0.00842838
0.00281885
0.00325889
0.0267343
0.0165265
0.0550594
0.0344051
0.00168246
0.00113792
0.0810645
0.00126997
0.0100248
0.0476165
0.0204028
0.0934921
0.00415473
0.0263986
0.00168875
0.00650877
0.0659682
0.134574
0.00490505
0.000988545
0.0108638
0.0229931
0.00964083
0.0642546
0.0248699
0.0175161
0.000937725
0.00136704
0.0015602
0.109542
0.131501
0.0248077
0.00652028
0.0990031
0.0344017
0.00383773
0.00716824
0.00273235
0.0712773
0.00161839
0.00132808
0.163992
0.00100886
0.00519231
0.0104436
0.00153233
0.036204
0.00144253
0.0147211
0.0241737
0.0226492
0.122075
0.00355717
0.167157
0.0361014
0.0114253
0.0015015
0.00150269
0.140439
0.161704
0.0242062
0.0492382
0.00413755
0.0381938
0.00618815
0.0291209
0.00145205
0.0351945
0.00156668
0.10308
0.00162483
0.0352
0.113118
0.00181655
0.00258778
0.00390731
0.00299027
0.00566334
0.010153
0.0726457
0.00142929
0.0656776
0.0998583
0.00451123
0.00901144
0.00180207
0.00144031
0.0048842
0.0027679
0.00478017
0.00282065
0.1397
0.0222863
0.0165578
0.00155147
0.0202812
0.00138226
0.00102997
0.0365467
0.0463699
0.0521931
0.0026437
0.0010612
0.0236421
0.124335
0.0210133
0.0185262
0.0109174
0.00347541
0.00308929
0.126823
0.0020359
0.00629597
0.000967081
0.00649726
0.0246121
0.0245637
0.00138412
0.142266
0.0060479
0.00219723
0.0286365
0.0197796
0.00378495
0.00422063
0.033214
0.00125824
0.0245772
0.0033316
0.00956048
0.0138246
0.0304413
0.00166587
0.101642
0.00503836
0.00178503
0.00154878
0.00912075
0.0072013
0.0211158
0.00959651
0.138337
0.00172682
0.0190735
0.0495824
0.014853
0.139444
0.164477
0.000882149
0.0931923
0.147196
0.0538094
0.00394564
0.0463033
0.0131189
0.00613117
0.00354654
0.00536187
0.137554
0.00314291
0.00199144
0.00414751
0.00750487
0.0121089
0.00419501
0.00265281
0.0026887
0.166814
0.00247635
0.00216738
0.16877
0.0250828
0.119294
0.00223848
0.00519827
0.034326
0.00169609
0.00149369
0.13669
0.0426073
0.00208458
0.00111552
0.00833472
0.107628
0.00265339
0.0015974
0.00130855
0.100676
0.001519
0.0067107
0.0040376
0.00128996
0.0210798
0.11875
0.0135609
0.00426718
0.0129502
0.00204682
0.00150231
0.0689668
0.00231825
0.00155154
0.00134051
0.0865347
0.00623849
0.0288266
0.0636838
0.00122253
0.00306526
0.00336008
0.00293569
0.014674
0.0100291
0.158494
0.00162497
0.00118521
0.0718524
0.0378822
0.011117
0.0605989
0.00918119
0.00167719
0.00192639
0.0090628
0.0343367
0.0366774
0.00162601
0.0196588
0.00899426
0.0757046
0.0291655
0.00334137
0.00280807
0.00311142
0.00154615
0.142648
0.00366011
0.153705
0.00783941
0.00177802
0.00136688
0.0958339
0.144757
0.014454
0.016509
0.0445249
0.00138784
0.00152388
0.0761597
0.139987
0.118158
0.0958523
0.0014388
0.0658408
0.00150465
0.00513125
0.00846028
0.0617568
0.00923619
0.00162995
0.0140759
0.00266268
0.00162436
0.032312
0.00102618
0.00988164
0.00636246
0.00320581
0.00122585
0.00136274
0.00921595
0.0724148
0.00388335
0.0652792
0.0155851
0.044013
0.0023229
0.0104266
0.002792
0.00344795
0.0100233
0.114665
0.00343921
0.0181063
0.16166
0.00269598
0.108889
0.0144954
0.0105667
0.0439993
0.00215344
0.0281187
0.00230175
0.0271422
0.0943524
0.00179896
0.00151585
0.0211779
0.0109108
0.0123339
0.00665283
0.00882164
0.014816
0.0149452
0.0223315
0.00367276
0.0182345
0.00218716
0.00562539
0.00262897
0.00567006
0.0298095
0.00160113
0.155494
0.00234352
0.0207062
0.0019544
0.00269282
0.00269723
0.00270205
0.00399007
0.00466295
0.0330143
0.0016651
0.00444544
0.0730439
0.00106386
0.00230383
0.0253551
0.0276595
0.0121997
0.0118418
0.0148278
0.00137401
0.184728
0.0152783
0.0110493
0.0111691
0.140919
0.00584253
0.0933238
0.00212451
0.0193693
0.0044886
0.0131488
0.0110176
0.00506751
0.00283347
0.00696678
0.0698408
0.00375777
0.00177967
0.00174594
0.0380813
0.0023135
0.0168453
0.00143336
0.0638686
0.0223246
0.00145925
0.00994443
0.00123118
0.00123113
0.0101774
0.00123112
0.0490025
0.0929886
0.00103104
0.00567274
0.0241564
0.00171567
0.0183782
0.00725174
0.0149155
0.00711284
0.0418879
0.00253828
0.00180518
0.00123405
0.00323644
0.0170254
0.00850714
0.00124467
0.0239745
0.0427188
0.00530478
0.113269
0.00209278
0.0018018
0.00121461
0.00132036
0.00884266
0.0346068
0.00158388
0.123791
0.00506748
0.147449
0.00166648
0.0276444
0.00655944
0.00125508
0.00471075
0.124858
0.0125873
0.00184077
0.047375
0.00536651
0.068215
0.00215094
0.00131862
0.00547949
0.00430542
0.124377
0.00402177
0.00495542
0.0103186
0.0683484
0.0379761
0.166212
0.00958284
0.10009
0.00563859
0.0433407
0.0634101
0.00183032
0.0587864
0.0184843
0.0219425
0.134923
0.00146831
0.0624932
0.0118912
0.00159479
0.0100055
0.00260898
0.049206
0.00173406
0.0100701
0.00176353
0.0262091
0.00394713
0.0433751
0.00948778
0.00511068
0.00539129
0.00389337
0.00153566
0.00428844
0.00288207
0.0157162
0.00523439
0.0091501
0.0026654
0.0185882
0.0414074
0.0597584
0.0096588
0.00690671
0.00287908
0.00898061
0.00220853
0.0023768
0.00386726
0.0541079
0.00277302
0.00259181
0.0397345
0.0252374
0.0509278
0.0021849
0.0586452
0.000884559
0.0622737
0.0180065
0.00143058
0.00525795
0.0874174
0.0595422
0.00122381
0.0742552
0.0235117
0.0168818
0.0123462
0.0202879
0.0402631
0.00314761
0.00436514
0.00919276
0.0036661
0.00146319
0.00137324
0.00111519
0.116594
0.0637839
0.00421549
0.035288
0.00555455
0.00223814
0.00127881
0.11205
0.0714088
0.00153158
0.00305091
0.108008
0.0715649
0.0148837
0.00185951
0.00200158
0.0185952
0.0127104
0.130682
0.00356106
0.00546534
0.00323811
0.011456
0.0102092
0.0269384
0.0110323
0.00332037
0.0233993
0.0402001
0.0187128
0.00209293
0.0178638
0.00122403
0.0909879
0.00151587
0.0112726
0.0124248
0.0869013
0.0937129
0.00281168
0.0023584
0.00599005
0.00118512
0.00190424
0.0349978
0.00148582
0.00473247
0.144884
0.002608
0.00285369
0.00339507
0.139273
0.00146404
0.00144221
0.0641281
0.00976627
0.0012846
0.0101879
0.0491363
0.0693334
0.03513
0.024274
0.00665004
0.00371523
0.00447995
0.0067688
0.120752
0.0518165
0.00228644
0.0639863
0.00848276
0.0138011
0.0474249
0.00878295
0.080462
0.0240761
0.00358717
0.10322
0.00135193
0.0986955
0.00183619
0.00166536
0.00588861
0.0427788
0.162445
0.00157056
0.120099
0.0230315
0.0355884
0.00371772
0.00298554
0.0114029
0.0015697
0.00982798
0.00282494
0.0300388
0.00695048
0.0587883
0.0968504
0.00122553
0.00134983
0.00303018
0.0238845
0.00761759
0.00664379
0.00107161
0.00150957
0.00352955
0.00772643
0.118883
0.00157738
0.051627
0.0469188
0.00414592
0.00529018
0.0139519
0.00296885
0.00699574
0.0124705
0.0176442
0.00142271
0.0235587
0.0911689
0.000991016
0.00558714
0.090369
0.00110258
0.128003
0.107643
0.00399941
0.00505065
0.00190235
0.0995239
0.0195255
0.0619631
0.00180476
0.0669924
0.00228042
0.00258523
0.00152545
0.00143551
0.00159019
0.0116153
0.00148402
0.00198661
0.13363
0.0127716
0.00944156
0.0114837
0.00178018
0.00128345
0.00127344
0.00156493
0.00170002
0.0439577
0.00584644
0.144862
0.00142957
0.0165935
0.0254206
0.0235104
0.0279073
0.0665226
0.00477935
0.00133786
0.107999
0.0252468
0.144808
0.00149524
0.0267357
0.00169118
0.00215987
0.00293525
0.086477
0.0664135
0.00115367
0.00261329
0.10319
0.00322825
0.137246
0.00468804
0.00294921
0.00584734
0.00977539
0.00263435
0.0579381
0.0605115
0.00361762
0.00148011
0.0150132
0.00695572
0.0633799
0.00110223
0.0815679
0.142558
0.0311706
0.0625619
0.00174946
0.00142932
0.00287986
0.0086401
0.00150054
0.00337787
0.119506
0.013983
0.0856162
0.00174973
0.0365595
0.0196814
0.0616576
0.0972889
0.0646571
0.00205272
0.0392067
0.00153873
0.0772504
0.0116074
0.155308
0.00181961
0.10032
0.0138379
0.0105474
0.00591451
0.00178463
0.0929906
0.00117306
0.00731
0.00848772
0.141602
0.0801162
0.0014234
0.00101563
0.0407502
0.0651296
0.00343061
0.00362521
0.00889854
0.00156009
0.0278522
0.00214485
0.0168861
0.0927109
0.00178954
0.0356497
0.0018816
0.0593873
0.0281168
0.110037
0.000986578
0.00145991
0.111009
0.00277513
0.00367165
0.139405
0.0571635
0.144893
0.00281233
0.00153904
0.00755559
0.0280205
0.0102783
0.0999223
0.0509627
0.0246745
0.10714
0.0039494
0.0463708
0.0078099
0.00288442
0.0106387
0.130759
0.00237128
0.00569531
0.0964578
0.00545387
0.014686
0.00288854
0.0200739
0.00230969
0.00844457
0.0528952
0.00613674
0.00614845
0.0256945
0.00170375
0.00810958
0.018174
0.00292921
0.0569955
0.00452994
0.00387719
0.0048105
0.0965562
0.0606601
0.120728
0.0105531
0.00889438
0.00877762
0.00237354
0.0012995
0.00223423
0.13321
0.0015957
0.00163094
0.00158387
0.060334
0.0467054
0.00887352
0.00188991
0.0232418
0.0107433
0.00152187
0.00130055
0.0016987
0.00379819
0.00403936
0.00154164
0.00290094
0.08811
0.00181947
0.00363167
0.0366641
0.0380416
0.0279498
0.00143415
0.00597684
0.00181763
0.0230226
0.00273318
0.0424494
0.00254377
0.00133887
0.0359652
0.00877158
0.00146601
0.00234776
0.0084411
0.0287653
0.0238683
0.03328
0.00364507
0.005434
0.002499
0.00155242
0.0783573
0.00105133
0.00433519
0.00270872
0.144661
0.137543
0.00354419
0.00294443
0.0616727
0.0090847
0.00489957
0.00614323
0.00209141
0.00192121
0.0015921
0.00149303
0.0194286
0.0768749
0.00519882
0.00127103
0.00225177
0.0495311
0.0018809
0.00427297
0.00211606
0.0318423
0.146322
0.0017492
0.0026639
0.00249345
0.00181708
0.00133023
0.0859612
0.0028385
0.00158371
0.0461437
0.00542544
0.00651103
0.0998511
0.00388723
0.00185584
0.00283367
0.14219
0.00112224
0.00493343
0.0016201
0.107089
0.0254309
0.0322513
0.0359919
0.0360934
0.00738709
0.00950468
0.0080288
0.00291453
0.0104053
0.00136205
0.0187142
0.0183964
0.0146088
0.00105675
0.00581635
0.00145445
0.014553
0.0139389
0.0010326
0.00362924
0.0481558
0.00840348
0.00284886
0.00228434
0.0036915
0.0546605
0.0806632
0.0497265
0.00311777
0.0284103
0.00148881
0.00181678
0.00261197
0.0134286
0.00384689
0.00132468
0.0475134
0.00249917
0.0111533
0.00510447
0.0480306
0.0512859
0.00786524
0.00148135
0.140411
0.00153114
0.00320001
0.00447217
0.0042782
0.0745935
0.113673
0.0148613
0.0375771
0.00168584
0.00170123
0.00515144
0.00287467
0.0562803
0.0436329
0.04085
0.132112
0.00182268
0.0300303
0.00136226
0.0043942
0.0283396
0.00247582
0.00214553
0.00146914
0.00108198
0.0239348
0.0667908
0.104309
0.0240603
0.00213172
0.00343664
0.00162595
0.113292
0.0361971
0.00333592
0.14953
0.00339843
0.0230412
0.00332277
0.00291448
0.00853841
0.00952207
0.0755464
0.00919601
0.00990355
0.00347692
0.00442671
0.00924464
0.0977383
0.00381546
0.068995
0.00251888
0.00161102
0.00187888
0.0505737
0.00562348
0.0563628
0.0107469
0.0273299
0.0355398
0.0126832
0.00139548
0.00188693
0.00465599
0.00781718
0.00347516
0.00574058
0.00209608
0.00152064
0.0153547
0.00146482
0.00349813
0.064055
0.00581156
0.00153042
0.00474592
0.142553
0.00814124
0.0016244
0.00324689
0.00103376
0.0416571
0.00300952
0.074589
0.0639829
0.0108131
0.00187021
0.159464
0.0014737
0.00163187
0.00334354
0.00261188
0.0026277
0.00157452
0.00371181
0.108498
0.020134
0.0812025
0.00728442
0.00374129
0.00222559
0.0191376
0.0106661
0.0744669
0.00158663
0.0111378
0.00921776
0.00174587
0.00336054
0.00167875
0.001578
0.0594981
0.00104368
0.104124
0.0147843
0.00534199
0.00166079
0.00435861
0.0143472
0.0315041
0.00199618
0.0146278
0.00201567
0.00100509
0.00998895
0.00153877
0.0104663
0.14406
0.00189044
0.00736988
0.027686
0.000988457
0.00189137
0.0148899
0.0150155
0.00497875
0.00131031
0.0636939
0.0484299
0.111217
0.0896
0.0285187
0.00151264
0.0108129
0.00165264
0.120752
0.0471182
0.0020138
0.036496
0.165378
0.111331
0.0505104
0.00271041
0.0677835
0.00158536
0.0362245
0.0272834
0.00773926
0.0387256
0.00268074
0.0699269
0.14945
0.0650231
0.012787
0.00503322
0.021921
0.00144603
0.0473329
0.00779812
0.0159998
0.00151722
0.0334043
0.104972
0.0599451
0.0750295
0.00339987
0.0687015
0.0571768
0.0255927
0.00280752
0.142612
0.00803273
0.00884761
0.0540104
0.00166565
0.00161404
0.0030567
0.00260005
0.0221805
0.0053705
0.0442952
0.0035042
0.00361333
0.0369789
0.00292507
0.00505236
0.00242074
0.0133682
0.0629287
0.00164012
0.00882486
0.00297704
0.00187462
0.0783906
0.0627937
0.00122262
0.00153465
0.00861119
0.00605165
0.0278669
0.00183125
0.00248778
0.110883
0.0919994
0.0402844
0.0991688
0.134248
0.060057
0.00960293
0.00152455
0.0146932
0.0432663
0.00230708
0.0845523
0.00303814
0.00508622
0.0446063
0.0164804
0.0625343
0.00306608
0.0177193
0.00651231
0.0631501
0.0384782
0.00118062
0.00147526
0.132257
0.0089377
0.00759812
0.0153803
0.021246
0.160306
0.0353019
0.00293279
0.00299015
0.0109896
0.00212076
0.0371062
0.00164117
0.00458695
0.0251238
0.00125451
0.0265205
0.00179742
0.00240585
0.00142466
0.00269945
0.00151369
0.00151764
0.0706447
0.0175944
0.0225468
0.0772117
0.0653754
0.0151022
0.00462523
0.0598012
0.0133899
0.00419448
0.0049359
0.00266561
0.00360146
0.0131057
0.00257244
0.00213311
0.0103334
0.0184306
0.00385372
0.00175802
0.00181864
0.0189079
0.0771115
0.0666094
0.0673931
0.0129078
0.00127842
0.00335167
0.0617555
0.0012814
0.107168
0.0045535
0.00210007
0.00462462
0.00389402
0.00399113
0.00322774
0.028557
0.0108098
0.077638
0.00359039
0.0624416
0.0272376
0.0132485
0.0031285
0.0961186
0.0242981
0.00118134
0.116229
0.0413812
0.0162231
0.00158687
0.00487449
0.00302931
0.00920602
0.138584
0.00164924
0.00830567
0.0268306
0.0674296
0.0104348
0.0151736
0.0566033
0.0219579
0.00125358
0.0237387
0.0804144
0.00653499
0.0805945
0.011405
0.00981754
0.0916159
0.0998736
0.00140467
0.0986283
0.0859353