/*--------------------------------*- C++ -*----------------------------------*\
| =========                 |                                                 |
| \\      /  F ield         | OpenFOAM: The Open Source CFD Toolbox           |
|  \\    /   O peration     | Version:  v2012                                 |
|   \\  /    A nd           | Website:  www.openfoam.com                      |
|    \\/     M anipulation  |                                                 |
\*---------------------------------------------------------------------------*/
FoamFile
{
    version     2.0;
    format      ascii;
    class       pointVectorField;
    location    "350";
    object      pointDisplacement;
}
// * * * * * * * * * * * * * * * * * * * * * * * * * * * * * * * * * * * * * //

dimensions      [0 1 0 0 0 0 0];


internalField   nonuniform List<vector> 
14324
(
(0 0 0)
(-0.0171283 -0.164322 0)
(0 0 0)
(-0.0171283 -0.164322 0)
(0 0 0)
(0 0 0)
(0 0 0)
(0 0 0)
(0 0 0)
(0 0 0)
(0 0 0)
(0 0 0)
(0 0 0)
(0 0 0)
(0 0 0)
(0 0 0)
(0 0 0)
(0 0 0)
(0 0 0)
(0 0 0)
(0 0 0)
(0 0 0)
(0 0 0)
(0 0 0)
(0 0 0)
(0 0 0)
(0 0 0)
(0 0 0)
(0 0 0)
(0 0 0)
(0 0 0)
(0 0 0)
(0 0 0)
(0 0 0)
(0 0 0)
(0 0 0)
(0 0 0)
(0 0 0)
(0 0 0)
(0 0 0)
(0 0 0)
(0 0 0)
(0 0 0)
(0 0 0)
(0 0 0)
(0 0 0)
(0 0 0)
(0 0 0)
(0 0 0)
(0 0 0)
(0 0 0)
(0 0 0)
(0 0 0)
(0 0 0)
(0 0 0)
(0 0 0)
(0 0 0)
(0 0 0)
(0 0 0)
(0 0 0)
(0 0 0)
(0 0 0)
(0 0 0)
(0 0 0)
(0 0 0)
(0 0 0)
(0 0 0)
(0 0 0)
(0 0 0)
(0 0 0)
(0 0 0)
(0 0 0)
(0 0 0)
(0 0 0)
(0 0 0)
(0 0 0)
(-0.0227133 0.108165 0)
(-0.0226713 0.106116 0)
(-0.0226293 0.104068 0)
(-0.0225874 0.102019 0)
(-0.0225454 0.09997 0)
(-0.0225034 0.0979212 0)
(-0.0224614 0.0958724 0)
(-0.0224194 0.0938237 0)
(-0.0223774 0.0917749 0)
(-0.0223354 0.0897261 0)
(-0.0222934 0.0876773 0)
(-0.0222514 0.0856286 0)
(-0.0222094 0.0835798 0)
(-0.0221674 0.081531 0)
(-0.0221254 0.0794822 0)
(-0.0220834 0.0774335 0)
(-0.0220415 0.0753847 0)
(-0.0219995 0.0733359 0)
(-0.0219575 0.0712871 0)
(-0.0219155 0.0692384 0)
(-0.0218735 0.0671896 0)
(-0.0218315 0.0651408 0)
(-0.0217895 0.0630921 0)
(-0.0217475 0.0610433 0)
(-0.0217055 0.0589945 0)
(-0.0216635 0.0569457 0)
(-0.0216215 0.054897 0)
(-0.0215795 0.0528482 0)
(-0.0215375 0.0507994 0)
(-0.0214956 0.0487506 0)
(-0.0214536 0.0467019 0)
(-0.0214116 0.0446531 0)
(-0.0213696 0.0426043 0)
(-0.0213276 0.0405555 0)
(-0.0212856 0.0385068 0)
(-0.0212436 0.036458 0)
(-0.0212016 0.0344092 0)
(-0.0211596 0.0323605 0)
(-0.0211176 0.0303117 0)
(-0.0210756 0.0282629 0)
(-0.0210336 0.0262141 0)
(-0.0209916 0.0241654 0)
(-0.0209497 0.0221166 0)
(-0.0209077 0.0200678 0)
(-0.0208657 0.018019 0)
(-0.0208237 0.0159703 0)
(-0.0207817 0.0139215 0)
(-0.0207397 0.0118727 0)
(-0.0206977 0.00982394 0)
(-0.0206557 0.00777517 0)
(-0.0206137 0.0057264 0)
(-0.0205717 0.00367762 0)
(-0.0205297 0.00162885 0)
(-0.0204877 -0.000419924 0)
(-0.0204457 -0.0024687 0)
(-0.0204037 -0.00451747 0)
(-0.0203618 -0.00656624 0)
(-0.0203198 -0.00861502 0)
(-0.0202778 -0.0106638 0)
(-0.0202358 -0.0127126 0)
(-0.0201938 -0.0147613 0)
(-0.0201518 -0.0168101 0)
(-0.0201098 -0.0188589 0)
(-0.0200678 -0.0209077 0)
(-0.0200258 -0.0229564 0)
(-0.0199838 -0.0250052 0)
(-0.0199418 -0.027054 0)
(-0.0198998 -0.0291028 0)
(-0.0198578 -0.0311515 0)
(-0.0198159 -0.0332003 0)
(-0.0197739 -0.0352491 0)
(-0.0197319 -0.0372978 0)
(-0.0196899 -0.0393466 0)
(-0.0196479 -0.0413954 0)
(-0.0196059 -0.0434442 0)
(-0.0195639 -0.0454929 0)
(-0.0195219 -0.0475417 0)
(-0.0194799 -0.0495905 0)
(-0.0194379 -0.0516393 0)
(-0.0193959 -0.053688 0)
(-0.0193539 -0.0557368 0)
(-0.0193119 -0.0577856 0)
(-0.01927 -0.0598344 0)
(-0.019228 -0.0618831 0)
(-0.019186 -0.0639319 0)
(-0.019144 -0.0659807 0)
(-0.019102 -0.0680294 0)
(-0.01906 -0.0700782 0)
(-0.019018 -0.072127 0)
(-0.018976 -0.0741758 0)
(-0.018934 -0.0762245 0)
(-0.018892 -0.0782733 0)
(-0.01885 -0.0803221 0)
(-0.018808 -0.0823709 0)
(-0.018766 -0.0844196 0)
(-0.0187241 -0.0864684 0)
(-0.0186821 -0.0885172 0)
(-0.0186401 -0.090566 0)
(-0.0185981 -0.0926147 0)
(-0.0185561 -0.0946635 0)
(-0.0185141 -0.0967123 0)
(-0.0184721 -0.098761 0)
(-0.0184301 -0.10081 0)
(-0.0183881 -0.102859 0)
(-0.0183461 -0.104907 0)
(-0.0183041 -0.106956 0)
(-0.0182621 -0.109005 0)
(-0.0182201 -0.111054 0)
(-0.0181782 -0.113102 0)
(-0.0181362 -0.115151 0)
(-0.0180942 -0.1172 0)
(-0.0180522 -0.119249 0)
(-0.0180102 -0.121298 0)
(-0.0179682 -0.123346 0)
(-0.0179262 -0.125395 0)
(-0.0178842 -0.127444 0)
(-0.0178422 -0.129493 0)
(-0.0178002 -0.131541 0)
(-0.0177582 -0.13359 0)
(-0.0177162 -0.135639 0)
(-0.0176742 -0.137688 0)
(-0.0176323 -0.139737 0)
(-0.0175903 -0.141785 0)
(-0.0175483 -0.143834 0)
(-0.0175063 -0.145883 0)
(-0.0174643 -0.147932 0)
(-0.0174223 -0.14998 0)
(-0.0173803 -0.152029 0)
(-0.0173383 -0.154078 0)
(-0.0172963 -0.156127 0)
(-0.0172543 -0.158175 0)
(-0.0172123 -0.160224 0)
(-0.0171703 -0.162273 0)
(-0.0150796 -0.16428 0)
(-0.0130308 -0.164238 0)
(-0.010982 -0.164196 0)
(-0.00893325 -0.164154 0)
(-0.00688448 -0.164112 0)
(-0.00483571 -0.16407 0)
(-0.00278693 -0.164028 0)
(-0.000738158 -0.163986 0)
(0.00131062 -0.163944 0)
(0.00335939 -0.163902 0)
(0.00540816 -0.16386 0)
(0.00745694 -0.163818 0)
(0.00950571 -0.163776 0)
(0.0115545 -0.163734 0)
(0.0136033 -0.163692 0)
(0.015652 -0.16365 0)
(0.0177008 -0.163608 0)
(0.0197496 -0.163566 0)
(0 0 0)
(0 0 0)
(0 0 0)
(0 0 0)
(0 0 0)
(0 0 0)
(0 0 0)
(0 0 0)
(0 0 0)
(0 0 0)
(0 0 0)
(0 0 0)
(0 0 0)
(0 0 0)
(0 0 0)
(0 0 0)
(0 0 0)
(0 0 0)
(0 0 0)
(0 0 0)
(0 0 0)
(0 0 0)
(0 0 0)
(0 0 0)
(0 0 0)
(0 0 0)
(0 0 0)
(0 0 0)
(0 0 0)
(0 0 0)
(0 0 0)
(0 0 0)
(0 0 0)
(0 0 0)
(0 0 0)
(0 0 0)
(0 0 0)
(0 0 0)
(0 0 0)
(0 0 0)
(0 0 0)
(0 0 0)
(0 0 0)
(0 0 0)
(0 0 0)
(0 0 0)
(0 0 0)
(0 0 0)
(0 0 0)
(0 0 0)
(0 0 0)
(0 0 0)
(0 0 0)
(0 0 0)
(0 0 0)
(0 0 0)
(0 0 0)
(0 0 0)
(0 0 0)
(0 0 0)
(0 0 0)
(0 0 0)
(0 0 0)
(0 0 0)
(0 0 0)
(0 0 0)
(0 0 0)
(0 0 0)
(0 0 0)
(0 0 0)
(0 0 0)
(0 0 0)
(-0.0227133 0.108165 0)
(-0.0226713 0.106116 0)
(-0.0226293 0.104068 0)
(-0.0225874 0.102019 0)
(-0.0225454 0.09997 0)
(-0.0225034 0.0979212 0)
(-0.0224614 0.0958724 0)
(-0.0224194 0.0938237 0)
(-0.0223774 0.0917749 0)
(-0.0223354 0.0897261 0)
(-0.0222934 0.0876773 0)
(-0.0222514 0.0856286 0)
(-0.0222094 0.0835798 0)
(-0.0221674 0.081531 0)
(-0.0221254 0.0794822 0)
(-0.0220834 0.0774335 0)
(-0.0220415 0.0753847 0)
(-0.0219995 0.0733359 0)
(-0.0219575 0.0712871 0)
(-0.0219155 0.0692384 0)
(-0.0218735 0.0671896 0)
(-0.0218315 0.0651408 0)
(-0.0217895 0.0630921 0)
(-0.0217475 0.0610433 0)
(-0.0217055 0.0589945 0)
(-0.0216635 0.0569457 0)
(-0.0216215 0.054897 0)
(-0.0215795 0.0528482 0)
(-0.0215375 0.0507994 0)
(-0.0214956 0.0487506 0)
(-0.0214536 0.0467019 0)
(-0.0214116 0.0446531 0)
(-0.0213696 0.0426043 0)
(-0.0213276 0.0405555 0)
(-0.0212856 0.0385068 0)
(-0.0212436 0.036458 0)
(-0.0212016 0.0344092 0)
(-0.0211596 0.0323605 0)
(-0.0211176 0.0303117 0)
(-0.0210756 0.0282629 0)
(-0.0210336 0.0262141 0)
(-0.0209916 0.0241654 0)
(-0.0209497 0.0221166 0)
(-0.0209077 0.0200678 0)
(-0.0208657 0.018019 0)
(-0.0208237 0.0159703 0)
(-0.0207817 0.0139215 0)
(-0.0207397 0.0118727 0)
(-0.0206977 0.00982394 0)
(-0.0206557 0.00777517 0)
(-0.0206137 0.0057264 0)
(-0.0205717 0.00367762 0)
(-0.0205297 0.00162885 0)
(-0.0204877 -0.000419924 0)
(-0.0204457 -0.0024687 0)
(-0.0204037 -0.00451747 0)
(-0.0203618 -0.00656624 0)
(-0.0203198 -0.00861502 0)
(-0.0202778 -0.0106638 0)
(-0.0202358 -0.0127126 0)
(-0.0201938 -0.0147613 0)
(-0.0201518 -0.0168101 0)
(-0.0201098 -0.0188589 0)
(-0.0200678 -0.0209077 0)
(-0.0200258 -0.0229564 0)
(-0.0199838 -0.0250052 0)
(-0.0199418 -0.027054 0)
(-0.0198998 -0.0291028 0)
(-0.0198578 -0.0311515 0)
(-0.0198159 -0.0332003 0)
(-0.0197739 -0.0352491 0)
(-0.0197319 -0.0372978 0)
(-0.0196899 -0.0393466 0)
(-0.0196479 -0.0413954 0)
(-0.0196059 -0.0434442 0)
(-0.0195639 -0.0454929 0)
(-0.0195219 -0.0475417 0)
(-0.0194799 -0.0495905 0)
(-0.0194379 -0.0516393 0)
(-0.0193959 -0.053688 0)
(-0.0193539 -0.0557368 0)
(-0.0193119 -0.0577856 0)
(-0.01927 -0.0598344 0)
(-0.019228 -0.0618831 0)
(-0.019186 -0.0639319 0)
(-0.019144 -0.0659807 0)
(-0.019102 -0.0680294 0)
(-0.01906 -0.0700782 0)
(-0.019018 -0.072127 0)
(-0.018976 -0.0741758 0)
(-0.018934 -0.0762245 0)
(-0.018892 -0.0782733 0)
(-0.01885 -0.0803221 0)
(-0.018808 -0.0823709 0)
(-0.018766 -0.0844196 0)
(-0.0187241 -0.0864684 0)
(-0.0186821 -0.0885172 0)
(-0.0186401 -0.090566 0)
(-0.0185981 -0.0926147 0)
(-0.0185561 -0.0946635 0)
(-0.0185141 -0.0967123 0)
(-0.0184721 -0.098761 0)
(-0.0184301 -0.10081 0)
(-0.0183881 -0.102859 0)
(-0.0183461 -0.104907 0)
(-0.0183041 -0.106956 0)
(-0.0182621 -0.109005 0)
(-0.0182201 -0.111054 0)
(-0.0181782 -0.113102 0)
(-0.0181362 -0.115151 0)
(-0.0180942 -0.1172 0)
(-0.0180522 -0.119249 0)
(-0.0180102 -0.121298 0)
(-0.0179682 -0.123346 0)
(-0.0179262 -0.125395 0)
(-0.0178842 -0.127444 0)
(-0.0178422 -0.129493 0)
(-0.0178002 -0.131541 0)
(-0.0177582 -0.13359 0)
(-0.0177162 -0.135639 0)
(-0.0176742 -0.137688 0)
(-0.0176323 -0.139737 0)
(-0.0175903 -0.141785 0)
(-0.0175483 -0.143834 0)
(-0.0175063 -0.145883 0)
(-0.0174643 -0.147932 0)
(-0.0174223 -0.14998 0)
(-0.0173803 -0.152029 0)
(-0.0173383 -0.154078 0)
(-0.0172963 -0.156127 0)
(-0.0172543 -0.158175 0)
(-0.0172123 -0.160224 0)
(-0.0171703 -0.162273 0)
(-0.0150796 -0.16428 0)
(-0.0130308 -0.164238 0)
(-0.010982 -0.164196 0)
(-0.00893325 -0.164154 0)
(-0.00688448 -0.164112 0)
(-0.00483571 -0.16407 0)
(-0.00278693 -0.164028 0)
(-0.000738158 -0.163986 0)
(0.00131062 -0.163944 0)
(0.00335939 -0.163902 0)
(0.00540816 -0.16386 0)
(0.00745694 -0.163818 0)
(0.00950571 -0.163776 0)
(0.0115545 -0.163734 0)
(0.0136033 -0.163692 0)
(0.015652 -0.16365 0)
(0.0177008 -0.163608 0)
(0.0197496 -0.163566 0)
(-0.0219796 0.0723387 0)
(-0.0212232 0.0354514 0)
(-0.0204732 -0.00116723 0)
(-0.0197113 -0.0382813 0)
(-0.0189529 -0.0753532 0)
(-0.018201 -0.11201 0)
(-0.0174395 -0.149104 0)
(-0.0193326 -0.0568112 0)
(-0.0223574 0.0907762 0)
(-0.0200879 -0.0199509 0)
(-0.0216 0.0538407 0)
(-0.0178203 -0.130574 0)
(-0.0208456 0.0170238 0)
(-0.0185786 -0.0935632 0)
(0.00461225 -0.163886 0)
(-0.0119449 -0.164215 0)
(0.0189373 -0.163595 0)
(-0.000708957 -0.00421826 0)
(-0.000400742 -0.00772937 0)
(-0.000904233 -0.00304125 0)
(-0.00100514 -0.000279558 0)
(-0.000241894 -0.00908749 0)
(-4.91897e-05 -0.0103653 0)
(-0.0172285 -0.159003 0)
(-0.000473667 -0.00372333 0)
(-0.000366542 -0.00522384 0)
(0.000156115 -0.0109239 0)
(-0.00102181 0.00150197 0)
(-0.000308657 -0.00377039 0)
(-0.0179872 -0.122464 0)
(-0.0210142 0.0252903 0)
(-0.0184102 -0.10178 0)
(-0.0217768 0.0623984 0)
(-0.0195454 -0.0464216 0)
(-0.0191185 -0.0672638 0)
(-0.0199245 -0.0278943 0)
(-0.0221897 0.082592 0)
(-0.0202972 -0.00973344 0)
(-0.0213975 0.0439053 0)
(-0.0176099 -0.140794 0)
(-0.022526 0.099033 0)
(-0.0206423 0.00705119 0)
(-0.018786 -0.0834325 0)
(-0.00390849 -0.164044 0)
(-0.000359533 -0.00328398 0)
(-0.000343471 -0.00852368 0)
(-0.000791006 -0.00370409 0)
(-0.000940726 -0.00150329 0)
(-0.000220725 -0.00244607 0)
(-0.000260698 -0.00257786 0)
(0.0125446 -0.163717 0)
(-0.000128805 -0.00133485 0)
(-0.000177148 -0.00977598 0)
(4.92207e-05 -0.0105644 0)
(-0.000369318 -0.00617498 0)
(-0.00097232 -0.00240421 0)
(-0.000947614 0.00059681 0)
(-0.00120673 0.0028266 0)
(-0.000491316 -0.00331019 0)
(-0.000525222 -0.00448563 0)
(-0.000341503 -0.00447171 0)
(-0.000276019 -0.00318906 0)
(-0.000141918 -0.00152689 0)
(-5.29509e-05 -0.000557481 0)
(-0.0178931 0.0694002 0)
(-0.0177017 0.0662046 0)
(-0.0179267 0.0643868 0)
(-0.0177278 0.0612541 0)
(-0.0179709 0.0590235 0)
(-0.0177014 0.0555371 0)
(-0.0179309 0.0529917 0)
(-0.0177125 0.0497427 0)
(-0.0179052 0.0471833 0)
(-0.0176753 0.0441791 0)
(-0.0178557 0.0414332 0)
(-0.0176354 0.0386652 0)
(-0.0177915 0.0357167 0)
(-0.0175742 0.0332087 0)
(-0.0177114 0.0297973 0)
(-0.0174848 0.0276072 0)
(-0.0176131 0.0238514 0)
(-0.0173865 0.0217843 0)
(-0.0174955 0.0179022 0)
(-0.017257 0.0159316 0)
(-0.0173633 0.0119477 0)
(-0.0171138 0.0101341 0)
(-0.0172107 0.00606431 0)
(-0.0169715 0.0044408 0)
(-0.0170408 0.000278969 0)
(-0.0168051 -0.00107512 0)
(-0.0168623 -0.00542239 0)
(-0.016625 -0.00656921 0)
(-0.0166719 -0.0109688 0)
(-0.0164368 -0.0119014 0)
(-0.016464 -0.0164573 0)
(-0.0162268 -0.0170541 0)
(-0.0162363 -0.0217257 0)
(-0.0160034 -0.022158 0)
(-0.016002 -0.0267423 0)
(-0.0157688 -0.0271795 0)
(-0.0157618 -0.0317896 0)
(-0.0155181 -0.0320651 0)
(-0.015502 -0.0369791 0)
(-0.0152557 -0.0368626 0)
(-0.0152261 -0.0418553 0)
(-0.0149914 -0.0414429 0)
(-0.0149487 -0.0462456 0)
(-0.0174858 0.0465081 0)
(-0.0169811 0.0140667 0)
(-0.0159942 -0.017552 0)
(-0.0147156 -0.0456089 0)
(-0.014661 -0.0503496 0)
(-0.0144272 -0.0496227 0)
(-0.0143615 -0.0542935 0)
(-0.0144719 -0.0447758 0)
(-0.0141323 -0.0534263 0)
(-0.0140518 -0.0580364 0)
(-0.0138268 -0.0568154 0)
(-0.0137332 -0.061511 0)
(-0.0135138 -0.0599494 0)
(-0.0134027 -0.0647679 0)
(-0.0131837 -0.0630065 0)
(-0.0130579 -0.0678629 0)
(-0.0157781 -0.0366702 0)
(-0.0169099 -0.0100158 0)
(-0.014282 -0.0592338 0)
(-0.0128361 -0.0660096 0)
(-0.0127058 -0.0706613 0)
(-0.0124853 -0.0686964 0)
(-0.0123518 -0.0730913 0)
(-0.0125633 -0.0751662 0)
(-0.0122009 -0.0773929 0)
(-0.0124016 -0.0795734 0)
(-0.0120278 -0.0816808 0)
(-0.0118373 -0.079316 0)
(-0.0116516 -0.0834349 0)
(-0.0114731 -0.0810213 0)
(-0.0112804 -0.0849102 0)
(-0.0114294 -0.0874054 0)
(-0.0110668 -0.0886363 0)
(-0.0111995 -0.0912268 0)
(-0.0109154 -0.0863389 0)
(-0.0177214 0.0200298 0)
(-0.0108343 -0.0922258 0)
(-0.0109463 -0.0949014 0)
(-0.0105829 -0.0956603 0)
(-0.0106824 -0.0983392 0)
(-0.0103146 -0.0989126 0)
(-0.0104064 -0.101734 0)
(-0.0100222 -0.102002 0)
(-0.0100888 -0.104848 0)
(-0.0181435 0.0501906 0)
(-0.00969985 -0.104876 0)
(-0.00974786 -0.107694 0)
(-0.00935351 -0.10751 0)
(-0.0093348 -0.104473 0)
(-0.00938191 -0.110354 0)
(-0.00898498 -0.109972 0)
(-0.00899226 -0.112874 0)
(-0.0104964 -0.10456 0)
(-0.00859478 -0.11224 0)
(-0.00857196 -0.11513 0)
(-0.00818312 -0.114257 0)
(-0.00812971 -0.117054 0)
(-0.00774851 -0.11603 0)
(-0.00766316 -0.118844 0)
(-0.0129623 -0.0611049 0)
(-0.00729962 -0.117621 0)
(-0.00716356 -0.120403 0)
(-0.00735205 -0.114988 0)
(-0.0068339 -0.118902 0)
(-0.00664813 -0.121653 0)
(-0.00632758 -0.119969 0)
(-0.00851924 -0.117932 0)
(-0.0061145 -0.122699 0)
(-0.00578805 -0.120943 0)
(-0.00644737 -0.124332 0)
(-0.00588136 -0.125306 0)
(-0.00622982 -0.126911 0)
(-0.00563799 -0.127808 0)
(-0.00597076 -0.129398 0)
(-0.0053925 -0.13012 0)
(-0.005655 -0.131675 0)
(-0.00508156 -0.132228 0)
(-0.00533384 -0.133793 0)
(-0.00471653 -0.134255 0)
(-0.00447517 -0.13239 0)
(-0.00499527 -0.135868 0)
(-0.00432745 -0.136193 0)
(-0.00458813 -0.137792 0)
(-0.00390814 -0.137944 0)
(-0.00415918 -0.139524 0)
(-0.0048559 -0.139324 0)
(-0.00441812 -0.141026 0)
(-0.00513903 -0.140764 0)
(-0.00370278 -0.141118 0)
(-0.00393475 -0.142585 0)
(-0.00319964 -0.142589 0)
(-0.00340526 -0.144003 0)
(-0.00264285 -0.143903 0)
(-0.00281405 -0.145287 0)
(-0.00202723 -0.145073 0)
(-0.00216767 -0.146442 0)
(-0.0013565 -0.146126 0)
(-0.00126988 -0.144721 0)
(-0.000569661 -0.145668 0)
(-0.0029869 -0.146629 0)
(-0.00062534 -0.147061 0)
(0.000185308 -0.146519 0)
(0.000183011 -0.147882 0)
(0.000992059 -0.147231 0)
(0.00109562 -0.14853 0)
(0.00197295 -0.147647 0)
(0.00206394 -0.149036 0)
(0.00284312 -0.148301 0)
(0.00304965 -0.14946 0)
(0.00374008 -0.14866 0)
(0.00406772 -0.149726 0)
(-0.000566918 -0.144218 0)
(0.00229333 -0.150257 0)
(0.00358527 -0.14763 0)
(-0.0219385 0.104138 0)
(-0.0218389 0.101416 0)
(-0.0219268 0.100158 0)
(-0.0218286 0.0974427 0)
(-0.0219055 0.0961132 0)
(-0.0218081 0.0934264 0)
(-0.0218748 0.0919292 0)
(-0.0217783 0.0893092 0)
(-0.0218329 0.0877233 0)
(-0.0217405 0.08515 0)
(-0.0217873 0.0836912 0)
(-0.0216972 0.0810483 0)
(-0.0216453 0.0823332 0)
(-0.0216056 0.0783967 0)
(-0.0217311 0.102621 0)
(-0.021648 0.0768337 0)
(-0.0215609 0.0742761 0)
(-0.0215932 0.0724782 0)
(-0.0215094 0.0700517 0)
(-0.0215349 0.0682123 0)
(-0.0214489 0.0657474 0)
(-0.0214723 0.0639486 0)
(-0.0213861 0.061382 0)
(-0.0214061 0.0596428 0)
(-0.0213217 0.0570727 0)
(-0.0213371 0.0553113 0)
(-0.0212574 0.0528576 0)
(-0.0212656 0.050973 0)
(-0.0211886 0.0486551 0)
(-0.021192 0.0466625 0)
(-0.021114 0.0443623 0)
(-0.0211167 0.0423984 0)
(-0.021038 0.040044 0)
(-0.0210411 0.0382297 0)
(-0.0209619 0.0358001 0)
(-0.0209659 0.0341225 0)
(-0.020884 0.0315222 0)
(-0.0208832 0.0335177 0)
(-0.0208059 0.029195 0)
(-0.0212332 0.0540539 0)
(-0.0215064 0.0757029 0)
(-0.0208036 0.0271007 0)
(-0.0207246 0.0247421 0)
(-0.0207191 0.0225786 0)
(-0.0206402 0.0202746 0)
(-0.0206316 0.0180334 0)
(-0.020554 0.0157865 0)
(-0.020543 0.013506 0)
(-0.0204671 0.0113029 0)
(-0.0204545 0.00901345 0)
(-0.0203798 0.00683428 0)
(-0.0203677 0.00462602 0)
(-0.0202919 0.00243298 0)
(-0.0202799 0.0002704 0)
(-0.0202031 -0.00191212 0)
(-0.020192 -0.00401967 0)
(-0.0201144 -0.00618756 0)
(-0.0201049 -0.0082094 0)
(-0.0200244 -0.0105191 0)
(-0.0200359 -0.00822528 0)
(-0.0199415 -0.0127324 0)
(-0.020475 0.0135359 0)
(-0.0199305 -0.0152692 0)
(-0.0198451 -0.0172692 0)
(-0.0198277 -0.0197708 0)
(-0.0197463 -0.0217824 0)
(-0.0197336 -0.0240857 0)
(-0.0196482 -0.026221 0)
(-0.0196365 -0.0285132 0)
(-0.0195514 -0.0305874 0)
(-0.019538 -0.0329805 0)
(-0.0194521 -0.0349328 0)
(-0.0194349 -0.0374725 0)
(-0.0193485 -0.0393067 0)
(-0.0193291 -0.0419658 0)
(-0.0192426 -0.0437566 0)
(-0.0192234 -0.0464279 0)
(-0.0191343 -0.048215 0)
(-0.0191165 -0.0508556 0)
(-0.0190229 -0.0526807 0)
(-0.0190394 -0.04995 0)
(-0.0189217 -0.0545113 0)
(-0.0195513 -0.0286683 0)
(-0.0189066 -0.0572495 0)
(-0.0188 -0.0591095 0)
(-0.0187855 -0.0618747 0)
(-0.0186782 -0.0636273 0)
(-0.0186605 -0.066489 0)
(-0.0185514 -0.0681024 0)
(-0.0186797 -0.0611834 0)
(-0.0185314 -0.0710777 0)
(-0.0184184 -0.0725351 0)
(-0.0183989 -0.0755958 0)
(-0.0182797 -0.0770245 0)
(-0.0182607 -0.080093 0)
(-0.0181336 -0.0815224 0)
(-0.0181161 -0.0845671 0)
(-0.0179812 -0.0859612 0)
(-0.0179994 -0.0828213 0)
(-0.0178384 -0.0872432 0)
(-0.0178195 -0.0904221 0)
(-0.0176697 -0.0916247 0)
(-0.0176477 -0.0948542 0)
(-0.0174901 -0.0959204 0)
(-0.017466 -0.0991825 0)
(-0.0172981 -0.100121 0)
(-0.0173334 -0.0966748 0)
(-0.0171266 -0.100698 0)
(-0.0170925 -0.104241 0)
(-0.0169038 -0.104835 0)
(-0.0168706 -0.108262 0)
(-0.0166736 -0.108771 0)
(-0.0166382 -0.112201 0)
(-0.0164293 -0.112598 0)
(-0.0163887 -0.116003 0)
(-0.0169383 -0.101093 0)
(-0.0161692 -0.116219 0)
(-0.0161199 -0.119546 0)
(-0.0159007 -0.11957 0)
(-0.0158341 -0.122911 0)
(-0.0156111 -0.12265 0)
(-0.0155218 -0.125994 0)
(-0.0156941 -0.119481 0)
(-0.0152956 -0.125493 0)
(-0.0151893 -0.128724 0)
(-0.0149617 -0.128072 0)
(-0.0148404 -0.131251 0)
(-0.0146075 -0.130412 0)
(-0.0196265 -0.0307032 0)
(-0.0192033 -0.0490381 0)
(-0.0144638 -0.133553 0)
(-0.0142275 -0.13252 0)
(-0.0202689 -0.00165791 0)
(-0.0206166 0.0155304 0)
(-0.0185129 -0.0739873 0)
(-0.0208051 0.0313211 0)
(-0.0199556 -0.0102041 0)
(-0.016605 -0.115684 0)
(-0.0211203 0.0407686 0)
(-0.0214178 0.0577467 0)
(-0.0140593 -0.135536 0)
(-0.0138246 -0.134358 0)
(-0.0140019 -0.131355 0)
(-0.0135943 -0.133139 0)
(-0.0137813 -0.130137 0)
(-0.0154084 -0.129323 0)
(-0.021863 0.0860454 0)
(-0.0136353 -0.137212 0)
(-0.0220244 0.102857 0)
(-0.0138777 -0.138415 0)
(-0.0133618 -0.131903 0)
(-0.013565 -0.128865 0)
(-0.0134217 -0.139899 0)
(-0.0136637 -0.141156 0)
(-0.0131819 -0.142393 0)
(-0.0113255 0.033204 0)
(-0.0134182 -0.143682 0)
(-0.0129139 -0.144688 0)
(-0.0131476 -0.146 0)
(-0.013143 -0.130525 0)
(-0.0133574 -0.127506 0)
(-0.0108632 0.030469 0)
(-0.0112554 0.0291861 0)
(-0.0126119 -0.146797 0)
(-0.0128308 -0.148125 0)
(-0.0133879 -0.147289 0)
(-0.0107824 0.0266292 0)
(-0.011171 0.0251554 0)
(-0.0116329 0.0276169 0)
(-0.0115396 0.0234023 0)
(-0.0110685 0.0211347 0)
(-0.0114287 0.0191822 0)
(-0.0109492 0.0171338 0)
(-0.0112975 0.0149673 0)
(-0.0108102 0.0131798 0)
(-0.0111458 0.010792 0)
(-0.0106503 0.00927169 0)
(-0.0109755 0.00665804 0)
(-0.0123994 -0.145514 0)
(-0.0122634 -0.14871 0)
(-0.012473 -0.150027 0)
(-0.0118603 -0.150394 0)
(-0.0120516 -0.151703 0)
(-0.0119895 0.0257737 0)
(-0.0113993 -0.151879 0)
(-0.0115533 -0.153141 0)
(-0.0104714 0.00536314 0)
(-0.0107867 0.00258889 0)
(-0.010867 -0.153182 0)
(-0.0109797 -0.154402 0)
(-0.010251 -0.154296 0)
(-0.0102915 -0.155459 0)
(-0.0102018 -0.153142 0)
(-0.011456 0.00817855 0)
(-0.0102749 0.00152993 0)
(-0.010582 -0.00136419 0)
(-0.0129492 -0.129026 0)
(-0.0131543 -0.12608 0)
(-0.00953456 -0.155213 0)
(-0.00952346 -0.156274 0)
(0.00210307 -0.104082 0)
(0.00195904 -0.107368 0)
(0.00165522 -0.104162 0)
(0.00148952 -0.10726 0)
(0.00121719 -0.10418 0)
(0.00102746 -0.107163 0)
(0.00078335 -0.104 0)
(-0.010063 -0.00215477 0)
(-0.0103611 -0.00515877 0)
(-0.00983604 -0.00569924 0)
(-0.0101247 -0.00878236 0)
(-0.010628 -0.00839906 0)
(-0.0103823 -0.012064 0)
(-0.00987626 -0.012219 0)
(-0.0101252 -0.0155299 0)
(-0.00961571 -0.015473 0)
(-0.0098576 -0.0187842 0)
(-0.00934512 -0.0185238 0)
(-0.00958594 -0.0218752 0)
(0.000551586 -0.107054 0)
(0.00034034 -0.103579 0)
(-0.00906864 -0.0213588 0)
(-0.00929304 -0.024784 0)
(-0.0122373 -0.152989 0)
(-0.00872069 -0.155982 0)
(-0.00866356 -0.157083 0)
(-0.00878028 -0.0239051 0)
(-0.00898398 -0.0273585 0)
(-0.0127429 -0.127662 0)
(-0.0129488 -0.124671 0)
(-0.0133541 -0.122821 0)
(-0.0131478 -0.121486 0)
(-0.0135223 -0.119439 0)
(-0.0133303 -0.11813 0)
(-0.0136926 -0.115963 0)
(-0.0134989 -0.114639 0)
(-0.0138791 -0.112195 0)
(6.7006e-05 -0.10659 0)
(-0.00010749 -0.103016 0)
(0.000617643 -0.100549 0)
(-0.00847994 -0.0261436 0)
(-0.00867667 -0.0296033 0)
(-0.0106028 -0.0154286 0)
(-0.00915699 -0.0310132 0)
(-0.00884342 -0.0332037 0)
(-0.00836787 -0.0315873 0)
(-0.0085269 -0.0351244 0)
(-0.00805629 -0.0333084 0)
(-0.00820729 -0.0367638 0)
(-0.00865415 -0.0386892 0)
(-0.0083288 -0.0402541 0)
(-0.00788452 -0.038142 0)
(-0.00800094 -0.041599 0)
(-0.00755782 -0.039254 0)
(-0.00766172 -0.0426446 0)
(-0.00722901 -0.040121 0)
(-0.0073237 -0.0433909 0)
(-0.0077119 -0.046034 0)
(-0.00738398 -0.0466639 0)
(-0.00699095 -0.0438993 0)
(-0.00705196 -0.0470375 0)
(-0.00741263 -0.0498359 0)
(-0.00708717 -0.0500935 0)
(-0.00740139 -0.0523606 0)
(-0.00715952 -0.0535263 0)
(-0.00674884 -0.0500833 0)
(-0.00674225 -0.0529911 0)
(-0.00708187 -0.0565253 0)
(-0.00669613 -0.0557322 0)
(-0.006375 -0.0523554 0)
(-0.00633435 -0.0549404 0)
(-0.00663396 -0.058435 0)
(-0.00626753 -0.0573971 0)
(-0.00653647 -0.0608837 0)
(-0.00617092 -0.0596548 0)
(-0.00592128 -0.0561902 0)
(-0.00640976 -0.0631242 0)
(-0.00605006 -0.0617443 0)
(-0.00626199 -0.0652392 0)
(-0.00589786 -0.0636165 0)
(-0.00609025 -0.0671901 0)
(-0.00572546 -0.0653581 0)
(-0.00589627 -0.0689376 0)
(-0.00554066 -0.0669354 0)
(-0.00568098 -0.0704532 0)
(-0.00535601 -0.0634469 0)
(-0.00533548 -0.068268 0)
(-0.00544792 -0.0717593 0)
(-0.00511694 -0.0694116 0)
(-0.00520149 -0.0729136 0)
(-0.00487173 -0.0701478 0)
(-0.00493143 -0.0737637 0)
(-0.004601 -0.0705932 0)
(-0.00464401 -0.0742829 0)
(-0.00454596 -0.0666419 0)
(-0.0136543 -0.111044 0)
(-0.0140335 -0.108271 0)
(-0.00778151 -0.156605 0)
(-0.00751301 -0.157558 0)
(-0.000402543 -0.105933 0)
(-0.000544205 -0.10224 0)
(0.000263095 -0.110063 0)
(-0.00645775 -0.0687398 0)
(-0.000852044 -0.105064 0)
(-0.000964887 -0.101276 0)
(-0.00128516 -0.104035 0)
(-0.00137174 -0.100175 0)
(-0.00105944 -0.0972968 0)
(-0.00144121 -0.0961014 0)
(-0.00177233 -0.0990005 0)
(-0.00182368 -0.0948504 0)
(-0.0125295 -0.126306 0)
(-0.0122846 -0.129483 0)
(-0.00432178 -0.0708966 0)
(-0.00553434 -0.0751891 0)
(-0.0103082 0.0117317 0)
(-0.00671617 -0.157064 0)
(-0.00633246 -0.157956 0)
(-0.00215901 -0.0977561 0)
(-0.0137995 -0.1073 0)
(-0.0141633 -0.104339 0)
(-0.00149178 -0.0917838 0)
(-0.00185324 -0.090514 0)
(-0.00720879 -0.158485 0)
(-0.00582097 -0.158749 0)
(-0.00505768 -0.158232 0)
(-0.00441024 -0.158967 0)
(-0.00520809 -0.15953 0)
(-0.00360741 -0.159627 0)
(-0.00293539 -0.159107 0)
(-0.00200873 -0.159687 0)
(-0.00267381 -0.160236 0)
(-0.000903541 -0.160179 0)
(-0.000333894 -0.15965 0)
(0.000842248 -0.160102 0)
(0.000306774 -0.160675 0)
(0.0023257 -0.160482 0)
(0.00246585 -0.159903 0)
(0.00408917 -0.160215 0)
(-0.0102605 -0.156568 0)
(0.00400801 -0.160792 0)
(0.00578208 -0.160467 0)
(0.00570585 -0.159866 0)
(0.00739043 -0.160049 0)
(0.00718819 -0.159417 0)
(0.00881194 -0.15953 0)
(0.00912424 -0.160164 0)
(-0.00701977 -0.156121 0)
(-0.0120927 -0.127671 0)
(-0.0132835 -0.113536 0)
(-0.0118087 -0.130463 0)
(-0.0139352 -0.103412 0)
(-0.0142852 -0.100335 0)
(-0.0145199 -0.101052 0)
(-0.0146275 -0.0969416 0)
(-0.0148649 -0.0974511 0)
(-0.0149602 -0.093252 0)
(-0.015195 -0.0935956 0)
(-0.0152787 -0.089329 0)
(-0.0155122 -0.089468 0)
(-0.0155841 -0.0851667 0)
(-0.0158163 -0.0851266 0)
(-0.0158761 -0.0808151 0)
(-0.0161095 -0.0805551 0)
(-0.0161528 -0.076246 0)
(-0.0163856 -0.0756106 0)
(-0.0164151 -0.0714196 0)
(-0.0166397 -0.0705727 0)
(-0.0166638 -0.0664347 0)
(-0.0168853 -0.0654253 0)
(-0.0169043 -0.0612198 0)
(-0.0171235 -0.0600832 0)
(-0.0171339 -0.0560106 0)
(-0.0173504 -0.054617 0)
(-0.0173383 -0.0507439 0)
(-0.0175575 -0.0490715 0)
(-0.0175346 -0.0451988 0)
(-0.0177527 -0.0434138 0)
(-0.017732 -0.0396246 0)
(-0.0179407 -0.0376841 0)
(-0.0179131 -0.0340509 0)
(-0.0181153 -0.0319872 0)
(-0.0180823 -0.0283778 0)
(-0.0182791 -0.0262643 0)
(-0.0183116 -0.0297979 0)
(-0.0184696 -0.0240273 0)
(-0.0184333 -0.0205349 0)
(-0.0186187 -0.0182158 0)
(-0.0185783 -0.0147925 0)
(-0.0187601 -0.012336 0)
(-0.0187156 -0.00901343 0)
(-0.018895 -0.00639116 0)
(-0.0188427 -0.00319416 0)
(-0.0190237 -0.000379909 0)
(-0.0189583 0.00265733 0)
(-0.0191386 0.00559666 0)
(-0.00951934 -0.00280681 0)
(-0.019065 0.00848167 0)
(-0.0192401 0.0114265 0)
(-0.0193103 0.00879975 0)
(-0.0194065 0.0144704 0)
(-0.0193343 0.0172062 0)
(-0.019495 0.0202427 0)
(-0.00152296 -0.0871824 0)
(-0.00184971 -0.0858333 0)
(-0.0144032 -0.0961573 0)
(-0.018789 -0.0158778 0)
(-0.019419 0.0229782 0)
(-0.019574 0.0260558 0)
(-0.00880005 -0.0183286 0)
(-0.0161985 -0.072153 0)
(-0.0176258 -0.098061 0)
(-0.0195571 0.0175672 0)
(-0.019493 0.028698 0)
(-0.01965 0.0318448 0)
(-0.00118602 -0.107677 0)
(-0.0173403 -0.0587985 0)
(-0.0116413 -0.128761 0)
(-0.0113271 -0.131573 0)
(-0.019557 0.0343719 0)
(-0.019718 0.0375909 0)
(-0.0198139 0.0348526 0)
(-0.0198703 0.0408338 0)
(-0.0197699 0.0432313 0)
(-0.0199265 0.0465335 0)
(-0.0198103 0.0487424 0)
(-0.0199655 0.0521941 0)
(-0.0198362 0.0541602 0)
(-0.0199881 0.0576967 0)
(-0.020033 0.0437529 0)
(-0.0198473 0.0595036 0)
(-0.0199962 0.0630386 0)
(-0.0201367 0.0612877 0)
(-0.0201409 0.0665421 0)
(-0.0199909 0.0681887 0)
(-0.0201313 0.0716214 0)
(-0.0199699 0.0731797 0)
(-0.0201086 0.076698 0)
(-0.0199312 0.0780765 0)
(-0.0200643 0.081701 0)
(-0.0198735 0.0828159 0)
(-0.0199968 0.0864839 0)
(-0.0197958 0.0873602 0)
(-0.00710112 -0.0368514 0)
(-0.0178572 -0.084023 0)
(-0.0153613 -0.0849643 0)
(-0.00153952 -0.0823079 0)
(-0.00183852 -0.0809289 0)
(-0.0185346 -0.0112966 0)
(-0.0152678 -0.0322713 0)
(-0.00600996 -0.118201 0)
(-0.00547292 -0.119074 0)
(-0.00569006 -0.116353 0)
(-0.0202692 0.0805205 0)
(-0.0103769 0.0278593 0)
(-0.019802 0.0745283 0)
(-0.0165496 -0.00219528 0)
(-0.0175398 0.0634608 0)
(-0.0173348 0.0313441 0)
(-0.0169196 -0.0567058 0)
(-0.0175169 -0.0412054 0)
(-0.0102298 -0.0960724 0)
(-0.00875736 -0.0421145 0)
(-0.00627587 -0.131196 0)
(-0.0111762 -0.129657 0)
(-0.0108226 -0.132379 0)
(-0.0202801 0.064801 0)
(-0.00216181 -0.0843443 0)
(-0.00211922 -0.0794029 0)
(-0.0166215 -0.0744848 0)
(-0.00517064 -0.117054 0)
(-0.00538447 -0.114325 0)
(-0.00122548 -0.0835778 0)
(-0.00125703 -0.0784385 0)
(-0.000955821 -0.079617 0)
(-0.0107117 -0.130282 0)
(-0.0110659 -0.127662 0)
(-0.0193922 0.0311594 0)
(-0.0188838 0.00557694 0)
(-0.0103257 -0.132816 0)
(-0.0104086 -0.135004 0)
(-0.0157479 -0.0895052 0)
(-0.000997591 -0.0741707 0)
(-0.000707283 -0.0752714 0)
(-0.0113622 -0.0942658 0)
(0.00303089 -0.135694 0)
(0.00279974 -0.133832 0)
(0.0023409 -0.135118 0)
(0.00214976 -0.133202 0)
(0.00164995 -0.134445 0)
(0.00150349 -0.132434 0)
(0.000977706 -0.133665 0)
(0.000879738 -0.131519 0)
(0.0013919 -0.130262 0)
(-0.01024 -0.130737 0)
(-0.0216177 0.0705558 0)
(-0.00244926 -0.0826744 0)
(-0.00237971 -0.0777536 0)
(-0.0196954 0.0559772 0)
(-0.00489021 -0.114854 0)
(-0.00509799 -0.112117 0)
(-0.00465245 -0.117492 0)
(-0.0140912 -0.113858 0)
(-0.0226734 0.109303 0)
(-0.0226222 0.10754 0)
(-0.022621 0.106334 0)
(-0.0225734 0.104614 0)
(-0.0225679 0.103383 0)
(-0.022522 0.10168 0)
(-0.0225132 0.100399 0)
(-0.0224679 0.0986934 0)
(-0.0224559 0.0973426 0)
(-0.0224124 0.0956782 0)
(-0.0224215 0.0969789 0)
(-0.0223674 0.0939765 0)
(-0.022357 0.0927079 0)
(-0.0223129 0.0910043 0)
(-0.0223014 0.0897672 0)
(-0.0222578 0.0880412 0)
(-0.0222453 0.0868256 0)
(-0.0222024 0.0850984 0)
(-0.0221887 0.0838895 0)
(-0.0221466 0.0821657 0)
(-0.0221314 0.080938 0)
(-0.02209 0.0792275 0)
(-0.0220735 0.0779815 0)
(-0.0220328 0.0762776 0)
(-0.0220481 0.0775295 0)
(-0.0219913 0.0745645 0)
(-0.0219746 0.0732927 0)
(-0.0219338 0.0715881 0)
(-0.0219166 0.0703324 0)
(-0.0218762 0.0686297 0)
(-0.0218588 0.0674023 0)
(-0.0218178 0.0656488 0)
(-0.0218341 0.0668802 0)
(-0.0217752 0.0638488 0)
(-0.021758 0.0626112 0)
(-0.0217161 0.0608238 0)
(-0.0216984 0.0595945 0)
(-0.0216576 0.0578388 0)
(-0.0216393 0.0566148 0)
(-0.0215988 0.0548559 0)
(-0.0215802 0.0536414 0)
(-0.0215397 0.0518741 0)
(-0.0215205 0.0506528 0)
(-0.0214797 0.0488531 0)
(-0.0214984 0.050098 0)
(-0.0214383 0.0470583 0)
(-0.0214184 0.0457794 0)
(-0.0213786 0.0440488 0)
(-0.0213581 0.0427816 0)
(-0.0213195 0.0410804 0)
(-0.0213001 0.039889 0)
(-0.0212602 0.0381094 0)
(-0.0212406 0.0369149 0)
(-0.0212007 0.0351331 0)
(-0.0211793 0.0338769 0)
(-0.0211405 0.0321369 0)
(-0.0211604 0.033366 0)
(-0.0211 0.030346 0)
(-0.0210802 0.0291375 0)
(-0.0210397 0.0273312 0)
(-0.0210198 0.0261409 0)
(-0.0209807 0.0243874 0)
(-0.0209599 0.023179 0)
(-0.0209226 0.0215019 0)
(-0.0209945 0.0253029 0)
(-0.0209015 0.0202877 0)
(-0.0208644 0.0186169 0)
(-0.0208425 0.0173624 0)
(-0.0208045 0.0156493 0)
(-0.0207838 0.0144618 0)
(-0.0207451 0.0127096 0)