/*--------------------------------*- C++ -*----------------------------------*\
| =========                 |                                                 |
| \\      /  F ield         | OpenFOAM: The Open Source CFD Toolbox           |
|  \\    /   O peration     | Version:  v2012                                 |
|   \\  /    A nd           | Website:  www.openfoam.com                      |
|    \\/     M anipulation  |                                                 |
\*---------------------------------------------------------------------------*/
FoamFile
{
    version     2.0;
    format      ascii;
    class       surfaceScalarField;
    location    "850";
    object      phi;
}
// * * * * * * * * * * * * * * * * * * * * * * * * * * * * * * * * * * * * * //

dimensions      [0 3 -1 0 0 0 0];
oriented        oriented;


internalField   nonuniform List<scalar> 
20673
(
-0.182221
0.158263
0.0239514
0.376832
-0.303583
-0.073265
0.00119684
-0.0013277
0.000129524
0.156628
-0.293314
0.136695
-0.360216
-0.116818
0.477026
-0.0168983
-0.00539724
0.0222956
-0.00090125
0.00227869
-0.00137652
-0.000646097
0.000949199
-0.000303244
-0.00157107
0.00256556
-0.000994457
-0.0434991
0.156517
-0.113019
-0.105363
0.109295
-0.00393104
0.171811
-9.7011e-05
-0.171713
-0.106928
-0.0123266
0.00111704
0.0112097
0.209505
-0.048231
-0.16128
0.23676
-0.247421
0.010652
-0.116793
0.304848
-0.18807
0.162559
-0.173807
0.0112465
0.16679
0.00502249
0.335579
0.263228
-0.598838
-0.36779
0.572754
-0.204966
-0.00200863
0.00110749
-0.596719
0.332284
0.264412
0.00227211
-0.00291821
-0.302373
-0.0639244
0.366283
-0.00152592
-0.000678308
0.00220395
-0.102681
0.0797356
0.0229458
-0.0993957
0.0546123
0.0447846
-0.0653681
0.056088
0.00927978
-0.153382
0.126296
0.0270869
0.152124
-0.180664
0.028536
0.19048
-0.213545
0.0230555
-0.0911426
0.137637
-0.0464941
0.174954
-0.0541735
-0.12078
-0.388419
0.358743
0.0296688
0.0384516
-0.0461934
0.0077423
-0.365176
-0.231565
0.00297496
0.00718538
-0.0101603
-0.195549
-0.0634325
0.00940546
-0.000263929
-0.00914244
-0.580238
0.589675
-0.00950695
0.685406
-0.380869
-0.304537
0.367544
-0.546243
0.178693
-0.0536154
-0.0132355
0.066852
-0.166196
-0.169216
0.335398
0.102151
0.0648957
-0.167046
0.153677
0.00887858
-0.0334443
-0.113044
0.146489
-0.00654123
0.0127933
-0.00625199
-0.678251
0.435393
0.2428
0.0589552
-0.17897
0.12001
-0.277832
0.0265467
0.251285
-0.00995222
0.00341105
0.0607704
0.114184
0.159939
-0.276746
0.229116
-0.227548
-0.00157286
-0.120223
0.0148607
0.263496
-0.353829
0.0903162
0.102132
0.153209
-0.255351
-0.340153
0.173943
-0.00198717
-0.00485023
0.00683719
0.175777
0.201036
-0.0123265
-0.165567
0.501116
0.0189072
-0.0358054
-0.0481999
0.0549269
-0.0067274
-0.515675
0.324487
0.266379
-0.361173
-0.109646
0.116672
-0.00702561
-0.153576
0.184688
-0.0311169
-0.524586
0.164364
-0.000351402
-0.0012196
-0.0018972
-0.00984038
0.0117377
0.147727
-0.450115
-0.0102447
-0.00668941
0.0169342
-0.0240934
0.163999
-0.139902
0.0114968
0.00287119
-0.014368
0.0877454
0.185083
-0.272842
-0.000308693
0.00194023
-0.00163182
-0.611461
0.330408
0.28105
-0.321477
0.598993
-0.27753
-0.257227
0.00472257
0.027303
-0.032025
-0.00801247
0.0109875
0.00409823
0.00502415
-0.00912243
-0.210253
0.297986
0.368429
0.203076
-0.571524
-0.0614728
0.0132725
0.228734
-0.16978
0.523749
-0.156205
0.00365981
0.00779081
-0.0114505
0.118697
0.0138088
-0.132505
-0.0618805
0.372551
-0.310694
-0.257254
0.0441699
0.213078
-0.0277757
-0.0336974
0.0270757
-0.0340824
0.00700702
0.105942
-0.140516
0.0345738
0.146368
-0.0156972
-0.130679
-0.0685626
-0.0401253
0.108689
0.0483079
-0.0649903
0.0166839
-0.454207
0.56205
-0.107883
0.118156
0.0138201
-0.131976
0.0150389
-0.0686532
-0.276813
0.064814
0.211993
-0.490658
0.0957464
0.394882
-0.00102367
0.00142285
-0.00039909
0.00404224
-0.066103
0.0620604
0.0926925
-0.126137
0.115362
0.189469
0.171468
-0.146804
-0.0246694
0.00494763
0.00757607
-0.0125237
0.000883285
0.00853251
-0.120867
0.148509
-0.0276391
-0.00138661
0.000362965
-0.274733
0.122027
0.152707
0.00377671
-0.00548188
0.00170521
-0.358471
0.500125
-0.141677
0.0105139
-0.0142857
0.00377202
0.0105265
-0.0117397
0.00121326
-0.0829572
0.165912
-0.0829539
0.492903
0.192504
-0.112067
0.00242211
-0.00165608
-0.00896981
0.010626
-0.0602219
-0.0391729
-0.60725
0.122466
0.484731
-0.250023
-0.00723708
0.110551
0.214916
-0.325482
-0.533243
-0.07407
-0.500332
0.593309
-0.0929889
0.0216786
-0.00684976
0.00910101
-0.00225117
-0.0885273
-0.186205
0.141908
-0.311137
0.213786
-0.581577
-0.0573978
0.034421
0.022977
-0.000212014
0.00248401
-0.0301751
-0.152051
0.0513569
-0.00304865
-0.11318
0.437672
0.0959598
-0.178916
-0.0474389
0.0566005
-0.00916198
0.459672
-0.201417
-0.258277
-0.208391
0.27647
-0.0680815
-0.0700611
0.020217
0.0498457
-0.0651398
0.331522
0.00456158
0.000594892
-0.00515637
0.0126609
0.0481907
-0.0608523
0.0249899
-0.302823
0.512425
-0.176437
-0.336011
0.233253
-0.211099
-0.0221628
0.178912
-0.00551317
-0.173399
-0.00209327
0.00586998
0.0350662
-0.133894
0.0988283
-0.0915807
-0.0331207
0.124698
0.218402
-0.227342
0.00893468
-0.00168438
0.00595957
-0.00427518
-0.178967
0.0253838
0.00912435
-0.0291453
0.0200211
-0.00210743
0.0136042
-0.0323347
-0.0250629
-0.141643
0.218819
-0.0771778
-0.0888579
-0.000644716
0.0895029
0.246669
0.352463
-0.599134
0.12429
-0.018348
-0.152915
0.0320504
0.0358748
-0.104436
-0.215332
-0.0614859
-0.16531
0.17313
-0.00781832
0.146603
0.215687
-0.36231
0.0196344
0.0985219
0.143847
-0.14743
0.0035779
0.0167437
-0.00712492
-0.00961879
0.1262
0.0023628
-0.128559
0.00425257
0.230485
-0.234751
0.00870552
-0.00668328
-0.00202235
-0.0327017
-0.0778777
0.110576
-0.00845786
0.00160793
-0.00243684
0.0129507
0.00652207
-0.00196051
-0.252088
0.40286
-0.150795
-0.0100179
0.128717
-0.029411
0.181531
0.297138
0.162512
-0.0883221
0.456733
0.188989
-0.0980992
-0.0908924
-0.000239826
-0.00128639
-0.0192048
0.124927
-0.105724
-0.00534751
0.00366253
0.167233
-0.153572
-0.0136611
-0.118207
0.111575
0.00663359
-0.00330881
0.0355336
-0.0322246
-0.0036789
0.00777716
-0.11342
0.105523
0.00789636
0.623004
-0.277365
-0.345663
-0.0347145
-0.00995354
0.0446685
-0.10371
0.00102952
0.632947
-0.633016
-0.311894
0.249992
-0.000239646
-0.0775802
0.0778191
-0.0749083
0.078843
-0.00393531
0.0360688
0.180984
-0.217051
-0.339233
-0.339062
0.169328
0.0104281
-0.179755
0.166334
0.0125772
-0.0121945
0.0102973
-0.0367774
0.047209
-0.0104315
-0.277433
-0.110992
-0.097981
0.361461
0.0235943
0.122768
0.00166626
0.000359485
-0.00202588
-0.286698
0.0783038
-0.00177275
0.00287543
-0.00109949
0.0113214
0.00171912
-0.0130405
-0.000919406
-0.117287
-0.414809
-0.0758764
-0.0591125
0.0448118
0.0143023
0.16804
-0.0197019
-0.14833
0.0105583
0.00504986
-0.015608
-0.491222
0.29489
0.196314
0.0150052
-0.0169924
-0.399303
0.147188
-0.0149266
0.127866
-0.11294
-0.12877
-0.451525
0.00617962
0.00382017
-0.00999973
-0.00142188
0.00170392
-0.000282001
0.0533724
0.183379
-0.118816
0.00889742
0.109917
0.0247433
0.193653
-0.462733
0.0478922
0.00246426
0.0359882
0.138658
-0.0124574
0.00236099
0.164869
-0.00441649
0.00200994
0.00240723
0.0134378
-0.00211634
-0.594012
0.489984
0.103982
0.201067
-0.0105955
0.0124558
-0.00879593
-0.00447527
-0.00251986
0.00699496
-0.29911
0.545767
-0.458679
0.443608
0.0150375
0.00861338
-0.00110339
-0.13014
0.112565
0.0175754
0.398727
-0.60175
0.203018
-0.0428689
0.0508543
-0.00798405
-0.162792
0.144912
0.0178784
-0.101861
0.0130033
-0.159786
-0.0260154
0.185802
0.581462
-0.229008
0.13329
0.0152686
-0.148562
0.0140366
-0.0147072
0.000670774
-0.292202
0.401076
-0.108871
0.0389463
-0.132823
0.0938742
-0.0411885
-0.00572535
0.046915
-0.235054
0.345591
-0.275993
-0.0778505
-0.0192962
-0.123731
0.143029
-0.0011408
-0.00514548
0.00628713
0.122039
-0.0869714
0.127048
0.0619389
0.0222164
0.187283
0.242567
0.369305
-0.611876
0.00888674
-0.0105428
-0.000238117
0.00630331
-0.00606502
0.0277047
-0.0432134
0.0155089
-0.382366
-0.0803947
-0.00439967
-0.0093447
0.0137446
0.0117595
-0.0117937
3.4432e-05
-0.0114302
0.0205545
-0.00165071
0.00134096
-0.140362
0.116271
0.259977
0.472886
-0.660216
0.187257
-0.160811
0.0168643
0.143945
0.00015464
-0.0102733
0.0101188
0.138812
-0.14441
0.00559725
-0.165647
0.267771
-0.0462852
0.00950791
-0.161999
-0.013167
-0.0921179
-0.459892
0.551976
-0.0215834
0.0222637
-0.000680375
0.253428
0.28143
-0.534887
0.00805023
0.00065517
-0.216828
0.252899
-0.0726923
0.471409
0.0951474
0.105977
-0.201132
0.0409184
-0.132503
0.107868
-0.108512
0.0106335
-0.053502
0.00722728
0.126568
-0.1338
0.389886
-0.101291
-0.2886
0.0713456
-0.071977
0.000631348
-0.00336304
-0.00105346
0.00147791
-0.00171635
-0.23128
-0.259962
0.0202449
-0.00631075
-0.0139341
-0.481654
0.013098
0.468576
0.199277
0.190604
-0.475139
0.116645
0.0599794
-0.047319
-0.0585096
0.518362
-0.459902
-0.120313
0.105385
-0.1873
0.0275115
-0.262179
0.408763
-0.00705566
0.176385
-0.256956
0.0412993
0.215642
-0.00805014
0.000534194
0.00751606
0.0914347
-0.12414
0.137078
-0.123274
-0.272345
-0.11712
0.389445
0.0756245
-0.351633
0.00187768
-0.0115924
0.00971481
-0.0134566
0.0111069
0.00234974
0.28448
0.215626
-0.391683
0.624763
-0.233142
-0.0215087
-7.41991e-05
-0.284522
-0.0778865
0.362384
0.00232109
-0.0121613
0.113241
-0.385613
0.00913858
-0.00295886
-0.345307
0.268758
0.0765573
0.0986213
0.00084442
-0.0994671
0.233476
-0.14361
-0.0898654
0.0195928
-0.0145084
-0.00508419
0.0697739
-0.211419
0.00680585
-0.0391409
-0.0506964
0.00785579
0.0428422
0.184744
-0.0896047
-0.0602389
-0.0699011
-0.000719001
0.0684239
-0.0677061
0.0642504
-0.284677
0.220415
0.0018081
0.00798281
-0.00979082
-0.052626
0.0179118
-0.000458057
0.0122177
-0.190588
0.165648
0.02494
0.0104625
9.40729e-05
-0.0105565
-0.152337
-0.0707727
0.223101
-0.00304508
0.00946785
-0.00642272
-0.0468172
-0.00387796
0.0794831
-0.0950757
0.015591
0.0941545
-0.0146736
-0.000708846
0.00190497
-0.562651
0.339062
0.223585
0.149784
-0.00594227
-0.00831781
0.0132655
-0.171355
0.29175
-0.120402
0.216851
0.00847529
-0.225337
0.0131644
-0.0120471
-0.0701193
0.0698785
-0.205138
-0.0655396
0.27066
-0.0463898
0.0430811
-0.0402944
-0.0250734
-0.601659
0.322301
0.279311
0.0124502
-0.00192383
-0.0529932
0.0145215
0.0384714
-0.266759
0.520156
0.510994
-0.356152
-0.154874
0.112472
-0.594112
0.234747
0.277652
-0.000127831
0.0714732
-0.00476387
0.00738018
-0.00261632
-0.0356417
0.0182948
0.017346
0.0118157
-0.00993802
-0.369166
-0.00933669
0.378486
-0.0764936
0.115439
-0.00914082
0.00946725
-0.000326409
0.1474
-0.1803
0.0328998
0.00050673
0.0107642
-0.0106095
1.05128e-06
0.216509
-0.483784
0.267241
0.0482763
-0.0205711
0.328246
-0.496972
0.168695
-0.00246712
0.0174719
-0.155586
-0.184581
0.0182815
0.00131136
-0.0458275
-0.116965
0.186889
0.099187
-0.286071
0.461863
-0.57105
0.109179
0.158859
-0.135263
-0.105872
0.0958579
0.143591
-0.134791
-0.00880167
-0.0106194
-0.0384667
0.0490872
-0.0106079
0.00756309
0.0144873
-0.00392892
-0.00399216
0.137278
0.0755359
-0.119036
0.0204639
-0.479172
-0.00860973
0.00413439
0.00313992
-0.000913102
-0.00222692
-0.0405401
0.292945
-0.252421
0.060912
-0.0541061
-0.308584
0.500807
-0.192235
0.0203786
0.0704495
-0.090828
-0.0994455
-0.245854
-0.322738
-0.23992
-0.300452
0.120437
0.180005
0.00129215
-0.00149849
0.000206495
-0.0876353
-0.212827
0.00551292
-0.0066521
0.0061944
-0.00100863
-0.00518601
0.0949097
-0.0954365
0.000527187
0.0308209
-0.0464656
0.015646
-0.209037
0.273275
-0.0313765
-0.0277348
0.0386778
0.587035
-0.241136
-0.345928
-0.0660779
-0.295874
0.12451
0.218431
-0.339367
0.120927
-0.0886907
-0.0646899
-0.363564
0.606121
-0.387729
0.462118
-0.0744008
0.390064
-0.0618421
0.0950779
-0.0952061
-0.323523
-0.28794
0.0101277
0.000334978
-0.00189515
0.00341412
-0.00152197
0.00358172
0.00338307
-0.00696474
-0.0909575
-0.0224638
0.000637706
0.00574023
-0.00637521
0.0107474
0.00332025
-0.0140676
0.179686
-0.0322853
-0.473047
0.103863
0.10673
0.0298883
-0.136618
-0.284349
0.0888079
0.21606
-0.191191
-0.0248781
0.225189
0.397795
0.00175819
-0.000454165
0.00212052
-0.00664901
0.00475301
-0.184311
0.212418
-0.0281136
0.127502
0.015081
-0.142583
-0.160361
-0.0302269
-0.279941
0.216519
0.0207554
0.122834
0.206392
-0.243779
0.0373752
-0.0418712
0.0435505
-0.00167864
-0.167192
0.282538
-0.436846
0.378298
-0.00896025
0.0112814
-0.00777624
-0.000681779
-0.00827756
0.000500975
0.031718
0.101788
-0.133508
0.00613553
-0.0025538
-0.00799167
0.00979981
0.00239936
-0.0114026
0.00900337
0.0134537
0.000322437
-0.0137761
0.151357
0.367549
-0.51892
-0.148852
0.0156332
0.133219
0.226398
-0.0200183
0.348197
-0.257795
-0.0904171
-0.0613622
0.01116
0.0502023
-0.00713612
0.492116
-0.547222
0.0551205
0.0293527
-0.154569
0.125214
-0.0191668
-0.153945
0.173113
0.0153175
-0.0099401
-0.0053774
0.345351
0.241663
0.1261
0.00241097
-0.128511
0.00311855
0.00187443
-0.00499322
0.110345
-0.0296284
-0.0807177
-7.34773e-05
0.00840351
-0.00832998
0.249228
-0.256379
0.215824
0.522624
0.110267
-0.143374
-0.0355981
0.512214
-0.295742
-0.000218575
-0.00220422
0.00242247
-0.0328491
-0.00279342
-0.148899
0.156121
0.00389499
-0.00847104
0.00457617
0.038147
0.190965
0.117373
0.00691637
0.0102706
-0.00787124
-0.00516731
0.0533577
-0.00618048
0.101091
-0.00194638
-0.0454932
0.119684
0.00641814
0.114436
-0.157708
0.0432722
0.106753
0.0218125
-0.128565
-0.183346
0.197336
-0.0139867
0.0937002
-0.106362
0.0126618
0.0236299
-0.15608
-0.00951777
0.165601
0.123016
-0.00760475
-0.115412
-0.53453
0.547652
-0.0131611
0.0547901
-0.0173594
-0.0374307
0.218667
-0.00301764
-0.215649
-0.443721
0.308624
0.135095
-0.166126
0.022745
-0.271981
0.201331
0.0706363
0.00202995
0.0132875
-0.000466982
-0.00091958
0.0990824
-0.383627
-0.521628
0.429488
-0.000892108
-0.00220853
0.00310033
0.0138868
-0.00313935
0.593335
-0.224043
0.00976378
-0.00983725
-0.325435
0.247773
0.0776622
0.125316
-0.107539
-0.0177785
-0.00275152
0.330125
-0.327399
0.0139363
-0.00859457
-0.00534171
0.0272515
-0.036669
0.00941844
0.0572524
0.17599
0.308155
-0.18427
-0.123896
-0.00548256
0.00612021
-0.114931
0.0957232
-0.0110628
0.0109322
0.000130665
0.242555
-0.606123
0.0011168
-0.0134626
0.0123459
-0.0104869
0.02376
-0.00161067
-0.0221489
-0.35946
-0.0842644
-0.00452643
0.00955064
-0.00333612
0.000714688
0.00262147
-0.129222
0.18007
-0.0508476
0.131298
0.379666
-0.211202
0.268644
-0.0574543
-0.155919
-0.0497812
0.0701596
-0.0452129
0.537347
-0.520701
0.164515
0.648612
-0.438956
-0.209702
0.407865
0.240701
0.00703126
-0.0114311
-0.0233326
-0.0380295
0.0504641
-0.110786
0.110274
0.00050731
0.571899
-0.0990742
-0.045273
-0.408965
0.00323268
0.124269
0.00776622
-0.00378795
-0.00397802
0.147759
-0.179386
0.0316252
-0.12558
0.34125
0.451666
-0.233247
-0.288641
-0.0886828
0.377326
0.00225184
0.00333702
-0.00701591
0.396922
0.164168
-0.561107
-0.263544
-0.144419
0.407962
0.00640548
-0.016728
-0.166615
0.122104
0.111372
0.0332132
-0.289607
-0.160954
0.266785
-0.105843
0.194328
-0.220708
0.0263706
0.00764948
0.115367
0.0681176
-0.0688379
0.0141386
0.111046
-0.00431519
-0.161433
0.0553873
0.106045
0.00466552
0.0425435
0.023512
0.113558
0.453688
-0.289033
-0.164674
0.0128711
0.00116558
-0.45271
0.252848
-0.0360054
0.272296
-0.00181131
-0.270484
0.0341303
0.0206598
0.0899196
0.0120781
-0.102
-0.0135317
0.399622
-0.386133
0.0093084
0.101036
0.125706
-0.143706
0.0179969
0.00399027
0.00274498
-0.00673537
-0.0793062
-0.0821269
0.0122087
0.0892431
-0.101453
0.144064
-0.163231
0.321315
0.140541
0.00159571
-0.000117781
0.107929
0.00421659
-0.0042861
6.98067e-05
0.181633
-0.348844
-0.174821
0.191807
-0.0169949
0.117405
-0.00713647
0.00154457
0.00921973
0.0146465
-0.0146462
0.121446
-0.137144
-0.0772148
0.108931
-0.0471544
-0.200274
0.195644
-0.236575
0.0409217
-0.217702
0.250903
-0.0801734
-0.00791865
0.088091
-0.0550213
0.0319228
0.152957
0.015087
0.0101693
0.00440754
-0.000190723
-0.00294873
-0.00811397
0.0074886
-0.213365
0.205865
-0.00121688
0.11859
0.0373401
-0.0100906
0.0973527
0.0836732
-0.181033
-0.293373
0.096071
0.1973
-0.032742
0.00448538
0.028257
0.00492835
-0.00305214
-0.00187574
-0.00353054
0.00268537
0.000845167
-0.0242657
-0.0842015
0.108458
-0.544667
0.0443334
0.010879
0.00157111
0.00808369
-0.46704
0.453453
0.200914
-0.184727
-0.0161921
-0.0194549
-0.118532
0.137981
-0.125707
0.0345653
3.73091e-06
0.126293
-0.000986161
-0.00139829
0.0023843
0.118881
-0.0121292
-0.0311769
0.214202
-0.18302
0.00176167
-0.000165962
0.274681
-0.195083
-0.0796055
0.0143283
-0.000874586
0.274983
-0.574099
-0.0108764
0.407784
0.017112
0.00313332
0.00418263
0.00074635
0.0345024
-0.0108335
-0.023668
0.110028
0.164646
0.264867
-0.26063
-0.447703
0.184158
0.00171962
-0.163714
0.00254877
0.132118
-0.0962419
0.230042
-0.0344088
0.118041
-0.12422
0.139159
-0.269366
0.266595
-0.0457518
-0.0730649
0.129771
0.00234829
-0.0405822
0.0350548
0.0055278
-0.0546181
0.36258
-0.307983
-0.101603
-0.0147823
0.116385
-0.0869115
0.00519387
0.00100034
0.0195135
0.137001
0.107969
-0.0180525
-0.197395
0.0225697
-0.260442
0.536863
-0.27647
0.292754
0.09375
-0.386503
-0.102818
0.317719
-0.094741
-0.00215244
0.0968911
0.154909
-0.0527581
-0.0428835
0.106737
-0.0638533
-0.0382989
0.0276796
-0.158404
-0.00690434
-0.220155
-0.381549
0.0462816
-0.102509
0.0562269
0.0221257
0.0123774
-0.0407224
0.0343303
0.00639152
0.0663332
-0.358535
-0.174993
0.149116
0.0258769
-0.126046
-0.394686
-0.167149
-0.0505736
0.217727
-0.0672203
0.220422
-0.000790211
-0.00254581
-0.283118
0.61352
-0.0660114
0.19889
0.00415125
-0.203036
0.0923597
0.0169354
0.148604
-0.0485516
-0.100054
0.00933463
0.00293029
-0.0122649
-0.012814
-0.0973144
0.110125
0.0583916
-0.269607
0.0108389
-0.01244
0.00160113
0.0111818
0.00346486
0.357081
-0.259669
-0.0974289
0.231155
0.0411403
0.038661
-0.0293876
-0.00927204
0.0987632
-0.123038
0.127069
0.0117426
-0.346677
-0.24295
0.589609
0.0265305
0.281613
-0.100573
0.101416
0.258161
-0.071266
-0.133638
-0.00115516
-0.162733
0.143439
0.39668
-0.103929
-0.167042
0.162106
0.00493712
0.000681872
0.414227
-0.187166
-0.227059
-0.276407
-0.0385114
0.314928
0.671144
-0.393092
-0.278101
-0.00887336
-0.00458317
-0.407663
0.621448
-0.206045
0.0217277
0.00422179
0.012522
0.0187326
0.196902
-0.215643
0.00473088
-0.000547508
-0.0434407
-0.183911
0.0621037
0.0755341
0.232146
0.114974
0.00576064
-0.120739
-0.102331
-0.372829
0.134396
0.0108378
-0.145235
0.323892
-0.585254
0.261302
0.105346
-0.106755
0.0014068
-0.234257
-0.091178
-0.00412838
0.0072465
0.0507753
-0.0429048
-0.0078697
0.00418562
0.00358078
-0.560204
-0.0728819
-0.231995
0.140857
-0.117347
-0.141152
0.170535
-0.0293854
-0.0022714
0.0114176
-0.00914607
-0.00458709
0.00325488
0.00133218
-0.131457
-0.0423519
-0.328165
-0.0179706
0.346125
0.0976963
-0.00261871
-0.0288954
0.0180626
-0.0416836
0.00110132
0.0737695
-0.116654
0.159682
-0.0133221
-0.146362
0.00157816
-0.00165014
7.00056e-05
-0.164372
0.162083
0.00228432
0.178556
-0.191718
0.0166121
0.0926576
-0.10927
-0.0798978
0.00231682
-0.161532
0.0300755
0.000742731
0.0198052
-0.0205475
0.145339
-0.166968
0.0216291
-0.299019
0.0912345
0.207788
0.102492
-0.121946
0.0804149
0.104323
-0.41765
0.322083
0.09556
-0.201507
0.034367
0.0287963
0.142667
-0.178205
-0.0329034
-0.378495
-0.0450085
0.423484
0.180159
0.15488
-0.00271845
-0.152159
-0.07584
0.25613
-0.180291
-0.149222
0.0155828
0.0140783
-0.34225
-0.223152
0.461562
-0.23842
0.141024
-0.548689
0.217247
-0.149301
-0.067956
0.230472
0.225401
-0.455868
0.0141192
0.196043
-0.210173
0.624149
-0.281902
-0.34229
0.0123181
0.00161823
-0.167835
0.161803
0.00603353
0.0393405
-0.0349103
0.234358
-0.517696
0.283295
-0.357464
-0.201541
0.558999
-0.0287524
0.0839619
-0.0552091
0.158676
-0.0442411
0.251315
-0.189951
-0.0613634
0.012821
0.00183401
-0.0146552
0.133101
-0.0281042
-0.105
-0.0301941
0.0277268
-0.00261155
0.115266
-0.131977
0.0167115
-0.101779
0.271882
-0.170109
-0.637
0.0297769
0.607222
0.596931
-0.189118
-0.257773
0.000806121
0.0138831
-0.0141394
0.000256345
-0.602875
0.245407
-0.0327412
0.00406444
0.0286769
-0.139619
0.15373
-0.00208237
-0.00705845
0.116023
-0.135151
0.0191244
0.119823
0.0132764
-0.00676354
0.0991227
-0.447972
0.109221
0.338738
0.281706
0.31531
-0.00104333
-0.429321
0.271625
0.157696
-0.29514
0.0720184
0.223111
-0.0152961
-0.00404206
0.0193379
0.255904
-0.025431
0.0956861
0.450284
-0.545974
-0.0219476
0.190282
-0.16834
-0.0622541
-0.41482
0.477036
0.326115
-0.47859
0.15245
-0.156301
0.0185447
0.00876799
-0.0110393
0.160428
-0.18499
0.0245578
0.26325
0.15098
0.464823
0.12478
-0.00839021
0.0099349
-0.000588597
0.335675
-0.11143
-0.22426
-0.101234
0.282853
0.0172684
-0.0044478
-0.0331316
0.0374785
-0.00434531
-0.0122694
-0.00186153
0.0141309
-0.106906
0.119114
-0.0591189
-0.239896
-0.238007
-0.356046
0.510235
-0.184141
0.00402143
-0.160098
-0.0268741
0.0100464
-0.0577913
0.0477453
0.0437981
0.12185
0.0123585
-0.00437558
-0.293007
0.0985735
0.194419
0.0256018
-0.211546
0.18594
0.0110118
-0.0134405
0.00242875
0.14072
-0.449315
-0.00916369
0.227832
0.268223
-0.359865
0.0916256
0.335012
0.258937
-0.593992
0.0181032
-0.164913
0.0847326
0.0231359
0.202262
-0.286196
0.0839217
0.00448769
0.000243428
-0.000176902
-0.00698318
0.00717852
0.0160968
0.222394
-0.313614
-0.125253
0.438869
-0.107998
-0.00798314
0.115982
-0.0280756
-0.323541
0.566086
-0.0423705
0.0484332
-0.0060626
-0.446603
0.132989
-0.151872
-0.286406
0.377142
-0.0907254
0.451922
-0.165624
-0.286307
-0.0731139
-0.238848
-0.113481
0.352322
0.00896363
-0.0246063
0.159663
0.0297549
-0.189428
0.386916
-0.586232
0.199316
0.37677
-0.51242
0.13562
-0.0216658
-0.26301
0.284677
0.0380227
-0.32389
0.285844
-0.358151
0.0817561
-0.0319207
0.0461682
-0.0142467
0.294299
0.0591455
-0.353445
-0.120258
0.411816
-0.291557
-0.00372695
-1.24005e-05
0.00373937
-0.000734385
0.00132935
-0.170065
0.13889
-0.170568
-0.0131867
-0.124741
0.137926
-0.0662439
-0.165274
0.231513
0.480521
-0.172843
-0.3077
0.122929
-0.0580332
-0.0110777
0.116327
-0.0109838
0.272393
-0.481436
0.209034
-0.309147
0.124859
-0.000256152
-0.00433081
-0.0398139
-0.0973613
0.137173
-0.00316727
0.0107689
-0.00760155
0.527937
0.162789
-0.00122299
0.01233
-0.185614
0.16992
0.0156962
-0.287624
0.0773564
0.0134847
-0.0129484
-0.000536255
-0.0208785
0.00959339
0.0112853
0.357351
-0.319353
0.117659
-0.101048
0.491182
0.105707
-0.347464
0.108609
0.429867
-0.195541
0.00259076
-0.0119354
0.482113
-0.251634
-0.342419
0.279079
-0.0103965
-0.29033
0.0752361
0.2151
0.0209303
0.104385
-0.0905022
0.0487769
0.309389
0.0822407
-0.391634
0.0936539
-0.124893
0.0312393
0.372672
0.165347
-0.538039
0.00864853
0.505977
-0.480321
-0.025683
0.360632
0.362697
0.216971
-0.579674
0.00357831
0.458379
0.0172784
0.00727128
-0.00846291
0.00119207
0.00231479
-0.00537904
0.00306625
0.00704271
-0.182036
-0.0211887
-0.0318048
-0.0119871
0.0138708
-0.00188355
-0.275338
0.350949
-0.000170683
0.0110497
-0.00419799
-0.000652305
-0.0140112
0.00202422
-0.00124044
-0.00546982
0.00671136
-0.00028753
-0.0034394
-0.011958
0.0159479
-0.069417
0.115698
0.172375
0.0962574
0.000953634
-0.168861
-0.0167517
0.00050717
0.00263279
-0.425384
0.0659198
0.101005
0.271524
0.271351
0.0643077
0.536818
0.161866
-0.241799
0.0799317
0.114554
-0.147535
0.0329802
0.00638731
-0.0102539
0.00386659
0.378748
-0.277764
0.424845
-0.187486
-0.237361
-0.00252584
0.00950462
-0.00697872
0.00148199
-0.0747254
0.0732419
-0.271466
0.249802
0.0277949
0.0383715
-0.188707
0.15033
-0.0867393
-0.202888
0.289618
0.0236799
0.0270958
0.0903037
-0.062509
0.155666
-0.213576
0.0579074
-0.180318
-0.110006
-0.00827879
0.00811883
0.0119855
-0.000973779
0.000531665
-0.0148172
-0.375425
0.0890304
-0.0985822
-0.0163508
0.00368611
0.122016
-0.00756911
-0.00411016
0.0116793
0.00144769
-0.139355
0.138163
0.00119384
0.252214
0.16812
-0.269904
-0.0864781
-0.206541
-0.516284
-0.117143
0.0562843
0.518057
-0.366718
0.168561
0.0257582
-0.0559734
-0.108402
-0.00813649
0.0051933
0.00294343
-0.141869
0.0269673
0.114902
-0.102204
-0.240208
0.130347
-0.0106562
0.00939952
0.0012569
0.176361
0.327762
-0.239116
-0.0886502
-0.0108225
-0.000928002
0.0117505
-0.368868
0.10667
-0.308042
0.0128919
0.0689958
-0.108929
0.0399334
-0.00213068
0.00602563
0.482523
0.294805
-0.349443
0.00319399
-0.00233881
-0.000852361
-0.057886
0.0366972
-0.0106771
0.0395499
-0.0288737
-0.147537
0.0294766
0.11806
-0.020137
-0.0260555
-0.486421
0.169142
0.31726
-0.0985027
0.109149
-0.0106457
0.166658
0.1611
0.0164413
0.354315
-0.370784
-0.0876848
-0.20569
-0.00189172
0.00167273
0.00159443
-0.0138639
-0.379968
0.0988476
0.281115
0.50841
-0.131658
-0.0816605
0.349867
0.00553113
0.0770857
-0.200402
0.00909865
0.191295
-0.235747
-0.193573
-0.306086
0.10093
0.0125436
0.376762
-0.0673756
-0.0233129
-0.0835311
-0.0041914
0.0877208
0.0074661
0.000431114
-0.00789737
-0.334393
0.09932
0.114038
-0.016263
-0.0977773
0.180731
-0.173254
-0.0129707
0.00437619
-0.0105604
-9.5628e-05
0.0121978
-0.0046216
-0.13869
0.125502
-0.00781445
-0.0130638
0.463381
0.00101464
0.00027738
-0.471428
0.478877
-0.0642722
-0.16328
0.182315
-0.153608
-0.0287122
-0.0921498
-0.00254906
0.00165656
0.0206451
0.0135371
-0.0341824
0.0790936
0.0130254
-0.0921177
-0.00120111
0.003468
-0.00226684
-0.287431
-0.272402
0.559781
-0.0508467
0.077849
-0.0270027
0.115344
0.336568
-0.0790901
0.1595
-0.00273163
0.00341678
-0.000684717
0.22447
0.123713
0.169144
-0.640578
0.212582
-0.273744
0.0611479
0.0914707
-0.258873
0.16739
-0.00654906
-0.00158731
0.475017
-0.109275
-0.365765
0.512202
-0.179941
-0.00070829
-0.00772361
0.129642
-0.121922
0.153542
-0.165015
0.0114708
-0.0255661
-0.0033288
-0.108243
-0.00620256
0.114447
0.0131109
0.000334456
-0.0134452
-0.00451156
-0.146575
0.128078
-0.167894
0.0022937
0.0111615
-0.186791
-0.00176902
0.0257054
-0.0239363
0.00102835
-0.00170698
0.212067
0.00291114
-0.214977
-0.312152
-0.0659967
0.378149
0.000507124
-0.00522321
0.00471748
-0.0210389
-0.241816
0.266804
-0.155368
0.0271224
0.128246
0.165063
-0.0173047
-0.357697
0.117511
0.24019
-0.0425513
0.204416
-0.155965
0.247426
0.152134
0.288229
0.308788
0.140434
0.0192439
-0.0295166
0.0497347
-0.365706
0.141897
-0.148401
0.00650116
0.121648
0.206096
-0.327744
0.0996448
-0.101413
0.00176566
-0.253522
0.577354
0.15673
-0.0115481
-0.137301
-0.245359
0.169518
0.332623
-0.0928713
-0.239757
-0.297913
-0.0820537
0.0410483
-0.0376183
-0.00342908
-0.104839
-0.0165355
0.121373
-0.00284152
0.00624756
-0.00340583
0.260492
0.201618
-0.323721
0.275016
0.0486893
-0.00352224
-0.265549
-0.0943324
0.00320945
0.131187
-0.134398
-0.128718
0.0238765
-0.248285
-0.109408
0.0143385
0.130573
-0.257654
0.379299
-0.00700012
0.0150228
-0.0080218
-0.291974
0.0501565
0.00808883
0.206118
0.0112079
0.00195664
-0.0660775
0.0791588
-0.0130816
-0.100608
0.403435
-0.302851
-0.218576
0.198878
0.0196869
-0.00113502
0.00840692
0.355766
-0.339348
0.476474
-0.123799
-0.352705
-0.0119335
0.00436441
-0.00910546
0.0116963
0.0373066
-0.197667
-0.00819278
-0.074989
0.083181
0.542981
-0.279783
0.231326
-0.0021319
0.246493
-0.205208
-0.354892
-0.0931017
-0.0589451
0.00949777
0.04945
0.313095
-0.301311
-0.0118032
0.00649526
0.0264493
-0.0329445
0.196483
0.402499
-0.454086
0.0991791
-0.299631
0.188188
0.00447299
-0.112716
-0.00769997
-0.00057534
0.00827515
-0.214112
-0.0817706
0.0107192
-0.242048
0.231315
-0.352678
-0.133763
0.202319
-0.180108
0.480462
-0.145488
0.022869
0.152308
-0.122956
-0.584426
0.260881
0.00173652
0.00564364
0.112028
-0.0712848
0.0204382
-0.00851762
0.000526031
-0.0221676
-0.0105741
0.406412
-0.307572
-0.303048
0.0639285
-0.252551
0.341656
-0.089121
-0.00476456
-0.181996
0.13376
0.000296459
-0.00832919
0.0080327
-0.00483191
-0.00953147
0.0143635
0.232542
-0.16277
0.000464435
0.0108971
-0.0175864
-0.160833
0.150653
0.0101764
-0.0931656
0.0849729
-0.112193
0.099376
0.00173761
-0.0021899
0.111669
-0.0120259
0.0489843
0.0442898
-0.0932745
-0.00922972
0.00121733
0.145569
0.0108783
-0.156444
0.165256
-0.01041
-0.019231
0.0738442
-0.406686
-0.0186979
0.22212
-0.15731
0.0100479
-0.0118171
-0.121505
0.150331
-0.0288316
0.377631
-0.278571
0.125614
-0.0106434
-0.116416
0.119624
0.0100256
-0.0107754
-0.000509784
0.0112853
0.210009
0.00961155
-0.219632
-0.0072673
0.00606617
0.0366127
0.140474
-0.177082
-0.0114457
0.0435791
-0.0321314
-0.0689223
-0.0416386
0.11056
0.120987
-0.100058
-0.15751
0.195875
-0.377915
0.19931
0.00244741
0.310146
-0.430715
0.12055
-0.0529787
0.208642
-0.50645
-0.0281215
0.179137
-0.376863
0.123166
0.253676
0.0142587
0.105776
-0.120037
-0.0119477
0.105648
0.0109687
0.0079059
-0.0188744
0.0729243
0.03772
-0.110645
-0.0277913
-0.0627115
-0.0036897
-0.00296214
0.0695981
0.257669
-0.370998
0.113309
0.000810424
0.00195786
-0.00348515
0.00152722
0.333454
-0.397111
0.0636412
0.350397
-0.148926
-0.024656
0.173578
0.00242971
0.0114535
0.343531
-0.593765
0.250232
0.1292
0.00776997
-0.136971
0.0699933
0.00482173
-0.0748162
0.131171
-0.151765
0.0205892
0.374461
-0.2636
-0.110866
-0.29897
0.245072
0.0539012
-0.177151
0.332076
-0.154946
-0.075151
-0.0802175
-0.142047
0.108922
0.231016
0.00687423
-0.011003
-0.000538366
0.00210821
-0.00157168
-0.113193
0.128458
-0.0460004
0.00362987
-0.0263916
0.171964
0.0891322
-0.0768663
-0.0122666
-0.20844
0.227164
-0.218881
0.152632
0.00269735
0.00512369
-0.0078209
-0.0293125
0.0395905
-0.0102779
-0.000696852
-0.00185556
0.0487203
-0.048409
-0.588592
-0.429566
0.312786
0.116771
-0.136905
0.312663
0.348099
-0.0760378
-0.272068
0.112635
0.163834
-0.0449062
-0.0873762
0.132278
0.374466
-0.0841315
-0.290356
0.00805045
0.109305
-0.117355
-0.503391
0.441097
-0.179462
-0.302312
0.122694
-0.00287291
0.000278987
0.117763
-0.0534632
0.102447
-0.356941
0.0815878
0.0224036
-0.188672
-0.240903
0.00276962
0.00597671
-0.00874642
0.27016
0.230637
-0.185823
0.131651
0.457297
-0.184914
0.00990207
0.06021
-0.0701115
-0.00363598
0.0642259
-0.10435
0.273837
-0.0894998
-0.0523691
0.361776
-0.152853
-0.208938
0.145278
0.012383
-0.00945263
0.231378
0.114122
-0.345507
0.188851
-0.276538
-0.136964
0.129236
0.170821
0.0300859
0.000540331
0.278428
0.109318
-0.179434
0.0701103
0.261297
-0.2998
0.122532
-0.501047
0.138193
-0.0236392
-0.085502
-0.175141
-0.213501
-0.240121
0.453593
-0.157286
-0.0562925
-0.00608206
-0.00862505
-0.1979
-0.0268829
0.224775
-0.0380031
0.0480497
-0.00179401