/*--------------------------------*- C++ -*----------------------------------*\
| =========                 |                                                 |
| \\      /  F ield         | OpenFOAM: The Open Source CFD Toolbox           |
|  \\    /   O peration     | Version:  v2012                                 |
|   \\  /    A nd           | Website:  www.openfoam.com                      |
|    \\/     M anipulation  |                                                 |
\*---------------------------------------------------------------------------*/
FoamFile
{
    version     2.0;
    format      ascii;
    class       surfaceScalarField;
    location    "700";
    object      phi;
}
// * * * * * * * * * * * * * * * * * * * * * * * * * * * * * * * * * * * * * //

dimensions      [0 3 -1 0 0 0 0];
oriented        oriented;


internalField   nonuniform List<scalar> 
20673
(
-0.184886
0.163228
0.0216351
0.379384
-0.30596
-0.0734595
0.0082027
-0.0143862
0.00618403
0.161727
-0.285564
0.123864
-0.355991
-0.121723
0.477699
-0.0154123
-0.00713246
0.0225449
0.00958958
-0.00515664
-0.00443088
0.000609125
0.0060937
-0.00670293
0.000754727
-0.00136771
0.000612784
-0.0475011
0.161728
-0.114231
-0.125833
0.120177
0.00565673
0.154217
0.0132266
-0.167438
-0.0974761
-0.0153279
0.00132644
0.0140017
0.213516
-0.0508058
-0.162727
0.239758
-0.251418
0.011635
-0.11796
0.307424
-0.189502
0.157948
-0.176484
0.0185351
0.164206
-0.00998478
0.334168
0.26564
-0.599879
-0.370451
0.573001
-0.202544
0.00661314
0.00297696
-0.597755
0.330397
0.26731
0.0129984
-0.0123889
-0.299587
-0.0677829
0.367333
-0.00515803
0.0106666
-0.00550794
-0.102308
0.0819145
0.0203942
-0.101167
0.0571688
0.0440009
-0.0676822
0.0588258
0.00885563
-0.157982
0.126228
0.0317497
0.157555
-0.183272
0.0257139
0.195179
-0.216224
0.0210227
-0.089827
0.139532
-0.0497041
0.176423
-0.0577029
-0.118718
-0.391129
0.357489
0.0336221
0.0684252
-0.0879021
0.0194777
-0.368213
-0.229589
0.0027881
0.0080699
-0.0108577
-0.198828
-0.0504916
0.00230324
0.000285548
-0.00258843
-0.580952
0.590185
-0.00941406
0.685375
-0.383161
-0.302202
0.367144
-0.542787
0.17561
-0.0567365
-0.0114581
0.0681973
-0.169228
-0.165656
0.334861
0.106161
0.061968
-0.168127
0.157901
4.05615e-05
-0.0230673
-0.120681
0.143751
-0.00774675
0.0139349
-0.00618805
-0.67934
0.436368
0.242831
0.0493931
-0.175235
0.125832
-0.276032
0.0226049
0.253424
-0.0113025
0.00355571
0.0642026
0.112223
0.161185
-0.279181
0.226974
-0.231663
0.00467756
-0.127254
0.00141968
0.262553
-0.356396
0.0938039
0.0968861
0.159652
-0.256556
-0.340167
0.170931
-0.00294439
-0.00610212
0.00904615
0.176326
0.203015
-0.0153275
-0.168093
0.502193
0.0209704
-0.0363828
-0.0491037
0.0557756
-0.00667249
-0.51605
0.329164
0.270619
-0.360946
-0.118965
0.119145
-0.000179837
-0.158107
0.188633
-0.0305421
-0.52505
0.169047
-0.00257954
0.0033345
-0.00228833
-0.011392
0.0136805
0.152028
-0.451652
-0.0113883
-0.00674591
0.0181343
-0.00703346
0.147901
-0.140859
0.0140697
0.00347558
-0.0175452
0.0816923
0.19084
-0.272554
0.0141781
-0.00868206
-0.00549391
-0.611807
0.327789
0.284022
-0.324821
0.600148
-0.275349
-0.253267
0.00315973
0.0293413
-0.0324998
-0.00826295
0.0110518
0.00440988
0.00502295
-0.00943192
-0.214531
0.296191
0.366375
0.205711
-0.572128
-0.0623409
0.0132367
0.224699
-0.175303
0.520505
-0.153388
0.00413265
0.00899067
-0.013123
0.123903
0.00984492
-0.133754
-0.0606862
0.373113
-0.31248
-0.258471
0.0420379
0.216417
-0.0284578
-0.0338839
0.02866
-0.0339081
0.00524881
0.0967954
-0.141192
0.0444002
0.14365
-0.00633051
-0.137318
-0.0830648
-0.0291831
0.112252
0.047552
-0.066985
0.0194367
-0.454429
0.562445
-0.108115
0.116902
0.017112
-0.134012
0.0136297
-0.0703636
-0.279562
0.0712148
0.208336
-0.490828
0.095242
0.395515
0.00392486
-0.0025054
-0.00141908
0.00547553
-0.069124
0.0636469
0.101491
-0.124556
0.116194
0.191189
0.174135
-0.151748
-0.0224049
0.0056615
0.00847377
-0.0141354
-0.00101889
0.00332241
-0.129403
0.14405
-0.0146393
0.00337257
0.000552512
-0.27634
0.125522
0.15082
0.00263129
-0.00474115
0.00210947
-0.357243
0.502343
-0.145153
0.0105204
-0.0156026
0.00508253
0.0107557
-0.0114119
0.00065606
-0.0866745
0.16749
-0.0808143
0.495282
0.190104
-0.111748
-0.00721297
-0.00150277
-0.00960577
0.0111088
-0.0634128
-0.0377519
-0.608048
0.122369
0.485544
-0.253679
-0.00481094
0.108236
0.217755
-0.326021
-0.53428
-0.0739266
-0.497383
0.590803
-0.0935081
0.0215277
-0.00648446
0.00778735
-0.00130266
-0.092451
-0.183887
0.145733
-0.311413
0.211251
-0.581694
-0.0731673
0.0417545
0.0314133
0.000613908
0.0123849
-0.0282873
-0.156617
0.0526164
-0.00506326
-0.108565
0.437744
0.0936978
-0.18037
-0.0778578
0.10072
-0.0228606
0.458566
-0.199066
-0.259552
-0.205724
0.277957
-0.072241
-0.0712273
0.0187724
0.0524589
-0.0612042
0.331833
0.0118127
0.00136705
-0.0131792
0.0122181
0.0507408
-0.0629609
0.0292335
-0.305268
0.511043
-0.174249
-0.336844
0.236247
-0.215623
-0.0206488
0.168826
0.00508245
-0.173907
-0.00273296
0.00536387
0.0188447
-0.126826
0.107985
-0.0937533
-0.0339973
0.127739
0.223333
-0.227841
0.00448466
-0.00146919
0.00598903
-0.00452035
-0.182471
0.024344
0.0203474
-0.0545588
0.0342122
-0.00264911
0.0167186
-0.042388
-0.0307786
-0.140172
0.220894
-0.0807276
-0.091311
0.00250152
0.0888096
0.244154
0.355567
-0.599718
0.12731
-0.0305134
-0.145513
0.0161185
0.020481
-0.103542
-0.212212
-0.0673572
-0.171894
0.170019
0.00187647
0.143359
0.218772
-0.362179
0.0166814
0.100221
0.147789
-0.150861
0.00305618
0.0194684
-0.0083871
-0.0110813
0.112334
0.0164382
-0.128765
0.00456632
0.23264
-0.237241
0.0204028
-0.0154508
-0.00495162
-0.0333829
-0.0800334
0.113406
-0.0063451
-0.000139732
-0.00361751
0.0141375
0.01647
-0.00465693
-0.252658
0.404775
-0.152171
-0.00632519
0.130222
-0.026061
0.18361
0.298392
0.160121
-0.0913161
0.457653
0.191968
-0.101335
-0.090641
0.0096892
-0.0148468
-0.0230611
0.130762
-0.107703
-0.00530076
0.00383
0.165453
-0.157842
-0.00761535
-0.12516
0.108184
0.01698
-0.0127224
0.0638151
-0.0510885
-0.00333748
0.00774882
-0.118051
0.107614
0.0104334
0.623402
-0.274363
-0.349092
-0.0372748
-0.0078535
0.0451297
-0.105889
0.00358254
0.632947
-0.633141
-0.312338
0.251605
-0.00131385
-0.0795947
0.0809059
-0.0766329
0.080395
-0.00376368
0.0247216
0.186227
-0.210942
-0.339982
-0.339465
0.178688
-0.00115842
-0.177523
0.167974
0.000853597
-0.0145741
0.0122858
-0.0482087
0.0648747
-0.0166661
-0.276133
-0.115011
-0.101171
0.363688
0.013726
0.129925
0.0084545
0.00831756
-0.0167714
-0.288426
0.0826918
0.0086932
-0.00367169
-0.00502
0.0138574
0.00211948
-0.0159769
-0.0158366
-0.109319
-0.415427
-0.0754669
-0.0613733
0.0473525
0.0140246
0.164393
-0.00982866
-0.154564
0.0125422
0.00600095
-0.0185427
-0.493022
0.297634
0.195346
0.0172973
-0.0202424
-0.401319
0.148598
-0.0101908
0.128848
-0.11866
-0.129106
-0.451994
0.00636811
0.00441317
-0.0107809
0.00310502
-0.0019037
-0.00120119
0.0532401
0.186496
-0.122865
0.00945357
0.113408
0.0298056
0.193515
-0.463125
0.04762
-0.00111251
0.0695387
0.137984
-0.0256437
-0.00403219
0.169481
-0.0196721
0.00863192
0.0110408
0.0164997
-0.0026422
-0.593998
0.489914
0.103963
0.203583
-0.00842288
0.0137463
-0.00961327
-0.00452774
-0.00281205
0.00733784
-0.302039
0.546174
-0.458785
0.445143
0.013557
-9.50587e-05
-0.00100009
-0.134831
0.107692
0.027141
0.399115
-0.601875
0.202748
-0.0675777
0.0908264
-0.0232461
-0.163188
0.152208
0.010978
-0.101774
0.0104615
-0.165596
-0.0235918
0.189169
0.582042
-0.226488
0.136083
0.0164433
-0.15254
0.0171807
-0.0179874
0.00080694
-0.293845
0.395379
-0.101525
0.043973
-0.138016
0.0940378
-0.0439398
-0.00377143
0.047714
-0.237836
0.346048
-0.275293
-0.0811364
-0.0333576
-0.113657
0.147022
-0.00190122
0.00170746
0.000193936
0.115029
-0.0961771
0.130378
0.0615838
0.0239105
0.189589
0.242041
0.369957
-0.612003
0.00999024
-0.0114931
3.97333e-05
0.0112131
-0.0112525
0.042364
-0.0801153
0.037753
-0.382969
-0.0802213
-0.00525081
-0.0108566
0.016108
0.0141572
-0.0142383
8.16441e-05
-0.0210253
0.0413733
0.0108347
0.00334415
-0.127413
0.12039
0.257209
0.473644
-0.661244
0.187417
-0.157978
0.00871451
0.149262
7.83811e-05
-0.0119043
0.0118262
0.134984
-0.14921
0.0142229
-0.17103
0.2679
-0.0636023
0.0153944
-0.148301
-0.025004
-0.0923978
-0.457352
0.54968
-0.0283093
0.0286048
-0.000296028
0.25212
0.283619
-0.535807
0.0188398
0.00156317
-0.219896
0.244625
-0.0725024
0.471595
0.0973289
0.10746
-0.20481
0.041969
-0.135734
0.11006
-0.107558
0.0257213
-0.0932978
0.00793337
0.128973
-0.136922
0.386398
-0.095205
-0.291201
0.0826291
-0.0866835
0.00405437
-0.0118352
-0.00783651
0.0045047
-0.00446599
-0.234109
-0.258959
0.0411082
-0.0143841
-0.0267225
-0.485483
0.0174223
0.468061
0.192063
0.194327
-0.477573
0.120275
0.0619018
-0.0496852
-0.0592531
0.519394
-0.460259
-0.121058
0.110864
-0.190282
0.0246604
-0.264605
0.407923
0.00299146
0.175703
-0.258282
0.0394186
0.218831
-0.00806802
-0.00012005
0.00818812
0.0937308
-0.127124
0.138916
-0.129079
-0.275131
-0.113984
0.389055
0.0788595
-0.354186
0.00226679
-0.0132396
0.010973
-0.0149371
0.0126137
0.00232358
0.283373
0.218925
-0.391937
0.625586
-0.233806
-0.0271004
-0.0012083
-0.285578
-0.0783853
0.363906
0.00268654
-0.0140782
0.10956
-0.384714
0.00961432
-0.00324575
-0.342294
0.259723
0.0825911
0.102673
-0.000332844
-0.102344
0.231943
-0.151528
-0.08041
0.0207475
-0.0157028
-0.00504433
0.0736993
-0.213877
0.00528443
-0.0476728
-0.051843
0.00692807
0.0449186
0.187965
-0.0906569
-0.0703567
-0.0644738
-6.97199e-05
0.0705558
-0.0704894
0.0666727
-0.287811
0.221109
0.0010353
0.00846536
-0.00950043
-0.0537855
0.0165115
-0.00060416
0.0147618
-0.193079
0.164664
0.0284156
0.00766564
0.0003459
-0.00801108
-0.157162
-0.0693235
0.226466
-0.00342768
0.00978876
-0.00636118
-0.0494211
-0.00241898
0.0829362
-0.0982163
0.0152754
0.0971653
-0.0142358
0.0085639
-0.000360478
-0.56321
0.33651
0.226701
0.153119
-0.00534381
-0.00895527
0.0146169
-0.169182
0.292817
-0.123654
0.219045
0.0093494
-0.228422
0.0156876
-0.0143605
-0.0732434
0.0719262
-0.207108
-0.0660714
0.273137
-0.076259
0.0635339
-0.0424791
-0.0252029
-0.602313
0.322259
0.279937
0.0125622
-0.00180685
-0.0931889
0.0315023
0.0616901
-0.269045
0.521094
0.512512
-0.356353
-0.156236
0.10849
-0.593965
0.235785
0.275211
-0.00414227
0.0867711
-0.0115853
0.0176732
-0.00608762
-0.0342065
0.0164144
0.0177899
0.013117
-0.0108502
-0.36769
-0.0132638
0.380911
-0.076095
0.120066
-0.00997999
0.0103416
-0.000361626
0.136483
-0.179418
0.0429389
0.00353824
0.0119286
-0.01185
0.000599911
0.216168
-0.483689
0.267433
0.0877547
-0.0453883
0.329469
-0.498251
0.16871
-0.00347873
0.0207757
-0.152916
-0.187255
0.0195115
0.00123617
-0.0396308
-0.123557
0.193043
0.0869478
-0.279974
0.460136
-0.572136
0.111994
0.155536
-0.141809
-0.106672
0.100343
0.140759
-0.139009
-0.0017541
-0.0101843
-0.0398234
0.0500106
-0.0114196
0.00799202
0.0172967
-0.0047544
-0.00486186
0.140935
0.0750274
-0.122536
0.0216819
-0.48054
-0.00888363
0.00435679
-0.00151799
-0.00527368
0.00679194
-0.0435125
0.295796
-0.252325
0.072609
-0.0673241
-0.313465
0.502523
-0.189087
0.0302001
0.0827808
-0.11298
-0.104586
-0.237686
-0.320114
-0.243096
-0.303189
0.120482
0.182684
-0.00883486
-0.00781888
0.0166543
-0.0874428
-0.215771
-0.00357757
0.00167742
0.00658275
-0.00113588
-0.00544755
0.0859365
-0.0947865
0.00885104
0.0332398
-0.0487085
0.0154716
-0.209443
0.276086
-0.0316677
-0.0297027
0.0401706
0.587811
-0.239083
-0.348792
-0.0677705
-0.297568
0.128363
0.222936
-0.340632
0.117674
-0.0883627
-0.069623
-0.36436
0.606382
-0.385658
0.464496
-0.078868
0.390819
-0.0614057
0.105687
-0.109831
-0.326297
-0.285505
0.00817751
-0.000511208
-0.00710699
0.0223501
-0.0152421
0.00386596
0.00372978
-0.00759566
-0.0926962
-0.0253583
-0.0028145
0.00220325
0.000611485
0.0128506
0.00399536
-0.0168458
0.179362
-0.0428736
-0.475211
0.107477
0.115601
0.0245159
-0.140117
-0.277493
0.0786808
0.218687
-0.195893
-0.0228162
0.222414
0.400942
0.00488511
0.0105445
-0.0020891
-0.0316906
0.0245848
-0.186124
0.215946
-0.0298407
0.125728
0.0226344
-0.148364
-0.158791
-0.0342876
-0.268514
0.218045
0.0123036
0.128454
0.208257
-0.246403
0.0381148
-0.0860387
0.0822532
0.00378803
-0.168666
0.284821
-0.437789
0.378444
-0.00994425
0.0126309
-0.00670543
0.000359981
-0.00567314
-0.00103302
0.0347804
0.103445
-0.138234
0.00671212
-0.00284616
-0.00754369
0.00857911
0.00272083
-0.0126391
0.00991847
0.016521
0.00036521
-0.0168862
0.150089
0.366855
-0.517025
-0.146399
0.00702108
0.139379
0.228899
-0.0206714
0.350902
-0.25721
-0.0937209
-0.0802226
0.0173641
0.0628601
-8.06906e-05
0.488097
-0.542408
0.0543214
0.0231385
-0.154131
0.130988
-0.00782131
-0.159707
0.167534
0.0186843
-0.0120477
-0.00663659
0.347683
0.240077
0.135553
-0.00781011
-0.127744
0.00375928
0.00166048
-0.00542053
0.11371
-0.0297065
-0.0840068
0.00052675
0.00617872
-0.00670516
0.246708
-0.259382
0.21583
0.522576
0.110206
-0.147186
-0.0353008
0.511969
-0.295896
-0.00938067
-0.0086772
0.0180581
-0.0330333
-0.00117517
-0.151533
0.15945
0.00410964
-0.00867917
0.00460125
0.0312747
0.195688
0.109817
0.0174942
0.0109439
-0.00822311
-0.00468017
0.0554201
-0.0207039
0.106643
0.00212253
-0.0799789
0.119225
0.0163323
0.122314
-0.160296
0.0379818
0.103798
0.0288499
-0.132649
-0.187277
0.189907
-0.00261758
0.0962104
-0.123363
0.0271552
0.0241305
-0.14534
-0.0212071
0.166557
0.118414
0.00157388
-0.119988
-0.533378
0.546442
-0.0131997
0.0693341
-0.0204039
-0.0489305
0.224986
-0.0121913
-0.212792
-0.437661
0.308505
0.129146
-0.169325
0.02212
-0.272593
0.195763
0.076802
0.00241871
0.0162656
0.0014904
0.00188261
0.0996415
-0.385275
-0.519525
0.427062
-0.0101185
-0.007884
0.0180027
0.0166924
-0.00384163
0.593557
-0.223624
0.00864134
-0.00811453
-0.323846
0.240529
0.0833232
0.13042
-0.1095
-0.0209253
-0.00323158
0.331791
-0.328621
0.0166451
-0.0101677
-0.00647743
0.0394372
-0.0571152
0.0176766
0.0559206
0.1803
0.310351
-0.187509
-0.122864
0.000272099
-0.00308621
-0.12016
0.0970945
-0.0121831
0.0120553
0.000124954
0.241909
-0.606273
0.00138569
-0.0164821
0.0150966
-0.0116855
0.0307392
-0.00297678
-0.0277623
-0.358338
-0.0793347
-0.00493866
0.00996296
-0.000576868
-0.000409671
0.00098692
-0.139896
0.180467
-0.0405658
0.132437
0.380004
-0.212413
0.271055
-0.0586724
-0.155966
-0.0593853
0.0895856
-0.0441453
0.532265
-0.522333
0.165899
0.649438
-0.439983
-0.209567
0.408849
0.240479
0.00841213
-0.0136633
-0.0328239
-0.0473971
0.0394705
-0.113309
0.116417
-0.00310715
0.572633
-0.0991447
-0.0451417
-0.409366
-0.00451584
0.130243
0.00620104
-0.00280203
-0.00339894
0.153659
-0.179979
0.0263107
-0.122923
0.341633
0.453472
-0.230567
-0.29266
-0.084679
0.377351
0.0036394
0.00348679
-0.00682316
0.395312
0.166642
-0.561992
-0.260055
-0.148402
0.408458
0.00171823
-0.0286727
-0.158591
0.114511
0.117435
0.0304333
-0.289854
-0.161775
0.269524
-0.107778
0.196324
-0.224545
0.0281954
-0.00246968
0.120885
0.0708863
-0.0709598
0.017453
0.113325
0.00227615
-0.165698
0.0632664
0.102431
0.00878669
0.056088
0.02009
0.118821
0.455898
-0.288228
-0.167713
0.0157244
0.00145647
-0.453003
0.256179
-0.0371575
0.261728
0.00710365
-0.268827
0.0454375
0.0238965
0.0929947
0.0119737
-0.104976
-0.0134094
0.399751
-0.386454
0.00860004
0.105108
0.126266
-0.148698
0.0224283
0.00427445
0.00296128
-0.00723615
-0.0869533
-0.0787442
0.0149957
0.089681
-0.10468
0.151941
-0.15976
0.323298
0.136831
0.00657539
-0.00207085
0.111269
-0.000787763
-0.000805581
0.00159422
0.182852
-0.351562
-0.171385
0.19493
-0.0235605
0.120833
-0.00441764
0.00153204
0.0103968
0.0180058
-0.0180052
0.128068
-0.134399
-0.078081
0.112855
-0.0489895
-0.202451
0.199778
-0.237842
0.0380421
-0.220877
0.251279
-0.0834191
-0.00658073
0.0899962
-0.0575956
0.0359558
0.159225
0.00516778
0.00867887
0.00163627
-0.0024234
-0.00318772
-0.0089934
0.00885835
-0.21676
0.207871
-0.0126717
0.122492
0.0584515
-0.0190159
0.099396
0.0849581
-0.184374
-0.296245
0.100578
0.195661
-0.0344607
0.00502589
0.0294357
0.0122926
-0.00787542
-0.00441621
-0.0119146
0.00927407
0.00264087
-0.0290765
-0.08381
0.112884
-0.542574
0.0451174
0.0113819
0.00118
-0.00805476
-0.467374
0.453817
0.201037
-0.188861
-0.012197
-0.00689041
-0.125311
0.132201
-0.127816
0.0379901
-0.00498241
0.131206
0.0131926
-0.00759839
-0.00559298
0.123817
-0.0200222
-0.0171843
0.20311
-0.18591
0.00451255
0.00206262
0.274761
-0.19962
-0.0751511
0.0176149
-0.00109401
0.272499
-0.574543
-0.0133269
0.408609
0.0332834
0.00782717
0.00987497
0.00242006
0.0365864
-0.0127232
-0.0238612
0.10562
0.169133
0.267496
-0.262968
-0.448096
0.188041
0.0135656
-0.161848
0.00254674
0.120676
-0.100189
0.231117
-0.0313591
0.109257
-0.129958
0.145709
-0.270958
0.267679
-0.0474837
-0.0753836
0.133388
-0.0127065
-0.0875591
0.0667491
0.0208127
-0.0571854
0.364941
-0.307807
-0.099685
-0.0217536
0.121437
-0.0817778
0.00548877
0.00109339
0.0230268
0.138694
0.111164
-0.0181786
-0.199347
0.0279536
-0.261212
0.537529
-0.27644
0.29418
0.0892
-0.38342
-0.100366
0.318094
-0.0983686
-0.00152825
0.09989
0.156407
-0.050245
-0.0496232
0.11407
-0.0644467
-0.0396393
0.029455
-0.155342
-0.0165485
-0.220003
-0.382419
0.0401992
-0.103427
0.0632273
0.0227031
0.0138849
-0.0785958
0.0615291
0.0170697
0.0594289
-0.353266
-0.174143
0.151135
0.0230065
-0.127554
-0.394856
-0.173602
-0.0396018
0.213218
-0.0626762
0.222317
-0.000474577
-0.000101749
-0.286154
0.613939
-0.0671812
0.201974
-0.00673084
-0.195225
0.090001
0.0301773
0.15391
-0.0531376
-0.10078
0.0109502
0.00345067
-0.0144009
-0.0130709
-0.100385
0.113447
0.0596472
-0.272094
0.0128812
-0.0147085
0.00182736
0.0137542
0.00425198
0.359677
-0.260277
-0.0994393
0.23114
0.0305885
0.0615193
-0.0445055
-0.0170118
0.0996424
-0.128722
0.131802
0.00318022
-0.347351
-0.242623
0.589937
0.0288125
0.281516
-0.104428
0.104091
0.253928
-0.0608726
-0.129341
-0.00967268
-0.167466
0.134113
0.39368
-0.0994915
-0.157699
0.165168
-0.00746805
-0.00575349
0.409017
-0.179674
-0.229336
-0.27794
-0.0279863
0.305953
0.672002
-0.39423
-0.277889
-0.00990171
-0.00503539
-0.410513
0.621775
-0.209497
0.0233533
0.00495093
0.0145175
0.020159
0.1986
-0.218781
0.0115748
-0.00169709
-0.0392654
-0.188603
0.0609723
0.0785607
0.231915
0.118054
0.00592218
-0.123989
-0.105793
-0.371827
0.141385
0.00520933
-0.1466
0.3239
-0.585972
0.26192
0.108972
-0.109735
0.000754387
-0.227447
-0.0963946
-0.00302863
0.00678679
0.052851
-0.0442713
-0.00857775
0.00360935
0.00259169
-0.560411
-0.0729254
-0.235628
0.142727
-0.122644
-0.147087
0.173809
-0.0267318
-0.00254112
0.0131745
-0.0106331
-0.00196707
0.000972453
0.000994582
-0.140086
-0.0364001
-0.325952
-0.0224887
0.348414
0.113599
-0.00791193
-0.030859
0.0181375
-0.0811134
-0.00644341
0.0713971
-0.121022
0.157101
-0.0047699
-0.152332
-0.00779908
-0.00697262
0.0147719
-0.168644
0.164278
0.00435131
0.163808
-0.188791
0.0111574
0.0985172
-0.109676
-0.0830381
0.00344097
-0.162671
0.0225896
0.00180038
0.0205616
-0.0223609
0.153488
-0.167592
0.0141066
-0.289493
0.0803999
0.209106
0.111175
-0.11806
0.0819853
0.105962
-0.412602
0.322681
0.0898728
-0.195475
0.0218989
0.0262973
0.147823
-0.180324
-0.0353242
-0.377054
-0.0489034
0.42591
0.180555
0.161464
-0.0129945
-0.148468
-0.0678458
0.25249
-0.184645
-0.152064
0.0227204
0.0179168
-0.343887
-0.219691
0.462068
-0.242399
0.138297
-0.548802
0.219631
-0.151549
-0.0681062
0.225341
0.226111
-0.451449
0.0164994
0.197637
-0.214163
0.625057
-0.281655
-0.34351
0.0147198
0.00192532
-0.152068
0.160608
-0.00853156
0.0391549
-0.0331625
0.234433
-0.517874
0.283331
-0.355662
-0.203684
0.55934
-0.0267266
0.0849796
-0.0582526
0.162693
-0.0403832
0.253196
-0.187984
-0.0652091
0.0168447
0.00328439
-0.0201299
0.137867
-0.0307923
-0.107081
-0.0343981
0.0309181
0.00651757
0.113223
-0.137114
0.0238893
-0.0953463
0.269275
-0.173933
-0.635621
0.0272817
0.608344
0.597626
-0.188903
-0.260643
0.002335
0.0159225
-0.0161822
0.00025992
-0.603087
0.247424
-0.0481907
0.00785414
0.0403348
-0.140178
0.156655
-0.00223724
-0.00774285
0.119599
-0.138431
0.0188229
0.122397
0.0154646
-0.0191747
0.109175
-0.445889
0.106912
0.338904
0.281356
0.315664
0.0121426
-0.42997
0.268212
0.161763
-0.296104
0.0699063
0.226174
-0.0201301
-0.00638563
0.0265151
0.258528
-0.0259165
0.0996781
0.446835
-0.546529
-0.0168676
0.189794
-0.17294
-0.0638024
-0.414643
0.478353
0.325322
-0.477018
0.151611
-0.160326
0.0215657
0.0105804
-0.0131214
0.165573
-0.187889
0.022295
0.255702
0.153321
0.465319
0.124682
-0.00886541
0.0103978
-0.00120954
0.338794
-0.113919
-0.224912
-0.102145
0.284964
0.0236128
-0.00676931
-0.0505014
0.0604865
-0.0099833
-0.014444
-0.00225991
0.0167037
-0.107206
0.122198
-0.0492365
-0.240247
-0.238045
-0.356065
0.50838
-0.183127
0.0162863
-0.161616
-0.0247287
0.0221227
-0.089359
0.0672347
0.0408258
0.123838
0.0127498
-0.0042842
-0.294699
0.0978977
0.196772
0.0232172
-0.2124
0.18917
0.0130388
-0.015898
0.00285934
0.136691
-0.450183
-0.0010889
0.226081
0.26865
-0.362359
0.0936668
0.336078
0.258763
-0.594944
0.0157115
-0.167481
0.0840529
0.0260087
0.206184
-0.285761
0.0795529
0.0108868
0.000689113
0.000857549
-0.00208236
0.00122504
0.0201487
0.221754
-0.313637
-0.121043
0.434686
-0.0932497
-0.0234192
0.116674
-0.0394052
-0.324417
0.566307
-0.0562362
0.0672305
-0.0109939
-0.442637
0.129001
-0.156988
-0.286311
0.370772
-0.0844406
0.446695
-0.159204
-0.287507
-0.092209
-0.242805
-0.108967
0.351758
0.0302125
-0.0713945
0.159744
0.0341111
-0.193871
0.38985
-0.586334
0.196496
0.376251
-0.509623
0.133309
-0.0262188
-0.260317
0.286541
0.0395044
-0.325702
0.286139
-0.349437
0.0715207
-0.0330113
0.0482159
-0.0152028
0.295416
0.0526312
-0.348038
-0.115808
0.408689
-0.292884
-0.00031353
-0.00114642
0.00146008
-0.00505216
0.00641961
-0.160997
0.143824
-0.173166
-0.00498797
-0.130452
0.135439
-0.0588627
-0.17034
0.229194
0.479634
-0.170757
-0.308925
0.12269
-0.0607207
-0.0131885
0.119768
-0.0108018
0.276123
-0.481989
0.20585
-0.310431
0.122885
-0.000453686
-0.00151303
-0.0495419
-0.0924234
0.141963
-0.00361985
0.0116122
-0.00799215
0.528153
0.160749
-0.00134489
0.0139587
-0.19257
0.167649
0.0249278
-0.286805
0.0722315
0.0152368
-0.0145985
-0.000637981
-0.0223028
0.00964111
0.012662
0.359123
-0.31968
0.118008
-0.106852
0.492125
0.105397
-0.346564
0.103741
0.429936
-0.195584
0.00304836
-0.0139049
0.476822
-0.251471
-0.334327
0.28052
-0.032281
-0.285176
0.0810221
0.204172
0.0243981
0.106016
-0.0898291
0.050628
0.309892
0.0763018
-0.386237
0.0923477
-0.126828
0.0344826
0.37087
0.167705
-0.538619
0.00949726
0.507856
-0.480688
-0.0272333
0.354829
0.359004
0.220685
-0.579703
0.014938
0.458676
0.0241293
0.00190465
-0.000875005
-0.00103012
0.00845376
-0.020652
0.0121991
0.0101707
-0.184314
-0.0409069
-0.052279
-0.0136225
0.0158727
-0.00224988
-0.274774
0.353599
-1.21386e-06
0.0113832
-0.00586992
-0.000232133
-0.0160169
0.00239452
-0.00265986
0.000428067
0.00223208
0.0005386
-0.000851957
-0.0113772
0.0156507
-0.0751092
0.115308
0.173485
0.0975395
0.00451215
-0.166432
-0.0261308
0.00353137
-0.00504894
-0.419123
0.0607693
0.0997767
0.273288
0.272678
0.0660763
0.537461
0.168568
-0.242082
0.0735129
0.114133
-0.150098
0.0359627
0.00676057
-0.0113095
0.004549
0.379123
-0.279394
0.425422
-0.191303
-0.234121
-0.00273622
0.010424
-0.00768816
0.000914224
-0.077001
0.0760827
-0.273763
0.247553
0.030924
0.0330059
-0.188694
0.155676
-0.0811078
-0.206579
0.287671
0.0241248
0.028727
0.0917435
-0.0608202
0.155068
-0.216346
0.0612697
-0.170182
-0.114976
-0.00282417
0.00368163
0.0141101
-0.00107142
-0.000712037
-0.0148905
-0.369111
0.0828157
-0.10019
-0.019973
-0.000448915
0.126713
-0.00821036
-0.00465654
0.0128671
-0.00235756
-0.12415
0.13723
-0.0130736
0.253348
0.172171
-0.267525
-0.0860792
-0.208646
-0.512299
-0.11504
0.0578335
0.515766
-0.365755
0.171782
0.024519
-0.0586377
-0.110014
-0.008329
0.00515364
0.00317354
-0.149458
0.0376411
0.111817
-0.0941921
-0.240115
0.135856
-0.0117746
0.0102908
0.00148432
0.178925
0.330116
-0.237401
-0.0927272
-0.0133899
-0.00110082
0.0144908
-0.36851
0.103862
-0.311375
0.0152473
0.067531
-0.110692
0.0431625
-0.00182214
0.00593552
0.482415
0.294544
-0.351778
-0.00211871
0.00667837
-0.00455883
-0.0940431
0.0531408
-0.0197968
0.0620535
-0.0422553
-0.152702
0.0373747
0.115322
-0.0410313
-0.0468695
-0.487846
0.168613
0.319187
-0.106866
0.112246
-0.00538181
0.164769
0.165337
0.0191306
0.353966
-0.373163
-0.0922065
-0.204045
-0.0183242
0.00894391
0.00192293
-0.016367
-0.376521
0.0941
0.282398
0.505299
-0.129078
-0.083753
0.352363
0.01102
0.0773224
-0.197178
0.00179212
0.195371
-0.240073
-0.189892
-0.308868
0.101715
0.00646064
0.371273
-0.0614094
-0.0189114
-0.0862792
-0.00451588
0.0907905
0.00607756
-0.00148579
-0.00459205
-0.334699
0.0968259
0.117676
-0.0171033
-0.100581
0.183696
-0.174868
-0.0153431
0.00517554
-0.0115905
-0.000183921
0.0138585
-0.00538451
-0.136375
0.131386
-0.0091681
-0.0131344
0.464253
0.00569481
-0.0145291
-0.468376
0.47932
-0.0701792
-0.161495
0.185263
-0.158197
-0.0270831
-0.0894387
-0.016523
0.00640449
0.0326005
0.0359354
-0.0685334
0.0904206
0.0296309
-0.120048
-0.00303981
0.00945899
-0.00641939
-0.288071
-0.272421
0.560361
-0.0612567
0.100962
-0.0397069
0.109446
0.337232
-0.0802747
0.162247
0.00482563
-0.00113346
-0.00369164
0.224043
0.126834
0.172503
-0.640916
0.216122
-0.275597
0.0594436
0.0967846
-0.260113
0.163311
-0.00654357
-0.0017821
0.472916
-0.107177
-0.365798
0.513792
-0.183445
0.0102766
-0.0119442
0.134397
-0.122462
0.159482
-0.161194
0.00171253
-0.0259583
-0.00489932
-0.102222
-0.0208834
0.123111
0.0149183
0.000349937
-0.015268
0.010529
-0.146936
0.123916
-0.17346
-0.0114103
0.0132468
-0.189658
-0.00154461
0.0276232
-0.0260785
0.00298383
0.00768304
0.215007
-0.00659341
-0.208406
-0.312904
-0.0591466
0.372044
0.00275591
0.00271328
-0.00546878
-0.0485103
-0.23982
0.26905
-0.160284
0.0344302
0.125852
0.166265
-0.0126096
-0.35505
0.122179
0.232883
-0.0339861
0.202556
-0.15226
0.249027
0.156959
0.287409
0.309616
0.146605
0.0104967
-0.0319062
0.0506813
-0.365891
0.146854
-0.147027
0.000165385
0.116411
0.209024
-0.32544
0.102031
-0.104641
0.00260236
-0.254254
0.578002
0.157901
-0.00325287
-0.143145
-0.241582
0.173735
0.329211
-0.0868733
-0.242346
-0.299181
-0.077357
0.0431273
-0.0390123
-0.00411276
-0.105629
-0.0197801
0.125397
-0.00629631
0.0140052
-0.00770811
0.258895
0.205579
-0.326129
0.276185
0.0499089
0.00612406
-0.265742
-0.0966581
0.00969157
0.131487
-0.141181
-0.13262
0.0269814
-0.241263
-0.113774
0.0225132
0.129695
-0.25962
0.376022
-0.00829134
0.0185936
-0.0103034
-0.294172
0.0543481
-0.00487374
0.208001
0.0134751
0.00221317
-0.0811531
0.103377
-0.0222242
-0.102887
0.405698
-0.302873
-0.221045
0.201526
0.0194917
8.23704e-05
0.00182198
0.357595
-0.338522
0.478159
-0.125503
-0.352731
-0.0130793
0.00486903
-0.0102182
0.0132667
0.0409611
-0.199752
-0.0226626
-0.0860453
0.108712
0.543908
-0.278339
0.233998
-0.00863447
0.247982
-0.208597
-0.354893
-0.0910531
-0.0842709
0.0185834
0.0656883
0.311952
-0.295631
-0.0163447
0.0144068
0.0421143
-0.0565203
0.198914
0.401214
-0.45223
0.097272
-0.302386
0.188433
0.0190233
-0.12124
-0.00543413
0.000625374
0.00480876
-0.212367
-0.0852231
0.0131938
-0.24536
0.232136
-0.354875
-0.133021
0.205915
-0.18202
0.481221
-0.145236
0.0245047
0.152049
-0.128913
-0.584554
0.260134
0.00453522
0.0131382
0.114726
-0.0913046
0.0300469
-0.00699774
-0.000545704
-0.0231383
-0.0113216
0.402654
-0.308567
-0.305538
0.0681253
-0.253017
0.344373
-0.0913956
-0.00413617
-0.185388
0.134567
0.0012203
-0.00628685
0.00506667
-0.00568254
-0.0109197
0.0166026
0.235617
-0.161926
0.00270748
0.0121399
-0.0188856
-0.157836
0.156666
0.00117038
-0.109621
0.0869627
-0.115436
0.102357
0.00338445
-0.00820527
0.114967
-0.0129415
0.0492489
0.0471085
-0.09636
-0.0088715
0.000609085
0.152446
-0.00361221
-0.148822
0.166935
-0.0122898
-0.0171397
0.0743106
-0.404517
-0.0146087
0.222517
-0.151309
0.0114815
-0.0130249
-0.124492
0.153602
-0.0291238
0.379105
-0.279518
0.129002
-0.0109585
-0.115586
0.125276
0.00764493
-0.0126673
-0.000698392
0.013366
0.212963
0.00929573
-0.22229
-0.0145363
0.0114959
0.0217895
0.14441
-0.166182
-0.0328753
0.0909096
-0.058031
-0.0646557
-0.0496371
0.114292
0.126235
-0.101841
-0.162433
0.195425
-0.375457
0.201381
0.0146382
0.313499
-0.43219
0.118646
-0.0563427
0.211403
-0.50559
-0.0279232
0.182053
-0.377104
0.121449
0.255612
0.0164097
0.107115
-0.123532
-0.0264241
0.122637
0.0110683
0.00901666
-0.0200848
0.0730951
0.0405436
-0.113641
-0.0251752
-0.0646556
-0.0197172
-0.0119725
0.0717965
0.259859
-0.370877
0.110977
0.00337061
0.00807388
-0.0208017
0.0127287
0.331335
-0.39637
0.0649891
0.350531
-0.154538
-0.0192803
0.173811
0.00284978
0.0130728
0.340371
-0.593781
0.253394
0.136819
0.000221091
-0.137041
0.072299
0.00525865
-0.0775609
0.133521
-0.155929
0.0223947
0.376805
-0.261837
-0.114982
-0.297905
0.237333
0.0605819
-0.180768
0.329455
-0.14871
-0.0829202
-0.0773647
-0.145418
0.111408
0.230727
0.00688695
-0.00991667
0.013164
-0.00466401
-0.00850046
-0.115481
0.131912
-0.0636149
0.00737643
-0.0144316
0.166889
0.0912643
-0.0791161
-0.0121496
-0.210132
0.230269
-0.216384
0.157516
0.00995378
0.0187446
-0.0286974
-0.0408083
0.0579377
-0.0171284
0.0138402
-0.0011419
0.0463982
-0.0461755
-0.589437
-0.425793
0.315018
0.110755
-0.138601
0.314886
0.350917
-0.0802059
-0.270728
0.110684
0.167269
-0.0464582
-0.0895055
0.13595
0.376831
-0.0865937
-0.29029
-0.00386116
0.114552
-0.110695
-0.505094
0.441195
-0.179314
-0.303189
0.127671
-0.00527927
-0.0136999
0.122961
-0.0563606
0.105604
-0.359543
0.0847337
0.0260411
-0.182285
-0.243527
0.0094862
0.0189843
-0.0284696
0.267621
0.234878
-0.187524
0.129824
0.457884
-0.181781
0.0222454
0.0814233
-0.103671
-0.00439278
0.0782692
-0.107449
0.273892
-0.0859004
-0.0635564
0.364208
-0.154539
-0.209705
0.149343
0.014143
-0.0106922
0.234577
0.109599
-0.344202
0.186637
-0.278851
-0.141817
0.129859
0.175497
0.025526
0.00300768
0.278295
0.110576
-0.182851
0.0722597
0.261008
-0.288973
0.126093
-0.503195
0.140746
-0.0266147
-0.0859482
-0.177053
-0.21359
-0.23987
0.453384
-0.15654
-0.0598142
-0.00736673
-0.0106205
-0.202009
-0.0241634
0.226149
-0.0559923
0.0781125
-0.00737932
-0.00917919
-0.00140884
-0.00402531
-0.231877
0.0298456
-0.449502
0.23583
0.0632798
0.119496
-0.182789
0.0166316
0.00042737