/*--------------------------------*- C++ -*----------------------------------*\
| =========                 |                                                 |
| \\      /  F ield         | OpenFOAM: The Open Source CFD Toolbox           |
|  \\    /   O peration     | Version:  v2012                                 |
|   \\  /    A nd           | Website:  www.openfoam.com                      |
|    \\/     M anipulation  |                                                 |
\*---------------------------------------------------------------------------*/
FoamFile
{
    version     2.0;
    format      ascii;
    class       surfaceVectorField;
    location    "150";
    object      Uf_0;
}
// * * * * * * * * * * * * * * * * * * * * * * * * * * * * * * * * * * * * * //

dimensions      [0 1 -1 0 0 0 0];


internalField   nonuniform List<vector> 
20673
(
(1.02633 0.0913203 -1.15709e-22)
(1.02892 0.0900468 1.62319e-22)
(1.0264 0.0882283 7.73438e-22)
(0.998941 0.0281992 -5.78887e-21)
(0.998373 0.0274111 -1.26172e-21)
(0.997915 0.0286657 5.345e-22)
(0.839483 0.0137477 2.07525e-21)
(0.874671 0.0165698 1.03351e-21)
(0.894014 0.0183865 1.15119e-21)
(1.03874 0.0188094 5.02721e-22)
(1.03833 0.0190894 -2.70791e-22)
(1.03822 0.018658 3.09332e-22)
(0.995548 -0.00696071 -1.40191e-22)
(0.995478 -0.00746451 -6.24347e-21)
(0.995014 -0.00743668 5.59369e-21)
(0.373106 -0.0425124 0)
(0.361707 -0.0693838 -2.01136e-20)
(0.344655 -0.0444726 0)
(0.758071 0.0147009 -2.1029e-22)
(0.756085 0.0124459 4.06894e-22)
(0.803017 0.0154949 6.40479e-23)
(0.912404 0.0198233 2.05113e-22)
(0.869503 0.0164559 -1.3018e-21)
(0.890328 0.0161165 -5.35218e-23)
(0.870778 0.00306488 -4.87234e-21)
(0.843412 0.00104398 -6.60141e-22)
(0.80346 0.0017103 3.2767e-21)
(1.0494 0.108364 1.65101e-21)
(1.05302 0.108276 6.46665e-22)
(1.05161 0.112095 -7.41888e-21)
(1.05498 0.0301335 0)
(1.05499 0.0302083 6.53291e-22)
(1.0549 0.0301482 0)
(1.0551 0.0271006 1.41905e-22)
(1.05532 0.0272974 1.43629e-21)
(1.05494 0.0273665 5.81156e-23)
(1.03916 0.0190844 8.55994e-22)
(0.213695 0.00885268 -4.85972e-22)
(0.274872 0.0107796 -5.13845e-22)
(0.205992 0.0100376 -9.19628e-22)
(0.947045 0.0544621 3.70821e-21)
(0.94376 0.0532867 -1.43603e-20)
(0.947014 0.0509101 -2.91436e-21)
(0.965479 0.0553397 -8.10683e-21)
(0.964287 0.0529718 -7.67991e-21)
(0.967479 0.0528811 -6.99929e-21)
(0.992302 0.029645 3.13146e-21)
(0.993435 0.0298751 4.93212e-22)
(0.993066 0.0286842 9.89451e-21)
(1.05517 0.0444915 0)
(1.05539 0.0453382 -8.92306e-22)
(1.05612 0.0443953 0)
(1.05529 0.026814 2.38798e-21)
(1.05488 0.0268698 0)
(1.0002 0.00197082 6.31506e-22)
(1.00025 0.0019214 5.57328e-22)
(1.00019 0.00180272 -5.11529e-21)
(0.999922 -0.000271728 -3.09362e-21)
(0.999889 -0.000330777 0)
(0.999927 -0.00022826 0)
(0.7538 0.0126489 6.98652e-22)
(0.719401 0.00937063 -2.14492e-22)
(0.998917 0.00194332 -1.10986e-20)
(0.998778 0.00205988 3.38054e-22)
(0.998935 0.00217014 -6.71685e-21)
(0.943434 0.0197409 9.9065e-22)
(0.954122 0.0195605 -1.25962e-21)
(0.990381 0.000411849 3.28509e-21)
(0.98992 -0.000125686 2.52687e-21)
(0.989767 0.000610351 -1.40847e-20)
(0.775459 0.0160501 0)
(0.737516 0.014938 0)
(0.737273 0.0132432 1.10585e-21)
(0.784068 -0.030665 -5.1023e-21)
(0.774869 -0.0262433 -1.53577e-20)
(0.777122 -0.0375453 5.47683e-20)
(0.750945 0.0463952 0)
(0.74886 0.0580676 -1.66959e-20)
(0.740706 0.0483757 -5.88859e-21)
(0.696412 0.442008 -1.82335e-20)
(0.725962 0.450228 1.25348e-20)
(0.70659 0.482545 0)
(1.07895 0.0759447 9.6142e-21)
(1.0783 0.0736276 -2.3605e-21)
(1.08077 0.0737126 1.36363e-20)
(1.03756 0.0846092 7.51306e-22)
(1.03565 0.0861753 -2.41376e-22)
(1.03539 0.0834523 6.82593e-22)
(1.01107 0.0669953 1.03974e-21)
(1.00924 0.0669733 3.75085e-21)
(1.01039 0.0650973 -7.16354e-22)
(0.832561 0.00940674 -1.28907e-21)
(0.824752 0.0109665 -6.02614e-20)
(0.82699 0.0021947 -5.66698e-20)
(0.906112 -0.0447081 -2.46958e-20)
(0.909396 -0.0470589 -1.02385e-20)
(0.909963 -0.0429092 8.09409e-21)
(0.987713 -0.00474415 4.93723e-21)
(0.986932 -0.00461272 0)
(0.987578 -0.00389027 0)
(1.05284 0.0312385 -1.56082e-21)
(1.05227 0.0309839 -2.52942e-21)
(1.0491 0.0310496 3.59472e-22)
(0.998942 0.00173469 -1.73312e-21)
(0.999065 0.00185169 5.35544e-21)
(0.419135 0.0013211 -1.72705e-21)
(0.389892 0.00171801 -4.007e-22)
(0.401968 0.0019149 -6.11919e-22)
(1.04199 0.0202707 9.99682e-23)
(1.04258 0.0203609 -2.60022e-23)
(0.452971 0.0192638 0)
(0.422162 0.0192185 -1.59853e-21)
(0.455716 0.0194695 2.77947e-21)
(1.00477 0.000631372 -6.57202e-21)
(1.00505 0.000634799 1.34138e-21)
(1.00453 0.000351613 1.16605e-21)
(0.999977 -6.79349e-05 4.97975e-21)
(0.999989 -3.98806e-05 -1.40445e-21)
(0.999993 -2.43156e-05 5.50086e-21)
(1.01647 0.00546574 3.26935e-21)
(1.01602 0.00538968 -1.69185e-21)
(1.01623 0.00508349 -3.5048e-21)
(0.685575 0.112141 -4.52714e-20)
(0.700697 0.119994 4.99882e-20)
(0.684215 0.131865 -1.48493e-20)
(1.0158 0.0243518 0)
(1.01598 0.0250552 3.83793e-22)
(1.0165 0.024682 1.43167e-21)
(0.886464 -0.0325375 1.77774e-20)
(0.885994 -0.0372558 2.2974e-21)
(0.890915 -0.0350308 2.63517e-20)
(1.05505 0.0434114 -5.39166e-22)
(1.0542 0.0443016 0)
(1.05724 0.0357577 -2.45805e-21)
(1.05687 0.0362267 0)
(1.05662 0.0356351 0)
(0.0889834 -0.00339223 0)
(0.0887072 0.0359058 0)
(0.121568 0.0161903 -5.87615e-23)
(1.00157 0.000403608 -3.99605e-21)
(1.00173 0.000371169 4.45015e-22)
(1.00169 0.000566876 -4.22116e-21)
(1.03842 0.0349385 -2.68725e-23)
(1.03853 0.0354891 -3.4496e-23)
(1.03907 0.0350028 -1.22829e-22)
(0.962597 -0.0195169 -4.9497e-21)
(0.961751 -0.0212723 -2.67294e-21)
(0.960746 -0.0195024 2.41341e-21)
(0.0854787 -0.0365289 6.7355e-20)
(0.0484007 -0.0210301 0)
(0.902535 -0.0422519 -3.57755e-20)
(0.902132 -0.0469416 2.49406e-20)
(0.991541 0.0305427 9.93707e-21)
(0.991111 0.0292246 0)
(1.03341 0.0434676 -7.46495e-22)
(1.0327 0.0442105 -2.41133e-22)
(1.03379 0.0445836 -2.86862e-22)
(1.05498 0.0300693 1.36131e-21)
(1.055 0.0301205 0)
(0.983886 0.0108967 2.58933e-21)
(0.984469 0.00990131 2.23201e-21)
(0.985027 0.0110202 -1.33631e-22)
(1.02558 0.0432148 0)
(1.02629 0.0441483 -2.50704e-23)
(1.02504 0.0443375 1.62941e-21)
(1.01511 0.0240144 -3.4184e-21)
(1.01555 0.0236428 2.9891e-21)
(1.1682 0.0942675 2.85683e-20)
(1.06233 0.0820378 -1.92924e-20)
(1.10884 0.0838488 2.49796e-20)
(0.999985 0.0281427 -1.46463e-21)
(0.999437 0.0294049 -4.0153e-21)
(0.216233 0.00832665 -2.0833e-21)
(1.00014 0.00201795 4.80314e-21)
(1.00022 0.00215071 0)
(0.37963 -0.00801114 0)
(0.403828 -0.0360074 0)
(1.20246 0.342681 7.64157e-21)
(1.20145 0.323942 0)
(1.16748 0.320073 0)
(0.995652 -0.0116071 1.40858e-20)
(0.995151 -0.0119699 -5.10661e-21)
(0.987502 -0.0194979 -3.87089e-21)
(0.988354 -0.0190053 6.89017e-21)
(1.05867 0.0292703 -1.28903e-22)
(1.0583 0.0292186 -1.14345e-22)
(1.05855 0.0288452 -2.82376e-21)
(1.00385 0.0955551 -7.4313e-22)
(1.00729 0.0959869 -4.35829e-21)
(1.00444 0.099588 -5.15053e-21)
(0.99606 -0.00649019 -4.06456e-21)
(0.995615 -0.00643448 -2.59842e-21)
(0.932403 0.00234027 6.0755e-22)
(0.897022 0.00215246 -1.74404e-21)
(0.199341 -0.0106202 3.38651e-21)
(0.230307 -0.0132872 1.85175e-21)
(0.220258 -0.0133515 3.41621e-21)
(0.990901 0.00089636 -1.43192e-21)
(0.991005 0.000188299 2.80821e-21)
(0.0887484 0.0679638 0)
(0.122092 0.0882127 0)
(0.0896502 0.105464 0)
(1.05797 0.0259567 1.57846e-21)
(1.05785 0.0255706 2.18782e-21)
(1.05753 0.0258736 -2.82036e-21)
(0.197893 0.00130349 -1.84913e-21)
(0.225023 -0.00223153 2.15008e-22)
(0.208121 0.000290109 6.75074e-22)
(1.02269 0.0305351 -3.04149e-21)
(1.02308 0.0311286 9.36316e-22)
(1.02226 0.0312131 -1.57426e-21)
(0.720569 0.0167683 3.37553e-21)
(0.720315 0.0145825 -1.60222e-21)
(0.756114 0.0168624 3.29002e-21)
(0.999772 -0.000384841 -3.786e-22)
(0.999675 -0.00049215 -4.59602e-23)
(0.999698 -0.000379965 -6.39945e-21)
(0.999697 0.000265259 -3.0043e-21)
(0.999645 0.000353219 1.87308e-21)
(0.999731 0.000332779 -9.59103e-21)
(0.996018 -0.0107836 -3.09968e-21)
(0.388342 0.0185373 0)
(0.397597 0.0484022 0)
(0.419467 0.0264682 0)
(0.452261 0.000657898 1.0163e-21)
(0.440694 0.000329634 0)
(0.170844 0.0107618 0)
(0.0714557 0.00212033 -2.60569e-20)
(0.102656 0.00198886 0)
(1.02222 0.0298554 -2.68434e-21)
(1.0231 0.0298332 2.66392e-22)
(0.999669 0.00094645 0)
(0.999717 0.000995164 6.1687e-22)
(0.999725 0.000855386 -1.67247e-23)
(1.1919 0.356004 6.09614e-21)
(1.15282 0.325694 2.99613e-20)
(1.03821 0.034243 -1.17371e-22)
(1.03764 0.0347504 1.67222e-22)
(1.01686 0.00556755 7.07509e-21)
(1.01665 0.00587679 4.17505e-21)
(0.320314 -0.0101284 1.69717e-21)
(0.285555 -0.00914043 0)
(0.300817 -0.00906739 1.15767e-21)
(1.0735 0.0950052 -1.04387e-21)
(1.07027 0.0964512 4.25929e-21)
(1.07245 0.0988431 7.09527e-21)
(1.0072 0.0187483 3.64908e-22)
(1.00772 0.0184834 8.62629e-22)
(1.00713 0.0181147 -5.47585e-21)
(0.958229 0.0202011 1.56324e-21)
(0.956021 0.0206025 -5.68815e-21)
(0.957907 0.0223948 0)
(1.1472 0.344085 0)
(1.21566 0.375814 0)
(0.375633 -0.0957843 -2.28775e-20)
(0.405206 -0.100839 0)
(0.383152 -0.130537 -5.36954e-21)
(1.05575 0.030384 1.21554e-21)
(1.05589 0.0303678 5.68244e-21)
(1.05578 0.0302179 -7.88163e-22)
(1.05644 0.0377756 -5.29597e-23)
(1.05708 0.037937 0)
(1.05668 0.0384477 0)
(1.05824 0.0296618 -1.46757e-21)
(1.0584 0.029937 2.18663e-21)
(1.0586 0.0297028 2.2155e-21)
(0.591203 0.044921 4.56825e-20)
(0.610862 0.0325452 -4.75373e-20)
(0.61149 0.0572849 -5.47593e-20)
(1.00595 0.00433103 0)
(1.00626 0.00449984 0)
(1.00602 0.00471771 -1.00944e-20)
(0.839572 -0.0600392 0)
(0.84214 -0.0520832 2.54351e-20)
(0.847126 -0.0582581 0)
(0.67048 0.104757 -5.35667e-20)
(0.688042 0.0982418 -1.31001e-19)
(1.02794 0.030329 -7.20834e-22)
(1.02859 0.0306639 -1.83414e-21)
(1.02847 0.0297883 -2.54864e-21)
(1.00743 0.00998922 5.67177e-21)
(1.00763 0.00966588 7.7146e-21)
(1.0078 0.0101558 4.55178e-21)
(0.909563 0.00298881 0)
(0.903689 0.00112212 1.13746e-21)
(0.967151 0.00653777 -1.85817e-21)
(0.790814 0.382691 -1.2307e-20)
(0.765051 0.399019 0)
(0.800068 0.405594 1.59178e-20)
(1.05754 0.0354193 -1.92386e-21)
(1.05777 0.0359282 3.38106e-21)
(0.994617 0.0301346 -2.93059e-21)
(0.993965 0.0311868 3.81706e-22)
(1.03613 0.0921752 7.08037e-22)
(1.0339 0.0936304 -2.90481e-24)
(1.03646 0.0952097 6.57186e-22)
(0.10623 -0.0290922 2.06459e-20)
(0.0577504 -0.0285166 -6.5908e-21)
(0.0809666 -0.028667 2.30675e-20)
(0.47291 0.0189047 2.14614e-21)
(0.447881 0.0190857 -1.81689e-22)
(1.0562 0.0281356 1.57071e-21)
(1.0564 0.0280586 5.79271e-21)
(1.05637 0.0283356 3.02912e-21)
(0.906692 0.00315547 0)
(0.841791 -0.00293172 3.33101e-21)
(0.946043 -0.0272937 -1.45868e-20)
(0.94426 -0.0257147 1.82935e-22)
(0.944072 -0.0287535 -2.99328e-20)
(0.100521 -0.256939 8.33155e-20)
(0.112043 -0.227507 3.45337e-20)
(0.0739945 -0.232148 -1.94218e-19)
(0.996275 0.0038973 1.27669e-21)
(0.996007 0.00421892 -6.55973e-21)
(0.99586 0.00378882 -4.07206e-21)
(0.18149 -0.0208187 7.33542e-20)
(0.21172 -0.0366012 -1.15226e-19)
(0.212289 -0.00187675 -1.13147e-19)
(0.388666 0.0168433 1.03526e-21)
(0.396287 0.0146595 0)
(0.4118 0.0129298 1.33544e-21)
(0.903588 -0.0338103 3.77281e-20)
(0.90022 -0.0313028 -1.95411e-20)
(0.90465 -0.0296982 1.11518e-20)
(0.999947 -8.6397e-05 -1.53694e-21)
(0.999941 -0.000130486 -4.65556e-22)
(1.05899 0.0292777 0)
(1.05868 0.0295455 0)
(0.367366 0.0130065 0)
(0.389247 0.0115634 -6.06074e-22)
(0.382858 0.0114724 0)
(0.753673 0.0356931 0)
(0.764003 0.0447749 0)
(1.00252 0.00038725 -7.59814e-24)
(1.00264 0.000563637 2.80903e-21)
(1.00271 0.000339942 -2.72652e-21)
(0.958977 0.0180869 1.07432e-20)
(0.960522 0.0199229 7.39523e-21)
(1.01234 0.0245434 2.37445e-21)
(1.01243 0.0252824 0)
(1.01177 0.0249297 6.5211e-21)
(1.00233 0.000388147 0)
(1.00229 0.000193432 0)
(1.01371 0.00296755 0)
(1.01414 0.0028848 0)
(1.0138 0.00256049 0)
(0.347677 -0.0972808 -4.58443e-20)
(0.487514 0.00731092 -6.65448e-22)
(0.477198 0.0088247 -5.79727e-22)
(0.463047 0.0103313 7.14852e-22)
(0.94809 -0.0292107 -2.17066e-21)
(0.948536 -0.026183 7.73768e-21)
(1.01615 0.0256897 1.4913e-21)
(1.01542 0.0253861 1.79367e-21)
(0.999914 -0.00033004 1.44984e-22)
(0.999968 -0.000199133 -9.32767e-21)
(1.0907 0.0258781 -1.35075e-20)
(1.09038 0.0264246 -2.13634e-21)
(1.08845 0.0241817 6.65246e-21)
(0.974098 0.0211152 0)
(0.933048 0.0191629 0)
(1.02616 0.0943251 4.02038e-22)
(1.02367 0.0921796 0)
(0.574326 0.0543453 7.21966e-20)
(0.575484 0.0274244 6.76888e-20)
(0.994986 -0.0114875 -1.34962e-20)
(0.994599 -0.0124255 -2.53786e-20)
(0.902943 -0.0380682 -1.34787e-20)
(0.90696 -0.0359525 -8.85089e-21)
(1.05497 0.0307704 5.87352e-22)
(1.05502 0.0309561 2.01487e-21)
(1.05517 0.0307896 0)
(1.01299 0.013604 1.85672e-21)
(1.01269 0.0138924 1.93595e-21)
(1.01249 0.0133481 1.88203e-21)
(0.956618 -0.00935232 2.53629e-21)
(0.954219 -0.00937512 0)
(0.955674 -0.0115853 1.54071e-20)
(0.653871 0.106779 2.75266e-20)
(0.634227 0.111545 1.60879e-20)
(0.651293 0.128079 0)
(0.987093 -0.0187424 -8.6923e-21)
(0.986674 -0.0198394 -5.67522e-21)
(1.05677 0.0178806 1.22568e-21)
(1.02053 0.0145491 5.29976e-21)
(1.05787 0.0166029 3.04528e-21)
(0.78218 0.47747 -8.02345e-21)
(0.789738 0.450695 -3.65635e-20)
(0.757423 0.452697 -1.33565e-20)
(0.963472 -0.0174585 2.45071e-21)
(0.964602 -0.0192885 1.38228e-22)
(1.01307 0.0119475 9.51058e-22)
(1.01282 0.012254 -7.40232e-22)
(1.01262 0.011707 8.6629e-22)
(1.00662 0.070652 3.9276e-21)
(1.00429 0.0704533 -3.62535e-21)
(1.00528 0.0732062 4.23701e-21)
(1.05296 0.032356 -1.43757e-22)
(1.0533 0.0322991 1.67975e-21)
(1.05304 0.0326828 -9.53106e-23)
(0.125698 -0.276124 3.08201e-21)
(0.0862944 -0.290096 7.06071e-20)
(1.0547 0.0299949 1.40924e-21)
(1.05475 0.0300874 1.35874e-21)
(1.05479 0.0299648 1.18434e-21)
(0.972404 0.124731 2.38985e-21)
(0.975306 0.121329 -1.02291e-20)
(0.978096 0.124796 6.0189e-22)
(1.02524 0.0543795 -1.92387e-21)
(1.02384 0.055053 -6.2524e-22)
(1.02404 0.0533532 -3.6679e-21)
(0.20275 0.0655603 -1.07163e-20)
(0.15859 0.0683353 -2.11232e-20)
(0.0661936 0.0525267 9.24888e-21)
(1.00057 0.0954395 4.6244e-21)
(1.00297 0.0925379 5.23035e-21)
(1.04642 0.0267595 -1.58508e-21)
(1.04659 0.0262879 1.53818e-22)
(1.04706 0.0266727 -3.43406e-21)
(0.165901 0.00305673 3.1552e-21)
(0.189277 0.000933426 4.03673e-22)
(1.09444 0.0276528 -5.73645e-21)
(1.08919 0.0248165 7.16485e-21)
(0.930541 0.00397407 6.96287e-21)
(0.927454 0.00472596 1.66966e-20)
(0.928137 0.00137512 -9.21251e-21)
(0.790364 -0.093472 -1.70073e-20)
(0.784047 -0.0855016 7.54527e-20)
(0.778991 -0.0972129 3.02422e-20)
(0.999786 4.93517e-05 -6.97056e-21)
(0.99981 0.000111372 0)
(0.999859 6.02076e-05 -5.57992e-21)
(1.05557 0.030344 0)
(1.05566 0.0305142 0)
(1.05596 0.0282838 -2.32868e-21)
(1.05598 0.0279748 -5.27386e-21)
(1.0581 0.0294378 -6.33502e-22)
(1.05792 0.0296739 -3.45954e-21)
(1.02745 0.0308502 3.52375e-21)
(1.0273 0.0299841 2.47262e-21)
(1.05432 0.0349106 2.04335e-21)
(1.05415 0.0345081 -2.27278e-21)
(1.05467 0.0345652 2.97583e-21)
(1.01386 0.0202677 -4.78347e-21)
(1.01404 0.0208744 2.14375e-21)
(1.01336 0.0205942 -9.91273e-21)
(0.8372 -0.0667213 0)
(0.831757 -0.0602747 -4.49339e-21)
(0.991149 0.12199 -7.64213e-21)
(0.986267 0.121203 9.16646e-21)
(0.990301 0.117308 -5.1999e-21)
(-0.118734 -0.0182056 -1.89773e-20)
(-0.13815 -0.0159384 -1.55526e-20)
(-0.0992759 -0.0186424 1.07778e-21)
(1.05712 0.0279326 -1.82309e-21)
(1.05719 0.0282168 1.55502e-22)
(1.05688 0.0281376 -3.55043e-22)
(0.988711 0.0344467 4.33349e-21)
(0.988087 0.0356014 -5.88798e-21)
(0.987189 0.0343219 -1.46554e-21)
(1.07405 0.0217542 2.24292e-21)
(1.07444 0.02172 9.89891e-24)
(1.07723 0.0225189 4.63904e-21)
(0.96488 0.137634 7.67842e-21)
(0.96207 0.141157 9.59909e-21)
(0.96806 0.141585 -6.5054e-23)
(0.497057 0.0078808 0)
(0.516963 0.00747695 -8.11565e-22)
(0.15067 -0.0391789 8.17602e-20)
(0.151935 -0.00268026 1.27887e-19)
(1.05964 0.0186115 1.41488e-21)
(1.0753 0.0190334 -4.72851e-21)
(0.99908 0.0160266 3.1683e-22)
(0.999234 0.0166211 -7.64391e-21)
(0.998578 0.0163791 -7.45055e-21)
(1.0764 0.0940295 1.53919e-21)
(1.07425 0.0917899 -2.778e-21)
(1.0403 0.0857911 -2.96195e-22)
(1.03975 0.0830794 0)
(1.01349 0.0138472 -1.96575e-21)
(1.01325 0.0132956 -5.69082e-21)
(0.999614 0.00090691 5.68136e-21)
(0.999594 0.00106692 -4.36567e-21)
(0.912144 0.0649745 -9.53572e-21)
(0.909446 0.060957 -3.10668e-20)
(0.91492 0.0615915 8.43559e-21)
(0.818373 0.0177714 0)
(0.817522 0.0172139 0)
(1.11642 0.0933496 6.8447e-22)
(1.1195 0.0912823 -7.11232e-21)
(1.12103 0.0952285 -7.06748e-21)
(0.249931 0.0702867 3.45293e-21)
(0.415213 0.110003 -1.07147e-20)
(1.045 0.0498349 0)
(1.04456 0.0508269 0)
(1.04573 0.0506344 3.29779e-23)
(1.05643 0.0298069 0)
(1.05657 0.0298095 -2.47488e-21)
(1.05649 0.0299752 1.38884e-21)
(1.05563 0.0293492 3.40359e-21)
(1.05545 0.0294008 3.65663e-22)
(1.0555 0.0291751 2.18981e-21)
(0.290884 0.0196444 -2.19136e-20)
(0.253407 0.0180864 0)
(1.11974 0.12143 6.0287e-22)
(1.11905 0.117034 4.83521e-21)
(1.12349 0.118557 9.03694e-22)
(0.997737 0.000735002 -5.15747e-21)
(0.998007 0.00074695 -9.87957e-22)
(0.997853 0.000454456 -8.49459e-21)
(0.566587 -0.0331961 0)
(0.570833 -0.0133296 0)
(0.546897 -0.0210196 0)
(0.79273 -0.0328951 -5.5902e-21)
(0.790787 -0.0221163 4.2473e-21)
(1.00596 0.000317986 1.05922e-21)
(1.00567 0.000308212 0)
(1.00664 0.0189863 3.36427e-22)
(1.0073 0.0194405 2.56205e-21)
(0.833774 0.352632 2.06918e-20)
(0.82926 0.328988 -4.27472e-20)
(0.85279 0.336271 -7.32525e-21)
(1.10898 0.348471 0)
(1.11303 0.336598 0)
(1.16981 0.370424 -3.72978e-20)
(1.04048 0.0273335 0)
(1.04106 0.0274033 2.47166e-23)
(1.04072 0.0278868 3.09469e-24)
(1.00147 0.000476523 0)
(1.00147 0.000299948 -3.33743e-21)
(1.0533 0.033771 0)
(1.05287 0.0339447 0)
(1.05338 0.0342562 0)
(1.05295 0.0319677 0)
(1.05258 0.0323004 2.19031e-21)
(0.179814 -0.0085698 -2.60569e-21)
(0.170844 -0.00882141 -1.87338e-21)
(1.07382 0.0221097 -6.83188e-21)
(1.07312 0.0222934 -4.07021e-21)
(1.07456 0.0231914 3.90936e-21)
(0.98838 -0.00470056 4.74544e-23)
(0.98797 -0.00533276 4.57352e-21)
(0.982807 0.0105303 3.31942e-22)
(0.983298 0.0116459 -2.23288e-22)
(1.05587 0.0376326 2.88963e-21)
(1.05621 0.0371666 -5.46057e-23)
(0.819567 0.0146372 8.52429e-22)
(0.870874 0.0187472 0)
(0.859077 0.017939 -1.7245e-21)
(0.958638 -0.0094467 5.69352e-21)
(0.957666 -0.00761749 8.69916e-21)
(0.751114 0.0113561 4.04655e-22)
(0.744415 0.0103185 1.60969e-21)
(0.796444 0.0135954 0)
(0.116019 -0.00420886 2.27008e-22)
(0.144255 -0.00606424 1.37431e-22)
(0.124773 -0.00343738 1.81854e-21)
(1.0563 0.0296747 9.86515e-24)
(1.05623 0.0298853 1.99988e-21)
(1.00712 0.00975526 -3.87893e-21)
(1.0072 0.0102352 4.1465e-21)
(0.482785 0.283084 0)
(0.501386 0.316765 0)
(0.449392 0.315835 8.58046e-20)
(1.05403 0.0371055 -2.66676e-21)
(1.05466 0.0372855 -5.66762e-21)
(1.05416 0.0377204 -2.60605e-21)
(-0.0401583 -0.01645 -1.03486e-20)
(-0.00478553 -0.0198423 3.12349e-22)
(-0.0225888 -0.0158313 -6.53558e-21)
(0.995708 0.00717695 -3.72029e-21)
(0.995845 0.00764282 -3.27957e-21)
(0.995413 0.00756039 7.14911e-21)
(1.21963 0.110688 1.15881e-20)
(1.21028 0.113595 0)
(0.998907 0.0152743 9.7454e-21)
(0.99958 0.0155818 4.48919e-21)
(1.07513 0.0637953 5.36171e-21)
(1.07331 0.0629251 -4.09046e-21)
(1.07354 0.0648601 7.04204e-21)
(1.00465 0.000828886 3.01155e-22)
(1.00452 0.000562108 -7.84205e-21)
(0.408755 -0.00164037 6.20492e-22)
(0.379324 -0.00283953 0)
(0.399243 -0.00173904 0)
(0.898026 -0.0001886 1.07754e-21)
(0.892093 -0.0012149 0)
(0.955306 0.00425896 4.54559e-21)
(0.964287 0.0575433 1.13768e-20)
(0.967371 0.0574791 -1.4572e-22)
(1.08988 0.357244 1.28517e-20)
(1.09791 0.349125 4.88632e-21)
(1.09779 0.341609 1.75581e-20)
(1.02655 0.0552107 -6.31085e-22)
(1.02638 0.0535946 0)
(1.00668 0.00945915 -3.75172e-21)
(1.00695 0.00916194 -1.0045e-20)
(1.05457 0.0312633 -9.13553e-23)
(1.05276 0.0314431 1.85691e-22)
(1.05734 0.027733 0)
(1.05705 0.0276408 0)
(1.04433 0.049039 0)
(1.04537 0.048885 -1.69839e-22)
(0.950819 0.0209894 3.55608e-22)
(0.912453 0.0175006 -1.86298e-21)
(0.964669 0.0232779 -4.71402e-22)
(0.105251 -0.00322164 -1.24239e-21)
(0.0859095 0.000434726 1.03899e-21)
(1.00736 0.00265069 4.18637e-21)
(1.00768 0.00275629 5.04828e-22)
(1.00757 0.00237203 1.96166e-22)
(1.01299 0.0668335 -4.67491e-21)
(1.01194 0.0690019 -2.27911e-21)
(0.345693 -0.0118032 2.38852e-22)
(0.360419 -0.0112688 3.77825e-21)
(0.0216673 0.0148649 5.15936e-21)
(-0.0310089 0.00916593 -4.0671e-20)
(0.0129329 0.0127368 -2.87692e-20)
(0.99977 -2.07921e-05 -1.74787e-22)
(0.999712 3.53876e-05 -6.49929e-21)
(1.00177 0.00487267 -2.21516e-21)
(1.00195 0.00511916 0)
(1.00173 0.00512335 0)
(0.482757 0.0230926 4.47889e-23)
(0.500819 0.0216737 -6.09364e-22)
(1.05633 0.030089 -1.75955e-21)
(1.05613 0.0301049 5.00551e-23)
(1.0562 0.0298792 0)
(1.00002 5.52447e-05 -4.0271e-21)
(1.00001 4.19997e-05 -2.73009e-21)
(1.00002 6.90944e-05 4.48539e-22)
(1.05613 0.0316933 9.54646e-22)
(1.05632 0.0318155 -2.34695e-21)
(1.05589 0.031538 -2.54047e-21)
(1.0668 0.0423045 3.32237e-21)
(1.06622 0.0413334 3.38951e-21)
(1.06549 0.0424239 2.95919e-21)
(0.799655 -0.0923938 -2.08412e-21)
(0.795758 -0.102824 -5.35481e-20)
(1.02585 0.0807175 -4.45121e-22)
(1.02734 0.0830843 -1.83976e-22)
(1.02815 0.0801291 -6.03173e-23)
(0.999753 0.000185244 0)
(0.99983 0.000175848 6.94069e-21)
(0.937386 0.144442 -6.53902e-21)
(0.939301 0.136999 0)
(0.931261 0.139631 -1.47853e-20)
(0.151928 -0.00331952 -4.38259e-21)
(0.154563 -0.00224228 0)
(0.122687 -0.000479853 -4.36679e-21)
(1.02661 0.0165575 1.39761e-21)
(1.02707 0.0164855 6.11072e-22)
(1.02708 0.0169557 -1.73819e-22)
(1.08664 0.102198 0)
(1.08373 0.104526 -7.79698e-21)
(1.08344 0.0999074 0)
(0.563553 0.0705912 3.21695e-20)
(0.57724 0.0910647 3.34105e-20)
(0.548378 0.0940702 3.25059e-20)
(1.01227 0.0238087 -3.25464e-22)
(1.01291 0.0241117 3.26511e-21)
(0.985044 0.00904054 2.48406e-21)
(0.984033 0.0088263 0)
(1.05403 0.0296792 1.83873e-21)
(1.05423 0.0298133 -2.91444e-21)
(1.05423 0.0295718 3.32205e-21)
(0.519555 0.0189746 -1.63543e-21)
(0.503412 0.0194601 1.68008e-21)
(0.503318 0.0192893 -2.36988e-21)
(1.05465 0.0298619 1.79384e-21)
(1.05459 0.0300331 -3.48223e-21)
(0.914025 0.0691326 -1.58601e-20)
(0.909168 0.0690136 -1.09554e-20)
(0.95023 0.0552029 6.16672e-21)
(0.947362 0.0576405 -4.17291e-21)
(1.00002 0.000116999 5.9069e-22)
(1.00002 0.000102369 -4.75819e-21)
(1.00001 6.86179e-05 -9.93671e-21)
(0.34422 0.0141892 -6.77008e-22)
(0.351186 0.0139846 -3.14102e-22)
(1.0846 0.0105066 0)
(1.112 0.0143907 0)
(1.11429 0.0138179 -5.46144e-21)
(1.05739 0.0326764 0)
(1.05662 0.032593 2.22237e-22)
(1.05532 0.0327265 2.12045e-21)
(1.00633 0.00925279 -2.79983e-21)
(1.00647 0.00975675 4.82893e-21)
(0.125364 -0.0134483 2.76849e-21)
(0.15936 -0.0165083 -7.49289e-21)
(0.144113 -0.0158487 -2.06528e-21)
(0.283502 0.00747689 0)
(0.28694 0.00862652 0)
(0.256145 0.00907986 0)
(1.04901 0.0264089 1.17608e-21)
(1.04761 0.0266656 0)
(0.715455 0.0152536 2.16344e-21)
(0.688266 0.0125282 1.8807e-21)
(1.05802 0.0263479 -3.82192e-22)
(1.05836 0.0260679 1.07865e-21)
(0.999659 0.000191196 0)
(1.00335 0.000465627 -1.843e-23)
(1.00313 0.000493658 0)
(1.00336 0.000731292 5.94808e-21)
(1.05498 0.0427078 -1.77937e-21)
(1.05421 0.042491 -4.25872e-21)
(1.05486 0.0419154 -2.76265e-21)
(0.339137 -0.00158816 -7.40251e-23)
(0.316563 -7.98852e-05 -2.74348e-21)
(0.312167 -0.000772693 1.45977e-21)
(1.06118 0.0328837 8.32941e-22)
(1.0617 0.0331711 -7.06113e-22)
(1.06161 0.0324204 4.3609e-22)
(1.02484 0.0423314 0)
(1.02602 0.0421838 1.88466e-21)
(1.07422 0.0218016 -4.72376e-21)
(1.07068 0.0203728 2.99542e-21)
(1.05266 0.0228962 -1.87734e-21)
(1.05235 0.0226118 -3.23395e-22)
(1.01406 0.00178253 -6.51271e-21)
(1.0139 0.00214935 -3.09785e-21)
(1.01433 0.00207517 1.4076e-21)
(1.14324 0.0393872 1.10423e-20)
(1.14087 0.0371054 -1.29709e-20)
(1.1599 0.0382282 4.27666e-20)
(1.00045 0.00209788 5.59652e-21)
(1.00049 0.00203193 -6.03287e-22)
(1.00041 0.00193164 3.36428e-22)
(1.07353 0.0220139 0)
(1.04982 0.0205311 0)
(1.03983 0.0272881 2.2358e-23)
(1.04017 0.0268209 0)
(1.00003 4.29266e-05 4.12173e-21)
(1.00004 6.81989e-05 -1.59878e-21)
(0.966272 0.0688385 -2.20281e-20)
(0.964624 0.0720984 -1.7999e-20)
(0.963251 0.0684691 5.69016e-21)
(0.970474 0.129017 -1.09136e-20)
(0.967538 0.124676 -6.88523e-22)
(0.77778 -0.0762181 1.75982e-20)
(0.78819 -0.0744049 6.86362e-20)
(1.05532 0.0317249 2.68062e-21)
(1.05594 0.0315708 2.17213e-21)
(0.958788 0.0938769 9.59266e-21)
(0.958191 0.0985469 8.35239e-21)
(0.954058 0.0948717 -5.15936e-21)
(1.02494 0.0198746 -5.53487e-21)
(1.02487 0.0204488 7.50248e-22)
(1.02442 0.0199213 -4.73701e-22)
(1.09367 0.0346377 7.04669e-21)
(1.09558 0.0358414 -3.17746e-21)
(1.09684 0.0339155 -1.50368e-20)
(0.979466 0.0237142 1.77805e-21)
(0.934716 0.0189961 4.97725e-22)
(1.03837 0.00218824 0)
(1.04599 0.00432024 0)
(0.995489 0.00677462 8.62372e-21)
(0.99599 0.0068623 -2.02182e-22)
(1.0522 0.0254246 -2.23095e-21)
(1.04824 0.0253408 -1.83682e-21)
(1.05381 0.0251168 -3.03078e-21)
(0.998355 -0.00641137 0)
(0.998226 -0.00625616 6.45994e-21)
(0.998108 -0.0069557 0)
(1.02514 0.0193885 2.09371e-21)
(1.02554 0.0198781 -4.11351e-23)
(0.99653 0.00354674 8.58543e-21)
(0.996695 0.00393916 8.9291e-21)
(0.809894 0.502528 1.82153e-20)
(0.767124 0.510981 1.677e-20)
(1.0007 0.000449329 4.46854e-21)
(1.00077 0.000395786 -2.66723e-21)
(1.00066 0.000350274 2.74527e-21)
(1.07687 0.0645411 3.14336e-21)
(1.0766 0.062649 8.43387e-21)
(1.02354 0.0817917 -2.86394e-21)
(1.02422 0.0789052 -2.47914e-23)
(1.01368 0.0195736 2.35356e-23)
(1.01434 0.0198588 -3.229e-21)
(1.05365 0.0335983 -1.71922e-21)
(1.05316 0.0334757 2.46853e-21)
(1.00364 0.0422862 -2.87596e-21)
(1.00476 0.041425 3.10429e-23)
(1.00505 0.0429402 -1.30233e-22)
(0.120166 -0.0638607 -4.0434e-20)
(0.105776 -0.0861291 6.37265e-20)
(0.107114 -0.0539575 5.77853e-20)
(0.968157 0.133896 -1.83817e-21)
(0.962555 0.133681 -5.21715e-21)
(1.06825 0.0932287 -3.43733e-21)
(1.06685 0.0967951 9.02137e-22)
(1.01547 0.0161822 1.47031e-21)
(1.01563 0.0167533 -4.00727e-22)
(1.01605 0.0163491 -1.08117e-21)
(0.986031 0.00921766 -8.52449e-23)
(0.985595 0.00827252 -7.52246e-23)
(0.0684532 -0.0278225 2.90424e-20)
(0.0355386 -0.0267345 3.38008e-23)
(0.0247694 -0.0276389 0)
(0.354553 0.0115858 1.30504e-21)
(0.346576 0.0124665 -2.84407e-22)
(0.372059 0.0100911 4.25963e-23)
(0.995718 0.00451938 0)
(0.99612 0.004601 4.38903e-21)
(1.00379 0.000448781 1.27876e-21)
(1.00406 0.000611098 3.30426e-21)
(1.00379 0.00078356 1.61216e-21)
(1.14777 0.041598 -1.31802e-20)
(1.12906 0.0411998 -1.38086e-20)
(1.00182 0.016386 2.76477e-22)
(1.00159 0.0170076 -5.60335e-21)
(1.0023 0.0170379 -1.42063e-20)
(0.265463 -0.0150438 -1.43892e-22)
(0.24172 -0.013215 -1.64103e-21)
(1.01525 0.0156899 4.01644e-21)
(1.01486 0.0160481 2.23366e-21)
(0.417163 -0.00169039 6.06116e-22)
(0.43813 -0.000720657 -1.46001e-21)
(1.03333 0.0171349 7.01841e-22)
(1.03349 0.0167643 6.48089e-22)
(1.03382 0.0172206 2.50456e-23)
(1.10969 0.225236 8.35535e-21)
(1.10067 0.225108 -3.20751e-21)
(1.10511 0.234639 2.67746e-20)
(1.04594 0.0349555 -6.94221e-22)
(1.04553 0.0354112 1.10778e-21)
(1.04624 0.0355748 -2.77146e-22)
(0.0885784 0.179485 2.94463e-20)
(0.0901022 0.140184 -8.57221e-21)
(0.123107 0.160183 -1.31608e-19)
(0.933247 0.00577617 1.03346e-20)
(0.933599 0.00269231 0)
(1.09738 0.0298356 1.14994e-20)
(1.0971 0.0289856 -1.49265e-21)
(0.508529 0.195208 -6.65739e-20)
(0.481512 0.203893 -1.70118e-20)
(0.508186 0.227118 0)
(0.969283 0.0697641 -9.39815e-21)
(0.968241 0.0667667 4.06122e-21)
(1.05648 0.0302347 -1.29819e-21)
(1.05654 0.0299776 6.56119e-22)
(0.907445 0.390938 6.92639e-21)
(0.922109 0.405471 9.49001e-21)
(0.896859 0.411296 4.22764e-21)
(0.980098 0.021054 -4.17006e-21)
(0.979021 0.0201537 -2.79735e-21)
(0.978727 0.02166 -7.54813e-21)
(0.454577 0.00531895 -2.38851e-21)
(0.426845 0.00619388 -1.78354e-21)
(0.436045 0.00602169 -1.73252e-21)
(0.581858 -0.043302 0)
(0.561584 -0.053738 0)
(0.303792 0.00729762 -7.40418e-22)
(0.283063 0.00796935 -5.27493e-22)
(0.918056 -0.0247079 9.7365e-21)
(0.914356 -0.0243364 1.52273e-22)
(0.916574 -0.0210187 0)
(0.417275 0.016518 3.14101e-22)
(0.386111 0.0166332 -8.86283e-22)
(0.418918 0.0167672 4.02082e-22)
(1.01495 0.0667697 -1.69414e-21)
(1.01585 0.0690356 0)
(1.01698 0.0670736 0)
(0.168238 -0.0202772 -1.90907e-20)
(0.232504 -0.019197 -2.07563e-20)
(0.259954 -0.0197587 3.1748e-20)
(0.515943 0.166009 -3.26648e-20)
(0.539643 0.189328 -1.82199e-20)
(0.887428 0.256894 2.08155e-20)
(0.873211 0.255004 4.73566e-20)
(0.880878 0.269897 -1.9432e-20)
(0.902787 0.261478 -6.74562e-21)
(0.896053 0.245992 -5.52423e-21)
(0.807477 0.0112085 2.92811e-21)
(0.782137 0.00883397 9.22997e-22)
(0.999514 -0.000885631 0)
(0.999364 -0.00105118 0)
(0.999409 -0.000875167 2.02125e-22)
(0.996037 0.121627 -7.39649e-21)
(0.993441 0.126336 4.80133e-22)
(0.165838 -0.0309943 8.88485e-21)
(0.140401 -0.0310593 -9.59001e-21)
(0.973467 0.00526892 -5.0103e-21)
(0.972198 0.00562344 -1.24305e-20)
(0.972417 0.00409767 -4.25224e-21)
(0.975154 0.0440985 2.87275e-21)
(0.976456 0.0426122 -1.29245e-20)
(0.974196 0.0422249 -1.2372e-20)
(0.300919 0.0085973 7.84346e-22)
(0.307583 0.0087678 0)
(0.813174 0.369508 3.80176e-21)
(0.841853 0.375552 2.31272e-20)
(0.992487 0.0333023 -5.78053e-21)
(0.991779 0.0343064 0)
(0.993311 0.0346226 -8.62299e-21)
(1.05529 0.0292881 0)
(1.0552 0.0294584 0)
(0.663247 0.438602 5.88759e-21)
(0.687707 0.412147 -3.11696e-20)
(1.00468 0.00354354 7.2263e-21)
(1.00493 0.00378397 -1.92113e-21)
(1.00497 0.00346324 3.87807e-21)
(0.381536 0.0158286 -7.92875e-22)
(0.355125 0.0169969 1.66171e-21)
(1.05456 0.0303175 3.55948e-21)
(1.05259 0.0302664 2.10049e-21)
(1.05512 0.0305667 -4.07188e-22)
(1.0004 0.00215819 -5.91568e-21)
(1.00048 0.00227654 -1.06625e-20)
(1.00281 0.0080986 -1.71027e-21)
(1.00262 0.00774941 -3.93514e-21)
(1.00251 0.00811266 6.44996e-22)
(0.998408 -0.00674632 0)
(0.998638 -0.00595206 0)
(1.01353 0.0122391 -1.93273e-21)
(1.0133 0.0117102 7.48257e-21)
(1.09157 0.0356007 7.73795e-21)
(1.09183 0.0336387 1.02218e-20)
(1.06583 0.0196803 -1.57429e-22)
(1.06855 0.0202536 5.29369e-23)
(1.07758 0.0202431 4.74271e-22)
(0.403426 -0.35782 2.57306e-21)
(0.411298 -0.390403 -9.9108e-20)
(0.370938 -0.384617 1.08113e-19)
(0.106363 -0.0298824 1.39512e-20)
(0.120315 -0.0310883 1.23302e-20)