/*--------------------------------*- C++ -*----------------------------------*\
| =========                 |                                                 |
| \\      /  F ield         | OpenFOAM: The Open Source CFD Toolbox           |
|  \\    /   O peration     | Version:  v2012                                 |
|   \\  /    A nd           | Website:  www.openfoam.com                      |
|    \\/     M anipulation  |                                                 |
\*---------------------------------------------------------------------------*/
FoamFile
{
    version     2.0;
    format      ascii;
    class       pointVectorField;
    location    "850";
    object      pointDisplacement;
}
// * * * * * * * * * * * * * * * * * * * * * * * * * * * * * * * * * * * * * //

dimensions      [0 1 0 0 0 0 0];


internalField   nonuniform List<vector> 
14246
(
(0 0 0)
(0.0316776 -0.208814 0)
(0 0 0)
(0.0316776 -0.208814 0)
(0 0 0)
(0 0 0)
(0 0 0)
(0 0 0)
(0 0 0)
(0 0 0)
(0 0 0)
(0 0 0)
(0 0 0)
(0 0 0)
(0 0 0)
(0 0 0)
(0 0 0)
(0 0 0)
(0 0 0)
(0 0 0)
(0 0 0)
(0 0 0)
(0 0 0)
(0 0 0)
(0 0 0)
(0 0 0)
(0 0 0)
(0 0 0)
(0 0 0)
(0 0 0)
(0 0 0)
(0 0 0)
(0 0 0)
(0 0 0)
(0 0 0)
(0 0 0)
(0 0 0)
(0 0 0)
(0 0 0)
(0 0 0)
(0 0 0)
(0 0 0)
(0 0 0)
(0 0 0)
(0 0 0)
(0 0 0)
(0 0 0)
(0 0 0)
(0 0 0)
(0 0 0)
(0 0 0)
(0 0 0)
(0 0 0)
(0 0 0)
(0 0 0)
(0 0 0)
(0 0 0)
(0 0 0)
(0 0 0)
(0 0 0)
(0 0 0)
(0 0 0)
(0 0 0)
(0 0 0)
(0 0 0)
(0 0 0)
(0 0 0)
(0 0 0)
(0 0 0)
(0 0 0)
(0 0 0)
(0 0 0)
(0 0 0)
(0 0 0)
(0 0 0)
(0.0316089 -0.206195 0)
(0.0315403 -0.203576 0)
(0.0314717 -0.200958 0)
(0.0314031 -0.198339 0)
(0.0313344 -0.19572 0)
(0.0312658 -0.193101 0)
(0.0311972 -0.190483 0)
(0.0311286 -0.187864 0)
(0.0310599 -0.185245 0)
(0.0309913 -0.182626 0)
(0.0309227 -0.180008 0)
(0.0308541 -0.177389 0)
(0.0307854 -0.17477 0)
(0.0307168 -0.172151 0)
(0.0306482 -0.169533 0)
(0.0305796 -0.166914 0)
(0.0305109 -0.164295 0)
(0.0304423 -0.161676 0)
(0.0303737 -0.159058 0)
(0.0303051 -0.156439 0)
(0.0302364 -0.15382 0)
(0.0301678 -0.151201 0)
(0.0300992 -0.148583 0)
(0.0300305 -0.145964 0)
(0.0299619 -0.143345 0)
(0.0298933 -0.140726 0)
(0.0298247 -0.138108 0)
(0.029756 -0.135489 0)
(0.0296874 -0.13287 0)
(0.0296188 -0.130251 0)
(0.0295502 -0.127633 0)
(0.0294815 -0.125014 0)
(0.0294129 -0.122395 0)
(0.0293443 -0.119776 0)
(0.0292757 -0.117158 0)
(0.029207 -0.114539 0)
(0.0291384 -0.11192 0)
(0.0290698 -0.109301 0)
(0.0290012 -0.106683 0)
(0.0289325 -0.104064 0)
(0.0288639 -0.101445 0)
(0.0287953 -0.0988263 0)
(0.0287267 -0.0962075 0)
(0.028658 -0.0935888 0)
(0.0285894 -0.09097 0)
(0.0285208 -0.0883513 0)
(0.0284522 -0.0857325 0)
(0.0283835 -0.0831138 0)
(0.0283149 -0.080495 0)
(0.0282463 -0.0778763 0)
(0.0281777 -0.0752575 0)
(0.028109 -0.0726388 0)
(0.0280404 -0.07002 0)
(0.0279718 -0.0674013 0)
(0.0279032 -0.0647825 0)
(0.0278345 -0.0621638 0)
(0.0277659 -0.059545 0)
(0.0276973 -0.0569263 0)
(0.0276287 -0.0543075 0)
(0.02756 -0.0516888 0)
(0.0274914 -0.04907 0)
(0.0274228 -0.0464513 0)
(0.0273541 -0.0438325 0)
(0.0272855 -0.0412138 0)
(0.0272169 -0.038595 0)
(0.0271483 -0.0359763 0)
(0.0270796 -0.0333575 0)
(0.027011 -0.0307388 0)
(0.0269424 -0.02812 0)
(0.0268738 -0.0255013 0)
(0.0268051 -0.0228825 0)
(0.0267365 -0.0202638 0)
(0.0266679 -0.017645 0)
(0.0265993 -0.0150263 0)
(0.0265306 -0.0124075 0)
(0.026462 -0.00978875 0)
(0.0263934 -0.00717 0)
(0.0263248 -0.00455125 0)
(0.0262561 -0.00193249 0)
(0.0261875 0.000686257 0)
(0.0261189 0.00330501 0)
(0.0260503 0.00592376 0)
(0.0259816 0.00854251 0)
(0.025913 0.0111613 0)
(0.0258444 0.01378 0)
(0.0257758 0.0163988 0)
(0.0257071 0.0190175 0)
(0.0256385 0.0216363 0)
(0.0255699 0.024255 0)
(0.0255013 0.0268738 0)
(0.0254326 0.0294925 0)
(0.025364 0.0321113 0)
(0.0252954 0.03473 0)
(0.0252268 0.0373488 0)
(0.0251581 0.0399675 0)
(0.0250895 0.0425863 0)
(0.0250209 0.045205 0)
(0.0249522 0.0478238 0)
(0.0248836 0.0504425 0)
(0.024815 0.0530613 0)
(0.0247464 0.05568 0)
(0.0246777 0.0582988 0)
(0.0246091 0.0609175 0)
(0.0245405 0.0635363 0)
(0.0244719 0.066155 0)
(0.0244032 0.0687738 0)
(0.0243346 0.0713925 0)
(0.024266 0.0740113 0)
(0.0241974 0.07663 0)
(0.0241287 0.0792488 0)
(0.0240601 0.0818675 0)
(0.0239915 0.0844863 0)
(0.0239229 0.087105 0)
(0.0238542 0.0897238 0)
(0.0237856 0.0923425 0)
(0.023717 0.0949613 0)
(0.0236484 0.09758 0)
(0.0235797 0.100199 0)
(0.0235111 0.102818 0)
(0.0234425 0.105436 0)
(0.0233739 0.108055 0)
(0.0233052 0.110674 0)
(0.0232366 0.113293 0)
(0.023168 0.115911 0)
(0.0230994 0.11853 0)
(0.0230307 0.121149 0)
(0.0229621 0.123768 0)
(0.0228935 0.126386 0)
(0.0228249 0.129005 0)
(0.0227562 0.131624 0)
(0.0226876 0.134243 0)
(0.022619 0.136861 0)
(0.0225504 0.13948 0)
(0.0264401 -0.208951 0)
(0.0290588 -0.208882 0)
(0 0 0)
(0 0 0)
(0 0 0)
(0 0 0)
(0 0 0)
(0 0 0)
(0 0 0)
(0 0 0)
(0 0 0)
(0 0 0)
(0 0 0)
(0 0 0)
(0 0 0)
(0 0 0)
(0 0 0)
(0 0 0)
(0 0 0)
(0 0 0)
(0 0 0)
(0 0 0)
(0 0 0)
(0 0 0)
(0 0 0)
(0 0 0)
(0 0 0)
(0 0 0)
(0 0 0)
(0 0 0)
(0 0 0)
(0 0 0)
(0 0 0)
(0 0 0)
(0 0 0)
(0 0 0)
(0 0 0)
(0 0 0)
(0 0 0)
(0 0 0)
(0 0 0)
(0 0 0)
(0 0 0)
(0 0 0)
(0 0 0)
(0 0 0)
(0 0 0)
(0 0 0)
(0 0 0)
(0 0 0)
(0 0 0)
(0 0 0)
(0 0 0)
(0 0 0)
(0 0 0)
(0 0 0)
(0 0 0)
(0 0 0)
(0 0 0)
(0 0 0)
(0 0 0)
(0 0 0)
(0 0 0)
(0 0 0)
(0 0 0)
(0 0 0)
(0 0 0)
(0 0 0)
(0 0 0)
(0 0 0)
(0 0 0)
(0 0 0)
(0 0 0)
(0.0316089 -0.206195 0)
(0.0315403 -0.203576 0)
(0.0314717 -0.200958 0)
(0.0314031 -0.198339 0)
(0.0313344 -0.19572 0)
(0.0312658 -0.193101 0)
(0.0311972 -0.190483 0)
(0.0311286 -0.187864 0)
(0.0310599 -0.185245 0)
(0.0309913 -0.182626 0)
(0.0309227 -0.180008 0)
(0.0308541 -0.177389 0)
(0.0307854 -0.17477 0)
(0.0307168 -0.172151 0)
(0.0306482 -0.169533 0)
(0.0305796 -0.166914 0)
(0.0305109 -0.164295 0)
(0.0304423 -0.161676 0)
(0.0303737 -0.159058 0)
(0.0303051 -0.156439 0)
(0.0302364 -0.15382 0)
(0.0301678 -0.151201 0)
(0.0300992 -0.148583 0)
(0.0300305 -0.145964 0)
(0.0299619 -0.143345 0)
(0.0298933 -0.140726 0)
(0.0298247 -0.138108 0)
(0.029756 -0.135489 0)
(0.0296874 -0.13287 0)
(0.0296188 -0.130251 0)
(0.0295502 -0.127633 0)
(0.0294815 -0.125014 0)
(0.0294129 -0.122395 0)
(0.0293443 -0.119776 0)
(0.0292757 -0.117158 0)
(0.029207 -0.114539 0)
(0.0291384 -0.11192 0)
(0.0290698 -0.109301 0)
(0.0290012 -0.106683 0)
(0.0289325 -0.104064 0)
(0.0288639 -0.101445 0)
(0.0287953 -0.0988263 0)
(0.0287267 -0.0962075 0)
(0.028658 -0.0935888 0)
(0.0285894 -0.09097 0)
(0.0285208 -0.0883513 0)
(0.0284522 -0.0857325 0)
(0.0283835 -0.0831138 0)
(0.0283149 -0.080495 0)
(0.0282463 -0.0778763 0)
(0.0281777 -0.0752575 0)
(0.028109 -0.0726388 0)
(0.0280404 -0.07002 0)
(0.0279718 -0.0674013 0)
(0.0279032 -0.0647825 0)
(0.0278345 -0.0621638 0)
(0.0277659 -0.059545 0)
(0.0276973 -0.0569263 0)
(0.0276287 -0.0543075 0)
(0.02756 -0.0516888 0)
(0.0274914 -0.04907 0)
(0.0274228 -0.0464513 0)
(0.0273541 -0.0438325 0)
(0.0272855 -0.0412138 0)
(0.0272169 -0.038595 0)
(0.0271483 -0.0359763 0)
(0.0270796 -0.0333575 0)
(0.027011 -0.0307388 0)
(0.0269424 -0.02812 0)
(0.0268738 -0.0255013 0)
(0.0268051 -0.0228825 0)
(0.0267365 -0.0202638 0)
(0.0266679 -0.017645 0)
(0.0265993 -0.0150263 0)
(0.0265306 -0.0124075 0)
(0.026462 -0.00978875 0)
(0.0263934 -0.00717 0)
(0.0263248 -0.00455125 0)
(0.0262561 -0.00193249 0)
(0.0261875 0.000686257 0)
(0.0261189 0.00330501 0)
(0.0260503 0.00592376 0)
(0.0259816 0.00854251 0)
(0.025913 0.0111613 0)
(0.0258444 0.01378 0)
(0.0257758 0.0163988 0)
(0.0257071 0.0190175 0)
(0.0256385 0.0216363 0)
(0.0255699 0.024255 0)
(0.0255013 0.0268738 0)
(0.0254326 0.0294925 0)
(0.025364 0.0321113 0)
(0.0252954 0.03473 0)
(0.0252268 0.0373488 0)
(0.0251581 0.0399675 0)
(0.0250895 0.0425863 0)
(0.0250209 0.045205 0)
(0.0249522 0.0478238 0)
(0.0248836 0.0504425 0)
(0.024815 0.0530613 0)
(0.0247464 0.05568 0)
(0.0246777 0.0582988 0)
(0.0246091 0.0609175 0)
(0.0245405 0.0635363 0)
(0.0244719 0.066155 0)
(0.0244032 0.0687738 0)
(0.0243346 0.0713925 0)
(0.024266 0.0740113 0)
(0.0241974 0.07663 0)
(0.0241287 0.0792488 0)
(0.0240601 0.0818675 0)
(0.0239915 0.0844863 0)
(0.0239229 0.087105 0)
(0.0238542 0.0897238 0)
(0.0237856 0.0923425 0)
(0.023717 0.0949613 0)
(0.0236484 0.09758 0)
(0.0235797 0.100199 0)
(0.0235111 0.102818 0)
(0.0234425 0.105436 0)
(0.0233739 0.108055 0)
(0.0233052 0.110674 0)
(0.0232366 0.113293 0)
(0.023168 0.115911 0)
(0.0230994 0.11853 0)
(0.0230307 0.121149 0)
(0.0229621 0.123768 0)
(0.0228935 0.126386 0)
(0.0228249 0.129005 0)
(0.0227562 0.131624 0)
(0.0226876 0.134243 0)
(0.022619 0.136861 0)
(0.0225504 0.13948 0)
(0.0264401 -0.208951 0)
(0.0290588 -0.208882 0)
(0.022517 0.140741 0)
(0.0237627 0.0932101 0)
(0.0249867 0.0464994 0)
(0.0262211 -0.000603949 0)
(0.0274581 -0.0478084 0)
(0.0286925 -0.0949131 0)
(0.0299324 -0.142233 0)
(0.0311633 -0.189246 0)
(0.028077 -0.0714255 0)
(0.0268395 -0.024202 0)
(0.0231348 0.117171 0)
(0.0305442 -0.165581 0)
(0.024368 0.0701097 0)
(0.0256042 0.0229381 0)
(0.0293062 -0.118334 0)
(0.0253808 -0.208968 0)
(0.00104192 -0.00567532 0)
(0.000829553 -0.00963477 0)
(0.00130636 -0.00489954 0)
(0.00160527 -0.00196698 0)
(0.000759699 -0.0122843 0)
(0.000577134 -0.015021 0)
(0.00129162 0.00138422 0)
(0.0314933 -0.202249 0)
(0.000873211 -0.00572686 0)
(0.000745924 -0.00724332 0)
(0.000583418 -0.00513692 0)
(0.0302726 -0.155215 0)
(0.025327 0.033515 0)
(0.0295849 -0.128971 0)
(0.0240955 0.0805084 0)
(0.0277337 -0.0583276 0)
(0.0284232 -0.0846382 0)
(0.0271164 -0.034768 0)
(0.0264959 -0.011092 0)
(0.0234795 0.104015 0)
(0.0308925 -0.178885 0)
(0.0247127 0.0569548 0)
(0.025948 0.00981575 0)
(0.0228561 0.127805 0)
(0.0289685 -0.105445 0)
(0.000643167 -0.0046744 0)
(0.000836797 -0.0112162 0)
(0.00130139 -0.00604883 0)
(0.00125069 -0.00296012 0)
(0.000369952 -0.00305632 0)
(0.00043853 -0.00335442 0)
(0.000241049 -0.00190346 0)
(0.000713425 -0.013387 0)
(0.000400598 -0.0136388 0)
(0.000808325 -0.00865534 0)
(0.00130721 -0.00408122 0)
(0.00129872 0.000143777 0)
(0.00100466 -0.00594508 0)
(0.000668802 -0.00615918 0)
(0.000827291 -0.00574101 0)
(0.000483597 -0.00410567 0)
(0.000252316 -0.00204566 0)
(0.000115892 -0.000928659 0)
(0.000733985 -0.0127515 0)
(0.00144418 -0.0240915 0)
(0.00149898 -0.023371 0)
(0.00213439 -0.0342316 0)
(0.00221289 -0.0332883 0)
(0.0028045 -0.0432781 0)
(0.00289835 -0.0421362 0)
(0.00346697 -0.0515382 0)
(0.00356249 -0.0501478 0)
(0.0041114 -0.0588658 0)
(0.00420111 -0.0572098 0)
(0.00472526 -0.0651724 0)
(0.00481076 -0.0632866 0)
(0.00531723 -0.0707633 0)
(0.00539932 -0.0686496 0)
(0.00589256 -0.0757205 0)
(0.00579718 -0.0779643 0)
(0.00635757 -0.0824913 0)
(0.00624211 -0.0847649 0)
(0.00679223 -0.0889137 0)
(0.00665307 -0.091162 0)
(0.00719845 -0.0949924 0)
(0.00703644 -0.0972252 0)
(0.00757577 -0.100743 0)
(0.00739973 -0.103058 0)
(0.00793053 -0.106177 0)
(0.00776022 -0.108546 0)
(0.00826863 -0.111319 0)
(0.00807808 -0.113584 0)
(0.00857992 -0.116148 0)
(0.00836484 -0.118371 0)
(0.00887314 -0.120732 0)
(0.00863759 -0.122857 0)
(0.00914725 -0.125139 0)
(0.00888224 -0.127128 0)
(0.0093983 -0.129272 0)
(0.00911761 -0.131248 0)
(0.00964009 -0.133167 0)
(0.00934217 -0.135129 0)
(0.00987298 -0.136853 0)
(0.00956192 -0.138807 0)
(0.0101045 -0.140378 0)
(0.009779 -0.142344 0)
(0.0103989 -0.138326 0)
(0.0106459 -0.141688 0)
(0.0109244 -0.139545 0)
(0.0111842 -0.142764 0)
(0.0114488 -0.140526 0)
(0.011723 -0.143624 0)
(0.0119753 -0.141278 0)
(0.0122733 -0.14427 0)
(0.0124979 -0.141791 0)
(0.0128113 -0.144531 0)
(0.0130116 -0.142131 0)
(0.0133267 -0.144629 0)
(0.0135184 -0.142209 0)
(0.0138577 -0.144768 0)
(0.0140188 -0.142028 0)
(0.0143914 -0.144588 0)
(0.0145181 -0.141675 0)
(0.0149058 -0.144061 0)
(0.0126571 -0.147345 0)
(0.0150065 -0.141063 0)
(0.0154046 -0.143315 0)
(0.015478 -0.140194 0)
(0.0158877 -0.142325 0)
(0.0159366 -0.139089 0)
(0.0163601 -0.141098 0)
(0.0163787 -0.137747 0)
(0.0168111 -0.139575 0)
(0.0159702 -0.135742 0)
(0.0167959 -0.136211 0)
(0.0172278 -0.137763 0)
(0.0171786 -0.134375 0)
(0.0176234 -0.135706 0)
(0.0175347 -0.132195 0)
(0.0179835 -0.133265 0)
(0.0178733 -0.129773 0)
(0.018315 -0.130718 0)
(0.0181888 -0.127085 0)
(0.0186369 -0.127908 0)
(0.0184724 -0.124103 0)
(0.0189276 -0.124668 0)
(0.0180258 -0.123538 0)
(0.0152976 -0.1463 0)
(0.0187234 -0.120837 0)
(0.0191766 -0.121137 0)
(0.0189461 -0.117314 0)
(0.0193864 -0.117346 0)
(0.0196247 -0.121 0)
(0.0198214 -0.117158 0)
(0.0195745 -0.113359 0)
(0.019996 -0.113014 0)
(0.0202536 -0.116768 0)
(0.020411 -0.112378 0)
(0.0201387 -0.108605 0)
(0.0205378 -0.107733 0)
(0.0208185 -0.111476 0)
(0.0209295 -0.106582 0)
(0.0206347 -0.102853 0)
(0.0210124 -0.101412 0)
(0.0207054 -0.0977151 0)
(0.0210696 -0.095963 0)
(0.0213742 -0.0997147 0)
(0.021423 -0.0940431 0)
(0.0211043 -0.090191 0)
(0.0214423 -0.0879888 0)
(0.0218252 -0.092184 0)
(0.0217637 -0.085385 0)
(0.0214342 -0.0816422 0)
(0.021723 -0.0789263 0)
(0.0220767 -0.0821365 0)
(0.0219872 -0.0753434 0)
(0.0216102 -0.0720457 0)
(0.0219124 -0.0688982 0)
(0.0222458 -0.0716332 0)
(0.0221606 -0.0651899 0)
(0.0218189 -0.0623714 0)
(0.0220421 -0.0584369 0)
(0.021693 -0.0558215 0)
(0.0218985 -0.0515858 0)
(0.0222455 -0.0540302 0)
(0.0220835 -0.0469899 0)
(0.0217337 -0.0446891 0)
(0.0219004 -0.0399004 0)
(0.0215494 -0.037812 0)
(0.0216985 -0.0328477 0)
(0.022046 -0.0348086 0)
(0.0218241 -0.0275853 0)
(0.0214801 -0.02593 0)
(0.0215886 -0.0205976 0)
(0.0219258 -0.022056 0)
(0.0216728 -0.0149962 0)
(0.0213384 -0.0137618 0)
(0.0214062 -0.00807033 0)
(0.0210738 -0.00702409 0)
(0.0211287 -0.0012961 0)
(0.0214485 -0.00209265 0)
(0.0211576 0.00466741 0)
(0.0208419 0.00528281 0)
(0.0208538 0.0112977 0)
(0.0211632 0.0108375 0)
(0.0208421 0.0175953 0)
(0.0205363 0.0177737 0)
(0.0205096 0.024105 0)
(0.0202085 0.0239582 0)
(0.0201711 0.0301737 0)
(0.0198729 0.0298573 0)
(0.0198246 0.0359672 0)
(0.0201113 0.0364997 0)
(0.0197546 0.042182 0)
(0.0194697 0.0415921 0)
(0.019392 0.0476746 0)
(0.0196678 0.0483915 0)
(0.0192971 0.053757 0)
(0.0190234 0.0529311 0)
(0.018917 0.0589121 0)
(0.0186496 0.0579199 0)
(0.0185302 0.0638416 0)
(0.00690814 -0.0865379 0)
(0.0176593 -0.139227 0)
(0.00921855 -0.140644 0)
(0.00940696 -0.144163 0)
(0.00884159 -0.14236 0)
(0.00901078 -0.145916 0)
(0.00844128 -0.143976 0)
(0.0136055 -0.13944 0)
(0.00568122 -0.189925 0)
(0.00610172 -0.191295 0)
(0.0068677 -0.190176 0)
(0.00740214 -0.191475 0)
(0.00808213 -0.190229 0)
(0.00869517 -0.191492 0)
(0.00930221 -0.190122 0)
(0.00997742 -0.191354 0)
(0.00783661 -0.115794 0)
(0.010477 -0.189884 0)
(0.011217 -0.191016 0)
(0.00548108 -0.188599 0)
(0.0115993 -0.18948 0)
(0.0123755 -0.190484 0)
(0.00934189 -0.19274 0)
(0.0126628 -0.188905 0)
(0.0134574 -0.189816 0)
(0.0109103 -0.188385 0)
(0.0136577 -0.188175 0)
(0.0144561 -0.188996 0)
(0.0143058 -0.190632 0)
(0.015301 -0.189713 0)
(0.0153748 -0.188019 0)
(0.0162153 -0.188621 0)
(0.0162145 -0.186869 0)
(0.0170389 -0.187354 0)
(0.0170859 -0.189114 0)
(0.0178798 -0.187735 0)
(0.00844965 -0.108975 0)
(0.0179722 -0.189501 0)
(0.0187316 -0.187996 0)
(0.0185835 -0.186193 0)
(0.0194039 -0.186299 0)
(0.0195996 -0.188094 0)
(0.0202331 -0.186236 0)
(0.0199871 -0.184432 0)
(0.0207668 -0.18423 0)
(0.02106 -0.186 0)
(0.0215311 -0.183853 0)
(0.0218634 -0.18558 0)
(0.022273 -0.183268 0)
(0.0219343 -0.181549 0)
(0.022625 -0.180797 0)
(0.0229798 -0.182449 0)
(0.0232769 -0.179833 0)
(0.0236483 -0.181404 0)
(0.0238764 -0.178718 0)
(0.0242718 -0.180087 0)
(0.0244232 -0.17731 0)
(0.0248365 -0.178503 0)
(0.0249313 -0.175502 0)
(0.0253488 -0.176611 0)
(0.0254031 -0.173344 0)
(0.0258078 -0.174357 0)
(0.025821 -0.170927 0)
(0.0262091 -0.171809 0)
(0.0261825 -0.168316 0)
(0.0265566 -0.168943 0)
(0.0265005 -0.165363 0)
(0.0268576 -0.165651 0)
(0.02678 -0.162016 0)
(0.0271213 -0.162026 0)
(0.027026 -0.158323 0)
(0.0273489 -0.158041 0)
(0.0272355 -0.154416 0)
(0.0275299 -0.153754 0)
(0.0273953 -0.150172 0)
(0.0276678 -0.149245 0)
(0.027522 -0.145559 0)
(0.0277689 -0.144416 0)
(0.0276156 -0.140705 0)
(0.0278385 -0.139296 0)
(0.0276746 -0.135567 0)
(0.0278794 -0.134003 0)
(0.0277136 -0.130232 0)
(0.0278964 -0.128527 0)
(0.0277271 -0.124762 0)
(0.0278907 -0.122891 0)
(0.0277175 -0.119129 0)
(0.0278648 -0.117152 0)
(0.027689 -0.113415 0)
(0.0278192 -0.111298 0)
(0.0276481 -0.107678 0)
(0.0277563 -0.105347 0)
(0.0275894 -0.101884 0)
(0.0276797 -0.0992839 0)
(0.0275125 -0.0959325 0)
(0.0275906 -0.0930934 0)
(0.027424 -0.0897771 0)
(0.0274911 -0.0868333 0)
(0.0273255 -0.083537 0)
(0.0273819 -0.080517 0)
(0.0272198 -0.0773079 0)
(0.0272642 -0.0742149 0)
(0.0271038 -0.0710393 0)
(0.0271404 -0.067958 0)
(0.0269804 -0.0647705 0)
(0.0270104 -0.0616773 0)
(0.0268519 -0.0585693 0)
(0.0268743 -0.0553589 0)
(0.0267177 -0.0523718 0)
(0.0267315 -0.0489153 0)
(0.0265774 -0.0460701 0)
(0.0265864 -0.042515 0)
(0.0264318 -0.0397467 0)
(0.0264362 -0.0362188 0)
(0.0262835 -0.0335038 0)
(0.0262781 -0.0298487 0)
(0.0261279 -0.0272293 0)
(0.026114 -0.0234317 0)
(0.0259661 -0.0209186 0)
(0.0259474 -0.0170842 0)
(0.0258018 -0.0146596 0)
(0.0257788 -0.0107371 0)
(0.0256282 -0.00839311 0)
(0.0256045 -0.00433798 0)
(0.0254506 -0.00196013 0)
(0.0254279 0.00206175 0)
(0.0252782 0.00439431 0)
(0.025248 0.00844353 0)
(0.0251011 0.0106289 0)
(0.0250622 0.014825 0)
(0.0249148 0.0169142 0)
(0.0248734 0.0211608 0)
(0.0247254 0.0231543 0)
(0.024681 0.0274559 0)
(0.0245307 0.0294291 0)
(0.0244836 0.0337963 0)
(0.0243343 0.035659 0)
(0.0242812 0.0400492 0)
(0.0241321 0.041735 0)
(0.0240754 0.0461468 0)
(0.0239243 0.0478117 0)
(0.0238658 0.0522223 0)
(0.0237138 0.0538093 0)
(0.0236504 0.0582648 0)
(0.0234945 0.0596764 0)
(0.0234285 0.0642508 0)
(0.0232663 0.0655714 0)
(0.0231994 0.0702133 0)
(0.0230323 0.0713985 0)
(0.0229616 0.0760702 0)
(0.022794 0.0771408 0)
(0.0227189 0.0817839 0)
(0.0225523 0.0827476 0)
(0.0224706 0.087422 0)
(0.0223041 0.0881122 0)
(0.0222154 0.0928848 0)
(0.0220461 0.093356 0)
(0.021955 0.0981438 0)
(0.0217789 0.0985521 0)
(0.021686 0.103265 0)
(0.0218678 0.10281 0)
(0.0215954 0.107877 0)
(0.0214082 0.10824 0)
(0.021311 0.112867 0)
(0.023117 0.0754435 0)
(0.0242128 0.0446259 0)
(0.0250139 0.0191098 0)
(0.0257467 -0.00686911 0)
(0.0264346 -0.0327592 0)
(0.0270258 -0.0584456 0)
(0.0265556 -0.0494597 0)
(0.0271559 -0.080123 0)
(0.0275112 -0.109054 0)
(0.0274391 -0.137223 0)
(0.0267102 -0.1584 0)
(0.0275395 -0.0836814 0)
(0.0252759 0.000977854 0)
(0.0233342 0.0608864 0)
(0.0243681 0.031753 0)
(0.0249865 -0.172336 0)
(0.0279292 -0.109 0)
(0.0221573 0.0881333 0)
(0.0223215 -0.179094 0)
(0.0280607 -0.132411 0)
(0.0278282 -0.152838 0)
(0.00856916 -0.147527 0)
(0.0080235 -0.145436 0)
(0.0259894 -0.0253399 0)
(0.0269111 -0.169323 0)
(0.0247092 -0.181285 0)
(0.00807581 -0.148895 0)
(0.00748297 -0.146297 0)
(0.00755644 -0.150152 0)
(0.00699186 -0.14791 0)
(0.00703829 -0.151373 0)
(0.00646699 -0.148959 0)
(0.00644616 -0.145445 0)
(0.0059191 -0.146116 0)
(0.0059392 -0.142529 0)
(0.00539911 -0.143133 0)
(0.0054558 -0.139126 0)
(0.00488491 -0.139858 0)
(0.00581194 -0.149801 0)
(0.00811001 -0.152133 0)
(0.00496502 -0.135599 0)
(0.00440173 -0.136274 0)
(0.00447974 -0.131927 0)
(0.00393744 -0.132467 0)
(0.00381264 -0.136746 0)
(0.00337376 -0.132802 0)
(0.00320995 -0.136998 0)
(0.00347211 -0.128307 0)
(0.00333874 -0.0528795 0)
(0.0103599 -0.204535 0)
(0.0100988 -0.203726 0)
(0.0121871 -0.203864 0)
(0.0125892 -0.204674 0)
(0.0142474 -0.20392 0)
(0.0148325 -0.204727 0)
(0.0162435 -0.203871 0)
(0.0170384 -0.204647 0)
(0.0181295 -0.203741 0)
(0.0190988 -0.204443 0)
(0.0198836 -0.20352 0)
(0.0209304 -0.204115 0)
(0.0214584 -0.203117 0)
(0.0225188 -0.203627 0)
(0.0228274 -0.202545 0)
(0.0238678 -0.202968 0)
(0.0156149 -0.203022 0)
(0.0239712 -0.201783 0)
(0.0249714 -0.202114 0)
(0.0218777 -0.202053 0)
(0.0116926 -0.138199 0)
(0.0249015 -0.200806 0)
(0.0258409 -0.201001 0)
(0.0187534 -0.13243 0)
(0.00683462 -0.099247 0)
(0.0256508 -0.199612 0)
(0.0264976 -0.199636 0)
(0.0180072 -0.205287 0)
(0.0132334 0.0309054 0)
(0.013782 0.0320275 0)
(0.0136584 0.0268046 0)
(0.0130918 0.0259684 0)
(0.0135104 0.0218484 0)
(0.0140783 0.0224193 0)
(0.0139185 0.0174813 0)
(0.0144814 0.0178272 0)
(0.0143117 0.0128532 0)
(0.013726 0.0127578 0)
(0.01411 0.00811201 0)
(0.0146917 0.00791728 0)
(0.0144847 0.00318331 0)
(0.0138732 0.00366665 0)
(0.0142386 -0.00118087 0)
(0.0148469 -0.001943 0)
(0.0145874 -0.00620691 0)
(0.0151915 -0.00721073 0)
(0.014918 -0.0113756 0)
(0.014298 -0.0101552 0)
(0.0146141 -0.0152435 0)
(0.0152315 -0.0166119 0)
(0.0149144 -0.0204376 0)
(0.0142785 -0.0187712 0)
(0.0145667 -0.0238758 0)
(0.0152077 -0.0257235 0)
(0.014844 -0.0291099 0)
(0.0141935 -0.0268802 0)
(0.0144506 -0.0319264 0)
(0.015091 -0.0345302 0)
(0.0146854 -0.0370528 0)
(0.0140425 -0.0343575 0)
(0.0142679 -0.0392436 0)
(0.0148934 -0.0421603 0)
(0.0144661 -0.0440884 0)
(0.0150762 -0.0471931 0)
(0.0146442 -0.0489005 0)
(0.0140206 -0.0456755 0)
(0.0141909 -0.0502467 0)
(0.0148263 -0.0538652 0)
(0.0143454 -0.0548819 0)
(0.0137183 -0.0512406 0)
(0.0138426 -0.0554686 0)
(0.0144137 -0.0591826 0)
(0.0139294 -0.0595922 0)
(0.0133413 -0.0558532 0)
(0.0134304 -0.0597827 0)
(0.0139955 -0.063638 0)
(0.013491 -0.0635884 0)
(0.0140365 -0.0675482 0)
(0.0135221 -0.0672612 0)
(0.0129686 -0.0632183 0)
(0.0129942 -0.0666836 0)
(0.013522 -0.0708064 0)
(0.0129887 -0.069996 0)
(0.0134904 -0.074191 0)
(0.0129532 -0.0731312 0)
(0.0134208 -0.0772949 0)
(0.0128778 -0.0759918 0)
(0.0132907 -0.0799708 0)
(0.0127539 -0.078567 0)
(0.012323 -0.0743796 0)
(0.0122101 -0.0767993 0)
(0.0126149 -0.081028 0)
(0.012064 -0.0789664 0)
(0.0124399 -0.0831465 0)
(0.0118888 -0.080901 0)
(0.0122457 -0.0851149 0)
(0.011693 -0.0826381 0)
(0.0120331 -0.0869581 0)
(0.0114632 -0.0840862 0)
(0.0111238 -0.0798049 0)
(0.0108874 -0.0809635 0)
(0.0105452 -0.0767158 0)
(0.0103025 -0.0776172 0)
(0.00995597 -0.073383 0)
(0.00971098 -0.0740625 0)
(0.00935612 -0.0697929 0)
(0.00911416 -0.0703082 0)
(0.0124259 -0.0625773 0)
(0.0117781 -0.0883968 0)
(0.00874772 -0.0660298 0)
(0.00850896 -0.0663497 0)
(0.00897022 -0.065227 0)
(0.00814085 -0.0621542 0)
(0.00790275 -0.0622212 0)
(0.0082395 -0.0663045 0)
(0.00753538 -0.058116 0)
(0.00763227 -0.061922 0)
(0.00794328 -0.0659326 0)
(0.0139331 -0.0782419 0)
(0.0126325 -0.0896377 0)
(0.00732665 -0.0612054 0)
(0.00760103 -0.0650364 0)
(0.0195667 0.0545528 0)
(0.0211488 0.0171639 0)
(0.019902 0.0238269 0)
(0.0183803 0.0568678 0)
(0.0222542 0.129766 0)
(0.0223621 0.128977 0)
(0.0224208 0.12563 0)
(0.0225246 0.124677 0)
(0.022579 0.12147 0)
(0.0226801 0.12038 0)
(0.0227339 0.117174 0)
(0.0228313 0.116043 0)
(0.0228873 0.112806 0)
(0.02298 0.111636 0)
(0.0230377 0.108377 0)
(0.0231271 0.107138 0)
(0.0231842 0.103946 0)
(0.02327 0.102661 0)
(0.0233274 0.0995169 0)
(0.0234083 0.0982328 0)
(0.0234673 0.0950749 0)
(0.0235449 0.0937762 0)
(0.0236045 0.0906308 0)
(0.0236803 0.0892911 0)
(0.0237401 0.0861666 0)
(0.0238131 0.0848237 0)
(0.0238734 0.0817142 0)
(0.0239429 0.0803703 0)
(0.0240046 0.0772574 0)
(0.0240725 0.0758758 0)
(0.0241355 0.0727561 0)
(0.0242029 0.0713225 0)
(0.0242653 0.0682504 0)
(0.0243324 0.0667466 0)
(0.0243916 0.0638441 0)
(0.0244571 0.0622996 0)
(0.0245157 0.0594423 0)
(0.0245797 0.0579048 0)
(0.0246402 0.0549917 0)
(0.0247026 0.05347 0)
(0.0247629 0.0505893 0)
(0.0248257 0.0490064 0)
(0.0248853 0.0461452 0)
(0.0249483 0.044524 0)
(0.0250093 0.0416231 0)
(0.0250702 0.040041 0)
(0.0251337 0.0370426 0)
(0.0251914 0.0355716 0)
(0.0252583 0.0324911 0)
(0.0253131 0.0310769 0)
(0.0253778 0.028155 0)
(0.0254342 0.0266023 0)
(0.0254944 0.0238587 0)
(0.0255536 0.0221639 0)
(0.025613 0.0194415 0)
(0.0256727 0.0177171 0)
(0.0257336 0.0149336 0)
(0.0257915 0.0132736 0)
(0.0258528 0.0104721 0)
(0.0259095 0.00884553 0)
(0.0259715 0.00601813 0)
(0.0260279 0.00439373 0)
(0.0260898 0.00156476 0)
(0.0261443 7.67415e-06 0)
(0.0262063 -0.00282364 0)
(0.0262593 -0.00433506 0)
(0.0263217 -0.00718802 0)
(0.0263761 -0.00875245 0)
(0.0264371 -0.0115487 0)
(0.026494 -0.0132242 0)
(0.0265525 -0.0159215 0)
(0.0266097 -0.0176261 0)
(0.0266668 -0.02028 0)
(0.0267248 -0.0220005 0)
(0.0267811 -0.0246496 0)
(0.0268393 -0.0263633 0)
(0.026897 -0.0290951 0)
(0.026954 -0.0307434 0)
(0.0270123 -0.0334978 0)
(0.0270692 -0.0351434 0)
(0.0271252 -0.0377831 0)
(0.0271831 -0.0395017 0)
(0.0272367 -0.0420387 0)
(0.0272964 -0.0438404 0)
(0.0273504 -0.0463976 0)
(0.0274105 -0.0482131 0)
(0.0274655 -0.0508364 0)
(0.0275242 -0.0525904 0)
(0.0275787 -0.05522 0)
(0.0276366 -0.0569228 0)
(0.0276917 -0.0596008 0)
(0.0277488 -0.0612577 0)
(0.0278052 -0.0640076 0)
(0.0278624 -0.0656614 0)
(0.0279158 -0.0682862 0)
(0.0279747 -0.0700138 0)
(0.0280224 -0.07244 0)
(0.02292 0.114911 0)
(0.0280833 -0.0742276 0)
(0.0281299 -0.0766667 0)
(0.0281922 -0.0784683 0)
(0.02824 -0.0810085 0)
(0.0283026 -0.0827812 0)
(0.0283499 -0.0853527 0)
(0.0236195 0.092397 0)
(0.0284126 -0.0871005 0)
(0.0284596 -0.0897085 0)
(0.0285225 -0.0914429 0)
(0.0285686 -0.0940521 0)
(0.0286326 -0.0957932 0)
(0.0286762 -0.0983582 0)
(0.0242751 0.0696807 0)
(0.0287419 -0.100149 0)
(0.0287818 -0.102599 0)
(0.0288503 -0.104502 0)
(0.0288857 -0.106825 0)
(0.0289566 -0.108778 0)
(0.0289873 -0.111009 0)
(0.0247591 0.0520728 0)
(0.0290607 -0.112986 0)
(0.0290886 -0.115211 0)
(0.0291646 -0.117198 0)
(0.0291893 -0.119448 0)
(0.0252505 0.0338864 0)
(0.0292669 -0.121405 0)
(0.0292887 -0.123718 0)
(0.0293664 -0.125573 0)
(0.0293862 -0.127949 0)
(0.0294646 -0.129736 0)
(0.0294822 -0.13212 0)
(0.0258444 0.0117428 0)
(0.0295644 -0.13402 0)
(0.0295759 -0.136305 0)
(0.0296618 -0.138305 0)
(0.0296643 -0.140416 0)
(0.0297522 -0.142376 0)
(0.0297482 -0.144455 0)
(0.0240658 0.0741803 0)
(0.0256681 0.0168432 0)
(0.022933 0.109755 0)
(0.0278683 -0.0670774 0)
(0.0271762 -0.0402599 0)
(0.0263916 -0.0104007 0)
(0.0264361 -0.0105595 0)
(0.0249373 0.0434741 0)
(0.0298398 -0.146416 0)
(0.0298283 -0.148483 0)
(0.0286106 -0.0967063 0)
(0.0299246 -0.150519 0)
(0.0299028 -0.152507 0)
(0.0300037 -0.154634 0)
(0.0299702 -0.156528 0)
(0.0292007 -0.121607 0)
(0.0298061 -0.150408 0)
(0.0268936 -0.0280155 0)
(0.0300769 -0.158691 0)
(0.0300289 -0.160536 0)
(0.0235246 0.0918816 0)
(0.0223274 0.12602 0)
(0.027352 -0.0455744 0)
(0.0301432 -0.162783 0)
(0.030077 -0.164553 0)
(0.0301941 -0.166857 0)
(0.0301113 -0.168545 0)
(0.0276934 -0.0586502 0)
(0.0302313 -0.170803 0)
(0.0301289 -0.172462 0)
(0.0280302 -0.0716554 0)
(0.0299805 -0.166179 0)
(0.0302619 -0.174768 0)
(0.0301248 -0.176291 0)
(0.02836 -0.0843594 0)
(0.0302678 -0.178716 0)
(0.0300888 -0.180023 0)
(0.0286984 -0.0976522 0)
(0.0302366 -0.182462 0)
(0.029133 -0.114986 0)
(0.0294385 -0.127373 0)
(0.0069838 -0.0600265 0)
(0.00672049 -0.0564388 0)
(0.0170511 -0.131155 0)
(0.0245723 0.0564928 0)
(0.00720822 -0.0635063 0)
(0.00783351 -0.0687908 0)
(0.0253405 0.0289204 0)
(0.0297437 -0.140274 0)
(0.0260328 0.00315478 0)
(0.0268327 -0.0272748 0)
(0.0275184 -0.053465 0)
(0.0281658 -0.0788288 0)
(0.0294907 -0.134578 0)
(0.0289036 -0.108728 0)
(0.0262531 -0.198175 0)
(0.0254486 -0.1982 0)
(0.0202857 0.089688 0)
(0.0203976 0.0841988 0)
(0.0206328 0.0842117 0)
(0.0207392 0.0786335 0)
(0.0209696 0.0785406 0)
(0.0210679 0.0730291 0)
(0.0212981 0.0726812 0)
(0.0213756 0.0672411 0)
(0.0216232 0.0663383 0)
(0.0216784 0.0608711 0)
(0.0219358 0.0597561 0)
(0.0219854 0.054306 0)
(0.022234 0.0532059 0)
(0.0222845 0.0478236 0)
(0.0225204 0.046602 0)
(0.0225644 0.0414405 0)
(0.0227963 0.039845 0)
(0.0228236 0.0348554 0)
(0.0230621 0.032923 0)
(0.0230736 0.0279077 0)
(0.0233143 0.0257874 0)
(0.0233206 0.020889 0)
(0.0235626 0.0184386 0)
(0.0235574 0.0138089 0)
(0.0238032 0.0112265 0)
(0.0237836 0.00667223 0)
(0.0240269 0.00411141 0)
(0.0240006 -0.000526747 0)
(0.0237506 0.00214225 0)
(0.0239602 -0.00499679 0)
(0.0242093 -0.00781306 0)
(0.024164 -0.0122199 0)
(0.0244086 -0.0151966 0)
(0.0243525 -0.0194878 0)
(0.024594 -0.0225648 0)
(0.0245178 -0.026726 0)
(0.0247656 -0.029919 0)
(0.0246784 -0.0340398 0)
(0.0249252 -0.0373005 0)
(0.0248323 -0.0412528 0)
(0.0250705 -0.0446901 0)
(0.0249559 -0.0483727 0)
(0.0252003 -0.0521002 0)
(0.0250697 -0.0556007 0)
(0.0253144 -0.0594075 0)
(0.0251801 -0.0626988 0)
(0.0254105 -0.0665525 0)
(0.0252538 -0.0695325 0)
(0.0254856 -0.0735915 0)
(0.0253029 -0.0764071 0)
(0.0255392 -0.0804972 0)
(0.0253479 -0.0831195 0)
(0.0255729 -0.0872407 0)
(0.0253678 -0.0895887 0)
(0.025585 -0.0938311 0)
(0.0253672 -0.0959123 0)
(0.0255721 -0.10023 0)
(0.0253338 -0.101996 0)
(0.0255297 -0.106389 0)
(0.0252611 -0.10786 0)
(0.0254586 -0.112273 0)
(0.0251717 -0.113554 0)
(0.0249787 -0.109286 0)
(0.0248742 -0.114627 0)
(0.0250568 -0.119001 0)
(0.0247442 -0.11986 0)
(0.0249114 -0.124275 0)
(0.0245819 -0.124818 0)
(0.0247314 -0.129297 0)
(0.0243894 -0.129463 0)
(0.0245196 -0.133935 0)
(0.0241672 -0.133779 0)
(0.0242765 -0.138169 0)
(0.0239151 -0.137738 0)
(0.0240012 -0.142033 0)
(0.0236304 -0.141372 0)
(0.0250315 -0.0717836 0)
(0.0236904 -0.145622 0)
(0.0233096 -0.144772 0)
(0.0247489 -0.0448334 0)
(0.024053 -0.129382 0)
(0.0230871 0.0226497 0)
(0.0223646 0.0420222 0)
(0.0213898 0.0628934 0)
(0.0232599 -0.14053 0)
(0.0229347 -0.143713 0)
(0.0229595 -0.147853 0)
(0.0225819 -0.146601 0)
(0.0225821 -0.150611 0)
(0.0222004 -0.14916 0)
(0.0221639 -0.153081 0)
(0.0217858 -0.151389 0)
(0.0217006 -0.155 0)
(0.0213405 -0.153314 0)
(0.0212199 -0.15673 0)
(0.0251321 -0.0917044 0)
(0.0242762 -0.0231351 0)
(0.0237019 -0.00224075 0)
(0.0245847 -0.115538 0)
(0.029946 -0.177387 0)
(0.0298683 -0.180895 0)
(0.0297274 -0.178242 0)
(0.0296151 -0.181612 0)
(0.0300185 -0.152664 0)
(0.020867 -0.155017 0)
(0.020708 -0.158506 0)
(0.0294761 -0.178874 0)
(0.0293332 -0.182119 0)
(0.0203681 -0.156521 0)
(0.0201658 -0.159913 0)
(0.0225252 0.13812 0)
(0.0225734 0.13576 0)
(0.022624 0.134647 0)
(0.0226739 0.13228 0)
(0.0227219 0.131171 0)
(0.0227728 0.128816 0)
(0.0228187 0.127698 0)
(0.0228702 0.125355 0)
(0.0229141 0.124246 0)
(0.0229666 0.121896 0)
(0.023009 0.120785 0)
(0.02306 0.118528 0)
(0.0231027 0.117344 0)
(0.0231507 0.115214 0)
(0.023196 0.113898 0)
(0.0232462 0.111702 0)
(0.0232899 0.11042 0)
(0.023344 0.108115 0)
(0.0233829 0.106966 0)
(0.023438 0.104645 0)
(0.0198479 -0.157735 0)
(0.0196183 -0.1609 0)
(0.019313 -0.158664 0)
(0.0190616 -0.161597 0)
(0.00637417 -0.0550004 0)
(0.00611368 -0.0515689 0)