/*--------------------------------*- C++ -*----------------------------------*\
| =========                 |                                                 |
| \\      /  F ield         | OpenFOAM: The Open Source CFD Toolbox           |
|  \\    /   O peration     | Version:  v2012                                 |
|   \\  /    A nd           | Website:  www.openfoam.com                      |
|    \\/     M anipulation  |                                                 |
\*---------------------------------------------------------------------------*/
FoamFile
{
    version     2.0;
    format      ascii;
    class       volScalarField;
    location    "600";
    object      nut;
}
// * * * * * * * * * * * * * * * * * * * * * * * * * * * * * * * * * * * * * //

dimensions      [0 2 -1 0 0 0 0];


internalField   nonuniform List<scalar> 
13851
(
0.00596431
0.0254157
0.00160874
0.00608222
0.00156649
0.00302102
0.00593737
0.00195593
0.00694298
0.0010742
0.0103897
0.0320295
0.0259464
0.00893795
0.0067619
0.00236914
0.00265452
0.00471731
0.0233754
0.00693612
0.00614672
0.00164572
0.00709267
0.00682309
0.00718458
0.00177263
0.00232951
0.000264105
0.00602697
0.00528318
0.00274946
0.00246708
0.0016764
0.0100763
0.00680136
0.0116414
0.0192684
0.0198457
0.000688838
0.00861508
0.00695844
0.00671393
0.00254309
0.0185654
0.0187092
0.0203031
0.0223796
0.00452945
0.002283
0.00439394
0.00157019
0.00681617
0.00297475
0.00679298
0.00676872
0.00671716
0.00681168
0.00853303
0.00456766
0.00537026
0.020686
0.0281626
0.00288885
0.00128073
0.0092312
0.00546161
0.0183404
0.0235098
0.00174132
0.00475566
0.00294656
0.0226343
0.0221259
0.00679099
0.00677569
0.00697356
0.00176496
0.00534752
0.00164709
0.00324566
0.00418146
0.0105536
0.00685803
0.0169164
0.00277525
0.0331636
0.00348556
0.0343448
0.0024081
0.00682928
0.0110184
0.00453321
0.0242964
0.00228144
0.00245609
0.00690193
0.00151775
0.0229596
0.00425467
0.00696987
0.00885427
0.00156516
0.00652665
0.00206412
0.00714522
0.00347179
0.00156258
0.00669372
0.0254144
0.00293823
0.0069036
0.0068155
0.00465051
0.00690156
0.00684304
0.0157914
0.0240686
0.00669384
0.00679674
0.00676251
0.00200354
0.00218044
0.0262336
0.0175059
0.0039035
0.00665234
0.00329263
0.00147358
0.00622028
0.0091195
0.00696417
0.00682953
0.00493107
0.00684833
0.0153567
0.00680736
0.00669463
0.0226222
0.0218495
0.0112715
0.0103241
0.00678059
0.0063003
0.00681006
0.00307005
0.0198254
0.00668748
0.010066
0.00659138
0.0164684
0.00151777
0.00677825
0.00817964
0.00680135
0.00303538
0.00341727
0.00700295
0.00454549
0.00727977
0.00164795
0.00674766
0.00212854
0.00789865
0.00682507
0.00389961
0.00676283
0.00661261
0.00173796
0.00627436
0.0203292
0.00375334
0.00678577
0.00699566
0.0116378
0.00681533
0.00592358
0.00159601
0.00630432
0.0238396
0.00669976
0.00245094
0.0242876
0.00682622
0.00151478
0.00669871
0.00697934
0.00541005
0.00678595
0.00133082
0.00117669
0.0236828
0.00464796
0.00675668
0.00174239
0.0285371
0.00338689
0.00638857
0.0074578
0.00637676
0.00696312
0.00663736
0.0233252
0.00673981
0.00688741
0.00195592
0.00683617
0.0296944
0.00250789
0.0142079
0.00671631
0.0257564
0.00657077
0.0141547
0.00669153
0.00679163
0.00569503
0.00282649
0.0200866
0.00675583
0.015511
0.00255302
0.00395254
0.0256473
0.0064343
0.0244101
0.00710334
0.00191422
0.00726631
0.00936341
0.00669295
0.00197744
0.00812588
0.0067808
0.0067774
0.00152941
0.00319379
0.0304218
0.0144174
0.00680716
0.00688997
0.00284767
0.00323247
0.00682213
0.00178058
0.00695428
0.0223666
0.00159786
0.0148874
0.00348761
0.00271674
0.0051637
0.00313732
0.00462882
0.00336798
0.00146021
0.00285421
0.00135718
0.0245347
0.000930513
0.0067928
0.00679533
0.00494798
0.015343
0.00684307
0.0256568
0.0031837
0.00473658
0.00198172
0.0261438
0.00543507
0.00517682
0.00294238
0.00362145
0.00163452
0.00254968
0.00683838
0.0128524
0.00564786
0.0250248
0.00919303
0.00682237
0.0067064
0.00713109
0.00151909
0.0167183
0.00909002
0.00698866
0.00675487
0.00297167
0.0127311
0.0136592
0.00461949
0.00573443
0.00170991
0.0101844
0.0242918
0.00387171
0.0331796
0.00685522
0.0230814
0.00184941
0.00269053
0.0251316
0.00683461
0.00337649
0.0240512
0.00698033
0.00160127
0.00196994
0.00494835
0.0241119
0.00342287
0.00459168
0.0249051
0.0067269
0.00267768
0.00653193
0.0255734
0.000491521
0.00676123
0.00152421
0.0067598
0.00347974
0.00484452
0.00702126
0.00690981
0.00068944
0.00209644
0.00314826
0.00675382
0.00684553
0.00512862
0.0134836
0.00476083
0.0233016
0.00428653
0.0256686
0.0274427
0.00675929
0.00178948
0.0146397
0.00427137
0.0026202
0.00103029
0.0241431
0.00554513
0.0219157
0.0236475
0.00676784
0.00519224
0.0051612
0.0263608
0.00335383
0.00250809
0.0101701
0.00699904
0.0210431
0.00691398
0.00675704
0.0069048
0.00669423
0.00697946
0.0246377
0.00876516
0.00694763
0.00175631
0.00674521
0.0321242
0.00285464
0.0160964
0.0215381
0.006945
0.00264529
0.00206442
0.0140374
0.00698162
0.00669576
0.00494626
0.0061751
0.00678297
0.0253736
0.00428814
0.00355332
0.0198258
0.00387977
0.0038915
0.00553023
0.00682772
0.00681136
0.0044691
0.00168072
0.0082892
0.00162651
0.0252036
0.0240178
0.00674848
0.00679778
0.022258
0.00501226
0.00493348
0.0244789
0.00487448
0.00196951
0.00700122
0.0283726
0.00685929
0.00235219
0.00563081
0.00689298
0.00722113
0.00697708
0.0067594
0.00127759
0.00274711
0.00733297
0.00466082
0.00154131
0.00419305
0.00313572
0.00284304
0.0274809
0.00265751
0.0053634
0.0066933
0.0069648
0.00704822
0.0239283
0.0103098
0.00576278
0.00428725
0.00481742
0.00848629
0.00359199
0.00677301
0.00144322
0.00697735
0.0030838
0.00710969
0.0307736
0.00412589
0.0018755
0.0121686
0.00627442
0.0056843
0.00436851
0.00406037
0.00668746
0.00200742
0.00169219
0.00521559
0.00681831
0.00536208
0.001428
0.00401424
0.00406051
0.021663
0.00704658
0.00687999
0.00813261
0.00465652
0.00670112
0.0344736
0.00682515
0.00596724
0.00685545
0.00327606
0.00507178
0.00670859
0.0063345
0.0254643
0.00686924
0.00166388
0.0067995
0.00479819
0.00503691
0.00685244
0.00695308
0.00688007
0.0069094
0.00489292
0.00471679
0.00329406
0.00681514
0.00694711
0.0118042
0.0106533
0.00685082
0.00470639
0.00267824
0.00313965
0.0181321
0.00687518
0.00828523
0.00697321
0.00156966
0.00628524
0.0142261
0.00669979
0.00244343
0.001573
0.00671671
0.00470477
0.0198102
0.00192436
0.0190479
0.00679673
0.0155711
0.0067675
0.00681051
0.00686089
0.0068838
0.00801144
0.0015342
0.00483826
0.0230427
0.00294016
0.00675683
0.0268283
0.0079828
0.00235671
0.00186228
0.00343136
0.0167367
0.0261632
0.00678409
0.0150175
0.0193674
0.0230678
0.00314117
0.00462384
0.0167076
0.00558032
0.00266033
0.0101669
0.0323036
0.00459281
0.0322818
0.0242516
0.00669361
0.00578926
0.00155223
0.00686422
0.00351384
0.00680738
0.00699345
0.00696636
0.0013451
0.00342225
0.0333582
0.0226843
0.00681092
0.00617441
0.0121998
0.00291548
0.00634238
0.00168012
0.00669199
0.00696024
0.00625167
0.0267991
0.00263536
0.00137006
0.011754
0.00671476
0.00380659
0.0128218
0.0238211
0.00189426
0.00912218
0.0242485
0.00697255
0.00688678
0.0276903
0.0235205
0.00201204
0.00186205
0.00270592
0.00669756
0.00684425
0.0310593
0.00670724
0.00356473
0.00669708
0.00678908
0.0255566
0.0013436
0.00454943
0.00670524
0.0270014
0.0056712
0.00685636
0.00679573
0.00683704
0.00680453
0.00632786
0.0145046
0.0146246
0.0234539
0.016388
0.00156603
0.00429187
0.0116437
0.00544248
0.0017321
0.00669104
0.00655171
0.00226558
0.0262221
0.0212154
0.00138363
0.00204426
0.00690848
0.00267723
0.00635231
0.0170672
0.00157041
0.00680745
0.00417237
0.00681477
0.0022606
0.00719389
0.00558519
0.00698437
0.00252097
0.00612914
0.00153742
0.0229995
0.0040352
0.00279566
0.00324383
0.00689598
0.00245641
0.0049848
0.0228938
0.0066088
0.00686221
0.0243344
0.0059528
0.0186632
0.0227924
0.0187563
0.0342293
0.00685105
0.0245474
0.00683305
0.00680151
0.00669899
0.00679526
0.00677304
0.00452268
0.00344224
0.00669967
0.0277924
0.00146774
0.0301723
0.00699419
0.00671324
0.00687847
0.0134843
0.0291741
0.00137123
0.00210244
0.00683279
0.0069504
0.00681408
0.00699261
0.0187078
0.0195551
0.0060517
0.00669871
0.00687828
0.00699576
0.0281249
0.00600334
0.00266422
0.0226281
0.0150551
0.00697464
0.00384197
0.00483937
0.00173966
0.0320304
0.00450234
0.00490024
0.00142098
0.00483656
0.0116562
0.00683953
0.0167401
0.00714724
0.00148302
0.0147628
0.00692571
0.00618252
0.00282426
0.00682085
0.00258369
0.00766266
0.0102702
0.00157529
0.0238109
0.0049843
0.00669362
0.00697512
0.014122
0.0105554
0.00302597
0.0234617
0.00692939
0.00646906
0.00669498
0.0166759
0.0225054
0.00381338
0.00667429
0.00495997
0.00252533
0.00685371
0.00742864
0.00338393
0.0174183
0.00672382
0.00646196
0.00481156
0.00185277
0.00758077
0.00643329
0.0260472
0.0068504
0.00495888
0.0117478
0.00168238
0.0028802
0.0189941
0.0053582
0.00618464
0.0205512
0.00688187
0.00674333
0.00490945
0.00688487
0.00937509
0.00210738
0.00156396
0.00461088
0.00542554
0.00692041
0.00822629
0.0067877
0.00536959
0.00672738
0.00696547
0.00678749
0.0233882
0.00699608
0.00670061
0.00262922
0.00654225
0.0075431
0.00718336
0.00634246
0.00142884
0.0295212
0.00631396
0.00681855
0.00232231
0.0237855
0.00475765
0.0258582
0.00159809
0.00686526
0.00504535
0.00398427
0.00248388
0.00302513
0.00681921
0.00669515
0.00540351
0.00156168
0.00244164
0.00358016
0.00502567
0.00678837
0.00639459
0.00141059
0.00580382
0.00138138
0.021111
0.00668737
0.00153327
0.00146673
0.0257376
0.00396289
0.0257731
0.0204383
0.00664223
0.0181505
0.0020416
0.027355
0.00943161
0.0232745
0.00391654
0.00229311
0.00687367
0.00457599
0.00957593
0.0168749
0.00692819
0.00702682
0.00159773
0.00529154
0.00671534
0.00304963
0.0069126
0.00693738
0.00966187
0.00495426
0.00471625
0.00680539
0.0067562
0.00269272
0.0176971
0.000444319
0.00590749
0.0237192
0.022973
0.0290983
0.00159642
0.00160746
0.00529737
0.00652458
0.018108
0.00144618
0.00456641
0.0047637
0.00169772
0.0109343
0.0269062
0.00960478
0.00687687
0.00174688
0.00685127
0.0027628
0.00621892
0.029485
0.00241513
0.017147
0.00671122
0.00144774
0.00691227
0.0182565
0.00161084
0.00172645
0.0222866
0.00165814
0.00313836
0.00682777
0.00154506
0.00718538
0.0024696
0.00372018
0.00352178
0.00684298
0.00796658
0.00664695
0.00641256
0.025388
0.00708891
0.00902688
0.00370278
0.00487179
0.00694283
0.0162065
0.00663841
0.0196387
0.0142908
0.00698838
0.00269549
0.0220504
0.007607
0.0219393
0.00690052
0.00676842
0.0191622
0.0143368
0.0015179
0.00308369
0.0061273
0.00554363
0.0143578
0.0013908
0.0067017
0.0020893
0.00681608
0.00678169
0.00457297
0.00702096
0.0302817
0.00303968
0.0069365
0.00624051
0.00693264
0.00473521
0.00392478
0.0203426
0.00198306
0.0260846
0.00690263
0.00202807
0.00696001
0.00681988
0.00687421
0.00694224
0.00788187
0.00686069
0.00157807
0.00688535
0.0029662
0.00442612
0.00211898
0.0068017
0.0289963
0.00235293
0.0234096
0.00203362
0.00199949
0.00303816
0.0020161
0.00335434
0.0298688
0.0197357
0.0037041
0.00170895
0.0133346
0.00665957
0.00150836
0.00164233
0.0228666
0.00679871
0.0148335
0.00697742
0.00698857
0.00919251
0.0066686
0.0230383
0.00271602
0.00686825
0.00395776
0.00686223
0.00675716
0.00683334
0.00452277
0.0176923
0.00698406
0.0173817
0.0130511
0.00220033
0.0115328
0.00689029
0.00678615
0.00644618
0.00696371
0.00684359
0.00157611
0.0037879
0.00699555
0.00664968
0.0071156
0.00825229
0.0188036
0.00258817
0.0237612
0.0176732
0.00684866
0.00365194
0.00224095
0.00698206
0.0199937
0.00334236
0.00332303
0.00677514
0.0218717
0.00590179
0.0135409
0.00678286
0.026085
0.00236121
0.00240308
0.00682562
0.00692779
0.0330676
0.00190634
0.00650667
0.00694152
0.00683823
0.00300143
0.00625802
0.0288194
0.00500219
0.0332478
0.0227041
0.0119486
0.00695489
0.00695288
0.00264797
0.00477543
0.00220522
0.0154426
0.00167994
0.00368068
0.00617857
0.0159243
0.00698683
0.00945821
0.0248818
0.0205132
0.0175186
0.00682487
0.00683121
0.00673864
0.00728097
0.00332689
0.00678318
0.00673475
0.00695073
0.00162378
0.00673479
0.00695608
0.00429838
0.00178902
0.0205139
0.00325477
0.0042093
0.00678668
0.00144609
0.026255
0.00298498
0.0179613
0.0273494
0.00155193
0.00677311
0.00138556
0.0068127
0.00701023
0.00677251
0.00517689
0.000457836
0.0109268
0.00217522
0.00493533
0.00681445
0.00717552
0.00682455
0.00302821
0.00422372
0.00673958
0.00183106
0.00265677
0.0101638
0.00684564
0.0325969
0.00677935
0.0285071
0.00166017
0.0263662
0.00136783
0.0015721
0.0241014
0.0133889
0.01405
0.0242051
0.0068135
0.0160312
0.00673187
0.00365074
0.00189211
0.00619801
0.0128959
0.00232543
0.00210083
0.00425564
0.0155065
0.00403586
0.00675889
0.00251643
0.00348469
0.00684038
0.00439844
0.0220617
0.017559
0.0244455
0.00677331
0.00189284
0.00579028
0.0160158
0.0253776
0.00266655
0.0068316
0.00404441
0.0160206
0.00201547
0.0329338
0.0275773
0.00426659
0.0067679
0.0239083
0.00450155
0.00172828
0.00199824
0.0257355
0.0110098
0.00637228
0.00207461
0.00648975
0.004963
0.00693131
0.00355186
0.00294786
0.0117344
0.00489403
0.00180175
0.00839274
0.00315909
0.0259426
0.0172636
0.00693922
0.0224598
0.0161088
0.0247397
0.0254927
0.00677404
0.00695678
0.00423144
0.0265628
0.0142392
0.00673619
0.00688228
0.00694134
0.00818838
0.00583346
0.00464191
0.00316507
0.00148039
0.031417
0.0233299
0.0119304
0.00680237
0.0259002
0.00210961
0.00696231
0.00835238
0.0288716
0.0057629
0.00698389
0.00144181
0.0260639
0.00670157
0.00677841
0.0141072
0.00686565
0.00634445
0.00677256
0.013195
0.00695883
0.0017197
0.0215463
0.0256544
0.00316977
0.00515429
0.00300139
0.0277004
0.024337
0.0285471
0.00436461
0.00684136
0.0264996
0.00682164
0.00676152
0.00684161
0.00329072
0.00697878
0.0185073
0.00698045
0.00613796
0.00488243
0.00197152
0.0299219
0.00331292
0.00626468
0.0068498
0.0017915
0.0244581
0.0105598
0.00680374
0.00155047
0.020214
0.00683613
0.0069338
0.0158038
0.0018059
0.00256312
0.00482874
0.00919207
0.00605343
0.0225947
0.0233674
0.00422368
0.00649426
0.00395418
0.0327866
0.00157921
0.00676589
0.0022301
0.00684995
0.00677832
0.0162579
0.015343
0.00612505
0.00615209
0.00222451
0.00791266
0.00302234
0.00331545
0.00696505
0.00245611
0.00473572
0.00676672
0.00319074
0.0249262
0.0202055
0.0329409
0.02628
0.003434
0.0191045
0.025095
0.00178022
0.00677396
0.00698851
0.00983541
0.00687448
0.0163829
0.00676898
0.0034184
0.00585102
0.0263096
0.025903
0.0153972
0.00665515
0.0239102
0.00398705
0.00432178
0.00677282
0.00691862
0.00781676
0.00282425
0.0118151
0.0156728
0.00329301
0.000507953
0.0067602
0.00299072
0.00685666
0.00404144
0.0063598
0.00343615
0.00669751
0.00677964
0.0109524
0.00361602
0.00236028
0.00675092
0.00205107
0.020855
0.00411718
0.00700087
0.00168024
0.00727725
0.00266113
0.00655813
0.0276316
0.0186679
0.00167603
0.00238527
0.00678632
0.0037253
0.00697139
0.00520887
0.00675462
0.00693649
0.0064342
0.0242349
0.00222779
0.00560239
0.0048218
0.00717161
0.00141825
0.0241586
0.0255468
0.0017382
0.00692474
0.00500047
0.0067642
0.00693579
0.0164947
0.0175733
0.00714215
0.0043406
0.001242
0.0235515
0.00431593
0.00378238
0.0156465
0.00339169
0.00466869
0.0188107
0.0259542
0.00695204
0.00648204
0.00685956
0.023835
0.000999109
0.00188338
0.000552565
0.0160238
0.00303524
0.0261333
0.0335544
0.00680488
0.026563
0.00154893
0.00677354
0.00782321
0.00690407
0.0069123
0.00688796
0.0151732
0.00395202
0.0106387
0.00370865
0.00295687
0.00171848
0.00717471
0.0194894
0.0259802
0.0176414
0.00360788
0.0016779
0.00981573
0.00689235
0.00168931
0.00583641
0.00688067
0.00484327
0.00693204
0.0030244
0.00360604
0.00685653
0.0154659
0.0176705
0.00201931
0.00557586
0.00671747
0.00715182
0.00252899
0.00246355
0.00259234
0.00158086
0.00196414
0.00229517
0.00346987
0.0338216
0.00273882
0.0259429
0.00699367
0.00699875
0.0168047
0.0175647
0.00511924
0.00304615
0.00679413
0.00874752
0.0179604
0.00691328
0.00197924
0.00678395
0.0016266
0.00159641
0.00616923
0.00468665
0.0187271
0.00303194
0.0280935
0.00358988
0.00679702
0.00210042
0.0203293
0.00673631
0.00246231
0.00152358
0.00669229
0.00676279
0.00677837
0.0031563
0.0255056
0.0217032
0.00458264
0.0219761
0.00274164
0.00306712
0.00253582
0.00696388
0.00677978
0.00692604
0.0263746
0.00687838
0.0262488
0.00360554
0.00307727
0.0140906
0.0170918
0.00594159
0.0254702
0.00156924
0.00675342
0.00646441
0.0253427
0.0243283
0.00218206
0.00678735
0.00677975
0.00189552
0.00229202
0.00678775
0.0328707
0.00260999
0.00690373
0.000471975
0.00510242
0.00385927
0.0256518
0.00678387
0.00159645
0.00683164
0.0246951
0.00679366
0.0203399
0.00677742
0.00280253
0.00432268
0.00680504
0.00277708
0.00174441
0.00170228
0.0112501
0.0213396
0.00223591
0.00211572
0.0069645
0.025415
0.014458
0.00681632
0.00680452
0.0207246
0.00669123
0.00827143
0.00723666
0.00394902
0.00188848
0.00489215
0.00349719
0.00626032
0.00680062
0.00151496
0.0252797
0.00685292
0.00268818
0.00528369
0.0240837
0.0230526
0.00341398
0.00985678
0.00188578
0.0236336
0.00680448
0.0133827
0.0145817
0.012584
0.0155789
0.0327292
0.00663233
0.00413489
0.00698834
0.00240465
0.0216355
0.0241481
0.0102938
0.00292515
0.0337874
0.0183553
0.00340138
0.00605147
0.0062537
0.0112473
0.00300414
0.00152571
0.00672544
0.00681154
0.00681151
0.006889
0.0246773
0.0178577
0.00249711
0.0165961
0.0254676
0.00670443
0.00684991
0.00693366
0.00495262
0.019234
0.0183196
0.00329812
0.00666445
0.0036868
0.00164409
0.00156894
0.00178926
0.0023655
0.0256689
0.0018589
0.00453611
0.00682356
0.00673883
0.00158463
0.00748625
0.00842441
0.0136689
0.00186191
0.0269799
0.00578361
0.00244221
0.00715393
0.00503842
0.0183526
0.0168462
0.00323091
0.00256344
0.00692611
0.00679511
0.006756
0.00693104
0.00345436
0.00231017
0.00343482
0.0028881
0.0280147
0.031438
0.023178
0.00468382
0.0020297
0.0138732
0.00336094
0.0300879
0.0121314
0.00680675
0.00399167
0.0021802
0.00414138
0.00702685
0.00303188
0.00312322
0.0145566
0.00679525
0.00283549
0.00666522
0.0213323
0.0111537
0.00256104
0.00672254
0.0102509
0.0253943
0.00732416
0.0188621
0.00247411
0.00489332
0.0068163
0.0344027
0.0162982
0.00166213
0.00175259
0.0247892
0.0115906
0.006985
0.00684387
0.00247245
0.0250484
0.0250217
0.00679928
0.00668378
0.00358943
0.00699914
0.00684935
0.0207527
0.0247823
0.00482978
0.00467616
0.00606254
0.00339791
0.00689396
0.0108458
0.00677295
0.026334
0.00583363
0.0285297
0.0041538
0.00686228
0.00590147
0.00311421
0.0200573
0.00251682
0.0286655
0.00680742
0.00691256
0.00685486
0.0018735
0.00157897
0.00156494
0.00367147
0.0264484
0.00248171
0.00757603
0.00373869
0.0341366
0.00679707
0.0105679
0.0154177
0.00188183
0.0108473
0.00147416
0.0125241
0.00640744
0.00202256
0.00690719
0.0293524
0.00291461
0.00213234
0.0255663
0.00597376
0.00144262
0.00620957
0.00797222
0.006772
0.00678544
0.0166435
0.00120287
0.0159617
0.0235734
0.00143764
0.00223986
0.00687949
0.0312186
0.00442889
0.00676206
0.00625187
0.00683482
0.00165162
0.00693155
0.0226366
0.00675815
0.0220175
0.0054602
0.00435606
0.00279241
0.00247445
0.0246602
0.00693825
0.0191993
0.0170898
0.00681141
0.00688212
0.00396517
0.00399565
0.00192002
0.00679697
0.00347652
0.00153818
0.00483033
0.00262654
0.00685753
0.0043371
0.00691192
0.0247532
0.00690743
0.00696881
0.0196677
0.002199
0.0316634
0.0258723
0.00139919
0.00574447
0.00245287
0.00366002
0.00354173
0.00418014
0.00681932
0.00222237
0.00530956
0.0219053
0.0235072
0.00376574
0.0113919
0.0028462
0.0038514
0.00504059
0.0263224
0.00679447
0.00241547
0.00675617
0.0254748
0.0187524
0.00543021
0.00681787
0.00271877
0.00606091
0.00688166
0.00634956
0.00685802
0.00421533
0.00312727
0.0260673
0.00683202
0.00232218
0.00230929
0.0213604
0.00671832
0.0178219
0.00612021
0.00357944
0.0216361
0.0239445
0.0330098
0.00623596
0.00591382
0.00326613
0.00291435
0.00686552
0.00685217
0.0256578
0.00674116
0.0142665
0.00706271
0.0255537
0.00640809
0.0150958
0.00689198
0.00377961
0.00307515
0.00682154
0.0194249
0.00282893
0.0179259
0.0106424
0.0175367
0.0019461
0.0015197
0.0186951
0.0253225
0.00684466
0.00389096
0.00691024
0.00669699
0.00682731
0.00593481
0.00687717
0.0119497
0.0045289
0.00436608
0.00357032
0.00619697
0.0151058
0.00237684
0.00680669
0.00249646
0.00168655
0.0195976
0.0067786
0.00671096
0.00676807
0.012993
0.00674001
0.00376137
0.0104486
0.00171188
0.00195468
0.00677307
0.00346955
0.00458951
0.0200508
0.00676157
0.00575149
0.0016591
0.00690587
0.0115239
0.0163427
0.00677076
0.00144738
0.00307413
0.0127767
0.00492629
0.00621701
0.00448345
0.00466477
0.00251551
0.0239923
0.00677881
0.00598442
0.00611703
0.00155571
0.00172546
0.00672737
0.0136189
0.00690614
0.0104955
0.00324052
0.0017695
0.025813
0.00972895
0.00370341
0.0135858
0.0229681
0.00676111
0.00388689
0.000701042
0.00174916
0.00285201
0.0276802
0.0067847
0.00354512
0.00482476
0.00312319
0.00675437
0.00433985
0.0114527
0.00166048
0.0287516
0.00356529
0.00278624
0.00137046
0.0271801
0.00171502
0.0249002
0.018813
0.0128524
0.00683505
0.0273175
0.026408
0.0198528
0.00678851
0.0065258
0.00690899
0.0249861
0.00542957
0.00366484
0.00331652
0.00468993
0.0068567
0.00678973
0.020267
0.020725
0.00906105
0.0160244
0.0068635
0.0232798
0.0261895
0.00379624
0.00837181
0.0131477
0.00382379
0.00286775
0.00248703
0.00190831
0.0244959
0.0265687
0.00666181
0.00579319
0.00671721
0.00687389
0.0312101
0.0126933
0.0261125
0.00244614
0.00277202
0.00454478
0.00676313
0.0263849
0.0154441
0.00683305
0.00146677
0.0101438
0.00685604
0.00690335
0.0265518
0.0213762
0.00383243
0.00678536
0.00299012
0.00603975
0.00253439
0.00409698
0.00687938
0.00322642
0.0134824
0.0244112
0.00293128
0.0277219
0.00679478
0.003956
0.017402
0.0259393
0.00460407
0.00315638
0.0067549
0.00184585
0.00625512
0.00661419
0.00198964
0.00691756
0.0176096
0.00355978
0.00698026
0.00406733
0.0277124
0.0184222
0.00926884
0.00686813
0.00662631
0.0260063
0.0168802
0.00229319
0.00681497
0.00678866
0.00707822
0.00689489
0.00679497
0.00225228
0.006878
0.0170353
0.00307561
0.00494855
0.00294878
0.00679984
0.00686448
0.0149947
0.00315812
0.00160374
0.0100915
0.0029089
0.00432355
0.00675283
0.00690881
0.00692706
0.00489897
0.00675983
0.00197107
0.0256272
0.00627172
0.00161149
0.00962194
0.00471165
0.00697781
0.00678451
0.00236759
0.0317672
0.00694816
0.0273866
0.0194949
0.00319432
0.00649907
0.00363646
0.00680888
0.00408678
0.0067557
0.00681449
0.00671346
0.00695017
0.0042825
0.0263219
0.00246846
0.00196266
0.0324965
0.00238817
0.00333728
0.00175772
0.0122323
0.00852934
0.00146386
0.0309881
0.0265368
0.000561656
0.00317569
0.00409574
0.00686828
0.0296786
0.0069663
0.00279407
0.0292532
0.004903
0.0328427
0.018289
0.00697051
0.00635274
0.00691271
0.00434654
0.00689452
0.00505877
0.0154188
0.0263163
0.0201593
0.0069107
0.00681132
0.00158431
0.00658024
0.0166031
0.00519611
0.0197311
0.00686598
0.0235119
0.00993921
0.0027648
0.00522853
0.00689952
0.00679902
0.00605773
0.00687946
0.00692106
0.00282717
0.0160165
0.00164138
0.0116952
0.00372514
0.0267028
0.0108471
0.00679703
0.00679214
0.00650863
0.00676073
0.0042699
0.00304641
0.0289426
0.0193699
0.0253095
0.00226198
0.0162232
0.0131108
0.0251873
0.0130984
0.00688311
0.00696543
0.00374275
0.00690715
0.00677968
0.0139792
0.0168166
0.0231803
0.00692046
0.00690779
0.00591044
0.00202777
0.0285473
0.00691481
0.00574224
0.0198028
0.00686455
0.0121418
0.00215179
0.0293624
0.00455416
0.0186067
0.00740319
0.00332833
0.0264192
0.000818526
0.0114773
0.00680347
0.00337811
0.00696894
0.00237721
0.022816
0.00711073
0.00632764
0.00657153
0.006841
0.0067773
0.0246859
0.00162928
0.0016672
0.00951848
0.00678083
0.00307001
0.00851974
0.00248292
0.00685353
0.00613938
0.0068996
0.0030585
0.00685195
0.00695749
0.0242432
0.0261077
0.0244973
0.0236534
0.0213086
0.0145748
0.0014815
0.0254152
0.00806139
0.00678756
0.00697873
0.00669288
0.00681851
0.0263469
0.0263262
0.00685728
0.00474734
0.0224938
0.00178101
0.00632014
0.00658919
0.0285548
0.0265669
0.0155803
0.0305484
0.0163599
0.00669221
0.0202824
0.000561544
0.00378765
0.0252591
0.00682193
0.0020131
0.0112517
0.00311596
0.00868519
0.00672161
0.00493817
0.012911
0.0178752
0.00151298
0.00231756
0.00499695
0.00106356
0.0170525
0.0225375
0.0172413
0.000664527
0.02732
0.00689497
0.00554761
0.00166607
0.00762696
0.00646799
0.0108644
0.00679806
0.00464826
0.00200561
0.00683025
0.0265152
0.00680227
0.00432457
0.00775065
0.00678477
0.0319799
0.0304898
0.0205333
0.0279546
0.0249178
0.0033447
0.00697355
0.0263054
0.00660529
0.0068528
0.00171751
0.00266221
0.0147387
0.00244045
0.00659581
0.00272682
0.0069582
0.0275888
0.00371779
0.000663643
0.00381245
0.00681064
0.00943303
0.000540769
0.006271
0.00602333
0.0191058
0.0067522
0.00732686
0.00393571
0.0226643
0.00352193
0.00685333
0.000594361
0.0035576
0.0262083
0.01584
0.00162328
0.018951
0.00527794
0.00679452
0.0300695
0.0022115
0.00690107
0.0242802
0.00153257
0.00683484
0.00698763
0.00991296
0.004085
0.00816127
0.0197631
0.00501195
0.0128795
0.00149416
0.00192929
0.00694881
0.026162
0.00385561
0.0175099
0.00679414
0.00685546
0.00152547
0.00274525
0.00389596
0.00688596
0.0115181
0.00687924
0.0132403
0.0067863
0.00491495
0.0190494
0.000543878
0.00986952
0.0124091
0.0263199
0.0150606
0.00669755
0.0204978
0.0222117
0.00642178
0.00679497
0.0206094
0.00413331
0.016739
0.000555127
0.0235889
0.016454
0.0260487
0.00147523
0.0193172
0.00681716
0.00159344
0.00155648
0.00679809
0.00163131
0.0151808
0.00386479
0.0174243
0.0201368
0.00682136
0.00696904
0.00456606
0.00680415
0.0202891
0.00693065
0.00698726
0.0258052
0.0168496
0.00398038
0.000536145
0.00682113
0.0015243
0.00702078
0.015209
0.00863138
0.00202741
0.0155587
0.00614265
0.00676714
0.00230953
0.0119864
0.0169102
0.0198914
0.0176717
0.00325755
0.00699199
0.00681341
0.00403256
0.00213109
0.0109305
0.0228898
0.00227588
0.0264823
0.00799472
0.00339666
0.0206033
0.006886
0.00206512
0.00254347
0.00683413
0.00639886
0.00219608
0.00253475
0.0277613
0.0149901
0.00693165
0.00143394
0.00212845
0.0019053
0.0207125
0.0325739
0.0260091
0.00671971
0.00155828
0.0254124
0.00156167
0.000601885
0.00363591
0.0281966
0.0260096
0.0250481
0.00690613
0.0270353
0.00686385
0.00610721
0.00689872
0.00190663
0.0260793
0.00350804
0.0117452
0.0155575
0.00177658
0.00675748
0.00678629
0.00690492
0.00678413
0.00177314
0.0258719
0.0236699
0.00151329
0.00279898
0.00680869
0.00189137
0.00682461
0.0195624
0.00217794
0.00676122
0.0131126
0.000536539
0.0346929
0.00940736
0.010106
0.00291681
0.00299265
0.0183787
0.0169325
0.0255221
0.0221584
0.00618735
0.00198451
0.00691888
0.0264225
0.00541698
0.001741
0.0240782
0.0179693
0.0207809
0.00194672
0.0158853
0.00329144
0.0067777
0.000479646
0.00230463
0.00257012
0.00203786
0.00220623
0.00223027
0.00796926
0.010646
0.00482299
0.00261985
0.00178638
0.00333563
0.00621965
0.0326623
0.0026082
0.00380727
0.0125018
0.00691746
0.0133782
0.00678359
0.00566731
0.0038539
0.0139152
0.00296484
0.0168764
0.0226453
0.00200237
0.00325311
0.000498124
0.0198599
0.00321407
0.0205352
0.00676611
0.00148696
0.00686325
0.0138607
0.00576668
0.00677691
0.00696346
0.00317029
0.00224582
0.00313858
0.00157115
0.00147227
0.0062248
0.00385267
0.0244028
0.00670064
0.00249419
0.00173084
0.00673191
0.018308
0.00174335
0.00145956
0.00288345
0.00150638
0.0341364
0.00679402
0.00658811
0.00569468
0.0039458
0.00693596
0.0122017
0.00383545
0.0272558
0.00352993
0.0264448
0.0170965
0.00202491
0.0205089
0.00143659
0.0168382
0.0140298
0.00314318
0.0026634
0.00153965
0.00191396
0.00568221
0.0189301
0.00861511
0.0121908
0.0067794
0.0171833
0.0254295
0.0328187
0.00681179
0.00172561
0.00689352
0.00241157
0.0290093
0.00233817
0.00230591
0.0068453
0.0067875
0.0301133
0.0123652
0.00690172
0.0332449
0.0181419
0.00676687
0.00584126
0.0136061
0.00364427
0.000540196
0.00686337
0.00236229
0.0016896
0.00694555
0.00700062
0.0310552
0.00209309
0.0124981
0.0015171
0.00200205
0.0260649
0.00564524
0.0146389
0.00683581
0.00428456
0.00173808
0.00222511
0.0244801
0.0016457
0.006845
0.00153757
0.00262455
0.00546854
0.00681206
0.0310376
0.00691898
0.00221445
0.0270876
0.000539866
0.0069485
0.0232985
0.0018045
0.0230512
0.020069
0.0103209
0.00275272
0.0169715
0.00680667
0.00164738
0.00205576
0.00681605
0.00446384
0.0323635
0.00194961
0.00242971
0.0059206
0.00157099
0.00984767
0.00199513
0.00360329
0.00777644
0.0252245
0.0175395
0.0168966
0.00630969
0.00696974
0.00223532
0.00368999
0.0191135
0.0341819
0.019775
0.0331765
0.0242388
0.00678806
0.0237699
0.00678207
0.00283069
0.00688545
0.00455272
0.0174156
0.00225984
0.00698347
0.0112375
0.00213716
0.00879344
0.00684035
0.00219974
0.00178292
0.00145545
0.00197264
0.0006717
0.00251081
0.0192246
0.00951289
0.00685164
0.0105199
0.0182099
0.00307127
0.0067734
0.00210123
0.00676995
0.00699326
0.00145214
0.00544958
0.0115678
0.0180202
0.00145017
0.00243694
0.00674331
0.0332559
0.00160667
0.0340777
0.00309353
0.00342684
0.00389963
0.00363338
0.00388993
0.00264725
0.00639119
0.00513738
0.0067954
0.0261307
0.00181484
0.00282967
0.00491492
0.00291424
0.00689473
0.00317415
0.022073
0.00680902
0.002063
0.0258056
0.000719415
0.00169515
0.0253222
0.0313414
0.0238223
0.00908536
0.0328439
0.00215768
0.0243722
0.00386935
0.00195052
0.0069136
0.00688462
0.00956812
0.0108189
0.00409967
0.00695142
0.00254097
0.000896676
0.00673294
0.00604624
0.00179332
0.00695163
0.0037151
0.021039
0.00190765
0.0015168
0.00284673
0.00670899
0.00171618
0.00158071
0.00269086
0.0257451
0.00167761
0.0288658
0.016902
0.014332
0.00599904
0.0251713
0.0158697
0.00575836
0.00199314
0.0164392
0.00151486
0.00336955
0.0014859
0.00162491
0.00227
0.00195321
0.00698309
0.00680191
0.00681522
0.00271207
0.0125668
0.00688745
0.000752953
0.00562318
0.00231233
0.00358451
0.0210349
0.00240644
0.00216577
0.00689646
0.00345513
0.00306038
0.00690927
0.00351335
0.00245442
0.00688465
0.00286586
0.00457474
0.00681194
0.0345585
0.0023285
0.0181865
0.0122058
0.0208514
0.00161509
0.00200377
0.00402001
0.00161374
0.00576083
0.00195703
0.0319402
0.0265583
0.0205213
0.00222684
0.00177578
0.00669258
0.0339732
0.00331143
0.0264225
0.00666025
0.0237172
0.00527734
0.0330043
0.0293779
0.00680691
0.00678489
0.00687802
0.00171013
0.0265581
0.0028985
0.0229791
0.00332926
0.00177232
0.00696733
0.00409903
0.00386163
0.00253897
0.00367933
0.00680921
0.0193294
0.00375855
0.0254731
0.00663993
0.019861
0.00690821
0.00685035
0.000795415
0.00417319
0.00269281
0.00154864
0.00306305
0.00192192
0.0067911
0.0058453
0.00690015
0.00322628
0.0159239
0.00686451
0.00259357
0.003762
0.00382701