/*--------------------------------*- C++ -*----------------------------------*\
| =========                 |                                                 |
| \\      /  F ield         | OpenFOAM: The Open Source CFD Toolbox           |
|  \\    /   O peration     | Version:  v2012                                 |
|   \\  /    A nd           | Website:  www.openfoam.com                      |
|    \\/     M anipulation  |                                                 |
\*---------------------------------------------------------------------------*/
FoamFile
{
    version     2.0;
    format      ascii;
    class       volVectorField;
    location    "1000";
    object      ddtCorrDdt0(U);
}
// * * * * * * * * * * * * * * * * * * * * * * * * * * * * * * * * * * * * * //

dimensions      [0 1 -2 0 0 0 0];


internalField   nonuniform List<vector> 
13917
(
(-0.0136925 -0.000359139 -2.82935e-18)
(0.00269606 0.001982 -1.03501e-19)
(-0.022257 -0.00644736 1.45079e-17)
(0.00138561 -0.000481812 4.90965e-18)
(0.000974446 0.00172654 7.27393e-20)
(0.00251839 0.00200896 7.56965e-20)
(0.00248386 -0.00115755 1.24375e-17)
(0.00598638 0.00103411 -1.39211e-19)
(0.00169302 -0.00179311 1.52406e-17)
(-0.00131236 -0.000786058 -1.44364e-17)
(0.0054157 0.00110742 -5.5366e-20)
(0.00117055 -7.05516e-05 8.20593e-18)
(0.000283613 -4.88727e-06 5.48687e-18)
(-0.017695 -0.0148317 -1.91192e-18)
(0.00153132 0.00139378 -1.17247e-19)
(-0.0131076 -8.17635e-05 1.27301e-18)
(-0.00022655 1.0019e-05 3.27656e-19)
(0.0046605 0.000612677 -2.32047e-19)
(0.0052977 -0.00227211 1.00248e-17)
(-0.0119036 -0.00264188 1.92903e-17)
(0.00244302 0.000500826 -2.87691e-19)
(0.000600549 0.000708423 1.0725e-18)
(0.00410775 -0.00178416 -1.40319e-17)
(0.000574531 0.000706916 -9.21096e-19)
(0.00187886 -0.000198376 -1.86343e-18)
(0.00250612 0.000464128 -3.02884e-18)
(-0.0126216 0.0114213 8.09062e-19)
(-0.000839442 -0.00158789 1.89211e-17)
(0.00314896 0.000279877 1.41209e-19)
(-0.00203934 0.000652585 -1.17598e-20)
(-0.000957025 -0.00208932 -7.93156e-18)
(0.00469882 -0.00313832 -1.53106e-17)
(0.00148392 -0.000223125 2.0565e-18)
(-0.0150143 -0.00153288 -1.20067e-17)
(0.000138085 9.86832e-05 -8.22861e-20)
(0.00670197 0.00150787 8.60888e-19)
(0.00186876 0.000485132 -4.84291e-18)
(0.000113049 8.57595e-06 -1.97851e-18)
(0.00249193 -0.0012195 -1.36315e-17)
(0.00282335 0.000751864 -3.81911e-18)
(-0.000399711 1.70033e-05 -3.5387e-19)
(0.000176117 -8.28256e-05 -2.24695e-19)
(0.00144428 -0.00149287 -8.0974e-18)
(0.00592814 -0.00272718 3.04931e-17)
(0.00604281 -0.00261618 -3.00832e-18)
(-0.00523134 -0.00427032 -3.05785e-18)
(0.00242895 0.000499459 1.4121e-18)
(-0.0145005 -0.00121268 9.87965e-18)
(0.00554595 0.014661 4.19501e-19)
(0.000129432 0.000104626 -9.97586e-19)
(0.0011418 -5.86564e-05 -8.03842e-18)
(0.00612155 -0.00138094 1.3895e-17)
(-0.0132168 -0.00135963 -2.00698e-17)
(0.00105629 0.000329099 -3.73425e-19)
(0.00113617 0.00028874 2.80552e-18)
(0.0059903 -0.00144916 -1.72809e-17)
(-0.000481264 -0.00408759 1.23002e-17)
(0.00410786 -0.00171909 1.01153e-18)
(0.000203029 -6.67581e-05 -2.27884e-19)
(-0.00581734 -0.00439849 1.92265e-18)
(-0.021443 -0.0127905 -7.13508e-18)
(0.000294113 -7.91156e-05 3.35674e-19)
(-0.00142339 2.71515e-05 -1.70853e-20)
(0.00183014 -0.000206501 -7.49179e-18)
(-0.0240688 -0.00503069 2.89823e-17)
(-0.00932663 -0.0124058 3.1794e-20)
(0.00353422 0.000287384 -3.5271e-19)
(0.0066554 0.00217389 -3.88281e-19)
(0.00507796 0.000463824 -1.07394e-19)
(-0.0136141 -0.00133336 7.20731e-18)
(-0.026111 -0.0058141 -1.34487e-17)
(-0.0146023 -0.00136557 1.77873e-17)
(0.000864209 -0.00048409 -5.00784e-19)
(0.000191682 -2.63806e-05 -7.51466e-19)
(0.00244732 0.000503586 3.74187e-20)
(0.00196829 6.02649e-05 -5.53269e-18)
(0.000785509 0.00124391 -2.61623e-19)
(0.00020719 -7.37357e-06 -1.27689e-19)
(0.00192306 4.54529e-05 1.60779e-18)
(0.00152645 -0.000223623 -1.20911e-17)
(0.00112886 0.000677373 7.49825e-19)
(-0.000181714 6.93698e-06 2.29947e-20)
(0.000831756 -0.000474407 3.15144e-18)
(-0.0246869 -0.00574019 -3.53699e-17)
(0.000442056 5.34523e-05 -7.86039e-19)
(0.00367034 -0.00387732 1.77312e-18)
(0.00459374 -0.00309244 -4.51659e-19)
(0.000429998 2.93916e-05 7.72136e-18)
(0.00274643 0.000708618 7.04379e-18)
(-0.000264626 1.41885e-05 -3.00578e-19)
(-0.000346524 4.19385e-05 1.83161e-20)
(0.0014532 -0.00154557 3.00609e-19)
(0.00541488 0.0151978 1.13552e-19)
(0.000110727 0.00010616 -9.94482e-19)
(0.00132896 0.000464947 -3.10273e-18)
(0.0033133 0.000135056 -2.88674e-19)
(-0.00945107 0.00482061 2.04718e-18)
(-0.000100872 5.23093e-06 -2.08081e-18)
(0.000435333 2.87814e-05 -3.03665e-18)
(-0.000255497 0.00398367 2.32208e-19)
(-0.000858405 1.83031e-05 1.04145e-19)
(-0.000962583 3.53407e-05 -1.30632e-19)
(0.00117107 0.000682442 1.44389e-18)
(-9.65722e-05 1.61815e-05 4.6229e-19)
(0.000728848 0.0012373 4.66442e-19)
(-0.0215171 -0.00646962 -3.61797e-17)
(-0.017554 -0.0036991 1.30746e-17)
(0.000297593 -0.000163542 -3.40099e-20)
(0.000174125 -0.000142332 -1.39621e-18)
(-0.0139365 0.0122423 2.90888e-18)
(0.000348978 -4.76043e-05 8.35601e-18)
(-0.0154444 -0.00160791 2.24799e-17)
(0.00296654 0.000187267 -8.3325e-19)
(-0.0120449 5.16425e-05 -4.67713e-19)
(-0.0242696 -0.00508358 -3.17871e-17)
(0.00202854 0.000155286 4.5701e-18)
(0.00597025 -0.00222801 4.99672e-19)
(-0.000571508 5.43235e-05 -1.42306e-19)
(-0.0132365 -0.00506137 -1.85926e-17)
(0.000660477 -0.000457865 -3.39537e-17)
(-0.000200655 9.30686e-06 -1.90508e-19)
(0.000137838 5.00602e-05 -8.35066e-19)
(0.00375547 0.000129932 5.35499e-19)
(0.00557347 -0.00176591 1.05049e-17)
(-0.0119666 -0.00128031 1.18246e-17)
(-0.0239407 -0.00552272 3.4598e-17)
(0.00176634 -0.000255393 -7.16471e-18)
(0.00243344 0.000496344 6.31746e-18)
(6.69875e-05 0.000278359 2.18314e-19)
(0.00559627 -0.00181187 -2.6016e-17)
(0.00276643 -0.00227393 7.64686e-18)
(0.0113927 0.00413023 -1.87126e-18)
(-0.0145279 -0.00392662 1.62062e-17)
(0.00201397 0.000183561 1.46221e-17)
(0.00515062 -0.00313072 3.7228e-17)
(-0.0162131 0.0125714 1.26932e-18)
(-0.0189295 -0.0164755 -3.68551e-18)
(-0.00966177 -0.00111227 -1.64279e-17)
(0.00257897 0.000415903 1.81295e-18)
(7.38171e-05 4.54589e-06 -7.36548e-19)
(-0.00552339 -0.0114793 -2.41081e-18)
(0.00018384 2.33599e-05 4.76853e-19)
(-0.0217349 -0.00659389 2.88683e-17)
(0.000441881 0.000388276 -8.33125e-19)
(0.000828681 -0.000398676 2.72203e-18)
(0.00026366 -0.000740116 -5.08795e-20)
(-0.0260868 -0.00580075 2.0188e-18)
(-0.00948872 -0.0120149 -7.47836e-19)
(-0.0142184 -0.00141471 -8.30769e-18)
(0.00109416 0.000325115 1.01414e-18)
(0.00270034 0.000584435 8.2385e-18)
(-0.00111971 3.79288e-05 -5.33855e-20)
(0.000796341 -0.000388891 3.30296e-18)
(0.000649596 -0.000473595 2.3646e-17)
(-0.0150953 0.0054202 -1.23358e-18)
(0.00034489 0.000904437 1.18824e-18)
(-0.000100776 1.98247e-05 -5.44403e-19)
(-0.0133565 -0.00369932 3.55566e-17)
(-0.000514408 2.31755e-05 1.88517e-19)
(-0.000554518 4.57173e-05 -1.849e-19)
(0.000478367 0.000179186 6.43573e-18)
(-0.0234629 -0.00623765 6.47947e-19)
(0.00202479 0.000798873 2.10678e-18)
(-0.00619251 -0.0120883 1.78385e-18)
(-0.0223115 -0.00673842 7.91691e-18)
(-0.00126886 0.00505046 3.61316e-19)
(-0.00862359 -0.000823356 -7.89179e-19)
(-0.0208527 -0.00553938 -6.42506e-18)
(-0.00183471 0.00019228 7.66273e-21)
(0.00260555 0.000350242 2.83123e-18)
(0.000568873 0.000765048 -1.76577e-18)
(-0.016055 -0.00372394 3.08914e-18)
(0.00163753 -0.00180629 -7.61897e-18)
(-0.0218256 -0.0128341 -9.34852e-18)
(0.0055297 1.17281e-06 -4.13228e-18)
(-0.000803 3.28194e-05 1.18766e-19)
(0.0013745 -0.000511063 -4.41917e-18)
(0.00649559 -0.0014926 7.89077e-18)
(0.00268377 -0.0022467 9.0114e-18)
(0.00208328 0.000825613 -7.22922e-19)
(0.00150869 -0.00140723 -1.07448e-17)
(0.000549912 0.000741649 4.55215e-18)
(0.00114835 -3.03536e-05 1.00626e-17)
(-0.00455693 -0.00241975 -7.51141e-19)
(-0.0160486 -0.00538454 1.37385e-17)
(0.0112343 0.00511413 2.84111e-18)
(0.00112234 -1.7944e-05 -1.13705e-17)
(-0.00507224 -0.00403593 -4.25482e-18)
(-0.00205094 0.000639876 -5.30425e-21)
(0.00403998 -0.00305867 -9.72582e-19)
(0.00555125 0.000175498 1.95842e-18)
(0.00584559 -0.00268075 -5.06518e-18)
(0.00846336 -0.00143324 8.2984e-18)
(-0.0138897 -0.000205054 1.28062e-17)
(0.000107611 0.000107243 -2.57655e-18)
(-0.0122123 -0.00134551 -2.17313e-18)
(0.00243227 -0.000234896 -5.79439e-18)
(-0.0152131 -0.00423606 8.97753e-18)
(0.000128367 0.000101902 -1.28606e-19)
(0.000358206 0.000857675 1.18459e-18)
(0.00238625 0.00048228 -1.96917e-18)
(-0.0136176 -0.00132183 2.12031e-17)
(-0.00981583 -0.000997788 4.10635e-17)
(0.00171074 0.000599203 -1.73798e-18)
(-0.0101293 0.0105534 -3.22091e-19)
(0.00277581 0.000869864 6.54395e-19)
(0.00276026 0.000611726 -5.62835e-18)
(0.000153121 3.14108e-05 5.60756e-20)
(0.00620036 -0.00149637 3.86433e-18)
(0.00110714 0.000704653 -2.40284e-18)
(4.48614e-05 0.00019343 -1.49483e-18)
(0.0012567 0.00226784 -3.15767e-19)
(0.00149362 0.0023228 -3.17085e-19)
(-0.0152722 -0.00185504 -1.06332e-17)
(0.00503262 -0.00315466 -3.51464e-17)
(0.0025136 0.000429788 2.85252e-18)
(-0.0216521 -0.00482905 5.41516e-18)
(0.00025509 3.12271e-05 1.59356e-18)
(-0.000121578 0.00025746 4.96512e-19)
(-0.00013091 0.000269496 -2.28496e-19)
(-0.0196866 -0.0045326 1.1826e-17)
(0.00831376 -0.00175706 -2.50298e-18)
(-0.0152918 -0.00585044 5.34862e-19)
(0.0004579 -6.75765e-05 5.9839e-18)
(-0.00122028 3.04922e-05 2.20221e-20)
(-0.0175432 0.0141346 -1.87749e-18)
(-0.0125326 -0.00132331 7.74284e-18)
(-0.000171869 0.000220824 -3.56073e-19)
(-0.000190256 0.000214348 -6.78057e-19)
(-0.000350709 2.47416e-05 3.97103e-19)
(-0.000110445 0.000289637 -5.56668e-19)
(-0.000120469 0.000302939 -3.41097e-19)
(-0.0144447 -0.00114939 -7.06287e-18)
(-0.0182285 -0.00342501 -8.68436e-18)
(0.000846799 0.000691792 -2.74295e-18)
(-0.00189745 0.00034378 9.35836e-21)
(0.00553004 -0.00101041 -7.83939e-18)
(-0.0138867 -0.00156177 -6.41232e-18)
(-0.000416052 1.98896e-05 6.25191e-19)
(0.000455123 -5.59789e-05 -3.49827e-18)
(-0.0116457 0.0111943 1.72722e-19)
(-0.0212062 -0.00672075 -1.83672e-17)
(0.00341913 -0.00232191 -5.9118e-18)
(-0.0211846 -0.0045537 6.31027e-18)
(0.00675328 7.72707e-05 2.74778e-18)
(0.000458038 0.000387567 1.53772e-18)
(-0.0216024 -0.00608909 2.52389e-17)
(0.00558453 -0.00112598 -1.17048e-17)
(0.00287413 0.000313703 6.64158e-20)
(0.00516041 -0.00224178 1.89668e-18)
(0.00167449 0.00056534 3.22894e-18)
(-0.017226 -0.00284623 1.53524e-17)
(0.000704037 -0.000469467 6.75636e-19)
(0.00371602 0.000370797 4.94731e-18)
(0.00521066 -6.3333e-05 4.92717e-18)
(0.000839705 0.000745368 8.9608e-19)
(-0.000220301 6.81396e-06 5.65827e-19)
(0.00181285 -0.000250728 -1.70446e-17)
(0.000284962 0.00168969 -4.90269e-19)
(0.000219096 9.68425e-05 -3.70293e-20)
(-0.0121455 -0.00160293 1.17879e-17)
(0.00651438 0.00563218 -5.36849e-18)
(9.23907e-05 8.66049e-05 3.32056e-19)
(-0.000193297 0.000195149 1.12317e-18)
(0.000381122 0.000951945 -4.32506e-19)
(-0.000184062 0.000187923 -1.07268e-18)
(0.000685934 -0.000480931 1.81914e-17)
(0.000431077 -6.76857e-06 5.16202e-18)
(0.0036733 -0.000847384 -2.19071e-18)
(9.92604e-05 8.4818e-05 -5.80327e-19)
(-0.00887809 -0.00125832 -6.83136e-18)
(-0.0182822 -0.0039621 -1.42071e-17)
(0.000934338 6.04214e-05 9.32992e-18)
(0.00043617 0.00141389 -2.32474e-19)
(-0.0151587 -0.00627446 -1.20106e-18)
(-0.000333161 0.000496362 -1.11925e-19)
(0.000704509 0.00311362 2.80335e-20)
(-0.0122464 -0.0017992 -7.59709e-18)
(-0.000313594 0.000480144 9.82235e-20)
(-0.0135913 -0.00139909 5.26324e-18)
(0.000198776 0.00010347 6.90174e-19)
(-0.0239091 -0.0065376 -8.93596e-18)
(-0.000726989 2.48811e-05 -2.31758e-19)
(0.00141116 0.00123394 1.89063e-18)
(0.000857537 0.000767235 -3.86915e-18)
(0.000364381 0.000394151 -2.52919e-18)
(0.0084701 -0.00157046 1.96949e-17)
(4.92951e-05 1.36644e-05 7.70916e-19)
(-0.000534258 0.00600146 8.59159e-19)
(0.00268052 4.10756e-05 -8.03546e-18)
(0.00695711 0.00398941 -4.96357e-18)
(0.000102605 -0.000846185 1.03476e-19)
(-0.00242619 0.0100333 -4.96774e-19)
(-0.00887874 -0.00100891 5.56119e-17)
(-0.000478495 3.72161e-05 -9.57839e-21)
(0.00455378 -0.00133297 -6.76865e-18)
(0.00056269 0.00173809 1.1179e-19)
(0.00205264 0.000245584 -2.49028e-18)
(0.0008391 0.00170732 -7.20403e-19)
(0.00192169 -6.14869e-06 -1.1006e-17)
(0.00013891 0.000104407 -8.82882e-20)
(3.68044e-05 1.90877e-05 4.84511e-19)
(0.00670259 -0.00125386 -7.88231e-18)
(-0.00077083 -0.00138191 9.93902e-19)
(0.00362944 0.000328351 6.46772e-18)
(0.00187902 -1.68816e-05 3.22261e-18)
(0.000460184 -4.51086e-05 7.43572e-18)
(-0.0139376 -0.00389688 -2.92358e-17)
(-0.0138356 -0.00137163 -2.03313e-17)
(4.79412e-05 0.000225239 -1.19213e-18)
(-0.00115428 -0.000494232 -9.69861e-20)
(0.00206011 0.000215054 -2.80211e-18)
(0.00325112 0.00616702 -4.546e-21)
(0.00667504 -0.00394473 -8.38647e-19)
(-0.0181882 -0.00368392 -2.34204e-18)
(-0.0225734 -0.0121446 1.48169e-17)
(-0.00466239 -0.013321 -1.9624e-21)
(0.00956888 0.00349714 1.88511e-19)
(0.000351662 0.00134464 -1.04746e-18)
(-0.0253411 -0.00587762 1.57378e-17)
(0.00456195 0.00619811 5.86167e-20)
(-0.0220386 -0.00656383 -2.87213e-17)
(0.00039821 -4.97779e-06 -5.20405e-18)
(0.00146561 0.00135151 9.68998e-19)
(-0.0103526 0.0109552 3.92352e-19)
(0.000520021 0.00084863 -3.2985e-19)
(0.00286514 0.0020834 -2.5476e-19)
(0.00572028 -0.00262068 -2.62366e-17)
(-0.000272296 1.36099e-05 1.45313e-19)
(-0.0163837 -0.00379791 -2.78535e-17)
(0.000431956 4.22176e-05 3.77915e-19)
(0.00286054 -0.00326583 -1.43875e-17)
(-0.000530487 0.000943726 1.71948e-19)
(-0.00817753 -0.00253843 -1.01956e-17)
(6.60885e-05 0.000126987 -3.24408e-18)
(0.00355239 0.000178127 -7.7694e-18)
(0.00281531 0.000785143 -1.28218e-18)
(-0.00102171 -0.0105863 4.30271e-20)
(-0.00031777 1.7349e-05 -2.07196e-19)
(0.00514632 -0.00239892 -2.07207e-17)
(-0.0230519 -0.0066973 5.68184e-17)
(0.00130802 0.00040362 -6.14624e-18)
(0.000484142 0.000853448 -1.11762e-19)
(-0.0159715 -0.00191624 -2.9767e-17)
(-0.0225646 -0.0067357 9.83463e-18)
(-0.0253127 -0.00931092 -9.22273e-18)
(-0.00935809 -0.0112354 5.43563e-19)
(-0.000326475 0.000445485 3.05489e-19)
(0.000918114 0.000633204 -3.90847e-18)
(-0.0205713 -0.00671749 -8.5813e-18)
(0.00967827 0.00280367 6.99268e-18)
(-0.000303095 0.000431783 1.29664e-19)
(0.000712149 0.00181648 2.40842e-19)
(0.00112376 0.000136411 4.02647e-18)
(0.00195918 0.000396449 -1.42541e-18)
(0.00363562 0.000213108 -5.68889e-18)
(0.00553816 -0.00178769 6.91468e-18)
(0.00635468 0.00176057 3.27296e-19)
(0.000537179 0.00267876 -3.0994e-19)
(0.00308781 -0.00299683 -3.00829e-17)
(-0.0155394 -0.000979851 -5.4643e-18)
(6.69402e-05 0.000294882 -1.10444e-19)
(0.00131986 0.000377205 9.03619e-18)
(0.00108268 0.00180007 5.27266e-19)
(-0.00972603 -0.00406522 -8.18518e-18)
(-0.00033548 1.42138e-05 -2.30576e-19)
(-0.0131965 -0.00024108 -1.31169e-17)
(0.00299835 -0.00301147 2.58508e-17)
(0.0199024 -0.000142778 -7.39393e-20)
(0.00116613 0.000308391 -4.57284e-18)
(0.00705196 0.00224921 4.21441e-18)
(-0.00170277 -0.000165421 -6.68111e-20)
(0.000651058 0.0133741 5.87943e-19)
(0.000383331 -0.000105515 5.99678e-19)
(-0.0141111 -0.00596105 -2.12708e-17)
(-0.0139965 -0.00608901 3.91799e-18)
(0.00295482 0.000737625 6.83943e-19)
(0.000963047 6.85461e-05 -6.83878e-18)
(-0.027186 -0.00650429 2.34126e-18)
(-0.000606943 0.00110783 -2.59398e-19)
(-0.0223973 -0.00709689 -1.92377e-18)
(0.00904627 -0.00147541 2.91213e-18)
(0.000456336 -9.21917e-05 -1.14854e-18)
(0.00144988 0.0134834 1.147e-18)
(0.000870263 0.000869717 -2.78063e-18)
(-0.00587663 0.010486 -6.55576e-21)
(-4.01481e-06 9.94804e-05 3.55961e-21)
(-0.0131 -0.0026773 -2.12217e-17)
(-0.00242853 0.00946138 -3.46005e-20)
(0.00183304 0.000353531 8.27295e-18)
(-0.0163027 0.0153526 4.06675e-18)
(0.000909315 0.0018346 -8.40926e-19)
(0.00158251 0.000545641 -2.8374e-18)
(-0.02323 -0.00773903 -4.20084e-18)
(-0.0225425 -0.00912457 3.70941e-17)
(0.0017504 0.000270544 1.41372e-18)
(0.00789329 -0.00145877 -1.78147e-17)
(0.000938048 0.000557542 1.30672e-19)
(0.000522497 0.00151099 -4.17091e-19)
(-0.0213246 -0.00626069 2.35777e-17)
(0.000433844 3.55688e-05 4.44442e-20)
(0.00220813 -0.00146514 -8.34116e-18)
(0.00187914 -6.09463e-05 -7.2421e-18)
(0.000383414 0.000367521 -1.24294e-18)
(0.000228831 0.000159089 1.9701e-18)
(7.78109e-05 0.000335798 1.69356e-19)
(-0.0179954 -0.0176122 7.25548e-18)
(-0.000307477 0.00550316 -3.44667e-20)
(0.00124165 0.00033858 -2.91266e-19)
(6.23885e-05 0.000316549 -1.33189e-19)
(0.000543343 0.000644903 1.58436e-18)
(0.00454026 -0.000853818 -2.86916e-17)
(0.00581278 0.00491074 -1.51704e-18)
(-0.000431652 0.000703968 2.86548e-19)
(-0.00181315 0.000177034 -1.57198e-20)
(0.00584341 -0.00383613 4.8413e-18)
(0.00686008 0.00262025 7.50025e-19)
(0.000384526 0.000412776 3.65152e-18)
(0.00179318 0.000336257 -1.13269e-17)
(-0.0228335 -0.0117343 1.0277e-18)
(-0.0265437 0.000904236 -2.20243e-18)
(-0.00970115 -0.0136334 2.69856e-20)
(0.00507 -0.00242092 -1.29685e-17)
(-0.0258452 -0.00620572 8.95076e-18)
(0.000116455 0.00045362 -1.5425e-19)
(-0.000412712 0.000635694 -2.6847e-19)
(0.00240478 0.000537595 -4.86921e-18)
(0.000223278 0.000149543 5.40097e-19)
(-0.000400422 0.000685858 5.40653e-20)
(0.000863596 0.000718706 -2.90158e-18)
(-0.000386395 0.00062146 -4.86299e-20)
(8.05857e-05 0.000445836 -1.49573e-19)
(-0.020613 -0.004987 9.29325e-19)
(0.000976394 0.000562195 9.24163e-19)
(0.0030194 0.000830927 -5.68071e-18)
(-0.00911456 -0.00142121 3.86175e-18)
(0.00451995 -0.00123917 -9.04603e-18)
(4.95816e-05 0.000204206 1.31938e-18)
(0.000788474 -0.000363486 -6.09495e-20)
(-0.0233457 -0.00742461 2.01296e-18)
(0.00238723 0.000499948 2.19604e-19)
(-0.0118704 -0.00112654 2.74531e-17)
(-0.000487152 0.000859481 -1.6898e-19)
(0.000596077 -5.83641e-05 -2.14063e-18)
(-0.000550486 0.00116527 4.06089e-19)
(-0.000101233 0.000327995 -1.71672e-19)
(0.00182457 0.000494858 6.80949e-18)
(0.000854583 0.000920979 -3.77659e-18)
(-0.0226726 -0.01167 4.09326e-18)
(0.00176613 -0.000420795 3.93633e-19)
(-0.0208853 -0.00652218 6.36236e-18)
(0.000596903 -4.95395e-05 -7.0783e-18)
(0.00323455 -0.00197867 -9.98759e-18)
(0.00150023 -0.000992144 -2.39472e-20)
(0.00106351 0.000692892 5.36933e-18)
(0.00657767 -0.000153582 1.29406e-18)
(-0.0250689 -0.00964196 -5.9785e-18)
(0.00109769 0.000122091 -6.33364e-18)
(-0.02649 0.00770012 -4.182e-18)
(6.2663e-05 0.00022639 8.87075e-20)
(0.000177844 5.05547e-05 7.79284e-19)
(0.000510514 0.000623042 5.53657e-20)
(0.00089998 0.000859206 -3.33555e-18)
(3.50881e-05 0.000172884 -4.98319e-19)
(0.000384076 3.17816e-05 -4.75871e-18)
(-0.0139255 -0.00375018 -1.371e-17)
(-0.0221014 -0.0122332 -4.82654e-18)
(2.88146e-05 0.000162947 -1.14127e-18)
(-0.00448017 0.00970022 8.73374e-19)
(0.00548854 -0.00357598 -5.0065e-18)
(0.000424597 -1.94489e-05 -2.40469e-18)
(0.00477391 -0.00123031 8.38165e-18)
(0.00414779 -0.00453861 -3.73924e-18)
(-0.0222694 -0.00664014 -6.10484e-18)
(0.00229409 -0.00162853 1.6607e-19)
(-0.0216977 -0.00646381 4.80569e-18)
(0.0211805 0.0113906 -7.17086e-20)
(0.0165977 0.0130869 4.98632e-20)
(0.000882914 0.000910077 1.50055e-18)
(-0.0067853 -0.0118985 -4.04984e-20)
(0.00146149 -0.00135878 2.50728e-19)
(0.00162209 0.000576041 2.51898e-18)
(-0.0264896 -0.00820921 1.33722e-18)
(-0.000331811 3.75487e-05 7.07812e-20)
(0.00102874 0.000303519 4.53862e-19)
(0.00134308 0.000434274 1.35548e-18)
(0.00199762 -0.001608 1.47648e-17)
(0.00247042 0.000513129 1.99494e-18)
(-0.0013846 -0.00291707 -1.13947e-17)
(0.00439725 -0.00218751 6.42319e-18)
(-0.000187348 -0.000240176 2.98361e-19)
(0.000444406 0.00151943 -2.83e-19)
(0.00435793 0.000202406 9.42766e-20)
(0.00344075 0.00149621 2.42145e-18)
(0.00122244 0.000351967 -9.77045e-18)
(-0.0202345 -0.0171224 -6.14414e-19)
(0.00360777 -0.00118775 1.01667e-17)
(0.0026933 -1.03788e-05 1.71668e-17)
(-0.0227963 -0.00830245 -1.17533e-17)
(0.000440433 4.67281e-05 -3.66108e-18)
(0.00350006 0.00164489 -1.70976e-18)
(0.00895485 -0.00144443 -1.59652e-18)
(0.000117741 0.000109969 -5.51766e-18)
(-0.0115428 -0.00306954 1.04796e-17)
(0.000187931 5.05216e-05 3.23903e-18)
(-0.000113119 0.000341154 1.11311e-20)
(0.00461043 -0.000951639 2.93304e-17)
(-0.000445932 0.000836718 4.15679e-20)
(0.000246839 3.4456e-05 -3.7528e-18)
(0.00660679 -0.000983698 1.43443e-19)
(-0.0117501 -0.00371135 3.09527e-17)
(-0.018912 0.0179308 -1.02788e-18)
(0.000473097 0.000165606 7.38544e-18)
(0.00135135 -0.000757625 3.8465e-18)
(-9.94757e-05 0.00016827 -7.66035e-19)
(-0.0253961 -0.00860964 -2.93946e-18)
(-0.0183683 -0.00753678 7.67e-18)
(0.00116271 0.000355128 3.91139e-18)
(0.00110141 0.000294857 -6.29089e-18)
(0.000447636 0.000148624 -2.33854e-19)
(0.00495816 -0.000234978 -1.26031e-17)
(0.00625949 0.00668281 1.14193e-19)
(5.24122e-05 0.000246861 1.46194e-19)
(-0.00039262 2.27201e-05 1.45238e-19)
(0.000325434 0.000814771 -1.72619e-18)
(0.000381155 0.000344172 -6.17606e-18)
(7.56187e-06 -0.000184485 6.76141e-20)
(0.00285957 -0.000496818 -1.55643e-18)
(-0.000345843 3.17553e-05 4.26068e-19)
(0.00447561 -0.00213311 1.1062e-17)
(0.00011613 0.000101186 -1.8183e-18)
(0.000603322 0.000649028 1.89161e-18)
(0.00183996 -7.79988e-05 5.00355e-18)
(-0.0177641 -0.00298913 -2.41979e-17)
(-0.000193127 4.76009e-05 -7.60021e-19)
(0.00176372 -0.00105896 -1.96836e-17)
(0.000207801 9.11587e-05 -1.67944e-18)
(0.00315127 -0.0019461 3.57106e-18)
(0.0051425 -0.00144839 -3.20169e-18)
(0.0022539 -0.000254048 -8.73829e-19)
(0.00537592 -7.19298e-05 -7.67694e-19)
(-0.000225751 0.00482309 -3.28742e-19)
(0.0017511 6.1552e-06 5.58004e-18)
(0.00402422 0.000388133 -3.87712e-19)
(-0.0159433 -0.00446244 -4.86801e-18)
(-0.0204733 -0.0047448 4.2309e-18)
(-0.00919892 -0.00167103 3.0245e-17)
(3.74223e-05 0.00018132 -8.33772e-19)
(0.000452701 0.000606673 -2.77791e-18)
(-0.00032463 -0.00028113 -6.63137e-19)
(0.000779895 -2.95643e-05 4.20915e-18)
(-0.0237343 -0.00491312 5.37409e-18)
(-0.000322243 0.000535085 -2.22958e-19)
(0.0202972 0.0108359 5.20618e-19)
(0.00242888 -0.000283702 -2.11753e-17)
(-0.0198835 -0.00486449 -1.76238e-17)
(0.000637008 0.00354376 1.23606e-19)
(0.00151132 -0.00146449 3.1525e-18)
(-0.00419369 0.000493985 1.09437e-18)
(2.3495e-05 0.000157392 -9.4015e-20)
(0.00401965 -0.00399303 -1.99363e-17)
(-0.000119741 7.64257e-06 1.96301e-18)
(0.000418806 0.000188468 -3.81326e-20)
(-0.0187246 -0.00450268 1.80702e-17)
(-0.000457069 0.000780393 7.94887e-20)
(-0.0221781 -0.00730023 3.14993e-17)
(-0.00107719 2.50066e-05 1.42111e-20)
(0.000420485 -1.48179e-05 1.02136e-18)
(0.000482055 0.000630973 2.84678e-18)
(0.00327894 -0.00277076 3.98344e-18)
(8.85658e-05 -0.000230621 2.5899e-19)
(-0.000210859 0.00014352 1.08776e-19)
(0.00600148 -0.00291746 3.04785e-18)
(0.00471498 -0.00113524 -2.3499e-17)
(0.00756757 0.011298 4.90129e-19)
(-0.0264683 -0.00597713 -6.87113e-18)
(-0.0138068 -0.00411444 9.24353e-18)
(-0.0221467 -0.00649222 1.33857e-17)
(-0.000191873 4.31296e-05 7.52907e-19)
(-0.0129634 -0.00135102 -1.83533e-17)
(-0.00146473 7.17545e-05 -5.42285e-20)
(-0.0202333 -0.0149615 3.87959e-18)
(-0.0116064 -0.0130379 -3.82935e-19)
(0.000489841 0.000207149 -1.38852e-18)
(-0.00254493 0.000413756 -9.45597e-20)
(-0.000970882 2.16706e-05 -1.17898e-19)
(0.00354004 -0.00117006 -9.10366e-18)
(0.00144548 -0.00137281 1.7957e-17)
(-0.000420669 0.000759088 -2.67827e-19)
(-0.000108794 7.66511e-06 2.12009e-19)
(0.000421675 7.75864e-07 2.10448e-18)
(-0.0265775 -0.0061342 -1.59234e-18)
(0.00053838 0.000171031 -6.84013e-18)
(0.00438907 -0.00314717 -1.43308e-17)
(0.000994345 0.000307824 2.52111e-18)
(-0.000224728 0.000141666 6.14216e-19)
(-0.00056236 2.99343e-05 5.04479e-19)
(0.00251287 -0.00324183 7.49859e-18)
(-0.0266131 -0.00730331 -7.20513e-18)
(-0.00622592 -0.000391765 -9.34102e-19)
(0.00507404 -0.00222159 3.76942e-18)
(0.00283271 -0.000560528 1.21738e-17)
(-0.0254577 -0.00679837 1.67838e-17)
(-0.0138585 -0.00166326 1.0512e-17)
(5.77214e-06 0.000101138 -6.74233e-19)
(-0.0262157 -0.00891455 8.476e-18)
(0.000390137 -4.1373e-06 -4.26281e-19)
(0.0051749 -0.00507101 4.19154e-18)
(0.000782581 -1.38649e-05 5.60365e-18)
(-0.0268378 -0.00648246 -1.11984e-17)
(0.000362408 0.000330899 4.58236e-18)
(-8.78085e-05 -0.000200321 6.25884e-19)
(0.000836741 -0.000424313 -4.80519e-18)
(0.00385451 0.00684467 -3.99882e-19)
(0.00370166 -0.0010172 -1.90966e-17)
(-0.0233914 -0.00498884 5.96027e-18)
(-0.000277962 2.34112e-05 2.169e-21)
(0.00358925 -0.000847159 -9.14398e-18)
(7.95015e-05 0.000152796 -2.49227e-18)
(-0.000787762 2.87716e-05 2.1074e-19)
(-0.0161165 -0.00131512 3.24697e-18)
(-0.00245715 0.00338876 -3.8624e-19)
(0.000107347 0.000124264 4.93039e-19)
(0.00531826 -0.00181187 2.7366e-18)
(0.000462351 -5.13774e-05 -1.31522e-18)
(0.00030735 0.00022643 -9.45908e-19)
(-0.000971623 2.72324e-05 1.77966e-21)
(-0.0166012 -0.00163798 6.92546e-18)
(0.000542096 0.000159628 1.66074e-18)
(0.000408252 0.00179673 -5.27612e-19)
(-0.000343564 0.000549211 -6.86182e-20)
(0.000100239 0.000129205 -1.48688e-18)
(-0.0069913 -0.00363357 1.32925e-17)
(-0.00103173 3.04065e-05 7.16358e-20)
(0.00539677 -0.00179814 -1.64948e-17)
(-0.000149688 4.82628e-06 -1.09562e-18)
(8.64911e-05 0.000127881 -2.54696e-19)
(-0.0205224 -0.013885 9.76474e-18)
(0.00448665 -0.00318623 -1.40455e-17)
(0.00112303 0.000353352 -3.18918e-18)
(-0.00910409 -0.000642413 -1.81394e-17)
(-0.0214119 -0.00736624 -3.43844e-17)
(0.00378182 0.00523239 -7.49727e-19)
(0.00951173 -0.00123316 -6.2623e-18)
(1.68403e-05 0.000148483 1.4432e-18)
(0.00152663 0.00147549 -6.34524e-19)
(-0.017128 -0.00281352 7.07251e-18)
(-0.0229209 -0.00820189 -1.12502e-17)
(0.00236951 0.000536624 6.54173e-18)
(0.00187708 0.000449232 -2.96567e-18)
(-0.000155075 -0.000253072 4.40458e-20)
(-0.000163671 6.36947e-06 5.38183e-19)
(0.000127753 0.000395439 -1.05232e-18)
(-0.006395 -0.0152186 6.85475e-20)
(0.00530935 -0.00138514 6.86044e-18)
(0.00224908 -8.36725e-05 1.16069e-18)
(-0.022591 -0.00826291 8.88983e-18)
(0.00376487 -0.00108301 1.31304e-17)
(0.00532002 0.00681097 5.84572e-19)
(-0.0192688 -0.00870249 -5.14048e-18)
(-0.00115119 -0.00122281 1.51711e-19)
(0.00354739 -0.000127255 3.64029e-18)
(0.00796191 -0.00167476 -4.0684e-18)
(-0.0137217 -0.00143213 -9.54806e-18)
(0.00013304 0.000103158 1.41303e-18)
(-0.00117909 5.0698e-05 2.01505e-19)
(-0.00589498 -0.0163633 3.18505e-20)
(9.68127e-05 0.000128113 -3.19846e-19)
(-0.000223206 1.42388e-05 2.16705e-19)
(-0.000602383 3.19386e-05 -3.69584e-19)
(-0.000190193 0.000200034 4.63651e-19)
(0.00031124 3.05111e-05 -1.3961e-18)
(-0.013014 -0.00140722 -3.02025e-17)
(0.00259416 -0.00272408 1.3325e-17)
(-5.48992e-05 2.75395e-05 -2.46703e-18)
(0.00551115 -0.00265443 1.88002e-17)
(-0.000275703 2.5614e-05 1.19231e-18)
(-0.0188501 -0.00393666 2.61216e-18)
(0.000206183 0.000110198 1.5823e-19)
(5.72587e-05 0.000262815 -6.96588e-19)
(-0.0112818 -0.00343692 -1.1401e-17)
(0.00497382 -0.00150873 -6.2318e-18)
(0.0255511 0.0175224 -9.5597e-20)
(0.000985003 -0.000460147 -1.10716e-17)
(-0.00109814 0.00103317 -7.90013e-21)
(4.95293e-05 0.000196276 5.28628e-19)
(0.00119578 -0.000643882 2.74485e-18)
(0.00274962 -0.00125451 -9.6246e-18)
(0.000304917 0.000401595 5.25286e-18)
(-0.0108897 -0.00110583 -1.50743e-17)
(0.00284396 0.000133525 -7.9986e-19)
(-0.00036252 -0.00240142 3.23077e-19)
(0.0248286 0.0176684 7.784e-20)
(-0.0010881 -0.000128106 -6.93747e-19)
(-0.0136622 -0.00410191 -1.31418e-17)
(0.00138197 -0.000733583 -6.27265e-18)
(-8.48734e-05 1.19603e-05 -9.54661e-19)
(8.20815e-05 0.000145553 2.49946e-18)
(-0.0125398 -0.00192338 2.03991e-17)
(-0.0169701 0.0167684 1.38011e-18)
(0.00248713 -0.000205723 -1.40144e-18)
(-0.0116096 -0.0012088 -1.0293e-17)
(0.0274784 0.0149028 -3.72247e-19)
(7.40213e-05 0.000137628 3.60337e-18)
(5.05383e-05 0.000237866 1.99148e-18)
(0.00181815 0.000539468 -6.63354e-18)
(-0.0223683 -0.00654941 -6.78178e-17)
(0.0167293 0.0195216 -2.25244e-19)
(0.00372997 -0.000916449 1.36842e-17)
(0.00118407 -0.00061318 7.27415e-19)
(0.00180322 -0.00103292 1.35667e-18)
(0.00524469 -0.00524323 -1.55398e-18)
(0.000370912 0.00125822 1.57733e-19)
(0.00558066 -0.00174977 -7.39479e-18)
(0.00268402 -0.00269856 -9.16585e-18)
(0.00128337 0.000465303 3.587e-18)
(0.00154586 -0.00020611 1.39994e-17)
(-7.81206e-05 1.24912e-05 -1.02754e-18)
(0.00272469 -0.0012001 6.34254e-18)
(0.000312737 0.0015487 3.49494e-19)
(-0.0223725 -0.00882486 6.08206e-17)
(0.00208649 0.000309873 4.77535e-19)
(0.000345713 0.000566129 -1.21566e-18)
(-0.0112274 -0.00111159 -2.65792e-18)
(-0.00237025 -0.000659152 5.00328e-21)
(0.0226001 0.014806 -1.03909e-18)
(0.00183773 0.000418257 1.54261e-18)
(0.00239753 0.00155201 -1.82007e-18)
(0.00242942 -0.000482464 1.21855e-17)
(-0.022729 -0.00833473 1.97269e-17)
(-0.000216443 1.07602e-05 1.74268e-19)
(0.00377356 -0.00394761 -1.01278e-17)
(-0.0271416 -0.00722209 3.15532e-18)
(-0.00744346 -0.0187044 1.75925e-19)
(0.000792421 -6.3791e-05 -1.14261e-17)
(0.00209644 0.000276272 9.47775e-18)
(0.0002863 1.88203e-05 8.46957e-19)
(0.000674501 -5.74382e-06 7.27941e-18)
(0.000785167 -0.000435753 -1.2102e-18)
(0.00113589 0.0010925 -1.61829e-19)
(0.00183148 -0.000759911 -1.11871e-19)
(0.0087058 -0.00197642 3.19817e-18)
(0.0053318 -0.00183037 5.94819e-18)
(5.4578e-06 0.000135215 -1.47367e-18)
(-0.0229544 -0.00863189 -1.24103e-17)
(0.00173098 -0.00174175 -1.96718e-17)
(0.00205213 -0.00159423 7.01678e-19)
(0.00561661 -0.00182006 -6.13403e-18)
(0.000937662 0.00066297 -5.18268e-19)
(0.00408834 -0.0039271 -2.82463e-18)
(-0.00590135 0.00639504 -2.82506e-18)
(-0.000219572 8.94768e-05 8.72778e-19)
(0.00492814 -0.00158081 -3.73267e-17)
(0.00604512 0.000472297 -1.21008e-18)
(0.00270072 -0.00260822 4.81821e-18)
(0.000105094 0.000308021 -1.23456e-18)
(4.75729e-05 0.000190035 2.6688e-18)
(0.000116874 0.000381072 9.14184e-19)
(-0.0137031 -0.00130132 -1.61457e-17)
(0.00145676 -0.000195821 9.54741e-18)
(0.000246671 0.0001219 -3.91037e-19)
(0.00288098 -0.00314652 3.58965e-17)
(0.000324683 0.000420412 -2.21926e-18)
(5.2169e-05 0.000220788 -1.23095e-18)
(0.00631873 -0.00135227 9.83935e-18)
(-0.00205056 0.00539356 6.46471e-19)
(0.00142499 0.000850398 2.10612e-19)
(-0.0268621 0.00363141 -5.47101e-19)
(0.00211069 0.000416437 9.40646e-20)
(-0.0199502 -0.00667155 1.08476e-17)
(0.000768452 -0.000455003 1.71027e-17)
(0.000826154 0.00128109 -4.03853e-19)
(-0.0246003 -0.00646931 -3.60421e-18)