/*--------------------------------*- C++ -*----------------------------------*\
| =========                 |                                                 |
| \\      /  F ield         | OpenFOAM: The Open Source CFD Toolbox           |
|  \\    /   O peration     | Version:  v2012                                 |
|   \\  /    A nd           | Website:  www.openfoam.com                      |
|    \\/     M anipulation  |                                                 |
\*---------------------------------------------------------------------------*/
FoamFile
{
    version     2.0;
    format      ascii;
    class       surfaceScalarField;
    location    "100";
    object      meshPhiCN_0;
}
// * * * * * * * * * * * * * * * * * * * * * * * * * * * * * * * * * * * * * //

dimensions      [0 3 -1 0 0 0 0];
oriented        oriented;


internalField   nonuniform List<scalar> 
20673
(
4.48208e-05
2.53184e-05
-7.08221e-05
-5.06403e-05
-5.92168e-05
0.000108894
-7.94964e-06
6.09115e-06
1.57978e-06
0.000133937
2.97587e-05
-0.000166842
1.01032e-05
-1.1867e-05
-1.29157e-06
-4.33315e-05
2.9281e-05
1.58095e-05
-9.22991e-06
1.1698e-06
7.66585e-06
3.11917e-06
-5.00193e-06
1.70548e-06
-4.66638e-06
3.51631e-06
9.11169e-07
-4.89314e-05
7.7341e-06
4.08765e-05
1.37867e-05
-4.45237e-06
-9.49719e-06
-1.07533e-05
1.67021e-06
7.99798e-06
0.000109942
-5.053e-06
3.81185e-06
1.16293e-06
-4.94305e-05
8.1296e-05
-3.21416e-05
3.57556e-05
4.53321e-05
-8.18842e-05
0.000122908
-4.17601e-05
-8.16213e-05
-4.5363e-05
5.66764e-06
3.87974e-05
-7.97193e-06
-3.97737e-06
4.9504e-05
-5.77476e-05
1.0539e-05
1.42774e-05
-2.21345e-06
-1.34055e-05
-2.86658e-06
-6.67297e-06
7.17633e-06
5.3998e-05
-6.11437e-05
-1.71217e-06
4.5416e-06
-6.38299e-05
6.17242e-05
9.0516e-07
1.02669e-05
-9.54394e-06
-1.02815e-06
-1.93509e-05
-2.68554e-05
4.49983e-05
1.06408e-05
-3.43143e-05
2.36202e-05
1.62781e-05
-2.92928e-05
1.2944e-05
7.22995e-06
-7.98425e-05
5.89109e-05
3.11892e-05
3.62918e-05
-6.83098e-05
4.99991e-05
3.8329e-05
-8.90785e-05
-4.2128e-05
-9.36318e-06
5.12632e-05
-9.46621e-06
5.04364e-05
-4.19137e-05
1.96588e-05
2.73418e-05
-4.89284e-05
-5.45591e-07
6.59195e-06
-5.66659e-06
5.78982e-05
-5.07199e-05
6.45792e-06
-2.74826e-06
-3.9874e-06
-8.71415e-05
0.000131463
1.41876e-05
-1.17579e-05
-2.571e-06
1.02908e-05
1.04228e-05
-1.33023e-05
-7.00642e-07
4.68161e-06
-4.27012e-06
0.000205349
4.17668e-05
-0.000237021
4.13127e-05
-3.69862e-05
-4.19498e-06
-0.00015159
0.000198624
-4.6813e-05
-5.81111e-05
5.55943e-05
1.93634e-06
5.02358e-06
-5.14149e-05
3.29095e-05
-1.51569e-05
-1.68601e-05
2.292e-05
-2.10256e-05
-1.95817e-06
5.67108e-07
-6.49445e-06
8.1079e-06
-0.000132855
5.84352e-05
7.58767e-05
-4.01871e-05
5.00147e-05
-1.14346e-05
2.56458e-05
-2.8145e-06
-5.02864e-05
3.9808e-05
9.37391e-05
2.88122e-05
-6.80884e-05
-3.83621e-05
0.000104258
2.44913e-06
1.13324e-05
8.17345e-05
2.26526e-05
-0.000104843
-0.000143528
0.000114969
2.54986e-05
2.92429e-05
-0.000181135
-2.44997e-05
2.29623e-05
-7.09712e-08
-0.000140171
8.83754e-05
-1.75147e-06
6.3965e-05
-1.28128e-05
-2.20161e-05
-3.39929e-06
-5.40669e-06
-1.91042e-05
2.47222e-05
-7.83962e-07
2.67277e-05
5.32166e-06
-1.84622e-06
-3.87618e-06
-5.4047e-06
9.12574e-06
-5.43314e-05
-1.18408e-05
6.57853e-05
2.2191e-06
4.76672e-06
-1.64881e-06
-3.21645e-06
2.79198e-06
-4.13406e-06
1.21963e-06
-7.24001e-05
7.15013e-06
2.09871e-05
3.1941e-07
-2.11662e-05
-5.24213e-06
-6.331e-06
1.02177e-05
2.68745e-06
-8.86921e-08
-2.58173e-06
-0.000230848
0.000202458
2.6242e-05
-1.33775e-05
4.53021e-07
1.28822e-05
3.87294e-06
3.30849e-05
-3.79072e-05
5.17915e-05
-1.54214e-05
-3.54139e-05
2.51934e-05
3.26777e-05
-2.58714e-05
-6.10285e-06
1.07099e-06
5.04781e-06
-2.34837e-05
2.7581e-05
4.06835e-07
-0.000163863
-7.61958e-05
4.33096e-05
-4.57306e-05
4.42075e-06
1.45561e-05
-1.97869e-05
-5.26833e-05
-8.23622e-05
1.04923e-05
0.00020328
-1.63821e-07
2.47867e-06
-2.3652e-06
1.54312e-05
-5.70627e-05
4.13109e-05
0.000203838
-6.81097e-05
-0.000134983
-3.25641e-05
7.75927e-05
-4.55195e-05
-9.01532e-06
2.38887e-05
-4.65118e-05
3.92605e-06
2.08737e-05
-1.77973e-05
6.30892e-06
1.28567e-05
-2.10671e-05
3.50062e-05
-1.43179e-05
1.25018e-05
-7.51528e-06
-6.29085e-06
2.03357e-05
2.18463e-05
-4.18041e-05
-6.77062e-05
-2.61689e-05
0.000100505
3.30662e-05
-5.3637e-05
2.06973e-05
2.90215e-05
1.24017e-05
-8.44852e-05
0.000170334
-8.821e-05
0.000101416
-0.000162709
6.44321e-05
-7.88291e-07
5.82148e-06
-5.57152e-06
-3.27242e-05
3.10415e-05
1.61984e-06
1.86669e-05
1.41416e-05
-0.000134421
9.22066e-05
-3.58977e-05
-2.46811e-05
5.98462e-05
-9.04983e-06
1.00877e-05
-1.14523e-06
1.56492e-05
-1.62385e-06
8.06888e-06
-7.12918e-06
-1.7405e-06
-4.93447e-06
3.72181e-06
2.61353e-06
-4.11793e-05
3.71235e-05
2.36546e-05
-1.51545e-05
-8.07139e-06
-5.4005e-05
-2.72236e-05
7.99379e-05
4.06539e-06
1.3785e-05
-2.68545e-05
-3.68421e-06
-4.49921e-06
8.06337e-06
5.396e-05
-1.00661e-05
-4.45658e-05
-1.44035e-05
1.35536e-05
6.30403e-06
-1.21369e-05
-6.59603e-06
1.82691e-06
4.75409e-06
4.5011e-05
-3.47173e-05
-5.56656e-06
1.39547e-05
-4.64863e-06
4.66708e-05
-7.97595e-05
-0.000174569
0.000140212
3.39204e-05
5.17822e-06
-6.66302e-06
0.000124788
3.78672e-05
-0.000145405
-1.6441e-05
4.66351e-06
1.73474e-06
-6.5022e-06
4.58638e-05
-4.50185e-05
0.000182725
1.46201e-05
1.21339e-05
9.64532e-07
4.75521e-06
-1.60998e-05
1.08244e-05
2.96987e-06
-4.96028e-06
6.71254e-05
-2.28167e-05
-1.09706e-05
3.16944e-05
2.51281e-05
-8.68321e-07
4.56305e-05
7.52077e-06
-1.49414e-06
-7.12667e-06
9.05611e-06
-5.45787e-05
0.000196941
-0.000150154
-6.76884e-05
2.5772e-06
6.38678e-05
1.8711e-06
3.02984e-05
-3.20566e-05
-3.76098e-07
3.19678e-06
-5.91828e-06
4.10416e-06
1.48243e-06
1.78084e-05
-3.04754e-05
1.26423e-05
-5.45886e-05
1.23285e-05
-5.29876e-05
0.000213593
-0.000156654
-5.08035e-05
-3.52264e-05
8.52889e-05
-3.25186e-05
2.48729e-05
4.56073e-06
1.1152e-05
1.27047e-05
-2.14876e-06
5.79619e-06
-4.71513e-06
6.32154e-05
-6.25251e-05
-5.9579e-07
4.1286e-05
6.42759e-05
-0.000107832
-2.72642e-05
7.56124e-06
1.95993e-05
2.53444e-05
-8.0128e-05
1.66163e-06
1.76335e-06
-7.30863e-06
4.19697e-07
2.29068e-06
-1.05791e-05
1.48244e-05
-5.56769e-05
-5.55464e-06
6.06602e-05
2.77246e-05
-4.90881e-05
2.27352e-05
3.40759e-05
-4.13568e-05
7.20166e-06
-2.22119e-06
-1.32506e-05
6.58711e-06
3.26766e-07
6.00503e-06
5.15641e-06
8.22515e-05
-0.00016904
-2.04617e-05
-2.42128e-05
4.45301e-05
-0.000225497
0.000193184
3.50967e-05
5.12946e-05
-1.67668e-05
3.11488e-05
3.33341e-05
-6.44671e-05
3.13962e-08
8.39529e-06
-8.46243e-06
-3.49245e-06
-4.42326e-06
7.65528e-06
-0.000121548
6.92142e-05
5.19677e-05
-3.18546e-06
3.68728e-06
-6.75698e-07
-5.90894e-05
5.22596e-05
6.79975e-06
-3.69372e-06
8.22252e-06
2.27205e-05
-2.03101e-05
-2.58119e-06
-3.63196e-06
-0.000125601
6.39714e-06
0.000118905
4.51681e-05
-3.10673e-05
7.40937e-05
-4.38873e-05
0.000143925
-0.000208186
5.59783e-05
-1.13294e-05
-4.59358e-06
5.48744e-05
-5.03266e-05
2.74817e-06
7.28339e-06
-2.40486e-05
1.15811e-05
1.90028e-05
-5.57975e-06
-2.16816e-05
-4.53066e-05
-2.01425e-05
6.48657e-05
1.05425e-05
-4.66866e-06
-6.42888e-06
-5.26204e-07
-4.30179e-06
4.14924e-06
-1.93983e-05
-2.85527e-06
-1.59979e-06
-2.49762e-05
2.58756e-05
5.68649e-06
-6.22886e-05
5.55094e-05
3.55317e-05
-3.42165e-05
1.6646e-06
2.33714e-05
-4.34084e-05
5.56358e-06
5.38043e-06
9.90551e-05
0.000105075
2.97578e-05
-1.83238e-06
-2.80383e-05
-1.44389e-06
-1.6862e-05
1.68896e-05
-0.000125293
7.57074e-05
4.53036e-05
4.95568e-06
-2.72592e-06
2.14326e-05
-2.92882e-05
1.30277e-05
-1.56615e-06
-3.24513e-05
-1.26204e-06
3.9786e-06
9.80729e-06
-7.98518e-07
-7.86449e-06
-2.21113e-05
4.01806e-05
8.63769e-05
-5.20002e-06
-3.40651e-05
1.40692e-05
-9.74141e-06
2.30798e-06
7.18403e-06
1.53399e-06
-7.03571e-05
-7.96738e-06
3.03395e-07
7.34729e-06
4.35278e-06
-3.06785e-06
-1.29409e-06
7.34054e-06
2.31687e-06
-5.89092e-05
0.000162999
2.1529e-05
-3.06959e-05
9.14641e-06
-2.02177e-05
2.90425e-05
-1.35125e-05
9.12905e-06
-7.33158e-06
-1.88949e-06
8.00228e-06
-7.45057e-05
6.58509e-05
-2.39758e-05
-2.60472e-06
3.14888e-05
-0.000157409
4.91633e-05
-2.74083e-05
-2.10193e-05
2.4081e-05
-7.76637e-06
2.11174e-06
2.02476e-07
-2.60372e-06
-1.28239e-06
6.01277e-06
-5.20494e-06
8.21863e-05
-4.71821e-05
7.06306e-06
1.55397e-05
-2.71203e-05
9.55119e-05
-5.5546e-05
0.000120418
-0.000176735
5.63811e-06
-5.70573e-06
-8.38304e-06
5.06529e-06
-6.65794e-05
2.0655e-05
5.38472e-06
-6.25678e-06
5.5113e-07
2.22705e-06
2.11427e-06
2.28306e-05
4.47054e-05
-5.94994e-05
-3.27202e-05
8.19643e-05
2.67183e-06
-2.91655e-06
-1.65658e-05
1.6561e-05
-2.29567e-07
3.76896e-05
-3.06966e-06
-5.2631e-05
-4.57842e-05
0.000101857
1.35397e-06
1.30109e-05
-3.04697e-07
-1.39739e-05
1.48705e-05
6.85714e-07
1.99105e-07
-1.01768e-06
-3.33756e-06
-6.77971e-06
1.03071e-05
2.02778e-05
1.01414e-05
-3.09659e-05
-1.24951e-05
4.04482e-05
-5.46527e-05
7.08953e-05
-1.66313e-05
-6.77925e-06
-3.40824e-05
3.05499e-05
-6.41295e-05
3.32611e-05
1.09758e-06
-3.18208e-06
2.08975e-06
-0.000194562
-4.32653e-05
0.000236734
4.5739e-05
-6.19938e-06
-3.96946e-05
3.66718e-05
-3.37312e-05
-2.76582e-06
-0.000151354
-2.31846e-05
-6.54916e-05
8.77724e-05
-6.66441e-06
8.43046e-06
-3.31841e-06
1.6054e-05
-1.25608e-05
-3.48487e-06
-4.9689e-06
8.98838e-07
-4.53077e-05
4.06906e-05
-7.07856e-05
2.10914e-05
-1.14754e-06
6.51022e-07
3.34605e-07
-2.30473e-06
-4.36246e-06
1.46204e-05
-1.24578e-05
-2.42952e-06
9.08722e-06
2.04494e-06
-1.12897e-05
-3.12587e-05
0.000153968
5.07819e-06
-5.74328e-06
5.28955e-07
4.65912e-06
-1.5561e-06
-3.18047e-06
3.12696e-06
-2.54398e-06
-3.48924e-06
-9.98297e-06
4.65256e-06
-1.12796e-05
4.54887e-05
-1.52315e-05
1.79752e-06
1.92389e-05
3.1241e-05
-4.38626e-05
1.19687e-05
1.37752e-06
-2.93289e-06
1.51851e-06
-1.98906e-05
5.00909e-07
1.88263e-05
-0.000100615
-4.46893e-05
4.44827e-07
9.55947e-06
2.05826e-05
-1.88033e-05
-0.000117592
7.55394e-05
5.99933e-05
-7.56695e-06
-7.01839e-06
1.43654e-05
4.79555e-05
-5.38258e-05
8.72143e-06
-3.37041e-06
1.10598e-08
-6.39906e-05
-6.55665e-05
8.2571e-07
-3.17378e-07
-8.89759e-05
4.69834e-05
4.1577e-05
4.66742e-05
1.66085e-05
-1.79796e-05
-3.11642e-05
-7.58869e-06
4.52145e-06
-7.63999e-05
2.7948e-05
4.85593e-05
-2.90536e-05
0.000210195
-0.000180624
-1.64714e-05
-4.20568e-06
2.01652e-05
5.48141e-06
-3.59064e-07
5.20959e-06
9.54028e-06
7.89807e-05
-7.17407e-05
-1.00967e-05
1.17831e-05
-2.11917e-06
-2.0886e-05
2.50298e-05
-5.05708e-06
-0.000227844
0.000199324
3.59663e-05
-9.1577e-05
-7.09889e-06
2.49286e-05
-3.46697e-07
-9.81654e-07
1.67242e-06
3.11873e-05
1.64602e-05
2.76978e-05
-8.28018e-05
-0.000160158
-6.0526e-05
2.89744e-05
-8.04515e-06
8.55795e-05
-0.000140746
5.44742e-05
7.43248e-08
1.20139e-05
-1.23789e-05
-4.44741e-05
-1.46692e-05
-3.2732e-05
-2.57355e-05
-0.000128584
7.47679e-05
2.55066e-05
-9.13241e-05
2.54399e-05
-1.07537e-05
3.52302e-06
7.19475e-06
-4.53495e-06
-1.28333e-06
5.81899e-06
5.08048e-05
-7.92153e-05
-1.45305e-05
1.42138e-06
1.91059e-05
1.01464e-05
-1.79003e-05
-0.000116786
0.000172944
-5.55877e-05
-2.8783e-06
-1.40881e-06
-0.000187297
1.34563e-05
2.78014e-06
1.96159e-07
-5.80577e-05
-8.62556e-05
0.000165046
9.15302e-06
-3.67448e-05
2.72814e-05
-1.25277e-05
-3.89389e-05
5.03966e-05
-1.91087e-05
2.0642e-05
-1.26189e-06
-7.28154e-05
1.6536e-05
-2.27924e-05
1.16925e-05
5.30688e-06
1.81682e-05
-2.35081e-05
-2.27068e-05
-6.67958e-05
-1.11049e-05
1.111e-05
-2.56914e-05
-1.18711e-07
2.60204e-05
-9.97294e-05
4.60314e-05
5.3326e-05
7.01464e-06
-2.46171e-06
-4.56976e-06
1.65155e-05
2.49573e-05
2.34404e-06
2.29028e-06
2.22149e-05
3.43606e-05
-5.73843e-05
1.08953e-05
-9.57589e-06
-1.20608e-06
-6.52344e-05
8.12396e-05
-1.68774e-05
1.50012e-05
-1.84656e-06
-1.33554e-05
3.16373e-05
-2.63154e-05
-4.85222e-05
2.06115e-05
2.77212e-05
-1.29802e-05
-3.58921e-05
-5.11891e-06
-3.11328e-06
5.89269e-06
3.2397e-05
-4.13888e-05
-3.46572e-05
6.58027e-05
-9.27811e-06
8.72251e-08
-7.75237e-05
1.62849e-05
6.06764e-05
5.69723e-05
-9.63594e-05
3.87894e-05
4.84911e-06
-5.27467e-07
3.17504e-05
-2.01517e-06
-0.000107116
0.00014281
-3.57507e-05
5.68546e-06
2.47715e-06
2.50506e-05
-8.83581e-06
-7.67359e-06
8.43434e-05
-7.05226e-05
4.75842e-06
-8.49923e-06
6.18629e-06
-7.01169e-06
1.75345e-06
5.85046e-05
-8.01783e-06
-4.45329e-05
-7.66898e-05
0.000123066
-2.42419e-05
2.41276e-06
0.000161973
-0.000206304
-2.11625e-05
3.99228e-06
4.8517e-06
-2.6629e-06
-2.37683e-06
-2.36738e-05
3.05443e-05
-6.58441e-06
-1.04274e-06
-9.8815e-06
-4.73817e-05
7.7951e-05
-3.11989e-05
3.93989e-05
6.40635e-06
-1.14237e-05
-7.09186e-06
1.81398e-05
-4.71743e-05
9.7146e-06
3.61406e-05
-7.11235e-06
3.05081e-06
-1.70437e-06
3.97341e-06
-0.00012399
5.36597e-05
7.71084e-05
-3.40769e-06
1.22963e-05
-0.000118176
2.46993e-05
9.47803e-05
-2.80471e-05
3.60727e-06
0.000170892
-0.000141788
-1.95449e-05
6.92935e-07
3.13174e-05
-1.15976e-05
0.000123899
-0.000145543
1.92376e-05
2.39187e-05
1.18671e-05
-3.96634e-05
-2.1389e-05
-1.43697e-05
3.34839e-05
1.27309e-05
-2.77878e-05
-1.99749e-06
2.94024e-05
-2.95789e-06
1.67017e-05
-1.3584e-05
4.55444e-06
1.03536e-05
2.88745e-06
6.21088e-06
5.92364e-05
-2.89795e-05
-5.06509e-05
1.18133e-06
-7.56759e-05
2.60267e-05
-6.33237e-06
-1.05017e-05
-2.83793e-06
8.74974e-06
-6.15594e-06
0.000123691
-5.06956e-05
-7.32391e-05
-1.65708e-05
-6.80914e-06
5.00107e-05
-9.99186e-06
-4.2507e-05
1.58464e-05
-1.42781e-05
-2.08529e-06
-0.000132717
8.25407e-05
-2.9931e-05
3.24037e-05
3.4664e-05
-8.90163e-05
5.3905e-05
-6.02744e-06
1.5069e-05
-9.13957e-06
9.79646e-05
-6.38279e-05
1.1182e-05
4.76322e-06
-3.02666e-06
6.49553e-07
-1.10573e-06
1.30267e-06
3.57329e-06
-5.10641e-06
-3.2893e-05
2.56286e-05
7.33085e-06
-6.14794e-05
-3.86693e-05
-4.43859e-06
2.59578e-05
-1.46956e-05
9.88113e-06
-7.74648e-05
6.68348e-05
-1.09081e-06
5.7904e-07
-7.85622e-05
-5.80264e-05
7.00606e-06
4.92771e-05
3.24398e-05
-3.75017e-05
-4.04451e-07
-7.47529e-07
-4.93784e-05
-1.93314e-05
6.68756e-05
7.15934e-07
-0.000117748
-1.89158e-05
-2.24066e-06
2.55652e-05
-2.26602e-05
-6.77041e-07
1.16974e-05
1.61059e-05
-1.27736e-05
-3.45897e-06
1.95589e-05
-1.17981e-05
-2.18595e-06
2.72039e-05
-2.96931e-05
1.36952e-05
-6.93109e-06
-6.88067e-06
7.9473e-06
-6.05737e-06
-1.98811e-06
-5.91272e-06
-4.3017e-05
2.18123e-05
-7.00098e-05
1.50853e-05
-2.25112e-05
9.65493e-06
8.58548e-06
-9.86583e-05
-4.35231e-05
-3.85231e-05
8.14037e-05
5.44592e-05
-4.96463e-05
2.01318e-06
-5.98145e-06
-4.05999e-06
1.1691e-05
4.27379e-06
-3.7055e-05
-3.72057e-05
7.37129e-05
-2.15282e-05
2.44795e-05
-3.22694e-06
-4.24e-05
6.37526e-05
5.5112e-05
7.23686e-05
-3.77847e-05
9.64962e-06
-0.000107258
3.57463e-06
0.000103269
1.40384e-05
-4.36651e-06
-9.83313e-06
-9.94908e-05
-3.54988e-05
4.67979e-07
-5.41115e-07
-4.46462e-06
1.48837e-06
3.5955e-06
-7.4028e-06
-3.93365e-06
7.41131e-06
3.8173e-05
-3.82199e-05
-4.53751e-08
5.19863e-06
1.27975e-05
1.25205e-06
5.68604e-06
-7.4147e-06
9.60209e-07
6.48541e-06
2.02144e-06
7.63275e-07
-2.78626e-06
-0.000126333
0.000117611
2.21754e-05
2.34036e-05
-3.76696e-05
1.38503e-05
5.05161e-06
-0.000112636
-2.27438e-05
-6.41773e-05
8.62585e-05
1.21717e-06
1.03286e-05
-1.1802e-05
3.55525e-05
6.49681e-05
2.0238e-05
-5.95374e-05
-5.41342e-05
3.57102e-05
1.73501e-05
4.88507e-05
-2.0379e-05
-2.95832e-05
3.07505e-06
-1.11684e-06
-1.91494e-06
-5.57049e-05
6.507e-05
8.8581e-06
-1.81349e-05
8.84708e-06
-1.87457e-05
1.8185e-05
1.88447e-06
-2.60465e-05
3.228e-05
-6.53957e-06
-9.76208e-06
7.01478e-06
2.72333e-06
2.20687e-05
6.07411e-05
6.26405e-05
-4.13117e-06
1.96735e-05
-3.85814e-05
6.35444e-05
-2.11217e-05
-9.52253e-05
-4.30935e-06
1.15617e-05
-7.63604e-06
3.71404e-06
-2.64075e-05
-3.64949e-05
-3.98293e-05
-1.91284e-05
4.04521e-06
1.48065e-05
-0.000125097
5.46014e-05
-1.09357e-05
1.02343e-05
-4.50849e-07
-6.97864e-06
-1.50238e-05
-1.54621e-05
8.21693e-06
-7.38586e-06
-6.61507e-06
5.51993e-06
-6.91602e-06
1.57229e-05
4.60188e-05
1.49794e-05
-6.14003e-05
-2.47512e-05
1.88874e-05
5.35972e-06
-9.11434e-06
-1.62122e-05
2.35937e-05
1.29981e-06
6.4977e-06
-8.37222e-06
1.66354e-05
1.4603e-05
-1.39368e-05
-2.33456e-06
-1.92538e-05
2.32647e-05
-4.11232e-06
2.10971e-05
1.76246e-05
-2.48745e-05
-9.99976e-06
1.64766e-05
-7.01931e-06
8.84547e-05
-0.000135316
4.95206e-05
0.000145528
0.000164767
-0.000309663
3.39239e-05
-7.2931e-05
-1.03461e-05
-0.000193501
0.000193215
1.27818e-06
1.80135e-06
-5.43422e-06
1.62546e-07
-0.000155394
3.94255e-05
-4.09902e-05
-5.86844e-05
-2.70161e-06
8.97439e-06
-6.44488e-06
2.63082e-06
5.26872e-06
-6.82239e-07
1.26015e-06
-2.48649e-06
-7.24625e-06
-3.85217e-05
-0.00010871
0.000145034
2.61028e-06
2.56973e-05
-3.217e-05
0.000173987
-8.05671e-05
-9.36054e-05
3.21122e-06
-5.00511e-06
1.75209e-06
-7.39708e-06
4.786e-06
2.3109e-06
-9.27326e-05
4.12079e-05
2.69549e-05
-0.000127783
0.000100259
4.6794e-06
8.85015e-06
-2.21568e-06
-2.06786e-05
-1.04738e-05
-5.55485e-06
1.60881e-05
-1.0238e-06
4.04505e-07
-2.5841e-06
-1.21805e-06
3.78613e-06
2.01329e-05
5.82669e-06
-1.82665e-05
1.23341e-05
-0.000108061
0.000254484
2.29527e-05
4.5195e-06
1.79699e-06
-1.01379e-05
7.78218e-06
-3.73016e-05
-2.16809e-06
3.74258e-05
-0.000117236
7.41963e-05
-7.57023e-05
-2.74714e-05
0.000102692
1.20169e-05
1.60364e-05
-7.39036e-07
9.87965e-05
-9.47165e-06
4.92075e-05
-0.000123971
7.20579e-06
2.1159e-05
-2.4914e-05
-2.16681e-05
3.24028e-05
6.18135e-06
-1.17627e-06
-1.10269e-05
1.20159e-05
-4.4969e-05
1.53482e-05
1.83038e-05
-3.21294e-05
-5.55128e-07
-9.28618e-06
-8.65893e-05
2.37384e-05
-2.82608e-05
6.31381e-06
3.7965e-06
-8.19788e-06
4.16932e-06
4.86998e-05
3.02499e-05
-7.98656e-05
0.000187131
9.03716e-06
-1.05466e-05
-4.94421e-05
-1.58169e-05
1.27754e-05
4.24379e-08
1.58631e-05
-1.78626e-05
1.23838e-06
3.2708e-05
-4.15071e-05
9.98135e-06
-1.31568e-06
-1.52839e-06
5.93673e-07
1.04441e-05
-3.03107e-05
1.93295e-05
-4.27243e-05
2.93135e-05
0.000116844
-5.65746e-05
0.00010348
-3.01575e-05
-7.37835e-05
-7.43406e-05
-9.18552e-06
8.29515e-05
-2.55789e-05
6.31696e-06
-2.67976e-05
1.21592e-06
2.90238e-05
-8.87509e-06
2.40706e-05
2.51017e-06
1.78235e-05
-2.09107e-05
9.05583e-06
-8.25854e-06
-5.1554e-05
1.85924e-05
-2.83851e-05
-5.68828e-05
8.43926e-05
3.47078e-06
-2.37332e-06
-7.37909e-07
-2.2483e-05
7.88617e-05
-0.000113064
0.000130255
-2.01236e-05
5.92075e-06
-1.63675e-05
-4.80635e-05
3.9594e-05
8.12616e-06
-2.82333e-05
1.62633e-05
1.73228e-05
-2.94522e-05
3.13515e-06
-4.89986e-05
-1.31306e-06
3.79755e-05
-1.27271e-05
2.0066e-05
-7.21199e-06
-1.69118e-05
1.89184e-05
-6.61814e-05
2.45102e-05
4.17256e-05
2.66716e-05
2.10198e-05
-2.49559e-05
4.48118e-05
-4.81303e-06
9.75536e-06
-2.04968e-05
5.66541e-06
-6.65497e-07
-5.16223e-06
-0.000128548
2.85103e-05
7.94727e-05
1.0195e-05
-9.08641e-05
-9.46476e-06
2.78397e-05
1.48483e-06
1.53589e-06
-3.66138e-07
-4.18097e-06
1.31536e-05
2.17267e-05
3.7854e-05
7.22567e-09
8.3437e-05
-3.89051e-05
6.6668e-05
4.51759e-05
-0.0001125
7.15576e-05
4.51094e-05
4.54715e-05
-4.70375e-05
1.43184e-06
3.10029e-05
-2.0373e-05
8.73399e-06
-3.70071e-05
2.58e-05
1.00481e-07
5.44835e-06
-1.63689e-05
5.94975e-06
0.000117405
-6.02343e-05
-5.73101e-05
-7.62883e-06
-2.66811e-06
-3.34418e-06
-4.48514e-06
-8.47202e-05
5.91994e-05
2.51953e-05
2.29584e-05
-7.56047e-05
5.131e-05
2.33443e-05
-8.23871e-06
-1.50448e-05
-1.04576e-06
6.00576e-06
-3.56605e-06
2.87629e-06
-3.71547e-06
7.20425e-07
-3.14919e-05
2.99989e-05
1.123e-06
-1.41093e-05
0.000152053
-2.3874e-06
7.07775e-06
4.13691e-06
-9.02254e-06
-1.23554e-05
-6.67032e-05
-1.74222e-05
8.29738e-05
2.09134e-05
-7.17973e-06
-1.41304e-05
1.70078e-05
-5.93311e-05
-9.47124e-05
1.35313e-05
-1.04185e-05
1.24127e-05
-1.85056e-06
-1.24572e-06
-2.40281e-05
3.79188e-05
-2.88964e-05
-1.13653e-05
-1.14589e-05
6.29568e-06
-2.10302e-05
-0.000119015
0.00013702
2.71297e-06
-6.93959e-07
3.34921e-05
4.38174e-06
4.42588e-05
-1.08381e-05
-4.01512e-08
-9.09556e-06
-4.10603e-06
5.41032e-06
-2.68017e-05
2.97197e-05
-3.0027e-06
-0.00013804
0.000114101
-6.7602e-05
-5.43179e-05
3.34325e-08
-3.30335e-06
1.47085e-05
3.65347e-06
-7.55771e-09
-4.07476e-06
6.6981e-06
-4.38667e-05
0.000109555
-1.24862e-06
8.87929e-06
7.86994e-06
0.000100666
7.31359e-05
-8.47324e-06
1.3024e-05
-1.20641e-05
5.67557e-06
1.58098e-05
1.14183e-06
-1.73605e-05
0.000119977
-5.58055e-05
-6.48854e-05
1.92359e-05
-1.92003e-05
-5.30531e-07
0.000181889
1.41413e-06
-3.17219e-06
4.86852e-05
-4.14536e-05
-4.92674e-06
-4.35809e-05
6.90435e-06
7.15571e-05
4.96406e-05
-2.42266e-06
-4.16238e-05
0.000231456
-0.000291503
6.23625e-05
0.000176108
-3.50759e-05
4.29936e-05
-3.7439e-05
-6.07369e-06
-8.79831e-06
-4.98844e-05
-2.54756e-05
2.87736e-06
2.22919e-05
1.37482e-05
-1.65681e-05
2.12331e-05
-3.72032e-05
-6.73777e-05
6.5385e-05
-2.72299e-05
1.17858e-05
1.50633e-05
-4.00938e-06
-2.27113e-05
6.59898e-06
-3.70542e-08
-5.97117e-06
-0.000260948
6.51935e-05
-3.86039e-05
-1.66915e-05
5.48552e-05
0.000119765
-6.84787e-05
-6.21486e-05
6.42449e-05
-5.6732e-06
0.000111712
4.54496e-07
7.75719e-06
-6.40659e-06
3.58324e-05
-4.12375e-06
1.17491e-05
4.21911e-05
-8.1164e-05
3.47516e-05
4.31487e-06
-8.91235e-06
5.27131e-06
-4.18959e-05
3.6358e-05
4.41877e-06
-3.13631e-06
-1.29242e-06
-4.23825e-05
4.38865e-05
-1.88797e-06
-0.000114152
3.7793e-05
1.74715e-06
-2.81528e-06
1.04523e-06
4.3366e-06
-4.82932e-06
-2.98423e-05
-7.8495e-05
0.00010769
4.14086e-05
-0.000158029
2.05072e-07
6.65589e-06
-7.00168e-06
-2.6002e-05
-5.53231e-06
6.83417e-07
-2.14606e-05
-1.26652e-06
2.11006e-06
-8.69076e-07
0.000115891
-8.94983e-05
-4.42848e-06
-3.24474e-05
5.63128e-06
0.000115599
3.5418e-05
-3.79336e-05
1.99007e-06
-1.03204e-05
-2.32444e-05
0.000257316
2.44873e-05
1.3341e-06
-2.78068e-05
-3.86726e-07
-9.07168e-06
0.00020655
-0.000199406
-0.000133964
0.000189573
-5.79502e-05
5.24745e-06
2.38839e-05
-2.56333e-05
2.06386e-06
-6.55051e-06
1.25071e-05
-3.05004e-06
4.06836e-05
-7.83037e-05
-9.08512e-06
9.07276e-06
-8.55252e-05
4.1269e-05
4.36899e-05
2.66311e-06
-5.07051e-06
0.000119353
-5.58636e-05
3.28985e-05
-4.24929e-05
2.9569e-05
3.15494e-05
-6.01358e-05
2.8358e-05
7.69715e-05
-4.23301e-05
3.59574e-05
-6.52784e-05
2.88331e-05
3.66486e-05
-2.29599e-06
-2.82061e-05
2.11281e-05
2.98407e-05
-5.06138e-05
0.000107054
-0.00014775
-9.54676e-07
-1.7319e-05
-2.10313e-05
1.19015e-05
9.1688e-06
6.61336e-06
-2.99171e-06
-4.94717e-06
2.11661e-05
3.92398e-05
-3.04801e-05
-2.19523e-05
-3.90131e-05
-1.96242e-05
5.77759e-05
-4.38318e-06
4.01971e-06
3.9267e-07
-4.99779e-06
4.37939e-07
4.40323e-06
-3.62744e-05
4.10717e-05
-3.47831e-05
5.02484e-05
-1.70573e-05
2.35412e-06
-2.08698e-05
2.55009e-05
4.46055e-06
3.18874e-06
1.23022e-05
-2.30302e-05
-2.94193e-06
-2.47761e-05
4.10243e-05
-1.66725e-05
-6.20995e-06
1.38364e-05
-7.7142e-06
-9.77859e-06
-4.99319e-05
5.93309e-05
-2.5538e-05
3.97838e-06
-2.33078e-05
7.33784e-06
1.47096e-05
2.80075e-05
-2.99575e-05
1.34213e-05
-5.07813e-05
-1.84667e-05
-8.51996e-06
2.69745e-05
3.56741e-05
2.03092e-05
-5.71445e-05
8.32285e-05
-0.000166791
8.0204e-05
8.42139e-06
1.1351e-05
-7.26216e-05
4.948e-05
8.59437e-05
0.000184601
-0.000269845
1.86154e-05
-8.60442e-05
-6.38373e-05
2.71417e-05
5.42967e-05
-9.01437e-05
-4.42094e-05
7.64717e-05
-3.32417e-05
-1.01087e-05
6.76658e-06
-2.61531e-05
1.33572e-05
0.000164077
-4.39406e-05
-0.000122258
5.58134e-06
2.93275e-05
-4.66414e-05
1.01182e-05
-3.18859e-05
1.64772e-06
2.801e-05
9.93752e-06
9.38267e-07
-2.4719e-06
-0.000106833
0.000109083
-0.000300166
0.00025571
5.15822e-05
0.000100413
-6.36685e-05
-3.73473e-05
1.29933e-06
-2.2532e-05
2.43386e-05
-4.03973e-07
3.56392e-06
9.28543e-06
-8.29403e-06
-2.20988e-06
3.87887e-06
-2.76818e-05
0.000122416
-1.73407e-05
-9.68141e-05
-1.61049e-05
2.03692e-05
-3.56721e-06
-4.98182e-05
4.67829e-06
4.50122e-05
-2.56815e-06
4.81504e-05
-8.21624e-06
-3.55303e-05
4.19471e-05
-1.77069e-05
1.53891e-05
2.13835e-06
1.18117e-05
-4.54487e-05
3.40217e-05
-3.85315e-06
-2.2568e-05
5.68581e-05
-2.09419e-05
-1.51114e-06
2.20192e-05
0.000202378
-4.7126e-05
-0.000155928
-6.34814e-06
1.49091e-05
-8.69024e-06
1.34002e-05
-3.09024e-05
-1.57446e-05
0.00010082
-5.04415e-06
-6.47491e-06
1.14691e-05
1.96144e-06
-1.7846e-05
1.38055e-07
9.16322e-06
-8.87066e-06
8.36187e-05
1.62441e-05
-1.85966e-05
6.87387e-06
-4.73138e-05
2.05697e-06
4.49986e-05
-2.73945e-05
3.93624e-05
9.71436e-06
-5.64975e-06
9.64472e-05
-0.00024202
0.000155716
-3.87634e-07
2.67631e-07
3.25382e-07
-2.43492e-06
1.46859e-05
-1.52361e-05
-4.23086e-05
8.95164e-05
-4.77689e-05
1.68122e-05
-1.58663e-05
-8.35475e-07
-3.51616e-05
0.000104121
1.98928e-05
-2.15152e-05
3.47611e-07
0.000100102
-5.39108e-05
-4.84183e-05
9.94356e-05
-6.31434e-05
-3.3432e-05
7.63317e-05
-3.28778e-06
-5.945e-05
-5.51524e-05
-4.54299e-05
-6.31811e-07
-3.75993e-06
4.42999e-05
3.20265e-05
-7.66478e-05
-0.000174941
0.000164219
-1.27218e-05
3.12058e-05
-1.61436e-06
3.05093e-06
2.97779e-05
-4.06949e-05
0.000106527
-6.64791e-05
-0.000105094
-2.4221e-05
-1.95835e-06
-1.54271e-05
5.57624e-06
3.35305e-07
-6.09336e-06
-8.92941e-06
8.37482e-06
5.91048e-07
-3.47578e-05
-3.13846e-05
0.000152661
-7.36589e-05
6.93473e-05
-3.91945e-05
1.73872e-05
7.22657e-05
1.20323e-05
1.00806e-06
7.16407e-05
2.16131e-06
-6.60219e-06
-1.26953e-05
5.48772e-05
-2.1066e-05
3.8689e-06
-6.35621e-06
4.83798e-05
-0.000131322
8.21618e-05
7.61107e-05
-3.39177e-05
-4.26077e-05
-5.04325e-06
-2.08073e-06
7.16369e-06
4.55578e-05
1.90229e-06
0.000114047
-2.42624e-05
7.64653e-05
2.96355e-05
-0.000106501
-4.12717e-06
3.07641e-06
1.91033e-06
-6.39028e-05
3.84026e-05
2.09566e-05
-4.24945e-05
0.000123845
3.58882e-05
-0.000172518
-3.89617e-06
6.13845e-06
-1.26205e-05
3.16833e-06
9.36148e-06
4.61587e-05
4.98488e-05
-0.000207805
0.000263271
-5.38888e-05
-1.48501e-06
8.17492e-06
-7.47338e-06
9.47014e-06
-1.33769e-07
-9.41072e-07
1.04741e-05
2.49919e-06
-1.00218e-05
5.88556e-05
-0.000263158
-2.82905e-05
-0.000191888
-4.74705e-05
0.000237154
-9.19126e-05
0.000268268
-0.000175849
4.76854e-06
-0.000233213
0.000206886
2.83348e-05
-1.74028e-05
8.61863e-06
-5.948e-05
6.10918e-05
-2.49714e-06
-8.51203e-06
1.0053e-06
5.49899e-06
0.000162533
5.23532e-05
-0.000206277
1.98832e-05
-1.92165e-05
-2.85126e-06
-0.000149118
6.11724e-05
8.84278e-05
4.83388e-05
-0.000178787
1.20882e-05
-2.30425e-05
1.09958e-05
0.000180021
-0.000266189
8.74013e-05
0.000313156
-0.000101056
-0.000207675
-2.62554e-06
-1.72308e-08
2.67447e-06
4.3915e-06
-5.46343e-07
2.31333e-05
1.28767e-05
3.40859e-05
3.30049e-05
-1.05133e-05
-2.26911e-05
0.000140421
-8.99723e-05
-5.175e-05
-5.35536e-05
0.000191201
-0.000141272
1.50315e-05
3.99817e-05
-3.92716e-06
-1.81147e-05
3.92744e-05
-3.08371e-05
3.44685e-06
2.27349e-05
3.3203e-05
-0.000161944
-4.30793e-06
-8.90222e-07
-7.04222e-05
4.54355e-05
2.32483e-05
9.42915e-06
-8.03266e-07
-8.78903e-06
-1.86682e-06
3.59037e-05
-5.98153e-06
4.69844e-06
-5.25027e-05
-2.70595e-05
7.12301e-05
4.70163e-05
-0.000211573
-5.16045e-06
-7.54405e-06
1.27496e-05
2.1011e-05
1.16001e-06
-2.22475e-05
-6.22897e-05
-8.5549e-05
-1.57139e-05
-7.71849e-06
-1.47109e-05
3.1652e-05
-6.43894e-07
-0.000230158
3.31825e-05
9.52785e-05
-5.21138e-06
-6.30116e-07
-9.51587e-05
-0.00019791
9.26523e-05
0.000139606
-5.99784e-06
-9.65513e-06
8.99923e-05
-8.29773e-05
2.08436e-05
-2.36232e-05
-1.35244e-05
-2.70974e-05
0.000166943
-0.00026714
0.000100872
3.42813e-05
1.8347e-05
-5.28879e-05
3.63014e-05
-3.97381e-05
4.45119e-06
8.23037e-06
-4.77774e-05
-3.63178e-05
8.60376e-05
-8.12342e-05
-1.99284e-05
1.51431e-05
3.79953e-06
-6.76468e-06
-1.48549e-06
1.75615e-05
-8.73057e-06
-4.52839e-06
1.32256e-05
-6.8424e-06
5.79513e-06
7.10523e-07
-5.72051e-05
1.80906e-05
7.80494e-06
-7.09023e-07
-9.23695e-06
-1.5055e-06
1.06402e-05
-6.20373e-05
-2.94049e-05
-7.43349e-06
4.98153e-06
8.63115e-06
1.24822e-05
5.00379e-07
-9.8048e-06
1.25724e-05
-1.0832e-05
-2.06682e-06
-2.07404e-07
-2.38367e-06
1.02426e-05
-2.27924e-05
-1.08031e-05
-1.68409e-05
8.22556e-05
-0.000110148
-9.99104e-06
3.23893e-05
-9.15727e-05
-8.45594e-06
5.36351e-06
0.000196442
-0.000302796
-0.000195733
0.000128425
6.35004e-05
-0.000104922
-4.29841e-06
0.000103308
4.95514e-07
-0.000104926
4.00024e-05
1.90982e-05
-5.90811e-05
6.38314e-06
-2.97043e-06
-3.43699e-06
-6.34949e-05
-0.000131082
-3.35395e-07
6.98907e-07
-2.36799e-06
-1.86307e-05
1.10098e-05
7.52829e-06
2.75222e-05
-8.15185e-07
-2.67261e-05
2.8151e-06
1.46941e-05
-5.05954e-05
-0.000102119
4.79206e-05
5.34168e-05
0.000245083
-0.000169674
-7.41447e-05
-3.00041e-06
-1.80794e-05
-2.08564e-05
-2.75235e-05
4.71299e-05
2.21357e-05
-6.9713e-05
8.2547e-05
-9.4872e-05
-9.81735e-06
-2.90527e-06
3.38834e-06
-8.36935e-06
2.15478e-05
-8.44685e-06
6.45521e-05
-0.000258516
1.54793e-05
-1.79315e-05
-5.93356e-05
4.99579e-06
-1.2301e-05
1.26365e-05
-7.31231e-08
1.341e-06
3.44894e-06
-9.20862e-06
5.75951e-06
9.20586e-05
0.000151628
4.9985e-05
0.000117535
-6.99092e-05
-8.85479e-05
0.000147205
0.000100786
-4.81961e-05
-6.58273e-05
1.7757e-05
-9.25812e-05
-3.87505e-05
2.87556e-05
7.40366e-06
1.1732e-05
-1.94454e-05
-1.1887e-06
1.49585e-05
-1.43263e-05
0.000221479
-0.000133371
3.06802e-06
2.35553e-06
5.3978e-06
-7.77514e-06
-3.92292e-05
-9.58665e-06
-5.69212e-05
6.55206e-05
-1.94202e-06
-1.61419e-07
2.11743e-06
4.78252e-05
-0.000204842
3.66053e-05
-7.94093e-05
3.80005e-05
1.35079e-05
-5.18477e-05
-1.70329e-05
-2.34876e-06
-2.23264e-06
6.88418e-05
5.03987e-05
-4.96034e-07
-6.681e-06
6.91769e-06
4.35265e-06
4.33701e-06
-2.27989e-06
-3.10266e-06
4.97379e-06
-9.48655e-07
1.77164e-05
-1.76592e-05
7.11679e-06
-1.36745e-07
-1.89328e-05
8.83185e-05
-6.90283e-05
-1.36701e-05
-5.19772e-06
1.84981e-05
5.60792e-05
-6.66532e-05
-0.000111167
4.8256e-05
6.35989e-05
7.04808e-05
-4.8829e-05
7.91284e-06
-1.2462e-05
-7.12728e-06
-1.76395e-06
9.69559e-05
-0.000270379
0.000173602
-5.2412e-05
0.000223059
0.000105169
-2.92264e-05
5.57812e-06
-0.000102142
7.51913e-05
-0.00010234
2.55649e-05
7.88642e-06
-1.34865e-05
2.3819e-05
-0.00013125
-2.27567e-05
-8.70158e-05
0.000254426
5.05663e-05
3.41077e-05
-3.34289e-05
-1.98193e-06
-3.57852e-06
8.65788e-06
-5.17175e-06
4.78834e-05
-0.000199377
7.47483e-06
-4.3532e-05
3.58112e-05
3.7462e-05
7.96761e-05
-1.6451e-06
-3.38811e-06
-3.53638e-06
5.79526e-06
4.03507e-06
5.98658e-06
2.28058e-05
9.97392e-06
2.34238e-05
-3.05222e-06
2.2082e-06
-1.4008e-05
7.87987e-06
1.35956e-05