/*--------------------------------*- C++ -*----------------------------------*\
| =========                 |                                                 |
| \\      /  F ield         | OpenFOAM: The Open Source CFD Toolbox           |
|  \\    /   O peration     | Version:  v2012                                 |
|   \\  /    A nd           | Website:  www.openfoam.com                      |
|    \\/     M anipulation  |                                                 |
\*---------------------------------------------------------------------------*/
FoamFile
{
    version     2.0;
    format      ascii;
    class       surfaceScalarField;
    location    "100";
    object      meshPhi;
}
// * * * * * * * * * * * * * * * * * * * * * * * * * * * * * * * * * * * * * //

dimensions      [0 3 -1 0 0 0 0];
oriented        oriented;


internalField   nonuniform List<scalar> 
20673
(
-1.01282e-12
-1.33148e-12
3.63212e-12
2.09245e-11
6.50744e-11
-9.5545e-11
-4.68771e-13
-1.17513e-12
2.23675e-12
2.14494e-11
-1.28021e-11
1.3671e-10
2.67568e-10
2.97149e-10
-5.83253e-13
-6.06328e-12
-1.35221e-13
5.67458e-12
5.8739e-13
-4.4621e-13
-8.70577e-13
9.47136e-13
3.24203e-13
-1.62792e-13
-2.00778e-12
1.71354e-13
1.37558e-12
-6.28927e-12
2.11774e-12
9.652e-12
2.12244e-11
4.11077e-13
-2.39801e-12
2.72503e-11
4.24318e-11
1.14299e-11
-5.15935e-11
-1.20921e-06
-2.44856e-12
2.61354e-07
1.78832e-11
-2.70811e-11
2.0487e-11
5.99404e-12
-8.04289e-12
-6.77554e-11
2.80705e-11
7.7735e-13
-9.68587e-12
5.86579e-11
-5.7018e-13
2.2232e-11
1.60016e-11
1.57897e-10
4.57767e-10
-2.21467e-10
3.37075e-11
7.6215e-10
-8.69347e-11
-1.52857e-09
-8.29822e-14
-8.77222e-13
2.28487e-11
8.00236e-11
2.94246e-11
-1.80511e-13
4.84119e-13
-2.21681e-10
-3.37853e-11
8.08879e-11
-2.42858e-12
2.08108e-12
1.07177e-12
-1.17369e-11
3.89685e-13
1.75892e-12
9.83827e-13
-7.18397e-14
-2.4315e-13
-8.58344e-14
-2.5025e-13
3.88718e-13
4.04297e-13
-4.0846e-12
-1.28706e-11
-6.55862e-12
-4.52571e-12
4.26901e-12
-7.63676e-12
4.2627e-14
1.09243e-11
-4.84366e-12
7.39604e-12
1.88497e-12
1.49501e-11
-2.96166e-12
-1.56861e-11
2.77631e-11
-2.42969e-11
2.85497e-11
2.97189e-12
2.62725e-12
1.96683e-13
2.77559e-11
1.05917e-10
-1.35324e-13
6.36145e-13
-5.0366e-14
-8.99591e-11
-5.95789e-11
-3.94833e-14
6.9699e-13
5.46148e-14
-3.96381e-11
-8.37367e-11
4.17064e-11
-7.27469e-11
-6.97273e-10
5.63427e-10
-4.59928e-10
1.23771e-10
1.82087e-10
1.32676e-12
-9.09242e-13
-1.46761e-12
-1.22202e-10
2.91615e-10
-5.06599e-11
9.49188e-12
7.22717e-12
-1.30971e-11
8.70261e-12
9.86519e-11
6.23521e-12
-7.66579e-12
-2.58318e-12
1.15287e-11
8.54837e-12
-1.85569e-11
1.76843e-12
-2.30743e-11
1.30201e-10
7.78297e-11
-5.44566e-11
-9.44765e-11
-6.19136e-11
4.53031e-11
5.25619e-11
-4.45364e-12
1.66467e-11
5.26352e-12
5.71955e-12
4.93272e-11
7.00236e-12
2.78898e-11
4.03106e-11
-5.17351e-11
1.68277e-12
3.18018e-11
1.52968e-10
-2.90538e-12
-2.03314e-10
-1.80939e-11
-5.06648e-12
3.70217e-12
5.19843e-11
-1.26131e-10
-1.99898e-12
3.61012e-12
1.19477e-13
2.81605e-11
-1.22973e-11
-4.11031e-07
3.2374e-10
-2.36471e-11
3.3054e-12
-3.3151e-12
1.21414e-12
-3.86893e-13
-1.18404e-12
-3.84112e-12
-1.39008e-10
-1.01629e-10
2.61926e-11
-8.87301e-12
-1.52183e-12
-2.68195e-12
-2.52002e-11
-5.05155e-12
9.6113e-12
3.2594e-11
3.59775e-10
-1.01752e-12
-1.43917e-13
-5.22203e-13
-3.00076e-13
3.18408e-13
9.79821e-11
1.46722e-11
7.24015e-12
-1.04547e-11
6.54103e-12
3.48314e-11
-6.45508e-12
1.21153e-11
4.96534e-13
-7.83357e-13
2.19103e-13
-2.16922e-10
1.17152e-10
1.60333e-11
-1.71313e-12
3.10668e-13
6.21151e-12
8.10076e-11
7.60042e-10
-4.96003e-10
1.82764e-10
-2.19877e-10
5.71175e-11
-3.38055e-11
1.32846e-12
1.33828e-12
-2.84191e-12
5.21933e-13
-8.66584e-14
2.15276e-12
-6.81195e-13
6.91453e-15
-1.19485e-10
-9.80414e-11
1.52172e-10
1.38909e-10
7.31017e-12
-1.88114e-12
1.71215e-12
3.47463e-11
7.05667e-11
-2.80233e-10
-3.09907e-11
-9.00144e-13
1.0809e-12
1.05519e-13
1.97356e-12
-8.19374e-13
2.2398e-12
4.67463e-10
-1.38297e-10
-3.5579e-10
-1.31163e-11
-1.31197e-11
4.03682e-12
8.28708e-13
-3.1769e-12
2.4035e-12
1.01703e-13
1.77853e-13
3.92724e-12
-7.22783e-13
4.54079e-12
2.95404e-12
2.2695e-12
-4.35919e-12
1.46515e-11
-3.93921e-12
-1.84869e-12
-2.21283e-12
8.66636e-12
-1.7138e-12
2.19289e-11
-8.69939e-11
-2.49912e-11
1.57613e-11
-3.34656e-12
-3.88729e-12
-2.23695e-13
8.7599e-13
-2.21001e-11
1.57087e-12
9.17718e-12
1.27723e-10
-1.33572e-10
9.02389e-12
1.80142e-12
1.41658e-12
-4.07553e-12
-7.09892e-13
-3.72126e-13
1.2852e-12
5.73518e-12
3.86262e-12
5.11046e-11
-2.38288e-11
1.30711e-11
1.06975e-11
-2.62585e-11
5.22003e-13
3.01042e-13
3.7861e-14
1.28192e-12
6.00791e-13
1.35185e-11
-4.35124e-13
-7.90261e-12
-1.05672e-12
1.66371e-12
-1.97884e-11
1.20501e-11
1.89866e-11
-2.4683e-14
6.58121e-12
-7.0899e-12
1.47659e-10
4.25735e-11
-2.71026e-10
7.91929e-12
-3.27239e-12
-2.85577e-12
8.16583e-13
4.55696e-13
-1.53362e-12
-1.7474e-12
4.60039e-12
-2.23045e-12
-2.63318e-10
6.83538e-11
-2.18327e-12
-9.73436e-12
-2.01625e-12
1.00969e-12
7.4505e-13
-1.42428e-12
-2.79109e-12
2.919e-10
-2.13303e-10
3.17909e-10
-1.70015e-11
1.04791e-11
-2.45075e-10
1.58376e-10
4.23844e-11
-7.10987e-11
5.76173e-10
5.6057e-10
-3.86243e-10
-4.42715e-10
1.27596e-12
-6.18687e-13
-1.85673e-14
6.22669e-13
6.343e-12
-2.70629e-11
1.20871e-10
2.15737e-11
4.95306e-10
4.39332e-11
-4.45108e-14
-1.25591e-12
3.15448e-12
-4.56015e-13
2.27401e-13
2.92307e-12
2.20449e-12
4.95512e-13
-1.84173e-13
-3.07268e-12
2.39683e-11
1.58834e-11
-2.09322e-11
1.07198e-11
7.43983e-12
-9.0163e-13
-1.0166e-10
-2.4071e-10
-9.99104e-11
-4.6175e-11
3.96654e-11
2.91399e-11
1.46658e-12
9.70993e-14
-7.13908e-14
-3.58477e-11
-2.47803e-12
5.36934e-14
2.17627e-12
7.48941e-14
1.11974e-12
-1.15549e-12
-2.77551e-13
4.4755e-12
1.38151e-11
-2.50765e-10
7.58168e-10
-4.69449e-10
-8.89932e-12
-6.20757e-12
7.65604e-12
2.49548e-11
4.84567e-11
9.51235e-12
-2.72283e-13
1.32361e-12
1.14627e-11
3.17568e-12
2.4232e-12
2.27037e-11
-1.93194e-11
3.6098e-13
1.67766e-12
-1.19441e-11
1.42299e-11
-2.27528e-12
-4.51553e-13
2.14169e-12
2.07844e-12
-4.24399e-11
2.39677e-13
-1.42128e-12
-6.26112e-13
1.63922e-12
-1.43538e-13
1.22419e-12
5.98514e-13
-1.69187e-11
1.67457e-11
1.38275e-12
4.87302e-13
-4.72846e-12
7.26828e-12
1.03122e-09
3.54973e-10
-6.20524e-11
-1.57841e-13
1.48307e-11
-3.04114e-12
1.83089e-11
1.25056e-11
-1.35585e-13
4.0704e-11
-3.26595e-11
3.39958e-11
1.65076e-11
2.01014e-11
-6.91631e-10
4.97046e-10
9.60857e-11
6.27423e-12
1.48103e-12
-1.15201e-11
-1.43112e-12
1.94463e-11
-5.12778e-13
1.33813e-12
1.52346e-13
-7.96786e-12
-9.32375e-12
2.76669e-12
-8.55442e-11
7.2792e-11
-9.57356e-12
1.13785e-12
-6.17734e-16
-1.80579e-12
-3.44472e-11
2.40601e-11
2.95763e-12
2.43412e-14
7.12708e-13
6.10028e-12
7.86963e-12
5.97139e-13
4.32127e-13
-2.76876e-10
3.6891e-11
1.46261e-10
1.25808e-11
-7.06815e-12
-2.44588e-11
1.05141e-11
-1.5684e-11
-6.84891e-10
2.04684e-10
1.16062e-11
-2.15606e-12
-6.11683e-12
1.14755e-11
-6.0621e-13
-1.36227e-13
7.4013e-12
-1.07081e-13
1.65345e-12
-4.34136e-13
7.59817e-13
-5.93847e-12
-1.10534e-12
-9.30234e-12
1.62107e-11
8.96603e-13
-1.64101e-11
-8.73037e-12
2.5066e-12
-9.68205e-13
1.11567e-12
5.24876e-13
1.36525e-12
7.67418e-13
2.05203e-12
-6.34618e-12
1.17252e-10
1.31333e-10
-3.5264e-14
-1.44882e-12
-1.11328e-13
-1.04497e-11
-1.87122e-12
8.81841e-11
5.14486e-10
3.05546e-10
1.95571e-10
-3.4541e-13
-5.24946e-13
1.58884e-13
-7.68625e-13
-8.46243e-13
-1.62929e-12
-3.32842e-11
6.14142e-11
-1.38182e-11
-3.95675e-11
1.17075e-10
7.59028e-11
-2.35353e-11
3.52877e-12
1.46581e-11
1.4909e-10
-6.22408e-14
-1.02728e-12
-5.84216e-13
-1.76908e-12
7.1701e-13
-1.82999e-11
-2.37953e-12
1.99785e-12
4.31033e-11
-2.36915e-12
-1.99057e-12
7.26521e-13
1.05926e-12
-4.93295e-13
2.53953e-11
-3.83992e-11
1.73216e-13
1.80375e-13
1.37939e-12
-2.48402e-12
3.54277e-12
-3.25725e-13
2.1314e-11
2.00891e-12
-8.73317e-11
3.23158e-10
-1.55196e-12
1.06398e-12
6.96019e-13
-2.45933e-12
7.59574e-12
1.01302e-11
-1.17965e-12
1.38937e-12
8.66491e-15
1.45245e-11
-9.18077e-11
1.61551e-11
1.76791e-13
-6.29898e-13
4.13125e-11
-4.11245e-10
1.01732e-11
-5.94538e-12
-4.66944e-12
-1.05979e-10
-2.83982e-11
7.25004e-13
2.32756e-13
-1.65371e-13
1.13152e-12
6.67008e-13
-1.04658e-12
-3.1463e-11
-2.49908e-11
-1.8532e-13
5.05467e-12
2.05041e-13
-2.9869e-11
1.61179e-11
5.45761e-10
-6.14787e-10
5.25905e-12
9.35537e-13
-1.21579e-12
6.34321e-13
7.2816e-12
-8.05943e-12
-2.13717e-13
6.44662e-13
-4.27107e-13
-1.91721e-14
-1.19307e-12
-4.22297e-11
4.67936e-12
2.07207e-11
7.39817e-12
-1.44017e-11
-2.482e-13
2.02235e-13
-2.4734e-13
1.11386e-12
-9.31305e-15
4.88807e-10
-1.16009e-11
1.78617e-10
-4.55855e-13
-2.58921e-10
1.77744e-13
-4.27365e-13
1.42533e-12
-4.22756e-12
-4.94352e-12
4.55702e-12
-5.31842e-13
-9.40345e-12
-8.13743e-12
2.65453e-12
1.33591e-11
-5.88594e-12
2.35108e-12
1.76887e-11
5.49079e-12
1.30837e-12
2.88894e-11
-1.89203e-11
8.15329e-12
-2.02412e-11
1.36791e-09
6.13261e-12
-2.17296e-11
-4.2215e-13
-1.18174e-12
-1.22127e-13
5.60995e-13
9.98145e-11
-5.30621e-12
-1.25342e-10
-8.25355e-12
-6.10025e-13
1.08849e-11
7.96969e-15
-1.42242e-12
-5.05994e-14
-2.82875e-10
-6.15567e-11
-2.86125e-11
-7.5359e-12
-1.02082e-11
1.41369e-11
-5.53636e-13
-6.27615e-13
4.65046e-13
7.48153e-15
5.19591e-12
6.50695e-12
1.99296e-12
3.84333e-14
2.30696e-11
-9.14875e-12
-5.85975e-11
4.94548e-11
-5.43621e-12
-1.1942e-12
-5.10784e-13
-2.70741e-13
1.92955e-12
9.37978e-13
-2.63422e-12
-3.55128e-12
1.55166e-11
-1.24474e-10
2.66958e-10
9.59082e-13
-5.29435e-13
-4.26099e-13
4.61844e-13
2.4139e-13
-4.17356e-13
2.45879e-12
1.10303e-13
1.4525e-14
2.02617e-12
-1.32355e-13
2.6708e-11
1.18427e-09
-4.03271e-11
-9.36428e-11
3.4538e-10
1.81966e-11
-1.85924e-11
1.42419e-11
5.68301e-13
-5.29275e-13
-8.40227e-13
3.33209e-12
5.74363e-12
2.20063e-11
-2.34429e-11
-2.05691e-11
-1.11545e-12
-8.3908e-13
2.65033e-11
-3.55249e-11
1.58145e-10
1.31478e-10
-2.12838e-10
-5.16105e-13
-2.6014e-13
3.1554e-14
2.07797e-10
-2.09475e-10
1.25438e-11
-1.02253e-12
8.08728e-13
1.00674e-10
-8.63915e-12
-8.166e-13
8.36157e-14
3.50698e-11
-1.38613e-11
-1.13898e-11
1.19846e-11
6.33262e-12
1.46187e-11
-7.21438e-12
-9.60479e-13
-1.7273e-14
-3.41545e-11
6.25737e-12
1.88127e-11
6.98327e-13
-2.08746e-11
5.37695e-11
1.10571e-12
-9.37007e-13
-8.87049e-13
-5.39707e-13
3.95763e-13
-1.05944e-12
-9.21322e-13
-1.83553e-11
-6.17624e-11
-3.32749e-12
4.09957e-12
-4.13806e-13
1.51528e-10
3.02203e-11
1.58409e-12
8.25588e-11
-4.98355e-11
-1.06042e-10
2.07775e-10
4.74354e-14
8.60584e-13
-4.06582e-10
1.96975e-10
1.21647e-10
4.56685e-12
4.19019e-12
-1.48071e-11
6.91828e-11
-4.46803e-10
-2.25397e-10
4.62115e-11
-2.82658e-12
1.77422e-11
-3.42573e-11
6.13751e-12
-1.19156e-11
1.37113e-12
7.0118e-12
-1.7699e-11
-8.26415e-12
-3.42606e-12
5.47007e-13
6.00998e-09
-2.12543e-08
1.30104e-09
-6.21858e-11
5.5522e-12
8.42783e-13
-7.51728e-13
-8.76576e-13
3.11949e-13
5.16922e-13
-6.84603e-13
-1.08397e-10
6.46105e-11
-6.90354e-10
-4.8437e-11
6.48293e-10
-1.53097e-13
-7.86188e-13
-1.38414e-10
1.52858e-10
-3.73806e-11
-7.05729e-14
1.73863e-13
-4.39649e-09
-3.99753e-09
-1.54723e-13
7.93232e-13
1.51818e-10
2.16092e-11
-3.12931e-10
8.0238e-13
-5.97213e-12
1.59621e-12
-1.02445e-12
-5.97472e-11
-1.08829e-11
-2.08815e-12
1.10463e-12
1.43716e-12
-8.56242e-12
-1.44112e-12
-9.71452e-13
8.88494e-13
-1.28176e-12
1.08636e-12
7.34324e-14
8.19147e-12
1.25817e-11
-6.38812e-12
-2.88425e-12
-4.45905e-13
2.63798e-13
-6.10293e-13
-5.54862e-11
1.59855e-11
2.56394e-11
-7.33021e-13
5.36353e-13
1.43664e-13
-2.30031e-12
2.00462e-13
1.669e-13
9.59126e-15
-2.87831e-11
1.39275e-11
4.79706e-12
-8.44531e-13
4.47228e-14
2.41767e-14
2.63306e-11
-1.20098e-11
6.14272e-12
1.48641e-12
-3.62655e-13
-5.11468e-13
-1.77524e-12
1.4805e-12
-2.48697e-13
2.12795e-13
1.0507e-12
7.18054e-13
2.65869e-13
-1.21414e-12
1.75274e-12
4.73324e-11
8.433e-10
-1.06186e-09
1.4494e-11
-1.08067e-11
7.42258e-13
2.54808e-13
-7.23645e-12
-2.77668e-13
-1.55445e-11
5.11693e-11
-1.00163e-10
1.50382e-11
-5.86599e-13
-5.52803e-13
-9.4214e-13
1.17712e-12
-7.21823e-11
7.19565e-11
-1.525e-11
1.11881e-12
-2.62164e-12
3.54883e-14
-4.35651e-14
6.09158e-12
2.35661e-10
-9.11101e-11
-4.20212e-13
2.54046e-12
1.49218e-12
-6.3818e-12
1.31378e-11
1.97732e-10
-1.08758e-11
1.06526e-10
1.74529e-10
-1.46752e-10
-8.38479e-11
5.55796e-11
1.88498e-10
-2.6065e-10
-4.40894e-12
4.38217e-13
4.38568e-13
-1.54448e-13
-2.7438e-13
8.74287e-13
2.92945e-14
5.70608e-13
6.2699e-13
1.13323e-12
-1.31238e-10
8.76311e-11
2.62155e-11
3.19475e-12
-2.83813e-12
-5.85613e-13
-8.69142e-13
1.11329e-12
-4.45905e-12
-4.81404e-12
7.0995e-11
1.65445e-13
5.90384e-13
2.93567e-13
2.42365e-12
-1.79371e-10
-5.57349e-11
-4.7194e-11
-1.54464e-12
1.85097e-11
1.14155e-10
-9.46847e-11
-2.76051e-10
-1.32665e-12
1.05225e-13
3.35772e-10
-2.37212e-10
3.38175e-12
-6.56879e-12
4.91765e-12
8.67896e-12
-9.44617e-11
1.26151e-10
1.06412e-11
-3.40965e-11
2.0818e-11
-1.76617e-10
3.21888e-12
4.66915e-12
2.26875e-12
2.73447e-12
-1.73133e-12
2.25343e-12
1.46218e-11
1.05972e-11
4.09025e-06
-3.37552e-06
1.78233e-13
5.20707e-13
-1.51691e-13
-3.52453e-13
-3.09462e-12
-7.00283e-12
-1.15733e-12
-2.55372e-13
1.71624e-10
-1.10743e-10
-5.05751e-13
-8.03195e-13
1.14371e-12
-1.22592e-12
1.94095e-13
1.05849e-10
-8.25575e-12
-8.93743e-11
2.58894e-12
8.76418e-14
-5.74261e-11
-4.03262e-11
2.33784e-10
-5.42344e-12
1.90859e-13
1.08349e-13
1.62867e-11
-1.20114e-10
-1.76456e-09
1.69172e-09
-1.03261e-12
4.73514e-12
-6.80892e-12
3.20602e-13
-6.64546e-13
-3.85594e-14
-5.96304e-11
3.82621e-11
-2.1006e-14
-3.57212e-13
1.00372e-12
-4.07043e-13
5.46714e-14
1.0589e-12
-1.25919e-13
-1.69119e-14
6.96464e-13
-2.72938e-12
1.00545e-12
-3.61167e-12
-3.22489e-12
-2.46312e-13
-5.00577e-14
5.67832e-13
3.26712e-11
-2.81388e-10
-4.31196e-11
-9.05948e-13
-1.58431e-11
-1.03988e-11
-1.7588e-10
1.25e-11
2.2439e-10
-1.15667e-11
-1.71978e-12
-7.79134e-11
1.11105e-11
2.58115e-11
1.9934e-10
2.41456e-10
-2.83476e-11
2.41219e-11
-4.93742e-14
7.22706e-13
1.86634e-09
-1.45784e-09
3.62106e-13
-1.00565e-12
-8.31816e-13
-8.60621e-14
-2.19485e-13
-1.18798e-12
1.22781e-12
1.76574e-14
1.45026e-12
1.82462e-12
-7.66339e-13
1.09522e-12
2.31579e-13
-4.82605e-14
-4.78709e-13
9.03824e-14
-1.42502e-12
8.43884e-11
4.64613e-12
8.33668e-11
1.23936e-11
-1.78882e-11
-1.56848e-13
6.36822e-12
-2.80865e-11
1.09766e-11
1.30547e-11
-2.16645e-11
1.38108e-10
8.37175e-11
1.00964e-12
8.56919e-14
2.3625e-12
7.75456e-13
6.05478e-13
2.15195e-11
1.67027e-11
-4.34013e-11
7.83446e-12
7.60453e-12
2.50517e-13
-7.48126e-12
-1.1906e-11
3.69146e-11
-1.17595e-10
6.8792e-12
8.23342e-12
-9.54387e-11
7.05053e-13
3.5707e-11
-1.60316e-11
6.73309e-14
1.35719e-11
8.40317e-11
2.15147e-11
-1.47449e-10
-1.81222e-10
4.89514e-14
2.53094e-14
-7.10462e-13
2.05921e-12
1.8504e-13
4.25922e-13
1.48227e-11
-3.80899e-12
-9.27313e-13
-2.9155e-13
-7.4688e-13
1.25856e-13
-9.78078e-15
-1.07204e-13
-5.40483e-14
-6.69676e-14
-2.66862e-13
1.28275e-12
6.61709e-13
-5.65831e-10
3.83707e-10
1.22589e-10
6.18579e-12
-2.16313e-11
3.29459e-12
-1.9654e-12
-1.05762e-10
2.87703e-11
-1.32226e-11
-1.81135e-11
1.22881e-12
-2.91008e-14
1.29178e-12
4.38402e-11
-2.39084e-09
2.58292e-10
2.4154e-09
1.5864e-11
-1.09579e-11
4.69464e-12
-8.70961e-11
-3.59262e-13
3.38207e-11
-3.44015e-13
1.41518e-12
-1.22375e-12
-1.25122e-10
-9.19075e-11
-2.9242e-11
2.06708e-11
-4.05771e-12
1.76271e-12
-4.69957e-13
-1.07508e-13
4.85963e-13
3.23196e-13
-5.64055e-14
7.80096e-14
-4.27656e-13
-5.74252e-13
9.61322e-10
2.94474e-11
4.87775e-12
-4.29529e-10
1.03159e-09
-1.62427e-12
-3.46821e-12
4.25818e-11
2.98731e-11
-5.2781e-13
9.00248e-13
9.91191e-14
9.62048e-13
2.5366e-13
-8.82419e-12
1.08206e-12
1.01052e-12
-4.88079e-13
-7.61209e-13
7.0689e-11
-1.27556e-11
-2.19666e-12
1.14552e-11
-6.05502e-14
-9.59543e-14
-2.93317e-13
-2.42826e-13
2.72383e-12
-4.19182e-13
1.09637e-11
3.44378e-12
5.41165e-12
-2.35634e-11
-4.41183e-11
-3.95598e-12
8.80883e-11
6.9437e-13
7.27411e-12
-3.64377e-13
5.52443e-11
1.8621e-11
-7.08092e-12
-1.26384e-11
3.21749e-12
1.79304e-12
6.83471e-12
8.87816e-12
-2.73439e-11
2.22127e-12
-4.61515e-12
-3.73985e-12
3.65511e-12
3.27307e-10
-1.16336e-10
-8.51214e-10
7.81276e-13
-3.76952e-12
1.11012e-12
-5.18592e-11
1.75625e-11
4.3127e-11
-1.98972e-11
-1.03355e-10
6.12177e-12
-3.35631e-12
-9.70171e-13
-2.15304e-12
-2.19217e-10
2.22875e-10
-5.65592e-13
1.01213e-12
-2.25689e-12
5.83667e-13
-1.2087e-10
4.27928e-11
2.29918e-10
-3.60293e-10
2.00822e-13
1.18539e-12
9.63491e-13
-4.30492e-14
4.74451e-13
2.00445e-12
3.14184e-11
1.67809e-13
2.58928e-13
3.47113e-11
-6.79943e-11
-9.77423e-11
1.99914e-12
3.73752e-12
6.88342e-13
2.83317e-10
-6.7257e-11
-2.10895e-10
2.40063e-13
-2.45655e-12
1.41301e-12
1.42285e-12
-1.44258e-12
8.09123e-12
-1.38716e-11
-5.00417e-13
-3.83379e-11
2.09143e-10
-1.14482e-10
4.05414e-13
-4.13452e-14
9.1765e-13
5.48855e-12
-4.97685e-13
-8.44793e-13
1.06612e-12
-8.05013e-11
-1.08216e-11
-4.99456e-13
5.99918e-13
-1.30652e-13
-2.39759e-12
1.10214e-12
6.38677e-13
1.00289e-12
2.84116e-11
-1.32201e-10
-2.79848e-13
-2.14515e-13
-3.46556e-13
-8.23829e-13
3.92483e-13
4.54566e-11
-1.2094e-11
6.00423e-11
4.75413e-10
-2.09674e-10
-4.83854e-11
-7.87957e-12
1.35312e-11
-2.87255e-11
-5.69383e-12
-1.35704e-12
1.44993e-10
-1.83236e-10
-1.07449e-10
4.60801e-10
3.45222e-12
-1.37014e-10
4.86511e-10
2.06231e-11
2.89983e-10
1.69298e-12
2.79118e-13
5.52759e-12
-2.97283e-12
1.3097e-10
-2.30441e-12
-1.66517e-12
6.77546e-12
-5.77165e-11
4.09827e-10
-2.28655e-11
-8.89697e-11
7.3192e-12
1.1197e-12
2.8847e-14
-1.89334e-12
1.14771e-12
1.52626e-11
8.43098e-12
-5.17703e-12
4.20167e-10
-5.47969e-14
-9.14908e-11
-2.20339e-10
-8.66227e-11
-2.38825e-12
1.51753e-11
2.04594e-12
1.15184e-12
-2.03274e-13
-1.30304e-10
9.85017e-11
7.04715e-11
-1.1663e-10
4.35647e-11
1.89403e-11
2.84171e-12
4.22334e-11
8.42815e-12
-6.0593e-11
7.13557e-12
1.71528e-10
-1.65513e-10
-1.77362e-11
2.826e-11
1.43974e-11
-3.77099e-11
-3.80819e-12
3.8758e-11
-3.0852e-12
4.25249e-12
-2.52351e-13
-4.38554e-13
3.40873e-12
-5.04734e-12
1.786e-12
-8.26128e-13
-1.18313e-11
1.18044e-11
-1.59329e-12
9.47094e-13
-8.09826e-12
2.98418e-12
2.22155e-11
4.58092e-11
-3.53147e-11
1.08568e-12
-2.1324e-12
6.22585e-12
-1.28889e-11
4.02878e-11
1.73096e-10
-1.5724e-10
1.13922e-10
-9.83791e-13
-2.11243e-13
-6.14833e-13
2.08352e-12
6.77856e-13
6.09082e-11
-2.73735e-11
3.28862e-11
1.46187e-12
-5.66627e-13
2.14926e-12
4.53296e-13
4.38843e-12
-1.59855e-12
2.42189e-12
9.21769e-14
-1.47356e-12
2.38532e-12
-7.88495e-12
2.88702e-12
5.92066e-12
-5.06679e-11
-4.2163e-12
2.84768e-10
-5.12267e-11
5.1359e-14
-1.27948e-12
-1.16358e-12
1.0441e-12
4.90521e-13
-8.53982e-13
1.22892e-10
-2.194e-11
-3.64093e-11
-5.44814e-12
9.33811e-11
-1.06796e-13
3.33506e-13
6.31935e-13
-4.03626e-13
-9.19913e-08
-9.75442e-07
1.04655e-12
8.10961e-12
1.79834e-11
1.34373e-13
-5.67197e-11
-1.27037e-12
5.36509e-12
1.5297e-11
-4.9703e-11
1.27198e-10
2.90907e-11
2.76388e-12
-5.04415e-12
5.45336e-14
6.57641e-13
7.51298e-12
1.21784e-11
5.29444e-12
-4.4331e-13
-2.15975e-13
8.40774e-13
-5.55229e-13
-6.92755e-14
9.98657e-11
-2.93282e-11
3.12213e-12
6.58817e-12
2.08472e-12
6.1746e-13
1.16704e-11
6.17501e-11
-4.52476e-11
-1.15878e-11
-1.10795e-11
-3.40329e-11
8.17093e-11
-3.66977e-13
2.39525e-12
-5.51026e-12
-2.34348e-13
1.50117e-12
1.97113e-12
2.28326e-13
1.97498e-13
1.63103e-12
4.87597e-12
2.19136e-12
8.29328e-14
1.30637e-10
5.06303e-11
1.16083e-12
-3.00794e-13
1.04036e-11
-1.28594e-10
-2.38149e-10
-2.4081e-11
1.28078e-13
2.00814e-11
3.69146e-11
6.74564e-12
-1.22172e-11
-8.2863e-13
-2.60347e-12
-9.05756e-12
-1.82707e-12
-1.93032e-13
-3.72272e-13
1.09343e-12
9.77544e-13
9.55234e-12
5.33506e-11
2.03665e-11
2.24547e-11
-7.15661e-13
5.74342e-13
-7.51975e-12
-1.0063e-11
-2.96943e-11
5.11667e-13
9.9743e-13
-1.2279e-10
4.33863e-11
-2.9855e-10
1.2061e-10
2.04404e-12
-3.51613e-12
1.03913e-12
1.35868e-12
3.01862e-13
-6.71941e-13
1.02118e-13
-6.20607e-11
1.18034e-11
-6.95216e-11
-9.37593e-12
-3.12105e-12
4.93172e-11
-2.55538e-11
-1.82118e-12
1.71577e-11
1.02707e-11
1.81242e-12
-4.22332e-12
-4.92534e-12
2.40889e-13
8.291e-13
9.4047e-12
1.6977e-10
3.00791e-11
1.99758e-12
1.49829e-12
-1.10513e-11
8.80706e-12
-4.08452e-12
1.84785e-12
5.37691e-12
1.18008e-10
-6.49213e-11
-6.7979e-11
9.56504e-13
-4.46792e-12
1.07527e-12
1.26025e-10
-5.33067e-14
1.7593e-13
7.70579e-12
-5.2644e-13
-3.19518e-13
1.25557e-13
-3.44277e-12
-1.69786e-12
-7.65677e-11
-1.71211e-12
-1.07202e-10
-6.16517e-11
1.23927e-10
-4.08603e-11
1.59054e-10
-4.93703e-11
-1.04624e-12
3.14952e-13
7.31393e-13
-3.62052e-12
5.14752e-12
5.69833e-12
-3.46902e-12
4.937e-12
2.90818e-12
8.70815e-12
4.50952e-12
5.86369e-11
-1.6203e-10
3.19157e-10
1.28632e-11
-5.2777e-12
-1.50341e-11
-9.48564e-13
2.28369e-14
3.24001e-12
3.28687e-12
3.79345e-12
1.00554e-10
-9.29221e-12
-9.01166e-13
1.20434e-11
-1.90943e-12
3.34315e-11
8.21923e-11
1.72759e-10
-9.23922e-11
-4.74243e-12
-2.1194e-11
-3.28429e-13
4.34046e-13
-2.02901e-13
1.34586e-09
1.22595e-11
4.76666e-13
-9.9137e-12
-3.76789e-11
-2.2635e-12
1.06077e-11
6.86486e-12
-1.40762e-12
-7.27502e-14
-1.71328e-13
1.03816e-12
-6.97098e-13
4.25034e-13
-4.59464e-12
5.19025e-12
-5.76968e-13
-6.8422e-11
-1.85847e-12
4.50815e-13
3.47937e-13
-7.41793e-13
1.01645e-06
3.80028e-13
2.42266e-11
8.43726e-11
-1.06634e-10
-1.15539e-10
5.88569e-10
-5.08607e-13
7.85166e-13
9.45968e-13
3.45633e-12
8.15997e-13
9.02729e-12
1.668e-11
-6.14202e-11
3.83027e-11
3.07247e-12
-1.11039e-10
1.30374e-10
-5.63793e-13
-3.19589e-12
-4.90635e-12
-4.27027e-11
-2.06042e-11
4.13186e-11
-1.43076e-11
8.17417e-13
1.69448e-12
-1.13783e-10
2.93927e-11
1.66104e-11
3.59828e-11
1.95682e-12
-4.44942e-11
-1.15955e-10
1.58588e-10
1.09241e-10
-1.61063e-10
4.42067e-11
-2.91737e-11
-1.41346e-10
6.73483e-10
9.51641e-13
-1.27651e-12
1.99394e-09
-1.9433e-10
-2.33397e-11
4.72833e-11
-1.20106e-12
1.96987e-12
-4.89524e-12
6.38164e-12
4.43807e-12
-1.08047e-12
3.53034e-12
4.86549e-12
3.97344e-12
4.88482e-12
-2.08328e-12
2.86994e-10
1.78999e-11
-3.01829e-11
9.09558e-12
-2.97664e-10
1.90926e-10
-1.75689e-11
1.77316e-11
6.19705e-12
1.85317e-10
3.37258e-11
-1.3565e-10
2.71247e-12
4.79544e-12
-8.69646e-12
-1.34689e-10
-5.48955e-12
2.09874e-13
1.89745e-12
7.44787e-13
2.1389e-13
-1.13378e-12
-7.34596e-13
1.9117e-13
-1.25744e-10
1.14076e-09
4.92018e-10
-4.91592e-12
-1.39056e-12
1.41575e-11
8.57041e-12
-2.25336e-11
-2.49046e-12
7.1164e-13
1.11856e-12
3.08375e-14
1.75997e-13
-5.42376e-13
8.05975e-11
-3.94789e-12
-1.2652e-10
2.28321e-10
-3.1309e-11
8.88994e-13
3.9866e-12
8.97222e-14
1.40643e-13
4.31781e-13
3.7112e-12
-2.72953e-12
-6.01154e-12
4.87517e-12
5.73492e-12
-5.80301e-12
-8.92598e-14
1.14912e-12
9.35488e-13
-5.3393e-12
-2.27303e-11
1.67291e-11
1.96349e-11
-7.24757e-12
-2.87267e-12
2.32922e-12
1.60629e-12
-6.85779e-13
-6.57751e-13
1.17044e-12
9.28425e-11
-6.87086e-14
1.17662e-12
-1.15259e-13
2.02055e-11
9.67347e-12
-1.49668e-11
-8.92552e-11
2.23648e-10
-3.68832e-11
2.67651e-11
1.0405e-12
1.61387e-11
-1.97813e-11
-2.09359e-11
-6.03756e-11
4.27368e-11
-8.95015e-12
6.28193e-11
1.97491e-11
-8.14604e-12
1.99094e-11
-3.49693e-11
7.57766e-11
-1.36241e-10
7.36288e-11
-3.80296e-10
-7.49502e-12
-1.84054e-11
1.13476e-12
-6.23796e-11
1.12933e-11
1.18471e-11
-5.53327e-13
2.23876e-12
-5.48271e-11
4.31879e-11
8.54524e-11
3.33569e-12
-7.73495e-11
1.34495e-09
1.96059e-11
6.59139e-12
-6.20814e-11
1.19394e-11
2.00082e-10
-2.69573e-10
2.87298e-11
3.07906e-11
-9.89525e-12
-1.30225e-11
-8.41086e-12
4.76309e-10
-1.84504e-10
-9.82325e-13
5.26481e-13
2.61566e-11
2.73639e-11
1.85193e-11
-2.86937e-12
7.52729e-13
1.35283e-11
2.91411e-11
-8.59722e-11
1.56542e-10
-3.34385e-10
4.2571e-11
-7.19999e-12
3.0141e-12
3.74116e-12
-1.7725e-12
-6.50503e-13
7.48437e-12
-1.52651e-12
-6.2608e-12
-2.44214e-12
8.77383e-13
-2.29149e-15
8.3418e-13
-1.59296e-11
1.54816e-11
-1.373e-13
-8.81013e-13
-1.066e-10
-6.61007e-12
-2.2689e-12
2.35462e-12
-7.80565e-11
4.37357e-12
2.6633e-11
9.91494e-10
-5.26308e-10
3.85893e-10
1.41871e-10
-1.64233e-10
-1.88899e-12
1.85738e-12
-2.95011e-13
-1.2565e-13
-6.49074e-14
1.62205e-13
3.2907e-10
-3.13242e-13
6.57544e-13
-1.11808e-12
3.36479e-11
4.96393e-13
-8.9436e-13
1.15563e-13
7.057e-12
1.92769e-12
-5.24117e-12
-1.83414e-12
7.87097e-12
2.74883e-11
2.96765e-12
-7.49301e-13
5.21736e-11
7.58164e-12
-6.52287e-12
7.09362e-12
1.41435e-10
1.37155e-11
-8.34704e-11
-5.80171e-11
-9.21234e-12
4.29295e-12
3.83165e-12
3.0153e-12
-1.35488e-12
6.0103e-13
-2.88296e-11
2.57146e-11
-1.01214e-10
-2.97751e-10
5.53871e-11
-4.32239e-11
2.41171e-11
2.13758e-11
-4.55225e-10
2.85733e-10
1.64196e-10
1.3018e-10
-1.49511e-10
-5.54482e-10
-6.77708e-12
1.52772e-11
-2.31087e-12
-1.72455e-12
-2.72064e-11
-1.46145e-11
5.71493e-11
9.63134e-11
-1.25695e-10
4.28451e-11
-9.10373e-11
5.09788e-13
7.51302e-14
3.96481e-13
3.65296e-11
-1.14924e-10
6.70033e-11
9.87039e-11
1.94074e-11
1.43508e-13
-1.36747e-12
-8.9503e-13
-7.33662e-12
1.14725e-11
6.28113e-13
1.74029e-13
2.15141e-13
-4.59608e-12
3.83184e-12
-1.63732e-10
1.69527e-10
5.18377e-11
5.88962e-11
-6.02853e-11
-2.73017e-10
4.45968e-12
-1.72564e-11
-2.00606e-11
3.93305e-12
-2.00897e-12
-1.15539e-12
-1.5665e-11
1.15873e-11
-3.34724e-14
1.01246e-13
3.92633e-11
-7.10723e-11
4.21133e-11
-1.95498e-11
-6.12501e-12
8.89195e-12
2.41751e-13
7.03626e-15
-1.86916e-13
1.63696e-10
-1.6103e-11
-3.25532e-12
1.54533e-11
-1.14455e-10
-2.6517e-11
1.18877e-10
4.67261e-10
-3.51529e-10
-9.23808e-11
1.23557e-11
-1.10547e-11
2.93484e-12
3.37795e-12
1.15098e-10
4.73775e-11
-2.11412e-10
1.58391e-13
-1.5694e-12
1.21632e-13
-2.99835e-13
-5.30673e-14
1.42161e-12
1.3748e-11
4.8848e-11
-1.50118e-11
-4.43524e-11
-1.3017e-11
3.28068e-11
1.36515e-12
-1.79866e-12
-1.05608e-10
4.49588e-12
3.69372e-12
2.13074e-12
-4.4941e-12
5.75496e-11
1.40695e-12
6.45469e-12
9.96958e-11
4.41914e-12
-1.07929e-10
-2.70914e-11
4.32873e-11
7.36298e-12
-2.34546e-13
2.03588e-11
-6.78036e-11
9.6622e-12
-4.85589e-12
1.01196e-13
-9.57586e-12
-2.06529e-12
1.82323e-12
-8.5329e-10
1.64986e-11
1.44169e-09
-7.91872e-11
1.34476e-10
-1.02615e-10
-3.68078e-11
3.44865e-11
1.26673e-11
-1.02057e-10
1.81098e-12
3.87558e-11
-1.37837e-11
2.1218e-10
1.29569e-12
1.01711e-12
-5.93438e-12
-1.24171e-10
1.74647e-10
-1.70643e-11
-2.32221e-09
2.74244e-10
1.95049e-09
-3.19549e-13
3.00859e-13
-3.56572e-13
6.97687e-13
8.4841e-13
-3.1093e-11
-2.59e-11
-1.19841e-11
9.38466e-12
-4.89283e-12
-3.99193e-12
3.46035e-11
-2.8279e-12
-7.64333e-12
1.75878e-11
-3.57786e-10
4.68168e-11
1.34028e-12
-9.94233e-13
-9.96885e-13
-1.63405e-12
2.87352e-12
-2.56818e-11
-3.5055e-11
-7.12873e-11
-3.94528e-11
2.52125e-10
-1.44201e-12
6.62725e-13
1.23553e-10
-8.95761e-11
-1.17251e-10
-1.42652e-12
1.40319e-13
9.91249e-13
-1.14857e-10
-5.12252e-12
1.0184e-12
-2.44311e-13
-1.09425e-11
-4.33858e-11
-5.86319e-11
5.10867e-11
-2.18997e-10
-1.77237e-13
-6.17399e-14
-8.38357e-13
-1.50961e-12
1.60935e-12
1.43694e-13
-3.19721e-11
-2.31157e-11
-2.84232e-12
-1.93916e-12
-2.26953e-10
2.08904e-10
1.16477e-11
-8.60757e-11
4.15363e-11
-1.85385e-10
-1.04461e-12
2.67953e-13
-1.09821e-11
2.76549e-10
-8.10582e-11
-5.14246e-10
-1.64035e-12
-4.86458e-11
-4.67383e-11
-1.11235e-10
6.41462e-12
-6.60259e-13
-1.28548e-12
1.02567e-11
-6.78677e-11
1.32007e-10
-1.52407e-11
7.88619e-12
-6.32358e-12
-1.56594e-12
-2.54227e-10
9.02276e-11
4.30442e-11
-4.67611e-13
-3.722e-10
-3.40115e-10
5.07507e-10
1.15857e-11
3.65795e-10
-8.49672e-11
-1.0765e-11
-1.19844e-11
-5.87357e-12
8.10231e-12
1.01421e-12
4.78092e-14
-8.97099e-13
-9.3789e-13
3.81792e-13
1.49072e-12
6.67775e-12
2.85748e-11
9.6414e-12
-1.3941e-13
-4.26797e-13
8.16816e-14
1.32075e-12
-4.50362e-11
1.71719e-12
1.9266e-12
-1.62885e-13
7.19779e-13
1.17885e-12
7.27482e-13
-9.93228e-13
-9.604e-13
9.31246e-13
2.9832e-13
-5.21066e-13
1.07301e-13
1.93328e-12
-1.6951e-12
2.54414e-12
5.67636e-12
5.37864e-11
-9.92655e-11
2.90232e-12
3.81153e-11
-3.19084e-10
-9.19574e-13
8.67053e-14
1.17351e-10
-2.32956e-10
-3.81634e-10
1.72707e-10
-7.04333e-11
8.5474e-11
1.914e-11
4.23651e-11
8.91999e-12
-5.02042e-11
1.6175e-12
1.20457e-12
-3.48415e-12
-1.046e-12
2.15763e-14
1.27741e-12
-1.10464e-10
-2.38262e-10
7.82465e-12
1.7621e-11
-2.54094e-11
-6.23027e-13
-1.56379e-13
-7.70207e-14
1.29171e-12
-2.14713e-13
-1.1893e-12
-2.20536e-11
2.94624e-11
-6.4372e-12
3.19044e-11
-1.27738e-11
-9.91546e-12
2.08343e-10
-1.34115e-10
-3.95271e-11
-5.52165e-13
7.3255e-13
-8.37325e-12
-1.2057e-12
-1.78664e-12
-7.29839e-12
5.58218e-12
-3.39717e-11
-1.69687e-10
2.27491e-13
-7.57752e-14
-8.60404e-15
1.52039e-12
1.72199e-12
-3.70411e-12
-4.35656e-12
1.3025e-10
-2.9549e-12
3.74541e-12
-4.65717e-12
1.99122e-12
-7.29279e-14
-2.57637e-13
-2.1318e-14
9.90714e-14
5.85398e-12
5.59176e-12
1.26922e-11
2.88236e-11
-5.51689e-11
7.84781e-13
4.83705e-11
-3.54863e-11
1.53561e-10
-1.67279e-09
-5.80083e-11
-1.58418e-10
-8.65086e-11
5.6516e-12
-3.52775e-11
-1.88398e-11
9.92381e-12
8.21037e-14
-5.78962e-13
1.19406e-13
3.90684e-12
1.2022e-11
7.03956e-12
-2.94279e-10
1.9527e-10
1.47965e-14
-3.22633e-14
-1.63468e-13
-4.67717e-13
6.84771e-12
3.66878e-11
-8.48465e-12
-6.10387e-12
-8.25649e-13
1.59926e-12
-4.76006e-13
1.49731e-10
-6.06176e-10
1.57764e-11
-1.94167e-11
2.69124e-12
-3.45857e-12
-3.3945e-12
3.7266e-13
-1.55301e-15
2.13476e-11
9.96227e-11
1.86173e-11
1.17383e-12
3.03452e-13
-4.96789e-13
-2.42637e-15
6.01085e-12
2.42524e-12
1.83615e-13
1.03411e-12
6.993e-12
-3.19448e-11
2.66213e-11
-9.37451e-12
8.38033e-12
-6.38496e-11
9.37559e-11
-1.30925e-10
6.43689e-12
7.51186e-13
2.99462e-12
2.72463e-11
-1.77943e-11
-8.06798e-11
-6.1708e-11
1.32202e-10
3.19382e-11
5.36166e-12
-1.99382e-13
1.77058e-12
3.47427e-13
4.78806e-14
-3.73711e-11
6.92251e-11
-8.64963e-12
-1.49322e-10
5.51572e-11
-1.72895e-10
2.47531e-11
-1.07434e-13
-6.07599e-11
-2.72461e-11
9.81098e-11
-7.00526e-12
8.1094e-11
-2.13657e-10
7.03779e-12
-4.95775e-11
-5.71766e-12
3.98752e-11
-1.19044e-10
6.17753e-12
9.9979e-13
1.27048e-12
-3.2359e-13
1.16071e-12
1.81731e-14
3.31859e-13
8.09454e-11
-4.21232e-10
1.27967e-12
-8.25836e-12
6.29109e-12
1.78485e-11
8.30366e-11
4.79825e-13
-1.78637e-12
-3.93398e-14
-4.25161e-13
-3.14692e-14
4.23715e-13
9.62832e-12
5.89591e-12
1.53154e-12
-2.17061e-12
3.67502e-11
-3.52731e-13
-1.30619e-13
-1.52078e-10
-1.2428e-11
3.59993e-11
-1.91024e-11
-7.22644e-12
-2.12976e-12
1.47922e-11
-4.16584e-12