/*--------------------------------*- C++ -*----------------------------------*\
| =========                 |                                                 |
| \\      /  F ield         | OpenFOAM: The Open Source CFD Toolbox           |
|  \\    /   O peration     | Version:  v2012                                 |
|   \\  /    A nd           | Website:  www.openfoam.com                      |
|    \\/     M anipulation  |                                                 |
\*---------------------------------------------------------------------------*/
FoamFile
{
    version     2.0;
    format      ascii;
    class       volVectorField;
    location    "250";
    object      cellDisplacement;
}
// * * * * * * * * * * * * * * * * * * * * * * * * * * * * * * * * * * * * * //

dimensions      [0 1 0 0 0 0 0];


internalField   nonuniform List<vector> 
13917
(
(0.0271147 0.144289 0)
(0.01959 0.130381 0)
(0.0245729 -0.0583518 0)
(0.0193295 -0.0620884 0)
(0.00388649 0.103934 0)
(0.00739937 0.208326 0)
(0.0242224 -0.0718513 0)
(0.0248387 -0.0481823 0)
(0.02639 0.0111096 0)
(0.0283521 0.14526 0)
(0.0244585 -0.0562815 0)
(0.0228948 -0.0873254 0)
(0.0193238 -0.0649625 0)
(0.0252008 -0.0346644 0)
(0.0199283 0.181211 0)
(0.0210693 0.17239 0)
(0.0193765 0.14126 0)
(0.0265809 0.0498785 0)
(0.022782 -0.0891891 0)
(0.00552253 0.0478763 0)
(0.0012296 0.0187894 0)
(0.024185 -0.0733159 0)
(0.00733343 0.0768464 0)
(0.0248301 -0.0484402 0)
(0.0095661 0.132018 0)
(0.0237546 -0.0897202 0)
(0.00773461 0.202809 0)
(0.0155146 0.203666 0)
(0.029253 0.205491 0)
(0.0283616 0.108502 0)
(0.0273422 0.13464 0)
(0.0251409 0.141447 0)
(0.0121005 0.200081 0)
(0.00414374 0.19211 0)
(0.00805952 0.138806 0)
(0.0242307 -0.0691817 0)
(0.0069908 0.0739177 0)
(0.0252026 -0.0345853 0)
(0.0200143 -0.0727377 0)
(0.0228099 -0.126249 0)
(0.00153413 0.00813379 0)
(0.000545395 0.00750985 0)
(0.00909566 0.006305 0)
(0.0195793 0.20505 0)
(0.0204166 0.0741342 0)
(0.0062963 0.195009 0)
(0.0264921 0.0474351 0)
(0.0259758 0.0139755 0)
(0.0114629 0.208539 0)
(0.00143216 0.00988536 0)
(0.024276 0.0286118 0)
(0.00622229 0.173443 0)
(0.0102807 0.208574 0)
(0.00435789 0.192914 0)
(0.0193496 0.143444 0)
(0.0250644 0.0733678 0)
(0.024506 -0.0541207 0)
(0.0139335 0.148477 0)
(0.0244831 0.0898714 0)
(0.0201793 0.0747481 0)
(0.0294909 0.131058 0)
(0.0197736 0.128742 0)
(0.0251686 -0.0358998 0)
(0.00584981 0.0509672 0)
(0.00866094 0.20822 0)
(0.0306262 0.178585 0)
(0.00195858 0.108211 0)
(0.00245995 0.141769 0)
(0.0258498 -0.00467547 0)
(0.0263557 0.161011 0)
(0.0039559 0.100979 0)
(0.0263701 0.0103914 0)
(0.0268154 0.0271895 0)
(0.00953182 0.129773 0)
(0.0144938 0.208459 0)
(0.022062 -0.114205 0)
(0.0262833 0.00680204 0)
(0.022385 0.0664875 0)
(0.0233076 -0.106773 0)
(0.00235607 0.034814 0)
(0.00342579 0.0408759 0)
(0.00189888 0.103704 0)
(0.0120247 0.208068 0)
(0.0252163 -0.0340493 0)
(0.0298467 0.143547 0)
(0.0221987 0.0639364 0)
(0.00444471 0.0472145 0)
(0.030633 0.180156 0)
(0.0241497 0.027809 0)
(0.00949489 0.00537668 0)
(0.026329 0.00856299 0)
(0.0285958 0.130071 0)
(0.0177593 0.0929784 0)
(0.0157411 0.174935 0)
(0.0306725 0.181542 0)
(0.00404891 0.208335 0)
(0.0251476 -0.0277098 0)
(0.0261563 0.0241499 0)
(0.0228641 -0.108011 0)
(0.0136242 0.206594 0)
(0.00821344 0.0411023 0)
(0.00419106 0.199479 0)
(0.0184816 0.205226 0)
(0.0226666 0.0438241 0)
(0.0134637 0.0646278 0)
(0.0266348 0.0205625 0)
(0.0290749 0.20397 0)
(0.0260241 0.0144628 0)
(0.0196636 0.139971 0)
(0.0275445 0.141955 0)
(0.0282508 0.0821861 0)
(0.0228406 -0.125069 0)
(0.0230196 -0.0925894 0)
(0.0265915 0.0188658 0)
(0.00568289 0.182294 0)
(0.000171965 0.208837 0)
(0.0102837 0.109208 0)
(0.00972762 0.208536 0)
(0.0240974 -0.0769305 0)
(0.00645716 0.192741 0)
(0.00105265 0.014552 0)
(0.0258938 -0.00269105 0)
(0.0244455 -0.0635984 0)
(0.0148967 0.203384 0)
(0.00134924 0.00859146 0)
(0.015483 0.17386 0)
(0.0201249 0.0891533 0)
(0.00108442 0.00700227 0)
(0.00546549 0.00814267 0)
(0.00541942 0.208374 0)
(0.0242818 -0.0698472 0)
(0.00547335 0.18125 0)
(0.0205766 0.0767762 0)
(0.000982563 0.0154785 0)
(0.0278209 0.0676418 0)
(0.0247852 -0.0501256 0)
(0.027119 0.147182 0)
(0.0132787 0.206869 0)
(0.00222561 0.110527 0)
(0.00570593 0.192572 0)
(0.0243361 -0.0646162 0)
(0.0159904 0.0552987 0)
(0.00895933 0.1765 0)
(0.018711 0.205868 0)
(0.00273319 0.143308 0)
(0.0263548 0.00999556 0)
(0.0297343 0.204507 0)
(0.00639804 0.172138 0)
(0.0150072 0.048301 0)
(0.0251393 0.149142 0)
(0.0248942 -0.0187482 0)
(-0.00125438 0.208873 0)
(0.0242998 -0.0523505 0)
(0.0261701 0.178954 0)
(0.0252995 0.110798 0)
(0.0306946 0.176602 0)
(0.0261487 0.161452 0)
(0.0253328 -0.0281979 0)
(0.0263065 0.00769258 0)
(0.0278767 0.0698124 0)
(0.0120614 0.186468 0)
(0.00139435 0.202783 0)
(0.00245476 0.0308505 0)
(0.0250868 -0.0293237 0)
(0.0230676 -0.0900951 0)
(0.0228985 -0.106078 0)
(0.0226433 0.0469571 0)
(0.0255038 0.00105031 0)
(0.019022 0.0728111 0)
(0.00367532 0.19997 0)
(0.0265628 0.173904 0)
(0.0286765 0.0984738 0)
(0.0228248 -0.100288 0)
(0.0199795 0.150354 0)
(0.0260143 -0.00288968 0)
(0.0264454 0.183553 0)
(0.0242608 -0.0706382 0)
(0.00972185 0.208563 0)
(0.0263099 0.00833487 0)
(0.0164041 0.117843 0)
(0.0285973 0.126894 0)
(0.0274582 0.132526 0)
(0.0160068 0.0526658 0)
(0.0047007 0.0504572 0)
(0.0196597 0.190272 0)
(0.0237568 -0.0895356 0)
(0.0291083 0.124303 0)
(0.0306657 0.17579 0)
(0.026351 0.0727098 0)
(0.0234169 -0.0889655 0)
(0.0248731 -0.0447351 0)
(0.0298658 0.144406 0)
(0.0293865 0.137411 0)
(0.00684876 0.0852273 0)
(0.00876283 0.207175 0)
(0.00801654 0.202361 0)
(0.000539113 0.00217329 0)
(0.0179429 0.0953368 0)
(0.0287572 0.20201 0)
(0.0306977 0.184373 0)
(0.0227056 -0.0186009 0)
(0.00133937 0.0093548 0)
(0.025225 -0.00565504 0)
(0.0248006 -0.0209629 0)
(0.0268039 0.0267455 0)
(0.0271003 0.0399668 0)
(0.00774552 0.137183 0)
(0.0140668 0.150382 0)
(0.0260537 0.0207905 0)
(0.024115 -0.0758235 0)
(0.00916751 0.175252 0)
(0.0243157 -0.0683003 0)
(0.0268287 0.0276905 0)
(0.0234658 -0.0868307 0)
(0.0134864 0.0665539 0)
(0.0246964 0.207356 0)
(0.025841 0.0172794 0)
(0.0279939 0.0723252 0)
(0.0124089 0.117081 0)
(0.0295049 0.13197 0)
(0.0161446 0.116144 0)
(0.0280275 0.0953355 0)
(0.00182093 0.00989106 0)
(0.0254946 -0.0233959 0)
(0.0267203 0.0238276 0)
(0.0214074 0.172778 0)
(0.0306294 0.186672 0)
(0.0254215 0.108353 0)
(0.0131362 0.0662907 0)
(0.0241865 -0.0705962 0)
(0.0227164 -0.102353 0)
(0.026261 0.0696674 0)
(0.0246414 -0.0556151 0)
(0.026855 0.0286995 0)
(0.00522881 0.0222175 0)
(0.0253303 0.140584 0)
(0.0263429 0.00909917 0)
(0.0301547 0.1553 0)
(0.00272001 0.0349826 0)
(0.00953098 0.0681171 0)
(0.0225023 -0.138023 0)
(0.0253256 -0.022511 0)
(0.000231271 0.00185124 0)
(0.0239485 -0.0784064 0)
(0.0270941 0.0521513 0)
(0.000815292 0.20237 0)
(0.0268176 0.138146 0)
(0.00269117 0.0330054 0)
(0.0255892 0.189075 0)
(0.0266321 0.0201635 0)
(0.0182155 -0.00916308 0)
(0.0288745 0.131629 0)
(0.0159842 0.206952 0)
(0.0199582 0.0863526 0)
(0.0135041 0.148036 0)
(0.0240652 -0.0540438 0)
(0.0226392 -0.132764 0)
(0.0242591 -0.0525601 0)
(0.0201227 0.190416 0)
(0.0203672 0.180465 0)
(0.000390191 0.00316493 0)
(0.024436 -0.063967 0)
(0.0276455 0.0596112 0)
(0.0235114 -0.0948394 0)
(0.0131582 0.0681288 0)
(0.0272694 0.0445819 0)
(0.0253317 -0.0296523 0)
(0.0253168 -0.0289928 0)
(0.0232709 -0.108232 0)
(0.0221133 -0.115011 0)
(0.00322183 0.0394128 0)
(0.00162411 0.00984684 0)
(0.0263496 0.0408459 0)
(0.0257539 -0.0134754 0)
(0.0263529 0.0182147 0)
(0.0243242 0.0872832 0)
(0.0271474 0.0415879 0)
(0.0212932 -0.102231 0)
(0.00418889 0.00557821 0)
(0.0285567 0.0953445 0)
(0.00557138 0.0460184 0)
(0.0259623 -0.00493802 0)
(0.0225643 -0.0186753 0)
(0.000231585 0.0018489 0)
(0.0225997 0.174819 0)
(0.0261264 0.180521 0)
(0.00280089 0.202802 0)
(0.0239981 -0.0769285 0)
(0.0241139 0.180742 0)
(0.0196109 0.0190571 0)
(0.0279704 0.0747263 0)
(0.0246923 -0.0536515 0)
(0.0276399 0.0592906 0)
(0.0121353 0.116011 0)
(0.0255686 -0.0194897 0)
(0.00175263 0.0745802 0)
(0.0195011 0.0150586 0)
(0.0100465 0.106128 0)
(0.0300575 0.2046 0)
(0.00135197 0.0101376 0)
(0.0280767 0.0954785 0)
(0.0266717 0.139427 0)
(0.018805 0.0700372 0)
(0.0251836 -0.00837485 0)
(0.0224801 0.130406 0)
(0.00799722 0.208628 0)
(0.0262708 0.182824 0)
(0.0285091 0.129843 0)
(0.0175826 0.0510894 0)
(0.0133544 0.146098 0)
(0.0283491 0.0859493 0)
(0.0246309 -0.0564974 0)
(0.0106073 0.110631 0)
(0.0018063 0.0104376 0)
(0.0285962 0.0970376 0)
(0.016751 0.109172 0)
(0.0267802 0.0258439 0)
(0.0173487 0.0517533 0)
(0.0255154 -0.0225955 0)
(0.0184132 -0.0461724 0)
(0.0300907 0.171521 0)
(0.0247821 0.0107758 0)
(0.0174116 0.208382 0)
(0.0121994 0.185377 0)
(0.0279192 0.0717331 0)
(0.0216034 0.207306 0)
(0.0226583 0.17323 0)
(0.0253892 -0.0199898 0)
(0.0299605 0.200471 0)
(0.016586 0.157543 0)
(0.0246738 -0.0548369 0)
(0.00727593 0.20715 0)
(0.0253588 -0.0286153 0)
(0.00751171 0.190089 0)
(0.0234953 -0.0999933 0)
(0.0255786 0.13666 0)
(0.0289992 0.110978 0)
(0.0208037 0.207175 0)
(0.0279078 0.198842 0)
(0.0279446 0.197924 0)
(0.0245565 -0.0590543 0)
(0.00286593 0.0463093 0)
(0.0268078 0.173174 0)
(0.0282699 0.0829359 0)
(0.0123092 0.163201 0)
(0.0203289 0.164695 0)
(0.0252018 -0.0346255 0)
(0.029013 0.202569 0)
(0.0202116 0.144138 0)
(0.0248684 -0.0445999 0)
(0.0287651 0.205761 0)
(0.00703155 0.0384587 0)
(0.024124 -0.0759111 0)
(0.0244983 -0.0588892 0)
(0.00589964 0.0489267 0)
(0.0121647 0.0810892 0)
(0.00154652 0.0710177 0)
(0.0150244 0.045994 0)
(0.0279129 0.0727177 0)
(0.0262119 0.00462152 0)
(-0.00919568 0.208629 0)
(0.028358 0.086305 0)
(0.00991999 0.121766 0)
(0.0289193 0.130852 0)
(0.0307897 0.179453 0)
(0.0250195 -0.000472036 0)
(0.024274 -0.0699266 0)
(0.0257591 -0.0132717 0)
(0.0266755 0.0220825 0)
(0.00850549 0.03649 0)
(0.0234731 -0.0957559 0)
(0.0122958 0.0770724 0)
(0.0294582 0.130446 0)
(0.0201189 0.0776345 0)
(0.0187953 0.208351 0)
(0.027176 0.05497 0)
(0.0210308 -0.0446369 0)
(0.00338485 0.0555212 0)
(0.0260025 0.0206618 0)
(0.0286644 0.126973 0)
(0.026702 0.0420116 0)
(0.0305515 0.207696 0)
(0.0289891 0.110545 0)
(0.0280139 0.0730909 0)
(0.0259624 0.189081 0)
(0.0282412 0.145618 0)
(0.00921648 0.0662713 0)
(0.0301353 0.154628 0)
(0.0240297 -0.0792734 0)
(0.0153497 0.146639 0)
(0.0279106 0.0717367 0)
(0.00792807 0.122402 0)
(0.0272628 0.0475852 0)
(0.0185155 -0.0427856 0)
(0.00247096 0.0402686 0)
(0.0222492 0.136868 0)
(0.0226303 -0.132429 0)
(0.0221127 0.138612 0)
(0.0226374 -0.132809 0)
(0.0310047 0.188649 0)
(0.0241208 -0.0668582 0)
(0.019796 0.207701 0)
(0.016716 0.155799 0)
(0.0235688 0.207366 0)
(0.0210604 0.207545 0)
(0.0089368 0.0856923 0)
(0.0288152 0.203491 0)
(0.0123698 0.161701 0)
(0.00854527 0.1303 0)
(0.0283997 0.111199 0)
(0.000560572 0.0045641 0)
(0.00926607 0.135006 0)
(0.012203 0.0751712 0)
(0.0279169 0.0734034 0)
(0.00191609 0.0284121 0)
(0.0235277 -0.0987518 0)
(0.0228628 -0.123182 0)
(0.0310598 0.189914 0)
(0.0294169 0.139619 0)
(0.0231285 -0.113991 0)
(0.0277209 0.0618694 0)
(0.024917 -0.002455 0)
(0.00974982 0.119023 0)
(0.0275282 0.0618998 0)
(0.0200649 -0.0693679 0)
(0.0256738 0.141622 0)
(0.00718585 0.0888048 0)
(0.0262536 0.00614281 0)
(0.0241012 -0.0764449 0)
(0.022859 -0.123054 0)
(0.0202191 0.176384 0)
(0.0269986 0.0454938 0)
(0.00701616 0.189322 0)
(0.0201753 -0.0731221 0)
(0.0266245 0.0395693 0)
(0.0211033 0.148837 0)
(0.0233521 -0.100358 0)
(0.0196693 0.13768 0)
(0.00162827 0.0122459 0)
(0.0267925 0.0263213 0)
(0.0242118 -0.0725207 0)
(0.0241858 -0.0735055 0)
(0.0292779 0.15551 0)
(0.0310796 0.19058 0)
(0.0246861 -0.0543583 0)
(0.0277343 0.0624155 0)
(0.0259368 -0.00647414 0)
(0.00532704 0.0105212 0)
(0.0262138 0.0308642 0)
(0.0212116 0.14693 0)
(0.0138738 0.153746 0)
(0.0272145 0.0445887 0)
(0.0264398 0.043575 0)
(0.00178105 -0.00220965 0)
(0.0273848 0.0800999 0)
(0.025087 0.00647687 0)
(0.0258124 -0.0112419 0)
(0.00924082 0.0877847 0)
(0.0257499 -0.00442559 0)
(0.0311367 0.194599 0)
(0.030231 0.171258 0)
(0.0236801 -0.092913 0)
(0.00167778 0.0256975 0)
(0.015242 0.14828 0)
(0.000977755 0.00378038 0)
(0.0260355 0.16405 0)
(0.00807624 0.0341256 0)
(0.0236082 -0.095059 0)
(-0.00776493 0.208559 0)
(0.0240481 0.179326 0)
(0.0303134 0.161644 0)
(0.0249691 0.0695519 0)
(0.0250038 -0.0327136 0)
(0.0277419 0.0627254 0)
(0.0297034 0.203966 0)
(0.0240605 -0.0685333 0)
(0.0243847 -0.0630582 0)
(0.0257021 -0.00667118 0)
(0.0276069 0.0941894 0)
(0.0271855 0.0481913 0)
(0.0233702 -0.054135 0)
(0.0237584 -0.0811057 0)
(0.0107214 0.208195 0)
(0.0227641 -0.0764849 0)
(0.0258518 0.00513063 0)
(0.00184198 0.00529278 0)
(0.0276136 0.0598212 0)
(0.0245411 0.0340056 0)
(0.0151409 -0.00213687 0)
(0.0258089 0.16446 0)
(0.0225309 0.0604239 0)
(0.0258581 -0.00949035 0)
(0.026552 0.0173716 0)
(0.0164534 0.108174 0)
(0.00342056 0.0046467 0)
(0.0239666 -0.0813603 0)
(0.027741 0.0626413 0)
(0.000443337 0.00357835 0)
(0.0236761 -0.0930706 0)
(0.0210549 -0.00442767 0)
(0.0292323 0.134623 0)
(0.0166508 0.113269 0)
(0.0270378 0.0357043 0)
(0.0261379 0.00269918 0)
(0.0252091 0.146412 0)
(0.021278 0.1059 0)
(0.0231386 -0.113569 0)
(0.0290807 0.124644 0)
(0.0304497 0.166409 0)
(0.000497018 0.00407085 0)
(0.0267483 0.0246137 0)
(0.0079847 0.208619 0)
(0.0286945 0.100813 0)
(0.0153176 0.000646611 0)
(0.0298741 0.144528 0)
(0.0276179 0.0582154 0)
(0.0247706 -0.00970727 0)
(0.0123147 0.0802721 0)
(0.0186876 0.147571 0)
(0.0217792 -0.120614 0)
(0.0272493 0.0466556 0)
(0.00223022 -0.00318655 0)
(0.0117786 0.0789619 0)
(0.00369205 0.0240021 0)
(0.00388363 0.0249003 0)
(0.0272548 0.0440179 0)
(0.0272722 0.0469091 0)
(0.0247858 -0.00731851 0)
(0.0289998 0.119847 0)
(0.001191 0.00713323 0)
(0.00785631 0.0399118 0)
(0.0269227 0.0431172 0)
(0.0271065 0.0384668 0)
(0.0262527 0.0869894 0)
(0.0192584 0.0724102 0)
(0.00885289 0.130374 0)
(0.00263804 0.126501 0)
(0.0286494 0.0989187 0)
(0.0298294 0.143115 0)
(0.00439263 0.043494 0)
(0.00400878 0.126461 0)
(0.0233882 -0.0986936 0)
(0.0234428 -0.0507907 0)
(0.0246751 0.00687752 0)
(0.0148289 0.148579 0)
(0.0220028 0.142716 0)
(0.0244481 0.152517 0)
(0.0257701 0.00259407 0)
(0.029746 0.200167 0)
(0.029073 0.122202 0)
(0.0274873 0.059738 0)
(0.0264694 0.0255722 0)
(0.027045 0.0377247 0)
(0.0284378 0.126536 0)
(0.0117515 0.116714 0)
(0.0266697 0.021601 0)
(0.0023635 0.124799 0)
(0.0205894 0.165411 0)
(0.021848 -0.0196081 0)
(0.0275616 0.0578678 0)
(0.0277707 0.192143 0)
(0.00245808 0.0119931 0)
(0.0301736 0.169536 0)
(0.0283606 0.104623 0)
(0.0313654 0.20256 0)
(0.0265332 0.028193 0)
(0.0193573 0.196835 0)
(0.025166 0.00670609 0)
(0.00359764 0.059847 0)
(0.0275987 0.0576318 0)
(0.0301006 0.169532 0)
(0.0247534 -0.0516735 0)
(0.0193919 0.136519 0)
(0.0256499 0.0754188 0)
(0.0289717 0.11795 0)
(0.025805 -0.0115085 0)
(0.0272798 0.0449729 0)
(0.0262012 0.0242075 0)
(0.0293578 0.154897 0)
(0.0207044 0.173653 0)
(0.0238964 0.115386 0)
(0.0147543 0.150223 0)
(0.0243218 0.198321 0)
(0.0180016 0.205648 0)
(0.00247699 0.165903 0)
(0.0257335 0.0140412 0)
(0.0144178 0.207012 0)
(0.0247947 -0.0500759 0)
(0.0304181 0.165203 0)
(0.0228298 0.147494 0)
(0.0249365 -0.0346505 0)
(0.0261018 0.00148044 0)
(0.0232908 0.174539 0)
(0.0098857 0.173414 0)
(0.0253948 0.208141 0)
(0.0269893 0.0343503 0)
(0.0260977 7.84941e-05 0)
(0.0288551 0.113994 0)
(0.0059307 0.00975556 0)
(0.0241656 -0.0743161 0)
(0.0219021 -0.116845 0)
(0.00184568 0.00901207 0)
(0.0262356 0.113944 0)
(0.0250886 -0.021652 0)
(0.012424 0.199447 0)
(0.028288 0.106428 0)
(0.0234025 -0.103178 0)
(0.0271304 0.0465198 0)
(0.0231361 -0.0529583 0)
(0.0275532 0.0558832 0)
(0.023036 0.0730732 0)
(0.0259669 -0.00532229 0)
(0.00247247 0.032638 0)
(0.00465957 0.04645 0)
(0.0255182 -0.0214778 0)
(0.0269448 0.0326059 0)
(0.0172221 0.208015 0)
(0.0230103 0.0693774 0)
(0.01994 0.148215 0)
(0.00419571 0.124695 0)
(0.0214631 -0.100221 0)
(0.0131314 0.208499 0)
(0.0228451 -0.106467 0)
(0.0240701 0.114278 0)
(0.0240497 -0.0679869 0)
(0.0258975 0.0173362 0)
(0.0167738 0.11545 0)
(0.030626 0.188481 0)
(0.0227405 -0.108936 0)
(0.0228675 -0.117364 0)
(0.0131932 0.116337 0)
(0.027004 0.0417025 0)
(0.0225288 0.0649103 0)
(0.0310112 0.189561 0)
(0.0283956 0.142637 0)
(0.0278135 0.190819 0)
(0.0257467 0.0780639 0)
(0.00442579 0.0250414 0)
(0.0150864 0.0161611 0)
(0.0203477 0.0888331 0)
(0.028383 0.196224 0)
(0.00709215 0.195236 0)
(0.0282699 0.0883278 0)
(0.0302058 0.207683 0)
(0.025554 0.00399305 0)
(0.00686527 0.0384759 0)
(0.0272909 0.0531821 0)
(0.018731 0.207992 0)
(0.0244319 -0.0618749 0)
(0.0181283 -0.00631394 0)
(0.00906949 0.193998 0)
(0.0116147 0.0796012 0)
(0.0218435 -0.0596063 0)
(0.0246213 0.0884232 0)
(0.0275747 0.0565361 0)
(0.00254097 0.0386846 0)
(0.0307025 0.186005 0)
(0.0221629 -0.0496924 0)
(0.0243746 -0.0592393 0)
(0.0286794 0.13588 0)
(0.0269425 0.0320573 0)
(0.0281157 0.188384 0)
(0.0184415 0.146609 0)
(0.0259119 -0.00742292 0)
(0.0273142 0.0462912 0)
(0.0166795 0.139537 0)
(0.0216691 -0.0225901 0)
(0.0263591 0.0111937 0)
(0.0288462 0.114889 0)
(0.0262865 0.0161647 0)
(0.000637819 0.00511121 0)
(0.0214148 0.104197 0)
(0.0300086 0.171707 0)
(0.0210238 -0.0476742 0)
(0.0267628 0.0454841 0)
(0.0240368 -0.0532361 0)
(0.0152792 0.0143783 0)
(0.0246093 -0.0276166 0)
(0.0246289 -0.0561964 0)
(0.0177819 -0.0137563 0)
(0.0192966 -0.0503997 0)
(0.0038355 0.0256529 0)
(0.0245888 -0.0581116 0)
(0.00120625 0.0197184 0)
(0.0199171 0.175606 0)
(0.0287168 0.100022 0)
(0.0192714 0.168243 0)
(0.0268928 0.0306771 0)
(0.0253246 0.114531 0)
(0.0126976 0.200475 0)
(0.00401914 0.0265185 0)
(0.0269159 0.183592 0)
(0.00969789 0.10463 0)
(0.0276834 0.100399 0)
(0.00294127 0.0167201 0)
(0.0286982 0.17951 0)
(0.0211022 -0.000992354 0)
(0.0311096 0.195115 0)
(0.0289597 0.207577 0)
(0.0271548 0.0403189 0)
(0.000989164 0.0041416 0)
(0.00303324 0.0504635 0)
(0.0283495 0.126127 0)
(0.0276953 0.131912 0)
(0.0250526 -0.0403441 0)
(0.0267875 0.0262881 0)
(0.0266565 0.0536314 0)
(0.00794017 0.133806 0)
(0.0278616 0.0715325 0)
(0.0158461 0.208142 0)
(0.0229138 -0.115404 0)
(0.0282763 0.0892501 0)
(0.0261417 0.0341771 0)
(0.0230967 -0.114716 0)
(0.0269596 0.151578 0)
(0.0212555 -0.100431 0)
(0.0276587 0.0690712 0)
(0.0283211 0.202256 0)
(0.026658 0.0557669 0)
(0.0188086 0.208161 0)
(0.0267802 0.0624134 0)
(0.0203893 -0.0408141 0)
(0.0251231 -0.0216446 0)
(0.0230191 0.172237 0)
(0.0166019 0.00280827 0)
(0.0218879 -0.0566313 0)
(0.0275189 0.138994 0)
(0.0249138 0.150145 0)
(0.00934034 0.109151 0)
(0.00128681 0.00750677 0)
(0.0257238 0.0103932 0)
(0.0222417 0.0168445 0)
(0.0268376 0.0475915 0)
(0.0078752 0.131415 0)
(0.00688439 0.120051 0)
(0.000961745 0.0162325 0)
(0.0217157 0.146397 0)
(0.0106744 -0.00868042 0)
(0.0243462 0.142918 0)
(0.00396592 0.0272781 0)
(0.0270734 0.0370694 0)
(0.0225423 -0.0953821 0)
(-0.0104764 0.208245 0)
(0.00787919 0.0361512 0)
(0.00199797 0.0215296 0)
(0.0177709 0.202086 0)
(0.0276268 0.0923292 0)
(0.00456855 0.179911 0)
(0.0284295 0.0901751 0)
(0.0287401 0.160047 0)
(0.0294649 0.131182 0)
(0.0220986 -0.0528989 0)
(0.0270761 0.0467644 0)
(0.0212828 0.0345866 0)
(0.00128946 0.0168653 0)
(0.00354576 0.0223461 0)
(0.0224083 0.132913 0)
(0.0292207 0.11932 0)
(0.0017435 0.0185046 0)
(0.0269829 0.0349769 0)
(0.0245149 0.144078 0)
(0.030757 0.178217 0)
(0.0258756 0.191675 0)
(0.0288032 0.158075 0)
(0.0243201 -0.060736 0)
(0.0121091 0.0286003 0)
(7.26087e-05 0.000583702 0)
(0.0226677 -0.0933205 0)
(0.00446896 0.142044 0)
(0.0152766 0.165434 0)
(0.028296 0.0852405 0)
(0.020258 0.150781 0)
(0.00195997 0.0706968 0)
(0.0255154 0.0959838 0)
(0.0087554 0.0600927 0)
(0.00291402 0.00603055 0)
(0.0250649 0.144363 0)
(0.000712153 0.195655 0)
(0.0250457 -0.0406113 0)
(0.0264914 0.144118 0)
(0.0176756 -0.0170344 0)
(0.00188153 0.00971686 0)
(0.0258131 -0.0111889 0)
(0.02834 0.19728 0)
(0.0171303 0.150359 0)
(0.0194161 0.134268 0)
(0.0283936 0.0889421 0)
(0.0262483 0.00701003 0)
(0.0282839 0.0834334 0)
(0.0196842 0.196093 0)
(0.0205839 -0.0374985 0)
(0.00533648 0.0234594 0)
(0.00344896 0.00679964 0)
(0.022907 -0.0740186 0)
(0.0266556 0.142915 0)
(0.025066 -0.0368017 0)
(0.00734715 0.190873 0)
(0.0247043 -0.0536773 0)
(0.020673 0.122733 0)
(0.0159056 0.179341 0)
(0.0283915 0.0875557 0)
(0.00759446 0.121896 0)
(0.0245461 0.0308335 0)
(0.0159082 0.136916 0)
(0.00201592 0.0149152 0)
(0.0274173 0.143723 0)
(0.00341948 0.203228 0)
(0.0219181 0.0715081 0)
(0.026854 0.0291351 0)
(0.0229202 -0.122017 0)
(0.0286753 0.132964 0)
(0.0120274 0.117653 0)
(0.0126021 -0.00121591 0)
(0.0232574 -0.0933182 0)
(0.0270374 0.0371667 0)
(0.000678464 0.0055837 0)
(0.0268996 0.0323267 0)
(0.0123632 0.000571072 0)
(0.0273705 0.13775 0)
(0.0156364 -0.0335067 0)
(0.0172506 0.0107534 0)
(0.0272943 0.0481155 0)
(0.0197086 0.0460947 0)
(0.0224798 -0.133987 0)
(0.0270992 0.119127 0)
(0.000923231 0.0167501 0)
(0.00964181 0.0129888 0)
(0.00375746 0.156108 0)
(0.0144355 0.107061 0)
(0.0193351 -0.0466054 0)
(0.0282547 0.207946 0)
(0.0177843 -0.00405897 0)
(0.0170193 0.0338684 0)
(0.0259829 -0.00453753 0)
(0.026349 0.00969401 0)
(0.0232062 -0.0537211 0)
(0.0275998 0.133798 0)
(0.0264382 0.0333336 0)
(0.0240856 0.0484313 0)
(0.0162658 0.0602947 0)
(0.00563486 0.195425 0)
(0.026758 0.0249862 0)
(0.028845 0.178463 0)
(0.00505437 0.0884889 0)
(0.0210645 0.105494 0)
(0.0267503 0.0248829 0)
(0.0257546 0.0421072 0)
(0.02842 0.0887082 0)
(0.0011718 0.0205523 0)
(0.00479237 0.181022 0)
(0.0246608 -0.0553507 0)
(0.0252984 0.0304041 0)
(0.0220463 0.0660237 0)
(0.029631 0.135037 0)
(0.0159827 0.208356 0)
(0.0143577 0.104895 0)
(0.0276331 0.0690351 0)
(0.00378453 0.0235238 0)
(0.019526 0.0471435 0)
(0.00832455 0.0379124 0)
(0.0272354 0.0432833 0)
(0.010269 -0.00906681 0)
(0.016662 -0.0438534 0)
(0.0162911 0.0576897 0)
(0.0224788 -0.13475 0)
(0.0201898 -0.063363 0)
(0.0291999 0.132178 0)
(-0.00362352 0.205329 0)
(0.0170445 0.000821517 0)
(0.00751855 0.199534 0)
(0.00425345 0.0409247 0)
(0.0284087 0.0882507 0)
(0.0100762 0.0771139 0)
(0.0178534 -0.00711883 0)
(0.00226456 0.0702633 0)
(0.0233303 -0.0916741 0)
(0.00222693 0.0733514 0)
(0.0270583 0.0433648 0)
(0.0226707 -0.131577 0)
(0.0245373 -0.0595314 0)
(0.00925242 0.1933 0)
(0.0245574 -0.056596 0)
(0.0288001 0.103217 0)
(0.0135817 0.144533 0)
(0.0241923 -0.0732948 0)
(0.0295195 0.131942 0)
(0.0287696 0.102052 0)
(0.0232268 -0.110234 0)
(0.0259397 -0.00621015 0)
(0.0313431 0.20362 0)
(0.0272667 0.0529 0)
(0.0189905 0.146537 0)
(0.0233608 -0.104808 0)
(0.0253245 0.0335313 0)
(0.0240686 -0.0778267 0)
(0.0151717 0.00363347 0)
(0.0178512 0.0903622 0)
(0.0174756 0.149679 0)
(0.00449079 0.0435863 0)
(0.0242034 0.0376952 0)
(0.0159998 0.195702 0)
(0.0247511 -0.0518883 0)
(0.0176566 0.087821 0)
(0.00455056 0.120999 0)
(0.0306191 0.17291 0)
(0.0295537 0.198587 0)
(0.00335053 0.155794 0)
(-0.00146253 0.201509 0)
(0.0258754 0.0956412 0)
(0.0209732 0.0589588 0)
(0.0294692 0.207369 0)
(-0.000660031 0.201778 0)
(0.0138986 0.183302 0)
(0.0203233 -0.059996 0)
(0.0229195 -0.122052 0)
(0.0284153 0.088468 0)
(0.00804479 0.208564 0)
(0.0155709 -0.0308628 0)
(0.0291237 0.127185 0)
(0.0282945 0.102748 0)
(0.0295326 0.131299 0)
(0.0267555 0.0251418 0)
(0.022507 -0.107831 0)
(0.0168548 0.111548 0)
(0.0214651 0.0363092 0)
(0.0205314 0.124654 0)
(0.00349126 -0.00531478 0)
(0.0219901 0.144812 0)
(0.00466854 0.00897707 0)
(0.0245031 0.150231 0)
(0.0268378 0.152994 0)
(0.030234 0.158634 0)
(0.0257976 -0.00444264 0)
(0.0168701 -0.0409253 0)
(0.0270081 0.0446939 0)
(0.0276569 0.0594531 0)
(0.0272621 0.142535 0)
(0.010142 0.170212 0)
(0.0261063 1.96899e-05 0)
(0.0185444 0.0707563 0)
(0.0150491 0.164226 0)
(0.011209 0.201224 0)
(0.0303214 0.162194 0)
(0.00140049 0.0738023 0)
(0.0131798 0.118275 0)
(0.0244041 -0.0649428 0)
(0.0245781 -0.0554198 0)
(0.0259894 -0.00272363 0)
(0.0264144 0.0220662 0)
(0.0242765 -0.0673623 0)
(0.013754 0.107747 0)
(0.0273647 0.0547777 0)
(0.0105178 0.171322 0)
(0.00975662 0.0848232 0)
(0.00948136 0.172277 0)
(0.0236544 -0.0933989 0)
(0.0282612 0.0825648 0)
(0.0170025 0.0248027 0)
(0.0100133 0.0121206 0)
(0.0161334 0.13856 0)
(0.0263083 0.0091578 0)
(0.021519 0.145753 0)
(0.025578 0.0685298 0)
(0.00432767 0.139415 0)
(0.0199294 0.14334 0)
(0.0274018 0.0566887 0)
(0.01715 -0.0020056 0)
(0.0276924 0.0979958 0)
(0.0300042 0.188426 0)
(0.0241092 -0.0764344 0)
(0.0197263 0.0866868 0)
(0.0285417 0.182735 0)
(0.0229535 0.149212 0)
(0.0270172 0.0349179 0)
(0.0276229 0.0581432 0)
(0.00922402 0.13254 0)
(0.0282721 0.0829962 0)
(0.0264794 0.0333247 0)
(0.0144818 0.208381 0)
(0.00194751 0.0744515 0)
(0.0226685 -0.131093 0)
(0.000677016 0.0352008 0)
(0.0250237 0.0763871 0)
(0.027291 0.151074 0)
(0.0264734 0.024624 0)
(0.0240111 -0.0797426 0)
(0.0230362 -0.111878 0)
(0.0227858 -0.114425 0)
(0.0270849 0.037989 0)
(0.00411308 0.0223304 0)
(0.0267496 0.02772 0)
(0.0171023 0.00719384 0)
(0.0230503 0.170711 0)
(0.0244901 -0.0616694 0)
(0.0142569 0.154121 0)
(0.000648451 0.0308352 0)
(0.0221204 0.123261 0)
(0.0209415 0.067091 0)
(0.0302001 0.157238 0)
(0.0108817 0.0262881 0)
(0.00755774 0.0801434 0)
(0.0247146 -0.0250784 0)
(0.0275613 0.12121 0)
(0.0255619 0.0107834 0)
(0.0141546 0.208158 0)
(0.0224821 -0.118457 0)
(0.029425 0.127149 0)
(0.0216472 -0.116822 0)
(0.0256898 0.0423955 0)
(0.0210634 -0.102641 0)
(0.0259461 -0.00611646 0)
(0.0233699 -0.0502683 0)
(0.0300276 0.153278 0)
(0.0237168 -0.0912065 0)
(0.022847 -0.00670932 0)
(0.0170288 -0.0085456 0)
(0.0226841 -0.130963 0)
(0.0229956 -0.112764 0)
(0.00700054 0.172038 0)
(0.0271365 0.0507826 0)
(0.0263014 0.084933 0)
(0.0193803 -0.0207042 0)
(0.0242537 0.0353876 0)
(0.0211158 0.0671925 0)
(0.0272882 0.148323 0)
(0.00016315 0.00136296 0)
(0.0260377 0.0308901 0)
(0.0181934 0.206195 0)
(0.0120988 0.0774486 0)
(0.0274918 0.0863794 0)
(0.0177705 0.0353601 0)
(0.0266504 0.193418 0)
(0.00346916 0.0195304 0)
(0.00513139 0.193157 0)
(0.0263106 0.0339389 0)
(0.022413 0.0180445 0)
(0.0199865 0.0245405 0)
(0.0171196 0.0283049 0)
(0.0271095 0.207783 0)
(0.0286662 0.144553 0)
(0.026769 0.0259617 0)
(0.00962194 0.136715 0)
(0.0198451 0.120707 0)
(0.0256654 0.0071413 0)
(0.0155845 0.137345 0)
(0.0277976 0.0833692 0)
(0.0287364 0.146581 0)
(0.0194514 -0.0174481 0)
(0.0270422 0.0492088 0)
(0.0175147 0.0335368 0)
(0.029187 0.119671 0)
(0.00717246 0.170648 0)
(0.022964 -0.0562456 0)
(0.0252354 -0.0333397 0)
(0.026632 0.0233351 0)
(0.0137167 0.111975 0)
(0.0209863 0.161383 0)
(0.0226956 -0.130627 0)
(0.00968053 0.0830063 0)
(0.0116344 0.0827913 0)
(0.0295053 0.130276 0)
(0.0272473 0.0437447 0)
(0.00731686 0.188412 0)
(0.0225343 -0.121098 0)
(0.00554695 0.0472744 0)
(0.0198726 0.0207609 0)
(0.0237108 -0.0912102 0)
(0.0223395 0.128332 0)
(0.0122207 0.0310766 0)
(0.0259586 -0.00316278 0)
(0.0177946 0.0275863 0)
(0.0256373 -0.0164264 0)
(0.0038317 0.0453913 0)
(0.0119024 0.0319395 0)
(0.0170035 0.152306 0)
(0.0225884 -0.116262 0)
(0.0236495 -0.0940735 0)
(0.0119572 0.160696 0)
(0.0160465 0.159787 0)
(0.0135104 0.10693 0)
(0.0204336 0.178822 0)
(0.00180862 0.0132815 0)
(0.0193354 0.208069 0)
(0.0273161 0.0798172 0)
(0.000586158 0.00485694 0)
(0.0261588 0.00255225 0)
(0.0260796 0.19037 0)
(0.0267875 0.0289057 0)
(0.0246488 -0.0557746 0)
(0.0235974 0.208204 0)
(0.0166971 0.0235228 0)
(0.0102368 0.168617 0)
(0.0162763 0.142279 0)
(0.0292907 0.20497 0)
(0.0197796 0.182625 0)
(0.0237288 -0.0910371 0)
(0.0286073 0.0958257 0)
(0.0128084 0.184793 0)
(0.0244439 -0.0634606 0)
(0.014507 0.208445 0)
(0.0258842 0.024109 0)
(0.0225203 -0.120217 0)
(0.0278818 0.187879 0)
(0.0138193 0.208049 0)
(0.0240682 -0.0775282 0)
(0.0269702 0.193326 0)
(0.0300482 0.159319 0)
(0.025182 -0.0353558 0)
(0.0232978 -0.0748966 0)
(0.0206275 0.175497 0)
(0.0258697 -0.00904273 0)
(0.0166855 0.203512 0)
(0.015382 0.00616804 0)
(0.0228191 0.0435629 0)
(0.030034 0.152888 0)
(0.0260347 0.175036 0)
(0.0163602 0.105569 0)
(0.0271655 0.183204 0)
(0.0278355 0.0831329 0)
(0.0269512 0.148934 0)
(0.0255448 -0.021487 0)
(0.021975 0.154363 0)
(0.0270919 0.0383655 0)
(0.0217855 -0.0885452 0)
(0.0225962 -0.125866 0)
(0.0272674 0.0544982 0)
(0.0292323 0.131618 0)
(0.0257397 0.0944725 0)
(0.0173118 0.0356047 0)
(0.0202161 0.14641 0)
(0.0245262 -0.0600572 0)
(0.0107691 0.105007 0)
(0.0139201 0.184438 0)
(0.00226369 0.00686438 0)
(0.0222011 0.141133 0)
(0.0180994 0.082802 0)
(0.0217786 0.193225 0)
(0.0236875 -0.0829675 0)
(0.0189419 0.208266 0)
(0.0216519 0.19876 0)
(-0.00294263 0.205005 0)
(0.0229114 -0.120967 0)
(0.0297604 0.198942 0)
(0.0182649 0.0744087 0)
(0.026203 0.00515462 0)
(0.0233565 -0.10459 0)
(0.0144329 0.0438909 0)
(0.011818 0.0823101 0)
(0.0259578 0.0869555 0)
(0.0292568 0.120708 0)
(0.000914876 0.0299793 0)
(0.0270611 0.0591769 0)
(0.0302568 0.195815 0)
(0.0275179 0.166217 0)
(0.00879496 0.155533 0)
(0.0205827 -0.0270346 0)
(0.0179717 0.0222749 0)
(0.0272024 0.053721 0)
(0.0259935 0.178097 0)
(0.00414087 0.0281053 0)
(0.0311233 0.196856 0)
(0.0231878 -0.111294 0)
(0.0255249 0.187627 0)
(0.0269451 0.0339133 0)
(0.0232412 -0.0776836 0)
(0.0305323 0.177531 0)
(0.0193401 0.16648 0)
(0.0242318 0.0496136 0)
(0.0236762 -0.0920956 0)
(0.0267447 0.026103 0)
(0.022621 -0.105751 0)
(0.0281405 0.207578 0)
(0.0253869 0.137379 0)
(0.000935252 0.0120678 0)
(0.0190696 0.0232642 0)
(0.0197581 0.126059 0)
(0.00852249 0.145206 0)
(0.00928054 0.177611 0)
(0.0273367 0.17984 0)
(0.0134747 0.114283 0)
(0.0245835 -0.0487547 0)
(0.00901517 0.062737 0)
(0.0256529 0.0971181 0)
(0.0167731 0.00628654 0)
(0.0287446 0.155439 0)
(0.0239577 -0.0705764 0)
(0.0300109 0.159121 0)
(0.0134047 0.142546 0)
(0.0291924 0.12917 0)
(0.0191739 0.027235 0)
(0.0240368 -0.0783484 0)
(0.00822536 0.12531 0)
(0.00334926 0.191863 0)
(0.00532312 0.0898952 0)
(0.0251304 -0.0338478 0)
(0.0269715 0.0331651 0)
(0.0229175 -0.107449 0)
(0.0137475 0.114099 0)
(0.0258726 -0.00140702 0)
(0.0173571 0.133938 0)
(0.0257143 0.138843 0)
(0.0269548 0.0325354 0)
(0.0193794 0.0523109 0)
(0.00895635 0.172638 0)
(0.0274579 0.120744 0)
(0.0261883 0.110756 0)
(0.0243595 -0.0666727 0)
(0.01349 0.116283 0)
(0.0225628 0.181973 0)
(0.0194829 -0.0509746 0)
(0.00912783 0.106033 0)
(0.0160703 0.196435 0)
(0.0196349 0.148149 0)
(0.00685006 0.0269774 0)
(0.0133735 0.182884 0)
(0.0265972 0.0188228 0)
(0.02399 0.123985 0)
(0.0250656 -0.0371573 0)
(0.0261477 0.00202588 0)