/*--------------------------------*- C++ -*----------------------------------*\
| =========                 |                                                 |
| \\      /  F ield         | OpenFOAM: The Open Source CFD Toolbox           |
|  \\    /   O peration     | Version:  v2012                                 |
|   \\  /    A nd           | Website:  www.openfoam.com                      |
|    \\/     M anipulation  |                                                 |
\*---------------------------------------------------------------------------*/
FoamFile
{
    version     2.0;
    format      ascii;
    class       surfaceScalarField;
    location    "400";
    object      meshPhi;
}
// * * * * * * * * * * * * * * * * * * * * * * * * * * * * * * * * * * * * * //

dimensions      [0 3 -1 0 0 0 0];
oriented        oriented;


internalField   nonuniform List<scalar> 
20580
(
-0.000822099
0.000431105
0.000396626
0.00170378
-0.00143424
-0.000292238
0.000900403
0.00078612
-0.0014509
0.00166823
-0.000217855
-0.000243867
-0.000334431
0.000374
0.000768742
-0.00250153
0.00170623
-0.0026913
0.00295069
-0.000158837
-0.000385649
0.000353956
-0.000478346
-0.00010957
0.000587562
0.00188309
-0.00880004
0.00687771
-0.000936859
0.00249047
-0.00156991
0.000412104
0.0042535
-0.00474757
-0.0073945
0.00168793
0.00568345
9.70737e-05
0.00026071
-0.000358448
0.000319519
0.000491781
-0.000812513
-0.00186048
0.000106505
0.00176484
0.00102896
-0.000939347
-8.86083e-05
0.00244325
0.000120813
-0.00261409
0.000569166
-0.00021016
-0.000359586
-0.000325591
-0.000488152
0.000333499
-0.000701115
0.000362119
-0.000984874
-0.00381865
0.00475471
0.0019166
-0.00114056
-0.000778217
-0.000272295
2.85087e-05
0.000207868
0.00123587
-0.000360466
-0.00087694
-0.00236245
0.0018762
0.000497481
-0.00116506
0.000485913
0.000680233
-0.000303235
0.000316031
-1.24995e-05
-0.00116439
0.000870236
0.000294977
0.000340667
-0.00328405
0.00284801
-9.86666e-05
-0.00112624
0.00122524
0.000481331
-0.00312983
8.44475e-05
0.000565251
-0.000651453
0.000439377
-9.9104e-05
-0.000339879
0.001126
0.00104505
-0.00217786
0.00093697
-0.00139279
0.000454477
-2.02061e-05
-0.000260932
0.00171451
-0.00125119
-0.000464744
-0.000786484
8.66481e-05
0.000700113
-0.00760448
0.00539847
0.0021311
-0.000209027
-3.10104e-05
0.000239803
-0.000752859
-0.000411598
0.000480501
0.000620652
0.00309831
-0.00223261
-0.000874304
-0.000496766
-0.000494066
0.000991085
-0.000137468
-0.00499192
0.00502062
1.21859e-05
-0.000581806
-0.00093977
0.00138963
-0.000445932
-0.00579456
0.00181295
0.00390924
-0.0006982
-0.00671383
7.68857e-05
0.000334231
-0.00041085
-0.00855842
0.00228067
0.00625835
6.12746e-05
-0.00191114
-0.00267091
0.00148389
0.00120799
0.00063346
-0.000684707
5.17753e-05
-0.00494551
-0.00271374
0.000560155
-0.000475847
-0.000262542
5.28538e-05
-0.00151401
0.00112041
0.000396856
-1.86187e-05
0.000221212
-0.000204286
-0.00429502
0.00462002
-0.000510508
-0.000653011
-0.00762241
0.0076687
-7.02182e-05
-0.0030481
-0.00280692
-0.00299381
0.00164181
0.00134667
-0.00211848
-0.000880205
-0.000175471
0.000156721
-0.000718653
0.00288297
-0.00124635
-0.00442665
0.0055961
0.00143367
-0.00141418
-1.94983e-05
0.000470922
-0.00105123
0.000580599
0.000556903
-0.000650249
9.0478e-05
0.00785812
-0.00570435
-0.00220341
6.7756e-05
0.000152435
0.00152538
-0.00197119
0.000459956
-0.0018527
-0.00356684
0.00536834
1.02998e-05
0.00101754
0.00227967
-0.00129057
-0.00106604
0.000183541
0.00104956
-0.000451326
0.00648084
-0.00614302
0.0038684
-0.0051896
0.00102879
0.000418171
-0.00144788
0.00288438
-0.00177765
0.000143415
0.00031303
-0.000456879
0.000237138
-0.00017018
-0.00102786
-0.000365817
0.00139411
-0.00443877
0.00341174
-4.34112e-07
0.00078698
-0.000786067
-0.00715187
0.00732613
-0.000222971
0.000882017
-0.000980456
-0.00106777
-0.00750307
-0.00224024
0.00275866
7.65989e-05
0.0004485
8.56735e-05
-0.00111349
0.000770809
-0.000369956
-0.000400543
-0.00169867
0.00276096
-0.00107041
0.00906082
-0.00436349
-0.00480254
0.000637365
0.00125199
-0.00188352
-7.97822e-05
0.000300439
-0.00022063
0.00248725
-0.000941587
-0.0015529
-0.000934339
0.00157627
0.00178445
-0.00419519
0.00241227
0.0040893
-0.000884571
-0.00320321
-0.00757735
0.00808173
-0.000544592
0.000850202
-0.00465178
0.003707
0.000989602
-0.000690114
-0.000305868
0.0051762
-0.00443939
-0.000510084
0.000981258
-0.00265367
0.000450846
-0.000201326
0.00258948
0.00508554
-0.00140342
-0.00371597
0.00552731
-0.00578632
0.00051013
0.000413775
-0.000925523
-0.00138037
0.00135228
1.73563e-05
-0.000972509
9.87205e-05
0.000877418
-0.00116886
-0.00148363
0.00422367
-0.00236583
-0.00196821
0.000383959
-0.000728087
-0.00111667
-0.000334359
7.83159e-05
0.00135497
0.00297623
-0.000904225
-0.00208254
-0.00284862
-0.000771915
0.00353102
0.00308139
0.00200269
-0.0051465
0.00034136
-0.000219214
-0.000120377
0.000460817
-0.00041741
-4.3677e-05
-0.00274264
-1.63894e-05
0.00276435
0.00324086
0.00569801
-0.00277633
0.00239805
0.000358945
9.25076e-05
0.000230428
-0.000322987
2.10594e-05
0.00052681
-0.000553922
0.00113632
-0.00499891
-0.0033159
0.000415338
0.00286046
0.00061479
0.00109969
1.51878e-05
0.000424687
-0.00208703
0.00113812
0.000575701
-3.61222e-05
-0.000538779
0.00280163
0.000633252
-0.00099875
0.00486296
-0.00169921
-0.00316428
-0.000133156
-0.000728109
0.000864555
-0.000641288
0.00167513
-0.000899526
-0.00548654
0.00635785
-0.00823761
0.00104513
-1.60823e-05
-0.00235674
0.00237541
0.000843129
-0.000710094
-0.000133893
0.00624994
-0.00279153
-0.00350656
0.00106121
0.00114091
-0.00104054
4.8134e-06
-0.000667472
0.000661456
-0.0026686
-0.000120798
-0.00155608
0.000624927
-0.000658977
0.00117077
-0.00134791
-4.08625e-05
0.000185129
-0.000547836
0.000362276
-0.00605716
0.00819915
-0.00216138
0.00875232
-0.00728126
-0.00149017
0.00520994
-0.00504732
-0.000264276
-0.00025927
-0.000527148
-0.000692823
0.00076925
-7.42296e-05
-0.00176266
0.00157005
0.000208097
-0.000602598
0.000489885
6.4226e-05
0.00112744
8.21154e-05
-0.00120764
0.000568948
0.000399539
-0.00162995
0.000695189
-0.000289884
0.000386298
-0.00083199
0.000699818
0.000133379
1.82223e-05
-0.000848605
-0.000383448
0.000460921
0.00382614
0.001224
0.000416028
-0.000145295
-0.000271858
-8.44116e-06
-0.00438592
0.0043097
0.00142113
0.00265974
0.000262752
-0.000927279
0.0006581
0.000323628
-0.00065628
0.000176289
0.000286965
0.000480806
0.000259606
-0.00080171
0.000542488
-0.000731907
-0.000543019
0.00127731
0.00375962
-0.0024681
0.00191542
0.000274447
-0.00216855
0.000771258
-0.00150196
0.000353259
0.000101195
0.00139091
-0.00466472
0.0011215
0.00350913
0.000802909
-0.000786973
0.000546597
0.000411409
-0.000557883
0.000561537
-0.000137422
0.000701756
0.00565307
-0.00507088
-0.00058564
0.0055026
-0.00838046
0.00285447
0.00515226
-0.00495477
-0.000310873
0.000239242
0.000605875
3.43416e-05
-0.000724344
-0.00012918
0.000389242
0.00205428
-0.0013117
0.00189727
0.00430323
0.00032849
0.0016311
-0.00195079
0.00043627
-0.000572757
0.000939079
-0.00016206
-0.00079272
-0.00339054
-0.000307162
0.00362882
-0.00390623
0.00166211
0.00224914
-0.000704146
-0.000917406
0.00162296
-0.000294791
-9.95747e-05
0.000394755
0.000252098
-0.00026414
1.33124e-05
-0.000643916
0.000965092
0.00163997
-0.00167644
3.27529e-05
-0.000418614
0.000123807
0.0039877
0.0024659
-0.00645479
0.0015633
-0.000361037
-0.00119639
0.000507537
-0.000652233
0.000144617
0.00273663
-0.00267979
-8.62223e-05
-0.00212894
0.000402077
0.00173354
-0.00213924
0.00516681
-0.0013416
-0.000269704
0.00226089
-0.00199999
0.00173315
0.000472799
-0.0022191
0.000673965
0.00397531
-0.00469082
-0.00773741
0.00701978
-0.000292079
0.000447234
-0.000155216
-0.00270945
0.00171226
0.000949705
0.000307194
0.00119407
0.0025405
0.00109067
0.000645891
-0.000279657
-0.000362231
-0.000267601
0.000409771
-0.000138868
-0.000449338
0.000590099
-0.00533069
0.00139811
0.00392787
0.000487498
0.00108265
7.23668e-05
0.000912272
-0.000995142
0.0025438
-0.00255833
-0.00681248
0.000118276
0.00659514
0.002771
0.00191704
-0.00128905
-0.000627754
0.00431131
0.0013361
0.00253021
0.000171728
0.000219898
0.00674823
-4.1331e-06
0.000257001
-0.00302516
0.0032624
0.00127531
0.000638016
0.000222505
-0.000272135
5.00602e-05
0.000819059
0.00165908
-0.000548222
-7.40247e-05
0.00183908
0.000346894
-0.00218965
-4.81956e-05
0.000256329
-0.000208564
-0.00115692
0.000660257
-0.00201021
0.000232101
-0.000796764
0.000569263
0.00228694
-2.23681e-05
-0.00226206
0.000157499
-0.000448795
0.00228341
-0.000349911
0.00109655
0.00165702
-0.00180068
-0.00274166
0.0045089
-0.000815972
9.63404e-05
0.000718999
-0.000587364
0.000385992
0.000193726
0.000673709
-0.00012513
-0.00081556
-0.000277644
0.000886014
-0.000615161
0.00158612
0.000123291
0.00100403
0.000875307
-0.00129411
0.000417897
0.00122477
0.00383818
0.000246798
-0.00694552
0.00724142
-0.000334073
0.0006886
-7.21094e-05
-0.000614708
0.000210387
-0.00043644
0.00022918
-0.00065407
0.000371925
0.000825518
-0.000275086
-0.000462507
-0.000125804
-0.00906359
0.00292938
0.00606521
0.00370193
-0.00191351
-0.000691613
0.00145768
-0.000762447
0.000399063
-0.000269887
-0.00012599
-0.00142998
0.00721577
-0.00585533
-0.000550849
-0.00720295
-0.00102412
0.000307079
0.000341415
-0.000650995
0.00107617
-0.00148259
0.00040721
0.000690441
-0.000259096
-0.000433055
5.96285e-05
-0.00297819
0.00040388
-5.59454e-05
-0.000490124
0.000205329
0.000284694
0.000221463
0.00077938
-0.000998005
0.00052034
0.000292104
-0.000255644
0.000562024
-0.000140605
0.000243095
-0.000102255
0.00141885
-0.000736469
-0.000698291
-0.00104898
0.000361227
0.000691102
0.000654305
0.000840533
-0.00149468
0.00695809
-0.00401844
-0.00305425
-0.00449178
0.00476248
-0.000365269
-0.000501362
0.000725538
-0.00281256
0.00187562
0.000921798
-0.000793623
-0.00237862
0.00308832
0.00180768
-0.00211515
0.000265627
-0.00148152
-0.00542005
-0.000497698
-0.000223836
0.000475215
1.16845e-05
-0.000618514
0.000601067
0.000614352
0.000110224
-0.00058882
-0.000261759
0.000596749
0.00727952
-0.00238082
-0.00497667
0.00106012
0.000224701
0.000117383
-0.00810128
0.00598276
0.00209544
0.00032654
4.80001e-05
-0.000307733
0.000261011
-0.00610727
0.00518332
-0.00695902
-0.00115656
-0.00075657
0.000489688
0.000470454
-0.000124235
-0.000344446
0.00112648
-0.00104723
-7.95611e-05
0.000670931
-0.000505086
-0.00016776
0.000387808
-0.000838654
0.000176094
0.00023963
-0.00438166
0.000745215
-0.000302529
-0.000446281
-0.000281031
0.000331193
0.000427347
-0.000281036
-0.000141219
-0.0011983
-0.000547086
-0.000727288
0.00138055
-0.00194904
0.00132076
0.00062678
-0.00141991
0.000296448
0.00112127
-0.000276181
0.00112267
-0.000848273
0.00438382
-0.00196287
-0.00241736
-1.15277e-05
0.00058703
0.000319292
-0.000258083
-6.12992e-05
-1.12042e-05
-0.000291506
-0.000275658
-0.00317727
-0.00111464
0.000160744
0.000954359
-0.000650241
-0.000183661
0.00188728
-0.00204992
0.000166339
-0.000189542
0.0020818
-0.000480383
0.0044682
0.000291274
0.000533193
-0.000828503
-0.00562268
0.00170259
0.00390216
-0.000652224
0.000652255
0.00450233
-0.00220751
-0.0022915
0.00134897
-0.00161823
3.53039e-05
0.000719527
-0.000577272
0.00405779
-0.000406536
-0.00368931
-0.000971144
-0.000449818
0.0016618
0.00199402
0.00483739
-0.000508637
-0.00544192
0.00428895
0.00113637
-0.00119455
-0.00214762
0.00100827
0.000576071
0.000191963
0.000279028
0.000328869
7.21895e-05
0.00170163
0.00592853
-0.00530917
0.00270934
-0.000214943
-0.000997654
-0.000197562
0.00119654
-0.00212546
0.00760647
-0.000305241
0.000723681
0.00067304
-0.000411044
-0.000350538
-0.000982656
-0.00447276
0.000340183
0.00101446
0.0061799
0.00199114
-0.000543946
-0.00145241
-0.00218609
0.00123941
-0.000500542
0.000402699
9.22433e-05
-0.00133533
0.000421151
-0.00141817
0.00164611
-0.00447035
-4.09121e-05
-0.000499535
-4.71465e-05
0.000546406
-0.00175761
0.00103398
0.000685649
0.00032043
0.000107743
-0.000678611
0.000473799
0.000207535
-0.000326069
0.000246353
0.0031163
0.000899521
-0.00108213
0.00225149
-0.000965837
-0.000546706
0.000380706
0.000887928
-0.00126869
-0.00110658
-0.000779809
0.00188645
0.00066458
0.000256285
-0.000920322
0.00280189
0.000482588
-0.00333133
0.000614064
-0.000355165
0.00128213
-0.000801176
-0.00109736
-0.000151491
0.00123371
-0.00022854
-0.000587189
0.0011098
-0.00141975
0.000292495
-0.000250061
-5.11302e-05
0.000301459
-0.000260685
-0.000791565
-0.00271293
0.00089714
0.000152318
-0.000466428
0.000319706
0.00233686
-0.000935323
-0.00140542
0.00278581
0.00594594
0.000736564
-0.00175973
0.00100487
-0.00132788
-0.00149817
0.00181456
0.00438346
-0.00562655
0.00116474
0.000178247
0.000514638
-0.000530441
0.000282999
0.000247668
0.00365993
0.00416046
0.000912067
-0.00126703
-0.00109635
-0.000467079
0.00156406
-0.00243994
-0.000422273
0.00282059
-0.00242002
0.00176121
0.00065346
-0.00215014
0.000366085
0.00179668
0.00116352
-3.69432e-05
-0.00140786
-0.00130409
-0.00080305
-0.00154622
-0.000842256
0.00247645
-0.00020735
9.04588e-05
-0.000769538
0.000681107
-0.000239938
0.00111477
0.00018795
-0.000377988
0.00221371
-0.00430359
-0.00482027
0.000320549
0.00165705
0.00195576
-0.000815659
-0.00115704
0.00128322
-0.00235695
0.000641197
0.00284127
-0.00355939
0.000749004
0.000290005
-0.000226091
0.00032871
-0.0001027
0.000777222
0.000339364
-0.0011163
0.00225189
0.000422337
-0.00031112
0.0010292
-1.78788e-06
-0.00102368
-0.000417163
0.00149349
0.00107881
-0.000774834
-0.000293663
-0.000150079
-0.00096453
-0.00166943
-0.000324581
0.00199022
0.00101166
-0.00191791
0.000904945
0.00182391
-0.00365063
0.000384248
-0.000585279
0.000200621
0.00789549
-0.00579433
-0.00213521
-0.000109337
0.000281224
0.000556083
7.79673e-05
0.000759581
-0.000854829
9.67822e-05
0.00753173
-0.00568193
-0.000321317
-0.00113024
-0.000283415
0.00119984
0.00398374
-0.00044732
-0.00368203
-0.000322369
9.67437e-05
-0.000393039
0.000682238
-0.00043417
-0.000243053
-0.00131813
0.000536419
0.000790186
0.00342309
-0.000680876
-0.00516223
-0.00261378
0.00777326
-0.00100257
0.00138282
-0.00824515
0.00577193
-0.00786246
0.00269829
0.00150877
-0.000832267
-0.000675925
-0.000226773
-0.000303652
-0.00368813
0.00478123
0.00140829
-0.00088798
-0.000518784
-0.0069181
-0.000708902
0.000382163
0.00427506
0.000192775
-0.00267356
-0.000120846
-0.00129006
-0.000926667
0.00222708
0.00354471
-0.00578957
0.00217359
-0.0011889
0.00295299
-0.00180783
0.00166094
0.00130717
0.000705502
0.000672799
-0.00139272
0.000390086
0.000632211
-0.00102012
0.00583288
-0.00421445
-0.00173665
0.0010342
-0.00198227
0.000957965
0.000580052
-0.00107405
0.00486407
-0.00303514
-0.00183963
0.000117432
-0.000343886
0.000232485
0.000102811
0.0043716
-0.00455107
-0.000452473
-0.00084336
0.00092968
-0.000161149
-0.000770563
0.00249772
-0.000878301
-0.00162361
-0.00102809
-0.000198835
0.00122785
0.000696653
-0.000468457
0.000247003
-0.00132424
0.00108146
0.00240568
-0.00586879
-0.000110169
0.00589505
7.02871e-05
0.000312502
-0.000382724
0.000444636
-0.0018353
-0.00248714
0.00431997
0.00228557
0.00415298
-0.00648856
0.000101104
0.001198
0.003664
4.60157e-05
0.00154991
-0.00159921
-0.00175159
-0.00585646
-0.00263576
0.00280205
-0.000193542
-0.00165568
-0.00116913
-0.000398652
0.00157815
-0.000332171
7.39302e-05
0.00027522
0.000755452
-0.00054299
0.00132474
-0.0027678
0.00504699
-0.00230003
-0.000934596
-0.00823908
0.00697159
0.00118996
0.000953839
0.000232184
-0.00236448
-0.000289784
0.00072681
0.000419134
0.001509
0.00402355
0.00211424
0.00273563
0.000790134
0.000196594
-0.000693853
0.000780779
0.000509483
-0.0012903
0.000335837
-0.000265503
0.0013031
-0.00091177
0.00123344
-0.00145418
0.000220181
0.000481507
0.000666886
0.000137309
-0.000803754
-0.000229507
-0.00168549
0.00548496
-0.00380698
0.000301364
-0.00358509
0.00326284
-0.0014948
-0.000927379
-0.00764766
-0.00117824
-0.00171051
0.00600518
-0.00502526
0.00135459
0.00366418
-0.000704571
0.000223561
0.000478881
0.000593878
-0.00133543
0.000730719
0.00454185
0.0020477
-0.00661192
-0.000591149
0.00252675
-0.00194786
0.000259934
-0.00115851
0.000894802
0.000415902
0.00642809
-0.00685362
-0.000926432
0.000769367
0.000156949
-0.00139786
-0.00449726
0.00580432
0.000352474
-8.19205e-05
-0.000270814
8.47275e-05
0.00240764
-0.00566115
0.00511479
-0.000970232
0.000455867
0.000510816
-0.000437411
-0.00126523
0.00169961
0.000122614
-0.00391764
0.00138822
-0.000151743
-0.00123733
-0.00199185
0.000495643
0.000856689
0.000657298
-0.00150392
-0.000260042
-0.000679982
0.00094152
0.000362568
0.000206217
0.00050844
-0.000273286
-0.000234143
-0.00539361
0.00260139
-0.00136071
0.00052883
0.000206945
-1.52187e-05
-0.000191647
-0.00041825
0.00129423
0.000916731
-0.000933939
1.53525e-05
-0.000180031
-0.00568027
0.00577716
-0.00585431
0.000916147
0.000699877
-0.00161607
-2.12966e-05
-0.000228598
0.000252683
-0.00151382
0.00124569
0.00110733
-0.00238486
0.00759793
-0.00075961
-0.00685878
-0.00105319
-0.000610088
0.00166649
0.00033854
-0.000246067
-0.000694253
3.90781e-05
0.000655123
-0.00056817
0.00108027
-0.000515118
0.000513745
0.000350216
-0.000864225
-0.00217019
-0.0046706
-0.000606018
0.00227475
9.59144e-05
-0.00235552
0.00022193
0.000867029
-0.0056134
0.00200665
-0.000556097
-0.000411794
0.000969665
0.00130848
0.00102425
-0.000814394
0.0013604
-0.000787138
0.00692603
0.000273848
0.000275874
0.000418839
-0.000696095
-0.00456771
0.00386656
0.000654841
-0.00174868
0.00168745
5.11817e-05
0.000408396
0.000904248
-0.00130102
0.00135654
0.000467136
-0.00181101
0.000261115
0.000705117
-0.000974455
0.000406758
0.000677937
-0.00108485
-0.000253663
0.00011367
-0.00123103
-0.00063024
0.00183904
0.000248247
0.00103426
0.0016414
-0.000548553
-0.0010797
-0.00104122
0.0010244
7.05989e-06
0.000401247
-0.00115398
-0.000192405
-0.000492238
0.0047569
0.00102525
-0.00585347
-0.00536767
0.00349737
0.000592586
0.000335477
-0.000746673
0.00171854
-0.00100261
-0.00071352
-0.00195496
0.000907842
0.00163612
-0.00159354
0.000432259
0.00185966
-0.00106078
0.000801145
0.00101825
0.000898143
-0.000249956
0.000944221
-0.000694169
0.0023374
0.000829987
-0.00318075
9.11745e-05
0.000261248
-0.00116437
0.000353883
0.000812297
0.00121931
-0.000494771
-0.0007243
-0.00010118
-0.00341843
0.00346337
-5.4051e-05
0.00117928
0.000500579
-0.000116561
0.00024038
0.00527792
-0.00559749
-0.000461246
0.000538212
-2.58745e-05
0.000535734
-0.000509377
-0.000875141
0.000668257
0.000766384
0.00561529
-0.00644552
-0.00144769
0.00169488
0.00155206
0.00106245
-0.00262229
0.00121502
0.000592858
-0.00180906
-0.0042083
-0.00411039
-0.000317824
0.000477699
-0.000284977
0.00462172
0.00118346
-0.00580804
-0.00107822
0.00133134
0.000562368
0.00514935
-0.000420293
0.000319373
-0.000758399
-0.000326715
-0.000835567
0.00430904
0.00148449
-0.00581486
0.00216587
-0.000875891
0.00317122
0.00486678
-0.00511527
0.0055235
-0.00354124
0.0038478
-0.000332689
0.000927998
-0.000414206
0.000130041
-0.000913858
0.000781354
-0.000484077
-0.00225191
-0.00426634
0.000757648
0.00338477
0.000154289
-0.00145075
0.00126059
-0.000746129
-0.000188229
0.00145294
-0.00267846
0.000820629
0.00038148
-0.00120583
-0.0008347
0.00129253
-0.000472102
0.00212241
-0.00396012
0.00139861
-0.00144677
0.00469278
-0.000460075
-0.00425311
0.000567241
0.000654842
-0.00122172
-0.00137326
0.00143673
4.21449e-05
0.00223097
-0.00225912
-0.000924526
0.00117301
0.000452822
-0.000946595
0.000492208
0.00483079
0.00205625
-0.000843467
0.00214627
-0.00275119
-0.00113085
-0.00136656
0.0024922
0.000398825
-0.000423118
0.000555099
-0.00105046
0.000482276
-0.000437524
-0.000489011
-0.0013516
-0.00123441
0.000126608
0.00184875
-0.000615849
-0.000876957
0.000792792
8.27555e-05
-0.00124423
-0.000543779
-0.000492772
0.00130787
4.59395e-05
0.000878401
0.000503316
0.000716046
0.000400971
-0.000524651
0.000123971
0.00655093
-0.00255002
-0.00406584
-0.00101892
-0.000150775
-0.000119647
0.000270335
0.000384475
0.00119797
-0.00159468
-0.00157952
0.00195302
0.000269869
0.00161477
-0.000536381
0.00110397
0.000523699
0.00080787
-0.0013311
-0.00200877
-0.00495838
0.000142716
-0.000529052
0.000389915
0.00132315
-0.000632878
0.00524198
0.00228845
-0.00754594
-0.00108839
-0.00019878
0.00128932
-0.000318595
0.00115486
0.00109053
-0.00225282
0.000789941
0.000113533
-0.000896924
-0.00125192
0.000562966
-0.0020499
0.00399739
-0.00195668
0.00240277
-0.00145135
-0.000939273
-0.00357461
0.00625043
-0.00268116
-0.00396424
0.00581365
-0.00147326
0.00301265
0.000804048
0.00381412
-0.00107565
-0.000548373
-5.3601e-05
0.000608744
-0.000502571
-0.000151041
-0.000944268
0.00326973
-0.000700116
0.00224512
0.000299649
-0.000509902
-0.00046678
-0.000163827
0.000630172
0.00152354
-0.00013629
-0.000230982
-0.00132216
-0.000102833
0.000467857
-0.000364733
0.00458084
-0.00383659
-0.000767562
0.00140391
-0.000487035
0.000230764
-0.00288215
0.00299751
-0.000172312
-0.000167143
-0.000894419
-0.000310611
0.000609579
0.0043854
-0.00133377
-0.00309296
0.00683812
-0.000471598
-0.000840245
-0.00559279
0.00632341
0.00185218
0.000435346
-0.00227691
0.000865274
-0.000200422
-0.00085426
0.00189689
-0.000211075
-6.07223e-05
-0.00379833
-0.000603305
0.00123553
-0.000711001
0.00237557
0.00025343
-0.00263868
2.84155e-05
-0.000307283
-0.00160952
0.00111134
-0.00249165
0.0010577
-0.000605135
0.00148908
0.000379023
-0.000349208
0.00210413
-0.000954527
0.00121682
0.00333694
0.00075998
0.000605767
0.00275317
0.000319395
0.00179558
-0.00212013
0.001906
0.000639352
-0.000963885
-0.00037586
0.00192431
-0.00156758
0.00133151
0.000261903
-0.00159659
0.00423007
0.00363847
-0.00164879
0.00706436
-0.00460144
-0.00373619
0.00896364
0.00066987
-0.00107266
0.000402864
0.000191241
-0.000882039
0.000568731
-0.00165736
0.000615131
-0.000570382
-0.00104463
-0.00063078
2.76366e-05
0.000603206
0.000267753
3.2768e-05
-0.000254314
0.000895217
-0.00201089
0.000876012
0.00230071
0.00253062
0.00523194
-0.00721779
0.00665129
0.00227146
-0.000447874
-0.0018956
0.00147966
-0.00137187
-0.000460922
0.000931925
-7.17271e-05
-0.000867054
0.00101018
-0.00107174
5.98054e-05
0.00177807
-0.00383551
2.28602e-05
0.00029345
0.00308245
-0.00518114
0.00205716
0.000617833
-0.000612938
0.000638401
0.000548943
0.0011188
-0.00270227
0.000738585
0.00194551
-0.000888889
0.000276349
0.00660786
-0.00649507
-0.000123558
0.00052478
0.00034193
-0.000869369
-0.00207157
-0.000460532
-0.000910372
0.000946138
-3.59445e-05
-0.000147859
0.000548697
3.80495e-05
0.000129323
-0.000426216
0.00029666
0.000730091
-0.00164346
0.000941029
0.000286244
-0.000385135
0.00593801
-0.00217659
-0.00378911
-0.000597632
-0.000753164
0.00120195
-0.00513135
0.00522937
-0.000109317
-0.00743335
0.00191694
0.000967251
-0.00154846
0.000558444
-0.0019309
0.00152195
0.000420551
0.000376003
0.000495134
-0.000870936
-0.00287209
0.000615808
0.00222921
-0.00115892
-0.00059203
0.00174096
-7.97631e-05
-0.00159352
-0.000124111
-0.000570569
-0.00290089
-0.00217022
0.00552548
-0.00239548
-0.00315555
0.0008066
-0.00124786
0.000442033
0.000427348
0.00177335
-0.000585565
-0.00133065
0.00114682
0.000109754
-0.000575047
0.00123541
-0.001008
0.000942892
6.37128e-05
0.00102683
0.000359097
-0.00138056
-0.00101637
4.75301e-05
0.00165033
-0.00196672
0.000308746
-0.00063761
-0.00147478
-0.00238457
0.00385209
-0.00053933
0.00056581
-0.000156118
-0.000888618
0.00318831
-0.00334496
-0.00260116
0.00112714
-0.000394711
-0.00165062
0.00206449
0.00213857
-0.00182596
-0.000319312
0.00278039
0.000826357
-0.003734
-0.000732094
-0.00162178
0.00234735
0.00207538
8.80085e-05
0.00113576
-0.00122237
0.00184737
-0.000205845
-0.00155968
0.00130012
0.00025951
-0.00434187
0.00264253
8.80752e-05
-0.000867019
-0.00110831
0.00197236
-0.00201979
0.00450139
-0.00260307
-0.000541313
0.00126178
-0.000839127
0.000371006
0.00124186
-0.00143779
-0.000687554
-0.000732007
-0.000516115
-0.00673242
0.00166891
0.00497214
0.00192552
0.00456259
2.45383e-05
-0.0027175
0.0026825
-0.00178429
-0.00399449
0.0057339
-0.00489551
0.00399493
0.000806799
-0.00182972
0.000687011
8.34863e-05
0.000607474
0.0006982
-0.000121426
-0.000576141
0.00184174
-0.000278979
0.00131009
0.00404804
0.00349559
-0.00756104
-0.00350867
0.000149569
0.00133244
0.000715394
-0.00204908
-9.77523e-05
-0.000335163
0.000768602
-0.0021496
0.00252896
-0.000386866
-0.000654522
0.00075593
-0.000217846
0.00120862
-0.000993389
-0.000261964
0.00166177
-0.00773592
-0.000330054
0.00282182
-0.00257516
-0.000384894
0.000760712
0.00289189
-0.00647306
0.000944277
-0.00118692
0.000229657
0.00394967
-0.000128115
-0.000624868
0.000154698
0.000469139
-3.34163e-05
0.000473289
-0.000128071
0.00116293
0.0065289
-0.00764618
0.00108278
0.00245208
-0.0016415
0.000612066
-0.000618993
3.50468e-06
0.00106322
0.00209591
-0.00316875
-0.00154402
0.000831129
-0.00658315
-0.00126294
0.0018919
-0.000646069
-0.000374848
-0.00273013
0.00294019
-0.00160289
0.000780872
0.000823584
-0.00729754
0.00248628
0.00479693
-0.000717261
-0.000576878
-0.00338546
0.00248671
0.000843412
-0.00038941
0.000527232
-0.000138527
-0.000463153
8.28384e-05
0.000380138
-0.00201528
0.000278647
0.00171675
0.00242697
-0.000578575
-0.00200959
0.00195053
-0.000991684
-0.000959517
0.000488032
-0.00123976
0.000751703
0.000505193
-0.00175231
0.00164658
-0.00128219
-0.00745927
0.000220785
-0.000938028
0.000951899
-1.38572e-05
0.000314213
-0.00326027
0.000178991
-0.000490499
-0.000711547
0.00638676
-0.00575307
0.00198555
-0.00248466
0.000122442
-0.00103206
-0.000534261
0.00468513
-0.00465693
-0.00039616
0.00189386
-0.000101953
-0.000151014
0.000253215
-0.00219535
0.00132084
0.000873083
-0.00027059
0.000119109
0.00527531
-0.00414689
-0.000466591
0.000364186
-0.00660998
0.00511903
-0.000659636
0.00328107
0.00298369
0.00519087
4.43931e-05
0.000763163
0.00257204
2.92e-05
-0.00261244
0.000224516
3.61085e-05
-0.000260526
0.000601284
-0.000689836
8.89612e-05
-0.00128351
-0.00148276
-0.00090128
1.88201e-05
0.00130169
-0.00106386
0.0050046
0.000461042
0.000904097
0.00104521
-0.0016467
0.000109402
-0.000594639
0.000583109
0.000327966
-0.00160645
0.000388235
0.00556647
-0.00540131
-0.000101188
-0.000602899
0.00326521
-0.00090094
-0.000473535
0.00102953
-0.00115054
-0.000223637
-0.00197966
-0.000293998
0.00227051
0.000547225
-0.000145899
0.000522102
-0.000391691
-0.000392202
0.000288161
0.000689568
-0.000972496
0.00131804
0.0063133
-0.000131398
0.00155849
-0.00144514
0.00049255
0.00116061
0.000277897
0.000524809
-0.00080276
0.000557039
-0.000546589
-0.000382727
0.00111104
-0.000727581
-0.000408351
0.000311204
0.0021716
-0.000403382
-0.00105268
0.00173626
-0.0006843
-0.00145818
0.000404865
0.000831256
-0.000352994
-0.000478442
-0.00063577
0.00070884
0.000875779
-0.00158339
0.00571321
-0.000689045
0.000131107
0.00215698
-0.000508295
0.000562419
-5.31351e-05
0.00121959
0.00312502
0.000232097
0.000875994
-0.000249895
0.000252149
-2.16363e-06
0.00295617
0.00220272
-0.00520148
0.000436782
0.00182187
0.00644916
-0.00176485
-0.00313273
0.00603318
-0.000403121
-0.000185796
0.00567804
-0.00113934
-0.00464311
-0.00144837
0.00130031
0.000131013
-0.000399584
-0.00523203
0.00381826
0.00135912
0.00116033
-0.000747505
-0.00617465
0.00134778
0.00481247
0.00100258
-9.64552e-05
-0.00090125
0.000304813
4.08349e-06
-0.000308853
-0.00460013
0.00104816
0.000673844
-0.0012029
-0.0019897
0.00316421
-0.000247734
-0.0017884
-0.00161799
-0.000578151
0.00524093
-0.00162089
0.00160312
1.38395e-05
0.00161485
0.000154221
-0.000256585
-0.001305
0.00114864
0.000168679
0.000999465
-0.000664254
-0.000334968
0.0012183
-0.00138595
0.000309404
-0.000255689
-5.4216e-05
0.00049326
0.000171095
-0.000664248
0.000687833
0.000311546
0.00103854
-0.000198525
-0.000838231
-0.00756931
0.00562514
0.00190281
-0.00457445
-0.00224171
-0.00136632
-0.000154471
0.00151765
-0.00187591
-0.00166331
0.00732291
-0.00569135
-0.000100923
-0.00359798
0.00468386
-0.00552726
0.00171578
0.0038008
-0.00445615
0.00155447
0.00468698
0.00099523
0.000593222
0.00457464
-0.0028563
0.00109393
0.00179031
-0.00249355
-0.00211196
0.00456512
-0.000493494
-0.000479104
-0.00438897
-8.87331e-05
0.000505716
-0.000365423
-0.000140613
-0.00166389
0.000666887
0.000999251
-0.000691477
0.0010291
-0.000349334
-0.00246291
0.00305196
-0.000608572
-0.000226651
-2.31407e-05
-0.00291855
0.00126512
-0.000970633
-0.00169025
0.00203882
-0.00126617
0.00439147
-0.00315449
-0.00559286
-0.0017165
0.00471041
-0.000335964
-0.00445079
-0.00255308
-0.0013073
0.00384312
-0.00616911
0.000219507
0.00512697
0.000437248
0.00263537
0.00174977
-0.00686862
-0.000426223
8.92667e-05
0.0020398
-0.00142879
0.00283866
-8.44714e-05
0.000534558
-0.000449655
-0.000319527
0.000321047
-1.28363e-06
9.6982e-05
-0.000350903
0.000253192
0.0008209
9.52954e-05
-0.00156088
-0.000648865
0.00217152
-0.00059162
-0.000460442
0.000303967
0.000157154
0.000111624
-0.00386071
0.00678856
-0.00476429
0.00119024
7.392e-05
0.00350577
0.00245962
-0.00597677
0.00281829
8.67605e-05
0.000234443
0.000554039
-0.00165069
-0.00109421
-0.00189406
0.00297798
-0.00333823
0.00371228
-0.000439039
-0.000750554
-0.00025848
0.000343366
0.00140894
-0.00339125
0.00215921
0.00401122
-0.00337483
-0.000289617
0.00109641
-0.000800356
0.000513192
0.0001565
0.00475911
0.00187293
-0.00666698
-6.11781e-06
0.000213462
-0.00144046
-0.00354466
0.00382736
-0.000622082
0.000122154
-0.00170869
0.00198803
-0.00028354
-0.000421178
0.00135894
0.000393142
0.000112491
0.000916984
-0.00104435
0.000868054
-0.000779782
-0.00201643
-0.00141166
0.0011284
-0.000450668
0.000180948
-0.00580912
0.00169746
0.00398881
0.000557399
0.000141166
0.0021335
0.0033673
0.000406799
-0.00181041
0.0013745
-0.000514794
0.00631981
-0.00590287
-0.00156546
-0.000389886
-0.00169491
-0.000923431
0.00263617
-0.000216212
-0.000436384
0.00149935
-0.000617132
0.00203358
-0.000776724
-0.00124719
0.000595985
-0.000657661
6.22295e-05
0.00153932
-0.000907285
-0.000624959
-0.00631475
0.00650228
-0.000225027
-0.00191324
0.0029497
-0.00103139
0.00536985
-0.00631872
-0.00185268
0.000668126
0.00118275
-0.00105088
0.000174685
0.00247058
-0.00278517
-0.00447342
0.00409068
0.000351204
0.00372507
-0.000450961
-2.7216e-05
0.00047789
0.000213611
-0.00115146
0.000433334
0.000792261
-0.00122373
0.00012756
0.000130031
-0.000257416
0.00088796
-7.93042e-05
-0.000808087
0.00370409
-0.00539632
0.00725621
-0.00502516
0.00157946