/*--------------------------------*- C++ -*----------------------------------*\
| =========                 |                                                 |
| \\      /  F ield         | OpenFOAM: The Open Source CFD Toolbox           |
|  \\    /   O peration     | Version:  v2012                                 |
|   \\  /    A nd           | Website:  www.openfoam.com                      |
|    \\/     M anipulation  |                                                 |
\*---------------------------------------------------------------------------*/
FoamFile
{
    version     2.0;
    format      ascii;
    class       volVectorField;
    location    "200";
    object      ddtCorrDdt0(U);
}
// * * * * * * * * * * * * * * * * * * * * * * * * * * * * * * * * * * * * * //

dimensions      [0 1 -2 0 0 0 0];


internalField   nonuniform List<vector> 
13917
(
(-0.000188988 -0.000725661 3.07864e-19)
(-0.000103827 -0.000220426 6.35631e-18)
(0.00983654 0.00151994 -6.74068e-19)
(-0.000426562 -0.000224121 2.88184e-19)
(-7.93611e-06 -2.34315e-05 -6.81392e-18)
(-4.91785e-06 0.000564344 6.6782e-18)
(0.01101 0.0015894 2.59407e-19)
(0.00953937 0.000837216 -4.68966e-20)
(0.0124328 4.8036e-05 1.0463e-20)
(-0.000176346 -0.00094674 -5.31929e-18)
(-0.00100062 8.68706e-05 3.28616e-18)
(-0.000645473 -0.000106903 1.15549e-18)
(-0.000431539 -0.000227074 -4.09186e-19)
(0.00977868 0.000446612 -2.20363e-20)
(-7.73578e-06 -0.000301478 -9.9731e-18)
(-3.97087e-05 -0.00032707 2.91552e-18)
(-8.89304e-05 -0.000229269 2.10685e-18)
(-0.000761648 -0.00055918 -3.17623e-19)
(-0.000637306 -0.000113981 -9.90747e-19)
(4.40294e-07 -2.47002e-06 2.97417e-18)
(9.85136e-08 4.00187e-06 6.75413e-18)
(0.011165 0.00159684 -1.08253e-19)
(-1.25335e-06 -9.42773e-06 2.36774e-18)
(0.00719129 0.00095812 7.32407e-20)
(-1.70361e-05 -6.49487e-05 9.06166e-18)
(0.0101405 0.00129598 -1.07583e-18)
(-7.7868e-05 -3.55599e-05 -3.61219e-17)
(7.68864e-05 -9.49207e-06 1.33196e-17)
(0.000962267 -0.000101356 1.50618e-17)
(-0.000631519 -0.00113192 -3.14392e-18)
(-0.000279823 -0.000740501 4.09287e-20)
(-0.000190653 -0.000492429 2.15481e-18)
(-1.63439e-05 -0.000116812 -1.64125e-17)
(-0.000108076 -0.000197782 3.42061e-18)
(-1.84622e-05 -7.06822e-05 2.69381e-18)
(-0.000946353 0.000442444 -5.18768e-19)
(-8.30529e-07 -7.55424e-06 3.76767e-18)
(0.0111595 0.000350706 -1.53639e-19)
(-0.000470248 -0.000238084 5.27233e-21)
(0.0074307 0.000251476 3.63469e-18)
(-1.48179e-05 -2.61019e-06 -1.06051e-19)
(-3.94129e-07 2.82205e-06 1.19428e-18)
(-0.000113439 -4.70292e-05 3.11254e-18)
(0.00021446 6.08709e-05 -7.53242e-19)
(-0.000192621 -0.000211538 -5.85367e-19)
(-9.65398e-05 -0.00017908 -1.36235e-17)
(-0.000755514 -0.000541184 5.76514e-19)
(-0.000909751 -0.000409811 -5.28232e-19)
(1.18135e-05 0.000833397 5.20793e-18)
(-5.84366e-07 -1.14088e-06 -8.19843e-19)
(-0.000480872 -0.000344165 2.86959e-19)
(-5.4644e-05 -0.000166241 -6.36627e-18)
(0.000102191 0.000822635 -3.63771e-18)
(-0.000109696 -0.000193017 1.83726e-17)
(-8.67901e-05 -0.000232105 -2.65131e-18)
(-0.000409753 -0.00042179 -9.17585e-20)
(-0.00100861 7.51503e-05 -1.91339e-18)
(-3.6854e-05 -0.000136185 7.04012e-18)
(-0.000327454 -0.000392961 2.03148e-20)
(-0.000184207 -0.000204476 7.15135e-19)
(0.0073418 -0.00114313 -2.54506e-17)
(-0.000108469 -0.000223667 -9.2797e-18)
(0.00651025 0.000288616 -4.0109e-19)
(8.65561e-08 -3.26777e-06 1.23699e-18)
(-1.93102e-05 0.000576637 -1.14957e-17)
(0.00231809 -0.00580398 4.82957e-17)
(-1.11016e-05 -3.48602e-05 -3.25324e-18)
(-2.73968e-05 -8.74159e-05 -4.09705e-18)
(-0.00122157 -0.000323954 2.17922e-19)
(-8.44353e-05 -0.000614469 5.26204e-18)
(-6.49868e-06 -2.12748e-05 4.25168e-18)
(0.0103959 0.000105518 -1.09277e-18)
(0.00938466 0.000337482 6.83001e-19)
(-1.54662e-05 -6.07171e-05 -5.72634e-18)
(9.97154e-05 0.000868659 7.25163e-17)
(-0.000574121 -0.000107416 -4.26382e-18)
(0.00910543 0.000331249 -8.03866e-19)
(-0.000275787 -0.000277824 -4.4909e-19)
(0.0095582 0.000954403 2.68527e-18)
(2.90197e-07 4.60693e-06 -1.8838e-18)
(4.7164e-07 3.72629e-06 -5.03659e-18)
(-9.86656e-06 -3.06225e-05 2.58844e-18)
(8.90424e-05 0.000561258 2.66186e-17)
(0.0114594 0.000349386 3.25144e-19)
(0.00605805 0.000271709 -5.68761e-18)
(-0.000272585 -0.00026993 -3.5456e-20)
(6.13151e-07 1.45464e-06 -2.39991e-18)
(0.000762387 -0.00250309 -5.73365e-17)
(-0.000471893 -0.000339311 1.6527e-20)
(-0.000118395 -5.01673e-05 -2.65542e-18)
(0.0104137 0.000141945 -7.49546e-19)
(-0.000344533 -0.00110601 1.04896e-18)
(-0.000102948 -0.00014771 -3.93209e-18)
(-3.59443e-05 -0.000217696 -1.97329e-19)
(0.000475605 -0.000381572 4.5659e-17)
(-0.00011417 0.000574453 -2.28544e-17)
(-0.00105887 -0.000152362 8.66073e-19)
(-0.000868387 -0.000457596 -2.05849e-18)
(-0.00056207 4.08071e-05 7.47968e-19)
(8.4388e-05 0.000240435 2.48394e-17)
(-3.07869e-05 -3.12603e-05 -6.62949e-19)
(-0.00013261 -0.000123371 8.09045e-18)
(0.000194472 0.000115352 1.20048e-17)
(-0.000330886 -0.000282918 -3.4558e-19)
(-6.12148e-05 -7.53094e-05 -3.22312e-19)
(0.00920112 7.14329e-05 3.70066e-20)
(0.000749467 -0.000186678 2.0213e-17)
(-0.000932491 -0.000413965 -3.11009e-18)
(-9.48226e-05 -0.000235109 -1.82462e-18)
(-0.000223725 -0.000770642 -2.67169e-19)
(0.00806632 -0.00100124 2.5609e-19)
(0.00767965 0.000271057 -2.83987e-18)
(-0.000647061 -4.66557e-05 -2.08944e-19)
(0.0105102 0.000129796 -1.0038e-19)
(-7.36369e-05 -0.000192918 9.0064e-18)
(-0.000104031 0.000958527 5.07637e-18)
(-1.02828e-05 -4.17604e-05 -8.03296e-18)
(1.2427e-05 0.000779446 5.96433e-17)
(0.00976854 0.000665843 2.11112e-18)
(-8.9639e-05 -0.00019262 -2.63774e-17)
(-1.38655e-07 3.0856e-06 2.19249e-18)
(-0.00120888 -0.000335218 6.72495e-19)
(0.0103137 0.000624967 1.59346e-21)
(6.40796e-05 -2.03768e-05 2.04429e-18)
(-3.59326e-06 -1.68107e-06 -9.31756e-19)
(-3.17704e-05 -0.000212268 -7.14265e-18)
(-0.000162999 -0.000205744 -2.59325e-18)
(-2.6125e-06 -9.53412e-07 -3.53381e-18)
(-8.64436e-05 -2.3788e-05 -4.83156e-19)
(-0.000110491 0.000665929 4.68811e-17)
(0.0106727 0.000884352 5.38977e-19)
(-7.19985e-05 -0.000190251 4.11569e-18)
(-0.000193433 -0.000216617 1.58925e-18)
(3.56777e-07 3.32464e-06 -3.35387e-18)
(-0.00130012 -0.000867763 2.54257e-18)
(0.00642246 0.00102914 -1.10255e-19)
(-0.000162426 -0.000698931 -2.86727e-19)
(8.86867e-05 0.000256259 3.84903e-17)
(-1.1348e-05 -3.6039e-05 2.19109e-18)
(-9.70601e-05 -0.000191068 6.06722e-18)
(-0.00118725 0.000339214 -1.27478e-19)
(-0.00011485 -0.000112529 1.18211e-18)
(-5.11328e-05 -0.000175392 -1.45981e-17)
(0.000231732 0.000151668 1.80076e-17)
(-2.73545e-05 -8.99713e-05 5.67786e-18)
(-8.81277e-05 -0.000854908 4.03545e-19)
(0.00085475 -0.000241638 -1.75772e-17)
(-5.17738e-05 -0.000161322 2.20062e-18)
(-0.000107841 -9.86953e-05 -1.4756e-18)
(-0.000158068 -0.000499025 -2.74602e-18)
(-0.000794602 -0.000268081 -3.97358e-18)
(-0.000113794 0.000983666 -1.27804e-17)
(-0.000845331 -8.42556e-05 4.86763e-20)
(8.32454e-05 -0.000558127 2.85985e-18)
(-0.000309318 -0.000470974 7.16144e-20)
(0.00476399 -0.000210475 -9.91358e-17)
(-8.24004e-05 -0.000589432 -4.06362e-18)
(-0.000700417 1.65097e-05 2.7187e-19)
(0.00877098 0.000396882 1.59976e-19)
(-0.00136631 -0.000905294 -4.5779e-18)
(-4.30308e-05 -0.00020608 -1.63874e-18)
(-0.000182408 -3.04391e-05 -8.47872e-18)
(1.56888e-07 4.39616e-06 2.76442e-18)
(-0.00103498 -0.000146799 -8.02939e-20)
(-0.000656873 -5.10626e-05 1.05945e-19)
(-0.000576709 3.86653e-05 -1.46042e-18)
(-0.000326737 -0.000282704 3.08643e-19)
(-0.00084181 -0.000347027 -1.05488e-19)
(-0.000156373 -0.000172784 1.19704e-18)
(-0.000141716 -0.000116861 4.07425e-18)
(4.00612e-05 -0.000606699 -8.0193e-19)
(0.0025024 -0.000409755 -1.28869e-17)
(-0.000617183 -3.64109e-05 1.83933e-18)
(-8.64806e-05 -0.000262319 3.06729e-18)
(-0.00465252 -0.000716419 4.38906e-19)
(0.000147245 -0.000548224 1.68835e-18)
(0.0108238 0.000940922 3.98626e-19)
(1.08836e-06 0.000826483 -3.87916e-17)
(-0.00204571 -0.000938439 -2.78512e-19)
(-6.03639e-05 -0.000134519 -1.11072e-18)
(-0.000384658 -0.00112712 -2.54671e-18)
(-0.000299662 -0.000762155 4.126e-19)
(-0.000118807 -0.000113107 4.52692e-18)
(3.94349e-07 9.51191e-07 3.17525e-18)
(3.70991e-05 -0.000277978 -8.62484e-18)
(0.0096322 0.00134824 1.27385e-18)
(-0.000398901 -0.0016867 -1.59855e-17)
(0.00705864 -0.000169419 8.32633e-17)
(-0.000550181 -0.000546312 -5.65611e-19)
(-0.000685906 6.61426e-05 2.11778e-18)
(-0.00152666 0.000133234 2.44875e-19)
(0.00787798 0.000269145 -1.41883e-17)
(-0.000106382 -0.00163025 1.43138e-18)
(-2.62254e-06 -1.06803e-05 4.03341e-18)
(-2.20012e-05 0.000329507 1.10561e-17)
(-7.22018e-05 -5.24615e-05 2.29368e-17)
(-1.5121e-05 -1.18711e-06 7.83785e-19)
(-0.00010461 -0.000152313 2.43159e-19)
(0.000630367 -0.000261909 9.04609e-18)
(-0.000665665 -0.00409565 -1.27663e-17)
(-0.00048213 -0.000271949 -2.03012e-19)
(-2.56069e-07 -8.23701e-07 -1.10274e-18)
(-0.000802806 -0.00032101 7.62102e-19)
(-0.000782877 -0.00026264 3.80203e-18)
(0.00885864 0.000328551 -1.78261e-18)
(-0.00140171 -0.000505466 -1.24463e-18)
(-1.77642e-05 -6.66317e-05 -7.96593e-18)
(-3.79285e-05 -0.00014194 -7.78114e-18)
(-0.000860549 -0.0004402 2.4141e-18)
(0.00961832 0.00167042 4.0985e-19)
(-4.74494e-05 -0.000173945 1.13839e-17)
(0.0112453 0.00157549 -1.67306e-19)
(0.00806081 0.000368103 -8.6931e-19)
(-0.000701993 6.36572e-05 -2.05983e-18)
(-5.91347e-05 -7.52606e-05 -2.31751e-18)
(0.000573721 0.000556738 -1.38405e-16)
(-0.000813254 -0.000415776 1.05237e-19)
(0.00674717 -1.2113e-05 7.33332e-18)
(-1.97118e-05 -6.98886e-05 2.86237e-19)
(0.00280119 -0.00217635 6.01957e-18)
(-5.71877e-05 -0.000128377 7.55595e-19)
(-0.000751278 -0.000993966 -5.37632e-18)
(-1.48913e-05 -3.38471e-06 -1.26949e-18)
(0.0112178 0.000334419 -1.37239e-19)
(0.00962632 0.00023839 1.29714e-18)
(-3.77455e-05 -0.000338421 6.78069e-18)
(0.00140048 -0.000862424 2.56755e-17)
(-0.000324206 -0.000478196 1.55603e-18)
(-5.49343e-05 -7.0936e-05 -1.52045e-18)
(-0.00105587 0.000419028 -9.12514e-19)
(-0.000608341 -4.90539e-05 2.43513e-19)
(-0.000552758 -0.00053204 2.10824e-19)
(0.00650357 0.00123876 7.01336e-19)
(0.00766651 0.000392519 1.21372e-18)
(-3.6307e-05 -1.80959e-05 4.45852e-19)
(-0.000198757 -0.000506512 -1.72825e-18)
(0.0110125 0.000130329 -4.47868e-19)
(0.00287438 0.000488305 -1.45623e-17)
(2.36577e-07 4.57122e-06 -1.44589e-18)
(-1.1201e-05 -2.85745e-05 -5.244e-18)
(0.00756253 0.000314328 -2.91527e-18)
(-0.0011104 -0.000180605 -7.24562e-19)
(1.19875e-07 3.5445e-07 6.48096e-19)
(-0.000950256 0.000352033 -8.58714e-19)
(-0.000985963 -0.000668218 2.00353e-18)
(-0.000202639 -4.97059e-05 1.15432e-17)
(-0.000238042 -0.000650568 4.77965e-20)
(4.12918e-07 4.42683e-06 -1.02368e-18)
(0.000178366 -0.000457645 -2.38996e-19)
(0.00820493 0.000336602 -2.48693e-18)
(-0.000274617 -0.0001684 -1.52762e-18)
(-0.000308549 -0.0012481 4.27563e-18)
(0.000138829 0.000307851 -3.84914e-17)
(-0.000161933 -0.000200137 2.90735e-18)
(-3.40954e-05 -0.000129355 -1.77645e-18)
(-0.000776478 -0.000129876 3.07333e-19)
(0.00783345 0.000356091 7.60558e-19)
(-0.000832002 -9.61911e-05 8.39144e-19)
(4.37978e-05 -0.000288159 -9.44304e-18)
(-8.88815e-06 -0.000310992 1.12488e-17)
(1.06394e-07 6.38822e-07 6.95063e-19)
(0.010163 0.000613596 1.36312e-18)
(-0.00188042 -6.66137e-06 -8.08391e-20)
(-0.000711324 0.000332064 -1.42229e-18)
(-5.26766e-05 -7.13935e-05 1.94857e-18)
(0.00895502 0.000479354 8.98549e-19)
(0.00996767 0.000403508 -3.99721e-19)
(-0.000916307 2.7116e-05 2.87044e-20)
(0.00963791 0.000939693 -2.37001e-18)
(-0.000569397 -9.97184e-05 1.14593e-18)
(2.84141e-07 4.013e-06 -6.51256e-19)
(-6.99778e-06 -2.29495e-06 -2.58063e-18)
(-0.000771177 -0.000513487 -1.08693e-18)
(0.0104316 0.000340665 -5.34938e-19)
(-0.00109929 -0.000459039 -3.80618e-18)
(-0.000324947 -0.000381711 -9.72741e-19)
(-0.00125659 -0.000482043 -4.49501e-19)
(-0.000562764 -0.00019132 -1.01377e-18)
(-8.76524e-05 -1.71934e-05 -1.28052e-18)
(-0.00381017 -0.00258697 -2.65626e-18)
(1.4833e-07 -3.35278e-06 -4.74237e-20)
(-0.0035788 -0.000522549 3.096e-19)
(-0.000473571 -0.000269023 -9.2765e-20)
(2.15227e-07 3.41857e-07 -5.50627e-19)
(-2.42432e-05 -0.000379277 3.91945e-18)
(9.92114e-05 -0.000547141 3.29603e-18)
(-0.000162136 -3.47129e-05 -2.7092e-17)
(-0.000994171 0.000381749 -1.89158e-19)
(3.61839e-05 -0.000438008 -2.07025e-18)
(-0.000258581 -0.000192058 -1.38507e-18)
(-0.00164985 -0.00113013 6.95333e-19)
(0.0056996 0.00109403 1.2274e-18)
(0.0028334 0.000468598 3.45501e-18)
(-1.87154e-05 -6.53582e-05 2.29012e-18)
(-0.00122765 -0.000283005 -4.69671e-19)
(-3.41894e-06 -9.70024e-06 -2.70645e-18)
(-0.000262839 -0.000189979 2.07736e-18)
(-8.97062e-06 -3.74166e-05 9.03955e-18)
(0.000962298 -0.000436829 2.35504e-17)
(1.02108e-06 -1.35406e-07 1.32301e-19)
(-0.000768837 -0.00102478 -3.41404e-18)
(-0.00022432 -0.00063456 3.15652e-20)
(-0.00015498 -0.000167501 2.28527e-18)
(-0.000809511 -0.000310303 -7.52095e-19)
(-0.000164724 -0.000322888 -8.06838e-20)
(0.000113879 0.000695767 -1.02305e-16)
(0.000131539 -0.000547189 4.79517e-18)
(-0.000349093 -0.00106539 -1.42801e-18)
(-0.000153427 -0.000141798 4.11475e-19)
(-3.23556e-05 -0.000123561 4.81645e-18)
(0.00692055 -0.000992894 -6.85735e-18)
(0.0104561 0.000577806 -2.52989e-19)
(-1.13161e-05 -4.56001e-05 -1.04791e-18)
(-1.02215e-05 -2.89743e-06 4.30117e-18)
(-0.00323369 -0.00270245 9.10402e-18)
(-7.05341e-05 -0.000135111 -1.56948e-18)
(0.00982396 0.000328595 8.78131e-19)
(-0.000146746 -0.000137084 1.46864e-18)
(0.0114592 0.000374215 9.24445e-20)
(-0.000361702 -0.000194197 9.85069e-19)
(0.000404242 -0.00123811 -6.80658e-19)
(-0.000601864 -0.000350757 -3.10854e-18)
(9.87611e-05 0.000952661 -2.76225e-18)
(-4.17676e-05 -0.000206214 -3.79727e-18)
(-0.0017819 -0.00107383 1.89972e-18)
(0.000360886 0.000423774 5.09786e-17)
(-3.29609e-05 -0.000382132 -5.8369e-19)
(-0.00111418 -0.000201223 3.18818e-19)
(0.000727724 -0.000256453 3.78421e-18)
(-5.05687e-05 -0.000197183 7.80429e-18)
(0.0111184 0.000665632 -5.94207e-19)
(-7.27203e-05 0.000326808 3.27183e-17)
(0.0101583 0.000418149 2.82534e-19)
(-7.57455e-05 -0.000197921 -1.28721e-18)
(0.00845692 0.000396729 3.51328e-18)
(-0.000224126 -0.000522352 2.8128e-18)
(0.00985061 -0.000459234 1.48558e-17)
(0.000338356 0.000400611 3.32825e-18)
(0.000516672 -0.000340077 -1.74921e-17)
(0.000500621 -0.0003822 2.48049e-17)
(0.0111063 0.00159696 4.37545e-20)
(3.29625e-08 3.64886e-06 8.80001e-18)
(4.25072e-05 -0.000632318 6.89407e-19)
(0.00917284 -0.00120497 -3.8173e-21)
(-3.72823e-05 -0.000153936 -2.73142e-18)
(-6.26785e-05 -0.000294109 3.96863e-18)
(0.010187 0.000440408 1.29552e-20)
(0.000699655 -0.000234387 -1.23092e-17)
(-9.85671e-05 -0.000257595 7.44903e-19)
(-0.00141197 0.000123403 2.1504e-19)
(0.000933781 5.31817e-05 8.2646e-18)
(-2.03345e-05 -2.28986e-05 1.12996e-18)
(0.0095181 0.000641454 -8.8742e-19)
(-0.00129423 0.000326589 7.93324e-19)
(-2.25982e-08 -4.15589e-06 -1.00662e-18)
(-2.68456e-05 -5.65925e-05 -4.18171e-18)
(-3.58079e-06 -8.22085e-06 2.16275e-18)
(-0.000111301 -9.94302e-05 -2.55278e-19)
(-0.00155933 -0.00106689 4.5062e-18)
(-0.00321681 -0.00101684 -8.2916e-20)
(-0.000474431 0.000778297 1.90911e-17)
(0.00806365 -0.00114529 5.69219e-18)
(-1.30207e-05 -5.19287e-05 2.4852e-18)
(-0.000315531 -0.00129023 5.5993e-18)
(-9.79321e-05 0.000287765 -1.15434e-17)
(-0.00070114 -0.000335289 -1.98105e-19)
(0.0114146 0.00158195 -4.28274e-19)
(0.0108847 0.000332435 2.36276e-19)
(0.0111367 0.000343439 -1.48908e-19)
(-4.37512e-05 -3.48943e-05 -4.33996e-19)
(-0.000728827 0.000311004 1.50142e-18)
(-3.17541e-05 -5.88585e-05 -7.13079e-18)
(-0.000124344 -0.00252189 -4.83331e-18)
(-0.000178223 -0.000203109 -9.60786e-19)
(-2.87087e-05 0.00097733 5.20158e-17)
(-0.000991249 -0.000691336 -3.1291e-19)
(-0.00044786 -0.000241119 -2.3257e-22)
(6.23401e-08 1.77302e-06 -2.70351e-18)
(-0.000841832 -0.000434158 1.72634e-18)
(-0.000388335 -0.00116784 -1.30537e-18)
(-0.000906801 -0.000567007 1.11025e-18)
(0.000977158 0.000605354 -9.81534e-18)
(0.00746468 -0.000536883 6.26576e-18)
(0.00650664 0.000288215 -1.54054e-18)
(0.000196271 -0.000474946 -8.78692e-18)
(-0.000177001 -0.000916977 4.32968e-18)
(-9.57444e-06 -2.58867e-05 3.65761e-18)
(0.00382135 0.000620425 8.9117e-18)
(0.0108228 0.0014698 7.87962e-19)
(-4.44421e-05 -0.000153984 -1.10583e-17)
(-0.00188999 -0.00108959 -1.43925e-18)
(-1.20477e-05 -4.31695e-05 -4.43872e-20)
(-0.00130242 -0.000618878 -1.7681e-18)
(-0.000357895 -0.00019371 -1.0186e-18)
(7.87067e-08 4.35232e-06 2.63544e-19)
(-0.000145106 -0.000320256 -5.27243e-18)
(0.00901788 0.000859248 -1.48836e-19)
(-0.000139718 -0.000316794 6.8673e-19)
(0.00803913 0.000425711 -1.57805e-18)
(0.00328284 0.00241574 1.06421e-16)
(-0.000880941 9.64494e-05 -1.56587e-18)
(0.000320846 0.000566849 3.97398e-17)
(-5.24138e-05 -0.000195756 2.79976e-18)
(0.000520703 0.000499545 1.06421e-16)
(0.000396423 0.000530194 -4.32683e-17)
(-4.14416e-06 -1.94569e-05 -1.26494e-19)
(0.000702568 -0.000214354 -8.25311e-18)
(-3.53746e-05 -0.000150712 -5.22426e-19)
(-1.4218e-05 -5.66143e-05 5.995e-18)
(-0.000598764 -0.00112895 -2.15808e-18)
(1.97352e-07 8.90748e-07 -1.112e-18)
(-1.76746e-05 -6.79265e-05 1.60167e-19)
(-3.26972e-05 -5.84059e-05 6.16962e-18)
(-0.00142108 -0.00106907 -1.10415e-19)
(-3.35424e-07 5.0508e-06 1.53774e-18)
(0.00880624 0.000437253 -1.74331e-18)
(0.00849394 0.00099743 -5.83159e-19)
(0.000983749 0.000894806 -2.04596e-17)
(-6.56873e-05 -0.00159476 2.0111e-18)
(0.00898557 0.000667656 2.29541e-19)
(0.00751762 0.000447404 4.65963e-18)
(-0.000691352 -0.000327944 -4.77877e-19)
(-1.12859e-05 -4.72762e-05 -3.33499e-18)
(-0.00119243 -0.000816352 1.05174e-18)
(-0.000464643 -0.00023709 -7.51036e-20)
(-0.000201811 -0.000534984 1.90671e-18)
(-1.99923e-06 -1.20318e-05 -1.82653e-18)
(-0.00134738 -0.000952772 3.18956e-18)
(0.0104457 0.00165929 -9.25128e-19)
(0.00772599 0.000957529 -8.85761e-19)
(-2.70194e-05 -0.000306456 -2.43974e-18)
(-0.00105168 -0.000634325 -4.04337e-18)
(-7.89639e-05 -0.000195518 3.91043e-18)
(-0.000476612 -0.000238677 -3.2812e-20)
(-0.000903094 -0.000551375 -2.75415e-18)
(-0.00010328 -0.000292886 9.23303e-18)
(-0.000619904 0.000291026 -2.78829e-18)
(-9.73821e-05 -0.00023264 3.37001e-18)
(9.05877e-07 -1.83333e-07 3.32214e-18)
(0.0105059 0.000356356 2.1841e-18)
(0.0106486 0.000904511 2.65775e-19)
(0.0107335 0.000958986 -9.49095e-19)
(7.2191e-05 -0.00116997 1.25082e-18)
(0.000490497 0.000891144 2.80573e-18)
(0.0113765 0.000707489 -2.35146e-21)
(0.0112528 0.000204438 2.11792e-18)
(0.00960294 0.000376671 -3.89615e-19)
(-7.70329e-05 -2.24195e-05 -3.11714e-20)
(-0.000818907 -0.000479908 5.50202e-19)
(-0.000108374 -0.000294873 -9.74644e-18)
(-3.71365e-05 -0.000147424 2.6949e-18)
(-0.00154026 -0.000543226 -1.52993e-18)
(-0.000775862 -0.000529139 6.80676e-19)
(-0.000116766 -5.40952e-06 -1.88773e-18)
(-0.000719753 -0.000753931 5.88552e-18)
(-0.000677387 -0.000354182 1.73932e-18)
(0.00966247 0.00036473 -4.51208e-19)
(-4.80118e-06 -2.26428e-05 2.33254e-18)
(-0.00107916 -0.000313861 2.36575e-18)
(0.00859185 0.00412228 -6.94427e-18)
(0.000197348 -0.00132642 -1.10519e-17)
(0.00925247 0.000586064 5.50763e-19)
(-1.8113e-07 4.19239e-06 -6.16716e-18)
(-4.39966e-05 -0.000155176 8.0587e-19)
(-2.63674e-05 -2.3977e-06 1.5385e-18)
(-6.28506e-05 -0.00058304 2.11189e-18)
(-4.3525e-05 -3.28712e-05 -3.05131e-18)
(0.00875893 0.0012451 1.26872e-20)
(-0.000438082 0.00067403 -6.10801e-18)
(2.59781e-05 -0.000436274 -1.00855e-17)
(0.00529806 0.00076481 -2.44147e-17)
(-0.000414038 -0.000412243 6.18666e-20)
(-0.00103424 -0.00012153 2.28289e-18)
(0.0126789 0.000235521 3.59906e-18)
(0.0008805 -0.0003131 -5.72542e-18)
(-0.000857263 8.94915e-05 1.05039e-18)
(-0.00123227 0.000351065 -4.41895e-19)
(-0.00108927 -0.000297748 -3.1445e-18)
(-0.000626144 -0.000809548 3.14453e-18)
(-0.00118609 -0.000677172 1.28268e-18)
(-0.000644711 -0.000211372 4.77097e-20)
(-0.000773959 0.000167362 -1.65032e-18)
(4.62723e-05 0.000634852 -2.43279e-17)
(-0.000627331 -0.000173543 2.57995e-20)
(-0.000965141 -0.000368814 -1.86534e-19)
(-5.27945e-05 -5.23157e-06 2.34238e-18)
(-0.00152788 -0.000673676 -3.86763e-18)
(-0.000488178 -0.000363187 -1.5903e-19)
(-0.000194385 -0.000111019 -1.70489e-18)
(-6.28236e-05 -0.000560028 -3.49417e-18)
(-0.000292587 -0.000281478 6.10719e-19)
(0.00968998 0.000363631 3.59126e-19)
(0.0101843 8.15472e-05 -1.97819e-19)
(-6.58272e-05 -0.00012869 1.26171e-19)
(-8.67881e-05 -1.37153e-05 5.11655e-19)
(0.00831059 0.00161634 -3.96611e-19)
(0.00710153 0.000509905 -1.62095e-18)
(1.88309e-07 6.84044e-07 -2.68051e-19)
(0.00904554 0.000461189 6.71734e-20)
(-0.000358796 -0.000234202 4.24811e-19)
(-0.000201043 -0.00151708 -1.08979e-17)
(-6.61476e-05 -0.00013586 2.73899e-18)
(0.00850652 0.000442525 -8.20049e-19)
(-0.00109887 -0.000467756 2.97775e-18)
(-0.000171601 -0.000500015 3.93587e-18)
(-0.000172657 -0.000251081 2.20028e-18)
(0.00920122 0.000739367 1.09154e-18)
(-0.000412147 -0.00162564 9.23032e-18)
(-0.000131567 0.000208159 -1.45466e-17)
(1.2491e-07 8.39889e-07 2.79198e-18)
(0.00821887 0.000346648 2.13482e-18)
(-3.10372e-05 0.000807748 1.33274e-16)
(-0.00283343 -0.00329161 1.59116e-17)
(-0.000191889 -0.000112927 1.07049e-18)
(0.0040275 0.000316168 -8.6976e-18)
(0.0120267 0.000813608 2.06486e-18)
(-0.000700456 -0.000310093 -1.31979e-18)
(-2.96591e-05 -5.8708e-05 1.97213e-18)
(-7.45311e-05 -0.000221504 -1.04134e-18)
(-0.000559207 -0.00012001 3.18979e-18)
(-0.00140243 -0.0006201 -1.71857e-18)
(-0.000123159 -7.11681e-06 4.78859e-19)
(-2.44598e-05 -5.17101e-05 -2.55208e-18)
(-4.20954e-06 -6.07916e-06 3.70217e-18)
(-5.07418e-06 -6.88409e-06 -1.91767e-19)
(0.0085148 0.000450707 5.53202e-19)
(-0.00155347 -0.000574787 7.63209e-19)
(-0.000692598 -0.000314002 1.97842e-18)
(-0.000517733 -0.00166721 9.13663e-18)
(-6.67039e-06 -1.6054e-06 1.35007e-18)
(-2.86591e-05 -2.87848e-05 -1.13239e-18)
(-0.00103916 -0.000612687 1.04613e-18)
(0.0151829 0.000796381 5.88114e-19)
(-0.0004673 -0.000544286 4.76571e-19)
(-0.00016299 -0.000178474 -1.54474e-18)
(-1.44718e-05 -5.7592e-05 -1.70565e-18)
(-1.74462e-05 -5.54629e-05 7.85909e-18)
(-0.00349799 -0.00344634 -1.20659e-17)
(0.00946209 0.000176728 1.83686e-17)
(7.47983e-07 1.38515e-06 3.75442e-18)
(-1.55032e-05 -5.04582e-05 -2.64123e-18)
(-0.000712473 0.000278444 2.52351e-18)
(-0.00064561 -0.000218803 -5.89401e-19)
(-0.000601103 -0.000342606 -1.72028e-19)
(-4.05762e-05 -0.000148872 6.63332e-18)
(-0.00012963 -0.000318791 -4.0285e-18)
(-0.000133276 -0.000455486 -7.0936e-19)
(-0.000955058 -0.000353834 3.64167e-18)
(0.000718976 -0.000286911 -2.3286e-18)
(-0.000442111 -0.00170555 6.22987e-18)
(-0.00121334 -0.000791725 1.21927e-18)
(-0.00103578 -0.000497562 -1.52211e-18)
(-0.00130345 -0.000488089 7.63321e-19)
(-0.000385932 -0.00105272 2.07972e-18)
(-1.72587e-05 -6.18285e-05 -1.11206e-18)
(0.0083882 0.000330553 -6.73614e-19)
(-1.7238e-05 -5.41665e-05 -6.48369e-18)
(-6.20719e-05 -0.000303786 -2.78917e-18)
(-0.000431139 -0.000252215 -8.40551e-20)
(-0.00153581 -0.000649339 5.95292e-18)
(0.000380479 -0.000530611 8.92082e-19)
(-2.40839e-05 -5.97205e-06 1.08005e-18)
(0.000276863 -0.00127905 1.76546e-17)
(-0.000749592 -0.00116727 -1.72124e-18)
(0.00728809 0.00239884 -9.09587e-18)
(-0.00103334 -0.000513726 3.20949e-19)
(7.96123e-05 -0.000227857 -2.62986e-17)
(-0.000693331 -0.000357292 -1.26201e-19)
(-3.64428e-07 6.64929e-07 1.65848e-18)
(0.00603001 0.000730153 -8.44042e-18)
(0.000380648 -0.00122374 -6.641e-18)
(0.0125535 0.000957062 1.53717e-18)
(-9.43542e-05 -0.000222757 -2.57586e-18)
(-0.000455041 -0.000470654 3.80722e-19)
(-0.000544842 -0.00168252 -9.26859e-18)
(0.011115 0.000326608 6.12325e-20)
(0.00548786 0.00024433 -7.69628e-19)
(-0.000888367 -0.000462655 7.9078e-19)
(8.7969e-05 -0.00120658 1.16837e-18)
(-3.5446e-05 -0.000317946 -8.39742e-18)
(-0.000238674 -0.000379113 5.49381e-19)
(-4.12736e-05 -0.000151625 3.07711e-18)
(0.000260411 -0.000277451 -1.23736e-17)
(0.000180867 0.000127237 -3.83315e-17)
(-5.43336e-05 -0.000156706 4.11236e-18)
(-0.000803986 -0.000400814 -1.05341e-18)
(0.000123509 0.000340244 -5.28238e-18)
(0.0126536 0.000941819 -1.01361e-18)
(4.82325e-05 0.000249861 1.63484e-17)
(-0.000131191 -0.000361089 3.11156e-19)
(-0.00101297 -0.000115984 -1.80702e-18)
(-0.00133887 -0.000441022 -5.06684e-18)
(-1.80617e-05 -0.000405923 2.12836e-18)
(-4.54039e-05 -0.000169548 -1.66114e-17)
(0.000435152 0.00131573 7.8957e-17)
(-0.000550368 -0.000210677 1.57247e-18)
(0.00374799 -0.000407276 2.28957e-19)
(-0.000664934 -0.00163106 -4.64207e-18)
(-8.40137e-05 -2.61578e-05 1.56724e-20)
(0.00979547 0.00063293 1.09083e-18)
(-0.000569165 -0.000115974 2.22442e-18)
(-2.24294e-05 -3.98335e-06 3.29336e-18)
(-0.00034617 -0.000566157 -3.1516e-20)
(-0.000905591 -0.000230969 2.64657e-19)
(-1.02387e-05 -0.000130886 1.29766e-17)
(-0.00065532 -0.00109988 -1.63283e-18)
(0.00967741 0.00102515 2.98565e-19)
(-0.00116918 -0.00066148 -1.76148e-18)
(-0.000613117 -0.000225759 9.60251e-19)
(0.00607693 0.000602495 -2.23016e-18)
(-0.00029146 -0.000306726 1.1922e-18)
(0.00932824 0.00040149 -4.64372e-19)
(1.10998e-07 4.77255e-06 -3.88085e-18)
(4.07878e-07 7.39567e-07 -1.73347e-18)
(-0.00155137 -0.000269392 1.72327e-19)
(0.000596 -9.51556e-05 -1.32739e-19)
(0.000257135 0.000637174 -8.2887e-17)
(-0.000297426 -0.000304349 -2.13841e-19)
(-8.83242e-05 -0.000255478 -4.7109e-18)
(-1.43658e-05 -4.71047e-05 3.90497e-19)
(-0.000567579 -0.000184464 -2.01819e-18)
(-0.000104689 0.000857105 -4.9242e-17)
(-0.000579652 2.30083e-05 -4.16474e-19)
(-0.000247818 -0.000388377 1.17925e-18)
(-0.000849632 6.59903e-05 -7.75842e-19)
(-0.000834376 -0.000417376 -9.22715e-19)
(-6.76205e-05 -0.000139644 1.26341e-19)
(0.0016475 -0.00117388 -4.70726e-18)
(-0.000567436 6.47676e-06 9.1204e-19)
(-0.00041096 0.000196582 1.54362e-18)
(-2.60232e-05 -7.92663e-05 6.47575e-18)
(-0.00115872 -0.00062158 3.26409e-18)
(-0.000284689 -0.000283074 6.92095e-19)
(0.00483138 0.00411093 -9.45807e-17)
(-0.000204544 -0.000965669 2.15113e-18)
(0.000364507 -0.000559093 -6.95263e-19)
(-0.000453948 -0.000482006 -4.6606e-19)
(-1.36522e-05 -1.12244e-05 -1.02702e-18)
(-0.000160688 -0.000107372 1.98703e-18)
(-0.000169554 -0.000212431 1.38578e-18)
(0.000525462 -0.000457416 7.11917e-19)
(-8.54702e-05 -0.000170477 1.3644e-17)
(-0.00122438 -0.00137876 7.73358e-18)
(0.00298092 0.000469517 -7.2211e-19)
(-0.000833901 -0.000361091 -1.38602e-18)
(-1.83033e-05 -2.13594e-05 8.2212e-20)
(-0.00116735 -0.000712262 -1.08557e-18)
(0.000246404 0.000619018 6.84148e-17)
(-0.000932887 0.000414323 -1.14214e-19)
(-0.000266781 -0.000165565 1.67588e-18)
(-6.32867e-05 -0.000186966 -9.92056e-19)
(-2.26776e-05 -4.92269e-05 -4.3658e-18)
(-0.000522967 -0.000241988 6.27862e-19)
(-0.000339708 -0.000400711 -1.00628e-19)
(0.012525 0.00071995 1.04875e-18)
(2.40684e-07 4.18357e-06 1.61573e-18)
(0.00131085 -0.00196728 -5.08565e-18)
(-0.000522025 -0.000247225 8.92482e-19)
(-0.000983819 0.000108141 2.19627e-18)
(-0.000268638 -0.0011032 6.37435e-19)
(0.00928984 0.000409798 2.40755e-18)
(0.000358283 -0.00062333 8.01529e-19)
(-7.27617e-05 -0.00021443 -5.48861e-18)
(0.0101422 0.000318081 -3.41807e-19)
(0.00676565 0.000588772 1.47538e-18)
(-5.65894e-05 -0.000165429 -4.33831e-18)
(-0.000429422 -0.000248723 1.21275e-19)
(-0.00105327 -0.000506398 -1.81682e-18)
(-0.000626212 -0.00158277 3.00884e-18)
(-0.00108649 -0.000444997 4.70552e-18)
(4.03993e-07 7.58913e-07 -1.04813e-18)
(-0.000178434 -0.000254924 -9.20244e-19)
(0.000398077 -0.00119636 6.76864e-18)
(-0.000455109 -0.000241612 5.30455e-21)
(-0.000889132 -0.000582744 -1.23629e-18)
(-0.000764085 -0.000142761 9.90454e-19)
(-0.0001663 -0.000110129 -2.68533e-18)
(-0.000775011 -0.0002404 3.57328e-19)
(0.00936952 0.00138825 1.03496e-18)
(-0.000273394 -0.000161494 -8.50398e-19)
(-0.000397249 -0.000215016 3.39022e-19)
(-2.94462e-06 -5.60545e-06 1.23475e-18)
(0.0103548 0.000519585 1.05244e-18)
(2.31221e-07 3.97698e-06 1.51939e-18)
(-3.07062e-05 -0.000299066 1.15195e-17)
(0.00242783 -0.000469187 -2.25945e-18)
(-5.06235e-05 -0.000273129 -4.82189e-18)
(-0.00156474 -0.000287185 -3.67207e-19)
(-0.000298778 -0.000476473 -1.83979e-18)
(-4.77667e-06 -0.000113406 3.28742e-18)
(-3.72935e-06 -6.46284e-06 -2.29657e-18)
(0.000176208 -0.00059009 1.95423e-18)
(-7.92808e-06 -3.37847e-05 -9.28623e-19)
(-0.00057955 -0.00082748 -1.15995e-18)
(-1.2367e-05 -6.46713e-06 -7.48699e-19)
(0.000284767 -0.000807536 1.19521e-18)
(-0.000354873 -0.000234587 3.08389e-19)
(0.00376809 0.0011058 -5.99129e-18)
(0.00175592 0.00060399 -5.34625e-17)
(0.0150518 0.00075405 1.45543e-18)
(-2.34545e-05 -2.1469e-06 -1.28436e-18)
(8.62017e-08 3.11453e-06 -3.32534e-18)
(-0.000388137 -0.00101383 1.63108e-18)
(-0.000308161 -0.00080844 2.15604e-18)
(0.0104957 0.000447295 -1.74116e-19)
(0.0140229 0.000683972 9.82058e-19)
(-0.000752596 -0.000576244 2.37669e-19)
(-1.59347e-05 -6.11202e-05 1.34779e-18)
(-0.00139475 -0.00101931 -4.09811e-18)
(0.000160022 0.000696527 7.01276e-17)
(-0.000495584 0.000189319 -4.03944e-18)
(-0.00122234 -0.00137336 -3.85306e-18)
(-0.000759598 -0.000479472 9.98038e-19)
(0.00932264 0.000985954 1.49781e-19)
(-0.000146081 -0.000680874 3.39616e-20)
(-0.000560187 -0.000199525 -9.98059e-19)
(-0.00111507 -0.000883976 -4.5239e-18)
(0.00061289 -0.000202689 6.26541e-17)
(-0.000734372 -0.000577821 2.0701e-20)
(0.000145109 0.000839361 -3.12806e-17)
(-0.000710632 -0.000605884 -1.51766e-18)
(-0.000413591 -0.00022948 9.9628e-20)
(-0.000924525 -0.00022833 -7.08276e-19)
(-3.65397e-05 -0.000396413 -4.12545e-18)
(-0.000212665 -0.000133448 -1.05347e-18)
(-0.000521159 -0.000243331 -3.31597e-19)
(-0.000247575 -0.000768384 4.91681e-19)
(-0.000149426 -0.000484748 -2.07242e-18)
(-8.70849e-06 -3.48598e-05 4.80046e-18)
(-8.58602e-06 -1.46553e-06 -2.32828e-18)
(-0.000836577 -0.000387097 7.74724e-19)
(-0.000368934 -0.00026607 -4.07422e-19)
(-0.000897667 -0.000602339 6.69491e-19)
(-1.43734e-05 -5.65669e-05 -2.57242e-18)
(-1.04523e-05 -3.78917e-05 -7.1386e-18)
(3.79437e-07 3.50976e-06 -5.44114e-19)
(-0.00011778 -0.000311856 6.29999e-18)
(-0.000153472 -6.07958e-05 1.04527e-18)
(-0.000171033 -0.000437872 2.77231e-18)
(-1.90597e-06 -5.0461e-06 2.9405e-18)
(0.00844725 0.000452187 4.38389e-19)
(-0.000620254 -0.000116275 -8.07196e-19)
(-0.000537811 0.000618961 9.80762e-18)
(-3.66415e-05 -3.07319e-05 3.29026e-18)
(1.28866e-07 3.82832e-06 4.80421e-18)