/*--------------------------------*- C++ -*----------------------------------*\
| =========                 |                                                 |
| \\      /  F ield         | OpenFOAM: The Open Source CFD Toolbox           |
|  \\    /   O peration     | Version:  v2012                                 |
|   \\  /    A nd           | Website:  www.openfoam.com                      |
|    \\/     M anipulation  |                                                 |
\*---------------------------------------------------------------------------*/
FoamFile
{
    version     2.0;
    format      ascii;
    class       volVectorField;
    location    "700";
    object      U;
}
// * * * * * * * * * * * * * * * * * * * * * * * * * * * * * * * * * * * * * //

dimensions      [0 1 -1 0 0 0 0];


internalField   nonuniform List<vector> 
13851
(
(1.26008 0.115666 1.51143e-20)
(1.09797 -0.0217324 -2.34253e-20)
(1.09561 -0.02028 1.58886e-20)
(-0.189534 0.0171023 1.0827e-19)
(1.00242 -0.000544696 0)
(1.11237 -0.0433207 -2.41319e-20)
(1.06955 0.0355249 6.37884e-21)
(1.0159 -0.000873562 0)
(-0.0116879 0.0577044 -3.63937e-20)
(0.99161 -0.0140723 0)
(1.2025 -0.146747 -6.39558e-20)
(1.00195 -0.0107517 2.65032e-21)
(0.982061 -0.0301059 1.14448e-20)
(-0.290953 0.0079325 3.3096e-20)
(1.14975 0.0375881 3.10948e-22)
(1.08644 0.173155 2.98122e-21)
(-0.329104 0.0135628 0)
(1.04612 -0.0202919 -1.3309e-22)
(1.23983 0.00608988 0)
(1.26098 0.109391 2.84087e-20)
(1.17249 0.0238235 -6.63929e-20)
(1.05295 -0.111978 -5.40959e-21)
(0.306635 -0.153498 -2.14676e-20)
(1.00009 -0.000246523 -1.28349e-21)
(0.61446 -0.0367938 -1.58358e-19)
(1.10553 0.121337 0)
(1.17448 0.246124 0)
(0.710282 0.0515175 3.86178e-20)
(0.289865 0.0943273 0)
(1.02617 -0.0135764 0)
(-0.130644 0.000882725 1.44618e-19)
(1.07026 0.0343655 1.21928e-20)
(1.24045 0.130229 1.05863e-19)
(0.0372465 0.0443486 0)
(1.16907 -0.116801 1.31669e-20)
(0.370569 0.103758 8.52047e-21)
(1.00005 -0.000221431 1.25126e-21)
(0.681902 -0.109719 4.06447e-20)
(-0.129839 -0.00118841 6.27926e-20)
(1.01249 -0.0486665 0)
(-0.101664 0.00994802 0)
(0.343917 0.107035 0)
(-0.219016 0.0183833 -1.14071e-19)
(1.06786 -0.515825 0)
(0.330946 0.113272 -2.66291e-22)
(1.02015 -0.0281853 2.82492e-21)
(1.0202 0.000710382 -6.67261e-21)
(1.12433 0.179802 1.81165e-20)
(1.06249 -0.0695226 -4.09919e-21)
(0.981605 -0.0290669 0)
(-0.397174 0.0048432 -1.47729e-19)
(0.974094 -0.0240306 -1.9036e-22)
(1.09052 0.172873 2.91354e-21)
(1.09483 0.0600406 -8.41243e-21)
(-0.198204 0.0109347 -3.51808e-20)
(1.01129 -0.0490799 1.71783e-21)
(1.24666 0.13053 -1.23076e-19)
(-0.129254 0.00552662 3.59313e-20)
(1.13179 0.248886 -1.12153e-20)
(-0.384805 0.00451354 7.6933e-20)
(1.00178 -0.0101259 0)
(1.19506 0.243474 -6.54548e-20)
(0.995584 -0.00664261 0)
(1.06303 -0.072365 1.71555e-20)
(0.854818 -0.47057 2.4065e-20)
(0.834816 -0.48911 8.5717e-21)
(-0.412588 0.0024338 -1.255e-19)
(0.688759 -0.137227 0)
(1.02939 -0.0489751 2.90807e-21)
(-0.166909 0.0133321 0)
(-0.18938 0.00569632 0)
(1.19302 0.027731 0)
(0.996557 -0.0358888 -1.86487e-21)
(-0.397754 0.00363837 -1.75257e-19)
(1.10953 0.0573847 0)
(1.03147 -0.0908262 0)
(-0.308088 0.00930245 0)
(1.02587 -0.00550681 -2.27878e-21)
(0.685728 -0.040302 1.12392e-19)
(1.00767 -0.0232278 -2.06912e-21)
(1.03097 -0.049636 0)
(1.32826 -0.182749 -1.0736e-19)
(1.16391 -0.118118 0)
(-0.301705 0.00753012 0)
(-0.374252 0.00419115 1.52249e-19)
(-0.150397 0.00262915 0)
(1.05682 -0.113623 1.11961e-20)
(0.0337752 0.0070028 4.07499e-21)
(0.992683 -0.01869 0)
(-0.127323 0.00257563 0)
(0.972745 -0.0233727 3.28894e-20)
(1.0724 0.0344708 2.80312e-20)
(-0.300688 0.00566311 2.22656e-19)
(-0.172988 0.00473026 0)
(-0.19521 -0.00223088 -1.5865e-19)
(1.05866 -0.477647 0)
(1.0144 -0.0308093 1.93765e-23)
(1.10582 0.180814 0)
(-0.414359 0.00155218 0)
(1.22946 -0.264657 0)
(1.1087 0.185178 -1.61117e-20)
(0.806775 -0.134447 1.06995e-19)
(0.806137 -0.167949 -3.74433e-20)
(0.992384 -0.0385744 0)
(1.02457 -0.0273235 -7.06821e-21)
(1.19663 -0.002607 0)
(1.02362 -0.0270986 2.03493e-21)
(-0.173902 0.00370801 0)
(1.073 0.0330854 -2.69359e-20)
(1.04481 -0.0197116 -8.72112e-21)
(1.03626 -0.156356 -9.80164e-22)
(1.02116 -0.0286177 -1.30028e-21)
(1.31139 -0.0771208 1.26558e-20)
(1.22584 -0.0778789 0)
(1.20866 0.157114 2.42359e-20)
(1.09413 0.0574276 1.38886e-20)
(1.01799 -0.00944796 -3.82253e-21)
(1.01661 -0.000999547 5.0572e-21)
(-0.201719 0.0186854 -1.65577e-20)
(-0.140891 0.0105118 0)
(1.09578 -0.408233 -1.57039e-20)
(1.03688 -0.0168654 -5.6872e-21)
(1.02348 -0.0502113 -2.5211e-23)
(-0.247774 0.0125038 0)
(1.34486 0.0474506 -2.69114e-20)
(0.607162 -0.215612 0)
(1.01495 -0.030374 1.86484e-22)
(1.15096 -0.195755 2.82979e-20)
(-0.103236 0.0244077 -5.25982e-20)
(1.17375 0.0473276 0)
(1.04883 -0.114219 -1.14722e-21)
(1.1319 -0.0843254 -1.51221e-20)
(0.832134 -0.143796 -8.5544e-20)
(0.0221289 0.0436545 4.11605e-20)
(1.20886 -0.144941 7.83295e-20)
(-0.19345 0.00013135 6.52761e-20)
(0.701989 -0.129913 -6.35149e-20)
(-0.162398 0.0035911 9.14646e-20)
(0.845998 -0.106472 2.57723e-20)
(1.16494 0.0551509 0)
(1.32362 -0.185519 1.38059e-19)
(0.97785 -0.0584938 -2.40649e-21)
(0.991993 -0.019031 1.84181e-21)
(0.73123 -0.325947 3.27031e-20)
(0.592081 -0.0184434 -8.62672e-20)
(1.01555 -0.0889461 -2.42696e-21)
(1.02546 -0.00502413 0)
(-0.165276 0.00444542 -8.18239e-20)
(0.0268516 0.0489391 9.30691e-21)
(1.15603 -0.19946 -1.82665e-20)
(1.11404 0.185064 -2.07695e-20)
(1.30703 -0.0799942 -4.25737e-20)
(1.23171 -0.0785334 -4.94323e-20)
(1.35702 0.00884782 0)
(0.973735 -0.0347891 -9.37506e-21)
(0.984113 -0.0176343 0)
(1.00178 -0.00833716 0)
(-0.154281 -0.00131749 -4.70701e-21)
(1.16047 0.0481029 -5.39166e-20)
(1.07864 0.0183973 -1.81169e-20)
(1.00017 -0.000575831 -3.72105e-22)
(0.320964 0.0970133 -1.36591e-21)
(1.19262 -0.00043794 0)
(1.12904 0.17905 0)
(-0.286808 0.00536196 0)
(0.115112 0.0826565 1.27267e-20)
(0.127807 0.0857074 0)
(-0.377166 0.00444468 1.80166e-19)
(1.0374 -0.150916 2.18302e-21)
(0.267696 0.0139424 0)
(1.00137 -0.00932057 -5.11712e-21)
(1.01784 -0.00895975 0)
(1.22072 -0.0166266 0)
(1.00126 -0.000499317 7.57202e-23)
(-0.173533 -0.00110072 1.28162e-19)
(1.18005 0.206128 0)
(1.1479 0.195574 1.1199e-20)
(1.01853 -0.00880554 0)
(1.10536 0.059798 -1.88915e-20)
(1.14305 0.191267 0)
(1.35012 0.0505794 0)
(1.07688 -0.498545 0)
(1.0443 -0.143333 2.35474e-21)
(1.16946 0.0482837 0)
(-0.246477 0.0144424 1.15962e-19)
(0.0411963 0.0515392 2.01304e-20)
(1.23839 0.137386 -3.03698e-20)
(0.888595 -0.0841003 0)
(0.978475 -0.0350695 -7.80137e-21)
(1.0248 -0.0197128 2.27588e-21)
(0.685641 -0.0222444 8.60053e-20)
(1.16182 0.0454367 4.40598e-21)
(-0.320094 0.00287556 0)
(1.11455 -0.0401945 0)
(1.0176 -0.0864657 0)
(1.09798 0.17709 2.35937e-20)
(1.23215 0.136379 1.09338e-21)
(1.05838 -0.00568588 -6.64285e-21)
(1.05498 -0.0308709 1.65747e-20)
(0.703511 -0.173576 0)
(1.31751 -0.196874 6.82143e-20)
(-0.184508 -0.00101426 0)
(-0.136075 0.00716871 7.42554e-20)
(1.14671 0.0393977 2.78179e-20)
(0.907974 -0.743146 -3.98629e-20)
(-0.214177 -0.000161242 7.10004e-20)
(0.93756 -0.0360301 -2.99525e-20)
(1.14829 0.0708768 0)
(-0.0248722 0.0560009 -3.6719e-20)
(1.10376 -0.0542383 -3.99008e-20)
(1.08017 0.169017 0)
(1.0226 -0.0492092 6.36398e-22)
(1.32331 -0.194548 -3.2641e-20)
(1.00016 -0.00259575 -1.76672e-21)
(1.17553 -0.108302 1.01023e-19)
(1.03582 -0.100082 -2.41587e-21)
(0.98286 -0.0276201 2.48778e-20)
(1.31683 0.122643 3.67943e-21)
(1.0592 -0.0184878 1.18277e-20)
(0.143478 -0.526162 5.85529e-20)
(1.01849 -0.00828642 -8.89731e-22)
(1.26822 0.10015 0)
(-0.333051 0.00525725 0)
(-0.184912 -0.00127035 0)
(0.900689 -0.0938754 -6.08515e-20)
(1.14757 0.0733222 6.44346e-22)
(1.00004 -0.00128779 -3.02065e-21)
(0.735211 -0.304779 0)
(1.00307 -0.0174619 7.6723e-22)
(1.1707 -0.109228 -8.44524e-20)
(-0.0873081 0.0033143 -3.97666e-20)
(0.894428 -0.0848479 -2.74598e-20)
(1.10366 -0.0511519 1.11565e-20)
(0.996253 -0.00408266 0)
(-0.1513 0.00737247 -1.35393e-19)
(1.02698 -0.0131772 0)
(0.672902 -0.348268 1.69726e-20)
(-0.149263 0.00485275 2.8688e-20)
(1.22343 -0.257837 0)
(1.00012 -0.000550371 4.23261e-22)
(1.29256 -0.399495 4.3576e-20)
(-0.36916 0.00214309 -3.57477e-20)
(0.379821 0.123745 5.25983e-21)
(1.08394 0.168819 -5.58633e-21)
(1.15219 -0.00657156 -1.51632e-21)
(0.693167 -0.355645 -4.18818e-20)
(1.29491 0.118684 -5.80659e-20)
(1.10399 0.0619758 0)
(1.06326 -0.460515 0)
(1.05801 -0.160352 -8.50589e-21)
(-0.099245 0.00381018 6.94568e-21)
(1.29541 0.0360372 8.97279e-21)
(1.01246 -0.000999693 3.08716e-21)
(1.11306 -0.0069116 -1.39289e-20)
(1.10106 0.181769 0)
(0.30773 0.0914005 0)
(0.220438 0.0162262 -6.22821e-21)
(1.02413 -0.0188802 0)
(0.583366 -0.21011 0)
(0.993665 -0.0194261 1.00041e-22)
(1.25298 0.161402 4.13265e-20)
(1.35321 0.0342521 -6.11952e-21)
(1.11592 -0.00592536 0)
(1.19454 0.00543052 6.67875e-21)
(1.30095 0.0328354 9.26021e-21)
(1.00263 -0.0327904 0)
(0.801623 -0.144237 8.57857e-20)
(1.13586 0.165469 -4.85031e-20)
(0.817978 0.0751854 0)
(0.998298 -0.0120431 -2.91564e-21)
(0.982651 -0.0265358 -2.57981e-20)
(0.895099 -0.0923075 1.70577e-20)
(0.0826963 0.0739363 1.53317e-20)
(-0.237723 0.0223955 -2.37213e-19)
(1.18044 0.0324146 3.75292e-20)
(1.03829 -0.017367 5.43321e-21)
(1.34544 0.059373 -2.30105e-19)
(1.35619 0.0217361 3.52439e-21)
(1.21214 0.139773 0)
(1.19107 0.00791973 -1.12012e-20)
(0.0470757 0.0661882 -4.42518e-24)
(-0.418166 0.00187147 -1.49378e-24)
(1.12111 -0.0192544 1.8778e-20)
(1.13957 0.0333022 5.87133e-20)
(0.654739 -0.119505 0)
(1.02701 -0.0258853 -5.77536e-21)
(1.0019 -0.00786005 0)
(1.21871 0.140325 1.59526e-20)
(1.17995 -0.160209 0)
(1.02869 -0.0131351 -6.77752e-21)
(1.00017 -0.00253996 0)
(1.00288 -0.0180239 0)
(1.0051 -0.000769917 -1.11e-21)
(1.14788 0.00907351 -2.61046e-20)
(1.002 -0.00842985 8.75181e-23)
(0.00119627 0.0602468 0)
(1.17645 0.0259803 -1.00052e-21)
(1.0177 -0.0408826 0)
(0.325337 0.0918213 -9.52897e-21)
(-0.264596 0.0120348 5.43409e-23)
(0.975735 -0.0295705 0)
(1.26836 0.106401 -3.4313e-20)
(-0.40909 0.00352813 -1.79906e-19)
(0.97675 -0.0612128 0)
(0.974258 -0.0290708 -4.62952e-21)
(1.18125 0.0242606 6.14335e-20)
(-0.332354 0.00381202 1.35359e-19)
(0.0279677 -0.00883143 7.08685e-20)
(1.22988 0.00403336 0)
(1.00269 -0.000720593 -2.68352e-22)
(0.294959 0.0167749 -1.11938e-20)
(1.00155 -0.00993862 2.77341e-21)
(1.23988 -0.000468789 -5.24875e-21)
(-0.387139 0.00315689 1.9308e-19)
(0.840055 0.0833168 1.60596e-19)
(1.07692 0.01752 2.61888e-20)
(0.771356 -0.156541 1.65484e-21)
(1.11599 -0.213836 -2.02743e-20)
(-0.15875 0.00186548 0)
(1.30361 -0.0908705 9.30908e-20)
(0.777124 -0.111857 4.32115e-20)
(-0.157804 -0.00143181 0)
(-0.199014 0.0174678 -1.73247e-21)
(0.737647 0.0496948 0)
(1.05684 -0.0317876 1.66888e-22)
(-0.265162 0.012118 -9.86241e-20)
(-0.0324977 -0.0071776 -3.06047e-25)
(0.445199 -0.453656 -3.93452e-21)
(0.479807 -0.461353 0)
(0.936036 -0.0373743 5.00704e-20)
(1.22969 -0.010967 7.13807e-20)
(0.949039 -0.138637 -1.38378e-20)
(0.0488366 0.0100163 -4.75887e-21)
(0.780761 -0.159564 0)
(1.00986 -0.00235321 7.2538e-22)
(1.02045 0.000729874 0)
(1.0919 -0.101425 2.67472e-20)
(-0.178594 0.00150027 0)
(0.195832 -0.533956 -5.09554e-20)
(1.02693 -0.0248461 -1.32903e-21)
(-0.200375 -0.000966243 0)
(0.937528 -0.135498 0)
(1.13235 -0.08854 0)
(1.07877 0.0199892 0)
(-0.349641 0.00275529 -1.70077e-19)
(1.34687 0.0633533 2.13118e-19)
(1.0931 0.177577 -2.66353e-20)
(1.0331 -0.0973846 -5.51329e-21)
(1.10008 -0.049887 4.30677e-22)
(0.497955 0.110192 0)
(0.978447 -0.0368768 0)
(1.34576 0.0158027 -3.86437e-21)
(1.11893 -0.0172617 1.13316e-20)
(1.18304 0.0212186 -2.1515e-20)
(0.931262 -0.137823 0)
(0.992996 -0.0196208 0)
(1.01858 -0.0402886 -3.35078e-22)
(1.27987 -0.161511 0)
(1.23805 -0.26288 2.79278e-21)
(1.29325 0.047176 4.57707e-21)
(0.943278 -0.173247 1.13297e-19)
(0.507381 0.114667 0)
(1.01704 -0.0906588 2.5261e-21)
(-0.166599 0.00569118 6.17183e-20)
(1.2909 0.16634 0)
(1.03389 -0.00660152 -8.22579e-21)
(0.805824 0.0851848 -1.09262e-19)
(1.23934 0.078252 0)
(-0.393115 0.00178517 -8.85348e-20)
(1.08959 -0.0980578 0)
(1.09003 0.124651 -1.61272e-20)
(1.13396 0.24273 1.12383e-20)
(0.715088 -0.0821716 0)
(1.27214 -0.169615 1.50381e-19)
(0.0166093 0.0126818 7.71213e-21)
(1.06236 -0.0461831 0)
(1.13348 0.19776 1.06403e-20)
(-0.309433 0.0177644 0)
(1.14257 -0.0255254 0)
(-0.0745458 0.0127543 -2.24648e-20)
(1.15325 -0.0299233 2.80586e-20)
(-0.119257 0.00324006 2.76371e-20)
(1.138 0.0311339 -2.73528e-20)
(1.09154 0.0843178 2.23549e-20)
(1.29986 0.0205468 -1.0989e-19)
(1.2662 -0.248966 -6.58067e-20)
(0.984293 -0.0186251 -3.16904e-22)
(1.11689 -0.0273761 1.48657e-20)
(1.18372 -0.164749 0)
(1.10833 0.0597921 2.17433e-20)
(1.01836 -0.0311245 0)
(1.18067 0.036393 1.29989e-20)
(0.276687 0.0702705 0)
(0.997399 -0.0357134 6.88731e-21)
(1.15171 0.0682906 0)
(-0.210033 0.0185704 -2.53411e-20)
(1.09043 -0.0461681 1.71291e-20)
(1.15361 -0.502204 1.02398e-20)
(1.11447 0.0869563 0)
(0.0557761 -0.00993072 6.53551e-20)
(1.10711 -0.0564264 2.85307e-20)
(1.10556 0.117999 0)
(0.878861 -0.711375 5.23584e-20)
(1.34066 0.0395579 -6.90272e-21)
(1.19549 -0.0121257 2.34761e-20)
(0.192047 0.00718753 3.92708e-21)
(-0.395798 0.00218606 -4.98253e-21)
(1.27435 -0.403948 -9.78116e-21)
(1.00177 -0.0329524 -4.64975e-21)
(1.2782 -0.156215 9.94829e-21)
(1.15399 -0.0408443 7.81133e-21)
(1.09339 0.123756 1.71826e-20)
(1.03535 -0.0195028 -9.49337e-21)
(-0.23044 0.0178944 -2.01278e-22)
(0.214449 0.0470312 4.98521e-20)
(0.665864 -0.0588294 0)
(1.09958 -0.0469734 0)
(1.30292 0.0245837 1.40338e-19)
(1.21071 0.235764 0)
(-0.227916 0.0210068 1.86374e-19)
(1.02788 -0.00049768 0)
(-0.294715 0.0160455 1.11093e-19)
(1.28275 -0.24004 1.31757e-20)
(0.146069 -0.0830576 1.00592e-19)
(1.06267 -0.164052 1.31139e-20)
(0.656382 0.0165783 -3.67062e-20)
(0.988804 -0.0257822 -2.58563e-21)
(1.00147 -0.000427996 1.42558e-22)
(-0.210533 0.00564357 8.94634e-20)
(1.21181 0.230384 -4.9643e-20)
(0.990954 -0.0149237 0)
(1.09781 -0.0240515 -1.43002e-20)
(1.15562 0.0685812 0)
(1.01597 -0.0104245 0)
(0.275837 0.052322 -4.99276e-20)
(1.23169 -0.00633544 -1.20137e-19)
(1.23825 0.0744747 -2.36072e-20)
(1.1024 0.017658 0)
(1.0632 -0.0445238 0)
(0.972106 -0.0179022 -2.58927e-22)
(0.784174 -0.0961567 0)
(1.01621 -0.0400769 0)
(0.973109 -0.0166378 -1.05338e-20)
(0.850957 0.212202 0)
(0.305137 0.069558 2.07653e-20)
(1.04516 -0.111098 -7.93318e-21)
(1.13307 0.233226 1.16141e-20)
(0.995754 -0.00594048 0)
(1.0021 -0.00794396 8.10773e-23)
(1.09362 -0.0474602 -3.38553e-20)
(1.29834 0.0441604 -2.06105e-20)
(1.10599 0.0887193 -3.21485e-20)
(1.01839 -0.0330017 1.81781e-21)
(1.07526 -0.0333256 2.17424e-20)
(1.09888 -0.397838 3.19795e-20)
(1.08525 -0.0131787 -1.27764e-20)
(0.077537 -0.0134632 7.10746e-20)
(1.00209 -0.00996404 3.31312e-21)
(1.09913 0.0383609 -1.29069e-20)
(0.333097 0.1138 6.1343e-21)
(0.937815 -0.18443 -2.93577e-20)
(1.02084 -0.000173907 1.78627e-21)
(1.00084 -0.00869898 0)
(1.10206 0.0158066 -1.27208e-20)
(1.06209 -0.00343513 3.66752e-22)
(1.24059 -0.444113 -7.49448e-20)
(0.778235 0.196563 0)
(1.1541 -0.00389559 0)
(0.296526 -1.10637 -5.45087e-22)
(1.096 -0.0454155 0)
(1.00114 -0.0141494 0)
(-0.0728489 0.0362784 5.2228e-20)
(1.13976 0.24171 -1.27179e-20)
(0.875441 -0.142834 -1.31723e-21)
(0.999193 -0.0402035 6.73387e-21)
(-0.215134 0.0168756 0)
(0.855751 -0.112246 6.86239e-20)
(1.05611 -0.626284 3.31879e-20)
(0.991588 -0.0376536 0)
(1.13669 -0.0774279 4.70864e-20)
(1.27764 -0.168292 -1.56414e-19)
(1.1221 0.0570942 0)
(-0.161759 0.0210922 -4.73376e-20)
(1.19648 0.23807 5.57372e-21)
(0.734 -0.0714739 0)
(0.980622 -0.0876749 0)
(1.30813 -0.0878919 -5.18534e-20)
(1.0041 -0.0342089 6.95009e-21)
(0.278409 0.089799 0)
(1.11636 0.0853008 0)
(1.22901 0.139272 3.83408e-20)
(1.1521 -0.0375804 3.5825e-22)
(1.03375 -0.0936352 0)
(0.944835 -0.182143 4.10658e-20)
(1.2232 -0.0110806 0)
(1.00216 -0.000654381 -1.31664e-23)
(-0.254379 0.0203721 -1.15225e-19)
(-0.104212 0.0318029 -5.65043e-20)
(0.0974563 -0.0149512 -5.90759e-20)
(-0.179635 0.0293171 1.0405e-19)
(0.790872 0.201199 0)
(-0.29893 0.00873508 -8.59462e-20)
(1.3439 0.0277086 2.04154e-21)
(0.912589 -0.0977536 -2.48078e-20)
(0.999737 -0.00389377 7.54526e-21)
(1.03164 -0.45443 1.25312e-19)
(0.991575 -0.0132535 -2.76212e-21)
(1.01786 -0.0303001 0)
(0.906127 -0.11522 1.38422e-20)
(-0.161351 -0.00154224 -7.44269e-21)
(1.09374 -0.0112063 8.66736e-21)
(0.972812 -0.0535421 0)
(1.06877 -0.324182 -3.05917e-20)
(1.19769 -0.0506674 -8.03096e-21)
(0.989186 -0.00897019 -1.51805e-20)
(0.235133 -0.00837529 1.02593e-19)
(1.01268 -0.0297462 -3.23608e-22)
(-0.0606997 0.0313287 0)
(1.23907 -0.430761 8.20305e-20)
(1.00827 -0.0239669 0)
(1.08438 0.00217364 -2.82985e-20)
(1.30045 -0.218086 -1.21196e-19)
(0.785389 0.0771139 -3.53634e-20)
(1.02797 -0.0136573 5.5339e-21)
(0.491026 -0.0672519 -1.54217e-19)
(0.793325 -0.325121 -1.01034e-19)
(1.03681 0.00250879 0)
(-0.148492 0.00160439 1.02405e-19)
(1.28733 0.00854186 -5.34247e-20)
(1.27403 0.0901295 0)
(0.978957 -0.0857475 -3.48229e-21)
(0.859811 0.216075 1.57993e-20)
(-0.394259 0.00137202 1.6849e-19)
(1.03783 0.00240203 0)
(1.34124 -0.0784149 1.38888e-19)
(1.02638 -0.0495102 -3.19963e-21)
(1.01332 -0.0304275 3.19018e-22)
(0.982408 0.215861 -1.38549e-20)
(-0.113961 0.00388747 6.53738e-20)
(1.17285 -0.0426648 0)
(1.10353 0.0876105 2.70741e-20)
(0.990825 -0.0120678 -4.86923e-21)
(1.12334 0.106596 -5.08468e-20)
(-0.0735464 0.0277198 5.2502e-20)
(-0.16414 -0.000931089 0)
(1.04334 -0.00129667 -7.03921e-21)
(-0.323631 0.0129345 6.14794e-20)
(1.01783 -0.0322264 -1.97214e-21)
(1.028 -0.0503359 -3.31883e-21)
(1.19788 -0.00899446 0)
(1.09099 0.0455132 -1.53456e-20)
(1.02798 9.92281e-06 1.07578e-20)
(1.02812 -0.0910128 0)
(-0.14086 0.000425041 -1.325e-19)
(1.26277 -0.244529 1.04523e-19)
(-0.161155 0.00184492 -1.13928e-19)
(1.09058 -0.0121175 -4.09325e-21)
(0.993974 -0.0202346 6.21219e-21)
(0.116232 0.0787032 8.42094e-20)
(0.999588 -0.00548728 0)
(1.28449 -0.145497 3.87157e-20)
(1.10751 0.0289069 2.63756e-20)
(1.11385 0.0544584 -4.93573e-21)
(1.15295 -0.0141761 0)
(0.492243 0.146533 0)
(-0.397304 0.00184591 -9.91811e-20)
(1.11354 -0.0337283 -2.84767e-20)
(-0.287093 0.0161991 0)
(1.07582 0.0138741 0)
(1.23215 -0.0364996 2.52588e-21)
(0.351308 0.111039 -8.88565e-21)
(-0.165047 0.0207446 0)
(1.01879 -0.0508545 -9.8241e-23)
(1.00324 -0.0341896 -4.14202e-21)
(0.813174 -0.177179 0)
(-0.156891 0.00154781 1.61595e-19)
(1.0813 0.209923 1.60342e-20)
(1.12048 0.105156 4.22591e-20)
(0.905835 -0.512965 -1.30251e-19)
(1.09036 0.0469459 0)
(1.13405 0.0323022 -2.88741e-20)
(-0.0384221 -0.00331164 4.00777e-20)
(0.208314 -0.00922979 7.74213e-20)
(1.07403 -0.384345 -1.75096e-20)
(-0.0775198 0.0308843 0)
(1.20834 0.19023 1.09792e-21)
(0.488534 0.122342 -2.58993e-21)
(1.05671 -0.0447821 0)
(1.12543 0.25053 8.87661e-21)
(0.755258 0.0165482 -1.11109e-19)
(1.00057 -0.0122989 0)
(-0.422908 0.00722685 -1.94296e-19)
(0.10016 -0.00191503 5.13696e-20)
(1.04344 -0.149316 3.01922e-21)
(1.16889 0.0533767 0)
(1.00716 -0.0459173 0)
(0.421175 -0.836283 -2.04661e-20)
(1.1586 -0.238054 5.39996e-21)
(0.310875 -0.102164 -1.38429e-19)
(1.01547 -0.0407684 0)
(1.00088 -0.000583692 -2.00758e-22)
(0.910276 -0.0640221 -1.40053e-20)
(1.19457 -0.0541619 0)
(1.00212 -0.0095575 -1.69063e-21)
(-0.184549 -0.00113096 0)
(1.00103 -0.000699874 1.53952e-22)
(1.21197 0.186462 0)
(0.973181 -0.0841559 -1.36384e-20)
(1.09537 0.12631 -9.81785e-21)
(0.993328 -0.0379996 -9.81475e-21)
(0.988459 -0.00932109 9.85691e-21)
(1.10834 -0.199028 -3.17186e-20)
(-0.323661 0.010887 -1.74241e-19)
(1.19606 -0.0214144 -4.77438e-20)
(-0.207407 0.000333107 0)
(1.13652 -0.0817613 -5.23517e-20)
(1.01632 -0.0116973 1.19768e-22)
(1.03827 -0.00930478 -1.14688e-20)
(1.22405 -0.02104 4.5212e-21)
(1.07374 -0.0348514 0)
(1.27224 -0.0738655 -9.72719e-20)
(1.10031 -0.0140935 -3.09543e-21)
(0.875584 -0.134801 -6.33168e-20)
(1.12183 0.244725 -1.04689e-20)
(0.999454 -0.00524923 -5.30001e-22)
(0.263295 0.00472246 1.05638e-20)
(1.00008 -0.00175314 3.29978e-21)
(1.0864 0.143202 -4.80308e-21)
(-0.273664 0.0165593 0)
(0.231123 0.101368 -5.0085e-21)
(0.881063 -0.0444428 -9.28771e-21)
(0.486058 -0.174109 1.29011e-19)
(1.05752 -0.322195 1.54552e-21)
(1.2218 -0.311684 0)
(0.0833336 -0.00215782 0)
(1.04687 -0.0022269 1.63823e-20)
(0.186129 -0.00877239 -1.2622e-19)
(0.943168 -0.140761 0)
(1.14668 -0.0259739 2.67363e-20)
(-0.171035 0.0267328 -2.10533e-19)
(0.836128 -0.0325563 0)
(1.0346 -0.00715849 6.11589e-21)
(1.26746 -0.0759145 1.22828e-19)
(1.05721 -0.00463808 -3.29471e-21)
(0.437001 0.109006 0)
(-0.381328 0.00449152 -5.32928e-20)
(1.03452 -0.0515984 -3.51951e-21)
(0.686194 -0.162019 4.49743e-20)
(0.253403 0.0384022 -9.56341e-20)
(0.999997 -0.00151585 3.43547e-21)
(0.999995 -0.00204839 4.19834e-21)
(1.10283 0.122776 0)
(0.237678 -0.00226241 -2.51266e-21)
(0.932363 0.231596 1.96147e-20)
(0.974359 -0.0275278 0)
(1.30138 0.00863836 -1.49894e-19)
(1.08268 -0.0133176 1.11429e-20)
(0.98742 -0.0107895 1.20228e-20)
(1.11243 0.244383 -5.23629e-21)
(1.3044 0.0132482 1.24871e-19)
(1.23675 -0.247382 1.10282e-19)
(1.02605 -0.000303903 8.04312e-23)
(1.14054 0.164526 0)
(0.901842 -0.232113 0)
(1.1029 0.111878 0)
(0.95768 -0.0322903 5.1041e-20)
(1.01597 -0.0834025 0)
(1.15056 -0.23628 4.37883e-21)
(0.914501 -0.065088 1.25259e-20)
(1.13115 0.172597 0)
(1.18873 0.0306229 -5.6245e-21)
(1.19288 0.0231043 2.49433e-20)
(1.06398 -0.370264 -2.21896e-20)
(1.12962 -0.700786 0)
(1.27771 -0.000707455 0)
(0.436956 0.128228 1.65305e-20)
(0.568994 -0.0737327 1.40637e-19)
(1.11709 0.181846 3.79781e-20)
(-0.246917 0.01406 0)
(1.02785 -0.207642 0)
(0.954187 0.213284 1.34457e-20)
(1.27483 0.0967468 9.96375e-21)
(1.04182 -0.0224323 0)
(1.13201 0.0301828 4.92936e-20)
(1.34355 -0.00925374 0)
(1.0756 -0.107798 0)
(1.00764 -0.0223445 0)
(1.00809 -0.0210794 -1.38543e-21)
(1.09242 0.14566 2.50864e-21)
(0.0135861 0.00760854 -1.17936e-20)
(1.10171 0.0384296 0)
(-0.177176 0.00369613 0)
(1.01615 -0.0121968 2.74899e-21)
(0.891626 0.224977 -2.03089e-20)
(0.984487 -0.406502 1.50406e-20)
(-0.411116 0.00415893 0)
(1.26504 -0.0840243 0)
(1.11024 -0.0556739 -2.41348e-20)
(1.0964 -0.017654 -1.66276e-20)
(-0.393612 0.00442843 -8.84089e-20)
(1.2406 -0.242584 -8.90886e-20)
(1.02902 -0.200195 0)
(1.1987 0.23363 4.95126e-20)
(1.06136 -0.0418951 0)
(1.07851 -0.427078 -1.25653e-19)
(1.08888 0.14617 0)
(1.21788 0.183827 0)
(1.14778 -0.0551447 -7.87681e-20)
(1.31376 -0.23787 0)
(0.989597 -0.0261264 1.37622e-20)
(1.0001 -0.00206791 0)
(0.940939 -0.03539 -1.04431e-20)
(0.986849 -0.0118241 0)
(0.31122 0.105216 0)
(1.0048 -0.000943985 -5.55455e-22)
(1.10371 0.23688 8.85453e-21)
(0.0732284 0.0724697 -8.77524e-20)
(1.26798 -0.087583 0)
(-0.156235 -0.000900297 -6.77097e-20)
(-0.402598 0.00106719 1.18598e-19)
(1.22116 0.184666 0)
(1.2314 -0.310182 -6.92696e-21)
(0.883984 -0.0518981 7.84944e-21)
(0.998588 -0.002041 -1.23115e-20)
(0.983866 -0.0254297 7.09888e-21)
(1.02465 -0.00599784 5.28061e-21)
(1.03741 -0.00957553 1.09671e-20)
(1.00121 -0.000653929 -1.64959e-22)
(1.23329 -0.0256965 -3.99623e-20)
(1.30882 -0.0653431 -4.25388e-20)
(0.897936 -0.243916 -1.1195e-20)
(0.769019 0.0571234 -7.75178e-20)
(1.03478 -0.0782023 0)
(-0.0326133 0.0539804 0)
(0.99997 -0.00023372 1.36754e-20)
(-0.167026 0.0147194 -5.48659e-20)
(1.15311 -0.122795 0)
(0.999907 -0.000478701 -1.75071e-20)
(0.996999 -0.0039019 5.12694e-23)
(0.19684 0.0966995 5.67789e-20)
(1.11355 -0.0460693 4.11908e-20)
(0.821941 0.206259 2.21206e-20)
(0.110185 -0.00338235 0)
(1.16133 0.0533406 0)
(1.21589 0.0538518 2.412e-20)
(1.03582 0.00360558 -5.44003e-21)
(0.00243018 0.0388767 0)
(0.99066 -0.0995979 1.05089e-20)
(1.09547 -0.0130898 2.34765e-21)
(1.11574 0.245445 0)
(0.998643 -0.00251139 5.42081e-21)
(0.97653 -0.0565924 4.19494e-21)
(1.04485 -0.00946872 0)
(1.12194 0.0833134 -2.85675e-20)
(-0.0497573 0.00946714 -9.74195e-21)
(1.12498 -0.0753383 0)
(1.15035 -0.0474818 2.33107e-20)
(1.28739 -0.24884 0)
(-0.186819 -0.000113343 3.47072e-20)
(0.885952 -0.0748218 0)
(0.992873 -0.12606 6.97562e-21)
(0.427498 0.120044 3.75388e-21)
(1.02407 -0.00580593 0)
(0.419266 0.116213 -4.94391e-21)
(1.00047 -0.00145282 4.62448e-22)
(1.08587 -0.0106519 2.03728e-20)
(0.700019 -0.0379114 2.06937e-20)
(1.1649 0.125712 -4.03768e-21)
(1.21206 0.15188 0)
(1.23657 -0.155582 0)
(1.19861 -0.017708 -4.01079e-20)
(0.999526 -0.00187124 5.10022e-21)
(0.999985 -0.000231433 0)
(1.23838 -0.037057 -2.74338e-21)
(1.05874 -0.0444853 -7.7934e-21)
(0.999637 -0.00154592 5.99583e-21)
(1.09793 0.0454359 0)
(1.26048 -0.281141 -1.10852e-19)
(1.00591 -0.00698583 8.10775e-22)
(1.20778 -0.322848 3.35933e-20)
(1.19708 -0.503126 4.07155e-20)
(0.914719 0.22449 0)
(1.23693 -0.149652 -7.56777e-21)
(-0.0968393 0.000425391 -7.94525e-20)
(0.836382 -0.109357 -5.21739e-20)
(0.998451 -0.00247466 0)
(1.26485 -0.180797 5.43805e-20)
(1.0155 -0.0128326 0)
(1.11792 -0.0242764 -3.23108e-20)
(0.490564 0.139075 -1.44115e-20)
(0.537222 0.113741 0)
(0.179783 -0.00747762 -1.14029e-19)
(0.484124 0.134288 1.45052e-21)
(1.03921 -0.0517095 0)
(1.0343 -0.050536 1.9598e-22)
(0.9715 -0.310845 0)
(1.01173 -0.0804364 0)
(1.02928 -0.0223383 0)
(0.36237 -0.192659 8.74744e-20)
(1.25052 0.167933 6.74389e-22)
(-0.106313 0.0153669 -1.51129e-20)
(1.08327 0.143751 0)
(1.16917 0.127041 0)
(0.985553 -0.0141918 0)
(1.02603 -0.0142449 0)
(1.05367 -0.313949 5.132e-20)
(1.24115 0.0684219 1.03033e-19)
(1.08897 -0.0101372 -7.8627e-21)
(0.999796 -0.000721731 8.27466e-21)
(1.203 0.157512 -6.67281e-20)
(1.30744 -0.110873 0)
(-0.163494 0.00313274 -3.14882e-20)
(0.973767 -0.0326269 4.34112e-21)
(1.00114 -0.00412296 0)
(-0.0741071 0.00468221 5.92201e-21)
(0.958733 -0.0307154 -2.79985e-20)
(1.1532 -0.0222485 0)
(1.01544 -0.00985342 -4.55835e-21)
(-0.152122 -0.0020881 -1.19885e-19)
(1.01183 -0.000589663 -1.88702e-21)
(-0.269533 0.012323 0)
(0.995161 -0.0104528 -2.23756e-21)
(1.21418 -0.259417 7.07944e-20)
(1.16673 0.0129288 3.52423e-20)
(0.947144 -0.312781 3.90115e-21)
(1.15108 -0.0529265 3.8299e-20)
(0.995704 -0.0348091 0)
(1.09752 -0.0282676 0)
(1.00412 -0.00497402 1.18968e-22)
(1.08828 0.228091 4.23902e-20)
(0.962431 -0.0400955 0)
(0.242045 0.0278051 0)
(1.0642 -0.0404543 2.18433e-20)
(0.69397 0.129193 -1.55808e-20)
(-0.0283729 0.0457621 -4.38617e-20)
(1.14073 -0.0611178 3.99213e-20)
(1.0048 -0.00355484 -4.64141e-22)
(-0.190595 0.0155612 5.10604e-20)
(0.74967 0.195704 -4.42372e-21)
(1.11709 -0.0336892 7.85878e-21)
(1.15999 0.12722 -1.17437e-20)
(0.983792 -0.0243912 0)
(0.12655 0.00359254 0)
(1.04306 -0.0231578 4.21199e-21)
(1.34749 -0.0144995 -6.79461e-20)
(1 -0.0136776 -4.76239e-21)
(1.00447 -0.00519943 0)
(0.877035 0.218167 0)
(1.15468 -0.0112212 0)
(1.00096 -0.00937398 -1.47486e-22)
(1.0971 0.0608282 0)
(-0.143579 0.0117837 -3.0717e-20)
(0.681959 -0.802316 0)
(0.213039 0.0337227 9.90257e-20)
(1.02306 -0.0190076 1.00595e-20)
(-0.224137 0.0180943 0)
(0.998134 -0.0127899 3.22078e-21)
(1.00563 -0.00657848 -6.3119e-22)
(0.975331 -0.0356949 2.77657e-20)
(1.02048 0.000772696 0)
(0.999909 -0.00290364 0)
(0.160264 0.018508 2.54717e-20)
(0.427618 0.120159 4.79445e-20)
(1.0601 -0.0198909 -7.74457e-21)
(1.00107 -0.000959281 0)
(1.17574 -0.0384726 0)
(1.02182 -0.0283919 -1.19794e-21)
(-0.167063 0.0118518 4.48446e-20)
(1.27132 -0.178748 0)
(-0.272868 0.00952365 2.66056e-22)
(-0.145746 -0.00163851 -6.73186e-20)
(1.09692 -0.0300345 -1.20879e-20)
(1.1353 0.171691 5.48521e-20)
(1.00067 -0.0130422 0)
(1.17223 0.0188566 5.13487e-20)
(0.980943 -0.388377 -1.24524e-20)
(1.04578 -0.00152623 -1.45408e-20)
(1.0004 -0.00142812 7.08009e-22)
(1.27424 -0.376767 0)
(-0.373855 0.00415768 1.15842e-19)
(1.21133 0.0556244 1.80982e-20)
(-0.335668 0.0126793 1.38564e-19)
(1.17752 0.0857666 -8.99986e-20)
(0.995925 -0.00683074 -8.54245e-21)
(1.17736 -0.0577571 0)
(1.15782 0.129893 -4.09937e-21)
(-0.349942 0.0111328 2.17423e-19)
(1.14403 0.00742806 -5.00905e-20)
(1.04323 0.243236 -3.60803e-20)
(1.24651 0.0674403 -9.76973e-20)
(1.00028 -0.00283776 -1.03461e-21)
(0.145397 -0.044848 0)
(0.0801684 -0.0198323 -1.19789e-20)
(-0.00398151 0.020132 9.63004e-21)
(0.735577 -0.0269275 -9.32313e-20)
(0.997045 0.21085 -2.53243e-21)
(0.983876 -0.0885145 1.35229e-20)
(0.713524 -0.370089 2.52276e-20)
(0.972339 -0.0149676 4.34565e-21)
(0.98846 0.144275 6.22849e-20)
(1.07454 -0.103626 1.95068e-20)
(1.00964 -0.00187909 0)
(0.171197 0.0266184 -1.01279e-19)
(1.03021 -0.0772597 -5.77418e-21)
(1.00469 -0.00326099 0)
(1.02032 -0.050785 -3.06885e-22)
(1.02844 -0.0751795 2.85002e-21)
(-0.174875 -0.00162348 1.09138e-19)
(1.34792 0.00234142 -7.56957e-21)
(1.01586 -0.0182872 -1.24993e-21)
(1.18118 -0.0543874 4.55588e-20)
(-0.320119 0.00812768 -1.63283e-20)
(1.05194 -0.0702614 -7.48762e-21)
(-0.347397 0.0143788 1.8573e-22)
(0.959462 -0.0585535 2.76567e-20)
(1.18197 0.1118 1.52624e-21)
(-0.133624 0.000275302 0)
(1.00182 -0.0087736 0)
(1.07915 0.215122 -1.71996e-20)
(1.08535 -0.122987 -1.68006e-20)
(1.14488 -0.0631424 -1.37942e-20)
(0.631171 -0.828004 0)
(1.0331 -0.0763816 -2.77176e-22)
(1.33119 -0.171226 8.4061e-20)
(1.10245 0.115844 -2.84395e-20)
(-0.101534 0.0135695 8.73839e-20)
(1.05775 0.00431386 -1.4176e-20)
(0.131753 0.0204639 -2.61365e-21)
(1.14023 -0.0292383 0)
(-0.296513 0.00902025 0)
(-0.372345 0.00911835 1.40105e-20)
(0.105672 0.00874013 0)
(1.15655 0.0594547 0)
(0.99237 -0.0334353 -4.56157e-21)
(1.03847 -0.0532595 0)
(0.999978 -0.00148774 4.87944e-21)
(1.09096 0.0816195 1.99955e-20)
(0.997087 -0.00591215 7.07522e-21)
(-0.145987 0.0209984 5.64246e-20)
(1.03998 -0.139542 -7.54345e-21)
(0.92629 -0.106573 0)
(0.888837 -0.0713062 1.76762e-20)
(0.98607 -0.0869456 -2.19953e-20)
(1.02246 -0.0183272 -7.01732e-21)
(1.07936 0.0469534 0)
(1.08307 -0.105404 3.44654e-20)
(1.0844 0.000165583 0)
(1.0576 -0.117927 0)
(0.0379139 -0.0024855 -1.23059e-19)
(1.07475 0.219669 0)
(1.13677 -0.0150017 2.21097e-20)
(1.13262 -0.190907 1.11574e-20)
(0.193186 0.0264992 8.12406e-20)
(0.97365 -0.0562395 5.20557e-21)
(-0.169676 0.00255381 1.15592e-19)
(1.02337 -0.00599026 0)
(1.03952 -0.167105 -6.23005e-21)
(0.960495 -0.0388702 0)
(1.03166 -0.0338683 4.25858e-21)
(1.09031 -0.200501 0)
(1.00098 -0.0147086 -5.60413e-22)
(1.01616 -0.0177959 0)
(0.784278 -0.123482 0)
(0.983041 -0.0175836 8.27978e-21)