/*--------------------------------*- C++ -*----------------------------------*\
| =========                 |                                                 |
| \\      /  F ield         | OpenFOAM: The Open Source CFD Toolbox           |
|  \\    /   O peration     | Version:  v2012                                 |
|   \\  /    A nd           | Website:  www.openfoam.com                      |
|    \\/     M anipulation  |                                                 |
\*---------------------------------------------------------------------------*/
FoamFile
{
    version     2.0;
    format      ascii;
    class       volVectorField;
    location    "200";
    object      U;
}
// * * * * * * * * * * * * * * * * * * * * * * * * * * * * * * * * * * * * * //

dimensions      [0 1 -1 0 0 0 0];


internalField   nonuniform List<vector> 
13917
(
(0.0891656 0.0136515 5.49512e-21)
(0.997507 0.0498394 6.88988e-22)
(1.0442 0.193211 0)
(1.05339 0.0373893 -1.75111e-20)
(0.996002 0.0208952 -1.26489e-21)
(0.997681 0.0485823 -9.30991e-22)
(1.08038 0.0733363 2.83201e-20)
(0.987107 0.0591162 -1.91067e-21)
(1.10724 0.0523255 3.1729e-20)
(0.0128679 -0.0576245 -7.06458e-21)
(0.988832 0.0591755 0)
(1.03377 0.0310605 0)
(1.01309 0.000359689 0)
(0.851678 0.0645408 0)
(1.00161 0.039766 3.79264e-21)
(0.0735293 0.00968229 0)
(0.988193 -0.000133588 9.89015e-22)
(0.991435 0.0615743 2.81477e-23)
(1.09818 0.174104 1.21393e-20)
(0.108428 -0.00207757 -9.82444e-21)
(1.01475 0.0723947 8.16497e-21)
(1.00218 0.0198717 0)
(1.09317 0.120446 2.45697e-20)
(1.00181 0.0193945 3.21529e-21)
(1.0451 0.0529776 -1.01796e-20)
(1.01027 0.0707874 -2.67877e-22)
(0.887291 0.11213 3.26672e-21)
(0.00605642 -0.0420885 1.34219e-20)
(0.999349 0.0668499 0)
(0.99736 -0.00727698 0)
(0.0103468 -0.0501452 -4.14386e-20)
(1.12742 0.143844 -5.2804e-20)
(1.04334 0.0409339 3.64045e-21)
(0.136761 0.0359509 1.93504e-20)
(0.995548 0.0049656 0)
(0.986334 0.0575063 1.83461e-21)
(1.01996 0.0504118 1.57202e-20)
(0.993323 0.000269154 0)
(1.08272 0.0738273 0)
(1.02601 0.090391 7.2948e-21)
(0.992564 -0.000109566 1.42926e-22)
(0.993635 0.00151525 0)
(1.0967 0.0417229 -4.11351e-20)
(1.11457 0.174259 3.11912e-20)
(1.11201 0.172835 -2.66833e-20)
(1.03196 0.172931 0)
(1.01626 0.0713498 -3.34839e-21)
(0.123673 0.0201096 0)
(0.959237 0.039666 0)
(0.995579 0.00509957 0)
(1.03287 0.0302013 0)
(1.05118 0.160709 0)
(-0.0323487 0.00238902 0)
(1.01729 0.0286667 0)
(1.0198 0.0307939 -5.0548e-21)
(1.0539 0.161345 -2.55411e-20)
(0.012245 -0.0298962 3.11688e-20)
(1.09072 0.119558 2.12062e-20)
(0.993465 0.00124262 0)
(1.0303 0.171841 0)
(0.2535 0.0836608 1.93099e-20)
(1.00007 0.0057707 0)
(0.99538 -0.000428064 0)
(1.04506 0.0515629 -8.47918e-21)
(0.486082 0.110825 5.17501e-20)
(0.974809 -0.00268436 0)
(0.996655 0.0652905 -6.89354e-22)
(0.986696 0.0559251 4.2944e-21)
(0.989659 0.0617039 1.61288e-21)
(0.0371408 0.012273 3.34767e-20)
(0.632233 0.136445 -4.43614e-20)
(0.118646 0.0302779 0)
(1.05073 0.0192924 -1.62593e-20)
(0.993394 0.0011743 0)
(1.01489 0.0744454 -3.82125e-21)
(1.03606 0.0553752 -1.44371e-20)
(0.998274 0.0222703 0)
(0.993235 0.000960033 -4.00292e-22)
(1.03633 0.0540619 -1.28479e-20)
(1.04379 0.0419284 -4.94498e-21)
(1.00957 0.0311292 -3.05919e-21)
(0.987954 -9.31544e-05 -1.4671e-22)
(1.05006 0.0182044 0)
(0.593665 0.135694 0)
(1.01168 0.00535691 0)
(0.982878 0.0749179 -1.664e-21)
(1.12657 0.141216 -4.7151e-20)
(1.01094 0.00267549 1.15505e-21)
(1.02525 0.0883355 -1.45987e-20)
(0.987754 -0.000147411 -8.90675e-22)
(0.98887 -0.000236215 -4.69793e-22)
(1.09929 0.0424421 6.8261e-20)
(0.947096 0.0382836 2.86511e-21)
(0.994429 0.00380968 -1.48017e-21)
(1.01696 0.0360453 5.05749e-21)
(0.997665 0.0672431 1.13579e-21)
(0.987361 0.107678 1.39537e-21)
(0.988569 7.31468e-05 0)
(1.01172 0.00300829 0)
(0.996292 0.107743 -7.13872e-22)
(0.992631 -0.000244603 -9.54244e-23)
(0.992507 -0.000304868 1.26586e-22)
(1.00999 0.0321227 -3.84349e-21)
(0.989878 0.000362812 9.72177e-24)
(0.99821 0.021582 0)
(0.505139 0.128316 -7.58552e-20)
(0.21939 0.0302939 -2.79459e-20)
(1.00004 0.00618497 -1.30186e-21)
(0.993667 0.00164196 -3.77157e-22)
(0.804935 0.104499 5.58451e-21)
(1.0279 0.0010774 1.03411e-20)
(0.152348 0.0396265 -1.71589e-20)
(1.00048 0.0687512 -3.26823e-22)
(0.084441 0.0129412 -1.99118e-20)
(0.501993 0.114048 -4.33501e-20)
(1.03243 0.0572046 0)
(1.09866 0.17147 -1.06827e-20)
(0.98939 -0.000364812 0)
(1.1156 0.196155 0)
(1.04893 0.0114661 2.13348e-20)
(0.987668 -9.95776e-05 3.19485e-22)
(0.993062 0.0010432 4.8373e-22)
(0.995012 0.0655573 -7.11397e-22)
(1.0774 0.159948 0)
(-0.0156241 0.0117333 1.09738e-21)
(0.543553 0.130688 0)
(1.04642 0.0497004 1.98573e-20)
(1.01346 0.075499 -3.64298e-21)
(0.995938 0.00770743 -1.88797e-21)
(1.07954 0.161656 0)
(1.11576 0.0878331 5.63725e-20)
(1.01321 0.145278 4.12905e-21)
(0.209412 0.0752333 5.53952e-21)
(1.03114 0.0567841 0)
(1.12524 0.155006 2.86155e-20)
(0.776582 0.0997773 4.99485e-21)
(0.25897 0.0820035 0)
(-0.0735231 0.00698707 -4.40778e-20)
(1.00748 0.070313 8.11538e-21)
(0.995074 0.00019736 0)
(0.881461 0.0260093 0)
(0.993136 0.000931723 1.22245e-21)
(0.524903 0.13038 6.72122e-20)
(1.00336 0.0142245 5.03416e-21)
(1.04616 0.0184824 0)
(0.992652 0.00200407 -1.07644e-22)
(0.636223 0.138873 -9.92905e-21)
(0.824679 0.0355282 -3.19923e-22)
(0.134314 0.0173485 0)
(1.01792 0.0297211 -4.30565e-21)
(1.02633 0.0846902 1.884e-21)
(0.993015 -0.000397504 -3.09874e-23)
(1.04556 0.0172244 5.25979e-21)
(1.04965 0.0108129 -1.25979e-20)
(0.946564 0.103865 -1.85539e-21)
(0.998557 0.0168808 1.2633e-21)
(0.990068 0.000357571 1.83604e-22)
(0.168586 0.0680158 5.92189e-20)
(0.989933 -0.000200205 0)
(0.989272 -0.000305804 0)
(1.00848 0.0108881 0)
(0.456639 0.0987133 2.08654e-22)
(1.01173 0.0508546 4.61944e-21)
(0.845967 0.0306882 -1.58285e-21)
(0.311177 0.0736604 0)
(0.989936 0.109727 6.92488e-22)
(-0.0403995 -0.00255474 0)
(0.185676 0.0562477 6.8125e-22)
(0.998163 -0.00242338 4.02632e-24)
(1.00594 0.0710802 -1.10232e-21)
(1.00126 0.0193544 0)
(0.241449 0.0792723 1.80262e-20)
(1.10806 0.0502532 4.90731e-22)
(0.344814 0.0945683 0)
(1.04646 0.134112 7.71221e-21)
(0.991076 -0.00032371 2.78192e-22)
(1.05478 0.0368056 0)
(1.04632 0.163264 1.66982e-20)
(1.11527 0.0852596 -2.26268e-20)
(1.01085 0.0515562 0)
(1.09294 0.0433007 4.86813e-21)
(1.00137 0.0191215 0)
(1.03181 0.0304897 0)
(1.06547 0.181565 0)
(1.10744 0.196163 -1.75669e-20)
(1.0119 0.144293 -5.97269e-21)
(1.03095 0.029705 1.04531e-20)
(1.06461 0.181625 2.46846e-20)
(0.997124 -0.00704173 0)
(0.985692 0.0743445 0)
(1.04398 0.133447 2.7437e-20)
(1.11268 0.169025 0)
(1.06229 0.174093 1.63225e-20)
(0.0985818 0.0128835 0)
(0.994499 0.00394069 3.35984e-21)
(-0.00455207 0.0123872 3.34094e-20)
(1.04957 0.070345 2.96991e-22)
(0.243592 0.0822426 -5.44484e-21)
(0.995364 0.00477382 0)
(0.998804 0.0168587 0)
(1.01916 0.0692792 0)
(0.0462094 0.0118231 1.4798e-20)
(-0.0823658 0.00425224 6.47764e-20)
(1.0162 0.0452339 6.13302e-21)
(0.897381 0.120271 1.16534e-21)
(1.00361 0.0593425 -7.85643e-22)
(1.02699 0.0866542 1.89556e-21)
(0.993188 0.00110783 4.55911e-22)
(1.04933 0.163401 -1.95688e-20)
(1.00869 0.0305956 9.14907e-21)
(0.994843 0.00543628 -9.32911e-22)
(0.994755 0.0199167 -2.10169e-23)
(0.994342 0.0199794 0)
(0.145168 0.0211486 0)
(1.12655 0.152788 -4.43422e-20)
(1.00891 0.0717448 -5.99341e-21)
(0.370795 0.0804452 1.94064e-20)
(0.99975 0.00103881 0)
(0.991147 -0.000693063 -7.43973e-22)
(0.991156 -0.000745443 0)
(0.157223 0.0488144 -5.31233e-20)
(1.06216 0.177364 -7.21958e-21)
(1.03942 0.181547 1.18232e-20)
(1.02559 0.00461836 1.49302e-20)
(0.99572 -0.000224084 -5.05989e-24)
(0.694979 0.0907375 5.58734e-21)
(-0.00865531 0.00921641 -3.42558e-20)
(0.990772 -0.000621575 0)
(0.990655 -0.000613896 8.28871e-22)
(0.99312 6.12656e-05 0)
(0.991339 -0.000796762 0)
(0.99135 -0.000852425 -6.26476e-22)
(0.110168 0.0269152 0)
(0.198308 0.0354157 -2.01751e-20)
(1.00566 0.0246896 0)
(0.998055 -0.00391343 4.96939e-24)
(1.06196 0.144094 9.32547e-21)
(0.0832136 0.0254668 2.44027e-20)
(0.988836 -0.000229225 5.90953e-22)
(1.02503 0.00432006 -7.37484e-21)
(0.868826 0.117242 -1.6195e-21)
(0.506484 0.127985 0)
(1.06964 0.180821 -9.59907e-21)
(0.351875 0.0762992 2.15715e-20)
(1.03817 0.145792 -5.87419e-22)
(1.0038 0.0145109 8.22021e-23)
(0.228359 0.0618418 0)
(1.06326 0.146699 -3.10601e-20)
(1.00197 0.0682285 1.22644e-21)
(1.09974 0.152062 1.88117e-20)
(1.01694 0.0444759 0)
(0.1823 0.0299027 2.52354e-20)
(1.04932 0.0134399 0)
(1.04248 0.104001 -9.61626e-21)
(1.04907 0.130501 0)
(1.00478 0.0246641 5.90133e-21)
(0.995497 6.51628e-06 0)
(1.04653 0.0511184 1.08746e-20)
(0.996372 0.0175147 1.70741e-21)
(0.995271 0.0038387 1.9062e-21)
(0.0152417 0.0207128 -2.02169e-21)
(0.770882 0.0406312 -6.10551e-21)
(0.993382 0.00167224 5.33705e-22)
(0.990504 -0.00053401 2.25749e-22)
(0.998587 0.017478 -1.2895e-21)
(0.990522 -0.000490703 -1.18175e-21)
(1.04989 0.0127767 -2.28554e-20)
(1.01935 0.000672183 1.20392e-20)
(1.0699 0.10443 0)
(0.993564 0.00174851 -5.34495e-22)
(-0.0748542 0.0109887 0)
(0.240704 0.0382235 2.12517e-20)
(1.02493 0.0240365 1.07498e-20)
(0.99709 0.0185101 0)
(0.98115 0.168735 0)
(0.991758 -0.00173966 -1.17988e-23)
(1.00011 0.105292 -1.12457e-21)
(0.0324386 0.0264047 1.87661e-21)
(0.991715 -0.00167548 0)
(0.0535591 0.0171576 -6.26434e-20)
(0.995008 0.00366248 -2.7821e-21)
(0.477695 0.103675 1.84448e-20)
(0.991662 -0.000233182 -1.67596e-22)
(1.00263 0.0374733 -6.0648e-21)
(1.00452 0.024981 2.06195e-21)
(1.0016 0.01287 0)
(1.08126 0.181715 -4.96611e-20)
(0.992285 0.000423232 -1.0864e-22)
(0.993731 0.111098 0)
(1.04232 0.078095 -2.24008e-20)
(0.70808 0.0358078 9.46592e-21)
(0.992633 0.00265038 -2.4784e-22)
(0.9817 0.130217 -9.58335e-22)
(-0.0935233 0.00555853 -4.81343e-20)
(0.988914 -0.000274314 6.63318e-22)
(1.07819 0.128006 0)
(0.996319 0.0188402 2.2887e-21)
(1.02917 0.0579068 1.11646e-20)
(0.996234 0.020306 1.16848e-21)
(1.03805 0.0540706 2.34688e-20)
(0.994608 0.00371003 0)
(0.992447 0.00053348 -4.03449e-21)
(1.04172 0.160475 -2.31006e-20)
(0.994037 0.00781168 5.20733e-22)
(1.04276 0.102573 -8.11526e-21)
(1.03828 0.0528856 -2.35989e-20)
(1.02402 0.00429181 -2.62484e-20)
(0.192569 0.0730076 -1.35212e-20)
(0.0383311 0.00860559 1.40278e-20)
(0.995352 0.0065555 0)
(0.988968 -0.00132775 2.72945e-22)
(1.03048 0.0584045 0)
(0.990195 0.0155416 2.16156e-22)
(1.14262 0.182917 8.65896e-20)
(0.23404 0.0382519 -2.12383e-20)
(0.381277 0.0968201 7.69228e-22)
(0.973557 -0.0130501 7.39516e-23)
(1.01056 0.143299 2.25265e-21)
(0.997178 0.0178676 8.72028e-22)
(0.634899 0.141011 0)
(0.990416 0.0152906 -1.7856e-22)
(1.0589 0.194484 0)
(1.01941 0.000631687 0)
(1.0017 0.0387491 -2.91368e-21)
(0.91437 0.117633 1.7515e-21)
(1.0001 0.0189856 -3.22046e-21)
(0.996497 0.0502056 2.84604e-22)
(1.11036 0.167664 2.62495e-20)
(0.988446 -8.95852e-05 -3.60157e-22)
(0.253707 0.0812547 -2.12065e-20)
(1.01145 0.00412285 -2.75794e-21)
(1.14415 0.0993296 5.44921e-20)
(0.993151 -0.00292231 0)
(0.0760467 -0.0146726 1.03967e-20)
(0.995137 0.00368529 0)
(1.04565 0.100389 -9.94451e-21)
(1.0036 0.0608197 -7.44095e-22)
(0.976451 -0.016475 0)
(0.987859 -0.00025643 1.88487e-22)
(1.10466 0.152505 2.23621e-20)
(0.575507 0.137632 6.70903e-20)
(1.01836 0.0354847 -5.1749e-21)
(0.999759 0.018468 0)
(0.175615 0.0467959 0)
(0.556739 0.136283 -9.10015e-21)
(0.57573 0.125702 3.94025e-20)
(0.890087 0.0634064 -3.26033e-21)
(0.991569 -0.00157766 3.77296e-22)
(1.00768 0.0260564 3.3089e-21)
(0.486958 0.125664 4.24624e-20)
(1.01334 0.14501 -8.24357e-21)
(0.991531 -0.00151848 -3.73524e-22)
(0.996075 0.0194319 -1.93801e-21)
(1.02476 0.0300693 -8.23488e-21)
(1.00501 0.0846452 -1.53486e-22)
(1.04519 0.101997 1.16181e-20)
(1.06792 0.166476 -3.59194e-21)
(1.02621 0.135303 8.25068e-22)
(0.999504 0.103331 -8.27499e-22)
(1.1346 0.102603 1.12873e-20)
(0.137818 0.027602 2.34094e-21)
(0.996107 0.00803992 9.79078e-22)
(1.01933 0.0358344 0)
(0.995514 0.0208431 -1.37725e-21)
(1.09861 0.191399 -1.41441e-20)
(0.989141 -0.00013467 3.11142e-22)
(0.0843627 0.0110663 0)
(1.1358 0.100806 0)
(0.860717 -0.091022 1.40336e-22)
(1.01959 0.0315507 6.19087e-21)
(1.02035 0.142458 2.77844e-21)
(0.990141 -0.000541617 1.26565e-22)
(0.969473 0.0371421 0)
(0.993258 0.000580516 -3.58952e-22)
(1.04354 0.18271 0)
(0.990848 0.171315 0)
(1.00194 0.0616406 3.09442e-21)
(1.02502 0.0249333 1.21827e-20)
(0.809073 0.161182 0)
(0.993549 -0.00311306 1.73474e-23)
(0.298854 0.0736872 -2.56191e-21)
(1.06303 0.176433 1.7193e-20)
(0.993253 0.000330487 -3.42282e-22)
(0.976114 0.0381482 0)
(1.00306 0.0254593 -5.17488e-21)
(1.01825 0.0164065 0)
(0.992451 0.00230709 2.2522e-21)
(0.127797 0.00211484 -1.8403e-20)
(1.01352 0.0223072 -6.62702e-22)
(1.02432 0.0499374 -3.06242e-22)
(0.641769 0.0860984 -5.64364e-21)
(1.00173 0.0994577 0)
(1.01698 0.0422826 5.55364e-21)
(0.425531 0.0963906 3.32142e-20)
(1.05991 0.190353 6.46058e-20)
(1.02665 0.0482021 2.47966e-21)
(1.07985 0.182292 4.73153e-20)
(1.00953 0.0263106 7.37709e-21)
(0.999491 0.0980527 0)
(1.0719 0.195631 2.35649e-21)
(1.01184 0.00361885 0)
(1.09204 0.0662955 0)
(1.0398 0.0528295 3.89374e-23)
(1.00235 0.0128091 5.40445e-21)
(0.999918 0.00564136 -7.38909e-21)
(0.996384 0.00873515 -3.80164e-21)
(0.204285 0.0760341 7.58434e-21)
(0.991695 0.111913 -7.06497e-22)
(1.0195 0.0338052 -6.47781e-21)
(0.996263 0.00845927 -3.64406e-21)
(1.00208 0.0184049 -7.2693e-23)
(1.06706 0.123577 0)
(0.985228 0.0498783 2.52717e-21)
(0.992479 -0.00238509 -1.78053e-22)
(0.997985 -0.00218056 0)
(1.1411 0.180897 -7.73487e-20)
(1.01917 0.139592 0)
(1.00182 0.0134984 0)
(1.02476 0.0492083 2.54615e-22)
(0.533483 0.120525 0)
(0.818902 0.0901838 -8.43629e-21)
(0.969486 4.36036e-05 5.9496e-22)
(1.09991 0.176652 6.64903e-21)
(0.692368 0.150221 2.58282e-20)
(0.992651 -0.000912187 2.38616e-22)
(0.99226 -0.00219803 0)
(1.01435 0.0663861 1.03521e-20)
(0.999841 0.00538202 3.65257e-21)
(0.992418 -0.00232208 0)
(1.00542 0.0250882 -6.70737e-21)
(0.99221 -0.00214055 -3.05401e-22)
(0.992524 -0.000946701 -1.52046e-23)
(0.212497 0.0536149 -1.75529e-21)
(1.00998 0.0272351 3.85734e-21)
(1.02768 0.0946836 0)
(-0.060266 0.0142977 -5.35668e-21)
(1.07593 0.12611 1.91781e-20)
(0.995043 0.00574283 0)
(1.04411 0.0170585 0)
(0.437619 0.0977036 -1.36589e-20)
(1.01749 0.0683849 0)
(-0.0305077 0.0088165 0)
(0.992925 -0.00275903 0)
(1.02509 0.0110072 0)
(0.993623 -0.00315809 0)
(0.99153 -0.000912211 5.76207e-22)
(1.01962 0.0489665 -1.45313e-20)
(1.00217 0.0250727 -4.11993e-21)
(0.565769 0.125996 0)
(0.992718 -0.00262458 2.08975e-22)
(0.484275 0.12565 -2.68199e-21)
(1.02442 0.0110376 2.22918e-20)
(1.10396 0.0988628 0)
(0.991561 -0.0014939 0)
(1.00841 0.0295345 -7.01417e-21)
(1.04103 0.146251 -5.98183e-22)
(0.570481 0.123919 -3.15607e-20)
(1.02496 0.0292671 0)
(0.612742 0.0727255 5.84252e-21)
(0.995419 0.0062822 2.32336e-21)
(0.998396 0.00176307 6.34118e-21)
(1.00186 0.0176921 0)
(1.00356 0.0260682 5.72697e-22)
(0.994423 0.00484679 0)
(1.00648 0.00178027 2.19738e-21)
(0.185456 0.0708428 -2.44371e-20)
(0.297935 0.0875924 0)
(0.994215 0.00456798 -1.8987e-21)
(0.968286 0.131675 1.22964e-21)
(1.13582 0.180126 2.60593e-20)
(1.02475 0.00128351 3.73091e-21)
(1.07405 0.131663 -5.7872e-20)
(1.16333 0.141437 0)
(0.367108 0.0807063 -4.12549e-22)
(1.09744 0.0696453 1.64217e-20)
(0.514181 0.128209 0)
(0.946 -0.0402678 -2.64742e-21)
(0.959386 -0.0378654 1.76092e-21)
(1.0026 0.0256887 4.48611e-21)
(0.976416 -0.00731478 0)
(0.990872 -0.00108715 -1.19757e-22)
(1.01637 0.0431274 -5.62445e-21)
(0.767108 0.15426 1.41326e-20)
(0.988701 -0.000216738 5.04897e-22)
(1.01761 0.0277863 -5.27504e-21)
(1.01794 0.0364387 6.27036e-21)
(1.09843 0.060572 3.07634e-20)
(1.01973 0.0758375 2.78805e-21)
(1.10928 0.192047 -3.75339e-20)
(1.103 0.130695 -4.32326e-20)
(0.994469 0.00327906 9.59586e-22)
(0.996784 0.0184294 0)
(0.992333 0.0638546 -4.63775e-22)
(1.02424 0.106263 0)
(1.0188 0.0332426 6.88754e-21)
(0.766841 0.0591189 -8.84435e-21)
(1.07968 0.104065 3.877e-20)
(1.04409 0.0782865 1.20806e-20)
(0.317569 0.0810686 0)
(1.01196 0.00477043 6.22006e-21)
(1.02291 0.107756 0)
(1.04256 0.165928 0)
(0.996678 0.00340954 -3.01082e-21)
(0.0857403 0.0506228 0)
(0.998704 0.00176687 0)
(0.991526 -0.000966224 8.4647e-23)
(1.06851 0.125776 0)
(0.992848 -0.00269659 0)
(0.999517 0.00115649 0)
(1.04042 0.157787 1.14714e-20)
(0.127019 0.0628475 0)
(0.533509 0.0678972 -5.77044e-21)
(1.0087 0.0102899 1.61586e-20)
(1.06528 0.0362959 2.90751e-20)
(0.995453 0.00322692 -4.99758e-22)
(0.819654 0.160312 0)
(0.837255 0.149987 1.30589e-20)
(1.01801 0.031469 6.13551e-21)
(1.01899 0.0298808 0)
(1.00821 0.009208 0)
(1.05307 0.127631 -9.63323e-21)
(0.906179 -0.0236083 -5.76177e-22)
(0.995728 0.0072142 8.38001e-22)
(0.988689 -0.000185864 0)
(0.998742 0.0162274 1.2512e-21)
(1.00255 0.0123084 2.09747e-21)
(0.99653 0.00705565 -4.80891e-22)
(1.0598 0.0823907 -5.62474e-21)
(0.988429 -0.000249934 4.25954e-22)
(1.10064 0.131885 3.98454e-20)
(0.996648 0.00321778 5.88542e-21)
(1.00293 0.0195355 0)
(1.04013 0.0517934 4.45292e-21)
(0.210468 0.0368173 -1.4744e-20)
(0.989604 7.21497e-05 0)
(1.07804 0.0504 0)
(0.995303 0.00396505 1.95146e-21)
(1.10323 0.0965553 -4.26924e-20)
(1.07599 0.142119 0)
(0.999612 0.078756 -2.79842e-21)
(1.04877 0.132707 0)
(0.995256 0.111011 2.17236e-22)
(1.03632 0.0489037 0)
(0.994024 0.0635088 3.24894e-22)
(0.271375 0.0874557 0)
(0.223331 0.0525741 0)
(-0.0425892 0.0196595 4.91295e-21)
(0.994798 0.00555869 3.15765e-21)
(1.00117 0.0165998 -7.39638e-21)
(0.994435 0.00368939 1.39679e-22)
(1.02663 0.0185122 -6.94782e-21)
(0.479882 0.112287 0)
(0.991915 -0.00183948 -3.5952e-22)
(0.847212 0.0128266 -9.26545e-22)
(1.05128 0.0702326 1.31634e-20)
(0.38321 0.105479 0)
(0.999306 0.107025 1.84986e-21)
(1.09526 0.0437872 0)
(0.0448048 -0.0297608 -5.92739e-21)
(0.994044 0.00442898 3.56301e-21)
(1.15213 0.133354 0)
(0.988394 8.87433e-05 0)
(0.99598 0.00351086 -6.74132e-22)
(0.346017 0.0984926 0)
(0.992703 -0.0025741 1.09856e-22)
(1.07969 0.197684 3.70916e-21)
(0.994798 -0.000223527 0)
(1.02323 0.000819765 0)
(1.00139 0.0172789 9.3834e-21)
(1.10933 0.190386 3.58307e-20)
(0.996633 0.00661833 0)
(0.990109 -0.000348984 0)
(1.11974 0.174468 0)
(1.07241 0.129544 3.86333e-20)
(0.824536 0.0200767 1.27834e-21)
(0.683707 0.144997 -2.18298e-20)
(0.202304 0.0754963 -3.49098e-20)
(0.348162 0.0782548 1.31514e-20)
(0.989613 0.000102152 -2.40083e-22)
(0.0113487 0.0127151 0)
(0.994422 -0.000652585 0)
(0.277749 0.0850913 0)
(0.882126 0.028494 -9.29574e-22)
(0.996172 0.00353765 -2.91389e-23)
(0.991495 0.000928901 0)
(0.992558 -0.000307295 0)
(1.07888 0.102715 -3.67426e-20)
(1.09207 0.0408008 4.1831e-20)
(0.992634 -0.00251026 2.21079e-22)
(0.988591 0.000113931 0)
(1.0158 0.000828614 1.6105e-21)
(0.73724 0.152445 1.98141e-20)
(1.01082 0.0123272 -3.92115e-21)
(1.12891 0.136545 -4.32157e-20)
(1.01689 0.0269205 -5.09099e-21)
(0.990051 -0.000373985 0)
(0.989349 -0.000273169 0)
(1.04705 0.172518 0)
(0.621069 0.131201 0)
(0.0692723 -0.0202824 0)
(1.09966 0.149236 3.35843e-20)
(1.06152 0.081833 -6.06269e-21)
(0.900028 0.169183 1.77399e-20)
(0.0860837 0.0276775 3.39647e-21)
(0.992613 0.00237779 0)
(0.678173 0.141181 7.4847e-21)
(1.0155 0.000565678 5.14904e-21)
(1.16685 0.163121 6.54148e-20)
(1.02588 0.0188037 0)
(0.828341 0.163732 0)
(1.00218 0.0117282 2.05227e-21)
(0.99635 0.0075032 5.08289e-22)
(1.04752 0.0188143 0)
(0.837599 0.0239315 -1.47641e-21)
(1.07382 0.105154 3.07551e-20)
(0.452444 0.101284 1.62979e-20)
(0.988258 -0.000149745 1.0965e-21)
(1.07056 0.101748 -4.46284e-20)
(0.995687 0.006001 0)
(0.993502 -0.000108041 -4.16825e-24)
(0.153027 0.0307727 1.19505e-21)
(0.988342 0.105076 -1.11902e-21)
(0.995951 0.00580609 0)
(1.06705 0.169078 3.76755e-21)
(1.02453 0.00464553 1.95636e-20)
(0.995549 0.00310724 0)
(0.993573 -0.000240066 2.54388e-23)
(0.173337 0.0375021 -1.11107e-21)
(1.01135 0.0122056 6.91089e-21)
(0.996186 0.0180803 -2.5513e-21)
(0.991945 -0.00189591 1.93577e-22)
(0.995795 0.00577483 1.6859e-21)
(1.09692 0.190347 3.2168e-20)
(0.993022 -0.000346312 0)
(1.07473 0.168483 1.72189e-20)
(0.988021 -5.2325e-05 0)
(0.995694 0.00379507 -2.55149e-21)
(0.238994 0.0814696 -2.0778e-20)
(1.12951 0.138758 -7.48205e-21)
(1.01751 0.0304465 -4.78912e-21)
(-0.128188 -0.00279414 6.04694e-20)
(1.10374 0.197156 -1.02638e-21)
(0.988869 0.0464242 0)
(1.03991 0.165446 -1.07995e-20)
(0.993843 0.0041569 -1.73242e-21)
(1.00074 0.0399257 0)
(0.189553 0.0293002 3.37274e-20)
(1.02815 0.189456 -1.95282e-20)
(1.0157 0.0654614 0)
(1.02107 0.0509174 -1.11205e-20)
(0.996145 0.00754123 0)
(0.987814 -4.52904e-05 0)
(0.997178 0.00994351 -5.1422e-21)
(0.967046 -0.011834 -8.99055e-23)
(1.07257 0.145227 2.36831e-20)
(1.04319 0.0646912 0)
(0.274292 0.0750524 0)
(1.07548 0.106804 -2.60327e-20)
(0.982437 0.0468586 1.33625e-22)
(0.795699 0.147476 9.63795e-22)
(0.994028 0.00872013 0)
(1.05228 0.0996624 -1.74846e-22)
(1.06544 0.173952 -2.95714e-20)
(0.0672721 0.0201517 3.11675e-20)
(0.994647 0.00384243 3.14833e-21)
(0.995081 0.0108553 9.0385e-22)
(0.961175 -0.0164311 0)
(0.995972 0.00384557 -2.78443e-21)
(0.988168 -5.60478e-05 -4.35906e-22)
(0.989483 -0.000259297 2.99916e-22)
(0.99571 0.0035216 1.03621e-21)
(1.00224 0.00140741 -7.58708e-21)
(0.0151389 0.0119696 4.44125e-20)
(1.13112 0.0870878 1.52901e-20)
(0.991563 0.000670091 -1.53012e-21)
(1.11073 0.164311 5.88526e-22)
(0.988401 -0.000141443 0)
(0.258265 0.0469061 3.64493e-20)
(0.994977 0.00354037 8.74063e-22)
(0.995792 0.00743156 0)
(0.100969 0.0568326 2.99858e-20)
(1.07921 0.138785 1.33109e-20)
(0.86828 -0.0464442 1.08412e-21)
(1.05021 0.0237371 3.79456e-21)
(0.993296 -0.00290909 -4.70928e-23)
(0.995222 0.00614503 -3.25203e-21)
(1.0599 0.0308841 1.31534e-20)
(1.08273 0.0816547 1.41672e-21)
(1.00029 0.0120488 0)
(-0.0501864 0.00709329 1.80766e-22)
(1.04118 0.0833592 -1.57658e-20)
(0.866915 -0.00653295 0)
(0.895896 -0.0189438 -1.41708e-21)
(0.995058 0.0103733 9.51306e-23)
(0.199903 0.0764912 -1.48689e-20)
(1.06437 0.0373125 0)
(0.989326 0.000179836 3.26735e-21)
(0.995797 0.00599551 1.60162e-21)
(0.0474644 0.0300624 -3.67402e-21)
(0.570626 0.0750893 6.79141e-21)
(1.04901 0.0719131 0)
(-0.0274373 0.0108042 -5.84339e-20)
(0.858236 0.00761921 0)
(0.995359 0.00399427 3.90824e-21)
(0.995515 0.00685999 0)
(1.01823 0.0484145 1.37171e-20)
(0.537796 0.132732 -7.6372e-20)
(0.941981 -0.0295181 0)
(1.0716 0.106116 0)
(1.05847 0.0304512 -1.6818e-20)
(1.07694 0.0514815 0)
(1.16986 0.164575 -1.03676e-19)
(0.997459 0.0179686 -9.68023e-22)
(1.07075 0.166383 -1.56223e-20)
(1.12932 0.0891677 8.3017e-21)
(1.01644 0.0348154 0)
(1.04307 0.0423962 0)
(0.989544 0.000169002 1.73414e-21)
(1.08116 0.0805855 0)
(0.99664 0.0176991 6.7911e-22)
(1.00518 0.185173 4.08113e-20)
(1.02695 0.0586403 0)
(0.996781 0.00313678 -2.26182e-23)
(-0.0400913 0.00724597 0)
(0.993958 -0.00733441 -3.95162e-23)
(0.874071 0.00926629 6.97222e-22)
(1.02189 0.0498996 8.95172e-21)
(1.00082 0.0495715 0)
(1.05794 0.0701777 -9.21005e-21)
(1.06694 0.19617 0)
(0.987556 -0.000108129 0)
(1.1536 0.127808 -6.0831e-20)
(0.654186 0.133734 6.81477e-21)
(0.900333 0.0509518 2.73306e-23)
(1.02846 0.0187595 0)
(1.02831 0.0591664 -1.1996e-20)
(1.00038 0.000845741 8.03303e-21)
(1.02343 0.0145384 -6.47238e-21)
(1.04773 0.0165188 -2.16273e-20)
(0.996007 0.0296522 -2.32162e-21)
(0.992021 -0.0025711 -1.17823e-22)
(1.04236 0.169009 0)
(1.07261 0.168932 -3.99814e-22)
(0.993474 0.00376667 0)
(0.934103 0.179925 3.63512e-20)
(1.10517 0.052712 -1.8541e-20)
(1.09755 0.0619121 -3.72741e-20)
(1.06853 0.171489 -3.97951e-21)
(1.00737 0.026613 -3.32356e-21)
(1.14929 0.134028 6.80768e-20)
(0.997571 0.111349 -3.52483e-21)
(0.989703 -0.000139134 -4.83001e-22)
(1.08156 0.138666 0)
(1.03813 0.13774 -2.20044e-20)
(1.12631 0.0888276 -3.4589e-20)
(0.9966 0.00824014 0)
(0.994826 0.00529645 -1.97689e-21)
(0.996963 0.00967954 0)
(0.0324774 0.00980397 -1.81973e-20)
(1.0418 0.0400723 6.34869e-21)
(0.995185 0.00347518 0)
(1.14069 0.0989089 9.41355e-21)
(1.00053 0.0126324 0)
(0.995224 0.00617543 0)
(1.05536 0.159749 3.29724e-20)
(0.993889 0.109489 3.16702e-22)
(0.994026 0.0278508 0)
(0.762874 0.0866885 3.58467e-21)
(1.00672 0.0834584 1.45547e-22)
(0.470834 0.123108 5.87141e-21)
(1.04877 0.0158154 0)
(0.997933 0.0224073 3.54898e-21)
(0.924372 0.174947 1.28188e-20)
(0.996199 0.00340212 6.3438e-22)
(1.00229 0.00653803 0)
(0.988059 -0.000265568 1.23225e-21)
(0.988236 -3.53797e-05 0)
(1.04705 0.0251295 0)
(1.02464 0.0592377 0)
(0.999011 0.0808118 1.78595e-21)
(0.996402 0.00800681 0)
(0.969948 0.000213937 3.03654e-22)
(0.998017 0.014043 1.16345e-21)
(0.906579 0.0258316 7.0102e-22)
(1.02305 0.0505276 -1.11774e-21)
(1.09885 0.0679826 1.85272e-20)
(0.993065 -0.00286684 0)
(1.09743 0.152925 1.11437e-20)
(1.00255 0.0385944 4.59429e-21)
(0.50251 0.109746 4.52867e-20)
(0.993629 0.0285892 -8.16211e-23)
(0.9882 -0.000234749 -1.06637e-21)
(0.221789 0.036185 2.61908e-20)
(1.04167 0.0438074 -1.87154e-20)
(0.0129309 0.0182908 0)
(1.09217 0.0372071 0)
(0.991488 0.0292292 0)
(0.997991 0.0187059 1.14828e-21)
(0.994258 0.00468342 -1.57566e-21)
(1.02819 0.0178183 0)
(0.281969 0.0816869 2.19884e-20)
(1.07746 0.0806683 0)
(0.987302 0.0472488 -9.54344e-22)
(0.782062 0.0859464 -4.93316e-21)
(1.02306 0.0140949 1.79397e-20)
(1.12508 0.0908851 5.64976e-22)
(0.998231 -0.0037686 0)
(0.99861 0.00561318 -1.62307e-21)
(0.926552 -0.0195556 -1.06089e-21)
(0.998133 -0.00413433 -1.5793e-24)
(0.2413 0.0606643 0)
(1.08147 0.0498538 -2.00712e-20)
(0.991307 0.0300575 -2.23438e-22)
(1.09673 0.169126 2.65893e-20)
(0.992617 0.0145361 0)
(0.990755 0.000126824 -1.16918e-21)
(0.988534 5.17005e-05 5.54466e-22)
(1.02406 0.137522 5.30062e-21)
(0.993682 0.00401607 0)
(1.01568 0.0275708 2.37741e-21)
(1.02843 0.0472711 1.56399e-20)
(1.00051 0.0155482 0)
(1.13893 0.100871 0)
(0.990653 8.63758e-05 1.44645e-21)
(0.987837 0.0813961 2.54891e-21)
(1.01542 0.0344662 0)
(0.0754898 0.0120945 -2.86451e-20)
(0.00151127 0.0173801 3.32755e-20)
(0.988785 0.017752 -4.35114e-22)
(0.465351 0.122605 -4.54683e-20)
(0.639123 0.0772474 0)
(0.0677719 0.00945991 3.02424e-20)
(0.99138 0.0145611 -6.79878e-22)
(0.993907 0.00311433 5.7376e-21)
(0.995333 0.00291146 -1.32326e-21)
(1.03532 0.0219796 -1.63082e-20)
(1.03464 0.0436047 6.46304e-21)
(1.00808 0.00973696 -1.2115e-20)
(1.07937 0.081836 0)
(1.00979 0.0151479 -3.54603e-21)
(0.984591 0.0515945 -1.70871e-21)
(1.01629 0.0284827 0)
(0.786379 0.16269 4.14377e-22)
(1.04173 0.0384094 -6.8254e-21)
(1.12695 0.0742156 0)
(1.02173 0.129024 4.55715e-21)
(0.994729 0.00522806 -3.00161e-21)
(1.02466 0.0919491 -1.01032e-21)
(1.04066 0.0440988 2.09233e-20)
(0.996245 0.00396873 3.03523e-23)
(1.06735 0.0711122 2.20763e-20)
(0.993606 -0.00311645 -2.5796e-26)
(0.188755 0.0750218 -2.377e-20)
(1.07167 0.147986 -1.32058e-20)
(0.969353 -0.0149857 3.83423e-22)
(0.995237 0.00632116 0)
(1.03583 0.00561053 -2.18594e-20)
(1.00038 0.018778 3.02816e-21)
(0.998097 0.0145849 -1.21406e-21)
(0.329815 0.0809779 0)
(0.994353 0.00346042 0)
(0.989965 0.107011 0)
(1.00232 0.0113195 0)
(0.905152 -0.0657508 9.50668e-23)
(1.00152 0.0347062 1.82869e-21)
(1.00539 0.014795 -1.13155e-20)
(1.15442 0.130132 -4.57656e-20)
(1.00044 0.00560026 3.54586e-24)
(0.994567 0.00373975 0)
(0.900235 0.00822706 0)
(0.709226 0.145369 1.88551e-20)
(1.01307 0.0446369 -1.48028e-20)
(1.10218 0.153652 -2.29225e-20)
(0.993294 0.00362656 4.6138e-23)
(0.994255 0.105873 1.06943e-22)
(0.993876 -0.00294304 3.28568e-23)
(0.998359 0.0151077 -3.77464e-21)
(0.120615 0.0216937 -4.87689e-20)
(0.988168 2.27256e-05 -6.37529e-23)
(1.05386 0.0390325 -2.83986e-20)
(1.10853 0.162668 4.92712e-20)
(0.105539 0.0185163 1.7141e-20)
(0.994024 -0.00271844 -1.10075e-22)
(1.0016 0.0117275 -5.35864e-22)
(0.868592 0.167887 -2.5771e-20)
(0.993394 0.00110627 -3.82129e-22)
(1.00003 0.022594 -1.57453e-21)
(1.00073 0.0161873 -1.76851e-21)
(0.730416 0.155147 0)
(1.03392 0.00617178 -1.21577e-20)
(1.12005 0.177433 0)
(1.03548 0.0274854 -6.01009e-21)
(0.091805 0.0539011 -1.42019e-20)
(1.00195 0.0366496 2.19074e-21)
(0.689642 0.129542 0)
(0.996379 0.00876066 0)
(0.993304 -0.00321532 -7.12995e-24)
(1.00579 0.0168567 -9.69522e-22)
(1.00452 0.00113609 0)
(0.994333 -0.00795178 0)
(0.31081 0.0949053 2.18059e-20)
(1.02169 0.0439092 -1.49815e-20)
(0.998644 0.00604079 0)
(0.999311 0.0123613 -6.30634e-22)
(0.993312 0.000832384 -1.04376e-21)
(0.995337 0.00286546 -1.26099e-21)
(1.07509 0.144984 0)
(1.02575 0.0469857 -4.98417e-21)
(0.466094 0.109109 6.05794e-21)
(1.029 0.0930725 9.49444e-21)
(1.15815 0.143116 0)
(1.03766 0.162183 2.29578e-20)
(1.07488 0.0511094 -1.96552e-20)
(0.11624 0.0548423 3.17925e-20)
(1.01543 0.0364039 0)
(1.07839 0.141766 1.31658e-20)
(1.02803 0.0112463 0)
(-0.0263451 0.0175134 0)
(0.919044 -0.0596003 -1.89467e-21)
(1.05389 0.0234937 -2.20518e-21)
(0.993974 -0.00300683 -1.56025e-23)
(0.995822 0.00371472 7.37336e-22)
(1.01878 0.0318163 -1.84877e-22)
(0.99379 -0.00309086 1.65609e-23)
(0.992424 -0.000118312 -3.97933e-22)
(0.993673 0.00204021 2.05997e-21)
(1.02868 0.016552 -1.33027e-20)
(1.05622 0.0834876 -3.09331e-20)
(0.989659 -0.000162012 0)
(1.02217 0.0429186 0)
(1.11778 0.14944 4.87174e-20)
(0.286179 0.0666018 1.18229e-20)
(0.469939 0.102597 -2.56433e-20)
(1.10884 0.159141 -5.09741e-22)
(1.00076 0.0192938 0)
(1.00107 0.00454401 1.97899e-21)
(1.00913 0.0133036 -1.86775e-20)
(0.943727 0.177337 1.52707e-20)
(0.893914 -0.0258373 5.77429e-22)
(-0.102974 -0.00284821 -6.28805e-20)
(0.991633 -0.00126862 0)
(0.994106 0.0033748 -2.11358e-21)
(1.01756 0.00264863 0)
(1.0104 0.0245279 -1.16192e-20)
(0.991571 -0.00127167 -9.03795e-22)
(0.993512 -0.0031557 0)
(1.01511 0.0141514 1.14336e-20)
(1.05176 0.10171 -1.12484e-20)
(0.999002 0.0061589 0)
(0.109887 -0.00628835 0)
(0.997428 0.0126733 4.59367e-22)
(0.99793 0.00754531 -6.35473e-21)
(0.309769 0.0890025 4.02795e-20)
(1.02884 0.0115939 -1.31884e-20)
(0.996572 0.00904651 0)
(0.999386 0.00611703 1.89089e-21)
(0.190037 0.0409981 1.79969e-20)
(1.02025 0.107351 4.22724e-21)
(0.990041 -0.000292706 -1.72715e-22)
(0.863364 -0.0659437 0)
(0.99512 0.00495979 4.52189e-21)
(0.996128 0.00809062 2.82534e-21)
(0.865536 0.172872 3.8326e-20)
(0.995565 0.0030386 1.28496e-21)
(0.938469 0.10079 3.50017e-21)
(1.05538 0.0400032 2.60971e-20)
(0.990812 0.0302644 4.39802e-22)
(0.995227 0.00593725 0)