/*--------------------------------*- C++ -*----------------------------------*\
| =========                 |                                                 |
| \\      /  F ield         | OpenFOAM: The Open Source CFD Toolbox           |
|  \\    /   O peration     | Version:  v2012                                 |
|   \\  /    A nd           | Website:  www.openfoam.com                      |
|    \\/     M anipulation  |                                                 |
\*---------------------------------------------------------------------------*/
FoamFile
{
    version     2.0;
    format      ascii;
    class       volVectorField;
    location    "200";
    object      ddtCorrDdt0(U);
}
// * * * * * * * * * * * * * * * * * * * * * * * * * * * * * * * * * * * * * //

dimensions      [0 1 -2 0 0 0 0];


internalField   nonuniform List<vector> 
13917
(
(0.0173779 0.00245383 -1.54021e-18)
(-0.0168527 0.0105541 2.35956e-18)
(-0.00485927 0.00426063 1.23859e-18)
(-0.00211848 0.00220684 3.43135e-19)
(-0.0136489 0.00485385 3.08437e-19)
(-0.0181789 0.00771001 9.76099e-19)
(-0.00286904 0.00452353 -2.96806e-19)
(0.0279699 0.0487424 -7.11521e-19)
(-0.00118145 0.00440387 -1.24859e-17)
(-0.00413892 0.00451389 -1.79498e-18)
(0.0214187 0.0427203 -4.41078e-19)
(-0.00234302 0.00122443 -2.4683e-18)
(-0.000540273 2.13735e-05 -1.98089e-18)
(0.0427108 -0.102205 -7.54443e-19)
(-0.00768316 -0.00432952 1.02853e-19)
(0.0163806 0.00203344 -4.75181e-18)
(0.00118243 2.63823e-05 -1.16398e-19)
(0.0199567 0.0245988 -2.39559e-18)
(-0.00248561 0.00492538 -4.01344e-18)
(0.019006 0.00853735 -1.00537e-18)
(-0.00484976 -0.00113932 -7.25847e-19)
(-0.00274671 -0.00174548 -2.78565e-20)
(-0.00283243 0.0064368 -4.50947e-18)
(-0.00271469 -0.0018487 -4.08885e-20)
(-0.0034901 0.00234014 -2.79377e-18)
(-0.00294946 -0.00156855 2.21664e-19)
(0.0107582 0.0690711 -5.35946e-18)
(-0.0030813 0.00184901 -7.36369e-19)
(0.00708329 0.00246841 -1.95506e-19)
(-0.00325931 -0.000413714 -1.08761e-20)
(-0.000190245 0.000797648 -3.06663e-18)
(-0.00288798 0.0063673 -2.93871e-18)
(-0.0026966 0.0018943 1.28108e-18)
(0.0189063 0.00213528 1.23642e-17)
(0.00236369 -0.00193003 -1.09957e-20)
(0.033168 0.0649479 -7.34094e-19)
(-0.00446193 0.00103398 -2.5199e-19)
(-0.000411912 -5.19548e-05 8.8082e-20)
(-0.00277959 0.00459552 -3.89062e-18)
(-0.0101191 0.00195301 1.23708e-19)
(5.97824e-05 3.07652e-05 1.79284e-19)
(0.00305353 2.54589e-05 -2.32733e-20)
(-0.00106617 0.00379729 -4.1388e-18)
(-0.00330763 0.00541551 -3.54931e-18)
(-0.00317065 0.00540681 2.37488e-18)
(0.0120206 0.0130056 -8.47078e-19)
(-0.0050231 -0.000545239 -1.91072e-20)
(-0.0207481 0.016427 2.31322e-18)
(-0.0585314 0.11187 9.00157e-20)
(0.00231453 -0.00196167 1.98348e-20)
(-0.00230845 0.00116812 1.46504e-18)
(0.00285264 0.00970357 -1.75844e-19)
(0.016223 0.00162589 6.28703e-18)
(-0.00281523 0.000161 2.16433e-19)
(-0.00289839 0.000385915 3.55078e-21)
(0.00262759 0.00888931 2.43601e-18)
(-0.00229623 -0.000897041 4.11394e-18)
(-0.00288556 0.00645204 9.72056e-18)
(0.00300686 2.97586e-05 -4.84662e-20)
(0.0124678 0.0147646 2.9079e-18)
(0.0445475 -0.0180717 1.98118e-19)
(0.00123518 -0.00593874 -7.58296e-20)
(-0.00134211 9.91601e-06 -2.95632e-20)
(-0.00338586 0.00229188 -1.18376e-18)
(0.0177078 0.00139694 1.58427e-17)
(0.00999031 -0.0278199 2.80912e-19)
(0.0111756 0.00674247 1.5547e-18)
(0.0261174 0.0666439 1.72456e-18)
(0.0279741 0.0275465 3.00735e-18)
(0.0176108 0.00179005 1.43179e-17)
(0.00771683 0.00192254 1.45046e-17)
(0.018622 0.00214288 -6.6878e-19)
(-0.00111409 0.00161511 1.73666e-18)
(0.00296975 3.61149e-06 5.1079e-20)
(-0.00533355 -0.00160483 4.728e-19)
(-0.00409029 0.001922 1.71305e-18)
(-0.00575467 0.000142784 9.63718e-20)
(0.00292552 2.35577e-05 5.06391e-20)
(-0.00397555 0.00190231 -1.25404e-18)
(-0.00277108 0.00193648 -1.8274e-18)
(-0.00353459 -0.000711365 -2.17091e-20)
(0.00126774 2.19996e-05 3.26514e-20)
(-0.00106149 0.0015631 -1.8281e-18)
(0.00207658 0.00315867 8.27826e-18)
(-0.00119071 -1.71673e-05 7.41025e-19)
(0.0257767 -0.0459877 5.49071e-20)
(-0.00282597 0.00637209 5.92567e-18)
(-0.00115854 -7.78188e-06 -1.11146e-18)
(-0.00969847 0.00146894 -3.13679e-19)
(0.00130998 3.54982e-05 1.23643e-19)
(0.00142347 0.000103615 2.83964e-21)
(-0.00102142 0.00388254 3.6777e-18)
(-0.0399131 0.0641711 5.071e-19)
(0.00242231 -0.00143219 4.61136e-21)
(-0.00358206 0.000234606 6.99242e-19)
(0.0104756 0.00219912 9.89802e-19)
(-0.0485477 0.0102848 -2.7691e-18)
(0.0010969 -3.26543e-05 8.30586e-20)
(-0.00115679 -3.01704e-06 2.31184e-19)
(-0.0522391 -0.000520894 -4.26063e-18)
(-0.000618781 4.93847e-05 1.16449e-19)
(-0.000735053 7.63816e-05 -1.46562e-19)
(-0.00363424 -0.000660213 -3.93205e-20)
(0.00107507 -0.000111166 1.18816e-19)
(-0.0061339 -0.000507019 -2.87169e-19)
(-0.0106258 0.00630189 -1.07087e-17)
(0.00805862 0.00810293 6.25743e-18)
(0.00219294 -0.00676969 3.72247e-20)
(0.00307706 6.30528e-05 -1.21239e-20)
(0.0112231 0.0834115 1.12789e-17)
(-0.000481803 0.000141094 -2.04625e-19)
(0.0189655 0.00223687 -1.36443e-17)
(0.00594989 -0.000805219 -1.91965e-18)
(-0.0262165 0.0206762 -4.19165e-18)
(0.0172908 0.00149544 -1.59197e-17)
(-0.00437326 0.00177388 -8.57857e-19)
(-0.00248046 0.0051113 -2.35065e-18)
(0.000715751 0.000167916 5.81887e-21)
(-0.00401137 0.00430661 -3.90147e-18)
(-0.000711425 0.00134945 4.58099e-18)
(0.00140571 2.53075e-05 5.03681e-21)
(0.00282723 -6.26107e-05 -9.97205e-20)
(0.0154852 0.00734675 -2.21489e-18)
(-0.000856525 0.00622314 -1.07541e-18)
(0.0191821 0.00188561 -1.13036e-17)
(0.0109366 0.00262119 2.31854e-18)
(-0.00319107 0.002299 7.01964e-20)
(-0.00528228 -0.00240849 -7.63865e-20)
(0.000846777 -0.00237901 1.65891e-19)
(-0.000974483 0.00600802 -1.34658e-18)
(-0.00203512 0.00563556 -2.00495e-18)
(-0.00443726 0.0363518 -1.16746e-19)
(0.0227869 0.00354802 -2.41296e-18)
(-0.004377 0.00169112 -1.79693e-19)
(-0.00309444 0.00619411 -8.12176e-18)
(-0.00215619 0.0861215 -1.23589e-18)
(0.0488558 -0.0103096 4.59814e-18)
(0.0196418 0.00237684 -1.62101e-17)
(-0.00118425 -0.00178376 -8.0766e-19)
(-0.000281778 -3.07503e-05 -2.3295e-19)
(-0.0460903 0.18438 7.21303e-19)
(0.0028831 2.36738e-06 -9.08747e-20)
(-0.0131896 0.00679738 8.68131e-18)
(-0.00163399 -0.00112189 -2.72551e-19)
(-0.00115293 0.00142887 2.97913e-19)
(0.00294027 0.000162282 -1.85386e-20)
(0.00604989 0.00201038 -1.52824e-18)
(-0.0543267 -0.0136778 -1.76542e-19)
(-0.00851154 0.0189398 4.32055e-17)
(-0.00288503 0.000229076 -1.22859e-19)
(-0.0085574 0.0013711 3.29565e-20)
(-0.000981776 7.48e-05 1.63514e-19)
(-0.00109901 0.00137427 5.11917e-18)
(-0.000657819 0.00135987 9.18458e-19)
(-0.0479493 0.0199484 1.15202e-18)
(-0.00364412 -0.00398291 1.48541e-20)
(0.00111322 -0.000131809 -4.95949e-20)
(0.0231038 0.00392626 -6.35518e-18)
(0.000386705 6.80526e-05 6.59066e-20)
(0.000659057 0.000126796 -2.76829e-20)
(-0.00142071 -0.000308148 3.3966e-20)
(0.0151148 -0.00733303 -9.36629e-18)
(-0.00524847 0.00126811 -1.65465e-19)
(-0.0827286 0.21972 -3.85227e-19)
(0.0172511 -0.0393369 2.90795e-18)
(-0.0342556 -0.000777326 -6.04502e-18)
(0.0105605 0.000643501 -4.34385e-18)
(-0.0442339 -0.064281 -2.87723e-17)
(-0.00186892 -7.82298e-05 -8.0822e-21)
(-0.000100706 -0.00270551 -5.044e-19)
(-0.00293973 -0.0020471 -2.79856e-20)
(0.0220982 0.00249193 5.34964e-18)
(-0.0010883 0.0043588 1.05135e-17)
(0.0597658 -0.0124342 3.53105e-18)
(-0.00347195 0.0118375 -4.83385e-19)
(-0.000297812 9.81893e-05 6.28376e-20)
(-0.00204821 0.0022389 5.93775e-20)
(0.00448986 0.0107064 8.49661e-19)
(-0.00198089 0.00556887 5.20985e-18)
(-0.00530576 0.00147437 4.27027e-19)
(-0.00123979 0.00373166 -2.38762e-19)
(-0.00278891 -0.00203755 -1.9675e-20)
(-0.00236814 0.00111995 -5.11018e-19)
(0.00434099 0.00343376 1.71434e-18)
(-0.00399426 0.0041171 1.59401e-18)
(-0.0041656 0.0401295 6.11785e-18)
(-0.0023388 0.00106341 3.79405e-19)
(0.00524502 0.00381295 -2.28019e-18)
(-0.00334501 -0.00042871 1.52986e-20)
(0.0441764 -0.0336677 8.46556e-20)
(-0.00390564 0.0123996 -9.14543e-19)
(-0.00308758 0.00555849 1.35966e-17)
(0.00213213 0.00483745 -4.16764e-18)
(0.017601 0.00313567 -1.46748e-17)
(0.00236166 -0.00149127 -1.64428e-20)
(0.0190903 0.00189105 -1.02747e-17)
(-0.00450047 0.0033016 -2.49657e-18)
(0.0223905 0.0037266 2.67735e-18)
(0.00234477 -0.0018601 1.87465e-20)
(-0.00329954 -0.00367874 3.42637e-20)
(-0.00516993 0.000260894 -1.86576e-19)
(0.0173386 0.00182079 -4.21412e-18)
(0.019066 0.0021456 6.32638e-18)
(-0.00450905 0.000623636 1.76625e-19)
(0.0471647 0.0620108 3.38102e-18)
(-0.00229405 0.00542052 7.75025e-19)
(-0.00893411 0.00171309 -1.57487e-21)
(0.0028813 -4.16674e-05 2.77405e-20)
(0.00387338 0.00962767 -1.16864e-18)
(-0.0035227 -0.000832715 1.40422e-20)
(0.000726629 -0.00145186 -1.43517e-19)
(-0.0262795 0.0112303 -1.90785e-19)
(-0.0281507 0.014928 -1.17159e-18)
(-0.0148328 0.0135338 5.3889e-18)
(-0.00305228 0.0062459 8.80533e-18)
(-0.00245588 -0.0024271 1.00048e-18)
(0.0154338 0.00124045 -6.99657e-18)
(-0.000788495 -9.70289e-05 -7.0248e-19)
(0.00202363 0.000628185 1.12884e-20)
(0.00200257 0.000677348 -4.50907e-19)
(-0.0511765 -0.0515734 1.77406e-17)
(0.00326413 0.00436882 -5.23254e-18)
(0.00844507 0.00316199 9.57107e-18)
(-0.000818156 0.000292165 -1.87505e-18)
(-0.00113882 1.79086e-05 -1.6568e-20)
(-0.00583737 0.0987327 3.88459e-18)
(0.0183568 0.00184556 1.88706e-17)
(0.0018832 0.000532462 -1.37975e-19)
(0.00183521 0.000521007 -1.55417e-19)
(9.28357e-05 2.30397e-05 1.69152e-21)
(0.0020632 0.000733131 2.78844e-19)
(0.00204183 0.000788947 -2.27561e-20)
(0.0183777 0.00210864 -2.70361e-18)
(-0.0122867 -0.00123482 -5.48116e-18)
(-0.00300368 -0.00116417 -1.52014e-20)
(-0.00220753 -0.000101848 7.83615e-21)
(-0.001334 0.00888389 2.03803e-18)
(0.0188084 0.00192252 1.02419e-17)
(0.000793015 6.65122e-05 1.77972e-19)
(-0.000828035 0.000264799 -1.06103e-19)
(0.0366718 0.0700658 2.19281e-18)
(-0.0130985 0.00740237 1.04521e-17)
(0.00311135 0.0038859 -4.79318e-18)
(0.0156751 0.00195011 -1.64098e-18)
(-0.000361545 0.0152393 -7.04031e-20)
(-0.00167537 -0.00107333 2.04965e-19)
(-0.0244908 -0.0588369 9.95666e-18)
(-0.00103599 0.00867941 -3.02256e-18)
(0.00367976 -0.000106804 3.03835e-18)
(-0.00240435 0.00608198 4.27326e-18)
(-0.00438919 0.000609636 -2.92241e-19)
(-0.00819789 0.00580138 1.81887e-17)
(-0.000803354 0.00141435 -3.93393e-19)
(-0.00782728 0.00689096 -7.07044e-19)
(-0.00410591 0.0109264 -5.06249e-19)
(-0.00307021 -0.00127628 2.5842e-20)
(3.71779e-05 1.01235e-05 -3.1972e-19)
(-0.00328985 0.00235035 -4.94114e-19)
(-0.0139953 -0.00795692 -3.40542e-19)
(0.00304325 -0.00153864 2.62278e-21)
(0.019834 0.00206109 1.47325e-18)
(-0.0623734 0.277179 -2.31856e-18)
(0.00286641 -0.000280867 -5.74783e-21)
(0.00181757 0.000458415 2.2216e-19)
(-0.00406033 -0.00384308 -2.8057e-20)
(0.00184065 0.000424256 -1.22431e-19)
(-0.000758022 0.00141818 -4.89372e-18)
(-0.000843096 3.49741e-05 -6.62511e-19)
(-0.00411608 0.00632797 -3.20698e-18)
(0.00294505 -0.000251893 -2.54278e-20)
(0.0196425 0.0027016 -6.70225e-18)
(0.00744631 0.00630222 -4.37679e-18)
(-0.00211098 0.000663419 4.20778e-19)
(-0.00952709 -0.00441152 3.12008e-19)
(0.0207738 0.0163164 -1.58654e-19)
(0.00138988 0.00162192 -2.47531e-20)
(-0.0419982 -0.00339371 8.74392e-19)
(0.020227 0.00210512 -1.63291e-18)
(0.00145875 0.00155918 3.24386e-20)
(0.0182138 0.00182758 -3.80107e-18)
(0.00298081 -0.00141636 4.75029e-21)
(0.0162981 -0.00833049 1.27305e-17)
(-0.000289071 7.10669e-05 -1.69423e-19)
(-0.00566314 -0.00353145 4.92626e-19)
(-0.00313055 -0.00130408 2.50325e-20)
(-0.00140765 -0.00137176 -5.32472e-19)
(-0.00126778 0.00364752 4.8391e-18)
(8.22974e-05 -9.72646e-05 -2.3135e-19)
(-0.0209059 0.00484075 3.94747e-18)
(-0.00575251 0.00328194 9.91806e-19)
(-0.0909538 0.303619 -4.33934e-19)
(0.00291495 0.000250075 3.12521e-20)
(0.0489257 0.0421476 1.77275e-18)
(0.019397 0.00243453 3.84703e-18)
(0.000880434 0.000108642 -8.33515e-20)
(-0.00290195 0.0071763 1.52855e-17)
(-0.0150462 -0.00290414 -2.34032e-19)
(-0.00452238 0.0015772 1.45874e-19)
(-0.0141222 0.00237524 -4.74205e-19)
(-0.0038989 0.0020069 -4.71383e-19)
(0.00262253 -0.00141152 -6.02848e-21)
(0.00018375 -0.000130362 -7.52537e-20)
(0.00467147 0.0125688 1.00701e-18)
(0.0322507 0.00922871 5.53521e-19)
(-0.00776473 0.00660324 -3.79824e-19)
(-0.0037914 0.00198217 -1.24321e-18)
(-0.000874028 0.000236847 -2.08062e-18)
(0.0229687 0.00387208 9.11389e-18)
(0.0163863 0.00176491 8.35289e-18)
(0.00115148 -0.00205296 2.43779e-19)
(-0.0113899 -0.0036492 -1.01636e-21)
(-0.00451411 0.00166504 -2.27784e-19)
(-0.0228948 0.0549021 3.93752e-19)
(-0.00434218 0.00630888 5.20638e-18)
(0.0121053 0.00617241 4.02027e-18)
(0.0589367 -0.0133814 7.70492e-19)
(0.0106025 -0.00734171 9.0251e-21)
(-0.00290102 0.032422 -2.82513e-19)
(-0.00851155 -0.0054389 -2.04189e-19)
(-0.00260735 0.00336509 -7.93924e-18)
(-0.0138039 0.0693916 -5.44433e-19)
(-0.00484694 0.00442316 -2.01607e-18)
(-0.000744116 2.70877e-05 2.11784e-18)
(-0.00681643 -0.00441677 -5.97681e-20)
(0.0227306 0.064954 -5.02985e-18)
(-0.00334179 -0.00245595 -1.83128e-20)
(-0.0180379 0.0136265 1.52998e-18)
(-0.00296422 0.00556751 -9.73369e-18)
(0.00105998 2.59778e-05 4.94505e-20)
(0.0219957 0.00240923 -5.56885e-18)
(-0.00116346 -1.67055e-05 -5.18016e-19)
(-0.0017812 0.0064083 -5.12829e-19)
(0.000393578 0.00340466 -1.91102e-19)
(0.0233306 0.00771844 -3.44641e-18)
(0.000163496 -0.000733553 2.14351e-19)
(-0.00709891 0.00622272 1.19529e-18)
(-0.00126239 0.00503422 -5.70793e-19)
(0.0100475 -0.00015196 9.90893e-20)
(0.00126972 6.13319e-05 6.80814e-21)
(-0.00257318 0.00603473 -1.12028e-17)
(-0.0122728 0.00572288 -2.43117e-18)
(-0.00343557 0.000356557 2.73909e-19)
(-0.00336783 -0.00271026 1.12191e-20)
(0.0192535 0.00225059 3.12102e-18)
(-0.0128678 0.00611379 6.15209e-18)
(0.0368099 -0.0126412 5.91127e-19)
(0.0577603 -0.0725572 1.1256e-18)
(0.00142415 0.00143189 -1.57908e-19)
(-0.00303816 -0.000911096 -2.99853e-19)
(-0.0129347 0.00795973 -1.42457e-18)
(-0.000217035 0.0299095 3.31405e-18)
(0.00150721 0.00137565 -2.63901e-20)
(-0.0164191 -0.000338107 2.10758e-19)
(-0.00261054 0.000732013 8.1301e-19)
(-0.00882649 -0.0119278 -3.53044e-19)
(-0.00722448 0.00650247 -1.59493e-19)
(0.000840335 0.0061199 7.98535e-18)
(-0.00637806 0.0199516 -9.39467e-19)
(-0.0409053 -0.00799684 -8.27608e-19)
(-0.00201245 0.00626108 -2.5163e-18)
(0.0179767 0.00305441 2.34344e-18)
(0.000805318 -0.0025151 -1.03659e-19)
(-0.00341307 0.000442316 1.02697e-18)
(-0.0156018 0.006907 4.22125e-19)
(-0.00262381 0.00314137 2.18588e-18)
(0.000819036 3.81369e-05 5.62998e-20)
(0.0170012 0.00247112 1.18487e-17)
(-0.00193783 0.00625033 5.82221e-19)
(0.0022665 -0.0169059 -1.36013e-20)
(-0.00299258 0.000375916 -6.78438e-19)
(-0.00345755 0.0261179 4.48853e-19)
(-0.0120543 0.000165874 2.9379e-20)
(-0.00950052 0.00781466 -5.87493e-19)
(0.00301578 8.96037e-05 -1.44922e-19)
(0.0073721 0.00267753 -1.63621e-18)
(0.0166649 0.0143327 -9.92115e-19)
(0.000371336 0.0054958 -7.44245e-19)
(-0.00217985 0.000680278 2.17712e-18)
(-0.00668576 0.0013496 8.63735e-18)
(-2.70408e-05 0.00414799 3.55709e-19)
(0.0203538 -0.045147 9.64765e-18)
(0.00257973 0.00435444 4.53449e-18)
(0.00304032 9.67929e-05 -5.16469e-20)
(-0.030835 0.0422086 6.92203e-19)
(-0.00325024 -0.00139584 -3.98892e-21)
(0.0219793 0.0384756 7.76615e-19)
(0.00197627 -0.000766607 3.04934e-21)
(0.0171437 0.00909145 -8.16708e-18)
(0.0236785 0.0437578 -3.19748e-19)
(-0.00422558 0.00118173 -3.1721e-19)
(0.00417985 0.111867 -3.80176e-18)
(-0.0320074 -0.0111915 -4.1272e-19)
(-0.00420531 0.00048223 2.06181e-19)
(0.0266276 -0.0233129 1.54963e-18)
(-0.00568255 0.00787043 -5.51537e-18)
(-0.00398171 0.00125166 -1.60435e-19)
(-0.000920185 0.00343609 -6.58509e-18)
(-0.00296336 -0.000672685 2.41412e-19)
(-0.0331439 -0.0170595 4.37406e-19)
(-0.00456634 0.00421429 3.66345e-18)
(-0.00115706 -8.43359e-06 8.35259e-19)
(-0.00215034 0.0044978 -2.41687e-18)
(-0.00372566 0.0020679 -2.31127e-19)
(-0.00142156 -0.00119062 -2.78862e-19)
(-0.000671134 -0.000620614 1.01638e-18)
(0.000588442 -0.00271168 1.44198e-19)
(0.0352986 -0.0142515 -2.80206e-18)
(-0.0375996 0.00667692 5.82282e-18)
(-0.00319513 0.000414897 3.16197e-19)
(0.000912475 -0.00282536 -7.8427e-20)
(-0.00246234 -0.00179904 1.72844e-19)
(-0.00355249 0.00781053 2.64334e-18)
(0.0587743 0.0637168 7.26272e-18)
(0.000940312 0.00241175 6.59743e-20)
(-0.00184283 -5.05924e-05 -2.56925e-21)
(-0.00422804 0.00624112 -3.96232e-18)
(-0.00603077 0.0260665 1.15641e-18)
(-0.00150122 -0.00139253 2.54036e-20)
(-0.00414166 0.00118185 -1.62393e-18)
(0.0533545 -0.0080506 -1.71571e-19)
(-0.0555968 -0.0298414 2.02045e-18)
(0.012146 -0.0278087 -1.716e-19)
(-0.00266503 0.00481148 6.92229e-19)
(-0.00958998 0.00375344 1.37663e-18)
(0.00277614 0.00105277 -3.15953e-19)
(0.00104424 0.00214418 -1.99713e-19)
(-0.00412501 0.000283181 4.91944e-19)
(-0.000646844 -0.000585355 -9.54705e-20)
(0.00106397 0.00234552 -2.34261e-19)
(-0.00306732 -0.00119934 -9.80666e-20)
(0.00116073 0.00208971 1.49262e-19)
(0.00269445 0.00107354 1.15777e-20)
(-0.0367317 -0.0402658 2.01074e-17)
(-0.00304632 -0.0006229 -5.20953e-19)
(-0.0107926 0.00341273 -8.85775e-20)
(0.019926 0.00280328 4.25642e-18)
(-0.00301809 0.00722909 -8.89936e-18)
(0.000698338 -0.00153146 1.31947e-19)
(-0.00112004 0.00131785 -5.23282e-18)
(0.023031 -0.0205815 1.60977e-17)
(-0.00487799 0.000199372 1.18231e-19)
(0.018538 0.00181068 -3.30371e-19)
(0.000624566 0.00304574 1.69295e-19)
(-0.00119937 0.00048107 1.83869e-18)
(0.000217358 0.00439927 -1.10274e-19)
(0.0021037 0.000861273 -2.49557e-20)
(-0.0044234 0.000960905 4.04208e-19)
(-0.00331083 -0.00138492 2.53012e-20)
(0.0545875 -0.00560627 -1.26723e-18)
(0.00327997 -0.000568667 5.02142e-20)
(-0.0112027 0.00701699 1.68427e-19)
(-0.00122074 0.000462799 -1.28366e-18)
(-0.00254415 0.0058092 -3.83058e-18)
(0.00291454 -0.000477672 -2.58049e-20)
(-0.00340762 -0.0008655 -1.64367e-19)
(-0.000230986 0.0140363 -4.60044e-19)
(0.0397806 -0.0122753 -3.93764e-18)
(-0.00253388 0.000730761 5.62602e-19)
(-0.0164678 0.00656488 7.68291e-19)
(0.000564073 -0.0016351 4.81453e-20)
(-0.000432765 -0.000216187 -1.45837e-19)
(-0.00233005 -0.00183807 -2.21167e-19)
(-0.00324627 -0.00137644 -4.74834e-21)
(0.000770981 -0.00129685 -2.21931e-20)
(-0.00109506 -4.71893e-05 6.9436e-20)
(0.0229638 0.00361549 -2.15586e-18)
(0.057753 -0.0160011 6.66822e-18)
(0.000791453 -0.00122355 8.41475e-20)
(0.0586524 0.0459429 -3.87986e-18)
(-0.00411744 0.00601717 5.35462e-18)
(-0.000737808 7.78588e-05 -1.61043e-18)
(-0.00271793 0.00752877 -2.00469e-18)
(-0.00286783 0.00729578 6.37535e-18)
(0.013703 -0.0232023 1.50196e-17)
(-0.00208705 0.00474371 -2.09891e-18)
(-0.0113608 0.00622525 -6.62273e-18)
(0.0333084 0.00558782 -2.35798e-20)
(0.0331373 0.00513021 -5.2984e-20)
(-0.00327118 -0.00138685 5.09055e-20)
(0.0104997 -0.0197549 -8.42432e-19)
(0.00271132 -0.000498319 -4.51346e-21)
(-0.00433288 0.000490609 -1.85338e-19)
(0.0258368 -0.00551209 -7.71362e-18)
(0.00143993 8.96704e-05 -1.29244e-19)
(-0.00271966 0.000184779 -3.76766e-19)
(-0.00355558 0.000335912 -8.88718e-19)
(-0.00173853 0.00444424 -7.04389e-19)
(-0.00644859 -0.00047295 4.46221e-19)
(-0.00357863 0.0041773 6.51236e-18)
(-0.00262884 0.00636684 5.86273e-18)
(0.00324831 0.00032318 -2.70503e-19)
(-0.0113943 -0.0045297 -1.56388e-19)
(0.021336 0.0151086 3.16691e-18)
(-0.0145622 0.00734628 -1.15891e-18)
(-0.00318087 0.000348133 -1.75835e-19)
(0.0325495 -0.109662 8.86897e-20)
(-0.00349486 0.00613706 -4.8756e-18)
(-0.00561332 0.00343933 -9.45218e-19)
(0.0385623 -0.0407861 1.41999e-18)
(-0.00117752 -1.02322e-05 -1.38863e-18)
(-0.0151906 0.00767466 6.31711e-19)
(0.00587406 0.0102498 5.045e-19)
(-0.000168436 -0.000550175 1.36373e-19)
(0.0226088 0.00384585 3.84602e-18)
(-0.00047973 -0.000208248 4.47719e-19)
(0.00207649 0.000922042 -1.39471e-19)
(-0.00331578 0.00779444 -6.72372e-18)
(0.00080301 0.00296102 -1.38207e-19)
(-0.000739978 -0.000114908 2.32696e-19)
(0.00406921 0.013506 -4.6592e-19)
(0.023047 0.00522216 -1.5481e-17)
(-0.0213373 0.119047 -3.6894e-18)
(-0.00139085 -0.000278614 3.61427e-19)
(-0.0016897 0.00261746 -8.60956e-20)
(0.00353975 0.000241017 1.07697e-19)
(0.027142 -0.00235715 -2.14637e-18)
(0.0637217 0.0168905 -1.46144e-18)
(-0.00307182 0.000244645 1.21408e-18)
(-0.00284639 0.000320306 -8.32109e-20)
(-0.00131648 -0.000260842 -9.08116e-19)
(-0.00416239 0.00988926 -2.51807e-18)
(-0.0468544 0.0520211 1.50435e-19)
(0.00127108 -0.00239469 -1.09694e-19)
(0.000878735 6.05542e-05 3.98658e-20)
(-0.00294907 -0.00375438 -3.31846e-20)
(-0.00137723 -0.00110356 4.02603e-19)
(0.00714007 -0.000618771 1.39863e-19)
(-0.00451676 0.00450952 -1.57389e-18)
(0.00135836 9.04161e-05 1.53712e-20)
(-0.00261808 0.00640022 -3.65116e-18)
(-0.000159341 -0.00050937 -3.86681e-19)
(-0.00257005 -0.00160543 1.76494e-19)
(-0.00362437 0.00205861 1.25422e-18)
(0.0155187 0.00547527 1.29207e-18)
(0.00163778 -1.21811e-05 6.60319e-21)
(-0.00202549 0.00350609 9.29962e-19)
(0.00294076 -0.00162129 9.13016e-22)
(-0.00252805 0.00573695 -9.30948e-18)
(-0.00199087 0.0073693 -2.19764e-18)
(0.00229726 -0.0148173 -1.01067e-18)
(-0.00360922 0.0112441 1.25443e-18)
(-0.0504922 0.00753951 3.11184e-18)
(-0.00358404 0.00178231 -5.47964e-19)
(0.015567 0.0138655 1.12862e-18)
(0.0217833 0.00358659 -3.25171e-18)
(-0.0258382 -0.0284289 -7.79987e-18)
(0.0201642 0.00308072 -9.15291e-18)
(0.00137054 -0.00177696 -1.07553e-20)
(-0.00216059 -0.00200927 1.30404e-20)
(0.00324404 0.000416892 1.69298e-20)
(-0.0016511 0.000675237 6.66922e-19)
(0.0178807 0.0017539 -6.3915e-18)
(0.00141801 0.00176405 3.74474e-19)
(0.00735444 -0.0594658 8.25376e-20)
(-0.00437907 0.00338766 2.05993e-18)
(0.0189548 0.00264108 -9.29577e-18)
(-0.0469579 -0.00118872 3.17881e-18)
(-0.00118903 0.00382147 5.85679e-18)
(-0.0156406 0.0137576 2.07076e-17)
(0.000877998 -0.00121667 3.14575e-20)
(-0.00266199 0.00693523 -7.00506e-18)
(0.00121978 -4.30663e-05 -3.26453e-20)
(0.00418926 -0.00100581 -1.06119e-19)
(0.0203229 0.00257404 -5.5807e-18)
(0.000803074 0.00271338 -1.77563e-19)
(-0.00522626 0.00537488 -3.87612e-18)
(-0.00101981 2.97089e-05 -1.13617e-20)
(-0.000746052 5.71434e-05 1.64987e-18)
(-0.00230065 -0.00198339 1.35456e-19)
(-0.00357793 0.00431295 -1.27487e-17)
(0.0067055 0.000445517 -1.45578e-19)
(0.0017503 0.000296493 1.90042e-20)
(-0.00350353 0.00557401 1.02181e-17)
(-0.00288168 0.00762327 -4.23787e-18)
(0.00939604 -0.0697107 4.31636e-18)
(-0.00232615 0.00293341 -6.8629e-18)
(0.0229647 0.00445467 1.71734e-19)
(0.0143139 -0.0276065 -2.06848e-17)
(0.00162878 -1.71344e-05 -1.64336e-20)
(0.0181751 0.00172875 -1.08438e-17)
(-0.00144558 9.34455e-05 -3.12889e-20)
(0.0509009 -0.00994616 -1.23147e-18)
(-0.0534274 -0.0176929 3.88197e-19)
(0.00447787 -0.000930172 -2.90882e-20)
(-0.012448 0.00664681 -1.75756e-19)
(-0.000759355 5.75666e-05 8.8022e-20)
(-0.00357365 0.00606999 -1.13018e-19)
(-0.00117116 0.00362278 -4.11025e-18)
(0.000949502 0.00263644 3.70465e-19)
(0.00114938 -4.85985e-05 -9.3153e-20)
(-0.000908531 1.56788e-05 -2.12317e-18)
(-0.00815062 0.00306726 1.09434e-17)
(-0.00153375 -0.000191343 -9.82034e-19)
(-0.0027534 0.00643644 2.08715e-18)
(-0.00266102 0.000123588 -2.09571e-19)
(0.00171517 0.000303423 2.1838e-20)
(0.000464826 9.47094e-05 -3.59337e-20)
(0.0122552 0.0125909 -5.66243e-19)
(0.0201093 -0.0070645 1.45054e-17)
(0.012425 0.0172493 -1.21887e-18)
(-0.00242204 0.00616408 3.33173e-18)
(-0.00434935 0.00451793 9.57783e-19)
(-0.00481648 -0.000670783 -6.60351e-19)
(0.0190909 0.00190446 -1.59517e-17)
(0.00205455 -0.00079128 9.14728e-21)
(0.0327114 -0.00853007 3.64281e-18)
(-0.000830804 2.44629e-05 5.70847e-19)
(-0.00367559 0.0074262 -1.75413e-17)
(-0.00169328 0.000647631 5.25363e-19)
(-0.00737217 0.0018626 -8.27577e-18)
(-0.00129699 -0.00109624 -4.54937e-19)
(0.0084134 -0.00123432 1.53681e-19)
(-0.00113736 0.00148836 -1.88088e-18)
(-0.00777991 -0.0784362 -4.24584e-18)
(-0.00380815 0.00630409 6.5017e-18)
(0.0176283 0.00117966 2.5811e-18)
(0.00149365 5.54946e-05 -2.86869e-20)
(-0.00407923 0.00613136 -2.62418e-18)
(0.00204381 -0.00215732 1.72916e-19)
(-0.000617669 4.7358e-05 -8.34689e-21)
(0.0179863 0.00335502 1.50954e-18)
(-0.0433952 -0.0167648 -1.38695e-18)
(0.00228281 -0.00213229 -5.32483e-20)
(0.00124295 0.00574808 -4.05719e-18)
(-0.000867004 0.000264221 2.16408e-18)
(0.00385987 -0.000638499 -1.05553e-19)
(-0.000849148 4.98045e-05 -1.37854e-19)
(0.0181151 0.00327609 -5.86106e-18)
(-0.0015275 -0.000153621 1.49609e-18)
(-0.0160838 -0.00619399 3.6535e-19)
(0.00133911 0.00181993 1.69069e-19)
(0.00220102 -0.00212004 5.08641e-20)
(-0.00231876 0.0031571 -1.00939e-17)
(-0.00087413 6.48793e-05 4.4457e-20)
(-8.77714e-05 0.00541921 -2.06099e-18)
(0.0012583 8.81866e-06 -2.88705e-20)
(2.91337e-05 -0.000701526 -2.75794e-19)
(0.0421476 -0.014111 -4.10696e-18)
(-0.00280446 0.00644156 -4.83275e-18)
(-0.00299198 0.000191789 -1.17473e-18)
(0.0170828 0.00193226 -1.40284e-17)
(-0.00515148 0.00548519 -2.71416e-18)
(-0.000438041 0.0455769 -2.32644e-19)
(0.00643577 0.0110867 -2.85155e-18)
(0.000897438 -0.00114805 -2.3004e-20)
(-0.00856785 -0.00518459 6.37237e-19)
(0.0153141 0.00619766 7.60835e-19)
(-0.00588808 0.00666956 -9.83675e-18)
(-0.00439458 0.000538522 9.14474e-20)
(-0.00441665 0.00108473 1.91009e-19)
(0.00999617 -0.000959193 3.5142e-19)
(0.00136093 6.63192e-06 1.57309e-20)
(-9.1116e-05 -0.0026711 -9.00766e-20)
(0.00891803 -0.00432112 7.98705e-20)
(-0.00162314 0.0077181 -4.58383e-19)
(-0.00445986 0.00265394 -5.71923e-19)
(0.0268459 -0.0530152 9.39091e-18)
(-0.00365736 0.00634064 -6.72083e-18)
(0.0360985 0.0993526 -1.93762e-18)
(0.0642059 0.0132237 1.062e-19)
(0.0383314 0.00559927 -4.01199e-20)
(-0.00599218 0.00614636 -1.18797e-18)
(0.00143854 0.00474502 2.16104e-18)
(0.0184236 0.00185906 -3.48173e-18)
(0.00254695 -0.00147749 1.32159e-21)
(0.0198953 -0.0143296 1.10038e-19)
(0.00323709 0.00973611 -1.6639e-20)
(-3.42735e-05 -0.000684196 7.04495e-19)
(0.00155091 3.13153e-05 -7.24491e-20)
(0.000364765 9.5024e-05 1.25917e-19)
(0.00357017 0.00034964 1.11479e-19)
(-0.000935597 -7.30894e-05 5.1841e-19)
(0.0183906 0.0017675 2.38984e-18)
(-0.00168183 0.00589841 -5.83761e-18)
(0.000799822 -0.00019933 -2.0487e-19)
(-0.00290616 0.00569314 4.76312e-18)
(0.00153043 5.67541e-05 -5.37429e-20)
(0.012164 0.0052592 -7.10892e-18)
(0.00306451 -0.0013257 -1.19134e-20)
(0.000999557 -0.00234257 2.46366e-20)
(0.0228408 0.00491514 1.4719e-18)
(-0.00227138 0.00719273 -4.41852e-18)
(0.0278555 0.036208 1.17092e-20)
(-0.00137978 0.00171044 2.39531e-18)
(-0.00322023 0.00382899 4.29233e-20)
(0.00149508 -0.00204014 -4.41857e-20)
(-0.00154276 0.00226385 -1.96553e-19)
(-0.00301027 0.00495377 5.53533e-18)
(-0.00120199 -0.00162435 4.93844e-19)
(0.0193512 0.00210117 -1.47036e-18)
(-0.00642257 0.00362217 -3.59087e-19)
(-0.0397785 0.0646587 1.57819e-19)
(0.0227145 0.03187 2.4382e-20)
(0.0189437 -0.0113112 -4.89217e-19)
(0.0229491 0.00467777 1.84327e-17)
(-0.00177384 0.0026154 -1.96418e-18)
(0.000989022 -8.325e-05 -4.73224e-20)
(0.00214045 -0.00217581 -3.33715e-20)
(0.0203799 0.00210341 -2.10551e-18)
(-0.0052352 0.123264 -1.0523e-18)
(-0.00466628 0.00335393 -1.59374e-18)
(0.0191909 0.00193111 6.86281e-18)
(0.070442 2.85248e-06 -1.99563e-20)
(0.000129281 -0.000787648 2.52805e-19)
(0.00114292 -0.00217138 -1.41631e-19)
(-0.00450192 0.000896097 6.09697e-19)
(-0.0113875 0.00573181 3.71136e-18)
(0.0209351 0.0224413 -1.32507e-20)
(-0.00397078 0.00642521 3.825e-18)
(-0.00155845 0.00219658 9.76761e-19)
(-0.00211407 0.00351677 2.33619e-18)
(-0.00374723 0.00754167 2.19291e-17)
(-0.00727453 -0.00500388 -7.61547e-20)
(0.000374848 0.00591813 -6.4574e-18)
(-0.00177236 0.00591175 1.42059e-17)
(-0.00349662 0.000155891 7.28891e-20)
(-0.00284009 0.00192371 -4.21026e-19)
(0.000939101 -8.69662e-05 2.43278e-23)
(-0.00305998 0.00487628 -4.6047e-18)
(-0.0117192 -0.00688723 5.00691e-19)
(-0.00591124 0.00786569 9.03654e-18)
(-0.00463215 0.00144094 -2.12581e-19)
(0.00434538 0.00019893 -6.96991e-20)
(0.0192316 0.00202335 3.82437e-18)
(-0.00266047 -0.00634236 -4.64638e-21)
(0.053861 -0.0156873 1.18804e-19)
(-0.00432307 0.00108778 -7.53748e-20)
(-0.0113691 0.00492722 1.00962e-18)
(-0.00395409 0.00368606 -3.25488e-19)
(-0.00568347 0.00662631 7.74635e-18)
(0.00141498 2.74155e-05 -6.78541e-20)
(-0.00248079 0.00692202 -1.31097e-17)
(0.0191998 -0.00607872 -8.52689e-18)
(-0.00454626 0.0304197 -9.84537e-20)
(-0.00161802 0.000757482 -1.27479e-18)
(-0.00465188 0.00153066 2.98946e-20)
(-0.000931685 -4.63112e-05 -3.37816e-19)
(-0.00147188 0.000473148 -2.11227e-18)
(-0.00101252 0.00144543 6.02644e-19)
(0.00870205 0.000391412 -1.55112e-18)
(0.00309998 -0.000658802 2.19331e-20)
(0.010152 0.0130388 1.66258e-19)
(0.000255832 0.00547301 2.16616e-18)
(0.000994774 -0.00107226 -3.75499e-20)
(-0.00653141 0.00769905 -2.41447e-17)
(-0.00125487 0.00436492 1.48303e-18)
(-0.00182195 0.00447316 1.87051e-18)
(0.00108789 0.00520286 -7.17397e-19)
(-0.0031152 -0.000961854 2.5768e-19)
(-0.00269352 0.00688424 8.83999e-18)
(-0.0369482 0.0162413 -3.50181e-18)
(0.00168269 0.000136108 6.81688e-20)
(-0.00234048 0.00700526 2.92047e-18)
(-0.00333144 0.0147823 -3.01797e-20)
(-0.0018222 0.00584846 -2.83277e-18)
(0.000131564 -0.00203972 3.84499e-21)
(0.000648669 -0.00137519 9.22857e-20)
(3.1107e-05 -0.00265345 -1.91173e-19)
(0.0167712 0.00174498 6.65261e-18)
(-0.0026938 0.00180894 4.31042e-19)
(0.00331891 -0.00124548 -4.65857e-22)
(-0.00181515 0.00632016 5.70915e-18)
(-0.001308 -0.00164972 -3.89488e-19)
(0.000751653 -0.00170903 5.20151e-20)
(0.00203899 0.00887064 -5.90731e-18)
(-0.0326527 0.00343167 8.5557e-19)
(0.013934 0.013352 -8.69493e-19)
(-0.0455964 -0.00928084 -1.96969e-18)
(-0.00777975 -0.00996447 -9.26314e-19)
(-0.0132521 0.00863445 -9.97004e-18)
(-0.000950331 0.00145831 -1.93019e-18)
(-0.0060228 0.000710081 -2.15251e-19)
(-0.00155079 0.000762646 -1.08957e-17)
(0.00448183 -0.000702498 1.16081e-19)
(0.00175474 -0.00922746 -1.75413e-20)
(0.00124696 5.37561e-05 -5.36248e-20)
(0.00153638 1.66956e-05 6.32496e-20)
(-0.00154267 0.00162659 -3.6981e-18)
(-0.00470778 0.00131932 -7.46149e-19)
(0.000465723 -0.0179017 1.70746e-18)
(0.000206939 -0.0019953 -1.323e-19)
(-0.0130573 -0.0345116 -4.30592e-19)
(-0.00175847 -0.00440622 -3.93555e-20)
(-0.0520439 -0.0362464 -2.29096e-18)
(-0.0043015 0.00115091 4.63229e-19)
(-0.00198657 0.00471235 2.51897e-18)