/*--------------------------------*- C++ -*----------------------------------*\
| =========                 |                                                 |
| \\      /  F ield         | OpenFOAM: The Open Source CFD Toolbox           |
|  \\    /   O peration     | Version:  v2012                                 |
|   \\  /    A nd           | Website:  www.openfoam.com                      |
|    \\/     M anipulation  |                                                 |
\*---------------------------------------------------------------------------*/
FoamFile
{
    version     2.0;
    format      ascii;
    class       volScalarField;
    location    "200";
    object      omega;
}
// * * * * * * * * * * * * * * * * * * * * * * * * * * * * * * * * * * * * * //

dimensions      [0 0 -1 0 0 0 0];


internalField   nonuniform List<scalar> 
13917
(
5.3933
0.0408778
0.162505
0.0217738
0.0327715
0.040904
0.0237809
0.0562124
0.0232551
6.58088
0.0690154
0.0215744
0.0241565
1.28941
0.0276454
6.96365
0.0215425
0.068902
0.0848221
7.35282
0.0290101
0.0221165
0.0333763
0.0221348
0.0223126
0.0308402
1.96408
8.70308
0.0409735
0.021714
7.59375
0.0478369
0.0218055
2.91624
0.0227587
0.174002
0.0231124
0.0270438
0.0238198
0.0312844
0.0219814
0.0229484
0.0225713
0.0793559
0.0786243
0.174656
0.0278703
5.82821
1.05592
0.0227835
0.0215612
0.0906597
16.3143
0.0216296
0.0216584
0.0894916
5.34505
0.0333484
0.0227136
0.137627
2.56975
0.0333017
0.0210108
0.0222177
2.86118
0.231696
0.0458168
0.171796
0.0684062
5.6562
2.16925
3.00813
0.0215608
0.0224424
0.0295864
0.0226544
0.0258125
0.0222595
0.0225219
0.0218444
0.0222656
0.0219764
0.0215555
1.77349
0.0211834
1.00814
0.0462758
0.0216701
0.0310192
0.0214869
0.0207015
0.0226539
1.02828
0.0221197
0.0220281
0.045535
1.77654
0.023366
0.0215584
0.252971
0.0211925
0.0211152
0.0222746
0.0219603
0.0258367
0.78435
2.85937
0.0332299
0.0232929
1.91062
0.0215161
2.8784
0.0406948
3.50304
2.86479
0.0229091
0.0784844
0.020567
0.139462
0.0215393
0.0219519
0.0219179
0.0517983
0.0687168
5.37641
2.50264
0.0221256
0.0308907
0.0218179
0.0698111
0.0265323
0.12926
3.46917
0.0228919
0.0562692
1.81111
2.3357
5.28105
0.0328233
0.0269766
0.894806
0.0220763
0.592809
0.0213511
0.0215242
0.0252424
2.01841
0.684843
6.7877
0.021652
0.0291252
0.0209498
0.0215152
0.0215454
1.72935
0.0235925
0.0218559
3.52847
0.021286
0.0207225
0.0211876
2.70401
0.0247419
0.909448
2.64623
1.50935
19.5164
4.68353
0.0198205
0.0346788
0.0223476
3.34072
0.0232416
2.24372
0.05281
0.021135
0.0217743
0.102875
0.0261683
0.025184
0.0225139
0.0222279
0.0215613
0.166303
0.141595
0.120679
0.02155
0.167903
0.0216744
0.35363
0.0532224
0.0721701
0.112592
5.12341
0.0221269
5.15477
0.0235416
3.44412
0.022694
0.0231733
0.0264969
5.46013
6.59094
0.0229958
2.07608
0.0323646
0.0293975
0.0220854
0.100423
0.022279
0.021192
0.0409085
0.0384223
6.73165
0.054675
0.0321581
2.83486
0.0234992
0.0206356
0.0206157
4.86761
0.125989
0.161367
0.0213672
0.0211766
1.73006
6.02429
0.0205367
0.0205123
0.0219447
0.0206584
0.0206435
3.20304
6.09897
0.0220937
0.0199299
0.0552936
3.25641
0.0211427
0.0213655
2.03989
0.632136
0.131133
2.83426
0.0767564
0.0213568
4.34999
0.0575154
0.0378141
0.0544557
0.0228101
6.46786
0.0215411
0.0323068
0.0475308
0.0222525
0.022057
0.022198
0.0321816
0.0230379
3.67724
1.2834
0.0220084
0.0205135
0.0236999
0.0205198
0.0215444
0.0241385
0.0288272
0.0222047
4.22932
2.77291
0.0214446
0.0275259
0.577422
0.0204307
0.102338
3.29137
0.0204491
4.23934
0.0228342
2.69175
0.0212497
0.0261249
0.0223358
0.0213638
0.117262
0.0244352
1.86677
0.0248259
1.38308
0.0258091
2.03942
5.69404
0.020775
0.0376931
0.0324358
0.0231224
0.0326323
0.022474
0.0223183
0.0235644
0.101869
0.0578999
0.031654
0.0223933
0.0213509
3.50953
8.1913
0.0217149
0.0953347
0.0231339
0.820571
0.092982
2.72606
2.22387
0.228188
0.142957
0.0272921
1.38254
0.815256
0.161651
0.0239204
0.0274703
2.0232
0.0228516
0.045449
0.0711438
0.021367
3.32254
0.0212256
0.0311795
0.0208694
17.4958
0.0208775
0.0301293
0.0325783
0.216999
0.0212093
0.0544925
0.581585
0.0219261
0.0228625
2.86788
0.59406
2.4707
1.33163
0.0204106
0.0219716
0.691259
0.141487
0.0204349
0.0326586
0.0215743
0.0457749
0.0307273
0.0861843
0.0770732
0.0963224
0.0308234
3.09543
0.0218688
0.0219226
0.0339146
0.138279
0.021342
6.21634
0.0307246
0.228352
0.0216984
0.105638
0.0934005
0.96349
0.0227743
0.168895
0.536126
0.0346607
0.021458
0.458246
0.0213247
2.62642
0.123533
0.0227636
0.98903
0.0228019
0.267336
0.0211525
6.52526
0.28359
0.0227174
1.75613
0.0807899
0.0225749
2.44713
0.155682
0.0224375
0.122036
0.0218242
0.083601
0.159245
0.0212483
0.0235312
0.0223581
0.0213157
0.0209974
0.0219308
2.4944
1.1679
0.0217919
0.0221123
0.0219299
0.0370445
1.22463
0.0205217
0.0198286
0.0913773
0.102557
0.0213903
0.0226284
2.3028
1.39979
0.232298
0.0900833
0.418282
0.0212397
0.0204652
0.0273455
0.0209823
0.0205451
0.0221689
0.020488
0.0211586
4.99288
0.021859
0.033092
3.87579
0.0375101
0.0212203
0.0215046
2.49335
0.0266555
6.56888
0.0207091
0.0213414
0.0213991
0.0206793
0.023047
0.023082
2.30049
0.0255743
0.805823
0.0213371
0.0277681
0.0262358
0.0222444
0.0729005
2.44391
0.0215519
1.53105
0.021263
0.0214891
0.0218931
0.0228078
0.0211069
0.0223906
3.49099
2.33941
0.0210765
2.0325
0.0897255
0.021772
0.0409966
0.0522658
2.48259
0.0238959
0.747102
0.252288
0.233144
0.023079
0.225794
0.0269518
0.0227348
2.24846
0.0208033
0.0215876
0.0220147
0.0233848
0.0282003
0.126271
0.0386304
0.025514
0.0291786
0.065685
0.0431797
0.0217959
1.23961
0.0283582
0.0248137
2.4484
0.0211908
0.0449339
0.112683
0.0208918
3.46224
0.0216332
0.0206732
0.0379466
0.0207332
0.0229928
0.100093
3.67515
1.71762
0.0211802
0.0218644
0.0251714
2.00614
2.1019
0.0217385
0.021643
0.0211594
0.0436689
0.546322
0.0220052
0.0211387
0.0231017
0.0212798
0.0301998
0.0247079
0.0208962
0.0391881
0.0208919
0.0219319
0.0222879
2.75991
0.0205799
0.0224306
0.0230426
0.0272566
0.0481852
0.0505878
0.0495852
0.432632
0.0221914
0.0526482
3.38436
4.86441
3.51383
0.021612
0.0218814
0.026071
0.0213854
2.90219
0.0204783
0.577317
0.0235185
3.12535
0.113903
0.0225692
3.31385
0.0210752
0.0452662
0.0231792
0.024892
3.21078
0.0206153
0.153655
0.0211059
0.022603
0.021918
0.121599
0.0304719
0.0204678
0.0801189
0.0400787
0.695723
1.36327
3.54887
2.48739
0.020586
5.84662
0.0204666
2.35491
0.684828
0.0256487
0.0759492
0.0211317
0.0281187
0.0224123
0.0206257
0.0232651
0.0240884
0.588
0.0212244
0.0434169
0.0215681
0.0204477
0.0210298
0.149729
2.57364
10.5741
0.0512224
0.0246041
0.253443
3.16248
0.0212304
2.43524
0.0238392
0.0709039
0.0213833
0.359777
0.0212576
0.030921
0.0215354
0.689366
0.0288984
2.90743
0.0210874
0.0281096
0.0225967
0.0213656
2.96521
1.52611
0.023061
0.095262
0.0213505
0.0242254
0.02112
2.8279
0.0212265
0.0323475
0.02046
0.0228362
0.13849
0.0210279
0.0873716
0.0224799
0.020882
2.54277
0.044725
0.021703
18.3828
0.149123
1.21721
0.117303
0.0210468
0.028968
2.87091
0.162848
0.026538
0.0230886
0.0320203
0.0223986
0.0218051
0.241661
0.052208
0.0231885
3.02422
0.0291789
1.33649
2.15463
0.0672154
0.0288743
0.108245
3.75504
0.0223279
0.0403054
0.251729
0.0208916
0.0213707
0.0210177
0.0258702
0.0228069
5.62865
0.027641
0.0214573
0.0660651
0.0210453
2.71016
0.0228228
0.021822
3.63222
0.045052
0.242706
0.0215804
0.0232024
0.0218812
0.0217279
0.0245174
0.0213982
6.04313
0.0259409
0.613047
0.225151
0.0400317
3.55375
0.0218683
0.0229836
0.0227389
3.20028
1.71768
0.0237448
5.9671
0.683577
0.0208965
0.0217671
0.0231027
0.652632
0.094162
0.0291169
0.0217124
0.022431
0.0732282
0.0261052
0.0859373
0.0277331
0.0219925
0.0218624
0.0231832
0.0244446
0.0294885
0.167402
0.0233985
0.0267909
5.77506
0.0493755
0.653855
0.0228664
0.0324706
0.0233946
0.15681
0.0218165
0.0426396
2.5471
0.24033
0.0213988
0.0233803
0.024304
0.0213346
0.0215329
0.0345395
0.0260594
0.152848
0.0875006
0.0210145
0.186688
0.0232286
0.0234007
0.0980346
0.0220573
0.0451511
1.86364
0.0204728
0.0450585
0.0628875
0.0275292
0.0214278
0.0211369
0.0218024
7.03832
0.0217875
0.0231961
0.0308507
0.0214216
0.0213267
0.0852205
1.859
0.0440158
1.42626
0.0417964
0.648718
0.0215371
0.0263651
0.19343
0.0256319
0.0389874
0.0212839
0.0213968
0.0215662
0.0237232
0.0529231
0.0214296
0.258476
0.0230598
0.687079
0.0228717
0.023847
0.0208736
0.0551423
0.0262852
2.59511
0.0456432
0.0215066
2.76513
0.0219132
3.86751
0.022326
0.122506
0.0251607
0.0215045
0.0213906
3.23513
0.0244065
1.23078
1.34557
0.0213304
0.0276784
0.0199033
0.0297103
0.549323
0.0199735
4.13933
0.022465
0.156689
0.0767069
0.783797
0.0207131
0.0216207
0.0832749
0.0210469
0.0216211
0.0222933
0.0218685
0.0309007
0.0206917
0.431629
0.0220136
5.65659
3.99424
0.888997
0.846822
1.51576
7.55952
0.790169
0.0208393
0.023951
0.0214638
0.0219528
0.0211653
0.0244929
0.0212838
1.13631
0.0216438
0.220665
0.0217474
0.0257551
0.0730155
0.0217591
0.0330892
0.0219183
0.0253108
0.0234755
0.0213355
3.62435
0.056035
0.230318
0.0217169
0.0214736
0.0225445
0.0231329
2.48208
0.0208643
1.40643
0.0212286
0.23795
0.0259581
0.0213254
0.0440078
0.0336116
0.0208875
0.277474
2.40778
0.0233805
0.0549787
0.0210621
0.452389
0.0222041
0.0230837
3.46803
0.021954
0.0218081
0.0647213
3.82743
0.0232217
0.705636
0.319643
0.0230215
0.0238218
0.0219055
0.362445
0.0214521
0.086511
0.0215221
3.5095
0.0261755
2.18592
0.022103
0.0204047
0.284415
0.0234785
0.038826
3.29101
0.0223663
0.0210081
0.739137
0.0230049
0.0239393
0.0514404
0.0223839
2.92042
0.0315279
0.0520321
0.106905
0.0224007
3.40692
0.0221654
0.0480154
0.0213714
3.63512
0.224333
0.0216092
0.0222741
0.0243036
0.0217305
0.0219071
0.0213336
0.0221625
0.021387
0.0249706
0.0204723
0.0222534
0.0510652
2.88118
2.59979
0.0599305
0.0225386
0.272188
0.0212381
0.199682
0.534239
20.7735
0.020595
0.0208586
0.0216997
0.0216545
0.0205589
0.0214095
0.0212729
0.0295051
0.0210139
11.8321
0.745168
0.0211221
3.21846
0.021379
0.0219361
0.0325049
2.79891
0.0482803
0.020931
0.188309
0.0223506
0.022049
0.213057
0.024212
1.58697
0.0218448
0.370926
0.0212211
0.0220552
0.0266649
0.810393
0.0221413
3.00233
0.0337496
0.0242025
0.0241852
0.0214678
0.0211055
0.0651022
0.0272442
0.023102
3.10767
9.60031
0.795976
0.0685754
0.0220177
3.25414
0.0219227
2.21552
0.0455199
0.0235798
0.0220542
2.14691
1.79291
0.271488
0.0238877
0.684485
0.0218626
0.0212836
0.0278306
0.0219753
0.0215112
0.784723
4.05349
0.0220526
0.0240702
3.31453
0.021092
0.0204543
0.522999
2.68752
0.0218907
0.0205666
0.0236226
0.0214905
0.0219923
0.0343011
0.0245414
0.0214545
0.508846
0.0259901
0.0301804
0.549085
0.0332712
3.52411
0.0215946
0.0217254
0.119304
3.87858
0.264549
0.111485
0.0277142
0.021684
0.021862
0.0233578
2.5529
0.0276979
0.023222
0.0375214
0.0213284
0.233613
0.0536259
0.0836323
0.0420075
0.225075
0.123439
2.32406
3.10741
0.0271993
0.23672
0.0204823
0.042393
0.0565236
0.499462
0.0228084
0.0249064
0.0232544
1.35812
0.0225335
2.42363
0.0277143
0.0665367
2.2759
0.0213748
0.0701995
0.0225498
0.0216843
0.0314868
0.0289375
0.0206259
0.0209523
0.0220682
0.276342
0.021021
0.0224049
0.0224081
0.0221372
0.0214788
0.07201
0.0486149
0.023185
0.0216617
0.080848
0.0558113
0.0358279
3.46489
0.0215987
0.0214236
1.65621
0.0232061
0.0225453
3.12785
3.42933
0.0302409
0.0427265
0.0246842
7.66266
1.51382
0.0273958
1.78735
0.021935
0.0569844
2.56204
0.144413
0.402131
0.91183
0.0211159
0.0219011
0.0244179
0.0214913
0.0219984
0.171564
0.0218797
0.0328884
0.0207112
0.0404343
2.49592
0.02243
2.15063
1.44361
0.0214189
0.0532143
0.0249678
0.0222297
0.0213353
3.34216
0.0500247
3.64565
0.0244131
4.14987
0.0657739
0.0229759
0.89781
0.0277749
0.0273822
0.0213459
0.14322
0.0213389
0.0236733
0.0304148
0.0244471
0.0217005
0.0389575
2.17385
0.0212002
0.148142
0.458252
0.0216343
0.0212215
0.0251585
0.274453
0.190413
0.0214037
0.0253641
0.189876
0.776668
6.79299
0.0214899
0.0210013
0.021107
0.021473
0.0264199
0.0230252
0.273523
0.0231614
0.0226643
0.0289207
0.174932
0.0591126
2.69573
3.62325
0.0215954
0.0219632
0.0209435
0.0222037
0.0489823
3.53142
0.236624
0.0775555
0.0263928
0.0354374
0.0223624
0.230911
0.0235787
0.0772544
0.0220794
0.426229
0.224906
0.0212491
0.0215793
2.93553
0.0355214
0.0279744
2.86855
0.0967766
0.0218769
0.380257
0.0247963
0.0212581
2.48381
0.622425
0.0221249
0.0303963
0.075989
0.027854
0.0217927
0.0206649
0.0212355
0.0211928
0.0213322
0.0251391
0.0393061
4.49478
0.0280848
0.023293
0.0258393
0.0625393
0.021609
0.0283371
0.161599
0.1509
2.81792
0.0224864
0.0206415
3.55941
0.0211327
0.242179
0.0220669
0.0333468
0.0216952
0.0212002
0.229043
0.0235451
0.0224953
0.0214669
2.11962
0.237194
3.22876
0.0227169
0.0218075
0.935912
0.0207036
0.0212812
0.105989
0.575785
0.0240481
0.0267692
0.021762
0.2501
0.0212656
0.0245812
0.0217029
0.0206157
0.14907
0.0212623
0.0211633
0.891202
0.0410509
2.13092
0.152026
0.0212157
0.0252041
0.0213289
0.0218196
0.0243947
0.0224589
0.0215318
0.136137
0.0214844
0.0515772
0.0307238
0.0261043
0.0215005
0.0251103
0.0218552
3.43438
0.0205481
1.30901
0.0484258
0.0227984
0.0368181
0.0267251
0.0253448
0.0214957
0.030062
0.0211309
0.0212491
0.263517
0.0349715
0.0280163
0.0217533
0.0224416
0.021556
0.0663232
0.0213177
2.79291
0.0333316
0.0222029
0.0213233
0.021011
0.0332534
0.0286688
1.67118
0.0387422
0.228816
0.0260734
0.0719177
0.0235299
2.66225
0.0207091
0.0204979
0.0230833
0.220632
0.0210531
2.89426
0.0216746
0.0219871
0.112345
0.138695
8.43311
0.250263
0.0232915
0.136328
0.0286448
0.0212568
2.6794
0.0213867
0.0211229
2.09347
0.0208797
2.90976
0.260637
0.0212066
0.0213938
0.021323
3.48399
0.0212576
0.0206636
0.052583
0.0212198
0.0212947
0.0245582
0.0212542
0.0326045
0.0215395
0.025973
0.0207938
2.05627
0.759641
0.0208153
0.0208306
0.0218648
0.0213102
0.0224687
0.0227147
0.0226431
0.021553
0.0214926
0.0221065
0.0214403
0.0534905
0.0210115
0.0554381
0.0220404
0.047688
0.0213497
0.0215164
0.0213629
0.0205984
0.029302
0.0259561
0.0230097
2.12571
0.0291208
3.4687
2.7188
0.0553867
0.887725
0.0218813
0.0214258
1.93497
2.22148
0.0216528
3.28595
0.0211491
0.0846273
0.703036
0.0224075
0.0573057
1.19591
1.92537
0.0216669
0.0336502
0.0211488
0.0354941
0.0226153
3.10472
6.23567
0.021569
0.664713
1.71145
0.0215352
1.91134
0.252229
0.0223862
0.0210011
0.27165
3.31914
0.0212499
0.0260472
0.0219361
1.90664
0.102517
0.0215326
0.0214033
0.263352
0.0217584
0.0214249
0.0217189
0.0209829
1.11427
0.0286713
0.024467
3.21359
0.0213361
0.0472677
0.0215598
0.265109
0.040373
0.0363665
0.0212992
0.0240439
0.020621
0.0224035
0.022469
0.0214787
2.20557
0.0221364
0.0210625
0.0212069
0.242634
0.0209887
0.503224
2.30456
0.665013
0.0221658
0.0215056
0.0212663
0.726722
0.0217222
0.2763
0.0217968
1.66562
0.022384
0.0253318
0.205688
0.0216104
0.0215479
3.35432
0.0774415
2.86754
0.0238597
3.05484
1.32783
0.0216459
3.08501
0.0217611
0.0251368
3.60303
0.0232031
0.0358007
3.70702
0.0270812
0.0470817
0.0214974
0.255997
0.021405
0.487228
0.0212683
4.23406
0.0214207
0.0215387
0.0249891
0.689325
0.0215558
0.0294433
0.0509202
1.24633
0.021286
0.025757
3.27789
1.15884
1.58572
0.0550861
0.0213483
0.079829
1.65699
0.0233264
0.498379
0.0204448
0.106912
6.49567
0.0216975
6.6113
0.0213248
2.8368
0.696231
0.0226345
0.0247615
0.502739
0.606526
0.021453
0.022033
0.0210294
0.0215998
2.60517
0.046793
0.197369
0.0226209
0.0241252
2.95052
0.0304998
0.722521
0.27141
0.0211813
0.0213769
0.135152
2.27236
2.13425
0.654006
0.135748
0.0308019
0.0543491
3.18756
2.44916
0.539818
0.0210014
0.056167
0.0328249
0.0526365
0.0214177
0.0234182
0.0437268
0.644638
0.670962
0.0232787
1.40162
3.1764
0.0352301
0.0214138
0.0214145
1.23989
0.0216377
3.55296
0.0244603
0.0225119
0.149463
0.0284377
0.0208047
0.0280475
0.0249796
0.0214302
3.39489
0.0270027
3.57362
0.0219018
2.96387
0.23515
0.139912
0.0205987
0.0238907
0.0273107
1.27509
0.0873604
0.0473418
2.68647
1.70077
0.020087
0.0234443
0.0246788
0.0890303
6.34506
0.020546
0.0207758
0.022075
0.650958
1.35882
0.0220064
0.0382556
0.149408
0.0209989
0.0278224
0.0230802
3.54055
0.026943
0.0472682
0.286319
0.0243649
0.0235914
0.332114
0.0212189
0.037683
2.8715
0.0247098
0.0801753
0.0259351
0.0407193
2.27338
3.02212
0.0214833
0.994887
1.66432
0.0208807
0.0920971
0.0469058
0.0894896
2.04582
1.67497
0.693846
0.0791898
2.73552
0.0240178
0.0465752
0.0207208
0.0215665
0.0214656
0.0210946
0.208765
0.723481
0.0206297
0.0453265
0.124765
0.0212039
0.44229
2.90752
0.0217021
0.0216945
0.0208918
0.0222813
0.0323278
0.0214017
4.19557
0.0248995
0.0500315
0.0247915
0.0511798
0.0527011
0.0318774
1.44191
0.0214327
0.0223427
0.0205742
0.0217251
3.25035
0.0665436
0.0255359
3.61682
0.0226799
0.0221081
0.0283627
0.0211993
0.0221562
0.0607657
0.0231307
3.12997
2.12953
2.21345
0.0215282
2.17485
0.0212871
0.236959
0.020783
0.10052
2.16619
0.0216999
0.411907
3.37502
0.027548
0.0226875
0.0206458
0.0246262
2.42454
0.0209521
0.0215822
0.0238776
0.0272695
0.135736
0.0227384
0.0232973
0.0211536
0.0239028
0.375918
0.0271397
0.0241402
0.0894141
1.20083
3.1566
0.976118
0.0238403
0.0224044
2.89832
0.0214366
0.0460211
0.0215333
2.62081
0.0240535
0.0227803
0.0381174
2.64776
0.0213823
0.0212986
0.0206851
0.100482
10.7793
0.0884713
0.0214615
0.0234835
0.0210255
3.29114
0.0212866
0.427596
0.0401106
0.0226618
0.154654
0.0320111
0.225451
0.0217238
0.0212732
0.0254941
0.0349635
0.11521
0.0215526
0.0218608
0.0238568
2.79264
0.0218999
0.022263
2.99566
0.0224196
0.029137
0.022767
0.0217644
0.0225521
0.664477
0.0222832
1.19692
0.253303
0.0200622
1.41934
0.0216846
0.076342
0.0364838
0.0225126
0.0206453
0.020034
0.0213931
1.00497
0.0339882
3.4927
2.65234
0.0211594
0.0254678
0.0306722
0.228331
0.0213855
0.0369991
3.09242
1.82697
0.0216324
0.0221098
0.0216924
0.794743
3.22858
0.0223588
0.0215191
0.0253057
4.54607
0.0215262
0.0221357
0.0226722
0.0821563
0.200755
0.0207122
2.54682
0.0286965
0.0214049
2.38942
0.0398675
1.4087
0.934607
0.0271691
0.0252704
0.0222805
0.0247676
0.0220027
0.0658281
0.0371841
0.0226569
0.0226874
0.17237
2.13181
0.0209224
0.0823461
2.14129
1.59546
0.0229669
0.0214639
0.266482
0.442005
0.883989
0.0214729
2.20347
0.0467238
0.0201655
4.44631
0.0242885
0.0218486
0.141126
0.0218855
0.0340843
0.0214549
0.0199074
0.0222094
0.0206817
2.86741
0.0205487
0.021222
0.0541927
0.0229438
0.0236937
0.0961835
0.0215231
0.0214605
0.0222412
0.0220108
0.234743
0.228717
0.243291
0.999802
0.0345717
0.435376
0.0577575
2.76393
2.11382
2.84081
0.0211691
0.0271943
0.0213989
0.0216623
0.0218992
0.0245551
0.132127
0.041729
0.031192
0.0211851
0.0213826
0.0395082
0.0215727
0.0218731
0.0215584
3.36132
0.0259982
7.51006
0.0215241
0.255414
0.0218952
0.0227537
0.0224776
0.0313638
0.0212086
0.0606367
2.84593
0.0326523
3.58395
0.66781
0.0263304
0.0241078
0.0555773
0.0839166
0.0208123
0.0218052
0.0200608
2.68328
0.0199166
0.743477
0.449267
0.0549691
1.38599
1.44456
0.0455235
3.447
0.0212583
0.020625
0.0287146
0.253126
0.0214021
0.0215019
0.880072
0.0210131
0.155726
0.0229357
0.0211744
0.0236435
0.0214476
0.0508062
2.77636
3.03438
0.0228312
0.0221149
0.0652028
0.0219833
0.0583968
0.0210676
0.0978031
0.0634038
0.0218488
0.0218101
0.0201253
0.103318
0.0521625
0.137389
1.24872
0.0252869
1.44222
0.0516243
0.0777461
2.72253
0.0212999
2.6352
0.0218762
3.3979
0.225285
2.62185
2.81131
0.0219291
0.0393227
0.0289138
0.0220292
3.79933
0.0215042
0.0214386
0.0233253
0.0217225
0.0253999
0.18802
0.264131
2.98717
0.0233473
0.0318569
0.0220941
0.0230026
0.0215393
0.10156
0.0605131
2.19171
0.0337648
0.0206989
0.0210138
0.0224037
0.153262
0.0232729
0.0229253
0.0231434
0.0813556
0.0257682
0.0350328
0.0438789
2.66267
0.025096
0.0263367
0.0213897
0.0233643
0.380928
0.0392637
0.0369107
0.0212002
2.40266
0.0264629
0.0214432
0.0350062
2.84225
0.0470366
0.0278061
0.0210269
2.38523
0.0218843
0.0210064
0.0207667
2.12209
0.405409
0.0262586
2.07884
2.60369
0.0250305
0.043736
0.0436884
3.57067
0.0257449
3.19225
0.0219503
0.036411
0.0259279
3.19052
0.0266622
0.0215653
2.9976
0.021659
0.0219738
1.36352
0.266761
0.866771
0.604446
0.0226793
0.0219744
0.604252
0.021401
0.0212201
0.021495
0.033126
0.0213756
0.0295477
0.0248976
0.0327272
0.236671
0.021754
3.81234
0.0245977
2.94339
3.43921
0.0214736
0.0215549
0.0231172
1.73549
0.133882
0.0475167
2.84147
2.51954
1.62787
0.0251754
0.269704
3.15089
0.052546
0.21922
0.0216247
0.0218235
0.0215142
0.0222993
0.0213202
0.0265268
3.0895
0.0305902
0.241283
6.09912
0.275723
2.1941
3.18635
0.0282003
3.34023
0.0785174
0.052283
0.0207611
0.0220464
0.0476835
4.11441
0.023638
2.60811
3.07814
0.0212686
0.0214904
0.023535
0.0737587
0.0219645
0.0517542
2.66506
0.0208919
0.0214084
0.0211953
0.0218281
0.0693556
2.8797
0.0301276
0.52044
0.083094
0.0212181
0.259973
0.109345
0.0212641
0.243952
0.230215
2.19842
1.80055
3.44213
0.0218645
0.376744
2.93429
0.123211
1.30077
0.0218047
0.0225919
0.0226755
0.0222478
2.6031
0.0472739
0.0215423
0.0240125
0.0838064
3.03622
0.0249799
0.0258654
3.56113
3.15375
0.0215548
0.0247302
0.0792949
0.0213293
0.0214051
2.15329
0.0212006
0.165244
0.258155
2.63546
0.0211858
0.0605222
0.107018
0.0214171
0.020305
2.12168
2.14554
0.0230813
0.0322394
0.123486
0.14672
3.34973
1.83653
0.0234317
0.25906
0.104063
0.0275712
0.021153
0.0766802
0.0206217
0.0204962
3.19022
0.03023
0.0691019
0.0226688
0.0302602
0.0216383
0.0208029
0.0217328
0.0218291
2.33234
0.0225706
1.01061
6.15769
0.0332858
0.0503691
2.40297
3.10511
2.35011
0.0220663
0.0228448
0.0278822
0.0233262
0.149631
0.144032
0.0217217
0.775249
3.24878
0.0239609
0.064371
0.0530377
0.0706822
0.0778434
0.0219978
0.0874779
0.0966828
0.107444
0.119911
0.0804908
0.0582211
0.0294259
0.0211378
0.0264148
0.0638014
0.0212018
0.208185
3.43336
0.150355
2.92623
0.020227
0.0212297
0.0369144
2.43701
0.0217918
0.0230647
0.0453786
3.20106
0.897571
0.0214848
0.0283367
0.0230483
2.12032
0.104463
0.0225703
0.199098
2.99902
0.0720762
3.16036
0.069509
0.0323947
3.39692
0.0198174
3.28633
3.1488
0.0220791
0.0514757
0.0759173
0.0251537
0.0214484
1.77974
1.15509
0.0216334
0.0217384
2.24642
0.249552
0.0587079
0.0216172
0.169424
0.0961608
3.06194
3.78581
0.0214797
0.0213727
0.02177
0.0239948
3.10669
0.896535
2.85803
0.059305
0.222321
0.435714
0.0240925
0.0211117
3.0745
0.0217211
3.25633
0.0210129
3.18831
0.0219046
0.0222401
0.671964
0.0218234
0.0802818
0.534216
0.0237962
0.0231587
0.0219652
0.12892
3.20954
0.122352
2.98211
0.0269136
0.024466
0.0240806
0.0562914
3.42988
3.0635
0.0760058
0.153102
0.0896095
1.70927
0.0346943
0.0217088
0.0209222
0.0207652
0.210919
0.0706664
0.0485363
0.0324031
0.10937
0.0213403
0.189707
1.45649
2.18899
0.0214529
0.0220468
0.0199263
2.9439
0.0193897
0.69701
0.206473
0.0873758
0.200754
0.0200908
0.0284895
0.120043
0.21582
0.246497
0.0216208
0.0972906
0.0220658
0.0235979
0.0968663
1.00068
1.63292
0.0219231
0.0660306
0.132284
2.17638
5.33491
3.03911
2.67166
0.0216561
0.0437061
0.0225724
0.101399
0.0222768
0.0872665
0.0232552
0.0355445
0.252943
0.527658
0.0271674
0.12754
3.11816
0.0832073
0.0233578
1.36918
0.0759263
0.0233733
0.0241279
2.61729
0.0246433
0.101141
0.234071
0.0384708
4.00307
0.0266496
2.7257
2.82215
0.956931
1.80738
0.0258458
0.077761
0.0695708
2.94947
0.708096
0.021738
0.219542
0.0535267
0.216575
0.0246501
3.58119
0.698857
0.225758
0.0234415
1.4412
0.0228217
3.0019
0.1214
0.454226
7.54744
0.0209965
0.0199342
3.0446
3.23794
0.0339404
0.0217016
0.0331788
0.0295126
2.56139
0.0720366
3.17945
0.0236579
3.25138
0.0953571
1.0463
0.0217168
0.157952
2.65631
0.0272753
0.0599254
0.0201671
0.0226499
0.0215037
0.258469
0.0212977
0.0215176
3.35321
0.458445
0.0207484
3.35432
0.021845
0.0220133
0.0213115
0.0215809
0.0215663
0.247236
3.37985
0.0210495
1.57886
0.048069
0.0346493
0.342126
0.0611657
0.0233866
0.0260925
0.0213103
0.255697
0.0280252
3.37691
0.0258152
1.84112
0.222826
0.0512406
0.268583
3.33699
0.0208697
3.60747
0.0405968
0.0467365
0.0445852
0.0214219
0.307972
0.134046
0.0214822
0.836775
0.0214183
2.78464
0.105989
2.29217
0.127157
0.122971
3.3109
0.0215129
0.0222838
0.0447915
0.0221929
0.0215543
0.0215683
0.0243193
0.021319
0.0212308
0.0220586
0.0339696
0.0223325
0.0245682
0.0231201
0.041187
0.0718172
0.0224933
2.88519
0.0223309
0.0212795
0.0668808
0.0314022
0.0238457
0.0213536
1.57637
0.0222802
3.13022
0.0223633
0.0849369
0.0213117
0.0220029
0.138503
3.48872
0.0504382
0.0292519
0.0203014
3.08615
0.0215153
0.0212015
0.0549463
0.0224971
0.110824
3.08961
0.0712136
1.5885
0.0327869
4.04021
0.021708
0.0215054
0.0474908
0.261348
0.0427735
0.0746253
2.36517
0.0245716
0.0214775
0.0241843
0.167127
0.0412013
0.0214928
0.0734445
0.0693433
0.0464558
0.0215691
0.0215261
0.160003
0.045964
0.26565
0.457587
0.023459
0.0508648
0.0215531
0.0326022
2.01751
0.021606
0.124613
0.242477
0.0614705
1.06672
0.0214635
0.0216661
0.0212696
3.30056
0.151443
0.0226267
0.10569
0.0809335
0.0215409
0.0217728
0.234152
3.33811
0.161157
3.1412
0.140749
0.0254758
0.240138
0.0892534
0.0253474
0.213897
0.0631112
0.281124
0.0214491
0.0697784
0.0992578
0.0219378
1.51042
0.0309932
0.0769378
0.0242455
0.110837
0.0213195
3.98916
0.0227376
0.0208634
0.0218658
0.0209723
0.0221064
0.0219545
0.0213927
0.0225625
0.0215521
0.021922
0.255518
0.0563708
0.0217514
0.0461836
0.0229254
0.0289256
0.0207345
0.0338767
0.0329377
0.370325
0.0214737
0.0215
0.0524179
0.128998
0.0214924
0.0214637
0.0878357
0.0223205
0.0715244
0.0439405
0.0223725
4.65942
0.0224146
0.0218771
0.0643821
3.48424
0.0237199
0.0423957
0.0216274
0.0232722
0.0225856
0.0244823
0.0212516
0.0215087
0.0723274
0.0441117
7.11209
0.0375235
0.0214375
0.025101
3.38079
0.0406878
0.131626
0.0728557
0.02152
0.040374
0.780148
0.139654
1.35379
0.0235922
3.39645
0.26557
0.0270847
0.0215393
0.0584292
0.0218174
0.0407302
3.03648
0.021558
0.644068
0.0216656
2.79319
0.0494929
0.021867
0.0445123
2.91978
0.11309
0.0224453
0.0527448
0.0254314
0.0207369
2.12696
0.0207433
0.0287168
0.0211704
0.0241452
2.37267
0.0521236
0.0204453
0.0269469
0.201984
0.0215062
0.0217305
0.0245256
0.0243489
0.0214141
0.0224078
0.0237207
0.021804
0.0212262
0.0444108
0.0752458
0.133368
0.0210842
0.0418943
2.93834
4.42243
0.0220371
0.0215788
0.023002
0.0654677
0.0218915
0.0212972
0.0213087
0.0216405
0.0248713
0.0240629
0.0255962
0.0469389
0.0223632
0.0207613
0.0225568
0.0459562
0.035201
0.0781847
0.0217762
0.0252393
3.17271
0.0269643
0.0228103
4.15128
3.21346
0.0714883
0.0488719
0.120891
0.021942
0.036583
0.0255964
5.96598
0.0213984
0.021253
0.266349
0.0208689
0.272225
2.14669
0.0216733
13.0169
0.0256482
0.0262828
0.0244875
0.0562805
0.0268072
0.0235988
1.41948
0.0210404
0.0226232
3.46458
0.023429
0.0217654
0.0258204
3.15086
0.021805
0.0218143
3.12689
0.0272577
0.0244051
0.0422066
0.0205339
8.41444
0.0225526
0.0219967
0.0919122
0.0413549
2.66463
0.0222805
1.81971
0.0270617
0.06666
2.16881
0.0215241
0.0265849
0.0658546
0.0217535
1.74531
0.0219062
0.0222022
2.85185
0.0220787
0.0311274
0.0661217
0.673208
0.0253015
0.0237746
0.0218139
0.0224668
0.065061
0.0230598
0.0256638
0.074904
0.0391131
0.0226365
3.44417
0.0294137
0.0207735
0.0222667
0.0212603
0.0214784
0.0205376
0.0216147
0.0214894
0.0255989
0.022461
0.0416171
0.0204015
0.0206155
0.0273759
0.0571112
0.0208216
0.0305847
0.0704679
0.0262125
0.0254276
0.0217532
0.0222072
0.0227419
0.0319384
0.0267705
0.0239735
2.449
0.0218213
2.09162
0.0228702
0.0642138
0.0782393
0.0216036
0.0424828
0.0259012
3.10977
2.97443
0.0231253
0.0215819
0.0223223
0.0252005
0.0351598
0.0213971
0.0387263
0.0394008
0.0266293
0.0513897
0.0513522
0.0675114
0.0266455
0.141078
0.0943473
0.0256833
0.154668
0.0264402
0.0955109
0.0218857
0.0212961
0.0591383
0.0615339
0.0213888
0.039555
0.0214284
0.0215134
0.0214529
0.0216879
0.0214646
0.0213981
0.0213735
0.0222639
0.123765
0.0226613
0.0213509
0.0230069
0.0220209
0.138371
2.88602
0.0704825
0.0228509
3.37936
0.0214008
0.0213607
0.721315
0.0263545
0.0223048
0.0221331
0.0215848
0.148536
0.0218581
0.0232048
0.0221445
0.02896
3.7648
0.0214372
0.0520126
0.0478251
0.0230114
0.0337527
0.0211707
0.0215307
0.0489325
1.48983
0.0222013
0.0305759
2.15084
0.0676444
0.0215217
2.14694
0.0222382
0.0200555
0.0646323
3.16077
0.0219916
0.0209077
0.0221654
0.0315572
0.0300428
0.0214033
0.0219885
0.0321268
0.0215275
0.0261413
0.0232933
1.2257
0.0209254
2.09643
0.240901
0.0419229
0.0216348
0.0671061
0.0220069
0.0225799
0.0215334
0.0404267
0.0203449
0.0203104
0.0318672
0.0684729
0.253629
0.0217976
0.020227
0.022206
0.0215679
2.81695
0.0233657
0.0221401
0.0217621
0.0462675
0.034986
0.022311
0.0228692
0.0331673
0.021693
0.0222468
0.0222647
0.0217399
1.53487
0.0212777
0.0306513
0.0216706
0.0214419
0.0366534
0.0671233
2.73137
0.0214685
0.0654562
0.0402347
2.82284
3.15578
0.0324333
0.0215146
0.022888
0.0256823
2.28197
0.0217909
0.0230845
0.0240384
0.0257407
0.0204459
0.0395499
0.0345076
0.947318
0.0217329
0.0215261
0.0714684
0.973614
0.0202266
0.0227891
0.0269471
0.0200711
0.022025
0.0337047
0.0219184
0.0214129
0.0215407
0.0227119
0.0590799
0.0288913
0.0219499
0.0211006
0.0221188
0.141308
0.0198848
0.0215613
0.0240055
0.0648178
0.023248
3.66968
0.023034
0.0214731
0.0214501
0.0222768
0.0212347
0.0268776
0.775669
0.021764
0.0210626
0.021687
0.0213098
0.022454
0.0369819
2.36366
0.0246111
0.0747602
0.0270561
0.0213213
0.174053
0.0224664
3.14607
0.0215813
0.02195
0.0209085
0.0214246
0.0220405
0.0255808
0.0738847
1.59815
0.0264845
0.0392636
0.0217741
0.0333134
0.0214209
0.0224378
0.0270398
2.37948
2.87492
0.0219308
3.22873
0.637892
0.0317649
1.50912
0.020377
0.021394
0.0218357
0.0222782
2.54864
0.0214764
0.0517272
0.231769
0.022288
0.0618585
0.0200321
0.0284919
0.167746
2.02275
0.021783
0.229874
0.0852311
0.237931
0.0237734
3.47895
0.0219471
1.49791
0.0820432
0.0206688
0.0412608
0.0275533
0.0223707
0.0442572
0.0256563
0.0218429
0.0232008
0.0284921
0.0216377
0.0613648
0.0214859
0.0198688
0.0257854
0.0265708
0.021455
0.0603831
0.0255695
0.0266018
0.0201059
0.0215922
0.539437
0.0626328
0.13236
0.0271968
0.022997
0.0266262
0.0246956
0.021441
0.0221212
0.0303422
0.0223037
0.022608
0.0206144
0.023405
2.65756
0.021671
0.26899
0.105948
0.0216597
0.0215402
0.0204757
0.0256701
0.0327635
0.0201816
0.0231915
0.0228152
0.0222562
0.0214471
0.0219912
0.0223811
0.0217417
0.250479
0.023595
0.0317851
0.0214367
0.126701
0.157475
0.0214366
0.237621
0.0216638
0.0225126
0.0320318
0.314163
0.0251692
0.021056
0.0218431
0.0336464
0.0342192
0.114431
0.0233757
0.0373963
0.0944448
0.021658
0.0215119
0.5192
0.0392958
0.0259046
0.0215293