/*--------------------------------*- C++ -*----------------------------------*\
| =========                 |                                                 |
| \\      /  F ield         | OpenFOAM: The Open Source CFD Toolbox           |
|  \\    /   O peration     | Version:  v2012                                 |
|   \\  /    A nd           | Website:  www.openfoam.com                      |
|    \\/     M anipulation  |                                                 |
\*---------------------------------------------------------------------------*/
FoamFile
{
    version     2.0;
    format      ascii;
    class       volScalarField;
    location    "250";
    object      p;
}
// * * * * * * * * * * * * * * * * * * * * * * * * * * * * * * * * * * * * * //

dimensions      [0 2 -2 0 0 0 0];


internalField   nonuniform List<scalar> 
13917
(
-0.173623
0.029443
-0.0308161
0.0130501
0.00610139
0.0305174
0.00936005
0.0264583
0.00697543
-0.331504
0.0271137
0.0151214
0.015293
0.0220195
0.0245706
-0.165129
0.00454727
0.0273352
-0.0120497
-0.260024
0.0217034
0.0135417
0.00400125
0.0133179
0.0145243
0.0230426
-0.0485602
-0.329893
0.0263799
0.000651234
-0.326406
0.00242393
0.0144367
-0.120214
0.00883447
0.0271025
0.0197659
0.0112562
0.0091363
0.0150218
0.00297683
0.00282568
0.00764773
-0.00996354
-0.00963438
-0.017965
0.0214527
-0.139982
-0.000267344
0.00904273
0.015111
-0.00502857
-0.0550665
0.0162583
0.0164226
-0.00468622
-0.31871
0.00396803
0.00303353
-0.0210241
0.033693
0.0128496
0.000500942
0.0145086
-0.084622
0.000226685
0.026935
0.0265261
0.0269534
-0.0923391
-0.0656143
-0.121562
0.0131647
0.00316536
0.0212882
0.0162002
0.0107442
0.00333207
0.0161119
0.014363
0.0174536
0.00514577
0.0132452
-0.0545436
0.014117
0.0286632
0.00284789
0.0139729
0.0159858
0.00444683
0.00428169
0.00745736
-0.0150983
0.00732295
0.017807
0.0266226
0.0100532
0.00710611
0.0140885
0.00853172
0.00170753
0.00162827
0.0177001
0.00765581
0.0106726
-0.00524635
-0.176052
0.0131895
0.00250517
-0.0589273
0.0164338
-0.125227
0.0259007
-0.162736
-0.0827667
0.017292
-0.0106427
0.00330594
-0.0255651
0.0136232
0.0052658
0.00363386
0.0269449
-0.00460976
-0.0399945
-0.05771
0.0142705
0.0215403
0.0105418
-0.00460282
0.0069701
-0.0587186
-0.016855
0.017605
-0.000503012
-0.046685
0.0310539
0.000529127
0.0238638
0.0110584
-0.0296291
0.00354346
-0.00302925
0.0133165
0.0136378
0.00126051
-0.0645176
-0.0370202
-0.163182
0.0164442
0.0163565
0.00147199
0.0137251
0.0135802
0.00897167
0.0115318
0.00753016
-0.00908512
0.0029333
0.0032473
0.0138975
-0.0358121
0.0226198
-0.0140474
0.0127226
0.00426092
-0.0580873
-0.0256017
0.000181274
0.0242589
0.013246
-0.0411889
0.00681741
0.0453198
-0.00207311
0.0022863
0.0127537
-0.00562638
0.00698415
0.0231426
0.00811458
0.0132885
0.0152293
-4.85542e-05
-0.0272869
-0.0615874
0.0152538
0.000989119
0.000928814
0.0282172
-0.00198453
-0.00790425
-0.00382335
-0.195783
0.00756362
-0.0485046
0.013367
-0.0159922
0.00863196
0.0117333
0.0209947
-0.104039
-0.00237062
0.0200465
-0.0828791
0.0263881
0.0157222
0.00346831
-0.00526996
0.0174704
0.00991882
0.00249124
0.00080332
-0.137387
0.000447005
0.0233434
-0.100666
0.0122564
0.00406989
0.00403369
-0.0512186
-0.00203606
0.00437866
0.0154348
0.000354434
-0.0510388
-0.0537188
0.00420216
0.00420448
0.00261139
0.00400804
0.00397594
-0.127428
-0.102426
0.0154613
0.00030898
-0.000861953
-0.0962179
0.00351703
0.0154096
-0.0793166
0.00205361
-0.000328152
-0.110285
-0.00938112
0.0134362
-0.00843683
-0.00126023
0.0257485
-0.00277822
0.0196905
-0.124869
0.0134711
0.00853951
0.000476345
0.0153052
0.00291847
0.0142784
0.00880274
0.00646236
-0.0427009
-0.00812101
0.00372567
0.00419001
0.01151
0.00423579
0.0134272
0.0149635
0.00708122
0.0035614
0.0116006
-0.154842
0.0152566
0.00955701
-0.0288849
0.0032186
0.0132103
-0.0418492
0.00329959
-0.0922761
0.00625455
-0.022183
0.00218022
0.0224144
0.0154311
0.0128076
-0.0146075
0.0101643
0.00282375
0.0140205
-0.0156207
0.000794406
-0.0659003
0.0109959
0.0035235
0.00266373
0.00791891
0.0179336
0.00752813
0.0157884
0.00692651
0.00997001
-0.00870413
0.00903025
0.00923101
0.0157196
0.0153122
-0.0110748
-0.107311
0.0100716
0.00130994
0.0177153
-0.0190958
-0.00342041
-0.169743
0.0513577
-0.00127627
-0.0412661
0.0098277
-0.0540407
-0.0227307
-0.0287859
0.0157792
0.0237367
-0.0573866
0.0125444
0.0300833
-0.00768799
0.00410798
-0.0441934
0.0140653
0.00824569
0.00231439
-0.289236
0.0103636
0.00933402
0.026063
-0.00242708
0.00426666
-0.00273706
-0.0147355
0.0175209
0.0123433
-0.119746
-0.0102709
0.0352896
0.018223
0.00335615
0.0160224
0.00689132
-0.041704
0.00339611
0.00758058
0.0158886
0.0220629
0.00886581
-0.00410136
-0.0131602
0.0161002
0.00737887
-0.165007
0.0106418
0.0174716
0.00483829
-0.023609
0.00358669
-0.188874
0.00748362
0.00547742
0.0165694
-0.0267324
0.00150368
-0.0218523
0.00323833
0.00347159
-0.0224275
0.0269273
0.0153227
-0.0439618
0.00210984
0.0198366
-0.00320362
0.00346146
-0.00964516
0.0151104
0.00585813
0.00656619
-0.259823
0.00585982
0.0185079
-0.0762633
0.0166722
0.0192296
0.025154
0.0121479
0.0178194
-0.0139363
0.0160996
0.0170852
-0.0295242
0.0141029
0.00844766
0.0154558
0.012973
0.0120432
0.0107871
0.0162375
0.000484936
0.0170665
0.0107281
0.0134485
0.00343119
0.0257842
0.00274457
0.00020245
-0.00337286
-0.0266114
0.0128971
0.0183765
0.025601
0.0290238
1.11258e-05
-0.013762
-0.0493814
0.00425857
0.00289413
0.0222349
0.0120326
0.00284892
0.0155495
0.00296287
0.00419204
-0.0359056
0.0163492
0.013134
0.00903357
0.00260099
0.0100237
0.0138811
0.0174066
0.0210925
-0.0358588
0.00246066
0.0149969
0.00195605
0.00397122
0.0195812
0.0146561
0.0216605
0.00408272
-0.000291151
0.0149731
0.00647364
0.0027209
0.0170568
-0.00784939
0.0370715
0.0157586
0.0170454
0.0102476
0.0115884
0.0132723
0.0154476
0.00967794
0.0134938
-0.0147789
0.0448291
0.00957103
-0.0785034
-0.00555288
0.0156851
0.00200431
0.0113101
-0.000730743
0.00797369
-0.0090704
0.00712947
0.0059757
0.015
-0.000364255
0.00273964
0.0195832
0.0153587
0.00429718
0.016099
0.0177348
0.00790017
0.0196605
-0.0235638
0.00242625
0.00086649
0.00913801
0.0272164
0.00795783
0.0170376
0.0170435
0.00686689
0.0137414
0.037323
0.0141337
0.00679838
-0.00661257
0.0110108
-0.00250305
0.0116744
0.00392232
0.00264826
0.00255364
0.0122365
-0.0114441
0.00929347
-0.0713204
0.0138929
0.0114887
0.00092273
0.0159959
-0.0548187
0.0166904
0.0163733
0.0137824
0.00189204
0.0109669
0.0103069
0.00353509
0.0117577
0.0129948
0.0117446
0.0109113
0.0042
0.00217331
0.0110017
0.0138073
0.0153372
-0.179578
0.00532093
0.00998276
0.00680676
0.00665571
-0.000269456
0.025125
-0.000187524
0.00108497
0.0159838
0.0271619
-0.0184932
-0.0431063
0.0092719
0.0095337
0.0129497
0.00081179
0.0149162
-0.084628
0.00321509
-0.029277
0.0132143
-0.0406992
0.00722229
0.00788916
-0.374944
0.00941677
0.00845811
0.00693729
0.00302897
-0.042159
0.00260737
-0.0175623
0.000829099
0.0155922
0.013064
-0.0217119
0.0118168
0.00440931
-0.00873742
0.00281119
-0.0792379
-0.0596257
-0.00499951
0.00478832
0.00539282
-0.0642318
0.00102503
0.0303423
-0.0370807
0.00249359
0.00143989
0.00177002
0.00702846
0.00815672
0.00271017
0.00734838
0.015718
-0.0555771
0.0142344
0.00390541
0.0160094
0.0043795
0.0030719
-0.0132865
-0.00636422
-0.358345
-0.00187238
0.0107162
-0.0161412
-0.0904938
0.0064796
0.0203795
0.0150578
0.0108906
0.0149429
-0.0440346
0.0128678
0.0113739
0.0135249
-0.0829167
0.00668097
-0.0891425
0.00464912
0.00735624
0.00982167
0.00169334
-0.169621
0.0141865
0.00984316
-0.00422058
0.0153187
0.00284001
0.00139062
-0.159304
0.0142698
0.00839875
0.00310017
0.009757
-0.0219353
0.00136966
-0.00613029
0.00568467
0.0106311
0.0315318
0.00364281
0.0165507
0.00824461
-0.0152535
0.0285418
-0.00829835
0.00931157
0.0254424
-0.196639
-0.00155221
0.0218065
0.0195938
0.0114103
0.00586387
0.0112183
-0.000356036
-0.000730999
0.0148504
0.0289349
0.00635022
0.0218105
-0.0458203
0.00676661
0.00897367
-0.00489951
-0.0976445
0.00719012
0.0109676
-0.000944118
0.0107497
0.00527244
0.00284037
0.000574993
0.0128624
-0.0701079
0.00716431
0.00859629
-0.00618517
0.00472935
-0.152931
0.0059106
0.0103982
0.00891124
0.000325584
0.00413483
0.0132006
0.00189015
0.00981158
0.0120982
0.00881754
0.0124144
-0.017073
0.0136084
0.00743326
0.00502512
0.0104545
-0.00219675
0.0116063
0.00796135
0.0098974
-0.0449707
-0.0844681
0.0134362
-0.0332867
-0.0414418
0.0104581
0.0101828
0.0200074
-0.0134499
0.00775204
0.00679048
0.0122686
0.0100941
0.0118204
0.0102371
-0.00452412
0.00712856
0.0175828
0.0145625
0.00802337
0.00896252
0.0093565
0.0118892
0.0185371
-0.00073051
-0.0235282
0.0021688
-0.0389878
0.0193865
0.0279175
0.0121186
-0.00184426
0.00502139
0.00946786
-0.0079214
-0.00212968
0.0148709
0.0182162
0.0126534
0.0148378
0.0135834
0.0115759
0.00376926
-0.0165376
-0.0052368
0.00903241
0.00881024
0.00719609
0.0079719
-0.00490478
0.0161155
0.00774666
0.00619865
0.0047267
0.000350595
-0.00632096
0.00701952
0.0109171
0.0099519
0.0111061
-0.0968509
0.0146762
0.00518465
0.00788708
0.0125152
0.0100997
-0.00318037
0.00678296
0.00178411
0.0265955
0.0217573
0.0116416
0.0134368
0.0102666
-0.0293077
0.0017067
0.0149821
0.00426527
0.00541257
0.0135432
0.0191375
0.0252082
0.0108218
-0.00156972
0.0114692
-0.0494049
0.0192183
0.00784765
0.0023929
-0.00334832
0.023344
0.00799018
-0.000768777
0.00444054
-0.176996
0.0148198
-0.0469789
0.00802589
-0.0257046
0.010694
0.00892849
0.0148533
-0.0642016
0.00907346
0.0259633
0.0325329
0.0148346
0.00702371
0.000206164
0.00984805
0.00904928
0.000297413
-0.012112
0.00955245
-0.0284506
-0.00936453
-0.0144682
0.00471184
0.00599685
-0.0175949
0.00914849
0.0161793
0.017328
0.0126561
0.00775279
0.00471757
0.0285242
0.0177025
-0.147987
-0.0385548
-0.0140759
0.00445109
0.0100537
-0.15368
-0.0217578
0.00971475
0.00270504
0.01454
0.0159071
0.0137846
0.00886231
0.0143297
0.026453
0.0163224
-0.0453912
0.0145561
0.00675837
-0.0111571
0.00922276
0.0144299
0.0150396
0.00434841
0.0107831
0.00200829
0.00983878
-0.00167839
-0.00152827
0.00992811
0.015357
0.0126513
0.0114905
0.0342126
0.0099499
0.0116683
0.0128815
0.00632468
0.0208879
0.0137459
0.00955587
0.013243
0.0100449
0.00368879
0.0187516
0.0208927
-0.00330773
0.00867362
0.0123732
0.00188695
0.0115796
-0.171602
0.00590086
0.013002
-0.0059233
-0.164767
0.00183821
-0.0395256
-0.0308158
0.00287468
0.0127611
0.0127818
-0.0491497
0.0153689
-0.0102913
0.0147215
0.0004277
0.0223782
-0.076068
0.0108071
0.00227601
0.00189474
0.0132495
0.00152962
-0.0172622
0.0183787
0.0117062
-0.0332362
0.0030835
0.00220486
-0.000940899
0.0179407
-0.0874667
0.0133572
0.00980065
-0.00807269
0.0103624
-0.0138878
0.0181852
-0.000358621
0.0149623
-0.00856031
0.00703103
0.0128262
0.00191116
0.00464503
0.0167512
0.00189822
0.00415128
0.00393433
0.0148292
0.0112049
0.00469341
0.0181076
-0.0002992
-0.0148668
-0.00178987
-0.00460394
0.0129122
0.00288829
0.0141098
-0.0306166
0.0110032
0.00698984
0.00378654
0.00980094
0.0147304
0.0157051
0.00374657
0.00210619
0.0146503
0.008605
0.0118204
-0.299858
-0.0352402
0.01149
-0.0633149
0.0149422
0.010897
0.0114629
-0.160531
0.00768661
0.0026636
0.00383866
0.00885856
0.0106525
0.00547795
0.00236242
0.0241462
0.0128281
-0.0620153
0.0101563
0.00363936
0.0203288
-0.00249872
0.0157546
-0.088846
0.0146517
0.0112578
0.0124569
0.0151491
0.00982379
0.000687634
0.007158
0.0151177
-0.0437117
-0.28496
-0.000865345
-1.89099e-06
0.00387986
-0.0168982
0.00368449
0.0321264
0.000912491
0.00825306
0.0160684
-0.0734823
-0.0804209
0.000541096
0.00171606
-0.0652176
0.00201973
0.014385
0.00728364
0.0175195
0.014799
-0.0714439
-0.125522
0.00355173
0.00641385
-0.0860179
0.000743074
0.00359048
-0.0188217
-0.110483
0.0157457
0.000919897
0.00947173
0.0140552
0.0104144
0.00930786
0.0224038
0.0145643
0.00720391
0.00170919
0.00725917
0.011492
0.0142878
-0.0205704
0.0130375
0.014693
0.00117085
-0.184404
0.00346906
0.00129542
0.0219338
0.0115148
0.0127563
0.0018504
0.0141948
-0.000944163
0.0119118
0.00313964
0.0130996
-0.000540884
-0.00243944
-0.00423412
0.0100315
0.00574245
0.00630508
0.0187553
-0.0736835
0.010775
0.00717093
0.00364083
0.00205087
-0.00110574
0.00789339
0.0114187
0.00365099
0.0129241
0.0238989
0.0190502
0.0238879
0.00812949
-0.00700248
0.049673
0.00528648
0.00880819
0.0180405
0.0159094
0.012803
0.00906945
0.00223618
0.00849882
0.0159552
-9.41555e-06
0.0115759
0.0185988
0.00790564
0.0181128
0.0155205
-0.0116652
0.0103297
0.0121058
0.00966891
0.0276725
0.00175552
0.0290868
-0.0133904
0.0135991
0.0151025
-0.0426635
0.00564097
0.0189229
-0.0761591
-0.0171686
0.0101898
0.00220375
0.0221631
-0.028286
0.0172615
0.0193428
-0.0621188
0.0102008
-0.00148063
-0.0136699
-0.0266333
0.0105558
-0.0270798
0.00400903
0.0136111
0.0146815
0.015605
0.0138179
0.00932179
0.00581589
0.00501471
0.00615762
0.009869
0.00314421
0.0181731
0.0190942
0.0233086
0.0149844
0.010513
0.0234008
0.0176666
0.0149242
-0.00567828
-0.00164359
-0.122576
0.0168268
-0.0197496
-0.00758222
0.00187173
-0.0155794
0.00771575
0.00149882
0.0137626
-0.0368345
0.0149203
0.0188302
0.0224494
0.0222448
0.0112893
0.00264904
-0.0835259
0.0139823
-0.0329751
-0.054183
0.0162012
0.0139288
0.00235649
0.00797685
-0.0158508
0.00828419
0.00669655
0.000888491
-0.0190643
0.00845484
0.014813
0.0113051
0.00399859
0.0152111
0.0131964
0.0199725
0.00533425
0.0116156
0.0101789
0.00895512
0.00139091
-0.00414872
-0.0934566
0.000162789
0.0129629
0.00998946
0.0113171
0.0180601
0.011248
0.0100669
-0.00124545
-0.0135726
0.0212354
0.00391702
0.00847598
0.000269059
0.0191633
-0.00858257
0.00811009
0.0206105
0.000634816
0.00732565
0.0130564
-0.107896
0.00377264
0.00931474
-0.00383067
-0.0145066
0.00994364
-0.0369035
0.0124618
0.0145569
0.0264334
0.00828263
0.00792536
0.00880364
-0.0086112
0.0169841
0.0142139
0.00466988
0.0140259
0.0097517
0.0149302
0.0108181
0.00878636
-0.0174159
0.01622
0.0109512
0.00708294
-0.00680492
0.0093764
0.0201628
0.00087274
0.00345155
-0.150963
0.0189993
0.00451975
-0.0059636
0.0114076
0.00353549
0.0135958
0.0135781
0.0162946
0.0115116
-0.0275579
0.0120135
0.0189262
0.0153978
-0.11733
-0.0423673
-0.0811431
0.0115895
0.0140452
-0.0155633
0.00309705
0.00427381
-0.0234094
0.00991859
0.0162764
0.00724511
0.014211
-0.012845
0.0147044
0.0160985
0.0111529
0.00451978
0.00590544
0.0146643
0.00963536
-0.0779518
0.00495384
-0.114209
-0.0195336
0.0143997
0.0079324
0.0102248
0.00967738
0.0119305
0.0146946
0.0157264
0.00659505
0.0148519
-0.000612096
0.0127075
0.0026174
0.0139273
0.00171854
0.0107382
0.00697778
0.00232176
0.0245615
0.000549608
0.0147776
0.00348753
0.00712436
0.0078961
0.0157214
0.0112637
0.0111026
0.00714737
-0.00574171
0.0286327
-0.000636963
0.00756168
0.00907967
0.00237297
0.0271017
0.0132244
-0.101997
0.00465072
0.0034718
0.015118
0.0060513
0.00499426
0.00599129
-0.030683
0.0161654
0.00125895
0.0015872
-0.0093922
0.0201984
-0.0130256
0.00604399
0.00235188
0.0155692
-0.00143728
0.00624115
-0.112504
0.0156379
0.00786552
-0.0287056
-0.0337021
-0.0250599
-0.0017662
0.0124153
-0.0363504
0.00670908
0.00422021
-0.0188334
0.0149305
0.00208245
-0.0863124
0.00577803
-0.117101
-0.000779056
0.0127629
0.0148342
0.00417571
-0.00683357
0.00276859
0.00459725
-0.000649536
0.0144311
0.00998829
0.00178739
0.00428721
0.00557862
0.0139317
0.0103008
0.00922546
-0.0615387
0.00573329
0.00947263
0.00955765
0.0158255
0.0150338
0.00974069
0.0118541
0.00540812
0.0137027
0.0138394
0.0177991
0.0151932
0.0270441
0.00589147
-0.00309893
0.0133664
0.0284372
0.00795586
0.0156017
0.0126949
0.00244759
0.0166854
0.0211723
0.00790747
-0.108248
-0.00180145
-0.0154874
-0.111456
-0.00304655
0.00910021
0.0140304
0.0151352
-0.0086942
0.0193193
0.00238581
-0.0723586
0.00675007
0.000681341
-0.0456636
0.0104661
-0.00297749
0.0304595
-0.150347
0.0059514
0.00529115
0.0115869
-0.00750224
0.0103874
-0.0834053
-0.272396
0.0156054
0.00619759
-0.0416055
0.00444026
0.0137904
1.53592e-05
0.0175601
0.012322
-0.000553226
-0.0305903
0.0042114
0.00701275
0.0164948
-0.00609838
-0.0146108
0.0158727
0.00810339
-0.0137071
0.00937212
0.0150234
0.0132099
0.00860912
0.0103887
0.0219912
0.00922834
-0.0197717
0.0149319
0.022973
0.0131297
-0.000527207
0.00289093
-0.00716835
0.00763642
0.00887479
0.00227503
0.00743937
0.00763296
0.0156208
0.0187896
0.0174343
0.00883269
0.0140477
0.000951159
0.01214
-0.00777616
0.0076439
-0.0453068
0.0119741
0.00876262
0.0146753
-0.0368889
0.0166129
0.00236121
0.00607369
0.0226214
0.0181714
0.00371008
-0.0299191
0.0160348
0.00465576
-0.0341338
-0.00970128
-0.123041
0.00502801
-0.036468
0.0348452
0.0154226
-0.0713263
0.0159638
0.0209772
0.0128735
0.0199445
0.0270734
-0.154053
0.0243322
-0.0006719
0.0139705
-0.0151105
0.0149124
0.00101591
0.0147061
-0.104529
0.0149178
0.0160958
0.0108239
-0.0629268
0.0090816
-0.000717744
0.00595305
0.0292525
0.0147043
0.020858
-0.0436046
0.027058
-0.0592134
-0.00119191
0.00777678
-0.00613298
0.0257722
0.0208316
-0.0130924
0.00226594
-0.00335349
-0.118763
0.00906855
0.00368983
0.0151319
-0.0345151
0.00509069
0.0170765
0.0116245
0.00266634
-0.0325654
0.0154785
0.0137765
0.00856071
0.0158586
-0.0620657
-7.94259e-05
-0.0172856
0.0114331
0.0134703
-0.110245
-0.00353381
-0.0337322
0.00324851
0.0141638
0.015037
-0.0152223
0.0203923
-0.0797743
-0.0279851
0.0125928
0.017781
-0.0107807
-0.0573367
0.0129464
0.0106171
0.0122203
-0.00171707
0.00530103
-0.00189727
0.0152591
0.00753124
0.00170996
0.0170348
-0.0494134
0.00265482
0.0235956
-0.0298426
0.0248452
0.015212
0.0151412
0.0277695
0.00856139
-0.00568818
0.013698
0.00133867
-0.0311539
0.000611435
0.00931326
0.00771686
0.0083122
0.015291
-0.00585824
-0.000419796
0.00496013
0.0064793
-0.0928094
-0.0408762
-0.0174962
0.00234686
0.0170984
0.0242573
0.0294117
-0.0144194
0.000488439
-0.0644136
0.0246682
0.000221257
0.0152831
0.00485442
-0.00748083
-0.0446001
0.00181252
0.00897532
0.016094
-0.0550089
0.0303205
0.00716041
0.00998234
-0.0379061
0.0118619
0.00176231
0.0202135
9.84939e-05
0.0210906
-0.0139624
0.00718837
0.00946931
0.0212308
-0.0225611
0.0138415
0.0252207
-0.181316
0.0146843
0.0193639
0.00678007
0.00413337
0.00590662
-0.0430263
0.014129
-0.0742764
0.0266905
0.00591169
-0.00518123
0.000550175
-0.0203161
0.016954
-0.0535887
-0.0439801
-0.00358351
-0.12749
0.0159887
0.0101555
0.000240804
0.0132494
0.0154434
0.0111311
-0.0272427
0.0224917
0.00227658
0.0286799
-0.0132845
0.013731
0.00921688
-0.0883076
0.000778071
0.0165026
0.000151822
0.0184517
0.00585612
0.0148945
-0.00892963
0.00832398
-6.80394e-05
0.0230646
-0.00131296
-0.00773394
0.0279469
0.0218123
0.0153287
0.0186651
0.00226104
0.00711501
-0.0411646
0.00913691
0.0211529
-0.00432845
0.0114658
0.0168923
0.0248178
0.0070379
0.00373361
0.00571245
0.0124366
-0.148137
-0.121255
0.0347172
0.0137233
-0.0130225
0.0147285
-0.018881
0.00906428
-0.0166272
-0.0628108
0.0120798
-0.0590396
-0.0769014
0.0214365
0.0135185
0.00301533
0.0183172
0.0308796
0.00833871
0.013614
0.010371
0.0113748
-0.00745541
0.0149477
0.0131452
0.0138709
0.00858147
-0.0201192
0.0084595
0.0162292
-0.00802144
0.0308196
-0.0793547
-0.072949
0.0132187
0.0180387
-0.199295
0.0154087
-0.000244732
0.0134194
-0.052818
0.0108327
0.0119266
0.00467155
-0.00960804
0.0151426
0.00745381
0.0059721
0.0127138
-0.303773
-0.00837637
0.0156777
0.0202671
0.011682
-0.00806926
0.000321067
-0.0541171
0.00468301
0.0115624
-0.00613053
0.0278756
-0.0013906
0.0109758
0.00424656
0.0134445
0.0265543
-0.0258942
0.0137952
0.0170502
0.0107296
-0.14954
0.0119483
0.0150793
-0.0496704
0.0183777
-0.00332708
0.0118522
0.0103069
0.00676907
-0.0147116
0.0085711
0.0348487
0.00169802
0.00239675
0.0344383
0.0161894
-0.00428367
0.00683836
0.0148986
0.00239926
0.00232379
0.0149106
-0.036948
0.00570113
0.0121367
-0.116648
0.0112068
0.00476789
0.0169495
-0.0422242
0.0148245
-0.00963395
-0.0483098
-0.0491873
0.00870163
0.0140398
0.0146323
-0.0190694
-0.0477902
0.00158839
0.0160115
0.00835759
-0.0345375
0.0139513
0.0136335
0.0192353
0.00242444
-0.0406197
0.00640508
-0.00196026
0.0227459
0.0152371
0.0249039
0.00396157
0.0344499
-0.0549194
0.0200792
0.0218758
0.0156667
0.0224636
0.0175492
0.0279347
0.0199204
0.00577488
0.0114594
-0.0271025
-0.0996893
0.00823217
-0.0142361
-0.0243715
0.0176735
0.00516166
0.0148051
-0.00602185
-0.0459096
0.0293061
0.0121092
-0.0392565
0.0092512
0.00240637
-0.0252604
0.0170185
0.015616
-0.0264134
0.0125001
0.0142693
0.00844386
0.00219589
0.0120466
0.00586042
-0.0834927
0.00239285
0.0132109
-0.00230024
0.00810835
0.0212468
-0.0151454
0.0157679
0.0155594
0.0174106
0.0172263
0.00118657
0.000308472
-0.0387562
-0.0697477
0.0264575
0.00658109
0.00166904
-0.0848605
-0.0887464
-0.0750216
0.0103322
0.0246982
0.0147776
0.0153406
0.0067472
0.00256404
0.00499372
0.00685273
0.0221148
0.0135299
0.0150908
0.00921458
0.0141304
0.0169005
0.0157376
0.00707529
0.0138985
-0.111826
0.0138775
-0.00229443
0.0172762
0.0117253
0.0148795
0.0060698
0.0126433
-0.00185911
-0.137514
0.0186235
-0.014332
-0.0259247
0.00874097
0.0132184
0.0122419
-0.00968809
0.00236331
0.00637502
0.00234071
-0.141896
0.00205407
0.0313659
0.00898577
-0.000583477
0.0245906
0.020548
0.00119926
-0.000173449
0.00425903
0.00599991
0.0114286
-0.00832092
0.015182
0.0139281
-0.0263807
0.0122428
-0.00667659
0.0143673
0.000322143
0.0195363
0.0145311
-0.000535193
-0.168512
-0.13888
0.0115877
0.0084297
0.00281523
0.0155553
-0.00475325
0.0110321
-0.0121571
0.00188599
0.0168986
0.0153638
0.00248131
-0.0261436
-0.0111433
-0.00560508
0.0122235
0.0143434
-0.0501426
6.51995e-05
0.00302376
-0.0463757
0.0147768
-0.097527
0.0155622
0.012183
-0.0297344
-0.0912792
-0.072122
0.0049503
0.00339821
0.0109539
0.0120513
-0.140451
0.0156464
0.0148774
0.00869185
0.014012
0.00741598
0.00617225
-0.0106738
0.0260384
0.0126604
0.0192906
0.0174595
0.0113882
0.0134513
-0.0174471
-0.0040671
0.0137059
0.00876832
0.00230453
0.00887821
0.0146681
0.00753384
0.0206725
0.0138323
0.0158373
0.0144807
0.00724013
0.0254557
0.0264362
-0.0886508
0.0147738
0.00705024
0.0148223
0.00853386
-0.0461434
-0.0152619
0.0214839
0.00685143
0.0292869
0.00865424
0.0120038
0.00394698
-0.132789
-0.0197223
0.0208591
0.0121404
0.0332592
0.0171086
0.0119871
0.00225228
-0.0947228
-0.0292736
0.00858524
0.0131295
-0.0702257
0.0143746
0.0267922
0.00170528
0.00263368
0.0143648
-0.0543021
0.017094
-0.0154071
0.000771841
-0.0193664
0.00763457
0.00642284
-0.0932071
0.0147367
0.0172242
0.0371711
-0.00281636
0.0343986
-0.0416536
0.00882222
0.0137603
-0.0572566
0.0122803
0.0144009
0.0140307
0.0052877
0.0148565
0.0268013
0.0145019
-0.00519343
-0.0321341
0.013359
-0.10848
0.0145672
-0.0934512
-0.0268401
0.014241
0.0141255
0.0091459
0.0213232
0.00285296
0.000497654
-0.130927
-0.0143655
0.0294376
0.0100677
-0.00537022
-0.211329
-0.00478359
-0.04917
0.016031
0.0121606
0.014052
0.0183385
0.0144678
0.00692286
-0.111005
0.0262405
-0.00172895
-0.0970156
0.0101362
0.0281583
-0.0737114
0.0204095
-0.0243646
-0.00409946
0.000483956
0.00872562
0.0122731
-0.000437746
-0.0277939
0.0116694
0.00757444
-0.091319
0.0103716
0.014237
0.00492516
-0.00313138
0.0173304
-0.000219132
-0.121721
0.00796511
0.0158652
0.0104624
0.015438
-0.00267131
-0.133657
0.0234417
-0.0199834
-0.0120602
0.0141274
0.00401766
-0.0326368
0.00409815
-0.03589
-0.0391698
-0.00138722
-0.0674071
-0.0640244
0.0122724
-0.0423497
-0.102389
-0.0212622
-0.0450732
0.00725195
0.0191423
0.0171954
0.00998639
-0.0473158
0.000721355
0.0143404
0.013745
0.000874526
-0.0749022
0.00958616
0.00155784
-0.00405734
-0.0812188
0.0134031
0.0187465
-0.00454502
0.0149537
0.0153082
-0.078848
0.0136392
0.00708149
0.00212851
-0.0364162
0.0125248
0.0081824
-0.0151581
0.0117786
0.00228727
-0.123165
-0.0645532
0.0113899
0.0283084
-0.00141858
0.00168201
-0.0360458
0.00664005
0.0157948
0.00590694
0.00592556
0.0103707
0.0139355
0.027737
0.00560926
0.00228558
-0.135725
0.018409
-0.00366619
0.011266
0.0108739
0.00873751
0.00486722
0.0135253
0.0135633
0.0238601
0.011298
0.00343213
-0.0052218
0.00945456
-0.0015099
0.034583
-0.0307249
0.0238979
0.00193695
0.0110286
0.00989848
0.0160129
-0.0103169
0.00817434
0.013216
0.00983846
-0.0375789
0.0174788
-0.00446099
-0.00221615
-0.0059702
-0.00742155
0.0134682
-0.00901789
-0.0105695
-0.0121911
-0.0137638
-0.00461763
-0.00296453
0.00860086
0.0131935
0.00786512
-0.00519618
0.0130062
0.00254859
-0.0120832
-0.0229977
-0.118469
0.00233301
0.0062872
-0.0172249
-0.0647246
0.0135484
0.0202767
0.0101691
-0.0142307
-0.0441401
0.0156347
0.0258956
0.0127174
-0.405691
0.00180146
0.00890601
-0.0241268
-0.0836139
-0.00854205
-0.0720806
-0.00270082
-0.0104942
-0.0222392
0.000238753
-0.00799419
-0.032682
0.0176252
-0.00127247
-0.0111027
0.0208037
0.00861252
0.0177796
-0.0225051
0.00393967
0.00381143
-0.000655253
-0.0326235
-0.00445348
0.0161452
-0.0245333
-0.00343295
-0.0893145
-0.0014224
0.0142624
0.0151549
0.0137103
0.0120458
-0.0630836
-0.0177788
-0.081628
-0.00316078
-0.0327888
0.01003
0.0113882
0.0121582
-0.0667163
0.00687705
-0.0369179
0.000474204
-0.0700561
0.0135618
0.0180631
-0.0475633
0.0122079
-0.0106582
-0.00296427
0.0160095
0.019965
0.0135945
0.00151449
-0.106579
-0.0265126
-0.0903137
0.0119789
0.00912866
0.00923381
-0.00370076
0.00761923
0.0157371
-0.012472
-0.0220924
-0.0135844
-0.057958
0.00114884
0.00604501
0.00806686
0.00881519
-0.0283257
0.0278513
-0.013518
0.0180065
-0.0182298
0.0124493
0.00344934
0.0317134
-0.387797
0.0157049
0.0139872
0.0022326
-0.0902435
0.000794415
-0.0582086
-0.0228988
-0.012361
-0.0324366
0.00241291
0.00611548
-0.0221504
-0.0330463
-0.0359642
0.0148505
-0.0152524
0.0165729
0.0108418
-0.00476307
-0.0830208
-0.0720493
0.0157221
-0.00845983
-0.051481
0.0257241
-0.0572824
-0.0547428
-0.0307583
0.0098051
0.00152588
0.0113098
-0.0162716
0.00795257
-0.0167265
0.0174196
0.00437
0.00724461
0.00453019
0.0107654
0.0140006
-0.0395451
0.00502968
0.0189737
0.0329758
0.00450351
0.00689094
0.0110472
-0.0420699
0.0113924
-0.02128
-0.0429669
-0.0131206
-0.147662
0.00913918
-0.0701396
-0.14957
-0.0438205
0.0143819
0.00885211
-0.0100185
-0.00769295
-0.0545652
0.0349104
0.0136895
-0.0484422
0.0287013
0.00197343
0.0194477
0.013306
-0.0657942
-0.0390022
0.00768953
0.0171376
0.0173928
-0.154022
-0.017191
-0.0526152
-0.0195818
0.0122505
0.00209824
-0.0798224
-0.0138539
0.0142444
0.0141705
0.0171184
0.0252376
-0.071958
0.028465
-0.0261417
0.0168849
-0.0136758
-0.0179039
-0.0277926
0.0138597
0.000323536
0.0371853
0.0115129
0.00247683
0.00246541
0.0118844
0.0140559
0.00438792
0.013835
0.0138254
-0.0285418
-0.0418311
0.00847671
-0.00309465
0.0150976
0.012419
0.0148444
0.00841084
0.0134523
-0.0326913
-0.0333826
0.006089
0.0295607
-0.000100677
0.00586523
-0.0378596
-0.0033074
0.0163907
0.00695049
0.0150556
0.00726526
0.0257453
0.00245747
0.0137686
-0.0441008
-0.0466173
-0.000354634
-0.00135905
-0.00308478
0.0102359
-0.0615209
0.00264062
-0.000401484
-0.00308313
0.0126541
0.00846637
0.00875014
0.0142083
-0.00639742
0.0159132
-0.0404185
-0.0139075
0.00344329
-0.00219411
-0.00877951
-0.0349161
0.0157875
0.00777946
0.00179892
0.0165328
0.0140247
0.0138807
0.0180894
0.0121991
0.014458
0.0164751
0.0203731
0.0166065
0.02001
0.0139801
0.0233537
0.00737478
0.0167811
-0.0287208
0.0160052
0.0146947
-0.00464765
0.00665721
0.0126241
0.0118109
0.0306648
0.00835303
-0.0630203
0.00867595
-0.00490329
0.0148533
0.0118439
0.0199724
-0.0102184
-0.000905657
0.0220762
0.00354215
-0.0811165
0.0139205
0.0142323
-0.00203438
0.0107947
-0.002429
-0.0466657
-0.00803013
0.0256975
0.0164344
-0.114641
0.0142411
0.0149721
0.000209236
0.00322207
0.00245172
-0.00467549
0.0466989
0.0190353
0.0150195
0.00924868
-0.0270725
0.00753458
0.014093
-0.00608208
0.00411089
0.000550934
0.0131663
0.0136624
-0.000504313
0.000836129
-0.00883307
0.00774653
0.019552
-0.00185267
0.0134999
0.00627212
0.00498928
0.0161658
-0.00250468
-0.000515197
-0.00312857
-0.0277617
0.0143568
0.0132371
0.0147557
-0.0303302
-0.0223878
0.0188217
0.0170427
-0.00753239
0.0136517
0.0130214
-0.0526136
-0.0110776
-0.000767875
-0.036507
-0.0396385
0.00706685
-0.0409317
-0.00901108
0.00725776
0.000230766
0.000127726
-0.00525401
0.0149885
0.00636285
-0.0105009
0.0166205
0.0332486
0.0129431
0.0271319
0.0177547
-0.0120109
0.0123243
0.00100498
0.00840378
0.0104881
0.00537592
0.00907417
0.0172262
0.0163704
0.00895167
0.00872191
0.0159486
0.0168368
0.00521991
-0.00220666
0.0132352
0.000838694
0.0154396
0.00159855
0.00478964
0.00460597
0.0106636
-0.0458191
0.014253
0.014039
-0.00208108
-0.0521886
0.0150538
0.0150368
-0.0115847
0.00894408
-0.0104758
0.00142008
0.0114936
-0.387707
0.00904236
0.0160143
0.00614604
0.00517361
0.00903856
0.00189127
0.00390151
0.0083923
0.0091509
0.0196158
0.0142053
0.01392
0.00330631
0.00120597
-0.328591
0.0035535
0.0150248
0.0190505
0.00987565
0.0229035
-0.000706463
-0.00857074
0.0136893
0.00315476
-0.0307883
-0.026134
0.0368662
0.0165713
-0.000953213
0.00472462
0.0249681
0.0140297
-0.0050774
0.0152192
0.00649174
-0.0971673
0.0158957
-0.00264639
0.016378
-0.147933
0.0313116
0.0148335
0.00113805
-0.0993731
-0.0309153
0.0109922
-0.00182726
0.00835782
0.00823122
-0.126175
0.00634649
0.0223639
0.0135262
0.021922
0.0401969
-0.00107065
0.00190045
0.0251505
-0.017192
0.0157393
0.0166319
0.0117582
0.0227556
0.0151553
0.0114033
0.021426
0.0168755
0.0129992
0.00126533
0.00209461
-0.0177965
0.0131416
0.00238833
-0.108583
-0.00921852
0.00189101
0.0160375
0.00774916
-0.00647259
0.017131
0.012093
0.0141468
0.00651631
0.023035
0.00951771
0.0139594
3.89156e-05
0.0163031
0.00479932
0.0187005
0.00167531
0.00462798
0.00553871
0.0151104
0.0194504
-0.0564968
0.0245567
0.00816182
-0.0306742
-0.0231957
0.0050309
-0.000950452
-0.0110738
0.0117646
-0.0121129
0.0238663
-0.112965
0.015117
0.0146663
-0.00597044
0.0105216
0.00526258
0.00233118
0.0141347
-0.336666
0.00916745
0.00698585
0.0205448
-0.00402669
0.0248255
0.0128273
0.0222817
0.0107922
0.00848485
-0.0672432
0.0141333
0.0135125
0.0147314
-0.0523034
0.0155226
0.0156942
-0.0868582
0.0104509
0.0201848
0.00814446
0.0051116
-0.258099
0.011106
0.017381
-0.0185999
0.00590547
-0.0749983
0.00938273
-0.0802334
0.00768019
-0.00314934
-0.00906757
0.0158464
0.00789305
0.0124937
0.0140387
-0.0522404
0.0170049
0.00825476
-0.146648
0.0162373
0.00632162
-0.00414159
-0.0452651
0.00738806
0.0137187
0.0131826
0.00879883
0.0103982
0.0182323
0.00702727
0.0280638
0.00819833
0.0113454
0.00414604
0.00570989
0.00486946