/*--------------------------------*- C++ -*----------------------------------*\
| =========                 |                                                 |
| \\      /  F ield         | OpenFOAM: The Open Source CFD Toolbox           |
|  \\    /   O peration     | Version:  v2012                                 |
|   \\  /    A nd           | Website:  www.openfoam.com                      |
|    \\/     M anipulation  |                                                 |
\*---------------------------------------------------------------------------*/
FoamFile
{
    version     2.0;
    format      ascii;
    class       surfaceScalarField;
    location    "250";
    object      phi;
}
// * * * * * * * * * * * * * * * * * * * * * * * * * * * * * * * * * * * * * //

dimensions      [0 3 -1 0 0 0 0];
oriented        oriented;


internalField   nonuniform List<scalar> 
20642
(
-0.0371348
0.0457171
-0.00858404
0.262286
-0.0376306
-0.224609
-0.107358
0.0992958
0.00807709
-0.353366
0.149185
0.204316
0.369189
0.0474677
-0.416584
-0.0569677
0.31931
-0.223732
0.0163979
0.207437
-0.0541797
0.242804
-0.188595
-0.248239
0.219645
0.0286808
0.00665759
0.00489974
-0.252713
0.198574
0.216974
0.144153
-0.360939
0.592826
-0.592369
0.263833
-0.00573355
-0.258079
0.279593
0.0473815
-0.326891
-0.0448963
0.0077615
0.585381
-0.589856
0.00471666
0.097199
-0.277831
0.180674
-0.0256255
-0.088269
0.113924
-0.000278109
0.0446517
-0.0443759
-0.106994
-0.174519
0.28157
0.630785
-0.38215
-0.248459
0.207307
-0.149875
-0.0573886
0.353586
0.277395
-0.0654731
-0.18041
0.246
0.0942716
-0.271477
0.177262
0.118654
-0.267352
0.14871
0.00665366
0.129412
-0.289499
0.160135
-0.691069
0.398791
0.292285
0.00339072
0.00325937
0.0255377
-0.10741
0.0819085
0.0559934
0.246649
-0.302503
-0.00284373
0.0489801
-0.0461336
-0.66319
0.473975
0.189385
0.345042
-0.102209
0.250412
-0.361862
0.111563
0.613537
-0.0983928
-0.514443
-0.0175274
-0.206116
0.223406
0.0187751
-0.242126
-0.771456
0.603435
0.168167
0.403055
0.144046
-0.547007
-0.128707
0.251141
-0.12236
0.130757
-0.109633
-0.0211041
0.0206792
0.110108
0.19189
-0.0785291
-0.113355
0.204556
-0.311472
0.0300177
-0.0495974
0.0195705
0.353606
-0.202566
-0.151036
-0.417081
-0.245972
0.346403
-0.129256
-0.169315
0.0453263
0.12401
0.0294594
-0.00065475
-0.0288071
-0.297737
-0.104325
0.402264
0.0283979
0.348444
-0.376648
-0.0860355
-0.0832637
0.00338204
0.172452
0.0349061
-0.159543
0.562697
0.0504268
0.14147
0.0172657
0.00267236
-0.0199456
0.53769
-0.485848
-0.0517874
0.474312
-0.61785
0.143557
-0.268891
0.203545
-0.0758714
0.0739297
0.00195034
0.0866507
0.486856
-0.573507
-0.28823
0.117712
0.170562
0.126631
0.218437
-0.155478
-0.00321577
0.0362915
-0.0330751
-0.117158
0.0816234
0.0355477
0.0325111
-0.0353524
-0.26661
-0.135049
0.401843
0.381425
-0.540846
0.103424
-0.277885
-0.0723829
-0.172713
0.245219
0.416622
-0.0965207
-0.320022
-0.16868
0.550227
-0.268016
0.195777
0.242953
-0.18685
-0.364178
0.441618
-0.0772653
-0.604747
0.577933
0.0271364
-0.421637
0.155179
0.00957015
0.0758447
-0.0854093
-0.234664
-0.293662
0.528829
-0.048129
-0.186981
0.23514
-0.093003
0.118594
-0.631753
0.600485
0.0318985
-0.0492676
0.272731
0.482624
0.102966
-0.581776
0.406127
0.175853
0.121195
0.165209
0.188403
-0.61949
0.216169
0.403499
-0.411826
0.272138
0.139855
-0.158773
0.0746763
-0.22759
0.152936
0.588701
-0.587381
-0.00084478
-0.1336
-0.497663
-0.132112
-0.146132
0.278271
0.528797
-0.533563
0.00483845
0.544575
-0.0157259
0.0153187
-0.379355
0.519807
-0.591353
0.0719734
-0.0174315
0.434161
-0.077773
0.0809523
-0.00317794
0.0433782
-0.0689298
0.0255474
0.409272
0.128485
0.539726
-0.395591
0.238563
-0.1199
0.529484
0.0742419
-0.00417346
0.0531576
-0.13978
-0.149674
-0.0692021
-0.00665821
0.38971
-0.171165
-0.218448
0.10598
-0.131575
0.42033
0.162795
-0.582961
0.106325
-0.0941287
-0.0121768
-0.466336
0.283058
0.183337
-0.0935726
-0.510864
0.175938
-0.579999
0.404191
0.270765
-0.153013
-0.14382
0.145726
-0.00187703
-0.0380994
-0.0014956
0.0396114
0.0538708
-0.0442975
0.0878966
-0.274715
0.186932
0.267855
-0.164377
-0.416386
0.55751
-0.140899
-0.102185
-0.0416103
-0.0615115
0.159116
-0.0975257
0.241206
-0.0864872
-0.154711
-0.00574124
-0.0558719
0.0616132
0.183044
0.206774
-0.0663427
0.123343
-0.0569694
0.128487
0.110089
-0.0445339
-0.0122812
0.056812
0.0416052
-0.0412185
-0.000386893
0.0840614
-0.258064
0.174063
0.614279
0.265913
-0.0202802
-0.24564
-0.561714
0.393153
-0.0685437
-0.00922458
-0.537283
0.245724
0.291804
-0.160358
-0.22528
0.385788
-0.37953
0.576578
-0.196983
-0.053872
-0.0632743
-0.235338
0.036643
-0.0435009
0.00684869
-0.459009
0.161494
-0.187414
-0.0508315
0.238305
0.570937
-0.698895
0.128024
0.240439
-0.40065
-0.122853
0.197545
-0.146961
-0.326792
0.473881
0.540863
-0.0206538
0.0506483
-0.0586509
0.0080031
-0.615392
0.608488
0.0070618
0.570862
-0.150394
-0.185631
-0.319373
0.505406
0.0807409
-0.0599291
-0.0208138
0.0859182
-0.311489
0.225667
0.307017
0.0464299
-0.0300825
-0.0163545
0.0878973
-0.24123
0.153354
0.0294218
-0.00129782
-0.0229009
0.0241911
-0.377817
-0.22743
0.605248
0.251872
-0.167756
0.0445696
0.318206
-0.362588
0.0762184
-0.0601122
-0.0161122
-0.0775461
0.00268478
-0.0350937
0.032404
0.210779
-0.11273
-0.098027
0.601541
-0.106129
-0.495316
-0.138023
-0.215218
-0.169453
0.0134755
0.155994
-0.195605
0.134161
-0.212362
0.298372
-0.159016
-0.0919736
0.25109
0.398361
0.239305
0.107241
0.157732
-0.0677025
-0.0900211
0.106961
-0.000617187
0.194012
0.0472064
-0.114078
0.353557
0.0382181
0.119525
-0.397121
-0.293942
0.193203
-0.2413
0.150919
0.0598888
0.13156
-0.110855
0.00202271
-0.119001
0.116995
-0.0427248
0.00200416
0.0407241
-0.259587
-0.35977
0.0418421
-0.00348682
-0.0383665
-0.279508
0.120735
0.158867
0.0572559
-0.0629982
0.510704
-0.0365616
0.349157
-0.495977
0.291879
-0.226019
-0.0657864
0.0315837
-0.0360386
0.00445668
0.0436932
-0.00208794
-0.101141
-0.217573
0.318827
0.268277
-0.100234
-0.168037
-0.238897
0.299654
-0.0606954
-0.236625
-0.385659
-0.12411
0.295558
0.146233
-0.420437
-0.126643
0.547383
-0.0295336
0.329365
-0.299779
0.285984
-0.315472
-0.0129619
0.0523134
-0.118623
-0.163743
-0.0703387
0.0663607
0.00398237
0.629282
-0.250801
-0.377807
0.727163
-0.412063
-0.314975
0.347282
0.38
-0.0327983
-0.0327165
-0.107824
0.140557
-0.144062
0.0288863
0.115184
0.362459
0.184685
-0.546827
0.560288
-0.0859615
-0.108838
0.237334
0.0411391
0.123094
0.325354
-0.44831
-0.376631
0.499875
-0.314334
-0.45701
0.731743
-0.384345
0.315041
0.416821
-0.0167168
0.0492295
-0.0287609
0.0471058
-0.0183528
0.0990571
0.289359
-0.388267
0.482697
0.0869803
-0.569669
-0.125978
0.161552
-0.0355366
-0.0423671
0.00231624
0.0400517
0.0134177
-0.514666
0.501416
0.523927
-0.161109
0.173373
0.0949134
0.0750449
-0.0664533
-0.00858706
-0.100407
-0.0607332
-0.00960245
-0.174658
0.150341
0.0243391
-0.347369
-0.189701
-0.0399425
0.0170341
-0.174342
0.048396
-0.258397
0.118663
0.0113279
0.115499
-0.126786
0.217315
-0.318339
-0.041729
-0.468959
0.214801
0.254236
0.0479135
0.111285
-0.159159
-0.0457525
-0.147762
0.193546
-0.00109222
-0.342743
0.344001
0.603559
-0.180884
-0.327031
-0.121331
0.448451
0.37195
-0.56512
0.193297
-0.00388227
0.0428752
-0.0390403
0.203165
-0.302457
0.0992965
0.1842
-0.575189
0.391136
-0.667539
0.291064
-0.467938
0.141272
-0.279112
-0.388275
-0.185812
0.0628063
0.530489
-0.0267705
-0.164714
0.191545
0.591397
-0.407071
0.00311432
0.0410877
0.0590437
-0.0156691
0.0933381
-0.406425
0.313334
0.308157
0.128813
-0.436874
-0.167749
0.145304
0.0224502
-0.74563
0.310695
0.435034
0.26819
-0.0689032
-0.199264
0.0414073
-0.0452586
-0.349151
-0.396383
0.0338473
-0.037062
0.58045
-0.208375
0.0042555
0.0764843
0.604614
-0.00297102
-0.287548
0.379062
-0.091426
0.288816
-0.289782
-0.320192
0.520358
-0.199868
0.108534
-0.000868725
-0.107645
0.544303
-0.582472
0.0387835
0.227401
-0.139484
-0.28708
0.106449
0.180708
-0.534791
0.15532
-0.222032
0.267505
-0.045461
0.0411684
-0.439401
0.452965
0.166476
-0.0194988
-0.146929
-0.333375
0.463597
-0.130128
-0.358943
0.170592
0.188454
0.493416
-0.124149
-0.0900431
-0.177852
-0.601587
0.22191
0.379832
0.051032
0.4939
0.189151
-0.0172087
-0.171924
-0.570705
0.238219
0.332537
-0.145722
0.193687
-0.25289
0.162965
-0.356545
-0.172131
0.529
0.0605302
-0.00988138
0.0384038
-0.006819
-0.418053
0.558781
-0.140502
-0.647089
0.204624
0.442491
-0.175803
-0.231148
0.375391
-0.144218
0.0984228
0.0107811
-0.109186
0.0198338
-0.0638338
0.0440003
-0.0371512
0.0398325
0.540216
-0.600366
0.060149
-0.259372
0.172899
-0.127541
0.435791
-0.00683305
0.0826848
0.176724
-0.407858
-0.0734162
-0.0339282
-0.202706
-0.389314
-0.059669
0.339341
-0.0939705
0.517316
-0.172768
-0.344407
-0.233456
0.195867
0.0193827
0.112203
-0.488928
0.570981
-0.0818086
0.0251864
0.0510307
-0.360583
-0.2449
0.60605
0.129107
0.030462
-0.654896
0.446712
0.208248
0.037107
-0.0373868
-0.389968
0.556984
-0.166643
0.00781224
0.156897
-0.16466
0.00594433
-0.244783
0.680841
-0.140626
0.189208
-0.677877
0.128125
-0.117833
-0.0102573
-0.0694702
-0.00429811
0.0737707
-0.487353
0.206496
0.28103
0.195428
0.322028
-0.0516445
0.0474751
-0.0626507
0.075882
-0.0132458
0.0979324
-0.0444772
-0.0534582
-0.0384801
0.302333
-0.706763
0.357732
0.112956
0.287065
-0.399859
0.0744526
-0.066701
-0.00774818
-0.137085
-0.122275
-0.327186
-0.379448
0.160146
-0.19946
-0.180492
0.380111
-0.0484804
0.239205
-0.190683
-0.137864
0.0155713
-0.13716
0.121611
0.0166149
0.174034
-0.190626
0.031913
0.236305
-0.146283
0.154573
-0.00823714
0.0431621
0.00256385
-0.0457216
0.114533
-0.530697
-0.264011
-0.223169
0.316333
-0.26882
0.127576
-0.0925926
-0.0349664
0.616458
-0.0563095
-0.559959
0.00299142
-0.141625
-0.00459108
-0.365764
0.0691453
0.298238
-0.269668
0.213399
-0.0282238
-0.185156
-0.442054
-0.205009
-0.297041
0.150702
0.146345
0.539679
-0.396606
-0.142985
-0.105837
-0.117319
0.277015
-0.271014
0.369803
-0.276238
-0.0934914
0.0874095
0.00609186
-0.426941
0.634898
-0.207902
0.0314931
0.0149304
-0.105786
0.132274
0.407492
-0.131827
-0.48517
0.224781
0.26051
0.355264
0.205103
-0.560357
0.143262
-0.558907
0.415857
0.0530848
-0.00843455
-0.115444
0.470722
-0.0222539
0.238641
-0.216279
0.112506
-0.221333
0.266067
-0.234354
-0.0316852
0.118044
-0.34559
0.227674
-0.0716276
0.0177128
0.0539089
0.00878941
0.0744376
0.225635
0.0698688
-0.295381
0.00339528
0.105157
-0.293538
-0.101066
0.394773
0.190915
0.0751796
0.00146433
0.0978484
-0.493735
-0.195197
0.0161622
0.179125
-0.105045
-0.147743
-0.129102
-0.43627
0.565697
0.113843
0.338527
-0.451962
0.233101
-0.59017
0.357293
-0.0951278
-0.146081
0.44649
-0.11373
-0.332626
-0.576856
0.4272
0.149854
0.352355
-0.482095
0.129953
-0.143754
-0.0328452
0.176647
-0.302165
0.162564
0.13963
-0.762983
0.332268
0.430797
-0.675901
0.298094
0.104157
-0.00571291
-0.0137209
0.227142
-0.491203
0.171268
-0.279302
0.257188
0.0928834
-0.0601727
-0.0327125
-0.1423
0.220753
-0.0784411
-0.440621
0.527273
0.0380151
-0.126257
0.0705931
-0.077419
0.265917
-0.515784
0.249965
0.339696
-0.707331
0.36773
-0.0943053
-0.1907
0.285075
-0.347251
0.461524
-0.423205
-0.243547
-0.359246
-0.348005
0.515885
-0.24987
-0.0424715
0.0176404
0.0248244
0.100619
-0.39399
-0.0535797
0.226807
-0.17318
-0.0049421
0.0460287
-0.0199341
0.186457
-0.550786
0.130643
0.397704
-0.157113
-0.0124805
-0.0591519
0.197455
0.0945063
-0.0409575
0.0028376
-0.713347
0.276072
0.437346
0.523457
-0.200208
-0.323047
-0.605142
0.178256
0.662656
-0.3475
0.326053
-0.0755271
-0.485722
0.205241
0.280599
0.0161916
0.0766899
-0.443953
0.565623
-0.12162
0.00650458
0.18142
0.342268
0.000551526
-0.136172
0.135693
-0.414445
0.584878
-0.170387
-0.108012
0.403712
-0.143737
-0.0308993
0.0802318
0.0176968
0.159413
-0.358718
-0.208629
0.110326
0.0983125
0.339118
0.218051
-0.556879
-0.625811
0.200984
0.425369
0.481214
-0.128666
-0.284898
-0.20015
0.421013
-0.555826
0.135121
0.433527
-0.614491
0.181618
0.00465729
-0.0178302
0.57334
-0.152025
-0.218472
-0.0035465
-0.0142133
-0.0867144
0.100948
0.35811
0.209485
-0.567258
0.160275
0.0266827
-0.186911
0.120007
0.00323638
0.0459975
0.000418649
-0.046422
-0.217632
0.188447
0.029262
0.0183031
-0.256583
-0.225758
0.482353
-0.486885
0.23031
-0.260834
-0.113511
0.138423
-0.552825
0.335484
-0.00488595
0.0890642
-0.0841748
-0.414921
-0.166668
0.289999
-0.394129
-0.205183
0.212537
-0.172884
-0.0395633
-0.104636
0.262119
-0.157429
-0.0731865
-0.0303559
0.103561
0.133884
-0.0186234
-0.11522
0.103277
0.350112
-0.453329
0.437541
-0.308643
-0.0967311
-0.181066
0.0139299
-0.193103
0.179219
0.0999724
0.346649
-0.212498
0.206775
0.078251
-0.163709
0.0855158
-0.108044
-0.178959
0.00866747
-0.0423442
0.0336709
-0.479071
0.165182
-0.151215
0.147367
-0.133877
0.131883
0.331754
-0.463209
-0.0593785
0.0585269
0.000851554
-0.268844
-0.356514
0.398438
0.264324
0.0313487
-0.175061
-0.314761
-0.398521
0.499479
0.130474
0.187137
0.0020367
0.00821787
0.0474568
-0.205689
0.0720508
0.133647
0.296676
-0.481906
0.282739
-0.0891061
-0.193513
0.13825
0.360337
-0.498531
0.100819
-0.0990751
-0.00174145
-0.130447
0.123617
0.00683358
0.243457
-0.398336
0.155026
-0.110351
0.161472
0.316381
-0.477486
0.000899672
0.16465
-0.165517
0.484565
-0.310884
-0.173687
-0.549855
0.402415
0.14764
0.0795826
0.53708
0.471681
-0.12238
0.363093
-0.491894
0.491658
-0.442684
-0.0488955
-0.208023
0.169627
0.0384681
0.595542
0.0154926
0.118429
-0.346451
0.478783
0.380619
0.0455353
-0.425943
0.153947
-0.258889
0.00430031
0.0473902
-0.0516875
-0.506352
-0.0165715
0.523148
0.270749
-0.191088
-0.079556
-0.178894
-0.386103
0.154707
-0.154079
0.0478387
-0.189895
0.142091
-0.153648
-0.108221
0.261903
-0.158457
-0.227215
-0.178888
-0.158559
0.33757
0.174077
-0.00558769
0.0628408
-0.0176257
-0.0248538
0.0444211
-0.0493643
-0.429536
0.569479
-0.139717
-0.351798
0.48316
-0.131164
-0.339248
0.442558
0.417381
-0.14327
-0.273936
0.07959
-0.0132374
-0.066341
0.651202
-0.340411
-0.349421
0.459305
-0.109901
-0.076942
-0.202466
-0.00295564
-0.0639441
0.0669052
-0.215012
0.0921904
-0.00158986
0.0126911
-0.0111073
0.420424
0.153223
0.14491
-0.082966
-0.0619146
0.521144
0.0680163
0.159592
-0.597434
0.43793
-0.0444081
0.0414517
-0.746666
0.431986
-0.0531805
-0.0298159
0.0830052
0.620661
-0.565604
-0.0550259
0.490994
-0.132546
0.129609
0.0356
-0.108767
0.023733
0.467997
0.424759
-0.513024
0.0884075
0.00462614
0.101361
-0.105963
0.15455
0.00577218
0.482139
-0.367692
0.0222443
-0.0761045
-0.0693875
0.0520819
0.0173063
-0.00710233
0.053095
-0.519988
0.0138435
0.0476614
-0.0314393
-0.0162288
0.590391
-0.483233
-0.107123
-0.0360854
0.0237981
-0.493471
0.258119
0.559937
-0.400263
0.607758
-0.203558
-0.404172
0.314783
0.229845
-0.094753
0.173063
-0.246057
0.154207
-0.414319
-0.208312
-0.378688
-0.751693
0.289238
0.462937
0.0879082
-0.0656495
-0.428266
0.428504
2.871e-05
-0.00198464
0.11484
-0.112815
-0.116887
0.407076
0.523076
-0.0981718
-0.492591
-0.122656
0.0557323
-0.134252
-0.0555965
-0.0253677
0.0809658
-0.0375512
0.0359537
0.14009
-0.128721
-0.159438
-0.0485147
0.0124794
0.0799481
-0.0924172
-0.00562317
-0.0367423
0.547307
-0.403842
-0.0674182
-0.0271201
0.0945394
-0.442719
-0.308547
-0.0913646
-0.0157331
0.107111
0.133785
0.283759
-0.0139308
-0.079549
-0.140066
0.503457
-0.1672
-0.275408
-0.364065
0.138893
0.0935115
-0.169428
0.189177
-0.0196895
-0.0803805
0.0666639
0.0137224
-0.62464
0.0878172
0.537053
0.157777
-0.184484
0.121325
0.331376
-0.452545
0.484226
-0.169393
-0.00387347
0.047041
-0.256081
0.179548
0.0765556
-0.0708746
-0.352251
0.423246
-0.115601
0.131193
0.167643
0.577438
-0.422859
-0.154491
-0.0145642
0.585556
0.0455323
-0.0494002
-0.087704
-0.340235
0.136653
0.383146
0.268138
-0.4193
0.348539
0.0891
0.0384909
-0.389302
-0.30953
0.136576
-0.0196584
-0.116895
-0.579185
0.550346
0.0291815
-0.595672
0.446937
0.14914
-0.0334179
-0.0949421
0.405156
0.0262178
-0.00103369
-0.0251848
0.0213192
-0.074495
-0.178164
0.285064
-0.106868
0.130313
0.0170651
0.551426
-0.130686
0.289689
-0.242236
-0.041322
0.0456257
0.0379148
0.0350163
-0.0729244
-0.286229
0.191998
-0.176985
-0.184786
-0.396499
0.229376
-0.208588
-0.370316
0.567441
-0.306821
-0.260424
0.501577
-0.441431
0.0323649
-0.164166
0.131835
0.181074
0.0446798
-0.225663
-0.0154817
0.0241422
0.0265059
-0.195867
-0.307469
0.171972
0.135522
-0.116409
-0.0140354
-0.276951
-0.293706
0.0197852
0.159318
-0.17905
-0.0108298
-0.108153
0.0361639
-0.385273
0.56269
-0.34572
-0.216911
-0.0932501
0.594824
-0.226973
-0.368306
-0.438268
0.344923
0.502761
0.105881
0.46801
-0.329716
0.401651
-0.588582
0.187563
0.0215725
0.0260821
0.177657
-0.0441858
-0.133318
-0.631776
0.453106
0.179169
0.126524
-0.107112
-0.22797
-0.39649
0.0552304
-0.0353971
0.183485
0.397092
0.153914
0.403812
-0.0457195
0.0539382
-0.183112
0.0652702
0.117874
0.286437
-0.521343
-0.204717
-0.129736
0.334584
-0.611968
0.196054
0.415956
-0.559236
0.410885
0.148554
0.173257
0.0996265
-0.272815
0.173536
-0.00495947
-0.16853
-0.363844
0.505165
-0.141055
-0.00251763
0.0353464
-0.0328278
-0.100152
0.227325
-0.127101
-0.314005
0.500107
-0.18611
0.513049
-0.226616
0.227111
0.335636
-0.041079
-0.0283077
0.0929625
0.189891
-0.651647
0.269556
0.382479
-0.29784
-0.00522462
0.0466203
-0.0931758
0.239448
-0.118626
-0.0308771
-0.0100873
-0.475236
0.0380481
0.437168
-0.561552
0.171974
0.141593
-0.559421
0.228159
0.0980087
0.00639863
-0.544804
0.235512
0.309297
0.0245143
-0.114057
0.287406
0.191229
0.0796166
0.0177969
-0.44115
0.313714
-0.120149
-0.0169877
0.149433
0.0283448
0.395467
-0.123161
0.27614
-0.0331014
-0.366329
-0.284937
0.209144
-0.0355338
0.316298
0.064947
-0.340005
0.137806
0.202302
0.153232
0.343388
-0.496556
0.0317861
0.00372326
-0.035512
0.514958
0.0656282
-0.58058
-0.390221
-0.0850367
-0.375771
0.198894
0.0791554
0.212962
-0.292055
0.0617365
0.161412
-0.223067
-0.0345093
0.0724334
0.494197
0.0840463
0.00911799
-0.118642
0.109566
-0.0806878
0.0250941
0.256029
0.217264
-0.473295
-0.145435
-0.284466
0.430076
-0.169317
0.510907
-0.108628
0.0901953
0.271982
-0.361962
-0.405837
0.20877
0.197198
0.397232
-0.0983531
-0.29883
0.140978
-0.0832064
0.138949
0.0164481
-0.394803
0.560853
-0.165757
-0.007878
0.0738594
-0.0659787
0.0597886
0.15993
0.20479
0.00781629
-0.126411
0.392714
-0.279602
0.0716603
0.0732871
-0.0728002
-0.154777
0.396916
0.133641
-0.530375
-0.132516
-0.050561
-0.149103
0.193022
-0.0438964
0.158074
-0.00853952
0.551216
-0.400225
-0.1508
0.406066
-0.532404
0.353582
0.214022
0.000254225
-0.108613
0.355419
-0.609872
0.377033
0.232954
0.162316
-0.0331433
-0.529359
0.165774
-0.568008
0.413604
0.154667
0.023891
-0.10991
0.154621
-0.305386
0.415836
-0.110404
0.0969874
-0.239275
0.19501
-0.243443
0.0698913
-0.298349
-0.107393
-0.307259
0.21081
0.00427583
-0.0957363
0.0914719
0.405584
0.154439
-0.553189
0.158282
0.394954
-0.376208
-0.301459
0.526068
-0.530433
0.00462837
0.234226
-0.344863
0.110773
-0.309922
0.185314
0.124699
0.0903761
-0.243991
0.396601
0.154804
0.61719
-0.200857
-0.416321
-0.348648
-0.140689
0.489483
-0.374656
-0.118828
-0.137029
-0.158378
-0.0591795
-0.378767
0.132967
-0.0174388
-0.347133
-0.0595586
0.0702711
-0.0107143
0.0915762
-0.396916
-0.477187
0.101179
-0.0090439
-0.05479
0.289641
-0.106482
-0.18306
0.0394019
0.103471
0.163169
-0.410669
-0.00151406
0.412218
0.134057
0.310227
-0.444178
0.553596
-0.410876
-0.142507
-0.420033
0.27477
0.0329497
-0.0568992
0.0239513
-0.175832
0.205978
-0.0300586
0.11747
-0.2956
0.144374
0.0763902
-0.301065
0.39149
0.0232747
0.134865
0.672181
-0.18948
-0.402556
0.492791
-0.0901763
-0.497278
0.227146
0.270127
0.485834
-0.398849
-0.022311
0.266835
-0.105325
-0.161404
-0.0522213
-0.358414
0.115662
-0.00965344
-0.048798
-0.299191
0.348018
0.288392
-0.517252
0.229047
0.32219
-0.516869
0.194945
0.194319
-0.177682
0.156917
-0.288259
0.411
-0.122553
0.0892868
0.21741
-0.306577
-0.352267
0.501866
-0.149402
0.0207514
0.491659
-0.203118
-0.0918392
-0.165479
0.257344
0.268874
0.126752
0.0405854
-0.0034
-0.0371838
-0.0405066
-0.405818
0.196814
0.209026
0.00800449
-0.0987913
-0.10983
-0.00431087
0.109668
0.26575
-0.408225
0.564653
-0.156053
0.556097
-0.440824
-0.115185
-0.11236
0.383074
-0.270516
-0.0835628
-0.235124
0.318806
0.458511
0.0333886
-0.505837
0.351796
0.15428
-0.215058
-0.0870842
0.114192
0.00716152
-0.0796809
0.0725279
0.219105
-0.327576
-0.0350873
-0.147651
0.182696
-0.179287
-0.0334555
0.212765
-0.557235
0.407986
0.149452
-0.189553
0.208377
0.25866
0.0310711
0.566116
-0.188751
-0.377277
-0.015223
-0.17671
0.192019
0.190948
0.444005
-0.00631291
0.0606546
0.153509
-0.121113
-0.595119
0.165701
0.429429
0.161157
0.397842
0.237822
0.225568
-0.531932
0.35933
-0.474125
0.125623
-0.010858
-0.393439
0.559335
-0.165524
-0.102708
0.355157
-0.494925
-0.209781
0.526055
-0.316273
-0.406888
0.138801
0.268176
0.116146
0.323583
-0.439478
-0.0738234
-0.369881
-0.115927
0.163146
-0.556189
0.306784
-0.0723013
0.284888
0.0380268
-0.322803
0.00136905
-0.560945
0.408274
0.152948
0.175587
0.232181
-0.667852
0.435719
-0.345138
-0.128846
-0.0350338
0.0376035
0.483955
-0.161503
-0.14242
0.291722
-3.6547e-05
0.12659
-0.0436142
0.659351
-0.427129
-0.378195
0.309539
0.068676
0.0959974
-0.0917101
0.560089
-0.401737
-0.158259
0.100579
0.294557
-0.395014
0.131089
0.0777639
-0.168054
-0.300289
0.468486
-0.0919332
0.0965828
0.283952
-0.352077
0.0682596
-0.048756
-0.0106221
0.276592
0.102548
0.130712
-0.00827663
-0.122431
-0.343574
-0.45508
-0.122316
0.577458
-0.583694
0.468265
-0.0986551
0.532882
0.665034
-0.150071
0.0587421
-0.0643321
-0.103647
0.331523
-0.22775
-0.609666
0.242721
0.36731
0.220146
-0.37485
0.154726
0.163573
0.142482
0.413708
-0.116294
0.309752
-0.0839976
0.0103976
-0.224323
0.170793
-0.114118
-0.00421072
0.118353
0.113118
0.237689
-0.0463578
-0.00520021
0.0474915
-0.0422889
-0.381556
0.130622
0.251083
-0.124593
-0.240424
0.412955
-0.172327
-0.0442436
0.00603172
0.038212
-0.435534
0.194703
0.122713
-0.317314
-0.232397
-0.435406
-0.214418
-0.350895
0.565408
-0.635565
0.403218
0.604284
-0.182423
-0.42175
0.571209
-0.433733
-0.137355
0.135769
0.288915
-0.424511
-0.172162
-0.0403911
0.212624
0.541296
-0.144198
0.233287
-0.336806
-0.0114686
-0.115408
0.126913
-0.0344862
0.0524022
-0.0179251
-0.0636674
0.0041064
0.129062
-0.129068
-0.213578
-0.424314
-0.159364
0.476277
-0.327604
-0.148354
-0.00626802
-0.0894552
0.296229
0.18833
0.0262173
0.140882
-0.419146
0.278364
0.151487
-0.0102321
0.508907
-0.49818
-0.292594
0.416979
-0.124199
-0.287227
0.428203
-0.418012
-0.187076
-0.363504
-0.142917
0.506718
-0.152566
0.172401
-0.248308
-0.360993
0.0366547
-0.0473212
0.0106612
0.396887
-0.365948
0.52695
-0.16068
-0.0313125
0.0642644
-0.419916
0.179685
-0.27251
-0.317487
-0.0976514
0.506983
-0.00380539
0.049345
-0.0345663
0.199782
-0.204554
0.582105
-0.377435
-0.228894
-0.460727
-0.162268
0.623193
0.54193
-0.0125612
0.0712168
-0.0586549
0.136703
-0.0676761
-0.166409
0.2341
0.194473
-0.33677
-0.434661
0.38247
-0.211348
0.593843
-0.440993
-0.152747
-0.0453845
-0.180579
0.314314
-0.363078
0.0550458
-0.233845
0.0416262
-0.0472481
0.272772
-0.423664
0.15095
-0.429218
0.331303
0.379534
-0.278856
-0.511439
0.34984
0.161705
-0.149463
0.00334444
-0.104339
0.101026
0.0303517
0.134677
0.229262
-0.0481095
-0.0489656
0.0437632
0.0562646
-0.0196156
-0.0699022
0.384251
-0.099478
0.102846
-0.412714
-0.162351
0.00441126
0.0450081
-0.0494185
-0.447737
-0.132162
0.0781338
-0.0190825
-0.0590535
-0.146829
0.0150678
-0.210183
-0.28064
0.311696
-0.0309488
-0.136358
0.118384
0.0179751
0.00779489
-0.0736896
0.0658957
-0.642528
0.241301
0.401262
0.0898345
-0.419825
-0.444566
-0.300938
-0.204683
0.167365
0.383471
-0.114437
-0.0842141
0.368293
-0.16498
-0.0472529
0.212242
-0.0317826
-0.00160361
0.0333872
0.146212
0.195006
-0.0419396
0.00520004
0.524309
0.0963808
-0.175218
0.466289
-0.290978
-0.408406
0.0489809
-0.0634491
0.0144674
0.209188
-0.292634
0.0199847
0.570442
-0.143571
0.160037
-0.252498
-0.14763
0.400281
-0.395742
0.276182
0.121101
0.0352146
0.191932
-0.227071
0.292913
-0.405058
-0.129062
-0.411342
-0.23115
0.411397
0.17308
-0.584445
-0.201054
-0.138021
0.410845
-0.0437192
0.00208592
0.0416349
-0.329686
0.125094
-0.114641
0.333893
-0.454356
0.552491
-0.0981141
0.0396127
-0.426099
0.631218
0.165731
-0.299142
0.108512
-0.187161
-0.125547
0.312806
0.217959
-0.0234008
0.43394
0.225453
0.0577878
0.486279
-0.33299
-0.489136
0.148291
0.34098
0.0146608
-0.129775
0.115162
-0.438846
0.00280754
0.465525
-0.209497
-0.105887
-0.0274778
0.1334
0.0835727
-0.0977674
-0.01807
-0.100535
-0.122469
0.00811157
0.114363
-0.264354
-0.280446
0.0984841
-0.082293
0.0559922
0.00536265
-0.0613556
0.524176
0.0908197
-0.0935761
0.250868
-0.426005
-0.0148466
0.179528
0.147959
0.0136249
0.484215
-0.257082
-0.0719831
0.231897
-0.159824
-0.401939
-0.195417
0.246638
-0.172446
-0.0741012
-0.144885
-0.237213
-0.108256
-0.0367361
0.0544422
-0.15815
-0.0285262
0.186737
0.0369389
-0.186019
-0.0545818
0.0607936
-0.00621376
0.0879905
-0.00760796
0.103102
-0.0954826
-0.209317
-0.411422
0.119016
0.339864
0.121813
-0.461614
0.574471
-0.163041
-0.595398
0.444693
0.150761
-0.396857
0.545846
-0.148703
-0.225516
-0.0663538
0.0741478
-0.594325
0.425398
0.169282
0.0955178
0.236124
-0.142455
-0.241552
-0.105528
-0.234379
0.340061
0.201776
-0.0277204
-0.131601
0.0374467
0.094179
-0.293585
0.121372
-0.550685
-0.230933
0.139125
0.0285295
-0.482865
-0.286632
0.229722
0.0447672
-0.0499668
-0.113186
-0.213703
0.32702
0.155523
0.308214
-0.46357
0.254032
-0.120378
-0.426276
0.329518
-0.233883
0.0594221
-0.00342888
-0.0393074
0.395558
-0.106383
-0.289126
0.19875
-0.177335
-0.0213809
0.312422
-0.104666
-0.207683
-0.0378213
0.00693668
-0.0614275
0.240998
-0.24514
0.140556
-0.0044343
0.0860724
0.54421
-0.0701538
-0.104161
-0.0415922
-0.0926489
-0.492613
0.317973
-0.252859
0.164841
0.0880252
0.523565
-0.00758178
-0.101263
-0.0104977
0.513316
-0.502314
0.248663
-0.354012
-0.336448
0.057075
0.275635
-0.151477
0.171833
-0.0203093
0.590184
-0.185193
-0.404746
0.111555
-0.0587391
0.240373
0.0695049
0.0979682
0.00285213
0.207321
-0.446002
0.133708
0.312455
0.00590936
0.216936
0.137485
-0.354333
-0.0944467
0.320895
-0.22632
-0.495617
0.313541
0.182313
0.00528616
0.0435577
-0.0488437
-0.011582
0.151716
-0.0484982
0.187181
-0.270415
0.083306
-0.00202388
-0.0122978
0.167208
0.0258372
-0.177988
-0.203395
-0.202402
0.186255
-0.0284141
0.371372
-0.574898
0.405876
-0.289502
-0.160694
-0.00380258
0.164506
-0.223464
-0.172026
-0.165733
-0.105686
-0.2042
0.239487
-0.311893
0.124831
-0.121313
0.136019
-0.000734303
0.131449
-0.468854
0.149796
-0.166279
0.182809
-0.0165173
-0.17968
-0.25496
0.287559
0.123626
-0.343174
0.488809
-0.145307
0.179705
0.396931
0.0742203
-0.0644489
-0.00977076
0.107836
-0.0953455
0.584583
-0.429311
-0.155059
0.150727
-0.606906
0.196119
0.410809
0.0595103
-0.358673
0.040134
0.350846
-0.434917
-0.154596
-0.338338
0.493412
0.0257352
0.497918
-0.273519
0.0355769
-0.493024
0.458141
0.320399
-0.0921336
0.064938
0.00928235
0.126688
0.164328
-0.229163
0.0649131
0.408611
0.165896
-0.402258
0.00184076
0.127252
-0.0151648
0.0641454
0.00441845
-0.00644923
-0.134851
-0.494321
0.545954
0.340279
-0.494381
-0.106141
0.339554
0.0535045
-0.432739
-0.162368
0.0225089
-0.088701
0.00940552
0.128833
-0.138186
-0.100691
0.255001
-0.5806
0.187074
0.393548
0.301604
-0.116199
-0.00825276
0.462005
-0.391294
-0.0705854
-0.177989
0.242711
-0.0646985
-0.384461
0.562299
-0.41902
-0.143078
-0.363108
0.228188
0.0038959
0.0489771
-0.0528684
-0.189496
0.156701
-0.153227
0.561873
-0.155755
0.176413
-0.0206405
-0.397878
0.00155372
0.143758
-0.45933
0.209059
0.394345
0.168162
-0.562053
-0.071598
-0.443078
0.0881583
0.373974
0.269254
0.126351
-0.106014
-0.0106777
0.116718
-0.176063
0.254656
-0.0785365
-0.103369
-0.198998
0.490582
0.0012517
0.133405
0.424053
0.123628
-0.537311
0.236496
-0.21632
0.0442313
0.17399
0.0219327
-0.19588
0.0329064
-0.0354234
-0.226833
0.189019
-0.204151
-0.143237
0.162968
-0.0196635
-0.0241825
0.191415
0.171553
0.398143
0.147369
0.114816
0.129825
-0.0146316
-0.0817481
0.0697201
0.0120363
0.0373414
0.0216979
-0.130312
0.362221
-0.231784
0.278591
-0.496992
0.218544
-0.0389573
-0.622799
0.28488
-0.502622
0.0765401
0.188375
0.0899092
-0.278168
0.0372963
-0.352955
0.140959
0.21213
-0.421296
0.0778839
0.0144922
-0.0923707
0.213471
-0.151655
0.107499
-0.35492
0.247537
-0.188246
0.41391
0.0106944
0.12624
-0.136932
0.0781544
-0.0822629
0.00412074
-0.0379271
-0.00400878
0.352845
-0.493375
0.11634
-0.429913
0.313768
-0.102152
0.4581
0.112893
-0.496729
-0.0189604
-0.170662
0.218041
-0.0473618
0.192217
0.307882
-0.273447
0.0989671
0.174556
-0.20236
0.155891
0.0465317
-0.318857
0.21563
0.0662099
-0.0705224
0.137134
0.35572
-0.492523
-0.129255
0.38161
-0.252275
-0.123925
-0.187865
-0.228574
0.507335
-0.010455
-0.0712861
0.120058
-0.474357
0.354625
0.559473
-0.213427
0.0484582
0.10813
-0.122762
0.014673
-0.135309
0.15142
-0.0161083
-0.00740017
0.0851578
-0.077745
-0.149553
-0.277457
0.427339
0.111677
0.0794707
-0.191082
-0.349718
0.532461
0.0723518
0.307283
-0.525092
0.51544
-0.19989
0.359449
0.0772312
-0.0876789
0.0270959
0.323872
0.147563
-0.183061
0.448643
-0.10872
-0.564767
0.411733
0.153086
0.145352
-0.43071
-0.146929
0.57767
-0.173161
-0.00565745
0.0500784
0.440538
-0.596428
0.155955
0.289466
0.112013
-0.123449
-0.535047
-0.120319
-0.0924697
-0.10984
-0.0679009
0.179646
0.27931
0.12676
-0.405879
-0.500148
-0.16203
-0.362806
0.525132
0.410039
0.152473
-0.636625
0.462382
0.17425
-0.207418
-0.158653
0.494061
-0.335361
0.323039
0.218186
0.054376
-0.514925
-0.414178
-0.116957
0.531185
-0.120384
0.282319
-0.161902
-0.192888
0.0100514
0.0563117
0.0162835
-0.167714
0.150509
-0.351912
0.525327
-0.173113
0.555741
-0.443738
-0.111818
0.152389
0.0194899
-0.573702
0.169742
0.403992
0.100202
-0.2854
-0.267759
-0.20637
-0.26708
-0.385013
0.187301
-0.363954
0.242159
0.121899
-0.0828047
0.0574385
0.43946
0.150941
0.590691
-0.150091
0.25333
-0.0724972
-0.180744
-0.633397
0.175012
0.458396
0.628707
-0.198129
-0.430368
-0.0477448
0.302512
0.114663
-0.321422
0.0375883
-0.208232
-0.15913
-0.00604224
0.184462
-0.0691673
0.230668
0.221562
-0.183958
-0.158857
-0.414813
-0.459879
0.530831
-0.0708385
-0.078549
-0.147709
-0.271989
0.498259
0.106454
-0.143352
0.15649
-0.0131333