/*--------------------------------*- C++ -*----------------------------------*\
| =========                 |                                                 |
| \\      /  F ield         | OpenFOAM: The Open Source CFD Toolbox           |
|  \\    /   O peration     | Version:  v2012                                 |
|   \\  /    A nd           | Website:  www.openfoam.com                      |
|    \\/     M anipulation  |                                                 |
\*---------------------------------------------------------------------------*/
FoamFile
{
    version     2.0;
    format      ascii;
    class       surfaceScalarField;
    location    "450";
    object      phi;
}
// * * * * * * * * * * * * * * * * * * * * * * * * * * * * * * * * * * * * * //

dimensions      [0 3 -1 0 0 0 0];
oriented        oriented;


internalField   nonuniform List<scalar> 
20642
(
-0.035405
0.0434885
-0.00808199
0.336546
-0.113362
-0.223231
-0.101966
0.0805952
0.0213474
-0.350009
0.131255
0.218649
0.371773
0.0375501
-0.409399
-0.00211805
0.338603
-0.22423
0.0290846
0.195068
0.052704
0.163226
-0.215966
-0.243716
0.225918
0.0177192
0.00155827
0.000285471
-0.205179
0.257835
0.242205
0.123545
-0.365875
0.601701
-0.602264
0.176672
0.0543722
-0.231066
0.329797
0.0185552
-0.348424
-0.0429952
0.0075896
0.588687
-0.594932
0.00585954
0.00462239
-0.241155
0.236485
-0.0373995
-0.0694119
0.106777
-0.00303605
0.0444326
-0.041396
-0.0596494
-0.204999
0.26459
0.642516
-0.370398
-0.272287
0.192984
-0.140406
-0.0526165
0.339255
0.303074
-0.0386443
-0.191755
0.230313
0.0412937
-0.252481
0.211132
-0.0974155
-0.0602349
0.157638
0.00156212
0.0637654
-0.272764
0.208945
-0.681486
0.398265
0.28321
0.00233301
-0.000767795
0.0152784
-0.102399
0.0870858
0.031979
0.261902
-0.293987
0.000366113
0.0432888
-0.0436591
-0.667188
0.496434
0.170546
0.318852
-0.15566
0.283322
-0.363287
0.079877
0.625514
-0.102848
-0.523368
-0.0285366
-0.19576
0.237426
-0.0280867
-0.209402
-0.773604
0.605393
0.167933
0.426162
0.119783
-0.546077
-0.143915
0.251913
-0.108048
0.115708
-0.107457
-0.00827199
0.00627132
0.109405
0.149986
-0.0757734
-0.0742224
0.244684
-0.30441
-0.025086
-0.0331988
0.0582932
0.288521
-0.346628
0.0580909
-0.40372
-0.263636
0.35013
-0.108038
-0.136212
0.0482543
0.0879266
0.022305
-0.00187649
-0.0204295
-0.326176
-0.0777355
0.403741
-0.00187713
0.375985
-0.374266
-0.0781171
-0.0581187
0.00234219
0.160125
0.0328112
-0.136703
0.562726
0.0602885
0.0896834
-0.0968621
0.155236
-0.0583634
0.530339
-0.503836
-0.0266069
0.473994
-0.6177
0.143675
-0.256754
0.218014
-0.075204
0.0680246
0.00716803
0.138927
0.433434
-0.572364
-0.266972
0.0505233
0.2164
0.19395
0.124869
-0.200599
-0.0048057
0.0320453
-0.0272407
-0.102899
0.063391
0.0394928
0.0314771
-0.0311151
-0.24732
-0.152068
0.399253
0.405289
-0.542154
0.0521521
-0.257211
-0.0351435
-0.189565
0.224621
0.428153
-0.111434
-0.316801
-0.147048
0.552173
-0.251732
0.216484
0.22711
-0.195213
-0.394815
0.443915
-0.0492455
-0.611298
0.582282
0.0285656
-0.419021
0.171589
0.024636
0.0545232
-0.0791698
-0.226512
-0.308857
0.534879
-0.0157884
-0.201045
0.216802
-0.0974422
0.11268
-0.646187
0.609082
0.0364964
-0.00531135
0.242671
0.486805
0.101542
-0.584836
0.410543
0.173969
0.110615
0.363172
-0.0746733
-0.619305
0.194637
0.424418
-0.41372
0.301167
0.112436
-0.203255
-0.199318
-0.0513899
0.250682
0.593107
-0.594926
0.00119449
-0.142618
-0.504046
-0.198593
-0.00108661
0.199648
0.530168
-0.535557
0.00525054
0.546374
-0.0163058
-0.013485
-0.381448
0.52163
-0.598123
0.0760011
0.000216839
0.427823
-0.0915958
0.0705717
0.0210168
0.06235
-0.0752712
0.0129226
0.433753
0.0964724
0.541005
-0.421352
0.0498072
-0.147235
0.534815
0.0700599
-0.0078782
0.0511626
-0.0792968
-0.193516
-0.0614377
-0.0137808
0.383952
-0.189811
-0.194208
0.0882078
-0.125642
0.423094
0.161218
-0.584592
0.104357
-0.0785967
-0.0257842
-0.468655
0.271175
0.197422
-0.0971865
-0.514548
0.153846
-0.577597
0.42358
0.248271
-0.197792
-0.117828
0.129265
-0.0114711
-0.0203973
-0.00447195
0.0248686
0.0523038
-0.0276746
0.0644171
-0.264539
0.200039
0.250357
-0.198262
-0.436776
0.55552
-0.118996
-0.0932152
-0.0246417
-0.0551377
0.157152
-0.102065
0.134097
-0.0381333
-0.0959775
-0.0241321
-0.0243786
0.0485089
0.155638
0.228239
-0.0754159
0.123131
-0.0477562
-0.123901
0.173692
0.0830071
-0.140533
0.0575322
0.0135269
-0.0101854
-0.00335864
0.022174
-0.237408
0.215174
0.624766
0.288256
0.0179554
-0.306233
-0.560454
0.413247
-0.0541406
-0.0374707
-0.54902
0.269094
0.279703
-0.143155
-0.2413
0.384348
-0.416177
0.587783
-0.17171
-0.055971
-0.0469426
0.066285
0.055519
-0.0279268
-0.027585
-0.460284
0.133924
-0.206118
-0.00790102
0.213957
0.572598
-0.70075
0.128031
0.255564
-0.398825
-0.193025
-0.0063137
-0.125228
-0.343162
0.468251
0.547186
-0.0260371
0.02004
-0.039851
0.0198144
-0.617581
0.609384
0.00790031
0.572373
-0.149516
-0.165232
-0.341649
0.506516
0.104013
-0.0739034
-0.030111
0.0373914
-0.304045
0.266555
0.359239
0.12446
-0.0901641
-0.034288
-0.0994861
-0.115976
0.215439
0.0223041
-0.0786297
-0.0234285
0.102068
-0.377818
-0.225953
0.603766
0.23395
-0.211832
0.0787006
0.301995
-0.380866
0.0529806
-0.0572123
0.00422734
-0.0638962
-0.106954
-0.0228176
0.129777
0.165852
-0.0862331
-0.0796509
0.603928
-0.107671
-0.496431
-0.15121
-0.198896
-0.135385
0.0256511
0.109709
-0.193301
0.138118
-0.25063
0.287948
-0.172231
-0.0770687
0.249238
0.417765
0.261169
0.0888678
0.133889
-0.0699839
-0.0639186
0.0913602
0.012973
0.122989
0.0110891
-0.0933438
0.354401
0.0516939
0.0821748
-0.384675
-0.296824
0.21361
-0.229435
0.124608
0.0412016
0.115803
-0.109556
0.0192932
-0.106907
0.0875891
-0.0413755
0.00226082
0.0391109
-0.275764
-0.343731
0.028284
-0.00577661
-0.0225087
-0.263983
0.095099
0.168818
0.0288179
-0.0529559
0.507717
-0.0114904
0.36745
-0.492823
0.271785
-0.248046
-0.0238109
0.0291229
-0.0312348
0.00210944
0.0130901
0.000446886
-0.0667252
-0.251205
0.317831
0.0606478
0.0361811
-0.0968334
-0.2908
0.300423
-0.00968707
-0.211488
-0.406766
-0.0871571
0.324336
0.119435
-0.439205
-0.108898
0.547781
-0.0366523
0.32732
-0.290728
0.277321
-0.314031
0.0223266
0.0431739
-0.118623
-0.196164
-0.0761674
0.0716921
0.00446715
0.640888
-0.252576
-0.38898
0.729835
-0.419179
-0.310824
0.343559
0.386118
-0.0836928
-0.00526509
-0.0993129
0.104551
-0.130551
0.0483124
0.0822237
0.376607
0.176225
-0.553113
0.559987
-0.0860162
-0.164771
0.0408602
0.0264056
0.131699
0.321975
-0.453865
-0.373915
0.505408
-0.31569
-0.458124
0.734
-0.390597
0.311237
0.422603
-0.0140515
0.0455277
-0.0692196
0.0598508
0.00937519
0.0735999
0.311786
-0.385529
0.479771
0.0885437
-0.568326
-0.100712
0.134989
-0.034321
-0.037161
0.00488279
0.0322765
0.0119361
-0.516015
0.50379
0.529717
-0.153418
0.13173
-0.0710925
0.0818835
-0.0483829
-0.0335053
-0.0752684
-0.0636886
-0.012485
-0.129819
0.110774
0.0190142
-0.338668
-0.210545
-0.116174
0.092754
-0.146612
0.0458604
-0.241267
0.161923
0.000593111
0.113212
-0.113848
0.2487
-0.315525
-0.0468884
-0.47018
0.225706
0.244416
0.0667004
0.0792353
-0.145979
-0.0426611
-0.117635
0.160247
-0.0310681
-0.338037
0.368945
0.605165
-0.192423
-0.329341
-0.103007
0.432256
0.390721
-0.560586
0.169685
-0.00767382
0.027994
-0.0203201
-0.0497459
-0.234187
0.283926
0.157742
-0.570636
0.412689
-0.672386
0.298262
-0.463131
0.119832
-0.286738
-0.385851
-0.199068
0.0611922
0.539931
-0.0156477
-0.157002
0.172597
0.584575
-0.427014
0.00358719
0.0067529
0.0664947
-0.00414392
0.0648437
-0.400351
0.335314
0.316232
0.110098
-0.426439
-0.139061
0.09456
0.0444903
-0.742484
0.303319
0.439023
0.292605
-0.160497
-0.132134
0.0219892
-0.0296631
-0.342574
-0.400048
0.0271723
-0.0319789
0.57539
-0.184864
0.00253241
0.101477
0.606214
-0.00246748
-0.331181
0.400649
-0.0695436
0.277101
-0.308289
-0.344615
0.52156
-0.177213
0.104703
-0.0138219
-0.0909091
0.551542
-0.593548
0.0413747
0.0921553
-0.191661
-0.265185
0.0766496
0.188482
-0.547362
0.131094
-0.143672
0.0947182
0.0489428
0.00965029
-0.441814
0.453506
0.148694
-0.0161284
-0.132615
-0.337758
0.452924
-0.115259
-0.350983
0.14075
0.210163
0.483593
-0.111905
-0.0592267
-0.192592
-0.597619
0.198848
0.398553
0.0472194
0.503676
0.130478
0.00254822
-0.133054
-0.555369
0.155603
0.399693
-0.117102
0.183748
-0.24271
0.183396
-0.368396
-0.166243
0.534358
0.0435729
-0.0235305
0.0351096
-0.00598857
-0.437312
0.556754
-0.119703
-0.659884
0.172536
0.487313
-0.195407
-0.277271
0.416381
-0.139174
0.0834521
0.025598
-0.109072
0.0307376
-0.069295
0.0385538
-0.112675
0.00572462
0.479255
-0.582622
0.103368
-0.15483
0.116673
-0.107406
0.42353
-0.0210584
0.07557
0.16452
-0.44186
-0.058169
-0.0438198
-0.207863
-0.394835
-0.0361192
0.365845
0.0714872
0.517036
-0.153523
-0.363649
-0.270714
0.157306
0.00658985
0.109188
-0.493297
0.574009
-0.0811243
0.00492055
0.0480567
-0.358468
-0.2575
0.615436
0.134268
0.0291681
-0.647794
0.456414
0.191268
0.030492
-0.0335276
-0.404766
0.562341
-0.157937
-0.0146321
0.151331
-0.136747
-0.0533975
-0.237463
0.636562
-0.157307
0.188188
-0.681914
0.123631
-0.105599
-0.0180686
-0.0417279
-0.0314572
0.0731845
-0.48997
0.18334
0.306506
0.176451
0.34045
-0.049904
0.0420197
-0.0319619
0.069855
-0.0378916
0.138471
-0.0800119
-0.0584562
-0.0624808
0.23913
-0.70607
0.363327
0.0871542
0.310498
-0.397799
0.0765347
-0.0456688
-0.030868
-0.0758642
-0.078986
-0.332735
-0.373516
0.145727
-0.178202
-0.200464
0.378553
0.0181846
0.203181
-0.22141
-0.131781
0.0275447
-0.121449
0.0938738
-0.00526922
0.134972
-0.129738
0.114392
0.178179
-0.147866
0.156952
-0.00911378
0.041284
0.00284043
-0.0441302
0.0924939
-0.529515
-0.289673
-0.200423
0.306196
-0.268695
0.107346
-0.0892455
-0.0181235
0.617987
-0.0555373
-0.562775
0.00211382
-0.146094
-0.00181226
-0.331526
-0.061565
0.289064
-0.291079
0.14554
-0.0297457
-0.115823
-0.485036
-0.174884
-0.314024
0.342348
-0.0283447
0.544202
-0.417121
-0.1272
-0.0788708
-0.0787803
0.249776
-0.303233
0.360059
-0.295372
-0.0867674
0.0707169
0.0160345
-0.439384
0.627913
-0.18862
0.0874842
0.0369824
-0.0800434
0.118167
0.425917
0.0491302
-0.495311
0.210867
0.284326
0.307295
0.229774
-0.537091
0.124478
-0.555022
0.430301
0.0487922
-0.00435958
-0.136567
0.443834
0.0175944
0.217338
-0.235016
-0.119764
-0.0450192
0.220307
-0.269926
0.0495894
0.0833632
-0.341214
0.257745
-0.127775
0.045198
0.0825825
0.0372833
0.0654551
0.24829
0.037168
-0.285553
0.0180559
0.0866204
-0.318715
-0.0746648
0.393226
0.244704
-0.0244292
-0.0137546
0.0943276
-0.50151
-0.199659
0.028214
0.171382
-0.0791426
-0.163642
-0.106807
-0.45966
0.566166
0.132819
0.333369
-0.466576
0.211912
-0.592642
0.380486
0.0688957
-0.184895
0.461405
-0.138648
-0.32286
-0.57341
0.446433
0.126756
0.376134
-0.482563
0.106231
-0.127803
-0.0252023
0.152952
-0.274639
0.0253094
0.249291
-0.757595
0.320827
0.43665
-0.674607
0.296772
0.105822
-0.0223956
0.00962365
0.135883
-0.497394
0.15255
-0.268098
0.285583
0.0889377
-0.102207
0.0132723
-0.216509
0.0956449
0.120849
-0.402492
0.541413
0.0465128
-0.115955
0.0517004
-0.0727709
0.271072
-0.518342
0.247135
0.329528
-0.704315
0.374653
-0.048599
-0.226979
0.275513
-0.343631
0.476046
-0.428181
-0.264568
-0.364209
-0.340219
0.517385
-0.246444
-0.09162
0.0846073
0.00701996
0.074959
-0.393819
-0.00999183
0.18672
-0.176781
-0.00597756
0.0127054
-0.0170637
0.165708
-0.552659
0.113147
0.395459
-0.140008
-0.0294684
-0.098304
0.228823
0.0428821
-0.0232094
0.00281333
-0.706953
0.261246
0.445596
0.534265
-0.215559
-0.318889
-0.595906
0.156424
0.664697
-0.353616
0.326434
-0.0431989
-0.493431
0.190577
0.302734
-0.0343524
0.123293
-0.476806
0.593953
-0.11723
0.0277363
0.197221
0.336842
0.00541397
-0.13502
0.129555
-0.454528
0.617408
-0.162957
-0.0837734
0.407989
-0.105526
-0.0243243
0.0807144
0.0577591
0.179774
-0.358088
-0.0574236
0.177023
-0.119611
0.360068
0.201527
-0.56189
-0.63778
0.199623
0.437617
0.481143
-0.10519
-0.310734
-0.184696
0.438358
-0.55698
0.118301
0.44585
-0.626473
0.179983
0.0191958
-0.119677
0.575206
-0.13717
-0.0853908
-0.0582944
-0.0283344
-0.0752042
0.10351
0.365937
0.208674
-0.574946
0.140616
0.0253711
-0.166038
0.128083
-0.00189509
0.0839666
0.00267621
-0.0866377
-0.211782
0.192013
0.0197355
0.0386012
-0.299985
-0.183447
0.48341
-0.521478
0.221474
-0.282672
-0.149187
0.129201
-0.583799
0.331958
0.0201818
0.078321
-0.0985093
-0.419562
-0.165573
0.314906
-0.392808
-0.230481
0.204704
-0.178011
-0.026746
-0.0626944
0.247122
-0.184482
-0.080083
-0.0156297
0.0956893
0.128179
-0.0210272
-0.107189
0.0649049
0.379981
-0.444991
0.424059
-0.314054
-0.0225421
-0.218651
-0.0359022
-0.14375
0.179604
0.121623
0.339679
-0.153659
0.20802
0.0804388
-0.155331
0.0748398
-0.0803116
-0.184928
0.0466326
-0.128902
0.0822768
-0.484474
0.113266
-0.149214
0.11671
-0.0910818
0.146877
0.328842
-0.476132
-0.0346585
0.0237898
0.0108656
-0.278466
-0.359765
0.395149
0.269406
0.0260298
-0.153879
-0.301821
-0.405236
0.512331
0.127886
0.138778
-0.00833258
0.0176938
0.0148474
-0.0112702
-0.159013
0.170275
0.316728
-0.48232
0.277781
-0.073979
-0.203868
0.105307
0.383953
-0.489359
0.116553
-0.0874376
-0.0291213
-0.0831988
0.105118
-0.021922
0.273681
-0.410584
0.136783
-0.084476
0.145284
0.334719
-0.480336
-0.00559444
0.141308
-0.135764
0.484326
-0.383536
-0.100797
-0.547034
0.421339
0.125463
0.0780301
0.539602
0.465569
-0.0982685
0.385287
-0.492373
0.469126
-0.455255
-0.0139896
-0.191967
0.17044
0.0214812
0.598402
0.0186515
0.109494
-0.34536
0.491795
0.405516
0.0160872
-0.421805
0.172336
-0.251554
0.000858463
0.050516
-0.0513797
-0.50588
-0.0233377
0.528918
0.262213
-0.197689
-0.0646006
-0.155942
-0.404824
0.153983
-0.148621
0.0469626
-0.16784
0.120839
-0.200269
-0.0596286
0.259862
-0.128931
-0.129729
-0.153777
-0.179589
0.333266
0.22568
-0.0252495
0.0540631
-0.0744954
-0.0171172
0.00877316
-0.0147434
-0.447762
0.567212
-0.119724
-0.374578
0.48214
-0.107747
-0.364944
0.429772
0.414447
-0.125078
-0.289535
0.0771449
-0.0209435
-0.056216
0.648738
-0.34556
-0.322177
0.465748
-0.143586
-0.0544368
-0.209617
0.0187059
-0.061912
0.0431994
-0.161614
0.079636
0.00217072
0.000937315
-0.00310261
0.437584
0.137294
0.148966
-0.0888395
-0.0601482
0.527871
0.064627
0.132949
-0.588152
0.455057
-0.0255715
0.0442735
-0.741128
0.439191
-0.0662718
-0.0119298
0.0781912
0.621131
-0.566182
-0.0550103
0.498039
-0.132463
0.106385
0.0213308
-0.101435
-0.010444
0.479457
0.431815
-0.514868
0.0828676
0.0187678
0.0878308
-0.106624
0.135367
0.00519665
0.42418
-0.282331
0.00365275
-0.0596382
-0.0458479
0.0190029
0.0268461
-0.0255751
0.109544
-0.525225
0.0190725
0.0352302
-0.0239652
-0.0112653
0.591088
-0.483926
-0.107225
-0.0739048
-0.0666169
-0.256009
0.322275
0.549513
-0.416691
0.609809
-0.16696
-0.442887
0.316054
0.230221
-0.0838166
0.164205
-0.242936
0.165794
-0.420414
-0.213756
-0.381673
-0.765064
0.291048
0.473482
0.067616
-0.0639822
-0.419454
0.437554
-0.0183357
0.00539804
0.10968
-0.115111
-0.0920342
0.406775
0.524769
-0.0931444
-0.493241
-0.124609
0.0191016
-0.0948912
-0.0720124
-0.0233167
0.095324
-0.0172356
0.0194128
0.124337
-0.123787
-0.159952
-0.0320607
-0.00518489
0.0847432
-0.0795735
-0.00882565
-0.0283373
0.543789
-0.419555
-0.093642
-0.00387053
0.09751
-0.450146
-0.315423
-0.0877692
-0.0288774
0.116624
0.115834
0.29846
-0.0238003
-0.0629845
-0.119431
0.504438
-0.211435
-0.243935
-0.364628
0.12325
0.170157
-0.16208
0.172408
-0.0103806
-0.0785823
0.0619628
0.0166111
-0.630611
0.0902951
0.539974
0.151785
-0.167488
0.0934902
0.349891
-0.443558
0.485541
-0.169581
-0.00440706
0.0456844
-0.168934
0.26709
-0.0981815
-0.0463481
-0.370148
0.416352
-0.0881033
0.115617
0.161095
0.568139
-0.440705
-0.127585
-0.0144231
0.58692
0.044129
-0.0485431
-0.065233
-0.354509
0.123496
0.375648
0.272972
-0.409143
0.362653
0.0843281
0.0229989
-0.390821
-0.310045
0.121603
-0.0289547
-0.0926796
-0.585717
0.554471
0.0307777
-0.601874
0.461857
0.139621
0.0813417
-0.0920787
0.407437
0.00641542
-0.00145616
-0.00497055
0.00387718
-0.0701584
-0.298152
0.293194
0.00491168
0.0892931
0.0273993
0.55198
-0.114746
0.309152
-0.290656
-0.0426157
0.0434691
0.0159997
0.0526887
-0.0686973
-0.27405
0.225383
-0.151924
-0.211432
-0.414866
0.203322
-0.213079
-0.373025
0.571557
-0.327879
-0.243883
0.517088
-0.413721
0.0342835
-0.144588
0.110265
0.196169
0.0177286
-0.213964
-0.0859639
0.132605
0.0184621
-0.180602
-0.263639
0.295166
-0.0315624
-0.107917
0.0247154
-0.343182
-0.212257
0.000767939
0.153206
-0.154024
-0.0251837
-0.0817507
0.0320544
-0.403192
0.55968
-0.298661
-0.261103
-0.0664165
0.583507
-0.219232
-0.383024
-0.443342
0.345843
0.504732
0.104362
0.45957
-0.354354
0.4132
-0.600745
0.186945
0.0147316
0.0204985
0.177822
-0.0395727
-0.138308
-0.638452
0.462167
0.175741
0.112409
-0.105846
-0.232347
-0.398525
0.0651112
-0.034376
0.159664
0.415532
0.132449
0.422829
-0.0123863
0.0300833
-0.163539
0.0613121
0.102193
0.408689
-0.497797
-0.220099
-0.113231
0.333238
-0.611134
0.172084
0.438987
-0.556537
0.428992
0.127299
0.186838
0.0849335
-0.271828
0.174638
-0.0119141
-0.162759
-0.385982
0.505292
-0.119548
-0.00426349
0.0172225
-0.0129948
-0.0681281
0.209535
-0.141467
-0.344694
0.448462
-0.103773
0.518479
-0.109797
0.270274
0.289325
-0.0391843
-0.00666355
0.0777955
0.199923
-0.658819
0.269416
0.388944
-0.315811
-0.01039
0.032379
-0.13104
0.226608
-0.131568
-0.0149791
-0.00822788
-0.474004
0.202712
0.271276
-0.566384
0.161244
0.120193
-0.557759
0.261869
0.0644751
0.0281274
-0.516475
0.13659
0.379866
0.0153596
-0.0975852
0.284348
0.196712
0.0654309
0.0301286
-0.432394
0.32487
-0.0943904
-0.0270913
0.153309
0.0244666
0.397379
-0.0963259
0.274765
-0.0477199
-0.368551
-0.290721
0.198948
-0.0243643
0.320953
0.0829739
-0.331843
0.105279
0.226496
0.117283
0.364718
-0.482101
0.0173269
-0.00130312
-0.0160427
0.487111
0.0859856
-0.573109
-0.295631
-0.178381
-0.381169
0.229162
0.0272088
0.27466
-0.301933
0.042194
0.169558
-0.211815
-0.0526828
0.0686668
0.499692
0.0821511
0.0134797
-0.12584
0.112337
-0.0899103
0.0178917
0.288382
0.334062
-0.622439
-0.126581
-0.300483
0.426896
-0.191154
0.521176
-0.108576
0.111197
0.263952
-0.375325
-0.40695
0.193125
0.213727
0.409931
-0.105648
-0.304338
0.14052
-0.0755365
0.0946213
0.0271831
-0.410476
0.561454
-0.151302
-0.0354788
0.0886928
-0.0532346
0.0709027
0.154947
0.205835
-0.00117922
-0.113317
0.392461
-0.305446
0.0698635
0.0790785
0.135125
-0.186527
0.40529
0.128468
-0.533996
-0.115082
-0.0484932
-0.114694
0.141643
-0.0269816
0.157091
-0.00382449
0.559581
-0.391714
-0.168065
0.423307
-0.532513
0.340409
0.230978
0.00080859
-0.0855141
0.347297
-0.60447
0.396434
0.20785
0.165371
-0.0311367
-0.531185
0.144973
-0.567571
0.431168
0.13612
0.0086281
-0.0867679
0.227259
-0.28879
0.407482
-0.118748
-0.117923
-0.0986039
0.233492
-0.215357
0.0689488
-0.287728
-0.119291
-0.311065
0.199561
0.0173843
-0.0898553
0.072454
0.422821
0.126564
-0.543836
0.125807
0.417938
-0.377311
-0.304948
0.529466
-0.536897
0.00707086
0.249925
-0.342548
0.0925232
-0.301077
0.210579
0.0904307
0.0421242
-0.242428
0.388082
0.171305
0.590699
-0.146211
-0.444518
-0.366651
-0.116376
0.482874
-0.337037
0.0810188
-0.163908
-0.162743
-0.0490739
-0.386648
0.120663
-0.00748331
-0.367372
-0.08175
0.105407
-0.0236576
0.106067
-0.394914
-0.480684
0.103044
-0.0153615
-0.0539358
0.275555
-0.0836388
-0.191993
0.0222174
0.0886128
0.174489
-0.350514
-0.0363407
0.386804
0.11393
0.322628
-0.436677
0.550713
-0.427539
-0.12343
-0.416907
0.290161
0.0135758
-0.0426871
0.0291072
-0.177059
0.193962
-0.0169652
-0.0165909
-0.281607
0.173953
-0.0783238
-0.294497
0.405513
0.0195764
0.137478
0.67
-0.190235
-0.42479
0.491117
-0.0664293
-0.522932
0.0764171
0.446508
0.484939
-0.396404
-0.0315572
0.260243
-0.090259
-0.170061
0.0111338
-0.361699
0.109351
-0.0211763
-0.100596
-0.271534
0.372075
0.302007
-0.520044
0.217771
0.328468
-0.522513
0.193699
0.123619
-0.128921
0.141179
-0.314677
0.412389
-0.0978729
0.0591529
0.240485
-0.299734
-0.373921
0.500517
-0.126781
0.019245
0.497388
-0.195594
-0.0562421
-0.20832
0.264537
0.296518
0.100753
0.0387669
-0.00337604
-0.0353939
-0.0247924
-0.417107
0.225662
0.191389
0.0281504
-0.178141
0.120709
-0.00422872
0.130457
0.285857
-0.423951
0.569865
-0.146293
0.54755
-0.458937
-0.088759
-0.0896733
0.375177
-0.285654
-0.0601639
-0.253453
0.313522
0.461685
0.0218351
-0.508386
0.371403
0.136782
-0.117036
-0.157632
0.0889056
0.0206315
-0.0753055
0.0546622
0.235435
-0.321055
-0.0274074
-0.155057
0.182439
-0.142202
0.00195789
0.140213
-0.554408
0.425317
0.128848
-0.191017
0.162875
0.263302
0.0121842
0.556947
-0.162356
-0.394726
0.00176187
-0.17906
0.177231
0.169873
0.457947
-0.0197104
0.0424411
0.134317
-0.100072
-0.592397
0.147885
0.444482
0.14056
0.41594
0.228525
0.237527
-0.535048
0.381367
-0.467701
0.100895
-0.0414105
-0.409534
0.564683
-0.15552
0.0464857
0.375858
-0.495568
-0.299944
0.547924
-0.247989
-0.427713
0.127175
0.300455
0.092841
0.344944
-0.438011
-0.0753813
-0.362695
-0.141219
0.150978
-0.560899
0.447124
-0.0734649
0.320963
-0.000349722
-0.320717
0.009751
-0.561031
0.423966
0.136744
0.246103
0.208048
-0.662746
0.454627
-0.362876
-0.104973
-0.0335754
0.0364086
0.488574
-0.160456
-0.155954
0.287122
-0.010171
0.122548
-0.0416625
0.65503
-0.447042
-0.413572
0.264394
0.149118
0.0929881
-0.0756213
0.561853
-0.425304
-0.136678
0.0803114
0.314942
-0.395383
0.108036
0.0723205
-0.15645
-0.311785
0.468152
-0.0793242
0.0980665
0.296519
-0.346714
0.0500904
-0.0160138
-0.018647
0.31262
0.0879583
0.0745847
0.03333
-0.10792
-0.361702
-0.46755
-0.110914
0.578373
-0.568899
0.432306
-0.0976585
0.54283
0.648401
-0.161308
0.0327262
-0.0579881
-0.0722498
0.326852
-0.254709
-0.616032
0.231814
0.383868
0.270957
-0.404337
0.133321
0.144607
0.1138
0.433601
-0.097664
0.302767
-0.0545693
0.0156946
-0.189754
0.179708
-0.11469
-0.0114603
0.126128
0.0918206
0.226939
-0.0303032
-0.0158336
0.0316888
-0.0158396
-0.381473
0.102663
0.278706
-0.106563
-0.257063
0.41483
-0.157929
-0.0183404
0.0062645
0.0120808
-0.483406
0.210329
0.107493
-0.317892
-0.209752
-0.453066
-0.188293
-0.370086
0.558226
-0.629021
0.419192
0.606165
-0.172863
-0.433452
0.566857
-0.452685
-0.114348
0.11741
0.304817
-0.422394
-0.172345
-0.0217735
0.194071
0.544792
-0.139736
0.258948
-0.33131
-0.0191239
-0.105772
0.124858
-0.0531037
0.121712
-0.0686013
-0.0904344
0.00868433
0.115748
-0.125946
-0.233189
-0.412569
-0.156359
0.479811
-0.350639
-0.129439
-0.019371
-0.070503
0.41462
0.0696993
0.00639329
0.147727
-0.421345
0.273484
0.140351
-0.00526243
0.514677
-0.50992
-0.317092
0.416821
-0.0998886
-0.281976
0.429573
-0.428143
-0.167857
-0.382586
-0.125118
0.507435
-0.145328
0.146048
-0.238382
-0.378
0.0362028
-0.0379361
0.00173734
0.435417
-0.384863
0.529055
-0.144501
-0.0355469
0.0491171
-0.423172
0.165967
-0.290587
-0.302244
-0.0726299
0.506287
-0.00487097
0.0489909
-0.077478
0.190702
-0.203915
0.583296
-0.379591
-0.0977884
-0.480536
-0.140798
0.621082
0.538702
-0.0407104
0.0845713
-0.0438739
0.109055
0.132644
-0.241744
0.109083
0.176852
-0.332892
-0.374022
0.385108
-0.192923
0.58904
-0.457667
-0.131521
-0.0861068
-0.161993
0.290199
-0.390852
0.0748669
-0.228714
0.032446
-0.0412741
0.29618
-0.425004
0.128717
-0.438431
0.33511
0.37576
-0.295557
-0.510916
0.360031
0.150801
-0.133973
0.0150409
-0.110525
0.0954643
0.0252134
0.140744
0.221027
-0.0249168
-0.034156
0.0237659
0.0434428
-0.00723564
-0.102239
0.392384
-0.0940167
0.109027
-0.431389
-0.139425
0.00838092
0.0171529
-0.0255214
-0.464213
-0.113524
0.0674333
0.0566046
-0.124034
-0.123279
0.00522454
-0.204934
-0.291943
0.301961
-0.0101058
-0.110936
0.0559659
0.0549678
0.033746
-0.0832083
0.0494552
-0.645735
0.212168
0.433518
0.260766
-0.308135
-0.459227
-0.318898
-0.189667
0.168589
0.38441
-0.0880081
-0.067651
0.364073
-0.103808
0.000323761
0.103472
-0.0301657
-0.000816625
0.0309801
0.124679
0.192972
-0.0358454
0.00750596
0.524603
0.0964731
-0.181389
0.466781
-0.285516
-0.420849
0.0635305
-0.070959
0.00742553
0.228941
-0.289196
0.0199799
0.571045
-0.131265
0.160296
-0.267436
-0.130815
0.398138
-0.414811
0.2789
0.130976
0.0794265
0.171839
-0.251331
0.311012
-0.400852
-0.0212783
-0.442725
-0.203059
0.404444
0.191507
-0.596001
-0.108316
-0.114156
0.410232
-0.022488
0.00586989
0.0166532
-0.328935
0.108749
-0.0926732
0.327999
-0.411209
0.548109
-0.136935
0.0386636
-0.372896
0.602641
0.124734
-0.287488
0.0604398
-0.200596
-0.110328
0.310897
0.21745
-0.0406594
0.455617
0.199352
0.0759394
0.470311
-0.353119
-0.487152
0.128022
0.358995
0.0181181
-0.126864
0.108706
-0.440716
-0.019156
0.63244
-0.344059
-0.0884493
-0.033883
0.122293
0.0731326
-0.101488
-0.0218207
-0.104041
-0.11827
0.0332257
0.085033
-0.174451
-0.342045
0.0789718
-0.113324
0.0393313
0.0136028
-0.0529366
0.534099
0.0899402
-0.0699701
0.245972
-0.427468
-0.00414906
0.145412
0.118907
0.0160439
0.510594
-0.434178
-0.0552924
0.223298
-0.168069
-0.417688
-0.170599
0.233394
-0.180628
-0.0528302
-0.238358
-0.26473
-0.0765816
-0.0752603
0.120464
-0.152274
-0.0144863
0.166706
0.0246506
-0.139377
-0.115625
0.0681875
0.0474397
0.0858603
-0.0193173
0.113028
-0.0937342
-0.231019
-0.411164
0.0939153
0.369005
0.0979398
-0.467051
0.589298
-0.184901
-0.594769
0.457799
0.136883
-0.411705
0.545986
-0.134601
-0.217139
-0.0503197
0.084058
-0.598476
0.441834
0.156299
0.064233
0.262517
-0.154401
-0.26914
-0.131231
-0.223126
0.354246
0.135499
-0.000559165
-0.137382
0.0348449
0.102511
-0.310824
0.100721
-0.54875
-0.235463
0.179188
0.0667027
-0.477942
-0.301552
0.299377
0.0178149
-0.0336425
-0.0941098
-0.228926
0.322926
0.141668
0.320265
-0.462069
0.0352787
0.134991
-0.444987
0.324727
-0.26059
0.0531824
-0.0138544
-0.0140637
0.399842
-0.104126
-0.295768
0.158313
-0.15172
-0.00663915
0.306816
-0.0685229
-0.238372
-0.0197655
0.00478926
0.0761194
0.190947
-0.23002
0.167273
-0.0155962
0.0789683
0.541294
-0.0539867
-0.0926584
-0.0786765
-0.0923722
-0.456639
0.399014
-0.328758
0.314289
0.0144478
0.520339
-0.00308678
-0.0772477
-0.0132565
0.524398
-0.511721
0.230191
-0.36155
-0.35447
0.0474687
0.275139
-0.138373
0.151099
-0.0127768
0.58917
-0.173661
-0.4158
0.115067
-0.095624
0.266181
0.0364836
0.0815048
0.0350438
0.0590901
-0.444068
0.119024
0.32491
0.0133798
0.260744
0.106844
-0.367662
-0.0648802
0.315728
-0.250957
-0.501326
0.332936
0.168194
0.00768473
0.0132479
-0.0209264
-0.0182065
0.142498
-0.044217
0.205337
-0.259184
0.0537915
0.0829532
-0.123327
0.130086
0.0115233
-0.155577
-0.239219
-0.177942
0.167556
-0.0158274
0.406621
-0.573624
0.402375
-0.309737
-0.102397
-0.0162932
0.118674
-0.237516
-0.195862
-0.200455
-0.0520858
-0.186415
0.265776
-0.311309
0.110666
-0.113728
0.131806
-0.0247357
0.0993178
-0.475356
0.133423
-0.103944
0.122379
-0.0184559
-0.0783297
-0.295731
0.313572
0.0986579
-0.364931
0.49116
-0.126503
0.160176
0.427516
0.0842999
-0.0482917
-0.036016
0.0868796
-0.0920807
0.580481
-0.444931
-0.135796
0.158002
-0.628534
0.16291
0.465592
0.127507
-0.399099
0.00818082
0.36302
-0.430775
-0.167356
-0.339184
0.506064
0.0222137
0.498004
-0.28247
0.0335302
-0.503184
0.468976
0.322234
-0.0604506
0.0486162
0.035678
0.102539
0.171961
-0.223872
0.0518632
0.402418
0.18683
-0.456032
-0.00727971
0.122996
-0.0118478
0.0753749
0.13727
-0.0543073
-0.118701
-0.505794
0.552406
0.34005
-0.507887
-0.0766819
0.335525
0.0265626
-0.455599
-0.136826
-0.00673373
-0.0452948
0.0126092
0.122382
-0.135039
-0.0860346
0.251766
-0.609709
0.154562
0.45512
0.294133
-0.0836184
-0.0196483
0.448858
-0.397936
-0.0510876
-0.261785
0.218719
0.0430403
-0.446826
0.558488
-0.433304
-0.125414
-0.366564
0.21441
0.00895447
0.0421138
-0.0510772
-0.166305
0.141048
-0.174426
0.576794
-0.105099
0.125889
-0.0208158
-0.416219
-0.018795
0.113342
-0.46818
0.215095
0.407153
0.162569
-0.570172
-0.0838828
-0.36597
0.0663192
0.382364
0.274447
0.125346
-0.0878872
-0.0211689
0.109025
-0.194525
0.233379
-0.0389105
-0.0801687
-0.213923
0.48517
0.0119716
0.114628
0.442072
0.105385
-0.549133
0.25444
-0.197781
0.0253882
0.171358
-0.0198663
-0.151539
0.0126302
-0.0169097
-0.202485
0.193955
-0.192268
-0.146126
0.158697
-0.0126194
-0.00663653
0.136688
0.151696
0.415254
0.184247
0.0628065
0.115959
-0.0337525
-0.0942977
0.0566957
0.0375934
0.0615809
0.00491549
-0.10038
0.361373
-0.261092
0.290082
-0.50257
0.212291
-0.0106733
-0.634219
0.29462
-0.489245
0.11632
0.20105
0.069734
-0.270855
-0.00434303
-0.350016
0.118017
0.2319
-0.435113
0.0587012
0.0285999
-0.0873149
0.199458
-0.157325
0.0807497
-0.354574
0.273735
-0.177721
0.415201
-0.0210307
0.0976753
-0.0766477
0.0607146
-0.0778596
0.0171313
-0.02799
-0.00785753
0.371701
-0.488243
0.0899554
-0.428709
0.338567
0.0135712
0.457686
0.114461
-0.495389
-0.0230815
-0.129027
0.124614
0.00438421
0.0979706
0.350488
-0.263072
0.0710711
0.191946
-0.192176
0.15362
0.0385076
-0.311753
0.231474
0.0464875
-0.0779526
0.123435
0.370833
-0.494573
-0.115375
0.390038
-0.274748
-0.138439
-0.172923
-0.220198
0.510048
-0.0324968
-0.0618187
0.10477
-0.47444
0.369371
0.56005
-0.112159
0.0083386
0.105233
-0.125122
0.0198582
-0.0714701
0.098865
-0.0273973
-0.025553
0.0847134
-0.0591746
-0.165965
-0.270925
0.43658
0.0996132
0.0838715
-0.183533
-0.366302
0.529464
0.052906
0.322744
-0.533479
0.527595
-0.182017
0.361686
0.0678953
-0.100403
0.0434996
0.319428
0.121686
-0.156053
0.451891
-0.0830004
-0.584774
0.447878
0.136813
0.127914
-0.467418
-0.129719
0.597093
-0.149298
-0.00831451
0.0171131
0.452218
-0.593715
0.141402
0.278537
0.103371
-0.122522
-0.547322
-0.114301
-0.0836994
-0.108514
-0.0725343
0.172099
0.301173
0.102794
-0.404119
-0.497526
-0.145829
-0.380717
0.526256
0.425073
0.133172
-0.439454
0.345829
0.0936111
-0.274402
-0.124367
0.481775
-0.357491
0.330397
0.216357
0.0288884
-0.509647
-0.413859
-0.104368
0.518145
-0.0622454
0.264155
-0.201946
-0.171837
0.00647743
0.0652083
0.0107241
-0.149145
0.126754
-0.364188
0.530929
-0.167022
0.552961
-0.456611
-0.0965669
0.139202
0.0118478
-0.599388
0.189865
0.409459
0.178121
-0.299372
-0.244535
-0.329311
-0.301049
-0.424679
0.135394
-0.373765
0.275224
0.0984428
-0.0976916
0.0743704
0.448988
0.139923
0.589329
-0.137206
0.243446
-0.0469594
-0.196552
-0.585742
0.15982
0.425894
0.625374
-0.181161
-0.444455
-0.0409564
0.327254
0.0894011
-0.329136
-0.00739228
-0.121662
-0.121209
-0.00243619
0.135071
-0.0486704
0.218164
0.118357
-0.125774
-0.174506
-0.424943