/*--------------------------------*- C++ -*----------------------------------*\
| =========                 |                                                 |
| \\      /  F ield         | OpenFOAM: The Open Source CFD Toolbox           |
|  \\    /   O peration     | Version:  v2012                                 |
|   \\  /    A nd           | Website:  www.openfoam.com                      |
|    \\/     M anipulation  |                                                 |
\*---------------------------------------------------------------------------*/
FoamFile
{
    version     2.0;
    format      ascii;
    class       surfaceScalarField;
    location    "100";
    object      phi;
}
// * * * * * * * * * * * * * * * * * * * * * * * * * * * * * * * * * * * * * //

dimensions      [0 3 -1 0 0 0 0];
oriented        oriented;


internalField   nonuniform List<scalar> 
20537
(
-0.367216
0.498349
-0.131138
0.0167316
-0.219782
0.203048
-0.180918
0.18005
0.000865869
-0.0138903
-0.300239
0.314125
-0.148303
0.154323
-0.00602159
0.313985
-0.515395
0.201406
0.191656
0.204621
-0.396278
0.239981
-0.0770594
-0.162924
-0.454541
-0.0961607
0.550696
-0.0730719
0.24705
-0.173981
0.534337
-0.171218
-0.363119
0.17423
-0.133097
-0.0411336
0.0910065
0.0191192
-0.110126
-0.023984
0.0395092
-0.0155259
0.669757
-0.541563
-0.128173
0.289617
-0.294521
0.0048998
-0.0499389
0.283319
-0.233387
0.43116
-0.252001
-0.179163
-0.139725
0.140778
-0.00105409
0.08454
-0.539088
0.344032
-0.357927
-0.0592952
-0.121626
-0.365442
0.586983
-0.221546
-0.689798
0.0989507
0.590849
-0.551416
0.185968
0.226158
0.0138196
-0.0851302
-0.179242
0.264367
-0.00701306
0.000232794
0.0103111
-0.377531
0.222708
-0.35091
0.128197
0.490422
-0.17644
0.229031
-0.278976
0.00143592
0.178612
0.3665
-0.329821
-0.0366785
-0.601437
-0.0883597
0.108563
-0.120502
0.0119375
-0.00503681
0.0860566
-0.0810167
0.185587
-0.121428
-0.0641606
0.127489
-0.200563
0.10803
0.25847
0.045744
0.333088
-0.378834
0.489728
-0.665342
0.175613
-0.0209131
0.013757
0.00715601
0.284216
-0.506497
0.222281
0.534774
-0.250556
-0.0219717
-0.0275356
0.0495069
-0.524216
0.262722
0.261496
0.360413
-0.641049
0.280634
0.171041
-0.256176
0.379619
0.204492
-0.584115
0.15914
-0.0221054
-0.137037
0.138423
-0.0672305
-0.0711937
-0.00908272
0.00253263
0.00655004
-0.726984
0.369717
0.357289
0.648162
-0.530029
-0.118117
0.664505
-0.174778
0.653535
-0.296532
-0.357009
0.0133682
0.00265157
-0.0160226
-0.185216
0.407917
0.284843
0.0909338
-0.375779
0.037144
0.148442
0.0717267
-0.121778
0.0500509
-0.370549
0.291331
0.0792142
-0.134574
0.128144
0.00642826
-0.0837005
0.301682
-0.217985
-0.438764
0.149238
0.289522
0.0642225
-0.069259
-0.549023
0.296634
-0.209563
0.209204
0.000355511
0.185318
0.245837
0.045356
-0.0545358
0.00917971
0.0851827
-0.078913
-0.00626968
0.185604
-0.168875
-0.288999
-0.43796
0.279045
-0.579382
0.300349
-0.529593
0.432809
0.09678
-0.129324
0.0700267
-0.0558521
0.00447
0.051382
0.00612675
-0.174856
0.168727
0.0558166
-0.00562418
-0.167272
0.427451
-0.260182
0.499308
-0.0247662
-0.474541
-0.430899
-0.0492419
0.480144
0.0179586
0.0163553
-0.0343141
-0.315721
-0.0548315
0.125156
0.049072
0.50047
-0.163227
-0.337246
0.118987
0.160826
-0.279815
-0.258166
0.320599
-0.0624395
-0.368174
-0.244492
0.61266
0.0221622
0.0863991
-0.0539591
-0.334847
0.388803
-0.173674
-0.0867579
0.246879
-0.160126
-0.0263668
-0.231806
0.56355
-0.551618
-0.0119361
0.0207221
-0.169027
0.0255044
0.0529058
-0.0784105
-0.145695
0.525312
-0.0244121
0.587957
0.031527
-0.0295176
-0.00200987
0.166876
-0.16934
0.00246111
0.0746136
-0.376648
0.302029
0.260484
-0.0134454
-0.458387
-0.0996698
0.558055
-0.501984
0.410285
0.0916965
-0.172466
0.173646
-0.00118281
0.524902
-0.684364
0.159461
0.0734135
0.00800438
-0.215399
-0.299999
-0.540631
-0.0193507
0.55998
0.269667
-0.637846
0.330222
-0.384184
-0.649812
0.649814
-0.0722521
-0.46838
0.281106
0.0433751
-0.0786635
0.104167
0.0729427
-0.473392
0.400447
-0.569707
0.571283
-0.00156758
-0.190706
0.556382
-0.365663
-0.0172821
-0.00363116
0.235179
0.0253022
0.102805
-0.0117992
0.130861
0.609769
-0.249359
-0.779824
0.34013
0.439692
0.361136
0.248631
0.159399
-0.182817
0.0234154
0.036088
0.307939
0.161544
-0.0725797
-0.0889653
0.421554
-0.375812
0.554691
-0.163252
-0.39144
0.0572896
-0.0119337
-0.546203
0.115307
0.32598
-0.569412
0.603292
-0.0338768
0.557091
-0.484152
-0.0722221
0.0856157
-0.0133934
-0.077255
0.00679309
0.0704612
-0.14243
0.0308958
0.111534
0.011371
0.0201563
0.372246
0.275933
0.167596
-0.562122
0.394523
0.717587
-0.384455
-0.333134
0.411165
-0.0845785
-0.326592
-0.205878
-0.300618
-0.47298
0.627307
-0.154327
0.0325891
0.128953
-0.269385
0.46104
0.204435
0.330339
-0.00288645
0.122947
-0.417877
0.609101
-0.19121
-0.0179809
-0.00600365
0.31043
0.3431
0.360939
-0.205775
-0.155168
0.30394
0.107219
-0.495447
0.190414
0.30503
0.234491
0.126054
-0.36055
0.00949966
0.128922
0.00741528
0.151723
-0.357182
-0.245809
0.602992
-0.0746712
0.221049
-0.146381
0.0047216
0.00865024
0.165612
0.389078
0.280622
-0.374552
0.093924
0.641206
-0.229309
-0.411899
-0.690781
0.217801
0.00229909
-0.211865
-0.311184
0.347268
0.0893102
-0.0110978
-0.0782128
-0.000175308
-0.0556768
0.241084
-0.545354
0.304265
-0.176661
-0.31879
-0.0875566
-0.0548744
0.564308
-0.398697
-0.398714
-0.242337
0.177394
-0.0179976
0.534841
-0.509706
-0.0251371
-0.0272161
-0.112509
-0.520166
0.669651
-0.149485
-0.271683
0.0588067
0.212871
0.0129607
-0.127225
-0.3599
0.48713
0.0348887
-0.156516
-0.364817
-0.236068
0.600884
-0.449909
0.616724
-0.166821
-0.175064
-0.263704
0.352181
-0.542875
-0.158831
0.159099
-0.000269701
0.267355
0.016098
-0.283456
-0.227581
0.00110327
-0.0101868
0.274223
-0.546796
0.272568
0.18021
-0.207607
0.0273938
0.115589
-0.0438627
0.398184
-0.176749
-0.22144
0.540933
-0.37334
-0.170947
0.40971
-0.238764
0.458912
0.0759274
-0.427645
-0.101952
-0.297623
-0.482203
-0.0129308
0.0640657
-0.0511354
-0.575061
0.0832477
0.491824
-0.53458
0.145331
0.389253
-0.0362414
0.250225
-0.213986
-0.487315
0.360093
-0.0640344
0.0159078
0.0481257
0.145929
0.141688
-0.287623
0.0658247
-0.00732281
-0.0585019
0.130821
0.442899
-0.57372
-0.0162229
-0.0527582
0.0689809
-0.349439
0.424048
-0.453558
0.212833
0.240726
0.452563
-0.637865
0.185302
-0.719074
0.430695
0.288377
0.591256
-0.20683
-0.384426
-0.121284
0.373941
-0.252661
-0.0381985
0.0162264
-0.105986
-0.407159
0.513158
0.0666078
-0.00078314
0.263813
-0.117889
0.194777
-0.362053
0.0025331
0.0628911
-0.0654246
-0.0574309
0.136979
-0.0795497
0.00473487
0.0546538
-0.0593888
-0.601065
0.582223
0.0188348
-0.0424985
-0.191673
0.234167
-0.527481
0.0690925
-0.0256652
0.0134548
0.0122104
0.675702
-0.223139
0.215376
0.0107781
0.317988
-0.29851
-0.0194809
-0.284496
0.525574
0.543886
-0.149434
0.138119
0.0113133
-0.0395494
-0.264202
0.303747
-0.0109214
-0.0531138
0.169278
-0.252981
0.278981
0.438603
-0.451026
-0.0835504
0.114305
0.376113
0.412263
-0.471134
0.0588693
0.575144
0.0636009
-0.638744
-0.230061
0.193818
0.458124
-0.557795
0.0527898
0.00432976
-0.0571195
0.189852
-0.0229782
0.418162
-0.270299
-0.147863
-0.395643
0.294043
0.101594
-0.227438
-0.122621
0.350053
0.679594
-0.399162
-0.280435
0.483562
-0.071301
-0.244744
-0.105765
0.350506
-0.0917087
-0.027373
-0.116382
0.143753
0.326349
-0.0920865
-0.234266
0.302861
-0.03551
0.00637316
0.0792427
0.0165068
-0.026383
0.00988718
-0.184567
-0.346895
0.531471
-0.440095
-0.435796
0.346781
0.0890098
0.273139
-0.0267615
-0.24638
-0.633041
0.203958
0.429079
-0.131484
0.110195
0.021288
0.187642
0.210538
-0.364405
0.119658
-0.204319
0.117557
0.0674449
-0.0649122
0.39716
0.156122
-0.553283
0.308483
0.371108
0.184186
0.436766
-0.0834755
-0.353294
0.176909
-0.170785
0.262569
0.0270425
-0.533171
0.369919
0.585728
-0.0864181
0.585993
-0.160027
-0.425966
0.0027434
0.0538873
-0.0566309
0.089814
0.444523
0.0192166
0.555928
0.0825231
-0.561357
0.478834
-0.50436
0.601212
-0.0968522
-0.144069
0.116693
-0.0450671
0.318203
0.558899
-0.202244
-0.356657
0.0362863
0.45308
-0.489372
-0.382486
0.493954
-0.111455
0.0881617
0.3486
-0.595161
0.267434
0.327729
0.135065
-0.102477
0.146107
-0.331329
-0.100482
0.385323
-0.211783
0.213379
-0.00159912
-0.364108
-0.231052
-0.0316528
-0.0998323
0.075285
0.169198
-0.244487
0.0123901
0.112765
0.431693
-0.568889
0.137194
0.0603231
-0.00753344
0.104402
-0.179076
0.0815938
0.201719
-0.0152197
-0.0473879
0.0626074
-0.140435
0.3628
-0.222369
-0.385542
-0.116446
-0.0657354
0.0556958
0.0100394
0.482244
-0.445963
-0.0125714
-0.141548
0.154116
0.2262
0.0206743
-0.224616
0.370718
0.00161318
-0.0788691
0.227481
-0.152199
0.383109
-0.35933
-0.0237814
0.0757843
-0.0841299
0.00834517
0.652603
-0.258434
-0.394171
0.0543269
-0.28177
0.746584
-0.364628
-0.381957
-0.0643609
0.0671041
0.118066
-0.0154034
-0.102663
-0.502818
0.396845
-0.18263
0.04133
0.141298
-0.262499
0.486975
-0.224464
0.0510358
-0.034529
0.00237091
0.472497
-0.474871
-0.456669
0.646175
-0.189512
0.609388
-0.252799
-0.356591
0.116883
0.00118167
0.198906
-0.241409
-0.321057
0.0735854
0.247468
0.105259
-0.365978
0.225538
0.325544
0.0575614
0.388052
-0.559269
0.0254249
-0.00525494
-0.096151
-0.00589634
0.102047
0.0698123
-0.364658
0.294841
0.0589763
-0.0741961
0.00303523
-0.088962
0.0859259
0.380778
-0.0235433
0.20375
0.122759
0.0123047
0.529822
-0.342264
-0.18756
0.0649155
0.205786
-0.270705
-0.00418055
0.110411
-0.106232
0.109124
-0.253376
0.527659
-0.274287
0.233423
0.0516014
-0.285025
-0.00578689
-0.0566744
0.0624611
0.0377503
-0.579291
0.687472
-0.0800293
-0.607444
0.186474
0.500996
0.13646
-0.0108908
-0.12557
-0.109895
-0.211167
-0.188624
0.253537
-0.010853
-0.0148116
-0.492194
0.31553
-0.0903313
0.323752
0.36077
0.248615
-0.497764
0.235279
-0.113547
0.571669
-0.0558908
0.580792
-0.185386
0.551116
-0.365734
0.0584306
-0.0642177
0.640177
-0.230712
-0.409465
0.312557
-0.438671
0.126113
0.173592
-0.186167
-0.655139
0.359107
0.29603
0.118455
-0.106066
-0.317794
0.249254
0.0685363
0.424016
-0.442035
0.0901898
-0.000879864
-0.118653
0.431209
-0.22974
0.108453
-0.0356928
-0.192623
0.228312
-0.161175
0.585188
0.087521
-0.443786
0.356263
0.159437
-0.632831
0.194853
0.234066
-0.428922
-1.51447e-05
-0.0206689
0.0206836
0.63124
-0.0802075
0.0818199
0.194972
-0.0996353
0.0954537
-0.0678197
0.0567216
-0.637566
0.166974
0.470591
-0.171207
-0.466359
-0.0219528
-0.337709
0.35966
0.629755
-0.155658
-0.474097
0.510781
-0.523901
0.013143
0.371779
-0.301971
-0.0805297
-0.102102
0.0230442
0.0164643
-0.248247
0.211482
0.0367616
-0.0629945
0.0677292
0.0660853
-0.00912779
-0.0569578
-0.397992
-0.257148
0.233665
-0.418224
-0.00596149
0.0153773
-0.0572783
0.0419008
0.0593411
0.258644
-0.0872232
0.00855934
0.463152
-0.268301
-0.215895
0.180198
0.501785
-0.535295
0.0335039
-0.0991025
0.102137
-0.43564
0.516542
-0.0809063
-0.108166
-0.186358
0.367883
-0.389839
-0.443123
0.341098
0.102025
0.0536932
0.0966132
0.385625
0.318517
0.322688
-0.121338
-0.0132374
0.255158
0.0414958
-0.296658
-0.035824
-0.0133077
0.0491316
0.345738
0.00161508
-0.347357
-0.131138
-0.427217
-0.00216014
0.429374
0.3541
0.129461
-0.334635
0.0938194
0.24081
0.157713
-0.0212541
0.28695
-0.205362
0.160661
0.430595
0.122946
0.434142
0.496461
-0.399853
0.0935923
-0.543507
0.133373
-0.141329
0.00795502
0.160679
-0.503751
0.343072
0.11953
-0.118443
-0.00108892
-0.0339943
-0.393227
0.0152118
-0.206673
-0.123148
0.114924
0.13852
-0.0599402
-0.0894956
0.441017
-0.353497
0.45454
-0.100442
0.661637
-0.500935
-0.160704
-0.145478
0.0554392
0.0900369
-0.328519
0.545369
-0.216851
-0.0156727
0.191653
-0.175983
-0.0519239
-0.0049809
0.0569048
0.590036
-0.131126
-0.622591
0.194425
0.428166
-0.595213
0.266694
0.0383564
-0.00888463
0.306931
-0.671748
-0.223663
0.225269
-0.00160942
0.00253563
0.543662
-0.146503
-0.486953
0.543624
-0.0566767
-0.399806
0.104133
0.29567
0.123798
0.0314058
-0.0986376
0.0607279
-0.345004
0.284272
0.165847
-0.0696564
-0.0961916
-0.548032
-0.0530392
-0.56182
0.309018
0.00399162
0.0186285
-0.0226201
-0.0691469
0.349764
-0.458613
0.541137
0.265753
-0.146768
0.461161
0.168594
0.198105
-0.158051
-0.375724
0.533771
0.103046
0.209224
-0.312274
-0.123283
-0.243892
0.36717
-0.430537
0.458028
0.132007
-0.00721635
0.0830001
0.376524
-0.425763
0.199183
-0.190724
-0.00846212
-0.0796486
-0.489761
0.25896
-0.378644
0.119681
-0.623821
0.184649
0.439172
0.560598
-0.560596
0.514054
-0.157122
-0.356934
-0.550859
0.13449
0.515326
-0.314
0.578051
-0.264054
0.258911
0.107062
-0.365977
0.378312
-0.541543
0.113409
-0.473304
-0.166841
0.66862
0.0045692
-0.00207461
-0.00249504
0.00257618
-0.0545001
0.138137
0.319938
-0.458072
0.395215
-0.136258
-0.288653
-0.0459876
-0.330578
-0.140558
0.0439363
-0.0259785
-0.366141
-0.195682
0.202989
0.437188
-0.0761034
-0.367684
-0.154622
0.013513
0.141107
-0.333077
-0.0612494
0.394326
-0.0253743
0.0291535
-0.00377915
-0.13387
0.546823
-0.412956
-0.00149997
0.00403464
-0.263952
0.287903
-0.0239533
-0.214176
-0.451168
0.212274
0.182938
0.091459
-0.0198926
-0.0715667
0.2185
-0.00312668
-0.395223
0.417675
-0.0224519
-0.514996
-0.054703
0.367981
-0.436138
0.0681557
-0.565399
0.0353887
-0.170374
0.576901
-0.406528
-0.5777
0.189312
0.388387
-0.44448
0.339054
0.105426
0.0641342
-0.0487571
-0.153224
0.147652
0.0055701
0.123382
-0.0215764
-0.101806
0.0959669
-0.0845354
-0.011432
0.0582155
0.325572
-0.682754
-0.109199
-0.0120795
0.121278
0.525941
-0.365263
-0.0609013
-0.210786
0.00400668
0.217038
-0.497309
0.16673
-0.289881
0.42074
-0.0801976
0.0639744
-0.510208
-0.00975684
0.51999
0.00592091
-0.0312955
0.0164005
0.0378554
-0.0507866
-0.147076
-0.139388
0.35166
0.543619
-0.223339
-0.467947
-0.154645
0.275233
0.0511122
0.221553
-0.3925
-0.125581
0.0555142
0.0700657
0.352127
-0.117641
-0.067835
-0.0577478
0.0734376
-0.002504
-0.0709342
-0.539006
0.405133
0.118045
-0.14581
0.00500791
-0.050466
0.0454581
0.378662
-0.0846254
0.33042
0.169585
-0.5
-0.350794
0.541205
0.333181
0.120039
-0.453219
-0.00534683
-0.153486
0.262467
0.0407357
-0.303207
-0.129173
0.289996
0.071843
0.094003
-0.435783
0.594685
-0.158902
0.0226719
-0.0186804
9.88888e-05
-0.0553866
0.0552876
0.461077
-0.433264
-0.0278157
0.208537
0.317403
0.201479
0.581176
-0.480754
-0.100423
0.400294
0.427023
0.0992279
-0.52625
-0.120334
0.011134
-0.223536
0.0177575
0.114135
-0.112681
-0.00145475
-0.0787164
0.0966271
-0.0179111
0.212908
0.451595
-0.360535
0.458137
-0.0976052
-0.198449
0.472735
-0.274288
-0.178006
0.167114
-0.138551
0.13739
0.00115964
0.00799664
0.0561373
-0.00221346
0.0728061
-0.0705932
0.345448
-0.102645
-0.340478
-0.225651
0.128821
0.0968263
0.000349748
-0.0929827
-0.00686116
0.0998431
-0.114602
-0.133649
0.353584
-0.0622573
-0.576058
0.31067
0.194273
-0.50494
-0.0899647
0.696186
-0.483279
0.28617
0.0924866
0.183754
0.485896
-0.16074
-0.391745
0.552488
0.0796849
-0.00624786
0.148865
-0.454025
0.420027
0.296608
0.399576
0.00608003
-0.0862883
0.294066
0.115644
0.629397
-0.185235
-0.444162
-0.415664
0.564946
-0.149288
-0.0882007
-0.544843
0.548556
-0.0261501
0.0261344
0.258043
0.160119
-0.195515
-0.0202784
0.0581334
0.391227
-0.0232487
-0.0487599
-0.1593
0.208059
-0.0407415
0.0457494
-0.049901
0.0425782
0.140782
-0.39416
0.0180035
0.191198
0.0597629
0.521414
0.448959
-0.246823
0.024631
0.222188
0.000576865
-0.0866763
0.0860988
-0.228308
0.279907
0.00171259
0.112421
-0.273416
0.0312816
0.24213
0.0825887
-0.47832
0.395725
-0.327043
0.251214
0.0758247
0.13544
-0.527462
0.392018
0.0204025
-0.415624
0.132175
-0.135243
0.00306651
-0.36906
0.482474
-0.302537
-0.0621249
0.0229542
-0.509912
0.14254
-0.222962
0.0804183
0.115059
0.00446968
0.406076
-0.315143
0.104455
0.33656
-0.123503
-0.194294
0.0594986
-0.313956
0.254456
0.148974
0.130934
0.00243741
0.0454661
-0.102898
-0.314926
0.0726507
0.242271
0.008507
-0.101491
0.470905
-0.388321
0.0612897
-0.324141
0.262848
-0.396794
0.016901
-0.0371798
0.13264
-0.482085
-0.632591
0.290364
0.342223
0.000693041
0.0727203
-0.208368
0.418424
-0.210061
-0.026866
-0.0409538
0.0569896
-0.0586258
0.00163611
0.0326504
-0.00809662
-0.0245537
0.116795
0.148955
0.0815003
-0.517145
-0.07822
-0.471318
0.490535
0.336247
-0.53349
0.197244
0.123627
0.423193
0.377125
-0.537862
-0.623158
0.287802
0.335357
-0.0170356
0.362768
-0.243862
0.346903
0.704178
-0.40757
-0.0818279
-0.00760599
0.0894328
0.0389064
0.0176959
-0.0995248
0.162718
-0.542504
0.379783
0.138731
-0.560071
0.421339
0.629495
-0.146083
-0.483417
0.0126996
0.110058
-0.0363716
-0.070172
0.106543
0.105454
-0.14411
0.0386542
-0.0617824
0.123793
-0.595111
-0.452291
-0.0830087
-0.135584
-0.452131
0.587717
-0.25169
0.423823
-0.172135
0.0610533
-0.0797948
0.0187408
0.0722623
-0.170207
0.0979439
-0.252192
0.311689
0.242053
0.462124
-0.131103
-0.313377
-0.469189
0.217496
0.104967
-0.160189
0.0552205
0.0075984
0.00353061
-0.0111285
-0.0644779
0.0927266
-0.111194
0.0184673
-0.339565
-0.0965747
0.453718
-0.349264
0.125801
-0.00242021
0.0176872
-0.193783
-0.106631
-0.0264671
0.11302
0.314426
-0.250482
0.144179
-0.0387273
0.348391
0.434386
-0.349175
0.24379
0.389233
0.272401
0.123875
0.053977
0.0556192
-0.0606001
0.153948
-0.546686
0.392734
0.38439
-0.109828
-0.274566
0.285285
0.0682949
-0.566689
0.396312
0.287832
-0.254463
0.342621
-0.0342379
-0.0574088
0.091646
0.00260065
0.129573
0.126122
-0.0159273
-0.320966
0.487939
-0.454112
0.559257
-0.396542
0.0128967
-0.00832801
-0.0929683
0.0142511
-0.295857
0.256304
-0.0062368
0.0632263
0.165687
-0.585852
0.42016
-0.00811673
-0.479736
0.487875
-0.416063
0.390331
0.000894445
0.075428
0.00270838
-0.0781377
0.343353
-0.111204
-0.232154
-0.413276
0.0971863
0.316086
-0.189057
-0.434764
0.0713604
0.216807
-0.288173
0.4116
0.217891
0.00388905
0.0177449
-0.0216341
0.148963
-0.241052
0.0568715
-0.0618159
0.00494415
0.438426
0.0852795
-0.337473
-0.000778744
0.0472081
-0.0464294
-0.0104532
0.0001435
0.0103113
-0.0677419
0.0899031
-0.379456
0.514892
0.0659936
-0.0728677
0.00687372
-0.186106
0.601975
-0.441315
-0.0494477
0.177682
-0.128236
0.177766
-0.193441
-0.136266
0.324307
-0.188047
-0.00554791
0.581388
-0.234769
-0.346621
-0.598184
0.373545
0.224636
-0.00871413
0.0947707
-0.148111
-0.484484
-0.575049
-0.360352
0.237064
0.121013
0.349886
-0.0219022
0.0257912
-0.214992
0.0518545
0.163134
-0.107147
-0.351214
-0.102815
0.426584
-0.586612
-0.393785
-0.281228
0.563717
-0.0602968
-0.503416
0.243677
-0.407702
0.531327
-0.124871
-0.348959
0.473829
-0.610306
0.242062
0.368256
-0.0100063
0.0657019
-0.536182
-0.520303
0.0165795
0.503721
-0.318726
0.528643
-0.209919
-0.435653
0.333008
0.0506817
-0.0514605
-0.547437
0.00349243
0.543941
0.525362
-0.375983
-0.149383
0.0796349
0.0373812
-0.117017
-0.058924
0.163889
-0.193088
0.541534
-0.348447
0.188452
0.338939
-0.527391
0.29012
-0.373599
-0.00529452
0.0980207
-0.105498
-0.0684712
0.000178651
0.068292
0.185487
-0.061617
-0.500532
0.342475
0.612681
-0.444808
-0.167875
0.0147946
-0.0010377
-0.229454
0.51957
0.0963148
-0.333436
0.237115
-0.571366
-0.442312
-0.386676
-0.185265
0.0179041
0.167359
-0.123942
0.280173
-0.156235
-0.200432
0.369625
0.446441
0.166237
-0.493372
-0.016814
0.383774
0.141585
0.0892103
0.0218661
-0.464182
0.350563
0.113618
0.0177633
0.141334
-0.273377
-0.298717
0.383995
-0.13686
0.0974222
-0.128751
0.0313281
-0.00706918
0.115338
0.228009
-0.0479865
0.0171806
0.030805
0.00938314
0.0865832
-0.367301
-0.0683528
-0.0376077
-0.00360956
0.041217
0.315474
-0.254187
-0.0986235
0.111713
-0.0130904
0.0445147
-0.0787532
-0.0242349
-0.0500913
0.0743259
0.57071
-0.165161
-0.405549
-0.240438
0.00106998
0.239365
-0.379524
0.292228
0.0795471
0.02703
-0.0243779
-0.0212526
-0.531848
0.145466
0.386379
0.587828
-0.59635
0.00851655
-0.00736357
0.145481
-0.302914
0.478931
-0.176016
-0.415792
0.56318
-0.14739
-0.00870247
0.000564842
0.0081352
-0.397855
0.563536
0.34005
-0.448641
0.10859
-0.00327386
0.0476336
-0.000374814
-0.0472589
0.0656832
-0.38665
0.476837
-0.140589
-0.491981
-0.0057685
-0.00329201
-0.00715747
0.0812846
-0.020232
0.104423
-0.111285
-0.197881
-0.296807
0.494684
-0.10587
0.0999737
-0.0589307
-0.119076
-0.116347
0.0799745
0.0149728
0.158671
0.168599
0.00499003
-0.0742649
0.0644785
-0.397556
-0.01298
0.19858
-0.00503294
0.14025
-0.135219
-0.0318311
-0.0254474
0.52617
-0.063021
-0.000385258
0.0056398
0.0201512
0.0100321
-0.108656
0.0472236
-0.0471248
0.31847
0.111616
-0.430085
0.1958
-0.0209625
-0.17484
0.471661
0.157736
-0.0637165
0.274134
0.110253
0.135734
-0.0214428
-0.114292
0.64708
-0.647046
-0.0485303
-0.011745
0.0602753
-0.540085
0.12429
0.118015
-0.0383814
-0.426679
0.530568
-0.103888
-0.0951853
-0.0841894
0.179373
-0.163359
0.190633
0.00516429
-0.0582888
0.0360223
-0.155332
0.119306
-0.142294
0.351515
-0.482297
0.616788
0.0580737
0.160183
0.349833
-0.0342021
-0.315634
-0.3715
0.109244
0.26225
-0.00167009
0.0493037
-0.377254
0.581209
0.623465
-0.420476
-0.435181
0.150817
0.284361
-0.0659872
0.0132289
-0.00883427
-0.00193075
0.0526123
0.453171
0.117539
0.105885
0.420282
0.0162188
0.389923
-0.406145
-0.00606674
0.0629381
0.123633
0.523478
0.311004
-0.267632
-0.000821266
-0.054864
0.0556852
0.381385
-0.557908
0.17652
0.081457
0.195752
-0.277214
-0.104186
0.458607
-0.164541
-0.0592672
-0.0175278
0.0767935
-0.269005
0.389062
-0.120059
0.21685
-0.513386
-0.138834
0.230858
-0.0920255
0.00992207
0.0566857
0.118797
0.0185906
0.325077
-0.228768
0.483336
-0.160276
-0.323063
0.185447
0.438018
-0.0164582
-0.0111302
0.0275884
-0.0178072
0.115228
-0.532645
0.0123396
0.0269613
-0.267403
-0.562957
0.391594
0.171362
0.408232
-0.324977
-0.395204
0.581677
0.0212319
-0.473527
0.129413
-0.0956957
-0.0337184
0.23666
0.217879
0.446874
-0.106824
-0.104097
0.376987
-0.234304
-0.046375
0.0350634
0.0113116
0.0883371
0.00312156
-0.00367589
-0.219992
-0.0445935
-0.00339366
0.0455701
-0.472247
0.202782
0.0224828
-0.0735034
0.463424
-0.401664
-0.161295
-0.149756
0.426339
-0.276587
0.334206
0.112667
0.048392
-0.00232074
-0.0460713
-0.144892
0.464831
0.101874
0.0423029
0.429624
-0.111154
-0.239622
-0.566412
0.00398953
0.0040112
-0.00800069
0.20564
0.365648
-0.0843455
-0.14131
0.147051
-0.270995
0.0321416
-0.107173
0.0750303
-0.245781
0.030786
0.204463
-0.0125027
-0.191963
-0.012635
-0.198482
-0.0244841
-0.309912
0.0457059
0.0291013
-0.252365
0.297391
-0.0450294
-0.000189433
0.011828
-0.0116384
-0.148515
0.175542
-0.0270295
0.592487
0.414013
-0.281378
0.193224
-0.157204
-0.15437
-0.0420874
-0.314557
0.50301
0.117034
-0.0326404
-0.084394
0.406862
0.152392
-0.161123
-0.0271824
0.050226
-0.184403
0.616049
-0.431649
-0.111257
0.0840402
-0.258892
-0.146008
-0.362699
-0.0972292
-0.487977
-0.00399186
-0.13424
0.51984
-0.385599
0.379658
-0.266641
0.0764054
-0.0851176
-0.405285
-0.152626
0.0580719
0.023212
0.0104737
-0.0269319
0.269317
-0.032526
-0.236794
0.0231555
-0.080565
0.405576
-0.0214201
0.585142
0.244504
-0.609134
0.441425
-0.108245
-0.395977
0.127177
-0.107162
-0.0200171
-0.0933447
-0.232379
0.325722
0.336172
-0.514628
0.178453
-0.0930124
-0.320267
0.107778
-0.564454
0.0516935
0.150014
-0.0777526
0.294997
-0.0841752
-0.0030485
-0.0060246
-0.0771696
0.0831936
0.4294
-0.118728
0.022629
0.387881
-0.410511
-0.0972468
-0.176173
0.145828
-0.0612585
0.457599
-0.39634
0.34815
-0.442673
0.0945197
-0.426375
0.311055
0.115319
-0.416489
-0.162882
-0.274055
0.536778
0.334339
0.124267
-0.00412042
-0.0340916
0.0382108
0.406035
0.0944295
-0.50047
0.019624
0.0831803
-0.213167
0.265017
-0.204494
0.27585
-0.581632
0.447391
0.423475
-0.593501
0.170021
-0.0818211
-0.0162185
0.0980383
0.261972
0.053499
-0.516246
0.555815
-0.401871
0.348841
0.123644
-0.472482
-0.211613
0.572746
-0.289649
-0.145535
-0.104751
0.621231
-0.435784
-0.282546
0.0532181
0.229325
-0.00981297
0.10575
-0.0959376
0.279624
-0.491223
0.211599
0.48377
0.104052
-0.0929408
0.442088
-0.349148
0.360791
-0.17006
-0.190734
-0.191933
-0.186715
-0.294219
0.0646288
0.229587
-0.144635
-0.191857
0.0433402
-0.337301
0.243954
0.330487
0.152846
-0.0758148
0.162793
-0.0869795
-0.14902
0.485188
-0.0569223
0.0436146
-0.103144
0.0917616
0.0113815
0.0686301
0.242372
0.122552
-0.11202
-0.0105319
0.450601
-0.458698
0.674232
-0.242993
-0.431242
0.126154
0.314776
-0.440934
0.270821
0.0923493
-0.36317
-0.107139
-0.376244
0.483382
0.500011
-0.0939816
-0.492896
0.492901
0.169787
0.386023
0.111692
-0.133798
0.571493
-0.144405
-0.427091
0.556338
-0.386556
0.375624
-0.18085
0.208717
-0.194605
-0.0141149
-0.00763736
0.0830644
-0.0474484
0.319577
-0.258854
-0.142545
-0.46775
0.131046
-0.13608
0.12576
-0.0215914
-0.10417
-0.0820036
0.321617
-0.0304758
0.116033
-0.110137
-0.00589775
0.128006
-0.025963
-0.102044
0.580431
-0.17133
-0.409103
-0.145222
0.00367248
0.469409
-0.138985
0.354385
0.291785
-0.320475
0.446625
0.0472315
-0.0491348
0.00190319
0.011012
0.10587
-0.173755
-0.329996
-0.0590423
0.412918
-0.361375
-0.131155
0.492535
-0.380746
-0.146737
-0.42977
0.12291
0.306856
-0.37783
0.400457
-0.282837
0.211093
0.0717406
-0.542253
0.296444
0.190759
0.0179552
0.302466
-0.047312
-0.0475282
0.0467352
0.000792945
0.00974248
0.550857
0.206432
-0.227022
0.0205878
-0.347698
-0.27546
0.0405599
0.0168929
-0.0574535
0.214123
-0.0290103
-0.185115
0.00447225
0.06811
-0.0725827
0.111182
-0.0219723
0.00302468
0.124152
-0.00499925
0.135932
-0.00201813
-0.0533687
0.464948
-0.185323
-0.00321807
0.0672834
-0.58251
0.218237
-0.276016
0.0577773
0.164848
0.406643
-0.0853356
0.217369
0.0279904
-0.245363
0.21143
-0.36845
0.157017
0.0555172
-0.00335256
-0.0521648
-0.0772174
0.274969
-0.197756
0.0335714
0.45607
-0.0177988
0.12566
-0.107862
0.335711
-0.512031
0.389094
0.122951
-0.0794333
0.286245
-0.206816
-0.311641
0.658318
-0.258384
-0.399938
0.374281
-0.0820571
0.0999117
-0.238747
-0.067579
-0.311025
-0.10063
0.278666
-0.178038
-0.22183
0.48352
-0.261684
-0.238821
0.040335
0.265593
-0.463478
-0.488333
-0.0825773
0.0911361
0.131049
0.264044
0.410185
0.361477
-0.107762
-0.253717
-0.0302925
0.036213
0.206821
0.0116763
0.0652393
-0.123046
0.0578051
0.0966947
0.0174633
-0.114159
-0.520947
0.410341
0.110604
0.398928
0.1815
0.0849579
-0.0731732
-0.0117852
0.283981
0.0902956
0.16717
0.0097364
0.219576
-0.0672517
0.00417942
0.063072
-0.0638641
0.334685
0.0423508
-0.114932
0.0184803
0.302726
-0.321209
-0.376487
-0.000163867
-0.39702
0.205084
-0.4502
0.344641
0.105559
-0.0126242
-0.00597038
0.0185948
-0.254365
0.0535864
-0.134458
0.585214
-0.450756
0.0819454
0.13542
-0.00531092
0.0926367
-0.0873267
0.123275
-0.30524
0.18196
-0.00537333
-0.0618787
-0.0230935
0.0811648
-0.503488
0.564845
-0.0613621
-0.255494
-0.0174282
0.27292
0.0585594
-0.00294031
-0.256393
0.000897196
-0.077152
0.0703695
0.00678228
-0.497645
0.0429402
0.45472
0.338608
-0.43155
-0.0424446
9.57201e-05
0.0423488
0.0204128
0.105347
-0.0267035
0.00867629
0.0180273
0.119909
-0.549096
0.429208
-0.0937387
0.432792
-0.104465
0.00739941
-0.0545243
-0.119178
0.0514351
0.275824
0.10383
0.406979
-0.0588309
-0.0205302
-0.164737
0.0517684
-0.0104734
-0.041296
-0.0743011
-0.00678829
0.0810889
-0.517833
0.0616385
0.388314
-0.449945
-0.00614302
0.0721362
0.206814
-0.00700367
-0.199816
0.203236
0.310816
0.0812561
-0.102834
0.0454158
-0.138705
0.343325
-0.568914
0.408795
0.160116
-0.00261191
0.00660116
-0.0639993
-0.229885
0.570013
-0.113073
0.55516
-0.442081
0.0141634
0.102869
-0.528447
0.0249551
0.608355
-0.181331
-0.46865
0.246827
0.133168
0.326225
-0.44181
0.115583
0.141215
-0.0393429
0.140081
-0.240714
-0.082001
-0.103299
-0.236455
0.339748
0.00264943
-0.0171465
0.014497
0.461983
-0.225324
0.0778907
0.000202886
-0.0780946
0.091634
-0.101448
0.056467
-0.523737
0.427553
0.096181
0.364175
0.13115
-0.495322
0.00704078
0.108992
-0.204155
-0.35644
-0.025045
0.415322
-0.157044
-0.269332
0.328846
-0.00661188
-0.0744036
-0.162056
-0.224127
-0.374059
0.0113004
-0.0458294
-0.206618
0.197789
0.00882639
0.0394468
0.366341
-0.219434
-0.146912
0.624956
-0.16192
-0.463037
0.559229
0.199119
-0.199506
-0.0713126
0.0690984
0.0084183
-0.0104933
0.20475
0.398544
-0.000712399
0.148362
0.072705
-0.480844
0.40814
-0.103862
-0.32637
0.430229
-0.162383
0.0559498
-0.0579681
-0.0246952
-0.182914
-0.309246
0.244764
0.107016
0.0187839
-0.173653
-0.109187
-0.068605
-0.070779
-0.0977807
-0.425959
0.274794
-0.481624
-0.493816
-0.0840106
-0.198537
0.149303
-0.146704
0.540399
-0.40167
-0.001052
-0.0962975
0.0973484
-0.486883
0.354485
0.132401
0.170616
-0.587094
-0.17072
0.125102
0.0456165
0.0546674
-0.0580201
-0.157778
-0.230985
0.388758
-0.0294496
0.0268358
-0.310131
0.271321
0.0388069
0.0593395
-0.048039
0.122561
0.338513
0.0146153
0.395666
-0.339308
0.451453
-0.112146
-0.0481626
0.149022
-0.638602
0.489577
0.326005
-0.503502
0.177494
-0.324744
-0.0527341
0.0627731
0.0724605
0.0030556
-0.0755163
-0.011841
0.218271
0.0659545
-0.0713282
0.0780009
-0.336137
0.258132
0.0640269
-0.00828153
-0.0557453
0.0626098
0.198874
0.00024252
0.425411
-0.305489
-0.14177
-0.349202
0.49097
-0.388873
-0.497902
0.37122
0.126682
-0.0548207
-0.0249748
0.599838
-0.43301
-0.166809
0.253837
0.0232607
-0.277101
-0.36615
0.127076
-0.105789
-0.00747687
0.066453
-0.00427719
0.0368625
-0.0325862
0.117733
-0.437469
0.319732
-0.0686098
0.080975
-0.0123657
-0.230342
0.345675
0.261718
-0.33087
-0.203911
0.504268
-0.312048
-0.216403
-0.00917924
-0.00684638
0.317159
-0.0763545
0.0500051
-0.0508264
0.118269
-0.131252
0.323453
0.0835227
0.106349
-0.00192652
0.397764
0.221684
0.272721
-0.023471
-0.384461
0.234701
-0.00585349
0.0905184
-0.0846659
-0.276843
-0.232865
0.331075
-0.201817
-0.129262
0.432505
0.332099
0.277012
-0.0802542
0.0749425
-0.23324
-0.0934591
0.326695
0.236938
-0.123632
-0.113309
-0.151659
0.477661
-0.0098879
-0.143121
0.0442739
-0.0418201
-0.00245388
0.32249
-0.481659
0.159166
-0.123104
-0.0597149
-0.469932
0.089185
0.33693
-0.0516481
-0.156685
-0.421286
0.577969
-0.0200663
0.11676
-0.0314866
0.249721
-0.180261
-0.197886
-0.083553
0.281434
0.086728
-0.487628
0.400897
-0.141801
0.484617
-0.342818
0.611232
0.324792
0.169177
0.396123
-0.533868
0.137742
0.164947
0.0377777
-0.0620129
0.248382
-0.214817
-0.266329
0.415564
0.552008
-0.221789
0.563567
-0.0317201
-0.531852
0.126404
-0.000239088
-0.000998647
-0.083177
0.104529
0.188681
0.338977
-0.438633
0.0996554
0.56697
-0.417951
0.426851
-0.152339
0.509507
-0.357171
0.104752
-0.0544262
-0.00466684
0.059093
-0.483868
-0.0635731
-0.0661161
0.32783