/*--------------------------------*- C++ -*----------------------------------*\
| =========                 |                                                 |
| \\      /  F ield         | OpenFOAM: The Open Source CFD Toolbox           |
|  \\    /   O peration     | Version:  v2012                                 |
|   \\  /    A nd           | Website:  www.openfoam.com                      |
|    \\/     M anipulation  |                                                 |
\*---------------------------------------------------------------------------*/
FoamFile
{
    version     2.0;
    format      ascii;
    class       volScalarField;
    location    "200";
    object      k_0;
}
// * * * * * * * * * * * * * * * * * * * * * * * * * * * * * * * * * * * * * //

dimensions      [0 2 -2 0 0 0 0];


internalField   nonuniform List<scalar> 
13917
(
0.000167536
0.000150507
0.0678415
0.000158941
0.000148674
0.000192378
0.0633199
0.069026
0.0674703
0.00017519
0.000201054
0.000189611
0.000159165
0.0104712
0.000156211
0.000155369
0.000150812
0.000178119
0.000189383
0.000148672
0.000149759
0.0617888
0.000148572
0.0707939
0.000148457
0.0613239
0.0001618
0.000164632
0.000207509
0.000185164
0.000169159
0.000159769
0.000160458
0.000154635
0.000148575
0.046158
0.000148624
0.0387425
0.00016305
0.0221026
0.000147841
0.000149897
0.000146113
0.000168547
0.000151058
0.000156053
0.000177897
0.000185532
0.000399576
0.000148002
0.000162065
0.000149992
0.000510867
0.000154959
0.000150839
0.000160755
0.00021381
0.000149148
0.000157713
0.000150777
0.0751926
0.000150561
0.00687724
0.000148594
0.000191023
0.0251884
0.000148638
0.00014851
0.000221666
0.000164894
0.000148719
0.0697912
0.0327298
0.000148451
0.00038492
0.000194421
0.0238113
0.00015368
0.0592532
0.000149544
0.000149318
0.00014868
0.000189053
0.0424012
0.0375804
0.000153437
0.000149147
0.00920284
0.000161663
0.000146142
0.0370178
0.000180776
0.000149101
0.000151914
0.0156404
0.000188927
0.000201012
0.000183159
0.000211884
0.000170464
0.000146974
0.000158739
0.000168382
0.000155227
0.000147489
0.0711587
0.000193873
0.000186694
0.000150884
0.000170091
0.0346588
0.0248213
0.000195938
0.0693718
0.000151317
0.000397727
0.000148215
0.000260852
0.0261809
0.000154961
0.000149811
0.000224654
0.0274074
0.000164011
0.000147855
0.000151595
0.000150576
0.000147919
0.000145867
0.000191015
0.0408642
0.000151148
0.000151116
0.000149813
0.0350586
0.0712549
0.000167617
0.000171067
0.000148596
0.000154813
0.0332482
0.000148513
0.000150709
0.000170661
0.000148534
0.0765813
0.000211127
0.00014985
0.000148077
0.000160155
0.000182855
0.000404069
0.000194663
0.00016506
0.00015985
0.0222566
0.000164025
0.0607559
0.0191799
0.0335358
0.000153516
0.000161976
0.000149545
0.000199938
0.000195496
0.00021749
0.000155104
0.000183252
0.000149945
0.000159193
0.000165856
0.0190334
0.00019808
0.000151682
0.077409
0.00016614
0.0434605
0.000302678
0.0772559
0.000148753
0.000181871
0.000170045
0.000148559
0.000149083
0.000158826
0.0639048
0.000217188
0.0287793
0.000169249
0.000208191
0.0358861
0.042268
0.000210247
0.000148643
0.000172116
0.000161483
0.000155582
0.000149161
0.000182126
0.00113228
0.000162528
0.000148101
0.000181906
0.00018279
0.0285823
0.0310905
0.000148544
0.000149253
0.000182971
0.0664772
0.00015045
0.0629395
0.0206721
0.000208417
0.00014748
0.000198617
0.000180642
0.0208488
0.000148202
0.0733067
0.000148662
0.000184498
0.000147513
0.0401968
0.0706353
0.000155739
0.000377976
0.000160271
0.000147448
0.042452
0.000197662
0.000169098
0.070893
0.0168514
0.000146668
0.000160343
0.0407601
0.0291617
0.000149489
0.000147697
0.0257578
0.000205125
0.000149758
0.0251273
0.000188947
0.000161488
0.000166756
0.000149488
0.000165232
0.0189432
0.000151889
0.000185733
0.000173736
0.000150476
0.000149062
0.000189108
0.0323911
0.000193556
0.000159017
0.000156503
0.00014979
0.0221213
0.0777421
0.0368578
0.000147446
0.0300391
0.0189436
0.0663349
0.057679
0.000196113
0.000149393
0.000147509
0.000178371
0.0339795
0.000196984
0.000157318
0.0419126
0.000180732
0.000145792
0.0658653
0.000148506
0.0771406
0.000161777
0.000149722
0.000157887
0.000165009
0.000161943
0.0307558
0.000161223
0.000151882
0.000357758
0.0714498
0.0762168
0.000148186
0.0689188
0.000149083
0.000151905
0.00014823
0.000229378
0.000148575
0.000186074
0.000166049
0.000149868
0.000182278
0.0001534
0.000355663
0.000165832
0.000179589
0.000149435
0.000148981
0.0324801
0.025338
0.000148208
0.000147515
0.063125
0.000148773
0.0354073
0.000149261
0.0426988
0.000154929
0.000217237
0.000169466
0.000422386
0.000153096
0.018933
0.000184638
0.000157903
0.000205365
0.000200431
0.000150305
0.0390022
0.000171728
0.0223265
0.000153965
0.0220223
0.00016114
0.0444861
0.00018119
0.000174117
0.000173553
0.0654371
0.000149401
0.000166401
0.0384317
0.000149724
0.000153304
0.0210038
0.000185149
0.000151589
0.0262929
0.000203595
0.000147121
0.022045
0.039694
0.000148463
0.000147604
0.000149136
0.000148074
0.000316197
0.0775113
0.000210433
0.036453
0.000148344
0.000187861
0.00711821
0.000176324
0.0616068
0.0380449
0.0690401
0.000146796
0.0321899
0.000147515
0.0689901
0.000150727
0.000445672
0.000188893
0.000160735
0.000149272
0.000182106
0.000183647
0.00018445
0.000600825
0.0403755
0.0161843
0.000165659
0.000174269
0.000147723
0.0322983
0.0603729
0.000149365
0.00528028
0.000148426
6.00756e-05
0.00015486
0.000149473
0.000153357
0.0567959
0.000153265
0.0362034
0.0106113
0.000218929
0.000194608
0.000150287
0.000194998
0.000191569
0.000148251
0.000186733
0.00014962
0.000148466
0.000185047
0.000149719
0.000148512
0.000147495
0.000162574
0.000149623
0.0251926
0.063142
0.00490277
0.000209676
0.0410536
0.0210897
0.00017596
0.000148333
0.000201048
0.000162513
0.000161485
0.000148602
0.0768943
0.0639976
0.0649107
0.000155118
0.000192122
0.000153565
0.00016369
0.000184379
0.00015257
0.0334514
0.000150891
0.000148543
0.0392484
0.0422117
0.0445007
0.000184396
0.00334365
0.0428288
0.0408966
0.023746
0.000146024
0.000180697
0.000152688
0.00014938
0.0177784
0.000178559
0.000150666
0.000178842
0.000174316
0.0224514
0.000148233
0.00019865
0.0149982
0.000233493
0.0294156
0.000149676
0.000149401
0.000155579
0.000164004
0.00014676
0.0656129
0.000200853
0.00016124
0.0326031
0.00016071
0.000200788
0.0447098
0.000212546
0.000217574
0.0381036
0.000198886
0.000177738
0.000201733
0.000178803
0.000154812
0.000206509
0.000182293
0.000189764
0.000149167
0.0254688
0.000162818
0.000149356
0.000163185
0.000154113
0.0244931
0.0703256
0.000148652
0.000146097
0.068036
0.0171919
0.000149721
0.0243351
0.000155439
0.000200383
0.000148779
0.0265663
0.0538503
0.000160146
0.000151545
0.0445849
0.000207068
0.0103633
0.000149777
0.021445
0.000362422
0.0641204
0.000149349
0.0337818
0.0672465
0.000176695
0.000147588
0.000150626
0.000194712
0.00231214
0.000149842
0.000147587
0.000147621
0.00014759
0.0261242
0.0144765
0.000176367
0.000214449
0.00014807
0.000146984
0.000191726
0.0584094
0.000166386
0.000150101
0.00014845
0.000148467
0.0679573
0.0469769
0.000149104
0.000148495
0.0304291
0.00017832
0.000169484
0.0001493
0.00015341
0.000158447
0.000189318
0.000194537
0.000217756
0.000203675
0.000191693
0.0382491
0.00017937
0.000148205
0.0223154
0.000148475
0.000153756
0.000159257
0.0237339
0.000171031
0.00014705
0.000236618
0.0001878
0.00852192
0.000191707
0.000160846
0.000175633
0.000149204
0.0735645
0.000219863
0.0575682
0.000150551
0.000163628
0.000218389
0.0396586
0.00683124
0.000183986
0.000187186
0.000155164
0.000155777
0.00014933
0.000165994
0.00016922
0.000149262
0.000180519
0.000172773
0.0587875
0.0122164
0.000154868
0.000199914
0.0471633
0.000158923
0.000150278
0.000448418
0.0770785
0.0744552
0.000213451
0.000145982
0.0247334
0.000194018
0.00014759
0.000164026
0.000189474
0.000159902
0.000185102
0.0590852
0.000201488
0.000175608
0.0736174
0.000154727
0.0197693
0.000149551
0.000149056
0.070546
0.0764607
0.000204446
0.000154746
0.000151536
0.000148503
0.000181091
0.000436104
0.000210645
0.000156151
0.000207741
0.000181814
0.000148808
0.000343082
0.000210183
0.0379094
0.000148219
0.000201016
0.000153987
0.0144606
0.000175753
0.000170863
0.000163838
0.000147184
0.000148722
0.000150767
0.00017508
0.000156308
0.000222111
0.000531513
0.000182714
0.00014716
0.000199668
0.000205496
0.0509723
0.000151666
0.000155998
0.000147614
0.00016746
0.000158037
0.0658576
0.000149487
0.000487717
0.000166794
0.000215058
0.000180502
0.0322242
0.00017181
0.000150473
0.0315813
0.00781689
0.000149428
0.000159174
0.0515738
0.000205247
0.000197098
0.000149544
0.000151717
0.000204421
0.000161028
0.000183899
0.000188032
0.000148885
0.000183107
0.0683806
0.000151779
0.000156989
0.000147747
0.0237333
0.000149751
0.000154728
0.0205075
0.000152884
0.0775015
0.000159829
0.000160675
0.000147704
0.000167472
0.000148259
0.000176802
0.000147207
0.00017476
0.000155384
0.0181757
0.000313961
0.0583218
0.000153999
0.000149321
0.000178582
0.000171787
0.0263004
0.0633428
0.00017766
0.000148518
0.000176311
0.000204318
0.0348926
0.000226225
0.000177942
0.0597158
0.000166807
0.000179574
0.000197276
0.000178959
0.000177345
0.000231789
0.000176587
0.000158175
0.000190871
0.000158075
0.000150118
0.00016717
0.000170248
0.000159472
0.000148318
0.000147636
0.00018233
0.000156308
0.000184137
0.000148483
0.000148464
0.000149806
0.000153085
0.000146425
0.000157554
0.000147879
0.0256214
0.000189639
0.000187726
0.000146842
0.00014962
0.000163912
0.000178033
0.000150793
0.0736895
0.000176535
0.0562577
0.000167079
0.000195054
0.000153284
0.000149775
0.000147482
0.0001534
0.0149968
0.000149676
0.0566439
0.0001579
0.00860613
0.000165959
0.000177157
0.00021451
0.000146985
0.000149935
0.000189848
0.000148572
0.00015058
0.0677263
0.000151885
0.000149137
0.000161233
0.000147627
0.000146617
0.000159769
0.000156351
0.0210144
0.000165222
0.000151798
0.000147522
0.0433642
0.000175177
0.000150109
0.000150567
0.0696673
0.0499066
0.0165053
0.000160886
0.000158173
0.000146726
0.000146442
0.000182654
0.000165936
0.0130257
0.000154252
0.0358592
0.000151182
0.000152909
0.0138147
0.000148449
0.000163182
0.000149079
0.000148431
0.000169423
0.000162083
0.000152795
0.0768271
0.0290622
0.000181031
0.000148214
0.000147351
0.000207239
0.0519467
0.000149717
0.0293298
0.000147163
0.000169248
0.000151086
0.000150266
0.00349259
0.000151071
0.0630875
0.000169134
0.000149804
0.000146328
0.000148828
0.000148174
0.000156655
0.000431199
0.00015128
0.000149463
0.063785
0.0743427
0.00017663
0.000171098
0.000183715
0.000158982
0.00014858
0.000156633
0.0268802
0.000175528
0.000148816
0.000151354
0.0649073
0.000170358
0.0414463
0.000149754
0.000150979
0.0208965
0.000168907
0.000153148
0.0137902
0.00029139
0.000148126
0.000194577
0.000147469
0.000150819
0.000146835
0.0331153
0.000146293
0.000152614
0.00014862
0.064987
0.000161409
0.000200287
0.00016563
0.000150475
0.000159056
0.000149101
0.0376473
0.000147818
0.000151462
0.000149145
0.00020916
0.000149088
0.000201473
0.0246802
0.0715123
0.000155629
0.0368326
0.0242143
0.000148964
0.0208022
0.0734936
0.0271806
0.0408092
0.0626531
0.00898488
0.000198081
0.000150773
0.057792
0.000168622
0.0586471
0.000149173
0.000149137
0.000150175
0.000149052
0.000160517
0.000158808
0.0284583
0.000149063
0.000148507
0.0097683
0.000188296
0.000148814
0.000160474
0.000163036
0.000151968
0.000303026
0.000160761
0.000153012
0.00016123
0.0239773
0.0172765
0.000253167
0.000150896
0.000206722
0.000187805
0.0266667
0.0686992
0.000197836
0.000148811
0.000153468
0.000151144
0.000145401
0.000153361
0.000145908
0.000158568
0.000166261
0.0362775
0.000201379
0.000152615
0.00019442
0.0421419
0.000168467
0.000150009
0.0209177
0.000149666
0.000150343
0.000160859
0.0380078
0.00014909
0.000148245
0.0623695
0.0268101
0.0435962
0.000194069
0.0436758
0.000148092
0.000204451
0.000150146
0.000148036
0.000150101
0.0642315
0.0203583
0.000149665
0.000146387
0.00014923
0.0553734
0.000152842
0.000164026
0.000148541
0.000151216
0.000201856
0.000150658
0.000177417
0.000197666
0.0453774
0.000150283
0.000173662
0.000155016
0.0301266
0.0403886
0.000148465
0.0315609
0.000184986
0.000267766
0.000149081
0.0554036
0.000149601
0.0001604
0.000168337
0.000193544
0.066932
0.0411542
2.93874e-05
0.0765387
0.000147089
0.00075203
0.000150296
0.000158076
0.0617789
0.000149457
0.000149657
0.000152817
0.000151628
0.034354
0.000146726
0.000148515
0.000183237
0.000172
0.000179128
0.000201912
0.000210959
0.0146788
0.000190789
0.000169703
0.00017917
0.0289997
0.000177013
0.0605072
0.0598795
0.000160902
0.000150848
0.0417995
0.0369064
0.000149877
0.000192135
0.00016689
0.000153985
0.000161111
0.000151847
0.000168561
0.000149943
0.000177598
0.000171308
0.000147527
0.000178284
0.000149868
0.000167913
0.000147186
0.000155091
0.000180996
0.000156635
0.00015206
0.000149661
0.000283979
0.00017838
0.0777702
0.000148535
0.000150448
0.000183017
0.000149054
0.000185955
0.00017834
0.000153955
0.000189404
0.000149749
0.0716671
0.00014979
0.000175251
0.0236791
0.000431359
0.00014818
0.000153641
0.0205785
0.000148043
0.000147683
0.0297894
0.0368866
0.000153275
0.00026406
0.000148606
0.000152117
0.0651988
0.000153239
0.000147042
0.011415
0.000150111
0.0549784
0.000149274
0.000146954
0.000150107
0.000211437
0.0361036
0.000149485
0.000150265
0.00014807
0.000156119
0.000148393
0.000224598
0.000178172
0.000149773
0.0772719
0.00016609
0.0012123
0.045251
0.00043448
0.000149527
0.00014987
0.000149416
0.000208208
0.000156446
0.0357113
0.0229771
0.000153083
0.0604761
0.000319738
0.000178138
0.000143856
0.000170652
0.00018959
0.067912
0.000168512
0.000387361
0.045074
0.00018868
0.000155439
0.0298907
0.000164692
0.000149202
0.000155636
0.0702304
0.000164488
0.000148598
0.000167775
0.000187672
0.000166656
0.0302966
0.000154086
0.0780062
0.000178638
0.0346254
0.000194545
0.000208327
0.000162459
0.000149581
0.000151662
0.0696401
0.000148142
0.00015337
0.000148088
0.000153433
0.000149296
0.000161347
0.00016717
0.00030085
0.00016346
0.000165115
0.0658377
0.000192757
0.000149457
0.052472
0.0648256
0.000147771
0.000147651
0.000164293
0.0175921
0.000149667
0.000182521
0.000210208
0.000168688
0.000148998
0.000156772
0.000150371
0.000191964
0.00016455
0.000147824
0.0212391
0.0594275
0.000164848
0.0377255
0.000189167
0.00235135
0.000152814
0.000159347
0.0695006
0.0441341
0.000198009
0.000262883
0.00016034
0.000149829
0.000151219
0.000150576
0.000148692
0.000150808
0.000168293
0.000148201
0.000204428
0.00014763
0.000161862
0.000150109
0.000177285
0.000206486
0.000289953
0.00014887
0.00020828
0.000151162
0.0713085
0.00014843
0.000154544
0.000148776
0.00220453
0.0291857
0.000195992
0.000148225
0.000201656
0.000149463
0.000161549
0.0361658
0.000150552
0.000150115
0.000171205
0.000164042
0.061026
0.000148232
0.000159357
0.000157428
0.000148342
0.000159207
0.000151305
0.000146594
0.000152741
0.0211357
0.000156078
0.0244441
0.0754286
0.000177187
0.0383927
0.000155636
0.000146608
0.00015996
0.0169325
0.000157711
0.000163708
0.0001771
0.000740725
0.000148086
0.00377354
0.000179049
0.000183248
0.000147675
0.000146352
3.99622e-05
0.000150328
0.000149897
0.00015944
0.000148961
0.000153693
0.000160976
0.000189584
0.000182581
0.0630979
0.000162395
0.000190173
0.0603665
0.0196636
0.000175137
0.000182294
0.0171139
0.000171936
0.0676792
0.000152404
0.00838678
0.00339258
0.000149568
0.000149722
0.000147769
0.000154831
0.000170694
0.0001503
0.000152763
0.000198007
0.00015492
0.000161297
0.0340164
0.000158152
0.000157678
0.0672654
0.000153077
0.0241433
0.000159635
0.000166039
0.000148042
0.0203858
0.0207793
0.000149504
0.000155076
0.0591689
0.000157767
0.0128844
0.000148033
0.000150183
0.0593066
0.000154543
0.000163139
0.00887889
0.000148495
0.000177177
0.00016123
0.000146402
0.00014738
0.0582962
0.0228136
0.000151033
0.00015623
0.000149257
0.000158151
0.000160097
0.0222945
0.000151157
0.000330844
0.0682229
0.0350082
0.0522677
0.000154292
0.000210417
0.000179327
0.000157525
0.000148476
0.000186227
0.0360169
0.000152406
0.00016356
0.0706083
0.000454888
0.000184943
0.000154224
0.000150253
0.000149607
0.000148486
0.0178505
0.000181146
0.000157713
0.000155467
0.000156772
0.000149785
0.000148918
0.000148583
0.000189676
0.000177363
0.077336
0.000164172
0.00831402
0.0382502
0.00015977
0.000178508
0.00014694
0.000158966
0.0172287
0.000150289
0.000153883
0.0001799
0.000197413
0.000164715
0.0624406
0.0254112
0.000149635
0.035882
0.000146172
0.000152077
0.00016484
0.000149806
0.000151904
0.000222565
0.0775101
0.000150096
0.0674164
0.000150307
0.000149527
0.000153782
0.000358421
0.0001609
0.000159694
0.0719806
0.000153112
0.00974413
0.0466517
0.000149607
0.000164405
0.000147962
0.0243646
0.000183131
0.000148586
0.0628536
0.000179581
0.000168413
0.000149845
0.0197145
0.000157999
0.000189595
0.000156606
0.000168365
0.0202634
0.000149466
0.000247616
0.000149417
0.00017857
0.000164451
0.000149601
0.0260564
0.000153338
0.00019718
0.000178135
0.000169711
0.00016405
0.000164031
0.000150976
0.0704969
0.000160093
0.02174
0.000158685
0.000187546
0.000150042
0.000170105
0.000148966
0.00019201
0.0693224
0.000152084
0.000148262
0.00042957
0.000154115
0.0626744
0.000152551
0.0674736
0.0372171
0.000165184
0.000148115
0.000147862
0.000148692
0.000146001
0.000189985
0.000166917
0.000160897
0.000157539
0.000148459
0.0357701
0.000156516
0.000164374
0.0565577
0.000148844
0.0175146
0.000179458
0.000169049
0.000249666
0.0320637
0.000295729
0.0696942
0.0398081
0.000148106
0.000198426
0.0244109
0.000187262
0.000149095
0.00014963
0.000201829
0.0617198
0.0248011
0.0002257
0.000154583
0.000165251
0.000172486
0.0442873
0.00288335
0.000176747
0.000202065
0.000154372
0.000177929
0.00019809
0.000149038
0.000188081
0.0721227
0.000148813
0.0617254
0.000149663
0.00015079
0.027948
0.0398672
0.000147089
0.000154951
0.000152142
0.000149988
0.000167746
0.000222165
0.000156675
0.000147957
0.000148579
0.000177526
0.000160263
0.00015981
0.000314883
0.000148606
0.0419786
0.0132513
0.0532405
0.000176341
0.000175251
0.0409711
0.000167984
0.0576269
0.0531389
0.0214046
0.000151152
0.0659809
0.0387295
0.000146655
0.000148312
0.000185272
0.0411452
0.0685419
0.000150659
0.000149452
0.0430749
0.00190287
0.0135719
0.000155177
0.000152932
0.000301233
0.000149958
0.046134
0.0290981
0.0483703
0.000394651
0.00014906
0.000148194
0.000147222
0.000155356
0.0318685
0.000175915
0.000161236
0.000150634
0.000174561
0.0178313
0.000177611
0.077806
0.012566
0.0249718
0.00031681
0.000148461
0.000149085
0.0682575
0.00014652
0.00014908
0.000152378
0.000416569
0.00017084
0.0371696
0.00019352
0.000148337
0.0610068
0.000169113
0.000149258
0.0138786
0.000176518
0.000154101
0.000152545
0.00519025
0.0436594
0.000149139
0.0763156
0.0699785
0.0506628
0.000298777
0.000177854
0.00014862
0.000152864
0.000322696
0.000158572
0.070383
0.000169916
0.00179181
0.00890831
0.000151419
0.000158234
0.000148815
0.000151168
0.043061
0.0208546
0.000148498
0.0182821
0.000177134
0.000149464
0.000154362
0.000147875
0.000205222
0.000152062
0.00030866
0.000165665
0.000148607
0.000147158
0.000169931
0.0169626
0.0001714
0.000154604
0.000170385
0.000148896
0.000154495
0.000163134
0.0141613
0.031537
0.0423893
0.000146642
0.000147109
0.000150903
0.00021061
0.0001476
0.000151097
0.000223361
0.000183114
0.0457315
0.000149306
0.0441212
0.0319124
0.000149885
0.0138896
0.000199184
0.000174584
0.000319377
0.000150732
0.0318625
0.000158351
0.000152004
0.000153035
0.000146457
0.0232629
0.000155345
0.000156101
0.000158068
0.0359543
0.0378428
0.000149612
0.000148045
0.000154686
0.00015023
0.000196241
0.000150331
0.000184449
0.000156513
0.0346667
0.000155054
0.0580838
0.000146772
0.0606744
0.000152218
0.000146429
0.0529517
0.000184766
0.000172115
0.0473581
0.000163049
0.000173586
0.000148554
0.0256375
0.00014848
0.000147614
0.00016895
0.000189794
0.0436405
0.0307627
0.000194589
0.0776518
0.000192633
0.00126543
0.000150514
0.000158266
0.000163811
0.0418472
0.000153889
0.0396746
0.0288407
0.000153178
0.000148884
0.000149246
0.000337117
0.000423328
0.000155896
0.000148688
0.000156148
0.000160398
0.000171416
0.000201392
0.000194082
0.000148332
0.000205965
0.000182674
0.0160726
0.000183768
0.000153334
0.000155658
0.0592202
0.000147194
0.000185374
0.0672454
0.000151543
0.000157089
0.000225215
0.000173076
0.000151343
0.020784
0.000156708
0.00054989
0.000179144
0.000159293
0.00015483
0.041669
0.000147235
0.000172398
0.000261948
0.0455824
0.000175282
0.000177512
0.000161408
0.000164518
0.000149749
0.0474209
0.000162319
0.000151332
0.000164095
0.000148528
0.000149776
0.000448835
0.000148498
0.000149118
0.000149388
0.000205403
0.000149715
0.000163571
0.000189409
0.00020115
0.000190592
0.000149662
0.000184314
0.000193879
0.000203915
0.000182174
0.000156075
0.000204365
0.0720926
0.000231424
0.000149886
0.0654318
0.0657548
0.000149882
0.000156205
0.000146267
0.000216291
0.000185645
0.000152159
0.000251576
0.0395523
0.000146909
0.000149614
0.0604157
0.0313211
0.00019009
0.000146663
0.0466209
0.0436372
0.000474545
0.000148275
0.04326
0.000196254
0.00016834
0.036888
0.000160082
0.000146334
0.000163674
0.000198687
0.0001669
0.0621024
0.0458418
0.000148299
0.0780304
0.000198446
0.0281672
0.000146808
0.00016391
0.000149784
0.000148653
0.0508315
0.0542503
0.000210428
0.0637165
0.000158952
0.000176003
0.000152588
0.0462473
0.0234747
0.000148522
0.000151255
0.000158657
0.000151005
0.000178964
0.0604646
0.0771612
0.000176595
0.000152523
0.000153025
0.0492576
0.000154697
0.000178895
0.000148159
0.000152297
0.000234383
0.0561571
0.0240646
0.000357492
0.000149074
0.000121647
0.000153892
0.000164671
0.0754215
0.0160268
0.000148515
0.000149955
0.00017405
0.000155011
0.000149557
0.05588
0.0412245
0.000149168
0.000145758
0.000149212
0.000147824
0.000323673
0.000149717
0.06191
0.000190484
0.000189965
0.000149226
0.000168811
0.0479876
0.000168648
0.0001951
0.0412641
0.000150197
0.0193993
0.00015934
0.000159911
0.000190246
0.0191791
0.0276352
0.000188022
0.000148152
0.000190507
0.000149718
0.000154359
0.000149715
0.0630955
0.000160004
0.000127036
0.0345384
0.00017573
0.000148773
0.000209177
0.000162035
0.000149785
0.000182023
0.000145843
0.00017803
0.000167385
0.000149609
0.072961
0.000153248
0.000203174
0.000151531
0.000147829
0.0457643
0.04389
0.000153315
0.00015893
0.000176472
0.000173705
0.000185732
0.000162704
0.00015622
0.000158895
0.0156278
0.000154644
0.0650886
0.000167658
0.0349118
0.00020947
0.000154303
0.0585343
0.000145833
0.0660393
0.000153245
0.039371
0.00976163
0.0326417
0.0588514
0.000193664
0.000169414
0.000151964
0.057424
0.000170715
0.000148614
0.015825
0.0758003
0.000152177
0.000157704
0.000162792
0.000162851
0.000168533
0.0257381
0.000149883
0.00016911
0.000172661
0.00016052
0.000149031
0.000195143
0.000147002
0.0658827
0.00015311
0.000192904
0.000164617
0.000172017
0.00018437
0.0580275
0.000183146
0.000148198
0.000188585
0.0597956
0.062475
0.00015371
0.0680456
0.00016327
0.00029367
0.000148481
0.000154494
0.0460446
0.000184572
0.0219559
0.0185379
0.000159548
0.0556974
0.000149285
0.000147081
0.0156983
0.000165129
0.000154509
0.0658799
0.000159265
0.000164255
0.000158792
0.000178587
0.000150961
0.0776626
0.0742011
0.00817528
0.000207418
0.000158555
0.000173745
0.0229741
0.00015401
0.000150292
0.000178145
0.000146781
0.00018418
0.044435
0.0222938
0.0241289
0.000183575
0.000153894
0.0459386
0.000146141
0.000189893
0.000149536
0.0378106
0.000154383
0.000165491
0.0368174
0.000193162
0.000148097
0.000160558
0.0105242
0.000148921
0.000209847
0.000148692
0.0659403
0.0396219
0.000199269
0.000167913
0.000147667
0.0270317
0.000218424
0.000171578
0.000148647
0.000154461
0.000148894
0.000183424
0.000148769
0.000195273
0.000149108
0.000149229
0.064554
0.000149429
0.000159255
0.000160483
0.000149818
0.0421249
0.000149098
0.000163163
0.0457329
0.000183132
0.0648588
0.000148975
0.0434849
0.00018437
0.0627579
0.000153896
0.000205306
0.000153379
0.000173708
0.000205769
0.000202824
0.000220423
0.040381
0.000206294
0.000363732
0.000155905
0.000200947
0.000164193
0.00105223
0.000154518
0.000153157
0.000148791
0.000181952
0.000166238
0.0487187
0.000179959
0.0701652
0.0753979
0.000170432
0.000149259
0.0619552
0.000178873
0.000150479
0.000153404
0.000149238
0.0750448
0.000148709
0.0181732
0.000149254
0.000162913
0.0268239
0.000171938
0.000148458
0.000148736
0.0183642
0.000148961
0.00015394
0.000158912
0.000162355
0.000160466
0.000150204
6.74862e-05
0.000168091
0.000163553
0.000230735
0.03455
0.0405888
0.0220818
0.000146792
0.000148743
0.000172833
0.000153889
0.000163948
0.0673369
0.0379473
0.000146575
0.000148539
0.0470717
0.0320388
0.0001468
0.000148312
0.000155668
0.0545825
0.0616161
0.0001592
0.000164379
0.000149288
0.000209454
0.000207846
0.000174302
0.000158561
0.000164725
0.000150163
0.000168646
7.21431e-05
0.000151158
0.000151501
0.000158692
0.0658207
0.000155084
0.0173061
0.000148666
0.0438089
0.000163595
0.00015634
0.000146836
0.000147776
0.000240117
0.0704962
0.000164967
0.0294178
0.0523538
0.000150891
0.0411416
0.000151468
0.000149368
0.0706254
0.0322295
0.000199102
0.000149662
0.0420842
0.0291817
0.000151411
0.00016395
0.0303289
0.00016819
0.000149432
0.000149065
0.000152196
0.000157351
0.000183167
0.000694855
0.000167819
0.000181024
0.000147237
0.000150011
0.0716573
0.000148866
0.000170071
0.000155481
0.000153926
0.000176009
0.000148303
0.000153451
0.000190936
0.000147999
0.0311537
0.00014836
0.00403957
0.048837
0.000188241
0.000150371
0.000149947
0.0440255
0.000146381
0.000155632
0.000150064
0.000202874
0.00185507
0.000167051
0.0456558
0.000163639
0.0472412
0.000150461
0.000187571
0.000150422
0.000148877
0.0178619
0.0416438
0.000319304
0.000154749
0.000186003
0.000186815
0.0328044
0.0448028
0.000176256
0.000168845
0.000146036
0.0374141
0.000150313
0.000150449
0.000139223
0.000202413
0.000157568
0.000178396
0.00016485
0.000161029
0.000160418
0.0581501
0.000157016
0.000147991
0.0162926
0.000165149
0.000147574
0.0387496
0.000148134
0.000148703
0.000204791
0.00018722
0.0393891
0.000147625
0.000154385
0.000148194
0.000304971
0.000148768
0.000198715
0.0655954
0.0461849
0.0376669
0.0152357
0.000157882
0.0311592
0.000223023
0.000149355
0.000159402
0.000163561
0.000158371
0.000249286
0.0347905
0.0389946
0.0492911
0.000337835
0.000149807
0.000197522
0.000148161
0.0180962
0.000162783
0.000156594
0.000156169
0.000153143
0.000148586
0.000195481
0.0395728
0.000146635
0.000155126
0.000147096
0.0297523
0.000154986
0.0588195
0.0633937
0.000231438
0.000148609
0.000148644
0.0300013
0.000190263
0.000148873
0.000191413
0.000149486
0.000188268
0.000178021
0.000189799
0.000180773
0.0416222
0.000148203
0.000150621
0.0123245
0.0412612
0.000161799
0.000168152
0.000148627
0.0198071
0.00014844
0.000147679
0.000154037
0.000148825
0.0067553
0.0353821
0.0499908
0.000188755
0.0437488
0.00347959
0.000146414
0.000167172
0.000147005
0.000252313
0.000151484
0.000154682
0.000148601
0.000147716
0.000149809
0.000389111
0.000155997
0.00027326
0.000149368
0.000158762
0.000160616
0.000267572
0.000148345
0.000166707
0.000172755
0.00017377
0.0624998
0.000147753
0.030292
0.000177678
0.000165909
0.000151707
0.000148163
0.0396323
0.00719758
0.000151626
0.000149899
0.00155417
0.010163
0.000160985
0.0485412
0.000151603
0.0380347
0.000167636
0.000146781
0.0772033
0.000157425
0.0585886
0.000148706
0.000152912
0.000148757
0.0318282
0.0440112
0.000146667
0.000180969
0.00552546
0.000148293
0.000149803
0.00014808
0.000182127
0.0446464
0.000176627
0.000160185
0.000169608
0.000148276
0.00014917
0.000155481
0.000148023
0.000218576
0.000149157
0.000188301
0.000256475
0.00016664
0.000145908
0.0669607
0.000188324
0.000148315
0.000179317
0.000165866
0.0480083
0.000153498
0.0738278
0.000176914
0.000149248
0.000183796
0.000183969
0.000157437
0.0626143
0.000187121
0.000169494
0.0531836
0.000148965
0.000186227
0.000169359
0.000183113
0.000147826
0.000148895
0.000146294
0.000159207
0.000184608
0.000183708
0.0770161
0.025592
0.0633197
0.00014976
0.000303093
0.0520376
0.0504676
0.000148659
0.000149484
0.000180876
0.0612694
0.000154107
0.000171718
0.0119637
0.0263318
0.00409259
0.000171536
0.000206092
0.0452162
0.000577387
0.000147164
0.00188174
0.000113932
0.000151894
0.000153175
0.000152284
0.0449702
0.000185611
0.0739593
0.000155191
0.0162117
0.000150905
0.0356166
0.034456
0.000150064
0.000169915
0.0352677
0.0722821
0.000176058
0.000153674
0.000153392
0.000150205
0.000186052
0.000208076
0.000585495
0.0481952
0.00014824
0.0154901
0.00019185
0.0482222
0.00014809
0.000149032
0.0558699
0.000182321
0.000148786
0.000174497
0.000167238
0.000161324
0.0659133
0.0646841
0.0474178
0.0448657
0.000155636
0.000148259
0.000166383
0.0285985
0.0655924
0.000150951
0.000183257
0.00016918
0.000193521
0.000155511
0.000149686
0.000235856
0.0600802
0.0254735
0.000265767
0.0297547
0.000147986
0.000181994
0.043594
0.000149846
0.000165831
0.000191703
0.000146861
0.000217602
0.0632783
0.000180325
0.000149678
0.0244998
0.000196669
0.0447207
0.000145767
0.000157695
0.000150372
0.000157805
0.00015022
0.00017292
0.000163923
0.000163322
0.000186697
0.000169581
0.0334223
0.000154846
0.000168454
0.00015963
0.0149723
0.000165162
0.025266
0.000159233
0.000156827
0.00812123
0.000169995
0.00014905
0.000163651
0.0587095
0.0725995
0.000148563
0.000149113
0.000148632
0.000149148
0.0407643
0.000152786
0.000337612
0.000259049
0.000181941
0.000162906
0.000210265
0.0212012
0.000150186
0.0760982
0.000161338
0.000164061
0.000149428
0.000150881
0.000177121
0.0433788
0.000148427
0.0235719
0.000213982
0.00017021
0.000198544
0.000148917
0.000148155
0.000164877
0.000156382
0.0557396
0.0255574
0.000170758
0.000240169
0.000149103
0.000150658
0.000151192
0.000149604
0.0677721
0.00015573
0.0305321
0.00016917
0.000155643
0.000189278
0.000616368
0.043196
0.0154911
0.00015634
0.00015047
0.000148818
0.000158721
0.000217654
0.000180612
0.0638884
0.000148975
0.000154079
0.000176743
0.000149709
0.0271713
0.000152731
0.000175404
0.000176644
0.000163776
0.000164122
0.000147695
0.000174512
0.000163648
0.000181416
0.000168055
0.000164142
0.000147278
0.000188948
0.000148501
0.000745388
0.0523868
0.000224395
0.000149294
0.000171482
0.000149199
0.000176879
0.000154083
0.000155666
0.000157074
0.0160789
0.0611893
0.000167864
0.000167042
0.000186019
0.000174969
0.0632324
0.043218