/*--------------------------------*- C++ -*----------------------------------*\
| =========                 |                                                 |
| \\      /  F ield         | OpenFOAM: The Open Source CFD Toolbox           |
|  \\    /   O peration     | Version:  v2012                                 |
|   \\  /    A nd           | Website:  www.openfoam.com                      |
|    \\/     M anipulation  |                                                 |
\*---------------------------------------------------------------------------*/
FoamFile
{
    version     2.0;
    format      ascii;
    class       volVectorField;
    location    "750";
    object      cellDisplacement;
}
// * * * * * * * * * * * * * * * * * * * * * * * * * * * * * * * * * * * * * //

dimensions      [0 1 0 0 0 0 0];


internalField   nonuniform List<vector> 
13851
(
(0.0245416 0.0229172 0)
(0.0228606 -0.0464104 0)
(0.0227081 -0.044609 0)
(0.0295213 -0.166388 0)
(0.000801015 -0.00590917 0)
(0.0239665 -0.0700404 0)
(0.0188763 0.0661091 0)
(0.00175094 -0.00630932 0)
(0.0236602 0.0652233 0)
(0.00589229 -0.131345 0)
(0.027141 -0.11215 0)
(0.00744565 -0.0762978 0)
(0.00915596 -0.156776 0)
(0.0240883 0.0483564 0)
(0.0235583 0.0153514 0)
(0.0220049 0.112358 0)
(0.0282224 -0.11496 0)
(0.0186207 -0.0610132 0)
(0.0260086 -0.0303903 0)
(0.0245837 0.020874 0)
(0.0243189 -0.00350477 0)
(0.0231194 -0.148103 0)
(0.0299048 -0.186039 0)
(0.000334423 -0.00270547 0)
(0.027299 -0.0802192 0)
(0.0216466 0.09998 0)
(0.0233584 0.0736874 0)
(0.0254438 -0.00638309 0)
(0.0226568 0.104742 0)
(0.0140536 -0.0556577 0)
(0.0287022 -0.134146 0)
(0.0189854 0.0628392 0)
(0.0242709 0.0326374 0)
(0.0245713 0.0291407 0)
(0.0264366 -0.107423 0)
(0.0224696 0.112063 0)
(0.000293124 -0.00237968 0)
(0.0284473 -0.127012 0)
(0.0271852 -0.0740888 0)
(0.0164688 -0.138084 0)
(0.0252954 0.000603546 0)
(0.0226596 0.104557 0)
(0.028722 -0.134695 0)
(0.0292823 -0.18673 0)
(0.0228734 0.096095 0)
(0.0153586 -0.101277 0)
(0.00277931 0.00431198 0)
(0.0226289 0.091824 0)
(0.0222777 -0.120027 0)
(0.00881122 -0.156778 0)
(0.0265741 -0.0498394 0)
(0.00682968 -0.162467 0)
(0.0220533 0.110315 0)
(0.0206999 0.0744458 0)
(0.0235962 0.0678053 0)
(0.0163732 -0.139548 0)
(0.0243299 0.0309199 0)
(0.0253212 -0.000403124 0)
(0.0228482 0.0930045 0)
(0.024911 0.0158701 0)
(0.00715053 -0.0737534 0)
(0.023367 0.072914 0)
(0.00351984 -0.106092 0)
(0.0224105 -0.121833 0)
(0.0276676 -0.195842 0)
(0.0277421 -0.196595 0)
(0.0249315 0.0150603 0)
(0.0137788 -0.199031 0)
(0.0185983 -0.123707 0)
(0.0292808 -0.156947 0)
(0.0284506 -0.124065 0)
(0.0246369 -0.00515322 0)
(0.0123737 -0.143863 0)
(0.0248654 0.0176661 0)
(0.0216298 0.0588539 0)
(0.021122 -0.149794 0)
(0.028235 -0.115464 0)
(0.0118388 -0.0261583 0)
(0.0272589 -0.0788077 0)
(0.0122147 -0.107302 0)
(0.0188322 -0.123265 0)
(0.0277628 -0.102661 0)
(0.0263941 -0.109727 0)
(0.0241933 0.0442078 0)
(0.024841 0.0186303 0)
(0.0286123 -0.130533 0)
(0.0233582 -0.147176 0)
(0.0226677 0.104479 0)
(0.00759146 -0.133344 0)
(0.0287424 -0.135752 0)
(0.00653068 -0.163313 0)
(0.0192289 0.0609891 0)
(0.0269291 -0.0638653 0)
(0.0286481 -0.131903 0)
(0.0266935 -0.0546019 0)
(0.0290086 -0.186195 0)
(0.0147756 -0.113564 0)
(0.0223745 0.10104 0)
(0.0259362 -0.0246391 0)
(0.0283722 -0.141671 0)
(0.0224585 0.0991284 0)
(0.0151916 -0.195537 0)
(0.0175091 -0.195633 0)
(0.0122219 -0.150398 0)
(0.0159948 -0.0948396 0)
(0.0251421 -0.0279597 0)
(0.0157743 -0.0951822 0)
(0.0284792 -0.125226 0)
(0.0193378 0.0577434 0)
(0.0184022 -0.0605151 0)
(0.0238816 -0.165086 0)
(0.0156149 -0.10116 0)
(0.0267396 -0.0638562 0)
(0.0264668 -0.0741717 0)
(0.0237878 0.0508727 0)
(0.0206723 0.0723775 0)
(0.0104601 -0.0475232 0)
(0.00213119 -0.00736856 0)
(0.0295463 -0.167328 0)
(0.0292947 -0.157616 0)
(0.0287543 -0.179731 0)
(0.0169086 -0.0580518 0)
(0.0180391 -0.130254 0)
(0.0247214 0.0233476 0)
(0.0255432 -0.0125435 0)
(0.0174398 -0.200125 0)
(0.0147625 -0.111707 0)
(0.0271995 -0.142168 0)
(0.0248068 0.0199193 0)
(0.024022 0.014148 0)
(0.0230105 -0.150546 0)
(0.0253155 -0.0998593 0)
(0.0284338 -0.127019 0)
(0.024527 0.0309067 0)
(0.0271651 -0.109873 0)
(0.0268515 -0.0608498 0)
(0.013193 -0.198754 0)
(0.0285746 -0.129016 0)
(0.0135687 -0.193347 0)
(0.0237108 0.023455 0)
(0.0277871 -0.104311 0)
(0.0138163 -0.167482 0)
(0.00754447 -0.135189 0)
(0.0235717 -0.198229 0)
(0.0268163 -0.0608259 0)
(0.0199668 -0.156667 0)
(0.0114775 -0.0240623 0)
(0.0286891 -0.133539 0)
(0.0231449 0.0856113 0)
(0.0273079 -0.142143 0)
(0.0225241 0.0967893 0)
(0.0267689 -0.065691 0)
(0.0265099 -0.0737343 0)
(0.0258864 -0.026466 0)
(0.0093237 -0.164921 0)
(0.00603887 -0.149117 0)
(0.00643907 -0.0628201 0)
(0.0272116 -0.0751073 0)
(0.023675 0.0207996 0)
(0.0203234 0.0265686 0)
(0.000755799 -0.00616865 0)
(0.0225769 0.10787 0)
(0.0250535 -0.0259414 0)
(0.0226964 0.0893747 0)
(0.0240522 0.0497849 0)
(0.0234864 0.0720214 0)
(0.023519 0.0707168 0)
(0.0266057 -0.0510878 0)
(0.0237491 -0.163683 0)
(0.0258313 -0.0210001 0)
(0.0066762 -0.0707453 0)
(0.0101626 -0.0454537 0)
(0.0256006 -0.0377564 0)
(0.000694845 -0.00534806 0)
(0.0266738 -0.0538366 0)
(0.0240134 0.0485278 0)
(0.0230031 0.0816938 0)
(0.0102803 -0.0441796 0)
(0.0213634 0.0648904 0)
(0.0229385 0.0833486 0)
(0.025501 -0.0111671 0)
(0.0291992 -0.185593 0)
(0.0237566 -0.16019 0)
(0.0239134 0.0164883 0)
(0.0282738 -0.116988 0)
(0.0231115 0.0869246 0)
(0.0241995 0.0356796 0)
(0.0123558 -0.18968 0)
(0.0098205 -0.161523 0)
(0.0149638 -0.0756873 0)
(0.0268115 -0.0608597 0)
(0.0237629 0.0173666 0)
(0.0240974 0.0479951 0)
(0.0239709 -0.0661061 0)
(0.0199412 -0.15485 0)
(0.0222139 0.105768 0)
(0.0241459 0.0370863 0)
(0.0193166 -0.020628 0)
(0.0202257 -0.0773496 0)
(0.0161232 -0.198681 0)
(0.0278873 -0.108765 0)
(0.0261902 -0.0347173 0)
(0.0254734 -0.00641577 0)
(0.023433 0.0184601 0)
(0.0297421 -0.196907 0)
(0.0261763 -0.0341564 0)
(0.00745273 -0.180609 0)
(0.0230811 0.0432632 0)
(0.023769 0.0609241 0)
(0.0239092 -0.0848844 0)
(0.0218518 0.116703 0)
(0.0178481 -0.129682 0)
(0.0278603 -0.107002 0)
(0.00241569 -0.0263733 0)
(0.0264236 -0.101782 0)
(0.0218346 -0.151133 0)
(0.00867208 -0.155063 0)
(0.0248003 0.0161956 0)
(0.020044 -0.0503963 0)
(0.0245933 -0.201854 0)
(0.00999516 -0.0420316 0)
(0.0247188 0.0157381 0)
(0.0242202 0.0431482 0)
(0.0267734 -0.0577685 0)
(0.0139084 -0.188446 0)
(0.023042 0.0457754 0)
(0.00127472 -0.013711 0)
(0.022925 -0.198094 0)
(0.00978563 -0.100325 0)
(0.0263713 -0.103488 0)
(0.0295666 -0.168934 0)
(0.012729 -0.189073 0)
(0.0238325 -0.0816321 0)
(0.00238324 -0.0985824 0)
(0.0254385 -0.00502644 0)
(0.0141898 -0.0539688 0)
(0.0298498 -0.185822 0)
(0.025551 -0.00947632 0)
(0.0283006 -0.141195 0)
(0.000709865 -0.00582645 0)
(0.0291492 -0.160994 0)
(0.0247714 0.0213828 0)
(0.0228378 0.0974336 0)
(0.0218928 0.114774 0)
(0.0243801 -0.0276658 0)
(0.0240082 -0.198936 0)
(0.0247917 0.0160861 0)
(0.021265 0.0682914 0)
(0.0289232 -0.185108 0)
(0.0246912 -0.159855 0)
(0.0231374 0.085944 0)
(0.0254931 -0.0145383 0)
(0.00189445 -0.00906563 0)
(0.0231556 -0.0250269 0)
(0.022309 0.103612 0)
(0.0225435 0.109219 0)
(0.022142 0.125259 0)
(0.0147061 -0.0743047 0)
(0.0168212 -0.200409 0)
(0.00798656 -0.131783 0)
(0.0242326 0.0373635 0)
(0.0256561 -0.0172592 0)
(0.0232411 -0.0241948 0)
(0.0249851 -0.0217442 0)
(0.0255488 -0.0162804 0)
(0.0128697 -0.132762 0)
(0.0159102 -0.195757 0)
(0.0227453 0.0849351 0)
(0.0251949 0.00324521 0)
(0.00655496 -0.100893 0)
(0.00833431 -0.154799 0)
(0.0135436 -0.18907 0)
(0.0238832 0.0563334 0)
(0.029448 -0.163381 0)
(0.0243384 0.00157164 0)
(0.017194 -0.0586068 0)
(0.0254322 -0.00823461 0)
(0.0257717 -0.0218773 0)
(0.023907 0.0446996 0)
(0.0248932 -0.0193747 0)
(0.0239109 0.0552648 0)
(0.0256147 -0.0119371 0)
(0.0237597 -0.040895 0)
(0.0232859 0.0162438 0)
(0.0287066 -0.137515 0)
(0.0161993 -0.0890036 0)
(0.00629406 -0.0596079 0)
(0.0239759 0.0427693 0)
(0.0271054 -0.123141 0)
(0.0146306 -0.0525557 0)
(0.00242963 -0.0255476 0)
(0.00989191 -0.102692 0)
(0.00110938 -0.00741213 0)
(0.0239789 -0.011307 0)
(0.00655998 -0.0627243 0)
(0.0236967 0.0637683 0)
(0.0243616 -0.00256898 0)
(0.016429 -0.124819 0)
(0.0224972 0.111031 0)
(0.0246971 0.0243098 0)
(0.00838529 -0.162312 0)
(0.0246692 0.0180679 0)
(0.0262526 -0.0371372 0)
(0.0140528 -0.168503 0)
(0.00808409 -0.163306 0)
(0.0244781 -0.00474273 0)
(0.0243523 0.0379295 0)
(0.0280578 -0.109034 0)
(0.0254141 -0.0255024 0)
(0.00102628 -0.00750238 0)
(0.0257894 -0.0193843 0)
(0.00697754 -0.0735013 0)
(0.0255496 -0.028501 0)
(0.0262824 -0.0383125 0)
(0.025088 0.00742241 0)
(0.0202169 0.025456 0)
(0.0287282 -0.138935 0)
(0.0284617 -0.129347 0)
(0.0283151 -0.118758 0)
(0.0268796 -0.0705752 0)
(0.0128314 -0.196707 0)
(0.0268578 -0.0611236 0)
(0.0247572 0.0219178 0)
(0.0254934 -0.0084142 0)
(0.0204358 -0.0778632 0)
(0.0286185 -0.130627 0)
(0.022703 0.10309 0)
(0.0244855 -0.201221 0)
(0.0247514 -0.20101 0)
(0.00785739 -0.181032 0)
(0.025603 -0.0344375 0)
(0.0195581 -0.182744 0)
(0.0226347 0.105787 0)
(0.0165234 -0.196593 0)
(0.00307096 -0.0170162 0)
(0.00318073 0.00407162 0)
(0.024453 -0.126549 0)
(0.0283373 -0.119599 0)
(0.0246393 -0.201802 0)
(0.0160898 -0.0867496 0)
(0.0267388 -0.0563879 0)
(0.0188926 -0.184466 0)
(0.0253992 -0.102449 0)
(0.020283 0.029646 0)
(0.0243256 0.0389871 0)
(0.0253836 -0.00655102 0)
(0.0221562 0.108092 0)
(0.0215345 -0.151501 0)
(0.023663 -0.0813812 0)
(0.0221054 0.126277 0)
(0.0102199 -0.16204 0)
(0.025834 -0.0241209 0)
(0.023637 -0.038363 0)
(0.024566 -0.00799865 0)
(0.0188117 -0.185427 0)
(0.00793274 -0.133631 0)
(0.016492 -0.123086 0)
(0.0275858 -0.102018 0)
(0.0283814 -0.13966 0)
(0.0253664 -0.00949306 0)
(0.0284773 -0.129249 0)
(0.0221422 0.124789 0)
(0.0202047 -0.156895 0)
(0.0255123 -0.00793681 0)
(0.024369 0.0332916 0)
(0.0149791 -0.0270507 0)
(0.0250488 0.0090876 0)
(0.0246543 0.013086 0)
(0.0259722 -0.0260633 0)
(0.0242893 -0.125606 0)
(0.021143 0.114165 0)
(0.022841 0.0926994 0)
(0.0279544 -0.106996 0)
(0.0276528 -0.106634 0)
(0.0227723 0.100345 0)
(0.0214734 -0.095871 0)
(0.0240574 0.0470568 0)
(0.0287541 -0.135973 0)
(0.0245162 -0.0464668 0)
(0.0231346 0.0860497 0)
(0.0248316 -0.0498795 0)
(0.0256361 -0.0128553 0)
(0.023266 0.0145175 0)
(0.0204547 0.0990789 0)
(0.0256642 -0.0214086 0)
(0.0283353 -0.131499 0)
(0.00640912 -0.149332 0)
(0.023781 -0.050924 0)
(0.0271974 -0.124026 0)
(0.0215378 0.0623294 0)
(0.0154829 -0.109501 0)
(0.0243022 0.00420649 0)
(0.0245763 0.0287177 0)
(0.0124584 -0.142614 0)
(0.0232273 0.0389634 0)
(0.0296716 -0.172255 0)
(0.0231454 -0.0812797 0)
(0.0295582 -0.178857 0)
(0.0217459 0.0787038 0)
(0.0280236 -0.107761 0)
(0.024062 -0.0859915 0)
(0.0215975 0.0992104 0)
(0.0295629 -0.196982 0)
(0.0256138 -0.0153095 0)
(0.0252555 -0.0346202 0)
(0.0221665 0.124298 0)
(0.0247962 0.0203992 0)
(0.0291337 -0.162093 0)
(0.0127418 -0.133982 0)
(0.027531 -0.100367 0)
(0.0250609 -0.0598447 0)
(0.0212522 0.110875 0)
(0.0169076 -0.0661142 0)
(0.0285299 -0.127106 0)
(0.0248779 0.0168413 0)
(0.0276695 -0.0952712 0)
(0.0235676 -0.0781686 0)
(0.0256272 -0.0194218 0)
(0.0235794 0.064865 0)
(0.029475 -0.164464 0)
(0.011793 -0.00317358 0)
(0.0286094 -0.130257 0)
(0.0282572 -0.1263 0)
(0.0300242 -0.189431 0)
(0.0249142 -0.15941 0)
(0.0260503 -0.030396 0)
(0.00895031 -0.14651 0)
(0.000612533 -0.00467608 0)
(0.0235637 0.0690888 0)
(0.0236867 0.0608217 0)
(0.00609776 -0.13381 0)
(0.0229163 -0.0493196 0)
(0.0233163 0.0376593 0)
(0.0103879 -0.0531914 0)
(0.024881 0.01665 0)
(0.0255557 -0.0315602 0)
(0.0246836 0.0112087 0)
(0.0219883 0.0137249 0)
(0.0214613 -0.0930263 0)
(0.00521391 -0.162878 0)
(0.0279968 -0.108959 0)
(0.016128 -0.125369 0)
(0.00492723 -0.161796 0)
(0.0225504 0.107328 0)
(0.024606 0.0275022 0)
(0.0227463 -0.151111 0)
(0.0228975 0.0898355 0)
(0.00323519 -0.104247 0)
(0.00639506 -0.059435 0)
(0.0233194 -0.0812638 0)
(0.0254236 -0.0113449 0)
(0.0213389 0.0869927 0)
(0.0157242 -0.11273 0)
(0.0219319 -0.0705169 0)
(0.0286741 -0.178539 0)
(0.0219052 -0.0340102 0)
(0.0282451 -0.11669 0)
(0.00719749 -0.0713991 0)
(0.0213124 0.0447028 0)
(0.02292 0.0942451 0)
(0.021749 -0.186033 0)
(0.00349567 -0.00139817 0)
(0.00615758 -0.0698857 0)
(0.0220191 0.0105199 0)
(0.0196146 -0.0151016 0)
(0.029279 -0.1697 0)
(0.022503 0.109573 0)
(0.0243766 -0.024905 0)
(0.0294833 -0.20142 0)
(0.0233852 -0.0780233 0)
(0.00827032 -0.0949214 0)
(0.0244498 0.0340178 0)
(0.0229019 0.0902814 0)
(0.0173712 -0.191487 0)
(0.0135229 -0.144421 0)
(0.0247148 0.023599 0)
(0.0142705 -0.192766 0)
(0.0298265 -0.189959 0)
(0.0119456 -0.150662 0)
(0.0253023 -0.093249 0)
(0.0276442 -0.104948 0)
(0.022256 0.0491284 0)
(0.0247602 0.0217869 0)
(0.0235408 0.0665675 0)
(0.0277002 -0.0967642 0)
(0.0173668 -0.171211 0)
(0.0268441 -0.0684922 0)
(0.0133732 -0.132479 0)
(0.0226205 0.106193 0)
(0.0218188 0.0758597 0)
(0.0240864 0.0393874 0)
(0.0249628 -0.0572491 0)
(0.0214034 -0.149744 0)
(0.0218252 -0.185117 0)
(0.0255543 -0.0346419 0)
(0.000897361 -0.00668859 0)
(0.0292022 -0.153674 0)
(0.024478 0.0329155 0)
(0.0282819 -0.118245 0)
(0.0300387 -0.186835 0)
(0.0225492 0.107689 0)
(0.0276198 -0.0911558 0)
(0.0257249 -0.0197579 0)
(0.014724 -0.187037 0)
(0.00294354 -0.048917 0)
(0.0296257 -0.179319 0)
(0.00556351 -0.130753 0)
(0.015267 -0.108341 0)
(0.0160833 -0.188187 0)
(0.0265994 -0.0509037 0)
(0.022346 -0.0306023 0)
(0.0126442 -0.168982 0)
(0.0277307 -0.177536 0)
(0.0258571 -0.0615927 0)
(0.00367198 -0.1346 0)
(0.0271601 -0.073784 0)
(0.0143103 -0.113935 0)
(0.0246877 0.0246063 0)
(0.0292242 -0.168384 0)
(0.0124964 -0.10823 0)
(0.0213425 -0.00650324 0)
(0.0280714 -0.117344 0)
(0.0251503 0.00509536 0)
(0.0145406 -0.0548391 0)
(0.0282902 -0.11988 0)
(0.0296492 -0.178127 0)
(0.015001 0.00673621 0)
(0.0278089 -0.0987387 0)
(0.0259523 -0.0283731 0)
(0.0248479 0.0107375 0)
(0.0170196 -0.17145 0)
(0.0226054 0.105119 0)
(0.0253255 -0.000513863 0)
(0.0152575 0.00593709 0)
(0.0267552 -0.0609937 0)
(0.0182863 -0.126919 0)
(0.0145587 -0.114602 0)
(0.022071 0.124581 0)
(0.0256764 -0.0144529 0)
(0.0254112 -0.0585797 0)
(0.0212034 0.0886823 0)
(0.00504299 -0.131842 0)
(0.0221479 0.0805411 0)
(0.0247685 0.0214184 0)
(0.0270551 -0.068914 0)
(0.0167546 -0.00752245 0)
(0.0279914 -0.105833 0)
(0.0155095 -0.111843 0)
(0.0185278 -0.126245 0)
(0.0252358 -0.031955 0)
(0.0205889 0.0609703 0)
(0.0117977 -0.000686832 0)
(0.0209192 -0.151299 0)
(0.0277336 -0.0957703 0)
(0.0282926 -0.130841 0)
(0.0277732 -0.0973097 0)
(0.0222112 -0.0320532 0)
(0.00829606 -0.132033 0)
(0.0238027 0.0594973 0)
(0.00389052 -0.0619396 0)
(0.0274288 -0.0954245 0)
(0.0220138 0.0264592 0)
(0.0218951 0.0525374 0)
(0.0245357 -0.0350214 0)
(0.0228031 0.0986019 0)
(0.0256476 -0.0132381 0)
(0.0238135 -0.0590267 0)
(0.028757 -0.136089 0)
(0.020236 0.0192826 0)
(0.0259725 -0.0500569 0)
(0.022703 0.102821 0)
(0.0235976 0.067745 0)
(0.0174927 -0.134591 0)
(0.0132088 -0.133543 0)
(0.0183013 -0.195356 0)
(0.0277026 -0.0945203 0)
(0.0223823 0.107319 0)
(0.0220434 0.0822113 0)
(0.0298517 -0.1886 0)
(0.0205243 0.063815 0)
(0.0231132 0.0173369 0)
(0.029544 -0.168453 0)
(0.0272672 -0.077998 0)
(0.028402 -0.180712 0)
(0.0246487 0.0261558 0)
(0.0237009 0.057494 0)
(0.0223121 0.118087 0)
(0.0209844 -0.0978906 0)
(0.0227993 0.0950178 0)
(0.0260574 -0.0308998 0)
(0.00744589 -0.089938 0)
(0.0269612 -0.065147 0)
(0.0265641 -0.0498118 0)
(0.0239025 -0.161653 0)
(0.0238253 0.0206983 0)
(0.0154591 -0.140866 0)
(0.0292039 -0.201371 0)
(0.0277385 -0.150497 0)
(0.0295864 -0.172292 0)
(0.0161054 -0.127116 0)
(0.000805273 -0.00629547 0)
(0.0108565 -0.186706 0)
(0.0258724 -0.0643126 0)
(0.00703598 -0.0687795 0)
(0.0266232 -0.051831 0)
(0.000973633 -0.00757864 0)
(0.0237344 0.0558371 0)
(0.0164591 -0.173245 0)
(0.0213688 0.109431 0)
(0.0122926 -0.149068 0)
(0.00374824 -0.136681 0)
(0.0265994 -0.15439 0)
(0.0279569 -0.104473 0)
(0.0254005 -0.0411681 0)
(0.0268135 -0.0593385 0)
(0.0253711 -0.0962436 0)
(0.0109799 -0.0575071 0)
(0.0163511 -0.0348568 0)
(0.0256945 -0.0406689 0)
(0.0218772 -0.0735015 0)
(0.0266374 -0.066751 0)
(0.0227696 -0.0348683 0)
(0.0167764 -0.191384 0)
(0.0227324 0.0971365 0)
(0.00369444 -0.062873 0)
(0.0219477 0.132931 0)
(0.00173226 -0.0185812 0)
(0.0214606 0.11683 0)
(0.0287984 -0.137727 0)
(0.0232518 0.0812132 0)
(0.00749438 -0.190215 0)
(0.0295916 -0.173561 0)
(0.0275899 -0.178797 0)
(0.0286867 -0.152129 0)
(0.0265242 -0.0482026 0)
(0.017487 -0.0108626 0)
(0.0271871 -0.0747477 0)
(0.0194676 -0.183803 0)
(0.0246187 -0.0464791 0)
(0.0300055 -0.185609 0)
(0.0268571 -0.0630903 0)
(0.0152495 -0.0289942 0)
(0.0266497 -0.0684311 0)
(0.0191184 -0.0178201 0)
(0.0223073 0.118392 0)
(0.0268933 -0.0624592 0)
(0.0193203 -0.122429 0)
(0.0150429 -0.199006 0)
(0.0251161 0.00736556 0)
(0.00134037 -0.0180654 0)
(0.00181702 -0.0243478 0)
(0.0215806 0.102555 0)
(0.0219785 0.131718 0)
(0.0226601 0.102545 0)
(0.00775412 -0.163001 0)
(0.0257904 -0.0265094 0)
(0.0217518 -0.0347596 0)
(0.0041489 -0.139952 0)
(0.0226266 0.101219 0)
(0.0257477 -0.0243514 0)
(0.0282608 -0.136357 0)
(0.0106869 -0.00225531 0)
(0.0228155 0.0825001 0)
(0.0228862 -0.19064 0)
(0.0214141 0.100136 0)
(0.00776168 -0.173396 0)
(0.0196425 -0.154728 0)
(0.0276488 -0.151851 0)
(0.0111354 -0.186062 0)
(0.022686 0.0884505 0)
(0.024527 -0.00217557 0)
(0.0246987 -0.00856384 0)
(0.0282017 -0.18103 0)
(0.0297351 -0.190421 0)
(0.0260606 -0.0326352 0)
(0.0238184 0.0584931 0)
(0.028246 -0.118357 0)
(0.0225372 0.095592 0)
(0.024127 0.0468256 0)
(0.025048 -0.1738 0)
(0.0221155 0.12329 0)
(0.0247952 0.013199 0)
(0.0181864 -0.0688671 0)
(0.023071 0.0161555 0)
(0.0260631 -0.0331942 0)
(0.0239883 -0.13681 0)
(0.0120327 -0.10493 0)
(0.0118982 -0.10086 0)
(0.021659 0.112009 0)
(0.0227378 0.101708 0)
(0.0214777 0.0427493 0)
(0.0255851 -0.010809 0)
(0.0111778 -0.0598744 0)
(0.0227074 0.100969 0)
(0.0279039 -0.189047 0)
(0.0263221 -0.0398809 0)
(0.0267287 -0.0720931 0)
(0.024159 -0.0842342 0)
(0.0226705 -0.040394 0)
(0.0263519 -0.0410582 0)
(0.0282203 -0.133965 0)
(0.0248973 -0.172736 0)
(0.0236416 0.0627349 0)
(0.0212358 -0.090961 0)
(0.0295252 -0.175294 0)
(0.0215925 0.114431 0)
(0.0238191 0.0527217 0)
(0.0251653 -0.0730767 0)
(0.0282186 -0.121599 0)
(0.00916223 -0.14556 0)
(0.00196549 -0.0214962 0)
(0.00753398 -0.179589 0)
(0.00446327 -0.141613 0)
(0.0227838 0.0996716 0)
(0.00127516 -0.00863963 0)
(0.0225806 0.102476 0)
(0.0238338 0.0582959 0)
(0.0267888 -0.0737291 0)
(0.0269785 -0.0658966 0)
(0.0259043 -0.0233777 0)
(0.0238626 0.0515395 0)
(0.0287019 -0.150478 0)
(0.00842761 -0.189947 0)
(0.00155201 -0.0685058 0)
(0.00822865 -0.152987 0)
(0.0115049 -0.0293051 0)
(0.016178 -0.0361439 0)
(0.000933664 -0.00720399 0)
(0.0258403 -0.0437054 0)
(0.0266155 -0.0592117 0)
(0.0232375 -0.191114 0)
(0.0253972 -0.00466473 0)
(0.0207793 -0.142344 0)
(0.0237298 0.0624772 0)
(0.000214549 -0.00499749 0)
(0.0295272 -0.16673 0)
(0.0262962 -0.115122 0)
(0.000440431 -0.0105411 0)
(0.00239673 -0.0917077 0)
(0.0233329 0.0780298 0)
(0.0240837 -0.0731111 0)
(0.0233345 0.0766843 0)
(0.0264771 -0.0463792 0)
(0.0236493 0.0235205 0)
(0.0246443 0.00600825 0)
(0.0146451 0.0113791 0)
(0.0246094 0.0276632 0)
(0.0189906 -0.169365 0)
(0.0224942 -0.0334835 0)
(0.0226945 0.098817 0)
(0.00184635 -0.0683601 0)
(0.0133798 -0.167718 0)
(0.01763 -0.0329619 0)
(0.022071 0.0698384 0)
(0.0229772 0.0922646 0)
(0.0249901 -0.0955613 0)
(0.0250857 -0.066164 0)
(0.0283146 -0.128201 0)
(0.0270854 -0.0700979 0)
(0.0115532 -0.189919 0)
(0.0208047 -0.172377 0)
(0.0225325 0.109465 0)
(0.0111192 -0.0281548 0)
(0.0224833 0.111434 0)
(0.00175006 -0.0144361 0)
(0.0218949 -0.0299666 0)
(0.0271579 -0.074789 0)
(0.0232335 0.0605617 0)
(0.0238457 0.0483196 0)
(0.0274238 -0.107977 0)
(0.025373 -0.0383256 0)
(0.00152725 -0.0441571 0)
(0.000220152 -0.00462878 0)
(0.0260205 -0.0501531 0)
(0.021129 -0.0960359 0)
(0.00130992 -0.0386222 0)
(0.0210924 0.0551336 0)
(0.0285403 -0.139875 0)
(0.00665871 -0.0473211 0)
(0.0287182 -0.156267 0)
(0.0295134 -0.177116 0)
(0.0231379 0.0840331 0)
(0.0273614 -0.105584 0)
(0.0289882 -0.145637 0)
(0.0136749 -0.193959 0)
(0.00179485 -0.0713701 0)
(0.0277457 -0.111597 0)
(0.0112194 -0.0629193 0)
(0.0237391 -0.0468666 0)
(0.0237893 0.0595613 0)
(0.0220591 0.128002 0)
(0.0272302 -0.0764444 0)
(0.0225363 0.109199 0)
(0.0197446 -0.118712 0)
(0.0192097 -0.120928 0)
(0.0263445 -0.187073 0)
(0.0191081 -0.155867 0)
(0.0161933 -0.0784531 0)
(0.0299405 -0.187534 0)
(0.0241804 0.0396573 0)
(0.0232804 0.0802842 0)
(0.0214117 0.11901 0)
(0.023302 0.059285 0)
(0.00511524 -0.144956 0)
(0.014199 -0.0581497 0)
(0.0291944 -0.160068 0)
(0.0247833 0.00745486 0)
(0.0220596 -0.0291767 0)
(0.000711003 -0.0292805 0)
(0.0237153 0.0531416 0)
(0.0270882 -0.0780994 0)
(0.0256244 -0.0123716 0)
(0.00890657 -0.164392 0)
(0.00403763 -0.0354755 0)
(0.0230057 0.0911392 0)
(0.00741503 -0.172732 0)
(0.0246948 -0.0426865 0)
(0.00996689 -0.0510919 0)
(0.0265224 -0.0478658 0)
(0.00130907 -0.00633212 0)
(0.0287254 -0.134849 0)
(0.00513771 -0.11384 0)
(0.0282823 -0.143354 0)
(0.0243697 -0.0113409 0)
(0.0260185 -0.189062 0)
(0.0251867 -0.0701967 0)
(0.0120635 -0.14404 0)
(0.0230025 -0.0551574 0)
(0.00507312 -0.037395 0)
(0.0224584 0.106621 0)
(0.00949426 -0.172022 0)
(0.0221536 0.124788 0)
(0.0214357 -0.0869641 0)
(0.0243521 0.0368981 0)
(0.0242947 0.0401252 0)
(0.025118 -0.0795185 0)
(0.00399725 -0.0278101 0)
(0.0297448 -0.175209 0)
(0.0226463 0.104043 0)
(0.023935 -0.0581495 0)
(0.0231163 0.0642876 0)
(0.0079032 -0.152598 0)
(0.0223497 0.11705 0)
(0.0184079 -0.0693997 0)
(0.0261164 -0.0354223 0)
(0.00772326 -0.0979707 0)
(0.00530824 -0.0387081 0)
(0.0233103 0.0774328 0)
(0.0245141 -0.0317634 0)
(0.00648502 -0.0730984 0)
(0.0208406 0.0732867 0)
(0.0251581 0.00605185 0)
(0.0295697 -0.199964 0)
(0.0251547 0.00588781 0)
(0.0145134 -0.0754855 0)
(0.0240942 0.0481192 0)
(0.00680363 -0.1042 0)
(0.00633399 -0.0451217 0)
(0.00963104 -0.163995 0)
(0.00378304 0.00471357 0)
(0.00237075 -0.0349326 0)
(0.0254993 -0.00769836 0)
(0.0239989 0.0513686 0)
(0.0202029 -0.0529816 0)
(0.00122385 -0.00954679 0)
(0.0253875 -0.0549671 0)
(0.0156487 -0.0994036 0)
(0.0297352 -0.174974 0)
(0.0277307 -0.109624 0)
(0.0241224 0.0470098 0)
(0.026902 -0.0628796 0)
(0.0230304 -0.0582808 0)
(0.0227533 0.0859757 0)
(0.00775084 -0.0926048 0)
(0.0243915 -0.00744575 0)
(0.0276635 -0.188762 0)
(0.017241 -0.00869971 0)
(0.00172891 -0.0143758 0)
(0.029073 -0.157259 0)
(0.026862 -0.0612196 0)
(0.024567 0.00799526 0)
(0.0282384 -0.115594 0)
(0.0236858 0.0374345 0)
(0.00364755 -0.104088 0)
(0.0257172 -0.0692789 0)
(0.0230808 0.0663656 0)
(0.0277295 -0.0954865 0)
(0.0239067 -0.0121124 0)
(0.023183 0.0815627 0)
(0.0248431 0.00594103 0)
(0.00269719 -0.0279678 0)
(0.0294923 -0.167532 0)
(0.0294759 -0.166397 0)
(0.0229147 0.094726 0)
(0.0268613 -0.0629808 0)
(0.0219689 0.12812 0)
(0.0176523 -0.170048 0)
(0.0246531 -0.198645 0)
(0.00442374 -0.162193 0)
(0.0245324 0.0289609 0)
(0.0238423 -0.135259 0)
(0.00251979 -0.0140311 0)
(0.0252841 0.000813724 0)
(0.020378 -0.144311 0)
(0.00367731 -0.0255762 0)
(0.0176696 -0.133142 0)
(0.0201449 -0.144162 0)
(0.0265501 -0.0489453 0)
(0.0259476 -0.028662 0)
(0.0128896 -0.0810881 0)
(0.0257129 -0.066147 0)
(0.0242653 0.0413645 0)
(0.0216123 -0.126551 0)
(0.0283063 -0.118277 0)
(0.0123827 -0.175119 0)
(0.0235972 0.047435 0)
(0.0258328 -0.0206203 0)
(0.00665637 -0.0656769 0)
(0.0223892 0.107876 0)
(0.0246598 -0.139391 0)
(0.0252387 -0.0800145 0)
(0.0296583 -0.200486 0)
(0.0205679 -0.142196 0)
(0.0276494 -0.0982795 0)
(0.0214518 0.101382 0)
(0.0251691 0.0055958 0)
(0.0187247 0.00535923 0)
(0.0224523 0.112991 0)
(0.0245265 -0.0502457 0)
(0.0246468 0.026303 0)
(0.0272814 -0.0777823 0)
(0.0224496 0.113103 0)
(0.0234546 0.0302975 0)
(0.0112399 -0.147156 0)
(0.0197658 -0.1211 0)
(0.00130754 -0.0187279 0)
(0.0203991 0.0977843 0)
(0.00345314 -0.0937579 0)
(0.0248044 0.0200329 0)
(0.0234773 -0.160697 0)
(0.0161021 -0.185242 0)
(0.0110811 -0.189599 0)
(0.017646 -0.168924 0)
(0.0142593 -0.0740499 0)
(0.0196047 0.0738131 0)
(0.024231 -0.132491 0)
(0.0214062 -0.0101432 0)
(0.0235267 -0.148508 0)
(0.0263336 -0.0405851 0)
(0.0223345 0.110773 0)
(0.0241504 -0.0355518 0)
(0.0268836 -0.145802 0)
(0.0253211 -0.000683301 0)
(0.0131123 -0.168987 0)
(0.0282654 -0.116771 0)
(0.0107687 -0.028975 0)
(0.0242866 -0.16601 0)
(0.00913929 -0.172777 0)
(0.017731 -0.10055 0)
(0.0263183 -0.159223 0)
(0.00838228 -0.0974373 0)
(0.0128375 -0.0791726 0)
(0.0139317 -0.196444 0)
(0.00585852 -0.150482 0)
(0.0284902 -0.13829 0)
(0.0216787 -0.0740121 0)
(0.0270258 -0.0676939 0)
(0.0253522 -0.00325537 0)
(0.025146 0.00230606 0)
(0.0267546 -0.0614729 0)
(0.0194732 -0.048706 0)
(0.0270109 -0.0671604 0)
(0.0250032 0.00614503 0)
(0.00262643 -0.0281462 0)
(0.0241749 -0.135558 0)
(0.0124768 -0.16784 0)
(0.0282389 -0.115758 0)
(0.0113873 -0.17608 0)
(0.0168345 -0.195344 0)
(0.0249873 0.0114862 0)
(0.0296422 -0.171059 0)
(0.0277588 -0.14307 0)
(0.0198873 -0.085884 0)
(0.0228445 0.0970576 0)
(0.0249503 0.0127974 0)
(0.0220177 0.12674 0)
(0.0245555 -0.141202 0)
(0.0111818 -0.0570445 0)
(0.0164643 -0.00189156 0)
(0.0253355 -0.0226431 0)
(0.0101601 -0.146894 0)
(0.0252932 0.000760937 0)
(0.027488 -0.097409 0)
(0.00328602 -0.0543522 0)
(0.0244329 0.0306843 0)
(0.028423 -0.134275 0)
(0.0174313 -0.0331871 0)
(0.0262992 -0.0392602 0)
(0.0286858 -0.133279 0)
(0.0241095 0.0420306 0)
(0.0215887 -0.0885143 0)
(0.0227578 0.100424 0)
(0.0257502 -0.0406855 0)
(0.00825748 -0.0695381 0)
(0.0232802 0.0802955 0)
(0.0208329 -0.171096 0)
(0.0172645 -0.0447332 0)
(0.0135452 -0.116272 0)
(0.0215547 0.0578012 0)
(0.0207065 0.0926648 0)
(0.0237768 0.0605873 0)
(0.0287666 -0.136792 0)
(0.0220788 0.064401 0)
(0.0235954 0.067711 0)
(0.0223101 0.0437634 0)
(0.0092955 -0.139203 0)
(0.0157238 -0.199552 0)
(0.0116115 -0.100105 0)
(0.0288957 -0.147581 0)
(0.0170206 -0.0100579 0)
(0.00496235 -0.0375755 0)
(0.0204879 -0.158303 0)
(0.0210652 -0.0925733 0)
(0.0240468 0.0498975 0)
(0.0223806 0.115826 0)
(0.0231361 0.0801479 0)
(0.0257175 -0.0159988 0)
(0.0274824 -0.0862725 0)
(0.0150466 -0.187694 0)
(0.0132949 -0.143239 0)
(0.0216383 -0.0769451 0)
(0.0277008 -0.0999724 0)
(0.0167242 -0.00398925 0)
(0.0016967 -0.00310608 0)
(0.0264095 -0.115925 0)
(0.0272009 -0.0763313 0)
(0.021782 0.128138 0)
(0.00293639 -0.000699049 0)
(0.0260225 -0.142068 0)
(0.0251162 -0.0638007 0)
(0.0251078 0.00061007 0)
(0.0286871 -0.133322 0)
(0.0149002 0.0102119 0)
(0.0114469 0.00147478 0)
(0.0203269 0.0211295 0)
(0.0277983 -0.100811 0)
(0.0209023 0.0578981 0)
(0.0248493 0.0182317 0)
(0.0193873 -0.156241 0)
(0.0037171 -0.0328738 0)
(0.0173313 -0.0422968 0)
(0.013943 -0.115244 0)
(0.0219601 -0.149039 0)
(0.0239805 0.0468624 0)
(0.0222717 0.119584 0)
(0.0233597 0.077006 0)
(0.00894917 -0.19036 0)
(0.00818437 -0.0978135 0)
(0.0294719 -0.173648 0)
(0.019589 -0.0117664 0)
(0.0260941 -0.0320117 0)
(0.0253281 -0.00061767 0)
(0.0157183 -0.188947 0)
(0.0280241 -0.107128 0)
(0.0227409 0.101383 0)
(0.028983 -0.145297 0)
(0.0218009 0.0859709 0)
(0.0237699 -0.00865843 0)
(0.0241029 0.0477691 0)
(0.0242552 -0.0353803 0)
(0.0224717 -0.181085 0)
(0.0266018 -0.186527 0)
(0.0287418 -0.154518 0)
(0.0209231 -0.103147 0)
(0.0297774 -0.199251 0)
(0.00922637 -0.140867 0)
(0.0236075 0.0666156 0)
(0.0277613 -0.0990684 0)
(0.0108335 -0.0308821 0)
(0.0168356 -0.172857 0)
(0.0264867 -0.158752 0)
(0.0280416 -0.115279 0)
(0.0241634 -0.0184294 0)
(0.00359179 -0.0299539 0)
(0.0221661 0.0244632 0)
(0.00811166 -0.17794 0)
(0.0216694 0.0193506 0)
(0.0291176 -0.197876 0)
(0.0033763 -0.0745498 0)
(0.0226894 0.102529 0)
(0.0229068 0.095041 0)
(0.00947918 -0.1424 0)
(0.0236905 -0.00936728 0)
(0.0208319 0.0893116 0)
(0.00733788 -0.0871483 0)
(0.0220268 0.129342 0)
(0.0227359 0.10178 0)
(0.0269359 -0.0642024 0)
(0.0222005 0.1229 0)
(0.00884116 -0.0940961 0)
(0.0225385 -0.141505 0)
(0.0241258 -0.121131 0)
(0.0107537 -0.163819 0)
(0.0229546 0.086869 0)
(0.0241002 -0.0142083 0)
(0.000817342 -0.0281359 0)
(0.0229089 0.0617453 0)
(0.0108704 -0.185374 0)
(0.0242902 0.0395326 0)
(0.0243162 -0.00779048 0)
(0.024288 0.0404711 0)
(0.00758498 -0.177453 0)
(0.021501 -0.132536 0)
(0.0173705 -0.196261 0)
(0.0251175 -0.00544463 0)
(0.0254681 -0.0258552 0)
(0.012218 -0.13267 0)
(0.0226709 0.10435 0)
(0.0249004 0.0162815 0)
(0.0300072 -0.190579 0)
(0.0276384 -0.0918995 0)
(0.023647 0.0651477 0)
(0.0235603 0.0691157 0)
(0.0246093 0.0277842 0)
(0.0117024 -0.13222 0)
(0.00834922 -0.130287 0)
(0.0188071 -0.035192 0)
(0.0224479 0.104742 0)
(0.0214782 0.083141 0)
(0.0255956 -0.0312785 0)
(0.0290106 -0.1461 0)
(0.0185893 0.0038919 0)
(0.00719693 -0.0173297 0)
(0.00538063 -0.132733 0)
(0.0217486 0.126 0)
(0.0115563 -0.0217102 0)
(0.0229104 -0.0110159 0)
(0.0204698 -0.155668 0)
(0.0228331 0.0963403 0)
(0.0146671 -0.169827 0)
(0.0111188 -0.063652 0)
(0.00656723 -0.098531 0)
(0.0152095 -0.129291 0)
(0.00131074 -0.0102971 0)
(0.0204247 -0.187109 0)
(0.023015 0.0844219 0)
(0.0225892 -0.179949 0)
(0.0249361 0.0143588 0)
(0.00791568 -0.124012 0)
(0.0141896 -0.115844 0)
(0.0247257 0.0231211 0)
(0.0243038 0.0397361 0)
(0.022804 0.0990969 0)
(0.022859 0.0948367 0)
(0.0206615 -0.19411 0)
(0.0226078 0.104666 0)
(0.0106315 -0.0532567 0)
(0.0268796 -0.175081 0)
(0.0214016 -0.134595 0)
(0.00518967 -0.111426 0)
(0.0204645 0.0312718 0)
(0.0286581 -0.132195 0)
(0.0214228 -0.0324047 0)
(0.0250629 -0.00273701 0)
(0.0289199 -0.147621 0)
(0.0194877 -0.0197137 0)
(0.0175399 -0.0993555 0)
(0.0122228 -0.185571 0)
(0.0239371 0.0488285 0)
(0.00100804 -0.0103004 0)
(0.0227921 0.0978921 0)
(0.0186268 -0.0327801 0)
(0.0224401 0.104154 0)
(0.00266441 -0.0938344 0)
(0.0201862 -0.0568327 0)
(0.0239195 -0.0540145 0)
(0.0255915 -0.195091 0)
(0.00937956 -0.157879 0)
(0.0234099 0.0719888 0)
(0.0285135 -0.12657 0)
(0.0217282 0.125385 0)
(0.0244439 0.0341687 0)
(0.00860348 -0.146042 0)
(0.0277647 -0.0968789 0)
(0.0245304 0.0287845 0)
(0.00759684 -0.114854 0)
(0.0278585 -0.103057 0)
(0.0103435 -0.163513 0)
(0.0124365 -0.195912 0)
(0.0095244 -0.162463 0)
(0.0172526 0.0302456 0)
(0.00843577 -0.0606865 0)
(0.00352894 -0.138235 0)
(0.0196037 -0.132868 0)
(0.00943477 -0.188119 0)
(0.024225 0.0201183 0)
(0.0201058 -0.0864563 0)
(0.00310669 -0.106877 0)
(0.0161812 -0.198214 0)