/*--------------------------------*- C++ -*----------------------------------*\
| =========                 |                                                 |
| \\      /  F ield         | OpenFOAM: The Open Source CFD Toolbox           |
|  \\    /   O peration     | Version:  v2012                                 |
|   \\  /    A nd           | Website:  www.openfoam.com                      |
|    \\/     M anipulation  |                                                 |
\*---------------------------------------------------------------------------*/
FoamFile
{
    version     2.0;
    format      ascii;
    class       surfaceVectorField;
    location    "750";
    object      ddtCorrDdt0(Uf);
}
// * * * * * * * * * * * * * * * * * * * * * * * * * * * * * * * * * * * * * //

dimensions      [0 1 -2 0 0 0 0];


internalField   nonuniform List<vector> 
20580
(
(0.00559659 -0.00239786 1.09465e-18)
(0.00567108 -0.00245011 -3.80521e-17)
(0.00565029 -0.00233374 -2.411e-17)
(0.00148594 -0.000837659 9.19697e-19)
(0.0014769 -0.000864076 7.94821e-18)
(0.00151995 -0.000860809 -4.20198e-18)
(0.00150064 -0.000800857 -2.18901e-18)
(0.00145075 -0.000804754 -1.77869e-17)
(0.000615483 0.000341812 -1.52915e-17)
(0.000330669 0.00036485 1.04984e-17)
(0.000601805 0.000329497 3.99181e-17)
(3.47221e-05 -9.05647e-06 -2.45071e-19)
(3.10419e-05 -8.28662e-06 -1.57066e-18)
(3.23019e-05 -4.94617e-06 -8.29851e-19)
(0.00146752 -0.00121121 3.89251e-18)
(0.00142984 -0.00123706 -4.22193e-18)
(0.00141906 -0.00118765 -1.0944e-18)
(0.00182903 0.000351025 4.14783e-18)
(0.00186594 0.000378593 9.70937e-19)
(0.000246243 -1.66675e-05 -5.58023e-19)
(0.000240595 -1.70061e-05 -7.57181e-19)
(0.000237164 -1.09035e-05 4.13827e-18)
(-0.0123669 -0.00252455 1.48811e-17)
(-0.0125339 -0.00256349 -5.68197e-18)
(-0.012049 -0.00240579 -7.24404e-18)
(1.11242e-05 -0.000349821 2.00768e-18)
(9.65875e-06 -0.000339027 -2.15474e-19)
(1.23059e-05 -0.000336349 1.75757e-19)
(0.0010265 -0.00269181 -9.14976e-18)
(0.00102256 -0.00261988 -8.00371e-18)
(0.000959132 -0.0026579 8.24154e-18)
(3.79575e-05 -0.000153955 2.58228e-19)
(4.14984e-05 -0.000159814 -2.53334e-19)
(4.0457e-05 -0.000162515 2.99566e-19)
(3.55566e-05 -0.000553008 8.9406e-19)
(3.81698e-05 -0.000562027 3.98857e-18)
(4.01571e-05 -0.00054946 -7.85894e-19)
(-0.00853359 -0.00117305 -3.09879e-17)
(-0.00843048 -0.0011057 -1.05326e-17)
(-0.0084535 -0.00123396 7.42653e-18)
(0.00307308 -0.000902872 1.0172e-18)
(0.00310974 -0.000953848 -2.80404e-18)
(0.00302629 -0.00095168 2.61445e-17)
(0.00593073 0.0015324 1.05258e-17)
(0.00597273 0.00165304 2.44923e-17)
(0.00549729 0.00152914 4.73641e-17)
(0.00159304 0.000137226 1.43142e-17)
(0.00195758 0.000148064 1.49474e-17)
(0.00175239 0.000101156 1.60549e-18)
(0.000699824 -0.000406645 -8.23032e-18)
(0.00072106 -0.00041017 1.59452e-18)
(0.0007104 -0.000427804 -1.70751e-18)
(-0.0230274 -0.0037777 -5.78007e-18)
(-0.0230168 -0.00338352 2.71148e-18)
(-0.0248562 -0.00361551 1.66675e-17)
(0.00552293 -0.00253559 7.49671e-18)
(0.00545908 -0.00235943 -1.37387e-17)
(0.00309155 -0.00145057 9.9256e-18)
(0.00300629 -0.00144655 -4.77572e-18)
(0.00304898 -0.00137176 -7.59676e-18)
(0.000488745 -0.00131465 -9.33947e-18)
(0.000460131 -0.00129506 4.77754e-20)
(0.000488744 -0.00127771 1.11556e-18)
(-0.00411063 0.0039445 -2.39913e-17)
(-0.00586316 0.00218434 6.0876e-17)
(-0.00456916 0.00295078 -5.22678e-17)
(8.6003e-07 -3.03729e-06 -3.50038e-20)
(1.39485e-06 -3.99691e-06 -1.44533e-18)
(8.57429e-07 -2.55169e-06 -7.00536e-19)
(-0.018192 -0.00106238 6.80752e-19)
(-0.018103 -0.000970046 -3.00254e-18)
(-0.017291 -0.0010979 -1.88996e-17)
(0.00460136 0.000975187 1.74396e-17)
(0.00468042 0.00103096 -2.04576e-18)
(0.00469739 0.00093693 8.79248e-18)
(-0.0251417 -0.00467087 -1.87883e-17)
(-0.0252696 -0.00473572 1.4538e-17)
(-0.0253078 -0.00451376 3.79969e-18)
(-0.0241707 -0.00483821 -3.77542e-17)
(-0.0243792 -0.00493499 1.40394e-17)
(-0.0237688 -0.00478068 2.06677e-19)
(-0.0175256 -0.00273575 -1.51474e-17)
(-0.0171715 -0.00260803 -5.12529e-18)
(-0.0169273 -0.00259792 -2.85583e-17)
(0.00040491 -0.000231137 6.01708e-18)
(0.000397454 -0.000238629 8.65337e-19)
(0.000391539 -0.000225689 -1.7323e-18)
(-0.000931373 0.000331142 6.72416e-17)
(-0.000615654 0.000324663 8.24449e-17)
(-0.001077 0.000348343 5.67746e-17)
(0.00184643 0.000316684 -4.71783e-19)
(0.00178978 0.000330628 -4.848e-18)
(0.00582223 -0.00191895 -7.48251e-18)
(0.00587507 -0.00174992 2.28675e-17)
(0.00571161 -0.00183527 -3.0322e-18)
(-0.0114194 -0.00274394 3.3587e-17)
(-0.0111336 -0.00270291 -3.06628e-17)
(-0.0122053 -0.00292917 4.89023e-18)
(0.00111869 -0.00218809 -6.53128e-19)
(0.00118698 -0.00220617 1.48651e-17)
(0.0011296 -0.00225847 -2.04943e-17)
(-0.0179086 -0.00257781 -9.28163e-19)
(-0.018514 -0.00271252 -7.23054e-18)
(-0.0181663 -0.00254142 -1.8629e-18)
(2.76627e-07 -1.98401e-06 7.563e-19)
(8.47416e-07 -3.63691e-06 1.39742e-18)
(-0.0157971 0.000798204 3.52712e-17)
(-0.014374 0.000718186 -3.79329e-18)
(-0.0142565 0.000653731 3.50988e-17)
(-0.00187889 -0.000373424 2.11017e-18)
(-0.00206161 -0.00040538 2.97535e-18)
(-0.00245794 -0.000458064 -6.51222e-17)
(0.000252439 -0.000640888 -7.53557e-21)
(0.000256264 -0.000629463 -2.56731e-19)
(0.000264103 -0.000646215 2.31612e-18)
(-0.00673336 -0.00190812 1.1978e-17)
(-0.00740229 -0.00205844 -4.79507e-18)
(-0.00695388 -0.00195095 -6.50433e-18)
(-0.0178729 -0.00288667 -5.74695e-18)
(-0.0181359 -0.00287859 7.58012e-18)
(0.00162865 0.000209673 -4.26986e-17)
(0.00166186 0.000219584 6.64605e-17)
(-0.000839941 -0.00259345 -2.04945e-17)
(0.000947929 -0.00444912 -1.70601e-17)
(-0.00174305 -0.0012648 -3.44013e-17)
(-0.017865 -0.0030858 -9.47421e-18)
(-0.0176074 -0.00297955 1.5434e-17)
(-0.0171834 -0.00288221 -1.34275e-17)
(0.000309108 -0.000416319 3.8973e-18)
(0.000297168 -0.000416095 -2.38117e-18)
(0.000299039 -0.000401737 1.08638e-18)
(0.000306386 1.52177e-05 2.90667e-18)
(0.000306341 1.22904e-05 6.65994e-18)
(0.00638578 0.000621556 5.36861e-19)
(0.00615124 0.000684896 -1.41624e-18)
(0.00649334 0.000685966 5.62864e-19)
(0.000706066 -0.00106282 -5.01271e-18)
(0.000694841 -0.00102663 3.30738e-18)
(0.000728932 -0.0010449 -2.11715e-18)
(3.32657e-05 -0.000541944 -1.32744e-18)
(3.02354e-05 -0.000554037 -1.01189e-19)
(0.000411501 -0.000231649 1.62836e-17)
(0.000367301 -0.000229376 3.65859e-17)
(0.00100654 -0.000167455 6.70537e-17)
(-8.60894e-08 -0.000578735 -1.40905e-18)
(1.50158e-06 -0.000568291 7.95679e-19)
(5.34466e-06 -0.000581973 6.34431e-18)
(0.00587071 0.00140911 -1.76866e-17)
(0.00621564 0.00154918 -2.14607e-17)
(0.00278377 0.000371321 -7.6272e-18)
(0.00285535 0.000368476 -4.02447e-18)
(0.00282685 0.000430457 3.04057e-18)
(-0.0110112 -0.00133179 1.0963e-17)
(-0.0109761 -0.00150267 -1.05195e-17)
(-0.0107827 -0.00131619 -1.11694e-17)
(0.000249597 -0.000652132 -1.2626e-19)
(0.0002418 -0.000635576 -1.24679e-18)
(0.00591742 -0.00200037 -1.42183e-17)
(0.00575623 -0.00205191 -1.33002e-17)
(-0.00645559 -0.00183574 -5.83401e-18)
(-0.00613852 -0.00169215 -4.39011e-17)
(-0.0246872 -0.00377053 2.70526e-17)
(-0.0249403 -0.00378856 -7.47782e-18)
(-0.0250546 -0.00392132 -8.03155e-18)
(-0.00459671 -0.000777142 1.59734e-17)
(-0.00482146 -0.000816882 -2.2886e-17)
(-0.00489481 -0.000896458 -2.97352e-17)
(3.46888e-05 -0.000148046 8.19774e-20)
(3.56344e-05 -0.000145635 -1.13345e-19)
(-0.0241329 -0.00426587 -1.12325e-17)
(-0.024594 -0.00441135 -7.61574e-18)
(-2.30911e-06 -0.000209755 -1.33246e-18)
(-7.4219e-07 -0.000210416 3.19593e-18)
(-1.78015e-06 -0.000222573 -3.70093e-18)
(0.000684895 -0.00107029 -5.21725e-18)
(0.000715545 -0.00108656 -3.93475e-18)
(-0.00066902 -0.00125613 5.3709e-19)
(-0.000662773 -0.00130822 -1.29737e-18)
(-0.000623539 -0.00128147 8.49872e-19)
(-0.000659533 -0.00120998 -7.9129e-19)
(-0.00070174 -0.00124863 -1.23086e-18)
(-0.00432457 -0.000709334 1.30355e-17)
(-0.00384643 -0.000661997 -3.54409e-17)
(-0.000155221 -0.00097171 6.22081e-18)
(-0.000161095 -0.000971181 -2.05694e-17)
(0.000429358 -0.000689123 -1.31072e-18)
(0.000413025 -0.000687643 5.11e-18)
(0.000418131 -0.000671441 2.62746e-18)
(-0.000148225 0.000168643 4.53739e-17)
(0.000193962 0.000163283 3.14603e-17)
(2.94133e-05 0.000150107 6.86162e-17)
(-0.000197113 0.000184615 -1.94306e-17)
(0.0001438 0.000167827 -1.5978e-17)
(-0.000178511 0.000185772 9.13486e-17)
(0.00328011 -0.00172595 -3.88362e-17)
(0.00324444 -0.0017793 -4.1208e-18)
(0.0033276 -0.00179115 -4.39034e-18)
(0.000113906 -0.000520144 8.60716e-19)
(0.000108076 -0.000520553 3.74727e-19)
(0.000115036 -0.00053267 -1.86692e-19)
(-0.00499044 -0.00085014 -6.37498e-18)
(-0.00435823 -0.000687955 -7.7495e-17)
(0.00301381 8.42048e-05 -5.15766e-18)
(0.00295065 5.18995e-05 -8.80505e-18)
(0.00301284 1.99428e-05 8.44029e-18)
(0.00040525 -0.00107324 3.63232e-18)
(0.000384579 -0.00105162 -1.39153e-18)
(0.000405106 -0.00104365 4.13652e-18)
(0.00136793 0.000146573 -9.82763e-17)
(0.00117767 0.000131234 -4.2114e-17)
(0.000409097 -9.8756e-05 2.09691e-18)
(0.000406244 -0.000107649 -4.70778e-18)
(0.000421816 -0.00010522 1.64695e-18)
(-0.0183226 -0.00127533 2.39233e-17)
(-0.0190802 -0.00110138 -4.74189e-17)
(0.000147563 -0.000340333 1.43896e-18)
(0.000140926 -0.000328861 -3.36705e-19)
(0.000139107 -0.000336313 3.47594e-20)
(0.000444216 -0.000694737 -4.96677e-18)
(0.000436714 -0.000707738 1.17763e-18)
(-0.00104608 -0.00391291 2.17375e-18)
(-0.0028141 -0.00375135 1.22594e-17)
(-0.00778764 -0.00269382 4.88557e-17)
(0.00110412 -0.00215136 -1.09106e-17)
(0.00107004 -0.00217566 -8.26033e-18)
(-0.00798077 -0.00113183 -1.44996e-17)
(-0.00815277 -0.00120678 3.22292e-17)
(-0.00812919 -0.00126949 4.40295e-17)
(-0.00509843 -0.000862398 6.75414e-17)
(-0.00526761 -0.000947189 3.02959e-17)
(-0.000422742 0.000283066 -9.55785e-18)
(-0.000492329 0.000272706 2.87956e-17)
(-0.000828873 0.000309276 2.04339e-17)
(0.000492426 -0.00134281 -9.54518e-18)
(0.000513812 -0.00132831 2.93788e-18)
(-0.0156571 -0.00152176 3.49546e-18)
(-0.0157463 -0.00145095 1.98397e-17)
(-0.0155231 -0.00154449 4.96944e-18)
(2.92118e-05 -0.00037605 3.24296e-19)
(3.21075e-05 -0.000373901 -2.30671e-19)
(2.80609e-05 -0.000362767 2.40864e-19)
(-0.00112369 0.000349006 1.54598e-17)
(-0.000713568 0.000298189 -7.71504e-18)
(-4.69407e-06 -0.000591886 -2.42969e-18)
(-7.11105e-06 -0.000574768 1.44264e-18)
(0.00186419 0.000283763 -2.64907e-18)
(0.00189565 0.000308249 3.76558e-18)
(0.00152389 -3.39688e-05 1.13144e-17)
(0.00151499 -1.51422e-05 1.22675e-18)
(-0.000327334 0.00028622 -1.80348e-17)
(-4.81167e-05 0.000262542 -7.53345e-17)
(-0.00204347 -0.000597329 2.33559e-18)
(-0.00181277 -0.000521563 1.94872e-17)
(-0.00159588 -0.000493033 8.37406e-17)
(-0.000739969 -0.00231877 5.58307e-18)
(-0.000831812 -0.0020897 1.26432e-17)
(-0.00093858 -0.0020099 1.73083e-17)
(0.000240009 -0.000433289 -3.91693e-18)
(0.000230612 -0.000432987 1.50989e-18)
(0.000242507 -0.00044638 -2.36045e-18)
(0.00558973 0.000977547 -2.5682e-17)
(0.00569509 0.00107928 6.35961e-18)
(0.00610026 0.00108281 -2.44712e-17)
(-0.000965181 -0.00046695 6.36813e-17)
(-0.00103098 -0.000466165 -3.18383e-17)
(-0.000421316 -0.000349935 -7.25432e-18)
(-0.000129405 -0.00305527 -1.56648e-17)
(-0.000217763 -0.00317075 1.01212e-17)
(-0.000323675 -0.00310079 2.12687e-17)
(0.00550279 0.000848402 -7.33463e-18)
(0.0057777 0.000819272 -1.15535e-17)
(-0.000153691 -0.00103229 1.38209e-17)
(-0.000144182 -0.00102241 -1.00442e-17)
(-0.000145536 -0.0010326 -9.68181e-18)
(-0.000211184 -0.00106102 2.40279e-18)
(-0.000182906 -0.00105647 -1.14137e-17)
(-0.000186679 -0.001037 2.53707e-18)
(9.62205e-05 -0.000563687 -7.42563e-21)
(0.000102157 -0.000562236 2.00414e-18)
(0.000102672 -0.000577547 1.9711e-18)
(0.000354035 -0.000410756 1.14208e-18)
(0.000364934 -0.000425219 2.72187e-18)
(0.000364709 -0.000410029 -5.78259e-18)
(0.00276662 -0.00194862 -5.6995e-18)
(0.00271114 -0.00200712 -3.35691e-17)
(0.00281287 -0.00201347 5.11544e-18)
(0.000342748 -0.000395614 3.78046e-18)
(0.000340596 -0.000411117 -2.39872e-20)
(-0.000220256 0.000204767 4.19675e-17)
(-0.000560597 0.000218955 1.00833e-17)
(0.00182236 0.00025863 2.1722e-18)
(0.00188203 0.000245913 5.71304e-18)
(0.000683369 -0.000401889 -2.20263e-18)
(0.000694767 -0.000390721 -4.17795e-18)
(0.000264682 -0.00138759 1.51964e-18)
(0.000246281 -0.00144953 -4.37264e-18)
(0.000192185 -0.00139942 5.4508e-20)
(0.000319754 -0.000418372 2.08738e-18)
(0.000321083 -0.000430864 -9.40984e-19)
(0.00212317 -0.00401995 -1.89463e-17)
(0.00229897 -0.00404636 -1.03181e-17)
(0.00243869 -0.00415111 -3.61747e-17)
(0.00185921 -0.0027759 7.25418e-17)
(0.00188698 -0.00272241 -7.19984e-18)
(0.0018222 -0.00271863 2.91516e-17)
(0.00603665 -0.00111061 -3.34828e-17)
(0.00607374 -0.00102265 -3.32134e-17)
(0.00621551 -0.00111383 1.79237e-17)
(0.00271478 0.000378895 -3.26453e-18)
(0.00273627 0.00032319 -1.2615e-17)
(0.000268332 -0.000148142 8.0446e-18)
(0.000264643 -0.000152611 5.09531e-18)
(0.000275706 -0.00015452 8.30342e-18)
(0.0002534 -1.48633e-05 -3.48145e-18)
(0.000250475 -2.18747e-05 3.82575e-18)
(0.00090053 0.00031015 -9.39821e-17)
(0.000663078 0.000365039 -1.7865e-17)
(-0.000404783 0.000187482 2.71368e-18)
(-0.00057763 0.000161265 -1.73134e-17)
(-0.000526516 -0.00197577 -2.27914e-17)
(-0.000554386 -0.00190099 -3.04187e-17)
(-0.000407319 -0.00209263 -2.46265e-18)
(0.000585395 -0.000326916 -7.43153e-20)
(0.000562818 -0.00032378 -2.22975e-18)
(0.000572477 -0.000310956 -2.28724e-18)
(0.000354675 -0.000670886 2.09923e-18)
(0.000367926 -0.000682385 -1.63708e-18)
(0.00035645 -0.000688739 3.10506e-18)
(-0.00659859 -0.00139479 2.97433e-18)
(-0.00685401 -0.00152186 -1.05648e-17)
(-0.0064459 -0.00140438 -8.00669e-17)
(-0.00993599 -0.00451411 -1.01049e-17)
(-0.0130285 -0.00536688 -7.19464e-17)
(-0.0187426 -0.00613806 -6.66159e-17)
(-0.000191191 -0.00092144 6.07742e-18)
(-0.000193778 -0.000943303 -3.3848e-17)
(-0.000221398 -0.000930092 -8.75934e-18)
(0.00025107 -0.000435416 -3.57832e-18)
(0.00023779 -0.000420601 1.32605e-19)
(0.000413974 -0.00230431 1.95348e-18)
(0.000450675 -0.00229285 7.86242e-18)
(0.00041048 -0.00225945 -4.33256e-17)
(-0.00876047 -0.00221607 6.10306e-18)
(-0.00810736 -0.00204838 -9.3995e-18)
(-0.00853526 -0.00219091 3.22873e-18)
(0.00350806 -0.00122711 -1.0586e-17)
(0.00357348 -0.00127297 -6.71218e-18)
(0.00346353 -0.00129245 -2.91299e-17)
(0.000455271 -0.00127348 5.55941e-19)
(0.000439387 -0.00128999 -5.70825e-18)
(0.00120342 -0.00172214 -3.40573e-18)
(0.00124916 -0.00172272 -1.54214e-17)
(0.00121358 -0.0016886 -6.08619e-18)
(-0.0174517 0.0010429 -1.85757e-18)
(-0.0173577 0.000746293 -1.12616e-16)
(-0.0118286 -0.0027869 2.72993e-17)
(-0.0108883 -0.00259141 4.85671e-17)
(0.00103185 -0.00275352 1.64562e-17)
(0.00108104 -0.00272154 -3.95368e-18)
(-0.00188142 -0.000519135 -2.51145e-18)
(-0.0015344 -0.000494231 2.50299e-17)
(-0.00137924 -0.000469672 2.40708e-17)
(-0.000155784 -0.000981789 -6.07798e-18)
(-0.000518192 0.000254102 -4.58132e-17)
(-0.000191577 0.000241684 2.20599e-18)
(-9.7018e-05 -0.00101965 -3.70166e-19)
(-0.000105404 -0.00101244 -1.20731e-17)
(-9.1891e-05 -0.0010032 1.00116e-17)
(0.00357863 -0.00107618 1.27453e-17)
(0.0035309 -0.000996523 4.29402e-18)
(0.00365168 -0.000990391 -9.14871e-18)
(-0.000676564 -0.00357266 -1.28602e-17)
(0.00118708 -0.00415134 -2.81185e-17)
(9.08723e-05 -0.000772867 -1.43145e-18)
(8.72271e-05 -0.000758238 -1.52688e-18)
(9.62535e-05 -0.000758831 -4.46326e-18)
(2.6908e-05 -0.000378679 1.32233e-18)
(3.06609e-05 -0.000389274 -7.8135e-20)
(-0.000357433 -0.0010595 5.72871e-18)
(-0.000371561 -0.00104043 -2.11527e-17)
(-0.00038183 -0.00107477 2.40048e-18)
(-0.0205544 -0.00216124 -3.55642e-18)
(-0.0200645 -0.00203266 -6.89954e-18)
(-0.0201557 -0.00210318 -1.39039e-17)
(0.000305078 -0.000989142 2.18973e-18)
(0.000301691 -0.00100616 -3.38453e-18)
(0.000287397 -0.000989254 1.42318e-18)
(0.000411117 -8.97759e-05 -3.0966e-18)
(0.000397291 -9.36043e-05 -8.01157e-18)
(-0.000210715 0.000279629 2.71146e-18)
(-0.0139628 -0.00205672 1.80428e-17)
(-0.0138629 -0.00212624 -4.10031e-18)
(-0.0136555 -0.00190639 1.00891e-17)
(0.000379416 -0.00232566 -1.94025e-17)
(0.000434441 -0.00235107 2.38443e-17)
(0.00586005 0.00082764 -1.9637e-17)
(0.00508018 0.000680734 1.87681e-17)
(0.0019794 -0.00396643 6.16866e-17)
(0.00202953 -0.00390469 2.72136e-17)
(0.00183268 -0.00283452 -1.14729e-17)
(0.00190356 -0.00282925 3.43509e-17)
(-0.00912796 -0.00454823 -5.39091e-18)
(-0.00864296 -0.00424904 1.34502e-18)
(-0.00124968 -0.00463377 -6.79348e-17)
(2.63868e-05 -0.000626092 2.19534e-18)
(3.18304e-05 -0.000629926 -4.67977e-18)
(2.79887e-05 -0.000641092 -5.32039e-19)
(6.91305e-06 -0.000459531 -4.28892e-18)
(2.84633e-06 -0.000461991 -2.06845e-19)
(3.70981e-06 -0.000448841 -4.18309e-18)
(3.24268e-05 -0.000120558 9.12779e-20)
(3.18893e-05 -0.000123685 -2.67605e-19)
(2.87339e-05 -0.000114609 -9.68489e-19)
(-0.00186436 -0.00033587 4.73575e-17)
(-0.00147625 -0.000311425 4.631e-17)
(0.00339837 -0.00103529 -1.02249e-17)
(0.00344969 -0.00100396 -1.09494e-17)
(0.00338377 -0.000970261 1.40484e-17)
(0.00169187 -7.7218e-05 2.41504e-18)
(0.00172745 -6.53951e-05 -2.04082e-18)
(0.00172584 -0.000103032 1.01231e-17)
(1.8293e-06 -7.33257e-06 1.61172e-20)
(1.9178e-06 -6.41865e-06 1.19393e-18)
(2.85205e-06 -8.74454e-06 -1.663e-19)
(-0.0175336 -0.00255444 8.26137e-18)
(-0.0173298 -0.00258915 1.50446e-17)
(-0.0179734 -0.00271284 -2.91358e-19)
(0.00280283 -0.00192436 -1.7489e-17)
(0.00277986 -0.00191676 -2.24582e-17)
(0.00617799 0.000590345 1.53127e-17)
(0.00644811 0.000562584 -3.98501e-18)
(-0.00868311 -0.00123124 -4.69859e-18)
(-0.00858251 -0.00108903 7.53504e-18)
(-0.0141652 -0.0035019 5.06382e-18)
(-0.0132599 -0.00255261 1.39725e-17)
(-0.0150416 -0.00294616 -1.77324e-18)
(-0.0140715 -0.00303388 2.25007e-19)
(-0.014891 -0.0033309 1.70606e-18)
(0.000493681 -0.000221725 -1.13624e-17)
(6.93532e-05 -0.000278111 2.15188e-18)
(0.000298939 -0.00143146 3.03617e-18)
(0.000325985 -0.00138834 7.00954e-18)
(-0.0150663 -0.00315206 2.87698e-17)
(-0.0152147 -0.00308307 3.83213e-17)
(-0.0134553 -0.00286834 8.80282e-19)
(3.15193e-05 -0.000142524 1.11084e-19)
(2.86474e-05 -0.000136859 -2.14829e-19)
(2.91023e-05 -0.000134123 -1.02577e-18)
(0.000273265 -0.000143074 -2.0357e-18)
(0.000261187 -0.000140429 -6.00844e-18)
(0.00279525 -0.00245216 -1.1015e-17)
(0.0027282 -0.00248298 -1.51654e-17)
(0.00272806 -0.00239948 1.5922e-17)
(1.84416e-05 -6.28046e-06 -2.22128e-18)
(1.66252e-05 -8.0201e-06 -3.47529e-19)
(1.54845e-05 -5.23508e-06 -3.05651e-18)
(-0.00221357 -0.000641573 -4.58997e-17)
(-0.00253279 -0.000656069 -3.68328e-17)
(-0.0259709 -0.00501907 -1.07065e-17)
(-0.0257151 -0.00486011 -5.59774e-18)
(-0.0258348 -0.00491775 1.07196e-17)
(0.00561292 0.000570768 1.00223e-19)
(0.00569601 0.000129688 1.51003e-17)
(0.00753022 0.000519829 1.56352e-17)
(0.000278221 -0.000138807 1.34697e-18)
(0.000284619 -0.000145662 5.78472e-19)
(0.00300328 0.000205202 -3.85891e-18)
(0.0030108 0.000139191 -3.89711e-18)
(0.00294375 0.00017288 -5.98786e-18)
(0.00553928 0.000766694 -1.41932e-17)
(0.00602459 0.00053014 4.76562e-18)
(-0.00930551 -0.00488636 4.3417e-19)
(-2.60079e-05 -0.00466812 5.96447e-17)
(-0.000583441 -0.00253031 -4.39954e-18)
(0.000325295 -0.00143345 3.19926e-18)
(0.00032571 -0.00140114 5.4207e-18)
(0.000347634 -0.00142562 -6.45689e-18)
(0.00355345 -0.00113271 2.29298e-17)
(0.00343025 -0.00116008 1.60308e-17)
(0.00193006 0.000183699 3.72567e-17)
(0.00189882 0.000164219 7.10403e-17)
(-0.0142435 -0.00219474 1.73923e-17)
(-0.0139844 -0.00199665 -1.85603e-18)
(0.00586013 -0.00165233 -5.06954e-18)
(0.00596413 -0.00167324 -2.86034e-17)
(-5.74733e-05 -0.000971164 1.24736e-17)
(-6.15493e-05 -0.000964027 1.34213e-17)
(-6.51707e-05 -0.000976761 1.85772e-17)
(4.42995e-05 -0.000614239 1.45493e-18)
(3.87255e-05 -0.000610061 6.68336e-18)
(4.21373e-05 -0.000599885 5.0374e-18)
(0.000363215 -0.000307341 -4.43385e-19)
(0.000364557 -0.000319465 2.5304e-18)
(0.000378479 -0.000314792 -9.01863e-18)
(-0.020794 -0.00217476 2.04411e-17)
(-0.0208272 -0.00225493 2.21561e-17)
(0.00337213 -0.00110171 -2.76113e-18)
(0.00330465 -0.00104811 5.7687e-18)
(-0.00820629 -0.00106278 6.68087e-18)
(-0.00804929 -0.00100724 -2.37984e-17)
(0.00149595 -0.00117675 8.88971e-18)
(0.00151226 -0.00122478 -1.42539e-17)
(0.000308149 -0.000968422 2.58686e-18)
(0.000323393 -0.000987003 5.61243e-19)
(0.00575007 0.00116864 2.08883e-17)
(0.00583461 0.00129868 -8.68515e-18)
(0.00618712 0.00130196 1.34188e-17)
(0.00588293 -0.00156797 1.88873e-17)
(0.00575967 -0.00160253 -4.51073e-18)
(0.00102778 -0.000261742 -5.02834e-18)
(0.001051 -0.000278678 1.08804e-17)
(0.00102111 -0.000285476 2.20274e-18)
(0.000808715 -0.000613383 -1.05264e-18)
(0.000783897 -0.0006019 -2.35534e-18)
(0.000803452 -0.000592525 -5.87812e-18)
(-0.000182732 -0.000977527 -2.04449e-17)
(-0.000184473 -0.000997509 5.37027e-18)
(-0.00020571 -0.000994997 -1.53267e-17)
(-0.000422734 -0.00328198 -3.70376e-18)
(-0.000157433 -0.00324519 6.08436e-17)
(0.0014573 -0.00358944 -4.74587e-17)
(-0.00282067 -0.000919292 1.24717e-17)
(-0.00306544 -0.000954397 -1.91885e-17)
(-0.00331174 -0.00101874 -2.58305e-18)
(-0.00576613 -0.00178274 -7.59034e-18)
(-0.00549925 -0.00171447 5.83112e-18)
(-0.00629334 -0.00189487 5.85808e-18)
(0.00303239 -0.000839664 6.38213e-18)
(0.00311706 -0.000839981 -3.15692e-17)
(-0.00565451 -0.00233722 8.75327e-18)
(-0.00202027 0.00860625 -3.05915e-18)
(-0.0135969 -0.00623695 -4.67704e-18)
(-0.00241744 -0.000854662 7.51379e-18)
(-0.00264839 -0.000915089 2.74616e-17)
(-2.88911e-05 -0.000798389 3.12749e-18)
(-2.93808e-05 -0.000786336 2.52748e-18)
(-3.44328e-05 -0.000793113 1.43212e-17)
(0.00379999 -0.000519903 -4.21738e-18)
(0.00375782 -0.00060493 6.57507e-18)
(0.00370256 -0.000510943 7.98458e-18)
(-0.0119549 -0.00247178 6.93528e-19)
(-0.0122766 -0.00260011 1.18096e-17)
(-0.0116608 -0.00241724 2.36159e-18)
(0.00125684 -0.0012195 9.27243e-18)
(0.00124596 -0.00125181 2.00229e-17)
(0.00121783 -0.00122034 1.6451e-17)
(0.00599169 0.0017846 -7.14319e-19)
(0.00594426 0.00189319 1.0739e-17)
(0.00543435 0.00176147 -7.33946e-19)
(0.000344318 -0.000664256 4.62192e-19)
(0.000351297 -0.000659003 5.82485e-19)
(-0.00580085 -0.00267479 -2.28501e-17)
(2.43871e-06 -3.28457e-05 -5.11114e-19)
(3.35116e-06 -3.82802e-05 2.21138e-19)
(3.14891e-06 -3.95598e-05 -2.46913e-19)
(0.00122954 -0.0022115 -8.21383e-18)
(0.00130914 -0.00224117 -2.67561e-17)
(0.00123602 -0.00228964 -1.90177e-17)
(0.00040132 -0.0011285 -5.19315e-18)
(0.000419985 -0.00114351 -1.60806e-18)
(0.000403305 -0.00115499 -4.25977e-18)
(3.08243e-05 -0.00052978 1.68406e-19)
(3.54041e-05 -0.000527636 -2.41525e-18)
(0.00477051 -0.00321504 3.51765e-17)
(-0.00214442 -0.00384271 -9.4968e-18)
(-0.0027317 -0.00394726 1.1108e-17)
(0.000944637 -0.000484199 -2.8412e-19)
(0.00092429 -0.000462569 1.24262e-17)
(0.000958965 -0.000460484 8.76416e-18)
(0.00011844 -0.000587734 -2.79577e-18)
(0.000193626 -0.000603884 3.74602e-17)
(0.000272299 -0.000130781 2.45997e-19)
(0.000284389 -0.00013417 -7.27996e-18)
(0.00544467 -0.00258301 -1.92545e-17)
(0.00536151 -0.00269791 1.93183e-17)
(0.00531447 -0.00255021 4.18584e-18)
(-0.00775043 -0.00109115 -4.45707e-18)
(-0.00758658 -0.000961763 -2.39651e-17)
(-0.00177441 -0.000518398 -6.02585e-18)
(-0.00163817 -0.000511172 2.91186e-17)
(-0.00219473 -0.000568718 -3.8234e-18)
(-5.43081e-05 -0.000986273 9.92609e-18)
(-4.89178e-05 -0.000979521 4.85698e-18)
(-5.18538e-05 -0.000994824 -7.56949e-18)
(0.0038338 -0.000465555 -1.98013e-17)
(0.00386149 -0.000536755 -9.93177e-18)
(1.16565e-06 -2.15574e-05 6.37055e-19)
(5.82117e-07 -1.61398e-05 -5.60939e-20)
(6.69569e-07 -1.65453e-05 1.10591e-19)
(-0.000345256 -0.0010716 9.93989e-19)
(-0.000328532 -0.00104581 -1.00674e-17)
(7.60967e-05 -0.000265872 7.81275e-20)
(7.20034e-05 -0.000253803 1.5012e-19)
(7.81926e-05 -0.000261219 -1.81625e-19)
(0.0012265 -0.00218065 1.67031e-17)
(-0.00145348 0.000714739 -6.32402e-17)
(-0.00082317 0.000613744 1.33168e-17)
(-0.00109692 0.000646785 -3.74364e-18)
(-5.49313e-05 -0.000980874 2.10028e-18)
(-5.07631e-05 -0.000966146 -1.37235e-17)
(0.00125084 -0.00117765 -1.08271e-17)
(0.00129459 -0.00119876 -2.3297e-17)
(-5.28132e-06 -0.000176741 -2.82635e-18)
(-5.23312e-06 -0.000187997 -2.14694e-18)
(-0.00532029 -0.00163743 -5.33313e-17)
(-0.0059729 -0.00180449 -7.79972e-18)
(0.000420454 -0.000234778 4.73043e-18)
(0.000411414 -0.000221449 3.6786e-19)
(-0.00450315 0.00156199 -2.68106e-17)
(-0.00290733 0.00386086 -1.00251e-17)
(-0.00532282 -0.00165781 -4.28067e-18)
(-0.00509681 -0.00160128 -2.57554e-17)
(-0.0057797 -0.00175832 1.08612e-17)
(-3.58805e-05 -0.00292997 -1.74221e-17)
(6.64717e-05 -0.00300718 -2.67506e-17)
(1.78148e-06 -8.17586e-06 -4.78578e-19)
(1.0324e-06 -5.89394e-06 9.084e-19)
(-0.00138282 -0.00375972 -2.123e-17)
(-0.00512049 -0.000621456 5.93392e-17)
(-0.00644559 -0.00183693 -1.59304e-17)
(-0.00529848 -0.000877532 1.31424e-17)
(-0.00552056 -0.0009209 -3.75036e-17)
(-0.00559179 -0.00107607 -1.03701e-17)
(-0.0186686 -0.00327545 -1.90764e-17)
(-0.0181298 -0.00313228 4.31381e-18)
(0.00620636 0.00179975 -8.01438e-18)
(0.00237191 -0.00136881 3.98479e-18)
(0.00232087 -0.00140907 -7.39775e-18)
(0.0023215 -0.00133844 -6.2119e-18)
(-0.000415943 -0.0010222 -9.71913e-20)
(-0.00038704 -0.00101659 -1.57551e-17)
(-0.000394374 -0.000994154 1.8538e-18)
(0.00979518 -0.00286501 -1.28296e-17)
(0.00963627 -0.00299871 1.67583e-17)
(0.00305526 0.000238766 -7.79422e-18)
(0.0029881 0.000267057 1.10743e-18)
(-0.000677012 -0.00198217 3.08508e-17)
(-0.000725462 -0.0020192 1.87486e-18)
(0.00033624 -0.00157908 -4.89887e-18)
(0.00031113 -0.00154714 1.02203e-18)
(0.000340663 -0.0015454 3.35893e-18)
(-0.0133302 -0.00139329 -1.12082e-18)
(-0.013216 -0.0013052 1.92461e-17)
(-0.013393 -0.00127266 -1.42426e-17)
(0.00402599 -0.00365314 1.22712e-18)
(0.00410859 -0.00360586 -6.39555e-18)
(0.00408271 -0.00357975 3.93779e-17)
(0.000181039 -1.19826e-05 7.94984e-20)
(0.00018928 -1.62652e-05 -4.59953e-19)
(0.000179023 -2.33531e-05 5.35627e-18)
(0.00190164 -0.0008744 -3.3808e-18)
(0.00186981 -0.000839111 -5.7188e-18)
(0.00184515 -0.000878028 5.50738e-18)
(0.00565059 0.00106199 1.89656e-17)
(-0.0176273 -0.0024791 -9.11317e-18)
(-0.0171797 -0.00242492 -4.72304e-18)
(-0.017174 -0.00152314 -2.25623e-18)
(-0.0171732 -0.00152591 4.4762e-18)
(-0.0172307 -0.00135033 8.80601e-18)
(0.00035026 -0.000300302 -3.14642e-18)
(0.000362294 -0.000297392 4.14956e-19)
(-0.000183375 -0.000905445 -1.16945e-17)
(3.47406e-05 -0.000371455 -1.02575e-18)
(3.73632e-05 -0.000369688 3.03551e-19)
(3.40328e-05 -0.000359572 -1.33567e-18)
(0.0101005 -0.00137693 -9.29831e-18)
(0.0101533 -0.00147533 -1.0439e-17)
(0.00824118 -0.00158322 -1.10867e-17)
(-0.0108147 -0.0059438 1.04716e-17)
(-0.0108873 -0.00515093 -2.73439e-17)
(-0.00184099 -0.00553347 -4.26456e-17)
(0.0019229 -0.000909472 -6.083e-18)
(0.00194651 -0.000872285 8.56007e-18)
(0.00291654 -0.00185225 -4.62054e-18)
(0.00297919 -0.00197187 -3.23304e-17)
(0.00385879 -0.0037863 -3.32244e-17)
(0.0039981 -0.00383353 1.28177e-17)
(0.000133416 -0.000471058 -3.82038e-19)
(0.000142073 -0.000478452 8.73583e-20)
(0.000135184 -0.000461267 2.06954e-19)
(-0.000167363 -0.00104662 4.09224e-18)
(-0.000163531 -0.00103133 -4.46853e-18)
(0.00592604 0.00044657 -1.5954e-17)
(0.00598082 0.000500047 1.35126e-17)
(0.0058638 0.000487381 2.53684e-18)
(-0.0251935 -0.0051439 1.18321e-17)
(-0.025059 -0.00511026 6.57172e-18)
(-0.0249641 -0.00522353 2.1858e-17)
(2.37328e-05 -0.000224198 -1.10973e-18)
(2.23306e-05 -0.000213887 6.665e-19)
(2.08503e-05 -0.000213408 1.67409e-19)
(2.90222e-05 -0.000518003 1.22625e-18)
(2.56664e-05 -0.000530927 5.5532e-18)
(-5.7826e-05 -0.000992134 -2.69669e-18)
(-0.0130898 -0.00300837 4.96743e-18)
(-0.0134338 -0.00308572 -3.23981e-17)
(-0.0139417 -0.00325239 -1.96047e-18)
(0.00119341 0.000260892 1.25357e-17)
(0.00161169 0.000259962 3.99059e-17)
(0.0012126 0.000260895 4.80491e-17)
(0.00332888 -0.0014729 -2.00246e-17)
(0.00324872 -0.00144341 -1.76172e-17)
(0.00327284 -0.00153574 -8.38867e-18)
(0.000604954 -0.000330673 1.06236e-17)
(0.000595333 -0.00034373 -1.27212e-18)
(-0.00909395 -0.00504303 -1.0883e-17)
(-0.0176894 -0.00525166 -5.81204e-17)
(-0.00953294 -0.00478312 3.72395e-17)
(-0.0100374 -0.0049079 -1.08641e-17)
(-0.00154761 -0.00512476 3.96474e-17)
(0.00579274 -0.00129038 2.38871e-17)
(0.00579581 -0.00118803 1.49954e-18)
(0.00566262 -0.001241 4.1607e-18)
(0.00295509 -0.00181454 3.78465e-17)
(0.00290605 -0.00181369 3.42621e-17)
(-0.0127034 -0.00269053 1.93926e-17)
(-0.0123749 -0.00266595 -4.33648e-18)
(-0.00194921 -0.000571707 -3.33502e-17)
(-0.00206142 -0.000569178 -7.32249e-17)
(-0.00141636 -0.000442206 -8.41869e-18)
(0.00181324 -0.00107776 -9.40625e-18)
(0.00178578 -0.00110313 -1.2778e-17)
(0.00183207 -0.0010984 -2.38516e-18)
(0.00287368 -0.000815312 1.26279e-18)
(0.00291915 -0.00083161 -2.29813e-17)
(0.0029036 -0.000776022 4.3385e-18)
(-0.01328 0.0021567 -2.99533e-18)
(-0.0131805 0.00181039 -7.05238e-17)
(-0.0115748 0.00172992 -5.60459e-17)
(0.000396595 -0.000395627 7.92353e-19)
(0.000405554 -0.000410958 4.98772e-18)
(0.000384279 -0.000400373 2.93777e-19)
(3.26287e-05 -0.000116494 8.45339e-19)
(3.26975e-05 -0.000112905 2.20669e-19)
(2.90855e-05 -0.000107877 9.66929e-19)
(0.00578441 -0.00136916 7.34422e-18)
(0.00589595 -0.00131826 -2.65033e-17)
(0.000780958 -0.00249608 4.04475e-17)
(0.000833808 -0.00247551 9.93706e-18)
(0.000783855 -0.00243697 1.24067e-17)
(0.000436582 -0.000235736 -2.09575e-18)
(0.000450515 -0.000238456 -3.53357e-18)
(0.000441048 -0.000227044 -3.20043e-18)
(4.05279e-06 -3.76665e-05 -1.09834e-19)
(3.59438e-06 -3.80349e-05 2.80408e-19)
(2.44448e-06 -3.20116e-05 -1.34594e-19)
(7.96033e-05 -0.000275031 5.00625e-21)
(7.404e-05 -0.000268126 -8.07696e-21)
(6.97505e-05 -1.32156e-05 -1.65153e-18)
(7.49391e-05 -1.37857e-05 -1.36962e-18)
(6.95397e-05 -8.3656e-06 9.83644e-19)
(0.0025144 -0.00115171 -6.27393e-18)
(0.00253988 -0.00120745 -1.22798e-18)
(0.00258942 -0.00115365 1.69503e-17)
(3.62572e-05 -0.000126068 1.12221e-19)
(-0.0121918 -0.00249407 2.11546e-18)
(-0.0127716 -0.00263894 -4.94428e-18)
(0.00313851 -0.00150912 3.70897e-19)
(0.00317205 -0.00143565 2.20336e-17)
(0.000294619 -0.000558673 -4.14357e-19)
(0.000285159 -0.00055791 -3.90321e-18)