/*--------------------------------*- C++ -*----------------------------------*\
| =========                 |                                                 |
| \\      /  F ield         | OpenFOAM: The Open Source CFD Toolbox           |
|  \\    /   O peration     | Version:  v2012                                 |
|   \\  /    A nd           | Website:  www.openfoam.com                      |
|    \\/     M anipulation  |                                                 |
\*---------------------------------------------------------------------------*/
FoamFile
{
    version     2.0;
    format      ascii;
    class       volScalarField;
    location    "850";
    object      k_0;
}
// * * * * * * * * * * * * * * * * * * * * * * * * * * * * * * * * * * * * * //

dimensions      [0 2 -2 0 0 0 0];


internalField   nonuniform List<scalar> 
13851
(
0.000164244
0.0331159
0.000192301
0.000163488
0.00019089
0.000218635
0.000149571
0.000181762
0.000148163
0.000329537
0.000736755
0.0394483
0.0489122
0.0260464
0.000145368
0.000174244
0.00016147
0.000170939
0.0447469
0.000147746
0.000162813
0.00019182
0.000157603
0.0001595
0.000162475
0.000182297
0.000158701
0.00244137
0.000163558
0.000162753
0.000373671
0.000162145
0.000191684
0.00171307
0.000159762
0.00144026
0.0437879
0.0330196
0.00091956
0.00123673
0.000152365
0.00013387
0.00382167
0.00223045
0.0035787
0.0186216
0.00525243
0.014365
0.000159135
0.000175757
0.000188255
0.000834806
0.00704449
0.000147867
0.000162558
0.00013398
0.000147766
0.00993083
0.000162301
0.000150492
0.034885
0.0352846
0.000179177
0.000192807
0.0286001
0.000168667
0.0481336
0.00544008
0.00017078
0.000170794
0.0146506
0.0535623
0.0329269
0.000149087
0.000143117
0.000153158
0.000191246
0.0176168
0.000180642
0.016382
0.000152204
0.00282204
0.00014689
0.0141012
0.000191441
0.0416099
0.000190627
0.0462014
0.000161635
0.000150398
0.00155114
0.000179635
0.0052397
0.000164911
0.000161182
0.000153577
0.000191239
0.0354355
0.000176536
0.000153855
0.0175932
0.000181407
0.000158297
0.000157104
0.000160395
0.000189299
0.000183279
0.000132313
0.0559613
0.000257746
0.000155883
0.000150912
0.00017848
0.000159684
0.000156118
0.0197126
0.0376554
0.0001326
0.000173223
0.000170723
0.00379842
0.000156947
0.0486483
0.0120978
0.0117825
0.000148873
0.00959563
0.000181028
0.000162252
0.00459472
0.000152019
0.000143102
0.0180643
0.000146666
0.0184646
0.00014448
0.000132701
0.0527731
0.0287177
0.0371539
0.0169204
0.000161167
0.000163006
0.000139502
0.00015843
0.00228902
0.000146118
0.00522844
0.000149347
0.00387393
0.000187438
0.000163798
0.026611
0.000147844
0.000156291
0.000158312
0.000151405
0.000159581
0.000818493
0.000188004
0.000134641
0.000163957
0.00952259
0.00014291
0.0001691
0.000136895
0.000147205
0.000171113
0.000161734
0.0250466
0.0149441
0.000140948
0.000151464
0.0364048
0.000142474
0.0156719
0.000180446
0.000162935
0.0461636
0.000132655
0.000163549
0.0543189
0.000146186
0.00019275
0.000132294
0.000153492
0.000168892
0.000153161
0.000192876
0.000265747
0.00493503
0.00800188
0.000152027
0.000171392
0.0368357
0.000155985
0.000162166
0.00284534
0.000162334
0.000153412
0.000149132
0.0242453
0.000193715
0.000147089
0.000191551
0.000146451
0.0387293
0.000161497
0.029604
0.000133268
0.0481326
0.000157792
0.00713285
0.000131989
0.000138411
0.000316339
0.000175228
0.0179875
0.000144674
0.0310341
0.000161897
0.000152403
0.0443694
0.00112708
0.0454362
0.0001589
0.000167417
0.000167222
0.00989449
0.000132042
0.000181733
0.0265285
0.000140612
0.000151464
0.000185529
0.000183195
0.040435
0.0374629
0.000139324
0.000147269
0.000270767
0.000211489
0.000138141
0.000197
0.000149042
0.0409395
0.000182025
0.00600562
0.0001588
0.000164224
0.000174164
0.000252845
0.000153571
0.000158899
0.000180995
0.0182795
0.000256934
0.0536188
0.00527067
0.0001459
0.000138609
0.000169585
0.0240223
0.000144211
0.0475084
0.000155977
0.000153332
0.000164182
0.0460446
0.000161838
0.000173889
0.000156332
0.00555444
0.000179446
0.000173561
0.00014347
0.00264249
0.000157163
0.0486236
0.000821125
0.00013806
0.00013266
0.000159455
0.000180022
0.0239895
0.0156536
0.000150968
0.000145183
0.0065775
0.00201413
0.0149425
0.000161373
0.000150663
0.00017322
0.00223531
0.0474997
0.000167897
0.0413638
0.00014415
0.0421306
0.000163438
0.000161397
0.0485228
0.00015403
0.000194311
0.0419712
0.000150321
0.000177075
0.000165159
0.000160827
0.0302911
0.000168237
0.000153521
0.0415213
0.000134697
0.000164544
0.0001507
0.0506045
0.000199343
0.000144806
0.000181643
0.000144961
0.0130791
0.000177896
0.000154388
0.000155288
0.00019878
0.000166543
0.000155819
0.000145173
0.000153815
0.00015341
0.00122109
0.0269858
0.0284484
0.000174969
0.0505442
0.0454165
0.000144911
0.000172164
0.0170996
0.000182108
0.000183927
0.000194624
0.0458286
0.000170791
0.0170018
0.0421205
0.00014568
0.000160908
0.000161089
0.0454488
0.000155762
0.000148458
0.0103208
0.0001521
0.0144193
0.000155268
0.000144952
0.00014583
0.000132316
0.000149495
0.0442191
0.00169367
0.000149873
0.00017615
0.000135721
0.0391848
0.000180236
0.0140164
0.0269951
0.000150235
0.000162706
0.000165585
0.0140998
0.000151235
0.000132792
0.000177236
0.018384
0.000148065
0.0317646
0.000181813
0.000167924
0.022295
0.000173727
0.000172515
0.000169528
0.000143213
0.000153453
0.000173551
0.00018129
0.028712
0.000170845
0.0475128
0.0422862
0.000135936
0.000146045
0.0265742
0.0191958
0.0259486
0.0392107
0.000178088
0.00016648
0.000155378
0.0463138
0.000144482
0.000173498
0.000168601
0.00014917
0.000164992
0.000149946
0.000136694
0.000192673
0.000187902
0.0180511
0.000171806
0.000182815
0.000181284
0.000232007
0.000165937
0.0469313
0.000160824
0.000271064
0.000132552
0.000149308
0.000156807
0.0424839
0.00624513
0.000681214
0.000180247
0.0141179
0.00139638
0.000187318
0.000174466
0.000185851
0.000150703
0.000283114
0.000158003
0.0505821
0.00137788
0.000190513
0.0270468
0.000163109
0.00015704
0.00226618
0.0229361
0.000131599
0.000168187
0.000181106
0.000162724
0.000142534
0.000153666
0.000186065
0.000152509
0.000176197
0.0375027
0.000156474
0.000155967
0.00728473
0.000170325
0.000132367
0.0433023
0.00014311
0.000164224
0.000144159
0.000182032
0.000158525
0.000132889
0.000162695
0.0427832
0.000147178
0.000172834
0.000143221
0.00017326
0.000173358
0.000162889
0.000153084
0.000160476
0.000159515
0.0173089
0.000153029
0.0001948
0.000145945
0.00015317
0.01963
0.0253533
0.000146889
0.000174157
0.000166054
0.00023131
0.015414
0.000155968
0.00164134
0.000151372
0.000191439
0.000149939
0.0119907
0.000132952
0.00660237
0.000208914
0.000134069
0.000174339
0.0288905
0.000182469
0.00350152
0.000169535
0.0112873
0.000167903
0.000142153
0.000144342
0.000148716
0.0233064
0.000186134
0.000203578
0.0453437
0.000174839
0.000135229
0.04578
0.00516027
0.000163659
0.000164355
0.000188123
0.0120994
0.0499623
0.000157705
0.012649
0.0175679
0.0233179
0.000169384
0.000175008
0.012973
0.000158609
0.0147917
0.00481976
0.0504758
0.000160175
0.0499918
0.0531865
0.000132531
0.000155814
0.000186545
0.0205998
0.000159365
0.000145093
0.000150743
0.000149938
0.000192815
0.000181312
0.0472741
0.0373189
0.000144024
0.00619411
0.0264755
0.000446245
0.00447182
0.000172353
0.000131822
0.000148947
0.0001958
0.0448208
0.000156491
0.000190627
0.00286037
0.0001338
0.000186194
0.0109313
0.0411441
0.00019074
0.024628
0.0535447
0.000151856
0.000149193
0.0357368
0.0411649
0.000142218
0.000170556
0.000237519
0.000132568
0.000145294
0.0504836
0.000133364
0.000159272
0.000132466
0.000141761
0.0532659
0.000192674
0.000177127
0.00013322
0.0335318
0.00264447
0.000144237
0.000145245
0.000144578
0.000152518
0.0170181
0.00637366
0.00689533
0.0238854
0.0115003
0.000168959
0.0166472
0.0267553
0.000171787
0.000171366
0.000131771
0.000150506
0.000175207
0.0448111
0.0208662
0.000190463
0.000167364
0.000146543
0.00017437
0.000162714
0.0029056
0.000188672
0.000145743
0.000175543
0.000142343
0.000163588
0.00120863
0.00015025
0.000150544
0.000180141
0.00015097
0.000191339
0.0403173
0.000267198
0.000175198
0.000143262
0.000145933
0.00791739
0.00017608
0.0228524
0.000157331
0.000154042
0.0557542
0.000162269
0.0205316
0.0408726
0.0159362
0.0420035
0.00014406
0.0547037
0.00013874
0.000142314
0.000132815
0.000142143
0.000142264
0.000172773
0.000180526
0.00013288
0.0462802
0.000219237
0.0453546
0.000150065
0.000133539
0.000146055
0.0150468
0.0384445
0.000180983
0.000164009
0.000139061
0.000153273
0.000154216
0.000152706
0.0383391
0.0342789
0.000150736
0.000132722
0.000148763
0.00015251
0.0480933
0.00863129
0.00017475
0.0331811
0.0111755
0.000149994
0.000213785
0.0216491
0.000172544
0.0399279
0.000152217
0.000169744
0.000180595
0.00017043
0.00605259
0.000146603
0.0126338
0.000160669
0.000166064
0.0300129
0.000154436
0.00016077
0.000203398
0.000142635
0.000162761
0.0164935
0.0342558
0.000188234
0.0469764
0.000201829
0.000132183
0.000149267
0.0198934
0.00092554
0.000185645
0.0420061
0.000147953
0.000172652
0.000132689
0.0115604
0.048703
0.000165281
0.000157421
0.000180118
0.000159356
0.000144794
0.00569227
0.0261863
0.0316261
0.000134465
0.000150561
0.0172655
0.00591306
0.00058675
0.000161852
0.0540818
0.000146779
0.000217719
0.0139592
0.000191588
0.000162647
0.0162672
0.00017134
0.000164318
0.0410121
0.0001536
0.000192939
0.000159043
0.000145509
0.00695199
0.000172027
0.000182361
0.00017671
0.000158618
0.000147011
0.0203568
0.000168873
0.000171149
0.000134654
0.000149266
0.000148931
0.0406297
0.000150202
0.00013325
0.00242826
0.000149538
0.0213112
0.0001625
0.000162656
0.00018675
0.0496853
0.000718423
0.000146842
0.00117889
0.0350508
0.000153293
0.0467253
0.000165768
0.000144632
0.000173264
0.00443032
0.000819316
0.000164896
0.000145481
0.000132461
0.00288807
0.000192988
0.000188668
0.000167162
0.000173193
0.000154221
0.000162267
0.000190283
0.0050714
0.000192975
0.0231614
0.000150267
0.000191632
0.00019045
0.0517433
0.000165184
0.0335261
0.0440866
0.000149545
0.0174296
0.00331234
0.0377963
0.0345082
0.0387384
0.00030556
0.000180071
0.000144981
0.000173126
0.0105612
0.014734
0.000155134
0.000155903
0.000186334
0.00114852
0.000134219
0.00710179
0.000147162
0.000149373
0.0077146
0.0173778
0.000207152
0.000142393
0.000145015
0.00668397
0.0357163
0.000199224
0.000167007
0.0308003
0.0397173
0.0397649
0.000183029
0.000175851
0.000153728
0.000149727
0.033261
0.00017903
0.0182224
0.000179506
0.000170503
0.00750728
0.0364348
0.0235558
0.000147685
0.000167349
0.000144029
0.000175604
0.00016064
0.0365538
0.000174483
0.0341884
0.000134052
0.000186396
0.000147331
0.0295537
0.000169596
0.000167006
0.0335597
0.000176939
0.000183498
0.000159059
0.000186508
0.0152907
0.000363574
0.000159742
0.0149683
0.000143598
0.0340065
0.000983606
0.00015248
0.0469458
0.0184044
0.0230922
0.000263224
0.000178059
0.000154492
0.0301432
0.000176673
0.0203854
0.0298379
0.000149676
0.000154696
0.0407799
0.00432467
0.0313562
0.000150958
0.000144968
0.0373217
0.0296534
0.000167435
0.000164056
0.000164971
0.000892704
0.0112806
0.000191071
0.000133338
0.000180393
0.000142465
0.000180461
0.000162789
0.000155955
0.0497165
0.000252828
0.0001497
0.000163418
0.000154798
0.000159051
0.0164085
0.0283236
0.00016755
0.0338067
0.000146976
0.000167832
0.00015415
0.000142624
0.000152967
0.000149624
0.0223025
0.000147098
0.000180845
0.000147987
0.000164999
0.000163268
0.00574342
0.000170128
0.0359366
0.000189396
0.0460763
0.000172546
0.000172278
0.015629
0.000163441
0.000181961
0.0368067
0.0252436
0.00709141
0.000178274
0.00251055
0.000156741
0.000175817
0.000181765
0.031599
0.00015224
0.0318997
0.000149093
0.000150188
0.0281603
0.000149198
0.0479815
0.000163201
0.000144611
0.00018428
0.00014442
0.000145066
0.000140122
0.000151972
0.035056
0.000149812
0.0353694
0.0104602
0.000188849
0.0316306
0.000149401
0.000169004
0.000151917
0.000150316
0.000143685
0.000189523
0.000151518
0.000151703
0.000157606
0.000159142
0.0217812
0.0356509
0.000249227
0.0380789
0.038271
0.000145411
0.0048429
0.000167065
0.000149323
0.0045927
0.00021777
0.00212112
0.00014375
0.00436051
0.00431989
0.012429
0.000140521
0.0485274
0.000171025
0.000158763
0.000140656
0.00014779
0.0471306
0.00188179
0.0168897
0.000153815
0.000146236
0.00593902
0.000152493
0.0487132
0.000537018
0.0454088
0.0461652
0.001439
0.00015369
0.000150128
0.000179094
0.00017347
0.000157373
0.0226424
0.000179202
0.000151692
0.000164734
0.0377963
0.000152093
0.0216156
0.0490743
0.0198649
0.03017
0.000155763
0.000141638
0.000156697
0.000643892
0.00123134
0.000140549
0.00017457
0.000153551
0.000189607
0.000135561
0.000152956
0.00015269
0.000170706
0.0466215
0.000182607
0.00017496
0.000149689
0.000180148
0.0472541
0.000152788
0.0184001
0.0474322
0.000189567
0.000137943
0.000177631
0.000145198
0.000154201
0.000156227
0.0175715
0.000199367
0.00670373
0.000157421
0.000198385
0.000145529
0.000162911
0.000154555
0.00269762
0.0175842
0.000134399
0.000170391
0.000184431
0.0253467
0.000162463
0.0400408
0.000142313
0.0363826
0.000192538
0.0493814
0.000190575
0.000189659
0.0424016
0.0278759
0.00185019
0.0259607
0.000146874
0.0309383
0.000135325
0.000159829
0.000161668
0.000151689
0.0276385
0.00016917
0.000165049
0.000456204
0.0187737
0.0162727
0.000144866
0.000157821
0.000166115
0.000142611
0.00017455
0.035662
0.0109094
0.0283946
0.000142284
0.000163497
0.000168061
0.0122367
0.0414994
0.000164986
0.000141466
0.000151117
0.0133806
0.000181911
0.0510365
0.0429663
0.000183001
0.000137642
0.0514792
0.000174168
0.000179098
0.000166235
0.0471055
0.00111749
0.000491216
0.00641003
0.000158521
0.000172057
0.000149134
0.00669044
0.000185605
0.0262607
0.000167224
0.000161537
0.000730361
0.000156187
0.0480939
0.0379826
0.000148879
0.0447354
0.0314914
0.0466657
0.0550045
0.000149944
0.000150606
0.0168788
0.0470834
0.0116354
0.000163523
0.000148988
0.000149961
0.0219108
9.78904e-05
0.000151973
0.000323383
0.000195699
0.0430523
0.0509718
0.0145691
0.00014606
0.054063
0.000160089
0.000153016
0.000486227
0.0370335
0.000149728
0.000149451
0.00499455
0.0477676
0.000147922
0.000142319
0.0340897
0.000144986
0.000232288
0.000142212
0.0107385
0.000150853
0.000181201
0.0279361
0.042748
0.000155157
0.00400689
0.000307728
0.0471977
0.0479532
0.0365642
0.000182729
0.000145485
0.0474877
0.000164562
0.000144969
0.000142396
0.00239042
0.000149837
0.0407328
0.000149593
0.000164711
0.0169903
0.000189791
0.0497032
0.000157218
0.000153923
0.000143888
0.000169372
0.0522478
0.0191098
0.000143944
0.000186811
0.0040002
0.000154484
0.00014824
0.0305768
0.000171696
0.000176491
0.000176699
0.0352847
0.0192952
0.0513997
0.0550151
0.000185252
0.000420076
0.00256599
0.0466585
0.000187038
0.000137175
0.00014074
0.000145642
0.000144567
0.0371693
0.0303952
0.000160866
0.030416
0.00419493
0.0207697
0.000321312
0.000202514
0.000149878
0.00666004
0.000172726
0.000150799
0.000155461
0.0438335
0.0339354
0.0408359
0.0497736
0.000180178
0.0369726
0.0451955
0.000168923
0.000151237
0.000150405
0.00270491
0.000145638
0.0368437
0.00015977
0.00015324
0.000161464
0.0474332
0.0515529
0.0161285
0.000157798
0.0520045
0.000164393
0.000171629
0.000142647
0.000147797
0.00964771
0.00016673
0.0269898
0.0343947
0.000262768
0.000199192
0.000145616
0.000180748
0.000153306
0.000154972
0.000162526
0.000156752
0.000157246
0.000162487
0.00180753
0.000153289
0.000175028
0.000150941
0.000175815
0.0354329
0.0170107
0.000151722
0.000180632
0.000169231
0.00032131
0.00014935
0.044061
0.0358439
0.000168108
0.000157798
0.000158045
0.000187826
0.000151095
0.000165974
0.000145094
0.000154273
0.000161819
0.0405779
0.000164309
0.000167432
0.000177319
0.000162029
0.000184112
0.0392928
0.0471241
0.000172836
0.000148891
0.000170837
0.000137071
0.000154676
0.0277906
0.0345596
0.00016051
0.000172796
0.00362393
0.0525639
0.000151896
0.000153214
0.0323688
0.000155852
0.0001735
0.0403047
0.0533727
0.000151193
0.000150335
0.000146419
0.0440628
0.000198004
0.000179545
0.000196746
0.0170162
0.000154039
0.053021
0.0507024
0.000155763
0.0471808
0.000189745
0.000158457
0.00998696
0.00015002
0.000155354
0.000145913
0.0165006
0.000185159
0.0015929
0.000157171
0.000153009
0.000165982
0.00101764
0.0419689
0.0515061
0.00246525
0.000152457
0.000196001
0.00606021
0.00821886
0.00019142
0.00164565
0.000145892
0.000177293
0.000148059
0.0195097
0.000179072
0.000146298
0.0372695
0.0331105
0.000171902
0.000169453
0.000133314
0.000160549
0.000186131
0.000174466
0.00503013
0.000187314
0.000189812
0.000187999
0.000223663
0.0474595
0.000325457
0.0505498
0.000152108
0.000151196
0.0328707
0.0190098
0.00737899
0.000230122
0.000164733
0.0184371
0.0030091
0.000154712
0.000162228
0.000141677
0.000176446
0.000187461
0.00015278
0.00802795
0.039601
0.0001555
0.0384797
0.0148614
0.000145914
0.000483289
0.0275499
0.00763857
0.000158261
0.000187868
0.000131949
0.000168603
0.000150929
0.000163942
0.0487199
0.0304434
0.00801985
0.0244789
0.000154514
0.000176065
0.000186544
0.000150497
0.000154332
0.000147639
0.0458683
0.000145607
0.0507836
0.000178473
0.000180958
0.0176302
0.0317732
0.0189358
0.0526779
0.000176155
0.000136249
0.000153478
0.0517595
0.0484995
0.000160648
0.000141653
0.000144357
0.000188458
0.000170188
0.00045277
0.0474106
0.000154052
0.000146669
0.000198823
0.000170131
0.0161124
0.0267406
0.000142637
0.000188896
0.000155294
0.0473005
0.000138678
0.0384684
0.000146259
0.000153838
0.000175743
0.000152088
0.000248716
0.000167876
0.000180131
0.0114278
0.035272
0.000161654
0.000168941
0.000149496
0.0522329
0.0131099
0.000158121
0.000139788
0.00433607
0.000132315
0.0239466
0.000165866
0.000176871
0.000190496
0.0297394
0.000180193
0.000162232
0.000148825
0.000186583
0.044989
0.000145803
0.0157323
0.028156
0.0281211
0.0437481
0.000175659
0.0224788
0.000159943
0.0413362
0.000145304
0.00125457
0.00162277
0.00906319
0.0124151
0.0445249
0.000149942
0.000185479
0.000149749
0.0128234
0.00521818
0.0417706
0.0108061
0.000166635
0.048867
0.00842592
0.000177045
0.000159594
0.000150261
0.0267088
0.000164188
0.000186267
0.000176349
0.000154896
0.000142313
0.000152157
0.0376569
0.0341186
0.000171606
0.014188
0.048211
0.000148497
0.000146517
0.000148477
0.00017256
0.0369661
0.035215
0.00016466
0.000194083
0.010589
0.00019218
0.000178905
0.00606891
0.000170599
0.0485844
0.00016622
0.000172413
0.000145803
0.000173687
0.000188484
0.00530997
0.000610024
0.0295213
0.000190513
0.0318518
0.000167274
0.000160252
0.000161396
0.00871192
0.0200815
0.0118484
0.000246108
0.000157794
0.000149227
0.000145714
0.000145108
0.000147925
0.00601093
0.000168928
0.00721398
0.000173831
0.040488
0.0512945
0.0420838
0.000179467
0.000161724
0.011568
0.000180279
0.0466722
0.0283479
0.000141999
0.000184664
0.000164875
0.019839
0.00499277
0.000176479
0.000436232
0.00493821
0.00017545
0.00018573
0.000174571
0.0207206
0.00258343
0.000159258
0.00014904
0.000780827
0.0463627
0.0011429
0.0066376
0.000157538
0.000172698
0.000150277
0.0499644
0.0330261
0.000193696
0.000167698
0.0388101
0.0257108
0.000149908
0.000146847
0.000159788
0.043772
0.0421288
0.000145577
0.0207008
0.000152701
0.000151088
0.00015362
0.0223843
0.0429997
0.00017335
0.0070003
0.000160103
0.000156751
0.000146138
0.0070465
0.000158317
0.0305751
0.000165429
0.0348294
0.000151122
0.000145985
0.000616161
0.00565321
0.00430033
0.00017678
0.0471397
0.000137153
0.000150388
0.00014712
0.000180792
0.000186858
0.000186592
0.000179078
0.0499796
0.000159621
0.00256713
0.0200496
0.0487504
0.000157691
0.0255386
0.0312249
0.00015937
0.00878305
0.000185101
0.0161777
0.000151384
0.000189773
0.000155403
0.0466095
0.014531
0.000133474
0.0472337
0.000162256
0.000178815
0.000158449
0.0220677
0.00013744
0.000141654
0.0109079
0.000307933
0.0183411
0.0519117
0.000184341
0.00016757
0.000145564
0.040115
0.000175359
0.000151068
0.000148843
0.000139703
0.000178024
0.000149462
0.0299968
0.000163786
0.00343245
0.000338043
0.000176682
0.0109739
0.000186537
0.0474411
0.000153583
0.0256755
0.0351701
0.000143554
0.00014753
0.000158108
0.000151344
0.000178056
0.000147871
0.000238118
0.000188735
0.000172161
0.00046321
0.000154891
0.0001527
0.000147262
0.0532124
0.000150698
0.000151722
0.0394085
0.000157744
0.0382532
0.0481866
0.000190334
0.000166243
0.000174126
0.000156752
0.000152743
0.000180252
0.00014074
0.000158192
0.00803244
0.0409439
0.0455621
0.000156728
0.00891011
0.0160985
0.00015128
0.000162916
0.0466509
0.000145554
0.000157346
0.000144507
0.054349
0.0176101
0.00823411
0.000140542
0.000159704
0.000165844
0.000149355
0.000558194
0.000154092
0.000180819
0.0064577
0.050361
0.000143065
0.00015819
0.000156525
0.0213218
0.000133218
0.0158732
0.00900021
0.000192229
0.0248036
0.0283413
0.0503807
0.000163433
0.00970731
0.000335476
0.000153687
0.000144865
0.000144407
0.0472143
0.00730745
0.0109772
0.000156221
0.0484681
0.000151487
0.0194332
0.000147632
0.000159181
0.000153725
0.000142604
0.0193169
0.000153643
0.0317221
0.0257914
0.015136
0.000182696
0.000180456
0.0169433
0.0446619
0.000156927
0.00381821
0.00014713
0.00013284
0.000145948
0.000156891
0.0001501
0.0116258
0.000175106
0.000174184
0.000179831
0.00867895
0.0132735
0.00110065
0.000141922
0.000186853
0.000191685
0.0187698
0.000157975
0.000133087
0.000167059
0.0356244
0.000157637
0.000186429
0.010625
0.00017701
0.000187844
0.00015797
0.000209528
0.0001517
0.0382229
0.000139442
0.00546058
0.000167661
0.000149687
0.0111757
0.0134264
0.000139874
0.000184678
0.000161928
0.00962024
0.000172349
0.0280317
0.000173188
0.000152227
0.000187002
0.0340788
0.000151971
0.000156476
0.000165579
0.000188708
0.000169648
0.00965435
0.0258892
0.000150244
0.0255086
0.0001548
0.000179496
0.0425256
0.0102108
0.000178301
0.0279337
0.0399139
0.000149044
0.000200277
0.00020284
0.000167973
0.000153642
0.0410437
0.000140694
0.0146053
0.000170152
0.00138537
0.000144664
0.000174278
0.0260764
0.000179771
0.0398031
0.000153042
0.000159201
0.00340462
0.042501
0.000161221
0.0442201
0.0112765
0.0122389
0.000154234
0.0436642
0.0471593
0.0209051
0.00014564
0.000152608
0.00015488
0.0452423
0.000170688
0.000223861
0.000189129
0.000152756
0.000144133
0.000145528
0.0205201
0.0538953
0.0182849
0.0140241
0.000145137
0.0314884
0.0474266
0.000140613
0.00782487
0.0277649
0.000177655
0.0142593
0.000156952
0.000160696
0.0543153
0.047278
0.000148007
0.028444
0.000156858
0.000147474
0.0419256
0.0257403
0.0537232
0.0133837
0.000172165
0.000152476
0.000171291
0.0504194
0.0124864
0.000145343
0.000177811
0.00879065
0.000147229
0.000151433
0.0478216
0.0267448
0.000158607
0.000145759
0.000153405
0.000158968
0.0013865
0.000151349
0.000155904
0.000164752
0.0344264
0.0288528
0.000935889
0.0371605
0.000150502
0.000163587
0.0318729
0.0465969
0.000169932
0.0112264
0.000144584
0.000174102
0.000162209
0.000148785
0.000189689
0.000155222
0.0233021
0.000175194
0.000152379
0.00016284
0.0470962
0.0368292
0.0232234
0.000147513
0.000190387
0.0479476
0.0113907
0.0001587
0.000157334
0.000146054
0.000753769
0.000151671
0.000157856
0.000166675
0.000147316
0.0318948
0.000239984
0.000152505
0.000160739
0.000139496
0.000153783
0.0369551
0.000383943
0.000188062
0.00879327
0.000225487
0.000152708
0.000144416
0.000149922
0.000154387
0.000151993
0.000183965
0.000194678
0.0413466
0.00016378
0.000177716
0.0234527
0.000171153
0.000151048
0.000141715
0.000156927
0.0451796
0.000153776
0.0469725
0.042458
0.000180478
0.000158914
0.0149325
0.000139252
0.000182782
0.000140609
0.000139574
0.000157848
0.000152952
0.000178766
0.0482193
0.00751824
0.000177819
0.0519078
0.0060759
0.0191379
0.000169202
0.0257965
0.0085447
0.00017896
0.0470912
0.0481001
0.000196684
0.000196309
0.000151591
0.000149959
0.0360417
0.00014894
0.000160765
0.0377251
0.000171035
0.0399408
0.0363767
0.000149224
0.000155071
0.000151094
0.000178739
0.000147306
0.000165108
0.0195471
0.0446299
0.0256775
0.000151567
0.000142156
0.000187939
0.0315946
0.0317618
0.00252781
0.0470378
0.000144851
0.0498892
0.0259843
0.000322867
0.000162301
0.000151895
0.000136842
0.000161585
0.000154418
0.000153984
0.000160221
0.0306296
0.000189731
0.0266491
0.000206686
0.0464616
0.0014228
0.000145107
0.000145213
0.00016095
0.000141792
0.0001514
0.000495427
0.0479337
0.0103791
0.0474877
0.000156492
0.0146517
0.0140266
0.045101
0.0294291
0.000153414
0.000152728
0.000177573
0.000152045
0.000140378
0.00770735
0.0318315
0.0510271
0.000149005
0.000150938
0.000166359
0.000177973
0.0478869
0.000147413
0.000165401
0.0434802
0.000143401
0.00243916
0.000177773
0.0377747
0.000152223
0.0392043
0.0323859
0.000177441
0.0502051
0.000197088
0.026839
0.000139216
0.000163865
0.000148944
0.000170281
0.0248217
0.000158938
0.00867154
0.000160132
0.000154192
0.000145638
0.0454698
0.000178486
0.000178762
0.0111307
0.000144428
0.000183137
0.0106211
0.000186698
0.000150178
0.000164302
0.000152573
0.000184292
0.000156773
0.000153506
0.045549
0.0513362
0.0441934
0.043851
0.0444781
0.0136064
0.000186414
0.0487422
0.00361253
0.000138319
0.000151142
0.00013247
0.000154323
0.050605
0.0495935
0.000144535
0.00768196
0.0420931
0.000165612
0.000163487
0.000182401
0.0414004
0.0475384
0.0305007
0.0496926
0.0316392
0.000132385
0.0405814
0.000191009
0.000195033
0.054753
0.000146017
0.000152578
0.0117988
0.000174707
0.0309896
0.000155828
0.000165964
0.012672
0.0347877
0.000187691
0.000171659
0.017353
0.000197297
0.0343126
0.0410146
0.0319227
0.000194792
0.0456135
0.000151211
0.000168405
0.000179791
0.0219247
0.000408292
0.0263637
0.000159331
0.00158477
0.000193256
0.000159084
0.0484244
0.000145704
0.00015427
0.0214153
0.000145354
0.0423496
0.0458258
0.0385595
0.0434922
0.0455383
0.000272138
0.000153819
0.0507945
0.000159679
0.000152271
0.000177636
0.000159247
0.0308482
0.00015925
0.000189028
0.000160254
0.000152848
0.0477836
0.000158138
0.000194826
0.000190028
0.000142147
0.0253331
0.00019181
0.000164148
0.010082
0.0397135
0.000144623
0.0331802
0.000153859
0.0421652
0.000235036
0.000144692
0.000198736
0.000158201
0.0511017
0.0313182
0.000188507
0.0156119
0.000170036
0.000146194
0.0391195
0.000158203
0.000155157
0.0505684
0.00017449
0.000143859
0.000152154
0.00668328
0.000158067
0.0216798
0.0407012
0.000170332
0.0156929
0.00018079
0.000188532
0.000154381
0.0512315
0.0165375
0.0203579
0.000145786
0.000143803
0.000189493
0.000171712
0.00196011
0.000155353
0.00856254
0.000156185
0.0346505
0.000158727
0.000170766
0.0316576
0.000197953
0.0257868
0.0315744
0.0460553
0.0302175
0.000132908
0.0461169
0.0482521
0.0203011
0.000148365
0.0346538
0.0166522
0.0134913
0.000199292
0.0450356
0.0230335
0.0514521
0.00017721
0.0390787
0.000142414
0.000179864
0.000175894
0.000145387
0.000186561
0.0173723
0.000188764
0.0144759
0.0485639
0.000145029
0.000148759
0.000176899
0.000145602
0.0257942
0.000148086
0.000149995
0.0514876
0.0308629
0.000176471
0.000192713
0.000161732
0.000205485
0.00845993
0.0311109
0.00922458
0.000160465
0.0312612
0.000163238
0.000142456
0.000156123
0.0263953
0.0328591
0.0403679
0.0337294
0.000154435
0.00015156
0.000145795
0.000151579
0.000162997
0.0183953
0.0492
0.000168182
0.0487342
0.0214345
0.000280928
0.0207697
0.00014788
0.000168544
0.00104043
0.000146639
0.000150869
0.000164687
0.000159234
0.0349127
0.0310002
0.000148218
0.000174145
0.000169244
0.00019041
0.0221187
0.0431441
0.0504605
0.000158018
0.000189206
0.0475272
0.000189308
0.000197873
0.000216984
0.0417673
0.0540137
0.0476933
0.000146837
0.0461491
0.000144785
0.000162959
0.000147894
0.000187748
0.0531321
0.0147262
0.0085279
0.0121154
0.000186367
0.000139052
0.000141713
0.000151203
0.000175874
0.000178675
0.0506265
0.0443965
0.000188232
0.00171162
0.000154634
0.000186462
0.000142798
0.0372376
0.000165237
0.000157441
0.0184939
0.000193507
0.0483302
0.0246751
0.00785152
0.00473873
0.000162571
0.0214547
0.0367019
0.053626
0.00514454
0.000162936
0.000186483
0.000150339
0.0456741
0.00795598
0.000178613
0.0294491
0.0365283
0.0284162
0.000189838
0.0319879
0.000182859
0.000141998
0.000198622
0.000187901
0.000159765
0.000186515
0.000170566
0.000173149
0.010984
0.00153027
0.00016016
0.000171202
0.000174636
0.000174277
0.000164467
0.0425869
0.000245437
0.00017934
0.00960054
0.000148671
0.0293276
0.000145853
0.000165732
0.000160264
0.0296705
0.0001792
0.0344697
0.0235248
0.000187903
0.00018634
0.000198017
0.0356905
0.000145004
0.0177894
0.00019519
0.000177515
0.000153344
0.0305967
0.000821664
0.000196498
0.000152776
0.000178978
0.000162289
0.00016184
0.000179217
0.000174433
0.00015157
0.000176546
0.0270807
0.0205578
0.01963
0.000177311
0.000135003
0.0349892
0.000169955
0.000184816
0.00765012
0.000176116
0.0434681
0.000141213
0.000179643
0.000166063
0.000176098
0.000148442
0.0287601
0.000174858
0.0469778
0.000179431
0.0489624
0.0313342
0.000161659
0.0346212
0.000185347
0.0304108
0.0104542
0.000184151
0.00015974
0.000174803
0.000189942
0.000166947
0.0437069
0.0242861
0.0023258
0.000142198
0.0320423
0.0442875
0.0495707
0.000145381
0.000179153
0.000155626
0.000171453
0.047112
0.000169572
0.000168409
0.000144237
0.000142401
0.0510012
0.0265307
0.000154447
0.0515555
0.0297358
0.000139551
0.000165055
0.0303787
0.000377304
0.000195145
0.000147119
0.000165373
0.00375636
0.00015338
0.000151407
0.0421703
0.000168392
0.0290289
0.000189724
0.000163003
0.0538634
0.00361422
0.0178506
0.00014413
0.00149756
0.000166599
0.000164119
0.036433
0.000176742
0.000154174
0.00019846
0.000160376
0.000168656
0.000141282
0.0462316
0.000148677
0.000182831
0.0470029
0.000192695
0.000153095
0.0439287
0.000168272
0.023473
0.0347298
0.0253726
0.000821701
0.0335536
0.000142159
0.000189828
0.00016118
0.00014468
0.0023668
0.051746
0.000159755
0.00275457
0.000164424
0.000189164
0.0251226
0.000162249
0.000220435
0.0250483
0.0292568
0.0374918
0.0381478
0.000151868
0.000149022
0.000177298
0.00017811
0.0115845
0.0430171
0.0373517
0.0445011
0.0442821
0.00014219
0.0445068
0.000145522
0.000153957
0.000151519
0.000545471
0.0286502
0.000198442
0.000149618
0.0115953
0.000165517
0.0229563
0.000152183
0.000188579
0.000167608
0.00018578
0.000180473
0.000194973
0.000156186
0.0314347
0.0200534
0.000144717
0.0161582
0.0346476
0.000191177
0.000162017
0.000169494
0.000149423
0.000152451
0.00018458
0.000165619
0.00939052
0.0282926
0.000190503
0.00628927
0.000152437
0.044019
0.000185086
0.0471272
0.000172224
0.000173111
0.0011361
0.000173923
0.00019232
0.000668277
0.0203147
0.00016159
0.00015498
0.0449742
0.000169524