/*--------------------------------*- C++ -*----------------------------------*\
| =========                 |                                                 |
| \\      /  F ield         | OpenFOAM: The Open Source CFD Toolbox           |
|  \\    /   O peration     | Version:  v2012                                 |
|   \\  /    A nd           | Website:  www.openfoam.com                      |
|    \\/     M anipulation  |                                                 |
\*---------------------------------------------------------------------------*/
FoamFile
{
    version     2.0;
    format      ascii;
    class       volScalarField;
    location    "850";
    object      p;
}
// * * * * * * * * * * * * * * * * * * * * * * * * * * * * * * * * * * * * * //

dimensions      [0 2 -2 0 0 0 0];


internalField   nonuniform List<scalar> 
13851
(
-0.00152885
-0.000907475
-0.0355094
-0.00131625
-0.049883
0.00851349
-0.0114465
-0.033415
0.000672054
-0.0228858
-0.000398391
-0.0194251
-0.0674554
-0.0608091
-0.00593176
-0.0200682
-0.0230446
-0.00461658
-0.0630112
0.000619588
-0.00150627
-0.0370846
0.00059692
0.000354557
0.00042925
-0.0324003
-0.0279336
-0.0842198
-0.00193236
-0.00972379
0.00963771
-0.0234545
-0.0344266
0.00195281
0.000284239
-0.0719507
-0.0758519
-0.0436785
-0.0222182
0.00256553
-0.00373169
0.000125397
-0.0887636
0.000451049
-0.000272479
-0.0776067
-0.000198876
-0.00905136
-0.0287118
0.0019777
-0.0570339
-0.0638179
-0.0820564
-0.00623911
-0.0040305
0.000116951
0.000633118
-0.0834014
-0.00949188
-0.012857
-0.0440764
-0.0596108
0.00119204
-0.0535003
-0.00516654
-0.000457244
-0.0734179
-0.000115343
-0.0412312
-0.00425164
-0.0733062
-0.0756149
-0.00329643
-0.00614857
-0.00340234
0.000928106
-0.0374922
-0.0759177
-0.0429625
-0.0735144
-0.0154581
-0.00127632
-0.00803881
-0.0810653
0.00175995
-0.018041
0.00622816
-0.00938232
-0.0276374
0.000711252
-0.0728409
0.00158151
-0.000432747
-0.0316533
-0.0277619
0.000640533
-0.0511389
-0.0726274
0.00187559
0.000705632
-0.0752489
-0.0480556
-0.0047052
-0.029904
0.000124971
0.00635174
-0.0511284
8.92656e-05
-0.0764667
0.00754851
0.000529743
0.000733189
0.00154895
0.000326962
0.000499844
-0.00113115
-0.0727057
0.00012559
-0.00108881
-0.00344946
-0.088575
-0.0293749
-0.0676826
0.000576124
-0.00977129
0.000158693
-0.00974294
-0.0452532
-0.00130426
-0.0521549
-0.00380364
-0.000356131
-0.0736802
-0.00797473
-0.00272755
-0.000627381
0.000130876
-0.0741805
-0.0523602
-0.0371558
-0.0767498
-0.00364806
0.00159794
0.000183717
-0.016997
0.000184243
-1.2117e-05
-0.0515499
-0.0110494
0.000578279
-0.0637906
-0.00333748
-0.058353
0.000618428
-0.0209864
-0.0163966
-0.000560826
-0.0108477
-0.0644421
-0.056134
1.209e-05
-0.0355354
-0.0834754
-0.000278655
-0.0113495
0.000160206
9.20457e-07
-0.0421497
-0.00146751
-0.0726468
-0.0756978
0.000647678
-0.000644593
-0.0405046
-0.000296469
-0.00854764
-0.0442801
0.00172092
-0.0669186
7.89008e-05
-0.0238337
-0.0737278
-0.00779198
-0.038129
3.53801e-05
0.000599992
-0.000685874
-0.00340764
-0.0498623
-0.0157132
3.41238e-05
-0.0824997
0.000717212
-0.0390288
-0.0579336
-0.020036
0.0015295
0.00405782
0.00161482
0.000928041
0.000177371
-0.0721759
-0.00195889
-0.00637984
-0.0183718
-0.00802247
-0.038454
-0.0246439
-0.0746813
3.56477e-05
-0.0753093
-0.00481663
0.00458276
5.35342e-05
0.0001534
-0.000507615
0.00142556
-0.0787928
-0.00645972
-0.0746779
-0.0248888
-0.0160351
-0.0749305
-0.0603375
-0.0745043
0.000473422
-0.0333593
0.000121872
-0.0839053
4.93624e-05
-0.0312039
0.00757703
0.000635157
0.000708548
-0.0562156
-0.00338612
-0.0388395
-0.00844473
0.000169526
-0.00657892
0.00999104
0.00113014
2.67996e-05
-0.0182331
8.39276e-05
-0.0751305
-0.0479499
0.00505534
-0.0158226
-0.0189956
0.00256192
0.00109245
-0.0133339
-0.016331
-0.0529273
-0.00929798
-0.0152028
-0.0757208
-0.0832454
-0.00708422
0.000159549
-0.00420771
0.0167823
0.000238854
-0.0618714
-0.0196454
-0.013267
-0.0311667
-0.0752548
0.000549471
0.00265179
-0.0207685
0.0171546
-0.0423146
-0.0193505
-0.000333871
-0.000911166
-0.000153985
-0.0754915
-5.15362e-05
1.54061e-05
2.16742e-05
0.000229449
-0.0523367
0.017246
-0.00402943
0.000757134
-0.00537128
0.0184567
-0.00270368
-0.0524265
-0.00990797
-0.0131622
-0.0418459
-0.00323046
-0.062711
-0.0130768
-0.0130637
-0.000354373
-0.0746917
-0.0349393
-0.0222676
-0.0757491
-0.00686337
0.00693193
-0.0766095
0.000693164
-0.0485265
-0.031143
-0.00964722
-0.0522524
-0.0129961
-0.0121965
-0.0756517
0.000140173
-0.0195744
0.000219831
-0.0769431
-0.0682955
-0.00657877
-0.050359
-0.0062791
-0.081965
0.00249275
0.000527145
6.26903e-05
-0.0677339
-0.0329006
-0.0214523
-0.00515776
-0.00695949
-0.0118642
0.000770226
-0.068396
-0.0687599
-0.00205004
-0.0747611
-0.0490106
-0.00600475
-0.0389685
-0.052043
0.00180063
-0.000375439
-0.0631842
-0.0593847
0.00180675
0.00780634
-0.0756881
-0.0057802
0.000278279
0.000281698
-0.0313588
-0.0216246
0.000429665
-0.0838828
-0.000607963
0.00801272
0.000143335
-0.00613924
0.000110576
7.22011e-05
-0.000760297
-0.075628
0.00113238
-0.00748778
-0.0478989
0.000147908
-0.0103964
-0.0172037
0.00181048
-0.0709633
-0.007421
0.0023376
-0.0298958
0.000766771
-0.00341052
0.000145835
0.00178769
-0.0775608
-0.00334695
-0.0509863
0.00141287
-0.0640922
-0.0736463
0.000213199
0.000253804
0.00215804
-0.000744537
-0.00560323
-0.00234852
-0.0508698
-0.0590217
-0.0432223
-0.0760196
-0.0751319
0.000169426
-0.00726969
-0.0706024
-0.0734127
0.00558216
-0.0725843
0.00186291
-0.0305679
0.000619496
-0.0493891
0.000681225
-0.0209113
0.0020636
-0.0107972
0.000158693
0.000687035
0.000148563
-0.0539258
-0.00325187
-0.0812324
-0.00353232
-0.0513736
0.00248443
0.000915134
-0.0185163
-0.0322958
-0.0216836
-0.000176254
0.000129922
0.000659605
0.000474515
-0.0451993
-0.000588144
-0.0582823
0.00216059
-0.0816624
0.00277638
0.00620438
-0.00324725
-0.0569924
-0.00342557
0.000929913
0.000256911
-0.0274697
-0.00122608
-0.0321049
-0.0744465
0.00165575
-0.000224246
-0.00204255
-0.0765438
5.11954e-05
-0.0318378
-0.043923
0.000531208
0.000641694
-0.0115323
-0.0629728
-0.0632359
-0.00244629
-0.00821451
0.000490228
0.000114524
-0.0876188
-0.0109165
2.61089e-05
-0.00701832
-0.000701701
-0.00123779
0.000567738
-0.00989504
-0.00991367
3.0673e-05
0.00160533
-0.0737838
-0.00818079
-0.0441546
-0.000652703
0.00299789
-0.000417098
0.000264475
-0.00232461
0.000256322
0.000165084
-0.00548407
-0.0135804
0.00720953
-0.00770641
0.000675076
-0.0707868
-0.0742819
-0.00837182
0.00316388
-0.0193093
0.00175146
-0.0808013
8.06757e-05
0.0015697
-0.00362527
-0.046429
-0.0117448
-0.0840694
0.00011435
-0.0821094
-0.0141851
0.000131669
0.00299032
-0.0733473
-0.0306713
0.000477723
-0.001193
0.00225276
-0.00404926
-1.93562e-05
-0.000199397
-0.0103312
-0.0742544
-0.0541095
-0.0661112
-0.0692795
0.000745213
2.16024e-05
-0.0633492
-0.000726842
-0.0246435
-0.0352314
0.00166915
0.000779894
-0.0741475
-0.00583985
-0.0836503
-0.0787386
-0.0737191
-0.012094
0.0031086
0.0013248
-0.000202916
-0.00547377
0.00551639
-0.0290226
-0.0105416
-0.0325364
-0.0729533
0.000119066
-0.000205331
-0.0551743
-0.0734812
-0.0156242
-0.00642402
-0.000584949
-0.00513055
-0.0503421
-0.00581706
-0.0094446
-0.00842538
8.50809e-06
-0.0879981
-0.0760649
0.00792136
-0.00218065
-0.0431498
2.11165e-05
0.000689221
-0.000198459
-0.0654999
-0.0216334
-0.0650215
-0.0713232
0.000114036
0.00334123
-0.003382
-0.0310499
-0.0613166
-0.0743641
-0.0747796
-0.00361737
-0.0108838
-0.00173522
-0.0758036
-0.0679106
-0.0436595
0.00154944
7.15833e-05
-0.00445201
-0.0287668
0.000113905
-0.0150304
7.15115e-05
-0.00120487
-0.0713139
-0.0521304
0.00185224
0.000113113
-0.0508062
0.00487207
-0.000496115
0.000590884
0.000272513
-0.00577221
-0.0782187
0.00507823
0.00547724
-0.073811
0.0043978
-0.0422098
-0.0732031
-0.0737105
0.00176429
-0.0411466
1.37557e-05
0.000188264
-0.02318
-0.0722254
0.0114001
-0.0644058
-0.0278199
0.000586294
-0.0180267
0.00152023
0.000480906
-0.0548375
-0.00751345
-0.00214244
0.000600406
-0.0319009
-0.0577924
-0.0123626
-0.00322745
-0.018034
-0.0118915
-0.0495163
-0.0451063
-0.0590919
-0.0165912
-0.0684334
0.000561525
0.0091162
0.00231173
-0.07487
-0.00508991
0.000610785
-0.0773988
-0.00654483
-0.0753596
-0.0753021
-0.0812141
-0.00624778
0.000665142
-0.0778421
9.15319e-06
-0.00105008
0.000106417
-0.00123677
1.6918e-05
-0.00298819
-0.00974461
0.000110735
-0.0426771
-0.0145534
-0.0456947
-0.000328226
9.01361e-05
0.0003639
-0.0526438
-0.0548416
-0.0555823
-0.0320747
1.59143e-05
0.000624623
-3.28938e-05
-0.000325716
-0.0727428
-0.0256462
-0.011589
9.86879e-05
-0.010308
-0.000409557
-0.0247979
-0.0828409
-0.0187758
-0.0710039
0.00115074
-0.00323968
-0.0658638
-0.0738936
-0.0420449
-0.0169277
-0.0152291
-0.00448818
-0.0547677
-0.00377015
0.00466254
-0.00813887
-0.000465412
1.89963e-05
-0.0439548
-0.0746241
0.00108076
-0.00581518
0.000666164
-6.01871e-06
-0.0232859
0.00960969
-0.0455811
-0.0537003
-0.0610382
0.000111999
6.88382e-05
-0.000371148
-0.0710583
-0.0682721
-0.0029629
-0.0749058
0.000852563
-0.00466981
0.000119979
0.00480776
-0.0746903
-0.0128193
-0.00271607
-0.000310647
-0.0269667
0.000345626
-0.0875833
-0.00713367
-0.0781012
0.000128999
-0.0115097
-0.0739642
-0.0829004
-0.0718199
0.00147712
-0.0750895
-0.00810249
-0.000421029
-0.0367472
-0.032147
-0.0189109
-0.080786
0.00244268
0.00156137
-0.0734654
0.000617698
-0.00185244
-0.0101167
0.000581337
-0.0880174
-0.0248693
-0.0622112
0.00151142
-0.000258579
0.000575537
0.00941863
-0.000326031
0.00246963
0.000116106
-0.00306698
-0.00233306
-0.0750789
-0.000718928
0.000165478
-0.00501335
-0.0113442
-0.0744246
0.000239186
0.00153182
-0.0589472
-0.0235427
0.00210395
0.000155718
0.0116996
-0.0697021
-0.0136362
-0.0761287
-0.043167
0.000587029
0.00194801
-0.0888936
0.0083859
-0.0174316
-1.34435e-07
9.97415e-05
-0.00166255
-0.0309226
-0.0108661
-0.0125295
0.0019352
-0.00592191
0.00150562
-0.0661794
0.00167268
-0.0485393
0.0109844
-0.0111856
-0.0477302
-0.0599007
-0.0760073
-0.0121564
-0.0370296
-0.0676188
-0.0114721
-0.0766003
0.00364637
-0.0607995
-0.0460276
-0.0754408
0.000648856
-0.0236743
0.000560897
-0.00225862
-0.0833298
-0.0795895
0.000337063
0.000646214
-0.0562309
-0.00133839
0.000161701
-0.0822524
0.000823036
-0.00809343
-0.0871343
-0.0743882
0.000141373
-0.00102109
-0.00590434
-0.0829119
-0.0735234
-0.0671885
0.00152562
-0.0681128
-0.0312934
-0.0542723
-0.0500149
-0.0469385
-0.0118316
-0.0115066
-0.00148647
-0.0561517
-0.0738813
0.00229942
-0.0421749
-0.0860866
-0.0627557
-0.0758105
-0.00913275
-0.0414779
-0.000454267
-0.0174259
-0.00551242
-0.0207192
-0.0064175
-0.07479
0.00016542
-0.0582395
-0.00404555
-0.0395649
-0.0431735
-0.0405751
-0.0708751
-0.0499858
-0.00910674
0.000276302
-0.0579878
-0.00708969
0.00301277
-0.0142106
-0.0743485
0.000236974
-0.0446612
0.000580391
-0.0101375
-0.0779614
-0.0758799
-0.0748433
0.000439115
0.002391
-6.27552e-05
-0.0782602
-0.00645355
0.00310867
-0.0743181
-0.000499172
-0.0233711
-0.0439481
0.00361566
-0.0353921
-0.0106583
0.000614169
0.000115461
-0.0740528
-0.0613138
-0.0170375
0.00133918
0.000792969
-0.0849122
-0.0600513
0.000169971
-0.0244172
-0.000124503
-0.00186533
0.00014351
0.000608311
-0.031257
0.000979658
-0.0080683
0.00161125
1.80627e-05
-0.0106198
-0.0729338
-0.0731301
-0.0322256
-0.0374407
-0.0041711
-0.030879
1.29449e-05
-0.000170662
-0.00762969
-0.00780288
-0.0732399
-0.00850227
-0.0545462
-0.00927775
-0.0181887
0.000123966
-0.0839497
-0.00112311
-0.00259159
-0.0111178
-0.0705902
-0.0256278
-0.0297965
-0.073032
-0.0319993
-0.00423618
-0.0201898
0.00588212
-0.0836679
-0.0342784
-3.0011e-05
-0.00509941
-0.0489213
-0.0490399
-0.0363062
0.000155051
-0.0396602
-0.000312951
-0.000386505
-0.0570404
0.0002004
-0.065661
-0.0193582
-0.000244611
0.00282539
-0.000399303
-0.00588464
1.25023e-05
-0.0146982
-0.0727413
-0.000571369
-0.067891
-0.085916
-0.0178791
-0.045919
-0.0110854
-0.000286278
0.000187312
-0.00500942
-0.000390846
-0.0603241
-0.0164652
0.000695553
-0.00290488
0.000401506
-0.0762015
-0.0247521
0.00272232
-0.0730422
-0.0714571
-0.00439619
0.00760494
-0.0283632
-0.000687247
-4.82588e-05
0.00517853
-0.00315143
-0.00355892
0.000184496
0.0033555
-0.0829893
0.000561465
-0.0674987
-0.0245035
-0.0262085
8.65673e-06
0.00083313
-0.0284988
0.00714959
-0.00445218
0.00103924
-0.00747332
-0.00807253
-0.0104402
-0.0265815
0.000546788
0.00126258
-0.0662023
0.00105806
0.000587086
-0.00640417
0.00195092
0.00309389
-0.0294529
-0.0379106
-0.0350159
-0.0170427
0.00133128
-0.0244286
0.000750665
-0.080777
-0.0729775
0.0060884
-0.0672073
-0.00473784
0.000266673
-0.00258407
0.000514889
-0.000193173
0.000586433
-0.000336346
0.0010358
-0.058031
0.000192764
0.000997355
-0.0163947
-0.0372206
-0.0732513
-0.00496027
-0.00284635
-0.00250439
-0.0570457
-0.0587832
-0.0202073
-0.076021
-0.0434952
-0.0614259
0.000217601
-0.0493813
-0.00643956
0.000360452
-0.00264757
-0.0764195
-0.0679116
0.000487597
-0.0298791
-0.000480551
-0.00698843
0.000240768
-0.00576043
0.00591575
0.00103848
1.95133e-05
-0.0363789
-0.00207398
-0.0737254
0.000169585
-0.00241942
2.77342e-05
-0.0432027
-0.0263918
-0.0755982
-0.0663705
-0.0603358
-0.0419724
-0.0759754
0.0015455
-0.0696407
0.000598141
-0.0165169
0.000187541
-0.0148026
-0.0346213
-0.0112658
-0.0750343
-0.024451
-0.0301007
0.000603689
-0.0666088
-0.00754275
-0.0063807
-0.0252378
-0.0130366
0.000271101
-0.00184002
-0.000797695
0.00316367
-0.00132928
-0.0030547
-0.0327849
0.00156735
-0.00205444
-0.0721603
0.00225607
0.00025925
-0.0154387
-0.0832408
-0.0295695
-0.0251382
-0.0590174
0.00331975
0.000208918
-0.0738464
-0.00176651
-0.0411327
-0.0319166
-0.0757651
0.000267175
-0.0519949
0.00510908
-0.00489857
0.00286097
-0.00835325
-0.0844434
-0.00370422
-0.0751119
-0.000195153
-0.0337734
-0.0683677
-0.0185493
-0.0754423
-0.0671525
0.000222701
-0.0133797
-0.0750385
-0.0129827
-0.0743173
-0.00522665
-0.00653553
-0.0730503
-0.0579431
-0.0849634
-0.00551602
-0.0106837
-0.00776066
-0.0748415
-0.0714747
-0.0144002
0.00530172
-0.0321166
-0.0379635
-0.0747727
-0.00205915
-0.00754221
-0.0747582
-0.0274148
-0.00216172
-0.0665309
-0.0567481
-0.0119057
-0.000154105
-0.0840442
-0.0759453
0.00014692
-0.00267782
-0.0362205
0.000173655
-5.28231e-05
-0.00310888
-0.000865745
-0.00613552
-0.0547676
-0.00578338
-0.0725856
-0.0192302
-0.0884438
0.000862734
-0.0395615
-0.0657981
-0.0417401
0.00312606
-0.00526207
-0.0416056
0.000273908
-0.00638099
0.000257966
-0.00403801
-0.003056
-0.0749176
-0.000208122
0.00156184
-0.0810896
-0.0286564
-0.0284452
-0.0167441
0.000209842
-0.000223358
-0.04138
-0.0750533
-0.0723994
-0.000562448
-0.0540311
-0.00109246
-0.00518113
0.000855273
-0.076091
-0.0399163
-0.0189132
-0.0665257
-0.0359917
-0.00195156
-0.0749871
-0.0752274
0.00301146
-0.000462895
-0.00054417
0.0015875
-0.052782
0.000103866
-0.0668251
-0.0049975
-0.00363375
-0.0276194
-0.075283
-0.00687606
-0.0621472
0.00830869
-0.0802095
0.00712379
0.00698967
-0.00441899
0.00554554
0.00169112
0.00061027
-0.0198425
-0.0777141
-0.0770737
-0.00244984
-0.0752791
-0.0130886
-0.0756141
-0.0758446
-0.0404589
-0.00555829
-0.00132193
-0.00240899
-0.00265305
-0.074311
-0.00507112
-0.0170031
-0.00694614
-0.0610878
-0.0756165
-0.0790319
-0.00226404
-0.0741358
-0.0119228
-0.0109646
-0.00334529
0.000312512
-0.0837026
-0.0182158
-0.0739152
-0.00498932
0.00404697
-0.0665533
-0.00462868
-0.0166588
-0.00784015
-0.0707673
0.00157401
-0.0173558
-0.00232896
-0.00309773
-0.0686107
-0.0179746
-0.0249483
0.000580803
-0.0239597
-0.0382913
-0.07287
-0.000836914
-0.0460575
0.000156644
0.000614822
4.75906e-05
-0.0569566
-0.0144121
-0.0422988
-0.0268658
-0.00643658
0.00381643
-0.00398743
-0.000257564
-0.00554529
0.00104666
0.00150223
-0.0746659
-0.0294985
-0.000619044
0.00196223
0.000342157
-0.0613167
-0.0736929
-0.0584924
-0.0407936
-0.00857849
0.00165913
8.16028e-05
0.000909439
-0.0666499
-0.0747598
0.000203222
-0.0104544
-0.00340072
-0.075004
-0.0152103
-0.0165723
-0.0758726
-0.0181799
0.00177469
-0.0757327
-0.0760891
-0.00600483
2.08419e-05
-0.00643194
-0.0735052
-0.0701278
-0.0313159
-0.0660063
-0.0780144
-0.0207956
-0.0752725
-0.0242171
-0.00287297
-0.0603868
-0.061314
-0.00599455
-0.0835005
-0.0110403
0.000323998
0.000779514
-0.0653159
0.00350395
-0.0715791
-0.0162285
-0.0208982
-0.0431126
0.00293274
-0.0727776
-0.0753618
-0.00161254
-0.017622
-0.0701339
-0.0534421
-0.0854722
-0.0254081
-0.00233535
-0.00277689
0.00191971
0.000833261
-0.00549776
-0.0105811
-0.00630377
-0.0253875
-0.0226972
-0.028891
0.00162804
3.4431e-05
0.0003701
-0.0197158
-0.0251321
-0.00706888
-0.0514823
-0.0308704
-0.0171731
-0.0518609
-0.0241099
-0.00107125
-0.0754747
-0.000694945
0.00053056
-0.0726772
-0.0755418
-0.0855016
0.00820232
0.000166695
-0.0818982
-0.00116734
0.00108528
-0.0337295
-0.00167301
-0.0468603
-0.0570755
-8.51443e-05
-0.0826486
-0.0727744
-0.0202578
-0.0579755
-0.0766736
-0.00736878
-0.00614253
-0.0546965
-0.0864593
-0.0260385
-0.0614485
4.24129e-05
-0.00568382
0.000640395
-0.0163389
-0.0754567
-0.0711015
-0.0845506
-0.0715579
-0.0227188
-0.0151347
-0.0165942
0.000209526
-0.0036396
0.000813119
-0.0725232
-0.00215085
-0.0753015
-0.0129728
0.000779683
-0.0455516
-0.0730698
-0.074303
-0.0748366
-0.0457902
0.000147266
0.00037358
-0.074084
-0.071578
-0.0271268
-0.00130261
0.000607594
-0.0352623
-0.0248894
-0.0694915
-0.0283516
-0.0231116
0.000803649
-0.069527
0.00158248
-0.0727611
0.00899454
-0.00269929
-0.0535074
-0.00289767
-0.0786732
0.000170838
-0.074984
0.000170617
-0.0225686
-0.00141457
-0.0054468
-7.91116e-05
-0.0341705
-0.0460135
-0.0829568
-0.0769054
-0.0268783
-0.0282369
-0.00454836
-0.0745141
-0.0824904
-7.94413e-05
0.000237408
-0.00067469
0.000126927
-0.0738155
0.000185729
-0.00256511
-0.0297257
-0.00314924
-0.00890913
5.95664e-05
-0.0102999
-0.060599
-0.076265
-0.00517719
-0.00530623
-0.0627
0.00596696
-0.0170221
-0.0135335
-0.080461
-0.0352941
-0.0258516
-0.00697613
-0.000796336
-0.00152351
-0.0859569
-0.0846054
-0.0307049
0.000194371
0.00330461
-1.89286e-05
-0.0726475
0.00014294
-0.0766981
-0.0832424
-0.0174632
-0.0262467
0.0040883
-0.0136716
-0.00712984
-0.0121724
-0.0738035
-0.0184644
-0.0605673
-0.00042073
-0.00521776
-0.000239428
-0.00904446
-0.0688977
-0.0726178
-0.022314
-0.0826938
-0.0659494
0.000170168
-0.00749211
0.000887108
0.00239608
-0.0744108
-0.0741621
-0.0152794
-0.00417513
0.00190997
-0.0309011
-0.0450982
-0.0814652
-0.0218337
-0.074771
-0.0434501
-0.00371633
-0.00715927
-0.000244804
-0.0524137
0.00229323
-0.000322002
-0.0740859
-0.0343894
-0.0593822
0.00197893
-0.0245185
0.000191228
-0.0846484
-0.0741125
0.000577862
0.00627897
-0.0246737
-0.0085854
-0.00152948
-0.00573442
0.000812917
-0.0865957
-0.0235656
-0.0825188
-0.0164267
-0.0579521
-0.0243893
-0.075267
0.00264968
-0.0328409
-0.0845053
-0.0139434
0.0015512
-0.0748308
1.64083e-05
0.00280586
-0.0284298
-0.0776104
-0.0882917
-0.0159413
0.00354124
0.00461699
-0.00128539
-0.00051495
-0.00578773
-0.0754974
0.00249399
-0.0238171
-0.0106862
-0.000787522
-0.0150565
-0.0598823
0.00909012
-0.0661815
0.00266993
6.28709e-05
-0.0141259
-0.0747009
-0.0242744
-0.0405787
-0.0700109
-0.0563102
-6.66482e-05
-0.00845547
-0.0244959
-0.0756068
-0.0730744
-0.00742436
-0.0732003
-0.0179604
-0.00129131
-0.00706532
-0.0729941
-0.0275478
0.00177773
-0.0859982
-0.00722507
-0.0168575
-0.00214362
-0.0854602
-0.00482972
-0.061284
-0.0011138
-0.00274886
-0.0153702
-0.00490259
-0.0548762
-0.08718
-0.000473287
-0.0196817
-0.0413912
1.30605e-05
-0.0103392
-0.0087128
-0.0333716
-0.0503557
-0.051691
-0.00543115
-0.0752325
-0.027061
-0.0532106
0.00847542
-0.0229092
0.000805202
-0.0735311
-0.0742518
-0.0342604
0.00329536
-0.0597191
-0.0777653
-0.0115282
-0.0177526
0.00101193
-0.000369186
-0.0728061
-0.00213752
-0.0761292
-0.00621904
-0.0552954
-0.00733789
-0.0737878
0.000156545
-0.00148278
0.00562276
-0.0221327
-0.0755298
-0.074721
-0.0605113
-0.0259116
0.000783742
0.00582847
-0.00137283
0.000630496
-0.0704946
3.60243e-05
-0.0453303
-0.00834966
0.00458633
-0.00421022
0.000629732
7.02794e-05
-0.00101217
0.0070845
-0.0204934
-0.0732693
-0.00230644
-0.00448075
-0.00312077
9.00864e-05
-0.00826014
-0.0137514
-0.0157877
-0.0309691
-0.00157735
0.00197797
-0.0606308
-0.000288722
-0.000589588
-0.00311132
-0.0148979
0.000852871
-0.0790217
-0.0106308
-0.00396187
-0.0687942
-0.0293492
-0.00165501
-0.0762412
-0.0649777
-0.000969566
-0.0230651
-0.0158133
-0.0176949
0.00292559
0.000256315
-0.0292156
-0.0841548
-0.0750868
-0.0697714
-0.0152585
-0.0870187
-0.00595645
-0.0159983
-0.000288605
-0.0745947
-0.00738756
-0.0265798
-0.00651756
-0.0751426
-0.0790216
0.00938682
0.000238579
-0.0225445
0.00145243
-0.0111418
-0.0605817
-0.00540419
0.00275935
-0.0848294
-0.0752285
0.00026519
-0.0276765
-0.0286397
-0.0751986
2.01767e-05
-0.0810226
-0.084162
0.00414698
0.00382423
-0.068032
-0.0248501
0.00110942
0.0084376
0.00185334
-0.0214133
0.000761146
-0.00140165
-0.0753859
-0.087096
-0.085255
0.000265824
-0.0751843
-0.0109208
-0.0512219
0.000701847
-0.0139216
-0.0204833
0.000245238
-0.0768833
-0.0221266
-0.0329156
-0.0570387
-0.0817684
-0.028896
-0.0562701
-0.0798735
-0.0758119
-0.000888057
-0.0892623
0.000846573
0.000145254
-0.00730006
0.00018239
0.000787749
-0.083041
-0.0010781
0.00144594
-0.00604819
-0.0842287
-0.0827813
-0.00364595
0.000259911
-0.0172987
-0.0233457
-0.0775171
0.000926003
2.76913e-05
-0.00502544
-0.0242794
-0.000209371
0.00032437
-0.083322
-0.0444799
-0.0340304
0.000787368
0.00203745
-0.0147035
-0.0752508
0.000622147
-0.0883701
-0.0428456
-0.0106803
-0.0832074
-0.083559
0.000633341
-0.0613271
-0.0179086
-0.0856266
0.00173477
0.0018616
0.00147663
-0.0142614
-0.0157861
-0.0692136
0.000760846
0.000192145
0.00145142
-0.061473
-0.0403593
-0.0838705
-0.0795164
-0.010957
-0.0735024
-0.0190825
-0.0396254
-0.0701238
-0.0834487
-0.00908184
-0.0763928
-0.0294284
-0.0106827
0.000207345
-0.0689797
-0.0395705
-0.0216199
-0.0588544
0.000655967
-0.0821635
0.0013279
-0.0335636
-0.0063291
-0.00269246
-0.0747146
-0.0407309
-0.0554812
-0.0177173
-0.021905
0.00517247
-0.0612234
-0.0359318
-0.0751863
0.00392269
-0.0827048
-0.00613569
-0.0599468
-0.0439827
-0.0740048
-0.00715241
0.00037359
-0.000761589
-0.0754753
0.00166788
0.00246424
0.00171991
-0.0138565
0.000430396
-0.00729773
-0.0752599
-0.0749966
-0.0743775
-0.0823018
-0.00228136
-0.0691537
-0.0759368
-0.0674602
-0.0870874
-0.0754379
-0.0057311
-0.0801744
-0.0257656
-0.0353672
-0.0749489
-0.0621148
0.000100561
-0.0565738
-0.00277461
-0.00875437
-0.0364386
-0.0794258
-0.0751299
-0.0725197
-0.019234
-0.0144105
-0.00421365
-0.0752162
-0.0841744
-0.00551994
-0.0543681
0.00157384
-0.0088058
-0.0098274
-0.0730633
-0.059707
-0.0141258
-0.00684902
-0.0207093
-0.00745338
-0.0018102
-0.0156102
0.00108018
-0.0159835
-0.012851
-0.0609572
0.00370053
-0.0614897
-0.0110517
-0.012323
-0.0774806
-0.0754269
-0.0103513
0.0034986
-0.00645192
-0.0359835
-7.60285e-05
7.80448e-05
-0.0266067
0.000960185
0.0152767
-0.0127234
0.000857563
-0.0120741
-0.0471018
-0.0029357
-0.0751743
-0.00908543
-0.00503468
-0.0755853
0.00661521
-0.027382
0.00084894
-0.00646326
-0.00142311
-0.00979169
8.04972e-05
-0.0253864
-0.00810675
-0.0763582
0.00791802
-0.0134099
-0.0195963
0.000228475
-0.00591296
0.001471
0.00267425
-0.0549951
-0.0868367
-0.000718732
-0.0152277
-0.00640883
-0.0106255
-0.000979305
-0.0138017
-0.00323162
-0.0154661
-0.0697116
0.00124969
-0.056666
-0.0763211
0.00134857
-0.00378337
-0.00157056
-0.0271844
-0.0370845
-0.00107873
-0.0278937
-0.0732139
0.000134231
0.00120645
-0.0755759
0.000121653
0.00317396
0.00059541
0.000123086
-0.00027836
0.00104414
0.00283404
-0.0662579
0.00785376
-0.0300027
-0.0151573
-0.00502451
-0.00541216
-0.0393596
-0.0789766
-0.0863089
-0.0531849
-0.0382099
-0.0742158
-0.0652712
0.00206798
-0.0158102
0.000758815
-0.00818121
-0.00172245
-0.0209683
-0.0408039
0.0015796
-0.012515
-0.0159611
0.000394984
0.00044629
-0.00956329
0.00238322
0.000681706
0.000778804
-0.0730194
-0.0701052
0.0109349
-0.00887031
0.000674626
-0.0581048
-0.0545797
-0.0756302
-0.0358961
-0.0743928
-0.00129807
-0.0727245
-0.0741511
0.00868984
-0.00891413
-0.00911494
-4.35325e-06
-0.00618328
-0.0031379
-0.00211618
-0.0204749
-0.076556
-0.0567163
-0.0741434
0.00122166
-0.0411519
-0.0706382
-0.00682219
0.000546775
0.00141759
0.000612405
-0.0152687
0.00342506
-0.0392824
0.00900489
-0.0741863
-0.0280703
-0.0816204
-0.0479365
-0.0761724
-0.0750361
-0.0058042
0.000995549
0.00082214
-0.00808284
0.000644699
0.00351467
-0.0760191
-0.0737032
-0.00880019
-0.0104155
0.00186499
-0.0250175
-0.0404624
0.000853582
-0.00262523
-0.0704074
-2.59435e-05
0.00336786
-0.0242604
-0.0351977
-0.014573
-0.0728011
-0.0536094
-0.0144698
-0.0754918
-0.0621443
-0.0736143
0.000165688
-0.01495
-6.53922e-05
-0.0209671
-0.0710211
0.000232632
-0.0837838
0.00138658
-0.000358483
-0.00636474
-0.0756394
-0.0463497
-0.0594607
0.00806855
0.000585176
-0.0129737
-0.0832394
-0.0188487
0.000751948
0.00121719
-0.00720987
-0.000614095
0.000758535
0.000973814
-0.0752341
-0.0752536
-0.0748677
-0.0190081
-0.0635624
-0.0819942
-0.0613926
-0.0752463
-0.0489498
0.000155916
0.000305092
0.000133229
-0.0064211
-0.0755907
-0.0754168
0.000365074
-0.0840178
-0.0751614
-0.0412026
0.00125567
-0.00589311
-0.0554077
-0.0717208
-0.0756806
-0.0128979
-0.0752465
0.000121489
-0.0631787
-0.0520829
0.000226403
-0.0745367
-0.0076818
-0.0685956
-0.082588
-0.0149947
-0.0540564
-0.00586162
0.000872365
-0.0822951
-0.0747208
-0.0622165
-0.0232103
-0.0773861
-0.0695775
-0.0743823
-0.0751919
-0.07693
-0.0645897
-0.0571187
-0.0104322
0.00181927
-0.0472335
-0.0733387
-0.000296139
-0.0738047
0.000222641
-0.0383145
-0.0148058
0.000376614
-0.0751335
-0.00750231
-0.0668276
-0.0748137
-0.00711595
-0.0330242
-0.0386479
-0.0750115
-0.0562413
-0.0428998
0.00277037
-9.37394e-05
-0.0753755
0.00137072
0.00092737
-0.0418594
-0.0231806
-0.0742023
-0.0256287
-0.00531378
-0.0218097
0.00102137
-0.0407385
-0.0148737
-0.0653551
0.000372789
0.000110659
-0.0747682
-0.0540418
0.00137096
-0.0840973
-0.0740284
-0.0062254
0.0105882
-0.0161221
-0.0751889
0.00109221
0.000351086
-0.0689027
-0.0154734
-0.0749381
-0.0746821
-0.0561002
0.00059756
-0.000585624
-0.00666325
-0.0384927
-0.029702
-0.000535481
-0.0742428
-0.0524486
-0.00160825
0.00079602
-0.0475483
-0.0132286
-0.0766342
-0.0655786
0.00151786
-0.0786568
-0.05639
-0.0331143
0.000182923
-0.0751245
-0.0728607
-0.0728318
-0.00735891
0.000414149
-0.0506665
-0.0183862
0.00215163
-0.000577312
0.00143867
0.000684023
-0.0113368
0.000147815
0.00145773
-0.0294929
-0.0659362
-0.0740924
-0.00624534
-0.0734545
-0.0748967
0.000140236
-0.0736448
-0.0731961
-0.0735484
0.000581684
-0.0441169
-0.0728872
-0.0833294
-0.0671986
-0.0600597
0.0134195
-0.0753344
-0.0543527
-0.0699862
0.000275323
-0.0484161
-0.0525734
-0.00723175
-0.0597341
-0.076737
0.00330274
-0.0825361
-0.0740585
-0.00541869
-1.46442e-05
0.00262181
-0.00741358
0.0124003
0.000866533
0.000432558
-0.0759254
-0.0726335
-0.00336094
-0.0555593
0.000323552
-0.0239782
-0.0849364
-0.0742832
-0.0848339
-0.0350371
-0.0742055
0.000678274
0.000649258
-0.0271663
-0.0754522
-0.0738259
-0.06281
-0.0726391
-0.019272
0.000603298
-0.00747732
-0.0159892
-0.0333239
-0.0734758
-0.0743066
-0.0247838
-0.0751772
-0.0775636
0.00113594
-0.0752772
-0.00914733
-0.0306381
-0.00318528
-0.00830502
7.8175e-07
-0.0276008
-0.0250832
-0.0585123
-0.0741064
0.000879168
-0.0515646
-0.0261809
-0.0275656
-0.0724418
-0.0236319
-0.0751459
1.51746e-05
-0.0645213
-0.0745847
-0.0629635
-0.0682966
0.000907356
-0.0563753
-0.075549
-0.0755743
0.000823133
-0.058334
0.000435622
-0.00207658
-0.00791097
-0.0361621
-0.0755493
-0.0739351
-0.00018479
-0.0836477
-0.035828
0.000597707
-0.00139215
-0.0101415
-0.0025212
-0.0440268
-0.0751685
-0.0752175
-0.0629796
-0.00132678
-0.00599848
-0.033702
-5.2648e-05
-0.0748525
-0.00283691
-8.44311e-05
-0.0308342
-0.0572038
-0.0125495
-0.0735647
-0.0452173
-0.0882575
-0.018296
-0.0711991
-0.0731351
-0.0738274
0.000408849
0.000512183
-0.0316487
-0.0100872
-0.0705081
-0.0842189
-0.0329177
-0.0564633
-0.0693735
-0.0504944
-0.0332716
-0.0179182
-0.00278837
-0.0023197
-0.0689286
-0.0187741
-0.025158
-0.0296251
-0.0275581
-0.0235311
-0.0831424
-0.0691566
-0.00999723
-0.0196617
-0.0370083
-0.0141759
0.00135302
-0.0224316
-0.0514809
0.00155975
-0.0841346
-0.00877133
-0.0740324
-0.00640857
-0.00282595
-0.0133758
-0.0740048
-0.0155872
-0.0753406
-0.0728665
-0.0318201
-0.000482973
-0.066675
-0.0213424
-0.0690552
0.00395588
-0.00343587
-0.0535093
0.00103673
-0.074441
0.00399736
-0.00261236
0.000477255
-0.0146728
-0.0315452
-0.0172277
-0.0544082
-0.0507145
-0.0115862
-0.0120422
-0.0686725
-0.0743489
-0.0012375
-0.043233
0.000139408
-0.0249996
-0.0392557
-0.05886
0.00543337
-0.0534535
-0.0121404
0.000668888
-0.00654224
-0.00208308
-0.0112637
-0.00508425
-0.0749718
0.000397299
-0.0508671
-0.0114303
-0.0753645
-0.0727469
-0.0321332
-0.0221667
-0.0588125
-0.0720393
-0.0841748
-0.000332113
-0.023208
-0.0516312
-0.0353349
0.00165092
-0.0706113
-0.0742031
0.00139031
-0.00234265
-0.0728381
-0.0245115
-0.0126399
-0.00685558
-0.0437937
0.0010812
-0.0204537
-0.042852
-0.022287
-0.0256187
-0.00160554
-0.00165008
-0.0148456
-0.0766605
-0.00209239
-0.0141095
-0.0725142
0.000607091
0.0014286
-0.0749854
-0.048323
-0.0585382
-0.00837877
-0.026677
-0.0195682
0.000593097
-0.00106025
-0.040158
-0.0285521
-0.0745232
-0.0629761
-0.0301284
-0.0757299
-0.033473
-0.048951
-0.00215464
0.00325449
-0.041423
-0.0285834
-0.00554347
-0.0434511
-0.00572423
-0.0262546
-0.0258471
0.00193614
0.000430551
0.000822041
-0.00811419
-0.00444277
-0.047743
-0.0498479
0.00102366
-0.0518495
-0.0385177
-0.0733132
-0.0256928
-0.073675
-0.0358295
-0.0744778
-0.000370371
-0.0556415
-0.0325814
-0.00491788
0.00215871
-0.0224965
-0.0335162
0.000801313
0.00139606
-0.052188
-0.073434
-0.0322695
0.00167011
-0.00325644
-0.0618864
-0.0206288
-0.0135861
-3.16793e-05
0.000423465
-0.00540041
-0.0121475
0.00819937
-0.0110654
-0.0749376
-0.0238052
-0.0760251
-0.00153571
0.00109819
-0.00697982
-0.0218074
-0.0107113
0.00447579
-0.0303585
-0.00721384
-0.0017011
-0.0838097
-0.0274394
-0.0743549
0.000919707
-0.0195833
-0.038609
-0.062142
-0.0291201
-0.0600061
-0.0218406
-0.0484594
-0.0182996
-0.00228496
-0.0771002
-0.0732649
-0.000637739
-0.00609008
-0.0270836
-0.00535457
-0.000505475