/*--------------------------------*- C++ -*----------------------------------*\
| =========                 |                                                 |
| \\      /  F ield         | OpenFOAM: The Open Source CFD Toolbox           |
|  \\    /   O peration     | Version:  v2012                                 |
|   \\  /    A nd           | Website:  www.openfoam.com                      |
|    \\/     M anipulation  |                                                 |
\*---------------------------------------------------------------------------*/
FoamFile
{
    version     2.0;
    format      ascii;
    class       volVectorField;
    location    "650";
    object      cellDisplacement;
}
// * * * * * * * * * * * * * * * * * * * * * * * * * * * * * * * * * * * * * //

dimensions      [0 1 0 0 0 0 0];


internalField   nonuniform List<vector> 
13917
(
(0.009242 0.0773922 0)
(0.00185407 0.0602204 0)
(0.00872262 0.0684777 0)
(0.00597295 0.0373982 0)
(0.000990618 0.0492623 0)
(0.00184344 0.0598068 0)
(0.00697663 0.0485789 0)
(0.00132545 0.0638688 0)
(0.00792438 0.0325664 0)
(0.00747576 0.0802821 0)
(0.00143563 0.0636421 0)
(0.00477412 0.0384569 0)
(0.000175282 0.000818737 0)
(0.000265113 0.0664479 0)
(0.0020533 0.0558198 0)
(0.00925281 0.0770476 0)
(1.0068e-05 0.00130078 0)
(0.00166163 0.0636757 0)
(0.00799159 0.0684641 0)
(0.00876863 0.0799337 0)
(0.00347928 0.0622595 0)
(0.00191758 0.0424005 0)
(0.00741842 0.0597568 0)
(0.0018633 0.0420689 0)
(0.00544605 0.0486856 0)
(0.00315088 0.0626497 0)
(0.00143634 0.0719914 0)
(0.00771847 0.0803006 0)
(0.00232044 0.0634724 0)
(-2.86974e-06 0.000860278 0)
(0.00829615 0.0802891 0)
(0.00842928 0.0567818 0)
(0.00538934 0.0424352 0)
(0.00925195 0.0742387 0)
(0.000456081 0.0293784 0)
(0.00119495 0.063781 0)
(0.00378387 0.0544048 0)
(8.78187e-05 0.00180186 0)
(0.00705631 0.0482521 0)
(0.00427749 0.0644041 0)
(2.94431e-07 0.00039532 0)
(7.32414e-05 0.0203282 0)
(0.00769663 0.0291856 0)
(0.00840467 0.0647898 0)
(0.00833575 0.0651302 0)
(0.00476601 0.0746357 0)
(0.00358809 0.0617731 0)
(0.00507283 0.0795468 0)
(0.000218206 0.0620247 0)
(0.000475909 0.0296971 0)
(0.00470617 0.0380569 0)
(0.00589424 0.0725101 0)
(0.00937285 0.0653111 0)
(0.00349445 0.0424034 0)
(0.00372212 0.0431528 0)
(0.00603206 0.0724224 0)
(0.00872115 0.0803106 0)
(0.0073453 0.0599577 0)
(7.2808e-05 0.019814 0)
(0.00459902 0.0746151 0)
(0.00263382 0.077861 0)
(0.000191505 0.0335449 0)
(-2.36461e-07 0.000133305 0)
(0.00544854 0.0479962 0)
(0.00856611 0.0760167 0)
(-6.58978e-06 0.00130513 0)
(0.00210223 0.0635754 0)
(0.00116302 0.063474 0)
(0.00154777 0.0639009 0)
(0.00931605 0.0709542 0)
(0.00860789 0.0742859 0)
(0.00926346 0.0742525 0)
(0.00587137 0.0233637 0)
(8.04494e-05 0.0195927 0)
(0.00350154 0.0627094 0)
(0.00489759 0.0522112 0)
(0.00136147 0.0482719 0)
(7.94015e-05 0.0190804 0)
(0.00491459 0.0515866 0)
(0.00540726 0.0431233 0)
(0.00281917 0.0477369 0)
(1.57746e-05 0.00151099 0)
(0.00582739 0.0223654 0)
(0.00903563 0.0699022 0)
(0.00130088 0.0127602 0)
(0.00132907 0.0663943 0)
(0.00840018 0.0564634 0)
(0.000662234 0.00660974 0)
(0.00422879 0.0640668 0)
(1.15844e-05 0.00155499 0)
(1.56002e-05 0.00253231 0)
(0.00775872 0.0291136 0)
(0.000159126 0.0617192 0)
(0.000378827 0.0256707 0)
(0.00351539 0.0479946 0)
(0.00220644 0.0637718 0)
(0.00138641 0.0704961 0)
(4.21238e-05 0.00209577 0)
(0.000756673 0.00737099 0)
(0.00238255 0.0698638 0)
(-3.30522e-07 0.0003795 0)
(-4.34104e-07 0.000461787 0)
(0.00286447 0.048273 0)
(8.83131e-05 0.00381175 0)
(0.00134321 0.0477699 0)
(0.00938493 0.0573908 0)
(0.00779261 0.0793861 0)
(0.000170759 0.0332176 0)
(6.49878e-05 0.0205402 0)
(0.00122703 0.0721535 0)
(0.00125082 0.00255811 0)
(0.0092299 0.0748055 0)
(0.00242584 0.0636663 0)
(0.00463688 0.0796304 0)
(0.00860582 0.0756333 0)
(0.00468261 0.053849 0)
(0.00798773 0.0678664 0)
(4.02329e-06 0.0015961 0)
(0.00854827 0.0686288 0)
(0.00574932 0.0156419 0)
(2.02968e-05 0.00187593 0)
(0.000101208 0.0188297 0)
(0.00198898 0.0638493 0)
(0.00714308 0.0696399 0)
(0.0093906 0.0635304 0)
(0.00905507 0.0702235 0)
(0.00553497 0.0466718 0)
(0.00340572 0.0631475 0)
(0.000867968 0.0309276 0)
(0.00722832 0.0696612 0)
(0.00802888 0.0452561 0)
(0.00343438 0.0729945 0)
(0.00940529 0.0597918 0)
(0.004599 0.0539936 0)
(0.00846405 0.0593627 0)
(0.00106938 0.0719567 0)
(0.00216126 0.0774582 0)
(0.00946744 0.0558619 0)
(0.00294246 0.0629924 0)
(4.642e-05 0.000977684 0)
(-0.000135982 0.0541581 0)
(8.62743e-05 0.0188391 0)
(0.00938929 0.0567499 0)
(0.0019028 0.0332901 0)
(0.00555608 0.023531 0)
(2.1315e-05 0.0209727 0)
(0.00866837 0.0738446 0)
(-0.000235635 0.0430209 0)
(0.0056819 0.0796276 0)
(0.00356249 0.042992 0)
(0.00428221 0.0631768 0)
(-5.08083e-07 0.000409495 0)
(0.00550091 0.0225069 0)
(0.00580558 0.0147336 0)
(0.00122752 0.0706784 0)
(0.00133565 0.0431273 0)
(9.92934e-05 0.00438138 0)
(0.00943115 0.0579675 0)
(1.29013e-06 0.000770072 0)
(3.17689e-06 0.00130777 0)
(0.00198363 0.0245277 0)
(0.00692507 0.0779953 0)
(0.00311677 0.0568829 0)
(-0.000190883 0.053953 0)
(0.00486135 0.0785303 0)
(0.00204233 0.0703561 0)
(0.00936829 0.0657767 0)
(0.00380385 0.0788891 0)
(-3.56863e-07 0.000177997 0)
(0.00284284 0.063347 0)
(0.00177971 0.042997 0)
(0.00934212 0.0644875 0)
(0.00796048 0.0312299 0)
(0.00304276 0.0775515 0)
(0.00555666 0.0694041 0)
(-3.05554e-08 0.000653999 0)
(0.00604129 0.0367105 0)
(0.00565138 0.0730783 0)
(0.00801851 0.0444733 0)
(0.00304798 0.0573695 0)
(0.00756337 0.0310122 0)
(0.00179251 0.0423875 0)
(0.00462763 0.0386561 0)
(0.00634809 0.0744601 0)
(0.00850694 0.0693153 0)
(0.00326317 0.0729685 0)
(0.00456067 0.0382837 0)
(0.00620023 0.0745413 0)
(-3.53834e-06 0.00106347 0)
(0.00145975 0.066172 0)
(0.00543191 0.0695148 0)
(0.00831005 0.0645559 0)
(0.00667723 0.0731443 0)
(0.00921274 0.0784674 0)
(0.000397039 0.0259946 0)
(0.0093784 0.0647387 0)
(0.00563134 0.0546965 0)
(0.00940157 0.0596149 0)
(0.000450984 0.0287703 0)
(0.00138386 0.0426995 0)
(0.00378742 0.0606668 0)
(0.00930441 0.0721107 0)
(0.00946274 0.0563278 0)
(0.00347449 0.0532871 0)
(0.00173723 0.0725625 0)
(0.00253946 0.0612064 0)
(0.00432782 0.0635067 0)
(9.48689e-05 0.0191216 0)
(0.00581298 0.0729302 0)
(0.00273051 0.047816 0)
(0.000729256 0.024249 0)
(0.000778237 0.049756 0)
(0.000731095 0.0500564 0)
(0.00555097 0.079548 0)
(0.00846398 0.058718 0)
(0.00306148 0.0630476 0)
(0.00811666 0.0780434 0)
(0.000277597 0.00438059 0)
(4.53041e-05 0.0106779 0)
(4.22192e-05 0.0105212 0)
(0.00379032 0.0790409 0)
(0.00649167 0.0738146 0)
(0.00592357 0.0750209 0)
(0.00223415 0.0095027 0)
(-1.60502e-07 9.01094e-05 0)
(0.000855288 0.0720709 0)
(0.00937223 0.0653656 0)
(4.71848e-05 0.00971986 0)
(4.62419e-05 0.00933993 0)
(3.18235e-07 0.000366604 0)
(4.03374e-05 0.0108527 0)
(3.73884e-05 0.010691 0)
(0.00926346 0.0746402 0)
(0.00576492 0.0793432 0)
(0.00235993 0.0447651 0)
(-8.57959e-07 0.000379382 0)
(0.00635826 0.0692495 0)
(0.00930535 0.0714862 0)
(3.39825e-06 0.00102717 0)
(0.00205696 0.00899806 0)
(0.00157075 0.0724605 0)
(0.00941405 0.0552644 0)
(0.00647046 0.0741505 0)
(0.00823974 0.0780902 0)
(0.00515867 0.0715727 0)
(0.00195521 0.0335437 0)
(0.00418956 0.0787854 0)
(0.00643448 0.0694951 0)
(0.00252738 0.0633737 0)
(0.00780615 0.0647497 0)
(0.0035317 0.0527147 0)
(0.00586375 0.079442 0)
(0.00576687 0.0176746 0)
(0.00524676 0.064895 0)
(0.00567905 0.0685563 0)
(0.00225843 0.0453545 0)
(1.18062e-07 0.000173704 0)
(0.00553311 0.0473954 0)
(0.000913199 0.0468094 0)
(0.000304943 0.0268812 0)
(0.00938535 0.0639791 0)
(-5.34791e-05 0.0638375 0)
(0.000140755 0.0202439 0)
(4.83816e-05 0.0091385 0)
(0.00134444 0.0437737 0)
(5.16631e-05 0.00934556 0)
(0.00581616 0.016779 0)
(0.000322952 0.00158881 0)
(0.00653284 0.0605118 0)
(0.000133608 0.0205754 0)
(0.0094908 0.0535679 0)
(0.0076932 0.079249 0)
(0.00401396 0.0352701 0)
(0.00108454 0.0466454 0)
(0.00421888 0.0749094 0)
(9.67688e-06 0.00847425 0)
(0.00263714 0.0693011 0)
(0.00938538 0.0638911 0)
(1.12888e-05 0.00861932 0)
(0.00931503 0.0709419 0)
(0.000301544 0.0262427 0)
(0.00677807 0.0778838 0)
(-7.87155e-08 0.000518277 0)
(0.00213391 0.0544554 0)
(0.00223828 0.0459038 0)
(0.00169438 0.0326493 0)
(0.00760089 0.0720725 0)
(0.000117052 0.00296537 0)
(0.00187978 0.0705809 0)
(0.00522655 0.058735 0)
(-0.000173216 0.0637793 0)
(1.7431e-05 0.0213692 0)
(0.00212329 0.0724166 0)
(0.00948957 0.0536972 0)
(4.64192e-06 0.00141444 0)
(0.00693904 0.0640886 0)
(0.00095506 0.0477344 0)
(0.00445403 0.0549149 0)
(0.00100042 0.0487 0)
(0.00501987 0.0511392 0)
(0.000346076 0.0257941 0)
(0.000140201 0.00365465 0)
(0.00538106 0.0730249 0)
(0.000286358 0.0416064 0)
(0.00526173 0.0644768 0)
(0.00504067 0.0504888 0)
(0.00189757 0.0090545 0)
(0.00942249 0.0584773 0)
(0.00930089 0.0725159 0)
(0.000756049 0.029065 0)
(-2.87484e-05 0.00723474 0)
(0.0045417 0.0547765 0)
(0.000266436 0.0503914 0)
(0.00895813 0.0584101 0)
(0.00819308 0.07916 0)
(0.00333973 0.0774795 0)
(-4.07189e-06 0.000811533 0)
(0.00363606 0.0727067 0)
(0.00108386 0.0460301 0)
(0.00898159 0.0703127 0)
(0.000223596 0.0508143 0)
(0.00876019 0.0677745 0)
(0.00029205 0.00128663 0)
(0.00204765 0.0553454 0)
(0.00160209 0.0721216 0)
(0.00161198 0.0435201 0)
(0.00178371 0.0605645 0)
(0.00823889 0.064872 0)
(6.79484e-06 0.00114973 0)
(0.00932893 0.0651231 0)
(0.00104007 0.0102617 0)
(0.008636 0.0417269 0)
(-1.05031e-05 0.00826053 0)
(0.00872242 0.080106 0)
(0.000608381 0.0157556 0)
(0.00540799 0.0636347 0)
(0.00255228 0.0615925 0)
(-2.9683e-06 0.000601736 0)
(9.5634e-06 0.00156333 0)
(0.00795165 0.0637756 0)
(0.0093238 0.0600874 0)
(0.00363578 0.0470961 0)
(0.00155492 0.043328 0)
(0.00921069 0.0746608 0)
(0.00935368 0.0586436 0)
(0.00514527 0.0772536 0)
(0.000324634 0.066113 0)
(1.29783e-05 0.00837999 0)
(0.00258841 0.0447837 0)
(0.00943617 0.0538456 0)
(0.00377906 0.0727725 0)
(1.48624e-05 0.00857596 0)
(0.000940567 0.0483334 0)
(0.00410826 0.0407434 0)
(0.00288594 0.0659319 0)
(0.00538441 0.0640807 0)
(0.00677047 0.0718186 0)
(0.00443999 0.0711494 0)
(0.00259216 0.0690565 0)
(0.00845484 0.0452872 0)
(0.00918057 0.077503 0)
(0.000889183 0.0316671 0)
(0.00371687 0.0469671 0)
(0.00093476 0.0495473 0)
(0.00797433 0.0721268 0)
(3.63287e-06 0.000912792 0)
(0.00923435 0.0780854 0)
(0.0084747 0.044317 0)
(-7.00249e-05 0.0105741 0)
(0.00371483 0.0439403 0)
(0.0040725 0.0722664 0)
(-2.89229e-05 0.00744854 0)
(0.00017922 0.0609949 0)
(5.10029e-05 0.0190264 0)
(0.00609795 0.0749336 0)
(0.00441231 0.0749207 0)
(0.00245511 0.0619986 0)
(0.0040474 0.0361629 0)
(0.00801702 0.07509 0)
(-1.51022e-05 0.00834215 0)
(0.00453018 0.0784914 0)
(0.00664982 0.0735325 0)
(4.47762e-05 0.0187967 0)
(0.000235266 0.0613177 0)
(0.00206601 0.0470843 0)
(-4.69044e-05 0.00948193 0)
(0.00029959 0.0192526 0)
(0.00863303 0.0798565 0)
(-4.79991e-05 0.00942209 0)
(0.00411514 0.0531437 0)
(0.000794869 0.0723813 0)
(0.00271993 0.0684094 0)
(0.00353092 0.0516201 0)
(0.00534179 0.0780226 0)
(0.00935803 0.0514533 0)
(0.00428364 0.0515393 0)
(0.00752071 0.0724676 0)
(0.00277383 0.0439858 0)
(0.0025642 0.0684015 0)
(0.00865627 0.0687484 0)
(0.000931673 0.00904302 0)
(0.00739993 0.0429404 0)
(0.00513778 0.0500781 0)
(0.00174522 0.0317431 0)
(0.000997856 0.0180378 0)
(0.000949799 0.0326634 0)
(0.00178209 0.0775467 0)
(0.00220185 0.0704875 0)
(0.00372525 0.045488 0)
(0.000889064 0.0329719 0)
(0.00188253 0.0407271 0)
(0.00648457 0.0650774 0)
(0.000912193 0.0627013 0)
(-1.82567e-06 0.00825162 0)
(-4.00714e-07 0.000203737 0)
(0.00891511 0.0588016 0)
(0.00400276 0.072006 0)
(0.00174383 0.0334932 0)
(0.00414238 0.0525399 0)
(0.00381453 0.0769418 0)
(0.000681234 0.0700626 0)
(-6.50971e-06 0.00125792 0)
(0.00806748 0.0684867 0)
(0.00895922 0.0699085 0)
(2.14397e-05 0.0132576 0)
(1.18267e-06 0.00822215 0)
(0.00342345 0.0608822 0)
(0.000942023 0.0169652 0)
(-6.7972e-07 0.00841052 0)
(0.00233585 0.0453157 0)
(2.35921e-06 0.00839368 0)
(2.236e-05 0.0129379 0)
(0.00456036 0.0789915 0)
(0.00282854 0.0445652 0)
(0.0043967 0.065021 0)
(0.00948568 0.0540567 0)
(0.00685706 0.0640545 0)
(0.000758175 0.0250421 0)
(0.00538998 0.0226296 0)
(0.00563656 0.0780194 0)
(0.00366688 0.0607838 0)
(0.00939529 0.0630736 0)
(-7.7031e-06 0.00827963 0)
(0.00326973 0.019701 0)
(-1.6142e-05 0.00863502 0)
(3.49451e-05 0.0109762 0)
(0.00375255 0.0539245 0)
(0.00194741 0.0473845 0)
(0.00376771 0.0767456 0)
(-1.00327e-05 0.0191697 0)
(0.00940797 0.0559636 0)
(0.00320335 0.0198886 0)
(0.00769399 0.0517902 0)
(-8.84992e-06 0.0198455 0)
(0.0026907 0.0471834 0)
(0.00531756 0.0714254 0)
(0.00493308 0.0772129 0)
(0.00411314 0.0399976 0)
(0.000287897 0.0707398 0)
(0.00081985 0.0260537 0)
(0.000364581 0.00689389 0)
(0.00184649 0.04001 0)
(0.00212967 0.0472626 0)
(0.00066929 0.0226193 0)
(0.000435217 0.00517813 0)
(0.00941525 0.0592252 0)
(0.00297138 0.0777741 0)
(0.000640247 0.0218034 0)
(0.00212222 0.0726896 0)
(0.00883105 0.0602711 0)
(0.00073722 0.00287667 0)
(0.00680575 0.0655388 0)
(0.00900565 0.0467427 0)
(0.00564687 0.0783972 0)
(0.00756011 0.042987 0)
(0.00936905 0.0582648 0)
(-5.93164e-05 0.0103433 0)
(-5.78727e-05 0.0103965 0)
(0.00200765 0.0475808 0)
(-5.4312e-06 0.00109373 0)
(-1.29585e-05 0.0202158 0)
(0.00348234 0.0522285 0)
(0.00586615 0.0765464 0)
(1.59294e-05 0.00246036 0)
(0.00351017 0.04157 0)
(0.00360046 0.0478869 0)
(0.00762568 0.0387272 0)
(0.00383513 0.062247 0)
(0.00837958 0.0693805 0)
(0.00775929 0.0599652 0)
(4.35189e-05 0.0222773 0)
(0.00102773 0.0469227 0)
(0.00176897 0.0638973 0)
(0.00421318 0.0674217 0)
(0.00366379 0.0452934 0)
(0.000112668 0.0665189 0)
(0.00690615 0.0586584 0)
(0.00532176 0.0584334 0)
(0.00418299 0.0782645 0)
(0.001197 0.0115701 0)
(0.0041388 0.0678084 0)
(0.00556661 0.073479 0)
(0.000615692 0.0135662 0)
(0.00945599 0.0563941 0)
(0.000375301 0.00692537 0)
(3.22147e-05 0.0107616 0)
(0.00656311 0.065238 0)
(-6.72738e-06 0.0084484 0)
(0.000293084 0.00476415 0)
(0.00529097 0.0727857 0)
(0.00948184 0.0535168 0)
(0.000419095 0.072296 0)
(0.00193069 0.0234693 0)
(0.00655995 0.0334184 0)
(6.90072e-05 0.023222 0)
(0.00544691 0.0762414 0)
(0.00334232 0.075118 0)
(0.00358141 0.0444381 0)
(0.00365138 0.0426667 0)
(0.00177344 0.0215421 0)
(0.00585659 0.0676751 0)
(-0.000138498 0.0379307 0)
(0.000779921 0.03113 0)
(4.14218e-06 0.00110356 0)
(0.00136985 0.0420297 0)
(0.00173319 0.0307948 0)
(0.000456226 0.038658 0)
(0.00609915 0.0564867 0)
(1.25658e-05 0.00210449 0)
(0.00769989 0.060686 0)
(0.000568457 0.0124919 0)
(0.00199518 0.0414349 0)
(0.00516264 0.0494178 0)
(0.00865196 0.0789942 0)
(6.73233e-05 0.00602771 0)
(0.0069926 0.0387965 0)
(0.000323225 0.0271767 0)
(0.00767425 0.0512161 0)
(0.00693288 0.0670894 0)
(0.00246862 0.0655102 0)
(0.00566305 0.0689939 0)
(0.00236215 0.0702585 0)
(0.00493928 0.0490979 0)
(0.00188404 0.0636343 0)
(0.00938939 0.0602212 0)
(0.00492218 0.079032 0)
(0.00948649 0.0539527 0)
(0.000654151 0.0272302 0)
(0.00174772 0.0392198 0)
(3.51487e-05 0.0224386 0)
(0.0039574 0.0288886 0)
(0.00874151 0.0750658 0)
(7.89902e-06 0.00869866 0)
(-0.000192387 0.0510897 0)
(0.00572121 0.0542402 0)
(0.00928425 0.0654078 0)
(0.00254687 0.0696627 0)
(0.00763197 0.0307431 0)
(0.00707523 0.0801172 0)
(0.0006157 0.0217164 0)
(0.00883291 0.048091 0)
(4.97116e-05 0.00255327 0)
(0.000181203 0.0267128 0)
(0.00929452 0.0655461 0)
(-4.80499e-06 0.00827809 0)
(0.00902221 0.0630221 0)
(-2.84919e-07 0.000173833 0)
(0.000533149 0.00214929 0)
(0.00178239 0.0399402 0)
(0.00838863 0.0688521 0)
(0.000425441 0.0385116 0)
(5.35776e-05 0.00823772 0)
(0.00851404 0.0636127 0)
(0.00672328 0.0654392 0)
(-0.000252506 0.0456321 0)
(0.00868494 0.0732358 0)
(0.00943806 0.0569365 0)
(0.00540835 0.0784719 0)
(6.57724e-05 0.00573107 0)
(0.00935251 0.0673684 0)
(-6.59185e-07 0.000415789 0)
(0.00243994 0.0775541 0)
(-0.000186087 0.0430766 0)
(0.000165392 0.0269677 0)
(-3.07056e-05 0.00791702 0)
(-4.12621e-07 0.000409161 0)
(0.00688026 0.0582808 0)
(0.00754684 0.0299738 0)
(-3.74257e-06 0.00844491 0)
(5.18472e-05 0.00250234 0)
(0.000324224 0.00194354 0)
(0.00864941 0.0729513 0)
(0.00228628 0.0261716 0)
(0.00842427 0.0549361 0)
(0.0034388 0.0410439 0)
(5.00483e-05 0.00784008 0)
(1.76244e-06 0.00095526 0)
(0.00495149 0.0744022 0)
(0.00670043 0.0771985 0)
(0.00734528 0.0800605 0)
(0.00778093 0.0642245 0)
(0.00617749 0.055952 0)
(0.0072342 0.0755583 0)
(0.0093107 0.0708801 0)
(0.000298504 0.0198016 0)
(0.00549204 0.0768775 0)
(0.000322326 0.00186314 0)
(0.00912347 0.0494472 0)
(0.00390891 0.0294547 0)
(0.00810404 0.0747283 0)
(0.00167096 0.0299661 0)
(0.000468994 0.0392547 0)
(0.0056549 0.0234772 0)
(-0.000234353 0.0452438 0)
(0.00670053 0.0599428 0)
(0.00840709 0.0768692 0)
(1.82506e-05 0.00227662 0)
(0.00655493 0.0597948 0)
(0.000592552 0.0309077 0)
(-2.9525e-07 0.000284079 0)
(0.00913059 0.0778653 0)
(0.00190739 0.069863 0)
(0.000536804 0.0314049 0)
(0.0067423 0.0722808 0)
(0.00207003 0.0096435 0)
(0.000168175 0.0253196 0)
(-3.80984e-07 0.000297166 0)
(0.00910082 0.0776024 0)
(0.00230113 0.0256689 0)
(0.000900496 0.0473686 0)
(6.54076e-06 0.00851533 0)
(0.00055071 0.0310246 0)
(0.00789212 0.072239 0)
(-4.58831e-07 0.000393129 0)
(0.00710107 0.071308 0)
(2.08261e-05 0.00161662 0)
(0.000634302 0.0154782 0)
(0.00235242 0.0777609 0)
(0.00844694 0.0553611 0)
(0.00353476 0.0438366 0)
(0.00948401 0.0542368 0)
(0.0090256 0.0624144 0)
(0.00096695 0.0616108 0)
(0.00540937 0.0735974 0)
(0.000587468 0.0209044 0)
(0.00196952 0.0561629 0)
(0.00868076 0.0792146 0)
(0.00925278 0.0567511 0)
(0.00351543 0.0604025 0)
(0.00387593 0.054295 0)
(0.00044979 0.0396261 0)
(2.54599e-05 0.00191024 0)
(0.00110842 0.0333361 0)
(-4.04345e-06 0.000786612 0)
(0.00681552 0.0681035 0)
(0.00529894 0.0541501 0)
(0.00384871 0.0783872 0)
(0.00676765 0.0600479 0)
(0.000718944 0.0624575 0)
(0.00337056 0.0753528 0)
(0.000306256 0.0420098 0)
(0.00574153 0.0624545 0)
(0.00681986 0.0728697 0)
(0.00930786 0.0715282 0)
(0.00036502 0.0260806 0)
(0.000454036 0.0427696 0)
(-3.00962e-06 0.000578143 0)
(0.000651877 0.0154584 0)
(2.74277e-05 0.0025323 0)
(1.38088e-06 0.000919031 0)
(5.90872e-05 0.0233796 0)
(0.000326765 0.00462709 0)
(0.00934748 0.0678455 0)
(0.00838289 0.0411339 0)
(0.000145716 0.00518783 0)
(0.00821886 0.0642828 0)
(2.07101e-05 0.002498 0)
(0.00815616 0.0789671 0)
(0.000284337 0.0259506 0)
(0.00083111 0.0307548 0)
(0.009482 0.0537029 0)
(0.00703854 0.0660329 0)
(-0.000112003 0.0173256 0)
(0.00582779 0.0275921 0)
(-2.16806e-05 0.0074341 0)
(0.00068017 0.0292702 0)
(0.00633747 0.0309833 0)
(0.00703551 0.0511135 0)
(0.0015403 0.0324887 0)
(0.00942781 0.0598747 0)
(0.00516525 0.0603833 0)
(-0.000164682 0.0395915 0)
(-0.000106381 0.0170663 0)
(0.000442568 0.0423796 0)
(0.00944592 0.0562408 0)
(0.00651021 0.0343642 0)
(7.5004e-05 0.00308476 0)
(0.000579014 0.0312862 0)
(0.00937887 0.0644443 0)
(0.000589491 0.0724814 0)
(0.00559529 0.0554076 0)
(0.00940216 0.0624126 0)
(-0.00018702 0.0498576 0)
(0.000651058 0.0166836 0)
(0.000776638 0.0298237 0)
(0.00364617 0.0541026 0)
(0.00934175 0.0595979 0)
(-9.60348e-05 0.0174974 0)
(0.00660082 0.0606313 0)
(0.00626468 0.0310479 0)
(0.00694299 0.039728 0)
(0.00915669 0.0489755 0)
(0.00113925 0.0457475 0)
(0.00689483 0.0714958 0)
(0.00834606 0.0422899 0)
(0.0034666 0.0474177 0)
(0.00536551 0.0437263 0)
(7.752e-05 0.00310668 0)
(0.00698026 0.0511298 0)
(0.00097285 0.046572 0)
(0.00936822 0.051689 0)
(0.00430134 0.0557601 0)
(9.02076e-05 0.025584 0)
(0.00941634 0.06102 0)
(-5.94457e-06 0.00144208 0)
(-0.000165452 0.0502894 0)
(0.0039473 0.0536307 0)
(0.00214715 0.0593282 0)
(0.00604429 0.0527323 0)
(0.00923186 0.0569472 0)
(1.82853e-05 0.00182533 0)
(0.00883226 0.0466398 0)
(0.00682054 0.0769985 0)
(-4.99859e-06 0.000772346 0)
(0.00412256 0.0286061 0)
(0.00439561 0.0556178 0)
(0.000237663 0.00342097 0)
(0.00344089 0.0251606 0)
(0.00567226 0.0212641 0)
(0.00123687 0.0534908 0)
(-1.34833e-05 0.0195452 0)
(0.00498931 0.0741277 0)
(0.0069905 0.0716557 0)
(0.000537902 0.0200232 0)
(0.00936367 0.0529006 0)
(0.00786043 0.0332958 0)
(0.00759188 0.0397695 0)
(0.00684802 0.072436 0)
(0.0025603 0.045411 0)
(0.00879479 0.0489149 0)
(0.00155784 0.0706583 0)
(5.6691e-05 0.00689908 0)
(0.00712324 0.0656051 0)
(0.00511971 0.0705912 0)
(0.00827875 0.042942 0)
(0.00101665 0.0296014 0)
(0.00072682 0.0235093 0)
(0.00107328 0.0330143 0)
(0.00931148 0.0714358 0)
(0.00530506 0.0422832 0)
(0.000253514 0.0259962 0)
(0.00857063 0.0424665 0)
(0.00158649 0.0333112 0)
(0.000783557 0.0265434 0)
(0.00611538 0.0721136 0)
(0.00171957 0.0704387 0)
(0.000966472 0.053441 0)
(0.000599674 0.0703772 0)
(0.00298931 0.0655521 0)
(0.00945622 0.0524489 0)
(0.00573425 0.0203671 0)
(0.00132525 0.0486768 0)
(0.00771029 0.0748468 0)
(0.000151662 0.0266547 0)
(0.000131666 0.0338782 0)
(9.8665e-06 0.00153596 0)
(3.01851e-05 0.00261249 0)
(0.00562974 0.0296363 0)
(0.00413984 0.0565467 0)
(0.0024441 0.0658915 0)
(0.000985951 0.0291664 0)
(-3.46348e-05 0.0070549 0)
(0.00122347 0.0402397 0)
(-0.000165421 0.0434643 0)
(0.00402852 0.0536223 0)
(0.00760682 0.0419375 0)
(-9.56505e-06 0.00843062 0)
(0.00775425 0.0654337 0)
(0.00213906 0.0549697 0)
(0.00606332 0.0777582 0)
(0.000937281 0.0538819 0)
(7.50134e-06 0.00113438 0)
(0.00838072 0.0791648 0)
(0.00528101 0.0447979 0)
(0.00937869 0.0646608 0)
(0.00757748 0.0276493 0)
(0.000725226 0.0546429 0)
(0.00125227 0.0457455 0)
(0.000562236 0.0254076 0)
(0.00405841 0.0276679 0)
(0.00926291 0.0686361 0)
(0.00683834 0.0520332 0)
(0.000914041 0.0620011 0)
(0.000545061 0.0698349 0)
(0.00335559 0.0243598 0)
(0.00824739 0.043983 0)
(-6.12578e-07 0.000275035 0)
(0.000208183 0.032022 0)
(-0.000136329 0.0366555 0)
(-8.83428e-07 0.000381283 0)
(0.00455288 0.0788348 0)
(0.00712445 0.0376097 0)
(0.00070451 0.0550372 0)
(0.00789873 0.0679434 0)
(0.000261691 0.0486766 0)
(9.62294e-05 0.0119457 0)
(4.48976e-05 0.0031605 0)
(0.00432425 0.0715265 0)
(0.000564892 0.0208407 0)
(0.00334682 0.0421309 0)
(0.0044122 0.0505353 0)
(0.00165309 0.0383958 0)
(0.00854084 0.0435643 0)
(9.18685e-05 0.01146 0)
(0.00166764 0.0669135 0)
(0.00337911 0.0475847 0)
(0.00926258 0.0760145 0)
(0.00939131 0.0634275 0)
(0.000326257 0.0511885 0)
(0.00942956 0.0545859 0)
(0.000405763 0.0709636 0)
(0.00926028 0.0764262 0)
(0.00023089 0.0499762 0)
(0.000506836 0.0150493 0)
(0.000154849 0.0245281 0)
(0.004776 0.0299554 0)
(0.00484405 0.0467039 0)
(0.00182926 0.0225992 0)
(0.00690887 0.0519965 0)
(0.00243195 0.0308265 0)
(0.000951151 0.0630067 0)
(0.00340899 0.0426913 0)
(0.00888046 0.069894 0)
(0.00529771 0.0413907 0)
(0.00832055 0.0374311 0)
(0.00415403 0.0707012 0)
(0.000589525 0.0274352 0)
(0.00420351 0.0649133 0)
(0.00522656 0.0453138 0)
(0.00020922 0.0279115 0)
(0.00645754 0.0509362 0)
(-1.58984e-05 0.00816296 0)
(0.00947921 0.0532249 0)
(0.00680335 0.0686498 0)
(-3.1549e-05 0.0063711 0)
(0.000723711 0.0288916 0)
(0.00427645 0.0100815 0)
(0.001663 0.0429779 0)
(0.00123849 0.0409129 0)
(0.00450669 0.0783114 0)
(0.000559787 0.0159109 0)
(0.00205988 0.0699846 0)
(0.00165498 0.0290589 0)
(-6.38322e-05 0.0105514 0)
(0.00197446 0.0536096 0)
(0.00208726 0.0328219 0)
(0.00885183 0.0470158 0)
(0.000189153 0.0340002 0)
(0.000596397 0.0167678 0)
(-0.000105839 0.0167385 0)
(0.00575102 0.0767921 0)
(0.0032041 0.054031 0)
(0.00789587 0.0644917 0)
(0.000502101 0.0205869 0)
(0.00223912 0.0697225 0)
(-2.06175e-05 0.00799421 0)
(0.00129438 0.0411402 0)
(0.00920344 0.0776746 0)
(3.65051e-05 0.00260618 0)
(0.00598272 0.0383195 0)
(0.00814612 0.064543 0)
(0.00923216 0.0771586 0)
(-2.24229e-05 0.00808579 0)
(0.00012583 0.0495596 0)
(0.00770898 0.0752506 0)
(5.76153e-05 0.019776 0)
(0.00162851 0.047053 0)
(0.00168664 0.039135 0)
(0.00890319 0.0702826 0)
(0.0039944 0.0111461 0)
(0.00853684 0.0640915 0)
(0.00486257 0.0349908 0)
(0.00946168 0.0557776 0)
(0.00204935 0.0543384 0)
(0.00260842 0.0752236 0)
(0.000926677 0.0331917 0)
(-9.02052e-06 0.00588326 0)
(-5.03712e-05 0.00957071 0)
(0.000321202 0.00390463 0)
(-5.0466e-06 0.00124652 0)
(0.0093843 0.0600275 0)
(0.00391561 0.0508982 0)
(0.000991073 0.019805 0)
(0.000101246 0.0512089 0)
(5.06543e-05 0.0195063 0)
(0.000142329 0.024274 0)
(0.00691646 0.0677136 0)
(0.00422172 0.051177 0)
(0.00869898 0.0755144 0)
(0.00446676 0.0645301 0)
(0.00894139 0.0485228 0)
(0.00530472 0.0733994 0)
(0.00686164 0.0399818 0)
(0.00942631 0.0590158 0)
(0.00338579 0.0488411 0)
(0.00702608 0.0666738 0)
(0.0036071 0.0193981 0)
(0.00944538 0.0580517 0)
(-6.21741e-05 0.0105877 0)
(0.00605233 0.0264325 0)
(-2.01634e-05 0.00818333 0)
(0.000225399 0.0270725 0)
(0.00365255 0.0444571 0)
(-1.83604e-05 0.0080873 0)
(6.3723e-05 0.0155095 0)
(0.000165836 0.0212783 0)
(0.00403789 0.0260483 0)
(0.00593287 0.0575374 0)
(5.223e-05 0.00646534 0)
(0.0039551 0.050214 0)
(0.00825199 0.0602285 0)
(0.00519668 0.0787579 0)
(0.0061717 0.0779279 0)
(0.00812304 0.0639377 0)
(0.00171873 0.0432319 0)
(-5.1863e-05 0.00979664 0)
(0.00224932 0.0282826 0)
(0.00781855 0.074501 0)
(-0.000149734 0.0374954 0)
(0.0094789 0.0547471 0)
(2.21837e-05 0.0101231 0)
(0.000540517 0.015877 0)
(0.000834836 0.00602086 0)
(0.00283621 0.0418309 0)
(2.22104e-05 0.00983375 0)
(-1.52254e-05 0.00881681 0)
(0.00273027 0.0270218 0)
(0.0057176 0.0629852 0)
(0.00101899 0.0198324 0)
(0.0079269 0.0799851 0)
(0.000146051 0.0508078 0)
(0.00110212 0.0248578 0)
(0.00924806 0.0687023 0)
(0.00373006 0.0197016 0)
(0.000986483 0.0329715 0)
(0.000177968 0.0326826 0)
(0.00903584 0.0778523 0)
(0.00397949 0.0679757 0)
(8.46554e-07 0.000929587 0)
(-0.000112665 0.017659 0)
(0.000498696 0.0284848 0)
(0.000870457 0.0322335 0)
(0.00935894 0.0541629 0)
(0.000154944 0.0250538 0)
(0.00104089 0.0701368 0)
(0.00606075 0.0385483 0)
(0.000613733 0.0552119 0)
(0.000791041 0.0251972 0)
(0.000120961 0.0197715 0)
(0.00383874 0.0609591 0)
(0.000326738 0.0486307 0)
(0.00497303 0.0484435 0)
(0.00930703 0.0708064 0)
(0.000211982 0.0354723 0)
(0.000159498 0.00326908 0)
(0.00157632 0.0474214 0)
(0.00438633 0.0118664 0)
(0.00069545 0.0226918 0)
(0.00874672 0.0572316 0)
(0.00846279 0.0385998 0)
(0.00524336 0.0539392 0)
(0.00937829 0.0643253 0)
(0.00785346 0.079895 0)
(0.000354667 0.0481664 0)
(0.00877493 0.0575903 0)
(0.000151612 0.0205009 0)
(0.00942805 0.0596679 0)
(0.000109758 0.0190442 0)
(0.0031786 0.077089 0)
(0.00582232 0.0681631 0)
(0.00747044 0.0424985 0)
(0.00488633 0.0477775 0)
(0.00227548 0.0755786 0)
(0.000228855 0.0724178 0)
(0.00937691 0.0557081 0)
(-2.60704e-05 0.00758623 0)
(-0.000221717 0.0440815 0)
(-1.77525e-05 0.00827234 0)
(0.00247865 0.0306507 0)
(0.00849068 0.0391525 0)
(0.00333102 0.0470266 0)
(0.00477911 0.0347935 0)
(0.00288473 0.0729175 0)
(0.00927591 0.0745566 0)
(0.000112273 0.0195872 0)
(0.00816403 0.0330767 0)
(0.00931883 0.070321 0)
(-3.2714e-07 0.000195506 0)
(1.87779e-05 0.00871442 0)
(-0.000240718 0.0514565 0)
(0.0077362 0.0786799 0)
(0.00486454 0.0458964 0)
(-5.5804e-07 0.000345292 0)
(0.00694731 0.048038 0)
(0.00523228 0.0237735 0)
(0.00081486 0.031323 0)
(0.00118044 0.0532547 0)
(0.00294571 0.0560001 0)
(0.00471959 0.0290378 0)
(-0.000229115 0.0398915 0)
(-2.60872e-05 0.00780522 0)
(-4.6422e-05 0.0181361 0)
(-0.000126892 0.0371 0)
(0.000221025 0.0350521 0)
(0.00942189 0.0603816 0)
(0.00591322 0.0275627 0)
(0.00521613 0.0411753 0)
(-3.85916e-05 0.00917684 0)
(0.00918945 0.0782797 0)
(-4.42683e-05 0.00923613 0)
(-3.05986e-05 0.00770126 0)
(0.00344256 0.0613379 0)
(0.0066095 0.0218232 0)
(0.00605048 0.0393796 0)
(-2.27404e-05 0.00789609 0)
(0.00580635 0.0777912 0)
(7.79574e-05 0.0257367 0)
(0.00145116 0.0435755 0)
(0.00787937 0.0583847 0)
(0.00180011 0.0324683 0)
(-3.9964e-06 0.000629595 0)
(0.00760673 0.065779 0)
(0.00881348 0.0597725 0)
(0.00886415 0.0454038 0)
(0.00562271 0.0754276 0)
(-9.60615e-05 0.0178224 0)
(0.00401169 0.0765429 0)
(0.00928683 0.0695311 0)
(8.14265e-05 0.00176698 0)
(0.00581784 0.075359 0)
(1.90078e-05 0.00900989 0)
(0.00576449 0.0675122 0)
(0.00621927 0.0695812 0)
(-0.000167202 0.0365981 0)
(0.00640832 0.0478041 0)
(0.000195575 0.0270087 0)
(0.00583216 0.0529387 0)
(0.000778974 0.0627548 0)
(0.00362898 0.0514857 0)
(0.00510456 0.078206 0)
(0.0063058 0.0602298 0)
(0.0051823 0.0708794 0)
(0.0038945 0.0774722 0)
(3.22152e-05 0.00287869 0)
(0.00906328 0.0511437 0)
(0.00425173 0.0521858 0)
(0.0028951 0.0424447 0)
(0.000352689 0.0376766 0)
(-4.24304e-05 0.0178103 0)
(-1.12099e-05 0.00651307 0)
(0.000449489 0.0183039 0)
(0.00494642 0.0479095 0)
(0.00938714 0.0558467 0)
(0.00100271 0.0209567 0)
(0.00381895 0.0511157 0)
(0.00760408 0.0285301 0)
(0.00347376 0.0487226 0)
(0.00386746 0.0376019 0)
(0.00437789 0.0708783 0)
(0.00894149 0.046951 0)
(0.00150735 0.0437979 0)
(0.000673874 0.0279767 0)
(0.00179964 0.0666987 0)
(-3.76602e-05 0.00925472 0)
(0.00194709 0.0594775 0)
(0.00942526 0.058866 0)
(0.00563128 0.0323893 0)
(0.0039455 0.0148203 0)
(0.000473717 0.0719928 0)
(0.000269986 0.0263012 0)
(0.00377648 0.0517735 0)
(0.00926994 0.0699709 0)
(0.00942791 0.0597592 0)
(0.00128704 0.0519246 0)
(0.00555137 0.0676542 0)
(0.00334371 0.0572835 0)
(0.00940614 0.0620425 0)
(0.00192672 0.0695117 0)
(0.00392194 0.0617973 0)
(0.00852694 0.0742907 0)
(0.000761792 0.0303929 0)
(0.00654807 0.0693044 0)
(0.00542607 0.0786571 0)
(0.00862555 0.0683085 0)
(-0.000222699 0.0386233 0)
(0.000195921 0.0602932 0)
(1.98204e-05 0.0125754 0)
(0.00195068 0.0407697 0)
(0.000253276 0.00174904 0)
(0.00391647 0.0382629 0)
(0.00197822 0.0420922 0)
(0.00935417 0.0526733 0)
(3.45453e-05 0.00257261 0)
(0.00653685 0.0631865 0)
(0.000179883 0.0120852 0)
(0.00884395 0.0448947 0)
(0.00575413 0.0782003 0)
(0.00412377 0.0514884 0)
(0.00521005 0.0762907 0)
(0.000378341 0.0704469 0)
(0.00404842 0.0165784 0)
(0.00898362 0.0479426 0)
(0.00278241 0.0561745 0)
(0.00420309 0.0500856 0)
(0.0034209 0.0264777 0)
(0.00945169 0.0573558 0)
(0.00769348 0.0643821 0)
(0.00927545 0.0743376 0)
(0.00466751 0.0583264 0)
(0.00306978 0.0785893 0)
(0.00496171 0.0707441 0)
(-2.13928e-05 0.00762399 0)
(0.000352847 0.0515707 0)
(0.00647731 0.0597317 0)
(-2.91887e-05 0.00788403 0)
(0.00209914 0.0336048 0)
(0.00430502 0.0741 0)
(0.0034699 0.0261327 0)
(0.00423765 0.0564196 0)
(0.00326662 0.0626815 0)
(0.00297169 0.0555648 0)
(0.00669218 0.0215305 0)
(0.00790008 0.0589129 0)
(0.00260946 0.074971 0)
(0.00207853 0.0253794 0)
(0.00439905 0.0735235 0)
(0.000603749 0.0555919 0)