/*--------------------------------*- C++ -*----------------------------------*\
| =========                 |                                                 |
| \\      /  F ield         | OpenFOAM: The Open Source CFD Toolbox           |
|  \\    /   O peration     | Version:  v2012                                 |
|   \\  /    A nd           | Website:  www.openfoam.com                      |
|    \\/     M anipulation  |                                                 |
\*---------------------------------------------------------------------------*/
FoamFile
{
    version     2.0;
    format      ascii;
    class       volVectorField;
    location    "1000";
    object      ddt0(U);
}
// * * * * * * * * * * * * * * * * * * * * * * * * * * * * * * * * * * * * * //

dimensions      [0 1 -2 0 0 0 0];


internalField   nonuniform List<vector> 
13851
(
(-0.00914774 -0.00887226 7.11822e-17)
(-0.00218907 -0.00170573 3.79065e-18)
(-0.00234938 -0.00171044 -3.12424e-18)
(0.00189174 0.000576124 -3.31767e-17)
(0.000471844 1.75325e-05 3.84138e-19)
(-0.00298762 -0.00122336 1.00777e-17)
(-0.00100524 -0.00370247 8.61002e-20)
(0.000210725 -4.89946e-06 7.8837e-19)
(0.012426 -0.000385783 2.85508e-17)
(8.64106e-05 0.00114054 1.07793e-18)
(-0.006304 0.000742564 4.57529e-17)
(0.000233603 0.000439953 2.07819e-18)
(-4.68222e-05 0.00165394 1.10359e-19)
(0.0152641 0.000728726 2.58485e-18)
(-0.00412729 -0.00504091 2.81585e-17)
(-0.00265767 -0.0123838 -5.76202e-18)
(0.00641339 0.00143962 -1.73747e-17)
(-0.000621896 -0.000525638 4.38785e-19)
(0.0164274 -0.00600125 1.61179e-17)
(-0.00944663 -0.00857731 -4.22846e-17)
(-0.00499782 -0.00461217 7.88272e-17)
(-0.00181226 0.00139615 2.11001e-18)
(0.0190479 -0.00639156 -2.00895e-17)
(8.33055e-05 9.93923e-06 -5.8953e-20)
(0.0233314 -0.00267272 9.00805e-17)
(-0.00270155 -0.0095903 8.71301e-18)
(0.000823866 -0.00863438 2.60186e-17)
(0.0146574 -0.00228348 -2.66275e-17)
(0.00881473 -0.00161239 -3.03496e-17)
(-0.000121986 -0.00013125 2.6611e-18)
(0.00520797 0.0019916 4.28245e-17)
(-0.00123055 -0.00364889 -9.89637e-18)
(-0.00757509 -0.00941312 1.02928e-17)
(0.0121998 -0.000295411 2.51503e-17)
(-0.00577943 0.000295679 -1.66485e-17)
(0.00788851 -0.00186141 -3.75294e-18)
(1.16589e-05 8.98046e-06 6.74519e-20)
(0.028789 -0.00522416 -4.94252e-18)
(0.00929417 0.00150966 -4.69207e-17)
(-0.000247605 0.00104694 7.56452e-19)
(0.0124813 0.000939243 2.23016e-17)
(0.00831154 -0.0018754 2.691e-17)
(0.00208305 0.000876865 1.42012e-17)
(-0.00362819 0.0073494 2.6767e-17)
(0.00861121 -0.00191954 -3.73362e-17)
(-6.33891e-05 0.00041881 1.63658e-18)
(-0.000236195 -0.000115059 3.17959e-18)
(-0.00347464 -0.0125324 -9.45117e-18)
(-0.00145599 0.000375113 2.163e-19)
(-0.000126388 0.0016547 -2.69529e-18)
(0.0116333 0.00138761 -2.26935e-17)
(3.66037e-05 0.00179712 -4.2402e-18)
(-0.0024432 -0.0122599 -2.1167e-18)
(-0.00213828 -0.00569283 8.20983e-18)
(0.0143801 0.000492222 -1.94771e-18)
(-0.000266511 0.0010703 -7.83869e-19)
(-0.00796104 -0.00945474 -3.85436e-18)
(0.012516 0.00101037 -3.89935e-17)
(-0.00274664 -0.00896363 4.48262e-17)
(0.0152754 0.00097197 1.69117e-17)
(0.000251476 0.000422977 -1.69187e-18)
(0.000153297 -0.00921349 5.09463e-17)
(6.39898e-05 0.000815379 4.1379e-18)
(-0.00135529 0.000407776 -5.21875e-18)
(-0.00256174 0.00697939 -6.06261e-18)
(-0.00234292 0.00708595 2.70054e-18)
(0.0156307 0.00106515 -2.13768e-17)
(-0.000955929 0.00571189 8.05164e-17)
(-0.000651285 0.000634354 -2.12528e-18)
(0.00237306 0.00114146 -8.13598e-17)
(0.00565214 0.00170073 6.56639e-17)
(-0.00591237 -0.00492982 -3.23691e-17)
(-7.58937e-05 0.00128338 -7.97971e-18)
(0.0154958 0.000955839 -1.16526e-17)
(-0.0027169 -0.00568798 -1.79178e-17)
(-0.0011281 0.00135601 -8.5415e-19)
(0.00632359 0.00150309 1.60488e-17)
(-0.000102031 -0.000315161 4.34257e-18)
(0.0234319 -0.00310388 -7.40101e-17)
(0.000133072 0.000655647 -6.42699e-19)
(-0.000620466 0.000607491 1.1089e-18)
(-0.0104548 0.00104186 5.6413e-19)
(-0.0050998 0.000302882 3.93934e-17)
(0.0154103 0.000761921 1.90068e-17)
(0.0153292 0.000932175 8.68814e-18)
(0.00539182 0.0018855 1.29014e-17)
(-0.00196183 0.00137872 -1.00464e-17)
(0.011826 0.000184534 3.52483e-17)
(0.000117582 0.00115097 -2.89222e-19)
(0.0051105 0.00205512 4.22649e-17)
(-2.14344e-05 0.00192396 7.41054e-18)
(-0.00130575 -0.0037158 1.31026e-17)
(0.00706187 0.00100421 -2.41406e-17)
(0.00499753 0.00185949 -4.44912e-17)
(0.0100999 0.00145955 -2.00612e-18)
(-0.00404115 0.00681902 -1.13583e-17)
(-5.02267e-05 0.00063053 4.18052e-19)
(-0.00260433 -0.0125301 1.68105e-17)
(0.0135489 0.00136756 3.49679e-17)
(-0.0074401 0.00350945 1.17141e-17)
(-0.0033356 -0.0126028 -3.26214e-17)
(-0.00106838 0.00471117 -5.39988e-17)
(-0.00118422 0.00501699 -6.68741e-18)
(-0.000175185 0.00144028 3.51429e-18)
(-0.000273933 0.000272208 -6.15507e-19)
(-0.00602002 -0.00374557 1.01228e-17)
(-0.000199143 0.000300931 -6.89083e-19)
(0.0056246 0.00173489 -1.28151e-16)
(-0.00133652 -0.00364489 2.83832e-18)
(-0.000502775 -0.00051849 2.80363e-18)
(-0.00200078 0.00238147 7.63253e-19)
(-0.00010336 0.000396425 -3.65486e-18)
(-0.0100526 -0.00222366 1.41376e-17)
(-0.00683435 -0.00143692 -1.40469e-17)
(-0.00717218 -0.0104008 5.62187e-18)
(-0.00190895 -0.00551302 -7.52271e-18)
(0.000104881 5.8895e-06 1.3872e-18)
(0.000197695 -1.08975e-05 2.78737e-18)
(0.00176226 0.000632217 4.59533e-17)
(0.00274133 0.00102728 2.71339e-17)
(-0.00433826 0.00592685 -1.49879e-17)
(-0.000424219 -0.000364014 -6.80947e-19)
(-0.000471285 0.000796763 -8.06793e-19)
(0.0142612 0.000711837 -2.02372e-17)
(0.00924733 -0.0071206 -8.24757e-17)
(-0.00122968 0.00662227 -3.64478e-17)
(0.000106536 0.000611911 -1.04344e-18)
(-0.00482216 0.00220258 -4.94795e-18)
(0.0129824 0.000496801 2.11363e-17)
(-0.00486549 -0.0056641 -2.81341e-17)
(-0.00176882 0.00149382 2.60164e-19)
(-0.00341059 -0.000338418 2.17198e-17)
(0.0305016 -0.00657459 3.92279e-17)
(0.0123585 -8.26958e-05 -2.62311e-17)
(-0.00664896 0.00067322 -4.2399e-17)
(0.00984996 0.00147433 -3.0369e-18)
(-0.000871841 0.00558377 -6.00313e-17)
(0.00541428 0.00181356 -2.1224e-17)
(-0.000662919 0.00420406 -3.36465e-17)
(-0.00486896 -0.00596882 -3.60647e-18)
(-0.0132746 0.00191421 -7.2561e-18)
(-0.000386311 0.00199035 -1.21645e-17)
(0.00011361 0.00118713 -1.62272e-18)
(-0.00192723 0.00650461 -3.73384e-17)
(0.021725 -0.00265866 -2.9672e-18)
(-0.00102618 0.0016041 1.01601e-19)
(-5.64954e-05 -0.000311605 -2.59278e-18)
(0.00488722 0.0019186 -3.9244e-17)
(0.0118405 -0.000494286 -9.20236e-18)
(-0.00521623 0.00230334 1.31994e-17)
(-0.00293167 -0.013412 -2.51656e-17)
(-0.0103091 -0.00203667 -1.80348e-17)
(-0.00711837 -0.00146165 -6.96472e-18)
(0.00168314 -0.00555135 -2.1495e-17)
(-0.000111685 0.00187471 -1.05657e-17)
(3.3879e-05 0.00148341 -5.7002e-18)
(0.000222012 0.000338181 -1.56022e-18)
(0.00913961 0.00153347 6.26524e-17)
(-0.00474778 -0.00560828 -2.4978e-17)
(-0.00164325 -0.00297834 5.34568e-18)
(0.000124384 2.31245e-05 8.05567e-21)
(0.00841596 -0.00166529 -1.74079e-17)
(-0.00512949 -0.00383396 -1.40381e-17)
(-0.00376435 -0.0125281 5.90326e-18)
(0.0151964 0.00071157 -4.88595e-18)
(0.0110479 -0.000897258 -1.32623e-17)
(0.0110962 -0.00100542 -1.80861e-17)
(0.0115077 0.00139334 -1.18663e-17)
(-0.00203578 0.002261 1.80654e-18)
(0.0126763 0.000478888 -4.02957e-17)
(0.000251527 0.000406815 -1.61656e-18)
(0.000214903 -1.0798e-06 -5.78693e-18)
(-0.00648287 -0.00343453 1.01666e-17)
(0.000409577 1.75338e-05 3.69369e-19)
(0.00999513 0.00146185 3.7431e-18)
(0.00394111 -0.0072837 7.03646e-17)
(-0.00516 -0.0134377 2.3948e-17)
(0.000240643 -2.23506e-05 3.31628e-18)
(-0.00273859 -0.00579346 -1.92708e-18)
(-0.00455627 -0.0132366 -9.67668e-18)
(0.00491466 -0.00747117 1.03495e-16)
(-0.00425315 0.00741087 5.49647e-18)
(-0.00200289 0.00203367 -3.80222e-18)
(-0.00475656 -0.00568216 2.13916e-17)
(0.00364089 0.000921176 1.64038e-17)
(0.0116433 -0.000578491 3.72647e-17)
(-0.00752735 -0.0096646 -2.71489e-17)
(-0.000399595 0.00357051 -1.08589e-17)
(-0.000122196 0.00180983 -1.23528e-17)
(-0.00017207 6.5844e-05 4.03598e-18)
(0.0208591 -0.00322717 8.0979e-18)
(-0.00481082 -0.00549422 -2.0357e-17)
(0.0157347 0.00087311 8.68336e-18)
(-0.00301102 -0.0013621 9.19036e-18)
(-0.000961033 0.0015311 -8.7517e-20)
(-0.00253319 -0.0124361 1.40625e-17)
(-0.00757224 -0.00958721 3.20994e-17)
(-0.000999955 -0.00137321 -5.50283e-18)
(-0.000935 -0.000447466 4.57602e-18)
(-0.00109718 0.00582929 3.43484e-17)
(-0.0126815 0.00223771 5.10736e-18)
(0.0111767 0.00146195 2.19524e-18)
(0.0124562 0.00114884 -4.50837e-17)
(-0.0040985 -0.00509472 -1.42363e-18)
(0.00227696 0.00673666 -1.75848e-17)
(0.0113581 0.00146132 2.45202e-17)
(-0.000106998 0.00264934 1.72824e-18)
(-0.00422038 -0.00667493 -6.56057e-18)
(0.0125033 -0.000356589 -2.65107e-17)
(-0.00261003 -0.000766913 -7.88363e-18)
(-0.00187335 -0.012166 2.64158e-17)
(-0.000454645 0.00079634 1.02253e-18)
(-0.01148 0.00180161 2.96639e-19)
(-4.74385e-05 0.000133723 -1.02611e-20)
(-0.00559547 -5.21731e-05 2.99496e-17)
(-0.00136792 0.00142235 1.55406e-18)
(-0.000107916 0.00159688 8.58223e-18)
(0.00394876 -0.00949544 -2.91757e-17)
(-0.00103569 -0.0009367 -6.56731e-18)
(-0.00207986 0.00962418 8.15824e-17)
(9.58831e-05 -2.83567e-05 -2.57163e-19)
(-0.00935608 -0.00816815 -1.43669e-17)
(0.0158207 0.000793718 -1.33236e-17)
(0.0100079 0.00147868 2.56053e-17)
(-0.000641167 0.00348248 2.13193e-18)
(-0.00430664 -0.00681562 1.22548e-17)
(-3.18623e-05 6.67373e-05 6.92902e-19)
(-0.00178639 0.00630505 1.48732e-17)
(0.000205036 0.000645345 1.08027e-18)
(-0.0058589 5.87247e-05 -3.10738e-17)
(0.00444737 -0.000130135 3.19215e-18)
(-0.000401935 0.00351856 1.38759e-17)
(-0.00259456 -0.00086095 3.76542e-18)
(3.53849e-05 0.00076692 -6.77946e-18)
(0.0126547 0.00110971 7.52181e-17)
(-0.000133959 -0.000165101 -4.10177e-18)
(0.0177074 -0.00550744 2.03008e-17)
(0.0123625 0.00121882 -3.16178e-17)
(-0.00712587 0.00337539 -3.39942e-17)
(4.7424e-05 2.22265e-05 -5.14894e-22)
(-0.00251084 0.00222314 1.27691e-17)
(0.0155382 0.00100612 1.05351e-16)
(0.00813936 -0.00212971 4.48763e-17)
(-0.00228252 -0.0122081 -2.8224e-17)
(-0.00495066 -0.00311511 7.88396e-18)
(-0.00199746 0.00688079 -4.17798e-17)
(-0.00699412 -0.00924342 -5.61207e-17)
(-0.0025597 -0.00591083 -3.16067e-19)
(-0.00402177 0.00661209 2.19693e-17)
(-0.00231797 0.00215658 4.83008e-18)
(0.0133399 0.000391489 -6.27177e-19)
(-0.00876597 -0.00562163 -5.19455e-17)
(0.000370814 7.09957e-06 -2.53746e-18)
(-0.00301506 -0.00255294 -1.84691e-17)
(-0.0026649 -0.0128522 -1.4823e-18)
(0.00855362 -0.00150006 1.45861e-17)
(0.00920188 -0.000257388 9.53805e-19)
(-0.000188937 6.20575e-05 -1.65165e-18)
(-0.0010168 0.00665961 5.84378e-17)
(5.02557e-05 0.00112349 2.46041e-18)
(-0.00574768 -0.0108492 -1.23098e-17)
(0.00443436 -0.00644746 -7.18675e-18)
(-0.00315312 -0.00262954 2.03801e-17)
(-0.00516196 -0.00406959 -2.41788e-17)
(-0.00987257 -0.00549104 5.04449e-17)
(-3.3045e-05 0.0010451 -6.37211e-19)
(-0.00126663 0.00489496 1.3893e-17)
(-0.00401031 -0.0117111 -2.29842e-17)
(0.012807 -0.00344668 -3.28852e-17)
(0.000186199 0.00072438 -4.48631e-18)
(-0.000122498 0.00159836 -9.34961e-18)
(-0.000526151 0.00353544 -1.4591e-17)
(0.0116812 -0.000755036 6.27659e-19)
(0.00119927 0.000922045 5.62168e-17)
(-0.00544983 -0.00503457 1.64931e-17)
(-0.000496416 -0.000384909 1.70687e-18)
(0.00921827 -0.00772799 7.7108e-17)
(0.00318056 -0.00600849 3.67063e-17)
(-0.00710702 -0.00972875 2.73219e-17)
(-0.00537675 -0.00412752 2.1033e-17)
(0.011942 -0.000611538 -4.08585e-18)
(0.0143308 0.00124516 1.41381e-17)
(-0.00313419 -0.00221665 4.07141e-18)
(-0.00394209 -0.00472469 1.13888e-17)
(0.0313127 -0.00555829 -2.26678e-18)
(-9.70968e-05 0.000163211 1.93112e-18)
(0.000219581 0.000311006 3.36538e-19)
(-0.0074721 -0.00973498 1.06485e-17)
(-0.00572319 0.00123451 1.42403e-17)
(-0.000186684 -0.000214263 6.06285e-19)
(5.18727e-05 0.000126019 -4.83097e-20)
(0.00028661 0.000667924 8.75374e-19)
(0.000550532 2.13835e-05 -4.76199e-19)
(-0.0042855 -0.00372623 -2.117e-17)
(0.000231151 0.000334065 1.07412e-18)
(0.0123825 -0.000500926 -3.52498e-17)
(-0.00543259 -0.00473273 1.58316e-17)
(-0.000118647 0.000761405 3.27938e-19)
(0.00830323 -0.0016351 2.81057e-18)
(0.0144462 0.000730076 2.07012e-17)
(-8.17955e-06 0.00179819 2.82718e-18)
(-0.00966546 -0.00844617 -5.94822e-18)
(0.0126576 0.00135883 -5.48328e-17)
(-0.000432787 0.00203603 3.79183e-18)
(-7.64386e-05 0.00182318 -4.19085e-18)
(-0.00530744 -0.00470823 -3.27282e-18)
(0.0156249 0.000815608 -2.11426e-17)
(0.00991074 0.00106881 1.0206e-16)
(-0.00718441 -0.00422892 -1.01064e-17)
(0.000487017 2.23286e-05 8.16075e-19)
(0.0128792 0.00039569 3.12234e-17)
(0.000230949 0.000425918 -1.25288e-18)
(-0.00726332 -0.00413068 -7.80054e-19)
(0.0124991 0.00136176 5.0554e-17)
(0.0120267 -0.00376031 -5.66804e-17)
(-0.00154867 -0.00290929 -1.72585e-19)
(0.032537 -0.00676773 -2.28511e-17)
(0.0231035 -0.00571097 -1.2073e-17)
(0.00613266 0.0016246 -3.47001e-17)
(-0.00991945 -0.00169343 -2.17074e-17)
(-0.000846774 0.00490871 -3.02897e-17)
(0.00977772 0.00145653 -1.99507e-17)
(0.0137037 0.000599893 7.22636e-18)
(0.0147899 -0.0024381 7.34981e-17)
(-0.0010601 -0.000461965 -6.00338e-18)
(0.00488773 0.00159621 7.69491e-17)
(0.00883143 0.000402077 -3.50454e-17)
(-0.00166205 0.00865641 -8.89114e-18)
(-0.00208583 0.0086142 1.18719e-17)
(-0.000181761 0.00267038 3.14934e-18)
(-0.00696858 -0.0036862 2.71884e-18)
(-0.00123205 0.00321518 1.07568e-17)
(0.0115445 0.000106219 1.22247e-17)
(-0.00138866 0.00526461 2.67021e-17)
(0.000438699 3.67055e-05 3.88121e-19)
(-0.000234714 -0.000130983 -3.4225e-18)
(-0.0024804 0.000621872 2.48577e-18)
(0.00596254 0.00161354 2.13359e-17)
(-0.00212006 0.00965788 -1.11234e-16)
(-0.000126167 0.000137377 -1.34574e-18)
(0.010058 0.0014678 -3.75385e-17)
(-0.00111956 0.00334674 -4.25378e-18)
(-0.00366512 -0.000202975 -1.20201e-17)
(-0.00160274 -0.00307085 -1.26919e-17)
(0.0158514 0.000804823 2.45547e-17)
(0.00526887 -0.00764594 -6.49707e-17)
(-0.00279844 -0.012324 -3.00164e-18)
(-0.00127273 0.00143438 1.98756e-18)
(-0.00240535 -0.000830085 -4.43741e-18)
(0.00603623 -0.00223585 1.44268e-17)
(-0.00014722 0.00178552 1.09533e-17)
(0.00722129 -0.00618077 -1.9367e-17)
(-0.00293743 -0.00226511 -4.95946e-18)
(-0.00539109 -0.00459441 6.5525e-18)
(-0.00114648 0.00337006 1.47976e-18)
(7.58053e-05 0.00115297 -5.3019e-19)
(-0.000201761 0.000730568 3.04933e-19)
(-0.00866428 0.000664169 -7.24047e-17)
(-0.00769919 0.00355209 -2.75202e-17)
(-0.00872471 -0.00603382 -1.10733e-17)
(0.0309839 -0.00791904 2.32677e-18)
(0.00600537 -0.00232213 -1.05671e-17)
(-0.00106036 0.00161017 2.26168e-21)
(0.0125674 0.00119784 -2.22024e-17)
(0.00462831 -0.0100004 3.68998e-17)
(-0.000302692 -0.000576628 -1.89606e-18)
(0.0125037 -0.00347411 4.69675e-17)
(-0.00803848 -0.00720963 -2.04256e-17)
(0.0132644 0.00135963 -4.48944e-17)
(-0.00250058 0.000591019 -1.48614e-17)
(-0.00162706 -0.00998926 -5.98292e-17)
(-0.00294942 -0.00963363 1.69021e-18)
(0.0262609 -0.00393785 -6.89892e-17)
(-0.00917588 0.00111934 -4.35101e-17)
(0.0120535 6.4304e-05 -3.98688e-19)
(-0.00130623 -0.000206851 7.45566e-18)
(0.00476362 -0.00677713 -4.06698e-17)
(0.00325827 0.00137731 6.08283e-17)
(-0.00405042 -0.00229747 2.71563e-17)
(0.0130197 0.000200811 3.30381e-17)
(-0.00434543 -0.00227834 7.88138e-18)
(0.0120289 0.00127773 9.25164e-18)
(-0.00365549 -0.00460922 -1.98184e-17)
(-0.00192808 -0.00728836 1.27066e-17)
(-0.0105581 -0.00499374 1.78215e-17)
(-0.00906476 0.00310463 6.57219e-18)
(3.3949e-05 0.00148367 2.55165e-18)
(-0.00309849 -0.00184408 6.89879e-18)
(-0.00564666 0.0012954 -1.26469e-17)
(-0.00273307 -0.00582451 -2.18309e-18)
(-8.16245e-05 0.000532335 3.26726e-20)
(-0.00570286 -0.00520969 -1.9573e-17)
(0.0108079 -0.000834986 1.60059e-19)
(-9.85841e-05 0.00126131 1.46337e-18)
(-0.00441861 -0.00652637 -2.00481e-17)
(0.00166104 0.000697468 -8.03475e-17)
(-0.00212004 -0.000763182 9.45513e-18)
(0.00747128 0.000739695 2.92112e-18)
(-0.00309128 -0.00748278 -6.46775e-18)
(0.0108375 0.000983649 -1.04616e-16)
(-0.00266761 -0.000753407 1.17418e-17)
(-0.00270458 -0.00939452 2.41403e-17)
(-1.41994e-05 0.0128187 2.48752e-17)
(0.00835228 -0.00686385 -6.89213e-18)
(-0.00649821 -0.00333571 -1.1666e-17)
(0.00965269 4.64834e-05 -5.89948e-19)
(0.0157262 0.000994929 -1.12303e-16)
(-0.0104205 0.00691161 -1.50319e-18)
(-4.33117e-05 0.00106684 -2.37372e-18)
(-0.00746701 0.000330866 7.60819e-17)
(-0.00436314 -0.0019256 -4.63175e-17)
(-0.00177174 -0.00986975 1.13267e-17)
(-0.000461073 -0.000238291 3.86874e-18)
(0.00284123 0.000917847 -1.95198e-17)
(0.0113435 -0.000313401 8.34113e-18)
(0.0243229 -0.0030592 -6.66454e-17)
(-0.00242803 -0.000900025 7.5566e-18)
(-0.00992926 -0.00516955 4.54624e-18)
(0.000938591 -0.00861158 -2.03903e-17)
(0.00142414 0.000828372 -6.15567e-17)
(-0.000231888 -0.000544423 -9.63947e-18)
(0.00487187 0.0014991 -4.1724e-17)
(-0.0106444 0.00365157 1.49132e-17)
(0.0144938 -0.0060508 -3.34919e-17)
(-0.00256025 0.0022015 -3.3303e-18)
(0.0176502 -0.00189699 6.73999e-17)
(2.05653e-05 0.00138769 2.77514e-18)
(0.000412558 1.49535e-05 -1.64572e-19)
(0.01465 0.000619921 2.71739e-17)
(0.00173245 -0.00825458 -1.91451e-17)
(7.2951e-05 0.00117545 3.56628e-18)
(-0.00226076 -0.00161856 8.97584e-18)
(-0.00451834 -0.00657124 2.19302e-17)
(0.00014451 7.60884e-05 -2.8469e-18)
(0.0111699 -0.00051311 5.86255e-17)
(-0.00719523 -0.00385449 1.28022e-17)
(-0.00782364 -0.00705035 3.02728e-17)
(-0.00256388 -0.0034398 1.08946e-17)
(-0.00121814 -0.000273633 -2.55277e-18)
(-2.36299e-05 0.00182999 -4.06047e-18)
(0.0275211 -0.00459551 6.34865e-17)
(-0.000114328 0.000791807 4.36208e-20)
(-1.97919e-05 0.0018018 1.00457e-17)
(0.00227227 -0.00472318 -2.25178e-17)
(0.0107536 -0.000949835 7.14889e-18)
(-0.00156584 0.00148835 1.98939e-19)
(-0.00314856 -0.0105383 -1.96043e-18)
(-8.78008e-06 0.00080325 -7.30411e-19)
(0.000268762 0.000306752 -2.56315e-19)
(-0.00225507 -0.000777597 -3.01203e-18)
(-0.00882687 -0.00593041 2.37875e-17)
(-0.00243244 -0.00757352 -3.22816e-17)
(-0.000237386 0.000579307 1.4719e-18)
(-0.00154627 -0.000846822 -6.61677e-18)
(-0.00457456 0.00588923 1.5364e-17)
(-0.00191236 -0.00175328 3.68193e-18)
(0.0117047 0.000905001 -5.77349e-17)
(0.000282678 0.000398024 -1.76033e-18)
(-0.0021586 -0.00446411 -1.35915e-18)
(0.00864779 -0.00195607 1.96523e-17)
(-0.00154421 0.003811 5.83502e-18)
(-9.82534e-05 -0.000104918 2.63604e-18)
(0.000241172 0.000413569 -1.79065e-18)
(-0.00293934 -0.00333581 -2.69814e-19)
(-0.00121981 -0.00155975 -2.48594e-17)
(-0.00711827 0.00767905 -3.43645e-17)
(0.00331878 -0.00414047 -2.46989e-18)
(-0.00466109 -0.00325609 -3.72943e-18)
(-0.00310967 0.0127234 -1.51673e-17)
(-0.00229928 -0.000890471 1.26867e-18)
(0.000212903 0.000618414 -7.6017e-19)
(0.0129651 0.000117869 3.54349e-17)
(-0.00273517 -0.00985601 2.42282e-17)
(-0.00123568 0.00411991 -1.80935e-17)
(-0.000135569 0.00127194 3.62509e-18)
(0.0139087 0.000622076 -8.16488e-18)
(-0.000813616 0.00419272 -1.6158e-17)
(0.00752435 0.00341054 3.68978e-17)
(-0.000126612 0.00144622 -3.01682e-18)
(-0.00382851 -0.000558559 -2.13735e-17)
(-0.00860839 0.000939808 4.57478e-17)
(-0.00320608 -0.00578104 -2.30648e-18)
(0.0134075 0.000515465 -2.02043e-18)
(0.00131483 -0.00844469 4.84584e-18)
(0.024391 -0.00357405 5.13541e-17)
(-0.000819875 0.00223084 2.08795e-18)
(-0.010322 -0.00181212 4.08605e-17)
(-2.90818e-05 0.00102363 -2.29863e-18)
(0.00887463 -0.00153713 3.12932e-17)
(-0.00328608 -0.00738639 1.33133e-17)
(-0.00746584 -0.00968023 -5.16077e-17)
(-0.00405 -0.00202456 3.93334e-17)
(-0.00127899 0.00136089 6.70689e-19)
(-0.00158067 0.0036243 3.49058e-18)
(-0.00656322 -0.0036486 -1.19265e-17)
(0.000438811 2.13434e-05 -2.40298e-19)
(0.00163508 0.00123773 -9.9442e-17)
(0.013203 0.000219749 -2.93346e-17)
(0.0125628 0.000557715 7.81963e-17)
(0.000267153 0.00118211 4.18194e-18)
(0.00316518 -0.00431324 -8.76306e-18)
(0.00820993 0.00153512 -2.21213e-17)
(0.00804748 -0.00663869 -1.54267e-17)
(-0.000717974 0.00335239 -8.12399e-19)
(4.62199e-05 0.00029925 -6.68942e-19)
(0.0154956 -0.00179208 -3.08393e-17)
(2.86077e-05 0.00113629 -2.47852e-18)
(-0.00018491 0.000533727 -9.50645e-20)
(-0.000916775 0.00355743 2.91745e-17)
(0.0101919 0.00147863 -1.57747e-17)
(-0.00225146 -0.00201591 8.06366e-19)
(-0.000318726 0.00204628 2.63854e-19)
(-0.00386111 0.00483273 -3.19027e-17)
(-0.00640472 -0.00201958 -1.05743e-17)
(8.07574e-05 0.00119826 -1.83634e-18)
(0.0162717 4.89267e-05 -9.39695e-18)
(-9.93679e-05 0.000669306 1.12957e-19)
(0.0127664 0.000143973 1.7642e-17)
(-0.00889266 0.00857767 1.11551e-17)
(9.84692e-05 0.00065645 5.1666e-19)
(-0.00174441 -0.00236726 -2.78147e-17)
(-0.0119635 0.00257801 5.22457e-17)
(0.0126203 -0.00326635 1.88905e-17)
(-0.000187781 -0.000185578 1.22114e-19)
(0.0257222 -0.00313067 5.65872e-17)
(0.0213974 -0.00664594 2.47042e-17)
(-0.000299456 -0.00101806 -2.53947e-18)
(0.0076607 0.00165499 -1.04389e-16)
(0.0142138 -0.00617557 -2.46029e-17)
(-0.00922541 -0.00776308 3.81052e-18)
(-0.000741359 0.00223247 7.84706e-18)
(0.00219964 -0.00481314 4.22956e-17)
(0.0147452 0.00117213 -1.73469e-17)
(-0.00040753 -0.00103696 -2.47008e-18)
(0.00133359 -0.00456235 -1.04724e-16)
(-0.000601857 0.000723023 -3.45831e-18)
(-0.000121852 0.000666406 -3.21e-19)
(-0.00173304 -0.00598075 -9.72701e-18)
(0.0119483 0.00130584 1.15693e-17)
(-0.00515504 -0.00206496 7.7439e-18)
(-0.00238202 -0.00750299 2.36189e-17)
(4.63973e-05 0.00115476 -3.48432e-18)
(-0.00295561 -0.00857252 -4.60969e-18)
(0.0128322 0.000359036 -3.2478e-18)
(0.00942343 0.00147681 1.55158e-17)
(-0.000535082 -0.00108619 7.63174e-18)
(0.00704963 0.00142705 5.84064e-17)
(-6.41858e-05 0.000575017 -6.33701e-19)
(-0.000701314 0.000706431 7.8036e-19)
(-0.00607514 -0.00350711 1.61813e-17)
(-0.00185042 -0.00473658 3.52496e-18)
(-0.000206315 -0.000569159 5.25661e-18)
(-0.00105752 0.00139909 3.46536e-19)
(0.00790997 0.00168817 6.2005e-17)
(-0.00861392 0.00298999 1.13499e-16)
(0.00774003 0.00166822 7.35049e-17)
(-0.001934 -0.00192575 -3.46705e-18)
(6.77676e-05 0.00112291 3.12118e-18)
(0.0113452 -0.000948432 -2.58395e-17)
(0.000152675 0.000387787 -2.37099e-18)
(-0.00829403 0.000122952 3.19295e-17)
(-0.00271331 -0.004099 1.06211e-17)
(-0.00288129 -0.00556797 1.96216e-18)
(-0.0046234 -0.00284111 -1.03896e-17)
(0.00701403 -0.00267459 -1.30806e-17)
(0.014104 0.00126289 -4.17104e-17)
(-0.00291145 -0.00157071 9.42481e-18)
(0.00410047 0.00152521 8.0839e-18)
(-0.00148924 -0.00269566 7.78611e-19)
(-0.00681126 -0.0028408 -1.05242e-17)
(0.00828928 -0.00193464 1.85664e-17)
(0.0139374 0.000303314 -1.56503e-17)
(-0.000385374 0.000934399 1.47993e-19)
(-5.30811e-05 0.00105296 2.22804e-18)
(-0.00126282 0.00496669 6.77829e-18)
(0.0079017 0.00167488 -7.33431e-17)
(-0.00646259 -0.0108348 3.2001e-17)
(-0.00297072 -0.00850253 3.4798e-18)
(0.0154921 -0.00218484 1.22715e-17)
(-0.00189921 -0.00481531 -1.19875e-18)
(-0.00372495 -0.00461958 1.15211e-17)
(0.0065623 -0.000915991 4.4559e-17)
(0.0154619 0.000204795 5.35582e-18)
(-0.00409473 0.00570597 2.94498e-18)
(0.0127927 0.000406979 -1.63332e-17)
(-0.0038389 -0.0113355 -3.89848e-18)
(0.0064506 -0.00234459 1.60778e-18)
(-0.00117876 -0.000103993 5.75108e-18)
(-0.0030253 -0.00872656 -4.55027e-17)
(0.0169435 -0.00256118 2.12423e-18)
(0.000196542 0.000586618 -1.17153e-18)
(0.0105744 0.00147583 2.91979e-17)
(0.011561 0.000992962 2.12628e-17)
(-0.00196857 0.00213161 -1.38696e-18)
(-0.0048228 -0.00590736 -3.65268e-18)
(-0.000222995 0.00114373 -2.61531e-18)
(-0.00118104 0.00934385 1.47711e-17)
(-0.00578805 0.00319299 6.73385e-17)
(0.0202259 -0.00562113 1.05426e-17)
(-0.000200936 0.000814963 -8.03445e-20)
(0.000309313 2.13853e-05 -5.33861e-20)
(-0.00031659 0.00324042 -2.25037e-17)
(-0.00612835 -0.00188582 2.48668e-17)
(0.00029221 0.000378495 4.3128e-19)
(0.0101344 0.00148472 1.5699e-17)
(0.000301791 2.51749e-05 1.21505e-19)
(-0.00529833 -0.0112489 4.67209e-19)
(-0.000791763 0.00232004 -8.72488e-18)
(-0.00183035 -0.00998937 7.42079e-19)
(-9.93826e-05 0.00139015 -1.29263e-17)
(7.57097e-05 0.0012208 -9.4766e-19)
(-0.00370355 0.00250801 1.66411e-17)
(0.00711478 0.00144262 -4.71467e-17)
(-0.00635491 -0.00301075 3.18112e-19)
(0.00998141 0.00147995 -2.48764e-17)
(-0.00354779 -0.000454278 2.14267e-17)
(0.000116023 9.51134e-05 -9.924e-19)
(-0.00053265 -0.000623037 -2.61418e-18)
(-0.00652091 -0.00330824 2.15041e-17)
(-0.00153921 -0.00076305 5.77955e-20)
(-0.00870294 -0.00191002 -2.62047e-17)
(-0.00245291 -0.00203327 -3.80092e-18)
(-0.00115023 0.00405878 1.98736e-17)
(-0.00369001 -0.00907731 -9.60651e-18)
(1.38608e-05 0.000401213 -4.37017e-18)
(0.00873433 -0.000233396 -3.09221e-17)
(-4.07655e-05 8.99336e-05 -4.12802e-19)
(-0.00244438 -0.0111383 -2.94488e-17)
(0.00402139 0.00152569 1.10032e-17)
(0.00983885 -0.00154379 -2.08517e-17)
(-0.000146772 0.0035525 4.93152e-19)
(0.0240443 -0.00794091 -1.12725e-17)
(-0.00364293 0.00481859 1.20452e-18)
(-0.00749324 0.00436921 -1.82522e-17)
(0.0113377 0.00100414 3.62714e-17)
(-0.000593758 -0.00116154 -7.37913e-18)
(0.0145123 0.000389121 3.25231e-18)
(-0.00111418 0.00329173 -4.1258e-18)
(-0.00435868 -0.00232394 -1.23639e-17)
(0.000840089 0.00142412 3.67372e-17)
(0.0216078 -0.00427393 9.30476e-18)
(-0.000297388 -0.000579667 -1.43802e-18)
(-0.00841959 -0.00182576 1.45922e-17)
(-0.000930627 -0.00138126 -5.05024e-18)
(0.00697822 -0.00205167 -1.14222e-17)
(0.0107294 0.00149865 -2.03951e-17)
(-0.000617605 0.000556076 9.55475e-19)
(-0.00102681 0.00578971 -4.76442e-17)
(0.0114732 -0.000144984 -2.13235e-17)
(1.05462e-06 9.63611e-05 -3.3518e-18)
(-3.53236e-06 0.000130741 -5.23959e-19)
(-0.00255495 -0.00969664 -1.40301e-17)
(0.00914304 -0.000114906 1.3334e-17)
(0.000806985 -0.00552702 2.12159e-17)
(-0.000100831 0.00183359 -5.11076e-19)
(-0.0102582 -0.00455373 5.65402e-17)
(-0.00186233 -0.00169345 1.02825e-17)
(9.59272e-05 0.00129012 -4.05531e-18)
(-0.00372482 -0.00876594 9.72017e-18)
(-0.0106878 -0.00471974 -5.50084e-17)
(-0.00750655 0.00304055 -7.02739e-19)
(-0.000157693 -0.000470462 3.07284e-18)
(-0.00422632 -0.01162 -1.65056e-17)
(-0.00179775 0.00460181 -1.09264e-17)
(-0.00250987 -0.0090489 2.72157e-17)
(-0.000117636 0.00223042 -2.67577e-17)
(-0.000866609 0.00151463 5.2697e-19)
(-0.00527751 0.00310679 -6.44216e-17)
(-0.000365395 0.0032052 9.06021e-18)
(-0.00406178 -0.0121403 1.05773e-17)
(-0.00582466 -0.00501932 3.75509e-17)
(-0.00586363 -0.00473433 -3.27499e-17)
(-0.00414719 0.00558015 9.52373e-19)
(-0.00471504 0.0122277 4.90643e-18)
(0.015032 -0.00620024 5.15719e-17)
(0.00899532 -0.00221675 1.79348e-18)
(0.0263761 -0.00375429 -3.97449e-17)
(-0.00360249 -0.0129688 2.61944e-17)
(0.0146813 0.000564538 -2.42416e-17)
(-0.00245779 0.00322791 2.07208e-18)
(-0.000773447 -0.00557877 2.99299e-18)
(-0.0094182 -0.00803285 2.32578e-17)
(-0.000459625 -0.000348613 1.67895e-18)
(-0.0035798 -0.00449421 -2.98841e-17)
(0.00649508 -0.00613603 -3.64574e-17)
(-0.00214841 0.000981036 1.84672e-18)
(0.000160045 0.000630523 -3.95482e-20)
(0.00014302 0.000581413 5.31093e-20)
(-0.002414 -0.0111264 1.53241e-19)
(0.0121883 0.00017434 2.5876e-17)
(-0.00224952 -0.0045087 -5.52914e-19)
(0.0124526 0.00126261 2.68207e-17)
(0.000136195 0.000110167 4.87992e-18)
(0.0017462 -0.00516855 -2.99746e-17)
(-0.00301977 0.00599654 5.8108e-18)
(0.0126673 0.00136264 4.70536e-17)
(-0.00836896 -0.00156326 -8.52838e-18)
(-0.00290259 -0.000803692 -1.96566e-17)
(-0.00231547 -0.00182422 -1.06261e-17)
(0.0124223 0.0013719 6.1644e-18)
(-0.00769558 0.00291464 -2.90127e-17)
(-0.0023183 0.00309507 -2.77659e-19)
(0.00173457 -0.00813308 1.04734e-17)
(-0.00123479 -0.00028366 -3.14943e-18)
(0.0134069 -0.00279123 -2.12204e-17)
(-0.0025636 -0.0112211 2.74563e-18)
(-0.00522535 -0.0111976 -2.64504e-17)
(-0.00430717 -0.00135547 -2.00901e-17)
(-0.00794801 0.00251567 -8.04058e-18)
(-2.56073e-05 0.00137195 3.15473e-18)
(-5.45338e-05 0.000107967 -9.26959e-19)
(-7.63524e-05 0.00257236 -1.65997e-18)
(5.97077e-05 0.00131919 -4.35208e-18)
(0.00874841 -0.00176215 -9.64047e-18)
(0.000549579 2.55714e-05 2.07556e-19)
(-0.00410904 -0.00920309 -1.03562e-17)
(0.011728 -0.000717086 1.02886e-17)
(-0.00840972 -0.0014875 -5.82381e-18)
(0.00957452 0.00146155 2.71954e-17)
(0.0135126 0.00135849 -1.8677e-18)
(-0.00362029 -0.0110065 8.30439e-18)
(-0.00797383 0.00445164 1.58939e-17)
(-0.000125357 0.00351073 -1.06254e-17)
(1.85384e-05 0.00046948 7.6306e-18)
(-0.000107836 0.0015495 2.41832e-18)
(-9.55277e-05 -0.000259259 -1.57476e-18)
(-0.000425488 -0.000588979 4.01063e-18)
(0.000334614 2.29855e-05 6.52703e-20)
(-0.00687264 -0.00320982 3.60854e-17)
(-0.00990618 -0.00255949 -1.23866e-18)
(-0.00186953 0.00473885 1.53824e-17)
(0.0142578 -0.00273662 -2.49953e-18)
(-0.00128664 0.00108819 5.918e-19)
(0.0126268 -0.000268937 1.94659e-17)
(-0.000106854 2.71947e-05 1.36604e-18)
(0.00227506 0.000405801 2.64515e-17)
(-0.00467056 0.000509182 8.79825e-18)
(-1.8313e-05 5.85587e-05 -5.84981e-19)
(2.16769e-05 0.00067861 -4.9343e-18)
(0.0109488 -0.00175141 -3.3658e-17)
(-0.00286117 -0.00117345 -4.57864e-18)
(0.00444893 -0.00472905 -2.40817e-17)
(0.0115661 0.000806626 -2.25193e-18)
(-0.00436722 -0.00586907 -4.65855e-18)
(-0.00669697 -0.00613419 2.34468e-17)
(-0.000348542 -0.00101815 6.85917e-19)
(0.0119754 -9.52061e-05 -2.69725e-17)
(-0.000929528 0.00217734 -3.68899e-18)
(-0.00228199 -0.00197842 5.39677e-18)
(-0.00332872 -0.00874111 1.22767e-17)
(4.74814e-05 0.000465127 5.189e-19)
(-0.000376888 0.0019993 1.10939e-17)
(-0.000663695 -0.000830391 5.79985e-18)
(-0.00336065 -0.00726401 1.73062e-17)
(0.0128212 0.000158662 -1.08637e-17)
(-0.00356663 -0.000458185 -7.61542e-18)
(-0.00463968 -0.00161933 -2.76229e-17)
(-0.0111764 0.00369663 -3.28874e-17)
(0.00934613 0.00149328 3.09978e-17)
(-0.000472322 0.00357625 2.80407e-17)
(-0.001254 0.00248639 -1.69723e-18)
(0.00735985 -0.00218722 -2.50457e-17)
(-8.03372e-05 -0.000249533 3.34719e-19)
(0.00738302 -0.00211835 3.02779e-17)
(0.00021499 5.70604e-05 6.99654e-22)
(-0.00190128 -0.00187884 1.10749e-17)
(0.0229996 -0.00325844 3.93958e-17)
(-0.00519366 -0.00938538 1.23248e-19)
(-0.00720365 -0.0101928 -1.3947e-17)
(-0.00748894 0.000791808 -3.81624e-18)
(-0.00662865 -0.00316365 -2.62239e-17)
(-3.22097e-05 0.000283739 -6.36114e-19)
(-0.000114448 2.41994e-05 -1.64128e-19)
(-0.00739025 -0.00283878 -3.14611e-19)
(-0.00122313 -0.000156414 -1.80937e-18)