/*--------------------------------*- C++ -*----------------------------------*\
| =========                 |                                                 |
| \\      /  F ield         | OpenFOAM: The Open Source CFD Toolbox           |
|  \\    /   O peration     | Version:  v2012                                 |
|   \\  /    A nd           | Website:  www.openfoam.com                      |
|    \\/     M anipulation  |                                                 |
\*---------------------------------------------------------------------------*/
FoamFile
{
    version     2.0;
    format      ascii;
    class       surfaceScalarField;
    location    "250";
    object      meshPhi;
}
// * * * * * * * * * * * * * * * * * * * * * * * * * * * * * * * * * * * * * //

dimensions      [0 3 -1 0 0 0 0];
oriented        oriented;


internalField   nonuniform List<scalar> 
20580
(
-0.000486542
0.000233535
0.000256616
0.0014541
-0.00110349
-0.000367405
0.000619327
0.00082151
-0.000972482
0.00109082
-0.000118613
-0.000179801
-0.00023838
0.000270686
0.000525517
-0.00189728
0.00135368
-0.00147758
0.00160107
-0.000144571
-0.000272927
0.00027173
-0.000299186
-7.96683e-05
0.000379124
0.00130659
-0.00585578
0.00453294
-0.000609411
0.00170324
-0.00110184
0.000264434
0.0029819
-0.00329863
-0.00487087
0.00116334
0.00369648
5.40691e-05
0.000173633
-0.000227769
0.0002957
0.000139647
-0.000434633
-0.00114267
4.31494e-05
0.00110743
0.000662659
-0.000621722
-4.00737e-05
0.00197926
-1.91184e-05
-0.00199472
0.000393943
-0.00013807
-0.000256065
-0.000220561
-0.000260829
3.89408e-05
-0.000387752
0.000349356
-0.000585357
-0.00260808
0.00316302
0.00126229
-0.000783028
-0.000480389
-0.000195749
2.00023e-05
0.000149423
0.000837702
-0.000258175
-0.000580554
-0.00144187
0.00112905
0.000321088
-0.000719544
0.000306678
0.000414228
-0.000194389
0.000218664
-2.39812e-05
-0.000751601
0.000544942
0.000207531
0.000172926
-0.00239993
0.00215815
-9.57775e-05
-0.000728235
0.000824449
0.000223799
-0.00167231
1.89163e-05
0.000346743
-0.000366464
0.000277004
-6.35648e-05
-0.000212827
0.000759583
0.000749756
-0.00151263
0.000626071
-0.000900871
0.000274331
-1.43756e-05
-0.000188066
0.00113417
-0.00084911
-0.000285736
-0.000529585
7.08888e-05
0.00045887
-0.00507157
0.00355265
0.00147626
-0.000141879
-1.34409e-05
0.000155421
-0.000468441
-0.000282747
0.000289537
0.000431074
0.00206733
-0.00145084
-0.0006221
-0.000337219
-0.000300497
0.000638464
-5.9636e-05
-0.00344048
0.00343218
-4.73611e-05
-0.000225734
-0.000563302
0.000855283
-0.000289181
-0.00396855
0.00120493
0.00272099
-0.000518001
-0.00435972
4.11698e-05
0.000228518
-0.000269276
-0.0055231
0.0014213
0.00409321
6.10666e-05
-0.00119592
-0.00150027
0.00082636
0.000689526
0.000402702
-0.000446735
4.44728e-05
-0.00325447
-0.00184785
0.000316139
-0.000296989
-0.000172365
3.02055e-05
-0.000950028
0.000689719
0.000262448
-1.10989e-05
0.000142017
-0.000131757
-0.0030168
0.00322546
-0.000321581
-0.000396424
-0.00508671
0.00507986
-1.16829e-07
-0.00211076
-0.00189334
-0.00196884
0.00112844
0.00083758
-0.00143259
-0.00053892
-0.0001134
0.000102495
-0.00050242
0.00191366
-0.000783941
-0.00303039
0.00376875
0.000927589
-0.000940426
1.31666e-05
0.000285942
-0.000690044
0.00040438
0.000435884
-0.000381947
-5.22937e-05
0.00518323
-0.00380851
-0.00140221
4.19046e-05
9.93551e-05
0.000860195
-0.0010637
0.000214545
-0.00116193
-0.00242476
0.00355589
-1.63061e-05
0.000678824
0.00195621
-0.000910466
-0.00111196
0.000138644
0.000697292
-0.000260925
0.00439594
-0.00420401
0.00266006
-0.00348811
0.000662251
0.000305838
-0.000968624
0.00200104
-0.00125223
9.90616e-05
0.000195615
-0.000294672
0.000151702
-0.000110291
-0.000693838
-0.000214077
0.000908188
-0.00294293
0.00233116
-2.0603e-05
0.000518219
-0.000497258
-0.00471232
0.00489013
-0.000202655
0.000560471
-0.000655922
-0.000635341
-0.00489233
-0.00122999
0.00147994
3.83529e-05
0.00030522
2.78743e-05
-0.000721622
0.000516429
-0.000254563
-0.000261574
-0.00108928
0.00183723
-0.00075308
0.00615439
-0.00299536
-0.003223
0.000415564
0.000761256
-0.00117252
-5.61236e-05
0.00020154
-0.000145207
0.00165767
-0.000591422
-0.00107026
-0.000562748
0.000981725
0.00121801
-0.0027656
0.00154973
0.00271616
-0.000632721
-0.00208125
-0.00501075
0.00529136
-0.00030254
0.000567417
-0.00321741
0.00258962
0.000791763
-0.000482875
-0.00030939
0.00358047
-0.00308487
-0.000358205
0.000644381
-0.00139069
0.000188819
-6.28114e-05
0.00200356
0.00335789
-0.000866276
-0.00251204
0.00382492
-0.00396083
0.000343186
0.000291034
-0.000634847
-0.000981463
0.000964436
1.22968e-05
-0.000582534
6.72747e-05
0.000518055
-0.000644332
-0.000841894
0.00304017
-0.00167041
-0.00144726
0.000279643
-0.000567675
-0.000725404
-0.000246996
1.82714e-05
0.000909263
0.00198006
-0.00064527
-0.00134173
-0.00227175
-0.000493423
0.0027023
0.00201437
0.00139811
-0.00344866
0.000218607
-0.000140003
-7.73026e-05
0.000331899
-0.00028068
-5.09823e-05
-0.00178956
-3.4941e-05
0.00182838
0.00223701
0.00384221
-0.00184469
0.00164121
0.000191442
6.07568e-05
0.000144767
-0.000205274
0.000143622
0.000218181
-0.00036326
0.000692986
-0.00332803
-0.00235997
0.000302149
0.00203209
0.000382247
0.000752169
9.86341e-06
0.000267809
-0.00142008
0.000805199
0.000377271
-1.2479e-05
-0.000364323
0.00182349
0.00043772
-0.000651621
0.00317494
-0.00106766
-0.0021064
-0.000169995
-0.000311408
0.000484933
-0.00045477
0.00111999
-0.000511661
-0.00363135
0.00412739
-0.00547053
0.000738077
-6.04008e-05
-0.00153782
0.00160067
0.000567257
-0.00048511
-8.26832e-05
0.00410038
-0.00176406
-0.00236473
0.000717276
0.00117119
-0.000700237
-1.5862e-05
-0.0004201
0.00043575
-0.00181081
-4.18303e-05
-0.000959863
0.000399645
-0.000460908
0.00080558
-0.000955299
-2.90852e-05
0.000115625
-0.000380124
0.000264575
-0.00398721
0.00532377
-0.00134615
0.00574016
-0.00471764
-0.00102943
0.00367494
-0.003544
-0.000199523
-0.000185022
-0.000344467
-0.000433124
0.000397909
3.84392e-05
-0.000698534
0.000760707
-5.23195e-05
-0.000434198
0.000353231
4.52853e-05
0.00071117
7.17198e-05
-0.000781279
0.000380666
0.000401205
-0.00100155
0.000441928
-0.000193107
0.000247127
-0.000523048
0.000449586
7.46817e-05
2.1609e-05
-0.000543155
-0.000260422
0.000302243
0.00259241
0.000744124
0.000283707
-9.40015e-05
-0.000190211
1.70641e-05
-0.00307937
0.00300992
0.000989433
0.00194952
0.000146917
-0.000674133
0.000525738
0.000233603
-0.000477597
0.000130506
0.000197402
0.000317202
0.00015339
-0.000483823
0.000331299
-0.000461319
-0.000323793
0.000786906
0.00272489
-0.00182696
0.00108271
0.000126166
-0.00119308
0.000462662
-0.000923011
0.00023157
9.66712e-05
0.000972436
-0.00308721
0.000677489
0.00238901
0.000476783
-0.000334055
0.000378727
0.000247728
-0.000369725
0.000353541
-5.8946e-05
0.000405354
0.0036598
-0.00332273
-0.000338423
0.00363719
-0.00545327
0.00180482
0.00367769
-0.00351406
-0.000240124
0.000152578
0.000416089
-0.000103411
-0.000324951
-7.81275e-05
0.000251646
0.00160255
-0.00109466
0.00117993
0.00289162
0.000226193
0.000997982
-0.00121786
0.000271177
-0.000329278
0.00100871
-0.000609682
-0.000418321
-0.00255893
-0.000185503
0.00269958
-0.00256754
0.00106328
0.00150822
-0.000441613
-0.000640581
0.00108305
-0.000195064
-7.06457e-05
0.000266197
0.000163375
-0.00017713
1.48214e-05
-0.000231031
0.000529596
0.00104524
-0.00110868
6.133e-05
-0.000280513
8.56344e-05
0.00263461
0.00154242
-0.00417723
0.000868457
-0.000233663
-0.000629283
0.000318054
-0.000418178
0.000100602
0.00200267
-0.00198156
-5.04062e-05
-0.00131469
0.000225033
0.00109492
-0.00148002
0.00346307
-0.000894159
-0.000197688
0.00160566
-0.00141122
0.00119721
0.00034809
-0.00155198
0.00038145
0.00269465
-0.00310116
-0.0051052
0.0045791
-0.000153175
0.000269639
-0.000116087
-0.00220838
0.00153736
0.000638953
0.000201169
0.00078408
0.00188421
0.000748648
0.000384459
-0.00019818
-0.000183722
-0.000166707
0.000265171
-8.10877e-05
-0.000306887
0.000389119
-0.00346341
0.000864526
0.00259717
0.000298915
0.00057549
5.63166e-05
0.000647613
-0.000707337
0.00164336
-0.00170201
-0.00464886
4.23467e-05
0.00454412
0.00194383
0.00126936
-0.000823204
-0.000445815
0.00283685
0.000820265
0.00188164
9.35761e-05
9.43645e-05
0.00448843
-6.84254e-06
0.000170919
-0.0023368
0.00243443
0.000877295
0.000383038
0.000145435
-0.000183042
3.80939e-05
0.000508381
0.00114401
-0.0003958
-5.30539e-05
0.0011892
0.000262732
-0.00145443
-2.89242e-05
0.000163939
-0.000134894
-0.000744665
0.000408132
-0.00126259
-2.36959e-05
-0.00060032
0.000630146
0.00153443
-5.45138e-05
-0.00147765
0.000117919
-0.000270112
0.00127785
-0.000181368
0.000770356
0.00106216
-0.00113735
-0.00188033
0.00299719
-0.000537082
7.54613e-05
0.000461606
-0.000428543
0.000249817
0.00017535
0.000491049
-0.000101798
-0.000581552
-0.000518712
0.00086247
-0.000348024
0.000991544
5.78583e-05
0.000653554
0.000588897
-0.000843035
0.000254007
0.000883469
0.00273201
0.00017882
-0.00459333
0.0048447
-0.000270918
0.000415535
-5.82581e-05
-0.000355696
0.000121522
-0.000299886
0.000180726
-0.000629202
0.00010822
0.00066696
-0.000294955
-0.000310479
-0.000117726
-0.00605139
0.00200171
0.00400951
0.00244849
-0.0012267
-0.00041042
0.000890965
-0.000477911
0.000247042
-0.000185276
-5.96018e-05
-0.000931171
0.00490273
-0.00400981
-0.000418571
-0.00469244
-0.00062858
0.000203745
0.000209605
-0.000414195
0.000676665
-0.000971922
0.000295812
0.000360281
-3.05186e-05
-0.000328033
-6.79431e-05
-0.00225384
0.000290196
-6.1695e-05
-0.000339301
0.000126124
0.000213438
0.000113557
0.000467685
-0.00057878
0.000325553
0.000336866
-0.000156111
0.000360056
-9.37953e-05
0.000161606
-6.74377e-05
0.00122519
-0.000517366
-0.000717235
-0.000457053
5.62009e-05
0.00040553
0.000400985
0.000586873
-0.000987722
0.00488947
-0.00281869
-0.00214339
-0.00315735
0.00335951
-0.000268501
-0.000306834
0.000422773
-0.00191462
0.00130978
0.00059618
-0.000510756
-0.00189024
0.00233944
0.00129344
-0.0015011
0.000184024
-0.000974764
-0.00373025
-0.000351186
-0.0001629
0.000339189
0.00026006
-0.000578132
0.00031813
0.000445976
7.94014e-05
-0.000378273
-0.000291898
0.000335042
0.00492181
-0.00164638
-0.00332176
0.000684177
0.000143562
7.57442e-05
-0.00525249
0.00393868
0.00130293
0.000167708
2.47413e-05
-0.000201791
0.000177873
-0.00394687
0.00342166
-0.0045621
-0.000696522
-0.000517573
0.000225968
0.000301199
-7.62813e-05
-0.000223779
0.000758859
-0.000686995
-7.19593e-05
0.000471014
-0.000404209
-6.60035e-05
0.000277446
-0.000606106
0.000113606
0.000170112
-0.00304804
0.000535377
-0.000177559
-0.000358853
-0.000192051
0.000218222
0.000260424
-0.000188813
-6.83576e-05
-0.000636016
-5.3376e-05
-0.000512988
0.000913392
-0.00128806
0.000900004
0.000387563
-0.000949855
0.000217157
0.00073137
-0.000179108
0.000768224
-0.000589742
0.00288697
-0.00132083
-0.00156271
-1.849e-05
0.000395739
0.000203732
-0.000164235
-3.92847e-05
8.47821e-06
-0.000202449
-0.000260841
-0.00233913
-0.000722252
7.98423e-05
0.000642813
-0.000406782
-0.000138773
0.00123285
-0.0013577
0.000127684
-0.00014799
0.00138456
-0.000272729
0.00290762
0.000166341
0.000433241
-0.00060005
-0.0036645
0.001047
0.0026078
-0.000435307
0.000415061
0.00297079
-0.00149059
-0.00147697
0.000971127
-0.00114986
1.34768e-05
0.000241146
-0.000239558
0.00275489
-0.000239936
-0.00253835
-0.000632207
-0.000318193
0.00109471
0.00140487
0.00340321
-0.000335453
-0.00353281
0.00284885
0.000675148
-0.000857646
-0.00151882
0.000370117
0.000400075
0.000119391
0.000182228
0.000209066
7.97546e-05
0.00106573
0.00392612
-0.00357764
0.00199986
-0.000138192
-0.000625139
-0.000149072
0.00077534
-0.00132326
0.00494984
-0.000223553
0.000774198
0.000437737
-0.000177636
-0.000339753
-0.000581101
-0.00295897
0.000276097
0.00072883
0.00414228
0.0013628
-0.000394308
-0.000971078
-0.00145719
0.000863106
-0.000364008
0.000255716
0.000105824
-0.000906154
0.000291746
-0.000916096
0.00114381
-0.00292711
-3.10513e-05
-0.000307409
-1.08352e-05
0.000318727
-0.00163891
0.000673155
0.000929989
0.000208985
5.21019e-05
-0.000372121
0.00029913
7.5377e-05
-0.000218214
0.000162288
0.00216337
0.000565612
-0.000637909
0.00139347
-0.000591488
-0.000357214
0.000230428
0.000609039
-0.000838385
-0.000717748
-0.000553366
0.00127187
0.000415139
0.00018311
-0.000598002
0.00200843
0.000346039
-0.00238351
0.000372141
-0.000218711
0.000836908
-0.000547238
-0.000972866
-1.58589e-05
0.000981218
-0.000160842
-0.000375814
0.000954874
-0.00110662
0.000143944
-0.000165817
-3.78996e-05
0.00020408
-3.13009e-06
-0.000452487
-0.00161942
0.000554921
7.03012e-05
-0.00032136
0.00025539
0.0015709
-0.000650084
-0.000923097
0.00187556
0.00385679
0.000489457
-0.00142581
0.000925295
-0.000877804
-0.00104448
0.000997551
0.00295077
-0.00382648
0.000827015
6.24706e-06
0.000357771
-0.000330021
0.000174281
0.000156204
0.00237942
0.00278292
0.000445721
-0.0006737
-0.000692944
-0.000340019
0.00103365
-0.00183281
-0.000284365
0.00209377
-0.00159677
0.00120051
0.000392949
-0.0012526
0.000211909
0.0010503
0.000764119
-5.11905e-06
-0.00106189
-0.000943483
-0.000510154
-0.000922067
-0.00059139
0.00163318
-0.000159023
-2.70317e-05
-0.000558956
0.000590878
-0.000133468
0.000722306
0.000122369
-0.000285589
0.00147284
-0.00291359
-0.00317278
0.000237253
0.00111715
0.00151022
-0.000586415
-0.000931739
0.000818993
-0.00145085
0.000406235
0.00217249
-0.00263207
0.000513935
0.000165876
-0.000135256
0.000206421
-7.10244e-05
0.000497727
0.00024541
-0.000743122
0.00170146
0.000276006
-0.00023986
0.000628505
1.12135e-06
-0.000627017
-0.000301614
0.000978775
0.000501763
2.6613e-05
-0.000538366
-7.54344e-05
-0.000646942
-0.00114231
-0.000185831
0.00132608
0.000634758
-0.00126197
0.000626603
0.00127654
-0.00242984
0.000269344
-0.000403149
0.000133512
0.00519354
-0.00385821
-0.0013527
-8.17781e-05
0.00020476
0.00036371
3.94398e-05
0.000462543
-0.000521465
6.01625e-05
0.00500325
-0.00371046
-0.000147506
-0.000968793
-0.000198187
0.000648277
0.00283715
-0.0003459
-0.00259288
-0.000202398
6.77367e-05
-0.000326707
0.000493498
-0.000281672
-8.89076e-05
-0.000612144
0.000403369
0.000216618
0.00247362
-0.000502267
-0.0034116
-0.0016409
0.00505435
-0.000685451
0.000917423
-0.00554412
0.00384317
-0.0050977
0.00168859
0.000963454
-0.00051178
-0.00045067
-0.000144142
-0.000185467
-0.00250487
0.00317144
0.000880274
-0.000541352
-0.000337269
-0.00456292
-0.000517945
0.000279709
0.00300574
0.000105008
-0.00195775
-0.000116936
-0.000772249
-0.000538592
0.0013188
0.00236718
-0.00392247
0.00151151
-0.000840803
0.00224179
-0.00142982
0.00106712
0.000908415
0.000902898
0.000313432
-0.00122832
0.000230472
0.000438124
-0.000667235
0.00407995
-0.00296581
-0.00119265
0.000449879
-0.000993799
0.000550213
0.000385753
-0.000685617
0.0031833
-0.00203141
-0.00115786
0.000198886
-0.000187872
-4.01664e-05
9.48389e-05
0.00304542
-0.00318929
-0.000388845
-0.000208247
0.000421964
0.000377968
-0.000813131
0.00167371
-0.000620016
-0.00105625
-0.000637684
-0.000149123
0.000787731
0.000479797
-0.000503072
0.000138608
-0.000873739
0.000738309
0.00178574
-0.00401657
-0.000113702
0.00407791
4.61957e-05
0.000196711
-0.000242601
0.000290578
-0.00126799
-0.00158958
0.00285741
0.00144665
0.00279563
-0.00427055
6.46133e-05
0.000737762
0.00243784
7.08067e-05
0.000989634
-0.00106247
-0.00120036
-0.00382725
-0.00189851
0.00202472
-0.000144101
-0.00111463
-0.000667591
-0.000163464
0.000839645
-0.000211567
4.75687e-05
0.000164541
0.000465223
-0.000382774
0.000883157
-0.0018799
0.00331617
-0.00144815
-0.000639361
-0.00551189
0.00462217
0.000845683
0.000617945
0.000130038
-0.00136928
-0.000159305
0.000431191
0.000263269
0.00123313
0.00273265
0.00132977
0.00184552
0.000579109
0.000143901
-0.000500219
0.000538209
0.000307702
-0.000845746
0.000213873
-0.000167444
0.000852732
-0.000621407
0.000839914
-0.000949871
0.000109783
0.000326669
0.000428694
0.000108941
-0.000537131
-0.000172521
-0.00104509
0.00356394
-0.00252233
0.000229731
-0.00248626
0.00224571
-0.000947582
-0.000650412
-0.00503027
-0.000833598
-0.00120351
0.00409981
-0.00327265
0.000831748
0.00243818
-0.000472796
0.00015551
0.000316101
0.000758548
-0.00120806
0.000440834
0.00300792
0.00126545
-0.00428543
-0.000459918
0.00170897
-0.00125663
0.00021818
-0.000867464
0.000648407
0.000332118
0.00418398
-0.00451572
-0.000625347
0.000506901
0.000118365
-0.000887181
-0.00307465
0.00390747
0.000223133
-5.31806e-05
-0.000169851
9.40109e-05
0.00157648
-0.00382851
0.00350992
-0.000634581
0.000641555
-1.14276e-05
-0.000264819
-0.000871667
0.00113475
6.12023e-05
-0.00291966
0.000941241
-0.000128695
-0.000812635
-0.00131944
0.000371055
-6.72531e-05
0.000481667
-0.000418695
-0.000150103
-0.000464211
0.0006153
0.000261163
0.000132742
0.000303736
-0.000198608
-0.000104222
-0.00352866
0.00163482
-0.000867971
0.000357099
0.000135132
-8.66935e-06
-0.00012626
-0.000483283
0.000418085
0.000623902
-0.000641436
1.66345e-05
-5.5048e-05
-0.00385053
0.00385687
-0.00393859
0.000612988
0.000421764
-0.00103431
-1.08104e-05
-0.000154742
0.000137732
-0.00112675
0.000983482
0.00064515
-0.00140806
0.00504418
-0.000557574
-0.00449237
-0.000630961
-0.000357381
0.000991305
0.000214762
-0.000153711
-0.000468684
3.77808e-05
0.000430942
-0.000815705
0.000617715
0.000187663
0.000357054
0.000217261
-0.000574317
-0.00151374
-0.00312304
-0.000510597
0.00124797
2.05184e-05
-0.00125788
0.000434544
5.81957e-05
-0.00373414
0.00128548
-0.000382941
-0.000253893
0.000637901
0.000906378
0.000662412
-0.000532008
0.00123675
-0.000493342
0.00459145
0.000231155
0.000183494
0.000259944
-0.000443461
-0.00313974
0.0026843
0.000428554
-0.00119842
0.00113702
5.53816e-05
4.05898e-05
0.000545765
-0.000578192
0.000764087
0.000200732
-0.000954673
5.51118e-05
0.000715959
-0.000772788
0.000277485
0.000419523
-0.000696488
-0.000169249
7.60503e-05
-0.00106363
-0.000418609
0.00146774
0.000137032
0.000700217
0.000615515
-1.38122e-05
-0.000595746
-0.000771152
0.000739466
2.73152e-05
0.000275542
-0.000743493
-0.000135944
-0.000310484
0.00323192
0.000620144
-0.00389325
-0.00354398
0.00228544
0.000432152
0.00023802
-0.000491542
0.00108598
-0.000613159
-0.000470752
-0.00115879
0.000532828
0.00111252
-0.00104386
0.000259116
0.00100041
-0.000441046
0.00044225
0.000644197
0.000624966
-0.000151705
0.000625844
-0.000474111
0.00149787
0.000607731
-0.00211358
5.82434e-05
0.000165045
-0.000701881
0.000214655
0.00048881
0.000788904
-0.000339035
-0.000449294
-7.04097e-05
-0.00242782
0.00246348
-4.93073e-05
0.000742086
0.000345273
-7.59673e-05
0.000204617
0.00363008
-0.00388343
-0.000312865
0.000351388
-1.07081e-05
0.000357979
-0.000346874
-0.000516988
0.000307314
0.000572732
0.00369062
-0.00429919
-0.000972769
0.00111197
0.000991691
0.000755506
-0.00175187
0.000770496
0.0004291
-0.00120028
-0.00286407
-0.00272282
-0.000233188
0.000348143
-0.000204199
0.0029748
0.000808019
-0.00378437
-0.000782884
0.000998268
0.000378944
0.00362013
-0.000276997
0.000229934
-0.000550324
-0.000199825
-0.000500262
0.00287773
0.000896105
-0.00378567
0.00133649
-0.000512446
0.0020316
0.00323568
-0.00330927
0.00364164
-0.00241076
0.00256573
-0.000171324
0.000617857
-0.000260756
2.50557e-05
-0.000673202
0.000650594
-0.000318549
-0.00161684
-0.00300298
0.000511805
0.00240524
0.000442014
-0.00137166
0.000899308
-0.000575441
-0.000101128
0.00114324
-0.00200815
0.000569144
0.000269622
-0.000839455
-0.000543682
0.00115391
-0.000621222
0.00134006
-0.00260819
0.000866454
-0.000911976
0.00324483
-0.000342143
-0.00291208
0.000388694
0.000409328
-0.000797569
-0.000970074
0.00102353
5.19942e-05
0.00136969
-0.00141197
-0.000624834
0.000762143
0.000303528
-0.000607347
0.000303622
0.00315139
0.00135583
-0.00058681
0.00138115
-0.00184961
-0.000709586
-0.000946891
0.00165348
0.000273811
-0.000283493
0.000880989
-0.000740306
-0.000155906
-0.000305117
-0.000320335
-0.000825559
-0.000969913
-6.95645e-06
0.00121426
-0.000374304
-0.000589883
0.000542781
4.63226e-05
-0.000946134
-0.000720117
-0.000348839
0.000916309
0.000502752
0.000503004
0.00034479
0.000444474
0.000274801
-0.000346284
7.16032e-05
0.00444661
-0.00169833
-0.00278665
-0.000650576
-0.000106429
-6.47776e-05
0.000171411
0.000274533
0.000825215
-0.00110259
-0.00108501
0.0013566
0.000142608
0.000992616
-0.000331837
0.000720733
0.000351256
0.000496475
-0.000846752
-0.00135367
-0.00321173
7.30861e-05
-0.000368898
0.000298744
0.00121908
-0.000328457
0.00347676
0.00143642
-0.00491709
-0.000704925
-0.000107569
0.000814134
-0.000244372
0.000813071
0.000694759
-0.00151223
-3.25484e-05
0.000453629
-0.00043678
-0.000759007
0.000350523
-0.00128805
0.00263442
-0.00135101
0.0014603
-0.000861695
-0.000589723
-0.00238303
0.00407185
-0.00169062
-0.00266544
0.00381741
-0.00102999
0.00201394
0.000471111
0.00250183
-0.000647481
-0.000349799
0.000101241
0.00033695
-0.000406851
2.62971e-05
-0.000684001
0.0021741
-0.000506295
0.00149287
0.000215403
-0.000353431
-0.000298235
-9.75271e-05
0.000395961
0.00100637
-6.48085e-05
-0.0001311
-0.000826563
-7.25817e-05
0.00030273
-0.000229748
0.00300397
-0.00257238
-0.00044564
0.000899941
-0.000286048
0.00010687
-0.00221461
0.00224476
-6.95324e-05
4.33048e-05
-0.000481508
-0.000209212
0.000424383
0.00294984
-0.000850231
-0.00212495
0.00468814
-0.000363167
-0.000613484
-0.00380223
0.00434698
0.00112789
0.000293602
-0.0014141
0.000562565
-0.000147067
-0.000498939
0.000954587
-0.000138939
-4.37096e-05
-0.00268978
-0.000406922
0.000787162
-0.000434845
0.00152287
0.000224905
-0.00175365
1.0793e-05
-0.000201418
-0.00112221
0.000771695
-0.00184438
0.000763966
-0.000696683
0.00130334
0.00024835
-0.000236637
0.00142598
-0.000615996
0.00073535
0.00225239
0.000465225
0.000450425
0.00198337
0.000167175
0.00121846
-0.00138892
0.00118799
0.000378591
-0.000576528
-0.000327002
0.00147783
-0.00116058
0.000916558
0.000143029
-0.0010614
0.00274381
0.00243596
-0.00116886
0.00456747
-0.00302623
-0.00238416
0.00585803
0.000415826
-0.000690963
0.000275616
0.000138412
-0.00062666
0.000340169
-0.00104492
0.000392377
-0.000403759
-0.000720435
-0.000426088
2.99143e-05
0.000396283
0.000178074
2.36407e-05
-0.000157827
0.000537597
-0.00133202
0.000620146
0.00154318
0.00160901
0.00348728
-0.00476595
0.00434173
0.00196863
-0.000545914
-0.00148276
0.00138595
-0.000980218
-0.000337762
0.000670211
-2.34742e-05
-0.000649543
0.000697715
-0.000742833
4.45727e-05
0.00122128
-0.00251302
3.33928e-05
0.000185597
0.00198435
-0.00344058
0.00143156
0.000397979
-0.000420587
0.000442234
0.000335655
0.000755106
-0.00186358
0.000483599
0.00136912
-0.000612149
0.000196956
0.00441035
-0.00427731
-0.000128881
0.000348256
0.000206459
-0.000555765
-0.0016121
-0.00030645
-0.000576812
0.00059118
-1.39227e-05
-9.50466e-05
0.000370193
8.58742e-05
0.000159136
-0.000284284
0.000126173
-2.93459e-05
-0.000514215
0.000551562
0.000179984
-0.000243137
0.00388251
-0.00136802
-0.00253058
-0.000736403
-0.000483461
0.000760473
-0.00339247
0.00350693
-0.000110806
-0.00482155
0.00117381
0.00112533
-0.00136567
0.000220624
-0.00110441
0.000882399
0.000230949
0.000259465
0.000311437
-0.000570549
-0.00206224
0.000436883
0.00160993
-0.000854775
-0.000515634
0.00136652
-8.8557e-05
-0.00105581
-9.53671e-05
-0.000373616
-0.00194127
-0.00138066
0.00362793
-0.00151647
-0.00212646
0.000503669
-0.000805803
0.000303269
0.000497283
0.0014103
-0.000396205
-0.000957049
0.000823607
7.75007e-05
-0.000750058
0.00105309
-0.000685706
0.000628237
5.66524e-05
0.000596422
0.000216972
-0.000809054
-0.000595746
1.59989e-05
0.00114266
-0.0013348
0.00018689
-0.000529568
-0.00102181
-0.0015984
0.0026227
-0.000371788
0.000393861
-0.000135106
-0.000635998
0.00228358
-0.00238827
-0.00176681
0.000751765
-0.000161659
-0.000913241
0.0010886
0.00145405
-0.00120916
-0.000249149
0.00196131
0.000578147
-0.00262869
-0.000444757
-0.00111351
0.00155437
0.0013644
6.61352e-05
0.000708934
-0.000773589
0.00125407
-0.00011718
-0.00101796
0.000873512
0.000144535
-0.00284101
0.00177441
9.80644e-05
-0.000552398
-0.000773164
0.0013243
-0.00140449
0.00315942
-0.00183818
-0.000597931
0.00107763
-0.000525666
0.000227157
0.000786006
-0.000933668
-0.000456902
-0.000454255
-0.000351155
-0.00460895
0.00118179
0.00337389
0.00127615
0.00313319
8.63199e-05
-0.00182134
0.0017289
-0.00110443
-0.0026841
0.00376252
-0.00349566
0.00287537
0.000557966
-0.0012036
0.000419389
6.19821e-05
0.000355451
0.000455631
-8.92496e-05
-0.000365767
0.00115739
-0.000172329
0.0007723
0.00258857
0.00233531
-0.00492969
-0.00260864
0.00015532
0.0009148
0.000446133
-0.00136198
-0.000127123
-0.000153168
0.000474097
-0.00141749
0.0017013
-0.000277783
-0.000383791
0.000453115
-0.000134265
0.000819883
-0.000686805
-0.000176519
0.00102099
-0.00501603
-0.000236172
0.00201543
-0.00183655
-0.000237951
0.000497279
0.00181098
-0.00419619
0.000855448
-0.000931855
7.13653e-05
0.00278485
-6.31548e-05
-0.000420878
0.000109508
0.000310901
-1.89792e-05
0.000340999
-5.42571e-05
0.000754862
0.00433575
-0.0051196
0.0007696
0.00163452
-0.00113108
0.000322675
-0.000503758
0.000182584
0.000773465
0.00132579
-0.00210463
-0.00118559
0.000488092
-0.00432271
-0.000926209
0.00152473
-0.000611461
-0.000269936
-0.00193065
0.00208426
-0.00101212
0.000511696
0.000501791
-0.0047105
0.00154789
0.00315515
-0.000447195
-0.000395487
-0.00247395
0.00180643
0.00063424
-0.000242794
0.000323221
-8.02664e-05
-0.000294285
5.59123e-05
0.000238581
-0.00151267
0.000230404
0.00127109
0.00172167
-0.000414795
-0.00142006
0.00128607
-0.000628461
-0.000657706
0.00033069
-0.000792566
0.000462359
0.000308404
-0.00138209
0.00097621
-0.000754969
-0.00486479
9.0598e-05
-0.000593511
0.000622828
-2.87487e-05
0.000171038
-0.00242865
0.000131175
-0.000340794
-0.000446833
0.00437034
-0.00396963
0.00140022
-0.00175801
6.74184e-05
-0.000643182
-0.000541846
0.00327943
-0.00323223
-0.000235225
0.00107197
-6.08517e-05
-0.000101655
0.000162905
-0.00144197
0.000899087
0.000541947
-0.000173729
6.70467e-05
0.00374641
-0.00292931
-0.000301033
0.000228938
-0.00447686
0.00351247
-0.000460816
0.00231041
0.00188608
0.00342529
-4.69582e-05
0.000322105
0.00178407
8.11647e-06
-0.00179992
0.000143732
3.4084e-05
-0.000177607
0.000373672
-0.000431748
5.87353e-05
-0.000938087
-0.00130725
-0.000647788
1.00311e-05
0.000983841
-0.00085135
0.00345022
0.000335707
0.000624853
0.000660809
-0.00110505
7.5023e-05
-0.000401541
0.000383169
0.000352268
-0.00129024
0.000247868
0.00385812
-0.00369975
0.000103238
-0.000488945
0.00216956
-0.000653563
0.000281032
0.000592755
-0.000829056
-0.000160601
-0.00134018
-0.000156696
0.00149463
0.000363681
-8.86011e-05
0.000312683
-0.000151189
-0.000242842
0.000200132
0.000363639
-0.00055985
0.000834967
0.00422872
-0.000125092
0.00117324
-0.00105638
0.000294107
0.000687142
0.00016676
0.000359857
-0.000526476
0.000524304
-0.00026159
-0.000249587
0.000696772
-0.000446219
-0.000270995
0.000144713
0.00155334
-0.000283635
-0.000664258
0.00114309
-0.000479194
-0.000962375
0.00029786
0.000542902
-0.000243888
-0.000298905
-0.000435946
0.000478549
0.000536449
-0.00101361
0.00369268
-0.000389561
0.000127245
0.00140847
-0.000300616
0.000344155
-4.26333e-05
0.000771743
0.00215283
0.000175893
0.000624717
-0.000156297
0.000166117
-9.71839e-06
0.00189768
0.00152356
-0.00344632
0.0003156
0.00128717
0.00431965
-0.00112963
-0.00213515
0.00400007
-0.000266392
-0.000118987
0.00395202
-0.000799009
-0.00322182
-0.00108683
0.000954443
9.03542e-05
-0.000257631
-0.00356478
0.00256517
0.000967663
0.00075553
-0.000507661
-0.00398014
0.000807945
0.00316403
0.000569856
-3.7357e-05
-0.000528503
0.000207493
1.03846e-06
-0.00020833
-0.00324228
0.000645189
0.000443497
-0.000872398
-0.00130736
0.00216145
-0.000211472
-0.00131286
-0.00109605
-0.000347111
0.00348172
-0.00110425
0.00107116
3.06916e-05
0.000961014
0.000104445
-0.000165341
-0.000331106
0.000611579
-0.000277084
0.000651206
-0.000416214
-0.000234652
0.0010599
-0.00108407
0.000197773
-0.000164937
-3.28097e-05
0.000336735
9.97224e-05
-0.000436365
0.000432041
0.000219323
0.00050906
-3.71951e-05
-0.00046859
-0.00500956
0.00367436
0.00131248
-0.00308906
-0.00156928
-0.000945937
-9.58918e-05
0.00104137
-0.00109687
-0.0010708
0.00489831
-0.00383916
-6.59974e-05
-0.00244192
0.00309782
-0.00359426
0.00106199
0.00252697
-0.0029186
0.000977661
0.00309471
0.000580182
0.000430493
0.0032426
-0.00157665
0.000592583
0.00100357
-0.00172815
-0.00138914
0.00309201
-5.22199e-05
-0.000585772
-0.00296702
-1.66714e-07
0.000343657
-0.000245591
-9.81305e-05
-0.0010534
0.000441858
0.000613402
-0.000710596
0.000849858
-0.000144823
-0.00169787
0.0020464
-0.000360781
-0.000153515
-2.56418e-06
-0.00182841
0.000848372
-0.000632395
-0.00123253
0.00166422
-0.000778784
0.00290382
-0.00214263
-0.0036597
-0.00105697
0.00326679
-0.000215566
-0.00309956
-0.00165339
-0.000926572
0.00256886
-0.00425393
0.000186951
0.00356767
0.000308299
0.00170489
0.00118391
-0.00449588
-0.000226624
9.18743e-05
0.00135616
-0.00102663
0.00214138
-4.4204e-05
0.000349383
-0.000304931
-0.000222342
0.000202231
2.0412e-05
3.06831e-05
-0.000215811
0.000185127
0.000566101
5.78511e-05
-0.00143129
-0.000381289
0.00178509
-0.000388176
-0.000279263
0.000218133
6.19566e-05
8.52191e-05
-0.00259913
0.00440429
-0.00315147
0.00077778
7.01846e-05
0.00233482
0.00153342
-0.00387451
0.00181761
7.51353e-05
0.000134475
0.000391444
-0.00108429
-0.000775114
-0.00123516
0.00200404
-0.00243941
0.0026976
-0.00029959
-0.000466753
-0.000142977
0.000217269
0.000900907
-0.00231022
0.00141902
0.00283242
-0.00240484
-0.000607406
0.000609017
-5.16127e-06
0.000405163
6.65588e-05
0.0031819
0.00117626
-0.00437678
-4.48861e-06
0.000139957
-0.000968782
-0.0024322
0.00265235
-0.00036391
5.686e-05
-0.00116588
0.00132613
-0.00016254
-0.000148175
0.00125016
0.000265286
7.84683e-05
0.000619911
-0.000673733
0.000523503
-0.000457958
-0.00145436
-0.00104574
0.00072601
-0.000306022
9.38477e-05
-0.00406761
0.001199
0.00278636
0.00035335
0.000102483
0.00134943
0.00226411
0.000146164
-0.00141471
0.00124445
-0.000291999
0.00424625
-0.00401251
-0.000875043
-0.000176416
-0.000988148
-0.000562701
0.00156408
-0.000146164
-0.000271767
0.000985721
-0.000425041
0.00114758
-0.00042292
-0.000716502
0.000373106
-0.00042134
4.9009e-05
0.000809289
-0.000536783
-0.000266521
-0.00415356
0.00433558
-0.000202183
-0.00128858
0.00195162
-0.000659397