/*--------------------------------*- C++ -*----------------------------------*\
| =========                 |                                                 |
| \\      /  F ield         | OpenFOAM: The Open Source CFD Toolbox           |
|  \\    /   O peration     | Version:  v2012                                 |
|   \\  /    A nd           | Website:  www.openfoam.com                      |
|    \\/     M anipulation  |                                                 |
\*---------------------------------------------------------------------------*/
FoamFile
{
    version     2.0;
    format      ascii;
    class       volScalarField;
    location    "550";
    object      omega;
}
// * * * * * * * * * * * * * * * * * * * * * * * * * * * * * * * * * * * * * //

dimensions      [0 0 -1 0 0 0 0];


internalField   nonuniform List<scalar> 
13917
(
0.0384617
0.0222699
3.42569
0.0246358
0.0221082
0.439128
3.0804
3.59255
4.27051
0.05864
0.183954
0.0650356
0.0247406
10.2247
0.0261851
0.025056
0.0223983
0.0484494
0.0641646
0.022113
0.0222664
3.01081
0.0220925
3.73394
0.0220221
2.92519
0.0415583
0.0528437
0.62567
0.0830214
0.0404052
0.0276449
0.0358596
0.0256407
0.0220367
3.83721
0.022101
3.0064
0.0269177
6.08907
0.0219108
0.0222857
0.0216299
0.0792186
0.0222384
0.0273317
0.0476778
0.0623522
2.9151
0.0220195
0.027277
0.0223618
4.21662
0.0260104
0.0224088
0.0269553
0.184058
0.0220641
0.025166
0.0221791
10.5721
0.0222772
21.3523
0.0221016
0.408883
10.7832
0.0221046
0.0220461
0.167681
0.0356477
0.0221163
4.46743
3.44443
0.0220265
2.98321
0.0790386
4.73237
0.0230067
2.79978
0.0222361
0.022204
0.022112
0.372637
2.892
4.9781
0.0229135
0.0221793
5.97846
0.0270066
0.0216251
3.19723
0.0737832
0.0219448
0.0230731
8.72657
0.378597
0.112018
0.0575332
0.161423
0.104318
0.0218298
0.0324654
0.0799582
0.023531
0.0218263
4.84214
0.379959
0.0654335
0.0224065
0.0429705
3.60589
5.24048
0.0844714
4.64505
0.0229814
2.96457
0.0220155
1.53275
4.59133
0.025984
0.0222736
0.155684
4.05252
0.0498636
0.0219801
0.022904
0.0221676
0.0219875
0.0216395
0.418352
2.86128
0.0228859
0.0222594
0.022274
3.65461
3.75331
0.0389392
0.111599
0.0220974
0.0258698
3.56629
0.0218337
0.0226139
0.0971546
0.0220466
5.08571
0.658699
0.0223105
0.0218008
0.0282066
0.0524835
3.12081
0.0820905
0.0403575
0.0269316
7.60685
0.0342702
4.45442
6.14161
3.51029
0.0242766
0.041674
0.0222361
0.106705
0.0827055
0.151163
0.0234862
0.0548714
0.0220208
0.0333769
0.0405654
5.49138
0.0926808
0.0227201
4.98277
0.0440129
2.7895
1.94829
5.11581
0.021958
0.0768276
0.0415932
0.0218302
0.0221701
0.0299331
3.04029
0.239752
10.5392
0.0349431
0.127057
3.72825
5.82616
0.224314
0.022103
0.119381
0.0404777
0.0225285
0.0219547
0.20346
3.56752
0.027101
0.0220348
0.0513772
0.051879
3.83921
2.49438
0.0220373
0.0220806
0.0563463
3.2373
0.0225056
3.08059
5.45398
0.127731
0.0218312
0.522842
0.0504806
5.10972
0.0219782
10.9139
0.0219509
0.0757836
0.0219
2.97864
4.8696
0.0253712
1.27712
0.0272242
0.0218341
3.7831
0.0911703
0.0346546
3.70151
7.15629
0.0217878
0.0280755
3.08841
4.67606
0.0222281
0.021954
4.69545
0.125739
0.0222668
3.26921
0.0809116
0.0405567
0.0355342
0.0222281
0.0438847
6.16396
0.0222256
0.0952778
0.136372
0.0221451
0.0220514
0.0650914
3.52362
0.0781664
0.0302539
0.0263144
0.0222712
5.39348
6.48852
3.53672
0.0218394
3.71447
5.69011
4.49875
2.75369
0.0846577
0.0222145
0.0219383
0.0480114
3.27267
0.103512
0.0249095
3.93652
0.0447907
0.0216302
7.97978
0.0220897
4.89211
0.0265953
0.022262
0.0272345
0.0400566
0.0424014
3.477
0.0322011
0.0223036
0.265022
3.76789
6.38244
0.021979
4.65778
0.0221735
0.0223012
0.0220219
0.938101
0.0221055
0.0818272
0.0347351
0.0220002
0.0517389
0.0232766
2.51114
0.043025
0.0688834
0.021906
0.0220392
3.68644
4.58241
0.0220101
0.021919
8.02189
0.0219463
3.29415
0.0218893
2.92763
0.0230075
0.33954
0.0331857
2.97347
0.0239671
1.38879
0.283582
0.0272372
0.125053
0.436873
0.0223271
2.95803
0.121433
4.74504
0.0248493
6.24556
0.0286957
4.39815
0.231092
0.101313
0.0989407
3.27121
0.0222161
0.0419355
3.61597
0.022209
0.0235786
5.36084
0.245
0.0226494
2.97017
0.582637
0.0218677
5.66139
3.78963
0.0220832
0.0219058
0.0221811
0.021797
0.276424
5.08412
0.709021
3.63046
0.0220224
0.105349
6.00939
0.0410346
3.01347
3.06482
4.66855
0.0217843
3.41263
0.0218866
10.6313
0.0221743
3.63137
0.0811712
0.0257151
0.0221977
0.0542768
0.0828251
0.0634133
10.258
4.07142
7.69494
0.0456699
0.0554724
0.0219614
5.04129
2.9256
0.0220915
0.671271
0.0220463
0.257033
0.0229946
0.0222262
0.0233073
2.68458
0.0232689
3.11552
10.2711
0.151306
0.453421
0.0223199
0.440479
0.401322
0.02204
0.270714
0.0221872
0.0220341
0.0831937
0.0222616
0.0220261
0.0218829
0.299453
0.0222473
5.11798
2.93101
4.92488
0.224682
2.83207
5.08795
0.040509
0.0220277
0.143304
0.0266175
0.0291938
0.0220954
5.03996
3.09464
3.03658
0.0249978
0.0920958
0.0245772
0.0273872
0.0630436
0.0230636
3.42918
0.0223923
0.0220967
3.18284
2.82154
2.76967
0.105967
5.75454
2.82629
3.45944
4.75271
0.0216653
0.0518562
0.0231173
0.0221115
1.26808
0.0486686
0.0220605
0.0543986
0.0385231
4.87297
0.022036
0.104579
18.4823
0.520378
3.99361
0.0222548
0.0220983
0.0224931
0.034516
0.0217872
3.1209
0.555406
0.0320312
6.21892
0.0268842
0.110218
3.58069
0.666398
0.13995
3.73093
0.104595
0.053604
0.136682
0.0429468
0.180565
0.516664
0.0484525
0.0733254
0.0219265
2.37856
0.0279196
0.021793
0.0331388
0.0231495
4.51993
4.67242
0.0219344
0.0216526
3.32586
7.18612
0.0222618
5.30714
0.023376
0.171494
0.0219524
4.10897
4.64777
0.0281301
0.0224613
2.70318
0.194188
6.30067
0.0222694
5.29961
2.57519
8.26803
0.0218038
4.56348
5.50583
0.0413168
0.0218992
0.0223701
0.0798982
0.308427
0.0219779
0.0219101
0.0219609
0.0219555
4.23473
1.26868
0.0407959
0.226452
0.0219673
0.0218361
0.0898858
4.02828
0.0323151
0.0220421
0.0220299
0.0220662
8.25911
6.71561
0.0221737
0.0220657
3.39436
0.0423365
0.033177
0.0220853
0.0233818
0.0268262
0.0714791
0.33807
0.240432
0.146372
0.0848978
3.446
0.0668079
0.0219876
5.06616
0.0220698
0.0238434
0.0250681
2.11004
0.0705793
0.0218413
0.518037
0.0927011
20.189
0.0852519
0.0353578
0.0402842
0.0221888
6.0978
0.364488
2.95276
0.0222969
0.0292395
0.235757
3.02771
20.4476
0.0596979
0.120022
0.0250015
0.0243035
0.0220895
0.0527201
0.0842334
0.0221641
0.0500257
0.130294
3.0057
5.66585
0.0241685
0.106325
4.23891
0.0283686
0.0224201
3.6176
5.69418
4.70085
0.211535
0.0216539
4.955
0.0777603
0.0218761
0.0307087
0.0688075
0.0344472
0.0816454
2.8073
0.133106
0.0385529
6.0321
0.0234537
5.91054
0.0222369
0.0221668
4.64401
5.59344
0.601803
0.0234529
0.0226664
0.0220685
0.045373
3.11147
0.134372
0.02451
0.127137
0.0531063
0.0219567
1.30193
0.12898
3.39675
0.0219627
0.129568
0.0231238
14.9125
0.0595797
0.0704715
0.0294944
0.0218865
0.0217802
0.0222128
0.108284
0.0276978
0.259535
7.1536
0.0537846
0.0218761
0.127228
0.62535
3.96806
0.022183
0.0271322
0.0219175
0.0303437
0.0253302
5.28603
0.022228
2.2831
0.0299247
0.184573
0.0750318
3.48004
0.0729552
0.0223247
3.50278
13.7914
0.0220804
0.0250135
4.58274
0.179511
0.103402
0.0222376
0.0225027
0.266082
0.0258797
0.0626331
0.0624464
0.0217868
0.0521151
3.48062
0.0221863
0.0237951
0.0219803
4.80855
0.0222653
0.0246992
5.02005
0.0234226
5.62984
0.0269795
0.0365099
0.0219731
0.0484089
0.0220295
0.0524749
0.0218913
0.0770998
0.0233691
27.8706
2.92795
4.07804
0.0223514
0.0222055
0.0639844
0.0451327
4.08766
4.20493
0.047919
0.0220389
0.294949
0.633516
3.37252
0.209932
0.046627
2.79913
0.0382237
0.0429441
0.11923
0.164667
0.0473498
1.0398
0.0467968
0.0243987
0.0731481
0.0273344
0.0219038
0.0301225
0.0429263
0.0276138
0.0220364
0.021931
0.0535567
0.0238444
0.0634657
0.0220404
0.0220596
0.0222731
0.0232674
0.0216076
0.0258445
0.0220001
4.25833
0.0646269
0.37921
0.0218076
0.0222468
0.0475022
0.0543695
0.0227012
7.8513
0.0714449
9.42872
0.0300831
0.104116
0.0227493
0.0222685
0.0219387
0.0232858
6.73519
0.0222548
5.24259
0.0260977
5.48364
0.0477406
0.0724024
0.182265
0.0217249
0.022291
0.0654715
0.0220493
0.0224572
7.45766
0.0228069
0.0221809
0.0277384
0.0219473
0.0217092
0.027682
0.0286358
5.35488
0.0338628
0.0221856
0.0218864
2.96627
0.10636
0.0222526
0.0223047
7.68311
4.50999
7.14549
0.0353334
0.0244105
0.0217982
0.0216924
0.0492546
0.0347708
1.23665
0.0252086
3.11317
0.02242
0.0237036
7.82674
0.022052
0.0280879
0.0220262
0.0220807
0.0419333
0.0428786
0.0227144
5.53567
4.0831
0.0759562
0.0219843
0.0216765
0.125014
4.93528
0.0222612
2.33786
0.0216705
0.040656
0.0219889
0.021949
0.338028
0.0221762
3.46155
0.0378459
0.0222729
0.0216596
0.0220699
0.0219295
0.023673
4.16131
0.0221014
0.0218781
3.70816
4.89804
0.0396385
0.0440435
0.0602504
0.0254927
0.0218466
0.0279629
4.10313
0.0808814
0.0221297
0.0224055
4.31493
0.0349963
3.78148
0.0222659
0.0228176
5.84793
0.0331106
0.0228133
6.98983
1.78057
0.0219257
0.109804
0.0219362
0.022129
0.0217957
3.47813
0.0215977
0.0223066
0.0218434
3.40221
0.0259907
0.170357
0.063361
0.0219598
0.0326316
0.0221738
3.66067
0.0219695
0.0221346
0.0221817
0.129723
0.022174
0.133514
5.33638
3.72719
0.0265865
3.6942
4.45779
0.0220366
6.318
10.2055
4.04201
2.84324
3.6065
35.0657
0.119037
0.0224054
2.76473
0.0329792
2.87125
0.0217867
0.0219435
0.0222587
0.0221669
0.0263534
0.0309195
3.93439
0.0219313
0.0220728
5.85752
0.249037
0.0220703
0.0381175
0.0292341
0.0224255
2.77095
0.0403877
0.0238047
0.0258784
5.46151
6.31719
1.32725
0.0219541
0.1956
0.0922333
4.10247
4.70209
0.0918964
0.0219512
0.0228149
0.0224203
0.0215439
0.0233701
0.0216562
0.0269206
0.0372954
6.56886
0.119777
0.0223143
0.101666
3.45982
0.0398132
0.0223411
5.37199
0.0219746
0.0223726
0.0375472
7.90949
0.022175
0.0219659
3.07204
3.26941
4.00484
0.0933297
3.81601
0.02194
0.146815
0.02237
0.0220022
0.0223548
3.04633
5.25103
0.0218862
0.0216587
0.02205
4.72768
0.0231469
0.0294306
0.0220495
0.0225264
0.143177
0.0219884
0.0534033
0.277095
2.75225
0.0221035
0.0760526
0.0243129
3.66242
3.41166
0.022027
3.7082
0.0637692
1.43614
0.0221731
2.6574
0.0222459
0.0267545
0.0410456
0.092485
3.25237
3.47608
0.203305
5.75151
0.0218694
0.233987
0.0219436
0.0273226
3.06166
0.0221243
0.0222534
0.0229709
0.0223635
5.80668
0.0217135
0.0220835
0.0528859
0.0437088
0.0469818
0.581216
0.160517
6.68317
0.0673353
0.0343432
0.042117
3.81026
0.0405026
12.6856
2.87031
0.0261526
0.0220076
2.76722
3.41516
0.0223142
0.0937642
0.0326821
0.0227854
0.0267402
0.0224187
0.0410904
0.0222921
0.0456745
0.103862
0.0218931
0.0539105
0.0219342
0.0569076
0.0218878
0.0261265
0.0530765
0.0240137
0.0223642
0.0218926
2.01197
0.070841
5.54927
0.0220242
0.0222283
0.0548996
0.022026
0.0778144
0.071131
0.022784
0.0818251
0.0219154
9.74158
0.0222775
0.0380949
4.67561
0.229562
0.0219464
0.0237245
6.64346
0.0220045
0.0219285
4.03239
3.33064
0.0242596
0.191583
0.0221038
0.0223661
3.10605
0.0231795
0.0217332
0.728664
0.0219614
4.47938
0.0221974
0.0217332
0.0222552
0.16155
3.13987
0.0221553
0.0223238
0.0219404
0.0258519
0.0220775
0.942426
0.0526274
0.0222688
5.01412
0.0480198
0.216004
2.79063
3.70524
0.0218668
0.0222764
0.0220863
0.636712
0.0263341
3.16585
4.72326
0.023942
2.99674
2.23127
0.0462213
0.160823
0.0649153
0.376879
3.33111
0.0598991
0.84102
2.85985
0.0629961
0.0252129
3.66773
0.053176
0.0218009
0.0237033
13.6995
0.0373898
0.0219284
0.0500202
0.0841739
0.0373586
3.60274
0.023844
5.88048
0.0416822
3.30021
0.105074
0.207334
0.028655
0.0218968
0.0226747
3.55352
0.0220018
0.0241545
0.0218383
0.0233929
0.0219475
0.0350216
0.178363
1.95022
0.0442891
0.059241
3.10872
0.303839
0.0219521
4.56357
3.04922
0.0217818
0.0219203
0.0302054
5.73284
0.0222546
0.0611493
0.495315
0.0458983
0.0220761
0.0238291
0.0219924
0.0938204
0.0386468
0.0219914
29.2878
2.79805
0.0418961
3.24399
0.0641246
1.95001
0.0233635
0.0257706
3.4545
3.98391
0.0923685
1.66793
0.0279742
0.0222761
0.0221631
0.0222737
0.0220393
0.0226625
0.0503021
0.0219553
0.119322
0.0219458
0.0282159
0.0219133
0.0714171
0.124435
0.577781
0.0220217
0.205603
0.0221587
3.69143
0.022042
0.0255995
0.0221235
0.292864
3.75596
0.169734
0.0219504
0.119915
0.022077
0.0292301
3.27712
0.0220852
0.0223735
0.042412
0.0306991
3.0031
0.0219575
0.0296378
0.0239797
0.0220441
0.0320647
0.0225607
0.0217648
0.0237077
5.35729
0.0245817
2.67142
4.8288
0.0473257
2.98251
0.0243357
0.0217713
0.0308318
6.74705
0.0241729
0.0358578
0.0413505
1.76828
0.0219164
6.32518
0.05553
0.0618528
0.0217738
0.021671
0.201398
0.0224565
0.0222859
0.0336488
0.0217859
0.024422
0.0282134
0.0669119
0.281709
3.03895
0.0265635
0.069471
3.5268
7.05582
0.0381663
0.23572
5.71628
0.0373729
12.6784
0.0236933
14.4055
5.04218
0.0218031
0.0222619
0.0219603
0.023096
0.0422072
0.0219303
0.0238953
0.092594
0.0235633
0.0351003
3.3503
0.0300605
0.0246144
4.3054
0.02281
5.25184
0.0252137
0.0528409
0.0219062
5.55003
4.99918
0.0220766
0.0232259
2.75067
0.0294474
5.93306
0.0220231
0.0219639
3.00429
0.0231146
0.0436245
12.7487
0.0220675
0.0494616
0.0287238
0.0216698
0.0219074
2.75738
4.65476
0.022329
0.0239268
0.0220849
0.0264351
0.0369304
5.00871
0.0227231
2.58074
4.58815
3.34557
4.79309
0.0230463
0.13587
0.175342
0.0289739
0.0220638
0.0580976
3.19405
0.023423
0.0453443
3.76074
3.56483
0.275759
0.0252445
0.0223147
0.0222465
0.0220694
6.20675
0.0508984
0.0244371
0.0233757
0.0246043
0.0222698
0.0220077
0.0220469
0.0680958
0.0401056
4.96505
0.0462176
7.24748
2.95784
0.0302673
0.0471658
0.0218235
0.0283564
6.80298
0.0222114
0.0236804
0.0481828
0.104019
0.0555899
2.88248
3.0684
0.0219743
3.14648
0.0216399
0.0224657
0.0448811
0.0222733
0.0222241
0.161507
6.37026
0.0219608
3.23665
0.0221984
0.0218593
0.0236064
2.74026
0.0287049
0.0252207
13.1786
0.0230892
0.926548
2.66824
0.0222462
0.0472504
0.0220117
5.36785
0.0621515
0.0220481
2.94695
0.0495595
0.0761893
0.0222783
5.32323
0.0291762
0.43113
0.0236691
0.0690497
5.49308
0.0218717
1.39216
0.0221378
0.0552587
0.0513687
0.0222453
4.384
0.0236753
0.102194
0.0516966
0.0956963
0.0396754
0.0426842
0.0226442
3.73687
0.0316716
6.54641
0.0298696
0.0613453
0.0220688
0.0413716
0.0220652
0.0710713
3.47227
0.0228712
0.0218674
3.30537
0.0231379
3.4781
0.0226775
3.25138
3.35697
0.0340486
0.0219976
0.021949
0.0221088
0.0216595
0.0872001
0.0540477
0.038541
0.0258227
0.0220833
3.08212
0.0240437
0.0329726
3.51781
0.0220503
18.1155
0.047857
0.031527
1.26495
3.46842
0.263116
3.47503
6.08757
0.0219112
0.289814
4.28698
0.336347
0.0221732
0.0222375
0.112128
2.88948
5.15549
0.434708
0.0228828
0.0497758
0.0380044
2.72226
5.2093
0.041075
0.120756
0.024013
0.0710859
0.0927898
0.0221649
0.0876165
7.6326
0.0221309
4.60129
0.022253
0.0221299
3.88073
3.05667
0.0218584
0.0230013
0.022643
0.0219553
0.0468516
0.168659
0.0237789
0.0219927
0.0220989
0.0409846
0.027604
0.0273607
0.274449
0.0220364
3.08289
6.73464
3.01392
0.140522
0.0475821
3.83515
0.0326995
2.74481
4.25785
3.42584
0.0225152
6.22759
2.95397
0.0217838
0.0220397
0.086217
3.95483
9.35179
0.021979
0.0220763
2.79508
1.90209
2.54971
0.0241318
0.023958
1.94536
0.0222461
2.77538
8.87616
3.95581
0.952338
0.0220828
0.0219424
0.0218923
0.0261884
3.43748
0.0397578
0.0262948
0.022648
0.0784893
6.01301
0.0410013
5.6257
4.87597
4.74059
2.18321
0.0220551
0.0221722
3.32061
0.0216983
0.0217917
0.0231494
3.12565
0.035816
11.7444
0.108647
0.0220324
4.07633
0.037324
0.0219482
5.38247
0.157928
0.0251149
0.0224313
5.98541
3.74438
0.0221804
7.01716
4.58181
7.10983
0.943563
0.0730313
0.0219578
0.0227817
1.10621
0.0257428
3.55428
0.0392851
1.0506
0.665155
0.0229424
0.0290084
0.0219631
0.0227612
4.40087
6.47507
0.0220703
4.51465
0.0417858
0.0220831
0.0248462
0.0219456
0.141663
0.0226112
2.08013
0.0500237
0.0219499
0.0218797
0.0914665
6.74775
0.0369771
0.0241138
0.0401865
0.0220575
0.0233998
0.0278837
7.28958
3.61954
3.85451
0.0217462
0.0218733
0.0224428
0.136232
0.0218903
0.0224999
0.167242
0.0541901
4.09199
0.021784
3.61704
3.59861
0.0222843
7.6377
0.104987
0.0376012
2.03896
0.02239
5.65989
0.0294667
0.0231249
0.0239485
0.0216945
3.18097
0.0224938
0.0234758
0.0309706
3.13283
3.01093
0.0222459
0.0220224
0.0237113
0.0221047
0.111796
0.0224741
0.0719468
0.0240184
3.26119
0.0231998
2.95213
0.0217504
4.40126
0.0225918
0.0216819
8.17146
0.291321
0.113216
3.91115
0.0438783
0.0387509
0.0220487
4.19878
0.0220659
0.0218958
0.0877364
0.0648318
12.3521
3.95853
0.103714
6.45582
0.105944
0.425171
0.0220648
0.0252262
0.028387
3.15885
0.0248892
3.37408
3.92046
0.0225783
0.0220752
0.0220553
1.02161
3.32381
0.0237873
0.0221092
0.0257724
0.0278566
0.0364238
0.317809
0.257662
0.0220647
0.680892
0.0719467
7.03061
0.0632184
0.0234123
0.0241095
3.91768
0.0218892
0.0752637
3.3155
0.0228076
0.0254525
0.171485
0.138845
0.0228255
5.83532
0.0246098
0.216772
0.0424754
0.0301998
0.02321
3.69857
0.0218702
0.0904867
1.37595
4.56184
0.0455424
0.0593516
0.0264364
0.046598
0.0222659
4.87579
0.0272758
0.0221977
0.0295841
0.0220924
0.0222692
3.26071
0.0220705
0.0221794
0.0220901
0.122747
0.0222661
0.0323035
0.0678035
0.178808
0.0970461
0.022254
0.207171
0.422319
0.172504
0.0719953
0.0273322
0.137865
3.81205
0.447149
0.0222845
7.21452
3.11119
0.0222839
0.0243508
0.0216808
0.701642
0.0882306
0.0223454
1.30457
3.28649
0.0218234
0.0222334
2.79318
3.57047
0.0659519
0.0217027
8.23445
2.70211
3.20673
0.0220327
3.145
0.0854476
0.0681271
3.83123
0.026398
0.021693
0.0296493
0.148182
0.0316214
2.89326
3.65702
0.021864
5.95486
0.434372
4.02649
0.0217488
0.0525962
0.0223022
0.0219565
2.95907
4.76095
0.222864
4.60557
0.0292286
0.0462591
0.0222069
4.1062
5.41658
0.0220512
0.022391
0.0316644
0.0220409
0.0474875
3.11538
7.0253
0.0467858
0.0226825
0.0225249
2.99362
0.0250419
0.0484994
0.0218453
0.0230968
0.507304
4.91706
1.87552
2.86859
0.0221708
0.25673
0.0223299
0.0468668
9.81043
5.94992
0.022075
0.0222938
0.0367688
0.0257611
0.0222098
3.09003
3.22046
0.0218747
0.021574
0.0221911
0.0219732
2.6072
0.0218722
2.87303
0.0875955
0.0651046
0.021934
0.0459281
3.82627
0.0330376
0.381693
6.74568
0.0223114
5.76253
0.033114
0.0357269
0.307922
5.85765
4.04495
0.0607476
0.0219205
0.212229
0.02188
0.0253059
0.0222436
2.92499
0.0316254
0.646068
3.52563
0.0448848
0.0221255
0.217572
0.0272979
0.0222704
0.259716
0.0216349
0.0407405
0.0330506
0.022201
9.61192
0.0234972
0.553497
0.0228952
0.0219464
6.16589
2.80309
0.0241674
0.0324263
0.0396486
0.0533996
0.0566543
0.0272096
0.025908
0.0255669
2.199
0.0251351
3.05015
0.0571653
3.61802
0.128651
0.0230577
3.19467
0.0216415
3.22577
0.0242693
3.65555
1.66266
5.06851
7.08694
0.261836
0.0731123
0.0222995
2.99712
0.080702
0.0220478
6.64833
4.79935
0.0233443
0.0244306
0.030135
0.0301544
0.0323627
4.24059
0.0222841
0.0315835
0.0356248
0.0321354
0.0221645
0.082996
0.02168
3.11232
0.0237321
0.108842
0.0310853
0.037709
0.103358
4.92208
0.0740678
0.0218718
0.206068
2.98605
23.1156
0.0227916
3.29985
0.0288369
1.74981
0.022066
0.0245819
2.84248
0.0526221
4.46168
5.97628
0.0332618
3.77773
0.0220256
0.0216751
7.29698
0.058696
0.0245304
3.91613
0.0268837
0.0448472
0.029378
0.0625842
0.022301
5.22194
4.25802
6.41062
0.212986
0.0257189
0.0527364
4.38735
0.0241487
0.0223607
0.0725565
0.0217298
0.264603
9.50344
5.79989
4.71635
0.0532055
0.0228686
3.10413
0.0216421
0.069141
0.0222348
25.3833
0.0239387
0.0462986
3.03875
0.0999576
0.0220288
0.0319453
12.5633
0.0220815
0.133844
0.0218586
9.01107
3.42417
0.104661
0.077764
0.0219564
3.19004
0.146984
0.0374348
0.0218598
0.0229889
0.0221471
0.0523959
0.0221241
0.0834363
0.0221251
0.021891
5.97077
0.0219529
0.0268066
0.0259021
0.0222745
2.8239
0.0219305
0.0334662
2.95564
0.0498035
3.03537
0.0220779
3.83467
0.0521985
3.68728
0.023709
0.122501
0.0226004
0.0390729
0.121517
0.114596
0.195861
3.17927
0.173761
1.18075
0.0270482
0.108413
0.041086
0.380499
0.0251278
0.0225302
0.0220463
0.0499149
0.0449753
4.45957
0.0494866
3.55704
6.40818
0.101496
0.0220506
5.20968
0.183889
0.0225016
0.0241373
0.0221015
4.28914
0.0220457
7.54997
0.0219332
0.0276266
4.019
0.0729447
0.0220494
0.0220406
6.42207
0.0219322
0.0241584
0.0255778
0.0322166
0.0275456
0.0222391
0.150395
0.0821649
0.0431864
0.232688
4.01771
2.86157
5.12992
0.021762
0.0220108
0.0947153
0.0228715
0.0465937
3.23381
3.00065
0.0216979
0.022049
2.65679
2.8932
0.0217173
0.0218774
0.0265718
15.5506
2.8973
0.0265639
0.033177
0.0221991
0.306975
0.126771
0.135884
0.0316239
0.0432399
0.0224292
0.0362262
0.26076
0.0228164
0.0223426
0.0263585
3.23367
0.0252555
6.22028
0.0221072
2.86346
0.0360031
0.0281153
0.0217957
0.0219364
0.583338
7.44141
0.0577619
3.98241
11.6981
0.0225978
3.04381
0.161958
0.0219472
4.7423
3.41214
0.104315
0.0222538
2.80428
4.02654
0.0221981
0.0390058
3.74954
0.043302
0.0220947
0.0218772
0.0225948
0.02443
0.070454
0.225842
0.0784862
0.0675357
0.0217638
0.0222494
3.72011
0.0219043
0.0461218
0.0266425
0.0226693
0.0463183
0.022032
0.0238293
0.289596
0.0220036
3.6718
0.0220295
9.40755
2.72553
0.0804377
0.022314
0.0222927
3.19608
0.0216832
0.0243654
0.0223594
0.258598
0.511776
0.0327707
2.76283
0.0411462
4.25044
0.0225532
0.0640964
0.0219798
0.0221393
4.6026
2.8663
0.675064
0.0239503
0.0628215
0.0633843
5.00719
3.02713
0.272777
0.0374475
0.0216359
3.2524
0.0220523
0.0221083
0.251588
0.113565
0.0283487
0.185935
0.046268
0.031431
0.0275649
3.93847
0.0246712
0.0219982
5.91589
0.0463882
0.0217686
2.94932
0.0220349
0.0221117
0.141705
0.125266
14.8534
0.0217822
0.0248429
0.0219354
2.15892
0.021918
0.511744
4.69309
2.73695
3.00804
30.049
0.0302761
3.62057
0.881229
0.0222094
0.0305745
0.0431021
0.0303836
1.27187
3.273
3.95859
2.67974
2.18634
0.0222033
0.0980372
0.022042
4.51739
0.028582
0.0238156
0.0243562
0.0229374
0.0219205
0.0949201
3.91534
0.021748
0.0238871
0.0218717
3.67085
0.0237598
4.6471
2.93516
0.662025
0.0220961
0.0219274
3.63962
0.365662
0.0221391
0.250367
0.0222277
0.115567
0.172949
0.0819274
0.0488986
7.01473
0.0218457
0.0219984
2.32169
2.79942
0.0290118
0.0453044
0.0219647
7.78343
0.0220235
0.0219557
0.0233889
0.0220214
7.04941
3.19006
4.30436
0.0620167
3.23268
0.463876
0.0216962
0.0312585
0.0217414
1.24423
0.022232
0.0249152
0.0220152
0.0219313
0.0219154
2.35432
0.023504
1.63353
0.0217541
0.032655
0.0231659
1.52136
0.0220502
0.0313271
0.0357111
0.0643135
6.96823
0.0219287
3.63487
0.061308
0.044524
0.022173
0.0219639
2.9185
14.3384
0.0222609
0.0220035
0.210515
1.02595
0.0381268
2.86254
0.0228421
3.76725
0.0315344
0.0217408
4.88573
0.023947
2.80046
0.0220429
0.0229002
0.0221206
3.43083
2.76982
0.0217142
0.23225
0.742535
0.0220612
0.0219798
0.0219115
0.253095
2.97228
0.0581648
0.0253933
0.0376224
0.0220353
0.0220788
0.0239673
0.0220087
0.177858
0.0220891
0.0622513
0.471222
0.0345577
0.0216501
3.22356
0.0677568
0.0220436
0.0707282
0.0305359
4.21369
0.0245683
10.8027
0.051365
0.0220423
0.0747937
0.0734677
0.0249428
5.07603
0.0592941
0.0318363
4.39753
0.0219846
0.125561
0.0852006
0.107888
0.0219502
0.022008
0.0216792
0.0332074
0.0542835
0.0526055
5.99802
4.17815
2.93261
0.0222665
1.93795
2.71997
3.03034
0.0220186
0.0220799
0.0501719
2.93515
0.0242722
0.0351787
29.9004
4.17114
11.9104
0.116775
0.146065
2.686
0.318287
0.0216848
8.08825
0.244366
0.0225089
0.0226841
0.022942
4.22927
0.0818212
4.2522
0.0241636
2.65471
0.0222717
2.88915
3.25924
0.0222708
0.0338408
3.39702
3.81593
0.0503851
0.0231234
0.0238292
0.022414
0.194948
0.127294
0.908642
2.999
0.0218108
4.80499
0.133719
3.47544
0.0220308
0.022165
3.45636
0.276977
0.0219896
0.0460352
0.0731943
0.0390323
3.1126
3.20681
3.97671
3.05786
0.0255071
0.0217544
0.0665247
4.04432
9.68234
0.0221403
0.248417
0.0900584
0.48043
0.0231824
0.022256
1.14837
5.06938
3.10959
1.56641
3.9755
0.0219692
0.249804
3.06968
0.0222622
0.062856
0.0913332
0.0217272
0.148239
3.47686
0.239094
0.022255
5.0494
0.103471
26.4498
0.0215661
0.0243715
0.0222506
0.024119
0.022212
0.0502558
0.0397666
0.0420953
0.358327
0.0335366
3.34845
0.0253575
0.0309686
0.0279027
7.40672
0.057275
4.26172
0.027959
0.0278634
17.5957
0.0976506
0.0220874
0.0418422
5.10198
4.17222
0.259336
0.022018
0.0219447
0.0219885
3.69863
0.0232831
2.47159
1.33871
0.248052
0.0313139
0.194343
4.73637
0.0222133
6.86876
0.0334159
0.0506527
0.0220115
0.0221081
0.0486732
3.43815
0.0220806
4.33221
0.388553
0.0943957
0.148255
0.0219317
0.022027
0.029864
0.0236392
25.0477
26.4424
0.0798328
0.587379
0.022007
0.0222159
0.0223328
0.0222462
7.73959
0.0236926
3.79372
0.0852985
0.0232283
0.359194
0.949006
2.76616
7.16524
0.0240039
0.0219698
0.0221302
0.0245589
0.786803
0.227399
4.72609
0.0221546
0.0228863
0.147514
0.0222602
3.353
0.0237445
0.141612
0.161032
0.0408827
0.0392144
0.0217817
0.0437989
0.0377121
0.185841
0.0825621
0.0419684
0.0218788
0.2061
0.0219224
1.42841
2.69076
0.915635
0.0221051
0.106232
0.0220582
0.0458046
0.0232573
0.0233526
0.0282966
7.34791
2.88956
0.0792819
0.0459273
0.195654
0.0711507
2.93946
3.31912
0.0309376
3.32516
0.276552
0.0219183
0.0567776
3.20209
0.0984803
0.0222356
0.0492876
2.22794
0.780439
6.7699
0.0223573
4.01515
0.0220997
0.0219576
0.043523
3.8304
0.0222639
3.83461
5.07042
3.43525
11.3579
0.354969
4.22327
0.233656
0.0217737
0.0249884
0.0217608
0.042669
0.255464
0.449401
0.0244421
0.0410668
0.0217668
3.64046
0.0377183
0.0441598
2.87915
0.0992105
8.22179
3.92734
0.0220036
5.94598
0.0221187
0.0283342
0.0468568
2.7634
0.182778
0.0278814
0.0241814
0.552234
0.0332698
3.04947
7.32381
0.0323309
2.75204
0.0464757
0.0222733
1.12947
0.0564785
0.0230572
7.79008
17.1582
0.0298196
0.0261116
0.154821
5.40087
0.0219817
0.0223773
0.0217096
0.0217969
0.0223448
5.16271
0.0314971
3.01161
0.0219595
0.0221435
0.846302
0.0224483
0.0245722
0.0220594
0.0220406
4.44955
0.0218553
4.4889
0.0222846
0.0235459
0.0405503
0.0221837
0.148381
0.0218697
0.022265
0.0218674
0.0276726
0.0868492
0.025307
2.70135
0.0219808
0.0429052
0.0296684
3.32848
0.022777
0.0222686
0.0219358
0.0217614
0.331249
0.0219361
0.022024
0.0249945
0.620815
0.0219392
0.0423442
0.032519
0.0220568
3.93628
7.90942
3.56789
4.04088
0.0256702
0.115726
0.0221798
0.100342
0.296105
0.0226983
4.40065
0.16049
3.96092
0.0307123
0.0220389
1.50436
0.0422228
0.562417
3.67963
0.0217333
0.0220079
6.69742
2.68884
0.0584773
0.0542807
0.0231854
12.7624
5.27991
0.0215745
0.0219735
0.0223212
0.0221726
0.0222477
0.0220445
0.0355942
3.10624
0.0309268
0.0222267
0.497645
0.0219936
0.603606
0.0454681
0.0225858
0.0275316
0.0219343
0.287956
0.0249518
0.0520109
0.0219856
0.0224332
3.7433
4.12334
0.0221771
0.0505411
0.0442133
0.0309391
0.023973
0.0222713
0.0234931
0.990611
0.406381
0.0429113
4.35194
0.0229929
23.6926
0.0942574
0.025938
13.7432
0.023129
2.99537
4.3999
2.85192
1.3384
3.15305
2.71502
0.0218238
0.0271992
0.0247615
0.0217454
0.0218936
0.0292781
0.0751122
0.0218985
0.0294144
0.117904
0.072261
0.339298
3.07571
0.032635
1.10981
8.27264
0.0340139
0.0249373
0.151321
10.6889
2.88202
0.0255824
0.0217513
0.0219113
0.0218554
0.0311183
3.10127
0.286517
0.0219667
3.81957
0.0219853
0.159376
3.05169
0.0817329
0.15463
0.0908022
0.313139
0.0228853
0.0330249
0.0218876
0.214329
0.0219941
0.0231947
0.0327985
0.180508
0.022176
0.024474
4.19951
0.021832
0.0221894
0.0290946
6.61908
0.0959783
3.75983
0.0383559
0.0221495
2.95407
0.0368781
0.0235546
0.0220334
0.030539
0.02656
0.0220428
0.0296464
3.59825
0.0237132
0.0217432
0.0467928
0.0219013
0.0316742
0.0300885
0.0220693
0.0220024
4.68628
0.0217682
0.0220381
0.021709
0.0258029
0.02154
4.08936
0.0259403
0.164539
0.0219633
0.0220627
0.0224621
3.55472
0.0663305
0.0220479
0.0217603
4.67105
0.0251168
0.0603837
0.021875
0.124236
0.0235026
0.0216074
1.11788
0.0219972
0.0222957
0.022146
0.0222461
0.0242019
0.0221283
0.0220371
1.56415
1.56063
4.49274
3.32674
9.39863
0.0219082
4.00021
0.0219701
2.93742
9.15333
0.0218122
11.0397
0.0219817
3.91692
11.5636
0.281246
3.22184
3.11882
0.601461
3.45864
7.22386
4.12864
0.041912
0.0435189
3.76377
0.0235534
0.0217176
2.3646
0.0241178
0.0282491
9.53855
0.0230864
3.35587
2.89475
5.62855
0.319934
0.111188
0.0222517
0.0282802
0.0485002
0.0224369
6.38066
0.281092
0.108765
0.0219456
0.0220693
9.92084
0.0217623
0.518292
0.0219544
9.61469
4.1499
0.0337227
0.0261453
0.0220339
10.3922
3.11154
0.025483
0.0331467
0.0222857
0.0222856
0.0570098
0.0232155
0.0319987
0.0629982
0.0243271
0.0333107
0.0220452
0.0320492
16.9723
0.0229802
10.1191
0.0221003
3.6531
0.0550349
0.0220428
5.80794
0.126089
0.0218813
0.146201
0.0220447
2.62749
0.0222436
0.0220198
2.8783
0.0221455
0.0918963
0.0236024
0.146453
0.0219364
0.0223887
0.0218748
0.030048
0.0242872
0.0223446
0.0226536
0.0253487
0.0224996
0.127315
0.0608988
0.0320578
0.0233745
0.0218001
2.32261
3.16928
0.0228265
0.022587
0.0227025
0.0372486
0.022302
0.0344466
0.0216229
0.0222853
1.13022
0.0233988
0.0222846
0.0219208
4.15426
12.9144
0.0216373
0.0667305
0.0593311
0.180539
2.58136
6.29578
3.76236
0.471105
0.0232831
0.146191
0.0219316
0.0314988
8.47251
3.76599
0.125497
0.0239554
17.4925
0.0220442
0.044647
0.344704
0.0222723
0.153579
0.023586
0.0233778
0.0656434
0.162895
3.09918
2.97186
0.0218879
0.0216801
4.30179
3.09006
0.0222863
0.0290578
0.125518
0.0220596
0.0220174
0.0242239
3.51294
0.0218095
3.38988
0.0294948
0.0223986
3.25948
0.076143
0.0702174
0.0956663
3.95469
0.0244689
0.0337891
0.0273356
0.0238215
10.5429
0.0318598
3.51513
3.20371
0.0627074
2.93962
0.0444092
0.0462331
0.28038
0.0217721
3.56736
0.0755886
0.0334477
0.0291294
0.022177
0.0217652
3.05404
0.0419673
3.11598
3.74505
0.0221157
3.36966
0.021853
0.0219807
0.0287395
11.7405
0.0738158
0.0219048
3.29424
0.0220188
0.0238945
2.79759
0.0238043
3.04392
0.0222725
3.87718
3.91006
0.0686857
0.750778
0.0234397
2.88128
0.0217793
4.6754
4.24186
4.02219
5.26867
0.0219484
0.0219605
0.187086
2.7067
2.73322
3.5638
3.3205
0.0222167
4.83563
2.93106
0.0224699
1.7095
0.0316176
0.0323694
11.1689
0.0377363
3.11339
0.0219856
0.0374786
0.0338265
0.158833
7.28161
0.0363822
3.05804
3.3225
0.0221715
0.0246666
0.0238748
0.0251723
2.74742
0.0220185
0.0217967
0.0387049
2.72389
2.79569
0.0280105
3.59227
2.93103
0.0219904
9.16913
3.80005
0.189007
3.69648
0.0597986
0.0244503
0.0221719
0.128557
0.0264475
0.0696482
10.3014
4.09068
0.0289979
0.0713567
0.0258139
0.0406323
0.021682
0.042998
0.0247493
0.076975
3.55243
3.36972
3.85175
0.0218145
0.161022
0.061726
3.37443
0.0232536
4.48288
3.55947
3.23493
0.02268
0.163261
3.99513
10.5551
8.52634
0.0360353
4.79919
0.965868
0.0602351
0.0648355
0.0244071
0.0292318
4.35059
0.0452167
0.0221856
2.74594
0.0221971
0.0226005
0.127541
0.124581
0.0220212
0.0830405
0.0247704
3.15599