/*--------------------------------*- C++ -*----------------------------------*\
| =========                 |                                                 |
| \\      /  F ield         | OpenFOAM: The Open Source CFD Toolbox           |
|  \\    /   O peration     | Version:  v2012                                 |
|   \\  /    A nd           | Website:  www.openfoam.com                      |
|    \\/     M anipulation  |                                                 |
\*---------------------------------------------------------------------------*/
FoamFile
{
    version     2.0;
    format      ascii;
    class       surfaceVectorField;
    location    "600";
    object      Uf_0;
}
// * * * * * * * * * * * * * * * * * * * * * * * * * * * * * * * * * * * * * //

dimensions      [0 1 -1 0 0 0 0];


internalField   nonuniform List<vector> 
20673
(
(1.06769 0.082588 -7.76166e-21)
(1.07065 0.0797951 -7.21536e-21)
(1.06647 0.0785631 -1.65954e-20)
(1.00904 0.0272111 -4.99005e-22)
(1.00822 0.0267192 2.31275e-22)
(1.00819 0.028096 1.02477e-21)
(1.0059 -0.0302523 -5.97705e-21)
(1.02515 -0.0290276 -3.95207e-21)
(1.03407 -0.0279702 -1.95135e-21)
(1.02902 -0.00326814 4.5188e-21)
(1.02923 -0.00277753 3.61059e-21)
(1.02866 -0.00287036 6.75748e-22)
(0.996061 -0.00152694 -4.00569e-21)
(0.995923 -0.00198659 -5.52436e-21)
(0.99555 -0.00175168 -1.07145e-20)
(0.372478 0.0372988 -1.93008e-19)
(0.359648 0.0100681 -3.37997e-19)
(0.343509 0.0389193 -3.55812e-19)
(0.937597 -0.0248535 -9.11719e-21)
(0.9366 -0.0267548 6.86839e-21)
(0.975345 -0.0257485 1.20097e-20)
(1.04188 -0.0319688 -3.33859e-22)
(1.02457 -0.0332013 -1.38494e-21)
(1.0342 -0.0345143 3.34347e-21)
(1.02117 -0.076309 -1.47987e-21)
(1.00418 -0.0790836 1.80279e-21)
(0.976482 -0.0757557 -1.1594e-20)
(1.10633 0.0956137 -1.38943e-20)
(1.11151 0.0941519 0)
(1.11074 0.100072 0)
(1.04093 -0.0274614 6.65859e-21)
(1.04064 -0.0271174 1.1453e-20)
(1.04046 -0.027723 3.60452e-22)
(1.04024 -0.0196882 1.35862e-22)
(1.04023 -0.020102 6.60623e-21)
(1.04062 -0.019722 -8.749e-22)
(1.02933 -0.00350382 3.73031e-21)
(0.314166 -0.00550334 9.53194e-25)
(0.398272 -0.00720781 0)
(0.303782 -0.00360004 0)
(0.965202 0.0682392 0)
(0.961438 0.0676917 -1.06415e-20)
(0.964306 0.06452 0)
(0.984533 0.0643224 0)
(0.982662 0.0622907 -1.26306e-21)
(0.985897 0.0612781 -1.00617e-20)
(1.00331 0.0310499 -3.64344e-21)
(1.00445 0.0308677 -2.68359e-22)
(1.00374 0.0299575 2.13042e-22)
(1.07549 -0.0022928 0)
(1.07691 -0.00132364 0)
(1.07706 -0.00367747 0)
(1.0399 -0.0198052 -4.44473e-22)
(1.04009 -0.0193974 -9.05963e-21)
(1.00098 0.00341758 -2.10418e-21)
(1.00101 0.00328455 3.56789e-21)
(1.00089 0.00318246 -1.49156e-22)
(0.999964 0.000547287 0)
(0.999943 0.000729838 0)
(0.999967 0.000570763 4.00759e-21)
(0.933246 -0.0261746 -8.90872e-21)
(0.898816 -0.028382 -4.29431e-22)
(1.00008 0.00473091 4.59639e-21)
(1.00005 0.00495208 0)
(1.00018 0.00493196 -1.78039e-22)
(1.04846 -0.0319575 -1.31223e-20)
(1.05072 -0.0328208 1.05767e-21)
(0.993124 0.00650705 6.38026e-21)
(0.992674 0.0061669 1.25768e-20)
(0.992721 0.00674497 6.9472e-21)
(0.945124 -0.0233643 3.99381e-21)
(0.909714 -0.0230057 0)
(0.910125 -0.0246529 3.59868e-22)
(0.786843 0.00689395 3.6596e-20)
(0.778016 0.0124755 1.58905e-20)
(0.779092 0.000704789 0)
(0.761172 0.0900763 8.87831e-21)
(0.760021 0.102403 1.86239e-20)
(0.750822 0.0935173 1.68823e-20)
(0.736024 0.526279 7.36061e-21)
(0.768034 0.534587 -9.4245e-21)
(0.748399 0.570183 -4.51022e-21)
(1.13863 0.0318495 -3.29229e-20)
(1.13642 0.0282549 -1.24426e-20)
(1.14076 0.0268306 -3.474e-20)
(1.07987 0.0685121 1.00783e-20)
(1.07793 0.0716616 -3.65676e-22)
(1.07626 0.0681966 1.14541e-20)
(1.03808 0.0603731 6.3024e-22)
(1.03597 0.061218 6.23965e-21)
(1.03643 0.0585719 7.33482e-21)
(0.840181 0.0413918 5.89686e-21)
(0.832525 0.0439543 -3.76947e-20)
(0.833701 0.0347709 3.34895e-20)
(0.906289 -0.0232608 -3.09496e-20)
(0.909137 -0.0260544 -2.22377e-20)
(0.910299 -0.0220674 -1.63719e-20)
(0.989918 0.0024811 4.14153e-21)
(0.989273 0.00273911 0)
(0.989953 0.00326389 6.91443e-21)
(1.03681 -0.0264739 7.80487e-21)
(1.03677 -0.0268482 -2.8401e-21)
(1.03648 -0.026594 5.6571e-21)
(1.00002 0.00451878 -2.7219e-21)
(1.00015 0.00451604 2.01482e-21)
(0.570244 -0.0281583 -1.73292e-21)
(0.534082 -0.0258121 2.05879e-21)
(0.548969 -0.0262714 -6.69126e-21)
(1.03136 -0.0059504 -2.39085e-21)
(1.03165 -0.00641512 1.5049e-20)
(0.570506 -0.0129273 0)
(0.52941 -0.0118354 0)
(0.57323 -0.0129362 7.36804e-23)
(1.00595 0.000626566 0)
(1.00622 0.000614587 -4.8269e-22)
(1.00569 0.000348857 6.53001e-23)
(0.99999 0.000436251 -4.72413e-23)
(0.999998 0.000205816 4.73722e-21)
(0.999997 0.000230218 -4.21326e-21)
(1.01449 0.00257897 4.57625e-22)
(1.01426 0.00261951 -8.33008e-22)
(1.01429 0.00241967 -4.72555e-22)
(0.699322 0.166282 6.16447e-20)
(0.716079 0.173272 -5.5653e-21)
(0.699755 0.187725 9.48651e-20)
(1.02164 0.0160471 0)
(1.0221 0.0164911 1.92154e-21)
(1.02232 0.015951 -1.8355e-21)
(0.888677 -0.00839913 -2.40911e-20)
(0.887376 -0.0129795 -1.90801e-20)
(0.892679 -0.0115356 -4.00029e-20)
(1.07411 -0.00396555 0)
(1.07367 -0.001552 1.15259e-20)
(1.06558 -0.0204263 7.1764e-21)
(1.06583 -0.0189954 9.70581e-21)
(1.06434 -0.0196436 -2.44516e-22)
(0.0923678 0.109281 -6.68068e-20)
(0.0915965 0.14355 -4.87901e-20)
(0.120217 0.122603 -6.6295e-20)
(1.00239 0.000525357 -3.10058e-21)
(1.0026 0.000476295 1.41112e-21)
(1.00255 0.000736177 2.20837e-21)
(1.04583 0.00737608 -4.0232e-22)
(1.04653 0.00780386 5.00836e-21)
(1.04653 0.0068816 -8.81377e-21)
(0.964432 -0.00732953 -2.7059e-21)
(0.963292 -0.00890749 7.7006e-22)
(0.962702 -0.00699301 -9.27771e-21)
(0.0843785 0.079094 -1.52539e-20)
(0.052548 0.105846 9.69207e-21)
(0.903102 -0.0203445 -2.67007e-20)
(0.902092 -0.024895 0)
(1.00292 0.0321376 1.65542e-22)
(1.00208 0.0310402 2.3394e-21)
(1.04891 0.0206735 -2.8013e-21)
(1.04871 0.0220548 7.20303e-21)
(1.05014 0.0215076 1.59863e-20)
(1.04133 -0.0279433 -3.39609e-22)
(1.04145 -0.0272541 3.34867e-21)
(0.990067 0.0169758 -1.51735e-21)
(0.990367 0.0159751 -7.18946e-21)
(0.991143 0.016857 1.5127e-21)
(1.04089 0.0265234 0)
(1.04223 0.0269823 0)
(1.0411 0.0281095 0)
(1.02099 0.0161358 1.47394e-21)
(1.02114 0.0155892 0)
(1.13617 0.0349359 -1.78967e-20)
(0.96451 0.0244357 3.7379e-20)
(1.04013 0.0224823 -1.16764e-19)
(1.01002 0.0267698 8.81637e-22)
(1.00989 0.02813 8.27322e-22)
(0.316903 -0.00548456 -6.39365e-21)
(1.00095 0.00353425 3.43067e-22)
(1.00108 0.00365315 1.8212e-21)
(0.380546 0.0712457 2.34675e-19)
(0.403238 0.0409295 2.48867e-19)
(1.31978 0.384445 4.42001e-20)
(1.30702 0.360432 -9.72857e-21)
(1.14265 0.321472 -1.162e-20)
(0.995608 -0.00581312 -6.97089e-21)
(0.99515 -0.00596731 -6.76813e-21)
(0.987398 -0.011186 4.68754e-21)
(0.9882 -0.0108519 -6.69507e-21)
(1.05495 -0.0390144 6.94689e-21)
(1.05384 -0.0386061 2.92802e-20)
(1.05396 -0.0401595 1.5585e-20)
(1.04077 0.0964543 6.9798e-22)
(1.04521 0.0958711 9.01847e-21)
(1.04291 0.101383 -8.31663e-21)
(0.996537 -0.00128414 -6.47017e-22)
(0.996179 -0.00105485 1.19408e-20)
(1.04881 -0.0793871 1.27767e-20)
(1.03402 -0.0766418 1.08027e-20)
(0.245746 -0.0359952 -4.41321e-21)
(0.286746 -0.043671 -1.01375e-20)
(0.271163 -0.0428559 -1.20214e-20)
(0.993739 0.00684785 -7.75886e-21)
(0.993644 0.00614005 -1.34077e-20)
(0.0931194 0.178184 6.0266e-20)
(0.12825 0.196618 7.21659e-20)
(0.0955712 0.216975 6.32135e-20)
(1.03821 -0.0214627 1.70291e-20)
(1.03805 -0.021328 -9.69726e-22)
(1.03828 -0.0211865 -1.05676e-20)
(0.274527 -0.014649 1.87595e-21)
(0.307397 -0.022677 -8.14792e-21)
(0.28875 -0.0174158 8.69241e-21)
(1.03019 0.0168968 2.39955e-21)
(1.03095 0.017158 5.01289e-22)
(1.03033 0.0178395 9.05542e-21)
(0.883006 -0.0208835 4.37015e-21)
(0.883694 -0.02299 -8.03567e-22)
(0.918818 -0.0219154 -6.27554e-21)
(0.99988 0.00109125 -4.34345e-21)
(0.999813 0.00123222 -6.85087e-24)
(0.999835 0.00129953 -8.80593e-21)
(0.999936 0.00198268 -2.55123e-22)
(0.999928 0.00217406 6.14789e-21)
(0.999972 0.00197015 -8.86315e-22)
(0.996016 -0.00518021 -2.04365e-21)
(0.391358 0.0977591 8.89417e-21)
(0.402257 0.127449 -1.99466e-21)
(0.423001 0.103055 -6.18518e-20)
(0.61085 -0.0308351 -6.3789e-22)
(0.59687 -0.030766 1.10649e-20)
(0.052352 0.0273614 -1.50306e-21)
(-0.0261466 0.0241466 -3.93603e-20)
(-0.00205966 0.022352 -3.86144e-20)
(1.02941 0.0167056 -5.53083e-21)
(1.03002 0.016114 -4.43237e-22)
(1.00012 0.00282912 -1.05485e-21)
(1.00017 0.00280117 3.23309e-21)
(1.0001 0.00259547 3.86229e-21)
(1.31178 0.404849 3.89889e-20)
(1.29009 0.381326 1.42392e-20)
(1.04483 0.00700169 -6.97221e-21)
(1.04499 0.00804401 3.74581e-21)
(1.0147 0.00257743 1.0639e-21)
(1.01467 0.00276938 1.51853e-21)
(0.427398 -0.0445799 2.2479e-21)
(0.381303 -0.0395843 1.24617e-20)
(0.402956 -0.0408003 -4.49353e-21)
(1.13783 0.0658127 -2.12115e-20)
(1.1331 0.0694864 -4.24223e-20)
(1.13753 0.0723394 -1.72084e-22)
(1.01275 0.0156905 -2.3196e-22)
(1.01307 0.0152115 -3.887e-22)
(1.01246 0.0151735 3.83104e-22)
(0.968236 0.0313594 8.07509e-21)
(0.966186 0.0321529 5.49725e-21)
(0.96838 0.033503 1.96963e-21)
(1.28163 0.39655 7.72736e-20)
(1.30803 0.424244 6.05968e-20)
(0.372798 -0.0171554 -5.34176e-20)
(0.400886 -0.0249133 -3.97321e-20)
(0.377635 -0.0513567 1.51373e-20)
(1.04851 -0.0290255 4.95054e-21)
(1.04903 -0.0296277 3.66204e-21)
(1.04806 -0.0297528 -3.2451e-21)
(1.06797 -0.0153618 -1.62469e-20)
(1.06919 -0.0161553 -9.2137e-21)
(1.06941 -0.0145828 -1.52503e-20)
(1.03848 -0.0223477 7.67608e-22)
(1.0384 -0.0223599 6.53155e-21)
(1.03844 -0.0223191 -1.10919e-20)
(0.596669 0.105107 -3.70667e-20)
(0.616166 0.0902667 2.8207e-20)
(0.618649 0.116375 -5.17271e-20)
(1.00741 0.00382505 -6.85057e-22)
(1.00771 0.00390232 2.50227e-22)
(1.00756 0.00415906 1.90868e-21)
(0.839012 -0.0293845 -3.53853e-21)
(0.842367 -0.0219301 -2.20056e-20)
(0.846574 -0.0286144 -3.28894e-21)
(0.68292 0.159992 2.53052e-20)
(0.700442 0.15135 5.20646e-20)
(1.03403 0.0130973 3.29434e-21)
(1.03467 0.0128658 6.37275e-22)
(1.03407 0.0122025 1.03887e-20)
(1.00998 0.00828177 1.61819e-22)
(1.01007 0.00790183 7.43026e-22)
(1.01037 0.00828546 6.36601e-22)
(1.04119 -0.0880051 0)
(1.03858 -0.090265 -1.70087e-21)
(1.06528 -0.0888365 1.63165e-20)
(0.836633 0.456685 -9.90409e-21)
(0.809206 0.476622 2.47553e-20)
(0.849374 0.482235 -9.9688e-21)
(1.06543 -0.0215178 8.61799e-22)
(1.06681 -0.021013 1.14487e-20)
(1.00567 0.030632 1.78996e-21)
(1.00543 0.0318709 -9.01831e-22)
(1.08117 0.079298 1.36971e-20)
(1.07872 0.0822305 1.28966e-20)
(1.08291 0.0831779 1.13139e-20)
(0.029334 -0.0447083 -2.88155e-20)
(-0.0312638 -0.0395898 3.20504e-20)
(-0.000909577 -0.0419022 -1.40901e-20)
(0.595336 -0.013716 0)
(0.565512 -0.0129722 -1.11003e-20)
(1.03994 -0.0213685 -3.6163e-21)
(1.03973 -0.0214108 -6.61066e-21)
(1.03977 -0.0215785 1.81341e-21)
(1.04057 -0.0860466 7.81069e-21)
(0.996382 -0.0871673 0)
(0.947398 -0.0123304 1.33235e-20)
(0.945895 -0.0105584 1.62443e-20)
(0.945324 -0.0134254 -1.18204e-20)
(0.0880897 -0.148358 8.69192e-20)
(0.0999724 -0.119011 -3.56933e-20)
(0.0614161 -0.121929 5.20947e-20)
(0.998836 0.00779284 1.16317e-21)
(0.998738 0.0081482 4.95619e-22)
(0.998498 0.00785997 -1.42017e-21)
(0.180525 0.0793726 5.72321e-20)
(0.210399 0.0599094 7.6836e-20)
(0.212668 0.0954439 2.19006e-20)
(0.524055 -0.00789741 -1.59955e-21)
(0.532687 -0.010978 1.0298e-20)
(0.550532 -0.0136184 9.73921e-24)
(0.905342 -0.0122557 1.61813e-20)
(0.90241 -0.00924953 1.18393e-20)
(0.906993 -0.0084313 2.03485e-20)
(0.999989 0.000654654 -6.41282e-22)
(0.999974 0.00063311 -4.32092e-21)
(1.05593 -0.0397111 -1.96858e-20)
(1.0558 -0.0383396 -1.31354e-20)
(0.504178 -0.0107878 7.91303e-22)
(0.528641 -0.0135793 -3.3181e-21)
(0.521575 -0.0134163 6.12164e-21)
(0.762614 0.0784674 2.99525e-20)
(0.774525 0.0868216 -1.19866e-20)
(1.00357 0.000458104 0)
(1.00372 0.000660007 0)
(1.0038 0.000384988 0)
(0.968436 0.0291324 2.82861e-22)
(0.970403 0.0304879 6.78263e-22)
(1.01911 0.0180371 7.1693e-22)
(1.01948 0.0185941 9.60505e-23)
(1.01883 0.0186262 -5.40517e-22)
(1.00335 0.000470196 1.34964e-21)
(1.00329 0.000234288 0)
(1.01263 0.00161487 -2.14357e-22)
(1.01285 0.00153347 -5.44052e-22)
(1.01264 0.00138725 4.74849e-22)
(0.344486 -0.0159742 6.05863e-20)
(0.641224 -0.0225946 3.53703e-21)
(0.629519 -0.0203083 3.08739e-21)
(0.612437 -0.018166 6.5317e-21)
(0.949103 -0.0144619 4.18287e-20)
(0.949958 -0.0115712 -1.44962e-22)
(1.02256 0.0169111 4.69103e-23)
(1.02187 0.01707 2.46413e-21)
(0.999955 0.000513743 4.11931e-21)
(0.999989 0.000365115 0)
(1.13387 -0.0802063 1.85418e-20)
(1.13162 -0.0783437 6.79104e-21)
(1.12945 -0.0838139 -9.91427e-21)
(1.04614 -0.0311809 -1.74803e-21)
(1.04881 -0.0311432 -1.3309e-20)
(1.0687 0.0863988 1.83418e-20)
(1.06462 0.0847393 9.3723e-21)
(0.580374 0.116648 -4.52936e-20)
(0.580092 0.0885646 0)
(0.995071 -0.00549182 -4.75644e-21)
(0.994627 -0.00619682 -7.17878e-21)
(0.904056 -0.0162915 -1.22316e-20)
(0.908263 -0.014825 4.05923e-20)
(1.03651 -0.0276936 3.31171e-21)
(1.03644 -0.0272403 -1.02297e-20)
(1.03644 -0.0275158 1.68678e-21)
(1.01514 0.00898087 -1.60742e-22)
(1.01503 0.00932405 -4.53605e-22)
(1.01469 0.00898033 -1.2474e-22)
(0.96054 0.00335254 2.38959e-21)
(0.958263 0.00369925 2.62544e-20)
(0.959222 0.00133293 4.03192e-20)
(0.666296 0.164149 2.54179e-20)
(0.646404 0.171045 1.40077e-21)
(0.665316 0.186952 -8.78408e-21)
(0.987121 -0.0104563 1.28073e-20)
(0.986614 -0.0113587 1.0662e-20)
(1.0607 -0.0714653 -7.07108e-21)
(1.06728 -0.0743917 8.93187e-21)
(1.06327 -0.0738139 7.98761e-22)
(0.832991 0.563411 0)
(0.838931 0.53248 1.53238e-21)
(0.80305 0.536478 -1.76481e-20)
(0.96559 -0.00548194 7.74957e-21)
(0.966355 -0.00740287 -2.88262e-21)
(1.01456 0.00770265 1.02403e-21)
(1.01452 0.00802729 1.97244e-22)
(1.0142 0.00770139 5.31056e-22)
(1.0345 0.0665549 -1.1123e-21)
(1.03172 0.067241 0)
(1.03394 0.0699891 0)
(1.05214 -0.0164003 4.09791e-21)
(1.05237 -0.0174215 3.31693e-20)
(1.05308 -0.0163018 1.4377e-20)
(0.110611 -0.169342 4.54809e-20)
(0.072 -0.177829 1.00881e-19)
(1.04485 -0.0228081 5.96578e-21)
(1.04507 -0.0233166 -3.50011e-21)
(1.04439 -0.0231347 5.05732e-21)
(1.01179 0.139762 -1.41504e-21)
(1.01419 0.135317 8.18343e-23)
(1.0185 0.138396 -1.06943e-21)
(1.04757 0.0385908 7.07023e-22)
(1.04634 0.0402248 -4.64571e-23)
(1.04565 0.038268 -2.28808e-22)
(0.0705388 0.0741141 8.44631e-20)
(0.0382645 0.0835025 1.62016e-20)
(-0.0183591 0.0719737 -6.06867e-20)
(1.03669 0.0975296 -1.45125e-21)
(1.03865 0.0930832 3.59242e-21)
(1.03518 -0.0403512 -7.74663e-21)
(1.03789 -0.0405996 3.51397e-21)
(1.03821 -0.0394361 -3.83866e-21)
(0.236662 -0.00864591 -9.72146e-21)
(0.262235 -0.0145038 1.08152e-20)
(1.13985 -0.0767594 2.68882e-22)
(1.13471 -0.0831207 1.7199e-20)
(0.937781 0.0207063 6.41927e-21)
(0.93494 0.0219275 4.97894e-21)
(0.935008 0.0185566 5.73158e-21)
(0.786837 -0.0564008 0)
(0.781338 -0.0478109 3.35158e-20)
(0.775186 -0.0588136 0)
(0.999932 0.00152336 -2.38156e-21)
(0.999954 0.00148987 -6.44275e-22)
(0.999942 0.00127877 -5.83539e-23)
(1.04776 -0.0285198 0)
(1.04877 -0.0282778 0)
(1.04023 -0.0213933 -7.51724e-21)
(1.04009 -0.0211375 -1.61038e-20)
(1.03855 -0.0223255 7.61831e-21)
(1.03853 -0.0224022 -1.1369e-20)
(1.03397 0.0138553 -3.23318e-21)
(1.03337 0.0132328 -3.11527e-21)
(1.05938 -0.0161794 1.57963e-21)
(1.05832 -0.0165739 -7.87741e-21)
(1.0592 -0.0175148 1.51486e-20)
(1.01838 0.0137579 -9.45463e-22)
(1.01878 0.0141367 -1.04682e-21)
(1.01819 0.0142712 -1.9929e-22)
(0.835822 -0.0357023 -1.12958e-20)
(0.831303 -0.0285775 -8.80951e-21)
(1.03358 0.13203 3.94169e-21)
(1.02721 0.1323 -5.26533e-21)
(1.03136 0.126441 -4.09783e-21)
(-0.257231 -0.00468023 0)
(-0.281324 -0.000681571 -4.37694e-20)
(-0.233017 -0.00675237 2.17581e-20)
(1.03913 -0.0216233 -6.77661e-21)
(1.03911 -0.0217909 -1.33069e-20)
(1.03931 -0.0216476 -7.10507e-21)
(1.00153 0.0366659 -5.78016e-21)
(1.0013 0.0379712 2.20734e-21)
(1.00002 0.0370294 -3.16405e-21)
(1.03862 -0.0582343 9.29104e-21)
(1.04073 -0.0600575 -8.35325e-21)
(1.03334 -0.0581244 -1.26968e-20)
(1.00596 0.156569 -1.34024e-22)
(1.00378 0.16132 -2.74997e-22)
(1.01076 0.160479 -3.11979e-21)
(0.651975 -0.022392 -1.21183e-20)
(0.67621 -0.0236655 -4.56439e-21)
(0.148571 0.0630325 -1.75866e-20)
(0.150338 0.10106 -3.28981e-20)
(1.05698 -0.0693551 2.76299e-21)
(1.04861 -0.0689129 -9.76504e-21)
(1.00504 0.0167253 0)
(1.00539 0.0171675 -2.98577e-21)
(1.00475 0.0172395 0)
(1.14208 0.0628924 2.55241e-20)
(1.13773 0.060377 -1.87543e-20)
(1.08424 0.0687783 1.0303e-20)
(1.08211 0.0653404 -2.76214e-21)
(1.01554 0.00895547 2.79813e-22)
(1.01519 0.00863312 -5.3817e-23)
(1.00007 0.00286455 -3.60043e-21)
(1.00012 0.00309235 -1.37197e-21)
(0.931062 0.086332 3.07179e-21)
(0.927441 0.0827305 3.14308e-21)
(0.933135 0.082287 -8.77877e-21)
(0.981665 -0.0229605 4.34141e-21)
(0.981897 -0.0235224 -1.18784e-21)
(1.20852 0.0469474 -2.04645e-21)
(1.21315 0.0424761 1.76841e-20)
(1.21646 0.0489173 -1.04507e-20)
(0.103028 0.075513 3.18173e-20)
(0.220659 0.0983199 1.70857e-20)
(1.06746 0.0170044 9.65289e-21)
(1.06776 0.0187177 0)
(1.06909 0.0173572 -1.10952e-20)
(1.03934 -0.0228994 7.39936e-21)
(1.03924 -0.0228223 1.1666e-20)
(1.03916 -0.0230146 6.47291e-22)
(1.03741 -0.0324967 -7.3722e-21)
(1.03727 -0.0322674 -4.97702e-21)
(1.03749 -0.0331324 8.69708e-21)
(0.149032 0.027927 1.86032e-20)
(0.117452 0.0294087 -5.13716e-20)
(1.21851 0.0929067 -1.44e-21)
(1.21685 0.0859896 1.20713e-20)
(1.2242 0.0874641 -5.77681e-20)
(0.998936 0.00439219 -3.57813e-21)
(0.999108 0.00425542 -6.23291e-21)
(0.99895 0.00407695 1.08966e-21)
(0.566825 0.0274758 -2.42146e-20)
(0.572694 0.0471248 -8.25982e-20)
(0.54813 0.0419075 -7.32579e-20)
(0.795253 0.00357755 2.7298e-21)
(0.794396 0.0146557 7.23985e-20)
(1.00671 0.000265053 -9.88226e-22)
(1.00646 0.000258361 -7.81617e-23)
(1.01239 0.0160944 -3.00927e-23)
(1.01308 0.0162109 0)
(0.882508 0.4206 2.99312e-21)
(0.875726 0.393786 -1.26655e-21)
(0.902957 0.400857 2.62815e-21)
(1.24279 0.412456 -1.05183e-19)
(1.25103 0.394308 1.98718e-20)
(1.27427 0.419584 -1.47449e-19)
(1.03905 -0.000702842 -4.56942e-21)
(1.03947 -0.00119713 -3.09639e-22)
(1.03979 -0.000560657 2.26609e-22)
(1.00226 0.00063173 -1.96285e-21)
(1.00225 0.000397401 9.13528e-22)
(1.05576 -0.0155198 6.94077e-21)
(1.0558 -0.0144458 -1.71312e-20)
(1.05681 -0.0151302 -1.50889e-20)
(1.05133 -0.0166884 -1.79428e-20)
(1.05173 -0.015672 -1.81936e-20)
(0.222456 -0.0302561 -6.86094e-21)
(0.208318 -0.0296908 9.96471e-23)
(1.08772 -0.0761681 -6.31261e-21)
(1.08521 -0.0747722 6.58797e-21)
(1.08775 -0.0729797 -8.1617e-22)
(0.990471 0.0023966 1.05723e-20)
(0.990023 0.00195873 -1.54848e-23)
(0.989035 0.0169139 0)
(0.989762 0.017749 0)
(1.06676 -0.0146561 -2.87328e-20)
(1.06652 -0.0161111 -4.42452e-21)
(0.987183 -0.0266543 6.67379e-21)
(1.02116 -0.024596 1.76874e-21)
(1.01443 -0.0249514 -2.28706e-22)
(0.962464 0.00286689 -1.70373e-20)
(0.961937 0.00488025 -1.52289e-20)
(0.932519 -0.027601 2.36376e-21)
(0.927152 -0.0285047 0)
(0.971389 -0.0274966 0)
(0.139219 -0.0157733 -2.1775e-21)
(0.174479 -0.0222404 -1.38101e-22)
(0.153168 -0.0159371 1.12983e-20)
(1.03955 -0.0228646 -8.79949e-22)
(1.03947 -0.0231026 -7.49049e-21)
(1.00971 0.00822175 -4.1398e-22)
(1.00991 0.00853229 -1.11678e-21)
(0.502851 0.365113 1.89656e-21)
(0.523898 0.399568 2.23285e-21)
(0.470381 0.402221 -3.35942e-20)
(1.06317 -0.0123968 1.19227e-20)
(1.06435 -0.0131593 2.54869e-20)
(1.06441 -0.011644 -1.41446e-21)
(-0.143279 -0.0169694 1.85916e-21)
(-0.0988435 -0.0255099 -2.05879e-20)
(-0.119174 -0.0178381 2.24592e-20)
(0.999414 0.0106607 -4.17675e-21)
(0.999651 0.0109805 1.81468e-22)
(0.999278 0.011113 -3.46905e-21)
(1.26432 0.0532289 -1.06357e-21)
(1.22603 0.0554924 4.74467e-20)
(1.00466 0.0161876 1.54819e-21)
(1.0053 0.0162039 -9.31678e-22)
(1.12561 0.0128926 -2.12128e-20)
(1.12192 0.0125813 0)
(1.12353 0.0158862 0)
(1.00583 0.000811654 0)
(1.00572 0.000560827 0)
(0.557107 -0.0324852 8.39332e-22)
(0.520143 -0.0320712 -6.31896e-22)
(0.54519 -0.0316479 -5.14904e-21)
(1.03407 -0.0926353 1.1121e-20)
(1.03061 -0.0943216 -5.20476e-21)
(1.06168 -0.0933756 1.30134e-20)
(0.983977 0.0670357 0)
(0.987116 0.0660109 1.25002e-21)
(1.19328 0.414371 8.25173e-20)
(1.22239 0.413629 5.26374e-20)
(1.20173 0.393753 1.21982e-20)
(1.04947 0.0386858 -6.76732e-21)
(1.04831 0.036897 -4.54603e-21)
(1.00927 0.00810102 0)
(1.00942 0.00775723 -6.20575e-22)
(1.0366 -0.0263478 6.82688e-21)
(1.03682 -0.0261437 1.7675e-21)
(1.03897 -0.0216239 1.32585e-20)
(1.03913 -0.0214759 1.05478e-21)
(1.06591 0.0166633 1.8765e-20)
(1.06707 0.015377 1.44132e-21)
(1.04676 -0.0301797 5.88671e-21)
(1.03787 -0.0310165 -3.91473e-21)
(1.04841 -0.0288159 -1.43406e-20)
(0.123557 -0.0127825 1.54946e-20)
(0.102939 -0.00563781 0)
(1.00833 0.00214493 -3.13215e-22)
(1.0086 0.00218814 3.2998e-22)
(1.00848 0.00189202 1.01532e-22)
(1.04018 0.0592974 -6.11698e-21)
(1.03989 0.0622516 7.00811e-21)
(0.459819 -0.049965 -5.35848e-21)
(0.480559 -0.0500432 -8.121e-21)
(-0.0635467 0.0378469 6.5319e-20)
(-0.109172 0.035067 5.89303e-20)
(-0.0703637 0.0389964 5.81405e-20)
(0.999916 0.00147837 -4.20796e-21)
(0.999885 0.0017166 2.9613e-24)
(1.00371 0.00584579 8.63897e-22)
(1.00396 0.00600695 -2.77375e-21)
(1.00376 0.0061222 -6.29779e-22)
(0.598604 -0.0108581 0)
(0.61942 -0.0127128 0)
(1.04965 -0.0320074 0)
(1.04902 -0.0313923 1.622e-21)
(1.04869 -0.032384 0)
(1.00005 0.000105253 7.96747e-22)
(1.00002 8.10281e-05 0)
(1.00004 0.000132223 2.72286e-21)
(1.03629 -0.0251539 -1.97513e-22)
(1.03628 -0.0247825 8.57977e-21)
(1.03639 -0.0250511 1.6043e-20)
(1.09285 -0.0209104 -2.37943e-20)
(1.09065 -0.0222014 1.41081e-20)
(1.09049 -0.0191876 -2.49288e-20)
(0.796142 -0.056315 0)
(0.791415 -0.0660232 0)
(1.06253 0.069468 0)
(1.0653 0.0717594 0)
(1.06503 0.0677049 2.07846e-20)
(0.999937 0.00173993 -1.98285e-21)
(0.999971 0.00150006 5.4835e-21)
(0.975285 0.169719 -3.40138e-21)
(0.976052 0.160862 4.17492e-21)
(0.967392 0.165348 2.12773e-21)
(0.197033 -0.017987 1.26643e-20)
(0.202581 -0.0165933 1.09103e-20)
(0.163278 -0.0102135 4.27665e-21)
(1.02358 0.00455607 -1.83644e-21)
(1.02367 0.00425188 0)
(1.02402 0.00448193 1.17177e-21)
(1.1612 0.0716703 -7.96821e-21)
(1.1573 0.0764467 -4.37741e-21)
(1.15547 0.069264 1.84539e-20)
(0.570786 0.134319 1.97775e-20)
(0.586596 0.15456 -2.13656e-20)
(0.557043 0.160557 6.42267e-20)
(1.01873 0.0174569 6.43325e-22)
(1.01937 0.0173689 1.3186e-21)
(0.990678 0.0150938 2.92128e-21)
(0.98972 0.0151408 -1.11409e-20)
(1.04509 -0.0201548 9.03761e-21)
(1.04527 -0.0206585 -5.94798e-22)
(1.04466 -0.0205449 5.91187e-21)
(0.643926 -0.0153463 9.01764e-21)
(0.624882 -0.014485 2.92577e-21)
(0.625846 -0.0147271 7.67761e-21)
(1.04462 -0.0224161 -8.76517e-21)
(1.04531 -0.0224519 -4.6587e-23)
(0.933781 0.0902905 9.01484e-21)
(0.928617 0.0913764 8.17838e-21)
(0.968683 0.0681996 0)
(0.966289 0.071383 -6.78685e-21)
(1.00004 0.000228189 4.49919e-21)
(1.00004 0.000198552 -2.20195e-21)
(1.00002 0.000134902 -1.19164e-23)
(0.477323 -0.00809709 -6.27759e-21)
(0.485286 -0.00883348 7.82429e-21)
(1.15243 -0.120579 2.77591e-20)
(1.15635 -0.115134 1.29349e-20)
(1.16286 -0.116641 2.84089e-20)
(1.03691 -0.0229408 5.24437e-21)
(1.037 -0.0231018 -3.54777e-21)
(1.03737 -0.0228369 4.15854e-21)
(1.00893 0.00803263 0)
(1.00917 0.00839869 -8.60666e-22)
(0.1181 -0.0332603 1.10292e-20)
(0.162994 -0.0423659 -2.81567e-21)
(0.139968 -0.0396492 1.21218e-20)
(0.406588 -0.0116782 -4.99662e-22)
(0.410938 -0.0106238 1.12482e-23)
(0.374651 -0.00798384 -7.45566e-21)
(1.03082 -0.040723 3.32501e-21)
(1.03212 -0.0395529 -6.88399e-21)
(0.876993 -0.0221169 0)
(0.848293 -0.0243359 0)
(1.03835 -0.0215167 8.49683e-21)
(1.03819 -0.021639 -8.10163e-21)
(0.999888 0.0019739 9.1992e-23)
(1.00451 0.000500158 -8.4173e-22)
(1.00427 0.000537058 3.13013e-22)
(1.00453 0.000789826 1.84854e-21)
(1.073 -0.00484804 -6.53353e-21)
(1.07149 -0.00422921 -1.99742e-20)
(1.07178 -0.00605792 8.82803e-22)
(0.466467 -0.0292212 -5.89331e-21)
(0.438767 -0.025222 -4.29168e-21)
(0.432472 -0.0260131 1.19124e-21)
(1.06854 -0.0339276 -8.48915e-21)
(1.07004 -0.0341319 1.16456e-20)
(1.06864 -0.0356247 1.60119e-21)
(1.03955 0.0262144 0)
(1.04058 0.0252403 2.42349e-21)
(1.08977 -0.0777864 0)
(1.08498 -0.0799202 0)
(1.03661 -0.016763 6.49533e-22)
(1.03631 -0.0164717 1.43083e-22)
(1.01272 0.000927211 -2.89574e-22)
(1.01266 0.00113885 2.503e-22)
(1.01288 0.00106373 -2.89059e-22)
(1.25444 -0.0657535 1.94035e-20)
(1.24927 -0.0711526 -2.67313e-20)
(1.25902 -0.0728271 1.56338e-20)
(1.0013 0.00335353 2.57839e-21)
(1.00132 0.00321825 2.64114e-21)
(1.00119 0.00313788 3.14507e-21)
(1.03764 -0.0569387 2.27732e-21)
(1.04744 -0.0588268 9.84676e-21)
(1.03862 -2.51356e-05 -4.57564e-21)
(1.03825 -0.000689855 -3.37392e-22)
(1.00005 8.1564e-05 -1.73697e-22)
(1.00008 0.000127754 -1.94241e-21)
(0.989377 0.0783443 2.92838e-21)
(0.988401 0.0823327 5.59847e-21)
(0.985895 0.0787006 -1.6491e-21)
(1.01058 0.145003 6.11052e-23)
(1.00615 0.1406 -2.37971e-22)
(0.776266 -0.0380522 -2.38122e-20)
(0.786514 -0.0375441 3.61764e-20)
(1.03653 -0.0251191 -1.52278e-20)
(1.03631 -0.02545 -1.49635e-20)
(0.988037 0.107775 -3.04343e-21)
(0.988505 0.113114 -1.5259e-21)
(0.982998 0.109873 4.04055e-22)
(1.02504 0.00744951 -2.38573e-21)
(1.02535 0.0078616 -1.85443e-21)
(1.02483 0.00778995 -1.49877e-21)
(1.14411 -0.0602025 9.41829e-21)
(1.14901 -0.0584682 -1.78821e-21)
(1.14879 -0.0632543 1.63978e-20)
(1.0445 -0.0308013 1.02962e-20)
(1.04776 -0.0305178 5.77208e-21)
(1.12376 -0.124861 -4.30289e-21)
(1.12976 -0.123991 -1.33879e-20)
(0.999123 0.0104388 -2.57951e-21)
(0.999526 0.0103382 1.53326e-21)
(1.03035 -0.0446632 -6.98782e-21)
(1.03445 -0.0449177 -6.38735e-23)
(1.02978 -0.0459813 1.31918e-20)
(0.998416 -0.00251825 1.21532e-21)
(0.998311 -0.00231099 0)
(0.998149 -0.00277695 -1.44096e-20)
(1.02483 0.00703239 -5.40557e-22)
(1.02536 0.00705868 1.36546e-21)
(0.998921 0.00740365 -5.38732e-22)
(0.99917 0.00768097 2.76329e-21)
(0.86537 0.592797 5.61187e-21)
(0.817343 0.601784 0)
(1.00118 0.000677619 -3.35715e-23)
(1.00129 0.00059051 0)
(1.00111 0.000534521 0)
(1.12916 0.0130662 -2.05612e-20)
(1.12747 0.0098648 8.12405e-21)
(1.06005 0.0719989 0)
(1.05959 0.0679842 0)
(1.01796 0.0133199 1.5673e-21)
(1.01856 0.0132292 -5.53756e-22)
(1.05578 -0.0166955 1.12161e-20)
(1.05472 -0.0157726 1.52061e-20)
(1.01897 0.0381849 -7.55146e-23)
(1.01969 0.0369413 7.84819e-22)
(1.02058 0.0381818 -1.49554e-22)
(0.116367 0.0413053 0)
(0.0994845 0.022431 0)
(0.102226 0.0584737 0)
(1.00876 0.151337 1.09938e-22)
(1.00214 0.152402 -9.62867e-22)
(1.12888 0.0653814 -1.84939e-20)
(1.12803 0.0714151 7.49191e-21)
(1.01774 0.00982039 1.10636e-21)
(1.01809 0.0102225 7.68853e-22)
(1.01819 0.0097061 1.01631e-21)
(0.991593 0.0150309 6.88851e-21)
(0.990972 0.0143073 8.64151e-21)
(-0.0215561 -0.0369295 4.69898e-20)
(-0.0614135 -0.0327998 -2.58313e-21)
(-0.0763537 -0.0324801 4.01686e-20)
(0.490253 -0.0116855 9.78186e-21)
(0.481124 -0.00992984 -5.75494e-21)
(0.510739 -0.0141863 -3.10525e-21)
(0.998593 0.00851142 1.60585e-21)
(0.998951 0.00841959 4.09609e-21)
(1.00497 0.000457017 2.97741e-23)
(1.00526 0.000615285 -6.74366e-22)
(1.00497 0.000813381 4.78841e-22)
(1.26316 -0.0617109 -3.54277e-20)
(1.23568 -0.0593639 0)
(1.00749 0.0159689 1.19995e-21)
(1.00749 0.0165954 5.64741e-22)
(1.00813 0.016327 -1.57473e-21)
(0.334196 -0.0503842 -1.62116e-20)
(0.304227 -0.0445436 -4.16808e-21)
(1.01739 0.00954846 -2.13749e-21)
(1.01732 0.0100031 -5.37346e-22)
(0.56708 -0.0339051 1.20106e-20)
(0.59363 -0.0336169 -2.53241e-21)
(1.02601 0.000603537 -1.39838e-21)
(1.02574 0.000365101 1.76276e-22)
(1.0261 0.000270278 1.97372e-21)
(1.21378 0.244951 3.01451e-20)
(1.20121 0.245781 4.0632e-20)
(1.20816 0.258056 0)
(1.05164 -0.00168149 0)
(1.05202 -0.000642597 0)
(1.05285 -0.00155021 0)
(0.100701 0.292676 2.70118e-20)
(0.0989522 0.252181 -6.71011e-20)
(0.134393 0.269562 -7.07701e-20)
(0.940819 0.0220586 -9.20334e-21)
(0.940564 0.0189058 1.18225e-20)
(1.1449 -0.0727536 -5.14713e-20)
(1.14559 -0.0750341 -1.66168e-20)
(0.523203 0.270534 -3.52925e-20)
(0.496247 0.281903 -1.72154e-21)
(0.525161 0.303406 -5.85207e-20)
(0.992811 0.0784227 4.89791e-21)
(0.990737 0.0757278 0)
(1.05046 -0.031763 7.71334e-21)
(1.05022 -0.0328733 0)
(0.970818 0.462124 1.25127e-20)
(0.989254 0.478871 7.2141e-21)
(0.959955 0.486288 4.74456e-21)
(0.989296 0.0269848 -2.65686e-21)
(0.988066 0.0264499 1.9588e-21)
(0.988186 0.027887 -2.47533e-21)
(0.608504 -0.0237317 -4.9033e-21)
(0.57538 -0.0214536 -2.58903e-21)
(0.585801 -0.0220201 3.66383e-21)
(0.581575 0.0161915 8.62449e-21)
(0.560687 0.00751425 9.55135e-20)
(0.430401 -0.0136322 3.90151e-21)
(0.40549 -0.0112265 -4.18094e-22)
(0.920856 -0.00544578 1.8473e-20)
(0.917261 -0.00456986 -2.67053e-20)
(0.919922 -0.00162044 1.63245e-20)
(0.54619 -0.0120997 3.46029e-21)
(0.504289 -0.0109525 -7.36184e-21)
(0.547284 -0.0119653 3.83198e-21)
(1.04241 0.0582182 0)
(1.04443 0.0605361 8.64582e-21)
(1.04489 0.0576674 -5.4718e-21)
(0.0709721 -0.0176241 4.18912e-20)
(0.134022 -0.0199223 4.58669e-20)
(0.164409 -0.0249038 -5.33213e-20)
(0.528577 0.239247 7.93539e-21)
(0.55464 0.26155 1.57947e-20)
(0.935006 0.306786 -4.12732e-21)
(0.918545 0.305592 -1.6946e-22)
(0.928936 0.322076 -5.69951e-21)
(0.953054 0.310755 7.48144e-21)
(0.943395 0.293531 4.41309e-21)
(0.983729 -0.0300532 0)
(0.965244 -0.0313708 3.40815e-21)
(0.99968 0.00119744 -4.67627e-21)
(0.999587 0.00128425 0)
(0.999624 0.00137505 -4.74936e-21)
(1.03954 0.130179 5.9468e-21)
(1.03765 0.136767 8.72262e-21)
(0.103599 -0.0536877 -2.26832e-20)
(0.0697901 -0.0499171 -7.23076e-20)
(0.979168 0.0141335 -8.96559e-23)
(0.978091 0.0146632 8.44939e-21)
(0.978012 0.0131993 0)
(0.991209 0.0502609 2.34002e-21)
(0.992013 0.0484071 -9.34056e-21)
(0.989694 0.0487182 -5.84124e-21)
(0.428165 -0.0114733 -4.30924e-21)
(0.436077 -0.0117633 -6.5041e-21)
(0.860391 0.440491 0)
(0.893296 0.44646 0)
(1.00474 0.0343804 8.53147e-22)
(1.00452 0.0355215 0)
(1.00599 0.0351758 5.09981e-22)
(1.0377 -0.0327253 0)
(1.03742 -0.0319902 0)
(0.700106 0.523571 -3.31463e-20)
(0.724952 0.493558 0)
(1.00616 0.00341091 -2.04154e-21)
(1.00642 0.00357899 1.86389e-22)
(1.00641 0.00325831 -2.61136e-21)
(0.516311 -0.00896005 4.8983e-22)
(0.483327 -0.00652911 8.41285e-21)
(1.03674 -0.0290964 1.55514e-20)
(1.0368 -0.028788 1.58396e-20)