/*--------------------------------*- C++ -*----------------------------------*\
| =========                 |                                                 |
| \\      /  F ield         | OpenFOAM: The Open Source CFD Toolbox           |
|  \\    /   O peration     | Version:  v2012                                 |
|   \\  /    A nd           | Website:  www.openfoam.com                      |
|    \\/     M anipulation  |                                                 |
\*---------------------------------------------------------------------------*/
FoamFile
{
    version     2.0;
    format      ascii;
    class       volScalarField;
    location    "350";
    object      nut;
}
// * * * * * * * * * * * * * * * * * * * * * * * * * * * * * * * * * * * * * //

dimensions      [0 2 -1 0 0 0 0];


internalField   nonuniform List<scalar> 
13851
(
0.00596307
0.0239326
0.00137436
0.00608975
0.00126058
0.00308404
0.0049932
0.00130337
0.00685942
0.00158216
0.00777584
0.0302049
0.0251033
0.00907633
0.00675586
0.0020478
0.00202728
0.0046099
0.0204524
0.00685223
0.00615569
0.0013392
0.00704026
0.00686582
0.00712407
0.00128816
0.00174152
0.00025542
0.00602391
0.00439297
0.00287649
0.00190305
0.00157726
0.0111487
0.00682931
0.0139247
0.0206632
0.0137115
0.00179293
0.01115
0.00696017
0.00669087
0.0029212
0.0106199
0.00995856
0.0190134
0.0132726
0.00682558
0.00171051
0.00452748
0.00102688
0.00453968
0.00316044
0.00678313
0.00678544
0.00669384
0.00680871
0.00792162
0.00383174
0.00452909
0.0144109
0.0252395
0.002983
0.00127822
0.00141109
0.00546845
0.0195883
0.0163574
0.00118376
0.00465256
0.00287526
0.0244325
0.0231576
0.00677859
0.00677899
0.0069283
0.00161014
0.00545276
0.00113112
0.00331535
0.00332794
0.0156914
0.00687003
0.0168547
0.00289736
0.0305094
0.00358905
0.0257603
0.00169636
0.00683936
0.0130816
0.00460932
0.0171528
0.00160053
0.00195787
0.00692544
0.00110505
0.0232491
0.00436752
0.00699738
0.00814039
0.00104744
0.0065007
0.00149233
0.00700756
0.00360906
0.00102015
0.00668038
0.0277241
0.00299441
0.00695241
0.00683489
0.00473317
0.00701574
0.00688952
0.0180478
0.0241893
0.00667805
0.00681398
0.0067952
0.00225682
0.00160844
0.0251822
0.0169465
0.00484727
0.00679377
0.00394509
0.00103013
0.00623479
0.00428372
0.00696666
0.0067956
0.00524358
0.0068593
0.0179363
0.00679313
0.0066784
0.0240857
0.0210156
0.0128343
0.00912308
0.00679544
0.00642279
0.00676597
0.00248692
0.0116118
0.0065453
0.00387581
0.00534452
0.00865712
0.000974302
0.00680125
0.00832898
0.00679779
0.00220322
0.00281002
0.00697324
0.00380594
0.00455806
0.00107403
0.006734
0.00146735
0.00751166
0.0067915
0.00330195
0.0067235
0.00690657
0.00116877
0.00628874
0.0205537
0.0036907
0.00674264
0.0069696
0.013
0.0067834
0.00872261
0.00109334
0.00642304
0.0196923
0.00668596
0.00189932
0.0255617
0.00683429
0.00130147
0.00669982
0.00696269
0.00540834
0.00679338
0.00132416
0.00179947
0.0147509
0.00479375
0.00681053
0.00120874
0.0255182
0.0026124
0.00649865
0.0145509
0.00648668
0.00692401
0.00678164
0.0214493
0.00675263
0.00689626
0.00205149
0.00684601
0.027313
0.00197696
0.0153648
0.00670188
0.0270079
0.00654823
0.0218593
0.00668123
0.0067476
0.00687599
0.00293386
0.0185037
0.0067536
0.0167459
0.00195568
0.00321975
0.0261798
0.00367147
0.0259349
0.00707998
0.0013633
0.00708731
0.00905576
0.00668391
0.00148992
0.00162627
0.00673964
0.0068198
0.000981027
0.00318126
0.0267258
0.00179791
0.00676174
0.00689979
0.00297679
0.00348827
0.00683129
0.00197103
0.0068657
0.0238526
0.0010292
0.0204388
0.00278868
0.00212188
0.00530399
0.00371229
0.00378457
0.00280043
0.000974756
0.00209554
0.00185868
0.026353
0.00142775
0.00679702
0.00675156
0.00485287
0.00324328
0.00682673
0.023169
0.00247904
0.00387298
0.00150454
0.0265669
0.00605734
0.00531989
0.00227422
0.0022566
0.00112978
0.0022301
0.00680315
0.0155992
0.00695223
0.0268145
0.00754069
0.00684709
0.00669664
0.00698642
0.00101957
0.00300567
0.0110777
0.00691313
0.00675187
0.00222824
0.0156678
0.00796836
0.00394833
0.00468127
0.00115762
0.0160111
0.0207197
0.00351968
0.0305315
0.00681687
0.0245486
0.00135369
0.00211202
0.026871
0.00681848
0.00350267
0.0250997
0.00690396
0.00102497
0.00141298
0.0041687
0.0226031
0.0028176
0.00379377
0.0252896
0.00669929
0.00226641
0.00672478
0.0274321
0.000592654
0.00675947
0.000992307
0.00675731
0.00393555
0.00496576
0.00698014
0.00691462
0.000818043
0.00148899
0.00242556
0.00675058
0.00683035
0.00422278
0.00876593
0.00491445
0.0225677
0.00424577
0.0274646
0.0246956
0.00675387
0.00123406
0.00860591
0.004339
0.00269116
5.22293e-05
0.020434
0.00565537
0.00958145
0.0248916
0.00676088
0.00554735
0.00553294
0.0185022
0.00252705
0.00260236
0.00964944
0.00697774
0.0105848
0.00691898
0.00675379
0.00683389
0.00668099
0.00694126
0.025822
0.0195348
0.00695721
0.00112065
0.00671165
0.030116
0.0026051
0.01688
0.0214815
0.00695125
0.00276838
0.00151525
0.0160951
0.00698282
0.006679
0.0050495
0.00607595
0.00678844
0.023671
0.00435476
0.00180429
0.019941
0.00643875
0.00654584
0.00568722
0.0068017
0.00679212
0.00441314
0.00103239
0.00848515
0.00107973
0.0267344
0.025128
0.00671373
0.00680324
0.0217848
0.00509512
0.00170821
0.0246244
0.00497261
0.00146997
0.00701192
0.0252854
0.00679061
0.00184873
0.00578652
0.00597027
0.00703805
0.00689427
0.00672102
0.00126554
0.00277128
0.0084119
0.00457882
0.000991707
0.00423177
0.00352786
0.00237293
0.0197432
0.00208936
0.00708295
0.00667782
0.00688322
0.00703351
0.018644
0.0166848
0.00253674
0.00431319
0.00577835
0.00904858
0.00371461
0.00681023
0.000899024
0.00697713
0.00381916
0.00699251
0.0227159
0.00663009
0.00149017
0.0131549
0.006399
0.00677121
0.00773466
0.00421017
0.00668562
0.00144901
0.00117117
0.00599722
0.00676354
0.00445228
0.000890347
0.00139272
0.00401354
0.0189611
0.00702153
0.00689363
0.00879342
0.00403338
0.00669194
0.0277213
0.00679954
0.00597198
0.00679232
0.00317675
0.0042785
0.00669688
0.00645088
0.0257112
0.00688316
0.00112523
0.00678866
0.00490786
0.00660733
0.00699659
0.00695464
0.00700626
0.00703238
0.00591543
0.00388995
0.00338203
0.00682194
0.00695072
0.0107274
0.0115161
0.00686346
0.00482011
0.00213742
0.00356735
0.0175407
0.00688886
0.0183395
0.00697513
0.00126674
0.00515344
0.0130658
0.00668743
0.00265036
0.00189869
0.00669281
0.00481785
0.0205463
0.00145539
0.0224906
0.00678244
0.0112201
0.00679609
0.00677351
0.00681833
0.00619163
0.00863554
0.00102131
0.00395411
0.0199886
0.00302137
0.006741
0.0254764
0.0144301
0.00181215
0.00128591
0.00337841
0.0154381
0.0273953
0.00675805
0.0135585
0.0185724
0.020988
0.00288494
0.00473823
0.0171824
0.00674492
0.00215555
0.0189729
0.0261043
0.00388562
0.0266253
0.024093
0.00667894
0.00716363
0.00100393
0.00716829
0.00290351
0.0068121
0.00696027
0.00697269
0.00132374
0.00334779
0.0231052
0.0198563
0.00677838
0.00684932
0.0130514
0.0030859
0.0121553
0.00113489
0.00668543
0.00687348
0.00595611
0.0256397
0.00210664
0.00113533
0.0132629
0.00669227
0.00384908
0.0124476
0.0149747
0.000604757
0.0097756
0.0245173
0.00697521
0.00582756
0.0249725
0.0246381
0.00263147
0.00115865
0.0028426
0.00668359
0.00684507
0.0238266
0.00668785
0.00288972
0.00668479
0.00677821
0.0268308
0.00130113
0.00458178
0.00668701
0.0246872
0.0146321
0.00682076
0.00678641
0.00682966
0.00678707
0.00612837
0.0209224
0.0218198
0.0210048
0.0119797
0.00108121
0.00426301
0.0125333
0.00555171
0.00118468
0.00668616
0.00674493
0.00185108
0.0261306
0.00585451
0.00111748
0.00155893
0.00682905
0.00233037
0.00647584
0.0230016
0.00105464
0.00681279
0.00412801
0.0067615
0.00167843
0.00312712
0.0045988
0.00698274
0.0024537
0.0049652
0.00118903
0.016845
0.00193339
0.00254224
0.00419116
0.00682058
0.00200165
0.00511741
0.0203842
0.00658759
0.00689015
0.0259891
0.00508203
0.0190552
0.0241318
0.0171012
0.0278685
0.00678604
0.0265169
0.00687531
0.00678502
0.00668824
0.00678183
0.00723011
0.00445589
0.00333206
0.00668356
0.0251296
0.00184061
0.0264964
0.00694617
0.00670721
0.00684298
0.00712502
0.0258451
0.000879352
0.00152973
0.00687026
0.00695964
0.00680256
0.00697234
0.0183716
0.0211142
0.00505033
0.00668329
0.00611871
0.00697459
0.0178726
0.00600091
0.00230218
0.0228124
0.0123237
0.00697148
0.00331093
0.0049201
0.00116035
0.0301201
0.00363688
0.00480002
0.000899566
0.00474928
0.0204275
0.00685023
0.017067
0.00700552
0.00101419
0.0159259
0.00690362
0.00611574
0.00292791
0.00678245
0.00200521
0.00222472
0.0110225
0.00108065
0.0202537
0.00763924
0.00668233
0.00692754
0.0124952
0.0121101
0.0030183
0.0247591
0.00683695
0.00661646
0.00667956
0.0110581
0.0228668
0.00319327
0.00668233
0.00674363
0.00188943
0.0068229
0.00859055
0.00205851
0.0183175
0.00669706
0.0053849
0.0047789
0.00189782
0.00963807
0.00654413
0.0276492
0.00686194
0.00683154
0.00211687
0.00156075
0.00230821
0.0175881
0.00551281
0.0063429
0.0220948
0.00690906
0.00674976
0.00414102
0.0068123
0.0104501
0.00170546
0.000447659
0.00463288
0.00702047
0.00683927
0.00231662
0.00679817
0.00552622
0.00671686
0.00695895
0.00680597
0.0244541
0.00695821
0.006682
0.00248899
0.00540916
0.00792799
0.00707402
0.00646111
0.00093604
0.0195953
0.0188808
0.00678404
0.00250035
0.0236768
0.00387938
0.0267296
0.00107678
0.00679871
0.00521636
0.00463801
0.00262516
0.00249806
0.00678735
0.00668074
0.00957509
0.00151066
0.00244525
0.00311652
0.00519595
0.00676343
0.00650782
0.0011912
0.0160467
0.00132684
0.00508681
0.00555871
0.00117612
0.0011352
0.0276725
0.00329971
0.0257351
0.0183914
0.00547972
0.0182422
0.00215287
0.0253221
0.0100085
0.0239076
0.00666694
0.00193959
0.00680468
0.00452539
0.00870628
0.0171378
0.00692691
0.0070237
0.00103653
0.0164441
0.00669062
0.00319258
0.00682499
0.00694922
0.0103884
0.00491191
0.00857106
0.00678661
0.0067531
0.00275916
0.0171413
0.000368601
0.00601107
0.0231003
0.014252
0.0258973
0.00105809
0.00107989
0.00449742
0.0053674
0.0222963
0.000909092
0.00487369
0.00486166
0.00118803
0.0120596
0.0250768
0.0101854
0.00689446
0.00116601
0.00681655
0.0024606
0.00615829
0.028828
0.00259687
0.01855
0.00668885
0.000927653
0.00691051
0.00817721
0.00114322
0.00118985
0.0226245
0.00111763
0.00305477
0.0068794
0.0010185
0.0116144
0.00266003
0.00303157
0.00332177
0.00681843
0.00838017
0.0139531
0.00538147
0.0266845
0.00684653
0.00962644
0.00621754
0.00498028
0.00693968
0.0170225
0.0066152
0.018236
0.0154505
0.00694205
0.00208835
0.01771
0.0169026
0.0234029
0.00572874
0.00675731
0.0201228
0.0154749
0.000377535
0.002529
0.00622144
0.012767
0.0139706
0.00112443
0.00668302
0.00166805
0.00678043
0.0067768
0.00549094
0.00703848
0.0236843
0.00356605
0.00694533
0.00637091
0.00693222
0.00393724
0.00412766
0.0208868
0.00142474
0.0257198
0.00690029
0.00147798
0.00695226
0.00678456
0.00676697
0.00695295
0.00838482
0.00687401
0.00106306
0.00690096
0.00243581
0.0054682
0.00212347
0.00678497
0.0261414
0.00237611
0.0210098
0.00151885
0.00148431
0.00312085
0.00144143
0.00330584
0.0290816
0.00781073
0.00387127
0.0012224
0.00853269
0.00664152
0.000966961
0.00105681
0.0239194
0.00679123
0.016645
0.00692338
0.00694698
0.0094179
0.00678942
0.020024
0.00220732
0.00682444
0.00398536
0.00682289
0.0067542
0.00691484
0.00368037
0.018976
0.00694413
0.0172744
0.0128436
0.0022344
0.0123672
0.0056679
0.00683561
0.00668403
0.00696981
0.00680792
0.0011746
0.0030592
0.00693313
0.00665358
0.00707004
0.00872068
0.0201167
0.00275362
0.0240758
0.0179874
0.00684998
0.00258606
0.00155079
0.00693803
0.0152316
0.00347834
0.0048829
0.00677894
0.0121393
0.0164228
0.0119759
0.00674262
0.0238138
0.00190507
0.00181278
0.00692316
0.00683595
0.0287953
0.00227491
0.00710291
0.00690856
0.00684679
0.0032416
0.00521338
0.019638
0.00946213
0.020074
0.0190403
0.0174103
0.00695084
0.00696061
0.00277129
0.00488443
0.00164088
0.00488986
0.00125647
0.00295699
0.00627428
0.0173743
0.00693078
0.0103878
0.0232746
0.0175727
0.0158606
0.0068014
0.00678195
0.00674854
0.0222128
0.00619896
0.00674286
0.00695413
0.00691272
0.00112305
0.00670278
0.00690952
0.00339095
0.00126925
0.0213805
0.003216
0.00415088
0.00680263
0.000912852
0.0238773
0.00232843
0.0183469
0.0241782
0.0010837
0.00672892
0.000913202
0.00681773
0.00696281
0.00678095
0.00532807
0.000454049
0.0187091
0.00162097
0.00678577
0.00682008
0.00704021
0.00681394
0.00254374
0.00260631
0.00672329
0.00131604
0.00270333
0.0110758
0.00699225
0.0245001
0.00718541
0.0264196
0.00180273
0.0271745
0.00116204
0.00103872
0.0180365
0.0143742
0.0205345
0.0221474
0.00680833
0.00279715
0.00670091
0.00304303
0.0013027
0.00527998
0.0138968
0.00178887
0.0015583
0.00866758
0.0132034
0.00420176
0.00675608
0.00191409
0.00295258
0.00679823
0.00435607
0.0224266
0.0146599
0.0217297
0.00677604
0.00138747
0.00589782
0.0151803
0.0253786
0.00278378
0.00677823
0.0032689
0.0143845
0.00150507
0.0263031
0.0255263
0.00438666
0.00672475
0.0227361
0.00446375
0.00118513
0.00144888
0.0267882
0.022547
0.00132583
0.00193212
0.00646091
0.00506322
0.00694438
0.00366363
0.00295027
0.0126256
0.00629787
0.00131818
0.00852898
0.00249012
0.027013
0.0169992
0.00688561
0.00463925
0.017346
0.00758661
0.02746
0.00677408
0.0069628
0.00434061
0.0245532
0.013405
0.00673736
0.00581746
0.00694873
0.0085521
0.00796679
0.00377166
0.00329014
0.00149831
0.0281301
0.0220006
0.0146526
0.00680832
0.0271949
0.00154524
0.0069633
0.00772848
0.0256267
0.00493424
0.00692726
0.00144073
0.0269419
0.00681852
0.00677827
0.0160036
0.00682426
0.00926512
0.0067751
0.0111169
0.00696392
0.00105284
0.0220194
0.0256955
0.00250044
0.00647326
0.0037995
0.0255924
0.0209925
0.0266079
0.00447036
0.0068452
0.0234273
0.00697352
0.00675942
0.00679436
0.00482019
0.00697353
0.020049
0.0069304
0.00629664
0.00530945
0.00160625
0.022417
0.00265903
0.00658204
0.00681001
0.00123516
0.0244421
0.00969673
0.00678926
0.00103277
0.0102695
0.00682945
0.00684464
0.0169384
0.0012166
0.00221964
0.00361256
0.0106432
0.00292837
0.0229578
0.0245212
0.00431722
0.00705627
0.00882611
0.0186199
0.00105544
0.00674792
0.00230317
0.00685282
0.00678203
0.018122
0.0165114
0.00528606
0.00631939
0.00222713
0.00839263
0.00318062
0.00345356
0.00696909
0.00210498
0.00490059
0.00682188
0.0025218
0.0258861
0.0209588
0.0233117
0.0273062
0.00328829
0.02058
0.0262088
0.00122185
0.00677246
0.00696674
0.015773
0.00686253
0.0163149
0.00676976
0.00279365
0.00503601
0.0246757
0.0276986
0.0131915
0.0066677
0.0231375
0.00332666
0.00388923
0.00677678
0.00686812
0.00726219
0.00231838
0.0127547
0.021417
0.00340097
0.000530703
0.00675534
0.00288456
0.0068387
0.00662565
0.00647061
0.00270461
0.00670842
0.00681756
0.0112112
0.00284045
0.00175529
0.00681405
0.00167634
0.0114837
0.00428502
0.00697963
0.00111771
0.00713724
0.00279374
0.00677857
0.0254478
0.00208524
0.0011136
0.00177479
0.00675754
0.00381313
0.0069744
0.00671987
0.00675138
0.00691094
0.00653937
0.0247997
0.0016531
0.00561002
0.00490667
0.00710614
0.00088966
0.0244942
0.0229416
0.0011917
0.00693905
0.0051861
0.00674843
0.0069196
0.0149101
0.0189984
0.00702904
0.00392258
0.00179821
0.0230212
0.00346248
0.00298299
0.01696
0.00272489
0.00482154
0.018433
0.0279703
0.00695593
0.00675266
0.00686755
0.025347
0.00236177
0.00136475
0.000276091
0.0137345
0.00238831
0.0279092
0.0272455
0.00681195
0.0248338
0.00105764
0.00675772
0.00719191
0.00579853
0.00691563
0.00680567
0.0120725
0.0040509
0.0117291
0.00293483
0.00233843
0.0012247
0.022189
0.0203773
0.0277024
0.00801524
0.00290989
0.00343519
0.00316684
0.00709665
0.00183781
0.0162508
0.00686969
0.00493066
0.00684313
0.00198685
0.00346912
0.00686363
0.0176067
0.00233437
0.00151976
0.00576462
0.00670536
0.00706268
0.00237707
0.00194192
0.00248399
0.00107441
0.00151293
0.00230191
0.000628452
0.0293081
0.00282438
0.027532
0.00697432
0.00693482
0.0170056
0.0151802
0.00533631
0.00317466
0.00681425
0.0102214
0.00953667
0.006896
0.00138956
0.00677784
0.00106093
0.00106242
0.00698872
0.00480682
0.0197568
0.00239381
0.0255503
0.00361214
0.00680169
0.00200941
0.0196496
0.00708098
0.00186234
0.000976724
0.00668375
0.00675386
0.00682369
0.00258091
0.0270747
0.0219562
0.00443868
0.0213033
0.00209004
0.00285252
0.00249353
0.00690353
0.00678691
0.00683524
0.026315
0.00686157
0.0275254
0.00344649
0.00314667
0.00637546
0.0183525
0.00600968
0.0252483
0.00105431
0.00671722
0.00669342
0.0247186
0.0223693
0.00175179
0.00677742
0.00675143
0.00129268
0.00173049
0.00799355
0.0285452
0.00198915
0.0068164
0.000483021
0.00531174
0.00395699
0.0185257
0.00678339
0.00108593
0.00683852
0.0264197
0.00674841
0.0218692
0.00684355
0.00219337
0.00429098
0.006787
0.00287655
0.00125594
0.00118786
0.0100362
0.0220353
0.00164137
0.00157814
0.00696841
0.0247082
0.0126628
0.00680651
0.00675403
0.0123842
0.00667721
0.00880419
0.00707823
0.00390593
0.00158973
0.00186469
0.00338787
0.00630753
0.00566341
0.000952174
0.0262294
0.00685661
0.00204818
0.00542005
0.0149851
0.00632962
0.00320183
0.0105663
0.00134599
0.0120152
0.00680945
0.00678027
0.00801551
0.0133205
0.0147318
0.0294152
0.00677176
0.00423917
0.00692944
0.00230296
0.0162139
0.0251081
0.0093602
0.00241739
0.028658
0.0148657
0.00323213
0.00521942
0.0051241
0.0122487
0.00237891
0.000964393
0.00693212
0.00680344
0.00677893
0.00613412
0.0244566
0.0187895
0.00202661
0.0146668
0.0242679
0.00680691
0.0068596
0.00684578
0.00506238
0.0207048
0.0198104
0.00275467
0.00676645
0.00224192
0.00156605
0.00105279
0.00190071
0.00193392
0.027093
0.0012406
0.00445514
0.00683062
0.00695125
0.00109715
0.0172761
0.005893
0.0148583
0.00152943
0.0239556
0.0059394
0.00182218
0.00711109
0.00482136
0.0159337
0.0149581
0.00337445
0.00196277
0.0069371
0.00680326
0.00675286
0.00684258
0.00367217
0.0018319
0.00366141
0.00260565
0.0256116
0.0227397
0.0246056
0.00480356
0.0014359
0.0129643
0.00323253
0.0124488
0.0131205
0.00677113
0.00406835
0.00159216
0.00423597
0.00850023
0.00281898
0.00321841
0.0191263
0.00680621
0.00288858
0.00663368
0.0186505
0.0226078
0.00195368
0.00547954
0.00710355
0.00955334
0.0034306
0.0162641
0.00224327
0.00499891
0.00679158
0.0268311
0.0176524
0.00181951
0.00118689
0.0246798
0.0117221
0.00693269
0.00685618
0.0018934
0.0259168
0.0254452
0.00680331
0.00702452
0.00288305
0.00697999
0.00662974
0.020379
0.014215
0.00499554
0.00492721
0.00521698
0.00272506
0.00687484
0.0123386
0.00677074
0.0233679
0.00583978
0.0246547
0.00335553
0.00686483
0.00189391
0.0033891
0.0128928
0.00224455
0.0257177
0.00681441
0.00605166
0.00686981
0.00144187
0.00107824
0.00106255
0.00359132
0.0271645
0.00181523
0.00299709
0.00174786
0.0288978
0.00682813
0.0113616
0.0166614
0.00136296
0.0167874
0.000925282
0.0107879
0.00527418
0.00208864
0.00690154
0.00974966
0.003008
0.0020912
0.026788
0.00552613
0.000913535
0.00539456
0.00852493
0.00672998
0.00677763
0.0116012
0.0016252
0.0137759
0.023169
0.000905669
0.00167842
0.0067992
0.0140116
0.00440115
0.00681651
0.00876154
0.00691834
0.00108343
0.0069414
0.0114463
0.00677682
0.0125546
0.00469388
0.00433575
0.0020788
0.00225351
0.0264012
0.00694287
0.0213164
0.013282
0.00677723
0.00689642
0.00326677
0.0032101
0.00140571
0.00681592
0.00347536
0.00100082
0.00626614
0.00274496
0.00686254
0.00354605
0.0068217
0.0240899
0.00583655
0.00697204
0.0183497
0.00161962
0.0228683
0.0270345
0.00106989
0.00574945
0.00197882
0.00295094
0.0028408
0.00428204
0.00676738
0.0016455
0.00514195
0.0234748
0.0233658
0.0030691
0.0118422
0.00204688
0.00310078
0.00660793
0.0263273
0.00679772
0.00180967
0.00675401
0.0272041
0.016224
0.00305174
0.00676407
0.00210325
0.00616199
0.00579825
0.00319191
0.00685192
0.00430869
0.0031269
0.02749
0.0067849
0.00173442
0.00172101
0.018626
0.0067087
0.0155194
0.00577397
0.00367585
0.0108747
0.0227982
0.0270418
0.00631813
0.00400455
0.00320676
0.00227121
0.00679078
0.00683105
0.0267971
0.00714846
0.0141905
0.00699955
0.0270521
0.00514361
0.00829059
0.00683739
0.00308982
0.00240335
0.00677625
0.0168061
0.00221104
0.0200441
0.0107489
0.0154335
0.00146357
0.000978582
0.0162672
0.0261951
0.00680413
0.00490359
0.00682017
0.00667983
0.00683454
0.00633041
0.00685375
0.0106792
0.00449814
0.00457539
0.0034876
0.00589701
0.0133117
0.00174906
0.00676461
0.00245099
0.00186002
0.0169865
0.00681343
0.00671387
0.00676454
0.0154816
0.00677211
0.00529954
0.00968438
0.00113277
0.00141078
0.00680682
0.00771585
0.00373244
0.0215703
0.00672569
0.00662391
0.00112216
0.00612937
0.0104801
0.0148533
0.00672729
0.000900751
0.00246497
0.0131505
0.00510712
0.00139987
0.00472665
0.00379923
0.00247622
0.0236686
0.00681824
0.00637149
0.00621994
0.000974196
0.00118726
0.00627188
0.0145803
0.00574485
0.0112961
0.00258385
0.00121836
0.0256212
0.00921814
0.0035767
0.014508
0.012166
0.00561687
0.00460471
0.00165087
0.00119683
0.00222535
0.025552
0.00673659
0.00358997
0.00517334
0.000488049
0.0067506
0.00428372
0.0123145
0.00116466
0.0257819
0.00286514
0.00215206
0.00206853
0.0255301
0.00120226
0.0259336
0.0145124
0.0113282
0.00682181
0.0254808
0.0235256
0.0172658
0.006791
0.00672021
0.00691742
0.0261751
0.00561809
0.0100652
0.00345113
0.0038408
0.00680221
0.00679221
0.0175937
0.022449
0.00841698
0.0140407
0.00684959
0.0229831
0.0268635
0.00383435
0.00881651
0.0141588
0.00372803
0.00297168
0.00187911
0.00139114
0.0254191
0.0251293
0.0068109
0.00596575
0.00672392
0.00689005
0.0282927
0.0134074
0.0279625
0.00247209
0.00235385
0.00371081
0.00679147
0.0273343
0.0143559
0.00683754
0.000929891
0.0169829
0.00687085
0.00591871
0.0263684
0.0197239
0.00318652
0.0067882
0.00236132
0.00525655
0.00256057
0.00331342
0.00688255
0.00265842
0.000815512
0.0220065
0.00303162
0.0253607
0.00554216
0.00329332
0.0183963
0.0267127
0.00379991
0.00190247
0.00675172
0.00129704
0.00630018
0.00678869
0.00173997
0.00690996
0.00289867
0.00332666
0.00692627
0.00336943
0.0242183
0.0142494
0.00986908
0.00688553
0.0067099
0.0269813
0.0117721
0.00169658
0.00683982
0.0067939
0.00773028
0.0059602
0.00680439
0.00170752
0.00689186
0.0181891
0.00322274
0.00406017
0.00232682
0.0067489
0.00685664
0.015751
0.00312704
0.0010787
0.0103552
0.00296548
0.00350953
0.00675014
0.00607143
0.00693312
0.00400375
0.00678207
0.00207154
0.025368
0.00636004
0.00134928
0.0101578
0.00502332
0.00698037
0.00677808
0.00177542
0.028043
0.00694978
0.017939
0.0206261
0.0032588
0.00662182
0.00350012
0.00676671
0.00418236
0.0067328
0.00677318
0.00674508
0.00690428
0.00438473
0.0252984
0.00219568
0.00149509
0.0214932
0.0022972
0.00213693
0.00121265
0.0128626
0.00874375
0.000915903
0.0271796
0.0266988
0.000402775
0.0030792
0.00330683
0.00685073
0.0276971
0.00694316
0.00217213
0.0273195
0.00508379
0.0303347
0.00166513
0.00689923
0.00664373
0.00629975
0.00443668
0.00683375
0.00557994
0.0134522
0.0259872
0.0177769
0.00659234
0.00675344
0.00101345
0.00674754
0.0178281
0.000303195
0.0207589
0.00684099
0.0256527
0.0106949
0.00281155
0.0041785
0.0063236
0.00680143
0.00562147
0.00688521
0.00692761
0.00221846
0.0170888
0.00105256
0.0126716
0.00370744
0.0216365
0.0132131
0.00680075
0.00678352
0.0066132
0.00674111
0.00346949
0.00301532
0.0258789
0.014376
0.0267731
0.00169571
0.0140644
0.0053393
0.0262254
0.0141908
0.00687768
0.00691314
0.00478968
0.00689735
0.00673364
0.0170429
0.0180197
0.0233883
0.00693257
0.00590289
0.00606303
0.00172738
0.0241428
0.00682671
0.00570951
0.0181944
0.0068074
0.0127363
0.00165322
0.0277639
0.00367651
0.019429
0.00761426
0.00316931
0.0272531
0.000106711
0.0124654
0.00675683
0.00279998
0.00691139
0.00193581
0.021657
0.00705659
0.00612757
0.0066597
0.00680987
0.00677863
0.0261004
0.00107654
0.000355589
0.00693808
0.00675309
0.00296446
0.00771267
0.00242855
0.0068466
0.00622815
0.00689164
0.00309854
0.00686945
0.00691938
0.0258626
0.0276681
0.0257492
0.00781638
0.018697
0.0126366
0.00092997
0.0270476
0.00295905
0.00674262
0.00692148
0.00667783
0.0065273
0.0274082
0.0272438
0.00681564
0.00468049
0.024087
0.00121453
0.00640903
0.00659789
0.0257552
0.0263577
0.0167464
0.0172463
0.0175906
0.00667834
0.0176296
0.000681463
0.00552755
0.0266621
0.00682966
0.00290756
0.00991917
0.00285626
0.00897366
0.00670229
0.00541766
0.0112549
0.0193088
0.000965424
0.00181424
0.00511658
0.00228145
0.0183892
0.0239908
0.0183223
0.000395261
0.0252092
0.00574542
0.00565014
0.00111798
0.00815028
0.00619876
0.0118176
0.00680819
0.000297099
0.00210753
0.00687717
0.0268333
0.00680684
0.00389987
0.00814839
0.00678624
0.0293942
0.0276551
0.0220618
0.0255487
0.0206559
0.00334747
0.00696094
0.0274734
0.00668711
0.00684907
0.001151
0.00203251
0.016005
0.00186801
0.00665189
0.00211473
0.00690897
0.0252484
0.00305202
0.000249223
0.00340811
0.00677103
0.0101296
0.000655717
0.00636707
0.00569073
0.017593
0.00674812
0.00168008
0.00317555
0.0242408
0.00342659
0.00681859
0.000539682
0.00288078
0.0275872
0.0170797
0.00105623
0.0200726
0.00527569
0.00680144
0.0278788
0.00163878
0.00691066
0.0240903
0.000972278
0.00681888
0.00692899
0.00286627
0.0033554
0.00858321
0.0173214
0.0052197
0.0110458
0.000926817
0.00136069
0.00694272
0.0276332
0.00397283
0.0152916
0.00679797
0.00679629
0.00108193
0.00235971
0.0103649
0.00689823
0.017723
0.00688888
0.000773428
0.0067971
0.00511528
0.00811813
0.000469931
0.0106197
0.0206973
0.0264603
0.0162229
0.00668026
0.0210722
0.0223812
0.00702504
0.00678556
0.0135226
0.00415194
0.0156985
0.000654697
0.0196731
0.00255399
0.0276929
0.000930203
0.0176953
0.00677197
0.001071
0.000983314
0.00680165
0.00105181
0.0130565
0.00393945
0.015741
0.022238
0.00682568
0.00690579
0.00461981
0.00680894
0.0175051
0.00683807
0.00691525
0.0276675
0.0177241
0.00392063
0.000690591
0.0068772
0.00156032
0.00716471
0.0164691
0.00861079
0.00146191
0.0167924
0.00620667
0.0067436
0.00173066
0.0128724
0.0185892
0.0171045
0.0183966
0.00259055
0.00693394
0.00681963
0.00325189
0.00154971
0.00983332
0.0234456
0.00176085
0.0269397
0.00836225
0.00333422
0.0199398
0.00690355
0.00149989
0.00261401
0.00684516
0.00678606
0.00164791
0.00192646
0.0250591
0.0162603
0.00683947
0.000931799
0.00163274
0.00171515
0.0180958
0.0297224
0.0275162
0.00675585
0.00102841
0.0268096
0.00101852
0.000503132
0.00355729
0.0256533
0.028031
0.0266935
0.00681742
0.0250768
0.00681234
0.00610779
0.00691296
0.0013377
0.0279391
0.00327038
0.0176645
0.0153288
0.00126457
0.00671933
0.00677807
0.00586297
0.00679836
0.00114621
0.0275353
0.0252967
0.000948817
0.0027844
0.00679455
0.00137159
0.00678557
0.0210558
0.00224801
0.00679055
0.00179436
0.000503774
0.027983
0.010194
0.00258508
0.00322154
0.00236639
0.0161488
0.0162382
0.0269609
0.0163383
0.00624786
0.00143169
0.00631164
0.0261385
0.00557103
0.00125172
0.0221216
0.0169452
0.0204576
0.00145441
0.00238783
0.00327051
0.00677758
0.000476971
0.00229865
0.00193749
0.00149094
0.00164713
0.00173809
0.00724086
0.0113331
0.00400981
0.00211834
0.00126308
0.00309012
0.00631542
0.0299831
0.00106755
0.00356768
0.0138868
0.00693277
0.0145383
0.00678691
0.00562739
0.00317193
0.0150986
0.00289364
0.0181862
0.0212369
0.00142458
0.00328333
0.00032805
0.0205716
0.00468591
0.0200434
0.00673686
0.00094612
0.00685584
0.0149509
0.0075007
0.00672364
0.0069455
0.00315646
0.00160656
0.00256251
0.000990243
0.000958707
0.00505388
0.00367677
0.0226044
0.00661408
0.0022319
0.00114679
0.00670212
0.0199973
0.00120843
0.000915717
0.00219861
0.000951538
0.0303734
0.0067427
0.00661676
0.00567184
0.00376589
0.00694113
0.0131418
0.00319928
0.0238964
0.00339504
0.0270265
0.0181895
0.00145463
0.0215378
0.000919357
0.0175379
0.0146607
0.00318261
0.0020458
0.000982241
0.00130801
0.00577603
0.0174994
0.00927139
0.0153878
0.00677835
0.0186513
0.0140036
0.0221213
0.0068173
0.00117243
0.0068916
0.00207605
0.0252109
0.00188182
0.00176822
0.0068276
0.00678286
0.0168632
0.013155
0.00690936
0.023331
0.0183016
0.00672494
0.00605752
0.0146781
0.000548553
0.000664177
0.00687665
0.00174278
0.00163868
0.00694526
0.00698032
0.027866
0.00157869
0.0134746
0.0010261
0.00142745
0.0280022
0.000277349
0.00809406
0.0068251
0.0101574
0.00118745
0.00165563
0.0217654
0.00112243
0.00683618
0.0015414
0.00194391
0.00556723
0.00675512
0.012878
0.00693263
0.00234321
0.0236105
0.00083311
0.00690485
0.01989
0.00124622
0.020266
0.00730618
0.0111668
0.000441201
0.018358
0.00677819
0.00108535
0.00149528
0.00681959
0.0118443
0.02404
0.00141001
0.00228805
0.00613748
0.00108133
0.0106734
0.00142945
0.00357305
0.00388932
0.0224917
0.0183971
0.000709559
0.00674271
0.00689331
0.00228516
0.00352847
0.0149744
0.0302645
0.0212698
0.0298398
0.0256435
0.00678234
0.00430726
0.00678348
0.00222057
0.0056987
0.00568058
0.00575156
0.00207731
0.00696096
0.0130934
0.00160395
0.00935403
0.00684331
0.00222203
0.00123455
0.00091265
0.00146685
0.000801394
0.00197187
0.0121522
0.000581381
0.00684005
0.00925058
0.0193633
0.00312621
0.00675322
0.00157384
0.00676962
0.00697325
0.000917838
0.00580077
0.0117334
0.0178196
0.00107247
0.00216151
0.0068023
0.0198445
0.000996511
0.0295628
0.00279328
0.00310891
0.00877635
0.00331847
0.00393615
0.00269534
0.00670261
0.00431083
0.00678396
0.026253
0.00125122
0.00220894
0.00492702
0.00252746
0.00684442
0.00265407
0.0236273
0.00680952
0.00152214
0.0267685
0.000151736
0.0011648
0.00785912
0.0187234
0.0254173
0.00947812
0.0199682
0.00160477
0.00365416
0.00318372
0.00141162
0.00613501
0.00686915
0.00858516
0.0148163
0.00389813
0.00687756
0.00214776
0.00157444
0.0067875
0.00712972
0.0012791
0.00695808
0.00302668
0.0175235
0.00134835
0.000993799
0.00256766
0.00676798
0.00186253
0.00103088
0.00228723
0.0106722
0.00184415
0.0149131
0.000619481
0.0151808
0.00610784
0.0232165
0.00780763
0.0085646
0.00189831
0.0180553
0.000963648
0.00278886
0.000945008
0.00112116
0.0016891
0.002069
0.00696992
0.00680629
0.00677738
0.00207737
0.0135778
0.00682411
0.000621811
0.00559276
0.00172303
0.00293695
0.0181968
0.00181135
0.00181607
0.00569296
0.00284508
0.0025099
0.00687062
0.00172105
0.00183368
0.00684629
0.00224032
0.00392863
0.00682962
0.0297504
0.00179309
0.015677
0.00166987
0.0194738
0.0011337
0.00209788
0.00409635
0.00104418
0.00599034
0.00141486
0.029526
0.0253538
0.0028511
0.0022716
0.00118337
0.00678145
0.02736
0.0031859
0.0272082
0.00672952
0.0177245
0.00739842
0.0185712
0.0232659
0.00675108
0.00678693
0.00680721
0.00116113
0.0257142
0.00285462
0.0179477
0.00278483
0.00123588
0.00693952
0.00330864
0.00370879
0.00193399
0.00301458
0.00683128
0.0184882
0.00397234
0.0270681
0.00673412
0.021912
0.0068702
0.00680202
0.000630689
0.00334078
0.0020791
0.00103535
0.00246203
0.00198832
0.00679487
0.00607516
0.00586911