/*--------------------------------*- C++ -*----------------------------------*\
| =========                 |                                                 |
| \\      /  F ield         | OpenFOAM: The Open Source CFD Toolbox           |
|  \\    /   O peration     | Version:  v2012                                 |
|   \\  /    A nd           | Website:  www.openfoam.com                      |
|    \\/     M anipulation  |                                                 |
\*---------------------------------------------------------------------------*/
FoamFile
{
    version     2.0;
    format      ascii;
    class       volVectorField;
    location    "350";
    object      cellDisplacement;
}
// * * * * * * * * * * * * * * * * * * * * * * * * * * * * * * * * * * * * * //

dimensions      [0 1 0 0 0 0 0];


internalField   nonuniform List<vector> 
13851
(
(0.023494 0.0220513 0)
(0.0218145 -0.0441185 0)
(0.0216702 -0.0423933 0)
(0.028061 -0.159167 0)
(0.000760618 -0.0056491 0)
(0.0228495 -0.066768 0)
(0.0181103 0.0635177 0)
(0.00166875 -0.0060164 0)
(0.0226987 0.0623784 0)
(0.00552148 -0.125648 0)
(0.0258415 -0.107165 0)
(0.00705034 -0.0729568 0)
(0.00862118 -0.149963 0)
(0.0230907 0.0462316 0)
(0.0225422 0.0149361 0)
(0.0211611 0.107591 0)
(0.0268728 -0.109982 0)
(0.0177473 -0.0581384 0)
(0.0248423 -0.0289884 0)
(0.023532 0.0201014 0)
(0.0232511 -0.00311687 0)
(0.0219689 -0.141578 0)
(0.0284071 -0.177953 0)
(0.000317233 -0.00258602 0)
(0.0260248 -0.0766852 0)
(0.0208025 0.095805 0)
(0.022417 0.0705569 0)
(0.0243279 -0.0060535 0)
(0.0217804 0.100186 0)
(0.0133864 -0.0530844 0)
(0.027311 -0.128312 0)
(0.0182114 0.0603932 0)
(0.023245 0.0313547 0)
(0.023532 0.0278763 0)
(0.0251737 -0.102619 0)
(0.0216091 0.107192 0)
(0.000278035 -0.0022745 0)
(0.027074 -0.121446 0)
(0.0259234 -0.0708695 0)
(0.0156239 -0.132026 0)
(0.0241944 0.000582076 0)
(0.0217829 0.100009 0)
(0.02733 -0.128863 0)
(0.0278126 -0.178601 0)
(0.0219784 0.0919208 0)
(0.0145935 -0.0967813 0)
(0.0026603 0.00417123 0)
(0.0217367 0.0879552 0)
(0.0211906 -0.114672 0)
(0.00829171 -0.149966 0)
(0.0253649 -0.0476942 0)
(0.00639383 -0.155415 0)
(0.0212052 0.105639 0)
(0.0198657 0.0714699 0)
(0.0226405 0.0648342 0)
(0.0155313 -0.133429 0)
(0.0232998 0.0297068 0)
(0.0242181 -0.000383108 0)
(0.0219495 0.0890215 0)
(0.0238432 0.0151707 0)
(0.00677048 -0.0705242 0)
(0.0224244 0.0698191 0)
(0.0032748 -0.101499 0)
(0.0213158 -0.116402 0)
(0.0262636 -0.187335 0)
(0.0263339 -0.188057 0)
(0.0238623 0.0143844 0)
(0.0130101 -0.190381 0)
(0.0176712 -0.118233 0)
(0.0278408 -0.150134 0)
(0.0270812 -0.118678 0)
(0.0235539 -0.00471253 0)
(0.0117057 -0.13759 0)
(0.0238016 0.0168797 0)
(0.0207403 0.0565596 0)
(0.02006 -0.143211 0)
(0.0268843 -0.110462 0)
(0.0112958 -0.0248588 0)
(0.0259879 -0.0753318 0)
(0.0115827 -0.102591 0)
(0.0178951 -0.117808 0)
(0.0264446 -0.0981312 0)
(0.0251309 -0.104822 0)
(0.0231867 0.0422656 0)
(0.0237794 0.0177983 0)
(0.0272289 -0.124861 0)
(0.0221977 -0.140689 0)
(0.0217912 0.0999092 0)
(0.00714372 -0.127552 0)
(0.0273479 -0.129848 0)
(0.00610745 -0.156225 0)
(0.0184426 0.0586269 0)
(0.0256898 -0.0611141 0)
(0.0272618 -0.126173 0)
(0.0254737 -0.0522316 0)
(0.0275521 -0.178086 0)
(0.0140256 -0.108558 0)
(0.0215031 0.0967604 0)
(0.0247814 -0.0235921 0)
(0.0269877 -0.13545 0)
(0.0215816 0.0949279 0)
(0.0143612 -0.187037 0)
(0.0165732 -0.18713 0)
(0.0115558 -0.143846 0)
(0.0152073 -0.0906036 0)
(0.0240137 -0.0265227 0)
(0.0149962 -0.0909352 0)
(0.0271073 -0.119786 0)
(0.0185436 0.0555264 0)
(0.0175389 -0.0576635 0)
(0.0226807 -0.157853 0)
(0.0148386 -0.0966652 0)
(0.0255061 -0.0609753 0)
(0.025235 -0.0708263 0)
(0.0228023 0.048786 0)
(0.0198371 0.0694941 0)
(0.00995815 -0.0453555 0)
(0.00203137 -0.00702471 0)
(0.0280839 -0.160068 0)
(0.0278534 -0.150771 0)
(0.0273158 -0.171891 0)
(0.0161135 -0.0553241 0)
(0.0171312 -0.124511 0)
(0.0236699 0.022313 0)
(0.0244158 -0.0119131 0)
(0.016505 -0.191431 0)
(0.0140146 -0.106779 0)
(0.0258684 -0.135895 0)
(0.0237478 0.0190417 0)
(0.0229853 0.0137631 0)
(0.0218627 -0.14392 0)
(0.0241105 -0.0953549 0)
(0.027061 -0.121451 0)
(0.0234914 0.0295643 0)
(0.0258667 -0.104987 0)
(0.0256183 -0.0582119 0)
(0.0124507 -0.190115 0)
(0.0271946 -0.123411 0)
(0.0128131 -0.184941 0)
(0.0226971 0.0226739 0)
(0.0264661 -0.0997081 0)
(0.0130667 -0.160189 0)
(0.00709738 -0.129318 0)
(0.0223556 -0.18962 0)
(0.0255832 -0.0581242 0)
(0.0189507 -0.149803 0)
(0.0109521 -0.0228556 0)
(0.0272992 -0.127737 0)
(0.0222278 0.0818643 0)
(0.0259719 -0.13587 0)
(0.021642 0.0926912 0)
(0.0255322 -0.062732 0)
(0.0252767 -0.0704143 0)
(0.0247295 -0.02523 0)
(0.0087758 -0.157754 0)
(0.00564762 -0.142649 0)
(0.00609963 -0.0600639 0)
(0.0259474 -0.0718365 0)
(0.0226599 0.0201284 0)
(0.0194571 0.0257041 0)
(0.000716885 -0.00589617 0)
(0.0217073 0.10318 0)
(0.0239309 -0.0245879 0)
(0.0217987 0.0856095 0)
(0.0230577 0.0475978 0)
(0.0225398 0.0688792 0)
(0.0225695 0.067635 0)
(0.0253937 -0.0488865 0)
(0.0225555 -0.156509 0)
(0.0246836 -0.0200551 0)
(0.00631965 -0.0676481 0)
(0.00967568 -0.0433778 0)
(0.0244426 -0.0359235 0)
(0.000659559 -0.00511284 0)
(0.0254556 -0.0514974 0)
(0.0230169 0.0464971 0)
(0.0220843 0.0782585 0)
(0.00978937 -0.0421546 0)
(0.0204914 0.0623311 0)
(0.0220243 0.0798377 0)
(0.0243768 -0.0105928 0)
(0.0277345 -0.17751 0)
(0.0225659 -0.153161 0)
(0.0228838 0.0160034 0)
(0.02692 -0.111926 0)
(0.0221971 0.0831244 0)
(0.02318 0.034263 0)
(0.011657 -0.181432 0)
(0.00925292 -0.154502 0)
(0.0142386 -0.0722656 0)
(0.0255785 -0.0581524 0)
(0.0227405 0.0168488 0)
(0.0230991 0.0458841 0)
(0.0228573 -0.0629995 0)
(0.0189278 -0.148063 0)
(0.0213542 0.101288 0)
(0.0231301 0.0356126 0)
(0.0184499 -0.0194468 0)
(0.0192669 -0.0737904 0)
(0.0152491 -0.190047 0)
(0.0265573 -0.103969 0)
(0.0250132 -0.0332085 0)
(0.0243573 -0.00613446 0)
(0.0224254 0.0179141 0)
(0.0282412 -0.188359 0)
(0.0250006 -0.032675 0)
(0.00697756 -0.172763 0)
(0.0221147 0.0416226 0)
(0.0227981 0.0582705 0)
(0.0227813 -0.0809861 0)
(0.021019 0.11175 0)
(0.0169491 -0.123965 0)
(0.0265334 -0.102285 0)
(0.00228569 -0.0252145 0)
(0.0251667 -0.097222 0)
(0.0207393 -0.14449 0)
(0.00815997 -0.148326 0)
(0.0237352 0.0155891 0)
(0.019118 -0.0479343 0)
(0.0233165 -0.193096 0)
(0.0095187 -0.0401014 0)
(0.0236559 0.0151866 0)
(0.0232113 0.0412497 0)
(0.0255468 -0.0552589 0)
(0.0131404 -0.180251 0)
(0.02208 0.044022 0)
(0.00120625 -0.0131076 0)
(0.0217389 -0.189491 0)
(0.00926664 -0.0959355 0)
(0.0251151 -0.0988526 0)
(0.0281014 -0.161593 0)
(0.0120137 -0.180851 0)
(0.022711 -0.0778685 0)
(0.00219468 -0.0943213 0)
(0.0243254 -0.0048083 0)
(0.0135182 -0.0514631 0)
(0.0283548 -0.177744 0)
(0.0244283 -0.00906265 0)
(0.0269198 -0.134991 0)
(0.000673259 -0.00556888 0)
(0.0277105 -0.153968 0)
(0.0237158 0.0204302 0)
(0.0219457 0.0932034 0)
(0.0210561 0.109906 0)
(0.0232845 -0.0261976 0)
(0.0227713 -0.190298 0)
(0.0237267 0.0154897 0)
(0.0204008 0.0655812 0)
(0.0274716 -0.177044 0)
(0.0234584 -0.152837 0)
(0.0222216 0.0821595 0)
(0.024365 -0.0137835 0)
(0.00180344 -0.00865549 0)
(0.0221167 -0.0236701 0)
(0.0214432 0.0992203 0)
(0.0216769 0.104469 0)
(0.0213102 0.119793 0)
(0.0139934 -0.0709449 0)
(0.0159141 -0.191702 0)
(0.00752248 -0.126057 0)
(0.0232141 0.0358494 0)
(0.0245188 -0.0164225 0)
(0.0221991 -0.0228715 0)
(0.0238698 -0.0205755 0)
(0.0244166 -0.0154531 0)
(0.0121881 -0.126961 0)
(0.015047 -0.187248 0)
(0.0218409 0.0813609 0)
(0.0240999 0.00315996 0)
(0.00617919 -0.0965042 0)
(0.00783735 -0.148075 0)
(0.0127917 -0.180849 0)
(0.0229022 0.0538935 0)
(0.0279942 -0.156297 0)
(0.023275 0.00173211 0)
(0.0163858 -0.055851 0)
(0.0243141 -0.00778859 0)
(0.0246246 -0.0208413 0)
(0.0229093 0.0429047 0)
(0.0237842 -0.0183054 0)
(0.0229276 0.0528704 0)
(0.0244872 -0.01144 0)
(0.0226787 -0.0388558 0)
(0.0222823 0.0158024 0)
(0.027311 -0.1315 0)
(0.015408 -0.085008 0)
(0.00596385 -0.0569914 0)
(0.0229733 0.0410537 0)
(0.0257967 -0.117682 0)
(0.0139408 -0.0501004 0)
(0.00229968 -0.0244243 0)
(0.00936625 -0.0982 0)
(0.00105417 -0.00708442 0)
(0.0229173 -0.010549 0)
(0.0062154 -0.0599725 0)
(0.0227321 0.0609895 0)
(0.0232929 -0.002226 0)
(0.0155968 -0.11932 0)
(0.0216345 0.106203 0)
(0.0236477 0.0232343 0)
(0.00788076 -0.155262 0)
(0.0236109 0.017413 0)
(0.0250709 -0.0355471 0)
(0.0132919 -0.161165 0)
(0.00759221 -0.156213 0)
(0.0234022 -0.00430926 0)
(0.0233323 0.0362591 0)
(0.0267208 -0.104276 0)
(0.0242769 -0.0242113 0)
(0.000974577 -0.00717197 0)
(0.0246451 -0.0185058 0)
(0.0066053 -0.0702834 0)
(0.0244034 -0.0270831 0)
(0.0250981 -0.0366691 0)
(0.024002 0.00715639 0)
(0.0193542 0.0246409 0)
(0.0273304 -0.132868 0)
(0.0270852 -0.123673 0)
(0.026957 -0.113593 0)
(0.025633 -0.0674067 0)
(0.012107 -0.188156 0)
(0.025624 -0.0584685 0)
(0.0237027 0.0209461 0)
(0.024373 -0.00798856 0)
(0.0194676 -0.0742871 0)
(0.0272351 -0.124963 0)
(0.0218236 0.0985798 0)
(0.0232239 -0.192489 0)
(0.0234779 -0.192287 0)
(0.00736403 -0.173166 0)
(0.0244483 -0.032753 0)
(0.0185385 -0.174786 0)
(0.021761 0.101159 0)
(0.0156319 -0.188049 0)
(0.00292122 -0.0162544 0)
(0.00304409 0.00394865 0)
(0.0232625 -0.120912 0)
(0.0269774 -0.114403 0)
(0.0233627 -0.193046 0)
(0.0153053 -0.0828496 0)
(0.0255151 -0.0539404 0)
(0.0179019 -0.176436 0)
(0.024188 -0.0978363 0)
(0.0194215 0.0286461 0)
(0.0233078 0.0372689 0)
(0.0242693 -0.00617485 0)
(0.0213015 0.103509 0)
(0.0204525 -0.144844 0)
(0.0225494 -0.0776283 0)
(0.0212757 0.120788 0)
(0.00963428 -0.154995 0)
(0.0246819 -0.0229904 0)
(0.0225635 -0.0364196 0)
(0.0234829 -0.00742334 0)
(0.0178239 -0.177356 0)
(0.00746962 -0.127825 0)
(0.0156584 -0.11766 0)
(0.026276 -0.097497 0)
(0.0269984 -0.133529 0)
(0.0242491 -0.00895717 0)
(0.0271003 -0.123582 0)
(0.0213093 0.119367 0)
(0.0191778 -0.150021 0)
(0.0243929 -0.00759139 0)
(0.0233406 0.031941 0)
(0.0142971 -0.0256614 0)
(0.0239663 0.00874651 0)
(0.0235909 0.0126757 0)
(0.0248143 -0.0249514 0)
(0.0231075 -0.12001 0)
(0.0203351 0.109366 0)
(0.0219423 0.0887347 0)
(0.0266235 -0.1023 0)
(0.0263354 -0.101912 0)
(0.0218868 0.0959588 0)
(0.0204439 -0.0915243 0)
(0.0230575 0.0450856 0)
(0.0273593 -0.130084 0)
(0.0233964 -0.0442083 0)
(0.0222191 0.0822585 0)
(0.0236946 -0.047498 0)
(0.0245061 -0.0122919 0)
(0.0222615 0.0141538 0)
(0.0196576 0.0949905 0)
(0.0245215 -0.0203528 0)
(0.0269624 -0.125719 0)
(0.00600135 -0.142853 0)
(0.0226897 -0.0484577 0)
(0.0258837 -0.118528 0)
(0.0206558 0.0598814 0)
(0.0147053 -0.104658 0)
(0.0232431 0.00425023 0)
(0.0235358 0.0274927 0)
(0.0117876 -0.136394 0)
(0.0222502 0.0375077 0)
(0.0281987 -0.164783 0)
(0.0220549 -0.0775277 0)
(0.0280835 -0.171063 0)
(0.0208737 0.0755012 0)
(0.0266894 -0.103057 0)
(0.0229262 -0.0820497 0)
(0.0207544 0.0950728 0)
(0.02807 -0.18843 0)
(0.0244805 -0.01456 0)
(0.0241153 -0.0328883 0)
(0.0213327 0.118871 0)
(0.0237385 0.0194893 0)
(0.0276946 -0.155018 0)
(0.012065 -0.12813 0)
(0.0262253 -0.0959149 0)
(0.0239046 -0.0570501 0)
(0.0204361 0.106221 0)
(0.0161053 -0.0630547 0)
(0.0271543 -0.121604 0)
(0.0238119 0.0161288 0)
(0.0263634 -0.0910839 0)
(0.0224611 -0.0745484 0)
(0.0244882 -0.0184569 0)
(0.0226191 0.0621154 0)
(0.0280188 -0.157329 0)
(0.0112718 -0.00284642 0)
(0.0272269 -0.124613 0)
(0.0268929 -0.120744 0)
(0.0285178 -0.181204 0)
(0.0236716 -0.152409 0)
(0.0248828 -0.0290275 0)
(0.00843218 -0.140143 0)
(0.000581472 -0.00447041 0)
(0.0226109 0.06606 0)
(0.0227175 0.0582494 0)
(0.00571589 -0.128005 0)
(0.0218651 -0.0469049 0)
(0.0223342 0.0362577 0)
(0.00988399 -0.0507888 0)
(0.0238145 0.0159514 0)
(0.0244061 -0.0300052 0)
(0.023617 0.0108805 0)
(0.0210378 0.0134193 0)
(0.020435 -0.0887978 0)
(0.00484906 -0.155812 0)
(0.026662 -0.104175 0)
(0.0153086 -0.11985 0)
(0.00457572 -0.154778 0)
(0.0216806 0.102696 0)
(0.0235628 0.0263355 0)
(0.0216099 -0.144464 0)
(0.0219931 0.0860053 0)
(0.00300428 -0.099736 0)
(0.00606065 -0.0568262 0)
(0.0222212 -0.07751 0)
(0.0243019 -0.010732 0)
(0.0204923 0.0834286 0)
(0.0149332 -0.107748 0)
(0.0209053 -0.067213 0)
(0.0272405 -0.170749 0)
(0.0209132 -0.0322409 0)
(0.0268918 -0.111596 0)
(0.00681732 -0.0682702 0)
(0.0204217 0.0430448 0)
(0.022021 0.0901521 0)
(0.0206266 -0.177933 0)
(0.003341 -0.00128091 0)
(0.00582471 -0.0668283 0)
(0.0210642 0.0103524 0)
(0.0187399 -0.014153 0)
(0.0278259 -0.162301 0)
(0.0216377 0.104838 0)
(0.023284 -0.0235584 0)
(0.0279883 -0.192686 0)
(0.022287 -0.0744067 0)
(0.00782294 -0.0907759 0)
(0.023421 0.0325353 0)
(0.0219979 0.0864258 0)
(0.0164444 -0.18316 0)
(0.0128035 -0.138117 0)
(0.0236639 0.0225561 0)
(0.0134836 -0.184385 0)
(0.0283285 -0.181702 0)
(0.0112916 -0.1441 0)
(0.024104 -0.0890252 0)
(0.0263288 -0.1003 0)
(0.0213302 0.0472528 0)
(0.0237054 0.0208238 0)
(0.022584 0.0637428 0)
(0.0263911 -0.0925101 0)
(0.0164554 -0.163745 0)
(0.0256013 -0.0654144 0)
(0.0126697 -0.126686 0)
(0.0217474 0.101572 0)
(0.0209403 0.0727857 0)
(0.0230756 0.0378125 0)
(0.0238133 -0.0545609 0)
(0.0203288 -0.143161 0)
(0.0207001 -0.177056 0)
(0.0244016 -0.0329477 0)
(0.000852018 -0.00639418 0)
(0.0277692 -0.147014 0)
(0.0234469 0.0314796 0)
(0.0269253 -0.113081 0)
(0.0285343 -0.17873 0)
(0.0216799 0.103037 0)
(0.0263215 -0.0872088 0)
(0.0245821 -0.0188175 0)
(0.0139202 -0.178902 0)
(0.00277175 -0.0467875 0)
(0.0281475 -0.171503 0)
(0.00520776 -0.125083 0)
(0.0144999 -0.10355 0)
(0.0152173 -0.180002 0)
(0.0253875 -0.0486906 0)
(0.0213377 -0.0289764 0)
(0.0119458 -0.161628 0)
(0.0263416 -0.169784 0)
(0.0246652 -0.0587946 0)
(0.00339666 -0.128772 0)
(0.0258991 -0.0705474 0)
(0.0135805 -0.108919 0)
(0.0236387 0.0235314 0)
(0.0277748 -0.161039 0)
(0.0118513 -0.103477 0)
(0.0204008 -0.00592751 0)
(0.0267245 -0.112177 0)
(0.0240593 0.00492657 0)
(0.0138528 -0.0522906 0)
(0.0269313 -0.114631 0)
(0.028171 -0.17037 0)
(0.014348 0.00668759 0)
(0.026494 -0.0944458 0)
(0.0247908 -0.0270672 0)
(0.0237743 0.010398 0)
(0.0161237 -0.163976 0)
(0.0217308 0.100584 0)
(0.0242226 -0.00051106 0)
(0.0145926 0.00592565 0)
(0.0255242 -0.0582576 0)
(0.0173702 -0.121314 0)
(0.0138175 -0.109555 0)
(0.02124 0.119203 0)
(0.024543 -0.0138189 0)
(0.024241 -0.0558671 0)
(0.0203642 0.0850458 0)
(0.00470942 -0.126127 0)
(0.0212617 0.0772319 0)
(0.0237127 0.0204795 0)
(0.0258041 -0.0659066 0)
(0.0160123 -0.00693411 0)
(0.0266615 -0.101251 0)
(0.0147287 -0.106902 0)
(0.0176016 -0.120666 0)
(0.0240992 -0.0303442 0)
(0.0197454 0.0585985 0)
(0.0112782 -0.000463436 0)
(0.019865 -0.144655 0)
(0.0264251 -0.0916064 0)
(0.0269223 -0.125087 0)
(0.0264614 -0.0930815 0)
(0.0212075 -0.0303672 0)
(0.00781803 -0.126294 0)
(0.0228286 0.0569179 0)
(0.0036656 -0.0592426 0)
(0.0261326 -0.0911845 0)
(0.0210749 0.0255923 0)
(0.0209878 0.0505189 0)
(0.023426 -0.0332304 0)
(0.0219136 0.0943269 0)
(0.0245173 -0.0126826 0)
(0.0227133 -0.0562161 0)
(0.0273618 -0.13019 0)
(0.0193666 0.0187408 0)
(0.0247857 -0.0477079 0)
(0.0218226 0.0983513 0)
(0.0226418 0.0647784 0)
(0.0166054 -0.128671 0)
(0.0125117 -0.127706 0)
(0.0173294 -0.186865 0)
(0.0263968 -0.0904114 0)
(0.0215182 0.10274 0)
(0.0211632 0.0788311 0)
(0.0283538 -0.180402 0)
(0.0196865 0.0613165 0)
(0.0221181 0.0168526 0)
(0.0280802 -0.16113 0)
(0.0259971 -0.0745811 0)
(0.0269789 -0.172828 0)
(0.023603 0.0250135 0)
(0.0227272 0.0550826 0)
(0.0214647 0.11296 0)
(0.0199746 -0.0934668 0)
(0.021905 0.0909456 0)
(0.0248889 -0.0295015 0)
(0.00703925 -0.0860126 0)
(0.025719 -0.0623381 0)
(0.0253543 -0.0476216 0)
(0.0227039 -0.154563 0)
(0.022804 0.0200267 0)
(0.0146567 -0.134699 0)
(0.0277226 -0.192638 0)
(0.0263747 -0.143877 0)
(0.0281168 -0.164799 0)
(0.0152855 -0.121524 0)
(0.00076424 -0.00601839 0)
(0.0102265 -0.178589 0)
(0.024677 -0.0613913 0)
(0.00666517 -0.065764 0)
(0.0254094 -0.0495796 0)
(0.000924063 -0.00724509 0)
(0.0227573 0.0535007 0)
(0.0155869 -0.165696 0)
(0.0205465 0.104837 0)
(0.0116243 -0.142572 0)
(0.00346783 -0.130763 0)
(0.0252843 -0.147596 0)
(0.02663 -0.0999497 0)
(0.0242473 -0.0391475 0)
(0.0255835 -0.0567647 0)
(0.024167 -0.0918945 0)
(0.010446 -0.0549138 0)
(0.0156018 -0.033117 0)
(0.0245295 -0.0387138 0)
(0.0208504 -0.0700759 0)
(0.0254056 -0.0637435 0)
(0.0217383 -0.0330625 0)
(0.0158767 -0.183062 0)
(0.0218431 0.0929763 0)
(0.00347758 -0.060138 0)
(0.0211324 0.127129 0)
(0.00163927 -0.0177638 0)
(0.0206435 0.111892 0)
(0.0273997 -0.131755 0)
(0.022324 0.077711 0)
(0.00701257 -0.181947 0)
(0.0281205 -0.166014 0)
(0.0262059 -0.170993 0)
(0.0272777 -0.145468 0)
(0.025318 -0.0460852 0)
(0.0167094 -0.0101192 0)
(0.025924 -0.0714747 0)
(0.0184512 -0.1758 0)
(0.0234945 -0.044216 0)
(0.0285039 -0.177556 0)
(0.0256196 -0.0602778 0)
(0.014554 -0.0275187 0)
(0.0254156 -0.0653487 0)
(0.0182629 -0.0167597 0)
(0.0214605 0.113247 0)
(0.0256569 -0.0597672 0)
(0.0183623 -0.117001 0)
(0.0142174 -0.190358 0)
(0.0240295 0.00707255 0)
(0.00126546 -0.0172739 0)
(0.00171558 -0.0232816 0)
(0.020742 0.0982657 0)
(0.0211607 0.125967 0)
(0.0217802 0.0981272 0)
(0.00727704 -0.155922 0)
(0.0246368 -0.0252289 0)
(0.0207659 -0.0329608 0)
(0.00384817 -0.13389 0)
(0.0217462 0.0968808 0)
(0.0245983 -0.0231695 0)
(0.0268866 -0.130361 0)
(0.0102153 -0.00198379 0)
(0.0219053 0.0790379 0)
(0.0217077 -0.182348 0)
(0.0205794 0.0959652 0)
(0.00727733 -0.165864 0)
(0.0186426 -0.147948 0)
(0.0262879 -0.145173 0)
(0.0104933 -0.177973 0)
(0.0217877 0.0847275 0)
(0.0234517 -0.00185902 0)
(0.0236094 -0.00797316 0)
(0.0267875 -0.173133 0)
(0.0282408 -0.182142 0)
(0.0248893 -0.0311202 0)
(0.0228421 0.0559771 0)
(0.0268906 -0.113172 0)
(0.0216531 0.0915502 0)
(0.0231261 0.0447694 0)
(0.0237855 -0.166204 0)
(0.0212814 0.117964 0)
(0.0237265 0.0127508 0)
(0.0173251 -0.0656739 0)
(0.0220766 0.0157233 0)
(0.0248911 -0.0316553 0)
(0.0228091 -0.130748 0)
(0.0114107 -0.100323 0)
(0.0112856 -0.0964274 0)
(0.0208284 0.10728 0)
(0.0218552 0.0972595 0)
(0.020578 0.0411754 0)
(0.0244596 -0.0103404 0)
(0.0106332 -0.0571787 0)
(0.0218239 0.0966166 0)
(0.0264954 -0.180819 0)
(0.0251345 -0.038171 0)
(0.0254873 -0.068851 0)
(0.0230205 -0.0803679 0)
(0.0216384 -0.0383576 0)
(0.0251617 -0.0392938 0)
(0.0268502 -0.128071 0)
(0.0236427 -0.165185 0)
(0.0226764 0.0600766 0)
(0.0202213 -0.086823 0)
(0.0280556 -0.167665 0)
(0.0207674 0.109595 0)
(0.0228349 0.0505287 0)
(0.023992 -0.0697123 0)
(0.0268609 -0.116254 0)
(0.00863541 -0.139232 0)
(0.00185967 -0.0205514 0)
(0.00705582 -0.171786 0)
(0.00414736 -0.135477 0)
(0.0218966 0.0953386 0)
(0.00121156 -0.00825777 0)
(0.0217034 0.0980872 0)
(0.0228571 0.0557671 0)
(0.0255431 -0.0704174 0)
(0.0257344 -0.0630345 0)
(0.0247522 -0.0223839 0)
(0.0228752 0.0494002 0)
(0.0272938 -0.14389 0)
(0.00790443 -0.18169 0)
(0.00142574 -0.065549 0)
(0.00773769 -0.146342 0)
(0.0109738 -0.0278789 0)
(0.0154354 -0.0343513 0)
(0.000886214 -0.00688701 0)
(0.0246656 -0.0416194 0)
(0.0253922 -0.0565326 0)
(0.0220425 -0.182801 0)
(0.0242852 -0.00441369 0)
(0.0197392 -0.136074 0)
(0.0227624 0.0597537 0)
(0.000200972 -0.00478161 0)
(0.0280662 -0.159492 0)
(0.0250322 -0.109983 0)
(0.000412312 -0.0100861 0)
(0.00221349 -0.087744 0)
(0.0223991 0.0746326 0)
(0.0229587 -0.0697127 0)
(0.022398 0.0733915 0)
(0.0252748 -0.044338 0)
(0.022638 0.0227365 0)
(0.0235735 0.00591733 0)
(0.0140119 0.011126 0)
(0.0235669 0.0264598 0)
(0.0180077 -0.161972 0)
(0.0214766 -0.031737 0)
(0.0218087 0.0945811 0)
(0.0017073 -0.0654071 0)
(0.0126495 -0.160416 0)
(0.0168255 -0.0312726 0)
(0.0211754 0.0670312 0)
(0.0220743 0.08823 0)
(0.0238038 -0.0912351 0)
(0.0239225 -0.0630948 0)
(0.0269458 -0.122566 0)
(0.0258316 -0.0670254 0)
(0.0108903 -0.181662 0)
(0.0197371 -0.164851 0)
(0.0216664 0.104711 0)
(0.0106061 -0.0267838 0)
(0.0216215 0.106594 0)
(0.00165999 -0.0137999 0)
(0.0209072 -0.0283706 0)
(0.0258954 -0.0714864 0)
(0.0222813 0.058083 0)
(0.0228547 0.0463556 0)
(0.0261155 -0.103186 0)
(0.024224 -0.0364348 0)
(0.0014229 -0.0422475 0)
(0.000206588 -0.00442797 0)
(0.0248317 -0.0478099 0)
(0.0201145 -0.0916875 0)
(0.00121983 -0.0369521 0)
(0.0202217 0.0530154 0)
(0.02715 -0.133743 0)
(0.00632363 -0.045227 0)
(0.0273037 -0.149427 0)
(0.0280424 -0.1694 0)
(0.0222178 0.0804172 0)
(0.0260582 -0.100893 0)
(0.0275726 -0.139306 0)
(0.0129142 -0.185527 0)
(0.00165548 -0.0682878 0)
(0.0264191 -0.106662 0)
(0.0106701 -0.0600955 0)
(0.0226534 -0.0445716 0)
(0.0228153 0.0570003 0)
(0.0212332 0.122441 0)
(0.0259635 -0.0730982 0)
(0.0216697 0.10446 0)
(0.0187711 -0.113435 0)
(0.0182579 -0.115563 0)
(0.0250098 -0.178927 0)
(0.0181313 -0.149042 0)
(0.0154114 -0.0748958 0)
(0.0284397 -0.179385 0)
(0.0231666 0.0380404 0)
(0.0223514 0.0767856 0)
(0.0205991 0.113975 0)
(0.0223457 0.0568563 0)
(0.00476797 -0.138672 0)
(0.0135231 -0.0554701 0)
(0.0277545 -0.153087 0)
(0.0237085 0.00728655 0)
(0.0210654 -0.0276115 0)
(0.000655206 -0.028017 0)
(0.0227354 0.050953 0)
(0.0258247 -0.0746091 0)
(0.0244955 -0.0118326 0)
(0.00837752 -0.15725 0)
(0.00382802 -0.0339145 0)
(0.0221005 0.0871523 0)
(0.00694646 -0.16523 0)
(0.0235699 -0.0405497 0)
(0.00948341 -0.0487846 0)
(0.0253171 -0.0457834 0)
(0.00124618 -0.00604617 0)
(0.0273329 -0.129002 0)
(0.00481456 -0.108903 0)
(0.0269003 -0.137055 0)
(0.0232915 -0.0106014 0)
(0.0246969 -0.180834 0)
(0.0240151 -0.0669576 0)
(0.0114091 -0.137762 0)
(0.0219422 -0.0524956 0)
(0.00481658 -0.0357432 0)
(0.0215907 0.102057 0)
(0.00893398 -0.164546 0)
(0.0213207 0.119345 0)
(0.0204162 -0.0829888 0)
(0.0233295 0.0353353 0)
(0.023279 0.0383764 0)
(0.0239408 -0.0758763 0)
(0.00379686 -0.0265801 0)
(0.0282656 -0.167609 0)
(0.021769 0.0995473 0)
(0.0228302 -0.0553794 0)
(0.022173 0.0616501 0)
(0.00742694 -0.145971 0)
(0.0215002 0.111938 0)
(0.0175364 -0.0661813 0)
(0.0249398 -0.0337864 0)
(0.00729767 -0.0936982 0)
(0.0050402 -0.0369975 0)
(0.0223756 0.0741127 0)
(0.0234085 -0.0301166 0)
(0.0061349 -0.0699005 0)
(0.0199993 0.0703605 0)
(0.0240689 0.00579014 0)
(0.0280737 -0.19129 0)
(0.0240649 0.00565761 0)
(0.0138082 -0.0720799 0)
(0.023096 0.0460099 0)
(0.0064141 -0.0996682 0)
(0.00601517 -0.0431254 0)
(0.00907015 -0.156868 0)
(0.00362029 0.00457291 0)
(0.00223594 -0.0334071 0)
(0.0243803 -0.00734013 0)
(0.0230071 0.0491672 0)
(0.0192676 -0.0504078 0)
(0.0011615 -0.00912651 0)
(0.0242218 -0.0524084 0)
(0.0148725 -0.0949818 0)
(0.0282566 -0.167381 0)
(0.0264068 -0.104775 0)
(0.0231218 0.0449451 0)
(0.0256643 -0.0601457 0)
(0.021966 -0.0554877 0)
(0.0218498 0.0823513 0)
(0.00732844 -0.0885626 0)
(0.0233165 -0.00688569 0)
(0.0262664 -0.180546 0)
(0.016476 -0.00805125 0)
(0.00163961 -0.0137406 0)
(0.0276414 -0.150392 0)
(0.0256283 -0.0585809 0)
(0.0235015 0.00782021 0)
(0.0268875 -0.110591 0)
(0.0226885 0.0360132 0)
(0.00339854 -0.0995812 0)
(0.0245234 -0.0661167 0)
(0.0221412 0.0636348 0)
(0.026422 -0.091358 0)
(0.0228474 -0.0113168 0)
(0.0222577 0.0780808 0)
(0.0237641 0.00583549 0)
(0.00255328 -0.0267382 0)
(0.0280317 -0.160244 0)
(0.0280173 -0.159159 0)
(0.0220171 0.0905871 0)
(0.0256239 -0.0601777 0)
(0.021146 0.12259 0)
(0.016729 -0.162632 0)
(0.0233865 -0.19002 0)
(0.00409412 -0.155159 0)
(0.023493 0.0277699 0)
(0.0226712 -0.129262 0)
(0.00239692 -0.0134034 0)
(0.0241834 0.000802053 0)
(0.0193542 -0.137961 0)
(0.00349299 -0.0244451 0)
(0.0167756 -0.127281 0)
(0.0191316 -0.137821 0)
(0.0253424 -0.0468183 0)
(0.0247857 -0.027331 0)
(0.0122508 -0.0774758 0)
(0.0245224 -0.0631263 0)
(0.0232526 0.039545 0)
(0.0205489 -0.120931 0)
(0.0269497 -0.113157 0)
(0.0116917 -0.167501 0)
(0.0226148 0.0455638 0)
(0.024686 -0.0197188 0)
(0.00630494 -0.062797 0)
(0.0215254 0.103271 0)
(0.0234477 -0.133219 0)
(0.0240557 -0.0763545 0)
(0.0281577 -0.191791 0)
(0.0195374 -0.135933 0)
(0.0263407 -0.0939349 0)
(0.020617 0.0971529 0)
(0.0240789 0.00535791 0)
(0.0179077 0.00542251 0)
(0.021594 0.108059 0)
(0.0234027 -0.0478371 0)
(0.0236017 0.0251408 0)
(0.0260121 -0.074424 0)
(0.0215916 0.108163 0)
(0.0224586 0.0292253 0)
(0.0106198 -0.140749 0)
(0.0187892 -0.115723 0)
(0.00123361 -0.0179085 0)
(0.0196027 0.0937562 0)
(0.0032214 -0.0896978 0)
(0.0237458 0.0191457 0)
(0.0222989 -0.153648 0)
(0.0152372 -0.177182 0)
(0.0104395 -0.181356 0)
(0.0167239 -0.161555 0)
(0.0135665 -0.0707085 0)
(0.0188157 0.070876 0)
(0.023045 -0.126605 0)
(0.0204583 -0.00941122 0)
(0.0223574 -0.141964 0)
(0.0251437 -0.0388009 0)
(0.0214765 0.106031 0)
(0.0230569 -0.0337264 0)
(0.0255635 -0.139373 0)
(0.0242172 -0.000627971 0)
(0.012393 -0.161632 0)
(0.0269116 -0.111695 0)
(0.0102702 -0.027576 0)
(0.0230663 -0.158738 0)
(0.00859427 -0.165269 0)
(0.0168621 -0.0960521 0)
(0.0250116 -0.152224 0)
(0.00792787 -0.0931832 0)
(0.0122027 -0.0756414 0)
(0.0131579 -0.187905 0)
(0.00547419 -0.143955 0)
(0.0271037 -0.132222 0)
(0.0206608 -0.070568 0)
(0.0257782 -0.0647745 0)
(0.0242435 -0.0030558 0)
(0.0240511 0.00230606 0)
(0.025523 -0.0587081 0)
(0.0185737 -0.0463234 0)
(0.0257642 -0.0642508 0)
(0.0239182 0.00599645 0)
(0.00248554 -0.0269095 0)
(0.0229884 -0.129546 0)
(0.0117867 -0.160536 0)
(0.0268873 -0.110724 0)
(0.0107401 -0.168423 0)
(0.0159296 -0.186853 0)
(0.02391 0.0110422 0)
(0.0281719 -0.163642 0)
(0.0264011 -0.136768 0)
(0.0189361 -0.0819706 0)
(0.0219517 0.0928474 0)
(0.0238759 0.0123006 0)
(0.0211914 0.121267 0)
(0.0233464 -0.134955 0)
(0.0106395 -0.0544669 0)
(0.0157399 -0.00155283 0)
(0.0242046 -0.0214731 0)
(0.00958805 -0.140504 0)
(0.0241931 0.000705653 0)
(0.0261872 -0.0930864 0)
(0.00309442 -0.0519862 0)
(0.0233989 0.0294488 0)
(0.0270434 -0.128378 0)
(0.0166355 -0.0314942 0)
(0.0251121 -0.0375316 0)
(0.0272967 -0.127502 0)
(0.0231012 0.0403142 0)
(0.020561 -0.0844687 0)
(0.0218723 0.0960681 0)
(0.0245826 -0.0387286 0)
(0.00783225 -0.0664795 0)
(0.0223514 0.0767877 0)
(0.0197651 -0.163624 0)
(0.0164647 -0.042552 0)
(0.0128471 -0.111166 0)
(0.0206672 0.0555556 0)
(0.019892 0.0888623 0)
(0.0228052 0.0579522 0)
(0.0273698 -0.130841 0)
(0.021177 0.0618419 0)
(0.0226393 0.0647618 0)
(0.0213763 0.0421265 0)
(0.00876757 -0.133149 0)
(0.0148673 -0.190881 0)
(0.0110122 -0.0957074 0)
(0.0274818 -0.141136 0)
(0.0162636 -0.00935084 0)
(0.00471047 -0.0359172 0)
(0.019447 -0.151368 0)
(0.0200568 -0.0883704 0)
(0.0230517 0.0477479 0)
(0.0215284 0.11077 0)
(0.0222104 0.076764 0)
(0.0245813 -0.0153235 0)
(0.0261944 -0.0825012 0)
(0.0142278 -0.179531 0)
(0.0125865 -0.136987 0)
(0.0206198 -0.0733876 0)
(0.0263881 -0.0955581 0)
(0.0159865 -0.00356068 0)
(0.0016196 -0.00294704 0)
(0.0251396 -0.110754 0)
(0.025935 -0.0729651 0)
(0.0209656 0.122659 0)
(0.00280688 -0.000620591 0)
(0.0247456 -0.135789 0)
(0.0239538 -0.0608368 0)
(0.0240123 0.000709991 0)
(0.027298 -0.127548 0)
(0.0142546 0.010013 0)
(0.0109449 0.00160084 0)
(0.0194553 0.020503 0)
(0.0264807 -0.0963796 0)
(0.0200424 0.0556592 0)
(0.0237866 0.0174316 0)
(0.0183976 -0.149398 0)
(0.00352393 -0.0314273 0)
(0.0165308 -0.0402284 0)
(0.0132283 -0.110178 0)
(0.020861 -0.142482 0)
(0.0229828 0.0449371 0)
(0.0214276 0.114393 0)
(0.0224237 0.0736497 0)
(0.00840257 -0.182085 0)
(0.00773844 -0.0935447 0)
(0.0280062 -0.166086 0)
(0.0187186 -0.0109614 0)
(0.024923 -0.0305721 0)
(0.0242249 -0.000607743 0)
(0.0148683 -0.18073 0)
(0.0266913 -0.102488 0)
(0.0218574 0.0969738 0)
(0.0275681 -0.138983 0)
(0.0209347 0.0824314 0)
(0.02272 -0.0080118 0)
(0.0231039 0.0456797 0)
(0.0231572 -0.0335646 0)
(0.0213205 -0.173191 0)
(0.0252557 -0.178403 0)
(0.0273279 -0.147755 0)
(0.0199113 -0.0985053 0)
(0.0282724 -0.190607 0)
(0.00870026 -0.134742 0)
(0.0226489 0.0637474 0)
(0.0264472 -0.0947159 0)
(0.0103305 -0.0294021 0)
(0.0159469 -0.165324 0)
(0.0251727 -0.151774 0)
(0.0266982 -0.110204 0)
(0.0230866 -0.0173622 0)
(0.00340676 -0.0286346 0)
(0.0212186 0.0236824 0)
(0.00760893 -0.170209 0)
(0.0207382 0.018801 0)
(0.0276444 -0.189286 0)
(0.00316406 -0.0713168 0)
(0.0218087 0.0980956 0)
(0.0220099 0.090886 0)
(0.00894071 -0.136208 0)
(0.0226434 -0.00868732 0)
(0.0200085 0.0856582 0)
(0.00693831 -0.0833429 0)
(0.0212037 0.123722 0)
(0.0218535 0.0973278 0)
(0.0256954 -0.061413 0)
(0.0213634 0.117543 0)
(0.00836915 -0.0899813 0)
(0.0214203 -0.135258 0)
(0.0229553 -0.11572 0)
(0.0101431 -0.156695 0)
(0.0220444 0.0831716 0)
(0.0230304 -0.0133252 0)
(0.000757839 -0.0269205 0)
(0.0219705 0.0592593 0)
(0.0102404 -0.177315 0)
(0.0232733 0.0378476 0)
(0.0232439 -0.00720802 0)
(0.0232734 0.0386885 0)
(0.00710587 -0.169745 0)
(0.0204374 -0.126668 0)
(0.0164405 -0.187731 0)
(0.0240147 -0.00505193 0)
(0.0243282 -0.0245494 0)
(0.0115654 -0.126878 0)
(0.0217941 0.0997855 0)
(0.0238322 0.0156167 0)
(0.0285004 -0.182301 0)
(0.0263385 -0.0879174 0)
(0.0226852 0.0623409 0)
(0.0226073 0.0661026 0)
(0.0235674 0.0265562 0)
(0.0110729 -0.126451 0)
(0.00787018 -0.124623 0)
(0.0179487 -0.0333841 0)
(0.0215783 0.100273 0)
(0.0206218 0.0797472 0)
(0.0244445 -0.0297368 0)
(0.027594 -0.139771 0)
(0.0177769 0.00401681 0)
(0.00686585 -0.016481 0)
(0.00503138 -0.126978 0)
(0.0209305 0.120635 0)
(0.0110289 -0.0205977 0)
(0.0218955 -0.0102491 0)
(0.019432 -0.148844 0)
(0.0219393 0.0921869 0)
(0.0138778 -0.16243 0)
(0.0105732 -0.0607992 0)
(0.00619283 -0.0942438 0)
(0.0144274 -0.123616 0)
(0.00124386 -0.00984366 0)
(0.019362 -0.178966 0)
(0.0220993 0.0808401 0)
(0.0214336 -0.172103 0)
(0.0238646 0.0137646 0)
(0.00746079 -0.118621 0)
(0.0134636 -0.110749 0)
(0.0236735 0.0221076 0)
(0.0232873 0.0380056 0)
(0.0219158 0.094764 0)
(0.0219623 0.0907544 0)
(0.0195825 -0.185673 0)
(0.0217325 0.100155 0)
(0.0101169 -0.0508469 0)
(0.0255319 -0.167429 0)
(0.0203405 -0.128643 0)
(0.00486618 -0.106593 0)
(0.0195969 0.0301993 0)
(0.0272712 -0.126462 0)
(0.0204534 -0.0307077 0)
(0.0239653 -0.00246542 0)
(0.0275049 -0.141179 0)
(0.0186144 -0.0185698 0)
(0.0166804 -0.0949096 0)
(0.0115322 -0.177502 0)
(0.0229434 0.0468132 0)
(0.000954316 -0.00984647 0)
(0.0219017 0.0936717 0)
(0.0177791 -0.0310823 0)
(0.0215701 0.0997126 0)
(0.00246757 -0.089777 0)
(0.019248 -0.0540953 0)
(0.0228192 -0.0514204 0)
(0.0242844 -0.186614 0)
(0.00883409 -0.151017 0)
(0.0224646 0.0689279 0)
(0.0271387 -0.121073 0)
(0.0209101 0.120051 0)
(0.0234153 0.032685 0)
(0.00810109 -0.139696 0)
(0.0264541 -0.092687 0)
(0.0234908 0.0276044 0)
(0.00716337 -0.109858 0)
(0.0265359 -0.0985313 0)
(0.00975138 -0.156404 0)
(0.0117304 -0.187395 0)
(0.0089693 -0.155402 0)
(0.016523 0.0292101 0)
(0.00801068 -0.0580021 0)
(0.00325686 -0.132251 0)
(0.0186242 -0.127002 0)
(0.00886752 -0.179942 0)
(0.0231859 0.0194611 0)