/*--------------------------------*- C++ -*----------------------------------*\
| =========                 |                                                 |
| \\      /  F ield         | OpenFOAM: The Open Source CFD Toolbox           |
|  \\    /   O peration     | Version:  v2012                                 |
|   \\  /    A nd           | Website:  www.openfoam.com                      |
|    \\/     M anipulation  |                                                 |
\*---------------------------------------------------------------------------*/
FoamFile
{
    version     2.0;
    format      ascii;
    class       volVectorField;
    location    "350";
    object      U;
}
// * * * * * * * * * * * * * * * * * * * * * * * * * * * * * * * * * * * * * //

dimensions      [0 1 -1 0 0 0 0];


internalField   nonuniform List<vector> 
13851
(
(1.26367 0.116492 -1.52807e-19)
(1.11673 -0.0230734 -1.79184e-20)
(1.11402 -0.0215867 0)
(-0.203293 -0.0238893 -3.51618e-20)
(1.00337 -0.00072989 -5.07912e-21)
(1.13377 -0.0452647 -6.7872e-20)
(1.08595 0.0395163 0)
(1.01998 -0.00103176 1.82837e-20)
(-0.0539199 0.0369072 -3.13862e-21)
(0.992715 -0.0228859 -9.39232e-21)
(1.24758 -0.142718 -8.72557e-20)
(1.00343 -0.0147151 0)
(0.985141 -0.0425299 -9.16823e-21)
(-0.241256 2.74629e-05 -4.16059e-20)
(1.17217 0.0411753 -4.22689e-20)
(1.14115 0.174391 -3.23178e-21)
(-0.349826 -0.0244715 0)
(1.05668 -0.0230615 -1.58495e-20)
(1.23114 0.0516785 7.42952e-20)
(1.26491 0.111782 1.02797e-19)
(1.19461 0.028499 4.68393e-20)
(1.07439 -0.124642 0)
(0.255118 -0.165856 -2.87274e-20)
(1.00013 -0.000359786 7.56533e-21)
(0.593608 -0.0185063 -2.6276e-20)
(1.13979 0.127907 -6.19034e-20)
(1.0118 0.179664 1.00649e-19)
(0.644036 0.077463 8.80045e-20)
(0.101023 0.058426 -2.85222e-20)
(1.03262 -0.0156899 6.44331e-21)
(-0.164646 -0.0336463 0)
(1.08664 0.0382534 -2.01844e-20)
(1.24805 0.125779 -1.24763e-20)
(-0.00853757 0.0410349 -8.91435e-20)
(1.20486 -0.116688 -4.54354e-20)
(0.140122 0.0639667 0)
(1.00007 -0.000323987 -7.01911e-21)
(0.641787 -0.10421 -1.45228e-19)
(-0.174746 -0.0162923 7.85017e-20)
(1.02087 -0.057863 1.90049e-21)
(-0.121265 0.0150489 -1.03994e-19)
(0.134137 0.0653812 2.85438e-20)
(-0.229326 -0.0163794 -1.48261e-19)
(1.1389 -0.574344 -2.88818e-20)
(0.137048 0.0687226 0)
(1.02684 -0.0330945 0)
(1.02529 0.000757519 0)
(1.16708 0.169389 6.3149e-20)
(1.07974 -0.076981 -1.60265e-20)
(0.984424 -0.041497 0)
(-0.385893 -0.0200523 -1.78661e-19)
(0.975768 -0.0376666 -1.51549e-20)
(1.14369 0.173043 0)
(1.1168 0.0663322 1.3226e-20)
(-0.184559 0.003758 7.25981e-22)
(1.01963 -0.0584123 2.23394e-21)
(1.25263 0.126443 -6.01527e-22)
(-0.142289 0.00995399 1.60939e-19)
(0.984689 0.185569 -3.97932e-20)
(-0.318365 -0.0076023 -4.37092e-20)
(1.00315 -0.0139664 -1.44268e-21)
(1.07887 0.186016 0)
(0.995828 -0.0133468 0)
(1.08071 -0.080098 0)
(0.898098 -0.534724 -2.48845e-21)
(0.877818 -0.55596 0)
(-0.339539 -0.0106882 -2.83273e-20)
(0.698176 -0.191908 -1.18248e-19)
(1.03992 -0.0563777 9.82948e-21)
(-0.186989 -0.0268492 0)
(-0.222465 -0.0284265 0)
(1.21415 0.0340775 -6.21272e-20)
(1.00146 -0.0458086 0)
(-0.326718 -0.00857086 -1.91696e-19)
(1.13234 0.0623242 0)
(1.04784 -0.103337 1.0298e-20)
(-0.331235 -0.0274894 -5.75736e-20)
(1.03194 -0.00648448 -4.74523e-21)
(0.668558 -0.0177592 0)
(1.01183 -0.0288245 7.88028e-21)
(1.04186 -0.0569636 0)
(1.39988 -0.150195 4.73013e-21)
(1.19931 -0.118756 0)
(-0.248591 -0.000474297 0)
(-0.308963 -0.00685567 1.67525e-19)
(-0.184462 -0.0316662 9.30121e-20)
(1.07893 -0.12607 -2.43846e-20)
(-0.0718109 0.00924579 0)
(0.994556 -0.0275721 0)
(-0.16119 -0.0324082 -1.1003e-19)
(0.974169 -0.0373263 1.10116e-20)
(1.08908 0.0383328 -3.42222e-20)
(-0.295549 -0.0187515 -1.35877e-19)
(-0.20449 -0.0305397 2.09359e-19)
(-0.226563 -0.0137085 -1.14468e-19)
(1.12562 -0.532619 -5.19072e-20)
(1.02057 -0.036797 -7.26561e-21)
(1.15604 0.174132 0)
(-0.377472 -0.0178958 -8.62377e-20)
(1.30174 -0.270136 1.09096e-19)
(1.1586 0.176225 7.3702e-21)
(0.817417 -0.177104 -3.20797e-20)
(0.820501 -0.212509 7.56108e-20)
(0.99736 -0.0496989 1.25164e-21)
(1.03189 -0.0317194 1.34621e-20)
(1.22009 0.00507145 0)
(1.03075 -0.0315397 5.70424e-21)
(-0.20776 -0.0299162 0)
(1.08964 0.0367918 5.41415e-20)
(1.0551 -0.0224423 2.4375e-20)
(1.06209 -0.175146 7.69897e-21)
(1.02807 -0.0334656 0)
(1.34883 -0.0402338 3.20016e-20)
(1.26044 -0.0650386 -1.19184e-19)
(1.22461 0.144865 -7.1341e-20)
(1.11574 0.0634399 5.42672e-20)
(1.02268 -0.0110163 2.03355e-20)
(1.02076 -0.00117097 -1.199e-20)
(-0.214304 -0.0226865 6.44059e-20)
(-0.162522 -0.0291693 0)
(1.16223 -0.451162 -1.15643e-19)
(1.04556 -0.0193222 -2.19722e-21)
(1.03346 -0.0582954 -5.22052e-21)
(-0.215607 0.00625877 -3.64219e-20)
(1.33481 0.0820671 -6.2278e-20)
(0.621214 -0.28074 0)
(1.02111 -0.0361461 7.10635e-21)
(1.19698 -0.205174 8.3734e-20)
(-0.113762 0.0232444 5.89871e-20)
(1.19536 0.0513953 7.7449e-21)
(1.07016 -0.12745 0)
(1.15925 -0.0871187 0)
(0.796803 -0.129975 1.29702e-19)
(-0.0198321 0.0392251 4.73058e-20)
(1.25432 -0.139466 1.10233e-19)
(-0.227518 -0.0135412 -3.97612e-20)
(0.710577 -0.183198 6.04801e-20)
(-0.196007 -0.0306416 1.73851e-22)
(0.854642 -0.143488 0)
(1.18703 0.058592 0)
(1.40004 -0.155942 -3.58893e-20)
(0.985093 -0.0741674 0)
(0.993833 -0.0281533 -2.91375e-21)
(0.756451 -0.3865 2.42703e-20)
(0.569801 0.00520129 1.07748e-19)
(1.03012 -0.102787 -8.22252e-21)
(1.03143 -0.00593258 2.31909e-21)
(-0.196904 -0.0309777 1.07575e-22)
(-0.0444381 0.0301778 -1.87822e-20)
(1.20349 -0.208532 -1.53322e-19)
(1.16235 0.175085 0)
(1.34536 -0.044482 -2.63407e-20)
(1.2667 -0.0644238 0)
(1.36522 0.0516706 0)
(0.977037 -0.0491368 1.55227e-20)
(0.985254 -0.0287318 0)
(1.00292 -0.0115056 1.26696e-22)
(-0.196394 -0.0180469 -1.91758e-19)
(1.18264 0.0516496 0)
(1.09528 0.0202764 0)
(1.00024 -0.00083469 -5.68048e-21)
(0.116646 0.0601628 2.55701e-20)
(1.21576 0.00682405 -1.97895e-21)
(1.17022 0.168168 -5.23216e-20)
(-0.23811 -0.00163044 -7.63954e-20)
(0.0249476 0.0524632 -7.55592e-20)
(0.0342968 0.0552494 5.07159e-20)
(-0.370042 -0.0191944 1.15012e-19)
(1.06256 -0.168929 6.24797e-21)
(0.207847 0.0349771 -5.94172e-20)
(1.00255 -0.0130479 -1.15992e-22)
(1.02247 -0.0104418 -8.19612e-21)
(1.24527 -0.00478495 1.07017e-20)
(1.00178 -0.000687718 4.87265e-21)
(-0.208523 -0.0109537 1.74842e-19)
(1.03015 0.16321 0)
(1.18375 0.176481 0)
(1.02327 -0.0102535 0)
(1.12817 0.0651751 0)
(1.18139 0.174324 7.46058e-21)
(1.34664 0.0835807 0)
(1.14745 -0.55451 0)
(1.06908 -0.159853 -3.58614e-20)
(1.19125 0.0521788 2.12896e-20)
(-0.257578 -0.0183559 0)
(-0.035793 0.0316287 9.54547e-22)
(1.24635 0.130991 -1.10174e-22)
(0.895623 -0.114529 0)
(0.982 -0.0485619 -1.10328e-20)
(1.03142 -0.0228089 -2.81774e-23)
(0.667431 0.00531323 -1.0696e-19)
(1.18393 0.0492053 2.47773e-20)
(-0.26213 -0.00473336 1.48524e-20)
(1.13606 -0.041815 -8.07016e-20)
(1.03195 -0.0998214 -2.70748e-21)
(1.14991 0.173778 -4.70104e-20)
(1.24177 0.129958 1.41058e-21)
(1.07091 -0.00667005 0)
(1.06766 -0.0345997 0)
(0.715467 -0.228529 0)
(1.39652 -0.171075 -8.79143e-21)
(-0.207896 -0.0053029 -7.51595e-20)
(-0.151832 0.0102536 0)
(1.16905 0.0429032 4.97228e-20)
(0.972345 -0.82995 4.53165e-20)
(-0.231147 -0.00641762 4.22023e-20)
(0.939779 -0.0570995 0)
(1.17199 0.0741368 -7.39319e-20)
(-0.0607419 0.0365971 0)
(1.12498 -0.0575493 2.61188e-21)
(1.13558 0.173726 0)
(1.03229 -0.0572354 0)
(1.3986 -0.165971 4.25714e-20)
(1.00029 -0.0039633 0)
(1.21089 -0.106547 4.33761e-21)
(1.05385 -0.11313 -2.34984e-20)
(0.985582 -0.0396742 -2.04888e-20)
(1.31151 0.128796 1.31372e-19)
(1.07202 -0.0208206 2.04367e-20)
(0.178785 -0.637398 -3.35786e-21)
(1.02321 -0.00964672 8.55581e-21)
(1.27143 0.105624 8.121e-20)
(-0.271375 -0.00325257 3.04683e-20)
(-0.219348 -0.0132303 -1.27619e-19)
(0.90947 -0.123274 2.6764e-20)
(1.17162 0.076428 6.12091e-20)
(1.00007 -0.0019983 0)
(0.759021 -0.363743 0)
(1.00569 -0.022901 5.1355e-22)
(1.20564 -0.108186 2.92558e-20)
(-0.108766 -0.0341735 -2.5717e-19)
(0.901843 -0.114711 -2.41023e-20)
(1.12462 -0.0542773 1.69833e-20)
(0.996248 -0.0102574 6.27511e-21)
(-0.16292 0.00919213 3.08771e-20)
(1.03357 -0.0152196 -5.86488e-21)
(0.645553 -0.363884 2.27482e-20)
(-0.163863 0.00729384 -8.17009e-20)
(1.29318 -0.263133 0)
(1.00017 -0.000799714 4.11226e-21)
(1.36533 -0.413742 7.46128e-21)
(-0.30416 -0.00799153 -1.6391e-19)
(0.165437 0.0745201 0)
(1.13812 0.172603 -5.77266e-21)
(1.17514 -0.00363041 0)
(0.718879 -0.420833 0)
(1.2899 0.124628 8.20084e-21)
(1.12699 0.0676671 7.58724e-21)
(1.12954 -0.513013 0)
(1.08668 -0.177225 4.17298e-20)
(-0.137062 0.00288457 0)
(1.30374 0.059452 0)
(1.01585 -0.00117632 -9.04639e-21)
(1.13327 -0.00643959 6.24851e-20)
(1.15303 0.176046 0)
(0.107014 0.0565566 0)
(0.0216523 0.0187202 0)
(1.03057 -0.0218354 1.42034e-20)
(0.596441 -0.276977 3.20051e-20)
(0.995693 -0.0281248 0)
(1.25478 0.149343 9.39163e-20)
(1.35203 0.0717583 1.798e-21)
(1.1364 -0.00524089 -3.18783e-20)
(1.217 0.0126988 1.43982e-19)
(1.30958 0.0579299 1.13714e-20)
(1.00758 -0.0411187 0)
(0.81331 -0.188035 -1.39297e-21)
(1.17268 0.15715 -4.02778e-20)
(0.738829 0.0945804 0)
(0.999494 -0.0181188 5.32074e-21)
(0.98513 -0.0385665 2.06008e-20)
(0.903457 -0.122435 -3.05892e-20)
(0.0133061 0.0517365 0)
(-0.249597 -0.0196804 -5.12897e-20)
(1.20213 0.037452 -4.26423e-20)
(1.04726 -0.0198661 1.09491e-20)
(1.3341 0.0904399 -1.3842e-19)
(1.36014 0.0621829 1.35531e-19)
(1.22687 0.131905 6.36711e-20)
(1.2136 0.0146414 -1.20679e-19)
(-0.0091495 0.0463178 1.08667e-20)
(-0.367966 -0.0154794 -6.98786e-21)
(1.14226 -0.0190801 -5.39604e-20)
(1.16188 0.0364718 -2.19979e-20)
(0.605452 -0.116631 6.62691e-20)
(1.03457 -0.0299304 1.47992e-20)
(1.00302 -0.0107994 -1.57699e-21)
(1.23179 0.132374 -7.17539e-20)
(1.22425 -0.161407 -4.51851e-20)
(1.03559 -0.0151497 1.43899e-20)
(1.00032 -0.00384719 0)
(1.00557 -0.0236374 -6.28278e-22)
(1.00687 -0.00099601 6.65783e-21)
(1.17024 0.0120783 1.12291e-19)
(1.00321 -0.0115589 -1.27338e-21)
(-0.0446873 0.0390577 0)
(1.19847 0.0308915 -2.91173e-20)
(1.02563 -0.0482365 0)
(0.116845 0.0574188 0)
(-0.227207 0.0047125 1.1294e-19)
(0.978409 -0.0431882 2.03386e-20)
(1.27076 0.110466 -3.77622e-20)
(-0.384847 -0.0188932 -7.59155e-21)
(0.984245 -0.0772418 0)
(0.976749 -0.0430136 0)
(1.20316 0.029554 5.72124e-20)
(-0.270727 -0.00471276 0)
(-0.0210967 -0.0305357 -2.07681e-19)
(1.2514 0.0166943 -4.91875e-20)
(1.00373 -0.000954536 5.48343e-21)
(0.234262 0.0386096 0)
(1.00284 -0.0138059 3.36824e-22)
(1.26128 0.0142413 2.11764e-22)
(-0.367609 -0.0178289 0)
(0.754442 0.0985728 1.43003e-19)
(1.09321 0.0193211 0)
(0.725033 -0.14748 -1.33554e-19)
(1.10549 -0.190989 0)
(-0.196157 -0.02966 0)
(1.34499 -0.0566058 0)
(0.785163 -0.156925 0)
(-0.197165 -0.0128801 -4.05989e-20)
(-0.181651 0.012804 -6.23856e-20)
(0.675084 0.0770944 4.8296e-20)
(1.06988 -0.0355805 0)
(-0.288847 -0.0258837 1.27229e-19)
(-0.0941232 -0.000561599 -4.92663e-20)
(0.473837 -0.540558 1.00114e-19)
(0.507843 -0.5454 -8.796e-20)
(0.938637 -0.0586143 0)
(1.25333 0.00230028 -2.29075e-20)
(0.965524 -0.165138 9.02512e-21)
(-0.0620305 0.0111224 2.64527e-20)
(0.793908 -0.206771 7.28764e-20)
(1.01273 -0.00284483 0)
(1.02553 0.000770282 -1.42443e-20)
(1.1165 -0.109458 6.59896e-20)
(-0.213331 -0.0307731 -4.8927e-20)
(0.230255 -0.641325 -3.99653e-20)
(1.03437 -0.0287004 0)
(-0.231883 -0.0136942 1.19414e-19)
(0.952973 -0.163295 0)
(1.16022 -0.0914818 -1.91446e-20)
(1.09549 0.0220161 0)
(-0.283496 -0.00643534 -1.26526e-20)
(1.34026 0.0927221 1.24182e-19)
(1.14679 0.17531 5.30127e-20)
(1.05049 -0.110415 2.77647e-21)
(1.12048 -0.0531455 -3.47072e-20)
(0.200551 0.0697886 0)
(0.982281 -0.0504713 1.49456e-20)
(1.347 0.0583704 0)
(1.13981 -0.0171326 6.32225e-20)
(1.20498 0.0268736 6.02993e-20)
(0.946809 -0.166151 0)
(0.995028 -0.0285143 0)
(1.02656 -0.0473307 0)
(1.33953 -0.13889 0)
(1.3117 -0.266293 -5.76305e-20)
(1.29958 0.0679342 0)
(0.911414 -0.154116 -2.42987e-19)
(0.208019 0.0725717 0)
(1.03209 -0.104502 1.56473e-20)
(-0.176325 0.00691272 0)
(1.28083 0.153952 6.73919e-21)
(1.04163 -0.00778786 1.59249e-20)
(0.716092 0.0990671 -1.51904e-19)
(1.25119 0.0842199 0)
(-0.36184 -0.0163993 1.02704e-19)
(1.1135 -0.106031 -3.50283e-20)
(1.12662 0.135681 1.82021e-21)
(1.04871 0.189874 0)
(0.688923 -0.0688177 -1.32124e-19)
(1.33195 -0.151125 4.90249e-20)
(-0.0754901 0.0122057 0)
(1.07729 -0.0513344 -4.60759e-20)
(0.977587 0.156876 0)
(-0.327672 -0.0224116 2.67097e-19)
(1.1659 -0.0240384 0)
(-0.117547 0.00859122 0)
(1.17759 -0.0275918 7.94162e-20)
(-0.142277 0.00761525 1.57481e-19)
(1.16017 0.0342532 -3.81919e-20)
(1.11702 0.0936961 -4.52068e-20)
(1.31147 0.0470401 -1.7859e-19)
(1.34472 -0.243405 -8.76027e-20)
(0.985698 -0.0297289 0)
(1.13795 -0.0279705 0)
(1.22953 -0.165768 1.26647e-21)
(1.13134 0.0649732 0)
(1.02511 -0.0366743 0)
(1.2022 0.0413612 7.22435e-20)
(0.176555 0.0659411 0)
(1.00231 -0.0454836 3.80072e-21)
(1.17497 0.0714054 1.4639e-20)
(-0.220535 -0.02349 -3.61041e-19)
(1.10936 -0.0497774 0)
(1.20158 -0.533648 -1.35378e-19)
(1.14125 0.0925972 -9.37405e-20)
(0.00642652 -0.0300121 2.13392e-19)
(1.12889 -0.0596275 1.96077e-20)
(1.13866 0.124845 -2.63956e-20)
(0.93801 -0.796459 -3.10211e-20)
(1.33322 0.0764801 4.7521e-20)
(1.2198 -0.00443447 1.25805e-19)
(0.0025988 0.0127639 0)
(-0.324051 -0.00954548 1.80386e-19)
(1.37286 -0.432893 0)
(1.00665 -0.0414399 -1.15582e-22)
(1.33606 -0.133698 -1.65621e-21)
(1.17923 -0.0387501 0)
(1.12936 0.133606 0)
(1.04388 -0.022344 1.95208e-20)
(-0.241605 -0.0160809 -1.44543e-19)
(0.135574 0.053572 0)
(0.642669 -0.043582 -3.07087e-20)
(1.11973 -0.0500957 3.3164e-20)
(1.31297 0.0512049 1.9358e-19)
(1.08096 0.179228 5.11935e-20)
(-0.240049 -0.0208277 3.02726e-20)
(1.03443 -0.000878257 0)
(-0.316221 -0.0230509 0)
(1.36685 -0.230478 0)
(0.109334 -0.099352 3.351e-19)
(1.09238 -0.180791 -2.648e-20)
(0.618614 0.0482747 -1.74117e-19)
(0.991551 -0.0363174 3.83108e-21)
(1.00208 -0.000588938 2.66656e-21)
(-0.195571 0.00029161 3.0509e-20)
(1.07574 0.1768 5.6679e-20)
(0.992123 -0.0239469 0)
(1.11665 -0.0255818 4.45542e-20)
(1.17878 0.0717188 -1.59836e-20)
(1.02034 -0.0122271 7.66012e-21)
(0.18755 0.0591248 0)
(1.25455 0.00698925 -2.66433e-20)
(1.25069 0.0810354 0)
(1.12195 0.0195768 3.92635e-20)
(1.07812 -0.0494727 3.22469e-20)
(0.972817 -0.0315931 0)
(0.760199 -0.080138 1.2678e-19)
(1.02381 -0.0473831 -2.30743e-21)
(0.973627 -0.0300783 -1.70071e-20)
(0.518008 0.129723 -1.99988e-20)
(0.201293 0.0664132 1.16579e-20)
(1.06576 -0.124372 -9.68854e-21)
(1.12894 0.195296 3.16434e-20)
(0.995912 -0.012502 -7.71326e-21)
(1.00328 -0.0108482 3.04665e-21)
(1.11307 -0.0509906 1.35564e-20)
(1.30405 0.0667983 0)
(1.13289 0.0957487 -5.83942e-21)
(1.02543 -0.0388987 3.34851e-21)
(1.09129 -0.0366368 -4.4552e-21)
(1.16433 -0.439293 5.17142e-20)
(1.10215 -0.0143253 1.8322e-20)
(0.0300631 -0.0364636 -4.70466e-20)
(1.0035 -0.0136092 1.61104e-21)
(1.11939 0.042149 0)
(0.139864 0.070316 0)
(0.959448 -0.216161 0)
(1.02581 -0.000255098 1.10482e-20)
(1.00183 -0.0124949 1.51524e-22)
(1.12141 0.0176126 -4.31093e-20)
(1.0753 -0.0041311 0)
(1.33517 -0.482515 1.05349e-19)
(0.439262 0.119383 6.55833e-20)
(1.17712 -0.000761332 0)
(0.352418 -1.23108 -1.45927e-20)
(1.11564 -0.0486258 -4.24287e-20)
(1.00299 -0.0194294 -9.06454e-23)
(-0.0887075 0.0299685 8.8363e-20)
(1.06785 0.19143 1.05487e-20)
(0.889118 -0.178237 0)
(1.00499 -0.0501881 -2.65996e-21)
(-0.192187 0.0112354 6.6428e-20)
(0.86518 -0.148459 0)
(1.09684 -0.673572 9.11936e-20)
(0.996309 -0.0487898 0)
(1.16373 -0.0792395 1.05034e-21)
(1.33827 -0.147817 2.64605e-20)
(1.14521 0.0612555 -5.83275e-20)
(-0.155195 0.0173883 0)
(1.05082 0.178882 -7.1894e-21)
(0.714356 -0.0531632 2.73051e-20)
(0.992403 -0.105683 3.77258e-21)
(1.34853 -0.0521078 0)
(1.00943 -0.0424653 -4.3813e-22)
(0.0923934 0.0558504 -3.08196e-20)
(1.14272 0.0908304 8.67989e-20)
(1.23933 0.131957 1.02656e-19)
(1.1769 -0.0355463 -1.74543e-20)
(1.05071 -0.106156 8.59728e-21)
(0.966815 -0.212597 0)
(1.24701 0.000982796 -6.79146e-20)
(1.00301 -0.000880484 5.89305e-21)
(-0.269642 -0.0211089 -1.49617e-19)
(-0.110944 0.0258286 -9.6053e-20)
(0.0502345 -0.0372477 7.79446e-20)
(-0.184143 -0.0151813 4.8476e-21)
(0.457041 0.122188 -6.05155e-20)
(-0.322453 -0.0213392 0)
(1.34025 0.0679793 -1.40712e-19)
(0.922239 -0.125855 -1.97868e-20)
(0.999955 -0.00673553 0)
(1.03099 -0.467156 9.07534e-20)
(0.992518 -0.0220242 1.47176e-20)
(1.02444 -0.0357686 2.49256e-21)
(0.917644 -0.145338 0)
(-0.196624 -0.00933781 -1.08255e-19)
(1.11174 -0.0118793 -6.58128e-21)
(0.978966 -0.0695438 0)
(1.12122 -0.358443 -4.62256e-20)
(1.22643 -0.0427243 5.41945e-21)
(0.989315 -0.0181527 -1.49156e-20)
(0.191427 -0.00630236 6.55891e-20)
(1.01847 -0.03573 0)
(-0.0811698 0.0292208 0)
(1.34115 -0.469706 0)
(1.01263 -0.0295864 4.29479e-21)
(1.10115 0.00240639 0)
(1.38361 -0.200608 2.40896e-19)
(0.701862 0.0949339 0)
(1.03476 -0.0157617 0)
(0.449079 -0.0701881 0)
(0.756745 -0.327444 0)
(1.04537 0.00238539 5.25154e-21)
(-0.191297 -0.0233996 -1.72583e-19)
(1.2816 0.0535612 0)
(1.27714 0.0988622 0)
(0.990289 -0.10374 6.96554e-21)
(0.535449 0.132442 0)
(-0.338645 -0.0121468 -1.9046e-19)
(1.04661 0.00225394 0)
(1.37542 -0.0286021 1.68041e-19)
(1.03657 -0.0572906 -8.18132e-21)
(1.01933 -0.0364332 -3.24549e-21)
(0.64379 0.146231 -1.8616e-20)
(-0.138986 0.00833545 -1.95483e-22)
(1.19942 -0.0383042 -1.16316e-20)
(1.13018 0.0949828 0)
(0.991549 -0.0209406 0)
(1.15254 0.110371 0)
(-0.0914613 0.0268265 0)
(-0.20445 -0.0157586 0)
(1.05309 -0.00190105 0)
(-0.345431 -0.0219891 3.39176e-23)
(1.02467 -0.0380875 -2.77856e-21)
(1.03853 -0.0580459 -1.63008e-20)
(1.22196 -0.00106609 -1.34484e-19)
(1.11109 0.0503983 1.47745e-21)
(1.03458 -0.000318881 1.39815e-20)
(1.04409 -0.10378 -1.3019e-20)
(-0.184623 -0.0232082 1.78611e-19)
(1.33894 -0.239352 4.87069e-22)
(-0.202887 -0.0232752 2.39591e-19)
(1.10817 -0.0129808 1.24078e-20)
(0.996155 -0.0289331 -4.51726e-21)
(0.034041 0.0541729 0)
(0.999971 -0.00908101 -2.6504e-21)
(1.34008 -0.120428 0)
(1.12785 0.0317749 0)
(1.13656 0.058937 -6.53784e-20)
(1.17634 -0.0113903 -7.30357e-20)
(0.237333 0.0879303 -2.85498e-20)
(-0.352766 -0.0140851 0)
(1.13459 -0.0349694 -5.35208e-21)
(-0.307906 -0.0235369 0)
(1.09181 0.015215 0)
(1.25975 -0.0219675 -6.60796e-21)
(0.140523 0.067586 4.89158e-22)
(-0.159692 0.0104813 5.52303e-20)
(1.02828 -0.0595624 0)
(1.00846 -0.042637 0)
(0.828645 -0.221227 -5.92411e-20)
(-0.199416 -0.0224941 -1.94762e-19)
(1.15228 0.198309 0)
(1.14969 0.10939 -3.70085e-21)
(0.920783 -0.544143 -1.12607e-20)
(1.11058 0.0519317 0)
(1.1562 0.0354305 4.20852e-20)
(-0.0658401 -0.0371375 2.07034e-19)
(0.161889 -0.0101777 0)
(1.13428 -0.426211 0)
(-0.0930192 0.0276557 -6.07323e-20)
(1.22358 0.167797 0)
(0.204725 0.0753086 -2.67244e-20)
(1.07076 -0.0500465 -9.67941e-23)
(0.960037 0.184686 0)
(0.720868 0.0509203 0)
(1.00206 -0.0173702 1.23418e-21)
(-0.420444 -0.0232625 -1.36367e-19)
(0.0446829 0.00466717 0)
(1.069 -0.166552 7.40254e-21)
(1.19067 0.0570022 0)
(1.01463 -0.0554462 1.56288e-21)
(0.473796 -0.938835 1.16212e-20)
(1.21272 -0.251353 1.19331e-19)
(0.253362 -0.114045 0)
(1.0231 -0.0483012 2.73288e-21)
(1.00125 -0.000815186 1.12459e-21)
(0.915705 -0.0905726 0)
(1.22367 -0.0468089 3.92035e-20)
(1.00348 -0.0130488 0)
(-0.215722 -0.0106167 1.23434e-19)
(1.00146 -0.000969103 0)
(1.22195 0.165364 0)
(0.984078 -0.102847 7.79746e-21)
(1.13188 0.135288 -4.84989e-22)
(0.998369 -0.0487858 -2.84014e-21)
(0.988599 -0.0186514 0)
(1.14855 -0.214383 -4.9873e-20)
(-0.345165 -0.0236574 -1.47884e-19)
(1.22133 -0.0135851 -1.43979e-19)
(-0.238693 -0.0137818 8.95146e-20)
(1.16408 -0.083862 0)
(1.02084 -0.0137289 -2.1915e-23)
(1.04698 -0.0108363 2.1663e-20)
(1.24919 -0.00848035 7.42291e-22)
(1.08964 -0.0383685 2.55197e-20)
(1.30808 -0.0494962 1.05476e-20)
(1.11918 -0.0147314 0)
(0.888358 -0.169725 0)
(0.995789 0.185772 -4.85123e-21)
(0.999816 -0.00893875 -2.63127e-21)
(0.0331531 0.0157836 3.62396e-20)
(1.00016 -0.00269778 0)
(1.13003 0.152826 -7.44436e-20)
(-0.294751 -0.0229418 0)
(0.0904597 0.0629124 0)
(0.883566 -0.0746829 3.59384e-20)
(0.424866 -0.178613 0)
(1.108 -0.357119 3.54747e-20)
(1.30019 -0.32617 6.20077e-20)
(0.0277365 0.00403618 0)
(1.05731 -0.00292582 0)
(0.138063 -0.00970814 8.17226e-20)
(0.959625 -0.168329 0)
(1.17036 -0.0241394 1.14223e-19)
(-0.177454 -0.0174946 0)
(0.825927 0.000916223 0)
(1.04251 -0.00841167 1.17285e-20)
(1.30375 -0.0526437 4.84493e-20)
(1.06954 -0.005533 1.1457e-20)
(0.172847 0.0679283 0)
(-0.381642 -0.0227559 0)
(1.046 -0.0589433 1.63982e-20)
(0.6968 -0.217687 7.91725e-20)
(0.175367 0.0514664 5.30569e-20)
(1.00004 -0.00252521 7.50543e-22)
(1.00006 -0.00336668 4.80961e-22)
(1.13781 0.129711 5.84303e-20)
(0.0172512 0.0122791 -6.65069e-20)
(0.624096 0.145965 -5.14556e-20)
(0.976614 -0.0413678 3.26072e-21)
(1.3156 0.0371154 -5.09549e-20)
(1.09919 -0.0145325 -3.82358e-20)
(0.987688 -0.0205454 -1.55163e-20)
(0.975391 0.183766 -8.63641e-20)
(1.3168 0.0419071 1.0113e-19)
(1.30733 -0.248334 5.11834e-20)
(1.03222 -0.000621203 -1.63947e-20)
(1.17589 0.155615 5.03958e-20)
(0.926738 -0.271561 -3.04765e-20)
(1.13485 0.119671 0)
(0.960082 -0.0494673 1.58841e-20)
(1.02979 -0.0966114 -2.74845e-21)
(1.20309 -0.250376 -1.56698e-19)
(0.920205 -0.0909504 1.11067e-20)
(1.17024 0.163266 0)
(1.20996 0.036417 1.24667e-19)
(1.21429 0.0296532 0)
(1.12119 -0.410858 -1.30712e-20)
(1.21091 -0.78165 -2.61428e-20)
(1.27541 0.0460868 -1.24855e-19)
(0.269446 0.0907547 6.17507e-20)
(0.530106 -0.0715413 9.26799e-20)
(1.16311 0.17275 -4.35119e-20)
(-0.208974 0.00579532 -6.34889e-20)
(1.05987 -0.232396 0)
(0.601396 0.139251 -2.3074e-21)
(1.27665 0.103985 0)
(1.0517 -0.0255536 -1.50339e-20)
(1.15397 0.0331474 0)
(1.35289 0.0376121 -6.9725e-20)
(1.09908 -0.117906 3.66646e-20)
(1.01166 -0.0277612 -2.93635e-21)
(1.01203 -0.0261379 0)
(1.13558 0.152645 -3.91861e-20)
(-0.0813195 0.0090659 0)
(1.12223 0.0421883 0)
(-0.186318 0.00436294 -3.77951e-22)
(1.02067 -0.014321 -9.0831e-21)
(0.579773 0.140084 4.13528e-20)
(1.03512 -0.456468 -1.84859e-20)
(-0.388251 -0.0192887 2.33536e-19)
(1.30279 -0.0612259 -4.98562e-20)
(1.13243 -0.0586045 -3.93562e-20)
(1.11486 -0.0187335 0)
(-0.375067 -0.0179287 -2.09475e-19)
(1.31119 -0.242117 0)
(1.06019 -0.224053 0)
(1.04319 0.17668 -1.23853e-19)
(1.07585 -0.0466092 -2.78223e-20)
(1.09164 -0.4407 0)
(1.13302 0.154027 4.31948e-20)
(1.22726 0.16369 -8.96368e-20)
(1.17376 -0.054415 -9.32181e-20)
(1.39039 -0.219443 2.43473e-19)
(0.992442 -0.0365251 4.08984e-21)
(1.00019 -0.00319123 2.27375e-22)
(0.943175 -0.0557793 2.9035e-20)
(0.987266 -0.0217995 2.36745e-20)
(0.120107 0.0639994 -3.11208e-20)
(1.00647 -0.00121587 -4.06974e-21)
(1.01504 0.190478 9.11206e-20)
(0.00656378 0.0495217 0)
(1.30714 -0.0641781 4.43699e-20)
(-0.196974 -0.0141729 1.66683e-19)
(-0.366722 -0.0169522 1.3798e-19)
(1.23055 0.164595 1.19492e-19)
(1.31327 -0.323166 -1.46048e-19)
(0.887308 -0.0818093 0)
(0.998555 -0.00618473 -2.53256e-21)
(0.986279 -0.0370631 -5.14844e-21)
(1.03049 -0.00700509 9.97162e-21)
(1.04591 -0.0111354 -2.07186e-20)
(1.00172 -0.000898576 0)
(1.25907 -0.0110679 0)
(1.34256 -0.0290344 -1.0736e-19)
(0.92378 -0.28461 2.5674e-20)
(0.701642 0.0824059 8.77667e-20)
(1.04983 -0.0888554 1.52107e-20)
(-0.0664188 0.0347381 0)
(0.999931 -0.000508261 0)
(-0.18225 -0.0255736 3.55857e-20)
(1.18792 -0.125358 6.19439e-20)
(0.999822 -0.0010597 1.65496e-21)
(0.997026 -0.00959987 -1.34865e-20)
(0.0711405 0.0601148 8.59682e-21)
(1.13528 -0.0480248 8.26732e-20)
(0.57608 0.135333 0)
(0.0544682 0.00476305 0)
(1.18361 0.0568307 0)
(1.23349 0.0605418 -1.58922e-20)
(1.0442 0.00361686 -9.94755e-21)
(-0.0344281 0.0363185 4.84307e-20)
(1.00482 -0.117561 9.71172e-22)
(1.11373 -0.013857 -1.4819e-20)
(0.973038 0.183968 1.06548e-20)
(0.998659 -0.00663906 -5.33107e-21)
(0.983325 -0.0722743 0)
(1.05484 -0.0109898 0)
(1.14787 0.088088 0)
(-0.110686 0.00837019 -8.67956e-20)
(1.15058 -0.0781086 1.42124e-20)
(1.17585 -0.0460952 3.75148e-20)
(1.37419 -0.240517 0)
(-0.224287 -0.0166585 -7.12122e-23)
(0.892337 -0.105361 0)
(1.01073 -0.146374 0)
(0.177916 0.0732893 7.66699e-20)
(1.02977 -0.00678974 1.32744e-21)
(0.17033 0.0709103 -2.49104e-20)
(1.00069 -0.00207083 4.29138e-21)
(1.10285 -0.0115066 2.12252e-20)
(0.684038 -0.0134109 2.09883e-19)
(1.18998 0.122199 -1.02125e-19)
(1.22691 0.141042 -9.19565e-21)
(1.28812 -0.144706 -1.1037e-20)
(1.22346 -0.00958356 8.05896e-20)
(0.999573 -0.00445548 9.32831e-21)
(0.999965 -0.000476665 5.69887e-21)
(1.26601 -0.0213445 7.1457e-21)
(1.07305 -0.0496277 2.76511e-20)
(0.999643 -0.00381246 -5.52822e-21)
(1.11871 0.0499403 -5.26238e-21)
(1.34679 -0.284216 0)
(1.00803 -0.0087931 9.29741e-21)
(1.28448 -0.341208 0)
(1.25076 -0.53368 1.08479e-19)
(0.655269 0.145296 5.20376e-20)
(1.28718 -0.138225 0)
(-0.128279 -0.0358468 -1.54219e-19)
(0.845227 -0.14763 0)
(0.998426 -0.00680958 3.0308e-21)
(1.32712 -0.165519 1.46222e-19)
(1.01996 -0.0151382 1.6309e-20)
(1.139 -0.0246642 4.78694e-20)
(0.311017 0.0984308 -8.8018e-20)
(0.223197 0.07296 -4.29925e-20)
(0.131311 -0.00935884 0)
(0.214299 0.081136 -2.20282e-20)
(1.0514 -0.0587899 1.77493e-20)
(1.04565 -0.057799 0)
(1.01061 -0.351451 -3.74671e-21)
(1.02473 -0.0937781 3.4219e-21)
(1.03692 -0.0257037 -5.13666e-22)
(0.325176 -0.207883 2.99534e-20)
(1.25495 0.154201 -9.9202e-20)
(-0.131955 0.00877832 -3.3435e-20)
(1.12792 0.154179 8.32119e-20)
(1.19364 0.123091 1.00548e-19)
(0.986196 -0.0245656 6.7558e-21)
(1.03248 -0.0164341 0)
(1.0363 -0.306867 0)
(1.25361 0.0764411 9.88152e-20)
(1.10633 -0.0108717 0)
(0.999773 -0.0024141 -4.14325e-21)
(1.22037 0.145184 4.48589e-20)
(1.35486 -0.0755102 -1.30829e-19)
(-0.176779 0.00464139 3.57037e-20)
(0.976752 -0.0468116 -1.55154e-20)
(1.00173 -0.0057723 -6.76913e-21)
(-0.128594 0.00529171 6.35555e-20)
(0.960827 -0.0476558 0)
(1.17701 -0.0196515 -8.92149e-20)
(1.01968 -0.0115723 -1.95367e-20)
(-0.187439 -0.00835649 -1.44378e-19)
(1.01518 -0.000708539 5.43115e-21)
(-0.29206 -0.0267184 0)
(0.995911 -0.0177055 1.93908e-21)
(1.2826 -0.266633 1.03542e-19)
(1.18929 0.0172872 1.20951e-20)
(0.98426 -0.355707 4.97447e-21)
(1.1771 -0.0517661 4.3268e-20)
(1.00043 -0.0447531 2.01478e-21)
(1.11643 -0.0301923 1.8006e-20)
(1.00567 -0.00642078 0)
(1.03418 0.191607 -3.76289e-20)
(0.966059 -0.0568988 -2.38211e-20)
(0.0391135 0.0246873 3.0403e-20)
(1.079 -0.0448511 1.85151e-20)
(0.547644 0.110237 -3.50428e-20)
(-0.0572911 0.0366215 0)
(1.16664 -0.0614558 0)
(1.00651 -0.00452641 4.67649e-21)
(-0.200921 -0.0263001 6.64248e-20)
(0.429042 0.118333 7.82392e-20)
(1.13849 -0.0346632 1.1673e-20)
(1.18629 0.124021 -1.74095e-20)
(0.986005 -0.0360044 -2.66787e-21)
(-0.0296893 0.0110654 -1.35652e-21)
(1.0532 -0.0263442 1.58527e-20)
(1.36066 0.0327848 -4.12402e-20)
(1.00164 -0.0193273 0)
(1.00614 -0.00667103 -4.08844e-21)
(0.631499 0.14546 0)
(1.17795 -0.00825336 8.37301e-20)
(1.00206 -0.0133397 -8.44219e-23)
(1.11937 0.0669934 -1.69842e-20)
(-0.150143 0.0133814 0)
(0.733379 -0.893683 0)
(0.140568 0.0469145 -2.79882e-20)
(1.02933 -0.0220463 -6.62008e-23)
(-0.192934 0.00919972 6.46026e-20)
(0.999457 -0.019062 1.94578e-21)
(1.00767 -0.00831371 -1.09048e-20)
(0.97883 -0.0497756 1.52336e-20)
(1.02557 0.000806061 -9.72557e-21)
(1.00002 -0.00486442 0)
(0.0985055 0.0350385 -2.95032e-20)
(0.271413 0.0895977 -7.87489e-20)
(1.07312 -0.0223509 -1.33829e-20)
(1.00152 -0.00133037 1.22209e-21)
(1.20209 -0.0336479 0)
(1.02878 -0.0332189 -6.02876e-22)
(-0.179022 -0.0292706 -1.74893e-19)
(1.33361 -0.161632 -1.68455e-19)
(-0.227668 0.00165975 4.58362e-20)
(-0.187165 -0.0131006 0)
(1.11584 -0.0320309 5.79935e-20)
(1.1731 0.161787 2.96716e-20)
(1.0023 -0.01824 0)
(1.19444 0.0236286 4.01162e-22)
(1.02919 -0.436619 3.14566e-20)
(1.056 -0.00213997 9.41001e-21)
(1.00059 -0.00204333 -2.38008e-21)
(1.33083 -0.382931 0)
(-0.374339 -0.0219104 0)
(1.22928 0.0617667 0)
(-0.35344 -0.0250871 0)
(1.19894 0.0872013 -8.40086e-20)
(0.99623 -0.0133641 3.91024e-21)
(1.20593 -0.0531906 -7.40658e-21)
(1.18503 0.12626 0)
(-0.367623 -0.0228467 -1.10258e-19)
(1.16632 0.0101446 0)
(0.809897 0.164828 0)
(1.2584 0.076193 -1.97011e-19)
(1.00049 -0.00427054 -3.44915e-22)
(0.0953439 -0.0671892 -5.79836e-20)
(0.037098 -0.0481913 -6.32646e-20)
(-0.0790789 0.0153772 -2.37592e-20)
(0.720078 0.00227317 1.15713e-19)
(0.666031 0.147391 4.11779e-20)
(0.995905 -0.106109 0)
(0.741248 -0.435071 1.42284e-20)
(0.972538 -0.0285185 4.43294e-21)
(0.864121 0.131916 -1.22599e-21)
(1.09738 -0.113454 3.38112e-20)
(1.01245 -0.00228245 4.76954e-21)
(0.105907 0.0408332 0)
(1.04463 -0.0882439 0)
(1.00636 -0.00415648 -7.89893e-21)
(1.02997 -0.0593523 -5.19594e-21)
(1.04237 -0.0860797 -7.39766e-21)
(-0.206794 -0.0096434 1.61561e-19)
(1.35413 0.0469362 -7.08566e-20)
(1.02081 -0.0216636 4.76367e-21)
(1.20961 -0.0492147 -6.27519e-20)
(-0.261526 -0.000765689 -1.95811e-20)
(1.0679 -0.0786437 -4.03828e-21)
(-0.367085 -0.0242436 1.14504e-19)
(0.965727 -0.0771296 0)
(1.20311 0.109709 5.6964e-20)
(-0.158231 0.00303603 6.45334e-20)
(1.00303 -0.0120926 9.60145e-22)
(1.11672 0.197061 3.75845e-20)
(1.11197 -0.1337 -2.79309e-20)
(1.17133 -0.0631394 -3.96283e-20)
(0.683766 -0.922131 0)
(1.04774 -0.0869761 -2.06448e-20)
(1.40231 -0.136422 -9.02072e-21)
(1.13523 0.123505 5.01137e-20)
(-0.11874 0.0172436 6.51381e-20)
(1.07039 0.00441779 -1.15494e-20)
(-0.0154944 0.0191687 0)
(1.1636 -0.0281042 0)
(-0.248812 0.000910328 -7.96456e-20)
(-0.381906 -0.0215542 0)
(-0.0356046 0.012802 4.73153e-20)
(1.17927 0.0626972 7.2267e-21)
(0.996572 -0.0440162 8.5591e-21)
(1.05078 -0.0605939 -7.85871e-21)
(1 -0.00254002 0)
(1.11591 0.0908214 -2.52019e-20)
(0.997374 -0.0117345 3.15486e-21)
(-0.144786 0.0184759 0)
(1.06382 -0.156221 0)
(0.937596 -0.133462 0)
(0.894661 -0.101372 -3.17456e-20)
(0.998109 -0.104115 3.77694e-21)
(1.02856 -0.0212662 1.19025e-20)
(1.09804 0.0524262 4.34487e-21)
(1.10722 -0.114514 0)
(1.1012 0.000197401 -2.75977e-20)
(1.08037 -0.130709 -7.37302e-21)
(-0.0157544 0.00475291 -1.69756e-19)
(1.04915 0.192446 -4.62256e-21)
(1.1592 -0.0135727 -6.41305e-20)
(1.17508 -0.202377 8.39376e-20)
(0.126249 0.0419733 0)
(0.980238 -0.0723089 0)
(-0.206414 -0.0288904 0)
(1.02894 -0.00701801 0)
(1.06714 -0.186625 0)
(0.963869 -0.0559999 0)
(1.04078 -0.0388992 -1.06404e-20)