/*--------------------------------*- C++ -*----------------------------------*\
| =========                 |                                                 |
| \\      /  F ield         | OpenFOAM: The Open Source CFD Toolbox           |
|  \\    /   O peration     | Version:  v2012                                 |
|   \\  /    A nd           | Website:  www.openfoam.com                      |
|    \\/     M anipulation  |                                                 |
\*---------------------------------------------------------------------------*/
FoamFile
{
    version     2.0;
    format      ascii;
    class       surfaceScalarField;
    location    "50";
    object      phi;
}
// * * * * * * * * * * * * * * * * * * * * * * * * * * * * * * * * * * * * * //

dimensions      [0 3 -1 0 0 0 0];
oriented        oriented;


internalField   nonuniform List<scalar> 
20537
(
-0.376447
0.491653
-0.115156
0.0224843
-0.248903
0.226413
-0.183014
0.145638
0.0373888
-0.0356301
-0.28385
0.319526
-0.136187
0.171055
-0.0348465
0.262833
-0.408184
0.145365
0.191895
0.208171
-0.400021
0.248276
-0.104039
-0.14421
-0.451686
-0.10046
0.552236
-0.0169991
0.190376
-0.173366
0.602444
-0.155092
-0.447348
0.0948055
-0.131018
0.036206
0.110885
-0.00118336
-0.109695
0.00909816
-0.0120514
0.00295487
0.67436
-0.545638
-0.128562
0.264769
-0.287553
0.0228192
-0.0302294
0.276662
-0.246374
0.425891
-0.25276
-0.1731
-0.132239
0.157545
-0.0252986
0.0881328
-0.539722
0.329083
-0.364639
-0.0976869
-0.0853107
-0.368538
0.591845
-0.223276
-0.691533
0.0987247
0.59291
-0.555438
0.186929
0.204087
0.0442172
-0.0767579
-0.191329
0.268131
-0.00712187
-0.0021259
-0.0068829
-0.369511
0.206504
-0.342795
0.136345
0.400948
-0.138103
0.238621
-0.268792
-0.0408397
0.186493
0.43979
-0.422612
-0.0171759
-0.602748
-0.0886752
0.111265
-0.137902
0.0266386
0.0114893
0.0870068
-0.098491
0.21217
-0.111539
-0.100627
0.138665
-0.155655
0.0898027
0.349989
0.0344189
0.336197
-0.370518
0.494217
-0.666349
0.17214
-0.00735676
0.00485656
0.00249867
0.334249
-0.559576
0.225329
0.540818
-0.206569
-0.0128662
-0.015881
0.0287434
-0.531955
0.232826
0.299128
0.0330967
-0.476369
0.443274
0.183292
-0.26001
0.306839
0.220392
-0.52721
0.158744
-0.00267127
-0.156051
0.159484
-0.0949732
-0.0644971
-0.00443278
0.00191568
0.00251743
-0.732371
0.372271
0.360264
0.647945
-0.530888
-0.116791
0.664864
-0.17064
0.662035
-0.300101
-0.361864
0.0114282
-0.00696951
-0.00445842
-0.192787
0.399352
0.291549
0.0877156
-0.379193
0.0752536
0.136919
0.0698673
-0.104042
0.0341711
-0.382347
0.290727
0.0916367
-0.151553
0.119425
0.0321437
-0.0979426
0.297814
-0.19987
-0.428514
0.128076
0.30047
0.0756924
-0.064202
-0.562077
0.278441
-0.209794
0.226049
-0.0162186
0.178429
0.247496
0.00566574
-0.00717689
0.00151316
0.0850834
-0.0663145
-0.0187669
0.227803
-0.205326
-0.290101
-0.442084
0.276405
-0.578019
0.301858
-0.530344
0.428494
0.101908
-0.137532
0.0398577
-0.0207822
-0.000257044
0.021039
-0.0184726
-0.16501
0.18351
0.00552073
7.88512e-05
-0.16146
0.429409
-0.267873
0.541916
0.00736366
-0.549282
-0.437443
-0.0428593
0.480432
0.0109444
0.00594119
-0.0168924
-0.312834
-0.0694961
0.119289
-0.0244898
0.436772
-0.140145
-0.29661
0.06295
0.216601
-0.279558
-0.274322
0.322754
-0.0483739
-0.359232
-0.255139
0.614409
0.00891908
0.10235
-0.0979673
-0.291078
0.389069
-0.187407
-0.105411
0.259857
-0.154405
-0.0456043
-0.228655
0.569813
-0.557669
-0.012083
0.0478574
-0.184023
0.00468426
0.0447675
-0.0494515
-0.173061
0.479919
-0.0247455
0.594635
0.0377147
-0.028213
-0.00949996
0.188053
-0.169508
-0.0185183
0.0611343
-0.367932
0.306862
0.265962
-0.00952033
-0.459245
-0.0994639
0.558715
-0.459825
0.354765
0.105075
-0.192836
0.174517
0.0183421
0.528078
-0.684272
0.1562
0.0543537
0.015913
-0.119703
-0.288468
-0.544648
-0.0193776
0.564103
0.280688
-0.639883
0.286636
-0.384579
-0.651834
0.651923
-0.0732464
-0.47132
0.432005
-0.194614
-0.0665787
0.0712635
0.0705118
-0.473348
0.402849
-0.56824
0.570421
-0.00200082
-0.189482
0.555874
-0.366162
-0.00623589
-0.00112164
0.244862
0.0211388
0.100404
0.0104864
0.0150037
0.437287
-0.404184
-0.783776
0.345027
0.438764
0.0484355
0.388856
0.146557
-0.189683
0.0431492
0.0170161
0.312127
0.178891
-0.100108
-0.0787747
0.413469
-0.378937
0.55227
-0.161775
-0.390363
0.0087222
-0.003056
-0.547723
0.110415
0.237054
-0.567808
0.602202
-0.0342429
0.557963
-0.487434
-0.0618277
0.0886742
-0.0268445
-0.0611807
-0.00809224
0.0692697
-0.055285
0.0438865
0.0113962
0.016164
0.0215508
0.373271
0.274963
0.182028
-0.560941
0.378957
0.72175
-0.389953
-0.331784
0.401587
-0.0709945
-0.330537
-0.218385
-0.34119
-0.429087
0.608185
-0.179095
0.0632724
0.115629
-0.273673
0.465635
0.143901
0.396918
-0.0151527
0.142793
-0.41821
0.608202
-0.189745
0.0166744
-0.00757366
0.31421
0.347887
0.36455
-0.199834
-0.164665
0.308844
0.0928052
-0.487492
0.184028
0.303557
0.240821
0.112759
-0.353525
0.0290551
0.130441
-0.0126838
0.171452
-0.346626
-0.251192
0.597818
-0.0896893
0.235325
-0.145604
0.00685404
0.00457395
0.164444
0.387946
0.279421
-0.358514
0.0791469
0.643871
-0.226222
-0.417635
-0.674802
0.245716
0.0187788
-0.228539
-0.316352
0.333427
0.0513204
-0.00179338
-0.0495303
0.000518736
-0.0213013
0.245116
-0.551062
0.306017
-0.169814
-0.317586
-0.0569515
0.001663
0.562358
-0.397788
-0.0762437
-0.400122
0.18968
-0.0430936
0.530209
-0.493307
-0.0368668
-0.00236985
-0.129863
-0.523362
0.668068
-0.144703
-0.263278
0.0404003
0.222927
0.0232575
-0.122822
-0.36529
0.488227
0.0658044
-0.151104
-0.362785
-0.237115
0.599902
-0.455151
0.623648
-0.168452
-0.153838
-0.274644
0.353204
-0.542443
-0.177348
0.149427
0.0279361
0.221996
0.0164682
-0.238453
-0.253516
-0.000780278
-0.00365387
0.264273
-0.548591
0.284348
0.195863
-0.206598
0.0107705
0.1132
-0.0433383
0.401033
-0.169297
-0.231682
0.539675
-0.357603
-0.142844
0.420628
-0.277779
0.442603
0.0876498
-0.422844
-0.107442
-0.30313
-0.480629
-0.0130499
0.0472795
-0.034232
-0.576293
0.0836435
0.492855
-0.531247
0.138216
0.393162
-0.0126837
0.206632
-0.193938
-0.488917
0.366214
-0.103154
-0.0183139
0.121463
0.163739
0.126258
-0.28994
0.0213744
0.000618428
-0.0219928
0.124027
0.445965
-0.569989
-0.0212661
-0.0270026
0.04827
-0.355352
0.416559
-0.468415
0.142336
0.32608
0.455261
-0.636189
0.180932
-0.722059
0.436965
0.285109
0.639492
-0.19826
-0.441226
-0.133438
0.379605
-0.246145
-0.0217993
0.0089295
-0.104925
-0.41106
0.51612
0.0254765
-0.00410207
0.268646
-0.10486
0.203584
-0.364976
-0.0115122
0.0568741
-0.045357
-0.0846998
0.15305
-0.0683372
-0.00537159
0.0316248
-0.0262534
-0.606474
0.587821
0.0186981
-0.0626231
-0.181286
0.24395
-0.528256
0.0690202
-0.0108063
0.00695339
0.00385233
0.673851
-0.218588
0.224479
-0.0203616
0.306135
-0.284394
-0.0217405
-0.286044
0.531232
0.544992
-0.154407
0.159738
-0.00530978
-0.0406699
-0.254892
0.29558
0.00849081
-0.111648
0.155144
-0.253087
0.276366
0.4454
-0.454116
-0.0770137
0.119485
0.281475
0.317036
-0.416437
0.0994096
0.576323
0.0502506
-0.626574
-0.184343
0.171669
0.459383
-0.558839
0.0210084
0.0067347
-0.0277428
0.192295
-0.00422001
0.472873
-0.380396
-0.0924785
-0.387035
0.29926
0.0878333
-0.205839
-0.134474
0.340366
0.61817
-0.371676
-0.246462
0.407396
-0.0903575
-0.253691
-0.0964154
0.350172
-0.0781386
-0.0497399
-0.113107
0.162878
0.434205
-0.173257
-0.260942
0.257615
-0.0356098
0.0173774
0.071299
0.00654914
-0.0153894
0.0088441
-0.184764
-0.350293
0.535153
-0.44568
-0.431341
0.34963
0.0817464
0.375802
-0.120937
-0.254864
-0.635225
0.203818
0.431427
-0.146605
0.102396
0.0442122
0.196658
0.204424
-0.365383
0.111762
-0.208703
0.103331
0.051562
-0.0630693
0.412751
0.140382
-0.553125
0.263108
0.355094
0.195309
0.449108
-0.150764
-0.298339
0.168709
-0.187151
0.257902
0.00690435
-0.53036
0.36871
0.668921
-0.127007
0.603204
-0.167864
-0.435333
-0.0065701
0.0302089
-0.0236378
0.0715328
0.530915
0.0306999
0.545621
0.0761133
-0.556749
0.48064
-0.505139
0.601722
-0.0965777
-0.163121
0.113406
0.0117838
0.36402
0.418057
-0.34342
-0.0746372
0.0410514
0.449261
-0.490232
-0.385017
0.497477
-0.112371
0.129941
0.319173
-0.712139
0.30683
0.405305
0.155958
-0.092677
0.132927
-0.325664
-0.0980952
0.389711
-0.229585
0.213026
0.016592
-0.4471
-0.26504
-0.0569246
-0.0896759
0.084406
0.153327
-0.237702
0.0729644
0.0463185
0.429651
-0.565199
0.135655
0.0307221
-0.00971373
0.0968197
-0.186476
0.0638568
0.212861
-0.0163096
-0.0175439
0.0338541
-0.152254
0.364468
-0.212138
-0.327781
-0.132028
-0.0387614
0.0418962
-0.00313074
0.483709
-0.442566
-0.0310498
-0.139278
0.170358
0.219868
0.0400371
-0.231002
0.363978
0.0267942
-0.0879765
0.225546
-0.141111
0.377016
-0.362113
-0.0148384
0.0491897
-0.0671692
0.0179832
0.653529
-0.254946
-0.398574
0.0695501
-0.275349
0.747731
-0.370541
-0.377176
-0.0390722
0.0325027
0.125844
-0.00344568
-0.122391
-0.505643
0.400843
-0.200461
0.0621979
0.13829
-0.26546
0.490835
-0.225258
0.0263929
-0.0198431
0.0183117
0.405601
-0.423882
-0.460996
0.651929
-0.190895
0.595565
-0.24329
-0.352213
0.139246
-0.0133925
0.192709
-0.255289
-0.330039
0.0838214
0.246264
0.106202
-0.36669
0.214518
0.329681
0.0474067
0.473874
-0.628963
0.0104448
0.0115797
-0.0583152
-0.00840462
0.066716
0.0658417
-0.365554
0.299738
0.0294225
-0.045731
-0.0263463
-0.0911254
0.117469
0.384404
-0.00566336
0.201559
0.11559
0.0403745
0.52384
-0.314391
-0.209427
0.0564966
0.202605
-0.259086
0.0153827
0.111449
-0.126819
0.100626
-0.223874
0.490191
-0.26628
0.292
0.00853291
-0.300535
-0.0110905
-0.0272635
0.0383556
0.0380854
-0.583567
0.676744
-0.0670573
-0.609676
0.164295
0.512461
0.176976
-0.0640534
-0.112923
-0.120296
-0.209694
-0.186497
0.243002
-0.00545874
-0.00534785
-0.483672
0.313946
-0.0595634
0.351561
0.349943
0.245684
-0.501551
0.236208
-0.112986
0.572376
-0.0517122
0.579795
-0.179406
0.543401
-0.363887
0.0320766
-0.0431654
0.650681
-0.323908
-0.326772
0.319016
-0.436895
0.11798
0.175034
-0.206051
-0.657141
0.364864
0.292287
0.109489
-0.0365299
-0.291905
0.242224
0.0497072
0.122905
-0.339456
0.0584839
-0.00716685
-0.110069
0.429182
-0.23126
0.0978288
-0.0151075
-0.207216
0.222367
-0.308976
0.431883
0.0769214
-0.435734
0.358929
0.162096
-0.635432
0.188264
0.203552
-0.39179
0.00857781
-0.0202486
0.0116725
0.629881
-0.0682136
0.0950036
0.232787
-0.100701
0.116096
-0.0448637
0.0430663
-0.715094
0.152652
0.56245
-0.156774
-0.558311
0.00409799
-0.336395
0.332325
0.625444
-0.153217
-0.47211
0.51482
-0.527955
0.0132858
0.372466
-0.306596
-0.101149
-0.0992917
-0.00794442
-0.00410649
-0.264367
0.212193
0.0522032
-0.0403705
0.035
0.0456698
-0.0150259
-0.0306411
-0.395964
-0.261169
0.236749
-0.421434
0.000165236
0.00121864
-0.00735025
0.00613271
0.0627529
0.243384
-0.0572914
-0.00928497
0.41284
-0.22455
-0.208346
0.193281
0.507871
-0.541496
0.0336922
-0.127523
0.101175
-0.436361
0.521321
-0.0848893
-0.119907
-0.167618
0.361665
-0.357537
-0.446501
0.346627
0.0999355
0.0535838
0.101076
0.382717
0.316603
0.327278
-0.115284
-0.0362539
0.242323
0.0431276
-0.285437
-0.0144246
-0.0114357
0.02586
0.348048
-0.00399975
-0.344013
-0.130615
-0.436151
0.0396608
0.39651
0.274278
0.133121
-0.320584
0.0751786
0.245456
0.145034
0.0319416
0.280126
-0.216218
0.152663
0.486835
0.120863
0.437116
0.498227
-0.397063
0.0942192
-0.549328
0.121407
-0.167133
0.0457279
0.0941353
-0.427972
0.333843
0.139641
-0.109716
-0.0299095
-0.0660883
-0.370045
0.0119685
-0.250977
-0.171632
0.109007
0.137926
-0.0485856
-0.105805
0.433412
-0.356374
0.364193
-0.0899059
0.663426
-0.502723
-0.160689
-0.149621
-0.00855268
0.158171
-0.205419
0.388155
-0.182726
0.0252061
0.159342
-0.184534
-0.0162076
-0.00485849
0.0210663
0.586226
-0.143581
-0.636397
0.200265
0.436137
-0.445797
0.240387
0.0268005
-0.00530044
0.308012
-0.670794
-0.235795
0.217586
0.018245
0.0246929
0.544728
-0.131971
-0.488441
0.548228
-0.0597136
-0.395601
0.094042
0.301631
0.131363
0.00844528
-0.103403
0.0585818
-0.342606
0.284052
0.145607
-0.0825651
-0.0630495
-0.553358
-0.0530696
-0.548923
0.305691
0.00114261
0.0082123
-0.00935738
-0.05698
0.336444
-0.460079
0.536193
0.262092
-0.199147
0.459227
0.166329
0.207847
-0.161431
-0.375297
0.536811
0.0931792
0.199746
-0.292898
-0.110649
-0.250027
0.360728
-0.432718
0.443005
0.143263
-0.0235061
0.0727007
0.381861
-0.424606
0.199936
-0.207507
0.00760112
-0.0787919
-0.488868
0.255426
-0.363759
0.108359
-0.644041
0.184659
0.459387
0.562589
-0.562481
0.505219
-0.146917
-0.358226
-0.553018
0.134541
0.517464
-0.0686084
0.454611
-0.385998
0.268244
0.0978672
-0.366031
0.305499
-0.445629
0.109494
-0.474669
-0.168568
0.676503
0.0275996
-0.00612134
-0.021478
0.00277116
-0.0189786
0.134008
0.325548
-0.459457
0.382766
-0.127311
-0.292008
-0.0285286
-0.238258
-0.178171
0.0232439
-0.0123054
-0.353971
-0.194902
0.267659
0.383024
-0.0653962
-0.370229
-0.144093
-0.0144439
0.158552
-0.338913
-0.0578065
0.396782
-0.00956187
0.0131501
-0.00358969
-0.132169
0.547724
-0.415539
0.000336423
0.00157915
-0.227748
0.247999
-0.020244
-0.210832
-0.455509
0.213737
0.169058
0.0555126
-0.0212613
-0.0342534
0.199195
0.0253069
-0.348401
0.471759
-0.123359
-0.514034
-0.0540335
0.366983
-0.413918
0.0469394
-0.565413
0.0347992
-0.170152
0.576031
-0.405768
-0.574166
0.187657
0.386619
-0.448603
0.343654
0.105007
0.0103264
-0.00910819
-0.152712
0.166918
-0.0141836
0.12565
-0.00501762
-0.120621
0.0924336
-0.0994863
0.00705906
0.0667907
0.329781
-0.676405
-0.093917
-0.0331953
0.127114
0.417671
-0.323527
-0.0428271
-0.220408
0.0175395
0.217823
-0.436188
0.197941
-0.425044
0.440049
-0.0625512
0.0412864
-0.513714
-0.0104821
0.52439
0.00590394
-0.0154684
0.00735792
0.0210702
-0.0341221
-0.132933
-0.132312
0.34607
0.507243
-0.411595
-0.479539
-0.156852
0.348474
0.0857371
0.28178
-0.424624
-0.15266
0.000733665
0.151923
0.345204
-0.104333
-0.140919
-0.0117456
0.0810271
-0.0189349
-0.0620904
-0.539895
0.407742
0.123673
-0.165375
0.002889
-0.0164487
0.0135601
0.370256
-0.0709441
0.335978
0.16454
-0.500359
-0.348675
0.532804
0.337726
0.111898
-0.44953
-0.0319393
-0.145392
0.252633
0.0381938
-0.290805
-0.0686984
0.285291
0.0755045
0.0700955
-0.435897
0.595092
-0.159091
0.00864642
-0.00750628
0.00299594
-0.0252165
0.0222215
0.465226
-0.359713
-0.1055
0.125146
0.292532
0.218749
0.58125
-0.477865
-0.103385
0.397855
0.470186
0.0611503
-0.531338
-0.121197
0.0272818
-0.227949
0.0281487
0.117003
-0.130006
0.0130106
-0.101306
0.107871
-0.00656041
0.209017
0.455855
-0.374618
0.411943
-0.0373071
0.00642716
0.383249
-0.389672
-0.196583
0.132532
-0.138126
0.1591
-0.0209567
-5.57781e-05
0.0103827
-0.016257
0.0761374
-0.0598788
0.348182
-0.100937
-0.345507
-0.199691
0.187276
0.0124113
0.0069115
-0.0951401
-0.0235888
0.118738
-0.131835
-0.13251
0.373013
-0.0822715
-0.575069
0.315041
0.187625
-0.502514
-0.148889
0.696495
-0.487473
0.291055
0.0792547
0.179422
0.48865
-0.158542
-0.39141
0.550107
0.075288
0.0057405
0.167301
-0.457794
0.391729
0.293249
0.40325
0.0338806
-0.102097
0.306504
0.114129
0.624875
-0.182626
-0.442141
-0.421563
0.572348
-0.150733
-0.0880415
-0.547165
0.553076
-0.0174598
0.0260398
0.357843
0.115029
-0.110571
-0.0250429
0.0461108
0.451217
-0.0842304
-0.036682
-0.173754
0.21046
-0.0114148
0.0143035
-0.0142969
0.0149156
0.141901
-0.365746
0.0361021
0.189981
0.0629891
0.518261
0.444614
-0.22166
0.000465939
0.221226
0.0180958
-0.086271
0.0681794
-0.311729
0.320263
-0.0131671
0.13018
-0.27916
0.0483995
0.230797
0.0862382
-0.480365
0.394219
-0.302384
0.246754
0.0556641
0.151787
-0.530982
0.379236
0.0981365
-0.446539
0.128749
-0.153203
0.0244723
-0.374393
0.484006
-0.304804
-0.0607243
0.0255733
-0.513938
0.16085
-0.230671
0.0698578
0.110516
0.0291355
0.408954
-0.321166
0.0949094
0.338611
-0.0987958
-0.193087
0.0525577
-0.313826
0.261336
0.139133
0.159455
-0.0380452
0.0271783
-0.111867
-0.291703
0.0542847
0.23745
0.0247088
-0.119841
0.473413
-0.387087
0.0691402
-0.314824
0.245691
-0.353336
0.00144863
-0.0264936
0.119409
-0.474678
-0.639271
0.293323
0.346021
-0.0104497
0.0648053
-0.214696
0.413743
-0.198998
-0.0140512
-0.0308171
0.02574
-0.0326467
0.00690777
0.0174045
-0.00220104
-0.0152074
0.0559173
0.20617
0.0848487
-0.521144
-0.0767622
-0.453261
0.483961
0.336092
-0.531087
0.195145
0.122425
0.425312
0.37684
-0.535229
-0.606441
0.263749
0.342692
-0.0132238
0.361302
-0.234836
0.328044
0.704337
-0.411083
-0.0918357
-0.0450718
0.136904
0.0298737
0.0440479
-0.135886
0.158687
-0.534919
0.376336
0.137898
-0.56066
0.422772
0.635316
-0.147578
-0.487711
-0.0231051
0.138704
-0.0434378
-0.0750539
0.118487
0.100333
-0.155336
0.0550154
-0.047816
0.132877
-0.586137
-0.45768
-0.0837586
-0.135706
-0.45239
0.588204
-0.250971
0.417207
-0.166174
0.0513245
-0.0920078
0.0406892
0.095123
-0.0628672
-0.0322609
-0.258569
0.311194
0.238716
0.465625
-0.131407
-0.317143
-0.460971
0.210095
0.154912
-0.143011
-0.011901
0.00515805
0.00145397
-0.00661159
-0.0444515
0.0540449
-0.0751622
0.0211158
-0.394306
-0.0196081
0.446838
-0.351818
0.147016
-0.0213507
0.00655393
-0.193446
-0.0280346
-0.102988
0.106786
0.3227
-0.25288
0.156269
-0.0559163
0.345667
0.424118
-0.354801
0.00362448
0.390698
0.272741
0.124299
0.0639154
0.0196574
-0.0245156
0.162181
-0.550199
0.38807
0.379385
-0.099543
-0.279796
0.290316
0.0827117
-0.565358
0.395316
0.279068
-0.213406
0.343355
0.00540228
-0.0338072
0.028403
-0.0194487
0.148218
0.143231
-0.0408308
-0.444788
0.597448
-0.456764
0.552263
-0.393477
0.0237808
0.00381924
-0.104793
0.00349327
-0.286272
0.245617
-0.0103252
0.0360656
0.171609
-0.593324
0.421784
-0.00819156
-0.482992
0.491303
-0.419015
0.334036
0.117183
0.0714012
0.0186509
-0.090049
0.332197
-0.0968033
-0.235355
-0.404401
0.0845848
0.319876
-0.187072
-0.456964
0.0592285
0.23083
-0.290002
0.415084
0.220254
0.0025953
0.00589546
-0.00849467
0.125736
-0.298992
0.0330165
-0.0300066
-0.00300691
0.442707
0.0789371
-0.337435
-0.00172095
0.0165157
-0.0147947
-0.00772301
0.00119798
0.00652505
-0.0909625
0.0998847
-0.368425
0.520256
0.050259
-0.0663267
0.0160691
-0.181379
0.633228
-0.480561
0.00372784
0.14756
-0.151281
0.184835
-0.159616
-0.117102
0.313638
-0.196489
-0.0043988
0.542954
-0.206429
-0.336503
-0.612494
0.367069
0.245458
-0.025822
0.112833
-0.149977
-0.489222
-0.576079
-0.35386
0.243263
0.124478
0.349018
-0.00875041
0.0113425
-0.197293
0.0276236
0.169699
-0.129663
-0.331163
-0.126611
0.440674
-0.608531
-0.392142
-0.334337
0.563404
-0.0599604
-0.503301
0.20659
-0.409851
0.532289
-0.116391
-0.35092
0.467416
-0.608456
0.240467
0.36819
0.000381929
0.0415174
-0.527977
-0.520757
0.014238
0.506533
-0.0560754
0.396843
-0.340757
-0.439379
0.338504
0.0170676
-0.0187883
-0.549868
0.00329103
0.546594
0.526489
-0.361727
-0.164719
0.0728434
0.0533034
-0.126135
0.0125732
0.142339
-0.250518
0.514087
-0.263566
0.188765
0.339775
-0.528442
0.183099
-0.333854
-0.0181219
0.0721661
-0.0970684
-0.0575942
0.0115906
0.0460075
0.196086
-0.0717597
-0.503185
0.341833
0.587176
-0.439969
-0.147188
0.00500542
-0.000149743
-0.240548
0.423661
0.0796924
-0.321515
0.241869
-0.571493
-0.445551
-0.320642
-0.152565
-0.0240812
0.176656
-0.114635
0.258153
-0.143505
-0.204251
0.357617
0.441918
0.145277
-0.497269
-0.0162836
0.370393
0.156138
0.111835
0.0127251
-0.398405
0.316702
0.0817109
-0.0102216
0.159664
-0.299946
-0.305329
0.384345
-0.154299
0.1201
-0.139964
0.0198772
-0.012331
0.10088
0.231361
-0.116963
0.0721394
0.0448177
-0.00987555
0.102316
-0.372951
-0.066362
-0.018578
-0.00696392
0.0255359
0.308307
-0.239158
-0.0800277
0.100275
-0.0202498
0.0256024
-0.0202012
-0.0295638
-0.0259374
0.0555056
0.577159
-0.19337
-0.383784
-0.210597
-0.0235057
0.234129
-0.378622
0.299265
0.0732279
0.0091504
-0.0161195
-0.012642
-0.519078
0.140291
0.378848
0.594605
-0.602942
0.00839297
0.0131622
0.146599
-0.349835
0.570651
-0.220816
-0.419884
0.565039
-0.145143
-0.00437662
0.000995445
0.00338142
-0.398962
0.57064
0.347145
-0.447719
0.100688
-0.000541115
0.0177694
-0.00183603
-0.0159332
0.0400509
-0.484832
0.475084
-0.138873
-0.494991
-0.00644953
-0.0043751
-0.00334789
0.0886721
-0.0373418
0.107022
-0.130603
-0.176388
-0.290714
0.467144
-0.0697824
0.0613746
-0.10455
-0.0920315
-0.126822
0.0833799
-0.00440546
0.178946
0.186336
-0.0112708
-0.0658639
0.0616176
-0.400469
-0.0143358
0.242128
0.0050065
0.148366
-0.153356
-0.00476132
-0.00258838
0.462843
-0.0499775
-0.0163093
0.00384202
0.00749618
0.0107794
-0.0908097
0.0203502
-0.0173532
0.324284
0.107964
-0.43216
0.199032
-0.00928955
-0.189714
0.469231
0.15575
-0.0449194
0.27931
0.100122
0.113719
-0.0770224
-0.0367015
0.65244
-0.6522
-0.0107774
-0.00731623
0.0180927
-0.54239
0.122518
0.128996
-0.0561393
-0.428968
0.526462
-0.0973922
-0.129441
-0.0270898
0.156536
-0.168493
0.206308
-0.00724508
-0.0303956
0.0215299
-0.16026
0.138757
-0.132399
0.332165
-0.484082
0.618705
0.0804254
0.341812
0.356422
-0.0503571
-0.306055
-0.36259
0.0949541
0.267691
-1.29e-05
0.0177827
-0.380067
0.583907
0.627563
-0.359903
-0.430534
0.140291
0.290321
-0.0408206
0.013819
-0.0165392
-0.00320665
0.0202747
0.446043
0.13112
0.0960923
0.366784
0.0201341
0.380683
-0.400743
0.00174624
0.031273
0.124834
0.527823
0.134311
-0.328928
0.00252247
-0.0198506
0.0173284
0.378355
-0.550039
0.171788
0.0766654
0.20441
-0.281029
-0.0918755
0.426956
-0.120444
-0.112629
0.0594354
0.0531887
-0.275603
0.387828
-0.112149
0.220213
-0.520253
-0.124563
0.247659
-0.123102
0.00640298
0.0190736
0.11523
0.0438855
0.314126
-0.234391
0.45953
-0.143784
-0.315703
0.232011
0.395552
-0.00868632
-0.00372923
0.0124123
-0.000536194
0.120652
-0.535574
0.014831
0.048625
-0.259198
-0.561337
0.390651
0.170803
0.407614
-0.323829
-0.450473
0.614779
0.0212743
-0.478896
0.132128
-0.15195
0.0198206
0.185526
0.178677
0.446121
-0.0988713
-0.117896
0.370138
-0.241049
-0.00926334
0.00797335
0.0012904
0.0468853
0.00862479
-0.0244861
-0.211267
-0.0878616
-0.0291046
0.0399575
-0.468822
0.214749
0.0028755
-0.0752024
0.455955
-0.400681
-0.160538
-0.137681
0.421336
-0.283568
0.341646
0.104587
0.0132413
-0.00253329
-0.0107083
-0.141082
0.466719
0.125366
0.0309221
0.431377
-0.107007
-0.24629
-0.607234
0.00707
-0.00132122
-0.00574873
0.205536
0.365019
-0.00124771
-0.198447
0.131843
-0.246465
0.0510049
-0.116485
0.065487
-0.244785
0.047518
0.191289
0.0102717
-0.201533
-0.00104233
-0.191702
-0.0389277
-0.299372
0.0444993
0.0856805
-0.0662415
0.349703
-0.283459
0.000580395
0.00458643
-0.00516706
-0.125063
0.177584
-0.0524973
0.617778
0.407602
-0.288121
0.198007
-0.176438
-0.173889
-0.040496
-0.315065
0.503912
0.0831726
-0.0461992
-0.0369787
0.403274
0.14909
-0.156462
-0.00637526
-0.00156939
-0.188503
0.617622
-0.429101
-0.111018
0.108655
-0.251528
-0.144413
-0.33494
-0.0958686
-0.491542
-0.00335702
-0.11409
0.500986
-0.386893
0.381064
-0.27421
0.0780282
-0.103847
-0.402208
-0.14773
0.080829
0.00784933
0.00372882
-0.0124175
0.227499
-0.0117313
-0.215754
-0.00112664
-0.0326819
0.408303
-0.0215503
0.585084
0.234083
-0.604611
0.43746
-0.0996399
-0.394598
0.15029
-0.109958
-0.0403155
-0.0927165
-0.237408
0.330166
0.331427
-0.511917
0.180557
-0.0805501
-0.323794
0.108281
-0.569238
0.0200943
0.0603347
0.0347831
0.286935
-0.067675
0.0103851
-0.0256213
-0.0783859
0.104012
0.428801
-0.113648
0.202067
0.200645
-0.402705
-0.112946
-0.166182
0.141295
-0.0705038
0.460721
-0.390217
0.336374
-0.455709
0.119349
-0.474464
0.354415
0.120053
-0.417289
-0.160515
-0.30686
0.539685
0.318642
0.108322
-0.00166283
-0.0158721
0.0175344
0.40771
0.0969297
-0.50456
-0.000721468
0.101131
-0.222111
0.249772
-0.217384
0.276662
-0.56616
0.452074
0.424708
-0.600392
0.175751
-0.169329
0.0793519
0.0899728
0.244452
0.0638632
-0.412027
0.559992
-0.397754
0.354328
0.118585
-0.472795
-0.350598
0.399041
-0.294917
-0.135548
-0.151563
0.623354
-0.391342
-0.282761
0.0365606
0.246198
0.0129526
0.0995714
-0.112517
0.25233
-0.425076
0.172748
0.488961
0.105694
-0.0836868
0.438658
-0.354869
0.352529
-0.160245
-0.192275
-0.19149
-0.172244
-0.30089
0.0610721
0.239853
-0.125707
-0.189363
0.0643227
-0.342334
0.249658
0.320567
0.139006
0.0249612
0.0733452
-0.0983115
-0.151793
0.48328
-0.0306151
0.0191801
-0.117545
0.0881212
0.0294301
-0.172922
0.307229
0.117365
-0.126158
0.00880156
0.453809
-0.461896
0.677598
-0.242735
-0.434846
0.112363
0.318638
-0.430931
0.295376
0.144948
-0.440324
-0.0601436
-0.295098
0.355252
0.504433
-0.0966477
-0.494135
0.494231
0.177995
0.382056
0.132814
-0.135468
0.574386
-0.142616
-0.431755
0.561082
-0.383023
0.380407
-0.17676
0.206654
-0.209534
0.00291234
-0.0246313
0.0960351
-0.0467201
0.318
-0.259389
-0.140742
-0.467504
0.149648
-0.144627
0.144577
-0.0460178
-0.0985578
-0.0812179
0.327449
-0.0210193
0.110121
-0.142605
0.0324821
0.148348
-0.0435755
-0.104759
0.583638
-0.170031
-0.413591
-0.155634
0.0163796
0.471063
-0.134966
0.357156
0.294803
-0.324674
0.437107
0.0204731
-0.0194594
-0.00101313
0.0298507
0.109405
-0.10377
-0.324196
-0.0559958
0.446161
-0.366502
-0.126319
0.492956
-0.381533
-0.146715
-0.42215
0.110748
0.311484
-0.212107
0.414184
-0.342718
0.0478187
0.294903
-0.541087
0.289896
0.203529
0.00315575
0.29377
-0.0514329
-0.0132384
0.0112401
0.00199844
0.00977849
0.552924
0.227019
-0.238474
0.0114526
-0.354823
-0.251618
0.105131
-0.0213261
-0.0838076
0.173628
0.0132429
-0.186861
0.0154584
0.0498329
-0.0652874
0.125143
-0.0133012
0.0180453
0.132258
0.0376049
0.121852
-0.00465695
-0.0205585
0.440454
-0.188124
0.000499817
0.0467761
-0.590078
0.196486
-0.210919
0.0144345
0.163029
0.411372
-0.0714843
0.219518
0.0367238
-0.256218
0.202812
-0.369303
0.166571
0.0228631
-0.00470561
-0.0181572
-0.0540976
0.262004
-0.207867
0.0127044
0.429986
0.00116298
0.122801
-0.123956
0.0544933
-0.514933
0.39295
0.122111
-0.0695078
0.288091
-0.218534
-0.301017
0.661333
-0.258135
-0.403179
0.37708
-0.0777898
0.132646
-0.257214
0.0894598
-0.468652
-0.00957923
0.21025
-0.200676
-0.223794
0.483121
-0.259182
-0.246434
0.054771
0.261575
-0.437923
-0.418615
-0.0756951
0.0664126
0.121277
0.263838
0.413776
0.366221
-0.107457
-0.258721
-0.0128708
0.0187723
0.216049
-0.0168287
0.140949
-0.12403
-0.0169235
0.0908098
0.0324167
-0.123228
-0.490163
0.336584
0.153602
0.40357
0.180084
0.0908849
-0.0622052
-0.0286757
0.294242
0.0828626
0.183078
-0.0143379
0.23279
-0.0521873
0.0123587
0.0398311
-0.125725
0.4211
0.0153042
-0.115402
0.0119783
0.296208
-0.308179
-0.376312
0.00842474
-0.381888
0.190423
-0.449487
0.351505
0.0980938
-0.00491431
-0.00251255
0.00742646
-0.243129
0.0196569
-0.148072
0.617948
-0.469867
0.0730022
0.146548
0.0122976
0.0919233
-0.104214
0.112039
-0.301887
0.189894
-0.0148603
-0.0373247
-0.00861747
0.0894531
-0.506959
0.569119
-0.062138
-0.23482
0.0113563
0.223462
0.0249275
-0.00526977
-0.210225
-0.0245948
-0.0728154
0.0562025
0.0166148
-0.498261
0.0417929
0.45665
0.344371
-0.427956
-0.0103244
-0.00117268
0.0114971
0.0441649
0.100413
-0.0136579
0.00652674
0.00712883
0.121558
-0.552257
0.430928
-0.0927544
0.436469
-0.0951353
0.00458628
-0.021939
-0.139743
0.0487865
0.283359
0.0977725
0.446674
-0.110287
0.022602
-0.175158
0.150017
-0.0334994
-0.116522
-0.0663663
-0.0241217
0.0904936
-0.383613
0.0599218
0.392542
-0.452361
-0.0173759
0.0676363
0.215801
-0.0229066
-0.192846
0.192829
0.312466
0.101808
-0.106814
0.0381423
-0.139467
0.347677
-0.561859
0.404819
0.15714
-0.000739118
0.0078099
-0.0421318
-0.228343
0.573382
-0.109997
0.552291
-0.442128
0.0529234
0.0302455
-0.532706
0.0257695
0.621992
-0.151808
-0.46833
0.244685
-0.0110525
0.331621
-0.437802
0.10628
0.153869
-0.0284817
0.191557
-0.201145
-0.0575954
-0.0930198
-0.246844
0.339933
0.00143592
-0.00540003
0.00396176
0.348497
-0.162966
0.135945
-0.0350752
-0.100873
0.111734
-0.0987744
0.0868137
-0.471121
0.345746
0.125397
0.36826
0.125046
-0.493169
-0.0376166
0.147736
-0.204527
-0.357869
-0.0239974
0.418616
-0.178745
-0.295717
0.330548
-0.0233483
-0.0751383
-0.158486
-0.247209
-0.365254
0.00130935
-0.0211493
-0.170164
0.197287
-0.0271094
-0.0167629
0.362064
-0.227956
-0.134049
0.613186
-0.151406
-0.461773
0.556478
0.199859
-0.216136
-0.0798279
0.0635745
0.0156979
-0.0218188
0.204769
0.397543
0.0204423
0.146496
0.0419714
-0.450213
0.408242
-0.0924121
-0.331258
0.423748
-0.168551
0.0236989
-0.0283547
-0.00762108
-0.198944
-0.283842
0.239417
0.107461
0.0395666
-0.0414394
-0.301273
-0.0611736
-0.055436
-0.126267
-0.344831
0.34378
-0.542037
-0.380777
-0.0720467
-0.210716
0.146372
-0.165801
0.541041
-0.403134
-0.0182702
-0.0971229
0.115402
-0.484595
0.35864
0.126092
0.16893
-0.585981
-0.0678577
-0.0131734
0.0810271
0.0212638
-0.0259687
-0.145482
-0.237663
0.383197
0.0131812
-0.00275578
-0.304726
0.250341
0.054393
0.0264843
-0.0251732
0.169974
0.295267
-0.0297275
0.384505
-0.342722
0.446901
-0.104089
-0.060265
0.171999
-0.62206
0.450087
0.335754
-0.50433
0.168598
-0.324644
-0.042499
0.0393723
0.0392516
0.00923136
-0.0484813
-0.00693446
0.233951
0.0457086
-0.0605661
0.0644782
-0.311887
0.247436
0.0177986
0.00139351
-0.019194
0.0444376
0.214948
-0.015054
0.427468
-0.30574
-0.134941
-0.348661
0.4837
-0.439738
-0.493015
0.371788
0.121345
-0.0453718
-0.0466291
0.600974
-0.435116
-0.165621
0.250173
0.0308747
-0.281002
-0.360129
0.14396
-0.0997451
-0.0137092
0.0431328
0.00197016
0.0234621
-0.0254321
0.104242
-0.42747
0.323289
-0.056815
0.0848078
-0.0279896
-0.234493
0.335416
0.25781
-0.31475
-0.201533
0.503556
-0.314896
-0.217791
-0.010399
0.00594072
0.303798
-0.0583
0.0163463
-0.0138233
0.156816
-0.171157
0.343967
0.102722
0.125215
-0.0181839
0.40027
0.223015
0.248418
-0.00617024
-0.381194
0.243593
-0.0195294
0.109962
-0.0904292
-0.257588
-0.235685
0.327402
-0.210388
-0.116965
0.422942
0.3311
0.277278
-0.0793555
0.0916607
-0.242134
-0.0879496
0.330134
0.231024
-0.141507
-0.0894905
-0.142479
0.478252
0.00938773
-0.131637
0.00936075
-0.0076273
-0.00173329
0.321272
-0.473479
0.152298
-0.143785
-0.0458782
-0.470708
0.0891819
0.365181
-0.0748523
-0.162664
-0.424361
0.587038
-0.0417858
0.132594
0.00986413
0.186623
-0.183026
-0.209676
-0.0753801
0.285104
0.164018
-0.49914
0.335144
-0.131383
0.477858
-0.346372
0.625338
0.327262
0.17031
0.391198
-0.536182
0.145036
0.177991
0.0200642
-0.0496246
0.245326
-0.232569
-0.27549
0.403601
0.518395
-0.231734
0.567637
-0.0320057
-0.535606
0.145761
-0.0111998
-0.0151084
-0.052564
0.097216
0.20544
0.345342
-0.437988
0.092752
0.575513
-0.403488
0.428063
-0.15597
0.505636
-0.349601
0.118536
-0.0138027