/*--------------------------------*- C++ -*----------------------------------*\
| =========                 |                                                 |
| \\      /  F ield         | OpenFOAM: The Open Source CFD Toolbox           |
|  \\    /   O peration     | Version:  v2012                                 |
|   \\  /    A nd           | Website:  www.openfoam.com                      |
|    \\/     M anipulation  |                                                 |
\*---------------------------------------------------------------------------*/
FoamFile
{
    version     2.0;
    format      ascii;
    class       surfaceVectorField;
    location    "50";
    object      Uf;
}
// * * * * * * * * * * * * * * * * * * * * * * * * * * * * * * * * * * * * * //

dimensions      [0 1 -1 0 0 0 0];


internalField   nonuniform List<vector> 
20537
(
(0.985592 -0.0233217 2.00804e-22)
(0.984738 -0.0229736 1.27519e-21)
(0.984742 -0.0241369 2.21092e-22)
(0.863301 -0.288858 1.54885e-21)
(0.888551 -0.281947 -1.48906e-20)
(0.864849 -0.265779 1.69824e-21)
(1.00641 -0.136216 5.57817e-21)
(1.00254 -0.133209 1.04174e-21)
(1.00105 -0.137739 1.14208e-21)
(0.984701 -0.0210461 9.01088e-23)
(0.984397 -0.021934 5.9724e-23)
(0.983602 -0.0209112 8.68668e-22)
(1.06359 -0.147731 6.02148e-21)
(1.05975 -0.148114 -7.3651e-22)
(1.06146 -0.144603 -1.08192e-20)
(0.909478 -0.0154903 -8.39899e-22)
(0.917241 -0.0258763 1.95021e-21)
(0.923247 -0.0155474 -2.29736e-21)
(1.03275 -0.0102171 -1.50133e-21)
(1.03348 -0.0108062 0)
(1.03358 -0.00990525 0)
(1.0242 -0.103993 0)
(1.02714 -0.102553 2.33304e-21)
(1.02666 -0.106587 0)
(1.01042 0.01236 -1.5511e-22)
(1.01089 0.0131452 7.17999e-23)
(1.01136 0.0125885 -2.51011e-22)
(0.96106 -0.0854234 -6.79644e-21)
(0.966912 -0.0823755 -8.0127e-22)
(0.96741 -0.0892207 2.05383e-23)
(1.02511 -0.0664697 -2.69076e-21)
(0.999877 -0.0455759 -3.79471e-21)
(1.03263 -0.0368791 2.03049e-21)
(0.632814 -0.0114029 -1.00606e-21)
(0.627448 -0.0414925 -1.26117e-20)
(0.597988 -0.016278 5.3682e-22)
(1.1039 -0.191287 8.61156e-21)
(1.11104 -0.192898 -9.75215e-21)
(1.10303 -0.188584 -1.98969e-22)
(-0.0981399 0.119876 2.88651e-21)
(-0.086408 0.0688346 -2.10485e-20)
(-0.0819077 0.0736989 -9.50545e-21)
(1.01707 -0.00182386 -1.83646e-21)
(1.01739 -0.00164472 -6.77095e-22)
(1.01741 -0.00208474 -3.08671e-21)
(1.01232 -0.0690024 0)
(1.01336 -0.0702404 0)
(1.01164 -0.0706264 4.3428e-22)
(1.03508 -0.0569299 2.14996e-21)
(1.03382 -0.0556294 4.07491e-21)
(1.0358 -0.0553912 2.02855e-22)
(0.988346 -0.0423453 5.79302e-23)
(0.989562 -0.0429793 1.32829e-22)
(0.98815 -0.0437456 2.08835e-21)
(1.08932 -0.19876 -3.50698e-21)
(1.08607 -0.202299 3.80501e-21)
(1.08356 -0.196767 -8.17952e-21)
(1.00997 0.0116135 5.86497e-23)
(1.00949 0.0121639 -8.99319e-23)
(0.98489 -0.0199299 -6.5186e-22)
(0.985799 -0.0209962 -5.48887e-23)
(1.01247 -0.135666 1.35786e-21)
(1.01056 -0.14056 -1.66884e-22)
(1.0144 -0.000317856 -4.05861e-23)
(1.01558 -0.000223793 1.04553e-21)
(1.01715 -0.000176099 1.8687e-22)
(1.00574 0.0006293 -2.00889e-22)
(1.00384 0.000368941 -1.34035e-22)
(1.00635 0.000709519 3.19565e-22)
(1.01309 -0.000140794 -4.16986e-22)
(1.0104 -0.000304619 1.71107e-22)
(1.02144 -0.102012 0)
(1.02101 -0.105941 0)
(1.05828 -0.0473323 3.65429e-21)
(1.05778 -0.045659 -5.32602e-21)
(1.05647 -0.0468764 4.47643e-21)
(0.0224547 -0.131474 0)
(0.0377265 -0.126027 1.41096e-20)
(0.986522 -0.0228765 -9.3267e-22)
(0.986429 -0.0240549 -1.01862e-21)
(1.0035 -0.042089 -2.57891e-23)
(1.00428 -0.0430454 -5.1707e-22)
(1.00279 -0.0429172 -1.44737e-23)
(0.90182 -0.00333307 8.597e-22)
(0.892877 -0.0139861 0)
(1.03416 -0.0585287 5.36879e-21)
(1.03632 -0.0584423 -2.97556e-21)
(1.00365 -0.128601 -4.01609e-21)
(0.998377 -0.129652 -1.91121e-21)
(0.839099 0.0779071 -4.42892e-22)
(0.848567 0.0889775 -1.06461e-20)
(0.865963 0.071014 1.00379e-21)
(1.00516 0.000609888 -2.74172e-22)
(1.00708 0.00097318 -2.44053e-22)
(1.1362 -0.158913 1.44333e-20)
(1.1382 -0.15892 -3.52507e-20)
(1.1374 -0.161342 -5.46588e-21)
(1.08191 -0.167609 3.79996e-21)
(1.11681 -0.171199 1.59144e-20)
(1.11521 -0.171343 -3.57296e-21)
(1.02116 -0.210735 -2.71057e-21)
(1.02867 -0.214067 7.59402e-21)
(1.02521 -0.204123 -7.54247e-21)
(0.955509 -0.0825816 2.72152e-21)
(0.956206 -0.0910953 -4.81154e-21)
(0.813252 0.0811122 2.05857e-21)
(0.826815 0.0611803 5.91536e-22)
(0.99702 -0.0122235 -2.95334e-22)
(0.996466 -0.0123485 2.16248e-22)
(0.997068 -0.0128585 -2.14257e-22)
(1.01407 -0.00554895 2.25301e-23)
(1.01437 -0.00540189 -9.67062e-23)
(1.0142 -0.00520457 -2.64208e-23)
(0.0312907 0.143472 1.14365e-21)
(0.0434938 0.140289 -7.82137e-21)
(0.0246799 0.118942 -1.44806e-21)
(0.900964 0.0176546 3.82344e-22)
(0.90598 0.0515208 1.27279e-20)
(0.934815 0.0187061 1.81566e-21)
(0.897471 -0.0150898 -2.27124e-21)
(0.874761 0.0160847 -6.60052e-21)
(0.278859 0.187264 1.50003e-20)
(0.304658 0.158871 0)
(0.342972 0.153626 1.47479e-20)
(0.84585 0.081166 1.02554e-21)
(0.847648 0.0662237 3.23056e-21)
(0.84389 0.0596073 -2.79393e-22)
(0.948304 -0.265741 0)
(0.95645 -0.280303 -6.1067e-22)
(0.934465 -0.289157 0)
(1.05868 -0.0490564 -2.11695e-21)
(1.06005 -0.0477395 1.55813e-24)
(0.972707 -0.0108571 1.32793e-20)
(0.99783 -0.0167998 9.79038e-22)
(0.977982 -0.0106953 6.92074e-22)
(1.09643 -0.133521 0)
(1.09847 -0.135592 1.20298e-20)
(1.09909 -0.132379 0)
(1.09578 -0.163212 6.6184e-21)
(1.09681 -0.161294 7.16944e-21)
(1.09884 -0.16354 -6.43333e-21)
(-0.0674989 0.0386113 -2.31443e-20)
(-0.0533101 0.0469707 -6.05964e-20)
(-0.048673 0.0163232 -2.02503e-20)
(1.01636 -0.00139847 -2.63191e-21)
(1.01574 -0.00102176 1.93362e-22)
(1.01625 -0.00165899 -6.0338e-21)
(1.00019 -0.000873172 1.12387e-21)
(1.00034 -0.000821526 3.21611e-22)
(1.00112 -0.0011734 -2.42495e-22)
(1.01376 -0.00568419 5.35839e-23)
(1.01396 -0.00591142 5.23771e-23)
(1.01927 0.00045337 2.75906e-22)
(1.01982 0.00068947 1.73145e-22)
(1.01843 0.000456632 0)
(-0.149387 0.0739513 2.0307e-20)
(-0.169878 0.12476 3.54317e-20)
(-0.145285 0.0836687 3.34517e-20)
(1.00426 -0.041007 -8.49488e-23)
(1.00271 -0.0409702 -1.30244e-22)
(1.03262 -0.0158018 8.8246e-22)
(1.03208 -0.0150607 -4.4603e-21)
(1.03317 -0.0149873 4.70407e-21)
(1.01626 -0.219241 -5.8065e-21)
(1.0128 -0.20826 -2.21025e-21)
(0.913117 -0.237642 0)
(0.90291 -0.212012 0)
(0.887255 -0.224081 0)
(0.969849 -0.0259686 3.53713e-21)
(0.972661 -0.0216641 1.93652e-22)
(0.973808 -0.0266384 2.71496e-21)
(1.07082 -0.154062 9.77246e-21)
(1.06744 -0.154461 -7.18797e-21)
(1.06955 -0.157251 -2.81105e-22)
(0.993957 -0.137152 -1.29892e-21)
(0.982605 -0.130263 -1.45108e-21)
(0.993925 -0.124219 3.10907e-21)
(0.980991 -0.0256181 -4.22914e-22)
(0.980921 -0.024419 1.57325e-22)
(0.97981 -0.0251594 -4.2164e-22)
(1.04755 -0.164558 1.44545e-21)
(1.04626 -0.164083 1.11328e-21)
(0.863176 0.0959395 -5.37383e-22)
(0.8523 0.0902077 1.24495e-21)
(1.07697 -0.0847179 -7.72137e-21)
(1.07444 -0.0853589 1.78599e-21)
(1.07498 -0.0826076 6.83618e-22)
(0.988652 -0.041034 -2.98825e-22)
(0.98735 -0.0414665 -2.70253e-22)
(0.14428 0.00475899 4.58919e-21)
(0.130526 0.00796949 4.6367e-21)
(0.112482 0.0130736 -3.3633e-21)
(0.93757 -0.152362 0)
(0.928889 -0.151982 0)
(0.981861 -0.158213 0)
(0.840672 -0.289261 1.35479e-20)
(0.862072 -0.31456 -2.43573e-20)
(1.01674 -0.00160228 3.26039e-22)
(1.01651 -0.00123023 4.12321e-21)
(1.00048 -0.00131156 -1.015e-21)
(1.00084 -0.00157803 -7.97226e-24)
(1.00058 -0.00159391 -5.70158e-22)
(1.01052 0.0202191 2.1415e-22)
(1.01156 0.0204803 -9.89435e-23)
(1.01102 0.0193728 3.03524e-22)
(1.01653 -0.135811 -2.61089e-21)
(1.01415 -0.132937 2.7579e-21)
(0.392846 0.00695175 1.84202e-21)
(0.41756 -0.000507695 6.31271e-21)
(0.401231 0.00857878 -2.9627e-21)
(1.06007 -0.110403 8.41418e-21)
(1.06155 -0.113172 2.67791e-21)
(1.05821 -0.113227 1.62997e-20)
(0.101658 0.00487654 -1.07945e-20)
(0.0732078 0.00817373 -2.46878e-20)
(1.0353 -0.0240914 2.65553e-21)
(1.03403 -0.0238241 4.16781e-21)
(1.03473 -0.0228035 2.83645e-21)
(0.995744 -0.0121325 3.99224e-24)
(0.996072 -0.0124844 0)
(0.995488 -0.0125633 9.16262e-25)
(1.01576 -0.0111991 1.15139e-21)
(1.01575 -0.0118188 2.97172e-21)
(1.01511 -0.0113321 3.99013e-21)
(0.235559 0.157004 1.1392e-20)
(0.250385 0.133393 1.87525e-20)
(0.200053 0.156376 6.85867e-21)
(0.968138 -0.029716 -6.02516e-22)
(0.964664 -0.0253333 3.24096e-21)
(0.637792 0.0173222 -5.88238e-21)
(0.67529 -0.00786217 -1.50496e-21)
(0.943811 -2.68889e-05 -6.82912e-25)
(0.937176 -0.00279689 1.09028e-23)
(0.944409 -0.00671324 3.21585e-21)
(1.12685 -0.0236255 1.65126e-20)
(1.14957 -0.0607208 8.35881e-21)
(1.12316 -0.00267481 6.77991e-21)
(1.049 -0.0570048 -3.26069e-21)
(1.04713 -0.0577267 -7.21985e-21)
(1.04899 -0.0593199 3.44533e-21)
(1.02671 -0.00284621 3.71011e-22)
(1.02664 -0.0023626 -2.15709e-22)
(1.0262 -0.00268779 -2.0846e-22)
(1.13771 -0.157381 3.4509e-20)
(1.1335 -0.159291 1.98004e-20)
(0.965008 -0.0128282 -5.88385e-22)
(0.967711 -0.0167378 5.73773e-22)
(0.961756 -0.0158103 3.31447e-22)
(0.864841 0.109888 1.171e-20)
(1.05381 -0.0670911 0)
(1.05274 -0.0685589 0)
(1.05494 -0.0689792 6.82633e-21)
(1.04956 -0.0553586 8.19509e-21)
(1.05134 -0.0566047 4.12245e-21)
(1.0146 0.000502664 0)
(1.01448 0.000495083 0)
(1.01678 0.000573591 0)
(1.06534 -0.151589 -2.16888e-21)
(1.06733 -0.148003 7.01727e-22)
(0.804938 -0.0909453 1.03811e-20)
(0.774236 -0.0782534 -1.19093e-20)
(0.765187 -0.0784544 -1.9333e-21)
(0.943407 -0.00363637 5.15728e-21)
(0.968875 -0.00844796 5.22452e-21)
(1.01054 0.000300617 -2.55872e-22)
(1.01461 0.00037058 0)
(-0.121559 0.383477 9.35721e-22)
(-0.0853094 0.376417 2.0813e-20)
(-0.120952 0.36848 1.83334e-20)
(1.07674 -0.115888 0)
(1.07973 -0.115245 7.22025e-21)
(1.07743 -0.112909 0)
(0.995608 -0.0246706 5.95688e-23)
(0.995712 -0.0255901 -7.0949e-23)
(0.994886 -0.0249437 1.29575e-22)
(1.07191 -0.0333162 1.5514e-21)
(1.07359 -0.0341382 -4.87918e-22)
(1.00775 -0.000207227 -7.21184e-24)
(1.00948 -0.000313902 -8.29283e-24)
(1.00795 -0.000213975 6.18112e-24)
(0.948094 0.0151539 2.93878e-21)
(0.953291 0.0227385 3.09881e-21)
(0.955867 0.0137909 1.39532e-21)
(1.0867 -0.119237 -1.88129e-21)
(1.08403 -0.119884 1.47824e-22)
(1.08613 -0.122396 -6.48071e-21)
(1.01231 -0.00419484 -8.12659e-23)
(1.01263 -0.00418958 -2.66103e-23)
(1.01238 -0.00384003 -2.60592e-23)
(0.824162 -0.136623 1.08554e-20)
(0.765726 -0.128802 1.03652e-20)
(0.914168 -0.0362807 -5.30214e-21)
(0.925549 -0.0335443 -1.63317e-21)
(1.00976 0.000934061 1.61299e-22)
(1.00684 0.000431018 9.16607e-23)
(1.01013 0.000809785 1.20754e-23)
(1.02662 -0.00345293 3.74138e-22)
(1.02722 -0.00300645 2.5507e-22)
(0.963489 -0.00995322 5.22966e-22)
(0.967681 -0.0108333 -1.66981e-21)
(1.00186 0.000254432 -4.28769e-23)
(1.00207 0.000186415 4.31755e-22)
(1.01133 0.00137624 2.09396e-22)
(1.00887 0.000898146 -1.69275e-22)
(0.891747 -0.281155 -5.68893e-21)
(0.88817 -0.280299 2.10692e-20)
(0.838785 -0.106701 1.51968e-20)
(0.849367 -0.109625 1.20268e-21)
(1.01443 -0.00316226 7.79964e-23)
(1.0145 -0.00333315 -2.6469e-22)
(1.01423 -0.00335604 1.06326e-22)
(0.997286 0.000282372 1.66332e-22)
(0.997406 0.000291375 -1.91992e-22)
(0.996649 0.000170062 -2.16192e-22)
(0.999343 -0.000709473 7.33178e-22)
(0.998347 -0.000470355 4.34115e-22)
(0.998328 -0.000382146 6.71062e-23)
(0.0288624 0.156779 1.30851e-20)
(0.0170978 0.13285 1.89918e-20)
(1.0705 -0.0350813 -1.03275e-20)
(1.06977 -0.0328384 0)
(1.10612 -0.19545 5.79717e-21)
(1.08392 -0.188302 1.5687e-20)
(0.953397 -0.275093 -1.17593e-21)
(0.936514 -0.243715 -2.16256e-21)
(0.966105 -0.237634 0)
(1.03193 -0.00994294 3.26799e-22)
(1.03077 -0.0106497 1.71554e-22)
(1.03207 -0.0116847 1.81321e-22)
(0.916871 -0.219404 8.74965e-22)
(0.908161 -0.247908 2.93127e-22)
(1.06762 -0.113026 2.197e-21)
(1.07019 -0.11335 6.95397e-21)
(1.0684 -0.116002 2.4147e-21)
(0.985059 -0.0189446 -1.21339e-22)
(0.983988 -0.0189335 -5.85129e-22)
(1.05731 -0.181093 -5.41136e-21)
(1.05921 -0.177628 1.47863e-22)
(1.06145 -0.181946 4.08394e-21)
(0.996955 -0.0115673 0)
(0.99756 -0.0120097 -3.37058e-22)
(1.00098 0.00458365 -1.17505e-22)
(1.00059 0.00469078 -5.69304e-23)
(1.00058 0.00424621 6.91207e-23)
(0.156541 0.00266316 2.92437e-22)
(0.168071 -0.00328908 -1.02678e-20)
(1.01634 -0.0109508 -6.96221e-22)
(1.01565 -0.0104872 1.29637e-22)
(0.888306 -0.274391 -9.32184e-21)
(1.00106 0.00150422 4.50415e-23)
(1.00133 0.0015534 -1.19484e-22)
(1.00078 0.00121192 -5.81109e-24)
(1.01436 -0.00291813 8.05041e-24)
(1.01467 -0.00291989 1.83272e-22)
(0.951162 -0.153625 -8.82104e-21)
(0.965057 -0.155591 2.77834e-21)
(1.00311 -0.161312 9.06137e-22)
(0.522138 -0.370165 1.36824e-22)
(0.439653 -0.351659 1.0086e-20)
(0.467142 -0.36736 3.95158e-21)
(0.225297 -0.282609 4.76785e-22)
(0.221187 -0.263959 -2.4351e-21)
(0.247282 -0.285597 2.19966e-22)
(-0.125305 0.391742 -1.71485e-20)
(-0.134298 0.38081 -5.03221e-20)
(1.00026 -0.00102244 1.71384e-22)
(0.999173 -0.000589986 -2.08012e-23)
(0.999397 0.0417713 0)
(0.997094 0.0422933 0)
(0.998678 0.0444455 0)
(1.01781 -0.00927837 -3.12257e-23)
(1.01815 -0.00889943 -8.02483e-24)
(1.01825 -0.0095042 -2.02296e-23)
(1.02389 -0.0441409 1.00095e-21)
(1.02448 -0.0456294 2.35263e-21)
(1.02519 -0.0440691 7.19262e-22)
(0.881979 0.0787371 1.80443e-21)
(0.911354 0.0830497 4.93254e-21)
(1.00395 -0.0124557 -1.94265e-22)
(1.00388 -0.012038 5.61726e-23)
(1.00438 -0.0122981 2.11728e-23)
(1.05528 -0.185999 0)
(1.05204 -0.180897 0)
(1.03196 -0.00949534 -2.5766e-21)
(1.03177 -0.0103722 -1.33112e-22)
(0.926847 -0.0473022 4.60061e-21)
(0.899874 -0.0431042 2.76011e-22)
(1.13666 -0.119678 2.54846e-20)
(1.13616 -0.12269 -9.59673e-22)
(0.998306 -0.000519957 0)
(0.998363 -0.00055573 4.81316e-22)
(0.999214 -0.000769995 0)
(-0.1128 0.168059 1.14739e-20)
(-0.0892957 0.154298 1.46371e-20)
(1.01862 0.000386855 -2.74099e-22)
(1.01993 0.000427612 8.23893e-23)
(1.04014 -0.0401156 4.96961e-23)
(1.04142 -0.0405425 1.17568e-22)
(1.04092 -0.0388588 -2.48346e-21)
(1.02252 -0.0443917 9.25179e-22)
(1.02305 -0.0428465 0)
(0.992852 0.00283965 -4.95639e-23)
(0.993268 0.00330608 8.17229e-23)
(0.992845 0.00356849 1.88861e-23)
(1.00776 -0.0394901 0)
(1.0083 -0.0385543 3.11945e-22)
(1.00894 -0.0396004 0)
(1.09644 -0.166202 1.58345e-20)
(1.09347 -0.164039 -2.1515e-20)
(1.09441 -0.131178 8.80571e-21)
(1.09363 -0.134417 -6.7708e-21)
(1.00912 -0.00717693 0)
(1.00931 -0.0068888 0)
(1.00892 -0.00696119 0)
(1.06972 -0.0628087 2.85635e-22)
(1.06902 -0.0644435 -4.09203e-21)
(1.07118 -0.0642888 -3.20699e-21)
(-0.13513 0.0312703 2.06579e-20)
(-0.14385 0.0672792 -4.78656e-22)
(1.00131 0.00446024 5.94568e-24)
(1.00136 0.00492231 -1.19477e-23)
(1.00244 -0.0544782 -1.69962e-22)
(1.00414 -0.0547565 2.11204e-22)
(1.00335 -0.053169 0)
(1.01646 -0.00739631 -1.64608e-22)
(1.0168 -0.00762568 6.70801e-23)
(1.01685 -0.00717304 1.88279e-23)
(1.00396 -0.0129626 -1.0435e-22)
(1.00346 -0.0126024 -1.42874e-23)
(1.07901 -0.0868424 -3.30142e-22)
(1.07942 -0.0839086 -7.44259e-21)
(0.985988 -0.018901 1.60237e-22)
(0.985179 -0.0179903 5.45176e-22)
(0.687323 -0.0104479 1.68396e-20)
(0.627787 0.011027 8.69082e-21)
(0.669531 -0.00472065 -1.2032e-20)
(0.365544 0.0169561 -1.51188e-20)
(0.383564 0.00701944 -6.82281e-21)
(1.01735 0.00520297 3.12081e-22)
(1.01718 0.00559895 5.76466e-22)
(1.01768 0.00551195 1.50397e-22)
(0.992479 0.00235357 2.03778e-22)
(0.992935 0.00216378 0)
(0.238157 -0.295445 -1.44512e-21)
(0.193914 -0.271342 -6.09509e-22)
(1.00164 0.00430904 1.3248e-22)
(1.00126 0.00402347 1.37956e-23)
(0.953049 -0.281967 -7.37942e-21)
(0.980859 -0.2599 -5.53509e-21)
(1.06415 -0.113143 -1.65877e-20)
(1.06604 -0.110259 -1.35807e-20)
(0.992359 0.0364158 2.28616e-21)
(0.991287 0.0355489 1.03902e-21)
(0.990713 0.0375135 7.07505e-22)
(1.10047 -0.201078 1.42663e-21)
(1.09143 -0.194948 -1.87379e-21)
(1.01212 -0.00479068 1.01248e-23)
(1.0118 -0.00479006 1.35282e-24)
(1.01201 -0.00512573 9.96076e-24)
(1.03447 -0.0614602 -9.91145e-21)
(1.0334 -0.0600406 -6.28832e-21)
(1.03259 -0.0616006 -5.66861e-21)
(0.89501 -0.14669 0)
(1.01675 -0.00997529 -1.62506e-21)
(1.01665 -0.00938155 -1.60521e-21)
(1.01612 -0.00963543 -8.76824e-22)
(1.00908 -0.144227 -1.04212e-20)
(1.01425 -0.143759 -9.23714e-21)
(1.01081 -0.00164322 1.02853e-23)
(1.01089 -0.00139671 1.71175e-23)
(1.0106 -0.00160529 1.13397e-23)
(1.01706 -0.000235443 -1.51703e-21)
(1.018 -0.000145081 -1.37055e-22)
(1.01943 0.000112519 8.34417e-22)
(0.981223 -0.026731 -5.79196e-22)
(0.982148 -0.0259675 0)
(1.0001 -0.00102985 -1.38165e-22)
(1.00019 -0.00102265 -4.77049e-23)
(1.05658 -0.155503 3.14362e-23)
(1.0526 -0.155823 5.69199e-21)
(1.05481 -0.159689 5.42907e-21)
(1.00275 -0.0508866 7.35375e-22)
(1.00181 -0.0457355 -2.00716e-21)
(0.99749 -0.0503286 3.70044e-21)
(0.85034 0.102042 2.02079e-21)
(-0.0811905 0.0255049 1.97432e-20)
(-0.0905618 0.0582769 7.18218e-21)
(1.02656 -0.0039615 5.94884e-23)
(1.02716 -0.00423552 -1.68634e-22)
(1.02639 -0.00460898 1.6004e-22)
(1.06475 -0.088029 -1.51658e-20)
(1.06705 -0.087257 1.01788e-20)
(1.06523 -0.0854328 -1.46924e-20)
(0.92178 -0.265104 1.21909e-21)
(0.944498 -0.253421 1.22543e-20)
(1.03729 -0.0389711 3.92833e-21)
(1.03862 -0.0396481 -1.27944e-22)
(1.03813 -0.0380231 0)
(1.0018 0.041123 -5.35939e-23)
(1.00003 0.039365 -2.01347e-22)
(0.775328 0.0241929 -1.26142e-22)
(0.755354 0.0280524 4.40523e-21)
(0.764252 0.0413172 -1.2162e-21)
(0.993725 0.0377279 -3.37859e-22)
(0.994187 0.0355843 -3.40423e-22)
(1.00945 0.0199422 1.99999e-22)
(1.00991 0.0210835 1.36963e-22)
(1.03338 -0.00933754 8.94263e-22)
(1.03154 -0.00853291 6.95188e-22)
(0.486441 0.0923047 1.57059e-20)
(0.559778 0.0481412 1.72991e-21)
(0.520717 0.0645443 0)
(0.99633 1.45658e-05 3.84211e-22)
(0.996028 6.02964e-05 1.72967e-22)
(0.996425 3.81641e-05 2.92675e-23)
(1.00769 -0.0117212 0)
(1.00732 -0.0111487 -9.75185e-22)
(1.00709 -0.0117549 5.97603e-22)
(0.989085 -0.0618951 -3.1629e-21)
(0.992457 -0.0628088 0)
(0.990166 -0.0653375 0)
(1.01744 -0.0102854 3.71513e-21)
(1.01688 -0.0106085 0)
(0.796293 -0.364584 -3.94298e-21)
(0.747203 -0.370262 -3.04233e-22)
(0.763781 -0.35903 -2.58762e-22)
(1.03915 -0.0576885 -4.01578e-21)
(1.03897 -0.0558598 2.4465e-21)
(1.04101 -0.0566473 3.65641e-21)
(0.374194 -0.027933 -9.19297e-22)
(0.346958 -0.0200612 -3.45458e-21)
(0.367627 -0.0282386 6.01881e-21)
(1.01053 -0.00560617 2.93121e-24)
(1.01037 -0.00585288 4.89098e-24)
(1.01071 -0.00589177 5.86747e-24)
(0.706061 -0.108466 -1.08723e-20)
(0.654886 -0.100185 1.30785e-21)
(0.675831 -0.101848 8.35499e-22)
(0.996342 -0.0241897 -2.68322e-22)
(0.9955 -0.0236296 1.35883e-22)
(0.842759 -0.0163323 -6.38131e-21)
(0.812209 -0.00815049 -3.93487e-21)
(0.839438 -0.0227261 -4.93673e-21)
(1.01101 -0.00420879 8.28566e-24)
(1.01135 -0.00417613 -3.1026e-23)
(1.01108 -0.00388616 -8.63155e-24)
(1.01705 -0.00876662 0)
(1.01663 -0.00908099 0)
(1.01671 -0.0085162 -9.53806e-23)
(1.04993 -0.0844822 -1.79237e-21)
(1.05208 -0.087847 2.28534e-21)
(1.06319 -0.0757244 -2.6908e-21)
(0.962779 -0.0357301 3.50774e-21)
(0.967095 -0.0340164 1.93282e-21)
(0.967746 -0.0387586 2.58739e-22)
(0.21873 0.214411 1.79302e-21)
(0.253477 0.212554 -1.22029e-21)
(1.01674 -0.00422767 -3.05867e-21)
(1.01671 -0.00376435 -2.06029e-22)
(1.01631 -0.00397993 -2.91085e-21)
(0.38276 -0.0281975 -7.69377e-21)
(0.403861 -0.0361445 -7.57266e-21)
(1.03778 -0.0584773 -9.73869e-21)
(1.03937 -0.0590732 -4.59971e-21)
(1.03587 -0.025138 9.0959e-22)
(1.03658 -0.0240546 2.34719e-21)
(0.856262 -0.122927 0)
(0.825767 -0.115946 1.0465e-21)
(0.815878 -0.114322 -7.84576e-21)
(1.08121 -0.166984 -5.12226e-21)
(1.07961 -0.169702 -5.81915e-22)
(1.08307 -0.16964 -2.5379e-21)
(0.540004 -0.0826672 3.57381e-22)
(0.505491 -0.0758272 9.97347e-22)
(0.499758 -0.0767207 -4.56144e-21)
(1.01559 -0.000208115 -1.06223e-22)
(1.0156 -0.000268728 -1.43904e-22)
(1.01113 -0.000104126 2.36908e-22)
(1.05434 -0.0744651 8.69756e-21)
(1.05568 -0.0765659 4.44442e-21)
(1.05309 -0.0765249 -5.85633e-21)
(1.00754 -0.000197359 5.33603e-23)
(1.00549 -0.00013814 4.81343e-24)
(-0.119253 0.162227 -1.14452e-20)
(-0.103143 0.169109 -1.2246e-22)
(-0.10632 0.146544 -3.29632e-21)
(1.01071 -0.00427114 1.51748e-23)
(1.01096 -0.00455659 -1.75748e-23)
(1.01871 -0.100217 0)
(1.0214 -0.0987041 0)
(0.918204 -0.0917115 -1.31324e-21)
(0.927055 -0.0982895 0)
(0.91408 -0.104125 -3.86761e-21)
(1.01699 0.00489049 -2.03497e-22)
(1.01752 0.00482288 -1.17443e-22)
(1.02604 -0.00364509 1.46264e-22)
(1.10356 -0.125026 -7.13844e-21)
(1.10084 -0.126423 8.42004e-21)
(1.10106 -0.123259 2.63894e-22)
(0.979677 -0.0621541 -2.93285e-21)
(0.98195 -0.0606377 -5.88251e-22)
(0.979392 -0.0590868 -6.5323e-22)
(0.830132 -0.357138 -3.01826e-21)
(0.821793 -0.369018 -2.32326e-21)
(0.994995 -0.148853 0)
(1.00633 -0.141581 0)
(1.0174 -0.00902684 1.85361e-23)
(1.01739 -0.009632 6.0582e-23)
(1.0082 -0.0117278 -1.89077e-21)
(1.0079 -0.0123089 0)
(0.914052 0.00692573 -2.1628e-21)
(0.899529 0.0131551 8.02004e-22)
(0.815544 -0.00809223 -6.15758e-21)
(0.83042 -0.00140514 3.29594e-21)
(0.856046 -0.00378845 1.58889e-21)
(1.00773 -0.00944983 -2.99691e-22)
(1.008 -0.00919567 -4.74031e-24)
(1.00809 -0.00971913 5.85365e-23)
(0.985605 -0.0612833 -6.11994e-22)
(0.988367 -0.0581274 -2.73327e-21)
(1.01079 -0.000508777 -8.44657e-24)
(1.01077 -0.000483874 -6.0938e-23)
(0.478826 -0.0660236 -3.67871e-22)
(0.447496 -0.0583529 1.06207e-20)
(0.468657 -0.0641645 -2.42024e-21)
(1.07407 -0.116815 3.95354e-21)
(1.07633 -0.119237 0)
(0.856725 0.00658731 -5.29057e-22)
(0.865209 0.021961 -4.20498e-22)
(0.891733 0.00166561 7.99412e-23)
(1.02137 -0.0445497 8.97372e-22)
(1.02004 -0.0445872 -7.90981e-22)
(1.02062 -0.0431832 -1.64731e-21)
(1.02172 -0.0581204 0)
(1.02237 -0.0565069 0)
(1.02056 -0.0568823 -8.55024e-22)
(0.95972 0.036535 6.55764e-22)
(0.956005 0.0339698 -1.18943e-21)
(0.960599 0.0317424 8.62057e-22)
(0.801743 -0.0133835 -8.02852e-21)
(0.7808 -0.0125125 2.45311e-22)
(1.0227 -0.0288521 -1.88778e-21)
(1.02287 -0.0298148 4.4787e-21)
(1.02183 -0.0292099 0)
(1.02209 -0.0457859 -2.73655e-21)
(1.09982 -0.109261 0)
(1.10212 -0.110983 0)
(1.09857 -0.111928 9.79013e-21)
(1.06707 -0.0314486 1.72905e-21)
(1.07065 -0.00934997 -8.08222e-21)
(1.05277 -0.0137157 1.21514e-20)
(1.00731 -0.0527986 -8.26986e-21)
(1.00391 -0.0555825 -4.01675e-21)
(0.922056 -0.149487 1.97321e-20)
(0.973829 -0.156078 1.6581e-20)
(0.434676 0.012655 2.35677e-21)
(0.353894 0.0261426 1.26311e-20)
(0.325532 0.019843 1.4844e-20)
(1.02184 -0.0056111 -2.89241e-22)
(1.02145 -0.00510403 -5.7981e-22)
(1.02121 -0.00558658 -4.41181e-21)
(1.0174 -0.00846355 0)
(0.988897 -0.0398362 0)
(0.988173 -0.0387789 -5.69369e-22)
(0.989341 -0.0383573 -9.85007e-22)
(0.790238 -0.060549 -1.04813e-21)
(0.798603 -0.074528 -1.29651e-20)
(0.793838 -0.109522 -8.38267e-22)
(1.02509 -0.00718906 0)
(1.02452 -0.00736526 6.37841e-23)
(1.02498 -0.00786921 -7.33631e-23)
(1.09661 -0.214568 -1.20124e-20)
(1.09078 -0.218024 9.30664e-22)
(1.10159 -0.221588 -7.83408e-21)
(1.03669 -0.04014 3.39669e-21)
(1.03612 -0.0385418 -4.86448e-22)
(1.0235 -0.028482 -3.84841e-21)
(1.02249 -0.0278572 3.12192e-23)
(1.05522 -0.0658799 1.10117e-20)
(1.05311 -0.0656812 6.43535e-21)
(0.897433 -0.133374 6.78057e-21)
(0.886232 -0.130731 0)
(1.00274 -0.0129642 2.85589e-21)
(1.00703 -0.0118476 -1.78335e-21)
(1.00542 -0.0164762 -1.95787e-22)
(0.960192 0.0421826 3.27624e-22)
(0.963877 0.0388089 -5.75147e-22)
(1.03917 -0.0413817 -1.21935e-22)
(0.839261 -0.0571285 -1.93751e-22)
(0.861976 -0.0552308 0)
(0.846661 -0.0829082 0)
(1.05859 -0.107886 -9.33364e-22)
(1.06167 -0.107689 1.00045e-21)
(1.01111 -0.0680594 0)
(1.01246 -0.0675582 9.33709e-22)
(1.00023 0.00477394 0)
(1.00062 0.00516081 -4.74582e-23)
(0.995897 -0.0116963 6.57525e-23)
(0.995329 -0.0117695 1.03916e-23)
(1.03199 -0.0365459 -3.34379e-22)
(1.03503 -0.0392969 0)
(1.03592 -0.0351553 2.19814e-22)
(0.503717 -0.0858112 -5.90147e-21)
(0.468714 -0.078748 1.57991e-20)
(0.461512 -0.0798252 -2.71851e-20)
(1.04195 -0.0789286 -4.89288e-21)
(1.02176 -0.0886049 -1.29534e-21)
(1.00747 -0.00966135 -3.41407e-24)
(1.00751 -0.00927219 -3.30618e-24)
(1.01015 -0.00505289 9.61257e-24)
(1.01035 -0.00533889 -7.09073e-24)
(1.01 -0.00529073 0)
(1.008 -0.000275592 6.17118e-24)
(1.00821 -0.00028307 5.96255e-24)
(1.00957 -0.000329717 -2.59169e-23)
(1.10113 -0.106971 -2.37682e-21)
(1.09806 -0.107751 8.59356e-22)
(0.785975 -0.0471354 0)
(0.782348 2.55572e-05 0)
(0.945776 -0.260484 -1.99656e-22)
(0.959789 -0.209002 0)
(0.926356 -0.221857 3.55684e-21)
(1.00898 0.0154142 9.51501e-24)
(1.0096 0.0162598 -1.03334e-22)
(1.00847 0.0161547 -5.16494e-22)
(1.01983 -0.00191287 1.34698e-22)
(1.01965 -0.00217638 1.93745e-21)
(1.02005 -0.00215306 4.15795e-21)
(0.818147 -0.0495923 8.30714e-21)
(0.839178 -0.0292486 -7.19076e-22)
(0.996886 -0.0122147 0)
(0.99683 -0.0116312 7.18416e-24)
(0.997275 -0.0117833 0)
(1.05374 -0.190289 0)
(1.05912 -0.18984 -6.02867e-21)
(1.0048 -0.0401402 0)
(1.00548 -0.0411172 0)
(1.03329 -0.0165008 0)
(1.03215 -0.0165052 3.86245e-21)
(1.07316 -0.0907299 7.26201e-21)
(1.07065 -0.0913268 -1.97569e-21)
(1.07254 -0.0936743 0)
(0.996571 -0.0124742 0)
(0.997079 -0.0126076 0)
(1.09123 -0.20764 -6.88176e-22)
(1.10424 -0.211399 -3.28926e-21)
(1.00632 -0.0545848 -2.64298e-22)
(1.00658 -0.0537965 0)
(1.0075 -0.054603 0)
(0.633383 0.0515224 -7.3785e-21)
(0.669145 0.0463534 -5.11433e-21)
(0.999903 0.00537822 3.89853e-23)
(0.999563 0.00503297 2.31453e-23)
(0.999912 0.00489869 0)
(0.490677 -0.0672397 -1.1202e-20)
(0.514502 -0.0733099 -5.53894e-21)
(1.06868 -0.061558 9.25793e-21)
(1.07076 -0.0613397 3.82732e-21)
(1.03272 -0.0544471 5.16794e-21)
(1.03206 -0.0558407 3.33075e-21)
(0.531962 -0.0901946 -2.8179e-22)
(0.485604 -0.0835879 -1.14933e-21)
(0.504343 -0.0846963 0)
(1.00359 -0.0223102 7.42917e-23)
(1.00279 -0.0223848 1.72275e-21)
(1.0035 -0.0230484 7.98568e-22)
(0.945553 0.00785713 1.80419e-21)
(0.937541 0.0155426 1.4357e-21)
(0.648427 -0.0828888 -1.25866e-21)
(0.654781 -0.0808577 -8.26251e-21)
(0.689596 -0.0901018 2.95184e-21)
(1.00947 0.014785 1.57107e-22)
(1.00843 0.0146233 5.03093e-22)
(1.09091 -0.0985979 2.4331e-21)
(1.09323 -0.100412 -7.65261e-21)
(1.09008 -0.101549 -1.30429e-21)
(1.0503 -0.0686644 -6.45123e-21)
(1.05171 -0.0707173 0)
(1.00537 -0.0391891 0)
(1.00418 -0.0390858 0)
(0.592324 -0.375252 -1.04482e-20)
(0.583916 -0.360617 -4.45935e-20)
(1.00529 -0.0548633 2.21433e-22)
(1.00634 -0.0556891 -4.95923e-22)
(1.0191 -0.0280632 0)
(1.01992 -0.0281339 0)
(1.01963 -0.0290421 0)
(0.844373 -0.117187 -5.75656e-21)
(0.825771 -0.110243 -3.36545e-21)
(0.801847 -0.102284 -1.02098e-20)
(1.01476 -0.00582764 3.2035e-23)
(1.01502 -0.00604804 -2.64378e-23)
(1.01512 -0.0056375 -2.68548e-23)
(1.02148 -0.059342 0)
(1.02301 -0.0589253 0)
(1.03493 -0.00826824 -5.2267e-23)
(1.03605 -0.00683553 7.52273e-22)
(1.03389 -0.00659894 1.19916e-21)
(0.544203 -0.0938517 -1.36374e-20)
(0.552063 -0.094485 8.37407e-21)
(1.1356 -0.147004 8.06006e-21)
(1.13842 -0.148863 -5.15479e-21)
(1.1378 -0.145971 0)
(1.01716 -0.00445014 1.41064e-22)
(1.01677 -0.00469137 -3.1219e-21)
(1.08852 -0.113896 -1.30056e-20)
(1.08742 -0.116661 5.38877e-22)
(1.0856 -0.113876 -9.86488e-21)
(1.01848 -0.00341024 6.62199e-22)
(1.01826 -0.00373497 -5.95133e-21)
(1.0188 -0.00366925 2.37985e-21)
(0.463955 0.0059823 4.31392e-22)
(0.466667 0.00709262 -3.94578e-21)
(0.950266 0.0336876 9.44836e-22)
(0.945947 0.0385131 0)
(0.943537 0.0313178 -1.37165e-21)
(1.01591 -0.000477212 0)
(1.01672 -0.000408449 0)
(1.01826 -0.000325208 0)
(0.988571 0.00468134 -6.77618e-22)
(0.98801 0.00413774 -4.1661e-22)
(0.988792 0.0039548 -3.22836e-22)
(1.13287 -0.147584 -1.3988e-21)
(1.13395 -0.144701 9.48525e-21)
(1.05315 -0.0724644 4.40094e-21)
(1.0555 -0.07254 -3.54662e-21)
(1.04343 -0.0377326 2.38311e-21)
(1.04313 -0.0390842 9.80905e-21)
(1.04212 -0.038036 1.00606e-22)
(1.01967 -0.00170066 -5.04591e-23)
(1.00438 -0.0222308 1.99267e-21)
(1.00371 -0.0216748 -2.50359e-21)
(1.01808 -0.0281887 1.71076e-21)
(1.0184 -0.0271678 0)
(0.962519 -0.0486987 6.82208e-21)
(0.967023 -0.0137332 -5.08715e-21)
(-0.00875136 0.248779 -5.40901e-21)
(0.0162114 0.270022 1.26679e-20)
(0.733758 -0.0278146 -8.7421e-21)
(0.773999 -0.0554316 -1.91837e-20)
(0.757781 -0.0419413 2.9607e-22)
(0.984018 -0.0360772 4.57323e-22)
(0.983128 -0.0368113 1.00605e-22)
(0.983062 -0.0354016 -7.74914e-22)
(0.582586 -0.0980602 -1.10874e-20)
(0.56512 -0.096177 7.43144e-21)
(1.02661 -0.299901 -8.01695e-21)
(1.03709 -0.308842 -9.97187e-21)
(1.0225 -0.312668 2.22392e-21)
(1.01679 -0.00206606 1.1991e-21)
(1.06409 -0.0905715 -1.54345e-20)
(1.0624 -0.0885844 2.01916e-22)
(1.04867 -0.191274 0)
(1.05321 -0.195393 4.93509e-21)
(0.972525 -0.0180108 -1.6167e-21)
(0.976345 -0.0184962 2.57029e-21)
(0.973831 -0.0140597 2.20299e-21)
(0.966908 -0.0686569 0)
(0.967636 -0.0644234 0)
(0.97079 -0.0677733 0)
(1.10065 -0.157417 1.81145e-20)
(1.09877 -0.155984 -1.29741e-20)
(1.10094 -0.155217 -4.56896e-22)
(1.08058 -0.205289 9.12184e-21)
(0.964633 0.00596263 -6.00253e-22)
(0.965077 0.00851339 -7.52489e-22)
(0.967032 0.00655303 -4.34885e-22)
(0.817742 0.0161152 9.54312e-21)
(0.802711 -0.00555478 1.59308e-21)
(0.818021 -0.060567 -2.57148e-21)
(0.615116 -0.083043 1.18781e-20)
(0.576308 -0.0748821 -2.20318e-21)
(0.589069 -0.0761417 7.57538e-21)
(1.01729 -0.00125946 -2.95819e-21)
(1.01773 -0.00153294 3.31313e-21)
(1.05371 0.0254223 4.25911e-22)
(1.04763 0.0204516 1.91851e-21)
(1.04835 0.0303357 -8.26867e-22)
(1.06086 0.0273572 4.38715e-21)
(1.05648 0.0196061 -3.66943e-21)
(0.920131 -0.197558 8.71496e-22)
(0.930527 -0.194188 -1.87906e-21)
(0.926258 -0.206707 1.00486e-21)
(1.04383 -0.0365426 0)
(1.04486 -0.0376658 0)
(0.965286 -0.0727055 1.26907e-21)
(0.961905 -0.0687766 -4.19963e-21)
(-0.134968 0.156083 -2.68129e-20)
(-0.131242 0.17874 -2.67012e-20)
(0.992112 0.0018352 1.36015e-22)
(0.992018 0.00254242 -6.22496e-23)
(0.837884 0.0367367 -1.34486e-21)
(0.817719 0.0980753 1.8289e-22)
(0.98898 0.00539701 -4.74059e-22)
(0.988194 0.00555689 -3.68468e-22)
(1.01869 -0.00310041 1.61122e-21)
(1.01823 -0.0031714 -1.35211e-21)
(1.01151 -0.000662094 -2.82954e-23)
(1.01077 -0.000518832 -2.64181e-23)
(1.01223 -0.00449601 1.58148e-23)
(1.01198 -0.00416843 2.83901e-23)
(0.994112 0.00268515 5.87394e-23)
(0.994504 0.00297855 0)
(0.994507 0.0023721 -2.21255e-23)
(0.654192 -0.0913555 5.0357e-21)
(0.641809 -0.0897469 6.79437e-21)