/*--------------------------------*- C++ -*----------------------------------*\
| =========                 |                                                 |
| \\      /  F ield         | OpenFOAM: The Open Source CFD Toolbox           |
|  \\    /   O peration     | Version:  v2012                                 |
|   \\  /    A nd           | Website:  www.openfoam.com                      |
|    \\/     M anipulation  |                                                 |
\*---------------------------------------------------------------------------*/
FoamFile
{
    version     2.0;
    format      ascii;
    class       volScalarField;
    location    "750";
    object      k;
}
// * * * * * * * * * * * * * * * * * * * * * * * * * * * * * * * * * * * * * //

dimensions      [0 2 -2 0 0 0 0];


internalField   nonuniform List<scalar> 
13851
(
0.000183855
0.000151888
0.000151701
0.0229024
0.000148409
0.000153894
0.000151752
0.000146833
0.0362626
0.000148514
0.000172013
0.00014837
0.000149102
0.0201586
0.000160901
0.000183722
0.0207497
0.000147388
0.000198722
0.000183814
0.000163148
0.000154324
0.0071524
0.000149734
0.000230367
0.000172072
0.000202518
0.000220771
0.032371
0.000146186
0.0526035
0.000151738
0.000183411
0.0434018
0.000165189
0.0318832
0.00014981
0.000275033
0.0634416
0.000148468
0.0505667
0.0330164
0.00735905
0.000200663
0.034006
0.00014706
0.000145479
0.000183113
0.000151098
0.000149069
0.0248512
0.000149456
0.00018365
0.000157522
0.0186939
0.000148508
0.000183867
0.0504114
0.000211321
0.0229397
0.000148426
0.000195158
0.000148679
0.000151331
0.000178602
0.000178783
0.0180643
0.000166651
0.000148427
0.0336469
0.0468892
0.000167037
0.000148391
0.0199344
0.000158448
0.00015174
0.0264163
0.000145591
0.000222081
0.000147472
0.000148462
0.000198733
0.00016491
0.0217254
0.0233296
0.0517355
0.000154475
0.0149004
0.000148386
0.0529498
0.000149583
0.000151861
0.0085424
0.0462802
0.0562648
0.000189714
0.000147336
0.000184069
0.0242255
0.00018499
0.000184736
0.000162318
0.000163112
0.000148691
0.000146962
0.000166403
0.000146968
0.0499201
0.000151834
0.000147271
0.000158385
0.000147056
0.000187142
0.000171878
0.000183053
0.000157017
0.000146226
0.000146517
0.0197161
0.0379223
0.000183076
0.000146572
0.000148441
0.0367483
0.000194466
0.000172225
0.000147304
0.000169177
0.0465456
0.000165415
0.000154274
0.000158144
0.000267308
0.0438263
0.000172384
0.0572746
0.000166387
0.0495878
0.000160122
0.000165086
0.000197683
0.000150433
0.00014842
0.00017064
0.000171905
0.000151528
0.000145548
0.0471573
0.0292786
0.000169785
0.000184535
0.000186692
0.000172877
0.000194069
0.000149688
0.000148832
0.000148537
0.0612308
0.000163564
0.000150956
0.000149583
0.0321809
0.000165791
0.000183075
0.0205662
0.0372573
0.03755
0.0291475
0.000157915
0.00722863
0.000148539
0.000146249
0.000170412
0.000148821
0.058813
0.000199035
0.000186019
0.00014616
0.000158451
0.000185493
0.000193512
0.000199925
0.000157238
0.000165089
0.00806156
0.0296389
0.000183553
0.000157479
0.000149439
0.000146546
0.00023248
0.000163532
0.015823
0.000154029
0.000151272
0.000183857
0.000182945
0.000148102
0.00014837
0.000167176
0.00019767
0.0553656
0.0517278
0.000160793
0.000377625
0.0527697
0.000152555
0.000164771
0.037223
0.000153398
0.000183586
0.000148393
0.000198177
0.000149515
0.000165548
0.000152648
0.000148982
0.000191761
0.000148288
0.000507382
0.00014615
0.000183856
0.0186338
0.0580615
0.000157155
0.00016505
0.000149733
0.000169468
0.000147899
0.000165294
0.0414419
0.000157221
0.000153322
0.000148825
0.0510193
0.000146154
0.00379301
0.0521406
0.000182635
0.000149643
0.000226176
0.0232101
0.0335367
0.000183474
0.000158968
0.00017347
0.000189969
0.000158638
0.000188714
0.000159613
0.0151025
0.00018437
0.000146716
0.000153723
0.000184359
0.0316295
0.0169076
0.000146512
0.000172744
0.000148329
0.000188794
0.000194102
0.000154087
0.000166184
0.000185082
0.000147963
0.000162716
0.000180468
0.000219819
0.000148451
0.000148969
0.000157374
0.0399619
0.0138503
0.000165233
0.000146686
0.000193816
0.00019401
0.000181204
0.000165763
0.0402597
0.0226262
0.000154514
0.000159086
0.000219327
0.000146879
0.000148534
0.000181794
0.000169793
0.000146141
0.000149496
0.000147871
0.000147802
0.000158785
0.000148483
0.0372113
0.000163958
0.000147851
0.0314435
0.0347993
0.000149468
0.000184174
0.0247211
0.000150617
0.000149566
0.000164911
0.0207859
0.0545958
0.000172219
0.000148335
0.00614912
0.000148481
0.000173687
0.0284996
0.000223862
0.000150735
0.000181835
0.000217319
0.0550562
0.000186431
0.000163141
0.0607466
0.041306
0.000216605
0.000148533
0.0291978
0.00668829
0.00020219
0.00020063
0.000152626
0.000172043
0.000157472
0.015628
0.000163529
0.000146889
0.000144883
0.000155449
0.0507706
0.000371201
0.000146821
0.0559931
0.000157582
0.000158433
0.000151085
0.0186725
0.00019326
0.000184024
0.00015236
0.000152841
0.0306923
0.000149452
0.000194797
0.00015439
0.000164889
0.000158114
0.000148359
0.000147807
0.000185169
0.000186595
0.000184418
0.00025778
0.0309334
0.000151617
0.051186
0.00019193
0.000145895
0.00022042
0.000177721
0.0281007
0.000155002
0.000173195
0.000196636
0.000285104
0.000184383
0.0172662
0.00014956
0.000200025
0.00836067
0.000157311
0.0188215
0.000158867
0.0536325
0.000158834
0.000162515
0.000184561
0.000192903
0.000148849
0.000154105
0.000170874
0.000158667
0.000147251
0.000165413
0.0217379
0.000148347
0.000164908
0.0138692
0.000151802
0.000245877
0.00016427
0.0483774
0.000153916
0.00017115
0.000251883
0.000194373
0.000166013
0.0143787
0.0197686
0.000217916
0.000148034
0.000184943
0.000159129
0.000172872
0.000146662
0.00821956
0.0250803
0.000248756
0.000152751
0.000184837
0.000195436
0.0153111
0.000145191
0.0223442
0.000195495
0.0150163
0.000160162
0.000209663
0.00014861
0.000148736
0.0165742
0.00019631
0.000148519
0.000151928
0.000165296
0.000146472
0.0181593
0.000172187
0.000177428
0.000153444
0.000149587
0.000149578
0.000271432
0.000147828
0.000149511
0.00866266
0.0193999
0.000153904
0.000193286
0.000148727
0.000148477
0.000152211
0.000184922
0.000164144
0.000147354
0.000149948
0.000182364
0.000150638
0.0429861
0.000148338
0.000154947
0.0341082
0.000160432
0.000145131
0.000148668
0.00015337
0.00014847
0.000217796
0.0163347
0.000159121
0.000689356
0.000152255
0.000148208
0.0436624
0.000197057
0.000160082
0.000148425
0.0394867
0.00015974
0.000163726
0.0001487
0.000158284
0.000184801
0.000159671
0.0437117
0.000197133
0.00026329
0.000152228
0.00018681
0.000147939
0.0317347
0.000164162
0.000182913
0.000158862
0.000152062
0.000160376
0.000170771
0.000148493
0.0163615
0.0431347
0.0399621
0.00793977
0.0147721
0.0359829
0.000194609
0.00015663
0.000149316
0.00022372
0.000148516
0.000147227
0.000157746
0.0593635
0.000151523
0.000150476
0.000171389
0.000166346
0.00014868
0.00834781
0.000147356
0.045877
0.000218031
0.000147444
0.000150746
0.000196258
0.000224479
0.00014618
0.000145294
0.00137694
0.000145832
0.0610995
0.000197906
0.000183833
0.000152196
0.0075761
0.025042
0.000145941
0.000197726
0.00014842
0.000147359
0.00480759
0.0540942
0.000161962
0.000163765
0.000148566
0.000169076
0.046495
0.060404
0.000146554
0.0267719
0.000147335
0.000148458
0.000166197
0.000154995
0.00014516
0.000151764
0.0623243
0.000191589
0.0591576
0.000151149
0.000148304
0.0393633
0.000149107
0.00018529
0.000154909
0.000158472
0.0001589
0.0304659
0.0262997
0.000153822
0.0208139
0.00015041
0.00017221
0.0331939
0.0233156
0.000148485
0.000147986
0.000163191
0.0600044
0.000191619
0.000168679
0.000401995
0.000155114
0.000158302
0.0440795
0.0115423
0.000177853
0.0455053
0.000188017
0.0316371
0.000149139
0.00021124
0.000224286
0.000148363
0.0125786
0.0324544
0.000157882
0.000165181
0.000148445
0.000485082
0.000172511
0.0137405
0.000147889
0.000149015
0.000155513
0.000165919
0.000148407
0.0574701
0.000148974
0.00018771
0.000152319
0.000173289
0.000148657
0.000148705
0.000165837
0.0271532
0.000166006
0.0553828
0.000158383
0.000146534
0.000146265
0.00017081
0.000149932
0.00017896
0.000152154
0.000159822
0.000210101
0.000149125
0.0139349
0.000149657
0.00017769
0.0234801
0.0359933
0.00015687
0.00374838
0.000171024
0.000190406
0.0350996
0.000146981
0.0138513
0.000157659
0.000157886
0.010501
0.000214588
0.000145965
0.000178607
0.000148012
0.0314328
0.0261142
0.000148663
0.000167074
0.017528
0.000149728
0.000149643
0.000172283
0.0115262
0.00203754
0.00014958
0.000184554
0.00015034
0.000148729
0.000210402
0.000184857
0.000184038
0.000145071
0.000180453
0.000163366
0.000169816
0.00015079
0.000151028
0.000171568
0.000155314
0.000181814
0.000166731
0.000166808
0.000175453
0.000291149
0.00019824
0.0194175
0.000220094
0.000183864
0.0272109
0.000162524
0.00672051
0.000184406
0.000147208
0.000157895
0.000195667
0.000154969
0.000147478
0.000147443
0.0001777
0.015636
0.000155128
0.0512668
0.000146559
0.0025929
0.00017553
0.0240008
0.00017846
0.000154045
0.000151716
0.0274605
0.00018392
0.00016212
0.000197029
0.000149255
0.00027171
0.000177845
0.000187854
0.000158695
0.000202515
0.000148572
0.000149595
0.000152154
0.00014874
0.0335445
0.000147802
0.000206513
0.039738
0.000178864
0.0610306
0.0260055
0.000188466
0.000191744
0.000156994
0.000149195
0.000148888
0.000145636
0.000146249
0.000148834
0.000172348
0.000186477
0.000164155
0.000219423
0.000150708
0.0363621
0.000149953
0.0268399
0.000163714
0.00014988
0.0001489
0.0364225
0.000154121
0.000278098
0.0312822
0.000164274
0.000172766
0.000145728
0.0448665
0.000152806
0.000151631
0.000209833
0.000149205
0.000150391
0.000146852
0.000164162
0.0164819
0.000156693
0.000158871
0.000195871
0.0577551
0.000157292
0.000155192
0.0324855
0.00014562
0.0323207
0.000149284
0.000150664
0.00022408
0.000175237
0.000182792
0.00017685
0.000166163
0.000149483
0.000149953
0.000173368
0.000149248
0.000149541
0.000155548
0.000194177
0.00014767
0.000188687
0.000243032
0.000117639
0.000176733
0.0539116
0.000160492
0.000149161
0.000183856
0.000146649
0.000154183
0.0152152
0.0306608
0.0142606
0.0319817
0.000148813
0.000148608
0.000168079
0.00015081
0.00014668
0.00957446
0.000189143
0.0202816
0.000177894
0.000175615
0.000148777
0.000146222
0.000281567
0.000177565
0.000151045
0.000149677
0.000182752
0.000188278
0.0522984
0.000149661
0.000148908
0.0139586
0.000150748
0.000158889
0.000146508
0.0593613
0.000147168
0.0263131
0.000148515
0.000180917
0.00016186
0.000167825
0.000158835
0.000148393
0.000151971
0.000147956
0.000203712
0.000150658
0.0202268
0.00014941
0.000151543
0.042889
0.000157791
0.000147819
0.0157033
0.0162969
0.000154215
0.000175109
0.000148883
0.0139784
0.000147305
0.000195407
0.000148288
0.000147931
0.000168519
0.000159023
0.000148595
0.000157868
0.048586
0.000392856
0.0218309
0.000146536
0.0290626
0.000148402
0.000147725
0.000149666
0.000144563
0.000149503
0.0254808
0.0171241
0.000148353
0.000148947
0.000162251
0.000147058
0.0202295
0.000184303
0.0239943
0.0615216
0.000151925
0.00018172
0.000148313
0.00016303
0.000173199
0.000146844
0.000149343
0.000231388
0.0280209
0.000172163
0.0101765
0.000170672
0.000148688
0.000163109
0.000175358
0.0231838
0.000158108
0.000188171
0.000177958
0.000149436
0.0320121
0.0362654
0.0204216
0.000229731
0.00399979
0.00015212
0.000173245
0.000149547
0.000215247
0.000154489
0.000146904
0.0249901
0.000150562
0.00014783
0.000148477
0.000150334
0.057982
0.000194994
0.000146834
0.000163483
0.0208385
0.000150644
0.00943161
0.000151599
0.000174724
0.0550537
0.000148503
0.000193798
0.000156966
0.000158608
0.000416836
0.000150521
0.000198613
0.000170785
0.0497327
0.000148234
0.0187597
0.000157048
0.0305964
0.023172
0.0150726
0.000164263
0.00014854
0.000148863
0.000149728
0.00016179
0.000148807
0.0449981
0.000156624
0.000156395
0.000157143
0.000151972
0.00014652
0.000154233
0.000155321
0.000150725
0.000155092
0.0438243
0.000202137
0.000156588
0.000167249
0.0228273
0.000150547
0.0533749
0.000145687
0.000159644
0.000150704
0.000147452
0.000165078
0.000148175
0.000146798
0.000163009
0.000148888
0.00019426
0.000149652
0.011323
0.000213452
0.000190545
0.000195529
0.000147875
0.0588482
0.0001864
0.000149452
0.00015525
0.00015028
0.0575283
0.000151645
0.000162671
0.000225427
0.0114487
0.000173744
0.000148201
0.0321007
0.000221375
0.00610578
0.000156902
0.000146474
0.000146454
0.000172239
0.000148569
0.0216158
0.000185472
0.000149246
0.000191682
0.000194929
0.000146755
0.0386709
0.0241287
0.000188704
0.000149612
0.0313458
0.000172101
0.000147935
0.0162224
0.000155
0.00014666
0.000147457
0.000157828
0.000161921
0.0387282
0.0570056
0.000162431
0.0380798
0.000158827
0.000148377
0.000168123
0.000147487
0.000256527
0.000146661
0.000148135
0.000152159
0.000149142
0.0412166
0.0150506
0.00019174
0.0260388
0.038151
0.00015709
0.000148365
0.000149656
0.000198702
0.000146554
0.00014753
0.000164677
0.000227634
0.000197418
0.000145686
0.000162812
0.00015895
0.000184
0.00899706
0.000145806
0.000145087
0.000150625
0.000261854
0.00015547
0.047067
0.000151032
0.000148993
0.000146671
0.000147407
0.000152597
0.000188431
0.0313674
0.0365848
0.000157148
0.000148219
0.000277783
0.000148488
0.000202128
0.0304324
0.000158083
0.0305329
0.0332818
0.0482467
0.000167745
0.000157897
0.0324935
0.000157141
0.000159717
0.000168345
0.000190388
0.000149191
0.000384009
0.00014842
0.0123464
0.000265255
0.000145711
0.00015234
0.000165359
0.000197397
0.000158844
0.000148845
0.000155118
0.000151812
0.000153158
0.000214996
0.000149025
0.0195077
0.0164608
0.000148452
0.000157342
0.000161657
0.000148402
0.0304249
0.00784157
0.0598465
0.0239667
0.000148079
0.000152698
0.000154457
0.000149639
0.000191725
0.000159077
0.000149698
0.000170287
0.000154933
0.00061821
0.000162014
0.0172343
0.000151694
0.000150761
0.000163802
0.000177631
0.000173554
0.000148002
0.00665641
0.0342428
0.00557961
0.040784
0.0160018
0.0376904
0.0290018
0.000148011
0.000148278
0.000147591
0.000191384
0.000163834
0.000173469
0.0166674
0.000148088
0.000145495
0.00014856
0.00018951
0.000145489
0.000154054
0.00015175
0.00500916
0.00015097
0.000146703
0.000148467
0.000147877
0.000148996
0.000159752
0.000191353
0.00015976
0.00710213
0.000148247
0.00014741
0.046015
0.042961
0.0146041
0.0003938
0.000163542
0.0021529
0.000146442
0.00016777
0.000150769
0.000148526
0.000151506
0.0307391
0.00014995
0.000177886
0.000308685
0.000148264
0.00014738
0.000155219
0.000188652
0.000149792
0.00407946
0.000147484
0.000190183
0.000148854
0.000148337
0.000154319
0.000170111
0.000149126
0.000204919
0.0481141
0.000188282
0.0425354
0.000148614
0.0272236
0.000201315
0.000148266
0.000271673
0.000149625
0.000161988
0.000149466
0.000147844
0.000147498
0.000148755
0.000149331
0.000155963
0.00017185
0.000148359
0.000148709
0.000165933
0.000145845
0.0176122
0.000148872
0.000158069
0.000158711
0.0267055
0.000219607
0.000148905
0.000188866
0.000146476
0.000156759
0.00017056
0.000322575
0.000165129
0.000149795
0.000179795
0.000167601
0.000175545
0.000203775
0.000160371
0.000184946
0.000168697
0.00017208
0.000150854
0.000146661
0.000119516
0.0131397
0.000152434
0.00014791
0.0104233
0.000146581
0.00016291
0.000147504
0.000173335
0.000274444
0.000144787
0.0186367
0.00015372
0.000149048
0.000185628
0.000146905
0.000161626
0.0251603
0.000162224
0.000222185
0.000147458
0.00014974
0.00016261
0.000149454
0.000149633
0.000155002
0.000156527
0.000172026
0.000174247
0.000148787
0.000162852
0.000146578
0.000148261
0.000149374
0.000148285
0.000233881
0.000146865
0.000151686
0.000193344
0.000146546
0.000147822
0.0408451
0.000149653
0.0129671
0.000150191
0.0372961
0.00019254
0.000164193
0.000280064
0.000171885
0.000250383
0.000148752
0.000188787
0.000154839
0.000146575
0.000147105
0.000151697
0.000157379
0.000147798
0.000168329
0.000147081
0.000150664
0.00835672
0.0246732
0.000282497
0.000151417
0.000163029
0.0316595
0.0361252
0.000149067
0.000153801
0.000254107
0.000148139
0.000162763
0.000280172
0.036216
0.000154375
0.000163045
0.000150173
0.000195034
0.000149891
0.00016047
0.000223574
0.000149083
0.000146969
0.0160507
0.000164476
0.000192601
0.0418199
0.000177797
0.000149958
0.000147113
0.000148442
0.0355567
0.000222013
0.0010837
0.000169528
0.000148741
0.03783
0.000148729
0.000186442
0.000155673
0.000150252
0.000163277
0.000148247
0.0337724
0.0345376
0.000145614
0.000172312
0.000164356
0.000265295
0.000164702
0.000168524
0.000192197
0.00015873
0.000200829
0.000169403
0.000148741
0.000159484
0.000167928
0.00985493
0.000148054
0.000194209
0.000165763
0.000169553
0.000149797
0.0454797
0.000153538
0.000151805
0.000146747
0.00016265
0.000161864
0.000165512
0.000148748
0.000150007
0.000169061
0.00790491
0.000170629
0.000148992
0.000150679
0.000159413
0.00019172
0.000149055
0.000175249
0.000194885
0.000165921
0.0352672
0.000161567
0.024376
0.000198511
0.000148025
0.000215901
0.00014955
0.00015308
0.000157989
0.000159242
0.00017882
0.000164239
0.000164303
0.000165183
0.000157556
0.000152308
0.00014545
0.00016881
0.000152913
0.000156943
0.000217371
0.000154155
0.000157807
0.000147423
0.0182229
0.000174173
0.000148778
0.000152131
0.000151997
0.0210263
0.000185496
0.000157994
0.0335496
0.00020235
0.000213983
0.000177749
0.000193796
0.000147001
0.000183258
0.000147504
0.000155811
0.000229925
0.03025
0.000199359
0.000243918
0.000148808
0.0181062
0.000146975
0.000174926
0.000153577
0.00144952
0.0286091
0.000153305
0.000147969
0.000198731
0.000162241
0.000148007
0.0424801
0.000148639
0.000151962
0.000152953
0.00014949
0.000157455
0.000152098
0.000148734
0.000160264
0.000202249
0.00016194
0.000170616
0.000147998
0.0275692
0.0302465
0.000147828
0.000194574
0.000153527
0.000157249
0.00364934
0.000147803
0.000150405
0.000156323
0.041427
0.00014806
0.000149139
0.000162271
0.00555053
0.000147705
0.000158969
0.00016023
0.000215737
0.000165511
0.000162152
0.000191287
0.000148644
0.000171567
0.000145801
0.0216286
0.000157045
0.000148549
0.000154244
0.000177969
0.000148901
0.00014803
0.000184699
0.0279543
0.000148438
0.021937
0.00014917
0.000145736
0.000171788
0.000148037
0.000146862
0.0201447
0.000149803
0.000162152
0.000185186
0.0596758
0.000211439
0.000146455
0.000153021
0.00015643
0.000148336
0.000148572
0.000148531
5.5616e-05
0.000149221
0.000199199
0.000180912
0.000146945
0.00014592
0.000156938
0.00018096
0.000194116
0.000165647
0.000171041
0.000151889
0.0369361
0.000172614
0.000156699
0.000162004
0.000169633
0.000177694
0.0223436
0.000161002
0.0213011
5.18712e-05
0.0281244
0.000152025
0.000147669
0.000161542
0.000159576
0.00014644
0.00014846
0.00017501
0.000149583
0.000148772
0.000148191
0.000145087
0.000150543
0.000147681
0.0253631
0.000147944
0.00011089
0.00014839
0.000171285
0.000149271
0.00018142
0.000170959
0.00014857
0.019158
0.00015295
0.000149448
0.00016164
0.000146504
0.000158182
0.0001474
0.0305106
0.000152204
0.000163009
0.000170519
0.0168424
0.000156267
0.000201769
0.000215317
0.000167258
0.000147847
0.000149825
0.000173173
0.00017171
0.0257277
0.000146173
0.0390619
0.000148408
0.000168844
0.0380398
0.000160651
0.00103709
0.000153425
0.000158118
0.00015316
0.0392757
0.000157765
0.000148843
0.000166632
0.000184426
0.000150838
0.000148285
0.000148849
0.0628859
0.000149644
0.000155694
0.0437793
0.000154433
0.000148014
0.000168794
0.000153003
0.00278856
0.000145491
0.000148343
0.000146811
0.000155137
0.000148674
0.000147917
0.000170674
0.0433114
0.000147818
0.000148739
0.000848249
0.000148154
0.0190972
0.000150743
0.0541739
0.000146798
0.000152693
0.000146462
0.0221741
0.0413903
0.000157824
0.000168032
0.000155859
0.000147621
0.000148806
0.0299727
0.000148805
0.000174781
0.000146745
0.00016262
0.000149193
0.00562335
0.000146627
0.000163662
0.000146894
0.00019795
0.000217139
0.000146373
0.000164701
0.0316771
0.000171821
0.00186369
0.00100561
0.000189767
0.000152128
0.000159121
0.000178125
0.000223649
0.000147968
0.000160774
0.000156521
0.000147754
0.0198628
0.0456222
0.000172367
0.000185913
0.000198485
0.000159325
0.0386229
0.000146401
0.000146334
0.000178304
0.0238211
0.000191096
0.000185926
0.000220628
0.000146451
0.041576
0.0254246
0.0276993
0.000149286
0.0326027
0.0540243
0.000217861
0.000348228
0.0339648
0.00017545
0.000157182
0.000187336
0.00015467
0.00014786
0.000217072
0.000177291
0.000145354
0.0276229
0.000149173
0.000157128
0.000162743
0.000155405
0.000212179
0.00016004
0.0138973
0.000163414
0.000155266
0.000129103
0.0573753
0.000184144
0.000150171
0.000154775
0.000173619
0.000167144
0.00014659
0.000165917
0.000166554
0.000184452
0.000147907
0.000189169
0.000152551
0.0001666
0.0109897
0.000202919
0.000151661
0.000178809
0.0372852
0.000149085
0.000150205
0.0433967
0.000196788
0.000152112
0.000152262
0.000148463
0.00017157
0.000152791
0.0327016
0.000178728
0.000150157
0.000149438
0.00016613
0.000157084
0.000203514
0.0285567
0.000146944
0.000148081
0.000155467
0.00014922
0.000151737
0.000150378
0.000149627
0.00015479
0.000147454
0.000153163
0.000149451
0.000164416
0.000218852
0.000149736
0.0149211
0.0190781
0.000145798
0.000178842
0.000179805
0.000174555
0.000150506
0.000177174
0.000154435
0.000168163
0.000156359
0.000150639
0.000149335
0.0258616
0.000154979
0.000417612
0.000150519
0.000148548
0.000147954
0.000170598
0.000147719
0.000166125
0.000169608
0.000233091
0.000147196
0.0001989
0.000264941
0.0358463
0.0001464
0.000183335
0.000207739
0.000259252
0.000215181
0.000150611
0.000148931
0.000183833
0.00021994
8.82511e-05
0.00016211
0.000194637
0.000149498
0.000146704
0.000163066
0.000149226
0.000149383
0.000185752
0.000149744
0.000169116
0.000146732
0.0543856
0.0211518
0.000750823
0.00954226
0.0336261
0.000149202
0.000148869
0.0145322
0.000146265
0.000146445
0.00014574
0.00017785
0.0451103
0.0272548
0.000156052
0.000147822
0.000150589
0.000161726
0.021259
0.000148068
0.00114326
0.0543871
0.000149181
0.000149168
0.0252412
0.000174016
0.000150155
0.00014825
0.0194202
0.038287
0.000147536
0.000189335
0.000149655
0.0368512
0.000258844
0.000150494
0.0335515
0.0191394
0.0014482
0.00014663
0.000147944
0.000149591
0.000149904
0.0430038
0.000147247
0.000187007
0.000194227
0.023699
0.00014944
0.000169743
0.000201627
0.000166387
0.0116411
0.0577184
0.000145323
0.000153102
0.000153254
0.000183011
0.0339872
0.000145002
0.0170834
0.000159057
0.000162723
0.000150556
0.000147413
0.000195448
0.000162483
0.0223293
0.000149225
0.00016899
0.00014926
0.000181618
0.000151559
0.042783
0.00018788
0.000189032
0.000176875
0.000147838
0.000151976
0.000176239
0.000178746
0.0392075
0.0255654
0.000148895
0.00172962
0.000169554
0.0625675
0.000153929
0.000164112
0.000162063
0.000147979
0.00636997
0.000148319
0.000158171
0.0222155
0.0529142
0.000216493
0.0470817
0.000156175
0.000165649
0.000146068
0.0550065
0.000155335
0.000170425
0.000145993
0.00842962
0.000144827
0.000147802
0.000157861
0.000158403
0.000159192
0.000147881
0.0268658
0.000163071
0.000147281
0.000161511
0.0226004
0.000203423
0.000148574
0.0622046
0.000152411
0.000158745
0.000157654
0.00014568
0.000171311
0.000147771
0.000276844
0.000170746
0.00015399
0.000148271
0.000196902
0.000161871
0.000145995
0.00281229
0.000223457
0.000192837
0.000145522
0.000212911
0.000148868
0.000182177
0.000154665
0.000176427
0.000228749
0.0262199
0.000159716
0.0463033
0.000166974
0.000156427
0.000146551
0.0115753
0.000175476
0.00017922
0.000165884
0.000149586
0.00411303
0.00017599
0.00019785
0.000192734
0.0362772
0.0269169
0.00026797
0.0354179
0.000156814
0.00015855
0.000148544
0.000147894
0.000145117
0.000187379
0.000156764
0.000159434
0.064435
0.000147428
0.000146768
0.000162068
0.000184511
0.00015503
0.000146557
0.056264
0.00015181
0.000164385
0.000149027
0.0270825
0.000156822
0.0241593
0.000165731
0.000159076
0.000167969
0.000148499
0.0121143
0.000200984
0.000172732
0.000148314
0.000147144
0.0160477
0.0522876
0.0313709
0.000146754
0.000173147
0.000206427
0.000147765
0.000147839
0.00014826
0.0454982
0.000170432
0.000160061
0.000154391
0.000153373
0.0137659
0.000174829
0.000193625
0.000153604
0.000158157
0.000145051
0.000177609
0.000168864
0.000148302
0.0288959
0.0595053
0.0476207
0.0261582
0.0486455
0.0347882
0.0176839
0.000151715
0.000146649
0.00513032
0.0355692
0.000175359
0.00014846
0.000161851
0.000148779
0.00014777
0.00070542
0.0531533
0.000170815
0.000147846
0.000198111
0.000177677
0.000165978
0.0276886
0.0002153
0.000195294
0.000147183
0.0430211
8.73125e-05
0.000196477
0.000157658
0.000162962
0.000149496
0.000146885
0.000161629
0.000164717
0.000152478
0.000161649
0.000154963
0.000153427
0.000190579
0.0251966
0.000158639
0.00016246
0.035619
0.000189309
0.000148785
0.000189564
0.000209911
0.019235
0.000162766
0.000148115
0.000156294
0.000154711
0.000157751
0.000145668
0.000159246
0.00015719
0.000164033
0.000188551
0.000149491
0.000150334
0.0268044
0.0316526
0.0583219
0.00020167
0.000179508
0.000144721
0.000148686
0.000156933
0.000146012
0.0401891
0.000148564
0.000149801
0.000145896
0.0294826
0.00200699
0.000149954
0.000170358
0.000155867
0.000160746
0.00015677
0.000160026
0.000161779
0.000161086
0.0243901
0.000153614
0.0355926
0.000162045
0.0593097
0.000156417
0.00014733
0.000146513
0.000177843
0.000184826
0.000146545
0.00016217
0.000156526
0.000170002
0.00811831
0.0314824
0.00173596
0.000149799
0.000209441
0.000157414
0.00016107
0.000148241
0.000172613
0.000151697
0.0207733
0.000235577
0.000162989
0.000148481
0.0310876
0.000155988
0.0249086
0.0334228
0.000190879
0.000152379
0.000182969
0.00599919
0.000208466
0.0367365
0.000170404
0.000147437
0.000162354
0.000146733
0.0156838
0.000152931
0.000158045
0.00019806
0.0612834
0.000147237
0.000147749
0.0464117
0.000163069
0.0411046
0.000159097
0.000148238
0.000163391
0.00019061
0.000162524
0.000139667
0.000160691
0.000206615
0.000152867
0.000149588
0.000147594
0.000193605
0.000150674
0.000177061
0.000148794
0.000147818
0.000191815
0.000153456
0.000148019
0.000148065
0.000160179
0.000205378
0.000162691
0.000161709
0.000155089
0.000170632
0.000148382
0.000182038
0.000157124
0.000163299
0.000166636
0.000154827
0.000171828
0.000163012
0.000146598
0.00017175
0.0556001
0.0244711
0.000147949
0.00026334
0.0244192
0.000147816
0.000150766
0.000205657
0.0298699
0.000156485
0.0242142
0.000199009
0.00014765
0.000175479
0.000145101
0.000153527
0.000170723
0.000240858
0.000192076
0.000191804
0.000200196
0.0266518
0.0400784
0.000150311
0.0325532
0.000148441
3.90642e-05
0.039094
0.000148553
0.000148411
0.0238167
0.000149235
0.000148519
0.00019711
0.034621
0.000191284
0.000153463
0.0353971
0.000148567
0.0298685
0.0279601
0.000149193
0.000207994
0.000264754
0.0405635
0.0254886
0.0285331
0.0230593
0.000146919
0.000151741
0.000170772
0.000171153
0.000148505
0.00018937
0.000148324
0.0290598
0.000195704
0.000163965
0.000193525
0.0295329
0.000195197
0.000191323
0.000165609
0.022405
0.000201827
0.000152651
0.000145346
7.7356e-05
0.000160385
0.000146234
0.0501709
0.000147907
1.38269e-05
0.000149357
0.0494245
0.000152758
0.000147878
0.00047548
0.000156154
0.00016028
0.0214435
0.00323579
0.000251555
0.000154665
0.000163674
0.000151556
0.000161394
0.000182544
0.000161727
0.000149381
0.00024537
0.000170517
0.000159193
0.0222443
0.000162216
0.000161433
0.000186494
0.000173784
0.000163433
0.000147837
0.000188439
0.000146509
0.000182285
0.000208664
0.0326358
0.000146867
0.000161838
0.0295599
0.00015024
0.000171575
0.000157081
0.000163
0.0139006
0.000170272
0.000152098
0.00121467
0.000146943
0.0305239
0.000148706
0.000149934
0.000181931
0.0316422
0.000158738
0.000186318
0.000198496
0.000157203
0.000148311
0.000175173
0.000164564
0.0629823
0.000155483
0.000300795
0.000184571
0.000157134
0.000156403
0.000174379
0.000161141
0.000167386
0.000170139
0.000161794
0.000152052
0.000147796
0.000247672
0.000148292
0.000156013
0.000145289
0.000179552
0.000156231
0.000169878
0.0315624
0.000151585
0.000191606
0.000144629
0.000149325
0.000149175
0.000149351
0.000153699
0.000147371
0.000175672
0.022507
0.000169587
0.000164112
0.000152369
0.000147937
0.000200415
0.000148314
0.00151792
0.000185942
0.0328208
0.000184101
0.000160037
0.000154314
0.000149097
0.00015762
0.000169764
0.000163961
0.0409798
0.000169311
0.0636691
0.000184158
0.00014934
0.000146658
0.0241841
0.000147678
0.000156371
0.000165955
0.000198696
0.000150277
0.0453751
0.000149137
0.000153807
0.000148811
0.000150338
0.000175383
0.000178994
0.000148593
0.000157872
0.000160013
0.000164332
0.000168709
0.000196733
0.000189419
0.000192479
0.000182513
0.000153365
0.000150211
0.000168415
0.0311615
0.0120462
0.0329199
0.000157541
0.000188739
0.000178558
0.000149562
0.000147755
0.000169955
0.00014885
0.000157789
0.0261829
0.000147718
0.000146502
0.000203499
0.000594216
0.00016449
0.000217408
0.000149182
0.0189124
0.00016355
0.0590867
0.000157319
0.000148307
0.0305216
0.000165479
0.000148523
0.000169905
0.000149651
0.000181657
0.000156223
0.000164615
0.0431236
0.000159459
0.00428389
0.000147325
0.0604795
0.000149119
0.000153869
0.000149414
0.000165358
0.000148852
0.000165415
0.0314889
0.000231965
0.000166251
0.000158521
0.000167927
0.000147226
0.000147604
0.000149891
0.000216105
0.000152744
0.0514325
0.0255382
0.000180767
0.000149374
0.000182577
0.000188743
0.000184999
0.000153167
0.0336549
0.000147927
0.000144742
0.000147756
0.000274393
0.000147932
0.000148353
0.0322474
0.000147797
0.000186209
0.000170568
0.000146385
0.0406539
0.000155043
0.0500335
0.000147363
0.000222042
0.000150019
0.000166861
0.035575
0.000171547
0.000147512
0.000154319
0.00232228
0.000157658
0.000183223
0.00015736
0.000154269
0.000179969
0.000156806
0.000148166
0.00766745
0.000156536
0.000155075
0.000183631
0.000147862
0.000146838
0.000149186
0.000156952
0.000149068
0.000154254
0.00583778
0.0164014
0.000170405
0.0109816
0.000169662
0.000158946
0.0618917
0.0578347
0.000150122
0.0193319
0.000160522
0.025257
0.000217559
0.000157554
0.0020167
0.0338402
0.0255605
0.000216916
0.0183951
0.000162508
0.0001688
0.000157319
0.00015332
0.000148805
0.000230666
0.00014989
0.0212803
0.000172725
0.000188155
0.000145097
0.000173474
0.000163269
0.000152454
0.000149953
0.000148671
0.000172355
0.000150694
0.000148301
0.000161812
0.0582735
0.000151702
0.000182801
0.000146573
0.000172447
0.000168559
0.000149187
0.00015488
0.000147389
0.048679
0.0390831
0.00018679
0.000285907
0.000159616
0.000176679
0.000148859
0.000162144
0.000148175
0.000148856
0.000149509
0.0185611
0.000146254