/*--------------------------------*- C++ -*----------------------------------*\
| =========                 |                                                 |
| \\      /  F ield         | OpenFOAM: The Open Source CFD Toolbox           |
|  \\    /   O peration     | Version:  v2012                                 |
|   \\  /    A nd           | Website:  www.openfoam.com                      |
|    \\/     M anipulation  |                                                 |
\*---------------------------------------------------------------------------*/
FoamFile
{
    version     2.0;
    format      ascii;
    class       surfaceScalarField;
    location    "750";
    object      meshPhiCN_0;
}
// * * * * * * * * * * * * * * * * * * * * * * * * * * * * * * * * * * * * * //

dimensions      [0 3 -1 0 0 0 0];
oriented        oriented;


internalField   nonuniform List<scalar> 
20580
(
8.83843e-05
-4.92383e-05
-3.95369e-05
-0.000114703
0.000112279
5.11194e-06
-8.03318e-05
-3.21616e-05
0.000134406
-0.000160698
2.63595e-05
2.50475e-05
2.77088e-05
-3.40925e-05
-6.66871e-05
0.000201241
-0.000131499
0.000291964
-0.000314695
5.29594e-06
2.64122e-05
-2.04634e-05
4.87963e-05
8.30613e-06
-5.71222e-05
-0.000132795
0.000797001
-0.000659865
8.89398e-05
-0.000222057
0.000134075
-6.51659e-05
-0.000378232
0.000451827
0.000658744
-0.000122847
-0.000533188
-1.14357e-05
-2.40181e-05
3.55106e-05
-2.13733e-05
-7.09943e-05
9.23501e-05
0.000193515
-1.67322e-05
-0.000177989
-0.000100758
8.82134e-05
1.24839e-05
-0.000156059
-2.58936e-05
0.000185446
-5.37007e-05
1.83851e-05
3.85907e-05
3.07113e-05
5.70396e-05
-5.56373e-05
7.71754e-05
-2.11699e-05
0.000108008
0.000328559
-0.000431121
-0.000181902
0.000101102
8.10497e-05
2.4416e-05
-1.26764e-06
-1.94564e-05
-0.000110437
2.97251e-05
8.09668e-05
0.000243874
-0.000198696
-4.61898e-05
0.00011624
-4.5501e-05
-7.07882e-05
3.05429e-05
-2.75333e-05
-3.02384e-06
0.000113502
-8.88516e-05
-2.47509e-05
-3.52066e-05
0.000235976
-0.000193168
2.36096e-06
0.000112094
-0.000112804
-4.9478e-05
0.000336882
-1.21636e-05
-5.92146e-05
7.16512e-05
-4.44351e-05
1.01377e-05
3.42631e-05
-0.000107275
-8.71036e-05
0.000195002
-8.65135e-05
0.00013557
-4.88866e-05
1.13842e-06
2.45e-05
-0.000158271
0.000111034
4.72269e-05
7.19026e-05
-5.22318e-06
-6.66265e-05
0.000663132
-0.000490941
-0.000164514
1.98255e-05
3.3377e-06
-2.31905e-05
7.74966e-05
3.59894e-05
-5.16555e-05
-5.38396e-05
-0.000287796
0.000216182
7.25022e-05
4.42811e-05
5.25973e-05
-9.69103e-05
3.01732e-05
0.000406422
-0.00042609
-7.12058e-06
7.06005e-05
0.000100911
-0.000142352
4.11636e-05
0.000493937
-0.000164517
-0.000322127
3.021e-05
0.000630787
-9.3811e-06
-2.99087e-05
3.92643e-05
0.000812556
-0.00024614
-0.000563901
-3.10697e-07
0.000192645
0.000285782
-0.000156052
-0.000132204
-6.3451e-05
6.59603e-05
-2.54597e-06
0.000447736
0.000220926
-6.12154e-05
4.91541e-05
2.51803e-05
-5.30306e-06
0.000150426
-0.000115362
-3.53183e-05
2.1308e-06
-2.20719e-05
2.01245e-05
0.000382455
-0.000438611
4.78533e-05
6.832e-05
0.000707305
-0.000745299
4.1447e-05
0.000252878
0.000247256
0.000284951
-0.000144897
-0.000139413
0.000192448
9.30851e-05
1.73751e-05
-1.52209e-05
5.2505e-05
-0.000264494
0.000127271
0.000366137
-0.000485863
-0.000139819
0.000132221
7.64376e-06
-4.81228e-05
9.83008e-05
-4.93779e-05
-4.40298e-05
6.93134e-05
-2.51622e-05
-0.000716535
0.000496327
0.000225476
-7.11256e-06
-1.47953e-05
-0.000167026
0.000216592
-5.12694e-05
0.000185666
0.000301887
-0.000481883
-6.11888e-06
-9.44812e-05
-0.000119102
9.90493e-05
2.35456e-05
-1.38998e-05
-9.61762e-05
6.91496e-05
-0.000588174
0.000530104
-0.000317457
0.000452191
-9.93258e-05
-3.31142e-05
0.000132712
-0.0002589
0.000153555
-1.23627e-05
-3.17736e-05
4.42139e-05
-2.36312e-05
1.66773e-05
9.31876e-05
3.67875e-05
-0.000129324
0.000406732
-0.00029402
-4.5298e-06
-7.46264e-05
7.91426e-05
0.000687542
-0.000665731
-1.66237e-05
-8.76404e-05
9.13391e-05
0.000132026
0.00068242
0.000244691
-0.000297997
-1.00238e-05
-4.03063e-05
-1.55575e-05
0.000108426
-7.11459e-05
3.2677e-05
3.84668e-05
0.000167654
-0.000257466
9.06526e-05
-0.000773311
0.000356108
0.000427456
-5.92052e-05
-0.000131801
0.000190509
6.82819e-06
-2.77475e-05
2.09744e-05
-0.000229735
9.4548e-05
0.000135714
9.97654e-05
-0.00015931
-0.000151724
0.000393174
-0.000241494
-0.000378273
6.57327e-05
0.000312249
0.000673376
-0.000744775
7.59176e-05
-8.41e-05
0.000384294
-0.000291416
-8.31741e-05
6.26285e-05
2.11493e-05
-0.000427925
0.000354502
4.2236e-05
-8.84311e-05
0.000289066
-4.82754e-05
2.79495e-05
-0.000179511
-0.000472616
0.000146038
0.000330294
-0.000445986
0.000487794
-4.55993e-05
-3.55141e-05
8.14434e-05
0.000119598
-0.000115942
-2.78228e-06
0.000102734
-1.10128e-05
-9.19715e-05
0.000121312
0.000162278
-0.000300448
0.000171607
0.000137369
-2.47699e-05
4.07599e-05
0.00010861
2.58457e-05
-1.4863e-05
-0.000124842
-0.000276524
7.44596e-05
0.0002031
0.000183177
6.79053e-05
-0.000243888
-0.000286981
-0.000154667
0.000447943
-3.38408e-05
2.16866e-05
1.20248e-05
-3.54607e-05
3.84744e-05
-2.95639e-06
0.000269511
-1.17631e-05
-0.000258502
-0.000259097
-0.000502047
0.000260161
-0.00021387
-4.44652e-05
-9.11477e-06
-2.31787e-05
3.23056e-05
1.53469e-05
-6.94037e-05
5.46073e-05
-0.000120082
0.000453523
0.000284259
-3.16805e-05
-0.000248569
-6.15821e-05
-9.67863e-05
-1.8274e-06
-4.26495e-05
0.000185528
-9.52179e-05
-5.48137e-05
5.89136e-06
4.8875e-05
-0.000275379
-5.20127e-05
9.01078e-05
-0.000464364
0.000179242
0.000285347
2.57877e-06
9.32999e-05
-9.63018e-05
5.35825e-05
-0.000153078
0.00011259
0.000476873
-0.000586024
0.00075869
-6.67888e-05
-1.20935e-05
0.000227934
-0.000216084
-7.63724e-05
6.31208e-05
1.33901e-05
-0.000568686
0.000275353
0.000298743
-8.68451e-05
-2.86989e-05
9.75244e-05
-4.91243e-06
6.80752e-05
-6.30838e-05
0.000241211
2.0094e-05
0.000159432
-5.98767e-05
5.66399e-05
-0.00010205
0.000116041
4.27349e-06
-2.08524e-05
4.61065e-05
-2.29789e-05
0.000534505
-0.000760488
0.000228517
-0.000797575
0.000697466
0.000102558
-0.000471918
0.000479992
2.56357e-06
2.14698e-05
5.04955e-05
7.14054e-05
-8.99647e-05
1.82266e-05
0.000219937
-0.00018275
-3.9549e-05
5.48186e-05
-4.66042e-05
-3.16063e-06
-0.000114024
-3.65253e-06
0.000117441
-5.35393e-05
-2.69983e-05
0.000166818
-6.62229e-05
2.67916e-05
-3.8169e-05
8.3856e-05
-6.81297e-05
-1.58936e-05
8.69798e-07
8.27557e-05
3.45763e-05
-4.40348e-05
-0.000338415
-0.000130314
-3.64902e-05
1.50927e-05
2.12251e-05
2.77704e-05
0.000394316
-0.000413449
-0.000103522
-0.000185882
-3.933e-05
6.79102e-05
-2.63764e-05
-2.81795e-05
6.10544e-05
-1.81796e-05
-2.53897e-05
-4.54146e-05
-2.54572e-05
8.19929e-05
-5.64991e-05
6.96962e-05
5.89564e-05
-0.000128822
-0.000260775
0.000167231
-0.000208663
-2.91619e-05
0.000235353
-8.25591e-05
0.000152262
-3.42494e-05
-4.94242e-07
-0.000119218
0.000431367
-0.000120403
-0.000307219
-8.61593e-05
0.000101939
-4.75195e-05
-4.41533e-05
5.2515e-05
-5.73477e-05
1.63708e-05
-7.54185e-05
-0.000544849
0.000471659
7.36989e-05
-0.000480571
0.000774292
-0.000290881
-0.000397613
0.000381468
2.61521e-05
-2.30734e-05
-5.34659e-05
-1.98235e-05
9.08075e-05
1.37001e-05
-3.76716e-05
-0.000161731
9.80468e-05
-0.000192806
-0.000370382
-2.75027e-05
-0.000170323
0.000196956
-4.55332e-05
6.19216e-05
-2.84748e-05
-5.81836e-05
8.5661e-05
0.000248381
2.84348e-05
-0.000270628
0.000371826
-0.000170851
-0.000201242
7.03504e-05
7.86529e-05
-0.000148914
2.77302e-05
8.40485e-06
-3.61155e-05
-2.50514e-05
2.42274e-05
1.91847e-06
8.64443e-05
-0.000108128
-0.000163512
0.000157977
5.90828e-06
3.87053e-05
-1.09227e-05
-0.000347858
-0.000258919
0.000607427
-0.000172571
3.71849e-05
0.00013468
-5.16586e-05
6.3789e-05
-1.21634e-05
-0.000222231
0.000218487
7.08786e-06
0.000219772
-4.73707e-05
-0.000173108
0.000169299
-0.000450914
0.000123809
1.44789e-05
-0.000207825
0.000195729
-0.000159162
-3.6567e-05
0.000196936
-7.95568e-05
-0.00034262
0.000426782
0.000686721
-0.000654055
3.46524e-05
-4.73998e-05
1.27674e-05
0.000176729
-8.92077e-05
-8.37421e-05
-2.94835e-05
-0.000114364
-0.0001703
-8.08452e-05
-6.94891e-05
2.47e-05
4.45657e-05
2.73057e-05
-3.95135e-05
1.54246e-05
4.01448e-05
-5.57419e-05
0.000508388
-0.000150767
-0.000356996
-5.1984e-05
-0.000121753
8.90823e-07
-9.06046e-05
9.23196e-05
-0.000250311
0.000238106
0.000633066
-4.10387e-05
-0.000581575
-0.0002456
-0.000181028
0.000128533
5.25573e-05
-0.000396219
-0.000147827
-0.000202135
-1.60166e-05
-5.675e-05
-0.000627634
-2.36825e-07
-2.39087e-05
0.000199573
-0.000226558
-0.000112655
-6.88962e-05
-2.16157e-05
2.52068e-05
-2.74426e-06
-8.38256e-05
-0.000145143
5.21617e-05
5.02629e-06
-0.000179618
-2.53207e-05
0.000205872
5.23615e-06
-2.56252e-05
2.04595e-05
0.000112891
-6.86283e-05
0.000201684
-3.96665e-05
6.77129e-05
-2.81805e-05
-0.000209962
-8.82206e-06
0.000218513
-1.30873e-05
4.7715e-05
-0.000246504
3.56779e-05
-9.31044e-05
-0.000163577
0.000181015
0.000238436
-0.000415853
7.82942e-05
-6.5203e-06
-7.17153e-05
4.73605e-05
-3.79896e-05
-8.57521e-06
-4.88614e-05
8.37219e-06
5.92284e-05
-1.13733e-05
-5.23686e-05
6.47334e-05
-0.000159838
-1.71408e-05
-9.68575e-05
-8.07989e-05
0.00012566
-4.47657e-05
-9.77698e-05
-0.000292199
-1.34617e-05
0.00066301
-0.000656637
-2.10612e-06
-7.21572e-05
6.58706e-06
6.53858e-05
-2.63855e-05
3.80196e-05
-1.20872e-05
4.00264e-05
-5.07349e-05
-6.74049e-05
1.61874e-05
4.31119e-05
4.41381e-06
0.000808654
-0.000236844
-0.000564338
-0.000345107
0.000193082
7.56109e-05
-0.000150071
7.43157e-05
-4.14227e-05
2.41713e-05
1.69277e-05
0.000170105
-0.000695455
0.00053309
1.74888e-05
0.00067132
0.000112784
-2.79548e-05
-3.58267e-05
6.39882e-05
-0.000109502
0.000141959
-3.25043e-05
-8.04033e-05
4.4326e-05
3.61097e-05
-2.17012e-05
0.000210367
-3.06626e-05
-3.03882e-06
4.07188e-05
-2.43809e-05
-1.70864e-05
-2.43362e-05
-8.26851e-05
0.00010691
-5.15514e-05
-1.40063e-05
2.71072e-05
-5.49976e-05
1.30247e-05
-2.27996e-05
9.71953e-06
-0.000102125
6.51691e-05
3.86929e-05
0.000130895
-5.71017e-05
-7.41932e-05
-6.61447e-05
-7.10187e-05
0.000136984
-0.000551059
0.000324465
0.000237146
0.00042723
-0.000430304
1.31699e-05
5.27639e-05
-7.72334e-05
0.000257668
-0.000164023
-9.20254e-05
6.76864e-05
0.000149524
-0.000210701
-0.000163618
0.000204681
-3.60918e-05
0.000163043
0.000479474
4.02457e-05
2.16823e-05
-4.08448e-05
2.70924e-05
4.05554e-05
-6.69989e-05
-3.36024e-05
-8.5507e-06
5.7324e-05
9.63296e-06
-6.56456e-05
-0.000621873
0.000187713
0.000442067
-0.000103626
-2.24913e-05
-1.13911e-05
0.000757172
-0.00052802
-0.000226293
-3.92436e-05
-6.05733e-06
2.94231e-05
-2.34587e-05
0.00057039
-0.000454775
0.000622852
0.000136303
7.06385e-05
-6.0652e-05
-4.63418e-05
1.29995e-05
3.32085e-05
-0.000102337
9.90768e-05
3.40253e-06
-6.08793e-05
3.92549e-05
1.67716e-05
-3.29902e-05
7.68137e-05
-1.85219e-05
-1.8348e-05
0.000418147
-6.40569e-05
3.20337e-05
2.82094e-05
2.52691e-05
-3.15322e-05
-4.48189e-05
2.62191e-05
1.80809e-05
0.000134516
8.27924e-05
6.05175e-05
-0.000126678
0.000180229
-0.000116917
-6.33107e-05
0.000129684
-2.31677e-05
-0.000105987
2.58634e-05
-9.86394e-05
7.34592e-05
-0.000411636
0.00017091
0.000240481
-1.22373e-06
-5.35191e-05
-3.18241e-05
2.5611e-05
6.26332e-06
5.59404e-06
2.49405e-05
1.28063e-05
0.000241164
0.000108269
-2.10457e-05
-8.72125e-05
6.64493e-05
1.339e-05
-0.000182431
0.000193604
-1.14956e-05
1.22624e-05
-0.000195153
6.44099e-05
-0.000412017
-3.07927e-05
-2.85904e-05
6.5108e-05
0.000532471
-0.000180386
-0.000349965
6.06755e-05
-6.52266e-05
-0.00042266
0.000193938
0.000228413
-0.000106488
0.000125053
-6.52076e-07
-9.28518e-05
6.93085e-05
-0.000359111
4.49214e-05
0.000318239
9.2822e-05
3.74542e-05
-0.000158313
-0.000151733
-0.00038767
4.81062e-05
0.000520038
-0.000389705
-0.000128346
9.85339e-05
0.000188404
-0.000127686
-5.66664e-05
-1.96998e-05
-2.66413e-05
-3.40573e-05
2.78746e-06
-0.000171648
-0.000534821
0.000461307
-0.00021675
1.88467e-05
0.000101973
1.43321e-05
-0.000116458
0.000225042
-0.000702926
2.05621e-05
-3.59309e-05
-6.37902e-05
5.14714e-05
1.95367e-05
0.000111279
0.000410404
1.72272e-06
-6.92496e-05
-0.000544087
-0.00017544
4.3765e-05
0.000132162
0.000201443
-0.000106515
4.10498e-05
-4.06552e-05
2.25857e-07
0.000118534
-3.65559e-05
0.000138442
-0.000130597
0.00040965
3.53926e-06
5.19508e-05
6.21478e-06
-5.80796e-05
7.87026e-05
-9.26515e-05
1.58887e-05
-3.12309e-05
-1.36774e-05
7.85881e-05
-4.82144e-05
-3.04915e-05
3.01636e-05
-2.32703e-05
-0.000264294
-9.03696e-05
0.000118397
-0.000229414
0.0001002
5.01419e-05
-3.97394e-05
-7.82035e-05
0.000117969
0.000105251
6.50275e-05
-0.000170314
-6.79239e-05
-2.09678e-05
8.88931e-05
-0.000221923
-4.10781e-05
0.00026722
-6.26642e-05
3.7328e-05
-0.00012322
7.154e-05
7.99656e-05
2.10741e-05
-9.92115e-05
1.95443e-05
5.8756e-05
-8.42784e-05
0.00011683
-3.05865e-05
2.34446e-05
5.48476e-06
-2.6542e-05
4.50411e-05
8.62017e-05
0.000283179
-8.7756e-05
-2.14206e-05
4.15763e-05
-2.06629e-05
-0.00021274
8.06114e-05
0.000132396
-0.00022346
-0.000571584
-6.74646e-05
0.00013478
-6.52352e-05
0.000127929
0.000130537
-0.000197966
-0.000388468
0.00047882
-8.26066e-05
-3.3234e-05
-4.75151e-05
5.40375e-05
-2.88176e-05
-2.51831e-05
-0.000352627
-0.000359841
-0.000107333
0.000143809
0.000110877
3.71941e-05
-0.000148094
0.000189353
3.59401e-05
-0.000220943
0.000229102
-0.000158143
-7.04207e-05
0.000231727
-4.23326e-05
-0.00019078
-0.000109709
7.48886e-06
0.000115344
0.000106615
7.69883e-05
0.000165665
7.15808e-05
-0.000234487
1.20884e-05
-1.54853e-05
6.71598e-05
-5.37771e-05
2.85047e-05
-0.000109224
-1.82514e-05
2.77682e-05
-0.000206833
0.000363465
0.000451491
-2.49502e-05
-0.000149228
-0.000161705
6.98601e-05
9.35047e-05
-0.00012387
0.000241535
-5.60349e-05
-0.000197359
0.00025972
-6.63434e-05
-3.31553e-05
2.38384e-05
-3.32753e-05
9.47163e-06
-7.53031e-05
-2.74212e-05
0.000102808
-0.000175281
-3.74006e-05
2.1853e-05
-0.000105417
2.45662e-06
0.000102602
3.36739e-05
-0.00014319
-0.00012821
0.000149514
-2.52898e-05
1.94482e-05
8.89265e-05
0.00014781
3.63076e-05
-0.000183841
-0.000103091
0.000182295
-7.90307e-05
-0.000152872
0.000336685
-3.36024e-05
5.21012e-05
-1.8805e-05
-0.000732809
0.000509557
0.000227107
1.24586e-05
-2.63573e-05
-5.33897e-05
-1.00927e-05
-7.85634e-05
8.60267e-05
-7.6457e-06
-0.000687155
0.000558097
3.7835e-05
7.66504e-05
2.73259e-05
-0.000135253
-0.000300306
3.52648e-05
0.000276761
3.2645e-05
-8.82863e-06
2.95325e-05
-5.88595e-05
4.28335e-05
3.57513e-05
0.000161342
-4.60798e-05
-0.000115064
-0.000271068
5.46077e-05
0.000439674
0.000274597
-0.000713463
8.88408e-05
-0.000128504
0.000714464
-0.000517338
0.000728419
-0.00028788
-0.000148495
8.68103e-05
6.1671e-05
2.28918e-05
3.11853e-05
0.000319855
-0.000435123
-0.000140315
9.26298e-05
4.76065e-05
0.000675607
3.32618e-05
-1.41746e-05
-0.00040483
-1.94657e-05
0.000213282
3.70217e-06
0.000131695
0.000102051
-0.000234894
-0.000321338
0.000497812
-0.000169398
9.76326e-05
-0.000219962
0.000126426
-0.000162858
-0.000112795
-1.90925e-06
-8.16903e-05
8.68729e-05
-4.25685e-05
-5.4835e-05
9.68754e-05
-0.000549332
0.000373627
0.000188185
-0.000120898
0.000221889
-0.000103845
-5.37434e-05
0.000106322
-0.000460334
0.000275169
0.00018632
7.74541e-06
3.61079e-05
-4.89553e-05
1.57069e-05
-0.00042082
0.000413511
3.32983e-05
0.000126364
-0.000108615
8.25265e-05
2.17351e-05
-0.000230751
7.41247e-05
0.0001571
0.00010596
1.4105e-05
-0.000120131
-6.41601e-05
2.51147e-05
-2.91112e-05
0.000125529
-9.68395e-05
-0.000190331
0.000563599
-2.17583e-05
-0.00053269
-6.43109e-06
-3.16993e-05
3.8162e-05
-4.02802e-05
0.000151713
0.00025098
-0.00039957
-0.00023549
-0.000348088
0.000588978
-1.02154e-05
-0.000131256
-0.000332773
4.7453e-06
-0.000154106
0.000149717
0.000134875
0.000541969
0.0002237
-0.000240382
1.94841e-05
0.000149498
0.000127858
4.7151e-05
-0.000176004
3.31535e-05
-7.51906e-06
-3.04499e-05
-7.50602e-05
4.57836e-05
-0.000121407
0.000227049
-0.000455341
0.00023077
8.27498e-05
0.000725242
-0.000637569
-7.98069e-05
-9.26911e-05
-2.24899e-05
0.000252524
3.15976e-05
-7.71103e-05
-3.89357e-05
-0.000119995
-0.000343379
-0.000214481
-0.000244206
-5.85842e-05
-1.98388e-05
6.25878e-05
-6.85783e-05
-5.44764e-05
0.000123087
-3.33145e-05
2.69121e-05
-0.000123994
8.14622e-05
-0.000110707
0.000139589
-2.88056e-05
-4.25799e-05
-6.57587e-05
-8.94018e-06
7.47159e-05
1.31096e-05
0.000179189
-0.000520701
0.000342462
-6.01024e-06
0.000336352
-0.000324823
0.000150142
7.92274e-05
0.000729117
7.10131e-05
0.000126051
-0.000505879
0.000477816
-0.000146342
-0.000330619
6.49125e-05
-1.9433e-05
-4.52136e-05
-6.30258e-06
8.20385e-05
-7.43064e-05
-0.000393672
-0.000216025
0.000612501
3.99443e-05
-0.000228705
0.000190029
-2.06886e-05
9.70157e-05
-7.62106e-05
2.91217e-06
-0.000619946
0.00061867
8.37489e-05
-7.18514e-05
-1.1821e-05
0.00015024
0.000373049
-0.000514479
-3.54702e-05
8.25295e-06
2.72576e-05
4.51407e-07
-0.00023054
0.000511432
-0.000433038
9.35483e-05
-1.56803e-06
-9.17847e-05
4.58432e-05
0.00011093
-0.000156432
-1.56773e-05
0.000274998
-0.00012459
8.30573e-06
0.00011645
0.00018751
-3.71555e-05
-0.000165749
-5.67132e-05
0.000221499
2.90944e-05
6.07195e-05
-8.99315e-05
-2.99386e-05
-1.83143e-05
-5.47932e-05
2.29776e-05
3.18528e-05
0.000492001
-0.000262035
0.000133738
-4.69379e-05
-1.99412e-05
1.69947e-06
1.82387e-05
1.27948e-05
-0.00017634
-8.14655e-05
8.22271e-05
-5.35834e-07
3.87125e-05
0.000480808
-0.000511208
0.000515515
-8.35801e-05
-7.52863e-05
0.000159055
4.3679e-06
2.14157e-05
-2.43881e-05
0.000127947
-0.000102213
-0.000121194
0.00025154
-0.000686233
3.01862e-05
0.000658675
0.00010739
6.74224e-05
-0.000175217
-3.39536e-05
2.48497e-05
6.31811e-05
-1.08866e-06
-6.20204e-05
-3.41362e-05
-0.000117096
0.000157832
-4.45841e-05
-3.6186e-05
8.08116e-05
0.000166267
0.000411135
4.74595e-05
-0.000247144
-9.58113e-06
0.000254695
2.03725e-05
-0.000152222
0.000499021
-0.000192723
4.89438e-05
4.26005e-05
-9.16834e-05
-0.000113615
-9.87672e-05
7.78963e-05
-8.16749e-05
7.71472e-05
-0.000658988
6.96065e-06
-2.48695e-05
-4.3115e-05
6.80994e-05
0.000446125
-0.000351005
-8.80018e-05
0.000153652
-0.000151787
-8.74682e-07
-6.56101e-05
-9.56347e-05
0.000160841
-0.000148929
-5.4475e-05
0.000201922
-3.51741e-05
-4.30054e-05
7.95187e-05
-3.57035e-05
-7.02543e-05
0.000105994
2.36805e-05
-1.07475e-05
8.76956e-05
5.65539e-05
-0.000141731
-2.94765e-05
-9.37817e-05
-0.000210204
8.93158e-05
0.000118711
8.21866e-05
-8.46704e-05
3.64979e-06
-3.51061e-05
0.000112586
1.61408e-05
4.98183e-05
-0.000395918
-0.000113929
0.000517149
0.000494643
-0.000336172
-4.22869e-05
-2.8057e-05
7.06534e-05
-0.000170781
0.000104948
6.57242e-05
0.000206272
-9.95376e-05
-0.000147413
0.000152527
-4.86522e-05
-0.000200446
0.000133818
-8.90022e-05
-0.00010284
-7.80381e-05
2.58809e-05
-8.74844e-05
6.16548e-05
-0.000230624
-6.48925e-05
0.000296972
-9.30492e-06
-2.61488e-05
0.000121036
-3.80668e-05
-8.29161e-05
-0.000118637
4.36248e-05
7.49999e-05
1.1717e-05
0.000273288
-0.000279671
9.43071e-07
-0.000116758
-4.52381e-05
1.07172e-05
1.11153e-05
-0.000510194
0.000507651
4.16757e-05
-5.17527e-05
3.69351e-06
-4.95257e-05
4.57963e-05
9.69468e-05
-8.34922e-05
-4.07277e-05
-0.000512145
0.000559448
0.000133597
-0.000162745
-0.000153977
-8.81125e-05
0.000242872
-0.000122169
-4.77836e-05
0.000170163
0.000349361
0.000372458
3.29646e-05
-4.53009e-05
2.41064e-05
-0.00044812
-9.35775e-05
0.000542293
9.16328e-05
-0.000111873
-7.5455e-05
-0.000461375
3.9829e-05
-2.7268e-05
7.16958e-05
3.50172e-05
8.59772e-05
-0.000370878
-0.000163675
0.000537163
-0.000221376
9.69351e-05
-0.000315246
-0.000424788
0.000500177
-0.000495973
0.000316706
-0.000356711
4.26476e-05
-8.65827e-05
4.20378e-05
-1.66924e-05
7.8443e-05
-6.32336e-05
4.59083e-05
0.000195128
0.000323667
-5.42156e-05
-0.000259321
4.02437e-05
6.26892e-05
-0.000100672
4.43766e-05
2.61338e-05
-0.000101869
0.000202927
-6.96429e-05
-3.27608e-05
0.000103075
7.88996e-05
-8.31568e-05
6.19217e-06
-0.000217982
0.000370751
-0.000142793
0.000143183
-0.000436227
1.83366e-05
0.000422765
-5.06481e-05
-6.74241e-05
0.000118089
0.000135497
-0.000132274
2.37454e-06
-0.00023122
0.000227483
8.40106e-05
-0.000113494
-4.06684e-05
9.20342e-05
-5.12341e-05
-0.000454662
-0.000195036
7.31862e-05
-0.000210231
0.000251601
0.000113706
0.000118686
-0.000232133
-3.5437e-05
3.89773e-05
1.88914e-05
8.99693e-05
-0.000106777
3.76604e-05
4.61401e-05
0.000144854
0.000100623
-1.92228e-05
-0.000175998
6.53549e-05
7.93831e-05
-7.02103e-05
-9.04806e-06
8.91737e-05
-8.84853e-06
4.18217e-05
-0.000110586
6.0099e-05
-9.42141e-05
-4.4494e-05
-7.41407e-05
-3.56231e-05
4.96318e-05
-1.40012e-05
-0.000558704
0.00022823
0.000336974
0.000107062
1.30925e-05
1.41375e-05
-2.71521e-05
-2.65588e-05
-0.000115884
0.000145606
0.000155471
-0.000179414
-3.41309e-05
-0.000165325
5.59476e-05
-0.000106561
-4.67661e-05
-8.41661e-05
0.000130914
0.000159681
0.000464271
-1.87654e-05
4.60097e-05
-2.75708e-05
-7.2472e-05
7.15067e-05
-0.000454087
-0.000254626
0.000710872
0.000102999
2.46456e-05
-0.00012781
2.23547e-05
-9.75104e-05
-0.00010773
0.000205821
-0.000151183
4.42143e-05
0.000103134
0.000130555
-5.50438e-05
0.000208613
-0.000375685
0.000168391
-0.000249366
0.000156301
9.19294e-05
0.000299248
-0.000571279
0.000273019
0.000338923
-0.000526423
0.000126075
-0.000278713
-9.96004e-05
-0.000347858
0.000114464
5.19551e-05
2.43484e-05
-6.83856e-05
3.81413e-05
3.12001e-05
7.54584e-05
-0.000304756
5.62638e-05
-0.000209861
-2.59008e-05
4.68994e-05
4.39557e-05
1.83584e-05
-6.2271e-05
-0.000142347
1.7998e-05
2.70355e-05
0.00013219
8.4686e-06
-4.50761e-05
3.66253e-05
-0.000433698
0.000349455
8.68007e-05
-0.000137734
5.41719e-05
-3.01495e-05
0.000201693
-0.000217258
2.03479e-05
3.32555e-05
0.000100508
2.92074e-05
-5.21712e-05
-0.000390254
0.00013048
0.000264127
-0.000590927
1.40741e-05
4.71948e-05
0.000508538
-0.000544947
-0.00019397
-3.80155e-05
0.000231028
-8.34554e-05
1.55048e-05
9.21547e-05
-0.000214676
1.98851e-05
5.96065e-06
0.000293591
4.11391e-05
-0.00012136
7.45454e-05
-0.000234611
-1.07781e-05
0.000246456
-4.49646e-06
2.95585e-05
0.000140333
-9.76321e-05
0.000205122
-8.68991e-05
1.82818e-05
-9.65067e-05
-3.65814e-05
3.19694e-05
-0.000189587
9.24984e-05
-0.000130665
-0.000300074
-7.63436e-05
-4.86152e-05
-0.00021611
-3.99843e-05
-0.000162476
0.000202975
-0.000192741
-6.52939e-05
0.000100268
3.04515e-05
-0.000160322
0.000131681
-0.000116836
-3.06809e-05
0.00014775
-0.000417022
-0.00031271
0.000152167
-0.000665065
0.000407027
0.000385517
-0.000837448
-6.92431e-05
0.000104773
-3.55455e-05
-1.82801e-05
7.51363e-05
-6.1561e-05
0.000164658
-6.05156e-05
4.85439e-05
9.23769e-05
5.72961e-05
-1.09375e-07
-5.71418e-05
-2.50496e-05
-2.66042e-06
2.72377e-05
-9.25759e-05
0.000187018
-7.3014e-05
-0.000194659
-0.000259811
-0.000503552
0.00064062
-0.000621128
-0.000112448
-3.22609e-06
0.000119818
-6.46127e-05
0.000108094
4.55339e-05
-7.64034e-05
1.27136e-05
6.62366e-05
-8.74874e-05
9.2956e-05
-5.16723e-06
-0.000155152
0.000364862
2.5018e-06
-3.00137e-05
-0.00029219
0.000461048
-0.000164359
-6.02633e-05
6.60732e-05
-6.51347e-05
-5.81121e-05
-0.000102487
0.000243291
-7.32957e-05
-0.000168128
9.20108e-05
-2.26248e-05
-0.00061791
0.000640879
-2.1098e-05
-4.79608e-05
-3.67416e-05
8.49374e-05
0.000164731
3.99067e-05
8.77727e-05
-9.43571e-05
6.61713e-06
1.43949e-05
-5.00188e-05
3.53168e-06
-2.7509e-07
4.06963e-05
-4.04438e-05
-0.000132139
0.000227156
-9.81363e-05
-2.87382e-05
3.8863e-05
-0.000546701
0.000219197
0.000330689
1.17034e-05
7.22193e-05
-0.000118315
0.000520289
-0.000502436
-1.58204e-05
0.000686843
-0.00020629
-1.27776e-05
8.59058e-05
-7.20222e-05
0.000208873
-0.000164029
-4.33053e-05
-3.3315e-05
-5.07185e-05
8.40411e-05
0.000246543
-5.66959e-05
-0.000187065
9.7404e-05
4.62175e-05
-0.000142671
3.94365e-09
0.000148053
8.75883e-06
5.45298e-05
0.000250629
0.000221202
-0.000511649
0.000238953
0.000275641
-8.27332e-05
0.000121486
-3.88381e-05
2.64544e-07
-0.000107489
5.27891e-05
0.000121662
-0.00010919
-4.67802e-06
4.09546e-07
-8.00041e-05
8.96866e-05
-8.61209e-05
-3.35641e-06
-0.000108668
-3.93118e-05
0.00014755
0.000107536
-5.04049e-06
-0.000143696
0.000176773
-3.24057e-05
4.86272e-05
0.000131034
0.000251467
-0.000379965
5.71961e-05
-5.66129e-05
8.06407e-06
7.46003e-05
-0.000252591
0.000269685
0.000259329
-0.000126891
4.32652e-05
0.000180437
-0.000226514
-0.000190462
0.000169171
2.17581e-05
-0.000250714
-6.03346e-05
0.000322462
7.72704e-05
0.000143487
-0.000220293
-0.000197602
-5.21621e-06
-0.000114023
0.000119154
-0.000165934
2.3016e-05
0.000149341
-0.000118873
-3.02768e-05
0.000413037
-0.000233632
1.88357e-05
8.47204e-05
9.50853e-05
-0.000179529
0.000150603
-0.000347877
0.000207667
2.53703e-05
-9.09995e-05
8.2955e-05
-3.88499e-05
-0.000125113
0.000139261
6.35948e-05
7.56492e-05
4.58912e-05
0.000564313
-0.000127515
-0.000427735
-0.000174672
-0.000377783
1.40202e-05
0.000249665
-0.000262511
0.000183158
0.000340314
-0.000518496
0.000376439
-0.000307487
-6.07043e-05
0.000173974
-7.26284e-05
-8.35593e-06
-6.40718e-05
-6.72804e-05
9.40451e-06
5.78187e-05
-0.000184202
3.03421e-05
-0.000139365
-0.000414999
-0.000290989
0.000708306
0.000247096
-5.14563e-06
-0.000119473
-7.39836e-05
0.000194179
-2.50819e-06
4.53341e-05
-7.71802e-05
0.000228103
-0.000251501
2.54927e-05
6.86228e-05
-7.97901e-05
2.10332e-05
-0.000106798
8.58415e-05
2.54588e-05
-0.00018419
0.000720947
1.58559e-05
-0.000255322
0.000248129
4.03193e-05
-7.35683e-05
-0.000301412
0.000601881
-6.78759e-05
9.75276e-05
-2.79225e-05
-0.000293329
6.22367e-06
5.72771e-05
-1.30641e-05
-4.405e-05
2.37434e-06
-3.40199e-05
1.89424e-05
-0.00011283
-0.000640433
0.00071061
-6.60855e-05
-0.000226911
0.000143744
-6.83946e-05
4.86595e-05
2.01111e-05
-8.33441e-05
-0.000211133
0.000295602
0.00012869
-0.000107008
0.000608405
0.000103928
-0.00013906
3.72184e-05
4.61898e-05
0.000234085
-0.00026506
0.000159342
-7.26379e-05
-8.6769e-05
0.000687198
-0.000260785
-0.000424406
7.41887e-05
5.14923e-05
0.000263695
-0.000193959
-6.39757e-05
4.01344e-05
-5.38522e-05
1.38241e-05
4.58829e-05
-7.24019e-06
-3.8593e-05
0.000169861
-2.41807e-05
-0.000143697
-0.000212313
5.61635e-05
0.000170263
-0.000185165
9.98366e-05
8.54058e-05
-4.31437e-05
0.000121617
-7.84382e-05
-4.82542e-05
0.00013785
-0.000176281
0.000136574
0.000695193
-5.21777e-05
9.46802e-05
-9.15434e-05
-3.17307e-06
-3.19843e-05
0.000239065
-1.02016e-05
4.18877e-05
0.000100427
-0.000613546
0.000521483
-0.000164792
0.000222414
-1.53113e-05
0.000103035
3.264e-05
-0.000424041
0.000447861
4.53507e-05
-0.000203121
1.05979e-05
1.42304e-05
-2.48649e-05
0.000209623
-0.000118777
-9.06115e-05
2.6814e-05
-1.36105e-05
-0.00040978
0.000320326
4.52976e-05
-3.68089e-05
0.000631517
-0.000454617
4.23248e-05
-0.000278692
-0.000302835
-0.000454678
-1.32963e-05
-9.10663e-05
-0.000235425
-1.57372e-05
0.000255081
-2.29706e-05
-1.83428e-07
2.27008e-05
-6.11647e-05
6.85075e-05
-7.40556e-06
0.000100549
8.10333e-05
8.09326e-05
2.29127e-06
-0.0001098
8.68009e-05
-0.000412013
-2.8058e-05
-7.9418e-05
-0.000105586
0.000149717
-9.52921e-06
5.4015e-05
-5.51905e-05
-1.40519e-05
0.000119894
-3.60581e-05
-0.000503497
0.000522743
3.01793e-05
4.69799e-05
-0.000304884
7.15106e-05
0.000145709
-0.00010692
0.000110162
1.63398e-05
0.000180216
3.60967e-05
-0.000215034
-5.11776e-05
1.55392e-05
-5.58305e-05
5.54301e-05
4.06922e-05
-2.78646e-05
-7.94651e-05
0.000106866
-0.00015799
-0.000582938
1.02014e-05
-0.000131337
0.000122572
-5.38878e-05
-0.000122415
-2.98989e-05
-4.66623e-05
7.6609e-05
-3.61286e-05
6.3408e-05
3.44766e-05
-0.00010957
7.50764e-05
3.90183e-05
-4.12333e-05
-0.000207241
4.81844e-05
0.000106651
-0.000165262
5.87563e-05
0.000138354
-3.15675e-05
-8.04391e-05
3.1056e-05
4.94267e-05
5.61333e-05
-6.38598e-05
-9.22255e-05
0.000156249
-0.000537551
8.48901e-05
-1.87109e-06
-0.000208168
5.37024e-05
-5.82603e-05
4.47632e-06
-0.000120485
-0.000265386
-2.06445e-05
-6.70532e-05
2.60915e-05
-2.40531e-05
-2.0421e-06
-0.000281467
-0.000177659
0.000463692
-4.47612e-05
-0.000152866
-0.000561125
0.000172571
0.000260568
-0.000536085
3.80673e-05
1.94998e-05
-0.000456586
8.17797e-05
0.000384514
0.000121747
-0.000110225
-1.13705e-05
3.88217e-05
0.000445718
-0.000335746
-0.000104432
-0.000111356
6.7216e-05
0.000583047
-0.000152689
-0.000428338
-0.000109136
1.14203e-05
9.72413e-05
-2.00525e-05
-6.31596e-06
2.71562e-05
0.00041653
-0.000108759
-6.22371e-05
9.26597e-05
0.000186894
-0.000276454
2.13216e-05
0.000150523
0.000147277
6.26233e-05
-0.000465074
0.000144093
-0.000146382
2.79523e-06
-0.000173771
-1.44604e-05
2.51032e-05
0.000176514
-0.000125214
-5.41632e-05
-9.62777e-05
6.77725e-05
2.84802e-05
-8.96751e-05
0.000112664
-3.09717e-05
2.50615e-05
5.96954e-06
-4.42813e-05
-1.90682e-05
6.34131e-05
-6.99906e-05
-2.62828e-05
-0.000123749
3.00989e-05
9.33317e-05
0.000677287
-0.000530261
-0.000142437
0.000396806
0.000175871
0.000124312
2.50995e-05
-0.000145853
0.000202514
0.000190524
-0.000711889
0.000525506
9.8932e-06
0.000315877
-0.000432356
0.000523592
-0.00018189
-0.000340397
0.000414057
-0.000163211
-0.000417253
-0.000116676
-5.04083e-05
-0.000350046
0.000302397
-0.000111902
-0.0001936
0.000210349
0.000196945
-0.000402954
7.87136e-05
1.47648e-05
0.000387625
2.34258e-05
-4.57245e-05
3.35606e-05
1.22272e-05
0.00016522
-6.10736e-05
-0.000104267
3.97148e-05
-7.93872e-05
4.10486e-05
0.000216165
-0.000281359
6.71073e-05
2.04254e-05
5.40677e-06
0.000296497
-0.000115603
9.29101e-05
0.000116272
-0.000108557
0.00013252
-0.000408118
0.000278765
0.00050323
0.000185692
-0.000390732
3.75922e-05
0.000360521
0.000247795
0.000108042
-0.000354034
0.000563401
8.93424e-06
-0.000420695
-2.55686e-05
-0.000260419
-0.000151264
0.000627388
7.19247e-05
-1.44414e-06
-0.00018835
0.000114094
-0.000211925
1.06114e-05
-5.1388e-05
4.0729e-05
2.75786e-05
-3.30014e-05
5.53446e-06
-1.53848e-05
3.68399e-05
-2.12838e-05
-7.19166e-05
-9.44937e-06
7.66598e-05
6.5392e-05
-0.000139106
5.62592e-05
4.89378e-05
-2.60274e-05
-2.27988e-05
1.14525e-06
0.000344417
-0.000627341
0.000414219
-0.000112907
-2.35293e-06
-0.000299213
-0.000254699
0.000555598
-0.000279389
-5.46968e-06
-2.58424e-05
-4.67474e-05
0.000157674
9.14402e-05
0.000182105
-0.000272619
0.000256693
-0.000285069
3.43331e-05
7.72389e-05
2.93908e-05
-3.46626e-05
-0.00013899
0.00029792
-0.00020204
-0.000299073