/*--------------------------------*- C++ -*----------------------------------*\
| =========                 |                                                 |
| \\      /  F ield         | OpenFOAM: The Open Source CFD Toolbox           |
|  \\    /   O peration     | Version:  v2012                                 |
|   \\  /    A nd           | Website:  www.openfoam.com                      |
|    \\/     M anipulation  |                                                 |
\*---------------------------------------------------------------------------*/
FoamFile
{
    version     2.0;
    format      ascii;
    class       volScalarField;
    location    "100";
    object      omega;
}
// * * * * * * * * * * * * * * * * * * * * * * * * * * * * * * * * * * * * * //

dimensions      [0 0 -1 0 0 0 0];


internalField   nonuniform List<scalar> 
13917
(
0.043767
0.0224743
3.06661
0.0259917
0.022112
0.438263
2.83072
3.15839
3.28132
0.0719238
0.330516
0.0865099
0.0261407
15.3797
0.027061
0.0258725
0.0226151
0.0620298
0.0850802
0.022116
0.0222671
2.77505
0.0220991
3.28111
0.0220411
2.73383
0.0419207
0.0544814
0.793181
0.113178
0.0469866
0.0300244
0.0363917
0.025694
0.0220521
4.07733
0.0221072
2.94367
0.02932
5.80547
0.0219425
0.0222859
0.0216638
0.0832377
0.0225144
0.0274787
0.0607625
0.0850836
2.80903
0.0220227
0.0302346
0.0224013
3.25199
0.0261341
0.0226257
0.0296144
0.243101
0.0221228
0.0268527
0.0224238
8.11244
0.0224875
22.8288
0.0221049
0.407039
18.2104
0.022105
0.0220501
0.238454
0.0394442
0.0221195
3.42406
3.33474
0.0220437
2.90191
0.106604
4.84872
0.0236682
2.65083
0.0222376
0.022206
0.0221123
0.368784
2.78569
3.52885
0.0235255
0.022182
18.0713
0.0298164
0.0216621
3.04787
0.0954236
0.0220473
0.0233232
17.937
0.37681
0.17124
0.0764354
0.219723
0.111157
0.0218466
0.0324891
0.0832674
0.0244551
0.021865
3.59775
0.475894
0.090304
0.022634
0.0499858
3.11065
4.8252
0.117386
3.45817
0.0230393
3.24465
0.0220301
1.49213
4.64975
0.0261141
0.0222741
0.221547
4.36385
0.0514241
0.0219914
0.0231126
0.0223885
0.0219993
0.0216611
0.41814
2.8444
0.0229402
0.0225409
0.0222745
6.81899
3.31393
0.0443964
0.114627
0.0220983
0.0260007
4.10193
0.0219113
0.0226946
0.105094
0.0220511
4.05959
0.83658
0.0223462
0.0218658
0.0306891
0.0687464
3.22974
0.116084
0.0441375
0.029369
5.67438
0.0376114
4.51267
7.0542
6.90613
0.0245406
0.042577
0.0222375
0.162166
0.114452
0.196154
0.0243876
0.072591
0.0221866
0.0335266
0.0446597
5.36923
0.130403
0.0230268
4.30345
0.0484015
2.73915
1.94779
4.20832
0.0220246
0.101114
0.0488371
0.0219105
0.0221732
0.0309506
2.82803
0.45227
7.16335
0.04213
0.212192
4.33396
3.91557
0.384837
0.0221092
0.122889
0.0408228
0.0227998
0.022057
0.247411
9.4427
0.0298497
0.0220374
0.0672283
0.0679824
3.82595
5.95192
0.022052
0.0221425
0.0744418
2.96497
0.0225829
2.824
5.6966
0.211765
0.0218681
0.611808
0.0657053
4.98374
0.0220037
9.0125
0.0220122
0.102717
0.0219213
2.90209
3.5823
0.0263242
2.42887
0.0298312
0.021869
4.05432
0.127788
0.0416618
3.28277
7.83396
0.0218027
0.0306487
2.8731
3.55154
0.0222297
0.021966
4.32715
0.224594
0.0222668
3.94026
0.114452
0.0404638
0.0408146
0.0222296
0.0476132
6.33052
0.0225386
0.129762
0.140498
0.0223637
0.0221036
0.0887763
3.3711
0.109869
0.0313309
0.0272496
0.0222713
5.96373
5.11691
3.81364
0.0218736
3.57206
7.02541
4.46228
2.61317
0.115159
0.0222165
0.021946
0.0614213
3.2974
0.157209
0.0264734
5.96078
0.0554079
0.0216498
7.355
0.0220927
4.14501
0.0290806
0.022262
0.0286688
0.0437967
0.0425465
3.97086
0.0341477
0.0226398
4.84935
3.33311
4.72735
0.0220036
4.54669
0.0221733
0.0226369
0.0220356
1.24355
0.0221063
0.11293
0.039599
0.0221593
0.0677628
0.0239069
2.37588
0.0471519
0.0887576
0.0220344
0.0220898
3.22943
4.62637
0.0220262
0.021935
7.58083
0.0220213
3.12355
0.0220055
2.80702
0.0236556
0.555126
0.0397583
2.99701
0.0242095
7.03003
0.32047
0.0286831
0.224186
0.570011
0.0224669
2.92841
0.11853
5.78609
0.0249925
6.3101
0.0316406
3.17915
0.257914
0.119155
0.116038
2.94579
0.0222181
0.0465725
2.98948
0.0222728
0.024083
6.46186
0.30321
0.022965
4.33394
0.721998
0.0218804
6.51215
4.17587
0.0220866
0.0219293
0.0221806
0.0218629
3.32273
4.26894
0.678464
3.04242
0.0220396
0.146249
5.49694
0.0516141
2.77543
2.99032
3.45612
0.0218049
3.79502
0.0219115
9.45535
0.0224159
3.72498
0.115509
0.0276758
0.0222002
0.071427
0.111028
0.086145
7.27584
3.09258
7.81689
0.0497139
0.0670616
0.0219721
3.67261
2.72293
0.0221738
6.87344
0.0220577
2.69858
0.0236388
0.0222278
0.0239141
2.57031
0.0238574
3.00137
4.91971
0.216278
0.492344
0.0224592
0.490673
0.447052
0.0220491
0.337321
0.0222553
0.0220498
0.113542
0.0222616
0.0220443
0.0219073
0.969778
0.0222485
5.01517
2.77772
4.52599
0.381345
2.7672
5.02047
0.0509049
0.0220426
0.236487
0.0289204
0.0322854
0.0221027
4.07993
2.85053
2.87777
0.0257745
0.134259
0.0247188
0.0300327
0.0856524
0.0235035
3.75905
0.0226264
0.0220978
2.92937
2.78467
2.7052
0.14187
5.68119
2.75976
2.91736
5.12101
0.0216853
0.0676297
0.0235856
0.0221792
6.09453
0.0624853
0.0221964
0.0694653
0.0481954
5.31962
0.0220457
0.159155
11.3499
0.920588
4.02876
0.0222558
0.0221783
0.0227588
0.0378099
0.0218068
2.90766
0.530425
0.0339988
4.28074
0.0295249
0.16773
2.8896
0.856653
0.215681
4.12731
0.158915
0.0677563
0.22596
0.0538529
0.49185
0.601995
0.0615847
0.102866
0.0220048
6.577
0.0312343
0.0219111
0.0361665
0.0238804
4.70051
3.50482
0.0220005
0.0216764
3.05757
7.19824
0.0222618
5.34688
0.0242225
0.269913
0.0220232
4.07019
5.00731
0.0306169
0.0228034
2.63478
0.329648
5.65943
0.0222695
5.54555
2.42991
7.72119
0.0219235
3.40232
3.71121
0.05202
0.0219234
0.022563
0.107305
5.07572
0.0220996
0.021931
0.0219661
0.0219612
4.15921
6.12128
0.0513262
0.445149
0.0219972
0.0218519
0.130858
3.03592
0.0377386
0.0222205
0.0220455
0.0220684
7.45409
4.29059
0.022176
0.0220704
3.76323
0.0532396
0.0397352
0.0221609
0.0239849
0.028705
0.100241
0.451929
0.454619
0.261461
0.123806
5.86387
0.0855696
0.0220101
5.20023
0.0220713
0.02443
0.0267483
6.5226
0.0820436
0.0218581
0.924471
0.128968
11.2317
0.124093
0.0365326
0.0505781
0.0221911
4.34185
0.624935
2.70714
0.0224936
0.0331164
0.445754
2.90758
20.5376
0.0802014
0.165047
0.025824
0.0254578
0.0221624
0.0562137
0.0894167
0.0221773
0.0650062
0.133347
2.73729
5.03835
0.0250458
0.15893
5.01775
0.0300174
0.0224953
3.45089
4.4476
3.73542
0.410394
0.0216762
5.24362
0.10467
0.0219055
0.035009
0.0959065
0.0350111
0.111755
2.65328
0.219437
0.047693
4.3004
0.0243099
6.76269
0.0222384
0.0221694
4.47729
4.2865
0.674969
0.0243045
0.0229663
0.0220741
0.0561108
3.2816
0.20637
0.0257715
0.214974
0.0698079
0.0220285
2.59628
0.203099
3.63792
0.021994
0.210677
0.0238357
8.30261
0.0731606
0.0805031
0.0336317
0.0218963
0.0218732
0.0224613
0.128235
0.0278716
0.375899
6.65507
0.0709942
0.0218881
0.199749
0.701998
4.15326
0.0224757
0.0273866
0.0219378
0.034699
0.0270942
3.58814
0.0222297
6.91267
0.0341402
0.267128
0.097164
3.35
0.0845943
0.0224965
3.52281
15.4813
0.0221746
0.0266562
5.18123
0.300211
0.157742
0.0222376
0.0228688
0.401671
0.027916
0.0847559
0.0838991
0.021887
0.0682758
3.106
0.0224828
0.0247993
0.021985
5.11482
0.022266
0.025382
4.8117
0.023836
4.48402
0.0294243
0.037076
0.0219782
0.0539689
0.0220419
0.0657113
0.0219004
0.0936087
0.0242157
24.4011
2.98132
3.04511
0.0225721
0.0222072
0.0812857
0.0535408
4.55928
3.16543
0.0610102
0.0220524
0.843134
0.679305
3.64197
0.377645
0.0596497
2.65617
0.0430064
0.0529337
0.181592
0.193597
0.0601334
1.08555
0.0590085
0.0257088
0.10315
0.0288411
0.022068
0.0343495
0.0499245
0.0298736
0.0220489
0.0219473
0.0705999
0.0249325
0.0860538
0.0220536
0.0220688
0.0222736
0.0237974
0.0216603
0.0274633
0.0220042
4.25382
0.085439
0.358047
0.0218248
0.0222477
0.0494358
0.0690094
0.0227415
6.75737
0.0890615
10.2711
0.0343275
0.155695
0.0232975
0.0222692
0.0219449
0.0239144
6.31288
0.0222554
5.66244
0.0278475
4.8733
0.0524988
0.0907672
0.264127
0.0217672
0.022291
0.0868394
0.0220572
0.0225972
6.8852
0.0231425
0.0221813
0.0307067
0.021958
0.0217373
0.0300371
0.0279683
6.24709
0.0382677
0.0224812
0.0219115
2.77867
0.126927
0.0223942
0.0225056
6.94837
5.10663
7.04011
0.0365904
0.0257219
0.0218132
0.0217187
0.0628233
0.039592
4.39331
0.0253571
3.14741
0.022701
0.0240252
7.66052
0.0220634
0.0315006
0.0220973
0.0220822
0.0482379
0.043373
0.0232163
4.30111
3.92366
0.0995009
0.0220087
0.0217454
0.210094
5.75442
0.0222612
5.74034
0.0217339
0.0472723
0.0222112
0.0221284
5.97143
0.0224395
3.44532
0.0444648
0.0222734
0.0216942
0.0220809
0.0219708
0.0246238
4.07439
0.0223574
0.0220045
3.01903
3.79484
0.0494697
0.0518278
0.0810942
0.0274413
0.0219259
0.0283363
4.14264
0.0994603
0.0221349
0.02272
3.23203
0.0425483
2.97887
0.0222666
0.0228558
6.66309
0.0395689
0.0233707
6.425
1.71662
0.0219659
0.163583
0.0219427
0.022371
0.0218154
3.25758
0.0216477
0.0226593
0.0219256
3.33367
0.0280044
0.267598
0.0630211
0.022151
0.0331471
0.0221758
3.01679
0.0219821
0.0224058
0.0221825
0.212395
0.0221746
0.218144
4.6437
3.33364
0.0268467
4.19592
4.12543
0.0220888
6.74078
7.22342
3.64563
2.78924
2.96742
36.0931
0.183726
0.0226096
2.62143
0.0393518
2.68278
0.0218964
0.0220458
0.0223979
0.0221691
0.0287719
0.0317095
4.20859
0.0220323
0.022078
5.23516
0.320732
0.0220795
0.038054
0.0329723
0.0228053
2.79331
0.0384674
0.0241036
0.0278476
5.10715
6.32017
1.30606
0.022162
0.331688
0.128515
3.46755
3.45621
0.128324
0.0220244
0.0233915
0.0227025
0.0215743
0.0239514
0.0216747
0.0288449
0.0417812
4.45416
0.194035
0.0226699
0.15186
2.89959
0.0458635
0.022396
5.96161
0.0221188
0.0224952
0.038171
5.35632
0.0221742
0.0219972
2.81087
4.20212
4.96101
0.138786
4.09018
0.0219741
0.264474
0.0224442
0.0220139
0.0224215
2.83855
5.07766
0.0220253
0.0216954
0.0221303
5.11811
0.0236232
0.033451
0.0220565
0.0227879
0.24031
0.0221926
0.0674035
0.380236
2.67808
0.0222997
0.0907353
0.0252199
3.54963
2.9238
0.0220442
3.30293
0.0870794
1.43452
0.0221732
2.54911
0.0222454
0.0293006
0.0467903
0.136536
2.98744
3.69821
2.48594
4.3904
0.0218802
3.45946
0.0221237
0.0288544
2.79841
0.022199
0.0222529
0.0234857
0.0227045
4.05069
0.0217476
0.0220906
0.0692875
0.0524128
0.0606274
0.600327
0.2155
6.16903
0.0880691
0.0414206
0.0518615
3.91001
0.0506505
12.7234
2.68958
0.0284503
0.022224
2.69018
3.67452
0.0223502
0.136526
0.0383919
0.0233508
0.0293823
0.0227962
0.0467473
0.0222922
0.0583352
0.110978
0.0219163
0.0683581
0.0220906
0.0637351
0.0218973
0.026225
0.0693123
0.0251788
0.0227289
0.0220317
2.08415
0.0895826
4.52414
0.0220444
0.0224321
0.0725901
0.0220945
0.1075
0.0901943
0.0233508
0.117083
0.0220647
8.43235
0.0223234
0.0468908
5.30199
3.09063
0.0219816
0.0243123
5.87775
0.0220161
0.0219483
3.29339
3.02094
0.0243936
1.94637
0.0221068
0.0227316
2.8873
0.0237754
0.0217762
4.91793
0.0221333
4.69453
0.0221998
0.0217726
0.0223819
0.215153
3.13392
0.0222076
0.0224507
0.0219737
0.0268083
0.0220791
0.970099
0.0668318
0.0222689
4.14688
0.0523348
5.03166
2.69176
3.57095
0.0219963
0.0223441
0.0221756
0.811661
0.0271937
3.16801
4.46895
0.0241999
2.75493
2.29855
0.0592773
0.661874
0.0751805
0.371962
3.04959
0.0674541
1.70868
2.71505
0.083934
0.026043
3.74526
0.0551409
0.0219141
0.0247081
11.3665
0.0408653
0.021995
0.0559549
0.117257
0.0421353
3.76161
0.0245341
4.7534
0.0515788
3.55815
0.157057
0.353954
0.0321639
0.0220322
0.0229994
3.18019
0.0220179
0.024428
0.0218895
0.0239944
0.0220629
0.0368188
0.450955
1.89036
0.0462788
0.0594361
2.94469
0.391076
0.0220804
5.05264
2.86248
0.0218409
0.0219412
0.0345693
5.32039
0.0222546
0.0817934
0.67945
0.052065
0.0221032
0.024883
0.0221831
0.136705
0.0421885
0.0219959
29.9641
2.65243
0.0454981
5.77011
0.0855425
9.32303
0.0237797
0.0278647
3.22145
5.5441
0.12934
1.7891
0.0305476
0.0222766
0.0224322
0.0224853
0.0220599
0.0227425
0.0566862
0.0219885
0.214655
0.0219564
0.0314375
0.0220788
0.0897096
0.212901
1.15714
0.0220688
0.351117
0.0224253
3.40784
0.0220545
0.025649
0.0221289
4.14431
3.70112
0.292092
0.0219867
0.195672
0.0221806
0.0323226
3.06323
0.022301
0.0224393
0.05055
0.0349863
2.76403
0.0219909
0.031056
0.025071
0.0220558
0.0327457
0.0228304
0.0217818
0.0239316
5.51732
0.0258024
4.42748
3.85995
0.060019
2.95424
0.0254473
0.0217882
0.032363
7.12293
0.025367
0.0389077
0.052111
8.87778
0.0219564
5.57142
0.0712574
0.0832629
0.0218311
0.0217036
1.97953
0.0225235
0.0222861
0.0340444
0.0218891
0.0247006
0.0311147
0.0917808
0.269041
2.81057
0.0288439
0.0967282
3.57901
6.15342
0.0472004
0.280403
5.21998
0.0460776
11.3002
0.0237359
21.6864
4.90256
0.0219316
0.022262
0.0219733
0.0238066
0.0499313
0.0221079
0.0239706
0.128679
0.0244679
0.0368228
3.27346
0.0306592
0.0261122
3.27676
0.0233673
5.37145
0.0269541
0.0565481
0.0219472
5.74017
4.74033
0.0221822
0.024002
2.62503
0.0299819
5.38718
0.0220266
0.0221403
2.74371
0.0238449
0.0455013
7.82336
0.0220733
0.0625362
0.0317015
0.0217038
0.0219198
2.62143
4.33309
0.0226038
0.0250532
0.0221489
0.0282211
0.0357099
5.5019
0.0228932
2.52945
4.50558
3.60322
5.52885
0.0237349
0.207056
0.20543
0.0295534
0.0220731
0.0771558
3.11345
0.0236588
0.0480852
3.26929
3.68654
0.289653
0.0253172
0.0224494
0.0222464
0.0220719
5.96003
0.0663867
0.0258122
0.0242191
0.0260127
0.0222704
0.0220691
0.0220573
0.0945087
0.0492053
4.16845
0.0488777
4.16057
2.86801
0.0318819
0.0605771
0.0218407
0.0300608
7.061
0.0223903
0.0243497
0.0624073
0.157541
0.0568824
2.74471
4.21599
0.0221163
3.13616
0.021674
0.0228643
0.0477835
0.0222737
0.0225366
0.239902
5.32904
0.0221319
3.03357
0.0223845
0.0219886
0.0242745
2.64592
0.0315057
0.0269487
10.4575
0.0236743
4.37886
2.58814
0.0222463
0.0501318
0.0220158
4.63397
0.0833903
0.0220567
2.77175
0.0640459
0.0808974
0.0222787
5.1919
0.0299435
0.372184
0.0246239
0.0753998
5.75921
0.0219987
1.47227
0.022197
0.0706165
0.0531684
0.0222454
3.47848
0.0241566
0.156701
0.0656258
0.0984366
0.0427867
0.0460727
0.0227925
3.25961
0.0330894
6.45599
0.0308351
0.0823698
0.022242
0.0486225
0.0220968
0.0941988
3.14919
0.0232282
0.0219267
3.40242
0.023857
3.47349
0.0231509
3.02682
3.59806
0.0384032
0.0220144
0.0219699
0.0221132
0.0216809
0.124506
0.0595858
0.0383695
0.0274382
0.0220862
6.04579
0.0252262
0.0369587
3.61875
0.0220763
11.7093
0.0618526
0.0364209
1.26547
3.46385
4.85584
3.19478
9.58339
0.0219526
0.406993
3.782
0.36719
0.022175
0.0222657
0.172418
2.72595
5.19326
0.80744
0.0234783
0.0530536
0.0468304
2.65326
4.51876
0.0517673
0.194268
0.0247646
0.0896708
0.129264
0.022167
0.123044
6.7414
0.022134
4.65521
0.0222536
0.0223679
4.17369
2.89953
0.0218724
0.0236394
0.0230686
0.0221193
0.0523734
0.245421
0.0248115
0.022004
0.0221023
0.0512532
0.0301931
0.0297466
3.25621
0.0220539
2.8347
6.11081
2.70667
0.161931
0.0590408
4.89657
0.0388379
2.61107
4.45869
11.1356
0.0227688
4.00849
2.89475
0.0217995
0.0220513
0.117531
3.04047
8.40948
0.0221821
0.0221741
2.74777
7.91759
10.7977
0.0251342
0.0241169
1.87927
0.0223507
2.67053
6.11512
4.17581
5.80318
0.0221165
0.0219791
0.0219016
0.0264592
3.63276
0.0498625
0.0286554
0.0226856
0.0948091
5.67018
0.0512457
4.82598
4.2427
5.00785
2.14501
0.0220652
0.0221738
3.08781
0.0217302
0.0218978
0.0235055
2.84194
0.043749
7.76913
0.160587
0.0220466
3.08674
0.0438917
0.022063
4.81198
0.175791
0.0251401
0.0228319
4.28055
2.9397
0.0221818
5.92002
4.43951
4.47892
5.43158
0.092037
0.0220163
0.0233139
2.36059
0.0276908
3.26329
0.0464153
8.12707
4.88835
0.0230555
0.029998
0.0220338
0.0229003
3.19022
6.86097
0.0220733
3.80451
0.0525798
0.0221809
0.0252819
0.0219683
0.267697
0.023021
2.30049
0.0542661
0.0220087
0.0218901
0.0929002
7.58491
0.0453983
0.0249118
0.0476321
0.022086
0.0242128
0.03119
7.08005
3.66198
2.98798
0.0217707
0.0218835
0.0226643
0.20964
0.0219179
0.0227425
0.220712
0.0716591
4.47379
0.0219035
2.90118
3.607
0.0222842
7.11738
0.1595
0.0463373
2.03151
0.0225943
4.04003
0.0303744
0.0233672
0.0241578
0.021724
3.88655
0.0227581
0.0243483
0.0309558
3.04433
2.99353
0.0222466
0.0220269
0.0246147
0.0222999
0.169382
0.0225316
0.0970322
0.0251876
3.22374
0.0239635
2.71251
0.0217786
3.17656
0.0230182
0.0217136
5.12093
0.328524
0.123197
4.13212
0.0454418
0.0482413
0.0220572
4.03554
0.0220694
0.0219223
0.0888469
0.0853192
8.20483
3.26732
0.155127
5.28637
0.154683
5.93901
0.0222019
0.0270169
0.0319947
2.84889
0.024935
2.93254
4.12118
0.0230519
0.0220901
0.0221344
1.94263
3.36334
0.0248413
0.0221159
0.0267632
0.0305279
0.0446645
0.58041
0.356206
0.0220682
0.621746
0.0953692
7.41474
0.085439
0.0239925
0.0252322
3.01233
0.0218982
0.102703
3.01506
0.0230466
0.0269347
0.22467
0.134325
0.0229943
6.47115
0.0260155
4.26492
0.0526215
0.0315446
0.0239819
2.95293
0.0218873
0.104402
1.45645
3.23278
0.0568133
0.0747638
0.0288599
0.0501339
0.0222659
3.36706
0.0302181
0.0224823
0.0338084
0.0220957
0.0222693
3.04741
0.022079
0.0221795
0.0221747
0.224436
0.0222965
0.035899
0.0940156
0.282246
0.138999
0.0222538
0.262127
0.492744
0.28747
0.0948371
0.027545
0.254098
3.40378
0.833429
0.0222845
6.82375
2.91541
0.0222839
0.025609
0.0217068
0.749962
0.120577
0.0227046
1.29767
2.91311
0.0218393
0.0222663
2.66341
3.69475
0.0872022
0.0217387
10.7199
2.62412
3.22163
0.0220451
2.81838
0.11689
0.0744194
3.07843
0.0288044
0.0217189
0.0336744
0.23271
0.0371886
2.73512
2.89667
0.0219256
4.90963
0.563214
3.39387
0.0217787
0.0508447
0.0223243
0.0220163
2.69602
5.24687
2.69582
4.61285
0.0306078
0.0580804
0.022382
3.03964
5.59779
0.0220571
0.0226941
0.0321312
0.0222716
0.0611917
2.79357
5.71228
0.0590437
0.0231592
0.0229732
2.70422
0.0255691
0.0622687
0.0219054
0.023455
0.922875
5.31616
4.96119
2.88216
0.0221723
1.57932
0.0225436
0.0501123
7.87054
5.42545
0.0220834
0.0222939
0.0447298
0.0260756
0.0222501
2.74062
2.86241
0.0219844
0.0216098
0.0221922
0.0219844
2.65559
0.0220128
2.72347
0.125984
0.0852923
0.0220472
0.0521039
2.93426
0.0394211
0.490709
4.546
0.0224287
6.17297
0.0336397
0.0356642
0.394349
5.92145
3.4582
0.0796572
0.0219619
0.282226
0.0220209
0.0254544
0.0222885
2.77708
0.0329813
8.66183
3.84778
0.0563522
0.0221283
0.368972
0.0302508
0.0222705
0.26374
0.0216573
0.0497246
0.0389982
0.0222567
8.14051
0.0240024
0.570111
0.0231054
0.021967
4.05504
2.72214
0.0244
0.0328021
0.0495656
0.0642356
0.07501
0.0300191
0.0268959
0.0275367
4.08991
0.0255287
2.88513
0.0636711
4.07908
0.201065
0.0237579
2.79394
0.0216607
2.94761
0.0243807
2.9758
9.86421
9.8123
7.20349
2.13469
0.0822978
0.0226382
2.72038
0.0912541
0.0220575
6.37933
3.88656
0.023534
0.0258042
0.0338308
0.0338697
0.0385131
4.31188
0.022284
0.0365115
0.0433502
0.0337689
0.0221663
0.1172
0.0217347
2.92951
0.0240624
0.159406
0.0356473
0.0462817
0.138379
5.1832
0.0991777
0.0219276
0.270216
2.74255
19.0501
0.0233633
3.10164
0.0325791
1.80655
0.0220693
0.0252364
2.69478
0.067721
3.87229
5.97581
0.0340304
2.93662
0.0221256
0.0217341
7.38171
0.0597027
0.0251907
3.12858
0.0290838
0.048002
0.0306215
0.0794125
0.0225644
4.50837
3.5985
5.77847
3.93754
0.0276413
0.0634999
3.83694
0.0247069
0.0224776
0.0917414
0.0217598
0.312076
6.23576
5.88276
5.24813
0.0697068
0.0234774
2.76602
0.0216739
0.0963322
0.0222363
20.7173
0.0246953
0.0505749
3.08394
0.146464
0.0220337
0.033709
7.29415
0.0220963
0.247654
0.0219418
8.28258
2.94198
0.156209
0.0805967
0.0219663
3.53403
0.216297
0.0457777
0.0219416
0.023651
0.0221476
0.0686267
0.0221276
0.117831
0.0221381
0.0220063
3.85853
0.0220806
0.0290258
0.028064
0.022275
2.78062
0.0220313
0.0363536
2.73143
0.0631604
2.88137
0.0221008
2.96981
0.0670483
2.99057
0.0243711
0.212581
0.0230838
0.0485324
0.213995
0.174116
0.369055
2.88592
0.345062
2.34578
0.0272413
0.164344
0.0442383
6.91998
0.0254991
0.0229787
0.0220709
0.0650113
0.0494657
5.468
0.064075
3.21701
5.63298
0.10253
0.0221335
5.30189
0.211324
0.0225861
0.0244208
0.0221496
3.79689
0.0220637
8.03473
0.0220461
0.0307657
3.79849
0.0853881
0.0220614
0.0220624
6.78399
0.0220223
0.0246981
0.0275539
0.0349307
0.030202
0.0223895
1.19865
0.082958
0.0456299
0.38588
3.17603
2.84882
5.09749
0.0217881
0.0220514
0.109368
0.0234813
0.0488125
3.04833
3.01648
0.0217305
0.0220579
2.57534
5.00503
0.0217558
0.0219368
0.0269056
10.7478
2.72666
0.028772
0.0370996
0.0222022
0.46367
0.215243
0.143598
0.0319548
0.0465575
0.0224718
0.0429173
2.10259
0.0229145
0.0226706
0.0283898
2.94368
0.0258683
5.78335
0.0221132
2.74178
0.039022
0.0281294
0.0218155
0.0219579
0.964632
6.69876
0.0588215
3.74524
7.75517
0.022745
2.84928
0.477899
0.0220285
4.57313
4.26057
0.157667
0.0222541
2.75778
3.33516
0.0224866
0.0420992
3.80533
0.0493385
0.0221805
0.0219811
0.0230226
0.0258223
0.0937167
4.56102
0.0786332
0.088148
0.021802
0.0223647
3.36946
0.0219921
0.0535918
0.0267457
0.0231738
0.0582112
0.0220447
0.0242893
0.848419
0.0220131
3.34491
0.0220437
19.1543
2.62236
0.113583
0.0224788
0.0222928
2.80865
0.0217135
0.025467
0.0224169
0.387643
6.56957
0.0385639
2.67754
0.0439925
4.90159
0.0225896
0.0880454
0.0221725
0.0221442
3.94221
2.82082
3.34139
0.024843
0.0859019
0.0869472
3.65874
2.75879
0.628859
0.0438677
0.0216655
2.99211
0.0222462
0.0223202
1.5894
0.173688
0.0291193
0.209022
0.0496376
0.0334356
0.0302198
3.00652
0.0261323
0.0220088
5.38491
0.0491806
0.0218232
2.89983
0.0220393
0.0221182
0.277169
0.170655
10.3742
0.0218348
0.0252776
0.0219747
2.2053
0.0219964
0.554383
4.65493
2.65335
2.92397
32.6342
0.0305854
3.41859
0.866428
0.0222116
0.0319163
0.0456259
0.031019
1.23707
3.20409
3.0767
2.58443
2.40251
0.0222956
0.14718
0.0220451
3.78876
0.0321379
0.0248802
0.0256177
0.0235235
0.021988
0.1421
3.05545
0.0217717
0.0248876
0.0218818
3.7093
0.024714
3.23908
2.79564
3.71479
0.0221009
0.0219954
3.82082
0.389833
0.0221435
0.338758
0.0222295
0.160551
0.195923
0.11738
0.0635663
10.4153
0.0219074
0.0222027
3.84532
2.7271
0.0322129
0.0511215
0.0220205
6.25898
0.0220411
0.0219668
0.0241402
0.0220656
4.19131
3.1876
4.67931
0.0804866
2.81603
6.50864
0.0217242
0.0366435
0.0217806
1.27285
0.0225291
0.025524
0.0220424
0.0219519
0.0220669
3.00928
0.0243999
1.7018
0.0218775
0.0325376
0.0235982
1.55072
0.0220604
0.0366844
0.0434713
0.0769185
4.31187
0.0219517
3.81891
0.0771084
0.0487293
0.022331
0.0219933
2.86582
13.1792
0.022573
0.0221651
4.4668
4.23918
0.038674
2.67117
0.0230784
4.30725
0.0370875
0.0217719
4.1987
0.0250052
2.64636
0.022062
0.0234373
0.0221263
3.52554
2.70875
0.0217471
0.2517
3.99324
0.0220638
0.0221359
0.0219515
0.271367
2.75122
0.0725534
0.0271674
0.0444744
0.022047
0.0221301
0.0250365
0.0220174
0.250105
0.0221308
0.0829666
0.916759
0.0400889
0.0216694
3.06399
0.09425
0.0220543
0.0905837
0.0354272
4.61955
0.0246433
7.90738
0.0644748
0.0221313
0.100595
0.0985754
0.0265311
3.44698
0.078336
0.0367723
4.63748
0.0220629
0.169444
0.0912658
0.142327
0.0219695
0.022067
0.021707
0.0332766
0.0709913
0.0688455
5.20942
3.49709
2.78955
0.0222672
1.9062
2.59414
2.70746
0.0220483
0.0221809
0.0652589
2.73755
0.0248228
0.0428308
32.1984
4.31172
18.7694
0.115014
0.288073
2.61363
3.06466
0.0217447
13.8482
1.13857
0.0228875
0.023202
0.0233335
3.10426
0.112366
3.58126
0.0251554
10.6699
0.022534
5.69294
3.27221
0.0223763
0.0407327
3.10807
3.43295
0.0626783
0.0237879
0.0242681
0.0224727
0.252037
0.212549
8.0739
2.71158
0.0218806
4.1599
0.193532
3.63617
0.0220343
0.0221666
3.55448
0.270397
0.0220467
0.0568051
0.0738001
0.0398798
2.93627
2.90646
2.98574
2.76547
0.0263192
0.0218368
0.066863
4.14752
8.90293
0.0223907
0.293704
0.0944989
0.443215
0.0239007
0.0222569
1.19536
5.24517
8.81684
1.6754
3.73735
0.0219894
0.261401
2.79348
0.0223301
0.0627904
0.133133
0.0217643
0.276397
2.95013
0.2463
0.0222559
4.71524
0.157297
24.5672
0.0216039
0.0257086
0.0224339
0.0252543
0.0223793
0.0602523
0.0428483
0.0447259
0.334137
0.0402543
3.33339
0.0257968
0.0354088
0.03016
7.44009
0.0582369
3.78073
0.0299977
0.0283775
15.7869
0.0980212
0.022116
0.0448062
5.37377
3.46682
3.10981
0.0220978
0.0220068
0.0220836
5.24771
0.0237094
2.45558
1.32433
0.268394
0.0347694
0.386735
4.3414
0.0223759
5.85932
0.0353149
0.0519042
0.0221291
0.0223493
0.0616769
2.8695
0.0220828
3.7757
0.588165
0.100116
0.232441
0.0220214
0.0220359
0.0342309
0.024599
22.6276
21.8015
0.0898191
0.956368
0.0220905
0.0224491
0.0226287
0.0222458
4.90168
0.0246938
3.34095
0.087839
0.023965
0.393258
6.86413
2.70456
6.89625
0.0251711
0.0221619
0.022135
0.0258962
0.738056
0.254963
3.34328
0.0221584
0.0235022
0.169924
0.0222602
3.87854
0.0239353
0.157739
0.180326
0.0438939
0.042277
0.0218392
0.0544034
0.0406016
0.226732
0.0820401
0.0448281
0.0218955
0.271027
0.0219821
5.06866
2.57532
0.936708
0.0221616
0.112082
0.0221267
0.0581611
0.0239942
0.0241774
0.0287478
7.17124
2.71668
0.0811461
0.0510504
0.251743
0.0864792
2.78196
2.83795
0.0326382
2.96952
0.399002
0.0220182
0.0570557
2.78072
0.0965236
0.0222371
0.0612943
2.28008
5.67981
8.13151
0.0226958
4.77708
0.0220998
0.0220067
0.0544034
4.28245
0.022264
3.80115
3.44837
3.92718
9.07601
0.356007
3.07236
0.392474
0.0218241
0.0264571
0.0218579
0.0441822
0.45305
5.84669
0.0249707
0.0445038
0.0218771
2.95158
0.0468706
0.0541606
2.6963
0.10081
5.55118
2.95948
0.0220658
5.38005
0.0221188
0.0289279
0.0491918
2.61373
0.279957
0.028384
0.0253544
0.578995
0.0379986
2.8292
4.87988
0.0319387
2.67253
0.0584432
0.022273
1.1674
0.0705644
0.0232132
7.24605
12.69
0.0342059
0.0263982
0.193276
4.87916
0.0220296
0.0226799
0.0217398
0.0218394
0.0223686
3.84323
0.0329958
2.93539
0.0219673
0.0224003
0.875954
0.0228457
0.0252566
0.0220687
0.0220542
4.95514
0.0219598
3.72522
0.0226135
0.0244898
0.0446629
0.0222028
0.143664
0.021981
0.0222653
0.0219609
0.0305472
0.0913512
0.027159
2.58816
0.0220587
0.0458251
0.0338762
2.86664
0.0228352
0.0222691
0.0221329
0.0218322
0.617613
0.0219925
0.0222001
0.026663
6.04659
0.0219481
0.0444566
0.0342815
0.0221273
3.48116
5.15654
4.15285
3.54809
0.0277104
0.174412
0.0222199
0.0995503
0.939017
0.023225
4.73646
0.208521
3.59864
0.0321388
0.0220514
1.59704
0.0470226
0.952418
3.0826
0.0218491
0.0220501
6.02093
2.60906
0.0775195
0.0600776
0.0235978
8.52328
4.63341
0.0216165
0.0219907
0.0226503
0.0221759
0.0222488
0.0220565
0.035824
2.73693
0.0327309
0.0222897
0.42892
0.0220094
0.958348
0.0486566
0.0230547
0.0304283
0.0219724
0.410782
0.0255
0.0506602
0.0220317
0.0227695
3.35306
3.72271
0.0221778
0.0658398
0.0453471
0.0327268
0.0241724
0.0222714
0.0243773
2.07212
0.656887
0.0530964
3.87821
0.0236574
21.5791
0.14075
0.0274826
15.125
0.0233128
2.72481
3.66931
2.79626
9.31224
2.88278
2.59081
0.0219719
0.0296099
0.0248635
0.0218353
0.0220456
0.0333555
0.0767336
0.0220327
0.0301577
0.212554
0.0807462
0.345857
3.83523
0.0369482
2.25389
8.69422
0.0343385
0.0250104
0.195832
7.15684
2.75182
0.0261033
0.0218542
0.0219786
0.0219438
0.0357046
3.14092
0.415819
0.0221682
3.5551
0.0219975
0.434918
2.86946
0.0814907
0.218687
0.090315
0.321584
0.0230333
0.0335856
0.0219262
0.251693
0.0220473
0.0238495
0.0390414
0.478401
0.0221791
0.0245964
3.21053
0.0218478
0.0224333
0.0296503
4.67186
0.13707
4.65127
0.0385218
0.0221511
2.85382
0.0374926
0.0243956
0.0220529
0.0324842
0.0283125
0.0220599
0.0335695
3.66273
0.0243099
0.0218203
0.0481382
0.0219379
0.0326449
0.0307253
0.0220778
0.0220174
3.71745
0.0218181
0.0220512
0.0217537
0.0263947
0.021581
3.72298
0.0277749
0.258386
0.0219705
0.0222716
0.0228775
3.14379
0.0873657
0.0220603
0.0218777
3.82281
0.0252335
0.0815384
0.0219026
0.192391
0.0240062
0.0216398
8.30351
0.0222123
0.0223714
0.0221505
0.0225521
0.0243979
0.0221282
0.0220452
1.62486
1.53353
3.63097
3.55095
6.00568
0.0219851
2.99509
0.0219788
2.76773
5.75526
0.0218277
7.91565
0.0219897
3.7618
9.70565
0.267445
2.98827
3.10416
0.94371
3.57925
4.76028
3.47945
0.0472125
0.0545114
3.88061
0.0237567
0.0217639
5.84429
0.0252451
0.0288518
10.9988
0.0234431
3.53995
2.87955
4.21526
0.540693
0.175812
0.0222522
0.029047
0.0488299
0.0227761
5.11687
0.397244
0.109359
0.0220105
0.022072
6.70844
0.0218275
1.04702
0.0220935
6.62351
3.16245
0.0345014
0.0272639
0.0220969
8.17739
2.94146
0.0262002
0.0365216
0.0222858
0.0222855
0.0753565
0.0233794
0.0323737
0.0710728
0.0248583
0.0399316
0.0220569
0.0331556
12.4841
0.0236411
9.33406
0.022311
3.63781
0.0547058
0.0220547
10.1185
0.215769
0.0219303
0.160682
0.0220564
4.92633
0.0223131
0.0220372
2.73663
0.02215
0.134344
0.024444
0.217658
0.0220613
0.0224898
0.0219016
0.0308401
0.0246506
0.0224465
0.0228013
0.0254561
0.022624
0.214874
0.0684058
0.0369914
0.0234096
0.0219374
2.37964
11.3186
0.0229529
0.0227044
0.0228231
0.0402858
0.0224729
0.0382217
0.0216592
0.0222853
4.3161
0.0235508
0.0222846
0.0219562
3.63069
8.72825
0.0216652
0.0776942
0.0589045
0.304162
3.97286
4.09473
3.02609
0.926398
0.0240803
0.217276
0.021941
0.0314997
5.38817
3.26371
0.14082
0.0241197
13.0472
0.0220549
0.0513394
0.732659
0.0223686
0.214884
0.0241522
0.0238643
0.0831464
0.662368
2.94956
2.89023
0.0219565
0.0217444
3.66461
3.13114
0.0223895
0.0300839
0.212674
0.0220687
0.0220254
0.0250098
3.64138
0.0218535
3.32552
0.0304047
0.0227299
3.51957
0.102837
0.0933894
0.130319
4.21095
0.0247199
0.0403461
0.0275328
0.0241066
7.09587
0.0377078
3.29613
2.83153
0.0712529
2.75614
0.0510702
0.0514567
0.377312
0.0218172
2.93623
0.102537
0.0353736
0.0299148
0.0221802
0.0218537
2.87727
0.0471939
2.91194
3.48996
0.0221197
3.21959
0.0218801
0.0220303
0.0294254
9.12025
0.102102
0.022089
3.11657
0.0220676
0.0243463
2.64224
0.0244641
2.96712
0.022273
3.0301
6.54477
0.0695948
6.88727
0.0236715
2.82749
0.021906
4.13905
3.63312
3.21726
3.6177
0.0219568
0.0221206
0.274184
2.58333
2.66343
3.44155
3.28556
0.022375
3.36834
2.88272
0.0225873
9.83996
0.0316382
0.0359263
10.679
0.0402441
2.87893
0.0220764
0.0402617
0.0405083
0.249195
4.78036
0.0390791
3.01379
3.06619
0.0221741
0.0250119
0.0243239
0.0269116
2.68389
0.0220326
0.0218357
0.041229
2.59972
2.63282
0.0308875
3.41553
2.73131
0.0220451
5.94392
3.67562
0.296769
3.53956
0.0743751
0.0249531
0.0221752
0.175553
0.028456
0.0904335
7.63836
3.40306
0.0301005
0.0987466
0.0260471
0.0505759
0.0217011
0.053892
0.0249803
0.102183
3.22905
9.20517
3.82787
0.0219445
0.21796
0.0823667
3.04542
0.0232675
3.25445
3.20303
2.78909
0.023192
0.177358
3.9512
9.01941
5.33946
0.0386926
4.03402
9.84649
0.0807452
0.088886
0.0257318
0.0304819
3.14412
0.0461592
0.0221881
2.67312
0.0224443
0.0230763
0.213679
0.213863
0.0222286
0.097439
0.0254231
3.12687
10.0386
0.0247011
2.95447
0.0228815
0.0219396
0.0744977
3.45653
3.04995
2.91664
28.6572
2.76989
0.241472
0.0221189
11.6365