/*--------------------------------*- C++ -*----------------------------------*\
| =========                 |                                                 |
| \\      /  F ield         | OpenFOAM: The Open Source CFD Toolbox           |
|  \\    /   O peration     | Version:  v2012                                 |
|   \\  /    A nd           | Website:  www.openfoam.com                      |
|    \\/     M anipulation  |                                                 |
\*---------------------------------------------------------------------------*/
FoamFile
{
    version     2.0;
    format      ascii;
    class       volVectorField;
    location    "850";
    object      ddt0(U);
}
// * * * * * * * * * * * * * * * * * * * * * * * * * * * * * * * * * * * * * //

dimensions      [0 1 -2 0 0 0 0];


internalField   nonuniform List<vector> 
13917
(
(0.0102107 0.00150966 -7.32255e-18)
(-0.00612542 -0.0032721 -3.70343e-18)
(0.000922418 0.00368649 1.80138e-18)
(-0.000871672 0.00080304 -2.9231e-19)
(-0.00272592 -0.00268504 -1.42687e-19)
(-0.00559428 -0.00348859 -1.52944e-19)
(-0.00104664 0.00155347 -1.76232e-20)
(-0.0147122 0.00114542 -2.69523e-19)
(-0.000652954 0.00153758 -4.26171e-19)
(0.00108922 -0.00118171 1.26549e-17)
(-0.0125209 0.000914862 -8.10226e-19)
(-0.00095878 0.000391949 -1.21508e-18)
(9.91883e-05 8.59379e-06 -1.81207e-18)
(0.0118506 0.0178588 -1.18105e-17)
(-0.00237178 -0.00195508 -2.10955e-18)
(0.00970184 0.0014659 7.00292e-18)
(0.00150071 5.70299e-06 1.3795e-19)
(-0.0107754 0.00128698 3.37491e-18)
(-0.00115023 0.00360343 -3.41782e-18)
(0.00930911 0.000630125 -7.59067e-19)
(-0.00357297 0.00194901 -1.21938e-18)
(-0.00105209 -0.000833849 3.45725e-19)
(-0.00148636 0.00227513 1.814e-18)
(-0.00102178 -0.000846953 -2.55636e-19)
(-0.00141001 0.000931579 -6.49352e-19)
(-0.00420721 0.00204897 -2.28703e-18)
(0.0204978 -0.00209262 5.05032e-18)
(0.000521448 -0.000209128 -1.17622e-17)
(-0.00680328 0.00223346 1.40811e-18)
(0.00153421 0.000554911 6.75485e-20)
(0.00089112 0.000244618 -2.98308e-18)
(-0.000771704 0.00269916 8.55111e-19)
(-0.00112918 0.000695336 1.28863e-18)
(0.0115515 0.00169052 1.81357e-18)
(0.000524747 -0.00109066 1.11891e-19)
(-0.0142357 0.000892164 -1.32587e-19)
(-0.00249377 0.000315175 -1.3608e-18)
(0.000338243 -2.51658e-05 -3.1219e-19)
(-0.00105569 0.00157712 7.23574e-20)
(-0.00219247 0.00215459 2.6228e-18)
(0.000964942 1.0444e-06 -7.89728e-20)
(0.00226826 -0.00073524 -1.80014e-19)
(-0.000736716 0.00135404 7.4601e-20)
(-0.00086895 0.00329981 2.15169e-18)
(-0.00080771 0.00330572 6.86576e-20)
(-0.00796682 0.00136616 -1.28252e-19)
(-0.00341569 0.00177638 1.2556e-18)
(0.0127843 -0.00479479 -1.44618e-18)
(-0.00610095 -0.011445 -1.20056e-18)
(0.00051256 -0.00114184 -3.02735e-20)
(-0.000958586 0.000367978 1.33399e-18)
(-0.00424007 0.00249457 -3.98006e-19)
(0.00882574 0.00127726 -3.20515e-18)
(-0.00118946 -0.000115665 1.04167e-18)
(-0.00125415 -1.93738e-05 1.01898e-18)
(-0.00408475 0.0027217 3.00968e-18)
(-0.000761391 0.000364184 7.57138e-18)
(-0.00147307 0.0022416 -1.01792e-18)
(0.00211849 -0.000714193 1.96757e-19)
(-0.00815558 0.000663297 1.06237e-19)
(0.018959 0.020968 1.28787e-19)
(0.00529143 0.00326167 5.01147e-19)
(0.00108687 3.34015e-05 -8.3377e-21)
(-0.00139059 0.000903879 -7.06619e-19)
(0.0146157 0.00363243 -1.36268e-17)
(0.00110839 0.000358719 3.82643e-20)
(-0.00803642 0.00203812 3.50762e-18)
(-0.0154222 -0.00043002 -3.60094e-18)
(-0.0112049 0.00196578 -1.45616e-18)
(0.0100404 0.00144476 3.894e-18)
(0.00397631 0.00419812 3.53912e-18)
(0.0112212 0.00166029 6.06872e-18)
(-0.000489378 0.000598598 5.90861e-19)
(0.00205534 -0.000821019 -1.47217e-19)
(-0.00348752 0.00212232 -1.27926e-19)
(-0.00178438 0.000870826 2.44072e-18)
(-0.00182468 -0.00142257 1.3256e-18)
(0.00195901 -0.000800651 2.53655e-20)
(-0.00173676 0.000839785 -1.92057e-18)
(-0.00113833 0.000714019 6.96669e-19)
(-0.00159851 -0.000557554 2.82263e-19)
(0.00144339 -1.48843e-05 1.25815e-20)
(-0.000515817 0.000582055 -6.85968e-21)
(0.000706705 0.00359734 -3.42852e-19)
(-0.000117759 -4.40561e-05 1.77303e-18)
(-0.00934755 0.0088725 3.91667e-18)
(-0.00088912 0.00267258 -2.06814e-18)
(-6.04564e-05 -2.30182e-05 1.51076e-18)
(-0.00227843 0.00215603 1.1271e-18)
(0.0015965 5.23626e-07 4.67217e-20)
(0.00171497 -3.16313e-05 -4.19315e-20)
(-0.000616133 0.001379 -9.7399e-20)
(-0.00471304 -0.0153594 -4.21315e-20)
(0.000530259 -0.00100476 -1.55822e-19)
(-0.00168754 -0.000139801 1.47332e-18)
(-0.00738772 0.00250618 -4.63127e-18)
(0.0247785 0.00372291 4.78729e-18)
(0.00101993 -5.26686e-05 5.72237e-20)
(-9.13435e-05 -2.3205e-05 -6.05274e-19)
(0.00196601 0.00446116 -2.76652e-18)
(0.00117406 2.42788e-05 6.94413e-20)
(0.00128034 2.35481e-05 8.19305e-20)
(-0.00165846 -0.000551374 -6.87452e-19)
(0.000903882 -0.000102597 7.09195e-19)
(-0.00173132 -0.0014698 -2.03633e-19)
(-0.00178956 0.00295492 1.83957e-18)
(0.0139059 0.000516504 7.79737e-18)
(0.00441075 0.00519811 -5.53594e-22)
(0.00237102 -0.000546841 1.31841e-19)
(0.0200247 -0.00324091 5.86213e-19)
(-0.000154758 5.64065e-05 -2.39021e-18)
(0.0118364 0.00174487 -7.5592e-19)
(-0.00627324 0.00256691 -2.52843e-18)
(0.0109784 -0.00660562 8.7217e-18)
(0.0140684 0.00370521 1.06549e-17)
(-0.00205736 0.000889899 2.28337e-19)
(-0.00123818 0.00350487 -4.70578e-18)
(0.00183787 2.28719e-05 1.86265e-19)
(-0.000819429 0.00375666 -3.34226e-19)
(-0.000455485 0.000521907 -4.7219e-19)
(0.00145592 -3.30842e-05 -1.15771e-19)
(0.00185603 -0.000944261 -2.6442e-19)
(-0.00844609 0.00242259 -1.21602e-18)
(-0.00232826 0.00324359 1.10032e-18)
(0.0103196 0.00122195 -3.31508e-18)
(0.00612098 0.0031684 8.82117e-20)
(-0.00130428 0.000887691 9.16118e-19)
(-0.00357727 0.00231426 8.54572e-19)
(-6.07593e-05 -0.000990536 5.95722e-19)
(-0.00220557 0.00332985 -1.3084e-18)
(-0.00102143 0.00196015 1.15398e-18)
(-0.00219282 -0.00284611 -1.4674e-18)
(0.0136846 0.0013417 9.17068e-18)
(-0.00210704 0.000852387 -9.95046e-19)
(-0.000538518 0.00287471 -8.96529e-19)
(0.0198437 -0.00303331 4.01531e-18)
(0.00914347 0.0165204 4.59278e-19)
(0.0107433 0.00113518 2.23678e-18)
(-0.00467492 0.00218227 -1.26393e-18)
(0.000377882 -1.50329e-05 -4.26873e-19)
(0.00328908 0.0258925 9.8152e-20)
(0.00190824 -0.000861136 1.00421e-19)
(-0.002478 0.00303191 -1.61096e-18)
(-0.000511095 -0.000501554 -5.77853e-19)
(-0.000518777 0.000522492 2.51028e-19)
(0.00215099 0.00148488 3.0863e-20)
(0.00324111 0.00400684 -4.78217e-18)
(-0.0132201 0.035918 2.8325e-19)
(0.0109776 -0.00486783 1.14036e-17)
(-0.00124008 -9.0378e-05 -1.59966e-18)
(-0.00234663 0.00201814 2.07099e-18)
(0.00128792 3.07456e-05 6.66312e-20)
(-0.000495407 0.000504698 -8.33359e-19)
(-0.000428622 0.000530562 -2.07431e-18)
(0.026632 0.0021563 -8.54072e-19)
(-0.000986733 -0.0012134 -8.17789e-19)
(0.000922198 -0.000120027 -2.42495e-19)
(0.0138871 0.00132122 2.66777e-19)
(0.00147912 1.87451e-05 1.37505e-19)
(0.00175802 1.47187e-05 -2.83913e-19)
(-0.000317538 -0.000190311 1.81335e-18)
(0.0176076 0.00605729 -6.89323e-18)
(-0.0032627 -0.000164717 1.94975e-18)
(0.00211165 0.0255042 3.66762e-20)
(0.0182533 0.014712 3.15286e-18)
(0.00321524 0.00514947 4.10472e-18)
(0.00582962 0.00104501 8.78256e-18)
(0.0311516 0.0144808 -8.10776e-18)
(0.00127096 0.000182221 1.21531e-20)
(-0.00491044 0.00242816 -1.14306e-18)
(-0.00105346 -0.000929006 1.19734e-18)
(0.0137041 0.00137998 7.89393e-18)
(-0.000588712 0.00152584 7.00663e-19)
(0.00927749 0.0139266 1.47898e-18)
(-0.00267641 0.00149477 -1.09232e-20)
(0.00145578 3.30627e-05 -6.34067e-20)
(-0.000829827 0.00081252 -6.08383e-19)
(-0.00484891 0.00231743 5.33032e-19)
(-0.000881703 0.00192762 1.2561e-18)
(-0.00344727 -0.000168627 2.70381e-19)
(-0.000676751 0.00132308 -4.35969e-20)
(-0.00100421 -0.00090535 4.85649e-20)
(-0.000986669 0.000346595 -3.2568e-19)
(-0.00464955 0.00489974 -1.77038e-18)
(-0.000383893 0.00385279 -4.34906e-18)
(-0.00158977 -0.00303052 2.10992e-18)
(-0.000952857 0.000319289 1.32381e-18)
(-0.00497359 0.00477846 -5.29872e-19)
(0.00154773 0.000564418 -5.35765e-21)
(-0.00963019 0.00824947 1.07634e-17)
(-0.00263061 0.001384 -5.12972e-19)
(-0.000911489 0.00323255 2.90161e-18)
(-0.0035317 0.00415183 -7.59826e-19)
(0.0105138 0.00144216 -8.66881e-18)
(0.000523133 -0.000991326 4.21264e-19)
(0.0103399 0.0012627 -4.09551e-18)
(-0.00162294 0.00133394 2.54308e-19)
(0.0136089 0.0014 4.40959e-18)
(0.000511137 -0.00105766 -4.09735e-20)
(-0.000963398 -0.00115454 -1.72308e-19)
(-0.00316129 0.0015179 4.02663e-18)
(0.0100827 0.00147283 -1.76078e-17)
(0.0102907 0.00112532 -3.5384e-18)
(-0.00240184 -5.84911e-05 -5.80782e-19)
(0.0174852 -0.00330409 -6.32755e-19)
(-0.00561782 0.000309599 6.61596e-20)
(-0.00227105 0.00204166 -3.08166e-18)
(0.0019246 -0.000927642 1.44214e-20)
(-0.00460557 0.0025917 -2.5834e-18)
(-0.00159067 -0.000609309 -1.08258e-18)
(0.000249502 -0.000700088 -1.07513e-18)
(-0.00359283 -0.00483176 2.06586e-19)
(-0.00400023 -0.00509616 3.30341e-19)
(0.0139271 -0.00359498 6.47905e-19)
(-0.000754327 0.00283909 3.35151e-19)
(-0.00435952 0.00226294 3.85297e-18)
(0.0160762 0.00314775 -1.03609e-18)
(0.000172234 -4.90373e-05 1.35356e-18)
(0.0019313 -0.000440902 1.28242e-19)
(0.00195556 -0.000426126 -1.19844e-19)
(0.0258264 0.0109727 1.6554e-17)
(-0.00404152 0.00445145 9.68136e-19)
(-0.00512757 0.00503606 2.84761e-19)
(-0.000193948 9.714e-05 2.14635e-18)
(0.000902858 9.11474e-06 9.65459e-21)
(0.015513 -0.00392504 -2.26207e-18)
(0.00999105 0.00129843 2.45477e-18)
(0.00187307 -0.000371083 -6.68872e-20)
(0.00185668 -0.000353476 7.4108e-20)
(0.000895312 -2.12927e-05 2.88072e-20)
(0.00199629 -0.000453517 2.42312e-19)
(0.00201979 -0.000438419 -7.24893e-20)
(0.0109832 0.00162093 -4.20794e-18)
(0.0201581 0.00110571 -3.73014e-18)
(-0.00126301 -0.000697897 3.08091e-19)
(0.00134365 0.000302433 -2.5488e-20)
(-0.00269121 0.00229874 1.05624e-18)
(0.0108179 0.00153273 -1.49428e-18)
(0.00160755 2.13742e-05 -5.88333e-20)
(-0.000166308 8.62957e-05 -1.18102e-18)
(0.0184756 -0.00336503 2.30675e-18)
(-0.00247991 0.00294634 -7.73592e-19)
(-0.00421648 0.00465901 2.42453e-18)
(0.0156326 0.00285294 4.4864e-18)
(-0.00349671 0.000908545 -2.92499e-19)
(-0.000533777 -0.000489969 9.96447e-19)
(0.0330706 0.0152857 9.36371e-18)
(-0.00273686 0.00241704 -2.5953e-19)
(-0.00591058 0.00230646 8.86177e-19)
(-0.00125236 0.00295803 -6.73822e-19)
(-0.0022944 -3.46132e-05 8.17396e-19)
(0.0172297 -0.00110321 -2.55138e-18)
(-0.000471176 0.000538836 -2.50017e-18)
(-0.00190345 0.00172347 -1.42689e-18)
(-0.00244052 0.00159895 -8.77461e-20)
(-0.00128498 -0.000765664 7.2958e-19)
(0.000569309 -9.26343e-07 5.72717e-21)
(-0.0013316 0.000914712 -8.03859e-19)
(-0.000795575 -0.00258589 3.16419e-19)
(0.000265661 -0.0010627 -2.03363e-19)
(0.010848 0.0012616 4.17842e-18)
(0.00596962 0.00850609 1.16246e-18)
(0.00167177 -0.00126074 2.04567e-19)
(0.00182367 -0.000342746 -2.10195e-19)
(-0.00104677 -0.00125116 4.53619e-19)
(0.00180697 -0.000355809 -4.17581e-19)
(-0.000455893 0.000544368 -1.10888e-18)
(-7.82112e-05 1.16281e-05 2.33742e-19)
(-0.00163744 0.00185744 -8.4434e-20)
(0.0017575 -0.00133023 -6.14312e-20)
(0.0111336 0.0010785 -3.0117e-18)
(0.0145435 0.00107246 -8.35327e-18)
(-0.000806511 0.000144042 -2.30769e-18)
(-0.00126505 -0.00195659 -2.23428e-20)
(-0.00738783 -0.000617876 -5.69661e-20)
(0.00220871 -0.000167665 -4.57303e-20)
(0.000497852 0.00435312 -1.71809e-18)
(0.0112429 0.00125385 -4.55279e-18)
(0.00219887 -0.000189605 -7.76051e-20)
(0.0103566 0.00146164 7.15205e-18)
(0.000327905 -0.00112303 3.12994e-19)
(0.0176253 0.0065266 9.24196e-18)
(0.00129234 2.3126e-05 -1.74824e-20)
(-0.00215724 -0.00151379 1.21421e-18)
(-0.00134994 -0.000789267 9.49048e-19)
(-0.000444074 -0.000565322 -1.10383e-18)
(-0.00174421 0.00429326 -8.10067e-20)
(0.000490934 -4.8763e-05 4.93275e-19)
(0.00659387 0.00477962 -6.94088e-19)
(-0.00194651 0.00151063 -5.04903e-19)
(0.00991383 0.0066139 8.20496e-19)
(0.00254039 0.00205305 -2.15818e-20)
(0.0125764 -0.00235686 -1.25224e-18)
(0.0107755 0.00107633 4.87617e-18)
(0.00175668 1.52767e-05 -8.80423e-21)
(-0.00181341 0.00226749 1.24028e-18)
(-0.00148632 -0.00277337 -8.22483e-19)
(-0.00222566 0.000874918 3.1289e-19)
(-0.00230436 -0.00269196 -4.51051e-20)
(-0.00167085 0.000865194 1.70868e-18)
(0.000489458 -0.00104794 4.49465e-20)
(0.000518154 -6.6256e-05 2.94104e-19)
(-0.00493775 0.00163724 -1.7373e-19)
(-0.0149806 0.00243507 2.01629e-19)
(-0.00186659 0.0017301 -3.24951e-19)
(-0.00162846 0.000838548 1.25308e-19)
(-0.000146134 7.36534e-05 3.29478e-19)
(0.0137396 0.0013493 -4.16924e-18)
(0.00959822 0.00146987 1.99891e-17)
(0.000117598 -0.000973596 -5.57571e-19)
(0.00308995 0.000967419 8.14971e-20)
(-0.00217767 0.000909924 -1.9898e-19)
(-0.0113634 -0.0171181 6.58152e-19)
(-0.000585494 0.00298454 -7.21843e-18)
(0.0136201 0.00125939 3.49614e-18)
(0.0036963 0.0134434 6.6899e-20)
(0.00134046 0.000175634 1.67613e-20)
(-0.00190848 -0.00214632 7.26517e-19)
(-0.00110902 -0.00184472 5.17706e-19)
(-0.000846891 0.00382088 7.70182e-19)
(-0.0111042 -0.0143224 -1.19811e-19)
(0.000642335 0.00360239 -1.71442e-18)
(-3.9717e-05 9.30014e-06 1.56294e-18)
(-0.002213 -0.00183335 2.0467e-18)
(0.0190414 -0.00200981 -1.69175e-18)
(-0.00110332 -0.0010547 -2.02927e-19)
(-0.00672674 -0.00345865 -3.15591e-19)
(-0.000968173 0.00322856 8.14806e-19)
(0.00153744 4.71661e-06 -3.91527e-20)
(0.0137253 0.00139586 -1.19991e-19)
(-4.5943e-05 -3.67664e-05 -1.26093e-18)
(-0.000607825 0.00220001 3.08766e-20)
(0.00252109 8.59968e-05 -3.34998e-19)
(0.00663136 0.000444174 3.85915e-18)
(0.000335318 -0.000348566 -1.71546e-19)
(-0.00185133 0.00172859 -6.32396e-19)
(-0.0057086 0.00060297 1.579e-18)
(0.00147052 0.000188149 1.48893e-20)
(0.00167396 1.23922e-05 -1.58872e-19)
(-0.00113124 0.0029486 1.40311e-18)
(-0.00264886 0.00303654 -4.61908e-18)
(-0.00160378 -7.17543e-05 2.64812e-19)
(-0.00107061 -0.0010824 5.5108e-19)
(0.0122979 0.00181653 -2.97351e-18)
(-0.00302571 0.00305441 5.63366e-18)
(0.0122521 0.0100758 -1.8668e-18)
(0.0117236 0.0175478 8.7682e-18)
(0.00216882 -0.00018651 1.26519e-19)
(-0.00129951 -0.00059231 -8.5559e-19)
(-0.00245762 0.00285365 -2.47584e-18)
(-0.00241604 -0.00200195 -2.7657e-19)
(0.00215964 -0.000213087 2.80649e-20)
(-0.00189687 -0.00301031 5.88458e-19)
(-0.00109023 0.000155185 -3.41014e-19)
(-0.00344028 0.00412702 3.97964e-18)
(-0.00181392 0.00172373 -4.08773e-19)
(-0.00310311 0.00353796 8.3631e-19)
(-0.0023187 0.000164813 1.63413e-18)
(0.000219432 0.0047493 2.54954e-18)
(-0.000720663 0.00220345 -1.08261e-19)
(0.0113028 0.00163693 5.92038e-18)
(-0.000100732 -0.00101513 -8.0084e-19)
(-0.00160692 -2.83769e-05 -4.86185e-20)
(-0.00316313 -0.00288076 -1.0466e-19)
(-0.00117679 0.00442868 -4.14098e-18)
(0.00149183 1.04602e-05 5.96802e-20)
(0.00984472 0.0014797 5.71392e-18)
(-0.000596333 0.00218507 5.17156e-19)
(0.000986951 -0.0175301 4.65149e-21)
(-0.00125916 -2.83181e-05 -9.49987e-19)
(-0.00258857 -0.00102599 2.98384e-18)
(0.00315392 0.000896951 -1.32089e-19)
(-0.00630961 -0.0220172 -4.84014e-19)
(0.0017576 -0.0005407 3.63228e-20)
(-0.00466479 0.00517799 -9.16571e-19)
(-0.00870777 0.000332476 2.87962e-19)
(-0.00614662 0.000805523 -3.2014e-18)
(-0.000834584 0.000148111 7.28227e-19)
(-0.00202114 0.00549355 -1.21495e-18)
(0.00263731 0.000138163 -4.56842e-20)
(0.0198295 0.0167499 -2.00378e-18)
(-0.00356628 0.0043697 2.65778e-18)
(0.00162974 -0.00058829 2.69793e-20)
(-0.00763861 -0.0188325 3.33071e-19)
(-0.00145509 -0.000894829 6.44596e-20)
(0.00592421 0.00116916 2.87048e-20)
(0.000890258 -0.00080451 -2.02681e-19)
(0.0100678 0.000428638 -6.3314e-18)
(0.00680655 0.00177032 -5.91632e-20)
(-0.00219589 0.00046158 2.05139e-18)
(0.0116631 -0.00519512 6.89116e-19)
(-0.000730927 0.0047124 -2.91262e-18)
(-0.00213607 -8.23786e-05 -8.86563e-19)
(0.0151123 0.0120571 1.55263e-18)
(-0.0011657 0.00276847 1.07445e-18)
(-0.00196125 0.000473765 9.80002e-19)
(-0.00193689 0.00443494 -2.3207e-19)
(-0.00125506 -0.000481441 -1.75747e-19)
(-0.000791984 0.00535032 1.43316e-18)
(0.000252251 0.00373873 -9.48017e-18)
(-8.0151e-05 -3.03459e-05 8.07079e-19)
(-0.000836158 0.00155597 2.33426e-19)
(-0.00157073 0.000860036 1.26337e-18)
(-0.000427788 -0.000510372 -3.90636e-19)
(4.57507e-05 -0.00027483 -1.10779e-18)
(-0.000202809 -0.00101178 -1.15284e-18)
(0.00833908 0.0198664 -2.27201e-19)
(0.00228536 0.00397684 -5.23206e-18)
(-0.00148002 -1.7667e-05 1.104e-18)
(-0.000214174 -0.00109523 4.98827e-20)
(-0.000888802 -0.000791471 -9.93335e-19)
(-0.00196989 0.0020311 -6.12239e-19)
(-0.0101396 -0.00676203 -1.27451e-18)
(0.00236076 -2.95003e-05 4.58515e-20)
(0.00128663 0.000165057 5.67139e-21)
(-0.000589459 0.00299811 6.24167e-18)
(-0.00215307 -0.000868098 -1.28044e-18)
(-0.000467453 -0.000577694 6.96259e-19)
(-0.0020959 0.000444227 1.24251e-18)
(0.0029863 0.00843402 -1.99026e-18)
(0.0249543 0.00306018 -4.2833e-18)
(0.00101402 0.000189456 2.05764e-20)
(-0.00106187 0.00364138 4.96897e-18)
(-0.00152429 0.00374903 -2.42678e-18)
(0.00234939 -0.00074384 -4.79894e-20)
(0.00231377 -6.36429e-05 -1.53455e-19)
(-0.00369679 0.00138236 -1.01886e-18)
(7.52847e-05 -0.000259858 -3.80859e-19)
(0.00235759 -5.46094e-05 1.01245e-19)
(-0.00129007 -0.000722577 -1.49135e-18)
(0.00231264 -8.89742e-05 3.15157e-21)
(0.00235063 -0.000697081 -1.01435e-19)
(0.0313087 0.0103529 -1.61957e-17)
(-0.00130808 -0.00046949 -8.9834e-20)
(-0.00200879 0.00207445 1.73321e-18)
(0.0113332 0.00109039 5.12196e-18)
(-0.00183008 0.00221149 -2.00251e-18)
(0.00022213 -0.000723201 1.01668e-18)
(-0.000482327 0.00048074 9.06796e-19)
(0.0161058 0.0107242 3.08857e-18)
(-0.00333334 0.00149612 -4.11102e-18)
(0.00986371 0.00120244 1.07625e-18)
(0.00246762 4.61756e-05 9.88421e-20)
(-0.000337516 0.000134586 1.81126e-19)
(0.00268132 0.000112514 1.39541e-19)
(0.00207231 -0.000460818 7.29301e-20)
(-0.00243026 0.000243526 9.7018e-19)
(-0.00148523 -0.000952808 -1.97595e-19)
(0.00263983 0.00667162 1.05293e-18)
(-0.00160788 -0.00141729 1.56373e-20)
(-0.00172979 0.00294338 8.9366e-19)
(-0.000340832 0.00012483 1.48251e-18)
(-0.000981085 0.00202404 -7.99929e-20)
(-0.00213093 0.000377558 -1.01128e-19)
(-0.00152647 -0.000611725 1.60391e-18)
(-0.00348761 0.00117795 -3.27271e-20)
(0.0110321 0.0102793 -8.08104e-19)
(-0.00104724 0.000157454 1.09745e-18)
(0.0115392 -2.7943e-05 2.46013e-18)
(0.000153182 -0.000736894 3.86907e-19)
(0.000256455 -0.000100275 8.30637e-19)
(-0.000856943 -0.000782868 -6.69706e-20)
(-0.00147604 -0.000872847 -3.59466e-19)
(0.000334961 -0.000652466 -1.74235e-19)
(1.52493e-05 -3.30708e-05 -7.05295e-19)
(0.013691 0.00131437 -7.31338e-18)
(0.0187985 0.0183049 -1.95345e-18)
(0.000363178 -0.00062739 3.5207e-19)
(0.013404 -0.00335287 5.93626e-18)
(-0.000484247 0.00306065 3.41423e-19)
(-0.000107651 2.70495e-05 5.7437e-19)
(-0.00196409 0.00228 2.44867e-19)
(-0.000697558 0.00256815 -3.28048e-18)
(0.0174505 0.0105693 5.0186e-18)
(-0.000881548 0.00163596 -1.58057e-19)
(-0.00228057 0.00301852 -6.02617e-18)
(0.0173431 -0.00166662 6.36628e-20)
(0.0167232 -0.00204744 -1.96941e-20)
(-0.00150497 -0.000930059 6.32128e-19)
(0.001247 0.000325229 -6.62966e-20)
(-0.00287013 0.00130286 4.06468e-20)
(-0.00223278 -9.60564e-05 -7.59195e-20)
(0.00928993 0.00751728 -2.74747e-20)
(0.00169184 -3.13929e-05 3.2775e-19)
(-0.00113097 -9.90659e-05 -4.45804e-19)
(-0.0016734 -8.57342e-05 -1.83049e-18)
(-0.000725562 0.00154454 1.02772e-19)
(-0.00299947 0.00196236 -1.31703e-18)
(-0.000432314 0.00386712 6.78394e-18)
(-0.00119679 0.00248802 -2.05659e-18)
(0.00440234 2.68178e-05 3.17243e-20)
(-0.00127225 -0.00222413 -5.61508e-19)
(-0.00985091 0.00216003 -1.33591e-18)
(-0.00156855 0.00197367 6.17238e-19)
(-0.0014542 -4.77687e-05 5.29661e-19)
(0.00780979 0.0192487 2.85639e-18)
(-0.00140127 0.00193025 -2.37475e-19)
(-0.00189026 0.00150264 5.65705e-19)
(0.0163445 0.0184345 3.65481e-18)
(-4.99482e-05 -3.8545e-05 -1.66559e-18)
(-0.00142762 0.00193556 -3.74566e-18)
(-0.00523038 0.00241807 5.78352e-19)
(0.000278821 -0.000250225 3.48109e-19)
(0.0134356 0.0011991 -1.30698e-18)
(0.000238377 -9.69668e-05 -2.30395e-19)
(0.00209228 -0.000440822 -1.29301e-19)
(-0.00199838 0.00208884 3.48951e-19)
(0.00246365 1.85203e-05 -2.26151e-20)
(0.000185502 -5.72225e-05 -1.63548e-18)
(-0.00468507 0.00132075 4.41729e-19)
(0.0138559 0.00129316 -9.50174e-19)
(0.00433171 -0.00683926 1.26782e-18)
(-0.000274893 -0.000175689 4.15433e-19)
(-0.000721156 0.000951851 1.58528e-19)
(0.00411805 -0.00217838 -1.91316e-20)
(0.00492445 0.00670096 -1.71299e-18)
(0.0056613 -0.00491753 2.34607e-18)
(-0.00136279 -9.36647e-05 1.96134e-18)
(-0.00122652 -4.74285e-05 -1.35467e-18)
(-0.000223393 -0.000161388 -4.02515e-19)
(-0.00231956 0.00172942 -1.78583e-20)
(0.00316503 -0.0584286 2.73948e-18)
(-1.07457e-06 -0.00109685 -2.06911e-19)
(0.00161423 1.1952e-05 1.40986e-19)
(-0.000908914 -0.0011271 -2.13088e-19)
(-0.000378242 -0.000478325 1.87804e-19)
(-0.00286147 -0.0036544 -6.8409e-20)
(-0.00150497 0.00155824 2.30427e-19)
(0.00171318 -9.94735e-06 3.61065e-19)
(-0.00128005 0.00250931 3.34862e-18)
(0.000290471 -0.000232479 7.6598e-19)
(-0.000960555 -0.000761872 -1.81069e-18)
(-0.00154753 0.000842759 -5.80147e-19)
(0.0127688 0.00141671 4.86754e-20)
(0.00141878 -0.000201035 1.4772e-19)
(-0.000822369 0.00125047 -4.61639e-19)
(0.000314299 -0.000991695 5.53957e-19)
(-0.000991718 0.0019837 -9.24732e-19)
(-0.00219462 0.00255869 4.65478e-19)
(-0.00510439 0.00457833 1.07835e-18)
(-0.00259386 0.00158125 1.08808e-20)
(0.00241364 0.00387158 2.99656e-18)
(-0.00158728 0.000715639 4.71066e-19)
(-0.00897212 0.00197038 1.56964e-19)
(0.0132392 0.00143557 -1.73246e-18)
(0.0277232 0.00861425 -1.6573e-18)
(0.0117135 0.00110158 -4.94267e-20)
(0.000283173 -0.000934559 -2.99731e-19)
(-0.000781791 -0.000800727 2.04298e-19)
(0.00477459 0.00039214 -6.01723e-20)
(-0.000576011 0.0001769 -5.22184e-19)
(0.014057 0.00338309 -7.29774e-18)
(0.00226121 -0.000164143 -1.88769e-19)
(0.00434912 -0.0206258 -8.16703e-20)
(-0.00157416 0.0013362 7.36692e-19)
(0.0122285 0.00176655 -2.97672e-18)
(0.00118855 0.0043317 -2.45608e-19)
(-0.000772668 0.00135695 -2.30139e-20)
(0.00347608 -0.00188605 4.97808e-18)
(0.00039827 -0.000639568 2.11501e-20)
(-0.000635211 0.00252328 -1.78136e-18)
(0.00106299 -6.89269e-05 3.91578e-21)
(-0.000737545 -0.0023393 -1.22369e-19)
(0.012942 0.00168935 2.49272e-18)
(0.00241568 7.46169e-06 -2.91161e-20)
(-5.60645e-05 0.00318692 3.60197e-18)
(0.000954901 1.25099e-05 -1.36617e-20)
(-7.91413e-05 2.17816e-05 -5.40146e-19)
(-0.000835499 -0.000811535 -2.26528e-19)
(-0.000585806 0.00380335 -2.55728e-18)
(-0.00282294 -0.00439133 1.27381e-19)
(0.00171816 -0.000298564 -1.12595e-19)
(-0.00070559 0.00322427 -1.12718e-18)
(-0.00195378 0.00221189 -6.86217e-19)
(-0.0109967 0.0376296 4.61176e-19)
(-0.00175239 0.0044738 2.96559e-18)
(0.0138457 0.00141263 -2.84994e-18)
(0.0175569 0.0116054 -7.88227e-18)
(0.00140646 -0.000191118 -1.47033e-19)
(0.00998666 0.00131121 -1.18806e-19)
(0.00139728 5.48607e-05 1.81751e-20)
(0.0113112 0.0169472 -1.30805e-18)
(-0.013563 0.0409999 4.57627e-20)
(-0.00122027 -0.00269896 -3.22192e-20)
(0.00337601 0.000809562 -6.11026e-20)
(0.00124896 3.27342e-05 -2.3286e-20)
(-0.00142917 0.00190854 -5.65362e-19)
(-0.000552283 0.00128832 5.27451e-20)
(0.00241275 -1.89247e-05 -1.03807e-19)
(0.00101937 -6.60091e-05 -6.8207e-20)
(-3.65315e-05 1.05008e-06 8.57027e-19)
(-0.00163546 0.00459752 3.43898e-18)
(-0.000388305 -0.00015618 -7.43237e-20)
(-0.000888753 0.0025969 1.82563e-18)
(-0.00110124 -0.00011879 7.35347e-20)
(0.00172473 -0.000276766 4.51452e-21)
(0.0016318 2.53414e-05 -1.67668e-19)
(-0.00619044 0.00147007 -6.54058e-19)
(0.015475 0.00700397 -5.4698e-18)
(0.0025391 -0.00184067 5.09455e-19)
(-0.00132257 0.00289119 -3.01507e-18)
(-0.00145419 0.00155537 1.13861e-19)
(-0.00356121 0.00605078 -2.44697e-19)
(0.0109643 0.00151458 2.9074e-18)
(0.000881011 -0.000848294 3.43693e-19)
(0.012468 0.00853544 -7.77891e-20)
(-1.89972e-05 5.57488e-06 1.79554e-19)
(-0.000526988 0.00269194 4.58484e-18)
(-0.00060006 0.000161954 2.80626e-19)
(-0.00176966 0.00532167 2.02502e-18)
(-0.000344644 -0.000471222 -5.32477e-19)
(-0.00339129 -0.00310855 -9.6738e-20)
(-0.000550623 0.000546558 7.18859e-20)
(-0.00988696 0.0451474 -9.60211e-20)
(-0.00159803 0.00190068 9.25726e-20)
(0.0155518 0.00354682 -3.75622e-18)
(0.00161137 -2.95309e-05 3.67009e-19)
(-0.00155589 0.00183274 1.87861e-19)
(0.000276474 -0.00127754 -4.09393e-19)
(0.000992506 1.47263e-06 1.14727e-19)
(0.0116576 0.00164921 3.23375e-18)
(0.00305503 0.00704922 -3.35724e-18)
(0.000400455 -0.00137624 2.41609e-19)
(-0.00322002 0.00372326 -3.0552e-20)
(-0.000178885 8.38647e-05 1.92707e-18)
(0.000286419 -0.00266082 -9.14014e-20)
(0.00108693 1.5574e-05 -9.45754e-20)
(0.012095 0.00173929 2.34261e-18)
(-0.000372357 -0.000141333 6.29389e-19)
(-0.00102839 -0.00288053 -5.61566e-19)
(0.00226598 -0.00014063 -1.40291e-19)
(0.000361058 -0.00131637 -8.73856e-20)
(-0.00131028 0.00443192 -1.98931e-18)
(0.0012333 2.68158e-05 3.54251e-20)
(-0.0025649 0.00370054 1.33043e-18)
(0.0013284 -4.1358e-05 7.32656e-20)
(0.00028367 -0.000325567 -6.30885e-20)
(0.015673 0.021442 4.28564e-19)
(-0.000625599 0.00262283 1.5416e-18)
(-0.00130434 -0.000112075 -4.92968e-19)
(0.00897158 0.00109063 -1.96582e-18)
(-0.000155864 0.0031611 -3.71574e-18)
(-0.0116698 -0.0117148 -2.07463e-19)
(-0.00552785 0.00213084 1.16926e-18)
(0.000430158 -0.000615869 -7.51726e-19)
(-0.00233508 -0.0021979 -1.18438e-18)
(0.0122765 0.00119888 -4.95383e-18)
(-0.000396105 0.00289653 -3.75685e-18)
(-0.00352279 0.0012693 2.95655e-19)
(-0.00245141 0.000387023 -2.13498e-19)
(-0.00405654 -0.00298736 3.07881e-19)
(0.00133464 -5.20238e-05 -2.46356e-19)
(-0.000297331 -0.000913424 3.56594e-20)
(0.00133917 1.838e-05 -8.86031e-21)
(-0.00232362 0.00259193 1.45401e-18)
(-0.00173707 0.00118618 -1.75879e-18)
(0.0271429 0.0195465 -3.84721e-18)
(-0.00153178 0.00193063 2.88773e-20)
(-0.0101022 -0.00704008 3.61855e-20)
(0.00548921 -0.00416173 -1.40697e-18)
(-0.0122487 0.00497042 -2.59325e-19)
(-0.00180139 0.00171906 1.7927e-20)
(-0.00320776 0.00413052 -9.40196e-19)
(0.0105006 0.00150136 -2.4345e-18)
(0.00048838 -0.00101662 -2.91977e-20)
(-0.00343748 0.00330858 -1.93127e-19)
(0.00164207 -0.000170761 -2.88739e-21)
(0.0002644 -0.000313984 -1.66538e-18)
(0.00146382 -5.73478e-05 -1.15316e-19)
(0.00163173 2.24153e-05 -1.34798e-19)
(0.00484937 -0.00224338 4.04104e-21)
(9.83709e-05 -4.06737e-05 1.90247e-19)
(0.0101079 0.00131713 2.90289e-20)
(-0.000649684 0.00202979 -6.30213e-19)
(0.000740098 -0.000127766 6.92267e-19)
(-0.000933734 0.0031592 5.15893e-19)
(0.00159458 -4.02883e-05 -2.60455e-19)
(0.0142077 0.0016325 9.40731e-18)
(0.00031393 -0.00121823 -8.1034e-19)
(-2.09164e-05 -0.00101465 8.37089e-19)
(0.0138582 0.00126202 -3.39415e-18)
(-0.0020086 0.00251657 -7.46189e-19)
(-0.0100127 -0.0388351 1.49923e-18)
(-0.000606783 0.000622876 -8.0679e-19)
(0.00282264 0.000477063 -7.94581e-21)
(0.000195157 -0.00105525 5.88932e-20)
(-0.000732301 0.000829691 -4.05773e-19)
(-0.00119154 0.00167377 4.37922e-20)
(-0.000393677 -0.000630304 -3.44431e-19)
(0.0103997 0.00118556 -1.39764e-18)
(-0.00193645 0.00162234 7.53732e-19)
(0.00798913 -0.0473673 -1.2276e-18)
(-0.0081793 -0.0265455 4.50996e-19)
(-0.00427603 0.00287292 2.89623e-19)
(0.0138484 0.00142193 3.28558e-18)
(-0.00076018 0.00095075 7.27572e-20)
(0.000877635 -7.3451e-05 -3.91685e-19)
(0.000290644 -0.00133771 1.94363e-19)
(0.0114393 0.00126808 6.31166e-18)
(0.00616121 -0.00651573 -4.90813e-18)
(-0.0016413 0.0013646 -6.41142e-20)
(0.0102182 0.00121113 -3.14627e-18)
(0.00552885 -0.0353205 -2.86506e-19)
(0.000303809 -0.000369346 1.13874e-19)
(7.12556e-05 -0.00100503 7.20181e-20)
(-0.00248602 0.000156163 3.72816e-19)
(-0.00277115 0.00300879 1.65742e-18)
(-0.00483269 -0.0442519 -1.13832e-18)
(-0.00166137 0.00188872 5.18045e-20)
(-0.000692351 0.000807119 6.4322e-19)
(-0.000849657 0.00125317 1.79158e-19)
(-0.000401066 0.00268656 -6.70522e-18)
(-0.00112941 -0.00168271 -5.72658e-19)
(-0.00284873 0.00355854 -1.18246e-18)
(-0.000646793 0.00204331 7.74522e-19)
(-0.00162781 -0.000168633 -1.56017e-18)
(-0.00117604 0.000712046 -1.11555e-18)
(0.000849661 -7.24947e-05 -3.12631e-19)
(-0.00117754 0.00164885 -8.21742e-20)
(-0.000985454 -0.00221933 8.122e-20)
(-0.000853937 0.00275723 -1.48689e-18)
(-0.00237448 0.000869809 2.57204e-18)
(0.00162737 -0.00573507 -1.49739e-20)
(0.0103111 0.0012027 -4.63617e-18)
(0.00156855 0.000671047 -1.26999e-20)
(0.00381221 -0.0312694 -9.08238e-20)
(-0.00233808 0.000382494 -1.42028e-19)
(-0.00492251 -0.00211618 8.96032e-19)
(-0.00142783 0.00136364 8.21693e-19)
(-0.000332814 0.00290293 1.81415e-18)
(0.00151115 -2.16121e-05 6.07724e-20)
(-0.000562012 0.00247336 2.41362e-18)
(0.0143446 0.0070263 1.07573e-17)
(0.00157735 -0.00836048 -7.46415e-20)
(-0.000584453 0.000216347 -1.95627e-18)
(-0.00231226 0.000910142 6.33748e-19)
(0.000121713 -2.6073e-05 6.31361e-20)
(-0.000444149 0.000105225 -1.05729e-18)
(-0.000487562 0.000536552 1.73002e-18)
(-0.00162873 0.000346415 -5.47103e-19)
(-0.00244279 -0.000802516 1.92779e-20)
(-0.00618465 0.00123609 -7.24983e-19)
(-0.0027706 0.00372638 2.01701e-19)
(0.000492509 -0.000602659 -2.53072e-20)
(-0.000770049 0.00277248 -2.2129e-18)
(-0.000621208 0.00152229 -1.63665e-19)
(-0.000780624 0.00155255 -4.31357e-20)
(-0.00310558 0.00391814 -8.20794e-19)
(-0.00134691 -0.000623571 4.57212e-19)
(-0.000640814 0.00252832 -3.15315e-19)
(0.0203481 0.00374456 -4.03747e-18)
(0.00160274 -0.000236876 5.514e-21)
(-0.0019293 0.00254217 -1.82448e-19)
(-0.00288963 0.000975726 6.4716e-19)
(-0.000661133 0.00202438 -1.87764e-18)
(-7.08723e-05 -0.000795444 1.42667e-21)
(0.000275777 -0.000662059 9.72862e-19)
(-0.000267574 -0.00092303 3.31806e-19)
(0.00971182 0.00144697 -1.24262e-18)
(-0.00112792 0.000658427 -2.01794e-18)
(0.000168399 -0.00139832 -2.38218e-19)
(-0.000572274 0.00218223 1.41056e-19)
(-0.000441068 -0.000641452 5.29507e-21)
(0.000153898 -0.000792713 5.34352e-21)
(-0.00380972 0.00267725 -1.06354e-18)
(0.011862 0.00483953 -8.02389e-18)
(-0.00331373 0.00229798 -7.85261e-19)
(0.0215614 0.00183925 4.09195e-18)
(-0.00350527 0.00380734 2.42383e-18)
(-0.00259527 0.00282785 -4.94969e-19)
(-0.000463447 0.000545699 6.34488e-19)
(-0.00194204 -0.00145119 -8.66491e-19)
(-0.000581166 0.00540704 6.73917e-19)
(-0.000948657 -0.00327904 2.31822e-19)
(0.0120396 0.00806988 -3.92891e-19)