/*--------------------------------*- C++ -*----------------------------------*\
| =========                 |                                                 |
| \\      /  F ield         | OpenFOAM: The Open Source CFD Toolbox           |
|  \\    /   O peration     | Version:  v2012                                 |
|   \\  /    A nd           | Website:  www.openfoam.com                      |
|    \\/     M anipulation  |                                                 |
\*---------------------------------------------------------------------------*/
FoamFile
{
    version     2.0;
    format      ascii;
    class       volVectorField;
    location    "550";
    object      ddt0(U);
}
// * * * * * * * * * * * * * * * * * * * * * * * * * * * * * * * * * * * * * //

dimensions      [0 1 -2 0 0 0 0];


internalField   nonuniform List<vector> 
13917
(
(0.0217035 0.00443599 3.93823e-19)
(0.00465518 0.0035273 3.88892e-19)
(-0.0216025 -0.0175795 -1.08669e-18)
(0.00132475 -0.00341249 8.5293e-19)
(0.00555947 0.000588243 -1.83147e-20)
(0.00426611 0.00311394 -4.33092e-19)
(0.000775172 -0.00758389 2.15519e-18)
(0.011314 0.0105256 2.83237e-18)
(-0.00231182 -0.00558165 1.52185e-18)
(-0.00408952 0.0105799 -4.54175e-17)
(0.0106219 0.00969073 6.07819e-19)
(0.00215451 -0.00212112 2.43428e-18)
(0.000428765 -2.9727e-05 -1.37389e-19)
(0.0557853 0.0169817 8.55218e-19)
(0.00408351 0.000428715 -3.89532e-20)
(0.0218348 0.00410951 9.77861e-18)
(-0.000991712 -2.59113e-05 8.18988e-20)
(0.0112001 0.00710185 -2.73079e-19)
(-0.00846887 -0.0220763 4.42682e-19)
(0.0239154 0.0158762 -4.49257e-18)
(0.00932043 -0.00212299 1.78875e-18)
(0.00329283 0.00062565 -1.24288e-19)
(-0.000974337 -0.0141269 2.50979e-18)
(0.00328096 0.000701604 3.07737e-20)
(0.00331656 -0.00412871 -2.98366e-18)
(0.00971086 -0.0010923 1.39364e-19)
(-0.0883649 -0.0160813 -1.26044e-18)
(-0.0030792 0.00640455 4.14327e-17)
(0.0107251 0.00214758 8.20577e-21)
(0.00176312 0.00205664 -9.30673e-21)
(-0.000272375 0.00436798 7.03157e-18)
(-0.00756621 -0.0142874 4.87094e-18)
(0.00234396 -0.00318149 -6.67111e-20)
(0.0168821 0.00260133 -1.42219e-18)
(-0.00156177 0.00348433 -1.81464e-20)
(0.0105839 0.0128951 -7.69571e-19)
(0.00521257 -0.00161208 -4.3507e-19)
(0.000954818 3.34607e-05 -1.67031e-19)
(0.000525059 -0.00767105 -2.14229e-18)
(0.0103742 -0.00596998 2.04571e-20)
(0.000392486 -3.48455e-05 6.98086e-20)
(-0.00167506 0.00148679 -2.32099e-19)
(-0.00169671 -0.00467985 7.71169e-19)
(-0.0101122 -0.018994 1.14513e-17)
(-0.00960762 -0.0192158 2.27649e-18)
(-0.0703762 -0.0454533 -9.85987e-18)
(0.00889834 -0.00229276 -5.94898e-19)
(-0.0057696 0.0239829 -4.69973e-18)
(-0.0362598 0.0272796 -4.63904e-18)
(-0.00141417 0.00358924 -2.64056e-19)
(0.00213782 -0.00203726 3.09118e-19)
(0.00651162 -0.0294664 -2.17418e-19)
(0.0231739 0.0025825 -6.57206e-18)
(0.00297826 -0.000922642 -2.44593e-19)
(0.00303632 -0.00116683 -1.3597e-18)
(0.00533555 -0.0291235 6.92749e-18)
(-0.00310347 0.00529757 -2.40737e-18)
(-0.000560238 -0.0140669 1.23757e-18)
(-0.00201094 0.00176005 1.31218e-19)
(-0.0749146 -0.0466017 1.59528e-18)
(-0.0597492 -0.00356072 1.14282e-17)
(-0.0110505 0.00258107 7.43309e-20)
(0.000829707 6.34645e-05 1.13146e-20)
(0.00317087 -0.00401993 -6.09842e-19)
(-0.0129902 -0.00324116 -1.11674e-17)
(0.00619435 0.00477925 2.12528e-20)
(0.0109906 0.00352708 5.78194e-19)
(0.00877533 0.0134464 -1.08695e-18)
(0.012067 0.00788296 3.39051e-21)
(0.0233878 0.00287164 -5.70549e-18)
(-0.0192501 -0.0070547 -9.65918e-18)
(0.0182069 0.00286946 2.29707e-17)
(0.000312219 -0.00212633 2.07464e-18)
(-0.00238894 0.0015998 7.41731e-20)
(0.00966576 -0.00237964 -4.99117e-19)
(0.0044541 -0.00360915 4.62535e-18)
(0.00467927 0.000666283 -2.5519e-20)
(-0.00266803 0.0016723 5.34951e-20)
(0.00427485 -0.0035388 6.21399e-19)
(0.00243255 -0.0032702 -3.36835e-18)
(0.00367947 -0.000307738 -3.09647e-20)
(-0.00105933 8.78432e-06 2.72798e-19)
(0.000258567 -0.00203718 -6.36425e-19)
(-0.00969508 -0.00547556 -5.33828e-18)
(0.00144792 -0.000152629 2.6719e-19)
(0.0214954 0.00213711 -1.49346e-18)
(-0.00719901 -0.0141289 1.93553e-18)
(0.00143548 -7.22746e-05 -3.44478e-19)
(0.0102303 -0.00561815 -1.6957e-18)
(-0.00107667 -4.32e-05 -5.39904e-20)
(-0.00101674 -0.000178633 4.7435e-20)
(-0.00186276 -0.00476006 3.5855e-18)
(-0.0439372 0.0198452 -1.68101e-19)
(-0.00181212 0.00248629 -2.59119e-19)
(0.00372866 -0.00101398 2.87828e-20)
(0.0112978 0.00261315 2.00715e-19)
(0.000261669 0.000340807 3.15358e-20)
(-0.000534847 7.022e-05 -2.66068e-19)
(0.00141393 -8.74311e-05 7.50158e-19)
(0.014708 -0.000946867 3.91522e-19)
(0.000929768 1.29097e-06 2.08521e-21)
(0.00103295 -4.45114e-06 -1.44314e-21)
(0.00374009 -0.000347856 7.49104e-20)
(-0.000489537 0.000166214 -1.26921e-19)
(0.00467672 0.000784155 -2.9732e-21)
(0.00719285 -0.0035427 2.75347e-18)
(0.000967049 0.012845 3.80866e-18)
(-0.0107501 -0.00038171 3.00024e-19)
(-0.00114955 0.00155065 1.72454e-19)
(-0.101158 -0.0184637 -2.99983e-19)
(0.000183064 -0.000162878 5.47801e-19)
(0.0156618 0.0026805 1.89412e-17)
(0.0110182 0.00144435 -6.67857e-20)
(-0.00170903 0.0263257 2.65629e-17)
(-0.0136012 -0.00378039 1.03517e-17)
(0.00499014 -0.00344121 1.97632e-18)
(-0.00785922 -0.021568 1.27e-17)
(4.18169e-05 -0.000238435 -2.93466e-20)
(-0.0195861 -0.0212793 3.7309e-18)
(-6.92444e-05 -0.00159725 3.86556e-19)
(-0.00117308 1.29522e-05 -1.38638e-19)
(-0.00276277 0.00116403 -3.41173e-19)
(0.0116367 0.0039477 -3.77454e-19)
(-0.00166109 -0.0239169 -3.15109e-18)
(0.0259447 0.00223027 -4.26466e-18)
(-0.00808092 -0.00476247 1.20194e-17)
(0.00286804 -0.00396851 3.50821e-19)
(0.0100472 -0.00224251 -6.02578e-19)
(0.00109075 0.00252241 -3.39395e-20)
(-0.00242016 -0.0240206 -1.36247e-18)
(-0.0030588 -0.00887289 -8.63823e-18)
(0.0172685 -0.0202852 -1.03193e-18)
(0.0129403 0.000436609 -1.19287e-17)
(0.00503702 -0.00328226 6.38157e-19)
(-0.00857275 -0.0156626 8.23193e-18)
(-0.106615 -0.0169562 1.42448e-20)
(-0.0654306 -0.00905724 4.97738e-19)
(0.0274279 0.0019373 4.44319e-18)
(0.0100681 -0.000450252 3.98513e-19)
(0.000640258 1.65508e-05 4.92866e-20)
(-0.00834425 0.0240174 -7.06155e-19)
(-0.00280256 0.00146022 1.88681e-19)
(0.00735632 -0.00390036 3.71986e-18)
(0.00231873 0.000421267 -6.00815e-20)
(0.000459869 -0.00193543 -1.69537e-18)
(0.00418711 0.00510928 1.78802e-19)
(-0.0186674 -0.00706942 1.14521e-17)
(0.0172589 -0.000308588 -5.52189e-19)
(-0.00338588 0.0243157 -1.69186e-17)
(0.00303743 -0.000999752 -7.32426e-19)
(0.0095504 -0.00534522 -2.40817e-18)
(0.0010886 1.94069e-05 -4.20547e-21)
(0.000425815 -0.00184329 2.16406e-19)
(-0.000136515 -0.00157872 9.51225e-19)
(-0.0429686 -0.00787858 1.55687e-18)
(0.00390693 0.00159789 -1.22959e-19)
(-0.000560282 0.000201188 1.50068e-19)
(0.0151126 0.000768522 -9.68452e-18)
(0.00026325 -8.93988e-05 -1.23923e-20)
(6.67005e-05 -0.000186433 -4.16744e-20)
(0.0018292 -9.13135e-05 7.08258e-19)
(-0.0243873 -0.00399752 1.75989e-17)
(0.00576958 -0.00034156 -5.86223e-19)
(-0.0134737 0.0235983 6.57251e-19)
(-0.0318095 0.000850788 -4.31199e-18)
(0.0192155 0.00221213 6.20959e-20)
(0.015781 0.00306418 2.76561e-18)
(-0.0347818 0.010597 8.62081e-18)
(0.000918697 0.000443787 1.04379e-21)
(0.0104564 -0.000230923 -3.09414e-19)
(0.00345475 0.000813702 -2.70047e-21)
(0.0102754 0.000119581 -7.55938e-18)
(-0.00240778 -0.00539599 -1.17364e-17)
(-0.0583709 -0.00992107 2.15123e-18)
(0.0106417 -0.0189812 5.31292e-18)
(0.00091165 -5.22392e-05 -6.57956e-21)
(0.00119778 -0.00341633 3.56851e-19)
(0.0122972 -0.0315231 -1.09917e-18)
(-0.00290677 -0.00862279 2.47441e-18)
(0.00593395 -0.000172678 6.06786e-19)
(-0.00134536 -0.00477007 5.54575e-19)
(0.00335309 0.000809299 3.57177e-20)
(0.00223424 -0.00198954 7.34964e-19)
(-0.0499763 -0.0361357 -6.98147e-19)
(-0.0223563 -0.0211835 7.57245e-18)
(0.0127667 -0.0201994 -4.70527e-18)
(0.00222011 -0.00190033 8.64267e-20)
(-0.0544592 -0.0374136 1.61229e-17)
(0.00189599 0.00197768 -5.58148e-21)
(0.0193452 0.00256704 -1.05062e-18)
(0.0114971 -0.0186043 -5.88178e-18)
(-0.0090837 -0.0188228 -1.30844e-17)
(0.00158905 -0.0317897 3.26973e-18)
(0.0216965 0.00593236 2.9344e-17)
(-0.00170745 0.00256894 -1.26313e-19)
(0.0255832 0.00226285 4.13824e-18)
(0.00441482 -0.00606054 3.19803e-18)
(0.0116086 5.65558e-05 -5.49353e-19)
(-0.00156318 0.00329047 -5.41458e-20)
(0.00375241 0.00153059 8.81025e-20)
(0.00814651 -0.00259454 -1.70335e-18)
(0.0228701 0.00302332 1.65681e-17)
(0.0278827 0.00194316 -1.37816e-17)
(0.0048072 -0.00102333 1.24648e-19)
(-0.0886264 -0.0223754 -2.12339e-19)
(0.00798299 0.00160616 3.41968e-20)
(0.00973345 -0.00570621 2.83728e-18)
(-0.00266791 0.00125364 -8.31557e-20)
(0.0100125 -0.030915 -8.09598e-19)
(0.00369173 -0.000236885 -1.812e-19)
(0.000532912 0.00169977 1.93294e-20)
(0.00613403 0.000319077 -3.04517e-19)
(0.00617431 0.000231241 -2.07175e-19)
(-0.00649277 0.0229022 -4.81089e-20)
(-0.00843297 -0.0153562 -1.77946e-18)
(0.0101012 -0.00095168 -3.96943e-20)
(-0.00935052 0.0017501 2.34236e-18)
(0.00144252 8.51232e-05 2.00099e-19)
(-0.0022122 -0.00142626 -1.08227e-19)
(-0.0021229 -0.00155546 -1.71743e-19)
(-0.0269906 0.0146377 -2.31817e-17)
(-0.0185572 -0.0352713 9.43237e-18)
(-0.0662924 -0.0375285 -6.15388e-18)
(0.000611969 -0.000428939 -5.93663e-21)
(0.000666494 3.09225e-05 -8.33821e-21)
(-0.109661 -0.0162403 -4.20824e-19)
(0.0256888 0.00236144 1.36616e-17)
(-0.00187594 -0.0011135 3.0891e-19)
(-0.0017639 -0.00107653 -1.18819e-19)
(0.000323153 -4.00787e-05 -9.066e-21)
(-0.00225931 -0.00176462 7.26306e-21)
(-0.002152 -0.00191276 -1.34855e-19)
(0.018931 0.00301835 -2.65207e-17)
(-0.013433 0.0160785 -8.50095e-18)
(0.0034152 0.000108715 -2.03321e-19)
(0.00107223 0.000780044 -1.6599e-21)
(0.00497624 -0.0218056 2.68993e-18)
(0.0206182 0.00239979 -6.92075e-18)
(-0.000261806 -0.000107722 1.88826e-20)
(0.000644187 -0.000390419 -1.15761e-19)
(-0.0960246 -0.02133 2.35562e-19)
(0.00909377 -0.00360284 -7.15717e-19)
(-0.0405813 -0.0372318 -1.13457e-17)
(-0.00695862 0.00245174 8.50361e-19)
(0.015083 -0.0233507 3.73653e-18)
(0.00233271 0.000371008 -1.05203e-19)
(-0.0354857 0.00662819 -3.10825e-17)
(0.00431066 -0.022534 -3.99685e-19)
(0.0105664 0.00118374 1.10326e-19)
(-0.00487218 -0.0187382 3.53664e-18)
(0.00467977 -0.00111123 -1.03053e-19)
(-0.00956365 0.0184267 1.61928e-17)
(1.5151e-05 -0.00172707 -1.67794e-18)
(0.00914727 -0.0104705 9.01042e-19)
(0.00961377 -0.0178224 -1.72601e-18)
(0.00351008 0.000185625 -5.83667e-21)
(0.000226539 -1.31984e-05 -4.96065e-20)
(0.00299433 -0.00408593 2.35548e-18)
(0.00571607 0.00154824 -8.90546e-20)
(-0.00255791 0.00264569 -4.615e-19)
(0.0242313 0.00208284 1.16072e-18)
(0.00505328 0.0680922 -4.9391e-18)
(-0.00270523 0.000962749 -3.98827e-20)
(-0.00175107 -0.00091747 3.61496e-19)
(0.00403432 0.00150932 8.98408e-20)
(-0.00180851 -0.000836211 4.77246e-20)
(-4.49512e-05 -0.00170004 2.51736e-19)
(0.000699561 -5.16208e-05 2.01206e-19)
(0.00339986 -0.0119417 2.07549e-18)
(-0.00273391 0.000901859 -1.72711e-20)
(0.0269841 0.00180601 1.49542e-17)
(-0.00204854 0.0111227 7.54741e-18)
(0.00208592 -0.00132783 6.5361e-19)
(0.00514107 0.0013828 -6.79645e-20)
(-0.08482 -0.0469512 -2.30727e-18)
(0.00032508 -0.0028782 -1.07269e-20)
(0.016411 -0.00220002 -6.48753e-19)
(0.0230604 0.00195782 -2.54191e-18)
(0.000140918 -0.00289772 3.08014e-20)
(0.0225023 0.00252343 3.7859e-18)
(-0.00250522 0.00250627 3.99236e-19)
(-0.0271317 -0.00567818 -2.0762e-17)
(0.000830878 -3.55663e-05 7.61137e-21)
(0.00414192 0.000196125 -1.11872e-20)
(0.00357251 0.000195877 -1.66615e-19)
(0.00223846 0.000664131 5.13841e-20)
(-0.00807291 -0.0271401 -5.02827e-19)
(0.000724145 7.86516e-05 5.21852e-22)
(0.0284434 0.00520243 -3.79993e-19)
(0.00618207 -0.00636223 -2.40298e-18)
(0.027948 0.0664842 -4.91215e-18)
(0.00669589 0.00421278 -1.65231e-19)
(-0.0455257 -0.0149212 8.62752e-20)
(0.0278422 0.00185004 1.45873e-17)
(-0.000251104 -0.000176366 1.61631e-19)
(0.00157804 -0.016416 -1.36678e-17)
(0.00563261 0.0011295 -8.58061e-20)
(0.00537185 -0.00312333 -1.81523e-18)
(0.00553367 0.00075792 -1.19017e-19)
(0.00410592 -0.0037016 -7.17718e-19)
(-0.00208829 0.00248096 -5.16133e-20)
(0.000672962 0.00011332 7.28115e-21)
(0.0160395 -0.030611 -3.47264e-18)
(0.00878591 0.00974652 2.15278e-19)
(0.00888224 -0.0102104 -1.77687e-18)
(0.00395501 -0.0036248 -1.71582e-18)
(0.00072272 -0.000363003 1.00952e-18)
(0.0139687 0.000554313 1.95871e-17)
(0.0232995 0.00325058 -4.1264e-18)
(0.000554427 0.00256351 -5.68326e-21)
(0.00423279 0.000748004 2.00079e-20)
(0.00529798 -0.00330616 -2.0358e-19)
(0.00689707 -0.0025073 1.56285e-19)
(-0.0137308 -0.0152623 6.37073e-18)
(0.00211168 0.0102487 1.18205e-17)
(-0.0549277 -0.0116994 -4.66774e-18)
(0.00565273 0.00603625 1.96257e-20)
(0.0400128 -0.0160602 2.71236e-18)
(0.00504127 0.00156458 1.25876e-19)
(-0.0120768 -0.00639232 -8.7946e-18)
(0.00618843 -0.00304769 -1.14429e-19)
(-0.020292 -0.0177369 -1.02207e-18)
(0.000577413 -4.07636e-05 4.47214e-19)
(0.00407151 0.000322127 2.39907e-20)
(-0.0776431 -0.0161602 5.43553e-19)
(0.00366845 0.00102888 3.94376e-20)
(0.00455596 0.00409762 -2.6087e-19)
(-0.00863612 -0.0190197 2.64293e-17)
(-0.000795922 -4.85109e-05 2.17588e-20)
(0.00955005 -1.96277e-05 1.00242e-17)
(0.00142919 -0.000114407 2.92028e-19)
(-0.00621584 -0.00877552 -4.35317e-18)
(0.00363719 -0.00263522 6.06421e-20)
(0.0310446 0.0155516 3.83937e-17)
(0.000786112 0.000722865 9.59984e-21)
(0.00802508 -0.0101578 2.65711e-18)
(0.00840602 0.0015741 -4.53106e-20)
(0.00501628 0.00633855 -1.24505e-20)
(-0.000948238 -9.39773e-05 1.05874e-19)
(-0.00570766 -0.0180726 5.6277e-18)
(0.00276049 -0.00462636 2.53339e-17)
(0.0035886 -0.00114541 9.66649e-19)
(0.00369224 0.00114107 -5.08201e-21)
(0.0136773 0.0023015 -3.50907e-18)
(0.0047756 -0.00432284 1.79146e-17)
(-0.0474108 -0.0180383 9.54658e-18)
(0.057415 0.024586 -7.826e-19)
(-6.8929e-06 -0.00261185 1.07927e-21)
(0.00336722 -9.28016e-05 -3.45902e-19)
(0.0107071 -0.00340165 -2.44096e-18)
(0.0368045 -0.0189525 -1.61312e-18)
(-0.000229172 -0.00264456 4.8116e-21)
(0.0057097 0.000916642 1.76715e-19)
(0.0026443 -0.00152091 -3.05354e-19)
(0.012828 -0.00213773 -4.34856e-19)
(0.00828734 -0.0104272 -2.49449e-18)
(-0.000932597 -0.0281811 -1.90768e-18)
(0.0194615 -0.0171202 -2.62451e-18)
(0.015918 -0.0022353 1.20274e-19)
(-0.00549539 -0.00960298 2.45411e-18)
(0.0173061 0.00496421 9.40687e-18)
(0.00122363 0.00257959 6.22701e-20)
(0.00356916 -0.00123518 -6.17971e-19)
(0.00570213 0.000521588 -7.30599e-20)
(-0.0283395 -0.0246702 1.74955e-18)
(-0.000417853 -7.18457e-05 -6.09959e-20)
(0.0224279 0.0048727 -2.35583e-17)
(-0.00551276 -0.00934827 -3.27892e-18)
(-0.000319181 0.0273984 -5.28061e-19)
(0.00313973 -0.00116378 -1.91731e-19)
(0.0231686 -0.0196186 6.51911e-18)
(0.00441619 0.000845202 -2.05946e-19)
(-0.0446164 -0.00133276 2.98367e-18)
(-0.00273179 0.0033711 -1.45407e-19)
(-0.0624752 -0.0364396 1.54837e-17)
(-0.082046 -0.0461976 4.18847e-18)
(0.00880001 0.00196508 -9.32032e-20)
(0.00216205 -0.00136427 -6.89007e-19)
(-0.0364522 -0.0138608 1.23735e-18)
(0.00446385 -0.00220987 -1.92844e-19)
(-0.0347029 0.000648217 1.96388e-18)
(-0.00771678 -0.0332235 2.10225e-18)
(-0.003305 0.00392789 5.37405e-19)
(-0.0396278 0.00981226 -2.93403e-18)
(0.00377531 0.00027516 5.44658e-20)
(0.0052755 0.0083351 -1.86491e-19)
(-0.00153329 0.00139428 -1.63169e-19)
(0.0199934 0.0161788 6.96611e-18)
(0.00410189 0.00916685 2.11517e-19)
(0.0048681 -0.00214361 1.38643e-18)
(-0.107816 -0.0166729 -1.40439e-18)
(0.014865 -0.00282192 6.27734e-19)
(0.00441756 -0.00108813 6.74032e-19)
(-0.0341779 -0.007265 2.40559e-19)
(0.000434448 -0.0124133 1.16555e-17)
(0.0044499 -0.00231279 -2.28866e-18)
(-0.0110457 -0.027912 -2.79055e-18)
(0.00325104 -0.000251433 3.73011e-19)
(0.0147453 -0.00257132 -9.25233e-19)
(-0.0225301 -0.0188856 7.42878e-18)
(0.00140946 -0.000105716 -4.04141e-19)
(-0.000703072 -0.00692171 -5.49433e-18)
(0.00381207 -0.00375466 5.61582e-19)
(0.0021883 0.000536184 -4.51983e-20)
(0.00145193 0.000387831 2.00166e-19)
(0.00149782 0.00251321 5.91673e-20)
(-0.059999 -0.00763369 -1.29935e-17)
(0.0203462 0.00178328 1.14067e-19)
(0.00333945 -0.00121435 -1.76923e-18)
(0.00139278 0.00284964 2.78803e-19)
(0.00310004 0.000695916 1.38146e-19)
(0.00424403 -0.0159154 1.26791e-17)
(0.00118933 0.0161359 -1.48297e-18)
(0.00206558 -0.00303466 7.7042e-21)
(0.000946207 0.000391298 -7.48823e-22)
(-0.0134407 -0.0154634 -2.54795e-18)
(0.0217664 -0.0181146 -1.12582e-17)
(0.00231 0.000647153 2.87281e-20)
(0.00471965 -0.00215258 2.13744e-18)
(-0.059226 -0.0224489 -1.00379e-17)
(-0.0898411 -0.0257972 -3.69003e-19)
(0.00687 0.0048753 -1.62392e-20)
(-0.00922805 -0.0220433 -1.03458e-18)
(-0.0140654 -0.00767527 -1.6769e-18)
(-0.00463064 -0.004023 -3.78502e-20)
(0.00156373 -0.00298243 -4.92226e-22)
(0.00828687 -0.00148475 2.07241e-19)
(0.00142158 0.000368 -1.24766e-19)
(0.00189874 -0.00318667 9.19244e-21)
(0.00348339 0.000119669 4.95454e-19)
(0.00138441 -0.00312041 -8.89735e-21)
(-0.00410989 -0.00396259 -1.00504e-19)
(-0.0291266 0.0104119 -1.11913e-17)
(0.00330705 -0.000302797 -5.76949e-19)
(0.0108177 -0.00692839 -4.53501e-18)
(0.0264076 0.0018206 -1.50232e-17)
(0.00212392 -0.0161049 -1.45859e-18)
(0.00061563 0.00175717 -3.87952e-20)
(0.000490618 -0.0017897 -4.99933e-19)
(-0.0326325 -0.00713444 -1.06851e-17)
(0.00822773 -0.00223706 3.49954e-20)
(0.0262832 0.002244 -1.21333e-17)
(0.00313849 -0.00286442 -1.27572e-19)
(0.0010696 -0.000810001 2.13424e-19)
(0.00476646 -0.00242381 2.17478e-19)
(-0.00226019 -0.00219806 -2.27391e-20)
(0.00507018 -0.0015198 -2.94802e-19)
(0.00388054 0.000345642 -8.515e-20)
(-0.0629859 -0.025555 2.71166e-18)
(-0.00715403 0.0185535 -2.79121e-20)
(0.00877517 -0.00327121 -2.15599e-18)
(0.00110662 -0.000785776 -9.19671e-19)
(-0.00191159 -0.0105785 -2.31334e-19)
(-0.000240253 0.0191321 6.59633e-19)
(0.0036218 -0.000199563 2.18968e-19)
(0.0136489 -0.0237312 1.5287e-18)
(-0.0487015 -0.018898 -1.78279e-18)
(0.00255779 -0.00150843 1.96065e-18)
(-0.1172 -0.0213903 1.00025e-18)
(0.000817756 0.00176315 -6.80268e-20)
(0.00123641 0.000156223 -1.33417e-19)
(0.00301066 0.000745369 -2.31759e-19)
(0.00376116 0.000217153 -9.92208e-20)
(0.000381729 0.00157704 1.65713e-20)
(0.00151651 -9.59293e-06 -5.52587e-19)
(0.0141189 0.000642888 1.16991e-19)
(-0.0580657 -0.00589453 -7.47769e-18)
(0.000312281 0.00151042 -2.64096e-20)
(-0.0673441 -0.0219966 1.26798e-18)
(-0.0130021 -0.0162265 5.19323e-18)
(0.000526698 -0.00011142 7.47603e-19)
(0.00229365 -0.0175418 -6.40421e-18)
(-0.0103897 -0.0105104 2.11935e-17)
(-0.027657 -0.00170408 -1.14114e-17)
(-0.00117362 -0.00726235 -3.29917e-18)
(0.00597903 -0.00360187 -1.98351e-17)
(0.0120045 0.0244196 -4.05178e-20)
(0.0135887 0.0222075 1.77442e-19)
(0.00385993 0.000286579 -6.35364e-20)
(0.00564443 0.00510509 4.26415e-20)
(0.00483689 0.0207009 -7.63733e-19)
(0.00454838 -0.00102643 -3.7815e-19)
(-0.0561417 -0.0239594 -6.18727e-19)
(-0.00106621 -0.000151425 -3.96802e-21)
(0.00287637 -0.000932291 1.71821e-18)
(0.00370985 -0.00111448 -1.00668e-18)
(-0.0014349 -0.00634578 1.31547e-18)
(0.00918858 -0.00331966 8.07784e-19)
(-0.0157092 -0.0223756 -6.97193e-18)
(-0.0031863 -0.0149963 1.89715e-18)
(0.00221417 -0.00197379 -1.0433e-19)
(0.00534071 0.00136074 -1.27864e-19)
(0.0120406 0.00567659 6.31255e-19)
(0.0135214 -0.00825765 -2.75859e-18)
(0.00333016 -0.00114234 7.96007e-19)
(0.0291603 0.00617056 2.1131e-18)
(0.00165034 -0.0118852 -2.63634e-18)
(0.00592859 -0.00658028 3.77498e-18)
(-0.0396304 -0.0024748 3.22455e-18)
(0.00142479 -0.000140414 5.84429e-19)
(0.0141202 -0.00830309 9.19001e-18)
(0.01405 -0.0339538 6.54112e-18)
(0.00104635 0.000456543 5.37035e-20)
(0.0190348 0.00133309 -4.15182e-18)
(0.00126885 0.000148418 1.9217e-19)
(-0.0021257 -0.00234276 -9.59187e-22)
(0.00385758 -0.0164084 -8.92207e-18)
(0.00299877 -0.00309148 3.57634e-20)
(0.00144282 9.43007e-05 -1.09392e-19)
(0.0149001 -0.0297258 9.04267e-21)
(0.0175465 0.000901976 -5.53956e-18)
(-0.100509 -0.0116487 -1.52263e-18)
(0.00178718 -9.74431e-05 -6.70199e-19)
(0.000404591 -0.003717 1.0711e-17)
(-0.00298523 -0.00276995 1.69778e-20)
(-0.0639903 -0.0294255 -4.10909e-19)
(-0.0872595 -0.0449288 -5.62592e-18)
(0.00322368 -0.00103075 2.06321e-18)
(0.00298741 -0.00108698 1.66832e-18)
(0.00172333 -7.47825e-05 6.69824e-19)
(0.0082318 -0.0171849 -8.231e-18)
(0.0593123 0.0638719 3.68815e-19)
(0.000768506 0.00293716 -1.66615e-19)
(-0.000391409 -0.000107212 1.17193e-19)
(0.00363068 0.00161461 -8.65161e-20)
(0.00212853 0.000490948 4.85846e-19)
(0.0027102 0.00877427 1.44619e-20)
(0.00398166 -0.00814211 -4.74313e-18)
(-0.00096876 -0.000150653 -1.05107e-19)
(-0.00294037 -0.0154086 4.04543e-18)
(0.00102594 0.000422939 4.04775e-20)
(0.00314555 0.000543435 -1.02961e-19)
(0.00365685 -0.00370323 1.10961e-18)
(0.00778107 0.00902006 1.52058e-17)
(-0.00139908 7.42646e-05 8.67689e-20)
(0.000122823 -0.00519522 5.69405e-18)
(-0.00245685 0.0027372 3.42804e-19)
(-0.00175125 -0.0102501 -6.10636e-18)
(0.00110534 -0.0198295 -1.3319e-17)
(0.0131355 -0.000492461 -4.6565e-20)
(0.00982636 -0.0185151 -1.31057e-18)
(0.0147765 -0.000828653 2.08531e-21)
(0.00369975 -0.00323568 -8.49023e-19)
(0.011163 0.00506477 -4.20818e-19)
(0.0103004 -0.000231783 -9.77037e-19)
(-0.0258129 0.0105248 -5.52619e-18)
(0.025439 0.00177679 9.7545e-18)
(4.03694e-05 0.00249147 -1.02718e-19)
(0.00293208 0.000887367 2.17194e-20)
(0.00381456 -0.00328982 -8.77908e-22)
(0.00153828 -0.00121118 -2.9769e-18)
(-0.0107023 -0.0033815 2.19129e-18)
(0.000545612 -0.00314518 1.3131e-20)
(0.000591762 -0.0281385 5.12853e-19)
(0.00419044 -0.00615885 -7.19794e-19)
(0.00310224 -0.00165511 1.52099e-17)
(0.0169066 -0.00161157 -9.35575e-19)
(-0.00153469 -0.0048308 -4.43824e-18)
(-0.00118532 0.0234523 -2.71354e-17)
(0.000204619 0.00154974 6.98217e-20)
(-0.00891956 -0.0109326 9.74334e-18)
(-0.000691522 9.38751e-05 1.94815e-19)
(-0.00367878 0.00287519 1.68585e-19)
(0.00458187 -0.00120127 3.80265e-18)
(0.00260418 -0.00299935 9.44216e-20)
(-0.0124752 -0.0163608 -5.32686e-18)
(0.000783298 2.49797e-05 -3.98874e-21)
(0.000545175 -7.90077e-05 -4.02952e-19)
(0.00301965 0.0008425 4.43173e-20)
(-0.0132904 -0.0224629 3.33767e-18)
(0.00239734 0.00937695 -3.00271e-19)
(-0.00162707 -0.000532396 2.14336e-19)
(-0.0107255 -0.018235 1.0485e-18)
(0.00282151 -0.0171426 1.30118e-17)
(0.0113975 0.0057717 -6.27888e-20)
(-0.0202098 -0.00821229 -6.60897e-18)
(0.0140849 0.00040524 7.47055e-18)
(-0.0286046 -0.000856439 8.3337e-18)
(-0.00138308 8.45159e-05 -1.77703e-19)
(0.0249428 0.00213114 -1.70217e-17)
(0.00119166 7.79228e-05 -2.51671e-20)
(-0.0644596 -0.00798496 -4.96542e-18)
(0.018439 0.000839923 -2.08808e-22)
(-0.00378737 0.0032656 -1.04595e-19)
(0.00487113 0.00122301 4.29364e-19)
(0.00101967 1.07614e-05 -2.99853e-21)
(0.00181452 -0.011646 9.99527e-18)
(-0.00134702 -0.00456832 -5.0359e-19)
(0.00244228 -0.00318925 3.08425e-20)
(-0.000577452 9.48028e-05 7.60979e-20)
(0.000850406 -3.82177e-05 4.27375e-19)
(-0.0228385 -0.00946595 8.36038e-18)
(0.00185363 -0.000235074 -5.61566e-19)
(-0.00707757 -0.0133766 1.27677e-17)
(0.00282883 -0.000862831 -1.08344e-18)
(-0.00155523 -0.000550741 -2.47966e-19)
(0.000245873 -0.000123244 1.74667e-20)
(-0.0591352 -0.0457701 1.1461e-17)
(-0.0386771 -0.0127581 -8.85973e-18)
(0.00806344 0.0257486 -5.79051e-18)
(-0.0044696 -0.0182918 1.73118e-17)
(0.00369072 -0.00814487 5.82487e-18)
(-0.0501233 -0.0211088 -1.25001e-17)
(0.0203471 0.00224093 2.67126e-18)
(-0.00162341 0.00145499 3.37836e-20)
(-0.052714 -0.0217973 -1.03233e-17)
(0.000762563 -4.52736e-05 -5.09125e-19)
(-0.0126078 -0.011323 5.74632e-18)
(0.00160242 -0.00118724 -9.45916e-19)
(-0.0357921 -0.0141294 2.04959e-17)
(0.00206667 0.000513265 -3.62986e-19)
(0.00346476 0.0085002 7.7598e-20)
(0.000407556 -0.00199539 6.67627e-19)
(0.0105392 0.00297756 1.13989e-19)
(0.00265077 -0.0120955 -8.45167e-18)
(-0.0127248 -0.00206426 3.71802e-18)
(-0.00121947 -6.42441e-05 2.87447e-20)
(0.00325531 -0.0115042 5.06633e-18)
(-0.000385909 0.00369713 1.23496e-19)
(0.0008099 -7.44829e-06 -1.65899e-20)
(0.0159026 0.0054187 1.17789e-18)
(0.0141583 0.000172716 -8.95723e-20)
(-0.000869307 0.00410468 -2.05572e-19)
(-0.000981344 -0.0292105 4.07017e-18)
(0.000697444 -0.00040026 -1.33512e-18)
(-0.00403156 0.00212027 -1.0794e-19)
(0.000915038 1.13829e-05 6.48729e-21)
(0.0138499 0.00487565 4.49563e-18)
(0.00183053 -0.000259098 -1.82617e-19)
(0.00580584 0.00132574 7.77343e-20)
(0.000726669 -0.00307669 -4.29909e-21)
(-0.000759926 0.00389855 -1.50084e-19)
(-0.0266751 -0.0254463 -7.96641e-18)
(0.00103249 1.21256e-05 3.03448e-21)
(-0.0034099 -0.0267466 3.23346e-18)
(-0.000970178 3.17537e-05 1.15388e-19)
(0.000903727 0.000647827 -2.3989e-21)
(-0.0612663 -0.00426681 -8.9516e-18)
(-0.00730376 -0.0135693 4.84647e-18)
(0.00315183 -0.000973644 -5.40757e-19)
(0.0257212 0.00213055 -4.8776e-18)
(-0.0123719 -0.0168628 4.47897e-18)
(-0.00288084 0.0103716 -1.05293e-18)
(0.0119068 -0.0333062 -1.24289e-17)
(0.000139939 0.00148264 -1.00459e-19)
(0.00394889 0.000491403 -2.82163e-19)
(0.0101635 0.0104109 8.5427e-18)
(-0.00198465 -0.0134849 -2.23059e-17)
(0.0079615 -0.00166041 -1.47362e-18)
(0.00519804 -0.00178615 3.85642e-19)
(0.00405053 0.00869847 2.92265e-20)
(-0.00105285 4.19281e-05 8.38628e-20)
(0.00189036 0.00202785 -6.8067e-20)
(0.00634792 0.00623331 3.20728e-20)
(0.0017518 -0.0210291 1.64746e-18)
(0.00466916 -0.00500894 -1.04829e-18)
(-0.0428933 0.00026947 2.588e-18)
(0.00235071 -0.0123861 7.0281e-18)
(-0.00403027 0.0184801 4.85301e-19)
(-0.0842646 -0.0431007 -4.19039e-18)
(0.00887399 0.00874404 1.06927e-19)
(0.00662928 -0.0104697 1.76617e-18)
(0.00108409 -0.0307327 -6.21084e-18)
(0.0217657 0.00258672 1.68393e-17)
(-0.001978 0.00256719 -5.2621e-20)
(0.00735254 0.00614477 -6.69238e-19)
(0.00662954 0.0072463 -3.42772e-21)
(0.000959016 0.000610152 -8.77941e-21)
(-0.00130132 1.56871e-05 2.344e-19)
(0.000373139 -0.000115995 1.19832e-20)
(-0.00245776 -0.00441608 1.08907e-20)
(0.00151355 6.12965e-05 -1.24922e-19)
(0.0249059 0.00241254 1.18625e-17)
(-0.00459862 -0.0082878 -1.2055e-17)
(-0.000112477 0.000241576 -8.77822e-20)
(-0.00815549 -0.0186129 8.35694e-19)
(-0.00125361 -6.29037e-05 2.1213e-19)
(-0.000455725 0.00855043 -1.12429e-17)
(-0.00261181 0.00242111 2.28128e-19)
(0.000940969 0.00263458 -2.90668e-20)
(0.0184995 0.00111638 8.4746e-18)
(0.000590334 -0.0187141 -6.8552e-18)
(0.00405961 -0.00231462 4.27578e-19)
(0.000598994 -0.00239197 -1.81829e-18)
(0.00463533 -0.000302286 -1.71554e-19)
(0.000167007 0.00288199 -1.42026e-19)
(0.000442288 -0.00316491 -2.59816e-18)
(0.000738679 -0.00861581 -5.14993e-19)
(0.00217791 0.000897507 -4.2372e-21)
(0.027136 0.0022939 -1.86535e-18)
(0.00697986 -0.00698298 -3.77584e-18)
(0.0592132 -0.00989056 5.09032e-20)
(0.00749241 0.00648353 2.84765e-19)
(0.00723832 0.00665701 -2.35421e-19)
(0.0143433 0.000352065 3.9236e-18)
(0.000527887 -0.00376871 -3.16736e-18)
(-0.000332444 0.000118761 9.19579e-20)
(-0.000481977 0.00388452 -1.81197e-19)
(0.0221705 0.00189204 1.74162e-17)
(-0.10385 -0.0151993 2.08196e-18)
(0.00464657 -0.00619319 1.86115e-18)
(0.0263688 0.00212874 1.25635e-17)
(0.0239561 -0.0161252 -1.91351e-19)
(0.000836244 0.000762643 -2.89461e-21)
(0.000667409 0.00265039 -9.23722e-20)
(0.00509265 -0.00133407 -3.42483e-19)
(0.00412752 -0.00400426 -2.21905e-17)
(0.0112067 -0.00138386 4.64904e-19)
(0.00310013 -0.0122538 -1.58136e-18)
(0.000522531 -0.00309549 1.35601e-18)
(0.000269369 -0.00527785 3.08088e-18)
(-0.0128968 -0.0111105 -8.53867e-18)
(0.00484049 0.00155076 1.95007e-19)
(-0.00162909 -0.0273583 8.18945e-18)
(-0.00447967 -0.00855448 1.52435e-17)
(0.0036418 -0.00094679 -1.04812e-19)
(0.00253527 -0.00327625 3.49763e-18)
(-0.000268761 0.000120469 6.98884e-20)
(0.000903819 -0.00846864 2.11835e-18)
(0.00547639 0.00156621 1.44798e-19)
(0.00411517 -0.0117244 -1.33809e-17)
(0.00570207 -0.00290116 -6.37133e-19)
(-0.00819289 0.0014724 1.25916e-19)
(0.0266655 0.00225307 -2.79723e-18)
(0.00314925 0.00311707 -1.15092e-20)
(0.0163158 -0.0207397 9.41221e-20)
(0.00500797 -0.00187474 4.08164e-19)
(0.00519373 0.00215164 -7.69173e-20)
(0.00336362 -0.00653195 -5.5745e-18)
(-0.00459773 -0.0138401 1.80207e-17)
(-0.00119503 1.96598e-06 5.86394e-20)
(-0.00861973 -0.0104548 -3.41999e-18)
(-0.0397992 -0.0135739 1.20787e-17)
(0.0148222 -0.00353959 -3.57558e-20)
(0.00145262 -0.00130589 -2.24004e-19)
(0.0056401 -0.00310335 2.12925e-18)
(0.00147786 5.02418e-05 2.97062e-19)
(0.00142503 -0.000893143 -8.76236e-19)
(0.000277457 -0.0018799 -1.63221e-18)
(0.00480882 -0.000618326 2.85709e-19)
(-0.00307459 0.0207526 9.02487e-20)
(-0.0365481 -0.0416928 -8.29734e-18)
(-0.00293085 -0.0276427 1.62821e-18)
(-2.90627e-05 0.00143982 -3.65358e-20)
(0.00504638 -0.0104893 2.85255e-18)
(-0.00213981 -0.00563202 2.08117e-18)
(-0.00132226 -0.00649866 1.57779e-18)
(-0.00125666 -0.0293578 5.38242e-18)
(0.00344092 -7.53823e-05 -1.67297e-19)
(-0.00879378 -0.0111802 -2.03423e-18)
(0.00982578 0.00435087 8.9417e-20)
(-0.00149179 -0.000195157 4.9557e-20)
(8.37618e-05 -0.0184637 -1.66581e-19)
(0.0140702 -0.019884 3.09919e-18)
(-0.00417059 -0.00863016 -8.58774e-18)
(0.0014071 0.00177623 -3.95902e-20)
(0.000567458 0.00158321 4.7566e-20)
(0.00181075 0.00209721 5.58871e-20)
(0.0234637 0.00300282 -6.84979e-18)
(0.00238371 -0.00305355 -3.99251e-19)
(-0.00288567 0.00240034 -2.06851e-19)
(-0.00588776 -0.00891919 5.83797e-18)
(0.00225626 0.000879468 5.36504e-20)
(0.000679558 0.00196123 3.9783e-20)
(0.0053919 -0.028332 -6.37175e-18)
(0.0265108 0.00584262 1.76401e-19)
(0.00553832 -0.000710596 5.05271e-20)
(-0.109791 -0.0262103 -6.5724e-19)
(0.0123915 -0.00219465 1.21452e-18)
(0.0122121 -0.00330842 9.16905e-19)
(0.00019223 -0.00185507 3.12652e-18)
(0.00478472 0.000617952 -1.17238e-19)
(-0.0433595 -0.0193175 -8.15106e-18)
(-0.00432023 0.00325789 -2.05125e-19)
(-0.0208713 -0.000334285 7.64527e-19)
(-0.00096178 -7.87245e-05 1.61667e-20)
(-0.00128076 3.69326e-05 -2.11807e-19)
(0.000872746 -0.00237293 4.06321e-20)
(0.00602752 -0.0026417 -2.27528e-18)
(0.0135023 -0.000810287 -1.71406e-19)
(0.00133888 0.00179302 -1.39976e-19)
(0.00299356 0.000134109 -4.43847e-19)
(0.00334258 0.0021155 4.50069e-20)
(0.0174101 0.000419477 4.04108e-20)
(0.00501287 -0.00203175 -1.49809e-18)
(-0.0013258 -0.00708093 -1.32721e-18)
(0.00351742 -0.00289402 1.44342e-19)
(-0.00468784 -0.0192101 -9.25929e-18)