/*--------------------------------*- C++ -*----------------------------------*\
| =========                 |                                                 |
| \\      /  F ield         | OpenFOAM: The Open Source CFD Toolbox           |
|  \\    /   O peration     | Version:  v2012                                 |
|   \\  /    A nd           | Website:  www.openfoam.com                      |
|    \\/     M anipulation  |                                                 |
\*---------------------------------------------------------------------------*/
FoamFile
{
    version     2.0;
    format      ascii;
    class       volVectorField;
    location    "550";
    object      ddtCorrDdt0(U);
}
// * * * * * * * * * * * * * * * * * * * * * * * * * * * * * * * * * * * * * //

dimensions      [0 1 -2 0 0 0 0];


internalField   nonuniform List<vector> 
13917
(
(0.0217024 0.00443603 3.93819e-19)
(0.00461311 0.00352494 3.88891e-19)
(-0.0217587 -0.0175812 -1.08666e-18)
(0.00126574 -0.00341313 8.52925e-19)
(0.00553078 0.000586988 -1.83151e-20)
(0.00422517 0.00311169 -4.33092e-19)
(0.000666222 -0.00758562 2.15518e-18)
(0.0112815 0.0105231 2.83237e-18)
(-0.00238454 -0.00558122 1.52184e-18)
(-0.00408734 0.0103863 -4.54172e-17)
(0.0105837 0.0096879 6.0782e-19)
(0.00210441 -0.00212191 2.43428e-18)
(0.000418071 -2.97278e-05 -1.37388e-19)
(0.0557634 0.0169787 8.55215e-19)
(0.00404084 0.000426755 -3.89533e-20)
(0.0218175 0.00411023 9.77859e-18)
(-0.0010219 -2.58965e-05 8.18989e-20)
(0.0111605 0.00709892 -2.73078e-19)
(-0.00865838 -0.0220806 4.42705e-19)
(0.0238871 0.0158769 -4.49256e-18)
(0.0092459 -0.00212755 1.78875e-18)
(0.00324972 0.000624544 -1.24288e-19)
(-0.00111674 -0.0141303 2.50979e-18)
(0.0032379 0.000700513 3.07737e-20)
(0.00323764 -0.00413071 -2.98366e-18)
(0.00964241 -0.00109667 1.39365e-19)
(-0.0884088 -0.0160864 -1.26044e-18)
(-0.00308312 0.00632737 4.14326e-17)
(0.0106754 0.00214407 8.20589e-21)
(0.00176017 0.00205661 -9.30673e-21)
(-0.000259766 0.00418102 7.03149e-18)
(-0.0077177 -0.0142882 4.87087e-18)
(0.00228067 -0.00318264 -6.66967e-20)
(0.0168692 0.00260154 -1.42218e-18)
(-0.00159318 0.00348449 -1.81465e-20)
(0.0105536 0.0128928 -7.69571e-19)
(0.0051531 -0.00161445 -4.35066e-19)
(0.000910788 3.3447e-05 -1.67031e-19)
(0.000419493 -0.00767262 -2.14229e-18)
(0.0102809 -0.00597595 2.04661e-20)
(0.00037209 -3.48458e-05 6.98084e-20)
(-0.00169842 0.00148734 -2.32099e-19)
(-0.00174327 -0.00467957 7.71179e-19)
(-0.0102621 -0.0189957 1.14513e-17)
(-0.00978424 -0.0192181 2.27636e-18)
(-0.0704829 -0.045463 -9.85985e-18)
(0.00882266 -0.00229723 -5.94897e-19)
(-0.00577651 0.0239851 -4.69969e-18)
(-0.036274 0.0272792 -4.63904e-18)
(-0.0014457 0.00358937 -2.64055e-19)
(0.00209269 -0.00203796 3.09118e-19)
(0.00635519 -0.0294771 -2.17411e-19)
(0.0265395 0.00241742 -6.57182e-18)
(0.00292667 -0.000923817 -2.44594e-19)
(0.00298538 -0.00116801 -1.3597e-18)
(0.0051797 -0.0291336 6.92751e-18)
(-0.0031166 0.0052718 -2.40739e-18)
(-0.000710119 -0.0140706 1.23758e-18)
(-0.00203438 0.00176061 1.31218e-19)
(-0.0750229 -0.0466117 1.59528e-18)
(-0.0597633 -0.00356161 1.14281e-17)
(-0.0110689 0.00258157 7.43309e-20)
(0.000825395 6.34626e-05 1.13145e-20)
(0.00309561 -0.00402177 -6.09841e-19)
(-0.0130783 -0.00324259 -1.11673e-17)
(0.00619306 0.00477921 2.12528e-20)
(0.010943 0.00352366 5.78194e-19)
(0.00874533 0.0134442 -1.08695e-18)
(0.0120274 0.00787995 3.39024e-21)
(0.0233809 0.00287189 -5.70546e-18)
(-0.0193467 -0.00705652 -9.65908e-18)
(0.01819 0.00286982 2.29706e-17)
(0.000280065 -0.00212635 2.07464e-18)
(-0.00241463 0.00160039 7.41731e-20)
(0.0095893 -0.00238442 -4.99118e-19)
(0.00437799 -0.00361164 4.62535e-18)
(0.00464527 0.000664992 -2.55193e-20)
(-0.00269351 0.00167288 5.34952e-20)
(0.00419804 -0.00354123 6.21388e-19)
(0.00236412 -0.00327148 -3.36835e-18)
(0.00362941 -0.000309288 -3.09656e-20)
(-0.00109595 8.80336e-06 2.72797e-19)
(0.000234926 -0.00203719 -6.36426e-19)
(-0.00977258 -0.00547665 -5.33828e-18)
(0.00141377 -0.000152766 2.67191e-19)
(0.021458 0.00213351 -1.49346e-18)
(-0.00737518 -0.0141299 1.93558e-18)
(0.00140662 -7.23322e-05 -3.44479e-19)
(0.0101388 -0.00562394 -1.69571e-18)
(-0.00110782 -4.31806e-05 -5.39906e-20)
(-0.00104765 -0.000178593 4.74348e-20)
(-0.00191916 -0.0047597 3.58549e-18)
(-0.0439506 0.0198449 -1.68101e-19)
(-0.00184383 0.00248655 -2.59119e-19)
(0.00367731 -0.00101551 2.87839e-20)
(0.0112498 0.00260966 2.00715e-19)
(0.000214992 0.000335607 3.15364e-20)
(-0.000572327 7.0229e-05 -2.66068e-19)
(0.00138701 -8.74907e-05 7.50156e-19)
(0.0146467 -0.000953151 3.91522e-19)
(0.00091594 1.28583e-06 2.08521e-21)
(0.00101988 -4.45773e-06 -1.44315e-21)
(0.00369091 -0.000349411 7.49106e-20)
(-0.000525712 0.000166223 -1.26921e-19)
(0.00464225 0.000782873 -2.97307e-21)
(0.00714116 -0.00354306 2.75345e-18)
(0.000919102 0.012847 3.80865e-18)
(-0.0107703 -0.000381136 3.00024e-19)
(-0.00117251 0.0015512 1.72454e-19)
(-0.101198 -0.0184681 -2.99985e-19)
(0.000188244 -0.00016288 5.47801e-19)
(0.0156468 0.00268069 1.89412e-17)
(0.0109671 0.00144072 -6.67856e-20)
(-0.00171121 0.0263277 2.65629e-17)
(-0.0137019 -0.00378203 1.03516e-17)
(0.00492436 -0.00344359 1.97631e-18)
(-0.00803651 -0.0215719 1.27e-17)
(1.54952e-05 -0.000238435 -2.93465e-20)
(-0.0197725 -0.0212815 3.7309e-18)
(-7.60808e-05 -0.00159723 3.86557e-19)
(-0.00120931 1.29773e-05 -1.38638e-19)
(-0.00278962 0.00116458 -3.41172e-19)
(0.0115904 0.00394427 -3.77453e-19)
(-0.00182539 -0.0239236 -3.15112e-18)
(0.0259496 0.00223009 -4.26466e-18)
(-0.00816327 -0.00476384 1.20194e-17)
(0.00279425 -0.00397016 3.50835e-19)
(0.00997321 -0.00224728 -6.02578e-19)
(0.0010556 0.0025221 -3.39392e-20)
(-0.00259464 -0.0240275 -1.36247e-18)
(-0.00323012 -0.00887332 -8.63817e-18)
(0.0171806 -0.0202954 -1.03194e-18)
(0.0129262 0.000436547 -1.19287e-17)
(0.0049713 -0.00328467 6.38154e-19)
(-0.00875419 -0.0156637 8.23195e-18)
(-0.106652 -0.0169601 1.42448e-20)
(-0.0654437 -0.0090574 4.97735e-19)
(0.0274385 0.00193694 4.4432e-18)
(0.0100041 -0.000454474 3.98512e-19)
(0.000596473 1.65426e-05 4.92868e-20)
(-0.00835356 0.0240168 -7.06155e-19)
(-0.00282828 0.00146079 1.88681e-19)
(0.0072906 -0.00390067 3.71983e-18)
(0.00227083 0.000420512 -6.00819e-20)
(0.000433656 -0.00193549 -1.69537e-18)
(0.00416801 0.00510973 1.78802e-19)
(-0.0187614 -0.00707139 1.14521e-17)
(0.0172548 -0.000308945 -5.52189e-19)
(-0.00339663 0.0243178 -1.69185e-17)
(0.0029873 -0.00100092 -7.32426e-19)
(0.00945789 -0.00535077 -2.40816e-18)
(0.00107753 1.94002e-05 -4.20546e-21)
(0.000401944 -0.00184333 2.16409e-19)
(-0.000145135 -0.00157869 9.51222e-19)
(-0.043012 -0.00788334 1.55687e-18)
(0.00386678 0.00159675 -1.22959e-19)
(-0.00059727 0.000201204 1.50068e-19)
(0.0150942 0.000768454 -9.68452e-18)
(0.000240134 -8.94011e-05 -1.23923e-20)
(4.29824e-05 -0.000186431 -4.16745e-20)
(0.00178578 -9.17313e-05 7.08256e-19)
(-0.0244579 -0.00399848 1.75989e-17)
(0.0057119 -0.000344253 -5.86223e-19)
(-0.0134816 0.0235978 6.57251e-19)
(-0.0318437 0.000850381 -4.312e-18)
(0.0191597 0.00220612 6.20959e-20)
(0.0180921 0.00297433 2.76534e-18)
(-0.0347936 0.010597 8.62081e-18)
(0.000917947 0.000443785 1.04379e-21)
(0.0103962 -0.000235017 -3.09412e-19)
(0.00340881 0.00081248 -2.70036e-21)
(0.0102512 0.00011944 -7.55937e-18)
(-0.002479 -0.00539548 -1.17364e-17)
(-0.0583987 -0.00992247 2.15123e-18)
(0.0105043 -0.0189903 5.31292e-18)
(0.000893775 -5.22489e-05 -6.57958e-21)
(0.00113885 -0.00341692 3.56835e-19)
(0.0121556 -0.0315336 -1.09917e-18)
(-0.00315011 -0.00862341 2.4744e-18)
(0.00587541 -0.000175487 6.06786e-19)
(-0.00140921 -0.00476984 5.54556e-19)
(0.00330822 0.000808134 3.57176e-20)
(0.00218868 -0.00199029 7.3496e-19)
(-0.0501275 -0.0361448 -6.98162e-19)
(-0.0225385 -0.021186 7.57239e-18)
(0.0126853 -0.0202091 -4.70526e-18)
(0.0021734 -0.00190108 8.64338e-20)
(-0.0546114 -0.0374231 1.61229e-17)
(0.0018931 0.00197765 -5.58148e-21)
(0.019305 0.00256328 -1.05062e-18)
(0.0113603 -0.0186137 -5.88179e-18)
(-0.00924467 -0.0188248 -1.30844e-17)
(0.00141542 -0.031799 3.26972e-18)
(0.0216879 0.00593265 2.93441e-17)
(-0.00173905 0.00256918 -1.26313e-19)
(0.0255867 0.00226273 4.13824e-18)
(0.00432194 -0.00606364 3.198e-18)
(0.0115831 5.64068e-05 -5.49302e-19)
(-0.00159448 0.00329064 -5.41458e-20)
(0.00371184 0.00152948 8.81021e-20)
(0.00806964 -0.00259877 -1.70335e-18)
(0.0228601 0.0030237 1.65681e-17)
(0.0278897 0.00194293 -1.37816e-17)
(0.00474696 -0.00102565 1.24648e-19)
(-0.0886813 -0.0223822 -2.12339e-19)
(0.00792928 0.00160292 3.41967e-20)
(0.00963924 -0.00571192 2.83727e-18)
(-0.00269399 0.0012542 -8.31557e-20)
(0.00986561 -0.0309254 -8.09642e-19)
(0.00364146 -0.000238455 -1.812e-19)
(0.000494328 0.00169959 1.93294e-20)
(0.00610845 0.000317849 -3.04517e-19)
(0.00614993 0.000230049 -2.07175e-19)
(-0.00650268 0.022904 -4.81784e-20)
(-0.00858084 -0.015357 -1.7794e-18)
(0.0100342 -0.00095609 -3.96945e-20)
(-0.00942426 0.00174985 2.34235e-18)
(0.00140244 8.50745e-05 2.001e-19)
(-0.0022406 -0.00142597 -1.08227e-19)
(-0.00215132 -0.00155519 -1.71743e-19)
(-0.0269983 0.0146382 -2.31817e-17)
(-0.0187266 -0.0352808 9.43232e-18)
(-0.0664239 -0.0375372 -6.15387e-18)
(0.000601593 -0.00042895 -5.93878e-21)
(0.00066331 3.09217e-05 -8.33821e-21)
(-0.10969 -0.0162429 -4.20823e-19)
(0.0256898 0.00236141 1.36616e-17)
(-0.00190971 -0.00111323 3.0891e-19)
(-0.00179631 -0.00107628 -1.18818e-19)
(0.000302759 -4.00758e-05 -9.06602e-21)
(-0.00228741 -0.00176433 7.26304e-21)
(-0.00218006 -0.00191249 -1.34855e-19)
(0.0189184 0.00301865 -2.65207e-17)
(-0.0134551 0.0160798 -8.50092e-18)
(0.00336546 0.00010733 -2.0332e-19)
(0.00106937 0.00078003 -1.6599e-21)
(0.00481838 -0.0218141 2.68989e-18)
(0.0206163 0.00239984 -6.92074e-18)
(-0.000287632 -0.000107719 1.88826e-20)
(0.000632912 -0.000390431 -1.15759e-19)
(-0.0960681 -0.0213352 2.35562e-19)
(0.00904347 -0.00360307 -7.15826e-19)
(-0.0407513 -0.0372416 -1.13457e-17)
(-0.00702857 0.00245159 8.50362e-19)
(0.014951 -0.0233612 3.73649e-18)
(0.00228599 0.000370263 -1.05203e-19)
(-0.0355054 0.00662796 -3.10826e-17)
(0.0041509 -0.0225425 -3.99642e-19)
(0.0105102 0.00117984 1.10326e-19)
(-0.00505408 -0.0187424 3.53665e-18)
(0.0046182 -0.00111352 -1.03052e-19)
(-0.0095844 0.0184283 1.61929e-17)
(9.22589e-07 -0.00172704 -1.67794e-18)
(0.00902769 -0.0104774 9.01025e-19)
(0.00947112 -0.0178314 -1.72601e-18)
(0.00346097 0.000184205 -5.83671e-21)
(0.000206945 -1.31982e-05 -4.96063e-20)
(0.00291696 -0.00408773 2.35548e-18)
(0.0056878 0.00154711 -8.90548e-20)
(-0.00258619 0.00264606 -4.615e-19)
(0.0242352 0.00208273 1.16072e-18)
(0.00503912 0.0680913 -4.9391e-18)
(-0.00273362 0.000963279 -3.98827e-20)
(-0.00178402 -0.000917224 3.61495e-19)
(0.00399436 0.00150814 8.98408e-20)
(-0.00184149 -0.000835956 4.77243e-20)
(-5.64875e-05 -0.00170001 2.51736e-19)
(0.000687005 -5.16234e-05 2.01205e-19)
(0.00326347 -0.0119466 2.07546e-18)
(-0.00276034 0.000902377 -1.72709e-20)
(0.0269892 0.00180587 1.49542e-17)
(-0.0020966 0.0111243 7.54742e-18)
(0.00204013 -0.00132849 6.53608e-19)
(0.00510909 0.0013816 -6.79643e-20)
(-0.0849091 -0.0469597 -2.30727e-18)
(0.000301909 -0.00287819 -1.07269e-20)
(0.0163507 -0.00220588 -6.48753e-19)
(0.0230612 0.00195781 -2.5419e-18)
(0.000117677 -0.00289769 3.08013e-20)
(0.0224966 0.00252361 3.7859e-18)
(-0.00253336 0.00250664 3.99237e-19)
(-0.0271992 -0.00567937 -2.0762e-17)
(0.000813101 -3.55731e-05 7.61136e-21)
(0.00409982 0.000194298 -1.11872e-20)
(0.00352772 0.000194553 -1.66615e-19)
(0.00219325 0.000663447 5.13842e-20)
(-0.00827093 -0.0271467 -5.02926e-19)
(0.000683453 7.86343e-05 5.21833e-22)
(0.0283884 0.00519634 -3.79993e-19)
(0.0060944 -0.00636601 -2.40298e-18)
(0.0279372 0.0664835 -4.91215e-18)
(0.0066758 0.00421321 -1.65231e-19)
(-0.0455787 -0.014928 8.62744e-20)
(0.0278463 0.0018499 1.45873e-17)
(-0.000277766 -0.000176359 1.61631e-19)
(0.00141533 -0.0164219 -1.36678e-17)
(0.00560395 0.00112832 -8.58057e-20)
(0.00530524 -0.00312593 -1.81523e-18)
(0.00550513 0.000756704 -1.19017e-19)
(0.00402772 -0.00370398 -7.1771e-19)
(-0.00211822 0.00248126 -5.16124e-20)
(0.000632193 0.000113298 7.28114e-21)
(0.0159051 -0.0306216 -3.4726e-18)
(0.00876383 0.00974581 2.15278e-19)
(0.00875517 -0.0102176 -1.77686e-18)
(0.00387915 -0.00362704 -1.7158e-18)
(0.000709246 -0.00036302 1.00952e-18)
(0.0139574 0.000554257 1.9587e-17)
(0.0232903 0.00325094 -4.12643e-18)
(0.000519409 0.00256331 -5.68326e-21)
(0.00422269 0.000747665 2.00079e-20)
(0.00523073 -0.00330874 -2.03581e-19)
(0.00688146 -0.00250823 1.56284e-19)
(-0.0138472 -0.0152616 6.3708e-18)
(0.00205996 0.0102502 1.18205e-17)
(-0.0549585 -0.0117008 -4.66774e-18)
(0.00565157 0.00603622 1.96257e-20)
(0.0399195 -0.0160705 2.71236e-18)
(0.00500846 0.0015634 1.25876e-19)
(-0.0121653 -0.00639361 -8.79459e-18)
(0.00617294 -0.00304863 -1.14429e-19)
(-0.020457 -0.0177383 -1.02212e-18)
(0.000567541 -4.07658e-05 4.47213e-19)
(0.00402881 0.000320199 2.39908e-20)
(-0.0776886 -0.0161658 5.43553e-19)
(0.00362702 0.00102771 3.94374e-20)
(0.00451553 0.0040953 -2.60871e-19)
(-0.00880266 -0.0190221 2.64293e-17)
(-0.000825202 -4.84979e-05 2.17587e-20)
(0.00952587 -1.97445e-05 1.00242e-17)
(0.0013962 -0.00011451 2.92027e-19)
(-0.00634628 -0.00877435 -4.35315e-18)
(0.00361891 -0.00263545 6.0642e-20)
(0.031038 0.0155517 3.83937e-17)
(0.000741731 0.000722708 9.59981e-21)
(0.00789602 -0.0101647 2.6571e-18)
(0.00834944 0.0015706 -4.53104e-20)
(0.00501505 0.00633853 -1.24505e-20)
(-0.00097749 -9.39604e-05 1.05874e-19)
(-0.00588195 -0.0180759 5.62759e-18)
(0.00270898 -0.00462669 2.53338e-17)
(0.00353742 -0.00114686 9.66646e-19)
(0.00365062 0.0011399 -5.08184e-21)
(0.0136569 0.00230167 -3.50905e-18)
(0.00474289 -0.00432308 1.79145e-17)
(-0.0474724 -0.0180412 9.54658e-18)
(0.0573936 0.0245833 -7.82597e-19)
(-3.36109e-05 -0.0026118 1.07928e-21)
(0.0033171 -9.41719e-05 -3.45902e-19)
(0.0106696 -0.00340182 -2.44099e-18)
(0.0367121 -0.0189625 -1.61311e-18)
(-0.000256173 -0.00264448 4.8115e-21)
(0.00568161 0.00091544 1.76715e-19)
(0.00259613 -0.00152186 -3.05351e-19)
(0.0127624 -0.00214289 -4.34856e-19)
(0.00814896 -0.0104347 -2.49449e-18)
(-0.00110118 -0.0281896 -1.90768e-18)
(0.0193528 -0.0171299 -2.62452e-18)
(0.0158552 -0.00224134 1.20273e-19)
(-0.00563634 -0.00960245 2.45412e-18)
(0.0172922 0.00496451 9.40689e-18)
(0.00118707 0.00257923 6.22697e-20)
(0.00351867 -0.0012366 -6.17971e-19)
(0.00567521 0.00052038 -7.30603e-20)
(-0.0285201 -0.0246749 1.74958e-18)
(-0.000444122 -7.18389e-05 -6.09958e-20)
(0.0224263 0.00487276 -2.35583e-17)
(-0.00566928 -0.00934755 -3.27894e-18)
(-0.000321324 0.0273982 -5.28061e-19)
(0.00308161 -0.00116518 -1.91738e-19)
(0.0230669 -0.0196288 6.51913e-18)
(0.004406 0.000844861 -2.05946e-19)
(-0.0446307 -0.00133302 2.98366e-18)
(-0.00275506 0.00337172 -1.45407e-19)
(-0.0626094 -0.0364482 1.54837e-17)
(-0.0821416 -0.0462065 4.18846e-18)
(0.00874803 0.00196177 -9.32028e-20)
(0.0021156 -0.00136498 -6.89008e-19)
(-0.0365819 -0.0138647 1.23724e-18)
(0.00444693 -0.00221016 -1.92844e-19)
(-0.0347342 0.000647672 1.96388e-18)
(-0.00789647 -0.0332331 2.1023e-18)
(-0.00332805 0.00392853 5.37404e-19)
(-0.0396416 0.00981195 -2.93403e-18)
(0.00373393 0.000273836 5.44658e-20)
(0.00526844 0.00833474 -1.86491e-19)
(-0.0015693 0.00139454 -1.63169e-19)
(0.0199653 0.0161798 6.9661e-18)
(0.00409413 0.00916646 2.11517e-19)
(0.00480538 -0.0021459 1.38642e-18)
(-0.107843 -0.0166751 -1.40439e-18)
(0.0148057 -0.00282735 6.27734e-19)
(0.00435875 -0.00109021 6.74033e-19)
(-0.0342296 -0.00726621 2.40562e-19)
(0.000333617 -0.0124113 1.16554e-17)
(0.00438239 -0.00231505 -2.28866e-18)
(-0.0112362 -0.0279188 -2.79048e-18)
(0.00319873 -0.00025279 3.73011e-19)
(0.0146843 -0.00257695 -9.25233e-19)
(-0.0226993 -0.0188876 7.42873e-18)
(0.00138128 -0.000105793 -4.04141e-19)
(-0.000805259 -0.0069224 -5.49434e-18)
(0.00373379 -0.00375689 5.61588e-19)
(0.00214371 0.000535536 -4.51982e-20)
(0.0014104 0.000387578 2.00165e-19)
(0.00146242 0.00251281 5.9167e-20)
(-0.0600072 -0.00763332 -1.29936e-17)
(0.0202888 0.00177706 1.14067e-19)
(0.00329184 -0.00121559 -1.76923e-18)
(0.00135866 0.00284928 2.78803e-19)
(0.00305081 0.000694758 1.38146e-19)
(0.00408729 -0.0159223 1.2679e-17)
(0.0011612 0.0161341 -1.48297e-18)
(0.00204548 -0.00303478 7.7042e-21)
(0.000943595 0.000391291 -7.48823e-22)
(-0.0135626 -0.0154629 -2.54806e-18)
(0.0216684 -0.0181245 -1.12582e-17)
(0.00226274 0.000646402 2.87283e-20)
(0.00465254 -0.00215497 2.13743e-18)
(-0.0592761 -0.0224517 -1.00379e-17)
(-0.0898693 -0.0257999 -3.69003e-19)
(0.00686819 0.00487524 -1.62392e-20)
(-0.00941526 -0.0220472 -1.03455e-18)
(-0.0141628 -0.00767671 -1.67692e-18)
(-0.00465561 -0.00402255 -3.78503e-20)
(0.00154133 -0.00298252 -4.92224e-22)
(0.00821719 -0.00148872 2.07242e-19)
(0.00138046 0.000367763 -1.24765e-19)
(0.00187865 -0.00318677 9.19245e-21)
(0.00343135 0.000118181 4.95453e-19)
(0.00136193 -0.00312048 -8.89735e-21)
(-0.00413538 -0.00396217 -1.00504e-19)
(-0.0291457 0.0104122 -1.11913e-17)
(0.00325568 -0.000304161 -5.76948e-19)
(0.0107178 -0.00693488 -4.535e-18)
(0.026415 0.00182042 -1.50232e-17)
(0.00196492 -0.0161108 -1.45847e-18)
(0.000576811 0.00175697 -3.87951e-20)
(0.000465323 -0.00178975 -4.99935e-19)
(-0.0326871 -0.00713555 -1.06851e-17)
(0.00815267 -0.00224125 3.50012e-20)
(0.0262852 0.00224393 -1.21333e-17)
(0.00311955 -0.00286461 -1.27572e-19)
(0.00104096 -0.000810137 2.13422e-19)
(0.00474905 -0.00242412 2.17478e-19)
(-0.00228983 -0.00219775 -2.2739e-20)
(0.00500889 -0.0015222 -2.94802e-19)
(0.00384018 0.000344313 -8.51498e-20)
(-0.0630365 -0.0255581 2.71166e-18)
(-0.00717128 0.0185543 -2.79119e-20)
(0.00871664 -0.00327158 -2.15595e-18)
(0.00107845 -0.000785914 -9.19668e-19)
(-0.0020578 -0.0105802 -2.31322e-19)
(-0.0002571 0.0191327 6.59633e-19)
(0.00357177 -0.000201086 2.18967e-19)
(0.0135134 -0.0237415 1.52871e-18)
(-0.048763 -0.0189009 -1.7828e-18)
(0.0025115 -0.0015093 1.96065e-18)
(-0.117223 -0.0213915 1.00025e-18)
(0.000778161 0.00176291 -6.80269e-20)
(0.00119399 0.000156143 -1.33416e-19)
(0.0029649 0.000744332 -2.31759e-19)
(0.00371995 0.00021583 -9.92209e-20)
(0.000341996 0.0015769 1.65708e-20)
(0.00148153 -9.64888e-06 -5.52586e-19)
(0.0141092 0.000642849 1.16986e-19)
(-0.0580887 -0.00589578 -7.47768e-18)
(0.000273292 0.00151031 -2.64095e-20)
(-0.0673975 -0.0220034 1.26798e-18)
(-0.0131516 -0.0162264 5.19318e-18)
(0.000523147 -0.000111421 7.47603e-19)
(0.00212604 -0.0175485 -6.40414e-18)
(-0.0104877 -0.0105092 2.11934e-17)
(-0.0277025 -0.00170428 -1.14114e-17)
(-0.00127704 -0.00726292 -3.29914e-18)
(0.00592579 -0.00360218 -1.98351e-17)
(0.0119974 0.0244191 -4.05177e-20)
(0.0135826 0.0222071 1.77442e-19)
(0.00381918 0.000285234 -6.35361e-20)
(0.00564321 0.00510506 4.26415e-20)
(0.00482027 0.0207014 -7.63733e-19)
(0.00448868 -0.00102861 -3.78149e-19)
(-0.0562343 -0.0239644 -6.18719e-19)
(-0.00109691 -0.000151387 -3.96799e-21)
(0.00282487 -0.000933411 1.71822e-18)
(0.00365695 -0.00111605 -1.00667e-18)
(-0.00152885 -0.00634592 1.31548e-18)
(0.00910796 -0.00332446 8.07785e-19)
(-0.0159015 -0.0223786 -6.97194e-18)
(-0.00336119 -0.0149996 1.89704e-18)
(0.00219238 -0.00197328 -1.0433e-19)
(0.00531033 0.00135957 -1.27864e-19)
(0.0120012 0.00567363 6.31256e-19)
(0.0134231 -0.00826506 -2.75859e-18)
(0.00327949 -0.00114365 7.96006e-19)
(0.0291414 0.00616785 2.1131e-18)
(0.00150095 -0.0118895 -2.63635e-18)
(0.00583961 -0.006584 3.77498e-18)
(-0.0396617 -0.00247577 3.22455e-18)
(0.00139074 -0.000140536 5.84426e-19)
(0.014015 -0.00831126 9.19001e-18)
(0.0139036 -0.0339649 6.54105e-18)
(0.00100346 0.000456388 5.37034e-20)
(0.0190289 0.00133309 -4.15182e-18)
(0.00122662 0.000148338 1.92169e-19)
(-0.00215558 -0.00234247 -9.59276e-22)
(0.00369944 -0.0164152 -8.92191e-18)
(0.00297975 -0.00309165 3.57634e-20)
(0.00140236 9.42469e-05 -1.09392e-19)
(0.0147664 -0.0297366 9.04426e-21)
(0.0175428 0.000901956 -5.53955e-18)
(-0.100526 -0.0116495 -1.52262e-18)
(0.00174389 -9.78337e-05 -6.70199e-19)
(0.000349821 -0.00371726 1.0711e-17)
(-0.0030068 -0.00276937 1.69777e-20)
(-0.0640808 -0.0294312 -4.10913e-19)
(-0.0873258 -0.0449352 -5.62592e-18)
(0.00317319 -0.00103201 2.06321e-18)
(0.00293697 -0.00108813 1.66832e-18)
(0.00168128 -7.51218e-05 6.69825e-19)
(0.00808905 -0.0171932 -8.23094e-18)
(0.0593063 0.0638716 3.68815e-19)
(0.000733545 0.00293691 -1.66615e-19)
(-0.000416315 -0.000107205 1.17193e-19)
(0.00358952 0.00161353 -8.6516e-20)
(0.00208124 0.000490297 4.85845e-19)
(0.00268492 0.00877393 1.44623e-20)
(0.00387215 -0.00814573 -4.74312e-18)
(-0.000998545 -0.000150624 -1.05106e-19)
(-0.00311313 -0.0154121 4.04544e-18)
(0.000983718 0.000422798 4.04774e-20)
(0.003097 0.000542259 -1.02961e-19)
(0.00358308 -0.00370525 1.10961e-18)
(0.00773347 0.00902104 1.52057e-17)
(-0.00143599 7.43855e-05 8.67685e-20)
(4.00177e-05 -0.00519576 5.69406e-18)
(-0.00248476 0.00273754 3.42804e-19)
(-0.00189466 -0.0102517 -6.10636e-18)
(0.000956855 -0.0198355 -1.33189e-17)
(0.0130804 -0.00049685 -4.65654e-20)
(0.0096935 -0.0185236 -1.31057e-18)
(0.0147128 -0.000835367 2.08506e-21)
(0.00363111 -0.00323758 -8.49026e-19)
(0.0111184 0.0050615 -4.20819e-19)
(0.0102762 -0.000231947 -9.77075e-19)
(-0.0258362 0.0105254 -5.52617e-18)
(0.0254417 0.00177674 9.75449e-18)
(6.05806e-06 0.00249138 -1.02718e-19)
(0.00288629 0.000886371 2.17194e-20)
(0.00379552 -0.00328939 -8.77793e-22)
(0.00149734 -0.00121157 -2.9769e-18)
(-0.0107922 -0.00338302 2.19121e-18)
(0.000520974 -0.00314518 1.3131e-20)
(0.000584379 -0.028139 5.12853e-19)
(0.00409689 -0.00616186 -7.1978e-19)
(0.00305851 -0.00165553 1.52099e-17)
(0.0168442 -0.0016178 -9.35574e-19)
(-0.00158209 -0.00483059 -4.43821e-18)
(-0.00118874 0.0234544 -2.71354e-17)
(0.00016564 0.00154965 6.98218e-20)
(-0.00904818 -0.0109315 9.74332e-18)
(-0.000728419 9.38892e-05 1.94815e-19)
(-0.00370184 0.0028757 1.68585e-19)
(0.00454531 -0.00120158 3.80261e-18)
(0.00258439 -0.00299951 9.44215e-20)
(-0.0126228 -0.0163607 -5.32678e-18)
(0.000776999 2.4978e-05 -3.98874e-21)
(0.00053873 -7.90083e-05 -4.02951e-19)
(0.00297409 0.000841469 4.43172e-20)
(-0.0134761 -0.0224655 3.33764e-18)
(0.00237356 0.00937667 -3.00271e-19)
(-0.00166161 -0.000532177 2.14336e-19)
(-0.0108813 -0.0182363 1.04853e-18)
(0.00265701 -0.0171494 1.30117e-17)
(0.0113921 0.00577124 -6.27888e-20)
(-0.0203128 -0.0082142 -6.60899e-18)
(0.0140627 0.000405125 7.47052e-18)
(-0.0286531 -0.000856702 8.33371e-18)
(-0.00142044 8.46291e-05 -1.77702e-19)
(0.0249363 0.00213138 -1.70217e-17)
(0.00118366 7.79142e-05 -2.51671e-20)
(-0.0644749 -0.00798551 -4.96543e-18)
(0.0184328 0.000839403 -2.08803e-22)
(-0.00381067 0.00326615 -1.04595e-19)
(0.0048599 0.00122263 4.29364e-19)
(0.00100666 1.0755e-05 -2.99851e-21)
(0.00167375 -0.01165 9.99521e-18)
(-0.00141436 -0.00456803 -5.03624e-19)
(0.00242244 -0.00318938 3.08425e-20)
(-0.000615527 9.48143e-05 7.60975e-20)
(0.000834199 -3.82255e-05 4.27375e-19)
(-0.0229582 -0.00946825 8.36041e-18)
(0.00181124 -0.00023551 -5.61565e-19)
(-0.00722584 -0.0133771 1.27677e-17)
(0.00277813 -0.000863912 -1.08344e-18)
(-0.00159038 -0.000550534 -2.47966e-19)
(0.000222725 -0.000123247 1.74667e-20)
(-0.0592651 -0.0457814 1.14609e-17)
(-0.038764 -0.0127611 -8.85973e-18)
(0.0080563 0.0257502 -5.79055e-18)
(-0.00464557 -0.0182958 1.73117e-17)
(0.00357964 -0.00814839 5.82484e-18)
(-0.0502565 -0.0211141 -1.25e-17)
(0.0203458 0.00224096 2.67126e-18)
(-0.00165887 0.00145528 3.37835e-20)
(-0.0527927 -0.0218013 -1.03233e-17)
(0.000746958 -4.52772e-05 -5.09126e-19)
(-0.0127081 -0.0113215 5.74627e-18)
(0.00156155 -0.00118765 -9.45908e-19)
(-0.0359269 -0.0141331 2.04959e-17)
(0.00202087 0.000512664 -3.62986e-19)
(0.00343903 0.00849977 7.75981e-20)
(0.000384955 -0.00199543 6.67627e-19)
(0.0105342 0.00297713 1.13989e-19)
(0.00251332 -0.0121 -8.45167e-18)
(-0.0128038 -0.0020653 3.71798e-18)
(-0.00125263 -6.42069e-05 2.87442e-20)
(0.00311506 -0.011509 5.06634e-18)
(-0.000420509 0.00369708 1.23495e-19)
(0.000797682 -7.45098e-06 -1.65899e-20)
(0.0158777 0.00541915 1.17785e-18)
(0.0141059 0.000167239 -8.95723e-20)
(-0.000902132 0.0041047 -2.05571e-19)
(-0.0011518 -0.0292192 4.07008e-18)
(0.000686113 -0.000400276 -1.33512e-18)
(-0.00405531 0.0021208 -1.0794e-19)
(0.000904629 1.13792e-05 6.48728e-21)
(0.0138206 0.00487606 4.49567e-18)
(0.00178771 -0.000259525 -1.82618e-19)
(0.00577743 0.00132457 7.77346e-20)
(0.000702018 -0.0030767 -4.2991e-21)
(-0.000793287 0.00389855 -1.50084e-19)
(-0.0268542 -0.0254513 -7.96647e-18)
(0.00102127 1.212e-05 3.03449e-21)
(-0.00358672 -0.0267542 3.23343e-18)
(-0.00100799 3.17709e-05 1.15388e-19)
(0.000862107 0.000647667 -2.39885e-21)
(-0.0612774 -0.00426731 -8.95159e-18)
(-0.00749451 -0.01357 4.84645e-18)
(0.00309986 -0.000974908 -5.40756e-19)
(0.0282273 0.00201708 -4.87793e-18)
(-0.0125118 -0.016862 4.47894e-18)
(-0.00290733 0.0103702 -1.05292e-18)
(0.0117625 -0.0333177 -1.24289e-17)
(0.000100191 0.00148256 -1.00459e-19)
(0.00390631 0.000489416 -2.82163e-19)
(0.0101191 0.010412 8.54271e-18)
(-0.00209393 -0.0134835 -2.23058e-17)
(0.00789024 -0.00166434 -1.47362e-18)
(0.00513746 -0.00178855 3.8564e-19)
(0.00402312 0.00869798 2.92267e-20)
(-0.00109099 4.19501e-05 8.38624e-20)
(0.00185339 0.00202735 -6.80666e-20)
(0.00634718 0.00623329 3.20728e-20)
(0.001591 -0.0210361 1.64743e-18)
(0.00458388 -0.00501186 -1.04828e-18)
(-0.0429175 0.000268623 2.58802e-18)
(0.00220172 -0.0123909 7.0281e-18)
(-0.00405349 0.0184788 4.85304e-19)
(-0.0843293 -0.0431066 -4.19037e-18)
(0.00885171 0.00874328 1.06926e-19)
(0.0064981 -0.0104759 1.76616e-18)
(0.00090831 -0.0307415 -6.21088e-18)
(0.021764 0.00258676 1.68393e-17)
(-0.00200746 0.00256746 -5.26219e-20)
(0.00732893 0.00614394 -6.69238e-19)
(0.00662939 0.00724629 -3.42772e-21)
(0.00091723 0.000609986 -8.77944e-21)
(-0.00133816 1.57233e-05 2.344e-19)
(0.000350394 -0.000115999 1.19833e-20)
(-0.0024789 -0.0044155 1.08906e-20)
(0.00147549 6.12428e-05 -1.24922e-19)
(0.0248998 0.00241277 1.18625e-17)
(-0.00474912 -0.00828703 -1.20549e-17)
(-0.000148997 0.000241571 -8.77821e-20)
(-0.00833071 -0.0186154 8.35768e-19)
(-0.00128592 -6.2863e-05 2.1213e-19)
(-0.000509568 0.00855146 -1.12428e-17)
(-0.00263979 0.0024215 2.28128e-19)
(0.000905804 0.0026343 -2.90662e-20)
(0.0184872 0.00111635 8.47459e-18)
(0.000436618 -0.0187198 -6.85517e-18)
(0.00405748 -0.00231441 4.27578e-19)
(0.000562818 -0.0023921 -1.81829e-18)
(0.00462148 -0.000302637 -1.71554e-19)
(0.000132742 0.00288186 -1.42026e-19)
(0.000406384 -0.00316506 -2.59816e-18)
(0.000632193 -0.00861774 -5.14957e-19)
(0.00213413 0.000896859 -4.23685e-21)
(0.0271321 0.00229405 -1.86535e-18)
(0.00687836 -0.00698776 -3.77583e-18)
(0.0592078 -0.00989107 5.09032e-20)
(0.00748967 0.00648381 2.84765e-19)
(0.0072151 0.00665624 -2.3542e-19)
(0.0143212 0.000351901 3.92356e-18)
(0.000473268 -0.00376904 -3.16736e-18)
(-0.000367479 0.000118766 9.19576e-20)
(-0.000516435 0.00388448 -1.81197e-19)
(0.0221684 0.00189208 1.74162e-17)
(-0.103871 -0.0152006 2.08196e-18)
(0.00454986 -0.00619654 1.86115e-18)
(0.0263705 0.00212869 1.25635e-17)
(0.0239482 -0.0161259 -1.91351e-19)
(0.000792992 0.000762472 -2.8946e-21)
(0.00063231 0.00265017 -9.23722e-20)
(0.00503099 -0.00133651 -3.42483e-19)
(0.00409587 -0.0040045 -2.21904e-17)
(0.0112017 -0.00138332 4.64904e-19)
(0.0029635 -0.0122586 -1.58133e-18)
(0.00047994 -0.00309568 1.35601e-18)
(0.000186307 -0.00527848 3.08087e-18)
(-0.0130069 -0.0111088 -8.5386e-18)
(0.0048061 0.00154956 1.95006e-19)
(-0.00179989 -0.0273663 8.18946e-18)
(-0.00465652 -0.00855382 1.52434e-17)
(0.00359085 -0.000948274 -1.04812e-19)
(0.00246793 -0.00327756 3.49763e-18)
(-0.000303628 0.000120473 6.98883e-20)
(0.000798303 -0.0084706 2.11832e-18)
(0.00544651 0.00156506 1.44798e-19)
(0.0040077 -0.0117224 -1.33809e-17)
(0.00563571 -0.00290389 -6.37129e-19)
(-0.00821472 0.00147311 1.25916e-19)
(0.0266602 0.00225328 -2.79723e-18)
(0.00314629 0.00311702 -1.15092e-20)
(0.016308 -0.0207403 9.41221e-20)
(0.0049469 -0.00187706 4.08162e-19)
(0.00514781 0.00214916 -7.69174e-20)
(0.00326786 -0.00653462 -5.57449e-18)
(-0.00471622 -0.0138388 1.80206e-17)
(-0.00123157 1.99167e-06 5.86393e-20)
(-0.0087632 -0.0104534 -3.4198e-18)
(-0.0398922 -0.0135769 1.20787e-17)
(0.0148214 -0.00353964 -3.57558e-20)
(0.00141408 -0.00130624 -2.23998e-19)
(0.00557239 -0.0031061 2.12924e-18)
(0.00143831 5.02077e-05 2.97062e-19)
(0.0013879 -0.000893435 -8.76233e-19)
(0.000255683 -0.0018799 -1.63221e-18)
(0.00477811 -0.000619763 2.85709e-19)
(-0.0030914 0.0207533 9.02486e-20)
(-0.0366795 -0.0417044 -8.29732e-18)
(-0.00310508 -0.0276506 1.62821e-18)
(-6.91986e-05 0.00143978 -3.65353e-20)
(0.00495881 -0.0104881 2.85256e-18)
(-0.00221989 -0.00563163 2.08113e-18)
(-0.00141344 -0.00649888 1.57776e-18)
(-0.0014301 -0.0293663 5.38244e-18)
(0.00339088 -7.67965e-05 -1.67297e-19)
(-0.00892614 -0.0111793 -2.03416e-18)
(0.00978152 0.00434586 8.94165e-20)
(-0.00152732 -0.00019499 4.95571e-20)
(-6.7381e-05 -0.018469 -1.66583e-19)
(0.013944 -0.0198937 3.0992e-18)
(-0.00435 -0.00862972 -8.58772e-18)
(0.00136734 0.00177583 -3.95901e-20)
(0.000526655 0.00158303 4.7566e-20)
(0.00177389 0.00209673 5.58869e-20)
(0.0234533 0.00300321 -6.8498e-18)
(0.00232054 -0.00305471 -3.99268e-19)
(-0.00291136 0.00240075 -2.06851e-19)
(-0.00602787 -0.00891817 5.83795e-18)
(0.00221288 0.000878794 5.36501e-20)
(0.000643321 0.00196102 3.97829e-20)
(0.00522265 -0.0283427 -6.37179e-18)
(0.0264587 0.00583688 1.76402e-19)
(0.00551045 -0.000711979 5.05275e-20)
(-0.109817 -0.0262126 -6.57239e-19)
(0.0123218 -0.00219998 1.21452e-18)
(0.0121785 -0.00330857 9.16916e-19)
(0.000171309 -0.00185506 3.12652e-18)
(0.0047481 0.000616528 -1.17238e-19)
(-0.0435046 -0.0193224 -8.15112e-18)
(-0.00434358 0.00325847 -2.05124e-19)
(-0.0208908 -0.000333553 7.64527e-19)
(-0.00099102 -7.87078e-05 1.61667e-20)
(-0.00131634 3.69698e-05 -2.11806e-19)
(0.000835774 -0.00237315 4.06178e-20)
(0.00595798 -0.00264472 -2.27528e-18)
(0.0134457 -0.000814904 -1.71406e-19)
(0.00130013 0.00179265 -1.39977e-19)
(0.0029875 0.000133866 -4.43847e-19)
(0.00330295 0.00211458 4.50062e-20)
(0.0174041 0.000418989 4.04108e-20)
(0.0049517 -0.00203406 -1.49809e-18)
(-0.00143326 -0.00708139 -1.32726e-18)
(0.00349886 -0.00289423 1.44342e-19)