/*--------------------------------*- C++ -*----------------------------------*\
| =========                 |                                                 |
| \\      /  F ield         | OpenFOAM: The Open Source CFD Toolbox           |
|  \\    /   O peration     | Version:  v2012                                 |
|   \\  /    A nd           | Website:  www.openfoam.com                      |
|    \\/     M anipulation  |                                                 |
\*---------------------------------------------------------------------------*/
FoamFile
{
    version     2.0;
    format      ascii;
    class       volVectorField;
    location    "950";
    object      cellDisplacement;
}
// * * * * * * * * * * * * * * * * * * * * * * * * * * * * * * * * * * * * * //

dimensions      [0 1 0 0 0 0 0];


internalField   nonuniform List<vector> 
13917
(
(-0.0167536 -0.115692 0)
(-0.00460541 -0.090744 0)
(-0.0155888 -0.103368 0)
(-0.0101955 -0.059061 0)
(-0.00295326 -0.0741852 0)
(-0.00457669 -0.0901294 0)
(-0.0121134 -0.0754062 0)
(-0.00390625 -0.0960255 0)
(-0.0130276 -0.0527304 0)
(-0.0141903 -0.120007 0)
(-0.0040679 -0.0957119 0)
(-0.00839665 -0.0599326 0)
(-0.000288368 -0.00134213 0)
(-0.00236369 -0.0996609 0)
(-0.00477534 -0.0842805 0)
(-0.0167567 -0.115149 0)
(-5.26948e-05 -0.0019509 0)
(-0.00441431 -0.0958075 0)
(-0.0144254 -0.103438 0)
(-0.0161131 -0.119459 0)
(-0.00716022 -0.0941143 0)
(-0.00415593 -0.0642331 0)
(-0.0131969 -0.0912258 0)
(-0.00406318 -0.0637163 0)
(-0.00975321 -0.0750747 0)
(-0.00666737 -0.0946111 0)
(-0.00429514 -0.108032 0)
(-0.0145794 -0.12002 0)
(-0.00541728 -0.0956421 0)
(-2.03877e-05 -0.00129596 0)
(-0.0154164 -0.119986 0)
(-0.0146815 -0.086974 0)
(-0.00946406 -0.0660338 0)
(-0.0166496 -0.111069 0)
(-0.0015446 -0.0442063 0)
(-0.00370442 -0.0958692 0)
(-0.00738241 -0.0827443 0)
(-0.000184607 -0.00272372 0)
(-0.0122255 -0.0749605 0)
(-0.00845782 -0.0973704 0)
(-1.1842e-05 -0.000593787 0)
(-0.000698592 -0.0305485 0)
(-0.0125626 -0.0478662 0)
(-0.014941 -0.0982666 0)
(-0.0148442 -0.0987571 0)
(-0.00953559 -0.112038 0)
(-0.00731254 -0.0934315 0)
(-0.0101653 -0.119046 0)
(-0.00216588 -0.0930523 0)
(-0.00158407 -0.0446898 0)
(-0.00828034 -0.0593097 0)
(-0.011246 -0.10906 0)
(-0.0164955 -0.0975229 0)
(-0.0065638 -0.0649893 0)
(-0.00693522 -0.0662105 0)
(-0.0114607 -0.108941 0)
(-0.016082 -0.119998 0)
(-0.0130893 -0.0915021 0)
(-0.000682914 -0.0297759 0)
(-0.00927241 -0.112004 0)
(-0.00625166 -0.116664 0)
(-0.00126693 -0.050405 0)
(-3.48237e-06 -0.000200635 0)
(-0.00973466 -0.0740828 0)
(-0.0156295 -0.113978 0)
(-2.75297e-05 -0.0019656 0)
(-0.00508585 -0.0957491 0)
(-0.00364688 -0.0954074 0)
(-0.00424683 -0.0961174 0)
(-0.0166229 -0.106024 0)
(-0.0156281 -0.111564 0)
(-0.0166678 -0.111075 0)
(-0.00959142 -0.0387449 0)
(-0.000688029 -0.0294439 0)
(-0.00720837 -0.0947733 0)
(-0.0090236 -0.0799546 0)
(-0.00348755 -0.0728193 0)
(-0.000671492 -0.028674 0)
(-0.00902969 -0.0790581 0)
(-0.00951358 -0.0670368 0)
(-0.00569597 -0.0725531 0)
(-6.72765e-05 -0.00226578 0)
(-0.009493 -0.0372715 0)
(-0.0161439 -0.105215 0)
(-0.00233846 -0.0197376 0)
(-0.0039844 -0.0997613 0)
(-0.0146235 -0.0865357 0)
(-0.00119198 -0.0102047 0)
(-0.00837201 -0.0968768 0)
(-6.23126e-05 -0.00233245 0)
(-9.65608e-05 -0.00379942 0)
(-0.0126555 -0.0477696 0)
(-0.00206732 -0.0925832 0)
(-0.00131807 -0.0386164 0)
(-0.00676958 -0.073238 0)
(-0.0052514 -0.0960591 0)
(-0.00418214 -0.105825 0)
(-0.000123874 -0.00314169 0)
(-0.00135719 -0.0113971 0)
(-0.00569543 -0.105008 0)
(-1.0438e-05 -0.000570263 0)
(-1.26527e-05 -0.000693995 0)
(-0.00578176 -0.0733679 0)
(-0.000243087 -0.00572018 0)
(-0.00344448 -0.0720623 0)
(-0.0162251 -0.0866182 0)
(-0.0145237 -0.118725 0)
(-0.0012258 -0.0499105 0)
(-0.000692281 -0.0308664 0)
(-0.00397772 -0.108253 0)
(-0.00196347 -0.00480334 0)
(-0.0166371 -0.111976 0)
(-0.0055847 -0.095948 0)
(-0.009479 -0.119182 0)
(-0.0156775 -0.11344 0)
(-0.00874575 -0.0822476 0)
(-0.0143967 -0.102602 0)
(-5.2074e-05 -0.00239546 0)
(-0.0153154 -0.10363 0)
(-0.00916149 -0.0274693 0)
(-8.45994e-05 -0.00281323 0)
(-0.000697218 -0.0282982 0)
(-0.00492047 -0.0961294 0)
(-0.013122 -0.105067 0)
(-0.0164563 -0.0949225 0)
(-0.0161869 -0.105658 0)
(-0.00982453 -0.0722105 0)
(-0.00707437 -0.0953903 0)
(-0.00221534 -0.0466507 0)
(-0.0132581 -0.105099 0)
(-0.0136319 -0.0708093 0)
(-0.00740574 -0.109634 0)
(-0.0163446 -0.0898606 0)
(-0.00862175 -0.0824277 0)
(-0.0148327 -0.0906068 0)
(-0.00373163 -0.10795 0)
(-0.00550807 -0.116078 0)
(-0.0162834 -0.0834211 0)
(-0.0063576 -0.0950673 0)
(-9.82492e-05 -0.00147636 0)
(-0.00139168 -0.0811971 0)
(-0.00067487 -0.0283117 0)
(-0.0162079 -0.0856948 0)
(-0.00385894 -0.0506146 0)
(-0.00911805 -0.0387757 0)
(-0.000638595 -0.0315147 0)
(-0.0157072 -0.110931 0)
(-0.000901915 -0.0644866 0)
(-0.0111434 -0.119141 0)
(-0.00668605 -0.0658925 0)
(-0.00842654 -0.0956058 0)
(-1.10335e-05 -0.000615603 0)
(-0.00900201 -0.0372551 0)
(-0.0092183 -0.0261682 0)
(-0.00394333 -0.106077 0)
(-0.00329195 -0.065106 0)
(-0.000276143 -0.00657663 0)
(-0.0163149 -0.0870943 0)
(-2.41559e-05 -0.00115547 0)
(-4.24907e-05 -0.00196254 0)
(-0.00372066 -0.0376109 0)
(-0.0130738 -0.116791 0)
(-0.00643621 -0.0861628 0)
(-0.00130208 -0.0808752 0)
(-0.00978971 -0.117593 0)
(-0.00518529 -0.10569 0)
(-0.0165059 -0.0981981 0)
(-0.00811643 -0.118136 0)
(-4.5847e-06 -0.000268049 0)
(-0.00621529 -0.0955649 0)
(-0.00396402 -0.0650725 0)
(-0.0164246 -0.09687 0)
(-0.0130375 -0.0508121 0)
(-0.00689059 -0.11621 0)
(-0.0106106 -0.104653 0)
(-1.87916e-05 -0.000982447 0)
(-0.0102778 -0.058105 0)
(-0.0108818 -0.109854 0)
(-0.0135881 -0.0697006 0)
(-0.00634584 -0.0868577 0)
(-0.0124199 -0.0504657 0)
(-0.00396499 -0.0641657 0)
(-0.0081791 -0.0601348 0)
(-0.0120311 -0.111818 0)
(-0.0152757 -0.1046 0)
(-0.00713886 -0.109586 0)
(-0.00806518 -0.0595519 0)
(-0.0117991 -0.111931 0)
(-2.52172e-05 -0.00160204 0)
(-0.00417782 -0.099455 0)
(-0.0104187 -0.104801 0)
(-0.0147818 -0.0979569 0)
(-0.012507 -0.109974 0)
(-0.0167495 -0.117302 0)
(-0.00135521 -0.039107 0)
(-0.0164836 -0.0967466 0)
(-0.0102365 -0.0837605 0)
(-0.0163328 -0.0896507 0)
(-0.00151892 -0.0432916 0)
(-0.00335235 -0.0644815 0)
(-0.00758481 -0.09187 0)
(-0.016649 -0.107767 0)
(-0.0162936 -0.0841021 0)
(-0.00687253 -0.0809996 0)
(-0.00477091 -0.108894 0)
(-0.00568463 -0.0923604 0)
(-0.00850745 -0.0960888 0)
(-0.000696128 -0.0287367 0)
(-0.0111319 -0.10965 0)
(-0.00556286 -0.0726328 0)
(-0.00180729 -0.0365695 0)
(-0.0026454 -0.0748607 0)
(-0.00258296 -0.0752966 0)
(-0.0109301 -0.119031 0)
(-0.0148086 -0.0896988 0)
(-0.00654208 -0.0951728 0)
(-0.014988 -0.116828 0)
(-0.000546018 -0.0066582 0)
(-0.000376201 -0.0160432 0)
(-0.000366999 -0.0158078 0)
(-0.00809942 -0.118356 0)
(-0.0122365 -0.110912 0)
(-0.0113763 -0.112604 0)
(-0.0036567 -0.0157601 0)
(-2.35333e-06 -0.000135627 0)
(-0.00340645 -0.1081 0)
(-0.0164973 -0.0976495 0)
(-0.000351387 -0.0146019 0)
(-0.000338992 -0.0140305 0)
(-1.10499e-05 -0.000550429 0)
(-0.000373715 -0.0163067 0)
(-0.000364571 -0.0160638 0)
(-0.0166827 -0.111655 0)
(-0.0112626 -0.118731 0)
(-0.00490262 -0.067938 0)
(-9.60719e-06 -0.000571529 0)
(-0.0118658 -0.104487 0)
(-0.0166278 -0.106898 0)
(-3.47301e-05 -0.00154102 0)
(-0.00337364 -0.0148736 0)
(-0.00451251 -0.108732 0)
(-0.0161902 -0.0834599 0)
(-0.0122145 -0.111384 0)
(-0.0151875 -0.116889 0)
(-0.0100576 -0.107702 0)
(-0.00394648 -0.0510223 0)
(-0.00872645 -0.117976 0)
(-0.0119945 -0.104837 0)
(-0.00573178 -0.0955393 0)
(-0.0139915 -0.0982391 0)
(-0.00694231 -0.0801802 0)
(-0.0114256 -0.118869 0)
(-0.00925235 -0.0304308 0)
(-0.00997716 -0.0982201 0)
(-0.0107742 -0.103462 0)
(-0.0047659 -0.0687772 0)
(-5.18707e-06 -0.00026087 0)
(-0.00984518 -0.0732515 0)
(-0.00276076 -0.07049 0)
(-0.00124182 -0.0404224 0)
(-0.0164662 -0.09566 0)
(-0.00180496 -0.0957033 0)
(-0.000798378 -0.0304257 0)
(-0.000336411 -0.0137273 0)
(-0.0033249 -0.0660779 0)
(-0.000347348 -0.0140382 0)
(-0.00929852 -0.0291667 0)
(-0.00053408 -0.0025912 0)
(-0.0118358 -0.0921917 0)
(-0.000797252 -0.0309236 0)
(-0.0162338 -0.0800963 0)
(-0.0143575 -0.118535 0)
(-0.00713741 -0.0548106 0)
(-0.00301649 -0.0702967 0)
(-0.0086834 -0.112415 0)
(-0.000258542 -0.012736 0)
(-0.00607191 -0.104217 0)
(-0.0164636 -0.0955743 0)
(-0.000265172 -0.0129538 0)
(-0.0166209 -0.106008 0)
(-0.00121783 -0.0394622 0)
(-0.0128344 -0.116636 0)
(-1.48116e-05 -0.000778518 0)
(-0.00485644 -0.0822806 0)
(-0.00475197 -0.0695873 0)
(-0.00352265 -0.0495565 0)
(-0.0139398 -0.108479 0)
(-0.000262111 -0.00446704 0)
(-0.00494135 -0.106002 0)
(-0.00974339 -0.0894315 0)
(-0.0016214 -0.0955919 0)
(-0.000644239 -0.0321105 0)
(-0.00536167 -0.108709 0)
(-0.0162363 -0.0802561 0)
(-4.77609e-05 -0.00212219 0)
(-0.0125983 -0.0972739 0)
(-0.00285257 -0.0718877 0)
(-0.00842818 -0.0837135 0)
(-0.00295102 -0.0733468 0)
(-0.0091771 -0.0784517 0)
(-0.00127208 -0.0387957 0)
(-0.000316983 -0.00550508 0)
(-0.0104539 -0.109769 0)
(-0.00165105 -0.0625076 0)
(-0.00998687 -0.0976266 0)
(-0.00918815 -0.0775203 0)
(-0.00313423 -0.0148196 0)
(-0.0163212 -0.0878822 0)
(-0.0166586 -0.108352 0)
(-0.00199023 -0.0438169 0)
(-0.000164658 -0.0108865 0)
(-0.00855863 -0.0835427 0)
(-0.00188764 -0.0756641 0)
(-0.0155876 -0.088957 0)
(-0.0151537 -0.118394 0)
(-0.007357 -0.116104 0)
(-1.71556e-05 -0.00122227 0)
(-0.00771199 -0.109232 0)
(-0.00299677 -0.0693745 0)
(-0.0160729 -0.105837 0)
(-0.00183561 -0.0762856 0)
(-0.0156224 -0.10236 0)
(-0.000478364 -0.00212416 0)
(-0.0047521 -0.0835751 0)
(-0.00455277 -0.108237 0)
(-0.00372448 -0.065793 0)
(-0.00450828 -0.0912361 0)
(-0.0146812 -0.0984046 0)
(-4.34065e-05 -0.00172445 0)
(-0.0164283 -0.0978353 0)
(-0.0018707 -0.0158663 0)
(-0.0144594 -0.065552 0)
(-0.000221715 -0.01242 0)
(-0.0160533 -0.119703 0)
(-0.00137515 -0.0237742 0)
(-0.0101867 -0.0964505 0)
(-0.00571604 -0.0929306 0)
(-1.28008e-05 -0.000906276 0)
(-5.95134e-05 -0.00234522 0)
(-0.0141853 -0.0968749 0)
(-0.016232 -0.0907078 0)
(-0.00692599 -0.0719697 0)
(-0.00363175 -0.0654846 0)
(-0.0166016 -0.111807 0)
(-0.0162241 -0.0885382 0)
(-0.0102081 -0.115767 0)
(-0.00244488 -0.0991718 0)
(-0.000260835 -0.0125936 0)
(-0.00525224 -0.0680678 0)
(-0.0161708 -0.0813311 0)
(-0.00793656 -0.109335 0)
(-0.000269345 -0.0128879 0)
(-0.00284879 -0.0727798 0)
(-0.00745087 -0.0628829 0)
(-0.00635846 -0.099346 0)
(-0.0101647 -0.0970809 0)
(-0.0126086 -0.108111 0)
(-0.00891978 -0.107053 0)
(-0.00599604 -0.103855 0)
(-0.0143015 -0.0707418 0)
(-0.0166624 -0.115949 0)
(-0.00226952 -0.0477678 0)
(-0.00704616 -0.0718165 0)
(-0.00287704 -0.074595 0)
(-0.014537 -0.10855 0)
(-3.17836e-05 -0.00136904 0)
(-0.0167681 -0.116714 0)
(-0.014298 -0.069351 0)
(-0.00019856 -0.0159109 0)
(-0.00694851 -0.067363 0)
(-0.00837971 -0.108626 0)
(-0.000170549 -0.0112079 0)
(-0.00207683 -0.0915059 0)
(-0.000626906 -0.0285908 0)
(-0.01165 -0.112483 0)
(-0.00898735 -0.112436 0)
(-0.00557948 -0.0935052 0)
(-0.00721591 -0.0561388 0)
(-0.0147169 -0.112698 0)
(-0.000217129 -0.0125454 0)
(-0.00926115 -0.117545 0)
(-0.0124774 -0.110519 0)
(-0.000610783 -0.028245 0)
(-0.00217134 -0.0920006 0)
(-0.00452542 -0.0712839 0)
(-0.000201945 -0.0142673 0)
(-0.00100988 -0.0289491 0)
(-0.0158939 -0.119358 0)
(-0.000198574 -0.0141777 0)
(-0.00785111 -0.0810208 0)
(-0.00332076 -0.108555 0)
(-0.00617447 -0.102929 0)
(-0.00690681 -0.0785735 0)
(-0.0105423 -0.116859 0)
(-0.0159618 -0.0782919 0)
(-0.00805892 -0.078746 0)
(-0.0138269 -0.109031 0)
(-0.00551092 -0.0669644 0)
(-0.00593458 -0.102897 0)
(-0.0154928 -0.103774 0)
(-0.00167111 -0.0139919 0)
(-0.0125732 -0.0675002 0)
(-0.00932422 -0.0769648 0)
(-0.0035728 -0.0482241 0)
(-0.00203374 -0.027389 0)
(-0.00239124 -0.0492831 0)
(-0.00491645 -0.11621 0)
(-0.00543399 -0.105898 0)
(-0.00701274 -0.0696451 0)
(-0.00230813 -0.0497259 0)
(-0.00405181 -0.0617211 0)
(-0.0119192 -0.0986228 0)
(-0.0032417 -0.094209 0)
(-0.000234639 -0.0124045 0)
(-5.2591e-06 -0.0003068 0)
(-0.0155332 -0.0895544 0)
(-0.00826348 -0.108248 0)
(-0.00362305 -0.0508406 0)
(-0.00787379 -0.0801503 0)
(-0.00809502 -0.115326 0)
(-0.00309327 -0.105103 0)
(-2.62947e-05 -0.00189452 0)
(-0.0145466 -0.10347 0)
(-0.0160219 -0.105281 0)
(-0.000414543 -0.0199225 0)
(-0.000238362 -0.0123593 0)
(-0.00703175 -0.0920961 0)
(-0.0019177 -0.0257588 0)
(-0.000240964 -0.0126429 0)
(-0.00488253 -0.068742 0)
(-0.000245101 -0.0126167 0)
(-0.000406689 -0.0194423 0)
(-0.00932229 -0.118263 0)
(-0.00561233 -0.0678503 0)
(-0.00866168 -0.098276 0)
(-0.0162457 -0.080905 0)
(-0.012468 -0.0972201 0)
(-0.00187457 -0.0377724 0)
(-0.00883757 -0.0373576 0)
(-0.0110126 -0.116849 0)
(-0.00740299 -0.0920114 0)
(-0.0164459 -0.0942152 0)
(-0.000226514 -0.0124483 0)
(-0.0055322 -0.0314994 0)
(-0.000224007 -0.012986 0)
(-0.000369096 -0.016493 0)
(-0.00731921 -0.0820308 0)
(-0.00435368 -0.0716897 0)
(-0.00801782 -0.115043 0)
(-0.000538249 -0.0288072 0)
(-0.0162069 -0.0844692 0)
(-0.00543703 -0.0317177 0)
(-0.0133413 -0.0800533 0)
(-0.000559756 -0.0298233 0)
(-0.00548246 -0.0716775 0)
(-0.0103022 -0.107501 0)
(-0.00987011 -0.11571 0)
(-0.0074351 -0.0617933 0)
(-0.00250974 -0.106066 0)
(-0.00199801 -0.0393142 0)
(-0.000750314 -0.0104455 0)
(-0.00397518 -0.0606327 0)
(-0.00462803 -0.0715732 0)
(-0.00166855 -0.034104 0)
(-0.000807327 -0.00793473 0)
(-0.0163381 -0.0889801 0)
(-0.0067815 -0.116534 0)
(-0.00160053 -0.0328674 0)
(-0.00536625 -0.109108 0)
(-0.0154538 -0.0916996 0)
(-0.00119777 -0.0048257 0)
(-0.0124402 -0.0993008 0)
(-0.0152281 -0.0722888 0)
(-0.0110402 -0.117386 0)
(-0.0128223 -0.0675936 0)
(-0.0162336 -0.0879421 0)
(-0.000208046 -0.0155632 0)
(-0.000211759 -0.0156431 0)
(-0.0044516 -0.0720043 0)
(-2.32085e-05 -0.00164725 0)
(-0.000564296 -0.0303798 0)
(-0.00685135 -0.0794488 0)
(-0.0113338 -0.114759 0)
(-9.49785e-05 -0.00369129 0)
(-0.00656213 -0.0637689 0)
(-0.00689656 -0.073117 0)
(-0.0127768 -0.0615346 0)
(-0.00770763 -0.0941732 0)
(-0.0150759 -0.104707 0)
(-0.0137406 -0.0915396 0)
(-0.000710555 -0.0334733 0)
(-0.00293845 -0.0706946 0)
(-0.00458505 -0.0961561 0)
(-0.0084518 -0.101696 0)
(-0.00691259 -0.0693287 0)
(-0.00213392 -0.0997412 0)
(-0.0123546 -0.0896311 0)
(-0.00988086 -0.0890222 0)
(-0.00870402 -0.117226 0)
(-0.00214699 -0.0179132 0)
(-0.00834834 -0.102241 0)
(-0.0107612 -0.110418 0)
(-0.00132327 -0.0205146 0)
(-0.0162915 -0.084596 0)
(-0.000767295 -0.0104957 0)
(-0.000358752 -0.0161705 0)
(-0.0120481 -0.0988568 0)
(-0.000232865 -0.0127015 0)
(-0.00058055 -0.0072373 0)
(-0.0103046 -0.109427 0)
(-0.0162242 -0.0804295 0)
(-0.00274435 -0.108398 0)
(-0.00360999 -0.0360191 0)
(-0.0109636 -0.0536206 0)
(-0.000776906 -0.0348946 0)
(-0.0106584 -0.114327 0)
(-0.00731695 -0.112692 0)
(-0.00675986 -0.0680355 0)
(-0.00681193 -0.0654587 0)
(-0.00331334 -0.0330516 0)
(-0.0110227 -0.102232 0)
(-0.000896317 -0.0569013 0)
(-0.00208763 -0.0469254 0)
(-3.8051e-05 -0.00165544 0)
(-0.00331078 -0.0634726 0)
(-0.0035263 -0.0468029 0)
(-0.00182039 -0.0581315 0)
(-0.0110217 -0.0864222 0)
(-7.96451e-05 -0.00315725 0)
(-0.0136735 -0.0925493 0)
(-0.00122053 -0.0188876 0)
(-0.00424473 -0.0628179 0)
(-0.00934114 -0.0760212 0)
(-0.0158829 -0.118139 0)
(-0.000275168 -0.009045 0)
(-0.011805 -0.0614865 0)
(-0.00127824 -0.0408696 0)
(-0.0132902 -0.0792406 0)
(-0.0126963 -0.101483 0)
(-0.00570488 -0.0986581 0)
(-0.0107637 -0.104081 0)
(-0.00567456 -0.105581 0)
(-0.00898781 -0.0754673 0)
(-0.00475342 -0.0957915 0)
(-0.0163372 -0.0905844 0)
(-0.00990114 -0.118311 0)
(-0.0162433 -0.0807707 0)
(-0.00178144 -0.0410291 0)
(-0.00380094 -0.0594091 0)
(-0.000702526 -0.0337153 0)
(-0.0068556 -0.0454368 0)
(-0.0158707 -0.112641 0)
(-0.000262316 -0.0130737 0)
(-0.00121165 -0.0765811 0)
(-0.0103604 -0.0831329 0)
(-0.0163697 -0.0984076 0)
(-0.00594284 -0.104733 0)
(-0.012516 -0.0500936 0)
(-0.0134402 -0.119787 0)
(-0.00156091 -0.0327321 0)
(-0.0150029 -0.0743871 0)
(-0.000148495 -0.00382798 0)
(-0.00104938 -0.040151 0)
(-0.016391 -0.0985765 0)
(-0.000230874 -0.0124451 0)
(-0.0158633 -0.0954477 0)
(-4.58254e-06 -0.000261447 0)
(-0.00086795 -0.00358924 0)
(-0.00387548 -0.0605018 0)
(-0.0150699 -0.103968 0)
(-0.0017693 -0.0579042 0)
(-0.000318232 -0.0123706 0)
(-0.0150719 -0.0965781 0)
(-0.0123068 -0.0991543 0)
(-0.000955114 -0.0683878 0)
(-0.0157099 -0.110074 0)
(-0.0162873 -0.0856139 0)
(-0.0106609 -0.117498 0)
(-0.000264263 -0.00859897 0)
(-0.0165427 -0.100642 0)
(-1.09891e-05 -0.000625369 0)
(-0.00594488 -0.116217 0)
(-0.000978177 -0.0645833 0)
(-0.00103295 -0.0405313 0)
(-0.000181339 -0.0119124 0)
(-1.11685e-05 -0.000614947 0)
(-0.0123011 -0.0890934 0)
(-0.0123596 -0.0489741 0)
(-0.0002373 -0.0126954 0)
(-0.00015029 -0.00375268 0)
(-0.000546229 -0.0031077 0)
(-0.0156423 -0.109677 0)
(-0.00423128 -0.0402642 0)
(-0.0146054 -0.0843713 0)
(-0.00643683 -0.0629545 0)
(-0.000301429 -0.0117729 0)
(-3.02056e-05 -0.00143341 0)
(-0.00982076 -0.11171 0)
(-0.0126863 -0.115672 0)
(-0.0138536 -0.119696 0)
(-0.0139321 -0.0975027 0)
(-0.0111253 -0.0856803 0)
(-0.0134816 -0.113361 0)
(-0.0166132 -0.105999 0)
(-0.00102429 -0.0297748 0)
(-0.0107489 -0.115229 0)
(-0.000541173 -0.00299 0)
(-0.0155164 -0.0759526 0)
(-0.00679914 -0.0462298 0)
(-0.0148422 -0.112191 0)
(-0.00340713 -0.0455362 0)
(-0.00185766 -0.0590302 0)
(-0.00926641 -0.038764 0)
(-0.000970757 -0.0678119 0)
(-0.0120783 -0.0914122 0)
(-0.0154087 -0.115176 0)
(-9.31517e-05 -0.00341483 0)
(-0.0118454 -0.0911828 0)
(-0.00179676 -0.0465358 0)
(-7.74126e-06 -0.00042694 0)
(-0.0165972 -0.116494 0)
(-0.00496501 -0.104952 0)
(-0.00172694 -0.0472683 0)
(-0.01258 -0.108761 0)
(-0.00341269 -0.0158254 0)
(-0.000988663 -0.0380565 0)
(-7.98953e-06 -0.000446733 0)
(-0.0165403 -0.116135 0)
(-0.00423865 -0.0395276 0)
(-0.00275845 -0.0713234 0)
(-0.000254964 -0.0127984 0)
(-0.00173678 -0.0467008 0)
(-0.0144102 -0.108708 0)
(-1.06362e-05 -0.000590936 0)
(-0.0131165 -0.107403 0)
(-7.79229e-05 -0.00242359 0)
(-0.00140697 -0.0233812 0)
(-0.0058092 -0.11652 0)
(-0.0146571 -0.0849635 0)
(-0.00666986 -0.067124 0)
(-0.0162464 -0.0809364 0)
(-0.0158459 -0.0945798 0)
(-0.00329306 -0.0926001 0)
(-0.0105172 -0.110581 0)
(-0.00149429 -0.0315021 0)
(-0.00465791 -0.084765 0)
(-0.0159379 -0.118448 0)
(-0.0159952 -0.0861548 0)
(-0.00715819 -0.0914195 0)
(-0.00752026 -0.0826158 0)
(-0.00183966 -0.0595824 0)
(-9.33664e-05 -0.00286399 0)
(-0.00265234 -0.0503461 0)
(-1.64831e-05 -0.00118477 0)
(-0.0125471 -0.102901 0)
(-0.0097048 -0.0828821 0)
(-0.00817646 -0.117409 0)
(-0.0121869 -0.0915703 0)
(-0.0029402 -0.0938054 0)
(-0.00736637 -0.113031 0)
(-0.00169338 -0.0631167 0)
(-0.0106665 -0.0948241 0)
(-0.0127245 -0.10959 0)
(-0.0166327 -0.106928 0)
(-0.00130923 -0.0392299 0)
(-0.00194065 -0.0642983 0)
(-1.20583e-05 -0.000870781 0)
(-0.00143308 -0.0233602 0)
(-0.000114255 -0.00379794 0)
(-2.85832e-05 -0.00137915 0)
(-0.000766494 -0.03513 0)
(-0.000627397 -0.00705052 0)
(-0.0165528 -0.101338 0)
(-0.0140394 -0.0648696 0)
(-0.000369624 -0.00779627 0)
(-0.014627 -0.0975801 0)
(-0.000103228 -0.00374716 0)
(-0.0150869 -0.118124 0)
(-0.00118316 -0.0390203 0)
(-0.00215423 -0.0463788 0)
(-0.0162309 -0.0806641 0)
(-0.0128251 -0.100007 0)
(-0.000330686 -0.0260431 0)
(-0.00965966 -0.044824 0)
(-0.00018108 -0.0111842 0)
(-0.00188119 -0.0441016 0)
(-0.0105445 -0.05003 0)
(-0.0122923 -0.079006 0)
(-0.00328377 -0.0492508 0)
(-0.0163741 -0.0894105 0)
(-0.00970267 -0.0917745 0)
(-0.000906216 -0.059378 0)
(-0.000331631 -0.0256543 0)
(-0.00191152 -0.0637103 0)
(-0.0162731 -0.0845777 0)
(-0.0109186 -0.0549561 0)
(-0.000202044 -0.00462948 0)
(-0.00178743 -0.0471008 0)
(-0.0164752 -0.0964441 0)
(-0.00300868 -0.108688 0)
(-0.0102043 -0.084767 0)
(-0.0164315 -0.0932427 0)
(-0.00118211 -0.0747369 0)
(-0.00146676 -0.0251796 0)
(-0.00204394 -0.044963 0)
(-0.00716154 -0.0822547 0)
(-0.0162415 -0.0899471 0)
(-0.000359767 -0.0263009 0)
(-0.0119462 -0.0923703 0)
(-0.0104356 -0.0500926 0)
(-0.0117602 -0.0627988 0)
(-0.0155516 -0.0752253 0)
(-0.00307249 -0.0689685 0)
(-0.0127954 -0.10766 0)
(-0.0140225 -0.0665366 0)
(-0.00667687 -0.0723663 0)
(-0.00946902 -0.0678878 0)
(-0.000206476 -0.00466295 0)
(-0.0122071 -0.079018 0)
(-0.0028443 -0.0701525 0)
(-0.0159864 -0.0785902 0)
(-0.00822031 -0.0848896 0)
(-0.000878396 -0.0384434 0)
(-0.0164002 -0.0911448 0)
(-3.24522e-05 -0.00217154 0)
(-0.00122779 -0.0753891 0)
(-0.00760887 -0.0816707 0)
(-0.00502642 -0.0894981 0)
(-0.0108104 -0.0810699 0)
(-0.0159695 -0.0864755 0)
(-8.01217e-05 -0.00273745 0)
(-0.0149487 -0.0723412 0)
(-0.0128708 -0.115389 0)
(-1.46365e-05 -0.00116286 0)
(-0.00709807 -0.045143 0)
(-0.00836075 -0.0847138 0)
(-0.000457816 -0.00520911 0)
(-0.00595689 -0.0396053 0)
(-0.00922287 -0.0355701 0)
(-0.00345781 -0.0805777 0)
(-0.000543955 -0.0293724 0)
(-0.0098722 -0.111321 0)
(-0.0129534 -0.107887 0)
(-0.00139339 -0.0301627 0)
(-0.0160246 -0.0803294 0)
(-0.0129542 -0.0537679 0)
(-0.0127602 -0.0630247 0)
(-0.0127544 -0.108979 0)
(-0.00522864 -0.06899 0)
(-0.0149727 -0.0756043 0)
(-0.00444903 -0.106082 0)
(-0.000284275 -0.0103565 0)
(-0.0129435 -0.0994116 0)
(-0.00996481 -0.106306 0)
(-0.0139403 -0.0674868 0)
(-0.00240171 -0.0447092 0)
(-0.00178182 -0.0354575 0)
(-0.00258934 -0.0498508 0)
(-0.016634 -0.106736 0)
(-0.00933009 -0.0657717 0)
(-0.00113781 -0.0390844 0)
(-0.0143831 -0.0666505 0)
(-0.00337866 -0.0505046 0)
(-0.00195742 -0.0400377 0)
(-0.0115816 -0.108509 0)
(-0.00469165 -0.105776 0)
(-0.00304457 -0.0804265 0)
(-0.00297639 -0.105561 0)
(-0.00650623 -0.0988104 0)
(-0.0161489 -0.0792283 0)
(-0.00928839 -0.0343107 0)
(-0.00344476 -0.0734132 0)
(-0.0142174 -0.11236 0)
(-0.00100294 -0.0400593 0)
(-0.00118616 -0.0508951 0)
(-5.91829e-05 -0.00230417 0)
(-0.000120715 -0.00391772 0)
(-0.0094232 -0.047659 0)
(-0.007997 -0.085981 0)
(-0.00567829 -0.0992118 0)
(-0.00234223 -0.0440454 0)
(-0.0001506 -0.0106182 0)
(-0.00303414 -0.0607374 0)
(-0.00102093 -0.0651686 0)
(-0.00773328 -0.0816877 0)
(-0.0128579 -0.0661111 0)
(-0.000228046 -0.0126754 0)
(-0.013935 -0.0991959 0)
(-0.00488016 -0.0830454 0)
(-0.0116864 -0.116471 0)
(-0.00301373 -0.0810769 0)
(-4.40334e-05 -0.00170156 0)
(-0.0154546 -0.118392 0)
(-0.00937392 -0.0693964 0)
(-0.0164818 -0.096675 0)
(-0.0123286 -0.0456415 0)
(-0.0027147 -0.0821555 0)
(-0.00324442 -0.0690018 0)
(-0.00158834 -0.0382627 0)
(-0.00697175 -0.0437274 0)
(-0.0164578 -0.103077 0)
(-0.0120181 -0.0802684 0)
(-0.00322395 -0.0931686 0)
(-0.00287993 -0.104748 0)
(-0.00580304 -0.0383682 0)
(-0.0139285 -0.0689665 0)
(-6.9808e-06 -0.000414345 0)
(-0.00124709 -0.0481236 0)
(-0.000861703 -0.0549946 0)
(-9.62299e-06 -0.000574416 0)
(-0.00930601 -0.118038 0)
(-0.0119675 -0.0598308 0)
(-0.00269529 -0.0827391 0)
(-0.0142583 -0.10271 0)
(-0.00182804 -0.0730927 0)
(-0.000489884 -0.0179442 0)
(-0.000158703 -0.00473994 0)
(-0.00875063 -0.107584 0)
(-0.00145823 -0.0313994 0)
(-0.0063297 -0.0645092 0)
(-0.00822435 -0.0773348 0)
(-0.00363213 -0.0581371 0)
(-0.0143755 -0.0682318 0)
(-0.000469221 -0.0172139 0)
(-0.00451697 -0.100583 0)
(-0.00654804 -0.0725736 0)
(-0.0167332 -0.113646 0)
(-0.0164541 -0.0948108 0)
(-0.00200281 -0.0768752 0)
(-0.0161883 -0.0824076 0)
(-0.00269456 -0.106413 0)
(-0.0167447 -0.114224 0)
(-0.00182103 -0.0750316 0)
(-0.00120111 -0.0226827 0)
(-0.000945238 -0.0368657 0)
(-0.00813378 -0.0475712 0)
(-0.00876494 -0.0719523 0)
(-0.00342965 -0.0346581 0)
(-0.0121263 -0.0802309 0)
(-0.00459122 -0.0472451 0)
(-0.00330993 -0.0946709 0)
(-0.00644201 -0.0653692 0)
(-0.015895 -0.105304 0)
(-0.00929029 -0.0644773 0)
(-0.0138104 -0.0596068 0)
(-0.00846036 -0.10639 0)
(-0.00168951 -0.0413189 0)
(-0.0083593 -0.0980905 0)
(-0.00930709 -0.0701173 0)
(-0.00112717 -0.041955 0)
(-0.01139 -0.0786219 0)
(-0.000210769 -0.0122765 0)
(-0.0162104 -0.0800844 0)
(-0.0125474 -0.103667 0)
(-0.000135583 -0.00958953 0)
(-0.00193603 -0.0435462 0)
(-0.00676132 -0.018295 0)
(-0.00378569 -0.0650001 0)
(-0.00307727 -0.0617521 0)
(-0.00921939 -0.117287 0)
(-0.00130629 -0.0239918 0)
(-0.00520247 -0.105148 0)
(-0.00335593 -0.0441744 0)
(-0.000207236 -0.0158762 0)
(-0.00458678 -0.0809743 0)
(-0.00412569 -0.0500102 0)
(-0.0149935 -0.0728554 0)
(-0.00127685 -0.0510874 0)
(-0.00138682 -0.0252923 0)
(-0.000322933 -0.0251627 0)
(-0.0111582 -0.115107 0)
(-0.0064811 -0.0819994 0)
(-0.0141238 -0.097878 0)
(-0.00135567 -0.030999 0)
(-0.00547106 -0.104785 0)
(-0.000198801 -0.0120251 0)
(-0.00316912 -0.0621124 0)
(-0.0167053 -0.116174 0)
(-0.00013007 -0.003908 0)
(-0.0102402 -0.0603918 0)
(-0.0145218 -0.0979475 0)
(-0.0167302 -0.11539 0)
(-0.000198714 -0.0121633 0)
(-0.00164903 -0.0743771 0)
(-0.0142302 -0.112926 0)
(-0.000658787 -0.0297177 0)
(-0.00385726 -0.0710846 0)
(-0.00370544 -0.0592574 0)
(-0.0159463 -0.105844 0)
(-0.00636838 -0.0196234 0)
(-0.0151264 -0.0972445 0)
(-0.00842322 -0.0549558 0)
(-0.0162774 -0.0837048 0)
(-0.00472364 -0.0820808 0)
(-0.00617617 -0.112824 0)
(-0.00237183 -0.0500681 0)
(-0.000155589 -0.00884882 0)
(-0.000199277 -0.0144014 0)
(-0.000597985 -0.00597645 0)
(-2.81932e-05 -0.00187722 0)
(-0.0163225 -0.0903522 0)
(-0.00747405 -0.0776643 0)
(-0.00207472 -0.0300209 0)
(-0.00166214 -0.0768427 0)
(-0.000640379 -0.0293118 0)
(-0.000918828 -0.0364823 0)
(-0.0126928 -0.102359 0)
(-0.00795239 -0.0781936 0)
(-0.0158211 -0.113272 0)
(-0.00875467 -0.0975828 0)
(-0.0151919 -0.0749013 0)
(-0.0103457 -0.110297 0)
(-0.0116436 -0.0631328 0)
(-0.0163456 -0.0885462 0)
(-0.00659741 -0.074429 0)
(-0.0128287 -0.100905 0)
(-0.00603339 -0.0313091 0)
(-0.0163345 -0.0868357 0)
(-0.000210785 -0.0159305 0)
(-0.00996402 -0.0432869 0)
(-0.00020493 -0.012309 0)
(-0.00112694 -0.0406975 0)
(-0.00686933 -0.06809 0)
(-0.000204883 -0.012164 0)
(-0.000543873 -0.0233066 0)
(-0.000866577 -0.0319823 0)
(-0.00689091 -0.0413492 0)
(-0.0107988 -0.087879 0)
(-0.000265039 -0.00970459 0)
(-0.00751306 -0.076679 0)
(-0.0145268 -0.0918907 0)
(-0.0103316 -0.117911 0)
(-0.0118651 -0.11671 0)
(-0.0144624 -0.0971003 0)
(-0.00387828 -0.0654009 0)
(-0.000203534 -0.0147411 0)
(-0.00423696 -0.0433565 0)
(-0.0143776 -0.111875 0)
(-0.000866446 -0.0562474 0)
(-0.0162574 -0.0816689 0)
(-0.000325102 -0.0152134 0)
(-0.00127626 -0.023937 0)
(-0.00143655 -0.00948287 0)
(-0.00554024 -0.0637957 0)
(-0.000316786 -0.014778 0)
(-0.000230635 -0.0132589 0)
(-0.00493223 -0.0418221 0)
(-0.010647 -0.0955732 0)
(-0.00211758 -0.0300705 0)
(-0.0147767 -0.119565 0)
(-0.00171781 -0.076254 0)
(-0.00239133 -0.0376272 0)
(-0.0164369 -0.103204 0)
(-0.00622926 -0.0318533 0)
(-0.00245617 -0.0497579 0)
(-0.00122087 -0.0491091 0)
(-0.016447 -0.116507 0)
(-0.0081066 -0.102462 0)
(-2.80719e-05 -0.00139574 0)
(-0.000339377 -0.0265431 0)
(-0.00158278 -0.0428736 0)
(-0.0022579 -0.0486113 0)
(-0.0160645 -0.0821389 0)
(-0.000960827 -0.0376554 0)
(-0.00364453 -0.105255 0)
(-0.0103672 -0.0607571 0)
(-0.00256273 -0.0829754 0)
(-0.00192903 -0.0380173 0)
(-0.000754614 -0.0297147 0)
(-0.00767286 -0.0923068 0)
(-0.00192529 -0.0730431 0)
(-0.00901854 -0.0745338 0)
(-0.0166054 -0.105934 0)
(-0.00135516 -0.0532998 0)
(-0.000335255 -0.00494268 0)
(-0.00378896 -0.0716179 0)
(-0.00698201 -0.0209726 0)
(-0.00171019 -0.034218 0)
(-0.0152049 -0.0874628 0)
(-0.0140755 -0.0611962 0)
(-0.0096122 -0.082562 0)
(-0.0164705 -0.096314 0)
(-0.0146519 -0.11944 0)
(-0.00195349 -0.0723557 0)
(-0.0152635 -0.0879503 0)
(-0.000822321 -0.0308127 0)
(-0.0163693 -0.0892666 0)
(-0.00071642 -0.0286209 0)
(-0.00709818 -0.115539 0)
(-0.0109855 -0.102919 0)
(-0.0126668 -0.0668858 0)
(-0.00886407 -0.0735296 0)
(-0.00566529 -0.113332 0)
(-0.00245658 -0.108565 0)
(-0.01615 -0.0842471 0)
(-0.000178828 -0.0114141 0)
(-0.000954737 -0.0660764 0)
(-0.000211127 -0.0124417 0)
(-0.00465718 -0.0470148 0)
(-0.0141387 -0.0619657 0)
(-0.00645705 -0.0717287 0)
(-0.00828988 -0.0546204 0)
(-0.00655038 -0.10949 0)
(-0.0166979 -0.111454 0)
(-0.000736076 -0.0294372 0)
(-0.0134157 -0.0534371 0)
(-0.0166039 -0.105116 0)
(-5.14245e-06 -0.000294086 0)
(-0.000279278 -0.0130953 0)
(-0.00115017 -0.0771177 0)
(-0.0144007 -0.117734 0)
(-0.00877058 -0.0707897 0)
(-9.11038e-06 -0.000519358 0)
(-0.0120495 -0.0746314 0)
(-0.00863409 -0.0389073 0)
(-0.00214641 -0.0472264 0)
(-0.00336458 -0.0802091 0)
(-0.00614648 -0.0848136 0)
(-0.0080194 -0.046197 0)
(-0.000818113 -0.0598099 0)
(-0.000185103 -0.0117431 0)
(-0.000453225 -0.0272579 0)
(-0.000889126 -0.0556618 0)
(-0.00135639 -0.0526719 0)
(-0.0163857 -0.0902607 0)
(-0.00978868 -0.0448335 0)
(-0.00915856 -0.064123 0)
(-0.000205702 -0.0138071 0)
(-0.0167064 -0.117054 0)
(-0.000198846 -0.0138976 0)
(-0.00017529 -0.0115881 0)
(-0.00707526 -0.0927647 0)
(-0.0106618 -0.0369457 0)
(-0.0103786 -0.0619463 0)
(-0.000192775 -0.0118785 0)
(-0.0112769 -0.116522 0)
(-0.000864327 -0.0386712 0)
(-0.00348131 -0.0658181 0)
(-0.0138714 -0.0893232 0)
(-0.00367784 -0.0493329 0)
(-1.20533e-05 -0.000947924 0)
(-0.0137145 -0.0996757 0)
(-0.0154069 -0.0910059 0)
(-0.0149539 -0.0705622 0)
(-0.0109123 -0.113176 0)
(-0.000369173 -0.0267884 0)
(-0.00839756 -0.114753 0)
(-0.0165283 -0.10427 0)
(-0.00017389 -0.00266805 0)
(-0.0112195 -0.11308 0)
(-0.000288148 -0.0135396 0)
(-0.0108729 -0.101993 0)
(-0.0116583 -0.104946 0)
(-0.00081349 -0.0549014 0)
(-0.0112084 -0.0741453 0)
(-0.00107987 -0.0405974 0)
(-0.0104889 -0.0813049 0)
(-0.0030403 -0.0942604 0)
(-0.00705294 -0.0784135 0)
(-0.0101691 -0.117125 0)
(-0.0114711 -0.0917608 0)
(-0.0100722 -0.106719 0)
(-0.0082314 -0.116089 0)
(-0.00013144 -0.00431726 0)
(-0.0154838 -0.0784707 0)
(-0.00803044 -0.0796757 0)
(-0.00564897 -0.0647362 0)
(-0.00163406 -0.0566352 0)
(-0.000449781 -0.0267686 0)
(-0.00017039 -0.00979651 0)
(-0.00120925 -0.0275535 0)
(-0.00896054 -0.0737485 0)
(-0.0161708 -0.0843858 0)
(-0.00212576 -0.0317438 0)
(-0.00733265 -0.0779446 0)
(-0.0123987 -0.0469154 0)
(-0.00672849 -0.0742915 0)
(-0.00698571 -0.0581367 0)
(-0.00881463 -0.106661 0)
(-0.0151338 -0.0726705 0)
(-0.00357359 -0.0661713 0)
(-0.0018334 -0.0421567 0)
(-0.00471304 -0.100288 0)
(-0.000209354 -0.0139239 0)
(-0.00472509 -0.0896682 0)
(-0.016339 -0.0883685 0)
(-0.00951297 -0.0516409 0)
(-0.006407 -0.0249282 0)
(-0.00282146 -0.107951 0)
(-0.00117175 -0.0395451 0)
(-0.00728818 -0.0788917 0)
(-0.0165187 -0.10495 0)
(-0.0163716 -0.0893433 0)
(-0.0034861 -0.0782545 0)
(-0.0105439 -0.102174 0)
(-0.00679701 -0.0868167 0)
(-0.0164231 -0.0926587 0)