/*--------------------------------*- C++ -*----------------------------------*\
| =========                 |                                                 |
| \\      /  F ield         | OpenFOAM: The Open Source CFD Toolbox           |
|  \\    /   O peration     | Version:  v2012                                 |
|   \\  /    A nd           | Website:  www.openfoam.com                      |
|    \\/     M anipulation  |                                                 |
\*---------------------------------------------------------------------------*/
FoamFile
{
    version     2.0;
    format      ascii;
    class       volScalarField;
    location    "150";
    object      omega;
}
// * * * * * * * * * * * * * * * * * * * * * * * * * * * * * * * * * * * * * //

dimensions      [0 0 -1 0 0 0 0];


internalField   nonuniform List<scalar> 
13917
(
0.0415181
0.0222711
1.81279
0.0232366
0.0221111
0.448028
1.48535
2.47372
5.10369
0.0650967
0.317356
0.0977656
0.0233069
11.0311
0.0264191
0.0253227
0.022422
0.0796989
0.0951369
0.0221111
0.0222663
1.47002
0.0220885
2.21585
0.0220319
1.1511
0.041706
0.05328
0.500235
0.129071
0.0453222
0.0287518
0.0358609
0.0258457
0.0220437
0.546624
0.0220974
5.31665
0.0250781
5.69762
0.0218909
0.0222856
0.0215813
0.0796102
0.022107
0.027561
0.078531
0.127828
2.71473
0.022017
0.0284817
0.0223832
3.00847
0.0261159
0.0224372
0.028505
0.3181
0.0221027
0.0256679
0.022065
10.0974
0.0222742
22.8271
0.0220994
0.418237
3.67304
0.0221106
0.0220455
0.419333
0.0369434
0.0221187
5.01148
5.91704
0.022032
3.0411
0.118205
6.88783
0.0228278
1.05573
0.0222359
0.0222031
0.022118
0.377729
5.13932
7.98944
0.0227117
0.0221781
2.35498
0.0279686
0.0215701
5.63181
0.089551
0.0219265
0.0231443
3.10987
0.400267
0.26058
0.109724
0.236254
0.111627
0.0218269
0.0328633
0.081775
0.0232826
0.0218204
5.06319
0.319731
0.13965
0.0224252
0.0479403
6.46212
5.38492
0.13823
5.05842
0.0230195
3.03208
0.0220145
1.58233
4.34401
0.0261437
0.0222735
0.416186
4.69145
0.0502672
0.0219719
0.0229748
0.0220857
0.0219789
0.0216096
0.434696
3.56682
0.0229163
0.0221347
0.0222739
5.03618
2.08669
0.0420705
0.114366
0.0221035
0.0259583
0.513581
0.0217946
0.0226549
0.0959947
0.0220462
4.80728
0.517255
0.0223367
0.0217657
0.0293668
0.0872567
3.06588
0.157199
0.0409302
0.0283107
9.3998
0.0353552
1.66152
10.033
5.07784
0.0244017
0.0422408
0.0222356
0.246633
0.135608
0.232378
0.023238
0.0974963
0.0219407
0.0337363
0.0415729
11.2646
0.151755
0.0227721
4.40483
0.0443159
3.2242
1.84852
4.70293
0.0219697
0.0976096
0.0476523
0.0217876
0.0221688
0.0301411
1.00727
0.266826
12.7861
0.0450708
0.220697
0.590269
8.4627
0.207345
0.0220997
0.120842
0.0407542
0.0222744
0.0219357
0.171182
1.72205
0.0269582
0.0220326
0.0868447
0.0861207
6.38594
4.67443
0.0220425
0.0221198
0.107886
1.11545
0.0225493
1.65312
8.93969
0.221868
0.0218279
0.473454
0.0868814
9.61556
0.0219943
10.262
0.0219623
0.133347
0.0218871
5.45548
5.11453
0.0256485
0.75099
0.0287835
0.0218296
0.536179
0.147792
0.0444918
1.63468
12.8549
0.0217852
0.029389
5.56325
6.46187
0.0222276
0.0219523
4.34584
0.304096
0.0222667
0.455382
0.196497
0.0412931
0.0392472
0.0222276
0.0440441
9.30964
0.0218941
0.111114
0.13884
0.0220572
0.0220909
0.113035
2.17435
0.145376
0.0304399
0.0265539
0.0222712
6.33969
5.34179
0.458722
0.0218375
6.47918
7.13153
1.94923
1.07587
0.12896
0.0222138
0.0219325
0.0799189
5.70848
0.278889
0.0252934
4.72619
0.051177
0.0216008
5.53488
0.0220875
4.39441
0.0262755
0.022262
0.0275832
0.0405784
0.0425915
0.470725
0.0325992
0.0220254
5.18524
1.74445
5.39659
0.021994
3.19918
0.0221767
0.0220162
0.0220186
0.773515
0.022105
0.146713
0.0378332
0.02192
0.0870346
0.0232843
2.33237
0.0434786
0.0856529
0.0218247
0.0220787
6.80325
5.56363
0.0220108
0.021909
5.57418
0.0219498
5.74
0.0218208
5.42592
0.0222404
0.254704
0.040198
3.14902
0.0240735
5.09391
0.263847
0.0276131
0.306056
0.361439
0.0223693
4.55037
0.1283
6.46237
0.0249496
5.00816
0.0303893
6.20987
0.23725
0.0930786
0.0917983
1.93004
0.022216
0.0429984
6.16911
0.0222508
0.0236947
6.39918
0.2273
0.0226812
0.548075
0.489708
0.0218641
4.50388
0.550949
0.0220806
0.021908
0.0221849
0.0217599
5.12859
4.59898
0.689384
6.36865
0.0220235
0.119061
6.70845
0.057917
1.63302
5.58034
5.11304
0.0217804
0.438897
0.0218874
10.0798
0.0220626
3.9044
0.19454
0.0245587
0.0221976
0.0974296
0.105444
0.132316
10.8963
6.46972
14.0812
0.0456472
0.0615883
0.0219585
6.78015
1.40625
0.0221245
5.09135
0.0220436
4.59149
0.0222425
0.0222261
0.0233505
0.986197
0.0233082
1.99303
15.4517
0.276489
0.470422
0.0223607
0.405893
0.398496
0.0220339
0.2233
0.0222334
0.0220352
0.124193
0.0222616
0.022036
0.0218831
5.11273
0.0222471
4.46437
0.855257
5.68296
0.196835
1.98029
9.38086
0.0567599
0.0220258
0.375413
0.0248567
0.0310317
0.0220919
4.69417
1.25868
0.806232
0.0252039
0.239471
0.0246813
0.0256169
0.13261
0.0231283
0.438049
0.0224071
0.0220958
5.62713
3.24448
3.00326
0.102321
6.19521
4.31769
5.78392
6.85625
0.0216442
0.0927496
0.0231835
0.0221501
4.71099
0.0810245
0.021894
0.0890935
0.0529805
6.86379
0.0220301
0.265002
22.3248
0.377285
3.28032
0.0222546
0.0221322
0.0222429
0.0355431
0.0217838
0.916316
0.546853
0.0324546
6.84421
0.0283852
0.246423
5.68868
0.518141
0.261541
0.530275
0.263592
0.0805396
0.370202
0.0548541
0.290479
0.418967
0.0638465
0.161843
0.0219015
4.93027
0.0298649
0.0216515
0.0341259
0.0229517
6.40794
5.04735
0.0219402
0.0216235
0.948661
13.0653
0.0222618
4.88149
0.0227907
0.166754
0.0219602
6.90659
4.09184
0.029276
0.0223839
1.70965
0.21925
7.49796
0.0222693
8.55926
2.36141
5.69872
0.0216626
7.51687
5.46739
0.0580339
0.0219007
0.0224051
0.117907
4.64046
0.0218206
0.021912
0.0219569
0.0219513
7.23974
4.7305
0.0565543
0.278263
0.0219478
0.0218331
0.237538
5.43518
0.0387165
0.0219536
0.0220331
0.0220697
5.61697
8.95583
0.0221725
0.0220673
0.435305
0.0548593
0.0401667
0.0221222
0.023451
0.0274994
0.159733
0.266485
0.282947
0.381936
0.215258
4.66257
0.0854521
0.0219998
7.91008
0.0220745
0.0239733
0.024339
4.89275
0.0682833
0.0218354
0.377395
0.153038
25.465
0.217953
0.0353884
0.0566788
0.0221891
5.37246
0.272378
3.31928
0.0223135
0.0329432
0.304703
5.5619
32.1739
0.121001
0.112424
0.0252308
0.0244786
0.0221263
0.0527426
0.0841021
0.0221632
0.0857759
0.141951
3.31635
6.64154
0.0243231
0.239224
3.86783
0.0287897
0.0224591
3.75057
5.05872
4.70422
0.306176
0.0216266
4.93947
0.114146
0.0218596
0.0346457
0.138932
0.0344009
0.127581
1.09073
0.363065
0.0462633
5.35839
0.0233188
8.56065
0.0222364
0.0221657
3.22408
5.04831
0.561045
0.0233134
0.0227037
0.0220699
0.0523949
3.98543
0.215293
0.0247547
0.240537
0.0965377
0.0219658
0.780576
0.207849
0.431723
0.0219821
0.367019
0.0229217
19.2643
0.0675794
0.0680189
0.0332933
0.0218826
0.0216826
0.0221192
0.0993679
0.0279676
3.14904
6.67508
0.0970706
0.0218723
0.372427
0.586227
0.592926
0.0218769
0.0272016
0.0219197
0.0301865
0.0259105
5.46674
0.0222278
1.32876
0.030033
0.314478
0.0868272
5.95213
0.0701641
0.0223572
5.80724
27.8803
0.0221039
0.0242052
4.25976
0.246171
0.278858
0.0222376
0.0224179
0.209183
0.0247135
0.1296
0.103248
0.0216834
0.0850723
1.87832
0.0218535
0.0227591
0.0219766
5.11318
0.0222652
0.0249264
10.374
0.023527
5.00806
0.0283167
0.0366683
0.0219692
0.0489245
0.0220249
0.0748169
0.0218868
0.0750046
0.0227929
22.3049
2.8154
5.44136
0.0221303
0.0222058
0.0810292
0.052703
5.73783
5.28067
0.0779366
0.0220417
5.00897
0.686511
0.430208
1.04105
0.0741635
0.989619
0.0405212
0.0478521
0.302457
0.155703
0.0758844
1.00686
0.0729381
0.0233553
0.151858
0.0277683
0.0217267
0.029914
0.048197
0.0285445
0.0220326
0.0219194
0.0972827
0.0234316
0.131125
0.0220419
0.0220572
0.0222731
0.0233343
0.0215247
0.0263978
0.0219967
7.14341
0.0940454
0.431324
0.0218047
0.0222465
0.0472027
0.0829744
0.0227224
5.49851
0.0730788
9.60691
0.0301373
0.286179
0.0224445
0.0222683
0.0219343
0.0233104
10.7541
0.0222545
4.69521
0.0266788
6.33737
0.0474332
0.0745789
0.302877
0.0216932
0.0222909
0.0966259
0.0220506
0.0225078
5.39783
0.0228616
0.0221839
0.0297975
0.0219449
0.0216917
0.0287863
0.0285003
6.64722
0.0363952
0.0218504
0.0218724
5.45698
0.09757
0.022285
0.0223162
5.4562
4.13619
13.2128
0.0352815
0.0233954
0.0217958
0.0216707
0.0658105
0.0378465
0.535544
0.0253418
4.83836
0.022389
0.0238107
14.2925
0.0220488
0.0300663
0.0220494
0.0220795
0.0461349
0.0433884
0.0225366
5.00428
2.86795
0.0914915
0.0219994
0.021584
0.212576
4.70486
0.0222612
4.54989
0.0215851
0.0455415
0.0216843
0.0217695
4.72261
0.0219969
0.596518
0.0447722
0.0222729
0.0216193
0.0220739
0.0219399
0.0226884
4.09104
0.0218305
0.0217781
4.96522
4.90719
0.0486259
0.0505918
0.120455
0.025942
0.0218102
0.0277586
6.70825
0.0781397
0.0221291
0.0223267
5.21935
0.0459697
6.07184
0.0222659
0.0228422
5.97251
0.0410551
0.02262
7.87887
1.90776
0.0219352
0.276903
0.0219318
0.021976
0.0217924
5.9859
0.0215162
0.0218323
0.0218038
0.638592
0.0244446
0.172319
0.0658688
0.021753
0.0331909
0.0221727
6.29996
0.0219682
0.0218435
0.0221841
0.223326
0.0221768
0.375151
5.25647
1.32654
0.0267607
0.5488
9.12028
0.0220747
5.51525
9.98823
8.23405
2.13149
4.97753
26.9132
0.349115
0.0224413
1.09661
0.0409019
1.55301
0.0216596
0.0219205
0.022293
0.0221657
0.027182
0.0310976
5.36904
0.0219085
0.022074
7.00199
0.198824
0.0220747
0.0389788
0.0325085
0.0222337
2.67953
0.041293
0.0239036
0.0244098
4.86471
12.6053
1.3296
0.0216744
0.205777
0.150795
6.75837
5.17296
0.146515
0.0219582
0.0225129
0.0223912
0.0214796
0.0234423
0.0216357
0.0276337
0.0393648
7.30776
0.320488
0.0218484
0.279319
5.72041
0.0437555
0.0223817
8.03625
0.0219044
0.022419
0.0381229
8.01669
0.022179
0.0219864
1.87228
0.51007
3.47063
0.24362
0.548206
0.021953
0.405233
0.0224132
0.0219982
0.0223911
0.952556
10.0782
0.0217638
0.0216145
0.0220738
4.25958
0.0232168
0.033398
0.0220503
0.0225589
0.369781
0.0217642
0.0790233
0.216149
2.76128
0.0220283
0.0738232
0.0245166
6.16373
5.75726
0.0220334
6.88209
0.135958
1.42734
0.0221766
1.02376
0.0222477
0.0281742
0.0441998
0.244612
1.00281
0.451615
0.294971
5.1269
0.0218654
3.74888
0.0217586
0.027799
2.14121
0.0221643
0.0222547
0.0229363
0.0222098
7.01531
0.0216872
0.0220793
0.086825
0.0530215
0.0767653
0.5434
0.229936
10.2222
0.0932544
0.044319
0.0460783
5.96982
0.0507437
9.79509
1.15784
0.0260279
0.0217608
1.7216
0.433461
0.0223413
0.244063
0.039775
0.022232
0.0276807
0.0222507
0.0443248
0.0222921
0.0735957
0.101791
0.021894
0.0851839
0.0218159
0.0557793
0.0218828
0.0261772
0.0940694
0.0236059
0.0220896
0.0217756
1.93957
0.0776219
4.9393
0.0220371
0.0222124
0.0984366
0.0220504
0.1542
0.0788241
0.0222349
0.198869
0.0217998
7.88541
0.0223049
0.0454261
6.05786
3.26249
0.0219625
0.0238507
6.07625
0.0220011
0.0219315
7.05112
5.75891
0.0243146
0.280538
0.0221017
0.02208
0.960628
0.0231736
0.0217046
1.91563
0.0218139
2.65671
0.0221964
0.0217085
0.0222926
0.235622
2.8533
0.0222003
0.0223681
0.0219533
0.0260672
0.0220762
0.895846
0.0837214
0.0222688
4.59178
0.0477797
4.22467
4.03694
3.82903
0.021751
0.0223181
0.022114
0.510367
0.0265988
2.99641
9.53274
0.024
2.13977
2.22298
0.075106
0.26139
0.0634171
0.388726
1.01473
0.0584047
0.50777
5.0255
0.0975851
0.0254754
5.90661
0.0535955
0.0216729
0.0234749
11.6403
0.0381427
0.0219333
0.0499188
0.168303
0.0398945
5.76643
0.0239792
5.06759
0.0471007
0.415631
0.284901
0.20368
0.0315103
0.0217942
0.0227077
1.50946
0.0220023
0.0242744
0.0218223
0.0234655
0.0219082
0.0352002
0.283043
1.81308
0.0438011
0.0617177
0.790065
0.259265
0.0218954
4.11829
0.871634
0.0217485
0.0219231
0.0344866
9.85334
0.0222554
0.118964
0.383498
0.0478642
0.0221082
0.0230133
0.0218239
0.243556
0.0394542
0.0219877
21.0468
1.01352
0.0420719
4.60704
0.0984046
1.08939
0.0234672
0.0263662
0.783795
4.50573
0.148289
1.5575
0.0292737
0.022276
0.0219427
0.0222662
0.022055
0.0227103
0.0500789
0.0219735
0.254884
0.0219445
0.0305798
0.0217388
0.0749938
0.233757
0.408928
0.0220585
0.212932
0.0219421
0.801717
0.0220405
0.0257148
0.0221228
0.499168
6.36919
0.251643
0.0219677
0.320684
0.022094
0.0310784
5.72502
0.0219527
0.0224072
0.05092
0.0344829
1.86498
0.0219771
0.0300167
0.0228894
0.0220388
0.0324252
0.0225946
0.0217623
0.0238077
8.36818
0.0248392
0.579438
4.70447
0.0755155
2.63309
0.0245378
0.0217682
0.0311058
12.6097
0.0231462
0.0365257
0.0566481
1.16043
0.0219235
9.70492
0.0899867
0.123586
0.0217376
0.0216374
0.285666
0.0224953
0.0222859
0.0335843
0.0216743
0.0245582
0.0299678
0.118095
0.340446
1.22978
0.0249093
0.133131
0.560545
6.88252
0.0465045
0.214936
9.45788
0.0508671
10.4497
0.0237608
6.53123
5.7357
0.0216444
0.0222619
0.0219599
0.022509
0.0494667
0.0217351
0.0239545
0.145441
0.0234798
0.0352584
5.74747
0.0302578
0.0245199
5.09431
0.0226271
4.72132
0.0243766
0.0535056
0.0219115
9.72269
9.81805
0.0220936
0.0226429
0.911198
0.0297054
6.41924
0.02202
0.0218072
3.02835
0.0226915
0.0443526
19.1472
0.0220685
0.0769399
0.0304813
0.0216322
0.0218991
1.01222
9.76017
0.0222644
0.0237078
0.022128
0.0270646
0.0374991
7.2028
0.0227766
2.51501
2.74008
0.424984
4.56849
0.0226456
0.210723
0.156199
0.0291483
0.022061
0.092711
5.63628
0.0235058
0.0441664
2.78864
3.62274
0.266782
0.0253515
0.0223569
0.0222479
0.0220731
11.7602
0.0876341
0.023973
0.0227509
0.024853
0.0222696
0.022032
0.0220481
0.130044
0.0445673
4.50357
0.0462406
10.6765
1.92391
0.030602
0.0755872
0.0218206
0.0288181
11.7099
0.0222148
0.0237819
0.077539
0.277658
0.0561092
0.839014
0.517302
0.0219099
5.54531
0.0215934
0.0222796
0.0452516
0.0222733
0.0218858
0.419825
5.20677
0.0218205
0.804342
0.0221919
0.0217387
0.0236969
2.7429
0.0301968
0.0243083
11.3119
0.0230687
0.536562
1.6024
0.0222461
0.0474158
0.0220084
5.63889
0.123508
0.0220497
0.934488
0.0843052
0.0749702
0.0222782
10.7102
0.0294483
0.465096
0.022731
0.066911
10.3153
0.0217681
1.34551
0.0221836
0.0866474
0.0519043
0.0222453
6.21831
0.023793
0.27287
0.082266
0.0967953
0.0399248
0.0427592
0.0227013
2.67261
0.0320234
5.32254
0.0300409
0.103303
0.022009
0.047718
0.0220997
0.101126
1.135
0.0229295
0.0218597
3.53517
0.0229115
0.591877
0.0225309
0.839275
0.428174
0.0365118
0.0219991
0.0219557
0.0221109
0.0216347
0.209185
0.0532676
0.0390819
0.0263603
0.0220809
4.74255
0.0238015
0.0351394
0.530551
0.022078
20.8208
0.0770573
0.0312316
1.29435
5.79144
5.32463
0.870987
8.57877
0.0219172
0.223937
8.50408
0.351279
0.0221722
0.0222616
0.23188
0.948607
4.29257
0.336884
0.0221447
0.0504864
0.052732
1.78314
6.76543
0.057045
0.286482
0.0241637
0.0756273
0.146495
0.0221638
0.178942
5.44509
0.0221327
2.99535
0.0222528
0.0219776
5.91279
5.561
0.0218551
0.0222138
0.022551
0.0218226
0.0477736
0.423267
0.0229914
0.0219893
0.0220965
0.0506953
0.0290253
0.0285632
5.26152
0.0220458
5.53817
8.04081
4.9764
0.131352
0.0666889
2.91102
0.0404463
1.0583
0.884024
4.47123
0.022552
5.62442
2.16959
0.0217813
0.0220346
0.11983
6.2538
7.23807
0.0217497
0.0220975
3.0014
1.07093
3.03083
0.0242892
0.0240378
1.97465
0.0222884
3.755
10.4008
0.587212
0.670563
0.0221162
0.0219577
0.021888
0.0263365
5.13333
0.0525985
0.0260386
0.0226687
0.0759989
11.973
0.0505348
4.85584
5.89805
3.86185
2.16245
0.0220528
0.0221713
0.838309
0.0216743
0.0216725
0.0232391
2.95155
0.0478709
13.1659
0.250768
0.0220293
5.36792
0.0443489
0.0219142
6.04393
0.155281
0.0252367
0.0220601
8.12318
5.84426
0.0221824
5.37146
2.70633
9.23138
0.654966
0.0761506
0.021973
0.0226261
0.683589
0.0265044
0.874348
0.0468319
0.867919
2.00562
0.0230169
0.0292102
0.0219744
0.022822
6.50476
5.97061
0.0220731
5.52231
0.058086
0.0221057
0.0249726
0.0219539
0.365789
0.0225258
2.0188
0.0492237
0.0219622
0.0218747
0.0908097
9.69593
0.0497176
0.0242804
0.0484074
0.0220865
0.0232957
0.0292282
13.932
3.20629
6.04968
0.0217374
0.0218694
0.0224796
0.214287
0.0218914
0.0225367
0.421929
0.0976115
0.770157
0.0216314
5.72419
3.10493
0.0222843
15.0935
0.262447
0.0460623
2.14286
0.0224232
6.5729
0.0296265
0.0231987
0.0240383
0.0216698
0.439601
0.0222498
0.0226122
0.0311622
2.08331
2.77663
0.0222456
0.0220189
0.0237483
0.0220322
0.305952
0.0225125
0.137928
0.023755
5.67646
0.0225912
3.03476
0.02174
5.46042
0.0224609
0.0216508
9.38699
0.265986
0.106992
0.56853
0.044899
0.0544119
0.0220483
8.06472
0.0220684
0.0218977
0.0910412
0.0924763
13.0135
10.6838
0.283841
5.26969
0.233898
6.27678
0.021906
0.0257044
0.0302668
5.58083
0.0250279
5.7186
4.39096
0.0221359
0.0220844
0.0220814
0.629222
3.31933
0.0235455
0.0221061
0.0260629
0.0293166
0.0493501
2.80357
0.201991
0.022062
0.682076
0.112791
11.6868
0.129434
0.0234884
0.0242225
5.39891
0.021885
0.148815
1.26551
0.0228793
0.0259177
0.42255
0.142971
0.0228855
6.35125
0.0248741
3.87492
0.0485145
0.0304315
0.0227436
5.96072
0.0218676
0.0844551
1.40122
6.18618
0.0670894
0.0765649
0.0262605
0.0462737
0.0222663
6.27101
0.0280485
0.0219822
0.0334917
0.0220899
0.0222692
3.02627
0.022068
0.0221793
0.0221197
0.296787
0.0222873
0.0340109
0.130749
0.17046
0.211712
0.0222551
0.180376
0.365249
0.243378
0.105962
0.027526
0.36961
1.39059
0.339745
0.0222845
5.33922
0.863216
0.0222839
0.0245326
0.0216581
0.631889
0.122753
0.0220194
1.33921
5.64945
0.021819
0.0222586
0.892739
4.23639
0.0957449
0.0216741
9.1502
1.60892
3.40749
0.0220276
5.55738
0.130953
0.0656244
6.68157
0.0275814
0.0216717
0.0334159
0.208158
0.0378054
0.90215
5.67378
0.0218539
5.06717
0.360962
9.6166
0.0217378
0.0539308
0.0223138
0.0219704
5.03083
4.36936
2.64493
2.95311
0.0294826
0.0702479
0.0220341
5.91196
5.71234
0.0220516
0.0223254
0.0319968
0.021782
0.0763392
3.73998
5.41889
0.0728431
0.0225379
0.0220964
5.28258
0.0252179
0.0816711
0.0218305
0.02318
0.378249
4.45432
2.49789
2.8116
0.02217
4.30999
0.022117
0.0465692
7.76573
7.73881
0.0220724
0.0222938
0.0421183
0.0258913
0.022238
4.86817
5.59101
0.0218056
0.0215035
0.0221931
0.0219714
2.51865
0.0217337
0.870111
0.215869
0.0911577
0.0218958
0.0477918
5.66262
0.0411195
0.322905
7.90231
0.0223557
10.1402
0.0334144
0.0360342
0.247127
11.1675
10.7845
0.0870525
0.0219286
0.175343
0.0217466
0.0254472
0.0222867
0.844849
0.0318929
0.849792
0.464445
0.0674669
0.0221277
0.199091
0.0287859
0.0222703
0.263626
0.0216032
0.0438552
0.0406581
0.0222405
7.25977
0.0236027
0.528193
0.0229558
0.0219528
8.81975
4.04506
0.0242755
0.0329954
0.0497675
0.0602945
0.0902809
0.0270841
0.0261063
0.0261011
0.472664
0.0253267
0.813903
0.0556336
0.508346
0.201471
0.0226773
4.78869
0.0216156
1.25015
0.0243447
6.10809
7.03475
8.75902
5.3733
4.5623
0.0706693
0.0219883
3.89347
0.0769773
0.0220492
12.4054
4.61138
0.0234245
0.0239189
0.0328495
0.0329863
0.038486
7.01279
0.0222841
0.0315637
0.0426493
0.0323766
0.0221635
0.150067
0.0216133
0.82651
0.0238507
0.22787
0.0354572
0.0517528
0.10032
4.36068
0.116018
0.0218685
0.173072
2.44821
18.0996
0.0223726
0.782864
0.031976
1.76237
0.0220687
0.0247508
4.87522
0.0707585
6.72319
11.6176
0.0334663
5.46264
0.022036
0.0215992
13.3952
0.0600029
0.0247371
4.95662
0.0279337
0.04484
0.0295793
0.0807919
0.0222302
4.6124
3.77189
7.56826
3.45258
0.0264986
0.0605528
7.31558
0.0243144
0.0224064
0.0784228
0.021715
0.245591
9.26988
6.58671
5.8126
0.0861311
0.022439
5.49665
0.0216002
0.136356
0.0222344
20.8519
0.0240629
0.0460401
4.1198
0.26535
0.022025
0.0323662
18.6478
0.0220895
0.361031
0.0218211
6.64837
5.82315
0.25917
0.0767898
0.0219529
0.388723
0.274101
0.0508136
0.0218265
0.0224365
0.0221468
0.0841262
0.0221257
0.152597
0.0221245
0.0218258
5.62096
0.0219023
0.027866
0.0255554
0.0222744
3.79002
0.0219023
0.0343042
5.37899
0.0641586
0.79764
0.022104
5.93698
0.0689175
5.03232
0.0238184
0.265967
0.0221078
0.0553286
0.244376
0.212212
0.646237
5.60183
0.406211
0.700146
0.0272
0.225311
0.0412372
6.09562
0.0252588
0.0220554
0.0220692
0.0771717
0.0452051
4.49099
0.0845555
1.14359
5.14285
0.103382
0.0220733
4.52393
0.172183
0.0225425
0.0242553
0.0221455
2.44257
0.0220595
8.36444
0.0218892
0.0289006
7.63268
0.0700837
0.0220466
0.0220602
10.2467
0.0219182
0.0243344
0.026183
0.0330288
0.0292071
0.0222673
0.278246
0.0832907
0.043039
0.808606
9.44495
3.80766
8.72729
0.0217546
0.0220468
0.0888325
0.0224631
0.0462848
0.778331
4.94774
0.0216692
0.0220492
1.53458
3.19355
0.0216883
0.0218726
0.0266669
15.547
0.973921
0.0276628
0.0352396
0.0221985
3.6253
0.245995
0.127986
0.0317011
0.0433413
0.0224478
0.0434435
4.70376
0.0228733
0.0221905
0.0272622
1.41103
0.0254745
14.7266
0.0221039
5.03197
0.0365655
0.0281728
0.0217924
0.0219425
0.413997
5.38929
0.0583645
3.0463
11.2112
0.0226535
5.54135
0.254001
0.0219192
3.65034
0.554489
0.260514
0.0222546
2.29705
7.87929
0.0219474
0.0393566
3.5378
0.0454445
0.0221257
0.0218199
0.0224642
0.0242489
0.121553
4.22208
0.0791181
0.0993293
0.0217489
0.022289
1.00079
0.0218814
0.0497678
0.0267939
0.0220177
0.0702937
0.0220287
0.0239707
4.86345
0.0219994
6.81486
0.022029
4.82943
2.45114
0.187615
0.022348
0.0222927
5.56039
0.021656
0.0245644
0.0223901
0.199166
6.51596
0.0401055
3.49686
0.0411622
3.50376
0.0225684
0.124476
0.0217901
0.0221383
5.58606
4.7341
0.549597
0.0240748
0.128445
0.126637
6.91127
5.47435
4.55986
0.043803
0.0215944
5.67064
0.0219361
0.0220033
3.88342
0.221821
0.0285143
0.17765
0.0464557
0.0319585
0.0291374
5.42022
0.0249326
0.0219944
7.37379
0.0461808
0.0217378
2.14805
0.0220314
0.0221093
0.365222
0.114149
17.2113
0.0217561
0.0249798
0.0219478
2.08801
0.0219111
0.566129
3.51298
2.53828
2.04299
20.0503
0.0300995
6.22616
0.906739
0.0222092
0.030739
0.0429319
0.0307331
1.31121
5.67123
6.54991
1.71059
2.10636
0.0222433
0.231632
0.0220394
5.45955
0.0314498
0.02314
0.0245408
0.0228127
0.0219232
0.241451
6.41109
0.0217402
0.0239468
0.0218679
6.21879
0.0237781
5.54818
0.818451
0.553096
0.0220972
0.0219307
5.85481
0.364455
0.0221392
0.203932
0.0222272
0.115605
0.161499
0.202601
0.0779165
9.37847
0.0218296
0.0217861
0.406717
1.81991
0.0310614
0.0468795
0.0219824
9.04253
0.0220291
0.0219469
0.023362
0.0220589
10.9508
5.59198
2.08601
0.084573
5.56042
4.93539
0.0216751
0.0363181
0.0217189
1.2471
0.0219996
0.0250848
0.0220392
0.0219348
0.0217927
1.68434
0.0227228
1.58998
0.021574
0.0329293
0.0229189
1.45187
0.0220445
0.03725
0.0426993
0.0652411
5.75991
0.0219341
4.54087
0.0753765
0.044567
0.0220137
0.0219815
2.37625
17.8599
0.0220135
0.0219176
1.27934
0.496085
0.0382774
4.87999
0.0229113
0.588603
0.0365742
0.0217267
4.34333
0.0227934
1.14504
0.0220584
0.0228071
0.022118
5.74262
2.75618
0.0216932
0.232846
0.444082
0.022059
0.0218975
0.0218849
0.246685
5.43075
0.0721467
0.0242107
0.0456385
0.0220303
0.0221215
0.0240259
0.0220042
0.432551
0.0221312
0.0977024
0.373144
0.039069
0.0216267
0.753092
0.142949
0.022038
0.0832469
0.0353973
1.5082
0.024683
10.5303
0.0757717
0.0220598
0.123626
0.129303
0.0253349
5.52029
0.0895238
0.0311925
1.93773
0.0219961
0.113482
0.0838416
0.101399
0.0219551
0.0220335
0.0216521
0.0341618
0.0836052
0.0828816
5.00283
6.42577
0.830308
0.0222662
1.96593
1.88137
5.25892
0.0220483
0.0220998
0.0851692
1.2064
0.0244659
0.0444237
21.7103
6.26526
6.35448
0.121513
0.35281
1.6365
6.12578
0.0216115
4.6886
2.62516
0.0223901
0.0223672
0.023002
6.06617
0.136068
3.94582
0.0243191
5.19014
0.0221903
4.54492
3.34686
0.022313
0.042365
5.88047
1.14759
0.0708364
0.0230108
0.0239787
0.022449
0.164305
0.226182
0.762688
5.33406
0.021776
5.73442
0.128405
0.478932
0.0220279
0.0221641
0.51903
0.271365
0.0220129
0.0629935
0.0759221
0.0395704
0.811672
1.84794
5.75597
5.49978
0.0257132
0.0216702
0.0666236
3.51733
8.44898
0.0219614
0.22934
0.0920073
0.518172
0.0223058
0.0222557
1.12959
4.44605
6.94088
1.50467
2.73815
0.0219761
0.245304
5.53545
0.022302
0.0641586
0.238639
0.0217034
0.397354
4.68801
0.260478
0.0222548
4.45146
0.280527
19.5464
0.0214953
0.0237645
0.0222583
0.0229129
0.0222211
0.0574671
0.0399482
0.0419096
0.398245
0.041697
5.73024
0.0255436
0.0299338
0.0288844
13.6856
0.057994
12.2421
0.0287341
0.0280182
18.7403
0.101876
0.0221148
0.0420573
4.53744
4.18957
4.72237
0.0220354
0.0219544
0.021994
4.19211
0.0233762
2.63464
1.27374
0.246014
0.0330218
0.383736
11.442
0.0222241
5.31855
0.0337813
0.0516327
0.0220055
0.021927
0.0758759
5.64217
0.0220788
6.34941
0.288767
0.0907184
0.194438
0.0219219
0.0220219
0.0342719
0.0228148
17.8535
21.5586
0.0774528
0.413305
0.0220201
0.0221512
0.022235
0.0222478
5.77369
0.0233848
7.26905
0.0850213
0.0223301
0.358877
0.723757
2.04531
13.4477
0.0238394
0.0217678
0.0221303
0.0232409
0.816144
0.218892
5.42308
0.0221546
0.0223917
0.13834
0.0222603
0.441728
0.0238432
0.13468
0.153426
0.0409694
0.0396026
0.0217505
0.0632485
0.0381004
0.169821
0.0846657
0.0420181
0.0218764
0.171012
0.021927
0.849231
1.48118
0.947187
0.0221488
0.103463
0.0220913
0.0710604
0.0231486
0.0226108
0.0284811
13.5421
1.01044
0.0796468
0.0465251
0.166701
0.0704022
0.867382
5.59261
0.0312923
5.71221
0.211595
0.0218913
0.0583855
5.51285
0.102782
0.0222355
0.0699133
2.22121
4.48551
10.9325
0.0221871
2.21188
0.0221062
0.0219755
0.0537377
0.584171
0.0222638
3.00479
6.38589
0.457275
10.5747
0.337057
5.90066
0.481639
0.0217492
0.0254037
0.0216495
0.0422394
3.95052
4.74286
0.024581
0.0414928
0.021628
5.98265
0.0515563
0.0594921
1.20813
0.101648
8.52802
5.65959
0.0220256
7.96214
0.0221241
0.0284326
0.0465328
1.62488
0.322293
0.0281819
0.022998
0.507864
0.0363905
1.05848
11.2298
0.0329183
1.67589
0.0589461
0.0222737
1.11328
0.0719432
0.0231256
13.791
16.8889
0.0339939
0.0263772
0.238619
6.02593
0.0220081
0.0222864
0.0216874
0.0217848
0.0223581
5.96944
0.0316772
5.48504
0.0219559
0.0219538
0.85135
0.022227
0.0238353
0.0220539
0.0220411
3.8733
0.0217843
5.42552
0.0219904
0.0232217
0.0414647
0.0221937
0.153912
0.0217983
0.0222649
0.0218203
0.02951
0.0860219
0.0249076
1.77359
0.0219911
0.0430875
0.0338975
5.62477
0.0228107
0.0222684
0.0216786
0.0217041
2.96724
0.0219454
0.0219294
0.0253144
0.685688
0.0219356
0.0415838
0.032757
0.0220882
1.82071
8.54184
0.521972
2.14539
0.0253922
0.204088
0.0222218
0.104613
5.01144
0.022309
2.71649
0.229442
0.991807
0.0309533
0.0220385
1.47789
0.0435455
0.398166
4.58752
0.0215606
0.0220426
7.20266
1.56217
0.0915878
0.0530642
0.0232765
12.7594
4.61203
0.0215004
0.0219765
0.0221455
0.0221715
0.0222473
0.0220482
0.0362464
5.42992
0.0313195
0.0222662
0.579791
0.021994
0.429498
0.0453081
0.0219979
0.0295543
0.0219461
0.223377
0.0251484
0.0538143
0.0220144
0.022329
7.0221
9.60776
0.0221767
0.0760006
0.0442437
0.0313196
0.0240383
0.0222712
0.0226627
0.609696
0.298056
0.0487398
2.47985
0.022469
15.2589
0.242279
0.0264453
26.0302
0.0232025
3.63313
4.06911
2.19219
7.04506
5.59801
1.75619
0.0216305
0.0285018
0.0248127
0.021637
0.0217418
0.0327922
0.0763677
0.0218012
0.0294941
0.258085
0.0706432
0.283685
0.423698
0.0352178
0.656721
7.09467
0.0344847
0.0250363
0.232313
11.2691
5.16213
0.0257174
0.0216162
0.0219117
0.0218095
0.0356252
4.85253
0.222279
0.0217288
7.05462
0.0219829
0.246799
0.851235
0.0852797
0.132668
0.096969
0.315922
0.022949
0.0339168
0.0218899
0.190022
0.022021
0.0231553
0.0406365
0.291376
0.022175
0.0246229
5.15688
0.0218265
0.0220892
0.0294779
7.10158
0.200282
1.05766
0.0382273
0.0221486
1.91602
0.0375211
0.0235402
0.0220482
0.0309687
0.0271292
0.0220544
0.0288189
5.84063
0.0238375
0.0216604
0.0470194
0.0219059
0.0317104
0.0303211
0.0220659
0.0220009
5.54558
0.0217405
0.022035
0.0216713
0.0259757
0.0214628
8.01557
0.0266747
0.167825
0.0219595
0.0219307
0.0220143
6.36936
0.0946775
0.0220529
0.0215968
4.45088
0.025283
0.123041
0.0218752
0.334885
0.0236117
0.0215535
0.81935
0.0217456
0.0223364
0.0221455
0.0219928
0.0243461
0.0221332
0.0220318
1.5315
1.45007
5.52315
0.423082
10.0396
0.0219012
5.82678
0.0219668
0.923895
9.82098
0.0218086
10.5577
0.0219776
2.74238
10.5823
0.271769
5.66344
5.6048
0.427586
0.514411
7.97902
3.7731
0.043581
0.054665
6.00793
0.0236296
0.0216784
4.61293
0.0242351
0.028344
8.96698
0.0231683
0.450413
4.07294
5.12186
3.56532
0.26215
0.0222515
0.028451
0.0487417
0.0223393
5.27586
0.217379
0.112669
0.0219549
0.0220673
10.9487
0.0217153
0.39188
0.0218805
9.0184
8.15484
0.0345721
0.0264652
0.0220645
9.48768
0.799549
0.0256695
0.0346991
0.0222858
0.0222856
0.0890051
0.0232655
0.0326404
0.0617402
0.0244605
0.0395058
0.0220443
0.0322286
15.9921
0.0225236
9.71683
0.0219931
0.618546
0.0563846
0.022039
9.19048
0.251997
0.0218819
0.140964
0.0220477
2.48316
0.0222892
0.0220241
0.849057
0.0221453
0.241004
0.0236207
0.286235
0.021882
0.0224376
0.0218749
0.0302339
0.0244091
0.0223877
0.0227019
0.0254387
0.0225483
0.23504
0.0598647
0.0309912
0.0234169
0.0216152
2.33763
2.70744
0.0228868
0.0226383
0.0227611
0.0378477
0.0223327
0.0361988
0.0215667
0.0222853
0.514574
0.0234786
0.0222847
0.021929
12.0486
12.3586
0.0216008
0.0653732
0.0608158
0.23389
0.439281
5.59242
6.37773
0.362134
0.0230774
0.279146
0.0219282
0.0321474
9.00918
7.12926
0.116467
0.0240339
17.9504
0.0220389
0.0473351
2.39191
0.0223178
0.258154
0.0237025
0.0234784
0.0798798
0.26666
0.774532
1.98761
0.0218671
0.0215972
6.46353
4.33081
0.0223304
0.0293133
0.229373
0.0220616
0.0220125
0.0243922
0.506893
0.0217992
5.83271
0.0296921
0.0222846
0.409358
0.113279
0.101358
0.106011
6.20276
0.024527
0.042916
0.0275443
0.0239229
10.3764
0.0376646
0.758662
5.57271
0.0614514
1.0134
0.0471359
0.0461633
0.21942
0.0217507
5.89818
0.142112
0.0337681
0.0293391
0.0221768
0.0216705
0.836431
0.0435574
0.88916
0.773199
0.0221172
5.81763
0.0218518
0.0220062
0.0289246
10.6459
0.124662
0.0216605
0.755494
0.0220543
0.0240585
1.20819
0.023936
2.11674
0.0222724
6.30127
4.97094
0.0701479
0.71487
0.0235257
2.27491
0.0216105
6.61349
6.35259
8.71098
7.94197
0.0219449
0.0218502
0.154828
1.48108
2.00027
2.38105
2.65985
0.0222393
6.91634
2.19468
0.0225244
6.01197
0.0318224
0.0340739
9.80898
0.0379883
1.05952
0.0219433
0.0376447
0.0430852
0.17391
8.45099
0.0367894
2.56134
0.901807
0.02217
0.0247993
0.0239971
0.0256092
2.11926
0.0220153
0.0217862
0.0389983
2.04693
1.6256
0.0297603
2.6256
1.29525
0.0220143
9.0133
6.59738
0.421852
2.72693
0.0704594
0.0245932
0.0221723
0.115578
0.027315
0.0976879
9.55343
6.50184
0.02924
0.123558
0.0259671
0.0482079
0.0216654
0.0535813
0.0249726
0.105896
1.02784
7.97332
3.82961
0.0216568
0.232237
0.0987225
5.8057
0.0232966
7.52914
1.29603
5.53709
0.0220443
0.154821
3.82194
9.84981
9.68553
0.0364875
4.37388
0.854189
0.102744
0.117674
0.0245616
0.0295712
6.04487
0.0456612
0.0221846
1.75125
0.0220904
0.0223184
0.230293
0.240411
0.0218286
0.0798939
0.0249269
3.27251
9.53635
0.0241343