/*--------------------------------*- C++ -*----------------------------------*\
| =========                 |                                                 |
| \\      /  F ield         | OpenFOAM: The Open Source CFD Toolbox           |
|  \\    /   O peration     | Version:  v2012                                 |
|   \\  /    A nd           | Website:  www.openfoam.com                      |
|    \\/     M anipulation  |                                                 |
\*---------------------------------------------------------------------------*/
FoamFile
{
    version     2.0;
    format      ascii;
    class       volScalarField;
    location    "50";
    object      p;
}
// * * * * * * * * * * * * * * * * * * * * * * * * * * * * * * * * * * * * * //

dimensions      [0 2 -2 0 0 0 0];


internalField   nonuniform List<scalar> 
13851
(
0.0103182
0.000305411
0.0100716
0.00992249
-0.0210983
0.00832325
0.00355555
0.00013584
0.0016422
0.0161323
-0.00131285
-0.0347541
-0.084492
-0.0628159
0.00689984
0.00645368
-3.13416e-05
0.0166267
-0.0580855
0.00178514
0.00973761
0.00719018
-0.00039742
0.00190107
-0.000105059
0.00151146
-0.00607791
-0.112996
0.010338
0.0105946
0.0050191
-0.000206975
0.0106137
-0.00413603
0.00193429
-0.0528408
-0.0596124
0.00318968
0.0175718
-0.00924324
0.00751305
0.000126872
-0.142541
-0.00140169
-0.00293274
-0.217565
-0.00155345
-0.0553567
-0.00662287
-0.0185516
-0.0347815
-0.0498702
-0.129713
0.00670529
0.00596211
0.000118354
0.000308269
-0.128068
0.010406
0.00298261
0.0086365
-0.0942168
0.0222774
-0.0278682
0.0143355
0.0103928
-0.0604834
-0.00116404
-0.0156236
0.0170536
-0.0717825
-0.060224
0.00230577
0.00675527
0.00602159
0.00152115
0.00566556
-0.104267
-0.0143231
-0.0682772
0.00180682
3.08807e-05
0.00587296
-0.17941
0.0225379
-0.0420705
0.0094455
-0.0159816
-0.0042374
-0.000741884
-0.0524519
0.00193015
-0.000380349
-0.00680899
-0.00457731
0.000683198
-0.0234991
-0.136263
-0.0179536
0.000379424
-0.117375
-0.021868
0.00979378
-0.00906861
3.63013e-06
0.00898021
-0.0260428
9.06072e-05
-0.0603768
0.0070451
0.00093276
-0.00078399
0.00181198
0.00174757
0.00119245
-0.0121581
-0.132141
5.39711e-05
0.00438467
0.00592857
-0.143585
-0.00857947
-0.0875211
-0.0237921
-0.0553001
0.000438826
-0.0420956
-0.0179761
0.00958283
-0.0252262
0.0074108
0.00378276
-0.0743506
0.00587785
-0.0132627
0.00384192
7.68464e-05
-0.0614644
-0.0178821
-0.0473992
-0.127955
0.00611205
0.0018843
0.000241664
0.00376259
-0.000846553
7.35644e-06
-0.0218624
0.00382484
-0.00343442
-0.0389993
0.0056797
-0.0663046
0.000355752
-0.000715154
0.00410371
0.00533152
0.00861469
-0.0491889
-0.033392
1.5295e-05
-0.0113992
-0.128887
0.00364042
0.011802
0.00018448
1.36299e-05
-0.0167004
0.00942099
-0.177413
-0.10276
0.000714048
0.00546506
-0.0411586
0.00361335
-0.0648373
-0.0166459
0.00281021
-0.0641814
9.53983e-05
0.000168541
-0.0613738
0.0059188
0.00635796
-1.32971e-05
-0.000122545
0.0106143
0.00606223
-0.018856
0.00169327
-0.000894288
-0.130863
-0.000889836
-0.0127503
-0.0719068
5.64957e-05
0.00187753
-0.0178492
0.00265231
0.00165066
0.000492228
-0.257567
0.00468537
0.00652286
0.00645981
0.00583572
0.0579739
-0.00140778
-0.0849904
5.02598e-05
-0.0807974
0.00957719
-0.0165736
5.70988e-05
0.000197783
9.47293e-05
0.0232703
-0.218412
0.00656074
-0.0856914
-0.00136981
0.00145397
-0.102108
-0.0413003
-0.0739958
8.92568e-05
-0.00776264
2.19117e-05
-0.142045
6.69846e-05
0.00215019
0.015479
0.000723308
-0.000784083
-0.0329227
0.0217943
0.0663569
0.0119863
0.000251903
0.00647893
0.0064559
-0.0125641
7.35212e-05
0.00527794
4.6047e-05
-0.0782944
-0.0215182
-0.0100659
0.00483904
0.00431388
0.00592308
-0.012769
0.00430312
0.00443157
-0.0283988
-0.0811781
0.00329008
-0.062523
-0.124655
0.00628247
0.000222353
0.0160153
-0.0173956
0.0002782
-0.0609705
0.000388243
0.00423363
-0.00674943
-0.099793
-0.000244214
0.00610318
-0.000354849
0.00112838
-0.013922
0.00669827
0.00380849
-1.14271e-05
0.000327985
-0.0657209
-0.00250854
5.68672e-05
3.91401e-05
-8.56231e-05
-0.0275912
-0.0236516
-0.0610492
0.00190164
0.0073228
-0.00172014
6.31043e-05
-0.0236269
0.00996251
0.00285756
-0.01562
5.75811e-05
-0.0627547
0.00987204
-0.055222
0.00393901
-0.0780469
-0.0111271
0.000660381
-0.0683188
0.00799216
0.00840113
-0.095743
0.00191051
-0.0232567
-0.00617521
0.00981695
-0.00881939
0.0102476
0.00497772
-0.114014
0.000144788
0.00402657
0.000514231
-0.0659315
-0.0476965
0.0065085
-0.0250898
0.006736
-0.121385
0.00618099
-0.000143608
0.00555999
-0.047462
-0.00750053
-0.00123456
0.00745979
0.00784943
0.00519765
-0.00178584
-0.0750464
-0.190453
0.0182567
-0.0663127
0.0158631
0.00684992
-0.0124133
-0.0203862
-0.000406502
0.0245996
-0.0470289
-0.0577502
0.00553257
-0.0254741
-0.08788
0.00700269
0.00111692
0.00135307
0.0613486
-0.00148943
0.0239364
-0.141571
0.00554614
-0.0230819
0.00546588
0.00682512
1.13163e-05
6.75169e-05
0.00524116
-0.0864342
-0.0180797
0.00650876
-0.0224912
0.000215328
-0.0538246
0.00858968
-0.0145886
-0.17971
0.00658797
0.0247173
-0.0047776
-0.0277311
0.00715936
0.000107612
0.00487251
-0.105144
0.00596202
0.00213892
-0.00319492
-0.0492134
-0.191584
0.0012054
0.00101079
0.00435594
0.00440497
0.00711565
0.0175265
-0.0257312
-0.0537845
-0.0178431
-0.0745179
-0.091589
0.000220595
0.00618118
-0.190663
-0.0710342
0.0152047
-0.125715
0.0048426
-0.00509956
0.000121094
0.014566
0.000938249
0.00577936
0.00444768
0.00417247
-2.57908e-05
0.0017765
0.000173722
-0.0289554
0.0216674
-0.123763
0.0176492
-0.0263547
0.00936246
-0.01346
0.00534321
0.0654263
0.000892769
-0.000476978
5.92846e-05
0.0018003
0.000236629
0.0163901
-0.0214057
-0.0360627
0.0100393
-0.112927
-0.00272855
0.0109389
0.00588659
-0.0338536
0.00706273
-0.0115094
-3.8604e-05
0.0731597
-0.0130162
0.0111916
-0.0890621
0.00251168
0.000324739
-0.0156028
-0.0945149
2.3296e-05
-0.005604
-0.0156659
-8.46247e-05
0.00101002
0.00557878
-0.0379349
-0.0484858
0.0204895
-0.0182497
4.06324e-05
0.00565158
-0.150479
0.01231
3.48529e-05
-0.0212007
0.00432785
0.0101364
0.00149474
0.0143593
0.00866168
4.3077e-05
0.00228804
-0.112006
0.00580137
-0.0185948
0.00395505
0.009482
0.000194138
0.00220417
0.00719363
0.00201928
0.00124198
-0.0884545
0.00385813
0.00997069
0.00595331
-3.26598e-05
-0.123165
-0.0881831
0.00567028
0.00914771
0.00491074
-0.0160978
-0.193037
0.00576958
-0.022322
0.00724008
-0.0126042
0.00369952
-0.158791
4.7881e-05
-0.131451
0.00389941
0.000124765
0.00845504
-0.149586
0.00341482
0.00352527
0.00445951
-0.0286919
0.00606929
0.00306106
0.00371831
0.00431903
-0.0711845
-0.0303691
-0.0516821
-0.0719926
0.0252049
3.80254e-05
-0.0856996
-0.0184183
-0.000485714
-0.0109672
-0.0144877
-0.0274332
-0.0780961
0.00680495
-0.163699
-0.204547
-0.264545
0.0111416
0.00829084
-0.018499
0.000259007
-0.0882146
-0.0162412
0.0843983
0.00902343
0.0819698
-0.0704173
6.10533e-05
0.000312359
-0.0318849
-0.0886852
0.00524717
0.00634542
0.00524256
0.00706969
-0.0206092
0.0191314
-0.0133044
-0.0222961
0.00273748
-0.146683
-0.100386
0.00223566
-0.0185335
-0.0175144
6.71303e-05
0.00163771
6.21548e-05
-0.0940044
-0.00120863
-0.0426966
-0.054779
0.000114364
0.00890062
-0.0259931
0.0527607
-0.0437095
-0.0716054
-0.0686057
0.00734145
0.00407012
0.00211422
-0.0938841
-0.0501345
-0.0183065
0.0190656
6.69779e-05
0.00652835
0.0760666
0.000119109
0.00563537
8.10314e-05
0.00473876
-0.0717113
-0.024892
0.00988935
0.000110138
0.010885
-0.0182187
0.00420776
0.000153003
0.000344782
0.0070029
-0.110615
-0.0128324
-0.0139644
-0.289129
-0.0297853
-0.0172416
-0.0890841
-0.0844175
0.00529133
-0.0152819
6.07549e-05
0.000471055
0.00479893
-0.107939
-0.0269816
-0.0422418
-0.00182646
0.00167964
0.00761409
0.000548655
0.00349002
-0.0315489
0.00603121
0.0193685
0.00109474
-0.00762157
-0.035037
0.00327854
0.00698555
0.00842529
0.00409289
-0.0197348
0.0209709
-0.0403997
0.00866611
-0.0505929
0.00169698
0.0211226
0.00574406
-0.286101
0.00933489
0.000752353
-0.0604148
0.0115882
-0.186722
-0.0850507
-0.202279
-0.0107198
0.00102637
-0.0596842
-2.40069e-05
0.00462331
5.4398e-05
0.00479166
1.01216e-05
0.0179825
0.0146315
0.000103885
0.0604535
0.00148602
0.0553548
0.00473225
5.71225e-05
7.69281e-05
-0.0152944
-0.0325187
-0.0308814
-0.00762365
6.92136e-06
0.000210024
0.00276529
0.0053228
-0.0665246
-0.0401335
0.0042228
0.000107355
0.00428783
0.00536583
0.0597409
-0.128692
0.00726419
-0.148845
-0.0290586
0.00689986
-0.0507184
-0.0955634
-0.0160334
-0.0115887
0.0020763
0.0161558
-0.03001
0.0168808
-0.0171567
0.00577065
-0.0219187
0.000141221
-0.0194762
-0.0886642
0.000644361
0.011022
0.0149544
0.00307493
0.000331835
-0.0153231
-0.0347969
-0.0296797
-0.0523845
0.000984114
7.16015e-05
0.00467604
-0.1443
-0.0538353
0.0227052
-0.0850006
0.000172901
0.00770945
5.06075e-05
-0.0276963
-0.0647881
0.0094467
0.00880281
0.000172289
-0.00477654
5.24887e-05
-0.144526
-0.084968
-0.109787
0.000153546
0.00421416
-0.0941093
-0.121336
-0.0516903
0.000542923
-0.0696219
0.00580363
9.82773e-06
0.0276008
0.0132397
0.00391684
-0.204822
0.00466321
-0.00138133
-0.0599547
0.000515143
0.00483326
0.00881863
0.0015848
-0.150802
0.00264594
-0.0456814
0.0102752
0.000254415
0.00180908
-0.0212657
0.00336394
0.00471646
2.9416e-05
0.00674241
0.00554471
-0.0955358
0.00530171
0.000100629
-0.035255
0.00380022
-0.0940768
5.22779e-05
0.00134233
-0.0363735
0.0545499
-0.0101775
0.00235897
-0.001702
-0.145321
0.00394964
-0.0900695
-0.0187955
0.00148251
-0.0073392
-0.142819
0.00227588
0.00585459
0.00283922
9.67143e-05
-0.0153408
0.0182413
0.0115084
0.0101653
-0.00751819
0.00679048
0.00109194
-0.0420027
-0.0197425
-0.0158361
-0.0251751
0.00436557
-0.0152743
-0.0393907
-0.0639266
0.00994502
0.02396
-0.0696144
0.00367817
-0.18206
0.0235973
-0.107398
-0.0355701
-0.11327
-0.0103153
0.00605292
0.00159501
0.0165665
-0.130807
-0.176518
0.00491962
-7.94778e-05
-0.0332715
2.27186e-05
0.000128901
-0.126511
0.000253766
0.00617066
-0.151707
-0.0964568
0.00130163
0.00459642
0.0069463
-0.122854
-0.0656207
-0.0486583
0.00575399
-0.172483
0.048774
-0.0303555
-0.0245227
-0.0214073
0.00538878
0.00379834
-0.00168519
-0.0305282
-0.071093
0.00548002
-0.0168493
-0.153264
-0.127488
-0.100918
0.00527591
-0.0166943
0.0041083
0.00819209
0.010967
-0.00977828
0.00665192
-0.0730615
0.000126151
-0.0354273
0.00671003
0.0369375
-0.0181084
-0.0158345
-0.143142
-0.0247653
0.0152955
0.00122008
-0.0352807
-0.0559664
0.0254919
0.00643041
-0.0977207
0.000269087
-0.0377401
-0.0170975
0.00589903
-0.08214
-0.107124
-0.0952169
-0.00944441
0.00584624
0.00536586
-0.11195
0.00658217
-0.0126377
-0.0827169
0.00493686
-0.00389126
0.00957635
-0.0189804
0.000201111
0.00500814
0.000409958
0.0228852
-0.0860382
-0.044104
0.00587596
0.00585071
-0.0191759
-0.165622
-0.0400212
0.000119347
0.00603378
0.00329325
0.00473978
0.00129634
0.000347159
0.077054
-0.0123563
0.00623457
0.00210452
0.00542864
0.00849697
-0.0791914
-0.157146
-0.00628832
0.0306706
0.00668301
-0.00475209
0.0051479
0.00340575
0.00724341
0.00633664
-0.0813366
0.00562935
-0.0298139
0.00522169
0.00536467
0.00146037
-0.116868
0.00427754
-0.00934113
0.0107275
-0.0732444
0.0022781
-0.00160933
-0.0722906
-0.00814698
0.0210881
-0.0159852
-0.0161766
-0.138932
-0.00351503
-0.00276527
0.00915371
-0.0236525
-0.0233447
0.00778412
0.00239828
-0.0289642
0.00454779
0.00486957
-0.0486136
0.000467013
-0.0716569
0.0037487
0.00383332
0.00926695
0.0040334
0.00696757
3.25209e-05
0.00235169
-0.0585837
0.0050543
-0.0666057
-0.161267
0.00710666
-0.0314072
0.00404072
0.00317845
0.000605164
0.00713793
0.00392195
-0.0390369
0.000293442
0.00240038
0.00892734
6.71313e-05
-0.103546
-0.0461585
0.0228585
-0.125274
-0.0649916
0.00655781
-0.0123007
-0.00246499
0.00511096
-0.0267308
0.000902925
0.00755669
0.00605323
-0.00185991
-0.0194497
-0.149331
0.00106215
-0.0834901
0.00256898
-0.00429991
5.35216e-05
0.000384278
0.079218
0.0258024
-0.0778251
0.000713149
0.0060764
-0.0373983
0.00572544
0.0628038
-0.0145594
0.0105956
-0.0692422
-0.00984358
-0.000100645
0.00690239
0.0293168
0.00970833
-0.00833093
0.0317346
-0.00420244
-9.6529e-05
0.00566818
-0.0557937
0.00228867
-0.122976
-0.0783681
-0.0134062
-0.0598245
0.00766543
0.000255359
0.00850679
0.00396629
-0.0163508
0.00099986
0.00312046
0.00055821
-0.0364725
0.000157146
0.000628287
0.00135614
-0.0108235
-0.0647508
0.0199631
0.0196618
0.00556015
-0.0314716
-0.0539041
-0.002352
-0.179987
0.0397867
-0.039975
0.000187317
-0.0242543
0.00635307
0.000140517
0.00834302
-0.105596
-0.0484034
-0.020876
-0.0087584
3.44807e-06
0.00620921
-7.7767e-05
0.00827058
-0.00946509
-0.0181919
4.51059e-05
-0.00988602
0.0222263
-0.0788234
0.00175662
0.00723159
1.81558e-05
0.0480412
0.0165364
-0.0859178
-0.0427158
-0.0393045
0.0287994
-0.0987602
-0.00994363
-0.261551
0.000203674
0.00150019
0.000146575
0.00603779
-0.0112732
0.00486534
-0.093566
0.00188464
-0.00528674
-0.0147315
-0.0535823
-0.0814059
0.00662132
-0.00385821
0.00951403
0.000271328
0.0168893
0.0195965
-0.0259023
-0.0439766
0.00593765
-0.00883922
0.00560857
-0.0272525
-0.11893
0.0292743
0.000252775
0.000911995
-0.171254
0.00382772
0.0723416
-0.0706497
0.00584203
0.000181271
-0.0738857
0.0155191
-0.0123815
-0.00660989
-0.0854163
0.00386499
-0.026098
0.0217652
0.00988254
0.0106467
0.00600298
-0.142076
0.0212412
-0.0949875
0.000350684
-0.0107196
-0.0537758
0.0013813
-0.0833994
-0.0680814
0.000136003
-0.0218049
-0.089654
-0.0328407
-0.0646112
0.00639801
0.00695096
-0.0849676
-0.0497415
-0.165191
0.00635482
0.00412578
0.00640891
-0.0981123
-0.0507694
0.0026086
-0.00226274
0.0187242
0.0802297
-0.074947
-0.044412
0.00601573
-0.0697093
-0.00484752
0.00710696
-0.0537746
-0.0558034
0.00331537
0.00433977
-0.115523
-0.088114
0.000381917
0.00578622
-0.03395
0.000206282
4.20799e-05
0.00593708
-0.0268066
0.00708511
-0.03023
-0.0400395
-0.114431
0.000311689
-0.138485
-0.0105346
0.0765907
-0.0746368
0.0496967
0.00650971
0.00654754
0.0452889
0.0031233
0.00664065
0.000260209
0.00695089
0.00682395
-0.0584255
0.00447208
-0.00110089
-0.118398
0.0122498
0.0786448
0.00341867
0.000646383
0.00369007
-0.0161575
-0.0675253
-0.117663
0.00377999
-0.0302988
-0.0189249
0.00826961
0.000251085
-0.0983763
-0.0137743
0.00742248
-0.0516776
-0.0534806
-0.023191
-0.066191
-0.0634021
0.00641582
-0.000320015
-0.0166639
0.0111881
-0.0282741
3.42029e-05
-0.0506636
0.00657495
0.00612241
-0.0549667
-0.0931515
0.0109232
-0.0548757
0.0228499
-0.118174
0.00125187
0.00833744
0.00706587
0.0207518
-0.011918
-0.00029861
-3.85587e-05
-0.0954995
-0.119462
0.00481111
-0.0817518
0.011525
-0.0714146
-0.0869464
-0.0152151
0.00636531
0.00596696
4.60379e-05
0.0061643
-0.0653411
0.00616255
0.00109623
0.0112204
-0.06785
-0.0671923
-0.164966
0.00871385
-0.0728777
0.00977292
0.0125526
0.00599133
-1.40793e-05
-0.125367
0.00582689
-0.0827746
0.00213796
-0.00687328
-0.0480264
0.00779665
0.00886501
0.00730808
-0.0492402
0.00313175
0.00272206
0.00854124
0.0057197
-0.0553136
0.000316754
0.00384484
-0.00028181
0.00454401
0.0403144
-0.0779865
0.00573288
-0.0190381
3.63735e-06
0.0100399
0.000382213
-0.0549458
-0.00417485
-0.017389
-0.00548608
0.00657311
0.00352461
0.00723865
0.000203649
0.00720381
0.000987566
0.00157324
-0.109905
-0.00486634
0.0102331
0.00516637
4.41882e-05
-0.0359125
-0.120558
-0.0490766
-0.0144698
0.00584594
-0.0102821
3.7925e-05
0.00257332
-0.0573702
-0.0741965
7.00892e-05
0.0130946
0.0159525
-0.0712904
0.00186471
0.00140666
-0.0739913
0.00156459
-0.0126127
-0.0660771
-0.0631767
0.0071839
0.000371961
0.00641023
-0.0741487
-0.0474973
0.000522275
-0.04901
-0.174924
-0.00189132
-0.067677
0.0628702
0.00829618
-0.0659085
-0.0402349
0.00651759
-0.123425
0.00438655
0.0050302
0.000432762
-0.0511132
0.00476926
-0.0541181
0.00387432
-0.00284089
-0.0185252
-0.0100113
-0.0632941
-0.0688957
-0.0123752
4.28891e-05
-0.0483217
-0.0137948
-0.147532
0.0147641
5.58553e-06
0.00623256
0.00480677
0.0004566
-0.0920249
0.0138423
0.00642809
-0.0551359
0.0100364
-0.000907118
-0.00226663
5.2342e-05
-8.95863e-05
0.00804
0.00330387
-0.043505
-0.0259606
0.0111198
0.00711248
-0.0161472
0.0491827
-0.0090578
-0.0716509
0.00568265
0.00293761
-0.0631215
-0.196705
-0.145617
0.00656099
0.00264279
-0.125069
-0.0167036
0.000803212
-0.01022
0.00512041
-0.0212154
-0.0346434
0.000309153
-0.129228
-0.062034
-0.000490246
-0.0776466
-0.107774
0.00612535
0.0170896
-0.0303657
-0.149022
-0.00437826
-0.0387641
6.39831e-05
0.00630765
-0.000465824
0.00639579
-0.0725833
-0.158726
-0.115508
-0.206621
-0.00345354
0.00974403
0.00808222
0.000102177
0.00607615
0.000565587
-0.10486
0.00590549
-0.0776865
0.0115117
0.0222509
0.00623517
-0.0585224
-0.0972429
-0.0733208
-0.0199851
0.000150829
0.000602627
-0.0756645
-0.0772228
-0.00432827
0.00479979
0.000696081
0.00457043
0.00187421
-0.0519882
0.0840306
-0.0042279
0.000363454
-0.0465096
-0.00884943
-0.0810137
-0.0374723
0.00582816
-0.0292794
0.00813161
-0.070032
0.000202266
-0.0725994
0.000394876
-0.00380312
0.015645
0.00722169
0.00388158
-0.00855339
-0.0193213
-0.136522
-0.120958
-0.0035919
-0.00149954
0.00701482
-0.0745016
-0.154658
0.00283356
0.000218843
-0.0233555
8.95069e-05
-0.0668917
1.97635e-05
0.020868
0.012958
-0.103764
0.0157769
0.00865172
0.00420254
-0.037502
-0.091724
0.00657967
-0.0661641
-0.0637813
-0.0677168
-0.0324304
0.0108994
-0.121198
-0.0128898
0.0521365
0.00621154
-0.00556177
-0.0101588
-0.15972
-0.172872
0.0581563
0.000475792
0.00625485
0.00412901
-0.0793962
-0.0273843
-0.0984371
-0.133732
0.00636578
0.0586646
-0.0164604
0.0108977
0.0102511
0.00345586
-0.0777756
0.00495187
-0.0370593
0.00323243
0.00843122
0.00349429
0.00638887
-0.135334
-0.0606314
0.0043047
-0.17589
-0.0761429
0.000433601
0.00608331
-0.00012583
0.00640154
-0.0714816
-0.0573776
0.0074171
0.00626226
-0.0134389
0.0156815
-0.0183552
-0.125511
0.00431209
-0.0756612
-0.0187684
0.0179541
0.0061716
0.0032314
-0.0273344
-0.0196045
-0.00137698
-0.0775502
0.00874469
-0.077138
0.00389151
-0.00194943
0.000410099
-0.11703
-0.208818
-0.0304623
0.00545731
-0.00330168
0.00589157
0.00495419
0.00708599
0.000647754
-0.146753
0.00249627
-0.133463
0.0085812
-0.071073
0.0607524
-0.0802833
0.00586702
-0.00955233
-0.161426
0.0108404
0.0104485
-0.0715561
0.00294914
0.00131441
-0.00361516
-0.101116
-0.142274
0.00923312
-0.0147445
-0.0095382
0.00453861
0.024736
0.00698206
-0.265898
-0.0147721
-0.0017645
0.00404005
-0.00443378
-0.0266374
-0.0394199
-0.00208521
-0.0507227
0.00727865
0.00263744
-0.101905
-0.073514
0.0152239
-0.0156953
-0.130756
-0.0487361
0.00426009
0.00558955
-0.00218172
-0.0959708
-0.108941
0.0060747
-0.0825214
-8.28832e-05
0.00605077
0.00759991
-0.194935
0.0569928
-0.00960446
-0.146911
0.0105303
0.00314938
0.00596836
-0.150601
0.00623495
-0.110147
0.0101757
0.00371351
0.00104962
0.00660888
-0.0311716
-0.147483
-0.0244127
0.0071503
0.0551541
2.42202e-05
0.00505141
0.00546819
-0.000438547
-0.0240104
-0.0264763
0.0192741
-0.0861518
-0.00458184
-0.0175235
0.0200658
0.0420166
0.00465053
-0.0832934
-0.0814241
-0.0121106
-0.0377439
-0.0358812
-0.140852
0.00457768
0.00605987
0.00229217
0.00853583
-0.0789829
0.0183372
-0.081649
0.0118633
-0.0298469
0.00967472
-0.0880645
0.000170245
0.00496353
-0.0176009
0.0126018
-0.17591
-0.0689737
-0.0357537
-3.77918e-05
0.000355309
-0.02655
0.0140858
-0.000406043
-0.0500695
8.40944e-05
-0.0188742
0.00605947
-0.0795553
0.0061002
-0.000562193
0.0010576
0.0124491
0.0177299
0.00842053
-0.0651179
0.00732896
-0.0398483
0.017461
0.00265306
0.00581817
0.00604928
0.000835799
6.06892e-05
0.00509967
-0.00388389
-0.0386944
-3.98316e-05
-0.00263303
0.00808102
0.00265954
-0.000251195
-0.0720434
0.0049449
0.00732752
-0.0687585
-0.00801055
-0.00160627
-0.0821597
-0.0420212
0.0103547
0.00451668
0.00396889
0.000194659
0.00516502
0.000227238
-0.00762087
-0.119567
-0.0720597
-0.0729148
0.00436808
-0.156968
-0.0443613
0.000533637
0.00019909
-0.0998801
0.00609974
-0.00544255
0.00646868
-0.0671358
-0.21019
-0.0119973
0.000232247
-0.00033369
0.00560356
0.00385287
-0.0442462
0.00812382
0.00310328
-0.113567
-0.0748217
0.00245428
-0.00604721
-0.00800459
-0.273371
2.40906e-05
-0.191288
-0.119249
0.00539522
-0.0178765
-0.199987
0.0809758
0.00647715
-0.0184237
-0.00444262
-0.00275727
0.000420582
0.00524196
-0.0828043
-0.14981
-0.166778
0.000167258
-0.0745788
0.00499283
-0.00765443
-0.000549954
0.00639238
-0.00179323
0.00244963
-0.228659
-0.00357416
-0.0243883
-0.0538136
-0.186479
0.00498855
-0.0310972
-0.206026
-0.0946399
0.00431846
-0.140542
-0.000124569
0.000106459
0.00612337
0.000873972
-0.000947613
-0.140478
0.0128362
-0.00546507
0.0184061
-0.1212
-0.160861
0.0155446
0.00233077
0.00769327
0.0129132
-0.228253
0.00440617
-5.07533e-06
0.00628625
-0.0621774
0.00695509
0.00129031
-0.138128
-0.0180291
0.00532467
0.00479414
-0.00560958
0.00216788
-0.0714919
0.000310478
-0.144826
-0.0181394
0.00456319
-0.140982
-0.175635
-3.98914e-05
-0.036346
0.0045079
-0.159925
-0.0104828
0.0169188
-0.00521552
0.00287799
0.00795144
-0.151725
-0.00106644
0.000806481
0.00549105
-0.0392024
-0.014916
-0.120775
-0.124355
0.00453886
-0.0814273
0.000255931
-0.00995242
-0.116654
-0.138554
0.0151255
-0.101822
0.0532233
0.00398763
0.00147704
-0.0487583
-0.0145205
-0.00304213
-0.0791961
-7.92092e-05
-0.109901
-0.00497582
0.0254067
0.00664523
0.0190523
-0.0926321
-0.0113911
-0.0452448
0.000387789
-2.20026e-05
0.022218
-0.0901279
-0.0130599
-0.0902274
-0.0214386
-0.144393
0.0080594
-0.0766241
0.0304972
-0.237367
0.00623687
0.000529431
0.00667453
-0.0844392
-0.00198637
-0.00562893
-0.00547649
0.00350715
8.51826e-05
0.00615168
-0.247959
-0.0587988
-0.115276
-0.169149
0.00592852
-0.163954
-0.0928878
-0.0513525
-0.150794
-0.0960436
0.0185561
-0.108547
-0.00488049
-0.012568
-0.0660477
-0.0786428
0.000403264
-0.0584861
0.00862196
0.0055232
0.0721393
-0.11921
-0.0666481
-0.0789348
0.0065137
0.00290152
0.00619162
-0.0822813
-0.169631
0.00651338
-0.0288569
-0.0424494
0.00539912
0.00569685
-0.097468
-0.0724242
0.00602596
0.00642636
-0.00227262
0.00992517
-0.00918632
0.00102895
0.00212821
0.00691101
-0.00916047
-0.0857478
-0.02537
-0.102213
0.004543
0.00925577
-0.106103
-0.0920893
0.0127303
0.019146
0.00654078
-0.00775412
0.00870381
0.000385825
0.0125461
0.00261723
-0.0242867
0.0116057
0.00177781
0.00912918
0.0223395
0.0156388
-0.0974018
0.00525938
0.00629904
-0.0858386
-0.0259786
-0.00550284
0.00431897
0.00664819
0.000843281
0.00580832
0.00254198
9.25979e-05
0.00589958
-0.0995725
0.00563509
0.00371094
0.00265231
0.000207281
0.00798559
0.033491
-0.00820781
-0.0318166
-0.154404
0.00188399
0.00237785
0.00650856
0.00469196
0.00660914
0.0031157
0.00622195
0.00393183
-0.120634
0.00565452
-0.0340878
-0.103517
-0.00503214
0.00718349
0.00506325
-0.00632788
0.0841087
0.00653156
0.0641751
-0.0621389
0.0194895
-0.00328005
-0.10367
0.00018659
0.0030732
0.000145554
0.00019614
0.00712187
-0.000103599
0.00639492
-0.0856625
0.0182649
0.000726598
-0.0769365
-0.0576938
-0.0642109
-0.0138716
-0.114843
-0.151412
-0.0248767
0.0833289
-0.0957585
-0.0481321
-0.00483871
0.00105984
-0.000851123
-0.0726561
0.00604661
0.00152217
0.0492508
-0.0101506
-0.0856486
-0.0110801
0.0029795
0.000498193
0.00574644
0.00167437
-0.000472612
-0.00296034
-0.163312
-0.108958
-0.00126523
0.0062638
-0.000185858
-0.0360211
-0.0457143
-0.0942155
0.0251579
-0.0634598
0.00519776
-0.0619107
-0.0680372
0.00538321
0.0109412
0.00625543
-6.37364e-06
0.0114279
0.00792981
0.00735076
0.00169585
-0.101483
-0.0347692
-0.0870842
0.000888667
0.0411123
-0.0522007
0.00624602
0.000244726
-0.001041
0.000160846
0.00141066
-0.00604636
0.0692557
-0.00660311
-0.0750115
-0.00749755
-0.170794
-0.00387114
-0.089225
-0.0725832
0.00785199
0.000480203
-0.00499746
0.00678233
-7.91088e-05
-0.0256192
-0.0967625
-0.0676282
0.00573293
0.00518299
0.0039384
0.00456057
0.0539618
-7.75438e-05
0.0117594
-0.0710004
5.87067e-05
-0.00177526
0.00480982
0.0501978
0.00260218
-0.0631037
-0.0421174
0.0102996
-0.0842948
-0.0453385
-0.0790778
0.000196334
0.0073832
0.00408303
0.00484451
-0.222539
0.000285401
-0.124624
-0.000904759
0.00339414
0.0067127
-0.0785209
-0.0202267
-0.0411574
-0.0248823
0.000746636
0.0114796
-0.125441
0.00792083
-0.00085389
0.0064619
0.00727069
0.0253191
0.004427
0.00135894
-0.070882
-0.0719953
-0.0835302
-0.0166373
-0.0644768
-0.154677
-0.0377588
-0.0706131
-0.00814273
0.00019608
-3.81433e-05
0.000106753
0.0080429
-0.0806371
-0.0839339
0.000189191
-0.121187
-0.0710749
-0.0169076
0.00550759
0.00667088
-0.0411077
-0.0983873
-0.0957139
-0.0443637
-0.0917324
9.00253e-05
-0.0597308
-0.0230776
-5.22405e-05
-0.064799
0.00597513
-0.0496675
-0.134681
0.00969127
-0.0434506
0.00879454
-0.00337788
-0.143294
-0.0755573
-0.0389236
0.0037632
-0.108604
-0.0482169
-0.0704536
-0.0798494
-0.102792
-0.0479055
-0.0488633
0.00525668
0.00691067
-0.0211498
-0.0800111
-0.00112099
-0.0761994
0.0015352
0.0194486
0.00578402
0.00167683
-0.0937692
0.00604104
-0.0515329
-0.0963109
0.00623128
0.0483092
0.0845465
-0.0743489
-0.0460783
0.0328911
-0.00260723
0.00516179
-0.0786768
-0.00114534
-0.00153116
-0.0142096
-0.0011523
-0.0767432
-0.00352269
0.00644186
0.000543084
0.000189543
0.0600746
0.0052933
-0.0489083
0.00248983
0.0027524
-0.0671358
-0.0281244
0.00531743
-0.118391
-0.0682965
0.0066903
0.0110331
0.00227778
-0.0727074
0.000573775
0.000210922
-0.0463297
0.0048712
-0.0752384
-0.0872435
-0.0335683
-0.0152711
0.010647
0.0065232
0.0549597
-0.00812049
0.00644156
-0.0688455
-0.0266619
0.00533201
0.00190636
-0.00372764
0.00644809
-0.105023
-0.0635066
-0.00830206
-0.144556
-0.031431
0.00735247
0.00502662
-0.0734999
-0.0762908
-0.189832
0.00613353
0.000112395
-0.0236424
0.00692969
-0.0195834
0.00656305
-0.0328551
0.00435085
-0.00290212
0.00250875
-0.00812911
0.0451668
-0.0481986
-0.0699174
-0.0109219
-0.103676
-0.0907428
0.000108083
-0.065969
-0.0660621
-0.0801437
0.000694606
0.0180232
-0.0828022
-0.180638
-0.0478499
-0.0480682
-0.0222973
-0.0703554
-0.0286631
-0.0675384
0.00233814
-0.022626
-0.0270096
0.00613487
-0.0367171
-0.166097
0.00335634
-0.185794
-0.0581063
0.00648465
0.00394926
0.0103176
0.00607244
-0.000845968
-1.54742e-05
0.00300942
-0.0660896
-0.0604049
0.0201525
-0.0322058
0.00194532
0.0165127
-0.145664
-0.0799598
-0.146956
-0.0124405
-0.0831286
0.00818848
0.000350324
-0.00685491
-0.0973908
-0.05532
-0.0539052
-0.0615561
-0.00014617
0.00282032
0.00604458
0.000856807
-0.0095084
-0.127874
-0.0634768
0.001262
-0.0917075
-0.10884
-0.00327006
-0.209891
0.0053141
-0.00415945
-0.0272725
0.00565844
0.000378949
-0.00280629
-0.00292059
-0.108802
-0.0781076
-0.000175036
-0.0259314
0.000465985
0.0136181
-0.249233
0.0521894
-0.0730228
0.0067403
-0.0405818
-0.0769301
-0.0405542
-0.0468605
0.00331141
-0.0522336
-0.0636372
-0.0701649
0.000181263
-0.0550912
9.40486e-05
0.0102026
0.00604406
0.00243187
-0.0660906
-0.0950849
-0.0311855
-0.172201
0.00143518
-2.61048e-05
0.00491177
0.00542703
0.0054529
-0.0168326
-0.0697749
-0.0703808
-0.0394866
-0.00774741
0.00827441
0.00417259
0.00319855
-0.0737366
0.0186554
0.00665057
0.0374106
-0.0359011
-0.110657
-0.0750747
0.00385176
-0.145242
0.00448257
-0.193403
-0.066664
-0.0699873
-0.0259396
0.00822004
0.00643067
0.00521486
-0.10568
-0.141813
-0.00163067
-0.0377343
-0.0664875
-0.0105984
0.0089116
-0.00529701
0.0226811
0.00557911
-0.0471094
0.00759801
-0.00275124
0.00803466
-0.000315811
0.00384337
-0.122922
-0.0546943
0.00936962
0.00598146
-0.00885348
0.0103022
0.00541203
0.032397
-0.0182817
-0.00565499
-0.152626
0.00569753
-0.0759951
0.00668653
0.0121855
0.0072626
-0.0790503
0.00952077
-0.0661859
-0.239481
0.00772752
0.0107483
-0.0488824
-0.040414
-0.0501554
-0.0118433
0.00547069
-0.028103
-0.00170307
-0.0684572
-0.0094014
0.00551763
0.000147567
0.01016
-0.00803119
0.00498617
-0.0292449
-0.025274
0.0046533
0.0122447
-0.236761
-0.0963769
0.0155866
-0.0162074
0.000141737
-0.0431391
-0.013527
-0.0350904
-0.00995744
-0.027752
-0.0983239
-0.000117774
0.0062291
0.0114059
0.0129969
0.0068629
-0.0670002
0.00248753
0.00335125
0.0128704
-0.0898981
-0.0595162
-0.00888764
-0.0373577
-0.0354003
-0.0612325
-0.163917
0.0260762
-0.000918889
-0.0260803
0.00618597
0.00803086
-0.0716188
-0.0693775
-0.0200636
0.00561235
-0.0574697
0.0518858
-0.0591957
0.00624863
-0.0161835
0.00194548
0.00551435
0.046045
0.00367888
0.000597504
0.0053846
0.00507832
-0.0591804
-0.103844
0.00748586
-0.0909695
-0.0625155
-4.8548e-05
-0.00572023
-0.0673809
-0.00886484
-0.039138
0.00570238
-0.00158642
0.00773334
7.99309e-05
0.00589915
0.0740044
-0.00201483
-0.0679553
-0.041074
-0.00617447
-0.0652129
0.0291173
-0.0120305
0.0057306
-0.0211812
-0.0167846
-0.0040314
-0.0301656
-0.0167404
0.00813238
0.0185326
-0.00307105
0.00747391
7.1002e-05
0.00677696
0.00604683
0.0180797
0.0135178
-0.0175896
0.000311472
-0.0108884
-0.0132305
-0.301436
0.0455707
-0.0801281
0.0210118
-0.0764978
0.00369995
-0.0329092
-0.00956481
0.00647061
-0.0211975
0.0516428
-0.0112016
-0.00958797
-0.00526009
-0.0267611
-0.0767395
-0.00878111
-0.000419017
-0.0293613
-0.116001
-0.0470391
-0.0172375
0.000362525
0.00283836
0.0169515
0.0122604
-0.0101393
-0.114592
-0.075185
0.0448373
-0.0799353
0.00499016
0.0112998
0.0063387
-0.00292264
0.00518205
-0.014211
0.0429697
0.0150372
0.00612542
-0.146559
-0.00235494
-0.0927929
-0.00145279
0.00801248
-0.0135409
-0.0373872
0.00329495
-0.041462
-0.00150092
0.012552
0.00050444
0.0058733
-0.125739
-0.0596427
0.00544919
0.00649713
-0.000262852
0.00639139
0.0055024
-0.0354979
-0.00414146
-0.156696
-0.063153
-0.0396615
-0.0137454
-0.00102004
0.0063015
-0.034471
0.028062
0.00909837
0.010205
-0.0209365
0.0115054
0.00694278
-0.0248991
-0.0799476
0.0106121
0.00844886
-0.106144
-0.0124802
0.000540191
0.00996745
0.00804495
-0.000608006
0.00743981
-0.0737979
0.0017285
0.0016698
-0.0875811
-0.0465369
-0.0211341
-0.0120234
-0.0247976
-0.0719994
-0.0378228
0.00021107
0.00903809
-0.0222712
0.00533807
-0.0115944
0.00526958
0.00606936
-0.128465
-0.0102746
0.0127801
0.00281657
-0.0352529
0.0116961
-0.00195806
0.000290011
-0.00383031
0.00693245
0.00563832
-0.00834622
-0.01026
-0.0242694
0.00864159
-0.00243651
0.00335255
-0.031934
0.00693964
-0.0127827
0.0127252
-0.0441267
-0.00991572
-0.120966
0.00536071
-0.227147
0.0108847
-0.0492722
0.0119044
-0.0562515
-0.0375975
0.00795217
-0.0275221
-0.0232422
-0.00724713
0.00534086
0.00652524
0.00627422
0.000202145
-0.000351041
-0.0700168
-0.000429226
-0.0431272
0.0118399
-0.00653245
0.00736049