/*--------------------------------*- C++ -*----------------------------------*\
| =========                 |                                                 |
| \\      /  F ield         | OpenFOAM: The Open Source CFD Toolbox           |
|  \\    /   O peration     | Version:  v2012                                 |
|   \\  /    A nd           | Website:  www.openfoam.com                      |
|    \\/     M anipulation  |                                                 |
\*---------------------------------------------------------------------------*/
FoamFile
{
    version     2.0;
    format      ascii;
    class       surfaceVectorField;
    location    "450";
    object      Uf_0;
}
// * * * * * * * * * * * * * * * * * * * * * * * * * * * * * * * * * * * * * //

dimensions      [0 1 -1 0 0 0 0];


internalField   nonuniform List<vector> 
20673
(
(1.10847 0.169449 0)
(1.11345 0.167689 1.39422e-20)
(1.10885 0.163899 0)
(1.03117 0.0581093 2.0855e-21)
(1.02962 0.057134 2.09854e-21)
(1.02993 0.0596935 1.53092e-21)
(0.16911 -0.0312219 -2.12206e-20)
(0.189627 -0.0333712 -2.2381e-20)
(0.20706 -0.0341012 6.94801e-21)
(1.09251 -0.0183518 -2.03143e-22)
(1.09245 -0.0163521 0)
(1.09061 -0.0174166 -4.46935e-21)
(0.996542 0.00722262 0)
(0.996361 0.00682361 5.07357e-21)
(0.996066 0.00768547 0)
(0.369612 0.0620496 1.27246e-20)
(0.3588 0.0349433 -5.17658e-20)
(0.340879 0.0616941 -1.34207e-19)
(0.143322 -0.0278538 1.48336e-21)
(0.138993 -0.0284243 2.55838e-20)
(0.17097 -0.0309499 -5.13592e-20)
(0.201029 -0.0334349 -1.18368e-20)
(0.171595 -0.0317531 -1.08353e-20)
(0.182027 -0.032034 -9.80672e-21)
(0.0914246 -0.0230325 9.51517e-22)
(0.0764691 -0.0217145 4.19091e-20)
(0.0589709 -0.0204831 4.09831e-20)
(1.14598 0.205308 1.28702e-20)
(1.15231 0.206597 -2.84001e-20)
(1.14863 0.212117 -2.52348e-20)
(1.2377 -0.0385541 0)
(1.23725 -0.0408756 -2.60499e-20)
(1.25178 -0.039592 -6.25276e-20)
(1.18637 -0.0495448 -5.95495e-21)
(1.18876 -0.0510358 0)
(1.18782 -0.0476128 0)
(1.09429 -0.0185382 1.02086e-20)
(-0.191741 0.00241762 4.02212e-21)
(-0.204544 -4.99398e-05 5.35218e-20)
(-0.192616 0.000431973 1.85608e-20)
(0.975937 0.120583 -1.88159e-21)
(0.971439 0.119786 6.52706e-21)
(0.974843 0.115733 -4.02081e-21)
(1.00022 0.116431 -3.2685e-21)
(0.99775 0.113419 -2.31522e-21)
(1.00193 0.112208 -2.09843e-21)
(1.02277 0.0651543 3.23746e-22)
(1.02454 0.0648039 6.7243e-22)
(1.02308 0.0631506 6.61638e-22)
(1.19564 0.0690226 1.49329e-20)
(1.19544 0.072231 1.48636e-20)
(1.19894 0.0696861 -6.52334e-21)
(1.18518 -0.0522166 4.11311e-22)
(1.18351 -0.0488757 4.34555e-20)
(1.00208 0.00658493 -8.4835e-23)
(1.00208 0.00628155 -8.77161e-23)
(1.00183 0.00604662 1.5833e-23)
(0.999989 0.00126089 -1.73114e-21)
(0.999981 0.00169727 -1.68976e-21)
(0.999992 0.00126297 -3.36475e-22)
(0.143357 -0.0281239 1.6289e-20)
(0.119131 -0.0272775 -2.13567e-20)
(1.00148 0.0104768 -2.41649e-21)
(1.00161 0.0111293 6.46363e-22)
(1.00174 0.0108943 0)
(0.226098 -0.0363467 -3.04599e-20)
(0.232521 -0.0366122 8.64885e-21)
(0.996453 0.0227625 1.48901e-21)
(0.995941 0.0226196 4.10878e-22)
(0.996292 0.0236387 -9.89317e-22)
(0.182642 -0.0310895 1.77828e-21)
(0.158115 -0.0283918 6.85389e-21)
(0.154763 -0.0293289 -4.12938e-21)
(0.786529 0.0545843 7.35559e-20)
(0.777306 0.059994 3.62642e-20)
(0.778909 0.0480357 4.1155e-20)
(0.756457 0.13871 8.33285e-20)
(0.75453 0.151268 4.17906e-20)
(0.745944 0.141651 2.14355e-20)
(0.688053 0.570875 7.29386e-21)
(0.718347 0.583463 1.31718e-20)
(0.694428 0.615197 -2.17782e-21)
(1.21863 0.167364 0)
(1.21978 0.162512 -1.2323e-20)
(1.22417 0.165477 -3.24735e-20)
(1.13109 0.159696 1.50899e-20)
(1.12695 0.162056 0)
(1.12687 0.156818 0)
(1.07738 0.124062 -6.75198e-21)
(1.07385 0.124296 -3.16416e-22)
(1.0754 0.120553 -4.5204e-21)
(0.839608 0.0907565 6.51481e-21)
(0.831703 0.093327 -2.80587e-21)
(0.833297 0.0838054 5.93744e-21)
(0.907137 0.0208017 2.33894e-20)
(0.909897 0.0176535 1.11573e-20)
(0.911192 0.0215365 1.15449e-20)
(0.992309 0.0198132 -3.58086e-21)
(0.991804 0.0207992 -3.76339e-21)
(0.992564 0.0208652 0)
(0.836037 -0.0583373 -1.69492e-20)
(0.825421 -0.0593262 -4.3775e-21)
(0.765719 -0.0580177 -2.45309e-20)
(1.00129 0.010008 2.30006e-21)
(1.00145 0.00984551 -3.53149e-21)
(-0.0947022 -0.0104863 0)
(-0.113353 -0.00913067 1.88337e-20)
(-0.105361 -0.00958547 0)
(1.10651 -0.0231926 0)
(1.10865 -0.0243563 8.63578e-21)
(-0.0206992 0.0039525 -1.21874e-20)
(-0.0401651 0.00628508 -4.27057e-20)
(-0.0176249 0.00582921 -6.03881e-21)
(1.01132 0.0012891 2.23109e-21)
(1.01186 0.00126907 -1.1162e-21)
(1.0108 0.00074231 -3.7592e-22)
(0.999997 0.000866078 -2.70328e-21)
(1 0.000403004 3.31063e-21)
(1 0.0004382 -2.81309e-21)
(1.0288 0.00293601 1.47956e-21)
(1.02837 0.0032385 -6.8891e-21)
(1.02816 0.00276931 -5.16439e-21)
(0.689132 0.212127 1.59023e-20)
(0.705119 0.220642 -4.32341e-20)
(0.687521 0.233891 -4.05447e-20)
(1.05497 0.036117 5.53309e-21)
(1.05625 0.0372883 5.74184e-21)
(1.05674 0.0360233 5.64086e-21)
(0.890019 0.0375149 7.95263e-21)
(0.888509 0.0328958 -3.1037e-20)
(0.893996 0.0339212 -2.35913e-20)
(1.19645 0.0650854 3.74392e-20)
(1.19233 0.0674719 7.03033e-21)
(1.21997 0.034732 3.47628e-20)
(1.21703 0.0363936 -4.72871e-21)
(1.21723 0.0328654 3.72693e-20)
(0.0890267 0.11753 7.87348e-21)
(0.0875414 0.15277 -1.32701e-19)
(0.11753 0.132723 -6.81379e-20)
(1.00425 0.000995592 -8.95619e-22)
(1.00464 0.000906495 -2.98054e-23)
(1.00457 0.00139857 -2.62366e-22)
(1.12731 0.0354604 0)
(1.12828 0.0372628 1.22143e-20)
(1.12976 0.0351855 1.24479e-20)
(0.966242 0.0240375 -7.32199e-21)
(0.964987 0.0228025 -8.92303e-21)
(0.964654 0.0250871 0)
(0.083474 0.0878107 3.52803e-20)
(0.0498246 0.118698 2.51505e-19)
(0.904065 0.024031 1.21069e-20)
(0.9029 0.0196005 5.67616e-23)
(1.02247 0.0670816 -9.34274e-23)
(1.02084 0.0651762 1.00247e-22)
(1.11873 0.0655393 1.37051e-20)
(1.1171 0.0679504 -2.34163e-20)
(1.12052 0.0683825 -1.37802e-20)
(1.23784 -0.0360328 0)
(1.23297 -0.0374672 -2.97818e-20)
(0.998343 0.0429239 1.06804e-21)
(0.998227 0.0411 -3.30877e-22)
(0.999501 0.0422546 1.12686e-21)
(1.09745 0.0693848 0)
(1.09995 0.0712573 0)
(1.09692 0.0724406 9.89591e-21)
(1.05325 0.0361603 0)
(1.05359 0.0349186 0)
(0.283503 0.0383584 -1.49062e-20)
(0.182768 0.0214056 -9.08624e-20)
(0.217432 0.0260327 -5.19568e-20)
(1.0328 0.0573141 -1.16726e-21)
(1.03287 0.0598383 1.55794e-21)
(-0.19334 0.00470682 1.46171e-21)
(1.00209 0.00686021 0)
(1.00234 0.00711173 -4.87515e-22)
(0.376809 0.0974791 9.22235e-20)
(0.401249 0.0675915 0)
(0.860928 0.32779 5.1385e-20)
(0.809709 0.299336 -1.54057e-20)
(0.561698 0.199464 6.44279e-20)
(0.995642 0.00357678 3.56393e-21)
(0.995183 0.00403983 -1.26173e-21)
(0.987482 0.00706515 -3.07765e-21)
(0.988247 0.00668146 -1.66101e-21)
(1.25354 0.0100745 2.8782e-20)
(1.2535 0.00781847 4.17449e-20)
(1.26901 0.00943512 5.48984e-20)
(1.06913 0.174419 -8.97223e-21)
(1.07481 0.175353 -1.89129e-20)
(1.07009 0.181011 -1.23984e-20)
(0.996959 0.00680731 -3.21894e-21)
(0.996713 0.00762064 4.08066e-21)
(0.124943 -0.0256006 -2.27958e-20)
(0.106352 -0.0240053 -6.85942e-20)
(-0.203544 -0.010143 3.36801e-20)
(-0.186524 -0.0111506 5.08678e-21)
(-0.190614 -0.0109305 1.62254e-20)
(0.99716 0.02282 1.88668e-22)
(0.996761 0.0216274 3.78797e-21)
(0.0874846 0.187141 6.58931e-20)
(0.121235 0.206155 7.04349e-20)
(0.0885595 0.225152 -1.95451e-20)
(1.18526 -0.0723533 -1.4616e-20)
(1.18246 -0.0719971 0)
(1.18381 -0.0696088 -2.70577e-20)
(-0.229402 -0.00602737 -2.71819e-21)
(-0.209133 -0.00778104 7.8551e-20)
(-0.223152 -0.005256 3.29522e-20)
(1.07739 0.0416908 -4.60328e-21)
(1.07924 0.0427151 0)
(1.07735 0.0438919 -3.25212e-21)
(0.172522 -0.0270325 5.6881e-21)
(0.169186 -0.0280761 -1.90345e-20)
(0.198492 -0.0304879 -2.01511e-20)
(0.999964 0.00255726 -6.31497e-21)
(0.999918 0.00301152 -2.99586e-21)
(0.999938 0.00304249 3.14804e-21)
(1.00015 0.00402156 -1.43915e-21)
(1.00017 0.00443542 2.35142e-21)
(1.00017 0.00391821 1.39605e-21)
(0.996065 0.00359674 -3.57495e-22)
(0.385247 0.123678 -3.9324e-20)
(0.394721 0.154015 -4.8001e-20)
(0.416782 0.130907 -2.02294e-19)
(-0.0739197 -0.0123257 -1.19537e-20)
(-0.0815839 -0.0118967 -4.03434e-20)
(-0.110977 -0.00132845 8.54113e-20)
(-0.137356 -0.00379198 -1.6072e-20)
(-0.130449 -0.00336344 1.47098e-19)
(1.07542 0.0407654 -7.00386e-21)
(1.0773 0.0397137 3.33445e-21)
(1.00056 0.00560629 1.03257e-21)
(1.00062 0.00549018 -7.01728e-22)
(1.00047 0.00504825 4.86044e-21)
(0.898251 0.359583 -1.63658e-20)
(1.05218 0.433073 -1.06009e-20)
(1.12562 0.0334188 0)
(1.12442 0.0358083 0)
(1.02917 0.00273639 1.86998e-21)
(1.02939 0.00319531 4.93942e-21)
(-0.148941 -0.0113188 3.96929e-20)
(-0.167644 -0.0106479 -3.21053e-20)
(-0.160118 -0.0106907 3.15619e-20)
(1.19415 0.195335 -2.18145e-20)
(1.18797 0.195729 -1.58557e-21)
(1.19002 0.200797 -9.66737e-21)
(1.0333 0.0342967 4.00144e-22)
(1.03377 0.0332342 -5.36295e-21)
(1.03237 0.0331184 -9.06209e-22)
(0.976915 0.070985 0)
(0.974746 0.072476 7.8804e-21)
(0.977416 0.0738919 0)
(1.02105 0.417267 -1.48793e-19)
(0.801322 0.333687 -7.69294e-20)
(0.373721 0.00814579 -4.67445e-20)
(0.402719 0.00210105 3.39616e-20)
(0.380572 -0.0262209 6.32999e-20)
(1.23815 -0.0106638 -4.55974e-20)
(1.24016 -0.00896455 -1.94046e-20)
(1.24272 -0.0118113 -2.25898e-20)
(1.21125 0.0433686 3.51189e-20)
(1.21401 0.0452437 -3.53606e-21)
(1.21101 0.0467583 1.70778e-20)
(1.20729 -0.0758656 -9.84967e-21)
(1.20701 -0.076874 -1.27749e-20)
(1.2059 -0.0782085 -1.0184e-21)
(0.589114 0.14332 -5.17488e-20)
(0.609623 0.129795 3.15713e-20)
(0.610456 0.156036 -4.54341e-20)
(1.01504 0.00793635 -1.603e-21)
(1.01567 0.00809469 1.66233e-21)
(1.01542 0.00863137 3.85038e-21)
(0.839905 0.0183361 2.62442e-20)
(0.84324 0.0257168 1.74876e-19)
(0.847471 0.0189251 -1.11293e-20)
(0.672973 0.204737 1.04169e-19)
(0.691458 0.196753 4.8629e-20)
(1.08976 0.0352592 7.50411e-21)
(1.09172 0.0352602 1.75793e-20)
(1.0904 0.0331175 -8.3344e-21)
(1.02279 0.0175407 -2.38378e-21)
(1.02282 0.0167466 -4.3477e-21)
(1.02363 0.0175041 -1.70347e-21)
(0.10298 -0.0220307 4.05822e-22)
(0.0982018 -0.0219631 -1.50266e-20)
(0.138352 -0.0219007 -7.78108e-20)
(0.794324 0.516314 -1.19176e-20)
(0.765734 0.532167 2.80657e-20)
(0.802819 0.542178 -1.86226e-21)
(1.22275 0.033612 0)
(1.22229 0.0371255 -1.71439e-21)
(1.02648 0.0643888 1.5981e-21)
(1.0264 0.0666201 -3.1051e-22)
(1.12652 0.173095 -1.79004e-20)
(1.12203 0.175114 1.76242e-20)
(1.12665 0.178642 -1.66154e-20)
(-0.188833 -0.0115349 0)
(-0.209 -0.0121206 1.43858e-23)
(-0.201137 -0.01162 -2.11799e-20)
(-0.00519616 0.0015586 6.44236e-20)
(-0.0267412 0.00401174 -7.2338e-21)
(1.19885 -0.0569731 -1.00139e-20)
(1.19809 -0.0589279 -2.55834e-20)
(1.2005 -0.0581271 -3.57935e-20)
(0.102653 -0.0215564 3.84947e-20)
(0.0701698 -0.0219959 1.75566e-20)
(0.948873 0.0243947 -2.77174e-20)
(0.947508 0.0266441 7.32817e-21)
(0.946704 0.0239213 -1.20669e-20)
(0.0905415 -0.137226 9.8994e-20)
(0.100757 -0.107175 -8.10735e-20)
(0.0632472 -0.113602 0)
(1.00243 0.0194259 -6.07845e-22)
(1.00263 0.0203692 -5.04183e-21)
(1.00215 0.0199477 -5.28064e-21)
(0.17936 0.094234 -2.06021e-21)
(0.20971 0.0769519 1.54913e-20)
(0.209877 0.11186 -9.52477e-20)
(-0.11281 0.00110885 -6.42901e-21)
(-0.106812 0.00118877 3.82394e-20)
(-0.0927487 -0.00206256 0)
(0.906721 0.0319733 1.73993e-20)
(0.903895 0.0353682 1.21575e-20)
(0.908559 0.0356841 -2.23986e-20)
(1.00002 0.00131578 1.18478e-21)
(0.999995 0.00130529 -2.45704e-21)
(1.25406 0.0124449 3.42914e-21)
(1.25243 0.0111638 -3.89297e-20)
(-0.130597 -0.00152619 -8.66456e-21)
(-0.111995 -0.00332139 -1.80082e-20)
(-0.117081 -0.00294254 2.21286e-21)
(0.75891 0.126781 2.01346e-20)
(0.770219 0.135981 -1.79656e-20)
(1.00651 0.000897097 8.21637e-22)
(1.00683 0.00130211 -1.38114e-22)
(1.00696 0.000776895 1.06326e-21)
(0.976784 0.0678872 6.23933e-21)
(0.979332 0.0693192 -6.01431e-23)
(1.04897 0.0401185 4.69274e-22)
(1.05001 0.0414359 -7.91782e-21)
(1.04846 0.0413862 -1.26916e-21)
(1.00609 0.00090849 -4.71958e-22)
(1.0059 0.000452269 -8.93122e-22)
(1.02438 0.00247493 -1.48337e-21)
(1.02469 0.00222005 1.79676e-21)
(1.02422 0.00210861 -1.57338e-21)
(0.345691 0.00831494 -1.46615e-19)
(-0.0340546 -0.0113486 -1.26477e-20)
(-0.0421584 -0.00954469 2.00095e-21)
(-0.0520524 -0.00788362 2.20174e-20)
(0.95035 0.021805 1.14784e-20)
(0.951445 0.0245039 -4.47906e-22)
(1.05746 0.0384045 -1.12314e-20)
(1.05567 0.0385754 -6.16029e-21)
(0.999975 0.00123798 3.1604e-21)
(1 0.000834447 0)
(0.803512 0.0427773 -3.25883e-20)
(0.847891 0.0477186 0)
(0.748847 0.0381066 0)
(0.255143 -0.0388771 -4.20765e-20)
(0.220003 -0.0356413 1.97786e-20)
(1.10776 0.17471 0)
(1.10355 0.17058 -1.18078e-20)
(0.572174 0.153668 5.20909e-20)
(0.573849 0.126057 -1.39134e-19)
(0.995163 0.0045153 1.36046e-21)
(0.994683 0.00445898 -1.78588e-21)
(0.905213 0.0280127 4.95657e-21)
(0.909532 0.0290046 9.87846e-21)
(0.903435 -0.0573013 1.66331e-21)
(0.910342 -0.0568514 -2.09381e-20)
(0.97445 -0.0554079 -3.57266e-21)
(1.03557 0.0186069 4.31606e-21)
(1.03548 0.0194399 0)
(1.03445 0.0186668 0)
(0.963904 0.0373978 5.28086e-21)
(0.961765 0.0384582 -1.1772e-20)
(0.962395 0.0355761 -3.40388e-20)
(0.65583 0.207945 1.10006e-19)
(0.635054 0.213083 -4.21334e-20)
(0.65299 0.230693 5.20649e-20)
(0.98729 0.00783403 -8.20764e-21)
(0.986665 0.00751741 -5.86908e-21)
(0.240579 -0.0267008 -1.11512e-21)
(0.196443 -0.0248296 5.69689e-22)
(0.237967 -0.0259945 -1.01974e-21)
(0.775848 0.618151 -4.70623e-21)
(0.784988 0.590451 -3.94762e-21)
(0.751535 0.589038 9.08158e-22)
(0.967677 0.0255563 2.00594e-21)
(0.968145 0.0231542 8.28706e-21)
(1.03342 0.0155445 -4.71873e-21)
(1.0335 0.0163548 3.91022e-21)
(1.03251 0.0156277 1.68133e-21)
(1.07011 0.131471 8.94973e-21)
(1.06589 0.131384 7.20369e-21)
(1.0682 0.136177 -5.76213e-21)
(1.19695 0.00466949 -1.14548e-20)
(1.19988 0.00407947 -8.42873e-20)
(1.1976 0.00730248 -3.69559e-20)
(0.115156 -0.158106 9.32767e-20)
(0.0759366 -0.168178 -9.82951e-20)
(1.2142 -0.0272613 -1.73063e-21)
(1.21674 -0.0262491 8.33621e-21)
(1.21611 -0.0291254 -3.04128e-20)
(1.02263 0.217834 -1.71797e-21)
(1.02648 0.212965 3.62227e-23)
(1.03066 0.218004 1.43129e-24)
(1.1029 0.0955948 -1.11369e-20)
(1.09992 0.0974469 6.91829e-22)
(1.09965 0.0936669 -1.06463e-20)
(-0.0786773 0.0134559 2.84676e-20)
(-0.0906208 0.0159841 -4.84955e-20)
(-0.114062 0.0116241 -5.18173e-20)
(1.06351 0.174124 1.52056e-20)
(1.06733 0.16928 1.3319e-20)
(0.622116 -0.041027 1.41736e-20)
(0.670806 -0.0385021 -1.27612e-20)
(0.689481 -0.0396856 0)
(-0.253454 -0.00635669 7.25233e-22)
(-0.233212 -0.00711827 -2.4158e-20)
(0.854919 0.0511707 5.41682e-21)
(0.750787 0.0374774 -1.39923e-20)
(0.942047 0.0630725 5.0717e-21)
(0.93918 0.0649472 2.63655e-20)
(0.93898 0.0610615 3.46082e-20)
(0.788888 -0.00880352 3.34392e-20)
(0.782976 -0.000497146 2.4759e-20)
(0.77746 -0.0115248 -7.72867e-21)
(1.00005 0.0030942 2.48511e-21)
(1.00007 0.00297264 -5.21938e-22)
(1.00001 0.00252885 1.09057e-21)
(1.23659 -0.0134572 7.36151e-20)
(1.23482 -0.0102491 5.32556e-20)
(1.19977 -0.0545467 2.90566e-20)
(1.19692 -0.0552866 2.12045e-20)
(1.20889 -0.0749119 -2.35222e-20)
(1.20907 -0.0741127 -1.13757e-20)
(1.08915 0.0371038 -2.22399e-22)
(1.08786 0.0351128 -1.04727e-20)
(1.20475 0.0240701 1.40322e-20)
(1.20436 0.0212465 2.67426e-20)
(1.20775 0.0224557 2.77098e-20)
(1.04604 0.0301394 -2.87424e-21)
(1.0472 0.0311079 0)
(1.04567 0.0313568 6.9387e-21)
(0.836815 0.0120658 -2.38627e-20)
(0.832203 0.0192025 -4.12487e-20)
(1.04976 0.214869 0)
(1.04231 0.213273 0)
(1.04847 0.207617 0)
(-0.271936 -0.0106302 -5.04863e-20)
(-0.283708 -0.0101619 6.41614e-20)
(-0.26334 -0.0102979 -7.15165e-20)
(1.19795 -0.0652538 7.81216e-21)
(1.20036 -0.0658609 1.63246e-20)
(1.19942 -0.0633266 3.16923e-20)
(1.02149 0.0749808 -6.94113e-23)
(1.02143 0.0772341 2.09472e-22)
(1.01927 0.0755991 4.41192e-23)
(0.308786 -0.0302296 -1.5003e-20)
(0.302501 -0.0297346 4.28046e-21)
(0.358804 -0.0293135 -1.78792e-21)
(1.01246 0.235579 8.93922e-22)
(1.0088 0.240354 3.5755e-21)
(1.01694 0.241111 7.91512e-21)
(-0.0265979 -0.0114623 -4.80144e-20)
(-0.0139918 -0.0129898 1.68508e-20)
(0.148837 0.0763458 -1.76128e-20)
(0.148931 0.113453 6.23428e-20)
(0.24919 -0.0271814 0)
(0.295162 -0.0263948 1.85406e-20)
(1.01867 0.0370085 3.45373e-22)
(1.01963 0.037968 0)
(1.01852 0.0381838 4.46117e-22)
(1.19993 0.195737 2.30397e-20)
(1.19767 0.1907 -1.16423e-20)
(1.13605 0.16265 1.54268e-20)
(1.13583 0.157421 1.55579e-22)
(1.03661 0.0184744 -6.29232e-22)
(1.03553 0.0177289 -2.13224e-21)
(1.00054 0.00575843 -2.2838e-21)
(1.00067 0.00621669 -1.6196e-21)
(0.935859 0.141667 -2.26404e-20)
(0.931917 0.137257 -2.38021e-21)
(0.938322 0.136921 -5.44817e-21)
(0.213031 -0.0343608 9.58403e-21)
(0.209027 -0.0338322 -5.35231e-20)
(1.25924 0.222754 0)
(1.26315 0.221849 -6.56458e-22)
(1.26171 0.227913 3.2379e-20)
(-0.0670346 0.0146642 2.00911e-19)
(-0.0201308 0.0244316 8.76335e-20)
(1.15651 0.0815203 -9.0681e-21)
(1.15494 0.0843688 -2.08567e-20)
(1.15871 0.0840224 1.07619e-20)
(1.21858 -0.0607576 2.69574e-21)
(1.21765 -0.0624756 2.25609e-22)
(1.21717 -0.0619892 1.78007e-20)
(0.93103 -0.0446291 4.47385e-20)
(0.883291 -0.0442977 1.67651e-20)
(0.880278 -0.0449726 8.74937e-21)
(-0.0818838 0.000862182 5.32675e-20)
(-0.0898022 7.67247e-05 -3.94311e-20)
(1.24636 0.260357 0)
(1.2481 0.254619 -1.44693e-20)
(1.25087 0.258482 6.25098e-20)
(1.00026 0.0113748 -5.65887e-21)
(1.0003 0.0107525 -7.68726e-22)
(1.00011 0.0106746 -6.05864e-21)
(0.564602 0.064201 7.2359e-20)
(0.569459 0.0844117 1.36699e-19)
(0.544853 0.0776477 7.37389e-20)
(0.795035 0.0513863 -4.11283e-20)
(0.794061 0.0625082 -1.3189e-21)
(1.01316 0.000544515 0)
(1.01265 0.000538239 0)
(1.03274 0.0351752 6.99746e-22)
(1.03424 0.0354032 1.04913e-21)
(0.844049 0.486703 0)
(0.840548 0.459667 0)
(0.866793 0.469936 0)
(1.1238 0.505787 5.6533e-20)
(1.11201 0.480613 -4.79536e-20)
(0.940181 0.402303 4.90923e-20)
(1.12187 0.00551826 1.47666e-20)
(1.12407 0.00469135 -1.06868e-20)
(1.12388 0.00709078 1.29514e-20)
(1.004 0.00119064 -2.67214e-22)
(1.00398 0.000741693 3.98382e-22)
(1.19927 0.0154728 2.72707e-21)
(1.19607 0.0165746 0)
(1.19955 0.0189112 -3.72142e-20)
(1.19654 0.00164951 4.47218e-20)
(1.19385 0.00468684 4.61509e-20)
(-0.216299 -0.00972496 9.46775e-21)
(-0.219859 -0.00967407 0)
(0.824543 0.0164566 4.85889e-20)
(0.840734 0.0152226 -3.13009e-20)
(0.913674 0.0234546 -1.88108e-23)
(0.992754 0.019098 -3.39282e-21)
(0.992245 0.0190787 -1.59652e-22)
(0.997182 0.0433482 0)
(0.998424 0.0444542 -3.8383e-21)
(1.20858 0.0414602 1.80681e-20)
(1.21144 0.0398135 -1.18337e-20)
(0.187917 -0.0329885 -2.10272e-20)
(0.223873 -0.035597 8.27951e-21)
(0.211599 -0.0349228 -1.39721e-21)
(0.965794 0.0360599 1.55888e-20)
(0.965617 0.0387469 8.32288e-22)
(0.133356 -0.0283513 1.81171e-20)
(0.126458 -0.0280309 -2.23574e-20)
(0.159843 -0.030459 -1.35808e-20)
(-0.255436 -0.00875156 -9.72037e-21)
(-0.236793 -0.00864923 4.00506e-20)
(-0.252575 -0.0085468 8.84151e-20)
(1.21636 -0.0591566 3.79268e-23)
(1.21979 -0.058956 3.34694e-22)
(1.0221 0.0174373 5.09518e-21)
(1.02277 0.0181866 -9.88186e-22)
(0.477429 0.392425 2.11816e-20)
(0.495269 0.427527 4.87055e-20)
(0.443325 0.42617 -4.94375e-20)
(1.20004 0.0363865 2.79121e-20)
(1.203 0.0379805 2.67166e-20)
(1.19986 0.0396351 -3.13376e-21)
(-0.278005 -0.0115959 6.73876e-20)
(-0.255671 -0.0124055 -4.83809e-20)
(-0.269225 -0.0104042 4.29623e-20)
(1.00546 0.0256295 -1.52533e-21)
(1.00598 0.0261721 0)
(1.00555 0.0267513 1.4365e-21)
(0.394922 0.0577614 4.6316e-20)
(0.362829 0.0538982 9.38322e-20)
(1.0176 0.035915 2.36309e-22)
(1.0187 0.035821 5.61036e-22)
(1.22406 0.141647 -2.73619e-20)
(1.2214 0.138069 -4.34607e-21)
(1.21962 0.142095 -2.9947e-20)
(1.01111 0.00167667 -1.4794e-22)
(1.01083 0.00116489 2.81991e-21)
(-0.102943 -0.0120483 7.14948e-21)
(-0.120696 -0.0117565 0)
(-0.108373 -0.0114173 0)
(0.0940282 -0.0215 7.4203e-21)
(0.0895009 -0.0211973 -1.96981e-20)
(0.12773 -0.0208208 -2.13575e-20)
(0.999492 0.120153 1.79189e-21)
(1.00356 0.118999 5.13292e-21)
(1.14572 0.534159 1.78085e-20)
(1.15754 0.53416 0)
(1.15913 0.519719 0)
(1.10627 0.0971815 -1.91867e-20)
(1.1053 0.0934829 -2.10033e-21)
(1.02113 0.0172551 7.85939e-22)
(1.02127 0.0164938 6.93597e-21)
(0.889737 -0.0604163 -1.48478e-21)
(0.832144 -0.0581176 3.00601e-20)
(1.19645 -0.0671283 -3.19028e-20)
(1.19556 -0.0646705 -4.98928e-21)
(1.15449 0.0790232 3.20278e-20)
(1.15784 0.0787075 1.12378e-21)
(0.24333 -0.0367568 -4.24181e-21)
(0.21538 -0.0353223 1.24228e-20)
(0.258485 -0.0374925 5.02747e-20)
(-0.259602 -0.00688057 -3.82779e-20)
(-0.272534 -0.00745032 -5.51338e-20)
(1.01637 0.00435559 1.54359e-21)
(1.01692 0.00442536 -1.14122e-21)
(1.01661 0.00383355 -4.1761e-21)
(1.08091 0.123497 -2.90796e-21)
(1.0795 0.12763 -1.17367e-20)
(-0.135243 -0.0121932 8.81334e-20)
(-0.128151 -0.0122126 2.43864e-20)
(-0.143579 -0.00388031 0)
(-0.162302 -0.00568542 0)
(-0.145862 -0.00406312 0)
(1.00003 0.00307216 1.48165e-21)
(1.00003 0.00359531 -1.35936e-21)
(1.00823 0.0122812 9.68272e-23)
(1.00881 0.0126517 -4.30023e-22)
(1.00851 0.0129323 -5.54755e-22)
(0.0134057 0.00364244 -1.86643e-20)
(0.0302529 0.00198867 -1.10615e-20)
(1.24876 -0.00534946 0)
(1.24783 -0.00740963 -1.73919e-20)
(1.24573 -0.00826727 0)
(1.00007 0.000161141 4.01882e-23)
(1.00003 0.000122694 2.41065e-22)
(1.00007 0.00020222 3.32132e-22)
(0.964064 -0.0626546 -1.50758e-20)
(0.971284 -0.0633592 5.81067e-21)
(1.02595 -0.063811 -5.03536e-20)
(1.23843 0.0817844 0)
(1.23901 0.0778787 0)
(1.23496 0.0793795 0)
(0.798113 -0.00850687 -2.35183e-23)
(0.79389 -0.018246 1.12589e-20)
(1.10826 0.149957 3.55044e-21)
(1.11099 0.15456 -5.53543e-21)
(1.11278 0.149145 -1.56177e-20)
(1.00007 0.00351306 -2.18011e-21)
(1.00009 0.0029444 -1.82191e-21)
(0.976107 0.24393 -2.02284e-21)
(0.978368 0.234046 -4.01666e-21)
(0.96797 0.237471 6.25318e-21)
(-0.242338 -0.00720257 -3.4004e-20)
(-0.241957 -0.00640176 -8.46535e-20)
(-0.26432 -0.00578298 -5.90733e-20)
(1.06127 0.00450694 -4.88054e-21)
(1.06175 0.00342535 -8.19469e-21)
(1.06294 0.0044135 -1.19264e-20)
(1.21108 0.214961 -2.37583e-20)
(1.20487 0.216599 -5.36468e-20)
(1.2074 0.209479 -2.33792e-20)
(0.561383 0.170888 -7.19436e-21)
(0.575926 0.192131 3.25487e-20)
(0.545936 0.196126 -9.72438e-20)
(1.0479 0.038742 1.65497e-21)
(1.04944 0.0386703 4.84723e-22)
(0.998192 0.0394696 -1.29322e-21)
(0.997157 0.0400452 -1.27878e-21)
(1.20097 -0.0247612 -2.4171e-20)
(1.20417 -0.0245675 0)
(1.20248 -0.0273656 0)
(0.044514 -0.00272453 7.5105e-21)
(0.0305416 -0.000380973 -1.61508e-20)
(0.0283615 -0.000493316 2.83312e-20)
(1.21144 -0.0286698 -9.28001e-21)
(1.21196 -0.0253472 3.07938e-20)
(0.938795 0.146524 1.11131e-20)
(0.932853 0.147464 0)
(0.98022 0.120676 -1.30794e-20)
(0.977238 0.124803 -5.14604e-21)
(1.00006 0.000349745 -3.25327e-22)
(1.00006 0.000303927 4.3155e-23)
(1.00002 0.000204176 5.87486e-23)
(-0.148978 -0.000396536 1.0501e-20)
(-0.143998 -0.000351619 -3.01499e-20)
(0.196737 -0.00947315 0)
(0.249784 -0.00954274 -8.8023e-23)
(0.248104 -0.00817879 -5.53842e-20)
(0.927645 -0.0712063 -1.01167e-20)
(0.905113 -0.0682243 7.27281e-20)
(0.874448 -0.0660309 3.12417e-20)
(1.02037 0.0171503 -2.56293e-21)
(1.02106 0.0179231 -5.24129e-21)
(-0.226499 -0.0101043 -1.43043e-20)
(-0.207453 -0.010485 -4.57333e-20)
(-0.21375 -0.0100071 -3.17318e-20)
(-0.191223 -0.00332077 -1.48071e-21)
(-0.188975 -0.00240061 -2.57544e-20)
(-0.212028 -0.00152582 -9.54949e-20)
(0.55547 -0.0416166 1.19516e-20)
(0.577886 -0.0414569 -3.48435e-21)
(0.171833 -0.0270347 2.08997e-20)
(0.149302 -0.0258799 4.11232e-20)
(1.18779 -0.0720474 3.41686e-21)
(1.18668 -0.0743672 -1.07653e-20)
(1.0001 0.00411374 2.41124e-21)
(1.00838 0.00102804 -2.72775e-22)
(1.00792 0.00109523 5.78244e-22)
(1.00847 0.00160136 1.32443e-21)
(1.19696 0.0623123 1.34652e-20)
(1.19409 0.0606106 -1.52255e-20)
(1.19754 0.0590481 2.00231e-21)
(-0.143927 -0.00886908 7.84193e-20)
(-0.15867 -0.00771448 2.1718e-20)
(-0.161245 -0.00753309 -5.61558e-21)
(1.24903 0.036856 0)
(1.24994 0.0399033 3.55319e-20)
(1.25304 0.0368783 0)
(1.09488 0.067759 0)
(1.0977 0.0666458 0)
(0.805275 0.017014 4.86921e-20)
(0.735953 0.0098767 2.98768e-20)
(1.15376 -0.0509974 6.94691e-23)
(1.15138 -0.0505202 1.22777e-20)
(1.02413 0.00136657 0)
(1.02411 0.00170738 0)
(1.02442 0.00150374 0)
(0.504752 0.0410389 -1.00419e-20)
(0.497041 0.0358218 0)
(0.420869 0.0231307 0)
(1.00262 0.00645685 1.2892e-22)
(1.00261 0.00616555 -5.50561e-22)
(1.00235 0.00597285 5.72535e-23)
(0.308785 -0.03113 0)
(0.262665 -0.0302559 2.25167e-20)
(1.1194 0.00674545 0)
(1.1195 0.0043657 0)
(1.00008 0.000124872 3.77986e-23)
(1.00012 0.000197956 1.46396e-22)
(1.00588 0.13622 1.02348e-21)
(1.00425 0.141333 -1.00656e-21)
(1.00144 0.136199 -1.02064e-21)
(1.02007 0.223774 -2.1411e-22)
(1.01594 0.217611 -2.4693e-21)
(0.777418 0.00916827 -2.83278e-20)
(0.787684 0.00988204 -3.66977e-20)
(0.906439 -0.0608025 0)
(0.952221 -0.0630316 3.45263e-20)
(1.00079 0.173936 3.75192e-21)
(1.00058 0.180543 2.1141e-21)
(0.994518 0.175653 -4.26138e-21)
(1.06533 0.0144752 2.69891e-22)
(1.06623 0.0158873 -7.18176e-21)
(1.06447 0.0154239 6.22156e-21)
(1.22915 0.109199 2.03809e-20)
(1.23134 0.11495 -6.24201e-20)
(1.14349 0.0977245 -2.40421e-20)
(0.267143 -0.0375384 -5.98314e-20)
(0.225923 -0.0361926 3.67453e-20)
(0.152251 -0.0132568 0)
(0.156085 -0.0125477 5.66531e-20)
(1.00489 0.0253181 -1.4425e-21)
(1.00523 0.0247527 -3.28676e-22)
(0.532026 -0.0376995 -2.14977e-20)
(0.585275 -0.0351579 5.49454e-20)
(0.518783 -0.0365224 1.25477e-20)
(0.998491 0.00228955 1.54772e-21)
(0.998383 0.0026057 5.61497e-21)
(0.99818 0.00256947 4.71563e-21)
(1.06483 0.0130848 4.15809e-21)
(1.06656 0.0134323 -1.39661e-20)
(1.0022 0.0184262 1.19673e-21)
(1.00267 0.0188474 4.53853e-21)
(0.80338 0.649155 -1.12367e-20)
(0.756954 0.652491 0)
(1.00201 0.00120952 -5.96555e-23)
(1.00219 0.00105629 -1.44451e-23)
(1.00187 0.000945791 -6.70068e-23)
(1.22653 0.144871 0)
(1.22829 0.140936 0)
(1.10367 0.151708 -2.40677e-20)
(1.10503 0.146334 -4.37938e-22)
(1.04479 0.0290599 -2.81735e-21)
(1.04631 0.0288618 6.77042e-21)
(1.20191 0.0144876 2.31733e-20)
(1.19854 0.0132852 -3.43541e-20)
(1.05082 0.0802026 1.48668e-21)
(1.05211 0.0781299 6.12407e-21)
(1.05371 0.0806241 -6.32756e-22)
(0.118716 0.0553373 -1.37021e-19)
(0.106376 0.0387481 4.42474e-20)
(0.103914 0.0706186 -1.62283e-19)
(1.01685 0.230473 -8.10867e-22)
(1.00912 0.229967 -2.38444e-21)
(1.1863 0.18928 8.41028e-21)
(1.18168 0.194484 6.86975e-21)
(1.04304 0.0204431 -2.31314e-21)
(1.04406 0.0214198 0)
(1.04416 0.0201736 -2.90786e-21)
(0.999166 0.0388735 0)
(0.998134 0.0379524 -1.3109e-21)
(-0.199986 -0.010943 5.69539e-20)
(-0.215374 -0.0112366 -2.61722e-20)
(-0.217922 -0.0114757 0)
(-0.142041 0.000544896 -7.24227e-20)
(-0.14844 0.000382338 -2.75983e-20)
(-0.127676 -0.0020085 -2.8232e-20)
(1.00271 0.0213298 -5.57284e-22)
(1.00305 0.0208212 -1.42002e-22)
(1.00933 0.000959441 -5.21235e-22)
(1.00992 0.00128534 -6.14259e-22)
(1.00937 0.00166986 1.15094e-21)
(0.501162 0.0391523 -5.59915e-20)
(0.599553 0.0520159 -2.11003e-20)
(1.02258 0.0350883 -3.54293e-22)
(1.023 0.0364329 4.97994e-23)
(1.02403 0.0358104 -2.52155e-21)
(-0.168749 -0.0119389 -3.25009e-21)
(-0.181688 -0.0112227 3.14083e-20)
(1.04191 0.0197367 5.11951e-21)
(1.04188 0.0209343 -2.26268e-21)
(-0.0981669 -0.012082 -6.46119e-21)
(-0.0859221 -0.0123622 5.74936e-20)
(1.07469 -0.00869061 -9.22953e-21)
(1.07394 -0.0100411 9.33635e-21)
(1.07561 -0.00978091 2.87024e-22)
(1.19261 0.382137 -9.65385e-21)
(1.1813 0.379584 -8.69089e-21)
(1.18439 0.392174 2.17813e-20)
(1.15715 0.0270401 -4.95162e-20)
(1.15579 0.0295263 -1.51548e-20)
(1.15913 0.0294949 -2.70365e-20)
(0.0916676 0.298914 0)
(0.0908506 0.259371 -8.34352e-20)
(0.125107 0.277706 6.40553e-20)
(0.9454 0.0642078 -1.08868e-20)
(0.944878 0.060525 -1.00423e-20)
(0.949967 0.066983 3.98168e-20)
(0.874836 0.0580458 1.63619e-20)
(0.504218 0.302098 1.1399e-19)
(0.477567 0.311103 8.53186e-20)
(0.504016 0.334154 3.57623e-20)
(1.0103 0.136833 2.12504e-21)
(1.00785 0.132816 7.2376e-22)
(1.24869 -0.00355375 0)
(1.24974 -0.00350221 5.35494e-20)
(0.924152 0.538985 0)
(0.939779 0.557807 0)
(0.910814 0.560982 -1.38295e-22)
(1.00135 0.0599902 1.50604e-21)
(0.999606 0.0594215 3.82283e-21)
(1.00019 0.0616848 7.51806e-22)
(-0.0650857 -0.00971411 3.24121e-20)
(-0.0846736 -0.0076428 2.75507e-20)
(-0.0775212 -0.00825256 2.07164e-20)
(0.579985 0.0534461 -3.78423e-20)
(0.559711 0.043903 -1.90668e-19)
(-0.175608 -0.00356355 1.99739e-20)
(-0.191056 -0.00354924 3.84019e-20)
(0.922649 0.0369865 -1.59852e-20)
(0.918996 0.0384656 1.19057e-21)
(0.921873 0.0411849 -1.66111e-20)
(-0.0747434 0.00229579 1.39835e-20)
(-0.0971114 0.0045863 1.20549e-20)
(-0.0724906 0.00336276 -1.18021e-20)
(1.08482 0.123122 -4.67915e-21)
(1.08709 0.127454 -1.46798e-20)
(1.08889 0.123532 -1.27927e-20)
(-0.139815 -0.00778004 7.5105e-21)
(-0.120842 -0.00703813 -6.92746e-20)
(-0.114958 -0.00718288 -3.18599e-20)
(0.511871 0.27154 9.61427e-21)
(0.536217 0.295718 -3.81066e-20)
(0.911596 0.380902 -6.60474e-21)
(0.895329 0.377481 -1.2011e-20)
(0.903003 0.395671 -1.96949e-21)
(0.929281 0.38759 -1.03862e-21)
(0.922385 0.368588 0)
(0.153301 -0.0308548 -8.5303e-21)
(0.136398 -0.030313 -1.18735e-20)
(0.999798 0.00343264 6.44621e-21)
(0.999747 0.00387218 2.75306e-21)
(0.999775 0.00388631 4.51841e-21)
(1.05708 0.214717 0)
(1.0531 0.221438 8.31923e-21)
(-0.166559 -0.0112971 -3.43994e-20)
(-0.174326 -0.0113858 -5.71086e-20)
(0.98534 0.04349 4.65912e-21)
(0.984471 0.0446771 7.13583e-21)
(0.983972 0.0427354 0)
(1.00856 0.0964458 -1.78846e-21)
(1.00948 0.0936389 1.73547e-21)
(1.00632 0.0940709 9.33167e-22)
(-0.181009 -0.00230806 6.87462e-21)
(-0.176189 -0.00186663 7.74445e-21)
(0.820275 0.503924 -2.14002e-21)
(0.851495 0.51359 0)
(1.02595 0.0710935 0)
(1.02593 0.0731461 4.42218e-22)
(1.02822 0.0725989 0)
(0.983533 -0.04273 -5.23973e-21)
(0.984495 -0.0438572 4.26121e-20)
(0.653925 0.564353 1.40018e-20)
(0.681247 0.538253 -3.24968e-20)
(1.01224 0.00702987 2.5028e-21)
(1.01285 0.00740279 -1.87018e-21)
(1.01272 0.00673076 1.858e-21)
(-0.118472 9.76257e-05 -3.82435e-20)
(-0.140712 0.00206869 1.80274e-21)
(0.883721 -0.0530005 2.9892e-20)
(0.830558 -0.0536068 5.10679e-20)
(0.902742 -0.0531558 -5.3174e-21)
(1.00262 0.00674268 5.63298e-22)
(1.00289 0.00696105 5.29957e-22)