/*--------------------------------*- C++ -*----------------------------------*\
| =========                 |                                                 |
| \\      /  F ield         | OpenFOAM: The Open Source CFD Toolbox           |
|  \\    /   O peration     | Version:  v2012                                 |
|   \\  /    A nd           | Website:  www.openfoam.com                      |
|    \\/     M anipulation  |                                                 |
\*---------------------------------------------------------------------------*/
FoamFile
{
    version     2.0;
    format      ascii;
    class       volScalarField;
    location    "500";
    object      k_0;
}
// * * * * * * * * * * * * * * * * * * * * * * * * * * * * * * * * * * * * * //

dimensions      [0 2 -2 0 0 0 0];


internalField   nonuniform List<scalar> 
13917
(
0.00016439
0.000148932
0.0478046
0.000152615
0.000148682
0.000194733
0.04795
0.0482542
0.0609354
0.000171874
0.000192633
0.000176947
0.000152755
0.0117611
0.000154927
0.00015381
0.000149366
0.0001713
0.00017656
0.000148634
0.000149754
0.0477343
0.000148483
0.0450232
0.000148152
0.0452484
0.000161838
0.000164478
0.000200294
0.000180073
0.000165694
0.000156643
0.000160202
0.000154776
0.000148378
9.17492e-05
0.000148545
0.0380879
0.00015526
0.0157649
0.000147257
0.000149895
0.000145315
0.000168286
0.000148608
0.000156105
0.000170917
0.0001772
0.000366169
0.000147958
0.000156236
0.000149971
0.000593663
0.000155082
0.000149427
0.000155995
0.000192503
0.000148473
0.000153892
0.000148433
0.0490865
0.000148943
0.00681516
0.000148551
0.000193309
0.00118254
0.000148719
0.000148661
0.000194016
0.000162311
0.000148725
0.057497
0.0384918
0.000148154
0.000368058
0.000179688
0.0270412
0.000150463
0.0426434
0.000149532
0.000149298
0.000148756
0.000189965
0.0416606
0.043117
0.00015027
0.000149118
0.000298211
0.00015593
0.000145295
0.0413848
0.000176748
0.000147478
0.00015112
0.000434845
0.000190307
0.000187377
0.000175438
0.000189107
0.000170624
0.000146593
0.00015888
0.000168256
0.000151356
0.000146565
0.0573013
0.000189899
0.000177921
0.000149382
0.000166899
0.0444596
0.0170527
0.000181239
0.0591547
0.000151351
0.000398863
0.000147944
0.000271182
0.0215201
0.000154996
0.000149806
0.000193735
0.0241339
0.000163856
0.000147698
0.00015085
0.000148436
0.000147756
0.00014536
0.000192612
0.0353251
0.000151179
0.000148692
0.000149809
0.000144135
0.0440807
0.000164501
0.000171238
0.000148678
0.000154868
0.000159115
0.000146638
0.000150465
0.000170153
0.000148685
0.041273
0.000203574
0.000149818
0.000146402
0.000157091
0.000173113
0.00039934
0.000181743
0.000163375
0.000155987
0.0228473
0.000161503
0.00018416
0.0229083
0.000177706
0.000153079
0.000162058
0.000149532
0.000186574
0.000180897
0.000188822
0.000151297
0.000174215
0.000147829
0.000159343
0.000163934
0.0243211
0.000182832
0.000150192
0.0267323
0.000164502
0.037434
0.000297819
0.0353367
0.000147636
0.000177545
0.000166358
0.000146614
0.00014905
0.000157888
0.0452027
0.000200117
0.0322555
0.000162981
0.000187737
0.000187417
0.0482346
0.000197529
0.000148566
0.000172398
0.000161565
0.000152882
0.000147549
0.000179886
0.00036321
0.000155796
0.000148067
0.000172657
0.000172783
0.0337296
0.000133999
0.000148372
0.000148574
0.000175006
0.0461511
0.000150222
0.0484172
0.0249885
0.000187801
0.000146597
0.000196475
0.00017239
0.0272281
0.000147691
0.031921
0.000147578
0.000179058
0.00014714
0.0410766
0.0588108
0.000154136
0.000271718
0.000156287
0.00014662
0.000123656
0.00018232
0.000162767
0.0434322
0.0205071
0.000146304
0.000157029
0.0455723
0.0318737
0.000149474
0.000147472
0.0174168
0.000189714
0.000149757
0.000182299
0.000181791
0.000161819
0.000162772
0.000149474
0.000163895
0.022632
0.000148449
0.000180906
0.000173633
0.000148329
0.000148427
0.000177616
0.0229447
0.000180651
0.000158071
0.000155107
0.000149789
0.0193509
0.043531
8.46505e-05
0.000146653
0.0371825
0.02037
0.00233063
0.0419756
0.000180775
0.000149374
0.000147379
0.000171113
0.0359961
0.000186499
0.000153547
8.32269e-05
0.000167802
0.000145306
0.00822179
0.000148465
0.0299763
0.000155289
0.000149722
0.00015596
0.000163314
0.000162138
0.00017687
0.000159645
0.000148704
0.000219938
0.0424188
0.0520376
0.000147696
0.00362351
0.00014912
0.000148701
0.000147981
0.000218011
0.000148564
0.000180577
0.000162209
0.000147731
0.00017283
0.000151166
0.000363708
0.000164174
0.000175505
0.000147162
0.000148352
0.0416019
0.0227023
0.000147903
0.000147262
0.00522821
0.000147517
0.0414455
0.000147043
0.0435819
0.000150117
0.000202383
0.000161523
0.00040026
0.000152663
0.000152323
0.000183796
0.000155981
0.000189484
0.000194671
0.000149373
0.0356145
0.000172513
0.023675
0.000153892
0.0166736
0.000157626
0.0550988
0.000181011
0.000172077
0.000171684
0.0492538
0.000149386
0.000164444
0.04923
0.000149231
0.000151864
0.0210725
0.00018258
0.000149993
0.000217051
0.000197903
0.000146859
0.018675
0.000134106
0.000148418
0.000147121
0.000149174
0.000146376
0.000218604
0.031407
0.000211959
0.0466351
0.000148044
0.000182704
0.00696342
0.000166792
0.0481738
0.0400412
0.0608863
0.000146283
0.000130345
0.000146984
0.0195626
0.000148411
0.000435853
0.00018177
0.000154111
0.000149253
0.000174017
0.000179009
0.000177119
0.000681649
0.0501289
0.0212975
0.000164331
0.000170944
0.000147525
0.0353462
0.0465895
0.000148533
0.000215374
0.000148259
0.000209101
0.000150094
0.000149459
0.000151222
0.0390521
0.000151159
0.0256903
0.0164085
0.000190491
0.000193676
0.000149316
0.000192872
0.000190566
0.000148097
0.000184012
0.000149134
0.000148226
0.000179988
0.000149719
0.000148223
0.000146958
0.000206733
0.000149614
0.0189494
0.0407101
0.00559707
0.000197323
0.0307313
0.0274219
0.000166477
0.000148062
0.000192095
0.000154951
0.000158048
0.00014851
0.0384376
0.0470318
0.0395388
0.000153735
0.000184102
0.000153548
0.000155788
0.00017703
0.000150841
0.000114989
0.000149335
0.000148527
0.0459559
0.036083
0.0378449
0.000180213
0.00377711
0.0391066
0.0519205
0.026147
0.000145508
0.000173049
0.000150912
0.00014873
0.000221686
0.000171444
0.000149087
0.000173662
0.000165308
0.024984
0.000148069
0.000186581
0.021925
0.000217187
0.0230838
0.000149668
0.000148579
0.000152733
0.000161537
0.000146297
0.0435941
0.000203238
0.000159594
0.0352497
0.000155919
0.000187
0.0565967
0.000204559
0.000189744
0.000136277
0.000186575
0.000172941
0.000191417
0.000167408
0.000192287
0.000198103
0.000170422
0.000179978
0.00014777
0.000173982
0.000156933
0.000146351
0.000160734
0.000150717
0.0267315
0.0583097
0.000147437
0.000145525
0.0434321
0.0224305
0.000149721
0.0186886
0.000150953
0.000191724
0.000147577
0.0322626
7.45429e-05
0.000157059
0.000149355
0.0334718
0.000195494
0.0108443
0.000149776
0.0257118
0.000367808
0.00841854
0.000146418
0.0384553
0.0685771
0.000166897
0.000147074
0.000149362
0.000179752
0.000216992
0.000148502
0.000147152
0.000147533
0.000147493
0.0324623
0.000212321
0.000166573
0.000199175
0.000147665
0.000146635
0.000183729
0.0664624
0.000160958
0.000147924
0.000148192
0.000148577
0.00960152
0.053903
0.000149077
0.00014853
0.000129789
0.000167027
0.000161528
0.000148538
0.000151354
0.000155756
0.000179482
0.000189848
0.000200416
0.000192405
0.000183022
0.000120587
0.000175309
0.000147761
0.0263999
0.000148591
0.00015223
0.00015342
0.000169947
0.000169232
0.000146704
0.000217762
0.000182215
0.00861676
0.000183057
0.000160188
0.00016635
0.00014919
0.0573646
0.000204979
0.0500638
0.000149071
0.000158341
0.000200088
0.0419432
0.00822247
0.000176303
0.000182443
0.000153692
0.000152743
0.0001486
0.000165178
0.000168871
0.000149444
0.000172118
0.000172769
0.0508223
0.0128235
0.000152611
0.000186406
0.000103064
0.000156924
0.000149993
0.00044451
0.0421681
0.0459383
0.000198148
0.000145447
0.0208512
0.000179361
0.000147001
0.000159524
0.000178782
0.000159686
0.000179979
0.04304
0.000190866
0.000164829
0.0574657
0.000151299
0.0226638
0.000149537
0.000149027
0.00469305
0.044722
0.000203273
0.000151301
0.000150029
0.000148525
0.000168291
0.000392807
0.000187772
0.00015302
0.000188537
0.000173588
0.000147618
0.000274804
0.000187281
7.90638e-05
0.000147583
0.00019044
0.000150674
0.0222771
0.000172306
0.000169231
0.000158576
0.000146996
0.000146269
0.000148565
0.00017303
0.000156355
0.000202321
0.000490943
0.000173867
0.000146919
0.000189971
0.000204232
0.000101518
0.000148332
0.000155866
0.000147205
0.000158659
0.000154098
0.0691808
0.000149473
0.000377225
0.000158361
0.000192564
0.000176559
0.0384985
0.000169959
0.000149241
0.0339809
0.0111279
0.000148398
0.000153343
0.000182107
0.00019455
0.000186464
0.000149544
0.000149441
0.000195848
0.000154294
0.000176841
0.000176698
0.000146317
0.000172833
0.047426
0.000148321
0.000151459
0.000147673
0.021392
0.000149746
0.000153405
0.0261083
0.00015165
0.0396537
0.000156017
0.000160442
0.000147621
0.000165823
0.000148036
0.000172261
0.000147034
0.000172127
0.000150937
0.017196
0.000306637
0.0667433
0.000151324
0.00014931
0.000174548
0.000168209
0.0254681
0.0655075
0.000170984
0.000148329
0.000206082
0.000204758
7.72778e-05
0.000199313
0.000170378
0.0417822
0.000163953
0.000166858
0.000188366
0.000177179
0.000170697
0.000227797
0.000170329
0.000152413
0.000179737
0.000156087
0.000147063
0.000158468
0.000166904
0.000156571
0.000148103
0.000147359
0.000173772
0.000151799
0.000177037
0.000148308
0.000148353
0.000149803
0.000151196
0.00014521
0.00015471
0.000147816
0.0313892
0.000176611
0.000190072
0.000146435
0.000149612
0.000163441
0.000173201
0.000150879
0.0214149
0.000173344
0.00375783
0.00015847
0.000186358
0.000149835
0.000149769
0.000147372
0.000151168
0.0182442
0.000149669
0.000131588
0.000155049
0.008477
0.000164717
0.000173858
0.000192158
0.000145893
0.000149934
0.000176953
0.000148615
0.000149831
0.0104133
0.000150365
0.000149162
0.000156842
0.000147425
0.000145925
0.00015664
0.000157101
0.0202949
0.000161552
0.000148318
0.000147055
0.0456993
0.000172852
0.000149057
0.000149058
0.0138559
0.000104698
0.0216901
0.000160178
0.000152431
0.000146373
0.000145804
0.000170896
0.000162194
0.000215749
0.000154221
0.0329428
0.000149304
0.000152161
0.0182632
0.000148296
0.00015709
0.000148152
0.000148409
0.000166246
0.000162264
0.000149869
0.0416502
0.0208775
0.000176888
0.000147741
0.000145618
0.000187337
0.000215733
0.000149716
0.000157914
0.000145581
0.00016572
0.000147422
0.000147346
0.000220218
0.00014836
0.0168993
0.000164512
0.000149802
0.00014549
0.000148936
0.000147331
0.000151279
0.000416639
0.00014806
0.000146944
0.0596382
0.0485121
0.000165618
0.000167678
0.00017637
0.000154232
0.00014673
0.000156589
0.0316452
0.000172785
0.000148775
0.0001492
0.0648724
0.000163082
0.0529331
0.00014975
0.000151068
0.0190906
0.000161568
0.000150068
0.0162238
0.000292403
0.000147299
0.000186829
0.000147354
0.000148215
0.00014636
0.0408124
0.000145146
0.000148596
0.00014671
0.0224066
0.000154317
0.000191735
0.000166311
0.000147398
0.00015903
0.000149078
0.0481528
0.000147582
0.000148161
0.000149162
0.000187976
0.000149111
0.000191085
0.0165579
0.0412666
0.000155481
0.000143084
0.0304901
0.000148309
0.0173822
0.0612106
0.0342288
0.0308684
0.0594412
0.00615446
0.000188947
0.000149451
0.0423921
0.000161473
0.0463823
0.000146316
0.000147476
0.000149119
0.000149027
0.000155234
0.000158325
0.0264348
0.000147383
0.00014851
0.00985971
0.000184421
0.000148941
0.000161115
0.000158301
0.000149108
0.000299737
0.000161461
0.00015241
0.000154228
0.0168662
0.0225424
0.000252731
0.000147268
0.000195426
0.000182181
0.0315981
0.0621074
0.000182316
0.000147572
0.000149991
0.000149298
0.000145
0.000151359
0.000145434
0.00015584
0.000163446
0.0394686
0.000189003
0.000148625
0.000185858
0.0532787
0.000165128
0.000149731
0.0240545
0.000147613
0.000149625
0.000160821
0.0413253
0.000149135
0.000147615
0.0489212
0.00022105
0.0001276
0.000184601
0.000107246
0.000147396
0.000192555
0.000149811
0.000147825
0.000149843
0.0444938
0.0265064
0.000146985
0.000145486
0.000148267
7.99163e-05
0.000150997
0.00015853
0.000148587
0.000149715
0.000192215
0.000147538
0.000172758
0.000191397
0.0381741
0.000148204
0.000171356
0.000152833
0.0363988
0.0509844
0.000148194
0.0404584
0.000177326
0.000268208
0.000149116
0.0386247
0.000149618
0.00015578
0.000165595
0.000184491
0.0450858
3.91453e-05
0.000193647
0.0456475
0.000146875
0.00020654
0.000147316
0.000156064
0.0494439
0.000148764
0.000149673
0.000150555
0.000148981
0.0372487
0.000145817
0.000148418
0.000173218
0.000167879
0.000170598
0.000202206
0.000188772
0.0175471
0.000177069
0.000162595
0.0001664
0.0313615
0.000165986
0.00817186
0.0448412
0.000154848
0.000147623
0.029992
7.56257e-05
0.000149809
0.000184359
0.000161265
0.000149763
0.00015566
0.00014912
0.000165636
0.000149942
0.000169949
0.000170878
0.00014703
0.00017332
0.000147334
0.000166554
0.000147007
0.000155182
0.000173488
0.000152064
0.000148878
0.000147036
0.000278459
0.00017479
0.0345954
0.00014822
0.00014875
0.000174269
0.000148154
0.000180045
0.000174766
0.000149756
0.000182012
0.000147196
0.0228427
0.000149685
0.000164561
0.0238261
0.000205175
0.000147455
0.000151997
0.0141535
0.000147838
0.000147284
0.0354441
0.0454731
0.000153211
0.000192656
0.000148566
0.00014888
0.0444542
0.000150956
0.000145945
0.000218499
0.000147465
5.26491e-05
0.000149249
0.000145944
0.000149127
0.00018917
0.0285715
0.000149033
0.000149408
0.000147398
0.000154612
0.000148373
0.000222605
0.000172845
0.000149772
0.0346012
0.000164821
0.000208484
0.0409765
0.000430752
0.000146854
0.000149543
0.000148452
0.000200876
0.000155138
0.0285051
0.0293235
0.00015259
0.0490649
0.000335562
0.000170218
0.000190965
0.000168854
0.000189935
0.0443103
0.000167041
0.000251053
0.0439163
0.000176465
0.000153977
0.0321796
0.000164461
0.000146402
0.000151652
0.0339121
0.000162573
0.000147374
0.000166094
0.000181594
0.000163661
0.0314413
0.000152171
0.0361464
0.000166272
0.000105065
0.000186308
0.000196221
0.000157754
0.000147077
0.000150076
0.045085
0.000147832
0.000152809
0.000146985
0.000151383
0.000147487
0.00016035
0.000191807
0.000294071
0.000162753
0.000165682
0.0386051
0.000187941
0.000147502
0.000126637
0.0426577
0.000146274
0.000147225
0.000159169
0.0212765
0.000149675
0.000176165
0.00020207
0.000166419
0.000148771
0.000151611
0.000147628
0.000184276
0.000162865
0.000147753
0.0133299
0.0421189
0.000163432
0.000131181
0.00017678
0.000396458
0.000151516
0.000154587
0.0368739
9.01193e-05
0.000182624
0.000256532
0.000156995
0.000149825
0.000148292
0.000148911
0.000148463
0.000150577
0.000166461
0.000147528
0.000188189
0.000147419
0.000157324
0.000147122
0.000174012
0.000187997
0.000227657
0.000148225
0.000196162
0.00014828
0.0335458
0.000148243
0.000154722
0.000148731
0.000204119
0.0351059
0.00019019
0.000147491
0.000189007
0.00014832
0.000158083
0.0432056
0.00014807
0.000149886
0.000167092
0.00015951
0.0486211
0.000147551
0.000157936
0.000151762
0.000148151
0.000158774
0.000149847
0.000146148
0.000152235
0.02483
0.00015312
0.000215106
0.0432306
0.000170657
0.0302954
0.000152811
0.000146187
0.000158635
0.022003
0.000152069
0.000161852
0.000166759
0.000368092
0.000147226
0.00303814
0.000173835
0.000176494
0.000146219
0.000145555
0.000193217
0.00015004
0.000149896
0.000159422
0.000146306
0.000153247
0.000157227
0.000178116
0.000185357
0.0468585
0.000154927
0.000178834
0.0104005
0.0129757
0.000164659
0.000180592
0.0203692
0.0001646
0.0255353
0.00015258
0.0019675
0.00364272
0.000146412
0.000149722
0.000147517
0.00015041
0.000166838
0.000147208
0.000152842
0.000182333
0.000151522
0.000160302
0.0381051
0.000157761
0.000153029
0.0607428
0.000150063
0.0188641
0.000153572
0.000165293
0.000147148
0.0254906
0.0267939
0.000148328
0.000150664
0.039777
0.000157401
0.0138664
0.00014798
0.000147485
0.0503833
0.000150542
0.000162723
0.0114692
0.000148493
0.000171496
0.000157671
0.00014555
0.000147164
0.0415941
0.0286216
0.000149004
0.000152011
0.000148609
0.000155373
0.000160647
0.0251197
0.000150505
0.000332977
0.0027568
8.13569e-05
5.34849e-05
0.000150417
0.000187555
0.000177553
0.00015713
0.000148367
0.000175021
0.039123
0.000151859
0.000162796
0.0463809
0.000457941
0.000183693
0.000154351
0.00014936
0.000149619
0.000148574
0.0230251
0.000172576
0.000152662
0.000150928
0.000153141
0.000149779
0.000148053
0.000148568
0.000178546
0.000165389
0.032102
0.000163426
0.011425
0.0273794
0.000158334
0.000170657
0.000146548
0.000156935
0.0218103
0.000148767
0.000151924
0.000171148
0.000186578
0.000164807
0.0395111
0.000213594
0.000147608
0.0353862
0.000145376
0.000149238
0.000163845
0.000149805
0.000148447
0.000194055
0.029754
0.000147482
0.0401257
0.000148678
0.000146798
0.000151756
0.000363007
0.000157591
0.000153572
0.0391776
0.000150757
0.000215501
0.0348093
0.000149606
0.000163659
0.000147898
0.0160269
0.000176483
0.000148639
0.04322
0.000171924
0.00016802
0.000149841
0.0255397
0.000157259
0.000194794
0.000151286
0.000167338
0.0260639
0.000146895
0.000243415
0.000148953
0.00017358
0.000164178
0.0001496
0.0285966
0.000152006
0.000186259
0.000172521
0.000169615
0.00016269
0.000163083
0.000150361
0.0462086
0.000158981
0.0160345
0.000157817
0.000176296
0.000148075
0.000166363
0.000148667
0.000177972
0.0438918
0.000150493
0.000146875
0.00041566
0.000150686
0.01555
0.000149813
0.0416403
9.12177e-05
0.000161627
0.0001478
0.000147436
0.000148694
0.000145482
0.000182886
0.000165716
0.000161246
0.000154664
0.000148418
0.00010441
0.000152173
0.000160884
0.0059443
0.000148567
0.0252995
0.000171
0.000159533
0.000253255
0.0354142
0.000222484
0.0401125
0.000130664
0.000147187
0.000191981
0.029184
0.00018659
0.000149074
0.00014957
0.000186937
0.0429871
0.0190379
0.000212501
0.000149863
0.000164501
0.00016508
0.0334724
0.00279438
0.000166669
0.000188707
0.000152403
0.000174449
0.000182533
0.000149013
0.000182072
0.0148131
0.000148812
0.00065493
0.000149657
0.000148215
0.0291004
0.0432497
0.000146794
0.000150084
0.000149767
0.000147454
0.00016585
0.000194528
0.000151552
0.00014775
0.000148533
0.000166206
0.000156697
0.00015643
0.000219691
0.000148405
0.0470899
0.0153073
0.052811
0.000175034
0.000170271
0.000137779
0.000161283
0.0417368
9.38115e-05
0.000330977
0.000149693
0.0717453
0.0289991
0.000146274
0.000148116
0.000180276
0.0518565
0.0157176
0.000147485
0.000148359
0.0364628
0.00038333
0.000216938
0.000152515
0.000152791
0.000306947
0.000149175
0.0412949
0.0301372
0.00011842
0.000274472
0.000148796
0.000147432
0.000147039
0.000155124
0.0296545
0.000165814
0.000154971
0.000150705
0.000171993
0.0225514
0.000166296
0.024579
0.0127653
0.0209381
0.000318015
0.000148344
0.000149066
0.0406024
0.000145722
0.000146346
0.000151162
0.000419273
0.000163638
0.0407564
0.000186278
0.000148094
0.0662011
0.000164273
0.000147483
0.0148589
0.00017576
0.000154369
0.000149018
0.00572561
0.0559115
0.000149148
0.0282717
0.00467382
0.0577088
0.000271126
0.000174425
0.000147632
0.000150027
0.000269079
0.000154591
0.0384376
0.000165475
0.000275822
0.000218451
0.000151106
0.000157246
0.000147667
0.00015063
0.0527462
0.0160519
0.000148559
0.0194486
0.000167163
0.000148401
0.000153646
0.000147412
0.000192172
0.000149713
0.000310512
0.000164554
0.000147563
0.000146953
0.000169386
0.0204279
0.000164336
0.00015255
0.000166
0.000148625
0.000151251
0.00015681
0.0183733
0.0250097
0.054111
0.000146023
0.000146903
0.000149558
0.000187763
0.000147012
0.000149677
0.000194232
0.000174028
0.000112987
0.000146293
0.056152
0.0250854
0.000149885
0.0171907
0.000186586
0.00016436
0.000316173
0.000149379
0.0341074
0.000157527
0.000151242
0.000152703
0.000145696
0.000190028
0.000152576
0.000151003
0.000158213
0.0259512
0.0301262
0.000149605
0.000147985
0.000151833
0.000148197
0.000187549
0.00015012
0.000178828
0.000152137
0.0374892
0.000150614
0.0497317
0.000146051
0.0684082
0.000149624
0.000145621
0.0593436
0.000183762
0.000171736
0.000120836
0.000162678
0.000165483
0.000148555
0.0330852
0.000148562
0.000147051
0.000168996
0.000176584
0.0466548
0.0371571
0.000186162
0.0353105
0.00018581
0.000220938
0.000148967
0.000153938
0.000157314
0.0487889
0.000154014
0.0497589
0.0250888
0.000149348
0.000148924
0.000148312
0.000258033
0.000419177
0.000151779
0.000148607
0.000154568
0.000156849
0.000164049
0.000206799
0.00018845
0.000148283
0.000209828
0.0001779
0.0203031
0.000176895
0.000151422
0.000152446
0.0654646
0.000147017
0.000179688
0.0465109
0.000150557
0.000154257
0.000194711
0.000173977
0.000150735
0.0194159
0.000153145
0.000205761
0.000166706
0.000158104
0.000150704
0.0534257
0.000146872
0.000170655
0.000262449
0.0562317
0.000169543
0.000173428
0.000155146
0.000163655
0.000149753
0.057812
0.000156159
0.000148406
0.000158651
0.000148483
0.000149775
0.000423792
0.000148405
0.000149116
0.000148493
0.000189146
0.000149705
0.000160323
0.000178505
0.000192253
0.00018407
0.000149673
0.00018134
0.000190484
0.000193794
0.00017762
0.000156248
0.000191651
0.0395216
0.000213695
0.000149887
0.00697265
0.0422787
0.000149882
0.000152795
0.000145611
0.000211538
0.000180601
0.000148798
0.000253166
0.0486048
0.000146572
0.00014957
0.0396836
0.0271167
0.000176976
0.000145753
0.00418516
0.0312126
0.000452953
0.000148061
0.0499581
0.000180992
0.000167244
0.0462009
0.000155358
0.000145684
0.000158692
0.000190577
0.00016037
0.0420087
0.0580705
0.00014685
0.0321906
0.000193294
0.0338111
0.000146043
0.000164493
0.00014989
0.000147632
0.0509333
2.5849e-05
0.000203916
0.000516283
0.000157552
0.000169996
0.000149972
0.058804
0.0182984
0.000148588
0.000149166
0.000158662
0.000147813
0.000170815
0.0524428
0.0381047
0.000170327
0.000149818
0.000149218
0.0511293
0.00015389
0.000171369
0.000146712
0.000151012
0.000217292
0.000148585
0.000215677
0.000349493
0.000149056
0.000206493
0.000151135
0.000163742
0.0409515
0.0187544
0.000148422
0.000149954
0.000163599
0.000154713
0.000149458
0.0543025
0.049511
0.000146935
0.000145282
0.000149221
0.000147611
0.000316162
0.000146875
0.0406823
0.000183103
0.000176575
0.00014739
0.000166487
0.0607361
0.000161557
0.000190488
0.0458322
0.000149383
0.0241485
0.000159217
0.000160142
0.000186606
0.0251129
0.0332472
0.000175423
0.00014726
0.000185639
0.000146936
0.000154382
0.000149454
0.040019
0.000158939
0.0002212
9.4226e-05
0.00016932
0.000148781
0.000196958
0.000156286
0.000149783
0.000182446
0.000145331
0.000165595
0.000161558
0.000149304
0.0254326
0.000151677
0.000201595
0.000150804
0.000147415
0.0526595
0.0395911
0.000152967
0.000158955
0.000165665
0.000170444
0.000174525
0.000155911
0.000154686
0.000154352
0.000217641
0.000154077
0.040018
0.000166361
0.000164286
0.00018695
0.000150453
0.0556864
0.000145356
0.0471632
0.000153172
0.0504275
7.43569e-05
0.000571469
0.00161222
0.000209412
0.000168123
0.000148674
0.0514148
0.000169199
0.000148609
0.0207878
0.0412438
0.000151716
0.00015265
0.000158919
0.000158949
0.00016091
0.0306229
0.000149883
0.000159679
0.000163072
0.000159286
0.000149011
0.000181511
0.00014563
0.0407438
0.000152283
0.00018607
0.000159871
0.000164879
0.000180086
0.00032123
0.000178118
0.000146905
0.000184103
0.0494618
0.0326782
0.000149853
0.0379955
0.000157924
0.000296641
0.000148556
0.000153229
0.0442989
0.000172343
0.0255496
0.0243507
0.000159345
0.0643282
0.000148033
0.000145605
0.0208665
0.000165188
0.000153152
0.0594914
0.000155874
0.000163358
0.000157633
0.000174425
0.000148896
0.02479
0.0415727
0.00821041
0.000204605
0.000154575
0.000170427
0.0272378
0.000152712
0.000149613
0.000174726
0.000146064
0.000182204
0.0484163
0.0174666
0.0227567
0.00017328
0.000150036
0.0513949
0.000145383
0.000178845
0.000149522
0.0260194
0.000152293
0.00016426
0.0323365
0.000185408
0.000148021
0.000159246
0.0155015
0.000148983
0.000191045
0.000146819
0.0105074
0.0501914
0.000186503
0.000167873
0.000147492
0.000174046
0.00019029
0.000164685
0.000146828
0.000150216
0.000148888
0.000172899
0.000148763
0.000181832
0.000149272
0.000147061
0.0720963
0.000147499
0.000155799
0.000154511
0.000149813
0.0372239
0.000147384
0.000160791
0.0478083
0.000170976
0.0387783
0.000148826
0.0555886
0.000171972
0.0603267
0.000151948
0.000188726
0.000149377
0.000165763
0.000188089
0.000186637
0.000197728
0.0475288
0.000195279
0.000265917
0.000155843
0.000186367
0.000162966
0.000225709
0.00015391
0.000149208
0.000148537
0.00017175
0.000164641
8.80283e-05
0.000171861
0.0425058
0.0167353
0.00017076
0.000148265
0.000144946
0.000177655
0.000150205
0.00015286
0.000148804
0.0304917
0.000148557
0.013788
0.000147394
0.000156595
0.0345199
0.000169933
0.000148301
0.000148479
0.0222978
0.000147403
0.000152702
0.000154361
0.000160037
0.000156608
0.000148973
0.000191974
0.000168314
0.000162755
0.000200855
0.0417029
0.0356798
0.0275802
0.000146127
0.000148144
0.00017111
0.000150038
0.000163371
0.038333
0.0354551
0.00014572
0.000148517
0.0348253
0.000213983
0.000145849
0.000146953
0.000155432
0.0514055
0.0434829
0.000155581
0.000160961
0.000149261
0.000205166
0.000188653
0.000173904
0.000158644
0.000163454
0.000150164
0.000163577
0.000210578
0.000150896
0.000148913
0.000155314
0.0477902
0.000154127
0.0213228
0.000148591
0.0424907
0.000161785
0.000156676
0.000146357
0.000147343
0.000216648
0.0102906
0.00016508
0.0206641
0.0540582
0.00015021
0.044822
0.000190437
0.00014794
0.00533459
0.000200908
0.000186482
0.000149667
0.0332962
0.0348283
0.000148397
0.000162549
0.0245502
0.000165775
0.000148547
0.000146955
0.000149626
0.000152743
0.000177961
0.000209035
0.000167992
0.00017646
0.000146376
0.000149159
0.0379581
0.000147187
0.000167364
0.000155544
0.000149454
0.000170019
0.000148082
0.00015226
0.000205002
0.000147832
0.0399486
0.000148115
0.00115475
0.0409139
0.00018142
0.000149235
0.000149947
0.051766
0.000145628
0.000152834
0.000149921
0.000194424
0.000220418
0.000161351
0.0402413
0.00016261
0.000114338
0.000150536
0.000177684
0.000147535
0.000148833
0.0190817
0.0388747
0.000237894
0.000152246
0.000177365
0.000177537
0.0361095
0.0486992
0.000202397
0.00016426
0.000145341
0.0449507
0.000147947
0.000148179
0.000203924
0.000186812
0.000156772
0.000177293
0.000163897
0.000159187
0.000156607
0.0656914
0.000153209
0.00014779
0.0191853
0.000164116
0.000146181
0.0292661
0.000148065
0.000148629
0.000192456
0.000182495
0.0446178
0.000146271
0.000153676
0.000147382
0.000300904
0.000147298
0.000197803
0.000861503
0.0384136
0.0273251
0.00798611
0.000157889
0.0386966
0.000226792
0.000149337
0.000158303
0.000162748
0.000157953
0.000252044
0.0381579
0.0484445
0.0384899
0.000334269
0.000149069
0.000185317
0.000148118
0.0189918
0.000157673
0.000151662
0.000152795
0.000150362
0.000147305
0.000184926
0.0496559
0.000146038
0.000152108
0.000146893
0.0344332
0.00015189
0.0699876
0.0388318
0.000238351
0.000148594
0.000147373
0.0308259
0.000189166
0.000148844
0.000186464
0.000149471
0.000183219
0.000176936
0.000182145
0.00017142
0.0026149
0.000146716
0.000147649
0.000214743
0.0300593
0.000157944
0.000165998
0.000147691
0.0132001
0.000148117
0.000147522
0.000151277
0.000148216
0.00842158
0.0369758
9.0521e-05
0.000175566
0.0522395
0.000223963
0.000145708
0.000160026
0.000145995
0.000253088
0.000148519
0.000153637
0.00014815
0.000147303
0.000147196
0.000323953
0.000151087
0.000267242
0.000146105
0.00015904
0.000156865
0.000281535
0.00014818
0.000160157
0.000163119
0.00017106
0.0708329
0.000147286
0.0266232
0.000173748
0.000164385
0.000149847
0.000147582
0.0307277
0.00895489
0.000148591
0.000147745
0.000207789
0.000213497
0.000160988
0.0469982
0.000150649
0.000167987
0.000160222
0.00014599
0.0287257
0.000151663
0.0433186
0.000148498
0.000150342
0.000148693
0.0337782
0.0368588
0.000145821
0.00018023
0.000209033
0.000148257
0.000147622
0.0001473
0.000182
0.0472071
0.000172774
0.000153696
0.00016453
0.000148075
0.000148637
0.000152212
0.00014787
0.000195241
0.000148779
0.000176298
0.000221687
0.000162234
0.00014542
0.0357959
0.000178583
0.000148135
0.000175459
0.000159479
0.000103696
0.000153597
0.0575599
0.000172039
0.000148173
0.000178574
0.000178733
0.000153589
0.0709696
0.000175206
0.000159726
7.75723e-05
0.000147817
0.000181664
0.000168933
0.000179202
0.000147443
0.000148055
0.000145601
0.000159373
0.000173504
0.000172926
0.0203155
0.0297218
0.0394315
0.000149754
0.000309013
0.042109
0.0524682
0.000148205
0.000148364
0.000172172
0.0457257
0.000152892
0.000163016
0.0105875
0.0291842
0.00120469
0.000172161
0.000192997
0.0336294
0.000226431
0.000145661
0.000741871
0.000201503
0.00014943
0.000149667
0.000150635
0.056466
0.000180303
0.0430778
0.000152551
7.1171e-05
0.00014879
0.000135475
0.0281073
0.000149285
0.000162097
0.0438068
0.0373173
0.000171431
0.000150743
0.000152264
0.000150039
0.000182167
0.000187921
0.000254675
0.0506646
0.00014647
0.0163461
0.000185878
0.000486368
0.000148036
0.000149013
0.00595312
0.000183908
0.000147922
0.000169546
0.000167452
0.000161267
0.0400039
0.0493077
0.0604347
0.0494258
0.000154332
0.000146106
0.000166736
0.0229005
0.0101577
0.000148232
0.000181442
0.00016922
0.000196958
0.000150429
0.000149677
0.000232711
4.6843e-05
0.000169755
0.000259472
0.0209667
0.000147587
0.000181692
0.0484867
0.000149501
0.000166068
0.000183901
0.000145907
0.000193266
0.0568901
0.000180748
0.00014967
0.0169005
0.000186461
0.0192726
0.000144957
0.00015252
0.000148891
0.000151929
0.000148781
0.000169612
0.000162603
0.000162493
0.000188833
0.000161856
0.0365089
0.000154165
0.000159032
0.000156785
0.0199996
0.000165089
0.0306925
0.000156751
0.000156405
0.0101343
0.00017034
0.000148876
0.000162772
0.000334044
0.0472125
0.00021197
0.000148067
0.000147516
0.000147806
0.000172352
0.000151335
0.000351383
0.00025605
0.000181457
0.000159579
0.000196834
0.0264302
0.000148786
0.0257711
0.00016
0.000163999
0.000147887
0.000148117
0.000171221
0.0542948
0.000148398
0.0277186
0.000202548
0.000169908
0.000190397
0.000147392
0.000148003
0.000158928
0.000151296
0.0209019
0.0213567
0.000169439
0.000216843
0.000147963
0.000148629
0.000148958
0.000149618
0.0701556
0.000151608
0.0387878
0.000169067
0.000150512
0.000188156
0.000262211
0.0335629
0.0197384
0.000152145
0.000147454
0.000148785
0.000152543
0.000222866
0.000180413
0.0686098
0.000148949
0.00015003
0.000175382
0.000149709
0.000191959
0.000152401
0.000174486
0.000175651
0.00016264
0.000162673
0.000146271
0.000168636
0.00016215
0.000179126
0.000168418
0.000163019
0.000146933