/*--------------------------------*- C++ -*----------------------------------*\
| =========                 |                                                 |
| \\      /  F ield         | OpenFOAM: The Open Source CFD Toolbox           |
|  \\    /   O peration     | Version:  v2012                                 |
|   \\  /    A nd           | Website:  www.openfoam.com                      |
|    \\/     M anipulation  |                                                 |
\*---------------------------------------------------------------------------*/
FoamFile
{
    version     2.0;
    format      ascii;
    class       volVectorField;
    location    "600";
    object      ddt0(U);
}
// * * * * * * * * * * * * * * * * * * * * * * * * * * * * * * * * * * * * * //

dimensions      [0 1 -2 0 0 0 0];


internalField   nonuniform List<vector> 
13851
(
(0.00459507 0.00021017 -1.17077e-19)
(-0.0803939 0.09234 -2.8856e-19)
(-0.00249661 0.00988188 1.44262e-18)
(0.00437092 0.000104887 -3.23672e-19)
(-0.00460276 0.00716578 6.27172e-18)
(0.00871789 -0.00504033 -2.76214e-19)
(-0.000568463 0.00121651 -5.74527e-20)
(-0.00208598 0.00760606 -2.42825e-18)
(0.000623514 -0.00160111 -5.08202e-20)
(0.000676692 0.00698267 6.24622e-19)
(-0.033668 -0.00435102 -1.02115e-18)
(-0.0065735 -0.0448758 -6.05761e-19)
(-0.00403458 0.00044701 -5.41269e-18)
(0.0363174 0.004595 -7.48694e-18)
(0.000171271 0.00018723 2.53915e-19)
(0.000101396 0.00769003 -5.03901e-19)
(-0.000539482 0.00493205 -1.67793e-18)
(0.00805335 0.00384424 -2.41459e-20)
(-0.0073342 0.00274964 -1.96788e-18)
(0.000688007 -0.00150605 1.88191e-19)
(0.00424967 0.000142121 6.96532e-20)
(-0.00293146 0.00961584 7.00037e-18)
(-0.000992628 7.49299e-05 6.22529e-20)
(0.000360821 -9.87159e-05 5.06654e-19)
(-0.000866355 5.12019e-05 -3.18626e-20)
(-0.00198451 0.00777511 9.85848e-19)
(-0.00194781 0.00370889 -3.85499e-18)
(1.05959e-05 -0.003847 6.96571e-18)
(0.00456322 0.000330458 9.61111e-20)
(0.0039099 0.00454048 7.49024e-19)
(0.00896779 -0.00746838 -5.59228e-19)
(-0.000613908 0.00507268 2.81814e-18)
(-0.00215198 0.00972378 -6.39195e-19)
(0.0509889 0.0117 3.52508e-19)
(0.000400971 -0.000130648 -6.29109e-19)
(-0.0076655 0.012345 -9.04451e-18)
(0.00731289 0.0116211 5.09047e-18)
(-0.0129755 0.00961489 -6.61333e-18)
(0.00159764 0.00697548 5.59575e-19)
(0.0566351 -0.00224534 1.00445e-18)
(0.00251923 0.000664794 -1.45935e-20)
(0.000235208 0.00132419 5.19725e-20)
(-0.00228543 -0.0080871 -2.03083e-18)
(-0.0205705 0.000671066 -4.85765e-19)
(-0.0237376 -0.0135482 2.82116e-19)
(-0.0131338 -0.015773 -4.6045e-18)
(-0.00943845 -0.013649 -5.62139e-19)
(0.0416569 0.0534274 4.12485e-19)
(-0.00205346 0.00377429 -3.53537e-18)
(-0.0110858 -0.00801267 -6.9434e-19)
(-0.00434834 0.00678129 -3.33854e-18)
(-0.0032794 0.0057237 2.87961e-18)
(0.00130999 -0.0119074 -1.06433e-17)
(0.000265063 0.000127946 4.7388e-19)
(0.00149345 6.24691e-05 -1.06601e-19)
(0.000311456 0.00142036 -4.91051e-20)
(-0.00134045 -0.000157434 -8.95426e-20)
(0.00638544 -0.0120049 5.41226e-18)
(0.0038969 0.00430194 -7.39049e-19)
(-0.000422794 0.00156638 1.03602e-18)
(-0.0137384 0.0102021 9.94082e-18)
(-0.0104231 0.000978009 -1.47226e-17)
(0.0146876 -0.00475401 -5.10356e-20)
(-0.00487982 0.00680875 1.73726e-18)
(0.00452873 0.0469348 -4.65477e-19)
(0.00488149 -0.000271588 -5.42663e-19)
(0.00838721 0.0110756 1.81045e-17)
(-0.00522325 -0.00756351 -6.061e-20)
(-0.00347711 0.005386 -2.14158e-18)
(0.00811419 0.00337802 9.72039e-20)
(0.0171186 -0.000711079 7.47731e-18)
(0.0130206 0.0102438 5.94345e-18)
(-0.0443676 0.0789892 2.66008e-19)
(0.000226032 0.00012661 -1.09616e-19)
(0.00154168 8.02029e-05 2.76898e-21)
(0.00108911 -0.00223173 1.05592e-19)
(-0.00299427 0.00931402 -7.97387e-18)
(0.007053 -0.00252475 -1.03884e-17)
(-0.00349711 0.00673136 -7.2132e-18)
(0.0201254 -0.000408328 8.90132e-18)
(-0.000398271 0.00221638 -2.61275e-19)
(-0.0373543 -0.00544039 1.49879e-19)
(0.00068256 0.00102631 3.49353e-19)
(-0.00852281 -0.0152165 -1.07213e-17)
(0.0163374 -0.00407301 3.04377e-19)
(-0.0100213 -0.0419 4.4973e-19)
(0.00530183 -0.00427239 -1.19255e-18)
(-0.0851161 -0.00845857 5.70314e-18)
(-0.00154145 0.00462271 -1.78515e-18)
(-0.00394771 -0.000277329 9.0367e-20)
(-0.00768301 0.0113059 2.48071e-18)
(0.00416245 2.31514e-05 2.18142e-19)
(-0.00135964 0.00114167 5.41627e-20)
(-0.00210308 0.00508599 2.40985e-18)
(-0.00161011 0.00448489 7.80595e-19)
(-0.000879575 -9.80857e-05 2.56885e-19)
(-0.00468432 0.00702116 -3.00292e-18)
(-0.00212516 -0.00549122 -1.3948e-17)
(-0.0117116 -0.0071627 5.0988e-19)
(-0.000777949 -7.06951e-05 -1.84298e-19)
(0.0222303 -0.0372757 4.28533e-18)
(-0.00402329 0.00643779 5.29628e-18)
(0.00385283 0.00145706 1.83285e-20)
(-0.00271256 0.00272396 4.44769e-18)
(0.000499165 8.01889e-05 -1.45676e-21)
(0.0028346 -0.00471822 2.50369e-19)
(-0.00425677 0.00648563 -3.52327e-18)
(0.000713135 0.000966755 -4.97795e-20)
(0.0170091 0.00880628 -2.53803e-18)
(0.00979061 -0.00380631 -3.60047e-20)
(-0.000166753 -7.47421e-05 -1.20293e-19)
(-0.00394722 -0.000204318 -1.49834e-19)
(0.00400498 -0.000186427 6.04246e-20)
(0.000228647 -2.13629e-05 -1.77628e-19)
(-0.000179787 -0.000106671 -3.25438e-20)
(-0.0470303 0.212875 -1.06323e-17)
(-0.00278654 -0.00488027 -8.3111e-18)
(0.000204151 0.000714929 -4.22723e-20)
(0.00140781 -4.28697e-05 3.85626e-20)
(0.00155467 2.5038e-05 7.98019e-21)
(-0.00141641 -0.00875688 -5.41936e-18)
(-0.00259933 0.00277375 -3.37426e-18)
(-0.00451143 -0.000128187 -8.82105e-19)
(0.0362807 -0.0735655 -5.22416e-19)
(0.0458531 0.0269285 -2.72043e-19)
(0.00694528 0.00279416 5.97955e-21)
(0.051502 0.00565445 -8.30271e-20)
(-0.00376779 0.00657474 -3.44747e-19)
(0.00410518 5.66991e-05 -5.49675e-19)
(-0.00674853 0.00717026 3.5861e-18)
(0.00245043 0.0006503 2.78057e-21)
(0.00138535 -0.000507215 -3.80766e-20)
(0.0171507 -0.000391755 -8.50537e-18)
(0.000624073 0.000983108 -8.31354e-20)
(-0.0399871 0.184169 4.16319e-19)
(0.00133839 -0.000174292 2.46093e-19)
(0.000183426 0.000648485 1.23294e-20)
(0.0115034 0.0103789 6.31841e-18)
(-0.0176113 0.0358488 8.48338e-18)
(0.0320477 0.0584489 1.17101e-18)
(0.0169642 -0.0347354 -4.4127e-18)
(0.00151972 5.49232e-05 4.60287e-20)
(0.00324815 -0.00294791 -3.88004e-19)
(-0.000863965 0.00168498 -8.80035e-20)
(0.000691909 0.0042827 1.4921e-18)
(-0.0116061 0.0108514 -1.34435e-22)
(0.0116862 0.000365167 6.93651e-20)
(-0.00706037 0.00748245 -4.23388e-18)
(-0.00051986 0.00119592 1.35028e-18)
(-0.0303002 -0.0218952 1.72098e-19)
(-0.00660255 0.00730063 5.79089e-18)
(0.00160466 1.01081e-05 1.05841e-20)
(0.0447183 -0.00284885 4.18824e-17)
(-0.00139038 -0.00014139 8.10161e-19)
(-0.000748671 0.00347983 -9.64628e-19)
(0.000834573 0.00423707 -9.11299e-19)
(0.00219437 -0.000491398 7.39335e-21)
(0.00288581 0.00396331 -3.34827e-19)
(-0.00357598 0.00547186 1.46056e-18)
(-0.00435641 0.00670543 -1.60207e-18)
(0.00223532 0.00168947 1.85439e-22)
(-0.00289135 0.00449293 -1.80492e-18)
(0.00519139 -0.0117053 9.37448e-18)
(0.00133029 -0.000520914 2.76351e-19)
(0.00377154 0.00712409 1.16585e-18)
(-0.000447746 0.00165017 -1.31105e-19)
(0.013671 -0.000140335 -4.8743e-20)
(-0.00361636 0.00537695 1.11818e-18)
(0.00402798 0.000124347 -3.5294e-19)
(-0.000775736 -0.00865331 -5.02207e-18)
(0.00723846 -0.002624 4.67065e-18)
(-0.000764458 -0.000848817 -5.19251e-19)
(0.00222486 -0.000446215 -6.9251e-21)
(0.0362149 0.0633129 -9.28029e-19)
(0.00129744 -0.000481733 -1.28651e-19)
(0.0197663 0.0799173 -8.38422e-19)
(-0.00365151 0.00657635 -2.97067e-18)
(0.00317817 -0.00208041 7.31383e-19)
(-0.00660934 0.00213764 -3.51472e-18)
(0.000908274 0.00117946 2.72708e-20)
(-0.000612449 0.00538703 -4.96127e-19)
(0.0132564 0.00995485 -1.46859e-18)
(0.000521464 0.000885609 -6.91847e-20)
(-0.00330257 0.00981668 -4.47254e-18)
(0.00107121 0.000321268 2.10732e-21)
(-0.00148644 2.02227e-05 -1.50721e-19)
(0.00499203 -0.000217332 -2.97297e-19)
(0.00154624 5.13802e-05 -1.20201e-20)
(-0.00503711 0.00752127 -4.15162e-18)
(-0.00601019 0.00834807 -7.47029e-20)
(-0.00412303 -0.00539944 1.64822e-19)
(0.00190974 -0.0120125 2.66402e-17)
(-0.00365995 -0.000163288 6.01333e-20)
(-0.00312555 0.00570257 -4.37396e-18)
(-0.00969827 0.00218698 1.04905e-17)
(-0.000521101 0.00343643 2.07592e-18)
(0.00301198 -0.00293389 3.15009e-19)
(0.0399326 -0.0873355 -1.23425e-18)
(0.00310708 -0.0022075 -7.65612e-19)
(0.00120571 -0.00220727 2.11143e-19)
(0.00734786 0.00468689 5.70043e-20)
(-0.0160125 -0.0116592 -1.60686e-17)
(0.0012181 -2.17521e-05 2.05944e-19)
(0.00140643 0.000884801 1.43707e-19)
(-0.00246747 0.00763732 9.31569e-20)
(0.000506826 0.000942699 1.01009e-18)
(0.00674559 0.0347328 -6.16324e-18)
(-0.000916964 0.00482545 8.32625e-20)
(0.010485 -0.000140396 -7.67312e-19)
(0.00150771 0.00138978 -3.34194e-20)
(0.00931333 0.00391643 1.51819e-18)
(0.00370269 0.00141937 -8.65735e-20)
(0.0278657 -0.129308 -3.70781e-18)
(0.00105652 0.000950419 1.90295e-20)
(-0.000639371 0.00186142 -4.08844e-20)
(-0.0297949 -0.0260252 1.32932e-19)
(0.017272 -0.000773163 3.72303e-19)
(-0.0112896 -0.0176893 3.21884e-17)
(0.000285017 0.000389653 -6.37725e-19)
(0.0100334 9.56965e-06 6.2083e-18)
(-0.000890147 0.00494647 2.29929e-18)
(-0.000472442 0.00228223 9.22077e-19)
(0.00139428 -0.00112168 -1.01452e-17)
(-0.00505781 0.00559829 1.25302e-17)
(0.01372 0.00418263 -2.46804e-18)
(-0.0011731 2.17007e-05 -3.50316e-19)
(-0.00233317 0.00548041 -7.0216e-18)
(0.000382835 4.66952e-05 -8.94766e-22)
(0.0019291 -0.0150391 -1.98205e-17)
(0.00116037 0.00100433 -4.34076e-20)
(-0.00181616 0.00774833 1.18551e-19)
(0.0488006 0.0202387 5.60791e-20)
(-0.00078247 -0.000776469 2.73874e-19)
(-0.00378107 -0.000344089 2.36715e-19)
(-0.00460687 0.00672186 -2.67467e-18)
(0.0123608 0.0101928 2.2989e-20)
(0.00607983 0.0319836 2.03989e-17)
(-0.0292462 0.0586302 -1.92521e-19)
(-0.000831681 0.00178612 7.88999e-21)
(0.00137916 0.0009236 4.3776e-19)
(0.00702495 -0.00801803 -1.89267e-19)
(-0.0272282 0.0239494 9.14913e-19)
(0.00382237 0.00263528 3.75593e-21)
(-0.00267654 0.00715946 2.57074e-19)
(0.000562901 0.000137289 1.00847e-20)
(0.0123326 0.00267018 -6.53163e-18)
(-0.00399857 0.00652519 -9.56487e-18)
(0.0478691 -0.0365435 2.45303e-18)
(0.00111636 0.00436095 -1.44912e-18)
(0.00059139 0.00578927 -6.5445e-19)
(0.0030781 -0.00161092 3.22338e-19)
(-0.0314766 0.031538 -9.00982e-19)
(0.000755537 0.00271365 -1.18693e-18)
(0.000956166 0.00440938 -3.03231e-19)
(-0.00466976 0.00623469 -1.60943e-19)
(-0.0086355 -0.0164313 1.66171e-18)
(-0.00591342 0.00948857 -3.75493e-19)
(0.0116754 0.0100524 2.54275e-19)
(0.00867987 -0.00388428 3.19571e-18)
(-3.44467e-05 0.000626427 -3.29155e-19)
(-0.000712341 0.00177612 6.49243e-20)
(0.00751488 0.00271965 3.45905e-20)
(0.0389797 -0.0371748 6.48987e-19)
(-6.79279e-05 0.00254734 -6.4807e-20)
(-0.00926708 0.00165561 -3.82522e-19)
(-0.000432401 0.00347842 -1.53662e-19)
(0.000683818 0.00262663 2.33727e-18)
(-0.00206997 0.00496936 -1.64403e-18)
(0.00112052 -0.000673086 -3.6625e-19)
(0.00940033 -0.0331485 4.14053e-19)
(0.00303373 -0.00153402 -2.61939e-20)
(-0.000641323 0.00354203 -5.79763e-19)
(0.0208737 -0.010725 1.36806e-18)
(-0.00341965 0.00662223 3.37033e-19)
(0.000338317 0.00769723 6.49604e-19)
(0.00141767 -0.000541722 1.85185e-19)
(-0.0350612 -0.00276328 -4.78613e-20)
(0.00124797 -0.0327827 2.65627e-19)
(0.0189269 0.00542883 8.96611e-18)
(-0.0361618 -0.0152249 1.38176e-19)
(0.00408262 0.00247517 -2.4542e-21)
(0.0015315 0.00117772 6.78034e-21)
(0.000606297 8.36368e-05 1.91704e-21)
(-0.00467838 0.00612016 -9.12325e-19)
(0.0322496 -0.0466154 -1.30604e-19)
(-0.0282923 0.117132 9.56888e-19)
(0.00102058 -0.00181212 5.53498e-19)
(-8.34161e-05 0.000288364 -2.98442e-20)
(0.0187546 -0.0148801 -1.94774e-18)
(-0.0212618 -0.0164751 2.48102e-20)
(-0.00825294 0.00727139 -8.83469e-19)
(0.00357931 0.00419278 2.49097e-22)
(-0.000404742 0.00163719 -2.34319e-19)
(-0.00348038 0.0057709 -5.37654e-18)
(-0.0235024 -0.0156567 -4.28373e-20)
(-0.00842063 0.001674 9.31539e-19)
(0.0029631 0.0068268 9.96921e-19)
(-0.0165917 -0.0444214 -1.97679e-18)
(0.00149934 -0.000566111 -2.72333e-19)
(0.0118664 0.00288328 -3.80659e-18)
(-0.00285136 0.00440493 8.70647e-18)
(-0.000357296 0.00496598 4.26435e-19)
(0.0174216 0.00546438 -2.3662e-18)
(0.00257892 0.00167565 1.13634e-19)
(0.00372773 -0.00520698 1.52867e-19)
(0.00501734 0.000230859 1.16533e-17)
(0.000969322 -0.0017291 1.05043e-19)
(-0.0043494 0.00583893 -1.91802e-18)
(-0.00199855 0.00520256 2.45525e-18)
(0.00355071 0.00396968 2.09928e-19)
(-0.0205041 0.0315551 -4.54402e-18)
(0.00306539 0.00701262 -1.85401e-18)
(0.00103071 0.00262878 -1.24464e-18)
(-0.000148796 -0.00283061 -1.40253e-18)
(7.90943e-06 0.00145438 -1.33257e-19)
(0.000468213 0.00590337 6.34363e-20)
(0.0101738 0.00914612 -8.055e-20)
(0.0186191 0.00597914 -1.76744e-17)
(-0.0058006 0.00976995 2.38267e-18)
(0.000281396 0.000439468 -3.21577e-19)
(-0.00425883 0.00635389 6.38933e-19)
(0.000110627 0.00038591 -1.55677e-19)
(0.0080555 -0.00432873 -3.09998e-18)
(0.00314473 -0.00195298 3.25844e-19)
(-0.0012326 7.7714e-05 3.8782e-21)
(0.00254386 -0.000643471 3.68849e-19)
(-0.00549099 0.00952801 -1.66292e-18)
(-0.00227089 0.00533563 -4.44525e-18)
(-0.000901795 0.00332202 4.04837e-19)
(-9.93429e-05 0.000257579 4.05234e-20)
(0.00247421 0.0016529 -2.21707e-19)
(0.00111604 0.00256829 4.47196e-19)
(-0.0325401 -0.00696357 2.9623e-19)
(0.042028 -0.0212547 2.33177e-17)
(-0.0037889 -0.007258 -1.03939e-17)
(0.00922368 0.000687476 -5.72238e-19)
(0.0173987 0.00606157 -5.11867e-18)
(-0.0101022 0.0102824 -8.38729e-18)
(0.000215529 0.000185876 -5.92087e-20)
(-0.00309707 0.00584679 7.55957e-18)
(-0.00901938 0.00743125 -2.53116e-18)
(0.00370011 0.000661702 6.15596e-19)
(0.0175194 0.0124752 -1.64788e-19)
(-0.00338313 0.00642277 2.43544e-17)
(-0.00797884 0.00258082 6.04505e-18)
(0.00353584 -0.00107061 -3.37819e-20)
(0.0552084 -0.0987071 -2.00466e-18)
(0.00760223 0.00150707 3.80031e-18)
(0.00013871 0.000152119 -1.21401e-19)
(-0.0133234 0.0562969 7.38016e-19)
(-0.00905773 0.0600496 2.60262e-18)
(-0.0118652 0.0148115 4.76129e-18)
(-0.00097865 0.00324887 -1.7735e-18)
(0.0192608 0.0134349 6.86142e-20)
(0.00272273 -0.0154168 9.38907e-18)
(0.00227631 -0.000447241 7.57691e-19)
(0.053938 -0.0927451 1.28053e-18)
(0.00252654 -0.000683246 -3.23842e-19)
(9.40815e-05 0.000357797 7.5009e-20)
(0.000661759 0.000175775 -4.1492e-21)
(0.000798847 0.00101692 7.55533e-20)
(0.00207338 -0.000423751 1.75993e-19)
(0.00751154 0.00202046 7.83961e-19)
(0.0192712 0.0348964 2.84055e-20)
(0.00148316 0.00130099 -2.5687e-20)
(-0.00429786 0.00572148 -1.45562e-18)
(-3.74956e-05 0.00173845 -5.30306e-20)
(-0.021669 -0.0487883 1.91568e-18)
(0.000112471 0.00903251 1.27094e-18)
(-0.0522844 0.165445 -6.19594e-19)
(-0.00189466 -0.00799108 2.11817e-18)
(0.00156194 0.00132869 -6.84689e-21)
(0.0191697 -0.00122872 -5.34379e-20)
(-0.001758 0.00542235 -4.87704e-19)
(-0.0413775 0.16192 1.90229e-18)
(0.00236565 0.00049729 1.31784e-20)
(0.000139526 0.000763898 8.22502e-20)
(0.00389216 -0.00152776 -1.09467e-21)
(0.0258547 -0.0330743 2.27239e-18)
(0.00155568 5.58167e-05 2.34751e-21)
(-0.0186674 0.0334176 4.66842e-18)
(0.00410712 0.000571262 -1.65676e-19)
(-0.00313922 0.00636017 -9.26167e-18)
(-0.000423355 -0.0102101 -8.96498e-19)
(-0.00528562 0.0695423 -2.13008e-19)
(-0.00625397 0.0717611 -1.65234e-18)
(0.00334749 -0.00126654 -5.39667e-20)
(0.00159957 -0.000358136 1.30177e-19)
(9.55461e-05 7.50718e-05 1.1671e-19)
(0.00852522 0.000866207 -2.53684e-19)
(-0.00432959 0.0063019 -9.83935e-18)
(0.0571626 0.0153662 4.84968e-18)
(-0.00382857 0.0052504 -1.24618e-18)
(0.013537 0.00474775 -7.17526e-18)
(0.00585886 0.000750947 -2.42042e-19)
(-0.000136964 0.00169804 8.56842e-20)
(-6.59029e-05 0.000659204 -2.77912e-19)
(-0.00273581 -0.00822209 1.86391e-17)
(0.0182047 -0.000290791 2.4598e-18)
(0.0459808 0.0147297 2.67482e-19)
(-0.00236195 -0.00429812 1.61373e-17)
(0.00397266 -0.00168104 -2.96132e-19)
(-0.00185568 0.00553169 5.87565e-18)
(-0.00113887 -2.91366e-05 -1.78106e-19)
(-0.0110154 0.00987625 2.56681e-18)
(-0.000253972 -0.00136784 -5.4213e-20)
(4.2042e-06 0.0075075 2.1112e-18)
(0.00336859 -0.00133285 -3.63463e-19)
(-0.000252412 0.00126723 1.09463e-18)
(0.000498213 5.16908e-05 -5.25067e-22)
(0.000846188 -0.00174848 3.39526e-19)
(-0.000370797 0.00169358 7.57091e-20)
(-0.00473698 0.00670547 6.50886e-18)
(0.0122963 0.0146996 2.07385e-25)
(0.00732802 -0.00562497 1.57541e-18)
(0.00846752 0.00243153 1.92999e-19)
(-0.0043 0.00643795 1.43563e-18)
(0.00554056 -0.000955107 2.59869e-19)
(-0.0254761 0.0420597 -2.60758e-19)
(0.000802086 0.00625025 2.75063e-18)
(-0.010214 0.0147415 -7.66867e-18)
(-0.00027299 0.00484294 -1.6682e-18)
(-0.0292437 -0.0335761 -8.43026e-20)
(0.000265358 0.000618654 7.15078e-20)
(0.000799066 -0.00167082 -2.62891e-19)
(-0.00131473 1.55143e-05 8.65317e-20)
(-0.0140853 0.0104649 4.41199e-18)
(-0.0372503 0.0110443 1.64571e-19)
(-0.00552542 0.00607198 1.13894e-17)
(0.00541755 -0.000825775 -3.20996e-19)
(0.00854697 -0.00540849 -7.30981e-18)
(0.0451364 0.0157603 -7.77786e-20)
(0.00445366 -0.00421227 6.89753e-19)
(0.00158008 6.03979e-06 4.13958e-21)
(-0.0047162 0.00677653 1.26625e-17)
(0.00230524 0.000478699 -2.25527e-20)
(-0.0286392 0.0515089 -3.26225e-19)
(0.000227766 0.000100671 3.12856e-20)
(-0.00288779 0.0106622 -7.0245e-18)
(-0.0388341 0.070657 -1.49356e-19)
(-0.00155718 0.00931443 5.68798e-18)
(0.00905998 -0.000882552 1.47242e-18)
(0.00326998 -0.0023646 6.20237e-20)
(-0.00921365 -0.0281971 7.33383e-20)
(-0.0370771 0.0644802 -2.10029e-19)
(0.0155663 -0.0248164 6.44929e-19)
(0.00104897 0.000381942 -4.09691e-21)
(-0.00201537 0.00576697 5.41722e-18)
(-0.00361299 0.00670689 8.8055e-18)
(0.00450174 -0.0428085 -2.64881e-19)
(-0.000318024 -0.0010701 -8.84655e-20)
(0.00130121 0.00258671 4.69287e-19)
(-0.00654592 0.00701786 2.65278e-18)
(-0.00344445 0.00593907 2.18883e-18)
(0.0106159 0.00256315 -2.40599e-19)
(-0.0202188 -0.0364873 8.6926e-19)
(-0.00134497 2.3828e-05 2.61484e-19)
(0.00261954 -0.000648189 -5.26276e-19)
(-0.00346383 -0.0120643 -3.79875e-18)
(0.0041683 0.0074247 -6.59287e-19)
(0.00147588 0.00109179 -2.48924e-20)
(-0.075641 -0.0134595 -3.99368e-18)
(0.00156701 -0.000368964 -7.17229e-20)
(0.00451793 0.00013079 4.67206e-19)
(0.000217305 -0.00120794 -1.251e-20)
(0.00413114 0.0121377 2.82716e-19)
(0.00296651 0.0034509 1.4669e-18)
(0.00145372 0.00128157 9.94971e-21)
(0.00319687 -0.00252731 -1.29936e-19)
(-0.000839992 -0.00264057 -2.14271e-18)
(0.00068333 0.00109486 4.0765e-19)
(-0.00385922 0.00550112 -1.68084e-18)
(0.00136764 -0.000190476 -4.0171e-21)
(0.0031217 -0.00142684 -8.9048e-19)
(-0.0134166 -0.0396535 -1.58406e-19)
(0.000307767 -1.63985e-05 -3.508e-19)
(0.00262109 0.000237271 1.59448e-19)
(0.000363367 -3.8916e-05 5.81953e-19)
(0.00029056 -3.46698e-05 -3.89549e-20)
(-0.0127605 0.0731737 9.14053e-19)
(0.000505407 0.0025492 1.16786e-18)
(0.0061306 -0.0050278 1.53795e-19)
(0.000472439 0.000839233 4.86341e-19)
(-0.00133025 -5.76217e-05 7.17652e-20)
(0.00496346 -0.0338387 -1.19961e-17)
(0.0094337 -0.000998321 6.87536e-18)
(0.000424861 0.00101361 6.28978e-19)
(0.00290312 -0.00144118 7.73007e-19)
(0.000588103 0.00625698 3.57576e-19)
(-0.0271619 0.00823211 2.55278e-19)
(-0.00844596 -0.0158545 3.70197e-18)
(0.00263663 -0.000604782 -2.25282e-19)
(0.0163755 0.0613625 -7.13627e-20)
(0.00237538 0.000561932 -3.99209e-21)
(-0.00454572 0.00786704 5.85895e-18)
(-0.000232368 0.00146287 8.36944e-19)
(-0.000421681 -0.0184181 2.51345e-19)
(0.000351067 0.00044707 -6.35614e-20)
(0.000799502 -0.0119627 7.988e-18)
(-0.00642449 0.0119632 -5.15704e-19)
(0.000137879 0.00134505 2.98617e-20)
(0.00279352 -0.00113966 -5.57912e-19)
(-0.000502204 -0.00738786 2.97662e-18)
(-0.00169729 0.00788607 2.5807e-18)
(0.0218803 0.0341513 1.04014e-19)
(0.0015193 -5.43462e-05 3.37928e-19)
(0.0354329 -0.0472949 8.95271e-19)
(0.00146447 4.74452e-05 7.10454e-20)
(0.00104834 -0.00056886 -5.51138e-19)
(0.00143807 -0.000638229 -1.81785e-19)
(-0.00042768 0.00109207 -1.9175e-19)
(0.0180706 0.000189997 3.75635e-18)
(-0.00430607 0.00662611 -1.01698e-17)
(-0.00256544 0.00769714 -2.1566e-18)
(-0.00369031 0.00237936 3.9708e-18)
(0.0161199 -0.00182755 -1.9058e-19)
(0.00229507 0.00185737 2.11471e-20)
(-0.00839078 -0.000828844 -1.39133e-19)
(-0.0384109 0.0202842 1.99142e-18)
(-0.000782563 0.00536212 3.33851e-18)
(-0.0028192 0.00461416 -2.15029e-18)
(-0.0234233 0.00617725 -7.7706e-20)
(0.0501647 -0.0822776 3.27233e-19)
(0.00925095 0.00453721 5.67956e-18)
(0.000362255 9.10885e-05 3.0961e-19)
(-0.000345812 -0.0195024 -2.34839e-19)
(-0.0104699 -0.0180274 7.89717e-18)
(-0.0178479 -0.0137357 4.49748e-19)
(0.00339987 0.00727153 1.08402e-19)
(0.0025962 -0.00107928 5.75389e-20)
(0.0103506 0.0476326 -1.37083e-18)
(-0.00661438 -0.031793 -3.43333e-19)
(-0.0105643 -0.011501 3.92598e-19)
(0.0439959 -0.0948285 -2.20811e-18)
(0.00522122 0.0130693 5.89265e-19)
(0.0031085 0.00404693 3.03544e-19)
(0.00584471 0.0153213 -2.41667e-18)
(0.0074404 0.00779728 -2.21013e-18)
(0.000351016 0.00051773 -1.50779e-20)
(-0.00191599 -0.0307101 3.51002e-19)
(-0.00438327 0.0066822 3.01213e-19)
(0.00928923 -0.00157992 1.00569e-17)
(0.00126124 0.00451753 4.88188e-19)
(0.00105166 0.000667608 -1.71417e-19)
(0.00214522 -0.000485076 -4.80517e-19)
(0.00202523 0.000865001 1.81335e-20)
(-0.00489868 0.00732412 -3.70844e-18)
(0.00894903 0.0109713 -2.81834e-20)
(-0.0952955 0.00179134 -2.26659e-18)
(-0.0185274 -0.0342426 -1.78189e-19)
(0.000794016 -0.000286126 -7.76707e-21)
(-0.00303282 -0.0107583 -1.6141e-17)
(0.00657077 -0.00196418 6.82881e-18)
(-0.00031126 -0.00722579 -3.10464e-19)
(-0.0389094 0.0431428 -5.45562e-19)
(-0.00373008 0.00551284 4.33839e-18)
(0.00137132 0.000921703 -1.71894e-20)
(0.000675552 -0.00168552 6.33652e-20)
(0.0208405 -0.0094862 -3.29808e-19)
(-0.00773031 -0.00153262 1.26515e-19)
(-0.000841935 0.00354189 5.17956e-18)
(-0.00582616 0.00824513 1.0207e-17)
(-0.00498524 0.0109856 -3.30827e-18)
(0.000414478 0.00139811 1.58141e-19)
(0.0061571 -0.000975628 -3.50912e-19)
(0.0513591 -0.077366 -1.74572e-19)
(-0.0141295 0.0147318 1.24982e-20)
(-0.00393656 0.00603673 2.44569e-17)
(0.0177265 0.000362663 -4.65309e-18)
(0.00845686 0.00833122 -9.55718e-19)
(0.00244072 0.00058311 -8.62333e-21)
(-0.000316756 0.00125394 -1.61453e-19)
(-0.00372424 -0.0228763 -4.75942e-19)
(0.00559102 0.000342468 -2.18735e-18)
(-0.00412183 0.00966889 -9.91546e-18)
(-0.00388637 0.00513068 -6.34538e-18)
(0.01417 -0.00713491 -3.39452e-19)
(0.000805108 0.00112482 -9.372e-21)
(0.001675 0.000473991 1.2362e-19)
(-0.00103585 0.0125832 2.16278e-18)
(0.000435213 0.00127352 -7.93259e-20)
(0.00142636 0.00445597 -1.51016e-19)
(0.000990896 0.00111834 -4.67375e-20)
(0.00158765 -0.000182648 -9.53468e-20)
(0.00760918 0.00735322 4.18541e-18)
(-0.00484557 0.00698608 -3.76456e-18)
(0.00519979 -0.000890803 -7.50352e-19)
(0.000526533 0.00125583 -4.81906e-20)
(-0.0199016 0.0300069 4.6799e-18)
(0.0258935 -0.0931842 2.45656e-18)
(0.00159049 -0.000488245 -5.84744e-20)
(-0.00165255 -0.000120475 -4.18252e-19)
(-0.000120344 0.00296687 5.40251e-20)
(0.000134239 0.000101826 -1.68735e-19)
(0.0244566 -0.0308636 -2.48184e-17)
(0.0470142 -0.0689531 4.0972e-19)
(0.0349473 -0.103978 3.90105e-18)
(-0.0208882 -0.0150193 4.54539e-18)
(0.0443494 -0.0418888 -5.79067e-19)
(-0.00379925 0.00492377 2.07509e-18)
(0.00934243 -0.00186453 -4.21142e-18)
(0.0106558 -0.000485236 -8.8673e-18)
(0.00362867 -0.00104389 5.38798e-19)
(-0.00344748 0.00551896 -8.44051e-19)
(0.0014379 0.000917715 4.55411e-21)
(0.0106665 0.00613344 2.3793e-19)
(-0.000552088 0.00746914 -3.89949e-18)
(-0.00251388 -0.00233354 -1.6419e-18)
(0.0377077 -0.0752221 2.57777e-19)
(-0.00560487 0.00807943 -9.60677e-18)
(-0.00132175 0.0059195 3.3593e-19)
(0.000518926 -0.00143277 -3.10596e-19)
(0.000655299 0.00803904 -1.99987e-18)
(0.00256957 -0.00416637 -6.79412e-19)
(0.0220895 0.0246929 -2.66731e-20)
(-0.00430029 0.00669653 -6.93848e-18)
(0.000487346 0.000782695 -4.00821e-19)
(0.00976128 0.00116011 8.57843e-19)
(-0.000251338 -0.0010183 -1.7032e-19)
(-0.00224267 0.00477679 -4.71681e-18)
(-0.00587156 0.0062215 -1.91833e-17)
(-0.000361785 0.00151314 -9.15671e-19)
(0.00229795 0.000420078 -2.75404e-20)
(-0.000105514 0.00881025 -2.05847e-18)
(0.000238819 0.00183806 -9.00163e-19)
(-0.00469951 0.00734136 -4.51242e-18)
(-0.0143269 0.0114241 -3.05806e-18)
(-0.00487925 0.00581274 -1.27008e-17)
(0.00101779 0.00845728 6.50233e-19)
(-0.00425162 0.00999992 2.44768e-18)
(0.000484909 -0.00135833 -5.42108e-20)
(0.0351859 0.00930253 3.13089e-20)
(0.00315915 -0.00175904 -3.28987e-19)
(-0.0182131 -0.0160241 -6.97041e-18)
(0.00356857 0.00149456 1.00178e-19)
(-0.000690584 -9.36737e-05 1.33915e-19)
(0.0159323 0.00918524 4.05501e-18)
(0.00479435 0.00297308 -4.75877e-19)
(0.000717891 -0.0110366 6.35122e-18)
(0.00888594 0.00167359 -8.62662e-18)
(-0.00773602 -0.0192894 4.64459e-18)
(-0.0750861 -0.00930198 1.22962e-18)
(-0.000181478 -0.00130242 -1.02168e-19)
(0.0144474 0.00990577 -8.87983e-18)
(0.00453766 0.00257288 3.04442e-20)
(0.00159165 -0.000242499 2.16703e-19)
(0.000434219 0.000418671 4.24533e-21)
(0.00161675 -0.000196814 -3.87733e-19)
(0.0078744 0.00176091 1.71444e-21)
(0.00872864 0.00190256 -3.7347e-19)
(0.00459115 0.0114417 2.19585e-19)
(0.000543367 0.00114148 3.54514e-20)
(-0.00457899 0.0178662 -3.90534e-18)
(-0.0070385 0.0106681 9.17831e-19)
(-0.00496393 0.0176725 3.33248e-18)
(0.00200246 -0.000633722 3.24409e-19)
(0.000643878 0.000336807 -2.20407e-20)
(-0.00108255 0.000137904 -8.24393e-21)
(-0.00870107 0.00828608 2.19128e-18)
(-0.00937671 0.00641774 2.07108e-18)
(-0.00527709 0.00613727 1.75645e-17)
(-0.00222518 0.00487129 8.01353e-18)
(0.00467419 0.00284667 -2.32271e-20)
(-0.00123773 -5.79361e-05 2.40637e-20)
(0.000826581 -0.000175326 -1.7539e-19)
(0.00228542 -0.000582817 -5.78307e-19)
(-0.000826858 0.00692941 5.51174e-18)
(0.00350137 -0.0391268 -2.64326e-19)
(0.000279693 0.00176989 1.31205e-18)
(0.000625473 0.00111627 -1.18723e-20)
(-0.000477503 0.00107268 -7.64529e-19)
(0.00226717 -0.000545201 1.11322e-19)
(-0.0103714 0.00914953 1.42815e-18)
(0.00307893 -0.0114939 -1.18235e-17)
(0.000402199 0.00797242 7.31487e-19)
(-0.00273479 -0.00612109 -6.72925e-18)
(0.0414484 -0.0609964 -1.14192e-18)
(0.00224332 0.000401818 -5.13596e-20)
(-0.00274732 0.00739354 -2.1477e-18)
(0.0216667 -0.027397 8.53212e-19)
(-0.0035523 0.00565108 -7.26427e-18)
(-7.1724e-05 -0.0399536 7.02544e-19)
(-0.000300184 0.00224048 4.59266e-19)
(0.00759707 0.00311622 -1.53781e-20)
(-0.00517043 0.00608716 -1.61659e-17)
(0.00782738 0.0022938 3.3537e-20)
(0.0296291 -0.122381 3.76614e-18)
(0.000440886 0.000955845 -5.23084e-20)
(0.0269256 -0.0270126 -1.06638e-20)
(0.000273875 8.50758e-05 8.11955e-20)
(-0.00439193 0.00394459 7.44344e-18)
(0.0089535 -0.000474684 -2.39846e-18)
(0.000753441 -0.00284631 -5.49793e-22)
(0.00447089 0.00223641 -1.40834e-19)
(0.0122438 -0.00724049 5.98981e-19)
(0.00108136 -0.000619942 5.52916e-19)
(-0.000520301 0.00524053 2.38998e-18)
(0.0213542 -0.0228596 1.12412e-18)
(0.0567923 0.0598929 -1.2175e-18)
(-0.00430453 0.00668416 7.60267e-18)
(-0.00983771 0.0024853 -2.30258e-18)
(-0.00698722 0.0678508 1.86877e-18)
(0.00097418 0.00100879 5.19025e-20)
(0.00194959 -0.000615165 -3.93505e-20)
(-0.00259567 -0.0310427 6.37409e-18)
(-0.0061346 0.0110828 5.83137e-18)
(0.0129863 0.0115675 2.58505e-20)
(0.00844801 0.00180523 1.38536e-17)
(-0.000791519 -0.00196083 -5.60267e-20)
(-6.5091e-05 3.14336e-05 8.09353e-20)
(0.000262327 0.00054372 -2.99432e-20)
(0.0393972 -0.0402482 7.93575e-19)
(0.00533966 0.00994569 -3.01894e-18)
(0.00292528 0.00599489 -3.26713e-19)
(0.00347983 0.000559383 -9.33619e-20)
(-0.0133276 -0.0391044 2.55068e-19)
(-0.00165969 0.0040094 -8.84271e-19)
(-0.00106757 0.000155931 -2.60396e-20)
(-0.00530131 -0.00993249 8.14615e-18)
(-0.00959102 -0.0205467 -4.25513e-19)
(0.00445047 -0.00274693 4.04751e-18)
(0.000109115 0.00145193 2.12293e-20)
(0.000225168 0.00170601 -5.1503e-19)
(0.00831655 -0.0020952 3.36837e-17)
(0.00186156 -0.00775027 -9.68887e-18)
(-0.00534304 0.0111383 7.25628e-18)
(0.0023142 -0.00401901 -6.81391e-19)
(0.0116184 0.00763117 -8.57229e-18)
(0.000558869 0.00100163 -6.67464e-19)
(-0.0214915 -0.0347537 6.95615e-20)
(-0.00557863 0.0140505 -9.7331e-19)
(-0.00142235 0.00969217 3.33712e-18)
(0.000586664 0.00542585 9.69069e-19)
(-0.00939417 -0.0183531 -9.10627e-18)
(0.00314114 -0.00127751 3.17783e-19)
(0.00134664 -0.00569649 -4.00244e-19)
(0.00535993 0.0117645 -2.60008e-17)
(-0.000642604 -0.000110484 9.18719e-20)
(0.000795643 -1.01465e-05 1.10539e-19)
(0.00301985 0.00363438 -2.22702e-19)
(0.000375515 -0.00135929 1.37446e-19)
(-0.00576766 -0.0115587 -4.65778e-18)
(-0.000719413 0.00692883 2.38771e-18)
(-0.00368134 0.0060339 4.66374e-18)
(0.00514742 -0.000776256 1.17927e-18)
(-0.0022548 -0.0358503 5.35593e-19)
(0.000632907 -0.00143102 -6.29254e-19)
(0.0306051 -0.0246443 -1.48285e-18)
(0.00112663 -8.22246e-05 1.64559e-19)
(0.00321785 -0.00120336 1.83517e-19)
(0.000425042 0.000347419 1.60802e-20)
(0.00218661 0.000331979 1.45076e-20)
(0.00166091 -3.34058e-05 -1.08353e-20)
(0.0048501 -0.000183258 -1.66074e-17)
(0.00212272 -0.000434169 5.89564e-20)
(-4.44867e-05 0.000914914 5.2372e-20)
(0.0240407 0.00387555 -1.61147e-19)
(-0.000361227 0.00130836 1.37372e-18)
(0.00815187 -0.00181891 9.63672e-18)
(-0.000111476 6.69952e-05 -2.18662e-20)
(0.00297385 -0.00343356 -4.99324e-20)
(-0.00493575 0.00700137 -4.49042e-18)
(-0.00833647 0.00660777 -1.32155e-18)
(0.0195384 -0.0272928 1.3416e-19)
(0.000536206 -0.000258714 6.0813e-19)
(0.0166509 -0.00687024 -4.84678e-19)
(-0.00370701 -0.00548758 1.69525e-17)
(0.000571621 0.00264097 -1.79876e-18)
(0.00490067 0.00152222 3.18142e-18)
(-0.00426828 0.00394719 -5.94755e-18)
(0.000245128 -0.00128534 2.07759e-19)
(0.000487554 -0.0102604 7.88437e-19)
(-0.0034698 -0.00860487 1.15313e-17)
(0.0131241 -0.00688615 5.0588e-20)
(0.00114604 0.00603556 1.12674e-19)
(0.000838319 -0.000235427 8.01401e-20)
(0.000635353 0.00100684 -3.85202e-20)
(-0.0368302 0.0495683 -2.48789e-19)
(-0.0007296 0.0101706 -2.56062e-18)
(-0.000152627 0.015469 -1.24005e-20)
(0.00312367 0.00657361 -9.67353e-19)
(-0.000629143 -0.0106629 -3.93224e-19)
(0.00033656 0.000113505 -5.28706e-19)
(0.0027717 -0.00363957 -5.12144e-19)
(-0.0068713 0.00808736 -6.5326e-18)
(-0.0243966 -0.0531159 -1.2635e-18)
(-0.00492291 0.00772367 2.79244e-18)