/*--------------------------------*- C++ -*----------------------------------*\
| =========                 |                                                 |
| \\      /  F ield         | OpenFOAM: The Open Source CFD Toolbox           |
|  \\    /   O peration     | Version:  v2012                                 |
|   \\  /    A nd           | Website:  www.openfoam.com                      |
|    \\/     M anipulation  |                                                 |
\*---------------------------------------------------------------------------*/
FoamFile
{
    version     2.0;
    format      ascii;
    class       surfaceScalarField;
    location    "350";
    object      meshPhi;
}
// * * * * * * * * * * * * * * * * * * * * * * * * * * * * * * * * * * * * * //

dimensions      [0 3 -1 0 0 0 0];
oriented        oriented;


internalField   nonuniform List<scalar> 
20580
(
-0.000365797
0.000168717
0.000200135
0.00112109
-0.000857705
-0.000277135
0.000486419
0.000623411
-0.000761711
0.000847993
-8.64824e-05
-0.000131629
-0.000169392
0.000194448
0.000416146
-0.0014778
0.00104659
-0.00115384
0.00122149
-9.97364e-05
-0.000198745
0.000194165
-0.00022957
-6.39554e-05
0.000293781
0.000978548
-0.00439415
0.0034037
-0.000468724
0.00133343
-0.000871061
0.000213863
0.00220951
-0.00246318
-0.00371025
0.000892155
0.00280945
3.98211e-05
0.000135982
-0.00017585
0.000237882
9.66382e-05
-0.000335016
-0.000877595
2.90465e-05
0.000854514
0.000512973
-0.000485362
-2.68944e-05
0.00147172
4.01152e-06
-0.00149992
0.000318412
-0.000104271
-0.000213892
-0.000175285
-0.000186314
1.24905e-05
-0.000297875
0.000284304
-0.000437364
-0.00203306
0.00244562
0.000984982
-0.000618806
-0.00036781
-0.000141932
1.32457e-05
0.000109037
0.000664552
-0.000206586
-0.000458522
-0.00111153
0.00086985
0.000248427
-0.000553736
0.000238224
0.000316613
-0.000148205
0.000177298
-2.80991e-05
-0.000582579
0.000418238
0.00016503
0.000138933
-0.00178664
0.00159627
-8.21196e-05
-0.000564025
0.000646407
0.000146476
-0.00127788
6.19099e-06
0.00026579
-0.000272294
0.000213349
-4.88125e-05
-0.000164096
0.000585949
0.000594404
-0.00118335
0.000490278
-0.000698573
0.00020796
-9.76243e-06
-0.000137572
0.000883806
-0.000667022
-0.000217008
-0.000416411
5.84008e-05
0.000358462
-0.00385674
0.0026945
0.00112847
-0.000111535
-9.08786e-06
0.000120662
-0.000358858
-0.000223364
0.000219304
0.000341366
0.00161771
-0.00112632
-0.000495789
-0.000265544
-0.000228436
0.000494611
-4.61218e-05
-0.00258113
0.00257478
-4.57401e-05
-0.000182308
-0.000429666
0.000656792
-0.000225007
-0.00305167
0.000915067
0.00210099
-0.000399669
-0.00331545
2.98411e-05
0.000180108
-0.000209596
-0.00420992
0.00107622
0.00312713
5.12961e-05
-0.000922965
-0.00115272
0.000626222
0.000538706
0.000310424
-0.000347125
3.71114e-05
-0.00247185
-0.0014092
0.000235501
-0.000228804
-0.00013428
2.25238e-05
-0.00073235
0.000528336
0.000205787
-8.35008e-06
0.000109709
-0.000101982
-0.00223379
0.00240515
-0.000249699
-0.000302824
-0.00379441
0.003796
-6.1223e-06
-0.00163189
-0.00144938
-0.00153308
0.000890289
0.000640698
-0.00112491
-0.000410139
-8.77663e-05
7.95959e-05
-0.000399181
0.0014946
-0.000585014
-0.00230827
0.00285679
0.000719097
-0.000735243
1.64751e-05
0.000215495
-0.000535434
0.000319567
0.00035284
-0.000292898
-5.98981e-05
0.00392712
-0.00288823
-0.00106033
3.2006e-05
7.71413e-05
0.000667729
-0.000817238
0.000157893
-0.000881245
-0.00188037
0.00273672
-1.83158e-05
0.000530883
0.0014474
-0.000691863
-0.0008038
0.000111648
0.00055178
-0.000206286
0.00329932
-0.00314621
0.00202667
-0.00264687
0.000512632
0.000245775
-0.000758776
0.00156319
-0.000986071
7.835e-05
0.000150225
-0.000228521
0.000117177
-8.55172e-05
-0.000544416
-0.000159801
0.000704128
-0.00227566
0.0018167
-2.08597e-05
0.000404012
-0.000382849
-0.00354654
0.00367756
-0.000149438
0.000431741
-0.000513673
-0.000477103
-0.00373609
-0.000963705
0.00112959
2.70217e-05
0.00024027
1.47511e-05
-0.000559243
0.000405294
-0.000201207
-0.00020364
-0.000842083
0.00143639
-0.000598251
0.00462916
-0.00225101
-0.00242779
0.000323576
0.000582646
-0.00090301
-4.46352e-05
0.000157972
-0.000113135
0.00129496
-0.000453416
-0.000844838
-0.000429495
0.000755641
0.000959294
-0.00215424
0.00119663
0.00212038
-0.000505186
-0.00161343
-0.00381041
0.00401814
-0.000224812
0.000423962
-0.0024119
0.00194138
0.000639976
-0.000383136
-0.000258547
0.00268112
-0.00231255
-0.000284035
0.000499284
-0.00106476
0.000120579
-6.20881e-05
0.0015049
0.00260574
-0.000658268
-0.00196368
0.0028689
-0.00297405
0.000276064
0.000231937
-0.00050848
-0.000778036
0.000765908
7.79658e-06
-0.00044443
5.21295e-05
0.000396442
-0.000483894
-0.000657787
0.00223965
-0.00123158
-0.00106572
0.000202985
-0.000405227
-0.000562766
-0.000198845
6.29762e-06
0.000712876
0.00155197
-0.000514806
-0.00104207
-0.00168767
-0.000383534
0.00202379
0.00152276
0.00106994
-0.00262157
0.000169055
-0.000108315
-5.97122e-05
0.000279514
-0.000222664
-5.66519e-05
-0.00138962
-3.35869e-05
0.00142624
0.00167995
0.00289095
-0.00143412
0.00128762
0.000136971
4.71353e-05
0.000111514
-0.000158432
0.000127916
0.000154869
-0.000284965
0.000522383
-0.0025774
-0.00184548
0.00024316
0.00158136
0.000292064
0.000592349
7.29686e-06
0.000206533
-0.00111172
0.000638435
0.000294535
-7.2381e-06
-0.00028668
0.00141455
0.000345585
-0.000505462
0.00246379
-0.000817388
-0.00164586
-0.000142455
-0.000227222
0.000371485
-0.000362125
0.000876766
-0.00037828
-0.00279782
0.00316356
-0.00411594
0.000554391
-5.9156e-05
-0.00119432
0.0012555
0.000451998
-0.000386202
-6.6033e-05
0.00315121
-0.00134225
-0.00183175
0.000551671
0.000846779
-0.000549329
-1.68609e-05
-0.000322649
0.000339385
-0.00141769
-2.27822e-05
-0.000737358
0.000309765
-0.000368237
0.000645359
-0.000758604
-2.20492e-05
8.34104e-05
-0.000308064
0.00022494
-0.00305547
0.00406851
-0.00102055
0.00434328
-0.00356792
-0.000779795
0.0027201
-0.0026401
-0.000131945
-0.000147709
-0.000268418
-0.000337922
0.000301627
3.81373e-05
-0.000565091
0.000610372
-3.88598e-05
-0.000316522
0.00025904
3.03083e-05
0.00054702
6.01611e-05
-0.000605943
0.000299707
0.000331248
-0.000769271
0.000342367
-0.000151215
0.000191008
-0.000402214
0.000348142
5.50248e-05
1.92579e-05
-0.000420299
-0.000204924
0.000235291
0.00202641
0.000562355
0.00022532
-7.17613e-05
-0.000153604
-4.49775e-06
-0.00228086
0.00224538
0.000730653
0.00143363
0.000109276
-0.000541835
0.00043049
0.00016607
-0.000342963
9.48507e-05
0.00015599
0.000248112
0.00011826
-0.000371248
0.000253656
-0.000357189
-0.000246259
0.000604819
0.00200599
-0.0013435
0.000838967
8.9018e-05
-0.000915862
0.00035261
-0.000709083
0.000180623
9.59968e-05
0.000771298
-0.00239566
0.000510696
0.00186836
0.000368327
-0.000242428
0.000299704
0.000187573
-0.000288587
0.000271503
-3.91467e-05
0.000304895
0.00282966
-0.0025807
-0.000250145
0.00278383
-0.00416213
0.00136946
0.00273757
-0.0026195
-0.000175824
0.000121527
0.000331771
-9.34967e-05
-0.000241689
-5.93511e-05
0.000195255
0.00124572
-0.000844287
0.000893061
0.00223499
0.000178291
0.000765369
-0.000938919
0.000208774
-0.000247088
0.000768235
-0.000436345
-0.000341694
-0.00193796
-0.000150542
0.00206323
-0.00199853
0.000820067
0.00118163
-0.000337769
-0.000507358
0.000845823
-0.000152557
-5.61986e-05
0.000209282
0.000126647
-0.00013901
1.32518e-05
-0.000169944
0.00040902
0.000806286
-0.000865102
5.72308e-05
-0.000220013
6.7712e-05
0.00204569
0.00117589
-0.00322158
0.000666146
-0.000182994
-0.000479374
0.000244169
-0.000323488
7.97477e-05
0.00156623
-0.0015389
-4.34184e-05
-0.00101151
0.000168939
0.000846456
-0.00113016
0.0026279
-0.000698447
-0.000137894
0.00118629
-0.00105257
0.000930586
0.000279928
-0.00121613
0.000280279
0.00209137
-0.002392
-0.00388309
0.00347745
-0.000106287
0.000203579
-9.63132e-05
-0.00167595
0.00114941
0.000499016
0.000156566
0.00061035
0.00138254
0.000554777
0.000288095
-0.000161121
-0.000125152
-0.000127915
0.000205868
-6.10555e-05
-0.000242139
0.000304307
-0.00268068
0.000657013
0.00202224
0.000232582
0.000437821
3.52439e-05
0.00048261
-0.000522223
0.00127213
-0.00132981
-0.00348239
4.52918e-05
0.00338955
0.00152203
0.000990467
-0.000635081
-0.000355084
0.00220594
0.000621449
0.00146711
7.97482e-05
7.74462e-05
0.00334602
-6.47892e-06
0.000133709
-0.00172709
0.00180978
0.000693227
0.000290081
0.000113021
-0.000143831
3.12852e-05
0.000387876
0.000902821
-0.000291015
-3.694e-05
0.000921559
0.000212978
-0.00113648
-2.18831e-05
0.000126569
-0.000104553
-0.000576948
0.00031201
-0.000975686
-2.21366e-05
-0.000474674
0.000500158
0.00120203
-5.21011e-05
-0.00114807
9.76394e-05
-0.000202444
0.000981002
-0.000131409
0.000611815
0.000821039
-0.000870327
-0.00147581
0.00232981
-0.000418018
6.15746e-05
0.000356483
-0.000356212
0.000193304
0.000159979
0.00035264
-7.26786e-05
-0.000419489
-0.000396721
0.00066922
-0.000276725
0.000764014
3.95595e-05
0.000507667
0.000461539
-0.000654394
0.000192795
0.000656102
0.00203443
0.000143576
-0.00345624
0.00364228
-0.000200407
0.00031763
-4.6752e-05
-0.000269273
8.09016e-05
-0.000241582
0.000162416
-0.000489035
8.97864e-05
0.000540145
-0.000248344
-0.000245045
-0.000111102
-0.00457121
0.00151179
0.00302849
0.00190902
-0.000946691
-0.000312785
0.000683972
-0.000369312
0.000186744
-0.000148532
-3.56966e-05
-0.000706644
0.00366724
-0.00298924
-0.000322396
-0.0035647
-0.000476418
0.000159596
0.00015992
-0.000320133
0.000519711
-0.000756387
0.000237142
0.000270937
-7.5023e-06
-0.000263156
-3.43041e-05
-0.00169111
0.000243134
-6.49421e-05
-0.000274994
9.00164e-05
0.000185263
8.11713e-05
0.000356172
-0.000435787
0.000253386
0.000281908
-0.000118867
0.00027866
-7.34285e-05
0.00012636
-5.25872e-05
0.000953677
-0.000406997
-0.000554774
-0.00034871
3.51735e-05
0.000316522
0.000305531
0.000465564
-0.000770913
0.00365991
-0.00210894
-0.00160683
-0.00235158
0.00248426
-0.000183188
-0.000235212
0.000318471
-0.00149786
0.001033
0.000457859
-0.000391503
-0.00139475
0.00174028
0.000951205
-0.00111615
0.000145286
-0.000740949
-0.00278429
-0.0002528
-0.000121192
0.000246386
0.000211022
-0.000459975
0.000247742
0.000313962
6.35568e-05
-0.000292833
-0.000242517
0.000256978
0.00372319
-0.0012479
-0.00251146
0.000530049
0.000110832
5.87949e-05
-0.00400736
0.00301287
0.000986068
0.00011582
1.76454e-05
-0.000157053
0.000140075
-0.00302577
0.00263658
-0.00348785
-0.000524143
-0.00040886
0.000165133
0.000232927
-5.81909e-05
-0.000173822
0.000598405
-0.000538445
-6.04806e-05
0.00037671
-0.000337037
-3.97299e-05
0.00019826
-0.00043777
8.6588e-05
0.000139159
-0.00227509
0.000432212
-0.000132101
-0.000301448
-0.000151276
0.000170054
0.000197569
-0.000148902
-4.51991e-05
-0.000510113
-4.8689e-05
-0.000408216
0.000713344
-0.00100466
0.000708641
0.000296013
-0.00074024
0.000174376
0.000564826
-0.000143127
0.000613028
-0.000470541
0.0022485
-0.0010364
-0.00120941
-1.66726e-05
0.000311534
0.000157387
-0.000126967
-3.02192e-05
1.73027e-05
-0.000164515
-0.00018516
-0.00178167
-0.000560204
5.59823e-05
0.000504452
-0.000312047
-0.000112433
0.00095818
-0.00105944
0.00010352
-0.000120561
0.0010817
-0.00020048
0.00224656
0.000123275
0.000359268
-0.000483625
-0.0028351
0.000794035
0.00203347
-0.000340639
0.000320078
0.00231473
-0.00117006
-0.00114206
0.000700607
-0.000829699
8.58107e-06
0.000189108
-0.000197965
0.00213431
-0.000176389
-0.00197719
-0.00048849
-0.000252628
0.000852965
0.00105437
0.0025431
-0.0002619
-0.0027306
0.00221796
0.000505721
-0.000676621
-0.00118249
0.000296116
0.000320239
9.15121e-05
0.000141789
0.000159166
8.29049e-05
0.000821711
0.00302577
-0.00277221
0.00155903
-0.000111563
-0.000479801
-0.000120738
0.00060137
-0.001002
0.00377749
-0.000191338
0.000596806
0.00034546
-0.000129042
-0.000281092
-0.00043473
-0.00230157
0.000205863
0.000554484
0.00312896
0.00107455
-0.000315956
-0.000760515
-0.00113919
0.000683523
-0.000301253
0.00019598
0.000103086
-0.000712492
0.000230845
-0.000710049
0.000893013
-0.00225073
-2.54112e-05
-0.000235986
-6.12682e-06
0.000242909
-0.00121768
0.00052562
0.000666002
0.000162622
3.61098e-05
-0.000268986
0.000231385
3.92701e-05
-0.000170945
0.000126512
0.00168628
0.00042661
-0.000491088
0.00107645
-0.000452453
-0.000278745
0.000175522
0.000481341
-0.000657267
-0.000555702
-0.000440413
0.000996761
0.000318417
0.00014617
-0.000464364
0.00154193
0.00025374
-0.00181885
0.000285654
-0.000167358
0.000650726
-0.000431296
-0.000761806
-1.60563e-05
0.000770778
-0.000127654
-0.000289982
0.000749046
-0.000871319
0.000114887
-0.000129482
-3.09312e-05
0.00016085
4.4036e-06
-0.000352972
-0.00124254
0.000419509
3.78204e-05
-0.000257242
0.000222581
0.00123126
-0.000514742
-0.000718433
0.0014224
0.00291533
0.000386845
-0.0011096
0.000713139
-0.000680051
-0.000823954
0.000765347
0.00222029
-0.00287924
0.000621251
-1.0504e-05
0.000283431
-0.000254197
0.000134289
0.00012023
0.00180065
0.00211024
0.00033472
-0.000513875
-0.000532992
-0.000272702
0.000806261
-0.00141267
-0.000228545
0.00161921
-0.00124565
0.000945511
0.00029752
-0.00096582
0.000166369
0.000807037
0.000598186
-2.34221e-07
-0.00081704
-0.000738755
-0.000393379
-0.000710216
-0.000469537
0.00127322
-0.00014163
-3.1628e-05
-0.000445739
0.000479602
-9.81365e-05
0.000559685
9.50081e-05
-0.000231335
0.00115136
-0.00220003
-0.00239814
0.00019118
0.000876962
0.00118717
-0.000463353
-0.000731244
0.000634018
-0.00111987
0.00031696
0.00161453
-0.00197191
0.000405552
0.000123349
-0.000104001
0.000159278
-5.53131e-05
0.000387069
0.000196783
-0.000584042
0.00131925
0.000220923
-0.000207175
0.00048177
2.3683e-06
-0.000482173
-0.000241457
0.000761596
0.000415207
-2.1161e-05
-0.000399568
-5.32272e-05
-0.000507094
-0.000900257
-0.000137802
0.0010362
0.000487497
-0.000983365
0.000495783
0.00100747
-0.00189052
0.000220934
-0.000323404
0.000102824
0.00392867
-0.00292001
-0.00102176
-6.05098e-05
0.00014695
0.000282887
2.7946e-05
0.000354098
-0.000400764
4.75893e-05
0.00375906
-0.00279036
-0.000121806
-0.000746529
-0.000156618
0.000494243
0.00209262
-0.000257329
-0.00191083
-0.000156398
5.26871e-05
-0.000274963
0.000397932
-0.000220214
-4.77886e-05
-0.000483506
0.000321145
0.000167346
0.0018826
-0.000370279
-0.00260969
-0.00124548
0.00385727
-0.000540517
0.000715302
-0.00419377
0.00290326
-0.00388654
0.00127967
0.000744827
-0.000390939
-0.000353012
-0.00011109
-0.000142854
-0.00194985
0.0024508
0.000678027
-0.000413738
-0.00026293
-0.00340951
-0.000379899
0.000191114
0.00223679
8.89806e-05
-0.00152302
-0.000110357
-0.000589304
-0.000417396
0.00101324
0.001783
-0.00295513
0.00113821
-0.000655205
0.00172011
-0.00108801
0.000827148
0.000720888
0.000677542
0.000256011
-0.000943829
0.000172006
0.000346243
-0.000517367
0.00303926
-0.00219373
-0.00090528
0.00033593
-0.000763183
0.000433901
0.000301825
-0.00052972
0.00246853
-0.0015865
-0.000886599
0.000149366
-0.000153461
-1.44674e-05
5.52361e-05
0.00227216
-0.00236491
-0.000307551
-0.000164273
0.000339008
0.000279792
-0.000621977
0.00131077
-0.000493024
-0.000819821
-0.000488383
-0.000120657
0.000609818
0.000378407
-0.000401395
0.000102363
-0.000681236
0.000581371
0.00138775
-0.00300914
-7.00891e-05
0.0030398
3.61673e-05
0.000151325
-0.000187242
0.000227067
-0.00100116
-0.00122436
0.00222532
0.00109352
0.00212571
-0.00324129
4.97834e-05
0.000560485
0.00190368
6.47663e-05
0.000764205
-0.000830528
-0.000915819
-0.00290767
-0.00148776
0.00157896
-0.000106059
-0.000873583
-0.000519293
-0.000119102
0.000644674
-0.000163374
3.66371e-05
0.000124536
0.000358201
-0.000304889
0.000693343
-0.00146609
0.0025603
-0.00110377
-0.000510965
-0.00416532
0.00349195
0.000639146
0.000479387
9.66562e-05
-0.00105196
-0.000117713
0.000327192
0.00020926
0.000965552
0.00211889
0.00101769
0.00144468
0.00046687
0.000104894
-0.000359485
0.000425334
0.000233289
-0.000658464
0.000165213
-0.00012886
0.000660474
-0.000487691
0.000660643
-0.000738492
7.69535e-05
0.0002572
0.000331851
8.93258e-05
-0.00042059
-0.00015062
-0.000795168
0.00275702
-0.00196468
0.000160648
-0.00184529
0.0016768
-0.00073009
-0.000516537
-0.00377737
-0.000622109
-0.000902478
0.00308064
-0.00253456
0.000630784
0.00190155
-0.000371231
0.000123227
0.000247303
0.000574783
-0.000931934
0.000349696
0.00231902
0.000958521
-0.00328727
-0.000374516
0.00134037
-0.000972044
0.000172136
-0.000688843
0.000515107
0.000247562
0.00314055
-0.00338713
-0.000494861
0.000399706
9.53733e-05
-0.000672201
-0.00231063
0.0029408
0.000172024
-4.10559e-05
-0.000130885
8.24418e-05
0.00122576
-0.00287589
0.00262522
-0.000501205
0.000493977
3.86604e-06
-0.000200004
-0.000687806
0.000886258
4.09927e-05
-0.00217246
0.000737846
-0.00010751
-0.000630077
-0.00103052
0.000299875
-2.65533e-05
0.000386884
-0.000362833
-0.000113706
-0.000367726
0.000482618
0.000220202
9.85854e-05
0.000226803
-0.00016393
-6.25672e-05
-0.0027224
0.00124499
-0.000670997
0.000280843
0.000105015
-6.29207e-06
-9.84855e-05
-0.000377807
0.000353371
0.000500213
-0.000512797
1.20494e-05
-3.15102e-05
-0.0029298
0.00292238
-0.00296659
0.000481049
0.000320334
-0.000800877
-7.20389e-06
-0.000121952
0.00010985
-0.000891251
0.000775871
0.000499518
-0.00108113
0.00378501
-0.000415451
-0.00337318
-0.000484521
-0.000275398
0.000762211
0.00016567
-0.000118291
-0.000368913
3.21054e-05
0.000337145
-0.000614398
0.000496842
0.000110191
0.000283306
0.000167243
-0.000449795
-0.00113835
-0.00236992
-0.000416584
0.000967062
4.86829e-06
-0.000962573
0.000328902
8.14958e-05
-0.00288047
0.000980752
-0.00030363
-0.000195463
0.000500265
0.000716654
0.000512721
-0.000416235
0.000952422
-0.000390262
0.00345434
0.000171429
0.000143816
0.00019908
-0.000342883
-0.00234402
0.00199317
0.000330724
-0.000946645
0.000893971
4.79744e-05
1.67233e-05
0.000430867
-0.000440379
0.000593988
0.000147733
-0.000734096
4.23757e-05
0.000565351
-0.000610509
0.000218898
0.000320923
-0.000539328
-0.000132463
5.95486e-05
-0.000820779
-0.000331806
0.00114042
0.000100523
0.000550507
0.000502614
-1.97949e-05
-0.000476412
-0.000623265
0.000593166
2.60999e-05
0.000217658
-0.000576096
-0.000108048
-0.000238744
0.0024634
0.00046332
-0.00295947
-0.00267952
0.00177474
0.000346849
0.000189921
-0.000384847
0.00083716
-0.000468561
-0.000366952
-0.000891162
0.000410577
0.000875916
-0.000812813
0.00021148
0.000765292
-0.000337371
0.000344427
0.000495436
0.000494851
-0.000117338
0.000493411
-0.000375742
0.00115762
0.000487916
-0.00165204
4.4781e-05
0.000127347
-0.000538275
0.000163775
0.000375442
0.00061188
-0.000267583
-0.000343848
-4.13246e-05
-0.00185716
0.00187048
-4.17836e-05
0.000572518
0.00027761
-5.61721e-05
0.000137036
0.00271658
-0.00289038
-0.000246075
0.000273225
-8.03475e-06
0.000283298
-0.000274679
-0.000386913
0.00022528
0.000441177
0.00279925
-0.00326874
-0.000762186
0.00086505
0.000762583
0.000600552
-0.00136695
0.000593254
0.00034359
-0.000937321
-0.00216902
-0.00205822
-0.000170913
0.000251163
-0.000145599
0.00229398
0.000636479
-0.00293178
-0.000620875
0.000789983
0.000297846
0.00268007
-0.00021628
0.000163377
-0.000398016
-0.000152661
-0.000384746
0.00223484
0.000673731
-0.00291805
0.00103216
-0.000393874
0.00153832
0.00246095
-0.0024868
0.00273516
-0.00188897
0.00199712
-0.000121022
0.00048475
-0.000200722
1.34449e-05
-0.000537319
0.000524314
-0.00024855
-0.00126133
-0.00221661
0.000375136
0.00177744
0.000300476
-0.0010145
0.000691629
-0.000470227
-7.43942e-05
0.00086413
-0.00153852
0.000454715
0.000214789
-0.000670279
-0.00042902
0.000892137
-0.00047247
0.00102757
-0.00202894
0.000664752
-0.000703557
0.00241239
-0.000244002
-0.00217539
0.000306409
0.000313689
-0.000619743
-0.000723699
0.000755214
4.35006e-05
0.00105635
-0.00109216
-0.000490991
0.000591763
0.000238359
-0.000470475
0.000231983
0.0024447
0.00105696
-0.000464784
0.0010667
-0.00144819
-0.000544285
-0.00074888
0.00129072
0.000216938
-0.00022398
0.000660876
-0.000581528
-9.07123e-05
-0.000242828
-0.000251887
-0.000624882
-0.000762794
-3.46973e-06
0.000944869
-0.000284347
-0.000470141
0.000432777
3.69407e-05
-0.000719815
-0.000518078
-0.000278279
0.000731452
0.000356149
0.000402487
0.000272059
0.000340128
0.000216786
-0.000270083
5.34081e-05
0.00337922
-0.00128482
-0.00212514
-0.000501298
-8.36315e-05
-4.88879e-05
0.000132708
0.000199574
0.00061937
-0.000822132
-0.000815245
0.00101174
0.000108985
0.000765925
-0.000253472
0.000560068
0.00027585
0.000379337
-0.00065435
-0.00103919
-0.00245105
4.36069e-05
-0.000297725
0.000256193
0.000932747
-0.000266074
0.00261558
0.0010811
-0.00369901
-0.000547799
-7.87866e-05
0.000627912
-0.000210754
0.000645689
0.000534763
-0.00118407
1.51778e-05
0.000334686
-0.000359644
-0.00058203
0.000270633
-0.000986995
0.00204963
-0.00106621
0.00112501
-0.000664119
-0.000453497
-0.00184357
0.00313191
-0.00128978
-0.00206023
0.00293086
-0.000814597
0.00157096
0.000350093
0.00194235
-0.000494868
-0.000271194
9.84549e-05
0.000254952
-0.000331539
3.85177e-05
-0.000547315
0.00169867
-0.000405372
0.00116725
0.000181622
-0.000285493
-0.00023185
-7.34442e-05
0.000305437
0.000781593
-4.34669e-05
-9.84491e-05
-0.000637248
-5.7849e-05
0.000235056
-0.000176873
0.00233155
-0.00201077
-0.000331774
0.000697219
-0.00021532
6.64988e-05
-0.00165386
0.00168785
-6.43998e-05
3.9498e-05
-0.000375344
-0.000162662
0.000344396
0.0022852
-0.000648139
-0.00165778
0.00350525
-0.000260382
-0.000446323
-0.00285215
0.00324584
0.000868288
0.000229995
-0.0010925
0.000436988
-0.000118269
-0.000393637
0.000735136
-0.000108231
-3.5181e-05
-0.00199047
-0.00029621
0.000608501
-0.00033176
0.00117615
0.000188895
-0.00136962
6.50717e-06
-0.000156658
-0.000893144
0.000613325
-0.00143107
0.000600044
-0.000529347
0.00100502
0.000193098
-0.00018585
0.00111934
-0.000476223
0.000555421
0.0017635
0.000357624
0.000329296
0.00152119
0.000120097
0.000958253
-0.00108094
0.000918136
0.000290645
-0.000442404
-0.000250655
0.00115406
-0.000912147
0.00072328
0.000104113
-0.000828702
0.00207339
0.00184487
-0.000864179
0.00351905
-0.00234391
-0.00179593
0.00441019
0.000318283
-0.000535335
0.000217459
0.000102377
-0.000455085
0.000258027
-0.00080556
0.00030321
-0.000322022
-0.00057282
-0.000335551
2.58211e-05
0.000310125
0.000139193
1.89461e-05
-0.000120728
0.000412092
-0.00103971
0.00049356
0.0012102
0.00123504
0.00259969
-0.00361918
0.00329283
0.00144209
-0.000384528
-0.00110125
0.00102446
-0.000750945
-0.000244971
0.000538346
-1.26105e-05
-0.000528465
0.000562282
-0.00059574
3.30899e-05
0.000962402
-0.00195221
3.7766e-05
0.000140555
0.00151025
-0.00264219
0.00111164
0.000308195
-0.000313307
0.000327704
0.000255285
0.000592686
-0.00145559
0.000369706
0.00107699
-0.000455312
0.000143679
0.00328679
-0.00319508
-8.87259e-05
0.000272658
0.000156583
-0.000430045
-0.00125006
-0.000244896
-0.000446811
0.000455335
-8.13818e-06
-7.49777e-05
0.000293215
7.32185e-05
0.000143266
-0.000224341
8.11711e-05
-9.29152e-06
-0.000433461
0.00044961
0.000138831
-0.000187374
0.00299294
-0.00104195
-0.00196381
-0.000560152
-0.000381808
0.000587241
-0.00253658
0.00261456
-7.47844e-05
-0.00369742
0.000886495
0.000822479
-0.00102647
0.000189149
-0.000848276
0.000680892
0.000174403
0.0002048
0.000239018
-0.000443492
-0.00160465
0.00033182
0.00125983
-0.000673782
-0.000399815
0.00106926
-7.77852e-05
-0.000824273
-7.75249e-05
-0.000291337
-0.00151968
-0.00106048
0.00280633
-0.00115987
-0.00165834
0.000386221
-0.000624706
0.000239422
0.000349833
0.00104795
-0.000311504
-0.000700803
0.000607256
5.12172e-05
-0.000566658
0.000813768
-0.000544715
0.000498015
4.62804e-05
0.000455927
0.000166593
-0.00061934
-0.000450125
9.53101e-06
0.000900661
-0.00104547
0.000140171
-0.000430302
-0.000756238
-0.00119689
0.00195392
-0.000276784
0.000291566
-0.000114193
-0.000509537
0.00174713
-0.00181594
-0.00131741
0.000565337
-0.000111859
-0.000713264
0.000836887
0.00114428
-0.000944175
-0.000203537
0.00145788
0.000414891
-0.00193941
-0.000337404
-0.000878133
0.00121244
0.00106301
5.40692e-05
0.00054552
-0.000598433
0.000981375
-8.56205e-05
-0.000791459
0.000685206
0.0001064
-0.00220702
0.00139032
6.5815e-05
-0.000424372
-0.000611842
0.00103538
-0.0010325
0.00233399
-0.00136376
-0.000458838
0.000837174
-0.000405448
0.000173397
0.000605264
-0.000724957
-0.000359997
-0.000347733
-0.00027657
-0.00351052
0.000908744
0.00255895
0.000963176
0.00238613
8.39754e-05
-0.00142477
0.00133586
-0.000834887
-0.00207383
0.00288784
-0.00261424
0.00214371
0.000423086
-0.000939402
0.000319372
4.89238e-05
0.000270504
0.000354039
-7.17308e-05
-0.000281796
0.000896016
-0.00013272
0.000591269
0.00195129
0.00176304
-0.00371803
-0.00193619
0.00010964
0.00072205
0.000341747
-0.00106465
-0.000120658
-9.86832e-05
0.000375337
-0.00106109
0.00126694
-0.000202052
-0.000292164
0.000347396
-0.000105532
0.000651183
-0.000546807
-0.000138791
0.000771337
-0.00383275
-0.000160196
0.00147904
-0.00136239
-0.000181636
0.000386371
0.00137808
-0.00322333
0.000673189
-0.000735057
5.65545e-05
0.00204934
-4.26721e-05
-0.000330797
8.71375e-05
0.000243489
-1.39728e-05
0.000244961
-3.51041e-05
0.000585921
0.00324642
-0.00382644
0.000569781
0.00127621
-0.000892327
0.000247861
-0.000402819
0.000155037
0.000619458
0.00101848
-0.00164219
-0.000928494
0.000367294
-0.00327585
-0.000722857
0.00117823
-0.000466278
-0.000213209
-0.00141382
0.00154018
-0.000780142
0.000398591
0.000382743
-0.00361323
0.00117584
0.00243147
-0.000342348
-0.000311733
-0.00188329
0.00138342
0.000472632
-0.000186433
0.000248431
-6.19375e-05
-0.000227267
4.40489e-05
0.000183402
-0.00118086
0.000173869
0.000997311
0.00126277
-0.000310882
-0.00103625
0.00100238
-0.000483808
-0.000518643
0.000260328
-0.000612998
0.000353123
0.000246542
-0.001076
0.000748547
-0.000578802
-0.00369049
6.52645e-05
-0.000456756
0.000484314
-2.70737e-05
0.000140817
-0.00182828
0.000113665
-0.000276377
-0.000347315
0.00327164
-0.00295901
0.001021
-0.00129979
4.92627e-05
-0.000495206
-0.00043085
0.00243259
-0.00241373
-0.000190169
0.000824493
-4.6263e-05
-7.96496e-05
0.000126199
-0.00112252
0.000707468
0.000414395
-0.000134628
5.08952e-05
0.00278745
-0.00218153
-0.000233516
0.000176093
-0.00334922
0.00261769
-0.00032365
0.00169815
0.00143277
0.00262582
-4.47217e-05
0.000257573
0.00132715
1.30529e-05
-0.00134571
0.000110474
3.08789e-05
-0.00014091
0.000286952
-0.000332898
4.64869e-05
-0.000722106
-0.000984774
-0.00046629
3.90138e-06
0.000779415
-0.000674885
0.00258678
0.000251895
0.000493868
0.000508239
-0.000864213
5.9274e-05
-0.000316232
0.000299987
0.000264085
-0.000996854
0.000192393
0.00287346
-0.00277121
9.47971e-05
-0.00039257
0.00169399
-0.00052323
0.000179629
0.000476114
-0.00061233
-0.00011335
-0.00105351
-0.000113429
0.00116514
0.000284238
-6.72176e-05
0.000238463
-9.42033e-05
-0.000185622
0.000158241
0.000271659
-0.000427332
0.000629957
0.00315446
-9.62731e-05
0.000923836
-0.000834814
0.00022547
0.000526804
0.000126241
0.000283939
-0.000409929
0.000415977
-0.000204051
-0.000195372
0.000537778
-0.000341578
-0.000213687
9.34595e-05
0.00114992
-0.000218086
-0.000510293
0.000890149
-0.000380112
-0.000750016
0.000239526
0.000421758
-0.00019268
-0.000228951
-0.000347375
0.000376272
0.000409495
-0.000784641
0.00283588
-0.00028603
0.000108964
0.00109415
-0.000230699
0.000264615
-3.32313e-05
0.000586468
0.00167801
0.000128256
0.000448279
-0.000119816
0.000129549
-9.45777e-06
0.00144363
0.00118102
-0.00264522
0.000238194
0.000936383
0.00328215
-0.000852108
-0.00164893
0.00306596
-0.00020818
-8.76141e-05
0.00293692
-0.000588333
-0.00240081
-0.000858117
0.000755279
7.14391e-05
-0.000199734
-0.00274085
0.00196106
0.000753304
0.000587047
-0.000399487
-0.00305851
0.000607368
0.00244456
0.000432043
-2.55532e-05
-0.000403653
0.000164066
7.47176e-08
-0.000163806
-0.00240086
0.000493698
0.000345641
-0.000692294
-0.00100839
0.0016858
-0.000159788
-0.00103115
-0.000860916
-0.00026245
0.00266983
-0.000871176
0.000841008
2.85048e-05
0.000740644
8.18073e-05
-0.000128174
-0.000279161
0.000492083
-0.000210155
0.000505961
-0.00031941
-0.000186255
0.00082661
-0.000850263
0.000152702
-0.00012788
-2.47489e-05
0.000265238
7.4643e-05
-0.000339767
0.000331807
0.00017432
0.000382347
-2.06422e-05
-0.00035993
-0.0038008
0.00278364
0.000999551
-0.00234642
-0.00120389
-0.000703066
-7.76757e-05
0.000780204
-0.00084898
-0.0008065
0.00365742
-0.00285919
-5.1197e-05
-0.00190808
0.00240149
-0.00278031
0.000807162
0.00196889
-0.0022669
0.000747437
0.00239082
0.000430853
0.000320072
0.00241195
-0.00120501
0.000437056
0.000783916
-0.00135071
-0.00106787
0.00239782
-5.30384e-05
-0.000450728
-0.00230846
1.30752e-05
0.000271558
-0.000193782
-7.76161e-05
-0.000812263
0.000344964
0.000468877
-0.000556909
0.000667621
-0.000116256
-0.00133495
0.00159471
-0.000269439
-0.000121051
1.6806e-06
-0.00139033
0.000663401
-0.000489903
-0.000922527
0.00122456
-0.000591264
0.00225572
-0.00167835
-0.00281707
-0.000801043
0.00245505
-0.000155504
-0.00233728
-0.00127577
-0.000734971
0.00200193
-0.00317449
0.000127277
0.00265501
0.000224277
0.00131976
0.00093018
-0.00340196
-0.000169053
7.95548e-05
0.00105986
-0.00079459
0.00163671
-3.17371e-05
0.000271712
-0.000239774
-0.000181647
0.000152624
2.99884e-05
7.19423e-06
-0.000161489
0.000154614
0.000453141
4.72321e-05
-0.00106249
-0.000305537
0.00134673
-0.00030304
-0.000208527
0.000179747
2.92197e-05
5.39091e-05
-0.00201591
0.00337449
-0.00242619
0.000603441
5.98994e-05
0.00181124
0.0011669
-0.00298316
0.00140534
6.2227e-05
0.000101548
0.00031137
-0.000844243
-0.000615522
-0.000955929
0.0015664
-0.00184384
0.00204928
-0.000237271
-0.00035764
-0.000105596
0.00016773
0.000697144
-0.00180207
0.00109447
0.00209015
-0.00177772
-0.000457952
0.000492284
-3.65052e-05
0.000334902
4.18448e-05
0.00241349
0.000888251
-0.00331587
-3.6518e-06
0.000108991
-0.000761263
-0.00181727
0.00197104
-0.00027657
4.12995e-05
-0.00091847
0.00103738
-0.00012083
-0.000131246
0.000936317
0.000209994
6.18843e-05
0.000487106
-0.00052188
0.00040043
-0.000348433
-0.00111624
-0.000788218
0.00056241
-0.000241037
6.66875e-05
-0.00301434
0.000873969
0.00207802
0.000272095
8.21451e-05
0.00103123
0.00176374
0.000130521
-0.00106714
0.000918962
-0.000225549
0.00319594
-0.00301556
-0.000680484
-0.000127442
-0.000764578
-0.000424673
0.00119991
-0.000114973
-0.000208283
0.000767619
-0.000335764
0.000881229
-0.000320611
-0.000554159
0.000286485