/*--------------------------------*- C++ -*----------------------------------*\
| =========                 |                                                 |
| \\      /  F ield         | OpenFOAM: The Open Source CFD Toolbox           |
|  \\    /   O peration     | Version:  v2012                                 |
|   \\  /    A nd           | Website:  www.openfoam.com                      |
|    \\/     M anipulation  |                                                 |
\*---------------------------------------------------------------------------*/
FoamFile
{
    version     2.0;
    format      ascii;
    class       volVectorField;
    location    "350";
    object      U_0;
}
// * * * * * * * * * * * * * * * * * * * * * * * * * * * * * * * * * * * * * //

dimensions      [0 1 -1 0 0 0 0];


internalField   nonuniform List<vector> 
13851
(
(1.06046 0.0975933 -5.86417e-20)
(1.05952 -0.00466961 0)
(1.05783 -0.00429045 -2.01447e-21)
(-0.207806 -0.0435916 0)
(1.00212 -0.000446939 0)
(1.07294 -0.0135527 -4.44915e-20)
(1.0337 0.0178268 -5.42033e-21)
(1.01166 -0.000577147 2.39807e-21)
(0.638568 0.0640644 1.1053e-20)
(0.991555 -0.00786472 2.57388e-21)
(1.18 -0.0475006 0)
(1.00159 -0.00833864 0)
(0.981893 -0.0184638 -1.41993e-20)
(0.386268 0.0330016 7.25986e-21)
(1.06715 0.0388221 1.08461e-20)
(1.02461 0.0632218 -2.81924e-21)
(-0.428136 -0.0330597 0)
(1.03004 -0.0119109 0)
(1.13657 0.15326 -7.36021e-20)
(1.0631 0.0973101 5.27122e-20)
(1.0803 0.0409944 0)
(1.04592 -0.0765371 5.72025e-21)
(0.555274 -0.276223 0)
(1.00008 -0.000239881 -7.01536e-22)
(1.36808 0.123306 2.75567e-20)
(1.03328 0.0562002 0)
(1.01979 0.0807786 -3.64764e-20)
(1.06693 0.171216 8.41081e-21)
(0.734189 0.0564004 1.06335e-20)
(1.01798 -0.00877435 -2.88744e-21)
(-0.104158 -0.0442366 0)
(1.03424 0.0175166 -5.18444e-21)
(1.05343 0.0918399 0)
(0.810515 0.118513 -1.74233e-20)
(1.13805 -0.0420865 2.57786e-20)
(0.757333 0.0563392 0)
(1.00005 -0.000216416 6.46828e-22)
(1.35087 -0.079593 0)
(0.0623058 0.0478022 -1.55293e-19)
(1.00787 -0.0332694 -7.63598e-22)
(0.556165 0.13649 -3.37427e-20)
(0.777643 0.0584988 -1.07396e-20)
(-0.29567 -0.0283058 1.50694e-19)
(1.16146 -0.486724 -2.71361e-20)
(0.811484 0.0629741 -2.48484e-20)
(1.01408 -0.0185414 3.16947e-21)
(1.01626 -1.00762e-05 1.23185e-20)
(1.02826 0.0684836 1.25079e-20)
(1.04596 -0.0421878 -8.43561e-21)
(0.981441 -0.0175888 1.37255e-20)
(-0.285068 0.000325596 0)
(0.974279 -0.0120882 1.56452e-20)
(1.02511 0.0635314 1.02623e-20)
(1.03966 0.0338559 0)
(0.444004 0.0335819 1.39013e-23)
(1.00692 -0.0336117 0)
(1.05369 0.0939682 3.59091e-21)
(0.49579 0.125933 3.90387e-20)
(1.01898 0.0715644 0)
(0.21017 0.0324339 8.05879e-21)
(1.00147 -0.00794179 2.18485e-21)
(1.02096 0.0809158 3.75484e-21)
(0.995612 -0.00362711 0)
(1.04686 -0.0441502 0)
(0.915586 -0.467555 -7.40497e-25)
(0.89731 -0.4902 2.48544e-21)
(0.179228 0.0235375 0)
(0.702004 -0.142501 0)
(1.02055 -0.0321284 0)
(-0.175098 -0.0438714 1.36081e-19)
(-0.200349 -0.0346741 1.14748e-19)
(1.08612 0.0506665 3.20858e-20)
(0.995091 -0.0242738 0)
(0.209779 0.0283191 3.48427e-20)
(1.04606 0.0357975 0)
(1.02541 -0.0634559 6.59232e-21)
(-0.391837 -0.0365505 0)
(1.01792 -0.00405841 0)
(1.35206 0.121492 0)
(1.00534 -0.0159708 0)
(1.02176 -0.0324026 0)
(1.31238 0.0112592 -1.22587e-20)
(1.13501 -0.045115 4.15843e-20)
(0.373527 0.0343664 0)
(0.235662 0.0346836 -3.07504e-20)
(-0.136149 -0.0400685 9.95605e-20)
(1.04943 -0.0769992 -1.53101e-20)
(0.510579 0.0336469 0)
(0.992448 -0.0116448 -3.50813e-22)
(-0.0996357 -0.0434792 -1.20562e-19)
(0.972942 -0.0114285 -1.53838e-20)
(1.03516 0.0180713 2.37801e-20)
(-0.305833 -0.0184972 -6.5716e-21)
(-0.178249 -0.0406107 -1.10965e-19)
(0.0176115 0.057594 0)
(1.14106 -0.444236 5.43792e-20)
(1.00993 -0.0206377 -5.89892e-22)
(1.02609 0.0661109 -2.62648e-21)
(-0.105289 0.0166887 5.04019e-20)
(1.27309 -0.148718 0)
(1.02583 0.0669946 0)
(0.819349 -0.126954 -6.37692e-20)
(0.822229 -0.160584 -6.28232e-20)
(0.991172 -0.026047 0)
(1.01705 -0.017662 -2.53153e-21)
(1.10143 0.04025 0)
(1.01642 -0.0175927 -1.86345e-21)
(-0.17329 -0.0368461 -1.22331e-19)
(1.03571 0.017598 -1.12211e-20)
(1.02924 -0.0116785 4.10054e-21)
(1.04044 -0.117414 -7.7744e-21)
(1.01477 -0.0187242 -3.42787e-21)
(1.20313 0.0865076 2.12216e-20)
(1.15626 0.0171714 -7.84475e-20)
(1.04216 0.0836438 -1.28389e-20)
(1.03992 0.0326384 0)
(1.01289 -0.00624331 -3.96047e-21)
(1.01219 -0.000655418 -2.45152e-21)
(-0.22686 -0.0411419 -8.97421e-20)
(-0.131642 -0.0471702 -1.68731e-19)
(1.16835 -0.357896 0)
(1.02446 -0.0104404 8.75185e-21)
(1.01628 -0.0334876 1.79081e-21)
(0.387663 0.0667019 7.21413e-21)
(1.10023 0.139206 -6.58465e-20)
(0.627813 -0.231569 1.2632e-20)
(1.01035 -0.0202915 0)
(1.15725 -0.116912 3.21652e-20)
(0.595257 0.11134 -1.21711e-20)
(1.07174 0.0504214 -6.03939e-20)
(1.04294 -0.0790611 -1.31155e-20)
(1.09824 -0.0338396 0)
(1.4326 -0.0876084 0)
(0.788467 0.114133 1.80932e-20)
(1.1842 -0.042343 4.08107e-20)
(-0.0157596 0.0550615 3.39609e-20)
(0.714497 -0.133879 -5.88613e-20)
(-0.15642 -0.0387581 -9.42967e-20)
(0.854807 -0.0951509 0)
(1.06634 0.0498555 2.59406e-20)
(1.30939 0.00475402 0)
(0.977938 -0.0416526 -2.04498e-21)
(0.991735 -0.0117237 -3.4241e-21)
(0.766303 -0.331495 6.11954e-20)
(1.29092 0.187832 8.05884e-20)
(1.01212 -0.0639435 -2.57092e-21)
(1.01769 -0.00377298 0)
(-0.166019 -0.0417991 1.12171e-19)
(0.596555 0.049915 -5.6874e-21)
(1.16382 -0.1182 4.19338e-20)
(1.02634 0.0675604 2.85914e-20)
(1.2041 0.081317 -3.62467e-20)
(1.16028 0.0203848 0)
(1.1285 0.139717 0)
(0.973844 -0.0214469 8.574e-21)
(0.984095 -0.0085465 0)
(1.00154 -0.00670374 0)
(-0.00208528 0.0350667 1.4035e-19)
(1.06684 0.0460571 4.32771e-21)
(1.0414 0.0120551 0)
(1.00016 -0.000549039 1.27367e-23)
(0.742548 0.0555461 1.96773e-20)
(1.0983 0.0396738 0)
(1.02892 0.0690557 1.01317e-20)
(0.391671 0.0331975 6.84492e-21)
(0.744319 0.071149 -1.66414e-20)
(0.760396 0.072072 2.53608e-20)
(-0.264277 0.005426 -7.28452e-20)
(1.04034 -0.112341 0)
(1.0994 0.214653 -5.37832e-20)
(1.00116 -0.00744201 5.49379e-22)
(1.01281 -0.00591996 3.21067e-21)
(1.11793 0.0465235 -5.04125e-20)
(1.00114 -0.000431108 0)
(0.0711325 0.0732129 -1.54355e-20)
(1.02553 0.0980378 3.28826e-20)
(1.02801 0.0734808 -6.406e-21)
(1.01325 -0.00582759 0)
(1.04386 0.0358743 1.81881e-21)
(1.02835 0.0724176 0)
(1.09765 0.135805 5.27736e-20)
(1.16744 -0.46612 -4.41688e-20)
(1.04476 -0.104261 8.17366e-21)
(1.07005 0.0491592 4.31135e-20)
(-0.33384 -0.0288425 -7.3821e-20)
(0.605287 0.0501504 2.48941e-20)
(1.0511 0.0911333 2.82507e-20)
(0.89421 -0.0693003 0)
(0.978326 -0.022142 0)
(1.01715 -0.0126539 2.66889e-21)
(1.26349 0.17634 8.82077e-20)
(1.06844 0.045598 -3.11859e-21)
(0.358904 0.025325 0)
(1.07352 -0.0111623 2.35095e-20)
(1.01356 -0.0617418 -1.91864e-21)
(1.02558 0.0647639 1.73345e-20)
(1.05089 0.0893624 -3.41412e-20)
(1.03533 -0.00274671 0)
(1.03619 -0.0174574 1.0575e-20)
(0.720289 -0.177811 -5.86198e-20)
(1.31401 -0.0121931 -6.16644e-20)
(0.18213 0.0972337 -4.37596e-20)
(0.461812 0.130199 0)
(1.06521 0.0385797 -2.0614e-20)
(1.00066 -0.745364 -1.55698e-20)
(0.1256 0.0877557 0)
(0.938823 -0.0210604 0)
(1.05614 0.0501109 0)
(0.638063 0.0674614 0)
(1.07061 -0.0226505 -1.91521e-20)
(1.02425 0.0622061 -3.89762e-20)
(1.0156 -0.0328659 0)
(1.31736 -0.00490568 -1.83786e-20)
(1.00016 -0.00247017 0)
(1.13947 -0.0325399 1.24382e-20)
(1.02998 -0.0701 4.31669e-21)
(0.982671 -0.0165218 2.14673e-20)
(1.05862 0.117206 2.41529e-20)
(1.03728 -0.00958713 0)
(0.183242 -0.609455 5.32083e-20)
(1.01324 -0.00549164 0)
(1.06802 0.0998328 -3.27111e-20)
(0.346783 0.0281283 0)
(0.0185934 0.059202 -4.62862e-20)
(0.907192 -0.0778865 0)
(1.055 0.0505516 0)
(1.00004 -0.00128 -5.02107e-22)
(0.767903 -0.308906 -2.73821e-20)
(1.00211 -0.0125409 -2.40187e-21)
(1.13619 -0.0354162 -2.08854e-20)
(-0.0427301 -0.0597315 5.50299e-20)
(0.900056 -0.0696758 -2.49072e-20)
(1.06972 -0.0207628 3.11861e-20)
(0.996282 -0.00176369 -7.0651e-21)
(0.441219 0.124922 0)
(1.01848 -0.0085092 2.62804e-21)
(0.94951 -0.443904 0)
(0.421721 0.125493 0)
(1.26243 -0.143992 0)
(1.00011 -0.000527837 0)
(1.37529 -0.301184 5.5726e-20)
(0.254859 0.0358168 -3.6303e-21)
(0.842716 0.0646517 2.77433e-20)
(1.02466 0.0624578 4.12386e-20)
(1.083 0.019507 0)
(0.73116 -0.367149 0)
(1.06036 0.114476 0)
(1.04287 0.0364329 0)
(1.14258 -0.424097 -5.07082e-21)
(1.06072 -0.115934 0)
(0.470304 0.0315 2.35355e-20)
(1.10557 0.108503 1.26094e-21)
(1.00935 -0.000632881 3.14763e-21)
(1.06389 0.00728573 0)
(1.02545 0.0656489 0)
(0.727047 0.0548901 -2.23429e-20)
(0.558397 0.0387583 2.43735e-20)
(1.01671 -0.012109 0)
(0.602777 -0.228729 -3.21285e-20)
(0.993337 -0.0124252 0)
(1.04321 0.0985815 0)
(1.10977 0.138343 2.66956e-20)
(1.06512 0.00848114 1.83418e-20)
(1.09657 0.0428085 0)
(1.10906 0.110912 5.38692e-21)
(1.00054 -0.0223315 0)
(0.815187 -0.137372 -3.77147e-20)
(1.03194 0.068595 5.31538e-21)
(1.05753 0.155897 2.52756e-20)
(0.998167 -0.00878283 0)
(0.982487 -0.0156264 -2.30387e-20)
(0.901462 -0.0768156 0)
(0.774401 0.0840356 -4.20518e-21)
(-0.289586 -0.0352021 2.8214e-19)
(1.0798 0.047211 0)
(1.0253 -0.0106654 0)
(1.09212 0.136835 0)
(1.11885 0.139278 -6.18577e-20)
(1.04789 0.083281 -4.74907e-20)
(1.09397 0.042331 4.17798e-21)
(0.735513 0.0806895 -1.16213e-24)
(-0.00565157 0.0198878 0)
(1.07145 0.00299406 4.00981e-21)
(1.06424 0.0335628 -2.20431e-20)
(1.25748 -0.131244 0)
(1.01862 -0.0166013 2.98413e-21)
(1.00165 -0.00633166 -1.26396e-21)
(1.04834 0.0851112 3.10638e-20)
(1.16756 -0.0709941 2.48765e-20)
(1.01948 -0.00845459 -1.32196e-20)
(1.00018 -0.00241176 -4.17007e-21)
(1.0019 -0.012887 1.62077e-21)
(1.00419 -0.000586245 2.56334e-21)
(1.07545 0.0256513 0)
(1.00172 -0.00673484 1.13995e-21)
(0.657051 0.0670352 2.18887e-24)
(1.0808 0.0431131 1.53417e-20)
(1.012 -0.0274096 -1.24889e-21)
(0.730356 0.0533811 0)
(0.371377 0.0621472 0)
(0.975824 -0.0172003 1.47452e-20)
(1.0649 0.100475 3.34231e-20)
(-0.199888 0.00740331 -2.01524e-20)
(0.976976 -0.0439302 0)
(0.974367 -0.0165951 -8.2493e-21)
(1.08281 0.0447285 -2.98496e-20)
(0.332779 0.0311671 3.34901e-21)
(0.332751 -0.00147549 2.20998e-19)
(1.11001 0.0599111 0)
(1.00233 -0.000578555 2.42953e-22)
(1.11259 0.214319 4.78602e-20)
(1.00128 -0.00783878 -2.83407e-21)
(1.11588 0.0639159 5.66938e-20)
(-0.181152 0.0148191 0)
(1.05266 0.149939 -4.87078e-20)
(1.04073 0.0114106 2.25342e-20)
(1.35787 -0.158829 7.79505e-20)
(1.4075 -0.10015 -1.00547e-19)
(-0.136581 -0.0304501 -1.18337e-20)
(1.21226 0.0719087 0)
(0.787387 -0.107493 4.00851e-20)
(0.0622888 0.0648528 -3.51364e-20)
(0.451095 0.0836783 -1.25978e-20)
(1.07301 0.171784 -1.88414e-20)
(1.03742 -0.0177793 0)
(-0.33349 -0.037191 6.48831e-20)
(0.309177 0.0221376 1.69621e-20)
(0.48833 -0.498705 0)
(0.523306 -0.502138 3.94269e-20)
(0.93745 -0.0222189 0)
(1.11831 0.0539133 -1.29048e-20)
(0.957673 -0.115342 1.04355e-20)
(0.51978 0.0355791 0)
(0.79681 -0.15565 0)
(1.00756 -0.00160691 2.90947e-21)
(1.01629 -4.45085e-05 -1.64288e-20)
(1.07416 -0.0590231 1.50354e-20)
(-0.1726 -0.0359904 5.19848e-20)
(0.236887 -0.613094 8.99124e-20)
(1.01855 -0.0158908 0)
(-0.00455391 0.0545067 0)
(0.946526 -0.113879 0)
(1.10016 -0.0365584 0)
(1.04111 0.0128201 0)
(0.322287 0.0278923 1.2556e-22)
(1.08969 0.133517 -9.1803e-21)
(1.02497 0.0643751 -3.35936e-20)
(1.0274 -0.0684607 -1.00309e-20)
(1.06715 -0.0209231 -2.1253e-20)
(0.778034 0.0551864 0)
(0.97828 -0.0236419 0)
(1.12322 0.142405 -2.12839e-21)
(1.06953 0.00351407 1.32458e-20)
(1.08506 0.0442528 0)
(0.940939 -0.116503 -1.79897e-20)
(0.992693 -0.0123829 0)
(1.01267 -0.0268968 2.35064e-21)
(1.25753 -0.00278445 2.11629e-20)
(1.28294 -0.141854 0)
(1.09854 0.108388 -8.31246e-20)
(1.45184 -0.102063 0)
(0.791865 0.0555116 5.82397e-21)
(1.01357 -0.0650896 2.69149e-21)
(0.39282 0.119882 0)
(1.04177 0.105494 -5.14983e-20)
(1.02243 -0.00478792 0)
(1.04703 0.149121 5.86982e-20)
(1.0747 0.0839196 -5.67938e-20)
(-0.0928749 0.0236674 -4.44803e-20)
(1.07157 -0.0571659 0)
(1.02922 0.0555805 -2.75286e-20)
(1.01891 0.0715801 -1.45879e-20)
(1.41864 0.0114646 3.06502e-20)
(1.25671 -0.0191269 -3.98135e-20)
(0.517041 0.0344439 1.44894e-20)
(1.04256 -0.0262888 0)
(1.02505 0.099959 -3.48938e-20)
(-0.418408 -0.0352416 0)
(1.08471 0.00645694 0)
(0.495701 0.034586 -1.89827e-22)
(1.09194 0.00787349 0)
(0.463238 0.132798 -6.01392e-20)
(1.06425 0.0322742 3.05877e-20)
(1.03397 0.0430105 -1.38262e-20)
(1.1172 0.107503 -8.61645e-20)
(1.311 -0.106134 0)
(0.984265 -0.0094062 9.96833e-21)
(1.07121 -0.00280797 2.8802e-20)
(1.17357 -0.0729153 1.09782e-20)
(1.04503 0.0364845 -1.08524e-21)
(1.01273 -0.0205934 0)
(1.07821 0.0488785 -1.81865e-20)
(1.01774 0.1359 7.62719e-22)
(0.995861 -0.0241973 0)
(1.05807 0.0504949 -4.28089e-20)
(-0.237531 -0.0417142 0)
(1.06037 -0.0209137 7.97024e-21)
(1.34329 -0.485796 0)
(1.04142 0.0475456 -4.5046e-20)
(0.415253 0.0051106 -2.25061e-19)
(1.07344 -0.0233238 2.71087e-20)
(1.03376 0.0553876 1.2694e-20)
(0.97563 -0.721753 3.39963e-20)
(1.10531 0.139735 -6.98251e-21)
(1.10519 0.0350937 -8.95141e-20)
(0.536275 0.0366144 -2.31174e-20)
(0.226921 0.0282554 -4.73712e-22)
(1.33852 -0.297469 5.0046e-20)
(0.999801 -0.0224422 -3.80906e-21)
(1.25093 0.000293205 8.01399e-21)
(1.09664 0.00221812 -6.85767e-21)
(1.03012 0.0556088 0)
(1.02365 -0.0121067 -9.3949e-21)
(-0.311803 -0.0268028 -1.47014e-19)
(1.00765 0.159525 -1.46113e-21)
(1.392 0.0611364 -2.09923e-20)
(1.06615 -0.0192559 2.03193e-20)
(1.11423 0.10972 7.2248e-20)
(1.02216 0.085645 2.96784e-20)
(-0.272143 -0.037598 -2.83086e-19)
(1.01935 -0.00172939 -6.19852e-21)
(-0.383207 -0.0338695 -7.29687e-20)
(1.32138 -0.0846902 -6.51634e-20)
(0.298208 -0.196844 -3.30659e-19)
(1.06577 -0.117969 5.86521e-22)
(1.12658 0.190092 8.89351e-20)
(0.988415 -0.0160788 1.35472e-20)
(1.00133 -0.000369186 -7.56413e-23)
(0.429389 0.0312664 -1.43056e-20)
(1.02291 0.0883846 -1.80418e-20)
(0.990896 -0.00831631 2.91826e-21)
(1.05993 -0.00601455 0)
(1.05928 0.0512365 3.00842e-20)
(1.01157 -0.00690132 -1.07481e-22)
(1.03818 0.161057 1.79776e-21)
(1.11624 0.0566929 1.47255e-20)
(1.07687 0.0830934 4.02028e-20)
(1.05251 0.0166798 -1.05891e-20)
(1.04287 -0.0250982 9.98142e-21)
(0.972314 -0.00625497 -2.73363e-22)
(1.424 0.000889512 0)
(1.0109 -0.0269202 0)
(0.973285 -0.00526003 0)
(1.02071 0.0657775 0)
(1.02973 0.137348 0)
(1.03945 -0.0772875 -5.49973e-21)
(1.02044 0.0725502 -3.68932e-21)
(0.995779 -0.00312045 7.81239e-21)
(1.00181 -0.00636023 -6.46137e-23)
(1.06263 -0.021031 0)
(1.10123 0.110832 9.14423e-20)
(1.03835 0.0467786 2.80855e-20)
(1.01273 -0.0218563 -1.25292e-21)
(1.04874 -0.0160244 0)
(1.16874 -0.345449 3.46257e-21)
(1.05076 -0.00256208 -1.07877e-20)
(0.435171 -0.00792112 9.53387e-20)
(1.00174 -0.00780266 -4.3207e-21)
(1.04617 0.025523 0)
(0.822583 0.0638505 9.79741e-21)
(0.953576 -0.160213 0)
(1.01572 -0.000415406 5.02689e-21)
(1.00071 -0.00706965 -3.43236e-22)
(1.05281 0.0158063 1.56947e-20)
(1.03697 -0.0011581 -1.37558e-20)
(1.32027 -0.358571 -5.12602e-20)
(1.0238 0.0649013 2.79177e-20)
(1.08291 0.0213416 5.85545e-21)
(0.374319 -1.21315 0)
(1.06368 -0.0191623 -1.71592e-20)
(1.0007 -0.010496 0)
(0.640587 0.0941924 1.15504e-20)
(1.01926 0.0725585 1.87693e-20)
(0.887686 -0.127792 0)
(0.99719 -0.0274485 6.87835e-21)
(0.431848 0.0769163 0)
(0.864759 -0.0999862 0)
(1.2662 -0.672836 8.44451e-20)
(0.990484 -0.0253139 2.77869e-21)
(1.09908 -0.0274905 0)
(1.26071 -0.0134233 0)
(1.05095 0.0385377 0)
(0.504789 0.0942709 -1.11222e-20)
(1.02132 0.0848041 -3.68502e-20)
(1.40797 0.0540306 0)
(0.981829 -0.0662401 -1.70162e-20)
(1.21118 0.0779284 3.88205e-20)
(1.00167 -0.0233001 1.87563e-22)
(0.717721 0.0557337 1.49425e-21)
(1.04238 0.0473822 4.16614e-20)
(1.04924 0.0885967 0)
(1.09412 0.00341732 0)
(1.02755 -0.0652896 -1.05406e-20)
(0.960104 -0.156694 1.30341e-20)
(1.11619 0.0501067 -3.8116e-20)
(1.00189 -0.000541356 0)
(-0.321781 -0.0348152 -1.53798e-19)
(0.594847 0.0892164 -1.90494e-20)
(0.478144 -0.0105337 0)
(-0.183796 -0.0323662 -8.53995e-20)
(1.02701 0.0653466 -1.67539e-20)
(-0.336946 -0.0172803 0)
(1.11403 0.141676 3.54934e-20)
(0.918819 -0.0805896 -2.20301e-20)
(0.999758 -0.00357382 -1.1123e-22)
(1.31604 -0.486579 -1.18611e-19)
(0.991531 -0.00720733 -2.77532e-21)
(1.01241 -0.0200715 6.79114e-22)
(0.914263 -0.0979192 2.52099e-20)
(0.123021 0.0849668 -2.81316e-20)
(1.05481 0.000310565 0)
(0.973138 -0.037462 2.10528e-20)
(1.11609 -0.273234 4.25675e-20)
(1.12493 0.0166142 2.63988e-20)
(0.989247 -0.00263606 0)
(0.98583 0.139621 8.51357e-20)
(1.00872 -0.0199847 1.23193e-22)
(0.666135 0.111703 1.15593e-20)
(1.3079 -0.341751 2.18071e-20)
(1.00575 -0.0164072 0)
(1.0473 0.00534789 2.55035e-20)
(1.31883 -0.0469312 0)
(1.05152 0.154974 0)
(1.01906 -0.00878367 -5.47276e-21)
(1.16294 -0.0300174 0)
(1.13352 -0.401892 1.28016e-19)
(1.02385 -0.00052708 0)
(-0.0730394 -0.00981311 4.59929e-20)
(1.13162 0.149525 3.65028e-20)
(1.07322 0.101917 0)
(0.980137 -0.0647085 7.34305e-21)
(1.01788 0.0663112 -1.90232e-20)
(0.0986314 0.0328628 2.57874e-20)
(1.02434 -0.000554662 -2.7369e-23)
(1.21889 0.123945 0)
(1.0184 -0.0328235 -2.74197e-21)
(1.00918 -0.0203878 4.65998e-22)
(1.01475 0.0610751 -1.02268e-21)
(0.472686 0.133495 1.49526e-20)
(1.10749 0.00920554 0)
(1.03771 0.0459897 -1.86026e-20)
(0.990812 -0.00596733 1.20772e-20)
(1.04047 0.0551194 -2.12453e-21)
(0.646113 0.114984 2.41957e-20)
(0.00495949 0.0464399 1.9585e-20)
(1.02723 -0.0019244 -1.97263e-20)
(-0.404801 -0.0266493 -1.51199e-19)
(1.01235 -0.0214073 0)
(1.01962 -0.0332228 -2.04988e-21)
(1.10461 0.0374863 7.67407e-20)
(1.04114 0.0268265 -1.21925e-20)
(1.01944 -0.00153783 -6.63735e-21)
(1.0226 -0.0640246 -2.45128e-21)
(-0.0486139 -0.00743362 2.99208e-21)
(1.30324 -0.102849 -1.26521e-19)
(-0.0965845 -0.0107834 0)
(1.05336 -0.000842472 0)
(0.993591 -0.0130593 -5.68403e-21)
(0.795814 0.0814049 7.26184e-21)
(0.999603 -0.00475318 -1.9051e-21)
(1.24757 0.013995 -3.91146e-20)
(1.05202 0.0232953 -3.1768e-20)
(1.04843 0.0356078 -1.5389e-20)
(1.08612 0.0160504 -1.0389e-20)
(0.921054 0.0668289 2.07516e-20)
(0.00269969 0.0270509 0)
(1.07116 -0.00745423 2.63059e-20)
(-0.373796 -0.0358183 -9.03624e-23)
(1.04088 0.0094291 3.74344e-20)
(1.13453 0.0442291 -3.04736e-20)
(0.791868 0.0601104 5.26986e-21)
(0.476268 0.039375 0)
(1.01279 -0.0343913 -2.60061e-22)
(1.00096 -0.0233112 -3.24034e-21)
(0.83027 -0.169235 8.11156e-20)
(-0.0800136 -0.00770993 1.37845e-20)
(1.02063 0.06623 1.45983e-20)
(1.03993 0.0542754 0)
(1.14365 -0.587435 -1.75247e-19)
(1.04052 0.0272597 1.99399e-20)
(1.06243 0.0316431 0)
(0.0495676 -0.0675992 0)
(0.913558 0.115278 0)
(1.1374 -0.336843 -1.17778e-20)
(0.639146 0.10704 1.34938e-20)
(1.0329 0.0859338 3.16227e-20)
(0.813054 0.05776 1.22977e-20)
(1.03884 -0.0262107 0)
(1.01899 0.0708745 8.41234e-21)
(1.12742 0.182903 0)
(1.0003 -0.00934331 -2.96244e-21)
(-0.428565 -0.016746 0)
(0.801377 0.18406 -8.83184e-20)
(1.04532 -0.10972 1.01357e-20)
(1.06827 0.0505504 -2.69278e-20)
(1.00369 -0.0314989 2.88126e-21)
(0.531776 -0.903334 0)
(1.1824 -0.154596 -2.75833e-20)
(0.610427 -0.192131 0)
(1.01032 -0.0274072 0)
(1.00081 -0.00051692 -1.67946e-23)
(0.913923 -0.048593 0)
(1.12508 0.0129831 1.2088e-20)
(1.00178 -0.00752214 7.169e-22)
(0.0662098 0.0749316 1.67358e-20)
(1.00094 -0.000608464 0)
(1.03447 0.0864914 -2.94545e-20)
(0.974787 -0.0637911 0)
(1.03036 0.0563665 -2.8249e-23)
(0.992125 -0.02562 0)
(0.988516 -0.00266551 -9.54656e-21)
(1.1177 -0.136105 0)
(-0.402871 -0.0288791 0)
(1.10979 0.0310405 -2.80249e-20)
(-0.0378623 0.0521283 7.44585e-20)
(1.10049 -0.0304368 6.55861e-21)
(1.01179 -0.00773479 -2.80817e-21)
(1.02499 -0.00613456 0)
(1.12189 0.0463831 5.35115e-20)
(1.04808 -0.0172335 0)
(1.18037 0.0522863 -6.85769e-21)
(1.05902 0.000164854 -1.80343e-20)
(0.886891 -0.11994 0)
(1.01896 0.0699367 -7.31577e-21)
(0.999475 -0.00452914 -7.91428e-21)
(0.547472 0.0343747 0)
(1.00009 -0.00171169 3.44557e-21)
(1.02702 0.0590598 -8.67528e-21)
(-0.350822 -0.0352349 -1.41129e-19)
(0.803334 0.0686711 -2.02707e-20)
(0.883983 -0.0312689 0)
(0.837316 -0.269788 0)
(1.10331 -0.273665 0)
(1.28873 -0.208297 5.40045e-20)
(0.770055 0.182991 1.14677e-19)
(1.0291 -0.00212962 0)
(0.878324 0.123331 -1.0619e-19)
(0.952506 -0.118057 0)
(1.08698 0.00763997 -2.25394e-20)
(-0.175066 -0.0351631 -3.55714e-20)
(1.23382 0.156906 2.25918e-21)
(1.02284 -0.00506931 0)
(1.17994 0.0482425 2.54722e-20)
(1.0346 -0.00234883 -3.12162e-21)
(0.773207 0.0556131 0)
(-0.341901 -0.00649078 4.88653e-20)
(1.02427 -0.0334647 3.98625e-21)
(0.701459 -0.168336 0)
(1.04082 0.181051 1.56088e-20)
(1.00001 -0.00153202 4.25116e-21)
(1.00001 -0.00202006 -2.56057e-21)
(1.03247 0.056224 0)
(0.523126 0.0320719 1.34076e-20)
(1.008 0.0672613 2.1983e-21)
(0.974487 -0.015259 -6.69954e-21)
(1.12575 0.106597 -2.34181e-20)
(1.04942 -0.00310834 0)
(0.987454 -0.00358642 1.9526e-20)
(1.01909 0.068493 0)
(1.12217 0.109296 0)
(1.27211 -0.124593 4.52863e-20)
(1.01843 -0.0015208 0)
(1.03275 0.0692057 -1.99109e-20)
(0.925927 -0.2124 0)
(1.03389 0.0534442 -1.64173e-20)
(0.958369 -0.0180671 1.63339e-20)
(1.01198 -0.0594866 4.81869e-22)
(1.17338 -0.155982 -4.43292e-20)
(0.918215 -0.0493544 0)
(1.03005 0.0685472 -2.1473e-20)
(1.08346 0.0501123 -3.23455e-20)
(1.08812 0.0488075 0)
(1.12291 -0.323807 -1.03696e-20)
(1.25662 -0.685761 1.22126e-19)
(1.14165 0.150538 0)
(1.02606 0.0943115 1.63837e-20)
(1.27008 -0.026147 0)
(1.0271 0.0675298 -3.53488e-20)
(0.423166 0.043737 1.02752e-22)
(1.04403 -0.166092 -2.73968e-20)
(1.01842 0.0613622 0)
(1.06991 0.102687 4.75117e-21)
(1.02763 -0.0135225 1.11644e-22)
(1.06216 0.0300266 0)
(1.1432 0.143405 1.8466e-20)
(1.06315 -0.0680911 -1.28003e-21)
(1.00538 -0.0154088 0)
(1.00581 -0.0145441 -7.66163e-22)
(1.02792 0.0599299 0)
(0.505413 0.0314507 0)
(1.04735 0.0261416 0)
(0.354212 0.114689 0)
(1.01166 -0.0080558 6.11169e-21)
(1.0092 0.0678383 0)
(1.04402 -0.378333 1.6282e-20)
(-0.221948 0.0055478 1.50263e-19)
(1.18343 0.0428309 -1.09693e-19)
(1.07534 -0.0220806 -2.8299e-20)
(1.05764 -0.00266795 2.13855e-21)
(-0.209851 0.0127393 -5.69643e-20)
(1.27307 -0.116949 0)
(1.04349 -0.158796 1.25258e-21)
(1.02185 0.0874566 1.98475e-20)
(1.04143 -0.0236155 -9.34099e-22)
(1.33875 -0.435702 1.08681e-19)
(1.02726 0.0597624 9.83093e-21)
(1.03569 0.088508 0)
(1.09828 -0.00900431 -3.57532e-20)
(1.34254 -0.0622802 0)
(0.989168 -0.0164663 -5.14845e-21)
(1.0001 -0.00200735 -3.03541e-21)
(0.942101 -0.0204718 9.9572e-21)
(0.986892 -0.00430951 -1.45801e-20)
(0.777015 0.0598359 0)
(1.00395 -0.000717106 -1.52188e-21)
(1.01899 0.0679611 -6.96611e-21)
(0.755706 0.080606 4.78928e-21)
(1.18913 0.0423686 1.32512e-19)
(0.039408 0.0561775 3.70992e-20)
(-0.0834268 0.0217873 2.88217e-20)
(1.03538 0.0896508 0)
(1.29956 -0.202092 0)
(0.887381 -0.0384093 5.7889e-20)
(0.998595 -0.00134 2.83156e-21)
(0.983675 -0.0149167 -5.79316e-21)
(1.01716 -0.00424501 0)
(1.02447 -0.00630531 0)
(1.0011 -0.00056089 0)
(1.12848 0.0503013 0)
(1.19011 0.0911484 -3.3336e-20)
(0.923664 -0.224703 0)
(1.06826 0.166672 -3.51844e-20)
(1.0266 -0.0530327 1.10655e-20)
(0.624801 0.0647253 -8.21503e-21)
(0.999963 -0.000260883 0)
(-0.171076 -0.0464569 1.49832e-19)
(1.12852 -0.0535944 8.97178e-20)
(0.9999 -0.000527126 3.78247e-21)
(0.997024 -0.00205413 6.71349e-21)
(0.790741 0.0701141 1.97569e-20)
(1.07453 -0.0147632 5.05358e-20)
(1.00311 0.0788645 1.024e-20)
(0.833026 0.188216 0)
(1.06593 0.0482607 -1.80364e-20)
(1.08147 0.0689547 -4.45795e-20)
(1.02332 -0.000132354 0)
(0.763585 0.115759 1.00468e-20)
(0.991755 -0.0756044 0)
(1.05614 -0.000362999 0)
(1.01897 0.0693538 2.09032e-21)
(0.998655 -0.00181925 0)
(0.976671 -0.0400858 -1.16366e-20)
(1.02856 -0.00592123 0)
(1.04462 0.0478629 2.66137e-20)
(0.493225 0.031893 0)
(1.09059 -0.0301473 1.80515e-20)
(1.09699 -0.00337385 -3.58132e-22)
(1.32789 -0.0936849 3.64887e-20)
(-0.0529757 0.0383924 4.02316e-20)
(0.891099 -0.0605355 0)
(0.996636 -0.0982712 -3.10957e-22)
(0.813562 0.0588742 3.30968e-20)
(1.01681 -0.0041347 4.80655e-21)
(0.797339 0.0587064 -1.04214e-20)
(1.00045 -0.00132708 -3.23781e-22)
(1.05061 -0.000978987 -1.18104e-20)
(1.33386 0.13578 0)
(1.04548 0.0683446 -1.23545e-20)
(1.04404 0.0841755 2.09612e-20)
(1.21443 -0.0326157 0)
(1.10892 0.033935 6.20239e-20)
(0.999539 -0.0017602 0)
(0.999981 -0.000254951 3.30934e-21)
(1.13789 0.0473401 3.53456e-20)
(1.04008 -0.0257136 0)
(0.999639 -0.00151558 8.80548e-21)
(1.04413 0.0282572 2.14141e-20)
(1.31924 -0.150478 0)
(1.00474 -0.00507607 1.37087e-21)
(1.27444 -0.22711 5.2937e-20)
(1.36918 -0.471282 1.21385e-20)
(1.0068 0.0750328 0)
(1.21067 -0.0275579 3.92567e-21)
(-0.0499319 -0.0523981 2.23212e-19)
(0.84567 -0.0989108 0)
(0.998461 -0.00166829 -3.00831e-21)
(1.25891 -0.0349743 -3.97466e-20)
(1.01127 -0.00852237 0)
(1.07099 -0.000899703 1.03027e-20)
(1.0266 0.0926703 -1.83394e-20)
(0.797114 0.0543629 2.33409e-20)
(0.863512 0.118135 -3.4639e-20)
(0.857764 0.0615132 -1.07155e-20)
(1.02767 -0.0331125 -1.81068e-21)
(1.02408 -0.0327865 3.64428e-21)
(1.01057 -0.280125 0)
(1.00825 -0.0575765 0)
(1.02002 -0.0141438 8.60601e-23)
(0.592175 -0.306142 0)
(1.04081 0.0979466 -1.7284e-20)
(0.490544 0.0363579 0)
(1.02649 0.0589632 0)
(1.04585 0.0693389 0)
(0.985574 -0.00602761 -2.33023e-21)
(1.01787 -0.00916063 -2.32666e-22)
(1.39107 -0.306448 0)
(1.07996 0.0841905 0)
(1.05215 -2.91397e-05 0)
(0.999802 -0.000769934 0)
(1.04154 0.082287 1.65147e-20)
(1.23409 0.0637128 1.38818e-21)
(0.375798 0.119019 0)
(0.973909 -0.019633 -8.29285e-21)
(1.00105 -0.00354331 -1.19032e-21)
(0.469533 0.0293359 0)
(0.959322 -0.0167192 0)
(1.08904 0.0120928 -4.7121e-20)
(1.01124 -0.0065405 -2.34143e-21)
(0.168323 0.0930671 0)
(1.0089 -0.000371473 4.59391e-22)
(-0.342819 -0.0397477 1.14885e-19)
(0.995134 -0.00648193 2.1246e-21)
(1.25266 -0.150661 0)
(1.08223 0.0342686 -4.33315e-22)
(0.985752 -0.286744 2.18006e-21)
(1.09926 -0.00644396 5.49493e-20)
(0.994416 -0.0234445 0)
(1.06051 -0.00855712 1.87008e-22)
(1.00342 -0.0037806 -4.46682e-22)
(1.01894 0.0666501 0)
(0.963115 -0.0254587 -1.27588e-20)
(0.584556 0.0404531 0)
(1.043 -0.0221825 -1.59234e-20)
(1.00633 0.114481 0)
(0.692779 0.0917294 -1.01127e-20)
(1.09595 -0.0153359 0)
(1.00394 -0.00264902 -7.51723e-22)
(-0.20572 -0.0464212 0)
(1.02541 0.0667403 9.45754e-21)
(1.07311 -0.00637615 -2.74983e-20)
(1.04401 0.0671559 1.22106e-20)
(0.983646 -0.0140629 -2.92437e-21)
(0.516266 0.0341656 2.57184e-20)
(1.02839 -0.013844 -7.99033e-21)
(1.14892 0.141625 -6.56904e-20)
(0.999692 -0.0101264 0)
(1.00369 -0.00390785 -8.57487e-22)
(1.00577 0.0790243 -4.79454e-21)
(1.08564 0.0181529 0)
(1.00079 -0.00751109 3.51324e-22)
(1.04041 0.034573 4.33752e-21)
(0.49458 0.118096 -1.82762e-20)
(0.779006 -0.842862 4.89353e-20)
(1.02137 0.183709 0)
(1.01605 -0.0122578 -5.3065e-21)
(0.446498 0.0477247 -1.33854e-20)
(0.997968 -0.00918904 -3.07255e-21)
(1.00456 -0.00482089 -9.89797e-22)
(0.975379 -0.0223959 0)
(1.01628 -0.000112805 8.97532e-21)
(0.999931 -0.00278454 3.26193e-21)
(0.982727 0.198646 -4.17702e-20)
(1.02721 0.100646 -1.94765e-20)
(1.03795 -0.0102806 0)
(1.00098 -0.000836371 -7.39043e-24)
(1.10731 0.0126938 0)
(1.01522 -0.0185957 6.19966e-21)
(-0.16882 -0.0508103 0)
(1.26278 -0.0283631 3.90025e-20)
(0.39844 0.037966 -8.7465e-21)
(0.081897 0.0653415 3.70848e-20)
(1.06069 -0.00966025 1.15024e-20)
(1.03076 0.0691716 0)
(1.00035 -0.009796 -4.48078e-22)
(1.08193 0.0390758 -6.29788e-21)
(1.0362 -0.359569 -7.43468e-21)
(1.02848 -0.00186565 0)
(1.00038 -0.00131355 9.28431e-23)
(1.38313 -0.280048 1.32269e-19)
(-0.323772 -0.00341697 -2.4699e-22)
(1.07948 0.0675035 4.64466e-20)
(-0.454138 -0.0362739 -8.64315e-20)
(1.05952 0.0629336 -2.82428e-20)
(0.995954 -0.00396622 1.23254e-20)
(1.11684 0.00243108 0)
(1.04266 0.0671462 0)
(-0.431337 -0.02672 -1.72199e-20)
(1.07433 0.0236269 -3.96497e-20)
(1.01791 0.077184 0)
(1.08183 0.0857456 1.60903e-20)
(1.00028 -0.00266432 4.07266e-21)
(0.381313 -0.126309 0)
(0.274919 -0.0943661 0)
(0.52718 0.0367718 -2.53404e-20)
(1.26345 0.166026 -1.72063e-19)
(1.01409 0.0604225 -7.03571e-21)
(0.984731 -0.066679 1.54868e-20)
(0.754017 -0.380037 0)
(0.972554 -0.00354537 9.05595e-21)
(1.03379 0.120192 3.69983e-20)
(1.06137 -0.0650759 2.19369e-20)
(1.00741 -0.00128289 -1.35708e-21)
(0.991026 0.189911 0)
(1.02294 -0.0529293 0)
(1.00386 -0.00243477 0)
(1.01395 -0.0342562 0)
(1.02137 -0.0515539 0)
(0.107949 0.0833516 1.51722e-20)
(1.13342 0.142654 3.50129e-20)
(1.01139 -0.0121435 -1.10877e-21)
(1.11749 0.00617206 -3.9428e-20)
(0.353115 0.0323017 -2.62855e-20)
(1.03849 -0.0446534 0)
(-0.471873 -0.0351478 0)
(0.960837 -0.0418363 -1.65682e-20)
(1.05244 0.0699894 2.36838e-20)
(0.391964 0.13027 -3.02713e-20)
(1.00156 -0.0070014 2.2976e-21)
(1.01953 0.0661725 -9.63437e-22)
(1.07468 -0.077897 1.87637e-20)
(1.09928 -0.0150675 2.55878e-20)
(0.737381 -0.870874 -2.18879e-21)
(1.02514 -0.0518602 -9.53471e-21)
(1.29974 0.0262493 -7.39552e-21)
(1.03322 0.0544648 2.89549e-21)
(0.57064 0.131567 0)
(1.03374 0.00204517 1.24097e-20)
(0.554563 0.0374874 -1.59133e-20)
(1.0847 0.00358677 -4.02463e-20)
(0.340951 0.0503914 -1.02989e-20)
(-0.410949 -0.0165977 0)
(0.528231 0.0345574 -1.9255e-20)
(1.06223 0.0488793 -2.40878e-20)
(0.991427 -0.0222242 3.35455e-22)
(1.0273 -0.0342843 3.425e-21)
(0.999981 -0.00151491 0)
(1.03421 0.0419024 -4.19865e-21)
(0.997123 -0.00385057 0)
(0.52586 0.100318 2.63094e-20)
(1.04025 -0.102031 5.97519e-21)
(0.932803 -0.0878181 -2.67022e-20)
(0.893573 -0.0570035 0)
(0.98668 -0.0651877 -1.61221e-20)
(1.01566 -0.0118324 -4.65227e-23)
(1.03562 0.025067 -1.83937e-20)
(1.06852 -0.0642617 -1.55687e-21)
(1.04769 0.00433799 -5.57152e-22)
(1.0509 -0.0802771 2.22843e-20)
(0.697807 0.174634 5.86519e-20)
(1.019 0.0654191 1.7383e-20)
(1.07824 0.0100843 -4.7628e-21)
(1.13787 -0.119803 5.34755e-20)
(1.01201 0.191988 2.20802e-21)
(0.973975 -0.0397693 -1.43814e-20)
(-0.151691 -0.0287918 1.31172e-20)
(1.01641 -0.00423022 9.16867e-21)
(1.04564 -0.126264 -2.41464e-20)
(0.961224 -0.0242569 -1.49518e-20)
(1.02176 -0.0215504 -4.67789e-21)
(1.10173 -0.142917 -3.73186e-20)
(1.00052 -0.0108382 -4.91692e-22)
(1.0116 -0.0117911 0)
(0.795539 -0.118519 8.05337e-20)
(0.983016 -0.00825275 0)
(1.31502 -0.141524 0)
(1.04637 -0.0173506 -2.1878e-20)
(-0.438644 -0.0143267 1.08647e-19)
(1.07586 0.158314 -1.87669e-21)
(1.07725 0.123838 -1.62859e-21)
(1.21608 0.116391 1.10893e-19)