/*--------------------------------*- C++ -*----------------------------------*\
| =========                 |                                                 |
| \\      /  F ield         | OpenFOAM: The Open Source CFD Toolbox           |
|  \\    /   O peration     | Version:  v2012                                 |
|   \\  /    A nd           | Website:  www.openfoam.com                      |
|    \\/     M anipulation  |                                                 |
\*---------------------------------------------------------------------------*/
FoamFile
{
    version     2.0;
    format      ascii;
    class       volScalarField;
    location    "250";
    object      omega_0;
}
// * * * * * * * * * * * * * * * * * * * * * * * * * * * * * * * * * * * * * //

dimensions      [0 0 -1 0 0 0 0];


internalField   nonuniform List<scalar> 
13851
(
0.126781
0.0240476
0.0239387
4.59249
0.0220823
0.0256587
0.0240721
0.0218641
2.85384
0.022046
0.0615004
0.0220791
0.0221302
4.55015
0.0345976
0.148755
6.76085
0.0219633
0.331093
0.126543
0.0385433
0.0259017
22.2197
0.0222638
7.15032
0.0629361
3.17574
5.23107
2.68377
0.0217849
4.52342
0.0240702
0.125115
3.59354
0.0421895
2.66523
0.022274
8.13184
4.13201
0.0220982
3.54971
2.74747
18.1096
0.572466
2.87662
0.0218959
0.0216599
0.135268
0.0233911
0.022123
6.66589
0.02219
0.145352
0.0298264
4.6206
0.0220988
0.12716
3.43977
3.48527
5.09291
0.0220867
2.2105
0.0220975
0.0235074
0.213144
0.22565
6.90354
0.0671243
0.0221364
4.39312
3.9618
0.0459904
0.022032
6.21412
0.0311178
0.0236948
5.42166
0.0217001
6.40151
0.0219529
0.0221516
0.328593
0.0416867
4.34151
4.88691
4.26987
0.0260639
5.99082
0.0220338
4.57577
0.0222284
0.0241371
21.3694
4.09051
3.59647
0.343144
0.0219257
0.149803
6.36441
0.169032
0.155684
0.043849
0.0466416
0.0220821
0.021884
0.0445176
0.0218851
4.04732
0.0241322
0.0219379
0.0307499
0.0218949
0.152824
0.0582816
0.124933
0.0291371
0.0217883
0.0218211
4.69925
4.76501
0.216221
0.0218391
0.0221261
3.13811
0.247676
0.124107
0.0219237
0.0548649
3.2696
0.0431721
0.0258494
0.0304493
4.39148
3.50014
0.0626655
3.64104
0.0648846
4.13545
0.0359624
0.0428632
0.307108
0.0226739
0.0220338
0.106908
6.73231
0.0234818
0.0216937
4.14354
2.82229
0.0573261
0.155429
0.147156
0.0622249
0.240735
0.0223
0.0220616
0.0221016
3.93285
0.0396736
0.0234771
0.0222429
2.67488
0.0436699
0.13546
4.4113
2.9435
2.99551
5.41457
0.0302845
5.69216
0.0221019
0.0217914
0.0538848
0.0221391
3.70418
2.08851
0.167148
0.0217792
0.0311256
0.163873
0.239272
0.531666
0.0293617
0.0428486
19.5917
2.79035
0.125544
0.0295986
0.0222285
0.0218333
6.0764
0.0396338
6.1179
0.0257189
0.023341
0.148063
0.121527
0.02216
0.0222015
0.0714309
0.310759
3.53828
3.48577
0.0346344
2.64777
3.44796
0.0237872
0.0424008
2.88502
0.0251621
0.148889
0.0221086
0.323559
0.0222343
0.0428951
0.0243758
0.0221021
0.225413
0.0222109
3.85882
0.0217775
0.126161
5.37128
3.66221
0.0292847
0.0429446
0.0222637
0.0934059
0.022012
0.0423624
7.92968
0.029256
0.0251456
0.0221189
3.40353
0.0217806
15.1821
3.46279
0.147459
0.0222513
0.970901
4.67435
2.94229
0.14174
0.0315524
0.141986
0.202322
0.0313069
0.319352
0.0325154
5.41519
0.125827
0.021855
0.025528
0.152879
2.6478
4.06371
0.0218295
0.130396
0.0220306
0.190447
0.241802
0.0258736
0.0442377
0.130353
0.0219862
0.0450639
0.11039
4.81626
0.0220817
0.0220971
0.0294317
3.16654
6.25311
0.0428183
0.0218559
0.242084
0.240474
0.109105
0.0436548
3.08789
6.56775
0.0262294
0.0318879
8.21069
0.0218753
0.0221011
0.112726
0.0543273
0.0217795
0.0222316
0.0220041
0.022
0.0313519
0.0220944
2.88033
0.0403621
0.0219894
2.63889
3.20457
0.0222173
0.128365
6.77466
0.0227824
0.0222405
0.0421425
4.83904
7.15989
0.0589212
0.0220726
5.67196
0.0220942
0.063907
5.328
4.7514
0.0233735
7.12536
1.46339
4.12727
0.144922
0.0460664
3.82802
3.08307
5.1851
0.0222664
4.88386
19.83
0.775875
0.707869
0.0238055
0.0584352
0.0297158
5.31349
0.0498982
0.0218765
0.0215789
0.0270943
3.9865
3.21842
0.0218677
3.5759
0.0299732
0.0307308
0.0235957
5.97547
0.238472
0.150661
0.0241317
0.0247095
2.61593
0.0222402
0.253623
0.0261418
0.0420787
0.0305413
0.02203
0.0219855
0.143367
0.18482
0.1268
2.42081
2.64854
0.0235513
3.38507
0.251953
0.0217476
4.7755
0.083157
5.23985
0.0265727
0.067655
3.04082
5.47408
0.137068
4.63667
0.0226383
3.01558
13.9558
0.0292186
4.18717
0.0314279
3.6135
0.0315086
0.0381438
0.126549
0.244923
0.0220642
0.0258693
0.0583428
0.0313319
0.0219163
0.0431664
4.50159
0.0220274
0.0425384
5.39045
0.0239337
3.28327
0.041634
7.5179
0.0256162
0.0592498
2.00119
0.252312
0.04389
4.95279
6.14117
0.853707
0.0219927
0.138933
0.0316529
0.0664278
0.0218504
18.9256
4.62314
6.11556
0.0246623
0.128902
2.08151
5.88566
0.0216437
6.35861
0.277964
23.4439
0.0334726
5.80389
0.0220458
0.0221267
5.68399
2.0107
0.0220441
0.0240823
0.0432685
0.0218224
4.81788
0.0587162
0.0815611
0.0253443
0.0226516
0.0222147
3.8191
0.0219855
0.0221918
3.67029
4.61719
0.0254793
1.40422
0.0221044
0.0220933
0.0242325
0.129871
0.0414098
0.0219268
0.0228514
0.202256
0.023267
8.25737
0.0220743
0.0267956
2.92477
0.0355021
0.0216201
0.0221194
0.0252853
0.0222903
0.855521
3.49232
0.0317802
8.15131
0.0242662
0.0220547
3.15399
2.70292
0.0354059
0.0220479
3.0756
0.0347671
5.11569
0.0220832
0.0306284
0.141047
0.032758
3.11482
2.32635
5.40801
0.0238366
0.14983
0.0219838
2.66046
0.0414867
0.1211
0.0314342
0.0239335
0.0354456
0.0544059
0.0220942
6.18193
3.09796
8.6175
5.65816
3.56677
4.14905
0.252619
0.0282339
0.0222064
5.49066
0.0220478
0.0219147
0.0302999
3.74702
0.0238535
0.0226733
0.0856722
0.0442894
0.022053
7.186
0.0219292
3.33638
0.780757
0.0219491
0.0233455
0.285241
4.88372
0.0217845
9.77356
11.1868
0.0217463
4.09318
0.314113
0.124796
0.0238114
3.71723
5.19995
0.0217635
0.307604
0.0221285
0.0219298
3.55171
3.6703
0.0364302
0.0406045
0.0220494
0.0525761
3.34239
3.83214
0.0218511
5.38746
0.0219239
0.0221428
0.0442937
0.0268413
0.0216389
0.0237103
4.13758
0.230143
3.96725
0.023571
0.0220268
3.18705
0.0221778
0.139954
0.026734
0.0311466
0.0314617
3.14917
5.27949
0.0255557
6.45531
0.0231847
0.0587436
2.78884
3.60902
0.0221241
0.0219888
0.0467746
3.97474
0.875139
0.0516743
10.5876
0.0269716
0.030746
10.5798
7.27025
0.150377
3.25787
0.193056
2.72569
0.0224501
3.54303
5.20946
0.022076
15.5305
5.93075
0.0302764
0.0428463
0.0220779
6.71848
0.0734028
16.0751
0.0219871
0.0221657
0.0267047
0.0436701
0.0220841
3.63551
0.02216
0.177706
0.0238964
0.0679092
0.0220779
0.0220534
0.0453543
5.67474
0.0438807
3.58113
0.0306674
0.0218314
0.0218005
0.0544622
0.0228484
0.0903803
0.0242383
0.034851
3.46574
0.0221798
4.88518
0.0222534
0.0939809
5.56589
2.99183
0.0285007
15.8979
0.0831714
0.247263
5.74573
0.0219109
7.05669
0.0299622
0.0300679
5.46413
2.55972
0.0217588
0.0881865
0.0221416
2.65351
5.99772
0.0222197
0.0711663
4.99261
0.0222631
0.0222517
0.0637786
6.05995
3.8071
0.0222468
0.12661
0.0230847
0.022052
3.52103
0.12838
0.156751
0.0216244
0.110505
0.0461302
0.0550634
0.0227156
0.0231896
0.0694547
0.0265396
0.122752
0.0457555
0.0458325
0.124603
2.62582
0.320931
4.0699
9.31394
0.147413
3.4674
0.0394096
3.53335
0.129192
0.0219238
0.0301832
0.261285
0.0265618
0.021955
0.0219514
0.0938624
5.33733
0.0269304
3.37438
0.021835
3.81198
0.141899
7.23629
0.0879067
0.0257363
0.0239323
5.917
0.155787
0.0378342
2.31873
0.0225136
4.24842
0.094662
0.183611
0.0311352
0.436056
0.0220427
0.022245
0.0234873
0.0220513
2.78375
0.0219999
3.35831
3.10398
0.0901837
3.86452
5.60841
0.190079
0.264827
0.0287878
0.0221805
0.0220822
0.0217066
0.0217987
0.0221411
0.0590947
0.145642
0.0498123
5.07141
0.0230848
2.8631
0.0222934
4.63579
0.0393229
0.0222834
0.0221337
2.99149
0.0258023
4.09863
5.8987
0.0411585
0.0609127
0.021732
3.49165
0.0243587
0.0238862
3.48167
0.0221836
0.0226697
0.0218863
0.0414772
4.9448
0.0284497
0.0313612
0.303644
3.7104
0.0293086
0.0267206
2.78276
0.021704
2.73602
0.0222021
0.0232789
6.11148
0.0736926
0.122137
0.0843265
0.0441302
0.0222269
0.0222935
0.063082
0.0224995
0.0222346
0.027408
0.291787
0.0219835
0.229291
2.47477
3.99807
0.0831267
5.44771
0.036686
0.0221759
0.134934
0.0218471
0.0259028
4.1607
2.63749
7.10857
2.88575
0.0222919
0.0221963
0.0679623
0.0230415
0.0218504
21.9844
0.19954
4.0128
0.095529
0.075209
0.0220537
0.02179
3.65947
0.0817608
0.0235385
0.0222531
0.122474
0.171379
3.43614
0.0222857
0.0221514
6.0862
0.0226923
0.0314499
0.021827
3.7834
0.0219234
4.98832
0.0220748
0.132583
0.0363546
0.0685537
0.0313065
0.022032
0.0241061
0.0220217
3.27516
0.0226964
3.27142
0.0225796
4.60824
3.17163
0.029854
0.0220032
4.80573
3.57527
0.0259561
0.0735031
0.0220789
5.7709
0.0219442
0.262554
0.0220632
0.0220185
4.07851
0.0316016
0.0221093
0.0302198
3.32686
4.99383
4.9091
0.0218322
3.25946
0.022074
0.0219908
0.0222982
0.0215389
0.0222325
5.06638
4.24251
0.0222194
0.0221561
0.0366348
0.0218951
4.73563
0.138149
3.98672
3.91896
0.024068
0.122188
0.0220688
0.0385622
0.114242
0.0218962
0.0222103
1.12627
5.8104
0.0593411
15.3496
0.0557617
0.0221014
0.038595
0.0748689
6.68835
0.0303412
3.91083
0.0839097
0.0222234
14.7839
13.8013
3.7544
5.41507
3.52327
0.0237761
0.137642
0.02219
4.04574
0.0260473
0.0218785
4.88616
0.0229903
0.0220044
0.0221225
0.022855
3.66351
0.254556
0.0218724
0.0390897
4.72062
0.0231139
14.6573
0.0232835
0.0702262
3.64088
0.0220972
2.29895
0.02891
0.0310391
5.78826
0.0229729
0.313747
0.0584524
3.4785
0.0222224
3.77334
0.0289847
3.45388
6.816
4.94754
0.0411698
0.0220477
0.0222967
0.022263
0.036517
0.0221237
3.15992
0.0284691
0.027989
0.0290592
0.0237061
0.0218302
0.0261314
0.0269373
0.0233463
0.0267077
5.17423
3.21922
0.0283876
0.0485576
5.0222
0.0227235
4.02785
0.0217125
0.0326326
0.0227057
0.0219481
0.0437144
0.0220494
0.0218676
0.0455891
0.0220685
0.274525
0.0227016
16.3474
3.89834
0.20502
0.258162
0.0220787
3.73732
0.145884
0.0222257
0.0268729
0.0225862
4.21676
0.023265
0.0447864
4.8124
6.03324
0.0774609
0.0221411
3.07983
4.55544
3.51104
0.028862
0.0218228
0.0218383
0.0590239
0.0220469
6.34754
0.144088
0.0221968
0.251286
0.282254
0.0218724
5.36499
5.51773
0.190542
0.0226673
3.0784
0.05868
0.0220202
5.29066
0.0265374
0.0218547
0.0219414
0.0301329
0.0367717
2.95074
5.06962
0.0377404
2.99561
0.0315015
0.0220251
0.0848713
0.0219574
2.05095
0.0218645
0.022046
0.0239557
0.0224589
3.1353
4.82303
0.308608
5.47901
6.97403
0.0291738
0.0220349
0.022707
0.328543
0.0218507
0.0219536
0.0412979
6.84234
2.92175
0.0216969
0.0380153
0.03149
0.124323
14.8015
0.0217438
0.0216287
0.0233175
4.79321
0.027361
3.34467
0.0231808
0.0221628
0.0218577
0.0219351
0.0243343
0.185773
2.76675
2.92469
0.0290731
0.022055
3.1259
0.0222938
5.96801
4.06475
0.0305136
4.76091
2.7438
4.77221
0.0491221
0.0301549
3.04667
0.0291218
0.0334633
0.0699202
0.251865
0.0224653
4.87098
0.0220278
4.11644
5.53189
0.021716
0.0239079
0.0445664
0.319298
0.0314213
0.0221425
0.0268985
0.0233077
0.0251316
1.0821
0.0221621
3.5122
4.96339
0.0220312
0.0293441
0.036415
0.0220819
2.59918
12.9209
3.77376
2.81358
0.0220379
0.0244532
0.0260648
0.0223046
0.287999
0.0317203
0.0222566
0.055431
0.025948
4.6132
0.03643
6.05075
0.0231919
0.0231417
0.0509813
0.0820597
0.0635321
0.0219898
14.2034
3.3297
24.6668
3.87335
4.06538
2.93596
3.59504
0.0219929
0.0220276
0.0220137
0.578055
0.0407304
0.0633211
6.5407
0.0221661
0.021683
0.0220474
0.517675
0.0216852
0.0258557
0.0236345
3.84689
0.0229775
0.0218545
0.0220858
0.0219814
0.0221628
0.0341839
0.303045
0.0335817
5.00848
0.0220346
0.0219357
3.26304
3.31065
5.91847
3.8979
0.0478576
3.77362
0.0218184
0.0591028
0.0231466
0.02208
0.0238755
4.53322
0.0228887
0.0830063
3.52701
0.0222184
0.0219372
0.0264825
0.197112
0.0222717
3.83159
0.0219982
0.185033
0.0221267
0.0222179
0.0260133
0.0944023
0.0221405
3.5259
4.02694
0.164902
3.54913
0.0220467
5.57792
2.92555
0.0220491
5.51732
0.0222943
0.0423858
0.0222321
0.0221254
0.0219608
0.0220523
0.0224207
0.0273291
0.058626
0.0221971
0.0220985
0.0617702
0.0217418
8.14216
0.0221274
0.0302265
0.0313716
4.24921
4.84016
0.0221466
0.197774
0.0218221
0.0288768
0.0658766
3.86398
0.0429485
0.0222722
0.105958
0.0756408
0.0740834
1.58237
0.0353729
0.131476
0.0515577
0.0597237
0.0229331
0.0218503
4.03746
5.12595
0.0243365
0.0220165
14.2985
0.0218378
0.0382348
0.0219604
0.0765128
5.88022
0.0215847
5.7095
0.0255124
0.0221703
0.163769
0.0218789
0.0408526
2.71194
0.0366263
4.03166
0.0219556
0.0222646
0.0441488
0.0222252
0.0222467
0.0267941
0.0282884
0.0590573
0.0795372
0.0221064
0.0379844
0.0218385
0.022062
0.0222143
0.0220517
1.22187
0.0218914
0.0233217
1.07199
0.0218332
0.0220049
3.248
0.0222498
16.0626
0.0230383
3.34508
0.232631
0.0515708
2.87497
0.0600583
1.83024
0.0223425
0.180119
0.0264339
0.0218394
0.0219009
0.0233064
0.0293243
0.021972
0.0511984
0.0219055
0.0231232
15.3388
6.62954
3.70385
0.0238163
0.0465462
4.22926
6.15437
0.0221719
0.0256229
1.76878
0.022155
0.0379269
2.52945
2.9314
0.0262115
0.0387877
0.0227658
0.299854
0.0222849
0.0354731
5.63012
0.0221854
0.0218825
8.28662
0.0407197
0.359205
3.63872
0.0941857
0.0224495
0.0219095
0.0222452
4.17803
4.54375
5.07814
0.0523889
0.0220515
3.82724
0.02211
0.148499
0.0268064
0.023125
0.0387887
0.0220574
5.70429
6.93964
0.0217217
0.0594389
0.0418546
2.75989
0.0411822
0.0513265
0.334391
0.0313817
3.15942
0.05347
0.0221127
0.032632
0.0819497
3.69991
0.0220338
3.85621
0.043373
0.0544517
0.0222725
6.97141
0.0253908
0.0236035
0.0218586
0.0376968
0.0365102
0.0548828
0.0221273
0.0226746
0.0540166
22.3094
0.0560919
0.022157
0.0226789
0.0325424
0.213166
0.0221708
0.0814385
7.38296
0.0461084
3.12219
0.0362448
6.74392
0.30937
0.0219931
1.69221
0.0222385
0.024743
0.0303389
0.0319187
0.0887715
0.0415924
0.0418778
0.0436298
0.0296297
0.0240475
0.0216791
0.0819316
0.0248656
0.0286938
4.51269
0.0257395
0.0299776
0.0219479
4.28779
0.0758584
0.022104
0.0242412
0.0233579
4.95932
0.140191
0.0303297
2.88169
1.4189
0.837481
0.0822386
2.7468
0.0218942
0.307967
0.0219486
0.0270233
8.20111
2.58785
0.337409
1.35483
0.0221223
6.02945
0.0218914
0.0732404
0.0250756
3.6999
4.92446
0.025304
0.0220232
0.310183
0.043653
0.0220199
3.84004
0.0220727
0.0236889
0.0248579
0.0222275
0.0294465
0.0234291
0.0220512
0.0337841
0.411619
0.0363627
0.0561975
0.0220162
5.53489
2.62449
0.0220044
1.33627
0.0250212
0.0292217
4.84578
0.022001
0.0227196
0.0278709
3.57472
0.0220298
0.0221826
0.0366547
3.48717
0.0219877
0.0318668
0.0336443
4.36306
0.0428944
0.0364861
0.250111
0.0220776
0.116822
0.021728
5.61199
0.0289507
0.0220515
0.026101
0.0864536
0.0221504
0.0221323
0.129231
3.04972
0.0222818
5.09047
0.0221873
0.0217193
0.0574685
0.0220332
0.0218902
6.14945
0.0222734
0.0365803
0.160883
4.31269
3.64785
0.0218383
0.0240969
0.0281319
0.0220742
0.0220465
0.0220951
3.6214
0.0221945
3.11427
0.108902
0.0218776
0.0217527
0.0287436
0.109302
1.25142
0.0541524
0.0566448
0.0237572
2.86928
0.0730488
0.0288042
0.0367124
0.0625601
0.0823087
19.3743
0.0350218
3.12201
4.63555
5.69033
0.024199
0.0219672
0.0355873
0.034277
0.0218247
0.0222893
0.124885
0.0222432
0.0222838
0.0220504
0.0216269
0.0232588
0.0220307
5.74817
0.0220201
8.62493
0.0220817
0.0833703
0.0224991
0.110662
0.0747389
0.0220517
4.14558
0.0240776
0.022225
0.036063
0.0218289
0.0306008
0.0219644
2.8683
0.0240477
0.0383001
0.104938
4.20469
0.02806
3.14799
4.03311
0.0489597
0.0220777
0.022819
0.104792
0.0573572
6.17749
0.021784
5.00026
0.022097
0.0878266
8.54006
0.0342932
3.62941
0.0250129
0.0303015
0.0247144
6.7177
0.0299123
0.022142
0.0472206
0.125918
0.0232574
0.0220395
0.0221431
4.0288
0.0222517
0.0273103
3.37321
0.0258892
0.0219909
0.0539936
0.0246984
4.46562
0.0216828
0.022022
0.0218685
0.0261975
0.0223269
0.0220932
0.0557875
3.16322
0.0219737
0.0221043
5.03834
0.0221973
5.36369
0.023434
6.58141
0.0218655
0.0242725
0.0218205
3.27895
3.56891
0.0300154
0.0692535
0.0270529
0.0219538
0.0221181
2.92928
0.0221368
0.0730318
0.0218374
0.0383562
0.022189
5.06025
0.0218442
0.0401544
0.0218758
0.453347
0.798615
0.0218116
0.0432579
6.40589
0.0590727
3.8962
3.64208
0.218082
0.0234785
0.0316615
0.0836129
5.03376
0.0221513
0.0347987
0.0281655
0.0219848
3.42023
6.33363
0.0599774
0.141108
0.30526
0.0323587
3.19811
0.0218197
0.0218066
0.0883007
7.37812
0.205477
0.142378
4.41264
0.0218197
6.99769
3.14302
9.31351
0.0222026
4.63919
5.10156
0.860636
3.78014
3.00988
0.0755199
0.0291424
0.152973
0.0256835
0.0219811
1.34227
0.0811645
0.0216649
4.05525
0.0221878
0.0290771
0.0380776
0.0267347
2.26987
0.0346616
5.67276
0.0397171
0.0262821
4.62384
3.8606
0.125006
0.0224081
0.0259131
0.0638091
0.0569034
0.0218378
0.0436801
0.0611101
0.129842
0.0219815
0.177149
0.024244
0.0474171
3.72583
3.24461
0.0231465
0.122303
4.05295
0.022186
0.022773
8.65154
0.294057
0.0240977
0.0242989
0.0220904
0.0703013
0.0247722
2.74449
0.0886094
0.0225486
0.0222232
0.0656387
0.0290613
2.50132
5.5187
0.0218825
0.0220327
0.0271086
0.0221941
0.0239041
0.0228749
0.0226752
0.0258699
0.0219409
0.0247221
0.0222042
0.0418818
4.9557
0.022264
4.90892
9.51378
0.0217277
0.230154
0.120749
0.0791824
0.0227548
0.0809082
0.0261769
0.0790168
0.0281913
0.0231363
0.0222093
6.09835
0.026824
3.99572
0.0227451
0.0220413
0.0220212
0.0669849
0.0219672
0.0442341
0.0534385
1.47798
0.0219199
0.778832
3.8627
3.25432
0.0218125
0.125541
0.956283
4.12189
2.82149
0.0225945
0.0222735
0.144466
4.3115
3.96454
0.0365441
1.966
0.0222315
0.0218581
0.0393058
0.0221952
0.0221498
0.14469
0.0222651
0.0895333
0.0218571
3.78842
4.61992
4.63503
3.76521
3.39959
0.0221427
0.0221443
6.17675
0.0217968
0.0218213
0.0217205
0.112465
3.62476
5.65316
0.0275661
0.022091
0.0230723
0.0367886
4.5403
0.0220371
3.68236
3.89108
0.0221881
0.022178
3.3166
0.069339
0.0230773
0.0220414
5.01173
3.56532
0.0219945
0.200489
0.0222533
3.16454
2.70427
0.0232677
7.8246
6.03338
5.14083
0.0218439
0.0221475
0.0222444
0.0222862
3.38877
0.0219175
0.21511
2.74799
7.41013
0.0225943
0.0540858
1.25382
0.0443282
6.12828
3.99745
0.0216577
0.0249758
0.0251118
0.14219
3.1904
0.0216136
4.75083
0.0317528
0.0382086
0.0227688
0.0219485
0.254943
0.0374368
4.7877
0.0221951
0.0510119
0.0225131
0.111483
0.0238643
3.10727
4.57557
0.241011
0.0876472
0.021974
0.0238185
0.0754952
0.211325
3.12311
6.20913
0.0221494
3.76649
0.090921
4.28354
0.0258255
0.0403008
0.0363516
0.0220822
5.11258
0.0220688
0.0303891
2.92236
3.66037
1.16893
3.51657
0.0279076
0.0434407
0.0217712
3.8252
0.0269723
6.60907
0.0217618
4.41727
0.0215898
0.0220009
0.0300561
0.0313337
0.0323151
0.0219861
3.03094
0.0391103
0.0219208
0.0358278
3.30527
0.532499
0.0220414
4.30227
0.0242186
0.0315067
0.0299961
0.0217096
0.0569336
0.0219941
7.70275
0.0773376
0.025898
0.0220302
0.314651
0.036232
0.0217614
4.82555
4.69999
0.234175
0.0217068
4.14203
0.0221406
0.130581
0.0264575
0.110428
5.23135
3.18481
0.034795
3.51789
0.0473027
0.0282435
0.0218343
4.67332
0.105906
0.0913304
0.0616183
0.0222434
3.61511
0.0783227
0.323109
0.86176
5.89072
2.99
3.58463
4.23708
0.0287402
0.0315674
0.0220954
0.0220709
0.0216305
0.168491
0.0287097
0.0329703
4.22792
0.0219412
0.0218621
0.0371505
0.12643
0.0267388
0.0218286
3.5945
0.0239484
0.0417708
0.0222259
5.04629
0.0287034
5.04227
0.0551224
0.0316202
0.0493586
0.0220885
7.32802
0.813976
0.0619834
0.0220553
0.0219117
5.76644
4.23082
2.6366
0.0218679
0.0631577
2.91623
0.0220475
0.0220072
0.0220949
3.5162
0.0984806
0.033507
0.0262541
0.0252873
4.14019
0.0823018
0.242204
0.0255219
0.0303635
0.0216222
0.116464
0.0511439
0.0220187
2.91769
4.04025
3.25976
3.10975
4.66188
8.08431
6.08527
0.0231994
0.0218635
5.46739
4.1536
6.62759
0.0220811
0.0362869
0.0220536
0.0219699
3.55495
3.76661
0.0554979
0.0220026
2.0353
0.0823086
0.0438257
3.53968
2.49793
1.55383
0.0219168
3.10381
3.57863
0.308315
0.0299875
0.0382579
0.0221952
0.0218794
0.0358118
0.041342
0.024269
0.0362319
0.0267065
0.0249097
0.51035
3.37185
0.0313947
0.0378109
3.30406
0.192805
0.0221128
0.449548
0.851082
4.05186
0.0379472
0.0221273
0.0280913
0.0263103
0.0300163
0.021708
0.0333825
0.0292557
0.0407547
0.212357
0.0222305
0.0229525
3.07195
2.94834
3.78727
0.900348
0.104407
0.0215732
0.0220504
0.0288283
0.021763
6.2027
0.0220427
0.0222731
0.0217437
2.86158
16.5967
0.0224514
0.054796
0.0275991
0.034985
0.0286259
0.0352434
0.0362591
0.0349429
4.46667
0.0254452
3.85983
0.036711
3.82459
0.0282144
0.0219364
0.0218293
0.0837207
0.129775
0.0218315
0.0387041
0.0283305
0.0532127
3.75555
7.41478
4.39155
0.0222729
1.75345
0.0293936
0.0351059
0.0220306
0.0615994
0.0236533
3.12503
1.81734
0.038144
0.0220786
2.94137
0.0274001
3.54926
4.25224
0.741064
0.024155
0.114047
4.28063
1.78323
2.95125
0.0537935
0.0219532
0.0372815
0.0218673
8.89495
0.0245378
0.0302506
2.59464
3.87889
0.0219231
0.0219667
3.79582
0.0384114
8.18973
0.0329303
0.0220418
0.0389202
0.216288
0.0434158
3.8503
0.0343906
1.64395
0.0247119
0.0222442
0.0219512
0.244225
0.0227102
0.117709
0.0220569
0.0220132
0.226617
0.0253381
0.0220875
0.0220366
0.033545
1.53135
0.0381984
0.0359473
0.026442
0.0541785
0.0220493
0.139547
0.0289735
0.0388019
0.0691954
0.0267037
0.0812172
0.0449171
0.0218485
0.0585095
7.0005
2.71089
0.0220979
1.5506
3.51637
0.0219712
0.0227162
0.740756
3.46447
0.0280129
3.42517
0.328738
0.0220441
0.0741719
0.021628
0.0253172
0.0542865
8.97426
0.467566
2.41782
0.987223
3.03711
3.09335
0.0231369
2.97796
0.0220389
3.52747
3.20419
0.0220993
0.0220831
2.85991
0.0221326
0.0220853
0.539725
3.33837
0.209039
0.0253456
3.36567
0.0221036
3.07378
3.14994
0.02219
3.62742
3.99307
3.71533
2.95138
3.05239
3.07349
0.0218836
0.023269
0.0543492
0.0564285
0.02208
0.174298
0.0220414
2.95769
0.58136
0.0488926
0.431105
2.88521
0.534671
0.249276
0.060107
6.76276
0.403096
0.0246509
0.0216634
3.66916
0.034332
0.0217925
6.67885
0.0219813
3.76362
0.0221622
3.58427
0.0247878
0.0219838
16.8664
0.0276042
0.0352667
3.14724
6.22658
1.66258
0.0264987
0.0404253
0.0233505
0.0357066
0.113004
0.0362619
0.0222097
1.4247
0.0539338
0.0321751
3.39197
0.0366315
0.0364906
0.181181
0.0644
0.0397815
0.0219794
0.178033
0.0218285
0.112433
3.44011
3.6594
0.0218762
0.0360202
4.34917
0.0230418
0.0577838
0.0291912
0.0383746
5.36361
0.0534555
0.0235083
13.3093
0.0218864
2.93588
0.0221246
0.0228542
0.111116
2.65852
0.031352
0.380559
0.513987
0.0292955
0.022189
0.15437
0.041074
4.07983
0.0266726
8.96864
0.128687
0.0292381
0.0281314
0.0957978
0.0350109
0.0736718
0.0532119
0.0375659
0.0240458
0.0220893
1.57421
0.0220192
0.0276699
0.021642
0.0980218
0.0279197
0.0527681
3.20406
0.0230894
0.211371
0.0215545
0.022174
0.0221882
0.0222065
0.0256263
0.0219431
0.0755541
6.61506
0.0522139
0.0405093
0.0244603
0.0220451
3.13748
0.0220387
4.30928
4.81225
4.31668
0.142013
0.0333916
0.0261361
0.0221769
0.0296873
0.0944423
0.0397574
3.41037
0.051727
4.74908
0.149356
0.02221
0.0218471
2.76485
0.0219587
0.0282184
0.0645191
0.310028
0.0230948
3.31841
0.0221737
0.0254242
0.0220556
0.0226626
0.159553
0.0975268
0.022213
0.0301695
0.035182
0.0410114
0.0507902
0.450588
0.318075
0.237501
0.132971
0.0253484
0.0229017
0.0502915
2.64517
5.98257
2.94663
0.0296697
5.68242
0.0968341
0.0226747
0.0219948
0.0553755
0.0221433
0.0301109
4.95879
0.0219682
0.0218299
0.450526
3.50275
0.0419181
1.05371
0.0221337
4.67067
0.0393055
3.86103
0.0294782
0.0220472
3.07867
0.0599451
0.022039
0.0686169
0.0222524
0.1417
0.0279748
0.0561962
6.72044
0.0333775
4.94345
0.0219342
4.95024
0.0221455
0.0255601
0.0224722
0.0426161
0.0221435
0.054415
2.88015
0.90247
0.0442001
0.0311944
0.0762214
0.0219148
0.0219724
0.022884
4.15381
0.0247504
3.75206
3.85622
0.125413
0.0222147
0.12882
0.197674
0.129362
0.0251788
3.97566
0.0219827
0.0215754
0.0219664
3.93397
0.0220749
0.0220234
2.95258
0.0219778
0.14406
0.0965382
0.0218248
3.13967
0.0268764
3.56316
0.021938
4.53926
0.0227769
0.0709054
10.3193
0.0572398
0.0219489
0.0261759
4.41425
0.0299978
0.131751
0.029291
0.025878
0.127934
0.0287515
0.0221986
21.0468
0.0282757
0.0269243
0.145681
0.021977
0.0218705
0.0221889
0.0290727
0.0221457
0.0257273
4.95372
12.7703
0.0993149
6.76013
0.054679
0.0318781
3.98772
4.40836
0.022477
7.94398
8.70465
3.20297
1.68405
0.0295581
4.44734
3.03315
18.0015
1.71338
5.7048
0.0423128
0.0808271
0.0293599
0.0252504
0.0221537
1.10156
0.0222849
4.62155
0.118714
0.298579
0.021625
0.0645522
0.0452379
0.0236687
0.0222931
0.0221184
0.117729
0.0233249
0.0222272
0.0366765
3.83086
0.023918
0.138392
0.0218358
0.121151
0.0808743
0.0221806
0.026433
0.021946
3.59735
3.33076
0.147647
4.80168
0.0325791
0.0764681
0.0221321
0.0372553
0.0220558
0.0222982
0.0222327
4.1075
0.0217945
0.0412682
0.615604
0.0274612
0.0291288
0.022
4.39354
0.171135
15.0552
3.77372
0.147614
0.289485
3.60529
0.313088
3.36595
7.51546
0.119405
0.0344773
2.24799
3.99604
0.0220456
5.35463
0.135937
4.60131
0.0216405
0.0548657
4.4911
0.0222729
4.47118
0.0255017
5.63176
0.0220918
0.0221172
0.0604884
0.206735
0.025805
0.0567272
0.0218201
0.0221291
3.03571
5.10961
7.4219
0.0481981
0.0221863
0.0224743
0.0221352
0.0354925
1.00472
3.3394
4.55719
2.86698
0.0305568
0.0219538
0.0219834
4.98785
7.21539
0.253879
0.0264609
0.0245513
0.0812331
4.8904
6.55272
0.0215733
0.0219601
4.21275
0.0229523
0.228065
0.0278742
0.0220795
0.0317647
0.0459274
3.83349
3.87552
0.0222021
0.0218306
0.0244827
3.17708
4.43022
0.0222647
0.116766
3.62197
0.0215777
3.51355
3.1486
13.4374
0.0221107
5.89433
4.10489
0.0379973
0.282951
0.0241834
0.302017
0.314874
0.0249733
0.0219473
7.5003
1.4735
0.0219241
0.128749
0.124297
0.0284241
0.24358
3.8008
4.47095
4.12021
0.0268913
0.0236528
0.0229693
3.34662
4.19149
3.96003
5.49785
3.82501
0.0217537
0.0397741
0.0220674
0.022115
0.0247432
0.0219673
0.0220592
0.0223628
3.33798
10.3277
5.93553
0.0553741
0.168375
0.0362897
0.0218659
0.0219873
3.67437
0.0221381
5.08771
2.89044
0.0221786
0.0219095
2.74077
0.0225394
0.462051
0.0253408
0.0217644
0.021751
3.6327
0.0217073
3.84594
3.46634
0.0216118
0.0418121
0.0219267
0.0228504
0.021912
0.103155
4.13425
0.0219706
3.7723
0.41261
0.0239642
0.0219031
0.0226709
0.0234478
0.0222257
0.427794
4.46185
5.34954
0.0371137
7.27203
0.0222723
0.0252487
0.0221925
0.153899
0.0233931
4.36471
0.0218654
3.37299
0.602881
4.92913
0.160348
0.0218617
0.0402095
0.0219253
3.45645
0.022058
0.0279691
0.0258969
0.0250796
0.0221416
0.0222509
0.0322293
3.80773
0.0222092
0.0227826
0.0237272
0.0331076
0.181674
0.0221874
5.27876
2.87494
0.023679
3.67647
4.39264
3.66189
5.85193
0.0215795
0.0230398
3.84258
3.12698
0.122907
3.05959
3.33986
0.0318263
0.0441166
0.0291221
3.67634
0.0220357
0.0219659
5.05876
0.113498
4.83762
0.0244258
0.0217561
0.022045
4.69364
0.0630851
0.024312
0.200119
0.0218603
0.0553707
0.0289288
0.0291567
0.022032
0.0221881
0.021922
0.0243734
1.14892
4.23291
0.0216182
0.0219243
3.69448
0.0220761
0.0611612
0.0260993
0.0256614
0.0353581
0.0222856
3.5379
0.0284444
0.0253728
17.6897
0.075897
0.0232257
0.0309827
0.0220357
0.022479
7.58419
0.279315
2.80831
0.0222759
0.0221534
0.0553248
0.0271515
0.0220302
0.0358998
3.92824
0.0255682
0.0386538
0.0252036
0.110437
0.0221161
0.0217678
4.62629
5.01405
4.94713
0.021978
0.141301
0.0216879
0.0220219
0.0638785
3.42205
0.06043
0.0273486
0.141998
0.0227449
0.0284374
0.0516064
0.708796
0.0222922
0.0216693
0.0225928
0.0245795
0.0264235
0.0219606
1.0245
10.6698
0.022113
0.0317685
0.0224543
0.02172
2.9295
5.27664
6.14472
0.0697619
0.0224147
0.0510894
3.87921
0.0877031
0.0954355
0.0335652
0.0295669
4.38283
0.227684
0.594177
0.0217747
0.0302858
0.022129
0.0292103
6.70676
0.0216528
0.0392953
0.0255393
0.0295036
0.0230528
0.0218389
0.0218816
3.12369
0.0415847
0.0291193
0.0596334
0.0342785
6.25712
0.0308928
0.448781
0.0219284
4.55538
4.06063
6.47324
0.0222645
0.0301342
0.0220844
0.0219696
6.05566
0.0417359
4.6226
0.0219952
0.0445555
0.141848
3.39949
0.0279763
0.0217086
6.30134
0.022285
0.0222841
0.022589
0.0220348
6.53852
0.0218374
0.0218817
0.0355416
0.0272128
0.129805
0.11708
0.0331107
3.30049
0.0220535
0.148758
0.0218374
4.50236
0.0330357
0.407154
0.126685
2.18775
0.0992165
4.23027
0.0230136
5.68995
0.0321683
4.42169
0.17069
0.0280487
0.186371
0.0221672
7.80352
0.0230445
0.0360267
0.0270741
5.0279
0.141639
3.95689
0.0307411
0.0220208
4.26066
0.202239
0.0518803
0.129244
8.32846
4.43089
0.0380322
0.228645
0.0388056
0.0218855
0.0457585
0.219503
0.0649727
22.4743
0.107541
0.0218217
0.0219797
0.122803
0.0220859
5.17558
0.0679769
0.0220855
2.86242
2.13005
3.58059
0.098058
0.022031
0.0288961
0.0258016
3.78224
2.77398
0.0257549
4.66878
0.0218933
0.0314868
0.753467
0.0220041
0.0376704
0.0219312
0.0258002
0.0222512
0.151551
3.84035
0.0300478
0.0291169
0.0217469
0.123392
0.0219053
0.0218354
0.0326815
0.0219251
0.182326
4.23683
2.05581
3.27354
0.0218019
5.01642
0.0221886
0.0372108
0.115708
0.0220897
7.46865
0.0652519
0.0220522
0.0217065
0.0386111
0.0367717
0.16121
0.794009
0.0258799
0.0238352
3.15502
0.0558928
0.254047
0.649385
10.681
3.51427
4.69818
0.87444
0.022173
0.0221143
0.0446316
0.0222303
0.0476339
0.0352004
5.58543
4.96537
5.59242
0.0217497
0.0218085
0.106948
2.83057
4.09569
0.938549
2.76133
0.0559592
0.0326368
0.861164
0.659326
0.0259001
4.03426
0.0329325
0.0290673
3.85873
0.0384592
0.0220231
4.27179
0.727675
0.0243523
0.122438
0.0237265
3.14781
4.86181
5.87696
0.0220171
0.0217054
0.123541
0.022018
0.0219565
0.0220209
0.0217498
0.0220258
0.0220323
4.47093
0.027471
0.0457928
3.77715
0.0219029
0.0220407
0.0300333
0.025507
0.0257681
0.0220485
0.061307
0.029959
0.026423
0.0819287
3.56643
0.0220597
0.0387845
0.0220719
0.0220365
0.021625
0.0220844
3.583
0.0219162
0.022033
0.0220977
0.041967
3.44242
3.82567
4.64983
1.16759
0.0407836
3.55543
5.82995
0.0219555
0.0417491
5.45601
2.19365
0.022112
0.0273535
0.0402168
0.0377846
0.0220609
0.0386768
0.0573492
0.0439184
0.0216607
0.0493802
5.15977
0.0216163
1.2925
3.92207
0.041749
0.622423
0.034119
0.0220909
0.025157
0.0220213
0.204326
4.36592
0.0217291
0.0424951
0.021978
0.0219806
0.0222166
0.0222858
0.0366207
0.0221718
0.111642
0.126271
0.0254897
0.0244052
0.0413999
0.0220483
0.0439442
0.0311156
0.0223707
0.0221024
0.0221411
4.01366
0.0220243
0.239474
0.038996
0.0222529
0.0220479
0.021812
3.83176
0.0251114
0.0425093
0.048519
4.53571
0.0281446
3.17753
1.35705
0.0430362
0.021974
0.205669
0.0362967
4.17264
0.0652797
4.59612
0.0217324
0.046816
0.0462603
3.34211
0.0220132
0.0408538
4.64216
0.0218669
7.66837
11.6041
4.11294
0.0219825
0.0218266
3.75835
0.02205
3.92317
0.143193
3.86007
3.6729
0.0218839
0.169876
0.206521
5.26808
0.0239906
1.2194