/*--------------------------------*- C++ -*----------------------------------*\
| =========                 |                                                 |
| \\      /  F ield         | OpenFOAM: The Open Source CFD Toolbox           |
|  \\    /   O peration     | Version:  v2012                                 |
|   \\  /    A nd           | Website:  www.openfoam.com                      |
|    \\/     M anipulation  |                                                 |
\*---------------------------------------------------------------------------*/
FoamFile
{
    version     2.0;
    format      ascii;
    class       pointVectorField;
    location    "250";
    object      pointDisplacement;
}
// * * * * * * * * * * * * * * * * * * * * * * * * * * * * * * * * * * * * * //

dimensions      [0 1 0 0 0 0 0];


internalField   nonuniform List<vector> 
14246
(
(0 0 0)
(-0.00922175 0.0803085 0)
(0 0 0)
(-0.00922175 0.0803085 0)
(0 0 0)
(0 0 0)
(0 0 0)
(0 0 0)
(0 0 0)
(0 0 0)
(0 0 0)
(0 0 0)
(0 0 0)
(0 0 0)
(0 0 0)
(0 0 0)
(0 0 0)
(0 0 0)
(0 0 0)
(0 0 0)
(0 0 0)
(0 0 0)
(0 0 0)
(0 0 0)
(0 0 0)
(0 0 0)
(0 0 0)
(0 0 0)
(0 0 0)
(0 0 0)
(0 0 0)
(0 0 0)
(0 0 0)
(0 0 0)
(0 0 0)
(0 0 0)
(0 0 0)
(0 0 0)
(0 0 0)
(0 0 0)
(0 0 0)
(0 0 0)
(0 0 0)
(0 0 0)
(0 0 0)
(0 0 0)
(0 0 0)
(0 0 0)
(0 0 0)
(0 0 0)
(0 0 0)
(0 0 0)
(0 0 0)
(0 0 0)
(0 0 0)
(0 0 0)
(0 0 0)
(0 0 0)
(0 0 0)
(0 0 0)
(0 0 0)
(0 0 0)
(0 0 0)
(0 0 0)
(0 0 0)
(0 0 0)
(0 0 0)
(0 0 0)
(0 0 0)
(0 0 0)
(0 0 0)
(0 0 0)
(0 0 0)
(0 0 0)
(0 0 0)
(-0.00923181 0.0793059 0)
(-0.00924186 0.0783033 0)
(-0.00925191 0.0773007 0)
(-0.00926196 0.0762981 0)
(-0.00927202 0.0752955 0)
(-0.00928207 0.0742929 0)
(-0.00929212 0.0732903 0)
(-0.00930218 0.0722877 0)
(-0.00931223 0.0712851 0)
(-0.00932228 0.0702825 0)
(-0.00933234 0.0692799 0)
(-0.00934239 0.0682773 0)
(-0.00935244 0.0672747 0)
(-0.0093625 0.0662721 0)
(-0.00937255 0.0652695 0)
(-0.0093826 0.0642669 0)
(-0.00939265 0.0632643 0)
(-0.00940271 0.0622617 0)
(-0.00941276 0.0612591 0)
(-0.00942281 0.0602565 0)
(-0.00943287 0.0592539 0)
(-0.00944292 0.0582513 0)
(-0.00945297 0.0572487 0)
(-0.00946303 0.0562461 0)
(-0.00947308 0.0552435 0)
(-0.00948313 0.0542409 0)
(-0.00949319 0.0532383 0)
(-0.00950324 0.0522357 0)
(-0.00951329 0.0512331 0)
(-0.00952334 0.0502305 0)
(-0.0095334 0.0492279 0)
(-0.00954345 0.0482253 0)
(-0.0095535 0.0472227 0)
(-0.00956356 0.0462201 0)
(-0.00957361 0.0452175 0)
(-0.00958366 0.0442149 0)
(-0.00959372 0.0432123 0)
(-0.00960377 0.0422097 0)
(-0.00961382 0.0412071 0)
(-0.00962388 0.0402045 0)
(-0.00963393 0.0392019 0)
(-0.00964398 0.0381993 0)
(-0.00965403 0.0371967 0)
(-0.00966409 0.0361941 0)
(-0.00967414 0.0351915 0)
(-0.00968419 0.0341889 0)
(-0.00969425 0.0331863 0)
(-0.0097043 0.0321837 0)
(-0.00971435 0.0311811 0)
(-0.00972441 0.0301785 0)
(-0.00973446 0.0291759 0)
(-0.00974451 0.0281733 0)
(-0.00975457 0.0271707 0)
(-0.00976462 0.0261681 0)
(-0.00977467 0.0251655 0)
(-0.00978472 0.0241629 0)
(-0.00979478 0.0231603 0)
(-0.00980483 0.0221577 0)
(-0.00981488 0.0211551 0)
(-0.00982494 0.0201525 0)
(-0.00983499 0.0191499 0)
(-0.00984504 0.0181473 0)
(-0.0098551 0.0171447 0)
(-0.00986515 0.0161421 0)
(-0.0098752 0.0151395 0)
(-0.00988526 0.0141369 0)
(-0.00989531 0.0131343 0)
(-0.00990536 0.0121317 0)
(-0.00991541 0.0111291 0)
(-0.00992547 0.0101265 0)
(-0.00993552 0.00912393 0)
(-0.00994557 0.00812133 0)
(-0.00995563 0.00711873 0)
(-0.00996568 0.00611613 0)
(-0.00997573 0.00511353 0)
(-0.00998579 0.00411093 0)
(-0.00999584 0.00310833 0)
(-0.0100059 0.00210573 0)
(-0.0100159 0.00110313 0)
(-0.010026 0.000100531 0)
(-0.0100361 -0.000902069 0)
(-0.0100461 -0.00190467 0)
(-0.0100562 -0.00290727 0)
(-0.0100662 -0.00390987 0)
(-0.0100763 -0.00491247 0)
(-0.0100863 -0.00591507 0)
(-0.0100964 -0.00691767 0)
(-0.0101064 -0.00792027 0)
(-0.0101165 -0.00892287 0)
(-0.0101265 -0.00992547 0)
(-0.0101366 -0.0109281 0)
(-0.0101466 -0.0119307 0)
(-0.0101567 -0.0129333 0)
(-0.0101667 -0.0139359 0)
(-0.0101768 -0.0149385 0)
(-0.0101868 -0.0159411 0)
(-0.0101969 -0.0169437 0)
(-0.010207 -0.0179463 0)
(-0.010217 -0.0189489 0)
(-0.0102271 -0.0199515 0)
(-0.0102371 -0.0209541 0)
(-0.0102472 -0.0219567 0)
(-0.0102572 -0.0229593 0)
(-0.0102673 -0.0239619 0)
(-0.0102773 -0.0249645 0)
(-0.0102874 -0.0259671 0)
(-0.0102974 -0.0269697 0)
(-0.0103075 -0.0279723 0)
(-0.0103175 -0.0289749 0)
(-0.0103276 -0.0299775 0)
(-0.0103376 -0.0309801 0)
(-0.0103477 -0.0319827 0)
(-0.0103577 -0.0329853 0)
(-0.0103678 -0.0339879 0)
(-0.0103779 -0.0349905 0)
(-0.0103879 -0.0359931 0)
(-0.010398 -0.0369957 0)
(-0.010408 -0.0379983 0)
(-0.0104181 -0.0390009 0)
(-0.0104281 -0.0400035 0)
(-0.0104382 -0.0410061 0)
(-0.0104482 -0.0420087 0)
(-0.0104583 -0.0430113 0)
(-0.0104683 -0.0440139 0)
(-0.0104784 -0.0450165 0)
(-0.0104884 -0.0460191 0)
(-0.0104985 -0.0470217 0)
(-0.0105085 -0.0480243 0)
(-0.0105186 -0.0490269 0)
(-0.0105287 -0.0500295 0)
(-0.0105387 -0.0510321 0)
(-0.0105488 -0.0520347 0)
(-0.0105588 -0.0530373 0)
(-0.00721655 0.0802884 0)
(-0.00821915 0.0802985 0)
(0 0 0)
(0 0 0)
(0 0 0)
(0 0 0)
(0 0 0)
(0 0 0)
(0 0 0)
(0 0 0)
(0 0 0)
(0 0 0)
(0 0 0)
(0 0 0)
(0 0 0)
(0 0 0)
(0 0 0)
(0 0 0)
(0 0 0)
(0 0 0)
(0 0 0)
(0 0 0)
(0 0 0)
(0 0 0)
(0 0 0)
(0 0 0)
(0 0 0)
(0 0 0)
(0 0 0)
(0 0 0)
(0 0 0)
(0 0 0)
(0 0 0)
(0 0 0)
(0 0 0)
(0 0 0)
(0 0 0)
(0 0 0)
(0 0 0)
(0 0 0)
(0 0 0)
(0 0 0)
(0 0 0)
(0 0 0)
(0 0 0)
(0 0 0)
(0 0 0)
(0 0 0)
(0 0 0)
(0 0 0)
(0 0 0)
(0 0 0)
(0 0 0)
(0 0 0)
(0 0 0)
(0 0 0)
(0 0 0)
(0 0 0)
(0 0 0)
(0 0 0)
(0 0 0)
(0 0 0)
(0 0 0)
(0 0 0)
(0 0 0)
(0 0 0)
(0 0 0)
(0 0 0)
(0 0 0)
(0 0 0)
(0 0 0)
(0 0 0)
(0 0 0)
(-0.00923181 0.0793059 0)
(-0.00924186 0.0783033 0)
(-0.00925191 0.0773007 0)
(-0.00926196 0.0762981 0)
(-0.00927202 0.0752955 0)
(-0.00928207 0.0742929 0)
(-0.00929212 0.0732903 0)
(-0.00930218 0.0722877 0)
(-0.00931223 0.0712851 0)
(-0.00932228 0.0702825 0)
(-0.00933234 0.0692799 0)
(-0.00934239 0.0682773 0)
(-0.00935244 0.0672747 0)
(-0.0093625 0.0662721 0)
(-0.00937255 0.0652695 0)
(-0.0093826 0.0642669 0)
(-0.00939265 0.0632643 0)
(-0.00940271 0.0622617 0)
(-0.00941276 0.0612591 0)
(-0.00942281 0.0602565 0)
(-0.00943287 0.0592539 0)
(-0.00944292 0.0582513 0)
(-0.00945297 0.0572487 0)
(-0.00946303 0.0562461 0)
(-0.00947308 0.0552435 0)
(-0.00948313 0.0542409 0)
(-0.00949319 0.0532383 0)
(-0.00950324 0.0522357 0)
(-0.00951329 0.0512331 0)
(-0.00952334 0.0502305 0)
(-0.0095334 0.0492279 0)
(-0.00954345 0.0482253 0)
(-0.0095535 0.0472227 0)
(-0.00956356 0.0462201 0)
(-0.00957361 0.0452175 0)
(-0.00958366 0.0442149 0)
(-0.00959372 0.0432123 0)
(-0.00960377 0.0422097 0)
(-0.00961382 0.0412071 0)
(-0.00962388 0.0402045 0)
(-0.00963393 0.0392019 0)
(-0.00964398 0.0381993 0)
(-0.00965403 0.0371967 0)
(-0.00966409 0.0361941 0)
(-0.00967414 0.0351915 0)
(-0.00968419 0.0341889 0)
(-0.00969425 0.0331863 0)
(-0.0097043 0.0321837 0)
(-0.00971435 0.0311811 0)
(-0.00972441 0.0301785 0)
(-0.00973446 0.0291759 0)
(-0.00974451 0.0281733 0)
(-0.00975457 0.0271707 0)
(-0.00976462 0.0261681 0)
(-0.00977467 0.0251655 0)
(-0.00978472 0.0241629 0)
(-0.00979478 0.0231603 0)
(-0.00980483 0.0221577 0)
(-0.00981488 0.0211551 0)
(-0.00982494 0.0201525 0)
(-0.00983499 0.0191499 0)
(-0.00984504 0.0181473 0)
(-0.0098551 0.0171447 0)
(-0.00986515 0.0161421 0)
(-0.0098752 0.0151395 0)
(-0.00988526 0.0141369 0)
(-0.00989531 0.0131343 0)
(-0.00990536 0.0121317 0)
(-0.00991541 0.0111291 0)
(-0.00992547 0.0101265 0)
(-0.00993552 0.00912393 0)
(-0.00994557 0.00812133 0)
(-0.00995563 0.00711873 0)
(-0.00996568 0.00611613 0)
(-0.00997573 0.00511353 0)
(-0.00998579 0.00411093 0)
(-0.00999584 0.00310833 0)
(-0.0100059 0.00210573 0)
(-0.0100159 0.00110313 0)
(-0.010026 0.000100531 0)
(-0.0100361 -0.000902069 0)
(-0.0100461 -0.00190467 0)
(-0.0100562 -0.00290727 0)
(-0.0100662 -0.00390987 0)
(-0.0100763 -0.00491247 0)
(-0.0100863 -0.00591507 0)
(-0.0100964 -0.00691767 0)
(-0.0101064 -0.00792027 0)
(-0.0101165 -0.00892287 0)
(-0.0101265 -0.00992547 0)
(-0.0101366 -0.0109281 0)
(-0.0101466 -0.0119307 0)
(-0.0101567 -0.0129333 0)
(-0.0101667 -0.0139359 0)
(-0.0101768 -0.0149385 0)
(-0.0101868 -0.0159411 0)
(-0.0101969 -0.0169437 0)
(-0.010207 -0.0179463 0)
(-0.010217 -0.0189489 0)
(-0.0102271 -0.0199515 0)
(-0.0102371 -0.0209541 0)
(-0.0102472 -0.0219567 0)
(-0.0102572 -0.0229593 0)
(-0.0102673 -0.0239619 0)
(-0.0102773 -0.0249645 0)
(-0.0102874 -0.0259671 0)
(-0.0102974 -0.0269697 0)
(-0.0103075 -0.0279723 0)
(-0.0103175 -0.0289749 0)
(-0.0103276 -0.0299775 0)
(-0.0103376 -0.0309801 0)
(-0.0103477 -0.0319827 0)
(-0.0103577 -0.0329853 0)
(-0.0103678 -0.0339879 0)
(-0.0103779 -0.0349905 0)
(-0.0103879 -0.0359931 0)
(-0.010398 -0.0369957 0)
(-0.010408 -0.0379983 0)
(-0.0104181 -0.0390009 0)
(-0.0104281 -0.0400035 0)
(-0.0104382 -0.0410061 0)
(-0.0104482 -0.0420087 0)
(-0.0104583 -0.0430113 0)
(-0.0104683 -0.0440139 0)
(-0.0104784 -0.0450165 0)
(-0.0104884 -0.0460191 0)
(-0.0104985 -0.0470217 0)
(-0.0105085 -0.0480243 0)
(-0.0105186 -0.0490269 0)
(-0.0105287 -0.0500295 0)
(-0.0105387 -0.0510321 0)
(-0.0105488 -0.0520347 0)
(-0.0105588 -0.0530373 0)
(-0.00721655 0.0802884 0)
(-0.00821915 0.0802985 0)
(-0.0105644 -0.0535713 0)
(-0.0103825 -0.0353631 0)
(-0.0102018 -0.0174863 0)
(-0.0100214 0.000555876 0)
(-0.00984042 0.0186378 0)
(-0.00965956 0.0366721 0)
(-0.00947742 0.0547737 0)
(-0.00929683 0.0727718 0)
(-0.00974931 0.0276772 0)
(-0.00993086 0.00959414 0)
(-0.0104739 -0.0445334 0)
(-0.00938804 0.0637274 0)
(-0.0102928 -0.0265159 0)
(-0.0101125 -0.00846817 0)
(-0.00956933 0.0456393 0)
(-0.00684518 0.0802904 0)
(-0.000338194 0.00199128 0)
(-0.000210883 0.00356001 0)
(-0.000450673 0.00159664 0)
(-0.000599476 0.00031466 0)
(-0.000159095 0.00460956 0)
(-6.33273e-05 0.00570199 0)
(-0.000514987 -0.000904797 0)
(-0.00924268 0.0777651 0)
(-0.000272189 0.00205979 0)
(-0.000203909 0.00265057 0)
(-0.000164872 0.00186736 0)
(-0.0094278 0.0597611 0)
(-0.0101527 -0.0125098 0)
(-0.00952804 0.0497086 0)
(-0.0103331 -0.0304931 0)
(-0.00979987 0.0226589 0)
(-0.00969899 0.0327387 0)
(-0.00989024 0.0136463 0)
(-0.00998121 0.00457508 0)
(-0.0104225 -0.0395022 0)
(-0.00933764 0.0688082 0)
(-0.0102427 -0.0214782 0)
(-0.0100618 -0.00342855 0)
(-0.0105154 -0.0486188 0)
(-0.00961899 0.0407053 0)
(-0.000194963 0.00169626 0)
(-0.00019793 0.00417242 0)
(-0.000434877 0.00206576 0)
(-0.000450859 0.000819033 0)
(-0.00010657 0.001105 0)
(-0.000130729 0.00121969 0)
(-7.09009e-05 0.000690959 0)
(-0.000131006 0.00505046 0)
(-1.13601e-05 0.00521223 0)
(-0.000212729 0.00318372 0)
(-0.000460034 0.00126001 0)
(-0.000504234 -0.000427806 0)
(-0.000320656 0.00211158 0)
(-0.000186256 0.00224638 0)
(-0.000254102 0.00207603 0)
(-0.000138176 0.00148775 0)
(-7.3146e-05 0.000739065 0)
(-3.37918e-05 0.000335994 0)
(-0.000144981 0.00479846 0)
(-0.000294456 0.00906069 0)
(-0.000321891 0.00876579 0)
(-0.000448016 0.0128673 0)
(-0.000486547 0.0124799 0)
(-0.000604848 0.0162595 0)
(-0.00065121 0.0157921 0)
(-0.000766666 0.0193546 0)
(-0.000816378 0.0187917 0)
(-0.000931249 0.0220971 0)
(-0.00098167 0.0214316 0)
(-0.00109488 0.0244515 0)
(-0.00114622 0.0236968 0)
(-0.00125765 0.0265342 0)
(-0.00131022 0.0256905 0)
(-0.00142072 0.028375 0)
(-0.00136164 0.0292716 0)
(-0.00152343 0.0309497 0)
(-0.0014564 0.0318607 0)
(-0.00161813 0.0333949 0)
(-0.00154242 0.0342994 0)
(-0.00170556 0.0357125 0)
(-0.00162141 0.0366142 0)
(-0.00178548 0.0379094 0)
(-0.00169511 0.0388445 0)
(-0.00186015 0.0399887 0)
(-0.00177119 0.0409432 0)
(-0.00193147 0.0419586 0)
(-0.00183588 0.0428734 0)
(-0.00199584 0.0438113 0)
(-0.00189141 0.044711 0)
(-0.0020558 0.0455711 0)
(-0.00194477 0.0464342 0)
(-0.00211039 0.0472652 0)
(-0.00198989 0.0480782 0)
(-0.00215924 0.0488572 0)
(-0.00203311 0.049666 0)
(-0.00220716 0.0503584 0)
(-0.00207478 0.0511622 0)
(-0.00225389 0.0517801 0)
(-0.00211668 0.0525808 0)
(-0.00230172 0.0531398 0)
(-0.00215899 0.0539455 0)
(-0.00243381 0.0523011 0)
(-0.00248899 0.0535977 0)
(-0.00261624 0.0527224 0)
(-0.00267761 0.0539637 0)
(-0.00280083 0.0530507 0)
(-0.00286866 0.0542451 0)
(-0.00298868 0.0532883 0)
(-0.00306632 0.0544411 0)
(-0.00317769 0.0534323 0)
(-0.00326362 0.0544858 0)
(-0.00336523 0.0535085 0)
(-0.00345432 0.0544677 0)
(-0.00355314 0.053481 0)
(-0.00365031 0.0544635 0)
(-0.00374159 0.0533497 0)
(-0.00385085 0.0543311 0)
(-0.00393156 0.0531483 0)
(-0.00404822 0.0540603 0)
(-0.00317469 0.0556203 0)
(-0.00412039 0.0528431 0)
(-0.00424224 0.053702 0)
(-0.00430602 0.0524345 0)
(-0.00443339 0.0532444 0)
(-0.00448973 0.0519297 0)
(-0.00462351 0.0526895 0)
(-0.00467029 0.0513276 0)
(-0.0048094 0.0520135 0)
(-0.00454184 0.0505711 0)
(-0.004844 0.0506479 0)
(-0.00498607 0.051222 0)
(-0.00500861 0.0498476 0)
(-0.00515801 0.0503297 0)
(-0.00516763 0.0489082 0)
(-0.00532164 0.0492824 0)
(-0.00532326 0.0478689 0)
(-0.00547615 0.0481922 0)
(-0.00547381 0.0467212 0)
(-0.00563061 0.046993 0)
(-0.00561631 0.0454547 0)
(-0.00577896 0.0456184 0)
(-0.00545655 0.0452926 0)
(-0.00416777 0.0549167 0)
(-0.00575037 0.0440733 0)
(-0.00591567 0.0441268 0)
(-0.00587727 0.0425874 0)
(-0.00604125 0.0425299 0)
(-0.00608432 0.0440013 0)
(-0.00620584 0.0423833 0)
(-0.00616136 0.0408543 0)
(-0.00632308 0.0406445 0)
(-0.00637172 0.042157 0)
(-0.00648586 0.0403183 0)
(-0.00643193 0.0387998 0)
(-0.006592 0.0383767 0)
(-0.00664916 0.0398847 0)
(-0.00675277 0.0378417 0)
(-0.00669005 0.0363425 0)
(-0.00684952 0.0356894 0)
(-0.00678165 0.0342059 0)
(-0.00694025 0.0334268 0)
(-0.00700623 0.0349367 0)
(-0.00709685 0.0325856 0)
(-0.00702677 0.0310352 0)
(-0.00718126 0.0300856 0)
(-0.00727108 0.0317587 0)
(-0.00733447 0.0289738 0)
(-0.00725848 0.027481 0)
(-0.00739995 0.0263566 0)
(-0.00749146 0.0276356 0)
(-0.00754252 0.0249025 0)
(-0.00744351 0.0235735 0)
(-0.00759499 0.0222881 0)
(-0.00768464 0.0233843 0)
(-0.00773365 0.0207734 0)
(-0.00764149 0.019647 0)
(-0.00777399 0.018048 0)
(-0.00767606 0.0170134 0)
(-0.00780517 0.0153206 0)
(-0.00790426 0.0162874 0)
(-0.00793025 0.0135129 0)
(-0.00782787 0.012604 0)
(-0.00794871 0.0107215 0)
(-0.00784288 0.00989011 0)
(-0.00795933 0.00794448 0)
(-0.00806521 0.00873182 0)
(-0.00807041 0.00590249 0)
(-0.00796146 0.00523803 0)
(-0.00806716 0.00317129 0)
(-0.00817612 0.00376225 0)
(-0.00816748 0.000999713 0)
(-0.00805633 0.000501082 0)
(-0.00815153 -0.00169012 0)
(-0.00803838 -0.00211213 0)
(-0.00812909 -0.0043065 0)
(-0.00824081 -0.00398025 0)
(-0.00821324 -0.00658127 0)
(-0.00810035 -0.00682962 0)
(-0.00817867 -0.00910325 0)
(-0.0082913 -0.00891155 0)
(-0.00825153 -0.0114706 0)
(-0.0081364 -0.0115546 0)
(-0.00820386 -0.0139411 0)
(-0.00808627 -0.0139002 0)
(-0.00814803 -0.0162438 0)
(-0.00802925 -0.0161329 0)
(-0.00808555 -0.0184198 0)
(-0.00820294 -0.0186112 0)
(-0.00813521 -0.0207216 0)
(-0.00801764 -0.0205027 0)
(-0.00806259 -0.0227488 0)
(-0.00817852 -0.0230123 0)
(-0.00810095 -0.0249963 0)
(-0.00798427 -0.0246899 0)
(-0.00801674 -0.0269007 0)
(-0.00790026 -0.0265292 0)
(-0.0079269 -0.0287119 0)
(-0.00168656 0.0324431 0)
(-0.0051286 0.0517632 0)
(-0.00196865 0.0533363 0)
(-0.00200044 0.0546956 0)
(-0.00180926 0.054046 0)
(-0.00183339 0.0554198 0)
(-0.00164209 0.0547169 0)
(-0.0036171 0.0523654 0)
(-0.000139263 0.0727055 0)
(-0.000286453 0.0732237 0)
(-0.00057994 0.0727769 0)
(-0.000769008 0.0732685 0)
(-0.00103059 0.0727712 0)
(-0.0012476 0.0732502 0)
(-0.00148259 0.0727029 0)
(-0.00172116 0.0731712 0)
(-0.00172178 0.0437708 0)
(-0.00191716 0.0725832 0)
(-0.00217893 0.0730135 0)
(-7.49909e-05 0.0722011 0)
(-0.00233249 0.0723983 0)
(-0.00260741 0.0727794 0)
(-0.00147666 0.0737252 0)
(-0.00272685 0.0721454 0)
(-0.00300814 0.072491 0)
(-0.00208965 0.0719823 0)
(-0.00309681 0.0718309 0)
(-0.00337941 0.0721411 0)
(-0.00330903 0.0728001 0)
(-0.00367907 0.0724112 0)
(-0.00372285 0.071727 0)
(-0.00402131 0.0719513 0)
(-0.00403929 0.0712423 0)
(-0.00433255 0.0714187 0)
(-0.00433083 0.0721325 0)
(-0.00463197 0.071554 0)
(-0.00202425 0.0410114 0)
(-0.00464602 0.0722722 0)
(-0.0049355 0.0716424 0)
(-0.00490249 0.0709077 0)
(-0.00519592 0.070932 0)
(-0.00524545 0.0716651 0)
(-0.00549361 0.0708879 0)
(-0.00542673 0.0701508 0)
(-0.00570842 0.0700483 0)
(-0.00579195 0.0707727 0)
(-0.00598614 0.0698743 0)
(-0.00608344 0.0705823 0)
(-0.00625797 0.0696145 0)
(-0.00615864 0.0689093 0)
(-0.00641459 0.0685792 0)
(-0.00651987 0.0692578 0)
(-0.00665916 0.0681609 0)
(-0.00677082 0.0688079 0)
(-0.0068869 0.0676811 0)
(-0.0070094 0.0682448 0)
(-0.00709976 0.0670795 0)
(-0.00723067 0.0675697 0)
(-0.00730443 0.0663099 0)
(-0.00743773 0.0667663 0)
(-0.00750109 0.0653943 0)
(-0.00763103 0.0658113 0)
(-0.00768234 0.0643713 0)
(-0.00780813 0.0647352 0)
(-0.00784645 0.0632694 0)
(-0.0079708 0.0635285 0)
(-0.00800007 0.0620274 0)
(-0.00812312 0.0621471 0)
(-0.00814548 0.0606255 0)
(-0.00826604 0.0606388 0)
(-0.0082824 0.0590978 0)
(-0.00839954 0.0590017 0)
(-0.00840855 0.057493 0)
(-0.00852005 0.0572523 0)
(-0.00852099 0.0557615 0)
(-0.00862741 0.0554311 0)
(-0.00862573 0.0539008 0)
(-0.00872548 0.0534943 0)
(-0.00872136 0.0519571 0)
(-0.00881598 0.0514505 0)
(-0.00880855 0.0499045 0)
(-0.00889873 0.049347 0)
(-0.00889074 0.047792 0)
(-0.00897472 0.047196 0)
(-0.00896542 0.0456385 0)
(-0.00904519 0.0449772 0)
(-0.00903471 0.0434115 0)
(-0.00911025 0.0427159 0)
(-0.00909846 0.0411574 0)
(-0.00916961 0.0404242 0)
(-0.0091579 0.0389097 0)
(-0.00922425 0.0380906 0)
(-0.00921205 0.0366344 0)
(-0.00927572 0.0357099 0)
(-0.00926177 0.0343011 0)
(-0.00932431 0.0332938 0)
(-0.00930988 0.0319039 0)
(-0.00936983 0.0308694 0)
(-0.00935534 0.0294886 0)
(-0.0094128 0.0284231 0)
(-0.00939818 0.0270805 0)
(-0.00945288 0.0259698 0)
(-0.00943828 0.0246378 0)
(-0.00949039 0.0235282 0)
(-0.00947588 0.0221932 0)
(-0.00952582 0.0210889 0)
(-0.00951087 0.0197717 0)
(-0.00955977 0.0186236 0)
(-0.0095438 0.0173529 0)
(-0.0095927 0.0161358 0)
(-0.00957554 0.0149169 0)
(-0.00962405 0.0136791 0)
(-0.00960556 0.0124785 0)
(-0.00965246 0.0112418 0)
(-0.00963386 0.0100557 0)
(-0.00967929 0.00874582 0)
(-0.00966013 0.00760115 0)
(-0.00970434 0.00625026 0)
(-0.00968432 0.00515403 0)
(-0.00972737 0.00379148 0)
(-0.00970682 0.00272478 0)
(-0.0097497 0.00132262 0)
(-0.00972612 0.00027224 0)
(-0.00977054 -0.00116528 0)
(-0.00974591 -0.00222989 0)
(-0.0097904 -0.00365352 0)
(-0.00976638 -0.00469248 0)
(-0.00980877 -0.00613874 0)
(-0.00978351 -0.00710517 0)
(-0.00982455 -0.00859544 0)
(-0.00979754 -0.00951819 0)
(-0.00983842 -0.0110335 0)
(-0.00980955 -0.0119227 0)
(-0.00985018 -0.0134575 0)
(-0.00981977 -0.0143329 0)
(-0.00986035 -0.0158833 0)
(-0.00982851 -0.0167207 0)
(-0.00986727 -0.0182891 0)
(-0.00983277 -0.0190535 0)
(-0.00987063 -0.0206412 0)
(-0.00983468 -0.0213832 0)
(-0.00987191 -0.022959 0)
(-0.00983412 -0.02366 0)
(-0.00987012 -0.0252563 0)
(-0.00982808 -0.0258973 0)
(-0.00986471 -0.0275432 0)
(-0.00981862 -0.0281514 0)
(-0.00985582 -0.0298133 0)
(-0.00980565 -0.0303682 0)
(-0.00984179 -0.0320371 0)
(-0.00978949 -0.0325408 0)
(-0.00982351 -0.0342016 0)
(-0.0097698 -0.0346603 0)
(-0.0098017 -0.0363351 0)
(-0.00974406 -0.0366827 0)
(-0.00977435 -0.0384017 0)
(-0.00971225 -0.0386624 0)
(-0.00974172 -0.04038 0)
(-0.00967574 -0.040612 0)
(-0.00970338 -0.0423013 0)
(-0.00977131 -0.0420501 0)
(-0.00973071 -0.0439532 0)
(-0.00965913 -0.0441634 0)
(-0.0096841 -0.0458124 0)
(-0.00989523 -0.0316785 0)
(-0.00990295 -0.0199469 0)
(-0.00986343 -0.0101237 0)
(-0.00978863 -5.39167e-05 0)
(-0.00969679 0.00999623 0)
(-0.0095726 0.0199218 0)
(-0.00952473 0.0161022 0)
(-0.00934087 0.0280544 0)
(-0.00909384 0.0393572 0)
(-0.00870587 0.0505113 0)
(-0.00816986 0.0591168 0)
(-0.00942676 0.0297216 0)
(-0.00972058 -0.003506 0)
(-0.00978137 -0.0264619 0)
(-0.00978899 -0.0153223 0)
(-0.00736659 0.0649803 0)
(-0.00923572 0.0396335 0)
(-0.00968503 -0.0367681 0)
(-0.00632788 0.0678789 0)
(-0.0089807 0.0487917 0)
(-0.00863532 0.056925 0)
(-0.00165086 0.0560908 0)
(-0.00146992 0.0553261 0)
(-0.00963544 0.00674168 0)
(-0.00809148 0.063686 0)
(-0.00714867 0.0687375 0)
(-0.00145151 0.0566693 0)
(-0.00125815 0.0557112 0)
(-0.00124338 0.0572037 0)
(-0.00105634 0.0563821 0)
(-0.00103581 0.0577232 0)
(-0.000847807 0.0568353 0)
(-0.000878492 0.0554735 0)
(-0.000672988 0.0557804 0)
(-0.000719981 0.0543888 0)
(-0.000509995 0.0546717 0)
(-0.000575395 0.0531159 0)
(-0.000352027 0.0534526 0)
(-0.000592329 0.0572165 0)
(-0.00142868 0.0579287 0)
(-0.000429134 0.0517989 0)
(-0.000208902 0.0521134 0)
(-0.000286169 0.0504274 0)
(-7.49513e-05 0.0506886 0)
(1.94208e-05 0.0523511 0)
(0.000142669 0.0508723 0)
(0.000251202 0.0525037 0)
(5.59543e-05 0.0491296 0)
(-0.000705227 0.0199047 0)
(-0.00177985 0.0783354 0)
(-0.00169132 0.0780178 0)
(-0.00244831 0.0780817 0)
(-0.00258783 0.0784036 0)
(-0.0031873 0.0781155 0)
(-0.00339131 0.0784408 0)
(-0.00389712 0.0781087 0)
(-0.00417329 0.0784264 0)
(-0.00456403 0.0780688 0)
(-0.00489924 0.0783606 0)
(-0.00518252 0.0779907 0)
(-0.00554335 0.0782418 0)
(-0.0057379 0.0778358 0)
(-0.0061028 0.0780534 0)
(-0.00622258 0.0776081 0)
(-0.00658034 0.0777898 0)
(-0.00367921 0.0777644 0)
(-0.00663105 0.0772979 0)
(-0.00697475 0.0774411 0)
(-0.00589587 0.0774001 0)
(-0.00291753 0.0521019 0)
(-0.00696694 0.076896 0)
(-0.00729061 0.0769822 0)
(-0.005618 0.0488337 0)
(-0.00152451 0.0374365 0)
(-0.007242 0.0764013 0)
(-0.00753584 0.0764151 0)
(-0.00451011 0.0786928 0)
(-0.00548059 -0.0154938 0)
(-0.00570576 -0.0160494 0)
(-0.00559664 -0.0140377 0)
(-0.00536783 -0.0135824 0)
(-0.00548131 -0.0121176 0)
(-0.00570744 -0.0124693 0)
(-0.00558763 -0.0105468 0)
(-0.00580907 -0.0108079 0)
(-0.00568494 -0.00885735 0)
(-0.00545764 -0.00868444 0)
(-0.00555131 -0.00698506 0)
(-0.00577341 -0.00704267 0)
(-0.00563804 -0.00517014 0)
(-0.00540781 -0.00521578 0)
(-0.005492 -0.00341505 0)
(-0.00571745 -0.00325687 0)
(-0.00556738 -0.00152803 0)
(-0.00578791 -0.00127397 0)
(-0.00563352 0.000426235 0)
(-0.00540933 9.2492e-05 0)
(-0.00547092 0.00202698 0)
(-0.00569198 0.00242377 0)
(-0.00552512 0.00400938 0)
(-0.00530036 0.00350002 0)
(-0.00535115 0.00545289 0)
(-0.00557547 0.00603786 0)
(-0.00539584 0.00747639 0)
(-0.00517211 0.00674339 0)
(-0.00521112 0.00870137 0)
(-0.00542632 0.00959047 0)
(-0.00524044 0.0107007 0)
(-0.00502528 0.00977933 0)
(-0.00505356 0.0116913 0)
(-0.00525885 0.012707 0)
(-0.00507106 0.0136059 0)
(-0.00526776 0.0147045 0)
(-0.00508094 0.0155192 0)
(-0.00488031 0.014377 0)
(-0.00489041 0.0161939 0)
(-0.00509057 0.0174962 0)
(-0.00489364 0.0180432 0)
(-0.00469665 0.0167314 0)
(-0.00469341 0.0184219 0)
(-0.00486787 0.0197815 0)
(-0.00467704 0.0200819 0)
(-0.00449616 0.0187193 0)
(-0.00448319 0.0202981 0)
(-0.00465372 0.0217163 0)
(-0.0044608 0.0218347 0)
(-0.00462241 0.0233022 0)
(-0.00442869 0.0233247 0)
(-0.00426475 0.0218286 0)
(-0.0042331 0.0232334 0)
(-0.00438613 0.0247697 0)
(-0.00419135 0.0245824 0)
(-0.00433345 0.026155 0)
(-0.00414023 0.0258644 0)
(-0.00426963 0.0274331 0)
(-0.00407715 0.0270425 0)
(-0.00418785 0.0285495 0)
(-0.003999 0.0281137 0)
(-0.00388369 0.0265322 0)
(-0.00381199 0.0275413 0)
(-0.00391691 0.0291464 0)
(-0.00373095 0.0284591 0)
(-0.00382559 0.0300554 0)
(-0.00364136 0.0292833 0)
(-0.00372837 0.0308939 0)
(-0.00354611 0.0300257 0)
(-0.00362546 0.0316789 0)
(-0.00344138 0.0306567 0)
(-0.00336149 0.0290216 0)
(-0.00325758 0.0295369 0)
(-0.00317595 0.0279187 0)
(-0.00307254 0.0283312 0)
(-0.00298882 0.0267223 0)
(-0.00288707 0.0270458 0)
(-0.0028003 0.0254277 0)
(-0.00270157 0.0256842 0)
(-0.00406401 0.0217188 0)
(-0.00351143 0.0323104 0)
(-0.00261022 0.024068 0)
(-0.00251492 0.0242454 0)
(-0.00270505 0.0237007 0)
(-0.00242178 0.022665 0)
(-0.0023296 0.0227413 0)
(-0.00241218 0.0242832 0)
(-0.00223555 0.0211987 0)
(-0.0022293 0.0226783 0)
(-0.00230302 0.0241959 0)
(-0.00445432 0.027688 0)
(-0.00382264 0.0326179 0)
(-0.00212035 0.0224564 0)
(-0.00218223 0.0239094 0)
(-0.0082158 -0.025285 0)
(-0.00836376 -0.011284 0)
(-0.0079668 -0.0138556 0)
(-0.00778253 -0.0261276 0)
(-0.0103128 -0.0510588 0)
(-0.0103455 -0.0506717 0)
(-0.0103216 -0.0494807 0)
(-0.01035 -0.0490305 0)
(-0.0103265 -0.0479076 0)
(-0.0103516 -0.0473951 0)
(-0.0103278 -0.0462747 0)
(-0.0103507 -0.0457317 0)
(-0.0103275 -0.0445966 0)
(-0.0103477 -0.0440394 0)
(-0.0103249 -0.042894 0)
(-0.0103426 -0.0423109 0)
(-0.0103206 -0.0411819 0)
(-0.010336 -0.0405784 0)
(-0.0103148 -0.0394711 0)
(-0.0103281 -0.0388709 0)
(-0.0103075 -0.0377616 0)
(-0.0103192 -0.0371542 0)
(-0.010299 -0.0360505 0)
(-0.0103093 -0.0354305 0)
(-0.0102896 -0.0343411 0)
(-0.0102986 -0.0337206 0)
(-0.0102792 -0.0326311 0)
(-0.0102869 -0.0320115 0)
(-0.010268 -0.0309217 0)
(-0.0102744 -0.0302895 0)
(-0.0102559 -0.0291879 0)
(-0.0102612 -0.0285253 0)
(-0.0102433 -0.0274405 0)
(-0.0102474 -0.0267505 0)
(-0.0102306 -0.0257392 0)
(-0.0102336 -0.0250474 0)
(-0.0102173 -0.0240514 0)
(-0.0102198 -0.0233669 0)
(-0.0102034 -0.0223532 0)
(-0.0102055 -0.0216755 0)
(-0.0101896 -0.0206743 0)
(-0.0101908 -0.019962 0)
(-0.010175 -0.0189735 0)
(-0.0101755 -0.0182304 0)
(-0.0101597 -0.0172271 0)
(-0.0101601 -0.0165075 0)
(-0.0101439 -0.0154667 0)
(-0.0101445 -0.0147864 0)
(-0.0101285 -0.0137081 0)
(-0.0101287 -0.0130515 0)
(-0.0101139 -0.0120198 0)
(-0.010113 -0.011326 0)
(-0.0100989 -0.0103655 0)
(-0.0100971 -0.00962201 0)
(-0.0100831 -0.00867085 0)
(-0.0100809 -0.00790124 0)
(-0.0100666 -0.00692697 0)
(-0.0100646 -0.00617827 0)
(-0.0100502 -0.00519587 0)
(-0.0100482 -0.00445954 0)
(-0.0100338 -0.00347372 0)
(-0.0100316 -0.00273491 0)
(-0.0100171 -0.0017479 0)
(-0.0100151 -0.0010328 0)
(-0.0100007 -4.92249e-05 0)
(-0.00999884 0.00063903 0)
(-0.00998438 0.00162567 0)
(-0.0099823 0.00233056 0)
(-0.00996802 0.00330341 0)
(-0.00996533 0.00405311 0)
(-0.00995144 0.00499034 0)
(-0.00994853 0.00574482 0)
(-0.0099348 0.00665589 0)
(-0.00993191 0.00742039 0)
(-0.00991793 0.00833714 0)
(-0.00991511 0.00910647 0)
(-0.00990067 0.0100414 0)
(-0.0098983 0.0107823 0)
(-0.0098838 0.0117269 0)
(-0.00988137 0.012466 0)
(-0.00986739 0.013385 0)
(-0.00986444 0.0141444 0)
(-0.00985087 0.0150326 0)
(-0.00984751 0.0158189 0)
(-0.00983381 0.0167165 0)
(-0.00983034 0.0175139 0)
(-0.00981611 0.0184391 0)
(-0.00981292 0.0192154 0)
(-0.00979846 0.0201386 0)
(-0.00979564 0.0208948 0)
(-0.00978085 0.0218299 0)
(-0.00977831 0.0225745 0)
(-0.00976306 0.0235353 0)
(-0.00976065 0.0242721 0)
(-0.00974592 0.0251893 0)
(-0.00974332 0.0259375 0)
(-0.00972911 0.0267877 0)
(-0.0103699 -0.045193 0)
(-0.00972651 0.0275494 0)
(-0.00971169 0.0284113 0)
(-0.00970935 0.0291821 0)
(-0.00969374 0.0300746 0)
(-0.00969177 0.0308486 0)
(-0.00967569 0.0317404 0)
(-0.0103284 -0.036514 0)
(-0.0096739 0.0325211 0)
(-0.00965733 0.0334215 0)
(-0.00965582 0.034189 0)
(-0.00963875 0.0351051 0)
(-0.00963757 0.0358711 0)
(-0.00962019 0.0367729 0)
(-0.0102654 -0.0277813 0)
(-0.009619 0.0375541 0)
(-0.00960171 0.0384236 0)
(-0.00959998 0.0392533 0)
(-0.00958264 0.0400818 0)
(-0.0095812 0.040922 0)
(-0.00956352 0.0417081 0)
(-0.0102069 -0.0210375 0)
(-0.00956284 0.0425413 0)
(-0.00954424 0.0433247 0)
(-0.00954446 0.0441511 0)
(-0.00952445 0.0449416 0)
(-0.0101427 -0.0140363 0)
(-0.00952561 0.0457547 0)
(-0.00950393 0.0465592 0)
(-0.00950617 0.0473539 0)
(-0.00948305 0.04818 0)
(-0.0094862 0.0489636 0)
(-0.00946223 0.0497955 0)
(-0.0100624 -0.00547827 0)
(-0.00946523 0.0506186 0)
(-0.00944038 0.0514182 0)
(-0.00944345 0.0522726 0)
(-0.00941766 0.0530119 0)
(-0.00942208 0.0538397 0)
(-0.00939437 0.0545752 0)
(-0.0102494 -0.0298366 0)
(-0.010069 -0.00775816 0)
(-0.0103028 -0.0435198 0)
(-0.00974584 0.0246302 0)
(-0.00985357 0.0142619 0)
(-0.0099678 0.00275498 0)
(-0.00997895 0.00313613 0)
(-0.0101587 -0.0180465 0)
(-0.00940009 0.0554045 0)
(-0.00936975 0.0561441 0)
(-0.00961971 0.0360371 0)
(-0.00937618 0.0569995 0)
(-0.00934351 0.0577007 0)
(-0.00935028 0.0585922 0)
(-0.00931483 0.0592575 0)
(-0.00950122 0.0456823 0)
(-0.00933785 0.0568218 0)
(-0.00991181 0.0098382 0)
(-0.00932296 0.0601735 0)
(-0.00928331 0.0608143 0)
(-0.0102857 -0.03664 0)
(-0.0102892 -0.0497066 0)
(-0.0098435 0.0165854 0)
(-0.00929291 0.0617644 0)
(-0.00924802 0.0623759 0)
(-0.0092579 0.0633415 0)
(-0.00920822 0.0639319 0)
(-0.00979217 0.0216579 0)
(-0.00921977 0.0648729 0)
(-0.00916347 0.0654674 0)
(-0.00974059 0.0266577 0)
(-0.00919462 0.0629345 0)
(-0.00917881 0.066427 0)
(-0.00911256 0.0669646 0)
(-0.0096903 0.0315686 0)
(-0.00912962 0.0679773 0)
(-0.00905176 0.0684325 0)
(-0.00963556 0.0366817 0)
(-0.00907014 0.0694523 0)
(-0.00956163 0.0433658 0)
(-0.00950703 0.048137 0)
(-0.00200245 0.0220592 0)
(-0.00194188 0.0207013 0)
(-0.00499991 0.0485542 0)
(-0.010199 -0.0230323 0)
(-0.00204937 0.0233826 0)
(-0.00222897 0.0253406 0)
(-0.0101112 -0.0124131 0)
(-0.00944569 0.0531046 0)
(-0.0100186 -0.00247181 0)
(-0.00990275 0.00922618 0)
(-0.00980102 0.0193685 0)
(-0.0096968 0.0291617 0)
(-0.00943411 0.0506633 0)
(-0.009565 0.0407208 0)
(-0.00746969 0.0758021 0)
(-0.0071894 0.0758106 0)
(-0.00895033 -0.0379539 0)
(-0.00892262 -0.0359741 0)
(-0.00901692 -0.0359331 0)
(-0.0089858 -0.0339136 0)
(-0.00907662 -0.0338261 0)
(-0.00904301 -0.0318234 0)
(-0.00913021 -0.0316379 0)
(-0.0090891 -0.0296679 0)
(-0.00917553 -0.0292726 0)
(-0.00912519 -0.0272983 0)
(-0.00921231 -0.0268192 0)
(-0.00916006 -0.0248403 0)
(-0.00924354 -0.0243523 0)
(-0.0091927 -0.0223837 0)
(-0.00926911 -0.0218476 0)
(-0.00921862 -0.0199618 0)
(-0.00928808 -0.0192836 0)
(-0.00923343 -0.0174553 0)
(-0.00930063 -0.016635 0)
(-0.00923969 -0.0148048 0)
(-0.00930471 -0.0139099 0)
(-0.00924349 -0.0121349 0)
(-0.00930427 -0.0111249 0)
(-0.00924238 -0.00944642 0)
(-0.00930244 -0.00837409 0)
(-0.00923638 -0.00672326 0)
(-0.00929523 -0.00564256 0)
(-0.00922561 -0.00394088 0)
(-0.00916571 -0.00506676 0)
(-0.00915301 -0.00228654 0)
(-0.00921009 -0.00110836 0)
(-0.00913688 0.000517714 0)
(-0.00918972 0.00175133 0)
(-0.00911432 0.00332704 0)
(-0.00916417 0.0046048 0)
(-0.00908313 0.00614405 0)
(-0.00913334 0.00747533 0)
(-0.00904905 0.00900193 0)
(-0.00909773 0.0103554 0)
(-0.00901391 0.0118163 0)
(-0.00905684 0.0132304 0)
(-0.00896892 0.0145868 0)
(-0.00901002 0.0161175 0)
(-0.00891862 0.0174176 0)
(-0.0089586 0.0189783 0)
(-0.00886879 0.0202055 0)
(-0.00890274 0.0217834 0)
(-0.00880904 0.0228871 0)
(-0.00884032 0.0245608 0)