/*--------------------------------*- C++ -*----------------------------------*\
| =========                 |                                                 |
| \\      /  F ield         | OpenFOAM: The Open Source CFD Toolbox           |
|  \\    /   O peration     | Version:  v2012                                 |
|   \\  /    A nd           | Website:  www.openfoam.com                      |
|    \\/     M anipulation  |                                                 |
\*---------------------------------------------------------------------------*/
FoamFile
{
    version     2.0;
    format      ascii;
    class       volScalarField::Internal;
    location    "250";
    object      V0;
}
// * * * * * * * * * * * * * * * * * * * * * * * * * * * * * * * * * * * * * //

dimensions      [0 3 0 0 0 0 0];


value           nonuniform List<scalar> 
13851
(
0.00529909
0.0201702
0.0265811
0.00134163
0.172752
0.0236721
0.0281963
0.152812
0.00141703
0.0772701
0.00918926
0.0982709
0.0348611
0.00115836
0.0128286
0.00427025
0.00118311
0.0495338
0.00369541
0.00599867
0.0136714
0.0223245
0.00165665
0.181946
0.00301531
0.00737503
0.00312612
0.00282563
0.001832
0.0859212
0.00185525
0.0290979
0.00590792
0.00224888
0.00895099
0.00212644
0.183631
0.00233601
0.00186509
0.0428463
0.00187427
0.00185309
0.00138008
0.00332556
0.00198488
0.0693847
0.164918
0.00396794
0.0333969
0.0407654
0.00138093
0.0401286
0.00482727
0.0143225
0.00156763
0.0314672
0.00514933
0.00159835
0.00333929
0.00146067
0.103765
0.00340425
0.0939832
0.0246282
0.00380532
0.00308322
0.00113077
0.00496004
0.0463182
0.00138569
0.001479
0.0107507
0.0417045
0.00131229
0.0139518
0.0242018
0.00162714
0.122789
0.00344861
0.0830313
0.0420507
0.0040648
0.0112759
0.0015128
0.00142699
0.00185464
0.0200103
0.00137567
0.0635487
0.00147772
0.0409598
0.0260972
0.00135234
0.00164419
0.00178574
0.00317302
0.070098
0.00490944
0.0013252
0.00479048
0.00425698
0.00838263
0.00815198
0.0406737
0.0672045
0.0106923
0.0758995
0.00136179
0.0272681
0.0484125
0.0142728
0.0786636
0.00424029
0.00695794
0.00491828
0.0172648
0.089054
0.156294
0.00109192
0.00173476
0.00393256
0.0770441
0.0340494
0.00128659
0.00418774
0.00453428
0.0719455
0.00800231
0.0017176
0.0101228
0.0201493
0.0168647
0.0025705
0.0021356
0.00759169
0.00177312
0.00659329
0.0013719
0.0110749
0.0114992
0.00433744
0.0296499
0.0546622
0.0039786
0.00265731
0.026395
0.127242
0.00162547
0.00168667
0.00658235
0.00339801
0.00512997
0.00655833
0.00401507
0.0360616
0.0535002
0.136167
0.00146656
0.00796266
0.0222954
0.177072
0.00199338
0.0110675
0.00523484
0.00123733
0.00174494
0.00207786
0.00149551
0.0155674
0.00217641
0.107277
0.110409
0.00898485
0.162253
0.00175786
0.00346428
0.00416297
0.0973811
0.0142877
0.00492966
0.00430318
0.00387113
0.0153216
0.0145372
0.00135284
0.00139301
0.00495106
0.0127993
0.0375324
0.0801892
0.00263216
0.011622
0.000860991
0.0229065
0.0264674
0.0050818
0.00397725
0.0436775
0.0465106
0.0064406
0.00426481
0.00168533
0.00206166
0.0136443
0.00159813
0.00145225
0.0236849
0.00937008
0.00159525
0.0193698
0.00438363
0.0317506
0.00349868
0.159156
0.00974519
0.0197657
0.0429192
0.00326646
0.0475176
0.00115803
0.10825
0.00537596
0.00135705
0.00192314
0.0124577
0.00894523
0.16956
0.00431399
0.0957721
0.0113889
0.00187857
0.0142673
0.0238922
0.102452
0.00176367
0.094805
0.00194982
0.00178342
0.00513256
0.161931
0.00270162
0.0014723
0.0022092
0.00479982
0.0161528
0.00308678
0.00345012
0.013593
0.00319667
0.0133707
0.00126217
0.00564436
0.174834
0.0206236
0.00416502
0.00183776
0.00141148
0.0690864
0.00386105
0.0570174
0.00400542
0.00458745
0.013558
0.00970118
0.00535244
0.0571407
0.00702021
0.00505766
0.00339733
0.0967364
0.0426818
0.0109247
0.00211666
0.00145433
0.00929276
0.0647133
0.00361198
0.00396351
0.00573625
0.0111805
0.00182035
0.00129554
0.0166832
0.0120768
0.00241943
0.0675255
0.128803
0.00425119
0.00829788
0.0819948
0.155499
0.0780412
0.160595
0.0147923
0.134569
0.00143145
0.0107526
0.0432451
0.0018398
0.00101127
0.0398022
0.0048577
0.0012904
0.027212
0.0361529
0.0110547
0.00133501
0.00171514
0.00793361
0.16735
0.00250005
0.100477
0.00771687
0.00134768
0.00323627
0.0295094
0.0022425
0.0031229
0.00187041
0.00462829
0.00792709
0.00173587
0.00162837
0.00258935
0.043219
0.00144838
0.0013562
0.00191857
0.00229692
0.0120188
0.00861187
0.0149954
0.00112204
0.00777265
0.145507
0.155107
0.0168494
0.00164041
0.00131951
0.07879
0.00174231
0.014863
0.0131651
0.02004
0.00108229
0.00420401
0.00437519
0.0255614
0.0222014
0.00158036
0.0354737
0.00373574
0.0196231
0.0105905
0.0128046
0.0557346
0.0485487
0.00517841
0.00434782
0.00520468
0.00281249
0.00177181
0.0178862
0.00162416
0.00391693
0.0846242
0.00299698
0.00606235
0.0014755
0.0200038
0.00711805
0.00336866
0.00246402
0.00550304
0.00143665
0.0264292
0.0027489
0.00153448
0.0157611
0.00112258
0.0144708
0.00187458
0.0132204
0.0103807
0.005495
0.00313439
0.0483433
0.0206779
0.00660181
0.0122546
0.0493324
0.00869021
0.00191555
0.0329311
0.00953961
0.00150237
0.0264351
0.00278834
0.00899217
0.00190226
0.0194378
0.00834535
0.00216659
0.00411839
0.0112414
0.00148523
0.00140057
0.00280709
0.0494913
0.00503627
0.0128226
0.00761102
0.0657634
0.00141099
0.0018714
0.00256679
0.0231256
0.00530184
0.003319
0.00141447
0.0960225
0.00132399
0.00414291
0.001528
0.0110354
0.00331722
0.0449153
0.154058
0.00129193
0.00299248
0.067458
0.0161651
0.00903272
0.10709
0.00192415
0.00748715
0.00650149
0.0200277
0.0326032
0.0412435
0.00262399
0.0532381
0.0468315
0.00275914
0.00211037
0.0186652
0.00333669
0.0930294
0.127138
0.0269862
0.00467949
0.00921155
0.0484412
0.0326777
0.00360255
0.0355018
0.00174558
0.134137
0.0193953
0.00191641
0.00807677
0.149544
0.103601
0.0204088
0.041233
0.00266827
0.00235657
0.0138037
0.00111017
0.0259096
0.0952996
0.001523
0.00325289
0.0100545
0.0399629
0.00148794
0.0110027
0.00168249
0.0308564
0.0154607
0.00517492
0.013705
0.0019049
0.00274028
0.00297187
0.0175756
0.00399593
0.054808
0.00160282
0.0112703
0.00328885
0.016256
0.026234
0.00966104
0.00845398
0.148084
0.00130962
0.00134637
0.00221988
0.00130191
0.00269707
0.00154074
0.00343739
0.0139659
0.133553
0.00272241
0.0749536
0.0610633
0.0120032
0.00188617
0.026652
0.0270257
0.00505548
0.00833154
0.0604183
0.00242595
0.0667241
0.00172882
0.00324414
0.0703205
0.0293463
0.00373201
0.00285918
0.0956925
0.00250302
0.00251398
0.0702201
0.00177542
0.00387946
0.00468572
0.0205446
0.00267749
0.00142156
0.05915
0.00350894
0.0509474
0.0677649
0.00287245
0.00146169
0.0134823
0.00977826
0.0678976
0.00654126
0.0017254
0.00172546
0.0632454
0.00110447
0.0538251
0.0410724
0.0103764
0.0152906
0.0903668
0.0187627
0.00168162
0.00385756
0.00155976
0.029011
0.0553712
0.00187397
0.121965
0.0055065
0.0208505
0.0144962
0.0155986
0.0019246
0.00142814
0.0199292
0.00157767
0.031026
0.00803925
0.00187396
0.00152913
0.0410052
0.0469611
0.00632843
0.00135392
0.00358
0.00816795
0.0017123
0.0139126
0.0120258
0.0019166
0.00238396
0.00549611
0.00154883
0.00371931
0.00167173
0.0341489
0.00274343
0.0031782
0.100486
0.00134182
0.00217125
0.0144527
0.0109302
0.040471
0.00150866
0.00585726
0.00206189
0.0447228
0.170373
0.0128622
0.00915774
0.130001
0.00160605
0.16354
0.00401897
0.0228928
0.00693317
0.03711
0.0473555
0.0100242
0.00117303
0.0110362
0.00154542
0.013588
0.0993959
0.0664075
0.00847794
0.0281604
0.00575664
0.0248776
0.00996713
0.00328206
0.123031
0.00119303
0.15366
0.00573047
0.00137441
0.00199443
0.011687
0.00200778
0.00559125
0.0044636
0.00178458
0.0580695
0.00179883
0.0131122
0.0144984
0.00147623
0.00308166
0.0587141
0.00619724
0.0420475
0.001642
0.00126731
0.0328543
0.00503697
0.00212261
0.170451
0.139738
0.00559752
0.00109232
0.00260261
0.0220822
0.00542543
0.0347621
0.0600544
0.00282276
0.00477474
0.00500709
0.111175
0.00387655
0.00824644
0.00786031
0.0248204
0.0251927
0.00675803
0.0132578
0.0048734
0.0108022
0.0104016
0.00562248
0.00237739
0.00321417
0.00191834
0.00283879
0.00295688
0.00141558
0.010113
0.00253646
0.00445894
0.0484854
0.0135249
0.0037855
0.0174548
0.0865726
0.0840876
0.00578435
0.00133169
0.0184073
0.00160853
0.100095
0.00247314
0.00413239
0.00127098
0.00598296
0.0184437
0.0249172
0.0015197
0.00395575
0.0112577
0.00255233
0.0373776
0.00280082
0.00494456
0.00414142
0.0150752
0.00359852
0.0385879
0.155699
0.0256332
0.0648244
0.0017597
0.127784
0.00352191
0.00179559
0.00554647
0.00169874
0.00100781
0.00386263
0.00358939
0.0138892
0.117633
0.0404115
0.101471
0.0696407
0.153143
0.00774924
0.0051523
0.00685652
0.0028352
0.026069
0.0015528
0.170573
0.00130725
0.00967118
0.150303
0.105216
0.00193083
0.0209988
0.00222083
0.00205376
0.00805038
0.00570972
0.0676377
0.00209369
0.0176011
0.0252818
0.00278848
0.122273
0.0341265
0.0512669
0.00954592
0.00126959
0.0172902
0.0150979
0.00367914
0.00168075
0.0129165
0.014597
0.00187855
0.106869
0.00201307
0.150096
0.0315664
0.00300975
0.00641364
0.00553569
0.00528815
0.00971065
0.123037
0.159721
0.00737922
0.0334904
0.102064
0.0184516
0.003699
0.105425
0.00394627
0.00275715
0.00266749
0.00558676
0.00170808
0.0102703
0.111671
0.00555016
0.0948864
0.0186345
0.00239798
0.00182927
0.00183774
0.00192888
0.0444473
0.0327174
0.00559723
0.0249944
0.0683118
0.00157945
0.00373707
0.00107826
0.00505365
0.00610074
0.0521848
0.0649502
0.00227253
0.00615532
0.0278108
0.156145
0.00366949
0.00430292
0.00161167
0.035918
0.151901
0.00116731
0.0306692
0.0144273
0.126421
0.00186293
0.145487
0.00169175
0.0815841
0.00491826
0.012271
0.00620758
0.012713
0.0424017
0.0200237
0.149067
0.00311742
0.0287694
0.00157225
0.0268977
0.00277543
0.00174828
0.0138449
0.109783
0.00148154
0.00231611
0.0189563
0.00635393
0.0421791
0.00129906
0.0469554
0.00309661
0.0944507
0.113521
0.00240274
0.0128625
0.101112
0.0111553
0.001531
0.00173504
0.00201283
0.0709096
0.00140455
0.0858643
0.135086
0.0344008
0.11402
0.125585
0.00202319
0.0021961
0.0367821
0.159071
0.0128837
0.0411716
0.00169125
0.00476867
0.000940617
0.00169662
0.0184997
0.00444532
0.0968051
0.01299
0.00506578
0.0658805
0.137348
0.00334877
0.00111597
0.0076009
0.00108335
0.00735074
0.0852056
0.0110391
0.00593528
0.00123887
0.0147657
0.00251163
0.00561415
0.116381
0.00168264
0.00152702
0.00120208
0.00261015
0.00248014
0.0177412
0.00281781
0.036955
0.00295816
0.0182791
0.151171
0.00172932
0.0249063
0.130143
0.0384955
0.029231
0.00164463
0.00388076
0.0748567
0.0106783
0.00136231
0.0261376
0.00154934
0.0227304
0.00566454
0.00182331
0.122185
0.00317442
0.0124022
0.0139113
0.00176949
0.0262534
0.00426616
0.00887954
0.00164939
0.0420803
0.00123123
0.0158615
0.00129434
0.00126664
0.00120157
0.0101908
0.0419934
0.0414022
0.179365
0.0112181
0.0977315
0.00158552
0.0154056
0.0144911
0.0111579
0.0209249
0.0789482
0.0186147
0.0178898
0.0232012
0.0171813
0.00168137
0.00310758
0.0157938
0.00860839
0.00218461
0.0304276
0.00166723
0.106461
0.0116063
0.0256668
0.0499954
0.00942167
0.0843124
0.0790668
0.00760963
0.0406908
0.00384826
0.0287985
0.00116042
0.00319077
0.0035513
0.00341342
0.0453058
0.00161196
0.00462685
0.137405
0.0154098
0.028201
0.00187752
0.0224913
0.00772321
0.00294508
0.00142227
0.00655453
0.0409883
0.00208143
0.00334639
0.00232929
0.0130035
0.0960642
0.0596808
0.00617812
0.0407807
0.00124627
0.00454538
0.121987
0.00366815
0.00312074
0.0459491
0.00184821
0.00151632
0.0045097
0.0229468
0.00192449
0.0086718
0.113947
0.00109887
0.013735
0.0462156
0.0698084
0.0147195
0.0111479
0.00165444
0.00144668
0.0113768
0.00161106
0.0144246
0.0461461
0.0041649
0.083282
0.0025628
0.0684135
0.134423
0.0173112
0.0387003
0.00161605
0.00148093
0.00344574
0.00129404
0.00212174
0.0135793
0.0427123
0.0289806
0.00381171
0.0599121
0.141776
0.00978521
0.00287019
0.00340762
0.150866
0.0103291
0.0126623
0.00481012
0.00106215
0.055195
0.0994843
0.0284548
0.00333424
0.0185155
0.00170895
0.0244637
0.153576
0.0571961
0.0652444
0.0213626
0.0040525
0.00180942
0.00164642
0.011682
0.0893121
0.00262193
0.0328265
0.00274825
0.00139146
0.011591
0.000959311
0.0017512
0.00161316
0.00761539
0.0145113
0.00139292
0.0153166
0.0107745
0.00457462
0.00364396
0.0386037
0.00155651
0.0465301
0.00199524
0.00264935
0.101902
0.018238
0.008421
0.00347843
0.0144564
0.137787
0.0181537
0.0245567
0.0242963
0.00204566
0.0943551
0.00220745
0.00123866
0.0459779
0.0146781
0.0111335
0.096167
0.00153881
0.00127728
0.00165179
0.00142174
0.0860214
0.0214832
0.0177393
0.033095
0.00363609
0.0125651
0.14036
0.00657446
0.017637
0.00224138
0.012051
0.00108179
0.0243419
0.0217338
0.00664161
0.00596537
0.00676017
0.0526554
0.00120361
0.00148165
0.00138132
0.00124778
0.00195655
0.00153893
0.00135947
0.0528756
0.053117
0.0416365
0.00344565
0.0102914
0.00696815
0.00123933
0.0416068
0.121034
0.067946
0.00359378
0.100237
0.0195217
0.0185104
0.00186535
0.0211082
0.0761573
0.100334
0.0453635
0.178355
0.00990339
0.0036343
0.00881462
0.00226397
0.0590109
0.0601699
0.00174513
0.00174975
0.00126367
0.00266095
0.0064143
0.00256828
0.0762957
0.00616046
0.025335
0.0824758
0.017158
0.00138567
0.0325709
0.00560673
0.00212517
0.0408113
0.0432657
0.0152948
0.00344917
0.15466
0.0017887
0.0466423
0.00354114
0.098976
0.0394145
0.0215406
0.00461947
0.0295519
0.00278168
0.00108078
0.00365135
0.00199184
0.0462054
0.00133401
0.00293204
0.0636578
0.00270384
0.0344368
0.00644845
0.0366436
0.044984
0.102925
0.0518419
0.0314489
0.0134615
0.00720972
0.0400031
0.0942777
0.00671039
0.0698999
0.00189261
0.102857
0.0143032
0.0133237
0.00137736
0.00297191
0.0956295
0.00401169
0.1199
0.0153336
0.00656738
0.0030218
0.0101773
0.155729
0.00541855
0.0051168
0.00562382
0.00359688
0.00909009
0.0059
0.00723419
0.00670202
0.0201298
0.067559
0.00227322
0.00130969
0.0219277
0.0893001
0.00124692
0.104166
0.010625
0.0860802
0.00628285
0.00306812
0.0819817
0.00104205
0.0201813
0.145778
0.00425388
0.13963
0.00598106
0.00140604
0.01025
0.00268592
0.0864291
0.160718
0.00728409
0.130997
0.119992
0.019682
0.0162669
0.00703616
0.00531356
0.0335232
0.00972848
0.0639169
0.0923765
0.127527
0.0625133
0.00282284
0.0490243
0.0142905
0.0033533
0.10586
0.113814
0.00135855
0.130452
0.00114702
0.0318517
0.00191535
0.00346652
0.00595363
0.00225928
0.00645964
0.00188463
0.0333949
0.00413224
0.0172267
0.0666299
0.0478298
0.0146817
0.0165789
0.0460726
0.00764439
0.0852632
0.0208446
0.00131047
0.00123207
0.00218544
0.0188121
0.00721452
0.00133549
0.00158575
0.109057
0.0215769
0.00222076
0.0456551
0.0116814
0.00210688
0.00173989
0.0184638
0.0111186
0.0274964
0.00313645
0.137247
0.00855655
0.00247362
0.0302436
0.139038
0.00173931
0.00973295
0.00344055
0.00195474
0.00530735
0.0294496
0.079796
0.0303523
0.00132332
0.00290657
0.00238727
0.00814929
0.0485628
0.00104704
0.0891906
0.00446126
0.0156913
0.0307986
0.0105136
0.0793122
0.00165431
0.00217542
0.074408
0.00691897
0.00867853
0.00239313
0.00958661
0.00769693
0.00332009
0.0131732
0.00305314
0.00584902
0.0887266
0.0120503
0.00435692
0.00246472
0.0834493
0.00250606
0.0094059
0.00758589
0.159066
0.00192485
0.021558
0.02217
0.0638991
0.00983506
0.0118725
0.0060517
0.161984
0.0285221
0.00650752
0.0012253
0.00872124
0.091962
0.0292543
0.0134527
0.00394154
0.0897507
0.00566252
0.00208861
0.00824867
0.00189927
0.0119051
0.00123316
0.00357833
0.0459434
0.00274566
0.132798
0.0212016
0.0110737
0.013132
0.005507
0.00961769
0.00974322
0.0101878
0.0146715
0.0172705
0.10318
0.00557299
0.0227793
0.0144628
0.00297351
0.0183336
0.0143479
0.0883599
0.00144056
0.00583889
0.0323557
0.0244717
0.0219558
0.00120907
0.00457625
0.01061
0.0019069
0.00307205
0.00286949
0.00549989
0.00291112
0.0726555
0.00258968
0.116943
0.0144262
0.0027794
0.00147473
0.00277955
0.00216035
0.0729227
0.00111288
0.0757514
0.00642678
0.0141837
0.00246906
0.00186782
0.0163557
0.151344
0.00365608
0.00745178
0.0664049
0.0015213
0.0733323
0.0179639
0.0220278
0.035954
0.0148499
0.0227543
0.0590524
0.0121527
0.00374786
0.0120451
0.00900414
0.0572459
0.00124348
0.00185153
0.118748
0.00329417
0.0185783
0.0122174
0.00237227
0.114361
0.02906
0.0142669
0.00114881
0.0694025
0.146025
0.013998
0.00236301
0.12001
0.0131952
0.0111526
0.00294162
0.0094612
0.0117324
0.00444581
0.0720352
0.00322587
0.111785
0.0012507
0.0138904
0.0658452
0.019274
0.0057776
0.135152
0.0442065
0.00449672
0.00193392
0.0351376
0.00128341
0.113018
0.110434
0.00803513
0.0874924
0.0465195
0.00211456
0.151974
0.011446
0.00531045
0.00164151
0.00303268
0.0559475
0.0141666
0.0141108
0.126937
0.033498
0.0872135
0.00266708
0.125382
0.00316172
0.00406811
0.103971
0.068272
0.0154748
0.0039318
0.003327
0.00650101
0.00733602
0.0198346
0.0013983
0.00620833
0.0151563
0.0115143
0.00663637
0.00567127
0.00132425
0.0117575
0.00150249
0.00219667
0.00159457
0.0236626
0.0412749
0.0114805
0.00959907
0.065921
0.0309351
0.00505142
0.1618
0.0365982
0.0601176
0.0915951
0.0287067
0.0451816
0.00122813
0.133561
0.00199696
0.126195
0.00500485
0.0342191
0.00571315
0.00552646
0.0345383
0.00196259
0.0150131
0.115726
0.00888963
0.0698481
0.0129365
0.038898
0.00191134
0.0221697
0.00981751
0.00367766
0.00222309
0.0148259
0.00245697
0.00331221
0.00796348
0.0451443
0.0313088
0.00522135
0.00799096
0.000982633
0.0716611
0.00189992
0.0404283
0.00504498
0.00195013
0.0123098
0.0027174
0.02215
0.0139441
0.0166599
0.00205532
0.0134904
0.132048
0.00906712
0.0047141
0.0223703
0.0605789
0.135622
0.00157021
0.162368
0.0148809
0.00182015
0.0138902
0.0469588
0.00836219
0.0200024
0.00222304
0.117298
0.0450304
0.088404
0.016165
0.0308523
0.045026
0.00596945
0.00168287
0.0562338
0.10595
0.00237332
0.0420332
0.00126618
0.0279578
0.00188197
0.0620466
0.0171085
0.138986
0.00145457
0.00193525
0.0111253
0.0049237
0.015108
0.051028
0.0967081
0.00188703
0.139508
0.00588307
0.122587
0.0107366
0.119855
0.00218237
0.102291
0.00974831
0.136305
0.00366304
0.00251938
0.0651436
0.00801827
0.00190925
0.00588284
0.00237351
0.00263698
0.00403824
0.0259284
0.0125039
0.00532326
0.00285598
0.0417356
0.0119278
0.0139884
0.0429666
0.00133486
0.00176946
0.00683846
0.00478321
0.00348237
0.0122893
0.00179813
0.0550718
0.0705398
0.00549345
0.00214048
0.00409295
0.00468352
0.00277665
0.0618258
0.0020593
0.00142661
0.00193064
0.15013
0.00121262
0.00150908
0.00292187
0.00161033
0.0014036
0.00514089
0.0136757
0.00393382
0.0166379
0.049334
0.0029047
0.00615195
0.0980993
0.00129729
0.120953
0.0143137
0.0112652
0.0147581
0.00286407
0.00940398
0.00128015
0.00921312
0.015924
0.00249439
0.00152034
0.00512774
0.0291586
0.0188956
0.00657133
0.00596072
0.114535
0.00993418
0.00586008
0.0047264
0.0472784
0.00411373
0.0150442
0.00864216
0.00224228
0.00290087
0.0247747
0.00509211
0.00127579
0.0285565
0.0264448
0.00197583
0.00380518
0.0212136
0.0194715
0.0973717
0.0062557
0.0263534
0.00183727
0.00609752
0.0299487
0.142104
0.00569045
0.014678
0.00284385
0.00128374
0.0648765
0.0665622
0.0124109
0.107474
0.0233275
0.0263553
0.0243377
0.0152103
0.0600419
0.0184547
0.0390743
0.00957774
0.00304441
0.145716
0.00206147
0.000822455
0.0981377
0.00245573
0.00501471
0.00626926
0.0201452
0.00566131
0.0168056
0.0049769
0.0157016
0.0217642
0.149242
0.00116273
0.016942
0.00188068
0.0216301
0.041655
0.0883514
0.00610551
0.0562201
0.00854618
0.00699098
0.00231783
0.0840153
0.00299316
0.00281104
0.00143486
0.0725943
0.00521989
0.00198559
0.00285718
0.00299618
0.0270495
0.0348798
0.00405326
0.00276427
0.00285881
0.0117427
0.00313577
0.123669
0.0510391
0.00854153
0.125907
0.0428622
0.00424732
0.153452
0.00462137
0.0600305
0.00137085
0.00214539
0.00215063
0.0013755
0.00141101
0.0383442
0.0971236
0.00236733
0.0745395
0.0658903
0.0955521
0.00533727
0.00188687
0.00139292
0.0145921
0.0461537
0.0217881
0.00984099
0.00102783
0.131366
0.00254064
0.0015726
0.132614
0.108656
0.00150854
0.00600041
0.0299584
0.0673074
0.0022328
0.00133422
0.046096
0.00449445
0.15087
0.00141927
0.00224052
0.0280832
0.00161401
0.00101077
0.00231798
0.0640271
0.0450489
0.13976
0.153406
0.00182642
0.0691417
0.00375133
0.0031264
0.00109183
0.0181452
0.00895173
0.00316645
0.00936199
0.00215091
0.0015605
0.122012
0.0216083
0.0217565
0.00434831
0.00185394
0.107486
0.00129928
0.0124518
0.0106389
0.0171623
0.130216
0.0036144
0.0112461
0.00150424
0.13112
0.0084238
0.0305157
0.0033216
0.0251417
0.0015372
0.00243631
0.00368588
0.00519603
0.048161
0.014238
0.00578012
0.00337607
0.00169276
0.00198552
0.133212
0.00254071
0.00468868
0.00183026
0.0150858
0.0103897
0.011492
0.0460428
0.00216427
0.0920567
0.0143826
0.00129221
0.00180646
0.00251834
0.00177399
0.0157069
0.0081223
0.0688897
0.00151932
0.0160746
0.00192411
0.0683033
0.00217499
0.0800955
0.0984873
0.0137415
0.00876622
0.00968559
0.0405113
0.00144847
0.0102436
0.056908
0.0114635
0.00136659
0.00330423
0.0526628
0.00158963
0.0210657
0.0119397
0.0154286
0.118411
0.00793412
0.0867218
0.00234561
0.00575635
0.019643
0.0569177
0.00361061
0.0111139
0.0569053
0.00239143
0.00319568
0.00369612
0.0866798
0.00321664
0.091588
0.00431063
0.014038
0.00512256
0.0029319
0.00120217
0.0100063
0.00186737
0.00844574
0.0135416
0.0808859
0.00210168
0.00538015
0.00494083
0.0073768
0.156649
0.00150943
0.00533893
0.00350593
0.00332853
0.00202279
0.00129342
0.00301743
0.00151409
0.0129544
0.00820888
0.088
0.0470146
0.100008
0.00399513
0.0165493
0.0101702
0.00166096
0.0670099
0.113219
0.0111302
0.00496494
0.0187819
0.129522
0.00171721
0.0250847
0.00865547
0.030812
0.00141311
0.0138536
0.00197734
0.00629164
0.0131176
0.00768822
0.0836393
0.0011578
0.00316803
0.00722009
0.0435517
0.10399
0.00123852
0.00111203
0.00160857
0.0507064
0.00537902
0.0029716
0.0454285
0.101454
0.0455397
0.00186369
0.00341266
0.0121982
0.0195552
0.0200672
0.00209178
0.00497501
0.00336796
0.0197283
0.0143145
0.0984593
0.00477517
0.00860623
0.0453005
0.00189109
0.00166324
0.00144769
0.00193479
0.00145247
0.00168509
0.00242786
0.0254518
0.0652998
0.00217249
0.00121999
0.00268199
0.0302283
0.0114191
0.0545014
0.053787
0.00262436
0.00212482
0.00770018
0.0556213
0.00325356
0.00627773
0.01004
0.00141344
0.00274994
0.00356229
0.116557
0.0016933
0.00262826
0.00346595
0.0142128
0.0107506
0.0411927
0.0827225
0.0116595
0.00995699
0.0205518
0.0112894
0.0171132
0.0152768
0.00330361
0.00136329
0.0141942
0.0105777
0.00144603
0.00349514
0.0957413
0.00248741
0.00247988
0.00109384
0.0108697
0.0426773
0.0156673
0.0212181
0.0130245
0.116456
0.0100192
0.0141277
0.0087557
0.00418382
0.155245
0.0235503
0.00126463
0.00189329
0.00171178
0.00307735
0.00495155
0.103231
0.0569949
0.0149051
0.0702015
0.00183626
0.0389126
0.156235
0.0846941
0.00187853
0.00209819
0.0285297
0.00850574
0.0157547
0.0097733
0.0155593
0.00769214
0.0116485
0.0114118
0.00127583
0.0193497
0.0014228
0.0110062
0.00161424
0.0166243
0.146273
0.0799669
0.00512894
0.00463829
0.118139
0.00915014
0.0157428
0.00788386
0.00248984
0.00162395
0.00227373
0.147969
0.00266044
0.0113303
0.0110351
0.0594556
0.00729561
0.019483
0.00133082
0.00244181
0.0106275
0.0799872
0.00189258
0.0114664
0.0011657
0.00127639
0.00328102
0.0229925
0.00478474
0.00215918
0.00305327
0.00143792
0.00775202
0.045279
0.0109562
0.0466068
0.00249513
0.0142897
0.01476
0.0029619
0.00183395
0.0563421
0.0488385
0.0014851
0.0109032
0.00167728
0.00994414
0.0535779
0.0110288
0.00309204
0.00815136
0.00272725
0.0109713
0.00283378
0.0186521
0.10239
0.0493588
0.0037311
0.0270592
0.00376392
0.0592506
0.0435967
0.00397891
0.0169751
0.0436617
0.0920768
0.0123629
0.00268859
0.0104322
0.0115959
0.0149041
0.00777442
0.0396717
0.00552221
0.014742
0.0108879
0.00508639
0.0181316
0.0053588
0.00712891
0.0529398
0.00715738
0.00158337
0.00141298
0.0459801
0.00237963
0.00118675
0.0496105
0.0247051
0.00261359
0.00134506
0.0137101
0.00137065
0.00331009
0.0465006
0.00632298
0.103394
0.0198797
0.00718853
0.00212822
0.00273251
0.003427
0.00308845
0.00193631
0.00146988
0.0299972
0.00118621
0.0585754
0.00258598
0.00138006
0.0869033
0.128446
0.00139862
0.0416685
0.0822313
0.00312494
0.00191599
0.00446488
0.0190683
0.00126168
0.144513
0.00194585
0.00127913
0.147009
0.00256444
0.00315856
0.00131271
0.00134354
0.00141047
0.00132056
0.0744269
0.0226711
0.00866758
0.00716799
0.077533
0.00351648
0.0614195
0.00137387
0.00361095
0.00708059
0.00409471
0.00135684
0.00324097
0.00358262
0.00571444
0.00153473
0.0036302
0.0203846
0.100707
0.00255995
0.0102718
0.0747971
0.00195654
0.0505831
0.00251806
0.0398722
0.00173394
0.0251787
0.0523667
0.00146275
0.0103979
0.00821392
0.00121748
0.00227355
0.00251289
0.0171281
0.00890061
0.0214489
0.0110577
0.00477338
0.0110102
0.116496
0.00238264
0.00836169
0.0113334
0.00130924
0.0110636
0.0107158
0.00406424
0.00515607
0.00985632
0.0524474
0.0041992
0.0815643
0.00520686
0.00272202
0.0011431
0.0725817
0.0113176
0.00098335
0.0315839
0.00798985
0.0153986
0.0108988
0.00212274
0.00736398
0.0211963
0.0019127
0.115475
0.00184061
0.11015
0.0293021
0.00516155
0.00178975
0.012472
0.00257387
0.00357467
0.014888
0.0427706
0.00392267
0.0103271
0.00152886
0.0155093
0.00224638
0.00460513
0.0144771
0.0155199
0.00604205
0.0115841
0.0050423
0.00766378
0.0102373
0.0216309
0.0438827
0.00271652
0.049174
0.016327
0.0859845
0.00507823
0.0159263
0.00784168
0.00134422
0.0250053
0.00460537
0.108925
0.0390202
0.124533
0.0783064
0.0195916
0.0831195
0.00505521
0.00121147
0.0077505
0.00998637
0.022453
0.0426929
0.00299274
0.0384644
0.00227841
0.00239783
0.00140287
0.0047829
0.0121473
0.0182573
0.126992
0.0129225
0.00452388
0.0108709
0.00133955
0.00895358
0.00163789
0.00277039
0.145906
0.110967
0.00146318
0.0515822
0.015508
0.00552182
0.00342309
0.02753
0.00167857
0.109653
0.0186507
0.0556077
0.0306586
0.00427123
0.00463654
0.0365643
0.0144061
0.00917411
0.0095238
0.00684073
0.00307018
0.00333937
0.00429668
0.00497009
0.0170732
0.0255256
0.00774755
0.00178684
0.00208448
0.00194474
0.0121554
0.00194038
0.0051266
0.0308209
0.0840026
0.00769242
0.0963251
0.0150161
0.00112038
0.0560876
0.0747429
0.00337442
0.0025296
0.0089508
0.00328012
0.0390476
0.00123579
0.00980266
0.00166811
0.0119156
0.0378301
0.00187727
0.00701314
0.0432383
0.00583946
0.135046
0.00486976
0.0155994
0.00638225
0.00200095
0.00939958
0.00225625
0.0606475
0.00185313
0.0276017
0.0161836
0.025891
0.0101995
0.13572
0.00600156
0.00186026
0.00248762
0.00932655
0.0129035
0.00505615
0.0504952
0.121971
0.0321401
0.00269915
0.021952
0.00178309
0.00130794
0.00602261
0.130179
0.00476157
0.00389357
0.0045609
0.012228
0.00125471
0.0494864
0.106969
0.0510211
0.00258969
0.0436243
0.0455935
0.00180571
0.0554017
0.0047346
0.00465705
0.062796
0.00161761
0.0189129
0.00175656
0.0479543
0.00262682
0.0297271
0.00519627
0.00166458
0.00649812
0.0608668
0.0182761
0.0022667
0.0159669
0.00479568
0.0150169
0.0188529
0.00481148
0.0152305
0.0376158
0.00122847
0.0154225
0.0151378
0.00392949
0.0481604
0.0671903
0.135037
0.015053
0.0354139
0.0150757
0.00232818
0.000938054
0.00360691
0.0010301
0.00749699
0.0129275
0.00174023
0.00166533
0.0280537
0.000837042
0.00226824
0.00137661
0.00286531
0.0144455
0.00218093
0.00139419
0.00178273
0.00280222
0.00190622
0.00775298
0.00502794
0.0133632
0.0200807
0.154438
0.00271868
0.153112
0.00169795
0.00420785
0.00361301
0.109417
0.00636806
0.00737714
0.0238851
0.149189
0.146339
0.00413103
0.0272411
0.0394872
0.0104226
0.0011932
0.0227114
0.00381181
0.112626
0.00393378
0.0059018
0.0339618
0.0163707
0.0849167
0.00169111
0.00191882
0.00432036
0.0018784
0.0121403
0.00529472
0.106723
0.0105639
0.155753
0.0343792
0.125973
0.00190743
0.0637314
0.00868325
0.00342199
0.0152855
0.014755
0.0568797
0.00155383
0.00450005
0.00173676
0.0011497
0.00451191
0.00276652
0.00117187
0.00357016
0.00285725
0.00127096
0.00397437
0.00992283
0.0029987
0.00155703
0.0630448
0.00157434
0.00465915
0.00211138
0.12505
0.00741435
0.0020102
0.148566
0.00147249
0.0168814
0.000962516
0.132048
0.0436969
0.00685491
0.00347701
0.0188121
0.00713947
0.0620603
0.0450278
0.00130873
0.00222311
0.00169745
0.00803018
0.0423844
0.0290728
0.11664
0.0100927
0.00236237
0.00191291
0.00277386
0.00337033
0.0118963
0.118823
0.130355
0.001266
0.00140587
0.00418701
0.0153039
0.0197259
0.00550321
0.00151341
0.00155598
0.0822404
0.064511
0.00146051
0.0253604
0.00345334
0.0141778
0.0374948
0.0148685
0.00848021
0.00136605
0.00122641
0.141241
0.0698001
0.0194079
0.00248909
0.00179025
0.140968
0.00489001
0.00134705
0.114046
0.00264371
0.00191293
0.00178777
0.0716333
0.00157524
0.00145616
0.00892458
0.00301941
0.0207332
0.00260949
0.00332822
0.0214327
0.0586353
0.0014732
0.00274292
0.127622
0.00435978
0.00477445
0.0158629
0.00423055
0.00127143
0.00160958
0.00171269
0.0159273
0.0241597
0.0316309
0.00159442
0.00146316
0.00141058
0.00122169
0.00126754
0.0749919
0.00832983
0.127136
0.124447
0.0159484
0.0816714
0.0541821
0.151934
0.0018519
0.00163856
0.00099538
0.00660097
0.00414653
0.00923065
0.0671186
0.118569
0.00123509
0.0933822
0.000910006
0.00189821
0.106251
0.0529501
0.00141871
0.0291328
0.00373183
0.0196194
0.096962
0.0864265
0.00119677
0.0894602
0.00123585
0.00133943
0.106242
0.010227
0.0505301
0.0313419
0.0454885
0.00530543
0.00247677
0.0825541
0.00175242
0.0028843
0.022262
0.0535821
0.0259576
0.0255296
0.134694
0.00351752
0.0013252
0.00113452
0.010284
0.00160622
0.142624
0.021276
0.0318173
0.00444513
0.0210868
0.00222786
0.115348
0.0013291
0.00308594
0.00157955
0.00426505
0.116529
0.0107134
0.043437
0.00131375
0.162716
0.0150303
0.0173737
0.0211504
0.0307813
0.144166
0.0102647
0.0017254
0.0214853
0.029724
0.029302
0.0106741
0.00365769
0.137451
0.00152587
0.00186277
0.0250808
0.00185892
0.00145869
0.00244731
0.00205434
0.115101
0.0241777
0.00238943
0.00175363
0.00503395
0.00190459
0.0018501
0.0147089
0.00877548
0.0146019
0.00123592
0.0638886
0.122991
0.00204672
0.00508516
0.00181908
0.0223408
0.149833
0.0686592
0.00131756
0.00631455
0.160767
0.00463056
0.0452079
0.00702925
0.0153406
0.016368
0.0460965
0.120338
0.0881075
0.0191917
0.00246997
0.00177501
0.105
0.0584369
0.00152974
0.0418149
0.00589726
0.0160611
0.0165276
0.0109662
0.148808
0.00124335
0.015478
0.0169507
0.000951973
0.00652513
0.0225651
0.0133894
0.0368755
0.0297563
0.00166039
0.00270373
0.00139625
0.0336778
0.10318
0.00869264
0.0143588
0.0675724
0.0111737
0.00152729
0.0170723
0.0100163
0.0157169
0.00499473
0.0675045
0.073151
0.00140428
0.00244232
0.00234344
0.0512151
0.00450232
0.0750962
0.0542698
0.00520981
0.00183761
0.00650692
0.0158395
0.00447268
0.0331672
0.0148472
0.00671366
0.00183159