/*--------------------------------*- C++ -*----------------------------------*\
| =========                 |                                                 |
| \\      /  F ield         | OpenFOAM: The Open Source CFD Toolbox           |
|  \\    /   O peration     | Version:  v2012                                 |
|   \\  /    A nd           | Website:  www.openfoam.com                      |
|    \\/     M anipulation  |                                                 |
\*---------------------------------------------------------------------------*/
FoamFile
{
    version     2.0;
    format      ascii;
    class       surfaceVectorField;
    location    "50";
    object      ddtCorrDdt0(Uf);
}
// * * * * * * * * * * * * * * * * * * * * * * * * * * * * * * * * * * * * * //

dimensions      [0 1 -2 0 0 0 0];


internalField   nonuniform List<vector> 
20580
(
(-0.0707557 -0.0530628 -1.41034e-17)
(-0.0739571 -0.0579566 -2.34373e-17)
(-0.0666955 -0.0569709 -3.3008e-17)
(-0.000811878 0.00435827 -3.96641e-19)
(-0.000803555 0.00454815 -1.75347e-17)
(-0.00102315 0.00443903 -8.27055e-18)
(-0.000851063 0.00409871 7.63641e-18)
(-0.000643686 0.00420736 1.28382e-17)
(-0.0372643 0.00285887 1.06532e-17)
(-0.0379032 0.00214269 -3.36493e-17)
(-0.038154 -0.000599154 -5.03828e-17)
(0.000243484 -8.26469e-05 -1.19154e-18)
(0.000208173 -7.53318e-05 -1.4188e-19)
(0.000205427 -4.44182e-05 6.93515e-19)
(-0.000796688 0.0074278 8.3815e-18)
(-0.00045595 0.0077326 -1.07909e-18)
(-0.000386162 0.00725243 4.67007e-18)
(0.00198817 0.00120265 1.47807e-18)
(0.00222013 0.00120767 1.39495e-17)
(0.000500452 9.4884e-05 3.05307e-18)
(0.000541163 8.87579e-05 -1.32718e-18)
(0.000592095 4.89859e-05 -6.48262e-18)
(0.0288461 -0.0520056 -1.68816e-17)
(0.0242001 -0.0534673 -1.60993e-17)
(0.0298628 -0.0488888 2.53911e-18)
(0.000638766 -0.00374738 1.84702e-18)
(0.000579486 -0.00377408 1.60541e-18)
(0.000622761 -0.00372839 -1.25219e-18)
(0.0142176 0.035666 1.01841e-17)
(0.0139933 0.0333452 6.97454e-18)
(0.0160972 0.0342417 -1.08412e-17)
(0.000509344 -0.00174744 -4.39849e-19)
(0.000556282 -0.00177315 -7.61314e-20)
(0.000556764 -0.00182658 5.0702e-20)
(0.00156748 -0.00394213 -1.75044e-18)
(0.00166459 -0.0039179 2.92103e-19)
(0.00163573 -0.00385033 7.85537e-19)
(0.0935455 -0.0172369 -3.32752e-17)
(0.0961551 -0.0150382 -9.32997e-18)
(0.0960275 -0.0181822 -4.55337e-17)
(-0.00785621 -0.00760042 -2.52307e-18)
(-0.0089226 -0.00784732 -1.86752e-17)
(-0.00842962 -0.00666048 7.58413e-18)
(0.0988319 -0.0238195 9.46295e-18)
(0.0971342 -0.018527 -2.51233e-18)
(0.10977 -0.0219104 -1.37839e-17)
(-0.232174 0.00859957 -2.36897e-17)
(-0.243961 0.00257546 -8.47426e-18)
(-0.232287 0.0100201 -1.56029e-18)
(0.000926523 0.00229981 3.78871e-19)
(0.000890689 0.0023423 -4.6044e-18)
(0.000968721 0.00237321 2.88896e-18)
(-0.0933753 0.0648312 -2.24918e-18)
(-0.0880656 0.067171 -5.73302e-18)
(-0.0989315 0.071545 -1.33123e-17)
(-0.072159 -0.0486152 6.86768e-18)
(-0.067343 -0.0509238 2.41031e-17)
(-0.0164443 -0.00353435 2.17221e-18)
(-0.0156669 -0.0023212 -1.18906e-17)
(-0.0148494 -0.00381828 -1.56318e-17)
(0.00905648 0.00414347 8.62619e-18)
(0.00899069 0.00369126 -3.05375e-18)
(0.00861035 0.00399339 -9.14087e-18)
(-0.1369 0.0326538 -1.56178e-17)
(-0.152077 0.0450646 -1.71432e-17)
(-0.17715 0.0492018 -9.09437e-18)
(2.67164e-06 -8.21679e-06 -4.67769e-20)
(4.52699e-06 -9.45308e-06 3.16417e-19)
(2.61503e-06 -6.48954e-06 5.5182e-19)
(-0.00941756 0.113593 8.87711e-19)
(-0.00684484 0.115632 -7.24664e-18)
(-0.0289045 0.119518 -3.22385e-18)
(0.035483 -0.0172619 4.59534e-18)
(0.0380668 -0.0169168 -1.30391e-20)
(0.036936 -0.0195137 -4.51781e-18)
(-0.0747307 -0.139715 3.03128e-17)
(-0.0724712 -0.136837 4.58342e-18)
(-0.0761289 -0.138913 6.60067e-18)
(0.0867781 -0.00411368 -4.3093e-18)
(0.0800665 -0.00844691 2.06008e-17)
(0.0782806 -7.30741e-05 4.61518e-18)
(-0.127656 -0.0863073 -2.57915e-17)
(-0.131393 -0.0822906 -9.67534e-18)
(-0.125037 -0.0801841 -1.56629e-18)
(0.000780422 0.00138231 4.4595e-18)
(0.000831269 0.00139605 -3.59969e-18)
(0.000791668 0.0013453 1.31198e-18)
(-0.151894 -0.0330781 4.63971e-17)
(-0.153635 -0.0282664 2.9082e-17)
(-0.151748 -0.0251837 -1.57191e-17)
(0.00196369 0.00101286 -2.79648e-18)
(0.00178652 0.00118616 -1.8628e-18)
(-0.0563748 -0.0700411 -7.00307e-18)
(-0.0523477 -0.0739364 2.97461e-17)
(-0.0513913 -0.0667497 3.55703e-17)
(0.0998854 -0.0406972 2.26891e-17)
(0.104475 -0.0377756 4.72212e-19)
(0.0932518 -0.0425421 4.41175e-17)
(0.00784202 0.0225156 6.97625e-18)
(0.00661544 0.0231629 2.03654e-17)
(0.00814053 0.0238861 2.55135e-18)
(-0.151483 -0.0873974 -3.86543e-18)
(-0.153631 -0.0939621 3.43486e-17)
(-0.160325 -0.0903343 -8.4302e-18)
(8.62253e-07 -6.37556e-06 -1.15038e-18)
(2.84357e-06 -1.00728e-05 -4.33699e-19)
(0.112747 0.0927664 -4.94023e-17)
(0.136032 0.0941421 1.09654e-17)
(0.129255 0.102098 -3.15908e-17)
(0.130981 0.0719353 3.48533e-19)
(0.137423 0.0772053 2.47634e-17)
(0.195752 0.0618668 1.11051e-17)
(0.00321355 -0.000114601 7.00415e-19)
(0.0031642 -7.7781e-05 7.04074e-19)
(0.00325609 4.41152e-05 7.87716e-20)
(0.152958 0.00533741 -1.72003e-18)
(0.145049 0.00453629 7.34448e-18)
(0.151641 0.00211191 1.56227e-17)
(-0.123615 -0.0898919 -7.76579e-18)
(-0.129622 -0.091928 2.75621e-18)
(-0.181083 -0.00603717 -5.21701e-17)
(-0.188056 -0.00464067 1.14079e-16)
(0.040906 -0.0364254 -6.51712e-18)
(0.0340176 -0.0350041 -3.19548e-18)
(0.0393852 -0.0375875 6.97378e-18)
(-0.0985352 -0.0896226 8.80866e-18)
(-0.093119 -0.0869417 3.50844e-17)
(-0.0965865 -0.0838656 5.76274e-18)
(0.00193872 0.000770939 5.28316e-20)
(0.00195761 0.000611139 -1.69224e-20)
(0.00190463 0.000644866 -3.90747e-19)
(-0.000560642 0.000103213 2.68539e-18)
(-0.000608675 8.52394e-05 1.96982e-19)
(0.0728097 -0.0702614 -2.15787e-17)
(0.0810397 -0.0705207 1.19971e-17)
(0.072342 -0.0653123 -4.38815e-17)
(0.00449675 0.00471552 6.35231e-18)
(0.00431407 0.00445519 4.25407e-18)
(0.00420344 0.00470016 -5.63445e-18)
(0.00148538 -0.00395298 -5.29646e-18)
(0.00148425 -0.0040026 -3.11986e-18)
(0.110813 0.0221495 1.83023e-17)
(0.115334 0.0236862 2.76177e-17)
(0.114225 0.0172184 8.29665e-17)
(0.000963859 -0.00445723 2.51281e-18)
(0.000986163 -0.00440436 4.00147e-18)
(0.00110368 -0.00442436 -2.94109e-18)
(0.0996946 -0.0302235 -1.96658e-17)
(0.0920147 -0.0259096 1.21251e-17)
(0.00665059 -0.00333432 1.19525e-17)
(0.00698632 -0.00380478 -3.9469e-18)
(0.00733783 -0.00323652 1.26185e-17)
(0.026459 -0.0236753 2.28318e-18)
(0.0299575 -0.0275345 -5.31625e-17)
(0.0322337 -0.0226257 -3.49952e-17)
(0.00329008 -0.000111942 -4.6983e-19)
(0.00318518 -0.000269943 -2.31354e-19)
(-0.0611672 -0.0737834 3.64201e-17)
(-0.0600061 -0.0664955 1.8226e-17)
(0.154896 0.00755761 -3.76233e-17)
(0.159642 0.00566581 -3.30848e-17)
(-0.0968823 -0.14927 -1.19977e-17)
(-0.100005 -0.148616 -8.43412e-18)
(-0.098 -0.147266 -2.64952e-17)
(0.178217 -0.00363638 3.69982e-17)
(0.175167 -0.00461574 -5.90381e-17)
(0.174394 -0.00498295 -7.35061e-17)
(0.000464776 -0.00170833 -2.67764e-19)
(0.000465232 -0.00166257 -3.36772e-20)
(-0.0765099 -0.142125 3.02638e-17)
(-0.0736206 -0.140024 -1.76978e-17)
(0.000120974 -0.00325661 9.74111e-19)
(0.00015039 -0.00324581 -5.87518e-19)
(0.00015313 -0.00341447 -1.53859e-18)
(0.00472563 0.00462926 2.26484e-19)
(0.00466715 0.00489002 2.4673e-18)
(0.018831 -0.0312038 -1.99152e-18)
(0.0205317 -0.0309442 -4.50406e-18)
(0.0192082 -0.0295446 -1.25447e-18)
(0.0173792 -0.031212 -6.58296e-19)
(0.0183794 -0.0328102 7.60893e-18)
(0.181762 -0.00142875 3.95959e-17)
(0.180358 -0.00123185 4.42648e-17)
(0.00422925 -0.019127 1.21484e-17)
(0.00467529 -0.0195253 -1.3563e-17)
(0.00316094 0.00209658 1.70685e-18)
(0.00318708 0.00194601 4.22708e-19)
(0.00305548 0.00201649 1.91329e-18)
(-0.0733894 -0.022059 -1.76477e-17)
(-0.0634898 -0.0209896 5.84923e-19)
(-0.0698922 -0.0254175 -1.87489e-17)
(-0.148314 0.00998627 3.00034e-17)
(-0.177103 -0.00319029 -1.5324e-17)
(-0.140357 0.00434372 -6.89142e-17)
(-0.0224123 -0.00445034 -1.48035e-17)
(-0.0228677 -0.00276185 -1.55768e-17)
(-0.0244424 -0.00411395 -1.44596e-17)
(0.00225282 -0.00256265 1.38337e-18)
(0.00221498 -0.0026708 1.1051e-18)
(0.00232483 -0.00257737 1.0514e-18)
(0.1722 -0.00530022 1.81521e-18)
(0.177468 -0.0028259 -5.39758e-18)
(0.00497433 -0.00678938 1.05309e-18)
(0.00428222 -0.00630516 2.35314e-18)
(0.004226 -0.00711376 5.60688e-18)
(0.00676266 0.00223779 1.67034e-18)
(0.00659205 0.00200588 9.83422e-20)
(0.00643273 0.00228657 8.56372e-20)
(-0.231468 0.0106201 1.62663e-18)
(-0.218768 0.0171898 9.57122e-18)
(0.000141562 0.00098093 -2.45716e-18)
(0.000196702 0.000996635 1.52855e-18)
(0.00015593 0.00103765 1.38989e-18)
(-0.0118515 0.11234 2.46541e-17)
(-0.0113223 0.111581 1.04752e-17)
(0.00165438 -0.00138511 -2.06284e-21)
(0.00159434 -0.00140748 1.32864e-19)
(0.00161808 -0.00147507 -1.65413e-19)
(0.00310314 0.00223268 1.382e-18)
(0.00324101 0.00219855 8.32964e-19)
(0.0259896 0.0939511 6.08207e-18)
(0.0214014 0.0959105 1.35675e-17)
(0.0257771 0.098978 -1.86287e-17)
(0.0080705 0.0214312 -4.92536e-18)
(0.00916417 0.022089 -2.06504e-17)
(0.109903 -0.0147225 -2.22419e-17)
(0.104943 -0.0154914 4.33198e-17)
(0.107285 -0.0185687 2.3217e-17)
(0.170175 -0.00555609 -3.62054e-17)
(0.168306 -0.0066827 3.56224e-17)
(-0.148676 -0.0250015 -7.75576e-17)
(-0.14519 -0.0204875 2.36944e-17)
(-0.143283 -0.0191429 2.66148e-17)
(0.00946359 0.00437151 7.44526e-18)
(0.00894677 0.00460352 7.94509e-19)
(-0.126581 -0.0354455 -2.31954e-17)
(-0.129469 -0.0306988 -4.02673e-17)
(-0.120082 -0.0357112 -4.06016e-18)
(0.00096754 -0.0034968 -2.01423e-19)
(0.00100535 -0.00343875 -2.28252e-18)
(0.000929611 -0.00348482 -2.03331e-18)
(-0.155399 -0.0379098 -2.20206e-17)
(-0.14737 -0.0416905 1.06086e-16)
(0.000928011 -0.00452222 -4.10897e-18)
(0.00080841 -0.00447693 2.85545e-18)
(0.00192093 0.000859359 5.50656e-19)
(0.00213408 0.00083248 3.88561e-18)
(0.0720675 0.0114179 1.97277e-17)
(0.0711295 0.00975822 -2.39016e-17)
(-0.151972 -0.0301379 -4.07333e-17)
(-0.161073 -0.0277949 -1.00946e-16)
(0.0740314 0.0587481 6.82662e-18)
(0.0688678 0.0584267 4.13644e-18)
(0.0756078 0.051851 -1.16544e-17)
(0.0407261 -0.033354 2.3215e-17)
(0.0397123 -0.0309576 -5.70452e-18)
(0.0378933 -0.0320671 4.51261e-18)
(0.00211128 -0.000268099 -4.20469e-19)
(0.00211576 -0.000400562 9.25059e-19)
(0.00218756 -0.000223992 2.40994e-18)
(0.100866 -0.0547359 -3.10082e-17)
(0.101204 -0.047974 6.25359e-18)
(0.0910894 -0.0507672 -2.17393e-17)
(0.176929 0.0154677 -1.94685e-17)
(0.179547 0.0146017 1.4202e-17)
(0.177831 0.0119532 -4.14342e-17)
(0.0591992 0.0309589 1.68299e-17)
(0.0622934 0.0330833 -1.35797e-17)
(0.0623774 0.029005 -9.11284e-19)
(0.100298 -0.0612953 -1.32877e-17)
(0.111716 -0.0589063 5.1828e-18)
(0.00599299 -0.0146137 1.80912e-17)
(0.00538134 -0.0145632 1.21807e-17)
(0.00572035 -0.0139225 -9.84079e-18)
(0.00797827 -0.0152155 -9.61045e-18)
(0.00683444 -0.0149427 3.63162e-17)
(0.00715625 -0.0162708 2.84325e-17)
(0.00230456 -0.00293405 9.8043e-19)
(0.00235747 -0.00283517 7.51033e-20)
(0.00244434 -0.00284661 -9.32571e-19)
(0.00180213 0.00131059 2.30304e-18)
(0.00182537 0.0014191 2.49546e-18)
(0.00175829 0.00142827 -8.31717e-18)
(-0.0206925 0.00752707 2.65748e-18)
(-0.0206217 0.00898171 -4.21911e-18)
(-0.0223536 0.00779262 4.35254e-18)
(0.00176455 0.00119661 7.44802e-19)
(0.0018399 0.00116053 3.92272e-19)
(-0.147675 -0.00139276 5.95157e-17)
(-0.131739 0.00823884 -3.48904e-17)
(0.00171558 0.000882278 1.47428e-18)
(0.00186689 0.000701363 2.0958e-18)
(0.00092525 0.00223811 4.59527e-19)
(0.0008388 0.00226023 5.08994e-18)
(0.0134384 0.00134488 -2.94169e-18)
(0.0140346 0.00136849 5.5854e-18)
(0.0136625 0.000834768 -1.40605e-18)
(0.0019056 0.00095568 2.15021e-20)
(0.00198328 0.000937811 1.42378e-18)
(-0.0313659 0.0674144 -3.47301e-18)
(-0.0343324 0.067237 -1.96657e-17)
(-0.0328338 0.0704246 -2.74187e-18)
(-0.0110397 0.0357164 2.61115e-17)
(-0.0112117 0.0339712 -8.41407e-18)
(-0.00941429 0.0346736 2.92889e-17)
(-0.0215749 -0.0909586 -3.02348e-18)
(-0.0160599 -0.0924058 1.90167e-18)
(-0.0207018 -0.0970641 6.91914e-17)
(0.00628238 -0.00279448 -6.63785e-18)
(0.00594718 -0.00325971 5.41118e-19)
(0.000828504 0.000765672 -5.36622e-19)
(0.000868026 0.000750153 1.49698e-19)
(0.000841881 0.00081715 -4.18403e-18)
(0.00045429 9.44559e-05 -7.43833e-19)
(0.000428953 0.000142577 5.25467e-18)
(-0.0396629 0.00386948 1.03446e-16)
(-0.0363108 0.00415256 9.28207e-18)
(-0.086712 -0.0226427 4.21503e-17)
(-0.100925 -0.0251475 -5.28877e-19)
(0.0452382 -0.0214108 3.72308e-17)
(0.0435454 -0.0229505 -9.01145e-19)
(0.0460584 -0.0232105 -1.57343e-17)
(0.000819212 0.00190454 -2.50269e-18)
(0.000847763 0.00186386 2.636e-19)
(0.000777442 0.00184167 1.10735e-18)
(0.00324751 0.00135674 -1.95201e-19)
(0.00327087 0.00151607 1.24438e-18)
(0.00335509 0.00137592 -2.51823e-18)
(0.14973 -0.0151523 -1.22281e-17)
(0.14854 -0.0169945 -1.95638e-17)
(0.153036 -0.0144675 -1.99694e-18)
(-0.11473 0.0249643 -1.5795e-17)
(-0.113235 0.0302734 2.20028e-17)
(-0.120232 0.0271641 2.35998e-17)
(0.00537186 -0.0235368 -3.7573e-18)
(0.00536114 -0.0231654 -3.17827e-17)
(0.00604112 -0.0233649 3.11034e-17)
(0.00210782 -0.00011486 -1.10864e-18)
(0.00205669 -0.00030453 -1.44587e-18)
(0.027605 0.0184317 5.75088e-18)
(0.0259159 0.0188619 -2.69814e-18)
(0.0267051 0.0171938 1.07365e-17)
(0.136184 -0.0248696 2.44835e-17)
(0.141926 -0.0221664 1.04249e-17)
(0.139004 -0.0226115 3.38609e-18)
(-0.0152051 -0.0121439 4.08742e-18)
(-0.0165334 -0.0132736 -7.19255e-18)
(-0.0162907 -0.0110254 -1.24248e-17)
(0.00887374 0.00335789 -7.55404e-18)
(0.00928789 0.00345433 -4.11345e-18)
(0.00382667 0.0137957 -1.06843e-17)
(0.00282772 0.0139343 2.07081e-17)
(0.00334938 0.013079 1.7209e-17)
(0.0992381 0.0861335 -8.2743e-18)
(0.0943059 0.0921407 -2.0952e-17)
(0.0934854 -0.0435036 1.22401e-17)
(0.105024 -0.0392183 3.17856e-17)
(0.0145239 0.037597 1.79658e-17)
(0.012642 0.0367073 1.39219e-17)
(0.0495556 0.0797366 7.75733e-18)
(0.0479015 0.0704194 -1.14833e-17)
(0.0392092 0.0749963 5.69764e-18)
(0.0043177 -0.018536 3.30672e-17)
(-0.142169 -0.00859679 2.02118e-17)
(-0.156815 -0.0186011 -7.70496e-17)
(0.00511022 -0.0113968 -2.3918e-17)
(0.00499132 -0.0119011 -2.20378e-18)
(0.00460503 -0.0115047 -1.29402e-17)
(-0.0126009 -0.0146732 -1.17383e-17)
(-0.0110478 -0.0140528 2.53165e-18)
(-0.0113435 -0.0159233 6.99567e-18)
(0.0301808 0.0928227 -1.1449e-17)
(0.025626 0.090215 -2.06169e-17)
(0.00367367 -0.00296361 -4.28036e-18)
(0.00350989 -0.00304865 3.64317e-18)
(0.0036034 -0.002864 6.91835e-19)
(0.000941177 -0.00353918 -2.68134e-19)
(0.00101502 -0.00350993 -2.14863e-18)
(0.0106258 -0.0234021 -9.12751e-19)
(0.0102928 -0.0246482 -1.67903e-17)
(0.011399 -0.024256 1.20178e-17)
(-0.0656176 0.111303 -3.03298e-17)
(-0.0928632 0.120356 -1.18897e-18)
(-0.106792 0.120528 -3.05902e-18)
(0.00618747 0.000963747 1.41727e-18)
(0.00642054 0.000930233 -2.4428e-18)
(0.00627697 0.000682903 1.23061e-18)
(9.16822e-05 0.000966322 -1.64677e-18)
(0.000125349 0.000934794 1.1921e-18)
(-0.155731 -0.0347839 6.57827e-17)
(-0.040718 -0.0519604 -3.30445e-18)
(-0.0355504 -0.0520716 -1.05565e-17)
(-0.0356174 -0.0456437 -6.1182e-17)
(0.0293222 0.0182032 -1.95894e-17)
(0.0282862 0.0199074 1.85005e-17)
(0.0926052 -0.062971 -1.42081e-17)
(0.10327 -0.0674346 -3.31715e-17)
(-0.0282415 0.0683236 3.3112e-18)
(-0.029684 0.0652074 -1.13947e-18)
(-0.0106976 0.0375083 7.25414e-18)
(-0.0126515 0.0367869 2.70173e-17)
(-0.0942431 0.0500907 -4.06333e-18)
(-0.0906607 0.0536765 5.05791e-18)
(-0.0890136 0.0488329 -4.95601e-17)
(0.00172927 -0.00418059 -5.82268e-18)
(0.00185209 -0.00409061 1.30938e-19)
(0.00185309 -0.0041684 -5.60233e-18)
(0.000760477 -0.00401403 -6.97082e-19)
(0.000691396 -0.00405261 -4.80263e-19)
(0.000681941 -0.00400662 6.48169e-19)
(0.000368281 -0.00133072 2.67171e-20)
(0.000371915 -0.00137651 8.37223e-20)
(0.000319353 -0.00125125 -7.20965e-20)
(0.126159 0.063657 3.1468e-18)
(0.0883946 0.0786666 -1.19884e-17)
(-0.0110844 -0.0114335 -6.68067e-18)
(-0.0106441 -0.0128902 -4.18604e-19)
(-0.0101381 -0.0117193 1.01072e-17)
(0.000423405 0.000868903 -4.6209e-18)
(0.000502679 0.000780821 -2.09115e-18)
(0.00038563 0.000817637 1.17507e-17)
(5.67538e-06 -1.69193e-05 -1.89555e-19)
(5.78098e-06 -1.42885e-05 7.22561e-19)
(8.62267e-06 -2.0085e-05 -6.42445e-20)
(-0.142505 -0.0847467 7.97522e-18)
(-0.136017 -0.0833735 -1.12105e-17)
(-0.139624 -0.089468 -2.48552e-17)
(-0.0209514 0.00586351 -1.20099e-17)
(-0.0193252 0.00710212 -7.2531e-18)
(0.0661333 -0.0700317 -4.19687e-17)
(0.0707034 -0.0753068 2.57435e-17)
(0.0905519 -0.0189428 3.7342e-17)
(0.0901128 -0.0146982 3.25909e-17)
(-0.0111204 -0.066906 -2.97219e-17)
(-0.0077406 -0.0633497 -1.30365e-17)
(-0.0155492 -0.0687612 1.65014e-17)
(-0.00474342 -0.0654297 1.25042e-17)
(-0.0123923 -0.0709322 -1.15197e-17)
(0.106639 0.0214676 -6.57323e-17)
(0.104119 0.0263524 -4.24486e-17)
(0.0131782 0.00185185 -4.11474e-18)
(0.0128041 0.00138001 3.27832e-18)
(0.101639 0.0357159 -8.53708e-18)
(0.109194 0.0348083 9.65233e-18)
(0.099231 0.0407381 -7.55208e-18)
(0.000420739 -0.00165207 4.24196e-19)
(0.000379955 -0.00158594 1.55855e-19)
(0.000375767 -0.00154011 1.49116e-19)
(0.000782532 0.000787053 1.40409e-19)
(0.000818802 0.00072062 -2.65871e-19)
(-0.0272627 0.0163205 3.30584e-18)
(-0.0263285 0.0182223 -4.56092e-18)
(-0.025287 0.0163962 3.91006e-18)
(9.14032e-05 -4.52588e-05 3.10335e-19)
(7.90889e-05 -5.72219e-05 2.07065e-19)
(6.79599e-05 -3.43681e-05 1.01436e-18)
(0.079741 0.058098 -1.04795e-17)
(0.0768206 0.0642736 1.12962e-18)
(-0.0375013 -0.111668 2.42137e-17)
(-0.0419716 -0.11473 7.68941e-18)
(-0.0411206 -0.115498 9.56988e-18)
(0.0715284 -0.0990577 -1.18055e-17)
(0.0632058 -0.10273 -2.47344e-17)
(0.0545448 -0.107264 -1.23951e-18)
(0.000740978 0.000803685 -6.26231e-19)
(0.00075788 0.000845817 -4.04162e-18)
(0.00623469 -0.00610679 1.2661e-18)
(0.00558373 -0.00655554 7.05228e-18)
(0.00559621 -0.00571794 1.66704e-17)
(0.0783696 -0.0927363 1.23218e-17)
(0.0684174 -0.0910217 -5.8119e-18)
(-0.117367 0.0189607 -4.70145e-18)
(-0.109015 0.0219876 -2.98776e-17)
(0.0434262 -0.0352668 -4.3796e-18)
(0.0128241 0.00233586 -8.29924e-18)
(0.0121469 0.00225965 -8.81258e-18)
(0.012357 0.00276831 6.69998e-19)
(-0.0137556 -0.0135838 -7.15301e-18)
(-0.0135474 -0.0114196 3.37095e-18)
(-0.222987 0.0025877 2.76294e-17)
(-0.225223 0.00340801 3.68646e-17)
(-0.0459118 -0.0573519 -1.28348e-17)
(-0.0440923 -0.051468 2.30415e-17)
(-0.0482022 -0.0761481 -5.07495e-18)
(-0.0528818 -0.0794912 -3.69026e-18)
(0.00415932 -0.00846883 4.70744e-18)
(0.00390374 -0.00856894 -2.32024e-18)
(0.00424016 -0.00878796 -1.09789e-17)
(0.0019714 -0.0038822 -1.04508e-18)
(0.00185873 -0.00396599 9.16186e-20)
(0.00186846 -0.00391077 7.29584e-20)
(0.00127161 0.00142246 -2.64989e-18)
(0.00132397 0.00144301 1.78584e-18)
(0.00126466 0.00150351 -9.93055e-19)
(-0.0324117 0.1052 -1.07804e-17)
(-0.0420095 0.10519 -1.66956e-17)
(-0.0122006 -0.0108503 3.74991e-18)
(-0.0110388 -0.00994848 1.8284e-18)
(0.100159 -0.0131797 5.22042e-17)
(0.0987821 -0.0128043 1.04449e-17)
(-0.0010269 0.00705052 -1.81507e-19)
(-0.00118458 0.00747951 4.44089e-18)
(0.00594941 0.00097645 -4.95807e-19)
(0.00609073 0.00119428 1.01615e-18)
(0.10134 -0.0424972 5.60544e-17)
(0.100858 -0.0358527 -4.41411e-18)
(0.0920677 -0.0381968 2.47099e-17)
(-0.0443018 -0.0769385 -5.24022e-18)
(-0.0441284 -0.0716781 -4.14343e-18)
(0.000140585 0.00219641 3.45973e-18)
(0.000145967 0.00224744 -1.14989e-17)
(0.000174616 0.00227596 1.72157e-18)
(0.00138482 0.00310704 -2.22695e-18)
(0.00143218 0.00302242 7.45469e-18)
(0.00132081 0.00302376 -3.77602e-18)
(0.00515308 -0.0197064 -5.98125e-18)
(0.00580288 -0.0193332 1.53513e-17)
(0.0057926 -0.020267 -1.93168e-17)
(0.0343801 0.0916303 3.27148e-18)
(0.0386667 0.0898708 2.99675e-17)
(0.0340107 0.0870489 -2.96083e-17)
(0.122556 0.0439863 -2.43636e-17)
(0.116857 0.0471117 -3.61001e-17)
(0.118678 0.0468217 -1.48692e-17)
(0.156249 0.011256 5.9782e-18)
(0.157172 0.0135957 -1.44791e-17)
(0.149083 0.0130781 7.97248e-19)
(-0.00689759 -0.00723476 -2.8881e-17)
(-0.00710446 -0.00847866 9.33318e-18)
(0.0224787 -0.0510681 5.04912e-19)
(0.0208792 -0.0521235 2.97101e-17)
(0.0239315 -0.0558087 1.27025e-17)
(0.126042 0.0414574 1.55584e-17)
(0.127873 0.0413083 -1.67477e-17)
(0.00157404 -0.00551652 -5.65848e-18)
(0.00146165 -0.00542753 6.34732e-18)
(0.00131622 -0.00556729 -4.6951e-18)
(-0.0020782 -0.0191748 -9.52352e-19)
(-0.00354736 -0.0187299 6.3718e-18)
(-0.00227432 -0.0180157 -1.56814e-18)
(0.0395678 -0.0499584 1.97334e-18)
(0.038366 -0.0527211 -4.37073e-17)
(0.045556 -0.0478995 -2.4091e-17)
(0.00103903 0.00756096 2.36854e-18)
(0.0012433 0.00787033 2.99455e-18)
(0.00140201 0.00749338 -1.02355e-19)
(0.0965055 -0.0121755 -4.24686e-18)
(0.095697 -0.00687347 2.68277e-18)
(0.106544 -0.0101277 -4.10472e-18)
(0.00323677 0.00120764 8.21712e-19)
(0.00316074 0.00133527 2.06993e-18)
(0.034281 0.0963754 -2.65507e-17)
(1.88135e-05 -0.000131423 -1.39944e-19)
(2.45777e-05 -0.000154043 -2.32709e-19)
(2.42652e-05 -0.000162079 -1.2847e-19)
(0.00579826 0.0235359 -4.36503e-18)
(0.00447812 0.0242502 -2.04889e-17)
(0.0060378 0.0249234 5.32394e-18)
(0.00743217 0.00230132 -1.03805e-18)
(0.00739065 0.00259123 -1.88165e-18)
(0.00770674 0.002494 -5.03015e-18)
(0.00139703 -0.00394844 3.67668e-19)
(0.00147245 -0.00386956 -1.95204e-18)
(-0.0993766 -0.0549232 -6.21822e-18)
(-0.0885956 -0.0624211 -4.66566e-18)
(-0.0940666 -0.0555651 -1.31771e-17)
(0.000648072 0.00285385 2.66868e-18)
(0.000636049 0.00276666 -6.58919e-19)
(0.00055941 0.00279331 2.67362e-18)
(0.00785578 -0.0335432 -3.23875e-18)
(0.00907637 -0.0358346 2.50985e-17)
(0.000728521 0.00075992 1.82941e-18)
(0.00069368 0.000811583 6.35373e-19)
(-0.0749619 -0.0438635 -1.40391e-17)
(-0.0763308 -0.0394832 2.73606e-17)
(-0.0718362 -0.0410856 -4.09358e-18)
(0.115048 -0.01494 -5.07309e-17)
(0.116311 -0.0111959 -8.63434e-17)
(0.062631 0.0626894 2.03807e-18)
(0.0551254 0.0661176 -1.10001e-17)
(0.0636664 0.0706846 -2.25667e-18)
(0.0048428 -0.0081974 -1.04977e-17)
(0.00483497 -0.00779323 -1.46464e-17)
(0.00522415 -0.00805117 -2.48125e-18)
(-0.00047895 -0.0197507 1.30312e-17)
(-0.00199778 -0.0205926 -7.14212e-18)
(9.12121e-06 -8.95914e-05 8.56716e-19)
(5.2096e-06 -7.16756e-05 -3.17825e-20)
(5.61424e-06 -7.56311e-05 3.32168e-19)
(0.0105606 -0.0226434 -3.30304e-19)
(0.00988862 -0.0229041 -2.01489e-18)
(0.00112955 -0.00201947 6.88277e-20)
(0.00106648 -0.00202364 3.71048e-20)
(0.00112271 -0.00195182 2.36769e-20)
(0.00572973 0.0228294 7.4051e-18)
(-0.156436 0.00791576 3.1863e-17)
(-0.105912 0.00511345 3.43892e-17)
(-0.12072 0.00652288 -6.81415e-18)
(0.00454034 -0.00835559 1.08282e-18)
(0.00414835 -0.00814022 -8.92031e-18)
(0.00099548 0.00717512 -1.02402e-17)
(0.000703079 0.00737948 -1.98977e-18)
(1.79147e-05 -0.00272526 -2.06407e-18)
(3.47484e-05 -0.00294096 -5.29058e-19)
(0.16217 0.00937272 -1.28627e-18)
(0.156133 0.00880666 5.77079e-19)
(0.000760153 0.00141469 -1.19863e-18)
(0.000720567 0.00136437 6.18339e-19)
(-0.0942406 0.0103919 2.23164e-17)
(-0.0512739 -0.0104942 -2.35431e-17)
(0.15668 0.0156808 -6.95377e-18)
(0.156749 0.0177687 -1.38454e-17)
(0.149573 0.018227 4.89294e-18)
(0.0559846 0.028823 2.15087e-17)
(0.0559468 0.0326236 6.20163e-18)
(5.79755e-06 -1.89227e-05 1.29823e-19)
(3.69288e-06 -1.54507e-05 -3.90857e-19)
(0.086741 -0.0169816 -1.74844e-17)
(0.0969562 -0.0161671 -1.48587e-17)
(0.101147 -0.021801 2.45666e-18)
(0.167895 -0.00543197 -3.18033e-18)
(0.164695 -0.00520527 4.95507e-17)
(0.163758 -0.00784601 7.28803e-17)
(-0.100851 -0.0953218 1.00433e-17)
(-0.10488 -0.0920893 -2.17769e-19)
(0.0912732 -0.013987 3.25757e-18)
(-0.00933859 0.004314 -7.64492e-18)
(-0.00918491 0.00527798 2.55235e-17)
(-0.0085406 0.00442333 1.99156e-17)
(0.0105663 -0.0259673 -1.79777e-18)
(0.00989997 -0.0253458 -1.34242e-17)
(0.00959534 -0.0261963 4.43028e-18)
(-0.102036 -0.0557225 -1.21655e-17)
(-0.104875 -0.04989 -1.884e-17)
(0.0069024 -0.00645198 -5.87474e-18)
(0.006816 -0.0056513 -1.35265e-17)
(0.0413425 -0.0298287 -1.13987e-17)
(0.0391402 -0.02903 -2.42344e-17)
(0.0154882 0.0037209 1.06279e-18)
(0.0151173 0.00301631 -1.08089e-18)
(0.0147387 0.00370701 -3.52787e-18)
(-0.0427204 -0.029755 -1.87256e-17)
(-0.0414862 -0.025569 -1.17902e-17)
(-0.0491603 -0.0255925 5.87164e-18)
(-0.0771789 0.0157687 -2.45514e-18)
(-0.0787237 0.0110876 3.45683e-18)
(-0.073771 0.0138227 -6.27968e-18)
(0.000809101 1.18981e-05 -1.00567e-18)
(0.000781648 3.24429e-05 1.59879e-19)
(0.000783941 2.4099e-05 1.295e-18)
(-0.00292623 0.00312873 -1.38322e-17)
(-0.00261644 0.0030132 -4.94072e-18)
(-0.00267459 0.00341609 5.49454e-18)
(0.114121 -0.0458246 1.70759e-17)
(-0.14605 -0.0838191 9.83842e-18)
(-0.144894 -0.0811649 1.4104e-17)
(-0.22607 -0.0460517 6.94552e-18)
(-0.22328 -0.0514263 1.19768e-17)
(-0.233006 -0.0464936 4.47771e-18)
(0.00128575 0.00134847 -2.03312e-18)
(0.00122401 0.00141322 -1.79693e-18)
(0.00590908 -0.0242904 7.93764e-18)
(0.00103614 -0.00338582 -1.00903e-19)
(0.00106684 -0.00333326 1.64389e-18)
(0.000997635 -0.00338011 2.69127e-18)
(-0.0631871 -0.103287 1.65462e-17)
(-0.0669588 -0.0992366 -1.14792e-17)
(-0.0643745 -0.0979102 3.1256e-17)
(-0.109491 0.034058 1.02913e-17)
(-0.105658 0.0390175 -9.70695e-18)
(-0.102393 0.0321533 2.21599e-17)
(-0.00318839 0.00330655 -1.6231e-17)
(-0.00311181 0.00293645 -1.26096e-17)
(-0.0211356 0.00442079 -2.74646e-18)
(-0.0226818 0.00471842 -2.59898e-17)
(-0.0762891 0.0197473 2.11633e-17)
(-0.0812386 0.0171836 3.6924e-17)
(0.00213732 -0.00211739 6.24303e-19)
(0.00219291 -0.00201306 -1.10161e-18)
(0.0021038 -0.00207833 2.78489e-19)
(0.00652292 -0.0146816 2.24029e-17)
(0.00609333 -0.0152204 1.3772e-17)
(0.0493103 -0.0678474 2.60646e-17)
(0.0553036 -0.0686581 5.24832e-17)
(0.0523005 -0.0632338 1.22098e-17)
(0.044865 -0.0302036 2.20831e-18)
(0.0521097 -0.0249438 1.26671e-17)
(0.0491463 -0.0338428 2.3534e-17)
(0.000566355 -0.00295995 1.05837e-18)
(0.000523455 -0.00285935 3.06806e-18)
(0.000507767 -0.00289339 -1.54547e-18)
(0.00132524 -0.00394227 2.08282e-18)
(0.00131865 -0.00400761 1.03533e-18)
(0.00493644 -0.00857284 9.43213e-18)
(0.0394056 -0.0602591 -2.09635e-18)
(0.0327214 -0.0621163 -4.28633e-17)
(0.0305302 -0.0652762 -9.75641e-18)
(-0.0461748 0.000879941 -3.00525e-18)
(-0.0404844 0.00453569 -3.23835e-18)
(-0.050641 -0.000837886 -4.72143e-17)
(-0.0186006 -0.00701778 7.68289e-18)
(-0.0177383 -0.00611011 -3.47241e-18)
(-0.0191777 -0.00554435 -1.06064e-17)
(0.000797983 0.00194345 3.36466e-18)
(0.000867453 0.00196196 -3.43912e-18)
(-0.119197 0.0137495 5.0411e-18)
(-0.121668 0.0159178 7.71854e-18)
(-0.0982127 0.0462924 -4.44406e-18)
(-0.10199 0.0425818 -1.33184e-17)
(-0.0958665 0.040902 -4.26857e-18)
(-0.0307952 -0.0771891 -2.34888e-17)
(-0.0250578 -0.0793649 1.28853e-17)
(-0.0261015 -0.0736527 1.71702e-17)
(-0.0213046 0.00266336 -3.28671e-19)
(-0.019779 0.00393674 1.36732e-17)
(0.0454983 -0.0576097 7.52459e-20)
(0.0475845 -0.0550671 8.20045e-18)
(0.193642 0.0114594 -2.04308e-18)
(0.194416 0.00950927 -2.68135e-17)
(0.197272 0.00972745 -7.25844e-18)
(-0.00315323 0.00510186 1.71815e-18)
(-0.00305988 0.00549373 4.21354e-18)
(-0.00346433 0.00525492 -5.70408e-18)
(-0.00582414 -0.00516066 5.87969e-18)
(-0.00641771 -0.005559 -2.43898e-17)
(-0.00543589 -0.0059378 -3.48824e-17)
(0.170397 0.0432153 -1.69156e-17)
(0.170091 0.0541257 7.53028e-18)
(0.170069 0.0482959 -7.36256e-18)
(0.00160095 0.00164135 -4.23758e-18)
(0.00164874 0.00172185 -5.63333e-18)
(0.00166627 0.00157747 4.09643e-18)
(0.000361032 -0.00127576 -8.98248e-20)
(0.00035332 -0.00122706 -1.02944e-19)
(0.000308108 -0.00116018 -4.51249e-20)
(-0.0352455 -0.0758134 1.64989e-17)
(-0.034205 -0.0815404 -2.52473e-17)
(0.0200738 0.0282022 1.36115e-17)
(0.0180264 0.0279973 1.28405e-17)
(0.0191052 0.0263859 1.4013e-18)
(0.000732142 0.00144184 -2.09074e-18)
(0.000703654 0.00146486 9.74251e-19)
(0.000678126 0.0014112 -6.5203e-19)
(2.76576e-05 -0.000148528 1.16636e-19)
(2.65007e-05 -0.000152291 2.30469e-19)
(1.82831e-05 -0.000121067 -8.36681e-20)
(0.00118338 -0.00201695 6.7913e-20)
(0.00112726 -0.00209076 -2.057e-19)
(0.000528423 -8.17319e-05 1.07223e-18)
(0.000560433 -7.77446e-05 -5.92957e-19)
(0.000503357 -4.85093e-05 4.44258e-19)
(-0.00830791 0.000850171 2.41482e-17)
(-0.00905992 0.00104808 -2.08201e-18)
(-0.0088501 8.91113e-05 1.4272e-17)
(0.00041622 -0.00138068 -2.76731e-21)
(0.0341875 -0.0518432 3.56667e-18)
(0.02514 -0.056115 -8.14574e-18)
(-0.017926 -0.00342907 3.40383e-17)
(-0.016892 -0.00484504 -2.18918e-18)
(0.00273539 0.000496551 -1.82771e-19)
(0.00270483 0.000348755 3.86431e-19)
(0.00277397 0.000493566 1.32821e-18)
(-0.152821 -0.0817201 -1.3199e-17)
(0.149527 -0.0146229 7.72943e-18)
(0.152495 -0.014659 -2.25514e-17)
(0.00143913 -0.00425389 -4.0182e-18)
(0.00153127 -0.00418068 3.04063e-18)
(0.00143412 -0.00419739 -3.6566e-18)
(-0.0794254 -0.0484709 -3.77394e-18)
(0.148095 0.0219674 1.10661e-17)
(0.150706 0.0178792 5.09739e-17)
(0.151813 0.0226703 2.66595e-17)
(0.00374345 -0.00301668 -3.26753e-18)
(0.00381758 -0.00285701 2.28284e-19)
(0.00130554 -0.00432206 3.90173e-18)
(0.00142793 -0.00432616 -4.76282e-18)
(-0.0189866 -0.00237468 3.21789e-17)
(-0.0193767 -0.0040958 -3.31286e-18)
(0.124646 -0.0117901 3.86178e-17)
(0.128658 -0.0108365 -6.83838e-17)
(0.12403 -0.0144232 -7.63363e-17)
(0.0746889 0.179997 -7.73141e-18)
(0.0819673 0.169967 -2.23609e-17)
(0.0668076 0.176254 -1.82763e-17)
(-0.0343831 0.0102113 3.11149e-17)
(-0.0357373 0.0122343 1.67678e-17)
(-0.0332101 0.0119459 -1.5982e-18)
(0.000285713 -8.10629e-05 -2.58526e-20)
(0.000272807 -0.000117041 -1.89311e-18)
(0.0951511 0.035373 2.36724e-17)
(0.104367 0.0305687 1.88917e-17)
(0.000467344 -0.0017619 1.05479e-20)
(-0.0369882 0.0140305 2.53127e-19)
(-0.0361341 0.0162656 1.43615e-17)
(-0.0388134 0.0159968 -6.50687e-19)
(0.144727 0.0201008 -2.82157e-17)
(0.14288 0.0251594 -2.75345e-17)
(0.0335179 -0.038113 3.85196e-18)
(0.0396689 -0.0339596 -5.66994e-17)
(0.0351157 -0.0417559 -6.9904e-18)
(0.000330079 0.000984567 -1.58478e-17)
(0.000434754 0.000936373 3.4709e-18)
(0.166821 0.0340053 -3.3007e-17)
(0.140252 0.04282 1.62563e-17)
(0.0986758 0.0786245 8.16758e-18)
(0.0952237 0.079022 -7.66515e-19)
(0.0995995 0.071626 -1.48645e-18)
(-0.103816 0.0222582 1.31805e-17)
(-0.088738 0.0563041 -3.44923e-17)