/*--------------------------------*- C++ -*----------------------------------*\
| =========                 |                                                 |
| \\      /  F ield         | OpenFOAM: The Open Source CFD Toolbox           |
|  \\    /   O peration     | Version:  v2012                                 |
|   \\  /    A nd           | Website:  www.openfoam.com                      |
|    \\/     M anipulation  |                                                 |
\*---------------------------------------------------------------------------*/
FoamFile
{
    version     2.0;
    format      ascii;
    class       volScalarField;
    location    "1000";
    object      ddt0(k);
}
// * * * * * * * * * * * * * * * * * * * * * * * * * * * * * * * * * * * * * //

dimensions      [0 2 -3 0 0 0 0];


internalField   nonuniform List<scalar> 
13851
(
3.59856e-07
0.000455653
9.40039e-07
2.18389e-07
1.15628e-06
0.000179638
1.11713e-07
1.01688e-06
-1.58662e-07
1.90192e-06
3.40181e-05
-0.00615915
-4.10267e-06
-0.000186191
2.88574e-08
6.94282e-07
4.84819e-07
1.23284e-07
4.82376e-06
-1.50224e-07
2.33075e-07
9.46258e-07
2.3136e-06
1.81692e-07
3.00121e-06
1.02502e-06
4.83732e-07
3.235e-05
2.96248e-07
3.42892e-07
0.000246466
5.09892e-07
9.94444e-07
0.00200029
-4.20133e-08
3.22285e-06
3.18794e-06
3.6522e-07
2.20525e-06
0.000712791
-1.85235e-07
4.31743e-07
4.49501e-05
8.43155e-05
0.000204626
0.000385885
0.000711175
0.00237654
4.95937e-07
-0.00137428
1.64252e-06
2.53844e-06
-0.000176917
2.34522e-08
-3.18531e-07
4.34966e-07
4.60678e-07
-0.000224297
3.54472e-07
1.60853e-07
6.07937e-08
0.000585794
2.77238e-06
1.23866e-06
-1.20777e-05
8.27546e-07
2.34636e-06
0.000865207
9.57368e-07
1.54446e-07
0.000111008
7.07722e-06
0.000624276
1.7378e-08
1.34374e-08
-1.93605e-07
1.00516e-06
-7.97007e-06
1.1773e-06
0.00015238
2.99834e-07
0.000291377
4.21951e-08
0.000488559
-2.40365e-06
-0.00722238
8.43814e-05
0.00606806
5.47026e-07
2.17957e-07
3.28255e-06
2.02889e-06
0.000799577
6.81457e-07
5.43421e-07
1.56259e-06
1.20859e-06
-0.00023948
-0.00117323
1.81004e-06
-0.000306304
1.35813e-06
1.88375e-07
4.28656e-07
-2.01447e-06
-7.03048e-06
1.40905e-06
3.86599e-07
1.40034e-05
0.000123346
9.11078e-07
2.64646e-07
3.59854e-06
-5.57986e-07
7.87387e-07
-0.00848975
-0.000312804
3.41203e-07
-7.68237e-07
-6.05283e-07
1.36572e-05
4.12804e-07
-1.0719e-05
0.00192995
0.00235854
1.64564e-06
0.00125485
1.26748e-06
1.86297e-07
1.30005e-06
-1.7368e-07
4.29407e-09
9.56842e-05
4.43225e-08
-0.00850174
4.27798e-08
3.39218e-07
1.08157e-05
-0.00103179
0.0010929
-0.000393123
-1.9863e-07
1.13706e-06
6.62271e-07
3.47224e-07
2.75668e-05
-1.90715e-06
1.19653e-06
1.05917e-07
6.99241e-05
1.92712e-06
-3.3514e-07
-0.000243709
3.93141e-07
3.63128e-07
3.44579e-07
-3.1385e-07
3.86801e-07
2.45387e-06
1.61807e-06
4.86975e-07
7.11105e-07
-0.000208238
1.58285e-08
2.90128e-07
5.504e-07
-1.80376e-06
9.62703e-07
1.5458e-07
-0.000114295
9.00406e-06
-6.21635e-08
-3.13479e-07
0.000753978
3.18379e-08
0.00144869
1.21277e-06
-2.16216e-06
5.70808e-06
4.41229e-07
5.46694e-07
1.12514e-05
3.94158e-08
9.0941e-07
4.34399e-07
2.44591e-06
8.69784e-07
-8.85504e-08
1.09513e-06
4.53873e-06
0.0005881
-0.000187786
1.8345e-07
9.46913e-07
0.000665878
3.29937e-07
2.07306e-06
-0.00221761
-2.35521e-06
-1.94941e-07
1.65553e-06
0.000570673
-2.49238e-06
-7.94943e-09
2.29803e-06
4.40594e-08
0.00122692
5.08911e-07
-6.10642e-05
4.94829e-07
-0.0011116
1.42687e-07
-0.00418312
4.18739e-07
6.28507e-07
1.66188e-05
-5.1786e-06
1.45286e-05
3.74817e-08
-8.3765e-05
5.20867e-07
3.23762e-07
-0.00039662
1.89371e-06
-0.00109815
3.46419e-06
7.54785e-07
-1.86678e-06
-0.000287508
4.37872e-07
1.00664e-06
-9.51003e-06
-5.32921e-08
7.89515e-08
1.57564e-06
-1.19893e-06
-0.000104183
-1.19025e-05
6.72994e-07
-7.04113e-09
7.96687e-05
0.000537723
2.72781e-07
2.45142e-06
-9.01474e-07
-0.000631506
1.31311e-06
-0.000983003
3.50931e-07
4.78572e-07
4.42814e-06
0.000413341
2.77167e-07
3.44265e-07
1.58337e-06
-0.00270754
3.62482e-06
1.28503e-05
7.21152e-05
3.16687e-08
6.16642e-07
2.72981e-07
-0.00183049
9.4902e-07
5.48244e-06
3.29352e-07
2.70152e-07
6.52184e-07
-0.000473972
-6.45288e-06
1.32469e-06
3.6147e-07
0.000406508
1.13796e-06
6.49552e-07
-5.88733e-09
-0.000186269
3.0579e-06
-0.0013113
1.45706e-05
2.62395e-07
4.90433e-07
-1.4617e-06
1.47019e-06
-0.000884553
-0.00379078
-2.23709e-07
1.44029e-08
-0.00305273
-0.000201653
1.20812e-06
3.81439e-07
1.78592e-07
1.01155e-06
0.000249284
1.53073e-06
3.37608e-07
-0.00399594
-3.74138e-08
-0.000735718
7.02731e-07
4.78542e-07
-0.00141007
-1.07489e-08
-6.7629e-05
-0.000370347
-2.07609e-07
1.3148e-06
6.79026e-07
3.74624e-07
0.000922766
3.34121e-07
2.34414e-07
-0.000327075
4.45477e-07
4.78379e-07
1.88981e-06
-0.00144389
2.75867e-06
3.58281e-08
1.43893e-06
2.93636e-08
1.84874e-05
7.85124e-05
2.7203e-06
-3.92873e-07
2.7181e-06
7.34485e-07
3.52705e-07
6.45555e-09
-1.78678e-08
2.04145e-07
7.79986e-05
-7.2625e-05
-8.16107e-05
1.91399e-07
-0.00148129
-8.89045e-05
2.89902e-08
9.4758e-07
1.11455e-06
7.68451e-05
-2.33498e-06
2.30285e-06
5.49216e-06
5.38177e-06
0.00296576
-0.000534595
2.57809e-08
4.87677e-06
4.22783e-06
6.81043e-06
3.54441e-07
-2.92369e-06
-0.000300209
-3.34849e-07
0.00461308
-3.86913e-07
2.45151e-08
-6.79331e-07
3.93377e-07
-2.41674e-07
-0.000708405
-0.000804276
6.92933e-09
1.2362e-06
5.14403e-07
-0.000579004
7.25202e-07
-0.0106107
-7.24843e-05
6.94076e-10
-9.69474e-06
6.6682e-07
-0.00715398
-1.84044e-07
3.25285e-07
1.23924e-05
-4.23554e-05
-4.2242e-08
0.00294858
6.4776e-05
2.41429e-06
-0.000291939
5.72748e-06
5.94818e-06
1.38491e-06
-1.43109e-08
1.557e-08
2.87591e-07
1.45029e-06
-5.34954e-05
9.59674e-07
-0.00133966
-0.000438469
5.20494e-07
3.26769e-08
-0.000113532
0.000126193
4.96367e-06
-0.000354548
1.79613e-06
7.02261e-07
2.55561e-06
-0.000181586
-8.96103e-08
6.93059e-07
-1.07091e-05
9.97079e-08
-1.92201e-06
-1.96132e-07
5.49835e-07
1.30237e-06
-1.65607e-06
-8.66569e-08
2.3475e-07
1.44762e-06
6.48601e-06
0.000984959
4.9841e-07
1.82835e-05
4.53763e-07
1.85815e-05
3.54307e-07
-1.84842e-07
2.98077e-06
1.13874e-06
0.0014683
1.63542e-06
6.33778e-06
2.34236e-05
0.00276324
0.000141882
-4.92144e-07
1.59754e-06
-1.69922e-07
0.000598286
-1.02445e-06
-0.00014726
0.000401376
1.11685e-06
-2.56643e-05
-2.07139e-07
2.36658e-06
0.000431277
5.13887e-05
4.44671e-07
7.39151e-07
1.19769e-06
-8.80921e-06
-4.0181e-08
2.02779e-07
1.82481e-06
2.42128e-06
-2.8417e-07
-0.00239037
3.41814e-06
-3.70558e-07
-0.000138636
2.47531e-07
4.72705e-07
0.00686422
-7.66398e-09
2.84737e-07
-4.24666e-08
-1.31839e-07
3.6766e-07
4.88278e-07
-7.03858e-07
-0.000381067
4.58782e-08
1.05616e-06
5.67458e-08
-2.96185e-06
5.48564e-06
-1.18631e-06
-2.84492e-07
-5.55226e-07
-3.50746e-07
-0.00176268
2.64149e-07
0.000155851
4.0744e-08
2.029e-06
-0.000488623
-1.06506e-05
4.79582e-08
4.80649e-06
5.01863e-07
-1.9003e-05
0.000254445
-3.72478e-07
-0.00064525
-1.76367e-07
1.04114e-06
1.2767e-07
-0.000347929
4.12209e-07
-0.000166308
3.06513e-06
4.20085e-07
5.16851e-06
-0.000127142
1.01858e-06
-0.000874788
-5.73722e-07
0.00269461
-4.23348e-07
5.10083e-08
-4.24604e-08
9.77176e-08
0.000111569
1.46523e-06
2.82547e-06
5.36225e-06
-9.93146e-06
5.11866e-07
-0.000373169
0.000941747
5.53242e-07
7.1078e-07
-7.43928e-05
0.00286831
-0.00119039
-2.48344e-08
-0.000368627
0.000598123
0.000882893
3.14137e-07
7.16566e-06
-0.000730232
2.57912e-06
-0.00150734
-0.00301957
-0.000877111
3.79881e-07
-0.00115779
4.23277e-05
3.8747e-07
2.83233e-06
1.49355e-06
6.0094e-06
3.4734e-07
1.87215e-08
-2.92377e-07
-7.90431e-08
1.1394e-06
-6.16692e-07
0.00473414
-0.00173055
6.38036e-08
-9.78765e-05
-2.80653e-05
-0.00520976
0.000671643
1.03943e-06
4.42254e-07
-1.73514e-07
-3.92606e-06
-0.000619696
3.62348e-07
2.16899e-06
3.40646e-06
4.49088e-07
1.4526e-05
0.00211851
2.09513e-07
2.15388e-06
9.34501e-05
2.83291e-05
-1.87684e-07
1.01999e-07
0.00225727
-0.000386222
3.03747e-06
9.7277e-07
1.74719e-05
4.14807e-07
-3.93e-08
-0.000301233
4.25828e-07
3.52792e-07
4.38497e-07
3.83784e-08
4.6013e-05
1.21057e-06
4.00244e-06
4.30261e-07
0.00656304
-0.00169278
-4.76074e-08
3.70093e-07
9.54747e-07
1.13128e-08
-5.6937e-05
-0.00356705
-0.00479189
0.000706976
0.00408993
9.5407e-07
1.5675e-05
-2.03471e-05
7.22961e-06
9.62798e-07
4.4458e-07
1.88773e-06
7.93287e-07
-0.000457649
0.00255734
2.14425e-06
6.71707e-07
-1.09566e-07
6.02739e-07
6.2493e-06
-0.00102837
1.44829e-06
4.04299e-08
4.92857e-08
-2.73332e-08
6.51124e-07
1.60007e-06
1.45533e-07
-1.75279e-07
7.61505e-07
1.50049e-07
1.13392e-06
1.29269e-06
1.81978e-06
5.53884e-07
3.0305e-06
-9.02011e-08
-2.35782e-06
1.58029e-05
0.000408458
1.15677e-07
1.26137e-06
4.43789e-05
3.72751e-07
-0.000420627
-0.00051038
-0.000264811
0.00624886
-7.47879e-08
8.84882e-06
2.15086e-07
2.33173e-08
4.28094e-07
2.65335e-08
-3.94353e-07
1.62387e-07
-1.08298e-07
4.01003e-07
7.84659e-05
3.47318e-06
3.62683e-05
-2.70907e-07
4.03457e-07
1.42161e-06
1.14933e-06
0.000907904
1.52409e-06
6.61912e-07
3.17945e-07
2.04127e-06
-5.40328e-08
-3.63342e-07
4.50409e-06
-7.70954e-05
1.3654e-07
3.95951e-07
9.86991e-08
-3.52301e-07
1.1202e-05
-0.000173827
6.53311e-07
-0.000228852
0.00252534
-1.63648e-07
2.74525e-06
7.42652e-05
1.02323e-06
-0.00950419
2.91613e-07
2.03181e-07
1.50449e-06
2.66121e-07
-0.00363156
4.78382e-08
0.000422616
-1.17806e-06
8.7274e-07
-5.92831e-05
-1.5203e-07
3.26536e-07
3.03823e-05
3.13163e-08
5.1111e-07
-0.00636678
0.000663584
1.39859e-06
4.05455e-06
6.24523e-06
4.13557e-07
-2.43672e-07
-0.000499276
3.40513e-06
-1.5698e-06
-0.000574356
-2.50719e-07
6.0298e-08
3.82537e-07
0.00417065
4.23249e-06
3.35631e-07
-8.58143e-08
6.01444e-06
4.93424e-07
1.34985e-06
-0.000101464
-0.00157074
-7.72155e-05
4.4606e-07
1.31596e-07
4.7789e-06
-1.51578e-05
3.13885e-06
4.58816e-06
2.46397e-05
4.58985e-08
8.81982e-06
8.52289e-07
1.05109e-06
4.40818e-07
-0.0001915
-1.50214e-06
5.14845e-06
4.42178e-06
1.09779e-06
-2.3938e-06
3.79989e-07
-7.81345e-08
-0.000130695
7.23283e-07
2.2324e-06
3.98425e-06
3.9079e-06
-1.22429e-07
-0.0034021
-3.8587e-07
4.66988e-06
3.59032e-07
-1.55701e-07
-4.88982e-08
-0.000330583
-2.65469e-07
3.11491e-07
0.00499804
1.09611e-07
-4.03649e-06
-3.01139e-07
4.39529e-06
1.70643e-06
-1.37339e-05
-0.00135717
2.91332e-08
0.00115453
-0.000239948
2.82635e-07
-0.000701333
8.50863e-07
-5.60174e-08
7.16077e-05
9.54692e-06
0.000661636
4.48078e-07
5.00937e-08
3.78264e-07
0.000322267
1.007e-06
-2.54757e-07
3.31229e-07
9.3071e-05
4.97248e-11
4.48611e-06
2.16377e-06
0.000483548
1.06762e-06
0.00123154
1.18671e-07
1.07963e-06
1.91972e-06
-0.00126171
3.19427e-07
-0.00818393
2.77636e-06
1.13046e-07
0.000128618
-5.38699e-06
-1.49384e-05
0.000696836
-0.000239489
0.000147502
9.43872e-07
-6.31809e-08
4.26386e-07
-0.000261937
0.00109885
-4.47699e-07
2.8122e-06
1.56784e-06
7.70991e-05
3.99458e-07
-0.000118166
-2.25231e-07
3.26514e-08
-0.000151938
2.44329e-06
6.99493e-06
2.50597e-08
2.52312e-08
-4.85908e-05
4.33377e-06
2.79936e-06
2.50809e-06
-9.56293e-05
7.81435e-07
0.000454051
1.39505e-06
1.21841e-06
2.19836e-07
1.20397e-07
0.000539178
1.54362e-06
0.000130864
-6.12372e-06
9.65809e-07
-0.000100834
-6.24209e-05
-1.84487e-05
6.44843e-08
9.25847e-07
-3.90742e-08
6.24449e-07
3.09236e-07
-0.00554348
-6.4976e-08
-0.000220188
3.96448e-07
1.65583e-06
-9.34368e-08
6.3862e-07
9.44195e-07
8.93362e-07
-0.000221058
1.33988e-06
-3.45129e-07
2.35632e-07
1.60816e-06
-0.00164391
8.85917e-06
3.55788e-07
1.35716e-05
8.8332e-07
0.000794786
-0.000841894
1.01279e-07
-0.00108659
-0.000132682
-1.27772e-05
0.000183684
1.43461e-05
-3.95084e-07
-6.43977e-05
-8.50378e-08
-0.00607364
-6.17962e-05
-2.51309e-07
3.3218e-07
1.50176e-06
-0.00152381
-0.00633606
1.09832e-07
-5.14125e-08
0.00151613
-5.69564e-05
2.0911e-06
4.28839e-07
1.1292e-06
-0.000638013
-0.000260092
1.94503e-06
3.04162e-07
9.63207e-07
3.72252e-08
-1.46729e-06
4.36056e-06
2.51196e-06
-0.000143083
0.00230403
2.73699e-08
1.07791e-06
-3.96558e-07
3.84758e-07
5.75063e-05
-8.91914e-05
7.41307e-07
-0.0068284
-7.90262e-08
7.29649e-07
-4.08016e-07
2.95455e-08
7.8942e-09
2.08476e-08
1.35884e-05
5.14689e-08
1.48686e-06
6.58093e-08
4.55807e-07
5.36657e-06
1.18051e-05
-6.29458e-07
0.0025525
1.92346e-07
4.92152e-06
7.60618e-07
8.04498e-07
0.00010982
6.57763e-07
-8.40099e-07
-0.00418534
0.00135188
-0.000217125
9.58205e-07
-3.78504e-06
7.24858e-08
1.25033e-06
1.3807e-06
-0.0071546
5.55758e-09
-0.00107138
-2.32252e-07
-2.78768e-07
4.10359e-05
1.65761e-06
1.54324e-05
4.79725e-07
-5.48539e-08
1.08258e-05
-4.98436e-08
1.72588e-08
2.70171e-07
2.66238e-07
3.54509e-06
-2.60293e-07
4.42601e-06
-0.000247269
1.79899e-06
0.00012921
1.11168e-07
-4.89395e-07
2.10512e-06
-9.14074e-08
-1.66092e-08
1.92513e-06
2.96262e-07
-2.7102e-07
-4.37372e-08
3.74738e-06
-1.54805e-05
-0.000168093
4.699e-06
-0.000285967
3.15687e-06
-3.97704e-08
-0.00375427
6.64402e-07
-2.34529e-07
-0.000468468
-0.0029318
-0.00170903
5.37481e-09
0.000370463
-0.000728129
-0.00038035
1.31625e-08
-1.03971e-05
7.08126e-07
4.64397e-07
2.61507e-07
-2.27006e-07
-0.00263438
7.25849e-07
-0.00446675
-1.95147e-07
3.27276e-08
0.00192291
1.10337e-07
1.13534e-05
-0.000661705
0.000959113
5.06239e-06
6.22374e-05
2.24587e-06
-4.3586e-08
-6.52764e-06
-8.91496e-06
4.30014e-07
1.02755e-06
1.00103e-06
2.89348e-07
1.08763e-06
-0.00158488
-2.74559e-07
-3.02621e-05
9.92848e-06
-0.00333175
2.99896e-06
3.28815e-08
7.06737e-07
-1.45e-07
0.000123337
-2.50953e-05
-8.28231e-09
-2.23917e-06
-2.33979e-07
1.75986e-06
4.3546e-07
-2.58802e-07
3.42803e-07
8.83804e-07
4.8993e-06
-8.37106e-07
-1.16041e-07
-7.46854e-08
1.57325e-06
-3.60963e-05
3.00255e-07
-0.000947992
-1.5807e-05
1.9936e-06
5.42186e-07
1.37256e-06
1.49175e-08
2.75247e-06
-1.66453e-07
-8.85584e-06
2.82366e-06
0.000495973
4.28817e-07
9.23018e-06
2.79582e-08
-1.66473e-06
-4.92041e-08
-0.00240263
0.00283758
5.35e-07
8.71539e-07
-2.62212e-06
1.09455e-05
-8.80737e-07
0.00106126
-2.22056e-07
0.00474305
1.40831e-06
-0.000800116
2.23165e-06
1.90756e-06
9.29025e-07
-3.32465e-05
0.00019577
0.00035315
6.1345e-07
5.68718e-06
4.31904e-07
3.44621e-07
6.01372e-07
1.3961e-07
-3.16302e-05
6.65072e-07
6.74766e-07
-0.000173019
2.74927e-06
0.000229119
3.21267e-08
4.37595e-07
3.43787e-07
7.62441e-07
5.93045e-07
0.00191112
0.00513813
-0.0013512
1.06601e-08
6.59009e-07
3.08685e-06
0.00277185
-0.000394596
-6.95248e-06
7.1447e-07
2.62964e-07
-0.000375043
1.00628e-06
-0.00125378
-0.000443054
-0.00286794
5.47326e-07
2.24182e-05
8.34212e-07
1.1232e-06
7.18652e-07
-0.000872654
-5.96383e-05
1.22788e-06
-1.29543e-05
1.99818e-07
-7.03289e-06
4.24595e-08
-0.000195617
-1.40027e-06
-2.32172e-05
5.50232e-06
6.13518e-07
3.01324e-06
3.39265e-07
-0.000950989
4.8128e-06
7.76465e-07
4.76666e-06
-8.0373e-05
1.31326e-05
1.97691e-05
-3.83114e-08
-3.55537e-08
2.70334e-05
-3.68655e-05
-0.000309938
-1.85753e-07
9.18689e-08
1.50188e-08
-1.39671e-05
3.06572e-06
2.54722e-07
-0.00374128
1.03969e-06
-0.000839312
1.89928e-05
-0.0073692
3.9363e-08
2.65124e-05
5.19836e-07
-2.84549e-07
3.04106e-06
0.000981554
1.2481e-07
-2.49729e-07
4.59866e-05
-0.000769117
1.52069e-06
3.82181e-09
-0.000301094
7.69274e-07
-6.42886e-06
1.53506e-08
0.00251046
-4.99137e-08
1.58424e-06
-0.00135075
-0.000420039
3.34105e-07
1.86788e-05
0.00184434
-9.52878e-05
1.22795e-05
0.00346468
-0.000924638
-1.86749e-08
-1.23456e-05
-1.131e-06
2.95775e-08
7.71716e-07
-0.00146644
-1.67179e-07
2.59399e-06
-2.613e-07
6.75345e-06
-3.31515e-06
1.15812e-06
-3.47736e-05
3.62098e-07
2.48717e-06
-2.51038e-08
8.99593e-07
6.55305e-06
-0.000454203
4.92372e-08
1.41248e-06
-0.000167604
-7.97185e-08
-2.54841e-07
-5.20717e-05
9.54912e-07
7.04952e-07
2.71941e-06
0.00161859
0.00124314
5.10732e-06
-1.60678e-05
-0.00103517
2.98164e-05
0.000338796
0.00140685
1.35591e-06
9.41079e-08
2.768e-06
-2.88343e-08
7.26681e-10
-0.000479425
-5.69438e-05
3.55052e-07
-5.99852e-05
4.08489e-05
-2.38224e-05
-0.00645546
-0.00109163
-1.074e-07
1.80615e-05
-0.000459851
-2.64171e-07
3.17315e-07
-0.00048083
-0.000154786
0.000473825
-0.000979925
3.65978e-07
-0.000310488
-0.000724039
8.97479e-07
-4.38523e-08
-2.53988e-07
0.000238877
-8.70398e-08
4.44542e-06
-1.98185e-07
3.72125e-07
3.71368e-07
-7.01226e-05
-0.00131729
-0.000479574
-1.05017e-07
2.86121e-05
3.14214e-07
2.30325e-07
1.42675e-08
8.69452e-07
-0.000202443
4.82057e-07
-1.87812e-05
0.000700225
-0.00313797
2.7442e-06
1.47179e-10
7.81344e-07
1.76722e-08
2.99377e-06
-3.61704e-06
3.48938e-07
-1.30475e-07
-2.80172e-07
3.31883e-06
3.52457e-07
8.06483e-07
-1.56589e-07
8.14479e-07
3.00442e-07
5.83909e-05
-3.12348e-07
1.27497e-06
-1.30506e-06
-5.33278e-06
1.57067e-06
-0.000427301
6.18346e-06
9.27414e-07
4.47003e-07
-2.59747e-08
-0.0016578
-1.55107e-07
4.24407e-06
1.2301e-08
-1.0064e-07
2.44698e-06
-0.000266168
6.34908e-07
6.81272e-07
1.12631e-05
1.67567e-06
1.69037e-06
-0.000312293
3.66641e-06
1.00637e-06
5.0252e-08
-0.00020135
1.95958e-07
-3.78461e-07
3.11474e-06
-0.000236258
-3.47565e-07
1.7661e-07
-8.71416e-06
3.30931e-05
2.78943e-07
3.71291e-07
-7.36526e-05
3.50579e-07
-0.00087175
4.13953e-06
-0.000560708
-5.75024e-08
1.67551e-06
-2.54549e-09
-0.00101291
2.82959e-06
9.6812e-07
2.69093e-06
-0.00048122
2.93955e-07
-0.000439847
-0.00246355
-1.77675e-07
-5.81475e-05
1.97684e-06
-7.47678e-08
-0.00021521
1.1449e-07
-4.41237e-07
-1.75213e-07
2.65142e-06
-0.00232623
3.23512e-06
3.75771e-07
2.39399e-07
8.50538e-07
-0.000858069
4.79147e-06
-0.00129672
0.000335594
3.56198e-07
2.8747e-06
1.0314e-06
-0.000226015
1.40708e-06
0.000119592
-9.24862e-08
1.46485e-05
-2.29915e-07
-0.000284734
7.74809e-08
-7.12246e-09
-0.000395308
5.42992e-06
7.79035e-07
9.88354e-06
4.94783e-07
1.68329e-06
1.36127e-06
7.95808e-07
0.00331804
1.30241e-06
1.06542e-06
1.75913e-06
1.12743e-06
-0.00599118
-0.000214454
-0.00140632
-3.30741e-07
-2.93947e-07
3.94168e-06
-0.000401844
-0.000210174
3.34173e-05
8.76307e-09
2.50439e-06
2.92169e-05
-9.49841e-08
6.31098e-07
3.3568e-08
1.21792e-06
1.67265e-06
1.86188e-06
-0.000159217
5.12029e-06
3.22408e-07
0.000131577
5.36836e-06
3.59578e-08
-4.53218e-06
-0.00146416
-0.000175362
4.58809e-07
1.94245e-06
4.38151e-07
-2.75376e-07
-9.2229e-08
4.15784e-07
-0.00139702
-0.00014519
-0.000166082
-0.000378035
3.46728e-07
4.77002e-07
1.31883e-06
1.08583e-06
-1.17567e-07
-2.00233e-07
-0.000419657
-9.38972e-08
-0.00102475
3.33097e-07
-3.72932e-06
8.68893e-07
3.89446e-06
-1.15204e-05
3.77953e-05
1.20078e-06
5.42916e-07
1.72992e-06
2.26125e-05
8.78112e-06
5.16236e-07
4.18611e-08
-1.23108e-07
1.03157e-06
6.93331e-07
3.11415e-06
-0.00172179
2.8872e-07
-1.99623e-07
2.68601e-06
-0.000118498
4.3136e-05
0.0043235
-5.07418e-09
1.35593e-06
-1.99993e-07
-0.0013073
6.17758e-07
-0.000423527
1.29579e-06
2.16933e-07
7.81187e-07
2.014e-08
1.96172e-05
7.9525e-07
1.28254e-06
-0.000324023
-0.000170106
5.48075e-07
7.05898e-07
-9.49751e-08
2.85459e-05
-0.000404923
-1.02823e-07
6.09455e-07
-0.000367484
3.6939e-07
0.000179636
-1.20148e-06
-4.37171e-07
1.1922e-06
-0.000337791
-1.85348e-07
-2.63864e-07
1.04179e-07
1.81306e-06
-0.000597209
-2.81456e-08
0.000368058
-0.000101724
0.00230368
1.38094e-05
3.68998e-07
-3.32909e-05
5.76008e-07
9.3638e-07
3.25345e-08
0.001798
0.00151678
-0.00012177
-0.000300003
-0.00499017
1.78956e-06
-0.00329037
-2.62351e-07
7.51642e-05
-0.000618814
-0.000335973
-0.000288427
4.79113e-07
-0.00255336
0.00482839
3.74523e-07
3.2481e-07
1.4441e-07
-1.10083e-06
4.62501e-07
1.83099e-06
-2.12021e-06
-6.05552e-08
4.06006e-08
5.78561e-08
-0.000321221
4.24449e-06
6.74643e-07
-0.000386263
1.01352e-05
1.57308e-06
3.0471e-08
-2.90397e-07
3.52101e-06
-0.000391357
3.64683e-06
3.9458e-07
-1.43394e-06
0.00501221
1.07586e-06
1.21461e-06
-0.000102607
6.46527e-07
-0.00125464
8.94833e-07
8.23757e-08
2.91276e-08
-1.93999e-06
1.32557e-06
-0.000467175
0.00150109
-5.08898e-05
1.05063e-06
0.00375471
-7.35351e-06
4.7839e-07
2.74916e-06
-0.000209463
-0.000326516
0.00293367
-0.00325375
4.34166e-07
4.75342e-08
3.85409e-09
1.9838e-08
-2.05324e-07
-0.000139725
6.49549e-07
-0.00018477
5.31059e-07
-8.80953e-05
-0.0002864
-0.000692835
4.82536e-05
5.98156e-07
-0.000327613
4.04141e-07
-7.47387e-05
4.27255e-05
5.62515e-08
0.000376208
6.31006e-07
7.59574e-05
-3.51988e-05
5.52628e-07
-0.00192269
7.10803e-05
-8.20052e-07
-2.2153e-06
-5.22964e-08
-7.55308e-05
-0.000582044
4.4884e-07
1.14584e-07
0.00182358
1.61926e-05
1.77705e-06
0.0028129
2.69893e-06
2.36993e-06
4.81377e-11
-0.00765111
-0.000141611
1.72687e-06
9.07274e-07
-0.000379854
-0.000345171
-2.74645e-07
5.17789e-08
4.70275e-07
-0.000444393
-0.0003407
4.20405e-08
1.70838e-05
3.40179e-07
-2.75671e-07
3.2858e-09
-0.000595565
3.27026e-06
-0.000569639
-0.000194677
3.41512e-07
3.63225e-07
-1.09016e-07
9.69942e-05
-1.63688e-07
0.00226247
3.78441e-07
0.00075228
2.52864e-07
-3.94491e-08
1.39066e-06
-0.000131544
-0.000403945
7.41124e-07
-0.000223011
2.69256e-07
9.66651e-08
5.68107e-08
1.01596e-06
1.28486e-06
1.34199e-06
-4.75842e-07
-0.000564959
4.91116e-07
1.11456e-06
-1.45177e-05
-0.00475487
-6.686e-07
-4.96941e-06
-9.32845e-05
5.29353e-07
-0.00215067
1.80374e-06
-0.00045778
1.4458e-07
2.13032e-06
-3.723e-07
-5.56356e-05
7.11238e-05
-3.88921e-06
-0.00104308
3.73297e-07
1.53263e-06
2.91701e-07
2.98886e-06
5.83143e-07
3.7243e-08
0.00223276
2.05553e-06
-0.000486077
8.99951e-06
1.70565e-06
6.55034e-07
-1.74572e-07
-0.0055261
1.33975e-06
-1.90703e-07
3.07046e-06
1.44301e-07
1.23864e-06
3.90675e-08
0.00187527
-3.42782e-07
0.000211431
0.000798565
4.72276e-07
-3.28507e-05
1.38886e-06
-0.00130971
-2.8097e-07
-0.000217607
-0.00243522
6.82974e-08
4.27587e-08
3.87062e-07
2.74604e-07
9.17963e-07
-3.60332e-08
0.000579602
1.86534e-06
1.02217e-05
-0.000316555
-1.98674e-07
2.97332e-07
-2.27069e-07
2.63122e-05
1.09428e-07
-1.63082e-07
3.86697e-06
4.59662e-07
-0.000430783
-0.00103372
2.16786e-06
4.67213e-07
7.55776e-07
3.81812e-07
3.64266e-07
-0.000506545
6.6e-07
4.66082e-07
-0.000106881
-0.000672752
3.48313e-06
3.9654e-07
-0.000177698
0.000927602
2.78479e-07
6.29766e-06
-0.000470544
4.10539e-08
4.3599e-07
4.07882e-08
6.33655e-05
-0.000325862
-0.00580217
6.6226e-07
4.48152e-07
1.54827e-06
1.03214e-07
2.17132e-06
-8.83672e-08
0.00113285
-6.74812e-05
-0.00132017
1.58639e-08
4.65911e-07
4.06485e-07
-2.36325e-05
5.0127e-07
-0.000377146
-0.000183637
-0.00230788
0.00121143
-9.02556e-05
-0.00177446
5.26645e-07
-0.00696582
0.000653372
2.32898e-07
-1.52178e-07
-6.01007e-08
-0.000959776
-0.000149034
-0.000207456
2.26708e-06
-0.001297
1.22391e-07
9.07359e-07
1.12707e-07
3.72062e-07
2.76306e-07
3.58826e-08
-0.000257102
2.5068e-07
-0.0020676
-0.00017154
-0.000381301
1.03257e-06
1.56026e-06
-0.000336788
-0.000495807
-2.22661e-07
2.73744e-05
-2.58271e-07
3.23175e-07
3.22927e-08
3.14494e-06
3.58332e-07
-0.000342183
1.12037e-06
0.000195029
-4.75032e-07
-0.000149331
-0.000398977
-6.61068e-06
5.75899e-08
1.36413e-06
1.56238e-06
-0.000251056
-8.32127e-07
4.2516e-07
-2.91629e-07
-0.00125684
-3.27094e-07
0.00014773
-0.000297107
1.172e-06
9.88545e-07
-6.63329e-07
0.000169931
2.58329e-07
-0.000403215
-1.54579e-07
-7.67151e-05
9.33461e-07
1.02661e-07
-0.000327767
-0.00035099
-1.4167e-07
1.7207e-06
4.18315e-07
-0.000172867
-0.000511783
-1.42576e-05
0.000145737
2.5795e-07
1.20204e-06
-0.000224853
4.41804e-07
2.96297e-06
1.3836e-06
1.97681e-06
9.04552e-07
-0.000209516
-6.07613e-05
1.14108e-07
-2.1679e-06
3.34401e-07
1.08318e-06
-0.000466285
-0.000285329
-1.05085e-07
-3.73738e-05
-1.9087e-06
1.23141e-07
0.000168989
2.95571e-06
8.60354e-07
2.42621e-07
-0.000266073
-1.3736e-07
-0.000185124
6.95092e-05
6.62788e-07
3.32767e-08
3.77196e-08
-2.07292e-05
1.09899e-06
0.000243387
3.77146e-07
4.27926e-07
-1.52013e-05
-0.00050925
6.37044e-07
-0.000571745
0.00397113
-0.00037337
-3.64404e-08
-0.000518501
-7.65947e-06
-0.000163956
3.57961e-08
1.60862e-06
-3.41862e-07
-0.000798011
9.82565e-06
8.89221e-05
0.000331518
2.61558e-07
4.45015e-07
3.85874e-08
-0.00016313
6.61712e-06
-0.000371258
-0.000410447
-8.03177e-08
-0.000136836
-0.000614247
2.89854e-06
-0.000159239
-3.17586e-05
-3.59744e-07
-0.000288038
4.13888e-07
5.91854e-07
4.33635e-05
-8.31634e-05
1.442e-06
-0.000133472
-1.13504e-07
5.71735e-08
-0.0016365
-5.09927e-05
-0.000283434
6.54716e-05
6.09583e-07
2.7246e-07
-4.8653e-07
-0.000742995
-0.000328482
-9.34934e-09
1.45623e-06
-0.000547785
5.88761e-08
8.42072e-08
-0.000414828
-0.000205958
3.79927e-07
2.63051e-08
2.2467e-07
3.12668e-07
-0.000685596
2.70665e-07
-8.37523e-08
4.09434e-07
8.32549e-06
0.00113869
-0.00157735
7.43911e-05
1.15152e-07
3.24957e-07
-6.83001e-05
-0.000628747
2.2473e-07
-7.62419e-06
3.8756e-08
9.31766e-07
-2.15079e-07
1.59064e-06
1.31753e-06
-3.88284e-07
0.00026974
2.92873e-07
-2.35403e-07
3.19172e-07
-9.05406e-06
-0.00262707
-1.72786e-05
6.39428e-08
-1.02212e-06
-0.000856734
0.00471406
4.8566e-07
-7.74105e-07
2.10545e-08
-4.019e-05
8.29243e-08
5.07558e-09
6.30427e-07
4.07736e-08
-6.64614e-05
-0.00246329
2.381e-07
4.27403e-07
6.14907e-07
-6.76018e-08
0.000459187
0.00010103
1.51817e-06
-0.00019265
-0.000104635
3.12215e-07
4.26511e-08
1.02517e-07
-3.38876e-07
2.32478e-07
-1.2725e-06
2.475e-06
-0.000433359
6.82136e-07
1.58383e-06
-2.4789e-05
9.08943e-05
-1.62148e-07
2.96062e-08
4.25369e-07
-0.000856142
-3.41669e-07
2.1281e-05
5.31276e-06
1.56534e-06
7.59299e-07
5.28752e-06
6.55658e-07
-0.00117997
-1.81411e-07
6.50821e-07
-3.24946e-07
-4.38658e-07
-9.17289e-05
-3.84893e-05
9.81299e-05
9.14553e-07
-0.00208813
-0.00148001
0.000416872
8.9099e-07
-4.16156e-05
-0.000206882
1.22281e-06
-0.000360849
-0.000467658
2.61015e-06
0.000481448
2.90661e-07
2.92711e-07
0.00372616
-1.94637e-07
4.4469e-07
-0.00156782
0.000242692
0.00141032
9.18882e-06
-2.30674e-07
1.05016e-06
7.30143e-08
0.00158974
1.0659e-07
-8.08728e-07
-0.000486021
-0.000501685
0.00109389
5.02073e-08
-1.07989e-07
1.71787e-06
-7.95777e-05
-7.04368e-05
1.00247e-06
4.54806e-06
-7.3877e-08
5.22582e-06
0.00013881
0.000405056
3.71338e-07
6.29258e-08
3.70018e-07
3.54271e-07
-2.1371e-07
-2.89041e-07
4.28541e-07
-5.34524e-05
1.62633e-06
-2.0975e-05
0.00481928
8.43902e-06
3.21267e-06
3.07235e-08
3.46776e-07
1.15375e-06
-1.55612e-07
2.66141e-07
-0.000186274
-0.000240989
0.00346415
-0.0012905
4.05453e-07
-0.000426472
7.75354e-07
-0.000652627
2.01902e-05
-7.4205e-08
-2.70897e-07
9.65736e-06
1.90018e-08
-1.36257e-07
-0.00894843
-6.9069e-05
7.56652e-06
5.47282e-08
1.03535e-07
-8.06232e-06
8.63494e-07
-2.65278e-05
-2.52507e-07
4.9178e-07
2.5301e-06
-3.73599e-07
0.00280174
8.71915e-07
-0.00507159
2.69469e-07
4.37647e-06
3.36406e-05
4.73496e-07
-0.000656673
2.18039e-06
-1.12347e-05
6.57589e-07
3.83107e-07
-2.32429e-07
6.21769e-07
-0.000621109
2.89995e-06
-0.000142275
3.54225e-07
-8.60408e-08
2.19679e-08
-0.00102286
1.25508e-06
1.96559e-06
-0.0083518
-1.047e-07
4.12159e-07
-0.000240451
1.41226e-06
2.81627e-07
5.53808e-07
-1.50026e-08
-1.84952e-06
-6.6118e-07
-1.27609e-07
-0.00115863
-0.0012699
-0.000770141
1.14425e-05
4.8045e-06
-0.000420067
1.8494e-06
-0.00141798
9.49923e-07
6.25443e-07
1.21624e-06
3.56026e-07
-5.65585e-09
-0.00083364
-0.000886187
6.60691e-07
-7.68428e-05
-0.000790974
7.90325e-07
6.32976e-07
-2.61384e-07
3.39461e-05
-0.000364153
-5.27084e-05
0.000320528
-7.74378e-05
3.82576e-07
2.22629e-06
1.19516e-06
0.000198654
3.55961e-06
4.05508e-08
2.94227e-06
-0.000329926
4.64909e-07
0.000126559
4.72079e-08
2.04501e-06
-0.000387218
-0.000249269
1.95817e-06
6.99832e-07
-8.6594e-06
2.93244e-06
-0.000188541
-0.000620611
-6.52206e-05
2.53015e-06
-0.000424
1.04176e-07
-1.11972e-07
1.31261e-06
2.24842e-05
0.00104707
1.16336e-05
1.47801e-07
9.82408e-07
2.32431e-06
1.39198e-07
-0.000529708
4.34218e-08
2.8097e-06
-7.59532e-06
3.70141e-08
-0.00571424
-0.000740159
-0.000438987
-0.000347057
4.42641e-06
-2.64513e-05
-3.98408e-07
-0.000923203
-3.21568e-07
8.19326e-07
1.11284e-06
4.45332e-07
-8.13019e-05
4.73792e-07
-8.14348e-07
4.48363e-07
-3.18249e-07
-5.30997e-05
3.75192e-07
2.61005e-06
0.000134467
5.12958e-08
0.000222514
1.27947e-06
1.69631e-07
-0.000233949
3.60616e-06
3.82558e-08
-1.67218e-05
3.90564e-07
-0.000802704
0.00518152
7.211e-07
2.63966e-06
3.69027e-07
-0.00112308
-8.37359e-05
1.54825e-06
0.00493907
1.03143e-06
2.62358e-08
-0.00188495
4.65919e-07
-3.51548e-07
1.00912e-05
1.28171e-06
-4.44216e-08
-2.42491e-07
8.68678e-07
3.90655e-07
-1.97782e-05
2.37254e-06
0.000198439
-0.000458856
1.53562e-06
1.04017e-06
-4.14438e-07
-0.0012085
6.8574e-05
-0.000362071
3.56516e-08
4.62439e-07
1.23025e-06
5.80708e-07
0.000103762
-3.47104e-07
-0.00024237
-6.24941e-07
5.14331e-06
1.54465e-08
0.000450661
9.06021e-07
2.67595e-06
0.000106268
0.000613037
-0.000425013
-6.02304e-05
3.20412e-07
4.66831e-06
3.579e-06
3.56578e-05
8.96237e-08
-2.3502e-07
3.47254e-05
-0.000304432
2.78283e-06
5.75722e-06
0.00472003
-0.00128466
1.44863e-06
4.23793e-06
4.07078e-08
1.34567e-06
1.36122e-06
3.68627e-08
1.74073e-06
-0.000496354
-0.000623198
-0.000352013
2.1941e-06
-4.05182e-09
-2.19808e-07
1.1083e-06
3.91033e-08
0.00120351
-2.67708e-07
-2.60627e-07
-0.00130721
4.1832e-06
-3.36362e-07
1.40295e-06
1.22668e-07
1.78414e-06
-0.000241059
-9.1326e-05
-0.000262196
5.92748e-07
-9.67183e-05
-5.31192e-07
-1.44413e-07
3.9551e-07
-2.4921e-05
4.76358e-06
2.08942e-06
4.1678e-06
3.2342e-07
-2.92741e-07
3.82994e-08
2.93513e-07
6.57374e-07
-0.000436724
3.75148e-06
6.54723e-07
-0.000574416
-2.15714e-05
0.00219348
0.000127225
6.37028e-08
7.30105e-07
-0.000400182
4.93258e-08
1.7246e-06
6.15185e-07
4.70406e-07
0.000401428
-9.05124e-05
-2.79505e-07
1.25433e-06
6.93667e-07
1.27413e-06
-3.4253e-05
-0.00911465
-0.0013772
-3.0673e-07
2.08122e-06
-0.00122289
2.06369e-06
2.68016e-06
0.00451461
-0.000133921
-0.000324422
-0.00137209
-2.19595e-07
-0.000325683
4.65799e-07
2.50734e-07
2.97774e-08
9.86868e-07
-0.000508959
2.09034e-05
0.000841855
-0.000166574
1.03584e-06
-1.27747e-07
3.4643e-08
9.4805e-08
-8.75024e-07
1.20164e-06
-0.00142211
-0.00105187
1.98913e-06
-0.00268983
-2.43909e-08
1.05617e-06
2.44019e-08
-0.000359819
-3.27175e-06
-3.1957e-07
1.05571e-06
1.60667e-06
-0.00501606
3.88382e-05
8.45177e-07
-3.58496e-05
4.24955e-07
-0.000264996
3.74567e-06
4.44749e-05
-0.00054525
-4.99743e-07
1.07272e-06
9.06446e-08
-0.000429181
-0.000231807
9.33958e-07
0.000780145
4.01003e-06
-0.00181128
1.00925e-06
6.8861e-06
-1.10842e-06
1.23657e-08
2.72886e-06
1.734e-06
4.70189e-07
1.0989e-06
7.38787e-07
7.38607e-07
-0.000235586
3.20709e-06
3.84124e-07
6.07877e-07
9.5101e-07
4.03123e-07