/*--------------------------------*- C++ -*----------------------------------*\
| =========                 |                                                 |
| \\      /  F ield         | OpenFOAM: The Open Source CFD Toolbox           |
|  \\    /   O peration     | Version:  v2012                                 |
|   \\  /    A nd           | Website:  www.openfoam.com                      |
|    \\/     M anipulation  |                                                 |
\*---------------------------------------------------------------------------*/
FoamFile
{
    version     2.0;
    format      ascii;
    class       volScalarField;
    location    "1000";
    object      k_0;
}
// * * * * * * * * * * * * * * * * * * * * * * * * * * * * * * * * * * * * * //

dimensions      [0 2 -2 0 0 0 0];


internalField   nonuniform List<scalar> 
13851
(
0.000151871
0.0185394
0.000182767
0.00015127
0.000182799
0.000356476
0.000144713
0.000170738
0.000143991
0.000186082
0.000239839
0.0351852
7.95934e-05
0.0307695
0.000143623
0.000162158
0.000153091
0.000159474
0.000211019
0.000143515
0.000150736
0.000182176
0.000150009
0.000175401
0.000152619
0.000171238
0.000152121
0.00127977
0.00015135
0.000152265
0.000592602
0.000153611
0.000182009
0.00343727
0.000169034
0.000204791
0.000225982
0.000198793
0.000188354
0.00332685
0.00014333
0.000136929
0.00454702
0.000501285
0.000614246
0.0146003
0.00121197
0.012026
0.000152535
0.00310432
0.000182295
0.000193867
0.00620865
0.000144927
0.00015337
0.000137062
0.000155337
0.00870936
0.00015179
0.000144812
0.000198555
0.0121664
0.000194674
0.000185628
0.000192222
0.000155445
0.000243157
0.00186511
0.00016286
0.00015932
0.00966737
0.000251841
0.0202942
0.00014562
0.00014147
0.000148854
0.000181429
0.00921795
0.000171372
0.0109527
0.000145971
0.0010744
0.000142945
0.0119185
0.000193666
0.0334578
0.000197213
0.0135017
0.000153889
0.000156646
0.000204504
0.000282977
0.00213395
0.000156813
0.000153613
0.000178928
0.000183379
0.0137862
0.00482243
0.00018075
0.019863
0.0001735
0.000147424
0.000151756
0.000146384
0.000105739
0.000176175
0.000134752
0.000131508
0.000457232
0.000185414
0.00015738
0.000204548
0.000200096
0.000182375
0.00815977
0.0131497
0.000135211
0.000169794
0.000158755
0.0043182
0.000151558
0.000111337
0.0121716
0.0102085
0.000156928
0.00960094
0.000172438
0.000150298
0.000192147
0.000143181
0.00014052
0.0109707
0.000142967
0.00887956
0.000141667
0.000135363
0.000254445
0.0278049
0.0409941
0.0187526
0.000152658
0.000170975
0.000144173
0.000150165
0.000581116
0.000152975
0.000192448
0.000144608
0.000462475
0.000184923
0.000154844
0.0302491
0.000155068
0.000149516
0.00015
0.000143961
0.000149844
0.000193651
0.000181827
0.000137619
0.000156873
0.00825991
0.000140387
0.00015737
0.000140842
0.000152894
0.000163278
0.000149877
0.0105224
0.00855924
0.000138704
0.000143947
0.0395274
0.00014021
0.0129927
0.000171534
0.000166851
0.000213201
0.000135147
0.000154675
0.000255841
0.000142993
0.000183401
0.000133645
0.000163891
0.000155679
0.000147665
0.000184978
0.000182567
0.00151113
0.00706561
0.000159118
0.000162855
0.0119647
0.000149142
0.000167025
0.00562407
0.000165477
0.00014905
0.00015724
0.0216304
0.000184332
0.000142364
0.000180228
0.000143047
0.0132326
0.000153352
0.0155347
0.000135852
0.00794469
0.000147026
0.00416626
0.000134199
0.000142735
0.000186491
0.000186285
0.0139308
0.000143085
0.0158935
0.0001536
0.000146235
0.00953552
0.000192134
0.0134336
0.000163018
0.000158911
0.000147943
0.00913656
0.000134204
0.000170422
0.000208525
0.000138368
0.000158459
0.000180118
0.000171286
0.0116881
0.000194507
0.000143908
0.000142422
0.000329984
0.00906457
0.00014281
0.000181885
0.000142977
0.0166163
0.000173999
0.001399
0.000150193
0.000154439
0.000167652
0.00878533
0.000145837
0.000150352
0.000174743
0.0137021
0.000181248
0.000254656
0.00451684
0.000143619
0.000143027
0.000158059
0.01126
0.000150685
0.000170524
0.000149112
0.000145686
0.0001562
0.00701798
0.000176127
0.000169672
0.000149513
0.00403047
0.000169951
0.000161516
0.000140675
0.00114786
0.000162517
0.0107511
0.000232846
0.000142752
0.000134949
0.000147041
0.00017358
0.0113613
0.0133462
0.00014621
0.000143736
0.00440881
0.000768196
0.000194498
0.000151131
0.000144838
0.000164709
0.000811006
0.000177559
0.000156508
0.0348488
0.000140982
0.0156642
0.0001564
0.000152901
0.00971844
0.000144499
0.000152165
0.0137071
0.000145634
0.000169488
0.00015695
0.000150636
0.028342
0.000156777
0.000145504
0.0113887
0.000138011
0.000154785
0.000159548
0.0065924
0.00019556
0.000143083
0.000174468
0.000143307
0.00716968
0.00017866
0.000153449
0.000146731
0.000194792
0.000158216
0.000149335
0.000143763
0.000144365
0.000145297
0.000313634
0.0281066
0.0111177
0.000164864
0.00620728
0.00556336
0.000143331
0.000163358
0.00019461
0.000489033
0.000179645
0.000191528
0.000213803
0.000158513
0.012752
0.0144031
0.000143787
0.000175965
0.00017536
0.00020496
0.000149322
0.000181014
0.00949092
0.00014426
0.012152
0.000146774
0.000143385
0.000141623
0.000134737
0.000142982
0.0125188
0.00418713
0.000142895
0.000168469
0.000139313
0.0359001
0.000166686
0.00947557
0.0108457
0.000142963
0.000191585
0.000157047
0.0124177
0.000142884
0.000135481
0.00017
0.0195549
0.00014448
0.0289394
0.000437236
0.000193029
0.0103872
0.000180848
0.000181833
0.000172121
0.000140725
0.00014821
0.000162923
0.000174223
0.033138
0.000163354
0.0103789
0.0136974
0.000139594
0.000143665
0.0109936
0.011625
0.000197629
0.0124651
0.000182151
0.000157743
0.000179343
0.0022435
0.000141436
0.000161655
0.000179506
0.000144229
0.000148521
0.000145362
0.000140561
0.000185123
0.000175324
0.00880814
0.0001605
0.000175828
0.000163061
0.00848464
0.000155744
0.000205333
0.00015247
0.000177402
0.000135143
0.000144836
0.000170103
0.000207727
0.00616397
0.000191365
0.000163416
0.00756576
0.00433543
0.000154062
0.000161688
0.000180637
0.00014273
0.00823001
0.00014396
0.00029023
0.00571224
0.00018077
0.0140564
0.000169861
0.000159847
0.00526856
0.0215407
0.000133236
0.000159174
0.000172114
0.000181842
0.000139845
0.000145361
0.000183454
0.00019261
0.000165666
0.0338554
0.000163429
0.000147125
0.00721033
0.000158325
0.000134531
0.0191201
0.00014065
0.000151847
0.000140955
0.000167887
0.000148805
0.000135342
0.000168816
0.00980395
0.000142998
0.00016497
0.000140812
0.000173797
0.000164211
0.000201386
0.000143932
0.000201735
0.000203679
0.0122814
0.000145587
0.000217417
0.000143007
0.000171582
0.0224526
0.01341
0.000143187
0.000173314
0.000155867
0.00924555
0.0123621
0.000147069
0.00444785
0.000142948
0.000182715
0.000144401
0.0108643
0.000135379
0.00595158
0.000180147
0.000137198
0.000173684
0.0126599
0.000171161
0.00239475
0.000163435
0.00814689
0.000156478
0.000139865
0.000141049
0.000144355
0.0141801
0.000179814
0.000195153
0.000221277
0.000186896
0.000138458
0.00320681
0.00582196
0.000154856
0.000157091
0.00937182
0.0117237
0.00453034
0.00015016
0.0113867
0.0144252
0.0207018
0.000157651
0.000165525
0.0134478
0.000161009
0.0145148
0.00451696
0.00236179
0.000150284
0.0034353
0.000219826
0.000135053
0.00016113
0.000180424
0.0110458
0.000150555
0.000142302
0.000143642
0.000142549
0.000184582
0.00016808
0.00935075
0.0328969
0.00014078
0.00640116
0.0131881
0.00351624
0.00543682
0.000164466
0.00013381
0.000144562
0.000166328
0.00420883
0.000149721
0.000188492
0.000203283
0.000136817
0.000170827
0.0105297
0.000207346
0.00019067
0.014614
0.00021707
0.000143109
0.000144317
0.0244231
0.0141004
0.000196153
0.000163215
0.000188493
0.000135057
0.000141763
0.000372015
0.000136223
0.00015039
0.000134856
0.000140321
0.000180274
0.000184718
0.000160504
0.000136002
0.0285543
0.0061851
0.000141063
0.000150554
0.000151164
0.000147585
0.0182072
0.00238864
0.00276463
0.0204682
0.00767677
0.000161758
0.00922007
0.0142142
0.000160935
0.000163216
0.000133686
0.000159199
0.000163313
0.00665614
0.011518
0.000187972
0.000158026
0.000142654
0.000161941
0.000165243
0.00177762
0.000181794
0.000142966
0.000165419
0.000139645
0.000155929
0.000191714
0.000144642
0.000142669
0.000166671
0.000144303
0.000183084
0.000207051
0.000191218
0.000162391
0.000197245
0.000142201
0.000204552
0.000170072
0.0187941
0.000146687
0.000178842
0.000160774
0.000151246
0.010709
0.0156879
0.0128567
0.0202374
0.000141013
0.000254082
0.000143795
0.000140463
0.000135148
0.000140469
0.000148649
0.000161853
0.000166538
0.000135539
0.00625381
0.000181164
0.00782138
0.000143495
0.000135168
0.000145567
0.000194018
0.0117634
0.00017573
0.000156275
0.000144224
0.000174089
0.000151423
0.000144883
0.000209204
0.0341117
0.000144165
0.000135321
0.000144441
0.000144694
0.00020756
0.0074338
0.000162343
0.0135608
0.00918124
0.000142532
0.000194552
0.0213623
0.00016434
0.0334046
0.000145845
0.000158316
0.000175162
0.000159129
0.00519449
0.000143132
0.0133886
0.000145081
0.000160149
0.0153604
0.000151001
0.000149775
0.000189125
0.000140107
0.000153998
0.00896734
0.0388686
0.000181186
0.000175124
0.000185793
0.000134482
0.000143143
0.021523
0.000203046
0.000173215
0.0147699
0.000145252
0.000160581
0.000135285
0.00646557
0.00024083
0.000154525
0.000146568
0.000166936
0.000152345
0.000145314
0.0065597
0.0162207
0.014646
0.000137718
0.000144137
0.00926781
0.00438974
0.000201056
0.000161969
3.06255e-05
0.000143039
0.000172612
0.000193303
0.000182057
0.000153331
0.0127939
0.000171979
0.000160366
0.00022373
0.000175979
0.000181521
0.000149247
0.000141935
0.00727118
0.000161043
0.000191212
0.000160842
0.000164013
0.00014296
0.00990391
0.000167469
0.0001712
0.000136129
0.000142353
0.000144952
0.0140684
0.000143257
0.000136057
0.00854583
0.000144436
0.0111898
0.000144051
0.000167914
0.000182193
0.000214611
0.00330388
0.000142289
0.00181557
0.0134261
0.000145755
0.00823963
0.000159833
0.000141315
0.000235512
0.00532038
0.00131409
0.000154741
0.000141914
0.000134979
0.00556132
0.000184343
0.000175345
0.000155942
0.00022003
0.000148292
0.000166154
0.000188756
0.00662793
0.000184453
0.011729
0.000144026
0.000183069
0.000185348
0.00444285
0.000154363
0.0262348
0.000220309
0.000144536
0.0156462
0.000203838
0.012496
0.0395572
0.0135862
0.0019727
0.00016764
0.00014154
0.000162319
0.00949002
0.0135025
0.000147187
0.000171961
0.000180659
0.000445408
0.000137396
0.0059192
0.000144524
0.000142968
0.00760272
0.00913158
0.000188272
0.000140462
0.000143485
0.00518455
0.000208065
0.000194516
0.000156378
0.0124
0.00020618
0.0117533
0.000175691
0.000167875
0.000145511
0.000144368
0.0239229
0.000174144
0.0112808
0.0001954
0.000162905
0.00785275
0.0126391
0.0119657
0.000143483
0.00016039
0.000140947
0.000162839
0.000149594
0.0360552
0.000161179
0.018499
0.00013717
0.00018158
0.000142006
0.000197089
0.000162325
0.000159979
0.0136814
0.000169735
0.00016935
0.000180208
0.000181413
0.013906
0.000199749
0.000150589
0.00872483
0.000149736
0.0417976
0.0039172
0.000144264
0.0100663
0.0202051
0.0118932
0.00178386
0.000193569
0.000146261
0.0141736
0.000161705
0.013341
0.0158369
0.000143169
0.000149205
0.00020675
0.0064343
0.0328079
0.000143892
0.00014495
0.0289367
0.0154169
0.000190722
0.000154098
0.000154441
0.0042237
0.00991476
0.000185862
0.00013616
0.000167958
0.000140083
0.00017369
0.000176991
0.00018237
0.000148738
0.00745531
0.000143008
0.00017242
0.00014651
0.000149394
0.00950169
0.0122497
0.000158786
0.024219
0.000141952
0.000158791
0.000146143
0.000140218
0.000143997
0.000142931
0.0122532
0.000143188
0.000175074
0.000143483
0.00015492
0.000178788
0.00389321
0.000165408
0.0247054
0.000176312
0.000227947
0.000161598
0.000161912
0.0100825
0.000155957
0.000169487
0.0367568
0.0131484
0.00672939
0.000167231
0.000380602
0.00014625
0.0001685
0.000174123
0.0310436
0.000149925
0.0345328
0.000143049
0.000143557
0.0333206
0.00015776
0.000183423
0.000153743
0.000141183
0.000168321
0.000141119
0.000143523
0.00014568
0.000145559
0.000212991
0.000143238
0.000207109
0.00942989
0.000177624
0.0362364
0.000144254
0.000175494
0.000161321
0.00014265
0.000140798
0.000184716
0.000146515
0.000146519
0.000146681
0.000157735
0.011002
0.0339547
0.000200342
0.0131835
0.000211671
0.000141756
0.00794135
0.000157845
0.000142917
0.00395456
0.00211877
0.00716548
0.000141871
0.00097363
0.00664877
0.0114871
0.000138015
0.00011279
0.000160236
0.00015186
0.000146336
0.000144774
0.00944174
0.000206302
0.0123887
0.000150233
0.000142731
0.00831832
0.00014436
0.000206818
0.00313906
0.00709456
0.000219055
0.00448485
0.000169192
0.000142765
0.000187718
0.000171768
0.000151745
0.000194868
0.000168361
0.000146751
0.000154062
0.0367404
0.000147053
0.0105659
0.000238508
0.0149016
0.000200966
0.000149741
0.000146952
0.000146107
0.000517728
0.0063736
0.000138129
0.000199774
0.000150111
0.000183702
0.0001391
0.000149451
0.000146428
0.000161936
0.000234756
0.000169796
0.000164233
0.00014554
0.000175581
0.000179831
0.000147974
0.0144105
0.000113025
0.000185322
0.000142125
0.000170284
0.000142269
0.000153397
0.000145791
0.00921976
0.000195168
0.0067149
0.00015186
0.000168304
0.000142557
0.000146237
0.000144736
0.00894615
0.0127842
0.000137292
0.000161575
0.000177822
0.0142682
0.00020344
0.0146379
0.000148692
0.0176854
0.000182924
0.00348555
0.000189027
0.000184622
0.000207967
0.0138353
0.0044965
0.0234371
0.000154648
0.000199788
0.000138807
0.000150758
0.000155246
0.000144237
0.0140369
0.000158851
0.000156703
0.00331115
0.000198077
0.0120048
0.000143191
0.000151171
0.000155172
0.000148293
0.000164178
0.0244997
0.00548879
0.0186687
0.000140968
0.000156069
0.000158026
0.0118579
0.0106333
0.000187056
0.000146736
0.000146125
0.0118429
0.000170373
0.00253892
0.00788716
0.00208265
0.000141752
0.000225425
0.000163552
0.000169465
0.000157788
0.00867386
0.000659879
0.000190879
0.000199875
0.000147682
0.000163753
0.00014302
0.00652786
0.000173436
0.0133949
0.00017007
0.000155018
0.000198352
0.000148998
0.00727134
0.000208892
0.000142571
0.000210612
0.0157277
0.000249022
0.000162059
0.000145569
0.000142869
0.00948202
0.000104064
0.0103981
0.000153008
0.000144384
0.000142977
0.0112103
0.000200121
0.000145417
0.00584627
0.000185211
0.0107438
0.000229414
0.0122424
0.000143521
4.01579e-05
0.000152915
0.000143924
0.000197001
0.012126
0.000144731
0.000143347
0.00315853
0.00678258
0.000155494
0.000140912
0.0359655
0.000142422
0.000173644
0.000140957
0.00926071
0.000142877
0.000175483
0.0208897
0.00936633
0.000148518
0.00590924
0.00711193
0.00606714
0.000205317
0.0167706
0.000325114
0.000141957
0.000124075
0.000202154
0.000143292
0.000148033
0.0068729
0.000142485
0.000222557
0.000143436
0.000162144
0.00894725
0.000179948
0.000129529
0.000149311
0.000164438
0.000140853
0.00016182
0.000251805
0.0220462
0.000141279
0.00018027
0.00401875
0.000144627
0.000145495
0.0148511
0.000163217
0.000163626
0.000194534
0.0442751
0.0136933
0.000252599
0.000174173
0.000512288
0.000197919
0.00577797
0.0047331
0.000180094
0.000137376
0.000195
0.000141914
0.000142318
0.0355085
0.0151371
0.000150118
0.0341263
0.000199328
0.010407
0.00410878
0.000458248
0.000142508
0.000203645
0.00157044
0.000159023
0.00014881
0.011997
0.014495
0.0145109
0.00394447
0.000166075
0.0190659
0.011337
0.000161307
0.000146294
0.000143076
0.00100823
0.000141588
0.000209712
0.000151255
0.00014697
0.000150624
0.000258628
0.00412385
0.0154804
0.000146862
0.00022092
0.000153761
0.000159318
0.000141229
0.000143009
0.00835806
0.000156204
0.014553
0.0277309
0.00589426
0.000193518
0.00014406
0.000167093
0.000144214
0.000200058
0.000163685
0.000149111
0.000146487
0.000153858
0.000200018
0.000147308
0.000163379
0.000159696
0.000163868
0.000198277
0.00985984
0.00014389
0.000172183
0.000147703
0.000170342
0.000156035
0.00620821
0.000201108
0.000161132
0.000151451
0.000150403
0.0106901
0.000142843
0.000163478
0.000143631
0.00015056
0.00016575
0.0128903
0.00015609
0.000154406
0.00019387
0.000147252
0.000181024
0.0127392
0.000175152
0.000164318
0.000143075
0.000862609
0.000137424
0.00014971
0.000200225
0.0183083
0.000143675
0.000160254
0.000184625
0.000213626
0.000145745
0.000146842
0.0182572
0.000148709
0.00187126
0.000212217
0.0014062
0.000142988
0.00015718
0.000142363
0.0141342
0.000198113
0.00016816
0.000193476
0.0163036
0.000148403
0.000945532
0.00464465
0.000145471
0.000165083
0.000185355
0.000150429
0.0088316
0.000143989
0.000147233
0.000143144
0.000197472
0.0082213
0.000201621
0.000149157
0.000148188
0.000159819
0.00389514
0.00021913
0.0038054
0.00423197
0.000146953
0.000198307
0.000192135
0.00787763
0.000182388
0.000550397
0.000141651
0.000187993
0.000145008
0.0153844
0.000165138
0.000142328
0.0360511
0.000200468
0.000161503
0.000182459
0.00013586
0.000146511
0.000174305
0.000162943
0.0086988
0.000179987
0.000179896
0.000176835
0.000189689
0.0111704
0.000184916
0.00514518
0.000144218
0.000145592
0.000207731
0.0178298
0.00717371
0.000284687
0.00017295
0.00886819
0.00430381
0.000151113
0.000155472
0.000140416
0.000168383
0.000181788
0.000157806
0.00689065
0.000218149
0.000148954
0.0121689
0.00820596
0.000143503
0.000183581
0.0271875
0.00741243
0.000151544
0.000184106
0.000134059
0.000155944
0.000158576
0.000153888
0.00859212
0.0128347
0.00623752
0.0112243
0.000149015
0.00016291
0.000174119
0.000143966
0.000148405
0.00014437
0.00519681
0.000141567
0.00357022
0.000164755
0.000188328
0.000194123
0.000211895
0.00982421
0.00021619
0.000167824
0.000139989
0.000166203
0.00022919
0.00023327
0.000153129
0.000140295
0.000140617
0.000178628
0.000159638
0.00019926
0.00871349
0.000148983
0.000143826
0.000196432
0.000672268
0.00931826
0.0129491
0.000140997
0.000181621
0.000145162
0.0119567
0.000143121
0.0185625
0.000153357
0.000148777
0.000165519
0.000147446
0.000159437
0.000159372
0.000171637
0.0105136
0.0143903
0.000153839
0.000159199
0.000142407
0.000222319
0.0120847
0.000155018
0.000144493
0.00392522
0.000134789
0.0149969
0.000145907
0.000166281
0.000180768
0.0167262
0.000166303
0.0001508
0.000144596
0.000182714
0.0105351
0.000141971
0.0154981
0.0310714
0.0121367
0.000205003
0.000162498
0.0108452
0.000154402
0.000211064
0.000142572
0.00349051
0.00418035
0.00858607
0.0107002
0.012725
0.000158951
0.00232739
0.000143648
0.00828726
0.0033183
0.01311
0.00979004
0.000156107
0.00760362
0.00965222
0.000163544
0.00014907
0.000144557
0.0150857
0.000154334
0.00018254
0.000200422
0.00014492
0.000140079
0.000143855
0.0129162
0.00021074
0.000160347
0.0125382
0.000183341
0.000156804
0.000142721
0.000146552
0.000172509
0.0187704
0.000214069
0.000154299
0.000170579
0.0114289
0.000182769
0.000170121
0.00506014
0.000159575
0.008424
0.000160032
0.0001612
0.000142606
0.000201718
0.000181048
0.00674701
0.00207435
0.0163783
0.000180776
0.0305207
0.00018259
0.000152495
0.000153226
0.00719458
0.0185873
0.0105619
0.00242253
0.00015102
0.000143101
0.000142768
0.000143604
0.00014463
0.0060282
0.00015853
0.00659574
0.000161351
0.0112614
0.000369917
0.0154989
0.000150657
0.000154913
0.010458
0.000166383
0.0016032
0.0168307
0.000139745
0.0100597
0.000156326
0.0192092
0.00646625
0.000163364
0.00904354
0.00172177
0.000171225
0.000177924
0.000160215
0.0170701
0.00434319
0.000151775
0.000144541
0.00266606
0.00020939
0.000192141
0.00228277
0.000194599
0.00017242
0.000146156
0.0127178
0.0181851
0.000183048
0.000160431
0.0125092
0.0311644
0.000143746
0.000143363
0.00015219
0.0114175
0.0108326
0.000142984
0.0114029
0.000147124
0.000143331
0.000144313
0.0119968
0.000210642
0.000650576
0.00686734
0.000149512
0.000149003
0.000141678
0.00824855
0.000150424
0.029688
0.00015281
0.0178793
0.000145989
0.000141935
0.00019101
0.00571448
0.00410442
0.000164091
0.00276844
0.000141428
0.000143719
0.000143413
0.000169675
0.000179358
0.000179474
0.000166297
0.0022377
0.000152506
0.000191117
0.000200884
0.00884313
0.000149676
0.0138961
0.016497
0.000153798
0.011455
0.000181161
0.0169309
0.000144224
0.000179387
0.000151078
0.000887931
0.00906264
0.000183245
0.00918821
0.000151131
0.000173669
0.00014813
0.0117392
0.000141515
0.000140356
0.00233256
0.000185582
0.0180864
0.000249561
0.000180894
0.000157854
0.000142907
0.0114657
0.000164512
0.000159054
0.000200961
0.000145178
0.000169411
0.000143053
0.0124641
0.000153793
0.000825344
0.00110725
0.000166204
0.000196306
0.000175073
0.0112911
0.000144227
0.0232749
0.0408881
0.000140311
0.000142992
0.000149343
0.000146153
0.00016665
0.000144254
0.0110127
0.000184129
0.000172
0.000262529
0.000144878
0.000145863
0.000145806
0.00019842
0.000143827
0.000143046
0.000207101
0.000151889
0.0157298
0.0076417
0.000188241
0.000153482
0.00016246
0.00014881
0.000147048
0.000281362
0.000145741
0.000152101
0.00632756
0.0176619
0.000226242
0.000148648
0.00835715
0.0151154
0.000146328
0.000167186
0.00509398
0.000143086
0.000151123
0.000142878
0.000182395
0.0153158
0.00535908
0.000145493
0.000151835
0.000154469
0.000144514
0.000192745
0.000144369
0.00685816
0.00433762
0.00481512
0.000140212
0.000151804
0.000151171
0.0178181
0.000135664
0.0138667
0.00757585
0.0101392
0.0144525
0.0113154
0.00410616
0.000153645
0.00704474
0.010647
0.000148451
0.000142255
0.000141223
0.00895762
0.00714874
0.0096235
0.000149239
0.00898305
0.000144096
0.000194807
0.000151562
0.000150155
0.000148211
0.000139957
0.0168571
0.000148693
0.034183
0.0312864
0.0131487
0.000171199
0.000175514
0.0145636
0.0106648
0.000152667
0.00544447
0.000145259
0.000135538
0.000142678
0.000169652
0.000155085
0.0107182
0.000164018
0.00037862
0.000166681
0.00713636
0.0120545
0.000185004
0.000139487
0.000174768
0.000182483
0.0160933
0.000150373
0.000134224
0.000155379
0.0402067
0.000147736
0.000397629
0.00967345
0.00016824
0.000177685
0.000149699
0.00123246
0.000145519
0.018868
0.000137416
0.00605731
0.000160994
0.000143876
0.0102605
0.0116742
0.000140035
0.000181525
0.000152682
0.00881699
0.000503636
0.000196199
0.000321916
0.000145441
0.000174493
0.0133181
0.000158688
0.000168869
0.000154023
0.000184569
0.000161786
0.00846711
0.012391
0.000143927
0.0140281
0.000148336
0.000169554
0.00920789
0.00930618
0.000164735
0.0137242
0.0002104
0.000144629
0.000418414
0.000196899
0.000160406
0.000148496
0.0106031
0.000140755
0.0137535
0.000237209
0.000189405
0.000143129
0.000163522
0.0134497
0.00016993
0.0117754
0.000147155
0.000151443
0.000205066
0.00852808
0.000155287
0.0118621
0.0122259
0.0113546
0.00014456
0.00661742
0.000114506
0.0184379
0.000143383
0.000164441
0.000145669
0.0116423
0.000197392
0.00151294
0.00077228
0.000145527
0.000149527
0.000143189
0.0176779
0.000256984
0.0209181
0.0126168
0.000141469
0.0127467
0.00619058
0.00019609
0.00756959
0.013935
0.000164969
0.0128652
0.000150783
0.000154776
0.000197406
0.000282104
0.00015476
0.0314565
0.000146187
0.000143257
0.0118065
0.012438
0.000827709
0.0084004
0.000160423
0.000145611
0.00015831
0.00251692
0.0109372
0.000142009
0.000172239
0.0116941
0.000143501
0.000143758
0.00210128
0.0249154
0.000149755
0.000143641
0.000148184
0.000148568
0.00604343
0.00014601
0.000151898
0.000154483
0.000186827
0.0268952
0.012193
0.0123615
0.000143974
0.000153172
0.0148354
0.00782784
0.000157996
0.000204635
0.000142998
0.000164295
0.000150659
0.000155783
0.000179915
0.000150378
0.0111287
0.000162056
0.000147776
0.00015257
0.000108063
0.0396389
0.0117497
0.000143564
0.000167357
0.00702772
0.00520273
0.000152047
0.000149986
0.000143964
0.000217128
0.000143845
0.000158884
0.000157158
0.000142916
0.01514
0.00081514
0.000145264
0.000152108
0.000144124
0.000144216
0.035737
0.0110408
0.000181432
0.0082845
0.000200272
0.000146028
0.000142873
0.000143821
0.000145274
0.000145206
0.000167067
0.000179578
0.0105098
0.000153113
0.000189131
0.0117486
0.000263199
0.000142808
0.00014043
0.000151059
0.0100406
0.000144867
0.000203206
0.000221216
0.00018986
0.000175241
0.00837185
0.000143793
0.00860534
0.000140471
0.000144243
0.000147787
0.00015038
0.000184006
0.000195933
0.000154167
0.000166226
0.00177884
0.00968114
0.0153334
0.000161276
0.012557
0.00813585
0.000188581
0.00710109
0.0023408
0.000192519
0.000991077
0.000146047
0.000155308
0.0310157
0.000142439
0.00015229
0.0149119
0.00125831
0.0350941
0.000200297
0.00014403
0.00016936
0.00014362
0.00616904
0.000151268
0.000170914
0.0201205
0.00630644
0.000449323
0.000143594
0.000142658
0.000182516
0.0368396
0.0154513
0.000190397
0.000236012
0.000141344
0.000246253
0.0160977
0.000727114
0.000151734
0.000143747
0.000140921
0.000150571
0.000144582
0.000144525
0.000151886
0.0147078
0.000183195
0.0141053
0.00725374
0.000198439
0.000204956
0.000142541
0.00015029
0.00015645
0.00014199
0.000145823
0.0110065
0.00264585
0.00272087
0.00991179
0.000151028
0.0132715
0.000193242
0.0110907
0.0171226
0.000143996
0.000149328
0.000339239
0.000143613
0.000140538
0.00698403
0.0152903
0.00025047
0.000143156
0.000143792
0.000178226
0.000165727
0.000113984
0.000145498
0.000153256
0.000219635
0.00014123
0.00367278
0.000165462
0.0157099
0.000145582
0.000216261
0.0372926
0.000163992
0.00236703
0.00019068
0.0149619
0.000143786
0.000153696
0.000143252
0.000159196
0.0137457
0.000153113
0.00717029
0.00015586
0.000150247
0.000143723
0.0125074
0.000170076
0.000189903
0.00702431
0.000141053
0.00016916
0.00966799
0.000174962
0.000155779
0.000154809
0.000143708
0.000175787
0.000149248
0.000149385
0.0136697
0.00332253
0.0128862
0.000210517
0.000217535
0.0126292
0.000182998
0.00888854
0.000191202
0.000142636
0.000144548
0.000135036
0.000144689
0.00268598
0.00370397
0.000150746
0.00596816
0.0170835
0.000159197
0.000152841
0.000164336
0.0108159
0.00187675
0.0149959
0.00219512
0.0155914
0.000134854
0.000205251
0.00018736
0.000461117
0.000181053
0.00014291
0.000196829
0.0109843
0.000161879
0.0355363
0.000145685
0.000173403
0.0118648
0.0181069
0.000184351
0.000160545
0.0090133
0.000197619
0.0189289
0.016245
0.0149934
0.000192093
0.00242392
0.000143879
0.000162939
0.000171713
0.012063
0.00141355
0.0150406
0.000165508
0.00019005
0.000178667
0.000177546
0.00257699
0.000143068
0.000195573
0.0111314
0.00014316
0.0137233
0.0093887
0.0182664
0.00717996
0.000197717
0.0112746
0.000145929
0.00283205
0.000155681
0.000157824
0.00016817
0.000151645
0.0169895
0.000152068
0.000166747
0.000152083
0.000149831
0.0016123
0.000149564
0.000192991
0.000364905
0.000139757
0.0157303
0.000187471
0.00015298
0.00910265
0.000208295
0.000143126
0.000211778
0.000146981
0.0167231
0.00692052
0.000151094
0.000195374
0.000149726
0.00295117
0.0158526
0.000182078
0.0222853
0.000156769
0.000144005
0.0136958
0.000152193
0.000146002
0.000246757
0.000168578
0.00014108
0.000147395
0.000192123
0.00014918
0.0109304
0.000206189
0.000952916
0.0160716
0.00017579
0.000178579
0.000146409
0.0030912
0.00984166
0.0195799
0.000143412
0.000149164
0.000181467
0.00015992
0.00689663
0.000146076
0.0115823
0.000148824
0.000187254
0.000156436
0.00118493
0.000198519
0.000193021
0.0157932
0.0297978
0.0058019
0.0152526
0.000135621
0.000232825
0.000237983
0.0114207
0.000149707
0.000198725
0.00941007
0.0112991
0.000194114
0.000212798
0.010549
0.0034722
0.00017165
0.00020603
0.000139795
0.000172092
0.000169777
0.000142846
0.00018236
0.0172737
0.0100449
0.0122867
0.000245866
0.000141955
0.000143151
0.000158954
0.000142879
0.000750876
0.000145759
0.000144534
0.00491346
0.0002097
0.000165273
0.000187736
0.000180019
0.000184927
0.00805641
0.0166483
0.0086804
0.000154634
0.0163103
0.000152474
0.000140963
0.000150697
0.0133046
0.000215327
0.000204226
0.000209683
0.000148198
0.000146111
0.000142864
0.000146186
0.000155873
0.0209364
0.000243736
0.000158148
0.00274126
0.0107636
0.00999309
0.0186286
0.000143408
0.000159247
0.00273947
0.000143376
0.000157394
0.000156029
0.000151937
0.0120637
0.0168191
0.000146307
0.000167962
0.000159116
0.000180706
0.0192834
0.0165718
0.00500392
0.000148202
0.000186815
0.00939426
0.000186007
0.000194945
0.00536369
0.0101046
0.00103641
0.010733
0.000144282
0.00191288
0.000150549
0.000150861
0.000142846
0.000177734
0.00107918
0.00861925
0.0113582
0.0102823
0.000176269
0.000139619
0.000140377
0.000143778
0.000164911
0.000169758
0.00538177
0.0150791
0.000185089
0.00733862
0.000144835
0.00017616
0.000140247
0.0184821
0.000181766
0.00014774
0.000194645
0.000188001
0.0185912
0.0143509
0.000192207
0.00502369
0.000153152
0.0202775
0.000207148
0.000186341
0.00329083
0.000151878
0.000176014
0.000143623
0.00483784
0.00754129
0.000167364
0.0275974
0.000205126
0.0282227
0.000179902
0.000199436
0.000171052
0.000140746
0.000196001
0.000176884
0.000152286
0.000175911
0.000160325
0.000161748
0.01025
0.000200693
0.000150144
0.000159713
0.000164836
0.00016146
0.000153205
0.0209055
0.00018896
0.000520077
0.0104424
0.000143141
0.0165241
0.000143842
0.000153628
0.000150836
0.0162346
0.000165605
0.0197407
0.0210961
0.000177628
0.000183121
0.000193995
0.0335286
0.000198052
0.0214411
0.000175348
0.000171615
0.000158042
0.0182371
0.00574053
0.000178737
0.000163768
0.000165201
0.000155047
0.000152499
0.00017371
0.000167899
0.000144291
0.000163158
0.015423
0.0227729
0.000188328
0.000168193
0.000138408
0.0342478
0.000161782
0.000180591
0.00984067
0.0001702
0.0310394
0.00014133
0.000162482
0.000153681
0.000162733
0.000142295
0.0177711
0.000263722
8.39226e-05
0.000165512
0.002954
0.0002108
0.000154741
0.0337733
0.000180982
0.000208681
0.00948726
0.000175714
0.000151987
0.000168544
0.000180053
0.000157711
0.000220689
0.0148979
0.00463682
0.000140805
0.000212994
0.00021269
0.00661192
0.000142489
0.000170025
0.000151699
0.000160033
0.00190167
0.000158832
0.000158465
0.000141196
0.000140736
0.000343337
0.0130956
0.000144804
0.00414365
0.000206658
0.000140115
0.000214436
0.0183359
0.000189565
0.000188334
0.00014311
0.000156385
0.000189184
0.000170213
0.000143595
0.0111171
0.000158812
0.0176137
0.000186393
0.00015529
0.000938595
0.000190823
0.000194539
0.00014123
0.00702376
0.000159869
0.000155769
0.0309963
0.000167712
0.000144471
0.000184719
0.000152807
0.000163277
0.000145248
0.00288287
0.000142934
0.000179293
8.96662e-05
0.00018721
0.00014994
0.000209918
0.000160403
0.0194238
0.000201484
0.0140966
0.000188997
0.0178326
0.00014008
0.000182856
0.000154468
0.00014179
0.00696192
0.000660934
0.000153843
0.00769238
0.000207077
0.000181514
0.0143948
0.000155146
0.00900217
0.0132829
0.0278166
0.0351536
0.000190426
0.000158589
0.0001439
0.000179431
0.000164342
0.00205893
0.031309
0.018215
0.0151299
0.0135274
0.000140545
0.000364054
0.000143409
0.000148609
0.000144038
0.00579533
0.000196721
0.000181183