/*--------------------------------*- C++ -*----------------------------------*\
| =========                 |                                                 |
| \\      /  F ield         | OpenFOAM: The Open Source CFD Toolbox           |
|  \\    /   O peration     | Version:  v2012                                 |
|   \\  /    A nd           | Website:  www.openfoam.com                      |
|    \\/     M anipulation  |                                                 |
\*---------------------------------------------------------------------------*/
FoamFile
{
    version     2.0;
    format      ascii;
    class       volVectorField;
    location    "150";
    object      ddtCorrDdt0(U);
}
// * * * * * * * * * * * * * * * * * * * * * * * * * * * * * * * * * * * * * //

dimensions      [0 1 -2 0 0 0 0];


internalField   nonuniform List<vector> 
13851
(
(0.00571931 0.00382763 -2.84375e-18)
(0.00192118 9.481e-05 -5.63573e-19)
(0.00186211 0.000114269 -1.95087e-18)
(-0.00571449 6.3046e-05 7.51492e-18)
(4.09429e-05 -8.62801e-06 -5.72333e-20)
(0.00230199 -0.000252056 -1.64865e-18)
(0.000962158 0.000978503 -6.71039e-18)
(0.000213911 -8.04108e-06 -1.26749e-18)
(-0.0231835 0.00238326 1.56638e-18)
(9.03315e-05 -0.000590784 -6.91732e-18)
(0.00426001 -0.0021479 4.28927e-17)
(8.03553e-05 -0.000220007 1.88985e-18)
(0.000232061 -0.000900532 -5.35721e-18)
(-0.0298332 0.00117527 -1.94136e-17)
(0.00286857 0.00170312 -5.52047e-18)
(-0.000662905 0.00568273 9.26765e-18)
(-0.0036744 -0.00186114 -7.40385e-17)
(0.00085664 -0.000133283 1.52553e-19)
(0.0145333 0.00357506 5.1774e-17)
(0.00564775 0.00369633 -1.12311e-17)
(0.00350129 0.00146941 -4.22625e-17)
(0.00152956 -0.00146438 -4.13549e-18)
(-0.0240916 0.00882078 6.55214e-17)
(1.55437e-06 -4.41301e-06 2.19853e-19)
(-0.0138528 0.00913224 5.5225e-17)
(0.00085465 0.00364642 -1.84296e-18)
(0.00131911 0.00792986 5.17328e-18)
(0.0011652 0.0129896 -3.81524e-17)
(-0.0224541 0.0088734 1.12645e-18)
(0.000445986 -0.000126838 3.07512e-18)
(0.00259136 -0.00427195 1.09637e-16)
(0.000988804 0.000963116 6.80664e-18)
(0.00536679 0.00446902 -2.18386e-17)
(-0.0413641 -0.00591353 1.79667e-17)
(0.00352936 -0.00153419 -3.71639e-17)
(-0.019238 0.0113537 5.68753e-18)
(9.15579e-07 -3.98649e-06 -2.18176e-19)
(-0.0563047 -0.018678 6.64532e-17)
(-0.00931134 -0.00159928 1.72498e-17)
(0.00060166 -0.000779011 -2.84109e-19)
(-0.0217644 -0.00409066 9.26182e-18)
(-0.0215269 0.00940002 -4.39987e-19)
(0.00547012 -0.000778538 -4.83959e-17)
(0.00138153 -0.00457465 2.20095e-17)
(-0.0204327 0.00474484 9.17568e-18)
(0.000483612 -0.000394684 1.28988e-18)
(0.000185447 2.41243e-05 2.44865e-18)
(0.00111543 0.00604114 -6.70713e-18)
(0.00147121 -0.000852719 1.27005e-17)
(0.000226429 -0.000902963 3.57359e-18)
(-0.0118749 -0.0022582 1.4454e-17)
(0.000162538 -0.00100251 -1.79411e-18)
(-0.000431273 0.00567715 -9.02542e-18)
(0.00132138 0.0017837 -8.70407e-18)
(-0.026571 0.000443679 -7.08851e-18)
(0.000594927 -0.000788309 7.62293e-19)
(0.00557474 0.00439935 2.20544e-17)
(-0.0217526 -0.00354706 -3.02661e-18)
(0.00151491 0.00758394 -1.32591e-17)
(-0.0250684 -0.00203458 -2.14587e-17)
(7.32465e-05 -0.000209362 4.82276e-19)
(0.00214357 0.00797262 -1.40385e-17)
(2.82982e-05 -0.000399862 1.30411e-18)
(0.00149719 -0.000893207 -3.00868e-19)
(0.000673424 -0.00361122 -1.43205e-19)
(0.000603099 -0.00364808 -2.48616e-20)
(-0.0256681 -0.00104801 3.37308e-17)
(0.000235657 -0.0025708 4.95718e-18)
(0.000817331 -0.000682432 -4.7825e-18)
(-0.00384079 0.00431651 6.32677e-17)
(-0.00212031 -0.00591636 7.94525e-17)
(0.00401888 0.00165781 2.59132e-18)
(0.0003369 -0.000745354 1.85682e-18)
(-0.025453 -0.000671051 -2.66837e-17)
(0.00171038 0.00187621 1.04549e-17)
(0.00116467 -0.0012514 -9.4075e-19)
(-0.00405127 -0.0023451 -1.34421e-18)
(0.000372056 -5.0663e-06 5.8924e-18)
(-0.0105824 0.00646756 -4.07897e-17)
(0.000272164 -0.000398126 1.95401e-19)
(0.000849258 -0.000682252 1.92212e-18)
(0.0115168 0.0027016 -1.16795e-17)
(0.00340419 -0.00155558 4.00341e-17)
(-0.0306777 0.00090857 -4.07552e-17)
(-0.02667 -0.00131115 2.37369e-17)
(0.00114774 -0.00555855 1.61385e-17)
(0.00158792 -0.00148096 1.31734e-17)
(-0.0199685 0.00248534 1.94069e-18)
(0.000134542 -0.00060573 2.89269e-18)
(0.00298584 -0.00336751 -6.7381e-17)
(0.000151767 -0.00101793 3.89612e-18)
(0.00103283 0.000991093 -9.80217e-18)
(-0.00246065 -0.00104066 -3.79783e-17)
(0.0023702 -0.00457065 2.60913e-17)
(-0.0145572 -0.00603361 5.07649e-18)
(0.00165957 -0.00431606 2.80096e-17)
(0.000435571 -0.000472929 -5.51941e-19)
(0.000339078 0.00609971 -4.21228e-18)
(-0.0185861 -0.000621221 -4.85944e-17)
(0.00221844 -0.00553647 -2.31652e-17)
(0.000486993 0.00628885 3.05493e-18)
(0.000355592 -0.00235562 -3.42301e-18)
(0.000394713 -0.0024428 -1.12305e-17)
(0.000343643 -0.000842527 -2.84302e-19)
(0.000540529 -0.000358793 1.40607e-18)
(0.00416662 0.000871571 3.73246e-17)
(0.000524239 -0.000359717 1.37715e-18)
(-0.00180725 -0.00648066 -7.10143e-17)
(0.00105725 0.000969123 7.2934e-18)
(0.000828233 -0.000132681 4.7292e-21)
(0.00148471 -0.00196832 -2.33566e-18)
(0.000501794 -0.000396213 1.32923e-19)
(0.00540386 -0.00255932 -7.51088e-18)
(0.00470342 -0.00080555 -2.79672e-17)
(0.00428342 0.00561328 -3.83026e-18)
(0.00132738 0.00171663 -8.66264e-19)
(0.000289268 -0.000101085 -5.97424e-18)
(0.000219801 -8.47792e-06 -3.85869e-18)
(-0.00489001 -0.000181483 2.89841e-18)
(-0.00590741 0.00538052 -1.4178e-16)
(0.00209079 -0.0037626 -2.39698e-17)
(0.00065992 -0.000123373 -5.01532e-19)
(0.000752052 -0.000732806 -1.62348e-18)
(-0.0311938 -0.00343184 1.44406e-17)
(0.0065512 0.00583876 -6.3913e-19)
(0.00017549 -0.00284611 -2.68881e-17)
(0.000435351 -0.000456732 9.53854e-20)
(0.00289057 -0.00282876 5.83633e-18)
(-0.0331029 -0.00805786 -1.85137e-17)
(0.00344999 0.00208692 -3.42369e-18)
(0.00148763 -0.0014975 -1.36103e-18)
(0.00276013 -0.000979374 1.32534e-17)
(-0.0338015 -0.0218143 2.20365e-17)
(-0.0429622 -0.00410509 -3.13026e-18)
(0.0044183 -0.00206597 -4.19711e-17)
(-0.0112417 -0.00687051 -7.81376e-18)
(0.000221083 -0.00252964 2.35887e-17)
(0.00066172 -0.00579013 -6.38098e-17)
(0.000414543 -0.00221325 -2.61083e-17)
(0.00318422 0.00224327 4.73207e-18)
(0.011557 0.00128138 3.22622e-17)
(0.000470144 -0.0012073 -9.34071e-19)
(0.000135925 -0.000625652 -2.94343e-18)
(0.000373272 -0.00302931 -2.74039e-17)
(-0.0215298 -0.0211603 -1.25796e-17)
(0.000979657 -0.00128746 -1.41739e-19)
(0.000360176 -5.78768e-07 -2.31327e-18)
(0.00309846 -0.00390171 -5.62152e-17)
(-0.0257235 0.00118142 -6.93634e-19)
(0.00293046 -0.00291804 -2.73659e-17)
(0.000707414 0.0062577 1.78809e-18)
(0.00520627 -0.00223766 -4.24578e-17)
(0.00480896 -0.000824097 -6.45583e-18)
(0.0106869 0.00383571 3.93736e-17)
(0.000252324 -0.001061 -1.27754e-17)
(0.000115906 -0.000792782 -1.9151e-18)
(5.83234e-05 -0.000164846 1.84858e-19)
(-0.00887144 -0.000839579 -4.07394e-17)
(0.00308822 0.00203159 1.29248e-17)
(0.00128326 0.000734058 -1.30589e-17)
(3.09584e-06 -1.02794e-05 -5.75892e-20)
(-0.0212725 0.0101223 1.12261e-18)
(0.0040574 0.000926816 -3.50345e-17)
(0.00128804 0.00601386 -2.66151e-18)
(-0.0297137 0.00104293 1.62527e-17)
(-0.0207887 0.00129039 -4.85614e-18)
(-0.0211964 0.00205908 4.75937e-18)
(-0.0113295 -0.00264433 3.13699e-17)
(0.00147825 -0.00192785 4.06549e-18)
(-0.0392284 0.0166532 2.88494e-17)
(6.19405e-05 -0.000197917 -4.96129e-19)
(0.000282857 -9.49353e-05 3.90387e-18)
(0.00477109 0.000537227 -1.09943e-18)
(2.18032e-05 -8.22372e-06 -2.77155e-20)
(-0.0155369 -0.00823144 5.9774e-18)
(0.00739208 0.00987622 -1.94399e-18)
(0.00180631 0.00657185 -1.24118e-17)
(0.000291236 -9.01733e-05 5.0002e-18)
(0.00158371 0.00189393 -1.90866e-17)
(0.00168688 0.00643425 3.95604e-18)
(0.00600544 0.00528461 1.44268e-17)
(0.00163062 -0.00454585 -1.09876e-17)
(0.00152469 -0.00184285 -4.04715e-18)
(0.00333358 0.00208883 3.63133e-18)
(-0.000453316 -0.000954357 1.81961e-17)
(-0.0257374 0.00133385 -1.04428e-18)
(0.0053472 0.00474584 9.68679e-18)
(0.00037419 -0.00193325 -1.99294e-17)
(0.00026326 -0.000993964 -3.07654e-18)
(0.00047682 -0.000231992 1.98377e-18)
(-0.00654324 -0.0212615 4.47929e-17)
(0.00314131 0.00197129 -5.8419e-18)
(-0.0297505 0.000787918 1.33098e-17)
(0.00233825 -0.000186251 3.42999e-19)
(0.000980865 -0.00125051 6.62653e-21)
(-4.38216e-05 0.00592529 1.7582e-18)
(0.00512713 0.00475802 -1.60698e-17)
(0.00100203 0.000175546 -3.49821e-18)
(0.00109799 -0.000260849 8.88376e-18)
(0.000247491 -0.00265316 -9.64842e-18)
(0.0126153 -0.00138572 -4.2113e-17)
(-0.0268681 -0.00254991 -4.78892e-17)
(-0.0223747 0.000164727 5.66025e-18)
(0.00277703 0.00172966 -2.57125e-19)
(0.000416546 -0.000465879 9.25859e-18)
(-0.0254351 -0.0021608 2.7886e-17)
(0.000225177 -0.0014804 -8.5008e-18)
(0.00264585 0.00256825 -1.47855e-17)
(-0.0253298 0.00402674 -6.21825e-18)
(0.00216285 -0.000477353 3.45522e-19)
(-0.000998747 0.0053763 -2.42269e-18)
(0.000728834 -0.000719832 1.79658e-18)
(0.0130804 0.000113748 2.68535e-17)
(5.85597e-06 -5.85119e-05 3.7057e-19)
(0.00367823 -0.00138792 -1.44288e-17)
(0.00126272 -0.00135289 2.82951e-18)
(0.000213499 -0.000886272 7.78794e-20)
(0.00574499 0.0026853 -1.42102e-17)
(0.00109764 -3.47488e-05 4.15863e-18)
(0.000844481 -0.00324923 -2.81095e-17)
(0.000286673 -8.34211e-05 -2.85199e-18)
(0.00566697 0.00346277 1.2576e-17)
(-0.0306032 0.000696851 4.1493e-17)
(-0.0138179 -0.00746686 9.92278e-18)
(0.000425919 -0.00192 -1.81838e-17)
(0.00260325 0.00262624 1.743e-17)
(1.56462e-06 -2.9212e-05 -2.96298e-20)
(0.000357019 -0.00297387 -7.3125e-18)
(0.000159379 -0.0003482 2.14326e-18)
(0.00359683 -0.00138941 1.62217e-17)
(-0.00890714 -0.00207523 3.20862e-17)
(0.000389007 -0.00191965 1.43461e-17)
(0.0021494 -0.000422697 -3.83375e-18)
(1.38751e-05 -0.000364039 3.61367e-20)
(-0.0215625 -0.000894351 -1.64821e-17)
(0.000457136 -0.00011637 2.02423e-18)
(-0.0116097 0.00335529 1.81058e-17)
(-0.0230744 0.00137924 4.65706e-18)
(0.00257898 -0.00528742 -1.72221e-17)
(2.1534e-06 -9.84929e-06 4.20779e-20)
(0.00672228 0.000781468 1.88832e-17)
(-0.0280387 -0.00214153 2.07335e-17)
(-0.0194779 0.00565721 -8.53011e-18)
(-0.000784966 0.00538949 1.47963e-18)
(0.00309501 0.000652172 8.90719e-18)
(0.000283614 -0.00314028 -8.21644e-18)
(0.00630936 0.00296149 -1.91924e-17)
(0.00153039 0.00193063 1.5729e-17)
(0.00175999 -0.00421147 -3.20231e-17)
(0.00171223 -0.00203305 3.28806e-18)
(-0.0265198 0.000969889 7.31562e-18)
(0.00667702 0.00282478 5.64224e-17)
(0.000177254 -1.13222e-05 1.90829e-18)
(0.00218932 0.000466541 7.44485e-18)
(0.000117215 0.00616309 2.07867e-18)
(-0.021053 0.00993596 4.27931e-19)
(-0.00799073 0.00284022 6.78549e-18)
(0.000460138 -0.000221413 -6.9036e-20)
(0.000160306 -0.00284948 -4.00762e-17)
(0.00014286 -0.000591273 1.98313e-18)
(0.00656251 0.00544081 8.98032e-18)
(0.00796952 0.00546664 -8.51002e-18)
(0.00225166 0.000498732 -1.75995e-17)
(0.00409602 0.0010862 1.73222e-17)
(0.00693982 0.00288408 -5.07142e-17)
(0.000337114 -0.000625818 -3.05337e-18)
(0.000363708 -0.00238584 -6.65089e-18)
(0.00157138 0.00555567 2.3766e-18)
(0.000318338 0.0014079 -2.09913e-17)
(7.40037e-05 -0.000356966 -1.0155e-18)
(0.000197503 -0.000879539 3.11061e-19)
(0.000410434 -0.00194377 -5.34118e-18)
(-0.0326491 0.00944584 -8.2813e-18)
(-0.00319587 0.000258004 7.89741e-17)
(0.00368275 0.00172026 -1.28785e-17)
(0.000690477 -0.000125228 1.3714e-18)
(0.00536612 0.0051862 -3.24602e-17)
(0.0094046 0.00491995 -1.48101e-17)
(0.00441127 0.00495156 9.10274e-18)
(0.00402441 0.00112696 -1.50531e-17)
(-0.032314 0.00834759 1.04043e-17)
(-0.0178105 -0.000582716 -2.53617e-17)
(0.00241613 0.000253201 -1.08307e-18)
(0.00263064 0.00152246 1.92654e-17)
(-0.0402254 -0.00448402 -1.03357e-17)
(0.000564764 -0.000322839 4.06215e-19)
(5.6875e-05 -0.000151735 -3.62683e-19)
(0.00465807 0.00496978 -2.04312e-17)
(0.00375351 -0.00239661 4.82427e-18)
(0.000486615 -0.000107243 3.43807e-21)
(6.43318e-06 -5.58226e-05 -1.11408e-18)
(0.000164946 -0.000362311 -3.29015e-18)
(8.24439e-05 -1.11874e-05 4.04464e-19)
(0.00293819 0.000991704 -1.72094e-17)
(6.20843e-05 -0.000164021 6.49803e-19)
(-0.0239616 0.00328164 -8.39423e-18)
(0.00359865 0.00153243 2.24566e-17)
(0.000583731 -0.00062514 1.5438e-18)
(-0.0201322 0.010404 -6.91557e-18)
(-0.0313003 -0.0029861 -3.95506e-18)
(0.00021589 -0.00100199 3.0406e-18)
(0.00574834 0.00354557 9.81744e-18)
(-0.0175946 -0.00146674 -7.28071e-17)
(0.000482819 -0.00123872 -2.96279e-18)
(0.000207475 -0.00102273 -4.16245e-18)
(0.00372419 0.00151096 8.65311e-18)
(-0.0312718 -0.00011963 1.20658e-17)
(-0.0343634 -0.00568074 -4.86378e-17)
(0.00506635 0.00112768 4.11966e-17)
(4.54072e-05 -1.12093e-05 9.50797e-19)
(-0.0369186 0.0187817 7.53073e-18)
(6.90835e-05 -0.000209272 1.78634e-18)
(0.00531201 0.00103592 1.00024e-17)
(-0.0174099 -0.00182065 6.08506e-17)
(0.00173784 -0.00185787 -1.93761e-17)
(0.00125391 0.000708471 2.47131e-18)
(-0.0346762 -0.00551429 -6.74589e-18)
(0.00290765 -0.0237251 -1.75763e-17)
(-0.0076669 -0.00711224 -2.34187e-17)
(0.00473352 -0.00185695 -1.20737e-18)
(0.000285402 -0.00236681 -2.19483e-17)
(-0.0126324 -0.00784121 3.71204e-17)
(-0.0320712 -0.00485954 -2.13142e-17)
(0.00342394 0.0152008 2.94491e-17)
(0.00113828 -0.000271741 -2.39724e-18)
(0.00293217 -0.00271929 2.17087e-17)
(-0.0126359 0.000946295 -1.40159e-18)
(0.000121687 -0.003332 3.12065e-17)
(0.000139933 -0.00335172 -6.34825e-18)
(0.000241527 -0.00149481 1.31211e-17)
(0.00505101 0.000724539 6.1123e-17)
(0.000762033 -0.00197843 -2.78829e-18)
(-0.019581 0.00275722 3.0648e-18)
(0.000339239 -0.00247111 -3.68494e-17)
(0.000148364 -2.91339e-05 -1.4089e-18)
(0.000193206 2.66011e-05 -7.39287e-18)
(0.00207888 -0.0012715 9.44062e-19)
(-0.00623427 -0.00629105 1.66225e-17)
(0.00069989 -0.00308669 9.58355e-18)
(0.000554879 -0.00030623 -2.88343e-18)
(-0.0144443 -0.00629129 -3.92441e-18)
(0.000702365 -0.00199776 1.87393e-18)
(0.00271421 -0.0010426 -2.10875e-17)
(0.00127472 0.000767176 -7.13407e-18)
(-0.031276 -0.000207364 -1.18122e-17)
(0.00507684 0.00474097 1.74567e-17)
(-0.000297722 0.00595546 3.52388e-18)
(0.00121625 -0.00133013 -2.55768e-18)
(0.00207415 -0.000411538 -6.491e-18)
(-0.0109233 0.00940854 5.59238e-18)
(0.000281933 -0.00100793 6.82942e-18)
(0.0105449 0.00488337 1.22573e-17)
(0.00235823 0.000284325 8.12564e-19)
(0.00377556 0.001443 -3.63715e-17)
(0.000689101 -0.00202368 -1.19283e-17)
(0.000144462 -0.000608951 -1.05044e-18)
(0.000589494 -0.000597288 -9.10526e-19)
(0.00687212 -0.000911716 -5.49664e-17)
(0.00229737 -0.00621238 1.01335e-18)
(0.00633951 0.00302157 3.17745e-17)
(-0.0158991 -0.0234235 -1.30329e-17)
(-0.0117903 0.0104469 7.32065e-18)
(0.0010087 -0.00130292 1.87084e-19)
(-0.0218539 0.000518546 3.90158e-18)
(0.00756745 0.00501394 -9.99455e-18)
(0.000524044 2.47882e-05 -4.48247e-18)
(0.00264858 -0.00324373 2.23554e-17)
(0.00506784 0.0030989 2.15966e-17)
(-0.0186345 -0.000610874 3.34648e-17)
(0.00203355 -0.00122492 -7.29477e-18)
(0.000282925 0.00347624 1.44859e-17)
(0.00194897 0.00756819 -1.98609e-17)
(-0.022123 0.00640789 -1.31102e-16)
(0.00695732 -0.00185195 8.5087e-17)
(-0.0226342 0.00262134 1.51431e-18)
(0.00133044 -0.000488118 -1.39611e-18)
(0.00765026 0.0101645 1.24578e-18)
(0.00783139 -0.000905792 5.3699e-17)
(0.00291594 0.000205206 5.40061e-18)
(-0.0267844 0.00117272 -7.42053e-19)
(0.00316735 0.000142732 3.00217e-17)
(-0.0265024 0.0030585 -5.72739e-17)
(0.00260259 0.00146239 -4.27464e-18)
(0.000972313 0.00233441 -9.7885e-18)
(0.00728715 0.00234769 2.43279e-17)
(0.00413685 -0.00879094 3.87283e-17)
(0.000128004 -0.00079297 3.4667e-18)
(0.0023471 7.21367e-05 -5.22553e-18)
(0.00376531 -0.00244857 2.12527e-17)
(0.00165912 0.00192371 1.96669e-18)
(0.000488206 -0.000452042 1.29061e-19)
(0.00367315 0.00182634 1.57874e-17)
(-0.0364026 -0.00902359 2.3574e-18)
(0.00033796 -0.000738154 -4.74524e-18)
(0.00275876 0.00252855 -8.61888e-18)
(-0.00379561 -0.00123201 3.30063e-17)
(0.0018681 -0.000378281 -6.18904e-18)
(0.000443074 -0.0063529 3.42757e-17)
(0.0015494 0.00270589 -2.12805e-17)
(-0.0377178 -0.00443102 1.47018e-17)
(0.00223681 -0.000508493 8.24332e-18)
(0.000910145 0.00353122 -1.76106e-18)
(0.00120783 -0.00478411 8.66173e-18)
(0.00764539 0.00597149 3.17934e-18)
(0.00416898 0.000640768 -4.7741e-17)
(-0.00798998 0.00235408 -8.95484e-18)
(-0.0271042 -0.00175161 -2.51575e-17)
(0.00569437 -0.000135696 5.58053e-18)
(0.000331631 -0.000636398 3.82724e-18)
(0.00646424 -0.000921738 5.2506e-17)
(0.00319925 -8.32403e-05 -3.42958e-18)
(0.000409505 0.00352578 -2.15472e-18)
(0.000651307 -0.000176046 -2.10604e-18)
(0.00317612 -0.00116948 -1.76981e-17)
(-0.0337632 -0.0159111 1.75632e-17)
(-0.0133202 0.0193299 1.70573e-16)
(0.00205288 -0.00036248 1.22281e-18)
(0.00726487 0.00262589 -3.47624e-17)
(0.00312763 0.00905752 9.69499e-18)
(-0.00377078 9.66629e-05 -9.19688e-17)
(0.000361803 7.63887e-05 -2.18259e-18)
(0.00318795 -0.00216922 -1.80283e-17)
(0.00700635 -0.00966993 2.05519e-17)
(-0.0183427 0.00447821 1.36727e-16)
(0.00176629 -0.0020773 3.61436e-18)
(0.0202809 0.00798883 -2.82074e-17)
(0.000200213 -0.000755779 -3.95098e-18)
(2.52942e-05 -7.03257e-06 4.84019e-20)
(-0.0267782 0.000427078 1.17268e-17)
(0.00392825 0.00953093 -8.62717e-18)
(9.56384e-05 -0.000612153 1.19418e-18)
(0.00192762 4.93703e-05 -3.55678e-18)
(0.00286725 0.00254695 -1.54731e-17)
(0.000268308 -0.00012138 -1.78703e-18)
(-0.0317783 -0.0164664 -2.51412e-17)
(0.00511283 0.000850987 -1.50657e-17)
(0.00504272 0.00301719 -2.97893e-17)
(0.00181784 0.000903548 -3.15582e-18)
(0.00133346 -0.000457005 -6.87925e-20)
(0.000118807 -0.00100978 -9.86599e-18)
(-0.0120814 0.00286067 4.69091e-17)
(0.000553257 -0.000615184 1.08085e-19)
(0.000107571 -0.000990776 7.96387e-18)
(-0.00112743 0.0143423 -3.69625e-18)
(-0.03436 -0.0106544 8.81814e-19)
(0.00143149 -0.00146749 -6.74583e-18)
(0.00190888 0.00731869 4.20377e-18)
(2.41073e-05 -0.000390942 -2.40011e-18)
(6.00955e-05 -0.000150951 -8.53029e-22)
(0.00193608 -0.000391324 -8.38239e-18)
(0.00652442 0.00306472 -3.38396e-17)
(0.00130246 0.00266276 6.56362e-18)
(0.000509587 -0.000484899 -1.08851e-18)
(0.00150315 -0.000214667 -3.28923e-18)
(0.00209123 -0.00368559 6.50249e-18)
(0.00160419 0.000193545 6.45796e-18)
(-0.0344366 -0.0140573 6.06506e-19)
(7.5273e-05 -0.00019848 2.68295e-19)
(0.00160754 0.00133191 5.95192e-18)
(-0.0199005 0.00363098 -6.23715e-19)
(0.000849657 -0.0022985 -2.31628e-18)
(0.00022577 1.42184e-05 3.385e-18)
(5.18911e-05 -0.000197359 9.31283e-19)
(0.00182332 0.000864845 -3.93514e-18)
(0.00106376 0.000233964 3.4197e-18)
(0.00673487 -0.00366879 -2.30313e-18)
(-0.0110452 0.0162154 -1.39914e-18)
(0.00313251 0.00071857 -1.56057e-17)
(6.22642e-05 -0.00332567 6.51377e-17)
(0.00197583 -0.000346154 1.46396e-17)
(0.000108092 -0.000315541 -2.47912e-19)
(-0.0407459 -0.000313135 -7.25961e-18)
(0.00198278 0.00735587 1.92059e-17)
(0.000518553 -0.00222569 -2.18277e-19)
(0.000402177 -0.000774988 -7.366e-19)
(-0.032363 -0.00398166 7.52982e-18)
(0.00045913 -0.00215835 -1.07485e-17)
(0.000147995 -0.00906469 3.0399e-18)
(0.000328995 -0.000838905 -5.01633e-19)
(0.00287798 -0.000791251 3.91924e-18)
(0.00716856 -0.00147167 -9.07804e-17)
(0.00203502 0.00198785 1.13352e-17)
(-0.0330087 -0.00574889 1.22095e-18)
(0.00245471 0.00899732 -1.10579e-17)
(-0.00727989 0.0186886 -1.34418e-16)
(0.000712214 -0.00145043 5.56112e-18)
(0.00479897 -0.00220647 4.40945e-17)
(0.000365406 -0.000629573 -6.67087e-19)
(-0.0222459 0.00903925 -2.89396e-18)
(0.00162596 0.00268011 2.34406e-17)
(0.00502955 0.00488228 -1.26544e-17)
(0.00315241 -1.98462e-05 9.43807e-18)
(0.00120856 -0.00128282 -1.60152e-18)
(0.000875427 -0.00227142 -1.23475e-18)
(0.00485608 0.000694142 -1.1835e-17)
(3.66931e-05 -1.04255e-05 -1.4568e-20)
(0.00107866 0.00120697 -2.95943e-17)
(-0.0390969 -0.000832251 1.49609e-18)
(-0.0347388 -0.0155806 -6.89813e-17)
(0.00159642 -0.00138891 -5.46581e-17)
(-0.00939539 0.0152187 8.34878e-18)
(-0.00532773 0.000746698 4.34706e-17)
(0.00910812 0.00571173 1.41622e-17)
(0.000478558 -0.00188683 4.29813e-18)
(1.15445e-05 -0.000132603 2.25214e-19)
(-0.00466498 -0.00434978 1.35251e-17)
(8.18212e-05 -0.000586231 1.76104e-18)
(0.000472113 -0.000440777 1.38669e-19)
(0.000519801 -0.00199581 3.19063e-18)
(-0.0188025 -0.00841221 -2.88638e-17)
(0.0017785 0.000277256 -1.46604e-17)
(0.00040859 -0.00120995 4.56957e-18)
(0.0017485 -0.00325087 1.88607e-17)
(0.00418342 -0.000234 -2.62514e-17)
(4.83858e-05 -0.000627009 8.38384e-18)
(-0.0291916 0.000762132 6.31253e-18)
(0.000403268 -0.000465654 6.90812e-21)
(-0.0377399 -0.00707495 -2.28605e-17)
(0.00600968 -0.00312524 8.27179e-18)
(0.000287192 -0.000405285 -2.12865e-19)
(0.00150326 0.000478186 -6.36897e-18)
(0.0112791 -0.00665449 7.87209e-17)
(0.000570515 -0.000513751 1.70157e-17)
(0.000477831 -0.000119667 -1.43473e-18)
(-0.0545886 -0.0184038 1.2658e-16)
(-0.0133734 0.000132303 2.5336e-17)
(0.000520573 0.000173078 -5.30068e-18)
(-0.0156652 0.00282441 8.05988e-18)
(0.013615 0.00416121 -3.24288e-17)
(0.00567335 0.0033052 -8.23922e-18)
(0.000678481 -0.00144594 -2.52459e-18)
(0.00153672 0.0128838 7.01419e-18)
(-0.0188363 -0.00185842 3.61944e-18)
(0.00054102 0.000176971 7.36879e-18)
(0.00473793 -0.00688356 -1.45497e-17)
(0.000775602 -0.000707983 -3.60343e-18)
(0.000420212 -0.00047297 5.15008e-20)
(-0.00748544 0.0137712 3.43783e-19)
(-0.0280904 0.00416297 -9.47315e-18)
(0.00362477 -8.58825e-05 -1.12057e-17)
(0.00124537 0.00259844 -1.3213e-17)
(7.2495e-05 -0.000597455 2.56547e-18)
(0.00162226 0.00338837 1.23355e-17)
(-0.0349941 -0.00845951 1.93865e-17)
(-0.00902598 -0.00437575 -1.13117e-17)
(0.000664676 0.000155156 -6.52424e-18)
(-0.00618956 -0.00105395 -2.01219e-17)
(0.000492303 -0.000475771 8.84156e-19)
(0.000809024 -0.00070657 2.408e-18)
(0.00420219 0.000706204 4.89551e-17)
(0.00136274 0.0014065 1.76859e-18)
(0.000359047 8.38415e-05 -5.75367e-18)
(0.00112358 -0.00126538 7.42588e-19)
(-0.0148091 0.00341864 -7.95937e-17)
(0.00475366 -0.00832422 -7.86384e-18)
(-0.013895 0.00261925 -2.95156e-17)
(0.00171455 0.000244278 -4.51104e-18)
(0.000152385 -0.000593882 -2.18669e-18)
(-0.0301752 0.00900773 -3.11575e-18)
(2.13451e-05 -0.000175243 -2.74313e-18)
(0.00593212 -0.000455854 8.4813e-17)
(0.00186949 0.00119517 -7.56379e-18)
(0.00184457 0.0018466 -1.07961e-17)
(0.00313111 0.000484713 9.67906e-18)
(-0.0176793 0.00715425 -1.46849e-19)
(-0.0176651 -0.000364997 1.66641e-17)
(0.00229635 -6.46977e-05 4.74414e-18)
(0.00544501 -0.0013532 5.6804e-17)
(0.001252 0.000629631 -1.00051e-17)
(0.00502516 3.01213e-05 6.75367e-18)
(-0.0212387 0.00859659 -3.17532e-18)
(-0.0259037 0.000553551 -1.24412e-17)
(0.000697389 -0.000768907 -4.727e-19)
(0.000357596 -0.000640317 9.9604e-19)
(0.000429121 -0.00248125 2.04904e-18)
(-0.013959 0.00339471 7.77576e-17)
(-9.72806e-05 0.00789452 7.76382e-18)
(0.00154882 0.003307 -3.53106e-18)
(-0.00752536 -0.00509246 3.85968e-17)
(0.00133064 0.00143107 -2.80786e-18)
(0.0024986 0.00146559 -2.62403e-18)
(-0.0113426 -0.00197601 -9.74426e-17)
(-0.030302 0.0061625 -1.07259e-18)
(0.00187344 -0.00362622 3.83955e-19)
(-0.0384842 -0.00585473 1.75319e-18)
(0.00412355 0.00708816 -3.52227e-18)
(-0.015443 0.0128799 1.20269e-17)
(0.00122661 -0.000491347 -1.94338e-18)
(0.00148339 0.00782259 9.19798e-18)
(0.0362927 0.00704653 -6.94235e-18)
(8.50731e-05 -0.000291355 3.45783e-19)
(-0.0035642 -0.00134448 9.49061e-17)
(-0.0344905 -0.0186862 1.98439e-17)
(0.00152828 -0.00190839 -2.00201e-18)
(0.00329979 0.00221943 4.17968e-18)
(0.000523982 -0.000780138 -1.36731e-18)
(-0.00271585 -0.00409958 1.97898e-18)
(0.00258483 -0.00338656 -1.21731e-17)
(-0.0192494 -5.53493e-05 2.50422e-17)
(0.000552941 -0.000630025 -1.65163e-20)
(1.53623e-05 -9.8186e-06 -2.0977e-20)
(0.000339777 -0.00175788 1.43435e-17)
(0.00410898 -0.000308956 3.14936e-17)
(7.16918e-05 -0.000188254 -9.12019e-19)
(-0.0172605 -0.00778903 3.59313e-17)
(1.795e-05 -1.16737e-05 1.23301e-20)
(0.0043269 0.00691721 7.9457e-18)
(0.000631945 -0.00146716 -5.98362e-18)
(0.000433585 0.00364353 4.9872e-18)
(0.000344697 -0.000817934 2.46191e-18)
(5.21868e-05 -0.000642275 3.57625e-18)
(0.00226285 -0.00258629 4.39911e-18)
(-0.00624416 -0.000913438 -7.49006e-17)
(0.00416767 0.000436313 1.23545e-18)
(-0.0117542 -0.00672509 4.09343e-18)
(0.00286784 -0.000884303 -4.73583e-19)
(0.000281623 -0.000139235 1.03924e-18)
(0.00062405 8.39819e-06 2.42795e-18)
(0.00486188 0.000416978 5.71715e-18)
(0.00148172 -0.000248471 -4.21666e-18)
(0.00542346 -0.00105541 -1.01284e-18)
(0.00193487 0.000255711 -1.8602e-18)
(0.000508388 -0.00218635 1.30115e-17)
(0.0014838 0.0080557 -8.43759e-18)
(1.92335e-05 -0.000180999 1.98088e-18)
(-0.00485791 0.00175472 -9.7611e-18)
(3.19245e-06 -3.94057e-05 2.69508e-19)
(-0.000256491 0.00412793 -4.35448e-18)
(0.00528416 -0.000905017 -4.41865e-17)
(-0.0190084 -0.000280134 3.96197e-19)
(0.000237674 -0.00189173 -6.06426e-18)
(-0.0204399 0.0015256 -1.35309e-17)
(0.00167558 -0.00322338 1.41075e-17)
(0.000591589 -0.00350309 -2.46618e-17)
(-0.0359361 -0.0179479 -1.9288e-17)
(0.000732802 0.00016605 -1.35758e-18)
(-0.0293879 0.00165853 3.51095e-17)
(0.000745485 -0.00200604 -1.00241e-17)
(0.00300999 0.00020728 -1.47814e-17)
(0.00100317 -0.00172003 -9.31657e-18)
(0.000678443 -0.016908 -4.37414e-18)
(0.000544414 1.64919e-05 6.48369e-18)
(0.00529571 -0.000997485 3.64057e-18)
(0.000970739 0.000185917 -1.39394e-18)
(-0.015535 0.0118084 3.11147e-18)
(-0.00608189 -0.00225858 2.23818e-17)
(0.000909355 -0.000694474 -1.64701e-18)
(0.000220568 -0.00260752 -1.74574e-17)
(-0.0296132 -0.00959638 -1.53521e-17)
(2.07211e-06 -4.30553e-05 1.79904e-19)
(3.66814e-06 -5.65149e-05 -2.64959e-18)
(0.00074071 0.0036577 9.22703e-21)
(-0.00465227 0.00158323 9.91467e-18)
(0.00685241 0.010727 1.18132e-17)
(0.000195303 -0.00101304 -5.78848e-18)
(0.00764197 0.0018145 3.17065e-18)
(0.00155152 0.000178556 1.02704e-17)
(5.75049e-05 -0.000682688 -8.68519e-18)
(0.00105906 0.0087173 6.04937e-18)
(0.00765624 0.00215548 6.12628e-18)
(0.00333627 -0.00587923 5.9253e-19)
(0.000325683 6.71721e-05 3.67266e-18)
(0.00174245 0.00553752 -1.32278e-17)
(0.000763123 -0.0026034 8.97008e-19)
(0.000905056 0.00328799 1.11671e-17)
(0.00021784 -0.00125288 4.28425e-18)
(0.000945819 -0.00122163 -6.06862e-20)
(0.00252342 -0.003271 2.83623e-19)
(0.000348279 -0.00173051 -3.01598e-17)
(0.00136069 0.00579158 1.08332e-17)
(0.00390149 0.00171249 -2.10429e-17)
(0.00402608 0.00153799 -7.1963e-18)
(0.0017537 -0.00349957 -1.01514e-17)
(0.00308646 -0.00807918 -4.2846e-17)
(0.0146192 0.00210768 -2.18195e-17)
(-0.0224197 0.0183164 -3.57582e-18)
(-0.0534147 -0.0148533 -7.89808e-17)
(0.000831904 0.00612549 -2.24579e-18)
(-0.0300101 0.00153188 1.73191e-17)
(0.00149428 -0.00244158 7.1226e-18)
(-0.00779266 0.0151755 -5.62317e-18)
(0.00572335 0.00335946 -9.8113e-18)
(0.000793836 -0.000194025 -2.13822e-18)
(0.00245438 0.00139623 -2.25678e-17)
(0.0127719 0.00170986 9.20863e-18)
(0.00183788 -0.00137977 -1.77242e-19)
(0.000260809 -0.00038125 -5.16181e-19)
(0.000253043 -0.000352995 -6.64821e-19)
(-2.9193e-05 0.00435527 -2.31824e-17)
(-0.0214026 0.00239223 9.07483e-19)
(0.00166837 0.00135669 -9.64105e-18)
(-0.0223201 0.00124302 5.75863e-18)
(0.00028363 -0.000146689 1.84763e-18)
(0.00716915 0.010104 -5.26554e-18)
(0.00122878 -0.00360129 2.55161e-18)
(-0.0166765 -0.00166345 2.95884e-17)
(0.00519449 -0.00108507 1.01659e-17)
(0.00229718 -0.000489296 -8.37176e-18)
(0.00186665 0.000167957 -2.9041e-18)
(-0.0164072 -0.00212676 2.11218e-17)
(0.00385815 -0.00596793 -3.25059e-17)
(0.00166265 -0.00246626 -3.80878e-18)
(0.0032454 0.00957852 -8.97182e-18)
(0.00128782 -0.000422053 5.32539e-18)
(-0.00287778 -0.00412932 -2.38456e-17)
(-0.000200713 0.0043335 1.65185e-17)
(0.00465146 0.006858 1.31018e-17)
(0.00308066 -0.000386482 3.2816e-18)
(0.0124706 -0.0119628 2.56199e-17)
(0.000204371 -0.000746385 -6.75778e-19)
(3.97768e-06 -4.72838e-05 -2.47688e-19)
(0.000224661 -0.00144308 -9.36722e-19)
(6.96963e-05 -0.000700736 9.15958e-18)
(-0.0218486 0.00674611 1.59175e-18)
(7.82497e-05 -1.37571e-05 -5.99224e-19)
(0.000921175 0.00874171 -5.10087e-18)
(-0.0303537 0.0082285 5.72495e-18)
(0.00518123 -0.00110221 -6.64654e-18)
(-0.0104348 -0.00601595 9.06439e-19)
(-0.0183279 -0.000435586 -5.48205e-18)
(0.00500409 0.00696649 -1.01051e-17)
(-6.77721e-05 -0.0037079 3.51548e-17)
(0.000260835 -0.00188131 -5.78154e-18)
(2.68054e-06 -0.000219231 2.03419e-18)
(0.000191714 -0.000844294 1.37361e-18)
(0.000358802 -1.95933e-05 1.59465e-18)
(0.000619614 9.10423e-06 -1.95856e-18)
(2.10445e-05 -1.07649e-05 1.15174e-20)
(0.00508789 0.000285865 -2.44499e-17)
(0.00620268 -0.00239107 -5.19996e-18)
(0.000766509 -0.00266467 -5.49002e-18)
(0.001739 0.00986549 6.6392e-17)
(0.00112476 -0.0010756 -3.05123e-18)
(-0.0243807 0.00316339 1.11155e-17)
(-1.61719e-06 -1.19257e-05 -1.30427e-17)
(-0.00707599 8.90658e-05 3.41474e-17)
(0.0031981 -0.00161757 2.04076e-17)
(-3.64974e-06 -2.55593e-05 1.27031e-17)
(1.37229e-05 -0.000323838 -1.78058e-18)
(-0.0192653 -1.42585e-05 4.26595e-19)
(0.00233544 -0.000297207 7.45995e-18)
(-4.38347e-06 0.00611995 1.33493e-17)
(-0.0374129 -0.0181587 -5.70354e-17)
(0.00309651 0.0021786 6.64726e-18)
(0.00454095 0.00243092 -2.08311e-17)
(0.000493956 0.000182932 4.06817e-18)
(-0.0403673 -0.00654618 -1.78851e-17)
(0.000847732 -0.00150066 1.71519e-18)
(0.00182538 0.000249681 2.04824e-17)
(0.0013342 0.00829423 1.13385e-17)
(5.81045e-06 -0.000213508 -2.63419e-18)
(0.000444705 -0.00120019 5.16412e-18)
(0.000754164 3.86669e-05 3.2345e-18)
(0.00180533 0.00268568 -8.77156e-18)
(-0.0255651 0.00163462 -6.88548e-18)
(0.0026245 -0.000813763 -1.34074e-17)
(0.0031275 -0.000227668 8.17393e-18)
(0.00603514 -0.0105856 -4.19779e-18)
(-0.00770415 -0.00374567 1.0383e-18)
(0.000359072 -0.00193086 1.16335e-17)
(0.000985564 -0.0017517 2.74528e-18)
(-0.0191792 0.0119683 4.66791e-18)
(0.000346153 -1.84749e-05 1.54718e-19)
(-0.0189432 0.0121129 -5.10653e-18)
(9.09778e-06 -2.57334e-05 1.17901e-19)
(0.0016052 0.000246315 9.27487e-18)
(-0.0106131 -0.000850206 3.43325e-17)
(0.00282692 0.00434553 -4.85293e-18)
(0.00443139 0.00542021 -1.67462e-19)
(0.00528236 -0.00212247 2.98092e-17)
(0.00423725 0.000539514 3.24035e-18)
(9.69764e-06 -0.000125118 -1.97756e-18)
(-7.82045e-07 -1.06163e-05 -9.02583e-20)
(0.00516539 3.51966e-07 -1.64519e-17)
(0.00125849 -0.000476845 2.27967e-18)
(3.53806e-06 -0.000106814 -2.94941e-18)