/*--------------------------------*- C++ -*----------------------------------*\
| =========                 |                                                 |
| \\      /  F ield         | OpenFOAM: The Open Source CFD Toolbox           |
|  \\    /   O peration     | Version:  v2012                                 |
|   \\  /    A nd           | Website:  www.openfoam.com                      |
|    \\/     M anipulation  |                                                 |
\*---------------------------------------------------------------------------*/
FoamFile
{
    version     2.0;
    format      ascii;
    class       volVectorField;
    location    "350";
    object      ddtCorrDdt0(U);
}
// * * * * * * * * * * * * * * * * * * * * * * * * * * * * * * * * * * * * * //

dimensions      [0 1 -2 0 0 0 0];


internalField   nonuniform List<vector> 
13851
(
(-0.0122634 -0.0025904 -2.88043e-17)
(-0.00403899 -0.000434423 -4.38821e-19)
(-0.00393524 -0.000508745 -6.61578e-19)
(0.00290952 -0.00672383 -5.54888e-17)
(-7.94498e-05 1.84616e-05 5.02282e-18)
(-0.00458269 0.000612548 -4.40053e-18)
(-0.00210695 -0.00462308 4.5527e-18)
(-0.000330576 7.41682e-07 2.14806e-19)
(0.0243307 0.00102736 -2.10587e-19)
(-0.000155004 0.00119774 6.33586e-18)
(-0.00610461 0.0048557 9.31429e-18)
(-0.0001593 0.000476581 -3.84377e-19)
(-0.000394642 0.00174786 2.59201e-18)
(0.0265509 -0.000462293 3.91346e-17)
(-0.00753223 -0.00256291 -2.18248e-18)
(-0.0164532 -0.00902895 2.87304e-17)
(0.00462837 -0.00348216 -3.74078e-17)
(-0.00168874 -8.84962e-05 -1.80148e-19)
(-0.0110698 0.0134328 -1.51443e-17)
(-0.0123533 -0.00246452 2.02357e-17)
(-0.00812565 -0.00131553 -7.34022e-18)
(-0.00266553 0.00283211 5.53196e-19)
(0.0493762 -0.00915636 8.13881e-18)
(-1.9575e-06 6.03859e-06 -1.8179e-18)
(0.0482992 -0.00880449 -2.27934e-18)
(-0.0106429 -0.00860343 3.00537e-18)
(0.0297515 -0.00492814 -3.62865e-17)
(0.062683 -0.00696001 -4.16892e-17)
(0.0240738 0.00126025 -1.72008e-17)
(-0.000828056 5.10583e-05 6.17827e-19)
(0.0274759 -0.00616373 -2.58473e-17)
(-0.00218136 -0.00448892 -4.87405e-18)
(-0.0119445 -0.00260451 -2.00148e-17)
(0.0292829 -0.00364031 7.6411e-19)
(-0.00571588 0.00358046 -2.02003e-18)
(0.02318 0.0012296 -1.08416e-18)
(-1.16337e-06 5.2442e-06 1.86341e-18)
(0.0138898 -0.00979634 1.0038e-17)
(0.0296889 -0.00399786 -2.34947e-17)
(-0.00114433 0.00144342 4.52849e-18)
(0.0328632 -0.000946366 -4.34269e-18)
(0.0234589 0.00118489 3.58037e-18)
(0.00492549 -0.00394073 -2.69663e-17)
(-5.17913e-05 0.00819749 2.72919e-17)
(0.023626 0.00119128 1.4311e-17)
(-0.000956077 0.000672842 1.02871e-18)
(0.000147099 -0.000139352 -7.50842e-19)
(-0.0147956 -0.00639998 -1.26674e-17)
(-0.00279144 0.00162027 6.45488e-20)
(-0.000359565 0.00174181 -4.79688e-18)
(0.0147246 -0.00177034 -1.39169e-17)
(-0.000236744 0.00186735 -1.34613e-17)
(-0.0167259 -0.00873405 -2.06013e-17)
(-0.00506354 -0.00621037 3.09444e-18)
(0.0272754 0.00042164 1.54545e-17)
(-0.00112639 0.00146936 -6.17723e-18)
(-0.0119981 -0.00260813 2.15832e-17)
(0.0318028 -0.00074832 9.49761e-18)
(0.0239509 -0.00734558 6.07716e-18)
(0.0276781 -0.0014812 1.97337e-17)
(-0.000147909 0.000454036 1.06457e-18)
(0.0254201 -0.00573005 -4.44683e-18)
(-4.79854e-05 0.000847238 -2.9205e-18)
(-0.00282738 0.00170599 -1.55189e-19)
(0.00153877 0.00587881 8.70574e-18)
(0.00185379 0.00575419 9.68065e-18)
(0.0278265 -0.00135017 -1.65368e-17)
(0.000298214 0.00346661 2.55447e-17)
(-0.00158492 0.00123188 9.80701e-19)
(0.00586255 -0.000842007 -9.51123e-18)
(0.0133718 -0.00594762 -3.00387e-17)
(-0.00900615 -0.000912303 2.65691e-17)
(-0.000623525 0.00144634 2.34797e-18)
(0.0275007 -0.00137289 -1.61133e-17)
(-0.00605815 -0.00525932 -2.53915e-18)
(-0.00208573 0.0023853 -2.63778e-18)
(0.00552171 -0.00373498 4.65574e-18)
(-0.000567124 -0.000239579 -1.19386e-20)
(0.0241082 -0.0054464 8.81987e-19)
(-0.000546642 0.000780614 1.05501e-18)
(-0.00164082 0.00123446 2.81497e-18)
(-0.00695201 0.012464 -8.11158e-19)
(-0.00556034 0.00356258 -2.26411e-18)
(0.0265629 -0.00067721 -3.17041e-18)
(0.0272513 -0.00139601 1.18485e-17)
(0.0190012 -0.00692611 -9.95373e-18)
(-0.00276234 0.00287517 2.71954e-18)
(0.0293635 0.00123551 -4.25426e-18)
(-0.000241037 0.00121789 -1.09697e-17)
(0.027993 -0.00564772 -1.50728e-17)
(-0.000213177 0.00189642 -2.26774e-18)
(-0.00238006 -0.00448363 4.9924e-18)
(0.0100465 -0.00208891 -5.24581e-17)
(0.0162496 -0.00634691 4.11012e-19)
(0.0192778 -0.003162 -2.43545e-17)
(-0.000152487 0.00768184 5.13171e-18)
(-0.000859323 0.000859721 -3.78643e-19)
(-0.0166348 -0.00729426 -1.65937e-17)
(0.0214506 -0.000505492 -2.73871e-17)
(-0.00540779 0.00685432 1.11178e-17)
(-0.0162214 -0.00706755 1.71277e-17)
(-2.54448e-05 0.00368619 3.31215e-17)
(-2.34748e-08 0.00381934 4.40189e-17)
(-0.000630391 0.00159771 6.77933e-18)
(-0.00107044 0.000570139 -1.5449e-18)
(-0.00839633 0.000329378 -4.85891e-18)
(-0.00103453 0.000578565 -2.30886e-18)
(0.0151044 -0.00541389 4.72051e-17)
(-0.00244306 -0.00433552 -2.6319e-18)
(-0.00162543 -9.0063e-05 -4.38655e-19)
(-0.00232803 0.00377323 5.1156e-18)
(-0.000993866 0.000668102 3.64471e-18)
(-0.00911849 0.00328058 -2.28974e-17)
(-0.00782882 0.00329526 1.93396e-17)
(-0.012512 -0.00284032 1.12425e-17)
(-0.00489238 -0.00601938 1.10081e-18)
(-0.000525022 8.67455e-05 9.09919e-19)
(-0.000330271 -3.19506e-06 -1.09875e-18)
(0.00264508 -0.00679694 6.16744e-17)
(0.00773393 -0.000538325 3.15337e-17)
(-0.000859475 0.00770874 4.18329e-18)
(-0.00126352 -5.99118e-05 -1.33349e-20)
(-0.00144614 0.00134162 -6.73815e-18)
(0.0264331 -0.00149177 1.19853e-17)
(-0.0196479 0.0041412 1.00629e-17)
(0.000632972 0.00331632 -6.53668e-17)
(-0.000854809 0.000841399 -2.17354e-18)
(-0.0043898 0.00524984 -1.2746e-17)
(0.0288458 -0.00283309 -1.36316e-17)
(-0.00882151 -0.00219737 -2.23464e-18)
(-0.00257363 0.00288741 5.01475e-19)
(-0.00498366 0.00224443 -5.51842e-20)
(-0.00928987 -0.00372494 -3.26148e-17)
(0.0283522 -0.00319396 8.75816e-18)
(-0.00629928 0.00491151 -8.03704e-18)
(0.0206968 -0.00415938 -9.68207e-18)
(0.000244016 0.00348773 -3.87787e-17)
(0.0178109 -0.00709427 1.6562e-17)
(-0.000205859 0.00355125 2.25433e-17)
(-0.00873012 -0.00282104 1.97208e-18)
(-0.00645537 0.0115882 1.72971e-18)
(-0.000767915 0.00222279 3.24759e-18)
(-0.000244483 0.00125437 1.3209e-17)
(0.000957191 0.0041705 -2.06659e-17)
(0.0531024 -0.0212336 -6.00668e-18)
(-0.00172171 0.0024177 1.63399e-17)
(-0.000533933 -0.000244489 2.04435e-20)
(0.0178089 -0.00810395 -3.29768e-17)
(0.0261427 0.00130986 8.82072e-18)
(-0.0044488 0.00535975 1.95249e-18)
(-0.0164901 -0.00673764 7.07681e-18)
(-0.00926384 0.00345358 2.93678e-17)
(-0.00797396 0.00339104 -1.50294e-17)
(-0.0143212 0.00898755 -1.51635e-17)
(-0.000394089 0.00197568 1.07186e-17)
(-0.000176187 0.00152988 2.4008e-18)
(-0.000115255 0.000355918 1.53429e-18)
(0.0259537 -0.00420287 8.6558e-18)
(-0.00835311 -0.00267776 1.22453e-17)
(-0.00291941 -0.00299407 3.8587e-18)
(-4.26421e-06 1.58603e-05 8.97433e-18)
(0.0237285 0.00125462 4.49839e-18)
(-0.00832446 0.000162808 -4.17644e-19)
(-0.0146669 -0.00616045 2.72654e-17)
(0.0266969 -0.000170436 -3.17486e-19)
(0.0242405 0.00135862 -3.65466e-18)
(0.024168 0.00131731 3.84524e-18)
(0.0147073 -0.00195003 2.99701e-17)
(-0.00235842 0.00367005 1.87963e-18)
(0.0624895 0.00476686 -1.12319e-19)
(-0.00012197 0.000425857 -4.52147e-19)
(-0.000509042 7.77696e-05 -2.89085e-20)
(-0.00888316 0.00141001 -1.2136e-17)
(-4.01451e-05 1.7004e-05 -3.26746e-18)
(0.0204878 -0.00324849 1.54245e-17)
(0.0285584 -0.00568119 7.09653e-18)
(-0.0154771 -0.00474303 6.34879e-19)
(-0.000518545 6.04499e-05 -4.1096e-19)
(-0.00587984 -0.00563704 -3.41125e-19)
(-0.0159746 -0.00497633 -3.05585e-18)
(-0.0191057 0.00307436 -2.81982e-18)
(-0.000298435 0.00795355 -2.91519e-17)
(-0.00248891 0.00353327 2.47364e-18)
(-0.00869196 -0.00238267 8.11968e-19)
(0.00250286 -0.00334371 -1.94176e-17)
(0.0260323 0.00140671 1.88684e-18)
(-0.0119557 -0.00261164 1.24897e-17)
(-0.000341849 0.00330384 -5.57971e-17)
(-0.000431725 0.0018757 2.42769e-18)
(-0.000928833 0.000294812 8.28119e-19)
(0.0424297 -0.0194259 2.64129e-17)
(-0.00830834 -0.00251641 3.94597e-18)
(0.0265484 -0.000554312 -1.14622e-17)
(-0.00467789 0.000490394 -4.77823e-19)
(-0.00173454 0.00235169 -1.43569e-18)
(-0.0166379 -0.00796543 1.26533e-18)
(-0.0119801 -0.00263053 -9.96471e-18)
(-0.00197037 -0.00110075 4.01355e-20)
(-0.00220274 0.000247964 4.04232e-19)
(0.00035392 0.00357802 2.92273e-17)
(-0.00471453 0.0106098 1.88444e-18)
(0.0215578 0.00223402 1.32071e-17)
(0.0315997 0.000610659 9.55133e-18)
(-0.00745908 -0.00275203 6.01867e-18)
(0.00402771 0.00813152 -7.52246e-18)
(0.0207685 0.00195984 1.94822e-18)
(-0.00024864 0.00261358 -2.38967e-18)
(-0.00868027 -0.0040984 2.44737e-19)
(0.024136 0.000821846 -2.96103e-18)
(-0.0041988 0.00101049 -2.84916e-18)
(-0.0162033 -0.00984595 -5.641e-17)
(-0.00140625 0.00131804 4.37943e-18)
(-0.0049506 0.0116253 -1.43284e-17)
(-1.16696e-05 9.76465e-05 -1.923e-18)
(-0.00598507 0.0034262 -7.73724e-18)
(-0.00222681 0.00257116 -4.88693e-19)
(-0.000333935 0.0016737 -9.1782e-18)
(-0.0134513 -0.00459797 1.58066e-17)
(-0.00221101 -0.000389615 -1.68038e-19)
(0.00104705 0.000857124 -1.28851e-17)
(-0.000504999 4.87685e-05 4.60562e-19)
(-0.0127017 -0.00227964 6.19787e-18)
(0.0266979 -0.000836129 -7.49662e-18)
(0.0204582 -0.00391024 2.57241e-18)
(-0.000424582 0.00329332 4.63027e-18)
(-0.00877899 -0.00422606 2.96206e-19)
(-2.25636e-06 4.09399e-05 4.73245e-19)
(0.000845333 0.00415223 -4.97054e-17)
(-0.000319791 0.000719391 -3.52182e-18)
(-0.00584238 0.00340197 1.11077e-17)
(0.0180521 -0.0139884 -3.00383e-17)
(-0.00037425 0.00327942 3.15821e-17)
(-0.00421117 0.000892707 2.02382e-18)
(-1.81242e-05 0.000758416 2.42488e-19)
(0.0311529 0.000375775 -5.87393e-18)
(-0.000843961 1.87785e-05 3.92024e-20)
(0.0221989 9.63172e-05 7.19634e-17)
(0.0306643 0.00119063 5.93516e-19)
(-0.00522813 0.0067398 -1.33826e-17)
(-2.97654e-06 1.47101e-05 -9.76519e-18)
(-0.00576161 0.0145153 -2.04343e-17)
(0.0273469 -0.0010891 1.60233e-17)
(0.0233897 0.00110214 -1.79408e-17)
(-0.0169325 -0.00949681 5.34836e-17)
(-0.00664114 -0.000508584 3.68656e-18)
(0.00127059 0.00406246 -7.26226e-18)
(-0.0134459 -0.0040393 1.0071e-17)
(-0.00588216 -0.00587914 2.86124e-18)
(-0.000286949 0.00761686 3.0255e-18)
(-0.00277878 0.00389426 -9.41091e-19)
(0.028454 0.00113535 -8.96397e-18)
(-0.0136781 0.00204498 3.94319e-19)
(-0.000309762 1.3996e-05 -3.86167e-19)
(-0.00484867 -0.00109378 -3.41583e-20)
(-0.0163531 -0.00757304 -2.75799e-18)
(0.0239479 0.00132766 1.41528e-18)
(0.0284424 0.00184543 -5.73702e-18)
(-0.000894754 0.000278625 7.55941e-20)
(0.000654403 0.00321751 7.73368e-17)
(-0.000258555 0.00118728 -1.88262e-18)
(-0.0121438 -0.00243017 6.72903e-18)
(-0.0177325 0.00631578 -9.50228e-19)
(-0.00499357 -0.00111971 -5.53093e-18)
(-0.00852121 -2.46003e-05 -2.31672e-17)
(-0.0138835 0.00252152 -5.80538e-18)
(-0.000647453 0.00120995 6.51392e-18)
(4.07526e-06 0.00372405 -1.62442e-17)
(-0.0137793 -0.00595828 1.82565e-18)
(0.0496272 -0.0170437 -1.06401e-17)
(-0.000142857 0.000760439 2.26658e-20)
(-0.000318139 0.00166645 1.10753e-17)
(-0.000396653 0.00332471 -2.95734e-17)
(0.0242424 0.000488398 -4.46231e-18)
(-0.00132965 -0.00472344 5.43342e-17)
(-0.00865955 -0.00144951 -1.96989e-17)
(-0.00132733 -6.39627e-05 1.47096e-19)
(-0.0197953 0.00149163 -2.67432e-17)
(-0.0160236 0.00793485 -3.32032e-18)
(-0.0120899 -0.00291703 -9.20596e-19)
(-0.00846851 -0.000204657 1.9254e-17)
(0.0240318 0.000423283 4.65617e-18)
(0.0260785 -0.00104297 -5.06493e-18)
(-0.00511491 -0.000391334 3.24718e-18)
(-0.00695184 -0.00271281 7.7887e-18)
(0.0209415 -0.00654576 1.92839e-17)
(-0.00111564 0.000476714 4.32159e-18)
(-0.000112305 0.00032805 1.64329e-18)
(-0.0120706 -0.0027911 -1.2967e-18)
(-0.00538508 0.00483765 -3.287e-18)
(-0.000895503 -2.34096e-05 2.1716e-19)
(-1.00805e-05 9.31188e-05 3.58701e-18)
(-0.000331051 0.000747557 4.73269e-18)
(-0.000163327 2.22416e-05 2.22167e-18)
(-0.00675727 -0.00130137 -4.99208e-18)
(-0.000123146 0.000354513 -1.6295e-18)
(0.024177 0.00100001 -1.16368e-17)
(-0.00834598 -0.00131704 -1.97895e-18)
(-0.00113048 0.00113351 -6.20801e-18)
(0.0237076 0.00131227 1.9317e-18)
(0.0263197 -0.0013077 -1.59073e-17)
(-0.00032808 0.00187566 -2.41894e-18)
(-0.0126031 -0.00248275 1.02164e-18)
(0.0167942 -0.000949947 -5.75731e-18)
(-0.000786525 0.00227983 2.83563e-18)
(-0.000311252 0.00190797 -9.50385e-19)
(-0.00850454 -0.00109157 2.16377e-18)
(0.0265709 -0.000883257 -1.2777e-17)
(0.0460992 -0.00246129 3.10813e-18)
(-0.00971772 0.000966699 -8.54827e-18)
(-8.92414e-05 2.42082e-05 -6.5319e-18)
(0.0639076 0.00402213 -4.1331e-18)
(-0.00013794 0.000450203 -3.15855e-19)
(-0.00992723 0.00141486 -2.67197e-18)
(0.016501 -0.000914179 2.42962e-18)
(0.0460691 -0.017793 -7.06803e-18)
(-0.00280885 -0.00292488 8.01479e-19)
(0.00314114 -0.000162242 2.30307e-18)
(-0.00992808 0.000524103 -1.32438e-17)
(0.0141416 -0.00681987 -3.74694e-17)
(-0.00963114 0.00367892 -8.99136e-18)
(2.5937e-05 0.00358283 9.10643e-18)
(0.0233197 -0.00493136 2.32909e-17)
(0.0269688 -0.0019207 1.73053e-17)
(0.0626295 -0.00542286 -1.40141e-17)
(-0.00228901 0.000264584 -5.02921e-20)
(0.00952792 -0.00474118 4.18084e-18)
(0.0211358 0.0012464 -2.6794e-17)
(0.00184841 0.0024321 2.16248e-18)
(0.00191001 0.00252073 6.89167e-18)
(-0.000265608 0.00263938 -5.55173e-18)
(-0.00930794 0.00146232 -1.08115e-17)
(-0.00100234 0.00355995 4.84845e-18)
(0.0292546 0.00144031 -9.48561e-18)
(0.000108755 0.00376784 -4.35936e-17)
(-0.000276089 4.49223e-05 -1.71123e-18)
(0.000105715 -0.000156773 4.28345e-19)
(-0.00369563 0.00256943 -1.79985e-18)
(0.0125967 -0.00671273 4.65395e-17)
(0.00132453 0.00109081 8.50593e-17)
(-0.001095 0.000442086 -2.32657e-18)
(0.0194026 -0.00333623 2.40384e-17)
(-0.000878992 0.00356441 -2.35687e-17)
(-0.00495506 0.00238611 -3.6237e-18)
(-0.0029301 -0.00312476 -1.2003e-18)
(0.0267096 -0.000716934 1.90697e-17)
(-0.0194767 0.000694551 2.88278e-17)
(-0.0164276 -0.00828347 -2.72616e-18)
(-0.00215545 0.00251256 -2.12997e-18)
(-0.00407959 0.00083854 2.46966e-18)
(0.0214562 0.00130269 -8.44114e-18)
(-0.000465241 0.00189539 -3.32626e-18)
(-0.0157567 0.00927479 -3.43146e-18)
(-0.00503937 -0.000507858 -1.58201e-18)
(-0.00848153 -0.000918902 -1.22502e-17)
(-0.00081311 0.0035959 2.86958e-17)
(-0.000259606 0.00121779 9.645e-18)
(-0.00114132 0.00109401 5.16649e-18)
(-0.0076819 0.00731864 3.70481e-17)
(-0.00554162 0.00666896 8.50529e-19)
(-0.0140293 0.00107121 -7.00263e-18)
(-0.0190073 -0.000121789 3.86634e-18)
(0.0212835 0.00120565 -8.2295e-19)
(-0.00176934 0.00245706 -1.48809e-17)
(0.030192 0.00082545 1.30171e-19)
(-0.00989487 -0.00298766 1.79867e-17)
(-0.000866762 -0.000462148 -1.26423e-20)
(0.0474608 -0.0176419 4.72303e-18)
(-0.0116978 -0.00161672 7.81826e-18)
(0.0207634 -7.96932e-05 3.65955e-17)
(-0.0036338 0.00246976 8.65079e-19)
(-0.0107971 -0.0102918 5.63448e-18)
(0.0223708 -0.00812214 2.12849e-18)
(0.00662472 0.0204716 -2.02598e-17)
(-0.00699004 0.00731621 3.43307e-17)
(0.0288646 0.00101511 -1.09082e-17)
(-0.00262265 0.000783919 5.71451e-19)
(0.0354748 -0.00601501 -7.23171e-18)
(0.00738962 -0.003859 -4.38978e-18)
(-0.00595222 0.000159229 -4.19158e-18)
(0.0281301 0.00117504 -7.18624e-18)
(-0.00631195 0.000491616 5.64073e-18)
(0.031142 0.00196763 -8.34707e-18)
(-0.00680476 -0.00263654 -2.04809e-18)
(-0.00641135 -0.00848718 1.63626e-18)
(-0.0130496 0.0032341 5.62454e-18)
(-0.00518535 0.00589357 -1.43881e-17)
(-0.000198477 0.00153322 -4.21294e-18)
(-0.00486762 -5.23686e-05 5.72309e-18)
(-0.00540311 0.0049796 -1.36841e-18)
(-0.00609016 -0.0054879 -2.20633e-18)
(-0.000985159 0.000788104 -6.61307e-18)
(-0.00877673 -0.00158246 1.9514e-17)
(0.0373316 -0.00662712 5.00859e-18)
(-0.000628092 0.00142457 5.98955e-18)
(-0.00869496 -0.00380794 5.83422e-18)
(0.00393691 -0.00619519 -1.21411e-17)
(-0.003706 0.000677834 -3.51434e-18)
(-0.00338801 0.00830267 1.06976e-17)
(-0.00807346 -0.00673405 1.15675e-19)
(0.0512636 -0.00109266 1.05021e-17)
(-0.00430545 0.0011156 1.45954e-18)
(-0.0102845 -0.00856002 -3.04833e-18)
(0.00481681 0.00761946 -6.12745e-19)
(-0.0189201 0.00608485 3.49123e-18)
(-0.00816196 0.000632043 1.01079e-17)
(0.0291981 0.00183887 4.76938e-18)
(0.0273209 -0.00161474 -7.55273e-18)
(-0.00227638 0.0126376 1.62155e-17)
(-0.000635959 0.00123634 -1.55833e-18)
(-0.00770757 0.00725722 -3.75484e-17)
(-0.00617271 0.000942167 1.19192e-17)
(-0.010702 -0.0098654 -1.36035e-17)
(-0.00126506 8.7467e-05 1.44767e-19)
(0.00446638 -0.00393819 -4.86225e-18)
(0.0407387 -0.00719942 -7.02368e-18)
(0.0127064 0.0204165 1.25212e-17)
(-0.00406226 0.000710327 -2.95788e-18)
(-0.0135544 0.00318234 -8.16173e-18)
(0.025231 -0.00493 -9.46937e-18)
(0.0001678 -0.00491457 -5.91952e-17)
(-0.000366409 -0.000570185 -4.96311e-19)
(0.00801047 -0.00431638 5.85339e-17)
(-0.00426781 0.00581272 1.08599e-17)
(0.0380874 -0.0127541 2.13972e-17)
(-0.00285984 0.00401694 6.54136e-20)
(0.0700201 0.0082466 1.77426e-17)
(-0.0003487 0.00147645 9.31859e-19)
(-4.69799e-05 1.44807e-05 -1.28625e-19)
(0.0274288 0.000451048 -1.09393e-17)
(0.0249706 -0.00431565 -6.04047e-18)
(-0.000164315 0.00123293 -5.59326e-18)
(-0.00402395 -0.000318972 4.64564e-18)
(-0.00884579 -0.00370808 9.29962e-19)
(-0.000505543 0.000147564 -2.95369e-19)
(0.0442847 -0.00825202 -8.41539e-19)
(-0.00950399 0.00135793 -6.51561e-18)
(-0.011592 -0.0014901 -5.19644e-18)
(-0.00451828 -0.0027068 -7.66035e-18)
(-0.00264868 0.000720725 -7.64226e-19)
(-0.000137621 0.0018705 -1.60554e-17)
(-0.00403821 0.0185587 3.80092e-18)
(-0.00108056 0.00112826 -5.79879e-18)
(-0.000119839 0.00183709 6.45497e-18)
(0.0224983 -0.00180117 -9.51626e-19)
(0.0389268 -0.00726898 -6.2591e-18)
(-0.00248599 0.00282269 -1.62475e-18)
(0.0171803 -0.00866508 6.67831e-18)
(-3.87822e-05 0.000824121 -1.47345e-18)
(-0.000119035 0.000326305 1.97646e-18)
(-0.00382417 0.000727702 2.59995e-18)
(-0.0142011 0.00147827 7.16126e-18)
(-0.00772662 -0.00748045 3.9608e-18)
(-0.00099968 0.000870752 -3.77235e-18)
(-0.00304638 0.000153695 -1.0863e-18)
(-0.0010493 0.00767458 -4.33321e-19)
(-0.00342378 -0.000888611 7.19312e-19)
(0.0543121 -0.0128727 -2.17715e-17)
(-0.000152494 0.000425693 2.38631e-18)
(-0.00467252 -0.00425862 2.30994e-18)
(0.0236943 0.00115342 -3.56639e-18)
(-0.000940815 0.00408005 -3.12214e-18)
(-0.000122251 -0.000110104 -1.48531e-19)
(-0.000100839 0.00042366 5.62216e-18)
(-0.00447986 -0.00258199 7.88542e-18)
(-0.00212441 -0.00129476 1.92223e-18)
(-0.000375914 0.0103728 5.93876e-18)
(0.0214492 -0.000855162 -1.80772e-18)
(-0.00676291 -0.000595045 -7.7732e-18)
(0.000916559 -0.00283439 -2.55352e-17)
(-0.00392155 0.000649283 -8.29738e-20)
(-0.00021571 0.000671476 -6.44855e-19)
(0.0258833 -0.00195406 -8.11376e-18)
(0.0220476 -0.00813613 -1.22088e-18)
(-0.000366758 0.0037123 -1.01873e-17)
(-0.000743901 0.00148198 -9.13881e-18)
(0.0265191 -0.00170727 -9.60087e-18)
(-0.000287912 0.00355613 1.30101e-17)
(0.00627475 0.00842902 -2.43156e-17)
(-0.00061764 0.00161139 -9.55339e-18)
(-0.00518682 0.00204538 3.40126e-18)
(-0.00725426 0.00753858 -3.05152e-17)
(-0.00682477 -0.00464209 3.50381e-18)
(0.0274128 -0.00221313 -2.84148e-17)
(0.0289332 -0.00538425 6.81184e-18)
(-0.0101948 0.0259269 -8.33867e-18)
(-0.00112107 0.00267625 1.71584e-19)
(-0.00954959 0.00342074 -1.38484e-18)
(-0.000701922 0.0012272 5.60411e-18)
(0.0242537 0.00130093 5.56225e-18)
(-0.00804539 -0.00653713 1.20836e-18)
(-0.012028 -0.00265466 -2.80524e-18)
(-0.00615841 0.000788371 -9.69505e-18)
(-0.00215675 0.00244259 5.84656e-19)
(-0.000986706 0.0040984 8.39572e-18)
(-0.00908845 0.00128759 1.6572e-17)
(-7.11734e-05 2.20629e-05 1.47276e-18)
(0.00197939 -0.00268416 -2.69347e-17)
(0.025756 -0.00184135 1.0503e-17)
(0.056177 -0.0150148 -3.92173e-18)
(0.00269795 -0.00223654 4.26661e-18)
(0.0219502 -0.00114302 1.01546e-17)
(0.0130114 -0.000741141 -1.18291e-17)
(-0.0172812 0.00796503 9.35592e-18)
(-0.000533788 0.00328091 -3.89365e-18)
(-1.90769e-05 0.000245604 -1.10403e-18)
(-0.00169732 0.00775189 4.21112e-18)
(-0.000139445 0.0011884 -5.16124e-18)
(-0.000948751 0.000778924 4.31887e-18)
(-0.000559323 0.0034617 -1.15253e-17)
(0.0206825 -0.00253725 -2.73378e-17)
(-0.00385904 -0.000995083 -3.74319e-18)
(-0.000656995 0.00222413 1.36769e-17)
(-0.001719 0.006625 2.061e-18)
(-0.00748536 0.00199731 -7.43223e-18)
(-5.80819e-05 0.00126152 3.91968e-18)
(0.072366 -0.0146338 -3.26746e-17)
(-0.000798179 0.000870822 -1.23254e-18)
(0.0284433 -0.00303317 -3.64739e-18)
(-0.000149584 0.0103944 1.09366e-17)
(-0.000575849 0.000790239 4.11223e-18)
(-0.00334875 -0.00181301 -2.75903e-18)
(-0.00344193 0.00784171 -2.44127e-17)
(0.0505701 -0.0171473 2.80519e-18)
(-0.000886341 1.48135e-05 5.79752e-20)
(0.0497988 -0.0132742 9.9587e-19)
(0.0131115 -0.000278727 1.19059e-18)
(-0.000611964 -0.0011091 9.68988e-19)
(0.0191622 0.00236464 8.78173e-17)
(-0.0129773 0.0121673 4.64285e-18)
(-0.0130647 -0.001931 7.86448e-18)
(-0.00107827 0.00265045 4.78088e-18)
(0.0232572 -0.00198819 -5.83179e-18)
(0.0263809 -6.52875e-05 3.32573e-17)
(-0.000672629 -0.00113192 -1.93285e-18)
(-0.00748222 0.000272357 1.04393e-17)
(-0.0015065 0.00128268 8.46574e-20)
(-0.000828077 0.000881092 1.03025e-17)
(0.0163394 -0.00298427 3.54509e-18)
(0.0311506 0.0022715 -1.04364e-17)
(-0.00681775 0.00129604 4.17787e-18)
(-0.00749557 -0.00761851 -3.26452e-18)
(-0.00011726 0.00120795 4.94094e-18)
(-0.009731 -0.00678478 -2.45726e-18)
(0.0290762 -0.00309796 1.3754e-18)
(0.0251135 -0.00456638 -5.53157e-18)
(-0.00108909 -0.00105177 -1.65058e-18)
(0.00597938 -0.00201002 8.28403e-18)
(-0.000976832 0.000846332 3.20086e-18)
(-0.0015635 0.00129099 -1.21147e-18)
(-0.00831178 0.000566666 -4.37985e-18)
(-0.00419828 -0.00510821 -4.58466e-18)
(-0.000343815 -0.000606632 4.87072e-19)
(-0.00200194 0.00240531 2.61604e-19)
(0.021643 0.00235134 -3.75434e-17)
(-0.00503176 0.00598988 -3.69891e-18)
(0.0186273 0.00209848 -6.75276e-17)
(-0.00369642 -0.000950875 4.32856e-19)
(-0.000277041 0.00119218 -9.26762e-18)
(0.0242783 0.000754589 -1.98365e-18)
(-3.7757e-05 0.000354594 2.46735e-18)
(-0.00920443 0.00717541 -6.06838e-18)
(-0.00503675 -0.0033437 3.13619e-18)
(-0.00621851 -0.00485633 1.03185e-17)
(-0.0065396 -0.000168237 1.41799e-17)
(0.0231301 0.000766535 -4.81868e-18)
(0.0252101 -0.000666033 6.85212e-18)
(-0.00467822 0.000206106 -2.5359e-18)
(0.0079521 -0.00408469 1.95742e-17)
(-0.00274764 -0.00264425 -9.77041e-20)
(-0.00873237 0.00229847 -5.01032e-18)
(0.0234089 0.00115951 1.67927e-17)
(0.02678 0.000571066 1.02038e-17)
(-0.00132948 0.00141768 -3.54581e-19)
(-0.00068178 0.00124211 -1.43396e-18)
(-1.14456e-05 0.00390556 -6.8468e-17)
(0.0205897 0.00196819 4.90076e-17)
(0.00951066 -0.0104647 -8.01275e-19)
(-0.00956553 -0.00693758 5.23433e-18)
(0.00957509 0.00816657 1.74384e-18)
(-0.00418804 -0.00526226 3.17682e-18)
(-0.00663159 -0.00282318 -2.74418e-18)
(0.0322831 -0.0182316 2.11031e-17)
(0.0750194 -0.00890864 1.11431e-17)
(-0.00106225 0.00722813 1.68588e-18)
(0.0276609 -0.00272642 -8.48625e-19)
(-0.012743 -0.00202258 -1.30696e-17)
(0.0215795 0.00105027 -6.87426e-18)
(-0.00241726 0.000792729 1.75538e-19)
(0.0238018 -0.00706095 -2.14178e-18)
(0.0609856 0.0105569 -2.00504e-19)
(-0.000168234 0.000624043 4.3286e-19)
(0.0149218 -0.00235203 -9.08423e-18)
(0.0479144 -0.00655394 1.82224e-17)
(-0.00246999 0.00364765 -3.73494e-18)
(-0.00881952 -0.00260752 -1.19813e-18)
(-0.000987083 0.00146365 -4.29566e-18)
(0.00423573 -0.000252993 2.73205e-17)
(-0.00414414 0.00611918 -5.34565e-18)
(0.0453136 -0.0189779 -7.09862e-17)
(-0.00107504 0.00116709 -3.2983e-18)
(-2.65927e-05 1.96114e-05 -1.12609e-19)
(-0.000356518 0.00304823 -1.5844e-17)
(-0.00732824 0.0020502 -1.09611e-17)
(-0.00014405 0.000407073 7.71497e-19)
(0.0192732 -0.00259248 2.45537e-17)
(-3.17814e-05 2.42514e-05 -5.69229e-19)
(-0.0135159 -0.00188691 1.32601e-17)
(-0.00098893 0.00268437 3.57147e-18)
(-0.0109891 -0.00967087 8.60893e-18)
(-0.000626091 0.00156538 5.38934e-18)
(-5.88944e-05 0.00129479 2.42745e-18)
(-0.0035551 0.00493384 -1.77214e-18)
(0.0063551 -0.00196901 3.81258e-17)
(-0.00798707 0.000978165 -4.72381e-18)
(0.0195673 -0.0037436 -1.99084e-17)
(-0.00514231 0.00219219 -1.09243e-17)
(-0.000535852 0.000178705 6.05136e-19)
(-0.0011193 -0.00043855 -1.13438e-18)
(-0.00887247 0.00163729 1.3092e-17)
(-0.00301256 0.000249569 7.68455e-19)
(-0.00892318 0.00374819 -4.2224e-18)
(-0.00417736 -0.000817431 2.75688e-20)
(-0.000355727 0.00364995 -1.46758e-17)
(0.0220052 -0.00768563 -3.05271e-18)
(-3.41272e-05 0.000364992 -1.18246e-18)
(0.0289083 0.00177156 -4.22193e-18)
(-4.66794e-06 5.99113e-05 3.61216e-18)
(-0.0129661 -0.0103818 8.0816e-18)
(0.00904311 -0.00361222 3.85768e-17)
(0.0242072 0.00142501 -3.00161e-18)
(-0.000150748 0.00318128 -4.49642e-17)
(0.0396954 -0.0131649 4.67131e-17)
(-0.00159721 0.00646219 -1.0869e-18)
(-0.00529162 0.0086291 -6.99943e-18)
(0.0452063 -0.0047454 8.97783e-18)
(-0.00129417 -0.00108254 -2.36881e-18)
(0.074855 -0.0129444 4.649e-17)
(-0.000936504 0.00361143 -3.33447e-18)
(-0.00611302 0.000233692 -2.42164e-18)
(0.00520672 -0.00170988 -3.95235e-17)
(-0.0140803 -0.0102958 6.98015e-18)
(-0.000917484 -0.000453331 9.46012e-19)
(-0.00880789 0.00377671 3.94872e-19)
(-0.00188502 -0.0011448 5.61429e-19)
(0.0223278 0.00120409 6.79121e-18)
(0.0149517 -0.00248967 -3.15732e-18)
(-0.00177105 0.0012523 -1.62093e-18)
(0.000365923 0.00353714 -4.93072e-18)
(0.0492914 -0.00722336 -2.20068e-17)
(-1.99673e-06 6.03083e-05 -2.03228e-18)
(-4.1659e-06 8.69288e-05 1.54321e-18)
(-0.0107424 -0.00884684 1.22257e-19)
(0.029305 0.00169427 -4.68712e-18)
(0.0251056 -0.00297846 -6.40096e-18)
(-0.000288535 0.00189588 3.1665e-18)
(-0.0122963 0.0039516 -3.73027e-18)
(-0.00329791 -0.000874977 3.11089e-19)
(-7.41628e-05 0.00135929 -7.10677e-18)
(0.0212554 -0.00779644 -1.9235e-17)
(-0.0128665 0.00395989 6.06617e-18)
(-0.00531071 0.00650637 -1.27404e-17)
(-0.000291688 -0.000491495 8.4698e-19)
(-0.013658 -0.00568736 1.48448e-17)
(-0.000445808 0.00449499 4.8298e-18)
(-0.00967066 -0.00871027 -2.87796e-18)
(-0.000274778 0.00227234 2.93021e-18)
(-0.00167554 0.00230036 5.68454e-18)
(-0.00400165 0.00602122 6.15995e-18)
(-0.000378119 0.00301266 1.44092e-17)
(-0.0143347 -0.0061592 -1.11161e-17)
(-0.00892314 -0.00113409 -1.51815e-17)
(-0.00888004 -0.000749485 -1.46932e-17)
(-0.00110239 0.00706344 -2.31381e-18)
(-0.00318581 0.0149169 2.09192e-17)
(-0.0100369 0.0122201 8.50327e-18)
(0.0297264 -0.000567285 -2.51727e-17)
(0.038721 -0.00709976 -6.58447e-18)
(-0.0156752 -0.00679932 -5.42039e-18)
(0.0256732 -0.000353781 5.44021e-18)
(-0.00204103 0.00463767 -8.55482e-18)
(0.0169009 -0.00240222 -6.76088e-18)
(-0.0130034 -0.00223185 -9.79944e-18)
(-0.00156055 8.74828e-05 -4.77496e-20)
(-0.00645938 -0.00276249 2.96864e-19)
(-0.0103657 0.0103979 -9.74083e-18)
(-0.00324043 0.0027218 3.33375e-19)
(-0.00052522 0.0007484 6.0129e-18)
(-0.000510457 0.000691063 3.92148e-19)
(-0.013043 -0.00969307 1.3285e-17)
(0.0292353 0.000888495 -3.51518e-17)
(-0.00485351 -0.00419332 4.74983e-18)
(0.0292544 0.00120235 1.12431e-17)
(-0.000544275 0.000195185 -1.22265e-18)
(0.0252526 -0.00238017 -5.5319e-18)
(-7.69485e-05 0.00658863 -1.53858e-18)
(0.0161321 -0.00117437 2.90581e-17)
(-0.00871069 0.0039368 -3.73575e-18)
(-0.00441933 0.00109774 -3.46245e-18)
(-0.00397975 -0.000644662 5.67184e-19)
(0.0158943 -0.00108151 -1.94781e-18)
(-0.00526888 0.00647796 -2.20591e-17)
(-0.00209104 0.00453091 -1.91719e-18)
(0.0301855 -0.00499514 1.00634e-17)
(-0.00256773 0.000646975 -7.62546e-19)
(0.000944126 0.00658406 1.33744e-17)
(-0.013179 -0.00996186 -2.18729e-17)
(-0.0129713 -0.00185588 -9.48224e-18)
(-0.00578243 0.00138614 8.86291e-18)
(-0.00177084 0.00571295 1.76279e-18)
(-0.000360565 0.00145629 -3.28332e-18)
(-7.19914e-06 7.2736e-05 -2.01571e-19)
(-0.000254966 0.00255808 8.37425e-18)
(-9.17893e-05 0.00138883 1.32649e-18)
(0.0237451 0.0012189 8.44197e-18)
(-0.000155438 2.76466e-05 -7.35853e-19)
(0.019969 -0.00858728 1.89016e-17)
(0.0240861 0.000699697 4.66491e-18)
(-0.00877301 0.00404179 -1.65142e-17)
(0.0249622 -0.00507138 6.24845e-18)
(0.0217256 -0.000349812 2.68562e-18)
(-0.0126125 -0.00159338 -1.86879e-18)
(-0.00586804 0.00865555 1.07328e-17)
(-0.000186818 0.00317625 6.78348e-18)
(-5.37029e-06 0.000430004 -1.21267e-18)
(-0.000310637 0.00161873 5.3722e-18)
(-0.000562036 -0.000177751 2.22145e-19)
(-0.00110084 -0.000403382 7.28354e-19)
(-3.87632e-05 2.28019e-05 -1.83856e-18)
(-0.00902317 0.00203606 3.16545e-18)
(-0.00880249 0.00360325 -1.12572e-17)
(-0.000389617 0.00458146 -1.19291e-17)
(0.0587615 -0.0103312 2.94391e-17)
(-0.00206395 0.00203481 -1.55365e-18)
(0.0242728 0.000884531 9.82811e-18)
(5.41818e-07 1.3301e-05 9.43217e-19)
(0.00658042 -0.0079867 4.87854e-17)
(-0.00521986 0.00357927 -8.69393e-18)
(8.22981e-07 3.35458e-05 -1.18593e-18)
(-1.95649e-05 0.000680111 -2.88748e-19)
(0.0242441 0.00146566 2.02526e-17)
(-0.00461012 0.000738859 2.87964e-18)
(0.0347222 -0.00183116 -3.02327e-18)
(0.0472835 -0.00397611 -2.74444e-17)
(-0.00852057 -0.00285212 -3.86358e-18)
(-0.0104451 -0.00123712 -3.56401e-17)
(-0.000505108 -0.00115475 1.94167e-19)
(0.0288763 -0.00346095 8.22272e-18)
(-0.00134618 0.00282371 4.84551e-18)
(-0.00394253 -0.000889099 2.07895e-18)
(0.0222293 -0.00748285 8.00358e-19)
(-8.51297e-06 0.000426087 -1.15518e-18)
(-0.000725222 0.00221119 -8.09048e-18)
(-0.00140019 -0.000604274 1.27725e-18)
(-0.008177 -0.00605179 1.60786e-17)
(0.028685 0.000977212 1.06658e-17)
(-0.00482409 0.00189731 -3.44743e-20)
(-0.00597017 0.00113673 2.16146e-18)
(-0.00446505 0.00536889 -1.54297e-17)
(0.0235238 -0.00389588 -1.94473e-18)
(-0.00032968 0.00328197 2.81134e-17)
(-0.00154807 0.00325548 5.58483e-18)
(0.0225573 0.00102198 3.02762e-18)
(-0.000535785 -0.000172583 8.36172e-20)
(0.0225885 0.00108606 -4.44152e-18)
(-1.45228e-05 4.74758e-05 -3.58665e-18)
(-0.00345045 -0.00103042 2.87092e-18)
(0.0257089 -0.0123786 3.46637e-18)
(-0.0115291 -0.00452554 -1.34426e-17)
(-0.0123421 -0.00284389 -9.71024e-18)
(-0.00674597 0.00577655 -9.38038e-19)
(-0.00815811 0.000901687 -9.62659e-18)
(-5.35078e-06 0.000214061 -1.65832e-18)
(9.05881e-07 1.27645e-05 2.82261e-18)
(-0.00888274 0.00243422 8.27745e-18)
(-0.00248636 0.000769174 7.71027e-20)
(-3.54523e-06 0.000176168 -2.13227e-18)
(-0.00476983 -0.00486482 4.13786e-18)
(-0.00650901 0.00644755 -2.7922e-17)