/*--------------------------------*- C++ -*----------------------------------*\
| =========                 |                                                 |
| \\      /  F ield         | OpenFOAM: The Open Source CFD Toolbox           |
|  \\    /   O peration     | Version:  v2012                                 |
|   \\  /    A nd           | Website:  www.openfoam.com                      |
|    \\/     M anipulation  |                                                 |
\*---------------------------------------------------------------------------*/
FoamFile
{
    version     2.0;
    format      ascii;
    class       surfaceVectorField;
    location    "500";
    object      ddtCorrDdt0(Uf);
}
// * * * * * * * * * * * * * * * * * * * * * * * * * * * * * * * * * * * * * //

dimensions      [0 1 -2 0 0 0 0];


internalField   nonuniform List<vector> 
20580
(
(0.0131629 -0.000252044 1.48529e-18)
(0.0135745 -0.000224196 1.60057e-17)
(0.0131731 6.52991e-05 -1.24965e-17)
(0.00280066 -0.000902487 -5.38731e-18)
(0.0027998 -0.000955699 1.18665e-18)
(0.00288189 -0.000930235 -9.21188e-20)
(0.00279912 -0.000829504 1.74749e-17)
(0.00271493 -0.000862107 7.20435e-18)
(0.000635319 0.000869841 2.3779e-19)
(8.2561e-05 0.000924387 9.51403e-17)
(0.000604783 0.000900795 7.10517e-17)
(5.73091e-05 -1.45926e-05 -2.79781e-19)
(5.13748e-05 -1.34541e-05 9.35692e-19)
(5.33589e-05 -8.00334e-06 -3.98021e-19)
(0.00301577 -0.00161093 1.08429e-17)
(0.00295991 -0.00168414 2.1472e-19)
(0.00290647 -0.00159369 -2.42571e-18)
(0.00241946 0.00117749 3.93012e-18)
(0.00244699 0.00125145 7.1698e-18)
(0.000359563 -2.02484e-05 -4.55056e-20)
(0.000352733 -2.09675e-05 -7.87621e-20)
(0.000345648 -1.34082e-05 -1.15992e-18)
(-0.0428095 -0.0045463 1.02336e-17)
(-0.0432147 -0.00431448 4.50313e-18)
(-0.0421346 -0.00407357 -6.47282e-18)
(5.44283e-05 -0.000665699 3.06363e-18)
(4.96811e-05 -0.000646971 1.00391e-18)
(5.47663e-05 -0.000639762 1.67248e-18)
(0.00298941 -0.00500783 -1.32156e-17)
(0.00292755 -0.00483893 -2.57228e-18)
(0.00284162 -0.00490732 -2.40992e-17)
(7.75156e-05 -0.000269754 7.25711e-20)
(8.41815e-05 -0.000278527 -1.21736e-19)
(8.29227e-05 -0.00028444 -5.93912e-20)
(0.000137241 -0.00103678 -1.80102e-18)
(0.000144867 -0.00105247 -3.7041e-18)
(0.000146174 -0.001027 -9.65483e-19)
(-0.0356231 -0.00403538 -2.88561e-17)
(-0.0356982 -0.00376164 -9.68638e-18)
(-0.0349617 -0.00418872 -4.13456e-18)
(0.00576615 0.000220565 3.70021e-18)
(0.00587642 0.000181345 6.47375e-18)
(0.00574927 0.000104316 3.86074e-18)
(0.00596016 0.00896657 1.33846e-18)
(0.00569798 0.00891378 3.8377e-19)
(0.00572481 0.00923895 -2.80052e-18)
(0.00370494 0.000431705 -1.67767e-17)
(0.00452201 0.0004474 8.06687e-17)
(0.00406755 0.000363234 -8.15626e-17)
(0.00121268 -0.000498985 5.2813e-18)
(0.00124776 -0.000499984 2.44016e-18)
(0.00123755 -0.000530566 -5.19443e-18)
(0.00977167 -0.00837744 -1.34394e-17)
(0.00819691 -0.00881037 -1.98574e-17)
(-0.0121666 -0.00957487 -5.43475e-17)
(0.0131331 -0.000709021 -7.73534e-18)
(0.0127301 -0.0003225 -3.02699e-17)
(0.00636257 -0.000845604 1.37243e-17)
(0.00619363 -0.000898443 3.46683e-17)
(0.00621197 -0.000721876 1.06248e-17)
(0.00124279 -0.00228892 1.42902e-17)
(0.00119115 -0.00226023 3.26282e-18)
(0.00123293 -0.00222422 1.50233e-17)
(-0.0122629 0.00479027 8.34338e-17)
(-0.0109314 0.00397962 4.18181e-17)
(-0.00948709 0.00325344 2.77262e-17)
(1.4096e-06 -4.99247e-06 4.68692e-20)
(2.29327e-06 -6.62711e-06 1.26124e-18)
(1.40086e-06 -4.19124e-06 7.27137e-19)
(-0.0408097 -0.00362743 -1.11035e-17)
(-0.0405629 -0.00334566 -4.87457e-17)
(-0.0394094 -0.00355007 -9.43475e-17)
(0.00568547 0.00531192 1.68687e-17)
(0.00565553 0.00547903 5.85452e-18)
(0.00583852 0.00541586 -6.67537e-19)
(0.0216921 0.0126833 1.03268e-17)
(0.0246843 0.0130154 1.45006e-17)
(0.0238183 0.0135284 -3.83322e-18)
(-0.0515079 -0.0139454 -1.27063e-17)
(-0.0516333 -0.0139787 -1.40106e-17)
(-0.051387 -0.0139254 -2.61962e-17)
(-0.0450615 -0.000767742 -8.35269e-19)
(-0.0442785 -0.000920378 3.12483e-18)
(-0.0443751 -0.00105798 -4.88592e-18)
(0.000661184 -0.000297227 -2.16856e-18)
(0.000652433 -0.000311199 -8.48536e-19)
(0.000638209 -0.000291949 9.86766e-19)
(-0.00178078 0.000698555 -7.22011e-17)
(-0.00111865 0.000685294 3.43833e-17)
(-0.00218751 0.000630616 1.84408e-17)
(0.00247419 0.00114887 -7.27504e-18)
(0.00238616 0.00112415 1.31829e-17)
(0.0131767 0.00124778 2.19208e-18)
(0.0130998 0.00165528 -1.83516e-17)
(0.0127329 0.00124311 -4.69727e-18)
(-0.0401885 -0.00987605 -1.86258e-19)
(-0.0392596 -0.00996342 -5.64942e-18)
(-0.042381 -0.0107377 -9.4132e-18)
(0.00293702 -0.00380495 -6.71502e-18)
(0.00307363 -0.00383174 -7.38767e-18)
(0.00294986 -0.00394381 1.38987e-17)
(-0.0434119 -0.000307855 2.51188e-18)
(-0.0440281 -8.8602e-06 -1.17866e-18)
(-0.0431598 -0.000140653 5.67136e-18)
(4.54545e-07 -3.2255e-06 4.48853e-20)
(1.38391e-06 -5.97411e-06 -1.02742e-18)
(-0.0349005 0.0008574 4.6103e-18)
(-0.032427 0.000836731 7.83617e-18)
(-0.0324684 0.000826876 2.05499e-17)
(-0.00534662 -0.00106701 8.90092e-19)
(-0.00586834 -0.00119188 1.36508e-17)
(-0.00689991 -0.00130745 4.33454e-19)
(0.000560099 -0.00109229 1.02277e-18)
(0.000563845 -0.00106853 5.80643e-20)
(0.000582909 -0.00109827 1.33546e-18)
(-0.0233155 -0.00775046 1.46098e-17)
(-0.0254085 -0.00844114 6.69401e-18)
(-0.0242231 -0.00798045 -3.34042e-17)
(-0.0458266 -0.000616741 -2.87281e-18)
(-0.0456468 -0.000384461 -1.13083e-18)
(0.00384608 0.000579068 5.20097e-18)
(0.00391869 0.000592349 7.68085e-18)
(-0.00177342 -0.00391046 -5.00785e-18)
(-0.00113284 -0.00385253 3.20941e-17)
(-0.00148201 -0.00394218 2.65602e-18)
(-0.0482861 -0.00111611 -2.72028e-19)
(-0.0483752 -0.00143875 6.69906e-20)
(-0.0471779 -0.00148353 1.09596e-17)
(0.000579057 -0.00064365 -9.98359e-21)
(0.000560536 -0.000647231 4.3988e-19)
(0.000559365 -0.000622005 -1.89246e-19)
(0.00041385 2.49926e-05 1.1078e-17)
(0.000410115 1.98533e-05 2.42725e-18)
(0.00863108 0.00835385 1.015e-17)
(0.00842111 0.0086908 7.26764e-19)
(0.00837699 0.00833131 -9.03018e-18)
(0.0015402 -0.00168993 4.2397e-19)
(0.00150007 -0.00163158 -7.71408e-18)
(0.00156923 -0.00164509 2.04409e-18)
(0.000130656 -0.00101729 -1.10912e-18)
(0.000127002 -0.00104124 -3.84809e-19)
(-0.000234516 -0.000682845 -3.10927e-17)
(-0.000437864 -0.000691104 -8.49058e-17)
(0.00117399 -0.000418655 -3.85478e-17)
(7.11006e-05 -0.00110815 -5.32003e-18)
(7.19299e-05 -0.00108646 -4.77124e-18)
(8.24546e-05 -0.00111158 3.29038e-18)
(0.00618513 0.00901878 4.56048e-19)
(0.00612721 0.0087627 6.71636e-18)
(0.00382942 0.00207967 1.3438e-17)
(0.00394105 0.00213577 2.60703e-19)
(0.00383331 0.00220266 1.83683e-17)
(-0.0399738 -0.00224559 -1.5818e-18)
(-0.0395933 -0.00248637 1.0567e-17)
(-0.0397964 -0.00256448 1.63872e-17)
(0.00055913 -0.00111353 -4.48111e-19)
(0.000540278 -0.00108685 -2.04694e-19)
(0.0136158 0.00126164 6.55814e-18)
(0.013206 0.000888265 3.09635e-17)
(-0.0223108 -0.00736767 -5.3866e-18)
(-0.0215505 -0.00687422 6.37722e-18)
(0.0142224 0.0142591 -6.73328e-18)
(0.0165799 0.015247 -2.97343e-18)
(0.0184869 0.0154806 -2.95285e-18)
(-0.0214847 -0.00274313 5.25433e-18)
(-0.022165 -0.0029126 -9.76318e-18)
(-0.0215569 -0.00333688 3.47655e-17)
(7.12543e-05 -0.00026076 1.09724e-19)
(7.25008e-05 -0.000255451 4.0162e-19)
(0.017209 0.0113188 3.39912e-18)
(0.0191128 0.0113528 -6.34987e-18)
(9.9848e-06 -0.000416216 1.76535e-18)
(1.32743e-05 -0.000416176 -2.28344e-18)
(1.25031e-05 -0.000439303 -5.38054e-19)
(0.00151103 -0.00172642 -1.16107e-18)
(0.00157348 -0.00172007 2.31331e-18)
(-0.000960496 -0.0026702 -2.91029e-18)
(-0.000948485 -0.0027806 2.73179e-18)
(-0.000864369 -0.00271555 -1.72729e-18)
(-0.000953339 -0.00257997 -6.78582e-19)
(-0.00104937 -0.00263744 -2.90714e-18)
(-0.0207663 -0.0025321 -3.87967e-19)
(-0.0202054 -0.00230172 -3.29178e-17)
(-0.000140815 -0.00203615 -1.76776e-17)
(-0.00014957 -0.00203911 -1.17618e-17)
(0.00088239 -0.00110635 1.93878e-18)
(0.000854746 -0.00111106 2.4636e-18)
(0.00085679 -0.00107844 5.69333e-19)
(-0.000729789 0.000927872 -1.5814e-18)
(-1.02952e-05 0.000862176 1.75933e-17)
(-0.000296663 0.000889818 1.82806e-17)
(-0.000339388 0.000416442 -2.30267e-17)
(0.000429776 0.00040193 -1.76605e-17)
(-0.000313092 0.000418179 3.51842e-18)
(0.0070729 -0.00111422 9.65125e-18)
(0.00701845 -0.00128516 -1.60883e-18)
(0.00726969 -0.00125855 7.91879e-18)
(0.000278718 -0.00092821 1.46081e-18)
(0.000268229 -0.000932496 2.46355e-19)
(0.00028412 -0.000951413 1.319e-18)
(-0.022779 -0.00300861 2.20104e-18)
(-0.022184 -0.00242644 5.30094e-18)
(0.00452483 0.00187318 -3.42968e-19)
(0.00445593 0.00175702 7.27199e-18)
(0.00459765 0.00177281 4.51348e-18)
(0.000981604 -0.00186349 -2.03805e-18)
(0.000932261 -0.00182771 8.2167e-19)
(0.00097742 -0.00180064 -2.99429e-18)
(0.00319208 0.000447164 -2.12269e-17)
(0.00273848 0.000399952 -3.83682e-17)
(0.000610163 -0.000102665 9.43212e-19)
(0.000609993 -0.000115088 -1.10997e-18)
(0.000631855 -0.000108867 1.07799e-18)
(-0.040945 -0.00393927 1.05362e-16)
(-0.042972 -0.003549 5.94774e-17)
(0.000295648 -0.000565843 -1.13532e-18)
(0.000281916 -0.0005474 -3.93548e-19)
(0.00028049 -0.000562494 -6.48942e-19)
(0.000915407 -0.00110836 1.28614e-18)
(0.000904201 -0.00114397 -7.42232e-20)
(0.00440695 -0.00871425 -4.48708e-18)
(0.00397217 -0.00881003 2.81359e-17)
(0.000149679 -0.00868305 -3.32283e-18)
(0.00288725 -0.00376625 -1.33589e-17)
(0.00287648 -0.00381574 -2.13104e-17)
(-0.0338682 -0.00392705 1.81289e-18)
(-0.0342216 -0.00403142 -6.02921e-18)
(-0.0334675 -0.00429302 -2.53753e-17)
(-0.0234107 -0.00296861 -1.70417e-17)
(-0.0229779 -0.003504 6.78051e-17)
(-0.000764212 0.000591059 4.137e-17)
(-0.000966033 0.000564779 -5.20058e-17)
(-0.0017346 0.000613216 -6.63312e-18)
(0.00126044 -0.00235247 -3.684e-18)
(0.00130216 -0.00230957 -4.88418e-18)
(-0.0410113 -0.00229393 -1.17327e-17)
(-0.0404128 -0.00235455 1.1138e-18)
(-0.0413422 -0.00213531 1.38616e-18)
(9.31904e-05 -0.000702529 -2.8403e-19)
(9.86483e-05 -0.000696254 -2.00651e-18)
(8.91078e-05 -0.000677948 -3.64268e-18)
(-0.00216339 0.000745535 -1.85601e-17)
(-0.0012628 0.000708865 -4.85243e-17)
(6.44439e-05 -0.00113522 -3.49936e-18)
(5.68078e-05 -0.00110284 2.77286e-18)
(0.00253195 0.00111828 -9.11654e-18)
(0.00255464 0.00118585 8.44413e-19)
(0.00322468 -2.13482e-06 3.13735e-17)
(0.00317742 3.31085e-05 -8.34047e-17)
(-0.000508824 0.000623031 7.91739e-17)
(0.000107214 0.000596084 -2.24447e-17)
(-0.00628721 -0.00213225 1.38227e-17)
(-0.00558062 -0.00184688 6.33982e-18)
(-0.00505379 -0.00176717 4.46898e-17)
(-0.00119387 -0.00389601 -2.25299e-17)
(-0.000956287 -0.00392109 -1.14313e-17)
(-0.00104937 -0.00381173 -3.02928e-17)
(0.000473691 -0.000700829 2.58732e-18)
(0.000458303 -0.000703553 -2.38278e-18)
(0.000482473 -0.000723474 1.50704e-18)
(0.00728552 0.00911447 -3.25764e-18)
(0.00697991 0.00912635 6.6433e-18)
(0.0072206 0.00885908 -6.59758e-18)
(-0.00556907 -0.0014735 3.5107e-17)
(-0.00587214 -0.00146906 3.04469e-17)
(-0.00452229 -0.00105767 -2.60391e-17)
(0.000847931 -0.0057343 3.08231e-17)
(0.000786842 -0.00578878 -2.92929e-18)
(0.000674906 -0.00585126 -1.04837e-17)
(0.00759456 0.00915655 4.68993e-18)
(0.00743486 0.00944717 -1.01679e-18)
(-9.47678e-05 -0.00211512 -1.18335e-17)
(-8.20883e-05 -0.00209201 -4.84518e-18)
(-8.11695e-05 -0.00210375 -4.64151e-18)
(-8.61314e-05 -0.00221135 5.90198e-18)
(-9.50906e-05 -0.0021603 -9.53698e-19)
(-0.000141035 -0.00219592 -6.9537e-18)
(0.000255821 -0.00102173 -2.0851e-18)
(0.000266794 -0.00101458 2.31569e-19)
(0.000273305 -0.00104507 -5.56964e-19)
(0.000652715 -0.000618237 -3.24402e-18)
(0.000674233 -0.000639129 1.83966e-20)
(0.000668094 -0.00061335 1.86394e-18)
(0.00631378 -0.00227676 2.53115e-18)
(0.00623458 -0.00239542 -7.41705e-18)
(0.00644588 -0.00237935 -1.56574e-17)
(0.000629129 -0.000595242 9.80436e-19)
(0.000631368 -0.00062433 -2.41157e-18)
(-0.000385376 0.000445688 6.0908e-17)
(-0.00118494 0.000473638 -6.10416e-17)
(0.00249165 0.00105163 -4.88828e-19)
(0.0025888 0.00107807 1.07366e-17)
(0.00117952 -0.000500827 6.33185e-18)
(0.00118775 -0.00047227 -1.23044e-18)
(0.000837912 -0.00260551 6.86966e-18)
(0.000880607 -0.00269354 -2.46569e-18)
(0.000812235 -0.00263046 2.86697e-18)
(0.000599276 -0.000643178 -1.59905e-18)
(0.000604939 -0.000668829 4.59698e-18)
(0.00581026 -0.00768557 2.38556e-18)
(0.00607094 -0.00782543 -1.88818e-17)
(0.0056594 -0.0079763 2.89508e-17)
(0.00484798 -0.00475679 2.87869e-17)
(0.00486543 -0.00461177 3.69252e-17)
(0.00471532 -0.00465852 2.52975e-17)
(0.0124807 0.00390719 -1.68101e-18)
(0.012348 0.00422578 1.91367e-17)
(0.0127772 0.00417193 -3.30042e-17)
(0.00372361 0.00202181 -7.25375e-18)
(0.00381717 0.00195995 5.54168e-18)
(0.000425134 -0.000199243 1.42514e-18)
(0.000421735 -0.000206912 5.98002e-19)
(0.000438611 -0.000207229 -2.56613e-19)
(0.000368072 -1.76511e-05 3.83349e-18)
(0.00036577 -2.64404e-05 1.38487e-18)
(0.00119991 0.000808803 7.09015e-17)
(0.000728068 0.000898402 -5.68769e-17)
(-0.0013073 0.000945337 -5.97478e-17)
(-0.00160914 0.000984553 1.75764e-18)
(-0.000596737 -0.00412424 -1.5982e-17)
(-0.000674435 -0.00403465 -4.62939e-17)
(-0.000598502 -0.00422122 2.62121e-17)
(0.000982974 -0.000405153 -1.25401e-18)
(0.000945326 -0.000405397 -4.12433e-18)
(0.0009547 -0.000382653 -3.47583e-19)
(0.000750485 -0.0011047 2.54852e-18)
(0.000777061 -0.00112089 -2.4471e-18)
(0.000759654 -0.00113886 -1.25152e-19)
(-0.0263851 -0.00525231 -3.04794e-18)
(-0.0269194 -0.00569666 2.36139e-17)
(-0.0258289 -0.00524942 4.26652e-17)
(0.014443 -0.00549528 6.05599e-18)
(0.0156644 -0.0046213 2.97621e-17)
(0.0191704 -0.00518897 3.74217e-17)
(-0.000226624 -0.00198534 -1.68761e-17)
(-0.000226376 -0.00202602 -1.71996e-17)
(-0.000267129 -0.00200104 -2.45289e-17)
(0.000492596 -0.000700463 4.82826e-18)
(0.00046569 -0.0006783 1.0498e-18)
(0.00151029 -0.00436044 -2.06086e-17)
(0.00160536 -0.00431504 1.16786e-17)
(0.00149478 -0.00425135 -9.22847e-18)
(-0.0312964 -0.00849061 -1.56002e-17)
(-0.0295084 -0.00783857 -5.70636e-18)
(-0.0304964 -0.00836994 2.10827e-18)
(0.00696638 3.94158e-05 -2.55169e-17)
(0.00712281 3.94503e-05 -4.98812e-17)
(0.00696209 -0.000123296 -1.64473e-17)
(0.00114393 -0.0022298 1.88857e-18)
(0.0011536 -0.00229051 -7.51665e-18)
(0.00281426 -0.00280294 1.47288e-17)
(0.00293471 -0.00277605 1.95274e-17)
(0.00281977 -0.00270503 -1.01584e-17)
(-0.0375439 0.00111527 -3.04796e-17)
(-0.0374071 0.000951224 -1.5867e-17)
(-0.0414313 -0.00989497 -2.55738e-18)
(-0.0387408 -0.00929992 2.00328e-17)
(0.0029926 -0.00510165 -2.61825e-17)
(0.00308096 -0.00502774 1.22778e-17)
(-0.0056245 -0.00170218 9.77982e-18)
(-0.00469707 -0.00161054 1.7054e-17)
(-0.00424482 -0.00149586 -9.83851e-18)
(-0.000137055 -0.00205168 2.76016e-18)
(-0.00104607 0.000533233 1.39586e-17)
(-0.000276631 0.000527229 -3.62608e-17)
(-1.20228e-05 -0.00204644 4.01308e-18)
(-2.99586e-05 -0.00204617 -3.43557e-18)
(-1.80904e-05 -0.0020238 2.7253e-18)
(0.00693251 0.000458753 -1.33012e-18)
(0.00675974 0.000527661 4.48153e-18)
(0.00695066 0.000669237 2.55928e-17)
(0.0040618 -0.00858298 -1.68188e-17)
(0.00450104 -0.00840798 1.82331e-17)
(0.000301446 -0.00143412 -2.73867e-18)
(0.000290336 -0.00140748 4.62338e-19)
(0.000308331 -0.00140376 1.7674e-18)
(8.95401e-05 -0.000709434 -2.60692e-18)
(9.85257e-05 -0.0007269 1.58527e-18)
(-0.000454666 -0.00225983 -2.68739e-17)
(-0.000496829 -0.00223081 -6.49344e-18)
(-0.000490966 -0.00229258 1.02404e-17)
(-0.0436361 -0.00761934 2.66151e-17)
(-0.0426032 -0.00701332 -1.81476e-17)
(-0.043076 -0.00749536 9.42763e-18)
(0.000775254 -0.0017446 -1.31815e-18)
(0.000775854 -0.00177922 -1.56609e-18)
(0.000743169 -0.00175424 6.8737e-19)
(0.000609614 -9.00398e-05 1.50988e-18)
(0.000589777 -9.76005e-05 3.55626e-18)
(-0.00020864 0.000642783 -2.0064e-18)
(-0.0432482 -0.00303635 7.64825e-18)
(-0.0434794 -0.00308429 5.04432e-18)
(-0.0424967 -0.00305303 -3.32536e-18)
(0.00144103 -0.0044091 -1.52307e-18)
(0.00155517 -0.00445074 -2.00478e-17)
(0.0078889 0.00894248 4.6439e-18)
(0.00779151 0.0092658 -1.22671e-18)
(0.00553996 -0.00757223 6.18932e-18)
(0.00582354 -0.00744613 -5.46214e-19)
(0.00481848 -0.00489724 -3.53278e-19)
(0.00497643 -0.00486114 1.46455e-17)
(0.0157701 -0.00666372 -1.39709e-17)
(0.0158577 -0.00682992 3.31228e-17)
(0.0132255 -0.00689859 -7.06466e-17)
(0.00013459 -0.00118293 7.66853e-19)
(0.000145995 -0.00118724 -1.26192e-18)
(0.000141351 -0.00121132 4.09659e-18)
(6.28942e-05 -0.000875802 1.14093e-18)
(5.55736e-05 -0.000882396 -7.06405e-19)
(5.50033e-05 -0.000857358 3.82997e-18)
(6.3693e-05 -0.000209389 -7.59042e-20)
(6.32702e-05 -0.000215557 -4.33139e-19)
(5.68054e-05 -0.000200137 -3.98061e-19)
(-0.00517814 -0.000926792 2.68141e-17)
(-0.00422992 -0.000857412 3.53605e-17)
(0.00652717 0.000295036 -9.81465e-18)
(0.00659656 0.000439389 -1.05861e-17)
(0.0064364 0.000419836 -4.52453e-18)
(0.00257794 0.000481004 -3.71001e-18)
(0.00262161 0.000517623 3.16111e-18)
(0.0026484 0.00046077 2.59398e-18)
(3.05551e-06 -1.22612e-05 -2.77847e-19)
(3.19354e-06 -1.07148e-05 -2.24478e-19)
(4.78258e-06 -1.4698e-05 1.96682e-19)
(-0.0439198 -0.000592704 -1.60885e-18)
(-0.0441501 -0.00077379 8.04243e-18)
(-0.0446447 -0.000380384 1.06129e-17)
(0.00648239 -0.00209148 -1.68697e-17)
(0.00617066 -0.00210683 1.44934e-17)
(0.00864739 0.00800557 1.63534e-17)
(0.00901823 0.00834294 -1.27145e-17)
(-0.0356297 -0.00416695 1.95438e-17)
(-0.0362219 -0.00374029 2.22942e-19)
(-0.0474121 -0.00418572 4.1075e-18)
(-0.0463515 -0.00402891 1.18967e-17)
(-0.0476709 -0.00410059 3.07311e-18)
(-0.0467379 -0.00431217 -1.72323e-18)
(-0.0489286 -0.00457136 -7.80496e-18)
(5.20089e-05 -0.000640608 1.09774e-17)
(-0.000966527 -0.000877813 4.99189e-20)
(0.000837142 -0.00261585 -3.64555e-18)
(0.000825193 -0.00255952 -2.9062e-19)
(-0.0449416 -0.0110019 -1.8032e-17)
(-0.0451002 -0.0108346 -2.8893e-17)
(-0.0419213 -0.0103577 -5.13183e-18)
(6.51724e-05 -0.000252179 -6.18942e-20)
(5.96108e-05 -0.00024333 3.14588e-20)
(5.99932e-05 -0.00023752 4.65186e-20)
(0.00043034 -0.000190077 -3.50381e-18)
(0.000411982 -0.000188691 -5.97336e-18)
(0.00668625 -0.00326878 -2.01613e-17)
(0.00656948 -0.00342277 1.70819e-18)
(0.00651537 -0.003232 3.41129e-17)
(3.07749e-05 -1.03838e-05 3.54554e-19)
(2.77986e-05 -1.32959e-05 1.95254e-18)
(2.58633e-05 -8.69578e-06 3.09923e-19)
(-0.00683602 -0.00234571 3.18642e-18)
(-0.00765966 -0.00237109 -4.4883e-18)
(0.02143 0.00518683 -7.29599e-18)
(0.0262386 0.00770163 -1.23047e-17)
(0.0243436 0.00666236 6.69824e-18)
(0.00988664 0.0086404 1.81968e-18)
(0.0102834 0.00848044 1.02944e-17)
(0.0106148 0.00900891 6.53668e-18)
(0.000435994 -0.000182611 3.04176e-19)
(0.00044792 -0.000191777 -2.13747e-18)
(0.0043685 0.00204894 4.27054e-18)
(0.00445233 0.00195602 -5.18711e-18)
(0.0043038 0.001938 -3.9556e-18)
(0.00953216 0.0087974 -1.34067e-17)
(0.00981295 0.00835209 1.0794e-17)
(0.0142843 -0.00513592 -7.32558e-19)
(0.0122885 -0.00547362 -1.62289e-17)
(-0.00136369 -0.00359992 -1.07197e-17)
(0.000980827 -0.00251406 -1.37711e-17)
(0.00105183 -0.00257103 -6.53281e-18)
(0.000951425 -0.00262533 -7.36258e-19)
(0.00694503 0.000272316 9.59938e-18)
(0.00675651 9.18934e-05 2.36426e-17)
(0.0044222 0.000499006 7.07584e-17)
(0.00436041 0.000474917 1.58793e-17)
(-0.0437148 -0.00300562 -1.90357e-17)
(-0.0430202 -0.00288528 1.74921e-19)
(0.0129597 0.00197741 6.28341e-18)
(0.0134337 0.00198144 -1.4853e-17)
(6.15267e-05 -0.00192333 1.72091e-19)
(5.05234e-05 -0.00191691 -1.81359e-18)
(5.42063e-05 -0.0019393 1.60548e-17)
(0.000168899 -0.00115002 6.78858e-19)
(0.000155921 -0.00114509 -7.15491e-18)
(0.000161064 -0.00112327 -6.37543e-18)
(0.000626081 -0.000433558 3.19304e-18)
(0.000632913 -0.000453586 -6.0009e-19)
(0.000653044 -0.000441741 -2.92754e-18)
(-0.044912 -0.00759165 8.90769e-18)
(-0.0451499 -0.00820018 -1.83973e-17)
(0.00656474 0.000148643 2.44213e-18)
(0.00634904 0.000175267 1.09475e-17)
(-0.0351265 -0.00359693 -7.55315e-18)
(-0.0358758 -0.00325848 1.14487e-17)
(0.00304987 -0.00152454 6.9113e-18)
(0.00311759 -0.00161113 4.35862e-18)
(0.00077359 -0.0017038 -9.12248e-19)
(0.000808382 -0.00173194 1.72687e-18)
(0.00671868 0.00911058 -2.00389e-19)
(0.00643622 0.0090569 -3.08485e-18)
(0.00667414 0.00881854 -4.27193e-18)
(0.0128428 0.00218498 1.02292e-17)
(0.0125967 0.00188596 2.9277e-18)
(0.00165661 -0.000159334 -2.62349e-18)
(0.00170463 -0.000176644 -5.60952e-18)
(0.00166069 -0.000198873 -1.91042e-18)
(0.00149065 -0.000818656 2.89986e-18)
(0.00144155 -0.000811258 -6.02192e-18)
(0.00146676 -0.000782728 -7.46105e-19)
(-0.000182762 -0.00205564 -2.74185e-18)
(-0.000172728 -0.00209201 -9.03209e-18)
(-0.000217248 -0.00209822 -3.9743e-18)
(0.00377287 -0.00841929 -1.90354e-18)
(0.00365615 -0.00818305 -1.35181e-17)
(0.00361306 -0.00823563 -8.01997e-18)
(-0.00962381 -0.00322379 8.36338e-18)
(-0.0102762 -0.00339378 4.6914e-18)
(-0.0111032 -0.00361676 -1.06595e-17)
(-0.0201963 -0.00702863 3.58699e-18)
(-0.0192637 -0.0068475 -6.1666e-18)
(-0.0215743 -0.00753426 -6.69114e-18)
(0.0055929 0.000322522 1.22713e-18)
(0.00580435 0.000417258 1.09375e-17)
(-0.00393328 -0.00378832 6.25746e-18)
(-0.00293727 0.00429188 -2.07362e-17)
(-0.0106338 -0.00258375 -1.78479e-19)
(-0.00841138 -0.00298829 -1.83292e-17)
(-0.0091502 -0.00316856 6.56145e-17)
(6.17152e-05 -0.00155835 -3.08203e-18)
(5.78763e-05 -0.00153269 4.8397e-18)
(4.70894e-05 -0.00154983 1.02011e-17)
(0.00664294 0.00171153 1.68571e-18)
(0.00666139 0.0015212 3.25332e-18)
(0.00648627 0.00165161 7.51711e-18)
(-0.0418727 -0.00495615 -7.66626e-18)
(-0.0424551 -0.00536236 -9.60097e-18)
(-0.0412482 -0.00504714 -7.52859e-18)
(0.00261857 -0.00174573 -6.99721e-18)
(0.00262034 -0.00180333 -1.44762e-17)
(0.00255417 -0.0017688 -1.74218e-17)
(0.00549501 0.00888157 2.30114e-18)
(0.00520633 0.00886647 1.09398e-17)
(0.00523598 0.00915809 -1.29969e-17)
(0.000729796 -0.00109705 -4.53664e-19)
(0.00073907 -0.00108176 -9.74147e-19)
(0.000895545 -0.00853834 6.67503e-18)
(4.94842e-06 -5.92176e-05 -7.11617e-20)
(6.77682e-06 -6.91384e-05 -6.20436e-20)
(6.50834e-06 -7.17474e-05 -9.74517e-20)
(0.00316195 -0.00383285 2.82028e-18)
(0.00330724 -0.00387843 1.40792e-17)
(0.0031792 -0.00397557 2.37695e-17)
(0.00100714 -0.00196544 -2.53984e-18)
(0.00105094 -0.00198886 -1.12374e-18)
(0.00101936 -0.00202118 3.9243e-18)
(0.000123088 -0.000995252 6.34271e-19)
(0.000132156 -0.000988083 2.20411e-18)
(0.0136783 -0.00183584 1.9266e-17)
(0.0124541 -0.0016567 1.66834e-17)
(0.0124518 -0.0021018 1.29829e-17)
(0.00164929 -0.00054764 -3.11526e-18)
(0.00160432 -0.000519694 1.66179e-18)
(0.0016596 -0.000503457 1.0145e-17)
(0.000232996 -0.00135303 2.9239e-17)
(0.000274892 -0.0014052 1.24594e-17)
(0.000424905 -0.000171877 -3.61425e-19)
(0.000443091 -0.000174491 2.86938e-18)
(0.0130389 -0.00105869 9.71583e-18)
(0.012924 -0.00144946 -2.14835e-18)
(0.0126006 -0.00109751 -3.28213e-18)
(-0.0334988 -0.00332524 5.22243e-17)
(-0.0342206 -0.00350133 1.64947e-17)
(-0.00541633 -0.00180703 -1.17494e-17)
(-0.00497699 -0.0017185 9.25277e-18)
(-0.00655891 -0.00199271 4.8948e-17)
(7.62447e-05 -0.00194479 -1.9659e-17)
(8.58994e-05 -0.00192691 7.87653e-18)
(8.5243e-05 -0.00195865 -1.41229e-17)
(0.00660411 0.00189618 -8.02086e-18)
(0.00678893 0.00177991 3.51982e-18)
(2.30695e-06 -3.82547e-05 4.0524e-20)
(1.1672e-06 -2.83335e-05 4.90168e-20)
(1.33132e-06 -2.91701e-05 -7.61633e-21)
(-0.0004263 -0.00227927 -1.79318e-18)
(-0.000414658 -0.00223323 -6.67782e-18)
(0.000159624 -0.000460012 -3.0245e-20)
(0.000150471 -0.000439336 -5.46071e-21)
(0.000162166 -0.000450272 1.72945e-19)
(0.00311138 -0.00377192 1.93539e-18)
(-0.00267533 0.0010231 8.82144e-17)
(-0.00180513 0.00104995 -1.08748e-17)
(-0.00197499 0.00113154 -1.81312e-17)
(7.12266e-05 -0.0019369 -1.642e-17)
(6.99094e-05 -0.00190363 1.04271e-17)
(0.0025984 -0.00166036 1.6769e-17)
(0.00269132 -0.00169735 1.89127e-17)
(6.63967e-07 -0.000358345 -5.25037e-19)
(2.06583e-06 -0.000379186 -7.00296e-19)
(-0.0189132 -0.00648237 -2.23798e-17)
(-0.0208825 -0.00702271 8.44915e-18)
(0.000686204 -0.000300037 -1.6644e-18)
(0.000667536 -0.00028069 1.7239e-18)
(-0.0141033 0.00473464 -2.16184e-17)
(-0.0139116 0.0046814 4.72264e-17)
(-0.0186933 -0.00651739 -9.82543e-18)
(-0.0180686 -0.00629525 6.78546e-18)
(-0.01994 -0.0067707 -2.06015e-17)
(0.000898177 -0.00560206 2.94818e-17)
(0.000993532 -0.00570959 5.44429e-18)
(2.97826e-06 -1.36826e-05 2.23289e-18)
(1.71735e-06 -9.77482e-06 2.9328e-19)
(-0.00324641 -0.0024626 3.08499e-17)
(-0.0110227 0.000596551 1.62745e-17)
(-0.0126076 0.0017486 -1.84003e-17)
(-0.0241946 -0.00305243 -1.16255e-17)
(-0.0247286 -0.00325325 3.73964e-17)
(-0.0242317 -0.00363232 1.21784e-17)
(-0.0491688 -0.000757962 -2.09803e-18)
(-0.0480879 -0.000863574 -5.99962e-18)
(0.00561279 0.00871395 3.74752e-18)
(0.00487541 -0.00129804 3.85178e-18)
(0.00480503 -0.00143215 2.52423e-17)
(0.00472953 -0.00127804 1.06501e-17)
(-0.000585675 -0.00220979 -2.30417e-18)
(-0.000539087 -0.00219264 -6.27651e-18)
(-0.000558595 -0.00216061 1.61948e-18)
(0.0152617 -0.00159662 5.88329e-18)
(0.0152422 -0.00193223 1.39944e-17)
(0.00441501 0.00216293 7.17966e-18)
(0.0042703 0.00213489 5.89415e-18)
(-0.000934086 -0.00400306 1.91358e-17)
(-0.000916134 -0.00389545 -2.96798e-18)
(0.00103699 -0.00289822 -9.33367e-18)
(0.000976759 -0.00284592 4.42034e-18)
(0.00106717 -0.00282982 6.19906e-18)
(-0.0399953 -0.002581 4.88713e-18)
(-0.0391995 -0.00295648 8.66551e-19)
(-0.0397018 -0.00181545 -1.03188e-18)
(0.0109465 -0.00469726 5.17378e-18)
(0.0112307 -0.00443267 1.80527e-17)
(0.0106924 -0.00442467 -1.99164e-17)
(0.000274521 -1.6447e-05 -3.62851e-18)
(0.000286087 -2.20548e-05 -3.38461e-18)
(0.000272169 -3.22747e-05 -5.53863e-19)
(0.00357602 -0.000700763 1.65594e-17)
(0.00348764 -0.000656263 -6.69804e-19)
(0.00347802 -0.000751278 1.12763e-17)
(0.00682691 0.00939153 4.28645e-18)
(-0.0435891 -0.00057189 -1.41368e-17)
(-0.0432814 -0.000951275 -8.42493e-19)
(-0.0387652 -0.00179759 -5.42131e-19)
(-0.0388172 -0.00148312 -4.32002e-18)
(-0.0384357 -0.00156109 2.58592e-19)
(0.000603748 -0.000424831 5.27286e-18)
(0.000620532 -0.000417122 4.19235e-18)
(-0.000211243 -0.00196214 1.17565e-17)
(0.000103441 -0.00069091 1.24714e-18)
(0.00010802 -0.000685668 -1.18374e-18)
(0.000100124 -0.000668454 1.53153e-18)
(0.0159839 0.00266399 -9.20938e-19)
(0.0160093 0.00227341 -8.11374e-18)
(0.0154246 0.00242399 -2.57746e-17)
(0.0151942 -0.00458547 -6.86868e-18)
(0.0163118 -0.00508649 3.56187e-17)
(0.0128776 -0.00573119 -2.76088e-17)
(0.00364406 -0.00075758 9.84819e-18)
(0.00365657 -0.000675755 -4.55023e-18)
(0.00645817 -0.00196591 -1.03502e-17)
(0.00659366 -0.00194531 -1.68825e-17)
(0.0107928 -0.00487833 8.55954e-17)
(0.0111796 -0.00489287 2.02416e-17)
(0.00030247 -0.00082239 2.41711e-19)
(0.000319195 -0.000832318 -6.55746e-19)
(0.000303161 -0.000803045 -4.33737e-19)
(-9.34504e-05 -0.00213307 3.48785e-18)
(-0.000106175 -0.00212807 1.43409e-18)
(0.00888921 0.00704624 -2.11113e-17)
(0.00876126 0.00740072 -2.0842e-17)
(0.00859845 0.00708793 -1.77319e-18)
(-0.051724 -0.015314 -8.36637e-19)
(-0.0517544 -0.0150064 2.06048e-17)
(-0.0512623 -0.0151526 1.84296e-17)
(6.23344e-05 -0.000417668 4.88005e-19)
(5.8353e-05 -0.000398831 1.20912e-18)
(5.57295e-05 -0.000399765 5.31854e-19)
(0.000117345 -0.000973964 3.81644e-18)
(0.000113021 -0.000999831 1.84319e-18)
(7.10916e-05 -0.00196137 6.53981e-19)
(-0.0444885 -0.00701847 1.66416e-18)
(-0.0452259 -0.00682632 -1.21671e-17)
(-0.0469062 -0.00743855 -4.61079e-18)
(0.00181159 0.000756659 1.62111e-18)
(0.00254462 0.000702468 -1.3172e-16)
(0.00190162 0.000776648 -5.89572e-17)
(0.00689289 -0.000671591 8.51734e-19)
(0.00671209 -0.000668658 4.74714e-18)
(0.0068255 -0.000855742 -1.01074e-18)
(0.00101629 -0.000406187 5.33015e-18)
(0.0010069 -0.000430569 -1.19449e-18)
(0.0139931 -0.00474823 -3.53188e-18)
(0.0190128 -0.00446809 2.44668e-17)
(0.0163085 -0.00571721 -3.64035e-17)
(0.0160152 -0.00591042 8.27516e-18)
(0.0137991 -0.00614596 -1.84134e-17)
(0.0122188 0.00287631 -2.23361e-17)
(0.0120195 0.00326264 -4.38181e-18)
(0.0118104 0.00288574 -1.73791e-17)
(0.00661592 -0.00174932 3.13622e-17)
(0.0063241 -0.00179421 3.00277e-17)
(-0.0437521 -0.00685184 2.58491e-17)
(-0.0426986 -0.00640482 2.85774e-17)
(-0.00942732 -0.00195785 -1.00472e-17)
(-0.00990175 -0.00198204 -1.72624e-17)
(-0.00858969 -0.00145586 2.44445e-17)
(0.00357345 -0.00113555 4.64349e-18)
(0.00353539 -0.00121375 1.3017e-17)
(0.0036444 -0.00117134 7.63472e-18)
(0.00523255 0.000216206 1.90975e-17)
(0.00536033 0.00019815 -8.39234e-18)
(0.00528458 0.000330154 1.3298e-17)
(-0.0299012 0.00176677 -8.30274e-18)
(-0.0301813 0.00162494 -3.04883e-17)
(-0.0268107 0.00148766 -5.26197e-17)
(0.000714067 -0.000577361 -2.28101e-19)
(0.000734419 -0.000600443 -1.42643e-19)
(0.000696765 -0.000589175 -2.87959e-18)
(6.35493e-05 -0.000201668 3.01958e-19)
(6.31661e-05 -0.000194816 2.66083e-19)
(5.65572e-05 -0.000187141 -1.52641e-19)
(0.0123461 0.00259581 1.39618e-18)
(0.0125564 0.00294643 -1.62804e-17)
(0.0022992 -0.00479497 3.03765e-17)
(0.00263825 -0.00459707 1.66423e-17)
(0.00235397 -0.00451762 2.14617e-17)
(0.000711139 -0.000298475 -5.4865e-18)
(0.0007331 -0.000298071 -3.40655e-18)
(0.000713819 -0.000282437 -2.98124e-18)
(8.01608e-06 -6.77206e-05 7.93252e-20)
(7.22595e-06 -6.85905e-05 -3.40557e-20)
(4.90492e-06 -5.72906e-05 -2.74868e-20)
(0.000167586 -0.000475871 -5.65604e-20)
(0.000156754 -0.000465882 4.70589e-20)
(0.000112646 -1.99604e-05 3.3032e-19)
(0.000120875 -2.08788e-05 -8.22244e-19)
(0.00011127 -1.22474e-05 -1.96783e-18)
(0.00495328 -0.000751216 -1.816e-17)
(0.00506697 -0.000824876 9.60322e-18)
(0.00510065 -0.000685902 -1.5615e-17)
(7.07609e-05 -0.000217643 6.7196e-19)
(-0.0423925 -0.00477745 3.66875e-18)
(-0.0435769 -0.00499945 -1.98e-18)
(0.00652836 -0.000973494 1.37699e-17)
(0.006546 -0.000737873 -4.06749e-18)
(0.000607989 -0.000914482 -9.61791e-19)
(0.000589285 -0.00091513 -1.69195e-18)
(0.000613101 -0.000936694 1.67171e-18)
(-0.0429244 -0.000626353 -8.86569e-18)
(-0.0266672 -0.00518693 -3.46738e-17)
(-0.0260737 -0.00484997 -3.42066e-17)
(0.000113319 -0.00112754 -2.4666e-18)
(0.00012208 -0.00113016 -1.17826e-18)
(0.000114997 -0.00110633 -3.23451e-18)
(0.0134618 -0.00104028 2.90127e-18)
(-0.00257327 -0.000985905 -1.15002e-17)
(-0.00124923 -0.000769822 -4.35829e-17)
(-0.0027527 -0.00102077 -1.70676e-17)