/*--------------------------------*- C++ -*----------------------------------*\
| =========                 |                                                 |
| \\      /  F ield         | OpenFOAM: The Open Source CFD Toolbox           |
|  \\    /   O peration     | Version:  v2012                                 |
|   \\  /    A nd           | Website:  www.openfoam.com                      |
|    \\/     M anipulation  |                                                 |
\*---------------------------------------------------------------------------*/
FoamFile
{
    version     2.0;
    format      ascii;
    class       volVectorField;
    location    "150";
    object      ddt0(U);
}
// * * * * * * * * * * * * * * * * * * * * * * * * * * * * * * * * * * * * * //

dimensions      [0 1 -2 0 0 0 0];


internalField   nonuniform List<vector> 
13917
(
(0.0217544 0.00279072 3.15563e-17)
(0.0090221 -0.0156381 4.85052e-19)
(-0.0016446 0.0144879 -3.68323e-18)
(-0.000913832 0.00201428 -1.99358e-18)
(0.00329234 -0.0206333 1.33986e-21)
(0.0106551 -0.0120901 1.1209e-18)
(-0.00175249 0.00387906 1.0866e-18)
(-0.0834329 -0.0736897 -6.18162e-20)
(-0.000398015 0.00424939 1.6499e-18)
(0.00690544 -0.0111027 -1.85081e-17)
(-0.0557489 -0.0693956 2.4396e-19)
(-0.00112812 0.000986037 8.26242e-19)
(7.89951e-05 1.94942e-05 1.17638e-18)
(-0.00888725 0.0191815 6.44467e-18)
(-0.000407318 0.00243938 -8.45321e-19)
(0.0210388 0.00253146 -3.95985e-17)
(0.00167038 2.60671e-05 -1.99056e-19)
(-0.0432811 -0.042022 6.04766e-19)
(-0.00502836 0.0124292 3.45059e-19)
(0.0218146 -0.00432912 -7.4855e-18)
(-0.00873185 0.00381544 3.01784e-19)
(-0.00123524 -0.00248709 8.0157e-21)
(-0.0042312 0.00610169 5.30274e-18)
(-0.00110408 -0.00252812 1.81844e-20)
(-0.00209089 0.00206117 -1.23866e-18)
(-0.0117392 0.00309691 -1.73139e-18)
(0.0535082 -0.0721189 6.22598e-19)
(0.00548352 -0.00704266 1.49272e-17)
(-0.0262942 -0.00591966 2.24417e-18)
(-0.00301916 -0.000305774 4.77141e-20)
(0.00361196 -0.00550329 2.2005e-17)
(-0.00232019 0.00881986 -1.75772e-18)
(-0.0014734 0.00166049 3.74925e-19)
(0.0225765 0.00538147 7.50109e-18)
(0.00354546 -0.0026481 -2.00666e-20)
(-0.097386 -0.0877069 1.49682e-19)
(-0.00379073 -1.81761e-05 -4.63147e-21)
(0.00110327 -4.81869e-05 2.89636e-19)
(-0.00180507 0.00396614 6.14394e-18)
(-0.00267245 0.00472325 -7.14064e-19)
(0.0003687 3.03137e-05 -2.44381e-20)
(0.00313793 0.000609277 -1.02879e-19)
(-0.000604629 0.00359983 -4.50327e-19)
(-0.00335176 0.0115865 -5.23476e-18)
(-0.0031684 0.0115351 -4.1585e-18)
(-0.0341439 -0.00239939 -2.79667e-19)
(-0.00790397 0.00320583 -7.75235e-19)
(0.106848 0.0275708 -2.78567e-18)
(0.0287381 -0.190494 -3.48078e-18)
(0.00336941 -0.00281941 3.76583e-20)
(-0.00118003 0.00092993 -2.93474e-19)
(-0.0177753 0.00426194 -2.35739e-19)
(0.0147313 0.00239651 -7.62678e-18)
(-0.00144365 -0.000155234 -4.00343e-19)
(-0.00156867 2.18499e-05 1.05122e-18)
(-0.0171297 0.00543143 -6.93364e-20)
(-0.00122475 -0.00283168 -2.20209e-17)
(-0.00419182 0.00593109 -4.72598e-18)
(0.00306384 0.000593212 -7.14724e-20)
(-0.0343892 -0.00410534 4.36503e-19)
(0.0458346 0.0780116 3.34768e-18)
(0.014542 -0.00310028 2.41891e-19)
(-0.00115385 -8.28843e-06 -1.8693e-20)
(-0.0020413 0.00201666 1.69867e-18)
(0.0378214 0.0148994 -9.86898e-18)
(-0.0249581 0.0382182 -2.06321e-19)
(-0.0316615 -0.0130273 -4.53147e-19)
(-0.0910177 -0.100844 -2.13674e-18)
(-0.057062 -0.047563 2.19598e-18)
(0.0182249 0.0033168 2.13633e-17)
(0.0202226 0.0170176 1.53474e-18)
(0.0208669 0.00484172 -3.26346e-18)
(-0.0001793 0.00148309 1.76127e-18)
(0.00308469 0.000553015 -3.81849e-20)
(-0.00853057 0.00470564 2.20971e-18)
(-0.00279186 0.00167921 -1.69636e-18)
(-0.00235693 -0.00910113 -5.00531e-19)
(0.00300922 0.000542494 1.98926e-19)
(-0.00266597 0.00163775 5.72344e-19)
(-0.00147899 0.00169481 -1.25348e-18)
(-0.00239704 -0.000791883 8.56076e-21)
(0.00188919 2.33229e-05 3.99945e-21)
(-0.000316208 0.00143536 -2.67387e-18)
(0.0103575 0.0149109 -8.14625e-18)
(0.000167976 -5.33003e-05 -1.59563e-18)
(-0.0186732 0.0515504 1.90215e-18)
(-0.00201641 0.00866569 -1.51163e-18)
(0.000269663 -2.35835e-05 -1.56242e-18)
(-0.00306133 0.0048724 9.19191e-19)
(0.00180029 3.63693e-05 2.39226e-19)
(0.00182143 0.000113687 -3.86696e-19)
(-0.00024425 0.00369501 4.64351e-18)
(0.0411076 -0.157221 5.31513e-19)
(0.00349023 -0.0013886 -1.27668e-19)
(-0.00232707 -0.000218521 1.56068e-19)
(-0.0312552 -0.00602143 -2.27531e-18)
(0.135224 -0.0114461 -2.69186e-18)
(0.00201641 -2.38446e-05 -1.30343e-20)
(0.000179184 -2.17687e-05 5.06721e-19)
(0.0356835 0.00979946 1.80152e-18)
(-0.000421874 4.34911e-05 1.95551e-19)
(-0.000553312 6.61265e-05 -2.9477e-19)
(-0.00247107 -0.000729182 -4.31713e-20)
(0.00205948 -9.21509e-05 9.48749e-22)
(-0.00132257 -0.00872095 3.23539e-19)
(0.00173322 0.0105411 -1.62662e-19)
(0.04546 -0.000972798 -6.50435e-18)
(0.014574 -0.000842736 -2.98134e-19)
(0.00315885 0.000650217 -1.33313e-19)
(0.0565024 -0.0905249 2.86718e-19)
(-0.000368491 0.000127155 -7.22183e-19)
(0.0237808 0.00574302 -1.63772e-17)
(-0.0251045 -0.00082008 -4.36296e-18)
(0.110833 0.0108131 -4.17669e-19)
(0.0368488 0.0151426 6.04713e-18)
(-0.00343759 0.00158664 -3.63682e-19)
(-0.00521948 0.0119833 5.94268e-18)
(0.00102018 0.000161089 5.03182e-21)
(-0.00194804 0.0142703 -7.36738e-18)
(-0.000499056 0.00123392 -1.40355e-18)
(0.00202241 2.9156e-05 -1.856e-19)
(0.00298624 0.000427033 9.57961e-20)
(-0.0382117 -0.0143398 2.94337e-18)
(-0.0096264 0.00949398 -4.0395e-18)
(0.0146923 0.00299879 3.80075e-18)
(0.0212908 0.0142426 1.26615e-17)
(-0.00185055 0.00202763 -6.94584e-19)
(-0.00912525 0.00559028 -1.25722e-18)
(0.00112442 -0.00208009 7.36012e-20)
(-0.00918038 0.00999298 7.10186e-18)
(-0.00108399 0.00564703 1.10457e-20)
(-0.0130703 -0.0258679 -8.66432e-19)
(0.0215972 0.00701452 1.54709e-17)
(-0.00350475 0.00147219 -3.52511e-19)
(-0.00214942 0.00961987 -2.29078e-18)
(0.0757794 -0.0988979 -3.14072e-19)
(0.0121157 0.0764809 6.52345e-19)
(0.0130434 0.00271739 2.5213e-20)
(-0.0144073 0.00262382 -7.216e-19)
(0.00117786 -2.90418e-05 -1.25949e-19)
(0.0555427 -0.0373445 5.82431e-18)
(0.00297792 0.000501425 1.62594e-19)
(0.00272981 0.0105915 -1.019e-17)
(-0.000247913 -0.00120905 -1.04749e-19)
(-0.000368481 0.00131348 1.45137e-19)
(0.00322402 0.000726792 -1.98701e-19)
(0.0172083 0.016663 7.86312e-20)
(0.000671416 0.0493525 2.17541e-19)
(0.085537 0.00427416 -3.27171e-17)
(-0.00154399 -0.000106528 5.60482e-19)
(-0.003638 0.0045017 4.7379e-19)
(-0.000817634 5.83231e-05 1.64233e-19)
(-0.000352081 0.001261 4.97556e-19)
(-0.00038326 0.00124585 1.50998e-18)
(0.14412 -0.0336779 1.13017e-18)
(0.000792809 -0.00367281 -3.46133e-20)
(0.00209014 -0.000110839 9.94979e-21)
(0.0200677 0.00609694 5.69898e-18)
(0.000693387 6.73514e-05 -7.05477e-20)
(0.000931009 0.000123608 2.20271e-19)
(-6.96599e-05 -0.000366951 1.05166e-18)
(0.0444254 0.0282788 3.05925e-18)
(-0.00412116 -0.00188915 3.83924e-20)
(0.0696321 -0.0556524 -2.74041e-18)
(0.0297241 0.0622954 -9.01051e-18)
(0.0538617 0.00611193 -4.27683e-18)
(0.00978411 0.00127729 7.71244e-18)
(0.109556 0.0654598 -4.85676e-18)
(-0.00163141 -0.000144606 2.2102e-20)
(-0.0162923 0.00348771 2.01183e-18)
(-0.00102167 -0.00292942 -2.83437e-20)
(0.0244361 0.00791131 -3.60271e-18)
(-0.000492496 0.00421922 -1.00248e-17)
(0.00182846 0.0591835 3.24454e-18)
(-0.00890574 -0.000475878 6.06645e-19)
(-7.77706e-05 9.16839e-05 -1.98571e-19)
(-0.000825671 0.00204389 1.95796e-18)
(-0.0205748 0.00315765 1.75971e-18)
(-0.0015053 0.00554381 -2.25546e-18)
(-0.00429003 -0.00227083 -5.1226e-19)
(-0.0004957 0.00350638 -5.90823e-18)
(-0.000921795 -0.00280558 -1.35269e-20)
(-0.00123413 0.000864213 9.22382e-20)
(-0.0200843 0.015107 -6.94057e-19)
(-0.00227308 0.014665 9.50962e-18)
(-0.0109241 -0.0289909 2.32214e-19)
(-0.00112639 0.000806333 6.13242e-19)
(-0.0214172 0.0143216 4.02033e-18)
(-0.00294731 -0.000239092 6.42431e-20)
(-0.0390256 0.0372725 -8.02718e-19)
(-0.00858459 -0.00121477 1.35575e-19)
(-0.003499 0.0111316 1.48585e-18)
(-0.0156819 0.0126665 5.61167e-19)
(0.0230117 0.00230178 4.91817e-18)
(0.00342459 -0.00151732 2.08219e-20)
(0.0152285 0.00314357 4.06896e-18)
(-0.00263472 0.00280638 -3.0339e-18)
(0.0221207 0.0076229 -6.98504e-18)
(0.00350601 -0.00240126 3.48409e-20)
(0.000493306 -0.00345394 -3.22025e-20)
(-0.00668021 0.00249788 -1.14454e-19)
(0.0191587 0.0033217 -9.73029e-18)
(0.0126937 0.00259178 -1.31608e-18)
(-0.00322167 -0.000493435 1.92898e-20)
(0.0173378 -0.0626579 -2.63456e-19)
(-0.0108674 -0.00857082 7.33971e-19)
(-0.00330411 0.00448449 -2.9001e-19)
(0.00300643 0.000469327 -2.82506e-19)
(-0.0194864 0.00455946 -2.39829e-18)
(-0.00245713 -0.000886879 2.00733e-20)
(0.0014932 -0.00139796 -7.05967e-21)
(0.0235215 -0.0313474 2.97085e-19)
(0.0311716 -0.0372768 -1.51701e-19)
(0.0918621 0.0214833 2.3545e-17)
(-0.00253662 0.00943951 7.80088e-18)
(-0.0129561 0.00399608 7.41037e-19)
(0.0427042 0.0136231 -3.77924e-18)
(0.000850367 -9.38053e-05 3.77448e-19)
(0.0020944 0.000728183 -7.80894e-20)
(0.00206737 0.000764669 -5.76079e-19)
(0.127747 0.0673105 -1.46177e-18)
(-0.0184672 0.013711 8.75056e-20)
(-0.0256091 0.0155028 -1.15581e-18)
(-0.000224969 0.000271936 -9.1013e-21)
(-0.000977376 5.60056e-06 1.91917e-20)
(0.0742024 -0.118917 1.5551e-19)
(0.0152986 0.00295506 -3.69546e-18)
(0.00209012 0.00061988 1.57196e-19)
(0.00203448 0.000603725 5.54076e-19)
(0.000406228 2.42411e-05 -2.00436e-19)
(0.00209553 0.000820874 5.31038e-19)
(0.00207356 0.000861912 1.11111e-19)
(0.0216776 0.00457767 7.95671e-18)
(0.0769334 0.0370587 -1.28463e-17)
(-0.00200539 -0.00163251 -1.97379e-20)
(-0.00187422 -0.000249216 2.15989e-20)
(-0.0100989 0.00424833 2.23407e-18)
(0.0192003 0.00444857 -5.39342e-18)
(0.00114158 6.30876e-05 -3.26624e-19)
(-0.000153165 0.000246195 -4.75409e-19)
(0.0266106 -0.0712425 -2.56078e-20)
(0.00039078 0.00996502 -8.40612e-20)
(-0.0193333 0.0145327 1.52459e-18)
(0.0411189 0.0119972 5.17004e-18)
(-0.0136221 -0.00397486 7.74124e-19)
(-0.000320032 -0.00117998 -1.43619e-19)
(0.0689473 0.0673118 -1.23892e-18)
(-0.0104709 0.00482771 -2.27194e-18)
(-0.0213952 -0.00133755 -1.3528e-18)
(-0.00482577 0.0092376 5.2959e-18)
(-0.00309762 -0.000370109 9.60368e-21)
(0.083853 0.0301541 1.65487e-17)
(-0.00042477 0.00129189 -2.20295e-18)
(-0.00327942 0.00193573 -2.56878e-19)
(-0.00761423 0.000333243 -3.77805e-19)
(-0.00212035 -0.00189857 3.41363e-20)
(0.000354162 1.11941e-05 6.31101e-20)
(-0.00191337 0.00207195 1.75611e-18)
(0.0109172 -0.0068215 -1.02019e-20)
(0.00438496 -0.00111415 -3.29397e-20)
(0.0155179 0.00363459 -1.09974e-17)
(0.0478405 -0.192686 1.77299e-18)
(0.00318866 0.000232249 -9.84425e-20)
(0.00204982 0.000541958 -1.58281e-19)
(0.000779751 -0.00405806 -1.05596e-19)
(0.00207922 0.000513609 -6.12716e-19)
(-0.000419071 0.00129708 -9.86696e-19)
(-0.000184068 3.11754e-05 -1.13994e-18)
(-0.00394046 0.00385472 -2.04347e-18)
(0.00319599 0.00028742 -7.81677e-19)
(0.013385 0.00274188 6.21396e-19)
(0.0472747 0.00332028 -6.12697e-19)
(-0.000854334 0.000412763 1.39695e-18)
(0.00474497 -0.00778241 -9.73703e-20)
(-0.0217697 -0.00990712 9.21906e-19)
(0.00139541 0.0014759 3.79813e-19)
(0.0237907 0.0127399 2.19022e-18)
(0.0162385 0.00400462 -1.44251e-18)
(0.00145289 0.00141924 -1.9629e-19)
(0.0182541 0.00372481 -4.41201e-18)
(0.00418417 -0.00100847 9.67012e-20)
(0.0439466 0.0297217 -1.93504e-18)
(-6.37457e-05 6.6451e-05 1.46524e-19)
(-0.00255948 0.00163164 4.00743e-19)
(-0.00236919 -0.00195191 -9.16676e-20)
(-3.00697e-05 -0.00135147 3.02727e-19)
(-0.00818359 0.0151841 5.02941e-18)
(0.00142843 -8.85448e-05 -7.17703e-20)
(0.0677663 -0.00101272 1.29867e-19)
(-0.00331406 0.00296091 -1.44431e-18)
(0.0626972 -0.190473 -5.58005e-19)
(0.00326745 0.000712157 1.75493e-19)
(0.0127723 -0.047341 -4.14532e-19)
(0.012874 0.00257923 1.86115e-17)
(0.00120024 0.00010323 -4.08232e-19)
(-0.00565731 0.00535395 6.39081e-18)
(0.00967649 -0.0122029 2.93615e-20)
(-0.00375344 0.00137986 1.33135e-18)
(0.00562417 -0.0176225 -2.05081e-21)
(-0.00254404 0.00174463 -1.30154e-18)
(0.00373771 -0.00124992 5.2747e-19)
(0.00152358 -0.000120244 1.01549e-19)
(-0.0207516 -7.45501e-05 5.1802e-20)
(-0.0350298 0.00453553 1.57253e-19)
(-0.00304595 0.00210428 -9.35185e-19)
(-0.00248169 0.00170809 3.76487e-19)
(-7.95514e-05 0.000216934 3.99756e-18)
(0.0203622 0.00656703 -6.35139e-18)
(0.0191392 0.00300551 8.15191e-18)
(0.0014969 -0.00206455 -4.64078e-20)
(0.00770824 0.0115708 -6.31089e-19)
(-0.00367066 0.00153389 -1.85542e-19)
(0.00567822 -0.139823 1.42862e-18)
(-0.00150429 0.0107349 -3.42546e-17)
(0.039202 0.00284951 -9.03204e-18)
(-0.0104419 0.056238 -3.05853e-18)
(-0.0306268 0.0258314 1.70626e-19)
(-0.00897084 -0.0222882 8.27219e-19)
(0.00455488 -0.00637723 1.35013e-19)
(0.004854 0.0155492 6.53934e-18)
(-0.020913 -0.181194 4.2105e-18)
(-0.00123619 0.0141269 -7.07147e-19)
(-0.000160996 2.4976e-05 -9.22295e-19)
(-0.00132015 0.00259619 1.31807e-19)
(0.0387609 -0.0641953 -4.65226e-20)
(-0.000686293 -0.00359107 -1.02323e-19)
(0.011036 -0.0193379 -2.43982e-19)
(-0.00374903 0.0110286 2.50473e-19)
(0.00151662 2.77462e-05 2.25923e-19)
(0.0249084 0.00824286 4.92303e-18)
(0.000326086 -4.36637e-05 -5.13177e-19)
(-0.000753204 0.00694879 -1.8682e-18)
(0.000714014 0.00279245 -7.74517e-20)
(0.0133955 -0.0052214 5.23444e-18)
(0.00131569 -0.000679711 4.05854e-21)
(-0.00321979 0.00245026 9.3954e-19)
(-0.0125206 -0.00813585 -6.56238e-19)
(-0.0297479 0.0185308 -1.86548e-20)
(0.00169777 6.31211e-05 1.65481e-19)
(-0.00429044 0.00938681 -3.05639e-18)
(-0.00276031 0.0115102 -4.48198e-18)
(-0.00221924 -9.75062e-05 3.33035e-20)
(-0.000401806 -0.00361317 -7.15554e-20)
(0.0248699 0.00633132 7.74329e-19)
(-0.00387402 0.0109834 -1.73984e-17)
(0.017743 0.0378017 6.35981e-20)
(-0.00447545 0.00890404 -7.19491e-18)
(0.00147317 0.00131032 4.0424e-19)
(-0.00196641 -0.00119091 -5.00621e-20)
(-0.000296275 0.00939808 -4.56143e-18)
(-0.0110772 -0.0207083 -1.0135e-19)
(0.00154756 0.00126225 2.5896e-19)
(0.0094262 -0.0157042 1.17412e-20)
(-0.00133693 0.000397122 1.16617e-18)
(-0.00868826 0.0172946 5.75327e-18)
(-0.00313039 0.00229581 1.23722e-18)
(-0.0133563 0.0101721 -4.04805e-19)
(-0.00713555 -0.009447 -3.95154e-21)
(0.0228668 0.0168952 -2.80082e-18)
(-0.000674761 0.00681659 3.56643e-19)
(0.0241105 0.00396073 -3.58678e-19)
(0.00109236 -0.00212279 4.12398e-21)
(-0.00222158 -2.47568e-05 -1.21845e-19)
(0.00403527 -0.0240134 -4.16476e-20)
(-0.00588854 0.0164415 -8.84042e-18)
(0.001195 3.64294e-05 -1.12565e-19)
(0.0215758 0.00243176 -5.07414e-18)
(-0.000605031 0.00677494 -9.40566e-20)
(0.00996587 0.0808494 2.9121e-18)
(-0.00147569 -1.16406e-06 -7.05549e-19)
(-0.0100781 -0.0158991 -1.26916e-19)
(0.00764367 0.00899073 -1.63315e-19)
(0.0684301 -0.0434307 7.17385e-19)
(0.00298924 0.00066713 2.27125e-19)
(-0.0232843 0.0162278 -3.48141e-18)
(-0.0229101 -0.00598831 -1.80892e-19)
(-0.0151049 -0.00928812 -1.6313e-18)
(-0.000886299 0.000417545 5.71955e-19)
(-0.00660378 0.0217556 -4.55885e-18)
(0.000652396 0.00311201 1.75502e-19)
(0.0300346 0.0667769 -1.35168e-18)
(-0.0163164 0.0136228 -9.36063e-19)
(0.0029727 0.000692679 -1.13263e-19)
(0.0616239 -0.0982236 -1.46237e-18)
(-0.00297699 -0.00248133 -2.97137e-19)
(-0.0153012 -0.0270876 -5.67198e-19)
(0.00271093 -0.0006729 2.46427e-20)
(0.0254685 -0.00503769 -4.32417e-18)
(-0.0171562 -0.0304897 5.8652e-19)
(-0.00336918 0.000521446 -1.42081e-19)
(0.0523006 -0.127014 -2.21833e-19)
(0.0143479 0.0192965 -2.5831e-18)
(-0.00290657 -0.000310863 7.51453e-20)
(0.0296722 0.0479479 -4.60497e-19)
(-4.49992e-05 0.00958111 -1.21718e-17)
(-0.00293127 0.000706122 -1.58043e-19)
(-0.00913024 0.0156454 -6.09932e-18)
(-0.00177588 -0.000904701 -3.10325e-22)
(0.015204 0.0251543 1.26538e-18)
(-0.00167957 0.0145431 6.51202e-18)
(0.000221785 -3.2674e-05 6.63582e-20)
(-0.00109942 0.00410804 -2.96734e-18)
(-0.00236687 0.00179625 -7.03915e-19)
(-6.16812e-05 -0.00121472 9.11291e-20)
(0.000700122 -0.000570882 -2.41927e-19)
(0.000888888 -0.00208847 2.12728e-21)
(0.017184 0.0926651 -2.18426e-18)
(0.043026 -0.00169277 -3.10274e-20)
(-0.00201896 1.34222e-06 -2.50411e-19)
(0.000897846 -0.0022739 1.6262e-19)
(-0.000806026 -0.00225809 -1.00291e-20)
(-0.00590212 0.00383778 -5.03363e-18)
(-0.0690297 -0.139144 2.18338e-18)
(0.00099156 0.00214307 -5.45004e-20)
(-0.00159534 -0.000116146 6.05767e-21)
(-0.00152339 0.01075 3.06529e-17)
(-0.00765728 -0.0156162 2.75437e-19)
(-5.24691e-05 -0.00139809 7.27201e-20)
(-0.00315278 0.000538341 -4.60492e-19)
(-0.0180249 0.0352998 3.56458e-19)
(0.138893 0.0556713 -5.87239e-19)
(-0.0322708 0.0434234 2.73645e-19)
(-0.0046553 0.0127467 -1.8786e-18)
(-0.0035191 0.0156816 -1.57566e-18)
(0.00254261 0.00112693 4.61927e-20)
(0.00109596 0.00193065 9.90873e-20)
(-0.00837149 0.001203 2.01565e-19)
(0.000747666 -0.000537158 5.62206e-19)
(0.00107598 0.00208456 -2.32811e-19)
(-0.00207537 -0.00168466 -9.40214e-21)
(0.0011858 0.0018804 4.33984e-19)
(0.00248985 0.00113698 1.87764e-20)
(0.0726056 0.0647852 -6.16032e-18)
(-0.00185619 -0.000845469 1.86145e-19)
(-0.00189812 0.00392186 -1.35266e-19)
(0.013692 0.00288713 5.29237e-18)
(-0.00565326 0.0050519 -1.05644e-17)
(0.00147025 -0.00146197 2.91599e-20)
(-0.000318154 0.00121205 -3.71259e-19)
(0.0341339 0.0443623 -2.27342e-18)
(-0.00723243 0.0021792 1.03888e-18)
(0.0139471 0.00266389 -1.04465e-17)
(0.000802367 0.00258026 -1.4818e-19)
(-0.000286914 0.000411725 1.14212e-19)
(0.000763907 0.003137 -5.21884e-22)
(0.00211813 0.000927806 -5.3999e-19)
(-0.00358051 -8.77615e-05 1.03653e-20)
(-0.003202 -0.00302666 5.94544e-20)
(-0.021627 0.0285152 1.95899e-18)
(0.00311126 0.00133987 -1.99566e-19)
(0.00366119 0.010165 1.07114e-17)
(-0.00028612 0.000388623 9.38783e-19)
(-0.00173997 0.00559967 3.03384e-18)
(0.0033634 0.00113822 2.19303e-19)
(-0.00239524 -0.000969159 -3.45058e-20)
(-0.0136248 -0.00247627 -9.11653e-19)
(0.0130665 0.0383611 1.86429e-19)
(-0.00128214 0.000409266 -1.38195e-18)
(0.105545 -0.0106198 -3.47138e-20)
(0.00133198 -0.00151097 3.7363e-20)
(0.00108441 -0.000195216 1.84797e-19)
(-0.000717324 -0.00219936 1.99739e-20)
(-0.00302484 -0.00222121 3.06857e-20)
(0.00160402 -0.00125968 4.33431e-21)
(0.000480636 -5.45746e-05 -2.14518e-19)
(0.0206179 0.00650703 -7.83527e-18)
(0.0301912 0.0690493 -2.28053e-18)
(0.00162437 -0.00118848 3.59258e-20)
(0.00518411 -0.0503332 2.82811e-20)
(-0.00115087 0.0110069 1.22009e-19)
(-0.000175399 7.17932e-05 1.90753e-18)
(-0.00640697 0.00514702 6.47511e-18)
(-0.00168574 0.00865562 -6.11096e-18)
(0.0400588 0.0467172 -3.10721e-18)
(-0.00128906 0.00440171 1.90337e-19)
(0.00157464 0.0110348 2.15343e-17)
(-0.00448671 0.0208863 1.58017e-18)
(-0.00410462 0.0172851 -2.40026e-18)
(-0.00330064 -0.00269909 8.35936e-20)
(-0.0247412 0.0324471 1.54843e-19)
(0.00356516 0.0010574 -2.89802e-19)
(-0.00298838 -0.000395581 -3.54575e-20)
(0.0206344 0.0257952 -1.37439e-18)
(0.00184202 9.9512e-05 9.36837e-20)
(-0.00135602 -0.000123515 5.32038e-19)
(-0.00231229 -0.00014191 -6.00295e-19)
(-0.000604534 0.0041742 7.2564e-18)
(-0.00631129 0.00437504 2.42493e-19)
(-0.00292602 0.0144351 6.2676e-18)
(-0.00359231 0.00731305 -1.28812e-18)
(0.00329685 0.000804885 -1.51364e-19)
(0.00657511 -0.00860765 5.33403e-20)
(-0.0471143 -0.0272049 -2.57786e-19)
(0.000863966 0.00162975 8.15227e-20)
(-0.00193104 -5.15914e-05 6.10918e-20)
(0.0089299 -0.0129193 -6.26105e-19)
(-0.00333784 0.00449712 2.93258e-18)
(-0.00322722 0.00295271 -1.63595e-18)
(0.0201878 0.0676437 -5.63252e-19)
(0.000324675 -4.4182e-05 3.01038e-18)
(0.00166304 0.0010737 3.70265e-19)
(-0.0227751 0.003533 3.87945e-19)
(0.00113717 -0.000492515 -7.04647e-20)
(0.018671 0.00467844 1.70162e-18)
(0.00104128 -0.00018942 6.82586e-19)
(0.00208913 0.000967611 -1.37061e-19)
(-0.00612561 0.0041247 6.2832e-18)
(0.000898072 0.00251447 -1.17137e-19)
(0.000898434 -0.00010938 3.81668e-19)
(-0.0196494 -0.00144011 -4.81949e-19)
(0.0187183 0.00502767 -2.56936e-19)
(0.0530064 -0.155391 -1.1197e-18)
(2.25986e-05 -0.000333606 4.00154e-19)
(-0.000569102 0.00239819 1.88919e-18)
(0.00349038 0.000818108 -3.73418e-19)
(0.00912523 0.0205341 5.46226e-20)
(-0.0226972 -0.0167711 -1.09248e-18)
(-0.00174767 -0.000116953 -2.02531e-19)
(-0.001516 -2.56233e-05 -7.44641e-19)
(9.0585e-05 -0.000306036 -1.90697e-18)
(-0.0070724 0.0014003 1.73179e-18)
(0.0335671 -0.178962 1.13112e-17)
(0.00132736 -0.00236328 1.99309e-19)
(0.00121093 5.75702e-05 6.97657e-20)
(0.000525333 -0.00317822 9.66075e-20)
(2.17351e-05 -0.00112038 1.34527e-19)
(-0.0064654 -0.00820332 6.19937e-20)
(-0.00254054 0.00328421 -8.87012e-19)
(0.00174885 9.63046e-05 -5.27554e-20)
(-0.00391393 0.00729454 1.91595e-18)
(0.00115379 -0.000455625 -1.42574e-19)
(-0.00108773 -0.00213942 -4.42825e-20)
(-0.00233321 0.00178207 -3.72814e-19)
(0.0323846 0.00268176 -9.026e-18)
(0.00222277 4.47332e-05 -1.9773e-19)
(-0.000818959 0.00319504 4.74507e-18)
(0.00434496 -0.0013128 1.2875e-19)
(-0.00180219 0.00548613 5.40778e-18)
(-0.00795676 0.00633999 -7.92985e-19)
(-0.0224716 0.0190789 1.68871e-18)
(-0.00849296 0.000130657 -3.62823e-21)
(0.0382857 0.00218673 -2.55467e-18)
(-0.00242458 0.00146694 -1.30415e-18)
(-0.0374433 -0.0245722 -3.71085e-18)
(0.0224019 0.00813593 3.09404e-18)
(0.0624224 0.0624505 -6.97571e-19)
(0.0145952 0.003082 -3.39584e-18)
(0.00188237 -0.0019198 -2.1732e-20)
(-0.000453309 -0.00219207 -3.01869e-20)
(0.00319204 0.000836844 4.38417e-19)
(-0.000582515 0.000520588 1.56904e-18)
(0.0357248 0.0141928 -1.28479e-17)
(0.00143098 0.00159746 -2.07807e-19)
(-0.00541223 -0.192491 -6.86793e-18)
(-0.00254727 0.00284363 -1.44966e-19)
(0.0245988 0.0106429 -4.83706e-18)
(0.0287118 0.0106854 1.82233e-18)
(-0.000722314 0.00360099 9.97376e-18)
(0.0243175 -0.0213307 1.0425e-17)
(0.00171577 -0.0011871 5.91299e-20)
(-0.00141567 0.00837852 8.79393e-18)
(0.00211616 -3.17963e-05 -1.15005e-19)
(0.00473101 0.000234209 6.85323e-19)
(0.0254091 0.0101206 -4.13314e-18)
(0.000899132 0.00236121 -1.86865e-19)
(-0.000292412 0.0123711 -1.45638e-17)
(-0.00086107 1.56552e-05 9.76222e-20)
(-0.000125997 5.40175e-05 -3.41731e-18)
(-0.000578395 -0.00227599 1.93154e-21)
(-0.00291253 0.014107 -3.83098e-18)
(-0.00633992 -0.0101718 -3.6526e-20)
(0.00206599 0.000369522 2.6631e-19)
(-0.00254866 0.0113861 4.52483e-19)
(-0.00625182 0.00478145 -4.77506e-18)
(-0.064546 0.0660574 -1.28372e-18)
(0.00477558 0.0180931 3.26474e-18)
(0.0195371 0.00652982 -7.62274e-18)
(0.0380489 0.0515808 1.3931e-18)
(0.00223756 3.80596e-05 1.98412e-19)
(0.0161069 0.00312251 -1.9876e-18)
(-0.00126948 5.31432e-05 1.11697e-19)
(0.0174603 0.0730873 -2.22085e-18)
(-0.00705938 0.0434508 9.36206e-19)
(0.00480564 0.00047358 2.62438e-19)
(0.00875558 0.00513707 9.61619e-21)
(-0.000574807 4.86457e-05 5.66545e-20)
(-0.00335265 0.00443758 1.71838e-18)
(-9.95951e-05 0.00339744 -3.53809e-18)
(0.000993868 0.00230005 1.23859e-19)
(0.00210932 -3.71485e-05 2.86866e-20)
(2.69106e-05 1.20289e-05 -1.33025e-19)
(-0.0038461 0.0179955 -2.10097e-17)
(-0.00023952 -0.000273618 7.37821e-19)
(-0.00216254 0.00835879 3.4702e-18)
(-0.00133235 -0.000167307 -7.92315e-19)
(0.00203741 0.000371649 -5.16833e-19)
(0.000758338 9.30094e-05 -1.96164e-19)
(-0.0301552 -0.000657855 -6.29415e-19)
(0.038661 0.0282415 2.07233e-18)
(0.0016612 -0.0231485 1.11402e-17)
(-0.00490561 0.00891293 -2.88077e-18)
(-0.00242916 0.00333635 -1.1268e-18)
(-0.0171663 0.0241937 2.30438e-19)
(0.0191997 0.00463122 -1.66481e-17)
(0.00279099 -0.000685238 -2.40873e-21)
(0.0206336 0.0304124 8.85393e-19)
(3.78159e-05 1.99471e-05 2.8923e-18)
(-0.00137306 0.0093061 5.34289e-18)
(-0.000636061 0.000481216 -1.40165e-18)
(-0.00798965 0.0210232 2.19792e-18)
(7.53264e-05 -0.00109294 -1.17593e-19)
(-0.00792287 -0.00672605 3.39003e-20)
(-0.000466887 0.00136725 3.35225e-19)
(-0.054558 0.0374478 6.59247e-19)
(-0.0039391 0.00415643 4.51788e-18)
(0.0398928 0.0147786 5.43185e-18)
(0.00198086 6.14305e-05 1.03985e-20)
(-0.00360798 0.00387586 3.09997e-18)
(0.00224581 -0.00303336 1.00597e-21)
(-0.000441324 4.29819e-05 -1.35364e-20)
(0.0252685 0.0040541 1.53717e-17)
(0.0592681 0.0270931 4.1749e-18)
(0.00270478 -0.00349444 -9.53979e-20)
(-0.0138719 0.0109169 -2.85394e-18)
(-0.00019482 0.000246707 -2.68592e-18)
(0.00420599 0.000229579 8.1214e-20)
(-0.000687764 3.97629e-05 -1.15816e-19)
(0.0262784 0.00491258 -8.28732e-18)
(-0.000213112 -0.000237696 -4.58257e-19)
(0.0121946 -0.00930083 -1.68413e-20)
(0.00136749 0.00164886 -5.94115e-20)
(0.00258983 -0.00325563 3.0767e-19)
(-0.0064578 0.0163327 5.7083e-18)
(-0.000714592 5.24986e-05 6.96785e-20)
(-0.0111176 0.0114393 2.40803e-18)
(0.00196791 1.53977e-05 -5.62359e-20)
(0.00118407 -0.000639646 5.61445e-20)
(0.0390849 0.0834114 -1.68501e-18)
(-0.00151067 0.00851165 -1.83127e-18)
(-0.00162952 -0.000151159 2.68592e-19)
(0.0112984 0.0021273 -8.6717e-18)
(-0.000370719 0.0121654 9.29016e-18)
(0.0390243 -0.0695428 3.96992e-19)
(-0.0237722 0.00209042 3.37805e-19)
(0.00175359 -0.00111493 -7.32719e-20)
(0.000557704 0.00327274 9.9153e-19)
(0.0309866 0.00105232 -4.20074e-18)
(0.000265653 0.0106631 -1.07262e-17)
(-0.00757269 0.00105517 -4.936e-19)
(-0.00380761 0.000169297 -1.50014e-19)
(-0.00987765 -0.00650068 1.09397e-19)
(0.0020893 1.6046e-05 -6.31371e-20)
(0.000689665 -0.00189741 6.52449e-20)
(-0.0355429 0.0272583 -3.75871e-19)
(-0.00872767 0.00627722 -9.40321e-19)
(-0.0028003 0.00243072 6.64785e-19)
(0.0480455 0.068339 1.88023e-19)
(-0.00380542 0.00431321 -3.16554e-18)
(-0.0553521 -0.159855 -1.35096e-18)
(-0.0235465 -0.0127062 1.19721e-18)
(-0.0303544 0.0110554 7.12061e-19)
(-0.00351495 0.00275556 1.10284e-18)
(-0.0142586 0.0128877 4.00091e-18)
(0.0187786 0.00399142 1.21457e-17)
(0.00366836 -0.00139367 4.25793e-20)
(-0.0106409 0.012458 3.25657e-19)
(-0.0358576 0.0178704 -1.59366e-19)
(0.00113442 -0.000618446 3.58437e-20)
(0.00216586 3.91837e-05 2.68822e-19)
(0.000648086 9.2991e-05 1.22526e-19)
(0.00346814 0.000897485 1.61375e-19)
(0.000724166 -7.58226e-05 -4.53685e-19)
(0.0163046 0.00306398 4.31888e-18)
(-0.000239049 0.00613856 4.48423e-19)
(0.00188623 -0.000173401 2.11937e-20)
(-0.00360668 0.0106761 -8.55863e-18)
(0.00199898 6.40955e-05 -1.27998e-20)
(0.0405035 0.00521968 4.73571e-18)
(0.00418872 -0.00084786 -2.66481e-21)
(0.00123161 -0.00215074 -4.85629e-20)
(0.0190188 0.00473024 -2.22122e-18)
(-0.00703328 0.00636982 -4.16368e-18)
(-0.0213294 -0.0125704 1.4488e-18)
(-0.000443778 0.00157237 6.54905e-19)
(0.000953291 0.00492152 -6.12918e-20)
(0.00179603 -0.00228123 -6.45451e-20)
(-0.000628375 0.00207613 9.48906e-20)
(-0.00217849 0.00413877 6.78853e-18)
(0.000157702 -0.0014666 -2.06998e-19)
(0.0134455 0.00281405 1.09577e-19)
(-0.00317691 0.00307849 -4.2891e-19)
(-0.000369189 -0.206012 -1.437e-17)
(-0.0265204 -0.0353546 -1.41995e-18)
(-0.0124966 0.0103955 4.86332e-19)
(0.0193067 0.00643888 -4.48509e-18)
(-0.000674862 0.00239294 6.17412e-18)
(0.00199176 -6.73579e-05 8.69298e-20)
(0.00230225 -0.00324116 1.94899e-20)
(0.0168738 0.00428822 -2.93701e-19)
(0.0440435 -0.143657 -4.99407e-20)
(-0.00264511 0.00283348 2.54455e-19)
(0.0139798 0.0028655 3.71861e-18)
(-0.0198477 -0.0321101 2.35725e-18)
(0.00127362 -0.000724947 -3.47125e-20)
(0.00142772 -0.00214397 4.45703e-20)
(-0.00355916 -0.000283198 -9.67697e-21)
(-0.00250918 0.0113156 5.35266e-18)
(-0.0249658 -0.00983798 -1.37276e-18)
(-0.00409291 0.00398414 3.45592e-18)
(-0.000560506 0.0020161 -5.84007e-20)
(-0.000902827 0.0031894 -1.69061e-18)
(-0.00106286 0.00931529 -7.22822e-18)
(0.00334271 -0.00597096 1.30202e-19)
(-0.0122558 0.0104738 -1.10779e-18)
(-0.000480033 0.00616157 3.52723e-18)
(-0.00222026 -0.000254287 -1.1748e-19)
(-0.00157904 0.00167485 2.68602e-19)
(0.00194326 -7.11806e-05 -4.10503e-20)
(-0.00209426 0.00408345 -2.97504e-18)
(0.00791153 -0.00678331 -7.29335e-20)
(0.000374447 0.0095661 1.55782e-17)
(-0.00403831 0.00128048 2.28917e-19)
(0.00406343 0.000932569 -6.34245e-20)
(0.013685 0.00283825 -9.65648e-18)
(-0.000510925 0.00496072 3.50645e-20)
(-0.0155874 -0.0963964 -1.90494e-18)
(-0.00358327 0.000269734 2.32312e-19)
(0.0023796 -0.00858612 -1.6228e-19)
(-0.00232076 0.00302911 2.90421e-18)
(-0.000169379 0.0106832 -1.61257e-18)
(0.00202207 2.91624e-05 5.95046e-20)
(-0.00118464 0.00817088 9.88431e-18)
(0.0373225 0.0272952 -2.25331e-18)
(0.0272728 -0.0101477 -2.40432e-19)
(-0.000597896 0.000618422 -1.5516e-19)
(-0.00396069 0.00144804 2.76069e-20)
(0.000745744 -4.82942e-05 4.81713e-19)
(-0.000391272 0.000339955 1.09339e-18)
(-0.00033441 0.00132132 7.93031e-19)
(-0.0249586 0.000875308 -1.57325e-18)
(0.00328875 0.00136099 1.13292e-19)
(-0.0275565 -0.00160568 9.00023e-19)
(-0.0119896 0.011376 6.78877e-19)
(0.00185184 -0.00103173 -1.01748e-19)
(-7.38837e-05 0.00965939 1.0147e-17)
(-5.62419e-05 0.00419221 6.5617e-18)
(-0.00081476 0.00417407 -1.2934e-17)
(-0.0135902 0.0119615 8.28695e-19)
(-0.00211314 -0.00123058 2.3333e-20)
(-0.00145458 0.00838543 4.27312e-18)
(0.104224 -0.0118201 1.73424e-18)
(0.0021153 0.000190183 3.41134e-19)
(-0.00671087 0.00660854 6.32586e-18)
(-0.00995892 -0.00377475 -5.28371e-19)
(-0.000549192 0.00605086 -1.12892e-18)
(0.000936542 -0.00164772 -1.05752e-21)
(0.00149304 -0.00131539 1.43917e-20)
(0.000741305 -0.00190979 3.04572e-20)
(0.0184736 0.00308987 -1.86283e-18)
(-0.00148174 0.00157244 3.15008e-19)
(0.00434258 -0.000580349 1.12336e-19)
(-0.000699379 0.0068349 -4.76128e-18)
(6.79666e-05 -0.00151778 1.8629e-19)
(0.00138864 -0.001628 -1.83393e-20)
(-0.015934 0.00535062 -3.02291e-18)
(0.0899027 0.00358978 2.87303e-18)
(-0.047243 -0.0100085 -1.30557e-18)
(0.133794 0.019642 -3.98989e-19)
(-0.00927277 0.0149931 -2.96704e-18)
(-0.00105689 0.00892964 -2.00838e-18)
(-0.000271452 0.00133422 3.31014e-18)
(-0.00266392 -0.0100563 1.06541e-19)
(-0.00629845 0.0212822 1.05248e-18)
(0.00464207 0.000564884 4.22802e-20)
(0.0183562 -0.000348217 -6.41582e-20)
(0.00168505 5.5264e-05 -3.04194e-20)
(0.00214157 2.89861e-05 2.9567e-21)
(-0.000606459 0.00149659 3.34675e-18)
(-0.00434705 0.0011094 6.65457e-20)
(-0.0207001 0.0231582 -1.59626e-18)
(0.000983663 -0.00164163 3.35215e-20)
(0.0293989 0.02688 -4.62026e-21)
(0.000758227 -0.00243815 -1.23545e-19)
(-0.0117654 0.0289877 -8.11846e-19)
(-0.00356406 0.000420706 -4.40453e-20)
(-0.00109119 0.0044052 -9.23492e-20)
(0.00081206 0.00271911 1.77077e-19)
(-0.00529648 0.00930978 -2.37159e-19)
(-0.00185171 0.00170564 -1.90678e-19)
(0.0369119 0.0368011 3.30335e-18)