/*--------------------------------*- C++ -*----------------------------------*\
| =========                 |                                                 |
| \\      /  F ield         | OpenFOAM: The Open Source CFD Toolbox           |
|  \\    /   O peration     | Version:  v2012                                 |
|   \\  /    A nd           | Website:  www.openfoam.com                      |
|    \\/     M anipulation  |                                                 |
\*---------------------------------------------------------------------------*/
FoamFile
{
    version     2.0;
    format      ascii;
    class       volVectorField;
    location    "450";
    object      ddt0(U);
}
// * * * * * * * * * * * * * * * * * * * * * * * * * * * * * * * * * * * * * //

dimensions      [0 1 -2 0 0 0 0];


internalField   nonuniform List<vector> 
13917
(
(-0.0106402 0.014669 -1.92861e-18)
(0.00192584 0.00221249 1.32514e-18)
(-0.00100229 -0.0112661 4.83214e-18)
(-0.00309527 0.00124796 1.04411e-18)
(0.00102113 -0.00314873 -1.20353e-18)
(0.0019407 -0.0285545 6.06006e-17)
(0.00322911 -0.00760508 4.11587e-18)
(-0.00868623 -0.0147583 1.67134e-18)
(-0.00561283 -0.163892 -1.2051e-18)
(-0.0256299 0.0239972 1.89115e-17)
(0.00494592 -0.0210177 -9.77055e-18)
(-0.00121716 -0.0165003 -1.51621e-18)
(-0.00320734 0.00125447 2.52959e-18)
(0.0312648 0.00618458 2.75048e-18)
(-0.00498012 -0.00273141 1.23969e-17)
(-0.00398935 -0.000307273 -2.19785e-19)
(0.000744711 0.0017863 2.298e-19)
(0.0194814 0.0111847 8.88355e-19)
(-0.00162678 -0.0161379 1.63332e-18)
(0.00118136 -0.000874144 -4.15903e-19)
(0.000373041 -1.90435e-05 -4.80259e-18)
(0.00566134 -0.00712612 -4.79681e-18)
(0.00145343 -0.00179094 4.36351e-18)
(-0.00858171 -0.0157074 -2.45203e-17)
(0.00128312 -0.00285846 -1.11072e-18)
(0.0123679 -0.0166332 -4.40039e-18)
(-0.00154883 -0.0147855 1.85532e-17)
(-0.0058902 -0.0180767 3.0396e-17)
(-0.00910776 -0.0366888 3.00418e-19)
(0.000965705 0.0588497 -6.26904e-17)
(-0.00893725 0.0184125 3.78023e-18)
(-0.00271281 0.00766697 -1.36546e-18)
(-0.00353767 -0.0122961 3.09826e-17)
(0.000231909 -0.0068823 -2.10491e-17)
(0.000553344 -0.00337494 -5.48022e-19)
(0.0096927 -0.0198674 -8.93709e-18)
(0.00154004 -0.00170187 -6.9519e-19)
(-0.01711 -0.0114883 6.27496e-18)
(-0.00363133 0.000461095 -2.13067e-18)
(0.172874 0.0148107 3.62447e-18)
(-5.61215e-05 -3.83507e-05 2.18083e-18)
(8.10161e-05 -7.28192e-06 -6.56377e-18)
(-0.000934341 0.000559987 -8.14939e-20)
(-0.00704853 -0.0224307 -6.84672e-17)
(0.00204703 0.00282198 1.20007e-18)
(-0.000616491 -0.00817015 -4.97822e-18)
(0.0205822 0.0100423 -1.80546e-18)
(0.0217812 -0.00446174 5.87884e-20)
(0.00401176 -0.0339409 -6.68706e-18)
(0.000874816 -0.000103774 3.26497e-21)
(0.00789382 0.00344235 7.60938e-19)
(-7.41278e-06 -0.00457763 4.18238e-18)
(-0.000753605 -0.0331469 -2.30148e-17)
(0.000116967 -0.00717457 1.39501e-17)
(0.000571288 0.00168909 2.14251e-18)
(0.0062988 0.00734241 7.22228e-19)
(0.00545204 -0.0209919 1.1297e-17)
(0.000556545 -0.00192315 -3.53371e-18)
(0.00346337 0.00664645 1.43232e-18)
(0.00215916 0.00269868 -8.77812e-19)
(-0.00252262 0.0462745 -2.55549e-16)
(0.00213139 0.00233733 -5.24678e-18)
(0.0256376 0.00288491 7.51954e-18)
(0.00120928 -0.000973729 3.47624e-18)
(0.00157808 -0.0290162 4.06924e-18)
(0.159269 0.0426621 -2.38756e-17)
(0.000335565 -0.00338749 9.25477e-18)
(0.000356864 -0.00390601 -3.89984e-18)
(0.0217828 -0.0287715 6.36965e-19)
(-0.0124923 0.00709533 1.97686e-18)
(0.000844453 -0.00298024 -2.35257e-19)
(0.000951439 -0.157844 -8.83816e-18)
(-0.366777 0.00244055 2.59496e-17)
(0.000734423 -0.00284083 7.71784e-19)
(0.000470691 -0.0355126 8.76758e-17)
(-0.00929083 -0.0212146 -3.66859e-18)
(-0.208469 -0.0442834 -2.08541e-17)
(0.00294455 0.0037793 6.94596e-19)
(0.0102843 -0.0267486 3.29732e-18)
(0.000418886 -0.000114438 6.52721e-19)
(0.000861675 -0.000240119 3.06459e-19)
(0.000319323 -0.0031745 1.88264e-18)
(-0.00129924 -0.0291768 -8.70333e-17)
(-0.0231292 -0.0142915 1.84296e-17)
(0.0656556 0.0540721 1.80319e-17)
(0.00298494 0.00366427 3.14682e-19)
(0.0012175 -0.000517695 7.31615e-18)
(0.17011 0.0635809 -2.34937e-17)
(0.00332399 0.00323985 3.71172e-19)
(-0.00114664 0.000557779 -6.41887e-19)
(-0.1925 -0.09269 1.98709e-17)
(-0.0237718 0.042294 9.64617e-19)
(0.00204801 0.00189997 -4.62107e-18)
(-0.00242834 -0.00238166 -5.76995e-18)
(0.16009 0.0645947 2.20031e-17)
(0.00343552 -0.0286826 1.94998e-17)
(0.0117815 -0.0202356 -3.6989e-18)
(0.0220573 0.000423039 9.98717e-19)
(-4.2758e-05 -0.0273959 4.94222e-18)
(-0.00285602 -0.0231991 -8.27628e-17)
(0.000473079 0.000322486 6.27684e-18)
(0.000140413 -0.0111074 4.43272e-18)
(-0.00640056 -0.02193 5.56307e-17)
(0.00211829 0.00343514 -1.53152e-19)
(0.00123043 0.00109523 -8.26649e-19)
(0.0187355 -0.188214 2.75626e-17)
(-0.0143952 -0.0345585 -4.53122e-18)
(0.0237523 -0.00520544 2.36552e-18)
(0.000810189 0.00197955 1.62794e-18)
(-0.0130594 0.01829 -1.42289e-17)
(0.00494101 0.0310803 4.29145e-17)
(0.180366 0.0136287 -3.14519e-18)
(-0.00175975 -0.0202562 5.16406e-18)
(0.00701015 -0.190867 -1.51311e-17)
(-0.000285932 -0.00497103 -6.62524e-18)
(0.00631541 -0.0345321 1.45941e-17)
(0.00141923 -0.00203453 -3.58065e-18)
(-0.00137072 -0.0337295 1.21774e-16)
(0.0379608 0.00136642 -1.32698e-17)
(-0.000767467 -0.00708007 -1.54911e-17)
(9.43243e-05 -9.94884e-06 5.87453e-18)
(0.0227509 -0.0283131 5.32366e-18)
(0.0344099 0.00744326 1.07485e-17)
(-0.00516481 -0.0174509 -2.63381e-17)
(0.000698996 -6.55553e-05 3.36349e-18)
(-0.00206538 -0.00233703 -2.75668e-18)
(0.00264535 0.00263988 4.32708e-18)
(0.000800061 -5.06419e-05 1.92768e-18)
(-0.000868774 0.000378702 -4.41157e-19)
(0.000999575 -0.0292404 -1.82422e-17)
(0.0237236 0.00485148 -1.45066e-17)
(-0.000186785 -0.00491771 2.37044e-18)
(0.00166573 0.00287184 -2.4939e-18)
(0.000202104 -2.20477e-05 -1.33369e-18)
(-0.150486 0.199359 -5.8512e-17)
(-0.00664918 -0.0153372 2.94779e-17)
(-0.0115491 0.0140345 -9.24329e-20)
(-0.002234 -0.0235396 -1.62061e-17)
(0.000334622 -0.00349232 -1.10242e-17)
(-0.000494493 -0.00703846 1.12753e-18)
(0.0099047 -0.0205111 -4.12603e-18)
(0.000994011 0.0015612 3.53377e-18)
(-0.0005794 -0.00438254 1.02048e-17)
(-0.00613943 -0.0240053 9.76738e-17)
(0.000395189 -0.00391664 9.37718e-18)
(0.0316853 -0.137199 -5.24959e-18)
(-0.0109622 -0.0361018 8.20557e-18)
(-0.000164195 -0.00451824 -5.5397e-18)
(0.000531502 0.00139973 2.77974e-18)
(-0.00471209 0.00690725 -1.16079e-18)
(0.0130359 -0.00835331 -1.86269e-18)
(0.00419228 -0.0337069 4.13363e-17)
(0.00627797 -0.0169165 2.33481e-18)
(-0.0160629 -0.00143514 1.90743e-18)
(0.00147314 0.00895138 -1.29754e-18)
(0.0721368 -0.139669 -2.10102e-17)
(-0.0112338 0.00648916 -1.58729e-18)
(-0.00259641 -0.0317042 9.25761e-18)
(-0.225327 -0.0356465 4.29662e-17)
(-0.163678 0.199474 6.90458e-17)
(-0.00229167 -0.00496224 1.20311e-17)
(0.00150728 -0.0147542 -3.86876e-17)
(0.000233823 -6.76368e-05 -1.90162e-18)
(0.0132521 -0.0197039 7.95133e-18)
(-0.00027242 -0.0197016 -1.68067e-18)
(0.00126647 -0.0267396 -5.22133e-18)
(0.00203571 0.00353675 2.18518e-20)
(0.0161991 -0.00564166 -5.8345e-20)
(0.00168763 0.00228057 2.35285e-19)
(0.000378679 -0.0115846 -6.94655e-17)
(-0.0165442 0.0015612 6.94944e-19)
(0.0763085 0.00418219 -9.27184e-17)
(-0.00398941 -0.0222866 7.22582e-19)
(-9.57985e-05 0.00170413 -7.71736e-18)
(-0.00584452 -0.0689274 -4.46685e-17)
(-0.0174575 -0.00457263 1.736e-18)
(0.0211023 0.00410252 -1.48038e-17)
(0.00144249 -0.0325959 -3.9334e-18)
(0.0225518 -0.12146 1.23935e-17)
(0.00206051 0.000713928 -8.52701e-18)
(-0.0223221 0.0460202 3.76319e-17)
(-0.00882736 0.0202453 -2.70364e-18)
(0.00100939 0.00157281 -6.46728e-19)
(0.00139161 -0.000640774 -9.4034e-18)
(-0.00682806 -0.00641535 2.83881e-17)
(0.0147074 -0.016856 -7.46585e-18)
(-0.0773605 0.0887779 2.69877e-17)
(0.0575583 -0.150572 7.33373e-19)
(0.0132498 0.0128143 -4.39984e-18)
(-6.32248e-05 -0.0229834 4.15984e-18)
(0.00470268 -0.0232554 -1.25463e-17)
(0.0490254 0.0509722 2.17668e-17)
(-0.0872695 0.0602643 7.58419e-17)
(0.00143649 -0.00214212 -4.87502e-18)
(-0.00183329 -0.0240301 -8.61149e-17)
(-0.00175106 -0.0142193 5.76698e-17)
(-0.00117177 1.95709e-05 4.68514e-18)
(0.00250652 0.00196134 1.35623e-19)
(-0.0166815 -0.031339 -1.49859e-17)
(0.109981 0.0534269 -2.85157e-18)
(0.00106387 1.83718e-05 -3.12766e-19)
(0.00094852 -0.000100343 2.00898e-18)
(0.0102341 -0.0055324 1.46843e-20)
(0.012144 -0.00826288 1.86359e-18)
(-0.378806 -0.00312297 -6.79319e-17)
(0.17252 -0.0688942 3.62707e-18)
(0.000647927 -0.00339103 7.52458e-19)
(0.000574326 -0.0018656 4.7781e-18)
(0.0206212 -0.000600521 9.65532e-20)
(0.00896681 -0.0100226 -1.37802e-17)
(-0.000586636 -0.0041197 -1.26566e-17)
(0.00163342 -0.00747859 -1.13524e-18)
(-0.377532 0.000101383 -1.07441e-18)
(0.0016916 -0.02258 -1.66698e-18)
(0.00109383 0.00105608 1.85836e-18)
(-0.00640225 -0.0340829 3.15577e-17)
(0.0188459 -0.000553126 -8.4556e-19)
(-0.0202458 0.0136528 -4.35218e-18)
(0.00135701 -0.00166073 -1.45492e-18)
(-0.0045565 0.0493016 1.41391e-16)
(0.00198878 0.00061119 3.83714e-18)
(0.0133348 0.0511696 1.20686e-17)
(1.14657e-05 -4.6441e-05 3.39598e-18)
(-0.0351638 -0.0199462 -5.5218e-17)
(0.00961572 -0.175265 3.36049e-17)
(-0.00432089 -0.000242626 -9.01964e-18)
(-0.0020837 -0.0257698 -1.95715e-17)
(0.00107106 0.00928086 7.53547e-20)
(0.00124547 0.000957136 -2.873e-18)
(0.00959151 -0.0202182 8.91563e-19)
(-0.0042198 -0.0220758 -2.2628e-18)
(0.0139632 0.0119113 -1.57173e-19)
(-0.0034316 -0.0136825 2.10848e-18)
(-0.346164 -0.0399802 5.09101e-18)
(-0.000235549 0.000283828 3.51142e-18)
(-0.0030255 0.00817962 2.2614e-19)
(-0.186158 -0.107237 -6.37512e-17)
(0.0228222 0.0747643 4.60235e-17)
(0.000786366 -0.000108413 2.24278e-18)
(0.00112227 -0.000688646 4.06694e-18)
(0.204491 0.00697361 -3.69068e-18)
(0.0144309 -0.0226458 1.37312e-17)
(9.82278e-05 5.94419e-06 -3.84225e-18)
(0.00745593 -0.021929 -7.97922e-18)
(0.0428012 0.0168393 -1.99802e-17)
(0.00213524 -0.014302 2.07135e-17)
(-0.00719842 0.0142256 7.3138e-19)
(0.000590996 -8.71055e-05 2.57573e-18)
(-0.0154072 -0.00826667 -1.59681e-18)
(-0.374694 -0.0202666 1.64122e-17)
(-0.000620932 0.00127085 4.7236e-19)
(-0.0361131 0.0510388 -3.76925e-17)
(-0.00336846 -0.0249959 -9.0939e-18)
(0.00216485 0.00257662 2.24759e-18)
(0.000669126 -0.00217435 -1.16905e-17)
(0.00444086 -0.0144862 -6.35293e-18)
(0.183014 -0.000815198 1.6806e-18)
(0.00570386 -0.0164951 -3.95865e-18)
(-0.0072956 -0.00655379 1.45814e-17)
(-0.0050871 -0.00246757 -1.20858e-17)
(4.9045e-05 9.91262e-06 1.16942e-17)
(0.0421439 0.00863989 -1.07829e-17)
(-0.17646 0.201946 6.37854e-17)
(0.0101243 -0.0255759 8.92156e-18)
(0.00129046 0.000915976 2.25038e-18)
(-0.238915 0.0530666 -2.11874e-18)
(-0.010829 0.00127019 1.70994e-17)
(-0.00466306 -0.0307436 -1.90153e-17)
(0.0113338 -0.0274706 -1.70817e-18)
(-0.00959798 -0.0222471 2.26085e-18)
(0.000558105 -0.000200487 -9.5858e-18)
(0.000648922 -6.3779e-05 -1.51759e-18)
(0.0210585 0.00762632 -1.07346e-17)
(-0.063835 -0.0257939 -1.84276e-17)
(0.0379923 -0.015227 -1.93634e-20)
(0.00233853 0.00626732 -1.98357e-18)
(0.194932 -0.0698653 -1.05179e-17)
(-0.00993944 -0.00852601 5.02931e-20)
(-0.00112189 0.000273381 3.24119e-18)
(-0.0725136 0.0921728 7.59456e-17)
(0.00116169 -0.000850182 -2.10446e-18)
(-0.00850557 -0.0651298 1.4179e-17)
(-0.00199517 0.000182354 -1.35793e-21)
(0.00027828 6.28828e-06 -1.45077e-18)
(-0.00602617 -0.000465086 -9.37742e-18)
(-0.0152749 -0.00191607 -7.02052e-18)
(0.000986173 -0.014594 4.53991e-17)
(0.00898747 -0.0214914 1.06718e-17)
(-0.00991978 -0.00214308 1.6974e-18)
(0.000644879 0.00204759 3.3268e-18)
(-0.0216905 0.158062 -6.88548e-17)
(-0.00422894 -0.0144252 -6.32685e-18)
(-0.183476 0.19789 7.28732e-17)
(0.00137382 -0.00170554 -1.35176e-18)
(-0.00879202 -0.0382849 -6.16846e-18)
(0.000396443 -0.00141974 1.27843e-18)
(0.000629462 0.001944 2.79444e-19)
(0.00140514 -0.00201508 6.77272e-18)
(-0.0118999 -0.0388291 8.44944e-18)
(0.00103659 -0.000132298 1.9639e-18)
(0.0137206 0.0549012 1.51359e-17)
(-0.00738854 0.0131928 -2.68661e-19)
(0.0014936 0.00222667 -2.3734e-18)
(0.0119389 -0.00644678 -8.88474e-20)
(0.00150532 0.00399711 9.83495e-20)
(-0.00804262 -0.032285 -1.61535e-16)
(-0.0170813 -0.0041056 -1.07281e-18)
(-0.0205504 0.0401168 -1.14935e-18)
(0.000729339 0.00193262 -3.54194e-18)
(0.000608293 -0.00215755 6.8276e-18)
(0.0213488 0.0237152 -1.30109e-17)
(0.0325507 0.00714166 4.41249e-18)
(0.00134453 -0.00197612 -8.42626e-18)
(0.000253392 -5.70607e-05 -1.07191e-18)
(-0.0741655 0.092163 6.8021e-17)
(0.00186127 0.00123695 -5.07452e-19)
(-0.34847 -0.0161734 -1.39837e-17)
(0.000888168 0.00189856 1.61091e-18)
(-0.0358638 -0.0222258 5.7698e-17)
(-0.00175317 0.001278 -2.53926e-18)
(-0.0733398 -0.0344339 -7.63863e-18)
(0.00792831 0.00108255 3.53622e-18)
(0.000753254 -0.035018 -1.44102e-17)
(-0.002406 -0.00474436 -7.00716e-18)
(-0.151017 0.195998 -5.18056e-17)
(-0.00605255 -0.0308062 3.89953e-17)
(-0.00594426 0.000336812 7.15145e-18)
(0.015788 -0.0227952 -4.38376e-18)
(-0.0191273 -0.0351083 -3.23593e-18)
(-0.000411878 -0.000621314 -1.46983e-18)
(0.0101578 0.000689285 7.64099e-18)
(-0.00108327 -0.0232876 6.99252e-17)
(-0.0195448 -0.00332401 -1.39433e-17)
(-0.00107432 -0.00622296 1.05686e-18)
(0.0981146 -0.00816081 -5.50464e-19)
(-0.00249346 0.0091889 1.79629e-18)
(0.0416422 0.0322506 1.61516e-17)
(-0.00421299 -0.0290808 1.81299e-17)
(-0.017531 -0.0232566 4.17199e-18)
(-0.0176819 -0.0222714 -7.84459e-18)
(-0.00091601 -0.0100846 -1.19089e-17)
(0.00071052 -0.00031817 1.10589e-17)
(-0.0186132 0.00169103 -2.81161e-19)
(0.00217174 0.036216 -1.24161e-16)
(-6.36432e-05 -0.00295362 5.47059e-19)
(-0.00220356 0.000693574 1.70108e-17)
(0.00399127 0.0014107 -1.38178e-17)
(-0.0142134 -0.0320092 2.33137e-17)
(0.00020431 0.00212467 -1.37e-18)
(0.00454116 -0.0232095 1.65561e-18)
(-0.00889839 -0.0361967 -6.15066e-18)
(0.000471108 3.65958e-05 -1.21556e-18)
(0.0427792 0.00284968 1.26662e-17)
(0.00867086 -0.0205407 6.44532e-18)
(0.00117838 -0.000923163 -9.52332e-19)
(0.00130448 -0.000263137 8.24439e-19)
(0.000112297 -0.00123077 -6.68741e-19)
(0.000722605 0.00141953 2.71871e-18)
(0.0439997 0.132973 -4.36109e-17)
(0.0107094 -0.0981381 -2.99652e-17)
(0.00671771 -0.0303169 3.42995e-17)
(0.0149273 0.0302035 1.75144e-16)
(0.00106533 -0.00252574 2.12613e-20)
(-0.0404016 0.0543123 4.39524e-17)
(-0.0512783 -0.00670754 -1.6578e-17)
(0.0104309 -0.00228001 -8.87225e-19)
(0.00155562 -0.00696465 -8.09749e-18)
(-0.0626305 -0.0312482 -2.05458e-17)
(-0.000900252 -0.182199 -2.26808e-17)
(0.000512178 0.00054514 -2.74837e-18)
(0.00929686 -0.0260221 -1.28407e-20)
(0.00160653 4.8435e-05 -3.01002e-18)
(-0.00879843 0.0521731 2.08659e-17)
(0.00204445 0.00267091 3.16167e-18)
(-0.00121561 -0.0375307 3.69374e-17)
(0.0447892 0.019501 1.92087e-17)
(-0.00408061 0.000188153 -1.92542e-18)
(0.000916251 -0.000581594 8.42054e-18)
(0.0210154 -0.000275065 -7.38289e-19)
(-0.0256109 0.0491356 1.63041e-17)
(0.0334621 0.00852972 4.25052e-18)
(-0.00712921 -0.0596386 7.87728e-18)
(0.052251 0.0286258 -2.05042e-17)
(-0.00840315 0.00777684 1.74075e-17)
(-0.0170454 -0.00882443 5.64026e-18)
(-0.022945 0.0230399 -2.67813e-17)
(0.00116288 -0.000692385 -6.80223e-18)
(0.0161175 0.0695759 -3.95545e-17)
(0.00847341 -0.00855906 -1.95321e-17)
(0.00045511 -0.00101496 -6.98899e-18)
(-0.102079 0.181503 7.44532e-18)
(0.000688533 -0.00310842 -1.81499e-18)
(0.128002 -0.0060568 -3.93369e-17)
(-0.00170186 0.00122955 1.86068e-18)
(0.00073123 -0.000193235 -4.76121e-18)
(0.000173778 0.00351733 -2.11669e-18)
(0.0102811 -0.0587733 1.18341e-18)
(-0.000188507 0.00338669 2.57865e-18)
(0.152422 -0.00827607 -2.49384e-18)
(0.0594135 0.0845807 -1.24718e-17)
(0.00527168 -0.0209107 1.3482e-17)
(-0.00447109 -0.0312035 4.47999e-17)
(-0.000226982 -0.000445719 -6.69821e-19)
(-0.00563667 -0.0324133 -1.30311e-17)
(-0.00418664 -0.0315041 -1.42169e-17)
(0.00144254 -0.00168986 -3.83246e-18)
(-0.0138659 -0.031877 1.0179e-18)
(7.71771e-05 -0.00293197 -3.38849e-18)
(0.000668791 -0.0030939 4.9246e-18)
(-0.00538836 0.0566692 9.41237e-18)
(0.000286422 1.52081e-05 1.49754e-19)
(0.000429882 -0.00304416 -1.6036e-17)
(0.00114004 0.000113327 4.63187e-18)
(0.105248 0.110678 -1.40301e-17)
(0.000415497 -4.96053e-05 -7.79017e-18)
(0.0754998 -0.01082 -1.55834e-18)
(0.0157393 -0.0403112 2.04447e-18)
(-0.0064021 0.05335 -5.32831e-18)
(-0.0871855 0.0559368 4.13051e-17)
(0.0462157 -0.0203192 1.07938e-18)
(-0.0865329 0.0259462 -1.87662e-17)
(0.00864701 -0.00231577 4.91011e-19)
(0.0010017 -0.00250097 4.30187e-18)
(0.0725002 0.0403776 -2.22027e-17)
(-0.00320402 0.000470761 2.03541e-18)
(-0.00388008 0.00909879 -1.75451e-18)
(0.00136276 -0.00227408 1.78068e-18)
(0.0140781 -0.112526 9.77717e-18)
(0.00830368 -0.00890045 1.7801e-17)
(0.0199425 -0.0393155 -1.10948e-17)
(-0.00392761 -0.00138971 -3.84604e-18)
(0.0489286 0.00969429 -7.0548e-18)
(-0.000738998 -0.00598843 -6.11201e-18)
(-0.00462743 0.000179925 -1.25831e-18)
(0.0305118 0.00727939 -9.23836e-18)
(-0.000259802 0.00242992 2.245e-18)
(0.00958951 -0.0274895 6.10432e-18)
(0.00134052 0.00208748 -1.80306e-18)
(0.000971134 -0.00015775 4.58988e-18)
(-0.328685 -0.01928 -1.04493e-17)
(0.0248284 0.00443872 -8.42398e-18)
(0.0223697 0.00353487 6.20819e-18)
(-0.0550419 0.0187089 5.14144e-17)
(-0.0199034 0.0489508 -8.56185e-18)
(0.00162688 -0.00134541 2.06432e-17)
(-0.105842 0.07663 -4.35971e-17)
(-0.110764 -0.0207258 1.72367e-17)
(-0.000913916 0.00036892 7.62328e-19)
(0.0218352 0.00360817 -7.92412e-19)
(-0.000106726 0.00249339 -4.42406e-18)
(0.000217409 -0.00210255 -6.42858e-18)
(0.188822 -0.047312 3.9429e-17)
(0.0216157 0.00872002 5.98013e-18)
(-0.00256119 7.41674e-05 -1.65497e-18)
(0.0192422 0.0278526 -2.08997e-17)
(0.00994773 -0.000745177 7.14228e-19)
(-0.0874763 -0.0136522 -4.11782e-19)
(0.00133583 -0.00165452 1.8188e-18)
(0.0213389 -0.0193212 -1.10835e-17)
(0.0651899 0.0312779 1.25375e-17)
(-0.0658217 -0.040261 1.51355e-17)
(0.0426114 -0.0120744 -6.93136e-18)
(0.000381719 -4.44785e-05 1.68747e-18)
(0.000713939 -0.00110687 5.29069e-19)
(-0.00163332 3.33946e-05 -7.93668e-19)
(-0.0115603 0.00572632 -1.25418e-18)
(0.000247867 0.000514956 3.8132e-18)
(0.0178375 -0.0204549 -5.60176e-18)
(0.00623526 -0.0296784 -6.17411e-17)
(-0.00991021 -0.00146646 8.75873e-18)
(-0.020671 -0.0166017 -3.3722e-17)
(0.00369523 0.00698006 -1.02647e-18)
(0.0122991 -0.0198728 -3.54695e-18)
(-0.0997901 0.0920719 2.17595e-17)
(-0.0107844 -0.0364205 1.43185e-17)
(0.0049718 -0.020931 -6.85969e-18)
(0.0108649 -0.0203311 -2.52881e-18)
(0.0178201 -0.0197793 1.07496e-17)
(0.00709213 0.0314753 4.40243e-17)
(0.0739834 0.0109533 5.84535e-18)
(0.00113661 -0.0083973 7.81665e-19)
(0.00496343 -0.0226616 2.3498e-18)
(0.000154241 -0.0292008 -2.97397e-17)
(-0.00257161 -0.0110111 1.88441e-18)
(0.0233133 -0.0100269 -1.35898e-18)
(-0.00228965 0.000100916 -2.01606e-18)
(0.0322578 0.125249 3.20095e-17)
(0.00524587 0.00398345 1.49324e-18)
(-0.000305927 0.000929878 -2.81832e-19)
(-0.0104541 0.00550918 7.06331e-19)
(0.00301868 0.00381154 6.59251e-20)
(-0.0928924 -0.0177467 -5.53208e-18)
(0.0149335 -0.192026 1.16814e-17)
(0.00181477 0.00108365 3.63829e-19)
(-0.00160314 0.000231633 8.10129e-18)
(0.0134173 -0.0135085 -1.2649e-17)
(-0.0677928 0.0200939 -8.80317e-18)
(0.000306576 1.21651e-05 -6.20016e-18)
(0.0657876 -0.00813991 2.74667e-18)
(-0.000124917 0.00160072 -1.71124e-19)
(-0.0648624 0.0624956 -1.47304e-17)
(0.00211561 0.00105655 1.217e-17)
(-0.323089 0.0368531 -5.96117e-18)
(0.00995737 -0.0611341 -1.2595e-17)
(-0.004148 0.00732402 1.94764e-18)
(0.001764 0.00315406 -2.85018e-18)
(0.0408911 -0.0235065 -7.07534e-18)
(-0.0599619 0.0872548 -3.5644e-17)
(0.304104 -0.0729871 4.57668e-17)
(5.5476e-05 1.25532e-05 -7.86293e-18)
(-0.375478 -0.00592686 -6.12162e-17)
(-0.0024593 -0.0329704 6.56229e-18)
(-0.0638182 0.0834744 -7.22124e-18)
(-7.24138e-05 0.00100976 2.18702e-18)
(0.0738904 0.0591779 -2.23007e-17)
(-0.167727 0.175641 -4.01278e-17)
(0.0076962 -0.0035796 -4.21543e-19)
(0.00125752 -0.000138982 -7.28976e-18)
(0.000215435 0.00106508 -1.68015e-18)
(-0.010693 -0.021607 9.76375e-21)
(0.147653 -0.0181976 2.96792e-17)
(-0.0030296 7.62524e-05 -2.77004e-19)
(0.0013275 -0.00034921 3.05775e-18)
(0.000783605 -0.000214443 -6.61124e-18)
(0.000702886 -0.000213459 4.78781e-18)
(-0.259141 0.0380007 -2.32751e-18)
(0.189238 -0.0308397 2.38347e-17)
(0.00832134 -0.00304683 4.8211e-19)
(-0.0673693 0.0975252 -1.53137e-16)
(0.000489307 -4.58726e-05 1.68322e-18)
(0.000515968 0.000259652 -9.43086e-18)
(0.0461083 0.00742181 6.5935e-18)
(-0.242225 0.139218 -8.09122e-19)
(0.00559382 0.0126864 -1.38127e-18)
(0.00188435 0.00233842 -7.19564e-19)
(0.000784064 -0.00302995 -5.19961e-18)
(0.000293879 -0.00382392 -1.74222e-17)
(-0.0640662 0.0838914 -2.37559e-17)
(0.0417165 0.0466778 2.03908e-17)
(0.000950368 -0.000461611 -3.94318e-18)
(0.000720528 -0.00377261 -3.21289e-19)
(0.00935799 -0.0269928 -7.06821e-18)
(0.00186831 -0.00782492 3.70949e-19)
(0.00784016 0.000629648 -4.58266e-19)
(0.000615329 -0.0014106 -1.28869e-17)
(0.000501528 0.00328617 -3.78483e-19)
(-0.0036481 0.0053073 3.30376e-20)
(0.0217827 -0.010153 -1.05127e-18)
(-0.0191282 -0.0333673 1.60701e-18)
(-0.0833136 0.0922069 1.98394e-19)
(0.0787651 0.035898 3.63007e-17)
(0.0373204 -0.00601637 -7.72944e-19)
(0.167275 -0.0809893 -1.0992e-19)
(-0.0179936 0.040626 1.09878e-17)
(0.00131094 -0.00184389 5.31474e-18)
(-0.362314 -0.020902 -6.17096e-17)
(0.000242461 -0.00381014 1.48574e-17)
(-0.00259744 0.000698319 -1.93161e-17)
(0.00161023 0.000740864 -8.50242e-19)
(0.0740298 0.0951839 -6.69342e-17)
(-0.0215767 -0.0156147 1.93264e-18)
(-0.000399441 3.26586e-05 -2.5387e-18)
(-0.0823012 -0.0428923 -1.95775e-17)
(0.00090775 0.0671822 -3.01372e-17)
(0.0317802 0.0420229 -9.87699e-18)
(0.0386956 -0.00440285 -2.45883e-18)
(-0.007167 -0.0107916 4.14927e-18)
(0.0109924 -0.00100928 -4.34883e-19)
(0.000881768 -0.000762047 -8.29873e-18)
(-0.181229 0.196603 -8.58264e-17)
(-0.0807481 -0.0372299 1.15984e-17)
(-0.00714093 -0.00872124 8.64823e-18)
(0.00104528 0.00195161 -7.82463e-18)
(0.0079661 0.00935476 2.07727e-18)
(-0.0711752 0.100343 1.12956e-16)
(-0.0668063 -0.036435 6.63433e-18)
(-0.180065 -0.00263295 9.92837e-19)
(0.0247104 -0.00028718 -1.29291e-18)
(-0.0585271 0.0203801 -4.16005e-17)
(-0.00402093 -0.000630042 1.07344e-17)
(0.00218939 0.0058303 1.42845e-19)
(0.00020069 -0.00145368 3.74908e-18)
(-0.0124899 -0.0159574 2.06975e-18)
(-0.00535102 -0.0228095 3.4125e-17)
(0.000363669 -0.00457676 -4.53583e-18)
(0.0176782 -0.00129037 2.56365e-19)
(-0.00292023 -0.0244297 -5.57464e-17)
(-0.00580623 -0.00983439 -7.23109e-18)
(0.296269 -0.0689271 -4.9526e-17)
(-0.0016216 0.0038085 9.21527e-19)
(0.011365 -0.0193263 5.02154e-18)
(0.0135362 -0.0582498 1.27287e-17)
(-0.00677892 0.00045011 -6.51819e-19)
(-0.000839228 -0.0040362 -3.31553e-18)
(-1.29131e-05 -0.0360273 4.7894e-17)
(0.017612 -0.0625645 -5.18456e-18)
(-0.00541906 -0.0885938 -9.53744e-18)
(-0.0455334 0.105662 4.18388e-17)
(-0.000869424 0.000415379 3.25298e-18)
(0.0391297 0.0040533 4.93085e-18)
(-0.0107579 -0.0208119 -9.67971e-19)
(-0.0003175 1.33931e-05 -1.42497e-19)
(0.00300788 0.0128957 2.78556e-18)
(0.0131175 -0.0131689 -1.39241e-18)
(-0.00391033 -0.0118231 -3.896e-17)
(0.00164492 0.054618 1.51347e-18)
(0.0115926 -0.0245518 3.54496e-18)
(0.0686407 0.00665475 -3.10897e-18)
(-9.61761e-05 -0.00655731 1.095e-18)
(-0.182338 0.201934 -2.34601e-17)
(0.00195293 0.00434126 1.39938e-19)
(-0.119657 -0.0170188 4.45944e-18)
(0.000480668 -8.63366e-05 -1.9619e-18)
(0.0010166 -0.000572821 5.39318e-18)
(-0.0100001 -0.0364846 -2.05135e-17)
(0.0203042 -0.0830935 7.23136e-18)
(-0.000272586 -0.030928 -3.61443e-17)
(0.00216033 0.00426268 -1.06266e-19)
(0.000140175 0.00179985 -3.29575e-18)
(0.000731927 -0.00373957 2.81551e-18)
(-0.00911066 -0.0091717 -4.60404e-19)
(-0.00069685 -0.0353338 -3.98859e-17)
(-0.00119676 -0.0263119 -5.57641e-19)
(0.00206476 0.0061145 -6.4634e-19)
(0.00467248 -0.0205971 5.9801e-18)
(0.0196122 -0.00102509 2.7073e-18)
(0.00186435 0.00105389 -1.11593e-17)
(-0.0272522 -0.0338909 -4.06497e-18)
(-0.0022297 -0.02653 -4.1525e-18)
(0.00597133 -0.0358166 6.01835e-18)
(0.00138242 -0.00133112 -6.41059e-18)
(0.0631577 0.000235257 -1.62979e-18)
(0.00282757 0.00386252 -1.17964e-18)
(0.07545 0.0879494 3.33415e-17)
(-0.0251245 0.0264764 -2.07041e-17)
(-0.0224553 -0.0144282 1.66031e-18)
(0.00568374 0.00969893 -2.40628e-18)
(0.000426161 -8.26811e-05 -1.08409e-17)
(0.000271184 0.00129898 -2.56633e-18)
(0.0026937 0.00275035 -4.34905e-18)
(-0.0205204 -0.0224942 1.27058e-17)
(-0.0010213 -0.00832619 -2.38269e-18)
(0.0171882 0.132875 -7.18591e-17)
(0.00605117 -0.0420054 -5.62942e-17)
(0.0162292 -0.00454293 -4.04583e-19)
(0.000499638 -3.13694e-05 -6.58695e-18)
(0.0752448 0.0184193 1.66306e-17)
(-0.00202805 -0.0327197 4.37423e-17)
(0.00773131 -0.0195745 1.26946e-17)
(-0.000300108 0.00129998 -3.19895e-18)
(-0.0011868 -0.00760245 4.56125e-17)
(0.0012335 -0.000467596 -2.53912e-18)
(-0.00420471 -0.00251414 -2.30138e-18)
(0.00312178 0.00678753 -6.28471e-19)
(-0.170325 0.175596 7.62707e-18)
(0.000682035 -0.000162382 1.03429e-17)
(0.0796723 0.0336926 2.79125e-17)
(-0.00161748 -0.00220488 1.00578e-18)
(0.00485308 -0.0209891 -1.40727e-18)
(-0.0293286 0.0378232 -1.3902e-17)
(-0.354445 0.0245377 1.24005e-18)
(-0.0248592 -0.0133429 -3.26799e-18)
(0.000510905 0.000986915 -2.85961e-18)
(-0.0901495 -0.0311775 5.34735e-17)
(-0.261435 0.00760607 -1.15845e-17)
(0.000919425 0.000131115 -2.74448e-19)
(0.000680881 0.000704457 5.82516e-19)
(0.0193577 -0.0717566 1.74898e-17)
(-0.0302462 0.099846 -3.43759e-17)
(0.0348233 -0.0149779 9.94754e-20)
(0.000564218 1.15982e-05 1.27403e-18)
(0.0019597 0.00325032 -2.78609e-18)
(-0.0673705 -0.0264485 2.60697e-17)
(-0.0042121 6.85103e-05 1.68158e-18)
(0.0327556 0.0105887 2.48699e-18)
(0.00479579 -0.0138039 5.10887e-19)
(1.82175e-05 0.00128692 2.00821e-18)
(0.0096372 -0.0091111 2.789e-18)
(-0.00290817 -0.0120341 2.67429e-18)
(-0.000900212 0.00114425 3.11593e-18)
(-0.00239121 0.00118231 -2.74595e-19)
(0.000872289 -0.000251991 5.39737e-19)
(0.035914 0.00748216 1.98175e-17)
(0.000271027 -2.65364e-05 -1.00298e-17)
(-0.00364516 -0.00122081 -3.00109e-18)
(0.0775799 0.00571732 1.04005e-17)
(-0.00208836 -0.000173199 8.99982e-18)
(0.0689385 -0.128829 2.02346e-18)
(0.00146037 0.00907265 2.5066e-18)
(-0.00406566 -0.012761 2.62391e-17)
(0.000783983 -0.000249769 5.51979e-18)
(-0.0195518 -0.0050051 -5.16808e-19)
(0.00137487 -0.00210266 -8.0309e-18)
(0.00542679 0.0319363 -2.21092e-17)
(0.000386923 -7.80985e-05 -2.04783e-18)
(-0.0342225 -0.00754267 -5.7682e-18)
(-0.000190205 0.00169896 -7.50533e-19)
(0.0912822 0.0348015 -1.25534e-17)
(-0.00246826 -0.0389798 5.6628e-17)
(-0.242249 0.156343 -2.03834e-18)
(-0.00121299 3.25254e-05 -1.17753e-18)
(0.000850307 -0.000428004 -8.45361e-18)
(-0.0157353 0.0383398 -2.15481e-17)
(-0.0104098 0.0229464 1.28725e-17)
(0.00936206 0.000917072 1.12826e-17)
(-0.10875 -0.117314 1.52666e-17)
(0.0192104 0.0127052 1.22137e-18)
(0.000869197 -0.00329216 -3.25818e-18)
(0.126195 0.0923097 6.92337e-17)
(-0.000766692 -0.0296271 3.57386e-17)
(0.00567954 -0.0338051 -8.67063e-18)
(0.0546199 0.125396 1.29363e-16)
(0.0189605 0.00528084 1.45147e-18)
(0.0123039 -0.032451 1.12192e-17)
(-0.0121998 0.0118899 -8.7593e-18)
(-0.00923523 -0.00777987 5.81315e-19)
(0.0593758 0.0485875 -1.52372e-17)
(-0.0158488 -0.0290704 5.93582e-17)
(0.0165977 0.0132667 -5.99499e-18)
(-0.00214391 -0.0323592 -1.55901e-17)
(0.0159509 0.015761 -7.88403e-18)
(0.000479994 0.00078828 -1.8536e-19)
(0.0117114 -0.0138444 3.44845e-18)
(-0.00598614 0.000877995 -8.68682e-18)
(-0.000213517 0.00122236 -5.37508e-19)
(-0.0044506 -0.00226479 1.79291e-18)
(-0.0114056 0.0189468 7.39108e-18)
(-0.00413763 0.00640594 -1.20825e-19)
(0.00128137 -0.00237502 1.95152e-18)
(0.000404537 -3.78477e-05 3.12313e-18)
(0.0183003 -0.00307694 2.03676e-20)
(0.000991884 0.00234583 3.42127e-19)
(0.033278 0.0116438 -4.507e-18)
(0.000675391 -0.00325279 -5.19675e-22)
(0.000834773 -0.00331241 1.47268e-18)
(0.000225044 -2.49624e-05 1.31481e-17)
(-0.000962549 0.00282705 1.76266e-18)
(-0.00122993 0.000352047 -4.8424e-18)
(-0.00180556 0.00594801 2.35934e-19)
(0.00102634 -0.000301845 1.00223e-18)
(-0.310329 0.0337497 -2.43675e-18)
(-0.00421281 -0.016565 8.29051e-19)
(0.00676076 -0.0292995 -3.73651e-17)
(0.000383865 0.000434547 1.18148e-18)
(0.000413538 7.67425e-06 -4.53985e-18)
(-0.00655321 -0.0165752 3.84856e-18)
(0.0105299 0.0324192 -4.8394e-17)
(0.000125104 -0.00488213 -1.23279e-17)
(-0.0779609 0.0994892 9.81417e-17)
(-0.0374521 0.0130467 1.82635e-17)
(-0.0114392 0.0554872 -6.87054e-17)
(-0.00355825 -0.00237221 -1.14267e-18)
(0.0569459 0.0101999 5.11295e-18)
(0.000844292 0.00272897 3.81296e-19)
(0.000189777 3.63896e-07 -3.29387e-18)
(0.00072815 -0.000180173 2.97577e-18)
(0.000804867 0.00383535 -1.556e-18)
(0.135418 0.00955577 2.63482e-17)
(0.000223728 1.46548e-05 4.33751e-18)
(0.17195 -0.106818 -3.72114e-19)
(-0.00100017 0.00627807 1.53782e-19)
(-0.0296751 -0.0272564 -2.13853e-17)
(-0.0160313 -0.0108641 -1.7447e-18)
(-0.0391989 0.0150638 9.07679e-18)
(0.00625207 -0.0209498 -3.37628e-18)
(-0.000221228 0.00103665 3.0422e-18)
(-6.8851e-05 1.56722e-06 2.1034e-18)
(-0.00244049 -0.0168817 9.51713e-19)
(0.000400261 -0.00384983 4.91459e-18)
(-0.000576834 -0.00170098 -6.35008e-18)
(-0.104642 0.124183 -3.78728e-17)
(-0.000496945 0.00178407 2.7035e-18)
(0.000865335 -0.00120068 -2.86491e-18)
(0.00250317 0.00946271 1.40248e-18)
(0.000910273 -0.000559688 -5.55362e-18)
(-0.00134595 0.00018856 -1.63204e-18)
(-0.00337419 0.00729026 8.76268e-19)
(0.00162553 -0.00856737 3.96779e-17)
(0.0248251 0.00579546 -1.76917e-19)
(-0.00774888 0.0116592 4.56218e-18)
(-0.000891492 0.00110743 1.48065e-18)
(-0.000114028 -1.96336e-05 -6.14042e-19)
(-0.0625319 -0.0419116 -2.6316e-17)
(-0.0187808 -0.0230622 -1.02548e-17)
(0.000204856 2.84591e-05 3.97311e-18)
(0.00148848 0.00204441 4.98253e-18)
(-0.0882606 0.108198 5.81992e-17)
(0.0160321 -0.0648833 -3.33275e-17)
(0.0374081 0.00498961 -1.11173e-17)
(-0.0077816 -0.0106498 2.43991e-18)
(0.000206145 0.000755193 1.96556e-19)
(-0.000297614 0.000274128 -4.01606e-18)
(-0.00129893 0.000219281 1.05239e-18)
(-0.00207061 -0.011298 5.84157e-19)
(-0.00839291 0.0125696 -8.11835e-18)
(0.00624448 -0.0257754 1.32161e-17)