/*--------------------------------*- C++ -*----------------------------------*\
| =========                 |                                                 |
| \\      /  F ield         | OpenFOAM: The Open Source CFD Toolbox           |
|  \\    /   O peration     | Version:  v2012                                 |
|   \\  /    A nd           | Website:  www.openfoam.com                      |
|    \\/     M anipulation  |                                                 |
\*---------------------------------------------------------------------------*/
FoamFile
{
    version     2.0;
    format      ascii;
    class       volScalarField;
    location    "900";
    object      ddt0(omega);
}
// * * * * * * * * * * * * * * * * * * * * * * * * * * * * * * * * * * * * * //

dimensions      [0 0 -2 0 0 0 0];


internalField   nonuniform List<scalar> 
13851
(
0.0030107
-0.000199867
-0.000175743
0.7665
3.0571e-06
-6.16536e-05
-0.000210795
9.60103e-06
0.0265388
-3.54504e-06
0.0098857
4.99712e-06
-2.31729e-06
-0.651855
-0.00376628
0.437385
2.94566
-1.28753e-05
0.0539612
0.00630168
-0.00298724
0.000366601
-1.04286
3.36195e-07
0.196938
-0.0229507
0.014621
-0.311068
-0.113541
-9.19945e-06
-0.646032
-0.000246419
-0.00366651
-0.320502
0.00377648
-0.154284
8.56883e-08
5.99176
-1.78469
-2.04685e-05
0.014226
-0.150882
2.12069
0.171654
-0.154966
-6.20112e-06
-4.58119e-06
-0.0795917
3.69445e-05
-3.46643e-06
3.07545
-2.54549e-06
0.246918
-0.00293486
-0.479844
-1.80632e-05
-0.00205007
-0.0470454
-0.0575454
-0.413235
4.91843e-06
0.0479179
3.70554e-06
5.32545e-05
0.0460409
0.054068
-0.213581
0.0125597
-3.5377e-05
1.03275
-0.132406
-0.00232912
-1.67135e-06
-0.508173
-0.00374327
2.7603e-05
2.52383
-7.63541e-06
0.193751
1.23187e-06
-3.79936e-05
0.12834
0.00351127
-0.903311
-0.521527
-0.724919
0.000406672
0.479187
-3.50093e-06
-0.628979
-1.14071e-07
-0.000259678
8.4667
-0.0799153
0.469217
0.066947
-2.76368e-07
-0.311445
-0.989524
0.0566835
0.0062199
0.000204263
0.00133108
-3.73446e-07
-1.31077e-05
7.08005e-05
-1.18824e-05
-0.412553
-0.000282763
-1.26423e-05
0.000851139
-7.84657e-06
0.0519458
0.0104936
-0.0164027
-0.00240044
-2.26618e-06
5.57037e-06
0.657504
0.836958
0.0384205
-1.05661e-05
-3.54365e-05
-0.551752
0.0383993
0.00589134
-1.11133e-06
0.00535758
-0.473951
-0.00497988
0.000361408
0.000951702
3.37474
-0.316378
0.0107606
-0.661266
0.0110836
-0.554623
0.00171054
-0.00622465
0.133716
-1.22866e-05
-4.15448e-06
0.0129717
0.130424
-1.64849e-05
-7.35391e-06
-0.17984
0.107976
0.00800309
-0.317746
0.0504302
0.0120274
0.0528114
-6.84549e-07
-4.58387e-06
3.43886e-06
-1.84837
-0.00513925
-0.000180713
3.41077e-07
-0.135074
-4.69973e-05
-0.105953
-0.556269
-0.0628009
-0.0755084
2.93758
0.000664016
-4.18361
4.65605e-06
-2.00348e-06
0.00487441
2.01209e-06
-0.0668808
-0.067469
-1.02058
-3.23568e-06
-0.0038252
-0.927034
0.0390797
0.161791
0.000623319
-0.00541628
4.49604
0.0843422
-0.00488307
0.000247684
-3.91444e-07
-1.09216e-05
0.151169
-0.00515301
-2.81358
-0.00011792
-2.30685e-05
0.00983137
-0.00668068
-2.49054e-05
-1.28403e-05
0.00477305
0.122526
2.95425
0.387461
-0.00399745
-0.0675333
2.89023
9.90682e-06
-0.00828568
0.00637351
2.55407e-05
0.552928
-2.63994e-05
0.122184
4.55472e-08
0.00415166
0.000105652
-4.35189e-06
0.00658566
-2.5029e-05
-0.0700524
-3.50692e-06
0.0122691
-1.77227
-0.582635
0.000139554
-0.00870871
1.38416e-07
0.00866571
2.14868e-06
0.00365342
-0.383984
2.07596e-05
1.30745e-05
3.28923e-06
0.177496
-9.18575e-06
3.09741
0.656836
0.042338
1.78881e-07
1.2149
-0.309232
-0.17218
0.459933
-0.00113102
-0.00109618
0.0056144
-0.00384331
0.068296
0.000962593
-0.182072
0.0263819
9.95801e-06
-0.000491398
0.160057
-0.119271
0.355044
-9.56145e-06
0.0035666
-3.32969e-06
-0.0377566
0.0446265
-0.000613978
-0.000634446
0.0287493
-3.81143e-07
0.00788934
-0.0299635
-1.42214
5.60356e-06
-4.35764e-06
0.000143023
-0.0948352
0.726999
-0.00357201
-1.06512e-05
0.0312073
0.0506609
-0.0100476
-0.000908593
-0.0864954
-1.03605
-0.000428496
-0.0029376
7.48045
-1.60446e-05
2.97207e-06
-0.00950887
0.00647737
-9.27175e-06
9.61849e-08
1.34178e-06
5.41724e-06
-0.00176282
3.57309e-06
0.00259204
-0.00282628
-1.37641e-05
-0.133245
-0.561448
-4.35611e-07
0.00743232
-0.331448
-1.39485e-05
-4.89976e-08
-0.00246465
-1.03123
-0.0285556
0.00460546
3.13249e-06
-6.28671
5.04218e-06
0.0071264
0.114224
-2.01107
-0.00016034
10.0491
0.798167
-0.679113
0.0514569
0.00257158
-2.91733
-0.511513
0.0774336
-1.28597e-05
2.27074
-2.22441
0.0346623
0.0343795
3.51003e-06
0.0061023
0.000256589
0.264629
-0.00655973
5.11743e-06
-2.27627e-06
0.000597908
-0.584526
-0.0957239
-1.67747e-05
-0.0198305
0.000287704
0.00104722
-0.000205407
-1.58541
0.0319556
0.35699
7.06877e-05
-2.60222e-05
-0.155738
-1.67113e-06
0.05073
-0.000447298
-0.00247556
0.000228697
-3.89656e-06
-1.46127e-05
0.0502956
0.0637799
0.0239497
3.09101
-0.149745
3.71959e-06
0.333428
-0.322197
-1.03761e-05
-5.41671
0.00166739
-0.886787
0.000390005
-0.0240406
-0.044281
0.474555
0.04581
0.0815472
-5.92453e-06
-0.0209671
2.48598
-0.000442954
0.160964
-0.000163213
1.46047
-0.00273519
-0.00766007
0.029767
0.101031
-5.21888e-06
-0.000292219
0.00803137
-0.00381414
-5.01298e-06
-0.00404135
-0.0404645
-1.10922e-06
-0.00795653
0.196514
-1.87322e-05
3.86659
-0.0100893
0.968057
3.34054e-05
-0.021098
0.286932
0.0426572
0.000740649
0.380708
-0.605493
0.706058
-1.44489e-06
0.0522468
9.30302e-05
-0.0244951
-1.18774e-05
2.5396
0.499422
0.262563
-5.12418e-05
0.0296309
-0.0371219
0.713424
-6.21781e-06
2.65339
0.108374
-4.37684
0.00120057
-0.122969
-6.98058e-06
2.24432e-06
-0.803462
-0.0257549
-3.61707e-06
-0.000172455
-0.00804589
1.62836e-06
0.686879
0.00567965
0.00155217
-0.000690906
-6.39554e-06
-3.82082e-06
0.546817
-1.02625e-05
-1.48863e-06
-0.107124
0.0716742
0.000297624
-0.0244698
4.02299e-06
3.289e-06
-2.13073e-05
0.0264186
-0.00974734
-6.95456e-06
-3.85491e-05
0.0419682
-0.000130063
-0.371732
4.25971e-06
-0.0013174
-0.162971
0.000628339
-6.19288e-06
4.07268e-06
-0.000620381
-3.19306e-05
0.808236
-0.113736
-0.00117337
-0.626807
-4.15233e-05
5.29828e-06
-0.274024
-0.0389425
0.000425751
-1.17043e-06
-0.489262
0.000875875
6.95878
-2.36711e-06
0.000915197
0.0502619
-0.00444404
-0.481512
0.0325449
0.266004
-1.07271e-05
0.0513527
3.17449e-07
-0.10178
-0.00992502
-0.00691218
5.11442e-05
5.24298e-05
0.000652881
0.00464496
2.58817e-06
1.63643
-0.286935
-0.253116
-0.0734529
-0.116999
1.93251
0.0474012
8.14718e-05
2.82927e-07
6.0498
-3.28507e-06
-5.37775e-07
0.000156021
-0.0797255
-0.000219504
-1.33226e-05
0.00851338
0.00324934
-4.35477e-06
0.393088
1.49341e-06
-0.398219
0.455714
1.79116e-06
-0.000161209
0.116272
-3.48146
-9.58157e-06
11.1009
3.08836
-8.32878e-06
-0.133413
0.0540447
0.0137455
-1.08493e-05
-0.109247
-0.889414
-8.42302e-06
0.0907883
-3.8413e-05
1.34007e-06
-0.0555983
1.79241
0.00097735
-0.00986659
-3.74182e-06
-0.0170355
-0.440816
-3.62975
-1.19964e-05
1.76235
-3.98315e-06
-3.35295e-05
0.0003014
-0.00122854
-6.19815e-06
2.14992e-05
0.109255
0.0832838
-0.0447561
-0.000164599
-3.93874e-06
-0.100489
6.79276e-07
0.0529869
-0.00129697
-0.00374992
-0.000654945
-0.178749
-0.931074
-0.000181447
2.55475
-0.000134779
0.00842557
-0.156212
-0.0205788
-2.78402e-05
-6.57255e-07
-0.00236049
0.118014
-0.0166906
-0.0170005
5.75203
-0.00132012
-0.00251381
-1.8668
0.516493
0.0229196
-0.38533
-0.656877
-0.170742
-5.70698e-06
-0.0613379
-0.0455979
6.2095e-06
3.13479
-0.990654
0.000681309
-0.005928
-1.08019e-05
-0.220624
0.011856
-1.0173
-8.69414e-06
1.37423e-06
3.03166e-05
0.00344061
4.21259e-06
0.265225
1.41246e-06
-0.397894
-1.24486e-05
-0.023803
-6.53607e-07
-4.30941e-06
0.00287029
1.99132
0.00120215
0.183611
0.000864062
8.70015e-07
-1.19075e-05
0.00517807
-3.33457e-05
0.0256501
-0.000240088
0.00109912
-0.0547528
6.04032e-07
0.557182
1.80998e-07
-0.0280605
2.25973
-0.131389
0.00259118
0.299542
0.00917004
0.06931
-0.836529
-1.42593e-05
0.516723
0.000280124
-0.000340303
-0.179225
0.150433
-1.00974e-05
0.0248858
-2.35916e-05
-0.159539
3.47488
-3.52503e-05
0.0128487
1.2535
1.86294e-07
5.7683e-07
-0.0231809
0.6347
-0.103003
-2.67036e-06
0.0317662
-0.000108516
-3.64345e-06
-0.055161
0.0319175
0.0470773
-5.71421e-06
-0.0298818
0.00205149
-0.0186071
6.84871e-06
-3.26686e-05
0.0087822
2.32805e-05
-0.0294542
-0.00277964
-0.00198197
0.0208462
0.639611
0.0598908
-0.202823
6.25325
-0.178397
-0.356024
0.00224743
-0.0696864
0.00974096
-1.34226e-05
-0.00238521
0.058284
0.000481378
1.3644e-06
1.25275e-06
-0.0297022
0.0476578
-0.00137886
0.459082
1.13275e-06
-0.113505
0.0295638
-0.187823
0.0254467
4.20797e-05
-0.000186048
0.672187
0.0439796
0.00165711
-0.00674625
-7.5306e-06
3.04833
-0.0283578
-0.432716
0.000512847
0.140388
-5.85527e-06
6.97943e-08
1.12515e-06
-3.20684e-06
-0.139694
5.20045e-06
-0.0485427
-0.0859156
0.0260378
-3.97447
-0.976475
-0.452673
0.0846024
0.000626626
6.58578e-07
-5.76847e-06
-7.4152e-06
-1.12322e-05
1.6869e-06
0.00788245
0.0498698
0.00194012
-0.0715162
-6.49361e-06
0.0245367
6.52128e-08
0.693551
0.00297968
-2.00887e-06
3.50853e-06
-0.109001
-5.71455e-05
-0.161083
0.149391
-0.00614091
-0.00181656
-7.52188e-06
-0.342716
2.4525e-05
-0.000202633
-0.0554596
7.61768e-07
-1.03661e-05
-1.4946e-05
-0.00982351
0.0863725
0.000517634
0.000257238
0.109125
-2.39802
0.000134872
0.000133362
-0.175363
-6.74594e-06
-0.170419
5.08568e-07
-0.000134588
0.185326
-0.0183198
-0.0202031
0.0202091
0.00110071
-1.35295e-06
-3.48332e-08
0.0107535
-1.2349e-05
-1.9403e-06
-0.00162617
0.106154
3.46405e-06
0.06116
3.06805
-0.137138
0.0208706
-0.419498
-0.00197906
9.13622e-07
0.0480663
2.43719e-06
-0.000348177
-0.200892
-0.156076
0.491434
-0.177966
-3.55613e-05
-3.67322e-05
0.00298087
-3.95658e-05
-1.59527e-05
-1.05742
-0.143859
0.109956
-0.027363
-0.0188794
-4.20171e-06
-9.39552e-06
5.87046
0.00421564
-0.000170916
8.69639e-07
-0.0150199
0.0647783
0.835766
-1.76719e-07
7.4238e-07
-0.431182
6.04698e-06
-0.000425225
1.51219e-06
0.134845
2.06118e-05
2.2768
2.49473e-06
0.0370594
-0.00205944
0.00558591
0.000356349
-2.52168e-06
-0.000153117
3.14124e-06
-0.0413212
-4.83168e-06
0.18595
-7.07854e-06
0.331044
-0.210485
0.00034599
3.96194e-06
0.194252
-0.130867
-0.000207981
-0.0207045
-5.43364e-06
0.361212
-1.32492e-05
0.0621096
5.50624e-06
3.22034e-06
-0.149196
-0.000954853
4.60293e-06
-0.00295222
-0.424229
-0.0207845
1.27096
-7.86532e-06
-0.1639
5.71633e-06
3.40459e-06
-1.14108e-06
2.34862e-06
8.37387e-07
0.938263
-0.204987
-2.27517e-05
1.30134e-06
0.000706887
-8.11801e-06
0.294449
0.0491874
-0.759229
-4.35129
-0.000136203
-0.0343775
5.98908e-06
-0.00235152
0.0171434
-1.34363e-05
3.47471e-07
1.22697
3.58306
-0.0024917
8.05487
-0.0106132
4.70396e-06
0.00222063
-0.0219665
2.11669
-0.00155417
-0.0985771
0.00544101
-2.63467e-08
-2.39175
-2.67363
0.143641
0.161351
-0.0418887
-1.33883e-05
-0.00299687
-2.11692e-06
-1.5359
0.00042312
5.30259e-06
1.33964
-1.24788e-05
3.64422e-06
-2.9125e-05
-3.43249e-05
0.267849
0.0528417
1.87893e-06
0.0020448
-0.935774
8.53696e-06
5.47079
-6.37068e-06
-0.0139059
2.32331
4.04368e-06
-0.0259598
0.000862256
0.000686906
0.0750281
-8.81254e-06
0.132234
-0.021807
-0.228949
-2.2786e-05
0.295131
-0.000333038
-0.555242
3.87408
0.338986
-0.00687852
-3.71603e-06
-4.07789e-05
6.44191e-07
-0.00632169
4.87396e-06
-0.500312
0.00056737
0.00012115
8.37295e-05
-1.58678e-05
-7.37664e-06
-0.000864365
0.000607761
-0.00016076
0.000514134
-9.94424
-0.0338903
-0.000685773
0.00409754
1.17043
-1.44578e-05
-0.704365
-6.42399e-06
0.000823781
-2.62726e-06
-2.56271e-05
0.00305028
4.63716e-06
1.90146e-06
0.00618352
-3.81893e-06
0.107549
-2.518e-05
-0.529296
0.216553
0.0198684
0.082313
-2.07092e-05
-2.17917
0.0148122
-1.4383e-07
0.000573242
-5.86337e-06
-0.783865
-9.0332e-06
0.0012773
-5.18602
0.071365
0.0134351
-1.50868e-05
-0.183086
-6.45122
-0.0555581
0.000865084
3.00035e-07
-1.0834e-05
0.00422989
-6.30367e-06
-0.903857
0.0526532
4.01669e-07
-0.103292
0.111545
-1.3718e-05
-10.8419
2.5672
-0.0916846
-5.6644e-06
-0.179643
0.0074065
3.33401e-06
-0.196863
0.000210193
-1.16673e-05
1.41467e-06
-0.00303877
-0.0068646
-0.0305316
-0.939764
-0.00796383
-0.0621563
-0.00366081
-6.31295e-06
-0.00636517
2.05448e-06
2.84147
-1.31577e-05
2.8183e-06
2.83339e-05
-6.43972e-06
-0.12094
0.314568
-0.00532561
-0.875286
3.40389
0.00014715
2.98494e-07
-2.2999e-05
0.133215
-1.20586e-05
-3.59864e-06
0.00333664
0.18529
0.00927658
-1.45168e-05
0.00192027
0.000254884
0.0190373
4.04206
-8.15762e-06
-5.09323e-06
-0.000157056
0.297476
-0.00167954
-0.474789
-3.46839e-05
5.37556e-07
-1.20765e-05
2.3153e-06
0.000100331
-0.161526
-0.161246
-0.0826166
0.000684445
5.33816e-06
5.31314
-3.16675e-05
-0.0200324
-0.887786
0.000149225
1.53683
-0.131191
0.193069
-0.0147338
-0.00158903
-0.102108
-0.000700424
0.000622946
-0.000217699
0.0766358
-1.32651e-05
0.270854
-6.46756e-06
-0.194445
0.288103
-6.41536e-06
-1.04433e-05
0.00323819
0.119265
-0.00148146
9.99167e-07
-0.00126339
2.10861e-06
-0.000635132
0.224499
1.36929e-06
-0.142452
-0.0658302
-6.81806e-06
-0.00149462
-0.00697479
6.08221e-06
-0.155946
-2.15039
-2.57701
0.0670341
4.07517e-06
0.000146976
0.000333573
-1.78329e-06
-0.00943586
-0.00169828
1.38969e-06
-0.0156945
2.57364e-05
0.113392
-0.00244582
-1.38826
-4.96116e-06
-1.3736e-06
0.00192211
0.00872386
0.0066643
-2.76765e-06
-1.82585
-0.670409
-0.278168
0.833731
-0.196899
-0.0416853
-0.586472
-3.35525e-06
-3.20755e-06
-2.06516e-05
-0.0130646
-0.00999
0.00769439
2.24628
-1.97605e-05
-4.86637e-06
-3.94752e-06
0.105576
-7.39375e-06
-0.000684366
4.43827e-06
-0.129039
-2.11138e-05
2.64986e-06
6.48582e-06
-3.29106e-06
1.17791e-06
0.000474335
-0.00983969
0.000606811
0.943976
-1.00957e-06
2.58226e-06
-0.428906
-0.226527
0.0366579
-0.119549
0.000127145
-0.101542
6.15695e-07
0.00409297
-4.71439e-06
4.24476e-06
-0.000275743
1.86738
-8.38956e-05
0.00885522
7.76993
-2.78437e-05
-2.51934e-05
5.86022e-05
-0.462583
5.09267e-09
-0.125409
-1.95425e-05
-0.00157095
3.71831e-06
-2.04852e-05
-0.000286509
0.00481669
-2.68802e-06
0.0124162
-0.423244
0.181361
-0.285214
-7.06336e-06
1.79921
-4.56316
2.33073e-06
0.348687
-1.24418e-06
-6.27317e-06
-1.49923e-06
-7.72606e-06
3.16069e-06
-3.95127e-06
-4.19576e-05
3.99419e-05
-0.00556092
-1.3863e-05
2.45327e-06
0.00349708
-1.07627e-05
4.99065
3.451e-06
-0.000364747
-0.0038748
-0.729638
-0.0052946
2.84435e-06
-0.283267
1.68716e-06
-0.00235815
0.00931779
-0.108434
-0.00719212
-2.51706e-09
-0.0320793
0.00292803
-0.0139777
-0.124448
0.000755304
0.0400249
-0.0170161
-0.00960202
-1.74686e-05
-1.15769e-05
-0.14108
0.120371
0.000142097
3.33458e-06
4.66745
1.21296e-06
-0.00118789
1.25142e-06
0.0130534
2.30325
-4.48117e-07
1.7872
-0.000134034
4.40051e-07
-0.788412
4.7795e-06
0.00471698
0.0159992
0.000349479
-0.143987
3.37229e-06
9.47088e-08
-0.00500472
5.39473e-07
6.59903e-07
-0.00127623
-0.000368301
-0.0041791
0.013678
-1.70701e-06
0.00209534
-1.27685e-05
5.29027e-06
4.97101e-07
2.88609e-06
1.42052
-1.45582e-05
-8.46785e-06
-0.0163539
8.41786e-07
3.09837e-06
-0.139977
9.15321e-07
4.85522
-0.000108871
-0.136731
0.0192789
-3.68896e-05
3.59305
0.0104069
0.295515
-2.40495e-05
0.0611465
0.000365128
-1.07718e-05
-4.04854e-06
-1.02078e-05
-0.000848709
-9.2661e-07
0.00513414
3.59692e-06
8.47423e-06
2.74093
3.85112
1.04344
-0.000253661
-0.00237475
-0.86831
0.139068
9.24956e-07
-0.000670002
0.25082
-2.54604e-05
0.00312081
0.621861
-0.104461
-0.00103991
-0.00678028
-4.20549e-05
0.11117
2.99252e-07
0.000805953
0.00715207
-4.13701e-06
1.02052e-05
3.68841
0.0036945
0.000600228
-0.296815
-0.0312872
-6.58174e-06
3.35625e-06
-2.07427e-05
1.08488
-0.0469354
0.577482
0.0069373
-3.83708e-06
0.634564
4.85324e-06
0.0530409
0.00025747
-0.000122941
-0.00153657
5.25078e-06
-0.644741
0.995213
-1.89113e-06
0.00113818
-0.00970731
3.96399
0.00338552
-0.0168578
-0.00361724
-0.00376493
-0.0259454
-0.0172412
5.09253e-06
-0.00433694
0.000771726
-0.119302
3.71193e-06
-0.0895172
0.00411514
-0.0186672
6.827e-08
3.73107
-0.000496699
-2.44602e-05
-1.68644e-05
0.00219161
0.00214842
0.00247165
3.00194e-06
-4.37237e-05
0.00739644
8.64933
0.00812873
2.22193e-06
2.19708e-07
-0.0044957
0.0494205
9.19489e-07
0.0161779
6.52537
0.00401259
-0.158138
-0.00664748
-1.12431
0.126955
-2.98283e-06
0.327725
7.27087e-07
0.00016566
-0.00276253
-0.00142369
0.0237122
-0.0100129
0.00223485
0.00261909
0.000518141
5.21956e-05
-7.31758e-06
0.0102594
-0.000405625
0.000181865
-0.0254198
0.000334853
0.000658476
2.73508e-06
0.451394
0.0150631
-1.35891e-06
-0.000229452
8.80828e-06
-0.853999
0.052671
-0.00277248
-0.168136
-0.128863
0.729423
0.0159381
-0.02676
2.94402e-06
-0.00138353
-8.82675e-06
-8.63889e-05
7.65849
-0.15879
0.105935
1.77952
4.2236e-06
-0.794082
3.33537e-06
-0.0238467
0.000129333
-0.0783462
1.3295
-0.000550107
3.38225e-06
0.105314
-0.00302571
1.33573e-06
0.109385
-3.30014e-06
-2.02794e-05
-0.000418283
-1.0523e-06
0.000643702
8.08536e-06
-4.653e-06
0.00125591
0.144076
-0.0029831
0.00841342
5.02257e-07
-0.763546
-0.148304
3.50758e-06
0.04389
0.000112603
0.000115668
0.483434
3.42057e-06
-2.4097e-05
0.000132203
1.02164
2.82519e-06
3.29035e-07
0.00103837
-0.041274
3.2736e-06
0.000501623
0.000992073
-0.171596
0.00431291
0.00138236
-0.184442
-2.58813e-06
0.0143387
-5.11365e-06
-0.76425
0.000783428
-3.51678e-06
-0.000955629
0.0227675
8.31101e-07
-2.33286e-05
0.0213211
-0.130916
-3.06567e-05
-0.663347
-1.22625e-07
-5.8438e-06
0.00547036
3.75251e-06
-1.45114e-05
-0.268372
4.80145e-07
-0.00140065
-0.816442
-0.825544
-0.166854
-1.08271e-05
1.67687e-05
5.48419e-05
3.51401e-06
-5.84899e-06
6.84121e-06
-0.0486742
-2.03756e-07
-0.00610935
-0.0183828
7.83723e-06
-1.04846e-05
0.000273709
-0.0195649
0.0101731
-0.000180676
0.00904267
1.06985e-05
0.0055066
0.0119985
-0.00220805
-0.00572866
0.0075526
0.0208608
-3.69936
-0.00564884
0.148299
0.407933
0.0390892
-0.000259712
-1.87381e-05
0.00238499
4.35958e-05
-1.15435e-05
-3.03187e-05
0.02031
1.20614e-07
-3.07452e-05
4.87347e-06
-5.92366e-06
-0.00015435
-1.53287e-05
2.61262
3.59288e-06
0.703357
3.47356e-06
0.00597111
-1.53421e-05
-0.0115955
0.00878691
-3.63029e-06
-0.205942
8.90469e-06
5.58175e-07
-0.00407973
-1.148e-05
0.000380281
-1.43188e-05
-0.146759
8.28772e-05
0.000779021
0.000584389
-0.205035
0.000424824
-0.00572205
0.0385409
0.00437993
-1.82109e-05
-5.00069e-05
0.0165214
0.00809881
4.4441
-9.70718e-06
0.58746
-2.43282e-05
0.00856676
0.302433
0.00218558
-0.0524537
0.000196444
-0.000598046
7.78268e-05
1.00555
0.00097591
1.29231e-06
0.00351209
0.0343515
2.57826e-05
-3.4989e-07
1.02848e-06
-2.20311
8.06282e-07
0.000339592
-0.276889
0.000158908
-2.39724e-06
0.0041674
0.000177423
-0.127373
-5.27045e-06
-6.41041e-06
3.37117e-06
1.88651e-05
-2.05789e-05
-1.95944e-05
-0.0109182
-0.239652
-7.16726e-07
2.99329e-06
0.417735
-1.97291e-05
1.50452
-8.71248e-05
3.84756
-1.67118e-05
2.63067e-05
1.41766e-06
0.210953
-0.259045
0.000298989
0.00512776
0.000698069
-5.87006e-06
3.81534e-06
-0.144402
1.22853e-06
-0.0263729
-1.26074e-05
-0.00801215
1.80142e-07
0.979421
2.16219e-06
-0.00877603
1.36224e-05
0.179835
0.539186
-1.0536e-05
0.00241807
0.189287
-0.0102999
-0.129337
-0.0564085
0.0749867
1.35236e-05
-0.000135123
0.0162875
-2.24443
-1.1639e-05
-0.00589752
9.79895e-05
-2.06456e-05
0.249614
0.185463
-0.00478768
0.019957
0.111265
0.00119449
-0.110889
-1.19348e-05
-1.07478e-05
0.0244252
2.3132
0.0510784
0.0514865
-6.83886
6.22207e-08
2.08011
0.163187
-0.987106
2.68598e-07
4.33438
-0.63898
0.486752
0.00814266
-0.132967
-0.0224177
0.000682808
0.0519325
7.47697e-05
-6.40363e-06
0.355196
-0.000976127
-7.23209e-06
-0.646626
-1.09695e-07
0.000574773
-0.00305807
7.61181e-05
0.125654
0.000527548
0.164832
-0.00891207
-0.000314438
0.538682
1.99644
0.0216421
3.2006e-07
1.58508e-05
0.0104365
0.00233525
2.31621e-06
0.00389181
0.00350022
0.0415391
2.05608e-07
0.0500622
5.93947e-05
0.00356367
-0.131122
-0.0247366
6.59374e-06
0.0263917
0.832587
-2.7706e-06
-3.86092e-05
-1.28013
0.112983
0.000115964
-5.02227e-05
6.01619e-06
0.00895158
-0.000524917
-0.167791
0.0247019
-8.66891e-06
4.92589e-07
0.00342292
0.000655407
-5.06283
3.40857
-4.60463e-06
3.16244e-06
0.000631318
-1.79306e-07
-1.50235e-05
-3.08296e-05
-6.96599e-06
3.2602e-05
2.49175e-06
7.71627e-05
-3.38081e-06
-0.00972528
-0.491814
-2.14525e-08
0.877416
4.20338
-5.44311e-06
0.0572657
0.0279808
0.0156272
-2.40282e-05
-0.00346587
-0.000366227
0.0087891
-0.000744002
2.3121e-05
5.10937e-07
4.05362
-0.00107186
-0.140259
-2.48961e-05
-4.86003e-06
2.89621e-06
0.0081563
-6.7263e-08
-0.00147444
-0.0150908
0.318951
3.18975e-06
-1.97451
1.50276
-0.670767
8.85062e-08
0.0406528
0.135746
0.919425
0.201462
2.20121e-06
-3.86447e-05
0.0520952
-5.23775
-0.123197
-0.00193156
0.0160819
7.26423e-07
-1.08897e-05
0.00186522
-3.22111e-07
-2.88294e-06
0.0529749
7.6185e-08
0.00734072
-1.67234e-05
2.15829
0.130118
0.184287
-0.131148
-0.731497
-3.93735e-06
3.17397e-06
-0.0729607
-1.00274e-05
-1.10942e-05
-6.16569e-06
0.0257489
-0.357449
4.13585
0.000120785
-1.61286e-05
2.97829e-06
0.00136075
-1.44434
3.09188e-06
-0.0683812
2.20156
3.24708e-07
6.5194e-07
0.130341
-0.0238775
-0.000120815
5.72711e-07
1.37456
-0.550225
-1.63347e-05
-0.0912979
1.23785e-07
-0.591107
0.82631
-6.17123e-05
-0.405535
2.23635
0.295066
-1.57044e-05
-1.24292e-05
8.06331e-07
3.43825e-07
-0.24751
-1.08772e-06
0.0593629
-0.0333009
3.19939
-8.92925e-06
0.00677186
-0.132493
0.00368441
-0.0193957
-0.66462
-5.16744e-06
-0.000403728
-0.000384291
0.534618
-0.169608
-4.94359e-06
0.1012
0.000822225
-0.00623933
-2.29901e-05
3.48444e-06
0.0991302
0.00303627
0.3402
-2.49674e-07
0.0061299
-5.97548e-06
-0.00908318
-0.000193278
-0.218813
0.338089
0.071241
-0.0292812
4.26649e-07
2.10104e-05
-0.0040321
0.0471263
-0.0918382
-0.0286755
8.89465e-07
-0.092151
0.00627884
-5.35035
-0.000684053
0.00360535
0.00167679
-1.44695e-05
1.04188
6.08389e-06
-0.00100767
0.0893496
1.22181
0.823615
-0.412486
0.000449028
-0.00160403
-1.03142e-05
2.23702
0.000378322
0.0882093
-1.06429e-05
-0.171244
1.04704e-06
1.50797e-06
-0.000802187
0.0002554
0.000546665
-7.30773e-06
0.164941
-0.00823289
-1.31271e-06
0.00209435
0.20278
0.170652
-7.14246e-06
-0.63228
0.000114333
-0.0036133
-0.00314581
-4.0607e-06
0.0101005
7.53007e-07
4.5881
0.00757201
-0.000897083
-2.68622e-06
0.113244
0.000515378
-1.06608e-05
0.480013
-0.0221108
0.0250196
-1.63127e-06
-0.490936
3.56324e-06
0.0417031
-0.00105314
0.0199942
0.128928
0.116928
0.00166873
-0.402751
0.0040967
0.000237786
-4.5522e-06
0.0816274
0.0237613
0.0253095
7.43381e-05
3.52325e-07
-0.0709286
0.0190899
0.115009
-0.0210982
-0.783021
0.153165
4.35485
2.79478
0.000848876
0.000266172
6.34311e-06
-1.27618e-05
-6.36517e-06
-0.02404
0.000515952
0.00042184
0.129634
1.68235e-06
3.35016e-06
-0.00780619
0.0327799
-0.00066038
7.44561e-06
2.67975
9.51867e-06
-0.0106096
-1.93455e-05
2.50073
0.000181499
1.22014
0.00176711
-0.000385693
0.0048685
6.23361e-06
0.311682
-0.0748673
0.0120339
-9.48284e-06
4.40341e-06
-0.59017
-0.834579
-0.148283
-1.19645e-05
0.012711
-1.24446
-2.05601e-05
2.94699e-06
-3.61651e-05
-0.368291
0.000443157
0.00128534
-0.000887389
-0.000610577
-0.197311
0.0154156
0.0260189
-0.000740985
-0.000728302
-5.86048e-06
0.0168502
0.00596894
-6.28138e-06
-0.115588
-0.480409
-0.52719
-0.116666
-0.0718828
3.51813
-0.508104
-1.24853e-06
-1.27352e-05
-5.93865
1.57802
0.132588
-5.93258e-06
-0.000996108
-3.00515e-06
1.22977e-07
-0.0269668
1.64872
-0.00351009
1.2581e-06
-0.0836842
0.00617646
0.00200157
-0.551001
0.178826
0.0580458
4.41588e-06
-0.24932
-0.0404401
0.111321
-0.00304484
-0.000171984
-2.36355e-06
2.62629e-06
0.00185396
0.00285339
0.000109179
-0.00555917
-0.000657648
0.000104298
0.0116837
0.0414457
0.000433628
-0.00710814
-0.734703
0.0309974
3.29271e-06
0.0068801
0.206007
0.296153
0.00292448
-1.46235e-05
-0.000395849
0.000390706
0.000391516
-4.51742e-06
0.000523969
-0.00213401
-0.00777873
0.0646915
3.76756e-07
4.72035e-06
0.154383
-0.175489
1.57474
-0.100404
-0.0280075
-1.23901e-06
-3.48505e-06
5.78054e-06
-9.68227e-06
0.282536
-4.61267e-06
3.07686e-07
-7.33091e-06
-0.117926
1.94758
-5.67141e-06
-0.00946027
0.000720943
0.00104255
0.000243369
-0.000189764
-0.00243888
0.00239757
1.08983
-0.000466067
-0.42147
0.00244993
0.23907
0.000542634
4.4995e-06
-3.33344e-06
-0.000179426
0.023829
2.34168e-06
0.000751291
0.000473591
0.007734
-0.120325
-0.196393
-0.137944
4.74184e-08
0.117357
0.000111239
0.00157169
-1.63433e-06
0.0113232
6.45026e-06
0.176934
0.347241
0.00218004
4.87193e-06
-0.169256
1.13913e-05
-0.212232
-0.211559
0.00287008
6.1745e-05
0.0299007
-0.188913
0.0675223
-0.115823
0.00823058
-2.2939e-05
0.00267703
-1.35458e-05
3.7059
8.20709e-05
0.00102387
-0.014122
-2.99837
-2.07105e-05
-2.60071e-06
-0.387813
0.00294887
0.264609
-4.12322e-06
1.69827e-06
0.00225214
-0.0357155
-0.00159937
-0.106464
0.00159039
0.0606407
9.21745e-05
2.25685e-07
-3.07036e-06
0.101919
6.16666e-07
0.0249866
-4.89242e-06
-3.19352e-05
0.0914122
-0.000665461
-1.63665e-05
3.91071e-06
0.00186529
-0.00948265
-0.00759009
0.00157153
6.06462e-05
0.00803412
-7.24341e-07
0.0379089
5.45618e-05
-4.52907e-05
-0.001883
-0.00108214
0.0131168
0.00296383
-1.2727e-05
-0.00761543
-0.978787
0.00168855
-2.14164e-05
1.90789
-0.0911909
6.94785e-07
2.8789e-06
0.178487
-0.547089
0.000174159
0.0217616
0.111545
-1.53174e-05
-0.0165207
-6.36328e-06
-0.000315108
0.00712859
7.89254
0.0809901
0.0155028
-0.47908
-0.103127
-0.553091
-0.000128872
-0.00677777
-3.08244e-06
-0.0235888
-0.740446
6.50823e-06
1.98301e-06
0.096712
-4.11288e-06
5.2453e-06
-4.27548
-0.158325
0.0348607
-0.000663498
-0.766804
2.60402e-06
-0.163751
0.00706079
2.96828e-07
0.096521
2.60145
2.12936
0.147759
0.0867181
0.166832
2.79037e-06
9.2964e-06
0.00590912
-0.0041816
4.45532e-06
0.0341306
-8.12206e-07
0.11439
-1.47884
0.00154702
-0.0153334
0.120783
-0.938356
-0.0125241
0.00448751
3.16477
0.142913
-0.000434558
-7.12195e-06
-0.0613059
0.000959461
-1.03364e-05
3.74005
-1.18152e-07
-0.0841155
-2.48819e-06
-0.185203
-0.000525819
-2.76664e-06
2.89592
2.22167e-05
0.000570764
0.15999
0.300657
0.632755
-0.00122027
-0.00963374
-2.0983e-05
-0.00639592
0.0131887
-0.00612186
-4.08648e-07
0.316483
0.00176668
0.00107641
0.18831
-0.000476125
0.00105936
0.0590267
0.00999408
-0.00804264
-2.41193e-06
0.0619796
-5.62617e-06
0.00857993
-0.0481629
-0.832461
3.41126e-06
0.00224036
1.16287
-0.000109549
0.0105304
-0.00255215
0.00237558
0.131166
-0.000127788
1.46868e-05
1.38185
3.52186e-06
-0.159745
3.40866e-06
-5.11364e-05
0.00041115
-0.164381
0.00106631
0.0170307
0.168348
-0.00242884
-1.64579e-05
0.0209061
0.00308038
-0.547694
2.89662e-05
5.38482
0.0188522
-0.0025612
-6.9766e-05
0.0168809
0.00243387
0.0058161
-0.0012754
0.00116456
7.46517e-05
-1.64634e-05
2.49598
-3.37183e-06
0.00027958
-8.87168e-06
-0.0168615
0.000138041
-0.00370903
-0.382484
1.02119e-05
0.0442194
-8.42493e-07
-1.14114e-06
-1.62735e-07
6.24867e-08
-0.000837176
2.63811e-06
-0.0191277
-0.972867
-0.00646763
-0.0015319
-0.000418967
-3.33371e-05
-0.0180731
-1.92232e-06
-0.168057
0.577094
1.59109
-0.140047
0.0015717
-0.000991353
6.57605e-07
0.000249727
0.00801039
0.00338261
-0.33348
-0.00941931
-0.900955
-0.353362
1.45995e-07
2.93219e-06
0.0302081
-1.34358e-06
-0.000926969
-0.00138128
0.108969
-0.000127544
-0.35889
9.00203e-07
0.000297618
-3.20368e-06
-2.69476e-05
0.0175068
-0.0269797
-3.46081e-05
-0.00307586
-0.00447915
-0.00339708
-0.0124313
0.130696
0.0685648
0.091744
0.0569066
-0.000491039
1.69282e-05
-0.01379
-0.160009
-0.632032
-0.178443
-0.00228987
0.0922467
-0.0315954
-3.85601e-05
1.38807e-06
-0.0187962
2.78903e-06
-0.00296358
1.99923
-6.07673e-07
-1.04586e-05
0.146679
-0.00906638
-0.0104984
0.922612
-3.77744e-06
-0.442641
0.00338798
0.26049
0.000826623
-5.68707e-06
-0.172736
-0.00481293
-7.63201e-06
0.00422225
7.92522e-07
0.0451568
0.000588889
-0.00703642
1.0344
-4.35356e-05
0.818806
2.82157e-06
-0.873031
-3.79607e-06
9.58025e-05
-3.83963e-05
0.0042717
1.02998e-06
0.00245881
-0.171514
0.36067
0.00186378
0.00100374
0.00980357
-2.34968e-05
2.70805e-05
-8.20921e-05
0.0415829
-0.000417095
0.738023
-0.698673
0.0271503
7.55987e-07
0.0370357
0.0761242
0.0335823
-0.000524462
-0.791279
6.39206e-07
-3.5794e-06
1.58154e-06
0.404205
-1.55509e-05
-3.66712e-06
-0.178734
-2.59504e-06
0.0524125
0.00330871
-1.12641e-05
-0.0976599
-0.00117247
-0.0973662
-2.1529e-05
-5.18315
-1.75828e-05
-0.000417587
-1.29389
-0.00037209
1.19139e-06
-0.00106741
-0.148854
-0.00299981
0.043838
-0.000640535
0.0003368
0.0358262
0.000421051
-1.86068e-05
5.44602
0.000571793
-0.00128932
0.57968
-3.24796e-07
-8.45978e-06
5.64667e-07
-0.00229338
-1.55882e-06
0.000178402
0.833358
-0.984133
0.000856073
0.187106
-0.0189205
-0.00385612
-5.18977
-0.861965
-1.60128e-06
3.10715
0.750929
0.174627
0.477588
0.000615196
-0.118376
-0.178905
-3.57747
0.39684
-11.7571
0.00118543
0.00669508
0.00027018
-0.000685489
1.6763e-05
2.06765
3.06185e-07
0.522546
0.00455017
0.0744748
-5.43622e-06
-0.00883077
0.00172253
9.23721e-06
8.54176e-08
2.17029e-06
-0.000329318
-0.000161376
-2.74336e-05
-0.00735128
-0.466675
-0.00015268
0.0433268
2.57596e-06
-0.00276858
0.0105139
-9.42104e-07
0.000288263
2.05302e-06
-0.246456
-0.134745
0.0233294
6.61597
0.000832069
0.00862148
4.35427e-06
-0.00765139
2.10613e-05
-3.12547e-05
6.74875e-07
-0.203876
-9.62548e-06
-0.00947622
0.211231
0.000510728
-0.00127711
-2.52055e-06
-0.0475342
0.0651714
-3.03753
-0.213493
0.0525224
0.0725657
0.175267
0.0998826
-0.0406533
2.99268
0.00250506
0.00211494
0.171302
1.24885
-2.60768e-07
0.17973
0.0371886
0.285196
-5.53353e-06
-0.00680875
-1.48033
1.93174e-08
1.00254
5.82719e-05
2.67195
2.11442e-06
-2.55444e-06
0.0106116
0.0485755
-0.000859446
0.00975255
-1.03424e-05
-1.58735e-05
0.160446
1.36606
-0.548772
-0.0148129
-1.78958e-05
-1.54737e-06
2.751e-06
0.00114128
0.224478
-0.13212
0.310599
0.204648
0.00108794
3.31581e-06
3.53276e-06
-0.169894
-0.525777
0.103781
5.08091e-06
0.000119944
0.0125866
0.704294
-0.304732
-4.18795e-07
3.89832e-07
4.43966
1.32274e-05
0.0376157
0.000128643
-5.87294e-06
0.000921522
0.00197763
-0.677797
5.01945
5.21788e-07
-1.04647e-05
0.000133726
-0.00218586
-3.35941
6.22087e-07
0.031053
1.93308
-3.0673e-06
-0.0115045
-0.17088
-2.8856
5.04066e-06
0.180026
4.26486
0.00158197
0.0564882
-0.00033898
0.000336709
0.0962781
-0.000384018
1.45387e-06
-0.437502
0.113992
-1.34506e-05
0.0154169
0.0424462
-0.000863836
0.0587443