/*--------------------------------*- C++ -*----------------------------------*\
| =========                 |                                                 |
| \\      /  F ield         | OpenFOAM: The Open Source CFD Toolbox           |
|  \\    /   O peration     | Version:  v2012                                 |
|   \\  /    A nd           | Website:  www.openfoam.com                      |
|    \\/     M anipulation  |                                                 |
\*---------------------------------------------------------------------------*/
FoamFile
{
    version     2.0;
    format      ascii;
    class       volScalarField;
    location    "900";
    object      k_0;
}
// * * * * * * * * * * * * * * * * * * * * * * * * * * * * * * * * * * * * * //

dimensions      [0 2 -2 0 0 0 0];


internalField   nonuniform List<scalar> 
13851
(
0.000200021
0.0001552
0.000155029
0.0261358
0.000148464
0.000157121
0.000157874
0.00014694
0.0601719
0.000148254
0.00017575
0.000148465
0.000148866
0.0248644
0.000167692
0.000553205
0.0404777
0.000148942
0.000232169
0.000198653
0.000167674
0.000156597
0.0455478
0.000149735
0.00038274
0.000201819
0.0512447
0.000359818
0.0686819
0.000146595
0.0844993
0.000157773
0.000201875
0.050136
0.000169115
0.0698359
0.000149811
0.00200055
0.0128425
0.000148607
0.0316425
0.0727885
0.0154693
0.000233072
0.0757569
0.000147284
0.000146058
0.000229417
0.000153231
0.000148835
0.0157453
0.000149202
0.00060363
0.000169844
0.0286886
0.000148591
0.000201613
0.0304655
0.0629596
0.0171876
0.000148528
0.0445893
0.000148585
0.000153529
0.00018265
0.000183432
0.0126496
0.000166826
0.000149228
0.0434022
0.0829305
0.000169662
0.000148193
0.0149116
0.000169621
0.000153296
0.0488206
0.000145985
0.000356247
0.000147488
0.000149347
0.000241781
0.000168717
0.0253463
0.0182922
0.086186
0.000156791
0.0286459
0.000148111
0.0825548
0.000149342
0.000157946
0.00854885
0.0792084
0.0323859
0.000203072
0.000147399
0.000748175
0.00939752
0.000196727
0.00090626
0.000162491
0.000163397
0.00014851
0.000147375
0.000168562
0.000147335
0.0859294
0.000157862
0.000148756
0.00016031
0.000147313
0.000202124
0.000176285
0.000209732
0.000168639
0.000146304
0.000146576
0.022043
0.0468356
0.000190754
0.000147801
0.000148979
0.0336712
0.00022405
0.000173083
0.000147386
0.000170905
0.0408298
0.000171069
0.000156484
0.000161617
0.000483573
0.0511413
0.000176384
0.0271874
0.000166498
0.0849712
0.000160273
0.000172297
0.000237863
0.000150357
0.000148146
0.000171656
0.0003452
0.000152641
0.000145917
0.0793416
0.0538054
0.00017145
0.000983508
0.000201385
0.000177403
0.00022
0.000149444
0.000148594
0.000148642
0.0184763
0.000170426
0.000155455
0.000149585
0.0692745
0.000168112
0.000269732
0.0259328
0.0689769
0.0702181
0.019196
0.000160005
0.000811125
0.000148654
0.000146282
0.000172562
0.000148835
0.0281532
0.0233335
0.000981652
0.000146224
0.000170305
0.000850407
0.000219587
0.000226711
0.000159538
0.000171283
0.019228
0.0552507
0.000202034
0.000157559
0.000149216
0.000146921
0.000305088
0.000170257
0.0185872
0.00015735
0.00015239
0.000743995
0.000201884
0.000150443
0.000150189
0.000167546
0.000239372
0.031882
0.0290054
0.000167746
0.000346549
0.0298807
0.000152326
0.000175579
0.0595408
0.000156362
0.000729171
0.000148889
0.000241452
0.000149565
0.000169538
0.000154467
0.000148736
0.000227632
0.000150349
0.000459554
0.000146192
0.000197612
0.0201703
0.0282189
0.000157274
0.00017601
0.000149758
0.000170157
0.000147883
0.000169271
0.0392954
0.000157207
0.000156291
0.000148739
0.0287769
0.0001466
0.025039
0.0282049
0.00019167
0.000149647
0.000476582
0.0188344
0.0780726
0.000367229
0.00016328
0.000175376
0.000222203
0.000171157
0.000201979
0.000161651
0.0264759
0.000194881
0.000146907
0.000158001
0.000848442
0.0668374
0.0347727
0.000146857
0.000173647
0.00014806
0.000232553
0.000221257
0.000158605
0.000168426
0.000197064
0.000147843
0.00016284
0.000217702
0.000412852
0.000148446
0.000148729
0.000157442
0.0658511
0.0150564
0.000169375
0.000148031
0.000223556
0.000220442
0.000198926
0.000168197
0.0637105
0.0103965
0.000158452
0.000165873
0.0113976
0.000147443
0.000148633
0.000199564
0.00017272
0.000146707
0.000149543
0.000147813
0.000147913
0.000163784
0.000148585
0.0615194
0.000168233
0.000148022
0.0670789
0.032351
0.000149212
0.000199428
0.00974579
0.00015062
0.000149331
0.000168563
0.0219405
0.0588445
0.000173604
0.000148369
0.000422855
0.00014859
0.000175614
0.0113359
0.000586081
0.000155128
0.00572476
0.000498517
0.0930408
0.000200888
0.000162999
0.017424
0.0370095
0.000350359
0.000150437
0.05042
0.00960104
0.000224888
0.000214405
0.000152358
0.00017408
0.000158141
0.0305431
0.000164007
0.000146917
0.000145295
0.000158289
0.0890217
0.000382984
0.000147372
0.0299105
0.000158215
0.000161925
0.000155799
0.0186029
0.000220415
0.000697347
0.000154071
0.000155752
0.0685594
0.000149221
0.000221824
0.000158393
0.000168504
0.000158725
0.000148084
0.000147998
0.000198209
0.000201329
0.000195319
0.00049922
0.0703955
0.000152816
0.0276515
0.000289395
0.000146891
0.00114855
0.000181957
0.0109946
0.000157822
0.000211129
0.0574807
0.000496695
0.000196142
0.0322053
0.000151595
0.0262281
0.0149155
0.000161247
0.0337761
0.000162651
0.0292953
0.000165565
0.000183735
0.000195604
0.000219949
0.000148589
0.000157759
0.000173727
0.000170438
0.000147429
0.000169999
0.0500183
0.000148165
0.000174633
0.0135612
0.000154517
0.00291251
0.000182306
0.0460092
0.000156915
0.000199639
0.000349483
0.000222405
0.000168486
0.0296461
0.0153559
0.000426806
0.000147865
0.000198337
0.000162806
0.000208765
0.000147791
0.0185493
0.0411719
0.000456226
0.000155662
0.000196153
0.0371601
0.0155219
0.000145837
0.0376858
0.000233366
0.0392552
0.000162172
0.000373281
0.000148339
0.000148767
0.0237492
0.033629
0.000148262
0.000155202
0.000174728
0.000146507
0.0402071
0.000174028
0.000181269
0.000158999
0.000151628
0.00014933
0.000481599
0.000147936
0.000149269
0.0854073
0.0485944
0.000155986
0.0483524
0.000148637
0.000148572
0.000154988
0.000196868
0.000184248
0.000147518
0.000152338
0.000190296
0.000153855
0.0665766
0.000148424
0.000162833
0.0766219
0.000161099
0.000145387
0.000148801
0.00015876
0.000151066
0.000386334
0.0853352
0.000163428
0.000694159
0.000155096
0.000148234
0.0497787
0.0549845
0.000160388
0.000148266
0.0364382
0.000159816
0.00137087
0.000148511
0.000161797
0.000197532
0.000170197
0.0391808
0.0411914
0.000452676
0.000152731
0.000201567
0.000147834
0.0666774
0.000181973
0.000201499
0.000162582
0.000153725
0.000161099
0.000172559
0.000148529
0.0197088
0.047655
0.065499
0.00700092
0.0856828
0.0522924
0.00022203
0.000156784
0.000149411
0.00589596
0.00014828
0.000147399
0.000158021
0.0279998
0.000155105
0.000150368
0.000173137
0.000169887
0.000148485
0.000543136
0.000147409
0.0449746
0.000363445
0.000147473
0.000154524
0.000235426
0.000721233
0.000146707
0.00210916
0.0229553
0.000147527
0.0635235
0.000227547
0.000196315
0.000152673
0.0853968
0.013746
0.000147766
0.000228941
0.000149071
0.000147419
0.0789113
0.0297484
0.000165639
0.000184067
0.000148327
0.000189333
0.0426869
0.0170588
0.000148604
0.0516706
0.000147482
0.000149209
0.000168514
0.000164017
0.000145828
0.000153259
0.0557516
0.000215185
0.0619619
0.000154574
0.000148036
0.0684011
0.000149235
0.00019901
0.000161664
0.000168923
0.000162929
0.0825735
0.0116736
0.000157274
0.0330339
0.000154498
0.000175465
0.0741763
0.0369108
0.000148833
0.000147869
0.000163554
0.0551401
0.0452269
0.000189347
0.0101766
0.00016428
0.000165341
0.0461935
0.000577983
0.000182021
0.0452958
0.000494604
0.0737738
0.000151036
0.0654143
0.000282666
0.000148425
0.0160805
0.000292175
0.000160029
0.00017185
0.00014844
0.000520408
0.000174502
0.0645822
0.000147991
0.000149027
0.000155432
0.000169618
0.000148505
0.0313335
0.000148989
0.000291995
0.000152681
0.000208978
0.000148461
0.000148507
0.000167163
0.051291
0.00016878
0.0310522
0.000161885
0.000146572
0.000147621
0.000173056
0.000152287
0.000186276
0.000155785
0.000160104
0.0628448
0.000149247
0.0285668
0.000149688
0.000229482
0.0376297
0.0747132
0.000156929
0.0575725
0.000172592
0.000210806
0.000284892
0.000149068
0.000564758
0.000158274
0.000161736
0.00876893
0.000281256
0.000147035
0.000185696
0.00015035
0.070223
0.0246132
0.000149847
0.000167387
0.0346443
0.000149768
0.000149696
0.000202934
0.023932
0.0836525
0.000149351
0.000195564
0.000153441
0.000148531
0.0655471
0.000196063
0.000195069
0.00014559
0.000217703
0.000163944
0.000197131
0.000150531
0.000152049
0.000173382
0.000155234
0.000232285
0.000169632
0.000169218
0.000178419
0.000575034
0.000228204
0.0737317
0.00138646
0.000564445
0.0341907
0.000163553
0.080374
0.000199019
0.000148582
0.000164705
0.000222484
0.000157559
0.000147505
0.000147481
0.000225213
0.0278226
0.000162918
0.0268771
0.000146611
0.0847167
0.000178527
0.00935062
0.000185701
0.000157061
0.000155138
0.0118021
0.000194823
0.000163203
0.0384651
0.000151262
0.00484183
0.000228296
0.000322723
0.000162302
0.000262335
0.000148307
0.000149635
0.00015191
0.000148536
0.0731442
0.000147895
0.0623119
0.0661651
0.000186266
0.0152106
0.0101334
0.000317795
0.000217164
0.000156831
0.000149189
0.000148635
0.000145977
0.000147561
0.000148853
0.000175163
0.000200253
0.000164734
0.000346039
0.000152169
0.0586491
0.000149964
0.0307756
0.000167634
0.000149898
0.000148859
0.0734918
0.000157355
0.078865
0.000284625
0.000171866
0.000174151
0.000147393
0.0484777
0.000153713
0.000155185
0.0648947
0.000149219
0.000150344
0.000148647
0.000180418
0.029479
0.000160021
0.00016253
0.000233024
0.0228554
0.000157223
0.00015671
0.0751653
0.000145912
0.0736233
0.000149295
0.000153982
0.000336842
0.000190017
0.000205626
0.000182802
0.000168814
0.000149522
0.00014996
0.000176804
0.000151189
0.000149569
0.000164454
0.000227262
0.000147736
0.000205146
0.00172058
0.0794284
0.000182603
0.0720003
0.000160585
0.000149162
0.000195089
0.000146716
0.000157925
0.0742302
0.069991
0.000582057
0.0783439
0.000150123
0.000149654
0.000169103
0.000151651
0.00014739
0.0397143
0.000257799
0.0348845
0.000231432
0.000190152
0.000148543
0.000146631
0.00402935
0.000181231
0.000154525
0.000149685
0.000208166
0.000204805
0.027462
0.000149407
0.000148966
0.024009
0.000150484
0.00016277
0.000146533
0.0287147
0.000147783
0.0441074
0.000148399
0.000187759
0.000166074
0.000168788
0.000162463
0.000148191
0.000155102
0.000148021
0.0605673
0.000150449
0.0406243
0.000151476
0.0459795
0.0549104
0.000161331
0.000147886
0.0153219
0.0861361
0.000157692
0.000191563
0.000148639
0.0258182
0.000148732
0.000221936
0.000148293
0.000147997
0.0774905
0.000163175
0.000148721
0.000170337
0.0324938
0.0004308
0.0345395
0.000146814
0.0377683
0.000148391
0.000147791
0.000149429
0.000144841
0.000149579
0.0279016
0.0685441
0.000150406
0.000148963
0.0001658
0.000147335
0.020995
0.000196251
0.02905
0.0135427
0.000155037
0.00023313
0.000148359
0.0001672
0.000175428
0.000148965
0.000149355
0.000660913
0.0253911
0.00017381
0.021176
0.000178539
0.000148623
0.000167179
0.00019255
0.04254
0.000163151
0.0710222
0.000181851
0.000149482
0.0672348
0.0632444
0.0376291
0.000301806
0.0769106
0.000152673
0.000175102
0.000149305
0.0116502
0.000157134
0.000146936
0.0327519
0.000151864
0.00014789
0.000148885
0.000151474
0.0309497
0.000221552
0.000146925
0.000167355
0.0229905
0.000152537
0.0191966
0.000151533
0.000184982
0.0298832
0.00014861
0.0515266
0.00015987
0.000162192
0.000499492
0.000151842
0.000239835
0.000199685
0.0335157
0.000150903
0.0371241
0.00016087
0.0289461
0.0333048
0.0297405
0.000172837
0.000148324
0.000150194
0.000149763
0.000181609
0.000148803
0.0392116
0.000158945
0.000156703
0.000157066
0.000152564
0.00014676
0.000163246
0.000158114
0.000154462
0.000157583
0.000583872
0.0588833
0.000160786
0.000168811
0.0316126
0.000150446
0.0913584
0.000145916
0.000161219
0.00015048
0.000148289
0.000166371
0.000148183
0.000146879
0.000162928
0.000148658
0.000227887
0.000151905
0.0171504
0.000347608
0.000217766
0.000221189
0.000149772
0.0207322
0.000203822
0.000149505
0.000157974
0.000150134
0.0932607
0.00015154
0.000162867
0.0020297
0.0110696
0.000176229
0.000149878
0.0811635
0.00126767
0.0786834
0.000159833
0.000146517
0.00014854
0.00017355
0.000148316
0.0121992
0.000199027
0.000149351
0.000250029
0.000230794
0.000148505
0.00035955
0.0400878
0.000242735
0.000151754
0.0816743
0.000174651
0.000148
0.0274481
0.000156497
0.000148167
0.000147474
0.00016863
0.000180918
0.0630918
0.0850697
0.00017647
0.0687763
0.000168403
0.000148099
0.000168767
0.000147518
0.00106374
0.000148772
0.000148199
0.00015346
0.000151098
0.0613795
0.0305349
0.0309956
0.0112996
0.00165175
0.000157309
0.000148202
0.000151896
0.000240359
0.000148703
0.000147583
0.000168273
0.000351571
0.0480818
0.000146084
0.000165157
0.00016261
0.000195291
0.0164398
0.000147561
0.000145736
0.000154888
0.000450791
0.000164452
0.0403972
0.000151972
0.000149043
0.00014825
0.000147443
0.00015447
0.000255806
0.0752654
0.0711367
0.000157013
0.000148236
0.00294566
0.000151108
0.000387395
0.0173633
0.000158331
0.0580133
0.0717409
0.0684821
0.000189003
0.00016307
0.0427943
0.000161302
0.000160585
0.000169426
0.000211939
0.000151035
0.000517845
0.000148136
0.0780149
0.000462581
0.000145934
0.000152874
0.000166651
0.000239205
0.000163482
0.00014889
0.000161791
0.000151548
0.000158861
0.000249224
0.000149119
0.0861307
0.0296991
0.000148182
0.000162527
0.000180001
0.000148482
0.0676755
0.0120715
0.0187213
0.0486293
0.000148099
0.000154787
0.000157188
0.000149418
0.0367194
0.000163883
0.000149719
0.000184345
0.000154901
0.0527857
0.000166506
0.0179792
0.000151425
0.000152546
0.000164099
0.000181047
0.000175238
0.000147836
0.0137101
0.0274056
0.0348955
0.05521
0.0775071
0.0675199
0.0280333
0.000147837
0.000148019
0.000149473
0.0422138
0.000182908
0.00017551
0.0232832
0.00015064
0.000145602
0.000148324
0.0304966
0.000145897
0.000158951
0.000153007
0.0852263
0.000151039
0.000146761
0.000148501
0.000147869
0.000149011
0.000160285
0.0322671
0.000160662
0.0365516
0.000148042
0.000147454
0.0430707
0.0565778
0.0263598
0.0825878
0.000163976
0.0841878
0.00014648
0.000168968
0.000152503
0.000148437
0.000156574
0.055182
0.000152946
0.000181546
0.00213821
0.000150695
0.00014817
0.000155249
0.000319641
0.00014981
0.0853044
0.000149399
0.0347595
0.000148804
0.000150342
0.000157924
0.000171311
0.000148883
0.0534975
0.0843028
0.0226365
0.0540626
0.000148338
0.0483298
0.0050737
0.000148156
0.000477098
0.000149415
0.000162029
0.000149233
0.00015052
0.000147564
0.000148545
0.000150427
0.000155822
0.000175237
0.000150102
0.000148586
0.000165951
0.000147007
0.00333085
0.000148805
0.000161914
0.000169766
0.0189985
0.000357227
0.000149011
0.000282399
0.000146493
0.000168362
0.000172175
0.0812518
0.00017355
0.00014981
0.00021783
0.000168265
0.000185895
0.000274492
0.000161202
0.000196773
0.000187649
0.000178864
0.000150932
0.000147855
0.0775374
0.012879
0.000154854
0.00014797
0.0187709
0.000146647
0.00016646
0.000147541
0.000175577
0.000467856
0.000145422
0.023394
0.000157062
0.000149092
0.00103626
0.000146934
0.000161569
0.0514331
0.000165709
0.0794351
0.000147526
0.000149762
0.000162483
0.00014953
0.000149637
0.000161989
0.00016037
0.000174432
0.000176793
0.000148609
0.000165178
0.000147629
0.000148298
0.000149461
0.000148198
0.000735285
0.000148786
0.000151609
0.0449835
0.000146602
0.000147886
0.0635338
0.000149669
0.0111842
0.000153302
0.0724372
0.000222412
0.000164662
0.00277626
0.000176298
0.00031698
0.000150812
0.00020607
0.000157673
0.000147728
0.000147297
0.000151601
0.000161699
0.000147788
0.000170207
0.000147149
0.00015252
0.0164525
0.0163782
0.0001215
0.000156368
0.000163301
0.0142563
0.0369199
0.000149197
0.000158763
0.000381829
0.00015011
0.00016711
0.000340235
0.0724613
0.000160591
0.000172801
0.000151138
0.000230447
0.000149916
0.000161385
0.000385819
0.000148913
0.000147046
0.00439519
0.000168703
0.0346805
0.0530224
0.000222251
0.000149783
0.000147171
0.000150491
0.0631221
0.000281226
0.030015
0.000173202
0.000148513
0.0173884
0.000148689
0.00020118
0.000155467
0.000154328
0.000166928
0.000148242
0.000302882
0.00101728
0.000147479
0.000173005
0.000183248
0.00145208
0.000168752
0.000190758
0.0363946
0.000169048
0.0566955
0.000187986
0.000148716
0.000169564
0.000168536
0.0860079
0.000148059
0.0697226
0.000169778
0.0001956
0.000149816
0.00691608
0.00015792
0.000152428
0.000147386
0.000166068
0.000165499
0.000166337
0.000148862
0.000150811
0.000171014
0.00861675
0.000174409
0.00014908
0.00015043
0.00017021
0.000212321
0.000149188
0.000178588
0.00989494
0.000167217
0.0776384
0.000180844
0.00886019
0.000238557
0.000147862
0.000445876
0.000149552
0.000155174
0.000166043
0.000163701
0.00018538
0.000179191
0.000165556
0.000166628
0.000161008
0.000153625
0.000145832
0.000169788
0.000157148
0.000157604
0.000356293
0.000156709
0.000159622
0.000147464
0.0341322
0.000177389
0.000148614
0.000155698
0.000151703
0.0214078
0.000199411
0.000166161
0.0767571
0.000295795
0.000425637
0.000181965
0.0536015
0.00014707
0.000186245
0.000147607
0.000155643
0.00631639
0.0673135
0.000235042
0.000845925
0.000148791
0.0181659
0.000147051
0.000193984
0.000154937
0.0820512
0.0298872
0.000161219
0.000148027
0.000233759
0.00016243
0.000147927
0.0735934
0.000148458
0.000152557
0.000157277
0.000149231
0.000160819
0.000151817
0.000148483
0.000163004
0.000262828
0.00016696
0.000174464
0.000147887
0.0105003
0.0692351
0.000147891
0.0414902
0.000154846
0.000157466
0.0438141
0.000147866
0.000150493
0.000156913
0.0201495
0.000148002
0.000149177
0.000165922
0.0766617
0.000147762
0.000159923
0.000161806
0.000363734
0.000169643
0.000165893
0.000259918
0.000148468
0.000172851
0.000145909
0.0147629
0.000160299
0.000148325
0.000162179
0.00018503
0.000148952
0.000150012
0.000197188
0.0813277
0.000151076
0.0181956
0.000149248
0.000145898
0.000173417
0.000148058
0.000148802
0.000348644
0.000149836
0.000165912
0.000921077
0.0913259
0.000339398
0.000148632
0.000152767
0.000156657
0.000148423
0.000148322
0.000148587
0.0765858
0.000149329
0.0524054
0.000203701
0.000146987
0.000147126
0.000160388
0.000203829
0.0430888
0.000166527
0.000175284
0.000153304
0.062703
0.000174698
0.00016878
0.000171008
0.000171088
0.000183838
0.0251783
0.000178276
0.0430868
0.0436279
0.0283564
0.00015572
0.000148007
0.000165606
0.000159558
0.000147938
0.000151141
0.000177865
0.000149614
0.000150192
0.000148182
0.000145645
0.000154419
0.000149415
0.0478766
0.000148007
0.000398735
0.000148481
0.000172949
0.000151156
0.000200241
0.000172594
0.000148349
0.0699922
0.000152685
0.000149525
0.000168325
0.000147494
0.000159105
0.000148962
0.078031
0.000154083
0.000166537
0.000171018
0.0712131
0.000158309
0.0537732
0.000356322
0.000168787
0.000149696
0.000152297
0.000175322
0.000174621
0.0356266
0.000146811
0.0457603
0.000148695
0.000169632
0.0550899
0.000164559
0.0790493
0.000155581
0.000162115
0.000154538
0.000960339
0.0001611
0.000148866
0.000168033
0.000195335
0.00015289
0.000148084
0.0001489
0.013401
0.0001497
0.000157663
0.0531694
0.000155804
0.000147851
0.000170443
0.000155142
0.0633571
0.000145624
0.00014808
0.000146873
0.000154946
0.000150685
0.000149728
0.000178715
0.0523515
0.000147724
0.00014863
0.0291738
0.000150819
0.0227241
0.000155885
0.012532
0.000147468
0.000153632
0.000146478
0.0428439
0.0568776
0.000159553
0.000169022
0.000155686
0.000147727
0.000148739
0.0793765
0.000148831
0.000196159
0.000146908
0.000182901
0.000149303
0.0341444
0.000146674
0.000176971
0.000147151
0.000231522
0.000399896
0.000147241
0.000165919
0.000531003
0.000178907
0.0844681
0.0789279
0.000209084
0.000151885
0.000162876
0.000182855
0.000503422
0.00015066
0.000177416
0.00015681
0.000148127
0.039688
0.0495116
0.000175309
0.000200772
0.000234969
0.000162448
0.0705884
0.000147845
0.000147121
0.000185729
0.000825157
0.000209774
0.000200205
0.00200456
0.000146489
0.00369379
0.0447936
0.0657812
0.000149313
0.0452639
0.0778645
0.000409145
0.000424941
0.0440669
0.00019405
0.000160512
0.000202726
0.000154482
0.000147905
0.000420128
0.000181584
0.00014575
0.0210295
0.000149285
0.000158867
0.000167533
0.000155683
0.000274136
0.000160625
0.0139015
0.000179248
0.00015503
0.0390367
0.0313684
0.000195088
0.000149927
0.000154629
0.000176675
0.000168251
0.000146614
0.000169816
0.000167379
0.00019619
0.00014783
0.000206223
0.000153969
0.000168015
0.0862469
0.0583757
0.000151381
0.0001835
0.0669239
0.000148905
0.00015115
0.0765681
0.000236436
0.000154467
0.000155118
0.000148559
0.000173377
0.000158088
0.0733572
0.000185485
0.000150041
0.000149449
0.000166582
0.000159551
0.00115448
0.020974
0.000147189
0.000148025
0.000158275
0.000149287
0.000154378
0.000151497
0.00015172
0.000154804
0.000147482
0.000154539
0.000149221
0.000178029
0.00037745
0.000149756
0.0384913
0.0376986
0.000145925
0.000183573
0.000185538
0.000177336
0.00015057
0.000182292
0.000158235
0.000168905
0.000160584
0.000152665
0.00014935
0.0385512
0.000164976
0.0811352
0.000150512
0.00014828
0.000147954
0.000172234
0.000147667
0.000168606
0.000183768
0.000369054
0.00014726
0.000599497
0.000471833
0.0278722
0.000146442
0.000194436
0.000228643
0.000469531
0.000299661
0.000150359
0.000149693
0.000195056
0.00378261
0.076926
0.000166175
0.0460801
0.0001495
0.000148058
0.000164368
0.000149326
0.000149147
0.000199733
0.000149772
0.000169798
0.000147459
0.0305584
0.0467977
0.0502716
0.086085
0.0253731
0.00014895
0.000149008
0.000365364
0.000147013
0.000147357
0.000145934
0.000181896
0.0453457
0.0384265
0.000156396
0.000150264
0.00015237
0.000162982
0.0244659
0.000148133
0.08045
0.0310706
0.000149293
0.00014919
0.0410466
0.000194749
0.000154258
0.000148093
0.0331225
0.0176711
0.000149186
0.000242621
0.000149693
0.0320939
0.000520781
0.000155289
0.0308135
0.0274042
0.0270174
0.000147242
0.000150617
0.000149653
0.000149908
0.0559113
0.000147386
0.000199892
0.0549802
0.0277068
0.000151511
0.000172721
0.000308883
0.000170119
0.000328169
0.0777959
0.000145465
0.000157269
0.000157265
0.000313451
0.0793615
0.000145503
0.0309773
0.000160894
0.000171691
0.000150579
0.00014747
0.000225284
0.000166795
0.0233533
0.000149319
0.00017252
0.000151271
0.000198521
0.000154993
0.0527094
0.0361338
0.000207383
0.000218568
0.000147774
0.00015333
0.000180622
0.000182707
0.0684437
0.000412774
0.00014894
0.0829368
0.000170504
0.00548056
0.000162612
0.000168452
0.000165886
0.000149592
0.0318635
0.000148355
0.0001626
0.0448328
0.0298471
0.000515362
0.0414201
0.000158315
0.000168385
0.000147018
0.0307553
0.000157404
0.000349901
0.000146987
0.0653583
0.000145467
0.000147804
0.00016209
0.000158814
0.000160143
0.00014794
0.0473414
0.000177845
0.000147401
0.000165345
0.0429626
0.000230117
0.000148295
0.0776658
0.000154433
0.000167969
0.000167909
0.000145733
0.000175822
0.000147748
0.00333054
0.000172329
0.000161866
0.000148028
0.000237097
0.000165442
0.000147015
0.0437865
0.000278795
0.000221175
0.000147286
0.000376248
0.000148966
0.000190887
0.000160891
0.000179809
0.000292628
0.0434866
0.000159823
0.0437441
0.000168814
0.000158171
0.000146718
0.0507027
0.000178296
0.000186661
0.00016579
0.000149594
0.080459
0.000181776
0.000240953
0.0445755
0.000331784
0.048274
0.000472572
0.050771
0.000158427
0.000158968
0.000148585
0.000149505
0.000145607
0.000224379
0.000158945
0.000160121
0.0324954
0.000147447
0.000146802
0.00017643
0.000195494
0.000159369
0.000146655
0.0321842
0.000154383
0.000181276
0.000149097
0.049842
0.000157425
0.0297978
0.000166578
0.000162923
0.00017029
0.000148519
0.0123461
0.000287889
0.000177378
0.000148306
0.000147187
0.0235436
0.0895939
0.0678245
0.000148277
0.000177915
0.000472924
0.000149511
0.000147899
0.000148992
0.046155
0.000171603
0.000163023
0.000163376
0.000158537
0.0762184
0.00017779
0.000224591
0.000160997
0.000162343
0.000145646
0.000181634
0.000171866
0.000148039
0.0783372
0.0711034
0.0310292
0.0817803
0.0731267
0.019611
0.000324786
0.000151449
0.000148655
0.00826044
0.0193452
0.000334548
0.000148459
0.000165512
0.000148575
0.000147698
0.0749984
0.0303361
0.00017305
0.0001478
0.0269453
0.000181133
0.000169037
0.0315897
0.00031754
0.0399933
0.000147228
0.0502089
0.074218
0.000235465
0.000167255
0.000166342
0.000149259
0.000146964
0.000165502
0.000168587
0.000154432
0.000170949
0.000159325
0.000154795
0.0387462
0.039602
0.000159522
0.00017357
0.0263131
0.0298306
0.000148691
0.000194671
0.000240479
0.0370956
0.000167057
0.000149795
0.000160147
0.000157454
0.000158762
0.00014574
0.000159256
0.000164069
0.000175029
0.000206314
0.000149502
0.000152228
0.046397
0.079722
0.0311907
0.000278472
0.000219553
0.000145261
0.000148494
0.00016052
0.000146847
0.000589134
0.000148306
0.000149832
0.000146213
0.0770324
0.0292242
0.000149791
0.000177243
0.000158632
0.000161848
0.000160194
0.000160071
0.000166452
0.000165122
0.0295203
0.000157775
0.0155235
0.000166212
0.0290639
0.000159611
0.000147381
0.000146656
0.00018255
0.000197031
0.000146559
0.000163162
0.000159805
0.000174071
0.0858988
0.0276391
0.0662212
0.00014983
0.000266646
0.000159113
0.000164211
0.000148021
0.000177208
0.000153052
0.0417401
0.000323249
0.000165703
0.000148422
0.0797297
0.0001559
0.0345501
0.0138315
0.0409954
0.000154045
0.000192661
0.0730504
0.000261823
0.0481116
0.000174513
0.000148594
0.000166445
0.000148408
0.0196523
0.00015431
0.000161484
0.0327341
0.0168689
0.000148294
0.000147765
0.077444
0.000167391
0.0549962
0.000159032
0.000148111
0.000167413
0.000234837
0.000162746
0.082178
0.000164063
0.000258632
0.000155561
0.000149653
0.000147666
0.00022162
0.000150481
0.000180769
0.000148541
0.000148768
0.000218035
0.000158755
0.000149594
0.000148094
0.000163931
0.000259897
0.000174544
0.000165505
0.000155417
0.000174505
0.000148276
0.000190102
0.000160722
0.000166696
0.000167293
0.000164497
0.000173681
0.000163407
0.000148248
0.000176323
0.0675701
0.0497498
0.000149806
0.000893739
0.0363439
0.000147747
0.000150523
0.000237225
0.0303473
0.000156345
0.0392121
0.000235517
0.000149978
0.000188033
0.000145545
0.000157231
0.000174119
0.0112595
0.000206958
0.0430998
0.000359871
0.0800108
0.0348646
0.000154445
0.0461974
0.000148175
0.0724071
0.0273462
0.000148628
0.000148457
0.048106
0.000148992
0.00014848
0.00311889
0.0774128
0.000214669
0.000159107
0.0247517
0.000148613
0.0821266
0.0421774
0.000149225
0.0406536
0.000527406
0.0241192
0.0489589
0.0455284
0.0456643
0.000147003
0.000151542
0.000173454
0.00017388
0.000148427
0.0311766
0.00014812
0.0487651
0.0133885
0.000164459
0.0307909
0.0517298
0.0169221
0.0367424
0.00016573
0.0423606
0.000260677
0.000157292
0.00014569
0.0782265
0.000161589
0.000146896
0.00570882
0.000147796
0.0807686
0.000149103
0.034815
0.000158027
0.000147745
0.00954538
0.000156111
0.000160872
0.0430219
0.000427326
0.000924491
0.000161646
0.000185055
0.000151775
0.000175177
0.000193094
0.000172624
0.000149396
0.000352337
0.000171493
0.000161772
0.0415969
0.000165689
0.000162483
0.000200793
0.000176744
0.000175942
0.000147722
0.000205496
0.000146681
0.000193894
0.0639371
0.0208981
0.000146924
0.000165821
0.0381891
0.000153449
0.000176135
0.000167508
0.000167162
0.0180017
0.000171128
0.000151891
0.039744
0.000146998
0.0796377
0.000148839
0.000152399
0.000195178
0.0700589
0.000161826
0.000190708
0.000233806
0.00016527
0.000150093
0.000177677
0.000168617
0.0217711
0.000155358
0.00648986
0.000197516
0.000166398
0.000160001
0.000176872
0.000165197
0.000168091
0.00017133
0.000162792
0.000154521
0.000150218
0.000894517
0.000148099
0.000159296
0.000145547
0.000196985
0.000159646
0.000172489
0.0367236
0.000151284
0.000213151
0.000144919
0.000149081
0.00014928
0.000149382
0.00016076
0.000147426
0.000188866
0.00950215
0.000174299
0.000167536
0.000157313
0.00014896
0.0548289
0.000148194
0.0710112
0.0403922
0.056904
0.000275278
0.000163557
0.000161079
0.00014923
0.000158353
0.000170576
0.00016804
0.019331
0.000176522
0.0918388
0.000685012
0.000149366
0.000146681
0.049193
0.000147694
0.000160837
0.000166497
0.000234624
0.000153973
0.0472085
0.000149162
0.000156268
0.000148608
0.000150316
0.000177586
0.000205689
0.000149902
0.000168014
0.000159946
0.000168834
0.000180253
0.000227684
0.000202043
0.000217749
0.00026456
0.0001615
0.000152109
0.000183148
0.0701103
0.000259134
0.0788484
0.000164587
0.00039645
0.000213678
0.000151941
0.000147761
0.000195537
0.000148997
0.000169264
0.0426694
0.000147658
0.000147682
0.000267181
0.0725496
0.000180119
0.000496163
0.000148935
0.0279034
0.000167847
0.0294333
0.000157311
0.000148253
0.0820321
0.000165404
0.000148263
0.000171316
0.000149705
0.000189273
0.00015936
0.000164612
0.00123791
0.000159774
0.0387261
0.000147372
0.0945619
0.000148864
0.00015678
0.000150573
0.000169477
0.000148908
0.000166277
0.0784028
0.000231999
0.000169182
0.000161278
0.000168698
0.000148002
0.000148295
0.000152789
0.05287
0.000157116
0.0315997
0.0281657
0.000187622
0.000149466
0.000192089
0.000206612
0.000196274
0.000160936
0.0151145
0.000147833
0.000145229
0.000147705
0.000469937
0.000149502
0.00014814
0.0794944
0.000147698
0.000200614
0.000171851
0.00014838
0.0634248
0.000164739
0.0331252
0.000148437
0.00542919
0.000151784
0.000167463
0.0315851
0.000172386
0.000147506
0.000161773
0.0662322
0.000168571
0.000193674
0.000161466
0.000156915
0.000185801
0.000158665
0.000150839
0.0190293
0.000159789
0.000163893
0.000345289
0.000147758
0.000147194
0.000149209
0.000169084
0.00014884
0.000155665
0.0388614
0.0154394
0.000171405
0.0104025
0.000193839
0.000174613
0.0117693
0.0953467
0.000149905
0.0379345
0.000418939
0.0439433
0.000482128
0.000160987
0.0635826
0.0789287
0.0532656
0.000458378
0.000276515
0.00016314
0.000169783
0.000158083
0.000159936
0.000150535
0.000439124
0.000149909
0.0235431
0.000174592
0.000201713
0.000145298
0.000179534
0.000163913
0.000152164
0.000149956
0.000148695
0.000174055
0.000154571
0.000150792
0.00017818
0.0369529
0.000154867
0.000192364
0.000146597
0.000173989
0.000169531
0.000148974
0.000156802
0.000147446
0.0366089
0.0680324
0.000202928
0.00726129
0.000161528
0.000179483
0.000148875
0.000175334
0.000149352
0.000150265
0.000149578
0.0724011
0.000146708
0.000185374
0.000264517
0.000158009
0.000162089
0.000147786
0.0164091
0.000204828
0.044376
0.0315448
0.000200876
0.000225182
0.0384971
0.000230649
0.062198
0.0355253