/*--------------------------------*- C++ -*----------------------------------*\
| =========                 |                                                 |
| \\      /  F ield         | OpenFOAM: The Open Source CFD Toolbox           |
|  \\    /   O peration     | Version:  v2012                                 |
|   \\  /    A nd           | Website:  www.openfoam.com                      |
|    \\/     M anipulation  |                                                 |
\*---------------------------------------------------------------------------*/
FoamFile
{
    version     2.0;
    format      ascii;
    class       volVectorField;
    location    "50";
    object      cellDisplacement;
}
// * * * * * * * * * * * * * * * * * * * * * * * * * * * * * * * * * * * * * //

dimensions      [0 1 0 0 0 0 0];


internalField   nonuniform List<vector> 
13917
(
(0.0184916 0.101789 0)
(0.0132632 0.0919568 0)
(0.0177524 -0.0415446 0)
(0.0139918 -0.0456663 0)
(0.00228112 0.0738118 0)
(0.00426971 0.147917 0)
(0.0175769 -0.0510908 0)
(0.0178862 -0.034326 0)
(0.0186688 0.00778702 0)
(0.0193529 0.102571 0)
(0.0176522 -0.0405101 0)
(0.0166963 -0.0628818 0)
(0.0140024 -0.0476849 0)
(0.0180742 -0.024479 0)
(0.0132653 0.128516 0)
(0.0141072 0.122153 0)
(0.0130604 0.0998025 0)
(0.0185875 0.0344518 0)
(0.0166252 -0.0642151 0)
(0.00369162 0.0337961 0)
(0.000785455 0.0133107 0)
(0.0175584 -0.052127 0)
(0.00483814 0.0543638 0)
(0.0178812 -0.0345255 0)
(0.00616822 0.0936086 0)
(0.0173411 -0.0637693 0)
(0.00463718 0.144 0)
(0.0101033 0.144629 0)
(0.0196832 0.146003 0)
(0.0195417 0.0763993 0)
(0.0186984 0.0948779 0)
(0.0171207 0.0997303 0)
(0.00771661 0.142062 0)
(0.00210739 0.13642 0)
(0.00507455 0.0984894 0)
(0.0175634 -0.0494752 0)
(0.00460894 0.0522919 0)
(0.0180743 -0.0244978 0)
(0.014537 -0.0531165 0)
(0.0168692 -0.0895371 0)
(0.00105251 0.00569488 0)
(0.000351977 0.00531514 0)
(0.00642163 0.00353025 0)
(0.0129396 0.145635 0)
(0.0141176 0.0513317 0)
(0.00362991 0.138464 0)
(0.0185373 0.0326971 0)
(0.0183483 0.00903463 0)
(0.00701214 0.148084 0)
(0.000971798 0.00696701 0)
(0.0170643 0.0189171 0)
(0.00363677 0.123154 0)
(0.00618797 0.148102 0)
(0.00225889 0.136989 0)
(0.013031 0.101375 0)
(0.0174001 0.0508443 0)
(0.017674 -0.038994 0)
(0.00918165 0.105193 0)
(0.0169103 0.0625948 0)
(0.0139474 0.0517836 0)
(0.0202251 0.0929392 0)
(0.0134007 0.0907673 0)
(0.0180585 -0.0253476 0)
(0.00390914 0.0359816 0)
(0.00517787 0.147848 0)
(0.0207774 0.126742 0)
(0.000894977 0.0769206 0)
(0.00109537 0.100739 0)
(0.0183628 -0.00388421 0)
(0.0178763 0.113843 0)
(0.00234374 0.0717082 0)
(0.0186583 0.00725998 0)
(0.0188874 0.0193744 0)
(0.00615375 0.0920093 0)
(0.0092224 0.148045 0)
(0.0162477 -0.081848 0)
(0.0186194 0.00493934 0)
(0.0155447 0.0457733 0)
(0.0171156 -0.0758552 0)
(0.00150928 0.0246588 0)
(0.00223581 0.028906 0)
(0.000873858 0.0737154 0)
(0.00756789 0.147757 0)
(0.0180809 -0.0241382 0)
(0.0204132 0.101949 0)
(0.0154252 0.0439401 0)
(0.00292788 0.033368 0)
(0.0207741 0.12785 0)
(0.0169791 0.0183307 0)
(0.00670774 0.00282048 0)
(0.0186419 0.00613971 0)
(0.0195982 0.0917675 0)
(0.0121489 0.0651151 0)
(0.0103438 0.124071 0)
(0.0207947 0.128842 0)
(0.00189982 0.147907 0)
(0.0179858 -0.0203608 0)
(0.0184222 0.0162345 0)
(0.016796 -0.0772406 0)
(0.0087598 0.146712 0)
(0.00563712 0.0286993 0)
(0.00213055 0.141639 0)
(0.0121734 0.145757 0)
(0.0158511 0.0295926 0)
(0.00924311 0.0450628 0)
(0.0187908 0.0144535 0)
(0.0195655 0.144901 0)
(0.0183802 0.00940286 0)
(0.0132693 0.0988625 0)
(0.0188045 0.100141 0)
(0.0196106 0.0584108 0)
(0.0168843 -0.0887251 0)
(0.0168182 -0.0664812 0)
(0.0187695 0.0132661 0)
(0.00322601 0.129446 0)
(-0.000970684 0.148247 0)
(0.00677769 0.0773116 0)
(0.00582476 0.148076 0)
(0.017518 -0.0545219 0)
(0.00374908 0.136856 0)
(0.000678905 0.0102999 0)
(0.0183832 -0.00248826 0)
(0.0176949 -0.0450598 0)
(0.00967185 0.144425 0)
(0.000918632 0.00604339 0)
(0.0101661 0.123306 0)
(0.0138397 0.0621866 0)
(0.00073806 0.00492817 0)
(0.00384257 0.00523779 0)
(0.00286337 0.147941 0)
(0.0176104 -0.0495435 0)
(0.00308092 0.128706 0)
(0.0142177 0.0532295 0)
(0.000625785 0.0109674 0)
(0.0193767 0.0477067 0)
(0.0178583 -0.0357282 0)
(0.0184805 0.103865 0)
(0.00850987 0.146907 0)
(0.00107379 0.0785485 0)
(0.00321773 0.136741 0)
(0.0176133 -0.0462543 0)
(0.0110766 0.0380907 0)
(0.00555889 0.125288 0)
(0.0123302 0.146217 0)
(0.00128294 0.101824 0)
(0.0186486 0.00692033 0)
(0.0200236 0.145295 0)
(0.00376545 0.122224 0)
(0.0104135 0.0331408 0)
(0.0170814 0.105286 0)
(0.0177532 -0.0142993 0)
(-0.00198888 0.148263 0)
(0.0175136 -0.037952 0)
(0.0176558 0.126811 0)
(0.0173827 0.0776456 0)
(0.020837 0.125426 0)
(0.0177289 0.114164 0)
(0.0181264 -0.0203249 0)
(0.018631 0.00557825 0)
(0.0194047 0.0492508 0)
(0.00771248 0.132357 0)
(0.000131254 0.143976 0)
(0.00159544 0.0218212 0)
(0.0179512 -0.0215165 0)
(0.0168383 -0.0647343 0)
(0.0168096 -0.0758867 0)
(0.0158194 0.0318316 0)
(0.0180813 -0.000208042 0)
(0.0131384 0.0504654 0)
(0.00176084 0.141987 0)
(0.0179565 0.123159 0)
(0.0198258 0.0700225 0)
(0.0167216 -0.0719162 0)
(0.0134432 0.106324 0)
(0.018476 -0.00224477 0)
(0.0178253 0.130132 0)
(0.0175995 -0.0501174 0)
(0.00581415 0.148094 0)
(0.0186253 0.0057248 0)
(0.011071 0.0831173 0)
(0.019615 0.0895162 0)
(0.0187902 0.0933699 0)
(0.0111006 0.0361899 0)
(0.00309422 0.0356667 0)
(0.0130395 0.135027 0)
(0.0173412 -0.0636585 0)
(0.0199873 0.0878759 0)
(0.0208207 0.124836 0)
(0.0183092 0.0505685 0)
(0.0170864 -0.0637621 0)
(0.0178878 -0.0321276 0)
(0.0204218 0.102542 0)
(0.0201157 0.0972079 0)
(0.00445645 0.0603653 0)
(0.00531654 0.147106 0)
(0.00483894 0.143683 0)
(0.000373291 0.0015073 0)
(0.0122675 0.0668016 0)
(0.0193522 0.143481 0)
(0.020798 0.130854 0)
(0.0161836 -0.0147508 0)
(0.000908439 0.00659528 0)
(0.0179186 -0.00499849 0)
(0.0176984 -0.0158754 0)
(0.018882 0.0190748 0)
(0.0190134 0.0280219 0)
(0.00485987 0.0973438 0)
(0.00926737 0.10655 0)
(0.0183668 0.013822 0)
(0.0175216 -0.0539411 0)
(0.00571014 0.124397 0)
(0.0176239 -0.0485815 0)
(0.0188952 0.0197695 0)
(0.0171092 -0.0622648 0)
(0.00924973 0.0464449 0)
(0.0164915 0.147319 0)
(0.0182345 0.0113066 0)
(0.0194822 0.0514582 0)
(0.00824527 0.08282 0)
(0.0202298 0.0935659 0)
(0.0108955 0.0819133 0)
(0.019374 0.067012 0)
(0.00124792 0.00692905 0)
(0.0182217 -0.0165534 0)
(0.0188338 0.016769 0)
(0.0143433 0.122426 0)
(0.0207386 0.132472 0)
(0.0174802 0.0758993 0)
(0.0090048 0.0463137 0)
(0.0175395 -0.0504895 0)
(0.0166547 -0.073396 0)
(0.0182611 0.0483823 0)
(0.0177857 -0.0396311 0)
(0.0189087 0.0204949 0)
(0.00361076 0.0154302 0)
(0.0172581 0.0991028 0)
(0.0186486 0.00650333 0)
(0.0205692 0.110316 0)
(0.0017644 0.0247508 0)
(0.0064393 0.0479678 0)
(0.0167143 -0.0978854 0)
(0.0180853 -0.016617 0)
(0.00015557 0.00130655 0)
(0.0174122 -0.0560584 0)
(0.018939 0.036259 0)
(-0.000282945 0.143683 0)
(0.0183135 0.0973631 0)
(0.00175249 0.0233411 0)
(0.0171985 0.134128 0)
(0.0187955 0.0144317 0)
(0.0129467 -0.00825303 0)
(0.0197855 0.0929391 0)
(0.0104114 0.14698 0)
(0.0137354 0.0601751 0)
(0.00888021 0.104893 0)
(0.0173533 -0.0392599 0)
(0.0167829 -0.0941813 0)
(0.0174853 -0.0381198 0)
(0.0133638 0.135127 0)
(0.0135772 0.127975 0)
(0.000262198 0.00223341 0)
(0.0176904 -0.0453065 0)
(0.0192974 0.0421385 0)
(0.0171906 -0.0676928 0)
(0.00901127 0.047632 0)
(0.0191152 0.0317294 0)
(0.0181409 -0.0209345 0)
(0.0181198 -0.0208606 0)
(0.0170975 -0.0768816 0)
(0.0162901 -0.0824034 0)
(0.00209853 0.0278763 0)
(0.00110743 0.00691411 0)
(0.0184709 0.0280229 0)
(0.0183538 -0.00948919 0)
(0.0185952 0.0122325 0)
(0.0168114 0.06074 0)
(0.0190383 0.029193 0)
(0.0156199 -0.0736531 0)
(0.00294776 0.00353548 0)
(0.019752 0.0674799 0)
(0.00373598 0.0324717 0)
(0.0184504 -0.00368319 0)
(0.0160833 -0.0148272 0)
(0.000155855 0.00130522 0)
(0.0151719 0.123877 0)
(0.0176172 0.127943 0)
(0.0011345 0.143991 0)
(0.0174397 -0.054997 0)
(0.0162063 0.128124 0)
(0.0138053 0.0118683 0)
(0.0194441 0.05268 0)
(0.0178113 -0.0382386 0)
(0.0192954 0.0419288 0)
(0.00805654 0.0820702 0)
(0.0182477 -0.0141046 0)
(0.000906049 0.0530057 0)
(0.0137464 0.00901903 0)
(0.00662399 0.0751242 0)
(0.020249 0.145365 0)
(0.000913438 0.00715428 0)
(0.0194077 0.0671093 0)
(0.0182052 0.0982786 0)
(0.0129983 0.0484808 0)
(0.0179039 -0.00691352 0)
(0.0153028 0.0918425 0)
(0.00458379 0.148131 0)
(0.0177067 0.129607 0)
(0.0195386 0.0915924 0)
(0.0122229 0.0349253 0)
(0.00878292 0.103514 0)
(0.0196603 0.0610898 0)
(0.0177877 -0.0400067 0)
(0.0070001 0.0783104 0)
(0.00123454 0.0073223 0)
(0.0197708 0.0686727 0)
(0.0113582 0.076859 0)
(0.0188694 0.0184082 0)
(0.0120546 0.0354146 0)
(0.018232 -0.0159972 0)
(0.013261 -0.0344423 0)
(0.0204375 0.121581 0)
(0.0175156 0.0064317 0)
(0.0113013 0.148011 0)
(0.00781277 0.131577 0)
(0.0194243 0.0505964 0)
(0.01433 0.147264 0)
(0.0152207 0.12273 0)
(0.0181167 -0.0148373 0)
(0.0202009 0.142373 0)
(0.0110141 0.1116 0)
(0.0178081 -0.0388862 0)
(0.00426756 0.147081 0)
(0.0181542 -0.0202135 0)
(0.00449756 0.134966 0)
(0.017215 -0.0708759 0)
(0.0174522 0.0962625 0)
(0.0199852 0.0787952 0)
(0.0137744 0.147166 0)
(0.0187737 0.141186 0)
(0.0188038 0.140522 0)
(0.0177449 -0.0420223 0)
(0.00181868 0.0328263 0)
(0.018132 0.12263 0)
(0.0196198 0.0589248 0)
(0.00797235 0.115753 0)
(0.0136222 0.116632 0)
(0.0180748 -0.0244545 0)
(0.0195284 0.143887 0)
(0.0136366 0.10184 0)
(0.0178834 -0.03205 0)
(0.0193411 0.146195 0)
(0.00481186 0.0269298 0)
(0.0175314 -0.0537797 0)
(0.0176979 -0.042173 0)
(0.00395506 0.0345263 0)
(0.00824408 0.0570423 0)
(0.000776528 0.0504763 0)
(0.0104366 0.0314757 0)
(0.0194139 0.0512378 0)
(0.0185756 0.00307496 0)
(-0.00755115 0.148053 0)
(0.0196644 0.0613234 0)
(0.00646353 0.0862876 0)
(0.0198208 0.0923981 0)
(0.0208899 0.12753 0)
(0.0177444 -0.00140649 0)
(0.0176034 -0.049712 0)
(0.0183559 -0.0093616 0)
(0.0188117 0.0155439 0)
(0.00586634 0.0253421 0)
(0.017168 -0.0683585 0)
(0.00835657 0.0541462 0)
(0.0202045 0.0924613 0)
(0.0138907 0.0538701 0)
(0.012215 0.148001 0)
(0.0189823 0.0382865 0)
(0.0151199 -0.0332865 0)
(0.00214402 0.0393633 0)
(0.0183312 0.0137289 0)
(0.0196613 0.0895723 0)
(0.0187145 0.0289673 0)
(0.020573 0.147608 0)
(0.0199806 0.0785057 0)
(0.0194925 0.0520124 0)
(0.0174596 0.134131 0)
(0.0192736 0.102818 0)
(0.00622538 0.0466741 0)
(0.0205588 0.109828 0)
(0.0174803 -0.0563466 0)
(0.0101905 0.103828 0)
(0.0194182 0.0505949 0)
(0.00505396 0.0868175 0)
(0.0190862 0.0333287 0)
(0.0133178 -0.0320422 0)
(0.00156686 0.0285449 0)
(0.0151088 0.0965159 0)
(0.0167724 -0.0940799 0)
(0.0150043 0.0977719 0)
(0.0167817 -0.0942244 0)
(0.0209928 0.133999 0)
(0.0174683 -0.0480592 0)
(0.0130465 0.147538 0)
(0.0111137 0.110346 0)
(0.0157024 0.14732 0)
(0.0139403 0.147433 0)
(0.00593293 0.0605834 0)
(0.0193862 0.144553 0)
(0.00802122 0.114681 0)
(0.00545465 0.0924165 0)
(0.0195548 0.0783267 0)
(0.000376633 0.0032211 0)
(0.00594275 0.095742 0)
(0.00830014 0.0527892 0)
(0.0194126 0.0516983 0)
(0.00122723 0.0201241 0)
(0.0172309 -0.0700109 0)
(0.016887 -0.0875547 0)
(0.0210262 0.134943 0)
(0.0201258 0.0987763 0)
(0.0170292 -0.08087 0)
(0.0193443 0.0440543 0)
(0.0176818 -0.00283263 0)
(0.00635561 0.0843406 0)
(0.0191969 0.0433878 0)
(0.0145558 -0.0507492 0)
(0.0174943 0.0998467 0)
(0.00467877 0.0629026 0)
(0.0185973 0.0041739 0)
(0.0175154 -0.0543658 0)
(0.0168833 -0.0874869 0)
(0.0134908 0.125042 0)
(0.0189066 0.0315516 0)
(0.00414938 0.134425 0)
(0.014654 -0.0533813 0)
(0.0186723 0.0272125 0)
(0.0142434 0.10519 0)
(0.017107 -0.071614 0)
(0.0132843 0.0972128 0)
(0.0010998 0.00864173 0)
(0.0188752 0.0187279 0)
(0.0175748 -0.0514501 0)
(0.0175615 -0.052161 0)
(0.0199487 0.110018 0)
(0.021037 0.135428 0)
(0.0178138 -0.0385644 0)
(0.0193493 0.0443473 0)
(0.0184456 -0.00448849 0)
(0.00373447 0.00697032 0)
(0.018427 0.0209571 0)
(0.014329 0.103813 0)
(0.00911633 0.108961 0)
(0.0190692 0.0312837 0)
(0.0185205 0.0299767 0)
(0.00127185 -0.00178375 0)
(0.0189995 0.0560322 0)
(0.0177557 0.00350119 0)
(0.0183838 -0.00787694 0)
(0.00613856 0.0620591 0)
(0.0182886 -0.00383782 0)
(0.0210533 0.13818 0)
(0.020537 0.121435 0)
(0.017308 -0.0658708 0)
(0.00107122 0.018205 0)
(0.0101071 0.105009 0)
(0.0006777 0.00261703 0)
(0.0176365 0.116042 0)
(0.00557343 0.0236871 0)
(0.0172652 -0.0675938 0)
(-0.00653189 0.148011 0)
(0.016167 0.127103 0)
(0.0206473 0.1148 0)
(0.0173515 0.0481156 0)
(0.0179107 -0.0239041 0)
(0.0193526 0.0445443 0)
(0.0200044 0.144903 0)
(0.0174343 -0.049257 0)
(0.0176397 -0.0451344 0)
(0.018267 -0.00541226 0)
(0.0190841 0.0660732 0)
(0.019026 0.0335958 0)
(0.0168515 -0.0395871 0)
(0.0172888 -0.0581137 0)
(0.00663307 0.14784 0)
(0.0165391 -0.0553651 0)
(0.0183087 0.00285109 0)
(0.00128529 0.00360782 0)
(0.0192712 0.0421353 0)
(0.0172255 0.0227818 0)
(0.0107385 -0.00306513 0)
(0.0174755 0.116342 0)
(0.0156755 0.0414267 0)
(0.0184062 -0.0066398 0)
(0.0187495 0.0122009 0)
(0.0111525 0.0761631 0)
(0.00240863 0.00295397 0)
(0.0174456 -0.0578924 0)
(0.0193542 0.044597 0)
(0.000298043 0.00252541 0)
(0.0173063 -0.0659676 0)
(0.0149402 -0.00481517 0)
(0.0200214 0.095176 0)
(0.0112676 0.0798133 0)
(0.0189994 0.0254441 0)
(0.0185316 0.00159378 0)
(0.017144 0.103314 0)
(0.0145734 0.0742157 0)
(0.0170338 -0.0805863 0)
(0.0199663 0.0881134 0)
(0.0207194 0.118273 0)
(0.000333774 0.00287276 0)
(0.0188544 0.0175849 0)
(0.00458242 0.148125 0)
(0.0198204 0.0713623 0)
(0.0108512 -0.00108244 0)
(0.0204275 0.102659 0)
(0.0192865 0.0412208 0)
(0.0176159 -0.00798149 0)
(0.00835443 0.0564432 0)
(0.0125439 0.10437 0)
(0.0160798 -0.0863819 0)
(0.019082 0.032696 0)
(0.00159494 -0.00253352 0)
(0.00798068 0.0555485 0)
(0.00250989 0.0168838 0)
(0.00264167 0.0175098 0)
(0.019108 0.0313437 0)
(0.0190976 0.0329239 0)
(0.017614 -0.00629626 0)
(0.0199338 0.0846989 0)
(0.000812821 0.00500877 0)
(0.0053897 0.0278827 0)
(0.0188654 0.0298501 0)
(0.0190303 0.0272416 0)
(0.0181688 0.0606915 0)
(0.0133075 0.0501568 0)
(0.0056714 0.0924579 0)
(0.00129272 0.0898893 0)
(0.0197987 0.0700264 0)
(0.0204026 0.101609 0)
(0.00290849 0.0307182 0)
(0.00226463 0.0898226 0)
(0.0171234 -0.0704464 0)
(0.0168851 -0.0372309 0)
(0.01746 0.00366928 0)
(0.00981366 0.105232 0)
(0.0149069 0.100745 0)
(0.0165791 0.10774 0)
(0.0182639 0.00102911 0)
(0.0200525 0.142151 0)
(0.0199734 0.0863897 0)
(0.0191796 0.0418715 0)
(0.0186376 0.0173839 0)
(0.0189864 0.026445 0)
(0.0195051 0.0892265 0)
(0.00778165 0.0825945 0)
(0.0188144 0.015444 0)
(0.00110466 0.0886872 0)
(0.0138023 0.11714 0)
(0.0155761 -0.0155928 0)
(0.0192446 0.0407381 0)
(0.01871 0.136339 0)
(0.00169065 0.00837204 0)
(0.0205055 0.120193 0)
(0.0195605 0.0736503 0)
(0.0211751 0.143934 0)
(0.0186688 0.019244 0)
(0.0128051 0.139738 0)
(0.0178107 0.00368683 0)
(0.00227508 0.0424355 0)
(0.0192753 0.0407649 0)
(0.0204544 0.120172 0)
(0.0178459 -0.0367307 0)
(0.0130938 0.0963886 0)
(0.0178021 0.0523789 0)
(0.019924 0.0833672 0)
(0.0183787 -0.00812067 0)
(0.0191223 0.0320699 0)
(0.0184537 0.0162812 0)
(0.0200075 0.109593 0)
(0.0138447 0.123069 0)
(0.0163734 0.0809543 0)
(0.00975369 0.106412 0)
(0.016271 0.140804 0)
(0.0118383 0.146057 0)
(0.00100668 0.117863 0)
(0.0181751 0.00898701 0)
(0.00930778 0.147016 0)
(0.0178664 -0.035609 0)
(0.0207036 0.117412 0)
(0.0154661 0.104161 0)
(0.0178731 -0.0252908 0)
(0.0185122 0.000713326 0)
(0.0156586 0.123664 0)
(0.00622333 0.123077 0)
(0.0169368 0.147889 0)
(0.0189675 0.0242097 0)
(0.0185198 -0.000104574 0)
(0.0198622 0.0805231 0)
(0.00416543 0.00634604 0)
(0.0175525 -0.0526553 0)
(0.016147 -0.0837238 0)
(0.00126953 0.00629159 0)
(0.0180241 0.0799461 0)
(0.0179087 -0.0162256 0)
(0.00794347 0.14161 0)
(0.0195004 0.0748981 0)
(0.0171636 -0.0733077 0)
(0.0189957 0.0323897 0)
(0.0166759 -0.0388218 0)
(0.0192523 0.0395205 0)
(0.0159723 0.0505138 0)
(0.0184608 -0.0036628 0)
(0.00160033 0.023096 0)
(0.00308413 0.0328134 0)
(0.0182227 -0.0155047 0)
(0.0189455 0.0229854 0)
(0.0112202 0.147749 0)
(0.0159717 0.0478626 0)
(0.0134254 0.104787 0)
(0.00240506 0.0885634 0)
(0.0157318 -0.0722171 0)
(0.00814752 0.148066 0)
(0.0167729 -0.0761846 0)
(0.0165011 0.0801506 0)
(0.0174232 -0.0488929 0)
(0.0182742 0.0113495 0)
(0.0113441 0.0813731 0)
(0.0207272 0.133762 0)
(0.0167111 -0.0779515 0)
(0.0168545 -0.0836599 0)
(0.00880415 0.0822398 0)
(0.018932 0.0289742 0)
(0.0156534 0.0446454 0)
(0.0209924 0.134634 0)
(0.0193962 0.100696 0)
(0.0187465 0.135382 0)
(0.0178573 0.0542807 0)
(0.00302665 0.0175569 0)
(0.0106181 0.0100162 0)
(0.0139986 0.0619416 0)
(0.0191187 0.139293 0)
(0.00419171 0.138623 0)
(0.0195831 0.0622753 0)
(0.0203346 0.147594 0)
(0.0181013 0.00187802 0)
(0.0046938 0.0269606 0)
(0.0190744 0.0371493 0)
(0.0122785 0.147741 0)
(0.0176673 -0.0442645 0)
(0.0128721 -0.00622016 0)
(0.00558873 0.137737 0)
(0.00786124 0.0560209 0)
(0.0157811 -0.0437242 0)
(0.0170145 0.0615682 0)
(0.0192651 0.0400393 0)
(0.00162282 0.027408 0)
(0.0207931 0.132013 0)
(0.0159576 -0.0367181 0)
(0.0176085 -0.0426117 0)
(0.0196277 0.0959209 0)
(0.0189513 0.0228356 0)
(0.0189706 0.13362 0)
(0.0123746 0.103689 0)
(0.0184328 -0.00518761 0)
(0.0191389 0.0329954 0)
(0.0111626 0.0986809 0)
(0.0154636 -0.0177117 0)
(0.0186427 0.00761892 0)
(0.0198512 0.0811497 0)
(0.0185587 0.0107545 0)
(0.000429196 0.00360876 0)
(0.0146783 0.0729797 0)
(0.020379 0.1217 0)
(0.0151304 -0.0354262 0)
(0.0187392 0.0314269 0)
(0.0173283 -0.0387046 0)
(0.0107629 0.0087315 0)
(0.0175974 -0.020608 0)
(0.0177805 -0.0400166 0)
(0.0126611 -0.0114832 0)
(0.0139103 -0.0374133 0)
(0.00260394 0.0180555 0)
(0.0177671 -0.0411528 0)
(0.000765203 0.0139768 0)
(0.0132818 0.124488 0)
(0.019846 0.0711204 0)
(0.0128607 0.119208 0)
(0.0189186 0.0215895 0)
(0.0173822 0.0803258 0)
(0.00813526 0.142344 0)
(0.00273015 0.0186585 0)
(0.0181544 0.130158 0)
(0.00638415 0.0740734 0)
(0.0191066 0.0704807 0)
(0.00201189 0.0117275 0)
(0.0194242 0.127205 0)
(0.0149572 -0.002375 0)
(0.0210318 0.138556 0)
(0.0194652 0.147507 0)
(0.0190546 0.0285562 0)
(0.000683893 0.00287588 0)
(0.00191853 0.0357798 0)
(0.0194453 0.0889132 0)
(0.0189592 0.0929458 0)
(0.0180005 -0.0285451 0)
(0.0188693 0.0185722 0)
(0.0186215 0.0371275 0)
(0.00501221 0.0949338 0)
(0.0193832 0.050354 0)
(0.0102545 0.147831 0)
(0.0168766 -0.0822822 0)
(0.0195825 0.0629126 0)
(0.0183588 0.0232867 0)
(0.0170081 -0.08152 0)
(0.0183469 0.107038 0)
(0.0155824 -0.0724032 0)
(0.0192506 0.0484201 0)
(0.0190466 0.143658 0)
(0.0186117 0.0386379 0)
(0.0123084 0.147863 0)
(0.0186638 0.0433604 0)
(0.0146432 -0.030604 0)
(0.0179333 -0.0162074 0)
(0.0154788 0.122008 0)
(0.0117503 0.000374242 0)
(0.0157971 -0.0416296 0)
(0.018801 0.098018 0)
(0.0169181 0.106015 0)
(0.00611055 0.0773193 0)
(0.000879202 0.00526778 0)
(0.0181881 0.00643662 0)
(0.0156795 0.0103389 0)
(0.0187812 0.0329442 0)
(0.00497684 0.0932343 0)
(0.00432751 0.0851816 0)
(0.000608062 0.0115086 0)
(0.0146869 0.10341 0)
(0.00760504 -0.00735081 0)
(0.0165548 0.100812 0)
(0.00268886 0.01921 0)
(0.0190173 0.0264151 0)
(0.0164868 -0.0686135 0)
(-0.00845283 0.147779 0)
(0.00542411 0.0251707 0)
(0.00131379 0.0152009 0)
(0.011683 0.143504 0)
(0.0191075 0.0647589 0)
(0.00244431 0.127767 0)
(0.0196897 0.0638258 0)
(0.0195511 0.113194 0)
(0.020205 0.0929626 0)
(0.0159288 -0.0389715 0)
(0.0189552 0.0324991 0)
(0.0149163 0.0229476 0)
(0.000835665 0.0119328 0)
(0.00241386 0.0157083 0)
(0.01524 0.0936546 0)
(0.0200997 0.0848308 0)
(0.00114771 0.0130622 0)
(0.0189577 0.0245334 0)
(0.0166677 0.101644 0)
(0.0208735 0.126648 0)
(0.0173861 0.136006 0)
(0.0196047 0.11179 0)
(0.0175776 -0.043688 0)
(0.00845522 0.0192367 0)
(4.87999e-05 0.000411733 0)
(0.016566 -0.0671345 0)
(0.00252035 0.100884 0)
(0.0100555 0.117281 0)
(0.019621 0.0602942 0)
(0.0136378 0.106621 0)
(0.00107035 0.0502347 0)
(0.0176066 0.0670356 0)
(0.00592822 0.0422864 0)
(0.00204331 0.00401296 0)
(0.0170528 0.101837 0)
(-0.000348948 0.138937 0)
(0.0179976 -0.0287217 0)
(0.0180558 0.101655 0)
(0.0126013 -0.0137963 0)
(0.00129191 0.00679711 0)
(0.0183822 -0.00791367 0)
(0.0190835 0.140057 0)
(0.011431 0.106431 0)
(0.0131217 0.0947665 0)
(0.0196706 0.0629347 0)
(0.0185865 0.00464439 0)
(0.0196284 0.0593542 0)
(0.0130363 0.139204 0)
(0.0147658 -0.0282461 0)
(0.00368111 0.0163129 0)
(0.00241939 0.00450475 0)
(0.0166286 -0.0536035 0)
(0.0181769 0.100785 0)
(0.0179811 -0.026552 0)
(0.00438003 0.135524 0)
(0.0178235 -0.0380492 0)
(0.0140647 0.0863896 0)
(0.0104426 0.127223 0)
(0.0196829 0.0622831 0)
(0.0048207 0.0864689 0)
(0.0172451 0.0205462 0)
(0.0106298 0.0968374 0)
(0.00136274 0.0105223 0)
(0.0187068 0.101402 0)
(0.00157318 0.144293 0)
(0.0151907 0.0493904 0)
(0.0188994 0.0204975 0)
(0.0169252 -0.086525 0)
(0.0196393 0.093843 0)
(0.00797254 0.0832506 0)
(0.00893785 -0.00220488 0)
(0.0169955 -0.0668764 0)
(0.0189844 0.0260758 0)
(0.000455512 0.00394072 0)
(0.0189121 0.0225966 0)
(0.00876143 -0.00090439 0)
(0.0187031 0.0971103 0)
(0.0112313 -0.0254024 0)
(0.012174 0.00600796 0)
(0.0191065 0.0337594 0)
(0.0137497 0.0311943 0)
(0.0166701 -0.0953731 0)
(0.0186043 0.0837444 0)
(0.000578789 0.011881 0)
(0.00677959 0.00826604 0)
(0.00195662 0.110889 0)
(0.00972905 0.0755125 0)
(0.0139195 -0.0347234 0)
(0.018964 0.147766 0)
(0.0126182 -0.00459588 0)
(0.0119047 0.022559 0)
(0.0184645 -0.00331031 0)
(0.0186464 0.00672646 0)
(0.0167308 -0.0393377 0)
(0.0188831 0.094292 0)
(0.0185734 0.0227741 0)
(0.0168318 0.0329728 0)
(0.0112481 0.0416712 0)
(0.00316078 0.138761 0)
(0.0188589 0.0178331 0)
(0.0195324 0.126451 0)
(0.00317582 0.0627741 0)
(0.0144246 0.0739338 0)
(0.0188503 0.0175632 0)
(0.018044 0.0287896 0)
(0.019695 0.0630063 0)
(0.000737424 0.0145743 0)
(0.00259972 0.128551 0)
(0.0178024 -0.0391857 0)
(0.0177813 0.0204299 0)
(0.0153075 0.0454431 0)
(0.0203072 0.0960027 0)
(0.0103561 0.147983 0)
(0.00968412 0.0739621 0)
(0.0192327 0.0483901 0)
(0.00257779 0.0165301 0)
(0.013616 0.031953 0)
(0.00573132 0.0263885 0)
(0.0190979 0.0307944 0)
(0.00731942 -0.00758682 0)
(0.0120065 -0.0327643 0)
(0.0112783 0.0397889 0)
(0.016674 -0.0958902 0)
(0.0146137 -0.0465415 0)
(0.0200112 0.093447 0)
(-0.00347775 0.145758 0)
(0.0120729 -0.00106278 0)
(0.00449172 0.141675 0)
(0.00282243 0.0288994 0)
(0.0196897 0.0626982 0)
(0.00678217 0.0543649 0)
(0.0126808 -0.00678649 0)
(0.00128779 0.0499141 0)
(0.0170391 -0.0656936 0)
(0.00124717 0.0521131 0)
(0.0189616 0.0301629 0)
(0.0167994 -0.0933128 0)
(0.0177328 -0.0424201 0)
(0.00571875 0.13724 0)
(0.0177274 -0.0405491 0)
(0.0198873 0.0733679 0)
(0.00895065 0.102387 0)
(0.0175662 -0.0519213 0)
(0.020241 0.0935866 0)
(0.0198718 0.0725293 0)
(0.0170786 -0.078209 0)
(0.0184429 -0.00449014 0)
(0.0211536 0.144675 0)
(0.0190586 0.036935 0)
(0.0127628 0.103615 0)
(0.017143 -0.074448 0)
(0.0177836 0.02264 0)
(0.0175003 -0.0553119 0)
(0.0107348 0.00107027 0)
(0.0122265 0.0632224 0)
(0.011678 0.105931 0)
(0.00297847 0.0307863 0)
(0.0169678 0.025357 0)
(0.0104568 0.138932 0)
(0.0178475 -0.0367388 0)
(0.012101 0.0614051 0)
(0.00267309 0.0859281 0)
(0.0208049 0.122888 0)
(0.0199261 0.141006 0)
(0.00166888 0.110674 0)
(-0.00191545 0.143073 0)
(0.0178612 0.0668195 0)
(0.0145825 0.0403881 0)
(0.0198222 0.147361 0)
(-0.00134064 0.143264 0)
(0.00901539 0.130079 0)
(0.0146917 -0.0441686 0)
(0.0169248 -0.086555 0)
(0.0196946 0.0629214 0)
(0.00465456 0.148088 0)
(0.0111726 -0.023526 0)
(0.0199833 0.0899103 0)
(0.0195234 0.0722947 0)
(0.0202565 0.0933014 0)
(0.018852 0.0177138 0)
(0.0165343 -0.0772867 0)
(0.0114202 0.0785609 0)
(0.0150373 0.0241867 0)
(0.0139555 0.0877822 0)
(0.00249917 -0.00419827 0)
(0.0148879 0.102257 0)
(0.00327447 0.00593292 0)
(0.0166291 0.106088 0)
(0.0182549 0.108052 0)
(0.0206069 0.112651 0)
(0.0183232 -0.00380084 0)
(0.0121403 -0.0307026 0)
(0.0189179 0.0310106 0)
(0.01931 0.0422317 0)
(0.0186035 0.10054 0)
(0.00641588 0.120794 0)
(0.0185311 0.000123515 0)
(0.0128106 0.0490213 0)
(0.0099003 0.116422 0)
(0.0070903 0.142877 0)
(0.0206496 0.115172 0)
(0.000659928 0.0524638 0)
(0.00878569 0.0836293 0)
(0.0176689 -0.0461798 0)
(0.0177353 -0.0397405 0)
(0.018455 -0.00227789 0)
(0.0186177 0.0149296 0)
(0.017586 -0.0481915 0)
(0.00924242 0.0760494 0)
(0.0191189 0.0383413 0)
(0.00667684 0.121578 0)
(0.00651851 0.0599069 0)
(0.00594225 0.122275 0)
(0.0172893 -0.0664014 0)
(0.0196169 0.0587313 0)
(0.0119334 0.0160559 0)
(0.00704612 0.0076007 0)
(0.0107813 0.0980051 0)
(0.0186179 0.00618912 0)
(0.0145513 0.102954 0)
(0.0177856 0.047464 0)
(0.00243194 0.099019 0)
(0.0134411 0.101276 0)
(0.019135 0.0396873 0)
(0.0121601 -0.00309342 0)
(0.0191249 0.0687815 0)
(0.0202931 0.133672 0)
(0.0175228 -0.0542466 0)
(0.01357 0.060432 0)
(0.0192981 0.129535 0)
(0.0155448 0.105397 0)
(0.0189888 0.0248727 0)
(0.0192929 0.0413028 0)
(0.00592368 0.0939852 0)
(0.0196217 0.0590008 0)
(0.0186024 0.0227672 0)
(0.00925695 0.147992 0)
(0.00104449 0.0529072 0)
(0.0167925 -0.0931193 0)
(0.000322764 0.0250272 0)
(0.0173566 0.052989 0)
(0.0185819 0.106679 0)
(0.0186458 0.0167405 0)
(0.0174687 -0.0567322 0)
(0.016945 -0.0797612 0)
(0.0167767 -0.0817214 0)
(0.0190158 0.0267994 0)
(0.00281731 0.0156374 0)
(0.0188291 0.0192383 0)
(0.012085 0.00347569 0)
(0.0155081 0.120907 0)
(0.0177124 -0.0438522 0)
(0.0093852 0.109218 0)
(0.000322281 0.0219249 0)
(0.0150837 0.0867028 0)
(0.0145214 0.0462403 0)
(0.0205906 0.111668 0)
(0.00759729 0.0177064 0)
(0.00498173 0.0567044 0)
(0.0176592 -0.0187904 0)
(0.018918 0.0852872 0)
(0.0180706 0.00665699 0)
(0.00906153 0.147832 0)
(0.0165793 -0.0846609 0)
(0.0202029 0.0903978 0)
(0.0159615 -0.0837637 0)
(0.0179966 0.0289701 0)
(0.0154561 -0.0739688 0)
(0.01845 -0.00425087 0)
(0.0168297 -0.0368882 0)
(0.0204872 0.108714 0)
(0.0173224 -0.064813 0)
(0.0162258 -0.00627617 0)
(0.0121037 -0.00776383 0)
(0.0168043 -0.0929461 0)
(0.0169207 -0.0804039 0)
(0.0041917 0.122144 0)
(0.0189766 0.0353407 0)
(0.0182132 0.0592439 0)
(0.0138264 -0.0164444 0)
(0.0170149 0.0237203 0)
(0.0146441 0.0463019 0)
(0.0185938 0.104695 0)
(0.000109426 0.0009618 0)
(0.0183021 0.0209285 0)
(0.0119666 0.146449 0)
(0.00821504 0.0544342 0)
(0.0190428 0.0605086 0)
(0.0124292 0.0235751 0)
(0.0179196 0.137263 0)
(0.00237369 0.0136944 0)
(0.00280815 0.137158 0)
(0.0184796 0.023161 0)
(0.015795 0.0112045 0)
(0.0140461 0.0157707 0)
(0.0120009 0.0185625 0)
(0.0181715 0.147642 0)
(0.0195757 0.102095 0)
(0.0188558 0.0182212 0)
(0.0061866 0.0969484 0)
(0.0134898 0.0849705 0)
(0.018164 0.00413828 0)
(0.0103991 0.0971605 0)
(0.0192733 0.0584787 0)
(0.0196147 0.103555 0)
(0.0138609 -0.0141492 0)
(0.0189176 0.0341654 0)
(0.0122572 0.0222909 0)
(0.0200695 0.0848006 0)
(0.00431812 0.121154 0)
(0.0165701 -0.0411603 0)
(0.0180915 -0.0235544 0)
(0.0187692 0.0161161 0)
(0.0091958 0.0790837 0)
(0.0141009 0.114231 0)
(0.0168121 -0.0926295 0)
(0.00647338 0.0586139 0)
(0.0078597 0.0583071 0)
(0.0202424 0.0925617 0)
(0.0191036 0.0311021 0)
(0.0043637 0.133776 0)
(0.0166331 -0.0864613 0)
(0.00371208 0.0333663 0)
(0.0139831 0.013084 0)
(0.0173174 -0.0648577 0)
(0.0152137 0.0903517 0)
(0.00852255 0.0210105 0)
(0.0184345 -0.0026474 0)
(0.0124822 0.0180179 0)
(0.018279 -0.011986 0)
(0.00250225 0.0321011 0)
(0.00829317 0.0216681 0)
(0.0113325 0.107833 0)
(0.0166437 -0.083093 0)
(0.0172921 -0.0667184 0)
(0.00773417 0.113975 0)
(0.0106233 0.113221 0)
(0.0090735 0.0754796 0)
(0.013631 0.126792 0)
(0.00122325 0.00936962 0)
(0.0126934 0.1478 0)
(0.0189526 0.0558305 0)
(0.000393379 0.00342789 0)
(0.0185492 0.00161443 0)
(0.0175353 0.135062 0)
(0.0188499 0.0200949 0)
(0.017795 -0.0395798 0)
(0.0156619 0.147925 0)
(0.0117227 0.0151538 0)
(0.0064887 0.119657 0)
(0.0108649 0.100666 0)
(0.0197118 0.145627 0)
(0.0131548 0.129534 0)
(0.0173323 -0.0645639 0)
(0.0197912 0.0681331 0)
(0.00824327 0.131156 0)
(0.0176894 -0.0451167 0)
(0.00925786 0.148035 0)
(0.0182287 0.0161093 0)
(0.0166176 -0.085859 0)
(0.0188091 0.133255 0)
(0.00883882 0.147752 0)
(0.0174972 -0.0551667 0)
(0.0181438 0.137196 0)
(0.0204694 0.11292 0)
(0.0180633 -0.025083 0)
(0.0169165 -0.0540944 0)
(0.0137822 0.124397 0)
(0.0184117 -0.00633785 0)
(0.010922 0.144522 0)
(0.0108721 0.00285945 0)
(0.0159601 0.0294074 0)
(0.020494 0.108457 0)
(0.0175807 0.12398 0)
(0.011099 0.0742959 0)
(0.0183311 0.129877 0)
(0.0193015 0.0583322 0)
(0.0183541 0.105128 0)
(0.018248 -0.0151512 0)
(0.014831 0.109144 0)
(0.0190185 0.0270479 0)
(0.0158993 -0.06399 0)
(0.0167066 -0.0897142 0)
(0.0190504 0.0380406 0)
(0.020037 0.0930725 0)
(0.0177715 0.0659701 0)
(0.012104 0.0237839 0)
(0.013629 0.103476 0)
(0.0177281 -0.0427735 0)
(0.0071407 0.0742793 0)
(0.00902677 0.130891 0)
(0.00157773 0.00469396 0)
(0.0150543 0.0995923 0)
(0.0124386 0.057751 0)
(0.014513 0.137137 0)
(0.017248 -0.0594511 0)
(0.0123722 0.147939 0)
(0.0144038 0.141119 0)
(-0.0029866 0.145532 0)
(0.016909 -0.086019 0)
(0.0200688 0.141264 0)
(0.0125958 0.0516807 0)
(0.0185647 0.00334435 0)
(0.0171378 -0.0743529 0)
(0.0100276 0.0300111 0)
(0.00799225 0.0579472 0)
(0.0179617 0.0606195 0)
(0.020118 0.0858097 0)
(0.00051467 0.0213008 0)
(0.0188788 0.0411875 0)
(0.0204324 0.139006 0)
(0.0186652 0.117602 0)
(0.00552183 0.110377 0)
(0.0147127 -0.0208783 0)
(0.0126319 0.0142068 0)
(0.0190081 0.0374455 0)
(0.0175364 0.126193 0)
(0.00280908 0.0197864 0)
(0.0210332 0.139836 0)
(0.0170548 -0.0790671 0)
(0.0171606 0.133083 0)
(0.0189361 0.0237391 0)
(0.0168918 -0.0560451 0)
(0.0207167 0.12596 0)
(0.0129172 0.11794 0)
(0.0169289 0.0338253 0)
(0.0172966 -0.0655412 0)
(0.0188358 0.0181881 0)
(0.0166051 -0.0757999 0)
(0.0188954 0.147502 0)
(0.0173138 0.0967871 0)
(0.000606816 0.00853639 0)
(0.0134033 0.0148668 0)
(0.0134027 0.0888331 0)
(0.0053737 0.103033 0)
(0.00578151 0.126074 0)
(0.0184684 0.127444 0)
(0.00901331 0.0807518 0)
(0.017699 -0.0352513 0)
(0.00609968 0.0441587 0)
(0.0176975 0.0678582 0)
(0.0118558 0.00284501 0)
(0.0195768 0.109902 0)
(0.0173715 -0.0507417 0)
(0.0204442 0.112778 0)
(0.00883436 0.100975 0)
(0.0200214 0.0913333 0)
(0.0134584 0.0177054 0)
(0.0174784 -0.0558032 0)
(0.00525097 0.0888761 0)
(0.00154193 0.136248 0)
(0.00335916 0.0637644 0)
(0.0180105 -0.0244872 0)
(0.018966 0.0236336 0)
(0.0168317 -0.0768196 0)
(0.009208 0.0806088 0)
(0.0183601 -0.00165132 0)
(0.011668 0.0946278 0)
(0.0175368 0.0978388 0)
(0.0189571 0.0231565 0)
(0.013488 0.0356784 0)
(0.00557056 0.12254 0)
(0.0188479 0.0849417 0)