/*--------------------------------*- C++ -*----------------------------------*\
| =========                 |                                                 |
| \\      /  F ield         | OpenFOAM: The Open Source CFD Toolbox           |
|  \\    /   O peration     | Version:  v2012                                 |
|   \\  /    A nd           | Website:  www.openfoam.com                      |
|    \\/     M anipulation  |                                                 |
\*---------------------------------------------------------------------------*/
FoamFile
{
    version     2.0;
    format      ascii;
    class       surfaceScalarField;
    location    "200";
    object      meshPhi;
}
// * * * * * * * * * * * * * * * * * * * * * * * * * * * * * * * * * * * * * //

dimensions      [0 3 -1 0 0 0 0];
oriented        oriented;


internalField   nonuniform List<scalar> 
20642
(
-0.00386616
-0.00123788
0.00510493
0.0113511
-0.020137
0.008724
0.00338266
0.00291214
-0.00632142
0.00348092
-0.0113312
0.00768418
0.0151455
-0.0221606
0.00691144
0.0205797
-0.00930481
-0.00346974
0.0107634
-0.00741407
0.0252038
-0.0145327
-0.0107158
0.00511756
0.00138611
-0.00658228
0.00479649
0.000332667
0.0112942
0.0138541
0.0140448
-0.0137822
-0.000487201
-0.000539143
-0.000176405
0.0148485
-0.0225828
0.0077136
0.0158813
-0.0219384
0.00594548
0.000156668
-0.00402356
-0.000354093
-0.000314146
0.000438117
-0.0247472
0.0112503
0.0134393
0.00930933
-0.00577205
-0.00358155
-0.00533831
0.0024473
0.00289161
0.0172785
-0.0104738
-0.00688388
0.0027141
0.0127349
-0.0156577
0.00318209
0.00511407
-0.00834865
-0.0142823
0.0167667
0.0158259
-0.00709118
-0.00886888
-0.0184901
0.00801917
0.0103956
-0.0168309
0.00974438
0.0070734
0.004364
-0.0220748
0.00864021
0.0133656
-2.44552e-05
-0.000355374
0.000367899
0.00428333
8.38376e-05
0.00927451
-0.00246079
-0.00686135
-0.0146687
0.00824919
0.00624985
-0.00482192
0.00189845
0.00291898
-0.00100879
0.0125152
-0.0117262
0.00158651
-0.0161554
0.0134489
0.00293667
-0.0165234
0.000415531
-0.0015703
0.0003716
-0.0099193
0.00634709
0.00996578
-0.0166424
0.00659603
-1.47224e-06
0.000107808
-0.000250878
0.00725813
-0.0107026
0.00331992
-0.00721674
-0.000894565
0.00804954
0.00259975
0.00382926
-0.00645802
0.0076185
-0.0050614
-0.00366575
0.00888723
-0.00522844
0.0143602
0.0028123
-0.00707573
0.00473997
0.00234895
-0.0100123
-0.00928149
0.0192837
0.00905543
-0.0102407
-0.000212975
0.0140481
0.00430284
-0.0107113
0.00637747
-0.00291458
0.00394961
-0.00103516
-0.0141039
0.0179137
-0.00405654
-0.0188757
0.0129784
0.00564956
0.00925586
-0.00497671
0.00380661
-0.00576072
0.00887896
0.0109495
-0.00381938
-0.0102434
0.00656879
0.0114914
-0.00639618
-0.00508044
-0.00560481
-0.00918519
0.0146925
4.69716e-05
1.88688e-06
-7.07181e-05
0.00703607
0.00864222
0.0053047
-0.000138596
-0.00518163
-0.000697538
0.000452568
0.000240248
0.00966412
-0.0216595
0.0119346
0.0150444
-0.0134928
-0.0135048
0.00443493
-0.00311989
-0.00131581
0.00239446
0.00349254
-0.00590837
-0.00392585
-0.000899621
0.0114201
-0.00771138
-0.00393303
0.00829083
0.00250525
-0.0177504
0.007197
0.0202967
-0.00934028
-0.0111056
0.0134207
-0.0206104
0.00708562
0.0110201
-0.002884
0.00905254
0.011072
-0.0103422
-0.00445804
-0.0124295
-0.00742073
0.0196373
-0.000480288
-0.000446626
0.000592492
0.00372474
0.00749723
-0.00664242
0.00322835
0.00339561
0.00767887
-0.0063516
-0.00201698
0.0227756
-0.00938437
-0.0134283
0.00589914
0.00331146
-0.0017968
-0.00203853
0.00301276
0.0157776
-0.00589781
0.000254313
-0.000806127
0.000232821
0.000871832
-0.00131307
-0.00690535
0.0124794
-0.0225086
0.00116018
-0.0122416
0.0108557
0.00459997
0.0131499
-0.0179511
-0.0124721
-0.0217392
0.0119519
0.00976166
-0.000668305
-0.000540565
0.000767362
-0.00404232
0.00160258
-0.0106583
0.018186
-0.0075634
-0.000122565
-9.75318e-05
0.000146217
4.22449e-05
-0.00021856
-0.018679
0.00607142
-0.00162966
-0.000279162
0.00149367
0.0217923
-0.00851237
0.00460095
-0.00042427
-0.00418433
0.00388674
0.00158591
-0.00546946
0.0113433
-0.0170615
-0.00311466
-0.00770921
-0.00814439
-0.00869838
0.000144092
-0.00205494
0.00531232
-0.0034207
0.020925
-0.0123464
-0.000773423
0.00605852
-0.00285697
-0.00980709
0.0125483
0.00433698
0.00492738
0.000706545
-0.000841328
-3.46775e-05
-0.00511904
-0.00223581
0.00732206
0.00116713
-0.00619515
0.00492371
-0.00124729
0.000448331
-0.0108437
0.00381735
0.00685802
-0.00895581
-0.012761
-0.00444291
-0.00455138
0.0089539
-0.00204087
0.00408249
-0.00204385
-0.00340055
-0.00325475
-0.0140253
0.00612067
0.00777097
-0.00659166
-0.0112355
-0.0125081
-0.00300543
0.0152495
0.00406579
-0.00854348
0.00916969
-0.00387061
-0.00537788
-0.00499931
0.0110309
-0.00604121
0.00452082
-0.00227106
-0.00225161
-0.0137835
0.0107972
0.0085947
-0.00335256
-0.00529764
-0.0175557
0.00939577
-0.0111835
0.00611514
0.00507643
-0.00243523
-0.000865067
0.00329916
-0.0211243
0.00886351
0.012179
-0.000409551
-0.0186971
0.0195135
-0.000824595
0.00371591
0.00714879
-0.000639094
0.00522654
-0.00259835
0.0132786
-0.0109788
0.00998013
-0.00712259
-0.00304605
-0.00920394
-0.0017616
0.0108632
0.00583222
-0.00345766
0.020951
0.000857591
0.00359235
-0.00443694
0.0045473
-0.0189253
-0.0106811
0.0161361
-0.00553927
0.000135306
3.4383e-05
-0.000238894
0.00642134
0.00336909
-0.00825242
-0.0135067
0.0186017
-0.014918
-0.00384662
0.000334857
-0.00235483
0.00219472
0.00162344
-0.00382142
-0.000196289
-0.00022425
0.00026546
6.92716e-05
0.000496992
0.014902
-0.0110279
-0.00439822
0.00170602
0.00449867
-0.00620471
-0.0226681
0.00897396
0.0135559
0.000755144
-0.00434822
-0.00379931
0.0081588
-0.0181727
0.0097312
0.00841526
0.000453547
-0.00392199
0.00867308
-0.00473839
0.000106982
-0.00010724
-3.15309e-06
-0.00834294
-0.0128569
0.0259351
-0.0155842
-0.0105728
0.000732963
0.00357693
-0.00431558
0.00809745
0.0121193
-0.00760542
-0.00450389
-0.00392319
0.0100138
-0.00612658
0.000158586
-0.000400157
0.000141203
-0.00726277
0.0105902
0.00578079
-0.0106404
0.0048353
0.00429202
0.00480523
-0.0120082
-0.0107843
-0.00653493
0.00896459
-0.00252341
0.0114109
0.0117266
-0.0121128
-0.00303406
0.00732979
-0.00430895
0.00145811
-0.00660802
0.00685479
-0.01187
0.0138163
-0.00229537
-0.00915199
0.00609875
-0.000539493
0.000502833
0.0117667
0.010968
0.00766095
-0.0116307
0.00328148
0.00430034
-0.00981253
0.00537746
0.00440939
-0.00262079
0.00505207
-0.00243796
-0.00871199
0.00970105
-0.00243688
0.00415754
-0.00172295
0.00513086
-0.0133636
0.0081195
0.00212358
0.00239247
-0.00277112
0.015074
0.0151211
0.00329707
-0.0082901
-0.00849761
0.0166904
-0.00398767
-0.000651446
0.00463768
0.00026427
-0.00269967
0.0192682
-0.0135269
-0.00588301
-0.0113341
0.0142286
-0.0029007
-0.0130411
-0.00542766
0.0183878
0.00501655
-0.00728064
-0.00495554
0.0132365
-0.0208661
-0.010511
0.0127125
-0.00254056
-0.0235603
0.0102508
0.0132383
-0.0158393
-0.0077772
0.00560827
0.00580667
0.0027471
-0.00969296
-0.00197751
-0.00388491
0.00585279
-0.000841836
0.00212769
-0.0021297
-0.000210562
-0.00409676
0.00415015
-0.00402701
0.00366667
0.00445889
-0.0104674
0.00622712
0.00421396
0.00481627
-0.00983073
0.00500077
0.00498545
-0.00586722
0.000441243
-7.9631e-06
3.80985e-05
-0.00899592
-0.00856889
0.00151158
0.00570546
-0.00368122
-0.00218748
0.00328008
0.00224899
-0.000176912
6.5502e-05
-0.000110313
-0.00406468
-0.00419792
0.00393515
-0.00257336
-0.00135583
-0.00258302
-0.00381166
0.00640525
-0.0200652
0.0114932
0.0083982
0.000142308
-0.000218751
6.2987e-05
-0.00708448
-0.00517628
0.0122103
0.00253285
-0.00444281
0.00190999
-0.000642321
0.000211122
0.000266378
-0.000780161
0.00528265
0.00526345
-0.0166087
-0.00340883
-0.00111473
0.00451476
-0.00315694
0.00349391
-0.00547854
0.0056986
0.00596339
-0.0116925
0.00917747
-0.0120359
0.00435299
0.00433255
0.00268414
-0.00981282
0.00837667
0.0124863
0.00981136
-0.00770787
-0.0021613
0.0129308
0.00619071
0.00303363
0.00172639
0.00407663
-0.00590625
0.01411
-0.0110955
-0.00306657
-0.012728
0.00863718
0.00403451
-0.0224954
0.00953444
0.0127631
-1.4719e-05
-0.00712034
-0.0177019
0.0224418
-0.00485764
0.00962894
0.0030835
-0.012886
0.0040357
-0.00209122
-0.00194585
-0.0188684
0.00432921
0.0145289
-0.0116849
0.00361862
0.0078788
-0.000700021
0.00379855
0.00418562
-0.0192671
-0.00399524
0.00311859
-0.00458234
-0.00150943
0.000238084
0.0116848
-0.00722116
-0.00453675
-0.00473027
-0.00711747
-0.00320702
0.00161304
-0.00254259
0.00643176
-0.0188435
0.00754609
0.0109608
0.0157024
-0.0224771
0.00665044
0.00521549
0.00565598
-0.0108772
0.000439283
-0.00359242
0.00303578
0.0052469
-0.0139463
0.00866981
0.00188101
0.00215303
0.00348236
-0.00315636
0.00177243
0.00266308
-0.00321224
0.0126636
0.00692655
-0.00522188
-0.000134934
0.000186503
-0.0142678
-0.00604057
0.0201948
-0.0141092
-0.00853946
-0.0135792
-0.00367542
0.0169057
-0.00664033
0.00776134
-0.00115338
-0.00112002
-0.000748365
0.00120175
-0.00978098
-0.00841492
0.00553642
-0.0133744
0.00774869
-0.000104487
-0.00919038
-0.00719254
-0.00745694
0.0146342
-0.00181544
-0.000437765
-0.000351874
0.00560995
-0.0113828
0.00571045
-0.0197474
-0.00165213
0.0212662
0.00414233
-0.0146868
0.0104232
-0.00541464
0.02045
0.0173254
-0.00841423
0.00301816
-0.0127147
0.00949352
-0.00271641
0.000926383
0.00558338
-0.0116376
0.0060283
0.00422337
-0.017228
0.0129352
0.00834889
0.00569396
0.00580615
0.0113788
-0.00357134
0.00448962
-0.00135008
-0.00176439
0.00395807
-0.000773108
-0.00321758
-0.0114795
-0.00313936
0.014356
0.00107723
-0.00376833
0.0026476
-0.00975394
-0.0162701
-0.00396083
0.0201911
0.00457732
-0.00585452
0.00125512
0.00592899
-5.56132e-05
-0.00587684
0.00367925
0.00844789
0.000325874
0.000162572
-0.000493921
0.0023218
0.00869097
0.0211756
-0.00559325
0.00635175
-0.00314282
-0.0193994
0.00308806
-0.00275259
0.00611056
-0.00102093
0.00029134
0.0197132
-0.00394036
0.0149988
-0.00319741
0.0172077
-0.0141855
-0.00197695
-0.0182192
0.00744738
-0.00420294
-0.000565376
-0.000138503
0.000473672
0.00365647
-0.00292804
0.00528239
-0.00468069
-0.00136697
0.00198247
-0.00649212
0.000890924
0.00316881
-0.00414435
-0.00438497
-0.000954786
-0.00632472
-0.00119936
0.00710457
-0.0134139
0.00544349
0.00790875
-0.0194171
0.00629851
-3.3634e-05
0.000353991
-0.000888285
7.74332e-05
-0.00540573
-0.00306781
0.00842593
-0.00333275
0.00537547
-0.0020482
0.00456233
-0.0159806
0.0112079
-0.0170886
0.0137174
0.00304259
0.00226273
-0.00385222
-0.00106855
0.00492135
-0.00240504
0.00728179
-0.00487168
0.0199346
-0.00510724
-0.000401852
0.00374203
-0.0196718
0.0114773
0.00800964
-0.00282426
-0.00139392
0.00421183
0.00986947
-0.00756385
-0.00425263
0.00369809
-0.0253093
0.0149354
-0.0105568
-0.00457198
0.0188233
-0.0118187
-0.00706161
-0.0051242
-0.010009
0.00551959
0.00445604
-0.0139501
0.0073135
0.00660225
0.013684
-0.00847535
0.00637487
-0.000810189
-0.00561199
0.00226263
-0.00522334
0.00295343
-0.0152522
0.00248259
-0.0118438
0.0161921
-0.0132722
-0.00895068
0.00166554
0.0049153
-0.00660783
-0.00031429
0.000318246
-0.000188221
-0.00385835
-0.000774956
0.00708246
-0.00149319
0.00584192
-0.00943287
-0.00966164
0.00593886
-0.0131858
0.00722208
-0.0028079
0.00384243
0.00718983
0.0134766
-0.0206857
-0.00327269
-0.0061211
0.00928758
-0.00434871
-0.00503092
-0.0131328
-0.00636191
-0.00959978
-0.00954047
0.00350393
0.00313597
-0.0066589
-0.00331631
-0.000978336
0.0042204
0.00439604
-0.0087331
-0.00361003
-0.0090959
0.00571858
0.0196538
0.00159139
-0.0161616
0.0144157
-0.00492841
0.00357647
0.00133302
-0.00978758
0.00340438
0.00614139
-0.00222347
0.00467014
-0.00461233
-0.000338878
0.0206082
-0.0127095
-0.00802881
-0.0170812
0.00807402
-0.0087467
-0.0066542
0.0153654
-0.0202522
0.00742182
0.0126666
0.00592104
-0.0099017
0.00398946
-0.00549644
0.00231642
0.0103993
-0.0177758
0.00723056
-0.0085697
0.00189957
-0.0120467
0.0190597
-0.007214
0.0079567
-0.0167401
0.0069253
-0.00404304
0.000646164
-0.00374284
0.0095583
-0.00591384
0.01482
-0.00913396
0.0160026
-0.0116148
-0.00478155
0.0112207
-0.00694052
-0.0047777
-0.0147074
-0.000133059
0.0145704
0.0183438
-0.00863874
0.00382971
-0.0134513
0.00946199
0.00333814
0.0120874
-0.0156633
0.0141116
0.00477456
-0.0191444
-0.00706347
0.0125784
-0.00558258
0.00086067
-0.0178831
0.0169856
0.000481658
-0.00359129
0.00300739
1.0874e-05
8.18449e-05
-0.00260071
0.00715096
0.0135514
-0.00764308
0.000427646
-0.0143089
0.00795171
0.0124875
0.00458526
0.00468081
-0.00926188
-0.0109475
-0.0074912
0.0184272
-0.000528625
-0.000175353
-0.00762097
0.00180879
0.00305627
0.00327796
0.00774213
-0.0016807
-0.00618435
-0.00352901
-0.000116875
0.00353349
0.0179039
-0.0123342
-0.00566171
0.00620463
0.00449584
-0.00314806
-0.0106889
-0.00317064
0.0029585
0.00187284
0.00574941
0.00416883
0.00384112
-0.00800018
-0.018529
0.00628681
0.0153297
-0.00832979
-0.00706515
0.00327244
-0.00165932
0.00989989
-0.00435209
0.00174169
-0.0125865
-0.00366768
0.00988578
0.0086312
-0.00270366
0.0114141
-0.0198123
0.00126246
-0.00330256
0.000639263
-0.00389895
0.00316649
0.0020457
-0.00760466
0.00526484
0.00103023
-0.00442016
0.000430517
-0.00477602
-0.00389414
0.0172056
0.00330465
-0.0172985
0.0138414
0.0102737
-0.005684
-0.00795598
-0.00185349
0.00972454
-0.0040579
0.00783613
-0.00611421
0.0108906
-0.00365894
-0.00730965
-0.0076933
-0.0013446
0.00895872
0.018249
-0.0051915
-0.00565444
0.0113218
0.00578264
-0.00818175
0.0110942
0.00365282
0.00695814
0.00951994
-0.0164863
0.0122828
-0.0122764
-0.000338205
2.29112e-05
-0.00348925
0.00281595
-0.00424471
0.0181208
-0.0147368
0.016172
0.00928562
0.00228934
-0.0119314
0.00189744
0.000561628
-0.00327603
-0.00403594
0.00389249
-0.00175991
0.0106967
0.00644948
-0.0136593
0.00673733
-0.00336193
-0.00340577
0.00124342
-0.00197022
0.000232457
0.00589815
-0.0102755
0.00431515
-0.00255479
0.0053525
-0.008227
0.00768791
0.000546828
0.00480041
0.00347981
-0.00835836
-0.00428391
0.00540994
-0.00445625
-0.000976849
0.00135283
0.00404015
-0.0129952
0.00061058
-0.00950531
0.00173466
-0.00747733
-0.00988418
0.00552287
0.00435565
-0.000922948
0.000962819
0.0122573
0.0054126
-0.0115534
-0.00652814
-0.00256415
0.00900051
0.0152976
-0.00469602
-0.0106754
0.0079178
-0.00569431
-0.00225384
-0.00538619
0.00871314
-0.00337869
-0.012601
0.00817545
0.00432131
-0.00683741
-0.0157497
0.0221319
-0.0109264
-0.0164145
0.00856437
0.00779441
0.0122341
-0.00856451
-0.0090515
-0.0135388
0.0114987
-0.00269644
-0.00887391
0.0129697
-0.00752389
-0.00874469
0.00431422
0.00444181
0.00233283
-0.00940678
-0.00706045
-0.00586766
-0.00479446
0.0083241
-0.00521597
-0.00361263
0.00234101
0.000967036
-0.00330932
-0.00287
0.00235296
-0.00378507
0.00408062
-0.0106972
0.00357748
0.00369428
-0.00314215
0.00157506
-0.0032535
-0.0061281
0.0116798
-0.00369632
0.00202036
0.0100984
-0.016605
0.00649976
0.00960942
0.00477556
-0.00408394
0.00901716
-0.00504576
-0.0112592
0.0074896
0.00367214
-0.00472171
-0.00483647
0.00955348
-0.00546152
-0.00597357
0.0114312
0.0153871
-0.0026465
-0.0129204
0.017261
-0.0120538
0.00830983
0.00326505
-0.013654
0.0064719
0.00712291
-0.00436097
-0.0123905
0.01672
0.00326049
0.0114471
-0.0149463
-0.000767787
0.000252722
-0.00484069
0.0197753
0.0112403
0.00439566
-0.0136158
-0.00440098
0.0179213
0.00537331
0.00575602
-0.0112121
-0.000224327
-0.00844588
0.00301259
0.00434687
0.00345224
0.0139139
-0.0220146
0.00784424
0.010491
0.00420741
-0.0054215
0.00151064
0.00390474
0.00227028
-0.00301261
0.000492659
-0.00587548
-0.00385967
0.00962062
0.0128217
-0.00990911
0.00502065
0.00578559
-0.00994383
0.00472066
0.00517675
-0.0117113
0.0161064
-0.00444261
-0.00275517
0.00765197
0.0147965
-0.0116774
-0.00327317
0.0131145
0.00444528
-0.00232536
-0.00349743
0.00767751
0.00150796
0.00176375
-0.0105473
-0.00323289
0.0135156
-0.0137358
-0.00447845
0.0179722
-0.00674209
-0.00593354
-0.00540995
0.0125115
-0.007375
-0.00462538
0.0063458
-0.00174043
4.89657e-05
-0.003757
-0.0145246
-0.00543881
0.0199513
0.012695
-0.00768405
-0.00537037
0.00285982
0.00250183
0.00420755
-0.00748375
0.00518008
-0.00468068
-0.000491719
0.00906368
-0.0111796
0.000250131
0.00425828
-0.00454021
0.000604254
-0.00171374
-0.0130611
0.00392118
0.00900279
-0.00211356
-0.0032615
0.000409449
0.00318335
0.00602522
-0.00493778
-0.00110709
-4.6784e-05
-4.82822e-05
6.1067e-05
-0.000270196
0.00100991
-0.0182153
0.00547225
0.00241564
-0.0171752
0.00346336
0.00262642
0.000962686
-0.00375195
-0.00764548
0.00344562
0.00416657
-0.00563414
0.0114685
0.0107039
0.00857885
0.00765502
-0.00184359
0.00114643
0.00276904
-0.00391864
-0.0054578
-0.00276295
-0.00023526
0.00227305
-0.00010196
0.00265845
-0.00255643
9.572e-05
9.53966e-05
-0.000231338
-0.00349745
0.00962558
0.00802245
0.0129018
-0.00383291
-0.0093504
-0.00107771
0.00409307
-0.00305883
0.00015452
-0.000166065
0.00851527
0.00291321
0.00391937
0.00492996
-0.00328049
-0.00142971
0.000532238
0.000248658
-0.00134581
0.000394909
0.00327701
0.00435256
0.00991727
0.00145038
-0.0117112
-0.00837598
0.00381538
0.00451314
0.0170206
-0.00500249
-0.00101001
0.00346726
0.000214568
-0.000553618
0.0113012
-0.00242825
0.00808251
-0.00612383
-0.00196354
0.00362557
0.00156383
0.00415999
0.0055928
-0.00546888
0.01076
0.00850253
-0.00654609
-0.00197365
0.00429344
-0.00176056
-0.00310147
-0.00691628
0.00614487
-0.00963173
0.00348516
0.000487612
-0.000887629
-0.00372688
0.0061441
-0.0024403
-0.0124098
0.00674579
0.00672793
-0.00324512
0.0148886
-0.0040148
-0.0195995
0.0151041
0.00167562
-0.00893869
0.0177797
-0.0082196
-0.0033568
0.0115035
0.00260577
0.00275333
-0.00537042
-0.000520518
0.000852181
-0.00057394
0.00610477
0.00550456
-0.0176425
0.010855
0.00658547
8.23481e-07
0.000101931
0.00495178
-0.00269786
0.00831858
0.00897811
-0.0173247
0.0155035
-0.0104654
-0.00520087
-0.00462354
-0.00541747
-0.00470339
-0.00364452
-0.00867136
0.0121845
0.000110706
-3.29598e-05
0.00208846
0.0028545
0.0150848
-0.00558886
-0.0194771
-0.00302692
0.00297802
0.0071763
0.00816835
-0.00419565
0.00583814
-0.000186625
0.000154565
-0.00467996
0.00882987
-0.00418413
-0.000434901
-0.000532151
0.000619799
0.00123411
0.00600991
-0.00771017
-0.00988186
-0.00253475
-0.00377711
-0.00190234
0.00288659
-0.000984556
0.00536796
0.000639055
-0.0154306
-0.00488775
0.0202794
0.0031599
-0.00904349
-0.00241351
0.0111148
-0.00878268
-0.0132452
-0.00163007
-0.00379791
0.00499468
-0.00462291
-0.000384298
0.00617903
0.0116284
0.0139317
-0.0111041
-0.00679887
-0.0129083
-0.00115477
0.000433388
0.00084491
-0.0135647
0.0124785
-0.000225657
-0.00027064
-0.0102945
0.00566893
0.00457891
0.00985765
-0.0145856
0.0046205
-0.00452145
-0.00421008
-0.0112682
0.00296546
0.00414366
0.014821
-0.0189954
0.0056318
-0.0110961
-0.0128756
0.0170345
-0.0126787
0.00541037
0.00720369
0.00984782
-0.00449885
-0.00266794
-0.0094154
0.00661483
0.00963089
-0.0163232
-0.000270843
4.50511e-05
0.00702198
-0.00623821
-0.000456916
-0.00102683
0.000214509
-0.000591694
-0.00354851
-0.00780042
0.00193467
0.000104849
-0.00280978
0.0022753
-0.00237697
-0.00561671
0.00806973
-0.00252349
0.000425538
0.00186558
-0.00278768
0.00303637
0.00437234
-0.00116186
0.000452082
0.00134989
0.00457731
-0.0125595
0.00916895
-0.0147172
0.0114603
-0.00189184
-0.00180705
0.00450861
-0.00907615
0.00452551
0.00653148
0.0020644
-0.00710682
0.00966698
-0.00271604
0.00109079
-0.00390326
0.00275574
0.00330953
0.0106236
-0.0141721
0.00667455
-0.00851062
0.00174283
0.00599062
-0.00750438
0.00146196
-0.0122309
-0.00386084
0.015779
0.00360826
-0.00247191
-0.00113651
0.0143739
-0.00334218
-0.0111194
-0.0134553
-0.00415243
0.0175794
-0.00197495
0.00849464
0.0158714
-0.00933063
0.00328301
-0.00213901
-0.00923217
0.00504144
4.67417e-05
-0.00134151
0.000919486
-0.0106504
0.00395958
-0.00208025
-0.0069869
-0.00372135
-0.00974506
-0.00254046
0.00380343
0.00560394
-0.020007
0.0143883
0.00163135
-0.00839048
-0.0146237
0.00288252
0.0136322
-0.0176641
-0.00440071
0.00217206
-0.00856133
0.00636756
-0.0106404
0.00967652
-0.00312302
0.00325634
-0.00923552
-0.00474251
0.00493928
0.016099
-0.00413722
0.00962121
0.0012876
-0.00697099
-0.00475288
0.0177078
-0.00174633
-0.0086993
0.000971503
-0.00129691
-0.00416904
0.010075
0.0154907
-0.0030763
0.00442788
-0.0156869
0.0111374
-0.0134246
0.00890415
0.00441866
-0.00302945
0.00381842
-0.000787766
0.00053658
-0.000820628
0.000272275
-0.0143568
0.0199478
0.000556379
0.0132466
-0.0208933
0.014068
0.00674225
-0.0119497
0.00784646
0.00400659
0.0049309
4.93135e-05
0.000484751
-0.00124933
-0.00670201
0.00383181
0.00282633
0.00215707
0.00591897
0.000402901
-0.000302032
-0.000103963
0.0127703
-0.0076073
-0.00544113
-0.0103703
-0.000357086
0.00152727
0.0122032
-0.00744843
-0.00503864
0.00178468
-0.00902055
0.00706413
-0.00632008
0.0183842
-0.012135
-0.00938654
0.00946398
0.00182221
-0.00884853
-0.00806298
-0.00225565
0.00998464
0.00524009
-0.00272327
-0.00252843
0.00598201
-0.00466908
0.000223983
-0.00682194
0.00519389
-0.00708365
-0.0127658
0.00469676
-0.00448022
0.0179498
-0.0060106
0.00286275
-0.00339334
0.000312912
-0.00454875
0.0090116
-0.00611909
-0.00577326
0.0118585
-0.0054482
0.00667268
0.00288438
0.00799312
-0.011108
0.00930426
0.00305445
-0.0101594
0.0108027
-0.00377299
0.014387
-0.00632813
0.00305618
0.00957272
-0.0128015
-0.00544446
0.00736538
0.00298931
-0.0155239
0.00288878
0.0100114
-0.0131948
0.00922173
9.77256e-06
0.00814541
-0.0137997
-0.00408225
0.0178209
-0.0168913
0.00593109
0.0101046
0.00865473
-0.00240302
0.00665597
-0.00499453
-0.00278571
-0.017929
-0.00765036
0.00400149
0.00362823
0.00905265
-0.0130093
0.00219624
-0.0153215
0.0130309
0.000518473
-0.000640855
-0.000625207
-0.000779486
0.00113189
0.00763868
0.00335298
-0.0111607
0.00501613
0.0109798
-0.01611
-0.0158566
0.00410007
-0.00778957
0.0104483
-0.00104384
0.00375377
-0.0027333
-0.014642
0.0185029
-0.00405078
-0.0072763
0.0152795
-0.0122745
-0.00330067
0.00802482
-0.0030857
-0.000373321
-0.00737715
0.00533575
-0.00326846
-0.00457916
0.00784895
-0.0180222
0.00416446
-0.000142516
0.000474253
-0.00460607
0.00454825
-0.00910758
0.0138784
-0.00489202
0.00206572
-0.00827794
0.00443676
-0.0131284
0.0190467
-0.00596464
-0.0211529
0.014918
0.00609815
-0.00342584
-0.00923175
0.0124042
0.00535118
0.00714738
0.00450484
-0.000837158
-0.0036721
-0.00593818
-0.00532089
0.0111597
-0.0192374
0.00376572
0.00975893
-0.0172629
0.0066716
0.00523492
-0.00707837
0.00157381
-1.82693e-05
0.000152972
-0.0111026
-0.00373726
0.014739
0.00459232
-0.0168168
0.01219
-0.00010309
-0.000122737
0.00820757
-0.0047936
0.00965086
-0.00496841
-0.0187034
0.00552439
-0.00436011
0.00865449
0.0205723
-0.0156645
-0.00494925
0.00592796
0.000750908
-0.00688953
0.00143031
-0.000309714
-0.00139711
-0.00761089
-0.00637112
-0.0108146
-0.0129529
-0.00428809
0.017013
-0.0168735
0.0111738
0.0055514
-0.0132669
-0.0043167
0.017343
-0.00627864
0.000943624
0.00481751
0.0196295
-0.00935691
-0.010303
0.0123703
-0.0173078
-0.00371862
0.00427165
-0.000556183
0.00213446
0.00394727
0.0143134
-0.018295
-0.00394565
-0.00882776
0.0157802
-0.00356246
-0.0203392
0.0163358
-0.00723485
-0.000621734
0.0074051
-0.00348363
-0.00814222
0.0115001
0.0145811
-0.00762429
-0.00721917
0.014078
-0.00972769
-0.00449716
-0.00291159
-0.0101916
0.00333152
0.00934839
-0.0129826
0.0136876
-0.012854
-0.0172365
-0.00629253
0.00338861
0.00288535
0.00885422
0.00536159
0.00701834
-0.00323855
-0.00383897
-0.00702373
0.0131045
-0.00611249
0.00335001
0.00980022
-0.0133889
-0.00547833
-0.0112334
0.00208293
-0.0112986
-0.0043848
0.0141527
-0.00990224
0.0122386
-0.00471595
-0.00762432
-0.00416474
0.00311269
0.00361691
-0.00217519
-0.00638633
-0.00395262
0.000876398
-0.00320648
0.00230687
-0.0139956
0.010603
-0.0048618
0.00400248
0.00164755
0.0153647
0.00441922
-0.0192508
0.00872288
-0.00747901
-0.000672583
0.00770806
0.0167118
0.0102399
0.0042813
0.00631317
-0.00214337
-0.00418237
0.00680482
-0.020805
0.0138859
-0.0164928
0.0107437
0.00543464
-0.00247174
0.00497672
-0.0142321
-0.0091398
0.0012003
0.00629698
-0.00374397
0.012516
-0.0198568
0.00720148
-0.00760947
0.0023022
0.00789055
-0.0105109
0.00911614
-0.00395125
0.000938406
0.00294799
-0.014672
0.0189071
-0.00220021
-0.00303333
4.6585e-05
0.00111318
-0.00758267
-0.00388785
0.00760118
-0.00460676
0.00289787
-0.00108052
-0.00292722
0.00412925
0.0155334
-0.0196974
-0.00472211
-0.002949
-0.003948
-0.00693155
0.010762
-0.0223097
0.0167013
0.00545124
-0.0179845
-0.003255
0.0061349
-0.00381649
-0.00253162
-0.00296368
-0.00471669
0.00556684
0.00585129
-0.0115955
-0.00145882
0.003798
0.0125473
-0.018688
0.00662367
-0.0132295
0.00659939
-0.0115855
-0.00251487
0.00318106
-0.000745103
-0.00205529
-0.00258123
0.00195139
-0.000920155
-0.000126169
0.000651879
0.00218412
0.00225735
0.0181962
-0.00638629
-0.01197
0.00151235
-0.00921119
0.00726505
0.0159746
0.00434804
-0.020352
-0.0101791
-0.0117693
0.0081554
-0.00432214
-0.00628428
0.0165429
-0.00541597
0.0070994
0.00816144
-0.00300478
0.00614245
-0.00316551
-0.00849733
-0.00710751
0.0102496
0.00356313
-0.00181949
-0.00174483
0.00597623
-0.0182309
0.0120779
-0.00439972
-0.00787536
-0.00192593
0.00952159
0.00180181
-0.00332677
0.00152486
0.0018408
0.00744867
-0.00879519
0.00123419
0.00404682
-0.00317434
0.0135561
-0.0102602
-0.00344296
0.00100306
0.0029766
-0.00307656
0.00756641
-0.0046194
-0.00319715
-0.00723343
0.0102717
-0.0122891
0.00734398
0.0046669
-0.00600547
0.0115379
-0.00561518
-0.0002981
0.00294848
0.0115207
0.00651336
0.00785526
-0.00380944
-0.0040928
0.00901029
-0.00442118
-0.00457657
0.0041759
-0.0074427
0.00277148
0.00478755
-0.0141077
0.0020711
-0.00415157
-0.00268136
-0.0115659
0.0138543
0.00761154
-0.00363306
0.0121052
-0.0164984
0.000901854
0.00600713
-0.0019416
-0.00418629
-0.00836211
0.00325037
-0.00190307
-0.00202
-0.0120151
-0.00584896
0.0176407
0.00439855
0.00149083
-0.00342625
0.00438425
-0.00872778
0.0128492
-0.00451907
-0.00558523
-0.00715564
0.00882098
-0.00774224
0.00249624
0.00192562
-0.0044161
-0.0034572
-0.00964942
-0.00287587
0.0121585
0.0035586
0.000941046
0.00104192
-0.0091668
-0.0116616
0.0113195
0.0148199
-0.00357461
0.00508901
-0.00301199
-0.0146798
0.00522495
0.000379917
-0.000123299
-0.000375462
0.00867963
-0.0111409
0.0135813
-0.00268803
-0.00340037
0.00520769
-0.00270719
-0.0025113
-0.0119159
0.017468
-0.00871711
-0.00876571
-0.0110791
0.00335639
-0.010064
-0.00867815
0.0136603
-0.00439717
-0.00554164
0.00980096
-0.0156679
0.00709799
0.0155645
0.00495697
0.011109
0.00358067
0.00189864
0.00239398
0.0146575
0.00010662
-0.0148531
-0.000581267
-0.00153974
-0.00816005
-0.0142683
0.00262196
0.00294919
-0.00573357
0.011252
-0.00660656
0.0045437
0.00203143
-0.00692974
0.00250174
-0.00284946
0.0126124
0.00198287
0.00197589
-0.00258407
0.00508643
0.0201948
-0.00468193
-0.00198039
-0.00466085
-0.00686412
0.0103226
-0.00360277
0.00172015
0.00188313
-0.00535066
0.00903334
0.00602791
-0.0102772
0.00425558
-0.0050747
-0.0081388
0.00431306
-0.00554235
-0.00682294
0.0122334
0.000665484
0.00951743
-0.0101845
-0.00462518
0.00263287
0.00198524
0.000901146
-0.00395657
0.00300193
0.0184472
9.83892e-05
-0.00323095
-0.00854716
0.0116043
-0.00453058
-0.00545064
0.0176363
0.0106506
-0.00525512
-0.00687014
0.0121609
-0.00530332
0.00399533
-0.00300838
-0.000989068
-0.00988705
-0.00392684
0.00264208
-0.00440346
4.09354e-05
-0.00011951
-0.00464363
0.000697322
0.00383551
0.00576944
0.00287958
0.0032681
-0.00614954
0.010498
0.00343661
0.000133746
-7.83272e-05
0.00838455
0.00230007
-0.00646405
0.00997649
-0.00371669
-0.0116917
0.0121292
-0.0185229
0.0199167
-0.0142831
-0.00573651
0.0087538
0.00554275
0.0181891
-0.00316462
0.00401296
0.00726941
-0.00913449
0.00180257
0.0166653
0.0155611
-0.000988557
0.00205242
-0.00380305
0.00175166
0.00232959
-0.00958114
0.0138877
-0.00520989
0.00386416
0.000160995
-0.00405879
0.00201048
0.00425714
-0.000706224
-0.00392854
0.00556073
-0.0179897
-0.00535599
0.00776624
-0.00251151
-0.000752489
-0.0104233
0.00281015
-0.00394807
0.00405511
-0.00463938
-0.00887535
0.00332339
-0.0182878
0.0147894
-0.00915002
0.00593087
0.0031601
0.00277448
-0.0146701
4.5105e-06
0.000392858
-0.0068488
0.00982362
-0.00302423
0.0033249
0.00338553
0.0065415
-0.00274951
0.00480579
-0.00967137
0.00485566
0.00877742
-0.00662629
0.00516955
0.00510631
0.00276057
-0.00446074
0.00169871
0.000381709
-0.00158634
-0.00503675
-0.00340511
-0.0013396
0.0122069
-0.00578744
0.00556715
-0.0107861
-0.00428624
-0.0125593
0.0108038
-0.00382425
-0.00708165
-0.00875932
0.0125541
-0.00487661
-0.00761558
0.012385
-0.0137643
-0.0113316
0.0186009
-0.00540246
-0.00448842
-0.00605685
0.0117877
-0.00580339
-0.0117653
0.00561294
0.00357517
0.00526
-0.00883025
-0.00128033
0.00573931
-0.00328558
-0.00248121
-0.00996201
0.00585131
-0.0180849
0.0145685
-0.0155588
0.000896197
-0.00105028
0.00825463
0.000798015
0.0025087
-0.0033819
-0.00720937
-0.00223052
0.00911678
0.00547112
-0.00141567
-0.0032179
0.00263855
0.00715984
-0.0102178
-0.017867
0.0113289
-0.00447715
-0.0121505
-0.0151645
0.00933966
0.00562743
-0.00568599
0.0129677
-0.00116421
0.00490551
-0.00377757
-0.0139238
-0.0138907
0.00308174
0.00772057
0.0118673
0.00404972
-0.000216499
0.00682958
0.0136732
0.00191075
0.00165046
0.011793
-0.00771607
-0.00424876
-0.00797185
0.00420199
0.00352633
-0.0101424
0.0166389
-0.00967074
-0.00682146
-0.0111921
-0.00195626
0.00471416
-0.0015499
-0.00715391
0.0181369
-0.0110605
-0.00659217
-0.00574268
0.0122823
-0.0072782
0.0173195
-0.0101431
0.00039818
-0.00293977
0.0168086
-0.00785694
0.00448449
0.0107422
0.00673025
-0.00326221
-0.00341499
-0.00621975
0.00886743
0.00355723
0.00466136
0.00453836
0.0125078
0.00610085
0.0138906
-0.0200122
-0.00476744
0.00651946
0.01843
-0.00143825
0.000319228
0.000404394
-0.0139821
-0.0014105
-0.00948034
0.00214807
-0.00138373
-0.00496937
-0.0060825
0.0109875
-0.00250468
0.00603687
-0.00380075
0.00276278
0.00499151
0.0116128
-0.0180488
0.00483269
-0.00955743
-0.00737743
0.00377692
-0.00852437
0.00450786
-0.00557787
0.0147145
-0.0181093
0.0032735
0.0171579
-0.00570163
-0.0116139
0.00081329
0.00926983
-0.0104034
-0.0034992
0.00160556
0.0018931
0.00926268
-0.00516345
0.00141958
0.0100817
0.00283153
-0.0129993
0.00464124
0.00418519
0.0065353
-0.012343
0.00384632
-0.0146485
0.0185609
-0.0057879
0.0118149
0.0030111
0.00103482
-0.00641121
-0.0103633
-0.00541998
0.0113672
-0.00596012